/*--------------------------------*- C++ -*----------------------------------*\
| =========                 |                                                 |
| \\      /  F ield         | foam-extend: Open Source CFD                    |
|  \\    /   O peration     | Version:     3.1                                |
|   \\  /    A nd           | Web:         http://www.extend-project.de       |
|    \\/     M anipulation  |                                                 |
\*---------------------------------------------------------------------------*/
FoamFile
{
    version     2.0;
    format      ascii;
    class       volVectorField;
    location    "2.4";
    object      D;
}
// * * * * * * * * * * * * * * * * * * * * * * * * * * * * * * * * * * * * * //

dimensions      [0 1 0 0 0 0 0];

internalField   nonuniform List<vector> 
256
(
(0.000270091 0.000175164 0.000302153)
(0.000118325 3.32604e-05 9.13575e-05)
(0.000104916 -5.22526e-05 -0.000105967)
(0.000227217 -0.000195159 -0.000330026)
(0.00112087 0.000720217 0.000248725)
(0.000932967 0.000191815 9.13717e-05)
(0.000897145 -0.000227559 -0.000143087)
(0.001007 -0.000754023 -0.000325654)
(0.00219107 0.00110922 0.000175844)
(0.00200337 0.000321475 4.77928e-05)
(0.00195502 -0.000370728 -0.000130446)
(0.00204122 -0.0011625 -0.000284967)
(0.0034573 0.00140718 7.10975e-05)
(0.00328924 0.000414403 3.09511e-06)
(0.00323307 -0.000493161 -0.00011027)
(0.00328303 -0.00149213 -0.000205971)
(0.00484789 0.00160593 -3.35019e-05)
(0.00469827 0.00046974 -4.04938e-05)
(0.00463723 -0.000592547 -8.66114e-05)
(0.00465791 -0.0017337 -0.000120905)
(0.00629755 0.00172511 -0.000126822)
(0.00616478 0.000494734 -7.95408e-05)
(0.00610108 -0.000672026 -6.57781e-05)
(0.00609914 -0.00190298 -4.30697e-05)
(0.00775546 0.00178412 -0.000201576)
(0.00763429 0.000497036 -0.000114447)
(0.00756857 -0.000733894 -5.18649e-05)
(0.00755263 -0.00201421 1.72027e-05)
(0.00919615 0.0018028 -0.000257739)
(0.00906953 0.000486544 -0.000146847)
(0.00899754 -0.00078018 -4.67872e-05)
(0.00897957 -0.00208488 5.02017e-05)
(0.000301401 0.000172895 0.000150093)
(0.0001541 3.40217e-05 4.7254e-05)
(0.000140965 -4.79084e-05 -6.16027e-05)
(0.000254997 -0.000184476 -0.000177201)
(0.00118957 0.000713836 0.000140222)
(0.000978898 0.000192705 4.64427e-05)
(0.000945589 -0.000219515 -9.36062e-05)
(0.00108069 -0.000739814 -0.00020502)
(0.0022403 0.00111942 9.63928e-05)
(0.0020535 0.000328833 1.92578e-05)
(0.00200798 -0.000370423 -9.36598e-05)
(0.00209616 -0.0011655 -0.000188949)
(0.00347474 0.00142172 2.64085e-05)
(0.00330965 0.000424609 -1.29321e-05)
(0.00325629 -0.000493357 -8.3349e-05)
(0.0033057 -0.00149695 -0.000141393)
(0.0048252 0.00162346 -4.85633e-05)
(0.00468126 0.00048245 -4.55049e-05)
(0.0046227 -0.000590977 -6.91191e-05)
(0.00463947 -0.00173648 -8.41238e-05)
(0.00623493 0.00174298 -0.00011767)
(0.00610882 0.000508904 -7.57154e-05)
(0.00604732 -0.000666565 -5.62139e-05)
(0.00603989 -0.00189973 -3.01714e-05)
(0.00765729 0.00180052 -0.000174393)
(0.00754406 0.000511413 -0.000103024)
(0.00748067 -0.000723619 -4.88669e-05)
(0.00745781 -0.00200288 1.08999e-05)
(0.00907169 0.0018167 -0.000216022)
(0.00895319 0.000499916 -0.000127161)
(0.00888372 -0.000765584 -5.06284e-05)
(0.00885911 -0.00206572 2.9024e-05)
(0.000315136 0.000178062 7.26667e-05)
(0.000159286 3.62374e-05 2.22499e-05)
(0.000144593 -4.85707e-05 -3.60281e-05)
(0.000263472 -0.000188697 -9.46175e-05)
(0.00121878 0.000706814 6.92884e-05)
(0.00099042 0.000191824 1.81184e-05)
(0.000955477 -0.00021347 -5.96379e-05)
(0.00110456 -0.000729308 -0.000121647)
(0.0022636 0.00110971 4.12323e-05)
(0.0020637 0.000329213 -4.76799e-07)
(0.00201646 -0.00036247 -6.44736e-05)
(0.00211436 -0.00114885 -0.000116703)
(0.00348023 0.00141119 -4.9106e-06)
(0.00330659 0.000426512 -2.33964e-05)
(0.00325137 -0.000482907 -6.08275e-05)
(0.00330572 -0.0014745 -8.96484e-05)
(0.00480695 0.00161499 -5.63989e-05)
(0.00465746 0.000486668 -4.7121e-05)
(0.0045969 -0.000577911 -5.36436e-05)
(0.00461534 -0.00170998 -5.39034e-05)
(0.00619088 0.00173813 -0.000105509)
(0.00606151 0.000515719 -6.97866e-05)
(0.00599803 -0.000650771 -4.69512e-05)
(0.00598979 -0.00186998 -1.90967e-05)
(0.00758894 0.00180046 -0.000146916)
(0.00747448 0.000520664 -9.0746e-05)
(0.00740924 -0.000705293 -4.46034e-05)
(0.00738349 -0.00197076 6.6273e-06)
(0.00898446 0.00182223 -0.000177061)
(0.00886641 0.000511306 -0.000109347)
(0.00879457 -0.000745187 -5.06313e-05)
(0.00876414 -0.00203201 1.34255e-05)
(0.000319469 0.000180926 3.31136e-05)
(0.000157473 3.73267e-05 9.18995e-06)
(0.000141414 -4.88928e-05 -2.08664e-05)
(0.000263803 -0.000190929 -4.93438e-05)
(0.00122718 0.000702005 2.88324e-05)
(0.000987988 0.000191242 3.32865e-06)
(0.000950898 -0.000208635 -3.76639e-05)
(0.00110695 -0.000720519 -6.97076e-05)
(0.00226732 0.00109957 9.03259e-06)
(0.00205769 0.00032873 -1.02737e-05)
(0.00200818 -0.000353624 -4.34315e-05)
(0.00211206 -0.00113064 -6.87358e-05)
(0.00347326 0.00139878 -2.20481e-05)
(0.00329217 0.000427027 -2.67379e-05)
(0.00323467 -0.000470485 -4.31945e-05)
(0.00329285 -0.00144899 -5.34352e-05)
(0.00478546 0.00160319 -5.72218e-05)
(0.00463058 0.000489058 -4.39354e-05)
(0.00456777 -0.000562397 -4.02563e-05)
(0.00458806 -0.00167947 -3.17733e-05)
(0.00615294 0.00172916 -9.16383e-05)
(0.00601996 0.000520585 -6.07566e-05)
(0.00595431 -0.000632686 -3.75642e-05)
(0.00594619 -0.00183629 -1.02303e-05)
(0.00753465 0.00179578 -0.000121458)
(0.00741808 0.000528191 -7.6756e-05)
(0.0073507 -0.000685174 -3.82581e-05)
(0.00732343 -0.00193529 4.88427e-06)
(0.00891635 0.00182242 -0.000143232)
(0.008797 0.0005215 -9.12716e-05)
(0.00872221 -0.000723465 -4.59488e-05)
(0.00868801 -0.00199558 5.10541e-06)
(0.000320255 0.000182128 1.35649e-05)
(0.000154597 3.78914e-05 2.91483e-06)
(0.000137574 -4.89145e-05 -1.18293e-05)
(0.000261726 -0.000191522 -2.48169e-05)
(0.00122685 0.000698686 8.20382e-06)
(0.000981162 0.000191181 -3.07964e-06)
(0.000942335 -0.000204727 -2.33652e-05)
(0.00110179 -0.000713088 -3.85571e-05)
(0.00226227 0.00109246 -6.29317e-06)
(0.00204633 0.000328853 -1.31346e-05)
(0.00199498 -0.000345928 -2.84815e-05)
(0.00210205 -0.00111556 -3.87318e-05)
(0.00346084 0.00138967 -2.74517e-05)
(0.00327448 0.000427969 -2.48831e-05)
(0.0032152 -0.000459357 -2.96237e-05)
(0.0032757 -0.0014275 -3.0015e-05)
(0.00476359 0.00159411 -5.13467e-05)
(0.00460465 0.000491467 -3.71609e-05)
(0.00454016 -0.000548352 -2.89148e-05)
(0.00456176 -0.00165324 -1.70899e-05)
(0.00612029 0.0017218 -7.51048e-05)
(0.00598435 0.000524922 -4.93851e-05)
(0.00591714 -0.000616298 -2.84225e-05)
(0.00590932 -0.00180691 -4.1774e-06)
(0.00749072 0.00179125 -9.61508e-05)
(0.00737217 0.00053461 -6.12966e-05)
(0.00730321 -0.000667 -3.05057e-05)
(0.00727517 -0.00190397 4.17662e-06)
(0.00886179 0.00182112 -0.00011155)
(0.008741 0.000530012 -7.2305e-05)
(0.00866398 -0.000703883 -3.79779e-05)
(0.0086275 -0.00196314 1.39841e-06)
(0.00031993 0.000182552 4.57594e-06)
(0.000152196 3.81991e-05 3.11429e-07)
(0.00013453 -4.8801e-05 -6.43286e-06)
(0.000259435 -0.00019139 -1.18143e-05)
(0.00122381 0.000696485 -5.39083e-07)
(0.000974308 0.000191415 -4.66913e-06)
(0.000934256 -0.00020175 -1.38722e-05)
(0.0010953 -0.000707295 -2.02709e-05)
(0.00225496 0.00108802 -1.07198e-05)
(0.00203512 0.000329445 -1.17094e-05)
(0.00198247 -0.000339982 -1.77174e-05)
(0.0020912 -0.00110432 -2.06075e-05)
(0.00344819 0.00138399 -2.46349e-05)
(0.00325841 0.000429285 -1.96777e-05)
(0.0031979 -0.000450671 -1.91066e-05)
(0.00325972 -0.00141149 -1.57052e-05)
(0.00474461 0.00158836 -4.02238e-05)
(0.00458289 0.000493886 -2.79852e-05)
(0.00451728 -0.000537314 -1.93388e-05)
(0.0045397 -0.0016335 -8.23667e-06)
(0.0060941 0.001717 -5.58655e-05)
(0.00595607 0.000528708 -3.63579e-05)
(0.00588783 -0.000603362 -1.9777e-05)
(0.00588029 -0.00178449 -8.32263e-07)
(0.00745673 0.00178809 -6.99394e-05)
(0.00733669 0.000539831 -4.46578e-05)
(0.00726671 -0.000652621 -2.20371e-05)
(0.00723833 -0.00187976 3.48205e-06)
(0.00881993 0.00181984 -8.02636e-05)
(0.0086979 0.000536671 -5.24273e-05)
(0.00861942 -0.000688357 -2.80652e-05)
(0.00858175 -0.00193778 1.22573e-07)
(0.000319444 0.000182652 1.04602e-06)
(0.000150601 3.83639e-05 -3.96227e-07)
(0.000132538 -4.86693e-05 -3.13995e-06)
(0.000257707 -0.000191077 -5.0595e-06)
(0.00122083 0.000695137 -2.55576e-06)
(0.000969233 0.000191701 -3.64011e-06)
(0.000928408 -0.000199743 -7.28803e-06)
(0.00109012 -0.000703346 -9.54966e-06)
(0.00224881 0.0010855 -8.65938e-06)
(0.00202672 0.000330097 -7.83721e-06)
(0.00197325 -0.000335971 -9.63856e-06)
(0.00208278 -0.00109691 -9.77403e-06)
(0.00343845 0.00138083 -1.66337e-05)
(0.00324664 0.000430497 -1.24863e-05)
(0.00318536 -0.000444796 -1.06679e-05)
(0.00324787 -0.00140101 -7.26897e-06)
(0.00473084 0.00158516 -2.54993e-05)
(0.00456743 0.000495848 -1.73219e-05)
(0.00450113 -0.000529826 -1.10745e-05)
(0.00452402 -0.00162051 -3.40239e-06)
(0.0060758 0.0017143 -3.44367e-05)
(0.00593645 0.000531539 -2.22317e-05)
(0.0058676 -0.00059456 -1.16324e-05)
(0.00586025 -0.00176961 3.84396e-07)
(0.00743341 0.00178624 -4.25552e-05)
(0.00731239 0.000543543 -2.71491e-05)
(0.00724181 -0.000642814 -1.32785e-05)
(0.00721331 -0.00186354 2.36622e-06)
(0.00879135 0.00181898 -4.85209e-05)
(0.00866846 0.00054126 -3.17842e-05)
(0.00858914 -0.000677748 -1.71404e-05)
(0.00855089 -0.00192065 -1.38246e-07)
(0.000319139 0.000182655 9.68195e-08)
(0.000149819 3.84364e-05 -2.17739e-07)
(0.000131568 -4.85878e-05 -9.34715e-07)
(0.000256805 -0.000190862 -1.37878e-06)
(0.00121912 0.000694496 -1.19227e-06)
(0.000966593 0.00019188 -1.33891e-06)
(0.000925398 -0.000198734 -2.26517e-06)
(0.00108735 -0.00070135 -2.77541e-06)
(0.00224541 0.00108437 -3.23112e-06)
(0.00202231 0.0003305 -2.73579e-06)
(0.00196845 -0.000333956 -3.0531e-06)
(0.0020783 -0.00109324 -2.84873e-06)
(0.00343323 0.00137943 -5.83617e-06)
(0.00324047 0.000431206 -4.26699e-06)
(0.00317884 -0.000441845 -3.42591e-06)
(0.00324165 -0.00139583 -2.07821e-06)
(0.00472363 0.00158376 -8.72004e-06)
(0.00455943 0.000496937 -5.8576e-06)
(0.00449281 -0.000526058 -3.60334e-06)
(0.00451591 -0.00161409 -8.83276e-07)
(0.00606638 0.00171311 -1.1633e-05)
(0.0059264 0.000533052 -7.47818e-06)
(0.00585727 -0.000590125 -3.83632e-06)
(0.00585001 -0.00176223 2.76826e-07)
(0.00742151 0.0017854 -1.42912e-05)
(0.00730002 0.000545474 -9.10885e-06)
(0.00722917 -0.000637864 -4.43126e-06)
(0.00720063 -0.00185545 8.42066e-07)
(0.00877679 0.00181852 -1.62461e-05)
(0.00865349 0.000543609 -1.065e-05)
(0.00857378 -0.000672381 -5.75624e-06)
(0.0085353 -0.00191206 -6.80729e-08)
)
;

boundaryField
{
    interface
    {
        type            tractionDisplacement;
        gradient        nonuniform List<vector> 
192
(
(0.025129 0.0348248 0.000707748)
(0.0118973 0.0344528 0.00162207)
(0.0131647 0.0451829 0.000509777)
(0.0107108 0.0511626 -0.00136949)
(0.00899843 0.0553412 -0.00329576)
(0.00740486 0.0572505 -0.00509436)
(0.00647333 0.0577527 -0.00652521)
(0.0060124 0.0583722 -0.00732656)
(0.0255441 0.036955 0.000489133)
(0.0137439 0.0343997 0.00123009)
(0.0132945 0.0438033 0.00070474)
(0.0110232 0.0496345 -0.000422469)
(0.00918306 0.0537151 -0.00168726)
(0.00763035 0.0558182 -0.00296556)
(0.00670718 0.0566626 -0.00407226)
(0.00622527 0.0579165 -0.00480424)
(0.0265051 0.0382133 0.000123905)
(0.0143307 0.0344718 0.000362212)
(0.0137121 0.0430767 6.99787e-05)
(0.0112166 0.0486799 -0.000547454)
(0.00919061 0.0526382 -0.00135016)
(0.00752907 0.0548023 -0.00219828)
(0.00655083 0.055823 -0.00298172)
(0.00593316 0.0574517 -0.00356733)
(0.0270967 0.0387596 -5.16715e-05)
(0.0147934 0.0344352 -6.97862e-05)
(0.0141528 0.0427035 -0.000303856)
(0.0115334 0.0480813 -0.000691725)
(0.0093789 0.0519429 -0.0011953)
(0.00761721 0.0541076 -0.00174919)
(0.00657205 0.0552089 -0.00229215)
(0.00586932 0.057035 -0.00274535)
(0.0273926 0.0389485 -0.000110338)
(0.0150945 0.0343426 -0.000231296)
(0.0144663 0.0424517 -0.000433539)
(0.0117918 0.0477041 -0.000702307)
(0.00956503 0.0514963 -0.00103167)
(0.00773528 0.0536414 -0.00139873)
(0.00663966 0.0547677 -0.00177737)
(0.00587165 0.0566866 -0.00212295)
(0.0275265 0.038982 -0.000105641)
(0.0152759 0.034236 -0.000236211)
(0.0146688 0.0422674 -0.000394965)
(0.0119726 0.0474573 -0.000580869)
(0.00970837 0.0512076 -0.000795797)
(0.00783925 0.0533314 -0.00103471)
(0.00671252 0.0544569 -0.00128853)
(0.00590966 0.0564155 -0.00153199)
(0.0275803 0.0389649 -7.12375e-05)
(0.015375 0.0341488 -0.000163745)
(0.0147858 0.0421421 -0.000264886)
(0.0120825 0.0473027 -0.000376345)
(0.00980013 0.0510305 -0.000500432)
(0.00791017 0.0531385 -0.000637588)
(0.00676627 0.0542569 -0.000785382)
(0.0059454 0.056231 -0.00093071)
(0.0275975 0.0389468 -2.46968e-05)
(0.0154174 0.034101 -5.75469e-05)
(0.0148379 0.0420782 -9.21967e-05)
(0.0121329 0.0472273 -0.000129512)
(0.00984331 0.0509454 -0.000170355)
(0.00794457 0.0530454 -0.000215371)
(0.00679266 0.0541589 -0.0002641)
(0.00596339 0.0561362 -0.000312428)
(-0.00191599 0.0123637 0.0135201)
(-0.00362663 -0.00374079 0.0020211)
(-0.00161784 -0.00318514 0.00333929)
(0.000472329 -0.00433151 0.0015938)
(0.0028951 -0.00412043 0.000631472)
(0.00505855 -0.00360429 -0.000287229)
(0.00676974 -0.0028973 -0.000855808)
(0.00800733 -0.00177734 -0.00156662)
(-0.00471193 0.00468529 0.00304086)
(-0.00834098 -0.0014118 0.000651003)
(-0.00578526 -0.00114435 0.000465689)
(-0.00317371 -0.00151816 -7.34728e-05)
(-0.000297175 -0.00152871 -0.000403523)
(0.00225514 -0.00148417 -0.000680017)
(0.00436847 -0.00143418 -0.000875088)
(0.00606623 -0.00112095 -0.00133993)
(-0.00506082 -0.00602352 -0.00361346)
(-0.0088064 0.00104429 -0.000813972)
(-0.00637918 0.00101711 -0.00110412)
(-0.0037464 0.00142901 -0.000837223)
(-0.000871264 0.00121573 -0.000652536)
(0.00172426 0.000827968 -0.000431512)
(0.00392267 0.000318571 -0.000232447)
(0.00562003 -0.000209572 0.000169549)
(-0.00319185 -0.0153126 -0.0132026)
(-0.00519636 0.00273426 -0.00230585)
(-0.0036971 0.00271568 -0.00390509)
(-0.00166152 0.00400259 -0.00240893)
(0.000714979 0.00369336 -0.00157329)
(0.00294181 0.00300243 -0.00070412)
(0.00482241 0.00196248 -4.24616e-05)
(0.0061556 0.000511196 0.000668224)
(0.0207854 -0.033344 -0.0015494)
(0.00837079 -0.0339795 -0.00334038)
(0.00817378 -0.0457586 -0.00284711)
(0.00496264 -0.0519103 -0.00115017)
(0.00272312 -0.0559986 0.000775725)
(0.000916855 -0.0576059 0.00273287)
(-0.000129433 -0.0575612 0.0044497)
(-0.000307477 -0.0566802 0.00566906)
(0.0204603 -0.0359223 -0.00089)
(0.00993962 -0.0345972 -0.0019112)
(0.00808306 -0.0445425 -0.0016022)
(0.00502793 -0.0504476 -0.000505021)
(0.0026567 -0.0543213 0.000808686)
(0.000851833 -0.0560253 0.00219259)
(-0.000234661 -0.0562272 0.00345264)
(-0.000360904 -0.055788 0.00449887)
(0.0211366 -0.0371605 -0.000370771)
(0.0104897 -0.0348492 -0.000713284)
(0.00856146 -0.0438739 -0.000493766)
(0.00533088 -0.0494923 0.000127992)
(0.00278573 -0.053182 0.000975683)
(0.000848409 -0.0548901 0.00190022)
(-0.000349275 -0.0551953 0.00280746)
(-0.000649553 -0.0548788 0.00365093)
(0.0215243 -0.0375549 -0.00010376)
(0.010886 -0.0348357 -0.000121883)
(0.00894806 -0.0435188 9.62739e-05)
(0.00561981 -0.0488889 0.000503358)
(0.00295236 -0.0524458 0.00104404)
(0.000904893 -0.0541085 0.00165378)
(-0.000395872 -0.0544169 0.00228687)
(-0.000804248 -0.0541024 0.00292535)
(0.0216764 -0.0375645 9.57991e-06)
(0.0111289 -0.0347167 0.000116277)
(0.00919545 -0.043257 0.00031973)
(0.00582025 -0.0484996 0.000608473)
(0.00308342 -0.0519671 0.00096604)
(0.000961489 -0.0535772 0.00137161)
(-0.000414377 -0.0538524 0.00180846)
(-0.000890017 -0.0534949 0.00227543)
(0.0217119 -0.0374445 4.28794e-05)
(0.0112646 -0.0345755 0.00016793)
(0.0093407 -0.0430543 0.000331583)
(0.00594496 -0.0482383 0.000533086)
(0.00317058 -0.0516533 0.000767316)
(0.00100512 -0.0532212 0.00103039)
(-0.000416861 -0.0534592 0.00131873)
(-0.000925416 -0.053053 0.00163623)
(0.0217043 -0.0373198 3.72851e-05)
(0.0113332 -0.0344609 0.000127917)
(0.00941868 -0.0429129 0.000232954)
(0.00601523 -0.0480716 0.000353865)
(0.00322197 -0.0514589 0.000488998)
(0.00103324 -0.0529995 0.000639)
(-0.000413824 -0.0532096 0.000804595)
(-0.000937195 -0.0527663 0.000989237)
(0.0216923 -0.0372467 1.41173e-05)
(0.0113614 -0.0343985 4.65635e-05)
(0.00945244 -0.0428401 8.26323e-05)
(0.00604654 -0.0479895 0.000123073)
(0.00324543 -0.0513649 0.000167483)
(0.0010468 -0.0528924 0.000216448)
(-0.000410949 -0.0530881 0.000270658)
(-0.000940113 -0.0526253 0.000331271)
(0.0581808 0.000328067 -0.00111145)
(0.0578643 0.000145786 -0.000468021)
(0.0575358 0.000461508 -0.000299106)
(0.0571861 0.000651042 -0.000130631)
(0.0568558 0.000794567 -6.10449e-05)
(0.0565886 0.000878418 -2.94581e-05)
(0.0564032 0.000924004 -1.50583e-05)
(0.0563073 0.00094045 -4.75211e-06)
(0.0540094 0.000375716 -0.000615437)
(0.0537802 0.000258555 -0.000422907)
(0.0534548 0.000358811 -0.000418234)
(0.0530755 0.000472814 -0.000352585)
(0.0526911 0.000575357 -0.000282582)
(0.0523723 0.000648653 -0.000205602)
(0.0521506 0.000694872 -0.000124804)
(0.0520393 0.000717536 -4.16794e-05)
(0.0533457 -0.00161056 -0.00015624)
(0.0530398 -0.00140553 -0.000537879)
(0.0525595 -0.00133928 -0.000699249)
(0.0520599 -0.00127379 -0.000712279)
(0.0516008 -0.00121268 -0.000612648)
(0.0512353 -0.00116087 -0.000458405)
(0.0509862 -0.00112378 -0.000280428)
(0.050861 -0.00110394 -9.40603e-05)
(0.0557329 -0.00222964 7.08451e-05)
(0.0550908 -0.00188924 -0.000924384)
(0.0543267 -0.00195142 -0.001204)
(0.053634 -0.00196258 -0.00121219)
(0.0530616 -0.00195393 -0.00102889)
(0.0526332 -0.00192682 -0.000762712)
(0.0523509 -0.00190003 -0.000463881)
(0.0522106 -0.00188413 -0.000155291)
)
;
        traction        nonuniform List<vector> 
192
(
(23.8907 -0.827224 -2.18604)
(24.2812 -0.872046 -3.76427)
(24.3956 -1.09328 -4.44374)
(24.592 -1.06474 -4.74848)
(24.8766 -0.830832 -4.84066)
(25.1835 -0.327993 -4.75593)
(25.3528 0.612767 -4.46004)
(24.3038 2.17651 -3.8231)
(26.5273 -1.1311 -1.5117)
(27.1681 -1.16636 -2.62107)
(27.8907 -1.40461 -3.09665)
(28.5932 -1.34537 -3.2961)
(29.137 -1.02452 -3.33035)
(29.3856 -0.365306 -3.22483)
(28.9469 0.852771 -2.96389)
(26.0133 2.75444 -2.50873)
(28.1884 -1.26451 -1.04418)
(28.7576 -1.27112 -1.80828)
(29.5655 -1.50713 -2.1148)
(30.3743 -1.42293 -2.22597)
(30.9363 -1.04005 -2.22529)
(31.0515 -0.277037 -2.13491)
(30.1938 1.09659 -1.95422)
(26.3192 3.12398 -1.68034)
(29.3645 -1.32668 -0.741087)
(29.8576 -1.30665 -1.28751)
(30.6531 -1.53857 -1.49837)
(31.4574 -1.43385 -1.56497)
(31.9866 -1.01033 -1.55504)
(31.9823 -0.180387 -1.48723)
(30.8492 1.28589 -1.36742)
(26.4148 3.37334 -1.19545)
(30.2053 -1.35876 -0.521334)
(30.651 -1.31722 -0.910059)
(31.4203 -1.5431 -1.05785)
(32.1983 -1.42371 -1.10066)
(32.6878 -0.973472 -1.09057)
(32.5927 -0.100297 -1.04328)
(31.2752 1.42551 -0.965355)
(26.4667 3.54938 -0.854)
(30.789 -1.3763 -0.347723)
(31.2076 -1.3188 -0.609547)
(31.9542 -1.53871 -0.708857)
(32.7074 -1.40915 -0.736434)
(33.1639 -0.941661 -0.728965)
(33.0049 -0.0407705 -0.698291)
(31.5657 1.52393 -0.649422)
(26.5058 3.67122 -0.578572)
(31.1602 -1.38617 -0.198581)
(31.5666 -1.3182 -0.34928)
(32.2969 -1.53336 -0.406347)
(33.0337 -1.3973 -0.42182)
(33.4677 -0.919371 -0.417425)
(33.2684 -0.00148529 -0.400254)
(31.7536 1.58742 -0.372111)
(26.5375 3.74699 -0.329952)
(31.3337 -1.38971 -0.063946)
(31.7339 -1.31633 -0.112735)
(32.4526 -1.52895 -0.131103)
(33.1803 -1.39003 -0.135984)
(33.6031 -0.907323 -0.134535)
(33.3853 0.019803 -0.129021)
(31.8256 1.62266 -0.119322)
(26.5182 3.78104 -0.104215)
(2.75111 0.446944 12.0459)
(4.80935 0.886682 8.9609)
(5.76578 0.845037 6.19295)
(6.31515 0.695284 4.32279)
(6.6783 0.608279 3.30286)
(6.96599 0.671389 2.98486)
(7.3246 0.894763 3.2532)
(8.16338 1.1575 4.06346)
(1.83543 0.44525 10.7841)
(3.37103 0.880541 9.49279)
(3.96839 0.96575 7.84203)
(4.23668 0.803266 6.5938)
(4.39906 0.590132 5.88195)
(4.57737 0.449123 5.64156)
(4.93576 0.416224 5.75443)
(6.02176 0.387507 5.91375)
(1.44511 0.402384 9.86553)
(2.84694 0.718682 9.40543)
(3.42556 0.8837 8.34892)
(3.65474 0.758109 7.44889)
(3.76444 0.526616 6.92526)
(3.90051 0.316857 6.75204)
(4.2377 0.177978 6.85486)
(5.31105 0.063179 7.00179)
(1.35631 0.436133 8.69947)
(2.81714 0.67509 8.49326)
(3.50868 0.859505 7.60407)
(3.79264 0.743659 6.80312)
(3.9164 0.505524 6.32745)
(4.04949 0.2639 6.14013)
(4.372 0.0397188 6.15344)
(5.37184 -0.226322 6.34998)
(-5.60513 0.514466 0.236675)
(-4.46642 0.820873 0.454381)
(-3.29736 0.978847 0.48061)
(-2.45075 0.889353 0.465245)
(-1.85339 0.703831 0.508531)
(-1.33117 0.512731 0.658006)
(-0.425729 0.215678 0.931759)
(1.95582 -0.942818 1.31408)
(-6.36935 0.382659 -0.169842)
(-6.09112 0.576819 -0.252371)
(-5.56781 0.742513 -0.316385)
(-5.06947 0.74977 -0.352272)
(-4.64829 0.698168 -0.319026)
(-4.13997 0.649151 -0.199768)
(-3.22184 0.522288 -0.00357456)
(-0.52054 -0.512383 0.278609)
(-6.81487 0.330202 -0.227646)
(-6.73327 0.448492 -0.335066)
(-6.42441 0.608434 -0.361676)
(-6.05463 0.683855 -0.351689)
(-5.64357 0.731471 -0.290452)
(-5.08719 0.784021 -0.175378)
(-4.08163 0.746874 -0.0255477)
(-1.44628 -0.142074 0.127718)
(-7.13649 0.315252 -0.197575)
(-7.09892 0.392119 -0.283981)
(-6.88191 0.550691 -0.279154)
(-6.55669 0.673347 -0.240801)
(-6.1251 0.793199 -0.170697)
(-5.49528 0.918341 -0.0728763)
(-4.37504 0.931643 0.0326959)
(-1.84871 0.13574 0.120406)
(-7.36639 0.313753 -0.145863)
(-7.3359 0.374373 -0.20448)
(-7.14716 0.537427 -0.183435)
(-6.83643 0.692822 -0.136373)
(-6.37524 0.860085 -0.0726179)
(-5.68741 1.02925 0.000668311)
(-4.5105 1.07442 0.0660537)
(-2.04087 0.332931 0.112921)
(-7.5142 0.317041 -0.0946965)
(-7.47911 0.374725 -0.128863)
(-7.29472 0.545466 -0.104806)
(-6.97384 0.721451 -0.0628881)
(-6.49075 0.916651 -0.0141727)
(-5.76462 1.11023 0.0349729)
(-4.56159 1.17095 0.0722603)
(-2.13474 0.461094 0.091935)
(-7.60093 0.320835 -0.0516962)
(-7.56199 0.380616 -0.0684233)
(-7.37269 0.558132 -0.050664)
(-7.03886 0.746047 -0.0232187)
(-6.53877 0.956024 0.00659985)
(-5.79191 1.16182 0.0343281)
(-4.57624 1.22888 0.0530368)
(-2.18047 0.536751 0.0584159)
(-7.64061 0.323101 -0.016213)
(-7.59832 0.384839 -0.0210983)
(-7.40151 0.565702 -0.014704)
(-7.06432 0.759112 -0.0054043)
(-6.55674 0.975763 0.00446904)
(-5.80045 1.18677 0.0133914)
(-4.57813 1.25483 0.0190789)
(-2.20888 0.571586 0.0193466)
(8.34781 -4.10192 -1.72069)
(7.81032 -2.63885 -1.38822)
(7.75898 -1.48852 -1.0483)
(7.82283 -0.590297 -0.789084)
(7.90618 0.0760331 -0.58462)
(7.98114 0.547791 -0.409696)
(8.03627 0.839602 -0.251666)
(8.06055 0.921229 -0.087878)
(6.05212 -5.32875 -0.431196)
(5.08692 -4.58387 -0.372509)
(4.8298 -3.77724 -0.255367)
(4.75651 -3.11157 -0.180354)
(4.73966 -2.62086 -0.132798)
(4.74255 -2.27521 -0.0940038)
(4.75358 -2.0498 -0.0568194)
(4.76911 -1.92293 -0.0189941)
(5.1568 -6.26015 0.146702)
(4.06556 -5.71993 0.0846325)
(3.69915 -5.10435 0.0845945)
(3.54361 -4.60805 0.07224)
(3.46672 -4.24798 0.0523982)
(3.42608 -3.99798 0.0344311)
(3.40515 -3.83821 0.0206916)
(3.39584 -3.75032 0.00751668)
(5.05914 -5.74641 0.539822)
(3.97049 -5.29987 0.317246)
(3.5506 -4.90943 0.221724)
(3.34575 -4.57444 0.166699)
(3.23014 -4.3267 0.121008)
(3.16113 -4.15617 0.0816332)
(3.12133 -4.04792 0.0467542)
(3.10038 -3.9989 0.0151298)
)
;
        pressure        uniform 0;
        value           nonuniform List<vector> 
192
(
(0.000584203 0.000610473 0.000311)
(0.00126958 0.00115088 0.000269001)
(0.00235563 0.00167401 0.000182216)
(0.00359119 0.00204671 5.39789e-05)
(0.00496037 0.0022977 -7.46989e-05)
(0.00639011 0.00244074 -0.000190502)
(0.00783638 0.00250603 -0.000283141)
(0.00927131 0.00253245 -0.000349321)
(0.000620702 0.000634833 0.000156207)
(0.00136137 0.00114383 0.000155598)
(0.00240649 0.00166696 0.000105202)
(0.00361253 0.00204215 2.11276e-05)
(0.00493999 0.0022949 -6.9654e-05)
(0.00633031 0.00244071 -0.000154739)
(0.00774113 0.0025088 -0.000225296)
(0.00914951 0.00254066 -0.000276075)
(0.00064645 0.000655728 7.42155e-05)
(0.00139792 0.00113771 7.3816e-05)
(0.00243501 0.00164816 4.2107e-05)
(0.00362043 0.00201969 -1.17538e-05)
(0.00492183 0.00227296 -7.32759e-05)
(0.00628499 0.00242316 -0.000132987)
(0.00767082 0.00249825 -0.000184187)
(0.00905862 0.00254038 -0.000221653)
(0.000658178 0.000665421 3.24677e-05)
(0.00141209 0.00113244 2.796e-05)
(0.00244423 0.00163337 5.2344e-06)
(0.00361742 0.00199979 -3.06947e-05)
(0.00490269 0.00225248 -7.2163e-05)
(0.00624815 0.0024055 -0.000113503)
(0.0076168 0.00248589 -0.00015011)
(0.00898972 0.00253536 -0.000177549)
(0.000662662 0.000668985 1.21857e-05)
(0.00141553 0.00112797 5.31262e-06)
(0.0024431 0.00162311 -1.17124e-05)
(0.00360823 0.00198597 -3.62306e-05)
(0.00488316 0.00223781 -6.42426e-05)
(0.00621698 0.00239232 -9.25888e-05)
(0.00757371 0.00247585 -0.000118368)
(0.00893519 0.0025297 -0.000138087)
(0.000664011 0.000669827 3.25543e-06)
(0.00141476 0.00112444 -3.49172e-06)
(0.00243832 0.00161637 -1.56568e-05)
(0.00359785 0.00197721 -3.18958e-05)
(0.00486597 0.00222845 -5.01713e-05)
(0.00619209 0.00238364 -6.87993e-05)
(0.00754063 0.0024688 -8.6046e-05)
(0.0088938 0.00252503 -9.94134e-05)
(0.000664198 0.000669714 1.55555e-07)
(0.00141302 0.001122 -4.60258e-06)
(0.00243363 0.00161228 -1.19705e-05)
(0.00358948 0.00197211 -2.1338e-05)
(0.00485334 0.00222304 -3.17547e-05)
(0.00617468 0.00237854 -4.24066e-05)
(0.00751799 0.00246445 -5.23725e-05)
(0.00886567 0.00252187 -6.01548e-05)
(0.000664107 0.000669491 -2.1189e-07)
(0.00141184 0.00112076 -1.91161e-06)
(0.00243088 0.00161035 -4.38358e-06)
(0.00358489 0.00196977 -7.45508e-06)
(0.00484667 0.00222058 -1.08495e-05)
(0.00616568 0.00237618 -1.43252e-05)
(0.00750641 0.00246238 -1.75925e-05)
(0.00885133 0.00252023 -2.01515e-05)
(0.000246141 0.000329711 0.000471153)
(0.00107553 0.000673457 0.000273988)
(0.00217085 0.00106941 0.000217585)
(0.00346321 0.00135304 9.102e-05)
(0.00488408 0.00155443 -2.56085e-05)
(0.00636078 0.00168006 -0.000130413)
(0.00784008 0.0017479 -0.000212273)
(0.00929624 0.00178058 -0.000277322)
(5.94258e-05 9.18266e-05 0.000129368)
(0.000828705 0.000174167 9.95092e-05)
(0.00193105 0.000307171 5.36139e-05)
(0.00324957 0.000395426 2.1767e-06)
(0.00469455 0.000450631 -4.55378e-05)
(0.00619297 0.000476182 -8.8041e-05)
(0.00768889 0.000479109 -0.000125385)
(0.00914536 0.000472532 -0.000163596)
(4.16562e-05 -0.000127547 -0.000151135)
(0.000787065 -0.000214505 -0.000153261)
(0.00187528 -0.000358014 -0.000144248)
(0.00318624 -0.000475298 -0.000120735)
(0.00462634 -0.000577351 -9.47681e-05)
(0.00612263 -0.000661677 -7.1172e-05)
(0.0076176 -0.000729912 -5.47705e-05)
(0.00906779 -0.0007828 -4.46679e-05)
(0.000187319 -0.000386567 -0.000495059)
(0.000942048 -0.000719845 -0.000354477)
(0.001995 -0.00112855 -0.000333781)
(0.00326226 -0.0014421 -0.000236083)
(0.00466684 -0.00168753 -0.000140571)
(0.00613592 -0.00186545 -5.18712e-05)
(0.00761291 -0.00198967 1.66719e-05)
(0.00905652 -0.00207849 5.85545e-05)
(0.000487035 -0.000611959 -0.000349394)
(0.00111164 -0.00117877 -0.000367409)
(0.00214339 -0.00173448 -0.000320556)
(0.00334506 -0.00214101 -0.000220348)
(0.00469194 -0.00243368 -0.000111209)
(0.0061106 -0.00262306 -8.90883e-06)
(0.00755101 -0.00273372 7.28239e-05)
(0.00897573 -0.00279338 0.000121065)
(0.000510751 -0.000633505 -0.000188326)
(0.00120493 -0.00117228 -0.00022891)
(0.0021972 -0.00172228 -0.000208976)
(0.00336855 -0.00212755 -0.000147705)
(0.00467267 -0.00241549 -7.40152e-05)
(0.00605053 -0.00260005 -2.76399e-06)
(0.00745488 -0.00270572 5.40579e-05)
(0.0088546 -0.00276307 8.52599e-05)
(0.00052768 -0.000653204 -9.92521e-05)
(0.00123568 -0.00116492 -0.000130563)
(0.00222138 -0.00169727 -0.000122875)
(0.00337236 -0.00209315 -8.80485e-05)
(0.00465017 -0.00237476 -4.17074e-05)
(0.00600039 -0.00255611 4.6561e-06)
(0.00737912 -0.0026607 4.17206e-05)
(0.00875602 -0.00271799 5.90621e-05)
(0.000532857 -0.000660365 -5.06408e-05)
(0.00124302 -0.00115597 -7.12312e-05)
(0.00222391 -0.00167462 -6.75324e-05)
(0.0033631 -0.0020601 -4.71433e-05)
(0.00462497 -0.00233504 -1.87228e-05)
(0.0059575 -0.00251265 1.04419e-05)
(0.00731848 -0.0026155 3.34702e-05)
(0.00867795 -0.00267186 4.16722e-05)
(0.000532681 -0.000661078 -2.46971e-05)
(0.0012409 -0.00114705 -3.71037e-05)
(0.002217 -0.00165627 -3.47352e-05)
(0.00334845 -0.00203374 -2.24091e-05)
(0.0046003 -0.00230283 -5.0144e-06)
(0.00592134 -0.00247662 1.29677e-05)
(0.00726999 -0.00257713 2.67824e-05)
(0.00861638 -0.00263182 2.98413e-05)
(0.000530833 -0.000659446 -1.12783e-05)
(0.0012361 -0.00113949 -1.81718e-05)
(0.00220795 -0.0016425 -1.64627e-05)
(0.00333403 -0.00201447 -9.04158e-06)
(0.00457933 -0.00227917 1.35478e-06)
(0.00589285 -0.00244976 1.20477e-05)
(0.00723312 -0.002548 1.99661e-05)
(0.00857018 -0.00260094 2.05755e-05)
(0.000529011 -0.000657574 -4.59343e-06)
(0.00123179 -0.00113411 -7.9507e-06)
(0.00220052 -0.00163333 -6.8621e-06)
(0.00332306 -0.0020019 -2.84566e-06)
(0.00456429 -0.00226375 2.71009e-06)
(0.00587316 -0.00243211 8.3719e-06)
(0.00720814 -0.00252866 1.24237e-05)
(0.00853917 -0.00258023 1.22272e-05)
(0.000527959 -0.000656446 -1.20231e-06)
(0.00122937 -0.00113133 -2.19336e-06)
(0.00219646 -0.00162874 -1.81582e-06)
(0.00331723 -0.0019957 -5.39798e-07)
(0.00455648 -0.00225615 1.21026e-06)
(0.0058631 -0.00242338 2.98243e-06)
(0.0071955 -0.00251905 4.2253e-06)
(0.00852355 -0.00256988 4.07281e-06)
(0.00992341 0.0018069 -0.000271632)
(0.00979499 0.00181852 -0.000221872)
(0.00970365 0.001828 -0.0001808)
(0.00963118 0.00183056 -0.000144865)
(0.00957249 0.00183105 -0.000112314)
(0.00952728 0.00183082 -8.06318e-05)
(0.00949639 0.00183053 -4.87091e-05)
(0.00948063 0.00183028 -1.63055e-05)
(0.00974464 0.00049124 -0.000154539)
(0.00962545 0.000503148 -0.000132448)
(0.0095346 0.000515791 -0.000114575)
(0.00946044 0.00052741 -9.56789e-05)
(0.00939964 0.000537204 -7.58373e-05)
(0.00935255 0.000544779 -5.49973e-05)
(0.00932034 0.000549946 -3.33443e-05)
(0.00930398 0.000552578 -1.1171e-05)
(0.00966436 -0.000800312 -4.87402e-05)
(0.00954672 -0.000783153 -5.73519e-05)
(0.00945157 -0.000761928 -5.93719e-05)
(0.00937296 -0.000739388 -5.48523e-05)
(0.00930899 -0.000719041 -4.5636e-05)
(0.00925986 -0.000702868 -3.37953e-05)
(0.00922646 -0.000691795 -2.06457e-05)