/*--------------------------------*- C++ -*----------------------------------*\
| =========                 |                                                 |
| \\      /  F ield         | foam-extend: Open Source CFD                    |
|  \\    /   O peration     | Version:     3.1                                |
|   \\  /    A nd           | Web:         http://www.extend-project.de       |
|    \\/     M anipulation  |                                                 |
\*---------------------------------------------------------------------------*/
FoamFile
{
    version     2.0;
    format      ascii;
    class       volVectorField;
    location    "2.4";
    object      D_0;
}
// * * * * * * * * * * * * * * * * * * * * * * * * * * * * * * * * * * * * * //

dimensions      [0 1 0 0 0 0 0];

internalField   nonuniform List<vector> 
256
(
(0.000256342 0.000163477 0.000280898)
(0.000114753 3.06596e-05 8.57004e-05)
(0.00010161 -4.84661e-05 -9.64558e-05)
(0.000214041 -0.000181091 -0.000303001)
(0.00105656 0.000672142 0.000223861)
(0.000880017 0.00017932 8.36778e-05)
(0.000845462 -0.000209731 -0.000129536)
(0.000947051 -0.000698796 -0.000294576)
(0.00205706 0.00103505 0.00015062)
(0.00188055 0.000301899 4.0541e-05)
(0.0018343 -0.000340447 -0.000117783)
(0.00191416 -0.00107561 -0.000254132)
(0.00323654 0.00131389 4.9187e-05)
(0.00307853 0.000391062 -3.06764e-06)
(0.00302525 -0.000451084 -9.92861e-05)
(0.0030718 -0.00137825 -0.000179087)
(0.00452928 0.00150112 -5.07424e-05)
(0.00438872 0.000445731 -4.50115e-05)
(0.00433128 -0.000539893 -7.74987e-05)
(0.00435099 -0.00159877 -9.88696e-05)
(0.0058757 0.00161504 -0.000139228)
(0.00575107 0.00047243 -8.22473e-05)
(0.00569153 -0.000610143 -5.82249e-05)
(0.00569063 -0.00175229 -2.55567e-05)
(0.00722982 0.00167355 -0.000209919)
(0.00711603 0.000478047 -0.000115451)
(0.00705484 -0.00066428 -4.54121e-05)
(0.00704132 -0.00185235 3.12738e-05)
(0.00856934 0.00169476 -0.00026319)
(0.00845 0.000471721 -0.000146345)
(0.00838277 -0.000704284 -4.10321e-05)
(0.00836765 -0.00191529 6.21965e-05)
(0.000283867 0.000161548 0.000138172)
(0.0001459 3.16142e-05 4.40752e-05)
(0.000132948 -4.45575e-05 -5.56452e-05)
(0.000238055 -0.000171501 -0.000161015)
(0.00111493 0.000667128 0.000124026)
(0.000917385 0.000181011 4.17453e-05)
(0.000885078 -0.000202121 -8.42327e-05)
(0.00100969 -0.000685546 -0.000183692)
(0.00209398 0.00104575 7.87568e-05)
(0.00191881 0.000309965 1.44429e-05)
(0.0018753 -0.000339525 -8.41354e-05)
(0.00195666 -0.00107781 -0.000166352)
(0.00324153 0.00132852 1.00563e-05)
(0.00308683 0.000401759 -1.72476e-05)
(0.00303642 -0.000450408 -7.46405e-05)
(0.00308221 -0.00138179 -0.000120463)
(0.00449526 0.00151828 -6.23372e-05)
(0.00436056 0.000458594 -4.88562e-05)
(0.00430572 -0.000537504 -6.14768e-05)
(0.00432164 -0.00160022 -6.59012e-05)
(0.00580329 0.00163217 -0.000128525)
(0.00568541 0.000486418 -7.79015e-05)
(0.00562822 -0.000604121 -4.94887e-05)
(0.00562204 -0.00174795 -1.46163e-05)
(0.00712326 0.00168889 -0.000182672)
(0.00701744 0.00049196 -0.000104057)
(0.0069587 -0.000653721 -4.27507e-05)
(0.00693851 -0.00184022 2.4424e-05)
(0.00843719 0.00170727 -0.0002223)
(0.00832597 0.000484392 -0.000127139)
(0.00826134 -0.000689539 -4.47987e-05)
(0.00823975 -0.00189541 4.13275e-05)
(0.00029559 0.000166087 6.56478e-05)
(0.000149511 3.3716e-05 2.04289e-05)
(0.000134974 -4.51001e-05 -3.21863e-05)
(0.000244466 -0.000175095 -8.46086e-05)
(0.00113813 0.000659995 5.89186e-05)
(0.000924032 0.000180345 1.5304e-05)
(0.000889938 -0.000196137 -5.32761e-05)
(0.00102716 -0.000674701 -0.000107349)
(0.00210903 0.00103627 2.92656e-05)
(0.00192162 0.000310676 -3.53607e-06)
(0.0018763 -0.000331445 -5.75665e-05)
(0.00196634 -0.00106088 -0.000100652)
(0.00323782 0.00131849 -1.67062e-05)
(0.00307514 0.000404038 -2.62821e-05)
(0.00302284 -0.000439769 -5.41358e-05)
(0.00307295 -0.00135925 -7.38753e-05)
(0.00446773 0.00151028 -6.70621e-05)
(0.00432781 0.000463093 -4.95051e-05)
(0.00427102 -0.000524275 -4.7413e-05)
(0.0042883 -0.00157373 -3.92706e-05)
(0.00575034 0.00162754 -0.00011466)
(0.00562938 0.000493318 -7.1486e-05)
(0.00557028 -0.000588239 -4.11387e-05)
(0.00556323 -0.00171823 -5.73206e-06)
(0.00704643 0.00168856 -0.000154609)
(0.00693944 0.000501042 -9.17047e-05)
(0.00687896 -0.000635365 -3.90298e-05)
(0.00685598 -0.00180798 1.90221e-05)
(0.00834154 0.00171193 -0.00018344)
(0.00823077 0.000495358 -0.000109547)
(0.00816387 -0.000669095 -4.50848e-05)
(0.00813664 -0.00186126 2.52503e-05)
(0.000298811 0.00016849 2.88543e-05)
(0.000147046 3.4711e-05 8.13038e-06)
(0.000131143 -4.53217e-05 -1.83662e-05)
(0.000243678 -0.000176802 -4.30612e-05)
(0.00114285 0.000654699 2.21687e-05)
(0.00091869 0.000179743 1.64078e-06)
(0.00088239 -0.000191271 -3.33381e-05)
(0.00102574 -0.000665342 -6.01357e-05)
(0.00210725 0.00102598 9.8348e-07)
(0.00191074 0.000310263 -1.21866e-05)
(0.0018631 -0.000322571 -3.84831e-05)
(0.0019584 -0.00104237 -5.74646e-05)
(0.00322419 0.00130622 -3.0404e-05)
(0.0030545 0.000404702 -2.8625e-05)
(0.0029999 -0.000427338 -3.81521e-05)
(0.00305335 -0.00133371 -4.17829e-05)
(0.00443897 0.00149875 -6.52457e-05)
(0.00429394 0.000465634 -4.55844e-05)
(0.00423491 -0.000508779 -3.53189e-05)
(0.00425377 -0.00154333 -2.03595e-05)
(0.0057049 0.00161871 -9.90038e-05)
(0.00558047 0.00049824 -6.20236e-05)
(0.00551925 -0.000570194 -3.27364e-05)
(0.00551222 -0.00168466 7.71039e-07)
(0.00698453 0.00168371 -0.000128075)
(0.00687549 0.000508458 -7.75558e-05)
(0.00681292 -0.000615283 -3.34438e-05)
(0.00678845 -0.00177248 1.5572e-05)
(0.00826561 0.00171151 -0.00014901)
(0.00815354 0.000505253 -9.15188e-05)
(0.00808376 -0.00064737 -4.10239e-05)
(0.00805292 -0.00182454 1.56298e-05)
(0.000298929 0.000169384 1.09438e-05)
(0.000143837 3.52086e-05 2.29227e-06)
(0.000126979 -4.52747e-05 -1.02132e-05)
(0.000240949 -0.000177038 -2.08693e-05)
(0.00114018 0.000650869 3.93754e-06)
(0.000910042 0.000179586 -4.08796e-06)
(0.000871993 -0.000187317 -2.04538e-05)
(0.00101821 -0.000657396 -3.22112e-05)
(0.00209848 0.00101849 -1.16334e-05)
(0.00189609 0.000310316 -1.43113e-05)
(0.00184659 -0.000314853 -2.50108e-05)
(0.00194466 -0.00102693 -3.09656e-05)
(0.00320699 0.00129694 -3.32291e-05)
(0.00303234 0.000405629 -2.60876e-05)
(0.00297595 -0.000416221 -2.59429e-05)
(0.00303142 -0.00131205 -2.16565e-05)
(0.00441159 0.00148961 -5.71622e-05)
(0.00426269 0.000468049 -3.82638e-05)
(0.00420199 -0.00049477 -2.51679e-05)
(0.00422198 -0.00151707 -8.55208e-06)
(0.00566626 0.00161127 -8.07131e-05)
(0.005539 0.000502545 -5.02823e-05)
(0.00547624 -0.000553852 -2.46284e-05)
(0.00546944 -0.00165527 4.38494e-06)
(0.00693429 0.00167893 -0.000101417)
(0.00682334 0.000514752 -6.19021e-05)
(0.00675923 -0.000597145 -2.66165e-05)
(0.00673402 -0.00174108 1.2767e-05)
(0.00820443 0.0017097 -0.000116292)
(0.00809096 0.000513522 -7.25117e-05)
(0.00801902 -0.000627793 -3.3929e-05)
(0.007986 -0.00179187 1.00325e-05)
(0.000298184 0.000169606 2.99705e-06)
(0.000141242 3.54706e-05 -4.82335e-08)
(0.000123752 -4.5116e-05 -5.42819e-06)
(0.000238258 -0.000176674 -9.40981e-06)
(0.00113563 0.000648243 -3.17561e-06)
(0.000902029 0.000179715 -5.25407e-06)
(0.00086276 -0.000184298 -1.19998e-05)
(0.00101023 -0.000651201 -1.62397e-05)
(0.00208869 0.00101364 -1.41082e-05)
(0.00188269 0.000310792 -1.24052e-05)
(0.00183189 -0.00030888 -1.54153e-05)
(0.00193135 -0.00101535 -1.55278e-05)
(0.00319102 0.00129094 -2.84146e-05)
(0.00301316 0.000406853 -2.04109e-05)
(0.00295555 -0.000407532 -1.6593e-05)
(0.00301215 -0.00129581 -1.00751e-05)
(0.00438863 0.00148364 -4.41596e-05)
(0.00423711 0.000470395 -2.86812e-05)
(0.0041753 -0.000483748 -1.67086e-05)
(0.004196 -0.00149719 -2.3122e-06)
(0.00563562 0.00160626 -5.97918e-05)
(0.00550636 0.000506244 -3.69473e-05)
(0.0054426 -0.000540939 -1.70486e-05)
(0.00543604 -0.00163276 5.27344e-06)
(0.0068955 0.00167547 -7.37322e-05)
(0.00678311 0.000519837 -4.50705e-05)
(0.00671802 -0.000582784 -1.91881e-05)
(0.00669249 -0.00171674 9.73984e-06)
(0.00815747 0.00170798 -8.37394e-05)
(0.0080428 0.000519977 -5.25668e-05)
(0.00796946 -0.00061227 -2.50666e-05)
(0.00793531 -0.00176629 6.49317e-06)
(0.000297447 0.000169581 1.97365e-07)
(0.000139535 3.56069e-05 -5.83637e-07)
(0.000121656 -4.49565e-05 -2.5901e-06)
(0.000236298 -0.000176221 -3.76063e-06)
(0.00113174 0.000646596 -3.99401e-06)
(0.000896256 0.000179919 -3.944e-06)
(0.000856226 -0.00018226 -6.23802e-06)
(0.00100418 -0.00064698 -7.30842e-06)
(0.00208101 0.0010108 -1.05403e-05)
(0.00187294 0.000311341 -8.2029e-06)
(0.00182133 -0.000304844 -8.32111e-06)
(0.00192145 -0.00100768 -6.89459e-06)
(0.00317917 0.00128749 -1.87743e-05)
(0.00299941 0.000407968 -1.28793e-05)
(0.00294105 -0.000401647 -9.20218e-06)
(0.00299824 -0.00128512 -4.01624e-06)
(0.00437228 0.0014802 -2.77772e-05)
(0.00421916 0.000472269 -1.77042e-05)
(0.00415668 -0.000476261 -9.51367e-06)
(0.00417779 -0.00148405 8.55898e-08)
(0.00561438 0.00160335 -3.67572e-05)
(0.00548386 0.000508983 -2.25638e-05)
(0.00541951 -0.000532144 -9.98874e-06)
(0.00541312 -0.00161775 4.04039e-06)
(0.00686896 0.00167337 -4.48349e-05)
(0.00675564 0.000523434 -2.73861e-05)
(0.00668998 -0.000572982 -1.15427e-05)
(0.00666434 -0.00170039 6.16214e-06)
(0.00812545 0.0017068 -5.06301e-05)
(0.00800995 0.000524413 -3.18606e-05)
(0.00793581 -0.000601659 -1.53019e-05)
(0.00790111 -0.001749 3.75496e-06)
(0.000297024 0.000169525 -1.71307e-07)
(0.0001387 3.56658e-05 -2.75996e-07)
(0.000120638 -4.48619e-05 -7.59623e-07)
(0.000235289 -0.000175939 -9.67764e-07)
(0.00112959 0.000645801 -1.6497e-06)
(0.000893285 0.000180054 -1.43305e-06)
(0.000852892 -0.000181233 -1.9266e-06)
(0.001001 -0.000644848 -2.0558e-06)
(0.00207687 0.00100948 -3.83449e-06)
(0.00186787 0.000311684 -2.84967e-06)
(0.00181588 -0.000302815 -2.62402e-06)
(0.00191625 -0.00100386 -1.91535e-06)
(0.00317292 0.00128593 -6.52969e-06)
(0.00299229 0.000408618 -4.39063e-06)
(0.00293358 -0.000398687 -2.94408e-06)
(0.00299102 -0.00127982 -1.01385e-06)
(0.0043638 0.00147866 -9.46584e-06)
(0.00420993 0.000473304 -5.97935e-06)
(0.00414714 -0.000472491 -3.08587e-06)
(0.00416843 -0.00147753 2.68565e-07)
(0.00560349 0.00160202 -1.24004e-05)
(0.00547237 0.00051044 -7.58524e-06)
(0.00540775 -0.00052771 -3.28745e-06)
(0.00540145 -0.00161029 1.49394e-06)
(0.00685544 0.00167238 -1.5051e-05)
(0.00674168 0.0005253 -9.18582e-06)
(0.00667576 -0.000568034 -3.84852e-06)
(0.00665009 -0.00169222 2.11352e-06)
(0.00810916 0.00170617 -1.6952e-05)
(0.00799327 0.00052668 -1.06739e-05)
(0.00791876 -0.000596292 -5.13719e-06)
(0.00788385 -0.00174032 1.24042e-06)
)
;

boundaryField
{
    interface
    {
        type            tractionDisplacement;
        gradient        nonuniform List<vector> 
192
(
(0.0012504 8.90088e-08 -6.27537e-06)
(0.00125106 2.32615e-07 -7.48491e-06)
(0.0012496 5.25483e-07 -7.47543e-06)
(0.00124673 8.45864e-07 -7.27339e-06)
(0.00124237 1.23213e-06 -6.95727e-06)
(0.00123606 1.75972e-06 -6.48764e-06)
(0.00122701 2.65546e-06 -5.77696e-06)
(0.00121237 4.4017e-06 -4.57372e-06)
(0.00127836 1.58951e-07 -4.18175e-06)
(0.00127813 3.40733e-07 -4.98588e-06)
(0.00127606 6.81215e-07 -4.94782e-06)
(0.00127234 1.07974e-06 -4.77587e-06)
(0.0012667 1.57845e-06 -4.5173e-06)
(0.00125852 2.26978e-06 -4.14438e-06)
(0.00124668 3.43378e-06 -3.60938e-06)
(0.00122774 5.61186e-06 -2.83028e-06)
(0.0012969 2.0556e-07 -2.92788e-06)
(0.00129628 4.22773e-07 -3.50022e-06)
(0.00129375 8.10625e-07 -3.4639e-06)
(0.00128935 1.27314e-06 -3.32432e-06)
(0.00128271 1.85533e-06 -3.11929e-06)
(0.00127309 2.65704e-06 -2.83373e-06)
(0.00125927 3.97152e-06 -2.44508e-06)
(0.00123752 6.33252e-06 -1.9299e-06)
(0.00131022 2.36666e-07 -2.12187e-06)
(0.00130939 4.82114e-07 -2.53952e-06)
(0.00130652 9.12912e-07 -2.50899e-06)
(0.00130157 1.426e-06 -2.39958e-06)
(0.00129415 2.06871e-06 -2.2415e-06)
(0.00128345 2.94405e-06 -2.02736e-06)
(0.00126819 4.35007e-06 -1.74696e-06)
(0.00124452 6.81512e-06 -1.39307e-06)
(0.00131978 2.59652e-07 -1.51365e-06)
(0.00131882 5.26652e-07 -1.81147e-06)
(0.00131569 9.91037e-07 -1.78752e-06)
(0.00131032 1.54199e-06 -1.7059e-06)
(0.0013023 2.22756e-06 -1.58946e-06)
(0.00129082 3.15197e-06 -1.43486e-06)
(0.00127453 4.6157e-06 -1.23756e-06)
(0.00124954 7.14639e-06 -9.95544e-07)
(0.00132642 2.76131e-07 -1.01788e-06)
(0.00132536 5.58719e-07 -1.21811e-06)
(0.00132204 1.04754e-06 -1.20117e-06)
(0.00131638 1.62535e-06 -1.14496e-06)
(0.00130794 2.34023e-06 -1.06545e-06)
(0.0012959 3.29691e-06 -9.61283e-07)
(0.00127891 4.79762e-06 -8.30326e-07)
(0.00125304 7.37104e-06 -6.71486e-07)
(0.00133063 2.87035e-07 -5.86262e-07)
(0.00132951 5.79709e-07 -7.01327e-07)
(0.00132607 1.08477e-06 -6.91544e-07)
(0.00132021 1.68017e-06 -6.58841e-07)
(0.00131151 2.41383e-06 -6.12817e-07)
(0.00129912 3.39091e-06 -5.5309e-07)
(0.00128169 4.9157e-06 -4.77739e-07)
(0.00125526 7.51474e-06 -3.82182e-07)
(0.00133265 2.92824e-07 -1.90632e-07)
(0.00133149 5.90077e-07 -2.27698e-07)
(0.001328 1.10224e-06 -2.24725e-07)
(0.00132205 1.70638e-06 -2.14081e-07)
(0.00131322 2.44881e-06 -1.99112e-07)
(0.00130067 3.43614e-06 -1.79825e-07)
(0.00128303 4.97701e-06 -1.55001e-07)
(0.00125626 7.58408e-06 -1.20792e-07)
(1.09308e-05 7.23725e-08 0.00114973)
(1.30776e-05 1.27851e-07 0.00114889)
(1.31548e-05 1.98457e-07 0.00114824)
(1.29808e-05 2.92527e-07 0.0011473)
(1.2715e-05 4.04896e-07 0.00114595)
(1.23458e-05 5.36693e-07 0.00114413)
(1.18492e-05 6.86119e-07 0.00114175)
(1.13079e-05 8.03277e-07 0.00113874)
(1.00547e-05 2.11513e-08 0.0010997)
(1.20342e-05 3.77271e-08 0.00109949)
(1.21003e-05 5.67502e-08 0.0010993)
(1.19489e-05 8.24212e-08 0.00109902)
(1.17254e-05 1.12105e-07 0.00109863)
(1.14243e-05 1.44074e-07 0.00109811)
(1.10382e-05 1.71046e-07 0.00109746)
(1.0708e-05 1.6209e-07 0.00109671)
(1.00418e-05 -2.70428e-08 0.00105277)
(1.20188e-05 -4.56996e-08 0.00105298)
(1.20844e-05 -6.9588e-08 0.00105321)
(1.1933e-05 -1.00411e-07 0.00105354)
(1.171e-05 -1.3707e-07 0.001054)
(1.141e-05 -1.80176e-07 0.00105463)
(1.10258e-05 -2.2871e-07 0.00105544)
(1.06983e-05 -2.6355e-07 0.00105648)
(1.09054e-05 -8.04064e-08 0.00100291)
(1.30452e-05 -1.36982e-07 0.00100376)
(1.312e-05 -2.11694e-07 0.00100444)
(1.29457e-05 -3.09713e-07 0.00100544)
(1.26804e-05 -4.27843e-07 0.00100685)
(1.23126e-05 -5.69225e-07 0.00100876)
(1.18188e-05 -7.38586e-07 0.00101129)
(1.12818e-05 -8.99354e-07 0.00101456)
(-0.000903606 -9.63547e-08 6.85177e-06)
(-0.000902881 -2.51564e-07 8.12936e-06)
(-0.000904348 -5.72774e-07 8.11249e-06)
(-0.00090722 -9.20022e-07 7.89131e-06)
(-0.000911576 -1.33875e-06 7.54482e-06)
(-0.000917854 -1.91504e-06 7.02877e-06)
(-0.00092686 -2.91625e-06 6.2435e-06)
(-0.00094155 -4.95238e-06 4.89368e-06)
(-0.000876477 -1.72336e-07 4.42126e-06)
(-0.000876696 -3.68407e-07 5.23941e-06)
(-0.000878763 -7.40343e-07 5.19106e-06)
(-0.000882477 -1.17274e-06 5.00456e-06)
(-0.000888098 -1.71422e-06 4.72407e-06)
(-0.000896245 -2.4707e-06 4.31857e-06)
(-0.000908024 -3.77243e-06 3.7342e-06)
(-0.000927051 -6.30466e-06 2.87503e-06)
(-0.000858904 -2.23527e-07 3.02815e-06)
(-0.000859518 -4.57468e-07 3.59773e-06)
(-0.000862036 -8.80012e-07 3.55226e-06)
(-0.00086643 -1.38156e-06 3.40144e-06)
(-0.000873045 -2.0136e-06 3.18024e-06)
(-0.000882602 -2.89053e-06 2.87178e-06)
(-0.000896351 -4.35875e-06 2.45083e-06)
(-0.000918167 -7.09737e-06 1.88924e-06)
(-0.00084644 -2.57774e-07 2.16159e-06)
(-0.000847264 -5.21851e-07 2.57079e-06)
(-0.000850126 -9.90306e-07 2.53274e-06)
(-0.00085506 -1.54618e-06 2.41474e-06)
(-0.000862449 -2.24345e-06 2.24466e-06)
(-0.000873069 -3.20009e-06 2.01421e-06)
(-0.000888236 -4.76849e-06 1.71208e-06)
(-0.000911949 -7.62329e-06 1.32891e-06)
(-0.000837595 -2.83051e-07 1.52365e-06)
(-0.00083856 -5.70096e-07 1.81175e-06)
(-0.000841682 -1.07445e-06 1.78199e-06)
(-0.000847026 -1.67087e-06 1.69407e-06)
(-0.000854997 -2.41412e-06 1.56902e-06)
(-0.000866396 -3.42352e-06 1.40308e-06)
(-0.00088257 -5.05455e-06 1.19126e-06)
(-0.000907581 -7.98206e-06 9.30362e-07)
(-0.000831511 -3.01135e-07 1.01526e-06)
(-0.000832571 -6.04765e-07 1.20705e-06)
(-0.000835879 -1.13523e-06 1.18601e-06)
(-0.000841519 -1.76034e-06 1.1255e-06)
(-0.000849902 -2.53489e-06 1.04024e-06)
(-0.000861845 -3.57878e-06 9.28656e-07)
(-0.000878708 -5.24964e-06 7.88457e-07)
(-0.000904589 -8.22417e-06 6.17775e-07)
(-0.000827684 -3.13066e-07 5.81157e-07)
(-0.000828802 -6.27424e-07 6.90621e-07)
(-0.00083223 -1.17521e-06 6.7841e-07)
(-0.000838059 -1.81904e-06 6.43226e-07)
(-0.000846706 -2.61357e-06 5.93914e-07)
(-0.000858993 -3.67914e-06 5.30029e-07)
(-0.000876286 -5.37574e-06 4.49542e-07)
(-0.000902707 -8.37837e-06 3.46949e-07)
(-0.000825854 -3.19376e-07 1.88378e-07)
(-0.000827006 -6.38536e-07 2.23531e-07)
(-0.000830489 -1.19398e-06 2.19753e-07)
(-0.000836409 -1.8471e-06 2.083e-07)
(-0.000845182 -2.65092e-06 1.92268e-07)
(-0.000857629 -3.72725e-06 1.71653e-07)
(-0.000875121 -5.44102e-06 1.45178e-07)
(-0.000901879 -8.45211e-06 1.08378e-07)
(1.13077e-05 -0.00113956 -9.86196e-07)
(1.18661e-05 -0.00114323 -8.3836e-07)
(1.23873e-05 -0.00114616 -6.69958e-07)
(1.27835e-05 -0.00114847 -5.21832e-07)
(1.30767e-05 -0.00115024 -3.91006e-07)
(1.32868e-05 -0.00115152 -2.72808e-07)
(1.34306e-05 -0.00115236 -1.66012e-07)
(1.35055e-05 -0.00115283 -5.78898e-08)
(1.07333e-05 -0.00109747 -3.23353e-07)
(1.10861e-05 -0.00109878 -2.9851e-07)
(1.14951e-05 -0.00109989 -2.50886e-07)
(1.18192e-05 -0.0011008 -2.02547e-07)
(1.20647e-05 -0.00110151 -1.55909e-07)
(1.22434e-05 -0.00110204 -1.10734e-07)
(1.23687e-05 -0.0011024 -6.67961e-08)
(1.24387e-05 -0.00110257 -2.25708e-08)
(1.07338e-05 -0.00105712 1.29308e-07)
(1.10872e-05 -0.00105654 1.24779e-07)
(1.1494e-05 -0.00105609 9.54584e-08)
(1.18153e-05 -0.00105577 6.74789e-08)
(1.20582e-05 -0.00105555 4.5425e-08)
(1.22347e-05 -0.00105541 2.87838e-08)
(1.23586e-05 -0.00105532 1.65634e-08)
(1.24277e-05 -0.00105528 5.73912e-09)
(1.13263e-05 -0.00101504 7.95589e-07)
(1.18919e-05 -0.00101212 6.58727e-07)
(1.24086e-05 -0.00100987 5.05786e-07)
(1.27978e-05 -0.00100817 3.78169e-07)
(1.3084e-05 -0.00100692 2.73189e-07)
(1.32882e-05 -0.00100604 1.85436e-07)
(1.34278e-05 -0.00100548 1.12584e-07)
(1.35008e-05 -0.00100515 4.00141e-08)
)
;
        traction        nonuniform List<vector> 
192
(
(26.7942 0.00190733 -0.134472)
(26.8085 0.00498462 -0.160391)
(26.7772 0.0112604 -0.160188)
(26.7157 0.0181257 -0.155858)
(26.6222 0.0264028 -0.149084)
(26.487 0.0377082 -0.139021)
(26.293 0.0569026 -0.123792)
(25.9793 0.0943222 -0.0980083)
(27.3935 0.0034061 -0.0896089)
(27.3884 0.00730142 -0.10684)
(27.3441 0.0145975 -0.106025)
(27.2645 0.0231373 -0.10234)
(27.1437 0.033824 -0.0967993)
(26.9683 0.0486382 -0.0888082)
(26.7147 0.0735809 -0.077344)
(26.3087 0.120254 -0.0606489)
(27.7907 0.00440487 -0.0627403)
(27.7773 0.00905942 -0.0750048)
(27.7233 0.0173705 -0.0742265)
(27.6289 0.0272816 -0.0712353)
(27.4865 0.039757 -0.066842)
(27.2806 0.0569365 -0.0607228)
(26.9843 0.085104 -0.0523946)
(26.5182 0.135697 -0.0413549)
(28.0762 0.00507141 -0.0454687)
(28.0584 0.010331 -0.0544183)
(27.997 0.0195624 -0.0537641)
(27.8909 0.0305572 -0.0514196)
(27.7317 0.0443295 -0.0480322)
(27.5026 0.0630869 -0.0434433)
(27.1755 0.0932158 -0.0374349)
(26.6683 0.146038 -0.0298516)
(28.2811 0.00556398 -0.0324353)
(28.2603 0.0112854 -0.0388172)
(28.1933 0.0212365 -0.038304)
(28.0783 0.0330426 -0.0365551)
(27.9065 0.0477333 -0.0340599)
(27.6604 0.0675421 -0.0307469)
(27.3113 0.0989078 -0.0265191)
(26.7759 0.153137 -0.0213331)
(28.4234 0.00591708 -0.0218117)
(28.4006 0.0119725 -0.0261023)
(28.3295 0.0224473 -0.0257394)
(28.2081 0.034829 -0.0245348)
(28.0273 0.0501478 -0.0228311)
(27.7694 0.0706481 -0.0205989)
(27.4052 0.102806 -0.0177927)
(26.8508 0.157951 -0.014389)
(28.5135 0.00615074 -0.0125628)
(28.4894 0.0124223 -0.0150284)
(28.4158 0.023245 -0.0148188)
(28.2903 0.0360036 -0.014118)
(28.1037 0.0517248 -0.0131318)
(27.8383 0.0726623 -0.0118519)
(27.4647 0.105336 -0.0102373)
(26.8984 0.16103 -0.00818961)
(28.5567 0.00627479 -0.00408497)
(28.532 0.0126445 -0.00487923)
(28.4571 0.0236193 -0.00481554)
(28.3296 0.0365652 -0.00458744)
(28.1404 0.0524745 -0.00426669)
(27.8714 0.0736316 -0.00385339)
(27.4935 0.10665 -0.00332146)
(26.9199 0.162516 -0.00258841)
(0.234232 0.00155084 24.637)
(0.280235 0.00273965 24.6191)
(0.281888 0.00425265 24.6052)
(0.278159 0.00626843 24.5849)
(0.272465 0.00867633 24.5561)
(0.264553 0.0115006 24.5171)
(0.253912 0.0147025 24.4661)
(0.242312 0.0172131 24.4015)
(0.215458 0.000453242 23.565)
(0.257875 0.000808438 23.5605)
(0.259292 0.00121608 23.5564)
(0.256048 0.00176617 23.5504)
(0.251258 0.00240225 23.542)
(0.244806 0.00308729 23.5309)
(0.236532 0.00366528 23.517)
(0.229457 0.00347336 23.5009)
(0.215181 -0.00057949 22.5593)
(0.257546 -0.000979277 22.564)
(0.258951 -0.00149117 22.5688)
(0.255708 -0.00215167 22.5758)
(0.250929 -0.00293722 22.5858)
(0.244501 -0.00386092 22.5992)
(0.236268 -0.00490093 22.6167)
(0.22925 -0.00564749 22.6389)
(0.233687 -0.00172299 21.4909)
(0.279539 -0.00293532 21.5091)
(0.281144 -0.00453631 21.5238)
(0.277407 -0.00663671 21.5451)
(0.271722 -0.00916805 21.5754)
(0.263841 -0.0121977 21.6164)
(0.253261 -0.0158268 21.6704)
(0.241752 -0.0192719 21.7405)
(-19.363 -0.00206474 0.146824)
(-19.3475 -0.00539066 0.174201)
(-19.3789 -0.0122737 0.173839)
(-19.4404 -0.0197148 0.1691)
(-19.5338 -0.0286875 0.161675)
(-19.6683 -0.0410367 0.150616)
(-19.8613 -0.0624911 0.133789)
(-20.1761 -0.106122 0.104865)
(-18.7816 -0.00369291 0.0947413)
(-18.7863 -0.00789443 0.112273)
(-18.8306 -0.0158645 0.111237)
(-18.9102 -0.0251302 0.107241)
(-19.0307 -0.0367334 0.10123)
(-19.2052 -0.0529437 0.0925409)
(-19.4577 -0.0808377 0.0800185)
(-19.8654 -0.1351 0.0616077)
(-18.4051 -0.00478987 0.064889)
(-18.4182 -0.00980289 0.0770943)
(-18.4722 -0.0188574 0.0761199)
(-18.5664 -0.0296049 0.0728881)
(-18.7081 -0.0431486 0.0681481)
(-18.9129 -0.06194 0.0615382)
(-19.2075 -0.0934018 0.0525179)
(-19.675 -0.152086 0.0404836)
(-18.138 -0.00552373 0.0463197)
(-18.1556 -0.0111825 0.0550883)
(-18.217 -0.0212208 0.054273)
(-18.3227 -0.0331325 0.0517444)
(-18.481 -0.048074 0.0480998)
(-18.7086 -0.0685733 0.0431617)
(-19.0336 -0.102182 0.0366875)
(-19.5418 -0.163356 0.0284766)
(-17.9485 -0.00606538 0.0326497)
(-17.9691 -0.0122163 0.0388231)
(-18.036 -0.023024 0.0381856)
(-18.1506 -0.0358044 0.0363015)
(-18.3214 -0.0517312 0.0336219)
(-18.5656 -0.0733611 0.0300661)
(-18.9122 -0.108312 0.0255271)
(-19.4482 -0.171044 0.0199363)
(-17.8181 -0.00645288 0.0217555)
(-17.8408 -0.0129593 0.0258653)
(-17.9117 -0.0243264 0.0254145)
(-18.0325 -0.0377215 0.0241178)
(-18.2122 -0.0543192 0.0222908)
(-18.4681 -0.0766882 0.0198998)
(-18.8294 -0.112492 0.0168955)
(-19.3841 -0.176232 0.013238)
(-17.7361 -0.00670857 0.0124534)
(-17.7601 -0.0134448 0.014799)
(-17.8335 -0.0251831 0.0145374)
(-17.9584 -0.0389794 0.0137834)
(-18.1437 -0.0560052 0.0127267)
(-18.407 -0.0788387 0.0113578)
(-18.7775 -0.115194 0.00963305)
(-19.3437 -0.179537 0.00743463)
(-17.6969 -0.00684377 0.00403667)
(-17.7216 -0.0136829 0.00478996)
(-17.7962 -0.0255853 0.00470898)
(-17.9231 -0.0395806 0.00446357)
(-18.111 -0.0568055 0.00412003)
(-18.3778 -0.0798697 0.00367828)
(-18.7526 -0.116593 0.00311095)
(-19.326 -0.181117 0.00232238)
(0.242309 -24.4191 -0.0211328)
(0.254273 -24.4977 -0.0179648)
(0.265441 -24.5605 -0.0143563)
(0.273931 -24.61 -0.0111821)
(0.280215 -24.6479 -0.00837869)
(0.284717 -24.6755 -0.00584588)
(0.287799 -24.6935 -0.0035574)
(0.289404 -24.7035 -0.0012405)
(0.229999 -23.5171 -0.006929)
(0.237559 -23.5453 -0.00639663)
(0.246324 -23.5691 -0.00537612)
(0.253268 -23.5885 -0.00434029)
(0.25853 -23.6038 -0.00334091)
(0.262358 -23.6152 -0.00237288)
(0.265043 -23.6228 -0.00143135)
(0.266544 -23.6265 -0.00048366)
(0.23001 -22.6525 0.00277088)
(0.237582 -22.6402 0.00267384)
(0.2463 -22.6305 0.00204554)
(0.253185 -22.6237 0.00144598)
(0.25839 -22.6189 0.000973392)
(0.262173 -22.6158 0.000616796)
(0.264827 -22.614 0.00035493)
(0.266308 -22.6131 0.000122981)
(0.242706 -21.7508 0.0170483)
(0.254825 -21.6882 0.0141156)
(0.265899 -21.64 0.0108383)
(0.274239 -21.6037 0.00810362)
(0.280372 -21.5769 0.00585405)
(0.284748 -21.558 0.00397363)
(0.287739 -21.5459 0.00241252)
(0.289303 -21.5389 0.000857445)
)
;
        pressure        uniform 0;
        value           nonuniform List<vector> 
192
(
(0.000550081 0.000575292 0.000287483)
(0.00119524 0.00107685 0.000238395)
(0.0022106 0.00156318 0.000150342)
(0.00336147 0.00190991 2.58113e-05)
(0.00463435 0.00214467 -9.7275e-05)
(0.0059624 0.00228034 -0.000207157)
(0.007306 0.00234496 -0.000294847)
(0.00864024 0.00237455 -0.000357727)
(0.000582413 0.000596255 0.000142853)
(0.0012752 0.0010695 0.000135524)
(0.00224916 0.00155644 8.26468e-05)
(0.00337031 0.00190584 -3.15751e-07)
(0.00460272 0.00214226 -8.82531e-05)
(0.00589285 0.00228034 -0.000169941)
(0.00720235 0.0023472 -0.000237497)
(0.00851071 0.00238139 -0.000286151)
(0.000604612 0.000614182 6.63268e-05)
(0.00130507 0.00106194 6.10082e-05)
(0.00226891 0.00153737 2.67986e-05)
(0.00336874 0.00188381 -2.73667e-05)
(0.00457521 0.00212104 -8.78742e-05)
(0.00583869 0.0022633 -0.000146005)
(0.00712367 0.00233657 -0.000195649)
(0.00841159 0.00238011 -0.000231844)
(0.000614105 0.000621933 2.76811e-05)
(0.00131503 0.00105528 1.97413e-05)
(0.00227218 0.0015218 -5.07427e-06)
(0.00335878 0.00186377 -4.18158e-05)
(0.00454866 0.00210074 -8.32399e-05)
(0.00579431 0.00224581 -0.000124066)
(0.00706207 0.00232403 -0.000160009)
(0.00833496 0.00237433 -0.000186741)
(0.000617174 0.000624235 9.23939e-06)
(0.00131573 0.00104965 4.38616e-08)
(0.00226699 0.00151063 -1.85737e-05)
(0.00334458 0.00184942 -4.39607e-05)
(0.00452348 0.00208582 -7.23192e-05)
(0.00575709 0.00223242 -0.000100668)
(0.00701266 0.00231363 -0.000126256)
(0.00827385 0.00236799 -0.000145607)
(0.00061762 0.00062426 1.4787e-06)
(0.00131318 0.00104526 -6.758e-06)
(0.00225949 0.00150308 -2.00284e-05)
(0.00333071 0.00184004 -3.69783e-05)
(0.00450221 0.00207601 -5.56633e-05)
(0.0057277 0.00222338 -7.44731e-05)
(0.00697476 0.00230616 -9.17319e-05)
(0.00822737 0.00236274 -0.00010492)
(0.000617265 0.00062365 -8.00922e-07)
(0.00131037 0.00104225 -6.39026e-06)
(0.00225312 0.0014984 -1.44057e-05)
(0.00332013 0.00183443 -2.42275e-05)
(0.00448694 0.00207019 -3.49439e-05)
(0.0057073 0.00221792 -4.57666e-05)
(0.00694888 0.00230145 -5.57918e-05)
(0.00819579 0.00235914 -6.34958e-05)
(0.00061692 0.000623191 -5.14407e-07)
(0.00130867 0.00104072 -2.4813e-06)
(0.00224956 0.00149616 -5.16651e-06)
(0.00331446 0.00183181 -8.39326e-06)
(0.00447896 0.00206748 -1.18955e-05)
(0.00569683 0.00221535 -1.54374e-05)
(0.00693568 0.00229918 -1.87323e-05)
(0.00817972 0.00235727 -2.12697e-05)
(0.000235718 0.000305355 0.000438185)
(0.00101909 0.000625098 0.000246407)
(0.00204494 0.000995315 0.000188464)
(0.00324998 0.00126148 6.65586e-05)
(0.0045716 0.00145184 -4.4518e-05)
(0.00594355 0.00157225 -0.000143585)
(0.0073178 0.00163921 -0.000220715)
(0.00867197 0.00167378 -0.000282342)
(6.12168e-05 8.49662e-05 0.000121046)
(0.000786565 0.000161312 9.07727e-05)
(0.00181844 0.000287132 4.53561e-05)
(0.00304777 0.000372175 -4.66247e-06)
(0.00439199 0.000427048 -5.04753e-05)
(0.00578434 0.00045452 -9.09191e-05)
(0.00717411 0.000460836 -0.000126364)
(0.00852816 0.000458336 -0.000162754)
(4.39696e-05 -0.000116838 -0.000137741)
(0.000746166 -0.000197517 -0.00013908)
(0.00176468 -0.000328885 -0.000130567)
(0.00298718 -0.000434887 -0.000108995)
(0.00432722 -0.000526127 -8.50714e-05)
(0.00571804 -0.000600807 -6.32389e-05)
(0.00710728 -0.000660849 -4.81076e-05)
(0.00845537 -0.000707024 -3.89923e-05)
(0.000178267 -0.000355101 -0.000455892)
(0.000889773 -0.000665232 -0.000321127)
(0.00187589 -0.00104298 -0.000299)
(0.00305814 -0.00133122 -0.000206568)
(0.0043656 -0.00155553 -0.000116681)
(0.00573164 -0.00171712 -3.33432e-05)
(0.00710475 -0.00182934 3.11142e-05)
(0.0084472 -0.00190952 7.03942e-05)
(0.000456238 -0.00057069 -0.000320096)
(0.00104437 -0.001096 -0.000330577)
(0.00200934 -0.00160842 -0.000282841)
(0.00312997 -0.00198164 -0.000187054)
(0.00438343 -0.00224908 -8.37198e-05)
(0.00570234 -0.00242112 1.29549e-05)
(0.00704107 -0.00252082 9.0396e-05)
(0.00836546 -0.00257372 0.000136221)
(0.000476548 -0.000589015 -0.000170601)
(0.00112513 -0.00108824 -0.00020352)
(0.00205072 -0.00159537 -0.00018127)
(0.00314107 -0.00196735 -0.000121629)
(0.00435325 -0.00223037 -5.09961e-05)
(0.00563292 -0.00239778 1.70748e-05)
(0.00693693 -0.00249244 7.14822e-05)
(0.00823688 -0.0025426 0.000101401)
(0.000490239 -0.000605138 -8.8303e-05)
(0.00114891 -0.00107899 -0.000113701)
(0.00206584 -0.0015696 -0.000103333)
(0.00313523 -0.00193283 -6.8382e-05)
(0.00432134 -0.0021899 -2.3132e-05)
(0.00557403 -0.00235414 2.18687e-05)
(0.00685304 -0.00244747 5.78794e-05)
(0.00813036 -0.00249696 7.4719e-05)
(0.000493363 -0.000609915 -4.37894e-05)
(0.00115198 -0.00106842 -6.00283e-05)
(0.0020623 -0.001546 -5.38991e-05)
(0.00311894 -0.00189947 -3.26565e-05)
(0.00428873 -0.00215022 -4.22572e-06)
(0.00552368 -0.00231082 2.46508e-05)
(0.00678498 -0.00240221 4.74458e-05)
(0.00804487 -0.00245039 5.56292e-05)
(0.000491899 -0.000609115 -2.03991e-05)
(0.00114715 -0.00105826 -2.97106e-05)
(0.00205135 -0.00152672 -2.53808e-05)
(0.00309931 -0.00187257 -1.20432e-05)
(0.00425847 -0.00211776 5.82105e-06)
(0.00548159 -0.00227466 2.40237e-05)
(0.00673036 -0.00236365 3.80109e-05)
(0.00797699 -0.00240998 4.12691e-05)
(0.000489236 -0.000606534 -8.66119e-06)
(0.00114063 -0.00104982 -1.34866e-05)
(0.00203965 -0.00151217 -1.0359e-05)
(0.00308148 -0.00185274 -2.07069e-06)
(0.00423352 -0.00209373 8.86617e-06)
(0.00544872 -0.00224753 1.99232e-05)
(0.00668883 -0.00233427 2.81341e-05)
(0.00792592 -0.00237875 2.89887e-05)
(0.00048693 -0.000604103 -3.1793e-06)
(0.0011353 -0.00104387 -5.34882e-06)
(0.00203061 -0.00150244 -3.40615e-06)
(0.00306837 -0.00183972 1.17883e-06)
(0.00421591 -0.00207797 7.12907e-06)
(0.00542615 -0.00222962 1.30827e-05)
(0.00666073 -0.0023147 1.73713e-05)
(0.00789161 -0.00235778 1.73601e-05)
(0.000485656 -0.000602716 -7.54522e-07)
(0.0011324 -0.00104081 -1.35787e-06)
(0.00202578 -0.00149757 -6.95543e-07)
(0.0030615 -0.00183327 7.77078e-07)
(0.00420683 -0.00207018 2.66896e-06)
(0.00541465 -0.00222075 4.54973e-06)