/*--------------------------------*- C++ -*----------------------------------*\
| =========                 |                                                 |
| \\      /  F ield         | foam-extend: Open Source CFD                    |
|  \\    /   O peration     | Version:     3.1                                |
|   \\  /    A nd           | Web:         http://www.extend-project.de       |
|    \\/     M anipulation  |                                                 |
\*---------------------------------------------------------------------------*/
FoamFile
{
    version     2.0;
    format      ascii;
    class       pointVectorField;
    location    "2.4";
    object      pointD;
}
// * * * * * * * * * * * * * * * * * * * * * * * * * * * * * * * * * * * * * //

dimensions      [0 1 0 0 0 0 0];

internalField   nonuniform List<vector> 
405
(
(0 0 0)
(0 0 0)
(0 0 0)
(0 0 0)
(0 0 0)
(0.000892253 0.000934569 0.000387132)
(0.000552452 0.00031729 0.000243505)
(0.000429213 -1.90146e-05 -1.88798e-05)
(0.000489522 -0.000362116 -0.000288483)
(0.00074691 -0.000973978 -0.000455329)
(0.00177983 0.00136916 0.000259111)
(0.00150154 0.000556051 0.000161174)
(0.00135553 -2.27955e-05 -3.60965e-05)
(0.00139985 -0.00060523 -0.000246442)
(0.00157193 -0.00142256 -0.000382801)
(0.00296625 0.00181338 0.000148929)
(0.00270367 0.00078126 9.1099e-05)
(0.00256054 -3.2679e-05 -5.22982e-05)
(0.0025797 -0.000850991 -0.000208712)
(0.00271074 -0.00189576 -0.000309915)
(0.00429683 0.00211938 3.54796e-06)
(0.00407285 0.00093838 5.5126e-06)
(0.00393918 -5.1648e-05 -6.47162e-05)
(0.00393542 -0.00104557 -0.000148039)
(0.00401259 -0.00223925 -0.000190667)
(0.00572495 0.00232094 -0.000130449)
(0.00553309 0.00104032 -7.24e-05)
(0.00540912 -7.80536e-05 -7.48797e-05)
(0.00538793 -0.001198 -8.95957e-05)
(0.00542413 -0.00248652 -7.42926e-05)
(0.00718717 0.00243275 -0.000243965)
(0.00702068 0.00109581 -0.000139028)
(0.00690552 -0.000109074 -8.48422e-05)
(0.00687226 -0.00131168 -4.02854e-05)
(0.00687933 -0.00264736 2.72914e-05)
(0.0086462 0.00249002 -0.000331371)
(0.00849264 0.00112003 -0.000194644)
(0.00837991 -0.000140268 -9.71048e-05)
(0.0083387 -0.00139522 -6.05298e-06)
(0.00833198 -0.00274809 0.000100855)
(0.0100987 0.00251434 -0.000382797)
(0.00992199 0.00113096 -0.000231252)
(0.00977754 -0.000162852 -0.000108955)
(0.00974389 -0.00145465 6.40959e-06)
(0.00974933 -0.00281486 0.000130303)
(0 0 0)
(0 0 0)
(0 0 0)
(0 0 0)
(0 0 0)
(0.000958965 0.000885004 0.000222951)
(0.000633278 0.000279239 0.000139702)
(0.000534113 -1.19292e-05 -1.59796e-05)
(0.000582315 -0.000302588 -0.00018027)
(0.000828589 -0.000899127 -0.00028351)
(0.00184827 0.00140892 0.000178004)
(0.00158882 0.000587191 0.000108256)
(0.00147181 -1.91747e-05 -3.19917e-05)
(0.00150385 -0.000626258 -0.000183174)
(0.00166429 -0.00145195 -0.000281463)
(0.00299146 0.00185746 9.06312e-05)
(0.0027524 0.000818359 5.33696e-05)
(0.00263851 -2.97936e-05 -4.5064e-05)
(0.00264731 -0.000880594 -0.000154876)
(0.00276355 -0.00193133 -0.000224397)
(0.00427602 0.00217036 -1.73116e-05)
(0.00407294 0.000981187 -1.00494e-05)
(0.00396596 -4.73551e-05 -5.56482e-05)
(0.00395442 -0.00107866 -0.000112718)
(0.00401956 -0.00227943 -0.000138319)
(0.00565519 0.00236851 -0.000122399)
(0.00548234 0.00108166 -7.09766e-05)
(0.00538268 -7.0786e-05 -6.48722e-05)
(0.00535559 -0.00122438 -6.94991e-05)
(0.00538144 -0.00251807 -4.92242e-05)
(0.00707448 0.00247407 -0.00021342)
(0.00692465 0.0011331 -0.000124149)
(0.0068312 -9.80022e-05 -7.44314e-05)
(0.00679339 -0.00132699 -3.34828e-05)
(0.00679176 -0.00266564 2.88022e-05)
(0.00849958 0.00252198 -0.000283458)
(0.00836021 0.00114988 -0.000167651)
(0.00826645 -0.000126046 -8.62033e-05)
(0.00822245 -0.00139637 -1.13524e-05)
(0.00820905 -0.00274897 8.33017e-05)
(0.00993569 0.00253952 -0.00032257)
(0.00977212 0.00115495 -0.000195123)
(0.00964529 -0.000147269 -9.82698e-05)
(0.00960876 -0.00144639 -9.38392e-06)
(0.00960781 -0.00280397 9.78278e-05)
(0 0 0)
(0 0 0)
(0 0 0)
(0 0 0)
(0 0 0)
(0.00100661 0.000893026 0.000114959)
(0.000663449 0.000278299 7.07919e-05)
(0.000558666 -9.33449e-06 -1.46012e-05)
(0.000611292 -0.00029647 -0.00010617)
(0.00086976 -0.000905977 -0.000161763)
(0.00190019 0.00139917 9.41808e-05)
(0.00162485 0.000586544 5.38097e-05)
(0.0015015 -1.54128e-05 -2.85044e-05)
(0.00154016 -0.000618668 -0.000117962)
(0.0017148 -0.00143919 -0.000172831)
(0.00301862 0.00184424 3.91707e-05)
(0.00277404 0.000821402 1.76969e-05)
(0.00265819 -2.49986e-05 -3.99822e-05)
(0.00266926 -0.00087437 -0.000104875)
(0.00278987 -0.00191006 -0.000141901)
(0.0042737 0.00215743 -3.3389e-05)
(0.00406776 0.00098645 -2.65523e-05)
(0.00396027 -4.0614e-05 -4.94867e-05)
(0.00394919 -0.00107038 -7.95009e-05)
(0.00401594 -0.00225274 -8.78691e-05)
(0.00561928 0.00235793 -0.000107664)
(0.00544588 0.00108916 -7.07836e-05)
(0.00534675 -6.15604e-05 -5.8007e-05)
(0.00531868 -0.0012128 -5.16529e-05)
(0.00534344 -0.0024866 -2.84576e-05)
(0.00700681 0.00246773 -0.000174302)
(0.00685761 0.00114235 -0.00011047)
(0.00676552 -8.61935e-05 -6.69885e-05)
(0.00672578 -0.0013112 -2.8547e-05)
(0.00672123 -0.00263065 2.44176e-05)
(0.00840502 0.00252202 -0.000226803)
(0.00826757 0.0011604 -0.000143084)
(0.00817579 -0.000112048 -7.81261e-05)
(0.00812909 -0.00137638 -1.68442e-05)
(0.00811115 -0.00271187 6.00251e-05)
(0.00982531 0.00254431 -0.000253658)
(0.00966467 0.00116637 -0.000162424)
(0.00953958 -0.000131535 -9.09365e-05)
(0.00949731 -0.0014227 -2.52198e-05)
(0.00948917 -0.00276454 5.88586e-05)
(0 0 0)
(0 0 0)
(0 0 0)
(0 0 0)
(0 0 0)
(0.00102866 0.000897826 5.21148e-05)
(0.000671966 0.000278055 3.20985e-05)
(0.000560944 -7.86738e-06 -1.26637e-05)
(0.000616395 -0.000293628 -6.1189e-05)
(0.000884809 -0.000908614 -8.79218e-05)
(0.00192231 0.00138792 3.72794e-05)
(0.00163458 0.000582388 1.98853e-05)
(0.00150385 -1.21488e-05 -2.43138e-05)
(0.00154612 -0.000608438 -7.27501e-05)
(0.001731 -0.00142319 -9.80505e-05)
(0.00302927 0.00182525 1.22324e-06)
(0.00277557 0.000816341 -4.69732e-06)
(0.00265385 -1.97504e-05 -3.41015e-05)
(0.00266696 -0.000859058 -6.75562e-05)
(0.00279519 -0.00188129 -8.13999e-05)
(0.00426559 0.00213623 -4.69718e-05)
(0.00405408 0.000982177 -3.52213e-05)
(0.00394219 -3.30542e-05 -4.23891e-05)
(0.00393159 -0.00105083 -5.33353e-05)
(0.00400265 -0.00221576 -4.89055e-05)
(0.00558942 0.00233853 -9.79823e-05)
(0.00541322 0.00108719 -6.65459e-05)
(0.00531081 -5.14668e-05 -5.00019e-05)
(0.00528205 -0.00118994 -3.66774e-05)
(0.00530826 -0.00244464 -1.1333e-05)
(0.00695519 0.0024532 -0.000145197)
(0.00680518 0.00114359 -9.54458e-05)
(0.00671079 -7.35956e-05 -5.81778e-05)
(0.0066694 -0.00128578 -2.3149e-05)
(0.00666387 -0.00258624 2.25722e-05)
(0.00833399 0.00251497 -0.000183375)
(0.00819755 0.00116532 -0.000119598)
(0.00810409 -9.71822e-05 -6.84452e-05)
(0.00805447 -0.00134909 -1.86749e-05)
(0.00803289 -0.00266651 4.39813e-05)
(0.00974118 0.00254482 -0.000202287)
(0.00958247 0.00117544 -0.00013398)
(0.00945489 -0.000114528 -8.11194e-05)
(0.00940655 -0.00139446 -3.14739e-05)
(0.00939174 -0.00271939 3.52659e-05)
(0 0 0)
(0 0 0)
(0 0 0)
(0 0 0)
(0 0 0)
(0.00103712 0.000898705 1.94815e-05)
(0.000671871 0.000277673 1.20086e-05)
(0.00055668 -6.69116e-06 -1.01714e-05)
(0.000613311 -0.000290903 -3.45188e-05)
(0.000887365 -0.000906114 -4.59182e-05)
(0.00192874 0.00137922 6.69866e-06)
(0.0016321 0.000579091 2.07704e-06)
(0.00149619 -9.11364e-06 -1.95127e-05)
(0.00153991 -0.000599089 -4.35843e-05)
(0.00173121 -0.00140848 -5.26506e-05)
(0.00302825 0.00181056 -1.83508e-05)
(0.00276679 0.000811633 -1.52237e-05)
(0.00264046 -1.46019e-05 -2.74701e-05)
(0.00265446 -0.00084401 -4.19561e-05)
(0.00278811 -0.00185618 -4.2955e-05)
(0.00425288 0.00211901 -5.08327e-05)
(0.00403563 0.000977659 -3.63482e-05)
(0.00391996 -2.56339e-05 -3.43383e-05)
(0.00390952 -0.00103122 -3.42878e-05)
(0.0039842 -0.00218293 -2.33224e-05)
(0.00556274 0.00232203 -8.56244e-05)
(0.00538273 0.00108429 -5.83187e-05)
(0.00527736 -4.17127e-05 -4.07995e-05)
(0.00524809 -0.00116695 -2.48036e-05)
(0.00527603 -0.00240678 -8.1886e-08)
(0.00691391 0.00243989 -0.000118643)
(0.00676164 0.00114329 -7.90683e-05)
(0.00666499 -6.16062e-05 -4.78681e-05)
(0.00662243 -0.00126045 -1.75122e-05)
(0.00661683 -0.00254547 2.09155e-05)
(0.00827885 0.0025067 -0.000146029)
(0.00814147 0.00116811 -9.67526e-05)
(0.00804604 -8.3151e-05 -5.679e-05)
(0.00799428 -0.00132219 -1.71407e-05)
(0.0079707 -0.00262408 3.29415e-05)
(0.00967521 0.00254157 -0.000159016)
(0.00951594 0.00118156 -0.000107174)
(0.00938551 -9.84535e-05 -6.80011e-05)
(0.00933279 -0.00136652 -3.04995e-05)
(0.00931401 -0.00267632 2.175e-05)
(0 0 0)
(0 0 0)
(0 0 0)
(0 0 0)
(0 0 0)
(0.00103924 0.000897804 4.31551e-06)
(0.000669138 0.000277317 2.66039e-06)
(0.00055137 -5.68836e-06 -7.50276e-06)
(0.000608368 -0.000288436 -1.88698e-05)
(0.000885129 -0.000901765 -2.28127e-05)
(0.00192793 0.00137297 -6.38708e-06)
(0.0016256 0.000577069 -5.24262e-06)
(0.00148637 -6.43662e-06 -1.45036e-05)
(0.00153055 -0.000591581 -2.52005e-05)
(0.00172549 -0.00139633 -2.66184e-05)
(0.00302188 0.00180066 -2.38739e-05)
(0.00275507 0.000808712 -1.73131e-05)
(0.00262561 -1.00481e-05 -2.05417e-05)
(0.0026399 -0.000831851 -2.49986e-05)
(0.00277686 -0.00183675 -2.06621e-05)
(0.0042388 0.00210736 -4.5635e-05)
(0.00401721 0.000974842 -3.16705e-05)
(0.00389887 -1.9136e-05 -2.58364e-05)
(0.00388843 -0.00101518 -2.10038e-05)
(0.00396553 -0.00215755 -8.77756e-06)
(0.00553955 0.00231056 -6.89505e-05)
(0.00535632 0.00108253 -4.66788e-05)
(0.0052488 -3.3293e-05 -3.09178e-05)
(0.00521918 -0.00114793 -1.58487e-05)
(0.00524846 -0.00237709 5.33895e-06)
(0.00688085 0.00243015 -9.14505e-05)
(0.00672639 0.00114328 -6.10947e-05)
(0.00662802 -5.14012e-05 -3.6555e-05)
(0.00658475 -0.0012393 -1.22617e-05)
(0.00657933 -0.00251288 1.7941e-05)
(0.00823583 0.00249984 -0.000110479)
(0.00809712 0.00117018 -7.35739e-05)
(0.00800014 -7.13421e-05 -4.36591e-05)
(0.00794701 -0.00129956 -1.36758e-05)
(0.00792242 -0.00258947 2.42913e-05)
(0.00962352 0.00253782 -0.000119316)
(0.00946299 0.00118596 -8.0945e-05)
(0.00933026 -8.49814e-05 -5.25665e-05)
(0.00927482 -0.00134283 -2.50763e-05)
(0.00925387 -0.00264064 1.40109e-05)
(0 0 0)
(0 0 0)
(0 0 0)
(0 0 0)
(0 0 0)
(0.001039 0.000896493 -1.17083e-06)
(0.000666294 0.000277063 -7.33365e-07)
(0.000547009 -4.91068e-06 -4.89089e-06)
(0.000604037 -0.000286509 -9.67843e-06)
(0.000881934 -0.000897654 -1.04986e-05)
(0.00192493 0.00136877 -8.93039e-06)
(0.00161922 0.000575976 -6.29123e-06)
(0.00147797 -4.34856e-06 -9.5465e-06)
(0.00152222 -0.000586165 -1.35898e-05)
(0.00171909 -0.00138736 -1.23618e-05)
(0.00301482 0.00179449 -2.02153e-05)
(0.00274466 0.000807208 -1.40448e-05)
(0.00261323 -6.51195e-06 -1.36051e-05)
(0.00262757 -0.000823144 -1.38108e-05)
(0.00276639 -0.00182305 -8.80302e-06)
(0.00422666 0.0021002 -3.37899e-05)
(0.00400218 0.000973481 -2.30579e-05)
(0.00388213 -1.41364e-05 -1.72074e-05)
(0.00387162 -0.00100364 -1.18501e-05)
(0.00395018 -0.00213982 -1.95559e-06)
(0.00552152 0.00230342 -4.8283e-05)
(0.00533603 0.00108185 -3.24903e-05)
(0.00522709 -2.68852e-05 -2.07149e-05)
(0.00519726 -0.00113415 -9.23869e-06)
(0.00522741 -0.00235619 6.12111e-06)
(0.00685635 0.00242386 -6.24061e-05)
(0.00670021 0.00114366 -4.16492e-05)
(0.0066007 -4.3717e-05 -2.46402e-05)
(0.00655702 -0.00122385 -7.66556e-06)
(0.00655182 -0.00248963 1.32023e-05)
(0.00820452 0.00249504 -7.44967e-05)
(0.00806461 0.00117181 -4.96622e-05)
(0.00796657 -6.25294e-05 -2.95674e-05)
(0.00791267 -0.00128291 -9.33607e-06)
(0.00788765 -0.00256446 1.62981e-05)
(0.00958593 0.00253472 -8.00623e-05)
(0.00942414 0.00118902 -5.44206e-05)
(0.00928981 -7.49846e-05 -3.56956e-05)
(0.00923282 -0.00132523 -1.74473e-05)
(0.00921083 -0.0026145 8.73515e-06)
(0 0 0)
(0 0 0)
(0 0 0)
(0 0 0)
(0 0 0)
(0.00103829 0.00089549 -1.64263e-06)
(0.000664348 0.000276915 -1.02477e-06)
(0.00054427 -4.41908e-06 -2.40261e-06)
(0.000601237 -0.000285296 -4.0489e-06)
(0.000879531 -0.000894865 -3.98495e-06)
(0.00192234 0.00136634 -5.71706e-06)
(0.00161488 0.00057546 -3.89882e-06)
(0.00147255 -3.02831e-06 -4.72461e-06)
(0.00151676 -0.000582907 -5.89908e-06)
(0.00171453 -0.00138188 -4.7055e-06)
(0.00300972 0.00179113 -1.12868e-05)
(0.00273775 0.000806553 -7.71083e-06)
(0.00260526 -4.28366e-06 -6.76398e-06)
(0.00261956 -0.000817945 -6.09443e-06)
(0.00275932 -0.00181492 -3.01585e-06)
(0.0042186 0.00209637 -1.78493e-05)
(0.00399251 0.000972957 -1.20778e-05)
(0.00387152 -1.10047e-05 -8.58806e-06)
(0.00386095 -0.000996745 -5.30056e-06)
(0.00394027 -0.00212937 1.33721e-07)
(0.00551009 0.00229958 -2.4834e-05)
(0.00532329 0.00108171 -1.66473e-05)
(0.00521357 -2.28992e-05 -1.03795e-05)
(0.00518363 -0.00112588 -4.22137e-06)
(0.00521426 -0.00234385 3.81867e-06)
(0.00684119 0.00242039 -3.16742e-05)
(0.00668404 0.00114408 -2.11105e-05)
(0.00658389 -3.89693e-05 -1.23933e-05)
(0.00654001 -0.00121452 -3.66361e-06)
(0.00653497 -0.0024758 7.00082e-06)
(0.00818535 0.00249223 -3.75678e-05)
(0.00804468 0.00117288 -2.50382e-05)
(0.00794603 -5.7115e-05 -1.49123e-05)
(0.00789175 -0.00127281 -4.70055e-06)
(0.00786659 -0.00254946 8.23724e-06)
(0.00956294 0.0025327 -4.02769e-05)
(0.00940034 0.00119083 -2.73825e-05)
(0.00926508 -6.88629e-05 -1.80232e-05)
(0.0092073 -0.0013145 -8.88092e-06)
(0.00918487 -0.0025987 4.28019e-06)
(0 0 0)
(0 0 0)
(0 0 0)
(0 0 0)
(0 0 0)
(0.00103797 0.000895125 -0)
(0.000663668 0.000276867 -0)
(0.000543345 -4.25115e-06 0)
(0.00060028 -0.000284883 0)
(0.000878663 -0.000893888 0)
(0.00192136 0.00136555 -0)
(0.00161336 0.000575311 0)
(0.00147069 -2.57752e-06 0)
(0.00151487 -0.00058182 0)
(0.00171291 -0.00138004 0)
(0.00300789 0.00179006 -0)
(0.00273535 0.000806375 0)
(0.00260252 -3.524e-06 0)
(0.00261681 -0.000816218 0)
(0.00275684 -0.00181222 0)
(0.00421578 0.00209517 -0)
(0.00398919 0.000972833 0)
(0.00386789 -9.94003e-06 0)
(0.0038573 -0.000994455 0)
(0.00393685 -0.00212592 0)
(0.00550618 0.00229838 -0)
(0.00531896 0.00108172 0)
(0.00520898 -2.15486e-05 0)
(0.005179 -0.00112312 0)
(0.00520979 -0.00233977 0)
(0.00683605 0.00241928 -0)
(0.00667857 0.00114426 0)
(0.00657821 -3.73657e-05 0)
(0.00653427 -0.00121142 0)
(0.0065293 -0.00247122 0)
(0.00817887 0.00249131 -0)
(0.00803795 0.00117325 0)
(0.00793911 -5.52903e-05 0)
(0.00788472 -0.00126944 0)
(0.00785952 -0.00254447 0)
(0.00955517 0.00253198 -0)
(0.00939231 0.00119143 -0)
(0.00925676 -6.68011e-05 0)
(0.00919874 -0.0013109 0)
(0.00917618 -0.00259343 0)
)
;

boundaryField
{
    interface
    {
        type            calculated;
    }
    symmetry
    {
        type            symmetryPlane;
    }
    bottom
    {
        type            fixedValue;
        value           uniform (0 0 0);
    }
}


// ************************************************************************* //
