/*--------------------------------*- C++ -*----------------------------------*\
| =========                 |                                                 |
| \\      /  F ield         | foam-extend: Open Source CFD                    |
|  \\    /   O peration     | Version:     3.1                                |
|   \\  /    A nd           | Web:         http://www.extend-project.de       |
|    \\/     M anipulation  |                                                 |
\*---------------------------------------------------------------------------*/
FoamFile
{
    version     2.0;
    format      ascii;
    class       volSymmTensorField;
    location    "2.4";
    object      sigmaCauchy;
}
// * * * * * * * * * * * * * * * * * * * * * * * * * * * * * * * * * * * * * //

dimensions      [1 -1 -2 0 0 0 0];

internalField   nonuniform List<symmTensor> 
256
(
(177.083 73.3181 -1.14566 414.95 36.2887 202.212)
(25.1909 55.6564 -7.84641 80.9292 11.5805 31.5134)
(-54.4862 48.342 -8.95032 -111.616 -15.1198 -56.2491)
(-205.046 44.4331 -4.95005 -402.12 -33.6332 -222.733)
(-74.3121 32.9544 -3.50577 119.413 -10.8779 -24.1163)
(-28.5608 71.1146 -13.1158 40.5991 -4.95361 -11.1851)
(1.79452 65.3593 -13.5229 -55.8198 2.21093 -4.62452)
(41.4751 19.7509 -4.79554 -128.198 7.30056 8.19562)
(-25.7506 39.7099 -1.68553 145.278 -6.11677 22.7311)
(-28.272 68.887 -9.01494 34.8934 -2.46877 -6.36102)
(-2.39506 64.014 -9.32022 -51.516 0.196376 -9.63845)
(-5.28758 25.5755 -2.89486 -148.627 3.16897 -32.8989)
(-36.8932 34.4104 -1.95238 94.7288 -8.32567 8.71734)
(-28.7985 62.4122 -7.53819 21.311 -2.72768 -7.61552)
(-1.61606 58.5586 -7.52464 -38.3065 1.25506 -6.21338)
(6.04103 23.0745 -2.73434 -99.7183 6.15891 -15.62)
(-33.7729 29.1382 -1.64469 63.3253 -7.3959 8.48904)
(-27.0987 53.2902 -6.09842 11.5335 -2.16855 -6.43405)
(-3.34534 50.5951 -5.98369 -28.6598 1.36715 -5.96666)
(3.10777 21.0627 -2.28033 -68.9608 6.13998 -13.4855)
(-34.5805 22.1346 -1.69012 34.806 -6.28063 5.31324)
(-26.6826 42.3767 -5.30044 3.05135 -1.7615 -6.22628)
(-4.74144 40.9562 -5.0613 -20.1509 1.33421 -5.62098)
(3.22034 17.6576 -2.14624 -40.8266 5.76582 -9.84688)
(-34.3199 14.6808 -2.12027 17.768 -5.0672 5.36205)
(-27.778 30.7104 -5.05459 -2.93758 -1.64237 -6.18208)
(-6.36103 30.0373 -4.63434 -13.6422 0.980444 -5.89766)
(3.34573 13.0785 -2.25577 -21.1666 4.62077 -8.57937)
(-44.6245 9.12276 -2.61347 3.2231 -2.62098 0.560627)
(-40.6458 17.9972 -4.86185 -10.798 -0.906483 -12.1944)
(-2.71959 16.0913 -4.56916 -4.38395 0.282695 -2.77893)
(8.66127 6.15133 -2.84248 -7.55447 1.84263 -6.58471)
(178.832 82.1596 -0.716026 409.552 22.1739 209.655)
(30.9483 66.2215 -6.39367 82.8234 6.57239 37.5302)
(-49.2772 59.1795 -7.61659 -101.211 -10.7634 -53.8643)
(-196.977 52.6015 -4.23101 -387.19 -23.1599 -221.825)
(-42.2512 34.2424 -2.61401 163.744 -4.18881 14.3487)
(-6.02997 73.5793 -12.2745 65.4246 -2.63302 10.515)
(-17.8506 67.3459 -13.5621 -79.9566 -0.798692 -26.0107)
(7.92951 20.6317 -5.71726 -171.509 0.148069 -30.9425)
(-20.6875 35.6263 -1.54538 150.233 -9.27416 27.1935)
(-17.8515 63.4003 -9.82031 43.1196 -3.56826 0.942282)
(-8.65952 58.596 -10.9585 -56.9422 1.62541 -14.7615)
(-9.14731 21.8382 -4.2757 -151.934 6.36596 -35.5756)
(-27.3901 29.6444 -0.719796 103.587 -11.2282 17.3386)
(-18.1386 54.6026 -7.14993 29.8832 -3.70162 -0.146241)
(-7.96812 50.7595 -8.12803 -42.6212 2.82603 -11.4482)
(-2.13842 18.5228 -3.21993 -105.771 9.55181 -22.4282)
(-27.1145 23.9517 0.143155 68.1052 -10.9732 14.0457)
(-18.3863 44.9564 -5.00037 18.0356 -3.37214 -0.980943)
(-7.51067 42.3401 -5.89461 -29.8307 3.21986 -8.97726)
(-2.07361 16.1913 -2.18718 -70.3192 10.3799 -17.1139)
(-28.0533 17.538 0.608051 39.1413 -9.5405 10.9779)
(-18.8661 34.9323 -3.57901 8.65036 -2.86561 -1.57126)
(-7.69401 33.6068 -4.35677 -19.7904 2.98284 -7.55386)
(-1.43679 13.3794 -1.5237 -41.0247 9.70846 -13.1818)
(-28.535 10.9567 0.581411 21.0696 -7.36365 10.3737)
(-21.3811 24.9295 -2.97092 0.990892 -2.36103 -2.91937)
(-8.15111 24.4503 -3.60693 -12.2432 2.17446 -6.77766)
(-0.0225136 9.90789 -1.25155 -19.7975 7.67096 -10.7329)
(-38.3849 7.27533 0.117435 7.03618 -3.91689 5.72903)
(-34.959 15.036 -3.10248 -7.68297 -1.30548 -9.86336)
(-5.26902 13.3056 -4.01333 -4.42847 0.957454 -4.46545)
(4.11508 4.7913 -2.06384 -8.17295 3.82236 -9.90657)
(185.072 86.0531 -0.670187 419.047 10.9862 223.227)
(33.5619 68.8533 -4.15646 86.4152 2.76198 42.9697)
(-49.6814 61.4734 -4.98379 -101.34 -6.65351 -57.0427)
(-203.277 54.7731 -2.82941 -394.999 -13.1431 -235.417)
(-42.6307 34.7142 -2.14609 164.593 -2.73497 26.7298)
(-4.21586 74.6663 -8.38305 69.0154 -1.99516 17.7323)
(-19.3431 68.3713 -9.4615 -81.8778 -1.09001 -32.2953)
(5.92059 21.034 -4.44848 -173.719 -0.460446 -45.7873)
(-21.2663 35.1506 -1.7285 152.099 -7.04589 35.0706)
(-17.1738 62.8733 -7.39429 45.8574 -2.9058 5.77379)
(-9.66038 57.9985 -8.37599 -58.3974 1.19942 -18.9195)
(-11.3311 21.237 -3.69492 -154.899 4.80669 -46.5447)
(-28.2501 28.7197 -1.06587 104.527 -9.03365 21.0431)
(-17.6852 52.6295 -5.58384 32.0119 -3.14257 3.18155)
(-9.05691 48.7795 -6.41307 -43.0968 2.55139 -13.8585)
(-4.54544 17.6353 -2.7105 -107.93 7.92821 -29.6088)
(-28.7818 22.6856 -0.37248 68.0303 -9.20164 14.2532)
(-18.0606 42.4395 -3.80749 19.9022 -2.93286 1.32812)
(-8.54475 39.8831 -4.53486 -29.687 3.11809 -10.077)
(-3.78412 15.1082 -1.77054 -71.176 9.11766 -20.6528)
(-29.957 16.2224 0.10165 38.6491 -8.20465 9.01539)
(-18.5406 32.4225 -2.54708 10.2714 -2.49824 0.0285883)
(-8.58446 31.2605 -3.17086 -19.1684 3.03213 -7.61624)
(-2.75131 12.4357 -1.09536 -41.0481 8.83614 -14.0731)
(-30.1314 9.70541 0.195028 20.7837 -6.37456 7.26854)
(-21.0199 22.8953 -2.04949 2.33117 -1.95778 -1.90616)
(-8.95928 22.6836 -2.60929 -11.4135 2.32905 -6.04795)
(-1.05105 9.28272 -0.853682 -19.2089 7.2064 -9.536)
(-40.5139 6.63976 -0.256813 5.68691 -3.18991 0.655694)
(-34.9006 14.0132 -2.5807 -6.81152 -0.925499 -9.63275)
(-6.39646 12.4723 -3.50504 -3.57874 1.03364 -2.85701)
(3.99195 4.62551 -1.86922 -6.18298 3.54344 -5.60782)
(188.152 87.4241 -0.459924 424.247 4.65679 231.402)
(34.3751 69.2243 -2.52177 88.1268 0.774528 45.8776)
(-50.2347 61.5809 -3.01164 -101.612 -4.00916 -59.1595)
(-206.487 55.1727 -1.70643 -398.858 -7.06073 -243.243)
(-43.4932 34.7843 -1.36908 164.225 -2.26472 35.3724)
(-4.5471 75.1031 -5.30383 70.0856 -1.58237 21.5681)
(-19.7695 68.7838 -6.02259 -81.7173 -0.906381 -35.7508)
(5.44206 21.1486 -2.92217 -173.562 -0.204703 -55.4192)
(-21.8024 35.2293 -1.28319 153.021 -5.00598 42.4875)
(-18.0496 63.1195 -5.0724 46.7614 -2.13683 8.6781)
(-10.0403 58.2573 -5.73185 -58.279 0.792125 -21.6903)
(-12.0048 21.3574 -2.62094 -155.409 3.3816 -54.9063)
(-28.9022 28.6425 -0.910713 105.585 -6.44819 25.9311)
(-18.6091 52.5116 -4.04042 32.8658 -2.29082 5.24809)
(-9.60706 48.6965 -4.56876 -42.9016 1.92216 -15.7194)
(-5.24402 17.659 -1.97577 -108.414 5.76367 -35.5052)
(-29.4312 22.4749 -0.447231 69.142 -6.737 16.8047)
(-18.9272 42.0467 -2.85109 20.7698 -2.15242 2.69453)
(-9.19134 39.5661 -3.28005 -29.3975 2.48387 -11.0213)
(-4.46847 15.077 -1.27934 -71.4685 6.89511 -23.9938)
(-30.5195 15.9104 -0.101694 39.8202 -6.1775 9.7779)
(-19.2905 31.895 -1.96576 11.1344 -1.85348 0.877673)
(-9.22567 30.8726 -2.30921 -18.7568 2.51339 -7.71962)
(-3.40557 12.4196 -0.756112 -41.1101 6.91131 -15.2225)
(-30.335 9.32511 -0.0462643 22.2401 -4.94849 6.9464)
(-21.6507 22.4094 -1.71511 3.15594 -1.45634 -1.41653)
(-9.64745 22.3842 -2.03189 -10.9218 1.99644 -5.42174)
(-1.71454 9.33306 -0.610173 -18.9478 5.80433 -8.83182)
(-40.6384 6.47125 -0.548689 6.93905 -2.58631 -0.571654)
(-35.6047 13.7676 -2.50301 -6.00035 -0.687219 -9.30622)
(-7.59476 12.3092 -3.13323 -3.18731 0.920815 -1.60322)
(3.20504 4.71088 -1.59548 -5.61972 2.92673 -3.14867)
(189.169 87.7211 -0.278968 426.241 1.49109 235.484)
(34.6068 68.8833 -1.45256 88.977 -0.107165 47.4136)
(-50.5297 61.0842 -1.7281 -101.482 -2.36375 -60.2898)
(-207.453 54.9922 -0.970427 -399.619 -3.627 -246.816)
(-44.3016 34.6713 -0.78601 163.849 -1.90823 40.545)
(-5.01842 75.0853 -3.17466 70.642 -1.22795 23.7545)
(-20.1136 68.7764 -3.62056 -81.228 -0.654108 -37.8265)
(5.12656 21.1347 -1.77314 -173.106 0.0478071 -61.2991)
(-22.5362 35.2786 -0.826238 153.308 -3.49867 47.373)
(-18.8179 63.332 -3.25347 47.2768 -1.50249 10.4999)
(-10.3816 58.5216 -3.66623 -57.8224 0.514055 -23.5414)
(-12.2417 21.5135 -1.68165 -155.12 2.35305 -60.3239)
(-29.6529 28.7315 -0.644571 106.152 -4.38864 29.5843)
(-19.3774 52.7724 -2.72517 33.4376 -1.5611 6.65266)
(-10.0138 49.0159 -3.04014 -42.502 1.34715 -17.0932)
(-5.50717 17.8781 -1.30014 -108.232 3.98066 -39.6749)
(-30.1085 22.5461 -0.374093 69.9257 -4.62699 19.0899)
(-19.6294 42.2541 -2.01366 21.3978 -1.4618 3.6894)
(-9.6286 39.8489 -2.24894 -29.0258 1.80444 -11.8062)
(-4.75897 15.3129 -0.848227 -71.3321 4.85753 -26.6056)
(-31.0895 15.92 -0.168951 40.7367 -4.3409 10.8935)
(-19.8894 32.0128 -1.47761 11.7969 -1.27506 1.56435)
(-9.66131 31.0955 -1.64834 -18.3854 1.87214 -7.91156)
(-3.6975 12.6559 -0.506661 -40.917 4.98329 -16.3122)
(-30.6621 9.25458 -0.180932 23.3488 -3.58378 7.31582)
(-22.1914 22.4571 -1.42853 3.79535 -1.02093 -0.945387)
(-10.1463 22.5486 -1.58671 -10.5501 1.51337 -5.07684)
(-2.01182 9.56036 -0.459944 -18.5711 4.27086 -8.5489)
(-41.1193 6.4607 -0.679998 7.74624 -1.91439 -1.02335)
(-36.3856 13.8051 -2.26497 -5.48823 -0.475977 -9.07213)
(-8.46213 12.368 -2.65528 -2.87079 0.707825 -0.814431)
(2.8099 4.84839 -1.31518 -5.08783 2.17773 -1.6516)
(189.324 87.6313 -0.149821 426.741 0.139443 237.372)
(34.6378 68.4156 -0.788108 89.4173 -0.376349 48.2074)
(-50.6189 60.5283 -0.936458 -101.146 -1.33703 -60.8181)
(-207.433 54.6842 -0.519036 -399.068 -1.7557 -248.196)
(-44.8293 34.5009 -0.403495 163.642 -1.46714 43.5182)
(-5.3938 74.8759 -1.78364 71.0015 -0.883186 24.9635)
(-20.3617 68.5894 -2.04529 -80.714 -0.425814 -39.0361)
(4.85155 21.0738 -0.999711 -172.649 0.161816 -64.7478)
(-23.0815 35.2643 -0.469648 153.477 -2.33365 50.374)
(-19.3516 63.4058 -1.93881 47.6442 -0.99626 11.5832)
(-10.6538 58.6485 -2.18294 -57.3525 0.323945 -24.7176)
(-12.3684 21.6108 -0.989155 -154.682 1.56789 -63.6258)
(-30.201 28.8038 -0.392778 106.526 -2.83128 32.0256)
(-19.9008 53.0019 -1.69594 33.8533 -0.99916 7.54167)
(-10.2923 49.3008 -1.87468 -42.0839 0.881139 -18.0161)
(-5.63032 18.0705 -0.77996 -107.872 2.59538 -42.3629)
(-30.5991 22.6429 -0.25058 70.4635 -2.98482 20.8122)
(-20.0977 42.5237 -1.30894 21.8562 -0.927826 4.36909)
(-9.89983 40.1808 -1.43225 -28.6532 1.20356 -12.3727)
(-4.88539 15.5454 -0.514024 -71.0263 3.18877 -28.4101)
(-31.4944 15.9874 -0.146259 41.3791 -2.84478 11.9634)
(-20.2868 32.2426 -1.02369 12.2745 -0.818297 2.08265)
(-9.92202 31.4021 -1.10318 -18.0474 1.26548 -8.09376)
(-3.83203 12.8923 -0.317004 -40.6185 3.31327 -17.1889)
(-30.9114 9.25692 -0.192454 24.1132 -2.40388 7.95844)
(-22.5675 22.6099 -1.07969 4.24234 -0.667972 -0.548144)
(-10.4587 22.7792 -1.15319 -10.2499 1.03102 -4.90979)
(-2.1546 9.7714 -0.327583 -18.1955 2.87325 -8.55166)
(-41.4228 6.47215 -0.600505 8.42 -1.31263 -0.786818)
(-36.9565 13.8871 -1.78356 -5.12269 -0.311646 -8.82133)
(-9.03518 12.4561 -2.01406 -2.63418 0.486847 -0.407438)
(2.51784 4.95486 -0.976649 -4.74647 1.47788 -1.02043)
(189.203 87.4677 -0.0698135 426.691 -0.230447 238.161)
(34.6147 68.0432 -0.380515 89.6454 -0.32525 48.5991)
(-50.6131 60.1081 -0.452573 -100.814 -0.675334 -61.0328)
(-207.131 54.4271 -0.247598 -398.262 -0.761367 -248.604)
(-45.1495 34.3533 -0.180412 163.524 -0.925257 45.0882)
(-5.64126 74.6565 -0.886289 71.2314 -0.534017 25.5906)
(-20.5122 68.3909 -1.02232 -80.308 -0.236214 -39.6921)
(4.65889 21.014 -0.496743 -172.282 0.150033 -66.6276)
(-23.436 35.2249 -0.230616 153.581 -1.34759 52.0374)
(-19.6785 63.3984 -1.00863 47.8973 -0.57091 12.1781)
(-10.8348 58.6812 -1.13628 -56.992 0.180357 -25.403)
(-12.4402 21.6578 -0.506653 -154.313 0.9053 -65.4799)
(-30.5554 28.8383 -0.203914 106.757 -1.5921 33.4559)
(-20.2171 53.1332 -0.912228 34.1356 -0.5569 8.05463)
(-10.4633 49.4725 -1.00283 -41.7592 0.49756 -18.5731)
(-5.69288 18.1929 -0.405164 -107.557 1.46819 -43.9327)
(-30.9203 22.7062 -0.13894 70.7837 -1.67345 21.897)
(-20.3765 42.7102 -0.728617 22.1598 -0.512989 4.78702)
(-10.054 40.4103 -0.787226 -28.3638 0.686011 -12.729)
(-4.93928 15.7035 -0.269539 -70.7426 1.8052 -29.5134)
(-31.7634 16.038 -0.0947142 41.7544 -1.61017 12.7208)
(-20.5219 32.4163 -0.599221 12.5818 -0.456031 2.4269)
(-10.0644 31.6259 -0.632771 -17.7921 0.725752 -8.22504)
(-3.8886 13.0556 -0.172325 -40.3508 1.88665 -17.7787)
(-31.0942 9.26608 -0.139964 24.553 -1.38198 8.49805)
(-22.7952 22.7294 -0.671257 4.52299 -0.377821 -0.262265)
(-10.6347 22.9466 -0.702151 -10.0356 0.59308 -4.83944)
(-2.21332 9.91307 -0.198144 -17.9008 1.64565 -8.64478)
(-41.6364 6.48312 -0.405433 8.82885 -0.768456 -0.446134)
(-37.3194 13.9509 -1.13144 -4.89776 -0.176692 -8.62371)
(-9.37336 12.5191 -1.25271 -2.47084 0.282191 -0.221866)
(2.34675 5.02028 -0.601424 -4.52018 0.850528 -0.805624)
(189.087 87.3617 -0.0201296 426.569 -0.123913 238.431)
(34.5935 67.845 -0.11228 89.744 -0.123095 48.7591)
(-50.5911 59.8888 -0.133669 -100.618 -0.205234 -61.1022)
(-206.907 54.2876 -0.0724924 -397.747 -0.208971 -248.674)
(-45.3002 34.2707 -0.0505225 163.468 -0.315999 45.756)
(-5.76282 74.526 -0.266017 71.3451 -0.178813 25.8549)
(-20.5812 68.2725 -0.307954 -80.0868 -0.0753178 -39.978)
(4.56187 20.9794 -0.148868 -172.078 0.0588852 -67.4511)
(-23.6081 35.1958 -0.0687261 153.632 -0.4417 52.7682)
(-19.8331 63.3765 -0.31077 48.0278 -0.186275 12.4383)
(-10.9236 58.6803 -0.350198 -56.7989 0.0580924 -25.7169)
(-12.4728 21.6751 -0.154366 -154.108 0.296735 -66.308)
(-30.7267 28.8493 -0.0629439 106.868 -0.514595 34.1061)
(-20.3655 53.1874 -0.286411 34.2791 -0.179057 8.28647)
(-10.5441 49.5474 -0.313887 -41.5848 0.160865 -18.8335)
(-5.71974 18.2497 -0.124452 -107.38 0.475664 -44.6507)
(-31.0768 22.7344 -0.044656 70.9321 -0.539731 22.4112)
(-20.5061 42.7985 -0.233253 22.3109 -0.164186 4.98384)
(-10.1235 40.5203 -0.250337 -28.208 0.222592 -12.8993)
(-4.95898 15.7801 -0.0833551 -70.5805 0.584455 -30.0315)
(-31.8951 16.0615 -0.0331409 41.9244 -0.521712 13.1034)
(-20.6309 32.5021 -0.197292 12.7311 -0.146585 2.59676)
(-10.1266 31.7362 -0.206242 -17.6558 0.236028 -8.29203)
(-3.90861 13.1353 -0.0546166 -40.199 0.612092 -18.0712)
(-31.1865 9.26974 -0.0516042 24.7488 -0.451658 8.79289)
(-22.9015 22.789 -0.227957 4.65694 -0.12247 -0.114942)
(-10.7131 23.0282 -0.236121 -9.92388 0.193101 -4.81545)
(-2.23438 9.98087 -0.0666749 -17.7429 0.535111 -8.71722)
(-41.736 6.48918 -0.143923 9.01914 -0.255115 -0.224649)
(-37.4905 13.9842 -0.387249 -4.79008 -0.0576298 -8.51555)
(-9.53089 12.5489 -0.424903 -2.38772 0.0924903 -0.155105)
(2.26366 5.0494 -0.203479 -4.41047 0.277251 -0.760209)
)
;

boundaryField
{
    interface
    {
        type            calculated;
        value           nonuniform List<symmTensor> 
192
(
(-23.3015 16.774 3.99795 444.804 45.9563 123.354)
(-24.0084 7.98663 3.34598 205.032 -13.6327 20.1606)
(-23.9373 10.4071 4.1247 203.755 -8.67614 40.8082)
(-24.1868 8.47727 4.12564 143.449 -12.1724 30.2602)
(-24.5727 6.29442 4.18085 97.6988 -11.0861 25.9832)
(-25.0257 3.7455 4.13872 58.9433 -9.51439 21.1477)
(-25.3305 1.48222 3.93276 35.7413 -7.46406 19.9921)
(-24.4095 -0.747511 3.46476 24.3969 -3.95239 21.8883)
(-25.8698 17.759 2.70849 437.364 28.2435 130.377)
(-26.8626 9.07444 2.52319 226.595 -4.99186 37.4606)
(-27.4552 10.3244 2.61116 201.122 -12.4082 39.1588)
(-28.2018 8.49294 2.53899 142.605 -15.4933 30.5465)
(-28.8492 6.14518 2.49077 94.4828 -15.2752 25.213)
(-29.2396 3.52363 2.44138 56.0112 -13.3287 21.2396)
(-28.9407 1.06105 2.32776 33.4079 -10.1727 20.9463)
(-26.1424 -1.36663 2.10335 24.0044 -5.42489 24.3878)
(-27.473 18.7415 1.65935 444.567 14.0614 141.148)
(-28.4545 9.10864 1.7433 223.687 -3.15912 50.1399)
(-29.1433 10.2728 1.74747 200.529 -9.16818 46.306)
(-29.9974 8.40164 1.63662 141.791 -12.0901 32.6543)
(-30.6636 5.99049 1.55154 93.2796 -12.4637 23.4359)
(-30.9193 3.30655 1.49704 54.9338 -11.2001 17.0453)
(-30.2018 0.755683 1.43569 33.0785 -8.7315 15.5586)
(-26.4666 -1.78974 1.37289 23.4612 -4.51833 17.7666)
(-28.6213 19.2152 1.00315 448.481 5.93014 148.139)
(-29.5577 9.07259 1.21166 221.722 -2.71082 60.3332)
(-30.2381 10.2285 1.22704 200.326 -6.44972 54.756)
(-31.0889 8.34864 1.14343 142.154 -8.51817 37.9606)
(-31.7215 5.92371 1.06636 93.8817 -9.02355 25.693)
(-31.8569 3.20878 1.01476 55.7834 -8.35949 16.9867)
(-30.864 0.607495 0.972251 34.3939 -6.76953 14.0372)
(-26.5697 -1.9834 0.95309 24.7572 -3.70217 15.3491)
(-29.4525 19.3855 0.603088 449.664 1.86541 151.767)
(-30.3543 9.02673 0.829972 220.64 -2.36778 66.6654)
(-31.0105 10.1798 0.856022 200.211 -4.51975 60.7558)
(-31.8355 8.30333 0.806609 142.54 -5.78099 42.4405)
(-32.4277 5.87843 0.751654 94.5963 -6.17739 28.3518)
(-32.4716 3.14631 0.710569 56.7122 -5.86443 18.0755)
(-31.2945 0.510885 0.678853 35.5973 -4.91752 14.0834)
(-26.6262 -2.10899 0.673307 25.9116 -2.77715 14.6843)
(-30.0347 19.4171 0.353019 449.589 0.139641 153.478)
(-30.9136 8.98369 0.540806 220.025 -1.86108 70.2991)
(-31.5484 10.1377 0.566827 200.192 -3.03405 64.5132)
(-32.3485 8.26764 0.541034 142.861 -3.73749 45.5371)
(-32.9072 5.84445 0.506556 95.1428 -3.98948 30.4988)
(-32.8869 3.10166 0.478033 57.4024 -3.85022 19.3399)
(-31.5881 0.44292 0.455437 36.4569 -3.314 14.7493)
(-26.6681 -2.18966 0.452487 26.8474 -1.92473 15.0222)
(-30.4071 19.4022 0.183851 449.157 -0.320135 154.199)
(-31.2747 8.951 0.303662 219.66 -1.18707 72.1964)
(-31.8938 10.1069 0.321377 200.198 -1.76172 66.6032)
(-32.6773 8.24252 0.309314 143.072 -2.1085 47.3691)
(-33.2132 5.82037 0.29076 95.4775 -2.24219 31.8824)
(-33.1524 3.07024 0.274262 57.8116 -2.18495 20.2837)
(-31.7783 0.396175 0.259479 36.9619 -1.91304 15.3928)
(-26.7014 -2.24028 0.254901 27.4352 -1.13549 15.5305)
(-30.5818 19.3849 0.0563595 448.847 -0.167128 154.45)
(-31.443 8.93244 0.0968303 219.489 -0.40728 72.9992)
(-32.0509 10.0897 0.102765 200.21 -0.579109 67.527)
(-32.8251 8.229 0.0991499 143.183 -0.682892 48.2106)
(-33.3497 5.80745 0.0933095 95.6405 -0.724362 32.5507)
(-33.2704 3.05235 0.0879349 58.0035 -0.709112 20.7756)
(-31.8516 0.368505 0.0822861 37.1994 -0.626673 15.7708)
(-26.6827 -2.26184 0.0790761 27.7296 -0.378384 15.878)
(37.9538 65.3917 -2.04559 278.344 2.82037 -12.0063)
(-75.4921 32.2998 -4.5597 108.34 -1.47849 -8.93239)
(-49.6423 43.0984 -5.74986 122.444 -1.40294 -6.16941)
(-50.5152 38.3006 -6.42063 82.5308 -1.11809 -4.30926)
(-45.1653 33.2145 -6.86528 54.4134 -0.807467 -3.3063)
(-42.988 25.6539 -7.19544 29.0905 -0.702009 -3.00444)
(-42.1932 17.4267 -7.57732 12.7995 -0.853049 -3.28615)
(-49.8791 10.4789 -8.46912 0.469702 -1.0989 -4.10942)
(-4.82806 46.9556 -1.59573 54.8613 -0.440231 -10.7781)
(-36.5337 69.5896 -3.14621 31.3788 -1.5772 -9.46146)
(-35.6093 73.7585 -3.82543 30.7469 -1.51678 -7.81375)
(-34.2009 68.5228 -4.20524 18.6962 -1.13401 -6.5736)
(-32.0084 59.5706 -4.44946 9.43514 -0.697172 -5.87398)
(-31.0338 47.843 -4.68332 1.35523 -0.405112 -5.64544)
(-31.5625 34.9118 -5.08312 -4.02893 -0.306276 -5.76911)
(-40.3084 20.1926 -6.222 -7.83014 -0.290012 -5.94057)
(-25.6134 39.8911 -1.54924 -88.2114 -0.0813405 -9.85695)
(5.7497 63.8137 -2.84769 -47.8911 -1.36978 -9.3798)
(2.31731 68.734 -3.38876 -48.2544 -1.42354 -8.3255)
(0.632418 64.5688 -3.57837 -37.8046 -1.11124 -7.43336)
(-2.03866 56.7831 -3.69914 -29.6521 -0.667482 -6.91891)
(-4.30361 46.3858 -3.86838 -22.0938 -0.304124 -6.75471)
(-6.44421 34.186 -4.24575 -15.9402 -0.089106 -6.8665)
(-5.13307 18.1995 -5.33625 -8.22627 0.0136664 -7.02386)
(-65.8851 39.5475 -1.72651 -277.709 3.64517 -8.74987)
(41.8988 18.9733 -3.01805 -117.18 -1.08459 -8.47825)
(16.1154 28.7988 -3.51245 -129.067 -1.31072 -7.59113)
(16.2636 26.8499 -3.73497 -91.45 -1.16196 -6.79752)
(10.6146 25.015 -3.83164 -64.6428 -0.743989 -6.32871)
(7.52118 21.1284 -3.97405 -40.0265 -0.342845 -6.14836)
(5.8689 15.6937 -4.32028 -22.3115 -0.0268843 -6.16908)
(9.69072 7.33041 -5.32263 -9.15335 0.255108 -6.37464)
(-6.0163 -12.3957 -1.3147 -392.118 -40.7997 -136.077)
(-4.66673 -5.89925 0.640815 -199.18 8.51878 -29.877)
(-3.65064 -7.70481 0.568347 -190.662 4.7029 -43.1351)
(-2.76441 -6.00529 0.895939 -133.166 8.97885 -28.0602)
(-2.09747 -4.29382 1.03053 -89.1365 9.06157 -21.5108)
(-1.47913 -2.47432 1.19118 -51.4292 8.52227 -15.9259)
(-0.506838 -1.29487 1.38107 -25.728 6.78208 -13.5976)
(1.85434 -1.70778 1.54415 -13.2686 2.68526 -14.3885)
(-6.83766 -13.1448 -1.275 -383.141 -28.0034 -142.841)
(-6.33823 -7.06856 -0.341363 -222.51 0.0293731 -49.3389)
(-5.9167 -7.74723 -0.00623631 -191.831 8.48323 -43.6961)
(-5.38231 -6.08989 0.288637 -136.004 12.9932 -31.2977)
(-4.8823 -4.17521 0.47408 -89.5279 14.2181 -24.0264)
(-4.27468 -2.26129 0.596484 -51.3645 13.4375 -19.0659)
(-3.28113 -0.920735 0.662094 -24.9682 10.7898 -16.7522)
(-0.595463 -1.2789 0.663327 -13.3222 5.48487 -17.8715)
(-7.32443 -13.8623 -0.841993 -389.627 -15.5734 -155.728)
(-6.98723 -7.22735 -0.38991 -222.174 -0.413026 -65.7649)
(-6.77124 -7.81475 -0.108202 -193.285 6.32185 -55.8232)
(-6.3626 -6.09173 0.171709 -137.296 10.4401 -38.9455)
(-5.86825 -4.06924 0.379667 -90.0936 12.066 -27.7003)
(-5.20952 -2.0668 0.512303 -51.4502 11.8137 -19.723)
(-4.1249 -0.639907 0.561875 -24.5702 9.84867 -15.015)
(-1.49463 -0.811857 0.450837 -11.876 5.01778 -13.1895)
(-7.661 -14.1297 -0.503275 -392.75 -8.08926 -163.592)
(-7.3532 -7.24732 -0.285301 -221.424 0.064337 -77.712)
(-7.2257 -7.80885 -0.0752409 -193.481 4.4628 -66.3015)
(-6.85878 -6.0396 0.149354 -137.727 7.47569 -46.3903)
(-6.34121 -3.95479 0.333645 -90.4026 8.96411 -31.8712)
(-5.60664 -1.89007 0.454716 -51.5281 9.08114 -21.0677)
(-4.40484 -0.405231 0.492118 -24.1695 7.82701 -13.954)
(-1.87838 -0.477847 0.372001 -11.1145 4.10537 -10.0578)
(-7.89179 -14.1503 -0.283663 -393.272 -3.96215 -167.606)
(-7.58819 -7.2154 -0.176223 -220.834 0.404173 -85.0934)
(-7.48676 -7.75756 -0.0216035 -193.214 3.1483 -73.3119)
(-7.13246 -5.95932 0.145097 -137.613 5.13997 -51.8518)
(-6.58351 -3.83761 0.2871 -90.32 6.25836 -35.2993)
(-5.7894 -1.73585 0.380123 -51.3259 6.48947 -22.4962)
(-4.52943 -0.214648 0.400156 -23.6639 5.72329 -13.6026)
(-2.05701 -0.233854 0.29476 -10.4548 3.04361 -8.25408)
(-8.03538 -14.079 -0.149283 -392.694 -1.79654 -169.48)
(-7.72871 -7.16559 -0.0942875 -220.326 0.488409 -89.3652)
(-7.63005 -7.69322 0.0136515 -192.838 2.12761 -77.5859)
(-7.26452 -5.87898 0.128543 -137.31 3.35506 -55.3755)
(-6.69257 -3.73619 0.226261 -90.0401 4.09501 -37.6889)
(-5.85937 -1.61514 0.288659 -50.9907 4.29894 -23.6715)
(-4.57273 -0.077571 0.296616 -23.1706 3.84313 -13.6531)
(-2.14198 -0.0728188 0.213963 -9.98577 2.06452 -7.49095)
(-8.11753 -13.9997 -0.0694861 -391.928 -0.719321 -170.275)
(-7.80928 -7.12099 -0.0425026 -219.932 0.371963 -91.6608)
(-7.70466 -7.63921 0.0216637 -192.514 1.2411 -79.9714)
(-7.32561 -5.81743 0.088447 -137.029 1.90323 -57.4208)
(-6.73607 -3.66387 0.144857 -89.7648 2.31734 -39.148)
(-5.8818 -1.53398 0.179812 -50.6893 2.44567 -24.4684)
(-4.58244 0.00920064 0.181794 -22.7947 2.20112 -13.8179)
(-2.18237 0.0241528 0.128463 -9.67607 1.18863 -7.24195)
(-8.1545 -13.9522 -0.0198888 -391.447 -0.185031 -170.553)
(-7.84432 -7.09573 -0.0116624 -219.714 0.136869 -92.6552)
(-7.73169 -7.60967 0.00960976 -192.328 0.408893 -81.0282)
(-7.34904 -5.78517 0.0313453 -136.869 0.617809 -58.3508)
(-6.75174 -3.62689 0.0496255 -89.6055 0.750525 -39.8321)
(-5.88792 -1.49352 0.0608065 -50.5195 0.793464 -24.8652)
(-4.582 0.0499698 0.0610285 -22.5954 0.715964 -13.9356)
(-2.20833 0.0690254 0.0421812 -9.53042 0.387512 -7.19903)
(-53.7391 11.3545 -2.80359 -4.7422 -1.56972 -4.17264)
(-48.8803 10.5407 -0.171111 -3.22922 -1.3809 -0.593792)
(-49.344 10.4995 -0.635437 -2.07142 -1.0148 -4.74471)
(-49.625 10.561 -0.9688 -1.17131 -0.73648 -6.47755)
(-50.2438 10.6607 -1.08421 -0.505729 -0.525571 -7.31029)
(-50.726 10.7475 -0.92126 -0.03497 -0.359658 -7.35917)
(-51.0525 10.8101 -0.60962 0.255989 -0.218661 -7.17324)
(-51.24 10.8393 -0.21402 0.337253 -0.0763113 -7.05294)
(-45.8704 8.45275 -4.67418 -5.77739 -0.193401 -11.3535)
(-41.704 7.27253 -3.32581 -4.97031 -0.202621 -10.734)
(-41.7611 7.0077 -3.14439 -4.14693 -0.0958961 -10.8092)
(-42.675 6.96676 -3.21275 -3.47568 -0.0178138 -10.5951)
(-43.648 6.98384 -2.9595 -2.9825 0.0162423 -10.4552)
(-44.3799 7.01039 -2.33857 -2.63549 0.023224 -10.2741)
(-44.8428 7.03521 -1.48305 -2.40946 0.0172625 -10.1131)
(-45.0491 7.05617 -0.507024 -2.28266 0.00628788 -10.0095)
(-4.39396 5.39084 -4.55188 -6.54823 0.382045 -5.31858)
(-6.63756 4.41287 -4.57635 -5.95642 0.318444 -6.68911)
(-8.22188 4.12441 -4.43153 -5.32337 0.309617 -4.6802)
(-9.70356 4.0407 -4.13976 -4.82018 0.281544 -2.97932)
(-10.8038 4.01591 -3.56367 -4.45659 0.231677 -1.92998)
(-11.5418 4.00941 -2.71171 -4.20453 0.17015 -1.4025)
(-11.9869 4.00866 -1.68576 -4.04355 0.104724 -1.17284)
(-12.1912 4.00849 -0.571202 -3.95505 0.0359301 -1.08842)
(11.2341 4.45574 -3.22188 -5.99701 0.71512 -7.45473)
(7.20009 3.58447 -2.93743 -5.50069 0.465996 -10.1885)
(5.99339 3.23215 -2.9018 -5.08843 0.369849 -5.55478)
(4.85276 3.09128 -2.55854 -4.74344 0.298784 -2.43369)
(4.13857 3.01627 -2.11403 -4.48978 0.230892 -0.587082)
(3.64204 2.97552 -1.56221 -4.31571 0.162809 0.207524)
(3.33832 2.95304 -0.956534 -4.20537 0.0963201 0.474728)
(3.18848 2.9406 -0.322435 -4.15526 0.0318016 0.529071)
)
;
    }
    symmetry
    {
        type            symmetryPlane;
    }
    bottom
    {
        type            calculated;
        value           nonuniform List<symmTensor> 
32
(
(209.642 83.9459 3.84068 318.042 93.9109 210.505)
(205.63 93.4981 2.12727 310.45 46.5606 202.418)
(211.458 97.9702 1.07761 319.077 22.5908 207.033)
(214.751 99.4418 0.498022 324.101 10.3074 209.998)
(216.111 99.7394 0.204553 326.225 4.22463 211.29)
(216.562 99.6564 0.0689373 326.959 1.42538 211.744)
(216.645 99.5089 0.0157348 327.114 0.325843 211.84)
(216.631 99.4136 0.00145501 327.106 0.0301598 211.835)
(39.6239 34.3621 0.496899 58.7821 26.5306 39.364)
(41.1053 44.7707 0.334779 60.3475 13.7287 40.1162)
(43.7003 46.3257 0.162995 64.1706 6.47102 42.5562)
(44.8703 45.8212 0.066567 65.9868 2.67407 43.7335)
(45.4281 44.9954 0.0207295 66.8967 0.848362 44.329)
(45.7109 44.3025 0.00218049 67.3778 0.0906532 44.6453)
(45.8545 43.8413 -0.0027452 67.6298 -0.115345 44.8111)
(45.9156 43.6149 -0.00150075 67.7391 -0.0633875 44.883)
(-58.3227 29.2387 -0.504092 -87.4966 -29.5314 -58.3127)
(-52.8701 39.3697 -0.39402 -80.0405 -17.2048 -53.5995)
(-53.65 40.3685 -0.236342 -81.2626 -10.0586 -54.5397)
(-54.1422 39.4736 -0.133864 -81.9294 -5.82453 -55.0296)
(-54.2784 38.4002 -0.0738265 -82.0595 -3.30184 -55.1307)
(-54.2284 37.5519 -0.0392594 -81.9307 -1.79563 -55.0476)
(-54.1272 36.998 -0.0188795 -81.7459 -0.876513 -54.9237)
(-54.0576 36.7283 -0.00557906 -81.626 -0.260934 -54.8428)
(-215.063 59.0854 -3.32591 -315.928 -85.8198 -212.522)
(-205.048 66.5874 -2.00637 -302.764 -46.2725 -206.541)
(-210.59 68.6241 -1.10595 -310.9 -24.6442 -213.272)
(-213.468 68.6217 -0.577234 -314.983 -12.8355 -216.446)
(-214.339 68.0564 -0.287991 -316.149 -6.4531 -217.349)
(-214.317 67.4628 -0.135901 -316.047 -3.07215 -217.295)
(-214.039 67.023 -0.0578147 -315.602 -1.31584 -216.983)
(-213.833 66.7951 -0.0157006 -315.283 -0.358621 -216.757)
)
;
    }
}


// ************************************************************************* //
