/*--------------------------------*- C++ -*----------------------------------*\
| =========                 |                                                 |
| \\      /  F ield         | foam-extend: Open Source CFD                    |
|  \\    /   O peration     | Version:     3.1                                |
|   \\  /    A nd           | Web:         http://www.extend-project.de       |
|    \\/     M anipulation  |                                                 |
\*---------------------------------------------------------------------------*/
FoamFile
{
    version     2.0;
    format      ascii;
    class       volSymmTensorField;
    location    "2.4";
    object      sigma;
}
// * * * * * * * * * * * * * * * * * * * * * * * * * * * * * * * * * * * * * //

dimensions      [1 -1 -2 0 0 0 0];

internalField   nonuniform List<symmTensor> 
256
(
(177.936 62.9247 -2.80857 403.07 32.3349 205.655)
(23.0343 53.9928 -8.2906 80.9055 11.4588 31.5085)
(-56.0828 50.3645 -8.46039 -111.995 -15.5 -56.0919)
(-201.959 53.0784 -3.46839 -414.521 -38.4067 -218.525)
(-78.226 26.3373 -3.31736 117.424 -10.4068 -24.3947)
(-34.0064 68.8949 -13.1114 42.6509 -4.58211 -11.4268)
(-3.00908 67.497 -13.5353 -53.9145 2.51032 -4.81634)
(39.1302 25.5179 -4.83708 -130.616 7.49335 8.0407)
(-29.6948 31.8326 -1.44774 144.16 -5.60207 22.8451)
(-34.8929 66.2132 -9.01649 38.3665 -2.26416 -6.48093)
(-8.42989 66.2835 -9.32287 -48.1604 0.360124 -9.71563)
(-7.80342 32.2429 -2.98776 -149.952 3.46819 -32.603)
(-40.8556 27.6015 -1.45685 95.6078 -7.9415 8.68145)
(-35.6253 59.9459 -7.42532 25.632 -2.72593 -7.67997)
(-7.9699 60.3856 -7.62825 -34.1005 1.24669 -6.25675)
(3.28787 28.537 -3.08242 -99.0718 6.41215 -15.5651)
(-37.2666 23.7201 -1.08792 65.0511 -7.21562 8.44606)
(-33.3178 51.2075 -5.94287 15.9428 -2.3314 -6.45042)
(-9.22828 51.8841 -6.09934 -24.3394 1.20899 -5.97369)
(0.488919 25.0307 -2.69014 -67.4103 6.23593 -13.4665)
(-37.3176 18.1594 -1.1405 36.6038 -6.27096 5.27411)
(-31.7514 40.7198 -5.12448 6.95135 -2.03218 -6.21184)
(-9.61494 41.7096 -5.15857 -16.29 1.07574 -5.60635)
(1.00687 20.1084 -2.54676 -39.0843 5.7169 -9.84835)
(-36.1785 11.689 -1.61199 19.0967 -5.16065 5.3365)
(-31.4565 29.334 -4.85915 0.0623142 -1.96535 -6.14627)
(-9.90615 30.35 -4.68889 -10.653 0.675761 -5.86848)
(1.72973 14.4122 -2.58144 -19.7442 4.48251 -8.57674)
(-45.9372 6.41062 -2.20784 4.06785 -2.77666 0.574479)
(-42.8585 16.4186 -4.68954 -8.98956 -1.21808 -12.1219)
(-4.56072 16.1052 -4.57334 -2.7342 -0.0110678 -2.74438)
(7.86838 7.00904 -3.01138 -6.85052 1.66117 -6.56936)
(178.889 71.0995 -1.78507 398.649 19.9008 213.343)
(28.0383 64.3676 -6.65389 82.9095 6.52726 37.6297)
(-51.7033 61.2604 -7.23283 -101.32 -10.9778 -53.6571)
(-194.94 61.8094 -3.16542 -398.096 -26.1368 -217.608)
(-45.6106 26.9187 -2.60419 160.367 -3.96545 14.4486)
(-11.5613 70.8238 -12.2593 67.2312 -2.45993 10.4331)
(-22.8168 70.0433 -13.4942 -78.2669 -0.724387 -25.998)
(6.10008 27.0717 -5.55078 -175.262 0.0364622 -30.6148)
(-24.066 27.9156 -1.15559 148.689 -8.83764 27.344)
(-23.7574 60.6782 -9.71954 46.2769 -3.55322 0.861934)
(-14.0829 60.8914 -11.0281 -53.8712 1.57337 -14.7899)
(-11.2004 28.3518 -4.51545 -153.646 6.53324 -35.2476)
(-30.602 22.991 -0.102699 103.871 -10.847 17.3445)
(-23.8821 52.128 -6.9639 33.6424 -3.79313 -0.187599)
(-13.3282 52.5403 -8.29714 -38.9411 2.67923 -11.4564)
(-4.249 23.8018 -3.71644 -105.655 9.70983 -22.3194)
(-29.851 18.7494 0.843999 69.2582 -10.7034 14.001)
(-23.4331 42.927 -4.7795 21.7583 -3.52786 -0.994361)
(-12.2965 43.5029 -6.09582 -26.1667 3.01394 -8.97011)
(-4.0287 19.8951 -2.79549 -69.2891 10.4533 -17.0851)
(-30.1245 13.7521 1.27991 40.4194 -9.37801 10.914)
(-22.891 33.353 -3.35742 11.868 -3.04878 -1.56906)
(-11.5857 34.2087 -4.53636 -16.5881 2.75346 -7.5374)
(-3.0678 15.5701 -2.11644 -39.759 9.69491 -13.1865)
(-29.8623 8.14285 1.15438 21.9793 -7.27459 10.3095)
(-24.2629 23.6649 -2.76377 3.42458 -2.5535 -2.90633)
(-10.9647 24.6118 -3.72435 -9.79739 1.942 -6.75607)
(-1.21106 10.9874 -1.72651 -18.7389 7.60264 -10.7412)
(-39.3884 4.70966 0.532372 7.66358 -3.89824 5.6925)
(-36.748 13.5777 -2.94313 -6.18191 -1.50359 -9.82168)
(-6.76291 13.2084 -4.05473 -3.06717 0.713144 -4.44056)
(3.51985 5.4491 -2.32656 -7.63518 3.70008 -9.90399)
(185.114 74.4088 -1.20793 408.092 9.83512 227.134)
(30.4651 66.8922 -4.26226 86.5089 2.75328 43.1148)
(-52.2821 63.5961 -4.74272 -101.396 -6.79496 -56.7782)
(-201.12 64.4022 -2.22028 -405.852 -14.8835 -230.899)
(-46.114 27.354 -2.13478 161.374 -2.62105 26.8882)
(-9.86027 71.8318 -8.34758 70.8113 -1.91101 17.7339)
(-24.4118 71.0922 -9.38768 -80.1571 -1.09565 -32.1905)
(4.07788 27.4916 -4.31979 -177.275 -0.613233 -45.3677)
(-24.6051 27.4476 -1.42926 150.501 -6.7689 35.2549)
(-23.0061 60.0876 -7.29454 48.929 -2.93585 5.74554)
(-14.9955 60.2971 -8.42036 -55.3855 1.10588 -18.8873)
(-13.2603 27.7009 -3.87832 -156.627 4.87191 -46.1471)
(-31.3559 22.1034 -0.576614 104.689 -8.78013 21.0785)
(-23.1487 50.1121 -5.41809 35.5791 -3.24459 3.16445)
(-14.132 50.5148 -6.55422 -39.5869 2.39718 -13.8363)
(-6.49633 22.8201 -3.11822 -107.906 8.01731 -29.4471)
(-31.3689 17.5102 0.196894 69.0201 -9.01849 14.2319)
(-22.7444 40.3666 -3.61465 23.3688 -3.0638 1.32208)
(-12.9709 40.979 -4.7166 -26.26 2.94068 -10.0587)
(-5.56422 18.7048 -2.29178 -70.2752 9.1636 -20.5955)
(-31.8732 12.4392 0.653409 39.7596 -8.09244 8.97561)
(-22.2091 30.802 -2.35734 13.2221 -2.63172 0.0293126)
(-12.1353 31.7841 -3.34256 -16.2115 2.85636 -7.59968)
(-4.23287 14.5213 -1.61728 -39.906 8.82885 -14.0634)
(-31.3146 6.87016 0.660511 21.538 -6.31177 7.23)
(-23.6224 21.5967 -1.88097 4.54206 -2.09113 -1.89885)
(-11.5213 22.7647 -2.72826 -9.16384 2.15727 -6.03159)
(-2.13862 10.2585 -1.27951 -18.2387 7.15901 -9.53734)
(-41.4483 4.05948 0.0542563 6.24176 -3.19246 0.648309)
(-36.5531 12.5232 -2.464 -5.427 -1.08409 -9.59811)
(-7.77159 12.2791 -3.54271 -2.31763 0.82654 -2.83872)
(3.43682 5.15983 -2.08683 -5.67652 3.43224 -5.59804)
(188.281 75.5349 -0.684956 413.263 4.15845 235.346)
(31.2671 67.2324 -2.54583 88.2127 0.784289 46.0323)
(-52.8307 63.696 -2.86687 -101.65 -4.1026 -58.8756)
(-204.17 64.9132 -1.38407 -409.647 -8.02222 -238.657)
(-47.0546 27.4416 -1.32091 161.145 -2.17634 35.5304)
(-10.2313 72.2514 -5.25464 71.8711 -1.54067 21.596)
(-24.856 71.4652 -5.96492 -79.9702 -0.937679 -35.6152)
(3.5989 27.5508 -2.8582 -176.918 -0.320017 -54.9928)
(-25.1652 27.5408 -1.05189 151.461 -4.82107 42.6731)
(-23.8945 60.3044 -4.98464 49.7983 -2.17558 8.67195)
(-15.3647 60.5123 -5.75936 -55.2732 0.703009 -21.6318)
(-13.9063 27.7499 -2.76291 -157.024 3.40786 -54.4992)
(-32.0069 22.0291 -0.549572 105.721 -6.28071 25.9791)
(-24.0275 49.9541 -3.91023 36.3704 -2.38102 5.24202)
(-14.6217 50.3797 -4.67147 -39.4314 1.79288 -15.6829)
(-7.15986 22.7687 -2.27847 -108.352 5.81323 -35.3252)
(-31.992 17.2813 -0.0244678 70.0742 -6.61517 16.7975)
(-23.5269 39.9225 -2.70269 24.1533 -2.26058 2.69169)
(-13.528 40.6059 -3.41944 -26.0339 2.343 -10.9981)
(-6.21086 18.6043 -1.67348 -70.5677 6.92248 -23.9215)
(-32.3952 12.0881 0.314323 40.8637 -6.10295 9.75174)
(-22.8634 30.2171 -1.8198 13.9969 -1.96021 0.877961)
(-12.6864 31.3391 -2.44571 -15.8683 2.37791 -7.70364)
(-4.85791 14.4431 -1.15953 -39.9789 6.90486 -15.203)
(-31.4702 6.43605 0.310682 22.9273 -4.90883 6.91998)
(-24.1742 21.0523 -1.58587 5.29241 -1.56555 -1.41093)
(-12.143 22.4057 -2.1285 -8.72651 1.86089 -5.40846)
(-2.78723 10.2426 -0.944659 -17.9834 5.767 -8.82819)
(-41.5492 3.83821 -0.307753 7.45893 -2.60555 -0.571041)
(-37.223 12.2119 -2.41472 -4.65667 -0.833584 -9.27453)
(-8.93251 12.0388 -3.16141 -1.95835 0.739986 -1.58999)
(2.65841 5.16408 -1.76283 -5.11292 2.83025 -3.13892)
(189.376 75.7686 -0.346977 415.267 1.32676 239.406)
(31.5404 66.8895 -1.44177 89.0509 -0.0911294 47.5686)
(-53.075 63.1713 -1.64307 -101.512 -2.42375 -60.0027)
(-205.035 64.6954 -0.808923 -410.299 -4.13315 -242.257)
(-47.9029 27.3552 -0.719314 160.845 -1.83122 40.6859)
(-10.6886 72.2315 -3.12333 72.4056 -1.20673 23.7881)
(-25.1703 71.4085 -3.58029 -79.4711 -0.688422 -37.6841)
(3.29883 27.469 -1.75232 -176.327 -0.0247724 -60.8902)
(-25.9234 27.6072 -0.647999 151.783 -3.37109 47.543)
(-24.6693 60.501 -3.18061 50.2862 -1.53644 10.5005)
(-15.6968 60.7251 -3.68398 -54.8171 0.442981 -23.475)
(-14.1309 27.8325 -1.79201 -156.63 2.36699 -59.932)
(-32.7805 22.1161 -0.385404 106.287 -4.27813 29.6304)
(-24.801 50.1857 -2.62787 36.9151 -1.63149 6.64988)
(-15.023 50.6481 -3.11076 -39.0367 1.24938 -17.0523)
(-7.42022 22.9196 -1.51657 -108.109 4.00995 -39.4966)
(-32.6819 17.3291 -0.0738887 70.8394 -4.54781 19.0864)
(-24.2264 40.0901 -1.90561 24.7555 -1.54533 3.68691)
(-13.9588 40.8402 -2.34753 -25.6696 1.69912 -11.7821)
(-6.50377 18.7825 -1.12886 -70.3968 4.8737 -26.5302)
(-32.9674 12.0576 0.129691 41.7554 -4.29378 10.8731)
(-23.4525 30.2896 -1.37112 14.6357 -1.35856 1.56363)
(-13.1152 31.517 -1.74663 -15.5046 1.77004 -7.8968)
(-5.1572 14.63 -0.79689 -39.7634 4.9767 -16.289)
(-31.7895 6.3161 0.080522 24.0086 -3.56223 7.2947)
(-24.704 21.053 -1.3333 5.91236 -1.11041 -0.941365)
(-12.6364 22.5254 -1.6563 -8.36073 1.40698 -5.06611)
(-3.09516 10.4199 -0.702651 -17.5884 4.24011 -8.54361)
(-42.0314 3.778 -0.501354 8.25221 -1.94311 -1.0197)
(-38.0033 12.1959 -2.20056 -4.15522 -0.604413 -9.04288)
(-9.79002 12.0401 -2.67308 -1.64952 0.557288 -0.805889)
(2.26131 5.24453 -1.43424 -4.57171 2.09766 -1.64463)
(189.587 75.6883 -0.152254 415.793 0.120159 241.264)
(31.6189 66.4283 -0.768255 89.4799 -0.361263 48.3613)
(-53.1131 62.5851 -0.88833 -101.171 -1.37353 -60.5331)
(-204.96 64.307 -0.443069 -409.636 -2.00724 -243.688)
(-48.4445 27.2109 -0.340357 160.672 -1.40504 43.644)
(-11.0302 72.0238 -1.74031 72.7406 -0.872135 24.9971)
(-25.3752 71.1775 -2.01943 -78.9562 -0.453567 -38.8947)
(3.04386 27.346 -0.999672 -175.784 0.121385 -64.3573)
(-26.4803 27.6081 -0.341051 151.967 -2.24746 50.5287)
(-25.1962 60.5645 -1.8839 50.6284 -1.02089 11.585)
(-15.9527 60.8078 -2.19429 -54.3504 0.273979 -24.6504)
(-14.2473 27.8678 -1.06929 -156.118 1.5776 -63.252)
(-33.3464 22.1869 -0.216719 106.66 -2.76005 32.0656)
(-25.3319 50.3947 -1.62806 37.3132 -1.04819 7.53904)
(-15.3032 50.8906 -1.92028 -38.6181 0.814125 -17.975)
(-7.54568 23.0562 -0.925834 -107.699 2.61348 -42.1921)
(-33.188 17.4089 -0.0497065 71.3693 -2.93481 20.8077)
(-24.7069 40.3321 -1.23536 25.2041 -0.986424 4.36582)
(-14.2404 41.1336 -1.4967 -25.2925 1.13116 -12.3493)
(-6.63961 18.9679 -0.700696 -70.057 3.19837 -28.3367)
(-33.382 12.0971 0.0547328 42.3873 -2.81591 11.9442)
(-23.8597 30.4885 -0.951113 15.108 -0.878306 2.0807)
(-13.3881 31.7897 -1.16781 -15.1598 1.19391 -8.08042)
(-5.30478 14.8266 -0.510369 -39.4402 3.30765 -17.1655)
(-32.0403 6.2848 -0.0136622 24.7598 -2.39289 7.93865)
(-25.0851 21.1742 -1.01413 6.35554 -0.735037 -0.545747)
(-12.9569 22.7242 -1.19849 -8.05507 0.953565 -4.90121)
(-3.2507 10.5931 -0.489683 -17.194 2.85005 -8.54653)
(-42.339 3.7529 -0.47598 8.9174 -1.33931 -0.78373)
(-38.5786 12.2411 -1.73909 -3.79297 -0.411066 -8.79461)
(-10.3593 12.0891 -2.02413 -1.41463 0.374049 -0.402828)
(1.96735 5.31188 -1.05536 -4.22266 1.4185 -1.01661)
(189.499 75.5513 -0.0557752 415.767 -0.208581 242.03)
(31.6318 66.0624 -0.364686 89.6997 -0.314993 48.7523)
(-53.0703 62.1416 -0.428171 -100.836 -0.694824 -60.7505)
(-204.634 63.9781 -0.215577 -408.744 -0.87359 -244.137)
(-48.7674 27.0836 -0.136705 160.568 -0.884778 45.2044)
(-11.2459 71.8064 -0.857793 72.9507 -0.528571 25.6232)
(-25.4892 70.947 -1.00801 -78.5521 -0.253673 -39.5531)
(2.86747 27.2403 -0.502238 -175.367 0.130643 -66.2501)
(-26.8386 27.58 -0.152532 152.075 -1.29699 52.1818)
(-25.5115 60.5507 -0.974443 50.8617 -0.585449 12.1795)
(-16.1172 60.8091 -1.14268 -53.9943 0.151079 -25.3368)
(-14.311 27.8706 -0.555465 -155.703 0.911718 -65.1194)
(-33.7108 22.2208 -0.101108 106.889 -1.55174 33.4909)
(-25.6506 50.5129 -0.871918 37.5826 -0.585477 8.05142)
(-15.4736 51.0326 -1.02835 -38.2937 0.458762 -18.533)
(-7.60975 23.1398 -0.489693 -107.351 1.47844 -43.7687)
(-33.5196 17.4621 -0.0230536 71.6849 -1.64561 21.8905)
(-24.9948 40.5013 -0.685663 25.5022 -0.547503 4.78288)
(-14.403 41.3367 -0.82344 -24.9988 0.643821 -12.7067)
(-6.70074 19.0929 -0.376363 -69.7497 1.81041 -29.4429)
(-33.6585 12.1315 0.0215581 42.7572 -1.59455 12.7014)
(-24.104 30.6435 -0.556844 15.4139 -0.492134 2.42391)
(-13.5411 31.9908 -0.669097 -14.8982 0.683296 -8.21285)
(-5.37102 14.9619 -0.282764 -39.1551 1.88293 -17.7561)
(-32.2255 6.27451 -0.0354252 25.1927 -1.37711 8.47809)
(-25.318 21.275 -0.632706 6.63536 -0.419365 -0.261223)
(-13.1397 22.8713 -0.727321 -7.83607 0.545895 -4.83247)
(-3.31809 10.7094 -0.290679 -16.8867 1.63118 -8.64035)
(-42.5562 3.74171 -0.331383 9.32134 -0.786851 -0.444391)
(-38.9445 12.2828 -1.10514 -3.56945 -0.239189 -8.59904)
(-10.6948 12.1281 -1.25766 -1.25208 0.21256 -0.220057)
(1.79558 5.35276 -0.646103 -3.99176 0.814116 -0.804168)
(189.399 75.4636 -0.0131381 415.658 -0.111605 242.289)
(31.6293 65.868 -0.106437 89.7939 -0.119499 48.912)
(-53.0294 61.91 -0.126228 -100.638 -0.211343 -60.8217)
(-204.4 63.7986 -0.0638757 -408.183 -0.24043 -244.23)
(-48.9175 27.012 -0.035037 160.516 -0.301962 45.8679)
(-11.3492 71.6771 -0.256123 73.0535 -0.177157 25.8869)
(-25.5381 70.812 -0.303389 -78.3325 -0.0812297 -39.8406)
(2.77924 27.1815 -0.151571 -175.139 0.0532484 -67.08)
(-27.0112 27.5568 -0.0425162 152.126 -0.424967 52.9076)
(-25.6581 60.5255 -0.299158 50.9813 -0.19105 12.4394)
(-16.1959 60.7919 -0.352276 -53.8042 0.0484803 -25.6515)
(-14.3391 27.865 -0.17077 -155.476 0.299029 -65.9542)
(-33.8862 22.2317 -0.0290694 106.998 -0.501488 34.1384)
(-25.7989 50.5607 -0.273018 37.7191 -0.188421 8.28284)
(-15.553 51.0924 -0.322098 -38.1201 0.148188 -18.7941)
(-7.63707 23.1767 -0.152177 -107.159 0.479029 -44.4905)
(-33.6809 17.4858 -0.00670903 71.8308 -0.530791 22.4035)
(-25.1285 40.5815 -0.219103 25.6502 -0.175573 4.97921)
(-14.4764 41.4333 -0.262 -24.8412 0.208743 -12.8775)
(-6.72395 19.1525 -0.118145 -69.576 0.586115 -29.9628)
(-33.7938 12.1478 0.00497862 42.9247 -0.516799 13.0836)
(-24.2174 30.7206 -0.183331 15.5626 -0.15864 2.5932)
(-13.6086 32.0897 -0.217931 -14.7588 0.221948 -8.28047)
(-5.39574 15.0273 -0.0905176 -38.9948 0.61079 -18.0493)
(-32.319 6.26974 -0.0171281 25.3853 -0.450361 8.77256)
(-25.4267 21.326 -0.215208 6.76891 -0.136553 -0.114662)
(-13.2211 22.9431 -0.244163 -7.72214 0.177235 -4.80933)
(-3.34316 10.7645 -0.0967285 -16.7228 0.530185 -8.7133)
(-42.6577 3.73804 -0.119198 9.50942 -0.261697 -0.223871)
(-39.1171 12.306 -0.378506 -3.46235 -0.0789318 -8.49203)
(-10.8506 12.1464 -0.426386 -1.16954 0.0689587 -0.154746)
(1.71255 5.37001 -0.21796 -3.88013 0.264973 -0.75999)
)
;

boundaryField
{
    interface
    {
        type            calculated;
        value           nonuniform List<symmTensor> 
192
(
(-25.3335 -0.0240777 2.24937 417.667 39.9416 124.165)
(-24.9483 0.0256454 3.79819 198.073 -12.6646 20.3496)
(-25.1259 -0.0314163 4.51489 197.482 -7.66432 41.1319)
(-25.1489 -0.215581 4.84712 140.416 -11.1752 30.3058)
(-25.295 -0.566554 4.96765 96.3828 -10.3403 25.9095)
(-25.4599 -1.13118 4.9095 58.4795 -8.9952 21.0124)
(-25.509 -2.09166 4.63651 35.4763 -7.08676 19.8362)
(-24.3309 -3.60853 4.0041 24.0365 -3.67364 21.7319)
(-28.1566 0.124409 1.55194 411.295 24.8115 131.685)
(-28.0366 0.217695 2.64237 218.442 -4.54924 37.8925)
(-28.7348 0.167014 3.13527 194.877 -11.5572 39.4501)
(-29.2683 -0.0877882 3.35362 139.497 -14.6772 30.5957)
(-29.651 -0.552533 3.40985 93.1558 -14.6533 25.1374)
(-29.7379 -1.28541 3.32782 55.5196 -12.9026 21.1108)
(-29.152 -2.50383 3.08703 33.0942 -9.8751 20.8024)
(-26.0493 -4.27361 2.63404 23.5695 -5.21447 24.237)
(-29.9855 0.157551 1.07817 417.987 12.3381 142.641)
(-29.7152 0.264753 1.83485 215.972 -2.8946 50.5861)
(-30.488 0.216427 2.15243 194.414 -8.58605 46.6226)
(-31.1044 -0.0705091 2.27335 138.711 -11.5136 32.745)
(-31.4823 -0.600662 2.28736 91.938 -12.0165 23.4083)
(-31.4159 -1.43481 2.21345 54.4052 -10.8939 16.9718)
(-30.3934 -2.79171 2.0472 32.7116 -8.51788 15.4755)
(-26.3268 -4.64562 1.77427 22.9706 -4.3697 17.6836)
(-31.278 0.156557 0.769718 421.644 5.20067 149.622)
(-30.884 0.262744 1.31561 214.326 -2.50178 60.7425)
(-31.641 0.211058 1.53571 194.356 -6.04331 55.0612)
(-32.2364 -0.0951206 1.60838 139.111 -8.11586 38.0665)
(-32.5645 -0.664943 1.60756 92.528 -8.70578 25.6903)
(-32.3626 -1.56125 1.55039 55.2237 -8.13836 16.9409)
(-31.0512 -2.99874 1.44014 33.9858 -6.61251 13.9817)
(-26.4111 -4.8882 1.26815 24.2261 -3.59165 15.292)
(-32.1944 0.148997 0.543982 422.784 1.63892 153.203)
(-31.726 0.248275 0.935478 213.425 -2.19395 67.031)
(-32.4556 0.18977 1.09126 194.34 -4.23301 61.0331)
(-33.0146 -0.129955 1.13854 139.526 -5.50398 42.5414)
(-33.2917 -0.724866 1.13439 93.2348 -5.95648 28.3563)
(-32.9878 -1.66016 1.09399 56.131 -5.70768 18.0416)
(-31.4823 -3.14859 1.02238 35.1613 -4.80371 14.04)
(-26.4582 -5.05768 0.910444 25.3535 -2.69625 14.6376)
(-32.8255 0.14197 0.363951 422.757 0.126894 154.875)
(-32.315 0.233678 0.629194 212.91 -1.72778 70.6321)
(-33.0218 0.167976 0.734759 194.377 -2.84007 64.7655)
(-33.55 -0.16152 0.765679 139.864 -3.55534 45.6278)
(-33.787 -0.772469 0.762149 93.7757 -3.84376 30.5024)
(-33.412 -1.73233 0.735906 56.8074 -3.74516 19.3095)
(-31.7784 -3.25367 0.691067 36.0032 -3.23625 14.7101)
(-26.4967 -5.17478 0.619397 26.2718 -1.86883 14.9781)
(-33.2247 0.137446 0.208238 422.388 -0.277291 155.571)
(-32.6938 0.223291 0.361489 212.598 -1.10313 72.5099)
(-33.3845 0.151812 0.42253 194.411 -1.64863 66.8393)
(-33.8927 -0.184221 0.440137 140.083 -2.00462 47.4515)
(-34.1032 -0.804906 0.438079 94.1068 -2.15912 31.8834)
(-33.6835 -1.77975 0.423458 57.2085 -2.1245 20.2536)
(-31.9707 -3.32149 0.397594 36.4978 -1.86782 15.3546)
(-26.5291 -5.24777 0.354766 26.8494 -1.10287 15.4863)
(-33.4106 0.134603 0.0671188 422.118 -0.145321 155.811)
(-32.8699 0.217124 0.116835 212.45 -0.378672 73.304)
(-33.5492 0.142743 0.13656 194.434 -0.541918 67.7554)
(-34.0467 -0.196126 0.142182 140.196 -0.649137 48.2888)
(-34.2442 -0.821231 0.141521 94.2679 -0.697409 32.5499)
(-33.8042 -1.80438 0.136851 57.3965 -0.689432 20.7451)
(-32.0444 -3.35775 0.127893 36.7303 -0.611916 15.7326)
(-26.5101 -5.27841 0.112525 27.1396 -0.3678 15.8333)
(35.1186 57.1672 -2.77896 267.548 -0.627583 -12.437)
(-79.447 26.0948 -4.80978 107.023 -0.979114 -9.02451)
(-54.4463 35.239 -5.79339 121.976 -1.02867 -6.26163)
(-55.2098 31.4373 -6.33926 83.913 -0.949523 -4.34915)
(-49.3794 27.6808 -6.69416 56.5876 -0.919 -3.30265)
(-46.3352 21.5549 -6.96545 31.2643 -1.02144 -2.96276)
(-44.5461 14.2998 -7.30658 14.4299 -1.27751 -3.21361)
(-51.5117 7.63921 -8.13514 1.46934 -1.59411 -4.00208)
(-6.65776 45.6968 -1.78537 54.8528 -0.506758 -10.8635)
(-42.0004 67.6258 -3.27462 33.5478 -0.922702 -9.53113)
(-42.9215 71.0734 -3.89377 34.4437 -1.06051 -7.87299)
(-41.8975 66.0055 -4.1838 23.3864 -0.940945 -6.6078)
(-39.1257 57.4019 -4.36991 14.3043 -0.763566 -5.88036)
(-36.8754 46.088 -4.56602 5.71451 -0.651933 -5.62543)
(-35.8214 33.4194 -4.9361 -0.642275 -0.65073 -5.72505)
(-42.836 18.4794 -6.03454 -5.82393 -0.688391 -5.86538)
(-26.9633 41.501 -1.37842 -88.755 -0.353114 -9.77798)
(1.01522 65.663 -2.72367 -45.8646 -0.781248 -9.4035)
(-4.31254 71.0101 -3.3125 -44.6843 -0.987839 -8.34282)
(-6.50925 66.463 -3.56931 -33.2416 -0.900467 -7.44423)
(-8.75229 58.1854 -3.7137 -24.8851 -0.693668 -6.91628)
(-9.901 47.2624 -3.8816 -17.7805 -0.503815 -6.73825)
(-10.5269 34.6136 -4.24417 -12.5674 -0.389497 -6.83552)
(-7.23993 18.2901 -5.33809 -6.36466 -0.334143 -6.97904)
(-66.774 46.4119 -1.28599 -289.559 -0.322384 -8.41228)
(39.6014 24.2954 -2.71049 -118.874 -0.78358 -8.45146)
(12.9071 35.49 -3.38981 -129.833 -1.01509 -7.53782)
(12.9337 32.4124 -3.69972 -90.3771 -0.943359 -6.76514)
(7.42004 29.15 -3.8593 -62.7071 -0.724708 -6.2988)
(4.81861 23.7529 -4.02861 -37.9442 -0.496024 -6.1182)
(3.88535 17.203 -4.38239 -20.6208 -0.288443 -6.134)
(8.71119 8.31591 -5.40979 -8.31937 -0.0705198 -6.33251)
(-5.31703 0.331964 0.224615 -417.555 -47.6255 -134.701)
(-4.39053 0.673186 0.429953 -206.274 8.95094 -29.4203)
(-3.26195 0.831973 0.460541 -196.997 5.22926 -42.612)
(-2.45427 0.764511 0.453483 -136.327 9.58822 -27.8826)
(-1.86901 0.601066 0.503362 -90.5781 9.48338 -21.4707)
(-1.34794 0.436386 0.657152 -51.9233 8.76573 -15.9523)
(-0.431854 0.191378 0.931307 -25.8687 6.91774 -13.6389)
(2.00647 -0.829642 1.30233 -13.4283 2.78713 -14.4295)
(-6.03984 0.158694 -0.167765 -407.105 -32.2543 -140.875)
(-5.9427 0.369673 -0.258275 -231.008 -0.0139492 -48.5817)
(-5.46525 0.498142 -0.320274 -198.225 8.93272 -43.1636)
(-5.01831 0.49634 -0.35176 -139.284 13.4934 -31.091)
(-4.62969 0.446665 -0.314063 -90.9893 14.578 -23.9839)
(-4.14379 0.417118 -0.190927 -51.8655 13.6403 -19.0944)
(-3.23441 0.340356 0.0069883 -25.0933 10.8897 -16.7946)
(-0.488536 -0.540284 0.280784 -13.447 5.5491 -17.9101)
(-6.44812 0.0822367 -0.221507 -413.988 -18.0047 -153.395)
(-6.55409 0.216878 -0.33281 -230.242 -0.508984 -64.9475)
(-6.28823 0.329863 -0.358704 -199.515 6.61206 -55.2232)
(-5.97878 0.386537 -0.347253 -140.516 10.798 -38.6765)
(-5.61292 0.432476 -0.283539 -91.5246 12.3391 -27.6139)
(-5.09089 0.504685 -0.165847 -51.9322 11.9731 -19.7209)
(-4.10342 0.520554 -0.0145769 -24.6733 9.92772 -15.035)
(-1.43262 -0.221201 0.132828 -11.9582 5.0591 -13.2024)
(-6.74459 0.0528874 -0.191091 -417.211 -9.38946 -161.178)
(-6.90069 0.147742 -0.279161 -229.134 0.00513883 -76.9173)
(-6.72552 0.254253 -0.27384 -199.49 4.65716 -65.6999)
(-6.46678 0.354885 -0.235018 -140.837 7.7243 -46.0997)
(-6.0892 0.472829 -0.163607 -91.7754 9.1626 -31.7611)
(-5.50215 0.620573 -0.0641603 -51.9728 9.20136 -21.046)
(-4.40589 0.692207 0.042253 -24.2405 7.88692 -13.9598)
(-1.84968 0.0353764 0.125754 -11.161 4.13336 -10.0604)
(-6.9588 0.0428912 -0.140558 -417.612 -4.61787 -165.206)
(-7.12581 0.122598 -0.199668 -228.31 0.38236 -84.3413)
(-6.9791 0.23119 -0.178186 -199.045 3.28411 -72.7372)
(-6.73891 0.363128 -0.130897 -140.618 5.31048 -51.5666)
(-6.33753 0.529366 -0.0663482 -91.633 6.3978 -35.184)
(-5.69781 0.723813 0.00799194 -51.7319 6.57633 -22.4664)
(-4.54856 0.829932 0.0738652 -23.704 5.76672 -13.602)
(-2.05242 0.223114 0.117614 -10.4726 3.06231 -8.25394)
(-7.09779 0.0416234 -0.0910179 -416.846 -2.10496 -167.114)
(-7.26229 0.119023 -0.125168 -227.651 0.487873 -88.6493)
(-7.12054 0.234244 -0.100749 -198.543 2.22011 -77.0392)
(-6.87296 0.38676 -0.0586411 -140.235 3.46714 -55.1031)
(-6.45306 0.58176 -0.00937655 -91.3046 4.18754 -37.5765)
(-5.77807 0.802502 0.0404708 -51.3652 4.35772 -23.64)
(-4.60459 0.925358 0.0780424 -23.1871 3.87282 -13.6503)
(-2.15314 0.347064 0.0955243 -9.98363 2.07688 -7.49081)
(-7.17996 0.0431538 -0.049596 -415.918 -0.848591 -167.936)
(-7.3416 0.122903 -0.0661806 -227.166 0.377848 -90.9686)
(-7.19557 0.244546 -0.0481789 -198.14 1.29563 -79.4445)
(-6.9367 0.409296 -0.0205799 -139.903 1.96728 -57.1592)
(-6.50165 0.619799 0.00958441 -90.9965 2.37034 -39.0398)
(-5.80748 0.853805 0.0377295 -51.0426 2.47971 -24.4375)
(-4.62222 0.98357 0.0565886 -22.7961 2.21848 -13.8148)
(-2.20288 0.420862 0.0606565 -9.66171 1.19575 -7.24237)
(-7.21774 0.0445077 -0.015538 -415.347 -0.219594 -168.229)
(-7.37646 0.12634 -0.0203545 -226.905 0.139867 -91.9745)
(-7.22335 0.251391 -0.0138744 -197.916 0.426973 -80.5113)
(-6.96176 0.421672 -0.00451246 -139.717 0.638684 -58.0951)
(-6.52003 0.63917 0.00548133 -90.8208 0.767794 -39.7266)
(-5.81709 0.878865 0.0145427 -50.8621 0.804605 -24.835)
(-4.62545 1.00995 0.0202768 -22.5896 0.721674 -13.9327)
(-2.23311 0.454485 0.0201108 -9.51036 0.389821 -7.19985)
(-55.4312 8.57757 -2.42128 -3.61058 -1.76347 -4.1263)
(-50.3854 7.95981 0.129811 -2.19062 -1.41715 -0.592201)
(-50.83 7.84067 -0.42889 -1.05214 -1.0685 -4.72147)
(-51.1106 7.85269 -0.820817 -0.159443 -0.804119 -6.44774)
(-51.7413 7.89834 -0.976777 0.503751 -0.59595 -7.27865)
(-52.2355 7.94733 -0.845941 0.973691 -0.417789 -7.32877)
(-52.5712 7.98675 -0.563976 1.26462 -0.256528 -7.1446)
(-52.7632 8.0069 -0.198525 1.3461 -0.0894891 -7.02531)
(-47.0369 6.33406 -4.52014 -4.98106 -0.46025 -11.2777)
(-42.6691 5.32835 -3.21603 -4.29231 -0.390882 -10.6825)
(-42.6882 5.02746 -3.06858 -3.50454 -0.26838 -10.7649)
(-43.6028 4.9181 -3.16044 -2.84792 -0.189712 -10.5543)
(-44.5821 4.8747 -2.92331 -2.36256 -0.13952 -10.4177)
(-45.3187 4.85905 -2.31408 -2.02028 -0.098612 -10.2399)
(-45.7844 4.85811 -1.46858 -1.79673 -0.0595363 -10.0815)
(-45.9926 4.86695 -0.502212 -1.67041 -0.0198952 -9.97939)
(-5.02242 5.48369 -4.57209 -5.98481 0.123358 -5.28044)
(-7.14376 4.36284 -4.59166 -5.49946 0.0681634 -6.66023)
(-8.68357 3.96288 -4.43569 -4.90511 0.0719819 -4.65719)
(-10.1455 3.77995 -4.13743 -4.4191 0.0624557 -2.96205)
(-11.2331 3.68293 -3.55889 -4.06491 0.0450778 -1.91837)
(-11.9614 3.62822 -2.70703 -3.81844 0.0293306 -1.39565)
(-12.3995 3.59829 -1.6826 -3.66071 0.0176741 -1.16934)
(-12.6002 3.58409 -0.570133 -3.57379 0.00651777 -1.08667)
(10.6136 5.36956 -3.3454 -5.47053 0.516227 -7.43811)
(6.72065 4.25333 -3.02691 -5.08125 0.296665 -10.1854)
(5.57596 3.81075 -2.9498 -4.71755 0.204757 -5.5426)
(4.4712 3.58601 -2.58339 -4.39649 0.152955 -2.42212)
(3.77978 3.45541 -2.12693 -4.15702 0.110489 -0.579122)
(3.29834 3.37591 -1.56914 -3.99145 0.0742227 0.211716)
(3.00402 3.3294 -0.960078 -3.88607 0.0423532 0.476197)
(2.859 3.30536 -0.32354 -3.83849 0.0136704 0.529143)
)
;
    }
    symmetry
    {
        type            symmetryPlane;
    }
    bottom
    {
        type            calculated;
        value           nonuniform List<symmTensor> 
32
(
(209.098 77.1688 0 313.647 86.3293 209.098)
(204.143 86.1146 0 306.215 42.8837 204.143)
(209.73 90.039 0 314.596 20.7619 209.73)
(212.985 91.2768 0 319.477 9.46103 212.985)
(214.36 91.5014 0 321.54 3.8757 214.36)
(214.835 91.4085 0 322.252 1.30741 214.835)
(214.935 91.2697 0 322.403 0.298864 214.935)
(214.93 91.1825 0 322.395 0.0276627 214.93)
(39.084 33.8071 0 58.6261 26.1021 39.084)
(40.1225 44.0287 0 60.1837 13.5011 40.1225)
(42.6567 45.5103 0 63.9851 6.35712 42.6567)
(43.8602 44.9924 0 65.7903 2.6257 43.8602)
(44.463 44.1706 0 66.6945 0.83281 44.463)
(44.7817 43.4847 0 67.1725 0.0889796 44.7817)
(44.9486 43.029 0 67.4229 -0.113208 44.9486)
(45.021 42.8055 0 67.5315 -0.0622112 45.021)
(-58.5759 29.9761 0 -87.8639 -30.2763 -58.5759)
(-53.5656 40.2758 0 -80.3484 -17.6008 -53.5656)
(-54.3864 41.3121 0 -81.5796 -10.2937 -54.3864)
(-54.8341 40.4041 0 -82.2511 -5.96183 -54.8341)
(-54.9213 39.3069 0 -82.3819 -3.3798 -54.9213)
(-54.8345 38.4371 0 -82.2518 -1.83796 -54.8345)
(-54.7103 37.8681 0 -82.0654 -0.897128 -54.7103)
(-54.6297 37.5908 0 -81.9445 -0.267062 -54.6297)
(-213.959 64.9192 0 -320.938 -94.2932 -213.959)
(-204.866 72.8562 0 -307.299 -50.6288 -204.866)
(-210.444 75.2776 0 -315.665 -27.0336 -210.444)
(-213.246 75.3723 0 -319.869 -14.0982 -213.246)
(-214.045 74.779 0 -321.068 -7.09054 -214.045)
(-213.974 74.1243 0 -320.961 -3.37551 -213.974)
(-213.667 73.6306 0 -320.501 -1.44557 -213.667)
(-213.447 73.3728 0 -320.171 -0.393936 -213.447)
)
;
    }
}


// ************************************************************************* //
