/*--------------------------------*- C++ -*----------------------------------*\
| =========                 |                                                 |
| \\      /  F ield         | foam-extend: Open Source CFD                    |
|  \\    /   O peration     | Version:     3.1                                |
|   \\  /    A nd           | Web:         http://www.extend-project.de       |
|    \\/     M anipulation  |                                                 |
\*---------------------------------------------------------------------------*/
FoamFile
{
    version     2.0;
    format      ascii;
    class       volScalarField;
    location    "2.4";
    object      sigmaCauchyEq;
}
// * * * * * * * * * * * * * * * * * * * * * * * * * * * * * * * * * * * * * //

dimensions      [1 -1 -2 0 0 0 0];

internalField   nonuniform List<scalar> 
256
(
267.051
112.58
105.372
212.263
184.322
140.16
127.944
160.154
167.812
132.606
121.093
139.171
131.046
117.375
107.984
105.342
99.1458
98.8249
91.5093
75.7163
72.3508
78.5829
73.0691
50.8354
54.387
58.8311
53.2037
32.2988
49.597
43.5458
29.023
19.9024
262.293
125.702
116.225
205.026
193.827
144.609
132.579
167.658
165.516
123.738
112.883
137.55
127.724
104.425
95.1004
101.896
94.4671
84.6636
77.3369
70.5783
67.9175
65.6066
60.1658
45.4635
50.6783
48.3317
43.2541
27.7434
47.0135
37.4366
24.1426
17.3431
264.294
129.158
117.842
202.906
192.435
145.551
132.531
164.447
165.309
122.889
110.978
135.128
127.425
101.494
91.1019
99.3429
94.1096
80.9548
72.6622
68.066
67.4046
61.9013
55.7907
43.1626
49.9147
45.3979
40.0248
25.7706
45.7205
36.4605
22.7426
14.5032
265.321
129.615
117.102
201.437
191.405
146.001
131.939
161.925
165.107
123.392
110.376
132.952
127.701
101.626
90.1672
97.3891
94.5988
80.7904
71.5672
66.2686
67.9043
61.584
54.7883
41.5147
50.2824
45.2171
39.4001
24.2589
45.9269
37.1259
22.7038
12.7313
265.443
129.093
115.817
200.069
191.007
146.026
131.139
160.279
165.19
123.942
110.068
131.414
128.229
102.355
90.0914
96.0281
95.3699
81.5174
71.6065
65.0482
68.7245
62.2125
54.8989
40.3819
51.028
45.7909
39.5936
23.2002
46.6243
38.0075
22.9902
11.7039
265.153
128.398
114.633
198.884
190.854
145.841
130.348
159.16
165.37
124.29
109.797
130.373
128.732
102.989
90.1631
95.1249
96.0521
82.2483
71.8708
64.2524
69.4503
62.898
55.2355
39.6506
51.7136
46.3869
39.919
22.5199
47.3508
38.7004
23.2062
11.0749
264.807
127.847
113.783
198.023
190.789
145.629
129.737
158.436
165.527
124.462
109.566
129.717
129.094
103.391
90.2094
94.5684
96.5236
82.7468
72.081
63.7707
69.9485
63.3795
55.504
39.2183
52.1951
46.7987
40.1577
22.1273
47.8859
39.1415
23.31
10.6916
264.595
127.554
113.347
197.573
190.76
145.499
129.409
158.075
165.612
124.526
109.431
129.397
129.277
103.578
90.2227
94.3007
96.7572
82.9881
72.1843
63.542
70.1936
63.6158
55.6391
39.0173
52.4334
46.9994
40.2732
21.9483
48.1555
39.351
23.3441
10.5048
)
;

boundaryField
{
    interface
    {
        type            calculated;
        value           nonuniform List<scalar> 
192
(
423.33
212.312
204.684
150.499
108.925
75.3039
56.8867
48.4817
412.287
228.945
205.574
153.452
110.895
78.1059
59.9647
51.393
416.31
224.106
204.185
152.748
110.292
77.2612
58.6455
48.1394
419.231
221.151
203.053
152.477
110.517
77.6496
59.0422
47.9136
420.365
219.825
202.584
152.58
111.034
78.3273
59.7743
48.3142
420.512
219.247
202.502
152.859
111.575
78.9829
60.4848
48.9594
420.31
218.986
202.543
153.116
111.975
79.4477
60.9871
49.4685
420.127
218.877
202.581
153.256
112.177
79.6768
61.2304
49.72
291.818
170.844
172.337
134.97
104.656
77.7381
59.0242
53.6064
102.84
134.431
140.368
127.448
109.655
88.3429
66.6897
49.5923
99.6705
120.587
127.852
117.397
101.818
82.3347
60.3862
32.9604
254.906
144.709
143.973
108.898
81.2318
56.4327
37.3454
23.5977
348.186
184.094
171.446
121.237
81.0418
47.1446
25.021
16.865
334.363
198.58
171.358
122.338
81.0577
47.9356
26.6978
18.3587
335.782
193.054
168.367
119.906
78.8581
45.935
24.6397
14.1865
336.685
189.401
165.591
117.444
76.5528
43.5496
21.8654
11.328
336.339
187.377
163.745
115.654
74.7915
41.566
19.332
9.22499
335.455
186.175
162.574
114.487
73.5965
40.1714
17.437
7.81795
334.6
185.453
161.867
113.787
72.8672
39.3123
16.23
6.93756
334.102
185.105
161.53
113.457
72.5216
38.9065
15.6537
6.5152
53.3542
50.5015
49.5024
49.5768
50.2697
51.004
51.5597
51.8294
41.1702
36.9166
37.224
38.5327
39.7271
40.57
41.0868
41.3324
12.3808
11.0479
10.9961
11.6986
12.2209
12.3539
12.2844
12.2004
20.4057
17.5472
13.609
11.128
9.84209
9.04173
8.51113
8.22977
)
;
    }
    symmetry
    {
        type            symmetryPlane;
    }
    bottom
    {
        type            calculated;
        value           nonuniform List<scalar> 
32
(
243.517
209.946
205.929
206.12
206.341
206.259
206.067
205.929
77.6318
83.4822
83.7118
82.4101
81.0039
79.8865
79.1466
78.7824
77.6736
79.1033
77.0144
74.3275
72.1477
70.6081
69.644
69.1816
207.456
170.71
160.48
156.952
155.203
154.068
153.317
152.935
)
;
    }
}


// ************************************************************************* //
