/*--------------------------------*- C++ -*----------------------------------*\
| =========                 |                                                 |
| \\      /  F ield         | foam-extend: Open Source CFD                    |
|  \\    /   O peration     | Version:     3.1                                |
|   \\  /    A nd           | Web:         http://www.extend-project.de       |
|    \\/     M anipulation  |                                                 |
\*---------------------------------------------------------------------------*/
FoamFile
{
    version     2.0;
    format      ascii;
    class       volVectorField;
    location    "2.4";
    object      U;
}
// * * * * * * * * * * * * * * * * * * * * * * * * * * * * * * * * * * * * * //

dimensions      [0 1 -1 0 0 0 0];

internalField   nonuniform List<vector> 
256
(
(0.000137492 0.000116872 0.000212551)
(3.57164e-05 2.60081e-05 5.65709e-05)
(3.30672e-05 -3.78648e-05 -9.51119e-05)
(0.000131766 -0.000140682 -0.000270252)
(0.00064312 0.000480748 0.000248641)
(0.000529495 0.000124947 7.6939e-05)
(0.000516834 -0.00017828 -0.000135512)
(0.00059951 -0.000552272 -0.000310784)
(0.00134012 0.000741674 0.000252246)
(0.00122815 0.000195755 7.25186e-05)
(0.00120726 -0.000302808 -0.000126638)
(0.00127063 -0.00086889 -0.00030835)
(0.00220761 0.000932898 0.000219105)
(0.00210709 0.000233413 6.16274e-05)
(0.00207816 -0.00042077 -0.00010984)
(0.00211229 -0.00113881 -0.000268846)
(0.00318607 0.00104808 0.000172405)
(0.00309546 0.000240087 4.51779e-05)
(0.00305953 -0.000526538 -9.11276e-05)
(0.00306917 -0.00134931 -0.000220358)
(0.00421847 0.0011007 0.000124058)
(0.00413703 0.000223039 2.70652e-05)
(0.0040955 -0.000618834 -7.55325e-05)
(0.00408514 -0.00150695 -0.00017513)
(0.00525646 0.0011057 8.34386e-05)
(0.00518252 0.000189895 1.00426e-05)
(0.00513728 -0.000696146 -6.45275e-05)
(0.00511314 -0.00161853 -0.000140711)
(0.00626815 0.00108038 5.45109e-05)
(0.00619529 0.000148229 -5.015e-06)
(0.00614766 -0.00075896 -5.7551e-05)
(0.00611917 -0.00169588 -0.000119948)
(0.000175337 0.000113464 0.000119211)
(8.20093e-05 2.40744e-05 3.17884e-05)
(8.01713e-05 -3.3509e-05 -5.95751e-05)
(0.000169414 -0.000129753 -0.000161862)
(0.00074638 0.000467076 0.000161964)
(0.000615128 0.000116939 4.69744e-05)
(0.000605113 -0.000173941 -9.37343e-05)
(0.000709986 -0.00054268 -0.000213278)
(0.00146322 0.000736782 0.000176359)
(0.00134697 0.000188679 4.81486e-05)
(0.00132678 -0.000308978 -9.5243e-05)
(0.00139503 -0.000876975 -0.000225975)
(0.00233214 0.000932013 0.000163522)
(0.00222813 0.000228503 4.31545e-05)
(0.00219868 -0.00042949 -8.70849e-05)
(0.00223493 -0.00115157 -0.000209302)
(0.00329943 0.00105181 0.000137739)
(0.00320707 0.000238562 3.35124e-05)
(0.00316977 -0.000534734 -7.64228e-05)
(0.0031783 -0.00136261 -0.000182225)
(0.00431635 0.00110807 0.000108553)
(0.00423407 0.000224858 2.1861e-05)
(0.00419098 -0.000624443 -6.7252e-05)
(0.00417843 -0.00151778 -0.000155551)
(0.0053403 0.00111627 8.27955e-05)
(0.00526626 0.000194529 1.03252e-05)
(0.00521971 -0.000698983 -6.11623e-05)
(0.00519297 -0.00162662 -0.000135241)
(0.00634497 0.00109429 6.2776e-05)
(0.0062722 0.000155235 -2.20577e-07)
(0.0062238 -0.000760447 -5.82967e-05)
(0.00619356 -0.00170317 -0.000123035)
(0.000195467 0.000119748 7.01887e-05)
(9.77505e-05 2.52147e-05 1.82108e-05)
(9.61847e-05 -3.47058e-05 -3.8418e-05)
(0.000190054 -0.000136025 -0.000100089)
(0.000806494 0.000468189 0.000103698)
(0.000663877 0.000114797 2.81437e-05)
(0.00065539 -0.000173336 -6.36184e-05)
(0.000773961 -0.000546069 -0.000142978)
(0.0015457 0.000734314 0.000119667)
(0.00142076 0.000185373 3.05927e-05)
(0.0014016 -0.000310251 -6.90716e-05)
(0.00148024 -0.000879696 -0.000160517)
(0.0024241 0.000926987 0.000117956)
(0.00231447 0.000224743 2.88576e-05)
(0.00228529 -0.000431372 -6.69171e-05)
(0.0023277 -0.00115251 -0.000157731)
(0.00339219 0.00104704 0.000106632)
(0.00329646 0.000235747 2.38413e-05)
(0.00325881 -0.000536355 -6.23061e-05)
(0.0032704 -0.00136255 -0.000146328)
(0.00440533 0.00110597 9.15113e-05)
(0.00432129 0.000224009 1.69939e-05)
(0.00427743 -0.000625318 -5.81251e-05)
(0.00426553 -0.00151757 -0.000133646)
(0.00542508 0.00111899 7.69284e-05)
(0.00535036 0.000196227 9.58712e-06)
(0.00530284 -0.000699275 -5.57359e-05)
(0.00527511 -0.00162781 -0.000123948)
(0.00642915 0.00110304 6.37887e-05)
(0.00635644 0.000159476 2.00607e-06)
(0.00630709 -0.000760913 -5.54646e-05)
(0.00627503 -0.0017075 -0.000118247)
(0.000206578 0.00012436 4.25928e-05)
(0.000104276 2.6157e-05 1.05957e-05)
(0.000102718 -3.57105e-05 -2.50017e-05)
(0.000201255 -0.000141271 -6.28266e-05)
(0.000843248 0.000473061 6.66365e-05)
(0.000692981 0.000114985 1.68788e-05)
(0.000685079 -0.000173644 -4.3258e-05)
(0.000812092 -0.000551771 -9.57188e-05)
(0.00160066 0.000735926 8.04911e-05)
(0.00146947 0.00018467 1.91297e-05)
(0.00145085 -0.000310529 -4.9484e-05)
(0.00153655 -0.000882618 -0.000112713)
(0.00249068 0.00092559 8.35584e-05)
(0.00237671 0.000223247 1.88712e-05)
(0.00234776 -0.000431469 -5.04241e-05)
(0.00239497 -0.00115281 -0.000116523)
(0.00346486 0.00104444 8.02393e-05)
(0.0033664 0.000234243 1.64901e-05)
(0.00332866 -0.000536176 -4.93736e-05)
(0.00334298 -0.00136137 -0.000114138)
(0.00448039 0.0011045 7.36552e-05)
(0.00439486 0.000223452 1.26704e-05)
(0.00435064 -0.000624921 -4.82783e-05)
(0.00433973 -0.00151634 -0.000110014)
(0.00550122 0.00112075 6.61655e-05)
(0.00542588 0.000197334 7.99834e-06)
(0.00537779 -0.000698905 -4.81428e-05)
(0.00534977 -0.00162808 -0.000106878)
(0.00650744 0.0011091 5.77775e-05)
(0.00643464 0.000162471 2.47142e-06)
(0.00638442 -0.000760949 -4.92488e-05)
(0.00635088 -0.00171033 -0.000105244)
(0.00021326 0.000127441 2.62112e-05)
(0.000107603 2.68282e-05 6.22565e-06)
(0.000105949 -3.63977e-05 -1.61611e-05)
(0.000207776 -0.000144839 -3.94761e-05)
(0.000866696 0.000478165 4.26628e-05)
(0.000711195 0.000115947 1.00831e-05)
(0.00070342 -0.000174096 -2.91133e-05)
(0.000835776 -0.000556927 -6.3459e-05)
(0.00163783 0.000739708 5.34026e-05)
(0.00150237 0.000185366 1.17664e-05)
(0.00148389 -0.000310747 -3.47061e-05)
(0.00157394 -0.000886236 -7.76627e-05)
(0.00253849 0.000927371 5.77741e-05)
(0.00242142 0.000223401 1.20447e-05)
(0.0023925 -0.000431363 -3.68084e-05)
(0.00244278 -0.00115446 -8.35843e-05)
(0.00352001 0.00104496 5.81548e-05)
(0.00341951 0.000234177 1.10287e-05)
(0.00338166 -0.000535821 -3.74692e-05)
(0.00339778 -0.00136166 -8.53782e-05)
(0.00454025 0.00110525 5.60837e-05)
(0.00445351 0.000223771 8.97187e-06)
(0.00440899 -0.000624466 -3.79406e-05)
(0.00439877 -0.00151634 -8.56234e-05)
(0.00556429 0.00112323 5.26583e-05)
(0.00548831 0.000198581 6.0549e-06)
(0.00543977 -0.000698553 -3.88919e-05)
(0.0054115 -0.00162891 -8.59041e-05)
(0.00657357 0.00111418 4.74147e-05)
(0.00650046 0.000164899 2.06676e-06)
(0.00644956 -0.000760896 -4.04892e-05)
(0.00641502 -0.00171271 -8.63409e-05)
(0.000217454 0.000129466 1.57888e-05)
(0.00010954 2.7285e-05 3.59662e-06)
(0.000107783 -3.68509e-05 -1.00467e-05)
(0.000211766 -0.000147162 -2.40447e-05)
(0.000881784 0.000482426 2.63653e-05)
(0.000722791 0.000116998 5.84942e-06)
(0.000714961 -0.00017452 -1.87245e-05)
(0.000850658 -0.000560944 -4.03121e-05)
(0.00166268 0.00074381 3.38847e-05)
(0.00152432 0.000186527 6.95849e-06)
(0.00150577 -0.000311019 -2.30209e-05)
(0.00159846 -0.000889714 -5.07974e-05)
(0.00257172 0.00093047 3.77972e-05)
(0.00245252 0.000224316 7.33123e-06)
(0.0024235 -0.000431389 -2.5136e-05)
(0.00247563 -0.00115681 -5.63006e-05)
(0.00355978 0.00104719 3.9358e-05)
(0.00345783 0.00023491 6.95909e-06)
(0.00341981 -0.00053566 -2.63022e-05)
(0.00343701 -0.00136306 -5.92447e-05)
(0.00458479 0.00110737 3.92629e-05)
(0.00449711 0.00022464 5.89356e-06)
(0.00445234 -0.000624227 -2.7284e-05)
(0.0044425 -0.00151736 -6.1057e-05)
(0.00561231 0.00112616 3.79273e-05)
(0.00553576 0.000199933 4.12756e-06)
(0.00548685 -0.000698369 -2.84894e-05)
(0.00545839 -0.00163023 -6.25779e-05)
(0.00662455 0.00111854 3.47581e-05)
(0.00655102 0.00016694 1.39532e-06)
(0.00649959 -0.000760874 -2.99858e-05)
(0.0064644 -0.00171484 -6.37059e-05)
(0.000219968 0.000130706 8.4866e-06)
(0.000110667 2.75697e-05 1.8741e-06)
(0.000108827 -3.71279e-05 -5.49846e-06)
(0.000214092 -0.000148564 -1.29887e-05)
(0.000890935 0.000485419 1.43825e-05)
(0.000729775 0.000117819 3.03889e-06)
(0.000721827 -0.000174839 -1.05e-05)
(0.000859433 -0.000563658 -2.24124e-05)
(0.00167804 0.00074707 1.88089e-05)
(0.00153789 0.000187566 3.65685e-06)
(0.0015192 -0.000311268 -1.31745e-05)
(0.00161336 -0.000892359 -2.87944e-05)
(0.00259281 0.000933332 2.14062e-05)
(0.00247226 0.000225288 3.93029e-06)
(0.00244311 -0.000431495 -1.46575e-05)
(0.00249629 -0.00115892 -3.25274e-05)
(0.0035856 0.00104956 2.27788e-05)
(0.0034827 0.000235783 3.82314e-06)
(0.00344453 -0.000535648 -1.56079e-05)
(0.00346232 -0.00136459 -3.48798e-05)
(0.00461425 0.00110959 2.3205e-05)
(0.00452594 0.000225557 3.32099e-06)
(0.00448096 -0.000624157 -1.64362e-05)
(0.00447131 -0.00151859 -3.65599e-05)
(0.00564452 0.00112872 2.27966e-05)
(0.00556754 0.000201086 2.36948e-06)
(0.00551835 -0.000698312 -1.73571e-05)
(0.00548975 -0.00163152 -3.79592e-05)
(0.006659 0.00112181 2.10925e-05)
(0.0065851 0.000168465 7.63988e-07)
(0.0065333 -0.000760886 -1.83853e-05)
(0.00649773 -0.00171648 -3.89321e-05)
(0.000221153 0.000131299 2.68127e-06)
(0.000111191 2.77068e-05 5.82565e-07)
(0.000109302 -3.72596e-05 -1.75093e-06)
(0.000215154 -0.000149223 -4.11013e-06)
(0.000895279 0.000486953 4.57425e-06)
(0.000733084 0.00011826 9.4137e-07)
(0.00072506 -0.000175007 -3.38567e-06)
(0.000863545 -0.000565019 -7.19604e-06)
(0.00168541 0.000748841 6.0337e-06)
(0.0015444 0.000188158 1.13883e-06)
(0.00152564 -0.000311414 -4.29079e-06)
(0.0016205 -0.000893772 -9.33378e-06)
(0.00260307 0.000934988 6.93515e-06)
(0.00248186 0.000225877 1.23637e-06)
(0.00245264 -0.000431579 -4.81827e-06)
(0.0025063 -0.00116013 -1.06436e-05)
(0.00359831 0.00105101 7.45795e-06)
(0.00349495 0.000236334 1.2175e-06)
(0.00345669 -0.000535676 -5.17468e-06)
(0.00347474 -0.00136555 -1.15184e-05)
(0.00462889 0.00111095 7.67372e-06)
(0.00454026 0.000226122 1.07064e-06)
(0.00449518 -0.000624152 -5.48875e-06)
(0.0044856 -0.00151938 -1.21711e-05)
(0.00566064 0.00113019 7.59779e-06)
(0.00558343 0.00020175 7.69714e-07)
(0.0055341 -0.000698301 -5.82732e-06)
(0.00550543 -0.00163229 -1.27145e-05)
(0.0066763 0.00112356 7.05944e-06)
(0.00660221 0.000169295 2.39315e-07)
(0.00655023 -0.000760891 -6.19042e-06)
(0.00651448 -0.00171739 -1.3085e-05)
)
;

boundaryField
{
    interface
    {
        type            calculated;
        value           nonuniform List<vector> 
192
(
(0.000341219 0.000351806 0.000235167)
(0.000743481 0.000740291 0.000306053)
(0.00145036 0.00110827 0.000318739)
(0.00229718 0.00136799 0.000281675)
(0.00326015 0.00153028 0.000225761)
(0.00427711 0.00160404 0.000166551)
(0.0053038 0.00161073 0.000117062)
(0.00631067 0.00157904 8.40516e-05)
(0.000382889 0.000385778 0.000133541)
(0.000861664 0.000743317 0.000200746)
(0.0015733 0.00110523 0.000225553)
(0.00242224 0.00136315 0.000214434)
(0.00337271 0.00152632 0.00018599)
(0.00437455 0.00160368 0.000152013)
(0.00538776 0.001616 0.00012201)
(0.006388 0.00159266 0.000100757)
(0.000418375 0.000415456 7.88871e-05)
(0.000928456 0.000757686 0.000128079)
(0.00166091 0.00110791 0.000153084)
(0.00251694 0.00135878 0.00015613)
(0.00346619 0.00151922 0.000145984)
(0.00446304 0.00159858 0.000130174)
(0.00547148 0.00161682 0.000114622)
(0.00647027 0.00160266 0.000101912)
(0.000440725 0.000434881 4.78664e-05)
(0.000970613 0.000771637 8.21879e-05)
(0.0017205 0.00111568 0.000103087)
(0.00258643 0.00136025 0.000111211)
(0.00354028 0.00151737 0.000110769)
(0.00453845 0.00159693 0.000105628)
(0.00554734 0.00161864 9.89905e-05)
(0.0065476 0.00161031 9.19216e-05)
(0.000454886 0.000447499 2.94632e-05)
(0.000997989 0.000783142 5.26876e-05)
(0.0017611 0.00112474 6.86127e-05)
(0.00263653 0.00136552 7.73013e-05)
(0.00359676 0.00151997 8.07666e-05)
(0.00459886 0.00159892 8.07965e-05)
(0.00561047 0.00162216 7.88807e-05)
(0.00661333 0.00161707 7.51937e-05)
(0.000463907 0.000455673 1.77673e-05)
(0.00101573 0.000791784 3.26628e-05)
(0.0017883 0.00113285 4.37156e-05)
(0.00267141 0.00137171 5.08251e-05)
(0.00363755 0.00152444 5.49201e-05)
(0.00464391 0.00160263 5.67379e-05)
(0.00565869 0.00162638 5.68591e-05)
(0.00666427 0.00162291 5.50647e-05)
(0.000469323 0.00046064 9.56477e-06)
(0.00102652 0.000797517 1.78768e-05)
(0.00180512 0.00113878 2.43529e-05)
(0.00269354 0.00137681 2.88954e-05)
(0.00366403 0.00152856 3.18919e-05)
(0.00467375 0.00160618 3.35998e-05)
(0.00569109 0.00163001 3.41932e-05)
(0.00669879 0.00162729 3.34106e-05)
(0.000471869 0.000462998 3.02517e-06)
(0.00103164 0.000800374 5.69689e-06)
(0.00181318 0.00114188 7.82933e-06)
(0.00270429 0.00137963 9.38181e-06)
(0.00367706 0.00153095 1.04599e-05)
(0.00468858 0.00160826 1.1122e-05)
(0.00570731 0.00163207 1.13984e-05)
(0.00671615 0.00162961 1.11825e-05)
(0.000104225 0.000243555 0.000329681)
(0.000564446 0.000483597 0.000275815)
(0.00125906 0.000740935 0.000291213)
(0.00213227 0.000915582 0.000244614)
(0.00312481 0.00102585 0.000189095)
(0.00417232 0.00107812 0.000131723)
(0.00522287 0.00108694 8.44178e-05)
(0.00624268 0.00106802 5.01939e-05)
(-1.79094e-05 6.86034e-05 8.32171e-05)
(0.000421392 0.000128547 8.73659e-05)
(0.00112613 0.000200387 8.25778e-05)
(0.00201798 0.000232511 6.83917e-05)
(0.00302569 0.000235829 4.93751e-05)
(0.00408629 0.000216622 2.87813e-05)
(0.00514779 0.000182736 9.78206e-06)
(0.00617197 0.000141964 -8.4121e-06)
(-2.31349e-05 -0.00010709 -0.000133939)
(0.000408986 -0.000169879 -0.000141818)
(0.00110603 -0.00029129 -0.000136808)
(0.00199057 -0.000404115 -0.000117402)
(0.00299122 -0.000512236 -9.69676e-05)
(0.00404587 -0.000608697 -7.93307e-05)
(0.00510322 -0.000690634 -6.66289e-05)
(0.00612417 -0.000757761 -5.67558e-05)
(9.05214e-05 -0.000314667 -0.000391666)
(0.000522745 -0.000546126 -0.000333504)
(0.00119116 -0.000855702 -0.00034781)
(0.0020412 -0.00110877 -0.000295146)
(0.00301245 -0.00132003 -0.000238901)
(0.00404272 -0.00148327 -0.00018528)
(0.0050816 -0.00160334 -0.000144422)
(0.00609319 -0.00168972 -0.000118398)
(0.000307971 -0.00041269 -0.000292977)
(0.000672683 -0.000827698 -0.000368318)
(0.00134046 -0.00126061 -0.000377146)
(0.00215093 -0.00159369 -0.000332946)
(0.00308514 -0.00184604 -0.000274891)
(0.00408261 -0.00201935 -0.000218637)
(0.00509945 -0.002129 -0.000175721)
(0.00610268 -0.00219665 -0.000151562)
(0.000342027 -0.000444901 -0.000177247)
(0.000797992 -0.000840343 -0.000253901)
(0.00146477 -0.00126911 -0.000277067)
(0.00227485 -0.00160195 -0.000260763)
(0.00319423 -0.00185122 -0.00023019)
(0.00417619 -0.00202271 -0.000198388)
(0.0051795 -0.00213279 -0.000174244)
(0.00617716 -0.00220475 -0.000161412)
(0.000374408 -0.000480659 -0.000109492)
(0.00086763 -0.000859299 -0.000168623)
(0.00155542 -0.00127672 -0.000195423)
(0.00237126 -0.0016032 -0.000196665)
(0.00328821 -0.00184863 -0.000185754)
(0.00426362 -0.00201965 -0.000172126)
(0.00526078 -0.00213237 -0.000161589)
(0.00625659 -0.00221033 -0.000156569)
(0.000394938 -0.000504506 -6.85143e-05)
(0.000910434 -0.000875475 -0.000112029)
(0.00161608 -0.00128617 -0.000136333)
(0.00244155 -0.00160639 -0.000144867)
(0.00336237 -0.00184818 -0.000144971)
(0.0043382 -0.0020183 -0.00014209)
(0.00533499 -0.00213287 -0.000139756)
(0.00633078 -0.00221463 -0.000139569)
(0.000407823 -0.000519634 -4.29801e-05)
(0.000937539 -0.000887859 -7.39309e-05)
(0.00165651 -0.00129549 -9.35435e-05)
(0.00249139 -0.00161172 -0.000103659)
(0.00341825 -0.00185066 -0.000108355)
(0.00439747 -0.00201961 -0.00011056)
(0.00539631 -0.00213475 -0.000112286)
(0.00639385 -0.00221845 -0.000114278)
(0.000415976 -0.000529119 -2.61709e-05)
(0.000954739 -0.000896713 -4.68521e-05)
(0.00168299 -0.0013033 -6.10375e-05)
(0.00252552 -0.00161738 -6.97088e-05)
(0.00345814 -0.00185439 -7.51139e-05)
(0.00444129 -0.00202226 -7.87554e-05)
(0.00544292 -0.00213733 -8.16797e-05)
(0.00644262 -0.00222187 -8.41314e-05)
(0.000420807 -0.00053471 -1.41413e-05)
(0.000964895 -0.000902407 -2.60188e-05)
(0.00169904 -0.00130882 -3.45595e-05)
(0.00254694 -0.00162186 -4.02449e-05)
(0.00348382 -0.00185776 -4.41898e-05)
(0.00447015 -0.00202483 -4.71083e-05)
(0.0054741 -0.00213965 -4.94767e-05)
(0.00647563 -0.0022245 -5.13285e-05)
(0.000423032 -0.000537294 -4.47788e-06)
(0.00096966 -0.000905186 -8.35493e-06)
(0.00170676 -0.00131167 -1.12028e-05)
(0.00255731 -0.00162431 -1.31688e-05)
(0.00349641 -0.00185969 -1.45871e-05)
(0.00448446 -0.00202636 -1.56731e-05)
(0.00548969 -0.002141 -1.65584e-05)
(0.00649223 -0.00222592 -1.72359e-05)
(0.00676333 0.00106367 4.57017e-05)
(0.00684309 0.00107881 5.51412e-05)
(0.0069302 0.0010903 5.70488e-05)
(0.00701103 0.00109828 5.21568e-05)
(0.00707929 0.00110465 4.27836e-05)
(0.00713197 0.00110973 3.12439e-05)
(0.00716763 0.00111336 1.88849e-05)
(0.00718555 0.00111524 6.307e-06)
(0.0066679 0.000132055 -9.26009e-06)
(0.00674988 0.000139472 -4.27737e-06)
(0.00683785 0.000144412 -1.72514e-06)
(0.00691872 0.000148142 -7.30004e-07)
(0.00698652 0.000151149 -5.71588e-07)
(0.00703858 0.000153565 -5.93018e-07)
(0.00707369 0.000155304 -4.77714e-07)
(0.00709135 0.000156234 -1.83171e-07)
(0.00661789 -0.000786978 -5.67188e-05)
(0.00669898 -0.000788765 -5.87629e-05)
(0.0067857 -0.000789656 -5.64846e-05)
(0.00686546 -0.000790033 -5.04416e-05)
(0.0069324 -0.000790183 -4.15449e-05)
(0.0069838 -0.000790253 -3.07784e-05)
(0.00701846 -0.0007903 -1.88686e-05)
(0.00703589 -0.000790308 -6.35179e-06)
(0.00660858 -0.00172857 -0.000115554)
(0.00668611 -0.00173619 -0.000120725)
(0.00676996 -0.00174259 -0.000116988)
(0.00684778 -0.00174686 -0.000104661)
(0.00691354 -0.00175016 -8.5959e-05)
(0.00696424 -0.00175275 -6.3399e-05)
(0.00699853 -0.00175461 -3.87119e-05)
(0.00701578 -0.00175559 -1.30008e-05)
)
;
    }
    symmetry
    {
        type            symmetryPlane;
    }
    bottom
    {
        type            calculated;
        value           uniform (0 0 0);
    }
}


// ************************************************************************* //
