/*--------------------------------*- C++ -*----------------------------------*\
| =========                 |                                                 |
| \\      /  F ield         | foam-extend: Open Source CFD                    |
|  \\    /   O peration     | Version:     3.1                                |
|   \\  /    A nd           | Web:         http://www.extend-project.de       |
|    \\/     M anipulation  |                                                 |
\*---------------------------------------------------------------------------*/
FoamFile
{
    version     2.0;
    format      ascii;
    class       volVectorField;
    location    "2.9";
    object      D;
}
// * * * * * * * * * * * * * * * * * * * * * * * * * * * * * * * * * * * * * //

dimensions      [0 1 0 0 0 0 0];

internalField   nonuniform List<vector> 
256
(
(0.000280148 0.00018591 0.000318203)
(0.000119661 3.60838e-05 9.50867e-05)
(0.000106161 -5.50325e-05 -0.000114544)
(0.00023726 -0.000206631 -0.000352401)
(0.00117218 0.000764063 0.000263992)
(0.000973477 0.000204314 9.38293e-05)
(0.000936172 -0.000241982 -0.000157349)
(0.00105334 -0.000800889 -0.000353265)
(0.00230209 0.00117897 0.000186948)
(0.0021029 0.000341875 4.64461e-05)
(0.00205189 -0.00039548 -0.000146742)
(0.00214362 -0.00123785 -0.00031445)
(0.0036465 0.0014977 7.40056e-05)
(0.00346688 0.000440059 -3.25578e-06)
(0.00340678 -0.000527975 -0.000128336)
(0.00345958 -0.00159291 -0.000234462)
(0.00512943 0.00171126 -4.0828e-05)
(0.00496797 0.000498023 -5.28665e-05)
(0.00490176 -0.000636726 -0.000106518)
(0.00492285 -0.00185559 -0.000147604)
(0.00668076 0.00183997 -0.000145085)
(0.00653586 0.000523449 -9.84995e-05)
(0.00646587 -0.000724712 -8.79352e-05)
(0.00646227 -0.0020418 -6.81461e-05)
(0.00824502 0.00190408 -0.000230336)
(0.00811143 0.00052447 -0.000140371)
(0.00803845 -0.000793956 -7.68777e-05)
(0.00801933 -0.00216587 -7.22889e-06)
(0.00979379 0.00192428 -0.000296733)
(0.00965331 0.000511714 -0.000180412)
(0.00957285 -0.000846218 -7.55309e-05)
(0.00955129 -0.00224573 2.46277e-05)
(0.00031482 0.00018381 0.000158553)
(0.000158995 3.71452e-05 4.91827e-05)
(0.000145552 -4.99668e-05 -6.67647e-05)
(0.000267309 -0.000194632 -0.000190041)
(0.00124864 0.00075809 0.000148755)
(0.00102542 0.000206129 4.70081e-05)
(0.00099063 -0.000232182 -0.000103494)
(0.00113466 -0.000784413 -0.000223417)
(0.00235981 0.00119104 0.000102035)
(0.00216081 0.000351009 1.67283e-05)
(0.00211245 -0.000393558 -0.000106159)
(0.00220637 -0.00123933 -0.000210109)
(0.00367134 0.00151517 2.61558e-05)
(0.00349405 0.000452918 -1.95948e-05)
(0.00343651 -0.000526144 -9.80396e-05)
(0.00348874 -0.00159601 -0.000163215)
(0.0051118 0.00173277 -5.64243e-05)
(0.00495556 0.00051429 -5.71292e-05)
(0.00489152 -0.000632517 -8.60447e-05)
(0.0049084 -0.00185615 -0.000105839)
(0.00662035 0.00186277 -0.000133818)
(0.00648177 0.00054202 -9.28099e-05)
(0.00641367 -0.000715816 -7.57007e-05)
(0.00640408 -0.00203555 -5.19061e-05)
(0.00814633 0.00192627 -0.000198683)
(0.0080205 0.000543966 -0.000125939)
(0.00794961 -0.00077941 -7.14567e-05)
(0.00792292 -0.00215065 -1.16659e-05)
(0.00966693 0.00194469 -0.000248429)
(0.00953454 0.000530681 -0.00015637)
(0.0094565 -0.000826773 -7.7111e-05)
(0.0094277 -0.002222 4.27192e-06)
(0.000330428 0.000189572 7.71398e-05)
(0.000165347 3.96142e-05 2.31022e-05)
(0.000150116 -5.05594e-05 -3.92839e-05)
(0.000276864 -0.000199108 -0.000102168)
(0.00128252 0.000751698 7.3485e-05)
(0.00104017 0.000205888 1.75463e-05)
(0.00100347 -0.000225173 -6.6486e-05)
(0.0011623 -0.000772994 -0.000133643)
(0.00238887 0.00118212 4.32436e-05)
(0.00217547 0.000352569 -3.63109e-06)
(0.00212506 -0.000384076 -7.38962e-05)
(0.00222931 -0.00122091 -0.00013154)
(0.00368249 0.00150573 -7.12259e-06)
(0.00349556 0.000456552 -2.99241e-05)
(0.00343574 -0.000513577 -7.25788e-05)
(0.0034932 -0.00157097 -0.000106054)
(0.00509834 0.00172596 -6.40897e-05)
(0.00493558 0.000520882 -5.76543e-05)
(0.00486903 -0.000616734 -6.77897e-05)
(0.00488761 -0.00182638 -7.13709e-05)
(0.00657983 0.00186047 -0.000119268)
(0.00643712 0.000551922 -8.47532e-05)
(0.00636646 -0.000696717 -6.37569e-05)
(0.00635584 -0.00200201 -3.77278e-05)
(0.00808024 0.00192993 -0.000166791)
(0.00795244 0.000557024 -0.000110462)
(0.00787912 -0.000757285 -6.44988e-05)
(0.00784909 -0.00211447 -1.3756e-05)
(0.00958132 0.00195532 -0.00020324)
(0.00944878 0.000546503 -0.000134188)
(0.00936779 -0.000802288 -7.41886e-05)
(0.00933258 -0.00218429 -9.58836e-06)
(0.000335826 0.000192844 3.54473e-05)
(0.000164015 4.08642e-05 9.47275e-06)
(0.000147234 -5.08464e-05 -2.29618e-05)
(0.000277669 -0.000201551 -5.38342e-05)
(0.00129377 0.000747518 3.05789e-05)
(0.00103958 0.000205797 2.26479e-06)
(0.00100043 -0.000219709 -4.24613e-05)
(0.0011666 -0.000763706 -7.75691e-05)
(0.00239635 0.00117264 9.04463e-06)
(0.00217226 0.000352965 -1.34598e-05)
(0.00211923 -0.000374018 -5.04882e-05)
(0.00222977 -0.0012013 -7.91259e-05)
(0.00367957 0.00149409 -2.50921e-05)
(0.00348434 0.00045835 -3.2618e-05)
(0.00342185 -0.000499388 -5.24284e-05)
(0.00348328 -0.00154325 -6.56759e-05)
(0.00508071 0.00171532 -6.41887e-05)
(0.0049118 0.00052503 -5.29783e-05)
(0.00484256 -0.000598942 -5.17631e-05)
(0.00486296 -0.00179304 -4.56009e-05)
(0.00654529 0.0018533 -0.000102998)
(0.00639828 0.000559103 -7.33061e-05)
(0.00632497 -0.000675909 -5.15633e-05)
(0.00631428 -0.00196511 -2.57432e-05)
(0.00802888 0.001928 -0.000137358)
(0.00789836 0.000567462 -9.30868e-05)
(0.00782239 -0.000734107 -5.5071e-05)
(0.0077905 -0.00207569 -1.27079e-05)
(0.00951607 0.00195933 -0.000163961)
(0.00938167 0.00056019 -0.000111691)
(0.00929716 -0.000777302 -6.59524e-05)
(0.0092577 -0.00214471 -1.50876e-05)
(0.000337276 0.00019431 1.47558e-05)
(0.000161396 4.15367e-05 2.93255e-06)
(0.000143511 -5.0836e-05 -1.31807e-05)
(0.000275808 -0.000202255 -2.75002e-05)
(0.00129528 0.00074473 8.70499e-06)
(0.00103388 0.000206123 -4.21613e-06)
(0.00099273 -0.000215362 -2.67045e-05)
(0.00116247 -0.000755946 -4.37068e-05)
(0.00239382 0.00116614 -7.14513e-06)
(0.00216275 0.00035378 -1.59395e-05)
(0.00210757 -0.000365428 -3.36473e-05)
(0.00222141 -0.00118525 -4.59393e-05)
(0.00367005 0.00148571 -3.04914e-05)
(0.00346892 0.000460292 -2.97537e-05)
(0.00340432 -0.000486926 -3.66247e-05)
(0.00346809 -0.00152017 -3.8953e-05)
(0.00506184 0.00170722 -5.71512e-05)
(0.00488829 0.000528789 -4.44337e-05)
(0.00481702 -0.000583168 -3.78564e-05)
(0.00483864 -0.00176475 -2.76509e-05)
(0.00651555 0.00184739 -8.4025e-05)
(0.00636508 0.000565198 -5.93228e-05)
(0.00628983 -0.000657464 -3.94808e-05)
(0.00627924 -0.00193339 -1.64549e-05)
(0.00798775 0.00192559 -0.000108354)
(0.0078548 0.000576078 -7.41207e-05)
(0.00777686 -0.000713637 -4.391e-05)
(0.00774392 -0.00204197 -1.00706e-05)
(0.00946443 0.00196091 -0.000127326)
(0.00932817 0.000571338 -8.82497e-05)
(0.00924098 -0.000755263 -5.39581e-05)
(0.00919886 -0.00210995 -1.5106e-05)
(0.000337391 0.000194904 5.16119e-06)
(0.000159162 4.19167e-05 2.36323e-07)
(0.00014053 -5.06952e-05 -7.2761e-06)
(0.00027362 -0.00020218 -1.33842e-05)
(0.00129343 0.000742943 -5.66299e-07)
(0.00102776 0.000206648 -5.62294e-06)
(0.000985176 -0.000212084 -1.60885e-05)
(0.00115655 -0.000749939 -2.35293e-05)
(0.0023882 0.00116222 -1.17254e-05)
(0.00215277 0.000354894 -1.38682e-05)
(0.00209606 -0.000358864 -2.12694e-05)
(0.00221155 -0.0011734 -2.53762e-05)
(0.00365943 0.00148067 -2.71239e-05)
(0.00345445 0.00046236 -2.33014e-05)
(0.00338837 -0.000477309 -2.40358e-05)
(0.0034534 -0.00150313 -2.18436e-05)
(0.00504505 0.0017023 -4.45606e-05)
(0.00486834 0.000532212 -3.33001e-05)
(0.00479569 -0.000570919 -2.57372e-05)
(0.00481801 -0.00174365 -1.57164e-05)
(0.00649163 0.00184375 -6.22915e-05)
(0.0063387 0.000570268 -4.3549e-05)
(0.00626216 -0.000643087 -2.77737e-05)
(0.00625167 -0.00190941 -9.73066e-06)
(0.00795607 0.00192402 -7.85965e-05)
(0.00782129 0.000582881 -5.38858e-05)
(0.00774205 -0.000697647 -3.17845e-05)
(0.00770853 -0.00201613 -6.98938e-06)
(0.00942503 0.00196173 -9.13867e-05)
(0.00928721 0.000579884 -6.38556e-05)
(0.00919824 -0.000738006 -3.96927e-05)
(0.00915462 -0.00208301 -1.20659e-05)
(0.000337178 0.000195107 1.30836e-06)
(0.000157674 4.21267e-05 -4.71046e-07)
(0.000138578 -5.05439e-05 -3.60401e-06)
(0.000271946 -0.000201892 -5.88467e-06)
(0.00129119 0.000741877 -2.70618e-06)
(0.00102313 0.000207128 -4.26287e-06)
(0.000979644 -0.00020989 -8.56066e-06)
(0.0011517 -0.000745864 -1.1362e-05)
(0.00238311 0.00116008 -9.40354e-06)
(0.00214514 0.000355897 -9.18928e-06)
(0.00208746 -0.000354468 -1.17242e-05)
(0.00220372 -0.00116563 -1.25072e-05)
(0.00365098 0.00147797 -1.82417e-05)
(0.0034437 0.000464076 -1.47145e-05)
(0.00337669 -0.000470852 -1.36041e-05)
(0.00344234 -0.00149204 -1.08715e-05)
(0.00503273 0.00169971 -2.81724e-05)
(0.00485408 0.000534839 -2.05568e-05)
(0.00478057 -0.00056267 -1.49225e-05)
(0.00480326 -0.00172985 -7.87501e-06)
(0.00647487 0.00184185 -3.83158e-05)
(0.00632039 0.000573941 -2.65831e-05)
(0.00624305 -0.000633379 -1.64713e-05)
(0.00623262 -0.00189359 -5.00922e-06)
(0.00793437 0.00192324 -4.77329e-05)
(0.0077984 0.000587621 -3.27138e-05)
(0.00771836 -0.000686825 -1.91948e-05)
(0.00768456 -0.00199892 -4.03097e-06)
(0.0093982 0.00196224 -5.51465e-05)
(0.0092593 0.000585693 -3.86574e-05)
(0.00916927 -0.000726298 -2.41975e-05)
(0.00912487 -0.00206489 -7.60173e-06)
(0.000337004 0.00019516 1.71071e-07)
(0.000156944 4.22209e-05 -2.47137e-07)
(0.000137628 -5.04524e-05 -1.08307e-06)
(0.000271067 -0.000201687 -1.63639e-06)
(0.00128983 0.000741379 -1.26278e-06)
(0.00102071 0.000207404 -1.55429e-06)
(0.000976784 -0.000208791 -2.68084e-06)
(0.00114908 -0.000743809 -3.35807e-06)
(0.00238021 0.00115914 -3.50079e-06)
(0.0021411 0.000356476 -3.1954e-06)
(0.00208294 -0.000352269 -3.74164e-06)
(0.00219951 -0.00116179 -3.7407e-06)
(0.00364638 0.00147682 -6.38996e-06)
(0.00343804 0.000465038 -5.0183e-06)
(0.00337059 -0.000467621 -4.40175e-06)
(0.0034365 -0.00148658 -3.26731e-06)
(0.00502624 0.00169862 -9.62222e-06)
(0.00484667 0.000536262 -6.9433e-06)
(0.00477276 -0.000558537 -4.88793e-06)
(0.0047956 -0.00172305 -2.37256e-06)
(0.00646622 0.00184107 -1.293e-05)
(0.006311 0.000575873 -8.93465e-06)
(0.0062333 -0.000628507 -5.45619e-06)
(0.00622289 -0.00188577 -1.5303e-06)
(0.00792328 0.00192293 -1.60149e-05)
(0.00778674 0.000590061 -1.09683e-05)
(0.00770634 -0.000681384 -6.41438e-06)
(0.00767242 -0.00199036 -1.3088e-06)
(0.00938453 0.00196245 -1.84474e-05)
(0.00924511 0.000588646 -1.29435e-05)
(0.00915459 -0.000720395 -8.12129e-06)
(0.00910987 -0.00205583 -2.57968e-06)
)
;

boundaryField
{
    interface
    {
        type            tractionDisplacement;
        gradient        nonuniform List<vector> 
192
(
(0.0264942 0.0363572 0.000808756)
(0.0126684 0.0362229 0.00189178)
(0.0140611 0.0477701 0.000769095)
(0.0115411 0.0543718 -0.00122215)
(0.00979405 0.0590506 -0.00331182)
(0.00815681 0.0612908 -0.00528751)
(0.00720394 0.0619872 -0.00687021)
(0.00671282 0.0627941 -0.00774311)
(0.0269719 0.0387124 0.00055155)
(0.0146319 0.0362311 0.00141717)
(0.0142228 0.0463458 0.000911563)
(0.0118968 0.0527457 -0.000258937)
(0.0100222 0.0572952 -0.00160258)
(0.0084384 0.0597332 -0.00297342)
(0.00750756 0.0608037 -0.0041614)
(0.00698922 0.0623323 -0.0049176)
(0.0280458 0.0401231 0.000152671)
(0.015274 0.0363586 0.000466967)
(0.0146889 0.0456142 0.000199366)
(0.012123 0.05175 -0.000426919)
(0.0100494 0.0561556 -0.00126462)
(0.00834812 0.0586534 -0.00215817)
(0.00735882 0.0599175 -0.00298132)
(0.00668666 0.0618799 -0.00356872)
(0.0287193 0.0407672 -4.09597e-05)
(0.0157815 0.0363608 -1.27105e-05)
(0.0151738 0.0452521 -0.000225523)
(0.0124751 0.0511369 -0.000609475)
(0.0102645 0.055432 -0.00112444)
(0.00845683 0.0579283 -0.00169693)
(0.00739796 0.0592836 -0.00225565)
(0.0066307 0.0614799 -0.00269971)
(0.0290693 0.0410197 -0.000107802)
(0.0161142 0.036296 -0.000200285)
(0.0155196 0.0450139 -0.000386447)
(0.012761 0.0507587 -0.000647921)
(0.0104733 0.0549757 -0.000978546)
(0.00859365 0.0574504 -0.00135139)
(0.00748254 0.058837 -0.00173473)
(0.00664217 0.0611485 -0.00206876)
(0.0292387 0.0410948 -0.000106121)
(0.0163167 0.0362086 -0.000219387)
(0.0157441 0.0448414 -0.000367014)
(0.0129612 0.0505155 -0.000546231)
(0.0106336 0.0546856 -0.000759059)
(0.00871251 0.0571375 -0.000998519)
(0.00756948 0.0585266 -0.00125249)
(0.00668977 0.0608915 -0.00148563)
(0.0293139 0.0411034 -7.22069e-05)
(0.0164284 0.0361335 -0.000155348)
(0.0158747 0.0447244 -0.000249871)
(0.0130834 0.050365 -0.000356901)
(0.0107363 0.0545098 -0.000478788)
(0.00879339 0.056945 -0.000615138)
(0.00763282 0.0583285 -0.000761977)
(0.00673253 0.0607169 -0.000900437)
(0.029341 0.0410975 -2.50868e-05)
(0.0164767 0.0360917 -5.49763e-05)
(0.0159331 0.0446649 -8.74169e-05)
(0.0131395 0.050292 -0.000123199)
(0.0107848 0.054426 -0.000163175)
(0.00883257 0.0568528 -0.000207764)
(0.00766369 0.0582323 -0.000256021)
(0.00675368 0.0606268 -0.000301955)
(-0.0020978 0.0130472 0.0142301)
(-0.00406009 -0.00386727 0.00217781)
(-0.00200839 -0.00338393 0.00355469)
(0.000205511 -0.0046889 0.00169945)
(0.00283184 -0.00455504 0.000646341)
(0.00521602 -0.00406702 -0.000371768)
(0.00712174 -0.00335526 -0.00101989)
(0.00850884 -0.00219368 -0.00181781)
(-0.00504979 0.00484731 0.00314849)
(-0.00901454 -0.00150006 0.000679059)
(-0.00638406 -0.00125436 0.000474326)
(-0.00363192 -0.0016906 -0.000106006)
(-0.000551771 -0.00175137 -0.000478295)
(0.00221563 -0.00174856 -0.000799635)
(0.00453289 -0.00174055 -0.00103819)
(0.00641568 -0.00145626 -0.00156289)
(-0.00541805 -0.00658248 -0.00393639)
(-0.00948233 0.00100298 -0.000901275)
(-0.00698509 0.000981073 -0.00122639)
(-0.00421642 0.00141727 -0.000952823)
(-0.00114976 0.00117632 -0.000769414)
(0.00164906 0.00074189 -0.000547775)
(0.00404392 0.000171368 -0.000350897)
(0.00590944 -0.000440898 7.73698e-05)
(-0.00343843 -0.016537 -0.0140606)
(-0.0056361 0.00269161 -0.00251926)
(-0.00412081 0.00271194 -0.00423989)
(-0.00197844 0.00411302 -0.00266509)
(0.000560811 0.00380017 -0.00178418)
(0.00296128 0.00306229 -0.000860237)
(0.0049937 0.00193929 -0.000153469)
(0.00643294 0.000345276 0.000624488)
(0.0219708 -0.0350993 -0.00165509)
(0.00891718 -0.0358075 -0.00362287)
(0.00871448 -0.048487 -0.0031648)
(0.0053009 -0.0552228 -0.00138749)
(0.00290314 -0.0597724 0.000663249)
(0.000958263 -0.0616646 0.00276194)
(-0.000179825 -0.0617617 0.00460109)
(-0.000399758 -0.0609314 0.00588137)
(0.0215935 -0.037904 -0.000946677)
(0.010585 -0.03654 -0.00208275)
(0.00862482 -0.0472312 -0.00180897)
(0.00537971 -0.0536799 -0.000673118)
(0.00284593 -0.0579839 0.000711299)
(0.000903192 -0.0599762 0.00217829)
(-0.000280553 -0.0603493 0.0035052)
(-0.000455449 -0.0600225 0.00457479)
(0.0223216 -0.0392835 -0.00039413)
(0.0111657 -0.036864 -0.000798415)
(0.0091358 -0.0465567 -0.000610536)
(0.00570734 -0.0526866 1.61736e-05)
(0.00298789 -0.0567872 0.000894243)
(0.000901139 -0.0587845 0.00185712)
(-0.000406025 -0.0592783 0.00279295)
(-0.000772068 -0.0591089 0.00363929)
(0.0227482 -0.0397554 -0.000111136)
(0.0115839 -0.0368919 -0.000163507)
(0.00954388 -0.0462146 2.91219e-05)
(0.00601141 -0.0520721 0.000428199)
(0.00316023 -0.0560273 0.000976171)
(0.000953558 -0.0579784 0.00159898)
(-0.000465939 -0.0584855 0.00224056)
(-0.000950576 -0.0583369 0.00286986)
(0.0229233 -0.0398061 8.17012e-06)
(0.0118396 -0.036799 9.50688e-05)
(0.00980123 -0.045968 0.000279031)
(0.00621688 -0.0516853 0.000556539)
(0.00329014 -0.0555431 0.000911452)
(0.0010028 -0.0574398 0.00131818)
(-0.000497552 -0.057919 0.00175427)
(-0.00105709 -0.0577356 0.0022096)
(0.0229714 -0.0397079 4.31223e-05)
(0.0119817 -0.0366745 0.000156445)
(0.0099501 -0.045778 0.000306405)
(0.00634113 -0.0514305 0.000498057)
(0.00337306 -0.0552312 0.000727158)
(0.00103842 -0.0570842 0.000987248)
(-0.000511437 -0.0575279 0.00127176)
(-0.00110792 -0.0572988 0.00157939)
(0.0229705 -0.0395946 3.7658e-05)
(0.0120534 -0.0365699 0.000121952)
(0.010029 -0.0456452 0.000218861)
(0.00640962 -0.0512696 0.000333393)
(0.00342044 -0.0550402 0.000464414)
(0.00106043 -0.0568649 0.000611412)
(-0.000516546 -0.0572811 0.000773684)
(-0.00112981 -0.0570157 0.000951732)
(0.0229615 -0.0395265 1.42529e-05)
(0.0120827 -0.0365121 4.47006e-05)
(0.0100627 -0.0455767 7.80832e-05)
(0.00643972 -0.0511907 0.000116345)
(0.0034416 -0.0549485 0.000159215)
(0.00107076 -0.0567594 0.000206996)
(-0.000517756 -0.0571614 0.000259946)
(-0.00113769 -0.0568765 0.000318284)
(0.0626622 0.000342711 -0.00148788)
(0.0623895 0.000164271 -0.000777909)
(0.0621087 0.000537006 -0.000567973)
(0.0617989 0.000765132 -0.000345213)
(0.0614998 0.000939096 -0.000226144)
(0.0612564 0.00104321 -0.000146459)
(0.0610868 0.00110112 -8.49199e-05)
(0.0609984 0.00112293 -2.79399e-05)
(0.0580376 0.000386404 -0.000900421)
(0.0578552 0.000263686 -0.000657868)
(0.0575713 0.000386324 -0.000621672)
(0.0572234 0.000523389 -0.000516477)
(0.0568609 0.00064593 -0.000408203)
(0.0565579 0.000733813 -0.000294112)
(0.0563467 0.000789514 -0.000177373)
(0.0562409 0.000817096 -5.90835e-05)
(0.0572795 -0.00181473 -0.000372664)
(0.0570068 -0.001608 -0.000732095)
(0.0565499 -0.00153352 -0.000867295)
(0.0560691 -0.00146043 -0.000849681)
(0.0556242 -0.00139194 -0.000717833)
(0.0552689 -0.00133391 -0.000532138)
(0.0550268 -0.00129229 -0.000323915)
(0.0549052 -0.00126975 -0.000108388)
(0.0598918 -0.00253491 -0.000107707)
(0.0592624 -0.00218405 -0.00110504)
(0.0585075 -0.00225865 -0.0013584)
(0.0578247 -0.00227893 -0.00133772)
(0.0572601 -0.00227569 -0.00112464)
(0.0568375 -0.00225049 -0.000829759)
(0.0565588 -0.00222402 -0.000503313)
(0.0564203 -0.00220781 -0.000168263)
)
;
        traction        nonuniform List<vector> 
192
(
(23.0214 -0.802124 -2.32362)
(23.2323 -0.868179 -3.98531)
(23.2369 -1.15122 -4.73611)
(23.4524 -1.17649 -5.12619)
(23.8726 -0.954686 -5.30964)
(24.395 -0.401293 -5.302)
(24.7884 0.679897 -5.0438)
(23.6483 2.45176 -4.35667)
(25.8686 -1.14363 -1.65348)
(26.3992 -1.21794 -2.85007)
(27.127 -1.54365 -3.38739)
(28.0001 -1.55729 -3.65438)
(28.8611 -1.25539 -3.75733)
(29.4862 -0.5297 -3.70601)
(29.3237 0.880776 -3.46696)
(25.9846 3.06679 -2.96107)
(27.7055 -1.30331 -1.17305)
(28.1896 -1.35883 -2.01319)
(29.051 -1.69691 -2.36363)
(30.081 -1.69357 -2.52041)
(31.0282 -1.32995 -2.56441)
(31.5687 -0.487537 -2.50885)
(30.9764 1.11001 -2.3426)
(26.5213 3.45979 -2.03204)
(29.0233 -1.3838 -0.85013)
(29.4408 -1.41859 -1.46057)
(30.3112 -1.76266 -1.70364)
(31.3708 -1.74337 -1.80318)
(32.3138 -1.33669 -1.82415)
(32.7542 -0.417838 -1.78093)
(31.8723 1.29289 -1.67273)
(26.7491 3.72507 -1.47394)
(29.9705 -1.42874 -0.607732)
(30.3486 -1.44577 -1.04733)
(31.204 -1.79068 -1.21859)
(32.2584 -1.75978 -1.28487)
(33.1772 -1.32436 -1.29666)
(33.5378 -0.355964 -1.26739)
(32.4629 1.42802 -1.19921)
(26.8933 3.91155 -1.06864)
(30.6407 -1.45501 -0.41025)
(30.9891 -1.45819 -0.708848)
(31.8282 -1.80206 -0.824204)
(32.8692 -1.76316 -0.867753)
(33.7653 -1.30924 -0.87514)
(34.0698 -0.309101 -0.857037)
(32.8685 1.5229 -0.815551)
(26.999 4.03991 -0.731624)
(31.0664 -1.47022 -0.236061)
(31.402 -1.4641 -0.409056)
(32.2307 -1.80657 -0.475317)
(33.2603 -1.76261 -0.500148)
(34.1411 -1.29745 -0.504365)
(34.4101 -0.277874 -0.494539)
(33.131 1.58399 -0.470656)
(27.0761 4.11905 -0.420409)
(31.2654 -1.47642 -0.0763043)
(31.5946 -1.4652 -0.132564)
(32.4146 -1.8066 -0.153855)
(33.4368 -1.76058 -0.161794)
(34.3096 -1.29013 -0.163146)
(34.5622 -0.259775 -0.159997)
(33.2345 1.61919 -0.15155)
(27.073 4.15393 -0.133496)
(2.80467 0.496439 10.8579)
(4.8569 0.954769 7.5808)
(5.84431 0.924816 4.50921)
(6.48666 0.770213 2.25534)
(6.98865 0.676294 0.822005)
(7.43528 0.739956 0.142425)
(7.95199 0.977136 0.186591)
(8.94796 1.24729 1.0054)
(1.86677 0.468531 9.64838)
(3.39367 0.922551 8.28589)
(4.00419 1.04287 6.47753)
(4.32312 0.904178 5.00914)
(4.56528 0.695056 4.05728)
(4.84024 0.539881 3.60538)
(5.30572 0.479056 3.57065)
(6.53708 0.391419 3.64424)
(1.47286 0.399968 8.77423)
(2.86681 0.725987 8.29423)
(3.4564 0.921766 7.17056)
(3.7303 0.825711 6.14548)
(3.91009 0.60275 5.48021)
(4.13008 0.377949 5.18031)
(4.55802 0.202911 5.18816)
(5.75869 0.0183772 5.26035)
(1.39049 0.407395 7.65174)
(2.84276 0.641129 7.4456)
(3.54104 0.848136 6.52615)
(3.87138 0.761495 5.64066)
(4.06793 0.533691 5.05321)
(4.28561 0.2768 4.75235)
(4.69352 0.0139344 4.66914)
(5.80871 -0.325793 4.76619)
(-4.51237 0.451213 0.342777)
(-3.44645 0.740279 0.601906)
(-2.28337 0.920058 0.636161)
(-1.37205 0.8619 0.628972)
(-0.676439 0.682242 0.68219)
(-0.0191507 0.461379 0.832161)
(1.06847 0.0984562 1.08697)
(3.91702 -1.24879 1.40916)
(-5.21687 0.328562 -0.0656474)
(-4.98443 0.511794 -0.102221)
(-4.52597 0.693471 -0.16678)
(-4.02535 0.727174 -0.207083)
(-3.54005 0.673135 -0.180156)
(-2.96358 0.583268 -0.078979)
(-1.90982 0.378826 0.076385)
(1.25871 -0.851323 0.2903)
(-5.62496 0.280344 -0.13999)
(-5.59746 0.399003 -0.214027)
(-5.33813 0.572829 -0.244828)
(-4.96726 0.657776 -0.243593)
(-4.52257 0.683649 -0.195831)
(-3.92328 0.678144 -0.104963)
(-2.82447 0.563418 0.00442418)
(0.283406 -0.513731 0.0998399)
(-5.91547 0.266837 -0.132523)
(-5.94253 0.35125 -0.199114)
(-5.76242 0.521919 -0.205591)
(-5.44049 0.641893 -0.17995)
(-4.99089 0.725893 -0.123449)
(-4.33643 0.782326 -0.0447478)
(-3.1433 0.714036 0.0322847)
(-0.145369 -0.26464 0.0665594)
(-6.12678 0.265087 -0.102124)
(-6.16953 0.335094 -0.151078)
(-6.02084 0.508813 -0.144517)
(-5.71372 0.654511 -0.111079)
(-5.2469 0.778212 -0.0591716)
(-4.54755 0.87371 1.878e-05)
(-3.30657 0.831841 0.0451501)
(-0.394755 -0.0850084 0.0497789)
(-6.26718 0.267357 -0.0676643)
(-6.31138 0.33374 -0.098052)
(-6.17123 0.513336 -0.0869346)
(-5.86378 0.676777 -0.056631)
(-5.38038 0.824888 -0.0166214)
(-4.65274 0.942217 0.0225373)
(-3.39295 0.91424 0.0456204)
(-0.545737 0.0353577 0.0364429)
(-6.35044 0.270157 -0.0371791)
(-6.39235 0.337273 -0.0526965)
(-6.25234 0.522469 -0.0436212)
(-5.94009 0.697 -0.0234044)
(-5.44312 0.858373 0.00108774)
(-4.70158 0.986726 0.0228697)
(-3.43743 0.964227 0.0331977)
(-0.634581 0.107405 0.0209967)
(-6.38771 0.271977 -0.0116643)
(-6.42713 0.340083 -0.0162689)
(-6.28637 0.528242 -0.0129236)
(-5.97156 0.707922 -0.00599875)
(-5.46996 0.87537 0.00203134)
(-4.72183 1.00857 0.00897149)
(-3.45445 0.986622 0.01189)
(-0.686314 0.141167 0.00626728)
(9.45808 -1.26271 -2.07097)
(9.02023 0.530043 -1.71657)
(9.06028 1.94654 -1.33456)
(9.1969 3.05327 -1.03183)
(9.33527 3.875 -0.780514)
(9.44973 4.45571 -0.554503)
(9.53048 4.81355 -0.341512)
(9.56608 4.91722 -0.118606)
(6.78744 -3.20843 -0.585044)
(5.84149 -2.31391 -0.526353)
(5.63052 -1.33432 -0.395036)
(5.5913 -0.525863 -0.305373)
(5.59722 0.0713478 -0.238442)
(5.61498 0.491488 -0.174375)
(5.63594 0.765192 -0.106691)
(5.65809 0.921721 -0.0356998)
(5.7586 -4.6872 0.047524)
(4.66431 -4.07992 -0.017596)
(4.31932 -3.34876 -0.0115653)
(4.17301 -2.77213 -0.0200099)
(4.09712 -2.35423 -0.0288065)
(4.05394 -2.06534 -0.0286877)
(4.03017 -1.88172 -0.018287)
(4.01963 -1.77746 -0.0052394)
(5.63404 -4.35435 0.452496)
(4.55683 -3.84392 0.22014)
(4.1551 -3.40232 0.120689)
(3.95336 -3.04015 0.0663025)
(3.83081 -2.78004 0.0309403)
(3.75244 -2.60357 0.0107029)
(3.70452 -2.4952 0.00235822)
(3.67856 -2.44497 0.000393601)
)
;
        pressure        uniform 0;
        value           nonuniform List<vector> 
192
(
(0.000611325 0.000640375 0.000328313)
(0.00133053 0.00121685 0.000287639)
(0.00247786 0.00177609 0.000196561)
(0.00379076 0.00217735 5.87287e-05)
(0.00525186 0.0024494 -8.22257e-05)
(0.00678272 0.00260611 -0.000211179)
(0.00833507 0.00267892 -0.000316214)
(0.0098777 0.00270921 -0.000393522)
(0.000651969 0.000667715 0.000165447)
(0.00143154 0.00121098 0.00016647)
(0.00253759 0.00177036 0.000113429)
(0.00382005 0.00217449 2.29191e-05)
(0.00523708 0.00244896 -7.64567e-05)
(0.00672583 0.00260943 -0.000170985)
(0.00824017 0.00268631 -0.0002507)
(0.00975429 0.00272384 -0.000309899)
(0.000681001 0.000691111 7.90481e-05)
(0.00147345 0.00120618 7.93221e-05)
(0.00257248 0.0017523 4.57357e-05)
(0.00383403 0.0021526 -1.24591e-05)
(0.00522396 0.00242791 -7.98975e-05)
(0.00668418 0.00259363 -0.000146245)
(0.00817223 0.0026789 -0.000204057)
(0.00966491 0.00272881 -0.000247849)
(0.000694817 0.000702433 3.49353e-05)
(0.00149104 0.00120203 3.042e-05)
(0.00258602 0.00173829 6.2256e-06)
(0.00383551 0.0021333 -3.27106e-05)
(0.00520902 0.00240822 -7.82443e-05)
(0.006651 0.0025774 -0.00012421)
(0.00812135 0.00266905 -0.000165554)
(0.00959895 0.00272783 -0.000197707)
(0.000700643 0.000707056 1.34082e-05)
(0.00149671 0.00119843 6.20143e-06)
(0.00258782 0.00172881 -1.19757e-05)
(0.00382956 0.0021202 -3.85904e-05)
(0.00519276 0.00239442 -6.9383e-05)
(0.00662297 0.00256552 -0.000100917)
(0.00808128 0.00266106 -0.000130038)
(0.00954746 0.00272527 -0.000153186)
(0.000702875 0.000708589 3.83468e-06)
(0.00149739 0.00119555 -3.30863e-06)
(0.002585 0.00172274 -1.6313e-05)
(0.00382144 0.00211211 -3.39518e-05)
(0.00517797 0.00238587 -5.40489e-05)
(0.00660054 0.00255797 -7.4773e-05)
(0.00805069 0.0026556 -9.42526e-05)
(0.00950865 0.00272287 -0.000109957)
(0.000703601 0.0007089 4.05777e-07)
(0.00149655 0.00119355 -4.64803e-06)
(0.00258154 0.00171914 -1.25269e-05)
(0.00381452 0.00210753 -2.2703e-05)
(0.00516693 0.00238108 -3.41572e-05)
(0.00658479 0.00255366 -4.60051e-05)
(0.00802978 0.00265235 -5.72576e-05)
(0.00948236 0.0027212 -6.6402e-05)
(0.000703766 0.000708878 -1.42513e-07)
(0.00149579 0.00119252 -1.94998e-06)
(0.00257938 0.00171745 -4.59351e-06)
(0.00381063 0.00210547 -7.92994e-06)
(0.00516105 0.00237895 -1.16619e-05)
(0.00657663 0.00255173 -1.5527e-05)
(0.00801908 0.00265083 -1.92152e-05)
(0.00946895 0.00272029 -2.22218e-05)
(0.000253926 0.000348999 0.000496079)
(0.00112143 0.000715722 0.000291214)
(0.00227699 0.00113667 0.000231381)
(0.00364907 0.00143909 9.52487e-05)
(0.00516483 0.00165433 -3.27487e-05)
(0.00674596 0.00178913 -0.000149732)
(0.00833404 0.00186214 -0.000243085)
(0.00990015 0.00189686 -0.000319456)
(5.6539e-05 9.66751e-05 0.000134443)
(0.000860795 0.000185563 0.000102318)
(0.0020231 0.000326196 5.23751e-05)
(0.00342148 0.000418926 -4.58085e-06)
(0.00496107 0.000476131 -5.88452e-05)
(0.00656356 0.000501592 -0.000108495)
(0.00816809 0.000502713 -0.000153349)
(0.0097335 0.000493511 -0.000199948)
(3.84359e-05 -0.000137314 -0.000163749)
(0.000817642 -0.000229444 -0.000168615)
(0.00196458 -0.000383217 -0.000162072)
(0.00335408 -0.000510259 -0.000140246)
(0.00488738 -0.000622022 -0.000116135)
(0.00648648 -0.000715438 -9.47824e-05)
(0.008089 -0.000791814 -8.12639e-05)
(0.00964671 -0.000851729 -7.45638e-05)
(0.000194279 -0.000413344 -0.000528159)
(0.000982889 -0.000767244 -0.000384755)
(0.00209211 -0.00120395 -0.000367449)
(0.00343485 -0.0015415 -0.000267776)
(0.00492986 -0.00180809 -0.000169906)
(0.00649929 -0.00200352 -7.88991e-05)
(0.00808175 -0.00214162 -9.14724e-06)
(0.0096317 -0.00224141 3.24338e-05)
(0.000511895 -0.000645372 -0.000373089)
(0.00116481 -0.00124848 -0.000398551)
(0.00225256 -0.00184394 -0.00035401)
(0.00352584 -0.0022832 -0.000251806)
(0.00495914 -0.00260274 -0.000139313)
(0.00647425 -0.00281261 -3.36219e-05)
(0.00801708 -0.00293789 5.02847e-05)
(0.00954629 -0.00300737 9.81448e-05)
(0.000537228 -0.000668433 -0.000201875)
(0.00126697 -0.00124116 -0.000249451)
(0.00231418 -0.00182972 -0.000232721)
(0.00355599 -0.00226701 -0.000171629)
(0.00494397 -0.00258095 -9.69481e-05)
(0.00641537 -0.00278526 -2.46775e-05)
(0.00791941 -0.00290502 3.2149e-05)
(0.00942201 -0.00297228 6.14567e-05)
(0.000555884 -0.000690152 -0.000107094)
(0.00130187 -0.00123379 -0.000143624)
(0.00234351 -0.00180287 -0.000139171)
(0.00356454 -0.00222955 -0.000105852)
(0.00492496 -0.00253622 -6.01928e-05)
(0.00636711 -0.00273682 -1.45137e-05)
(0.00784402 -0.00285545 2.11559e-05)
(0.00932292 -0.00292315 3.59027e-05)
(0.000562022 -0.000698493 -5.52234e-05)
(0.0013114 -0.00122485 -7.96129e-05)
(0.00234907 -0.00177898 -7.87618e-05)
(0.00355842 -0.00219415 -6.03234e-05)
(0.00490246 -0.00249338 -3.33987e-05)
(0.0063262 -0.00268984 -5.7559e-06)
(0.00778467 -0.00280676 1.52991e-05)
(0.00924582 -0.00287392 2.07857e-05)
(0.000562349 -0.000699832 -2.73981e-05)
(0.00131046 -0.00121593 -4.25185e-05)
(0.00234392 -0.00175985 -4.24514e-05)
(0.0035458 -0.00216623 -3.19963e-05)
(0.00487977 -0.00245904 -1.62577e-05)
(0.00629177 -0.00265139 2.23317e-08)
(0.0077377 -0.00276595 1.18578e-05)
(0.00918565 -0.00283165 1.2514e-05)
(0.000560763 -0.000698529 -1.28451e-05)
(0.00130632 -0.00120837 -2.15738e-05)
(0.00233592 -0.00174562 -2.15461e-05)
(0.00353266 -0.00214601 -1.56179e-05)
(0.00486018 -0.00243404 -6.62688e-06)
(0.00626465 -0.00262297 2.60994e-06)
(0.00770214 -0.00273523 8.90767e-06)
(0.00914077 -0.00279924 7.67642e-06)
(0.000559077 -0.000696825 -5.41394e-06)
(0.00130237 -0.00120299 -9.83758e-06)
(0.00232908 -0.00173619 -9.7714e-06)
(0.00352246 -0.00213291 -6.70409e-06)
(0.00484601 -0.00241785 -2.06983e-06)
(0.00624588 -0.00260441 2.63342e-06)
(0.0076781 -0.00271494 5.64008e-06)
(0.00911075 -0.00277759 4.29492e-06)
(0.000558085 -0.000695768 -1.45822e-06)
(0.00130011 -0.00120021 -2.79931e-06)
(0.0023253 -0.0017315 -2.76466e-06)
(0.003517 -0.00212647 -1.813e-06)
(0.00483862 -0.00240991 -3.82374e-07)
(0.00623628 -0.00259526 1.05714e-06)
(0.00766595 -0.00270488 1.94053e-06)
(0.00909565 -0.00276679 1.39887e-06)
(0.0105771 0.00192857 -0.000315332)
(0.0104468 0.00194674 -0.000258153)
(0.0103577 0.00196203 -0.00021034)
(0.0102886 0.0019689 -0.000168276)
(0.0102332 0.00197265 -0.000130153)
(0.0101907 0.00197477 -9.32174e-05)
(0.0101618 0.00197601 -5.6208e-05)
(0.010147 0.00197649 -1.87966e-05)
(0.0103788 0.000516544 -0.000191667)
(0.0102577 0.000533977 -0.000164593)
(0.0101684 0.000551332 -0.000141959)
(0.010097 0.000566732 -0.000118147)
(0.0100389 0.000579412 -9.33523e-05)
(0.00999418 0.000589057 -6.7532e-05)
(0.00996363 0.000595562 -4.08746e-05)
(0.00994812 0.00059886 -1.3682e-05)
(0.0102888 -0.000868902 -8.01892e-05)
(0.0101691 -0.000846873 -8.62622e-05)
(0.0100747 -0.000821457 -8.50298e-05)
(0.00999802 -0.000795558 -7.65734e-05)
(0.00993628 -0.000772662 -6.2931e-05)
(0.0098891 -0.000754679 -4.63444e-05)
(0.0098571 -0.000742452 -2.82464e-05)