/*--------------------------------*- C++ -*----------------------------------*\
| =========                 |                                                 |
| \\      /  F ield         | foam-extend: Open Source CFD                    |
|  \\    /   O peration     | Version:     3.1                                |
|   \\  /    A nd           | Web:         http://www.extend-project.de       |
|    \\/     M anipulation  |                                                 |
\*---------------------------------------------------------------------------*/
FoamFile
{
    version     2.0;
    format      ascii;
    class       volVectorField;
    location    "2.9";
    object      D_0;
}
// * * * * * * * * * * * * * * * * * * * * * * * * * * * * * * * * * * * * * //

dimensions      [0 1 0 0 0 0 0];

internalField   nonuniform List<vector> 
256
(
(0.000283965 0.00018838 0.000323348)
(0.000121135 3.65113e-05 9.65628e-05)
(0.000107494 -5.60087e-05 -0.00011659)
(0.00024068 -0.000210012 -0.000358646)
(0.00118853 0.000774351 0.000270529)
(0.000987333 0.000206692 9.63802e-05)
(0.000949722 -0.000246244 -0.000159665)
(0.00106863 -0.000813634 -0.000359611)
(0.00233466 0.00119431 0.000194428)
(0.00213315 0.000345402 4.96811e-05)
(0.00208172 -0.000402697 -0.000148048)
(0.00217478 -0.00125753 -0.0003199)
(0.00369811 0.00151628 8.19055e-05)
(0.00351664 0.000443885 7.30413e-07)
(0.00345606 -0.000537991 -0.000128339)
(0.00350955 -0.00161831 -0.000238135)
(0.00520141 0.00173119 -3.25247e-05)
(0.00503857 0.000501394 -4.808e-05)
(0.00497187 -0.000649239 -0.000105106)
(0.00499317 -0.00188525 -0.000149328)
(0.00677319 0.00185981 -0.000136214)
(0.00662739 0.000525829 -9.281e-05)
(0.00655694 -0.000739396 -8.51315e-05)
(0.0065532 -0.00207451 -6.80375e-05)
(0.00835708 0.00192282 -0.000220603)
(0.008223 0.000525545 -0.000133601)
(0.00814967 -0.000810477 -7.2715e-05)
(0.00813022 -0.00220068 -5.52732e-06)
(0.00992404 0.00194145 -0.000285618)
(0.0097835 0.000511324 -0.000172265)
(0.00970293 -0.00086432 -6.99533e-05)
(0.00968103 -0.00228207 2.7748e-05)
(0.000319338 0.000186103 0.000161438)
(0.000161464 3.74239e-05 5.00108e-05)
(0.000147978 -5.09407e-05 -6.80799e-05)
(0.000271707 -0.000197853 -0.000193827)
(0.00126718 0.000767669 0.000153208)
(0.00104114 0.000207929 4.87274e-05)
(0.00100618 -0.00023673 -0.000105056)
(0.00115252 -0.000797331 -0.000227793)
(0.00239502 0.00120566 0.00010761)
(0.00219371 0.000353761 1.92101e-05)
(0.00214501 -0.000401501 -0.000107037)
(0.0022404 -0.00125978 -0.000214062)
(0.00372572 0.00153292 3.24745e-05)
(0.00354661 0.000455832 -1.63215e-05)
(0.00348862 -0.000537097 -9.78971e-05)
(0.00354161 -0.00162242 -0.000165998)
(0.00518648 0.0017518 -4.94471e-05)
(0.00502892 0.000516665 -5.30292e-05)
(0.00496439 -0.000646085 -8.47516e-05)
(0.00498147 -0.00188695 -0.000107203)
(0.00671539 0.00188161 -0.000126109)
(0.00657596 0.000543335 -8.78148e-05)
(0.00650739 -0.000731624 -7.32327e-05)
(0.00649764 -0.00206946 -5.1853e-05)
(0.00826095 0.00194392 -0.000190071)
(0.00813469 0.000543915 -0.000119927)
(0.00806343 -0.000797119 -6.78084e-05)
(0.0080364 -0.00218673 -1.02957e-05)
(0.0097998 0.00196072 -0.000238595)
(0.00966738 0.000529142 -0.00014915)
(0.00958922 -0.000846118 -7.22399e-05)
(0.0095601 -0.00225969 6.88477e-06)
(0.000335262 0.000191966 7.88627e-05)
(0.000168115 3.98766e-05 2.36035e-05)
(0.000152907 -5.16024e-05 -4.01281e-05)
(0.000281791 -0.000202514 -0.000104519)
(0.00130218 0.000761087 7.65187e-05)
(0.00105688 0.000207417 1.87459e-05)
(0.00102014 -0.000229929 -6.74743e-05)
(0.00118167 -0.000786216 -0.000136545)
(0.00242569 0.00119634 4.73241e-05)
(0.00220992 0.000354856 -1.72977e-06)
(0.0021593 -0.000392446 -7.43943e-05)
(0.00226531 -0.00124183 -0.00013425)
(0.00373872 0.00152288 -2.21327e-06)
(0.00354999 0.000458841 -2.72763e-05)
(0.00348983 -0.000525121 -7.22978e-05)
(0.00354825 -0.00159796 -0.000108005)
(0.00517496 0.00174427 -5.84179e-05)
(0.00501096 0.000522515 -5.42205e-05)
(0.00494403 -0.00063102 -6.65957e-05)
(0.00496294 -0.00185788 -7.23199e-05)
(0.00667681 0.00187849 -0.00011281)
(0.00653339 0.000552412 -8.04839e-05)
(0.00646236 -0.000713339 -6.15982e-05)
(0.00645167 -0.00203672 -3.76098e-05)
(0.00819683 0.00194669 -0.000159465)
(0.00806874 0.000556088 -0.000105282)
(0.00799515 -0.000775881 -6.13513e-05)
(0.00796485 -0.00215145 -1.25875e-05)
(0.00971621 0.00197037 -0.000194869)
(0.00958378 0.000544041 -0.000127992)
(0.00950276 -0.000822575 -7.00341e-05)
(0.00946728 -0.00222298 -7.40298e-06)
(0.000340799 0.000195311 3.65181e-05)
(0.000166873 4.11233e-05 9.79283e-06)
(0.000150159 -5.19389e-05 -2.3497e-05)
(0.000282878 -0.000205109 -5.53031e-05)
(0.00131404 0.000756879 3.26678e-05)
(0.00105682 0.000207196 3.12406e-06)
(0.00101772 -0.000224613 -4.30635e-05)
(0.00118686 -0.000777209 -7.94572e-05)
(0.00243415 0.00118666 1.20083e-05)
(0.00220766 0.000354981 -1.20117e-05)
(0.00215453 -0.000382665 -5.0725e-05)
(0.00226705 -0.00122257 -8.09153e-05)
(0.00373704 0.00151088 -2.13615e-05)
(0.00354003 0.000460235 -3.05256e-05)
(0.00347731 -0.000511327 -5.2074e-05)
(0.00353988 -0.00157067 -6.69595e-05)
(0.00515873 0.00173312 -5.97241e-05)
(0.00498865 0.000526149 -5.01984e-05)
(0.00491913 -0.000613723 -5.06985e-05)
(0.00494 -0.00182503 -4.61787e-05)
(0.00664376 0.00187072 -9.77935e-05)
(0.00649614 0.000558992 -6.97995e-05)
(0.00642257 -0.00069311 -4.97309e-05)
(0.0064119 -0.00200039 -2.55302e-05)
(0.00814701 0.00194407 -0.000131379)
(0.00801632 0.000565861 -8.88085e-05)
(0.00794018 -0.000753346 -5.24432e-05)
(0.00790809 -0.00211331 -1.16843e-05)
(0.00965251 0.00197361 -0.000157117)
(0.00951836 0.000557008 -0.00010659)
(0.00943393 -0.000798284 -6.25276e-05)
(0.00939428 -0.00218409 -1.3271e-05)
(0.000342312 0.000196823 1.54333e-05)
(0.000164279 4.17946e-05 3.14292e-06)
(0.00014649 -5.19628e-05 -1.35121e-05)
(0.000281178 -0.000205919 -2.84103e-05)
(0.00131587 0.000754109 1.01342e-05)
(0.00105141 0.000207456 -3.60244e-06)
(0.00101038 -0.000220369 -2.70559e-05)
(0.00118326 -0.000769669 -4.49063e-05)
(0.00243222 0.00118008 -5.03847e-06)
(0.00219873 0.00035564 -1.48655e-05)
(0.00214353 -0.000374262 -3.37272e-05)
(0.00225952 -0.0012068 -4.70772e-05)
(0.00372834 0.00150231 -2.77534e-05)
(0.00352545 0.000461926 -2.81658e-05)
(0.00346071 -0.000499133 -3.62672e-05)
(0.00352575 -0.00154791 -3.97487e-05)
(0.00514084 0.00172472 -5.37912e-05)
(0.00496617 0.000529569 -4.22909e-05)
(0.00489471 -0.000598291 -3.69661e-05)
(0.00491691 -0.00179711 -2.79536e-05)
(0.00661511 0.00186441 -8.00401e-05)
(0.0064641 0.000564675 -5.65942e-05)
(0.00638867 -0.000675067 -3.80063e-05)
(0.0063782 -0.00196908 -1.61869e-05)
(0.00810704 0.00194118 -0.000103734)
(0.00797401 0.000574006 -7.07803e-05)
(0.00789597 -0.000733325 -4.1828e-05)
(0.00786291 -0.00208003 -9.20298e-06)
(0.00960205 0.00197464 -0.000122031)
(0.00946613 0.000567631 -8.42792e-05)
(0.0093791 -0.000776734 -5.12764e-05)
(0.00933686 -0.0021498 -1.3651e-05)
(0.000342446 0.000197446 5.5798e-06)
(0.000162046 4.21738e-05 3.71555e-07)
(0.000143531 -5.18451e-05 -7.47196e-06)
(0.000279085 -0.000205912 -1.39275e-05)
(0.00131421 0.00075235 3.67289e-07)
(0.00104544 0.000207946 -5.20662e-06)
(0.00100303 -0.000217162 -1.62812e-05)
(0.00117767 -0.000763819 -2.42549e-05)
(0.00242696 0.00117614 -1.03128e-05)
(0.0021891 0.000356667 -1.31234e-05)
(0.00213242 -0.000367824 -2.12719e-05)
(0.00225018 -0.00119515 -2.60594e-05)
(0.00371825 0.00149717 -2.52483e-05)
(0.00351152 0.000463843 -2.21851e-05)
(0.00344536 -0.000489695 -2.37352e-05)
(0.00351176 -0.00153111 -2.23021e-05)
(0.00512472 0.00171963 -4.22203e-05)
(0.00494692 0.000532778 -3.17796e-05)
(0.00487414 -0.000586268 -2.50651e-05)
(0.00489712 -0.00177627 -1.58468e-05)
(0.00659195 0.00186052 -5.94836e-05)
(0.00643853 0.000569477 -4.16017e-05)
(0.00636186 -0.000660957 -2.66912e-05)
(0.00635156 -0.00194538 -9.47411e-06)
(0.00807618 0.00193929 -7.53213e-05)
(0.00794137 0.000580496 -5.14974e-05)
(0.00786209 -0.000717634 -3.02746e-05)
(0.00782852 -0.00205449 -6.32067e-06)
(0.00956348 0.00197507 -8.76296e-05)
(0.00942606 0.000575824 -6.10236e-05)
(0.00933731 -0.000759801 -3.77661e-05)
(0.00929363 -0.00212316 -1.09937e-05)
(0.000342249 0.000197665 1.53744e-06)
(0.000160558 4.23831e-05 -3.94698e-07)
(0.00014159 -5.17081e-05 -3.70643e-06)
(0.000277467 -0.000205666 -6.17249e-06)
(0.00131207 0.000751307 -2.17695e-06)
(0.0010409 0.000208408 -4.0203e-06)
(0.000997614 -0.000215012 -8.65423e-06)
(0.00117301 -0.000759844 -1.17483e-05)
(0.00242207 0.001174 -8.58915e-06)
(0.00218168 0.000357624 -8.74985e-06)
(0.00212406 -0.000363506 -1.17043e-05)
(0.00224267 -0.00118752 -1.28673e-05)
(0.00371012 0.00149443 -1.71463e-05)
(0.00350109 0.000465476 -1.40509e-05)
(0.00343404 -0.000483347 -1.34053e-05)
(0.00350113 -0.00152017 -1.11028e-05)
(0.0051128 0.00171694 -2.67916e-05)
(0.00493308 0.000535284 -1.96483e-05)
(0.00485948 -0.000578158 -1.45041e-05)
(0.00488289 -0.00176264 -7.91743e-06)
(0.00657567 0.00185848 -3.66476e-05)
(0.00642072 0.000572993 -2.54159e-05)
(0.0063433 -0.000651412 -1.58093e-05)
(0.00633311 -0.00192974 -4.82686e-06)
(0.008055 0.00193832 -4.57797e-05)
(0.00791903 0.000585049 -3.1281e-05)
(0.007839 -0.000706993 -1.82793e-05)
(0.00780518 -0.00203746 -3.60759e-06)
(0.00953719 0.00197535 -5.29053e-05)
(0.00939872 0.000581417 -3.69616e-05)
(0.00930895 -0.000748291 -2.30368e-05)
(0.00926453 -0.00210523 -6.94266e-06)
(0.000342082 0.000197724 2.44146e-07)
(0.000159828 4.24769e-05 -2.22359e-07)
(0.000140644 -5.16233e-05 -1.1148e-06)
(0.000276615 -0.00020548 -1.72638e-06)
(0.00131076 0.000750821 -1.09112e-06)
(0.00103852 0.000208678 -1.47447e-06)
(0.000994806 -0.000213934 -2.70846e-06)
(0.00117048 -0.000757838 -3.47903e-06)
(0.00241927 0.00117307 -3.23451e-06)
(0.00217773 0.000358183 -3.05003e-06)
(0.00211966 -0.000361344 -3.73146e-06)
(0.0022386 -0.00118374 -3.85266e-06)
(0.00370567 0.00149327 -6.02958e-06)
(0.00349558 0.000466401 -4.79807e-06)
(0.00342811 -0.000480168 -4.3324e-06)
(0.00349549 -0.00151479 -3.33714e-06)
(0.0051065 0.00171582 -9.16585e-06)
(0.00492588 0.000536652 -6.64108e-06)
(0.00485189 -0.000574091 -4.74586e-06)
(0.00487548 -0.00175592 -2.38061e-06)
(0.00656725 0.00185764 -1.23768e-05)
(0.00641157 0.000574852 -8.54582e-06)
(0.00633381 -0.000646617 -5.23338e-06)
(0.00632367 -0.001922 -1.46458e-06)
(0.00804416 0.00193792 -1.53661e-05)
(0.00790764 0.000587401 -1.04908e-05)
(0.00782726 -0.000701637 -6.10757e-06)
(0.00779335 -0.00202899 -1.16378e-06)
(0.00952377 0.00197545 -1.77028e-05)
(0.00938481 0.000584267 -1.2379e-05)
(0.00929457 -0.00074248 -7.73362e-06)
(0.00924984 -0.00209626 -2.35721e-06)
)
;

boundaryField
{
    interface
    {
        type            tractionDisplacement;
        gradient        nonuniform List<vector> 
192
(
(0.0012504 8.90088e-08 -6.27537e-06)
(0.00125106 2.32615e-07 -7.48491e-06)
(0.0012496 5.25483e-07 -7.47543e-06)
(0.00124673 8.45864e-07 -7.27339e-06)
(0.00124237 1.23213e-06 -6.95727e-06)
(0.00123606 1.75972e-06 -6.48764e-06)
(0.00122701 2.65546e-06 -5.77696e-06)
(0.00121237 4.4017e-06 -4.57372e-06)
(0.00127836 1.58951e-07 -4.18175e-06)
(0.00127813 3.40733e-07 -4.98588e-06)
(0.00127606 6.81215e-07 -4.94782e-06)
(0.00127234 1.07974e-06 -4.77587e-06)
(0.0012667 1.57845e-06 -4.5173e-06)
(0.00125852 2.26978e-06 -4.14438e-06)
(0.00124668 3.43378e-06 -3.60938e-06)
(0.00122774 5.61186e-06 -2.83028e-06)
(0.0012969 2.0556e-07 -2.92788e-06)
(0.00129628 4.22773e-07 -3.50022e-06)
(0.00129375 8.10625e-07 -3.4639e-06)
(0.00128935 1.27314e-06 -3.32432e-06)
(0.00128271 1.85533e-06 -3.11929e-06)
(0.00127309 2.65704e-06 -2.83373e-06)
(0.00125927 3.97152e-06 -2.44508e-06)
(0.00123752 6.33252e-06 -1.9299e-06)
(0.00131022 2.36666e-07 -2.12187e-06)
(0.00130939 4.82114e-07 -2.53952e-06)
(0.00130652 9.12912e-07 -2.50899e-06)
(0.00130157 1.426e-06 -2.39958e-06)
(0.00129415 2.06871e-06 -2.2415e-06)
(0.00128345 2.94405e-06 -2.02736e-06)
(0.00126819 4.35007e-06 -1.74696e-06)
(0.00124452 6.81512e-06 -1.39307e-06)
(0.00131978 2.59652e-07 -1.51365e-06)
(0.00131882 5.26652e-07 -1.81147e-06)
(0.00131569 9.91037e-07 -1.78752e-06)
(0.00131032 1.54199e-06 -1.7059e-06)
(0.0013023 2.22756e-06 -1.58946e-06)
(0.00129082 3.15197e-06 -1.43486e-06)
(0.00127453 4.6157e-06 -1.23756e-06)
(0.00124954 7.14639e-06 -9.95544e-07)
(0.00132642 2.76131e-07 -1.01788e-06)
(0.00132536 5.58719e-07 -1.21811e-06)
(0.00132204 1.04754e-06 -1.20117e-06)
(0.00131638 1.62535e-06 -1.14496e-06)
(0.00130794 2.34023e-06 -1.06545e-06)
(0.0012959 3.29691e-06 -9.61283e-07)
(0.00127891 4.79762e-06 -8.30326e-07)
(0.00125304 7.37104e-06 -6.71486e-07)
(0.00133063 2.87035e-07 -5.86262e-07)
(0.00132951 5.79709e-07 -7.01327e-07)
(0.00132607 1.08477e-06 -6.91544e-07)
(0.00132021 1.68017e-06 -6.58841e-07)
(0.00131151 2.41383e-06 -6.12817e-07)
(0.00129912 3.39091e-06 -5.5309e-07)
(0.00128169 4.9157e-06 -4.77739e-07)
(0.00125526 7.51474e-06 -3.82182e-07)
(0.00133265 2.92824e-07 -1.90632e-07)
(0.00133149 5.90077e-07 -2.27698e-07)
(0.001328 1.10224e-06 -2.24725e-07)
(0.00132205 1.70638e-06 -2.14081e-07)
(0.00131322 2.44881e-06 -1.99112e-07)
(0.00130067 3.43614e-06 -1.79825e-07)
(0.00128303 4.97701e-06 -1.55001e-07)
(0.00125626 7.58408e-06 -1.20792e-07)
(1.09308e-05 7.23725e-08 0.00114973)
(1.30776e-05 1.27851e-07 0.00114889)
(1.31548e-05 1.98457e-07 0.00114824)
(1.29808e-05 2.92527e-07 0.0011473)
(1.2715e-05 4.04896e-07 0.00114595)
(1.23458e-05 5.36693e-07 0.00114413)
(1.18492e-05 6.86119e-07 0.00114175)
(1.13079e-05 8.03277e-07 0.00113874)
(1.00547e-05 2.11513e-08 0.0010997)
(1.20342e-05 3.77271e-08 0.00109949)
(1.21003e-05 5.67502e-08 0.0010993)
(1.19489e-05 8.24212e-08 0.00109902)
(1.17254e-05 1.12105e-07 0.00109863)
(1.14243e-05 1.44074e-07 0.00109811)
(1.10382e-05 1.71046e-07 0.00109746)
(1.0708e-05 1.6209e-07 0.00109671)
(1.00418e-05 -2.70428e-08 0.00105277)
(1.20188e-05 -4.56996e-08 0.00105298)
(1.20844e-05 -6.9588e-08 0.00105321)
(1.1933e-05 -1.00411e-07 0.00105354)
(1.171e-05 -1.3707e-07 0.001054)
(1.141e-05 -1.80176e-07 0.00105463)
(1.10258e-05 -2.2871e-07 0.00105544)
(1.06983e-05 -2.6355e-07 0.00105648)
(1.09054e-05 -8.04064e-08 0.00100291)
(1.30452e-05 -1.36982e-07 0.00100376)
(1.312e-05 -2.11694e-07 0.00100444)
(1.29457e-05 -3.09713e-07 0.00100544)
(1.26804e-05 -4.27843e-07 0.00100685)
(1.23126e-05 -5.69225e-07 0.00100876)
(1.18188e-05 -7.38586e-07 0.00101129)
(1.12818e-05 -8.99354e-07 0.00101456)
(-0.000903606 -9.63547e-08 6.85177e-06)
(-0.000902881 -2.51564e-07 8.12936e-06)
(-0.000904348 -5.72774e-07 8.11249e-06)
(-0.00090722 -9.20022e-07 7.89131e-06)
(-0.000911576 -1.33875e-06 7.54482e-06)
(-0.000917854 -1.91504e-06 7.02877e-06)
(-0.00092686 -2.91625e-06 6.2435e-06)
(-0.00094155 -4.95238e-06 4.89368e-06)
(-0.000876477 -1.72336e-07 4.42126e-06)
(-0.000876696 -3.68407e-07 5.23941e-06)
(-0.000878763 -7.40343e-07 5.19106e-06)
(-0.000882477 -1.17274e-06 5.00456e-06)
(-0.000888098 -1.71422e-06 4.72407e-06)
(-0.000896245 -2.4707e-06 4.31857e-06)
(-0.000908024 -3.77243e-06 3.7342e-06)
(-0.000927051 -6.30466e-06 2.87503e-06)
(-0.000858904 -2.23527e-07 3.02815e-06)
(-0.000859518 -4.57468e-07 3.59773e-06)
(-0.000862036 -8.80012e-07 3.55226e-06)
(-0.00086643 -1.38156e-06 3.40144e-06)
(-0.000873045 -2.0136e-06 3.18024e-06)
(-0.000882602 -2.89053e-06 2.87178e-06)
(-0.000896351 -4.35875e-06 2.45083e-06)
(-0.000918167 -7.09737e-06 1.88924e-06)
(-0.00084644 -2.57774e-07 2.16159e-06)
(-0.000847264 -5.21851e-07 2.57079e-06)
(-0.000850126 -9.90306e-07 2.53274e-06)
(-0.00085506 -1.54618e-06 2.41474e-06)
(-0.000862449 -2.24345e-06 2.24466e-06)
(-0.000873069 -3.20009e-06 2.01421e-06)
(-0.000888236 -4.76849e-06 1.71208e-06)
(-0.000911949 -7.62329e-06 1.32891e-06)
(-0.000837595 -2.83051e-07 1.52365e-06)
(-0.00083856 -5.70096e-07 1.81175e-06)
(-0.000841682 -1.07445e-06 1.78199e-06)
(-0.000847026 -1.67087e-06 1.69407e-06)
(-0.000854997 -2.41412e-06 1.56902e-06)
(-0.000866396 -3.42352e-06 1.40308e-06)
(-0.00088257 -5.05455e-06 1.19126e-06)
(-0.000907581 -7.98206e-06 9.30362e-07)
(-0.000831511 -3.01135e-07 1.01526e-06)
(-0.000832571 -6.04765e-07 1.20705e-06)
(-0.000835879 -1.13523e-06 1.18601e-06)
(-0.000841519 -1.76034e-06 1.1255e-06)
(-0.000849902 -2.53489e-06 1.04024e-06)
(-0.000861845 -3.57878e-06 9.28656e-07)
(-0.000878708 -5.24964e-06 7.88457e-07)
(-0.000904589 -8.22417e-06 6.17775e-07)
(-0.000827684 -3.13066e-07 5.81157e-07)
(-0.000828802 -6.27424e-07 6.90621e-07)
(-0.00083223 -1.17521e-06 6.7841e-07)
(-0.000838059 -1.81904e-06 6.43226e-07)
(-0.000846706 -2.61357e-06 5.93914e-07)
(-0.000858993 -3.67914e-06 5.30029e-07)
(-0.000876286 -5.37574e-06 4.49542e-07)
(-0.000902707 -8.37837e-06 3.46949e-07)
(-0.000825854 -3.19376e-07 1.88378e-07)
(-0.000827006 -6.38536e-07 2.23531e-07)
(-0.000830489 -1.19398e-06 2.19753e-07)
(-0.000836409 -1.8471e-06 2.083e-07)
(-0.000845182 -2.65092e-06 1.92268e-07)
(-0.000857629 -3.72725e-06 1.71653e-07)
(-0.000875121 -5.44102e-06 1.45178e-07)
(-0.000901879 -8.45211e-06 1.08378e-07)
(1.13077e-05 -0.00113956 -9.86196e-07)
(1.18661e-05 -0.00114323 -8.3836e-07)
(1.23873e-05 -0.00114616 -6.69958e-07)
(1.27835e-05 -0.00114847 -5.21832e-07)
(1.30767e-05 -0.00115024 -3.91006e-07)
(1.32868e-05 -0.00115152 -2.72808e-07)
(1.34306e-05 -0.00115236 -1.66012e-07)
(1.35055e-05 -0.00115283 -5.78898e-08)
(1.07333e-05 -0.00109747 -3.23353e-07)
(1.10861e-05 -0.00109878 -2.9851e-07)
(1.14951e-05 -0.00109989 -2.50886e-07)
(1.18192e-05 -0.0011008 -2.02547e-07)
(1.20647e-05 -0.00110151 -1.55909e-07)
(1.22434e-05 -0.00110204 -1.10734e-07)
(1.23687e-05 -0.0011024 -6.67961e-08)
(1.24387e-05 -0.00110257 -2.25708e-08)
(1.07338e-05 -0.00105712 1.29308e-07)
(1.10872e-05 -0.00105654 1.24779e-07)
(1.1494e-05 -0.00105609 9.54584e-08)
(1.18153e-05 -0.00105577 6.74789e-08)
(1.20582e-05 -0.00105555 4.5425e-08)
(1.22347e-05 -0.00105541 2.87838e-08)
(1.23586e-05 -0.00105532 1.65634e-08)
(1.24277e-05 -0.00105528 5.73912e-09)
(1.13263e-05 -0.00101504 7.95589e-07)
(1.18919e-05 -0.00101212 6.58727e-07)
(1.24086e-05 -0.00100987 5.05786e-07)
(1.27978e-05 -0.00100817 3.78169e-07)
(1.3084e-05 -0.00100692 2.73189e-07)
(1.32882e-05 -0.00100604 1.85436e-07)
(1.34278e-05 -0.00100548 1.12584e-07)
(1.35008e-05 -0.00100515 4.00141e-08)
)
;
        traction        nonuniform List<vector> 
192
(
(26.7942 0.00190733 -0.134472)
(26.8085 0.00498462 -0.160391)
(26.7772 0.0112604 -0.160188)
(26.7157 0.0181257 -0.155858)
(26.6222 0.0264028 -0.149084)
(26.487 0.0377082 -0.139021)
(26.293 0.0569026 -0.123792)
(25.9793 0.0943222 -0.0980083)
(27.3935 0.0034061 -0.0896089)
(27.3884 0.00730142 -0.10684)
(27.3441 0.0145975 -0.106025)
(27.2645 0.0231373 -0.10234)
(27.1437 0.033824 -0.0967993)
(26.9683 0.0486382 -0.0888082)
(26.7147 0.0735809 -0.077344)
(26.3087 0.120254 -0.0606489)
(27.7907 0.00440487 -0.0627403)
(27.7773 0.00905942 -0.0750048)
(27.7233 0.0173705 -0.0742265)
(27.6289 0.0272816 -0.0712353)
(27.4865 0.039757 -0.066842)
(27.2806 0.0569365 -0.0607228)
(26.9843 0.085104 -0.0523946)
(26.5182 0.135697 -0.0413549)
(28.0762 0.00507141 -0.0454687)
(28.0584 0.010331 -0.0544183)
(27.997 0.0195624 -0.0537641)
(27.8909 0.0305572 -0.0514196)
(27.7317 0.0443295 -0.0480322)
(27.5026 0.0630869 -0.0434433)
(27.1755 0.0932158 -0.0374349)
(26.6683 0.146038 -0.0298516)
(28.2811 0.00556398 -0.0324353)
(28.2603 0.0112854 -0.0388172)
(28.1933 0.0212365 -0.038304)
(28.0783 0.0330426 -0.0365551)
(27.9065 0.0477333 -0.0340599)
(27.6604 0.0675421 -0.0307469)
(27.3113 0.0989078 -0.0265191)
(26.7759 0.153137 -0.0213331)
(28.4234 0.00591708 -0.0218117)
(28.4006 0.0119725 -0.0261023)
(28.3295 0.0224473 -0.0257394)
(28.2081 0.034829 -0.0245348)
(28.0273 0.0501478 -0.0228311)
(27.7694 0.0706481 -0.0205989)
(27.4052 0.102806 -0.0177927)
(26.8508 0.157951 -0.014389)
(28.5135 0.00615074 -0.0125628)
(28.4894 0.0124223 -0.0150284)
(28.4158 0.023245 -0.0148188)
(28.2903 0.0360036 -0.014118)
(28.1037 0.0517248 -0.0131318)
(27.8383 0.0726623 -0.0118519)
(27.4647 0.105336 -0.0102373)
(26.8984 0.16103 -0.00818961)
(28.5567 0.00627479 -0.00408497)
(28.532 0.0126445 -0.00487923)
(28.4571 0.0236193 -0.00481554)
(28.3296 0.0365652 -0.00458744)
(28.1404 0.0524745 -0.00426669)
(27.8714 0.0736316 -0.00385339)
(27.4935 0.10665 -0.00332146)
(26.9199 0.162516 -0.00258841)
(0.234232 0.00155084 24.637)
(0.280235 0.00273965 24.6191)
(0.281888 0.00425265 24.6052)
(0.278159 0.00626843 24.5849)
(0.272465 0.00867633 24.5561)
(0.264553 0.0115006 24.5171)
(0.253912 0.0147025 24.4661)
(0.242312 0.0172131 24.4015)
(0.215458 0.000453242 23.565)
(0.257875 0.000808438 23.5605)
(0.259292 0.00121608 23.5564)
(0.256048 0.00176617 23.5504)
(0.251258 0.00240225 23.542)
(0.244806 0.00308729 23.5309)
(0.236532 0.00366528 23.517)
(0.229457 0.00347336 23.5009)
(0.215181 -0.00057949 22.5593)
(0.257546 -0.000979277 22.564)
(0.258951 -0.00149117 22.5688)
(0.255708 -0.00215167 22.5758)
(0.250929 -0.00293722 22.5858)
(0.244501 -0.00386092 22.5992)
(0.236268 -0.00490093 22.6167)
(0.22925 -0.00564749 22.6389)
(0.233687 -0.00172299 21.4909)
(0.279539 -0.00293532 21.5091)
(0.281144 -0.00453631 21.5238)
(0.277407 -0.00663671 21.5451)
(0.271722 -0.00916805 21.5754)
(0.263841 -0.0121977 21.6164)
(0.253261 -0.0158268 21.6704)
(0.241752 -0.0192719 21.7405)
(-19.363 -0.00206474 0.146824)
(-19.3475 -0.00539066 0.174201)
(-19.3789 -0.0122737 0.173839)
(-19.4404 -0.0197148 0.1691)
(-19.5338 -0.0286875 0.161675)
(-19.6683 -0.0410367 0.150616)
(-19.8613 -0.0624911 0.133789)
(-20.1761 -0.106122 0.104865)
(-18.7816 -0.00369291 0.0947413)
(-18.7863 -0.00789443 0.112273)
(-18.8306 -0.0158645 0.111237)
(-18.9102 -0.0251302 0.107241)
(-19.0307 -0.0367334 0.10123)
(-19.2052 -0.0529437 0.0925409)
(-19.4577 -0.0808377 0.0800185)
(-19.8654 -0.1351 0.0616077)
(-18.4051 -0.00478987 0.064889)
(-18.4182 -0.00980289 0.0770943)
(-18.4722 -0.0188574 0.0761199)
(-18.5664 -0.0296049 0.0728881)
(-18.7081 -0.0431486 0.0681481)
(-18.9129 -0.06194 0.0615382)
(-19.2075 -0.0934018 0.0525179)
(-19.675 -0.152086 0.0404836)
(-18.138 -0.00552373 0.0463197)
(-18.1556 -0.0111825 0.0550883)
(-18.217 -0.0212208 0.054273)
(-18.3227 -0.0331325 0.0517444)
(-18.481 -0.048074 0.0480998)
(-18.7086 -0.0685733 0.0431617)
(-19.0336 -0.102182 0.0366875)
(-19.5418 -0.163356 0.0284766)
(-17.9485 -0.00606538 0.0326497)
(-17.9691 -0.0122163 0.0388231)
(-18.036 -0.023024 0.0381856)
(-18.1506 -0.0358044 0.0363015)
(-18.3214 -0.0517312 0.0336219)
(-18.5656 -0.0733611 0.0300661)
(-18.9122 -0.108312 0.0255271)
(-19.4482 -0.171044 0.0199363)
(-17.8181 -0.00645288 0.0217555)
(-17.8408 -0.0129593 0.0258653)
(-17.9117 -0.0243264 0.0254145)
(-18.0325 -0.0377215 0.0241178)
(-18.2122 -0.0543192 0.0222908)
(-18.4681 -0.0766882 0.0198998)
(-18.8294 -0.112492 0.0168955)
(-19.3841 -0.176232 0.013238)
(-17.7361 -0.00670857 0.0124534)
(-17.7601 -0.0134448 0.014799)
(-17.8335 -0.0251831 0.0145374)
(-17.9584 -0.0389794 0.0137834)
(-18.1437 -0.0560052 0.0127267)
(-18.407 -0.0788387 0.0113578)
(-18.7775 -0.115194 0.00963305)
(-19.3437 -0.179537 0.00743463)
(-17.6969 -0.00684377 0.00403667)
(-17.7216 -0.0136829 0.00478996)
(-17.7962 -0.0255853 0.00470898)
(-17.9231 -0.0395806 0.00446357)
(-18.111 -0.0568055 0.00412003)
(-18.3778 -0.0798697 0.00367828)
(-18.7526 -0.116593 0.00311095)
(-19.326 -0.181117 0.00232238)
(0.242309 -24.4191 -0.0211328)
(0.254273 -24.4977 -0.0179648)
(0.265441 -24.5605 -0.0143563)
(0.273931 -24.61 -0.0111821)
(0.280215 -24.6479 -0.00837869)
(0.284717 -24.6755 -0.00584588)
(0.287799 -24.6935 -0.0035574)
(0.289404 -24.7035 -0.0012405)
(0.229999 -23.5171 -0.006929)
(0.237559 -23.5453 -0.00639663)
(0.246324 -23.5691 -0.00537612)
(0.253268 -23.5885 -0.00434029)
(0.25853 -23.6038 -0.00334091)
(0.262358 -23.6152 -0.00237288)
(0.265043 -23.6228 -0.00143135)
(0.266544 -23.6265 -0.00048366)
(0.23001 -22.6525 0.00277088)
(0.237582 -22.6402 0.00267384)
(0.2463 -22.6305 0.00204554)
(0.253185 -22.6237 0.00144598)
(0.25839 -22.6189 0.000973392)
(0.262173 -22.6158 0.000616796)
(0.264827 -22.614 0.00035493)
(0.266308 -22.6131 0.000122981)
(0.242706 -21.7508 0.0170483)
(0.254825 -21.6882 0.0141156)
(0.265899 -21.64 0.0108383)
(0.274239 -21.6037 0.00810362)
(0.280372 -21.5769 0.00585405)
(0.284748 -21.558 0.00397363)
(0.287739 -21.5459 0.00241252)
(0.289303 -21.5389 0.000857445)
)
;
        pressure        uniform 0;
        value           nonuniform List<vector> 
192
(
(0.000620028 0.000648645 0.000334037)
(0.00134903 0.00123323 0.000295607)
(0.00251266 0.00179964 0.00020578)
(0.00384395 0.0022052 6.84482e-05)
(0.00532487 0.00247913 -7.20706e-05)
(0.00687565 0.0026357 -0.000200435)
(0.0084472 0.00270695 -0.00030456)
(0.0100079 0.00273492 -0.000380463)
(0.000661348 0.000676597 0.000168691)
(0.00145251 0.00122706 0.000171844)
(0.00257494 0.00179331 0.000120214)
(0.0038759 0.00220156 3.05653e-05)
(0.00531262 0.0024778 -6.80993e-05)
(0.00682118 0.00263803 -0.000161881)
(0.00835465 0.00271328 -0.000240677)
(0.00988691 0.00274839 -0.000298673)
(0.000690972 0.000700518 8.09988e-05)
(0.00149566 0.00122237 8.29292e-05)
(0.00261151 0.00177498 5.06172e-05)
(0.00389174 0.00217915 -6.59846e-06)
(0.00530142 0.00245605 -7.31868e-05)
(0.00678142 0.00262143 -0.000138699)
(0.0082886 0.00270499 -0.000195615)
(0.00979948 0.00275236 -0.000238381)
(0.000705118 0.000712152 3.61518e-05)
(0.00151395 0.00121838 3.28731e-05)
(0.00262609 0.00176093 9.71879e-06)
(0.00389449 0.00215958 -2.83164e-05)
(0.00528786 0.00243591 -7.302e-05)
(0.00674969 0.00260462 -0.000118182)
(0.00823922 0.00269447 -0.000158715)
(0.00973504 0.00275058 -0.000190018)
(0.000711124 0.000716955 1.41804e-05)
(0.00152001 0.00121492 7.86323e-06)
(0.00262853 0.00175148 -9.52086e-06)
(0.00388938 0.00214637 -3.53985e-05)
(0.00527258 0.00242187 -6.5485e-05)
(0.00672273 0.00259238 -9.63335e-05)
(0.00820027 0.00268601 -0.000124782)
(0.00968468 0.00274743 -0.000147262)
(0.000713437 0.00071859 4.31391e-06)
(0.00152092 0.00121215 -2.22969e-06)
(0.00262611 0.00174547 -1.46802e-05)
(0.00388181 0.00213826 -3.17812e-05)
(0.00525846 0.0024132 -5.13512e-05)
(0.00670104 0.00258461 -7.15602e-05)
(0.00817047 0.00268025 -9.05419e-05)
(0.00964668 0.00274464 -0.000105768)
(0.000714221 0.000718958 6.69021e-07)
(0.00152021 0.00121021 -4.03732e-06)
(0.00262288 0.00174192 -1.159e-05)
(0.00387521 0.00213369 -2.14414e-05)
(0.00524783 0.00240836 -3.25727e-05)
(0.00668577 0.0025802 -4.41034e-05)
(0.00815006 0.00267682 -5.50513e-05)
(0.00962091 0.00274273 -6.39088e-05)
(0.000714412 0.000718964 -5.84806e-08)
(0.00151951 0.00120922 -1.75223e-06)
(0.00262082 0.00174027 -4.28789e-06)
(0.00387147 0.00213164 -7.51602e-06)
(0.00524213 0.00240621 -1.11395e-05)
(0.00667783 0.00257822 -1.48977e-05)
(0.00813961 0.00267523 -1.84835e-05)
(0.00960775 0.0027417 -2.13946e-05)
(0.000256966 0.000354681 0.000504169)
(0.00113594 0.000726378 0.000298452)
(0.00230761 0.0011525 0.000239892)
(0.00369869 0.00145797 0.000103927)
(0.00523487 0.00167462 -2.37666e-05)
(0.00683649 0.00180943 -0.00014026)
(0.00844418 0.00188151 -0.00023278)
(0.0100284 0.00191487 -0.000307734)
(5.67965e-05 9.83964e-05 0.000136732)
(0.00087222 0.000188345 0.000105244)
(0.00205106 0.000330264 5.60191e-05)
(0.00346918 0.000423264 -2.0357e-07)
(0.00502989 0.000480033 -5.36451e-05)
(0.00665352 0.000504548 -0.000102353)
(0.00827821 0.000504472 -0.000146065)
(0.00986217 0.000493962 -0.000191235)
(3.84888e-05 -0.000139562 -0.000166481)
(0.000828781 -0.000233133 -0.000170919)
(0.00199219 -0.000389739 -0.000163426)
(0.00340141 -0.000519435 -0.000140197)
(0.00495587 -0.00063372 -0.000114584)
(0.00657617 -0.00072935 -9.17414e-05)
(0.00819895 -0.000807575 -7.6769e-05)
(0.00977548 -0.000869009 -6.85817e-05)
(0.000196736 -0.000420449 -0.000537042)
(0.000996452 -0.000779397 -0.000391415)
(0.00212151 -0.00122288 -0.000373571)
(0.00348321 -0.00156579 -0.000271781)
(0.00499879 -0.00183668 -0.000171759)
(0.00658899 -0.00203529 -7.87155e-05)
(0.00819146 -0.00217563 -7.22304e-06)
(0.00976021 -0.00227695 3.58323e-05)
(0.000519338 -0.000655523 -0.000379911)
(0.00118157 -0.00126788 -0.00040629)
(0.00228504 -0.00187259 -0.000361107)
(0.0035764 -0.00231852 -0.000257054)
(0.00502954 -0.00264276 -0.000142483)
(0.00656491 -0.00285553 -3.48345e-05)
(0.00812753 -0.00298248 5.07232e-05)
(0.00967561 -0.00305305 9.99993e-05)
(0.000545642 -0.000679472 -0.000206091)
(0.00128667 -0.00126123 -0.000254875)
(0.00234955 -0.00185916 -0.000237955)
(0.00360948 -0.0023033 -0.000175724)
(0.00501714 -0.002622 -9.95991e-05)
(0.00650866 -0.00282931 -2.58707e-05)
(0.00803246 -0.00295088 3.22962e-05)
(0.009554 -0.00301937 6.28539e-05)
(0.000565123 -0.000702115 -0.00010972)
(0.00132321 -0.00125452 -0.000147202)
(0.00238098 -0.00183292 -0.000142765)
(0.0036203 -0.00226646 -0.000108786)
(0.00500042 -0.00257797 -6.21625e-05)
(0.00646268 -0.00278166 -1.5424e-05)
(0.00795935 -0.00290221 2.12999e-05)
(0.00945722 -0.00297126 3.70817e-05)
(0.000571779 -0.000711069 -5.68645e-05)
(0.00133375 -0.00124611 -8.19333e-05)
(0.00238795 -0.00180954 -8.114e-05)
(0.00361582 -0.00223157 -6.23005e-05)
(0.0049797 -0.00253566 -3.47323e-05)
(0.00642361 -0.00273527 -6.33032e-06)
(0.00790186 -0.00285416 1.55266e-05)
(0.00938201 -0.00292273 2.18209e-05)
(0.000572431 -0.000712799 -2.84148e-05)
(0.00133346 -0.00123757 -4.39904e-05)
(0.00238373 -0.00179082 -4.39711e-05)
(0.00360435 -0.00220407 -3.32589e-05)
(0.0049583 -0.00250173 -1.70879e-05)
(0.00639058 -0.00269725 -2.74326e-07)
(0.00785633 -0.00281381 1.21475e-05)
(0.00932329 -0.00288093 1.34007e-05)
(0.00057105 -0.000711739 -1.34524e-05)
(0.00132972 -0.00123027 -2.24651e-05)
(0.00237633 -0.00177688 -2.24657e-05)
(0.00359197 -0.00218415 -1.63727e-05)
(0.0049396 -0.00247705 -7.09997e-06)
(0.00636443 -0.00266914 2.49301e-06)
(0.00782181 -0.00278339 9.18948e-06)
(0.00927946 -0.00284884 8.36685e-06)
(0.000569487 -0.000710178 -5.73596e-06)
(0.001326 -0.00122505 -1.03135e-05)
(0.00236985 -0.00176765 -1.02603e-05)
(0.00358224 -0.00217125 -7.09916e-06)
(0.00492599 -0.00246106 -2.3043e-06)
(0.00634628 -0.00265077 2.60418e-06)
(0.00779843 -0.00276329 5.84247e-06)
(0.00925011 -0.00282737 4.73496e-06)
(0.000568554 -0.000709188 -1.55898e-06)
(0.00132386 -0.00122235 -2.9486e-06)
(0.00236624 -0.00176305 -2.91757e-06)
(0.003577 -0.00216491 -1.93527e-06)
(0.00491887 -0.00245322 -4.52244e-07)