/*--------------------------------*- C++ -*----------------------------------*\
| =========                 |                                                 |
| \\      /  F ield         | foam-extend: Open Source CFD                    |
|  \\    /   O peration     | Version:     3.1                                |
|   \\  /    A nd           | Web:         http://www.extend-project.de       |
|    \\/     M anipulation  |                                                 |
\*---------------------------------------------------------------------------*/
FoamFile
{
    version     2.0;
    format      ascii;
    class       volSymmTensorField;
    location    "2.9";
    object      epsilon;
}
// * * * * * * * * * * * * * * * * * * * * * * * * * * * * * * * * * * * * * //

dimensions      [0 0 0 0 0 0 0];

internalField   nonuniform List<symmTensor> 
256
(
(-0.00692895 0.00914791 -0.000407634 0.0264213 0.00479184 -0.00282171)
(-0.00230983 0.00778801 -0.00122011 0.00628047 0.00166331 -0.00104653)
(0.0012025 0.00726544 -0.00124767 -0.00713943 -0.0023569 0.00120761)
(0.00544658 0.00772608 -0.000506483 -0.0260884 -0.00577807 0.00300602)
(-0.0122131 0.00381816 -0.00047481 0.0169501 -0.00150354 -0.00424274)
(-0.0048929 0.0100343 -0.00192639 0.00649974 -0.000671045 -0.00154704)
(0.00221707 0.00982464 -0.00199252 -0.00538857 0.000364269 0.00195811)
(0.00940021 0.00367722 -0.000699609 -0.0159163 0.00108067 0.00480572)
(-0.0102454 0.00466953 -0.000195568 0.0157663 -0.000821523 -0.0024471)
(-0.00501904 0.00970878 -0.00131871 0.0058869 -0.000337241 -0.000812242)
(0.00160765 0.00971325 -0.00136601 -0.00435885 4.60053e-05 0.00143027)
(0.00699651 0.00471707 -0.000421527 -0.0143169 0.000494864 0.0033265)
(-0.00880402 0.00409109 -0.000193472 0.0117388 -0.00118496 -0.00140357)
(-0.00452567 0.00885823 -0.00108243 0.00464003 -0.000410558 -0.000359609)
(0.000909066 0.00891473 -0.00111658 -0.00303531 0.000177606 0.00119031)
(0.00530441 0.00420955 -0.000437456 -0.0101403 0.000941411 0.00251484)
(-0.00715753 0.00354978 -0.000138072 0.00837165 -0.00109096 -0.000253372)
(-0.00395054 0.00762948 -0.000864926 0.00347702 -0.000356563 0.000101877)
(0.000337819 0.00772103 -0.000894083 -0.00195259 0.000171593 0.000868789)
(0.00357589 0.00372463 -0.000383739 -0.00675126 0.000921259 0.00151478)
(-0.00585666 0.00274208 -0.000146605 0.00548173 -0.000954082 0.000664005)
(-0.00344226 0.00611947 -0.000746553 0.00245162 -0.00031279 0.000467737)
(-7.77167e-05 0.00626065 -0.000758994 -0.00108624 0.000153215 0.000592592)
(0.00226488 0.00301715 -0.000369002 -0.00389706 0.000847789 0.000671128)
(-0.00501943 0.00177804 -0.000219947 0.00354528 -0.000787432 0.00141424)
(-0.00314843 0.00445126 -0.000707545 0.00169876 -0.000303095 0.000783294)
(-0.000356636 0.00460104 -0.000689464 -0.000451745 9.70273e-05 0.000347435)
(0.00144895 0.00217985 -0.000381523 -0.00189146 0.000666851 -5.3242e-05)
(-0.00524898 0.00099122 -0.000304586 0.00253166 -0.000433658 0.00200177)
(-0.00377025 0.00251898 -0.000668725 0.00147956 -0.000195051 0.00104416)
(-0.00026767 0.0024677 -0.00066042 4.55833e-05 -8.21401e-06 0.000128005)
(0.00146329 0.00107162 -0.000446009 -0.000822126 0.000241298 -0.0006493)
(-0.00697516 0.0104098 -0.000257875 0.0256223 0.00296209 -0.00186662)
(-0.00213039 0.00938021 -0.000980462 0.00605908 0.000942152 -0.000702037)
(0.00110593 0.00893005 -0.00106792 -0.00623556 -0.00168186 0.000817814)
(0.0054517 0.00905545 -0.000463131 -0.0246202 -0.003959 0.00209978)
(-0.0122421 0.00393459 -0.000373181 0.0184804 -0.000552309 -0.00333496)
(-0.00450094 0.0103681 -0.00180467 0.00723673 -0.000370126 -0.00122978)
(0.00203713 0.0102505 -0.00198881 -0.00622558 -0.000140854 0.00157399)
(0.00942714 0.00394127 -0.000806031 -0.0176018 -6.09611e-05 0.003989)
(-0.0100536 0.00410752 -0.000154228 0.0158475 -0.00129195 -0.00240133)
(-0.00450764 0.00891625 -0.00142472 0.00596726 -0.000531151 -0.000839958)
(0.00145532 0.00894243 -0.00161885 -0.00449764 0.000210774 0.00137104)
(0.00690468 0.00415729 -0.000648161 -0.0144442 0.000922425 0.00334107)
(-0.00845852 0.00340934 1.02546e-05 0.0118423 -0.00161195 -0.00127292)
(-0.00395921 0.00770337 -0.00101089 0.00469884 -0.000572332 -0.000402911)
(0.000756066 0.00775836 -0.00121203 -0.00308866 0.000379047 0.00106818)
(0.0050699 0.00351108 -0.000530064 -0.0102257 0.00140987 0.00239178)
(-0.00680776 0.00280322 0.000159965 0.00829685 -0.00160667 -0.000159211)
(-0.00339675 0.00638762 -0.000681168 0.00346708 -0.000537434 1.35057e-05)
(0.000207195 0.00646747 -0.000884236 -0.00187593 0.000431461 0.000755103)
(0.0033283 0.00295507 -0.000395024 -0.00659853 0.00153107 0.00139573)
(-0.0055165 0.00207225 0.000233899 0.00537054 -0.00141447 0.000793778)
(-0.00291894 0.00500218 -0.000463376 0.00242271 -0.000467312 0.000372886)
(-0.000199972 0.00512695 -0.000650479 -0.000938325 0.000395028 0.000479885)
(0.00200101 0.00232904 -0.000297101 -0.00364767 0.00142316 0.000510885)
(-0.00470315 0.00123284 0.000222869 0.003404 -0.0010988 0.00155131)
(-0.00267181 0.00358355 -0.000363679 0.00163461 -0.000394632 0.000675662)
(-0.000470938 0.00372711 -0.000521423 -0.000263298 0.00027524 0.000259716)
(0.00118526 0.00165584 -0.000241472 -0.0015622 0.00111062 -0.00020544)
(-0.00494255 0.00073262 0.000147306 0.00244319 -0.000599328 0.00211914)
(-0.00334338 0.00208543 -0.000362146 0.00143496 -0.000242797 0.000911251)
(-0.000414336 0.0020288 -0.000546426 0.000182812 9.02517e-05 6.25555e-05)
(0.00117752 0.000835099 -0.000321916 -0.000579323 0.000527687 -0.000777969)
(-0.00731071 0.0109335 -0.000172776 0.025819 0.00147148 -0.00107293)
(-0.00226282 0.00978939 -0.000628607 0.00612691 0.000390935 -0.000381608)
(0.00117723 0.00930795 -0.00070127 -0.00606875 -0.00105025 0.000509227)
(0.00568834 0.0094626 -0.000324416 -0.0246166 -0.00227474 0.00127568)
(-0.0128844 0.00401257 -0.000302783 0.018099 -0.000366279 -0.00203695)
(-0.00479376 0.0105451 -0.00122739 0.00725706 -0.000293921 -0.000686807)
(0.00220519 0.0104339 -0.00138335 -0.00607555 -0.000196437 0.00105383)
(0.00992412 0.0040194 -0.000627165 -0.0170827 -0.000152497 0.00257975)
(-0.0105434 0.0040501 -0.000193331 0.0157392 -0.000989107 -0.0016056)
(-0.00476367 0.00884714 -0.00106426 0.00602793 -0.000444628 -0.000466993)
(0.00159069 0.008872 -0.00123245 -0.00442814 0.000135275 0.0010296)
(0.00727613 0.00406992 -0.000557098 -0.0141896 0.000669624 0.00238002)
(-0.00875511 0.00328516 -6.02389e-05 0.0118152 -0.00130136 -0.000869308)
(-0.00412472 0.00741319 -0.000779139 0.00474873 -0.00049402 -0.000157769)
(0.000791368 0.00746539 -0.000950928 -0.00300619 0.000329978 0.000871281)
(0.00522961 0.00336864 -0.000443126 -0.0100495 0.00114666 0.0018119)
(-0.00699375 0.00262317 6.19158e-05 0.00834373 -0.00134744 -5.72269e-05)
(-0.00351083 0.00600815 -0.00050429 0.00352844 -0.000470329 0.000165305)
(0.0001757 0.00609167 -0.000674311 -0.0017969 0.000412666 0.000670414)
(0.00335427 0.0027757 -0.000320851 -0.00647701 0.0013239 0.00112336)
(-0.00561834 0.00187734 0.000137163 0.00548182 -0.00121273 0.000682724)
(-0.00299302 0.004618 -0.000309101 0.00248861 -0.000406732 0.000459218)
(-0.000283742 0.00476013 -0.000465197 -0.000860516 0.000401574 0.000483759)
(0.00191609 0.00216634 -0.000221871 -0.00357147 0.00127637 0.000477234)
(-0.00473334 0.00103955 0.000145597 0.00358342 -0.000945506 0.00128651)
(-0.00271427 0.00326895 -0.000224612 0.00170225 -0.000326539 0.000710478)
(-0.000600472 0.00344558 -0.000362839 -0.000195165 0.000298733 0.000342083)
(0.00100711 0.00153977 -0.000171581 -0.00152519 0.0010267 -4.29666e-05)
(-0.00490935 0.000637504 7.31331e-05 0.00262698 -0.000487449 0.00170722)
(-0.00338431 0.00192833 -0.000281409 0.00151434 -0.000178954 0.000896761)
(-0.000633966 0.00189095 -0.000457648 0.000240994 0.000104235 0.000254727)
(0.000894201 0.000790813 -0.000280254 -0.000558844 0.000479335 -0.000377139)
(-0.00755275 0.0111259 -9.62765e-05 0.0259222 0.000628722 -0.000558108)
(-0.00237797 0.00986486 -0.000375486 0.00616557 0.000104066 -0.000181413)
(0.00121688 0.00934499 -0.000424344 -0.00597523 -0.000641594 0.000318105)
(0.00585622 0.00955519 -0.000201937 -0.0245699 -0.0012433 0.00074039)
(-0.0133583 0.00403511 -0.000183406 0.0177651 -0.000308707 -0.0010713)
(-0.0050518 0.010628 -0.00077077 0.00723985 -0.000240053 -0.000310478)
(0.00229091 0.0105095 -0.000878228 -0.00587737 -0.000168928 0.000695231)
(0.0102674 0.00403815 -0.000414341 -0.0166034 -9.95651e-05 0.00155539)
(-0.0109741 0.00407254 -0.000138519 0.0155612 -0.00070405 -0.000830219)
(-0.00503139 0.00889359 -0.000722788 0.00604863 -0.000333576 -0.000156349)
(0.00165731 0.00891774 -0.000839794 -0.00426929 7.54119e-05 0.000743513)
(0.00757705 0.00408434 -0.000396405 -0.0138335 0.000454409 0.001528)
(-0.00909305 0.00328044 -5.85301e-05 0.0117542 -0.000928393 -0.000359645)
(-0.0043541 0.00739867 -0.000556553 0.00479542 -0.000366287 6.81506e-05)
(0.00080344 0.00745302 -0.000672824 -0.00287717 0.00023815 0.000686756)
(0.00542423 0.00336394 -0.000323161 -0.00980487 0.000815787 0.00122931)
(-0.00723143 0.00259335 2.51758e-05 0.0083869 -0.000984145 0.00019817)
(-0.0037015 0.00594631 -0.000370597 0.00360079 -0.00035037 0.000312913)
(0.000136938 0.00603864 -0.000482388 -0.001698 0.000320528 0.000585984)
(0.00343344 0.00275978 -0.0002332 -0.00633006 0.000983741 0.000812101)
(-0.00577201 0.00182691 8.14053e-05 0.00560874 -0.000909541 0.000734467)
(-0.00314876 0.0045313 -0.000231709 0.00257793 -0.000306108 0.00054593)
(-0.000364248 0.00469261 -0.000332254 -0.000787524 0.000326379 0.000487234)
(0.0018928 0.00215079 -0.000157092 -0.00350204 0.000981698 0.000397743)
(-0.00481315 0.000973913 8.74e-05 0.00377935 -0.000730938 0.00118758)
(-0.0028429 0.00318632 -0.000184294 0.00180085 -0.000247568 0.000754507)
(-0.000724184 0.00338979 -0.000274386 -0.000143376 0.000251046 0.000425729)
(0.000886817 0.00153256 -0.00012408 -0.00150673 0.000812433 7.06712e-05)
(-0.00493575 0.000606621 1.16385e-05 0.00284223 -0.000397089 0.00151299)
(-0.00352 0.00188317 -0.000280334 0.00162759 -0.000140569 0.000926847)
(-0.000838153 0.00185554 -0.00040374 0.000279453 9.03287e-05 0.000431895)
(0.000672052 0.000789642 -0.000234864 -0.000577969 0.000387533 -8.18255e-05)
(-0.00770222 0.01118 -4.72438e-05 0.0259457 0.000206648 -0.000260234)
(-0.00245331 0.00983268 -0.000212553 0.00618923 -2.2324e-05 -6.70217e-05)
(0.0012314 0.00928343 -0.000243457 -0.00589786 -0.000384764 0.000201879)
(0.00594626 0.00953527 -0.000117907 -0.0244595 -0.000654386 0.000421822)
(-0.0136683 0.00402955 -9.63501e-05 0.0175647 -0.000262534 -0.000476084)
(-0.00522428 0.010641 -0.000456675 0.00723682 -0.000189427 -8.31463e-05)
(0.0023202 0.0105164 -0.00052657 -0.00571423 -0.000126557 0.000465354)
(0.0104609 0.00403289 -0.000253769 -0.0162715 -4.56348e-05 0.000914565)
(-0.0112868 0.00408892 -8.14224e-05 0.0154311 -0.0004919 -0.000292674)
(-0.00522173 0.00893401 -0.000458027 0.00606734 -0.000238142 4.97076e-05)
(0.00167521 0.00896024 -0.000535112 -0.00411814 4.02628e-05 0.000540772)
(0.00776339 0.00410172 -0.000256998 -0.0135415 0.000306799 0.000941811)
(-0.00936635 0.00329824 -3.81786e-05 0.0117009 -0.000630714 3.89218e-05)
(-0.00452992 0.00744049 -0.0003701 0.0048368 -0.000253711 0.000228489)
(0.000794882 0.00749951 -0.000445015 -0.00275044 0.000159586 0.00054203)
(0.00555746 0.0033886 -0.000215097 -0.00958132 0.000551533 0.000788446)
(-0.00744703 0.00260378 1.24058e-05 0.00841145 -0.000674059 0.0004373)
(-0.00385555 0.00597526 -0.000257308 0.00366281 -0.000242165 0.000424253)
(0.000100101 0.00607636 -0.000327535 -0.00159963 0.000226199 0.000508851)
(0.00349787 0.00278586 -0.000157237 -0.00618269 0.000680697 0.000547364)
(-0.00593153 0.00182403 4.71327e-05 0.00569596 -0.000637072 0.000834614)
(-0.00328037 0.00454332 -0.000171559 0.00265319 -0.000214684 0.000617771)
(-0.000427252 0.00471916 -0.0002334 -0.00071644 0.000236962 0.000475862)
(0.00188828 0.0021762 -0.000107706 -0.00341968 0.000695972 0.000299862)
(-0.00492188 0.000955808 4.50661e-05 0.00391329 -0.000528137 0.00118473)
(-0.00295846 0.00318614 -0.000155503 0.00188155 -0.000177971 0.000800818)
(-0.00081749 0.00340646 -0.000210933 -9.43059e-05 0.000184647 0.000476306)
(0.000814274 0.00155557 -9.23801e-05 -0.00146876 0.000587484 0.000117116)
(-0.00501394 0.000599427 -2.81246e-05 0.00298854 -0.000295984 0.00143862)
(-0.00364791 0.00188189 -0.000262052 0.00171734 -0.000104104 0.000962314)
(-0.000986665 0.00185548 -0.000342178 0.000318735 6.48288e-05 0.000547133)
(0.000531813 0.000799674 -0.000192201 -0.00057265 0.000281754 9.22328e-05)
(-0.00778729 0.0111824 -1.95268e-05 0.0259356 2.5075e-05 -9.50113e-05)
(-0.00249964 0.00977781 -0.000113182 0.00620592 -5.96767e-05 -5.04632e-06)
(0.00123422 0.00920813 -0.000131792 -0.00583506 -0.000221777 0.000132451)
(0.00598766 0.00948642 -6.45558e-05 -0.0243401 -0.000327526 0.000238796)
(-0.0138545 0.00401342 -4.28481e-05 0.0174545 -0.00020263 -0.000132211)
(-0.00533245 0.010622 -0.000253522 0.00724535 -0.000137503 4.47273e-05)
(0.0023247 0.0104934 -0.000296693 -0.00559405 -8.54764e-05 0.000323293)
(0.0105577 0.0040193 -0.000144688 -0.0160534 -1.29822e-05 0.000534656)
(-0.0114892 0.00409382 -3.96627e-05 0.0153558 -0.000327677 4.08869e-05)
(-0.00534565 0.00895183 -0.000269364 0.00608842 -0.000159589 0.00017297)
(0.00167323 0.00898057 -0.00031757 -0.00400118 2.09275e-05 0.000407435)
(0.00786625 0.00411037 -0.000153347 -0.0133358 0.000199964 0.000574007)
(-0.00955427 0.0033123 -1.81403e-05 0.0116684 -0.000405974 0.000306159)
(-0.00464892 0.00747716 -0.000226951 0.00487148 -0.000164605 0.000329591)
(0.000780311 0.00754059 -0.000273077 -0.00264855 0.000100249 0.000440133)
(0.00563503 0.00341041 -0.000131423 -0.00941236 0.000353122 0.000494368)
(-0.00760513 0.00261807 9.71002e-06 0.00842467 -0.000433665 0.000617809)
(-0.00396309 0.00601442 -0.000164534 0.00370965 -0.000156231 0.000498962)
(7.09187e-05 0.00612237 -0.00020698 -0.00151814 0.000146829 0.000448451)
(0.00353793 0.00281322 -9.77323e-05 -0.00606058 0.000439835 0.000354961)
(-0.0060571 0.00183115 2.84071e-05 0.00574663 -0.0004164 0.000935076)
(-0.00337479 0.00457406 -0.000117635 0.00270682 -0.000140373 0.000670903)
(-0.000471268 0.00476008 -0.000154403 -0.000656449 0.000156192 0.000459161)
(0.00188719 0.00220391 -6.91512e-05 -0.00334179 0.000455912 0.000211713)
(-0.00501692 0.000951055 2.20762e-05 0.00399143 -0.000353737 0.00122481)
(-0.00304395 0.00320413 -0.000119302 0.00193669 -0.000119243 0.000840545)
(-0.00088018 0.00343532 -0.000152226 -5.2582e-05 0.000121927 0.000501676)
(0.000771385 0.00157906 -6.49225e-05 -0.00142341 0.00038932 0.000122514)
(-0.00509379 0.000596917 -3.67763e-05 0.00307819 -0.000204158 0.00143936)
(-0.00374513 0.00188929 -0.000210533 0.00177929 -7.20311e-05 0.000997046)
(-0.00108333 0.00186226 -0.000260327 0.000353437 4.13464e-05 0.000611058)
(0.000448689 0.000808131 -0.00014242 -0.00055315 0.00018741 0.000173092)
(-0.00783223 0.0111714 -6.44562e-06 0.0259187 -2.6527e-05 -9.17289e-06)
(-0.00252611 0.00973242 -5.36969e-05 0.00621734 -5.03468e-05 2.63568e-05)
(0.00123295 0.00914992 -6.36066e-05 -0.00579078 -0.000113962 9.33879e-05)
(0.00600414 0.00944331 -3.14015e-05 -0.0242464 -0.000147676 0.000139815)
(-0.0139576 0.003998 -1.56483e-05 0.0173981 -0.000127991 5.13638e-05)
(-0.00539519 0.0105975 -0.000124538 0.00725647 -8.35435e-05 0.000111303)
(0.0023211 0.0104665 -0.000147969 -0.00551535 -4.8873e-05 0.000241449)
(0.0106012 0.00400654 -7.26631e-05 -0.0159206 3.17217e-07 0.000324692)
(-0.0116077 0.00409276 -1.59581e-05 0.0153181 -0.000188987 0.000227319)
(-0.0054193 0.00895534 -0.000138461 0.00610678 -9.20497e-05 0.000240028)
(0.00166625 0.00898607 -0.000164881 -0.00392338 9.98003e-06 0.000327481)
(0.00791807 0.00411286 -7.9662e-05 -0.0132071 0.000113876 0.00036312)
(-0.00966871 0.00331964 -6.4798e-06 0.0116526 -0.000227865 0.000463302)
(-0.00472129 0.00749847 -0.000120508 0.00489681 -9.26139e-05 0.000386962)
(0.000767641 0.00756504 -0.000145552 -0.00257937 5.49206e-05 0.000376422)
(0.00567563 0.00342374 -6.95512e-05 -0.00930267 0.000197199 0.000318969)
(-0.00770533 0.00262756 6.92398e-06 0.00843202 -0.000242648 0.000732424)
(-0.00402971 0.00604172 -9.0345e-05 0.00374072 -8.74288e-05 0.000543799)
(5.11293e-05 0.0061542 -0.000113134 -0.00146162 8.19636e-05 0.000408185)
(0.00355947 0.00283171 -5.25456e-05 -0.00597646 0.00024613 0.000233453)
(-0.00614021 0.00183707 1.54426e-05 0.00577288 -0.000235273 0.00100886)
(-0.00343428 0.00459791 -6.83639e-05 0.00274028 -7.93341e-05 0.000705538)
(-0.000498759 0.00479028 -8.79007e-05 -0.000614095 8.78211e-05 0.000444853)
(0.00188653 0.00222311 -3.8412e-05 -0.00328366 0.000256782 0.000148564)
(-0.00508374 0.000949495 9.28362e-06 0.00403184 -0.000203237 0.00126719)
(-0.0030988 0.00321913 -7.49434e-05 0.00196974 -6.8625e-05 0.000869148)
(-0.000917904 0.00345674 -9.24269e-05 -2.27467e-05 6.84054e-05 0.000512525)
(0.000748008 0.00159499 -3.88317e-05 -0.00138576 0.000220515 0.000113086)
(-0.0051542 0.000596085 -2.86937e-05 0.00312596 -0.000120087 0.00146177)
(-0.00380855 0.00189593 -0.000135065 0.00181646 -4.23738e-05 0.00102352)
(-0.00114019 0.00186759 -0.000162355 0.00037913 2.2579e-05 0.000642606)
(0.000403935 0.000813175 -8.76624e-05 -0.000532127 0.00010627 0.000204113)
(-0.00785138 0.0111631 -1.34295e-06 0.0259077 -1.50761e-05 2.71184e-05)
(-0.00253812 0.00970798 -1.56674e-05 0.00622322 -1.89327e-05 3.93619e-05)
(0.00123151 0.00911931 -1.87687e-05 -0.00576794 -3.50005e-05 7.57951e-05)
(0.00600937 0.00941947 -9.30289e-06 -0.024196 -4.17415e-05 9.64896e-05)
(-0.014003 0.00398909 -3.65361e-06 0.0173744 -4.37386e-05 0.000130267)
(-0.00542391 0.0105822 -3.71085e-05 0.00726362 -2.8033e-05 0.000139352)
(0.00231761 0.0104501 -4.45162e-05 -0.00547644 -1.5855e-05 0.000204045)
(0.0106172 0.00399923 -2.19288e-05 -0.0158574 1.46215e-06 0.00023154)
(-0.0116619 0.00409088 -4.07782e-06 0.0153029 -6.19019e-05 0.00030964)
(-0.00545351 0.00895438 -4.23536e-05 0.00611732 -3.01254e-05 0.000269073)
(0.00166136 0.00898615 -5.0748e-05 -0.00388474 2.94891e-06 0.000290087)
(0.00793926 0.00411301 -2.45002e-05 -0.0131454 3.70835e-05 0.000267524)
(-0.00972219 0.00332241 -1.46848e-06 0.0116467 -7.3577e-05 0.000534802)
(-0.00475532 0.00750743 -3.75527e-05 0.0049102 -2.9919e-05 0.00041253)
(0.00076059 0.00757559 -4.54735e-05 -0.00254472 1.74722e-05 0.000345943)
(0.0056927 0.00342968 -2.16252e-05 -0.00924916 6.3468e-05 0.000237673)
(-0.00775317 0.00263186 2.45146e-06 0.00843546 -7.81796e-05 0.000786973)
(-0.00406136 0.0060547 -2.87059e-05 0.00375618 -2.81588e-05 0.000564573)
(4.12013e-05 0.00616938 -3.58751e-05 -0.00143298 2.6298e-05 0.000388256)
(0.00356861 0.00284053 -1.65065e-05 -0.00593412 7.92055e-05 0.000175273)
(-0.00618075 0.00183988 4.80942e-06 0.00578378 -7.61684e-05 0.00104677)
(-0.00346279 0.00460977 -2.24399e-05 0.00275622 -2.56874e-05 0.000722459)
(-0.000511913 0.00480514 -2.85497e-05 -0.000592396 2.82564e-05 0.00043691)
(0.00188609 0.0022324 -1.23175e-05 -0.00325315 8.28328e-05 0.00011619)
(-0.00511716 0.000948782 2.28581e-06 0.00404828 -6.64213e-05 0.00129213)
(-0.00312527 0.00322673 -2.56044e-05 0.001985 -2.24381e-05 0.000883875)
(-0.000935499 0.00346718 -3.10611e-05 -7.29093e-06 2.19753e-05 0.000516184)
(0.000737757 0.00160254 -1.29775e-05 -0.00136498 7.1292e-05 0.000104767)
(-0.00518507 0.000595999 -1.08802e-05 0.00314567 -3.99808e-05 0.00147873)
(-0.00383929 0.00189964 -4.64848e-05 0.00183369 -1.40349e-05 0.00103748)
(-0.00116646 0.00187004 -5.51611e-05 0.000392814 7.20042e-06 0.000655034)
(0.000384464 0.000815211 -2.96626e-05 -0.000519315 3.43959e-05 0.000212961)
)
;

boundaryField
{
    interface
    {
        type            calculated;
        value           nonuniform List<symmTensor> 
192
(
(-0.025482 -7.71947e-06 0.000335357 0.0399722 0.00594106 -0.0034635)
(-0.0119303 2.24932e-06 0.000563404 0.0214123 -0.00181703 -0.00519102)
(-0.0128209 2.26787e-06 0.000673952 0.0205332 -0.00111959 -0.00298094)
(-0.00999562 -1.73768e-05 0.000732374 0.0150023 -0.00166601 -0.00169118)
(-0.00799711 -6.71254e-05 0.000762063 0.0105375 -0.00156274 -0.000244019)
(-0.00623128 -0.000156115 0.000764795 0.00671116 -0.00136823 0.000907258)
(-0.00523319 -0.000312883 0.000731988 0.00428267 -0.00107951 0.0018204)
(-0.00468876 -0.000553505 0.000636059 0.00287227 -0.000569492 0.00250473)
(-0.0258587 1.59162e-05 0.000238125 0.0391443 0.00371305 -0.00228471)
(-0.0138675 3.44097e-05 0.000402677 0.0229627 -0.000613319 -0.00407275)
(-0.0130473 3.75631e-05 0.00048039 0.0205095 -0.00168153 -0.00289971)
(-0.0104349 8.96378e-06 0.000520351 0.0150944 -0.00217706 -0.0014529)
(-0.0083293 -5.77664e-05 0.000537858 0.0104417 -0.00219716 -7.7501e-06)
(-0.00661435 -0.000174235 0.000534065 0.00660507 -0.00194379 0.00122442)
(-0.00562217 -0.00037485 0.000503532 0.00418214 -0.00148632 0.00218204)
(-0.00501005 -0.000658321 0.000432495 0.00282089 -0.000792886 0.00287331)
(-0.0268476 2.22704e-05 0.000169881 0.0395327 0.00186049 -0.00133178)
(-0.0144963 4.43871e-05 0.000286167 0.022246 -0.000386502 -0.00254527)
(-0.0135407 4.93041e-05 0.000336793 0.0202366 -0.0012444 -0.00202784)
(-0.0107104 1.67177e-05 0.000360002 0.0150046 -0.00169899 -0.00110031)
(-0.00842136 -5.9827e-05 0.000368194 0.0104788 -0.00178902 -6.16796e-05)
(-0.00659083 -0.000192735 0.00036277 0.00676063 -0.0016263 0.000886225)
(-0.00553225 -0.000416946 0.000341565 0.00446311 -0.00126741 0.00165044)
(-0.00474338 -0.0007158 0.000297744 0.00308912 -0.000656799 0.00216953)
(-0.0274759 2.31432e-05 0.000123799 0.0397352 0.000797136 -0.000693538)
(-0.0149959 4.62574e-05 0.000208951 0.0217039 -0.000340998 -0.00134697)
(-0.0140347 5.17746e-05 0.000244276 0.0199289 -0.000872464 -0.00107267)
(-0.0110896 1.67726e-05 0.000258953 0.0148755 -0.00119131 -0.000496982)
(-0.00867485 -6.59689e-05 0.000263112 0.0105029 -0.00128757 0.000201552)
(-0.00674179 -0.000209074 0.000258552 0.00691146 -0.0012053 0.000877218)
(-0.00561078 -0.000447246 0.000244741 0.00472528 -0.0009753 0.00144287)
(-0.00471519 -0.000753173 0.000216499 0.00336412 -0.000537131 0.00183709)
(-0.0278055 2.27295e-05 8.88751e-05 0.0397875 0.000263411 -0.000324091)
(-0.0153256 4.56241e-05 0.000150635 0.0213893 -0.000304074 -0.000605289)
(-0.0143859 5.09273e-05 0.000175729 0.0197167 -0.000608994 -0.000400111)
(-0.0113911 1.42284e-05 0.000185543 0.0147695 -0.000803766 -4.00244e-06)
(-0.00890682 -7.2481e-05 0.000187974 0.0105063 -0.00087563 0.000483341)
(-0.00690554 -0.000222014 0.000184824 0.00700512 -0.000839592 0.000972908)
(-0.00572214 -0.000469116 0.000176143 0.00489229 -0.000703687 0.00140095)
(-0.0047484 -0.000779201 0.000157452 0.00354064 -0.000401754 0.00170063)
(-0.0279669 2.20859e-05 6.01612e-05 0.0397737 3.34612e-05 -0.000119252)
(-0.015528 4.4421e-05 0.000102328 0.0212163 -0.000241734 -0.000176243)
(-0.0146148 4.92542e-05 0.000119353 0.0195937 -0.000407505 1.97046e-05)
(-0.0116012 1.1354e-05 0.000125851 0.0147033 -0.00051692 0.00033238)
(-0.00908151 -7.78926e-05 0.000127395 0.0105022 -0.000562199 0.000706677)
(-0.00704171 -0.000231488 0.000125463 0.00705386 -0.000547983 0.00109007)
(-0.00582736 -0.000484403 0.000120199 0.00498423 -0.000471739 0.00143786)
(-0.0048124 -0.000797129 0.000108089 0.00364431 -0.000277985 0.00168556)
(-0.0280395 2.16424e-05 3.46742e-05 0.0397442 -3.23062e-05 -1.30926e-05)
(-0.0156406 4.34446e-05 5.91851e-05 0.021126 -0.000155094 5.23019e-05)
(-0.0147485 4.78242e-05 6.90173e-05 0.01953 -0.000236138 0.000254142)
(-0.0117294 9.13728e-06 7.27529e-05 0.0146682 -0.00029055 0.000530924)
(-0.00919292 -8.16625e-05 7.36449e-05 0.0104979 -0.000314669 0.000850638)
(-0.00713318 -0.000237737 7.26142e-05 0.00707615 -0.000309731 0.0011804)
(-0.00590229 -0.000494261 6.95757e-05 0.00502909 -0.000271447 0.00148659)
(-0.00486619 -0.00080825 6.22958e-05 0.00369729 -0.000164019 0.0017078)
(-0.0280661 2.13523e-05 1.12171e-05 0.0397243 -1.86086e-05 3.16743e-05)
(-0.0156897 4.27892e-05 1.92025e-05 0.0210874 -5.33487e-05 0.000150278)
(-0.0148087 4.69195e-05 2.23726e-05 0.0195034 -7.75523e-05 0.000357425)
(-0.0117885 7.91703e-06 2.35747e-05 0.0146537 -9.3935e-05 0.000621224)
(-0.00924549 -8.36079e-05 2.38659e-05 0.0104957 -0.000101452 0.000919447)
(-0.00717743 -0.000241075 2.35394e-05 0.00708439 -0.00010033 0.00122755)
(-0.0059388 -0.000499621 2.24552e-05 0.00504633 -8.8816e-05 0.00151668)
(-0.00489302 -0.000812793 1.98399e-05 0.00371815 -5.47431e-05 0.00172735)
(-0.00707051 0.00826313 -0.000397057 0.0273467 -9.40416e-05 -0.0140415)
(-0.0125439 0.00376009 -0.000680364 0.0152483 -0.00014824 -0.00215972)
(-0.0106836 0.00516294 -0.000822165 0.0156745 -0.000157815 -0.00354063)
(-0.00926711 0.00466185 -0.00091111 0.0116381 -0.000147998 -0.001687)
(-0.00757695 0.00414803 -0.000979324 0.00846715 -0.000144737 -0.000631749)
(-0.00623141 0.00326089 -0.00103826 0.00563228 -0.00016103 0.000393711)
(-0.00534148 0.00218095 -0.0011068 0.00375381 -0.000200407 0.0010514)
(-0.00553137 0.00118016 -0.00124401 0.00267774 -0.000247206 0.00185806)
(-0.00255171 0.00652457 -0.000254646 0.00654957 -7.38041e-05 -0.00311903)
(-0.00542277 0.00981441 -0.000461933 0.00579548 -0.000135744 -0.000637072)
(-0.00563159 0.0104118 -0.000549927 0.00585535 -0.000160438 -0.000453048)
(-0.00513039 0.00975632 -0.000597103 0.00460742 -0.000147844 0.000114036)
(-0.00451593 0.00856039 -0.000633792 0.00351157 -0.000124546 0.000480095)
(-0.00395833 0.00693497 -0.000674286 0.00250087 -0.000108046 0.000803938)
(-0.00360335 0.00507777 -0.000740704 0.00177942 -0.000105214 0.00105052)
(-0.00417288 0.00283573 -0.000914877 0.00154227 -0.000104057 0.00158575)
(0.00134329 0.00592106 -0.00019703 -0.00792243 -4.94554e-05 0.00398048)
(0.00250473 0.00952057 -0.000384314 -0.00450619 -0.000110744 0.000947141)
(0.00184602 0.0103955 -0.000467695 -0.00422589 -0.00014446 0.00125202)
(0.00108469 0.00981239 -0.00050941 -0.00295961 -0.000136919 0.000963171)
(0.000456382 0.00866386 -0.000539055 -0.00199621 -0.000109927 0.000771063)
(5.19446e-06 0.00709964 -0.000574122 -0.00119133 -8.21776e-05 0.00054956)
(-0.000302875 0.0052505 -0.00063759 -0.00059766 -6.22308e-05 0.00035915)
(-0.000225026 0.00280073 -0.000808907 -5.16678e-05 -4.65107e-05 -5.98089e-05)
(0.00557136 0.00671593 -0.000184611 -0.0275415 -4.22359e-05 0.0143021)
(0.00965518 0.00347213 -0.000382961 -0.0139867 -0.000105277 0.00254194)
(0.00727791 0.00518638 -0.000478455 -0.0141222 -0.000141457 0.00426105)
(0.00558721 0.00478208 -0.000527932 -0.0099984 -0.000136113 0.00267906)
(0.00380917 0.00434142 -0.000560188 -0.00685091 -0.000107799 0.00179315)
(0.00246332 0.00356805 -0.000595716 -0.00409907 -7.4631e-05 0.00086968)
(0.00160956 0.00260476 -0.000657403 -0.00218668 -4.12839e-05 0.000167829)
(0.0016009 0.00127004 -0.000817903 -0.00102766 -2.24491e-06 -0.000603542)
(0.0228295 4.1521e-05 4.57852e-05 -0.0382268 -0.0071586 0.00368374)
(0.00960459 8.6868e-05 8.0692e-05 -0.0205401 0.0012808 0.00589597)
(0.00993296 0.000113871 8.60483e-05 -0.01914 0.000746942 0.00408168)
(0.00684069 0.000110407 8.6134e-05 -0.0134048 0.00141063 0.00304615)
(0.00469394 9.00058e-05 9.43419e-05 -0.00884907 0.00140561 0.00175866)
(0.0028638 6.44762e-05 0.000115701 -0.00497072 0.00130369 0.000671865)
(0.00173803 2.30553e-05 0.000151084 -0.00228995 0.00102888 -0.000242861)
(0.00147394 -0.000141011 0.000193924 -0.000967167 0.000406602 -0.00096517)
(0.0225454 1.89354e-05 -9.3161e-06 -0.0367718 -0.00488125 0.00260842)
(0.0113107 4.66227e-05 -1.53806e-05 -0.0222739 -8.87537e-05 0.00496781)
(0.00977905 6.76409e-05 -2.41327e-05 -0.0191427 0.00126359 0.0041633)
(0.00683517 7.18553e-05 -2.9176e-05 -0.0134663 0.00196407 0.00293443)
(0.0045313 6.56112e-05 -2.48493e-05 -0.00866309 0.0021408 0.00161891)
(0.00270454 5.67328e-05 -1.02493e-05 -0.00470938 0.00200705 0.000444486)
(0.00154665 3.67927e-05 1.15504e-05 -0.00195467 0.00159299 -0.000499787)
(0.00135647 -0.000108333 3.9792e-05 -0.000719649 0.000795112 -0.00122376)
(0.0233424 8.99441e-06 -1.91034e-05 -0.0369687 -0.00274996 0.00158376)
(0.0119078 2.73693e-05 -2.99041e-05 -0.0214493 -0.000153779 0.00320687)
(0.0102615 4.58374e-05 -3.41132e-05 -0.0187079 0.000913248 0.00295027)
(0.00711157 5.57517e-05 -3.37328e-05 -0.0132147 0.00154907 0.00220403)
(0.00460515 5.98884e-05 -2.67346e-05 -0.00851204 0.00178774 0.00128929)
(0.00263108 6.26241e-05 -1.37121e-05 -0.00464782 0.00173538 0.000426148)
(0.00135491 5.53129e-05 1.67048e-06 -0.00195963 0.00142658 -0.000271728)
(0.000981783 -6.94288e-05 1.3785e-05 -0.000735665 0.000710494 -0.000715116)
(0.0237972 5.16684e-06 -1.79251e-05 -0.0369903 -0.00145603 0.00090442)
(0.0123315 1.88668e-05 -2.74132e-05 -0.0207959 -6.49117e-05 0.00189499)
(0.0106573 3.61905e-05 -2.82464e-05 -0.0182238 0.000626447 0.00184405)
(0.00738533 5.04754e-05 -2.45945e-05 -0.0128972 0.00108819 0.00144372)
(0.00473523 6.25825e-05 -1.65337e-05 -0.0083335 0.00130644 0.000883271)
(0.00263604 7.42679e-05 -5.34084e-06 -0.00457933 0.00131227 0.000321162)
(0.00124696 7.40695e-05 5.46191e-06 -0.00195888 0.00111432 -0.000133391)
(0.00075559 -3.81752e-05 9.34318e-06 -0.000779826 0.000570401 -0.000362608)
(0.0239783 3.73354e-06 -1.37478e-05 -0.0368734 -0.000734156 0.000502217)
(0.0125867 1.55136e-05 -2.06311e-05 -0.0203779 3.99673e-06 0.00107901)
(0.0109058 3.28769e-05 -1.96465e-05 -0.0178565 0.000431566 0.00108673)
(0.00757205 5.05337e-05 -1.4944e-05 -0.0126201 0.000734146 0.000867958)
(0.00483849 6.82237e-05 -7.59778e-06 -0.00815715 0.000897183 0.000534269)
(0.00265384 8.56603e-05 7.91867e-07 -0.00448706 0.000923248 0.000187221)
(0.00118142 8.94648e-05 7.10335e-06 -0.00192058 0.000802402 -8.52401e-05)
(0.000612611 -1.50779e-05 7.07571e-06 -0.000784349 0.000415921 -0.000161761)
(0.0240236 3.37121e-06 -9.08033e-06 -0.0367218 -0.000347817 0.000273367)
(0.012726 1.47043e-05 -1.33117e-05 -0.0201175 3.35069e-05 0.000600359)
(0.0110475 3.26975e-05 -1.1701e-05 -0.0176093 0.00028672 0.000617012)
(0.00768391 5.27554e-05 -7.44368e-06 -0.0124179 0.000471574 0.00048771)
(0.00490425 7.39312e-05 -1.79276e-06 -0.00801284 0.000578703 0.000282)
(0.00266875 9.46141e-05 3.7544e-06 -0.00439658 0.000603542 6.68259e-05)
(0.00114423 0.000100471 6.97323e-06 -0.00186742 0.000532095 -8.89775e-05)