/*--------------------------------*- C++ -*----------------------------------*\
| =========                 |                                                 |
| \\      /  F ield         | foam-extend: Open Source CFD                    |
|  \\    /   O peration     | Version:     3.1                                |
|   \\  /    A nd           | Web:         http://www.extend-project.de       |
|    \\/     M anipulation  |                                                 |
\*---------------------------------------------------------------------------*/
FoamFile
{
    version     2.0;
    format      ascii;
    class       pointVectorField;
    location    "2.9";
    object      pointD;
}
// * * * * * * * * * * * * * * * * * * * * * * * * * * * * * * * * * * * * * //

dimensions      [0 1 0 0 0 0 0];

internalField   nonuniform List<vector> 
405
(
(0 0 0)
(0 0 0)
(0 0 0)
(0 0 0)
(0 0 0)
(0.000932441 0.000985986 0.000410525)
(0.000573171 0.00033674 0.000256013)
(0.000443353 -2.11298e-05 -2.3901e-05)
(0.000508312 -0.000386836 -0.00031132)
(0.000781634 -0.00103346 -0.000489444)
(0.00186627 0.00145115 0.000277928)
(0.00157058 0.000591037 0.000169322)
(0.00141653 -2.52254e-05 -4.39987e-05)
(0.00146431 -0.000645964 -0.000270723)
(0.0016477 -0.00151244 -0.000418525)
(0.00312304 0.00192627 0.000160483)
(0.00284266 0.000830221 9.36061e-05)
(0.00269081 -3.70883e-05 -6.36311e-05)
(0.00271141 -0.000909732 -0.000234386)
(0.00285108 -0.00202091 -0.000346064)
(0.00454029 0.0022556 2.9127e-06)
(0.00429911 0.000997119 -2.31496e-07)
(0.004156 -5.93059e-05 -7.9952e-05)
(0.00415155 -0.00112047 -0.000173516)
(0.00423363 -0.00239351 -0.000223367)
(0.00606759 0.00247386 -0.000144986)
(0.00585885 0.0011053 -8.74553e-05)
(0.00572462 -8.99343e-05 -9.45645e-05)
(0.00570075 -0.00128727 -0.000114931)
(0.00573871 -0.00266479 -0.000102995)
(0.00763601 0.00259612 -0.000272394)
(0.00745291 0.00116389 -0.000163665)
(0.00732678 -0.000125737 -0.000109472)
(0.00728913 -0.0014131 -6.60232e-05)
(0.00729539 -0.00284399 1.99573e-06)
(0.00920408 0.00265938 -0.000372604)
(0.00903395 0.00118881 -0.000228959)
(0.00890933 -0.00016183 -0.000127281)
(0.00886229 -0.00150664 -3.31353e-05)
(0.0088531 -0.00295835 7.71586e-05)
(0.0107673 0.00268607 -0.000434843)
(0.0105712 0.00119974 -0.000274629)
(0.0104108 -0.000188036 -0.000145213)
(0.0103715 -0.00157376 -2.40673e-05)
(0.0103754 -0.00303474 0.000104605)
(0 0 0)
(0 0 0)
(0 0 0)
(0 0 0)
(0 0 0)
(0.00100634 0.000933979 0.000236967)
(0.000661667 0.000296943 0.000146826)
(0.000557008 -1.19363e-05 -1.96307e-05)
(0.000608885 -0.000320716 -0.000195159)
(0.000870224 -0.000950863 -0.000305741)
(0.00194438 0.00149357 0.000191025)
(0.00166817 0.000624435 0.000113218)
(0.00154422 -1.99841e-05 -3.87166e-05)
(0.00157864 -0.000665711 -0.000201873)
(0.00174963 -0.00154083 -0.000308683)
(0.00315657 0.00197457 9.79096e-05)
(0.00290055 0.000871092 5.36835e-05)
(0.00277904 -3.2162e-05 -5.48692e-05)
(0.00278825 -0.000938659 -0.000175189)
(0.00291214 -0.00205597 -0.000252542)
(0.00452494 0.00231255 -1.92587e-05)
(0.00430544 0.00104527 -1.62422e-05)
(0.00419013 -5.22592e-05 -6.8973e-05)
(0.00417702 -0.001153 -0.000133757)
(0.00424624 -0.00243348 -0.000164924)
(0.00599937 0.00252847 -0.000135212)
(0.00581044 0.00115307 -8.46825e-05)
(0.00570175 -7.89987e-05 -8.21879e-05)
(0.0056713 -0.00131236 -9.12117e-05)
(0.00569819 -0.00269539 -7.36401e-05)
(0.00752095 0.00264519 -0.00023727)
(0.00735525 0.00120837 -0.000145693)
(0.00725215 -0.000109999 -9.61987e-05)
(0.00720953 -0.00142597 -5.63647e-05)
(0.00720653 -0.00286019 6.03358e-06)
(0.00905181 0.00269957 -0.000317584)
(0.00889648 0.00122627 -0.000197159)
(0.00879215 -0.000141941 -0.000113009)
(0.00874233 -0.00150383 -3.63714e-05)
(0.0087262 -0.00295564 6.05088e-05)
(0.0105976 0.00271969 -0.000365872)
(0.0104151 0.00123146 -0.000232436)
(0.0102736 -0.000166313 -0.000130678)
(0.0102316 -0.00156062 -3.81778e-05)
(0.0102289 -0.00301932 7.22211e-05)
(0 0 0)
(0 0 0)
(0 0 0)
(0 0 0)
(0 0 0)
(0.00105949 0.000943996 0.000122572)
(0.000695793 0.000296493 7.43465e-05)
(0.000584963 -8.63805e-06 -1.73986e-05)
(0.000641362 -0.000313629 -0.000115662)
(0.000915487 -0.000958385 -0.000175511)
(0.00200377 0.00148495 0.000101239)
(0.00171021 0.000624817 5.56463e-05)
(0.00157919 -1.49241e-05 -3.4048e-05)
(0.00162053 -0.00065658 -0.000131093)
(0.00180663 -0.00152689 -0.000191242)
(0.00319104 0.00196244 4.24063e-05)
(0.00292855 0.000875887 1.59863e-05)
(0.00280446 -2.55383e-05 -4.83869e-05)
(0.00281592 -0.000930572 -0.000120199)
(0.00294456 -0.00203229 -0.000162343)
(0.00452878 0.00230099 -3.64735e-05)
(0.00430559 0.00105303 -3.32229e-05)
(0.00418919 -4.30414e-05 -6.10944e-05)
(0.00417634 -0.00114231 -9.63665e-05)
(0.00424736 -0.00240343 -0.000108655)
(0.00596776 0.00251998 -0.000118396)
(0.00577754 0.00116389 -8.32432e-05)
(0.00566884 -6.65838e-05 -7.32048e-05)
(0.00563708 -0.00129774 -7.0017e-05)
(0.00566285 -0.00265981 -4.9083e-05)
(0.0074556 0.00264207 -0.000192997)
(0.00728982 0.0012218 -0.000129065)
(0.00718759 -9.4287e-05 -8.61721e-05)
(0.0071426 -0.00140649 -4.88086e-05)
(0.00713648 -0.00282063 3.52842e-06)
(0.0089579 0.00270447 -0.000253127)
(0.00880388 0.0012418 -0.000168013)
(0.00870116 -0.000123448 -0.000101777)
(0.00864816 -0.00147965 -3.97492e-05)
(0.00862709 -0.00291397 3.76661e-05)
(0.0104877 0.00273071 -0.000287286)
(0.0103077 0.00124852 -0.000193761)
(0.0101675 -0.000145755 -0.000119461)
(0.010119 -0.00153254 -5.18504e-05)
(0.0101085 -0.00297548 3.32832e-05)
(0 0 0)
(0 0 0)
(0 0 0)
(0 0 0)
(0 0 0)
(0.00108508 0.000950438 5.59314e-05)
(0.000706458 0.000296724 3.36296e-05)
(0.000588795 -6.76559e-06 -1.48509e-05)
(0.000648085 -0.000310456 -6.73009e-05)
(0.000932793 -0.000961823 -9.63886e-05)
(0.00203075 0.0014747 4.04259e-05)
(0.00172362 0.0006214 1.9884e-05)
(0.00158446 -1.07196e-05 -2.88264e-05)
(0.00162952 -0.000645236 -8.19012e-05)
(0.00182646 -0.00151013 -0.000110292)
(0.00320701 0.00194412 1.69791e-06)
(0.00293436 0.000871877 -7.44494e-06)
(0.00280369 -1.88278e-05 -4.11281e-05)
(0.00281718 -0.000913435 -7.89734e-05)
(0.00295388 -0.00200139 -9.60271e-05)
(0.00452563 0.00228051 -5.08278e-05)
(0.00429605 0.00105024 -4.17085e-05)
(0.00417456 -3.34784e-05 -5.22168e-05)
(0.00416203 -0.00112028 -6.66577e-05)
(0.0042376 -0.00236332 -6.49417e-05)
(0.00594204 0.00250179 -0.000107149)
(0.00574837 0.001164 -7.74045e-05)
(0.00563572 -5.39206e-05 -6.29456e-05)
(0.00560296 -0.00127186 -5.19145e-05)
(0.00563018 -0.00261406 -2.84653e-05)
(0.00740719 0.00262975 -0.000160016)
(0.00724005 0.0012259 -0.000111003)
(0.00713489 -7.85633e-05 -7.45622e-05)
(0.00708783 -0.00137766 -4.06031e-05)
(0.0070805 -0.00277222 4.04634e-06)
(0.00888936 0.00270115 -0.000203792)
(0.00873597 0.00125047 -0.000140097)
(0.00863096 -0.000104975 -8.86423e-05)
(0.00857454 -0.00144877 -3.88563e-05)
(0.00854936 -0.00286482 2.32858e-05)
(0.0104064 0.00273646 -0.000228486)
(0.0102279 0.00126225 -0.000159681)
(0.0100845 -0.000124737 -0.000105427)
(0.0100293 -0.00150068 -5.49952e-05)
(0.0100114 -0.00292689 1.14935e-05)
(0 0 0)
(0 0 0)
(0 0 0)
(0 0 0)
(0 0 0)
(0.0010958 0.000952487 2.12413e-05)
(0.000707628 0.000296715 1.24926e-05)
(0.000585347 -5.30402e-06 -1.18568e-05)
(0.000645806 -0.000307526 -3.84898e-05)
(0.000936558 -0.000959779 -5.11882e-05)
(0.0020404 0.00146689 7.71784e-06)
(0.00172346 0.000618712 1.22909e-06)
(0.00157855 -6.98145e-06 -2.30815e-05)
(0.00162503 -0.00063509 -4.99553e-05)
(0.00182871 -0.00149491 -6.08362e-05)
(0.00320973 0.00193015 -1.92628e-05)
(0.00292851 0.000867996 -1.81819e-05)
(0.00279266 -1.25468e-05 -3.312e-05)
(0.00280694 -0.000896966 -5.03603e-05)
(0.0029493 -0.0019748 -5.33832e-05)
(0.00451671 0.00226403 -5.47321e-05)
(0.00428069 0.00104685 -4.20884e-05)
(0.00415489 -2.44956e-05 -4.2307e-05)
(0.00414234 -0.0010987 -4.45692e-05)
(0.00422161 -0.0023282 -3.5494e-05)
(0.00591894 0.00248639 -9.31887e-05)
(0.00572086 0.00116267 -6.73005e-05)
(0.00560473 -4.21704e-05 -5.13381e-05)
(0.00557119 -0.00124647 -3.70142e-05)
(0.00560005 -0.00257341 -1.38475e-05)
(0.00736915 0.00261826 -0.00013018)
(0.00719925 0.00122777 -9.15715e-05)
(0.00709132 -6.41595e-05 -6.12327e-05)
(0.00704275 -0.00134966 -3.18752e-05)
(0.00703508 -0.00272849 5.35583e-06)
(0.00883726 0.0026958 -0.000161621)
(0.00868252 0.00125611 -0.000113018)
(0.00857505 -8.81552e-05 -7.3255e-05)
(0.00851605 -0.00141908 -3.3983e-05)
(0.00848846 -0.00281957 1.51141e-05)
(0.0103438 0.0027372 -0.000179017)
(0.0101644 0.00127192 -0.000127482)
(0.0100175 -0.000105519 -8.77509e-05)
(0.00995736 -0.00146995 -5.01194e-05)
(0.00993501 -0.00288125 1.26013e-06)
(0 0 0)
(0 0 0)
(0 0 0)
(0 0 0)
(0 0 0)
(0.0010994 0.000952406 5.03393e-06)
(0.000705697 0.000296639 2.67318e-06)
(0.000580518 -4.09409e-06 -8.74e-06)
(0.0006413 -0.000304912 -2.14213e-05)
(0.000934975 -0.000955666 -2.60839e-05)
(0.00204173 0.00146138 -6.34899e-06)
(0.00171849 0.000617185 -6.29732e-06)
(0.00156984 -3.78657e-06 -1.71696e-05)
(0.00161669 -0.000627034 -2.95327e-05)
(0.00182416 -0.00148244 -3.20225e-05)
(0.00320596 0.00192096 -2.52077e-05)
(0.0029188 0.000865758 -1.99186e-05)
(0.0027794 -7.15026e-06 -2.4805e-05)
(0.00279385 -0.000883809 -3.09612e-05)
(0.00293958 -0.00195443 -2.79029e-05)
(0.00450543 0.00225315 -4.89935e-05)
(0.00426455 0.00104494 -3.62645e-05)
(0.00413568 -1.68339e-05 -3.18804e-05)
(0.00412294 -0.00108125 -2.85522e-05)
(0.0042046 -0.00230133 -1.76247e-05)
(0.00589856 0.00247595 -7.47806e-05)
(0.00569681 0.00116214 -5.35792e-05)
(0.00557814 -3.22715e-05 -3.89317e-05)
(0.00554403 -0.00122573 -2.50501e-05)
(0.00557409 -0.00254186 -5.06309e-06)
(0.00733887 0.00261004 -9.99952e-05)
(0.00716636 0.0012294 -7.05182e-05)
(0.00705635 -5.21763e-05 -4.67284e-05)
(0.00700678 -0.00132659 -2.32743e-05)
(0.00699906 -0.00269389 5.84943e-06)
(0.00879702 0.0026912 -0.000121858)
(0.00864059 0.0012603 -8.57219e-05)
(0.0085312 -7.42965e-05 -5.61821e-05)
(0.00847051 -0.00139445 -2.66972e-05)
(0.00844156 -0.00278302 1.0239e-05)
(0.0102953 0.00273646 -0.0001339)
(0.0101143 0.00127897 -9.60637e-05)
(0.00996462 -8.97183e-05 -6.75399e-05)
(0.00990127 -0.00144422 -4.02193e-05)
(0.00987632 -0.00284373 -2.11977e-06)
(0 0 0)
(0 0 0)
(0 0 0)
(0 0 0)
(0 0 0)
(0.0011001 0.000951646 -9.29051e-07)
(0.000703364 0.000296581 -8.65432e-07)
(0.000576457 -3.17438e-06 -5.70622e-06)
(0.000637219 -0.000302886 -1.12112e-05)
(0.000932133 -0.000951678 -1.24176e-05)
(0.00204012 0.00145774 -9.19916e-06)
(0.00171309 0.000616462 -7.16809e-06)
(0.00156214 -1.34241e-06 -1.13233e-05)
(0.00160898 -0.000621267 -1.63022e-05)
(0.00181842 -0.00147329 -1.56822e-05)
(0.00320063 0.00191538 -2.13737e-05)
(0.00290972 0.000864771 -1.5946e-05)
(0.00276808 -3.03321e-06 -1.64634e-05)
(0.00278245 -0.000874462 -1.7654e-05)
(0.00293003 -0.00194018 -1.34099e-05)
(0.00449522 0.00224665 -3.62152e-05)
(0.00425109 0.00104427 -2.62464e-05)
(0.00412024 -1.1033e-05 -2.12715e-05)
(0.00410729 -0.0010688 -1.68258e-05)
(0.00419033 -0.0022827 -7.75467e-06)
(0.00588256 0.00246965 -5.2246e-05)
(0.00567822 0.00116236 -3.71662e-05)
(0.00555787 -2.48494e-05 -2.61117e-05)
(0.00552338 -0.00121082 -1.54045e-05)
(0.00555418 -0.00251982 -8.63339e-07)
(0.00731645 0.0026049 -6.80721e-05)
(0.00714196 0.00123095 -4.79586e-05)
(0.00703055 -4.32784e-05 -3.14945e-05)
(0.00698037 -0.00130988 -1.51231e-05)
(0.00697269 -0.00266938 4.94778e-06)
(0.00876787 0.00268801 -8.19673e-05)
(0.00860998 0.00126341 -5.77469e-05)
(0.00849926 -6.40871e-05 -3.79978e-05)
(0.00843756 -0.00137647 -1.81947e-05)
(0.00840794 -0.00275675 6.62977e-06)
(0.0102601 0.00273544 -8.96256e-05)
(0.0100776 0.00128385 -6.4458e-05)
(0.009926 -7.81281e-05 -4.57493e-05)
(0.00986079 -0.00142524 -2.77305e-05)
(0.00983449 -0.00281638 -2.34603e-06)
(0 0 0)
(0 0 0)
(0 0 0)
(0 0 0)
(0 0 0)
(0.00109993 0.000950962 -1.58369e-06)
(0.000701708 0.00029655 -1.12811e-06)
(0.000573887 -2.59978e-06 -2.80799e-06)
(0.000634554 -0.000301616 -4.77121e-06)
(0.000929912 -0.000948948 -4.87726e-06)
(0.00203831 0.00145566 -5.92961e-06)
(0.0017093 0.000616173 -4.38439e-06)
(0.00155711 1.8593e-07 -5.61365e-06)
(0.00160386 -0.000617814 -7.20941e-06)
(0.00181422 -0.00146772 -6.29324e-06)
(0.00319652 0.0019124 -1.19383e-05)
(0.00290358 0.000864438 -8.70669e-06)
(0.00276071 -4.65211e-07 -8.19864e-06)
(0.00277497 -0.000868907 -7.98229e-06)
(0.00292346 -0.00193177 -5.26329e-06)
(0.00448828 0.00224326 -1.9113e-05)
(0.00424235 0.00104417 -1.37074e-05)
(0.00411039 -7.43307e-06 -1.06311e-05)
(0.00409729 -0.0010614 -7.77533e-06)
(0.00418102 -0.00227178 -2.74232e-06)
(0.00587235 0.00246636 -2.68378e-05)
(0.00566652 0.00116277 -1.90073e-05)
(0.00554523 -2.02722e-05 -1.30945e-05)
(0.00551051 -0.00120192 -7.31563e-06)
(0.0055417 -0.00250686 3.0959e-07)
(0.00730257 0.00260214 -3.45012e-05)
(0.00712691 0.00123207 -2.42742e-05)
(0.0070147 -3.78249e-05 -1.58421e-05)
(0.00696419 -0.00129984 -7.42699e-06)
(0.00695655 -0.00265487 2.81779e-06)
(0.00875004 0.00268617 -4.12741e-05)
(0.00859124 0.00126536 -2.90781e-05)
(0.00847976 -5.78601e-05 -1.91514e-05)
(0.00841754 -0.00136561 -9.18114e-06)
(0.00838761 -0.00274105 3.3186e-06)
(0.0102387 0.00273465 -4.50173e-05)
(0.0100551 0.00128673 -3.23903e-05)
(0.00990244 -7.10741e-05 -2.30698e-05)
(0.00983625 -0.00141371 -1.40747e-05)
(0.00980932 -0.00279989 -1.35046e-06)
(0 0 0)
(0 0 0)
(0 0 0)
(0 0 0)
(0 0 0)
(0.00109978 0.000950702 -0)
(0.000701123 0.000296541 -0)
(0.000573016 -2.40457e-06 0)
(0.00063364 -0.000301185 0)
(0.000929099 -0.000947989 0)
(0.00203758 0.00145499 -0)
(0.00170796 0.0006161 0)
(0.00155538 7.05153e-07 -0)
(0.00160208 -0.000616665 0)
(0.0018127 -0.00146586 0)
(0.003195 0.00191146 -0)
(0.00290143 0.00086437 0)
(0.00275817 4.06206e-07 0)
(0.00277239 -0.000867066 0)
(0.00292115 -0.00192898 0)
(0.00448584 0.00224221 -0)
(0.00423933 0.00104419 0)
(0.00410701 -6.21442e-06 0)
(0.00409386 -0.00105895 0)
(0.00417781 -0.00226819 0)
(0.00586884 0.00246534 -0)
(0.00566253 0.00116296 0)
(0.00554093 -1.87273e-05 0)
(0.00550614 -0.00119897 0)
(0.00553745 -0.00250258 0)
(0.00729785 0.00260128 -0)
(0.00712181 0.00123248 0)
(0.00700935 -3.59892e-05 0)
(0.00695874 -0.00129651 0)
(0.00695111 -0.00265007 0)
(0.00874401 0.00268556 -0)
(0.00858491 0.00126602 0)
(0.0084732 -5.57678e-05 0)
(0.00841081 -0.00136199 0)
(0.0083808 -0.00273583 0)
(0.0102314 0.00273432 -0)
(0.0100476 0.00128767 -0)
(0.00989452 -6.87034e-05 0)
(0.00982802 -0.00140985 0)
(0.0098009 -0.00279439 0)
)
;

boundaryField
{
    interface
    {
        type            calculated;
    }
    symmetry
    {
        type            symmetryPlane;
    }
    bottom
    {
        type            fixedValue;
        value           uniform (0 0 0);
    }
}


// ************************************************************************* //
