/*--------------------------------*- C++ -*----------------------------------*\
| =========                 |                                                 |
| \\      /  F ield         | foam-extend: Open Source CFD                    |
|  \\    /   O peration     | Version:     3.1                                |
|   \\  /    A nd           | Web:         http://www.extend-project.de       |
|    \\/     M anipulation  |                                                 |
\*---------------------------------------------------------------------------*/
FoamFile
{
    version     2.0;
    format      ascii;
    class       volScalarField;
    location    "2.9";
    object      sigmaEq;
}
// * * * * * * * * * * * * * * * * * * * * * * * * * * * * * * * * * * * * * //

dimensions      [1 -1 -2 0 0 0 0];

internalField   nonuniform List<scalar> 
256
(
258.781
115.012
112.786
247.791
193.355
145.934
135.116
173.684
175.273
139.074
128.416
152.785
139.108
124.254
114.953
115.093
106.675
105.643
97.9571
82.7522
79.0558
84.9039
78.7428
55.5874
60.2433
64.3311
57.824
35.2997
55.5521
48.422
31.7098
21.5172
254.929
129.15
124.337
237.807
201.694
150.297
141.386
183.741
173.045
129.794
120.127
151.195
135.63
110.401
101.392
111.565
101.851
90.3502
82.7369
77.1926
74.4696
70.7649
64.7222
49.6544
56.4553
52.8401
46.9162
30.1039
52.9795
41.7853
26.3101
18.5073
257.048
133.111
126.331
235.671
200.831
151.687
141.568
179.949
173.206
129.236
118.216
148.396
135.635
107.545
97.1446
108.677
101.787
86.5755
77.6938
74.3609
74.2362
66.9309
59.9634
47.0573
55.9377
49.8152
43.4186
27.8658
51.8331
40.9342
24.9139
15.4547
258.323
133.908
125.729
234.186
200.314
152.547
141.057
176.893
173.375
130.092
117.642
145.796
136.219
107.94
96.1774
106.401
102.563
86.5968
76.5302
72.3228
75.0244
66.7495
58.8916
45.2413
56.582
49.7668
42.7849
26.2584
52.2467
41.8426
25.0359
13.6933
258.752
133.62
124.481
232.68
200.312
152.876
140.291
174.898
173.776
130.925
117.369
143.934
137.019
108.912
96.1333
104.79
103.589
87.5259
76.5962
70.928
76.1013
67.5462
59.0329
44.0093
57.5794
50.5
43.0406
25.18
53.1564
42.9571
25.5018
12.7675
258.739
133.087
123.298
231.321
200.43
152.899
139.511
173.56
174.186
131.474
117.124
142.673
137.725
109.727
96.241
103.711
104.463
88.4154
76.9014
70.0082
77.0193
68.3688
59.4155
43.2116
58.4547
51.2266
43.4302
24.4967
54.0562
43.8379
25.866
12.2245
258.596
132.638
122.442
230.315
200.531
152.815
138.901
172.708
174.49
131.771
116.908
141.881
138.218
110.246
96.3116
103.042
105.06
89.0176
77.1419
69.4459
77.6421
68.9413
59.7184
42.7347
59.0592
51.7265
43.7139
24.0998
54.7082
44.4082
26.0713
11.8876
258.49
132.395
122.001
229.786
200.582
152.746
138.572
172.289
174.646
131.895
116.78
141.497
138.466
110.488
96.3366
102.721
105.354
89.3093
77.2602
69.1774
77.9476
69.2223
59.8706
42.5107
59.3564
51.9709
43.8515
23.9166
55.0343
44.683
26.1564
11.7176
)
;

boundaryField
{
    interface
    {
        type            calculated;
        value           nonuniform List<scalar> 
192
(
418.579
219.38
212.642
159.111
117.157
82.5361
63.3185
54.2251
409.72
236.177
214.011
162.592
119.684
85.969
67.1296
57.8017
414.908
231.941
213.041
162.182
119.335
85.3502
66.0068
54.4397
418.727
229.545
212.345
162.225
119.851
86.0488
66.7445
54.3879
420.564
228.635
212.234
162.599
120.622
86.9984
67.7766
54.9685
421.24
228.342
212.41
163.082
121.356
87.8594
68.7128
55.7697
421.391
228.255
212.614
163.472
121.884
88.4571
69.3588
56.3817
421.384
228.228
212.73
163.676
122.146
88.7495
69.6683
56.6787
292.63
180.066
180.64
143.53
112.662
84.8928
65.2755
59.905
105.036
140.103
147.337
135.14
117.453
95.6504
73.0573
55.1347
106.557
126.383
135.249
124.86
109.027
88.8139
65.72
36.0912
285.465
156.167
157.134
118.567
88.563
61.6197
40.8286
25.5753
396.362
203.994
190.474
134.294
89.8567
52.5683
28.0446
18.3817
378.295
220.755
190.38
135.482
89.759
53.1713
29.3633
19.6234
379.397
214.076
186.726
132.615
87.237
50.9309
27.063
15.058
380.25
209.546
183.286
129.704
84.6427
48.3927
24.2218
12.1043
379.79
206.989
180.96
127.56
82.6555
46.3141
21.7281
10.0742
378.755
205.472
179.477
126.145
81.2942
44.8496
19.8934
8.76496
377.772
204.573
178.584
125.29
80.4569
43.9409
18.7295
7.94308
377.202
204.145
178.16
124.887
80.058
43.5089
18.1735
7.54114
59.9651
57.1599
56.3208
56.5843
57.4909
58.406
59.0867
59.416
46.0287
41.4795
42.0399
43.671
45.1614
46.2439
46.9271
47.258
13.2223
11.4737
11.6617
12.8124
13.7583
14.2354
14.4104
14.4545
21.864
18.6386
14.5554
12.1669
11.0827
10.4405
10.0035
9.76147
)
;
    }
    symmetry
    {
        type            symmetryPlane;
    }
    bottom
    {
        type            calculated;
        value           nonuniform List<scalar> 
32
(
237.418
205.506
201.719
202.099
202.54
202.665
202.628
202.572
78.5469
85.2199
85.8458
84.7718
83.5182
82.5087
81.8391
81.5096
83.2053
84.0167
81.8326
79.054
76.8077
75.2277
74.2419
73.7705
238.667
194.897
183.365
179.523
177.644
176.412
175.588
175.166
)
;
    }
}


// ************************************************************************* //
