/*--------------------------------*- C++ -*----------------------------------*\
| =========                 |                                                 |
| \\      /  F ield         | foam-extend: Open Source CFD                    |
|  \\    /   O peration     | Version:     3.1                                |
|   \\  /    A nd           | Web:         http://www.extend-project.de       |
|    \\/     M anipulation  |                                                 |
\*---------------------------------------------------------------------------*/
FoamFile
{
    version     2.0;
    format      ascii;
    class       volSymmTensorField;
    location    "2.9";
    object      sigma;
}
// * * * * * * * * * * * * * * * * * * * * * * * * * * * * * * * * * * * * * //

dimensions      [1 -1 -2 0 0 0 0];

internalField   nonuniform List<symmTensor> 
256
(
(188.659 65.3422 -2.91167 426.875 34.2274 217.997)
(25.2742 55.6286 -8.71505 86.6335 11.8808 34.2978)
(-58.9725 51.896 -8.91193 -118.558 -16.835 -58.936)
(-213.035 55.1863 -3.61773 -438.285 -41.2719 -230.468)
(-80.1768 27.2726 -3.3915 128.132 -10.7395 -23.2454)
(-34.0951 71.6735 -13.7599 47.2809 -4.79318 -10.1961)
(-1.49798 70.176 -14.2323 -55.8239 2.60192 -3.34767)
(42.7109 26.2658 -4.99721 -138.121 7.71908 9.8931)
(-29.2706 33.3538 -1.39691 156.527 -5.86802 26.4316)
(-35.0556 69.3484 -9.41934 42.844 -2.40887 -5.0071)
(-7.38704 69.3804 -9.75721 -50.0049 0.328609 -8.65405)
(-7.08004 33.6934 -3.01091 -159.318 3.53474 -33.2944)
(-41.0119 29.222 -1.38195 105.722 -8.46399 11.8484)
(-35.8297 63.2731 -7.73166 29.6395 -2.93256 -6.07217)
(-6.87711 63.6767 -7.97554 -35.0512 1.26861 -4.86821)
(4.73092 30.0682 -3.12469 -105.588 6.72436 -15.1946)
(-37.4003 25.3555 -0.986229 73.5225 -7.79256 11.9151)
(-33.5274 54.4963 -6.17804 19.5266 -2.54688 -4.58152)
(-8.24394 55.1502 -6.38631 -24.604 1.22566 -4.4513)
(1.81937 26.6045 -2.74099 -71.946 6.58042 -12.9029)
(-37.7036 19.5863 -1.04718 43.2848 -6.81487 8.87251)
(-32.0577 43.7105 -5.33252 10.0414 -2.23422 -4.12913)
(-8.71741 44.7189 -5.42138 -15.9211 1.09439 -3.92949)
(2.4485 21.5511 -2.63573 -41.5654 6.05564 -8.93547)
(-36.709 12.7003 -1.57105 24.4675 -5.62451 9.2458)
(-32.0084 31.7947 -5.0539 2.61439 -2.16497 -3.92465)
(-9.13235 32.8646 -4.92475 -9.8117 0.693052 -4.10327)
(3.2675 15.5704 -2.72516 -20.5926 4.76322 -7.46244)
(-47.7148 7.08014 -2.17561 7.8612 -3.09756 4.07629)
(-44.7379 17.9927 -4.7766 -7.23923 -1.39322 -10.3493)
(-3.25595 17.6264 -4.71729 -1.01843 -0.0586715 -0.429704)
(10.3359 7.65446 -3.18578 -5.9885 1.72356 -4.75403)
(189.899 74.3555 -1.84197 422.739 21.1578 226.389)
(30.878 67.0015 -7.0033 89.3742 6.72966 41.0805)
(-53.6977 63.7861 -7.62797 -106.137 -12.0133 -55.7557)
(-204.898 64.6818 -3.30808 -419.698 -28.2785 -228.841)
(-45.9681 28.1042 -2.66558 173.478 -3.94507 17.6545)
(-10.6351 74.0577 -12.8905 73.2054 -2.64375 12.7304)
(-22.7985 73.218 -14.2058 -81.8179 -1.0061 -26.1067)
(7.54096 28.1519 -5.75736 -185.523 -0.435436 -31.3029)
(-23.3455 29.3394 -1.10163 161.662 -9.22824 31.3134)
(-23.3452 63.6875 -10.1766 51.4756 -3.79393 2.85257)
(-13.4803 63.8745 -11.5632 -56.0014 1.50553 -14.0823)
(-10.6583 29.695 -4.62972 -163.15 6.58875 -36.1126)
(-30.2626 24.3524 0.0732471 114.743 -11.5139 21.063)
(-23.4698 55.0241 -7.22067 38.3735 -4.08809 1.93235)
(-12.6625 55.4168 -8.65733 -40.1248 2.70748 -10.4331)
(-3.27302 25.0792 -3.78617 -112.528 10.0705 -22.4025)
(-29.6287 20.023 1.14261 78.2614 -11.4762 17.861)
(-23.0648 45.6258 -4.86549 25.9626 -3.83882 1.29417)
(-11.572 46.1962 -6.31597 -26.4515 3.08186 -7.65836)
(-3.00487 21.1076 -2.8216 -73.9108 10.9362 -16.8089)
(-30.149 14.8018 1.67071 47.6156 -10.1033 14.9244)
(-22.6117 35.7299 -3.30983 15.543 -3.33794 0.901357)
(-10.8343 36.6211 -4.64628 -16.1082 2.82163 -5.97814)
(-1.93247 16.636 -2.12215 -42.2801 10.1654 -12.5762)
(-29.9915 8.80602 1.59192 27.9167 -7.84859 14.6832)
(-24.2491 25.5968 -2.5977 6.51106 -2.8188 -0.338607)
(-10.1427 26.6222 -3.72445 -8.65955 1.966 -4.92374)
(0.146419 11.8274 -1.7248 -19.4783 7.93298 -9.78714)
(-40.7358 5.233 1.05218 12.0195 -4.28092 9.70491)
(-38.1266 14.896 -2.58676 -3.99562 -1.73426 -7.73639)
(-5.37338 14.4914 -3.90304 -1.10803 0.644655 -1.96701)
(5.84272 5.965 -2.2994 -6.70618 3.76919 -8.12508)
(196.858 78.0964 -1.23411 433.499 10.5106 241.413)
(33.5868 69.9242 -4.49005 93.5134 2.79239 47.024)
(-54.1954 66.4854 -5.00907 -105.952 -7.50176 -58.9668)
(-211.549 67.59 -2.31726 -428.014 -16.2481 -243.068)
(-46.6373 28.6612 -2.16273 174.673 -2.61628 30.8446)
(-8.86259 75.3224 -8.76709 77.2147 -2.09943 20.4728)
(-24.4847 74.5276 -9.8811 -83.6328 -1.40312 -32.7087)
(5.47389 28.71 -4.47975 -187.432 -1.08926 -46.9859)
(-24.0205 28.9293 -1.38094 163.713 -7.06505 39.8208)
(-22.6367 63.1939 -7.60188 54.4461 -3.17591 8.05381)
(-14.4643 63.3714 -8.80324 -57.456 0.966251 -18.4722)
(-12.7913 29.0709 -3.97927 -166.118 4.78303 -47.7635)
(-31.2397 23.4654 -0.430278 115.691 -9.2954 25.0875)
(-22.8017 52.9514 -5.56528 40.5801 -3.52871 5.53369)
(-13.5408 53.3242 -6.79234 -40.6662 2.35699 -12.97)
(-5.6169 24.0617 -3.16519 -114.753 8.19043 -30.0291)
(-31.4874 18.7369 0.442256 78.0659 -9.62457 18.0591)
(-22.4642 42.9153 -3.60207 27.8163 -3.35949 3.79387)
(-12.3277 43.5119 -4.81651 -26.4177 2.94761 -8.794)
(-4.60338 19.8264 -2.29179 -74.8268 9.45646 -20.5384)
(-32.3283 13.4096 0.979734 46.9586 -8.66234 12.6794)
(-22.0244 32.9857 -2.20787 17.1301 -2.90523 2.63445)
(-11.4624 34.001 -3.32283 -15.5822 2.86838 -5.98029)
(-3.14428 15.4738 -1.5848 -42.3412 9.11694 -13.4218)
(-31.8584 7.42535 1.03998 27.547 -6.75361 11.1405)
(-23.6955 23.3497 -1.60437 7.85103 -2.33242 0.766979)
(-10.7684 24.6113 -2.59171 -7.87338 2.13381 -4.0359)
(-0.821297 10.9984 -1.22558 -18.9091 7.33356 -8.32183)
(-43.2833 4.5536 0.522379 10.5477 -3.48178 3.97792)
(-38.0766 13.7738 -2.01007 -3.08623 -1.27825 -7.49751)
(-6.50327 13.5068 -3.26892 -0.253559 0.744533 -0.155466)
(5.79026 5.64867 -2.00182 -4.58863 3.42382 -3.29074)
(200.499 79.4709 -0.687689 439.606 4.49087 250.461)
(34.5314 70.4633 -2.68205 95.5567 0.743326 50.2211)
(-54.74 66.7499 -3.03103 -106.112 -4.58281 -61.1599)
(-214.93 68.2514 -1.44241 -432.26 -8.88073 -251.472)
(-47.7669 28.8222 -1.31004 174.544 -2.20505 39.9977)
(-9.26189 75.9144 -5.5055 78.5356 -1.71467 24.6047)
(-24.9396 75.0677 -6.27306 -83.2845 -1.20663 -36.3373)
(5.04359 28.844 -2.95958 -186.891 -0.711179 -57.1849)
(-24.7168 29.0895 -0.989419 164.821 -5.02893 47.7396)
(-23.6399 63.5257 -5.16277 55.5031 -2.38269 11.1818)
(-14.8545 63.6982 -5.99853 -57.1873 0.538656 -21.3816)
(-13.4279 29.1738 -2.83147 -166.361 3.24578 -56.6353)
(-32.0719 23.4317 -0.418072 116.837 -6.63138 30.3096)
(-23.8227 52.8476 -3.97538 41.531 -2.61633 7.76486)
(-14.075 53.2358 -4.80589 -40.3651 1.70107 -14.9085)
(-6.27448 24.0281 -2.30829 -115.054 5.82705 -36.2382)
(-32.3153 18.5239 0.179827 79.2442 -7.02961 20.7533)
(-23.4079 42.4736 -2.64712 28.7514 -2.50264 5.26653)
(-12.9516 43.1332 -3.44563 -26.0583 2.28949 -9.74412)
(-5.25428 19.7127 -1.66571 -74.9936 7.02672 -23.9781)
(-33.0687 13.0493 0.581466 48.2224 -6.49672 13.4061)
(-22.8469 32.3664 -1.65506 18.058 -2.18649 3.54375)
(-12.0952 33.5186 -2.37324 -15.1186 2.33128 -6.01317)
(-3.78694 15.3628 -1.12208 -42.3215 7.01213 -14.4659)
(-32.1826 6.95652 0.624286 29.1924 -5.22099 10.6797)
(-24.4142 22.7594 -1.31639 8.75542 -1.76834 1.28156)
(-11.4846 24.2128 -1.9599 -7.33599 1.79319 -3.27096)
(-1.51188 10.9469 -0.886284 -18.6086 5.8031 -7.3415)
(-43.5486 4.33301 0.0831319 12.0083 -2.83635 2.51379)
(-38.9367 13.4512 -2.00239 -2.16811 -1.00407 -7.17344)
(-7.79831 13.2539 -2.88386 0.184594 0.645205 1.27347)
(4.97548 5.6403 -1.6776 -3.95324 2.76809 -0.409356)
(201.888 79.8574 -0.337456 442.23 1.47606 255.045)
(34.8891 70.2335 -1.51824 96.6215 -0.159457 51.934)
(-54.9839 66.3102 -1.73898 -105.907 -2.74832 -62.3377)
(-215.976 68.1091 -0.842193 -433.16 -4.67419 -255.436)
(-48.769 28.7825 -0.688215 174.323 -1.87524 45.461)
(-9.75345 76.0071 -3.26196 79.2544 -1.35305 26.9689)
(-25.2653 75.1174 -3.76121 -82.6541 -0.903977 -38.5142)
(4.77821 28.8064 -1.81264 -186.168 -0.325963 -63.4101)
(-25.5973 29.2066 -0.581589 165.245 -3.51357 52.9323)
(-24.5077 63.8144 -3.27162 56.1285 -1.70101 13.1454)
(-15.2078 64.0017 -3.82223 -56.5889 0.287592 -23.311)
(-13.637 29.298 -1.8357 -165.815 2.19142 -62.3626)
(-32.9963 23.5589 -0.272704 117.484 -4.5051 34.1842)
(-24.7085 53.1463 -2.64357 42.1966 -1.81222 9.28015)
(-14.5155 53.568 -3.17868 -39.8392 1.1399 -16.3216)
(-6.52418 24.2043 -1.53641 -114.658 3.93952 -40.5885)
(-33.1684 18.5984 0.0886128 80.1065 -4.81471 23.1482)
(-24.2324 42.6805 -1.83792 29.4703 -1.72975 6.33769)
(-13.4375 43.4026 -2.33954 -25.5784 1.61571 -10.5178)
(-5.55027 19.899 -1.12312 -74.6971 4.86212 -26.6253)
(-33.8103 13.0288 0.336662 49.2433 -4.55052 14.5193)
(-23.5655 32.4523 -1.22542 18.8171 -1.53346 4.27834)
(-12.5922 33.7083 -1.66715 -14.6579 1.69259 -6.14142)
(-4.10568 15.5443 -0.769329 -42.0197 4.97123 -15.4515)
(-32.64 6.8272 0.321901 30.4683 -3.77241 10.9786)
(-25.076 22.7581 -1.11073 9.49551 -1.27122 1.77597)
(-12.0605 24.3318 -1.50666 -6.8949 1.31891 -2.8191)
(-1.86048 11.1112 -0.659858 -18.1679 4.19632 -6.84019)
(-44.1965 4.28162 -0.20089 12.964 -2.11417 1.89318)
(-39.8887 13.4421 -1.8718 -1.56546 -0.743603 -6.95852)
(-8.77328 13.2534 -2.44413 0.551003 0.463063 2.18242)
(4.53289 5.71196 -1.37286 -3.35613 2.01253 1.39303)
(202.281 79.8741 -0.139477 443.159 0.179107 257.226)
(35.0202 69.8415 -0.808442 97.2028 -0.426262 52.8387)
(-55.0182 65.7723 -0.941371 -105.513 -1.58412 -62.888)
(-215.998 67.7602 -0.461113 -432.625 -2.33947 -257.061)
(-49.4205 28.6673 -0.306058 174.215 -1.44736 48.5957)
(-10.1227 75.8711 -1.81087 79.7187 -0.982163 28.2857)
(-25.4814 74.9526 -2.11924 -82.0439 -0.610546 -39.7772)
(4.53944 28.7093 -1.03349 -185.54 -0.0927303 -67.0535)
(-26.2437 29.2416 -0.283305 165.507 -2.34055 56.114)
(-25.1012 63.9416 -1.92403 56.5707 -1.13992 14.3175)
(-15.4843 64.147 -2.26836 -56.0158 0.149482 -24.5257)
(-13.7485 29.3598 -1.09533 -165.192 1.42831 -65.8359)
(-33.6696 23.6593 -0.129573 117.921 -2.89981 36.7621)
(-25.3188 53.4083 -1.62108 42.6841 -1.17575 10.242)
(-14.8278 53.8613 -1.95055 -39.3196 0.716066 -17.2576)
(-6.64936 24.36 -0.938738 -114.131 2.5223 -43.3683)
(-33.7889 18.7005 0.0693573 80.7097 -3.09761 24.9464)
(-24.8004 42.9601 -1.17524 30.0049 -1.11593 7.07143)
(-13.7616 43.7312 -1.47843 -25.112 1.04878 -11.0649)
(-5.69608 20.0944 -0.698088 -74.2568 3.14168 -28.4316)
(-34.3422 13.0796 0.202908 49.9702 -2.97429 15.602)
(-24.0637 32.6719 -0.840248 19.3764 -1.00267 4.83411)
(-12.917 34.0005 -1.10288 -14.2397 1.11566 -6.27108)
(-4.27555 15.7422 -0.493937 -41.6254 3.25652 -16.2432)
(-32.9878 6.79325 0.157687 31.3576 -2.52669 11.596)
(-25.5528 22.8866 -0.852155 10.0233 -0.851733 2.19366)
(-12.4454 24.538 -1.08733 -6.53396 0.87091 -2.57498)
(-2.05457 11.279 -0.463732 -17.7317 2.78086 -6.68937)
(-44.6162 4.26369 -0.262688 13.7551 -1.45827 2.04917)
(-40.5908 13.495 -1.50381 -1.13074 -0.514508 -6.71817)
(-9.43574 13.3019 -1.85948 0.826889 0.295331 2.66704)
(4.18535 5.77236 -1.01729 -2.97064 1.33864 2.2168)
(202.302 79.7959 -0.0460401 443.38 -0.189478 258.181)
(35.0646 69.5173 -0.38355 97.5179 -0.35962 53.2966)
(-54.9709 65.3566 -0.454333 -105.14 -0.814015 -63.1106)
(-215.72 67.4522 -0.224297 -431.795 -1.05483 -257.608)
(-49.8139 28.5571 -0.111774 174.155 -0.914223 50.2501)
(-10.3572 75.6963 -0.889556 80.0118 -0.59674 28.9748)
(-25.6037 74.7608 -1.05692 -81.5783 -0.349093 -40.4583)
(4.37003 28.6182 -0.519022 -185.071 0.00226584 -69.0336)
(-26.6601 29.234 -0.113986 165.667 -1.34991 57.876)
(-25.4593 63.9667 -0.989007 56.8698 -0.657498 14.9645)
(-15.6646 64.1862 -1.17772 -55.5906 0.0712859 -25.2272)
(-13.8125 29.3775 -0.569014 -164.706 0.813399 -67.7764)
(-34.1028 23.7117 -0.0462843 118.192 -1.62761 38.2688)
(-25.688 53.5605 -0.860775 43.0128 -0.661528 10.7996)
(-15.0213 54.036 -1.03966 -38.9285 0.39229 -17.8157)
(-6.71804 24.4553 -0.496794 -113.706 1.40857 -44.9799)
(-34.1935 18.7683 0.049457 81.0733 -1.7332 26.0762)
(-25.1436 43.1551 -0.645321 30.3594 -0.624492 7.52433)
(-13.9535 43.9586 -0.808099 -24.7588 0.585454 -11.4031)
(-5.76869 20.2265 -0.375326 -73.8825 1.75807 -29.5259)
(-34.6939 13.1219 0.110304 50.3996 -1.68052 16.3709)
(-24.3658 32.8422 -0.488314 19.7383 -0.566672 5.20438)
(-13.1054 34.2163 -0.627862 -13.9293 0.627293 -6.36536)
(-4.36149 15.8793 -0.274371 -41.2914 1.83415 -16.7755)
(-33.237 6.7821 0.0663116 31.8743 -1.45169 12.1268)
(-25.8473 22.9938 -0.53531 10.3565 -0.490179 2.49515)
(-12.6725 24.691 -0.660192 -6.27856 0.48861 -2.4552)
(-2.15225 11.3928 -0.27737 -17.3934 1.57511 -6.68741)
(-44.9082 4.25775 -0.204955 14.2359 -0.857763 2.34879)
(-41.0405 13.5424 -0.96475 -0.86185 -0.30267 -6.52575)
(-9.83649 13.34 -1.15968 1.01582 0.161279 2.8978)
(3.96983 5.80839 -0.62616 -2.71633 0.759075 2.54252)
(202.253 79.7361 -0.00959251 443.389 -0.107686 258.528)
(35.0772 69.3427 -0.11191 97.6582 -0.135234 53.4878)
(-54.927 65.138 -0.134062 -104.923 -0.250004 -63.1821)
(-215.506 67.2819 -0.0664492 -431.259 -0.298154 -257.741)
(-49.9982 28.4935 -0.0260972 174.126 -0.312419 50.9539)
(-10.4699 75.587 -0.265061 80.1553 -0.200236 29.2677)
(-25.6569 74.6437 -0.317973 -81.3286 -0.11325 -40.7538)
(4.28438 28.5659 -0.156634 -184.82 0.0104439 -69.8989)
(-26.8612 29.2205 -0.0291273 165.744 -0.442157 58.6497)
(-25.6268 63.9598 -0.302526 57.022 -0.215182 15.2488)
(-15.7517 64.1868 -0.362486 -55.3667 0.0210636 -25.5465)
(-13.842 29.3787 -0.175001 -164.446 0.264882 -68.6401)
(-34.3117 23.7315 -0.0104892 118.323 -0.52555 38.9526)
(-25.8608 53.6245 -0.268233 43.1787 -0.213707 11.0525)
(-15.1127 54.1114 -0.324811 -38.722 0.124801 -18.0744)
(-6.74923 24.4977 -0.154466 -113.477 0.453343 -45.7137)
(-34.3902 18.799 0.0175104 81.2428 -0.558425 26.6108)
(-25.3042 43.2478 -0.205042 30.5354 -0.201135 7.73822)
(-14.0418 44.067 -0.256251 -24.5717 0.187843 -11.5628)
(-5.79903 20.2895 -0.117903 -73.6757 0.565753 -30.0372)
(-34.8655 13.142 0.034353 50.5954 -0.54406 16.7596)
(-24.5072 32.927 -0.160285 19.9142 -0.183481 5.38738)
(-13.1908 34.3224 -0.203927 -13.7657 0.201832 -6.41348)
(-4.39753 15.9457 -0.0879823 -41.1064 0.591663 -17.0397)
(-33.3618 6.77701 0.0163272 32.1056 -0.474438 12.4189)
(-25.9862 23.0481 -0.182889 10.5157 -0.160272 2.65058)
(-12.7765 24.7656 -0.221865 -6.14646 0.156967 -2.40736)
(-2.19393 11.4467 -0.0926962 -17.2135 0.509228 -6.71529)
(-45.0459 4.25713 -0.0777154 14.4594 -0.285577 2.55269)
(-41.2539 13.5688 -0.332035 -0.73257 -0.100249 -6.41984)
(-10.0263 13.3575 -0.394008 1.11139 0.0514316 2.98439)
(3.86204 5.82294 -0.211876 -2.59353 0.245685 2.63702)
)
;

boundaryField
{
    interface
    {
        type            calculated;
        value           nonuniform List<symmTensor> 
192
(
(-24.4896 -0.0551391 2.3954 443.04 42.4362 132.785)
(-23.9167 0.0160666 4.02432 214.245 -12.9788 24.221)
(-23.9872 0.0161991 4.81395 214.257 -7.9971 46.2985)
(-24.0336 -0.12412 5.23124 154.523 -11.9001 35.2838)
(-24.3171 -0.479467 5.44331 108.073 -11.1624 31.0621)
(-24.6929 -1.1151 5.46282 67.7531 -9.77304 26.2967)
(-24.9529 -2.23488 5.22848 43.0176 -7.71081 25.4299)
(-23.6591 -3.9536 4.54328 30.3482 -4.0678 27.723)
(-27.5496 0.113687 1.70089 436.757 26.5218 140.836)
(-27.3036 0.245784 2.87626 235.769 -4.38085 42.6588)
(-28.015 0.268308 3.43136 211.676 -12.0109 44.4675)
(-28.726 0.064027 3.7168 153.626 -15.5505 35.4312)
(-29.4292 -0.412617 3.84185 104.649 -15.694 30.0104)
(-29.8863 -1.24454 3.81475 64.5381 -13.8842 26.105)
(-29.5582 -2.6775 3.59665 40.4726 -10.6166 26.1862)
(-26.0125 -4.70229 3.08925 29.9229 -5.66347 30.2973)
(-29.5784 0.159074 1.21344 444.566 13.2892 152.677)
(-29.1965 0.317051 2.04405 233.248 -2.76073 56.168)
(-30.0327 0.352172 2.40567 211.234 -8.88857 52.202)
(-30.8765 0.119412 2.57144 152.802 -12.1356 37.7669)
(-31.6416 -0.427336 2.62996 103.36 -12.7787 28.0704)
(-31.9913 -1.37668 2.59121 63.3763 -11.6164 21.4163)
(-31.2118 -2.97819 2.43975 40.1836 -9.05295 20.0931)
(-26.5201 -5.11286 2.12674 29.4263 -4.69142 22.8578)
(-31.0322 0.165309 0.884279 449.047 5.69383 160.271)
(-30.5273 0.33041 1.49251 231.614 -2.4357 66.9649)
(-31.37 0.369818 1.74483 211.227 -6.23188 61.2162)
(-32.2262 0.119805 1.84966 153.238 -8.50937 43.4351)
(-32.9686 -0.471206 1.87937 104.015 -9.19695 30.4343)
(-33.2001 -1.49339 1.8468 64.3231 -8.60925 21.2214)
(-32.1146 -3.19462 1.74815 41.7144 -6.96643 18.2686)
(-26.7366 -5.37981 1.54642 30.9727 -3.83665 20.0654)
(-32.0694 0.162354 0.634822 450.738 1.88151 164.227)
(-31.492 0.325886 1.07597 230.757 -2.17196 73.6533)
(-32.319 0.363766 1.25521 211.271 -4.34996 67.5797)
(-33.1592 0.101631 1.32531 153.703 -5.74119 48.1773)
(-33.865 -0.517722 1.34267 104.8 -6.2545 33.2076)
(-34.0039 -1.58582 1.32017 65.3579 -5.99709 22.2707)
(-32.7139 -3.35083 1.25817 43.1035 -5.02633 18.1654)
(-26.8762 -5.56572 1.12465 32.3312 -2.86967 19.1882)
(-32.7983 0.157756 0.429723 451.063 0.239009 166.113)
(-32.1711 0.317293 0.730914 230.288 -1.72667 77.4844)
(-32.9819 0.351815 0.85252 211.364 -2.91075 71.5499)
(-33.8021 0.0810998 0.898938 154.087 -3.69228 51.4377)
(-34.4774 -0.556376 0.909968 105.406 -4.01571 35.4382)
(-34.5519 -1.65349 0.896167 66.1307 -3.91416 23.5322)
(-33.1279 -3.46002 0.858567 44.0978 -3.36956 18.7666)
(-26.9818 -5.69378 0.772063 33.4233 -1.9856 19.4322)
(-33.2588 0.154589 0.247673 450.91 -0.230759 166.93)
(-32.6075 0.310318 0.422751 230.011 -1.10781 79.4845)
(-33.4086 0.341602 0.49298 211.438 -1.6867 73.753)
(-34.2135 0.0652663 0.519664 154.341 -2.07536 53.3602)
(-34.8688 -0.583304 0.526035 105.78 -2.24764 36.8709)
(-34.903 -1.69812 0.518673 66.5921 -2.21236 24.4797)
(-33.3966 -3.53043 0.496969 44.6848 -1.93891 19.3812)
(-27.06 -5.77321 0.44497 34.1077 -1.17157 19.897)
(-33.4736 0.152516 0.080122 450.743 -0.132919 167.225)
(-32.8109 0.305637 0.137161 229.883 -0.381062 80.3315)
(-33.6035 0.335139 0.159804 211.483 -0.553945 74.726)
(-34.3992 0.0565502 0.168391 154.474 -0.670964 54.242)
(-35.0446 -0.597199 0.170471 105.964 -0.724655 37.5621)
(-35.06 -1.72197 0.168138 66.8101 -0.716642 24.9755)
(-33.5026 -3.56872 0.160394 44.9627 -0.6344 19.7508)
(-27.0575 -5.80567 0.141713 34.4508 -0.391022 20.2309)
(38.5629 59.0223 -2.83612 284.4 -0.671726 -11.2299)
(-81.8177 26.8578 -4.85975 116.698 -1.05886 -7.64504)
(-55.5921 36.8781 -5.87261 132.68 -1.12725 -4.57113)
(-56.4221 33.2989 -6.50793 92.901 -1.05713 -2.2784)
(-50.429 29.6288 -6.99517 64.1717 -1.03383 -0.820387)
(-47.4446 23.292 -7.41615 37.2961 -1.15021 -0.122306)
(-45.8144 15.5782 -7.90572 19.152 -1.43148 -0.150966)
(-53.7322 8.42971 -8.88578 4.90422 -1.76576 -0.950574)
(-5.67177 46.6041 -1.8189 59.3373 -0.527172 -9.72409)
(-42.5107 70.1029 -3.29952 37.6196 -0.9696 -8.32714)
(-43.5011 74.3697 -3.92805 38.5485 -1.14598 -6.51153)
(-42.4875 69.688 -4.26502 27.0683 -1.05603 -5.02734)
(-39.7461 61.1456 -4.52708 17.5932 -0.889613 -4.06021)
(-37.6099 49.5355 -4.81633 8.52722 -0.771754 -3.5937)
(-36.7869 36.2698 -5.29074 1.66141 -0.751528 -3.54498)
(-44.7327 20.2552 -6.53484 -3.91021 -0.743264 -3.59965)
(-27.5288 42.2933 -1.40735 -93.7125 -0.353253 -8.69175)
(2.82932 68.004 -2.7451 -47.2487 -0.791027 -8.29634)
(-2.92632 74.2533 -3.34068 -46.2972 -1.03186 -7.16922)
(-5.27726 70.0885 -3.63864 -34.1651 -0.977992 -6.14523)
(-7.72252 61.8847 -3.85039 -25.241 -0.785192 -5.4748)
(-9.05684 50.7117 -4.10087 -17.6035 -0.586983 -5.16852)
(-9.89746 37.5036 -4.55422 -12.0031 -0.444506 -5.16872)
(-6.41452 20.0052 -5.77791 -5.17625 -0.33222 -5.2344)
(-69.747 47.9709 -1.31865 -306.267 -0.301685 -7.38433)
(43.4003 24.8009 -2.73544 -125.47 -0.751976 -7.40856)
(15.0813 37.0456 -3.41754 -137.777 -1.01041 -6.46773)
(15.164 34.1577 -3.77094 -96.1617 -0.972233 -5.60849)
(9.37146 31.0102 -4.00134 -66.772 -0.769989 -5.02867)
(6.65129 25.4861 -4.25511 -40.2229 -0.533078 -4.73184)
(5.6498 18.6054 -4.69573 -21.4662 -0.294885 -4.64825)
(11.0021 9.07172 -5.84217 -7.77334 -0.0160351 -4.74392)
(-4.2685 0.296578 0.327037 -440.385 -51.1328 -141.024)
(-3.38839 0.620486 0.576372 -218.707 9.14855 -29.8785)
(-2.26907 0.813363 0.61463 -209.933 5.3353 -44.0639)
(-1.39401 0.788624 0.615243 -146.004 10.0759 -28.4979)
(-0.707193 0.642899 0.673871 -97.443 10.0401 -21.6735)
(-0.045117 0.460544 0.826435 -56.006 9.3121 -15.7018)
(1.06047 0.164681 1.07917 -27.7108 7.34914 -13.0887)
(3.97955 -1.00722 1.38517 -13.4569 2.9043 -13.4426)
(-4.93246 0.135253 -0.0665436 -428.627 -34.8661 -147.34)
(-4.85645 0.33302 -0.109861 -244.746 -0.633955 -50.1631)
(-4.44053 0.483149 -0.172377 -211.025 9.02564 -44.553)
(-3.98785 0.513252 -0.2084 -148.999 14.0291 -31.8503)
(-3.53183 0.468651 -0.177495 -97.7775 15.2914 -24.3346)
(-2.97252 0.405235 -0.0732095 -55.9291 14.3361 -19.1158)
(-1.9212 0.262805 0.0825032 -26.9306 11.3785 -16.5386)
(1.30429 -0.773809 0.284229 -13.5251 5.67937 -17.1259)
(-5.3054 0.0642458 -0.136453 -436.099 -19.6426 -160.724)
(-5.4397 0.195495 -0.213601 -243.705 -1.09842 -67.5891)
(-5.21974 0.32741 -0.243666 -212.144 6.5232 -57.4426)
(-4.90456 0.398226 -0.240949 -150.092 11.0648 -39.9584)
(-4.5004 0.427774 -0.190961 -98.1946 12.7696 -28.1851)
(-3.92943 0.447315 -0.0979436 -55.9216 12.3956 -19.6789)
(-2.84266 0.395092 0.011932 -26.518 10.1899 -14.4615)
(0.312774 -0.49592 0.0984643 -11.9547 5.07496 -11.8079)
(-5.57219 0.036906 -0.128036 -439.768 -10.4002 -169.092)
(-5.76664 0.134763 -0.195808 -242.391 -0.463655 -80.313)
(-5.6248 0.258504 -0.20176 -211.918 4.47462 -68.5767)
(-5.36386 0.360539 -0.175675 -150.239 7.7728 -47.8039)
(-4.96267 0.447018 -0.118098 -98.3107 9.33173 -32.4766)
(-4.34442 0.530485 -0.0381489 -55.8828 9.37333 -20.8793)
(-3.16902 0.529068 0.0390136 -26.0678 7.95942 -13.0287)
(-0.129281 -0.27268 0.066737 -11.0965 4.07429 -8.11641)
(-5.76826 0.0266681 -0.0981984 -440.423 -5.24397 -173.454)
(-5.98216 0.110811 -0.147365 -241.444 0.0285481 -88.1803)
(-5.87177 0.234835 -0.140332 -211.317 3.08261 -76.0082)
(-5.62942 0.360955 -0.106743 -149.859 5.2439 -53.5158)
(-5.21636 0.487312 -0.0542699 -98.0423 6.40845 -35.9608)
(-4.55836 0.61186 0.0056562 -55.5648 6.59463 -22.177)
(-3.33851 0.639035 0.0507382 -25.4956 5.73144 -12.3861)
(-0.38848 -0.107699 0.0505408 -10.3668 2.97087 -5.91971)
(-5.89967 0.0240801 -0.0648595 -439.795 -2.48441 -175.544)
(-6.11727 0.105031 -0.0950839 -240.714 0.239335 -92.7289)
(-6.0159 0.233553 -0.0835784 -210.707 2.048 -80.5191)
(-5.77576 0.376825 -0.0531691 -149.36 3.36838 -57.1772)
(-5.34943 0.52808 -0.0128054 -97.6144 4.13359 -38.3655)
(-4.66611 0.675815 0.0268172 -55.1327 4.31102 -23.2513)
(-3.4293 0.717649 0.0498088 -24.9411 3.80068 -12.2379)
(-0.546056 0.00400558 0.0372786 -9.84621 1.98888 -4.90683)
(-5.97813 0.024345 -0.0355592 -438.94 -1.05385 -176.459)
(-6.19465 0.106263 -0.0508689 -240.188 0.229835 -95.1662)
(-6.09391 0.239762 -0.0415359 -210.237 1.18223 -83.0239)
(-5.85053 0.393993 -0.02123 -148.951 1.8894 -59.2874)
(-5.41248 0.55903 0.00348059 -97.238 2.31511 -39.821)
(-4.71679 0.718468 0.0255342 -54.7618 2.42918 -23.9797)
(-3.47646 0.765863 0.0357931 -24.52 2.15737 -12.2823)
(-0.638829 0.0710482 0.0216081 -9.50111 1.13441 -4.51287)
(-6.01341 0.0251417 -0.011142 -438.4 -0.284702 -176.79)
(-6.22796 0.108169 -0.0156607 -239.907 0.0906717 -96.2196)
(-6.12672 0.244391 -0.0122238 -209.983 0.387605 -84.1321)
(-5.88146 0.403731 -0.00526134 -148.729 0.609815 -60.2426)
(-5.43959 0.574999 0.00284599 -97.0286 0.745776 -40.5005)
(-4.73799 0.739613 0.00987636 -54.5564 0.78422 -24.3429)
(-3.49469 0.787669 0.0127691 -24.2966 0.698541 -12.3432)
(-0.692365 0.101914 0.00649243 -9.33786 0.368207 -4.40502)
(-58.288 9.52608 -2.35677 -0.68852 -2.11591 -1.11216)
(-52.9385 8.9833 0.721998 1.06288 -1.74707 2.82542)
(-53.6547 8.93456 0.108863 2.46711 -1.35491 -1.82888)
(-54.1148 9.00335 -0.371481 3.5685 -1.04665 -3.83984)
(-54.9231 9.09245 -0.631582 4.38712 -0.791469 -4.87599)
(-55.5481 9.17308 -0.600567 4.9662 -0.562231 -5.03485)
(-55.9714 9.23348 -0.418406 5.3234 -0.346107 -4.90836)
(-56.2113 9.26364 -0.150747 5.42714 -0.120119 -4.81974)
(-49.4307 6.96631 -4.50795 -2.80794 -0.617139 -9.36575)
(-44.7561 5.96905 -2.73074 -1.97259 -0.546515 -8.61407)
(-44.9316 5.70208 -2.50281 -1.01226 -0.408689 -8.69461)
(-46.0618 5.61701 -2.65942 -0.213293 -0.314729 -8.49435)
(-47.2356 5.58944 -2.52839 0.377961 -0.244859 -8.38956)
(-48.1193 5.584 -2.03238 0.794224 -0.178622 -8.23321)
(-48.682 5.59004 -1.30053 1.06576 -0.109142 -8.08661)
(-48.9336 5.60367 -0.446541 1.22166 -0.0365058 -7.98608)
(-3.63129 6.01799 -4.64392 -4.3603 0.0201817 -2.9557)
(-5.7697 4.88898 -4.34905 -3.81287 -0.0360402 -4.22379)
(-7.45377 4.50271 -4.08629 -3.10363 -0.0248789 -1.97967)
(-9.07587 4.32376 -3.80059 -2.53787 -0.0297618 -0.0904549)
(-10.3033 4.2242 -3.28661 -2.12655 -0.0357884 1.07929)
(-11.1441 4.16469 -2.51265 -1.84188 -0.0334098 1.67821)
(-11.6622 4.13058 -1.56714 -1.66081 -0.0210333 1.94584)
(-11.9017 4.11419 -0.531968 -1.55777 -0.00614148 2.04845)
(13.665 5.88204 -3.51821 -4.0249 0.424705 -5.27269)
(9.65219 4.77273 -2.97644 -3.57652 0.197816 -7.96748)
(8.46606 4.34543 -2.84288 -3.16229 0.103339 -2.7814)
(7.28162 4.1224 -2.47989 -2.81485 0.0528709 0.770944)
(6.50347 3.9844 -2.0527 -2.56405 0.0209466 2.91423)
(5.937 3.89542 -1.52241 -2.39358 0.00377767 3.88803)
(5.57528 3.84093 -0.9352 -2.28887 -0.0017194 4.25178)
(5.39422 3.81191 -0.315889 -2.24055 -0.000953053 4.3477)
)
;
    }
    symmetry
    {
        type            symmetryPlane;
    }
    bottom
    {
        type            calculated;
        value           nonuniform List<symmTensor> 
32
(
(222.265 80.0423 0 333.397 90.9153 222.265)
(217.293 89.9486 0 325.94 45.3008 217.293)
(223.56 94.408 0 335.34 22.0399 223.56)
(227.306 95.9502 0 340.959 10.1278 227.306)
(229.005 96.3646 0 343.507 4.21593 229.005)
(229.689 96.3975 0 344.534 1.47463 229.689)
(229.917 96.3366 0 344.876 0.373818 229.917)
(229.973 96.2868 0 344.959 0.0488775 229.973)
(42.366 34.189 0 63.549 27.1676 42.366)
(43.781 45.427 0 65.6714 14.0522 43.781)
(46.6193 47.2421 0 69.929 6.60063 46.6193)
(48.0121 46.8615 0 72.0181 2.7065 48.0121)
(48.7405 46.1132 0 73.1108 0.837872 48.7405)
(49.1432 45.4749 0 73.7148 0.0675209 49.1432)
(49.3624 45.0497 0 74.0436 -0.134585 49.3624)
(49.46 44.8413 0 74.19 -0.0706105 49.46)
(-61.6409 30.3319 0 -92.4613 -32.7269 -61.6409)
(-55.8185 41.5862 0 -83.7277 -19.0756 -55.8185)
(-56.5646 42.8903 0 -84.847 -11.224 -56.5646)
(-56.9769 42.0667 0 -85.4653 -6.56053 -56.9769)
(-57.0307 41.0031 0 -85.546 -3.7659 -57.0307)
(-56.9147 40.1515 0 -85.372 -2.07889 -56.9147)
(-56.7692 39.5937 0 -85.1538 -1.02972 -56.7692)
(-56.6775 39.3222 0 -85.0163 -0.309448 -56.6775)
(-225.947 67.7885 0 -338.921 -100.686 -225.947)
(-215.788 76.3741 0 -323.682 -54.2975 -215.788)
(-221.758 79.1039 0 -332.637 -29.1908 -221.758)
(-224.829 79.3341 0 -337.244 -15.3812 -224.829)
(-225.767 78.8024 0 -338.65 -7.85721 -225.767)
(-225.763 78.1773 0 -338.645 -3.82404 -225.763)
(-225.488 77.6987 0 -338.232 -1.68133 -225.488)
(-225.281 77.4477 0 -337.921 -0.467539 -225.281)
)
;
    }
}


// ************************************************************************* //
