/*--------------------------------*- C++ -*----------------------------------*\
| =========                 |                                                 |
| \\      /  F ield         | foam-extend: Open Source CFD                    |
|  \\    /   O peration     | Version:     3.1                                |
|   \\  /    A nd           | Web:         http://www.extend-project.de       |
|    \\/     M anipulation  |                                                 |
\*---------------------------------------------------------------------------*/
FoamFile
{
    version     2.0;
    format      ascii;
    class       volSymmTensorField;
    location    "2.9";
    object      sigmaCauchy;
}
// * * * * * * * * * * * * * * * * * * * * * * * * * * * * * * * * * * * * * //

dimensions      [1 -1 -2 0 0 0 0];

internalField   nonuniform List<symmTensor> 
256
(
(187.581 76.8361 -1.06887 440.217 38.6579 214.146)
(27.5702 57.4718 -8.23984 86.6861 12.0168 34.2943)
(-57.2834 49.671 -9.46616 -118.109 -16.3859 -59.1014)
(-216.587 45.6497 -5.2779 -424.341 -35.8399 -235.153)
(-75.8894 34.7218 -3.58516 130.54 -11.2765 -22.9543)
(-28.1436 74.1921 -13.7682 45.0389 -5.21412 -9.92851)
(3.75305 67.8055 -14.2365 -57.9266 2.27701 -3.12234)
(45.2903 19.8088 -4.96858 -135.328 7.53127 10.0805)
(-24.8995 42.2972 -1.65404 157.928 -6.47105 26.2827)
(-27.7231 72.3921 -9.42417 38.9888 -2.65378 -4.87261)
(-0.709234 66.8287 -9.77057 -53.738 0.1429 -8.55916)
(-4.30766 26.156 -2.9247 -157.716 3.2108 -33.6209)
(-36.5499 37.0354 -1.94098 104.817 -8.93481 11.8794)
(-28.1719 66.1032 -7.86878 24.7863 -2.95559 -5.99699)
(0.238494 61.6001 -7.8742 -39.7763 1.26974 -4.81208)
(7.80396 23.8198 -2.74654 -106.236 6.43828 -15.2514)
(-33.4096 31.6445 -1.62634 71.5976 -8.03312 11.9636)
(-26.4641 56.9087 -6.36666 14.5195 -2.38278 -4.55824)
(-1.57701 53.6709 -6.26951 -29.5062 1.39487 -4.4373)
(4.77777 22.0105 -2.28737 -73.6589 6.46641 -12.9213)
(-34.5362 24.2607 -1.68658 41.2304 -6.85384 8.92564)
(-26.2315 45.6512 -5.54601 5.56439 -1.9419 -4.1388)
(-3.12832 43.8486 -5.32311 -20.348 1.38043 -3.94133)
(4.97875 18.6744 -2.18796 -43.5387 6.10626 -8.93236)
(-34.5357 16.2593 -2.16752 22.9267 -5.53637 9.29064)
(-27.7286 33.4218 -5.29158 -0.8693 -1.80703 -3.95684)
(-5.01584 32.505 -4.87294 -13.2786 1.03512 -4.13295)
(5.13513 13.9825 -2.35973 -22.2282 4.91889 -7.46619)
(-46.1543 10.3206 -2.65922 6.86207 -2.93201 4.08149)
(-42.1302 19.87 -4.99125 -9.36436 -1.04896 -10.4215)
(-1.09478 17.6221 -4.72454 -2.95562 0.268941 -0.466179)
(11.264 6.63296 -3.00222 -6.80979 1.93006 -4.77437)
(189.732 86.6607 -0.64655 435.013 23.7141 222.253)
(34.0321 69.0833 -6.72611 89.3063 6.77845 40.9603)
(-51.0597 61.5046 -8.07047 -106.012 -11.7626 -55.9745)
(-207.227 54.5049 -4.5179 -407.502 -24.8816 -233.517)
(-42.2803 36.3632 -2.66198 177.438 -4.19922 17.5184)
(-4.54821 77.1775 -12.9157 71.2276 -2.84572 12.8173)
(-17.3319 70.2214 -14.3048 -83.6865 -1.08235 -26.111)
(9.55597 20.9394 -5.96921 -181.237 -0.280708 -31.6596)
(-19.5909 38.1174 -1.52822 163.547 -9.74117 31.1211)
(-16.7843 66.7974 -10.2975 47.9699 -3.82544 2.9411)
(-7.46155 61.2978 -11.5052 -59.4238 1.56342 -14.0424)
(-8.38995 22.3294 -4.38577 -161.127 6.41695 -36.4756)
(-26.6417 32.0079 -0.620896 114.52 -11.9793 21.0436)
(-17.0228 57.8771 -7.44049 34.155 -4.00469 1.9793)
(-6.65719 53.4003 -8.48458 -44.2593 2.867 -10.4175)
(-0.919683 19.0439 -3.24686 -112.581 9.89655 -22.5221)
(-26.5015 26.084 0.342575 76.9997 -11.8214 17.9092)
(-17.3376 47.9933 -5.12756 21.7417 -3.68452 1.31203)
(-6.1538 44.8709 -6.10387 -30.6054 3.30575 -7.66159)
(-0.802887 16.822 -2.14881 -75.0326 10.851 -16.8407)
(-27.7517 19.2789 0.897106 46.1679 -10.3258 15.0048)
(-17.993 37.5985 -3.57428 11.8558 -3.15201 0.904087)
(-6.37833 35.9352 -4.45604 -19.7757 3.07148 -5.99311)
(-0.0758171 14.0641 -1.46193 -43.7036 10.1764 -12.5719)
(-28.4403 12.1837 0.92886 26.8701 -7.98429 14.7729)
(-20.9018 27.1128 -2.84773 3.68886 -2.62278 -0.345177)
(-6.87953 26.4469 -3.60393 -11.4948 2.21763 -4.945)
(1.51417 10.5365 -1.1973 -20.6898 8.00619 -9.78005)
(-39.5342 8.32663 0.564514 11.2734 -4.33556 9.77059)
(-36.0148 16.6482 -2.78714 -5.76299 -1.53916 -7.77235)
(-3.61704 14.6189 -3.87088 -2.71106 0.901732 -1.99163)
(6.54065 5.17333 -2.01575 -7.33464 3.9011 -8.13118)
(196.717 91.1124 -0.62702 445.869 11.8113 237.017)
(36.9682 72.141 -4.37997 93.4385 2.79922 46.8525)
(-51.3427 64.1571 -5.29113 -105.894 -7.33634 -59.2515)
(-214.003 56.9201 -3.01823 -415.881 -14.2451 -248.095)
(-42.7964 36.9828 -2.16537 178.453 -2.74985 30.6471)
(-2.62358 78.5456 -8.81502 75.245 -2.20268 20.4661)
(-18.877 71.508 -9.98419 -85.5487 -1.39234 -32.8174)
(7.5182 21.4717 -4.64745 -183.388 -0.893308 -47.4484)
(-20.2976 37.716 -1.70815 165.655 -7.39535 39.5926)
(-16.1374 66.388 -7.72213 51.0309 -3.15603 8.08369)
(-8.52464 60.797 -8.77371 -60.8236 1.07044 -18.5016)
(-10.6508 21.7623 -3.79961 -164.095 4.72662 -48.2061)
(-27.7279 31.0934 -0.978976 115.605 -9.61041 25.0357)
(-16.6576 55.8658 -5.762 36.5749 -3.43207 5.5531)
(-7.84574 51.3674 -6.65222 -44.616 2.52516 -12.9894)
(-3.43766 18.1382 -2.72942 -114.715 8.09675 -30.2093)
(-28.5211 24.7825 -0.204695 76.9911 -9.86493 18.0802)
(-17.1438 45.3464 -3.83154 23.8859 -3.23257 3.80314)
(-7.31453 42.2725 -4.62825 -30.3054 3.13893 -8.81037)
(-2.59933 15.6694 -1.72308 -75.8061 9.40501 -20.6029)
(-30.1008 17.9022 0.3484 45.7057 -8.82243 12.73)
(-17.8122 34.9171 -2.43497 13.7499 -2.77664 2.63852)
(-7.39772 33.4149 -3.144 -18.9689 3.05566 -5.99553)
(-1.46189 13.0274 -1.012 -43.6226 9.12249 -13.4338)
(-30.4682 10.8508 0.505813 26.6847 -6.85621 11.1965)
(-20.6699 24.9209 -1.8087 5.28731 -2.20639 0.766381)
(-7.7965 24.5371 -2.4718 -10.4822 2.31303 -4.05092)
(0.425428 9.82827 -0.761022 -20.016 7.38302 -8.32215)
(-42.1512 7.68753 0.158969 9.88471 -3.51099 4.004)
(-36.1161 15.578 -2.15931 -4.72148 -1.13203 -7.52653)
(-4.88108 13.7506 -3.24073 -1.7441 0.954652 -0.171607)
(6.44081 4.99839 -1.77219 -5.18234 3.54163 -3.30302)
(200.268 92.8078 -0.429545 452.042 5.05827 246.01)
(37.9407 72.7254 -2.66034 95.4917 0.72913 50.0382)
(-51.8777 64.4278 -3.20318 -106.078 -4.47295 -61.4674)
(-217.558 57.4354 -1.82045 -420.191 -7.75932 -256.586)
(-43.8259 37.1428 -1.35685 178.167 -2.31058 39.8039)
(-2.9581 79.1696 -5.56769 76.5746 -1.76982 24.5686)
(-19.2916 72.0942 -6.35438 -85.2398 -1.16863 -36.4815)
(7.09946 21.662 -3.05118 -183.084 -0.561678 -57.6565)
(-20.9564 37.8751 -1.24205 166.718 -5.25206 47.5125)
(-17.1095 66.7639 -5.26891 52.1216 -2.35136 11.1871)
(-8.91037 61.1779 -5.9859 -60.5583 0.637685 -21.4413)
(-11.3089 21.9456 -2.69629 -164.478 3.23226 -57.0892)
(-28.5522 31.069 -0.821426 116.778 -6.8428 30.2449)
(-17.7171 55.8181 -4.13096 37.5919 -2.53062 7.77203)
(-8.43723 51.3448 -4.7083 -44.2779 1.84161 -14.9446)
(-4.12884 18.1933 -1.9913 -115.067 5.77941 -36.4392)
(-29.3713 24.6032 -0.298033 78.2349 -7.19339 20.7585)
(-18.175 44.9744 -2.82478 24.9127 -2.39896 5.27222)
(-8.03439 41.9652 -3.30543 -29.8785 2.44014 -9.76628)
(-3.29111 15.6394 -1.24306 -75.9766 6.99855 -24.0594)
(-30.8817 17.6022 0.108318 47.0484 -6.60774 13.44)
(-18.7395 34.376 -1.83083 14.778 -2.08601 3.5481)
(-8.13143 33.0056 -2.23502 -18.4288 2.47333 -6.02775)
(-2.13933 12.9912 -0.686918 -43.59 7.01875 -14.4887)
(-30.8441 10.4628 0.217326 28.4116 -5.29236 10.7194)
(-21.4762 24.4111 -1.47422 6.27728 -1.66777 1.28234)
(-8.58827 24.2135 -1.8658 -9.883 1.93165 -3.28223)
(-0.285154 9.85389 -0.528107 -19.7067 5.84246 -7.34668)
(-42.4368 7.54757 -0.197475 11.3861 -2.84289 2.52741)
(-37.0092 15.3451 -2.11696 -3.75843 -0.869185 -7.20009)
(-6.21636 13.5922 -2.86548 -1.27083 0.826673 1.26363)
(5.61517 5.08378 -1.5051 -4.54712 2.87049 -0.420164)
(201.575 93.3016 -0.255954 454.68 1.66655 250.609)
(38.2635 72.5054 -1.53376 96.5709 -0.180462 51.7502)
(-52.167 64.017 -1.842 -105.885 -2.67714 -62.6493)
(-218.715 57.3171 -1.03693 -421.206 -4.07214 -260.526)
(-44.7727 37.0881 -0.757847 177.862 -1.96747 45.2883)
(-3.44921 79.2743 -3.32513 77.3155 -1.38394 26.9264)
(-19.6348 72.1998 -3.81933 -84.6276 -0.863516 -38.6666)
(6.82463 21.6954 -1.8519 -182.521 -0.228426 -63.8629)
(-21.8009 37.9856 -0.776144 167.102 -3.66869 52.7244)
(-17.9561 67.0793 -3.35972 52.7733 -1.67281 13.1432)
(-9.26083 61.5428 -3.81738 -59.9675 0.366441 -23.3802)
(-11.5248 22.1517 -1.73225 -164.06 2.18972 -62.7997)
(-29.4432 31.209 -0.561 117.424 -4.64642 34.1231)
(-18.5865 56.1585 -2.76048 38.2838 -1.74574 9.28375)
(-8.87418 51.7397 -3.11484 -43.7531 1.24586 -16.3631)
(-4.37694 18.4492 -1.3142 -114.747 3.91479 -40.788)
(-30.2039 24.715 -0.249051 79.1181 -4.92358 23.1497)
(-18.9952 45.2353 -1.96807 25.6579 -1.65035 6.34297)
(-8.5219 42.2954 -2.24371 -29.3944 1.72765 -10.5413)
(-3.58243 15.8951 -0.82753 -75.7222 4.84774 -26.7103)
(-31.6159 17.6398 -0.00122191 48.0989 -4.62403 14.5461)
(-19.4648 34.5232 -1.35445 15.5628 -1.45556 4.2836)
(-8.63341 33.2522 -1.57084 -17.9614 1.79866 -6.15472)
(-2.45008 13.2319 -0.461659 -43.3135 4.97942 -15.4782)
(-31.3072 10.4048 0.0253133 29.722 -3.8174 11.0109)
(-22.1474 24.4737 -1.22782 7.03924 -1.18893 1.77803)
(-9.16886 24.3888 -1.44177 -9.43588 1.42673 -2.82748)
(-0.623337 10.0767 -0.404616 -19.285 4.2296 -6.84678)
(-43.0775 7.56864 -0.408422 12.3579 -2.1043 1.90127)
(-37.9563 15.4081 -1.9564 -3.14505 -0.623525 -6.98331)
(-7.20028 13.6629 -2.43556 -0.896452 0.614259 2.17799)
(5.17391 5.22252 -1.25314 -3.95987 2.09834 1.38615)
(201.91 93.3346 -0.132851 455.6 0.204732 252.817)
(38.35 72.1116 -0.832913 97.1654 -0.445588 52.6557)
(-52.2506 63.5108 -1.00084 -105.498 -1.54037 -63.1977)
(-218.795 57.0449 -0.556369 -420.788 -2.0322 -262.1)
(-45.4007 36.9546 -0.373356 177.717 -1.52161 48.4411)
(-3.84443 79.1432 -1.86351 77.8055 -0.999885 28.2432)
(-19.8879 72.0843 -2.15754 -84.0236 -0.578085 -39.9288)
(6.56863 21.6637 -1.04521 -181.993 -0.035464 -67.4863)
(-22.4275 38.0134 -0.42363 167.347 -2.44571 55.9245)
(-18.5468 67.2246 -1.99032 53.2404 -1.11953 14.3142)
(-9.54566 61.7401 -2.26684 -59.3966 0.204862 -24.5962)
(-11.6429 22.2822 -1.02083 -163.527 1.42823 -66.2533)
(-30.0906 31.3194 -0.324782 117.861 -2.99162 36.7085)
(-19.18 56.4499 -1.70292 38.7877 -1.12985 10.2455)
(-9.17728 52.0844 -1.91125 -43.2391 0.788515 -17.2998)
(-4.49624 18.6696 -0.79136 -114.281 2.50886 -43.5598)
(-30.802 24.8446 -0.15567 79.7302 -3.16749 24.9494)
(-19.5435 45.5528 -1.26429 26.2012 -1.06064 7.07753)
(-8.82943 42.6718 -1.41785 -28.9366 1.12543 -11.0879)
(-3.71602 16.1466 -0.504519 -75.3223 3.13457 -28.5146)
(-32.133 17.7316 -0.0235649 48.8386 -3.02106 15.627)
(-19.9479 34.7848 -0.92864 16.1267 -0.946903 4.84056)
(-8.94173 33.5872 -1.0416 -17.5526 1.18966 -6.283)
(-2.6051 13.4776 -0.292065 -42.9471 3.26411 -16.2703)
(-31.6509 10.4201 -0.0443784 30.6282 -2.55377 11.6259)
(-22.6154 24.6456 -0.933179 7.57082 -0.789761 2.19714)
(-9.54289 24.6351 -1.04701 -9.08172 0.949279 -2.58108)
(-0.803779 10.2895 -0.295943 -18.869 2.8065 -6.69565)
(-43.4884 7.60385 -0.407069 13.1589 -1.44447 2.05668)
(-38.6491 15.5112 -1.56267 -2.7076 -0.420502 -6.74083)
(-7.86508 13.7603 -1.85694 -0.618957 0.408998 2.66684)
(4.82803 5.32994 -0.939896 -3.58238 1.4028 2.21368)
(201.895 93.2442 -0.059439 455.808 -0.211811 253.793)
(38.3599 71.7834 -0.402564 97.4901 -0.372663 53.1141)
(-52.2395 63.1196 -0.485014 -105.131 -0.79043 -63.4173)
(-218.544 56.8084 -0.266373 -420.05 -0.913597 -262.604)
(-45.7857 36.8292 -0.158745 177.643 -0.962523 50.1069)
(-4.10656 78.9706 -0.923961 78.1195 -0.60614 28.9335)
(-20.0437 71.928 -1.07858 -83.5591 -0.328725 -40.6076)
(6.38418 21.621 -0.520007 -181.584 0.0313554 -69.4522)
(-22.8352 37.9999 -0.199179 167.503 -1.4117 57.6987)
(-18.9109 67.2613 -1.03023 53.5595 -0.645602 14.9616)
(-9.73808 61.8159 -1.17744 -58.9702 0.103721 -25.2969)
(-11.7131 22.3487 -0.523816 -163.097 0.813027 -68.1792)
(-30.5085 31.3782 -0.160025 118.134 -1.67986 38.2214)
(-19.5408 56.6211 -0.909464 39.1285 -0.634987 10.8037)
(-9.36639 52.2946 -1.01848 -42.8509 0.434164 -17.8571)
(-4.56121 18.8096 -0.412322 -113.895 1.40157 -45.1641)
(-31.1917 24.9294 -0.0800062 80.0989 -1.77249 26.0815)
(-19.8722 45.7717 -0.697456 26.5602 -0.592108 7.53133)
(-9.00833 42.9316 -0.77495 -28.5905 0.630001 -11.4251)
(-3.77942 16.3179 -0.265794 -74.9758 1.75479 -29.6061)
(-32.4737 17.7985 -0.0203493 49.2745 -1.70651 16.3961)
(-20.2368 34.981 -0.540089 16.4891 -0.533185 5.21184)
(-9.11607 33.8314 -0.594331 -17.2506 0.671094 -6.3762)
(-2.67993 13.6483 -0.160361 -42.6327 1.83938 -16.8018)
(-31.8957 10.438 -0.0515585 31.1539 -1.46592 12.1566)
(-22.902 24.7789 -0.583106 7.90452 -0.451611 2.49986)
(-9.7611 24.814 -0.638671 -8.83224 0.536373 -2.4597)
(-0.891976 10.4337 -0.182712 -18.5445 1.59131 -6.69294)
(-43.7733 7.6305 -0.290709 13.6452 -0.846792 2.35712)
(-39.0921 15.5892 -0.999675 -2.43778 -0.243151 -6.54661)
(-8.2675 13.8289 -1.15959 -0.42924 0.231645 2.90048)
(4.61307 5.396 -0.582971 -3.33276 0.798633 2.542)
(201.83 93.1727 -0.0166556 455.808 -0.120797 254.15)
(38.3543 71.6063 -0.118877 97.6355 -0.139795 53.3055)
(-52.2144 62.914 -0.143516 -104.916 -0.24257 -63.487)
(-218.34 56.6786 -0.0781894 -419.563 -0.257699 -262.713)
(-45.968 36.7569 -0.0427915 177.609 -0.32915 50.8158)
(-4.23568 78.8622 -0.276977 78.2746 -0.203206 29.2269)
(-20.1158 71.8294 -0.324972 -83.3091 -0.106357 -40.9014)
(6.2902 21.5943 -0.156009 -181.361 0.0192483 -70.3105)
(-23.0334 37.9831 -0.0577215 167.58 -0.462599 58.4782)
(-19.0838 67.2601 -0.316517 53.7227 -0.211305 15.2463)
(-9.83332 61.8353 -0.362487 -58.7449 0.0317115 -25.6154)
(-11.7463 22.3749 -0.159838 -162.863 0.264643 -69.0356)
(-30.7108 31.4009 -0.0479267 118.267 -0.542542 38.9084)
(-19.7109 56.6945 -0.284423 39.3012 -0.20505 11.0571)
(-9.45679 52.3881 -0.318135 -42.6452 0.138473 -18.1152)
(-4.59093 18.8748 -0.126909 -113.685 0.451137 -45.894)
(-31.3814 24.968 -0.0248233 80.271 -0.571099 26.6175)
(-20.0261 45.8759 -0.22224 26.7386 -0.19048 7.74574)
(-9.09055 43.0565 -0.24573 -28.4066 0.202448 -11.5844)
(-3.80528 16.4009 -0.0824385 -74.7827 0.564804 -30.1155)
(-32.64 17.8296 -0.00842254 49.4733 -0.552362 16.7853)
(-20.3718 35.0779 -0.177367 16.6653 -0.172302 5.3954)
(-9.19444 33.9517 -0.193297 -17.0912 0.216346 -6.42374)
(-2.71053 13.7318 -0.0511368 -42.4575 0.59352 -17.0654)
(-32.0184 10.4459 -0.0225044 31.3894 -0.478786 12.4489)
(-23.037 24.8453 -0.198715 8.06397 -0.147156 2.656)
(-9.86089 24.9012 -0.215144 -8.70287 0.173038 -2.41103)
(-0.929252 10.5029 -0.0621415 -18.371 0.514776 -6.72031)
(-43.9074 7.64446 -0.106338 13.8712 -0.281393 2.56178)
(-39.3022 15.6298 -0.343649 -2.30821 -0.0798834 -6.43967)
(-8.45852 13.8612 -0.394191 -0.333052 0.0752515 2.98852)
(4.50512 5.42523 -0.197994 -3.21185 0.259062 2.63778)
)
;

boundaryField
{
    interface
    {
        type            calculated;
        value           nonuniform List<symmTensor> 
192
(
(-22.3386 18.5475 4.36268 473.434 49.2118 131.871)
(-22.9075 8.98226 3.5456 222.273 -14.0562 23.961)
(-22.6796 11.8683 4.39681 221.524 -9.15356 45.8952)
(-22.9442 9.867 4.42418 158.093 -13.068 35.2071)
(-23.4766 7.50302 4.54546 109.647 -12.0552 31.1374)
(-24.1732 4.64216 4.57193 68.3162 -10.4061 26.458)
(-24.7339 2.0422 4.4085 43.338 -8.17624 25.628)
(-23.7519 -0.516365 3.90922 30.776 -4.41058 27.9299)
(-25.1004 19.7304 3.01273 466.014 30.406 139.359)
(-26.0337 10.2388 2.7679 245.153 -4.86659 42.1337)
(-26.5946 11.8303 2.86341 218.925 -12.988 44.1027)
(-27.5066 9.94611 2.80576 157.29 -16.5133 35.3529)
(-28.4831 7.40293 2.79754 106.238 -16.4468 30.0903)
(-29.2773 4.45951 2.79886 65.1326 -14.4135 26.2609)
(-29.2879 1.62454 2.7242 40.8503 -10.9934 26.3718)
(-26.1163 -1.17787 2.47778 30.4409 -5.92962 30.5001)
(-26.8637 20.92 1.88092 474.492 15.2528 150.989)
(-27.8249 10.3184 1.96037 242.138 -3.05313 55.6333)
(-28.5322 11.8196 1.96867 218.334 -9.55905 51.8131)
(-29.6032 9.89233 1.86315 156.433 -12.8178 37.6433)
(-30.6667 7.28113 1.79937 104.967 -13.3224 28.0941)
(-31.375 4.26751 1.77694 64.017 -12 21.5043)
(-30.9563 1.3281 1.74474 40.6292 -9.32738 20.201)
(-26.6744 -1.62489 1.66983 30.016 -4.88327 22.9718)
(-28.1442 21.5275 1.15926 479.343 6.53554 158.588)
(-29.0785 10.3126 1.3901 240.148 -2.66958 66.4761)
(-29.7991 11.8098 1.41314 218.163 -6.70076 60.8444)
(-30.9014 9.87285 1.33597 156.826 -8.98585 43.2969)
(-31.9601 7.24718 1.2731 105.638 -9.58381 30.4299)
(-32.5672 4.19957 1.2431 65.0035 -8.88727 21.2757)
(-31.8589 1.201 1.22119 42.2141 -7.16977 18.341)
(-26.9101 -1.81392 1.19026 31.6159 -3.9814 20.1447)
(-29.0761 21.7793 0.711017 481.149 2.15209 162.595)
(-29.9887 10.2885 0.967999 239.091 -2.36799 73.2165)
(-30.6966 11.7871 1.00298 218.097 -4.68099 67.2422)
(-31.7944 9.85368 0.960868 157.257 -6.06927 48.0467)
(-32.8281 7.22816 0.916942 106.434 -6.52348 33.1956)
(-33.3548 4.16172 0.891177 66.0662 -6.19443 22.3108)
(-32.4539 1.12267 0.873997 43.6402 -5.17429 18.222)
(-27.0592 -1.93299 0.857993 33.0104 -2.97652 19.2527)
(-29.7419 21.8592 0.424216 481.469 0.264014 164.525)
(-30.6317 10.2598 0.638899 238.514 -1.87763 77.0857)
(-31.3243 11.7635 0.672655 218.129 -3.1347 71.2424)
(-32.4088 9.83723 0.653477 157.623 -3.90795 51.3201)
(-33.4193 7.21352 0.627289 107.047 -4.19309 35.4279)
(-33.8894 4.13524 0.609294 66.8572 -4.04647 23.5682)
(-32.8624 1.06826 0.596415 44.6582 -3.4708 18.8174)
(-27.1677 -2.00716 0.585039 34.126 -2.05975 19.4922)
(-30.1672 21.8717 0.224221 481.277 -0.272843 165.368)
(-31.0463 10.2358 0.362057 238.181 -1.20305 79.1087)
(-31.7293 11.7445 0.384699 218.173 -1.81725 73.465)
(-32.8022 9.82478 0.377163 157.87 -2.1983 53.2527)
(-33.797 7.20197 0.363732 107.426 -2.34873 36.8639)
(-34.2316 4.11536 0.353329 67.3291 -2.2885 24.5151)
(-33.127 1.02988 0.343797 45.259 -1.99783 19.4304)
(-27.2464 -2.05321 0.333265 34.8241 -1.21493 19.9564)
(-30.3667 21.8671 0.0693312 481.082 -0.15546 165.675)
(-31.24 10.2213 0.116095 238.028 -0.413551 79.9658)
(-31.9145 11.7329 0.123639 218.206 -0.596863 74.447)
(-32.9798 9.81735 0.12159 158 -0.710899 54.1397)
(-33.9665 7.19491 0.117459 107.613 -0.757446 37.5573)
(-34.3847 4.10238 0.11403 67.5521 -0.741423 25.0113)
(-33.2317 1.00515 0.109887 45.5438 -0.653627 19.7999)
(-27.2438 -2.07168 0.104306 35.1729 -0.405108 20.2905)
(41.5719 68.1044 -2.03685 296.569 3.18038 -10.8113)
(-77.4965 33.8391 -4.5733 118.339 -1.62654 -7.54933)
(-50.2636 45.7886 -5.82467 133.343 -1.57729 -4.48204)
(-51.1326 41.1627 -6.60357 91.4166 -1.28462 -2.23821)
(-45.6114 36.0381 -7.19761 61.7275 -0.937369 -0.823686)
(-43.5669 28.097 -7.69045 34.803 -0.800594 -0.16295)
(-43.0574 19.2796 -8.23152 17.2568 -0.945526 -0.223287)
(-51.7934 11.8053 -9.28725 3.72433 -1.18623 -1.05788)
(-3.74371 47.9953 -1.61912 59.3783 -0.455695 -9.64176)
(-36.5561 72.3378 -3.15542 35.2513 -1.70388 -8.25195)
(-35.4109 77.4213 -3.85617 34.4432 -1.67601 -6.44624)
(-33.8524 72.5685 -4.29823 21.7954 -1.29726 -4.98592)
(-31.6559 63.6474 -4.6294 12.0576 -0.834876 -4.04721)
(-30.8868 51.58 -4.96336 3.51716 -0.50249 -3.60868)
(-31.8243 38.0215 -5.47284 -2.2751 -0.359455 -3.58662)
(-41.7522 22.2817 -6.7622 -6.26794 -0.280038 -3.6747)
(-26.1096 40.5292 -1.59121 -93.0651 -0.0158853 -8.76526)
(7.98783 65.9567 -2.8954 -49.4817 -1.44173 -8.26618)
(4.40523 71.6938 -3.43852 -50.2688 -1.52644 -7.14469)
(2.72359 67.9327 -3.66304 -39.2931 -1.22876 -6.12785)
(-0.107521 60.2716 -3.84822 -30.6533 -0.768731 -5.47241)
(-2.63063 49.6951 -4.09905 -22.5521 -0.368041 -5.18258)
(-5.15195 37.0067 -4.56755 -15.9162 -0.102681 -5.20081)
(-3.93926 19.9108 -5.78433 -7.35961 0.0702396 -5.28524)
(-68.8379 40.4069 -1.7943 -292.904 4.23976 -7.71554)
(45.9194 18.8441 -3.08889 -123.489 -1.07016 -7.42872)
(18.6258 29.4805 -3.56275 -136.809 -1.33412 -6.51151)
(18.8871 27.7929 -3.82063 -97.2963 -1.22404 -5.6339)
(12.9871 26.2219 -3.97968 -68.9287 -0.799757 -5.05392)
(9.74629 22.4067 -4.20154 -42.5912 -0.36439 -4.76089)
(7.94528 16.812 -4.63174 -23.4156 0.00250627 -4.68621)
(12.1465 7.90211 -5.74692 -8.7459 0.35992 -4.7937)
(-4.99285 -13.8079 -1.39485 -411.992 -43.4011 -142.507)
(-3.68607 -6.74021 0.798934 -210.661 8.70718 -30.3797)
(-2.71115 -8.851 0.719515 -202.656 4.76836 -44.6509)
(-1.75691 -6.97119 1.10344 -142.31 9.39265 -28.6984)
(-0.979734 -5.04332 1.26499 -95.7219 9.55681 -21.7197)
(-0.206787 -2.98024 1.43064 -55.3933 9.02691 -15.6732)
(0.962698 -1.63357 1.58949 -27.521 7.18801 -13.0448)
(3.78958 -2.07025 1.65454 -13.2485 2.78763 -13.4016)
(-5.76495 -14.6274 -1.31704 -401.951 -30.035 -149.493)
(-5.27865 -8.01272 -0.22543 -235.127 -0.540112 -50.9988)
(-4.94667 -8.85726 0.15568 -203.695 8.54831 -45.1492)
(-4.4075 -7.03606 0.494374 -145.178 13.4741 -32.0848)
(-3.83063 -4.90262 0.70055 -96.0383 14.8832 -24.3859)
(-3.13683 -2.76712 0.809405 -55.3075 14.1014 -19.088)
(-1.99332 -1.27673 0.814662 -26.754 11.2621 -16.4962)
(1.15749 -1.67677 0.703285 -13.3488 5.60933 -17.0894)
(-6.22326 -15.4471 -0.844976 -408.953 -16.8562 -163.307)
(-5.8996 -8.16678 -0.299019 -234.588 -0.953199 -68.496)
(-5.7553 -8.90085 0.01147 -205.02 6.22567 -58.1159)
(-5.34298 -7.0257 0.319896 -146.351 10.6757 -40.2635)
(-4.80281 -4.80199 0.537914 -96.4942 12.4665 -28.2861)
(-4.08431 -2.59967 0.650977 -55.3197 12.2169 -19.6859)
(-2.89246 -1.03002 0.644971 -26.3615 10.1026 -14.4445)
(0.209692 -1.2305 0.439751 -11.822 5.03422 -11.799)
(-6.53319 -15.7714 -0.490906 -412.477 -8.88938 -171.776)
(-6.24514 -8.17989 -0.22134 -233.687 -0.36598 -81.1968)
(-6.17563 -8.87995 -0.0035215 -205.057 4.28383 -69.2523)
(-5.80917 -6.96556 0.232146 -146.632 7.51012 -48.1333)
(-5.26188 -4.69392 0.419548 -96.6787 9.11782 -32.6041)
(-4.4865 -2.44383 0.525601 -55.3206 9.24361 -20.9079)
(-3.19823 -0.824218 0.524644 -25.9431 7.89689 -13.0268)
(-0.200089 -0.918124 0.326047 -10.9999 4.05055 -8.11739)
(-6.74709 -15.8185 -0.269854 -413.238 -4.46516 -176.128)
(-6.47012 -8.1461 -0.136333 -233.007 0.078409 -89.0178)
(-6.42928 -8.82187 0.014183 -204.664 2.95444 -76.6541)
(-6.07555 -6.88121 0.181055 -146.375 5.06922 -53.8393)
(-5.5095 -4.58078 0.321653 -96.4787 6.26281 -36.0942)
(-4.68807 -2.30143 0.403599 -55.044 6.50442 -22.2145)
(-3.35082 -0.653218 0.39747 -25.402 5.6887 -12.3908)
(-0.435593 -0.686629 0.233729 -10.2997 2.95764 -5.92263)
(-6.88368 -15.7583 -0.138807 -412.796 -2.10609 -178.185)
(-6.6092 -8.09693 -0.0718085 -232.447 0.258894 -93.5268)
(-6.57506 -8.75599 0.0285836 -204.199 1.96313 -81.1342)
(-6.21976 -6.79944 0.139377 -145.968 3.25657 -57.4868)
(-5.63608 -4.48128 0.234349 -96.1056 4.03948 -38.496)
(-4.78576 -2.18697 0.288644 -54.6458 4.25188 -23.2907)
(-3.42931 -0.525548 0.279024 -24.8716 3.77285 -12.2447)
(-0.577278 -0.529855 0.157873 -9.79989 1.9814 -4.90917)
(-6.96233 -15.6832 -0.06328 -412.105 -0.888803 -179.071)
(-6.68777 -8.05351 -0.0313228 -232.023 0.234977 -95.9382)
(-6.6526 -8.70205 0.026697 -203.819 1.13303 -83.6172)
(-6.29182 -6.73719 0.0899155 -145.619 1.82664 -59.5852)
(-5.69398 -4.40947 0.143985 -95.7661 2.26218 -39.9471)
(-4.82952 -2.10846 0.173975 -54.2977 2.39564 -24.0186)
(-3.46874 -0.443258 0.16584 -24.4662 2.14159 -12.2893)
(-0.660487 -0.434096 0.0898594 -9.46762 1.13056 -4.51436)
(-6.99679 -15.6369 -0.0178687 -411.657 -0.239147 -179.386)
(-6.72122 -8.02892 -0.0082801 -231.791 0.0912858 -96.9791)
(-6.68472 -8.67265 0.0106841 -203.608 0.371411 -84.7145)
(-6.3211 -6.70459 0.0311337 -145.425 0.589543 -60.5342)
(-5.71836 -4.3726 0.0484699 -95.5751 0.728693 -40.6239)
(-4.84721 -2.06882 0.0579699 -54.1037 0.773357 -24.3811)
(-3.48336 -0.404197 0.0548889 -24.2502 0.693424 -12.3501)
(-0.709606 -0.389136 0.0285833 -9.31041 0.367037 -4.40601)
(-56.2646 12.8456 -2.82343 -2.03682 -1.90647 -1.14215)
(-51.1142 12.0954 0.354224 -0.193363 -1.73998 2.84974)
(-51.8339 12.1633 -0.146555 1.22533 -1.32856 -1.83605)
(-52.2814 12.3088 -0.55628 2.32971 -1.00093 -3.85815)
(-53.0657 12.4759 -0.766547 3.14712 -0.736781 -4.89866)
(-53.6691 12.6114 -0.695316 3.72424 -0.514668 -5.05744)
(-54.0768 12.7058 -0.475765 4.07952 -0.314254 -4.92974)
(-54.3091 12.7496 -0.170189 4.18202 -0.108859 -4.84035)
(-48.0493 9.48792 -4.70386 -3.74554 -0.329276 -9.44064)
(-43.599 8.29771 -2.87541 -2.78374 -0.370138 -8.66016)
(-43.8065 8.0887 -2.60664 -1.78905 -0.254304 -8.73379)
(-44.9266 8.09723 -2.73386 -0.977048 -0.157498 -8.53071)
(-46.0857 8.15115 -2.58147 -0.378934 -0.0990653 -8.42323)
(-46.9583 8.20305 -2.06888 0.0415009 -0.0629999 -8.264)
(-47.5137 8.24455 -1.32219 0.315118 -0.0356912 -8.11504)
(-47.7609 8.27509 -0.453739 0.471128 -0.0113662 -8.01313)
(-2.89484 5.92695 -4.63595 -5.02443 0.304622 -2.9962)
(-5.16835 4.95639 -4.34666 -4.36228 0.221493 -4.25244)
(-6.8982 4.70436 -4.09498 -3.61419 0.213429 -2.00035)
(-8.5392 4.64519 -3.8149 -3.03134 0.189446 -0.103947)
(-9.77821 4.63392 -3.30155 -2.61023 0.151895 1.07231)
(-10.6278 4.63429 -2.52501 -2.31936 0.108935 1.67636)
(-11.1521 4.63704 -1.57501 -2.13454 0.0672597 1.94743)
(-11.395 4.63865 -0.534604 -2.02967 0.0237444 2.05178)
(14.3945 4.8023 -3.39264 -4.64204 0.650121 -5.29586)
(10.2279 3.96738 -2.89 -4.08027 0.378959 -7.97465)
(8.97455 3.64273 -2.80247 -3.6167 0.277905 -2.79598)
(7.75078 3.51616 -2.46417 -3.24449 0.207403 0.758878)
(6.94711 3.44363 -2.04851 -2.97805 0.149563 2.9072)
(6.36354 3.40149 -1.52249 -2.7976 0.0990247 3.8855)
(5.99108 3.37663 -0.936119 -2.68679 0.0565626 4.25221)
(5.80445 3.36217 -0.316294 -2.63524 0.0186741 4.34957)
)
;
    }
    symmetry
    {
        type            symmetryPlane;
    }
    bottom
    {
        type            calculated;
        value           nonuniform List<symmTensor> 
32
(
(222.708 87.5143 4.20286 338.355 99.4023 223.781)
(218.813 98.1576 2.35141 330.733 49.4351 215.328)
(225.368 103.272 1.2017 340.426 24.1094 220.501)
(229.172 105.11 0.561502 346.219 11.0947 223.912)
(230.866 105.633 0.2348 348.847 4.62143 225.51)
(231.534 105.697 0.0821628 349.906 1.61688 226.164)
(231.748 105.639 0.0208157 350.259 0.409916 226.384)
(231.796 105.587 0.00272031 350.345 0.0535985 226.437)
(42.9026 34.7973 0.523264 63.7325 27.651 42.6599)
(44.814 46.2623 0.359694 65.8666 14.3106 43.7625)
(47.7301 48.1671 0.175776 70.1506 6.72987 46.4966)
(49.0938 47.8064 0.0715074 72.2536 2.76108 47.8598)
(49.7781 47.0572 0.0217858 73.3538 0.855024 48.5795)
(50.1451 46.4136 0.00173142 73.962 0.0689145 48.979)
(50.341 45.9837 -0.00341895 74.2931 -0.137375 49.1966)
(50.4274 45.7728 -0.0017855 74.4406 -0.0720773 49.2935)
(-61.4027 29.5466 -0.551125 -92.0542 -31.8797 -61.3188)
(-55.0815 40.6113 -0.440793 -83.393 -18.6284 -55.8403)
(-55.7723 41.8714 -0.267464 -84.5038 -10.9573 -56.7244)
(-56.2265 41.0601 -0.153323 -85.1177 -6.40353 -57.1857)
(-56.3295 40.0209 -0.0857849 -85.1981 -3.6757 -57.2557)
(-56.2508 39.1917 -0.0463728 -85.0258 -2.02919 -57.1441)
(-56.1287 38.6497 -0.0226508 -84.8095 -1.00517 -56.9991)
(-56.0482 38.3862 -0.00676036 -84.6731 -0.302081 -56.9072)
(-227.252 61.3555 -3.70203 -333.318 -91.131 -224.246)
(-216.033 69.4522 -2.25211 -318.642 -49.3765 -217.6)
(-221.953 71.7363 -1.25284 -327.339 -26.472 -224.885)
(-225.101 71.8427 -0.661749 -331.806 -13.9288 -228.386)
(-226.113 71.3302 -0.335727 -333.171 -7.11217 -229.447)
(-226.161 70.7644 -0.162099 -333.168 -3.46145 -229.467)
(-225.916 70.3403 -0.070837 -332.769 -1.5221 -229.188)
(-225.723 70.1198 -0.019635 -332.469 -0.423301 -228.975)
)
;
    }
}


// ************************************************************************* //
