/*--------------------------------*- C++ -*----------------------------------*\
| =========                 |                                                 |
| \\      /  F ield         | foam-extend: Open Source CFD                    |
|  \\    /   O peration     | Version:     3.1                                |
|   \\  /    A nd           | Web:         http://www.extend-project.de       |
|    \\/     M anipulation  |                                                 |
\*---------------------------------------------------------------------------*/
FoamFile
{
    version     2.0;
    format      ascii;
    class       volScalarField;
    location    "2.9";
    object      sigmaCauchyEq;
}
// * * * * * * * * * * * * * * * * * * * * * * * * * * * * * * * * * * * * * //

dimensions      [1 -1 -2 0 0 0 0];

internalField   nonuniform List<scalar> 
256
(
282.874
116.997
109.856
223.244
196.277
146.69
133.581
170.072
179.413
139.491
127.051
148.343
140.888
124.269
114.014
112.945
107.361
105.433
97.3335
81.6813
79.0681
84.5713
78.371
55.181
60.0287
63.9756
57.624
35.1931
55.1145
47.9851
31.6832
21.5458
278.32
131.573
121.379
215.329
206.771
152.058
138.953
177.931
177.41
130.586
118.651
146.645
137.748
110.776
100.41
109.253
102.708
90.4204
82.1464
76.1104
74.6256
70.6617
64.3948
49.2427
56.3528
52.6502
46.7548
29.9908
52.6561
41.4767
26.2777
18.5026
281.041
135.729
123.292
213.05
205.514
153.475
139.123
174.423
177.394
130.009
116.774
143.958
137.644
107.901
96.2138
106.425
102.577
86.6432
77.1436
73.3228
74.3612
66.8391
59.6608
46.6688
55.8225
49.6431
43.2653
27.7598
51.4845
40.6359
24.8742
15.4528
282.636
136.572
122.693
211.57
204.621
154.272
138.669
171.71
177.344
130.793
116.251
141.572
138.099
108.242
95.2849
104.269
103.292
86.6333
76.0014
71.3463
75.1269
66.6436
58.5967
44.8809
56.4665
49.5898
42.6289
26.162
51.9022
41.5349
24.9869
13.6899
283.16
136.285
121.485
210.221
204.369
154.546
137.963
169.96
177.57
131.573
116.023
139.894
138.79
109.176
95.2689
102.767
104.262
87.5385
76.0812
70.008
76.1788
67.4276
58.7411
43.6744
57.4565
50.3153
42.8808
25.0925
52.8052
42.6359
25.4465
12.764
283.143
135.74
120.346
209.057
204.339
154.534
137.234
168.781
177.87
132.088
115.812
138.763
139.422
109.967
95.3975
101.767
105.096
88.4129
76.3967
69.1309
77.0768
68.241
59.1262
42.8962
58.3235
51.035
43.2681
24.416
53.698
43.5057
25.8069
12.2213
282.968
135.282
119.524
208.212
204.359
154.43
136.659
168.023
178.111
132.368
115.619
138.053
139.874
110.472
95.4823
101.149
105.668
89.0066
76.6443
68.5963
77.6859
68.8079
59.4311
42.4323
58.921
51.5302
43.5508
24.0238
54.3437
44.0688
26.0103
11.885
282.838
135.033
119.102
207.77
204.374
154.353
136.347
167.647
178.239
132.484
115.502
137.706
140.102
110.709
95.5144
100.851
105.951
89.2946
76.7662
68.3413
77.9845
69.0862
59.5846
42.2146
59.2145
51.7723
43.688
23.8429
54.6664
44.34
26.0946
11.7152
)
;

boundaryField
{
    interface
    {
        type            calculated;
        value           nonuniform List<scalar> 
192
(
448.857
227.357
219.826
162.763
118.747
82.989
63.3501
54.1406
437.539
245.176
221.067
166.202
121.198
86.3758
67.1285
57.7072
442.542
240.153
219.701
165.584
120.75
85.7187
65.9914
54.3315
446.285
237.137
218.597
165.402
121.157
86.3719
66.7188
54.2881
448.007
235.843
218.195
165.606
121.841
87.283
67.7393
54.8745
448.552
235.326
218.191
165.979
122.516
88.1143
68.6632
55.6771
448.597
235.116
218.295
166.305
123.006
88.6921
69.2993
56.2882
448.533
235.036
218.367
166.48
123.252
88.975
69.6038
56.5847
308.355
181.802
183.849
144.775
113.024
84.6868
64.8855
59.3352
106.351
140.221
147.413
134.843
116.985
95.1073
72.5484
54.6326
104.31
125.36
133.991
123.94
108.361
88.3864
65.4709
36.0363
269.442
153.639
153.412
116.69
87.5788
61.2367
40.7334
25.6192
367.177
195.939
183.456
130.8
88.2971
52.0429
27.913
18.366
352.181
211.2
183.253
131.833
88.1336
52.5882
29.1841
19.5704
353.801
205.195
179.912
129.109
85.6846
50.3828
26.9026
15.0212
354.966
201.25
176.86
126.401
83.1933
47.8965
24.09
12.0782
354.801
199.078
174.835
124.432
81.2988
45.8654
21.6211
10.055
354.025
197.8
173.555
123.143
80.0066
44.4368
19.8047
8.75016
353.233
197.041
172.784
122.366
79.2134
43.5513
18.6525
7.93098
352.764
196.677
172.417
121.999
78.8358
43.1306
18.1022
7.53034
59.328
56.6172
55.7801
56.0463
56.9445
57.8489
58.5207
58.8444
45.6038
41.1381
41.6984
43.3109
44.7827
45.8512
46.5255
46.8524
13.2087
11.4575
11.6415
12.7879
13.7305
14.2052
14.3788
14.4223
21.9145
18.6633
14.5767
12.1795
11.089
10.4431
10.0041
9.76115
)
;
    }
    symmetry
    {
        type            symmetryPlane;
    }
    bottom
    {
        type            calculated;
        value           nonuniform List<scalar> 
32
(
256.755
221.768
218.096
218.765
219.361
219.545
219.52
219.462
79.788
86.6131
87.3387
86.2886
85.0343
84.0181
83.3425
83.0097
81.3077
82.2806
80.1192
77.3872
75.187
73.6438
72.683
72.224
218.694
179.361
168.378
164.663
162.886
161.76
161.024
160.652
)
;
    }
}


// ************************************************************************* //
