/*--------------------------------*- C++ -*----------------------------------*\
| =========                 |                                                 |
| \\      /  F ield         | foam-extend: Open Source CFD                    |
|  \\    /   O peration     | Version:     3.1                                |
|   \\  /    A nd           | Web:         http://www.extend-project.de       |
|    \\/     M anipulation  |                                                 |
\*---------------------------------------------------------------------------*/
FoamFile
{
    version     2.0;
    format      ascii;
    class       volVectorField;
    location    "2.9";
    object      U;
}
// * * * * * * * * * * * * * * * * * * * * * * * * * * * * * * * * * * * * * //

dimensions      [0 1 -1 0 0 0 0];

internalField   nonuniform List<vector> 
256
(
(-3.81683e-05 -2.47031e-05 -5.14474e-05)
(-1.47322e-05 -4.27487e-06 -1.47607e-05)
(-1.33301e-05 9.76193e-06 2.04587e-05)
(-3.42015e-05 3.38127e-05 6.24494e-05)
(-0.000163562 -0.000102875 -6.53725e-05)
(-0.000138556 -2.37763e-05 -2.55085e-05)
(-0.000135507 4.26294e-05 2.31525e-05)
(-0.000152917 0.000127446 6.34602e-05)
(-0.000325666 -0.000153396 -7.48018e-05)
(-0.000302457 -3.52638e-05 -3.23506e-05)
(-0.000298331 7.21714e-05 1.30556e-05)
(-0.000311535 0.0001968 5.45e-05)
(-0.000516143 -0.000185741 -7.89997e-05)
(-0.000497616 -3.82572e-05 -3.98619e-05)
(-0.000492792 0.000100162 2.74183e-08)
(-0.000499686 0.000253969 3.67295e-05)
(-0.000719779 -0.000199313 -8.30324e-05)
(-0.000706073 -3.37114e-05 -4.78646e-05)
(-0.000701113 0.000125127 -1.41177e-05)
(-0.000703126 0.000296579 1.72416e-05)
(-0.000924325 -0.000198355 -8.871e-05)
(-0.000915296 -2.37951e-05 -5.68955e-05)
(-0.000910711 0.000146839 -2.80376e-05)
(-0.00090926 0.000327081 -1.08698e-06)
(-0.00112061 -0.00018736 -9.73332e-05)
(-0.00111573 -1.07417e-05 -6.7705e-05)
(-0.0011122 0.000165206 -4.16273e-05)
(-0.00110886 0.000348133 -1.70156e-05)
(-0.00130247 -0.000171676 -0.000111158)
(-0.00130188 3.90149e-06 -8.14684e-05)
(-0.00130086 0.00018102 -5.57755e-05)
(-0.0012974 0.000363483 -3.12033e-05)
(-4.51783e-05 -2.29279e-05 -2.88476e-05)
(-2.46984e-05 -2.78628e-06 -8.2811e-06)
(-2.42577e-05 9.73973e-06 1.31518e-05)
(-4.39754e-05 3.22085e-05 3.78551e-05)
(-0.000185397 -9.57935e-05 -4.45334e-05)
(-0.000157241 -1.79949e-05 -1.71935e-05)
(-0.000155479 4.54857e-05 1.56241e-05)
(-0.000178674 0.000129177 4.37598e-05)
(-0.000352091 -0.000146231 -5.57555e-05)
(-0.000328971 -2.75232e-05 -2.4818e-05)
(-0.000325589 7.94356e-05 8.77179e-06)
(-0.000340278 0.000204496 3.95351e-05)
(-0.000543825 -0.000177483 -6.31877e-05)
(-0.000525537 -2.91467e-05 -3.27325e-05)
(-0.000521059 0.000109523 -1.42461e-06)
(-0.000528727 0.000264076 2.78325e-05)
(-0.000746818 -0.000190276 -6.97723e-05)
(-0.000733605 -2.37492e-05 -4.10003e-05)
(-0.000728681 0.000135682 -1.29308e-05)
(-0.000730769 0.000307948 1.36358e-05)
(-0.000950327 -0.00018844 -7.70855e-05)
(-0.000941867 -1.31534e-05 -4.9951e-05)
(-0.00093716 0.000158078 -2.46795e-05)
(-0.000935593 0.000339042 -5.30615e-07)
(-0.00114617 -0.000176545 -8.61151e-05)
(-0.00114186 5.14634e-07 -6.01187e-05)
(-0.00113811 0.000177086 -3.64833e-05)
(-0.00113475 0.000360748 -1.37029e-05)
(-0.00132877 -0.000160316 -9.83418e-05)
(-0.00132847 1.53858e-05 -7.2203e-05)
(-0.00132716 0.000193447 -4.8711e-05)
(-0.00132394 0.00037694 -2.61286e-05)
(-4.83466e-05 -2.39341e-05 -1.7229e-05)
(-2.76752e-05 -2.62369e-06 -5.01239e-06)
(-2.79111e-05 1.04296e-05 8.44156e-06)
(-4.92739e-05 3.4064e-05 2.35127e-05)
(-0.000196614 -9.38951e-05 -3.03371e-05)
(-0.000167127 -1.52913e-05 -1.19962e-05)
(-0.000166687 4.75604e-05 9.88335e-06)
(-0.000193719 0.000132221 2.90171e-05)
(-0.000368207 -0.000142142 -4.08052e-05)
(-0.000344511 -2.2866e-05 -1.90132e-05)
(-0.000342391 8.3702e-05 4.98151e-06)
(-0.00036001 0.000209214 2.71039e-05)
(-0.000562317 -0.000171524 -4.90932e-05)
(-0.000544306 -2.28887e-05 -2.64778e-05)
(-0.000540963 0.000115445 -2.81037e-06)
(-0.00055053 0.000269977 1.95067e-05)
(-0.000766185 -0.000183035 -5.67186e-05)
(-0.00075386 -1.63353e-05 -3.43381e-05)
(-0.000749992 0.000142862 -1.19402e-05)
(-0.000753297 0.000314963 9.48984e-06)
(-0.000969846 -0.00018025 -6.45727e-05)
(-0.000962717 -4.8976e-06 -4.2693e-05)
(-0.000959042 0.000166218 -2.15872e-05)
(-0.000958309 0.000347097 -1.17957e-06)
(-0.00116586 -0.000167561 -7.32551e-05)
(-0.00116306 9.3595e-06 -5.18026e-05)
(-0.00116029 0.000185964 -3.14747e-05)
(-0.00115756 0.000369818 -1.16853e-05)
(-0.00134882 -0.000150502 -8.37099e-05)
(-0.00135003 2.46191e-05 -6.19597e-05)
(-0.00134968 0.000202869 -4.15447e-05)
(-0.00134706 0.000386904 -2.18538e-05)
(-4.97338e-05 -2.46672e-05 -1.07077e-05)
(-2.85818e-05 -2.59125e-06 -3.20085e-06)
(-2.92529e-05 1.09257e-05 5.35124e-06)
(-5.2089e-05 3.55846e-05 1.46891e-05)
(-0.000202634 -9.36091e-05 -2.08891e-05)
(-0.000172412 -1.39844e-05 -8.59271e-06)
(-0.000172957 4.90388e-05 6.02182e-06)
(-0.000202573 0.000135035 1.88817e-05)
(-0.000377984 -0.00014017 -2.9637e-05)
(-0.00035398 -2.01584e-05 -1.44815e-05)
(-0.000352947 8.64687e-05 2.36852e-06)
(-0.000372839 0.000212745 1.78949e-05)
(-0.000574686 -0.000167894 -3.73059e-05)
(-0.000556899 -1.8853e-05 -2.09247e-05)
(-0.000554649 0.000119387 -3.54402e-06)
(-0.000566 0.0002742 1.28368e-05)
(-0.00078015 -0.000178051 -4.46464e-05)
(-0.000768492 -1.11925e-05 -2.77995e-05)
(-0.000765713 0.000147817 -1.06458e-05)
(-0.000770387 0.000319924 5.77796e-06)
(-0.000984702 -0.000174231 -5.20482e-05)
(-0.000978567 1.10409e-06 -3.50659e-05)
(-0.00097595 0.000172008 -1.83243e-05)
(-0.000976229 0.000352797 -2.12934e-06)
(-0.00118128 -0.000160706 -5.97875e-05)
(-0.00117964 1.6005e-05 -4.27835e-05)
(-0.00117788 0.000192393 -2.62781e-05)
(-0.00117591 0.000376182 -1.02364e-05)
(-0.00136442 -0.000142841 -6.84404e-05)
(-0.00136693 3.18259e-05 -5.10059e-05)
(-0.00136767 0.00020982 -3.42486e-05)
(-0.00136577 0.00039381 -1.81656e-05)
(-5.0358e-05 -2.51285e-05 -6.77522e-06)
(-2.88335e-05 -2.57883e-06 -2.10366e-06)
(-2.97895e-05 1.12686e-05 3.31431e-06)
(-5.36946e-05 3.66316e-05 9.10081e-06)
(-0.00020596 -9.37897e-05 -1.42923e-05)
(-0.000175289 -1.33214e-05 -6.13691e-06)
(-0.00017652 5.00739e-05 3.51396e-06)
(-0.000207925 0.000137229 1.19945e-05)
(-0.000383963 -0.000139395 -2.10666e-05)
(-0.000359808 -1.86052e-05 -1.07399e-05)
(-0.000359581 8.8344e-05 7.99782e-07)
(-0.000381111 0.000215504 1.13787e-05)
(-0.000582891 -0.000165941 -2.73804e-05)
(-0.000565279 -1.63388e-05 -1.58795e-05)
(-0.000563868 0.000122066 -3.57534e-06)
(-0.00057661 0.000277412 7.95634e-06)
(-0.000789989 -0.000174975 -3.36e-05)
(-0.000778798 -7.79594e-06 -2.14273e-05)
(-0.00077687 0.000151225 -8.90299e-06)
(-0.000782689 0.000323572 3.02679e-06)
(-0.000995632 -0.000170203 -3.98489e-05)
(-0.000990186 5.23442e-06 -2.72857e-05)
(-0.000988408 0.00017603 -1.47445e-05)
(-0.000989614 0.000356861 -2.67954e-06)
(-0.00119288 -0.00015586 -4.61947e-05)
(-0.00119205 2.0717e-05 -3.34039e-05)
(-0.00119111 0.000196888 -2.08207e-05)
(-0.0011899 0.000380595 -8.67601e-06)
(-0.00137618 -0.000137227 -5.29494e-05)
(-0.00137959 3.70604e-05 -3.97054e-05)
(-0.0013812 0.000214709 -2.6817e-05)
(-0.00137996 0.000398486 -1.45498e-05)
(-5.05522e-05 -2.54134e-05 -4.1861e-06)
(-2.88401e-05 -2.57105e-06 -1.35232e-06)
(-3.00072e-05 1.14988e-05 1.95859e-06)
(-5.46493e-05 3.73196e-05 5.4332e-06)
(-0.000207793 -9.40616e-05 -9.33588e-06)
(-0.000176859 -1.29773e-05 -4.16326e-06)
(-0.000178562 5.07791e-05 1.92737e-06)
(-0.000211183 0.000138798 7.25534e-06)
(-0.000387574 -0.000139183 -1.4126e-05)
(-0.000363348 -1.77294e-05 -7.44829e-06)
(-0.000363684 8.96016e-05 2.50933e-08)
(-0.000386356 0.000217538 6.8318e-06)
(-0.000588198 -0.00016499 -1.87559e-05)
(-0.000570704 -1.48316e-05 -1.11627e-05)
(-0.000569881 0.000123853 -3.00604e-06)
(-0.000583623 0.000279767 4.58498e-06)
(-0.000796629 -0.000173226 -2.34037e-05)
(-0.000785748 -5.66846e-06 -1.52043e-05)
(-0.000784422 0.000153494 -6.72093e-06)
(-0.000791094 0.000326178 1.30412e-06)
(-0.00100324 -0.000167706 -2.80787e-05)
(-0.000998245 7.90836e-06 -1.94733e-05)
(-0.000997063 0.000178704 -1.08252e-05)
(-0.000998986 0.000359671 -2.56547e-06)
(-0.00120109 -0.000152682 -3.27522e-05)
(-0.0012008 2.38446e-05 -2.38841e-05)
(-0.00120044 0.000199873 -1.50986e-05)
(-0.00119984 0.000383553 -6.68713e-06)
(-0.00138453 -0.000133412 -3.75709e-05)
(-0.00138853 4.0604e-05 -2.83203e-05)
(-0.00139076 0.000217959 -1.92659e-05)
(-0.00139008 0.00040155 -1.07225e-05)
(-5.07139e-05 -2.55744e-05 -2.29076e-06)
(-2.88385e-05 -2.56403e-06 -7.63481e-07)
(-3.01182e-05 1.16414e-05 1.02414e-06)
(-5.5213e-05 3.77354e-05 2.87823e-06)
(-0.000208814 -9.42921e-05 -5.29234e-06)
(-0.000177713 -1.28056e-05 -2.42575e-06)
(-0.000179703 5.12191e-05 9.35638e-07)
(-0.00021308 0.000139801 3.86352e-06)
(-0.000389646 -0.000139191 -8.14389e-06)
(-0.000365382 -1.72642e-05 -4.39433e-06)
(-0.000366071 9.03788e-05 -1.99335e-07)
(-0.000389468 0.000218867 3.60115e-06)
(-0.000591373 -0.000164583 -1.09548e-05)
(-0.000573951 -1.39939e-05 -6.63527e-06)
(-0.000573498 0.00012495 -1.98758e-06)
(-0.000587885 0.000281312 2.31286e-06)
(-0.000800714 -0.000172325 -1.38076e-05)
(-0.000790021 -4.44714e-06 -9.0846e-06)
(-0.000789075 0.000154879 -4.18434e-06)
(-0.000796302 0.000327863 4.24207e-07)
(-0.00100801 -0.000166306 -1.6682e-05)
(-0.00100329 9.4824e-06 -1.16722e-05)
(-0.00100249 0.000180328 -6.61997e-06)
(-0.00100489 0.000361442 -1.82365e-06)
(-0.0012063 -0.000150809 -1.9532e-05)
(-0.00120634 2.57215e-05 -1.43284e-05)
(-0.00120634 0.00020168 -9.15519e-06)
(-0.00120616 0.00038537 -4.23373e-06)
(-0.00138986 -0.000131095 -2.24125e-05)
(-0.00139421 4.27647e-05 -1.69582e-05)
(-0.00139684 0.000219926 -1.16071e-05)
(-0.00139656 0.0004034 -6.59067e-06)
(-5.07841e-05 -2.56479e-05 -7.30744e-07)
(-2.88327e-05 -2.55986e-06 -2.47781e-07)
(-3.01659e-05 1.17097e-05 3.17328e-07)
(-5.54773e-05 3.79312e-05 8.99984e-07)
(-0.000209274 -9.44201e-05 -1.71657e-06)
(-0.000178092 -1.27352e-05 -7.98183e-07)
(-0.000180218 5.14303e-05 2.7616e-07)
(-0.000213958 0.000140289 1.2096e-06)
(-0.000390599 -0.000139235 -2.66281e-06)
(-0.000366315 -1.70642e-05 -1.45371e-06)
(-0.000367174 9.07501e-05 -1.01759e-07)
(-0.000390921 0.000219522 1.11954e-06)
(-0.000592861 -0.000164444 -3.60379e-06)
(-0.000575472 -1.36227e-05 -2.20231e-06)
(-0.000575199 0.000125473 -6.9347e-07)
(-0.000589902 0.000282074 6.98285e-07)
(-0.000802659 -0.000171952 -4.5637e-06)
(-0.000792055 -3.8941e-06 -3.02215e-06)
(-0.000791293 0.000155536 -1.42076e-06)
(-0.000798796 0.000328689 8.04852e-08)
(-0.00101032 -0.000165687 -5.53182e-06)
(-0.00100572 1.02071e-05 -3.88827e-06)
(-0.0010051 0.000181095 -2.22811e-06)
(-0.00100773 0.000362298 -6.5722e-07)
(-0.00120884 -0.000149954 -6.48848e-06)
(-0.00120902 2.65977e-05 -4.77447e-06)
(-0.0012092 0.000202531 -3.06802e-06)
(-0.00120923 0.000386235 -1.45017e-06)
(-0.00139245 -0.000130021 -7.44581e-06)
(-0.00139696 4.3788e-05 -5.64482e-06)
(-0.00139978 0.000220855 -3.87673e-06)
(-0.00139972 0.000404269 -2.22472e-06)
)
;

boundaryField
{
    interface
    {
        type            calculated;
        value           nonuniform List<vector> 
192
(
(-8.70253e-05 -8.27065e-05 -5.72379e-05)
(-0.000184945 -0.000163776 -7.96772e-05)
(-0.000348042 -0.000235465 -9.21825e-05)
(-0.000531917 -0.000278446 -9.7195e-05)
(-0.000730079 -0.000297353 -0.000101551)
(-0.000929292 -0.000295894 -0.000107443)
(-0.00112127 -0.000280274 -0.000116537)
(-0.00130165 -0.00025708 -0.000130597)
(-9.37962e-05 -8.88194e-05 -3.24331e-05)
(-0.000209712 -0.000160801 -5.37405e-05)
(-0.000373462 -0.000229479 -6.78441e-05)
(-0.00055851 -0.000270686 -7.64622e-05)
(-0.000755477 -0.000288347 -8.35733e-05)
(-0.000953419 -0.000286006 -9.10478e-05)
(-0.00114473 -0.00026969 -0.000100236)
(-0.00132616 -0.000245493 -0.000112259)
(-9.97171e-05 -9.40728e-05 -1.95062e-05)
(-0.000222095 -0.000161925 -3.60709e-05)
(-0.000390293 -0.000226822 -4.88151e-05)
(-0.000577181 -0.000265466 -5.86062e-05)
(-0.000774584 -0.000281362 -6.71063e-05)
(-0.000972446 -0.000277921 -7.54556e-05)
(-0.00116379 -0.000260855 -8.44286e-05)
(-0.00134578 -0.000235421 -9.46798e-05)
(-0.000103005 -9.71876e-05 -1.21646e-05)
(-0.000229029 -0.000163531 -2.45304e-05)
(-0.000400718 -0.000226327 -3.49319e-05)
(-0.000589787 -0.000262765 -4.39411e-05)
(-0.000788436 -0.00027693 -5.22428e-05)
(-0.000986932 -0.000272217 -6.02826e-05)
(-0.00117864 -0.000254164 -6.83878e-05)
(-0.00136082 -0.00022749 -7.68884e-05)
(-0.000104807 -9.89891e-05 -7.72199e-06)
(-0.000233016 -0.000164945 -1.6618e-05)
(-0.000407174 -0.000226717 -2.45486e-05)
(-0.000598195 -0.000261711 -3.19193e-05)
(-0.000798239 -0.000274484 -3.898e-05)
(-0.000997629 -0.000268586 -4.58389e-05)
(-0.00118985 -0.0002495 -5.25569e-05)
(-0.00137222 -0.000221653 -5.92333e-05)
(-0.00010562 -0.000100005 -4.79228e-06)
(-0.000235286 -0.000165988 -1.07894e-05)
(-0.000411098 -0.000227337 -1.63288e-05)
(-0.000603654 -0.000261484 -2.17054e-05)
(-0.000804862 -0.000273284 -2.69764e-05)
(-0.00100508 -0.000266461 -3.21283e-05)
(-0.0011978 -0.0002465 -3.71067e-05)
(-0.00138033 -0.000217686 -4.18909e-05)
(-0.000106199 -0.000100584 -2.63244e-06)
(-0.000236579 -0.000166669 -6.10714e-06)
(-0.000413364 -0.000227874 -9.36927e-06)
(-0.000606925 -0.000261571 -1.2616e-05)
(-0.000808938 -0.000272771 -1.5845e-05)
(-0.00100977 -0.000265337 -1.90169e-05)
(-0.00120286 -0.000244765 -2.20625e-05)
(-0.00138553 -0.00021528 -2.4932e-05)
(-0.000106455 -0.000100854 -8.40328e-07)
(-0.000237167 -0.000167 -1.97756e-06)
(-0.000414411 -0.00022817 -3.05614e-06)
(-0.000608461 -0.000261676 -4.13923e-06)
(-0.000810883 -0.000272596 -5.22454e-06)
(-0.00101204 -0.00026486 -6.29335e-06)
(-0.00120533 -0.000243981 -7.31673e-06)
(-0.00138808 -0.000214176 -8.27197e-06)
(-3.04021e-05 -5.68134e-05 -8.08982e-05)
(-0.000145164 -0.000106563 -7.23741e-05)
(-0.000306178 -0.000158333 -8.51095e-05)
(-0.000496232 -0.000188783 -8.67844e-05)
(-0.00070042 -0.000202921 -8.98209e-05)
(-0.000905244 -0.000202956 -9.47187e-05)
(-0.00110134 -0.000193731 -0.000103055)
(-0.00128228 -0.000180133 -0.000117219)
(-2.57478e-06 -1.7213e-05 -2.28896e-05)
(-0.000114247 -2.78144e-05 -2.92692e-05)
(-0.000279625 -4.06815e-05 -3.64394e-05)
(-0.000476945 -4.33736e-05 -4.37728e-05)
(-0.00068824 -3.90242e-05 -5.20006e-05)
(-0.00089964 -2.95536e-05 -6.14194e-05)
(-0.00110112 -1.75844e-05 -7.28381e-05)
(-0.00128666 -4.51022e-06 -8.71331e-05)
(-5.29232e-07 2.24802e-05 2.73189e-05)
(-0.000111385 3.68854e-05 2.30361e-05)
(-0.000276103 6.52276e-05 1.35384e-05)
(-0.000473264 9.17614e-05 -4.92972e-07)
(-0.000684819 0.000116974 -1.55099e-05)
(-0.00089685 0.000139113 -3.04107e-05)
(-0.00109946 0.000157613 -4.49492e-05)
(-0.00128769 0.000172801 -5.98209e-05)
(-2.45686e-05 7.10492e-05 8.88347e-05)
(-0.000135624 0.000121535 6.65947e-05)
(-0.000293929 0.000189277 6.12169e-05)
(-0.00048361 0.000242873 4.00508e-05)
(-0.000689217 0.000285972 1.85298e-05)
(-0.000896955 0.000317689 -1.83617e-06)
(-0.00109713 0.000340028 -1.9242e-05)
(-0.00128504 0.000355354 -3.39845e-05)
(-7.44326e-05 0.000101514 6.82195e-05)
(-0.000167618 0.000193987 7.73923e-05)
(-0.00032483 0.000286511 7.0964e-05)
(-0.000505579 0.000353225 5.24861e-05)
(-0.000704014 0.000400127 3.17042e-05)
(-0.000906584 0.000429239 1.21262e-05)
(-0.00110449 0.000445969 -4.38486e-06)
(-0.00129319 0.000456856 -1.85445e-05)
(-8.41426e-05 0.000110396 4.21638e-05)
(-0.000196986 0.000200693 5.42372e-05)
(-0.000353663 0.000294438 5.23371e-05)
(-0.000534945 0.00036283 4.09493e-05)
(-0.000731653 0.000410527 2.65097e-05)
(-0.000932903 0.000440587 1.19321e-05)
(-0.00113043 0.000458617 -1.4716e-06)
(-0.0013199 0.000470904 -1.39715e-05)
(-9.23988e-05 0.000119626 2.62581e-05)
(-0.000213403 0.000207288 3.57841e-05)
(-0.000374694 0.000300458 3.59355e-05)
(-0.000557566 0.000369166 2.93397e-05)
(-0.000754572 0.000417444 1.96962e-05)
(-0.000955788 0.00044848 9.10256e-06)
(-0.00115329 0.000467659 -1.43962e-06)
(-0.00134294 0.000481119 -1.17894e-05)
(-9.75735e-05 0.000125766 1.6411e-05)
(-0.000223548 0.000212512 2.32044e-05)
(-0.000388788 0.000305581 2.37819e-05)
(-0.000574006 0.000374229 1.97709e-05)
(-0.000772354 0.000422784 1.33355e-05)
(-0.000974148 0.000454306 5.74421e-06)
(-0.00117193 0.000474037 -2.27513e-06)
(-0.00136191 0.000488115 -1.03526e-05)
(-0.000100821 0.000129665 1.01674e-05)
(-0.000229931 0.000216334 1.47192e-05)
(-0.000398084 0.000309649 1.51963e-05)
(-0.000585451 0.000378321 1.2626e-05)
(-0.000785307 0.000426955 8.30134e-06)
(-0.000988035 0.000458619 2.96658e-06)
(-0.00118634 0.000478532 -2.89681e-06)
(-0.00137641 0.000492847 -8.86681e-06)
(-0.000102869 0.000132103 6.07277e-06)
(-0.00023394 0.000218958 8.91333e-06)
(-0.000404087 0.000312623 9.19574e-06)
(-0.000593106 0.000381386 7.54819e-06)
(-0.00079424 0.000430043 4.73089e-06)
(-0.000997834 0.000461705 1.16927e-06)
(-0.00119666 0.000481595 -2.81814e-06)
(-0.00138686 0.000495964 -6.90429e-06)
(-0.0001041 0.000133537 3.22013e-06)
(-0.000236318 0.00022059 4.7589e-06)
(-0.000407695 0.000314548 4.88944e-06)
(-0.000597795 0.000383412 3.95076e-06)
(-0.000799802 0.000432075 2.34462e-06)
(-0.00100404 0.000463691 2.92439e-07)
(-0.00120326 0.000483509 -2.02387e-06)
(-0.00139361 0.000497872 -4.40039e-06)
(-0.000104681 0.000134205 1.00753e-06)
(-0.00023743 0.000221371 1.49294e-06)
(-0.000409391 0.00031549 1.52906e-06)
(-0.000600023 0.000384414 1.22263e-06)
(-0.000802479 0.00043308 6.98709e-07)
(-0.00100703 0.000464664 2.76135e-08)
(-0.00120646 0.000484432 -7.32205e-07)
(-0.00139689 0.000498779 -1.5116e-06)
(-0.00138509 -0.000163302 -0.000120465)
(-0.00141088 -0.000152322 -0.000105816)
(-0.00143028 -0.000141861 -9.0103e-05)
(-0.00144527 -0.000133798 -7.34715e-05)
(-0.00145655 -0.000127769 -5.67135e-05)
(-0.00146453 -0.000123619 -4.01534e-05)
(-0.00146962 -0.000121063 -2.39128e-05)
(-0.00147212 -0.000119874 -7.93599e-06)
(-0.00138822 1.22276e-05 -8.962e-05)
(-0.00141501 2.33549e-05 -7.8427e-05)
(-0.00143639 3.30125e-05 -6.70924e-05)
(-0.00145297 4.06269e-05 -5.49843e-05)
(-0.00146534 4.62336e-05 -4.26378e-05)
(-0.00147405 5.00643e-05 -3.0312e-05)
(-0.00147957 5.24221e-05 -1.81081e-05)
(-0.00148224 5.35509e-05 -6.01939e-06)
(-0.00138918 0.000188687 -6.36223e-05)
(-0.00141612 0.000201095 -5.46826e-05)
(-0.00143891 0.000210955 -4.6214e-05)
(-0.00145688 0.000218287 -3.77524e-05)
(-0.00147029 0.000223488 -2.93398e-05)
(-0.00147974 0.000226954 -2.09585e-05)
(-0.00148574 0.000229061 -1.25785e-05)
(-0.00148864 0.000230064 -4.19234e-06)
(-0.00138836 0.00037042 -3.91262e-05)
(-0.00141559 0.00038401 -3.24377e-05)
(-0.00143906 0.000394467 -2.6602e-05)
(-0.00145791 0.000401687 -2.15958e-05)
(-0.00147216 0.000406562 -1.69839e-05)
(-0.00148233 0.000409731 -1.23565e-05)
(-0.00148887 0.000411633 -7.53251e-06)
(-0.00149205 0.000412524 -2.5311e-06)
)
;
    }
    symmetry
    {
        type            symmetryPlane;
    }
    bottom
    {
        type            calculated;
        value           uniform (0 0 0);
    }
}


// ************************************************************************* //
