/*--------------------------------*- C++ -*----------------------------------*\
| =========                 |                                                 |
| \\      /  F ield         | foam-extend: Open Source CFD                    |
|  \\    /   O peration     | Version:     3.1                                |
|   \\  /    A nd           | Web:         http://www.extend-project.de       |
|    \\/     M anipulation  |                                                 |
\*---------------------------------------------------------------------------*/
FoamFile
{
    version     2.0;
    format      ascii;
    class       regIOobject;
    location    "2.3/uniform";
    object      profilingInfo;
}
// * * * * * * * * * * * * * * * * * * * * * * * * * * * * * * * * * * * * * //

profilingInfo
(

    {
        id              23;
        parentId        22;
        description     "Foam::Time::writeObject - outputTime";
        calls           23;
        totalTime       6.30206;
        childTime       0;
        onStack         1;
    }

    {
        id              22;
        parentId        1;
        description     "Foam::Time::writeObject";
        calls           23;
        totalTime       6.3022;
        childTime       6.30206;
        onStack         1;
    }

    {
        id              1;
        description     "application::main";
        calls           1;
        totalTime       226.406;
        childTime       50.8077;
        onStack         1;
    }

    {
        id              25;
        parentId        24;
        description     "FO::beamReport::execute";
        calls           22;
        totalTime       0.000461;
        childTime       0;
        onStack         0;
    }

    {
        id              27;
        parentId        24;
        description     "FO::forces::execute";
        calls           22;
        totalTime       0.06127;
        childTime       0;
        onStack         0;
    }

    {
        id              26;
        parentId        24;
        description     "FO::setInletVelocity::execute";
        calls           22;
        totalTime       0.000411;
        childTime       0;
        onStack         0;
    }

    {
        id              3;
        parentId        2;
        description     "functionObjectList::read";
        calls           1;
        totalTime       0.233355;
        childTime       0;
        onStack         0;
    }

    {
        id              24;
        parentId        1;
        description     "functionObjects_.execute()";
        calls           22;
        totalTime       0.062315;
        childTime       0.062142;
        onStack         0;
    }

    {
        id              2;
        parentId        1;
        description     "functionObjects_.start()";
        calls           1;
        totalTime       0.233375;
        childTime       0.233355;
        onStack         0;
    }

    {
        id              18;
        parentId        1;
        description     "fvMatrix::solve_D";
        calls           71386;
        totalTime       13.5944;
        childTime       8.85195;
        onStack         0;
    }

    {
        id              11;
        parentId        1;
        description     "fvMatrix::solve_U";
        calls           270;
        totalTime       2.17081;
        childTime       2.00894;
        onStack         0;
    }

    {
        id              4;
        parentId        1;
        description     "fvMatrix::solve_cellMotionU";
        calls           540;
        totalTime       15.1343;
        childTime       14.7463;
        onStack         0;
    }

    {
        id              15;
        parentId        1;
        description     "fvMatrix::solve_p";
        calls           1620;
        totalTime       13.3103;
        childTime       12.9737;
        onStack         0;
    }

    {
        id              19;
        parentId        18;
        description     "lduMatrix::solver_Dx";
        calls           71386;
        totalTime       4.33031;
        childTime       0;
        onStack         0;
    }

    {
        id              20;
        parentId        18;
        description     "lduMatrix::solver_Dy";
        calls           71386;
        totalTime       2.26589;
        childTime       0;
        onStack         0;
    }

    {
        id              21;
        parentId        18;
        description     "lduMatrix::solver_Dz";
        calls           71386;
        totalTime       2.25575;
        childTime       0;
        onStack         0;
    }

    {
        id              12;
        parentId        11;
        description     "lduMatrix::solver_Ux";
        calls           270;
        totalTime       0.65807;
        childTime       0;
        onStack         0;
    }

    {
        id              13;
        parentId        11;
        description     "lduMatrix::solver_Uy";
        calls           270;
        totalTime       0.692061;
        childTime       0;
        onStack         0;
    }

    {
        id              14;
        parentId        11;
        description     "lduMatrix::solver_Uz";
        calls           270;
        totalTime       0.658814;
        childTime       0;
        onStack         0;
    }

    {
        id              5;
        parentId        4;
        description     "lduMatrix::solver_cellMotionUx";
        calls           540;
        totalTime       5.35014;
        childTime       0.038183;
        onStack         0;
    }

    {
        id              7;
        parentId        4;
        description     "lduMatrix::solver_cellMotionUy";
        calls           540;
        totalTime       4.37509;
        childTime       0.028106;
        onStack         0;
    }

    {
        id              9;
        parentId        4;
        description     "lduMatrix::solver_cellMotionUz";
        calls           540;
        totalTime       5.02109;
        childTime       0.031427;
        onStack         0;
    }

    {
        id              6;
        parentId        5;
        description     "lduMatrix::solver_coarsestLevelCorr";
        calls           2315;
        totalTime       0.038183;
        childTime       0;
        onStack         0;
    }

    {
        id              8;
        parentId        7;
        description     "lduMatrix::solver_coarsestLevelCorr";
        calls           1889;
        totalTime       0.028106;
        childTime       0;
        onStack         0;
    }

    {
        id              10;
        parentId        9;
        description     "lduMatrix::solver_coarsestLevelCorr";
        calls           2198;
        totalTime       0.031427;
        childTime       0;
        onStack         0;
    }

    {
        id              17;
        parentId        16;
        description     "lduMatrix::solver_coarsestLevelCorr";
        calls           5516;
        totalTime       0.124534;
        childTime       0;
        onStack         0;
    }

    {
        id              16;
        parentId        15;
        description     "lduMatrix::solver_p";
        calls           1620;
        totalTime       12.9737;
        childTime       0.124534;
        onStack         0;
    }
);


// ************************************************************************* //
