/*--------------------------------*- C++ -*----------------------------------*\
| =========                 |                                                 |
| \\      /  F ield         | foam-extend: Open Source CFD                    |
|  \\    /   O peration     | Version:     3.1                                |
|   \\  /    A nd           | Web:         http://www.extend-project.de       |
|    \\/     M anipulation  |                                                 |
\*---------------------------------------------------------------------------*/
FoamFile
{
    version     2.0;
    format      ascii;
    class       volVectorField;
    location    "3.1";
    object      cellMotionU;
}
// * * * * * * * * * * * * * * * * * * * * * * * * * * * * * * * * * * * * * //

dimensions      [0 1 -1 0 0 0 0];

internalField   nonuniform List<vector> 
14592
(
(-1.22347e-11 -7.24465e-13 7.26492e-14)
(-3.54904e-11 -2.15456e-12 2.16531e-13)
(-5.68052e-11 -3.62614e-12 3.65497e-13)
(-7.69599e-11 -5.29439e-12 5.34559e-13)
(-9.66828e-11 -7.342e-12 7.39445e-13)
(-1.16697e-10 -1.0012e-11 9.98347e-13)
(-1.37772e-10 -1.36534e-11 1.33367e-12)
(-1.6077e-10 -1.87953e-11 1.77323e-12)
(-1.86695e-10 -2.6255e-11 2.34962e-12)
(-2.16724e-10 -3.73212e-11 3.09281e-12)
(-2.52176e-10 -5.40301e-11 4.001e-12)
(-2.94344e-10 -7.96019e-11 4.94671e-12)
(-3.43992e-10 -1.19107e-10 5.39541e-12)
(-4.00198e-10 -1.8035e-10 3.62263e-12)
(-4.57873e-10 -2.73235e-10 -4.97791e-12)
(-5.01815e-10 -3.88602e-10 -2.63898e-11)
(-3.63601e-11 -2.10582e-12 2.13833e-13)
(-1.05464e-10 -6.25862e-12 6.37268e-13)
(-1.68765e-10 -1.05152e-11 1.07568e-12)
(-2.2855e-10 -1.53133e-11 1.57335e-12)
(-2.86943e-10 -2.11608e-11 2.17704e-12)
(-3.46041e-10 -2.87233e-11 2.94176e-12)
(-4.0806e-10 -3.8951e-11 3.93714e-12)
(-4.75476e-10 -5.32601e-11 5.25403e-12)
(-5.51166e-10 -7.38221e-11 7.01101e-12)
(-6.38503e-10 -1.04006e-10 9.35352e-12)
(-7.41318e-10 -1.49033e-10 1.24269e-11)
(-8.63491e-10 -2.16897e-10 1.62727e-11)
(-1.00767e-09 -3.19398e-10 2.05242e-11)
(-1.17209e-09 -4.7242e-10 2.36801e-11)
(-1.34298e-09 -6.89738e-10 2.19181e-11)
(-1.47435e-09 -9.31382e-10 1.0936e-11)
(-5.96658e-11 -3.30774e-12 3.44088e-13)
(-1.73012e-10 -9.81265e-12 1.02522e-12)
(-2.76688e-10 -1.64303e-11 1.73012e-12)
(-3.74355e-10 -2.38024e-11 2.53006e-12)
(-4.69387e-10 -3.26557e-11 3.5015e-12)
(-5.65073e-10 -4.39199e-11 4.7366e-12)
(-6.64838e-10 -5.88867e-11 6.35622e-12)
(-7.72466e-10 -7.94316e-11 8.52867e-12)
(-8.92291e-10 -1.08363e-10 1.14979e-11)
(-1.02939e-09 -1.4991e-10 1.56259e-11)
(-1.18956e-09 -2.10405e-10 2.14621e-11)
(-1.37895e-09 -2.99034e-10 2.98609e-11)
(-1.6026e-09 -4.28171e-10 4.22392e-11)
(-1.86051e-09 -6.11394e-10 6.1218e-11)
(-2.13691e-09 -8.52129e-10 9.17677e-11)
(-2.36343e-09 -1.08932e-09 1.35692e-10)
(-8.1677e-11 -4.24145e-12 4.57139e-13)
(-2.36743e-10 -1.25524e-11 1.36165e-12)
(-3.78286e-10 -2.09117e-11 2.29633e-12)
(-5.11148e-10 -3.00593e-11 3.35573e-12)
(-6.39732e-10 -4.08005e-11 4.64254e-12)
(-7.68259e-10 -5.41204e-11 6.28325e-12)
(-9.01031e-10 -7.13214e-11 8.44933e-12)
(-1.04268e-09 -9.42162e-11 1.13916e-11)
(-1.19841e-09 -1.2539e-10 1.54964e-11)
(-1.37419e-09 -1.68554e-10 2.1387e-11)
(-1.57684e-09 -2.28966e-10 3.0106e-11)
(-1.81379e-09 -3.13776e-10 4.34637e-11)
(-2.09187e-09 -4.31754e-10 6.47113e-11)
(-2.41367e-09 -5.90877e-10 9.97583e-11)
(-2.76539e-09 -7.88731e-10 1.57911e-10)
(-3.06657e-09 -9.73367e-10 2.37204e-10)
(-1.02001e-10 -4.85845e-12 5.4814e-13)
(-2.95516e-10 -1.43328e-11 1.63139e-12)
(-4.71714e-10 -2.37197e-11 2.74792e-12)
(-6.36373e-10 -3.37487e-11 4.0095e-12)
(-7.94676e-10 -4.51628e-11 5.53877e-12)
(-9.51473e-10 -5.88062e-11 7.48899e-12)
(-1.11156e-09 -7.56924e-11 1.00724e-11)
(-1.27993e-09 -9.71209e-11 1.36075e-11)
(-1.46196e-09 -1.24749e-10 1.85986e-11)
(-1.66361e-09 -1.60708e-10 2.58809e-11)
(-1.89146e-09 -2.07632e-10 3.68754e-11)
(-2.15257e-09 -2.68575e-10 5.40426e-11)
(-2.45355e-09 -3.46641e-10 8.16433e-11)
(-2.79748e-09 -4.43936e-10 1.26778e-10)
(-3.17152e-09 -5.57949e-10 1.98917e-10)
(-3.4923e-09 -6.62164e-10 2.91467e-10)
(-1.20339e-10 -5.14928e-12 6.1347e-13)
(-3.48464e-10 -1.51319e-11 1.82434e-12)
(-5.55594e-10 -2.48424e-11 3.06679e-12)
(-7.48189e-10 -3.49048e-11 4.46261e-12)
(-9.31946e-10 -4.58971e-11 6.1455e-12)
(-1.11205e-09 -5.83742e-11 8.28292e-12)
(-1.29345e-09 -7.28876e-11 1.11092e-11)
(-1.48101e-09 -8.99444e-11 1.49772e-11)
(-1.67971e-09 -1.09936e-10 2.04514e-11)
(-1.89466e-09 -1.32932e-10 2.84646e-11)
(-2.13102e-09 -1.58328e-10 4.05939e-11)
(-2.39377e-09 -1.8432e-10 5.95154e-11)
(-2.6869e-09 -2.07434e-10 8.96878e-11)
(-3.01123e-09 -2.23102e-10 1.38061e-10)
(-3.35498e-09 -2.29596e-10 2.12736e-10)
(-3.64769e-09 -2.3426e-10 3.04355e-10)
(-1.36484e-10 -5.14038e-12 6.52135e-13)
(-3.95011e-10 -1.50391e-11 1.93636e-12)
(-6.29049e-10 -2.4461e-11 3.24554e-12)
(-8.45496e-10 -3.38681e-11 4.70293e-12)
(-1.05032e-09 -4.36138e-11 6.44293e-12)
(-1.2488e-09 -5.39117e-11 8.63227e-12)
(-1.44572e-09 -6.47912e-11 1.1503e-11)
(-1.64555e-09 -7.59602e-11 1.54025e-11)
(-1.85242e-09 -8.65783e-11 2.08804e-11)
(-2.0701e-09 -9.48422e-11 2.88356e-11)
(-2.30165e-09 -9.73296e-11 4.07647e-11)
(-2.54887e-09 -8.80334e-11 5.91681e-11)
(-2.81129e-09 -5.73194e-11 8.81746e-11)
(-3.08441e-09 7.92316e-12 1.34246e-10)
(-3.35493e-09 1.17162e-10 2.05049e-10)
(-3.57761e-09 2.40758e-10 2.91843e-10)
(-1.50328e-10 -4.88355e-12 6.64714e-13)
(-4.34854e-10 -1.42199e-11 1.97004e-12)
(-6.91669e-10 -2.28889e-11 3.28855e-12)
(-9.27877e-10 -3.11734e-11 4.73718e-12)
(-1.14952e-09 -3.91887e-11 6.44029e-12)
(-1.36177e-09 -4.68392e-11 8.55053e-12)
(-1.56909e-09 -5.37029e-11 1.12739e-11)
(-1.77535e-09 -5.88652e-11 1.49139e-11)
(-1.98375e-09 -6.06214e-11 1.99396e-11)
(-2.19663e-09 -5.60125e-11 2.70987e-11)
(-2.41496e-09 -4.01126e-11 3.75997e-11)
(-2.63755e-09 -5.01035e-12 5.34132e-11)
(-2.85945e-09 6.15677e-11 7.77839e-11)
(-3.06895e-09 1.77795e-10 1.16173e-10)
(-3.24093e-09 3.66243e-10 1.7724e-10)
(-3.32805e-09 6.15894e-10 2.61868e-10)
(-1.23078e-11 -8.08503e-13 6.41056e-14)
(-3.56979e-11 -2.40697e-12 1.90111e-13)
(-5.71274e-11 -4.05863e-12 3.17683e-13)
(-7.73804e-11 -5.94215e-12 4.57419e-13)
(-9.71874e-11 -8.26641e-12 6.19034e-13)
(-1.1727e-10 -1.13087e-11 8.11764e-13)
(-1.3839e-10 -1.54674e-11 1.04393e-12)
(-1.61392e-10 -2.13408e-11 1.32109e-12)
(-1.87245e-10 -2.98551e-11 1.64072e-12)
(-2.17053e-10 -4.24609e-11 1.97814e-12)
(-2.52e-10 -6.14427e-11 2.24945e-12)
(-2.93112e-10 -9.03712e-11 2.21453e-12)
(-3.40632e-10 -1.34674e-10 1.23084e-12)
(-3.92644e-10 -2.01859e-10 -2.29373e-12)
(-4.4249e-10 -2.98288e-10 -1.15475e-11)
(-4.75365e-10 -4.057e-10 -2.79562e-11)
(-3.65746e-11 -2.35164e-12 1.88759e-13)
(-1.06073e-10 -6.99504e-12 5.598e-13)
(-1.69709e-10 -1.17772e-11 9.3561e-13)
(-2.29779e-10 -1.71999e-11 1.34755e-12)
(-2.88409e-10 -2.38461e-11 1.82502e-12)
(-3.47693e-10 -3.24794e-11 2.39701e-12)
(-4.09818e-10 -4.41821e-11 3.09235e-12)
(-4.77206e-10 -6.05646e-11 3.93762e-12)
(-5.52614e-10 -8.40852e-11 4.94942e-12)
(-6.39194e-10 -1.1854e-10 6.11326e-12)
(-7.40342e-10 -1.69786e-10 7.32819e-12)
(-8.59083e-10 -2.46651e-10 8.26545e-12)
(-9.96349e-10 -3.61666e-10 8.03505e-12)
(-1.14691e-09 -5.2956e-10 4.52258e-12)
(-1.291e-09 -7.55213e-10 -6.17556e-12)
(-1.38237e-09 -9.79734e-10 -2.5227e-11)
(-6.00104e-11 -3.69731e-12 3.04e-13)
(-1.73988e-10 -1.09817e-11 9.0158e-13)
(-2.78194e-10 -1.84275e-11 1.50672e-12)
(-3.76302e-10 -2.67768e-11 2.17061e-12)
(-4.71686e-10 -3.68694e-11 2.94252e-12)
(-5.67618e-10 -4.97764e-11 3.87385e-12)
(-6.67475e-10 -6.69763e-11 5.02217e-12)
(-7.74923e-10 -9.06172e-11 6.45608e-12)
(-8.94087e-10 -1.23884e-10 8.2606e-12)
(-1.02962e-09 -1.71559e-10 1.05478e-11)
(-1.18656e-09 -2.40728e-10 1.34697e-11)
(-1.3695e-09 -3.415e-10 1.72406e-11)
(-1.58038e-09 -4.86795e-10 2.21631e-11)
(-1.81293e-09 -6.88153e-10 2.86203e-11)
(-2.04016e-09 -9.38147e-10 3.66917e-11)
(-2.19219e-09 -1.15671e-09 4.38797e-11)
(-8.21323e-11 -4.75007e-12 4.04403e-13)
(-2.38029e-10 -1.40744e-11 1.19903e-12)
(-3.80258e-10 -2.35027e-11 2.00311e-12)
(-5.13669e-10 -3.38986e-11 2.88534e-12)
(-6.42661e-10 -4.62027e-11 3.91367e-12)
(-7.7142e-10 -6.15602e-11 5.16292e-12)
(-9.04158e-10 -8.1486e-11 6.72506e-12)
(-1.04533e-09 -1.08071e-10 8.72488e-12)
(-1.1998e-09 -1.44283e-10 1.13504e-11)
(-1.37291e-09 -1.9434e-10 1.49093e-11)
(-1.57033e-09 -2.64156e-10 1.99408e-11)
(-1.79724e-09 -3.61557e-10 2.74145e-11)
(-2.05608e-09 -4.955e-10 3.90335e-11)
(-2.34078e-09 -6.71672e-10 5.73613e-11)
(-2.6226e-09 -8.77853e-10 8.41031e-11)
(-2.82016e-09 -1.04621e-09 1.10825e-10)
(-1.02545e-10 -5.45434e-12 4.85512e-13)
(-2.97044e-10 -1.61115e-11 1.43871e-12)
(-4.74036e-10 -2.67369e-11 2.40151e-12)
(-6.39302e-10 -3.81918e-11 3.456e-12)
(-7.98007e-10 -5.13628e-11 4.68541e-12)
(-9.54945e-10 -6.72491e-11 6.18464e-12)
(-1.11478e-09 -8.70707e-11 8.07733e-12)
(-1.28224e-09 -1.1236e-10 1.05419e-11)
(-1.46226e-09 -1.45086e-10 1.38645e-11)
(-1.65995e-09 -1.87737e-10 1.85347e-11)
(-1.88038e-09 -2.43334e-10 2.54217e-11)
(-2.12777e-09 -3.15244e-10 3.60641e-11)
(-2.40337e-09 -4.06431e-10 5.30093e-11)
(-2.70016e-09 -5.17286e-10 7.96378e-11)
(-2.98896e-09 -6.39088e-10 1.17043e-10)
(-3.18809e-09 -7.35273e-10 1.51851e-10)
(-1.20945e-10 -5.79876e-12 5.44198e-13)
(-3.50163e-10 -1.70688e-11 1.61148e-12)
(-5.58151e-10 -2.81108e-11 2.68534e-12)
(-7.51363e-10 -3.96861e-11 3.85629e-12)
(-9.35467e-10 -5.25027e-11 5.21637e-12)
(-1.11556e-09 -6.72646e-11 6.87336e-12)
(-1.29642e-09 -8.46771e-11 8.96966e-12)
(-1.4826e-09 -1.05434e-10 1.17182e-11)
(-1.6785e-09 -1.30107e-10 1.54641e-11)
(-1.88824e-09 -1.58929e-10 2.08006e-11)
(-2.11521e-09 -1.91371e-10 2.87678e-11)
(-2.36121e-09 -2.25519e-10 4.1155e-11)
(-2.62447e-09 -2.57481e-10 6.07864e-11)
(-2.8956e-09 -2.81884e-10 9.10577e-11)
(-3.14778e-09 -2.95756e-10 1.32035e-10)
(-3.31544e-09 -3.04466e-10 1.67813e-10)
(-1.37131e-10 -5.81218e-12 5.79282e-13)
(-3.96813e-10 -1.70368e-11 1.71303e-12)
(-6.31734e-10 -2.78169e-11 2.84713e-12)
(-8.48771e-10 -3.87416e-11 4.07351e-12)
(-1.05385e-09 -5.02782e-11 5.48549e-12)
(-1.25214e-09 -6.27669e-11 7.19263e-12)
(-1.44823e-09 -7.63479e-11 9.33936e-12)
(-1.64622e-09 -9.08392e-11 1.21416e-11)
(-1.84963e-09 -1.05468e-10 1.59487e-11)
(-2.06113e-09 -1.1841e-10 2.13544e-11)
(-2.28196e-09 -1.26041e-10 2.93854e-11)
(-2.51073e-09 -1.21868e-10 4.17888e-11)
(-2.7415e-09 -9.54873e-11 6.13229e-11)
(-2.96086e-09 -3.3465e-11 9.1422e-11)
(-3.14462e-09 7.05935e-11 1.32576e-10)
(-3.25751e-09 1.78696e-10 1.69227e-10)
(-1.50994e-10 -5.54911e-12 5.91223e-13)
(-4.36702e-10 -1.6192e-11 1.74502e-12)
(-6.94391e-10 -2.61882e-11 2.88943e-12)
(-9.31138e-10 -3.59272e-11 4.11098e-12)
(-1.15293e-09 -4.56327e-11 5.49716e-12)
(-1.36481e-09 -5.52919e-11 7.14654e-12)
(-1.57105e-09 -6.45655e-11 9.18833e-12)
(-1.77512e-09 -7.25842e-11 1.1811e-11)
(-1.97962e-09 -7.76284e-11 1.53138e-11)
(-2.18582e-09 -7.65981e-11 2.01933e-11)
(-2.39301e-09 -6.42131e-11 2.72903e-11)
(-2.59716e-09 -3.18737e-11 3.80129e-11)
(-2.78873e-09 3.36854e-11 5.4631e-11)
(-2.94903e-09 1.51043e-10 8.04141e-11)
(-3.04576e-09 3.38332e-10 1.18228e-10)
(-3.04408e-09 5.68352e-10 1.60622e-10)
(-1.23563e-11 -8.89876e-13 5.36705e-14)
(-3.58333e-11 -2.65129e-12 1.58096e-13)
(-5.73291e-11 -4.47811e-12 2.60448e-13)
(-7.76238e-11 -6.5701e-12 3.6635e-13)
(-9.74406e-11 -9.16123e-12 4.7871e-13)
(-1.17489e-10 -1.25594e-11 5.96213e-13)
(-1.38504e-10 -1.72021e-11 7.10184e-13)
(-1.61292e-10 -2.37418e-11 7.98429e-13)
(-1.86751e-10 -3.31714e-11 8.12893e-13)
(-2.15869e-10 -4.70224e-11 6.56132e-13)
(-2.4964e-10 -6.76474e-11 1.33533e-13)
(-2.88783e-10 -9.85936e-11 -1.14234e-12)
(-3.33103e-10 -1.44955e-10 -3.93327e-12)
(-3.80248e-10 -2.13108e-10 -9.63444e-12)
(-4.23873e-10 -3.07035e-10 -2.01271e-11)
(-4.52231e-10 -4.07626e-10 -3.41871e-11)
(-3.67168e-11 -2.58943e-12 1.58131e-13)
(-1.0647e-10 -7.71045e-12 4.65926e-13)
(-1.70299e-10 -1.30027e-11 7.67751e-13)
(-2.30487e-10 -1.90323e-11 1.08068e-12)
(-2.89139e-10 -2.64525e-11 1.41418e-12)
(-3.48307e-10 -3.61121e-11 1.76646e-12)
(-4.10107e-10 -4.92069e-11 2.11688e-12)
(-4.76833e-10 -6.74939e-11 2.41042e-12)
(-5.51033e-10 -9.36175e-11 2.52905e-12)
(-6.35498e-10 -1.3159e-10 2.23838e-12)
(-7.33025e-10 -1.87434e-10 1.08648e-12)
(-8.45653e-10 -2.69888e-10 -1.78237e-12)
(-9.72813e-10 -3.9052e-10 -7.94274e-12)
(-1.10752e-09 -5.61014e-10 -2.00272e-11)
(-1.23008e-09 -7.80226e-10 -4.10428e-11)
(-1.30312e-09 -9.87674e-10 -6.73116e-11)
(-6.02383e-11 -4.0765e-12 2.55024e-13)
(-1.74622e-10 -1.2118e-11 7.5133e-13)
(-2.79131e-10 -2.03716e-11 1.23849e-12)
(-3.77416e-10 -2.96758e-11 1.74493e-12)
(-4.72811e-10 -4.09767e-11 2.28844e-12)
(-5.68519e-10 -5.54741e-11 2.87206e-12)
(-6.6779e-10 -7.48149e-11 3.47548e-12)
(-7.74078e-10 -1.01351e-10 4.03729e-12)
(-8.9114e-10 -1.38537e-10 4.42722e-12)
(-1.02302e-09 -1.91433e-10 4.39506e-12)
(-1.17367e-09 -2.6734e-10 3.48996e-12)
(-1.34594e-09 -3.76175e-10 9.27174e-13)
(-1.53898e-09 -5.29514e-10 -4.59551e-12)
(-1.7429e-09 -7.34974e-10 -1.50238e-11)
(-1.92966e-09 -9.78091e-10 -3.22732e-11)
(-2.04412e-09 -1.17811e-09 -5.3025e-11)
(-8.24321e-11 -5.24526e-12 3.39735e-13)
(-2.38859e-10 -1.55579e-11 1.00096e-12)
(-3.81474e-10 -2.60344e-11 1.65022e-12)
(-5.1509e-10 -3.76588e-11 2.3268e-12)
(-6.4405e-10 -5.15014e-11 3.05814e-12)
(-7.72436e-10 -6.88646e-11 3.85729e-12)
(-9.04282e-10 -9.14512e-11 4.71556e-12)
(-1.04374e-09 -1.21595e-10 5.5917e-12)
(-1.19514e-09 -1.62545e-10 6.39311e-12)
(-1.36297e-09 -2.18825e-10 6.95263e-12)
(-1.55135e-09 -2.96539e-10 6.99415e-12)
(-1.76292e-09 -4.03307e-10 6.0871e-12)
(-1.99602e-09 -5.46747e-10 3.55462e-12)
(-2.2391e-09 -7.28916e-10 -1.73136e-12)
(-2.46115e-09 -9.31512e-10 -1.15491e-11)
(-2.60101e-09 -1.08661e-09 -2.57111e-11)
(-1.029e-10 -6.03628e-12 4.08584e-13)
(-2.98023e-10 -1.7854e-11 1.20361e-12)
(-4.75453e-10 -2.96991e-11 1.98356e-12)
(-6.40922e-10 -4.25699e-11 2.79694e-12)
(-7.99519e-10 -5.74919e-11 3.68043e-12)
(-9.55903e-10 -7.56331e-11 4.65889e-12)
(-1.11451e-09 -9.83995e-11 5.74109e-12)
(-1.27969e-09 -1.27567e-10 6.91778e-12)
(-1.4557e-09 -1.65371e-10 8.15646e-12)
(-1.64656e-09 -2.14572e-10 9.40463e-12)
(-1.85544e-09 -2.78382e-10 1.05968e-11)
(-2.08338e-09 -3.60038e-10 1.16487e-11)
(-2.32653e-09 -4.61599e-10 1.23412e-11)
(-2.57091e-09 -5.8103e-10 1.18195e-11)
(-2.78389e-09 -7.05526e-10 7.53706e-12)
(-2.90744e-09 -7.97487e-10 -3.0601e-12)
(-1.21339e-10 -6.43702e-12 4.58928e-13)
(-3.5124e-10 -1.89729e-11 1.35092e-12)
(-5.59689e-10 -3.13384e-11 2.22403e-12)
(-7.53077e-10 -4.44286e-11 3.13224e-12)
(-9.36975e-10 -5.9098e-11 4.11925e-12)
(-1.11633e-09 -7.62027e-11 5.21861e-12)
(-1.29563e-09 -9.66361e-11 6.45548e-12)
(-1.47901e-09 -1.21295e-10 7.84746e-12)
(-1.6701e-09 -1.5099e-10 9.41513e-12)
(-1.87178e-09 -1.86186e-10 1.11989e-11)
(-2.08537e-09 -2.26541e-10 1.329e-11)
(-2.3092e-09 -2.70193e-10 1.58375e-11)
(-2.53598e-09 -3.13034e-10 1.88831e-11)
(-2.74885e-09 -3.49048e-10 2.16247e-11)
(-2.91679e-09 -3.73918e-10 2.07793e-11)
(-2.99787e-09 -3.90299e-10 1.18969e-11)
(-1.37547e-10 -6.47446e-12 4.89359e-13)
(-3.97944e-10 -1.90112e-11 1.43909e-12)
(-6.33325e-10 -3.11492e-11 2.36409e-12)
(-8.50492e-10 -4.36112e-11 3.32004e-12)
(-1.05526e-09 -5.7003e-11 4.35303e-12)
(-1.25263e-09 -7.17986e-11 5.49955e-12)
(-1.4469e-09 -8.83042e-11 6.7917e-12)
(-1.64168e-09 -1.06511e-10 8.26108e-12)
(-1.83973e-09 -1.2584e-10 9.95266e-12)
(-2.04247e-09 -1.4466e-10 1.19505e-11)
(-2.24909e-09 -1.59543e-10 1.44181e-11)
(-2.4549e-09 -1.64225e-10 1.76246e-11)
(-2.6489e-09 -1.48762e-10 2.18345e-11)
(-2.81108e-09 -1.0086e-10 2.66806e-11)
(-2.914e-09 -1.59073e-11 2.94798e-11)
(-2.9442e-09 7.14192e-11 2.48836e-11)
(-1.51418e-10 -6.20727e-12 5.00225e-13)
(-4.37849e-10 -1.81526e-11 1.46889e-12)
(-6.95981e-10 -2.94838e-11 2.40481e-12)
(-9.32804e-10 -4.07207e-11 3.36128e-12)
(-1.15419e-09 -5.2199e-11 4.37992e-12)
(-1.36501e-09 -6.4039e-11 5.49507e-12)
(-1.56923e-09 -7.60298e-11 6.7338e-12)
(-1.76987e-09 -8.74481e-11 8.12306e-12)
(-1.96878e-09 -9.67266e-11 9.70041e-12)
(-2.1661e-09 -1.00929e-10 1.15361e-11)
(-2.35933e-09 -9.49655e-11 1.37667e-11)
(-2.54172e-09 -7.05717e-11 1.66363e-11)
(-2.69977e-09 -1.5288e-11 2.04913e-11)
(-2.81011e-09 8.73881e-11 2.5638e-11)
(-2.83904e-09 2.51649e-10 3.19955e-11)
(-2.76974e-09 4.51331e-10 3.85306e-11)
(-1.23854e-11 -9.6515e-13 4.24757e-14)
(-3.59119e-11 -2.87766e-12 1.24046e-13)
(-5.74366e-11 -4.86611e-12 2.00492e-13)
(-7.7731e-11 -7.15091e-12 2.72976e-13)
(-9.75064e-11 -9.98741e-12 3.38184e-13)
(-1.17452e-10 -1.3709e-11 3.85308e-13)
(-1.38276e-10 -1.87856e-11 3.90481e-13)
(-1.60735e-10 -2.5905e-11 3.06403e-13)
(-1.85661e-10 -3.60993e-11 4.46942e-14)
(-2.13945e-10 -5.09227e-11 -5.55192e-13)
(-2.46455e-10 -7.27015e-11 -1.77746e-12)
(-2.83784e-10 -1.04831e-10 -4.11028e-12)
(-3.25713e-10 -1.52001e-10 -8.34579e-12)
(-3.70236e-10 -2.19837e-10 -1.55942e-11)
(-4.12171e-10 -3.11579e-10 -2.66974e-11)
(-4.41359e-10 -4.0919e-10 -3.90473e-11)
(-3.6802e-11 -2.81013e-12 1.25261e-13)
(-1.06699e-10 -8.37193e-12 3.65805e-13)
(-1.7061e-10 -1.41376e-11 5.91709e-13)
(-2.30794e-10 -2.07292e-11 8.06668e-13)
(-2.89318e-10 -2.88625e-11 1.00201e-12)
(-3.48176e-10 -3.9462e-11 1.14833e-12)
(-4.09396e-10 -5.38118e-11 1.17996e-12)
(-4.75132e-10 -7.37736e-11 9.67777e-13)
(-5.47724e-10 -1.02101e-10 2.72306e-13)
(-6.29661e-10 -1.42871e-10 -1.33557e-12)
(-7.23334e-10 -2.02039e-10 -4.60016e-12)
(-8.30324e-10 -2.87914e-10 -1.07628e-11)
(-9.4981e-10 -4.10935e-10 -2.17412e-11)
(-1.0755e-09 -5.8068e-10 -3.99874e-11)
(-1.19075e-09 -7.93838e-10 -6.67497e-11)
(-1.26327e-09 -9.92495e-10 -9.4623e-11)
(-6.03738e-11 -4.42732e-12 2.02218e-13)
(-1.74985e-10 -1.3172e-11 5.90942e-13)
(-2.7962e-10 -2.21761e-11 9.56602e-13)
(-3.77885e-10 -3.23678e-11 1.30672e-12)
(-4.73055e-10 -4.47906e-11 1.63033e-12)
(-5.68236e-10 -6.07589e-11 1.88653e-12)
(-6.66529e-10 -8.20514e-11 1.98256e-12)
(-7.71152e-10 -1.11188e-10 1.73847e-12)
(-8.8551e-10 -1.51775e-10 8.2324e-13)
(-1.01311e-09 -2.08996e-10 -1.34153e-12)
(-1.15719e-09 -2.90055e-10 -5.73253e-12)
(-1.31965e-09 -4.04298e-10 -1.39121e-11)
(-1.49889e-09 -5.61758e-10 -2.81579e-11)
(-1.68556e-09 -7.67224e-10 -5.10969e-11)
(-1.85605e-09 -1.00336e-09 -8.33972e-11)
(-1.96477e-09 -1.19255e-09 -1.15348e-10)
(-8.2609e-11 -5.70551e-12 2.69973e-13)
(-2.3933e-10 -1.69383e-11 7.89058e-13)
(-3.82097e-10 -2.83921e-11 1.27835e-12)
(-5.15665e-10 -4.11653e-11 1.74993e-12)
(-6.44289e-10 -5.64514e-11 2.1942e-12)
(-7.7192e-10 -7.56912e-11 2.56652e-12)
(-9.02384e-10 -1.0076e-10 2.76518e-12)
(-1.0395e-09 -1.34183e-10 2.59157e-12)
(-1.18713e-09 -1.79422e-10 1.68841e-12)
(-1.34896e-09 -2.41152e-10 -5.58774e-13)
(-1.52807e-09 -3.25451e-10 -5.1605e-12)
(-1.72561e-09 -4.39412e-10 -1.36961e-11)
(-1.9385e-09 -5.89183e-10 -2.84155e-11)
(-2.15526e-09 -7.74061e-10 -5.18747e-11)
(-2.35026e-09 -9.72837e-10 -8.47116e-11)
(-2.47672e-09 -1.11989e-09 -1.17313e-10)
(-1.03107e-10 -6.5795e-12 3.25436e-13)
(-2.98569e-10 -1.94789e-11 9.5113e-13)
(-4.76162e-10 -3.2469e-11 1.5417e-12)
(-6.41539e-10 -4.66745e-11 2.11381e-12)
(-7.99681e-10 -6.32612e-11 2.66148e-12)
(-9.55083e-10 -8.3546e-11 3.14271e-12)
(-1.11192e-09 -1.09132e-10 3.46e-12)
(-1.27415e-09 -1.42003e-10 3.42156e-12)
(-1.4454e-09 -1.84641e-10 2.68823e-12)
(-1.62877e-09 -2.40032e-10 6.84475e-13)
(-1.82604e-09 -3.11483e-10 -3.52727e-12)
(-2.03637e-09 -4.01996e-10 -1.14145e-11)
(-2.25382e-09 -5.12709e-10 -2.51303e-11)
(-2.46383e-09 -6.39608e-10 -4.73294e-11)
(-2.63934e-09 -7.67195e-10 -7.92332e-11)
(-2.74037e-09 -8.57374e-10 -1.1204e-10)
(-1.21565e-10 -7.03329e-12 3.66306e-13)
(-3.51833e-10 -2.07577e-11 1.07057e-12)
(-5.60438e-10 -3.43696e-11 1.73465e-12)
(-7.5368e-10 -4.89048e-11 2.37927e-12)
(-9.37005e-10 -6.5355e-11 3.00202e-12)
(-1.11517e-09 -8.47413e-11 3.56741e-12)
(-1.29238e-09 -1.08142e-10 3.98675e-12)
(-1.47229e-09 -1.36691e-10 4.08988e-12)
(-1.65789e-09 -1.71461e-10 3.57543e-12)
(-1.85099e-09 -2.13219e-10 1.93988e-12)
(-2.05141e-09 -2.61916e-10 -1.63497e-12)
(-2.25539e-09 -3.15905e-10 -8.4492e-12)
(-2.45331e-09 -3.71079e-10 -2.05016e-11)
(-2.6272e-09 -4.20887e-10 -4.0534e-11)
(-2.75104e-09 -4.59149e-10 -7.05442e-11)
(-2.80174e-09 -4.84044e-10 -1.03224e-10)
(-1.37783e-10 -7.09664e-12 3.9157e-13)
(-3.98555e-10 -2.08689e-11 1.14348e-12)
(-6.34075e-10 -3.42969e-11 1.85031e-12)
(-8.51041e-10 -4.82401e-11 2.53434e-12)
(-1.05514e-09 -6.34376e-11 3.19531e-12)
(-1.25115e-09 -8.05293e-11 3.80335e-12)
(-1.44307e-09 -1.00001e-10 4.28024e-12)
(-1.63406e-09 -1.22077e-10 4.47682e-12)
(-1.82617e-09 -1.46462e-10 4.13396e-12)
(-2.01982e-09 -1.71891e-10 2.82428e-12)
(-2.21272e-09 -1.95413e-10 -1.37096e-13)
(-2.3983e-09 -2.1145e-10 -5.8265e-12)
(-2.56346e-09 -2.11063e-10 -1.58977e-11)
(-2.68743e-09 -1.83262e-10 -3.26597e-11)
(-2.74756e-09 -1.23617e-10 -5.80282e-11)
(-2.74742e-09 -5.95307e-11 -8.67716e-11)
(-1.51655e-10 -6.82909e-12 4.01254e-13)
(-4.38457e-10 -2.00045e-11 1.16989e-12)
(-6.96704e-10 -3.26147e-11 1.88827e-12)
(-9.33278e-10 -4.53023e-11 2.5765e-12)
(-1.15391e-09 -5.85426e-11 3.23566e-12)
(-1.36326e-09 -7.25945e-11 3.8365e-12)
(-1.565e-09 -8.74271e-11 4.30883e-12)
(-1.7617e-09 -1.02536e-10 4.51962e-12)
(-1.95457e-09 -1.16641e-10 4.2428e-12)
(-2.14286e-09 -1.272e-10 3.11404e-12)
(-2.32285e-09 -1.29713e-10 5.68486e-13)
(-2.4863e-09 -1.16852e-10 -4.2405e-12)
(-2.6184e-09 -7.7751e-11 -1.24939e-11)
(-2.69604e-09 1.54713e-12 -2.54943e-11)
(-2.69097e-09 1.32632e-10 -4.32152e-11)
(-2.60168e-09 2.9455e-10 -5.93234e-11)
(-1.24006e-11 -1.03069e-12 3.14745e-14)
(-3.59497e-11 -3.07434e-12 9.09536e-14)
(-5.7478e-11 -5.20395e-12 1.43697e-13)
(-7.77471e-11 -7.65634e-12 1.87541e-13)
(-9.74543e-11 -1.07054e-11 2.15099e-13)
(-1.1727e-10 -1.4706e-11 2.09704e-13)
(-1.37874e-10 -2.01504e-11 1.38276e-13)
(-1.59987e-10 -2.77528e-11 -6.05157e-14)
(-1.84395e-10 -3.85631e-11 -4.96746e-13)
(-2.11944e-10 -5.41349e-11 -1.36095e-12)
(-2.43484e-10 -7.67446e-11 -2.971e-12)
(-2.7969e-10 -1.09646e-10 -5.82845e-12)
(-3.20653e-10 -1.57273e-10 -1.06493e-11)
(-3.65098e-10 -2.24966e-10 -1.82412e-11)
(-4.08967e-10 -3.16063e-10 -2.8817e-11)
(-4.42107e-10 -4.13572e-10 -3.94831e-11)
(-3.68456e-11 -3.00177e-12 9.2854e-14)
(-1.06807e-10 -8.94888e-12 2.68617e-13)
(-1.70727e-10 -1.51266e-11 4.24703e-13)
(-2.30833e-10 -2.2208e-11 5.55495e-13)
(-2.89152e-10 -3.09622e-11 6.40275e-13)
(-3.4762e-10 -4.23732e-11 6.31962e-13)
(-4.08182e-10 -5.77947e-11 4.37695e-13)
(-4.72882e-10 -7.91623e-11 -1.14415e-13)
(-5.43917e-10 -1.09286e-10 -1.33126e-12)
(-6.23629e-10 -1.52251e-10 -3.73978e-12)
(-7.14323e-10 -2.13873e-10 -8.21007e-12)
(-8.17741e-10 -3.02071e-10 -1.60882e-11)
(-9.3383e-10 -4.26524e-10 -2.92255e-11)
(-1.0582e-09 -5.95857e-10 -4.9513e-11)
(-1.1772e-09 -8.06561e-10 -7.6837e-11)
(-1.25875e-09 -1.003e-09 -1.02744e-10)
(-6.04425e-11 -4.73385e-12 1.50256e-13)
(-1.75154e-10 -1.40917e-11 4.34705e-13)
(-2.79797e-10 -2.37518e-11 6.8843e-13)
(-3.77927e-10 -3.47205e-11 9.03705e-13)
(-4.72752e-10 -4.81248e-11 1.05022e-12)
(-5.67284e-10 -6.53721e-11 1.05824e-12)
(-6.64486e-10 -8.8356e-11 7.91298e-13)
(-7.67389e-10 -1.19705e-10 -3.79457e-15)
(-8.79153e-10 -1.63141e-10 -1.77251e-12)
(-1.00301e-09 -2.23864e-10 -5.27403e-12)
(-1.14197e-09 -3.08929e-10 -1.17399e-11)
(-1.29805e-09 -4.27142e-10 -2.30334e-11)
(-1.47054e-09 -5.8745e-10 -4.16117e-11)
(-1.65274e-09 -7.93113e-10 -6.97268e-11)
(-1.82551e-09 -1.02597e-09 -1.06446e-10)
(-1.94457e-09 -1.21081e-09 -1.39581e-10)
(-8.2697e-11 -6.10786e-12 2.00981e-13)
(-2.39544e-10 -1.8145e-11 5.81905e-13)
(-3.8231e-10 -3.04567e-11 9.23206e-13)
(-5.1568e-10 -4.42418e-11 1.21706e-12)
(-6.43819e-10 -6.07995e-11 1.42801e-12)
(-7.70548e-10 -8.16946e-11 1.47399e-12)
(-8.99506e-10 -1.08943e-10 1.19324e-12)
(-1.03425e-09 -1.45232e-10 2.89321e-13)
(-1.17829e-09 -1.94174e-10 -1.75689e-12)
(-1.33492e-09 -2.60547e-10 -5.8192e-12)
(-1.50678e-09 -3.50331e-10 -1.33028e-11)
(-1.69497e-09 -4.70158e-10 -2.63074e-11)
(-1.89724e-09 -6.25084e-10 -4.75626e-11)
(-2.10502e-09 -8.12682e-10 -7.94843e-11)
(-2.29842e-09 -1.01029e-09 -1.20789e-10)
(-2.43406e-09 -1.15374e-09 -1.57633e-10)
(-1.03208e-10 -7.05484e-12 2.42854e-13)
(-2.9881e-10 -2.09055e-11 7.03642e-13)
(-4.76384e-10 -3.49035e-11 1.11796e-12)
(-6.41498e-10 -5.02931e-11 1.47948e-12)
(-7.9902e-10 -6.83586e-11 1.75159e-12)
(-9.53287e-10 -9.05657e-11 1.84912e-12)
(-1.10825e-09 -1.18675e-10 1.60214e-12)
(-1.26753e-09 -1.54878e-10 7.0368e-13)
(-1.43434e-09 -2.01869e-10 -1.38182e-12)
(-1.61124e-09 -2.6283e-10 -5.54946e-12)
(-1.79946e-09 -3.41169e-10 -1.32344e-11)
(-1.99785e-09 -4.39725e-10 -2.65922e-11)
(-2.20114e-09 -5.58957e-10 -4.84759e-11)
(-2.39761e-09 -6.93405e-10 -8.15539e-11)
(-2.56654e-09 -8.25463e-10 -1.24831e-10)
(-2.67333e-09 -9.15825e-10 -1.64004e-10)
(-1.21673e-10 -7.55818e-12 2.74207e-13)
(-3.52084e-10 -2.23281e-11 7.94391e-13)
(-5.60647e-10 -3.70465e-11 1.26331e-12)
(-7.53562e-10 -5.28697e-11 1.67597e-12)
(-9.36147e-10 -7.09249e-11 1.99809e-12)
(-1.11298e-09 -9.2382e-11 2.14617e-12)
(-1.28801e-09 -1.18509e-10 1.95678e-12)
(-1.46453e-09 -1.50664e-10 1.13329e-12)
(-1.64506e-09 -1.90205e-10 -8.34366e-13)
(-1.83081e-09 -2.38223e-10 -4.79587e-12)
(-2.02099e-09 -2.95031e-10 -1.21126e-11)
(-2.21145e-09 -3.5931e-10 -2.48499e-11)
(-2.39309e-09 -4.27085e-10 -4.58291e-11)
(-2.55067e-09 -4.91286e-10 -7.79502e-11)
(-2.66429e-09 -5.43518e-10 -1.21008e-10)
(-2.71684e-09 -5.76801e-10 -1.61639e-10)
(-1.37892e-10 -7.64534e-12 2.93855e-13)
(-3.98803e-10 -2.25102e-11 8.5113e-13)
(-6.34255e-10 -3.70875e-11 1.35313e-12)
(-8.50838e-10 -5.23609e-11 1.79612e-12)
(-1.0541e-09 -6.92092e-11 2.14892e-12)
(-1.24863e-09 -8.84191e-11 2.33298e-12)
(-1.43817e-09 -1.10677e-10 2.19723e-12)
(-1.62549e-09 -1.36455e-10 1.4704e-12)
(-1.81219e-09 -1.6579e-10 -3.09583e-13)
(-1.9981e-09 -1.97865e-10 -3.90308e-12)
(-2.18038e-09 -2.30345e-10 -1.0517e-11)
(-2.35217e-09 -2.58496e-10 -2.19742e-11)
(-2.50111e-09 -2.74485e-10 -4.07727e-11)
(-2.60935e-09 -2.68334e-10 -6.957e-11)
(-2.66038e-09 -2.34751e-10 -1.08595e-10)
(-2.66284e-09 -1.9293e-10 -1.46869e-10)
(-1.51762e-10 -7.37832e-12 3.01725e-13)
(-4.38692e-10 -2.1648e-11 8.7353e-13)
(-6.96848e-10 -3.54013e-11 1.3861e-12)
(-9.32995e-10 -4.94092e-11 1.8368e-12)
(-1.15272e-09 -6.42692e-11 2.19522e-12)
(-1.36051e-09 -8.03991e-11 2.39038e-12)
(-1.55976e-09 -9.79576e-11 2.28497e-12)
(-1.75271e-09 -1.16698e-10 1.6379e-12)
(-1.94013e-09 -1.35698e-10 4.56967e-14)
(-2.12077e-09 -1.52928e-10 -3.14162e-12)
(-2.2905e-09 -1.64647e-10 -8.9311e-12)
(-2.44108e-09 -1.6468e-10 -1.87893e-11)
(-2.55879e-09 -1.43862e-10 -3.46085e-11)
(-2.62404e-09 -9.04336e-11 -5.81046e-11)
(-2.61572e-09 5.76329e-12 -8.84354e-11)
(-2.53859e-09 1.30149e-10 -1.1556e-10)
(-1.24067e-11 -1.0832e-12 2.1317e-14)
(-3.5962e-11 -3.23235e-12 6.09862e-14)
(-5.74809e-11 -5.4748e-12 9.39354e-14)
(-7.77152e-11 -8.06151e-12 1.16698e-13)
(-9.73505e-11 -1.12806e-11 1.20746e-13)
(-1.17041e-10 -1.55023e-11 8.85457e-14)
(-1.37447e-10 -2.12371e-11 -1.30787e-14)
(-1.59265e-10 -2.92145e-11 -2.44332e-13)
(-1.83263e-10 -4.04954e-11 -7.10605e-13)
(-2.10288e-10 -5.66268e-11 -1.58962e-12)
(-2.41256e-10 -7.98439e-11 -3.16728e-12)
(-2.7704e-10 -1.13316e-10 -5.87091e-12)
(-3.18167e-10 -1.61366e-10 -1.02619e-11)
(-3.64114e-10 -2.29324e-10 -1.6881e-11)
(-4.11619e-10 -3.20889e-10 -2.56686e-11)
(-4.49795e-10 -4.19724e-10 -3.41489e-11)
(-3.68629e-11 -3.15594e-12 6.29996e-14)
(-1.06841e-10 -9.41134e-12 1.80218e-13)
(-1.70732e-10 -1.59201e-11 2.78058e-13)
(-2.30732e-10 -2.33945e-11 3.46624e-13)
(-2.88836e-10 -3.26454e-11 3.61684e-13)
(-3.46931e-10 -4.47036e-11 2.73459e-13)
(-4.06901e-10 -6.09742e-11 -1.21799e-14)
(-4.70719e-10 -8.34412e-11 -6.65885e-13)
(-5.40522e-10 -1.14952e-10 -1.98482e-12)
(-6.18644e-10 -1.59575e-10 -4.46862e-12)
(-7.07551e-10 -2.23025e-10 -8.91434e-12)
(-8.09508e-10 -3.12967e-10 -1.64973e-11)
(-9.25627e-10 -4.38709e-10 -2.87112e-11)
(-1.05349e-09 -6.08623e-10 -4.68409e-11)
(-1.18139e-09 -8.19638e-10 -7.02036e-11)
(-1.2749e-09 -1.0173e-09 -9.14215e-11)
(-6.04687e-11 -4.97975e-12 1.02032e-13)
(-1.75204e-10 -1.48304e-11 2.92262e-13)
(-2.79794e-10 -2.50179e-11 4.52018e-13)
(-3.77748e-10 -3.66117e-11 5.66744e-13)
(-4.72216e-10 -5.08047e-11 6.00004e-13)
(-5.66132e-10 -6.90809e-11 4.77004e-13)
(-6.62359e-10 -9.34124e-11 5.59837e-14)
(-7.63806e-10 -1.2652e-10 -9.17738e-13)
(-8.73519e-10 -1.72188e-10 -2.88682e-12)
(-9.94691e-10 -2.35631e-10 -6.58875e-12)
(-1.13052e-09 -3.23775e-10 -1.31901e-11)
(-1.28371e-09 -4.4508e-10 -2.43822e-11)
(-1.45521e-09 -6.07881e-10 -4.22408e-11)
(-1.64104e-09 -8.14758e-10 -6.83438e-11)
(-1.82482e-09 -1.04741e-09 -1.01101e-10)
(-1.95889e-09 -1.23164e-09 -1.2946e-10)
(-8.27294e-11 -6.43137e-12 1.36824e-13)
(-2.39601e-10 -1.91165e-11 3.92318e-13)
(-3.82288e-10 -3.21195e-11 6.08501e-13)
(-5.15412e-10 -4.67216e-11 7.68279e-13)
(-6.43057e-10 -6.4309e-11 8.27613e-13)
(-7.68941e-10 -8.65446e-11 6.958e-13)
(-8.96564e-10 -1.15557e-10 2.01612e-13)
(-1.02932e-09 -1.54159e-10 -9.61547e-13)
(-1.17053e-09 -2.06084e-10 -3.32289e-12)
(-1.3234e-09 -2.76174e-10 -7.76017e-12)
(-1.49075e-09 -3.70363e-10 -1.56532e-11)
(-1.6744e-09 -4.94977e-10 -2.89907e-11)
(-1.87393e-09 -6.5441e-10 -5.01855e-11)
(-2.08405e-09 -8.45234e-10 -8.09923e-11)
(-2.28827e-09 -1.04389e-09 -1.19312e-10)
(-2.44002e-09 -1.18657e-09 -1.52018e-10)
(-1.03243e-10 -7.43849e-12 1.65816e-13)
(-2.98867e-10 -2.20554e-11 4.7575e-13)
(-4.76333e-10 -3.687e-11 7.40101e-13)
(-6.41132e-10 -5.32196e-11 9.40766e-13)
(-7.98036e-10 -7.24947e-11 1.0309e-12)
(-9.51254e-10 -9.62721e-11 9.12505e-13)
(-1.10457e-09 -1.26459e-10 4.02682e-13)
(-1.26139e-09 -1.65407e-10 -8.25963e-13)
(-1.42471e-09 -2.15997e-10 -3.33429e-12)
(-1.59694e-09 -2.81592e-10 -8.05017e-12)
(-1.77942e-09 -3.65714e-10 -1.64326e-11)
(-1.97174e-09 -4.71141e-10 -3.05976e-11)
(-2.17048e-09 -5.97918e-10 -5.31584e-11)
(-2.36737e-09 -7.39565e-10 -8.61298e-11)
(-2.54542e-09 -8.76738e-10 -1.27494e-10)
(-2.66727e-09 -9.68495e-10 -1.63174e-10)
(-1.21708e-10 -7.9819e-12 1.87633e-13)
(-3.52132e-10 -2.35985e-11 5.38956e-13)
(-5.60559e-10 -3.9214e-11 8.40081e-13)
(-7.53098e-10 -5.60911e-11 1.07386e-12)
(-9.34959e-10 -7.54665e-11 1.19341e-12)
(-1.11058e-09 -9.86415e-11 1.10138e-12)
(-1.2837e-09 -1.27045e-10 6.16115e-13)
(-1.45742e-09 -1.62239e-10 -5.83926e-13)
(-1.63398e-09 -2.05839e-10 -3.04766e-12)
(-1.81443e-09 -2.59251e-10 -7.67887e-12)