/*--------------------------------*- C++ -*----------------------------------*\
| =========                 |                                                 |
| \\      /  F ield         | foam-extend: Open Source CFD                    |
|  \\    /   O peration     | Version:     3.1                                |
|   \\  /    A nd           | Web:         http://www.extend-project.de       |
|    \\/     M anipulation  |                                                 |
\*---------------------------------------------------------------------------*/
FoamFile
{
    version     2.0;
    format      ascii;
    class       volScalarField;
    location    "3.1";
    object      p;
}
// * * * * * * * * * * * * * * * * * * * * * * * * * * * * * * * * * * * * * //

dimensions      [0 2 -2 0 0 0 0];

internalField   nonuniform List<scalar> 
14592
(
0.0249911
0.0248
0.0246108
0.0244426
0.0243067
0.0242111
0.0241612
0.0241568
0.0241902
0.0242441
0.0242892
0.02428
0.0241478
0.0237793
0.0230136
0.0219374
0.0250119
0.0248032
0.0246138
0.0244494
0.024315
0.0242186
0.0241667
0.0241607
0.0241945
0.024252
0.0243046
0.0243071
0.0241923
0.0238443
0.0230338
0.0216694
0.0250032
0.0247791
0.0245835
0.0244157
0.0242765
0.0241742
0.0241174
0.0241102
0.0241498
0.0242229
0.024304
0.0243507
0.0242959
0.0240147
0.0231856
0.0214747
0.0249662
0.0247283
0.024523
0.0243477
0.0241999
0.0240881
0.0240227
0.0240114
0.0240554
0.0241456
0.0242612
0.0243645
0.0243927
0.0242216
0.023457
0.0215125
0.0249012
0.0246521
0.0244371
0.024253
0.0240953
0.0239713
0.023893
0.0238708
0.02391
0.024007
0.0241471
0.0242998
0.0244122
0.0243751
0.0237635
0.0217289
0.0248099
0.0245518
0.0243277
0.0241341
0.0239648
0.0238258
0.0237291
0.0236863
0.0237061
0.0237891
0.0239272
0.0240982
0.0242653
0.0243487
0.0239481
0.021947
0.0246965
0.0244315
0.0241989
0.0239946
0.0238114
0.0236536
0.0235319
0.0234578
0.0234405
0.0234819
0.023577
0.023707
0.0238533
0.0239679
0.0237895
0.0218357
0.0245675
0.0242976
0.0240573
0.0238414
0.0236417
0.0234611
0.0233084
0.0231933
0.023123
0.0230962
0.023104
0.023114
0.0231088
0.0229852
0.0228699
0.0200134
0.0252213
0.0250217
0.0248318
0.0246723
0.0245545
0.024488
0.0244805
0.024535
0.024648
0.0248073
0.0249913
0.0251671
0.0252878
0.0252797
0.0250797
0.0248906
0.0252449
0.025026
0.0248349
0.0246791
0.0245631
0.0244961
0.0244867
0.0245398
0.0246536
0.0248175
0.0250105
0.0251999
0.0253398
0.0253498
0.0251537
0.0250463
0.0252383
0.0250031
0.0248055
0.024647
0.0245272
0.0244552
0.024442
0.0244956
0.0246181
0.0248029
0.0250334
0.0252806
0.0255011
0.0256085
0.0254849
0.0254736
0.0252006
0.0249516
0.0247443
0.024579
0.0244519
0.024372
0.0243524
0.0244046
0.0245359
0.0247454
0.0250235
0.0253491
0.0256884
0.0259551
0.025963
0.0260691
0.0251315
0.0248714
0.024654
0.0244803
0.0243443
0.0242538
0.0242232
0.024267
0.0243972
0.0246198
0.0249337
0.0253288
0.0257849
0.0262307
0.0264251
0.0266984
0.0250326
0.0247633
0.0245362
0.0243525
0.0242049
0.0240998
0.0240512
0.0240748
0.0241858
0.0243953
0.0247107
0.0251329
0.0256609
0.0262551
0.0266287
0.0270185
0.0249082
0.0246317
0.0243952
0.0241995
0.0240367
0.0239112
0.0238353
0.0238241
0.0238927
0.0240527
0.0243146
0.0246831
0.025174
0.0257869
0.0262437
0.0264577
0.0247657
0.0244839
0.0242385
0.0240291
0.0238471
0.023695
0.023583
0.023523
0.023527
0.0236014
0.0237491
0.0239567
0.0242291
0.024513
0.0247471
0.022922
0.0254437
0.0252373
0.0250487
0.0248994
0.0248013
0.0247652
0.0248009
0.0249141
0.0251045
0.0253641
0.0256752
0.0260112
0.0263339
0.0265856
0.0267181
0.026796
0.0254702
0.0252431
0.025052
0.0249066
0.0248106
0.0247742
0.0248081
0.0249201
0.025112
0.0253769
0.0256983
0.0260496
0.0263909
0.0266604
0.0268201
0.027015
0.0254656
0.0252218
0.025024
0.0248765
0.0247776
0.0247374
0.0247689
0.0248834
0.0250871
0.0253781
0.0257446
0.0261619
0.0265935
0.026975
0.0272464
0.0276079
0.0254274
0.02517
0.0249624
0.0248088
0.024704
0.0246577
0.0246851
0.0248014
0.0250187
0.0253417
0.0257671
0.0262797
0.0268521
0.0274001
0.0278357
0.028376
0.0253548
0.0250861
0.0248684
0.0247064
0.0245937
0.0245383
0.0245568
0.0246675
0.0248876
0.0252298
0.0257006
0.0262963
0.0270019
0.0277434
0.0283716
0.0291179
0.0252487
0.0249708
0.0247428
0.0245703
0.0244458
0.024376
0.024377
0.024468
0.0246696
0.0249998
0.0254748
0.0261027
0.0268866
0.0277721
0.0285422
0.0293779
0.025114
0.0248285
0.0245902
0.0244044
0.0242632
0.0241712
0.0241428
0.0241957
0.02435
0.024624
0.0250362
0.0255985
0.0263292
0.0271994
0.027939
0.0284394
0.0249585
0.0246672
0.0244188
0.0242174
0.0240541
0.0239318
0.023862
0.0238589
0.023938
0.0241104
0.0243855
0.0247539
0.0252174
0.0256884
0.0260137
0.0239784
0.025648
0.0254364
0.0252502
0.0251116
0.025033
0.0250261
0.0251025
0.02527
0.0255301
0.0258784
0.0262976
0.0267623
0.0272349
0.0276608
0.027981
0.0281542
0.0256772
0.0254439
0.025254
0.0251194
0.0250431
0.0250361
0.0251109
0.0252775
0.0255403
0.0258939
0.0263248
0.0268053
0.0272958
0.0277383
0.0280904
0.0283701
0.0256745
0.0254241
0.0252274
0.0250913
0.0250132
0.0250035
0.0250773
0.0252483
0.0255258
0.0259101
0.0263902
0.0269416
0.0275256
0.0280822
0.028552
0.0290016
0.0256363
0.0253723
0.0251659
0.0250242
0.0249413
0.0249272
0.0249992
0.0251751
0.0254703
0.025893
0.0264417
0.0271004
0.0278347
0.0285518
0.0291853
0.0298192
0.0255605
0.0252854
0.0250685
0.0249187
0.0248286
0.0248068
0.0248718
0.0250447
0.0253464
0.0257931
0.0263937
0.0271428
0.0280168
0.0289263
0.0297394
0.030567
0.0254481
0.0251637
0.024936
0.0247751
0.024673
0.0246369
0.0246847
0.0248385
0.0251222
0.0255579
0.0261641
0.0269471
0.0278997
0.028941
0.0298601
0.030745
0.0253039
0.0250116
0.0247729
0.0245975
0.0244771
0.0244171
0.0244335
0.0245463
0.0247787
0.0251522
0.025688
0.0263952
0.0272803
0.0282773
0.0290898
0.0295429
0.0251363
0.0248378
0.0245881
0.024395
0.02425
0.0241563
0.0241265
0.0241767
0.0243245
0.0245834
0.0249637
0.025452
0.0260366
0.0265875
0.0268791
0.024524
0.0258248
0.0256094
0.0254258
0.0252973
0.0252362
0.0252552
0.0253671
0.0255812
0.0259009
0.0263213
0.0268261
0.0273877
0.0279652
0.0285004
0.0289227
0.0291292
0.0258562
0.0256182
0.0254302
0.0253056
0.0252471
0.0252662
0.0253766
0.0255898
0.0259107
0.0263388
0.0268561
0.0274342
0.0280297
0.0285796
0.0290309
0.0293359
0.0258553
0.0256
0.025405
0.0252795
0.02522
0.0252373
0.025348
0.0255675
0.0259076
0.0263667
0.0269359
0.0275882
0.0282819
0.0289384
0.029502
0.0299703
0.025817
0.0255483
0.0253436
0.025213
0.0251498
0.0251642
0.025275
0.025502
0.0258628
0.0263667
0.0270119
0.027776
0.0286112
0.0294289
0.0301482
0.030797
0.0257387
0.025459
0.0252436
0.025105
0.0250351
0.025043
0.0251485
0.0253746
0.0257446
0.0262761
0.0269769
0.0278358
0.0288167
0.029816
0.0306975
0.0315191
0.0256209
0.0253318
0.0251052
0.024955
0.0248729
0.0248665
0.024955
0.0251625
0.0255149
0.0260357
0.0267426
0.0276358
0.0286939
0.0298122
0.0307725
0.0316292
0.0254685
0.0251714
0.0249331
0.0247673
0.0246656
0.0246337
0.024689
0.0248531
0.0251509
0.0256049
0.0262353
0.0270448
0.0280247
0.029078
0.0298839
0.0302492
0.0252906
0.0249868
0.0247366
0.0245515
0.0244229
0.0243543
0.0243594
0.0244554
0.0246612
0.0249903
0.0254515
0.0260242
0.0266815
0.0272587
0.0274831
0.0248598
0.0259655
0.0257479
0.0255664
0.0254463
0.0253996
0.0254395
0.0255796
0.0258302
0.0261961
0.0266713
0.027239
0.0278689
0.0285155
0.0291151
0.0295916
0.0298095
0.0259987
0.0257572
0.0255713
0.0254553
0.0254113
0.0254514
0.0255903
0.0258405
0.0262079
0.0266903
0.0272711
0.0279181
0.0285825
0.0291962
0.0296973
0.0300075
0.0259993
0.0257406
0.0255475
0.0254309
0.0253865
0.0254258
0.0255658
0.0258233
0.02621
0.0267257
0.0273622
0.0280873
0.0288478
0.0295621
0.0301685
0.0306355
0.025961
0.0256891
0.0254862
0.0253649
0.0253178
0.0253552
0.0254968
0.025764
0.0261752
0.0267417
0.0274547
0.0282886
0.0291912
0.030062
0.0308152
0.0314574
0.0258808
0.0255979
0.0253842
0.0252549
0.0252015
0.0252333
0.0253709
0.0256389
0.0260614
0.0266564
0.027429
0.028362
0.0294088
0.0304527
0.0313539
0.0321549
0.0257587
0.0254664
0.0252412
0.0250999
0.0250341
0.0250514
0.0251723
0.0254219
0.0258271
0.0264115
0.0271905
0.0281575
0.0292788
0.0304324
0.0313939
0.0322146
0.0255999
0.0252994
0.025062
0.0249042
0.0248177
0.0248084
0.0248945
0.0250989
0.0254469
0.0259611
0.0266591
0.0275367
0.0285724
0.0296476
0.0304255
0.0307168
0.0254137
0.0251062
0.0248561
0.0246778
0.0245626
0.0245141
0.0245469
0.0246791
0.0249296
0.0253112
0.0258304
0.0264593
0.0271583
0.0277382
0.0278993
0.0250799
0.0260635
0.0258446
0.0256651
0.0255512
0.0255148
0.0255695
0.0257295
0.0260055
0.0264029
0.0269149
0.0275241
0.0281974
0.0288856
0.0295211
0.0300234
0.0302435
0.0260978
0.0258546
0.0256708
0.0255611
0.0255278
0.0255831
0.0257421
0.0260181
0.0264173
0.0269367
0.0275599
0.0282509
0.0289571
0.0296063
0.0301303
0.0304378
0.0260994
0.0258391
0.0256478
0.0255379
0.0255048
0.0255598
0.0257208
0.026005
0.0264244
0.0269779
0.0276606
0.0284305
0.0292313
0.0299768
0.0306009
0.0310597
0.0260612
0.0257877
0.0255865
0.0254722
0.0254368
0.0254908
0.0256544
0.0259497
0.0263961
0.0270051
0.0277614
0.0286415
0.0295839
0.0304814
0.0312454
0.0318752
0.0259795
0.025695
0.0254829
0.0253606
0.0253192
0.025368
0.0255285
0.0258257
0.0262844
0.0269226
0.0277422
0.0287222
0.0298074
0.0308725
0.0317754
0.0325558
0.0258545
0.0255605
0.0253367
0.025202
0.025148
0.0251823
0.0253259
0.0256048
0.0260463
0.0266737
0.0274999
0.0285132
0.0296711
0.0308402
0.0317922
0.0325827
0.0256912
0.0253889
0.0251524
0.0250006
0.0249251
0.0249318
0.0250396
0.025272
0.0256546
0.0262093
0.0269515
0.0278718
0.0289393
0.0300222
0.0307735
0.0310118
0.0254992
0.0251897
0.0249401
0.0247669
0.0246613
0.0246271
0.0246794
0.0248367
0.0251179
0.0255353
0.0260926
0.0267567
0.0274789
0.0280547
0.0281676
0.0252212
0.0261122
0.0258924
0.0257134
0.0256022
0.0255705
0.0256322
0.0258014
0.0260896
0.0265014
0.0270306
0.0276588
0.0283516
0.0290582
0.0297101
0.0302199
0.030445
0.0261469
0.0259024
0.0257186
0.0256113
0.0255825
0.0256445
0.0258126
0.0261
0.0265139
0.0270505
0.0276927
0.0284033
0.0291277
0.0297923
0.0303262
0.030637
0.0261491
0.0258876
0.0256961
0.0255886
0.0255602
0.0256221
0.0257923
0.0260883
0.0265223
0.027094
0.0277955
0.0285846
0.0294023
0.0301606
0.0307931
0.0312521
0.026111
0.0258364
0.0256351
0.0255233
0.025493
0.0255542
0.0257275
0.0260352
0.0264969
0.0271233
0.0279001
0.0287999
0.0297583
0.0306659
0.0314355
0.0320618
0.0260287
0.0257433
0.0255311
0.0254114
0.0253753
0.0254316
0.0256022
0.0259124
0.0263871
0.027044
0.0278841
0.0288839
0.0299841
0.0310561
0.031961
0.0327344
0.0259024
0.0256074
0.0253835
0.0252513
0.0252025
0.0252444
0.0253983
0.0256903
0.0261479
0.026794
0.0276403
0.0286729
0.0298446
0.0310175
0.0319664
0.0327455
0.0257369
0.0254336
0.0251969
0.0250474
0.0249768
0.0249908
0.0251084
0.0253533
0.0257513
0.0263236
0.0270845
0.0280221
0.0291008
0.0301827
0.0309196
0.0311292
0.0255421
0.0252314
0.0249814
0.0248101
0.0247089
0.0246812
0.0247424
0.024911
0.0252059
0.0256388
0.0262121
0.0268904
0.0276196
0.0281885
0.0282559
0.0252489
0.0238688
0.0238124
0.0237165
0.023597
0.023464
0.0233193
0.023159
0.0229715
0.022741
0.0224438
0.0220516
0.0215314
0.0208481
0.0199713
0.0188792
0.0175849
0.0238771
0.0238208
0.0237275
0.0236104
0.02348
0.0233381
0.02318
0.0229955
0.0227698
0.0224777
0.0220914
0.0215773
0.0208999
0.020029
0.0189388
0.0176448
0.0238716
0.023811
0.0237169
0.0236005
0.0234721
0.0233342
0.0231828
0.0230083
0.0227916
0.0225118
0.0221393
0.021642
0.0209834
0.0201344
0.019064
0.0177916
0.0238498
0.023781
0.0236812
0.0235607
0.0234302
0.0232927
0.0231448
0.0229764
0.0227704
0.0225038
0.0221478
0.0216691
0.021032
0.0202089
0.0191639
0.0179205
0.0238125
0.0237349
0.0236264
0.0234977
0.0233602
0.0232181
0.0230686
0.0229023
0.0227021
0.0224448
0.0221012
0.0216387
0.0210209
0.0202219
0.0192025
0.0179906
0.023762
0.0236766
0.023559
0.0234204
0.0232732
0.0231225
0.0229668
0.0227972
0.0225972
0.0223437
0.0220074
0.0215563
0.020954
0.0201764
0.019184
0.0180054
0.0237012
0.0236099
0.0234844
0.0233365
0.0231791
0.0230182
0.0228533
0.0226765
0.0224717
0.0222163
0.0218816
0.0214364
0.0208455
0.0200866
0.0191224
0.0179806
0.0236336
0.0235386
0.0234074
0.023252
0.0230858
0.0229153
0.0227406
0.0225542
0.0223411
0.0220792
0.021741
0.0212967
0.0207134
0.0199706
0.0190359
0.0179338
0.023888
0.0238151
0.0237078
0.0235798
0.02344
0.0232897
0.0231245
0.0229334
0.022701
0.0224019
0.0220081
0.0214853
0.0207974
0.0199131
0.0188077
0.0174989
0.0238951
0.0238196
0.023714
0.0235869
0.0234472
0.0232966
0.0231312
0.0229409
0.0227079
0.0224093
0.022018
0.0214979
0.0208126
0.0199325
0.0188288
0.0175249
0.0238889
0.0238066
0.0236986
0.0235696
0.0234288
0.0232785
0.0231154
0.0229298
0.0227045
0.0224174
0.0220362
0.0215302
0.0208613
0.0200016
0.0189157
0.0176347
0.0238678
0.0237761
0.0236615
0.0235268
0.0233814
0.0232285
0.0230658
0.0228838
0.022666
0.022389
0.0220229
0.0215347
0.020886
0.0200513
0.0189879
0.0177351
0.023832
0.0237313
0.0236085
0.0234655
0.023312
0.0231526
0.022986
0.0228037
0.0225895
0.0223202
0.0219657
0.0214931
0.0208631
0.0200526
0.0190141
0.0177922
0.0237828
0.0236748
0.0235441
0.0233921
0.0232288
0.0230601
0.0228858
0.0226988
0.0224834
0.0222168
0.0218693
0.021408
0.020794
0.020006
0.0189952
0.0178081
0.0237225
0.0236095
0.0234723
0.0233122
0.0231394
0.0229605
0.0227767
0.0225817
0.0223609
0.0220921
0.0217462
0.0212915
0.0206901
0.0199226
0.0189424
0.0177944
0.0236546
0.0235388
0.0233972
0.0232307
0.02305
0.0228621
0.0226687
0.0224643
0.0222353
0.0219603
0.0216115
0.0211588
0.0205667
0.0198174
0.0188704
0.017765
0.0239479
0.0238542
0.0237302
0.0235888
0.0234391
0.0232826
0.0231149
0.0229255
0.0226971
0.0224048
0.0220177
0.0214972
0.0208006
0.0198879
0.018721
0.0173171
0.0239558
0.0238576
0.0237355
0.0235951
0.0234448
0.0232868
0.0231177
0.0229273
0.0226986
0.0224071
0.022021
0.0215028
0.0208092
0.0199023
0.0187375
0.0173436
0.0239478
0.0238412
0.0237157
0.0235719
0.0234183
0.0232583
0.0230892
0.0229017
0.0226789
0.0223964
0.0220223
0.0215196
0.0208429
0.0199573
0.0188078
0.017437
0.0239248
0.0238078
0.0236748
0.0235235
0.0233629
0.0231975
0.023026
0.02284
0.0226229
0.0223503
0.02199
0.0215047
0.0208478
0.0199871
0.0188565
0.0175133
0.0238876
0.0237612
0.0236198
0.0234593
0.0232887
0.0231141
0.0229359
0.022747
0.0225315
0.0222654
0.0219159
0.0214459
0.0208075
0.0199711
0.0188633
0.0175526
0.0238368
0.0237032
0.0235543
0.0233847
0.0232034
0.0230175
0.0228293
0.022633
0.0224142
0.0221491
0.0218056
0.0213467
0.0207244
0.019912
0.0188333
0.0175624
0.0237745
0.0236361
0.0234814
0.0233042
0.023113
0.0229159
0.0227164
0.0225101
0.0222839
0.022015
0.021672
0.0212193
0.0206102
0.0198208
0.0187779
0.0175551
0.0237041
0.0235631
0.0234046
0.0232216
0.0230227
0.0228161
0.022606
0.0223892
0.0221534
0.021877
0.02153
0.0210789
0.02048
0.0197121
0.0187107
0.0175422
0.0240477
0.023933
0.0237916
0.0236371
0.0234785
0.0233183
0.0231526
0.0229713
0.0227565
0.0224818
0.0221122
0.0216026
0.0208977
0.0199387
0.0186599
0.0170646
0.0240573
0.0239362
0.0237973
0.0236444
0.0234857
0.0233241
0.023157
0.0229747
0.0227599
0.0224865
0.0221194
0.0216137
0.0209138
0.0199631
0.0186868
0.0171053
0.0240474
0.0239165
0.0237738
0.0236167
0.0234536
0.0232885
0.0231199
0.0229393
0.0227298
0.0224654
0.0221107
0.0216212
0.0209396
0.0200119
0.0187465
0.0171783
0.0240212
0.023879
0.0237279
0.0235623
0.0233901
0.0232172
0.0230438
0.0228626
0.0226573
0.022402
0.0220607
0.0215884
0.0209255
0.0200196
0.0187652
0.0172185
0.0239802
0.0238282
0.0236684
0.0234927
0.0233089
0.0231244
0.0229414
0.0227544
0.0225483
0.0222975
0.0219658
0.0215078
0.020862
0.0199789
0.0187431
0.0172298
0.0239253
0.0237659
0.0235985
0.0234135
0.0232179
0.02302
0.0228241
0.0226267
0.0224142
0.0221619
0.021834
0.0213856
0.0207553
0.0198971
0.0186921
0.017229
0.0238585
0.0236939
0.023521
0.0233283
0.0231221
0.0229115
0.022702
0.0224916
0.0222685
0.0220093
0.0216793
0.0212352
0.0206179
0.0197859
0.0186247
0.017229
0.0237831
0.0236158
0.0234392
0.0232406
0.0230262
0.022805
0.0225832
0.0223598
0.0221242
0.0218543
0.0215174
0.0210727
0.0204652
0.0196588
0.0185524
0.0172374
0.0241833
0.024049
0.0238919
0.0237263
0.0235621
0.0234023
0.0232443
0.0230786
0.0228872
0.0226425
0.0223047
0.0218199
0.0211156
0.0201017
0.0186663
0.0167653
0.0241951
0.0240517
0.0238972
0.0237341
0.0235701
0.0234092
0.0232497
0.023083
0.0228918
0.0226487
0.0223144
0.0218348
0.0211369
0.0201329
0.0187005
0.0168077
0.0241837
0.0240294
0.0238704
0.0237028
0.0235335
0.0233676
0.0232051
0.0230387
0.0228518
0.0226172
0.0222953
0.0218314
0.0211501
0.0201621
0.0187266
0.0168176
0.0241542
0.0239878
0.02382
0.0236431
0.0234635
0.0232878
0.023118
0.0229485
0.0227638
0.0225368
0.022227
0.0217785
0.0211124
0.0201373
0.0186991
0.016786
0.0241085
0.0239319
0.0237551
0.0235679
0.0233757
0.0231865
0.0230045
0.0228261
0.0226376
0.0224124
0.0221101
0.0216732
0.0210212
0.0200623
0.0186361
0.0167504
0.0240477
0.0238633
0.023679
0.0234825
0.0232778
0.0230737
0.0228762
0.022684
0.0224853
0.022255
0.0219532
0.021523
0.0208848
0.0199495
0.0185573
0.0167374
0.0239741
0.0237843
0.0235943
0.0233899
0.0231742
0.022956
0.0227423
0.0225337
0.0223201
0.0220783
0.0217701
0.0213404
0.0207141
0.0198087
0.0184734
0.0167579
0.0238915
0.0236986
0.0235046
0.023294
0.0230692
0.0228389
0.0226105
0.0223854
0.0221549
0.0218973
0.0215768
0.0211417
0.0205237
0.0196504
0.0183898
0.0168098
0.0243515
0.0241995
0.0240294
0.0238566
0.0236912
0.0235376
0.0233944
0.0232536
0.023098
0.022899
0.0226137
0.0221783
0.0214987
0.0204394
0.0188078
0.0164553
0.0243654
0.0242018
0.024034
0.0238642
0.0236995
0.0235448
0.0234
0.023258
0.0231024
0.0229053
0.0226237
0.0221937
0.0215194
0.0204599
0.0188085
0.016403
0.0243534
0.0241776
0.0240049
0.0238305
0.02366
0.0234992
0.02335
0.0232068
0.0230545
0.0228654
0.0225961
0.0221805
0.0215166
0.0204508
0.018751
0.016217
0.0243211
0.0241326
0.0239507
0.023767
0.0235855
0.0234137
0.0232552
0.0231068
0.0229548
0.022772
0.0225143
0.0221121
0.0214576
0.0203817
0.0186424
0.0160086
0.0242703
0.0240713
0.0238803
0.0236865
0.0234924
0.0233061
0.0231334
0.0229735
0.022815
0.0226317
0.0223799
0.0219873
0.0213434
0.0202686
0.0185246
0.0158632
0.0242025
0.0239954
0.0237967
0.0235936
0.0233871
0.0231851
0.0229951
0.0228183
0.0226457
0.0224534
0.0221988
0.0218097
0.0211783
0.0201214
0.0184165
0.0158146
0.0241205
0.0239076
0.0237027
0.0234915
0.0232735
0.0230563
0.0228478
0.0226508
0.0224583
0.0222484
0.0219811
0.0215866
0.0209659
0.0199422
0.0183212
0.0158774
0.0240285
0.0238121
0.0236025
0.0233844
0.0231562
0.0229249
0.0226986
0.0224806
0.022265
0.0220313
0.0217424
0.0213325
0.0207157
0.0197336
0.018236
0.0160574
0.0245473
0.0243798
0.0241999
0.0240244
0.0238635
0.0237228
0.0236029
0.0234977
0.0233919
0.0232584
0.0230538
0.0227091
0.0221124
0.0210711
0.019252
0.0162679
0.024563
0.0243819
0.0242038
0.0240316
0.0238717
0.0237301
0.0236083
0.0235016
0.0233958
0.0232644
0.023064
0.0227247
0.0221289
0.0210653
0.0191337
0.0158378
0.0245516
0.0243569
0.0241734
0.0239969
0.0238311
0.0236828
0.0235557
0.0234469
0.0233439
0.0232212
0.0230351
0.0227128
0.0221258
0.0210268
0.0189396
0.0151941
0.0245171
0.0243092
0.0241164
0.0239309
0.0237544
0.0235946
0.0234574
0.0233423
0.0232391
0.0231234
0.0229518
0.0226475
0.0220722
0.0209438
0.0187456
0.014629
0.0244612
0.0242426
0.0240405
0.0238453
0.0236568
0.0234827
0.0233305
0.0232026
0.0230916
0.0229751
0.0228111
0.0225207
0.0219623
0.0208278
0.0185976
0.0142593
0.0243858
0.0241587
0.0239485
0.0237442
0.0235436
0.0233537
0.0231831
0.0230361
0.0229081
0.0227794
0.0226108
0.0223241
0.0217834
0.020667
0.0184887
0.0141016
0.024294
0.0240607
0.0238437
0.0236308
0.0234182
0.023212
0.0230208
0.0228498
0.0226963
0.0225427
0.0223531
0.0220522
0.0215196
0.0204369
0.0183963
0.0141765
0.0241908
0.0239536
0.0237311
0.02351
0.0232855
0.0230629
0.0228501
0.0226524
0.0224675
0.0222785
0.0220519
0.021714
0.0211663
0.0201116
0.0183001
0.0145725
0.0247633
0.0245828
0.0243967
0.0242229
0.0240721
0.0239511
0.0238628
0.0238038
0.0237622
0.0237149
0.0236233
0.0234246
0.0230139
0.022188
0.0205177
0.0171929
0.0247813
0.0245852
0.0244
0.0242298
0.0240803
0.0239584
0.0238681
0.0238075
0.023766
0.0237213
0.0236354
0.0234454
0.0230399
0.0221954
0.0203364
0.0162879
0.0247711
0.0245603
0.0243693
0.0241951
0.0240401
0.0239117
0.0238159
0.0237531
0.0237153
0.0236819
0.0236161
0.0234541
0.0230766
0.0222191
0.0201487
0.0152605
0.024735
0.0245107
0.0243102
0.0241277
0.0239629
0.0238236
0.0237179
0.0236493
0.0236125
0.02359
0.0235468
0.0234188
0.0230805
0.0222356
0.0200502
0.0144893
0.0246743
0.0244391
0.0242291
0.0240375
0.0238615
0.0237088
0.0235887
0.0235075
0.0234636
0.0234428
0.0234139
0.0233146
0.0230208
0.022218
0.0200349
0.014035
0.0245911
0.024347
0.0241284
0.0239276
0.0237399
0.0235717
0.0234329
0.0233315
0.0232688
0.0232341
0.023201
0.0231113
0.0228517
0.0221039
0.0200294
0.0138311
0.0244887
0.024238
0.0240118
0.0238015
0.023601
0.0234154
0.0232538
0.0231247
0.0230307
0.0229629
0.0228984
0.0227822
0.0225213
0.0218052
0.0199355
0.0138056
0.0243729
0.0241179
0.0238852
0.023665
0.0234506
0.0232456
0.0230581
0.0228954
0.0227598
0.0226413
0.0225169
0.0223265
0.0219965
0.0212065
0.0196122
0.0138989
0.0244313
0.0241588
0.0239121
0.0236841
0.0234662
0.0232601
0.0230729
0.0229114
0.0227796
0.0226696
0.0225634
0.0224021
0.0221261
0.0214047
0.0199815
0.0145292
0.0242974
0.0240247
0.0237736
0.0235343
0.0232982
0.0230668
0.0228454
0.0226389
0.0224472
0.022257
0.0220406
0.0217259
0.021221
0.0202212
0.0184606
0.0148606
0.0241752
0.0239052
0.0236521
0.0234035
0.0231518
0.0228984
0.0226483
0.0224046
0.0221643
0.0219116
0.0216142
0.0212096
0.0206056
0.0196536
0.0181343
0.0160597
0.0240725
0.0238085
0.0235564
0.0233021
0.0230394
0.0227709
0.0225012
0.0222323
0.0219595
0.0216668
0.0213225
0.0208806
0.0202614
0.0194139
0.0181418
0.0166357
0.0239945
0.0237397
0.023492
0.0232364
0.0229693
0.0226944
0.0224157
0.0221343
0.0218441
0.0215299
0.0211623
0.0207074
0.0200996
0.0193221
0.0182286
0.0169684
0.0239421
0.0237002
0.0234594
0.023207
0.0229423
0.0226694
0.0223913
0.0221078
0.0218116
0.0214876
0.0211095
0.0206492
0.0200551
0.0193178
0.0183451
0.017226
0.0239108
0.0236856
0.0234528
0.0232062
0.0229486
0.0226838
0.022414
0.0221373
0.0218454
0.0215226
0.0211444
0.0206845
0.0201015
0.0193833
0.0184722
0.0174149
0.0238885
0.0236856
0.0234591
0.0232164
0.022965
0.0227091
0.0224506
0.0221865
0.0219073
0.0215964
0.0212294
0.0207787
0.0202068
0.0194953
0.0185989
0.0175451
0.0246146
0.0243294
0.0240764
0.0238524
0.0236484
0.0234654
0.023311
0.0231936
0.0231199
0.0230868
0.0230828
0.023056
0.0229457
0.0223979
0.020926
0.0148349
0.0244654
0.0241795
0.0239206
0.0236826
0.0234561
0.0232413
0.0230437
0.0228685
0.0227173
0.0225784
0.0224259
0.0221837
0.0217458
0.020747
0.0188039
0.0145687
0.0243288
0.024045
0.0237831
0.0235332
0.0232865
0.0230432
0.0228077
0.0225832
0.0223674
0.0221447
0.0218816
0.0215092
0.0209206
0.0199315
0.018276
0.0159199
0.0242139
0.0239355
0.0236737
0.0234159
0.0231542
0.0228898
0.0226269
0.0223675
0.0221072
0.0218303
0.0215028
0.0210745
0.0204541
0.0195804
0.0182194
0.0165889
0.024126
0.0238569
0.0235989
0.023338
0.0230687
0.0227934
0.0225161
0.022238
0.0219534
0.0216473
0.0212885
0.0208406
0.0202287
0.019435
0.0182812
0.0169481
0.0240666
0.0238106
0.0235594
0.0233006
0.0230317
0.0227559
0.0224766
0.0221937
0.0219005
0.021582
0.0212101
0.0207552
0.0201579
0.0194101
0.0183977
0.0172304
0.0240309
0.0237925
0.0235497
0.0232963
0.0230338
0.0227658
0.0224946
0.0222188
0.0219303
0.0216133
0.0212419
0.0207878
0.020204
0.0194786
0.0185399
0.017446
0.0240063
0.023792
0.0235565
0.0233074
0.0230515
0.0227931
0.0225342
0.0222724
0.0219984
0.0216952
0.021337
0.020894
0.020324
0.0196071
0.0186876
0.0175991
0.0247927
0.0244974
0.0242401
0.0240216
0.0238326
0.023674
0.0235544
0.0234832
0.0234692
0.023512
0.0236026
0.0236869
0.0236914
0.0232089
0.0216385
0.0149608
0.0246284
0.0243317
0.0240672
0.023832
0.0236163
0.0234197
0.023248
0.0231068
0.0229983
0.0229115
0.0228198
0.0226395
0.0222484
0.0212246
0.0191216
0.0144296
0.0244774
0.0241823
0.0239135
0.023664
0.0234238
0.0231924
0.022974
0.0227715
0.0225828
0.0223918
0.0221629
0.0218191
0.0212397
0.0202082
0.0184285
0.0158395
0.02435
0.0240598
0.0237903
0.0235307
0.0232717
0.0230136
0.02276
0.0225129
0.0222678
0.0220084
0.0216984
0.0212829
0.0206594
0.0197564
0.0183117
0.0165658
0.0242522
0.0239711
0.0237049
0.0234406
0.023171
0.0228976
0.022624
0.0223516
0.0220748
0.0217785
0.0214293
0.0209884
0.0203719
0.0195608
0.0183509
0.0169491
0.0241858
0.0239179
0.0236584
0.023395
0.0231239
0.0228474
0.0225689
0.0222887
0.0220002
0.0216884
0.0213234
0.020874
0.0202739
0.0195154
0.0184661
0.0172531
0.0241457
0.0238961
0.0236454
0.0233871
0.0231216
0.0228524
0.0225816
0.0223084
0.0220246
0.0217144
0.0213502
0.0209023
0.020318
0.0195856
0.0186212
0.0174921
0.0241188
0.0238952
0.0236528
0.0233992
0.0231407
0.0228816
0.0226241
0.0223662
0.0220985
0.0218039
0.0214549
0.0210198
0.0204518
0.0197297
0.0187883
0.0176669
0.0249569
0.0246539
0.0243939
0.0241815
0.0240073
0.0238724
0.0237859
0.0237586
0.0238001
0.0239107
0.0240807
0.0242485
0.0243249
0.0238529
0.0221536
0.0149782
0.0247785
0.0244734
0.0242049
0.0239734
0.0237686
0.02359
0.0234436
0.0233352
0.0232674
0.0232282
0.0231888
0.0230561
0.0226923
0.0216301
0.0193809
0.014338
0.024614
0.0243099
0.0240359
0.0237878
0.0235548
0.0233356
0.0231345
0.0229542
0.0227921
0.0226312
0.0224325
0.0221114
0.0215343
0.0204593
0.018569
0.0157937
0.0244747
0.0241751
0.0238997
0.0236394
0.0233842
0.0231332
0.0228898
0.0226559
0.0224266
0.0221846
0.021891
0.0214859
0.0208571
0.0199246
0.0184051
0.01656
0.0243676
0.0240768
0.0238042
0.0235378
0.0232691
0.0229989
0.0227304
0.022465
0.022197
0.0219108
0.021571
0.0211364
0.0205148
0.0196864
0.0184268
0.0169641
0.0242945
0.0240169
0.023751
0.0234845
0.0232125
0.0229368
0.0226606
0.0223843
0.0221014
0.0217968
0.0214389
0.0209948
0.0203919
0.0196232
0.0185412
0.0172869
0.0242504
0.0239917
0.0237348
0.0234731
0.0232062
0.022937
0.0226681
0.0223983
0.02212
0.021817
0.0214601
0.0210182
0.0204335
0.0196945
0.0187071
0.017546
0.0242215
0.0239902
0.0237425
0.023486
0.0232264
0.022968
0.0227131
0.0224598
0.0221991
0.0219131
0.0215731
0.0211456
0.0205795
0.0198524
0.0188913
0.0177398
0.0250993
0.0247905
0.0245289
0.0243225
0.0241617
0.0240477
0.0239904
0.0240011
0.0240899
0.0242561
0.0244878
0.0247147
0.0248327
0.0243442
0.022521
0.0149478
0.0249085
0.024597
0.0243259
0.0240982
0.0239035
0.023741
0.0236171
0.0235376
0.0235049
0.0235056
0.0235076
0.0234088
0.0230579
0.0219524
0.019578
0.0142661
0.0247322
0.0244211
0.0241435
0.0238972
0.0236709
0.0234631
0.0232777
0.0231173
0.022979
0.0228438
0.0226699
0.022365
0.0217853
0.0206691
0.018686
0.015767
0.0245824
0.0242755
0.0239957
0.0237355
0.0234841
0.0232401
0.0230066
0.0227851
0.0225703
0.0223438
0.022064
0.0216666
0.0210312
0.0200715
0.0184891
0.016564
0.024467
0.0241686
0.0238912
0.0236236
0.0233565
0.0230899
0.0228268
0.0225685
0.022309
0.0220323
0.0217008
0.0212711
0.0206445
0.0198001
0.0184988
0.0169853
0.024388
0.0241029
0.0238319
0.0235636
0.0232916
0.0230175
0.0227442
0.0224722
0.022195
0.0218972
0.0215457
0.0211063
0.0205009
0.0197229
0.0186134
0.0173241
0.0243404
0.0240745
0.0238129
0.023549
0.0232817
0.0230135
0.0227469
0.022481
0.0222082
0.0219119
0.0215617
0.0211251
0.0205402
0.0197953
0.0187884
0.0175998
0.0243097
0.0240725
0.0238209
0.0235626
0.0233029
0.0230459
0.0227941
0.0225457
0.0222915
0.0220136
0.0216818
0.021261
0.0206964
0.0199648
0.0189868
0.0178094
0.0252129
0.0249
0.0246377
0.0244365
0.0242867
0.0241895
0.0241555
0.0241962
0.0243218
0.0245302
0.0248064
0.0250728
0.0252129
0.0247002
0.0227769
0.014912
0.0250122
0.0246961
0.0244234
0.0241992
0.0240128
0.0238634
0.0237576
0.0237013
0.0236962
0.0237276
0.02376
0.0236837
0.0233371
0.022192
0.0197204
0.0142143
0.0248263
0.0245102
0.0242302
0.0239857
0.0237652
0.0235667
0.0233942
0.0232502
0.0231308
0.0230159
0.0228605
0.0225663
0.0219815
0.0208306
0.0187762
0.0157538
0.0246681
0.0243558
0.0240729
0.0238133
0.0235654
0.0233274
0.0231022
0.0228911
0.0226883
0.0224743
0.0222052
0.021813
0.0211711
0.0201888
0.0185581
0.0165735
0.024546
0.024242
0.0239612
0.0236931
0.0234277
0.0231645
0.0229062
0.0226541
0.022402
0.0221331
0.0218084
0.0213823
0.0207512
0.0198937
0.0185602
0.0170077
0.0244622
0.0241715
0.0238971
0.0236275
0.0233561
0.0230838
0.0228133
0.0225453
0.0222731
0.0219812
0.0216351
0.0211993
0.0205919
0.0198062
0.0186756
0.0173588
0.0244117
0.0241406
0.0238757
0.0236105
0.0233432
0.0230763
0.0228121
0.0225498
0.0222817
0.0219912
0.0216466
0.0212143
0.0206293
0.0198795
0.0188575
0.0176471
0.0243796
0.0241382
0.0238839
0.0236245
0.0233652
0.0231099
0.022861
0.0226169
0.0223685
0.0220973
0.0217722
0.0213568
0.0207934
0.020058
0.0190668
0.0178688
0.0252918
0.0249766
0.0247141
0.0245168
0.0243751
0.02429
0.0242723
0.0243341
0.0244851
0.0247224
0.0250285
0.0253199
0.0254723
0.0249405
0.0229498
0.0148992
0.0250842
0.0247654
0.0244919
0.0242704
0.0240902
0.0239503
0.0238574
0.0238175
0.0238319
0.0238846
0.0239378
0.0238761
0.0235309
0.0223567
0.0198187
0.0141875
0.0248917
0.0245725
0.0242912
0.0240483
0.0238322
0.0236406
0.0234775
0.0233452
0.0232396
0.023139
0.0229966
0.0227096
0.0221204
0.0209441
0.0188411
0.0157529
0.0247276
0.024412
0.0241273
0.0238684
0.0236233
0.02339
0.023171
0.0229677
0.0227739
0.0225691
0.0223078
0.0219192
0.0212726
0.0202743
0.0186117
0.016589
0.0246007
0.0242934
0.0240105
0.0237425
0.0234787
0.0232183
0.022964
0.0227168
0.0224705
0.0222076
0.021888
0.0214647
0.0208307
0.0199641
0.0186095
0.0170308
0.0245137
0.0242196
0.0239431
0.0236732
0.0234025
0.0231319
0.022864
0.0225993
0.0223313
0.0220439
0.0217019
0.021269
0.0206604
0.0198694
0.0187246
0.0173888
0.0244612
0.0241868
0.02392
0.0236543
0.0233875
0.0231219
0.0228598
0.0226005
0.0223362
0.02205
0.0217096
0.0212806
0.0206956
0.0199424
0.01891
0.0176845
0.0244282
0.024184
0.0239281
0.0236684
0.0234096
0.0231557
0.0229092
0.0226684
0.0224243
0.022158
0.0218377
0.0214261
0.0208636
0.0201254
0.0191251
0.0179129
0.0253314
0.0250148
0.0247518
0.0245559
0.0244177
0.024338