/*--------------------------------*- C++ -*----------------------------------*\
| =========                 |                                                 |
| \\      /  F ield         | foam-extend: Open Source CFD                    |
|  \\    /   O peration     | Version:     3.1                                |
|   \\  /    A nd           | Web:         http://www.extend-project.de       |
|    \\/     M anipulation  |                                                 |
\*---------------------------------------------------------------------------*/
FoamFile
{
    version     2.0;
    format      ascii;
    class       surfaceScalarField;
    location    "3.1";
    object      phi;
}
// * * * * * * * * * * * * * * * * * * * * * * * * * * * * * * * * * * * * * //

dimensions      [0 3 -1 0 0 0 0];

internalField   nonuniform List<scalar> 
41600
(
1.18682e-05
-6.63995e-08
-1.17288e-06
1.18186e-06
1.17698e-05
9.58283e-08
-2.1283e-06
2.13086e-06
1.15222e-05
2.55187e-07
-2.74027e-06
2.7327e-06
1.11654e-05
3.74868e-07
-3.32191e-06
3.30388e-06
1.07409e-05
4.55439e-07
-3.97649e-06
3.94554e-06
1.02962e-05
4.93957e-07
-4.74235e-06
4.69304e-06
9.88107e-06
4.8975e-07
-5.64045e-06
5.56586e-06
9.53985e-06
4.46978e-07
-6.69509e-06
6.58933e-06
9.30801e-06
3.70763e-07
-7.94647e-06
7.80754e-06
9.2148e-06
2.59628e-07
-9.46175e-06
9.29534e-06
9.29339e-06
9.43535e-08
-1.13488e-05
1.11759e-05
9.58869e-06
-1.76313e-07
-1.37669e-05
1.36479e-05
1.01121e-05
-6.25039e-07
-1.69038e-05
1.70055e-05
1.05448e-05
-1.25512e-06
-2.07457e-05
2.1568e-05
9.02475e-06
-1.4933e-06
-2.40508e-05
2.70641e-05
-3.03217e-07
-1.96605e-05
2.90406e-05
3.30528e-05
-1.84271e-08
-1.38217e-06
1.42777e-06
3.28022e-05
2.79823e-07
-3.2437e-06
3.31035e-06
3.23689e-05
6.14737e-07
-4.70172e-06
4.77539e-06
3.17534e-05
9.05299e-07
-6.11258e-06
6.19765e-06
3.09922e-05
1.11817e-06
-7.66153e-06
7.76007e-06
3.01488e-05
1.23279e-06
-9.42842e-06
9.53301e-06
2.9297e-05
1.246e-06
-1.14427e-05
1.15382e-05
2.84998e-05
1.17361e-06
-1.37254e-05
1.3796e-05
2.77923e-05
1.04087e-06
-1.63226e-05
1.63599e-05
2.71726e-05
8.64892e-07
-1.93328e-05
1.93472e-05
2.66012e-05
6.29096e-07
-2.29379e-05
2.29746e-05
2.59833e-05
2.6164e-07
-2.74293e-05
2.76094e-05
2.50619e-05
-3.85112e-07
-3.31443e-05
3.38258e-05
2.2962e-05
-1.4432e-06
-3.99217e-05
4.22096e-05
1.68202e-05
-2.28598e-06
-4.48717e-05
5.18062e-05
-1.14889e-06
-3.38076e-05
5.16268e-05
5.13561e-05
2.33847e-09
-1.10914e-06
1.16636e-06
5.11108e-05
4.17805e-07
-2.98332e-06
3.09055e-06
5.07031e-05
8.83672e-07
-4.65303e-06
4.79185e-06
5.01073e-05
1.32006e-06
-6.35744e-06
6.53851e-06
4.93152e-05
1.67242e-06
-8.27969e-06
8.51751e-06
4.83489e-05
1.90291e-06
-1.05241e-05
1.08203e-05
4.72555e-05
2.00011e-06
-1.313e-05
1.34692e-05
4.60871e-05
1.98524e-06
-1.61037e-05
1.64605e-05
4.48728e-05
1.90356e-06
-1.94583e-05
1.98099e-05
4.35908e-05
1.803e-06
-2.32555e-05
2.35994e-05
4.21409e-05
1.70043e-06
-2.76535e-05
2.8032e-05
4.03018e-05
1.54802e-06
-3.29615e-05
3.35142e-05
3.7589e-05
1.18755e-06
-3.96343e-05
4.07744e-05
3.26869e-05
3.36737e-07
-4.76911e-05
5.08132e-05
2.22237e-05
-8.98297e-07
-5.38001e-05
6.28757e-05
-1.31172e-06
-4.04099e-05
6.30677e-05
6.66302e-05
-6.91882e-09
-8.74275e-07
9.27085e-07
6.64369e-05
5.02742e-07
-2.47973e-06
2.58806e-06
6.61183e-05
1.05579e-06
-3.99343e-06
4.13996e-06
6.56426e-05
1.59482e-06
-5.59103e-06
5.79193e-06
6.49599e-05
2.06969e-06
-7.45179e-06
7.73726e-06
6.40313e-05
2.44025e-06
-9.71577e-06
1.0107e-05
6.28465e-05
2.6905e-06
-1.2463e-05
1.29575e-05
6.14193e-05
2.84154e-06
-1.5718e-05
1.62889e-05
5.97649e-05
2.9486e-06
-1.94767e-05
2.00861e-05
5.78584e-05
3.08747e-06
-2.37518e-05
2.43738e-05
5.55844e-05
3.32035e-06
-2.86351e-05
2.92892e-05
5.26553e-05
3.66568e-06
-3.43842e-05
3.51957e-05
4.84477e-05
4.03365e-06
-4.15133e-05
4.28748e-05
4.12566e-05
4.11948e-06
-5.03735e-05
5.37819e-05
2.70562e-05
3.25855e-06
-5.77868e-05
6.78303e-05
4.92236e-07
-4.42397e-05
6.99062e-05
7.88405e-05
-2.75783e-08
-7.25924e-07
7.71567e-07
7.86884e-05
5.608e-07
-2.08501e-06
2.17913e-06
7.84456e-05
1.17575e-06
-3.37484e-06
3.49763e-06
7.80888e-05
1.78535e-06
-4.73482e-06
4.90108e-06
7.75483e-05
2.35986e-06
-6.33683e-06
6.58721e-06
7.67373e-05
2.87359e-06
-8.35386e-06
8.73146e-06
7.5584e-05
3.31831e-06
-1.09241e-05
1.14496e-05
7.40479e-05
3.71829e-06
-1.41262e-05
1.47855e-05
7.21127e-05
4.13389e-06
-1.79814e-05
1.87313e-05
6.97469e-05
4.66091e-06
-2.24855e-05
2.32778e-05
6.6842e-05
5.40288e-06
-2.76732e-05
2.84956e-05
6.30904e-05
6.4658e-06
-3.37244e-05
3.46759e-05
5.78149e-05
7.87886e-06
-4.11226e-05
4.25529e-05
4.89742e-05
9.56354e-06
-5.05463e-05
5.39429e-05
3.1635e-05
1.02558e-05
-5.9267e-05
6.96089e-05
4.96553e-06
-4.64175e-05
7.41496e-05
8.79885e-05
-4.61783e-08
-6.28674e-07
6.68165e-07
8.78622e-05
6.06506e-07
-1.81175e-06
1.89229e-06
8.76728e-05
1.26843e-06
-2.92356e-06
3.02028e-06
8.74092e-05
1.92886e-06
-4.07216e-06
4.19229e-06
8.70012e-05
2.583e-06
-5.40852e-06
5.59339e-06
8.63385e-05
3.22888e-06
-7.11504e-06
7.4224e-06
8.53058e-05
3.87651e-06
-9.37251e-06
9.84702e-06
8.38139e-05
4.56159e-06
-1.23183e-05
1.29669e-05
8.18101e-05
5.35094e-06
-1.60225e-05
1.68092e-05
7.92493e-05
6.35712e-06
-2.04984e-05
2.1363e-05
7.60354e-05
7.71665e-06
-2.57545e-05
2.66546e-05
7.18624e-05
9.63857e-06
-3.1909e-05
3.29093e-05
6.60615e-05
1.22809e-05
-3.93529e-05
4.07518e-05
5.63781e-05
1.6065e-05
-4.90248e-05
5.22067e-05
3.66164e-05
1.98496e-05
-5.88521e-05
6.90201e-05
1.30907e-05
-4.69639e-05
7.61875e-05
9.40791e-05
-5.54197e-08
-5.59144e-07
5.94537e-07
9.39721e-05
6.42789e-07
-1.61528e-06
1.68601e-06
9.38273e-05
1.33524e-06
-2.59812e-06
2.67605e-06
9.36435e-05
2.02839e-06
-3.59228e-06
3.67659e-06
9.33583e-05
2.74132e-06
-4.72393e-06
4.8508e-06
9.28573e-05
3.49753e-06
-6.16514e-06
6.39754e-06
9.20058e-05
4.32929e-06
-8.11134e-06
8.51006e-06
9.06879e-05
5.28754e-06
-1.07351e-05
1.13271e-05
8.88298e-05
6.44669e-06
-1.4146e-05
1.49084e-05
8.63847e-05
7.9314e-06
-1.83809e-05
1.92517e-05
8.32857e-05
9.89994e-06
-2.34373e-05
2.43529e-05
7.92676e-05
1.26722e-05
-2.939e-05
3.03746e-05
7.37103e-05
1.65413e-05
-3.65003e-05
3.77973e-05
6.44109e-05
2.26029e-05
-4.58292e-05
4.85907e-05
4.35333e-05
3.13248e-05
-5.63762e-05
6.57786e-05
2.74929e-05
-4.54006e-05
7.54255e-05
9.71166e-05
-5.07305e-07
5.39924e-07
-5.14352e-08
9.70284e-05
-1.4673e-06
1.5311e-06
6.67162e-07
9.69318e-05
-2.35247e-06
2.41796e-06
1.36641e-06
9.68307e-05
-3.23344e-06
3.29503e-06
2.0678e-06
9.66712e-05
-4.21833e-06
4.30742e-06
2.8118e-06
9.63441e-05
-5.46397e-06
5.64346e-06
3.64507e-06
9.57156e-05
-7.16062e-06
7.49826e-06
4.62022e-06
9.46687e-05
-9.4868e-06
1.00211e-05
5.80014e-06
9.31352e-05
-1.25626e-05
1.32814e-05
7.26143e-06
9.10977e-05
-1.64279e-05
1.72717e-05
9.12501e-06
8.85554e-05
-2.10583e-05
2.19537e-05
1.15469e-05
8.5408e-05
-2.64717e-05
2.73973e-05
1.48939e-05
8.12177e-05
-3.27755e-05
3.39155e-05
1.95915e-05
7.43579e-05
-4.07546e-05
4.28157e-05
2.74016e-05
5.64648e-05
-5.12674e-05
5.86645e-05
4.18208e-05
-4.03047e-05
6.82526e-05
5.70604e-05
1.26664e-05
-8.51496e-08
-1.1156e-06
1.25048e-05
6.68687e-08
-2.0335e-06
1.21676e-05
2.21928e-07
-2.62502e-06
1.16952e-05
3.37383e-07
-3.18689e-06
1.11251e-05
4.13075e-07
-3.81945e-06
1.04989e-05
4.45256e-07
-4.56141e-06
9.86017e-06
4.31408e-07
-5.43315e-06
9.24589e-06
3.74198e-07
-6.45502e-06
8.67902e-06
2.78111e-07
-7.65771e-06
8.16575e-06
1.4157e-07
-9.09005e-06
7.69887e-06
-5.90255e-08
-1.08229e-05
7.2516e-06
-3.73264e-07
-1.29463e-05
6.73797e-06
-8.86508e-07
-1.55037e-05
5.82839e-06
-1.60541e-06
-1.82307e-05
3.61267e-06
-2.21023e-06
-1.96248e-05
-1.87874e-06
-1.41111e-05
3.53322e-05
-4.2533e-08
-1.28743e-06
3.49742e-05
2.31386e-07
-3.05021e-06
3.43795e-05
5.51692e-07
-4.43679e-06
3.35469e-05
8.30723e-07
-5.77339e-06
3.25044e-05
1.03177e-06
-7.23766e-06
3.13031e-05
1.13079e-06
-8.91268e-06
3.00038e-05
1.11958e-06
-1.08316e-05
2.86545e-05
1.01091e-06
-1.30128e-05
2.72677e-05
8.29571e-07
-1.54873e-05
2.58036e-05
5.94209e-07
-1.83213e-05
2.41568e-05
2.85807e-07
-2.16359e-05
2.21305e-05
-1.84355e-07
-2.55919e-05
1.93567e-05
-9.9922e-07
-3.02578e-05
1.51018e-05
-2.27935e-06
-3.49929e-05
8.12052e-06
-3.61587e-06
-3.64847e-05
-3.3909e-06
-2.40069e-05
5.4929e-05
-2.40362e-08
-1.01773e-06
5.45784e-05
3.69195e-07
-2.77052e-06
5.40011e-05
8.17502e-07
-4.34155e-06
5.31711e-05
1.24026e-06
-5.93697e-06
5.20701e-05
1.57935e-06
-7.72629e-06
5.0702e-05
1.7916e-06
-9.81677e-06
4.90911e-05
1.85822e-06
-1.22577e-05
4.72638e-05
1.7963e-06
-1.50618e-05
4.52177e-05
1.65148e-06
-1.82341e-05
4.28841e-05
1.47677e-06
-2.18045e-05
4.00869e-05
1.29026e-06
-2.58607e-05
3.64815e-05
1.03107e-06
-3.05715e-05
3.14259e-05
5.02611e-07
-3.60805e-05
2.37873e-05
-5.7979e-07
-4.17519e-05
1.21323e-05
-2.22434e-06
-4.35367e-05
-3.13182e-06
-2.82486e-05
7.12809e-05
-3.51634e-08
-7.97265e-07
7.09954e-05
4.6334e-07
-2.28845e-06
7.05197e-05
1.00569e-06
-3.70587e-06
6.98246e-05
1.53716e-06
-5.19287e-06
6.88532e-05
2.00577e-06
-6.90673e-06
6.75462e-05
2.3663e-06
-8.9835e-06
6.58605e-05
2.59542e-06
-1.15145e-05
6.37695e-05
2.70947e-06
-1.45401e-05
6.12408e-05
2.76527e-06
-1.80618e-05
5.81894e-05
2.84865e-06
-2.20723e-05
5.44094e-05
3.03334e-06
-2.65981e-05
4.94692e-05
3.34111e-06
-3.17541e-05
4.25311e-05
3.65993e-06
-3.77326e-05
3.20455e-05
3.61897e-06
-4.40867e-05
1.60996e-05
2.534e-06
-4.65992e-05
-3.39941e-07
-3.05018e-05
8.43512e-05
-5.82344e-08
-6.61031e-07
8.41187e-05
5.32109e-07
-1.9213e-06
8.37325e-05
1.14823e-06
-3.13119e-06
8.3174e-05
1.76169e-06
-4.40086e-06
8.23729e-05
2.34285e-06
-5.87274e-06
8.12261e-05
2.86303e-06
-7.70384e-06
7.96254e-05
3.30869e-06
-1.00367e-05
7.74763e-05
3.70162e-06
-1.29692e-05
7.46956e-05
4.10571e-06
-1.65411e-05
7.11723e-05
4.6312e-06
-2.07447e-05
6.66895e-05
5.40525e-06
-2.55623e-05
6.07801e-05
6.55866e-06
-3.10325e-05
5.25042e-05
8.14459e-06
-3.73313e-05
3.98582e-05
9.9902e-06
-4.42716e-05
2.01229e-05
1.07012e-05
-4.7699e-05
5.57721e-06
-3.16272e-05
9.41426e-05
-7.93458e-08
-5.7243e-07
9.39454e-05
5.87307e-07
-1.66974e-06
9.36244e-05
1.26286e-06
-2.71721e-06
9.31733e-05
1.93995e-06
-3.79936e-06
9.25273e-05
2.61531e-06
-5.03495e-06
9.15681e-05
3.28673e-06
-6.57951e-06
9.01475e-05
3.96304e-06
-8.60633e-06
8.8117e-05
4.68153e-06
-1.12677e-05
8.53429e-05
5.51701e-06
-1.46597e-05
8.16814e-05
6.60175e-06
-1.88074e-05
7.69103e-05
8.10771e-06
-2.36858e-05
7.05481e-05
1.02918e-05
-2.928e-05
6.1642e-05
1.34014e-05
-3.57036e-05
4.78048e-05
1.78261e-05
-4.30235e-05
2.4938e-05
2.20957e-05
-4.73798e-05
1.59662e-05
-3.16706e-05
0.000100661
-8.97691e-08
-5.09087e-07
0.00010049
6.31961e-07
-1.48908e-06
0.000100225
1.34896e-06
-2.4185e-06
9.98662e-05
2.07033e-06
-3.3642e-06
9.93616e-05
2.81751e-06
-4.42153e-06
9.85964e-05
3.61646e-06
-5.72972e-06
9.74115e-05
4.50306e-06
-7.46645e-06
9.56343e-05
5.53554e-06
-9.81193e-06
9.31064e-05
6.80161e-06
-1.29027e-05
8.96736e-05
8.4523e-06
-1.67987e-05
8.51369e-05
1.06909e-05
-2.14838e-05
7.90435e-05
1.39138e-05
-2.69186e-05
7.05168e-05
1.85554e-05
-3.31275e-05
5.70064e-05
2.59123e-05
-4.04051e-05
3.23059e-05
3.60592e-05
-4.56392e-05
3.42259e-05
-3.04501e-05
0.000103912
-4.61622e-07
-8.4988e-08
0.000103765
-1.35278e-06
6.64266e-07
0.000103557
-2.19214e-06
1.39678e-06
0.000103294
-3.03611e-06
2.13554e-06
0.000102934
-3.96426e-06
2.92365e-06
0.000102373
-5.09901e-06
3.81257e-06
0.00010146
-6.60781e-06
4.86307e-06
0.00010003
-8.67163e-06
6.15086e-06
9.79353e-05
-1.14367e-05
7.77026e-06
9.50589e-05
-1.49726e-05
9.87337e-06
9.12873e-05
-1.92584e-05
1.26627e-05
8.63485e-05
-2.42298e-05
1.66106e-05
7.96352e-05
-2.98046e-05
2.22978e-05
6.90053e-05
-3.62892e-05
3.20769e-05
4.70045e-05
-4.23593e-05
4.91517e-05
-2.74384e-05
6.94243e-05
1.33469e-05
-1.02501e-07
-1.01191e-06
1.31242e-05
3.95674e-08
-1.85033e-06
1.27023e-05
1.89566e-07
-2.3927e-06
1.21221e-05
3.00098e-07
-2.90684e-06
1.14182e-05
3.69627e-07
-3.48513e-06
1.06271e-05
3.93688e-07
-4.16397e-06
9.78748e-06
3.67981e-07
-4.96154e-06
8.93136e-06
2.9393e-07
-5.89284e-06
8.07513e-06
1.75725e-07
-6.97719e-06
7.21704e-06
1.17045e-08
-8.24368e-06
6.33635e-06
-2.15729e-07
-9.72647e-06
5.39993e-06
-5.55813e-07
-1.14541e-05
4.35359e-06
-1.0793e-06
-1.3378e-05
3.0704e-06
-1.80079e-06
-1.51467e-05
1.40112e-06
-2.52302e-06
-1.54325e-05
-2.32019e-06
-1.03285e-05
3.72827e-05
-6.41318e-08
-1.14774e-06
3.68245e-05
1.87327e-07
-2.73968e-06
3.60794e-05
4.93187e-07
-3.99534e-06
3.50473e-05
7.59869e-07
-5.20107e-06
3.37497e-05
9.47597e-07
-6.51799e-06
3.22279e-05
1.02819e-06
-8.02545e-06
3.05318e-05
9.891e-07
-9.75655e-06
2.86978e-05
8.40491e-07
-1.17253e-05
2.67258e-05
6.0767e-07
-1.39473e-05
2.45574e-05
3.14621e-07
-1.64559e-05
2.2074e-05
-6.14972e-08
-1.93067e-05
1.90797e-05
-5.99235e-07
-2.25542e-05
1.5299e-05
-1.45637e-06
-2.61001e-05
1.04133e-05
-2.75672e-06
-2.91513e-05
4.43253e-06
-4.21876e-06
-2.88082e-05
-4.12291e-06
-1.75953e-05
5.79901e-05
-4.67797e-08
-8.96392e-07
5.75431e-05
3.26838e-07
-2.46302e-06
5.68098e-05
7.5917e-07
-3.8742e-06
5.57653e-05
1.1685e-06
-5.3011e-06
5.4385e-05
1.49386e-06
-6.89221e-06
5.26587e-05
1.6864e-06
-8.7487e-06
5.05919e-05
1.72058e-06
-1.09224e-05
4.81899e-05
1.60855e-06
-1.34279e-05
4.54281e-05
1.39749e-06
-1.62621e-05
4.22143e-05
1.14686e-06
-1.94229e-05
3.83465e-05
8.84499e-07
-2.29389e-05
3.34723e-05
5.6017e-07
-2.68568e-05
2.70426e-05
2.39844e-09
-3.11096e-05
1.844e-05
-1.08147e-06
-3.48246e-05
7.80759e-06
-2.77228e-06
-3.43508e-05
-3.74045e-06
-2.05248e-05
7.52666e-05
-5.9669e-08
-6.98805e-07
7.48983e-05
4.30602e-07
-2.02391e-06
7.42793e-05
9.64545e-07
-3.29219e-06
7.33826e-05
1.48967e-06
-4.61742e-06
7.21479e-05
1.95274e-06
-6.13084e-06
7.05017e-05
2.30371e-06
-7.9546e-06
6.83751e-05
2.5122e-06
-1.01796e-05
6.57076e-05
2.5884e-06
-1.28525e-05
6.24297e-05
2.59044e-06
-1.59768e-05
5.84176e-05
2.61448e-06
-1.95279e-05
5.34282e-05
2.75242e-06
-2.34766e-05
4.7007e-05
3.04766e-06
-2.78204e-05
3.83901e-05
3.40587e-06
-3.25191e-05
2.65378e-05
3.47404e-06
-3.67899e-05
1.14161e-05
2.45152e-06
-3.67013e-05
-4.37524e-07
-2.19478e-05
8.90742e-05
-8.51135e-08
-5.78867e-07
8.87704e-05
5.09863e-07
-1.69685e-06
8.82546e-05
1.12933e-06
-2.78015e-06
8.75103e-05
1.74812e-06
-3.91494e-06
8.64677e-05
2.33726e-06
-5.21468e-06
8.50145e-05
2.86563e-06
-6.81263e-06
8.30164e-05
3.31434e-06
-8.84069e-06
8.03357e-05
3.70037e-06
-1.14004e-05
7.6835e-05
4.09001e-06
-1.454e-05
7.23453e-05
4.60596e-06
-1.82465e-05
6.65952e-05
5.40032e-06
-2.24601e-05
5.90826e-05
6.63906e-06
-2.71114e-05
4.8893e-05
8.41305e-06
-3.21489e-05
3.45072e-05
1.05597e-05
-3.69714e-05
1.52799e-05
1.15049e-05
-3.75251e-05
6.371e-06
-2.25618e-05
9.94169e-05
-1.08232e-07
-5.01333e-07
9.91572e-05
5.74443e-07
-1.47463e-06
9.87186e-05
1.26538e-06
-2.4146e-06
9.80951e-05
1.96039e-06
-3.38816e-06
9.72255e-05
2.65833e-06
-4.48647e-06
9.59892e-05
3.35709e-06
-5.83463e-06
9.42178e-05
4.06381e-06
-7.58439e-06
9.17182e-05
4.81535e-06
-9.88319e-06
8.8292e-05
5.6915e-06
-1.28349e-05
8.37194e-05
6.84035e-06
-1.64692e-05
7.77037e-05
8.46427e-06
-2.07341e-05
6.97163e-05
1.08671e-05
-2.55207e-05
5.87956e-05
1.43673e-05
-3.07371e-05
4.29408e-05
1.93849e-05
-3.5994e-05
2.01922e-05
2.41992e-05
-3.73254e-05
1.81494e-05
-2.25043e-05
0.000106302
-1.19377e-07
-4.45888e-07
0.000106075
6.27543e-07
-1.3153e-06
0.000105703
1.37044e-06
-2.1508e-06
0.000105184
2.12117e-06
-3.00683e-06
0.000104472
2.90386e-06
-3.95496e-06
0.000103455
3.74679e-06
-5.10235e-06
0.000101962
4.68848e-06
-6.59784e-06
9.97813e-05
5.7923e-06
-8.60821e-06
9.6689e-05
7.15574e-06
-1.12746e-05
9.24467e-05
8.95036e-06
-1.46664e-05
8.67685e-05
1.14145e-05
-1.87558e-05
7.91421e-05
1.50023e-05
-2.34274e-05
6.86756e-05
2.02452e-05
-2.85389e-05
5.30478e-05
2.85561e-05
-3.39484e-05
2.80344e-05
3.9762e-05
-3.61886e-05
3.83721e-05
-2.17271e-05
0.000109736
-4.04158e-07
-1.13492e-07
0.000109537
-1.19496e-06
6.67834e-07
0.000109232
-1.95052e-06
1.43468e-06
0.000108822
-2.71774e-06
2.21201e-06
0.000108272
-3.55565e-06
3.04557e-06
0.000107485
-4.5556e-06
3.99077e-06
0.000106304
-5.85386e-06
5.11494e-06
0.000104534
-7.61387e-06
6.50437e-06
0.00010197
-9.98435e-06
8.26781e-06
9.84137e-05
-1.30479e-05
1.0582e-05
9.36708e-05
-1.67857e-05
1.36846e-05
8.74076e-05
-2.10819e-05
1.81176e-05
7.90268e-05
-2.57376e-05
2.4559e-05
6.64391e-05
-3.07497e-05
3.56043e-05
4.37334e-05
-3.41429e-05
5.42513e-05
-1.98443e-05
7.55776e-05
1.39113e-05
-1.17907e-07
-8.6595e-07
1.36323e-05
1.61446e-08
-1.58741e-06
1.31339e-05
1.60023e-07
-2.05432e-06
1.24574e-05
2.65832e-07
-2.49616e-06
1.16354e-05
3.29158e-07
-2.99237e-06
1.07011e-05
3.44995e-07
-3.57463e-06
9.69008e-06
3.07307e-07
-4.25783e-06
8.63259e-06
2.16575e-07
-5.05192e-06
7.54356e-06
7.95884e-08
-5.96776e-06
6.42482e-06
-1.1096e-07
-7.01397e-06
5.26e-06
-3.59918e-07
-8.20173e-06
4.03565e-06
-7.08468e-07
-9.52127e-06
2.7573e-06
-1.21414e-06
-1.08856e-05
1.46528e-06
-1.89285e-06
-1.19618e-05
3.67788e-07
-2.60202e-06
-1.1733e-05
-2.37387e-06
-7.5238e-06
3.89058e-05
-8.27598e-08
-9.68473e-07
3.8358e-05
1.49121e-07
-2.32484e-06
3.74783e-05
4.41772e-07
-3.39742e-06
3.62693e-05
6.97082e-07
-4.42332e-06
3.47486e-05
8.71759e-07
-5.53992e-06
3.29506e-05
9.35057e-07
-6.81748e-06
3.09174e-05
8.69449e-07
-8.2855e-06
2.86798e-05
6.81857e-07
-9.95303e-06
2.62323e-05
4.02021e-07
-1.18222e-05
2.3519e-05
5.07988e-08
-1.39044e-05
2.04326e-05
-3.73937e-07
-1.62062e-05
1.68223e-05
-9.35367e-07
-1.87171e-05
1.25475e-05
-1.77062e-06
-2.12687e-05
7.61705e-06
-2.99358e-06
-2.31201e-05
2.63322e-06
-4.39629e-06
-2.20301e-05
-4.27859e-06
-1.28766e-05
6.05401e-05
-6.62115e-08
-7.49249e-07
6.00084e-05
2.91158e-07
-2.07336e-06
5.9137e-05
7.09859e-07
-3.27097e-06
5.79032e-05
1.10749e-06
-4.47769e-06
5.62785e-05
1.42037e-06
-5.81613e-06
5.42436e-05
1.59521e-06
-7.37391e-06
5.17903e-05
1.59967e-06
-9.19936e-06
4.89094e-05
1.44109e-06
-1.13062e-05
4.55662e-05
1.16825e-06
-1.36851e-05
4.16571e-05
8.50722e-07
-1.63138e-05
3.6992e-05
5.30134e-07
-1.91778e-05
3.12651e-05
1.85542e-07
-2.22508e-05
2.40812e-05
-3.20742e-07
-2.53756e-05
1.52574e-05
-1.31668e-06
-2.76777e-05
5.69666e-06
-2.88507e-06
-2.63012e-05
-3.83713e-06
-1.49649e-05
7.85876e-05
-8.06054e-08
-5.81977e-07
7.81476e-05
4.03984e-07
-1.69674e-06
7.74032e-05
9.31678e-07
-2.76959e-06
7.6329e-05
1.45203e-06
-3.88776e-06
7.48627e-05
1.91101e-06
-5.15521e-06
7.2922e-05
2.25513e-06
-6.67381e-06
7.04202e-05
2.44624e-06
-8.5244e-06
6.72722e-05
2.48908e-06
-1.07524e-05
6.33824e-05
2.4424e-06
-1.33612e-05
5.86091e-05
2.41291e-06
-1.63168e-05
5.27063e-05
2.51394e-06
-1.95576e-05
4.5261e-05
2.81898e-06
-2.30086e-05
3.56685e-05
3.26281e-06
-2.65102e-05
2.33259e-05
3.50761e-06
-2.92716e-05
9.17571e-06
2.6572e-06
-2.80933e-05
-2.45226e-07
-1.59165e-05
9.30095e-05
-1.08078e-07
-4.81821e-07
9.26448e-05
4.92794e-07
-1.42089e-06
9.20168e-05
1.11678e-06
-2.33725e-06
9.11092e-05
1.74158e-06
-3.2969e-06
8.98527e-05
2.33937e-06
-4.38661e-06
8.81302e-05
2.8774e-06
-5.71238e-06
8.57901e-05
3.33166e-06
-7.38602e-06
8.26647e-05
3.71414e-06
-9.50006e-06
7.85781e-05
4.09098e-06
-1.2102e-05
7.3325e-05
4.59606e-06
-1.51766e-05
6.66168e-05
5.40512e-06
-1.86431e-05
5.79793e-05
6.7202e-06
-2.23751e-05
4.66299e-05
8.66964e-06
-2.62063e-05
3.15064e-05
1.11018e-05
-2.94421e-05
1.30586e-05
1.23046e-05
-2.87247e-05
7.13792e-06
-1.62856e-05
0.000103812
-1.32786e-07
-4.17354e-07
0.000103498
5.66011e-07
-1.23474e-06
0.000102959
1.27233e-06
-2.03065e-06
0.000102185
1.98482e-06
-2.85752e-06
0.000101117
2.70468e-06
-3.78356e-06
9.96334e-05
3.4305e-06
-4.90418e-06
9.75551e-05
4.16783e-06
-6.34226e-06
9.46601e-05
4.95183e-06
-8.22595e-06
9.07044e-05
5.86446e-06
-1.06527e-05
8.54171e-05
7.06549e-06
-1.36514e-05
7.84658e-05
8.78134e-06
-1.7159e-05
6.93341e-05
1.13552e-05
-2.10239e-05
5.71645e-05
1.51558e-05
-2.50536e-05
4.03691e-05
2.06168e-05
-2.87137e-05
1.81338e-05
2.5847e-05
-2.86324e-05
1.97695e-05
-1.62436e-05
0.000111002
-1.4432e-07
-3.71226e-07
0.000110727
6.27017e-07
-1.10151e-06
0.000110264
1.3948e-06
-1.80949e-06
0.000109607
2.17345e-06
-2.5392e-06
0.000108711
2.9899e-06
-3.34388e-06
0.000107467
3.87481e-06
-4.30247e-06
0.000105699
4.86876e-06
-5.53115e-06
0.000103174
6.03845e-06
-7.17e-06
9.96239e-05
7.48761e-06
-9.34718e-06
9.47515e-05
9.40209e-06
-1.21307e-05
8.82217e-05
1.20443e-05
-1.5489e-05
7.95179e-05
1.59088e-05
-1.92773e-05
6.78295e-05
2.15836e-05
-2.32782e-05
5.1152e-05
3.05262e-05
-2.71803e-05
2.63435e-05
4.23921e-05
-2.79252e-05
4.10888e-05
-1.57861e-05
0.000114588
-3.36382e-07
-1.37221e-07
0.000114346
-1.00078e-06
6.74797e-07
0.000113957
-1.64143e-06
1.47414e-06
0.000113422
-2.29707e-06
2.28795e-06
0.000112704
-3.01161e-06
3.16454e-06
0.000111711
-3.8508e-06
4.16271e-06
0.000110289
-4.91836e-06
5.35496e-06
0.000108227
-6.34877e-06
6.8358e-06
0.000105281
-8.2752e-06
8.72455e-06
0.000101199
-1.07795e-05
1.12155e-05
9.57354e-05
-1.38467e-05
1.45686e-05
8.8541e-05
-1.73463e-05
1.93677e-05
7.90851e-05
-2.10372e-05
2.6339e-05
6.54598e-05
-2.47783e-05
3.818e-05
4.2635e-05
-2.66549e-05
5.7729e-05
-1.45641e-05
7.95144e-05
1.43607e-05
-1.30673e-07
-6.8362e-07
1.40337e-05
-4.51388e-09
-1.25582e-06
1.34697e-05
1.34987e-07
-1.62532e-06
1.27116e-05
2.3657e-07
-1.97465e-06
1.17912e-05
2.94445e-07
-2.36638e-06
1.07391e-05
3.02948e-07
-2.82553e-06
9.58986e-06
2.54787e-07
-3.36336e-06
8.37345e-06
1.50272e-07
-3.98578e-06
7.1108e-06
-8.99538e-09
-4.69611e-06
5.80715e-06
-2.15962e-07
-5.49436e-06
4.46114e-06
-4.79516e-07
-6.3762e-06
3.08384e-06
-8.27669e-07
-7.31631e-06
1.73036e-06
-1.30566e-06
-8.22641e-06
5.37352e-07
-1.92709e-06
-8.84172e-06
-1.63335e-07
-2.57944e-06
-8.45285e-06
-2.32826e-06
-5.29496e-06
4.02029e-05
-9.81187e-08
-7.56208e-07
3.95788e-05
1.17323e-07
-1.82262e-06
3.85855e-05
3.99041e-07
-2.6681e-06
3.72278e-05
6.44704e-07
-3.47377e-06
3.55216e-05
8.08561e-07
-4.34785e-06
3.34972e-05
8.56562e-07
-5.34669e-06
3.11925e-05
7.68054e-07
-6.49406e-06
2.86374e-05
5.47167e-07
-7.79482e-06
2.58238e-05
2.29675e-07
-9.2473e-06
2.27134e-05
-1.70243e-07
-1.08396e-05
1.92165e-05
-6.25853e-07
-1.25631e-05
1.52379e-05
-1.19163e-06
-1.43745e-05
1.07503e-05
-1.98437e-06
-1.61025e-05
5.95802e-06
-3.0924e-06
-1.71625e-05
1.69318e-06
-4.3824e-06
-1.59623e-05
-4.2358e-06
-9.09278e-06
6.25794e-05
-8.21068e-08
-5.80925e-07
6.1977e-05
2.62318e-07
-1.61596e-06
6.09901e-05
6.7006e-07
-2.55509e-06
5.95976e-05
1.05821e-06
-3.49873e-06
5.77698e-05
1.36093e-06
-4.5407e-06
5.54814e-05
1.52147e-06
-5.75038e-06
5.2716e-05
1.50126e-06
-7.16724e-06
4.94558e-05
1.30365e-06
-8.80246e-06
4.56638e-05
9.78882e-07
-1.06423e-05
4.12357e-05
6.08844e-07
-1.26648e-05
3.60068e-05
2.57076e-07
-1.48319e-05
2.97272e-05
-7.9891e-08
-1.70829e-05
2.21632e-05
-5.63806e-07
-1.92322e-05
1.33749e-05
-1.39063e-06
-2.05911e-05
4.59248e-06
-2.80744e-06
-1.90938e-05
-3.74474e-06
-1.05554e-05
8.12441e-05
-9.7732e-08
-4.50066e-07
8.0745e-05
3.83072e-07
-1.3184e-06
7.98966e-05
9.06356e-07
-2.15749e-06
7.86742e-05
1.42338e-06
-3.0306e-06
7.70148e-05
1.8799e-06
-4.01477e-06
7.48309e-05
2.21934e-06
-5.1878e-06
7.20245e-05
2.39776e-06
-6.61443e-06
6.84945e-05
2.41414e-06
-8.33287e-06
6.41301e-05
2.32748e-06
-1.03454e-05
5.87836e-05
2.25494e-06
-1.26163e-05
5.22261e-05
2.33042e-06
-1.50735e-05
4.41079e-05
2.65413e-06
-1.76245e-05
3.39477e-05
3.18496e-06
-2.00987e-05
2.14763e-05
3.61504e-06
-2.18058e-05
8.03249e-06
2.95082e-06
-2.04078e-05
2.0435e-08
-1.11976e-05
9.61574e-05
-1.26856e-07
-3.72478e-07
9.57427e-05
4.8004e-07
-1.10309e-06
9.50225e-05
1.10884e-06
-1.81953e-06
9.39794e-05
1.73952e-06
-2.56999e-06
9.25443e-05
2.34562e-06
-3.41725e-06
9.05974e-05
2.89346e-06
-4.43955e-06
8.79771e-05
3.35496e-06
-5.72297e-06
8.44967e-05
3.73702e-06
-7.34247e-06
7.99556e-05
4.10487e-06
-9.33831e-06
7.41291e-05
4.60081e-06
-1.16959e-05
6.67311e-05
5.42034e-06
-1.43351e-05
5.73355e-05
6.79646e-06
-1.71218e-05
4.52922e-05
8.88879e-06
-1.98669e-05
2.98642e-05
1.15548e-05
-2.19538e-05
1.1989e-05
1.2984e-05
-2.08826e-05
7.7716e-06
-1.14427e-05
0.000107327
-1.52786e-07
-3.22677e-07
0.00010697
5.60689e-07
-9.58532e-07
0.000106348
1.28103e-06
-1.58103e-06
0.000105451
2.00913e-06
-2.2294e-06
0.000104217
2.7485e-06
-2.95249e-06
0.000102526
3.49881e-06
-3.81853e-06
0.000100193
4.26441e-06
-4.91896e-06
9.69795e-05
5.07839e-06
-6.35406e-06
9.26131e-05
6.02289e-06
-8.20426e-06
8.67917e-05
7.26523e-06
-1.04944e-05
7.9169e-05
9.04925e-06
-1.31652e-05
6.92614e-05
1.17475e-05
-1.60673e-05
5.63273e-05
1.57625e-05
-1.89932e-05
3.90769e-05
2.15344e-05
-2.14429e-05
1.72189e-05
2.70702e-05
-2.08606e-05
2.09389e-05
-1.14292e-05
0.000114762
-1.64501e-07
-2.87021e-07
0.000114448
6.28581e-07
-8.55222e-07
0.00011391
1.41842e-06
-1.40912e-06
0.000113141
2.22161e-06
-1.98249e-06
0.000112091
3.06766e-06
-2.61365e-06
0.000110656
3.98956e-06
-3.35771e-06
0.000108658
5.02955e-06
-4.2986e-06
0.000105853
6.25642e-06
-5.54315e-06
0.000101946
7.77729e-06
-7.19472e-06
9.66055e-05
9.78689e-06
-9.31147e-06
8.94685e-05
1.25626e-05
-1.18653e-05
8.0034e-05
1.66246e-05
-1.47199e-05
6.75844e-05
2.25911e-05
-1.76573e-05
5.03542e-05
3.19382e-05
-2.03539e-05
2.57051e-05
4.42335e-05
-2.04394e-05
4.2954e-05
-1.11755e-05
0.000118469
-2.60017e-07
-1.56243e-07
0.000118191
-7.77062e-07
6.82893e-07
0.000117736
-1.27845e-06
1.51073e-06
0.000117098
-1.79432e-06
2.35641e-06
0.00011624
-2.35656e-06
3.27068e-06
0.000115074
-3.01032e-06
4.31509e-06
0.000113448
-3.82907e-06
5.5661e-06
0.000111145
-4.91362e-06
7.12432e-06
0.000107901
-6.37015e-06
9.11619e-06
0.00010343
-8.26885e-06
1.17473e-05
9.74559e-05
-1.05996e-05
1.52898e-05
8.96289e-05
-1.32458e-05
2.0351e-05
7.94891e-05
-1.59827e-05
2.76764e-05
6.52752e-05
-1.864e-05
4.00138e-05
4.23995e-05
-1.96607e-05
6.01149e-05
-1.03836e-05
8.2247e-05
1.4696e-05
-1.4035e-07
-4.72149e-07
1.43319e-05
-2.2869e-08
-8.68821e-07
1.37158e-05
1.15429e-07
-1.12462e-06
1.28939e-05
2.13289e-07
-1.36605e-06
1.18973e-05
2.66684e-07
-1.63643e-06
1.07555e-05
2.69267e-07
-1.95299e-06
9.50256e-06
2.12706e-07
-2.32316e-06
8.1706e-06
9.60966e-08
-2.74992e-06
6.78564e-06
-7.80135e-08
-3.23315e-06
5.3601e-06
-2.99511e-07
-3.7693e-06
3.90671e-06
-5.7327e-07
-4.34955e-06
2.45729e-06
-9.18006e-07
-4.94888e-06
1.09927e-06
-1.36856e-06
-5.49983e-06
2.07803e-08
-1.9395e-06
-5.82373e-06
-4.1845e-07
-2.53423e-06
-5.47939e-06
-2.26488e-06
-3.3842e-06
4.11749e-05
-1.09915e-07
-5.18223e-07
4.04903e-05
9.25129e-08
-1.2534e-06
3.94084e-05
3.66131e-07
-1.83685e-06
3.79349e-05
6.04244e-07
-2.39128e-06
3.60856e-05
7.59558e-07
-2.99139e-06
3.38886e-05
7.95824e-07
-3.67623e-06
3.13804e-05
6.89279e-07
-4.46242e-06
2.85895e-05
4.44816e-07
-5.35264e-06
2.5518e-05
8.65354e-08
-6.34039e-06
2.21332e-05
-3.40103e-07
-7.41415e-06
1.83742e-05
-8.20665e-07
-8.55669e-06
1.41898e-05
-1.3844e-06
-9.72368e-06
9.62638e-06
-2.12297e-06
-1.07846e-05
4.99406e-06
-3.12574e-06
-1.1344e-05
1.19708e-06
-4.30889e-06
-1.03907e-05
-4.14436e-06
-5.83195e-06
6.41081e-05
-9.42106e-08
-3.9608e-07
6.34508e-05
2.4058e-07
-1.10671e-06
6.23742e-05
6.40174e-07
-1.75253e-06
6.08586e-05
1.02125e-06
-2.40016e-06
5.88738e-05
1.31665e-06
-3.11302e-06
5.63918e-05
1.46633e-06
-3.93882e-06
5.33913e-05
1.42759e-06
-4.90509e-06
4.98524e-05
1.20078e-06
-6.01947e-06
4.5732e-05
8.36408e-07
-7.27185e-06
4.09396e-05
4.25429e-07
-8.63792e-06
3.53361e-05
3.73656e-08
-1.00864e-05
2.87273e-05
-3.06665e-07
-1.15518e-05
2.09713e-05
-7.0564e-07
-1.28936e-05
1.2284e-05
-1.39396e-06
-1.36355e-05
4.01074e-06
-2.67877e-06
-1.24507e-05
-3.60898e-06
-6.7701e-06
8.32358e-05
-1.10774e-07
-3.06249e-07
8.26913e-05
3.67696e-07
-9.00968e-07
8.17627e-05
8.88119e-07
-1.47689e-06
8.04258e-05
1.40308e-06
-2.07548e-06
7.86171e-05
1.8583e-06
-2.74776e-06
7.62465e-05
2.19512e-06
-3.54597e-06
7.32092e-05
2.36512e-06
-4.51468e-06
6.93955e-05
2.36262e-06
-5.68098e-06
6.46872e-05
2.24627e-06
-7.04695e-06
5.89394e-05
2.14081e-06
-8.58396e-06
5.19379e-05
2.19491e-06
-1.02295e-05
4.33824e-05
2.53471e-06
-1.19104e-05
3.291e-05
3.14855e-06
-1.34804e-05
2.04355e-05
3.73096e-06
-1.44563e-05
7.44879e-06
3.22233e-06
-1.33222e-05
2.71998e-07
-7.17582e-06
9.85178e-05
-1.41165e-07
-2.53348e-07
9.80647e-05
4.71065e-07
-7.53334e-07
9.72739e-05
1.10424e-06
-1.24486e-06
9.61267e-05
1.74008e-06
-1.75979e-06
9.45536e-05
2.35331e-06
-2.33915e-06
9.24335e-05
2.90987e-06
-3.03417e-06
8.95995e-05
3.37886e-06
-3.90272e-06
8.5854e-05
3.76258e-06
-4.99697e-06
8.09827e-05
4.12521e-06
-6.34594e-06
7.47518e-05
4.61419e-06
-7.93832e-06
6.68833e-05
5.43974e-06
-9.71141e-06
5.69959e-05
6.85922e-06
-1.15589e-05
4.4546e-05
9.05719e-06
-1.33256e-05
2.89939e-05
1.1896e-05
-1.45668e-05
1.14768e-05
1.3501e-05
-1.36441e-05
8.24666e-06
-7.33291e-06
0.000109963
-1.67992e-07
-2.19467e-07
0.000109572
5.57557e-07
-6.54589e-07
0.000108888
1.28947e-06
-1.08171e-06
0.000107895
2.03032e-06
-1.52722e-06
0.000106534
2.78548e-06
-2.02306e-06
0.000104682
3.55585e-06
-2.61296e-06
0.000102154
4.34508e-06
-3.35687e-06
9.87013e-05
5.18425e-06
-4.32304e-06
9.40357e-05
6.15465e-06
-5.56811e-06
8.7838e-05
7.42779e-06
-7.11034e-06
7.97586e-05
9.25883e-06
-8.90486e-06
6.93464e-05
1.20407e-05
-1.08366e-05
5.59513e-05
1.61988e-05
-1.27398e-05
3.84701e-05
2.21777e-05
-1.42434e-05
1.68322e-05
2.79307e-05
-1.36525e-05
2.17507e-05
-7.33551e-06
0.000117581
-1.7978e-07
-1.95207e-07
0.000117237
6.30913e-07
-5.84108e-07
0.000116642
1.43859e-06
-9.642e-07
0.000115787
2.26148e-06
-1.3586e-06
0.000114621
3.13124e-06
-1.79261e-06
0.000113037
4.08281e-06
-2.301e-06
0.000110861
5.15983e-06
-2.93769e-06
0.000107844
6.43232e-06
-3.77396e-06
0.000103677
8.00885e-06
-4.88155e-06
9.80066e-05
1.0089e-05
-6.30262e-06
9.04587e-05
1.29583e-05
-8.01677e-06
8.05488e-05
1.71523e-05
-9.92166e-06
6.76324e-05
2.33057e-05
-1.18477e-05
5.00964e-05
3.29039e-05
-1.35441e-05
2.55195e-05
4.54832e-05
-1.34151e-05
4.42183e-05
-7.20028e-06
0.000121379
-1.76813e-07
-1.70552e-07
0.000121074
-5.30764e-07
6.90425e-07
0.000120568
-8.74887e-07
1.5411e-06
0.000119852
-1.23e-06
2.41225e-06
0.000118888
-1.61736e-06
3.35659e-06
0.000117588
-2.06521e-06
4.43786e-06
0.000115803
-2.62004e-06
5.73539e-06
0.000113316
-3.3483e-06
7.35402e-06
0.000109853
-4.32302e-06
9.4246e-06
0.000105109
-5.59511e-06
1.21594e-05
9.87906e-05
-7.15865e-06
1.5836e-05
9.0552e-05
-8.92899e-06
2.10742e-05