/*--------------------------------*- C++ -*----------------------------------*\
| =========                 |                                                 |
| \\      /  F ield         | foam-extend: Open Source CFD                    |
|  \\    /   O peration     | Version:     3.1                                |
|   \\  /    A nd           | Web:         http://www.extend-project.de       |
|    \\/     M anipulation  |                                                 |
\*---------------------------------------------------------------------------*/
FoamFile
{
    version     2.0;
    format      ascii;
    class       pointVectorField;
    location    "3.1";
    object      pointMotionU;
}
// * * * * * * * * * * * * * * * * * * * * * * * * * * * * * * * * * * * * * //

dimensions      [0 1 -1 0 0 0 0];

internalField   nonuniform List<vector> 
16859
(
(0 0 0)
(0 0 0)
(0 0 0)
(0 0 0)
(0 0 0)
(0 0 0)
(0 0 0)
(0 0 0)
(0 0 0)
(0 0 0)
(0 0 0)
(0 0 0)
(0 0 0)
(0 0 0)
(0 0 0)
(0 0 0)
(0 0 0)
(0 0 0)
(-4.71793e-11 -2.64676e-12 2.96372e-13)
(-9.12362e-11 -5.30504e-12 5.98066e-13)
(-1.32203e-10 -8.16197e-12 9.28865e-13)
(-1.71545e-10 -1.15141e-11 1.3227e-12)
(-2.10666e-10 -1.57304e-11 1.81824e-12)
(-2.51002e-10 -2.13196e-11 2.4635e-12)
(-2.94117e-10 -2.90271e-11 3.32068e-12)
(-3.41795e-10 -3.99807e-11 4.47038e-12)
(-3.96118e-10 -5.59143e-11 6.01118e-12)
(-4.59479e-10 -7.94908e-11 8.04211e-12)
(-5.3441e-10 -1.14731e-10 1.05941e-11)
(-6.22969e-10 -1.67428e-10 1.34241e-11)
(-7.25125e-10 -2.44976e-10 1.54924e-11)
(-8.35191e-10 -3.53208e-10 1.39403e-11)
(-9.34261e-10 -4.78832e-10 3.61561e-12)
(-1.14835e-09 -1.12843e-09 -2.07995e-10)
(0 0 0)
(-9.32455e-11 -5.05687e-12 5.77109e-13)
(-1.80254e-10 -1.01158e-11 1.16432e-12)
(-2.6104e-10 -1.55122e-11 1.80789e-12)
(-3.38442e-10 -2.17801e-11 2.57419e-12)
(-4.15156e-10 -2.95719e-11 3.53974e-12)
(-4.93914e-10 -3.97703e-11 4.80147e-12)
(-5.77664e-10 -5.36457e-11 6.48929e-12)
(-6.69744e-10 -7.30882e-11 8.78192e-12)
(-7.74032e-10 -1.00949e-10 1.19247e-11)
(-8.95004e-10 -1.41512e-10 1.62426e-11)
(-1.03751e-09 -2.01036e-10 2.2127e-11)
(-1.20584e-09 -2.88043e-10 2.99452e-11)
(-1.40115e-09 -4.12102e-10 3.97789e-11)
(-1.61537e-09 -5.77024e-10 5.08596e-11)
(-1.81807e-09 -7.54308e-10 5.99852e-11)
(-2.25285e-09 -1.30009e-09 1.95794e-10)
(0 0 0)
(-1.37251e-10 -7.03703e-12 8.28422e-13)
(-2.65173e-10 -1.40318e-11 1.67056e-12)
(-3.83662e-10 -2.14e-11 2.59237e-12)
(-4.96767e-10 -2.98125e-11 3.68935e-12)
(-6.08279e-10 -4.00614e-11 5.0731e-12)
(-7.2198e-10 -5.31811e-11 6.88819e-12)
(-8.41879e-10 -7.061e-11 9.33539e-12)
(-9.72442e-10 -9.44196e-11 1.27062e-11)
(-1.11879e-09 -1.27629e-10 1.74355e-11)
(-1.28684e-09 -1.74603e-10 2.41827e-11)
(-1.48311e-09 -2.41417e-10 3.39527e-11)
(-1.71385e-09 -3.35743e-10 4.82683e-11)
(-1.98234e-09 -4.64822e-10 6.93539e-11)
(-2.28173e-09 -6.27552e-10 9.98714e-11)
(-2.57817e-09 -7.90053e-10 1.38398e-10)
(-3.3353e-09 -1.26734e-09 4.26127e-10)
(0 0 0)
(-1.78352e-10 -8.45743e-12 1.03857e-12)
(-3.44336e-10 -1.67897e-11 2.09256e-12)
(-4.97608e-10 -2.54136e-11 3.24336e-12)
(-6.43204e-10 -3.50204e-11 4.60993e-12)
(-7.85758e-10 -4.63812e-11 6.33279e-12)
(-9.29789e-10 -6.04411e-11 8.59714e-12)
(-1.07997e-09 -7.84351e-11 1.16668e-11)
(-1.24134e-09 -1.02031e-10 1.59378e-11)
(-1.41957e-09 -1.33501e-10 2.20258e-11)
(-1.62106e-09 -1.75897e-10 3.09107e-11)
(-1.85286e-09 -2.33118e-10 4.41644e-11)
(-2.122e-09 -3.09547e-10 6.42703e-11)
(-2.43308e-09 -4.08353e-10 9.48751e-11)
(-2.78109e-09 -5.26014e-10 1.39939e-10)
(-3.13297e-09 -6.36847e-10 1.96194e-10)
(-4.01325e-09 -9.54591e-10 5.61633e-10)
(0 0 0)
(-2.15874e-10 -9.26491e-12 1.19885e-12)
(-4.1644e-10 -1.82912e-11 2.41231e-12)
(-6.00979e-10 -2.74233e-11 3.73138e-12)
(-7.75266e-10 -3.72683e-11 5.29056e-12)
(-9.44506e-10 -4.84389e-11 7.24931e-12)
(-1.11363e-09 -6.16e-11 9.81962e-12)
(-1.28755e-09 -7.7504e-11 1.33069e-11)
(-1.47136e-09 -9.70061e-11 1.81757e-11)
(-1.67052e-09 -1.21038e-10 2.51584e-11)
(-1.8909e-09 -1.505e-10 3.5431e-11)
(-2.13871e-09 -1.86009e-10 5.08797e-11)
(-2.41992e-09 -2.2744e-10 7.44285e-11)
(-2.73837e-09 -2.73236e-10 1.10126e-10)
(-3.08967e-09 -3.19299e-10 1.61617e-10)
(-3.44516e-09 -3.55808e-10 2.23206e-10)
(-4.3116e-09 -4.90527e-10 5.82294e-10)
(0 0 0)
(-2.49328e-10 -9.48029e-12 1.30448e-12)
(-4.80558e-10 -1.85939e-11 2.61977e-12)
(-6.92471e-10 -2.75609e-11 4.03973e-12)
(-8.91335e-10 -3.683e-11 5.70486e-12)
(-1.08267e-09 -4.67715e-11 7.78091e-12)
(-1.27151e-09 -5.7669e-11 1.04876e-11)
(-1.46268e-09 -6.96717e-11 1.41411e-11)
(-1.66087e-09 -8.26853e-11 1.92211e-11)
(-1.87073e-09 -9.61638e-11 2.64809e-11)
(-2.09684e-09 -1.08746e-10 3.71205e-11)
(-2.34339e-09 -1.17709e-10 5.30392e-11)
(-2.61361e-09 -1.18338e-10 7.71206e-11)
(-2.9082e-09 -1.03833e-10 1.13223e-10)
(-3.22136e-09 -6.78491e-11 1.64451e-10)
(-3.53201e-09 -1.4889e-11 2.24114e-10)
(-4.28447e-09 7.54199e-11 5.63238e-10)
(0 0 0)
(-2.78413e-10 -9.18383e-12 1.35508e-12)
(-5.36141e-10 -1.78784e-11 2.71408e-12)
(-7.71372e-10 -2.61551e-11 4.16685e-12)
(-9.90637e-10 -3.4271e-11 5.84999e-12)
(-1.19954e-09 -4.23323e-11 7.92234e-12)
(-1.40303e-09 -5.02398e-11 1.05913e-11)
(-1.60555e-09 -5.7582e-11 1.41507e-11)
(-1.81114e-09 -6.34474e-11 1.904e-11)
(-2.02339e-09 -6.6112e-11 2.59369e-11)
(-2.24518e-09 -6.25532e-11 3.58982e-11)
(-2.47828e-09 -4.77595e-11 5.05595e-11)
(-2.7224e-09 -1.39401e-11 7.23632e-11)
(-2.97357e-09 4.97477e-11 1.04612e-10)
(-3.22092e-09 1.54343e-10 1.50362e-10)
(-3.44438e-09 2.93615e-10 2.05108e-10)
(-3.99504e-09 7.60525e-10 5.09322e-10)
(0 0 0)
(-3.0297e-10 -8.49317e-12 1.35456e-12)
(-5.82935e-10 -1.63994e-11 2.70354e-12)
(-8.37427e-10 -2.36454e-11 4.12667e-12)
(-1.07305e-09 -3.03018e-11 5.74784e-12)
(-1.29531e-09 -3.62426e-11 7.70738e-12)
(-1.50892e-09 -4.10634e-11 1.01833e-11)
(-1.71786e-09 -4.39518e-11 1.34206e-11)
(-1.92543e-09 -4.34866e-11 1.77753e-11)
(-2.13414e-09 -3.73356e-11 2.37765e-11)
(-2.34541e-09 -2.18391e-11 3.22132e-11)
(-2.55899e-09 8.48669e-12 4.42333e-11)
(-2.77201e-09 6.13285e-11 6.14007e-11)
(-2.9774e-09 1.46124e-10 8.54992e-11)
(-3.16149e-09 2.7043e-10 1.17303e-10)
(-3.30527e-09 4.26067e-10 1.51072e-10)
(-3.08153e-09 1.33605e-09 4.72759e-10)
(0 0 0)
(0 0 0)
(0 0 0)
(0 0 0)
(0 0 0)
(0 0 0)
(0 0 0)
(0 0 0)
(0 0 0)
(0 0 0)
(0 0 0)
(0 0 0)
(0 0 0)
(0 0 0)
(0 0 0)
(0 0 0)
(0 0 0)
(0 0 0)
(-4.75119e-11 -2.97488e-12 2.67808e-13)
(-9.18686e-11 -5.97259e-12 5.37142e-13)
(-1.33103e-10 -9.21376e-12 8.2573e-13)
(-1.72698e-10 -1.30428e-11 1.15893e-12)
(-2.12072e-10 -1.78887e-11 1.56336e-12)
(-2.52669e-10 -2.43425e-11 2.06911e-12)
(-2.96058e-10 -3.32709e-11 2.71117e-12)
(-3.44015e-10 -4.59898e-11 3.52907e-12)
(-3.98597e-10 -6.45345e-11 4.56054e-12)
(-4.62125e-10 -9.20689e-11 5.81757e-12)
(-5.36981e-10 -1.33473e-10 7.21338e-12)
(-6.24919e-10 -1.96064e-10 8.36248e-12)
(-7.25342e-10 -2.89967e-10 8.09534e-12)
(-8.31534e-10 -4.25397e-10 3.60886e-12)
(-9.21498e-10 -5.9044e-10 -8.65812e-12)
(-1.03918e-09 -1.15225e-09 -1.3097e-10)
(0 0 0)
(-9.38913e-11 -5.68875e-12 5.21812e-13)
(-1.81479e-10 -1.13995e-11 1.04647e-12)
(-2.62777e-10 -1.75296e-11 1.60864e-12)
(-3.40655e-10 -2.4702e-11 2.25835e-12)
(-4.1783e-10 -3.36775e-11 3.04928e-12)
(-4.97049e-10 -4.54854e-11 4.0445e-12)
(-5.81256e-10 -6.16074e-11 5.32292e-12)
(-6.73758e-10 -8.4253e-11 6.9869e-12)
(-7.78352e-10 -1.16773e-10 9.17019e-12)
(-8.99335e-10 -1.64254e-10 1.20418e-11)
(-1.04119e-09 -2.34275e-10 1.57933e-11)
(-1.20746e-09 -3.37562e-10 2.05815e-11)
(-1.39789e-09 -4.87294e-10 2.63928e-11)
(-1.60147e-09 -6.92284e-10 3.28378e-11)
(-1.77866e-09 -9.24209e-10 3.87627e-11)
(-1.96855e-09 -1.42012e-09 5.92888e-11)
(0 0 0)
(-1.38175e-10 -7.92834e-12 7.49743e-13)
(-2.66917e-10 -1.58381e-11 1.5031e-12)
(-3.86121e-10 -2.42274e-11 2.30987e-12)
(-4.9987e-10 -3.38845e-11 3.24286e-12)
(-6.1198e-10 -4.57399e-11 4.38226e-12)
(-7.26237e-10 -6.10086e-11 5.82643e-12)
(-8.46622e-10 -8.13803e-11 7.70719e-12)
(-9.77522e-10 -1.0929e-10 1.02141e-11)
(-1.12389e-09 -1.48299e-10 1.36359e-11)
(-1.29127e-09 -2.03601e-10 1.84341e-11)
(-1.48552e-09 -2.82555e-10 2.5376e-11)
(-1.71162e-09 -3.9482e-10 3.57794e-11)
(-1.97041e-09 -5.50601e-10 5.19195e-11)
(-2.25016e-09 -7.52323e-10 7.72562e-11)
(-2.50166e-09 -9.65278e-10 1.12349e-10)
(-2.88068e-09 -1.36198e-09 2.10777e-10)
(0 0 0)
(-1.79505e-10 -9.54947e-12 9.40994e-13)
(-3.46504e-10 -1.89961e-11 1.88529e-12)
(-5.00638e-10 -2.88495e-11 2.89476e-12)
(-6.46981e-10 -3.99321e-11 4.06126e-12)
(-7.90181e-10 -5.31628e-11 5.48803e-12)
(-9.34743e-10 -6.96697e-11 7.30621e-12)
(-1.08527e-09 -9.09265e-11 9.69985e-12)
(-1.24665e-09 -1.18923e-10 1.29488e-11)
(-1.42425e-09 -1.56376e-10 1.75059e-11)
(-1.62388e-09 -2.06959e-10 2.41378e-11)
(-1.85156e-09 -2.75448e-10 3.41776e-11)
(-2.11244e-09 -3.67481e-10 4.99462e-11)
(-2.40775e-09 -4.88011e-10 7.52902e-11)
(-2.72606e-09 -6.35673e-10 1.15286e-10)
(-3.01506e-09 -7.84874e-10 1.68754e-10)
(-3.45647e-09 -1.03558e-09 2.97946e-10)
(0 0 0)
(-2.17203e-10 -1.04921e-11 1.08756e-12)
(-4.18924e-10 -2.07619e-11 2.17647e-12)
(-6.04416e-10 -3.12477e-11 3.33631e-12)
(-7.79486e-10 -4.26877e-11 4.67197e-12)
(-9.49337e-10 -5.58341e-11 6.30285e-12)
(-1.11886e-09 -7.15112e-11 8.38349e-12)
(-1.29284e-09 -9.06594e-11 1.11359e-11)
(-1.47615e-09 -1.14357e-10 1.49058e-11)
(-1.67378e-09 -1.43793e-10 2.02623e-11)
(-1.8908e-09 -1.80145e-10 2.81764e-11)
(-2.13201e-09 -2.24313e-10 4.03216e-11)
(-2.40094e-09 -2.76454e-10 5.95224e-11)
(-2.69729e-09 -3.35422e-10 9.01527e-11)
(-3.00941e-09 -3.98116e-10 1.37167e-10)
(-3.28883e-09 -4.56956e-10 1.97123e-10)
(-3.71147e-09 -5.64499e-10 3.19116e-10)
(0 0 0)
(-2.5078e-10 -1.07772e-11 1.18484e-12)
(-4.83253e-10 -2.11947e-11 2.36698e-12)
(-6.96157e-10 -3.15602e-11 3.61829e-12)
(-8.95781e-10 -4.24431e-11 5.04911e-12)
(-1.08762e-09 -5.43335e-11 6.78508e-12)
(-1.27666e-09 -6.76361e-11 8.98937e-12)
(-1.46753e-09 -8.262e-11 1.18974e-11)
(-1.66462e-09 -9.92943e-11 1.58766e-11)
(-1.87201e-09 -1.17161e-10 2.15311e-11)
(-2.09328e-09 -1.34777e-10 2.98819e-11)
(-2.33094e-09 -1.49082e-10 4.26635e-11)
(-2.58538e-09 -1.54598e-10 6.27429e-11)
(-2.85276e-09 -1.43264e-10 9.44352e-11)
(-3.12021e-09 -1.07747e-10 1.42331e-10)
(-3.3504e-09 -5.6578e-11 2.02062e-10)
(-3.71725e-09 -6.91764e-13 3.11663e-10)
(0 0 0)
(-2.79937e-10 -1.04898e-11 1.23215e-12)
(-5.38949e-10 -2.04873e-11 2.45526e-12)
(-7.75166e-10 -3.01397e-11 3.73783e-12)
(-9.95128e-10 -3.98095e-11 5.18737e-12)
(-1.20441e-09 -4.96971e-11 6.9248e-12)
(-1.40785e-09 -5.97839e-11 9.1051e-12)
(-1.60971e-09 -6.97131e-11 1.19492e-11)
(-1.81365e-09 -7.85716e-11 1.57978e-11)
(-2.02263e-09 -8.45162e-11 2.12019e-11)
(-2.23846e-09 -8.4173e-11 2.90763e-11)
(-2.46113e-09 -7.1744e-11 4.09486e-11)
(-2.68742e-09 -3.78672e-11 5.9329e-11)
(-2.90869e-09 3.11719e-11 8.81124e-11)
(-3.10689e-09 1.50668e-10 1.32123e-10)
(-3.24909e-09 3.12581e-10 1.89625e-10)
(-3.5387e-09 6.84886e-10 2.93584e-10)
(0 0 0)
(-3.04522e-10 -9.75642e-12 1.23279e-12)
(-5.85774e-10 -1.89134e-11 2.44823e-12)
(-8.41216e-10 -2.74605e-11 3.70619e-12)
(-1.07744e-09 -3.5556e-11 5.10388e-12)
(-1.29994e-09 -4.31434e-11 6.7475e-12)
(-1.51328e-09 -4.98648e-11 8.76906e-12)
(-1.72123e-09 -5.49143e-11 1.13515e-11)
(-1.92674e-09 -5.68016e-11 1.47689e-11)
(-2.13168e-09 -5.29867e-11 1.94504e-11)
(-2.33646e-09 -3.93508e-11 2.60801e-11)
(-2.53922e-09 -9.50725e-12 3.57424e-11)
(-2.73457e-09 4.58913e-11 5.00929e-11)
(-2.91161e-09 1.39154e-10 7.14137e-11)
(-3.05131e-09 2.82021e-10 1.01773e-10)
(-3.12728e-09 4.67038e-10 1.37204e-10)
(-2.70943e-09 1.27342e-09 2.9034e-10)
(0 0 0)
(0 0 0)
(0 0 0)
(0 0 0)
(0 0 0)
(0 0 0)
(0 0 0)
(0 0 0)
(0 0 0)
(0 0 0)
(0 0 0)
(0 0 0)
(0 0 0)
(0 0 0)
(0 0 0)
(0 0 0)
(0 0 0)
(0 0 0)
(-4.774e-11 -3.29947e-12 2.2976e-13)
(-9.22939e-11 -6.63341e-12 4.56815e-13)
(-1.33685e-10 -1.02553e-11 6.91526e-13)
(-1.73392e-10 -1.45557e-11 9.48413e-13)
(-2.12822e-10 -2.00191e-11 1.2383e-12)
(-2.53397e-10 -2.73095e-11 1.56655e-12)
(-2.96639e-10 -3.73932e-11 1.92853e-12)
(-3.4424e-10 -5.17253e-11 2.29962e-12)
(-3.98105e-10 -7.2533e-11 2.61449e-12)
(-4.60291e-10 -1.03231e-10 2.7229e-12)
(-5.32705e-10 -1.48974e-10 2.29449e-12)
(-6.16276e-10 -2.17186e-10 6.19163e-13)
(-7.09041e-10 -3.17263e-10 -3.75403e-12)
(-8.02488e-10 -4.56081e-10 -1.32923e-11)
(-8.75387e-10 -6.15339e-10 -2.91935e-11)
(-9.70286e-10 -1.12246e-09 -1.1625e-10)
(0 0 0)
(-9.43342e-11 -6.31492e-12 4.48061e-13)
(-1.82303e-10 -1.26727e-11 8.90874e-13)
(-2.63898e-10 -1.95322e-11 1.34898e-12)
(-3.41981e-10 -2.76025e-11 1.85165e-12)
(-4.19246e-10 -3.77468e-11 2.42232e-12)
(-4.98387e-10 -5.11261e-11 3.07691e-12)
(-5.82251e-10 -6.93994e-11 3.81843e-12)
(-6.73968e-10 -9.50182e-11 4.62591e-12)
(-7.7702e-10 -1.31658e-10 5.43272e-12)
(-8.95142e-10 -1.8481e-10 6.08409e-12)
(-1.03181e-09 -2.62461e-10 6.25439e-12)
(-1.18879e-09 -3.75391e-10 5.29185e-12)
(-1.36277e-09 -5.35377e-10 1.97685e-12)
(-1.53848e-09 -7.45841e-10 -5.56521e-12)
(-1.67709e-09 -9.69367e-10 -1.80372e-11)
(-1.78975e-09 -1.39366e-09 -6.83548e-11)
(0 0 0)
(-1.38806e-10 -8.8139e-12 6.44596e-13)
(-2.68087e-10 -1.76351e-11 1.28154e-12)
(-3.877e-10 -2.70447e-11 1.94086e-12)
(-5.01713e-10 -3.79465e-11 2.66639e-12)
(-6.139e-10 -5.14052e-11 3.49621e-12)
(-7.27965e-10 -6.88036e-11 4.46319e-12)
(-8.47731e-10 -9.20506e-11 5.59377e-12)
(-9.77304e-10 -1.23869e-10 6.90557e-12)
(-1.12114e-09 -1.68191e-10 8.40527e-12)
(-1.2839e-09 -2.30642e-10 1.00889e-11)
(-1.46986e-09 -3.18957e-10 1.19485e-11)
(-1.68118e-09 -4.42702e-10 1.39846e-11)
(-1.91389e-09 -6.10348e-10 1.61878e-11)
(-2.14944e-09 -8.18626e-10 1.83104e-11)
(-2.33934e-09 -1.02414e-09 1.91466e-11)
(-2.57268e-09 -1.36807e-09 -5.9141e-12)
(0 0 0)
(-1.8029e-10 -1.06383e-11 8.1028e-13)
(-3.47948e-10 -2.12001e-11 1.61037e-12)
(-5.02566e-10 -3.22903e-11 2.4382e-12)
(-6.49187e-10 -4.4864e-11 3.35063e-12)
(-7.92402e-10 -5.99887e-11 4.40053e-12)
(-9.36594e-10 -7.89718e-11 5.64083e-12)
(-1.08614e-09 -1.03511e-10 7.13009e-12)
(-1.24556e-09 -1.35876e-10 8.94361e-12)
(-1.41952e-09 -1.79119e-10 1.11974e-11)
(-1.61265e-09 -2.37271e-10 1.40973e-11)
(-1.82885e-09 -3.15368e-10 1.80266e-11)
(-2.06954e-09 -4.18855e-10 2.36553e-11)
(-2.32965e-09 -5.51155e-10 3.19009e-11)
(-2.58913e-09 -7.06416e-10 4.30699e-11)
(-2.79701e-09 -8.52319e-10 5.39077e-11)
(-3.03227e-09 -1.07608e-09 4.24661e-11)
(0 0 0)
(-2.18101e-10 -1.17211e-11 9.38091e-13)
(-4.20565e-10 -2.32423e-11 1.86285e-12)
(-6.06576e-10 -3.5101e-11 2.81745e-12)
(-7.819e-10 -4.8173e-11 3.86838e-12)
(-9.5166e-10 -6.33585e-11 5.08025e-12)
(-1.12059e-09 -8.16517e-11 6.5232e-12)
(-1.2932e-09 -1.04193e-10 8.28474e-12)
(-1.47388e-09 -1.32294e-10 1.04924e-11)
(-1.6668e-09 -1.67396e-10 1.33576e-11)
(-1.8756e-09 -2.10912e-10 1.72565e-11)
(-2.10256e-09 -2.63858e-10 2.28563e-11)
(-2.34692e-09 -3.262e-10 3.12323e-11)
(-2.60129e-09 -3.95893e-10 4.3677e-11)
(-2.84474e-09 -4.67602e-10 6.02466e-11)
(-3.03104e-09 -5.30011e-10 7.57664e-11)
(-3.18934e-09 -6.37905e-10 6.66121e-11)
(0 0 0)
(-2.51753e-10 -1.20822e-11 1.02376e-12)
(-4.85014e-10 -2.38203e-11 2.03001e-12)
(-6.98441e-10 -3.56175e-11 3.06347e-12)
(-8.98265e-10 -4.81764e-11 4.19524e-12)
(-1.08988e-09 -6.21231e-11 5.49564e-12)
(-1.2781e-09 -7.80101e-11 7.04363e-12)
(-1.46722e-09 -9.6268e-11 8.94205e-12)
(-1.6611e-09 -1.17075e-10 1.13458e-11)
(-1.86291e-09 -1.40088e-10 1.45141e-11)
(-2.07468e-09 -1.6397e-10 1.89016e-11)
(-2.29631e-09 -1.85652e-10 2.52942e-11)
(-2.52382e-09 -1.99498e-10 3.49252e-11)
(-2.74645e-09 -1.97272e-10 4.92432e-11)
(-2.943e-09 -1.71943e-10 6.82826e-11)
(-3.07993e-09 -1.32136e-10 8.61194e-11)
(-3.15995e-09 -1.06201e-10 7.8919e-11)
(0 0 0)
(-2.80949e-10 -1.18109e-11 1.06635e-12)
(-5.40766e-10 -2.31368e-11 2.10969e-12)
(-7.77482e-10 -3.42125e-11 3.17217e-12)
(-9.97572e-10 -4.5522e-11 4.32351e-12)
(-1.20649e-09 -5.73844e-11 5.63216e-12)
(-1.4089e-09 -6.99017e-11 7.17461e-12)
(-1.6087e-09 -8.28374e-11 9.05038e-12)
(-1.80902e-09 -9.53875e-11 1.14089e-11)
(-2.01189e-09 -1.05783e-10 1.44973e-11)
(-2.21765e-09 -1.10653e-10 1.87427e-11)
(-2.42384e-09 -1.04103e-10 2.48759e-11)
(-2.62336e-09 -7.66355e-11 3.40633e-11)
(-2.80173e-09 -1.48043e-11 4.78469e-11)
(-2.93466e-09 9.46158e-11 6.71435e-11)
(-2.99478e-09 2.39688e-10 8.82082e-11)
(-3.0536e-09 5.61252e-10 9.44907e-11)
(0 0 0)
(-3.05544e-10 -1.10412e-11 1.0684e-12)
(-5.87593e-10 -2.14825e-11 2.10706e-12)
(-8.43496e-10 -3.13899e-11 3.15162e-12)
(-1.07978e-09 -4.10289e-11 4.26461e-12)
(-1.3018e-09 -5.04426e-11 5.50522e-12)
(-1.51394e-09 -5.93677e-11 6.93671e-12)
(-1.71965e-09 -6.70842e-11 8.63798e-12)
(-1.92134e-09 -7.21667e-11 1.07235e-11)
(-2.12006e-09 -7.20979e-11 1.33768e-11)
(-2.31493e-09 -6.27125e-11 1.69037e-11)
(-2.5021e-09 -3.7498e-11 2.18035e-11)
(-2.67325e-09 1.30114e-11 2.88177e-11)
(-2.81359e-09 1.00804e-10 3.87833e-11)
(-2.90111e-09 2.35673e-10 5.16928e-11)
(-2.91546e-09 4.06124e-10 6.30707e-11)
(-2.32967e-09 1.15913e-09 1.35378e-10)
(0 0 0)
(0 0 0)
(0 0 0)
(0 0 0)
(0 0 0)
(0 0 0)
(0 0 0)
(0 0 0)
(0 0 0)
(0 0 0)
(0 0 0)
(0 0 0)
(0 0 0)
(0 0 0)
(0 0 0)
(0 0 0)
(0 0 0)
(0 0 0)
(-4.78828e-11 -3.60721e-12 1.86623e-13)
(-9.25498e-11 -7.26016e-12 3.66692e-13)
(-1.34006e-10 -1.12432e-11 5.43256e-13)
(-1.73716e-10 -1.59898e-11 7.19812e-13)
(-2.13058e-10 -2.20337e-11 8.90991e-13)
(-2.53413e-10 -3.01002e-11 1.03653e-12)
(-2.9623e-10 -4.12326e-11 1.10988e-12)
(-3.43089e-10 -5.69785e-11 1.01762e-12)
(-3.95717e-10 -7.96636e-11 5.82842e-13)
(-4.55893e-10 -1.12768e-10 -5.19012e-13)
(-5.25126e-10 -1.61378e-10 -2.86901e-12)
(-6.03831e-10 -2.32478e-10 -7.47008e-12)
(-6.89618e-10 -3.34227e-10 -1.59037e-11)
(-7.7439e-10 -4.71207e-10 -2.99973e-11)
(-8.39853e-10 -6.23825e-10 -4.8728e-11)
(-9.40361e-10 -1.10947e-09 -1.13966e-10)
(0 0 0)
(-9.46107e-11 -6.90936e-12 3.64322e-13)
(-1.82797e-10 -1.38822e-11 7.16045e-13)
(-2.64514e-10 -2.14357e-11 1.06164e-12)
(-3.4259e-10 -3.03596e-11 1.40917e-12)
(-4.19668e-10 -4.16095e-11 1.75094e-12)
(-4.98353e-10 -5.64596e-11 2.05342e-12)
(-5.81349e-10 -7.67097e-11 2.2385e-12)
(-6.71554e-10 -1.04979e-10 2.15064e-12)
(-7.72081e-10 -1.45118e-10 1.50097e-12)
(-8.86089e-10 -2.0273e-10 -2.25036e-13)
(-1.01619e-09 -2.85669e-10 -3.91098e-12)
(-1.16296e-09 -4.03932e-10 -1.09966e-11)
(-1.32189e-09 -5.67184e-10 -2.35729e-11)
(-1.47801e-09 -7.75101e-10 -4.36997e-11)
(-1.59818e-09 -9.88419e-10 -6.92244e-11)
(-1.70699e-09 -1.37602e-09 -1.36035e-10)
(0 0 0)
(-1.39199e-10 -9.65647e-12 5.24976e-13)
(-2.68783e-10 -1.93468e-11 1.03208e-12)
(-3.88556e-10 -2.97318e-11 1.53156e-12)
(-5.02535e-10 -4.18251e-11 2.03748e-12)
(-6.14415e-10 -5.68159e-11 2.54422e-12)
(-7.27764e-10 -7.62368e-11 3.01518e-12)
(-8.46191e-10 -1.0218e-10 3.36225e-12)
(-9.73448e-10 -1.37585e-10 3.41136e-12)
(-1.11342e-09 -1.86603e-10 2.84731e-12)
(-1.26989e-09 -2.55003e-10 1.12947e-12)
(-1.44572e-09 -3.5037e-10 -2.62614e-12)
(-1.6411e-09 -4.81368e-10 -9.77734e-12)
(-1.84985e-09 -6.54116e-10 -2.21678e-11)
(-2.05318e-09 -8.61348e-10 -4.14479e-11)
(-2.21086e-09 -1.05786e-09 -6.54138e-11)
(-2.42435e-09 -1.37164e-09 -1.31049e-10)
(0 0 0)
(-1.80773e-10 -1.16776e-11 6.61234e-13)
(-3.48798e-10 -2.33071e-11 1.30004e-12)
(-5.03591e-10 -3.55871e-11 1.93036e-12)
(-6.50129e-10 -4.96016e-11 2.57291e-12)
(-7.92895e-10 -6.65613e-11 3.22766e-12)
(-9.36096e-10 -8.79432e-11 3.86362e-12)
(-1.08382e-09 -1.15649e-10 4.40076e-12)
(-1.24013e-09 -1.52184e-10 4.68125e-12)
(-1.40894e-09 -2.00847e-10 4.42612e-12)
(-1.59368e-09 -2.65845e-10 3.17286e-12)
(-1.79639e-09 -3.5213e-10 1.89927e-13)
(-2.01573e-09 -4.64433e-10 -5.63013e-12)
(-2.24345e-09 -6.04247e-10 -1.58474e-11)
(-2.45853e-09 -7.62421e-10 -3.21281e-11)
(-2.6203e-09 -9.04688e-10 -5.3261e-11)
(-2.81412e-09 -1.11058e-09 -1.17245e-10)
(0 0 0)
(-2.1865e-10 -1.28986e-11 7.6722e-13)
(-4.21517e-10 -2.56238e-11 1.50788e-12)
(-6.07698e-10 -3.88133e-11 2.23862e-12)
(-7.82871e-10 -5.34804e-11 2.98603e-12)
(-9.5203e-10 -7.06752e-11 3.75673e-12)
(-1.1197e-09 -9.15657e-11 4.52927e-12)
(-1.29004e-09 -1.17499e-10 5.24041e-12)
(-1.4669e-09 -1.50024e-10 5.76436e-12)
(-1.65356e-09 -1.90838e-10 5.88309e-12)
(-1.85226e-09 -2.41578e-10 5.2438e-12)
(-2.06312e-09 -3.03346e-10 3.29221e-12)
(-2.28213e-09 -3.75838e-10 -8.50862e-13)
(-2.49801e-09 -4.56063e-10 -8.60789e-12)
(-2.68818e-09 -5.36762e-10 -2.19881e-11)
(-2.81747e-09 -6.04185e-10 -4.09946e-11)
(-2.90406e-09 -7.10448e-10 -1.05992e-10)
(0 0 0)
(-2.52339e-10 -1.33378e-11 8.3917e-13)
(-4.86021e-10 -2.63537e-11 1.64764e-12)
(-6.99594e-10 -3.95505e-11 2.44285e-12)
(-8.99192e-10 -5.37686e-11 3.25493e-12)
(-1.09006e-09 -6.97809e-11 4.09534e-12)
(-1.27677e-09 -8.83067e-11 4.95095e-12)
(-1.46326e-09 -1.09972e-10 5.77427e-12)
(-1.65278e-09 -1.35184e-10 6.46962e-12)
(-1.84757e-09 -1.63859e-10 6.87425e-12)
(-2.04821e-09 -1.94939e-10 6.73115e-12)
(-2.25237e-09 -2.25649e-10 5.63921e-12)
(-2.45282e-09 -2.50661e-10 2.93486e-12)
(-2.63495e-09 -2.6206e-10 -2.57821e-12)
(-2.77584e-09 -2.52848e-10 -1.29114e-11)
(-2.85264e-09 -2.29119e-10 -2.89565e-11)
(-2.83341e-09 -2.27889e-10 -9.44665e-11)
(0 0 0)
(-2.81552e-10 -1.30878e-11 8.75955e-13)
(-5.41787e-10 -2.57067e-11 1.71671e-12)
(-7.78616e-10 -3.81862e-11 2.53803e-12)
(-9.98407e-10 -5.11412e-11 3.3701e-12)
(-1.20646e-09 -6.50278e-11 4.22542e-12)
(-1.40718e-09 -8.01012e-11 5.09428e-12)
(-1.6041e-09 -9.63033e-11 5.93757e-12)
(-1.79976e-09 -1.13041e-10 6.67693e-12)
(-1.99529e-09 -1.288e-10 7.18225e-12)
(-2.18968e-09 -1.40531e-10 7.255e-12)
(-2.37847e-09 -1.42796e-10 6.59988e-12)
(-2.55184e-09 -1.26858e-10 4.76202e-12)
(-2.69225e-09 -8.06532e-11 1.00398e-12)
(-2.77466e-09 7.05506e-12 -5.71107e-12)
(-2.78173e-09 1.25623e-10 -1.53071e-11)
(-2.75294e-09 3.84437e-10 -6.66592e-11)
(0 0 0)
(-3.06146e-10 -1.22888e-11 8.79331e-13)
(-5.88599e-10 -2.39876e-11 1.7185e-12)
(-8.4458e-10 -3.52487e-11 2.529e-12)
(-1.0805e-09 -4.64575e-11 3.33725e-12)
(-1.30157e-09 -5.77807e-11 4.15239e-12)
(-1.51192e-09 -6.9091e-11 4.96214e-12)
(-1.71464e-09 -7.98262e-11 5.72648e-12)
(-1.91162e-09 -8.87503e-11 6.369e-12)
(-2.10311e-09 -9.35842e-11 6.76564e-12)
(-2.28711e-09 -9.04868e-11 6.73001e-12)
(-2.45823e-09 -7.34435e-11 5.99151e-12)
(-2.60623e-09 -3.38464e-11 4.15626e-12)
(-2.71469e-09 3.87931e-11 6.49664e-13)
(-2.76246e-09 1.52271e-10 -5.256e-12)
(-2.73798e-09 2.95827e-10 -1.41228e-11)
(-2.12379e-09 9.47392e-10 1.67188e-11)
(0 0 0)
(0 0 0)
(0 0 0)
(0 0 0)
(0 0 0)
(0 0 0)
(0 0 0)
(0 0 0)
(0 0 0)
(0 0 0)
(0 0 0)
(0 0 0)
(0 0 0)
(0 0 0)
(0 0 0)
(0 0 0)
(0 0 0)
(0 0 0)
(-4.7961e-11 -3.88394e-12 1.42644e-13)
(-9.26785e-11 -7.8239e-12 2.76182e-13)
(-1.34137e-10 -1.2132e-11 3.97815e-13)
(-1.73777e-10 -1.72789e-11 5.02169e-13)
(-2.12948e-10 -2.3841e-11 5.7124e-13)
(-2.5298e-10 -3.25926e-11 5.65107e-13)
(-2.95254e-10 -4.46338e-11 4.05647e-13)
(-3.41249e-10 -6.15701e-11 -5.14271e-14)
(-3.92559e-10 -8.57669e-11 -1.0626e-12)
(-4.50812e-10 -1.20681e-10 -3.06836e-12)
(-5.17394e-10 -1.71225e-10 -6.79314e-12)
(-5.92772e-10 -2.43923e-10 -1.33447e-11)
(-6.75114e-10 -3.46105e-10 -2.41678e-11)
(-7.57817e-10 -4.81458e-10 -4.03268e-11)
(-8.24515e-10 -6.30876e-10 -5.93815e-11)
(-9.42949e-10 -1.11588e-09 -1.11907e-10)
(0 0 0)
(-9.47608e-11 -7.44457e-12 2.78826e-13)
(-1.83042e-10 -1.49717e-11 5.40169e-13)
(-2.64757e-10 -2.31512e-11 7.79208e-13)
(-3.42691e-10 -3.28442e-11 9.86862e-13)
(-4.19421e-10 -4.50864e-11 1.13091e-12)
(-4.97459e-10 -6.12454e-11 1.13948e-12)
(-5.79365e-10 -8.32284e-11 8.72347e-13)
(-6.67836e-10 -1.13766e-10 7.23634e-14)
(-7.6571e-10 -1.56788e-10 -1.71259e-12)
(-8.75805e-10 -2.1787e-10 -5.24718e-12)
(-1.00041e-09 -3.04567e-10 -1.17612e-11)
(-1.14004e-09 -4.2607e-10 -2.307e-11)
(-1.291e-09 -5.90551e-10 -4.13901e-11)
(-1.44088e-09 -7.96003e-10 -6.79839e-11)
(-1.56051e-09 -1.0037e-09 -9.8231e-11)
(-1.69451e-09 -1.37841e-09 -1.63217e-10)
(0 0 0)
(-1.39409e-10 -1.04167e-11 4.02559e-13)
(-2.69123e-10 -2.08924e-11 7.80459e-13)
(-3.88881e-10 -3.21607e-11 1.12803e-12)
(-5.02636e-10 -4.53345e-11 1.43503e-12)
(-6.13988e-10 -6.17129e-11 1.66098e-12)
(-7.26364e-10 -8.29572e-11 1.71463e-12)
(-8.4316e-10 -1.11309e-10 1.41832e-12)
(-9.67822e-10 -1.49864e-10 4.49358e-13)
(-1.10381e-09 -2.02903e-10 -1.75223e-12)
(-1.25434e-09 -2.76197e-10 -6.11792e-12)
(-1.4217e-09 -3.77023e-10 -1.41143e-11)
(-1.6057e-09 -5.13133e-10 -2.78441e-11)
(-1.80088e-09 -6.88893e-10 -4.97519e-11)
(-1.99172e-09 -8.94933e-10 -8.09488e-11)
(-2.14415e-09 -1.08618e-09 -1.15664e-10)
(-2.38643e-09 -1.38637e-09 -1.87823e-10)
(0 0 0)
(-1.81029e-10 -1.26178e-11 5.08255e-13)
(-3.49203e-10 -2.52157e-11 9.86028e-13)
(-5.03957e-10 -3.85791e-11 1.42782e-12)
(-6.50184e-10 -5.3911e-11 1.82454e-12)
(-7.92241e-10 -7.25529e-11 2.13351e-12)
(-9.34153e-10 -9.61353e-11 2.25659e-12)
(-1.07974e-09 -1.26739e-10 2.00314e-12)
(-1.23265e-09 -1.67071e-10 1.02991e-12)
(-1.39624e-09 -2.20614e-10 -1.25204e-12)
(-1.57318e-09 -2.91668e-10 -5.81158e-12)
(-1.76462e-09 -3.85025e-10 -1.41607e-11)
(-1.9685e-09 -5.04719e-10 -2.8461e-11)
(-2.17696e-09 -6.50738e-10 -5.12463e-11)
(-2.37252e-09 -8.11809e-10 -8.37424e-11)
(-2.52261e-09 -9.52732e-10 -1.20085e-10)
(-2.74353e-09 -1.14834e-09 -1.95951e-10)
(0 0 0)
(-2.18934e-10 -1.39673e-11 5.91286e-13)
(-4.21958e-10 -2.77893e-11 1.14743e-12)
(-6.08067e-10 -4.21986e-11 1.6635e-12)
(-7.82838e-10 -5.83384e-11 2.13291e-12)
(-9.51118e-10 -7.7402e-11 2.51497e-12)
(-1.11721e-09 -1.00725e-10 2.71393e-12)
(-1.28498e-09 -1.29855e-10 2.54406e-12)
(-1.45777e-09 -1.66576e-10 1.67376e-12)
(-1.63822e-09 -2.12843e-10 -4.61046e-13)
(-1.82767e-09 -2.70531e-10 -4.78296e-12)
(-2.02514e-09 -3.40865e-10 -1.27356e-11)
(-2.22564e-09 -4.23379e-10 -2.64222e-11)
(-2.41798e-09 -5.14341e-10 -4.8442e-11)
(-2.58293e-09 -6.04838e-10 -8.04103e-11)
(-2.69431e-09 -6.7852e-10 -1.17094e-10)
(-2.79844e-09 -7.83831e-10 -1.97758e-10)
(0 0 0)
(-2.52638e-10 -1.44817e-11 6.48491e-13)
(-4.8647e-10 -2.8667e-11 1.25799e-12)
(-6.99934e-10 -4.3156e-11 1.82372e-12)
(-8.99047e-10 -5.89227e-11 2.34155e-12)
(-1.0889e-09 -7.68865e-11 2.77452e-12)
(-1.27381e-09 -9.79394e-11 3.03397e-12)
(-1.45738e-09 -1.2292e-10 2.94875e-12)
(-1.64237e-09 -1.52498e-10 2.21619e-12)
(-1.83032e-09 -1.86916e-10 3.26721e-13)
(-2.0209e-09 -2.25514e-10 -3.54691e-12)
(-2.21065e-09 -2.65998e-10 -1.06981e-11)
(-2.39138e-09 -3.03581e-10 -2.30339e-11)
(-2.54855e-09 -3.30795e-10 -4.30043e-11)
(-2.66249e-09 -3.40221e-10 -7.24242e-11)
(-2.71904e-09 -3.34095e-10 -1.07126e-10)
(-2.70492e-09 -3.5403e-10 -1.93827e-10)
(0 0 0)
(-2.81852e-10 -1.42556e-11 6.78681e-13)
(-5.42225e-10 -2.8064e-11 1.31493e-12)
(-7.78909e-10 -4.1849e-11 1.9031e-12)
(-9.98145e-10 -5.63568e-11 2.44022e-12)
(-1.20507e-09 -7.21865e-11 2.89258e-12)
(-1.40384e-09 -8.97635e-11 3.17946e-12)
(-1.59766e-09 -1.09243e-10 3.14684e-12)
(-1.78856e-09 -1.3031e-10 2.52638e-12)
(-1.97705e-09 -1.51822e-10 8.73614e-13)
(-2.16126e-09 -1.71252e-10 -2.5204e-12)
(-2.33583e-09 -1.83921e-10 -8.74172e-12)
(-2.49027e-09 -1.82227e-10 -1.93478e-11)
(-2.6076e-09 -1.55676e-10 -3.62437e-11)
(-2.6665e-09 -9.43634e-11 -6.05845e-11)
(-2.65806e-09 -5.73115e-12 -8.83603e-11)
(-2.64147e-09 1.88208e-10 -1.66636e-10)
(0 0 0)
(-3.06438e-10 -1.34342e-11 6.82931e-13)
(-5.89014e-10 -2.62957e-11 1.32015e-12)
(-8.44818e-10 -3.88248e-11 1.90375e-12)
(-1.08014e-09 -5.15309e-11 2.42995e-12)
(-1.30001e-09 -6.47148e-11 2.86662e-12)
(-1.50835e-09 -7.84101e-11 3.13937e-12)
(-1.70792e-09 -9.22595e-11 3.10966e-12)
(-1.90016e-09 -1.053e-10 2.54138e-12)
(-2.08479e-09 -1.15635e-10 1.05277e-12)
(-2.25912e-09 -1.1998e-10 -1.94796e-12)
(-2.41716e-09 -1.13159e-10 -7.3328e-12)
(-2.54844e-09 -8.78268e-11 -1.62764e-11)
(-2.63767e-09 -3.52049e-11 -3.00398e-11)
(-2.66777e-09 5.11172e-11 -4.89545e-11)
(-2.63524e-09 1.62889e-10 -6.9697e-11)
(-2.09511e-09 6.97344e-10 -6.8722e-11)
(0 0 0)
(0 0 0)
(0 0 0)
(0 0 0)
(0 0 0)
(0 0 0)
(0 0 0)
(0 0 0)
(0 0 0)
(0 0 0)
(0 0 0)
(0 0 0)
(0 0 0)
(0 0 0)
(0 0 0)
(0 0 0)
(0 0 0)
(0 0 0)
(-4.79952e-11 -4.11611e-12 1.01148e-13)
(-9.27231e-11 -8.29693e-12 1.92596e-13)
(-1.34148e-10 -1.28776e-11 2.68279e-13)
(-1.73687e-10 -1.83601e-11 3.17948e-13)
(-2.12661e-10 -2.53545e-11 3.17617e-13)
(-2.52357e-10 -3.46733e-11 2.19257e-13)
(-2.94103e-10 -4.74571e-11 -6.67815e-14)
(-3.39313e-10 -6.53475e-11 -7.00928e-13)
(-3.89525e-10 -9.07232e-11 -1.95998e-12)
(-4.46355e-10 -1.26998e-10 -4.30222e-12)
(-5.11325e-10 -1.78933e-10 -8.44308e-12)
(-5.85356e-10 -2.52757e-10 -1.53926e-11)
(-6.67618e-10 -3.55424e-10 -2.62968e-11)
(-7.53035e-10 -4.90521e-10 -4.16487e-11)
(-8.25751e-10 -6.39663e-10 -5.86714e-11)
(-9.71256e-10 -1.13403e-09 -1.01886e-10)
(0 0 0)
(-9.48254e-11 -7.89405e-12 1.97988e-13)
(-1.83124e-10 -1.58869e-11 3.7736e-13)
(-2.64769e-10 -2.45928e-11 5.26937e-13)
(-3.42501e-10 -3.49324e-11 6.28043e-13)
(-4.18837e-10 -4.80063e-11 6.36545e-13)
(-4.96207e-10 -6.52561e-11 4.64113e-13)
(-5.77062e-10 -8.86687e-11 -5.37106e-14)
(-6.63967e-10 -1.21049e-10 -1.20977e-12)
(-7.59631e-10 -1.66364e-10 -3.50609e-12)
(-8.66819e-10 -2.30126e-10 -7.7664e-12)
(-9.88004e-10 -3.19635e-10 -1.52588e-11)
(-1.12446e-09 -4.43537e-10 -2.77283e-11)
(-1.27419e-09 -6.09224e-10 -4.70366e-11)
(-1.42746e-09 -8.1417e-10 -7.3647e-11)
(-1.55613e-09 -1.02041e-09 -1.02243e-10)
(-1.72509e-09 -1.39348e-09 -1.5967e-10)
(0 0 0)
(-1.39497e-10 -1.10561e-11 2.86448e-13)
(-2.69229e-10 -2.21933e-11 5.46706e-13)
(-3.88878e-10 -3.4207e-11 7.66006e-13)
(-5.02329e-10 -4.82937e-11 9.2019e-13)
(-6.13094e-10 -6.5844e-11 9.51308e-13)
(-7.24479e-10 -8.86242e-11 7.43276e-13)
(-8.3972e-10 -1.18993e-10 8.0789e-14)
(-9.62057e-10 -1.60162e-10 -1.41716e-12)
(-1.09474e-09 -2.16496e-10 -4.39883e-12)
(-1.24085e-09 -2.93735e-10 -9.91846e-12)
(-1.4028e-09 -3.98897e-10 -1.95799e-11)
(-1.58126e-09 -5.39098e-10 -3.55486e-11)
(-1.77286e-09 -7.17654e-10 -6.00332e-11)
(-1.96555e-09 -9.24171e-10 -9.32904e-11)
(-2.12715e-09 -1.11379e-09 -1.28309e-10)
(-2.40959e-09 -1.40932e-09 -1.95194e-10)
(0 0 0)
(-1.81133e-10 -1.34105e-11 3.62605e-13)
(-3.49319e-10 -2.68264e-11 6.93029e-13)
(-5.0392e-10 -4.11082e-11 9.74492e-13)
(-6.49742e-10 -5.75605e-11 1.1805e-12)
(-7.9103e-10 -7.76373e-11 1.24616e-12)
(-9.31654e-10 -1.03099e-10 1.04122e-12)
(-1.07522e-09 -1.36179e-10 3.25214e-13)
(-1.22512e-09 -1.79747e-10 -1.32479e-12)
(-1.3844e-09 -2.37441e-10 -4.62398e-12)
(-1.55551e-09 -3.13637e-10 -1.07296e-11)
(-1.73964e-09 -4.13011e-10 -2.13975e-11)
(-1.93551e-09 -5.39119e-10 -3.89995e-11)
(-2.13749e-09 -6.90946e-10 -6.59672e-11)