/*--------------------------------*- C++ -*----------------------------------*\
| =========                 |                                                 |
| \\      /  F ield         | foam-extend: Open Source CFD                    |
|  \\    /   O peration     | Version:     3.1                                |
|   \\  /    A nd           | Web:         http://www.extend-project.de       |
|    \\/     M anipulation  |                                                 |
\*---------------------------------------------------------------------------*/
FoamFile
{
    version     2.0;
    format      ascii;
    class       volVectorField;
    location    "3.1";
    object      U;
}
// * * * * * * * * * * * * * * * * * * * * * * * * * * * * * * * * * * * * * //

dimensions      [0 1 -1 0 0 0 0];

internalField   nonuniform List<vector> 
14592
(
(0.0190048 -8.72411e-05 -0.00167964)
(0.0189317 6.07053e-05 -0.00304267)
(0.0186358 0.00018488 -0.00391106)
(0.018129 0.000262482 -0.00473442)
(0.0174775 0.000314201 -0.00565895)
(0.0167553 0.000342259 -0.00673684)
(0.0160418 0.000342778 -0.0079962)
(0.0154135 0.000311973 -0.00947159)
(0.0149328 0.000245267 -0.0112225)
(0.0146473 0.000133025 -0.0133503)
(0.0146013 -4.77534e-05 -0.0160221)
(0.0148566 -0.000339143 -0.0195012)
(0.0155058 -0.000797338 -0.0241506)
(0.0164559 -0.00136209 -0.0302145)
(0.0163209 -0.00134713 -0.0364388)
(0.011611 0.000443462 -0.0323274)
(0.0529407 -2.88854e-06 -0.00199619)
(0.0526798 0.000325309 -0.00466535)
(0.0521119 0.00068466 -0.00675082)
(0.0512286 0.00097517 -0.00876993)
(0.0500758 0.00117384 -0.010985)
(0.0487342 0.00126829 -0.0135025)
(0.0473178 0.00125937 -0.0163575)
(0.045942 0.0011625 -0.0195775)
(0.044688 0.000996286 -0.0232322)
(0.0435822 0.000763631 -0.0274761)
(0.0425919 0.000424036 -0.0325986)
(0.0416205 -0.00013038 -0.0390871)
(0.0404954 -0.00108189 -0.0476371)
(0.0386543 -0.00251093 -0.0586172)
(0.0333481 -0.00345456 -0.0688)
(0.0191213 -0.00122196 -0.0555244)
(0.0821986 0.000144656 -0.00161029)
(0.0819393 0.000649547 -0.00430634)
(0.0813872 0.00122196 -0.00670354)
(0.0805373 0.00174589 -0.00915578)
(0.0793791 0.00214944 -0.0119257)
(0.0779138 0.00238749 -0.0151523)
(0.0761961 0.00245071 -0.0188785)
(0.0743129 0.00236881 -0.0231039)
(0.0723393 0.00219303 -0.0278472)
(0.0702912 0.001966 -0.033211)
(0.0680878 0.00167411 -0.0394596)
(0.0655 0.00120145 -0.0471257)
(0.0621062 0.000278807 -0.0571192)
(0.0569962 -0.00145934 -0.070298)
(0.0463584 -0.00346968 -0.0831712)
(0.0233006 -0.00235578 -0.0664157)
(0.106602 0.000256162 -0.0012724)
(0.106397 0.000902186 -0.00358159)
(0.10595 0.00162157 -0.00575555)
(0.105271 0.00232402 -0.00805816)
(0.104312 0.00292558 -0.0107526)
(0.102986 0.00336222 -0.0140322)
(0.101242 0.00360983 -0.017994)
(0.0990864 0.00369799 -0.0226544)
(0.0965563 0.00369921 -0.0279979)
(0.0936627 0.00370176 -0.0340511)
(0.0903291 0.0037543 -0.0409841)
(0.0862823 0.00381067 -0.0492631)
(0.0809522 0.00363572 -0.0598858)
(0.0732648 0.00266526 -0.0743427)
(0.0583569 0.000382291 -0.0898535)
(0.0270525 -0.00135429 -0.0729098)
(0.126121 0.000340581 -0.00105814)
(0.125961 0.0010972 -0.0030076)
(0.125606 0.00191107 -0.00485426)
(0.125086 0.00273077 -0.00680901)
(0.124354 0.0034936 -0.00913108)
(0.123265 0.00414488 -0.0120687)
(0.121675 0.00465992 -0.0158041)
(0.11949 0.00506535 -0.020425)
(0.116676 0.00543989 -0.02594)
(0.113215 0.00590368 -0.0323397)
(0.109047 0.0065697 -0.0397047)
(0.103909 0.00750535 -0.048391)
(0.0971655 0.0086216 -0.0593339)
(0.0877532 0.00947597 -0.0745638)
(0.0699154 0.0083875 -0.0925233)
(0.0309549 0.0029547 -0.0768086)
(0.140756 0.000406807 -0.000918184)
(0.140628 0.00125564 -0.00260967)
(0.140344 0.00213908 -0.00419452)
(0.139949 0.00304004 -0.00583572)
(0.139413 0.00393006 -0.00776647)
(0.138577 0.00478366 -0.0102572)
(0.137242 0.0055948 -0.0135584)
(0.135232 0.00639848 -0.0178414)
(0.132441 0.00727796 -0.0231762)
(0.12881 0.00837552 -0.0295646)
(0.124281 0.00985708 -0.0370346)
(0.118621 0.0119286 -0.045846)
(0.111178 0.0146953 -0.0567696)
(0.100995 0.0182512 -0.0721722)
(0.0820128 0.02027 -0.0920977)
(0.0360135 0.0116704 -0.0781931)
(0.15051 0.000456177 -0.000819284)
(0.150408 0.00137646 -0.00232473)
(0.15019 0.00231083 -0.00372055)
(0.149908 0.00326884 -0.00513254)
(0.149549 0.00425639 -0.00675904)
(0.148965 0.00528377 -0.00886187)
(0.147938 0.00637469 -0.0117203)
(0.146252 0.00758327 -0.0155604)
(0.14376 0.00900168 -0.0205054)
(0.140372 0.0107905 -0.0265808)
(0.136063 0.0131537 -0.0337827)
(0.130632 0.0164588 -0.0422908)
(0.123555 0.021018 -0.0526571)
(0.113746 0.0279595 -0.0672307)
(0.0967445 0.0357885 -0.0882894)
(0.0445397 0.0277726 -0.0761733)
(0.155385 0.000487935 -0.000746264)
(0.155308 0.001451 -0.00211125)
(0.155161 0.00241031 -0.00336487)
(0.155 0.00339676 -0.00461077)
(0.154825 0.00444716 -0.00602083)
(0.1545 0.00560609 -0.00783774)
(0.153816 0.00692815 -0.0103385)
(0.152551 0.0084876 -0.0137621)
(0.150565 0.0103836 -0.0182481)
(0.147773 0.0127826 -0.0238218)
(0.144255 0.0158988 -0.030439)
(0.139858 0.0202173 -0.0381728)
(0.134703 0.0262464 -0.0473431)
(0.126621 0.0359885 -0.0595119)
(0.118899 0.054087 -0.0801394)
(0.0628484 0.0530429 -0.0678701)
(0.0203056 -0.000107066 -0.00163205)
(0.0201642 3.36399e-05 -0.00297243)
(0.0197458 0.000159086 -0.00383287)
(0.0190736 0.000234785 -0.00464876)
(0.0182137 0.000283495 -0.00556577)
(0.0172311 0.000308117 -0.00663856)
(0.0161957 0.00030344 -0.00789578)
(0.0151741 0.000263945 -0.00936798)
(0.0142146 0.000183659 -0.0111041)
(0.0133389 5.20115e-05 -0.0131846)
(0.0125442 -0.000155188 -0.015734)
(0.0118078 -0.000483304 -0.0189234)
(0.0110829 -0.000989508 -0.0228979)
(0.0100575 -0.00163149 -0.0273989)
(0.00767137 -0.00208115 -0.030372)
(0.00368396 -0.00172597 -0.0231524)
(0.0566256 -2.76537e-05 -0.00189548)
(0.0562503 0.0002705 -0.00447785)
(0.0554686 0.000615672 -0.00650598)
(0.0542787 0.000894498 -0.00846201)
(0.052727 0.00108057 -0.0106044)
(0.0508756 0.00115833 -0.0130486)
(0.0488178 0.00112424 -0.015838)
(0.0466478 0.000990555 -0.0189986)
(0.0444205 0.000774776 -0.0225822)
(0.0421179 0.000478548 -0.0267035)
(0.0396299 5.63819e-05 -0.0315748)
(0.0367325 -0.000612713 -0.0375123)
(0.0330635 -0.00172568 -0.0447776)
(0.027711 -0.00335717 -0.0526763)
(0.0186914 -0.00485591 -0.0565536)
(0.00727975 -0.00414515 -0.0399263)
(0.0879457 0.000126818 -0.00150416)
(0.0875805 0.000594398 -0.00407658)
(0.0868097 0.00114038 -0.00637957)
(0.0856304 0.00164455 -0.00872208)
(0.084036 0.00202926 -0.0113536)
(0.0820045 0.00224169 -0.0144242)
(0.0795556 0.00226379 -0.0179963)
(0.076738 0.00212009 -0.0220813)
(0.0735842 0.00186243 -0.0266896)
(0.0700532 0.00153626 -0.0318835)
(0.0659737 0.00112505 -0.0378379)
(0.0609652 0.000492756 -0.0448944)
(0.0543772 -0.000672751 -0.0534685)
(0.0447513 -0.00272167 -0.0629851)
(0.0290619 -0.00516164 -0.0678047)
(0.0101261 -0.005271 -0.0477272)
(0.114065 0.000248581 -0.00118024)
(0.113771 0.000868067 -0.00336723)
(0.113126 0.00156463 -0.00544456)
(0.112137 0.00225106 -0.00762884)
(0.110768 0.0028395 -0.0101563)
(0.108911 0.0032572 -0.013223)
(0.106472 0.00346873 -0.0169508)
(0.103397 0.00349668 -0.0213851)
(0.0996528 0.00341585 -0.0265226)
(0.0951713 0.00332487 -0.0323657)
(0.0897663 0.00328212 -0.0389998)
(0.0829867 0.00323459 -0.0466977)
(0.0740098 0.00290361 -0.0559731)
(0.0610242 0.00170221 -0.0666361)
(0.0395567 -0.000754007 -0.0728837)
(0.0131025 -0.00328061 -0.0522019)
(0.134954 0.000341924 -0.000980095)
(0.134718 0.00109049 -0.00282341)
(0.134187 0.00189635 -0.00459209)
(0.133382 0.00271416 -0.00645194)
(0.132274 0.00348028 -0.00862148)
(0.130711 0.00413374 -0.0113339)
(0.128507 0.00463996 -0.0147893)
(0.125493 0.00501907 -0.0191145)
(0.121538 0.00535346 -0.0243529)
(0.116512 0.00578008 -0.030496)
(0.110215 0.00643866 -0.0375582)
(0.102181 0.00741983 -0.0457037)
(0.0915118 0.00864071 -0.0554268)
(0.0762933 0.00957317 -0.0669894)
(0.0503431 0.00861772 -0.0748176)
(0.0165271 0.00280035 -0.0546367)
(0.150615 0.000415028 -0.000850916)
(0.150422 0.00127364 -0.00245079)
(0.149982 0.00216691 -0.00397731)
(0.149324 0.00308419 -0.00555537)
(0.148439 0.00399841 -0.00737013)
(0.147178 0.00488167 -0.00965865)
(0.145309 0.00572293 -0.0126731)
(0.142584 0.00655508 -0.016622)
(0.138783 0.00746874 -0.0216255)
(0.133703 0.00862951 -0.0277122)
(0.12712 0.0102468 -0.0348728)
(0.118571 0.0125823 -0.0431868)
(0.107119 0.0158356 -0.0530405)
(0.0910626 0.0200168 -0.0651068)
(0.0625703 0.0226634 -0.0743801)
(0.021495 0.0143042 -0.0550175)
(0.161053 0.000469469 -0.000759566)
(0.160894 0.00141404 -0.00218423)
(0.160536 0.00237466 -0.0035354)
(0.160012 0.00336646 -0.00490904)
(0.15933 0.00439817 -0.00645515)
(0.15836 0.00548157 -0.00839049)
(0.15687 0.00664181 -0.0109801)
(0.154579 0.0079384 -0.0144781)
(0.151228 0.00947746 -0.0190634)
(0.146571 0.0114511 -0.0248077)
(0.140398 0.0141219 -0.0316998)
(0.132288 0.0179484 -0.0397689)
(0.121359 0.0234365 -0.0492376)
(0.106254 0.0318326 -0.0610895)
(0.078812 0.0411412 -0.0715204)
(0.0303987 0.0348046 -0.0527957)
(0.16627 0.000504852 -0.000691792)
(0.166142 0.0015032 -0.00198415)
(0.165869 0.00250221 -0.00320216)
(0.165487 0.00353694 -0.00442492)
(0.165015 0.00464743 -0.00577817)
(0.164343 0.00588321 -0.00745522)
(0.163259 0.00730679 -0.00970986)
(0.16149 0.00900618 -0.0128014)
(0.158794 0.0111015 -0.0169249)
(0.154941 0.0137989 -0.0221625)
(0.149837 0.0173776 -0.0284851)
(0.143167 0.0224537 -0.0358665)
(0.134633 0.0297599 -0.0443369)
(0.122544 0.0419921 -0.0547965)
(0.105519 0.0631641 -0.0661574)
(0.048779 0.0644709 -0.0464761)
(0.0214171 -0.000126248 -0.00151699)
(0.0212095 5.97301e-06 -0.00277337)
(0.0206741 0.000132459 -0.00358357)
(0.0198466 0.000205614 -0.00435064)
(0.0187939 0.000250054 -0.00521234)
(0.0175735 0.000269421 -0.00622194)
(0.0162474 0.00025726 -0.00740601)
(0.0148747 0.000206533 -0.00878816)
(0.0134956 0.000110759 -0.0104017)
(0.012121 -3.9951e-05 -0.0122983)
(0.010731 -0.000271286 -0.0145469)
(0.00928359 -0.0006188 -0.0172203)
(0.00772602 -0.0011269 -0.0202924)
(0.005881 -0.00177606 -0.023287)
(0.00342696 -0.00240469 -0.0241935)
(0.000818194 -0.00228541 -0.0166006)
(0.0597815 -5.01419e-05 -0.0017283)
(0.0592995 0.000218922 -0.0041176)
(0.0583185 0.000549674 -0.00600055)
(0.0568444 0.00081542 -0.00780909)
(0.0549282 0.000986237 -0.00978423)
(0.0526178 0.00104355 -0.0120411)
(0.0499886 0.000979535 -0.0146256)
(0.0471178 0.000803351 -0.0175583)
(0.0440425 0.000532588 -0.0208684)
(0.0407213 0.000172081 -0.0246218)
(0.0370181 -0.00032011 -0.0289357)
(0.0326895 -0.00105633 -0.033949)
(0.0273895 -0.00221446 -0.0396073)
(0.0204853 -0.00386437 -0.0448252)
(0.0114502 -0.00554338 -0.0451882)
(0.00263564 -0.00505528 -0.0285582)
(0.0928703 0.000111681 -0.0013531)
(0.0924091 0.000546001 -0.00370597)
(0.0914377 0.00106692 -0.00582422)
(0.0899554 0.0015508 -0.00796839)
(0.0879631 0.00191455 -0.0103627)
(0.0854231 0.00209809 -0.0131546)
(0.0823268 0.00207453 -0.0164154)
(0.0786903 0.00186283 -0.0201624)
(0.0745133 0.00151575 -0.0243939)
(0.0697196 0.00108601 -0.0291252)
(0.0640996 0.000567881 -0.0344337)
(0.0572374 -0.000168218 -0.040465)
(0.0484797 -0.00142029 -0.0472502)
(0.0366178 -0.00348111 -0.0536429)
(0.020581 -0.0060244 -0.0541217)
(0.00466952 -0.00630557 -0.0336582)
(0.12046 0.000243068 -0.00105612)
(0.120087 0.000841102 -0.00304356)
(0.119264 0.00151793 -0.00494603)
(0.11799 0.00218948 -0.00693673)
(0.116245 0.00276461 -0.0092171)
(0.113907 0.00316253 -0.0119694)
(0.110851 0.00333618 -0.0153228)
(0.106972 0.00329993 -0.0193384)
(0.102181 0.00313007 -0.0240187)
(0.0963502 0.00293761 -0.0293382)
(0.0892343 0.00280022 -0.0352933)
(0.0803289 0.0026839 -0.0419617)
(0.0687995 0.00232469 -0.0494396)
(0.0529169 0.00119292 -0.0567794)
(0.030484 -0.00123642 -0.0580765)
(0.00712566 -0.00388705 -0.0363226)
(0.142523 0.000344689 -0.000876365)
(0.142221 0.00108971 -0.00254833)
(0.141534 0.00189096 -0.00416987)
(0.140469 0.00270877 -0.00587031)
(0.139011 0.00347934 -0.00782637)
(0.137011 0.00413615 -0.0102416)
(0.134253 0.00463429 -0.0133104)
(0.130512 0.00498535 -0.0171753)
(0.125578 0.00527278 -0.0218993)
(0.11923 0.00564943 -0.0274676)
(0.111181 0.00628503 -0.033825)
(0.100886 0.00730993 -0.0409504)
(0.0874293 0.00867566 -0.0489285)
(0.0687886 0.00986948 -0.0571263)
(0.0411388 0.00912546 -0.0595615)
(0.0102701 0.00320775 -0.0375986)
(0.159065 0.000424358 -0.000761282)
(0.158814 0.00129629 -0.00221219)
(0.158236 0.00220229 -0.00361592)
(0.15734 0.00313762 -0.00507008)
(0.156131 0.00407736 -0.00671782)
(0.154468 0.00499186 -0.00875425)
(0.152107 0.00586443 -0.0114088)
(0.148746 0.00672323 -0.0148957)
(0.14408 0.00766196 -0.0193593)
(0.137788 0.00886488 -0.0248404)
(0.129529 0.0105795 -0.0312854)
(0.118727 0.0131254 -0.0386064)
(0.104441 0.0167781 -0.0468175)
(0.0847169 0.0215571 -0.0556195)
(0.0537724 0.0247407 -0.0592832)
(0.0152977 0.016394 -0.0375829)
(0.170089 0.000483926 -0.000679937)
(0.169879 0.00145559 -0.00197218)
(0.169399 0.00244471 -0.00321764)
(0.168658 0.00347175 -0.00449311)
(0.167676 0.00454868 -0.00591105)
(0.166336 0.00568901 -0.00764121)
(0.164407 0.00691826 -0.00991315)
(0.161569 0.00829824 -0.0129746)
(0.157481 0.00994392 -0.0170264)
(0.151772 0.0120711 -0.022164)
(0.144097 0.0149876 -0.0283585)
(0.1339 0.0192244 -0.035499)
(0.120294 0.0254151 -0.0435006)
(0.10171 0.0348746 -0.0524077)
(0.0711408 0.045204 -0.0573364)
(0.0247094 0.039307 -0.0360324)
(0.175599 0.000523143 -0.000619318)
(0.175425 0.00155915 -0.00179184)
(0.175043 0.00259966 -0.00291655)
(0.174465 0.00368405 -0.00405808)
(0.173719 0.00485576 -0.00530891)
(0.172712 0.00616847 -0.00681535)
(0.17124 0.00769084 -0.00879035)
(0.169008 0.00952125 -0.0114799)
(0.165702 0.0117958 -0.015098)
(0.160979 0.0147507 -0.019758)
(0.154612 0.0187133 -0.0254359)
(0.146167 0.0243876 -0.0320055)
(0.135308 0.0326495 -0.0392724)
(0.12043 0.0464993 -0.0474385)
(0.100226 0.0694618 -0.0539483)
(0.0434907 0.0706335 -0.0321761)
(0.0223409 -0.000143847 -0.0013388)
(0.0220722 -2.07562e-05 -0.00245444)
(0.0214304 0.000107006 -0.00317525)
(0.0204629 0.000177656 -0.00385623)
(0.019239 0.000217564 -0.00462012)
(0.0178106 0.000231232 -0.00551511)
(0.0162341 0.000211058 -0.00656388)
(0.0145651 0.000148523 -0.00778254)
(0.0128416 3.69162e-05 -0.00918987)
(0.0110762 -0.000132315 -0.0108089)
(0.00925413 -0.000381168 -0.0126655)
(0.00734799 -0.000734107 -0.0147632)
(0.00534985 -0.00122317 -0.0169915)
(0.0032575 -0.00183855 -0.0188522)
(0.00120772 -0.00247949 -0.0187237)
(-0.000383026 -0.00234609 -0.0121418)
(0.0624095 -6.97456e-05 -0.00150145)
(0.0618321 0.000172675 -0.00360058)
(0.060673 0.000490313 -0.00525918)
(0.0589455 0.00074368 -0.00684573)
(0.056708 0.000899444 -0.00857235)
(0.0539989 0.00093628 -0.010545)
(0.0508807 0.000842375 -0.0128069)
(0.04742 0.000624301 -0.015372)
(0.0436454 0.000300574 -0.0182488)
(0.0395136 -0.000116297 -0.0214634)
(0.0348956 -0.000660788 -0.0250516)
(0.0295831 -0.00142571 -0.0290311)
(0.0233333 -0.00255881 -0.0331926)
(0.0158696 -0.00412174 -0.0364291)
(0.00753357 -0.0057452 -0.0351685)
(0.00060537 -0.00522573 -0.0209486)
(0.0969731 9.91823e-05 -0.00116294)
(0.0964278 0.000505195 -0.003211)
(0.0952802 0.00100398 -0.00506332)
(0.0935296 0.00146946 -0.00693091)
(0.0911872 0.00181365 -0.00900436)
(0.0882052 0.00196977 -0.0114169)
(0.0845551 0.00190255 -0.0142388)
(0.0802302 0.00162568 -0.0174885)
(0.0752099 0.00119337 -0.0211538)
(0.0694016 0.000669462 -0.0252134)
(0.0625919 6.53315e-05 -0.0296705)
(0.0543995 -0.000724566 -0.0345319)
(0.0442775 -0.0019552 -0.039623)
(0.0314329 -0.00387338 -0.043681)
(0.0159846 -0.00628435 -0.042141)
(0.00227918 -0.00653703 -0.0245198)
(0.125788 0.000239093 -0.000904078)
(0.125348 0.000820303 -0.00262481)
(0.124369 0.00148093 -0.0042825)
(0.122847 0.00213997 -0.0060117)
(0.120768 0.00270377 -0.00797593)
(0.11801 0.00308442 -0.0103324)
(0.114423 0.00322397 -0.0132025)
(0.109866 0.0031281 -0.0166508)
(0.104211 0.002874 -0.0206813)
(0.0972921 0.00258499 -0.0252493)
(0.0888437 0.00236683 -0.0302882)
(0.078384 0.00221912 -0.0357396)
(0.0651806 0.00191956 -0.0414524)
(0.047852 0.000989039 -0.0462798)
(0.0256504 -0.00123278 -0.0451749)
(0.00454793 -0.00387046 -0.0262456)
(0.14883 0.000348016 -0.000749936)
(0.148471 0.00109238 -0.00219497)
(0.14765 0.00189154 -0.00360815)
(0.146358 0.0027108 -0.00508912)
(0.144592 0.00348686 -0.00677557)
(0.142204 0.00414881 -0.00883427)
(0.138963 0.00464203 -0.0114369)
(0.134604 0.00496866 -0.0147212)
(0.128863 0.00521118 -0.0187558)
(0.121454 0.00553689 -0.0235207)
(0.112043 0.0061468 -0.0289158)
(0.100083 0.00721711 -0.0348009)
(0.0847489 0.00874328 -0.0410149)
(0.0642687 0.0102354 -0.0466051)
(0.0364086 0.00979291 -0.0463045)
(0.00767601 0.00384642 -0.0269764)
(0.166105 0.000433624 -0.000651836)
(0.165804 0.00131996 -0.00190548)
(0.165109 0.00223957 -0.00313053)
(0.164008 0.00319276 -0.00440375)
(0.162514 0.00415718 -0.00583353)
(0.160492 0.00510242 -0.00757219)
(0.157692 0.0060064 -0.00981216)
(0.153785 0.00689109 -0.012749)
(0.148402 0.0078499 -0.0165275)
(0.141143 0.0090807 -0.0211911)
(0.13159 0.010863 -0.0266593)
(0.119134 0.0135687 -0.032746)
(0.102917 0.0175355 -0.0392434)
(0.0811221 0.0227955 -0.0454588)
(0.0494742 0.0264468 -0.0461701)
(0.0128645 0.018061 -0.0269083)
(0.177618 0.000497995 -0.000582505)
(0.177362 0.00149644 -0.00169921)
(0.176779 0.0025134 -0.00278726)
(0.175855 0.00357394 -0.0039092)
(0.17461 0.00469344 -0.00514913)
(0.172938 0.00588752 -0.00663443)
(0.170612 0.00718164 -0.00854985)
(0.167295 0.00863779 -0.0111127)
(0.162591 0.0103751 -0.0145166)
(0.156046 0.012625 -0.0188624)
(0.147224 0.0157274 -0.0241101)
(0.135501 0.0202673 -0.0300741)
(0.120069 0.0269597 -0.0364923)
(0.0994359 0.0371464 -0.043002)
(0.0676744 0.0481688 -0.0449302)
(0.0226781 0.0424162 -0.025945)
(0.183372 0.00054092 -0.000530639)
(0.183157 0.00161334 -0.00154409)
(0.182683 0.0026934 -0.00252748)
(0.18194 0.00382459 -0.00353476)
(0.180955 0.00505366 -0.00463483)
(0.179647 0.00643806 -0.00593452)
(0.177823 0.00805108 -0.00760055)
(0.175177 0.00999852 -0.00984375)
(0.171359 0.012427 -0.012867)
(0.165947 0.0155931 -0.0167918)
(0.158623 0.0198549 -0.021598)
(0.148882 0.0259718 -0.0271125)
(0.136436 0.0348986 -0.0330223)
(0.119809 0.0497667 -0.0392109)
(0.0982273 0.0738065 -0.0428583)
(0.0416451 0.0745498 -0.0234975)
(0.0230778 -0.000158698 -0.00110475)
(0.0227569 -4.30267e-05 -0.00202995)
(0.022024 8.47849e-05 -0.00262722)
(0.0209372 0.000153045 -0.00319056)
(0.0195693 0.000188856 -0.00382138)
(0.0179685 0.000197274 -0.00455981)
(0.016188 0.000169829 -0.00542365)
(0.0142822 9.72582e-05 -0.00642263)
(0.0122939 -2.49096e-05 -0.00756453)
(0.0102427 -0.000212384 -0.00885198)
(0.00812782 -0.000473055 -0.0102848)
(0.00594982 -0.000825172 -0.0118314)
(0.00375101 -0.00129029 -0.0133599)
(0.00165145 -0.00185701 -0.0144466)
(1.39212e-05 -0.00245244 -0.0139118)
(-0.0009166 -0.00229556 -0.00874026)
(0.0645109 -8.58901e-05 -0.0012235)
(0.0638528 0.000134238 -0.00294831)
(0.0625427 0.000440322 -0.00431453)
(0.0606014 0.000682974 -0.00561636)
(0.0580949 0.000825579 -0.00702809)
(0.0550565 0.000844415 -0.00863919)
(0.0515407 0.000724147 -0.0104865)
(0.0476098 0.000469402 -0.0125777)
(0.0432901 0.000101035 -0.0149094)
(0.0385484 -0.000362402 -0.0174767)
(0.0332816 -0.000943226 -0.0202707)
(0.0273318 -0.00171351 -0.0232441)
(0.0205724 -0.00279605 -0.0261465)
(0.0129885 -0.00423249 -0.028041)
(0.0053435 -0.00572647 -0.0262877)
(-0.000345818 -0.00516703 -0.01515)
(0.100255 8.92086e-05 -0.000939899)
(0.0996396 0.000471987 -0.00261097)
(0.0983448 0.000952678 -0.00412797)
(0.0963694 0.00140288 -0.00565271)
(0.0937341 0.00173061 -0.007337)
(0.0903864 0.00186349 -0.00929136)
(0.0862851 0.0017589 -0.0115772)
(0.0814092 0.00142559 -0.0142108)
(0.0757287 0.000919141 -0.0171731)
(0.0691473 0.000317376 -0.0204288)
(0.0614676 -0.000350797 -0.0239361)
(0.0523637 -0.00115803 -0.027627)
(0.0414334 -0.00231167 -0.0312517)
(0.0282071 -0.00404798 -0.0337032)
(0.0134096 -0.00625891 -0.0315549)
(0.00116452 -0.00646993 -0.0176917)
(0.13005 0.000236274 -0.000728554)
(0.129554 0.000804665 -0.00212671)
(0.128448 0.0014527 -0.00348029)
(0.126718 0.00210191 -0.00488953)
(0.124362 0.0026569 -0.00647992)
(0.121254 0.00302404 -0.00837707)
(0.11723 0.00313589 -0.0106834)
(0.112129 0.00298999 -0.0134576)
(0.105795 0.00266383 -0.0167029)
(0.0980419 0.00229269 -0.0203677)
(0.0886093 0.00201175 -0.0243548)
(0.077069 0.00185808 -0.0285433)
(0.0628065 0.00165981 -0.0326959)
(0.0447678 0.000952236 -0.0357556)
(0.023 -0.0010212 -0.0338364)
(0.00338117 -0.00363197 -0.0188614)
(0.153875 0.000351302 -0.000604241)
(0.153469 0.0010966 -0.00177669)
(0.152538 0.00189531 -0.00293026)
(0.15106 0.00271675 -0.00413949)
(0.149037 0.00349848 -0.00550697)
(0.146325 0.00416652 -0.00716058)
(0.142683 0.00465798 -0.00923898)
(0.137824 0.00496599 -0.0118607)
(0.131446 0.00517073 -0.0150884)
(0.123226 0.00545164 -0.018901)
(0.112808 0.00603828 -0.0231845)
(0.0996767 0.00714849 -0.0277536)
(0.0831205 0.00881751 -0.0323531)
(0.0616524 0.0105874 -0.0360431)
(0.0339319 0.0104389 -0.0346975)
(0.00658167 0.00447284 -0.0193273)
(0.171736 0.000441968 -0.000525457)
(0.171394 0.00134193 -0.00154239)
(0.170603 0.00227439 -0.00254293)
(0.169336 0.00324367 -0.00358602)
(0.167605 0.00422992 -0.00475128)
(0.165282 0.00520282 -0.00615125)
(0.162115 0.00613586 -0.0079353)
(0.157759 0.0070447 -0.0102647)
(0.151809 0.00802018 -0.0132666)
(0.143812 0.00926929 -0.0169811)
(0.133307 0.0110963 -0.0213226)
(0.119686 0.0139161 -0.0260774)
(0.102196 0.018114 -0.0309577)
(0.0792269 0.0237373 -0.0352147)
(0.047374 0.0277634 -0.0346723)
(0.0119328 0.0193218 -0.0192957)
(0.18364 0.000510525 -0.000469766)
(0.183347 0.00153309 -0.00137576)
(0.18268 0.00257493 -0.00226477)
(0.181606 0.00366484 -0.00318635)
(0.180145 0.00482133 -0.00420242)
(0.178196 0.00606221 -0.00540441)
(0.175534 0.00741298 -0.00693101)
(0.171817 0.00893467 -0.00895595)
(0.166623 0.0107472 -0.0116447)
(0.159442 0.0130913 -0.0150894)
(0.14978 0.0163275 -0.0192501)
(0.136988 0.0210789 -0.0239275)
(0.120341 0.0281118 -0.0288073)
(0.0985006 0.038783 -0.0334174)
(0.0661853 0.0502866 -0.0339205)
(0.0220499 0.0446021 -0.0187349)
(0.189589 0.000556749 -0.00042798)
(0.18934 0.00166151 -0.00125036)
(0.188792 0.00277636 -0.00205419)
(0.187916 0.00394831 -0.00288305)
(0.186736 0.00522712 -0.003788)
(0.185176 0.00667341 -0.00484427)
(0.183051 0.00836408 -0.00617418)
(0.180058 0.0104099 -0.00794307)
(0.175827 0.0129636 -0.010322)
(0.169889 0.0162942 -0.0134224)
(0.16187 0.0207772 -0.01723)
(0.151223 0.027205 -0.0215718)
(0.137716 0.0365723 -0.0261167)
(0.120004 0.0520735 -0.0306365)
(0.0977289 0.0768115 -0.0326693)
(0.0411311 0.0772281 -0.0171368)
(0.0236283 -0.000170027 -0.000823969)
(0.0232668 -5.88695e-05 -0.00151697)
(0.0224624 6.70032e-05 -0.00196359)
(0.0212816 0.000132785 -0.00238419)
(0.0198015 0.000165045 -0.00285445)
(0.0180683 0.000168994 -0.00340423)
(0.0161334 0.000135525 -0.00404616)
(0.0140526 5.50069e-05 -0.00478537)
(0.0118741 -7.92659e-05 -0.00562236)
(0.00962724 -0.000277953 -0.00655192)
(0.00732756 -0.000547425 -0.00756145)
(0.00500186 -0.000897296 -0.00861097)
(0.00273103 -0.00133907 -0.00958673)
(0.000701157 -0.00186374 -0.0101788)
(-0.000630904 -0.00240756 -0.00960478)
(-0.00116451 -0.0022287 -0.00592685)
(0.0660863 -9.81671e-05 -0.000903906)
(0.0653646 0.000105233 -0.00218648)
(0.0639359 0.000401448 -0.00320433)
(0.0618279 0.000635328 -0.00417109)
(0.0591128 0.00076735 -0.00521634)
(0.0558215 0.000771668 -0.00640749)
(0.0520049 0.000630286 -0.00777235)
(0.0477228 0.000346613 -0.00931464)
(0.0430081 -5.60223e-05 -0.0110257)
(0.0378388 -0.000556642 -0.0128857)
(0.0321384 -0.00116482 -0.0148711)
(0.025802 -0.00193226 -0.0169142)
(0.0187896 -0.00295537 -0.0187974)
(0.0112469 -0.00427591 -0.0198357)
(0.00412593 -0.00564418 -0.0182423)
(-0.00079859 -0.00505567 -0.0103134)
(0.102715 8.17544e-05 -0.00069016)
(0.102046 0.000446566 -0.00192649)
(0.100637 0.000913746 -0.00305183)
(0.098487 0.00135232 -0.00418028)
(0.0956246 0.0016674 -0.00542194)
(0.0919957 0.00178233 -0.00685901)
(0.0875517 0.00164864 -0.00853837)
(0.0822652 0.00127085 -0.0104722)
(0.0761 0.000708097 -0.0126418)
(0.0689629 4.64613e-05 -0.0150112)
(0.0606861 -0.000661791 -0.0175281)
(0.0510022 -0.00146575 -0.0201001)
(0.0396121 -0.00254391 -0.0224944)
(0.0262614 -0.00411405 -0.0238926)
(0.0119782 -0.00614029 -0.0219411)
(0.000641415 -0.00632379 -0.0120394)
(0.133246 0.000234403 -0.000533793)
(0.132706 0.000793573 -0.00156503)
(0.131502 0.00143256 -0.00256679)
(0.129613 0.00207469 -0.00360849)
(0.127041 0.00262342 -0.0047787)
(0.123663 0.00298099 -0.0061681)
(0.119306 0.00307239 -0.00785331)
(0.113797 0.00288828 -0.00988012)
(0.106963 0.00250479 -0.012251)
(0.0986148 0.00207219 -0.0149193)
(0.0885014 0.0017504 -0.0177878)
(0.0762378 0.00160602 -0.0207378)
(0.0613252 0.00149822 -0.0235449)
(0.0429521 0.000984052 -0.0253814)
(0.0215638 -0.000772531 -0.0235498)
(0.00285936 -0.00337056 -0.0128153)
(0.157658 0.000354159 -0.000442623)
(0.157215 0.00110108 -0.00130642)
(0.156201 0.00190028 -0.00215973)
(0.15458 0.00272407 -0.00305457)
(0.15236 0.00351093 -0.00406211)
(0.149396 0.00418497 -0.00527186)
(0.145446 0.00467689 -0.00678439)
(0.140208 0.00497232 -0.00868933)
(0.133361 0.00514855 -0.0110362)
(0.124559 0.00539375 -0.0138067)
(0.113439 0.00595808 -0.0168998)
(0.0995221 0.00709653 -0.0201456)
(0.0821984 0.00888488 -0.0232998)
(0.0601994 0.0108761 -0.0256097)
(0.0326579 0.0109665 -0.0241708)
(0.0061371 0.00497675 -0.0131249)
(0.175959 0.00044878 -0.00038502)
(0.175584 0.00136021 -0.00113412)
(0.174721 0.00230355 -0.00187431)
(0.173326 0.00328602 -0.0026477)
(0.171414 0.00428988 -0.00350928)
(0.168858 0.00528535 -0.00453584)
(0.165408 0.00624271 -0.0058325)
(0.160708 0.00717221 -0.00751772)
(0.154337 0.00816125 -0.00968926)
(0.145811 0.00942185 -0.0123791)
(0.134645 0.0112758 -0.0155147)
(0.120244 0.0141709 -0.0189091)
(0.101941 0.0185298 -0.0222961)
(0.0783041 0.0244106 -0.0250538)
(0.046395 0.0287159 -0.0242006)
(0.0116229 0.0202231 -0.0131255)
(0.188156 0.00052066 -0.000344303)
(0.187833 0.00156288 -0.00101177)
(0.187103 0.00262496 -0.00166955)
(0.185916 0.00373843 -0.00235381)
(0.18429 0.00492429 -0.00310774)
(0.182126 0.00620237 -0.00399256)
(0.179204 0.00759838 -0.0051034)
(0.175179 0.00917201 -0.006565)
(0.169617 0.0110422 -0.00850195)
(0.161979 0.0134544 -0.0109874)
(0.151737 0.0167814 -0.0139888)
(0.138232 0.0216718 -0.0173381)
(0.120804 0.0289246 -0.0207572)
(0.0982514 0.0399094 -0.0238285)
(0.0656434 0.051746 -0.0237651)
(0.0219615 0.0461031 -0.0128113)
(0.194252 0.000569536 -0.000313701)
(0.193976 0.00170042 -0.000919667)
(0.193371 0.00284321 -0.00151455)
(0.192394 0.00404763 -0.00213056)
(0.191066 0.00536584 -0.00280368)
(0.189313 0.00686103 -0.00358371)
(0.186954 0.0086127 -0.00455307)
(0.18369 0.0107348 -0.00582873)
(0.179147 0.0133834 -0.00753811)
(0.17283 0.0168341 -0.00976947)
(0.164334 0.0214708 -0.0125144)
(0.153083 0.028105 -0.0156326)
(0.138892 0.0377507 -0.0188442)
(0.120514 0.0536359 -0.0219267)
(0.0978654 0.0788364 -0.0230212)
(0.0411257 0.0790446 -0.0117842)
(0.0239937 -0.000177497 -0.000505426)
(0.0236044 -6.95258e-05 -0.000931998)
(0.022751 5.39797e-05 -0.00120614)
(0.0215055 0.000117378 -0.00146366)
(0.0199488 0.00014647 -0.00175135)
(0.018126 0.000146567 -0.00208738)
(0.0160879 0.000107984 -0.00247918)
(0.0138922 2.05298e-05 -0.00292911)
(0.011592 -0.000122581 -0.00343471)
(0.00922455 -0.000330068 -0.00399075)
(0.00681893 -0.000606931 -0.00458442)
(0.00442063 -0.000955477 -0.00518564)
(0.00213422 -0.00138163 -0.00572077)
(0.000175901 -0.0018777 -0.00600599)
(-0.000961312 -0.00238023 -0.00559651)
(-0.00127239 -0.00218579 -0.00341908)
(0.0671347 -0.000106199 -0.000550463)
(0.0663692 8.57924e-05 -0.00133682)
(0.0648596 0.00037477 -0.0019602)
(0.0626376 0.000602202 -0.00255062)
(0.0597803 0.000726459 -0.00318792)
(0.0563179 0.000720213 -0.00391343)
(0.0522995 0.000563719 -0.00474417)
(0.047786 0.000259529 -0.00568163)
(0.0428151 -0.000168093 -0.00671751)
(0.0373753 -0.000693925 -0.00783502)
(0.0314132 -0.0013213 -0.00901101)
(0.0248614 -0.00208306 -0.0101936)
(0.0177345 -0.00306132 -0.0112411)
(0.0102664 -0.00429871 -0.011744)
(0.0034856 -0.00557351 -0.0106785)
(-0.00100264 -0.00496715 -0.00597292)
(0.104354 7.69993e-05 -0.000418353)
(0.103647 0.000429764 -0.00117377)
(0.102161 0.000888054 -0.00186116)
(0.0998921 0.00131888 -0.00254898)
(0.096875 0.00162542 -0.00330415)
(0.0930554 0.00172818 -0.0041766)
(0.0883813 0.00157469 -0.00519526)
(0.0828224 0.00116686 -0.00636754)
(0.0763403 0.000564827 -0.00768145)
(0.0688464 -0.000137593 -0.00910851)
(0.0601999 -0.000869305 -0.010608)
(0.0501753 -0.00166743 -0.0121104)
(0.0385403 -0.00268673 -0.0134617)
(0.0251683 -0.00413574 -0.0141656)
(0.0112273 -0.00603014 -0.0128624)
(0.000412035 -0.00619703 -0.00697061)
(0.135375 0.000233386 -0.000323036)
(0.134805 0.000786827 -0.00095186)
(0.133536 0.0014202 -0.00156277)
(0.131538 0.00205802 -0.00219706)
(0.12882 0.00260298 -0.00290787)
(0.125258 0.00295476 -0.00374923)
(0.120677 0.00303307 -0.00476773)
(0.114895 0.00282351 -0.005992)
(0.107733 0.00240184 -0.00742349)
(0.0990028 0.00192697 -0.00903059)
(0.0884617 0.00158037 -0.0107473)
(0.0757585 0.00144457 -0.0124882)
(0.0604789 0.00140393 -0.0140963)
(0.0419545 0.00102778 -0.0150627)
(0.0208303 -0.000577546 -0.0138198)
(0.00264894 -0.00317133 -0.00741504)
(0.160178 0.000356287 -0.000267846)
(0.15971 0.00110487 -0.000794255)
(0.15864 0.00190496 -0.00131442)
(0.156923 0.0027309 -0.00185945)
(0.154568 0.00352184 -0.00247182)
(0.151435 0.00420083 -0.00320389)
(0.147275 0.00469437 -0.00411561)
(0.141785 0.00498253 -0.00526211)
(0.134628 0.00514049 -0.00667472)
(0.125451 0.00536178 -0.00834175)
(0.11389 0.00590894 -0.0101958)
(0.0994919 0.00706693 -0.0121213)
(0.081722 0.00893634 -0.0139492)
(0.0594469 0.0110779 -0.0152077)
(0.0320437 0.0113325 -0.014197)
(0.00598514 0.00532112 -0.00759679)
(0.178773 0.00045357 -0.000233064)
(0.178375 0.00137331 -0.000689604)
(0.177464 0.00232457 -0.00114087)
(0.175984 0.00331649 -0.00161233)
(0.173949 0.00433281 -0.00213705)
(0.171235 0.00534433 -0.00275919)