/*--------------------------------*- C++ -*----------------------------------*\
| =========                 |                                                 |
| \\      /  F ield         | foam-extend: Open Source CFD                    |
|  \\    /   O peration     | Version:     3.1                                |
|   \\  /    A nd           | Web:         http://www.extend-project.de       |
|    \\/     M anipulation  |                                                 |
\*---------------------------------------------------------------------------*/
FoamFile
{
    version     2.0;
    format      ascii;
    class       volScalarField;
    location    "0.0009";
    object      p;
}
// * * * * * * * * * * * * * * * * * * * * * * * * * * * * * * * * * * * * * //

dimensions      [0 2 -2 0 0 0 0];

internalField   nonuniform List<scalar> 
16000
(
1.28919
1.28927
1.28942
1.28966
1.28999
1.29043
1.29099
1.29169
1.29255
1.29357
1.28927
1.28934
1.28949
1.28972
1.29004
1.29047
1.29102
1.2917
1.29253
1.29352
1.28942
1.28949
1.28963
1.28985
1.29017
1.29058
1.29111
1.29178
1.29258
1.29353
1.28966
1.28972
1.28985
1.29007
1.29037
1.29078
1.29129
1.29193
1.29271
1.29363
1.28999
1.29004
1.29017
1.29037
1.29067
1.29106
1.29156
1.29218
1.29293
1.29381
1.29043
1.29047
1.29058
1.29078
1.29106
1.29143
1.29191
1.29251
1.29323
1.29407
1.29099
1.29102
1.29111
1.29129
1.29156
1.29191
1.29237
1.29294
1.29362
1.29442
1.29169
1.2917
1.29178
1.29193
1.29218
1.29251
1.29294
1.29346
1.2941
1.29484
1.29255
1.29253
1.29258
1.29271
1.29293
1.29323
1.29362
1.2941
1.29468
1.29534
1.29357
1.29352
1.29353
1.29363
1.29381
1.29407
1.29442
1.29484
1.29534
1.29589
1.20085
1.20106
1.20149
1.20217
1.20312
1.2044
1.20606
1.20815
1.21075
1.21388
1.20106
1.20126
1.20167
1.20233
1.20325
1.20449
1.20608
1.2081
1.21058
1.21358
1.20149
1.20167
1.20207
1.20271
1.2036
1.2048
1.20635
1.20829
1.21068
1.21356
1.20217
1.20233
1.20271
1.20332
1.20419
1.20536
1.20686
1.20874
1.21104
1.21381
1.20312
1.20325
1.2036
1.20419
1.20504
1.20617
1.20763
1.20945
1.21167
1.21433
1.2044
1.20449
1.2048
1.20536
1.20617
1.20727
1.20869
1.21045
1.21259
1.21514
1.20606
1.20608
1.20635
1.20686
1.20763
1.20869
1.21005
1.21174
1.2138
1.21623
1.20815
1.20809
1.20829
1.20874
1.20945
1.21045
1.21174
1.21336
1.21532
1.21763
1.21074
1.21058
1.21068
1.21104
1.21167
1.21259
1.2138
1.21532
1.21717
1.21935
1.21388
1.21358
1.21356
1.21381
1.21433
1.21513
1.21623
1.21763
1.21935
1.22139
1.11114
1.11144
1.11204
1.11299
1.11435
1.11621
1.11867
1.12185
1.12592
1.13102
1.11144
1.11171
1.11229
1.11321
1.11453
1.11633
1.1187
1.12176
1.12565
1.13053
1.11204
1.11229
1.11285
1.11375
1.11504
1.11679
1.11909
1.12206
1.1258
1.13048
1.11299
1.11321
1.11375
1.11463
1.11589
1.11761
1.11986
1.12275
1.12638
1.13089
1.11435
1.11453
1.11504
1.11589
1.11714
1.11883
1.12104
1.12386
1.12739
1.13175
1.11621
1.11633
1.11679
1.11761
1.11883
1.12049
1.12267
1.12543
1.12888
1.1331
1.11866
1.1187
1.11909
1.11986
1.12104
1.12267
1.1248
1.12751
1.13087
1.13497
1.12185
1.12176
1.12205
1.12275
1.12386
1.12543
1.12751
1.13015
1.13343
1.1374
1.12592
1.12565
1.1258
1.12638
1.12739
1.12888
1.13087
1.13342
1.1366
1.14044
1.13102
1.13052
1.13048
1.13088
1.13175
1.1331
1.13497
1.1374
1.14044
1.14414
1.01939
1.01966
1.02024
1.02117
1.02253
1.02446
1.0271
1.03066
1.0354
1.04162
1.01966
1.01992
1.02048
1.02139
1.02272
1.02459
1.02714
1.03056
1.03508
1.041
1.02024
1.02048
1.02103
1.02192
1.02324
1.02507
1.02756
1.03088
1.03525
1.04094
1.02116
1.02139
1.02192
1.02281
1.02412
1.02595
1.02841
1.03167
1.03593
1.04143
1.02253
1.02272
1.02324
1.02412
1.02544
1.02726
1.02972
1.03295
1.03713
1.04249
1.02446
1.02459
1.02507
1.02595
1.02726
1.0291
1.03156
1.03478
1.03892
1.04418
1.0271
1.02714
1.02756
1.02841
1.02972
1.03156
1.03403
1.03725
1.04136
1.04654
1.03066
1.03055
1.03088
1.03167
1.03294
1.03478
1.03725
1.04046
1.04456
1.04969
1.03539
1.03508
1.03525
1.03592
1.03713
1.03892
1.04136
1.04456
1.04864
1.05372
1.04161
1.041
1.04093
1.04142
1.04249
1.04417
1.04654
1.04969
1.05372
1.05876
0.92563
0.925764
0.926058
0.926571
0.927392
0.928651
0.930528
0.933265
0.937189
0.942733
0.925764
0.925897
0.92619
0.926699
0.927507
0.928735
0.930548
0.933174
0.936912
0.942162
0.926058
0.92619
0.926491
0.927012
0.927832
0.929061
0.930855
0.933424
0.937046
0.942087
0.92657
0.926698
0.927012
0.927558
0.928408
0.929667
0.931479
0.934039
0.937605
0.942512
0.927391
0.927506
0.927831
0.928408
0.929303
0.930613
0.932473
0.935064
0.938624
0.943462
0.928649
0.928733
0.92906
0.929666
0.930612
0.931988
0.93392
0.936574
0.940173
0.944996
0.930525
0.930546
0.930853
0.931477
0.932472
0.933919
0.935936
0.938679
0.942351
0.947204
0.933261
0.933171
0.933421
0.934036
0.935062
0.936573
0.938678
0.941523
0.945294
0.950215
0.937184
0.936908
0.937042
0.937601
0.938622
0.940171
0.942349
0.945293
0.949178
0.954201
0.942728
0.942157
0.942082
0.942507
0.943458
0.944993
0.947201
0.950213
0.9542
0.959364
0.830741
0.830609
0.830361
0.830043
0.829722
0.829497
0.82951
0.829962
0.831137
0.833436
0.830608
0.830491
0.830266
0.829976
0.829684
0.829481
0.8295
0.829928
0.831026
0.833161
0.830361
0.830266
0.830077
0.829834
0.829594
0.829444
0.829509
0.829962
0.831045
0.833096
0.830043
0.829976
0.829833
0.829652
0.829486
0.829417
0.829561
0.830082
0.831206
0.833245
0.829721
0.829683
0.829593
0.829485
0.82941
0.829446
0.8297
0.830328
0.831541
0.833629
0.829495
0.829479
0.829443
0.829416
0.829445
0.829603
0.829994
0.830763
0.832107
0.834299
0.829507
0.829498
0.829507
0.82956
0.829699
0.829994
0.830542
0.83148
0.832996
0.835339
0.829959
0.829925
0.829959
0.83008
0.830326
0.830761
0.831479
0.832611
0.834331
0.83687
0.831132
0.831021
0.831041
0.831202
0.831537
0.832105
0.832994
0.83433
0.836283
0.839065
0.83343
0.833155
0.833091
0.83324
0.833624
0.834295
0.835336
0.836868
0.839064
0.84215
0.736421
0.735933
0.734959
0.733511
0.731607
0.729273
0.726548
0.723496
0.720213
0.716854
0.735933
0.73548
0.734557
0.733177
0.731355
0.729116
0.726498
0.723558
0.720387
0.717125
0.734958
0.734557
0.733703
0.732407
0.730685
0.728561
0.726069
0.723266
0.720234
0.717105
0.733511
0.733176
0.732407
0.731212
0.729608
0.727617
0.725272
0.722627
0.71976
0.716795
0.731606
0.731354
0.730684
0.729608
0.728138
0.726298
0.724119
0.721653
0.718975
0.716205
0.729271
0.729115
0.728559
0.727616
0.726297
0.724625
0.722631
0.720365
0.717899
0.715351
0.726546
0.726496
0.726067
0.72527
0.724118
0.72263
0.720841
0.718797
0.716566
0.714265
0.723493
0.723555
0.723263
0.722624
0.721651
0.720364
0.718796
0.716993
0.715024
0.712997
0.720209
0.720383
0.72023
0.719756
0.718972
0.717897
0.716564
0.715023
0.713341
0.711627
0.716849
0.71712
0.7171
0.716791
0.716201
0.715347
0.714262
0.712995
0.711626
0.710283
0.644987
0.644127
0.642388
0.639747
0.636158
0.631557
0.625854
0.618925
0.610608
0.600686
0.644127
0.643323
0.641664
0.639131
0.63568
0.631252
0.625764
0.619102
0.611116
0.601609
0.642388
0.641664
0.640107
0.637696
0.634394
0.630143
0.624866
0.61846
0.610785
0.601663
0.639746
0.63913
0.637696
0.635425
0.632282
0.628214
0.62315
0.616992
0.609612
0.600851
0.636157
0.635679
0.634393
0.632282
0.629313
0.625437
0.620588
0.614676
0.60758
0.599161
0.631556
0.631251
0.630142
0.628213
0.625436
0.621767
0.617141
0.611475
0.604658
0.596567
0.625852
0.625762
0.624865
0.623148
0.620587
0.61714
0.61275
0.607337
0.600798
0.593025
0.618922
0.619099
0.618458
0.61699
0.614674
0.611473
0.607336
0.602188
0.595934
0.588479
0.610604
0.611112
0.610782
0.609609
0.607578
0.604656
0.600796
0.595933
0.589978
0.582856
0.600681
0.601605
0.601659
0.600847
0.599157
0.596564
0.593023
0.588477
0.582855
0.576103
0.558919
0.557752
0.555383
0.55176
0.546792
0.540344
0.532226
0.522173
0.509822
0.494673
0.557751
0.556657
0.554394
0.550914
0.546132
0.539922
0.532109
0.522448
0.510605
0.496124
0.555382
0.554394
0.552261
0.548938
0.544346
0.538369
0.530842
0.521538
0.510148
0.496256
0.55176
0.550913
0.548938
0.545791
0.541399
0.535652
0.528397
0.519424
0.508443
0.495075
0.546792
0.546131
0.544346
0.541398
0.53722
0.531709
0.524721
0.516058
0.505451
0.492555
0.540343
0.539921
0.538368
0.535651
0.531708
0.526444
0.519723
0.51136
0.501102
0.488637
0.532224
0.532107
0.53084
0.528396
0.524719
0.519723
0.513279
0.505214
0.49529
0.483223
0.522171
0.522446
0.521536
0.519422
0.516056
0.511359
0.505213
0.497455
0.48786
0.476174
0.509819
0.510602
0.510146
0.50844
0.505448
0.5011
0.495288
0.48786
0.478606
0.467301
0.494669
0.496121
0.496253
0.495071
0.492552
0.488634
0.483221
0.476172
0.4673
0.456401
0.48031
0.478962
0.476227
0.472042
0.466303
0.458854
0.449479
0.437883
0.423661
0.406268
0.478962
0.477698
0.475086
0.471067
0.465543
0.458372
0.449353
0.438211
0.424576
0.407946
0.476226
0.475085
0.472624
0.468789
0.463489
0.456591
0.447907
0.437185
0.424078
0.40813
0.472042
0.471066
0.468789
0.465161
0.460096
0.453471
0.445112
0.434781
0.422158
0.406825
0.466302
0.465543
0.463489
0.460096
0.455286
0.448942
0.440903
0.430947
0.418775
0.404006
0.458853
0.458371
0.45659
0.45347
0.448942
0.442897
0.435184
0.425595
0.413852
0.399607
0.449478
0.449352
0.447906
0.445111
0.440902
0.435183
0.427812
0.418596
0.407271
0.393525
0.437881
0.43821
0.437183
0.434779
0.430946
0.425594
0.418595
0.409767
0.398866
0.385609
0.423659
0.424573
0.424076
0.422156
0.418773
0.41385
0.40727
0.398866
0.38841
0.375651
0.406265
0.407943
0.408127
0.406823
0.404003
0.399605
0.393523
0.385607
0.37565
0.363421
0.410445
0.409062
0.40626
0.40199
0.396165
0.388661
0.37931
0.36789
0.354112
0.337606
0.409061
0.407766
0.405095
0.400999
0.395399
0.388181
0.379189
0.368217
0.354998
0.339191
0.40626
0.405094
0.402586
0.398689
0.393331
0.386405
0.377768
0.367228
0.354538
0.339385
0.40199
0.400999
0.398689
0.39502
0.389924
0.383302
0.375021
0.364905
0.352724
0.338191
0.396165
0.395399
0.393331
0.389923
0.385115
0.378816
0.370902
0.36121
0.349526
0.335593
0.38866
0.388181
0.386405
0.383301
0.378816
0.372865
0.365336
0.356077
0.344891
0.331546
0.379309
0.379188
0.377767
0.375021
0.370901
0.365335
0.358219
0.349414
0.338738
0.325982
0.367889
0.368216
0.367227
0.364904
0.361209
0.356076
0.349414
0.341094
0.330951
0.318799
0.354111
0.354996
0.354536
0.352722
0.349525
0.34489
0.338737
0.330951
0.321381
0.309866
0.337604
0.339188
0.339383
0.33819
0.335591
0.331545
0.32598
0.318798
0.309865
0.299038
0.349647
0.348348
0.345728
0.341757
0.336388
0.329555
0.321175
0.311151
0.299372
0.285725
0.348348
0.347135
0.344641
0.34084
0.335687
0.329123
0.32107
0.311438
0.300122
0.287016
0.345728
0.344641
0.34231
0.338709
0.3338
0.327525
0.319816
0.310587
0.299743
0.287186
0.341757
0.34084
0.338709
0.335343
0.330705
0.324745
0.317399
0.308591
0.298232
0.286234
0.336388
0.335687
0.333799
0.330705
0.326372
0.320756
0.313799
0.305432
0.295576
0.284153
0.329554
0.329122
0.327525
0.324745
0.320756
0.315518
0.308982
0.301085
0.291756
0.28093
0.321175
0.32107
0.319815
0.317399
0.313799
0.308982
0.302904
0.295512
0.286744
0.276545
0.311151
0.311437
0.310587
0.30859
0.305432
0.301084
0.295512
0.288669
0.280503
0.27097
0.299372
0.300121
0.299743
0.298231
0.295575
0.291756
0.286743
0.280503
0.27299
0.264173
0.285724
0.287015
0.287185
0.286233
0.284152
0.280929
0.276544
0.270969
0.264173
0.256135
0.297423
0.296279
0.29398
0.290521
0.285891
0.280081
0.273087
0.264918
0.255612
0.24525
0.296279
0.295213
0.293031
0.289726
0.285291
0.279717
0.272999
0.265148
0.256194
0.246211
0.29398
0.29303
0.291001
0.287886
0.28368
0.278374
0.271967
0.264466
0.255902
0.246341
0.290521
0.289726
0.287886
0.284998
0.281054
0.27605
0.269987
0.262872
0.254735
0.245638
0.285891
0.285291
0.28368
0.281054
0.27741
0.272745
0.26706
0.260367
0.252695
0.244105
0.280081
0.279717
0.278374
0.27605
0.272745
0.268456
0.263189
0.256957
0.249791
0.24175
0.273087
0.273
0.271967
0.269987
0.26706
0.263189
0.258381
0.252653
0.246035
0.238589
0.264919
0.265148
0.264466
0.262872
0.260367
0.256957
0.252653
0.247473
0.241451
0.234647
0.255612
0.256194
0.255902
0.254735
0.252695
0.249791
0.246035
0.241451
0.236074
0.229966
0.245251
0.246211
0.246342
0.245638
0.244105
0.24175
0.238589
0.234647
0.229966
0.224611
0.252794
0.251824
0.249881
0.246976
0.243123
0.238347
0.23269
0.226219
0.219038
0.211305
0.251824
0.250922
0.249081
0.246311
0.242626
0.238049
0.232619
0.226397
0.219479
0.212008
0.249881
0.249081
0.247377
0.244777
0.241296
0.236955
0.231791
0.225862
0.219254
0.212102
0.246976
0.246311
0.244777
0.242382
0.23914
0.235071
0.230212
0.224616
0.218365
0.211583
0.243123
0.242626
0.241296
0.23914
0.236171
0.232411
0.227894
0.222672
0.216821
0.210458
0.238348
0.238049
0.236955
0.235072
0.232411
0.228996
0.224858
0.220049
0.214642
0.208744
0.232691
0.23262
0.231792
0.230212
0.227894
0.224858
0.221138
0.216781
0.211859
0.206471
0.22622
0.226398
0.225863
0.224617
0.222672
0.22005
0.216781
0.212915
0.208517
0.203683
0.219039
0.21948
0.219256
0.218367
0.216822
0.214643
0.211859
0.208517
0.204683
0.200444
0.211307
0.212009
0.212103
0.211584
0.210459
0.208746
0.206472
0.203684
0.200444
0.196841
0.214636
0.213823
0.212199
0.209781
0.206591
0.202667
0.198059
0.192841
0.187116
0.181021
0.213823
0.213068
0.211532
0.209229
0.206181
0.202422
0.198
0.192982
0.187463
0.18157
0.2122
0.211532
0.210114
0.207957
0.205084
0.201526
0.197327
0.19255
0.187282
0.18164
0.209781
0.209229
0.207958
0.205979
0.203313
0.199988
0.196047
0.191548
0.186571
0.181226
0.206592
0.206182
0.205085
0.203313
0.200883
0.197824
0.194174
0.189989
0.185342
0.180335
0.202668
0.202423
0.201527
0.199988
0.197824
0.195061
0.191734
0.187895
0.183614
0.178982
0.19806
0.198001
0.197328
0.196048
0.194175
0.191734
0.188759
0.185298
0.181414
0.177192
0.192843
0.192984
0.192552
0.191549
0.18999
0.187896
0.185298
0.182241
0.178783
0.175003
0.187118
0.187466
0.187284
0.186573
0.185344
0.183615
0.181415
0.178784
0.175777
0.172464
0.181025
0.181573
0.181642
0.181228
0.180337
0.178984
0.177194
0.175004
0.172464
0.169642
0.18192
0.181234
0.179865
0.177827
0.175143
0.171841
0.167965
0.163565
0.158708
0.153473
0.181234
0.180597
0.179302
0.177362
0.174797
0.171635
0.167914
0.163683
0.159002
0.153947
0.179865
0.179302
0.178107
0.176291
0.173873
0.17088
0.167345
0.163315
0.158845
0.154003
0.177828
0.177362
0.176291
0.174626
0.172382
0.169584
0.166264
0.162464
0.158234
0.153638
0.175143
0.174797
0.173874
0.172382
0.170337
0.16776
0.164682
0.161138
0.157178
0.152857
0.171843
0.171636
0.170881
0.169585
0.167761
0.165429
0.162615
0.159353
0.155687
0.151668
0.167967
0.167916
0.167347
0.166266
0.164683
0.162615
0.160087
0.157129
0.153779
0.150085
0.163567
0.163685
0.163317
0.162466
0.16114
0.159354
0.15713
0.154494
0.151479
0.148127
0.158711
0.159006
0.158848
0.158237
0.15718
0.155689
0.153781
0.15148
0.148814
0.145821
0.153477
0.153951
0.154007
0.153642
0.15286
0.15167
0.150087
0.148129
0.145822
0.1432
0.153813
0.153225
0.152049
0.150298
0.147984
0.145128
0.141754
0.137888
0.133559
0.128793
0.153225
0.152678
0.151566
0.149897
0.147685
0.144949
0.141709
0.137992
0.133823
0.12923
0.15205
0.151566
0.150538
0.148974
0.146887
0.144293
0.141211
0.137665
0.13368
0.129279
0.150298
0.149898
0.148975
0.147537
0.145596
0.143165
0.140262
0.13691
0.133129
0.128941
0.147985
0.147686
0.146888
0.145596
0.14382
0.141572
0.138869
0.135729
0.132172
0.128217
0.14513
0.14495
0.144294
0.143166
0.141573
0.139527
0.137041
0.134131
0.130814
0.127109
0.141756
0.141711
0.141213
0.140264
0.13887
0.137041
0.134788
0.132124
0.129064
0.125622
0.137891
0.137995
0.137668
0.136912
0.135731
0.134132
0.132125
0.12972
0.126928
0.123761
0.133563
0.133827
0.133684
0.133132
0.132174
0.130816
0.129065
0.126928
0.124414
0.121534
0.128799
0.129235
0.129284
0.128946
0.12822
0.127112
0.125624
0.123763
0.121535
0.118949
0.129674
0.129162
0.128138
0.126608
0.124581
0.122066
0.119074
0.115614
0.111694
0.107312
0.129162
0.128686
0.127716
0.126258
0.124318
0.121907
0.119034
0.115708
0.111936
0.107717
0.128138
0.127716
0.126818
0.125449
0.123616
0.121327
0.11859
0.115415
0.111805
0.107763
0.126609
0.126258
0.12545
0.124188
0.122478
0.120327
0.117743
0.114733
0.111302
0.10745
0.124582
0.124319
0.123617
0.122479
0.120908
0.118912
0.116496
0.113666
0.110426
0.106777
0.122067
0.121909
0.121328
0.120328
0.118912
0.117085
0.114851
0.112216
0.10918
0.105746
0.119076
0.119037
0.118592
0.117745
0.116497
0.114852
0.112813
0.110384
0.107564
0.104355
0.115618
0.115712
0.115418
0.114736
0.113668
0.112217
0.110384
0.108172
0.105578
0.102604
0.111699
0.11194
0.111809
0.111305
0.110429
0.109183
0.107566
0.105579
0.103221
0.10049
0.107318
0.107722
0.107768
0.107454
0.106781
0.105749
0.104358
0.102606
0.100491
0.0980122
0.108999
0.10855
0.107652
0.106308
0.104523
0.102302
0.0996476
0.0965638
0.0930495
0.0890989
0.10855
0.108133
0.107282
0.106
0.104292
0.102162
0.0996126
0.0966479
0.0932669
0.0894646
0.107652
0.107282
0.106493
0.105289
0.103673
0.101648
0.0992182
0.0963857
0.0931499
0.0895068
0.106309
0.106001
0.10529
0.104177
0.102667
0.100762
0.0984645
0.0957768
0.0926979
0.0892245
0.104525
0.104293
0.103674
0.102668
0.101277
0.0995047
0.0973525
0.0948217
0.0919111
0.0886178
0.102304
0.102163
0.101649
0.100763
0.0995053
0.0978783
0.0958834
0.0935209
0.0907893
0.0876862
0.0996503
0.0996151
0.0992204
0.0984663
0.0973539
0.0958841
0.0940577
0.0918744
0.089332
0.0864284
0.0965674
0.0966514
0.0963888
0.0957795
0.0948239
0.0935225
0.0918753
0.0898813
0.0875377
0.0848429
0.0930543
0.0932714
0.0931541
0.0927017
0.0919143
0.0907918
0.0893338
0.0875386
0.0854033
0.0829265
0.0891051
0.0894705
0.0895122
0.0892295
0.0886222
0.0876899
0.0864314
0.084845
0.0829276
0.0806787
0.0913628
0.0909707
0.0901853
0.0890094
0.0874456
0.0854971
0.0831671
0.0804579
0.0773708
0.0739055
0.0909708
0.090606
0.0898615
0.0887396
0.0872429
0.0853742
0.0831365
0.080532
0.0775619
0.0742261
0.0901857
0.0898617
0.0891715
0.0881168
0.0867
0.0849237
0.0827903
0.080302
0.0774596
0.0742636
0.0890101
0.0887402
0.0881172
0.0871425
0.0858181
0.0841461
0.0821287
0.0797675
0.0770635
0.0740172
0.0874468
0.087244
0.0867009
0.0858186
0.0845986
0.0830425
0.0811523
0.0789292
0.0763737
0.073487
0.085499
0.085376
0.0849252
0.0841472
0.0830431
0.0816144
0.0798621
0.0777875
0.0753906
0.072673
0.0831698
0.083139
0.0827925
0.0821305
0.0811536
0.0798628
0.0782591
0.076343
0.0741145
0.0715754
0.0804616
0.0805354
0.0803051
0.0797702
0.0789313
0.077789
0.0763439
0.0745961
0.0725455
0.0701941
0.0773756
0.0775664
0.0774638
0.0770672
0.0763769
0.0753932
0.0741163
0.0725465
0.0706832
0.0685289
0.0739116
0.0742319
0.074269
0.074022
0.0734913
0.0726767
0.0715783
0.0701961
0.0685299
0.0665828
0.0763885
0.0760481
0.0753663
0.0743455
0.0729885
0.0712987
0.0692803
0.0669381
0.0642775
0.0613051
0.0760482
0.0757315
0.0750852
0.0741114
0.0728127
0.0711923
0.069254
0.0670022
0.0644419
0.0615794
0.0753667
0.0750855
0.0744863
0.073571
0.072342
0.070802
0.0689546
0.0668038
0.0643542
0.0616119
0.0743462
0.074112
0.0735714
0.0727258
0.0715773
0.0701285
0.0683824
0.0663429
0.0640139
0.0614015
0.0729897
0.0728138
0.0723428
0.0715778
0.0705205
0.0691732
0.0675387
0.0656203
0.0634218
0.0609489
0.0713005
0.0711939
0.0708033
0.0701295
0.0691738
0.0679382
0.0664251
0.0646375
0.0625788
0.0602548
0.0692829
0.0692563
0.0689567
0.0683841
0.06754
0.0664257
0.0650436
0.0633962
0.0614866
0.0593205
0.0669416
0.0670054
0.0668067
0.0663454
0.0656224
0.0646389
0.063397
0.0618989
0.0601472
0.0581478
0.064282
0.0644461
0.0643581
0.0640174
0.0634247
0.0625812
0.0614882
0.0601481
0.0585632
0.0567393
0.0613108
0.0615849
0.0616169
0.0614061
0.060953
0.0602582
0.0593232
0.0581497
0.0567403
0.0551011
0.0637277
0.0634346
0.0628477
0.0619696
0.0608033
0.0593532
0.0576245
0.055624
0.0533601
0.0508437
0.0634347
0.0631621
0.0626059
0.0617683
0.0606524
0.0592619
0.0576019
0.0556786
0.0534997
0.0510753
0.0628481
0.0626061
0.0620907
0.0613039
0.0602482
0.0589274
0.0573459
0.0555095
0.0534254
0.0511029
0.0619703
0.0617689
0.0613042
0.0605778
0.0595922
0.0583505
0.056857
0.0551169
0.0531367
0.0509254
0.0608044
0.0606533
0.060249
0.0595926
0.0586863
0.0575331
0.0561366
0.0545018
0.0526347
0.0505437
0.0593548
0.0592634
0.0589286
0.0583514
0.0575336
0.0564777
0.0551871
0.0536664
0.0519209
0.0499588
0.0576268
0.0576041
0.0573478
0.0568585
0.0561377
0.0551877
0.0540116
0.0526132
0.0509977
0.0491729
0.0556271
0.0556815
0.0555122
0.0551192
0.0545037
0.0536677
0.052614
0.051346
0.0498684
0.0481887
0.0533642
0.0535036
0.0534289
0.0531399
0.0526374
0.051923
0.0509992
0.0498693
0.0485372
0.0470102
0.0508488
0.0510802
0.0511074
0.0509296
0.0505473
0.0499619
0.0491753
0.0481904
0.0470111
0.0456446
0.0530605
0.05281
0.0523086
0.0515588
0.0505641
0.049329
0.0478595
0.046163
0.044249
0.0421289
0.0528101
0.0525771
0.052102
0.0513871
0.0504354
0.0492513
0.0478403
0.0462093
0.0443668
0.0423237
0.0523089
0.0521022
0.0516622
0.0509908
0.0500911
0.0489667
0.047623
0.0460661
0.0443041
0.0423469
0.0515594
0.0513875
0.0509911
0.0503719
0.0495324
0.0484763
0.0472081
0.0457337
0.0440604
0.0421977
0.050565
0.0504363
0.0500917
0.0495328
0.0487618
0.0477819
0.0465973
0.0452135
0.0436369
0.0418767
0.0493304
0.0492526
0.0489679
0.0484771
0.0477823
0.0468864
0.0457932
0.0445075
0.0430354
0.0413853
0.0478615
0.0478422
0.0476246
0.0472094
0.0465983
0.0457937
0.0447991
0.0436188
0.0422583
0.0407256
0.0461658
0.0462118
0.0460684
0.0457357
0.0452151
0.0445086
0.0436194
0.0425513
0.0413092
0.0399006
0.0442525
0.0443701
0.0443071
0.0440632
0.0436393
0.0430372
0.0422596
0.0413099
0.0401925
0.0389143
0.0421333
0.042328
0.0423508
0.0422012
0.0418798
0.0413879
0.0407277
0.0399021
0.0389151
0.0377736
0.0440986
0.0438856
0.0434595
0.0428227
0.0419786
0.0409316
0.0396876
0.0382537
0.0366387
0.0348529
0.0438857
0.0436877
0.043284
0.0426769
0.0418695
0.0408658
0.0396714
0.0382928
0.036738
0.0350169
0.0434598
0.0432842
0.0429105
0.0423406
0.0415775
0.0406248
0.0394875
0.0381718
0.036685
0.0350364
0.0428232
0.0426773
0.0423409
0.0418156
0.041104
0.0402095
0.0391367
0.0378911
0.0364796
0.0349107
0.0419794
0.0418702
0.041578
0.0411043
0.0404512
0.0396219
0.0386204
0.037452
0.0361226
0.0346405
0.0409328
0.0408669
0.0406257
0.0402102
0.0396223
0.0388647
0.0379412
0.0368564
0.0356158
0.0342269
0.0396893
0.039673
0.0394889
0.0391378
0.0386213
0.0379417
0.0371023
0.0361072
0.0349614
0.0336719
0.038256
0.0382949
0.0381738
0.0378928
0.0374533
0.0368573
0.0361077
0.035208
0.0341626
0.0329781
0.0366416
0.0367408
0.0366876
0.0364819
0.0361246
0.0356173
0.0349624
0.0341632
0.0332234
0.0321491
0.0348566
0.0350204
0.0350396
0.0349136
0.034643
0.0342291
0.0336736
0.0329794
0.0321498
0.0311906
0.0365871
0.0364067
0.0360459
0.035507
0.0347929
0.0339078
0.0328569
0.0316466
0.0302843
0.0287788
0.0364068
0.0362391
0.0358974
0.0353836
0.0347006
0.0338522
0.0328432
0.0316795
0.030368
0.028917
0.0360461
0.0358975
0.0355812
0.0350991
0.0344537
0.0336485
0.032688
0.0315775
0.0303233
0.0289333
0.0355074
0.0353839
0.0350993
0.034655
0.0340534
0.0332977
0.0323917
0.0313406
0.03015
0.0288273
0.0347936
0.0347012
0.0344542
0.0340537
0.0335018
0.0328013
0.0319559
0.03097
0.029849
0.0285994
0.0339088
0.0338531
0.0336493
0.0332982
0.0328017
0.0321621
0.0313827
0.0304676
0.0294215
0.0282506
0.0328583
0.0328445
0.0326891
0.0323926
0.0319566
0.0313831
0.030675
0.0298358
0.0288697
0.0277826
0.0316484
0.0316812
0.031579
0.0313419
0.0309711
0.0304684
0.0298362
0.0290775
0.0281962
0.0271976
0.0302866
0.0303702
0.0303254
0.0301518
0.0298505
0.0294227
0.0288706
0.0281967
0.0274043
0.0264983
0.0287816
0.0289197
0.0289358
0.0288296
0.0286014
0.0282524
0.027784
0.0271985
0.0264988
0.0256895
0.0303045
0.0301522
0.0298475
0.0293924
0.0287897
0.0280429
0.0271565
0.0261358
0.0249873
0.023718
0.0301522
0.0300106
0.029722
0.0292883
0.0287118
0.0279959
0.0271449
0.0261636
0.0250579
0.0238345
0.0298476
0.0297221
0.0294551
0.0290481
0.0285034
0.0278241
0.0270139
0.0260775
0.0250202
0.0238482
0.0293928
0.0292885
0.0290483
0.0286733
0.0281657
0.0275281
0.0267641
0.0258777
0.024874
0.0237588
0.0287902
0.0287123
0.0285038
0.0281659
0.0277003
0.0271095
0.0263965
0.0255653
0.0246201
0.0235666
0.0280436
0.0279966
0.0278247
0.0275285
0.0271097
0.0265703
0.0259132
0.0251417
0.0242597
0.0232724
0.0271575
0.0271459
0.0270148
0.0267648
0.0263971
0.0259135
0.0253164
0.0246089
0.0237943
0.0228776
0.0261372
0.0261649
0.0260787
0.0258788
0.0255661
0.0251422
0.0246092
0.0239695
0.0232263
0.022384
0.024989
0.0250595
0.0250217
0.0248754
0.0246213
0.0242606
0.023795
0.0232267
0.0225583
0.0217938
0.0237201
0.0238365
0.0238501
0.0237605
0.0235681
0.0232737
0.0228786
0.0223847
0.0217942
0.0211109
0.0250604
0.024932
0.0246752
0.0242918
0.023784
0.023155
0.0224085
0.0215492
0.0205823
0.0195137
0.024932
0.0248126
0.0245695
0.024204
0.0237184
0.0231154
0.0223988
0.0215725
0.0206417
0.0196118
0.0246753
0.0245696
0.0243446
0.0240017
0.0235429
0.0229707
0.0222885
0.0215001
0.0206099
0.0196233
0.024292
0.0242042
0.0240018
0.0236859
0.0232584
0.0227214
0.0220781
0.0213318
0.0204868
0.019548
0.0237844
0.0237187
0.0235431
0.0232585
0.0228664
0.0223689
0.0217686
0.0210688
0.0202731
0.0193861
0.0231556
0.023116
0.0229712
0.0227218
0.0223691
0.0219149
0.0213616
0.0207121
0.0199696
0.0191384
0.0224093
0.0223995
0.0222891
0.0220786
0.021769
0.0213618
0.0208592
0.0202635
0.0195777
0.0188059
0.0215503
0.0215735
0.021501
0.0213326
0.0210694
0.0207125
0.0202637
0.0197252
0.0190995
0.0183902
0.0205836
0.0206429
0.0206111
0.0204879
0.0202739
0.0199702
0.0195782
0.0190997
0.0185369
0.0178932
0.0195153
0.0196133
0.0196247
0.0195493
0.0193872
0.0191393
0.0188067
0.0183908
0.0178935
0.0173181
0.0206916
0.0205836
0.0203677
0.0200453
0.0196185
0.0190898
0.0184625
0.0177405
0.0169284
0.0160311
0.0205837
0.0204833
0.0202788
0.0199715
0.0195633
0.0190565
0.0184543
0.0177601
0.0169783
0.0161134
0.0203678
0.0202789
0.0200897
0.0198014
0.0194158
0.0189349
0.0183616
0.0176992
0.0169516
0.0161231
0.0200455
0.0199717
0.0198015
0.019536
0.0191766
0.0187254
0.0181848
0.0175579
0.0168482
0.0160598
0.0196188
0.0195636
0.019416
0.0191767
0.0188472
0.0184291
0.0179248
0.0173369
0.0166686
0.0159239
0.0190902
0.019057
0.0189352
0.0187256
0.0184293
0.0180477
0.0175829
0.0170373
0.0164137
0.0157159
0.0184631
0.0184549
0.0183621
0.0181852
0.0179251
0.017583
0.0171608
0.0166605
0.0160847
0.0154368
0.0177413
0.0177609
0.0176999
0.0175585
0.0173374
0.0170376
0.0166607
0.0162085
0.0156832
0.0150878
0.0169294
0.0169792
0.0169524
0.016849
0.0166693
0.0164143
0.0160851
0.0156834
0.0152109
0.0146707
0.0160323
0.0161145
0.0161242
0.0160608
0.0159247
0.0157166
0.0154373
0.0150882
0.0146709
0.0141881
0.0170593
0.0169686
0.0167875
0.0165171
0.016159
0.0157157
0.0151898
0.0145848
0.0139046
0.0131534
0.0169687
0.0168845
0.0167129
0.0164552
0.0161128
0.0156878
0.015183
0.0146013
0.0139463
0.0132223
0.0167876
0.016713
0.0165543
0.0163125
0.015989
0.0155858
0.0151053
0.0145502
0.013924
0.0132304
0.0165172
0.0164553
0.0163126
0.0160899
0.0157885
0.0154102
0.0149571
0.0144318
0.0138374
0.0131774
0.0161593
0.016113
0.0159892
0.0157886
0.0155123
0.0151619
0.0147392
0.0142467
0.013687
0.0130636
0.0157161
0.0156882
0.0155861
0.0154104
0.015162
0.0148422
0.0144527
0.0139957
0.0134736
0.0128895
0.0151904
0.0151835
0.0151057
0.0149575
0.0147395
0.0144529
0.0140992
0.0136802
0.0131982
0.012656
0.0145855
0.0146019
0.0145508
0.0144323
0.0142471
0.013996
0.0136804
0.0133018
0.0128622
0.0123642
0.0139054
0.0139471
0.0139247
0.013838
0.0136876
0.0134741
0.0131985
0.0128623
0.0124671
0.0120154
0.0131544
0.0132232
0.0132312
0.0131782
0.0130643
0.0128901
0.0126565
0.0123645
0.0120155
0.011612
0.0140449
0.0139691
0.0138175
0.0135911
0.0132916
0.0129207
0.012481
0.0119754
0.0114072
0.0107802
0.0139691
0.0138986
0.013755
0.0135393
0.0132529
0.0128974
0.0124753
0.0119891
0.0114421
0.0108377
0.0138175
0.0137551
0.0136223
0.01342
0.0131494
0.0128121
0.0124104
0.0119465
0.0114234
0.0108444
0.0135913
0.0135395
0.01342
0.0132337
0.0129816
0.0126653
0.0122865
0.0118476
0.0113511
0.0108002
0.0132918
0.0132531
0.0131495
0.0129817
0.0127507
0.0124577
0.0121044
0.0116929
0.0112255
0.0107052
0.0129211
0.0128978
0.0128124
0.0126655
0.0124578
0.0121905
0.011865
0.0114833
0.0110474
0.01056
0.0124815
0.0124757
0.0124108
0.0122868
0.0121046
0.0118652
0.0115697
0.0112199
0.0108175
0.0103653
0.011976
0.0119897
0.011947
0.011848
0.0116933
0.0114836
0.01122
0.010904
0.0105372
0.0101219
0.0114079
0.0114428
0.0114241
0.0113517
0.0112261
0.0110478
0.0108178
0.0105373
0.0102077
0.00983121
0.0107811
0.0108385
0.0108452
0.0108009
0.0107059
0.0105606
0.0103657
0.0101222
0.00983138
0.00949516
0.011548
0.0114847
0.0113581
0.0111691
0.0109191
0.0106096
0.0102429
0.0098214
0.00934797
0.00882597
0.0114847
0.0114258
0.011306
0.0111259
0.0108868
0.0105902
0.0102381
0.00983283
0.00937702
0.00887381
0.0113581
0.011306
0.0111951
0.0110262
0.0108004
0.0105191
0.010184
0.00979729
0.00936147
0.00887942
0.0111693
0.011126
0.0110263
0.0108708
0.0106605
0.0103966
0.0100807
0.00971486
0.00930126
0.00884263
0.0109193
0.010887
0.0108006
0.0106606
0.0104678
0.0102235
0.00992893
0.009586
0.00919672
0.00876363
0.01061
0.0105905
0.0105193
0.0103968
0.0102236
0.0100007
0.00972946
0.00941142
0.00904842
0.00864282
0.0102434
0.0102386
0.0101844
0.0100811
0.00992918
0.00972959
0.00948342
0.00919206
0.00885712
0.00848082
0.00982205
0.00983344
0.00979785
0.00971535
0.0095864
0.0094117
0.00919221
0.00892912
0.00862387
0.00827847
0.00934878
0.00937779
0.00936219
0.00930191
0.00919729
0.00904887
0.00885745
0.00862404
0.00834989
0.00803686
0.00882694
0.00887474
0.0088803
0.00884345
0.00876436
0.00864345
0.00848133
0.00827884
0.00803705
0.00775767
0.00948323
0.00943045
0.00932498
0.0091676
0.00895938
0.00870179
0.00839662
0.00804603
0.00765251
0.0072189
0.00943048
0.00938144
0.00928158
0.00913159
0.00893249
0.00868561
0.00839264
0.00805554
0.00767665
0.00725862
0.00932506
0.00928163
0.00918928
0.00904863
0.0088606
0.00862641
0.0083476
0.008026
0.00766373
0.00726329
0.00916775
0.00913172
0.0090487
0.00891924
0.00874413
0.0085245
0.00826172
0.00795748
0.00761372
0.00723275
0.00895964
0.00893272
0.00886077
0.00874423
0.00858381
0.00838048
0.0081355
0.00785038
0.00752688
0.00716718
0.00870218
0.00868597
0.00862671
0.00852472
0.0083806
0.00819522
0.00796966