/*--------------------------------*- C++ -*----------------------------------*\
| =========                 |                                                 |
| \\      /  F ield         | foam-extend: Open Source CFD                    |
|  \\    /   O peration     | Version:     3.1                                |
|   \\  /    A nd           | Web:         http://www.extend-project.de       |
|    \\/     M anipulation  |                                                 |
\*---------------------------------------------------------------------------*/
FoamFile
{
    version     2.0;
    format      ascii;
    class       surfaceScalarField;
    location    "0.0009";
    object      phi;
}
// * * * * * * * * * * * * * * * * * * * * * * * * * * * * * * * * * * * * * //

dimensions      [0 3 -1 0 0 0 0];

internalField   nonuniform List<scalar> 
45800
(
-1.76438e-11
-1.78988e-11
2.32186e-08
-3.24759e-11
-1.66559e-11
2.28703e-08
-4.35364e-11
-1.35843e-11
2.25792e-08
-5.22408e-11
-9.94349e-12
2.23464e-08
-6.02045e-11
-6.15976e-12
2.21702e-08
-6.8734e-11
-2.33564e-12
2.2049e-08
-7.88296e-11
1.37662e-12
2.1981e-08
-9.10002e-11
4.72979e-12
2.19649e-08
-1.04904e-10
7.36184e-12
2.19992e-08
9.66558e-12
2.20817e-08
-1.19049e-10
-1.64025e-11
-3.25289e-11
2.28698e-08
-3.15154e-11
-3.17366e-11
2.25182e-08
-4.39432e-11
-2.77995e-11
2.2221e-08
-5.4104e-11
-2.2286e-11
2.19776e-08
-6.32258e-11
-1.63367e-11
2.17874e-08
-7.25807e-11
-1.04385e-11
2.16491e-08
-8.31458e-11
-4.93287e-12
2.15611e-08
-9.53812e-11
-3.00616e-13
2.15219e-08
-1.08996e-10
2.90623e-12
2.15297e-08
5.32539e-12
2.15813e-08
-1.21245e-10
-1.34982e-11
-4.32876e-11
2.25789e-08
-2.7567e-11
-4.38596e-11
2.22206e-08
-4.06358e-11
-4.07818e-11
2.19149e-08
-5.22019e-11
-3.51253e-11
2.16594e-08
-6.26617e-11
-2.83244e-11
2.14533e-08
-7.30318e-11
-2.15119e-11
2.12959e-08
-8.42768e-11
-1.53839e-11
2.11859e-08
-9.68036e-11
-1.05833e-11
2.11216e-08
-1.10502e-10
-7.86374e-12
2.11012e-08
-6.46397e-12
2.11214e-08
-1.22565e-10
-1.0013e-11
-5.1878e-11
2.23463e-08
-2.22582e-11
-5.37947e-11
2.19773e-08
-3.49569e-11
-5.2085e-11
2.1659e-08
-4.72572e-11
-4.73747e-11
2.13891e-08
-5.88886e-11
-4.07951e-11
2.11655e-08
-7.02345e-11
-3.37126e-11
2.09871e-08
-8.20556e-11
-2.74162e-11
2.08532e-08
-9.48206e-11
-2.28922e-11
2.07623e-08
-1.08756e-10
-2.09956e-11
2.07126e-08
-2.0997e-11
2.07011e-08
-1.21416e-10
-6.25698e-12
-5.98192e-11
2.21703e-08
-1.64754e-11
-6.2864e-11
2.17874e-08
-2.8351e-11
-6.2372e-11
2.1453e-08
-4.06491e-11
-5.87911e-11
2.11651e-08
-5.28936e-11
-5.30464e-11
2.09217e-08
-6.50466e-11
-4.62129e-11
2.0721e-08
-7.73448e-11
-3.97401e-11
2.05615e-08
-9.01862e-11
-3.52188e-11
2.04421e-08
-1.04268e-10
-3.38286e-11
2.03618e-08
-3.51114e-11
2.03179e-08
-1.17691e-10
-2.42506e-12
-6.835e-11
2.2049e-08
-1.06091e-11
-7.22202e-11
2.16492e-08
-2.16968e-11
-7.27054e-11
2.12959e-08
-3.37732e-11
-6.9992e-11
2.09868e-08
-4.60296e-11
-6.50301e-11
2.07206e-08
-5.84134e-11
-5.87125e-11
2.04955e-08
-7.09143e-11
-5.20472e-11
2.03091e-08
-8.3554e-11
-4.67561e-11
2.01597e-08
-9.73138e-11
-4.45792e-11
2.00468e-08
-4.61908e-11
1.99694e-08
-1.11164e-10
1.29264e-12
-7.84733e-11
2.19811e-08
-5.094e-12
-8.28104e-11
2.15612e-08
-1.5613e-11
-8.39686e-11
2.1186e-08
-2.76788e-11
-8.17768e-11
2.08532e-08
-3.98326e-11
-7.71285e-11
2.05611e-08
-5.1714e-11
-7.09337e-11
2.03084e-08
-6.35333e-11
-6.387e-11
2.00932e-08
-7.51431e-11
-5.69526e-11
1.99125e-08
-8.75487e-11
-5.17028e-11
1.9765e-08
-5.11753e-11
1.96526e-08
-1.01056e-10
4.65218e-12
-9.06998e-11
2.1965e-08
-4.50079e-13
-9.5097e-11
2.1522e-08
-1.0801e-11
-9.6534e-11
2.11217e-08
-2.31881e-11
-9.45532e-11
2.07624e-08
-3.55336e-11
-8.98921e-11
2.04421e-08
-4.67071e-11
-8.32525e-11
2.0159e-08
-5.6594e-11
-7.50167e-11
1.99117e-08
-6.50554e-11
-6.51869e-11
1.96972e-08
-7.36832e-11
-5.38626e-11
1.95134e-08
-4.59823e-11
1.93641e-08
-8.53841e-11
7.29448e-12
-1.04681e-10
2.19994e-08
2.77842e-12
-1.08785e-10
2.15299e-08
-8.0441e-12
-1.10298e-10
2.11014e-08
-2.12223e-11
-1.08545e-10
2.07127e-08
-3.40944e-11
-1.04027e-10
2.03619e-08
-4.46918e-11
-9.70162e-11
2.00467e-08
-5.1597e-11
-8.7276e-11
1.97647e-08
-5.37211e-11
-7.35912e-11
1.95131e-08
-5.30257e-11
-5.30956e-11
1.929e-08
-2.65778e-11
1.90996e-08
-5.85422e-11
9.61193e-12
2.20819e-08
-1.18903e-10
5.22562e-12
2.15814e-08
-1.21108e-10
-6.59916e-12
2.11215e-08
-1.22431e-10
-2.11538e-11
2.07012e-08
-1.21277e-10
-3.52678e-11
2.0318e-08
-1.17536e-10
-4.63002e-11
1.99695e-08
-1.10995e-10
-5.12495e-11
1.96527e-08
-1.00893e-10
-4.59925e-11
1.9364e-08
-8.52591e-11
-2.64925e-11
1.90994e-08
-5.84753e-11
1.88632e-08
-6.02707e-12
-6.03213e-12
1.93708e-10
1.93483e-10
2.28314e-08
3.83835e-10
1.94842e-10
2.24853e-08
5.72917e-10
1.97602e-10
2.21926e-08
7.60932e-10
2.00877e-10
2.19575e-08
9.47353e-10
2.04289e-10
2.17795e-08
1.13156e-09
2.07656e-10
2.16571e-08
1.31276e-09
2.10728e-10
2.1589e-08
1.49001e-09
2.13189e-10
2.15744e-08
1.66232e-09
2.14808e-10
2.16121e-08
2.16619e-10
2.16993e-08
1.82811e-09
1.95055e-10
3.83792e-10
2.24844e-08
3.85336e-10
3.85147e-10
2.21376e-08
5.73519e-10
3.89061e-10
2.18414e-08
7.60354e-10
3.94557e-10
2.15971e-08
9.45627e-10
4.00615e-10
2.14058e-08
1.12873e-09
4.06669e-10
2.1267e-08
1.30894e-09
4.12208e-10
2.11794e-08
1.48547e-09
4.16634e-10
2.11419e-08
1.65753e-09
4.19652e-10
2.11528e-08
4.24127e-10
2.12074e-08
1.82391e-09
1.97656e-10
5.73156e-10
2.21918e-08
3.89238e-10
5.736e-10
2.18405e-08
5.77196e-10
5.7708e-10
2.15389e-08
7.62878e-10
5.83278e-10
2.1285e-08
9.4673e-10
5.90854e-10
2.10792e-08
1.12839e-09
5.98628e-10
2.09223e-08
1.30719e-09
6.05739e-10
2.08136e-08
1.48256e-09
6.11401e-10
2.07514e-08
1.65396e-09
6.1522e-10
2.07343e-08
6.21941e-10
2.07571e-08
1.82049e-09
2.008e-10
7.6128e-10
2.19574e-08
3.94542e-10
7.60649e-10
2.15965e-08
5.83382e-10
7.62991e-10
2.12843e-08
7.68733e-10
7.68649e-10
2.10184e-08
9.51464e-10
7.76544e-10
2.0797e-08
1.13177e-09
7.85173e-10
2.06202e-08
1.30926e-09
7.93102e-10
2.04884e-08
1.48354e-09
7.99261e-10
2.04001e-08
1.6542e-09
8.03266e-10
2.03539e-08
8.11789e-10
2.03451e-08
1.82033e-09
2.04192e-10
9.47724e-10
2.17797e-08
4.00462e-10
9.45978e-10
2.14058e-08
5.90773e-10
9.47014e-10
2.10787e-08
7.76613e-10
9.51565e-10
2.07963e-08
9.58887e-10
9.58777e-10
2.05572e-08
1.13805e-09
9.67351e-10
2.03597e-08
1.31427e-09
9.75548e-10
2.02028e-08
1.48754e-09
9.81711e-10
2.00864e-08
1.65755e-09
9.85355e-10
2.00098e-08
9.95175e-10
1.99688e-08
1.82325e-09
2.07567e-10
1.13193e-09
2.16573e-08
4.06496e-10
1.12909e-09
2.12672e-08
5.98418e-10
1.12872e-09
2.09222e-08
7.85038e-10
1.13202e-09
2.06197e-08
9.67432e-10
1.13808e-09
2.03589e-08
1.146e-09
1.14575e-09
2.01385e-08
1.3211e-09
1.15358e-09
1.9956e-08
1.49338e-09
1.15949e-09
1.98096e-08
1.66303e-09
1.16256e-09
1.96999e-08
1.17321e-09
1.96257e-08
1.82873e-09
2.10644e-10
1.31311e-09
2.15893e-08
4.12044e-10
1.30927e-09
2.11796e-08
6.055e-10
1.30751e-09
2.08138e-08
7.92802e-10
1.30957e-09
2.04884e-08
9.75346e-10
1.31452e-09
2.02021e-08
1.15376e-09
1.32109e-09
1.99546e-08
1.32822e-09
1.32797e-09
1.97444e-08
1.49975e-09
1.33332e-09
1.95672e-08
1.66954e-09
1.33586e-09
1.94219e-08
1.34684e-09
1.93123e-08
1.83622e-09
2.13112e-10
1.49031e-09
2.15747e-08
4.16483e-10
1.48576e-09
2.11422e-08
6.11177e-10
1.48286e-09
2.07517e-08
7.98956e-10
1.48385e-09
2.04003e-08
9.81355e-10
1.48789e-09
2.00863e-08
1.1594e-09
1.49371e-09
1.98083e-08
1.33349e-09
1.4999e-09
1.95657e-08
1.50486e-09
1.50482e-09
1.93543e-08
1.67548e-09
1.50686e-09
1.91717e-08
1.51692e-09
1.90245e-08
1.84498e-09
2.1474e-10
1.66255e-09
2.16124e-08
4.1952e-10
1.65776e-09
2.11531e-08
6.15032e-10
1.6542e-09
2.07345e-08
8.0303e-10
1.65446e-09
2.03541e-08
9.85085e-10
1.65785e-09
2.00099e-08
1.1624e-09
1.66339e-09
1.96997e-08
1.33583e-09
1.66987e-09
1.94213e-08
1.50687e-09
1.67563e-09
1.91713e-08
1.67819e-09
1.67818e-09
1.89474e-08
1.68458e-09
1.87561e-08
1.85403e-09
2.16562e-10
2.16996e-08
1.82829e-09
4.2402e-10
2.12076e-08
1.82408e-09
6.21793e-10
2.07573e-08
1.82066e-09
8.11616e-10
2.03453e-08
1.82053e-09
9.94998e-10
1.9969e-08
1.82346e-09
1.17308e-09
1.96259e-08
1.82896e-09
1.34672e-09
1.93124e-08
1.83645e-09
1.51684e-09
1.90243e-08
1.84516e-09
1.68459e-09
1.87557e-08
1.85414e-09
1.85134e-08
1.85949e-09
1.85953e-09
4.26416e-10
4.26246e-10
2.19788e-08
8.42649e-10
4.28709e-10
2.16403e-08
1.25362e-09
4.32841e-10
2.13488e-08
1.66172e-09
4.38299e-10
2.11111e-08
2.06853e-09
4.44829e-10
2.09279e-08
2.47508e-09
4.52224e-10
2.07983e-08
2.88156e-09
4.60175e-10
2.07224e-08
3.28704e-09
4.68275e-10
2.07007e-08
3.68888e-09
4.76215e-10
2.0734e-08
4.85578e-10
2.08222e-08
4.08036e-09
4.28846e-10
8.42624e-10
2.16392e-08
8.4645e-10
8.46319e-10
2.13024e-08
1.25772e-09
8.53095e-10
2.10099e-08
1.66556e-09
8.62769e-10
2.07648e-08
2.07181e-09
8.7459e-10
2.05698e-08
2.47747e-09
8.88076e-10
2.04255e-08
2.88282e-09
9.02604e-10
2.03317e-08
3.28716e-09
9.17418e-10
2.02884e-08
3.68813e-09
9.32136e-10
2.02959e-08
9.51333e-10
2.03508e-08
4.07896e-09
4.32832e-10
1.25384e-09
2.13478e-08
8.53166e-10
1.25778e-09
2.10087e-08
1.26569e-09
1.26562e-09
2.07138e-08
1.67357e-09
1.27795e-09
2.0462e-08
2.07909e-09
1.29364e-09
2.02546e-08
2.48349e-09
1.3117e-09
2.00942e-08
2.88706e-09
1.33124e-09
1.99814e-08
3.28927e-09
1.35125e-09
1.99154e-08
3.68817e-09
1.3712e-09
1.98963e-08
1.39887e-09
1.99202e-08
4.07749e-09
4.38209e-10
1.66204e-09
2.1111e-08
8.6267e-10
1.66582e-09
2.0764e-08
1.27794e-09
1.67366e-09
2.0461e-08
1.68715e-09
1.68711e-09
2.02e-08
2.09268e-09
1.70518e-09
1.998e-08
2.49613e-09
1.72641e-09
1.98021e-08
2.89812e-09
1.7494e-09
1.96682e-08
3.29824e-09
1.77294e-09
1.95783e-08
3.6947e-09
1.7965e-09
1.95322e-08
1.83118e-09
1.9526e-08
4.08148e-09
4.44737e-10
2.06887e-09
2.09281e-08
8.74418e-10
2.07213e-09
2.05698e-08
1.29346e-09
2.07935e-09
2.02539e-08
1.70512e-09
2.09275e-09
1.9979e-08
2.11169e-09
2.11162e-09
1.97442e-08
2.51471e-09
2.13458e-09
1.95485e-08
2.9152e-09
2.15966e-09
1.9392e-08
3.31326e-09
2.18505e-09
1.92762e-08
3.70721e-09
2.21039e-09
1.92019e-08
2.25036e-09
1.91658e-08
4.09108e-09
4.52137e-10
2.47543e-09
2.07986e-08
8.87907e-10
2.4778e-09
2.04257e-08
1.31145e-09
2.48382e-09
2.00942e-08
1.72614e-09
2.49638e-09
1.98014e-08
2.13449e-09
2.51472e-09
1.95474e-08
2.5379e-09
2.53768e-09
1.9332e-08
2.93716e-09
2.56343e-09
1.91529e-08
3.33298e-09
2.58925e-09
1.90096e-08
3.72446e-09
2.61448e-09
1.89044e-08
2.65761e-09
1.88373e-08
4.10565e-09
4.60093e-10
2.88189e-09
2.07227e-08
9.02443e-10
2.88315e-09
2.0332e-08
1.331e-09
2.88739e-09
1.99816e-08
1.74906e-09
2.89846e-09
1.96682e-08
2.15926e-09
2.91548e-09
1.93911e-08
2.56334e-09
2.93708e-09
1.91512e-08
2.9619e-09
2.9617e-09
1.89475e-08
3.35558e-09
2.9865e-09
1.87762e-08
3.74466e-09
3.00986e-09
1.86375e-08
3.05322e-09
1.85372e-08
4.12412e-09
4.682e-10
3.28734e-09
2.0701e-08
9.17272e-10
3.28746e-09
2.02888e-08
1.35103e-09
3.28959e-09
1.99157e-08
1.77265e-09
3.29859e-09
1.95786e-08
2.18464e-09
3.31367e-09
1.92761e-08
2.58887e-09
3.3333e-09
1.90079e-08
2.98635e-09
3.35564e-09
1.87743e-08
3.37792e-09
3.37796e-09
1.85713e-08
3.7648e-09
3.39748e-09
1.83972e-08
3.43639e-09
1.82615e-08
4.14465e-09
4.76149e-10
3.68913e-09
2.07344e-08
9.32008e-10
3.68838e-09
2.02963e-08
1.37102e-09
3.68844e-09
1.98966e-08
1.79627e-09
3.69501e-09
1.95325e-08
2.21016e-09
3.70757e-09
1.92022e-08
2.61426e-09
3.72485e-09
1.8904e-08
3.00959e-09
3.74498e-09
1.86366e-08
3.39728e-09
3.76491e-09
1.83966e-08
3.77981e-09
3.77985e-09
1.81825e-08
3.80517e-09
1.80028e-08
4.16435e-09
4.85523e-10
2.08226e-08
4.08056e-09
9.51228e-10
2.03511e-08
4.07916e-09
1.39872e-09
1.99205e-08
4.07771e-09
1.83101e-09
1.95263e-08
4.08173e-09
2.25019e-09
1.91661e-08
4.09135e-09
2.65747e-09
1.88375e-08
4.10593e-09
3.05304e-09
1.85375e-08
4.12439e-09
3.43617e-09
1.82613e-08
4.14485e-09
3.80506e-09
1.80022e-08
4.16444e-09
1.77692e-08
4.17714e-09
4.1772e-09
6.47577e-10
6.4747e-10
2.06837e-08
1.27906e-09
6.51083e-10
2.03578e-08
1.90215e-09
6.56737e-10
2.00689e-08
2.52239e-09
6.64726e-10
1.98261e-08
3.14443e-09
6.75006e-10
1.96308e-08
3.77224e-09
6.87432e-10
1.94831e-08
4.40883e-09
7.01766e-10
1.9384e-08
5.0559e-09
7.17697e-10
1.93359e-08
5.71295e-09
7.35104e-10
1.93419e-08
7.56333e-10
1.9405e-08
6.37386e-09
6.51131e-10
1.27904e-09
2.03565e-08
1.28536e-09
1.28528e-09
2.00339e-08
1.91014e-09
1.2954e-09
1.97464e-08
2.53119e-09
1.31008e-09
1.94984e-08
3.15332e-09
1.32902e-09
1.92937e-08
3.78041e-09
1.35203e-09
1.91338e-08
4.41547e-09
1.37861e-09
1.90197e-08
5.06033e-09
1.40817e-09
1.89531e-08
5.71464e-09
1.44069e-09
1.89361e-08
1.48261e-09
1.89678e-08
6.37135e-09
6.56659e-10
1.90232e-09
2.00679e-08
1.29535e-09
1.91016e-09
1.97452e-08
1.92329e-09
1.92324e-09
1.94581e-08
2.54602e-09
1.94315e-09
1.92061e-08
3.16853e-09
1.96913e-09
1.8992e-08
3.79487e-09
2.00068e-09
1.88193e-08
4.42795e-09
2.03729e-09
1.86896e-08
5.06962e-09
2.07813e-09
1.86038e-08
5.71981e-09
2.12313e-09
1.85637e-08
2.18324e-09
1.85677e-08
6.37171e-09
6.64634e-10
2.52264e-09
1.9826e-08
1.3099e-09
2.53138e-09
1.94975e-08
1.94302e-09
2.54604e-09
1.9205e-08
2.56942e-09
2.56939e-09
1.89473e-08
3.19374e-09
2.60074e-09
1.8724e-08
3.82018e-09
2.63898e-09
1.85373e-08
4.45196e-09
2.68327e-09
1.83905e-08
5.09087e-09
2.73283e-09
1.82847e-08
5.73684e-09
2.78769e-09
1.82216e-08
2.86348e-09
1.81995e-08
6.38313e-09
6.74936e-10
3.14471e-09
1.96311e-08
1.32886e-09
3.15359e-09
1.92937e-08
1.96885e-09
3.16872e-09
1.89913e-08
2.60055e-09
3.19373e-09
1.8723e-08
3.22842e-09
3.22834e-09
1.84887e-08
3.85614e-09
3.27144e-09
1.82883e-08
4.48709e-09
3.32136e-09
1.8123e-08
5.12365e-09
3.37686e-09
1.79956e-08
5.76573e-09
3.4386e-09
1.79089e-08
3.52727e-09
1.78613e-08
6.40646e-09
6.87366e-10
3.77252e-09
1.94834e-08
1.3519e-09
3.78069e-09
1.91341e-08
2.00045e-09
3.79515e-09
1.88193e-08
2.6386e-09
3.82038e-09
1.85366e-08
3.2712e-09
3.85603e-09
1.82872e-08
3.90172e-09
3.90145e-09
1.80715e-08
4.53277e-09
3.95502e-09
1.78882e-08
5.16712e-09
4.01409e-09
1.7738e-08
5.80564e-09
4.07932e-09
1.76251e-08
4.17732e-09
1.75514e-08
6.44149e-09
7.01705e-10
4.40911e-09
1.93844e-08
1.37849e-09
4.41576e-09
1.90201e-08
2.0371e-09
4.42825e-09
1.86899e-08
2.68293e-09
4.45229e-09
1.83905e-08
3.32078e-09
4.48731e-09
1.8122e-08
3.95467e-09
4.53248e-09
1.78863e-08
4.58699e-09
4.58676e-09
1.76835e-08
5.21976e-09
4.64709e-09
1.75105e-08
5.85496e-09
4.71257e-09
1.7369e-08
4.81488e-09
1.72672e-08
6.48746e-09
7.17644e-10
5.05617e-09
1.93363e-08
1.40807e-09
5.06061e-09
1.89535e-08
2.07797e-09
5.06992e-09
1.86041e-08
2.73262e-09
5.09121e-09
1.8285e-08
3.37647e-09
5.12405e-09
1.79955e-08
4.01342e-09
5.16728e-09
1.77361e-08
4.6466e-09
5.21956e-09
1.75083e-08
5.27806e-09
5.27808e-09
1.73088e-08
5.9104e-09
5.3401e-09
1.71374e-08
5.43916e-09
1.70052e-08
6.5424e-09
7.35059e-10
5.71319e-09
1.93424e-08
1.4406e-09
5.71489e-09
1.89365e-08
2.12301e-09
5.72008e-09
1.85641e-08
2.78756e-09
5.73714e-09
1.8222e-08
3.4385e-09
5.76606e-09
1.79092e-08
4.07909e-09
5.80595e-09
1.76248e-08
4.71205e-09
5.85514e-09
1.73681e-08
5.33969e-09
5.91036e-09
1.71367e-08
5.96603e-09
5.96602e-09
1.69302e-08
6.04663e-09
1.67586e-08
6.60273e-09
7.56298e-10
1.94054e-08
6.37406e-09
1.48255e-09
1.89682e-08
6.37156e-09
2.18315e-09
1.8568e-08
6.37194e-09
2.86339e-09
1.81998e-08
6.38338e-09
3.52719e-09
1.78616e-08
6.40671e-09
4.17726e-09
1.75517e-08
6.44173e-09
4.81472e-09
1.72675e-08
6.48767e-09
5.43885e-09
1.7005e-08
6.54252e-09
6.04641e-09
1.6758e-08
6.60268e-09
1.65367e-08
6.66279e-09
6.66279e-09
8.36046e-10
8.35993e-10
1.90117e-08
1.65131e-09
8.40634e-10
1.87019e-08
2.45627e-09
8.47735e-10
1.84162e-08
3.25986e-09
8.58211e-10
1.81643e-08
4.07037e-09
8.72286e-10
1.7948e-08
4.89572e-09
8.89978e-10
1.77678e-08
5.74343e-09
9.11266e-10
1.76251e-08
6.62047e-09
9.3616e-10
1.75227e-08
7.53248e-09
9.65039e-10
1.74648e-08
1.00139e-09
1.74562e-08
8.47992e-09
8.40604e-10
1.65129e-09
1.87006e-08
1.65989e-09
1.65985e-09
1.83954e-08
2.46786e-09
1.67321e-09
1.8113e-08
3.27327e-09
1.69288e-09
1.78583e-08
4.08445e-09
1.71912e-09
1.76356e-08
4.90907e-09
1.7522e-09
1.74469e-08
5.75452e-09
1.79202e-09
1.72936e-08
6.6276e-09
1.83855e-09
1.71776e-08
7.53378e-09
1.89262e-09
1.71023e-08
1.96293e-09
1.70685e-08
8.47155e-09
8.47602e-10
2.45637e-09
1.84152e-08
1.67307e-09
2.46781e-09
1.81117e-08
2.48614e-09
2.4861e-09
1.78321e-08
3.29498e-09
2.51368e-09
1.75765e-08
4.1078e-09
2.55034e-09
1.7348e-08
4.93239e-09
2.59637e-09
1.71505e-08
5.77582e-09
2.65196e-09
1.69863e-08
6.64462e-09
2.717e-09
1.68565e-08
7.54423e-09
2.79252e-09
1.67642e-08
2.89294e-09
1.67092e-08
8.47267e-09
8.58131e-10
3.26002e-09
1.81643e-08
1.69265e-09
3.27336e-09
1.78574e-08
2.51346e-09
3.2949e-09
1.75754e-08
3.32853e-09
3.32847e-09
1.73175e-08
4.14531e-09
3.37387e-09
1.70837e-08
4.97148e-09
3.43069e-09
1.68768e-08
5.81434e-09
3.49908e-09
1.67005e-08
6.68013e-09
3.57936e-09
1.65566e-08
7.57393e-09
3.67281e-09
1.64476e-08
3.79984e-09
1.63733e-08
8.49317e-09
8.72254e-10
4.07055e-09
1.79483e-08
1.71899e-09
4.08462e-09
1.76357e-08
2.55002e-09
4.10788e-09
1.73472e-08
3.37361e-09
4.14517e-09
1.70827e-08
4.19696e-09
4.19682e-09
1.68424e-08
5.02682e-09
4.26241e-09
1.66267e-08
5.87034e-09
4.34111e-09
1.64374e-08
6.73434e-09
4.43298e-09
1.6278e-08
7.62357e-09
4.54046e-09
1.6152e-08
4.69044e-09
1.60595e-08
8.53473e-09
8.89949e-10
4.89591e-09
1.77681e-08
1.75215e-09
4.90926e-09
1.74472e-08
2.59619e-09
4.93258e-09
1.71505e-08
3.43026e-09
4.97156e-09
1.68762e-08
4.26209e-09
5.02654e-09
1.66256e-08
5.09816e-09
5.09778e-09
1.64e-08
5.94431e-09
5.18449e-09
1.61987e-08
6.80741e-09
5.28494e-09
1.60229e-08
7.69319e-09
5.4019e-09
1.58779e-08
5.57023e-09
1.57667e-08
8.59802e-09
9.11242e-10
5.74363e-09
1.76254e-08
1.79197e-09
5.75472e-09
1.72939e-08
2.65187e-09
5.77603e-09
1.69866e-08
3.49881e-09
5.81459e-09
1.67005e-08
4.34044e-09
5.87043e-09
1.64365e-08
5.18395e-09
5.94372e-09
1.61968e-08
6.03498e-09
6.03463e-09
1.59823e-08
6.89887e-09
6.14084e-09
1.57907e-08
7.78214e-09
6.26296e-09
1.56247e-08
6.44309e-09
1.54933e-08
8.6831e-09
9.36145e-10
6.62068e-09
1.75232e-08
1.83852e-09
6.62781e-09
1.71781e-08
2.71695e-09
6.64484e-09
1.68569e-08
3.5793e-09
6.68038e-09
1.65569e-08
4.43269e-09
6.73463e-09
1.62779e-08
5.28407e-09
6.80732e-09
1.60211e-08
6.14009e-09
6.89831e-09
1.57886e-08
7.00589e-09
7.00579e-09
1.55781e-08
7.88793e-09
7.12807e-09
1.53902e-08
7.31045e-09
1.52369e-08
8.78883e-09
9.65031e-10
7.53268e-09
1.74653e-08
1.89261e-09
7.53398e-09
1.71028e-08
2.79251e-09
7.54444e-09
1.67646e-08
3.67282e-09
7.57414e-09
1.64479e-08
4.54055e-09
7.62377e-09
1.61523e-08
5.40175e-09
7.69332e-09
1.58776e-08
6.26228e-09
7.78206e-09
1.56238e-08
7.12756e-09
7.88762e-09
1.53896e-08
8.0052e-09
8.00505e-09
1.51756e-08
8.16976e-09
1.49923e-08
8.91224e-09
1.00139e-09
1.74566e-08
8.4801e-09
1.96294e-09
1.70689e-08
8.47172e-09
2.89296e-09
1.67096e-08
8.47285e-09
3.79988e-09
1.63737e-08
8.49335e-09
4.69052e-09
1.60598e-08
8.53489e-09
5.57031e-09
1.5767e-08
8.59813e-09
6.44303e-09
1.54936e-08
8.68317e-09
7.31011e-09
1.52367e-08
8.78878e-09
8.1695e-09
1.49917e-08
8.91197e-09
1.47689e-08
9.05359e-09
9.05346e-09
9.73293e-10
9.7328e-10
1.70651e-08
1.92243e-09
9.78583e-10
1.67742e-08
2.8599e-09
9.86642e-10
1.64921e-08
3.7974e-09
9.98856e-10
1.6228e-08
4.74637e-09
1.01571e-09
1.59834e-08
5.71849e-09
1.03741e-09
1.57582e-08
6.72597e-09
1.06424e-09
1.55533e-08
7.78179e-09
1.09663e-09
1.53703e-08
8.89946e-09
1.13562e-09
1.52116e-08
1.18586e-09
1.50802e-08
1.00895e-08
9.78497e-10
1.92238e-09
1.6773e-08
1.93254e-09
1.93251e-09
1.64875e-08
2.87397e-09
1.94811e-09
1.62101e-08
3.81401e-09
1.97134e-09
1.59458e-08
4.76401e-09
2.00298e-09
1.56984e-08
5.73526e-09
2.04379e-09
1.54693e-08
6.73958e-09
2.09421e-09
1.52593e-08
7.78951e-09
2.15497e-09
1.50694e-08
8.89796e-09
2.22796e-09
1.49015e-08
2.32381e-09
1.47559e-08
1.00727e-08
9.86477e-10
2.85991e-09
1.64912e-08
1.94792e-09
2.87385e-09
1.6209e-08
2.89591e-09
2.89585e-09
1.59364e-08
3.84076e-09
2.92901e-09
1.5674e-08
4.79346e-09
2.9737e-09
1.54246e-08
5.76531e-09
3.03099e-09
1.51915e-08
6.76764e-09
3.10191e-09
1.49762e-08
7.81239e-09
3.18736e-09
1.47794e-08
8.91206e-09
3.28968e-09
1.46028e-08
3.42606e-09
1.4446e-08
1.00731e-08
9.98799e-10
3.79745e-09
1.62279e-08
1.97108e-09
3.81399e-09
1.5945e-08
2.92876e-09
3.84057e-09
1.5673e-08
3.88187e-09
3.88176e-09
1.54116e-08
4.84034e-09
3.93789e-09
1.51611e-08
5.81517e-09
4.00939e-09
1.49236e-08
6.81782e-09
4.09753e-09
1.47022e-08
7.85964e-09
4.20396e-09
1.44981e-08
8.95239e-09
4.33149e-09
1.4313e-08
4.50415e-09
1.41465e-08
1.01011e-08
1.01572e-09
4.74644e-09
1.59836e-08
2.0029e-09
4.76408e-09
1.56984e-08
2.97339e-09
4.79341e-09
1.54239e-08
3.93762e-09
4.84007e-09
1.51602e-08
4.90526e-09
4.90504e-09
1.49076e-08
5.88603e-09
4.98871e-09
1.46666e-08
6.89103e-09
5.09139e-09
1.44386e-08
7.93208e-09
5.21471e-09
1.42262e-08
9.02028e-09
5.36304e-09
1.40323e-08
5.56788e-09
1.38569e-08
1.01592e-08
1.03742e-09
5.71858e-09
1.57585e-08
2.04381e-09
5.73534e-09
1.54696e-08
3.03088e-09
5.76537e-09
1.51915e-08
4.00898e-09
5.81512e-09
1.4923e-08
4.98838e-09
5.88558e-09
1.46657e-08
5.97857e-09
5.97807e-09
1.44205e-08
6.98892e-09
6.09294e-09
1.41868e-08
8.03103e-09
6.22992e-09
1.39656e-08
9.1168e-09
6.39392e-09
1.37613e-08
6.62588e-09
1.35767e-08
1.02489e-08
1.06425e-09
6.72607e-09
1.55537e-08
2.09423e-09
6.73968e-09
1.52596e-08
3.10193e-09
6.76774e-09
1.49765e-08
4.09736e-09
6.81794e-09
1.47023e-08
5.09071e-09
6.89096e-09
1.44378e-08
6.09233e-09
6.98807e-09
1.41852e-08
7.1114e-09
7.11092e-09
1.39453e-08
8.1574e-09
7.25857e-09
1.3716e-08
9.24262e-09
7.43351e-09
1.34999e-08
7.68547e-09
1.33049e-08
1.03714e-08
1.09666e-09
7.7819e-09
1.53707e-08
2.15502e-09
7.78963e-09
1.50698e-08
3.18743e-09
7.8125e-09
1.47797e-08
4.20405e-09
7.85976e-09
1.44984e-08
5.21456e-09
7.93223e-09
1.42261e-08
6.22897e-09
8.03067e-09
1.39641e-08
7.25771e-09
8.15651e-09
1.37143e-08
8.30983e-09
8.30958e-09
1.34749e-08
9.39692e-09
8.48993e-09
1.32467e-08
8.7519e-09
1.30402e-08
1.05272e-08
1.13565e-09
8.89959e-09
1.5212e-08
2.22802e-09
8.89808e-09
1.49019e-08
3.28979e-09
8.91217e-09
1.46031e-08
4.33165e-09
8.95248e-09
1.43133e-08
5.36333e-09
9.02032e-09
1.40326e-08
6.39388e-09
9.11671e-09
1.3761e-08
7.43277e-09
9.24228e-09
1.34991e-08
8.48941e-09
9.39636e-09
1.32462e-08
9.57611e-09
9.57582e-09
1.3003e-08
9.82608e-09
1.27791e-08
1.07151e-08
1.18591e-09
1.50806e-08
1.00897e-08
2.3239e-09
1.47562e-08
1.00728e-08
3.42619e-09
1.44463e-08
1.00732e-08
4.50434e-09
1.41469e-08
1.01012e-08
5.56812e-09
1.38572e-08
1.01592e-08
6.62612e-09
1.35769e-08
1.02488e-08
7.68554e-09
1.33052e-08
1.03713e-08
8.7516e-09
1.30401e-08
1.0527e-08
9.82584e-09
1.27786e-08
1.07146e-08
1.253e-08
1.09455e-08
1.09453e-08
1.04661e-09
1.04662e-09
1.49719e-08
2.06675e-09
1.05199e-09
1.4702e-08
3.07344e-09
1.06007e-09
1.44254e-08
4.07944e-09
1.07251e-09
1.41494e-08
5.09768e-09
1.08997e-09
1.38752e-08
6.1417e-09
1.11279e-09
1.36014e-08
7.22639e-09
1.14146e-09
1.33272e-08
8.36847e-09
1.17675e-09
1.30514e-08
9.58689e-09
1.22018e-09
1.2773e-08
1.27702e-09
1.249e-08
1.09001e-08
1.05188e-09
2.06668e-09
1.47011e-08
2.07716e-09
2.07714e-09
1.4437e-08
3.08816e-09
2.09304e-09
1.41661e-08
4.09698e-09
2.11688e-09
1.38926e-08
5.11634e-09
2.14979e-09
1.36192e-08
6.15932e-09
2.19284e-09
1.33463e-08
7.24027e-09
2.24684e-09
1.30729e-08
8.37525e-09
2.31313e-09
1.2798e-08
9.58233e-09
2.39431e-09
1.25203e-08
2.50172e-09
1.22365e-08
1.0877e-08
1.0599e-09
3.07337e-09
1.44246e-08
2.09284e-09
3.08797e-09
1.41652e-08
3.11086e-09
3.11077e-09
1.39006e-08
4.12504e-09
3.14516e-09
1.36315e-08
5.14755e-09
3.19191e-09
1.33599e-08
6.19145e-09
3.2526e-09
1.30878e-08
7.27046e-09
3.32884e-09
1.28152e-08
8.39989e-09
3.42229e-09
1.25408e-08
9.59716e-09
3.53619e-09
1.22636e-08
3.6884e-09
1.19806e-08
1.08759e-08
1.07249e-09
4.07941e-09
1.41494e-08
2.11665e-09
4.09687e-09
1.3892e-08
3.14494e-09
4.12477e-09
1.36307e-08
4.16809e-09
4.16793e-09
1.33657e-08
5.19715e-09
4.22709e-09
1.30968e-08
6.24472e-09
4.30325e-09
1.28254e-08
7.32459e-09
4.39847e-09
1.25527e-08
8.45131e-09
4.51535e-09
1.22783e-08
9.64136e-09
4.65767e-09
1.20015e-08
4.85023e-09
1.17196e-08
1.09064e-08
1.09001e-09
5.09765e-09
1.38754e-08
2.14977e-09
5.1163e-09
1.36192e-08
3.19165e-09
5.1474e-09
1.33594e-08
4.22686e-09
5.19678e-09
1.30961e-08
5.26614e-09
5.26585e-09
1.28296e-08
6.32075e-09
5.3556e-09
1.25597e-08
7.40396e-09
5.4672e-09
1.22866e-08
8.5307e-09
5.60345e-09
1.20114e-08
9.71658e-09
5.76978e-09
1.17343e-08
5.99858e-09
1.14537e-08
1.09714e-08
1.11283e-09
6.14168e-09
1.36017e-08
2.19292e-09
6.15929e-09
1.33465e-08
3.25258e-09
6.1914e-09
1.30878e-08
4.30292e-09
6.24455e-09
1.28249e-08
5.35533e-09
6.32019e-09
1.25589e-08
6.42084e-09
6.42027e-09
1.22903e-08
7.51093e-09
6.54606e-09
1.20178e-08
8.64009e-09
6.69854e-09
1.17414e-08
9.82458e-09
6.88384e-09
1.14627e-08
7.14401e-09
1.11829e-08
1.10729e-08
1.1415e-09
7.22639e-09
1.33275e-08
2.24693e-09
7.24027e-09
1.30732e-08
3.32895e-09
7.27045e-09
1.28154e-08
4.39842e-09
7.32458e-09
1.25528e-08
5.46662e-09
7.40375e-09
1.2286e-08
6.5455e-09
7.50995e-09
1.20166e-08
7.64637e-09
7.6458e-09
1.17446e-08
8.78144e-09
7.81173e-09
1.14678e-08
9.96705e-09
8.01145e-09
1.11867e-08
8.29628e-09
1.09067e-08
1.12131e-08
1.17681e-09
8.3685e-09
1.30518e-08
2.31324e-09
8.37527e-09
1.27983e-08
3.42246e-09
8.3999e-09
1.25411e-08
4.51556e-09
8.45131e-09
1.22786e-08
5.60342e-09
8.5307e-09
1.20113e-08
6.69767e-09
8.63957e-09
1.17402e-08
7.81091e-09
8.7804e-09
1.14665e-08
8.95488e-09
8.95455e-09
1.11881e-08
1.01448e-08
9.16343e-09
1.09048e-08
9.46387e-09
1.06239e-08
1.13935e-08
1.22024e-09
9.58694e-09
1.27733e-08
2.39444e-09
9.58236e-09
1.25206e-08
3.53638e-09
9.59717e-09
1.22639e-08
4.65794e-09
9.64133e-09
1.20017e-08
5.7702e-09
9.71649e-09
1.17345e-08
6.8839e-09
9.82433e-09
1.14625e-08
8.01078e-09
9.96656e-09
1.11861e-08
9.16297e-09
1.01441e-08
1.09044e-08
1.03561e-08
1.03558e-08
1.06175e-08
1.06516e-08
1.03322e-08
1.16154e-08
1.27709e-09
1.24903e-08
1.09002e-08
2.50186e-09
1.22368e-08
1.0877e-08
3.68862e-09
1.19809e-08
1.08759e-08
4.85051e-09
1.17199e-08
1.09064e-08
5.99893e-09
1.1454e-08
1.09713e-08
7.14435e-09
1.11831e-08
1.10727e-08
8.29642e-09
1.09068e-08
1.12128e-08
9.46363e-09
1.06238e-08
1.13932e-08
1.06514e-08
1.03318e-08
1.16148e-08
1.00375e-08
1.18979e-08
1.18976e-08
1.05297e-09
1.05299e-09
1.28659e-08
2.07793e-09
1.05774e-09
1.26193e-08
3.08652e-09
1.06468e-09
1.23521e-08
4.09042e-09
1.07549e-09
1.20701e-08
5.10149e-09
1.09081e-09
1.17733e-08
6.13226e-09
1.11099e-09
1.14597e-08
7.19661e-09
1.13653e-09
1.11263e-08
8.31032e-09
1.16825e-09
1.07695e-08
9.49161e-09
1.20766e-09
1.0384e-08
1.25965e-09
9.96273e-09
1.07592e-08
1.05763e-09
2.07784e-09
1.26186e-08
2.08726e-09
2.08724e-09
1.23779e-08
3.09985e-09
2.10107e-09
1.21171e-08
4.10637e-09
2.12188e-09
1.18397e-08
5.11845e-09
2.1508e-09
1.15471e-08
6.14819e-09
2.18891e-09
1.12386e-08
7.20895e-09
2.23705e-09
1.09116e-08
8.31587e-09
2.29661e-09
1.05627e-08
9.48642e-09
2.37014e-09
1.01873e-08
2.46773e-09
9.77796e-09
1.07369e-08
1.06453e-09
3.08641e-09
1.23515e-08
2.10089e-09
3.09964e-09
1.21164e-08
3.11979e-09
3.11969e-09
1.18631e-08
4.13117e-09
3.14987e-09
1.15922e-08
5.14612e-09
3.19105e-09
1.13047e-08
6.17667e-09
3.24482e-09
1.10014e-08
7.23562e-09
3.31283e-09
1.06805e-08
8.33741e-09
3.39677e-09
1.03388e-08
9.49896e-09
3.49975e-09
9.97246e-09
3.63749e-09
9.57498e-09
1.07348e-08
1.07548e-09
4.09032e-09
1.207e-08
2.12169e-09
4.1062e-09
1.18392e-08
3.14968e-09
4.13087e-09
1.15916e-08
4.16911e-09
4.16893e-09
1.13272e-08
5.18997e-09
4.22119e-09
1.10458e-08
6.22383e-09
4.28874e-09
1.07476e-08
7.28352e-09
4.37369e-09
1.04322e-08
8.38284e-09
4.47867e-09
1.00971e-08
9.53781e-09
4.60721e-09
9.73905e-09
4.78102e-09
9.35269e-09
1.07612e-08
1.09087e-09
5.10139e-09
1.17734e-08
2.15081e-09
5.11834e-09
1.15471e-08
3.19085e-09
5.14591e-09
1.13043e-08
4.22101e-09
5.18957e-09
1.10453e-08
5.25102e-09
5.25072e-09
1.07701e-08
6.29122e-09
5.33043e-09
1.04778e-08
7.35394e-09
5.43004e-09
1.01676e-08
8.45327e-09
5.55243e-09
9.83831e-09
9.60447e-09
5.70258e-09
9.48773e-09
5.90878e-09
9.11184e-09
1.08186e-08
1.11105e-09
6.13218e-09
1.14598e-08
2.18902e-09
6.1481e-09
1.12388e-08
3.24486e-09
6.17655e-09
1.10013e-08
4.28849e-09
6.2236e-09
1.07473e-08
5.33023e-09
6.29066e-09
1.04772e-08
6.3802e-09
6.37966e-09
1.01911e-08
7.44913e-09
6.492e-09
9.88695e-09
8.55068e-09
6.62903e-09
9.56323e-09
9.70064e-09
6.79633e-09
9.21901e-09
7.03067e-09
8.85276e-09
1.09089e-08
1.13659e-09
7.19655e-09
1.11265e-08
2.23716e-09
7.20888e-09
1.09118e-08
3.31297e-09
7.23554e-09
1.06806e-08
4.37371e-09
7.28344e-09
1.04322e-08
5.42958e-09
7.35368e-09
1.01671e-08
6.49154e-09
7.44822e-09
9.88609e-09
7.57019e-09
7.56967e-09
9.58832e-09
8.67715e-09
7.71891e-09
9.27095e-09
9.82816e-09
7.89939e-09
8.9326e-09
8.15613e-09
8.57508e-09
1.10343e-08
1.16831e-09
8.31028e-09
1.07697e-08
2.29674e-09
8.31582e-09
1.0563e-08
3.39696e-09
8.33735e-09
1.0339e-08
4.47892e-09
8.38276e-09
1.00973e-08
5.55247e-09
8.45319e-09
9.83828e-09
6.62832e-09
8.55015e-09
9.56245e-09
7.71821e-09
8.67618e-09
9.27006e-09
8.83336e-09
8.83304e-09
8.95886e-09
9.98839e-09
9.02227e-09
8.62692e-09
9.29406e-09
8.27774e-09
1.11966e-08
1.20774e-09
9.4916e-09
1.03842e-08
2.37028e-09
9.4864e-09
1.01875e-08
3.49997e-09
9.49891e-09
9.97267e-09
4.6075e-09
9.53772e-09
9.73923e-09
5.703e-09
9.60432e-09
9.48789e-09
6.79643e-09
9.70035e-09
9.21888e-09
7.89884e-09
9.82767e-09
8.93217e-09
9.02189e-09
9.98777e-09
8.62661e-09
1.01805e-08
1.01802e-08
8.30089e-09
1.04504e-08
7.95862e-09
1.13978e-08
1.25973e-09
9.96295e-09
1.07592e-08
2.46788e-09
9.77818e-09
1.07369e-08
3.63771e-09
9.57517e-09
1.07348e-08
4.78131e-09
9.35286e-09
1.07612e-08
5.90913e-09
9.112e-09
1.08185e-08
7.031e-09
8.85288e-09
1.09087e-08
8.15627e-09
8.57516e-09
1.1034e-08
9.29386e-09
8.27765e-09
1.11963e-08
1.04502e-08
7.95841e-09
1.13973e-08
7.62052e-09
1.16589e-08
1.16586e-08
1.00013e-09
1.00015e-09
1.08656e-08
1.9714e-09
1.00374e-09
1.06443e-08
2.92244e-09
1.00858e-09
1.03925e-08
3.86184e-09
1.01618e-09
1.01145e-08
4.79819e-09
1.02703e-09
9.8099e-09
5.74027e-09
1.04134e-09
9.47623e-09
6.69743e-09
1.05942e-09
9.10974e-09
7.67985e-09
1.0818e-09
8.70524e-09
8.69871e-09
1.10951e-09
8.25564e-09
1.14607e-09
7.75104e-09
9.76432e-09
1.00364e-09
1.97132e-09
1.06438e-08