/*--------------------------------*- C++ -*----------------------------------*\
| =========                 |                                                 |
| \\      /  F ield         | foam-extend: Open Source CFD                    |
|  \\    /   O peration     | Version:     3.1                                |
|   \\  /    A nd           | Web:         http://www.extend-project.de       |
|    \\/     M anipulation  |                                                 |
\*---------------------------------------------------------------------------*/
FoamFile
{
    version     2.0;
    format      ascii;
    class       pointVectorField;
    location    "0.0009";
    object      pointMotionU;
}
// * * * * * * * * * * * * * * * * * * * * * * * * * * * * * * * * * * * * * //

dimensions      [0 1 -1 0 0 0 0];

internalField   nonuniform List<vector> 
18306
(
(0 0 0)
(0 0 0)
(0 0 0)
(0 0 0)
(0 0 0)
(0 0 0)
(0 0 0)
(0 0 0)
(0 0 0)
(0 0 0)
(0 0 0)
(0 0 0)
(0 0 0)
(0 0 0)
(0 0 0)
(0 0 0)
(0 0 0)
(0 0 0)
(0 0 0)
(0 0 0)
(0 0 0)
(0 0 0)
(0 0 0)
(0 0 0)
(0 0 0)
(0 0 0)
(0 0 0)
(0 0 0)
(0 0 0)
(0 0 0)
(0 0 0)
(0 0 0)
(0 0 0)
(0 0 0)
(0 0 0)
(0 0 0)
(0 0 0)
(0 0 0)
(0 0 0)
(0 0 0)
(0 0 0)
(0 0 0)
(0 0 0)
(0 0 0)
(0 0 0)
(0 0 0)
(0 0 0)
(0 0 0)
(0 0 0)
(0 0 0)
(0 0 0)
(0 0 0)
(0 0 0)
(0 0 0)
(0 0 0)
(0 0 0)
(0 0 0)
(0 0 0)
(0 0 0)
(0 0 0)
(0 0 0)
(0 0 0)
(0 0 0)
(0 0 0)
(0 0 0)
(0 0 0)
(0 0 0)
(0 0 0)
(0 0 0)
(0 0 0)
(0 0 0)
(0 0 0)
(0 0 0)
(0 0 0)
(0 0 0)
(0 0 0)
(0 0 0)
(0 0 0)
(0 0 0)
(0 0 0)
(0 0 0)
(0 0 0)
(0 0 0)
(0 0 0)
(0 0 0)
(0 0 0)
(0 0 0)
(0 0 0)
(0 0 0)
(0 0 0)
(0 0 0)
(0 0 0)
(0 0 0)
(0 0 0)
(0 0 0)
(0 0 0)
(0 0 0)
(0 0 0)
(0 0 0)
(0 0 0)
(0 0 0)
(0 0 0)
(0 0 0)
(0 0 0)
(0 0 0)
(0 0 0)
(0 0 0)
(0 0 0)
(0 0 0)
(0 0 0)
(0 0 0)
(0 0 0)
(0 0 0)
(0 0 0)
(0 0 0)
(0 0 0)
(0 0 0)
(0 0 0)
(0 0 0)
(0 0 0)
(0 0 0)
(0 0 4.26079e-09)
(2.20131e-09 0 4.40605e-09)
(4.41649e-09 0 4.85408e-09)
(6.70574e-09 0 5.6366e-09)
(9.19708e-09 0 6.82646e-09)
(1.20634e-08 0 8.54726e-09)
(1.55512e-08 0 1.09899e-08)
(2.00323e-08 0 1.44436e-08)
(2.60779e-08 0 1.93475e-08)
(3.45906e-08 0 2.63887e-08)
(4.72537e-08 0 3.68648e-08)
(0 4.91013e-09 4.47992e-09)
(2.20947e-09 4.8398e-09 4.6228e-09)
(4.44798e-09 4.66054e-09 5.06149e-09)
(6.76571e-09 4.45873e-09 5.82931e-09)
(9.27147e-09 4.27332e-09 6.99885e-09)
(1.21231e-08 4.10777e-09 8.68889e-09)
(1.55403e-08 3.9522e-09 1.10781e-08)
(1.98458e-08 3.78445e-09 1.44319e-08)
(2.55107e-08 3.56931e-09 1.91327e-08)
(3.32116e-08 3.26496e-09 2.57259e-08)
(4.40573e-08 2.76335e-09 3.50734e-08)
(0 9.82071e-09 5.14864e-09)
(2.2477e-09 9.71424e-09 5.28241e-09)
(4.55018e-09 9.4259e-09 5.69444e-09)
(6.9455e-09 9.05527e-09 6.4198e-09)
(9.50099e-09 8.69508e-09 7.52867e-09)
(1.23265e-08 8.38461e-09 9.12956e-09)
(1.5576e-08 8.11019e-09 1.13746e-08)
(1.94488e-08 7.82983e-09 1.4469e-08)
(2.41826e-08 7.47039e-09 1.86666e-08)
(3.00077e-08 6.93908e-09 2.42424e-08)
(3.73133e-08 5.98278e-09 3.15419e-08)
(0 1.48661e-08 6.30028e-09)
(2.3373e-09 1.47299e-08 6.41937e-09)
(4.74386e-09 1.4357e-08 6.78881e-09)
(7.25574e-09 1.38461e-08 7.44685e-09)
(9.90968e-09 1.33216e-08 8.46162e-09)
(1.2751e-08 1.28836e-08 9.93112e-09)
(1.58433e-08 1.25468e-08 1.19794e-08)
(1.92467e-08 1.22494e-08 1.4749e-08)
(2.29668e-08 1.18765e-08 1.83729e-08)
(2.68779e-08 1.12822e-08 2.29266e-08)
(3.08905e-08 9.99787e-09 2.84377e-08)
(0 2.03074e-08 8.01981e-09)
(2.4672e-09 2.01156e-08 8.11742e-09)
(5.02362e-09 1.95942e-08 8.42217e-09)
(7.70037e-09 1.889e-08 8.98148e-09)
(1.05165e-08 1.81799e-08 9.87088e-09)
(1.34704e-08 1.76131e-08 1.11825e-08)
(1.6538e-08 1.72571e-08 1.30203e-08)
(1.9661e-08 1.70583e-08 1.54842e-08)
(2.26891e-08 1.68545e-08 1.86359e-08)
(2.53112e-08 1.64344e-08 2.24573e-08)
(2.71123e-08 1.50433e-08 2.68052e-08)
(0 2.64585e-08 1.0458e-08)
(2.61572e-09 2.6161e-08 1.05201e-08)
(5.35133e-09 2.53512e-08 1.07214e-08)
(8.24651e-09 2.42808e-08 1.11308e-08)
(1.13055e-08 2.32626e-08 1.18496e-08)
(1.45011e-08 2.25294e-08 1.29801e-08)
(1.77578e-08 2.21847e-08 1.46175e-08)
(2.09296e-08 2.21885e-08 1.68361e-08)
(2.37839e-08 2.23574e-08 1.9672e-08)
(2.59582e-08 2.2401e-08 2.30878e-08)
(2.67299e-08 2.12239e-08 2.68097e-08)
(0 3.37449e-08 1.38534e-08)
(2.75191e-09 3.32407e-08 1.38496e-08)
(5.6678e-09 3.18911e-08 1.38731e-08)
(8.81602e-09 3.0142e-08 1.40421e-08)
(1.22018e-08 2.85433e-08 1.45111e-08)
(1.57802e-08 2.75068e-08 1.54184e-08)
(1.94509e-08 2.71827e-08 1.6861e-08)
(2.30289e-08 2.74937e-08 1.88968e-08)
(2.6241e-08 2.82214e-08 2.15526e-08)
(2.87291e-08 2.90068e-08 2.47999e-08)
(2.94932e-08 2.84348e-08 2.82442e-08)
(0 4.27809e-08 1.85738e-08)
(2.83708e-09 4.18845e-08 1.84432e-08)
(5.89883e-09 3.9531e-08 1.81371e-08)
(9.29606e-09 3.65623e-08 1.78921e-08)
(1.30602e-08 3.39318e-08 1.79715e-08)
(1.71449e-08 3.23186e-08 1.85733e-08)
(2.14267e-08 3.19531e-08 1.98018e-08)
(2.57073e-08 3.26805e-08 2.16963e-08)
(2.96795e-08 3.41304e-08 2.42466e-08)
(3.29977e-08 3.58526e-08 2.74351e-08)
(3.45292e-08 3.62779e-08 3.07911e-08)
(0 5.44871e-08 2.51824e-08)
(2.82648e-09 5.2841e-08 2.47926e-08)
(5.95179e-09 4.86223e-08 2.38414e-08)
(9.54548e-09 4.35107e-08 2.28544e-08)
(1.36847e-08 3.91679e-08 2.23118e-08)
(1.83464e-08 3.66073e-08 2.24863e-08)
(2.33899e-08 3.60921e-08 2.34624e-08)
(2.85678e-08 3.73091e-08 2.52189e-08)
(3.35018e-08 3.96081e-08 2.76675e-08)
(3.78559e-08 4.23597e-08 3.07916e-08)
(4.0564e-08 4.40286e-08 3.40961e-08)
(0 7.03166e-08 3.45668e-08)
(2.67423e-09 6.71674e-08 3.36061e-08)
(5.72894e-09 5.9456e-08 3.13527e-08)
(9.41471e-09 5.07001e-08 2.90423e-08)
(1.38711e-08 4.37053e-08 2.75269e-08)
(1.91142e-08 3.98088e-08 2.71284e-08)
(2.49991e-08 3.9118e-08 2.78282e-08)
(3.11923e-08 4.09579e-08 2.94571e-08)
(3.71752e-08 4.42531e-08 3.17947e-08)
(4.24568e-08 4.79761e-08 3.47157e-08)
(4.61036e-08 5.06691e-08 3.76962e-08)
(0 9.30635e-08 4.84096e-08)
(2.28198e-09 8.66698e-08 4.60141e-08)
(5.00288e-09 7.26772e-08 4.11663e-08)
(8.48569e-09 5.81481e-08 3.65802e-08)
(1.29466e-08 4.72756e-08 3.35682e-08)
(1.84812e-08 4.14141e-08 3.2343e-08)
(2.50027e-08 4.02654e-08 3.2648e-08)
(3.2169e-08 4.26908e-08 3.40975e-08)
(3.93274e-08 4.71241e-08 3.62865e-08)
(4.55316e-08 5.18109e-08 3.87623e-08)
(4.99417e-08 5.53148e-08 4.11632e-08)
(0 0 5.86876e-09)
(3.65002e-09 0 6.08685e-09)
(7.28895e-09 0 6.74928e-09)
(1.09849e-08 0 7.89539e-09)
(1.49204e-08 0 9.61509e-09)
(1.93551e-08 0 1.20625e-08)
(2.46795e-08 0 1.54755e-08)
(3.15134e-08 0 2.02133e-08)
(4.08573e-08 0 2.68198e-08)
(5.4365e-08 0 3.61497e-08)
(7.52008e-08 0 4.98412e-08)
(0 8.85679e-09 6.21018e-09)
(3.6803e-09 8.73633e-09 6.42555e-09)
(7.37526e-09 8.42452e-09 7.07622e-09)
(1.11367e-08 8.07834e-09 8.20419e-09)
(1.5116e-08 7.76448e-09 9.89958e-09)
(1.9548e-08 7.48459e-09 1.23105e-08)
(2.47776e-08 7.21531e-09 1.56595e-08)
(3.13403e-08 6.91026e-09 2.02761e-08)
(4.0061e-08 6.4987e-09 2.66331e-08)
(5.21931e-08 5.89719e-09 3.54047e-08)
(6.98679e-08 4.90254e-09 4.76646e-08)
(0 1.76695e-08 7.23896e-09)
(3.78808e-09 1.74917e-08 7.44326e-09)
(7.63658e-09 1.6999e-08 8.06062e-09)
(1.15783e-08 1.63727e-08 9.1362e-09)
(1.56968e-08 1.57728e-08 1.07577e-08)
(2.01478e-08 1.52605e-08 1.30609e-08)
(2.5164e-08 1.47999e-08 1.62353e-08)
(3.10675e-08 1.43026e-08 2.0535e-08)
(3.82741e-08 1.36225e-08 2.62701e-08)
(4.72398e-08 1.2577e-08 3.37721e-08)
(5.87451e-08 1.06911e-08 4.34417e-08)
(0 2.66375e-08 8.99154e-09)
(4.00339e-09 2.6416e-08 9.17836e-09)
(8.09798e-09 2.57938e-08 9.74402e-09)
(1.23163e-08 2.49503e-08 1.07386e-08)
(1.66919e-08 2.40989e-08 1.22472e-08)
(2.12739e-08 2.34048e-08 1.43931e-08)
(2.61424e-08 2.28775e-08 1.73316e-08)
(3.13777e-08 2.23867e-08 2.1238e-08)
(3.69867e-08 2.17045e-08 2.62704e-08)
(4.27832e-08 2.05466e-08 3.25083e-08)
(4.86071e-08 1.80315e-08 3.99294e-08)
(0 3.61879e-08 1.15682e-08)
(4.29908e-09 3.58793e-08 1.17299e-08)
(8.733e-09 3.50217e-08 1.22174e-08)
(1.33326e-08 3.3881e-08 1.30941e-08)
(1.81049e-08 3.27608e-08 1.44542e-08)
(2.30195e-08 3.19097e-08 1.64131e-08)
(2.80098e-08 3.14257e-08 1.91018e-08)
(3.29526e-08 3.11876e-08 2.26438e-08)
(3.75758e-08 3.08766e-08 2.71072e-08)
(4.13505e-08 3.00865e-08 3.2454e-08)
(4.34455e-08 2.73928e-08 3.84217e-08)
(0 4.68395e-08 1.51518e-08)
(4.62887e-09 4.6358e-08 1.52716e-08)
(9.4576e-09 4.50258e-08 1.56333e-08)
(1.45416e-08 4.32967e-08 1.63293e-08)
(1.98696e-08 4.17131e-08 1.74868e-08)
(2.537e-08 4.0669e-08 1.92335e-08)
(3.08868e-08 4.03226e-08 2.16884e-08)
(3.61468e-08 4.05709e-08 2.49431e-08)
(4.0734e-08 4.10526e-08 2.9036e-08)
(4.4014e-08 4.12172e-08 3.39044e-08)
(4.45209e-08 3.8993e-08 3.90942e-08)
(0 5.93121e-08 2.00321e-08)
(4.92959e-09 5.8482e-08 2.00721e-08)
(1.01503e-08 5.62376e-08 2.02163e-08)
(1.57795e-08 5.33815e-08 2.062e-08)
(2.18171e-08 5.08758e-08 2.14776e-08)
(2.81677e-08 4.94285e-08 2.29619e-08)
(3.46328e-08 4.92784e-08 2.51927e-08)
(4.08664e-08 5.02524e-08 2.82384e-08)
(4.63843e-08 5.19221e-08 3.21274e-08)
(5.05562e-08 5.36117e-08 3.68072e-08)
(5.13539e-08 5.26444e-08 4.16503e-08)
(0 7.46758e-08 2.66526e-08)
(5.1243e-09 7.31701e-08 2.65377e-08)
(1.06628e-08 6.91955e-08 2.62754e-08)
(1.68215e-08 6.42642e-08 2.61717e-08)
(2.36578e-08 6.00573e-08 2.65563e-08)
(3.10822e-08 5.77551e-08 2.76763e-08)
(3.88591e-08 5.77337e-08 2.96586e-08)
(4.66169e-08 5.96797e-08 3.25461e-08)
(5.37994e-08 6.28868e-08 3.6314e-08)
(5.98031e-08 6.65125e-08 4.09232e-08)
(6.23421e-08 6.75918e-08 4.56455e-08)
(0 9.45883e-08 3.56865e-08)
(5.12552e-09 9.17697e-08 3.52532e-08)
(1.08148e-08 8.45284e-08 3.4192e-08)
(1.73941e-08 7.58822e-08 3.31733e-08)
(2.50152e-08 6.87768e-08 3.27976e-08)
(3.3639e-08 6.49888e-08 3.34031e-08)
(4.30025e-08 6.49469e-08 3.50881e-08)
(5.2643e-08 6.80434e-08 3.78137e-08)
(6.18577e-08 7.30573e-08 4.14459e-08)
(7.00589e-08 7.88211e-08 4.59491e-08)
(7.51089e-08 8.24426e-08 5.0576e-08)
(0 1.21758e-07 4.81884e-08)
(4.84459e-09 1.16267e-07 4.70511e-08)
(1.0419e-08 1.02819e-07 4.43764e-08)
(1.72131e-08 8.77537e-08 4.17237e-08)
(2.55058e-08 7.60692e-08 4.01565e-08)
(3.53378e-08 7.01203e-08 4.00708e-08)
(4.64402e-08 7.00509e-08 4.14293e-08)
(5.81835e-08 7.45869e-08 4.39966e-08)
(6.95865e-08 8.17129e-08 4.74618e-08)
(7.9743e-08 8.95068e-08 5.16447e-08)
(8.67948e-08 9.52193e-08 5.57834e-08)
(0 1.61496e-07 6.61816e-08)
(4.09917e-09 1.50155e-07 6.32601e-08)
(9.05228e-09 1.25367e-07 5.73669e-08)
(1.54963e-08 9.99509e-08 5.18962e-08)
(2.38647e-08 8.14086e-08 4.84802e-08)
(3.43549e-08 7.21186e-08 4.73777e-08)
(4.6811e-08 7.14948e-08 4.82512e-08)
(6.05831e-08 7.74248e-08 5.05862e-08)
(7.44143e-08 8.69772e-08 5.38281e-08)
(8.64579e-08 9.68151e-08 5.73527e-08)
(9.50574e-08 1.04186e-07 6.06756e-08)
(0 0 3.50631e-09)
(3.88644e-09 0 3.69319e-09)
(7.67483e-09 0 4.25079e-09)
(1.13555e-08 0 5.19401e-09)
(1.50411e-08 0 6.56303e-09)
(1.8924e-08 0 8.43037e-09)
(2.33369e-08 0 1.09063e-08)
(2.88651e-08 0 1.41509e-08)
(3.65287e-08 0 1.8394e-08)
(4.81024e-08 0 2.39794e-08)
(6.70313e-08 0 3.15772e-08)
(0 1.12412e-08 3.83174e-09)
(3.95768e-09 1.10984e-08 4.0179e-09)
(7.84614e-09 1.07281e-08 4.56972e-09)
(1.16394e-08 1.03269e-08 5.50482e-09)
(1.5419e-08 9.97123e-09 6.86485e-09)
(1.93517e-08 9.65276e-09 8.71966e-09)
(2.37219e-08 9.32959e-09 1.11721e-08)
(2.90253e-08 8.92881e-09 1.437e-08)
(3.6093e-08 8.34459e-09 1.85115e-08)
(4.62726e-08 7.45251e-09 2.38593e-08)
(6.19237e-08 5.97599e-09 3.08056e-08)
(0 2.23231e-08 4.79756e-09)
(4.18147e-09 2.21205e-08 4.97908e-09)
(8.34992e-09 2.15556e-08 5.5162e-09)
(1.24619e-08 2.08521e-08 6.42962e-09)
(1.65307e-08 2.01957e-08 7.76144e-09)
(2.06428e-08 1.96415e-08 9.57788e-09)
(2.49621e-08 1.91191e-08 1.19677e-08)
(2.97539e-08 1.84885e-08 1.50448e-08)
(3.54081e-08 1.75326e-08 1.89342e-08)
(4.24075e-08 1.5984e-08 2.37472e-08)
(5.15801e-08 1.32004e-08 2.955e-08)
(0 3.3396e-08 6.40629e-09)
(4.57401e-09 3.31566e-08 6.58138e-09)
(9.18433e-09 3.24789e-08 7.09923e-09)
(1.37951e-08 3.15792e-08 7.98448e-09)
(1.83692e-08 3.07017e-08 9.27774e-09)
(2.28834e-08 3.00195e-08 1.10417e-08)
(2.7341e-08 2.95052e-08 1.33528e-08)
(3.17422e-08 2.89515e-08 1.62902e-08)
(3.60246e-08 2.80236e-08 1.99103e-08)
(3.99531e-08 2.63104e-08 2.42155e-08)
(4.31747e-08 2.26186e-08 2.90378e-08)
(0 4.48918e-08 8.69437e-09)
(5.08431e-09 4.45685e-08 8.86123e-09)
(1.02769e-08 4.36684e-08 9.35061e-09)
(1.55564e-08 4.25099e-08 1.01963e-08)
(2.0864e-08 4.14386e-08 1.1444e-08)
(2.60919e-08 4.07203e-08 1.31512e-08)
(3.10879e-08 4.04234e-08 1.53866e-08)
(3.56322e-08 4.03378e-08 1.82105e-08)
(3.934e-08 4.00005e-08 2.16397e-08)
(4.15665e-08 3.88347e-08 2.5625e-08)
(4.10041e-08 3.49063e-08 2.98248e-08)
(0 5.73385e-08 1.17414e-08)
(5.63697e-09 5.68345e-08 1.18932e-08)
(1.14853e-08 5.54443e-08 1.23337e-08)
(1.75746e-08 5.37122e-08 1.31136e-08)
(2.38426e-08 5.22662e-08 1.42966e-08)
(3.01405e-08 5.15399e-08 1.59456e-08)
(3.62141e-08 5.16655e-08 1.81224e-08)
(4.16779e-08 5.24411e-08 2.08743e-08)
(4.59848e-08 5.33383e-08 2.42124e-08)
(4.83371e-08 5.359e-08 2.80759e-08)
(4.64816e-08 5.03804e-08 3.19568e-08)
(0 7.14905e-08 1.56751e-08)
(6.13434e-09 7.06025e-08 1.57936e-08)
(1.26203e-08 6.82191e-08 1.61437e-08)
(1.95873e-08 6.5305e-08 1.68084e-08)
(2.70082e-08 6.29904e-08 1.78848e-08)
(3.47212e-08 6.20793e-08 1.94588e-08)
(4.24231e-08 6.27947e-08 2.15896e-08)
(4.96316e-08 6.48407e-08 2.43093e-08)
(5.57229e-08 6.75921e-08 2.76299e-08)
(5.98901e-08 7.01157e-08 3.14957e-08)
(5.90505e-08 6.87789e-08 3.52496e-08)
(0 8.85099e-08 2.06843e-08)
(6.46115e-09 8.68553e-08 2.07344e-08)
(1.34579e-08 8.25229e-08 2.0906e-08)
(2.12566e-08 7.73297e-08 2.13563e-08)
(2.99233e-08 7.32689e-08 2.22469e-08)
(3.93207e-08 7.17096e-08 2.36997e-08)
(4.91089e-08 7.30307e-08 2.57746e-08)
(5.87625e-08 7.676e-08 2.84874e-08)
(6.75433e-08 8.19157e-08 3.18083e-08)
(7.4674e-08 8.73444e-08 3.56918e-08)
(7.67165e-08 8.90339e-08 3.94124e-08)
(0 1.10265e-07 2.70387e-08)
(6.48811e-09 1.07091e-07 2.69449e-08)
(1.37332e-08 9.89992e-08 2.67534e-08)
(2.2183e-08 8.96016e-08 2.67982e-08)
(3.20458e-08 8.24101e-08 2.73717e-08)
(4.32627e-08 7.95178e-08 2.86365e-08)
(5.54647e-08 8.13637e-08 3.06316e-08)
(6.80047e-08 8.7098e-08 3.332e-08)
(7.99186e-08 9.50778e-08 3.65914e-08)
(9.04335e-08 1.03732e-07 4.041e-08)
(9.63656e-08 1.09171e-07 4.40698e-08)
(0 1.39909e-07 3.5136e-08)
(6.08286e-09 1.33607e-07 3.47205e-08)
(1.31718e-08 1.18267e-07 3.37911e-08)
(2.19555e-08 1.01457e-07 3.31019e-08)
(3.28298e-08 8.91573e-08 3.31651e-08)
(4.58518e-08 8.41795e-08 3.41684e-08)
(6.0644e-08 8.66329e-08 3.60737e-08)
(7.63272e-08 9.48311e-08 3.87221e-08)
(9.15362e-08 1.06096e-07 4.18855e-08)
(1.05033e-07 1.17846e-07 4.54294e-08)
(1.14103e-07 1.26394e-07 4.86903e-08)
(0 1.83733e-07 4.57681e-08)
(4.99357e-09 1.70562e-07 4.45096e-08)
(1.11946e-08 1.41827e-07 4.21036e-08)
(1.95077e-08 1.12839e-07 4.01225e-08)
(3.05517e-08 9.26081e-08 3.9343e-08)
(4.46037e-08 8.40393e-08 3.98972e-08)
(6.14409e-08 8.64231e-08 4.16051e-08)
(8.01458e-08 9.70763e-08 4.41553e-08)
(9.89469e-08 1.12147e-07 4.71646e-08)
(1.15241e-07 1.27124e-07 5.01647e-08)
(1.26684e-07 1.38241e-07 5.2801e-08)
(0 -0 -2.43771e-09)
(2.88165e-09 0 -2.35822e-09)
(5.52287e-09 0 -2.13284e-09)
(7.75536e-09 0 -1.78404e-09)
(9.50022e-09 0 -1.34898e-09)
(1.07274e-08 0 -8.83508e-10)
(1.14994e-08 0 -4.74911e-10)
(1.20553e-08 0 -2.64617e-10)
(1.29521e-08 0 -4.86109e-10)
(1.52946e-08 0 -1.53637e-09)
(2.1248e-08 0 -4.15978e-09)
(0 1.19642e-08 -2.23339e-09)
(3.00905e-09 1.18256e-08 -2.15171e-09)
(5.80163e-09 1.14687e-08 -1.92224e-09)
(8.19949e-09 1.10962e-08 -1.56555e-09)
(1.01048e-08 1.07763e-08 -1.11602e-09)
(1.1471e-08 1.04836e-08 -6.26807e-10)
(1.23279e-08 1.0155e-08 -1.79488e-10)
(1.28541e-08 9.69271e-09 9.90634e-11)
(1.34806e-08 8.96224e-09 5.79947e-12)
(1.50443e-08 7.80723e-09 -7.81062e-10)
(1.90847e-08 5.91424e-09 -2.82375e-09)
(0 2.35925e-08 -1.64371e-09)
(3.38567e-09 2.34089e-08 -1.55643e-09)
(6.61064e-09 2.28974e-08 -1.31144e-09)
(9.48939e-09 2.22821e-08 -9.27684e-10)
(1.18817e-08 2.17318e-08 -4.35042e-10)
(1.36914e-08 2.12692e-08 1.22785e-10)
(1.48634e-08 2.07817e-08 6.80056e-10)
(1.54152e-08 2.00797e-08 1.1426e-09)
(1.54783e-08 1.88889e-08 1.37542e-09)
(1.53165e-08 1.68792e-08 1.20515e-09)
(1.5376e-08 1.33259e-08 2.96738e-10)
(0 3.48785e-08 -7.11124e-10)
(3.99164e-09 3.46836e-08 -6.13302e-10)
(7.89064e-09 3.41324e-08 -3.3697e-10)
(1.1532e-08 3.34306e-08 9.97845e-11)
(1.47446e-08 3.27923e-08 6.67714e-10)
(1.73614e-08 3.23424e-08 1.33322e-09)
(1.92177e-08 3.19908e-08 2.05202e-09)
(2.01351e-08 3.14562e-08 2.7651e-09)
(1.99136e-08 3.03192e-08 3.40066e-09)
(1.82901e-08 2.80775e-08 3.89799e-09)
(1.46255e-08 2.33782e-08 3.99964e-09)
(0 4.6098e-08 5.09595e-10)
(4.74604e-09 4.58556e-08 6.24441e-10)
(9.50113e-09 4.51914e-08 9.49004e-10)
(1.41419e-08 4.44022e-08 1.46573e-09)
(1.84944e-08 4.37862e-08 2.14332e-09)
(2.23296e-08 4.35427e-08 2.94892e-09)
(2.53749e-08 4.36569e-08 3.85567e-09)
(2.72921e-08 4.38222e-08 4.83668e-09)
(2.76129e-08 4.34659e-08 5.85941e-09)
(2.57157e-08 4.18948e-08 6.9126e-09)
(1.98522e-08 3.69018e-08 7.69378e-09)
(0 5.75884e-08 1.94622e-09)
(5.54212e-09 5.72176e-08 2.08643e-09)
(1.12335e-08 5.62205e-08 2.48141e-09)
(1.70357e-08 5.51061e-08 3.10857e-09)
(2.28014e-08 5.44318e-08 3.93014e-09)
(2.82781e-08 5.45441e-08 4.90792e-09)
(3.31055e-08 5.5474e-08 6.01803e-09)
(3.68155e-08 5.69019e-08 7.25123e-09)
(3.8808e-08 5.81686e-08 8.60443e-09)
(3.82733e-08 5.83705e-08 1.00742e-08)
(3.22724e-08 5.42857e-08 1.12607e-08)
(0 6.98618e-08 3.49135e-09)
(6.24848e-09 6.91845e-08 3.66983e-09)
(1.28312e-08 6.74202e-08 4.17238e-09)
(1.9847e-08 6.54736e-08 4.95759e-09)
(2.72175e-08 6.4372e-08 5.9666e-09)
(3.47035e-08 6.48025e-08 7.15034e-09)
(4.19003e-08 6.68719e-08 8.4797e-09)
(4.82306e-08 7.01538e-08 9.94614e-09)
(5.30284e-08 7.38735e-08 1.15641e-08)
(5.54434e-08 7.6942e-08 1.33297e-08)
(5.1494e-08 7.52095e-08 1.4755e-08)
(0 8.37642e-08 4.97426e-09)
(6.71527e-09 8.24403e-08 5.21812e-09)
(1.40002e-08 7.90645e-08 5.89659e-09)
(2.2134e-08 7.53324e-08 6.92034e-09)
(3.1167e-08 7.30808e-08 8.18412e-09)
(4.09105e-08 7.35266e-08 9.6147e-09)
(5.0936e-08 7.6914e-08 1.11777e-08)
(6.06026e-08 8.26382e-08 1.28671e-08)
(6.9083e-08 8.95489e-08 1.46849e-08)
(7.55421e-08 9.63151e-08 1.66344e-08)
(7.55842e-08 9.83716e-08 1.82114e-08)
(0 1.00745e-07 6.11323e-09)
(6.77712e-09 9.81051e-08 6.48075e-09)
(1.44038e-08 9.15079e-08 7.47053e-09)
(2.33921e-08 8.42858e-08 8.87506e-09)
(3.39743e-08 7.96886e-08 1.05005e-08)
(4.60646e-08 7.96333e-08 1.22387e-08)
(5.92118e-08 8.44258e-08 1.40524e-08)
(7.26362e-08 9.30737e-08 1.59395e-08)
(8.52107e-08 1.03732e-07 1.78819e-08)
(9.60724e-08 1.14628e-07 1.99033e-08)
(1.01194e-07 1.21376e-07 2.15574e-08)
(0 1.23377e-07 6.43165e-09)
(6.26293e-09 1.17998e-07 7.05842e-09)
(1.3694e-08 1.05082e-07 8.64886e-09)
(2.31067e-08 9.1508e-08 1.06933e-08)
(3.49672e-08 8.28185e-08 1.2842e-08)
(4.93314e-08 8.16656e-08 1.49647e-08)
(6.57367e-08 8.80915e-08 1.70487e-08)
(8.31306e-08 1.00275e-07 1.91026e-08)
(9.98976e-08 1.15267e-07 2.10984e-08)
(1.14602e-07 1.30171e-07 2.30392e-08)
(1.23894e-07 1.40857e-07 2.457e-08)
(0 1.56915e-07 5.0726e-09)
(4.8765e-09 1.45583e-07 6.27817e-09)
(1.12e-08 1.20902e-07 9.02064e-09)
(2.00512e-08 9.66279e-08 1.20823e-08)
(3.21669e-08 8.11434e-08 1.49128e-08)
(4.78635e-08 7.73599e-08 1.74487e-08)
(6.6856e-08 8.47103e-08 1.9784e-08)
(8.80343e-08 1.0049e-07 2.19824e-08)
(1.09279e-07 1.2054e-07 2.401e-08)
(1.27503e-07 1.39767e-07 2.57284e-08)
(1.39922e-07 1.53855e-07 2.70255e-08)
(0 -0 -1.03396e-08)
(1.03896e-09 0 -1.03822e-08)
(1.67665e-09 0 -1.05254e-08)
(1.55074e-09 0 -1.08151e-08)
(3.30114e-10 0 -1.134e-08)
(-2.31557e-09 -0 -1.22423e-08)
(-6.70189e-09 -0 -1.37397e-08)
(-1.30977e-08 -0 -1.6164e-08)
(-2.16601e-08 -0 -2.00263e-08)
(-3.23679e-08 -0 -2.61428e-08)
(-4.51489e-08 -0 -3.60475e-08)
(0 1.14213e-08 -1.02886e-08)
(1.22587e-09 1.13031e-08 -1.03273e-08)
(2.06358e-09 1.10021e-08 -1.04601e-08)
(2.15116e-09 1.07025e-08 -1.07321e-08)
(1.15838e-09 1.0452e-08 -1.12286e-08)
(-1.24642e-09 1.02056e-08 -1.20858e-08)
(-5.38456e-09 9.88142e-09 -1.35064e-08)
(-1.15334e-08 9.36368e-09 -1.57907e-08)
(-1.98659e-08 8.50231e-09 -1.93796e-08)
(-3.03553e-08 7.12709e-09 -2.49154e-08)
(-4.27988e-08 4.9335e-09 -3.34532e-08)
(0 2.23139e-08 -1.01609e-08)
(1.76077e-09 2.21732e-08 -1.01875e-08)
(3.17915e-09 2.17843e-08 -1.02856e-08)
(3.90049e-09 2.13399e-08 -1.05007e-08)
(3.59444e-09 2.09628e-08 -1.09113e-08)
(1.93018e-09 2.06293e-08 -1.16358e-08)
(-1.43501e-09 2.01865e-08 -1.28414e-08)
(-6.81521e-09 1.94089e-08 -1.47523e-08)
(-1.44312e-08 1.79918e-08 -1.76503e-08)
(-2.4316e-08 1.55804e-08 -2.18423e-08)
(-3.65396e-08 1.14695e-08 -2.78079e-08)
(0 3.24624e-08 -1.00226e-08)
(2.57526e-09 3.23441e-08 -1.00284e-08)
(4.89067e-09 3.20136e-08 -1.00642e-08)
(6.62583e-09 3.16296e-08 -1.01781e-08)
(7.45013e-09 3.13342e-08 -1.04466e-08)
(7.02653e-09 3.11703e-08 -1.09692e-08)
(4.99125e-09 3.09778e-08 -1.18701e-08)
(9.63321e-10 3.04206e-08 -1.32928e-08)
(-5.38553e-09 2.90364e-08 -1.5371e-08)
(-1.42564e-08 2.62897e-08 -1.81628e-08)
(-2.64775e-08 2.08448e-08 -2.18638e-08)
(0 4.18993e-08 -9.98361e-09)
(3.55831e-09 4.1788e-08 -9.9573e-09)
(6.98266e-09 4.15039e-08 -9.89794e-09)
(1.00239e-08 4.12659e-08 -9.86062e-09)
(1.23737e-08 4.12614e-08 -9.92949e-09)
(1.36728e-08 4.15699e-08 -1.01985e-08)
(1.35314e-08 4.20694e-08 -1.07583e-08)
(1.15171e-08 4.23744e-08 -1.16882e-08)
(7.15069e-09 4.18599e-08 -1.30325e-08)
(-1.1619e-12 3.9797e-08 -1.4739e-08)
(-1.19065e-08 3.39782e-08 -1.69456e-08)
(0 5.06633e-08 -1.0211e-08)
(4.57531e-09 5.05123e-08 -1.01344e-08)
(9.18507e-09 5.01539e-08 -9.9301e-09)
(1.36968e-08 4.99652e-08 -9.67473e-09)
(1.78648e-08 5.03205e-08 -9.4767e-09)
(2.13314e-08 5.13932e-08 -9.44231e-09)
(2.36512e-08 5.30754e-08 -9.65204e-09)
(2.43293e-08 5.49451e-08 -1.01467e-08)
(2.28141e-08 5.62801e-08 -1.09213e-08)
(1.84579e-08 5.61478e-08 -1.19051e-08)
(7.95259e-09 5.13029e-08 -1.3261e-08)
(0 5.8873e-08 -1.0957e-08)
(5.46812e-09 5.85658e-08 -1.07962e-08)
(1.11869e-08 5.78604e-08 -1.03578e-08)
(1.71894e-08 5.74301e-08 -9.77364e-09)
(2.33324e-08 5.79999e-08 -9.21036e-09)
(2.93038e-08 5.99915e-08 -8.8086e-09)
(3.46235e-08 6.33403e-08 -8.65386e-09)
(3.86844e-08 6.75178e-08 -8.77324e-09)
(4.089e-08 7.16845e-08 -9.13358e-09)
(4.05069e-08 7.47311e-08 -9.66798e-09)
(3.30538e-08 7.24749e-08 -1.05641e-08)
(0 6.68317e-08 -1.26051e-08)
(6.0631e-09 6.61403e-08 -1.2292e-08)
(1.26443e-08 6.45293e-08 -1.1448e-08)
(1.99866e-08 6.32482e-08 -1.03368e-08)
(2.81009e-08 6.3628e-08 -9.24659e-09)
(3.67516e-08 6.64915e-08 -8.38159e-09)
(4.54543e-08 7.18705e-08 -7.83344e-09)
(5.35162e-08 7.9085e-08 -7.61103e-09)
(6.01381e-08 8.69569e-08 -7.66545e-09)
(6.45733e-08 9.41516e-08 -7.92217e-09)
(6.19069e-08 9.60858e-08 -8.54924e-09)
(0 7.5217e-08 -1.57463e-08)
(6.17373e-09 7.36932e-08 -1.51357e-08)
(1.31794e-08 7.00997e-08 -1.35425e-08)
(2.15236e-08 6.68333e-08 -1.15462e-08)
(3.1423e-08 6.62657e-08 -9.67068e-09)
(4.27597e-08 6.97798e-08 -8.20369e-09)
(5.50378e-08 7.74714e-08 -7.22175e-09)
(6.74245e-08 8.83316e-08 -6.68206e-09)
(7.87668e-08 1.00557e-07 -6.50007e-09)
(8.82471e-08 1.12417e-07 -6.57469e-09)
(9.14107e-08 1.19555e-07 -7.00878e-09)
(0 8.54356e-08 -2.13214e-08)
(5.60871e-09 8.21463e-08 -2.00786e-08)
(1.24084e-08 7.45149e-08 -1.70256e-08)
(2.12387e-08 6.73325e-08 -1.35149e-08)
(3.25736e-08 6.46506e-08 -1.04744e-08)
(4.64488e-08 6.8502e-08 -8.24352e-09)
(6.23554e-08 7.88676e-08 -6.79806e-09)
(7.91781e-08 9.40686e-08 -5.97918e-09)
(9.52386e-08 1.11293e-07 -5.6227e-09)
(1.09097e-07 1.2772e-07 -5.58168e-09)
(1.1714e-07 1.39291e-07 -5.8598e-09)
(0 1.0055e-07 -3.10617e-08)
(4.06757e-09 9.35246e-08 -2.83353e-08)
(9.65918e-09 7.82799e-08 -2.24683e-08)
(1.79065e-08 6.41256e-08 -1.64796e-08)
(2.95748e-08 5.72219e-08 -1.18007e-08)
(4.49737e-08 6.00687e-08 -8.63029e-09)
(6.37769e-08 7.24472e-08 -6.67415e-09)
(8.47958e-08 9.21087e-08 -5.57087e-09)
(1.05799e-07 1.15178e-07 -5.04702e-09)
(1.23579e-07 1.36635e-07 -4.92474e-09)
(1.35248e-07 1.5214e-07 -5.08631e-09)
(0 0 -1.82862e-08)
(-9.72172e-10 -0 -1.84075e-08)
(-2.47256e-09 -0 -1.87804e-08)
(-5.02679e-09 -0 -1.94446e-08)
(-9.18881e-09 -0 -2.04835e-08)
(-1.55554e-08 -0 -2.20352e-08)
(-2.47806e-08 -0 -2.43094e-08)
(-3.75958e-08 -0 -2.76199e-08)
(-5.4822e-08 -0 -3.24364e-08)
(-7.74624e-08 -0 -3.94867e-08)
(-1.07437e-07 -0 -5.01343e-08)
(0 1.02999e-08 -1.83537e-08)
(-7.37706e-10 1.02033e-08 -1.84724e-08)
(-2.00362e-09 9.95947e-09 -1.88371e-08)
(-4.31295e-09 9.72388e-09 -1.94881e-08)
(-8.19874e-09 9.52062e-09 -2.05064e-08)
(-1.4244e-08 9.28816e-09 -2.20241e-08)
(-2.30813e-08 8.9317e-09 -2.42367e-08)
(-3.53981e-08 8.32783e-09 -2.74295e-08)
(-5.19193e-08 7.32507e-09 -3.20074e-08)
(-7.3371e-08 5.75683e-09 -3.85381e-08)
(-1.00808e-07 3.36279e-09 -4.79211e-08)
(0 1.99203e-08 -1.85719e-08)
(-7.92911e-11 1.98203e-08 -1.8681e-08)
(-6.57399e-10 1.95456e-08 -1.90186e-08)
(-2.22941e-09 1.92447e-08 -1.96271e-08)
(-5.2864e-09 1.89868e-08 -2.05816e-08)
(-1.03606e-08 1.87034e-08 -2.19984e-08)
(-1.80416e-08 1.82129e-08 -2.40405e-08)
(-2.89273e-08 1.72734e-08 -2.69226e-08)
(-4.35364e-08 1.55788e-08 -3.09024e-08)
(-6.21401e-08 1.27855e-08 -3.62414e-08)
(-8.52276e-08 8.28773e-09 -4.32918e-08)
(0 2.84645e-08 -1.89934e-08)
(8.88679e-10 2.84152e-08 -1.90863e-08)
(1.36624e-09 2.82797e-08 -1.9376e-08)
(9.80117e-10 2.8156e-08 -1.99092e-08)
(-7.32287e-10 2.81017e-08 -2.07594e-08)
(-4.24554e-09 2.8075e-08 -2.20256e-08)
(-1.00819e-08 2.78588e-08 -2.38324e-08)
(-1.87743e-08 2.70917e-08 -2.63199e-08)
(-3.07202e-08 2.53115e-08 -2.96085e-08)
(-4.59945e-08 2.20031e-08 -3.3735e-08)
(-6.54531e-08 1.59922e-08 -3.87541e-08)
(0 3.5739e-08 -1.97148e-08)
(2.03237e-09 3.5747e-08 -1.97829e-08)
(3.79037e-09 3.58018e-08 -1.99979e-08)
(4.91341e-09 3.60219e-08 -2.04157e-08)
(4.98111e-09 3.64631e-08 -2.11184e-08)
(3.53477e-09 3.70766e-08 -2.21991e-08)
(1.07438e-10 3.76447e-08 -2.37517e-08)
(-5.7772e-09 3.77388e-08 -2.5859e-08)
(-1.45447e-08 3.67396e-08 -2.85594e-08)
(-2.6368e-08 3.39533e-08 -3.179e-08)
(-4.31716e-08 2.74011e-08 -3.54986e-08)
(0 4.15051e-08 -2.08914e-08)
(3.19907e-09 4.1562e-08 -2.09182e-08)
(6.30288e-09 4.17945e-08 -2.10138e-08)
(9.08587e-09 4.24081e-08 -2.12574e-08)
(1.12172e-08 4.35542e-08 -2.17565e-08)
(1.22602e-08 4.52129e-08 -2.2616e-08)
(1.17235e-08 4.71458e-08 -2.39194e-08)
(9.13605e-09 4.88708e-08 -2.57125e-08)
(4.05724e-09 4.96738e-08 -2.79919e-08)
(-3.92135e-09 4.86812e-08 -3.06787e-08)
(-1.80904e-08 4.29514e-08 -3.36805e-08)
(0 4.55114e-08 -2.27583e-08)
(4.2164e-09 4.55717e-08 -2.27112e-08)
(8.56295e-09 4.58918e-08 -2.2604e-08)
(1.29892e-08 4.68427e-08 -2.2572e-08)
(1.72872e-08 4.8774e-08 -2.27798e-08)
(2.10895e-08 5.17998e-08 -2.33659e-08)
(2.38773e-08 5.56872e-08 -2.44161e-08)
(2.5067e-08 5.98571e-08 -2.59594e-08)
(2.41909e-08 6.34938e-08 -2.79668e-08)
(2.07078e-08 6.55768e-08 -3.03615e-08)
(1.0131e-08 6.23023e-08 -3.30213e-08)
(0 4.754e-08 -2.56685e-08)
(4.90223e-09 4.7506e-08 -2.54823e-08)
(1.02067e-08 4.76841e-08 -2.50088e-08)
(1.6079e-08 4.87494e-08 -2.45145e-08)
(2.24723e-08 5.13953e-08 -2.42827e-08)
(2.91105e-08 5.59754e-08 -2.45116e-08)
(3.54859e-08 6.23101e-08 -2.52871e-08)
(4.09085e-08 6.97107e-08 -2.66167e-08)
(4.46816e-08 7.70948e-08 -2.844e-08)
(4.62182e-08 8.3264e-08 -3.06714e-08)
(4.06149e-08 8.40634e-08 -3.31575e-08)
(0 4.75048e-08 -3.01525e-08)
(5.0676e-09 4.71868e-08 -2.96884e-08)
(1.08521e-08 4.67634e-08 -2.85198e-08)
(1.77845e-08 4.74581e-08 -2.72235e-08)
(2.60232e-08 5.05359e-08 -2.63137e-08)
(3.54092e-08 5.67229e-08 -2.60656e-08)
(4.54334e-08 6.59126e-08 -2.65388e-08)
(5.52775e-08 7.71907e-08 -2.76722e-08)
(6.38714e-08 8.89873e-08 -2.93412e-08)
(7.05206e-08 9.97935e-08 -3.14388e-08)
(7.08247e-08 1.05711e-07 -3.37752e-08)
(0 4.56219e-08 -3.70349e-08)
(4.52357e-09 4.46536e-08 -3.59735e-08)
(1.01237e-08 4.27785e-08 -3.34357e-08)
(1.75589e-08 4.224e-08 -3.07474e-08)
(2.72386e-08 4.52164e-08 -2.88145e-08)
(3.91504e-08 5.2949e-08 -2.79569e-08)
(5.27701e-08 6.53915e-08 -2.81205e-08)
(6.70188e-08 8.12031e-08 -2.90969e-08)
(8.03257e-08 9.80176e-08 -3.06441e-08)
(9.14037e-08 1.13401e-07 -3.25694e-08)
(9.67973e-08 1.23794e-07 -3.46087e-08)
(0 4.26613e-08 -4.78438e-08)
(3.00109e-09 4.0456e-08 -4.53578e-08)
(7.42593e-09 3.57165e-08 -4.01597e-08)
(1.43177e-08 3.24227e-08 -3.51502e-08)
(2.43654e-08 3.39371e-08 -3.17198e-08)
(3.78156e-08 4.21449e-08 -3.00569e-08)
(5.43109e-08 5.72444e-08 -2.98413e-08)
(7.26912e-08 7.77059e-08 -3.0646e-08)
(9.08459e-08 1.00366e-07 -3.208e-08)
(1.05825e-07 1.20847e-07 -3.37811e-08)
(1.15e-07 1.35292e-07 -3.54819e-08)
(0 0 -2.49185e-08)
(-2.47643e-09 -0 -2.50476e-08)
(-5.52637e-09 -0 -2.54314e-08)
(-9.74686e-09 -0 -2.60765e-08)
(-1.58017e-08 -0 -2.70071e-08)
(-2.44183e-08 -0 -2.82711e-08)
(-3.64199e-08 -0 -2.9944e-08)
(-5.278e-08 -0 -3.21375e-08)
(-7.46909e-08 -0 -3.50127e-08)
(-1.03767e-07 -0 -3.88039e-08)
(-1.43155e-07 -0 -4.39504e-08)
(0 9.28546e-09 -2.50388e-08)
(-2.21837e-09 9.2e-09 -2.5169e-08)
(-5.02171e-09 8.98294e-09 -2.55553e-08)
(-8.9906e-09 8.76456e-09 -2.62051e-08)
(-1.47549e-08 8.55122e-09 -2.71425e-08)
(-2.30194e-08 8.27162e-09 -2.84134e-08)
(-3.45684e-08 7.82725e-09 -3.00886e-08)
(-5.02988e-08 7.09786e-09 -3.22723e-08)
(-7.12358e-08 5.94295e-09 -3.51061e-08)
(-9.85459e-08 4.21235e-09 -3.87753e-08)
(-1.34061e-07 1.70471e-09 -4.35406e-08)
(0 1.78303e-08 -2.53977e-08)
(-1.50213e-09 1.7749e-08 -2.55294e-08)
(-3.57816e-09 1.75222e-08 -2.59216e-08)
(-6.78328e-09 1.72603e-08 -2.65842e-08)
(-1.16792e-08 1.69905e-08 -2.75396e-08)
(-1.88895e-08 1.66153e-08 -2.88292e-08)
(-2.91158e-08 1.59424e-08 -3.05147e-08)
(-4.30858e-08 1.47353e-08 -3.26794e-08)
(-6.14575e-08 1.27113e-08 -3.54196e-08)
(-8.46179e-08 9.56363e-09 -3.88292e-08)
(-1.13277e-07 4.82196e-09 -4.29647e-08)
(0 2.51506e-08 -2.6003e-08)
(-4.71231e-10 2.51329e-08 -2.61373e-08)
(-1.43586e-09 2.50793e-08 -2.6538e-08)
(-3.40838e-09 2.50338e-08 -2.72192e-08)
(-6.90746e-09 2.49863e-08 -2.82029e-08)
(-1.24606e-08 2.48356e-08 -2.9525e-08)
(-2.06483e-08 2.43371e-08 -3.12365e-08)
(-3.20507e-08 2.31362e-08 -3.33983e-08)
(-4.7059e-08 2.08079e-08 -3.60635e-08)
(-6.56302e-08 1.68945e-08 -3.92593e-08)
(-8.85255e-08 1.04558e-08 -4.2893e-08)
(0 3.09333e-08 -2.68801e-08)
(7.30978e-10 3.10022e-08 -2.7017e-08)
(1.09807e-09 3.12159e-08 -2.74249e-08)
(6.81651e-10 3.16042e-08 -2.81234e-08)