/*--------------------------------*- C++ -*----------------------------------*\
| =========                 |                                                 |
| \\      /  F ield         | foam-extend: Open Source CFD                    |
|  \\    /   O peration     | Version:     3.1                                |
|   \\  /    A nd           | Web:         http://www.extend-project.de       |
|    \\/     M anipulation  |                                                 |
\*---------------------------------------------------------------------------*/
FoamFile
{
    version     2.0;
    format      ascii;
    class       volVectorField;
    location    "0.0009";
    object      U;
}
// * * * * * * * * * * * * * * * * * * * * * * * * * * * * * * * * * * * * * //

dimensions      [0 1 -1 0 0 0 0];

internalField   nonuniform List<vector> 
16000
(
(0.000275854 0.000275975 0.201921)
(0.000828691 0.000274082 0.202475)
(0.00138359 0.000272405 0.203591)
(0.00194365 0.000272407 0.205278)
(0.00251329 0.000274214 0.20755)
(0.00309611 0.000277839 0.210425)
(0.00369485 0.000283323 0.213928)
(0.00431137 0.000290676 0.218084)
(0.00494716 0.000299731 0.222925)
(0.00560025 0.000300097 0.228485)
(0.000273965 0.000828884 0.202475)
(0.000823128 0.000823357 0.202993)
(0.00137411 0.000818139 0.204054)
(0.00193016 0.000817329 0.205668)
(0.0024953 0.000821384 0.207847)
(0.00307295 0.00083052 0.210609)
(0.00366581 0.000844898 0.213976)
(0.0042756 0.000864552 0.217972)
(0.00490469 0.000889137 0.222626)
(0.00554433 0.000887955 0.22797)
(0.00027235 0.00138361 0.203591)
(0.000817972 0.00137423 0.204054)
(0.0013644 0.00136461 0.205045)
(0.00191562 0.00136092 0.206571)
(0.00247524 0.00136384 0.208644)
(0.00304627 0.00137394 0.211281)
(0.00363105 0.00139156 0.2145)
(0.00423078 0.00141662 0.218324)
(0.0048485 0.00144839 0.222781)
(0.00546611 0.00143376 0.227899)
(0.000272421 0.0019435 0.205278)
(0.000817305 0.00193011 0.205668)
(0.00136079 0.00191572 0.206571)
(0.00190834 0.00190853 0.207995)
(0.00246361 0.00190908 0.20995)
(0.00302918 0.00191821 0.212449)
(0.00360685 0.00193664 0.215512)
(0.00419697 0.0019643 0.219157)
(0.00480315 0.00199995 0.223409)
(0.00539557 0.0019666 0.228298)
(0.000274247 0.0025131 0.20755)
(0.000821455 0.00249514 0.207847)
(0.00136386 0.00247519 0.208644)
(0.00190896 0.00246371 0.20995)
(0.00246082 0.00246102 0.211771)
(0.00302194 0.00246797 0.214122)
(0.0035935 0.00248564 0.217016)
(0.00417478 0.00251431 0.220472)
(0.00476973 0.00255248 0.224512)
(0.00533463 0.00249783 0.229166)
(0.000277868 0.00309593 0.210425)
(0.000830608 0.00307277 0.210609)
(0.00137405 0.00304613 0.211281)
(0.00191826 0.00302916 0.212449)
(0.00246785 0.0030221 0.214122)
(0.00302556 0.00302583 0.216308)
(0.00359226 0.00304175 0.219021)
(0.004166 0.00307078 0.222277)
(0.00475061 0.00311168 0.226094)
(0.00528562 0.00303548 0.230506)
(0.000283349 0.00369469 0.213928)
(0.00084498 0.00366566 0.213976)
(0.00139169 0.00363091 0.2145)
(0.00193681 0.00360673 0.215512)
(0.00248572 0.00359351 0.217016)
(0.00304156 0.00359246 0.219021)
(0.00360529 0.00360564 0.221537)
(0.00417388 0.0036351 0.22458)
(0.0047504 0.00368093 0.228164)
(0.00525327 0.00358681 0.232325)
(0.000290699 0.00431125 0.218084)
(0.000864623 0.00427548 0.217972)
(0.00141675 0.00423066 0.218324)
(0.00196448 0.00419682 0.219157)
(0.00251452 0.00417462 0.220472)
(0.00307076 0.00416589 0.222277)
(0.00363477 0.00417394 0.22458)
(0.00420304 0.0042033 0.227393)
(0.00477756 0.00425842 0.230731)
(0.00524878 0.00415844 0.234635)
(0.000299751 0.0049471 0.222925)
(0.000889196 0.00490463 0.222626)
(0.00144848 0.00484841 0.222781)
(0.00200008 0.00480302 0.223409)
(0.00255263 0.00476952 0.224512)
(0.00311172 0.00475031 0.226094)
(0.00368075 0.00475014 0.228164)
(0.00425816 0.00477753 0.230731)
(0.00484707 0.00484721 0.233809)
(0.00530313 0.00476415 0.237447)
(0.000300114 0.00560024 0.228485)
(0.000888005 0.00554431 0.22797)
(0.00143383 0.00546607 0.227899)
(0.0019667 0.00539549 0.228298)
(0.00249793 0.00533449 0.229166)
(0.00303554 0.0052854 0.230506)
(0.00358679 0.00525301 0.232325)
(0.00415835 0.00524863 0.234635)
(0.00476399 0.0053031 0.237447)
(0.00535928 0.00535937 0.24082)
(0.000693505 0.000693519 0.198649)
(0.00208742 0.000686056 0.199192)
(0.00349528 0.000676933 0.200286)
(0.00492539 0.000669122 0.201942)
(0.00638735 0.000662512 0.204176)
(0.00788836 0.000656898 0.20701)
(0.00943391 0.000652076 0.210469)
(0.0110275 0.000647883 0.214586)
(0.0126693 0.000644633 0.219395)
(0.0143547 0.000650793 0.224928)
(0.000686042 0.00208744 0.199192)
(0.00206526 0.00206529 0.199701)
(0.00345745 0.00203826 0.200744)
(0.00487065 0.00201533 0.202332)
(0.00631399 0.00199616 0.204479)
(0.00779448 0.00198014 0.207206)
(0.00931764 0.00196664 0.210538)
(0.0108872 0.00195516 0.214504)
(0.0125035 0.00194644 0.219137)
(0.0141636 0.00196229 0.224466)
(0.000676929 0.00349528 0.200286)
(0.00203824 0.00345747 0.200744)
(0.00341113 0.00341116 0.20172)
(0.00480338 0.00337136 0.203225)
(0.00622349 0.00333758 0.205271)
(0.00767812 0.00330891 0.207879)
(0.00917272 0.00328434 0.21107)
(0.0107111 0.00326302 0.214873)
(0.0122935 0.00324604 0.219317)
(0.0139185 0.00326886 0.22443)
(0.000669126 0.00492537 0.201942)
(0.00201533 0.00487064 0.202332)
(0.00337134 0.00480339 0.203225)
(0.00474484 0.00474487 0.204631)
(0.00614361 0.00469445 0.206564)
(0.00757393 0.00465096 0.20904)
(0.0090411 0.00461312 0.212081)
(0.010549 0.00457979 0.215711)
(0.0120974 0.00455241 0.21996)
(0.0136865 0.00457923 0.224851)
(0.000662515 0.00638733 0.204176)
(0.00199616 0.00631397 0.204479)
(0.00333758 0.00622348 0.205271)
(0.00469443 0.00614362 0.206564)
(0.00607368 0.00607371 0.208369)
(0.00748126 0.00601231 0.210701)
(0.0089223 0.00595793 0.21358)
(0.0104008 0.00590928 0.217028)
(0.0119156 0.00586829 0.221072)
(0.0134697 0.00589563 0.225735)
(0.0006569 0.00788834 0.207009)
(0.00198014 0.00779447 0.207206)
(0.00330892 0.00767811 0.207879)
(0.00465096 0.00757393 0.20904)
(0.00601229 0.00748128 0.210701)
(0.00739846 0.00739851 0.212875)
(0.00881454 0.00732389 0.215578)
(0.0102646 0.00725601 0.218832)
(0.0117466 0.00719747 0.22266)
(0.0132667 0.00722122 0.227087)
(0.000652078 0.00943389 0.210469)
(0.00196665 0.00931763 0.210538)
(0.00328435 0.00917271 0.21107)
(0.00461313 0.00904109 0.212081)
(0.00595794 0.00892231 0.21358)
(0.00732385 0.00881457 0.215578)
(0.00871583 0.00871589 0.21809)
(0.0101381 0.00862453 0.221134)
(0.011588 0.00854362 0.224732)
(0.0130754 0.00855828 0.228911)
(0.000647885 0.0110275 0.214586)
(0.00195517 0.0108872 0.214504)
(0.00326303 0.0107111 0.214873)
(0.0045798 0.010549 0.215711)
(0.0059093 0.0104008 0.217028)
(0.007256 0.0102645 0.218831)
(0.00862446 0.0101381 0.221134)
(0.0100189 0.010019 0.22395)
(0.0114364 0.0099096 0.2273)
(0.0128914 0.00990635 0.231213)
(0.000644635 0.0126693 0.219395)
(0.00194645 0.0125035 0.219137)
(0.00324605 0.0122935 0.219317)
(0.00455241 0.0120974 0.21996)
(0.00586829 0.0119156 0.221072)
(0.00719746 0.0117465 0.22266)
(0.00854357 0.0115879 0.224732)
(0.00990954 0.0114364 0.2273)
(0.0112919 0.0112919 0.230377)
(0.0127141 0.0112572 0.233998)
(0.000650794 0.0143547 0.224928)
(0.0019623 0.0141636 0.224466)
(0.00326886 0.0139185 0.22443)
(0.00457923 0.0136865 0.224851)
(0.00589563 0.0134697 0.225735)
(0.0072212 0.0132667 0.227087)
(0.00855825 0.0130754 0.228911)
(0.00990632 0.0128914 0.231213)
(0.0112571 0.0127141 0.233998)
(0.0126244 0.0126245 0.237296)
(0.00118131 0.00118134 0.191667)
(0.00355735 0.0011694 0.192174)
(0.00596288 0.00115526 0.193197)
(0.00841651 0.00114406 0.194749)
(0.0109394 0.00113566 0.196849)
(0.0135488 0.00112974 0.199523)
(0.0162595 0.00112599 0.202804)
(0.0190815 0.00112407 0.206731)
(0.0220157 0.0011243 0.211352)
(0.0250468 0.00114155 0.216716)
(0.00116936 0.0035574 0.192174)
(0.00352172 0.00352179 0.192649)
(0.00590156 0.00347963 0.193625)
(0.00832695 0.00344634 0.195113)
(0.010818 0.00342148 0.197132)
(0.0133914 0.00340415 0.199704)
(0.0160617 0.00339333 0.202862)
(0.018839 0.00338798 0.206643)
(0.0217243 0.00338884 0.211089)
(0.0247061 0.00343466 0.216246)
(0.00115525 0.00596286 0.193197)
(0.00347959 0.00590159 0.193625)
(0.00582846 0.00582852 0.19454)
(0.00821968 0.00576936 0.195952)
(0.010672 0.00572347 0.197877)
(0.0132013 0.00568947 0.20034)
(0.0158215 0.00566574 0.203367)
(0.0185426 0.00565054 0.206993)
(0.0213645 0.00564509 0.211259)
(0.0242789 0.0057134 0.216204)
(0.00114407 0.00841644 0.194749)
(0.00344635 0.00832691 0.195113)
(0.00576932 0.0082197 0.195951)
(0.008131 0.00813105 0.197275)
(0.0105488 0.00806007 0.199097)
(0.0130376 0.00800493 0.20144)
(0.0156107 0.00796351 0.20433)
(0.0182777 0.00793348 0.207797)
(0.0210365 0.00791651 0.211879)
(0.023882 0.00800066 0.216612)
(0.00113567 0.0109393 0.196849)
(0.00342151 0.0108179 0.197132)
(0.00572348 0.0106719 0.197877)
(0.00806004 0.0105488 0.199097)
(0.0104472 0.0104472 0.200805)
(0.012899 0.0103649 0.203018)
(0.0154279 0.0102991 0.205761)
(0.0180431 0.0102472 0.209062)
(0.0207401 0.0102116 0.212955)
(0.0235179 0.0103037 0.217473)
(0.00112975 0.0135488 0.199523)
(0.00340418 0.0133914 0.199704)
(0.00568951 0.0132013 0.200339)
(0.00800496 0.0130376 0.20144)
(0.0103649 0.012899 0.203018)
(0.0127824 0.0127825 0.205089)
(0.0152695 0.0126847 0.207675)
(0.017835 0.0126025 0.2108)
(0.0204714 0.0125391 0.214496)
(0.0231833 0.0126297 0.218794)
(0.001126 0.0162595 0.202804)
(0.00339335 0.0160616 0.202862)
(0.00566578 0.0158214 0.203367)
(0.00796356 0.0156106 0.20433)
(0.0102992 0.0154278 0.205761)
(0.0126847 0.0152695 0.207675)
(0.0151313 0.0151314 0.210089)
(0.017648 0.0150092 0.213027)
(0.0202246 0.0149068 0.216515)
(0.0228725 0.0149827 0.220586)
(0.00112408 0.0190814 0.206731)
(0.003388 0.0188389 0.206643)
(0.00565058 0.0185426 0.206993)
(0.00793353 0.0182776 0.207797)
(0.0102473 0.0180431 0.209062)
(0.0126025 0.017835 0.2108)
(0.0150091 0.017648 0.213027)
(0.0174756 0.0174757 0.215762)
(0.0199906 0.0173199 0.219027)
(0.0225751 0.0173609 0.222859)
(0.00112431 0.0220157 0.211352)
(0.00338885 0.0217242 0.211089)
(0.00564512 0.0213645 0.211259)
(0.00791655 0.0210364 0.211879)
(0.0102116 0.02074 0.212955)
(0.0125392 0.0204713 0.214496)
(0.0149067 0.0202245 0.216515)
(0.0173198 0.0199906 0.219027)
(0.0197651 0.0197652 0.222052)
(0.0222843 0.0197424 0.225626)
(0.00114155 0.0250468 0.216716)
(0.00343467 0.0247061 0.216246)
(0.00571342 0.0242789 0.216204)
(0.00800068 0.023882 0.216612)
(0.0103037 0.0235178 0.217473)
(0.0126297 0.0231832 0.218794)
(0.0149827 0.0228724 0.220586)
(0.0173608 0.022575 0.222859)
(0.0197423 0.0222843 0.225626)
(0.0221491 0.0221492 0.228927)
(0.00162664 0.00162671 0.181275)
(0.00490029 0.00161099 0.181715)
(0.00822138 0.00159301 0.182605)
(0.0116214 0.00157997 0.183959)
(0.015136 0.00157176 0.185798)
(0.0187976 0.00156812 0.188151)
(0.0226367 0.00156881 0.191058)
(0.0266798 0.00157359 0.194571)
(0.0309438 0.00158323 0.198753)
(0.0354256 0.00162028 0.203683)
(0.00161092 0.00490037 0.181715)
(0.00485335 0.00485348 0.182129)
(0.00814025 0.00479982 0.182978)
(0.011502 0.0047609 0.184277)
(0.0149726 0.00473643 0.186045)
(0.018583 0.00472556 0.188309)
(0.0223627 0.00472738 0.191108)
(0.0263378 0.00474098 0.194488)
(0.0305238 0.00476799 0.198508)
(0.0349224 0.00486662 0.20324)
(0.00159299 0.00822134 0.182605)
(0.00479974 0.00814029 0.182978)
(0.0080466 0.00804671 0.183776)
(0.0113635 0.00797634 0.18501)
(0.0147823 0.00792878 0.186699)
(0.0183322 0.00790275 0.18887)
(0.0220414 0.00789673 0.191556)
(0.0259347 0.00790913 0.194802)
(0.0300248 0.00794237 0.198661)
(0.0343172 0.00809205 0.203199)
(0.00157999 0.0116212 0.183959)
(0.00476092 0.0115019 0.184277)
(0.00797629 0.0113636 0.18501)
(0.0112564 0.0112564 0.18617)
(0.0146308 0.0111798 0.187773)
(0.0181272 0.0111319 0.189844)
(0.0217722 0.0111109 0.192414)
(0.0255892 0.0111144 0.195524)
(0.0295865 0.0111457 0.199225)
(0.0337746 0.0113361 0.203574)
(0.00157178 0.0151358 0.185797)
(0.00473649 0.0149724 0.186045)
(0.00792883 0.0147822 0.186699)
(0.0111798 0.0146308 0.187773)
(0.0145169 0.014517 0.189281)
(0.0179665 0.0144385 0.191245)
(0.0215534 0.0143927 0.193694)
(0.0252997 0.014377 0.196666)
(0.0292086 0.0143957 0.200207)
(0.0332979 0.0146152 0.204371)
(0.00156814 0.0187975 0.188151)
(0.00472562 0.0185828 0.188309)
(0.00790284 0.0183321 0.18887)
(0.011132 0.0181271 0.189844)
(0.0144385 0.0179665 0.191245)
(0.0178469 0.017847 0.193093)
(0.0213811 0.0177652 0.195414)
(0.0250618 0.017718 0.198242)
(0.0288866 0.0177111 0.201621)
(0.0328834 0.017946 0.205601)
(0.00156882 0.0226365 0.191058)
(0.00472743 0.0223626 0.191108)
(0.00789682 0.0220412 0.191556)
(0.011111 0.021772 0.192414)
(0.0143928 0.0215533 0.193694)
(0.0177652 0.0213812 0.195414)
(0.0212507 0.0212509 0.197597)
(0.0248693 0.021158 0.200275)
(0.0286138 0.021109 0.203486)
(0.0325247 0.0213412 0.207278)
(0.00157361 0.0266797 0.194571)
(0.00474103 0.0263377 0.194488)
(0.00790921 0.0259346 0.194801)
(0.0111145 0.025589 0.195524)
(0.0143772 0.0252995 0.196666)
(0.0177181 0.0250616 0.198242)
(0.0211579 0.0248694 0.200274)
(0.0247152 0.0247154 0.20279)
(0.0283796 0.0246036 0.205825)
(0.0322099 0.0248051 0.209425)
(0.00158325 0.0309437 0.198753)
(0.00476803 0.0305237 0.198508)
(0.00794244 0.0300246 0.198661)
(0.0111458 0.0295864 0.199225)
(0.0143958 0.0292084 0.200207)
(0.0177112 0.0288864 0.201621)
(0.021109 0.0286136 0.203486)
(0.0246035 0.0283796 0.205825)
(0.0281801 0.0281802 0.20867)
(0.0319334 0.0283116 0.212066)
(0.00162029 0.0354256 0.203683)
(0.00486665 0.0349223 0.20324)
(0.0080921 0.0343171 0.203199)
(0.0113362 0.0337745 0.203574)
(0.0146152 0.0332977 0.204371)
(0.017946 0.0328832 0.205601)
(0.0213413 0.0325245 0.207278)
(0.0248051 0.0322098 0.209425)
(0.0283116 0.0319334 0.212066)
(0.0319215 0.0319216 0.215249)
(0.00199462 0.00199472 0.167923)
(0.00601085 0.00197611 0.168264)
(0.0100927 0.00195549 0.168955)
(0.0142852 0.00194183 0.170008)
(0.0186401 0.00193518 0.171444)
(0.0232082 0.00193549 0.17329)
(0.028042 0.00194285 0.175586)
(0.0331952 0.00195754 0.178385)
(0.0387174 0.00198125 0.181758)
(0.044645 0.00204633 0.185801)
(0.00197602 0.00601096 0.168264)
(0.00595526 0.00595544 0.168585)
(0.00999625 0.00589388 0.169245)
(0.0141424 0.00585309 0.170256)
(0.0184429 0.00583317 0.171637)
(0.0229461 0.00583376 0.173414)
(0.0277026 0.00585472 0.175623)
(0.0327636 0.0058963 0.178315)
(0.0381751 0.00596212 0.181555)
(0.0439781 0.00613441 0.185428)
(0.00195547 0.0100926 0.168955)
(0.00589378 0.0099963 0.169245)
(0.00988835 0.00988849 0.169866)
(0.0139819 0.00981356 0.170828)
(0.0182205 0.00977172 0.172149)
(0.02265 0.00976253 0.173854)
(0.0273183 0.00978557 0.175977)
(0.0322741 0.00984084 0.178564)
(0.0375573 0.00993355 0.181676)
(0.043213 0.0101968 0.185391)
(0.00194186 0.014285 0.170008)
(0.00585312 0.0141422 0.170256)
(0.0098135 0.0139819 0.170828)
(0.0138661 0.0138662 0.171734)
(0.0180542 0.013795 0.17299)
(0.0224212 0.0137677 0.17462)
(0.0270122 0.0137837 0.176656)
(0.0318732 0.0138428 0.17914)
(0.0370369 0.0139515 0.18213)
(0.0425549 0.0142917 0.185695)
(0.00193522 0.0186398 0.171444)
(0.00583326 0.0184426 0.171637)
(0.00977181 0.0182203 0.172149)
(0.0137949 0.0180542 0.17299)
(0.0179435 0.0179436 0.174176)
(0.0222587 0.0178872 0.175727)
(0.0267831 0.0178844 0.177673)
(0.0315598 0.0179346 0.180055)
(0.0366133 0.0180459 0.182924)
(0.0420076 0.0184486 0.186347)
(0.00193552 0.0232079 0.17329)
(0.00583385 0.0229459 0.173414)
(0.00976267 0.0226498 0.173854)
(0.0137678 0.0224211 0.17462)
(0.0178872 0.0222587 0.175726)
(0.0221604 0.0221606 0.177192)
(0.0266279 0.022125 0.179046)
(0.0313301 0.0221513 0.181323)
(0.036283 0.0222495 0.184074)
(0.0415682 0.0226986 0.187359)
(0.00194288 0.0280418 0.175586)
(0.00585481 0.0277023 0.175623)
(0.00978572 0.027318 0.175977)
(0.0137839 0.027012 0.176656)
(0.0178846 0.026783 0.177673)
(0.0221249 0.026628 0.179045)
(0.0265439 0.0265441 0.1808)
(0.0311799 0.0265294 0.18297)
(0.0360409 0.026595 0.185602)
(0.0412321 0.0270697 0.188751)
(0.00195756 0.033195 0.178385)
(0.00589638 0.0327634 0.178315)
(0.00984097 0.0322738 0.178564)
(0.013843 0.0318729 0.17914)
(0.0179348 0.0315595 0.180054)
(0.0221515 0.0313299 0.181323)
(0.0265292 0.0311799 0.18297)
(0.0311046 0.0311047 0.185026)
(0.0358789 0.0311128 0.187535)
(0.0409903 0.0315816 0.190547)
(0.00198127 0.0387172 0.181758)
(0.00596219 0.0381749 0.181555)
(0.00993365 0.0375571 0.181676)
(0.0139516 0.0370366 0.18213)
(0.0180461 0.036613 0.182924)
(0.0222497 0.0362826 0.184074)
(0.026595 0.0360405 0.185601)
(0.0311128 0.0358788 0.187535)
(0.0357974 0.0357975 0.189912)
(0.0408435 0.0362167 0.192783)
(0.00204635 0.0446449 0.1858)
(0.00613447 0.043978 0.185428)
(0.0101969 0.0432128 0.185391)
(0.0142919 0.0425547 0.185695)
(0.0184487 0.0420073 0.186347)
(0.0226987 0.0415679 0.187359)
(0.0270698 0.0412318 0.188751)
(0.0315817 0.0409901 0.190547)
(0.0362167 0.0408435 0.192783)
(0.0411155 0.0411155 0.195508)
(0.00225554 0.00225565 0.152298)
(0.00679849 0.00223499 0.152513)
(0.0114211 0.00221252 0.152948)
(0.0161792 0.00219856 0.153612)
(0.0211381 0.00219335 0.154517)
(0.0263655 0.00219712 0.155682)
(0.031936 0.00221047 0.157132)
(0.037933 0.0022344 0.158907)
(0.0444462 0.00227184 0.161061)
(0.0515669 0.00236529 0.163669)
(0.00223488 0.00679861 0.152513)
(0.00673672 0.00673692 0.152715)
(0.0113137 0.00666992 0.153131)
(0.0160197 0.00662826 0.153768)
(0.0209165 0.0066126 0.154638)
(0.0260688 0.00662334 0.155759)
(0.0315475 0.00666149 0.157154)
(0.0374321 0.00672908 0.15886)
(0.0438056 0.00683236 0.160926)
(0.0507624 0.00707796 0.163421)
(0.0022125 0.011421 0.152948)
(0.0066698 0.0113137 0.153131)
(0.011196 0.0111962 0.153522)
(0.0158441 0.011119 0.154128)
(0.0206723 0.0110831 0.15496)
(0.0257417 0.0110895 0.156035)
(0.0311196 0.0111393 0.157375)
(0.0368812 0.0112351 0.159015)
(0.0431003 0.0113856 0.160999)
(0.0498748 0.0117614 0.163392)
(0.0021986 0.0161789 0.153612)
(0.00662831 0.0160195 0.153768)
(0.0111189 0.0158441 0.154128)
(0.0157238 0.0157239 0.154698)
(0.0204981 0.0156597 0.155489)
(0.0254996 0.0156525 0.156516)
(0.0307921 0.0157039 0.157801)
(0.0364463 0.0158167 0.159376)
(0.0425261 0.0160016 0.161283)
(0.0491382 0.0164905 0.163581)
(0.00219339 0.0211378 0.154517)
(0.00661272 0.0209162 0.154638)
(0.0110833 0.0206721 0.15496)
(0.0156597 0.0204981 0.155489)
(0.0203943 0.0203944 0.156234)
(0.0253424 0.0203617 0.157211)
(0.0305645 0.0204016 0.15844)
(0.0361269 0.0205176 0.15995)
(0.0420825 0.020722 0.161783)
(0.0485562 0.0213081 0.163992)
(0.00219716 0.0263652 0.155682)
(0.00662345 0.0260684 0.155758)
(0.0110896 0.0257414 0.156035)
(0.0156527 0.0254994 0.156515)
(0.0203617 0.0253424 0.157211)
(0.02527 0.0252701 0.158134)
(0.0304356 0.0252838 0.159305)
(0.035921 0.025387 0.160751)
(0.0417675 0.0255943 0.162512)
(0.0481275 0.0262608 0.164636)
(0.0022105 0.0319357 0.157132)
(0.0066616 0.0315472 0.157154)
(0.0111395 0.0311193 0.157375)
(0.0157042 0.0307918 0.157801)
(0.0204019 0.0305642 0.15844)
(0.0252838 0.0304356 0.159305)
(0.0304058 0.0304061 0.160415)
(0.0358277 0.0304781 0.161796)
(0.0415796 0.0306681 0.163485)
(0.047851 0.0313946 0.165527)
(0.00223444 0.0379327 0.158907)
(0.00672918 0.0374317 0.15886)
(0.0112353 0.0368808 0.159015)
(0.015817 0.036446 0.159376)
(0.0205179 0.0361265 0.15995)
(0.0253872 0.0359207 0.160751)
(0.030478 0.0358277 0.161796)
(0.0358474 0.0358475 0.163109)
(0.041516 0.0359944 0.164725)
(0.0477234 0.0367502 0.166687)
(0.00227187 0.0444459 0.161061)
(0.00683245 0.0438053 0.160926)
(0.0113858 0.0431 0.160999)
(0.0160018 0.0425257 0.161283)
(0.0207223 0.042082 0.161783)
(0.0255946 0.041767 0.162512)
(0.0306681 0.0415792 0.163484)
(0.0359943 0.0415158 0.164725)
(0.0415837 0.0415837 0.166266)
(0.0477554 0.042328 0.168146)
(0.00236532 0.0515667 0.163669)
(0.00707803 0.0507621 0.163421)
(0.0117615 0.0498746 0.163392)
(0.0164907 0.0491379 0.163581)
(0.0213082 0.0485558 0.163992)
(0.026261 0.0481271 0.164636)
(0.0313947 0.0478506 0.165527)
(0.0367503 0.0477232 0.166687)
(0.042328 0.0477553 0.168145)
(0.0483717 0.0483717 0.169941)
(0.00238824 0.00238835 0.135256)
(0.0071981 0.00236624 0.135331)
(0.0120925 0.00234212 0.135479)
(0.0171313 0.00232697 0.135703)
(0.0223855 0.00232118 0.136002)
(0.0279311 0.00232522 0.136378)
(0.0338549 0.00234003 0.13683)
(0.0402585 0.00236723 0.137366)
(0.047259 0.00241058 0.137996)
(0.0549886 0.00251974 0.13874)
(0.00236613 0.00719822 0.13533)
(0.00713206 0.00713227 0.1354)
(0.0119778 0.00706043 0.135542)
(0.0169611 0.00701535 0.135755)
(0.0221492 0.00699809 0.136041)
(0.0276145 0.00700965 0.136401)
(0.0334394 0.00705197 0.136835)
(0.0397202 0.00712848 0.137349)
(0.0465655 0.00724731 0.137952)
(0.0541094 0.00753173 0.138662)
(0.0023421 0.0120923 0.135479)
(0.0070603 0.0119778 0.135541)
(0.0118519 0.0118521 0.135673)
(0.0167739 0.0117691 0.135874)
(0.0218896 0.0117306 0.136144)
(0.0272674 0.0117381 0.136485)
(0.0329856 0.0117944 0.136899)
(0.0391353 0.011904 0.13739)
(0.0458139 0.0120782 0.137967)
(0.0531587 0.012512 0.138647)
(0.00232702 0.017131 0.135703)
(0.0070154 0.0169609 0.135755)
(0.0117691 0.0167739 0.135874)
(0.0166455 0.0166456 0.136059)
(0.0217048 0.0165776 0.136312)
(0.0270119 0.016572 0.136632)
(0.0326411 0.0166322 0.137022)
(0.0386783 0.0167637 0.137488)
(0.0452092 0.0169795 0.138039)
(0.052382 0.0175447 0.138688)
(0.00232122 0.0223852 0.136002)
(0.00699821 0.0221489 0.136041)
(0.0117307 0.0218894 0.136144)
(0.0165776 0.0217048 0.136311)
(0.0215962 0.0215963 0.136543)
(0.0268488 0.0215657 0.13684)
(0.032406 0.0216171 0.137206)
(0.038349 0.0217565 0.137646)
(0.0447509 0.0219991 0.138167)
(0.0517826 0.0226794 0.138786)
(0.00232525 0.0279308 0.136378)
(0.00700977 0.0276141 0.136401)
(0.0117383 0.0272671 0.136485)
(0.0165722 0.0270117 0.136632)
(0.0215658 0.0268488 0.13684)
(0.0267794 0.0267795 0.137113)
(0.0322808 0.0268075 0.137453)
(0.0381471 0.0269395 0.137864)
(0.0444384 0.0271929 0.138356)
(0.0513604 0.0279726 0.138943)
(0.00234006 0.0338545 0.136831)
(0.00705208 0.033439 0.136835)
(0.0117945 0.0329852 0.136899)
(0.0166325 0.0326407 0.137022)
(0.0216173 0.0324057 0.137206)
(0.0268075 0.0322809 0.137452)
(0.0322686 0.0322689 0.137764)
(0.0380746 0.0323759 0.138146)
(0.044273 0.0326211 0.138608)
(0.051117 0.0334816 0.139162)
(0.00236726 0.0402581 0.137367)
(0.00712859 0.0397199 0.137349)
(0.0119042 0.0391349 0.13739)
(0.0167639 0.0386779 0.137489)
(0.0217568 0.0383486 0.137646)
(0.0269397 0.0381468 0.137863)
(0.0323758 0.0380746 0.138146)
(0.0381361 0.0381363 0.138498)
(0.0442569 0.0383492 0.138929)
(0.0510545 0.0392639 0.13945)
(0.00241061 0.0472586 0.137996)
(0.0072474 0.0465651 0.137952)
(0.0120783 0.0458136 0.137967)
(0.0169797 0.0452089 0.138039)
(0.0219994 0.0447505 0.138167)
(0.0271932 0.0444379 0.138356)
(0.0326211 0.0442725 0.138608)
(0.0383491 0.0442568 0.138929)
(0.0444019 0.044402 0.139328)
(0.051191 0.0453363 0.139816)
(0.00251976 0.0549883 0.13874)
(0.00753181 0.0541092 0.138662)
(0.0125121 0.0531584 0.138647)
(0.0175448 0.0523817 0.138688)
(0.0226796 0.0517822 0.138786)
(0.0279728 0.05136 0.138943)
(0.0334817 0.0511166 0.139162)
(0.0392639 0.0510543 0.13945)
(0.0453363 0.0511909 0.139815)
(0.0520196 0.0520196 0.140267)
(0.00238709 0.00238719 0.117744)
(0.00719194 0.00236411 0.117681)
(0.0120739 0.00233809 0.11755)
(0.0170875 0.00232011 0.117343)
(0.0222982 0.00231055 0.117047)
(0.027776 0.00230991 0.116641)
(0.0336022 0.00231912 0.116098)
(0.0398727 0.00233986 0.115383)
(0.0467003 0.00237579 0.114451)
(0.0542151 0.00247722 0.113246)
(0.002364 0.00719205 0.117681)
(0.00712308 0.00712328 0.117621)
(0.0119549 0.00704592 0.117495)
(0.0169122 0.00699262 0.117294)
(0.0220567 0.00696443 0.117006)
(0.0274553 0.00696239 0.116612)
(0.0331849 0.00698851 0.116086)
(0.0393368 0.00704636 0.115398)
(0.0460152 0.00714377 0.114504)
(0.0533525 0.0074049 0.113352)
(0.00233807 0.0120738 0.11755)
(0.0070458 0.0119549 0.117495)
(0.0118205 0.0118206 0.117373)
(0.0167142 0.0117247 0.117176)
(0.0217849 0.0116689 0.116894)
(0.0270961 0.0116548 0.116508)
(0.0327208 0.0116853 0.115995)
(0.0387454 0.0117651 0.115326)
(0.0452638 0.0119048 0.114462)
(0.0524116 0.0122999 0.113356)
(0.00232015 0.0170872 0.117343)
(0.00699266 0.016912 0.117294)
(0.0117247 0.0167141 0.117176)
(0.0165689 0.016569 0.116983)
(0.0215805 0.0164783 0.116704)
(0.0268195 0.0164441 0.116322)
(0.0323555 0.01647 0.115817)
(0.0382701 0.0165615 0.115161)
(0.0446463 0.0167308 0.114319)
(0.051631 0.017243 0.113247)
(0.00231059 0.0222979 0.117047)
(0.00696454 0.0220564 0.117006)
(0.011669 0.0217847 0.116893)
(0.0164783 0.0215805 0.116704)
(0.0214448 0.0214449 0.116426)
(0.0266264 0.02138 0.116047)
(0.0320892 0.0213897 0.115545)
(0.0379106 0.0214804 0.114896)
(0.0441617 0.0216657 0.114069)
(0.0510132 0.02228 0.113022)
(0.00230994 0.0277757 0.116641)
(0.0069625 0.027455 0.116612)
(0.0116549 0.0270958 0.116508)
(0.0164443 0.0268193 0.116322)
(0.02138 0.0266264 0.116046)
(0.0265182 0.0265184 0.115668)
(0.0319226 0.026499 0.115167)
(0.0376667 0.026575 0.114522)
(0.0438097 0.0267619 0.113703)
(0.0505581 0.027464 0.112674)
(0.00231915 0.0336018 0.116098)
(0.00698861 0.0331846 0.116087)
(0.0116854 0.0327205 0.115995)
(0.0164702 0.0323552 0.115817)
(0.0213899 0.032089 0.115545)
(0.0264989 0.0319227 0.115167)
(0.031859 0.0318592 0.114668)
(0.037541 0.0319052 0.114024)
(0.0435921 0.0320769 0.11321)
(0.0502677 0.0328505 0.112192)
(0.00233989 0.0398724 0.115383)
(0.00704645 0.0393365 0.115398)
(0.0117653 0.038745 0.115326)
(0.0165618 0.0382698 0.115161)
(0.0214807 0.0379102 0.114896)
(0.0265752 0.0376665 0.114522)
(0.0319051 0.0375409 0.114024)
(0.0375386 0.0375387 0.113381)
(0.0435123 0.0376749 0.11257)
(0.0501451 0.0384974 0.111559)
(0.00237581 0.0467 0.114451)
(0.00714385 0.046015 0.114504)
(0.0119049 0.0452635 0.114462)
(0.016731 0.044646 0.114319)
(0.0216659 0.0441614 0.114069)
(0.0267622 0.0438093 0.113703)
(0.032077 0.0435917 0.113209)
(0.0376748 0.0435122 0.112569)
(0.043581 0.043581 0.111761)
(0.0502079 0.044425 0.110755)
(0.00247724 0.0542149 0.113246)
(0.00740497 0.0533523 0.113353)
(0.0123 0.0524114 0.113356)
(0.0172431 0.0516307 0.113247)
(0.0222801 0.0510129 0.113022)
(0.0274642 0.0505578 0.112675)
(0.0328506 0.0502674 0.112192)
(0.0384975 0.0501449 0.111559)
(0.0444249 0.0502078 0.110755)
(0.0509483 0.0509484 0.109749)
(0.00226567 0.00226577 0.100679)
(0.00682112 0.00224215 0.100501)
(0.0114348 0.00221408 0.100138)
(0.0161474 0.00219185 0.0995751)
(0.0210076 0.00217572 0.0987869)
(0.0260663 0.00216594 0.0977377)
(0.0313805 0.00216308 0.0963779)
(0.0370163 0.00216824 0.0946415)
(0.0430477 0.00218394 0.0924406)
(0.0495542 0.00225389 0.0896592)
(0.00224206 0.00682123 0.100501)
(0.00675085 0.00675103 0.100334)
(0.0113145 0.00666771 0.0999858)
(0.0159723 0.00660202 0.0994419)
(0.0207701 0.00655463 0.0986797)
(0.0257565 0.00652601 0.0976659)
(0.0309859 0.00651729 0.0963545)
(0.0365211 0.00653072 0.0946843)
(0.0424307 0.00657153 0.0925741)
(0.0487979 0.0067472 0.0899174)
(0.00221405 0.0114348 0.100138)
(0.00666759 0.0113145 0.0999856)
(0.0111714 0.0111715 0.0996539)
(0.0157643 0.0110564 0.0991295)
(0.0204895 0.0109704 0.098391)
(0.0253928 0.0109141 0.0974079)
(0.0305262 0.0108892 0.0961376)
(0.0359492 0.0108985 0.0945233)
(0.0417234 0.0109484 0.0924898)
(0.0479359 0.0112085 0.0899398)
(0.00219188 0.0161472 0.0995751)
(0.00660203 0.0159721 0.0994418)
(0.0110564 0.0157643 0.0991293)
(0.0155947 0.0155948 0.098625)
(0.0202575 0.0154645 0.0979088)
(0.0250885 0.0153743 0.0969523)
(0.0301368 0.0153262 0.0957161)
(0.0354592 0.0153232 0.0941475)
(0.0411093 0.0153724 0.0921771)
(0.0471841 0.0157036 0.0897156)
(0.00217575 0.0210074 0.098787)
(0.0065547 0.0207699 0.0986797)
(0.0109704 0.0204894 0.0983909)
(0.0154644 0.0202575 0.0979087)
(0.0200749 0.020075 0.0972149)
(0.0248436 0.0199424 0.0962828)
(0.0298175 0.0198615 0.0950759)
(0.0350504 0.019836 0.0935453)
(0.0405871 0.0198735 0.0916268)
(0.0465444 0.0202631 0.0892386)
(0.00216596 0.026066 0.0977378)
(0.00652609 0.0257563 0.0976659)
(0.0109142 0.0253926 0.0974079)
(0.0153744 0.0250884 0.0969522)
(0.0199423 0.0248437 0.0962827)
(0.0246584 0.0246585 0.095375)
(0.0295676 0.0245345 0.0941951)
(0.0347214 0.0244751 0.0926972)
(0.0401554 0.0244888 0.0908219)
(0.0460157 0.0249245 0.0884946)
(0.00216311 0.0313803 0.096378)
(0.00651736 0.0309857 0.0963546)
(0.0108893 0.0305259 0.0961377)
(0.0153263 0.0301366 0.0957161)
(0.0198617 0.0298174 0.0950758)
(0.0245344 0.0295677 0.0941948)
(0.0293882 0.0293884 0.093042)
(0.0344724 0.0292825 0.0915745)
(0.0398137 0.0292587 0.0897368)
(0.0455973 0.0297262 0.0874606)
(0.00216827 0.0370161 0.0946417)
(0.00653078 0.0365209 0.0946845)
(0.0108986 0.035949 0.0945234)
(0.0153233 0.035459 0.0941476)
(0.0198362 0.0350502 0.0935453)
(0.0244752 0.0347212 0.0926969)
(0.0292823 0.0344724 0.0915742)
(0.0343054 0.0343056 0.0901377)
(0.0395629 0.0342281 0.0883355)
(0.0452893 0.0347084 0.0861041)
(0.00218396 0.0430475 0.0924407)
(0.00657158 0.0424306 0.0925743)
(0.0109485 0.0417233 0.0924899)
(0.0153726 0.0411091 0.0921772)
(0.0198736 0.0405869 0.0916269)
(0.0244889 0.0401551 0.0908219)
(0.0292587 0.0398136 0.0897367)
(0.034228 0.0395628 0.0883354)
(0.0394066 0.0394067 0.0865703)
(0.0451013 0.0398774 0.0843812)
(0.00225391 0.0495541 0.0896593)
(0.00674724 0.0487978 0.0899176)
(0.0112086 0.0479358 0.0899399)
(0.0157037 0.047184 0.0897157)
(0.0202632 0.0465443 0.0892387)
(0.0249246 0.0460155 0.0884947)
(0.0297263 0.0455972 0.0874607)
(0.0347084 0.0452893 0.0861041)
(0.0398773 0.0451013 0.0843811)
(0.0454476 0.0454477 0.0822303)
(0.00205442 0.00205449 0.0848228)
(0.00617853 0.00203094 0.0845688)
(0.0103356 0.00200118 0.0840507)
(0.0145474 0.00197446 0.0832518)
(0.0188401 0.00195078 0.0821433)
(0.0232379 0.00193007 0.0806838)
(0.0277646 0.00191235 0.0788166)
(0.0324432 0.00189781 0.0764662)
(0.0372921 0.00188737 0.0735325)
(0.0423173 0.00191351 0.0698843)
(0.00203086 0.00617863 0.0845686)
(0.00610866 0.00610881 0.0843298)
(0.0102173 0.0060207 0.0838336)
(0.0143778 0.00594187 0.0830638)
(0.0186149 0.00587243 0.0819941)
(0.0229517 0.00581202 0.0805859)
(0.0274111 0.00576045 0.0787869)
(0.0320158 0.00571794 0.0765269)
(0.0367827 0.00568614 0.0737136)
(0.0417227 0.00574474 0.0702263)