/*--------------------------------*- C++ -*----------------------------------*\
| =========                 |                                                 |
| \\      /  F ield         | foam-extend: Open Source CFD                    |
|  \\    /   O peration     | Version:     3.1                                |
|   \\  /    A nd           | Web:         http://www.extend-project.de       |
|    \\/     M anipulation  |                                                 |
\*---------------------------------------------------------------------------*/
FoamFile
{
    version     2.0;
    format      ascii;
    class       volScalarField::DimensionedInternalField;
    location    "0.0009";
    object      V0;
}
// * * * * * * * * * * * * * * * * * * * * * * * * * * * * * * * * * * * * * //

dimensions      [0 3 0 0 0 0 0];

value           nonuniform List<scalar> 
16000
(
7.19526e-11
7.06965e-11
6.9442e-11
6.81938e-11
6.6953e-11
6.57199e-11
6.4495e-11
6.32789e-11
6.20724e-11
6.08756e-11
7.06959e-11
6.94434e-11
6.81923e-11
6.69452e-11
6.57045e-11
6.4471e-11
6.32455e-11
6.20284e-11
6.08199e-11
5.96181e-11
6.94415e-11
6.81917e-11
6.69441e-11
6.56993e-11
6.44589e-11
6.32249e-11
6.19984e-11
6.07795e-11
5.95684e-11
5.83627e-11
6.81938e-11
6.69448e-11
6.56988e-11
6.44557e-11
6.3216e-11
6.19812e-11
6.0753e-11
5.95319e-11
5.83181e-11
5.7109e-11
6.69532e-11
6.57045e-11
6.44585e-11
6.32155e-11
6.19762e-11
6.07408e-11
5.95105e-11
5.82865e-11
5.70697e-11
5.58575e-11
6.572e-11
6.44712e-11
6.32249e-11
6.19808e-11
6.07403e-11
5.9504e-11
5.8272e-11
5.70448e-11
5.58239e-11
5.46082e-11
6.44952e-11
6.32457e-11
6.19986e-11
6.0753e-11
5.951e-11
5.82711e-11
5.7037e-11
5.58066e-11
5.45806e-11
5.33605e-11
6.32792e-11
6.20286e-11
6.07797e-11
5.95321e-11
5.82864e-11
5.70438e-11
5.58055e-11
5.45704e-11
5.33383e-11
5.21127e-11
6.20727e-11
6.08201e-11
5.95686e-11
5.83182e-11
5.70698e-11
5.58236e-11
5.458e-11
5.3338e-11
5.20974e-11
5.08613e-11
6.08758e-11
5.96183e-11
5.83629e-11
5.71091e-11
5.58575e-11
5.46083e-11
5.33606e-11
5.21125e-11
5.0861e-11
4.9609e-11
7.25124e-11
7.12367e-11
6.99546e-11
6.86802e-11
6.74154e-11
6.61594e-11
6.49112e-11
6.36697e-11
6.24331e-11
6.11973e-11
7.12349e-11
6.997e-11
6.86986e-11
6.74284e-11
6.6165e-11
6.49098e-11
6.36621e-11
6.24204e-11
6.11821e-11
5.99389e-11
6.99532e-11
6.86969e-11
6.74371e-11
6.61748e-11
6.49141e-11
6.36594e-11
6.24116e-11
6.11683e-11
5.99275e-11
5.86805e-11
6.86801e-11
6.74272e-11
6.61733e-11
6.4918e-11
6.36616e-11
6.24069e-11
6.1157e-11
5.99113e-11
5.86676e-11
5.74177e-11
6.74158e-11
6.61651e-11
6.4913e-11
6.36601e-11
6.2407e-11
6.11537e-11
5.9901e-11
5.86507e-11
5.7403e-11
5.61507e-11
6.61598e-11
6.49102e-11
6.36594e-11
6.24059e-11
6.11521e-11
5.98994e-11
5.86454e-11
5.73896e-11
5.61348e-11
5.48787e-11
6.49117e-11
6.36626e-11
6.2412e-11
6.1157e-11
5.98996e-11
5.86428e-11
5.73868e-11
5.61263e-11
5.48616e-11
5.35995e-11
6.36703e-11
6.24209e-11
6.11688e-11
5.99116e-11
5.86504e-11
5.73869e-11
5.61234e-11
5.48547e-11
5.35793e-11
5.23089e-11
6.24337e-11
6.11826e-11
5.9928e-11
5.8668e-11
5.74033e-11
5.61342e-11
5.48603e-11
5.35784e-11
5.22875e-11
5.09987e-11
6.11978e-11
5.99393e-11
5.86809e-11
5.74181e-11
5.6151e-11
5.4879e-11
5.35998e-11
5.23085e-11
5.09979e-11
4.96808e-11
7.29634e-11
7.16696e-11
7.03613e-11
6.90603e-11
6.77698e-11
6.64879e-11
6.52129e-11
6.39426e-11
6.2674e-11
6.14007e-11
7.16668e-11
7.03901e-11
6.90989e-11
6.7805e-11
6.65173e-11
6.52375e-11
6.39642e-11
6.26947e-11
6.14251e-11
6.01427e-11
7.0359e-11
6.90961e-11
6.78236e-11
6.65428e-11
6.52601e-11
6.39822e-11
6.271e-11
6.14398e-11
6.01684e-11
5.88826e-11
6.90601e-11
6.78032e-11
6.65404e-11
6.52715e-11
6.39966e-11
6.272e-11
6.14463e-11
6.01741e-11
5.89004e-11
5.76132e-11
6.77704e-11
6.65174e-11
6.52585e-11
6.39944e-11
6.27261e-11
6.14531e-11
6.01768e-11
5.88996e-11
5.76222e-11
5.63339e-11
6.64886e-11
6.52382e-11
6.39822e-11
6.27185e-11
6.14507e-11
6.01806e-11
5.89043e-11
5.76208e-11
5.63348e-11
5.50437e-11
6.52137e-11
6.39649e-11
6.27106e-11
6.14464e-11
6.01746e-11
5.89002e-11
5.7623e-11
5.63348e-11
5.50365e-11
5.37391e-11
6.39435e-11
6.26955e-11
6.14405e-11
6.01747e-11
5.88993e-11
5.76168e-11
5.63304e-11
5.50325e-11
5.37208e-11
5.24143e-11
6.26749e-11
6.14259e-11
6.01691e-11
5.8901e-11
5.76227e-11
5.6334e-11
5.50345e-11
5.37195e-11
5.23875e-11
5.10566e-11
6.14015e-11
6.01434e-11
5.88833e-11
5.76137e-11
5.63344e-11
5.50442e-11
5.37397e-11
5.24139e-11
5.10554e-11
4.96849e-11
7.32808e-11
7.19725e-11
7.06425e-11
6.93188e-11
6.80057e-11
6.6701e-11
6.54031e-11
6.41097e-11
6.28183e-11
6.15222e-11
7.1969e-11
7.06826e-11
6.93745e-11
6.80602e-11
6.67511e-11
6.54497e-11
6.41545e-11
6.28629e-11
6.15711e-11
6.02646e-11
7.06397e-11
6.93711e-11
6.80871e-11
6.679e-11
6.5488e-11
6.419e-11
6.28972e-11
6.16059e-11
6.03131e-11
5.90038e-11
6.93187e-11
6.80579e-11
6.6787e-11
6.55058e-11
6.42148e-11
6.29195e-11
6.16262e-11
6.0334e-11
5.90398e-11
5.77304e-11
6.80065e-11
6.67512e-11
6.5486e-11
6.42119e-11
6.29305e-11
6.16412e-11
6.03463e-11
5.90496e-11
5.77526e-11
5.64439e-11
6.6702e-11
6.54505e-11
6.419e-11
6.29176e-11
6.16382e-11
6.03542e-11
5.90613e-11
5.77586e-11
5.64532e-11
5.51431e-11
6.54041e-11
6.41555e-11
6.2898e-11
6.16263e-11
6.03437e-11
5.90562e-11
5.77643e-11
5.64581e-11
5.51396e-11
5.38242e-11
6.41109e-11
6.2864e-11
6.16068e-11
6.03347e-11
5.90492e-11
5.77537e-11
5.64526e-11
5.51367e-11
5.38044e-11
5.24802e-11
6.28194e-11
6.15721e-11
6.0314e-11
5.90406e-11
5.77534e-11
5.64522e-11
5.51372e-11
5.38027e-11
5.24478e-11
5.10955e-11
6.15232e-11
6.02656e-11
5.90047e-11
5.77312e-11
5.64446e-11
5.51439e-11
5.3825e-11
5.24797e-11
5.10939e-11
4.96936e-11
7.34571e-11
7.2139e-11
7.07938e-11
6.94533e-11
6.81229e-11
6.68007e-11
6.54852e-11
6.4175e-11
6.28682e-11
6.15587e-11
7.21351e-11
7.08417e-11
6.95212e-11
6.81917e-11
6.68661e-11
6.55479e-11
6.42359e-11
6.29282e-11
6.16215e-11
6.03015e-11
7.07906e-11
6.95174e-11
6.82245e-11
6.69148e-11
6.55979e-11
6.42842e-11
6.29759e-11
6.16693e-11
6.03624e-11
5.90404e-11
6.94532e-11
6.81891e-11
6.69114e-11
6.56204e-11
6.43167e-11
6.30073e-11
6.16995e-11
6.03931e-11
5.9086e-11
5.77651e-11
6.81238e-11
6.68663e-11
6.55957e-11
6.43135e-11
6.30218e-11
6.17205e-11
6.04124e-11
5.91026e-11
5.77938e-11
5.64751e-11
6.68017e-11
6.55488e-11
6.42843e-11
6.30052e-11
6.17172e-11
6.04232e-11
5.9119e-11
5.78044e-11
5.64879e-11
5.51697e-11
6.54864e-11
6.4237e-11
6.29768e-11
6.16997e-11
6.04095e-11
5.91134e-11
5.78122e-11
5.64957e-11
5.51669e-11
5.38449e-11
6.41764e-11
6.29294e-11
6.16704e-11
6.0394e-11
5.91022e-11
5.7799e-11
5.64897e-11
5.5165e-11
5.38234e-11
5.24939e-11
6.28695e-11
6.16227e-11
6.03635e-11
5.90869e-11
5.77946e-11
5.64869e-11
5.51644e-11
5.38216e-11
5.24581e-11
5.11006e-11
6.15599e-11
6.03026e-11
5.90414e-11
5.7766e-11
5.6476e-11
5.51706e-11
5.38458e-11
5.24934e-11
5.10989e-11
4.96914e-11
7.34999e-11
7.2177e-11
7.08235e-11
6.94727e-11
6.81306e-11
6.67958e-11
6.54674e-11
6.41446e-11
6.28262e-11
6.15069e-11
7.2173e-11
7.08754e-11
6.95475e-11
6.82082e-11
6.68714e-11
6.5541e-11
6.42164e-11
6.28964e-11
6.15784e-11
6.02499e-11
7.08202e-11
6.95436e-11
6.82443e-11
6.69259e-11
6.55987e-11
6.42737e-11
6.29535e-11
6.16354e-11
6.03181e-11
5.89887e-11
6.94725e-11
6.82056e-11
6.69226e-11
6.5624e-11
6.43113e-11
6.29916e-11
6.16732e-11
6.03564e-11
5.90399e-11
5.7713e-11
6.81315e-11
6.68715e-11
6.55965e-11
6.43081e-11
6.30086e-11
6.16985e-11
6.03812e-11
5.90623e-11
5.77453e-11
5.64224e-11
6.67969e-11
6.5542e-11
6.42737e-11
6.29895e-11
6.16952e-11
6.03941e-11
5.90822e-11
5.77601e-11
5.64371e-11
5.51164e-11
6.54686e-11
6.42176e-11
6.29545e-11
6.16734e-11
6.03783e-11
5.90766e-11
5.77695e-11
5.64475e-11
5.51143e-11
5.3792e-11
6.4146e-11
6.28976e-11
6.16365e-11
6.03573e-11
5.9062e-11
5.77549e-11
5.64416e-11
5.51139e-11
5.37706e-11
5.24434e-11
6.28276e-11
6.15797e-11
6.03192e-11
5.90409e-11
5.77462e-11
5.64361e-11
5.51117e-11
5.37688e-11
5.24073e-11
5.1057e-11
6.15081e-11
6.0251e-11
5.89898e-11
5.77139e-11
5.64233e-11
5.51173e-11
5.37929e-11
5.24429e-11
5.10553e-11
4.966e-11
7.34302e-11
7.21068e-11
7.07513e-11
6.93963e-11
6.8048e-11
6.67054e-11
6.53682e-11
6.40361e-11
6.27088e-11
6.13818e-11
7.21029e-11
7.08039e-11
6.94732e-11
6.81294e-11
6.67863e-11
6.54481e-11
6.41148e-11
6.27855e-11
6.1459e-11
6.0125e-11
7.07482e-11
6.94695e-11
6.81665e-11
6.68433e-11
6.551e-11
6.41777e-11
6.28491e-11
6.15225e-11
6.01974e-11
5.88641e-11
6.93961e-11
6.81269e-11
6.68401e-11
6.55366e-11
6.4218e-11
6.28919e-11
6.15661e-11
6.02418e-11
5.89185e-11
5.75891e-11
6.80488e-11
6.67865e-11
6.55079e-11
6.42151e-11
6.29103e-11
6.15945e-11
6.02712e-11
5.89464e-11
5.76239e-11
5.63e-11
6.67064e-11
6.54491e-11
6.41777e-11
6.28899e-11
6.15914e-11
6.02854e-11
5.89689e-11
5.76427e-11
5.63163e-11
5.49968e-11
6.53693e-11
6.41158e-11
6.285e-11
6.15663e-11
6.02685e-11
5.89638e-11
5.76534e-11
5.63294e-11
5.4996e-11
5.36776e-11
6.40374e-11
6.27867e-11
6.15235e-11
6.02427e-11
5.89461e-11
5.7638e-11
5.63241e-11
5.49978e-11
5.36582e-11
5.23384e-11
6.27101e-11
6.14602e-11
6.01984e-11
5.89195e-11
5.76247e-11
5.63154e-11
5.49935e-11
5.36564e-11
5.23047e-11
5.09697e-11
6.1383e-11
6.01261e-11
5.8865e-11
5.759e-11
5.63009e-11
5.49976e-11
5.36782e-11
5.23378e-11
5.09683e-11
4.95986e-11
7.32778e-11
7.19576e-11
7.06056e-11
6.92518e-11
6.79024e-11
6.65569e-11
6.52154e-11
6.38783e-11
6.25459e-11
6.12148e-11
7.19541e-11
7.0656e-11
6.93266e-11
6.79832e-11
6.66387e-11
6.52974e-11
6.39595e-11
6.26251e-11
6.12938e-11
5.99583e-11
7.06027e-11
6.93232e-11
6.80193e-11
6.66949e-11
6.536e-11
6.40245e-11
6.26916e-11
6.13604e-11
6.00312e-11
5.86978e-11
6.92516e-11
6.79809e-11
6.6692e-11
6.53863e-11
6.40655e-11
6.27367e-11
6.14075e-11
6.00794e-11
5.87529e-11
5.74247e-11
6.79031e-11
6.66388e-11
6.53581e-11
6.40629e-11
6.27556e-11
6.14374e-11
6.01118e-11
5.87847e-11
5.74603e-11
5.6139e-11
6.65577e-11
6.52981e-11
6.40245e-11
6.2735e-11
6.14347e-11
6.01267e-11
5.88087e-11
5.74822e-11
5.61561e-11
5.4841e-11
6.52164e-11
6.39604e-11
6.26924e-11
6.14076e-11
6.01095e-11
5.88044e-11
5.74937e-11
5.61713e-11
5.48416e-11
5.35301e-11
6.38794e-11
6.26261e-11
6.13613e-11
6.00802e-11
5.87846e-11
5.74783e-11
5.61668e-11
5.48455e-11
5.35139e-11
5.22045e-11
6.2547e-11
6.12948e-11
6.00321e-11
5.87537e-11
5.7461e-11
5.61554e-11
5.48393e-11
5.35123e-11
5.2175e-11
5.0859e-11
6.12159e-11
5.99593e-11
5.86987e-11
5.74255e-11
5.61396e-11
5.48415e-11
5.35304e-11
5.22039e-11
5.08579e-11
4.95188e-11
7.30764e-11
7.17621e-11
7.04178e-11
6.90698e-11
6.7724e-11
6.63805e-11
6.50399e-11
6.37029e-11
6.23705e-11
6.10406e-11
7.17591e-11
7.04639e-11
6.91391e-11
6.78004e-11
6.64591e-11
6.51195e-11
6.3782e-11
6.24476e-11
6.11166e-11
5.97845e-11
7.04152e-11
6.91362e-11
6.78339e-11
6.6512e-11
6.51796e-11
6.38456e-11
6.25132e-11
6.11821e-11
5.98537e-11
5.85248e-11
6.90695e-11
6.77983e-11
6.65095e-11
6.52044e-11
6.38851e-11
6.25579e-11
6.12297e-11
5.99025e-11
5.85774e-11
5.72543e-11
6.77245e-11
6.64591e-11
6.51779e-11
6.38828e-11
6.25762e-11
6.12592e-11
5.99356e-11
5.86107e-11
5.72886e-11
5.59731e-11
6.63812e-11
6.512e-11
6.38456e-11
6.25564e-11
6.1257e-11
5.99501e-11
5.86345e-11
5.73118e-11
5.59901e-11
5.46819e-11
6.50407e-11
6.37828e-11
6.25138e-11
6.12297e-11
5.99337e-11
5.8631e-11
5.73232e-11
5.6006e-11
5.46837e-11
5.33811e-11
6.37038e-11
6.24484e-11
6.11828e-11
5.99031e-11
5.86105e-11
5.73087e-11
5.60024e-11
5.4689e-11
5.33683e-11
5.20703e-11
6.23714e-11
6.11174e-11
5.98545e-11
5.8578e-11
5.72892e-11
5.59895e-11
5.46818e-11
5.33669e-11
5.20459e-11
5.0748e-11
6.10414e-11
5.97852e-11
5.85255e-11
5.72549e-11
5.59736e-11
5.46823e-11
5.33811e-11
5.20697e-11
5.07471e-11
4.94359e-11
7.28573e-11
7.15505e-11
7.02166e-11
6.88779e-11
6.75398e-11
6.62029e-11
6.4868e-11
6.35363e-11
6.22093e-11
6.08855e-11
7.1548e-11
7.02572e-11
6.89397e-11
6.76089e-11
6.62748e-11
6.49412e-11
6.36092e-11
6.22798e-11
6.09542e-11
5.963e-11
7.02145e-11
6.89373e-11
6.76387e-11
6.63224e-11
6.49962e-11
6.36679e-11
6.23406e-11
6.10147e-11
5.9692e-11
5.83715e-11
6.88776e-11
6.76071e-11
6.63203e-11
6.50185e-11
6.3704e-11
6.23823e-11
6.10594e-11
5.97377e-11
5.84187e-11
5.71041e-11
6.75402e-11
6.62747e-11
6.49947e-11
6.37021e-11
6.23991e-11
6.10869e-11
5.97691e-11
5.84505e-11
5.7135e-11
5.5828e-11
6.62033e-11
6.49416e-11
6.36678e-11
6.2381e-11
6.10851e-11
5.97825e-11
5.84726e-11
5.71572e-11
5.58435e-11
5.45441e-11
6.48685e-11
6.36096e-11
6.2341e-11
6.10594e-11
5.97676e-11
5.84699e-11
5.71678e-11
5.58586e-11
5.45464e-11
5.32533e-11
6.35369e-11
6.22803e-11
6.10152e-11
5.97381e-11
5.84504e-11
5.71549e-11
5.58558e-11
5.4552e-11
5.32435e-11
5.19561e-11
6.22099e-11
6.09548e-11
5.96925e-11
5.84191e-11
5.71354e-11
5.58431e-11
5.45448e-11
5.32423e-11
5.19367e-11
5.06531e-11
6.08861e-11
5.96306e-11
5.83719e-11
5.71045e-11
5.58283e-11
5.45442e-11
5.32531e-11
5.19556e-11
5.06525e-11
4.93621e-11
7.26449e-11
7.13463e-11
7.00241e-11
6.86968e-11
6.73691e-11
6.60419e-11
6.47165e-11
6.3394e-11
6.20763e-11
6.07626e-11
7.13443e-11
7.00587e-11
6.87498e-11
6.74291e-11
6.61048e-11
6.47806e-11
6.34577e-11
6.21374e-11
6.08211e-11
5.95078e-11
7.00223e-11
6.87479e-11
6.74546e-11
6.6146e-11
6.48286e-11
6.35092e-11
6.21906e-11
6.08736e-11
5.95602e-11
5.82504e-11
6.86964e-11
6.74276e-11
6.61443e-11
6.4848e-11
6.35407e-11
6.22273e-11
6.09131e-11
5.96002e-11
5.82904e-11
5.69861e-11
6.73693e-11
6.61047e-11
6.48275e-11
6.35392e-11
6.2242e-11
6.09372e-11
5.96279e-11
5.83185e-11
5.70124e-11
5.5715e-11
6.60422e-11
6.47809e-11
6.35091e-11
6.22263e-11
6.09357e-11
5.96396e-11
5.83377e-11
5.7032e-11
5.57283e-11
5.4438e-11
6.47168e-11
6.3458e-11
6.21908e-11
6.0913e-11
5.96267e-11
5.83356e-11
5.7041e-11
5.57414e-11
5.44403e-11
5.31561e-11
6.33944e-11
6.21377e-11
6.08739e-11
5.96005e-11
5.83184e-11
5.70302e-11
5.57393e-11
5.44454e-11
5.31487e-11
5.18701e-11
6.20767e-11
6.08215e-11
5.95605e-11
5.82907e-11
5.70127e-11
5.5728e-11
5.4439e-11
5.31477e-11
5.18549e-11
5.05812e-11
6.07629e-11
5.95081e-11
5.82507e-11
5.69863e-11
5.57152e-11
5.4438e-11
5.31558e-11
5.18696e-11
5.05807e-11
4.9303e-11
7.24544e-11
7.11638e-11
6.98534e-11
6.8538e-11
6.7222e-11
6.59063e-11
6.45922e-11
6.3281e-11
6.19745e-11
6.06721e-11
7.11622e-11
6.98821e-11
6.85824e-11
6.72724e-11
6.59593e-11
6.46461e-11
6.33342e-11
6.20249e-11
6.07197e-11
5.9418e-11
6.98519e-11
6.85808e-11
6.72937e-11
6.59937e-11
6.46864e-11
6.33775e-11
6.20693e-11
6.07631e-11
5.94604e-11
5.81619e-11
6.85378e-11
6.72712e-11
6.59924e-11
6.47026e-11
6.34038e-11
6.21002e-11
6.07961e-11
5.94935e-11
5.81942e-11
5.69004e-11
6.72221e-11
6.59591e-11
6.46855e-11
6.34026e-11
6.21124e-11
6.08162e-11
5.95167e-11
5.82175e-11
5.69216e-11
5.56337e-11
6.59065e-11
6.46462e-11
6.33773e-11
6.20993e-11
6.0815e-11
5.95263e-11
5.82333e-11
5.69377e-11
5.56444e-11
5.43624e-11
6.45924e-11
6.33343e-11
6.20694e-11
6.0796e-11
5.95157e-11
5.82317e-11
5.69451e-11
5.5655e-11
5.43644e-11
5.30877e-11
6.32813e-11
6.20251e-11
6.07632e-11
5.94937e-11
5.82174e-11
5.69364e-11
5.56534e-11
5.43685e-11
5.3082e-11
5.18101e-11
6.19747e-11
6.07199e-11
5.94606e-11
5.81944e-11
5.69218e-11
5.56441e-11
5.43634e-11
5.30812e-11
5.17984e-11
5.05305e-11
6.06723e-11
5.94182e-11
5.8162e-11
5.69005e-11
5.56337e-11
5.43624e-11
5.30874e-11
5.18097e-11
5.05301e-11
4.92591e-11
7.22925e-11
7.10093e-11
6.97097e-11
6.84058e-11
6.71013e-11
6.57971e-11
6.44944e-11
6.31946e-11
6.18991e-11
6.06075e-11
7.1008e-11
6.9733e-11
6.8442e-11
6.71425e-11
6.58404e-11
6.45383e-11
6.32375e-11
6.19393e-11
6.0645e-11
5.93541e-11
6.97085e-11
6.84407e-11
6.71599e-11
6.58685e-11
6.45712e-11
6.32727e-11
6.19751e-11
6.06795e-11
5.93874e-11
5.8099e-11
6.84056e-11
6.71416e-11
6.58674e-11
6.45843e-11
6.32941e-11
6.20002e-11
6.07061e-11
5.94137e-11
5.81244e-11
5.68398e-11
6.71013e-11
6.58402e-11
6.45704e-11
6.32932e-11
6.20101e-11
6.07223e-11
5.94322e-11
5.81428e-11
5.68564e-11
5.55766e-11
6.57971e-11
6.45384e-11
6.32726e-11
6.19995e-11
6.07214e-11
5.94399e-11
5.81553e-11
5.68691e-11
5.5585e-11
5.431e-11
6.44945e-11
6.32376e-11
6.19752e-11
6.0706e-11
5.94315e-11
5.81541e-11
5.68749e-11
5.55932e-11
5.43115e-11
5.30406e-11
6.31947e-11
6.19394e-11
6.06796e-11
5.94138e-11
5.81427e-11
5.6868e-11
5.55919e-11
5.43145e-11
5.30361e-11
5.17689e-11
6.18992e-11
6.06451e-11
5.93875e-11
5.81244e-11
5.68565e-11
5.55848e-11
5.43107e-11
5.30355e-11
5.17598e-11
5.04953e-11
6.06076e-11
5.93541e-11
5.80991e-11
5.68399e-11
5.55766e-11
5.43099e-11
5.30404e-11
5.17686e-11
5.0495e-11
4.92274e-11
7.21596e-11
7.08826e-11
6.95925e-11
6.82988e-11
6.70046e-11
6.57108e-11
6.44185e-11
6.31288e-11
6.18428e-11
6.05604e-11
7.08816e-11
6.96112e-11
6.83279e-11
6.70378e-11
6.57456e-11
6.44536e-11
6.31628e-11
6.18744e-11
6.05895e-11
5.93074e-11
6.95916e-11
6.83269e-11
6.70517e-11
6.57681e-11
6.44799e-11
6.31908e-11
6.19027e-11
6.06165e-11
5.93333e-11
5.80533e-11
6.82986e-11
6.70371e-11
6.57673e-11
6.44904e-11
6.32079e-11
6.19226e-11
6.06374e-11
5.93538e-11
5.80729e-11
5.67958e-11
6.70046e-11
6.57455e-11
6.44793e-11
6.32072e-11
6.19304e-11
6.06502e-11
5.93683e-11
5.80872e-11
5.68087e-11
5.55353e-11
6.57109e-11
6.44536e-11
6.31907e-11
6.1922e-11
6.06495e-11
5.93744e-11
5.80969e-11
5.68184e-11
5.55418e-11
5.42721e-11
6.44186e-11
6.31629e-11
6.19028e-11
6.06373e-11
5.93677e-11
5.80959e-11
5.68229e-11
5.5548e-11
5.42732e-11
5.30066e-11
6.31289e-11
6.18745e-11
6.06166e-11
5.93539e-11
5.80871e-11
5.68175e-11
5.5547e-11
5.42754e-11
5.3003e-11
5.17392e-11
6.18429e-11
6.05895e-11
5.93334e-11
5.8073e-11
5.68088e-11
5.55416e-11
5.42725e-11
5.30025e-11
5.1732e-11
5.04696e-11
6.05604e-11
5.93075e-11
5.80533e-11
5.67958e-11
5.55353e-11
5.4272e-11
5.30065e-11
5.17389e-11
5.04693e-11
4.92038e-11
7.20524e-11
7.07807e-11
6.94983e-11
6.82132e-11
6.69277e-11
6.56427e-11
6.4359e-11
6.30775e-11
6.17992e-11
6.05237e-11
7.07799e-11
6.95133e-11
6.82365e-11
6.69543e-11
6.56704e-11
6.43868e-11
6.31044e-11
6.1824e-11
6.05464e-11
5.92712e-11
6.94976e-11
6.82357e-11
6.69654e-11
6.56884e-11
6.44077e-11
6.31265e-11
6.18463e-11
6.05676e-11
5.92915e-11
5.80177e-11
6.82131e-11
6.69537e-11
6.56877e-11
6.44161e-11
6.31401e-11
6.18619e-11
6.0584e-11
5.93074e-11
5.80331e-11
5.67617e-11
6.69278e-11
6.56703e-11
6.44072e-11
6.31395e-11
6.18681e-11
6.0594e-11
5.93187e-11
5.80441e-11
5.67717e-11
5.55031e-11
6.56427e-11
6.43868e-11
6.31264e-11
6.18615e-11
6.05934e-11
5.93235e-11
5.80517e-11
5.67792e-11
5.55082e-11
5.42424e-11
6.4359e-11
6.31044e-11
6.18463e-11
6.05839e-11
5.93182e-11
5.80509e-11
5.67827e-11
5.55129e-11
5.42433e-11
5.29799e-11
6.30776e-11
6.1824e-11
6.05676e-11
5.93075e-11
5.8044e-11
5.67785e-11
5.55121e-11
5.42449e-11
5.2977e-11
5.17155e-11
6.17992e-11
6.05465e-11
5.92915e-11
5.80331e-11
5.67718e-11
5.5508e-11
5.42428e-11
5.29766e-11
5.17098e-11
5.04491e-11
6.05237e-11
5.92712e-11
5.80178e-11
5.67617e-11
5.55031e-11
5.42424e-11
5.29798e-11
5.17153e-11
5.04489e-11
4.91853e-11
7.19664e-11
7.06989e-11
6.94229e-11
6.81447e-11
6.68663e-11
6.55882e-11
6.43113e-11
6.30363e-11
6.17637e-11
6.04934e-11
7.06982e-11
6.94349e-11
6.81633e-11
6.68874e-11
6.56103e-11
6.43334e-11
6.30576e-11
6.17834e-11
6.05115e-11
5.92413e-11
6.94223e-11
6.81627e-11
6.68963e-11
6.56246e-11
6.43501e-11
6.30751e-11
6.1801e-11
6.05282e-11
5.92574e-11
5.79884e-11
6.81446e-11
6.68869e-11
6.56241e-11
6.43567e-11
6.30859e-11
6.18134e-11
6.05411e-11
5.927e-11
5.80006e-11
5.67334e-11
6.68663e-11
6.56102e-11
6.43497e-11
6.30854e-11
6.18183e-11
6.05491e-11
5.92789e-11
5.80092e-11
5.67413e-11
5.54763e-11
6.55883e-11
6.43335e-11
6.30751e-11
6.1813e-11
6.05486e-11
5.92826e-11
5.80152e-11
5.67472e-11
5.54803e-11
5.42175e-11
6.43114e-11
6.30576e-11
6.1801e-11
6.0541e-11
5.92785e-11
5.80146e-11
5.67499e-11
5.54841e-11
5.42182e-11
5.29572e-11
6.30363e-11
6.17834e-11
6.05282e-11
5.927e-11
5.80092e-11
5.67466e-11
5.54834e-11
5.42195e-11
5.29548e-11
5.16953e-11
6.17638e-11
6.05115e-11
5.92574e-11
5.80006e-11
5.67414e-11
5.54802e-11
5.42178e-11
5.29545e-11
5.16907e-11
5.04316e-11
6.04935e-11
5.92413e-11
5.79884e-11
5.67334e-11
5.54763e-11
5.42175e-11
5.29571e-11
5.16951e-11
5.04314e-11
4.91698e-11
7.18972e-11
7.0633e-11
6.93621e-11
6.80894e-11
6.68165e-11
6.5544e-11
6.42724e-11
6.30022e-11
6.1734e-11
6.04676e-11
7.06325e-11
6.93717e-11
6.81043e-11
6.68334e-11
6.55616e-11
6.42901e-11
6.30193e-11
6.17498e-11
6.04821e-11
5.92157e-11
6.93616e-11
6.81038e-11
6.68406e-11
6.55731e-11
6.43034e-11
6.30333e-11
6.17639e-11
6.04955e-11
5.92287e-11
5.79633e-11
6.80893e-11
6.68331e-11
6.55727e-11
6.43087e-11
6.30419e-11
6.17738e-11
6.05059e-11
5.92388e-11
5.79731e-11
5.67091e-11
6.68166e-11
6.55616e-11
6.43031e-11
6.30415e-11
6.17777e-11
6.05122e-11
5.92459e-11
5.79801e-11
5.67155e-11
5.54532e-11
6.5544e-11
6.42901e-11
6.30333e-11
6.17735e-11
6.05118e-11
5.92489e-11
5.79849e-11
5.67202e-11
5.54565e-11
5.4196e-11
6.42724e-11
6.30193e-11
6.17639e-11
6.05058e-11
5.92456e-11
5.79843e-11
5.67224e-11
5.54595e-11
5.41965e-11
5.29374e-11
6.30023e-11
6.17498e-11
6.04956e-11
5.92388e-11
5.798e-11
5.67198e-11
5.5459e-11
5.41975e-11
5.29355e-11
5.16775e-11
6.17341e-11
6.04821e-11
5.92287e-11
5.79731e-11
5.67156e-11
5.54564e-11
5.41962e-11
5.29352e-11
5.16738e-11
5.04162e-11
6.04676e-11
5.92158e-11
5.79633e-11
5.67091e-11
5.54532e-11
5.41959e-11
5.29373e-11
5.16774e-11
5.0416e-11
4.91564e-11
7.18412e-11
7.05797e-11
6.93127e-11
6.80444e-11
6.67759e-11
6.55076e-11
6.42401e-11
6.29737e-11
6.17089e-11
6.04454e-11
7.05792e-11
6.93204e-11
6.80563e-11
6.67895e-11
6.55218e-11
6.42544e-11
6.29875e-11
6.17217e-11
6.04572e-11
5.91938e-11
6.93123e-11
6.80559e-11
6.67952e-11
6.5531e-11
6.42651e-11
6.29988e-11
6.17331e-11
6.04681e-11
5.92044e-11
5.79417e-11
6.80443e-11
6.67892e-11
6.55307e-11
6.42694e-11
6.30057e-11
6.17411e-11
6.04765e-11
5.92126e-11
5.79497e-11
5.66882e-11
6.67759e-11
6.55218e-11
6.42648e-11
6.30054e-11
6.17442e-11
6.04816e-11
5.92183e-11
5.79554e-11
5.66935e-11
5.54333e-11
6.55077e-11
6.42544e-11
6.29988e-11
6.17408e-11
6.04813e-11
5.92208e-11
5.79593e-11
5.66973e-11
5.5436e-11
5.41773e-11
6.42402e-11
6.29875e-11
6.17331e-11
6.04764e-11
5.92181e-11
5.79588e-11
5.66991e-11
5.54385e-11
5.41778e-11
5.29202e-11
6.29738e-11
6.17217e-11
6.04682e-11
5.92126e-11
5.79553e-11
5.66969e-11
5.5438e-11
5.41786e-11
5.29187e-11
5.16621e-11
6.17089e-11
6.04573e-11
5.92044e-11
5.79497e-11
5.66935e-11
5.54359e-11
5.41775e-11
5.29185e-11
5.1659e-11
5.04028e-11
6.04454e-11
5.91938e-11
5.79417e-11
5.66882e-11
5.54333e-11
5.41773e-11
5.29201e-11
5.1662e-11
5.04027e-11
4.91448e-11
7.17955e-11
7.05361e-11
6.92724e-11
6.80075e-11
6.67424e-11
6.54776e-11
6.42133e-11
6.29499e-11
6.16878e-11
6.04266e-11
7.05358e-11
6.92786e-11
6.80171e-11
6.67534e-11
6.54891e-11
6.42249e-11
6.29611e-11
6.16982e-11
6.04363e-11
5.91752e-11
6.92721e-11
6.80168e-11
6.6758e-11
6.54965e-11
6.42335e-11
6.29703e-11
6.17074e-11
6.04452e-11
5.91839e-11
5.79234e-11
6.80074e-11
6.67532e-11
6.54962e-11
6.4237e-11
6.29759e-11
6.17139e-11
6.0452e-11
5.91906e-11
5.793e-11
5.66705e-11
6.67425e-11
6.54891e-11
6.42333e-11
6.29756e-11
6.17165e-11
6.04561e-11
5.91953e-11
5.79346e-11
5.66748e-11
5.54164e-11
6.54776e-11
6.42249e-11
6.29703e-11
6.17137e-11
6.04559e-11
5.91972e-11
5.79378e-11
5.6678e-11
5.54186e-11
5.41614e-11
6.42134e-11
6.29611e-11
6.17074e-11
6.04519e-11
5.91951e-11
5.79375e-11
5.66794e-11
5.54207e-11
5.41618e-11
5.29056e-11
6.295e-11
6.16982e-11
6.04452e-11
5.91906e-11
5.79346e-11
5.66777e-11
5.54203e-11
5.41626e-11
5.29044e-11
5.16489e-11
6.16878e-11
6.04363e-11
5.91839e-11
5.793e-11
5.66748e-11
5.54186e-11
5.41616e-11
5.29042e-11
5.16465e-11
5.03913e-11
6.04267e-11
5.91753e-11
5.79234e-11
5.66705e-11
5.54164e-11
5.41614e-11
5.29055e-11
5.16488e-11
5.03912e-11
4.91349e-11
7.17582e-11
7.05005e-11
6.92393e-11
6.79772e-11
6.67149e-11
6.54528e-11
6.41911e-11
6.29302e-11
6.16701e-11
6.0411e-11
7.05002e-11
6.92443e-11
6.7985e-11
6.67238e-11
6.54621e-11
6.42005e-11
6.29392e-11
6.16786e-11
6.04189e-11
5.91598e-11
6.92391e-11
6.79847e-11
6.67275e-11
6.54681e-11
6.42075e-11
6.29467e-11
6.16862e-11
6.04261e-11
5.91668e-11
5.79082e-11
6.79771e-11
6.67236e-11
6.54679e-11
6.42103e-11
6.29512e-11
6.16914e-11
6.04316e-11
5.91723e-11
5.79136e-11
5.66557e-11
6.6715e-11
6.54621e-11
6.42074e-11
6.2951e-11
6.16935e-11
6.0435e-11
5.91761e-11
5.79174e-11
5.66593e-11
5.54023e-11
6.54529e-11
6.42005e-11
6.29467e-11
6.16913e-11
6.04348e-11
5.91777e-11
5.792e-11
5.66618e-11
5.54042e-11
5.41482e-11
6.41912e-11
6.29393e-11
6.16862e-11
6.04316e-11
5.91759e-11
5.79197e-11
5.6663e-11
5.54058e-11
5.41486e-11
5.28934e-11
6.29302e-11
6.16787e-11
6.04261e-11
5.91723e-11
5.79173e-11
5.66616e-11
5.54056e-11
5.41492e-11
5.28924e-11
5.16379e-11
6.16702e-11
6.04189e-11
5.91668e-11
5.79136e-11
5.66593e-11
5.54041e-11
5.41484e-11
5.28923e-11
5.1636e-11
5.03818e-11
6.0411e-11
5.91598e-11
5.79082e-11
5.66557e-11
5.54023e-11
5.41482e-11
5.28934e-11
5.16379e-11
5.03817e-11
4.91266e-11
7.17277e-11
7.04714e-11
6.92122e-11
6.79523e-11
6.66923e-11
6.54324e-11
6.41729e-11
6.29139e-11
6.16556e-11
6.03981e-11
7.04712e-11
6.92163e-11
6.79586e-11
6.66995e-11
6.544e-11
6.41805e-11
6.29212e-11
6.16625e-11
6.04045e-11
5.9147e-11
6.9212e-11
6.79584e-11
6.67025e-11
6.54448e-11
6.41861e-11
6.29273e-11
6.16686e-11
6.04104e-11
5.91527e-11
5.78957e-11
6.79523e-11
6.66994e-11
6.54447e-11
6.41884e-11
6.2931e-11
6.16729e-11
6.04149e-11
5.91572e-11
5.79e-11
5.66436e-11
6.66924e-11
6.54399e-11
6.4186e-11
6.29308e-11
6.16746e-11
6.04176e-11
5.91603e-11
5.79031e-11
5.66465e-11
5.53908e-11
6.54325e-11
6.41805e-11
6.29273e-11
6.16728e-11
6.04175e-11
5.91616e-11
5.79052e-11
5.66486e-11
5.53923e-11
5.41373e-11
6.41729e-11
6.29213e-11
6.16687e-11
6.04149e-11
5.91602e-11
5.7905e-11
5.66496e-11
5.53936e-11
5.41377e-11
5.28834e-11
6.29139e-11
6.16625e-11
6.04104e-11
5.91572e-11
5.79031e-11
5.66484e-11
5.53934e-11
5.41381e-11
5.28826e-11
5.16289e-11
6.16556e-11
6.04045e-11
5.91528e-11
5.79e-11
5.66465e-11
5.53922e-11
5.41375e-11
5.28825e-11
5.16273e-11
5.03739e-11
6.03981e-11
5.9147e-11
5.78957e-11
5.66436e-11
5.53908e-11
5.41373e-11
5.28833e-11
5.16288e-11
5.03738e-11
4.91196e-11
7.17027e-11
7.04475e-11
6.91901e-11
6.7932e-11
6.66738e-11
6.54157e-11
6.41579e-11
6.29005e-11
6.16437e-11
6.03875e-11
7.04474e-11
6.91934e-11
6.79371e-11
6.66796e-11
6.54218e-11
6.4164e-11
6.29065e-11
6.16493e-11
6.03927e-11
5.91366e-11
6.91899e-11
6.79369e-11
6.66821e-11
6.54257e-11
6.41686e-11
6.29114e-11
6.16543e-11
6.03975e-11
5.91412e-11
5.78854e-11
6.7932e-11
6.66795e-11
6.54256e-11
6.41705e-11
6.29144e-11
6.16578e-11
6.04012e-11
5.91449e-11
5.7889e-11
5.66337e-11
6.66738e-11
6.54218e-11
6.41685e-11
6.29142e-11
6.16591e-11
6.04034e-11
5.91474e-11
5.78915e-11
5.6636e-11
5.53813e-11
6.54157e-11
6.41641e-11
6.29114e-11
6.16577e-11
6.04033e-11
5.91485e-11
5.78932e-11
5.66377e-11
5.53825e-11
5.41285e-11
6.41579e-11
6.29065e-11
6.16543e-11
6.04012e-11
5.91473e-11
5.7893e-11
5.66385e-11
5.53837e-11
5.41287e-11
5.28752e-11
6.29005e-11
6.16494e-11
6.03975e-11
5.91449e-11
5.78915e-11
5.66376e-11
5.53835e-11
5.41291e-11
5.28746e-11
5.16215e-11
6.16438e-11
6.03928e-11
5.91413e-11
5.7889e-11
5.6636e-11
5.53825e-11
5.41286e-11
5.28745e-11
5.16202e-11
5.03674e-11
6.03875e-11
5.91366e-11
5.78854e-11
5.66337e-11
5.53813e-11
5.41285e-11
5.28752e-11
5.16215e-11
5.03673e-11
4.91139e-11
7.16823e-11
7.04281e-11
6.9172e-11
6.79154e-11
6.66587e-11
6.54021e-11
6.41457e-11
6.28896e-11
6.1634e-11
6.0379e-11
7.0428e-11
6.91746e-11
6.79195e-11
6.66634e-11
6.5407e-11
6.41506e-11
6.28944e-11
6.16386e-11
6.03832e-11
5.91281e-11
6.91719e-11
6.79194e-11
6.66654e-11
6.54102e-11
6.41543e-11
6.28984e-11
6.16426e-11
6.0387e-11
5.91319e-11
5.78771e-11
6.79154e-11
6.66633e-11
6.54101e-11
6.41558e-11
6.29008e-11
6.16454e-11
6.039e-11
5.91348e-11
5.788e-11
5.66256e-11
6.66587e-11
6.5407e-11
6.41543e-11
6.29007e-11
6.16465e-11
6.03918e-11
5.91369e-11
5.7882e-11
5.66275e-11
5.53736e-11
6.54021e-11
6.41506e-11
6.28984e-11
6.16453e-11
6.03917e-11
5.91377e-11
5.78834e-11
5.66289e-11
5.53746e-11
5.41212e-11
6.41457e-11
6.28945e-11
6.16426e-11
6.039e-11
5.91368e-11
5.78832e-11
5.66295e-11
5.53755e-11
5.41215e-11
5.28685e-11
6.28896e-11
6.16386e-11
6.0387e-11
5.91348e-11
5.7882e-11
5.66288e-11
5.53754e-11
5.41218e-11
5.28681e-11
5.16155e-11
6.16341e-11
6.03832e-11
5.91319e-11
5.788e-11
5.66275e-11
5.53746e-11
5.41214e-11
5.2868e-11
5.16145e-11
5.03621e-11
6.0379e-11
5.91281e-11
5.78771e-11
5.66256e-11
5.53736e-11
5.41212e-11
5.28685e-11
5.16154e-11
5.0362e-11
4.91092e-11
7.16658e-11
7.04123e-11
6.91573e-11
6.79019e-11
6.66464e-11
6.5391e-11
6.41357e-11
6.28807e-11
6.16262e-11
6.0372e-11
7.04121e-11
6.91594e-11
6.79052e-11
6.66502e-11
6.53949e-11
6.41397e-11
6.28846e-11
6.16298e-11
6.03754e-11
5.91212e-11
6.91572e-11
6.79051e-11
6.66518e-11
6.53975e-11
6.41427e-11
6.28878e-11
6.16331e-11
6.03785e-11
5.91242e-11
5.78703e-11
6.79018e-11
6.66501e-11
6.53974e-11
6.41439e-11
6.28898e-11
6.16353e-11
6.03809e-11
5.91266e-11
5.78726e-11
5.6619e-11
6.66464e-11
6.53949e-11
6.41426e-11
6.28897e-11
6.16362e-11
6.03823e-11
5.91283e-11
5.78743e-11
5.66206e-11
5.53674e-11
6.5391e-11
6.41397e-11
6.28878e-11
6.16353e-11
6.03823e-11
5.9129e-11
5.78754e-11
5.66217e-11
5.53682e-11
5.41154e-11
6.41357e-11
6.28846e-11
6.16331e-11
6.03809e-11
5.91282e-11
5.78753e-11
5.66222e-11
5.53689e-11
5.41156e-11
5.28631e-11
6.28807e-11
6.16298e-11
6.03785e-11
5.91266e-11
5.78743e-11
5.66216e-11
5.53688e-11
5.41158e-11
5.28627e-11
5.16106e-11
6.16262e-11
6.03754e-11
5.91242e-11
5.78726e-11
5.66206e-11
5.53681e-11
5.41155e-11
5.28627e-11
5.16098e-11
5.03578e-11
6.0372e-11
5.91212e-11
5.78703e-11
5.6619e-11
5.53674e-11
5.41154e-11
5.28631e-11
5.16105e-11
5.03577e-11
4.91053e-11
7.16523e-11
7.03994e-11
6.91453e-11
6.78909e-11
6.66364e-11
6.53819e-11
6.41276e-11
6.28735e-11
6.16197e-11
6.03663e-11
7.03993e-11
6.9147e-11
6.78935e-11
6.66394e-11
6.53851e-11
6.41308e-11
6.28767e-11
6.16227e-11
6.0369e-11
5.91156e-11
6.91452e-11
6.78934e-11
6.66407e-11
6.53872e-11
6.41332e-11
6.28792e-11
6.16253e-11
6.03715e-11
5.9118e-11
5.78648e-11
6.78909e-11
6.66394e-11
6.53871e-11
6.41342e-11
6.28808e-11
6.16271e-11
6.03735e-11
5.912e-11
5.78667e-11
5.66137e-11
6.66364e-11
6.53851e-11
6.41332e-11
6.28807e-11
6.16279e-11
6.03747e-11
5.91213e-11
5.7868e-11
5.66149e-11