/*--------------------------------*- C++ -*----------------------------------*\
| =========                 |                                                 |
| \\      /  F ield         | foam-extend: Open Source CFD                    |
|  \\    /   O peration     | Version:     3.1                                |
|   \\  /    A nd           | Web:         http://www.extend-project.de       |
|    \\/     M anipulation  |                                                 |
\*---------------------------------------------------------------------------*/
FoamFile
{
    version     2.0;
    format      ascii;
    class       volVectorField;
    location    "0.0012";
    object      D_0_0;
}
// * * * * * * * * * * * * * * * * * * * * * * * * * * * * * * * * * * * * * //

dimensions      [0 1 0 0 0 0 0];

internalField   nonuniform List<vector> 
6400
(
(7.10228e-06 2.48926e-07 5.16405e-06)
(5.70464e-06 2.01681e-07 1.65573e-06)
(5.19681e-06 1.81573e-07 -8.84718e-07)
(5.48434e-06 1.86627e-07 -4.12758e-06)
(7.0472e-06 8.16011e-07 5.16712e-06)
(5.66316e-06 6.55837e-07 1.66107e-06)
(5.16073e-06 5.97653e-07 -8.78753e-07)
(5.452e-06 6.31549e-07 -4.12129e-06)
(6.95766e-06 1.37312e-06 5.16503e-06)
(5.59139e-06 1.10323e-06 1.66058e-06)
(5.09565e-06 1.00603e-06 -8.78676e-07)
(5.38385e-06 1.06402e-06 -4.12092e-06)
(6.82655e-06 1.91869e-06 5.1637e-06)
(5.48618e-06 1.54198e-06 1.65993e-06)
(4.99981e-06 1.40609e-06 -8.78882e-07)
(5.28264e-06 1.48675e-06 -4.12072e-06)
(6.65385e-06 2.45061e-06 5.16312e-06)
(5.3474e-06 1.9698e-06 1.65972e-06)
(4.8733e-06 1.79605e-06 -8.78762e-07)
(5.14889e-06 1.8986e-06 -4.12021e-06)
(6.44038e-06 2.96628e-06 5.16306e-06)
(5.17574e-06 2.38446e-06 1.65986e-06)
(4.71674e-06 2.17394e-06 -8.78382e-07)
(4.98333e-06 2.29768e-06 -4.11949e-06)
(6.1873e-06 3.46295e-06 5.16339e-06)
(4.97217e-06 2.7837e-06 1.66023e-06)
(4.53108e-06 2.53771e-06 -8.7785e-07)
(4.78703e-06 2.68183e-06 -4.11866e-06)
(5.89609e-06 3.93781e-06 5.16403e-06)
(4.73791e-06 3.16529e-06 1.66077e-06)
(4.31747e-06 2.8853e-06 -8.77256e-07)
(4.56125e-06 3.04889e-06 -4.11783e-06)
(5.56843e-06 4.38815e-06 5.16493e-06)
(4.47439e-06 3.52702e-06 1.66139e-06)
(4.07729e-06 3.21471e-06 -8.76686e-07)
(4.3075e-06 3.39672e-06 -4.11711e-06)
(5.20621e-06 4.81149e-06 5.16606e-06)
(4.18333e-06 3.86686e-06 1.66198e-06)
(3.81219e-06 3.52413e-06 -8.76274e-07)
(4.02757e-06 3.72344e-06 -4.11666e-06)
(4.81149e-06 5.20621e-06 5.16606e-06)
(3.86686e-06 4.18333e-06 1.66198e-06)
(3.52413e-06 3.81219e-06 -8.76274e-07)
(3.72344e-06 4.02757e-06 -4.11666e-06)
(4.38815e-06 5.56844e-06 5.16493e-06)
(3.52702e-06 4.47439e-06 1.66139e-06)
(3.21471e-06 4.07729e-06 -8.76686e-07)
(3.39672e-06 4.3075e-06 -4.11711e-06)
(3.93781e-06 5.89609e-06 5.16403e-06)
(3.16529e-06 4.73791e-06 1.66077e-06)
(2.88529e-06 4.31747e-06 -8.77256e-07)
(3.04888e-06 4.56125e-06 -4.11783e-06)
(3.46295e-06 6.1873e-06 5.16339e-06)
(2.7837e-06 4.97217e-06 1.66023e-06)
(2.5377e-06 4.53108e-06 -8.7785e-07)
(2.68183e-06 4.78703e-06 -4.11866e-06)
(2.96628e-06 6.44038e-06 5.16306e-06)
(2.38446e-06 5.17574e-06 1.65986e-06)
(2.17394e-06 4.71674e-06 -8.78382e-07)
(2.29768e-06 4.98333e-06 -4.11949e-06)
(2.45061e-06 6.65386e-06 5.16312e-06)
(1.9698e-06 5.3474e-06 1.65972e-06)
(1.79605e-06 4.8733e-06 -8.78762e-07)
(1.8986e-06 5.14889e-06 -4.12021e-06)
(1.91869e-06 6.82655e-06 5.1637e-06)
(1.54198e-06 5.48618e-06 1.65993e-06)
(1.40609e-06 4.99982e-06 -8.78882e-07)
(1.48675e-06 5.28264e-06 -4.12072e-06)
(1.37312e-06 6.95766e-06 5.16503e-06)
(1.10323e-06 5.59139e-06 1.66058e-06)
(1.00603e-06 5.09565e-06 -8.78676e-07)
(1.06402e-06 5.38385e-06 -4.12092e-06)
(8.1601e-07 7.0472e-06 5.16712e-06)
(6.55836e-07 5.66316e-06 1.66107e-06)
(5.97652e-07 5.16073e-06 -8.78753e-07)
(6.31549e-07 5.452e-06 -4.12129e-06)
(2.48926e-07 7.10228e-06 5.16405e-06)
(2.0168e-07 5.70464e-06 1.65573e-06)
(1.81573e-07 5.19682e-06 -8.84718e-07)
(1.86627e-07 5.48435e-06 -4.12758e-06)
(2.89514e-05 1.12445e-06 1.05384e-05)
(2.7453e-05 1.07071e-06 4.02086e-06)
(2.65245e-05 1.03643e-06 -1.76191e-06)
(2.6133e-05 1.02446e-06 -8.08884e-06)
(2.87564e-05 3.39021e-06 1.05243e-05)
(2.72714e-05 3.21891e-06 4.00774e-06)
(2.63542e-05 3.11368e-06 -1.77493e-06)
(2.59701e-05 3.07123e-06 -8.10159e-06)
(2.83949e-05 5.63712e-06 1.05184e-05)
(2.69288e-05 5.34866e-06 4.00297e-06)
(2.60238e-05 5.17178e-06 -1.77872e-06)
(2.56455e-05 5.09929e-06 -8.10407e-06)
(2.78608e-05 7.84848e-06 1.0516e-05)
(2.64224e-05 7.44552e-06 4.00154e-06)
(2.55344e-05 7.19794e-06 -1.7791e-06)
(2.51631e-05 7.09581e-06 -8.10321e-06)
(2.71561e-05 1.00107e-05 1.05153e-05)
(2.5754e-05 9.49601e-06 4.00173e-06)
(2.48883e-05 9.17931e-06 -1.77797e-06)
(2.45262e-05 9.04814e-06 -8.10098e-06)
(2.62846e-05 1.21106e-05 1.05156e-05)
(2.49273e-05 1.14874e-05 4.00279e-06)
(2.40892e-05 1.11036e-05 -1.77613e-06)
(2.37384e-05 1.09441e-05 -8.09819e-06)
(2.52516e-05 1.41354e-05 1.05167e-05)
(2.39473e-05 1.34075e-05 4.00432e-06)
(2.31418e-05 1.29589e-05 -1.77401e-06)
(2.28046e-05 1.27721e-05 -8.0953e-06)
(2.4063e-05 1.60729e-05 1.05183e-05)
(2.28198e-05 1.52447e-05 4.00607e-06)
(2.2052e-05 1.47339e-05 -1.7719e-06)
(2.17306e-05 1.45209e-05 -8.09263e-06)
(2.27259e-05 1.79112e-05 1.05202e-05)
(2.15516e-05 1.69877e-05 4.00778e-06)
(2.08265e-05 1.64178e-05 -1.77011e-06)
(2.05229e-05 1.61798e-05 -8.0905e-06)
(2.12484e-05 1.96395e-05 1.0522e-05)
(2.01506e-05 1.86261e-05 4.00902e-06)
(1.9473e-05 1.80005e-05 -1.76898e-06)
(1.91895e-05 1.77389e-05 -8.08926e-06)
(1.96395e-05 2.12484e-05 1.0522e-05)
(1.86261e-05 2.01506e-05 4.00902e-06)
(1.80005e-05 1.9473e-05 -1.76898e-06)
(1.77389e-05 1.91895e-05 -8.08926e-06)
(1.79112e-05 2.2726e-05 1.05202e-05)
(1.69877e-05 2.15516e-05 4.00778e-06)
(1.64177e-05 2.08265e-05 -1.77011e-06)
(1.61798e-05 2.05229e-05 -8.0905e-06)
(1.60729e-05 2.4063e-05 1.05183e-05)
(1.52447e-05 2.28198e-05 4.00607e-06)
(1.47338e-05 2.2052e-05 -1.7719e-06)
(1.45209e-05 2.17306e-05 -8.09263e-06)
(1.41354e-05 2.52516e-05 1.05167e-05)
(1.34075e-05 2.39473e-05 4.00432e-06)
(1.29588e-05 2.31418e-05 -1.77401e-06)
(1.27721e-05 2.28046e-05 -8.0953e-06)
(1.21106e-05 2.62847e-05 1.05156e-05)
(1.14874e-05 2.49273e-05 4.00279e-06)
(1.11036e-05 2.40892e-05 -1.77613e-06)
(1.09441e-05 2.37384e-05 -8.09819e-06)
(1.00107e-05 2.71561e-05 1.05153e-05)
(9.49601e-06 2.5754e-05 4.00173e-06)
(9.17931e-06 2.48883e-05 -1.77797e-06)
(9.04814e-06 2.45262e-05 -8.10098e-06)
(7.84848e-06 2.78608e-05 1.0516e-05)
(7.44552e-06 2.64224e-05 4.00154e-06)
(7.19794e-06 2.55344e-05 -1.7791e-06)
(7.09581e-06 2.51631e-05 -8.10321e-06)
(5.63712e-06 2.83949e-05 1.05184e-05)
(5.34866e-06 2.69289e-05 4.00297e-06)
(5.17178e-06 2.60238e-05 -1.77872e-06)
(5.09929e-06 2.56455e-05 -8.10407e-06)
(3.39021e-06 2.87564e-05 1.05243e-05)
(3.21891e-06 2.72714e-05 4.00774e-06)
(3.11368e-06 2.63542e-05 -1.77493e-06)
(3.07123e-06 2.59701e-05 -8.10159e-06)
(1.12445e-06 2.89514e-05 1.05384e-05)
(1.07071e-06 2.7453e-05 4.02087e-06)
(1.03643e-06 2.65245e-05 -1.76191e-06)
(1.02445e-06 2.6133e-05 -8.08884e-06)
(5.05669e-05 1.98097e-06 1.05088e-05)
(4.92141e-05 1.93465e-06 4.07565e-06)
(4.80133e-05 1.89146e-06 -1.95407e-06)
(4.69464e-05 1.85638e-06 -8.26062e-06)
(5.02438e-05 5.9379e-06 1.04948e-05)
(4.88985e-05 5.78502e-06 4.06099e-06)
(4.77057e-05 5.64924e-06 -1.9687e-06)
(4.66455e-05 5.52945e-06 -8.27342e-06)
(4.96162e-05 9.85936e-06 1.04878e-05)
(4.82867e-05 9.60006e-06 4.05444e-06)
(4.71083e-05 9.37094e-06 -1.97414e-06)
(4.6061e-05 9.16783e-06 -8.27684e-06)
(4.86835e-05 1.37193e-05 1.04846e-05)
(4.73786e-05 1.3356e-05 4.05242e-06)
(4.62218e-05 1.30348e-05 -1.97477e-06)
(4.51937e-05 1.27497e-05 -8.27579e-06)
(4.74516e-05 1.74943e-05 1.04837e-05)
(4.61793e-05 1.70296e-05 4.05276e-06)
(4.50513e-05 1.66182e-05 -1.97301e-06)
(4.40488e-05 1.6253e-05 -8.27244e-06)
(4.5928e-05 2.11615e-05 1.04841e-05)
(4.46961e-05 2.0598e-05 4.05437e-06)
(4.36039e-05 2.0099e-05 -1.9701e-06)
(4.26332e-05 1.96558e-05 -8.26806e-06)
(4.4122e-05 2.46984e-05 1.04854e-05)
(4.29381e-05 2.40396e-05 4.05664e-06)
(4.18885e-05 2.34559e-05 -1.96677e-06)
(4.09556e-05 2.29373e-05 -8.26348e-06)
(4.20444e-05 2.80833e-05 1.04874e-05)
(4.09159e-05 2.73331e-05 4.05915e-06)
(3.99156e-05 2.66682e-05 -1.96354e-06)
(3.90265e-05 2.60773e-05 -8.25931e-06)
(3.97079e-05 3.12956e-05 1.04897e-05)
(3.8642e-05 3.04584e-05 4.06148e-06)
(3.76973e-05 2.97163e-05 -1.96086e-06)
(3.68578e-05 2.90567e-05 -8.25605e-06)
(3.71263e-05 3.43158e-05 1.04916e-05)
(3.61301e-05 3.33966e-05 4.06305e-06)
(3.52475e-05 3.25817e-05 -1.95927e-06)
(3.4463e-05 3.18574e-05 -8.25422e-06)
(3.43158e-05 3.71263e-05 1.04916e-05)
(3.33966e-05 3.61301e-05 4.06305e-06)
(3.25817e-05 3.52475e-05 -1.95927e-06)
(3.18574e-05 3.4463e-05 -8.25422e-06)
(3.12956e-05 3.97079e-05 1.04897e-05)
(3.04584e-05 3.8642e-05 4.06148e-06)
(2.97163e-05 3.76973e-05 -1.96086e-06)
(2.90567e-05 3.68578e-05 -8.25605e-06)
(2.80833e-05 4.20444e-05 1.04874e-05)
(2.73331e-05 4.09159e-05 4.05915e-06)
(2.66682e-05 3.99156e-05 -1.96354e-06)
(2.60773e-05 3.90265e-05 -8.25931e-06)
(2.46984e-05 4.4122e-05 1.04854e-05)
(2.40396e-05 4.29381e-05 4.05664e-06)
(2.34559e-05 4.18885e-05 -1.96677e-06)
(2.29373e-05 4.09556e-05 -8.26348e-06)
(2.11615e-05 4.5928e-05 1.04841e-05)
(2.0598e-05 4.46961e-05 4.05437e-06)
(2.0099e-05 4.36039e-05 -1.9701e-06)
(1.96558e-05 4.26332e-05 -8.26806e-06)
(1.74943e-05 4.74517e-05 1.04837e-05)
(1.70296e-05 4.61793e-05 4.05276e-06)
(1.66182e-05 4.50513e-05 -1.97301e-06)
(1.6253e-05 4.40488e-05 -8.27244e-06)
(1.37193e-05 4.86835e-05 1.04846e-05)
(1.3356e-05 4.73786e-05 4.05242e-06)
(1.30348e-05 4.62218e-05 -1.97477e-06)
(1.27497e-05 4.51938e-05 -8.27579e-06)
(9.85936e-06 4.96162e-05 1.04878e-05)
(9.60006e-06 4.82867e-05 4.05444e-06)
(9.37094e-06 4.71083e-05 -1.97414e-06)
(9.16783e-06 4.6061e-05 -8.27683e-06)
(5.9379e-06 5.02438e-05 1.04948e-05)
(5.78502e-06 4.88985e-05 4.06099e-06)
(5.64924e-06 4.77057e-05 -1.96869e-06)
(5.52944e-06 4.66455e-05 -8.27342e-06)
(1.98097e-06 5.0567e-05 1.05088e-05)
(1.93465e-06 4.92141e-05 4.07565e-06)
(1.89146e-06 4.80133e-05 -1.95407e-06)
(1.85637e-06 4.69464e-05 -8.26062e-06)
(6.72863e-05 2.64157e-06 7.08629e-06)
(6.59606e-05 2.59605e-06 2.4742e-06)
(6.45586e-05 2.54608e-06 -1.94604e-06)
(6.30672e-05 2.49798e-06 -6.47623e-06)
(6.68621e-05 7.90562e-06 7.07708e-06)
(6.55411e-05 7.7565e-06 2.46493e-06)
(6.4145e-05 7.59855e-06 -1.95491e-06)
(6.266e-05 7.43166e-06 -6.48353e-06)
(6.6027e-05 1.31215e-05 7.07154e-06)
(6.47207e-05 1.28689e-05 2.46035e-06)
(6.33408e-05 1.26021e-05 -1.95818e-06)
(6.18737e-05 1.23183e-05 -6.48485e-06)
(6.47846e-05 1.82556e-05 7.06861e-06)
(6.35019e-05 1.79012e-05 2.45905e-06)
(6.2147e-05 1.75267e-05 -1.95775e-06)
(6.07066e-05 1.71283e-05 -6.48247e-06)
(6.31433e-05 2.32769e-05 7.06749e-06)
(6.18922e-05 2.28227e-05 2.45977e-06)
(6.05709e-05 2.23427e-05 -1.95516e-06)
(5.91661e-05 2.1832e-05 -6.47782e-06)
(6.11137e-05 2.81549e-05 7.06766e-06)
(5.99021e-05 2.76035e-05 2.46171e-06)
(5.86225e-05 2.70207e-05 -1.95141e-06)
(5.72622e-05 2.64006e-05 -6.47207e-06)
(5.87083e-05 3.28601e-05 7.06879e-06)
(5.75439e-05 3.22144e-05 2.46431e-06)
(5.63142e-05 3.15321e-05 -1.94725e-06)
(5.50071e-05 3.08064e-05 -6.46614e-06)
(5.59422e-05 3.73635e-05 7.07063e-06)
(5.48322e-05 3.66274e-05 2.46713e-06)
(5.36603e-05 3.58497e-05 -1.94327e-06)
(5.24147e-05 3.50225e-05 -6.46077e-06)
(5.2832e-05 4.16377e-05 7.0728e-06)
(5.17837e-05 4.08156e-05 2.46969e-06)
(5.06772e-05 3.99471e-05 -1.94004e-06)
(4.95012e-05 3.90235e-05 -6.45664e-06)
(4.93964e-05 4.56567e-05 7.07464e-06)
(4.8417e-05 4.47534e-05 2.47138e-06)
(4.73833e-05 4.37993e-05 -1.93815e-06)
(4.62845e-05 4.27849e-05 -6.45435e-06)
(4.56567e-05 4.93964e-05 7.07464e-06)
(4.47534e-05 4.8417e-05 2.47138e-06)
(4.37993e-05 4.73833e-05 -1.93815e-06)
(4.27849e-05 4.62845e-05 -6.45435e-06)
(4.16377e-05 5.2832e-05 7.0728e-06)
(4.08156e-05 5.17838e-05 2.46969e-06)
(3.9947e-05 5.06772e-05 -1.94004e-06)
(3.90234e-05 4.95012e-05 -6.45664e-06)
(3.73635e-05 5.59422e-05 7.07063e-06)
(3.66274e-05 5.48323e-05 2.46713e-06)
(3.58497e-05 5.36603e-05 -1.94326e-06)
(3.50225e-05 5.24147e-05 -6.46077e-06)
(3.28601e-05 5.87084e-05 7.0688e-06)
(3.22144e-05 5.75439e-05 2.46431e-06)
(3.15321e-05 5.63142e-05 -1.94725e-06)
(3.08064e-05 5.50071e-05 -6.46614e-06)
(2.81549e-05 6.11137e-05 7.06766e-06)
(2.76035e-05 5.99021e-05 2.46171e-06)
(2.70207e-05 5.86225e-05 -1.95141e-06)
(2.64006e-05 5.72623e-05 -6.47207e-06)
(2.32769e-05 6.31433e-05 7.06749e-06)
(2.28227e-05 6.18922e-05 2.45977e-06)
(2.23427e-05 6.05709e-05 -1.95516e-06)
(2.1832e-05 5.91661e-05 -6.47782e-06)
(1.82556e-05 6.47846e-05 7.06861e-06)
(1.79012e-05 6.35019e-05 2.45905e-06)
(1.75267e-05 6.2147e-05 -1.95775e-06)
(1.71283e-05 6.07066e-05 -6.48247e-06)
(1.31215e-05 6.6027e-05 7.07155e-06)
(1.28689e-05 6.47207e-05 2.46035e-06)
(1.26021e-05 6.33408e-05 -1.95817e-06)
(1.23183e-05 6.18737e-05 -6.48484e-06)
(7.90562e-06 6.68621e-05 7.07708e-06)
(7.7565e-06 6.55411e-05 2.46494e-06)
(7.59855e-06 6.4145e-05 -1.95491e-06)
(7.43166e-06 6.26601e-05 -6.48353e-06)
(2.64157e-06 6.72863e-05 7.0863e-06)
(2.59605e-06 6.59606e-05 2.4742e-06)
(2.54608e-06 6.45586e-05 -1.94604e-06)
(2.49797e-06 6.30672e-05 -6.47622e-06)
(7.65146e-05 3.00381e-06 1.92739e-06)
(7.51801e-05 2.95818e-06 -3.9946e-08)
(7.36783e-05 2.90507e-06 -1.98037e-06)
(7.19992e-05 2.85159e-06 -3.92382e-06)
(7.60327e-05 8.98734e-06 1.92415e-06)
(7.47018e-05 8.83845e-06 -4.25745e-08)
(7.32051e-05 8.67038e-06 -1.98226e-06)
(7.15323e-05 8.48376e-06 -3.9245e-06)
(7.50807e-05 1.49159e-05 1.92147e-06)
(7.37641e-05 1.46638e-05 -4.37638e-08)
(7.22845e-05 1.43797e-05 -1.98194e-06)
(7.06317e-05 1.40618e-05 -3.92239e-06)
(7.36643e-05 2.07511e-05 1.91962e-06)
(7.23711e-05 2.0397e-05 -4.35262e-08)
(7.09181e-05 1.99979e-05 -1.97971e-06)
(6.92952e-05 1.95513e-05 -3.91797e-06)
(7.17939e-05 2.6458e-05 1.91864e-06)
(7.05322e-05 2.60034e-05 -4.21632e-08)
(6.91148e-05 2.54913e-05 -1.9761e-06)
(6.75321e-05 2.49184e-05 -3.91191e-06)
(6.94819e-05 3.2002e-05 1.91849e-06)
(6.82597e-05 3.14491e-05 -3.99932e-08)
(6.6887e-05 3.08267e-05 -1.97167e-06)
(6.53543e-05 3.01306e-05 -3.905e-06)
(6.67431e-05 3.73497e-05 1.91913e-06)
(6.55683e-05 3.67013e-05 -3.73289e-08)
(6.42491e-05 3.59719e-05 -1.96699e-06)
(6.27764e-05 3.51565e-05 -3.89804e-06)
(6.35949e-05 4.24685e-05 1.92045e-06)
(6.24751e-05 4.17283e-05 -3.4513e-08)
(6.1218e-05 4.08961e-05 -1.96259e-06)
(5.98147e-05 3.99661e-05 -3.89179e-06)
(6.00564e-05 4.73274e-05 1.92218e-06)
(5.89991e-05 4.64997e-05 -3.198e-08)
(5.78124e-05 4.55695e-05 -1.95906e-06)
(5.64877e-05 4.45304e-05 -3.887e-06)
(5.6149e-05 5.18968e-05 1.92374e-06)
(5.51616e-05 5.09865e-05 -3.0332e-08)
(5.40533e-05 4.9964e-05 -1.95703e-06)
(5.2816e-05 4.88222e-05 -3.88436e-06)
(5.18968e-05 5.61491e-05 1.92374e-06)
(5.09865e-05 5.51616e-05 -3.03317e-08)
(4.9964e-05 5.40533e-05 -1.95703e-06)
(4.88222e-05 5.2816e-05 -3.88436e-06)
(4.73274e-05 6.00564e-05 1.92218e-06)
(4.64997e-05 5.89991e-05 -3.19792e-08)
(4.55695e-05 5.78124e-05 -1.95906e-06)
(4.45304e-05 5.64877e-05 -3.887e-06)
(4.24685e-05 6.35949e-05 1.92045e-06)
(4.17283e-05 6.24751e-05 -3.45115e-08)
(4.08961e-05 6.1218e-05 -1.96258e-06)
(3.9966e-05 5.98147e-05 -3.89179e-06)
(3.73497e-05 6.67432e-05 1.91913e-06)
(3.67013e-05 6.55683e-05 -3.73269e-08)
(3.59719e-05 6.42492e-05 -1.96698e-06)
(3.51565e-05 6.27764e-05 -3.89803e-06)
(3.2002e-05 6.94819e-05 1.9185e-06)
(3.14491e-05 6.82597e-05 -3.99907e-08)
(3.08267e-05 6.6887e-05 -1.97167e-06)
(3.01306e-05 6.53543e-05 -3.905e-06)
(2.6458e-05 7.17939e-05 1.91865e-06)
(2.60034e-05 7.05322e-05 -4.21601e-08)
(2.54913e-05 6.91149e-05 -1.9761e-06)
(2.49184e-05 6.75321e-05 -3.91191e-06)
(2.07511e-05 7.36643e-05 1.91963e-06)
(2.0397e-05 7.23711e-05 -4.35227e-08)
(1.99979e-05 7.09181e-05 -1.97971e-06)
(1.95512e-05 6.92952e-05 -3.91797e-06)
(1.49159e-05 7.50807e-05 1.92148e-06)
(1.46638e-05 7.37641e-05 -4.37599e-08)
(1.43797e-05 7.22845e-05 -1.98194e-06)
(1.40618e-05 7.06317e-05 -3.92239e-06)
(8.98734e-06 7.60327e-05 1.92415e-06)
(8.83845e-06 7.47018e-05 -4.25703e-08)
(8.67038e-06 7.32051e-05 -1.98225e-06)
(8.48376e-06 7.15323e-05 -3.9245e-06)
(3.00381e-06 7.65146e-05 1.9274e-06)
(2.95818e-06 7.51801e-05 -3.99417e-08)
(2.90507e-06 7.36783e-05 -1.98037e-06)
(2.85159e-06 7.19992e-05 -3.92381e-06)
(7.74807e-05 3.03864e-06 -3.61927e-06)
(7.61582e-05 2.99404e-06 -2.82262e-06)
(7.46757e-05 2.94215e-06 -2.13806e-06)
(7.30233e-05 2.89016e-06 -1.38389e-06)
(7.69902e-05 9.09373e-06 -3.61693e-06)
(7.56711e-05 8.94799e-06 -2.81933e-06)
(7.41934e-05 8.78374e-06 -2.13389e-06)
(7.25472e-05 8.602e-06 -1.37888e-06)
(7.60217e-05 1.50931e-05 -3.61641e-06)
(7.47165e-05 1.4846e-05 -2.81714e-06)
(7.32554e-05 1.45681e-05 -2.13024e-06)
(7.16288e-05 1.42581e-05 -1.37375e-06)
(7.45816e-05 2.09977e-05 -3.61671e-06)
(7.32992e-05 2.06501e-05 -2.81523e-06)
(7.18642e-05 2.02592e-05 -2.12635e-06)
(7.02669e-05 1.98232e-05 -1.36772e-06)
(7.26812e-05 2.67719e-05 -3.61717e-06)
(7.14296e-05 2.63249e-05 -2.81318e-06)
(7.00296e-05 2.58228e-05 -2.12201e-06)
(6.84715e-05 2.52628e-05 -1.36084e-06)
(7.03335e-05 3.2381e-05 -3.61742e-06)
(6.91208e-05 3.18364e-05 -2.81085e-06)
(6.77647e-05 3.12253e-05 -2.1173e-06)
(6.6256e-05 3.05441e-05 -1.35348e-06)
(6.75544e-05 3.77913e-05 -3.6172e-06)
(6.63885e-05 3.71517e-05 -2.80828e-06)
(6.50853e-05 3.64346e-05 -2.11252e-06)
(6.36356e-05 3.56357e-05 -1.34619e-06)
(6.43617e-05 4.29704e-05 -3.61642e-06)
(6.32506e-05 4.22391e-05 -2.80566e-06)
(6.20088e-05 4.14199e-05 -2.1081e-06)
(6.06277e-05 4.05077e-05 -1.33965e-06)
(6.07755e-05 4.78872e-05 -3.61519e-06)
(5.97267e-05 4.70683e-05 -2.80331e-06)
(5.85548e-05 4.61517e-05 -2.10457e-06)
(5.72516e-05 4.51315e-05 -1.33463e-06)
(5.68176e-05 5.25123e-05 -3.61397e-06)
(5.58387e-05 5.16106e-05 -2.80179e-06)
(5.47448e-05 5.06021e-05 -2.10254e-06)
(5.35281e-05 4.94801e-05 -1.33186e-06)
(5.25122e-05 5.68176e-05 -3.61397e-06)
(5.16106e-05 5.58387e-05 -2.80179e-06)
(5.06021e-05 5.47448e-05 -2.10254e-06)
(4.94801e-05 5.35281e-05 -1.33186e-06)
(4.78872e-05 6.07755e-05 -3.61519e-06)
(4.70683e-05 5.97268e-05 -2.80331e-06)
(4.61517e-05 5.85548e-05 -2.10457e-06)
(4.51315e-05 5.72516e-05 -1.33463e-06)
(4.29704e-05 6.43617e-05 -3.61642e-06)
(4.22391e-05 6.32506e-05 -2.80566e-06)
(4.14199e-05 6.20088e-05 -2.1081e-06)
(4.05077e-05 6.06277e-05 -1.33965e-06)
(3.77913e-05 6.75544e-05 -3.6172e-06)
(3.71517e-05 6.63886e-05 -2.80828e-06)
(3.64346e-05 6.50853e-05 -2.11252e-06)
(3.56357e-05 6.36356e-05 -1.34619e-06)
(3.2381e-05 7.03335e-05 -3.61741e-06)
(3.18364e-05 6.91208e-05 -2.81085e-06)
(3.12253e-05 6.77647e-05 -2.1173e-06)
(3.05441e-05 6.6256e-05 -1.35348e-06)
(2.67719e-05 7.26812e-05 -3.61717e-06)
(2.63249e-05 7.14296e-05 -2.81318e-06)
(2.58227e-05 7.00296e-05 -2.122e-06)
(2.52628e-05 6.84716e-05 -1.36084e-06)
(2.09977e-05 7.45816e-05 -3.61671e-06)
(2.06501e-05 7.32992e-05 -2.81522e-06)
(2.02592e-05 7.18642e-05 -2.12635e-06)
(1.98232e-05 7.02669e-05 -1.36772e-06)
(1.50931e-05 7.60217e-05 -3.61641e-06)
(1.4846e-05 7.47165e-05 -2.81713e-06)
(1.45681e-05 7.32555e-05 -2.13024e-06)
(1.42581e-05 7.16288e-05 -1.37375e-06)
(9.09373e-06 7.69903e-05 -3.61692e-06)
(8.94799e-06 7.56712e-05 -2.81933e-06)
(8.78374e-06 7.41934e-05 -2.13388e-06)
(8.602e-06 7.25472e-05 -1.37888e-06)
(3.03864e-06 7.74807e-05 -3.61927e-06)
(2.99404e-06 7.61583e-05 -2.82261e-06)
(2.94215e-06 7.46757e-05 -2.13806e-06)
(2.89016e-06 7.30233e-05 -1.38389e-06)
(7.0852e-05 2.77337e-06 -8.43499e-06)
(6.95886e-05 2.73169e-06 -5.32312e-06)
(6.82406e-05 2.68513e-06 -2.43222e-06)
(6.67967e-05 2.64037e-06 5.75881e-07)
(7.03991e-05 8.30538e-06 -8.42826e-06)
(6.91394e-05 8.16823e-06 -5.31557e-06)
(6.77962e-05 8.02095e-06 -2.4239e-06)
(6.63581e-05 7.86464e-06 5.84549e-07)
(6.95075e-05 1.37864e-05 -8.42484e-06)
(6.82609e-05 1.35534e-05 -5.31082e-06)
(6.69326e-05 1.33038e-05 -2.41817e-06)
(6.55114e-05 1.30367e-05 5.91115e-07)
(6.8183e-05 1.91802e-05 -8.42331e-06)
(6.69578e-05 1.88519e-05 -5.3076e-06)
(6.56529e-05 1.85004e-05 -2.41352e-06)
(6.42572e-05 1.8124e-05 5.97297e-07)
(6.64366e-05 2.44542e-05 -8.4227e-06)
(6.52404e-05 2.40313e-05 -5.30501e-06)
(6.39672e-05 2.3579e-05 -2.4092e-06)
(6.26056e-05 2.30949e-05 6.03548e-07)
(6.4281e-05 2.95767e-05 -8.4224e-06)
(6.31217e-05 2.90606e-05 -5.3026e-06)
(6.18882e-05 2.85093e-05 -2.40493e-06)
(6.05696e-05 2.79193e-05 6.09934e-07)
(6.17314e-05 3.45173e-05 -8.42201e-06)
(6.06168e-05 3.39101e-05 -5.3002e-06)
(5.94314e-05 3.32621e-05 -2.40074e-06)
(5.81645e-05 3.25691e-05 6.16209e-07)
(5.8805e-05 3.92468e-05 -8.42132e-06)
(5.77429e-05 3.85513e-05 -5.29785e-06)
(5.66137e-05 3.78101e-05 -2.39689e-06)
(5.54071e-05 3.70174e-05 6.21883e-07)
(5.55209e-05 4.37376e-05 -8.4203e-06)
(5.45188e-05 4.29577e-05 -5.29577e-06)
(5.34537e-05 4.2127e-05 -2.3938e-06)
(5.23157e-05 4.12392e-05 6.26299e-07)
(5.18996e-05 4.79635e-05 -8.41929e-06)
(5.0965e-05 4.71035e-05 -5.29443e-06)
(4.99715e-05 4.61885e-05 -2.39202e-06)
(4.891e-05 4.52108e-05 6.28761e-07)
(4.79634e-05 5.18996e-05 -8.41929e-06)
(4.71035e-05 5.0965e-05 -5.29443e-06)
(4.61885e-05 4.99715e-05 -2.39202e-06)
(4.52108e-05 4.89101e-05 6.28761e-07)
(4.37376e-05 5.55209e-05 -8.42029e-06)
(4.29576e-05 5.45188e-05 -5.29577e-06)
(4.2127e-05 5.34537e-05 -2.3938e-06)
(4.12392e-05 5.23157e-05 6.263e-07)
(3.92468e-05 5.8805e-05 -8.42132e-06)
(3.85513e-05 5.77429e-05 -5.29785e-06)
(3.78101e-05 5.66137e-05 -2.39689e-06)
(3.70174e-05 5.54071e-05 6.21885e-07)
(3.45173e-05 6.17314e-05 -8.42201e-06)
(3.39101e-05 6.06168e-05 -5.3002e-06)
(3.32621e-05 5.94314e-05 -2.40074e-06)
(3.25691e-05 5.81645e-05 6.16211e-07)
(2.95767e-05 6.4281e-05 -8.4224e-06)
(2.90606e-05 6.31217e-05 -5.3026e-06)
(2.85093e-05 6.18883e-05 -2.40493e-06)
(2.79193e-05 6.05696e-05 6.09937e-07)
(2.44542e-05 6.64366e-05 -8.4227e-06)
(2.40313e-05 6.52404e-05 -5.30501e-06)
(2.3579e-05 6.39672e-05 -2.40919e-06)
(2.30949e-05 6.26056e-05 6.03552e-07)
(1.91802e-05 6.81831e-05 -8.42331e-06)
(1.88519e-05 6.69578e-05 -5.30759e-06)
(1.85004e-05 6.5653e-05 -2.41351e-06)
(1.8124e-05 6.42572e-05 5.97301e-07)
(1.37864e-05 6.95075e-05 -8.42484e-06)
(1.35534e-05 6.82609e-05 -5.31082e-06)
(1.33038e-05 6.69326e-05 -2.41816e-06)
(1.30367e-05 6.55115e-05 5.9112e-07)
(8.30538e-06 7.03992e-05 -8.42826e-06)
(8.16823e-06 6.91395e-05 -5.31557e-06)
(8.02095e-06 6.77962e-05 -2.4239e-06)
(7.86464e-06 6.63581e-05 5.84553e-07)
(2.77337e-06 7.08521e-05 -8.43499e-06)
(2.73169e-06 6.95886e-05 -5.32312e-06)
(2.68513e-06 6.82406e-05 -2.43221e-06)
(2.64037e-06 6.67967e-05 5.75886e-07)
(5.87144e-05 2.29134e-06 -1.16584e-05)
(5.75591e-05 2.25427e-06 -7.118e-06)
(5.6432e-05 2.21597e-06 -2.85238e-06)
(5.53188e-05 2.18211e-06 1.54291e-06)
(5.83337e-05 6.87035e-06 -1.16492e-05)
(5.71828e-05 6.7469e-06 -7.10854e-06)
(5.60603e-05 6.62593e-06 -2.84258e-06)
(5.49522e-05 6.50832e-06 1.55246e-06)
(5.75885e-05 1.14072e-05 -1.16437e-05)
(5.64494e-05 1.11968e-05 -7.10255e-06)
(5.53393e-05 1.09914e-05 -2.83647e-06)
(5.42442e-05 1.07899e-05 1.55838e-06)
(5.6483e-05 1.58712e-05 -1.16402e-05)
(5.53631e-05 1.55743e-05 -7.09864e-06)
(5.42723e-05 1.52845e-05 -2.83226e-06)
(5.31965e-05 1.49997e-05 1.56288e-06)
(5.50265e-05 2.02351e-05 -1.1638e-05)
(5.3933e-05 1.98522e-05 -7.09577e-06)
(5.28684e-05 1.94786e-05 -2.82893e-06)
(5.18187e-05 1.91113e-05 1.56676e-06)
(5.32306e-05 2.44728e-05 -1.16363e-05)
(5.21705e-05 2.40048e-05 -7.09337e-06)
(5.11391e-05 2.35485e-05 -2.82595e-06)
(5.01224e-05 2.30999e-05 1.57045e-06)
(5.11085e-05 2.85592e-05 -1.16348e-05)
(5.00893e-05 2.80079e-05 -7.09116e-06)
(4.9098e-05 2.74706e-05 -2.82313e-06)
(4.81214e-05 2.69423e-05 1.57405e-06)
(4.86754e-05 3.2471e-05 -1.16334e-05)
(4.77045e-05 3.18386e-05 -7.08909e-06)
(4.67605e-05 3.12228e-05 -2.82053e-06)
(4.58308e-05 3.06171e-05 1.5774e-06)
(4.59482e-05 3.61861e-05 -1.1632e-05)
(4.50327e-05 3.54759e-05 -7.08732e-06)
(4.41429e-05 3.47847e-05 -2.81842e-06)
(4.32668e-05 3.41047e-05 1.58009e-06)
(4.29446e-05 3.96838e-05 -1.16309e-05)
(4.20916e-05 3.88997e-05 -7.0862e-06)
(4.12625e-05 3.81372e-05 -2.81718e-06)
(4.04464e-05 3.73867e-05 1.58162e-06)
(3.96838e-05 4.29446e-05 -1.16309e-05)
(3.88997e-05 4.20916e-05 -7.0862e-06)
(3.81372e-05 4.12625e-05 -2.81718e-06)
(3.73867e-05 4.04464e-05 1.58162e-06)
(3.61861e-05 4.59482e-05 -1.1632e-05)
(3.54758e-05 4.50327e-05 -7.08732e-06)
(3.47847e-05 4.41429e-05 -2.81842e-06)
(3.41046e-05 4.32668e-05 1.58009e-06)
(3.2471e-05 4.86755e-05 -1.16334e-05)
(3.18386e-05 4.77045e-05 -7.08909e-06)
(3.12228e-05 4.67605e-05 -2.82053e-06)
(3.06171e-05 4.58308e-05 1.5774e-06)
(2.85592e-05 5.11085e-05 -1.16348e-05)
(2.80078e-05 5.00893e-05 -7.09116e-06)
(2.74706e-05 4.90981e-05 -2.82313e-06)
(2.69423e-05 4.81214e-05 1.57406e-06)
(2.44728e-05 5.32306e-05 -1.16363e-05)
(2.40048e-05 5.21706e-05 -7.09336e-06)
(2.35485e-05 5.11391e-05 -2.82594e-06)
(2.30999e-05 5.01224e-05 1.57045e-06)
(2.02351e-05 5.50266e-05 -1.1638e-05)
(1.98522e-05 5.3933e-05 -7.09577e-06)
(1.94786e-05 5.28684e-05 -2.82892e-06)
(1.91113e-05 5.18187e-05 1.56676e-06)
(1.58712e-05 5.6483e-05 -1.16402e-05)
(1.55743e-05 5.53632e-05 -7.09864e-06)
(1.52845e-05 5.42723e-05 -2.83226e-06)
(1.49997e-05 5.31965e-05 1.56288e-06)
(1.14072e-05 5.75885e-05 -1.16437e-05)
(1.11968e-05 5.64494e-05 -7.10255e-06)
(1.09914e-05 5.53393e-05 -2.83647e-06)
(1.07899e-05 5.42442e-05 1.55838e-06)
(6.87035e-06 5.83338e-05 -1.16492e-05)
(6.7469e-06 5.71829e-05 -7.10854e-06)
(6.62593e-06 5.60604e-05 -2.84257e-06)
(6.50832e-06 5.49522e-05 1.55246e-06)
(2.29134e-06 5.87144e-05 -1.16584e-05)
(2.25427e-06 5.75592e-05 -7.118e-06)
(2.21597e-06 5.6432e-05 -2.85237e-06)
(2.18211e-06 5.53189e-05 1.54292e-06)
(4.42873e-05 1.72082e-06 -1.28785e-05)
(4.32733e-05 1.68916e-06 -7.99242e-06)
(4.23999e-05 1.66001e-06 -3.35928e-06)
(4.16501e-05 1.63775e-06 1.37138e-06)
(4.3995e-05 5.17014e-06 -1.28695e-05)
(4.29859e-05 5.06309e-06 -7.9837e-06)
(4.21169e-05 4.97126e-06 -3.35081e-06)
(4.13713e-05 4.89502e-06 1.37896e-06)
(4.34276e-05 8.58787e-06 -1.28629e-05)
(4.24288e-05 8.40484e-06 -7.97795e-06)
(4.15693e-05 8.24857e-06 -3.34598e-06)
(4.08323e-05 8.1173e-06 1.3825e-06)
(4.25872e-05 1.19503e-05 -1.2858e-05)
(4.16052e-05 1.16917e-05 -7.97408e-06)
(4.07603e-05 1.14707e-05 -3.34321e-06)
(4.00361e-05 1.12843e-05 1.38404e-06)
(4.14812e-05 1.52366e-05 -1.28539e-05)
(4.05221e-05 1.49029e-05 -7.97126e-06)
(3.96973e-05 1.46173e-05 -3.34154e-06)
(3.89904e-05 1.43759e-05 1.38446e-06)
(4.01185e-05 1.8427e-05 -1.28504e-05)
(3.91888e-05 1.80189e-05 -7.96898e-06)
(3.83896e-05 1.76694e-05 -3.34039e-06)
(3.77048e-05 1.73734e-05 1.38442e-06)
(3.85101e-05 2.1503e-05 -1.28473e-05)
(3.76161e-05 2.10217e-05 -7.96699e-06)
(3.68482e-05 2.06094e-05 -3.33943e-06)
(3.61904e-05 2.02595e-05 1.38433e-06)
(3.6668e-05 2.44473e-05 -1.28446e-05)
(3.58165e-05 2.38948e-05 -7.96522e-06)
(3.50855e-05 2.34212e-05 -3.33853e-06)
(3.44596e-05 2.30186e-05 1.3844e-06)
(3.46057e-05 2.72441e-05 -1.28424e-05)
(3.38033e-05 2.66231e-05 -7.96377e-06)
(3.31147e-05 2.60905e-05 -3.33774e-06)
(3.25257e-05 2.56369e-05 1.3846e-06)
(3.23377e-05 2.98788e-05 -1.2841e-05)
(3.15905e-05 2.91926e-05 -7.96288e-06)
(3.09497e-05 2.8604e-05 -3.33723e-06)
(3.04021e-05 2.81019e-05 1.38478e-06)
(2.98788e-05 3.23377e-05 -1.2841e-05)
(2.91926e-05 3.15906e-05 -7.96288e-06)
(2.8604e-05 3.09497e-05 -3.33723e-06)
(2.81019e-05 3.04022e-05 1.38478e-06)
(2.72441e-05 3.46057e-05 -1.28424e-05)
(2.66231e-05 3.38033e-05 -7.96377e-06)
(2.60905e-05 3.31147e-05 -3.33774e-06)
(2.56369e-05 3.25258e-05 1.3846e-06)
(2.44473e-05 3.6668e-05 -1.28446e-05)
(2.38948e-05 3.58165e-05 -7.96522e-06)
(2.34212e-05 3.50855e-05 -3.33853e-06)
(2.30186e-05 3.44597e-05 1.3844e-06)
(2.1503e-05 3.85101e-05 -1.28473e-05)
(2.10217e-05 3.76162e-05 -7.96699e-06)
(2.06093e-05 3.68482e-05 -3.33943e-06)
(2.02595e-05 3.61904e-05 1.38434e-06)
(1.8427e-05 4.01186e-05 -1.28504e-05)
(1.80189e-05 3.91888e-05 -7.96898e-06)
(1.76694e-05 3.83896e-05 -3.34039e-06)
(1.73734e-05 3.77048e-05 1.38442e-06)
(1.52366e-05 4.14812e-05 -1.28539e-05)
(1.49029e-05 4.05221e-05 -7.97126e-06)
(1.46173e-05 3.96973e-05 -3.34154e-06)
(1.43759e-05 3.89904e-05 1.38447e-06)
(1.19503e-05 4.25872e-05 -1.2858e-05)
(1.16917e-05 4.16052e-05 -7.97408e-06)
(1.14707e-05 4.07604e-05 -3.34321e-06)
(1.12843e-05 4.00361e-05 1.38404e-06)
(8.58788e-06 4.34276e-05 -1.28629e-05)
(8.40484e-06 4.24288e-05 -7.97794e-06)
(8.24856e-06 4.15693e-05 -3.34598e-06)
(8.11729e-06 4.08323e-05 1.3825e-06)
(5.17014e-06 4.39951e-05 -1.28695e-05)
(5.06309e-06 4.29859e-05 -7.9837e-06)
(4.97126e-06 4.21169e-05 -3.35081e-06)
(4.89502e-06 4.13713e-05 1.37897e-06)
(1.72082e-06 4.42874e-05 -1.28785e-05)
(1.68916e-06 4.32734e-05 -7.99241e-06)
(1.66001e-06 4.23999e-05 -3.35928e-06)
(1.63775e-06 4.16501e-05 1.37139e-06)
(3.09192e-05 1.19482e-06 -1.22908e-05)
(3.00554e-05 1.16831e-06 -7.99581e-06)
(2.94095e-05 1.14705e-06 -3.86884e-06)
(2.89628e-05 1.13418e-06 2.90837e-07)
(3.0711e-05 3.6e-06 -1.22841e-05)
(2.98523e-05 3.50918e-06 -7.98993e-06)
(2.92105e-05 3.44246e-06 -3.86373e-06)
(2.87673e-05 3.39961e-06 2.9461e-07)
(3.03117e-05 5.98357e-06 -1.22779e-05)
(2.94619e-05 5.82788e-06 -7.98563e-06)
(2.8827e-05 5.71404e-06 -3.86117e-06)
(2.83889e-05 5.63967e-06 2.95073e-07)
(2.97215e-05 8.32848e-06 -1.22724e-05)
(2.8886e-05 8.10846e-06 -7.98249e-06)
(2.82619e-05 7.94704e-06 -3.86026e-06)
(2.7831e-05 7.84059e-06 2.9356e-07)
(2.89454e-05 1.06201e-05 -1.22672e-05)
(2.81296e-05 1.03361e-05 -7.98008e-06)
(2.75201e-05 1.01272e-05 -3.86035e-06)
(2.70993e-05 9.98836e-06 2.90761e-07)
(2.799e-05 1.28444e-05 -1.22624e-05)
(2.71991e-05 1.24973e-05 -7.97811e-06)
(2.66084e-05 1.22411e-05 -3.86096e-06)
(2.62006e-05 1.20699e-05 2.87352e-07)
(2.6863e-05 1.49887e-05 -1.22579e-05)
(2.61026e-05 1.45794e-05 -7.97642e-06)
(2.55349e-05 1.42767e-05 -3.86172e-06)
(2.51432e-05 1.40732e-05 2.83938e-07)
(2.55731e-05 1.70411e-05 -1.22541e-05)
(2.48489e-05 1.65713e-05 -7.97498e-06)
(2.43087e-05 1.62232e-05 -3.8624e-06)
(2.39362e-05 1.59877e-05 2.81009e-07)
(2.41304e-05 1.8991e-05 -1.22511e-05)
(2.3448e-05 1.8463e-05 -7.97385e-06)
(2.29394e-05 1.80709e-05 -3.86283e-06)
(2.25894e-05 1.78042e-05 2.78909e-07)
(2.25453e-05 2.08288e-05 -1.22493e-05)
(2.191e-05 2.02453e-05 -7.97317e-06)
(2.14371e-05 1.98114e-05 -3.86303e-06)
(2.11126e-05 1.95149e-05 2.7783e-07)