/*--------------------------------*- C++ -*----------------------------------*\
| =========                 |                                                 |
| \\      /  F ield         | foam-extend: Open Source CFD                    |
|  \\    /   O peration     | Version:     3.1                                |
|   \\  /    A nd           | Web:         http://www.extend-project.de       |
|    \\/     M anipulation  |                                                 |
\*---------------------------------------------------------------------------*/
FoamFile
{
    version     2.0;
    format      ascii;
    class       volSymmTensorField;
    location    "0.0012";
    object      epsilon;
}
// * * * * * * * * * * * * * * * * * * * * * * * * * * * * * * * * * * * * * //

dimensions      [0 0 0 0 0 0 0];

internalField   nonuniform List<symmTensor> 
6400
(
(-0.00417383 -0.000270696 0.00831134 0.00183437 0.000194656 0.0149195)
(-0.00227563 -0.000173686 0.00899575 0.00161159 0.00025839 0.00523611)
(-0.000720247 -9.38201e-05 0.00849722 0.00147888 0.000240883 -0.00280042)
(0.000895511 -1.29644e-05 0.00691322 0.00142273 0.000150265 -0.0120645)
(-0.00406899 -0.000702102 0.0082655 0.00180151 0.00096131 0.0147568)
(-0.0022016 -0.000455189 0.0089281 0.00158805 0.00104476 0.00511306)
(-0.000665163 -0.000257284 0.00842053 0.00147302 0.000986873 -0.00292719)
(0.000939975 -5.99196e-05 0.00682677 0.00143939 0.000799378 -0.0122388)
(-0.00391945 -0.00115185 0.00815974 0.00164859 0.00161311 0.0147502)
(-0.00210441 -0.000743392 0.00881462 0.00149252 0.00174549 0.00510885)
(-0.000608549 -0.000418818 0.00831433 0.00141826 0.00164803 -0.00293015)
(0.000957307 -9.62531e-05 0.00674233 0.00142383 0.0013371 -0.0122405)
(-0.00370397 -0.00157212 0.00800575 0.00143195 0.00225187 0.0147467)
(-0.00196545 -0.00101491 0.00864864 0.00135281 0.00243455 0.00510681)
(-0.000530118 -0.000571397 0.00815787 0.00133931 0.00229785 -0.00293107)
(0.000975529 -0.000130817 0.00661554 0.0014047 0.00186454 -0.0122402)
(-0.00342618 -0.00195371 0.00780297 0.00115306 0.00287506 0.0147456)
(-0.0017861 -0.00126157 0.00842978 0.0011725 0.00310745 0.00510661)
(-0.000429204 -0.000710298 0.00795145 0.00123749 0.00293247 -0.0029304)
(0.000998492 -0.000162569 0.00644807 0.00138073 0.00237936 -0.0122384)
(-0.00309245 -0.0022873 0.00755225 0.000818418 0.00347936 0.014746)
(-0.00157053 -0.00147723 0.00815904 0.000956053 0.00376022 0.00510756)
(-0.000307905 -0.000831818 0.00769605 0.00111527 0.00354815 -0.00292878)
(0.00102601 -0.000190415 0.00624081 0.00135219 0.00287871 -0.0122359)
(-0.00271081 -0.00256477 0.00725495 0.000436066 0.00406138 0.0147474)
(-0.00132395 -0.00165658 0.00783794 0.00070873 0.00438905 0.00510919)
(-0.000169107 -0.000932873 0.00739314 0.000975649 0.00414124 -0.00292669)
(0.00105751 -0.000213568 0.00599505 0.0013197 0.00335962 -0.0122331)
(-0.0022905 -0.00277934 0.0069128 1.52625e-05 0.00461776 0.0147495)
(-0.0010523 -0.00179521 0.00746843 0.000436545 0.00499021 0.00511117)
(-1.61624e-05 -0.00101093 0.00704464 0.00082203 0.00470818 -0.00292448)
(0.00109227 -0.000231405 0.0057124 0.00128404 0.00381921 -0.0122303)
(-0.00184167 -0.00292582 0.00652785 -0.000433755 0.00514526 0.014752)
(-0.000762118 -0.00188968 0.00705285 0.000146153 0.00556016 0.00511315)
(0.000147195 -0.00106402 0.00665284 0.000658228 0.00524563 -0.00292252)
(0.00112944 -0.000243446 0.00539481 0.00124614 0.00425476 -0.0122279)
(-0.00137389 -0.00300099 0.00610282 -0.000900108 0.00564105 0.0147539)
(-0.000460493 -0.00193763 0.00659418 -0.000155231 0.0060957 0.00511451)
(0.00031681 -0.00109085 0.00622051 0.000488458 0.00575058 -0.00292131)
(0.00116802 -0.000249449 0.00504454 0.00120714 0.00466386 -0.0122265)
(-0.000900108 -0.00300099 0.00564104 -0.00137389 0.00610282 0.0147539)
(-0.00015523 -0.00193763 0.0060957 -0.000460494 0.00659418 0.00511451)
(0.000488458 -0.00109085 0.00575058 0.00031681 0.00622051 -0.00292131)
(0.00120714 -0.000249449 0.00466386 0.00116802 0.00504454 -0.0122265)
(-0.000433755 -0.00292582 0.00514526 -0.00184167 0.00652785 0.0147519)
(0.000146153 -0.00188968 0.00556015 -0.000762119 0.00705285 0.00511315)
(0.000658229 -0.00106402 0.00524562 0.000147194 0.00665284 -0.00292252)
(0.00124614 -0.000243445 0.00425475 0.00112944 0.00539481 -0.0122279)
(1.52627e-05 -0.00277934 0.00461776 -0.0022905 0.0069128 0.0147495)
(0.000436546 -0.00179521 0.00499021 -0.0010523 0.00746843 0.00511116)
(0.00082203 -0.00101093 0.00470818 -1.61625e-05 0.00704464 -0.00292448)
(0.00128404 -0.000231405 0.00381921 0.00109227 0.0057124 -0.0122303)
(0.000436065 -0.00256477 0.00406138 -0.00271081 0.00725495 0.0147474)
(0.00070873 -0.00165658 0.00438904 -0.00132395 0.00783794 0.00510919)
(0.000975649 -0.000932872 0.00414124 -0.000169106 0.00739314 -0.00292669)
(0.0013197 -0.000213568 0.00335962 0.00105751 0.00599505 -0.0122331)
(0.000818418 -0.0022873 0.00347936 -0.00309245 0.00755225 0.014746)
(0.000956053 -0.00147723 0.00376022 -0.00157053 0.00815904 0.00510756)
(0.00111527 -0.000831817 0.00354815 -0.000307904 0.00769605 -0.00292878)
(0.00135219 -0.000190414 0.0028787 0.00102601 0.00624081 -0.0122359)
(0.00115306 -0.00195371 0.00287506 -0.00342618 0.00780297 0.0147456)
(0.0011725 -0.00126157 0.00310744 -0.0017861 0.00842978 0.00510661)
(0.00123749 -0.000710298 0.00293246 -0.000429204 0.00795145 -0.0029304)
(0.00138073 -0.000162569 0.00237935 0.000998493 0.00644806 -0.0122384)
(0.00143195 -0.00157212 0.00225187 -0.00370397 0.00800574 0.0147467)
(0.00135281 -0.00101491 0.00243455 -0.00196545 0.00864864 0.00510681)
(0.00133931 -0.000571396 0.00229784 -0.000530116 0.00815787 -0.00293107)
(0.0014047 -0.000130817 0.00186454 0.00097553 0.00661554 -0.0122402)
(0.00164859 -0.00115185 0.0016131 -0.00391944 0.00815973 0.0147501)
(0.00149252 -0.000743391 0.00174549 -0.0021044 0.00881461 0.00510885)
(0.00141826 -0.000418818 0.00164803 -0.000608548 0.00831432 -0.00293015)
(0.00142383 -9.62527e-05 0.0013371 0.000957308 0.00674233 -0.0122404)
(0.00180151 -0.000702102 0.000961309 -0.00406899 0.0082655 0.0147568)
(0.00158805 -0.000455189 0.00104476 -0.0022016 0.0089281 0.00511306)
(0.00147302 -0.000257283 0.000986871 -0.000665162 0.00842052 -0.00292719)
(0.00143939 -5.99193e-05 0.000799376 0.000939976 0.00682677 -0.0122388)
(0.00183436 -0.000270696 0.000194656 -0.00417383 0.00831134 0.0149195)
(0.00161159 -0.000173686 0.000258389 -0.00227563 0.00899575 0.00523611)
(0.00147888 -9.382e-05 0.000240882 -0.000720245 0.00849722 -0.00280042)
(0.00142273 -1.29643e-05 0.000150265 0.000895512 0.00691321 -0.0120645)
(-0.00757799 -0.000594667 0.00363872 0.0059833 -0.00011807 0.00474533)
(-0.0049529 -0.000453908 0.00676165 0.00543748 5.50392e-05 0.00216836)
(-0.00254776 -0.000322297 0.00663397 0.00504115 5.16627e-05 -0.00113647)
(-0.000313775 -0.000202091 0.00347493 0.004775 -0.000114978 -0.0038728)
(-0.00737812 -0.00158563 0.00366577 0.00588202 0.000432488 0.00471268)
(-0.00478596 -0.00121649 0.0067203 0.00534089 0.000795606 0.00211024)
(-0.00241206 -0.000886832 0.00655015 0.00497038 0.000778053 -0.00119816)
(-0.000205225 -0.000591232 0.00335607 0.00473098 0.000405287 -0.0039162)
(-0.00704488 -0.00260392 0.00362116 0.00554048 0.000719909 0.00470744)
(-0.00452928 -0.00198877 0.00663626 0.00508839 0.00132121 0.00210308)
(-0.00222253 -0.00144918 0.00646763 0.00478552 0.00129002 -0.00120521)
(-7.59044e-05 -0.00096828 0.00331404 0.00460566 0.000665955 -0.00392159)
(-0.00655845 -0.00355452 0.00355303 0.00505267 0.00100231 0.00470579)
(-0.0041583 -0.00271553 0.00651148 0.00471671 0.00183803 0.00210135)
(-0.001952 -0.00197836 0.00634595 0.00451495 0.00179335 -0.00120645)
(0.000104753 -0.00132171 0.00325151 0.00442439 0.000923219 -0.00392199)
(-0.00593062 -0.0044177 0.0034628 0.00442319 0.00127807 0.00470567)
(-0.0036787 -0.00337573 0.00634663 0.00423577 0.00234311 0.00210165)
(-0.00160276 -0.00245954 0.00618531 0.00416449 0.00228534 -0.00120553)
(0.000337791 -0.00164321 0.00316904 0.00419006 0.00117484 -0.00392038)
(-0.00517602 -0.00517234 0.00335103 0.00366717 0.00154568 0.00470639)
(-0.00310195 -0.00395299 0.00614263 0.00365762 0.00283352 0.0021029)
(-0.00118266 -0.00288037 0.00598664 0.00374292 0.00276313 -0.00120368)
(0.000618075 -0.00192439 0.00306719 0.00390814 0.00141925 -0.00391791)
(-0.00431289 -0.00580004 0.00321835 0.00280295 0.0018035 0.00470762)
(-0.00244203 -0.00443307 0.00590067 0.0029965 0.00330629 0.00210459)
(-0.000701868 -0.0032303 0.00575108 0.00326071 0.00322376 -0.00120149)
(0.000938903 -0.00215813 0.00294656 0.00358559 0.00165489 -0.00391523)
(-0.00336219 -0.00628547 0.00306552 0.00185162 0.00204988 0.00470905)
(-0.00171499 -0.00480415 0.00562224 0.00226862 0.00375842 0.00210635)
(-0.000172104 -0.00350063 0.00548012 0.00272976 0.00366433 -0.00119938)
(0.00129245 -0.00233855 0.00280793 0.00323044 0.00188021 -0.00391279)
(-0.00234693 -0.00661686 0.00289357 0.000836375 0.00228312 0.00471036)
(-0.000938394 -0.00505703 0.00530919 0.00149184 0.00418705 0.00210783)
(0.000393643 -0.00368457 0.00517554 0.00216328 0.00408206 -0.00119768)
(0.00166997 -0.00246112 0.00265226 0.00285159 0.00209376 -0.00391093)
(-0.00128925 -0.00678676 0.00270481 -0.000218179 0.00250145 0.00471113)
(-0.00013132 -0.00518533 0.00496409 0.000685457 0.00458952 0.00210869)
(0.000981097 -0.00377758 0.00483957 0.00157562 0.00447447 -0.00119674)
(0.00206194 -0.00252296 0.00248067 0.00245885 0.00229423 -0.00390991)
(-0.000218178 -0.00678676 0.00250145 -0.00128925 0.00270481 0.00471113)
(0.000685458 -0.00518533 0.00458952 -0.000131321 0.00496409 0.00210869)
(0.00157563 -0.00377758 0.00447447 0.000981096 0.00483958 -0.00119674)
(0.00245885 -0.00252296 0.00229422 0.00206194 0.00248067 -0.00390991)
(0.000836376 -0.00661686 0.00228312 -0.00234694 0.00289357 0.00471036)
(0.00149184 -0.00505703 0.00418704 -0.000938395 0.00530919 0.00210783)
(0.00216328 -0.00368457 0.00408206 0.000393642 0.00517554 -0.00119769)
(0.00285159 -0.00246112 0.00209375 0.00166997 0.00265226 -0.00391093)
(0.00185162 -0.00628547 0.00204988 -0.00336219 0.00306552 0.00470905)
(0.00226862 -0.00480415 0.00375842 -0.00171499 0.00562225 0.00210635)
(0.00272977 -0.00350062 0.00366432 -0.000172104 0.00548012 -0.00119938)
(0.00323044 -0.00233855 0.00188021 0.00129245 0.00280793 -0.00391279)
(0.00280295 -0.00580004 0.0018035 -0.00431289 0.00321834 0.00470762)
(0.0029965 -0.00443307 0.00330628 -0.00244203 0.00590067 0.00210459)
(0.00326071 -0.0032303 0.00322375 -0.000701868 0.00575108 -0.0012015)
(0.00358558 -0.00215812 0.00165489 0.000938903 0.00294656 -0.00391524)
(0.00366717 -0.00517234 0.00154567 -0.00517601 0.00335103 0.00470639)
(0.00365762 -0.00395298 0.00283352 -0.00310194 0.00614263 0.0021029)
(0.00374292 -0.00288036 0.00276312 -0.00118266 0.00598663 -0.00120368)
(0.00390813 -0.00192439 0.00141925 0.000618076 0.00306719 -0.00391791)
(0.00442319 -0.0044177 0.00127807 -0.00593062 0.0034628 0.00470567)
(0.00423577 -0.00337573 0.0023431 -0.0036787 0.00634662 0.00210165)
(0.00416449 -0.00245954 0.00228534 -0.00160275 0.00618531 -0.00120553)
(0.00419006 -0.00164321 0.00117484 0.000337792 0.00316904 -0.00392038)
(0.00505266 -0.00355452 0.0010023 -0.00655845 0.00355302 0.00470579)
(0.00471671 -0.00271552 0.00183803 -0.0041583 0.00651148 0.00210135)
(0.00451494 -0.00197836 0.00179334 -0.001952 0.00634594 -0.00120645)
(0.00442439 -0.0013217 0.000923216 0.000104755 0.00325151 -0.00392199)
(0.00554047 -0.00260392 0.000719907 -0.00704488 0.00362116 0.00470744)
(0.00508839 -0.00198877 0.00132121 -0.00452928 0.00663625 0.00210308)
(0.00478551 -0.00144918 0.00129002 -0.00222252 0.00646763 -0.00120521)
(0.00460566 -0.000968279 0.000665953 -7.5902e-05 0.00331404 -0.00392159)
(0.00588202 -0.00158563 0.000432487 -0.00737811 0.00366577 0.00471268)
(0.00534088 -0.00121649 0.000795605 -0.00478595 0.0067203 0.00211024)
(0.00497038 -0.000886831 0.000778052 -0.00241206 0.00655015 -0.00119816)
(0.00473098 -0.000591231 0.000405286 -0.000205222 0.00335607 -0.0039162)
(0.00598329 -0.000594666 -0.00011807 -0.00757799 0.00363872 0.00474533)
(0.00543748 -0.000453908 5.50388e-05 -0.0049529 0.00676164 0.00216836)
(0.00504114 -0.000322297 5.16624e-05 -0.00254776 0.00663397 -0.00113647)
(0.004775 -0.000202091 -0.000114978 -0.000313773 0.00347493 -0.00387281)
(-0.0064432 -0.000715647 0.0022847 0.0104701 -0.000177826 -0.00224594)
(-0.00559899 -0.000653254 0.00398905 0.00972437 -8.52545e-05 -0.00112189)
(-0.00456085 -0.000577534 0.00389476 0.00907989 -8.85452e-05 -0.000389)
(-0.00390888 -0.000519953 0.00206499 0.00852976 -0.000182342 0.000684252)
(-0.00624131 -0.00197809 0.00228486 0.0102997 0.000265253 -0.00222429)
(-0.0053994 -0.0017937 0.00395596 0.00954035 0.000463288 -0.00110996)
(-0.00438018 -0.00159432 0.00383417 0.00890358 0.000451363 -0.000376705)
(-0.00375223 -0.00144788 0.0019901 0.00834905 0.000238969 0.000708169)
(-0.00583215 -0.00325102 0.00225619 0.00987947 0.000447022 -0.00222411)
(-0.00502695 -0.00293656 0.00390628 0.00916955 0.000777053 -0.00110961)
(-0.00404765 -0.00261066 0.00378568 0.00857325 0.000755829 -0.000376144)
(-0.00344969 -0.00237905 0.00196598 0.00805029 0.000397546 0.00070869)
(-0.00522634 -0.00443905 0.00221358 0.0092731 0.000624038 -0.0022244)
(-0.00448054 -0.00401053 0.00383261 0.00862265 0.00108285 -0.0011096)
(-0.00356162 -0.00356544 0.00371433 0.00808756 0.00105218 -0.000375755)
(-0.00300724 -0.00324964 0.00192868 0.00760792 0.000551711 0.00070945)
(-0.00444278 -0.00551798 0.0021572 0.00848874 0.000796238 -0.00222443)
(-0.00377268 -0.00498607 0.00373531 0.00791417 0.00138058 -0.00110911)
(-0.00293245 -0.00443299 0.00362003 0.00745786 0.00134058 -0.000374726)
(-0.00243404 -0.00404043 0.00187944 0.00703418 0.000701324 0.000711016)
(-0.00350029 -0.00646134 0.00208727 0.00754566 0.000963114 -0.00222413)
(-0.0029209 -0.00583908 0.00361492 0.00706169 0.00166924 -0.00110822)
(-0.00217522 -0.00519157 0.00350347 0.00669977 0.00162011 -0.00037322)
(-0.00174412 -0.00473176 0.00181878 0.00634323 0.00084605 0.000713128)
(-0.00242189 -0.00724608 0.00200417 0.00646695 0.00112382 -0.00222359)
(-0.00194605 -0.00654852 0.00347218 0.00608624 0.00194732 -0.00110711)
(-0.00130847 -0.00582233 0.00336541 0.00583212 0.00188935 -0.00037154)
(-0.000954397 -0.00530644 0.00174715 0.00555228 0.00098527 0.000715375)
(-0.00123386 -0.00785296 0.00190842 0.00527901 0.00127727 -0.00222295)
(-0.000871937 -0.00709689 0.003308 0.00501183 0.00221311 -0.00110601)
(-0.00035345 -0.00630965 0.00320676 0.00487635 0.00214671 -0.000369977)
(-8.4312e-05 -0.0057502 0.00166504 0.004681 0.00111821 0.000717388)
(3.49191e-05 -0.00826722 0.00180079 0.0040109 0.0014222 -0.00222239)
(0.000275311 -0.00747058 0.0031236 0.00386489 0.00246486 -0.00110514)
(0.000666344 -0.00664135 0.00302864 0.00385618 0.00239057 -0.000368783)
(0.000844635 -0.00605202 0.00157306 0.00375103 0.00124407 0.000718884)
(0.00135591 -0.00847919 0.00168323 0.00269342 0.00155736 -0.00222207)
(0.00146739 -0.00766011 0.00292073 0.00267383 0.00270098 -0.00110466)
(0.00172535 -0.00680918 0.00283245 0.00279719 0.00261948 -0.000368141)
(0.00180923 -0.00620458 0.0014719 0.00278581 0.00136212 0.000719674)
(0.00269342 -0.00847918 0.00155736 0.00135591 0.00168323 -0.00222207)
(0.00267383 -0.00766011 0.00270098 0.00146738 0.00292074 -0.00110466)
(0.0027972 -0.00680918 0.00261948 0.00172535 0.00283246 -0.000368141)
(0.00278581 -0.00620458 0.00136212 0.00180923 0.0014719 0.000719674)
(0.0040109 -0.00826722 0.0014222 3.49182e-05 0.00180079 -0.00222239)
(0.00386489 -0.00747058 0.00246486 0.00027531 0.0031236 -0.00110514)
(0.00385618 -0.00664135 0.00239057 0.000666343 0.00302865 -0.000368784)
(0.00375103 -0.00605202 0.00124407 0.000844633 0.00157307 0.000718883)
(0.00527901 -0.00785296 0.00127726 -0.00123386 0.00190842 -0.00222295)
(0.00501184 -0.00709689 0.00221311 -0.000871937 0.003308 -0.00110601)
(0.00487635 -0.00630965 0.00214671 -0.000353451 0.00320676 -0.000369978)
(0.004681 -0.0057502 0.00111821 -8.43126e-05 0.00166505 0.000717388)
(0.00646694 -0.00724607 0.00112381 -0.00242189 0.00200417 -0.00222359)
(0.00608624 -0.00654852 0.00194731 -0.00194605 0.00347218 -0.00110711)
(0.00583212 -0.00582233 0.00188935 -0.00130847 0.00336541 -0.00037154)
(0.00555228 -0.00530644 0.000985267 -0.000954397 0.00174715 0.000715374)
(0.00754566 -0.00646134 0.000963112 -0.00350028 0.00208727 -0.00222413)
(0.00706169 -0.00583908 0.00166924 -0.0029209 0.00361492 -0.00110822)
(0.00669977 -0.00519156 0.00162011 -0.00217522 0.00350347 -0.000373221)
(0.00634323 -0.00473175 0.000846048 -0.00174411 0.00181878 0.000713127)
(0.00848874 -0.00551798 0.000796236 -0.00444277 0.00215719 -0.00222443)
(0.00791417 -0.00498607 0.00138058 -0.00377268 0.0037353 -0.00110911)
(0.00745785 -0.00443299 0.00134058 -0.00293245 0.00362003 -0.000374727)
(0.00703417 -0.00404043 0.000701321 -0.00243403 0.00187944 0.000711015)
(0.0092731 -0.00443905 0.000624036 -0.00522634 0.00221358 -0.0022244)
(0.00862265 -0.00401053 0.00108285 -0.00448053 0.00383261 -0.0011096)
(0.00808755 -0.00356543 0.00105218 -0.00356161 0.00371433 -0.000375756)
(0.00760792 -0.00324964 0.000551709 -0.00300724 0.00192868 0.000709449)
(0.00987947 -0.00325102 0.000447021 -0.00583214 0.00225619 -0.00222411)
(0.00916954 -0.00293656 0.000777051 -0.00502694 0.00390628 -0.00110961)
(0.00857324 -0.00261065 0.000755827 -0.00404764 0.00378568 -0.000376145)
(0.00805029 -0.00237905 0.000397544 -0.00344969 0.00196598 0.000708688)
(0.0102997 -0.00197809 0.000265252 -0.0062413 0.00228486 -0.00222429)
(0.00954034 -0.00179369 0.000463287 -0.0053994 0.00395596 -0.00110996)
(0.00890358 -0.00159431 0.000451362 -0.00438017 0.00383417 -0.000376706)
(0.00834905 -0.00144788 0.000238968 -0.00375223 0.0019901 0.000708167)
(0.0104701 -0.000715646 -0.000177826 -0.00644319 0.00228469 -0.00224594)
(0.00972436 -0.000653254 -8.52548e-05 -0.00559898 0.00398904 -0.00112189)
(0.00907989 -0.000577533 -8.85455e-05 -0.00456084 0.00389475 -0.000389001)
(0.00852975 -0.000519952 -0.000182342 -0.00390887 0.00206499 0.000684251)
(-0.00600696 -0.000844622 0.00119434 0.0142882 -0.000167035 -0.00667816)
(-0.00609397 -0.000819642 0.00203816 0.0133616 -0.000120924 -0.00336495)
(-0.00606685 -0.000785074 0.0019707 0.0125123 -0.000123259 -0.000324004)
(-0.00630359 -0.000758471 0.00103491 0.0117405 -0.000169973 0.00292607)
(-0.00577956 -0.00237351 0.00118774 0.0140598 0.000133524 -0.00662433)
(-0.00586635 -0.00227768 0.00201382 0.0131135 0.000232385 -0.00331496)
(-0.00584976 -0.00217277 0.00193322 0.0122589 0.000225369 -0.000271522)
(-0.00609655 -0.0020992 0.000991063 0.0114623 0.000118684 0.00298765)
(-0.00529149 -0.00390052 0.00117265 0.0135588 0.000228588 -0.00662079)
(-0.00539768 -0.00373169 0.00198802 0.0126414 0.000393361 -0.00331051)
(-0.00540144 -0.00355968 0.00190861 0.0118075 0.000380762 -0.000266665)
(-0.0056607 -0.00345242 0.000979052 0.0110293 0.000199691 0.00299232)
(-0.0045659 -0.00532668 0.00115028 0.0128324 0.000321208 -0.00661953)
(-0.00470418 -0.00509692 0.00195006 0.0119463 0.000550024 -0.00330848)
(-0.00473937 -0.00486224 0.00187223 0.0111446 0.000531529 -0.000264079)
(-0.00501927 -0.00471662 0.000960042 0.0103868 0.000277991 0.00299533)
(-0.0036261 -0.00662213 0.00112072 0.0118923 0.000411187 -0.00661923)
(-0.00380487 -0.00633703 0.00190008 0.0110464 0.000702072 -0.00330737)
(-0.00388147 -0.00604548 0.00182415 0.010286 0.000677547 -0.000262272)
(-0.0041873 -0.00586444 0.000934953 0.00955402 0.000353204 0.00299782)
(-0.00249514 -0.007755 0.00108398 0.0107615 0.000498316 -0.00661928)
(-0.0027224 -0.00742143 0.00183831 0.00996377 0.00084916 -0.00330658)
(-0.00284878 -0.00707998 0.00176489 0.00925281 0.000818558 -0.000260727)
(-0.00318573 -0.00686776 0.000904298 0.00855155 0.000425299 0.00300014)
(-0.00120076 -0.00869748 0.00104019 0.00946764 0.000582176 -0.00661941)
(-0.00148339 -0.00832335 0.00176516 0.00872477 0.000990647 -0.00330593)
(-0.00166672 -0.00794019 0.0016949 0.00807029 0.000954028 -0.000259345)
(-0.0020393 -0.00770182 0.000868412 0.00740417 0.000494168 0.00300227)
(0.000225392 -0.00942639 0.000989644 0.00804228 0.000662109 -0.00661952)
(-0.000118164 -0.00902055 0.00168115 0.0073598 0.00112568 -0.00330539)
(-0.000364304 -0.00860482 0.00161473 0.00676756 0.00108325 -0.000258188)
(-0.00077626 -0.00834598 0.000827602 0.00614024 0.000559585 0.00300405)
(0.00174852 -0.00992383 0.000932889 0.00652029 0.000737261 -0.00661961)
(0.00133997 -0.00949565 0.00158702 0.00590236 0.00125331 -0.003305)
(0.00102642 -0.0090573 0.00152502 0.0053768 0.00120546 -0.000257355)
(0.000572202 -0.00878426 0.000782209 0.00479102 0.000621263 0.00300533)
(0.0033337 -0.0101779 0.000871533 0.00493873 0.000806775 -0.00661966)
(0.00285503 -0.00973658 0.00148392 0.0043885 0.00137273 -0.00330481)
(0.00247073 -0.00928632 0.00142656 0.00393268 0.00131999 -0.000256922)
(0.00197252 -0.00900593 0.000732592 0.00339023 0.000678951 0.003006)
(0.00493873 -0.0101779 0.000806773 0.0033337 0.000871534 -0.00661966)
(0.0043885 -0.00973658 0.00137273 0.00285502 0.00148392 -0.00330481)
(0.00393269 -0.00928632 0.00131998 0.00247073 0.00142656 -0.000256922)
(0.00339023 -0.00900592 0.000678949 0.00197252 0.000732594 0.003006)
(0.00652029 -0.00992383 0.000737259 0.00174852 0.00093289 -0.00661961)
(0.00590236 -0.00949565 0.00125331 0.00133997 0.00158702 -0.003305)
(0.0053768 -0.0090573 0.00120545 0.00102642 0.00152502 -0.000257355)
(0.00479102 -0.00878425 0.00062126 0.0005722 0.000782211 0.00300533)
(0.00804228 -0.00942638 0.000662107 0.000225392 0.000989644 -0.00661952)
(0.0073598 -0.00902054 0.00112568 -0.000118164 0.00168115 -0.00330539)
(0.00676757 -0.00860481 0.00108325 -0.000364305 0.00161473 -0.000258188)
(0.00614024 -0.00834598 0.000559583 -0.000776261 0.000827603 0.00300405)
(0.00946764 -0.00869748 0.000582173 -0.00120075 0.00104019 -0.00661941)
(0.00872477 -0.00832335 0.000990644 -0.00148339 0.00176516 -0.00330593)
(0.00807029 -0.00794019 0.000954025 -0.00166672 0.0016949 -0.000259345)
(0.00740417 -0.00770182 0.000494166 -0.0020393 0.000868412 0.00300226)
(0.0107615 -0.007755 0.000498314 -0.00249513 0.00108398 -0.00661928)
(0.00996377 -0.00742142 0.000849158 -0.0027224 0.00183831 -0.00330658)
(0.00925281 -0.00707998 0.000818555 -0.00284878 0.00176488 -0.000260727)
(0.00855155 -0.00686776 0.000425297 -0.00318573 0.000904299 0.00300014)
(0.0118923 -0.00662213 0.000411185 -0.0036261 0.00112072 -0.00661923)
(0.0110464 -0.00633702 0.000702069 -0.00380486 0.00190008 -0.00330737)
(0.010286 -0.00604547 0.000677545 -0.00388146 0.00182415 -0.000262272)
(0.00955401 -0.00586443 0.000353202 -0.00418729 0.000934952 0.00299782)
(0.0128324 -0.00532667 0.000321207 -0.0045659 0.00115028 -0.00661953)
(0.0119463 -0.00509691 0.000550023 -0.00470417 0.00195006 -0.00330848)
(0.0111446 -0.00486223 0.000531527 -0.00473937 0.00187223 -0.000264079)
(0.0103868 -0.00471661 0.000277989 -0.00501927 0.000960041 0.00299533)
(0.0135588 -0.00390052 0.000228587 -0.00529148 0.00117265 -0.00662079)
(0.0126413 -0.00373168 0.00039336 -0.00539768 0.00198802 -0.00331051)
(0.0118075 -0.00355968 0.000380761 -0.00540143 0.00190861 -0.000266665)
(0.0110293 -0.00345242 0.00019969 -0.0056607 0.000979051 0.00299232)
(0.0140598 -0.00237351 0.000133523 -0.00577955 0.00118774 -0.00662433)
(0.0131135 -0.00227768 0.000232384 -0.00586634 0.00201382 -0.00331496)
(0.0122589 -0.00217277 0.000225369 -0.00584975 0.00193322 -0.000271522)
(0.0114623 -0.00209919 0.000118684 -0.00609654 0.000991062 0.00298764)
(0.0142881 -0.000844621 -0.000167036 -0.00600695 0.00119434 -0.00667816)
(0.0133616 -0.000819641 -0.000120925 -0.00609396 0.00203816 -0.00336495)
(0.0125123 -0.000785073 -0.000123259 -0.00606684 0.0019707 -0.000324004)
(0.0117405 -0.00075847 -0.000169973 -0.00630359 0.00103491 0.00292607)
(-0.00597507 -0.000944266 0.000390957 0.0168616 -0.000111777 -0.00892451)
(-0.00650011 -0.00093552 0.00066665 0.0158071 -9.60945e-05 -0.00461921)
(-0.00695699 -0.000918892 0.000637254 0.0148224 -9.67018e-05 -0.000525964)
(-0.00760629 -0.000904866 0.000320172 0.0139112 -0.000111479 0.00369012)
(-0.00572415 -0.00267134 0.000384445 0.0165965 3.83683e-05 -0.00885708)
(-0.0062486 -0.00261251 0.000653476 0.0155194 7.25688e-05 -0.00455305)
(-0.00671237 -0.00254783 0.000619673 0.0145233 7.12535e-05 -0.000456617)
(-0.00736463 -0.002503 0.000301136 0.0135767 3.72628e-05 0.00376697)
(-0.00517584 -0.00438935 0.000379694 0.0160346 6.8339e-05 -0.00885244)
(-0.00571243 -0.00428087 0.000644589 0.0149776 0.000124829 -0.00454755)
(-0.00618795 -0.00417482 0.000611159 0.0139933 0.000121944 -0.000450651)
(-0.00684531 -0.00411745 0.000296995 0.01306 6.34958e-05 0.00377294)
(-0.00435994 -0.0059944 0.000372411 0.0152179 9.81411e-05 -0.00885039)
(-0.00491701 -0.0058468 0.000631628 0.01418 0.000175869 -0.00454462)
(-0.00541132 -0.00570251 0.00059866 0.013215 0.00017097 -0.000447092)
(-0.00608016 -0.00562527 0.000290377 0.0122928 8.85538e-05 0.00377708)
(-0.00330263 -0.00745265 0.00036257 0.0141608 0.000127448 -0.00884988)
(-0.00388545 -0.00726927 0.000614635 0.013148 0.000225322 -0.00454315)
(-0.00440501 -0.00708998 0.000582297 0.0122078 0.000218045 -0.000444825)
(-0.00508769 -0.00699388 0.000281845 0.011299 0.00011199 0.00378018)
(-0.00202997 -0.00872812 0.00035009 0.012889 0.000156088 -0.00885018)
(-0.00264382 -0.00851317 0.000593732 0.0119065 0.000273046 -0.00454244)
(-0.00319386 -0.00830293 0.000562397 0.0109962 0.000263094 -0.00044325)
(-0.00389306 -0.00819004 0.000271785 0.0101032 0.000133783 0.00378268)
(-0.000573207 -0.00978936 0.000334972 0.0114335 0.000183806 -0.00885082)
(-0.00122264 -0.0095478 0.000569099 0.0104858 0.000318823 -0.00454212)
(-0.00180764 -0.00931149 0.000539237 0.00960979 0.000306006 -0.000442087)
(-0.00252579 -0.00918435 0.000260456 0.008735 0.000154009 0.00378474)
(0.00103199 -0.0106102 0.000317339 0.00982974 0.000210174 -0.00885152)
(0.000343287 -0.0103476 0.000540995 0.00892059 0.000362318 -0.00454199)
(-0.000280395 -0.0100908 0.000513099 0.00808251 0.000346611 -0.000441234)
(-0.00101957 -0.00995232 0.000248062 0.007228 0.000172737 0.00378637)
(0.00274638 -0.0111703 0.000297542 0.00811681 0.000234598 -0.00885212)
(0.00201575 -0.0108927 0.00050983 0.00724908 0.00040313 -0.00454197)
(0.00135035 -0.0106214 0.000484315 0.00645192 0.000384705 -0.000440668)
(0.000588449 -0.0104749 0.000234787 0.00561935 0.000190017 0.00378751)
(0.00453025 -0.0114561 0.000276948 0.00633653 0.000256487 -0.00885246)
(0.00375352 -0.0111691 0.000476355 0.00551258 0.000440989 -0.00454198)
(0.00304404 -0.01089 0.000453291 0.00475853 0.000420187 -0.000440389)
(0.00225837 -0.0107393 0.000220767 0.00394906 0.000205943 0.00378809)
(0.00633654 -0.0114561 0.000256486 0.00453025 0.000276949 -0.00885246)
(0.00551259 -0.0111691 0.000440988 0.00375352 0.000476356 -0.00454198)
(0.00475853 -0.01089 0.000420185 0.00304404 0.000453292 -0.000440389)
(0.00394906 -0.0107393 0.000205942 0.00225837 0.000220768 0.00378809)
(0.00811681 -0.0111703 0.000234596 0.00274638 0.000297543 -0.00885212)
(0.00724909 -0.0108927 0.000403129 0.00201574 0.000509831 -0.00454197)
(0.00645192 -0.0106214 0.000384704 0.00135035 0.000484316 -0.000440668)
(0.00561935 -0.0104749 0.000190015 0.000588447 0.000234788 0.00378751)
(0.00982974 -0.0106102 0.000210173 0.00103199 0.00031734 -0.00885152)
(0.00892059 -0.0103476 0.000362317 0.000343286 0.000540995 -0.00454199)
(0.00808251 -0.0100908 0.000346609 -0.000280396 0.000513099 -0.000441234)
(0.007228 -0.00995232 0.000172736 -0.00101957 0.000248063 0.00378637)
(0.0114335 -0.00978936 0.000183804 -0.000573205 0.000334973 -0.00885082)
(0.0104858 -0.00954779 0.000318821 -0.00122264 0.0005691 -0.00454212)
(0.00960979 -0.00931148 0.000306005 -0.00180764 0.000539237 -0.000442087)
(0.008735 -0.00918435 0.000154008 -0.00252579 0.000260456 0.00378474)
(0.012889 -0.00872811 0.000156087 -0.00202996 0.000350091 -0.00885018)
(0.0119065 -0.00851316 0.000273045 -0.00264382 0.000593732 -0.00454244)
(0.0109962 -0.00830293 0.000263092 -0.00319386 0.000562397 -0.00044325)
(0.0101032 -0.00819003 0.000133781 -0.00389305 0.000271786 0.00378268)
(0.0141608 -0.00745265 0.000127447 -0.00330263 0.00036257 -0.00884988)
(0.013148 -0.00726926 0.00022532 -0.00388545 0.000614635 -0.00454315)
(0.0122078 -0.00708997 0.000218044 -0.00440501 0.000582297 -0.000444825)
(0.011299 -0.00699388 0.000111989 -0.00508768 0.000281845 0.00378018)
(0.0152179 -0.00599439 9.81401e-05 -0.00435993 0.000372411 -0.00885039)
(0.01418 -0.00584679 0.000175868 -0.004917 0.000631628 -0.00454462)
(0.013215 -0.0057025 0.000170969 -0.00541131 0.000598659 -0.000447092)
(0.0122928 -0.00562526 8.85529e-05 -0.00608016 0.000290377 0.00377708)
(0.0160346 -0.00438935 6.83383e-05 -0.00517583 0.000379694 -0.00885244)
(0.0149776 -0.00428086 0.000124828 -0.00571242 0.000644588 -0.00454754)
(0.0139933 -0.00417482 0.000121944 -0.00618794 0.000611158 -0.00045065)
(0.01306 -0.00411744 6.34951e-05 -0.00684531 0.000296995 0.00377294)
(0.0165965 -0.00267133 3.83679e-05 -0.00572413 0.000384445 -0.00885708)
(0.0155193 -0.00261251 7.25683e-05 -0.00624858 0.000653475 -0.00455305)
(0.0145232 -0.00254783 7.1253e-05 -0.00671236 0.000619672 -0.000456617)
(0.0135767 -0.002503 3.72623e-05 -0.00736463 0.000301136 0.00376697)
(0.0168616 -0.000944265 -0.000111777 -0.00597506 0.000390957 -0.00892451)
(0.0158071 -0.000935519 -9.60947e-05 -0.0065001 0.000666649 -0.00461921)
(0.0148224 -0.000918891 -9.6702e-05 -0.00695698 0.000637253 -0.000525963)
(0.0139112 -0.000904865 -0.000111479 -0.00760628 0.000320172 0.00369012)
(-0.00604217 -0.000990411 -0.000200673 0.0179495 -3.69757e-05 -0.00945291)
(-0.00665951 -0.000984361 -0.000323528 0.0168417 -4.29126e-05 -0.00502207)
(-0.00723949 -0.000971517 -0.000318159 0.0158038 -4.20074e-05 -0.00076685)
(-0.00797258 -0.000958744 -0.000189777 0.0148406 -3.41075e-05 0.00356266)
(-0.00577845 -0.00280728 -0.000204127 0.0176714 -3.04204e-05 -0.0093847)
(-0.00639609 -0.00275372 -0.000325428 0.0165398 -4.15177e-05 -0.00495417)
(-0.00698211 -0.00269687 -0.000318462 0.0154888 -3.79064e-05 -0.000695853)
(-0.00771571 -0.0026542 -0.000188431 0.0144876 -1.96914e-05 0.00363986)
(-0.00520236 -0.0046125 -0.000201341 0.0170823 -4.89242e-05 -0.0093802)