/*--------------------------------*- C++ -*----------------------------------*\
| =========                 |                                                 |
| \\      /  F ield         | foam-extend: Open Source CFD                    |
|  \\    /   O peration     | Version:     3.1                                |
|   \\  /    A nd           | Web:         http://www.extend-project.de       |
|    \\/     M anipulation  |                                                 |
\*---------------------------------------------------------------------------*/
FoamFile
{
    version     2.0;
    format      ascii;
    class       pointVectorField;
    location    "0.0012";
    object      pointD;
}
// * * * * * * * * * * * * * * * * * * * * * * * * * * * * * * * * * * * * * //

dimensions      [0 1 0 0 0 0 0];

internalField   nonuniform List<vector> 
8505
(
(0 0 0)
(0 0 0)
(0 0 0)
(0 0 0)
(0 0 0)
(0 0 0)
(0 0 0)
(0 0 0)
(0 0 0)
(0 0 0)
(0 0 0)
(0 0 0)
(0 0 0)
(0 0 0)
(0 0 0)
(0 0 0)
(0 0 0)
(0 0 0)
(0 0 0)
(0 0 0)
(0 0 0)
(0 0 0)
(0 0 0)
(0 0 0)
(0 0 0)
(0 0 0)
(0 0 0)
(0 0 0)
(0 0 0)
(0 0 0)
(0 0 0)
(0 0 0)
(0 0 0)
(0 0 0)
(0 0 0)
(0 0 0)
(0 0 0)
(0 0 0)
(0 0 0)
(0 0 0)
(0 0 0)
(0 0 0)
(0 0 0)
(0 0 0)
(0 0 0)
(0 0 0)
(0 0 0)
(0 0 0)
(0 0 0)
(0 0 0)
(0 0 0)
(0 0 0)
(0 0 0)
(0 0 0)
(0 0 0)
(0 0 0)
(0 0 0)
(0 0 0)
(0 0 0)
(0 0 0)
(0 0 0)
(0 0 0)
(0 0 0)
(0 0 0)
(0 0 0)
(0 0 0)
(0 0 0)
(0 0 0)
(0 0 0)
(0 0 0)
(0 0 0)
(0 0 0)
(0 0 0)
(0 0 0)
(0 0 0)
(0 0 0)
(0 0 0)
(0 0 0)
(0 0 0)
(0 0 0)
(0 0 0)
(0 0 0)
(0 0 0)
(0 0 0)
(0 0 0)
(0 0 0)
(0 0 0)
(0 0 0)
(0 0 0)
(0 0 0)
(0 0 0)
(0 0 0)
(0 0 0)
(0 0 0)
(0 0 0)
(0 0 0)
(0 0 0)
(0 0 0)
(0 0 0)
(0 0 0)
(0 0 0)
(0 0 0)
(0 0 0)
(0 0 0)
(0 0 0)
(2.03185e-05 0 1.29961e-05)
(1.82106e-05 0 5.90892e-06)
(1.70568e-05 0 8.26135e-07)
(1.66821e-05 0 -4.134e-06)
(1.71132e-05 0 -1.06838e-05)
(2.01758e-05 1.55794e-06 1.27588e-05)
(1.81038e-05 1.40677e-06 5.74944e-06)
(1.69778e-05 1.32177e-06 6.84429e-07)
(1.66293e-05 1.29499e-06 -4.30395e-06)
(1.70921e-05 1.32991e-06 -1.09458e-05)
(1.99775e-05 3.14823e-06 1.2752e-05)
(1.7928e-05 2.8267e-06 5.74563e-06)
(1.68152e-05 2.65324e-06 6.81651e-07)
(1.6473e-05 2.60078e-06 -4.30622e-06)
(1.6936e-05 2.67498e-06 -1.09469e-05)
(1.96636e-05 4.71027e-06 1.27484e-05)
(1.7647e-05 4.22787e-06 5.74322e-06)
(1.6552e-05 3.96706e-06 6.80114e-07)
(1.62156e-05 3.88804e-06 -4.30705e-06)
(1.66717e-05 3.99873e-06 -1.09468e-05)
(1.92306e-05 6.24091e-06 1.27468e-05)
(1.72586e-05 5.60161e-06 5.74234e-06)
(1.61877e-05 5.25543e-06 6.79841e-07)
(1.58588e-05 5.15014e-06 -4.3067e-06)
(1.63048e-05 5.29619e-06 -1.09457e-05)
(1.868e-05 7.73162e-06 1.27464e-05)
(1.67643e-05 6.93969e-06 5.74244e-06)
(1.5724e-05 6.51047e-06 6.80379e-07)
(1.54044e-05 6.37957e-06 -4.30565e-06)
(1.58375e-05 6.56007e-06 -1.09439e-05)
(1.80145e-05 9.1737e-06 1.27469e-05)
(1.61668e-05 8.2341e-06 5.74315e-06)
(1.51634e-05 7.72454e-06 6.81388e-07)
(1.4855e-05 7.56884e-06 -4.30423e-06)
(1.52725e-05 7.78269e-06 -1.09419e-05)
(1.72381e-05 1.05586e-05 1.27481e-05)
(1.54697e-05 9.4771e-06 5.74426e-06)
(1.45093e-05 8.8903e-06 6.82633e-07)
(1.4214e-05 8.71073e-06 -4.30267e-06)
(1.46133e-05 8.95654e-06 -1.09398e-05)
(1.63555e-05 1.18782e-05 1.27497e-05)
(1.46771e-05 1.06613e-05 5.74557e-06)
(1.37658e-05 1.00007e-05 6.8391e-07)
(1.34855e-05 9.79833e-06 -4.30122e-06)
(1.38642e-05 1.00745e-05 -1.09378e-05)
(1.53719e-05 1.31247e-05 1.27516e-05)
(1.37941e-05 1.17797e-05 5.74687e-06)
(1.29376e-05 1.10493e-05 6.84973e-07)
(1.26743e-05 1.08252e-05 -4.30012e-06)
(1.30303e-05 1.113e-05 -1.09364e-05)
(1.42922e-05 1.42922e-05 1.27527e-05)
(1.2826e-05 1.2826e-05 5.74748e-06)
(1.20301e-05 1.20301e-05 6.85413e-07)
(1.17856e-05 1.17857e-05 -4.2997e-06)
(1.2117e-05 1.2117e-05 -1.09359e-05)
(1.31247e-05 1.53719e-05 1.27516e-05)
(1.17797e-05 1.37941e-05 5.74687e-06)
(1.10493e-05 1.29376e-05 6.84973e-07)
(1.08252e-05 1.26743e-05 -4.30012e-06)
(1.113e-05 1.30303e-05 -1.09364e-05)
(1.18782e-05 1.63555e-05 1.27497e-05)
(1.06613e-05 1.46771e-05 5.74557e-06)
(1.00007e-05 1.37658e-05 6.8391e-07)
(9.79833e-06 1.34855e-05 -4.30122e-06)
(1.00745e-05 1.38642e-05 -1.09378e-05)
(1.05586e-05 1.72381e-05 1.27481e-05)
(9.4771e-06 1.54697e-05 5.74426e-06)
(8.89029e-06 1.45093e-05 6.82632e-07)
(8.71073e-06 1.4214e-05 -4.30267e-06)
(8.95654e-06 1.46133e-05 -1.09398e-05)
(9.17369e-06 1.80145e-05 1.27469e-05)
(8.2341e-06 1.61668e-05 5.74315e-06)
(7.72453e-06 1.51634e-05 6.81388e-07)
(7.56884e-06 1.4855e-05 -4.30423e-06)
(7.78268e-06 1.52725e-05 -1.09419e-05)
(7.73162e-06 1.86799e-05 1.27464e-05)
(6.93969e-06 1.67643e-05 5.74244e-06)
(6.51046e-06 1.5724e-05 6.80379e-07)
(6.37956e-06 1.54044e-05 -4.30565e-06)
(6.56007e-06 1.58375e-05 -1.09439e-05)
(6.24091e-06 1.92306e-05 1.27468e-05)
(5.60161e-06 1.72586e-05 5.74234e-06)
(5.25543e-06 1.61877e-05 6.79841e-07)
(5.15014e-06 1.58588e-05 -4.3067e-06)
(5.29619e-06 1.63048e-05 -1.09457e-05)
(4.71027e-06 1.96636e-05 1.27484e-05)
(4.22787e-06 1.7647e-05 5.74322e-06)
(3.96706e-06 1.65519e-05 6.80113e-07)
(3.88804e-06 1.62156e-05 -4.30705e-06)
(3.99873e-06 1.66717e-05 -1.09468e-05)
(3.14823e-06 1.99774e-05 1.2752e-05)
(2.8267e-06 1.79279e-05 5.74563e-06)
(2.65324e-06 1.68152e-05 6.8165e-07)
(2.60078e-06 1.6473e-05 -4.30622e-06)
(2.67497e-06 1.69359e-05 -1.09469e-05)
(1.55794e-06 2.01758e-05 1.27588e-05)
(1.40677e-06 1.81038e-05 5.74944e-06)
(1.32177e-06 1.69778e-05 6.84428e-07)
(1.29499e-06 1.66293e-05 -4.30395e-06)
(1.32991e-06 1.70921e-05 -1.09458e-05)
(0 2.03185e-05 1.29961e-05)
(0 1.82106e-05 5.90892e-06)
(0 1.70568e-05 8.26134e-07)
(0 1.66821e-05 -4.134e-06)
(0 1.71132e-05 -1.06838e-05)
(4.37559e-05 0 1.65527e-05)
(4.20447e-05 0 8.32908e-06)
(4.06939e-05 0 1.19796e-06)
(3.97688e-05 0 -5.84099e-06)
(3.91566e-05 0 -1.37595e-05)
(4.35653e-05 3.40618e-06 1.63035e-05)
(4.18633e-05 3.28545e-06 8.11016e-06)
(4.05288e-05 3.18537e-06 9.84484e-07)
(3.96195e-05 3.11798e-06 -6.07924e-06)
(3.90163e-05 3.07585e-06 -1.40507e-05)
(4.31526e-05 6.82093e-06 1.62936e-05)
(4.14656e-05 6.55824e-06 8.09966e-06)
(4.01451e-05 6.35353e-06 9.74408e-07)
(3.92462e-05 6.21511e-06 -6.0884e-06)
(3.86498e-05 6.12419e-06 -1.40562e-05)
(4.24779e-05 1.01865e-05 1.62886e-05)
(4.08177e-05 9.79116e-06 8.0953e-06)
(3.95178e-05 9.48272e-06 9.70909e-07)
(3.86331e-05 9.27381e-06 -6.0907e-06)
(3.80459e-05 9.13597e-06 -1.40568e-05)
(4.15435e-05 1.3488e-05 1.62865e-05)
(3.99198e-05 1.29633e-05 8.09406e-06)
(3.86484e-05 1.25534e-05 9.70578e-07)
(3.77829e-05 1.22754e-05 -6.08997e-06)
(3.72084e-05 1.20915e-05 -1.40549e-05)
(4.0354e-05 1.67055e-05 1.62863e-05)
(3.87766e-05 1.6055e-05 8.09455e-06)
(3.75414e-05 1.55464e-05 9.71884e-07)
(3.67004e-05 1.52011e-05 -6.08773e-06)
(3.6142e-05 1.49724e-05 -1.40515e-05)
(3.89161e-05 1.98194e-05 1.62873e-05)
(3.73946e-05 1.90472e-05 8.09608e-06)
(3.62031e-05 1.84431e-05 9.74039e-07)
(3.53918e-05 1.80326e-05 -6.08479e-06)
(3.4853e-05 1.77606e-05 -1.40476e-05)
(3.72386e-05 2.28108e-05 1.62892e-05)
(3.57822e-05 2.19216e-05 8.09818e-06)
(3.46418e-05 2.12256e-05 9.76541e-07)
(3.38652e-05 2.07524e-05 -6.0817e-06)
(3.33494e-05 2.04388e-05 -1.40437e-05)
(3.53315e-05 2.56615e-05 1.62916e-05)
(3.39493e-05 2.46607e-05 8.10049e-06)
(3.2867e-05 2.3877e-05 9.7897e-07)
(3.21302e-05 2.33439e-05 -6.0789e-06)
(3.16407e-05 2.29903e-05 -1.40404e-05)
(3.32064e-05 2.83548e-05 1.62943e-05)
(3.1907e-05 2.7248e-05 8.10253e-06)
(3.08901e-05 2.63812e-05 9.80855e-07)
(3.01978e-05 2.57913e-05 -6.07689e-06)
(2.9738e-05 2.53999e-05 -1.4038e-05)
(3.08754e-05 3.08754e-05 1.62956e-05)
(2.96684e-05 2.96684e-05 8.10341e-06)
(2.87235e-05 2.87236e-05 9.81595e-07)
(2.80804e-05 2.80804e-05 -6.07614e-06)
(2.76535e-05 2.76535e-05 -1.40371e-05)
(2.83547e-05 3.32064e-05 1.62943e-05)
(2.7248e-05 3.1907e-05 8.10253e-06)
(2.63812e-05 3.08901e-05 9.80855e-07)
(2.57913e-05 3.01978e-05 -6.07689e-06)
(2.53999e-05 2.9738e-05 -1.4038e-05)
(2.56615e-05 3.53315e-05 1.62916e-05)
(2.46607e-05 3.39493e-05 8.10049e-06)
(2.3877e-05 3.2867e-05 9.7897e-07)
(2.33439e-05 3.21302e-05 -6.0789e-06)
(2.29903e-05 3.16407e-05 -1.40404e-05)
(2.28108e-05 3.72386e-05 1.62892e-05)
(2.19216e-05 3.57822e-05 8.09818e-06)
(2.12256e-05 3.46418e-05 9.7654e-07)
(2.07524e-05 3.38652e-05 -6.0817e-06)
(2.04387e-05 3.33494e-05 -1.40437e-05)
(1.98194e-05 3.89161e-05 1.62873e-05)
(1.90472e-05 3.73946e-05 8.09607e-06)
(1.84431e-05 3.62031e-05 9.74038e-07)
(1.80326e-05 3.53918e-05 -6.08479e-06)
(1.77606e-05 3.4853e-05 -1.40476e-05)
(1.67055e-05 4.03539e-05 1.62863e-05)
(1.6055e-05 3.87766e-05 8.09455e-06)
(1.55464e-05 3.75413e-05 9.71883e-07)
(1.52011e-05 3.67004e-05 -6.08773e-06)
(1.49724e-05 3.6142e-05 -1.40515e-05)
(1.3488e-05 4.15435e-05 1.62865e-05)
(1.29633e-05 3.99198e-05 8.09405e-06)
(1.25534e-05 3.86484e-05 9.70577e-07)
(1.22754e-05 3.77829e-05 -6.08997e-06)
(1.20915e-05 3.72084e-05 -1.40549e-05)
(1.01865e-05 4.24779e-05 1.62886e-05)
(9.79115e-06 4.08177e-05 8.0953e-06)
(9.48272e-06 3.95178e-05 9.70908e-07)
(9.27381e-06 3.86331e-05 -6.09071e-06)
(9.13596e-06 3.80459e-05 -1.40568e-05)
(6.82093e-06 4.31525e-05 1.62936e-05)
(6.55824e-06 4.14656e-05 8.09966e-06)
(6.35353e-06 4.01451e-05 9.74406e-07)
(6.21511e-06 3.92462e-05 -6.0884e-06)
(6.12418e-06 3.86498e-05 -1.40562e-05)
(3.40617e-06 4.35653e-05 1.63035e-05)
(3.28545e-06 4.18633e-05 8.11015e-06)
(3.18537e-06 4.05288e-05 9.84483e-07)
(3.11797e-06 3.96194e-05 -6.07924e-06)
(3.07585e-06 3.90163e-05 -1.40507e-05)
(0 4.37558e-05 1.65527e-05)
(0 4.20447e-05 8.32908e-06)
(0 4.06939e-05 1.19796e-06)
(0 3.97688e-05 -5.84099e-06)
(0 3.91566e-05 -1.37595e-05)
(6.58787e-05 0 1.4656e-05)
(6.43532e-05 0 7.38404e-06)
(6.28844e-05 0 7.22667e-07)
(6.15103e-05 0 -5.86997e-06)
(6.0155e-05 0 -1.29109e-05)
(6.56309e-05 5.14928e-06 1.44422e-05)
(6.41053e-05 5.04111e-06 7.18303e-06)
(6.26411e-05 4.93213e-06 5.19991e-07)
(6.12711e-05 4.83097e-06 -6.08965e-06)
(5.99167e-05 4.73728e-06 -1.31619e-05)
(6.50163e-05 1.02856e-05 1.44326e-05)
(6.35022e-05 1.00513e-05 7.17319e-06)
(6.20505e-05 9.82755e-06 5.10422e-07)
(6.06928e-05 9.61873e-06 -6.098e-06)
(5.93508e-05 9.4127e-06 -1.31673e-05)
(6.4002e-05 1.53527e-05 1.44273e-05)
(6.25112e-05 1.49998e-05 7.16864e-06)
(6.10814e-05 1.4662e-05 5.06842e-07)
(5.97443e-05 1.43466e-05 -6.10015e-06)
(5.84224e-05 1.40348e-05 -1.31677e-05)
(6.25944e-05 2.03244e-05 1.4425e-05)
(6.1136e-05 1.98553e-05 7.1674e-06)
(5.97371e-05 1.9406e-05 5.06799e-07)
(5.84289e-05 1.89861e-05 -6.09881e-06)
(5.71355e-05 1.85708e-05 -1.31648e-05)
(6.08017e-05 2.51704e-05 1.44246e-05)
(5.93846e-05 2.45882e-05 7.16817e-06)
(5.80253e-05 2.40301e-05 5.08752e-07)
(5.6754e-05 2.35085e-05 -6.09554e-06)
(5.54972e-05 2.29925e-05 -1.31601e-05)
(5.86346e-05 2.98611e-05 1.44257e-05)
(5.72675e-05 2.91693e-05 7.17015e-06)
(5.59562e-05 2.85059e-05 5.11757e-07)
(5.47298e-05 2.78857e-05 -6.09137e-06)
(5.35174e-05 2.72723e-05 -1.31546e-05)
(5.61064e-05 3.43679e-05 1.44278e-05)
(5.47977e-05 3.35706e-05 7.17281e-06)
(5.35426e-05 3.28059e-05 5.15148e-07)
(5.23688e-05 3.20908e-05 -6.08705e-06)
(5.12084e-05 3.13836e-05 -1.31492e-05)
(5.32324e-05 3.86633e-05 1.44306e-05)
(5.19904e-05 3.77653e-05 7.17564e-06)
(5.07994e-05 3.69037e-05 5.18349e-07)
(4.96858e-05 3.6098e-05 -6.08324e-06)
(4.85847e-05 3.53012e-05 -1.31445e-05)
(5.00303e-05 4.27214e-05 1.44335e-05)
(4.88628e-05 4.17279e-05 7.17805e-06)
(4.77438e-05 4.07746e-05 5.20753e-07)
(4.66976e-05 3.9883e-05 -6.08055e-06)
(4.56632e-05 3.90014e-05 -1.31414e-05)
(4.65188e-05 4.65188e-05 1.44348e-05)
(4.54347e-05 4.54347e-05 7.17905e-06)
(4.43952e-05 4.43952e-05 5.21675e-07)
(4.34232e-05 4.34232e-05 -6.07957e-06)
(4.24622e-05 4.24622e-05 -1.31402e-05)
(4.27214e-05 5.00303e-05 1.44335e-05)
(4.17279e-05 4.88628e-05 7.17805e-06)
(4.07746e-05 4.77438e-05 5.20753e-07)
(3.98829e-05 4.66976e-05 -6.08055e-06)
(3.90014e-05 4.56632e-05 -1.31414e-05)
(3.86633e-05 5.32324e-05 1.44306e-05)
(3.77653e-05 5.19904e-05 7.17564e-06)
(3.69037e-05 5.07994e-05 5.18348e-07)
(3.60979e-05 4.96858e-05 -6.08324e-06)
(3.53012e-05 4.85847e-05 -1.31445e-05)
(3.43679e-05 5.61063e-05 1.44278e-05)
(3.35706e-05 5.47977e-05 7.17281e-06)
(3.28059e-05 5.35426e-05 5.15147e-07)
(3.20907e-05 5.23688e-05 -6.08705e-06)
(3.13836e-05 5.12084e-05 -1.31492e-05)
(2.98611e-05 5.86346e-05 1.44257e-05)
(2.91693e-05 5.72675e-05 7.17015e-06)
(2.85059e-05 5.59562e-05 5.11756e-07)
(2.78857e-05 5.47298e-05 -6.09137e-06)
(2.72723e-05 5.35174e-05 -1.31546e-05)
(2.51704e-05 6.08016e-05 1.44246e-05)
(2.45882e-05 5.93845e-05 7.16816e-06)
(2.40301e-05 5.80253e-05 5.08751e-07)
(2.35084e-05 5.6754e-05 -6.09554e-06)
(2.29925e-05 5.54972e-05 -1.31601e-05)
(2.03244e-05 6.25944e-05 1.4425e-05)
(1.98553e-05 6.11359e-05 7.1674e-06)
(1.9406e-05 5.97371e-05 5.06798e-07)
(1.89861e-05 5.84289e-05 -6.09881e-06)
(1.85708e-05 5.71355e-05 -1.31648e-05)
(1.53527e-05 6.40019e-05 1.44273e-05)
(1.49998e-05 6.25112e-05 7.16864e-06)
(1.4662e-05 6.10814e-05 5.0684e-07)
(1.43466e-05 5.97443e-05 -6.10015e-06)
(1.40347e-05 5.84224e-05 -1.31677e-05)
(1.02856e-05 6.50162e-05 1.44326e-05)
(1.00513e-05 6.35022e-05 7.17318e-06)
(9.82754e-06 6.20505e-05 5.1042e-07)
(9.61872e-06 6.06927e-05 -6.098e-06)
(9.41269e-06 5.93508e-05 -1.31673e-05)
(5.14928e-06 6.56308e-05 1.44422e-05)
(5.04111e-06 6.41053e-05 7.18303e-06)
(4.93212e-06 6.2641e-05 5.19989e-07)
(4.83097e-06 6.12711e-05 -6.08965e-06)
(4.73728e-06 5.99167e-05 -1.31619e-05)
(0 6.58787e-05 1.4656e-05)
(0 6.43532e-05 7.38404e-06)
(0 6.28843e-05 7.22665e-07)
(0 6.15103e-05 -5.86997e-06)
(0 6.0155e-05 -1.29109e-05)
(8.27384e-05 0 9.3212e-06)
(8.12496e-05 0 4.28885e-06)
(7.96573e-05 0 -4.61783e-07)
(7.79849e-05 0 -5.16602e-06)
(7.61779e-05 0 -1.00458e-05)
(8.24423e-05 6.47376e-06 9.1762e-06)
(8.09487e-05 6.3679e-06 4.14729e-06)
(7.93547e-05 6.24962e-06 -6.06612e-07)
(7.76802e-05 6.12673e-06 -5.32057e-06)
(7.58702e-05 6.00242e-06 -1.02156e-05)
(8.16722e-05 1.29216e-05 9.16935e-06)
(8.01886e-05 1.26935e-05 4.14108e-06)
(7.86069e-05 1.24508e-05 -6.12118e-07)
(7.6946e-05 1.21963e-05 -5.32482e-06)
(7.5152e-05 1.19215e-05 -1.02176e-05)
(8.03978e-05 1.92843e-05 9.16499e-06)
(7.89364e-05 1.89406e-05 4.13804e-06)
(7.73781e-05 1.85742e-05 -6.13805e-07)
(7.57422e-05 1.81895e-05 -5.32488e-06)
(7.39749e-05 1.77733e-05 -1.02159e-05)
(7.86283e-05 2.55276e-05 9.16272e-06)
(7.71982e-05 2.50702e-05 4.13743e-06)
(7.56734e-05 2.45823e-05 -6.1279e-07)
(7.40726e-05 2.40699e-05 -5.32212e-06)
(7.23433e-05 2.35157e-05 -1.02112e-05)
(7.63747e-05 3.16133e-05 9.16213e-06)
(7.49848e-05 3.10448e-05 4.1385e-06)
(7.35029e-05 3.04384e-05 -6.10055e-07)
(7.19472e-05 2.98015e-05 -5.31761e-06)
(7.02667e-05 2.91127e-05 -1.02047e-05)
(7.36508e-05 3.75044e-05 9.16287e-06)
(7.23097e-05 3.68282e-05 4.14068e-06)
(7.088e-05 3.61067e-05 -6.06371e-07)
(6.93792e-05 3.5349e-05 -5.31228e-06)
(6.7758e-05 3.45297e-05 -1.01975e-05)
(7.04734e-05 4.31649e-05 9.16466e-06)
(6.91896e-05 4.23848e-05 4.14349e-06)
(6.78211e-05 4.15525e-05 -6.02387e-07)
(6.63848e-05 4.06785e-05 -5.30694e-06)
(6.48332e-05 3.97337e-05 -1.01906e-05)
(6.68621e-05 4.85604e-05 9.16717e-06)
(6.56437e-05 4.7681e-05 4.14645e-06)
(6.43453e-05 4.67427e-05 -5.98717e-07)
(6.29826e-05 4.57575e-05 -5.30233e-06)
(6.15106e-05 4.46927e-05 -1.01849e-05)
(6.2839e-05 5.36582e-05 9.16986e-06)
(6.1694e-05 5.26844e-05 4.14893e-06)
(6.04742e-05 5.16458e-05 -5.96017e-07)
(5.91941e-05 5.05553e-05 -5.29913e-06)
(5.78113e-05 4.9377e-05 -1.0181e-05)
(5.84281e-05 5.84281e-05 9.17116e-06)
(5.73651e-05 5.73651e-05 4.14995e-06)
(5.62322e-05 5.62322e-05 -5.94996e-07)
(5.50431e-05 5.50431e-05 -5.29797e-06)
(5.37585e-05 5.37585e-05 -1.01796e-05)
(5.36581e-05 6.2839e-05 9.16986e-06)
(5.26844e-05 6.1694e-05 4.14893e-06)
(5.16458e-05 6.04742e-05 -5.96017e-07)
(5.05553e-05 5.91941e-05 -5.29913e-06)
(4.9377e-05 5.78113e-05 -1.0181e-05)
(4.85604e-05 6.68621e-05 9.16717e-06)
(4.7681e-05 6.56437e-05 4.14645e-06)
(4.67427e-05 6.43453e-05 -5.98718e-07)
(4.57575e-05 6.29826e-05 -5.30233e-06)
(4.46927e-05 6.15106e-05 -1.01849e-05)
(4.31649e-05 7.04734e-05 9.16466e-06)
(4.23848e-05 6.91896e-05 4.14349e-06)
(4.15525e-05 6.78211e-05 -6.02388e-07)
(4.06785e-05 6.63848e-05 -5.30694e-06)
(3.97336e-05 6.48332e-05 -1.01906e-05)
(3.75044e-05 7.36508e-05 9.16287e-06)
(3.68281e-05 7.23097e-05 4.14068e-06)
(3.61067e-05 7.088e-05 -6.06372e-07)
(3.5349e-05 6.93792e-05 -5.31228e-06)
(3.45297e-05 6.7758e-05 -1.01976e-05)
(3.16133e-05 7.63747e-05 9.16213e-06)
(3.10448e-05 7.49848e-05 4.1385e-06)
(3.04384e-05 7.35029e-05 -6.10056e-07)
(2.98015e-05 7.19472e-05 -5.31761e-06)
(2.91127e-05 7.02667e-05 -1.02047e-05)
(2.55276e-05 7.86283e-05 9.16272e-06)
(2.50701e-05 7.71982e-05 4.13743e-06)
(2.45823e-05 7.56734e-05 -6.12791e-07)
(2.40699e-05 7.40726e-05 -5.32212e-06)
(2.35157e-05 7.23433e-05 -1.02112e-05)
(1.92843e-05 8.03977e-05 9.16499e-06)
(1.89406e-05 7.89364e-05 4.13804e-06)
(1.85742e-05 7.73781e-05 -6.13807e-07)
(1.81895e-05 7.57422e-05 -5.32489e-06)
(1.77733e-05 7.39749e-05 -1.02159e-05)
(1.29215e-05 8.16722e-05 9.16935e-06)
(1.26935e-05 8.01886e-05 4.14108e-06)
(1.24508e-05 7.86069e-05 -6.1212e-07)
(1.21963e-05 7.6946e-05 -5.32482e-06)
(1.19215e-05 7.5152e-05 -1.02176e-05)
(6.47375e-06 8.24423e-05 9.1762e-06)
(6.36789e-06 8.09487e-05 4.14729e-06)
(6.24962e-06 7.93547e-05 -6.06613e-07)
(6.12673e-06 7.76802e-05 -5.32057e-06)
(6.00241e-06 7.58702e-05 -1.02156e-05)
(0 8.27383e-05 9.3212e-06)
(0 8.12496e-05 4.28885e-06)
(0 7.96573e-05 -4.61785e-07)
(0 7.79849e-05 -5.16602e-06)
(0 7.61779e-05 -1.00458e-05)
(9.23067e-05 0 2.28406e-06)
(9.07984e-05 0 6.70815e-08)
(8.91288e-05 0 -2.11219e-06)
(8.73118e-05 0 -4.27388e-06)
(8.53055e-05 0 -6.43617e-06)
(9.19808e-05 7.22139e-06 2.222e-06)
(9.0466e-05 7.11481e-06 3.38995e-09)
(8.87923e-05 6.99135e-06 -2.17843e-06)
(8.69708e-05 6.85858e-06 -4.34311e-06)
(8.49603e-05 6.72155e-06 -6.50818e-06)
(9.11206e-05 1.44115e-05 2.2187e-06)
(8.96154e-05 1.41821e-05 1.42527e-09)
(8.79539e-05 1.39288e-05 -2.17926e-06)
(8.61467e-05 1.36534e-05 -4.34263e-06)
(8.41538e-05 1.33497e-05 -6.506e-06)
(8.96963e-05 2.15074e-05 2.21592e-06)
(8.82131e-05 2.11614e-05 6.03012e-10)
(8.65759e-05 2.07788e-05 -2.17831e-06)
(8.47958e-05 2.03623e-05 -4.33982e-06)
(8.28324e-05 1.99019e-05 -6.50111e-06)
(8.77189e-05 2.84703e-05 2.21398e-06)
(8.6267e-05 2.80091e-05 9.74678e-10)
(8.46647e-05 2.74991e-05 -2.17582e-06)
(8.29226e-05 2.69439e-05 -4.33514e-06)
(8.10013e-05 2.63306e-05 -6.49401e-06)
(8.52011e-05 3.52575e-05 2.21302e-06)
(8.37896e-05 3.46835e-05 2.37078e-09)
(8.22322e-05 3.40489e-05 -2.17221e-06)
(8.05391e-05 3.33582e-05 -4.32924e-06)
(7.86718e-05 3.25955e-05 -6.48552e-06)
(8.21587e-05 4.18278e-05 2.21306e-06)
(8.07966e-05 4.11441e-05 4.55205e-09)
(7.92939e-05 4.03884e-05 -2.16797e-06)
(7.76605e-05 3.95661e-05 -4.32281e-06)
(7.58592e-05 3.86583e-05 -6.47662e-06)
(7.86109e-05 4.81414e-05 2.21407e-06)
(7.73069e-05 4.73516e-05 7.22679e-09)
(7.58686e-05 4.64791e-05 -2.16361e-06)
(7.43053e-05 4.55298e-05 -4.3166e-06)
(7.25815e-05 4.44822e-05 -6.46826e-06)
(7.45797e-05 5.41599e-05 2.2159e-06)
(7.33423e-05 5.32686e-05 1.00124e-08)
(7.19777e-05 5.22842e-05 -2.1597e-06)
(7.04948e-05 5.12135e-05 -4.31134e-06)
(6.88596e-05 5.00322e-05 -6.46138e-06)
(7.00899e-05 5.98468e-05 2.2181e-06)
(6.89273e-05 5.88591e-05 1.23449e-08)
(6.76457e-05 5.77687e-05 -2.15687e-06)
(6.62529e-05 5.65829e-05 -4.30775e-06)
(6.47171e-05 5.52751e-05 -6.4568e-06)
(6.51683e-05 6.51683e-05 2.21921e-06)
(6.40895e-05 6.40895e-05 1.33124e-08)
(6.28995e-05 6.28995e-05 -2.15581e-06)
(6.16061e-05 6.16061e-05 -4.30647e-06)
(6.01797e-05 6.01797e-05 -6.45518e-06)
(5.98468e-05 7.00899e-05 2.2181e-06)
(5.88591e-05 6.89274e-05 1.23449e-08)
(5.77686e-05 6.76457e-05 -2.15687e-06)
(5.65829e-05 6.62529e-05 -4.30775e-06)
(5.5275e-05 6.47171e-05 -6.4568e-06)
(5.41599e-05 7.45797e-05 2.2159e-06)
(5.32686e-05 7.33423e-05 1.00123e-08)
(5.22842e-05 7.19777e-05 -2.1597e-06)
(5.12135e-05 7.04948e-05 -4.31134e-06)
(5.00322e-05 6.88596e-05 -6.46138e-06)
(4.81414e-05 7.86109e-05 2.21407e-06)
(4.73516e-05 7.73069e-05 7.22662e-09)
(4.64791e-05 7.58686e-05 -2.16361e-06)
(4.55298e-05 7.43053e-05 -4.3166e-06)
(4.44822e-05 7.25815e-05 -6.46826e-06)
(4.18278e-05 8.21587e-05 2.21306e-06)
(4.1144e-05 8.07966e-05 4.55183e-09)
(4.03884e-05 7.92939e-05 -2.16797e-06)
(3.95661e-05 7.76605e-05 -4.32281e-06)
(3.86583e-05 7.58592e-05 -6.47662e-06)
(3.52574e-05 8.52011e-05 2.21302e-06)
(3.46834e-05 8.37896e-05 2.37053e-09)
(3.40489e-05 8.22322e-05 -2.17221e-06)
(3.33582e-05 8.05391e-05 -4.32924e-06)
(3.25955e-05 7.86718e-05 -6.48552e-06)
(2.84702e-05 8.77189e-05 2.21398e-06)
(2.80091e-05 8.6267e-05 9.74397e-10)
(2.74991e-05 8.46647e-05 -2.17582e-06)
(2.69439e-05 8.29226e-05 -4.33515e-06)
(2.63306e-05 8.10013e-05 -6.49401e-06)
(2.15074e-05 8.96962e-05 2.21592e-06)
(2.11614e-05 8.82131e-05 6.02716e-10)
(2.07788e-05 8.65759e-05 -2.17831e-06)
(2.03622e-05 8.47958e-05 -4.33982e-06)
(1.99019e-05 8.28324e-05 -6.50111e-06)
(1.44115e-05 9.11206e-05 2.2187e-06)
(1.4182e-05 8.96153e-05 1.42497e-09)
(1.39287e-05 8.79539e-05 -2.17926e-06)
(1.36534e-05 8.61467e-05 -4.34263e-06)
(1.33497e-05 8.41538e-05 -6.506e-06)
(7.22138e-06 9.19808e-05 2.222e-06)
(7.11481e-06 9.0466e-05 3.38965e-09)
(6.99135e-06 8.87923e-05 -2.17843e-06)
(6.85857e-06 8.69708e-05 -4.34312e-06)
(6.72154e-06 8.49603e-05 -6.50818e-06)
(0 9.23066e-05 2.28406e-06)
(0 9.07983e-05 6.70812e-08)
(0 8.91288e-05 -2.11219e-06)
(0 8.73118e-05 -4.27388e-06)
(0 8.53055e-05 -6.43617e-06)
(9.40272e-05 0 -5.11026e-06)
(9.25045e-05 0 -4.45967e-06)
(9.08328e-05 0 -3.96463e-06)
(8.90193e-05 0 -3.48418e-06)
(8.70286e-05 0 -2.88473e-06)
(9.36941e-05 7.35021e-06 -5.08918e-06)
(9.21654e-05 7.24413e-06 -4.44324e-06)
(9.04897e-05 7.12171e-06 -3.94925e-06)
(8.86719e-05 6.99041e-06 -3.46585e-06)
(8.66775e-05 6.85594e-06 -2.85917e-06)
(9.28147e-05 1.46696e-05 -5.08904e-06)
(9.12954e-05 1.44407e-05 -4.44134e-06)
(8.96317e-05 1.41893e-05 -3.94595e-06)
(8.7828e-05 1.39168e-05 -3.46123e-06)
(8.58511e-05 1.36182e-05 -2.85332e-06)
(9.13592e-05 2.18933e-05 -5.09008e-06)
(8.98617e-05 2.15475e-05 -4.43996e-06)
(8.82221e-05 2.11674e-05 -3.94252e-06)
(8.64451e-05 2.07547e-05 -3.45579e-06)
(8.44974e-05 2.03016e-05 -2.84559e-06)
(8.93395e-05 2.89814e-05 -5.09153e-06)
(8.78732e-05 2.85197e-05 -4.43856e-06)
(8.62681e-05 2.80125e-05 -3.93864e-06)
(8.45289e-05 2.74619e-05 -3.44941e-06)
(8.26227e-05 2.68575e-05 -2.83634e-06)
(8.67691e-05 3.58908e-05 -5.09284e-06)
(8.53431e-05 3.53151e-05 -4.43687e-06)
(8.37827e-05 3.46832e-05 -3.9343e-06)
(8.20922e-05 3.39974e-05 -3.44238e-06)
(8.02395e-05 3.32449e-05 -2.82618e-06)
(8.36646e-05 4.25795e-05 -5.09359e-06)
(8.22882e-05 4.18926e-05 -4.43481e-06)
(8.07825e-05 4.11391e-05 -3.92972e-06)
(7.91515e-05 4.03218e-05 -3.43517e-06)
(7.73642e-05 3.94252e-05 -2.81592e-06)
(8.0046e-05 4.90073e-05 -5.09355e-06)
(7.87282e-05 4.82126e-05 -4.43246e-06)
(7.7287e-05 4.73415e-05 -3.92524e-06)
(7.57262e-05 4.6397e-05 -3.42841e-06)
(7.4016e-05 4.53612e-05 -2.80646e-06)
(7.59361e-05 5.51353e-05 -5.09264e-06)
(7.46859e-05 5.42372e-05 -4.43003e-06)
(7.33188e-05 5.32534e-05 -3.9213e-06)
(7.18384e-05 5.2187e-05 -3.42277e-06)
(7.02165e-05 5.10179e-05 -2.79872e-06)
(7.13605e-05 6.09265e-05 -5.09112e-06)
(7.01863e-05 5.99302e-05 -4.42798e-06)
(6.89027e-05 5.88394e-05 -3.91849e-06)
(6.75128e-05 5.76575e-05 -3.41896e-06)
(6.599e-05 5.63621e-05 -2.7936e-06)
(6.63465e-05 6.63466e-05 -5.09026e-06)
(6.52575e-05 6.52575e-05 -4.42713e-06)
(6.40663e-05 6.40663e-05 -3.91744e-06)
(6.27762e-05 6.27762e-05 -3.41759e-06)
(6.13625e-05 6.13625e-05 -2.7918e-06)
(6.09265e-05 7.13605e-05 -5.09112e-06)
(5.99302e-05 7.01863e-05 -4.42798e-06)
(5.88394e-05 6.89027e-05 -3.91849e-06)
(5.76574e-05 6.75128e-05 -3.41896e-06)
(5.63621e-05 6.599e-05 -2.7936e-06)
(5.51352e-05 7.59361e-05 -5.09264e-06)
(5.42372e-05 7.46859e-05 -4.43003e-06)
(5.32534e-05 7.33188e-05 -3.9213e-06)
(5.2187e-05 7.18384e-05 -3.42277e-06)
(5.10179e-05 7.02165e-05 -2.79872e-06)
(4.90072e-05 8.0046e-05 -5.09354e-06)
(4.82126e-05 7.87282e-05 -4.43246e-06)
(4.73415e-05 7.7287e-05 -3.92524e-06)
(4.6397e-05 7.57262e-05 -3.42841e-06)
(4.53612e-05 7.4016e-05 -2.80646e-06)
(4.25795e-05 8.36646e-05 -5.09359e-06)
(4.18926e-05 8.22882e-05 -4.43481e-06)
(4.11391e-05 8.07824e-05 -3.92972e-06)
(4.03217e-05 7.91515e-05 -3.43517e-06)
(3.94251e-05 7.73642e-05 -2.81592e-06)
(3.58908e-05 8.67691e-05 -5.09284e-06)
(3.53151e-05 8.53431e-05 -4.43687e-06)
(3.46832e-05 8.37827e-05 -3.9343e-06)
(3.39974e-05 8.20922e-05 -3.44238e-06)
(3.32449e-05 8.02395e-05 -2.82619e-06)
(2.89814e-05 8.93395e-05 -5.09153e-06)
(2.85197e-05 8.78732e-05 -4.43856e-06)
(2.80125e-05 8.62681e-05 -3.93864e-06)
(2.74619e-05 8.45289e-05 -3.44942e-06)
(2.68575e-05 8.26227e-05 -2.83635e-06)
(2.18933e-05 9.13592e-05 -5.09008e-06)
(2.15475e-05 8.98617e-05 -4.43996e-06)
(2.11674e-05 8.82221e-05 -3.94252e-06)
(2.07547e-05 8.64451e-05 -3.45579e-06)
(2.03016e-05 8.44974e-05 -2.8456e-06)
(1.46696e-05 9.28147e-05 -5.08903e-06)
(1.44407e-05 9.12954e-05 -4.44134e-06)
(1.41893e-05 8.96317e-05 -3.94595e-06)
(1.39168e-05 8.7828e-05 -3.46123e-06)
(1.36181e-05 8.58511e-05 -2.85332e-06)
(7.3502e-06 9.36941e-05 -5.08918e-06)
(7.24412e-06 9.21654e-05 -4.44324e-06)
(7.12171e-06 9.04897e-05 -3.94925e-06)
(6.9904e-06 8.86719e-05 -3.46586e-06)
(6.85594e-06 8.66775e-05 -2.85917e-06)
(0 9.40271e-05 -5.11026e-06)
(0 9.25045e-05 -4.45967e-06)
(0 9.08328e-05 -3.96463e-06)
(0 8.90193e-05 -3.48418e-06)
(0 8.70286e-05 -2.88474e-06)
(8.8401e-05 0 -1.17887e-05)
(8.68962e-05 0 -8.61908e-06)
(8.53055e-05 0 -5.76592e-06)
(8.36298e-05 0 -2.95824e-06)
(8.18377e-05 0 5.94046e-08)
(8.80831e-05 6.90098e-06 -1.16948e-05)
(8.65743e-05 6.79825e-06 -8.53229e-06)
(8.49814e-05 6.68345e-06 -5.67882e-06)
(8.33032e-05 6.56379e-06 -2.86333e-06)
(8.15094e-05 6.44482e-06 1.6968e-07)
(8.72513e-05 1.37763e-05 -1.16916e-05)
(8.57517e-05 1.35535e-05 -8.52729e-06)
(8.41703e-05 1.33174e-05 -5.67245e-06)
(8.25051e-05 1.30688e-05 -2.85581e-06)
(8.07271e-05 1.2804e-05 1.77839e-07)
(8.58763e-05 2.05613e-05 -1.16908e-05)
(8.43978e-05 2.0224e-05 -8.52404e-06)
(8.28389e-05 1.98664e-05 -5.66724e-06)
(8.11981e-05 1.94895e-05 -2.84876e-06)
(7.94462e-05 1.90869e-05 1.87035e-07)
(8.39697e-05 2.72187e-05 -1.16915e-05)
(8.25213e-05 2.67675e-05 -8.52172e-06)
(8.09949e-05 2.62897e-05 -5.66248e-06)
(7.93888e-05 2.5786e-05 -2.84159e-06)
(7.76739e-05 2.52481e-05 1.97078e-07)
(8.15449e-05 3.3708e-05 -1.16927e-05)
(8.01359e-05 3.31443e-05 -8.51976e-06)
(7.86516e-05 3.25481e-05 -5.65786e-06)
(7.70902e-05 3.19199e-05 -2.83428e-06)
(7.54234e-05 3.1249e-05 2.076e-07)
(7.86183e-05 3.99901e-05 -1.16938e-05)
(7.72579e-05 3.93162e-05 -8.51782e-06)
(7.58254e-05 3.86041e-05 -5.65333e-06)
(7.43189e-05 3.78542e-05 -2.82709e-06)
(7.2711e-05 3.70536e-05 2.18016e-07)
(7.52093e-05 4.60275e-05 -1.16944e-05)
(7.39068e-05 4.52464e-05 -8.51579e-06)
(7.25357e-05 4.4422e-05 -5.64905e-06)
(7.10942e-05 4.35541e-05 -2.82045e-06)
(6.95558e-05 4.26277e-05 2.27567e-07)
(7.13401e-05 5.17841e-05 -1.16943e-05)
(7.01046e-05 5.08999e-05 -8.51375e-06)
(6.88043e-05 4.99674e-05 -5.64536e-06)
(6.74375e-05 4.89862e-05 -2.81496e-06)
(6.59791e-05 4.79391e-05 2.35376e-07)
(6.70351e-05 5.72256e-05 -1.16934e-05)
(6.58753e-05 5.62434e-05 -8.51202e-06)
(6.4655e-05 5.52082e-05 -5.64274e-06)
(6.33723e-05 5.41194e-05 -2.81125e-06)
(6.20039e-05 5.29576e-05 2.40557e-07)
(6.23201e-05 6.23201e-05 -1.16928e-05)
(6.12453e-05 6.12453e-05 -8.51129e-06)
(6.01137e-05 6.01137e-05 -5.64177e-06)
(5.8924e-05 5.89241e-05 -2.80993e-06)
(5.76548e-05 5.76548e-05 2.42382e-07)
(5.72256e-05 6.70351e-05 -1.16934e-05)
(5.62434e-05 6.58753e-05 -8.51202e-06)
(5.52082e-05 6.4655e-05 -5.64274e-06)
(5.41194e-05 6.33723e-05 -2.81125e-06)
(5.29576e-05 6.20039e-05 2.40556e-07)
(5.1784e-05 7.13401e-05 -1.16943e-05)
(5.08999e-05 7.01046e-05 -8.51375e-06)
(4.99674e-05 6.88043e-05 -5.64536e-06)
(4.89862e-05 6.74375e-05 -2.81496e-06)
(4.79391e-05 6.59791e-05 2.35375e-07)
(4.60274e-05 7.52093e-05 -1.16944e-05)
(4.52464e-05 7.39068e-05 -8.51579e-06)
(4.44219e-05 7.25357e-05 -5.64905e-06)
(4.3554e-05 7.10942e-05 -2.82045e-06)
(4.26277e-05 6.95558e-05 2.27566e-07)
(3.99901e-05 7.86183e-05 -1.16938e-05)
(3.93162e-05 7.72579e-05 -8.51782e-06)
(3.86041e-05 7.58254e-05 -5.65333e-06)
(3.78542e-05 7.43189e-05 -2.82709e-06)
(3.70536e-05 7.2711e-05 2.18015e-07)
(3.3708e-05 8.15449e-05 -1.16927e-05)
(3.31443e-05 8.01359e-05 -8.51975e-06)
(3.25481e-05 7.86516e-05 -5.65786e-06)
(3.19198e-05 7.70902e-05 -2.83429e-06)
(3.1249e-05 7.54234e-05 2.07598e-07)
(2.72187e-05 8.39697e-05 -1.16915e-05)
(2.67675e-05 8.25213e-05 -8.52172e-06)
(2.62897e-05 8.09949e-05 -5.66248e-06)
(2.5786e-05 7.93887e-05 -2.84159e-06)
(2.52481e-05 7.76739e-05 1.97077e-07)
(2.05613e-05 8.58763e-05 -1.16908e-05)
(2.02239e-05 8.43977e-05 -8.52404e-06)
(1.98664e-05 8.28389e-05 -5.66723e-06)
(1.94895e-05 8.11981e-05 -2.84876e-06)
(1.90869e-05 7.94462e-05 1.87034e-07)
(1.37763e-05 8.72513e-05 -1.16916e-05)
(1.35535e-05 8.57517e-05 -8.52729e-06)
(1.33174e-05 8.41703e-05 -5.67244e-06)
(1.30688e-05 8.25051e-05 -2.85581e-06)
(1.2804e-05 8.07271e-05 1.77838e-07)
(6.90098e-06 8.80831e-05 -1.16948e-05)
(6.79824e-06 8.65743e-05 -8.53229e-06)
(6.68345e-06 8.49814e-05 -5.67882e-06)
(6.56378e-06 8.33032e-05 -2.86333e-06)
(6.44482e-06 8.15094e-05 1.69678e-07)
(0 8.8401e-05 -1.17887e-05)
(0 8.68962e-05 -8.61907e-06)
(0 8.53055e-05 -5.76592e-06)
(0 8.36298e-05 -2.95824e-06)
(0 8.18377e-05 5.94031e-08)
(7.68324e-05 0 -1.68495e-05)
(7.53823e-05 0 -1.18575e-05)
(7.39475e-05 0 -7.29885e-06)
(7.25183e-05 0 -2.81041e-06)
(7.10698e-05 0 1.94908e-06)
(7.65482e-05 5.98545e-06 -1.67029e-05)
(7.50975e-05 5.88881e-06 -1.17199e-05)
(7.36635e-05 5.78725e-06 -7.16018e-06)
(7.22348e-05 5.6872e-06 -2.66066e-06)
(7.07878e-05 5.59373e-06 2.11977e-06)
(7.58189e-05 1.1954e-05 -1.66971e-05)
(7.43773e-05 1.17429e-05 -1.17128e-05)
(7.29537e-05 1.15335e-05 -7.15214e-06)
(7.15363e-05 1.13255e-05 -2.65197e-06)
(7.01023e-05 1.11167e-05 2.12827e-06)
(7.46158e-05 1.78432e-05 -1.66943e-05)
(7.3194e-05 1.75229e-05 -1.17082e-05)
(7.17903e-05 1.72052e-05 -7.14619e-06)
(7.03934e-05 1.68892e-05 -2.64486e-06)
(6.89801e-05 1.65708e-05 2.13677e-06)
(7.29492e-05 2.36212e-05 -1.66934e-05)
(7.15558e-05 2.3192e-05 -1.17051e-05)