/*--------------------------------*- C++ -*----------------------------------*\
| =========                 |                                                 |
| \\      /  F ield         | foam-extend: Open Source CFD                    |
|  \\    /   O peration     | Version:     3.1                                |
|   \\  /    A nd           | Web:         http://www.extend-project.de       |
|    \\/     M anipulation  |                                                 |
\*---------------------------------------------------------------------------*/
FoamFile
{
    version     2.0;
    format      ascii;
    class       volScalarField;
    location    "0.0012";
    object      sigmaEq;
}
// * * * * * * * * * * * * * * * * * * * * * * * * * * * * * * * * * * * * * //

dimensions      [1 -1 -2 0 0 0 0];

internalField   nonuniform List<scalar> 
6400
(
5126.53
3898.56
3503.95
4118.55
5095.58
3883.34
3502.54
4142.64
5093.34
3881.55
3501.78
4143.09
5092.36
3880.96
3501.46
4142.85
5092
3880.75
3501.24
4142.41
5091.93
3880.64
3500.97
4141.8
5091.98
3880.52
3500.61
4141.09
5092.07
3880.33
3500.14
4140.34
5092.16
3880.04
3499.64
4139.65
5092.13
3879.79
3499.27
4139.22
5092.13
3879.79
3499.27
4139.22
5092.16
3880.04
3499.64
4139.65
5092.07
3880.32
3500.14
4140.34
5091.98
3880.52
3500.61
4141.09
5091.93
3880.64
3500.97
4141.8
5092
3880.75
3501.24
4142.41
5092.36
3880.96
3501.46
4142.85
5093.33
3881.55
3501.78
4143.09
5095.58
3883.34
3502.54
4142.64
5126.53
3898.55
3503.94
4118.55
3339.99
3442
3106.58
2226.19
3345.04
3439.16
3095.25
2210.89
3342.85
3437.78
3094.39
2211.08
3341.78
3437.22
3094.02
2210.84
3341.2
3436.83
3093.67
2210.39
3340.87
3436.53
3093.33
2209.84
3340.73
3436.27
3092.98
2209.25
3340.71
3436.02
3092.63
2208.68
3340.8
3435.75
3092.28
2208.2
3341.18
3435.56
3092.04
2207.9
3341.18
3435.56
3092.04
2207.9
3340.8
3435.75
3092.28
2208.2
3340.71
3436.02
3092.63
2208.68
3340.73
3436.27
3092.98
2209.25
3340.87
3436.53
3093.33
2209.84
3341.2
3436.83
3093.67
2210.39
3341.78
3437.22
3094.02
2210.84
3342.85
3437.78
3094.39
2211.08
3345.04
3439.15
3095.25
2210.89
3339.99
3441.99
3106.58
2226.19
3648.63
3539.77
3206.77
2655.23
3655.39
3535.8
3194.67
2638.26
3654.35
3535.61
3194.16
2638.95
3653.91
3535.55
3194.19
2639.21
3653.63
3535.42
3194.17
2639.34
3653.49
3535.29
3194.09
2639.36
3653.48
3535.19
3193.98
2639.31
3653.63
3535.15
3193.86
2639.19
3654.01
3535.16
3193.75
2639.02
3654.92
3535.24
3193.66
2638.86
3654.92
3535.24
3193.66
2638.86
3654.01
3535.16
3193.75
2639.01
3653.63
3535.14
3193.86
2639.19
3653.48
3535.19
3193.97
2639.31
3653.48
3535.28
3194.08
2639.36
3653.63
3535.42
3194.17
2639.34
3653.9
3535.55
3194.19
2639.21
3654.34
3535.61
3194.16
2638.95
3655.39
3535.79
3194.67
2638.26
3648.62
3539.77
3206.77
2655.22
4799.04
4301.2
3895.94
3643.38
4797.89
4293.86
3885.93
3630.76
4796.91
4293.86
3885.75
3632.43
4796.71
4293.78
3885.77
3633.01
4796.79
4293.82
3885.87
3633.34
4797.06
4293.95
3885.98
3633.56
4797.48
4294.16
3886.08
3633.69
4798.04
4294.44
3886.18
3633.74
4798.75
4294.75
3886.25
3633.69
4799.9
4295.06
3886.28
3633.61
4799.9
4295.06
3886.28
3633.61
4798.75
4294.75
3886.25
3633.69
4798.04
4294.44
3886.18
3633.73
4797.48
4294.16
3886.08
3633.69
4797.06
4293.95
3885.98
3633.55
4796.78
4293.82
3885.87
3633.34
4796.71
4293.78
3885.77
3633.01
4796.91
4293.85
3885.75
3632.43
4797.89
4293.85
3885.93
3630.76
4799.04
4301.19
3895.93
3643.38
5656.15
4966.53
4495.07
4319.4
5651.78
4957.95
4485.97
4307.5
5650.92
4958.06
4485.87
4309.56
5650.85
4957.87
4485.7
4310.09
5651.19
4957.97
4485.73
4310.3
5651.84
4958.3
4485.87
4310.42
5652.67
4958.76
4486.05
4310.5
5653.61
4959.28
4486.25
4310.52
5654.61
4959.82
4486.42
4310.48
5655.89
4960.26
4486.53
4310.42
5655.89
4960.26
4486.53
4310.42
5654.61
4959.82
4486.42
4310.48
5653.6
4959.28
4486.25
4310.52
5652.67
4958.75
4486.05
4310.5
5651.83
4958.3
4485.87
4310.42
5651.19
4957.97
4485.73
4310.3
5650.85
4957.87
4485.7
4310.08
5650.91
4958.06
4485.87
4309.56
5651.77
4957.95
4485.97
4307.5
5656.15
4966.52
4495.07
4319.4
5982.81
5261.01
4767.93
4576.09
5978.82
5252.91
4759.26
4563.44
5978.3
5253.22
4759.16
4565.34
5978.5
5253.08
4758.83
4565.53
5979.15
5253.29
4758.75
4565.39
5980.16
5253.77
4758.82
4565.19
5981.37
5254.42
4758.98
4565
5982.64
5255.14
4759.18
4564.83
5983.89
5255.82
4759.38
4564.67
5985.27
5256.36
4759.51
4564.56
5985.27
5256.36
4759.51
4564.56
5983.88
5255.82
4759.38
4564.67
5982.64
5255.13
4759.18
4564.83
5981.37
5254.42
4758.98
4565
5980.16
5253.77
4758.82
4565.19
5979.15
5253.28
4758.75
4565.39
5978.5
5253.08
4758.83
4565.53
5978.29
5253.21
4759.16
4565.34
5978.82
5252.9
4759.26
4563.44
5982.81
5261
4767.92
4576.09
5781.36
5139.45
4673.35
4436.01
5779.87
5132.95
4665.16
4422.44
5779.77
5133.49
4664.99
4423.75
5780.36
5133.55
4664.59
4423.44
5781.35
5133.92
4664.4
4422.79
5782.69
5134.56
4664.37
4422.09
5784.2
5135.35
4664.43
4421.45
5785.74
5136.19
4664.57
4420.91
5787.18
5136.98
4664.72
4420.5
5788.62
5137.56
4664.83
4420.26
5788.62
5137.56
4664.83
4420.26
5787.18
5136.98
4664.72
4420.5
5785.74
5136.19
4664.57
4420.91
5784.2
5135.35
4664.43
4421.45
5782.68
5134.56
4664.37
4422.09
5781.35
5133.92
4664.4
4422.78
5780.36
5133.55
4664.58
4423.44
5779.77
5133.48
4664.99
4423.75
5779.86
5132.94
4665.15
4422.43
5781.35
5139.44
4673.34
4436.01
5133.1
4650.92
4253.91
3967.53
5135.45
4646.81
4246.53
3953.45
5135.78
4647.53
4246.26
3953.95
5136.72
4647.84
4245.83
3953.09
5137.99
4648.35
4245.56
3951.92
5139.54
4649.07
4245.39
3950.69
5141.24
4649.91
4245.32
3949.53
5142.93
4650.79
4245.32
3948.53
5144.48
4651.59
4245.37
3947.77
5145.92
4652.16
4245.42
3947.34
5145.92
4652.16
4245.42
3947.34
5144.48
4651.59
4245.37
3947.77
5142.93
4650.79
4245.32
3948.53
5141.23
4649.91
4245.31
3949.53
5139.54
4649.07
4245.39
3950.69
5137.99
4648.34
4245.55
3951.92
5136.72
4647.83
4245.83
3953.09
5135.77
4647.53
4246.26
3953.94
5135.44
4646.8
4246.53
3953.45
5133.1
4650.92
4253.91
3967.52
4195.52
3897.68
3594.98
3287.91
4201.92
3896.2
3589
3274.75
4202.58
3896.98
3588.59
3274.44
4203.77
3897.4
3588.14
3273.25
4205.18
3897.9
3587.72
3271.78
4206.79
3898.52
3587.36
3270.23
4208.5
3899.22
3587.07
3268.72
4210.18
3899.95
3586.86
3267.39
4211.71
3900.62
3586.73
3266.35
4213.03
3901.09
3586.68
3265.76
4213.03
3901.09
3586.68
3265.76
4211.71
3900.62
3586.73
3266.35
4210.18
3899.95
3586.86
3267.39
4208.5
3899.22
3587.07
3268.72
4206.79
3898.52
3587.36
3270.23
4205.18
3897.9
3587.72
3271.78
4203.76
3897.4
3588.13
3273.24
4202.58
3896.98
3588.59
3274.44
4201.92
3896.2
3589
3274.75
4195.52
3897.67
3594.98
3287.91
3210.66
3015.58
2800.93
2555.99
3218.82
3015.97
2797.15
2546.91
3219.59
3016.59
2796.6
2546.17
3220.84
3016.91
2796.06
2545.05
3222.23
3017.15
2795.45
2543.73
3223.74
3017.42
2794.81
2542.3
3225.29
3017.73
2794.2
2540.87
3226.79
3018.07
2793.68
2539.56
3228.12
3018.39
2793.29
2538.5
3229.19
3018.63
2793.08
2537.89
3229.19
3018.63
2793.08
2537.89
3228.12
3018.39
2793.29
2538.5
3226.79
3018.07
2793.68
2539.56
3225.29
3017.73
2794.2
2540.87
3223.74
3017.42
2794.81
2542.3
3222.23
3017.15
2795.45
2543.73
3220.83
3016.91
2796.06
2545.05
3219.59
3016.58
2796.6
2546.17
3218.81
3015.97
2797.15
2546.91
3210.66
3015.58
2800.93
2555.99
2433.23
2166.48
1995.72
1917.25
2438.33
2166.94
1994.77
1915.75
2438.86
2167.22
1994.16
1915.09
2439.89
2167.34
1993.59
1914.41
2441.06
2167.29
1992.85
1913.6
2442.28
2167.17
1992.02
1912.66
2443.51
2167.06
1991.18
1911.68
2444.67
2166.97
1990.41
1910.73
2445.64
2166.9
1989.8
1909.92
2446.36
2166.89
1989.46
1909.44
2446.36
2166.89
1989.46
1909.44
2445.64
2166.9
1989.8
1909.92
2444.67
2166.96
1990.41
1910.73
2443.51
2167.06
1991.18
1911.68
2442.28
2167.17
1992.02
1912.66
2441.06
2167.29
1992.85
1913.6
2439.89
2167.34
1993.59
1914.41
2438.86
2167.21
1994.15
1915.09
2438.33
2166.93
1994.77
1915.75
2433.23
2166.48
1995.72
1917.25
1952.41
1523.08
1333.16
1424.24
1951.96
1522
1334.58
1429.6
1952.03
1522.01
1334.09
1429.19
1952.58
1522.14
1333.76
1428.88
1953.29
1522.11
1333.27
1428.47
1954.06
1522.02
1332.67
1427.94
1954.82
1521.91
1332.04
1427.34
1955.52
1521.79
1331.43
1426.73
1956.09
1521.68
1330.94
1426.19
1956.5
1521.62
1330.64
1425.86
1956.5
1521.62
1330.64
1425.86
1956.09
1521.68
1330.94
1426.19
1955.52
1521.8
1331.44
1426.73
1954.82
1521.91
1332.04
1427.34
1954.06
1522.02
1332.67
1427.94
1953.29
1522.11
1333.27
1428.47
1952.58
1522.14
1333.76
1428.88
1952.03
1522.01
1334.09
1429.18
1951.96
1522
1334.58
1429.6
1952.41
1523.08
1333.16
1424.24
1628.37
1172.01
942.314
1036.97
1625.55
1169.78
943.795
1043.42
1625.32
1169.75
943.521
1042.97
1625.42
1170.08
943.62
1042.67
1625.66
1170.37
943.686
1042.3
1625.94
1170.66
943.713
1041.83
1626.23
1170.94
943.713
1041.3
1626.53
1171.2
943.688
1040.76
1626.8
1171.39
943.645
1040.31
1627
1171.49
943.61
1040.04
1627
1171.49
943.61
1040.04
1626.8
1171.39
943.646
1040.31
1626.53
1171.2
943.689
1040.76
1626.24
1170.95
943.713
1041.3
1625.94
1170.66
943.714
1041.83
1625.66
1170.37
943.687
1042.3
1625.43
1170.08
943.621
1042.67
1625.32
1169.75
943.522
1042.97
1625.56
1169.79
943.796
1043.42
1628.38
1172.01
942.316
1036.97
1326.12
1003.01
784.544
734.299
1324.72
1001.2
784.111
736.598
1324.47
1001.21
783.906
735.94
1324.36
1001.57
784.167
735.556
1324.31
1001.94
784.492
735.183
1324.27
1002.34
784.835
734.766
1324.26
1002.74
785.175
734.324
1324.3
1003.12
785.478
733.897
1324.39
1003.43
785.705
733.544
1324.51
1003.62
785.827
733.337
1324.51
1003.62
785.827
733.337
1324.39
1003.43
785.705
733.544
1324.3
1003.12
785.479
733.898
1324.27
1002.74
785.176
734.325
1324.28
1002.34
784.837
734.767
1324.32
1001.95
784.494
735.184
1324.37
1001.57
784.169
735.558
1324.47
1001.22
783.908
735.941
1324.73
1001.2
784.113
736.6
1326.13
1003.01
784.546
734.3
1050.96
870.865
704.721
566.955
1051.72
869.867
703.142
565.026
1051.59
869.887
702.923
564.498
1051.49
870.117
703.107
564.344
1051.39
870.33
703.359
564.316
1051.26
870.542
703.633
564.327
1051.15
870.761
703.91
564.341
1051.09
870.977
704.161
564.342
1051.11
871.165
704.355
564.329
1051.22
871.288
704.463
564.314
1051.22
871.288
704.463
564.314
1051.11
871.166
704.356
564.33
1051.09
870.979
704.163
564.343
1051.15
870.763
703.912
564.342
1051.26
870.545
703.636
564.329
1051.39
870.334
703.361
564.318
1051.5
870.121
703.11
564.346
1051.6
869.891
702.927
564.5
1051.73
869.872
703.146
565.028
1050.97
870.87
704.724
566.958
851.117
749.501
639.828
534.945
852.851
748.985
638.379
532.458
852.821
749.016
638.221
532.332
852.791
749.153
638.355
532.495
852.744
749.256
638.544
532.798
852.667
749.344
638.747
533.165
852.595
749.431
638.95
533.537
852.56
749.521
639.131
533.865
852.592
749.61
639.271
534.104
852.714
749.679
639.348
534.227
852.715
749.679
639.348
534.228
852.594
749.611
639.272
534.104
852.563
749.523
639.133
533.866
852.599
749.434
638.952
533.539
852.673
749.348
638.75
533.167
852.751
749.261
638.547
532.8
852.799
749.158
638.358
532.497
852.829
749.022
638.225
532.334
852.859
748.991
638.383
532.46
851.125
749.507
639.832
534.948
723.412
654.853
585.354
529.936
725.15
654.584
584.385
528.155
725.168
654.65
584.303
528.197
725.177
654.76
584.415
528.392
725.18
654.842
584.571
528.665
725.166
654.914
584.737
528.973
725.155
654.984
584.898
529.276
725.169
655.055
585.04
529.535
725.231
655.125
585.145
529.719
725.363
655.18
585.202
529.812
725.364
655.18
585.203
529.812
725.233
655.126
585.146
529.72
725.173
655.058
585.042
529.537
725.16
654.988
584.901
529.278
725.172
654.919
584.74
528.975
725.188
654.847
584.574
528.667
725.185
654.765
584.419
528.394
725.177
654.657
584.307
528.2
725.159
654.591
584.39
528.158
723.421
654.86
585.358
529.939
633.205
579.294
528.545
489.427
634.683
579.148
527.825
487.886
634.731
579.225
527.753
487.881
634.755
579.307
527.805
487.952
634.783
579.366
527.885
488.047
634.806
579.42
527.967
488.145
634.836
579.471
528.042
488.229
634.884
579.522
528.101
488.285
634.962
579.569
528.141
488.31
635.083
579.606
528.159
488.314
635.084
579.607
528.16
488.315
634.965
579.571
528.142
488.311
634.888
579.525
528.103
488.286
634.841
579.475
528.044
488.23
634.812
579.425
527.97
488.147
634.791
579.372
527.889
488.049
634.764
579.313
527.809
487.955
634.741
579.232
527.757
487.884
634.693
579.155
527.83
487.889
633.215
579.301
528.549
489.43
561.731
509.82
462.358
420.296
562.81
509.645
461.669
418.736
562.877
509.699
461.564
418.637
562.912
509.744
461.547
418.597
562.957
509.766
461.543
418.555
563.005
509.781
461.532
418.499
563.061
509.793
461.511
418.425
563.128
509.803
461.483
418.337
563.209
509.813
461.452
418.249
563.307
509.824
461.43
418.192
563.308
509.824
461.431
418.192
563.211
509.815
461.453
418.25
563.132
509.806
461.485
418.338
563.066
509.796
461.514
418.426
563.011
509.786
461.535
418.501
562.965
509.771
461.547
418.557
562.921
509.75
461.551
418.6
562.887
509.706
461.569
418.64
562.821
509.653
461.674
418.739
561.742
509.828
462.363
420.299
503.013
446.215
395.719
348.195
503.611
445.903
394.991
346.666
503.675
445.923
394.862
346.513
503.708
445.944
394.811
346.433
503.756
445.945
394.768
346.346
503.81
445.939
394.717
346.244
503.872
445.931
394.656
346.123
503.94
445.921
394.591
345.995
504.011
445.912
394.532
345.878
504.086
445.908
394.495
345.805
504.087
445.909
394.495
345.805
504.014
445.914
394.533
345.879
503.944
445.924
394.593
345.996
503.877
445.934
394.658
346.125
503.816
445.944
394.72
346.245
503.763
445.95
394.772
346.348
503.716
445.95
394.815
346.435
503.685
445.929
394.866
346.516
503.621
445.909
394.996
346.668
503.024
446.222
395.724
348.198
450.57
391.78
339.734
290.53
450.794
391.344
338.989
289.132
450.842
391.342
338.863
288.98
450.856
391.354
338.818
288.915
450.887
391.354
338.784
288.852
450.925
391.351
338.744
288.777
450.971
391.345
338.698
288.688
451.021
391.339
338.648
288.591
451.074
391.333
338.602
288.502
451.127
391.33
338.573
288.446
451.128
391.33
338.573
288.446
451.076
391.334
338.603
288.503
451.025
391.342
338.649
288.592
450.975
391.349
338.7
288.689
450.931
391.355
338.747
288.779
450.894
391.359
338.787
288.853
450.864
391.36
338.821
288.917
450.851
391.347
338.867
288.982
450.803
391.35
338.993
289.134
450.58
391.786
339.738
290.532
399.362
345.498
296.937
251.09
399.407
345.033
296.24
249.893
399.442
345.022
296.137
249.773
399.435
345.034
296.112
249.745
399.442
345.036
296.102
249.726
399.455
345.038
296.09
249.702
399.475
345.04
296.073
249.667
399.502
345.042
296.052
249.623
399.534
345.042
296.031
249.578
399.57
345.043
296.017
249.548
399.57
345.044
296.017
249.549
399.536
345.044
296.032
249.579
399.505
345.044
296.054
249.624
399.479
345.043
296.075
249.668
399.46
345.042
296.092
249.703
399.448
345.04
296.104
249.727
399.442
345.038
296.115
249.746
399.449
345.027
296.14
249.774
399.415
345.038
296.243
249.894
399.37
345.503
296.94
251.091
349.096
304.456
263.315
224.681
349.104
304.043
262.721
223.72
349.133
304.035
262.647
223.64
349.114
304.046
262.639
223.643
349.104
304.049
262.646
223.658
349.098
304.052
262.652
223.671
349.099
304.056
262.655
223.676
349.107
304.059
262.654
223.67
349.124
304.062
262.648
223.657
349.148
304.064
262.643
223.646
349.148
304.064
262.644
223.646
349.126
304.063
262.649
223.658
349.11
304.061
262.655
223.67
349.102
304.058
262.656
223.676
349.102
304.055
262.654
223.672
349.109
304.052
262.647
223.658
349.119
304.049
262.641
223.644
349.139
304.039
262.649
223.641
349.11
304.047
262.724
223.721
349.102
304.46
263.318
224.682
302.086
267.081
234.391
204.11
302.109
266.752
233.921
203.373
302.138
266.749
233.87
203.324
302.117
266.759
233.872
203.343
302.101
266.762
233.885
203.372
302.087
266.764
233.897
203.399
302.079
266.765
233.906
203.418
302.079
266.767
233.911
203.428
302.087
266.768
233.911
203.429
302.103
266.769
233.909
203.426
302.103
266.77
233.91
203.426
302.088
266.769
233.912
203.429
302.081
266.768
233.912
203.428
302.082
266.767
233.907
203.419
302.09
266.765
233.898
203.399
302.105
266.764
233.886
203.372
302.121
266.762
233.873
203.344
302.143
266.752
233.871
203.324
302.114
266.754
233.922
203.373
302.091
267.084
234.392
204.111
260.179
233.07
207.732
184.646
260.217
232.818
207.372
184.088
260.248
232.82
207.337
184.057
260.23
232.83
207.343
184.08
260.215
232.832
207.356
184.107
260.201
232.832
207.367
184.132
260.192
232.832
207.375
184.151
260.189
232.831
207.379
184.16
260.193
232.83
207.378
184.161
260.204
232.83
207.376
184.159
260.204
232.83
207.376
184.159
260.194
232.831
207.378
184.161
260.19
232.832
207.379
184.16
260.194
232.833
207.376
184.151
260.203
232.834
207.368
184.132
260.218
232.834
207.356
184.107
260.233
232.832
207.343
184.08
260.251
232.822
207.338
184.057
260.221
232.82
207.373
184.088
260.183
233.072
207.733
184.646
223.742
202.379
182.578
164.735
223.779
202.184
182.301
164.304
223.81
202.189
182.275
164.28
223.796
202.198
182.28
164.301
223.784
202.199
182.29
164.322
223.773
202.198
182.298
164.339
223.765
202.197
182.302
164.35
223.762
202.194
182.303
164.354
223.765
202.191
182.3
164.352
223.773
202.189
182.297
164.348
223.773
202.189
182.297
164.348
223.765
202.191
182.3
164.352
223.763
202.194
182.303
164.354
223.767
202.197
182.303
164.35
223.774
202.199
182.298
164.339
223.786
202.2
182.29
164.321
223.798
202.198
182.28
164.3
223.812
202.19
182.275
164.28
223.781
202.185
182.301
164.303
223.745
202.38
182.579
164.735
192.153
174.842
158.98
144.734
192.178
174.684
158.76
144.39
192.206
174.689
158.739
144.37
192.195
174.697
158.743
144.386
192.186
174.698
158.75
144.401
192.178
174.696
158.755
144.411
192.172
174.694
158.756
144.416
192.169
174.69
158.753
144.415
192.17
174.686
158.749
144.41
192.176
174.683
158.745
144.405
192.176
174.683
158.745
144.405
192.171
174.686
158.749
144.409
192.169
174.69
158.753
144.415
192.172
174.694
158.755
144.416
192.178
174.697
158.754
144.411
192.187
174.698
158.75
144.4
192.196
174.697
158.742
144.385
192.208
174.69
158.739
144.369
192.179
174.685
158.759
144.389
192.154
174.842
158.98
144.733
164.551
150.224
137.227
125.545
164.561
150.092
137.046
125.265
164.586
150.096
137.029
125.247
164.577
150.102
137.031
125.26
164.57
150.102
137.036
125.27
164.563
150.1
137.039
125.277
164.558
150.097
137.038
125.278
164.555
150.093
137.034
125.274
164.555
150.089
137.029
125.268
164.559
150.085
137.025
125.263
164.559
150.085
137.025
125.263
164.555
150.088
137.029
125.268
164.555
150.093
137.034
125.274
164.558
150.097
137.038
125.278
164.563
150.1
137.038
125.276
164.57
150.102
137.036
125.27
164.577
150.101
137.031
125.259
164.587
150.095
137.028
125.247
164.562
150.092
137.046
125.264
164.552
150.223
137.226
125.544
140.256
128.307
117.543
107.867
140.255
128.195
117.393
107.638
140.276
128.198
117.379
107.622
140.267
128.202
117.38
107.632
140.261
128.202
117.384
107.641
140.255
128.2
117.385
107.645
140.25
128.197
117.384
107.645
140.247
128.193
117.38
107.641
140.246
128.188
117.375
107.636
140.249
128.185
117.371
107.631
140.249
128.185
117.371
107.631
140.246
128.188
117.375
107.636
140.247
128.192
117.38
107.641
140.25
128.196
117.384
107.645
140.254
128.2
117.385
107.645
140.261
128.201
117.383
107.64
140.267
128.202
117.38
107.632
140.276
128.197
117.378
107.622
140.255
128.195
117.393
107.637
140.256
128.307
117.542
107.866
118.846
108.911
100.001
92.0117
118.838
108.816
99.8779
91.8256
118.856
108.818
99.8659
91.8126
118.848
108.821
99.8668
91.8211
118.842
108.821
99.8697
91.8279
118.836
108.819
99.8706
91.8317
118.831
108.815
99.8692
91.8318
118.828
108.812
99.8658
91.8286
118.827
108.808
99.8615
91.8239
118.828
108.805
99.8582
91.8202
118.828
108.805
99.8582
91.8202
118.827
108.807
99.8613
91.8238
118.828
108.811
99.8655
91.8285
118.831
108.815
99.8688
91.8315
118.835
108.818
99.8701
91.8314
118.841
108.82
99.8691
91.8275
118.847
108.82
99.8662
91.8206
118.855
108.817
99.8652
91.8121
118.837
108.815
99.8772
91.825
118.846
108.91
100.001
92.0111
100.075
91.8748
84.5469
78.0074
100.064
91.7955
84.4458
77.8575
100.079
91.7968
84.436
77.8469
100.072
91.7993
84.4368
77.8543
100.066
91.7986
84.4391
77.8601
100.061
91.7966
84.4398
77.8634
100.056
91.7937
84.4386
77.8637
100.053
91.7903
84.4357
77.8613
100.052
91.7867
84.4321
77.8575
100.052
91.7841
84.4293
77.8546
100.052
91.784
84.4292
77.8546
100.051
91.7864
84.4319
77.8574
100.053
91.7899
84.4354
77.8611
100.056
91.7932
84.4382
77.8635
100.06
91.796
84.4393
77.8631
100.066
91.7979
84.4385
77.8597
100.071
91.7985
84.4361
77.8538
100.078
91.796
84.4353
77.8465
100.063
91.7947
84.4451
77.857
100.074
91.874
84.5462
78.007
83.7627
77.0405
71.0545
65.7463
83.7515
76.975
70.9725
65.6262
83.7639
76.976
70.9646
65.6178
83.7577
76.978
70.9653
65.6241
83.7527
76.9772
70.9672
65.629
83.7479
76.9754
70.9678
65.6319
83.7438
76.9727
70.9667
65.6322
83.7406
76.9696
70.9643
65.6303
83.7389
76.9665
70.9612
65.6274
83.7389
76.9642
70.9589
65.625
83.7388
76.9641
70.9588
65.625
83.7385
76.9662
70.961
65.6273
83.7401
76.9692
70.964
65.6302
83.7431
76.9722
70.9663
65.6321
83.7471
76.9747
70.9673
65.6317
83.7519
76.9764
70.9667
65.6288
83.757
76.9771
70.9647
65.6238
83.7632
76.9752
70.964
65.6174
83.7507
76.9741
70.9718
65.6259
83.7619
77.0396
71.0539
65.746
69.7258
64.2382
59.3712
55.0838
69.7154
64.1846
59.3049
54.9879
69.7258
64.1855
59.2987
54.9811
69.7205
64.187
59.2993
54.9865
69.7162
64.1863
59.3009
54.9906
69.7119
64.1846
59.3012
54.9929
69.7083
64.1822
59.3002
54.9931
69.7054
64.1795
59.2981
54.9916
69.7037
64.1767
59.2956
54.9891
69.7035
64.1747
59.2936
54.9872
69.7034
64.1746
59.2935
54.9872
69.7033
64.1764
59.2954
54.9891
69.7049
64.1791
59.2979
54.9915
69.7076
64.1817
59.2999
54.9931
69.7111
64.1839
59.3008
54.9928
69.7153
64.1855
59.3004
54.9904
69.7196
64.1862
59.2988
54.9863
69.7249
64.1846
59.2981
54.9809
69.7145
64.1837
59.3044
54.9877
69.7249
64.2373
59.3706
55.0836
57.7571
53.2844
49.335
45.8774
57.7478
53.2407
49.2816
45.8007
57.7565
53.2414
49.2766
45.7953
57.752
53.2426
49.2771
45.7997
57.7483
53.242
49.2784
45.8031
57.7447
53.2405
49.2786
45.8049
57.7415
53.2384
49.2777
45.805
57.739
53.236
49.2759
45.8036
57.7374
53.2336
49.2736
45.8016
57.737
53.2319
49.272
45.8
57.7369
53.2318
49.2719
45.8
57.737
53.2333
49.2735
45.8016
57.7384
53.2356
49.2756
45.8036
57.7407
53.2378
49.2774
45.805
57.7437
53.2398
49.2782
45.8049
57.7473
53.2412
49.2779
45.803
57.7509
53.2418
49.2766
45.7997
57.7554
53.2406
49.2761
45.7952
57.7467
53.2398
49.2811
45.8006
57.756
53.2835
49.3345
45.8773
47.6318
43.9866
40.7822
37.9918
47.6236
43.951
40.7391
37.9304
47.6307
43.9516
40.7351
37.926
47.627
43.9526
40.7355
37.9297
47.6239
43.9519
40.7365
37.9323
47.6209
43.9506
40.7365
37.9337
47.6182
43.9489
40.7357
37.9336
47.616
43.9468
40.7341
37.9324
47.6145
43.9447
40.7322
37.9307
47.6141
43.9432
40.7308
37.9294
47.6139
43.9431
40.7308
37.9294
47.614
43.9444
40.7321
37.9307
47.6152
43.9463
40.7339
37.9325
47.6172
43.9482
40.7354
37.9337
47.6197
43.9498
40.7362
37.9337
47.6227
43.951
40.736
37.9323
47.6257
43.9516
40.735
37.9297
47.6294
43.9506
40.7345
37.926
47.6222
43.9499
40.7385
37.9304
47.6304
43.9856
40.7816
37.9918
39.123
36.1514
33.5497
31.2947
39.1159
36.1223
33.5149
31.2453
39.1217
36.1228
33.5116
31.2418
39.1186
36.1235
33.512
31.2448
39.116
36.123
33.5127
31.2468
39.1135
36.1218
33.5127
31.2479
39.1112
36.1203
33.5119
31.2477
39.1093
36.1185
33.5105
31.2466
39.108
36.1167
33.5089
31.2452
39.1075
36.1154
33.5077
31.2441
39.1073
36.1153
33.5077
31.2441
39.1074
36.1164
33.5088
31.2452
39.1084
36.1179
33.5103
31.2467
39.11
36.1195
33.5115
31.2478
39.1121
36.1209
33.5122
31.2479
39.1145
36.1219
33.5121
31.2469
39.117
36.1224
33.5114
31.2447
39.1201
36.1216
33.511
31.2417
39.1142
36.121
33.5142
31.2453
39.1212
36.1501
33.549
31.2947
32.0144
29.5917
27.4783
25.6538
32.0083
29.568
27.4501
25.614
32.0131
29.5684
27.4475
25.6111
32.0105
29.569
27.4477
25.6135
32.0083
29.5685
27.4483
25.6151
32.0062
29.5675
27.4482
25.6159
32.0042
29.5661
27.4475
25.6157
32.0025
29.5646
27.4463
25.6148
32.0013
29.563
27.4449
25.6135
32.0008
29.5619
27.4439
25.6126
32.0006
29.5617
27.4438
25.6126
32.0006
29.5626
27.4447
25.6135
32.0014
29.5639
27.4459
25.6148
32.0027
29.5652
27.447
25.6157
32.0044
29.5663
27.4476
25.6159
32.0064
29.5671
27.4476
25.6151
32.0084
29.5675
27.4469
25.6134
32.0109
29.5668
27.4467
25.611
32.0061
29.5664
27.4493
25.6139
32.0121
29.5901
27.4774
25.6537
26.1072
24.1328
22.4157
20.9385
26.1021
24.1135
22.3929
20.9063
26.1059
24.1137
22.3907
20.904
26.1037
24.1142
22.3909
20.906
26.1018
24.1137
22.3913
20.9072
26.1
24.1128
22.3912
20.9078
26.0984
24.1117
22.3905
20.9076
26.0969
24.1103
22.3895
20.9068
26.0958
24.109
22.3883
20.9057
26.0953
24.108
22.3874
20.9049
26.095
24.1078
22.3873
20.9049
26.0949
24.1084
22.388
20.9057
26.0955
24.1094
22.389
20.9068
26.0965
24.1104
22.3899
20.9076
26.0978
24.1113
22.3904
20.9077
26.0994
24.112
22.3904
20.9071
26.101
24.1123
22.3899
20.9058
26.1031
24.1118
22.3896
20.9038
26.0991
24.1114
22.3917
20.9062
26.1042
24.1307
22.4146
20.9383
21.2227
19.6147
18.2199
17.0236
21.2184
19.599
18.2014
16.9976
21.2214
19.5992
18.1996
16.9957
21.2196
19.5995
18.1997
16.9972
21.218
19.599
18.2
16.9983
21.2165
19.5983
18.1998
16.9987
21.2151
19.5973
18.1993
16.9984
21.2137
19.5961
18.1984
16.9977
21.2127
19.5949
18.1973
16.9969
21.2122
19.594
18.1966
16.9962
21.2118
19.5937
18.1964
16.9962
21.2117
19.5942
18.197
16.9968
21.212
19.595
18.1978
16.9977
21.2128
19.5957
18.1985
16.9984
21.2138
19.5964
18.1989
16.9985
21.215
19.5969
18.1988
16.998
21.2163
19.5971
18.1984
16.997
21.2179
19.5967
18.1982
16.9954
21.2147
19.5963
18.1999
16.9973
21.2189
19.612
18.2184
17.0232
17.2027
15.8941
14.7614
13.7924
17.199
15.8812
14.7464
13.7714
17.2015
15.8814
14.7449
13.7698
17.1999
15.8816
14.745
13.7711
17.1986
15.8812
14.7452
13.7719
17.1973
15.8805
14.745
13.7722
17.196
15.8796
14.7445
13.772
17.1949
15.8786
14.7437
13.7714
17.1939
15.8776
14.7428
13.7707
17.1933
15.8767
14.7422
13.7701
17.1929
15.8764
14.742
13.7701
17.1927
15.8767
14.7424
13.7706
17.1929
15.8773
14.743
13.7713
17.1934
15.8778
14.7435
13.7718
17.1941
15.8783
14.7438
13.772
17.195
15.8787
14.7438
13.7716
17.196
15.8788
14.7434
13.7707
17.1973
15.8784
14.7432
13.7694
17.1946
15.8781
14.7446
13.7709
17.1981
15.8909
14.7596
13.7919
13.9083
12.8442
11.9246
11.1396
13.9053
12.8337
11.9124
11.1225
13.9073
12.8338
11.9112
11.1213
13.906
12.834
11.9113
11.1224
13.9049
12.8336
11.9114
11.123
13.9038
12.833
11.9112
11.1232
13.9027
12.8322
11.9108
11.123
13.9016
12.8313
11.9101
11.1225
13.9007
12.8304
11.9093
11.1219
13.9001
12.8296
11.9087
11.1215
13.8997
12.8293
11.9085
11.1214
13.8994
12.8294
11.9088
11.1218
13.8994
12.8298
11.9092
11.1223
13.8997
12.8302
11.9096
11.1227
13.9002
12.8305
11.9098
11.1228
13.9008
12.8307
11.9097
11.1225
13.9015
12.8308
11.9094
11.1218
13.9025
12.8304
11.9092
11.1207
13.9003
12.8301
11.9103
11.1219
13.9032
12.8405
11.9225
11.1389
11.2193
10.3544
9.60796
8.97173
11.2169
10.3459
9.59805
8.95791
11.2184
10.346
9.59709
8.95694
11.2173
10.3461
9.59711
8.95778
11.2164
10.3458
9.59719
8.95828
11.2155
10.3452
9.59704
8.95846
11.2146
10.3446
9.59664
8.9583
11.2136
10.3438
9.59606
8.95789
11.2128
10.343
9.5954
8.95738
11.2122
10.3423
9.59486
8.95699
11.2117
10.3419
9.59467
8.95695
11.2114
10.3419
9.59483
8.95723
11.2113
10.3421
9.59512
8.95763
11.2114
10.3423
9.59537
8.95792
11.2117
10.3425
9.59546
8.95796
11.2121
10.3426
9.59536
8.95766
11.2126
10.3426
9.59506
8.95705
11.2133
10.3423
9.59489
8.95616
11.2115
10.342
9.59574
8.95711
11.2138
10.3504
9.60558
8.9709
9.03211
8.32947
7.72351
7.20758
9.03014
8.32256
7.71546
7.19636
9.03135
8.3226
7.71468
7.19559
9.03048
8.32267
7.71469
7.19627
9.02974
8.3224
7.71475
7.19668
9.02897
8.32196
7.71461
7.19682
9.0282
8.32139
7.71427
7.19669
9.02741
8.32071
7.71377
7.19635
9.02669
8.31999
7.71321
7.19592
9.02613
8.31936
7.71273
7.19559
9.02562
8.31901
7.71253
7.19553
9.0252
8.31894
7.7126
7.19573
9.02501
8.31901
7.71278
7.19602
9.025
8.3191
7.71292
7.19622
9.02512
8.31917
7.71295
7.19621
9.02536
8.3192
7.71281
7.19594
9.0257
8.31913
7.71253
7.19542
9.02623
8.31881
7.71236
7.19467
9.02476
8.31858
7.71303
7.19541
9.02659
8.32537
7.721
7.20659
7.25858
6.68793
6.19598
5.77733
7.25699
6.68232
6.18943
5.76821
7.25796
6.68235
6.1888
5.7676
7.25728
6.68241
6.18881
5.76816
7.2567
6.6822
6.18886
5.76849
7.2561
6.68184
6.18874
5.76859
7.25547
6.68137
6.18845
5.76848
7.25483
6.6808
6.18803
5.7682
7.25421
6.68018
6.18755
5.76784
7.25371
6.67963
6.18714
5.76756
7.25323
6.67929
6.18693
5.76749
7.2528
6.67917
6.18695
5.76762
7.25255
6.67915
6.18704
5.76783
7.25245
6.67915
6.1871
5.76795
7.25246
6.67914
6.18707
5.76791
7.25258
6.6791
6.18692
5.76765
7.25278
6.679
6.18665
5.7672
7.25316
6.6787
6.18648
5.76656
7.25195
6.67848
6.187
5.76714
7.2534
6.68398
6.19346
5.77622
5.82436
5.36104
4.96159
4.62169
5.8231
5.35648
4.95627
4.61427
5.82389
5.35652
4.95576
4.61378
5.82338
5.35658
4.95577
4.61423
5.82296
5.35643
4.95582
4.61449
5.82253
5.35616
4.95572
4.61457
5.82206
5.35579
4.95549
4.61447
5.82156
5.35533
4.95514
4.61423
5.82106
5.35483
4.95474
4.61393
5.82064
5.35436
4.95438
4.61368
5.82022
5.35405
4.95419
4.61361
5.81982
5.35391
4.95417
4.6137
5.81956
5.35384
4.95421
4.61383
5.81942
5.35379
4.95422
4.6139
5.81936
5.35373
4.95415
4.61383
5.8194
5.35364
4.95399
4.61359
5.81951
5.35352
4.95374
4.6132
5.81977
5.35324
4.95357
4.61267
5.81877
5.35305
4.95397
4.61312
5.81993
5.3575
4.95922
4.6205
4.6673
4.2912
3.96685
3.69075
4.6663
4.28751
3.96252
3.68471
4.66697
4.28756
3.96211
3.68432
4.66663
4.28764
3.96213
3.68467
4.66637
4.28755
3.96217
3.68486
4.66609
4.28737
3.96211
3.68491
4.66578
4.2871
3.96192
3.68482
4.66544
4.28675
3.96165
3.68461
4.66508
4.28636
3.96132
3.68436
4.66476
4.28599
3.96103
3.68415
4.66443
4.28573
3.96086
3.68408
4.6641
4.2856
3.96082
3.68413
4.66387
4.28552
3.96083
3.68421
4.66372
4.28545
3.96081
3.68425
4.66364
4.28537
3.96072
3.68417
4.66364
4.28527
3.96057
3.68395
4.66369
4.28514
3.96034
3.68362
4.66387
4.28489
3.96019
3.68318
4.66305
4.28472
3.9605
3.68353
4.66397
4.28833
3.96477
3.68954
3.73578
3.43056
3.16719
2.94286
3.73501
3.42758
3.16367
2.93794
3.7356
3.42765
3.16336
2.93762
3.7354
3.42776
3.16338
2.93789