/*--------------------------------*- C++ -*----------------------------------*\
| =========                 |                                                 |
| \\      /  F ield         | foam-extend: Open Source CFD                    |
|  \\    /   O peration     | Version:     3.1                                |
|   \\  /    A nd           | Web:         http://www.extend-project.de       |
|    \\/     M anipulation  |                                                 |
\*---------------------------------------------------------------------------*/
FoamFile
{
    version     2.0;
    format      ascii;
    class       volSymmTensorField;
    location    "0.0012";
    object      sigma;
}
// * * * * * * * * * * * * * * * * * * * * * * * * * * * * * * * * * * * * * //

dimensions      [1 -1 -2 0 0 0 0];

internalField   nonuniform List<symmTensor> 
6400
(
(1214.12 -62.4683 1918 2600.63 44.9206 5620.27)
(266.173 -40.0814 2075.94 1163.22 59.6284 1999.65)
(-519.597 -21.6508 1960.9 -12.1066 55.5883 -999.638)
(-1480.19 -2.99179 1595.36 -1358.52 34.6766 -4470.95)
(1222.62 -162.024 1907.42 2577.35 221.841 5567.03)
(270.698 -105.044 2060.33 1145.23 241.099 1958.7)
(-520.307 -59.3732 1943.2 -26.8806 227.74 -1042.31)
(-1489.53 -13.8276 1575.41 -1374.28 184.472 -4530.79)
(1255.39 -265.811 1883.02 2540.32 372.255 5563.76)
(292.689 -171.552 2034.14 1122.75 402.805 1957.29)
(-507.434 -96.6503 1918.69 -39.7084 380.315 -1043.19)
(-1485.5 -22.2123 1555.92 -1377.84 308.561 -4531.14)
(1304.32 -362.797 1847.48 2489.53 519.662 5562.17)
(324.272 -234.209 1995.84 1090.02 561.82 1956.33)
(-489.582 -131.861 1882.59 -58.1754 530.272 -1043.65)
(-1481.4 -30.1886 1526.66 -1382.37 430.278 -4531.18)
(1368.05 -450.856 1800.69 2424.79 663.476 5561.54)
(365.46 -291.132 1945.33 1048.21 717.103 1956.09)
(-466.336 -163.915 1834.95 -81.7154 676.723 -1043.53)
(-1475.98 -37.516 1488.02 -1387.77 549.082 -4530.66)
(1444.97 -527.839 1742.83 2347.48 802.93 5561.54)
(415.217 -340.899 1882.86 998.275 867.743 1956.31)
(-438.223 -191.958 1776.01 -109.798 818.805 -1043.04)
(-1469.38 -43.9418 1440.19 -1394.1 664.317 -4529.82)
(1533.16 -591.87 1674.22 2259.36 937.241 5561.98)
(472.277 -382.288 1808.76 941.356 1012.86 1956.85)
(-405.973 -215.278 1706.11 -141.799 955.671 -1042.34)
(-1461.78 -49.285 1383.47 -1401.28 775.298 -4528.84)
(1630.43 -641.387 1595.26 2162.53 1065.64 5562.73)
(535.215 -414.28 1723.48 878.794 1151.59 1957.55)
(-370.412 -233.292 1625.69 -176.983 1086.5 -1041.56)
(-1453.43 -53.4012 1318.25 -1409.17 881.357 -4527.86)
(1734.4 -675.189 1506.43 2059.3 1187.37 5563.7)
(602.485 -436.08 1627.58 812.086 1283.11 1958.32)
(-332.453 -245.544 1535.27 -214.522 1210.53 -1040.85)
(-1444.57 -56.1798 1244.96 -1417.64 981.867 -4527.03)
(1842.93 -692.537 1408.34 1952.27 1301.78 5564.73)
(672.368 -447.146 1521.73 742.813 1406.7 1958.91)
(-293.128 -251.734 1435.5 -253.517 1327.06 -1040.39)
(-1435.5 -57.5652 1164.12 -1426.47 1076.28 -4526.54)
(1952.27 -692.537 1301.78 1842.93 1408.34 5564.73)
(742.814 -447.145 1406.7 672.368 1521.73 1958.91)
(-253.517 -251.734 1327.06 -293.129 1435.5 -1040.39)
(-1426.47 -57.5652 1076.28 -1435.5 1164.13 -4526.54)
(2059.3 -675.188 1187.37 1734.4 1506.43 5563.7)
(812.086 -436.08 1283.11 602.485 1627.58 1958.32)
(-214.522 -245.544 1210.53 -332.453 1535.27 -1040.85)
(-1417.64 -56.1797 981.866 -1444.57 1244.96 -4527.03)
(2162.53 -641.387 1065.64 1630.43 1595.26 5562.73)
(878.794 -414.28 1151.59 535.215 1723.48 1957.55)
(-176.983 -233.292 1086.5 -370.412 1625.69 -1041.56)
(-1409.17 -53.401 881.356 -1453.43 1318.25 -4527.86)
(2259.36 -591.87 937.241 1533.16 1674.22 5561.98)
(941.356 -382.288 1012.86 472.276 1808.75 1956.85)
(-141.799 -215.278 955.67 -405.973 1706.11 -1042.34)
(-1401.28 -49.2848 775.297 -1461.78 1383.47 -4528.84)
(2347.48 -527.839 802.929 1444.97 1742.83 5561.54)
(998.275 -340.899 867.743 415.217 1882.86 1956.31)
(-109.798 -191.958 818.804 -438.223 1776.01 -1043.04)
(-1394.1 -43.9417 664.316 -1469.38 1440.19 -4529.82)
(2424.79 -450.856 663.476 1368.05 1800.68 5561.54)
(1048.21 -291.131 717.102 365.46 1945.33 1956.08)
(-81.7156 -163.915 676.723 -466.336 1834.95 -1043.53)
(-1387.77 -37.5159 549.082 -1475.98 1488.01 -4530.66)
(2489.53 -362.797 519.662 1304.32 1847.48 5562.17)
(1090.02 -234.209 561.819 324.272 1995.84 1956.33)
(-58.1757 -131.861 530.271 -489.582 1882.58 -1043.65)
(-1382.37 -30.1884 430.277 -1481.4 1526.66 -4531.18)
(2540.32 -265.811 372.255 1255.39 1883.02 5563.76)
(1122.75 -171.552 402.804 292.69 2034.14 1957.29)
(-39.7087 -96.6502 380.314 -507.434 1918.69 -1043.19)
(-1377.84 -22.2122 308.561 -1485.5 1555.92 -4531.14)
(2577.35 -162.024 221.84 1222.62 1907.42 5567.03)
(1145.23 -105.044 241.099 270.699 2060.33 1958.7)
(-26.881 -59.3731 227.74 -520.307 1943.2 -1042.31)
(-1374.28 -13.8275 184.471 -1489.53 1575.41 -4530.79)
(2600.62 -62.4683 44.9205 1214.12 1918 5620.27)
(1163.22 -40.0814 59.6283 266.174 2075.94 1999.65)
(-12.107 -21.6508 55.5882 -519.597 1960.9 -999.638)
(-1358.52 -2.99176 34.6765 -1480.19 1595.36 -4470.95)
(-1203.47 -137.231 839.706 1926.06 -27.2469 1640.38)
(-683.815 -104.748 1560.38 1713.97 12.7014 959.554)
(-353.094 -74.3763 1530.92 1398.19 11.9222 -27.4113)
(29.4324 -46.6365 801.906 1203.77 -26.5334 -791.882)
(-1145.93 -365.914 845.947 1914.11 99.805 1644.26)
(-643.171 -280.728 1550.84 1693.79 183.601 948.26)
(-321.218 -204.654 1511.57 1382.42 179.551 -41.0862)
(58.1411 -136.438 774.478 1197.27 93.5277 -798.238)
(-1071.37 -600.905 835.653 1832.94 166.133 1640.7)
(-584.456 -458.947 1531.44 1635.01 304.894 946.09)
(-277.89 -334.426 1492.53 1339.35 297.696 -43.1234)
(87.7429 -223.449 764.779 1168.1 153.682 -799.723)
(-959.642 -820.274 819.929 1719.85 231.301 1639.8)
(-499.266 -626.66 1502.65 1548.81 424.162 945.269)
(-215.683 -456.546 1464.45 1276.69 413.849 -43.6319)
(129.259 -305.009 750.348 1126.1 213.05 -799.988)
(-815.063 -1019.47 799.108 1574.28 294.94 1639.47)
(-388.767 -779.015 1464.61 1437.65 540.717 945.161)
(-135.14 -567.586 1427.38 1195.76 527.386 -43.4729)
(183.092 -379.202 731.318 1072.08 271.117 -799.563)
(-641.044 -1193.62 773.315 1399.69 356.695 1639.51)
(-255.695 -912.228 1417.53 1304.21 653.89 945.424)
(-38.1284 -664.7 1381.53 1098.54 637.645 -42.9801)
(247.915 -444.09 707.813 1007.16 327.52 -798.851)
(-441.839 -1338.47 742.695 1200.28 416.192 1639.82)
(-103.324 -1023.02 1361.69 1151.72 762.989 945.895)
(72.9557 -745.454 1327.17 987.396 743.944 -42.3428)
(322.118 -498.029 679.975 932.891 381.897 -798.068)
(-222.307 -1450.49 707.427 980.881 473.05 1640.29)
(64.6139 -1108.65 1297.44 983.908 867.328 946.461)
(195.371 -807.837 1264.64 865.033 845.614 -41.692)
(403.851 -539.665 647.984 851.08 433.895 -797.358)
(12.211 -1526.97 667.747 746.821 526.874 1640.82)
(244.053 -1167.01 1225.2 804.876 966.241 947.029)
(326.093 -850.285 1194.36 734.47 942.015 -41.1364)
(491.066 -567.952 612.06 763.748 483.174 -796.834)
(256.968 -1566.18 624.187 504.138 577.258 1641.67)
(430.569 -1196.61 1145.56 619.056 1059.12 947.493)
(461.789 -871.749 1116.82 598.988 1032.57 -40.7879)
(581.56 -582.223 572.462 673.154 529.437 -796.56)
(504.139 -1566.18 577.257 256.968 624.188 1641.67)
(619.056 -1196.61 1059.12 430.568 1145.56 947.493)
(598.988 -871.749 1032.57 461.789 1116.83 -40.7879)
(673.154 -582.222 529.436 581.559 572.463 -796.56)
(746.821 -1526.97 526.874 12.211 667.747 1640.82)
(804.877 -1167.01 966.241 244.053 1225.2 947.029)
(734.471 -850.284 942.014 326.093 1194.36 -41.1365)
(763.748 -567.951 483.174 491.066 612.06 -796.834)
(980.882 -1450.49 473.05 -222.307 707.427 1640.29)
(983.908 -1108.65 867.327 64.6139 1297.44 946.461)
(865.033 -807.836 845.613 195.371 1264.64 -41.6922)
(851.08 -539.664 433.894 403.85 647.984 -797.358)
(1200.28 -1338.47 416.192 -441.839 742.695 1639.82)
(1151.72 -1023.02 762.988 -103.324 1361.69 945.895)
(987.396 -745.453 743.943 72.9557 1327.17 -42.343)
(932.89 -498.029 381.897 322.117 679.975 -798.068)
(1399.69 -1193.62 356.694 -641.043 773.315 1639.51)
(1304.21 -912.227 653.889 -255.694 1417.53 945.424)
(1098.54 -664.699 637.644 -38.1282 1381.53 -42.9804)
(1007.16 -444.089 327.519 247.915 707.813 -798.852)
(1574.28 -1019.47 294.94 -815.062 799.107 1639.47)
(1437.65 -779.015 540.716 -388.767 1464.61 945.161)
(1195.76 -567.586 527.386 -135.14 1427.38 -43.4733)
(1072.08 -379.202 271.116 183.092 731.318 -799.564)
(1719.85 -820.273 231.301 -959.64 819.929 1639.8)
(1548.81 -626.659 424.161 -499.265 1502.65 945.269)
(1276.69 -456.545 413.848 -215.682 1464.45 -43.6323)
(1126.1 -305.009 213.05 129.259 750.348 -799.989)
(1832.94 -600.904 166.132 -1071.37 835.653 1640.7)
(1635.01 -458.947 304.894 -584.455 1531.44 946.09)
(1339.35 -334.425 297.696 -277.889 1492.53 -43.1238)
(1168.1 -223.449 153.681 87.743 764.779 -799.724)
(1914.11 -365.914 99.8048 -1145.92 845.946 1644.26)
(1693.79 -280.727 183.601 -643.17 1550.84 948.26)
(1382.42 -204.653 179.551 -321.217 1511.57 -41.0866)
(1197.26 -136.438 93.5275 58.1412 774.477 -798.238)
(1926.06 -137.231 -27.2469 -1203.46 839.705 1640.38)
(1713.96 -104.748 12.7013 -683.814 1560.38 959.553)
(1398.19 -74.3762 11.9221 -353.093 1530.92 -27.4117)
(1203.76 -46.6364 -26.5334 29.4326 801.906 -791.883)
(-1178.65 -165.149 527.238 2724.43 -41.0367 -210.047)
(-772.241 -150.751 920.549 2763.92 -19.6741 260.937)
(-337.689 -133.277 898.79 2810.18 -20.4335 625.046)
(16.1482 -119.989 476.537 2886.6 -42.0789 1076.1)
(-1122.86 -456.482 527.275 2694.29 61.2122 -195.861)
(-721.423 -413.93 912.914 2726.21 106.913 268.447)
(-293.111 -367.919 884.809 2772.37 104.161 630.767)
(52.2721 -334.126 459.253 2844.88 55.1467 1081.59)
(-1030.33 -750.236 520.66 2595.43 103.159 -197.7)
(-635.124 -677.668 901.45 2640.99 179.32 268.878)
(-215.897 -602.459 873.619 2696.62 174.422 631.373)
(122.832 -549.012 453.687 2776.67 91.7414 1082.46)
(-890.67 -1024.4 510.827 2455.36 144.009 -197.914)
(-509.111 -925.508 884.448 2514.7 249.889 268.798)
(-103.611 -822.793 857.153 2584.66 242.81 631.588)
(225.082 -749.917 445.081 2674.73 127.318 1082.78)
(-709.99 -1273.38 497.814 2274.21 183.747 -198.064)
(-345.785 -1150.63 861.994 2351.18 318.596 268.886)
(41.6677 -1023 835.392 2439.43 309.365 631.912)
(357.539 -932.407 433.716 2542.51 161.844 1083.32)
(-492.544 -1491.08 481.678 2056.52 222.257 -198.046)
(-149.186 -1347.48 834.213 2154.49 385.209 269.126)
(216.527 -1198.05 808.493 2264.6 373.872 632.373)
(516.938 -1091.94 419.719 2383.25 195.242 1083.99)
(-243.644 -1672.17 462.502 1807.63 259.342 -197.882)
(75.8692 -1511.2 801.272 1929.47 449.381 269.47)
(416.68 -1343.62 776.633 2064.51 436.004 632.894)
(699.357 -1224.56 403.189 2200.9 227.37 1084.69)
(30.6442 -1812.22 440.404 1533.61 294.754 -197.607)
(323.879 -1637.74 763.384 1681.67 510.719 269.862)
(637.21 -1456.07 740.022 1844.09 495.395 633.396)
(900.287 -1326.97 384.241 1999.97 258.049 1085.29)
(323.652 -1907.82 415.566 1241.19 328.201 -197.264)
(588.832 -1723.98 720.83 1417.2 568.815 270.266)
(872.688 -1532.62 698.918 1608.8 551.67 633.812)
(1114.74 -1396.62 363.015 1785.45 287.093 1085.72)
(629.159 -1956.74 388.437 937.815 359.391 -196.529)
(864.185 -1767.72 674.016 1142.6 623.303 270.635)
(1117.19 -1571.35 653.643 1364.54 604.495 634.075)
(1337.37 -1431.83 339.669 1562.73 314.335 1085.93)
(937.815 -1956.73 359.39 629.159 388.438 -196.529)
(1142.6 -1767.72 623.303 864.184 674.016 270.635)
(1364.54 -1571.35 604.494 1117.19 653.644 634.075)
(1562.73 -1431.83 314.335 1337.37 339.67 1085.93)
(1241.19 -1907.82 328.2 323.652 415.566 -197.264)
(1417.2 -1723.98 568.814 588.832 720.83 270.266)
(1608.8 -1532.62 551.669 872.687 698.918 633.812)
(1785.45 -1396.62 287.093 1114.74 363.015 1085.72)
(1533.61 -1812.22 294.753 30.6443 440.404 -197.606)
(1681.67 -1637.74 510.718 323.879 763.384 269.862)
(1844.09 -1456.07 495.394 637.21 740.022 633.396)
(1999.97 -1326.97 258.049 900.286 384.241 1085.29)
(1807.63 -1672.17 259.342 -243.643 462.501 -197.882)
(1929.47 -1511.2 449.38 75.8696 801.272 269.47)
(2064.51 -1343.61 436.003 416.681 776.633 632.894)
(2200.9 -1224.56 227.369 699.357 403.189 1084.69)
(2056.52 -1491.08 222.257 -492.543 481.678 -198.046)
(2154.49 -1347.48 385.208 -149.185 834.212 269.126)
(2264.6 -1198.05 373.871 216.527 808.493 632.372)
(2383.25 -1091.94 195.242 516.938 419.718 1083.99)
(2274.21 -1273.38 183.747 -709.988 497.814 -198.064)
(2351.18 -1150.63 318.596 -345.783 861.993 268.886)
(2439.43 -1023 309.364 41.6684 835.392 631.911)
(2542.51 -932.406 161.843 357.539 433.716 1083.32)
(2455.35 -1024.4 144.008 -890.669 510.826 -197.914)
(2514.7 -925.507 249.889 -509.11 884.448 268.799)
(2584.66 -822.793 242.81 -103.61 857.153 631.588)
(2674.73 -749.916 127.317 225.083 445.08 1082.78)
(2595.43 -750.235 103.159 -1030.32 520.659 -197.7)
(2640.99 -677.668 179.319 -635.122 901.449 268.878)
(2696.62 -602.459 174.422 -215.896 873.618 631.372)
(2776.67 -549.012 91.741 122.832 453.687 1082.46)
(2694.29 -456.482 61.2119 -1122.86 527.275 -195.86)
(2726.21 -413.929 106.912 -721.421 912.913 268.447)
(2772.37 -367.919 104.161 -293.11 884.808 630.767)
(2844.87 -334.126 55.1465 52.2725 459.253 1081.59)
(2724.43 -165.149 -41.0367 -1178.64 527.237 -210.046)
(2763.92 -150.751 -19.6742 -772.239 920.548 260.937)
(2810.17 -133.277 -20.4336 -337.687 898.79 625.046)
(2886.6 -119.989 -42.079 16.1486 476.536 1076.1)
(-1108.77 -194.913 275.616 3574.71 -38.5466 -1263.67)
(-730.835 -189.148 470.345 3758.92 -27.9056 -101.061)
(-340.554 -181.171 454.776 3946.95 -28.4443 984.719)
(-7.23948 -175.032 238.825 4156.78 -39.2246 2122.68)
(-1047.14 -547.733 274.095 3531.18 30.8132 -1242.09)
(-673.208 -525.619 464.728 3706.75 53.6272 -84.425)
(-287.66 -501.41 446.128 3891.26 52.0083 999.624)
(38.8879 -484.43 228.707 4090.93 27.3887 2135.24)
(-936.136 -900.12 270.612 3413.94 52.751 -1242.9)
(-564.882 -861.159 458.774 3597.97 90.7757 -83.2271)
(-183.899 -821.465 440.449 3787.39 87.8682 1001.05)
(140.765 -796.713 225.935 3992.3 46.0826 2137.62)
(-768.616 -1229.23 265.45 3246.38 74.125 -1242.53)
(-404.765 -1176.21 450.015 3437.64 126.929 -82.6792)
(-30.8171 -1122.05 432.054 3634.71 122.661 1001.94)
(289.121 -1088.45 221.548 3844.36 64.1517 2138.64)
(-551.743 -1528.18 258.628 3029.43 94.8892 -1242.47)
(-197.129 -1462.39 438.479 3230.09 162.017 -82.3204)
(167.366 -1395.11 420.959 3436.79 156.357 1002.56)
(481.41 -1353.33 215.758 3652.48 81.5085 2139.51)
(-290.726 -1789.62 250.148 2768.5 114.996 -1242.45)
(52.7738 -1712.64 424.226 2980.35 195.96 -82.037)
(405.852 -1633.84 407.281 3198.53 188.898 1003.1)
(712.785 -1584.87 208.684 3421.39 98.1458 2140.29)
(8.04214 -2007.11 240.043 2469.98 134.348 -1242.42)
(338.816 -1920.77 407.346 2694.54 228.611 -81.7713)
(678.796 -1832.35 391.131 2925.8 220.16 1003.57)
(977.549 -1777.34 200.403 3156.81 114.039 2140.99)
(337.271 -2175.32 228.379 2141.17 152.794 -1242.33)
(654.005 -2081.66 387.958 2379.69 259.772 -81.509)
(979.5 -1985.73 372.63 2625.32 249.981 1003.99)
(1269.18 -1926 190.985 2865.29 129.135 2141.55)
(688.942 -2290.12 215.282 1790.12 170.137 -1242.16)
(990.685 -2191.3 366.235 2043.54 289.226 -81.2328)
(1300.57 -2090.15 351.927 2304.51 278.182 1004.32)
(1580.45 -2027.14 180.51 2554.02 143.368 2141.94)
(1055.37 -2348.75 201.123 1425.76 186.179 -1241.56)
(1340.55 -2246.9 342.443 1694.43 316.785 -80.9463)
(1633.98 -2143 329.207 1971.36 304.612 1004.53)
(1903.63 -2078.29 169.06 2230.8 156.681 2142.13)
(1425.76 -2348.75 186.178 1055.37 201.123 -1241.56)
(1694.43 -2246.9 316.784 1340.55 342.443 -80.9462)
(1971.36 -2143 304.612 1633.98 329.207 1004.53)
(2230.8 -2078.29 156.68 1903.63 169.06 2142.13)
(1790.12 -2290.11 170.137 688.941 215.282 -1242.16)
(2043.54 -2191.3 289.226 990.684 366.235 -81.2326)
(2304.51 -2090.15 278.182 1300.57 351.927 1004.32)
(2554.02 -2027.14 143.368 1580.45 180.51 2141.94)
(2141.17 -2175.32 152.794 337.271 228.379 -1242.32)
(2379.69 -2081.66 259.772 654.005 387.959 -81.5088)
(2625.32 -1985.73 249.98 979.5 372.63 1003.99)
(2865.29 -1925.99 129.135 1269.17 190.985 2141.55)
(2469.98 -2007.11 134.348 8.04277 240.043 -1242.42)
(2694.54 -1920.77 228.61 338.816 407.346 -81.771)
(2925.8 -1832.35 220.16 678.796 391.131 1003.57)
(3156.81 -1777.34 114.038 977.549 200.403 2140.99)
(2768.5 -1789.62 114.995 -290.725 250.148 -1242.45)
(2980.35 -1712.64 195.96 52.7749 424.226 -82.0366)
(3198.53 -1633.84 188.897 405.853 407.281 1003.1)
(3421.39 -1584.87 98.1454 712.784 208.684 2140.29)
(3029.42 -1528.18 94.8888 -551.741 258.628 -1242.46)
(3230.09 -1462.39 162.016 -197.127 438.479 -82.3199)
(3436.79 -1395.11 156.356 167.367 420.959 1002.56)
(3652.48 -1353.33 81.5081 481.41 215.758 2139.51)
(3246.38 -1229.23 74.1246 -768.614 265.45 -1242.53)
(3437.64 -1176.21 126.928 -404.763 450.015 -82.6787)
(3634.71 -1122.05 122.66 -30.8158 432.054 1001.94)
(3844.36 -1088.45 64.1514 289.121 221.548 2138.64)
(3413.94 -900.119 52.7507 -936.134 270.612 -1242.9)
(3597.97 -861.158 90.7754 -564.879 458.773 -83.2266)
(3787.39 -821.464 87.8679 -183.898 440.449 1001.05)
(3992.3 -796.712 46.0823 140.766 225.935 2137.62)
(3531.17 -547.732 30.813 -1047.14 274.095 -1242.09)
(3706.75 -525.618 53.627 -673.205 464.727 -84.4244)
(3891.26 -501.409 52.0081 -287.659 446.128 999.624)
(4090.93 -484.429 27.3885 38.8884 228.707 2135.24)
(3574.71 -194.913 -38.5467 -1108.77 275.616 -1263.67)
(3758.91 -189.148 -27.9057 -730.833 470.344 -101.061)
(3946.95 -181.171 -28.4444 -340.552 454.776 984.719)
(4156.78 -175.032 -39.2246 -7.2389 238.825 2122.68)
(-1039.28 -217.907 90.2208 4230.72 -25.7947 -1719.92)
(-688.67 -215.889 153.842 4459.16 -22.1756 -254.616)
(-335.162 -212.052 147.059 4690.86 -22.3158 1148.92)
(-25.389 -208.815 73.8859 4940.18 -25.7259 2581.47)
(-972.162 -616.462 88.7181 4178.75 8.85423 -1695.15)
(-625.458 -602.887 150.802 4397.92 16.7467 -234.179)
(-276.155 -587.961 143.001 4624.37 16.4431 1167.48)
(27.6196 -577.615 69.4929 4860.25 8.5991 2596.45)
(-847.179 -1012.93 87.6216 4047.54 15.7705 -1695.63)
(-501.744 -987.892 148.751 4272.87 28.8066 -232.925)
(-155.06 -963.42 141.037 4502.15 28.141 1168.93)
(148.946 -950.18 68.5373 4742.49 14.6529 2599.31)
(-658.67 -1383.32 85.9411 3859.3 22.648 -1694.93)
(-318.052 -1349.26 145.76 4088.95 40.5852 -232.117)
(24.4911 -1315.96 138.152 4322.87 39.4546 1170.08)
(325.877 -1298.14 67.0101 4565.79 20.4355 2600.62)
(-414.562 -1719.84 83.6701 3615.46 29.4111 -1694.7)
(-79.824 -1677.52 141.839 3850.97 51.9973 -231.6)
(256.959 -1636.15 134.376 4090.69 50.3182 1170.85)
(555.214 -1613.97 65.0412 4336.75 25.8439 2601.65)
(-120.763 -2014.18 80.7901 3322.08 36.0203 -1694.66)
(206.859 -1964.58 137.015 3564.64 63.0107 -231.283)
(536.65 -1916.06 129.784 3811.29 60.7139 1171.41)
(831.136 -1890.01 62.7197 4061.05 30.8729 2602.46)
(215.521 -2259.08 77.3013 2986.31 42.4167 -1694.7)
(534.963 -2203.34 131.331 3236.92 73.5745 -231.071)
(856.709 -2148.81 124.439 3491.5 70.6168 1171.84)
(1146.85 -2119.47 60.1052 3745.49 35.5406 2603.13)
(586.07 -2448.5 73.2322 2616.32 48.5017 -1694.74)
(896.468 -2387.91 124.845 2875.85 83.6119 -230.904)
(1209.29 -2328.64 118.407 3139.19 79.9871 1172.17)
(1494.58 -2296.69 57.2451 3397.87 39.8624 2603.65)
(981.849 -2577.76 68.6636 2221.18 54.138 -1694.73)
(1282.59 -2513.7 117.653 2490.28 93.0301 -230.729)
(1585.74 -2451.08 111.765 2763.03 88.7781 1172.43)
(1865.75 -2417.29 54.1816 3026.73 43.85 2604)
(1394.08 -2643.71 63.9111 1810.91 59.1893 -1694.24)
(1683.83 -2577.48 109.928 2089.77 101.767 -230.513)
(1976.7 -2513.08 104.606 2372.35 96.9662 1172.6)
(2251.16 -2478.31 50.9463 2641.31 47.5253 2604.17)
(1810.91 -2643.71 59.189 1394.08 63.9114 -1694.24)
(2089.77 -2577.48 101.766 1683.83 109.928 -230.512)
(2372.35 -2513.07 96.9659 1976.7 104.606 1172.6)
(2641.31 -2478.31 47.5251 2251.15 50.9465 2604.17)
(2221.18 -2577.75 54.1377 981.849 68.6639 -1694.73)
(2490.28 -2513.7 93.0298 1282.59 117.653 -230.729)
(2763.03 -2451.08 88.7777 1585.74 111.765 1172.43)
(3026.73 -2417.29 43.8497 1865.75 54.1817 2604)
(2616.32 -2448.5 48.5014 586.071 73.2324 -1694.74)
(2875.85 -2387.91 83.6115 896.469 124.845 -230.904)
(3139.19 -2328.64 79.9868 1209.29 118.408 1172.17)
(3397.87 -2296.69 39.8621 1494.58 57.2452 2603.65)
(2986.31 -2259.08 42.4164 215.521 77.3014 -1694.7)
(3236.92 -2203.34 73.5741 534.964 131.331 -231.07)
(3491.5 -2148.8 70.6165 856.709 124.439 1171.84)
(3745.49 -2119.47 35.5403 1146.85 60.1053 2603.13)
(3322.08 -2014.18 36.02 -120.762 80.7901 -1694.66)
(3564.64 -1964.58 63.0103 206.86 137.015 -231.283)
(3811.29 -1916.06 60.7136 536.65 129.784 1171.41)
(4061.05 -1890.01 30.8726 831.136 62.7198 2602.46)
(3615.46 -1719.84 29.4108 -414.56 83.6701 -1694.7)
(3850.97 -1677.52 51.997 -79.8222 141.839 -231.599)
(4090.69 -1636.15 50.3179 256.96 134.376 1170.85)
(4336.75 -1613.97 25.8436 555.214 65.0413 2601.64)
(3859.3 -1383.32 22.6477 -658.667 85.9411 -1694.93)
(4088.95 -1349.26 40.585 -318.05 145.76 -232.116)
(4322.87 -1315.96 39.4544 24.4926 138.152 1170.08)
(4565.79 -1298.14 20.4353 325.877 67.0101 2600.62)
(4047.54 -1012.93 15.7704 -847.176 87.6216 -1695.62)
(4272.87 -987.891 28.8065 -501.742 148.751 -232.924)
(4502.15 -963.419 28.1408 -155.058 141.036 1168.93)
(4742.49 -950.179 14.6527 148.947 68.5372 2599.31)
(4178.75 -616.462 8.85412 -972.159 88.718 -1695.15)
(4397.91 -602.886 16.7465 -625.455 150.802 -234.178)
(4624.37 -587.961 16.443 -276.153 143.001 1167.48)
(4860.24 -577.614 8.599 27.6202 69.4928 2596.45)
(4230.72 -217.907 -25.7947 -1039.28 90.2207 -1719.92)
(4459.16 -215.889 -22.1757 -688.667 153.842 -254.616)
(4690.86 -212.052 -22.3158 -335.16 147.058 1148.92)
(4940.18 -208.815 -25.726 -25.3884 73.8859 2581.47)
(-969.539 -228.556 -46.3091 4567.01 -8.53285 -1756.63)
(-643.707 -227.16 -74.6603 4779.66 -9.9029 -265.835)
(-321.094 -224.196 -73.4213 4996.59 -9.69401 1172.59)
(-34.5088 -221.249 -43.7946 5230.08 -7.87096 2627.47)
(-899.372 -647.834 -47.1062 4512.13 -7.0201 -1731.58)
(-577.823 -635.473 -75.0988 4715.08 -9.58101 -245.074)
(-259.387 -622.354 -73.4912 4926.2 -8.74764 1191.29)
(21.4923 -612.507 -43.4841 5145.34 -4.54417 2642.01)
(-767.891 -1064.42 -46.4633 4374.73 -11.2902 -1732.01)
(-447.503 -1041.24 -74.3641 4583.28 -15.7207 -243.997)
(-131.324 -1019.72 -72.8522 4796.63 -14.4368 1192.44)
(150.136 -1007.5 -43.2058 5020.16 -7.5415 2644.64)
(-569.724 -1453.67 -45.5882 4177.27 -15.2169 -1731.14)
(-253.823 -1422.03 -73.2433 4389.47 -21.6508 -243.181)
(58.7575 -1392.74 -71.858 4606.68 -20.0435 1193.47)
(337.739 -1376.33 -42.7392 4832.44 -10.5937 2645.72)
(-313.113 -1807.36 -44.5254 3921.38 -18.8437 -1730.75)
(-2.68622 -1767.9 -71.7346 4138.76 -27.4057 -242.64)
(304.813 -1731.45 -70.4657 4360.82 -25.6053 1194.12)
(580.869 -1711.01 -42.0285 4589.27 -13.7514 2646.51)
(-4.28123 -2116.76 -43.3131 3613.41 -22.1998 -1730.6)
(299.469 -2070.34 -69.8317 3837.13 -32.9823 -242.334)
(600.78 -2027.51 -68.6344 4065.08 -31.109 1194.54)
(873.333 -2003.45 -41.0148 4296.74 -17.0128 2647.08)
(349.188 -2374.23 -41.9776 3260.81 -25.3263 -1730.6)
(645.223 -2321.89 -67.5244 3491.92 -38.3718 -242.168)
(939.401 -2273.65 -66.3297 3726.69 -36.5219 1194.83)
(1207.93 -2246.51 -39.6489 3962.07 -20.3435 2647.52)
(738.646 -2573.38 -40.5206 2872.17 -28.291 -1730.67)
(1026.12 -2516.35 -64.792 3111.55 -43.5732 -242.071)
(1312.38 -2463.81 -63.5195 3353.95 -41.8054 1195.03)
(1576.42 -2434.21 -37.8931 3593.52 -23.694 2647.85)
(1154.58 -2709.28 -38.8936 2456.96 -31.193 -1730.72)
(1432.92 -2648.88 -61.5862 2705.35 -48.5904 -241.97)
(1710.58 -2593.3 -60.1689 2956 -46.9141 1195.18)
(1969.74 -2561.95 -35.7221 3200.14 -27.0026 2648.07)
(1587.68 -2778.58 -36.822 2025.71 -34.1293 -1730.32)
(1855.63 -2716.09 -57.795 2283.34 -53.3933 -241.811)
(2124.13 -2658.87 -56.2423 2542.69 -51.7746 1195.29)
(2378.17 -2626.59 -33.1346 2791.66 -30.1883 2648.18)
(2025.71 -2778.58 -34.1295 1587.68 -36.8218 -1730.32)
(2283.34 -2716.09 -53.3935 1855.63 -57.7949 -241.811)
(2542.69 -2658.87 -51.7747 2124.13 -56.2422 1195.29)
(2791.66 -2626.59 -30.1883 2378.17 -33.1345 2648.18)
(2456.96 -2709.28 -31.1932 1154.58 -38.8934 -1730.72)
(2705.35 -2648.88 -48.5905 1432.92 -61.586 -241.97)
(2956 -2593.3 -46.9143 1710.58 -60.1688 1195.18)
(3200.14 -2561.95 -27.0027 1969.74 -35.722 2648.07)
(2872.17 -2573.38 -28.2912 738.646 -40.5204 -1730.67)
(3111.55 -2516.35 -43.5734 1026.12 -64.7918 -242.07)
(3353.95 -2463.81 -41.8055 1312.38 -63.5194 1195.03)
(3593.52 -2434.21 -23.6941 1576.42 -37.893 2647.85)
(3260.81 -2374.23 -25.3265 349.188 -41.9774 -1730.6)
(3491.92 -2321.89 -38.372 645.224 -67.5242 -242.167)
(3726.69 -2273.65 -36.522 939.401 -66.3296 1194.83)
(3962.07 -2246.51 -20.3436 1207.93 -39.6488 2647.52)
(3613.41 -2116.76 -22.2 -4.27987 -43.313 -1730.6)
(3837.13 -2070.34 -32.9824 299.47 -69.8316 -242.333)
(4065.08 -2027.51 -31.1092 600.781 -68.6343 1194.54)
(4296.73 -2003.45 -17.0129 873.332 -41.0147 2647.08)
(3921.38 -1807.36 -18.8438 -313.111 -44.5253 -1730.74)
(4138.76 -1767.9 -27.4058 -2.68429 -71.7345 -242.639)
(4360.82 -1731.45 -25.6054 304.814 -70.4656 1194.12)
(4589.27 -1711.01 -13.7515 580.869 -42.0284 2646.51)
(4177.27 -1453.67 -15.217 -569.722 -45.5881 -1731.14)
(4389.47 -1422.02 -21.6509 -253.821 -73.2432 -243.18)
(4606.68 -1392.74 -20.0436 58.7591 -71.858 1193.47)
(4832.44 -1376.33 -10.5937 337.739 -42.7391 2645.72)
(4374.73 -1064.42 -11.2903 -767.889 -46.4631 -1732.01)
(4583.28 -1041.24 -15.7208 -447.5 -74.364 -243.996)
(4796.62 -1019.72 -14.4369 -131.322 -72.8521 1192.44)
(5020.16 -1007.5 -7.54155 150.137 -43.2057 2644.64)
(4512.12 -647.833 -7.02015 -899.369 -47.1061 -1731.58)
(4715.08 -635.473 -9.58107 -577.82 -75.0988 -245.074)
(4926.2 -622.354 -8.74768 -259.385 -73.4912 1191.29)
(5145.34 -612.506 -4.5442 21.4929 -43.484 2642.01)
(4567.01 -228.556 -8.53288 -969.536 -46.309 -1756.63)
(4779.66 -227.16 -9.90293 -643.703 -74.6603 -265.835)
(4996.58 -224.196 -9.69403 -321.092 -73.4213 1172.59)
(5230.08 -221.248 -7.87098 -34.5081 -43.7945 2627.47)
(-886.109 -224.965 -155.889 4557.16 8.64695 -1477.67)
(-587.05 -222.208 -254.135 4714.35 3.39967 -170.941)
(-296.564 -218.116 -246.274 4877.07 3.85133 1090)
(-36.7603 -213.866 -137.788 5057.27 9.62947 2362.45)
(-816.327 -637.178 -155.808 4504.5 -19.5505 -1454.62)
(-522.171 -621.624 -252.186 4651.87 -30.1348 -152.428)
(-236.064 -605.9 -242.907 4809.06 -28.4425 1106.27)
(18.177 -592.9 -133.524 4975.89 -15.0652 2374.5)
(-686.791 -1046.93 -153.815 4369.77 -32.7518 -1455)
(-394.503 -1018.4 -249.291 4523.09 -50.5265 -151.583)
(-111.258 -992.555 -240.24 4682.78 -47.7399 1106.95)
(142.765 -974.983 -132.265 4854.24 -25.2886 2376.38)
(-491.697 -1429.8 -150.929 4176.02 -45.3594 -1453.95)
(-204.94 -1390.68 -244.981 4333.66 -70.3745 -150.894)
(73.8229 -1355.42 -236.235 4497.69 -66.6259 1107.55)
(324.31 -1331.68 -130.218 4672.08 -35.4198 2376.75)
(-239.106 -1777.73 -147.229 3924.81 -57.3673 -1453.28)
(40.7805 -1728.78 -239.258 4088.6 -89.6461 -150.412)
(313.319 -1684.81 -230.835 4258.23 -85.0931 1107.83)
(559.507 -1655.23 -127.389 4436.3 -45.4426 2376.84)
(64.8522 -2082.11 -142.771 3622.37 -68.7794 -1452.84)
(336.333 -2024.36 -232.135 3793.81 -108.298 -150.134)
(601.3 -1972.62 -224.028 3970.32 -103.093 1107.91)
(842.346 -1937.83 -123.749 4152.86 -55.3383 2376.76)
(412.705 -2335.43 -137.601 3275.99 -79.6101 -1452.57)
(674.442 -2270.17 -223.622 3456.47 -126.269 -149.989)
(930.684 -2211.83 -215.801 3641.02 -120.546 1107.89)
(1165.85 -2172.61 -119.254 3828.81 -65.0621 2376.61)
(795.928 -2531.38 -131.745 2894.08 -89.8915 -1452.43)
(1046.83 -2460.17 -213.722 3084.79 -143.491 -149.916)
(1293.4 -2396.59 -206.136 3278.44 -137.352 1107.84)
(1522.05 -2353.87 -113.869 3472.17 -74.5433 2376.46)
(1205.13 -2665.1 -125.179 2485.93 -99.6813 -1452.36)
(1444.43 -2589.64 -202.41 2687.87 -159.891 -149.846)
(1680.56 -2522.38 -195.018 2891.44 -153.389 1107.81)
(1902.22 -2477.19 -107.569 3091.67 -83.6832 2376.35)
(1631.07 -2733.27 -117.659 2061.84 -109.035 -1451.96)
(1857.52 -2655.29 -189.612 2275.49 -175.351 -149.719)
(2082.62 -2586.06 -182.443 2489.56 -168.495 1107.81)
(2296.99 -2539.59 -100.366 2696.72 -92.3484 2376.29)
(2061.84 -2733.27 -109.035 1631.07 -117.659 -1451.96)
(2275.49 -2655.29 -175.351 1857.52 -189.612 -149.719)
(2489.56 -2586.06 -168.495 2082.62 -182.443 1107.81)
(2696.72 -2539.59 -92.3483 2296.99 -100.366 2376.29)
(2485.93 -2665.1 -99.6814 1205.13 -125.179 -1452.36)
(2687.88 -2589.64 -159.891 1444.43 -202.41 -149.846)
(2891.44 -2522.38 -153.389 1680.56 -195.018 1107.81)
(3091.67 -2477.19 -83.6831 1902.22 -107.569 2376.35)
(2894.08 -2531.38 -89.8916 795.928 -131.745 -1452.43)
(3084.79 -2460.17 -143.491 1046.83 -213.721 -149.916)
(3278.44 -2396.59 -137.352 1293.4 -206.136 1107.84)
(3472.17 -2353.87 -74.5432 1522.05 -113.869 2376.46)
(3275.99 -2335.42 -79.6101 412.706 -137.601 -1452.57)
(3456.47 -2270.17 -126.269 674.443 -223.622 -149.989)
(3641.02 -2211.83 -120.546 930.684 -215.8 1107.89)
(3828.81 -2172.61 -65.062 1165.85 -119.254 2376.61)
(3622.37 -2082.11 -68.7795 64.8535 -142.771 -1452.83)
(3793.81 -2024.36 -108.298 336.335 -232.135 -150.134)
(3970.32 -1972.62 -103.093 601.301 -224.028 1107.91)
(4152.86 -1937.83 -55.3382 842.345 -123.748 2376.76)
(3924.81 -1777.73 -57.3673 -239.104 -147.229 -1453.28)
(4088.6 -1728.77 -89.646 40.7824 -239.258 -150.411)
(4258.23 -1684.81 -85.0931 313.32 -230.835 1107.83)
(4436.3 -1655.23 -45.4425 559.507 -127.389 2376.84)
(4176.02 -1429.8 -45.3594 -491.695 -150.929 -1453.94)
(4333.65 -1390.68 -70.3745 -204.937 -244.981 -150.894)
(4497.69 -1355.42 -66.6259 73.8244 -236.235 1107.55)
(4672.08 -1331.68 -35.4197 324.31 -130.217 2376.75)
(4369.77 -1046.93 -32.7518 -686.788 -153.815 -1455)
(4523.09 -1018.4 -50.5265 -394.501 -249.291 -151.582)
(4682.77 -992.554 -47.7399 -111.256 -240.239 1106.95)
(4854.24 -974.983 -25.2885 142.766 -132.265 2376.38)
(4504.5 -637.177 -19.5505 -816.324 -155.808 -1454.62)
(4651.87 -621.623 -30.1347 -522.168 -252.186 -152.427)
(4809.06 -605.9 -28.4424 -236.061 -242.906 1106.27)
(4975.89 -592.899 -15.0652 18.1777 -133.524 2374.5)
(4557.15 -224.965 8.64694 -886.106 -155.889 -1477.67)
(4714.35 -222.208 3.39966 -587.047 -254.134 -170.94)
(4877.06 -218.116 3.85133 -296.562 -246.274 1090)
(5057.27 -213.866 9.62948 -36.7595 -137.788 2362.45)
(-770.527 -208.156 -247.056 4249.03 22.4533 -932.28)