/*--------------------------------*- C++ -*----------------------------------*\
| =========                 |                                                 |
| \\      /  F ield         | foam-extend: Open Source CFD                    |
|  \\    /   O peration     | Version:     3.1                                |
|   \\  /    A nd           | Web:         http://www.extend-project.de       |
|    \\/     M anipulation  |                                                 |
\*---------------------------------------------------------------------------*/
FoamFile
{
    version     2.0;
    format      ascii;
    class       volVectorField;
    location    "0.0012";
    object      U;
}
// * * * * * * * * * * * * * * * * * * * * * * * * * * * * * * * * * * * * * //

dimensions      [0 1 -1 0 0 0 0];

internalField   nonuniform List<vector> 
6400
(
(0.000637369 1.43422e-05 0.00167727)
(0.000246552 9.72566e-07 0.000608318)
(0.000191818 -1.39128e-06 -0.00032047)
(0.000449897 6.78058e-06 -0.00133607)
(0.000627833 6.78808e-05 0.00168107)
(0.000241879 2.34763e-05 0.000613123)
(0.000189689 1.75085e-05 -0.000315421)
(0.000449031 4.76557e-05 -0.00133135)
(0.000618952 0.00011927 0.00168097)
(0.000237938 4.39544e-05 0.000613651)
(0.000186578 3.38054e-05 -0.000314833)
(0.000442889 8.45737e-05 -0.00133099)
(0.000606776 0.000168972 0.00168069)
(0.000233029 6.36419e-05 0.000613479)
(0.000182729 4.93239e-05 -0.00031504)
(0.000434384 0.000120041 -0.00133129)
(0.000591047 0.000217019 0.00168056)
(0.000226846 8.25856e-05 0.000613292)
(0.000177936 6.43083e-05 -0.000315329)
(0.000423396 0.000154559 -0.00133171)
(0.000571754 0.000263217 0.00168054)
(0.000219276 0.00010067 0.000613196)
(0.000172009 7.86752e-05 -0.000315544)
(0.000409706 0.000188015 -0.00133207)
(0.000548929 0.000307343 0.00168058)
(0.000210272 0.000117753 0.000613191)
(0.000164875 9.22429e-05 -0.000315645)
(0.000393273 0.000220061 -0.00133225)
(0.000522713 0.000349249 0.00168062)
(0.000199928 0.000133759 0.000613243)
(0.000156641 0.000104877 -0.000315645)
(0.000374291 0.000250364 -0.00133226)
(0.00049336 0.000388881 0.00168062)
(0.000188449 0.000148733 0.000613308)
(0.000147543 0.000116586 -0.000315593)
(0.000353111 0.000278761 -0.00133218)
(0.000461128 0.000426207 0.00168058)
(0.000176036 0.000162789 0.000613349)
(0.000137801 0.000127502 -0.000315547)
(0.000330056 0.000305283 -0.00133209)
(0.000426217 0.000461115 0.00168058)
(0.000162795 0.000176026 0.000613349)
(0.000127506 0.000137793 -0.000315547)
(0.000305285 0.00033005 -0.00133209)
(0.000388889 0.000493344 0.00168061)
(0.000148735 0.000188436 0.000613307)
(0.000116586 0.000147531 -0.000315592)
(0.000278759 0.0003531 -0.00133217)
(0.000349255 0.000522694 0.00168061)
(0.000133759 0.00019991 0.000613242)
(0.000104875 0.000156624 -0.000315643)
(0.000250358 0.000374276 -0.00133226)
(0.000307346 0.000548905 0.00168057)
(0.000117751 0.000210249 0.000613189)
(9.22381e-05 0.000164853 -0.000315642)
(0.000220053 0.000393252 -0.00133224)
(0.000263218 0.000571727 0.00168053)
(0.000100667 0.000219249 0.000613194)
(7.86693e-05 0.000171982 -0.00031554)
(0.000188006 0.000409679 -0.00133205)
(0.000217019 0.000591018 0.00168054)
(8.25816e-05 0.000226816 0.000613289)
(6.43023e-05 0.000177904 -0.000315325)
(0.000154551 0.000423364 -0.0013317)
(0.000168971 0.000606745 0.00168067)
(6.36382e-05 0.000232995 0.000613476)
(4.93185e-05 0.000182694 -0.000315035)
(0.000120034 0.000434349 -0.00133128)
(0.000119269 0.000618919 0.00168095)
(4.39513e-05 0.000237902 0.000613648)
(3.38012e-05 0.00018654 -0.000314828)
(8.45682e-05 0.00044285 -0.00133097)
(6.78803e-05 0.000627799 0.00168105)
(2.34743e-05 0.000241841 0.00061312)
(1.75059e-05 0.00018965 -0.000315416)
(4.76524e-05 0.00044899 -0.00133133)
(1.43422e-05 0.000637334 0.00167725)
(9.72002e-07 0.000246513 0.000608314)
(-1.39209e-06 0.000191777 -0.000320465)
(6.77959e-06 0.000449855 -0.00133605)
(0.00683603 0.00025731 0.00500041)
(0.0062849 0.000238678 0.00190163)
(0.00610237 0.000231678 -0.00107594)
(0.00626766 0.000236605 -0.00408398)
(0.00678491 0.00079453 0.00500002)
(0.00624027 0.000731905 0.00190149)
(0.00606255 0.000711178 -0.00107613)
(0.00623042 0.000730441 -0.00408414)
(0.00669845 0.00132735 0.00499944)
(0.00616103 0.00122074 0.00190097)
(0.00598614 0.0011857 -0.00107683)
(0.00615259 0.00121823 -0.00408511)
(0.00657239 0.0018514 0.00499932)
(0.00604538 0.0017023 0.00190042)
(0.00587408 0.00165323 -0.00107786)
(0.00603777 0.00169847 -0.00408666)
(0.00640658 0.00236332 0.00499968)
(0.00589315 0.00217319 0.00190015)
(0.00572643 0.00211072 -0.00107879)
(0.00588628 0.00216861 -0.00408827)
(0.00620137 0.00285971 0.00500041)
(0.00570452 0.0026301 0.00190023)
(0.0055433 0.00255493 -0.00107937)
(0.00569818 0.00262545 -0.00408953)
(0.00595753 0.00333739 0.00500129)
(0.00548014 0.00306988 0.00190061)
(0.00532528 0.00298266 -0.00107954)
(0.0054741 0.00306554 -0.00409023)
(0.00567648 0.0037936 0.00500211)
(0.00522143 0.00348978 0.00190114)
(0.00507381 0.00339102 -0.00107938)
(0.0052156 0.00348572 -0.00409039)
(0.00536035 0.00422602 0.00500272)
(0.00493048 0.00388755 0.00190165)
(0.00479102 0.00377771 -0.00107908)
(0.00492495 0.00388346 -0.00409023)
(0.00501156 0.00463262 0.00500301)
(0.00460968 0.00426138 0.00190195)
(0.00447933 0.00414096 -0.00107886)
(0.00460465 0.00425692 -0.00409004)
(0.00463264 0.00501152 0.00500301)
(0.00426139 0.00460966 0.00190195)
(0.00414097 0.0044793 -0.00107885)
(0.00425692 0.00460463 -0.00409004)
(0.00422603 0.00536031 0.00500271)
(0.00388755 0.00493044 0.00190164)
(0.0037777 0.00479098 -0.00107908)
(0.00388346 0.00492492 -0.00409022)
(0.00379361 0.00567643 0.00500209)
(0.00348977 0.00522137 0.00190114)
(0.00339101 0.00507375 -0.00107937)
(0.00348571 0.00521555 -0.00409038)
(0.00333739 0.00595745 0.00500126)
(0.00306987 0.00548006 0.0019006)
(0.00298264 0.0053252 -0.00107953)
(0.00306552 0.00547404 -0.00409021)
(0.0028597 0.00620129 0.00500038)
(0.00263008 0.00570442 0.00190022)
(0.00255491 0.00554321 -0.00107936)
(0.00262542 0.0056981 -0.00408951)
(0.00236331 0.00640649 0.00499965)
(0.00217317 0.00589304 0.00190014)
(0.00211069 0.00572633 -0.00107878)
(0.00216858 0.00588618 -0.00408825)
(0.00185139 0.00657228 0.00499928)
(0.00170228 0.00604526 0.00190041)
(0.00165321 0.00587396 -0.00107785)
(0.00169845 0.00603766 -0.00408663)
(0.00132734 0.00669834 0.00499939)
(0.00122073 0.0061609 0.00190096)
(0.00118569 0.00598601 -0.00107683)
(0.00121821 0.00615246 -0.00408508)
(0.000794524 0.0067848 0.00499998)
(0.000731895 0.00624014 0.00190148)
(0.000711167 0.00606242 -0.00107613)
(0.00073043 0.0062303 -0.00408412)
(0.000257308 0.00683591 0.00500037)
(0.000238675 0.00628476 0.00190161)
(0.000231674 0.00610223 -0.00107594)
(0.000236601 0.00626753 -0.00408395)
(0.0175196 0.000676891 0.00767121)
(0.0168218 0.00065346 0.00281269)
(0.0164664 0.000639899 -0.00192732)
(0.0164319 0.000637404 -0.00666243)
(0.017403 0.00205258 0.00766848)
(0.0167119 0.00197257 0.00280945)
(0.0163617 0.00193115 -0.00193099)
(0.0163305 0.00192654 -0.00666598)
(0.0171868 0.00341667 0.00766706)
(0.0165046 0.00328029 0.00280721)
(0.0161593 0.00321041 -0.00193393)
(0.0161291 0.00320279 -0.00666951)
(0.016867 0.00475922 0.00766719)
(0.0161982 0.00456863 0.00280601)
(0.0158599 0.00447102 -0.00193631)
(0.0158307 0.00446033 -0.00667316)
(0.0164444 0.00607156 0.00766849)
(0.0157929 0.00582887 0.00280575)
(0.0154636 0.00570479 -0.00193802)
(0.0154355 0.00569167 -0.00667642)
(0.0159201 0.00734506 0.00767055)
(0.0152898 0.00705247 0.00280628)
(0.0149712 0.00690328 -0.00193893)
(0.0149442 0.00688844 -0.00667885)
(0.0152964 0.00857158 0.0076729)
(0.0146908 0.00823121 0.00280735)
(0.0143847 0.00805817 -0.00193911)
(0.0143588 0.00804204 -0.00668029)
(0.0145771 0.00974375 0.0076751)
(0.0139997 0.00935765 0.00280862)
(0.0137079 0.00916183 -0.00193877)
(0.0136831 0.00914449 -0.00668087)
(0.0137671 0.0108551 0.00767678)
(0.0132217 0.0104253 0.00280975)
(0.012946 0.0102077 -0.00193824)
(0.0129225 0.010189 -0.00668089)
(0.0128725 0.0118998 0.00767769)
(0.0123626 0.0114286 0.00281042)
(0.0121048 0.0111903 -0.00193786)
(0.0120828 0.01117 -0.00668077)
(0.0118998 0.0128725 0.00767769)
(0.0114286 0.0123626 0.00281042)
(0.0111903 0.0121048 -0.00193786)
(0.01117 0.0120828 -0.00668077)
(0.0108551 0.013767 0.00767677)
(0.0104253 0.0132216 0.00280975)
(0.0102077 0.012946 -0.00193824)
(0.010189 0.0129224 -0.00668089)
(0.00974375 0.014577 0.00767508)
(0.00935763 0.0139996 0.00280861)
(0.0091618 0.0137079 -0.00193877)
(0.00914445 0.013683 -0.00668086)
(0.00857157 0.0152963 0.00767287)
(0.00823118 0.0146907 0.00280734)
(0.00805813 0.0143846 -0.00193911)
(0.00804199 0.0143587 -0.00668028)
(0.00734504 0.01592 0.00767052)
(0.00705243 0.0152896 0.00280627)
(0.00690323 0.014971 -0.00193893)
(0.00688838 0.0149441 -0.00667884)
(0.00607154 0.0164442 0.00766846)
(0.00582883 0.0157928 0.00280573)
(0.00570474 0.0154634 -0.00193802)
(0.00569162 0.0154354 -0.0066764)
(0.0047592 0.0168669 0.00766715)
(0.00456859 0.016198 0.00280599)
(0.00447098 0.0158597 -0.00193632)
(0.00446028 0.0158305 -0.00667315)
(0.00341665 0.0171866 0.00766701)
(0.00328026 0.0165044 0.00280719)
(0.00321038 0.0161591 -0.00193393)
(0.00320275 0.0161289 -0.00666949)
(0.00205256 0.0174028 0.00766843)
(0.00197256 0.0167116 0.00280943)
(0.00193113 0.0163615 -0.00193099)
(0.00192652 0.0163303 -0.00666597)
(0.000676887 0.0175194 0.00767116)
(0.000653454 0.0168216 0.00281267)
(0.000639892 0.0164662 -0.00192732)
(0.000637397 0.0164317 -0.00666242)
(0.0324916 0.00126606 0.00958034)
(0.0315883 0.00123483 0.00320454)
(0.0309991 0.00121221 -0.00301199)
(0.0307002 0.00120048 -0.00922916)
(0.0322843 0.00381802 0.00957556)
(0.0313883 0.00371271 0.00319885)
(0.0308051 0.00364293 -0.00301848)
(0.0305104 0.00360671 -0.00923577)
(0.031888 0.00634811 0.00957334)
(0.0310036 0.0061694 0.00319514)
(0.0304281 0.00605198 -0.00302338)
(0.030138 0.00599079 -0.00924176)
(0.0312989 0.00883868 0.00957386)
(0.030432 0.00858947 0.00319349)
(0.029868 0.00842577 -0.00302689)
(0.0295839 0.00834053 -0.00924732)
(0.0305184 0.0112738 0.00957637)
(0.0296742 0.010957 0.00319352)
(0.029125 0.0107492 -0.00302906)
(0.0288485 0.0106415 -0.00925191)
(0.029549 0.0136377 0.0095801)
(0.0287321 0.0132564 0.00319481)
(0.0282009 0.0130066 -0.00302999)
(0.0279334 0.0128782 -0.00925521)
(0.0283949 0.0159154 0.00958425)
(0.02761 0.0154724 0.00319683)
(0.0270996 0.0151828 -0.00302993)
(0.0268424 0.0150349 -0.0092572)
(0.027063 0.0180929 0.00958811)
(0.0263147 0.017591 0.00319904)
(0.025828 0.0172634 -0.00302925)
(0.0255826 0.0170971 -0.0092581)
(0.0255623 0.0201576 0.00959109)
(0.0248552 0.0195996 0.00320093)
(0.0243952 0.0192357 -0.00302842)
(0.0241631 0.0190516 -0.0092583)
(0.0239034 0.0220979 0.00959275)
(0.0232421 0.0214866 0.00320203)
(0.0228118 0.0210885 -0.00302785)
(0.0225945 0.0208873 -0.00925825)
(0.022098 0.0239033 0.00959274)
(0.0214867 0.0232421 0.00320203)
(0.0210885 0.0228117 -0.00302785)
(0.0208873 0.0225944 -0.00925825)
(0.0201576 0.0255622 0.00959108)
(0.0195995 0.0248551 0.00320092)
(0.0192357 0.0243952 -0.00302842)
(0.0190516 0.024163 -0.0092583)
(0.0180929 0.0270628 0.00958809)
(0.017591 0.0263146 0.00319903)
(0.0172634 0.0258279 -0.00302926)
(0.017097 0.0255825 -0.00925809)
(0.0159153 0.0283947 0.00958422)
(0.0154724 0.0276099 0.00319681)
(0.0151827 0.0270994 -0.00302994)
(0.0150349 0.0268423 -0.0092572)
(0.0136377 0.0295488 0.00958007)
(0.0132564 0.0287319 0.00319479)
(0.0130066 0.0282006 -0.00303)
(0.0128781 0.0279332 -0.00925521)
(0.0112738 0.0305182 0.00957633)
(0.010957 0.0296739 0.0031935)
(0.0107491 0.0291248 -0.00302908)
(0.0106414 0.0288483 -0.00925191)
(0.00883865 0.0312987 0.00957381)
(0.00858942 0.0304317 0.00319346)
(0.00842571 0.0298677 -0.00302691)
(0.00834046 0.0295836 -0.00924732)
(0.00634808 0.0318877 0.00957329)
(0.00616936 0.0310033 0.00319511)
(0.00605193 0.0304278 -0.0030234)
(0.00599074 0.0301377 -0.00924176)
(0.003818 0.032284 0.0095755)
(0.00371269 0.031388 0.00319882)
(0.0036429 0.0308048 -0.0030185)
(0.00360668 0.0305101 -0.00923578)
(0.00126605 0.0324914 0.00958028)
(0.00123482 0.0315879 0.00320451)
(0.0012122 0.0309988 -0.00301201)
(0.00120047 0.0306999 -0.00922917)
(0.0513189 0.00200783 0.0103933)
(0.0501777 0.00196732 0.00288985)
(0.0492974 0.00193341 -0.0043909)
(0.0486521 0.00190963 -0.0117039)
(0.0509986 0.00603935 0.0103861)
(0.0498655 0.00590435 0.00288142)
(0.0489917 0.00579916 -0.0044003)
(0.0483519 0.00572146 -0.0117134)
(0.0503769 0.0100361 0.0103831)
(0.0492585 0.00980796 0.00287649)
(0.0483963 0.00963124 -0.0044066)
(0.0477654 0.00949981 -0.011721)
(0.0494504 0.0139708 0.0103839)
(0.0483543 0.0136532 0.00287476)
(0.0475092 0.0134071 -0.0044104)
(0.0468908 0.0132242 -0.0117271)
(0.0482211 0.0178184 0.0103876)
(0.0471538 0.0174154 0.00287549)
(0.0463307 0.017103 -0.00441217)
(0.0457284 0.0168713 -0.0117317)
(0.0466929 0.0215544 0.0103929)
(0.0456604 0.0210699 0.00287786)
(0.0448641 0.0206944 -0.00441235)
(0.044281 0.0204169 -0.0117347)
(0.0448729 0.0251549 0.0103988)
(0.0438809 0.0245928 0.00288108)
(0.0431157 0.0241574 -0.00441145)
(0.0425551 0.0238365 -0.0117363)
(0.0427717 0.0285979 0.0104043)
(0.0418258 0.0279616 0.00288439)
(0.0410961 0.0274693 -0.00441005)
(0.0405612 0.0271071 -0.0117369)
(0.040403 0.0318627 0.0104085)
(0.039509 0.0311558 0.00288711)
(0.0388192 0.0306093 -0.00440867)
(0.0383133 0.0302078 -0.0117369)
(0.0377832 0.0349302 0.0104109)
(0.0369467 0.0341566 0.00288869)
(0.036301 0.0335588 -0.00440781)
(0.0358273 0.0331201 -0.0117368)
(0.0349303 0.0377831 0.0104109)
(0.0341566 0.0369467 0.00288869)
(0.0335588 0.036301 -0.00440781)
(0.0331201 0.0358273 -0.0117368)
(0.0318627 0.0404029 0.0104085)
(0.0311558 0.039509 0.0028871)
(0.0306093 0.0388191 -0.00440868)
(0.0302078 0.0383132 -0.0117369)
(0.0285979 0.0427715 0.0104043)
(0.0279616 0.0418257 0.00288437)
(0.0274692 0.041096 -0.00441006)
(0.0271071 0.0405611 -0.0117369)
(0.0251549 0.0448727 0.0103988)
(0.0245927 0.0438807 0.00288107)
(0.0241574 0.0431155 -0.00441147)
(0.0238364 0.0425549 -0.0117363)
(0.0215543 0.0466927 0.0103929)
(0.0210698 0.0456602 0.00287784)
(0.0206944 0.0448638 -0.00441236)
(0.0204168 0.0442808 -0.0117347)
(0.0178184 0.0482209 0.0103875)
(0.0174153 0.0471536 0.00287547)
(0.0171029 0.0463305 -0.00441219)
(0.0168712 0.0457282 -0.0117317)
(0.0139707 0.0494501 0.0103839)
(0.0136532 0.048354 0.00287474)
(0.0134071 0.0475088 -0.00441043)
(0.0132241 0.0468905 -0.0117271)
(0.0100361 0.0503766 0.010383)
(0.00980791 0.0492582 0.00287645)
(0.00963118 0.048396 -0.00440663)
(0.00949975 0.0477651 -0.011721)
(0.00603933 0.0509983 0.0103861)
(0.00590432 0.0498651 0.00288139)
(0.00579912 0.0489914 -0.00440033)
(0.00572142 0.0483516 -0.0117135)
(0.00200782 0.0513186 0.0103933)
(0.00196731 0.0501774 0.00288981)
(0.00193339 0.049297 -0.00439094)
(0.00190962 0.0486517 -0.0117039)
(0.0728067 0.00285541 0.0096306)
(0.071435 0.00280588 0.00163225)
(0.0702197 0.0027592 -0.00605071)
(0.0691353 0.00272042 -0.0138326)
(0.0723586 0.00857484 0.0096202)
(0.0709949 0.00841103 0.00162081)
(0.0697865 0.00826561 -0.00606288)
(0.0687087 0.00813598 -0.0138445)
(0.0714801 0.0142448 0.00961581)
(0.070134 0.0139687 0.00161502)
(0.0689412 0.0137245 -0.00606939)
(0.0678778 0.0135051 -0.0138515)
(0.0701687 0.0198272 0.00961641)
(0.0688496 0.0194433 0.00161371)
(0.0676801 0.0191032 -0.00607193)
(0.0666372 0.0187975 -0.0138556)
(0.0684275 0.025287 0.00962046)
(0.0671431 0.0248 0.00161549)
(0.0660039 0.024368 -0.00607177)
(0.0649876 0.0239801 -0.0138575)
(0.0662621 0.0305894 0.00962657)
(0.0650198 0.0300042 0.00161914)
(0.0639174 0.0294846 -0.00606992)
(0.0629333 0.0290186 -0.0138578)
(0.0636828 0.0357009 0.00963345)
(0.0624893 0.0350223 0.00162359)
(0.0614299 0.0344193 -0.00606725)
(0.0604837 0.0338791 -0.0138572)
(0.0607043 0.0405895 0.00963996)
(0.0595663 0.0398219 0.00162792)
(0.0585561 0.0391397 -0.00606451)
(0.0576532 0.038529 -0.0138563)
(0.0573456 0.0452253 0.00964513)
(0.0562699 0.0443732 0.00163139)
(0.0553147 0.0436159 -0.00606227)
(0.0544608 0.0429383 -0.0138555)
(0.0536291 0.0495802 0.00964814)
(0.0526223 0.0486483 0.0016334)
(0.051728 0.0478203 -0.00606097)
(0.0509283 0.0470795 -0.013855)
(0.0495803 0.0536291 0.00964814)
(0.0486484 0.0526222 0.00163339)
(0.0478203 0.051728 -0.00606098)
(0.0470795 0.0509283 -0.013855)
(0.0452253 0.0573455 0.00964512)
(0.0443732 0.0562698 0.00163139)
(0.0436159 0.0553146 -0.00606227)
(0.0429382 0.0544607 -0.0138555)
(0.0405895 0.0607041 0.00963995)
(0.0398219 0.0595662 0.00162791)
(0.0391397 0.0585559 -0.00606452)
(0.038529 0.0576531 -0.0138564)
(0.0357009 0.0636826 0.00963343)
(0.0350222 0.0624891 0.00162357)
(0.0344192 0.0614297 -0.00606727)
(0.0338791 0.0604835 -0.0138572)
(0.0305894 0.0662619 0.00962654)
(0.0300041 0.0650195 0.00161912)
(0.0294845 0.0639171 -0.00606994)
(0.0290185 0.0629331 -0.0138578)
(0.0252869 0.0684272 0.00962043)
(0.0247999 0.0671428 0.00161547)
(0.0243679 0.0660037 -0.00607179)
(0.02398 0.0649873 -0.0138575)
(0.0198271 0.0701684 0.00961638)
(0.0194432 0.0688492 0.00161369)
(0.0191031 0.0676798 -0.00607196)
(0.0187974 0.0666369 -0.0138556)
(0.0142447 0.0714798 0.00961578)
(0.0139687 0.0701337 0.00161498)
(0.0137245 0.0689408 -0.00606943)
(0.013505 0.0678775 -0.0138516)
(0.00857482 0.0723582 0.00962016)
(0.00841099 0.0709945 0.00162077)
(0.00826557 0.0697861 -0.00606292)
(0.00813594 0.0687084 -0.0138446)
(0.0028554 0.0728064 0.00963057)
(0.00280587 0.0714346 0.00163221)
(0.00275918 0.0702194 -0.00605075)
(0.00272041 0.0691349 -0.0138326)
(0.0954698 0.00375081 0.00659675)
(0.0938974 0.00369358 -0.000848077)
(0.09231 0.00363337 -0.00786248)
(0.090685 0.00357697 -0.0150799)
(0.0948863 0.011247 0.00658302)
(0.093321 0.0110592 -0.000861569)
(0.0917403 0.0108707 -0.00787569)
(0.090123 0.010679 -0.0150919)
(0.0937345 0.018678 0.00657661)
(0.092189 0.018362 -0.000867299)
(0.090628 0.0180452 -0.00788012)
(0.0890313 0.0177202 -0.0150946)
(0.0920144 0.0259951 0.00657531)
(0.0904994 0.0255553 -0.000867723)
(0.0889682 0.0251135 -0.00787909)
(0.0874016 0.02466 -0.0150922)
(0.0897309 0.033153 0.00657743)
(0.0882556 0.0325944 -0.000864877)
(0.0867635 0.0320321 -0.00787488)
(0.0852361 0.0314552 -0.0150869)
(0.0868926 0.0401068 0.00658174)
(0.0854653 0.0394347 -0.000860254)
(0.084021 0.0387571 -0.00786918)
(0.0825418 0.0380619 -0.0150804)
(0.0835129 0.0468125 0.00658717)
(0.0821417 0.0460323 -0.00085502)
(0.0807534 0.0452445 -0.00786327)
(0.0793311 0.0444364 -0.0150742)
(0.0796108 0.0532277 0.00659273)
(0.0783033 0.0523448 -0.000850106)
(0.0769792 0.0514521 -0.00785809)
(0.0756221 0.0505365 -0.015069)
(0.0752101 0.059312 0.00659744)
(0.0739736 0.0583318 -0.000846248)
(0.0727217 0.0573398 -0.00785426)
(0.0714382 0.0563225 -0.0150655)
(0.0703382 0.0650271 0.00660039)
(0.0691804 0.0639553 -0.00084403)
(0.0680082 0.06287 -0.00785219)
(0.0668063 0.061757 -0.0150637)
(0.0650272 0.0703381 0.00660039)
(0.0639553 0.0691803 -0.000844032)
(0.06287 0.0680082 -0.0078522)
(0.061757 0.0668063 -0.0150637)
(0.0593121 0.0752099 0.00659744)
(0.0583318 0.0739735 -0.000846253)
(0.0573398 0.0727216 -0.00785427)
(0.0563224 0.0714381 -0.0150655)
(0.0532277 0.0796107 0.00659272)
(0.0523448 0.0783031 -0.000850114)
(0.0514521 0.0769791 -0.0078581)
(0.0505365 0.075622 -0.0150691)
(0.0468125 0.0835127 0.00658716)
(0.0460323 0.0821415 -0.000855032)
(0.0452444 0.0807532 -0.00786329)
(0.0444363 0.0793309 -0.0150742)
(0.0401067 0.0868924 0.00658173)
(0.0394347 0.0854651 -0.00086027)
(0.038757 0.0840207 -0.0078692)
(0.0380618 0.0825416 -0.0150804)
(0.033153 0.0897307 0.00657742)
(0.0325943 0.0882553 -0.000864895)
(0.032032 0.0867632 -0.00787491)
(0.0314551 0.0852359 -0.0150869)
(0.0259951 0.0920141 0.00657529)
(0.0255552 0.0904991 -0.000867745)
(0.0251134 0.0889679 -0.00787912)
(0.0246599 0.0874013 -0.0150923)
(0.018678 0.0937342 0.0065766)
(0.0183619 0.0921886 -0.000867324)
(0.0180451 0.0906276 -0.00788016)
(0.0177202 0.089031 -0.0150947)
(0.011247 0.094886 0.006583)
(0.0110592 0.0933207 -0.000861596)
(0.0108707 0.0917399 -0.00787573)
(0.010679 0.0901227 -0.015092)
(0.0037508 0.0954695 0.00659674)
(0.00369357 0.0938971 -0.000848106)
(0.00363336 0.0923096 -0.00786252)
(0.00357695 0.0906847 -0.0150799)
(0.116085 0.00456596 0.000357628)
(0.114351 0.00450305 -0.00482267)
(0.112392 0.00443039 -0.00955472)
(0.11019 0.00435663 -0.0145399)
(0.115374 0.0136705 0.000343436)
(0.113646 0.0134664 -0.00483423)
(0.111693 0.0132377 -0.00956418)
(0.1095 0.0129828 -0.0145466)
(0.113966 0.0226947 0.00033506)
(0.112258 0.0223511 -0.00483805)
(0.110328 0.0219661 -0.00956339)
(0.108162 0.0215335 -0.0145405)
(0.111863 0.0315809 0.000329859)
(0.110188 0.0311015 -0.00483719)
(0.108294 0.0305633 -0.00955652)
(0.106168 0.0299581 -0.0145272)
(0.109076 0.0402753 0.000326738)
(0.107444 0.0396643 -0.0048337)
(0.105597 0.0389774 -0.00954642)
(0.103523 0.038205 -0.0145101)
(0.105617 0.0487241 0.00032526)
(0.104037 0.0479865 -0.00482891)
(0.102249 0.047156 -0.00953518)
(0.10024 0.0462222 -0.0144921)
(0.101504 0.0568746 0.000325184)
(0.0999848 0.0560156 -0.00482376)
(0.0982655 0.0550472 -0.0095244)
(0.0963341 0.0539584 -0.0144755)
(0.0967586 0.0646753 0.000326212)
(0.0953099 0.0637006 -0.004819)
(0.0936699 0.0626004 -0.00951529)
(0.0918275 0.0613636 -0.0144619)
(0.0914094 0.072076 0.000327854)
(0.0900392 0.0709916 -0.00481522)
(0.0884886 0.0697665 -0.00950868)
(0.0867467 0.0683895 -0.0144524)
(0.0854873 0.0790284 0.000329386)
(0.0842041 0.0778411 -0.004813)
(0.0827528 0.0764986 -0.00950517)
(0.0811224 0.0749902 -0.0144475)
(0.0790284 0.0854873 0.000329387)
(0.0778411 0.084204 -0.004813)
(0.0764986 0.0827528 -0.00950517)
(0.0749902 0.0811223 -0.0144475)
(0.072076 0.0914094 0.000327856)
(0.0709916 0.0900391 -0.00481522)
(0.0697665 0.0884885 -0.00950869)
(0.0683895 0.0867466 -0.0144524)
(0.0646753 0.0967585 0.000326215)
(0.0637005 0.0953098 -0.004819)
(0.0626003 0.0936698 -0.0095153)
(0.0613636 0.0918274 -0.0144619)
(0.0568746 0.101503 0.000325187)
(0.0560156 0.0999847 -0.00482377)
(0.0550471 0.0982654 -0.00952442)
(0.0539584 0.0963339 -0.0144755)
(0.0487241 0.105617 0.000325264)
(0.0479864 0.104037 -0.00482892)
(0.0471559 0.102248 -0.0095352)
(0.0462221 0.10024 -0.0144921)
(0.0402753 0.109076 0.000326741)
(0.0396642 0.107443 -0.00483372)
(0.0389773 0.105597 -0.00954645)
(0.0382049 0.103523 -0.0145101)
(0.0315809 0.111863 0.000329862)
(0.0311014 0.110188 -0.00483721)
(0.0305632 0.108294 -0.00955655)
(0.0299581 0.106167 -0.0145272)
(0.0226947 0.113965 0.000335064)
(0.022351 0.112258 -0.00483807)
(0.0219661 0.110328 -0.00956342)
(0.0215334 0.108162 -0.0145405)
(0.0136705 0.115374 0.00034344)
(0.0134663 0.113646 -0.00483425)
(0.0132377 0.111693 -0.00956421)
(0.0129828 0.109499 -0.0145466)
(0.00456596 0.116085 0.000357631)
(0.00450304 0.114351 -0.00482268)
(0.00443038 0.112391 -0.00955476)
(0.00435662 0.11019 -0.0145399)
(0.127879 0.00502944 -0.00929101)
(0.126055 0.0049647 -0.0101973)
(0.123851 0.00488542 -0.0108889)
(0.121256 0.00480182 -0.01171)
(0.127087 0.0150405 -0.0092991)
(0.125267 0.0148325 -0.0102005)
(0.123069 0.0145819 -0.0108881)
(0.120483 0.0142889 -0.0117047)
(0.125515 0.0249611 -0.00930712)
(0.123715 0.0246102 -0.0101999)
(0.121542 0.0241874 -0.0108797)
(0.118987 0.023689 -0.0116877)
(0.123172 0.0347285 -0.00931605)
(0.121405 0.0342368 -0.0101973)
(0.119271 0.0336439 -0.0108665)
(0.116762 0.032945 -0.011663)
(0.120074 0.0442843 -0.00932552)
(0.118349 0.0436545 -0.0101935)
(0.116268 0.042895 -0.0108508)
(0.113821 0.0420001 -0.0116339)
(0.116237 0.0535707 -0.00933469)
(0.114567 0.0528062 -0.0101893)
(0.11255 0.0518844 -0.0108343)
(0.11018 0.0507989 -0.0116039)
(0.111685 0.0625309 -0.0093426)
(0.110078 0.0616359 -0.010185)
(0.108139 0.0605569 -0.0108186)
(0.10586 0.0592871 -0.0115758)
(0.106444 0.0711094 -0.00934844)
(0.104911 0.0700889 -0.0101809)
(0.103061 0.068859 -0.0108052)
(0.100889 0.0674123 -0.0115521)
(0.100544 0.0792518 -0.00935177)
(0.0990943 0.078112 -0.0101776)
(0.0973467 0.0767383 -0.0107954)
(0.0952942 0.0751235 -0.011535)
(0.0940181 0.086905 -0.00935275)
(0.0926622 0.085653 -0.0101755)
(0.0910282 0.0841441 -0.0107901)
(0.0891093 0.0823715 -0.011526)
(0.086905 0.0940181 -0.00935275)
(0.085653 0.0926621 -0.0101755)
(0.0841441 0.0910281 -0.0107901)
(0.0823715 0.0891092 -0.011526)
(0.0792518 0.100544 -0.00935176)
(0.078112 0.0990942 -0.0101776)
(0.0767383 0.0973466 -0.0107954)
(0.0751235 0.0952941 -0.011535)
(0.0711094 0.106444 -0.00934843)
(0.0700889 0.104911 -0.0101809)
(0.068859 0.103061 -0.0108053)
(0.0674122 0.100889 -0.0115521)
(0.0625309 0.111685 -0.00934258)
(0.0616358 0.110078 -0.010185)
(0.0605569 0.108139 -0.0108186)
(0.059287 0.10586 -0.0115758)
(0.0535707 0.116237 -0.00933467)
(0.0528061 0.114566 -0.0101893)
(0.0518843 0.11255 -0.0108343)
(0.0507988 0.110179 -0.0116039)
(0.0442843 0.120074 -0.0093255)
(0.0436544 0.118349 -0.0101935)
(0.0428949 0.116267 -0.0108508)
(0.0420001 0.113821 -0.011634)
(0.0347285 0.123172 -0.00931602)
(0.0342368 0.121404 -0.0101973)
(0.0336438 0.119271 -0.0108666)
(0.0329449 0.116762 -0.011663)
(0.0249611 0.125515 -0.00930709)
(0.0246102 0.123715 -0.0101999)
(0.0241873 0.121542 -0.0108797)
(0.023689 0.118987 -0.0116877)
(0.0150405 0.127087 -0.00929908)
(0.0148325 0.125267 -0.0102005)
(0.0145819 0.123069 -0.0108881)
(0.0142889 0.120483 -0.0117048)
(0.00502944 0.127879 -0.00929098)
(0.00496469 0.126055 -0.0101973)
(0.00488541 0.12385 -0.010889)
(0.00480181 0.121256 -0.01171)
(0.123567 0.00484968 -0.0205211)
(0.121775 0.00478928 -0.0161051)
(0.119617 0.00471468 -0.0119228)
(0.117087 0.00463659 -0.00760089)
(0.122785 0.0144986 -0.0205168)
(0.120996 0.0143043 -0.0160954)
(0.118844 0.0140677 -0.0119083)
(0.116323 0.0137915 -0.00758163)
(0.121236 0.0240577 -0.0205201)
(0.119465 0.0237282 -0.0160886)
(0.117336 0.0233277 -0.011893)
(0.114844 0.0228566 -0.00755716)
(0.118932 0.0334656 -0.0205286)
(0.117191 0.0330012 -0.0160836)
(0.1151 0.0324376 -0.0118762)
(0.112652 0.0317747 -0.00752734)
(0.115893 0.0426661 -0.0205403)
(0.114192 0.0420672 -0.0160795)
(0.112151 0.0413422 -0.0118582)
(0.109763 0.0404904 -0.00749395)
(0.112141 0.0516042 -0.0205533)
(0.110491 0.0508724 -0.0160758)
(0.108513 0.0499885 -0.01184)
(0.1062 0.0489511 -0.00745944)
(0.107702 0.0602271 -0.0205657)
(0.106115 0.0593647 -0.0160724)
(0.104213 0.0583255 -0.0118227)
(0.10199 0.0571071 -0.00742661)
(0.102605 0.0684838 -0.0205759)
(0.101092 0.0674944 -0.0160691)
(0.0992794 0.0663047 -0.0118077)
(0.0971615 0.0649115 -0.00739833)
(0.0968834 0.076325 -0.0205827)
(0.0954547 0.0752137 -0.0160662)
(0.0937443 0.07388 -0.0117965)
(0.0917462 0.0723195 -0.00737738)
(0.0905704 0.0837027 -0.0205856)
(0.0892372 0.0824763 -0.0160643)
(0.0876412 0.0810065 -0.0117903)
(0.0857767 0.0792883 -0.00736616)
(0.0837027 0.0905704 -0.0205856)
(0.0824763 0.0892372 -0.0160643)
(0.0810065 0.0876412 -0.0117903)
(0.0792884 0.0857767 -0.00736617)
(0.0763251 0.0968833 -0.0205827)
(0.0752137 0.0954546 -0.0160662)
(0.07388 0.0937443 -0.0117965)
(0.0723195 0.0917462 -0.00737739)
(0.0684839 0.102605 -0.0205759)
(0.0674944 0.101092 -0.0160691)
(0.0663047 0.0992793 -0.0118078)
(0.0649114 0.0971614 -0.00739835)
(0.0602272 0.107702 -0.0205657)
(0.0593646 0.106115 -0.0160724)
(0.0583255 0.104213 -0.0118227)
(0.0571071 0.10199 -0.00742663)
(0.0516042 0.112141 -0.0205533)
(0.0508724 0.110491 -0.0160758)
(0.0499885 0.108513 -0.01184)
(0.048951 0.1062 -0.00745947)
(0.0426661 0.115893 -0.0205403)
(0.0420672 0.114192 -0.0160795)
(0.0413422 0.112151 -0.0118583)
(0.0404903 0.109763 -0.00749398)
(0.0334656 0.118932 -0.0205286)
(0.0330012 0.117191 -0.0160836)
(0.0324376 0.1151 -0.0118762)
(0.0317747 0.112652 -0.00752738)
(0.0240577 0.121236 -0.02052)
(0.0237282 0.119465 -0.0160886)
(0.0233277 0.117336 -0.011893)
(0.0228566 0.114844 -0.00755721)
(0.0144986 0.122785 -0.0205168)
(0.0143043 0.120996 -0.0160953)
(0.0140676 0.118844 -0.0119083)
(0.0137914 0.116322 -0.00758167)
(0.00484968 0.123567 -0.020521)
(0.00478928 0.121775 -0.0161051)
(0.00471468 0.119617 -0.0119228)
(0.00463659 0.117087 -0.00760093)
(0.101927 0.00398039 -0.0297866)
(0.100304 0.0039302 -0.021083)
(0.0985303 0.00387219 -0.0130052)
(0.0965943 0.00381593 -0.00456459)
(0.101262 0.011913 -0.0297698)
(0.099642 0.0117477 -0.0210625)
(0.0978736 0.0115634 -0.0129811)
(0.0959445 0.0113638 -0.0045375)
(0.0999503 0.0197694 -0.0297647)
(0.0983453 0.0194869 -0.0210504)
(0.0965953 0.0191733 -0.0129633)
(0.094688 0.0188311 -0.00451404)
(0.0980055 0.027497 -0.0297668)
(0.0964252 0.0270963 -0.021043)
(0.0947044 0.0266524 -0.0129478)
(0.0928303 0.0261682 -0.00448976)
(0.0954468 0.0350489 -0.0297732)
(0.0939012 0.0345285 -0.021038)
(0.0922206 0.0339542 -0.0129331)
(0.0903915 0.0333281 -0.00446422)
(0.0922978 0.0423803 -0.0297817)
(0.0907975 0.0417397 -0.0210341)
(0.0891684 0.0410353 -0.0129188)
(0.0873967 0.0402682 -0.0044382)
(0.0885853 0.0494499 -0.0297905)
(0.0871417 0.0486893 -0.0210309)
(0.0855759 0.0478561 -0.0129053)
(0.0838744 0.0469496 -0.00441323)
(0.084339 0.056219 -0.0297981)
(0.0829638 0.0553403 -0.0210279)
(0.0814734 0.0543808 -0.0128935)
(0.0798547 0.0533379 -0.00439135)
(0.0795903 0.0626514 -0.0298034)
(0.0782951 0.0616581 -0.0210253)
(0.0768917 0.0605767 -0.0128845)
(0.0753681 0.0594021 -0.00437485)
(0.0743708 0.068713 -0.0298057)
(0.0731669 0.0676107 -0.0210237)
(0.0718616 0.0664134 -0.0128796)
(0.0704447 0.0651134 -0.00436588)
(0.068713 0.0743708 -0.0298057)
(0.0676108 0.0731669 -0.0210237)
(0.0664134 0.0718616 -0.0128796)
(0.0651135 0.0704447 -0.00436588)
(0.0626514 0.0795903 -0.0298034)
(0.0616582 0.0782951 -0.0210253)
(0.0605768 0.0768916 -0.0128845)
(0.0594021 0.0753681 -0.00437485)
(0.056219 0.0843391 -0.0297981)
(0.0553403 0.0829638 -0.0210279)
(0.0543808 0.0814734 -0.0128935)
(0.0533379 0.0798546 -0.00439137)
(0.04945 0.0885853 -0.0297905)
(0.0486894 0.0871417 -0.0210309)
(0.0478561 0.0855759 -0.0129053)
(0.0469496 0.0838744 -0.00441325)
(0.0423804 0.0922978 -0.0297816)
(0.0417397 0.0907975 -0.0210341)
(0.0410353 0.0891684 -0.0129188)
(0.0402682 0.0873967 -0.00443822)
(0.0350489 0.0954469 -0.0297732)
(0.0345285 0.0939012 -0.021038)
(0.0339542 0.0922206 -0.0129331)
(0.0333282 0.0903914 -0.00446425)