/*--------------------------------*- C++ -*----------------------------------*\
| =========                 |                                                 |
| \\      /  F ield         | foam-extend: Open Source CFD                    |
|  \\    /   O peration     | Version:     3.1                                |
|   \\  /    A nd           | Web:         http://www.extend-project.de       |
|    \\/     M anipulation  |                                                 |
\*---------------------------------------------------------------------------*/
FoamFile
{
    version     2.0;
    format      ascii;
    class       volVectorField;
    location    "1";
    object      cellMotionU;
}
// * * * * * * * * * * * * * * * * * * * * * * * * * * * * * * * * * * * * * //

dimensions      [0 1 -1 0 0 0 0];

internalField   nonuniform List<vector> 
14592
(
(-3.06636e-11 1.2626e-12 -2.28557e-13)
(-8.89241e-11 3.65353e-12 -6.71287e-13)
(-1.42409e-10 5.81674e-12 -1.10185e-12)
(-1.93141e-10 7.78335e-12 -1.54556e-12)
(-2.43158e-10 9.53493e-12 -2.02317e-12)
(-2.94431e-10 1.09649e-11 -2.54845e-12)
(-3.49062e-10 1.18261e-11 -3.12539e-12)
(-4.09185e-10 1.16362e-11 -3.74188e-12)
(-4.77459e-10 9.51636e-12 -4.36564e-12)
(-5.57238e-10 3.9064e-12 -4.94202e-12)
(-6.52259e-10 -7.95804e-12 -5.40762e-12)
(-7.67003e-10 -3.09298e-11 -5.78556e-12)
(-9.0681e-10 -7.34471e-11 -6.50443e-12)
(-1.07523e-09 -1.49941e-10 -9.27684e-12)
(-1.26973e-09 -2.81295e-10 -1.89938e-11)
(-1.45151e-09 -4.6033e-10 -4.21395e-11)
(-9.08203e-11 3.74722e-12 -6.77617e-13)
(-2.63383e-10 1.08544e-11 -1.99106e-12)
(-4.21815e-10 1.73115e-11 -3.26975e-12)
(-5.71741e-10 2.32229e-11 -4.58727e-12)
(-7.19174e-10 2.85712e-11 -6.00652e-12)
(-8.69752e-10 3.30936e-11 -7.56826e-12)
(-1.02931e-09 3.61655e-11 -9.28376e-12)
(-1.20429e-09 3.65755e-11 -1.11201e-11)
(-1.40223e-09 3.21128e-11 -1.29724e-11)
(-1.63185e-09 1.88991e-11 -1.46347e-11)
(-1.90317e-09 -9.77015e-12 -1.57798e-11)
(-2.22749e-09 -6.52164e-11 -1.60353e-11)
(-2.61874e-09 -1.65726e-10 -1.53292e-11)
(-3.07937e-09 -3.38685e-10 -1.46651e-11)
(-3.5842e-09 -6.1397e-10 -1.74986e-11)
(-4.00413e-09 -9.46104e-10 -2.80363e-11)
(-1.48753e-10 6.15698e-12 -1.11243e-12)
(-4.31223e-10 1.78523e-11 -3.26883e-12)
(-6.89245e-10 2.85093e-11 -5.36206e-12)
(-9.32652e-10 3.83948e-11 -7.52087e-12)
(-1.171e-09 4.75779e-11 -9.85065e-12)
(-1.41282e-09 5.57868e-11 -1.24187e-11)
(-1.66691e-09 6.23094e-11 -1.52484e-11)
(-1.9431e-09 6.57178e-11 -1.82889e-11)
(-2.25226e-09 6.34709e-11 -2.13596e-11)
(-2.60632e-09 5.11881e-11 -2.40533e-11)
(-3.01889e-09 2.17092e-11 -2.56019e-11)
(-3.50534e-09 -3.64525e-11 -2.46578e-11)
(-4.07667e-09 -1.39923e-10 -1.89685e-11)
(-4.73098e-09 -3.07641e-10 -4.85514e-12)
(-5.41453e-09 -5.48785e-10 2.35814e-11)
(-5.93463e-09 -7.96983e-10 6.74695e-11)
(-2.02892e-10 8.41385e-12 -1.52208e-12)
(-5.87514e-10 2.44174e-11 -4.46989e-12)
(-9.37826e-10 3.91104e-11 -7.33186e-12)
(-1.26723e-09 5.29782e-11 -1.02898e-11)
(-1.58739e-09 6.62416e-11 -1.34853e-11)
(-1.90923e-09 7.88173e-11 -1.70193e-11)
(-2.2436e-09 9.02115e-11 -2.09361e-11)
(-2.60196e-09 9.93527e-11 -2.51817e-11)
(-2.99658e-09 1.04332e-10 -2.95257e-11)
(-3.44065e-09 1.02033e-10 -3.34073e-11)
(-3.94827e-09 8.7703e-11 -3.56683e-11)
(-4.53306e-09 5.46233e-11 -3.40611e-11)
(-5.20248e-09 -5.97537e-12 -2.43248e-11)
(-5.94723e-09 -1.00923e-10 9.00837e-13)
(-6.70503e-09 -2.25879e-10 5.19644e-11)
(-7.27084e-09 -3.40911e-10 1.25423e-10)
(-2.52452e-10 1.04495e-11 -1.90039e-12)
(-7.30598e-10 3.03768e-11 -5.58229e-12)
(-1.16511e-09 4.88412e-11 -9.16058e-12)
(-1.57138e-09 6.65559e-11 -1.28617e-11)
(-1.96298e-09 8.3993e-11 -1.68678e-11)
(-2.35227e-09 1.0139e-10 -2.13178e-11)
(-2.75101e-09 1.18688e-10 -2.62873e-11)
(-3.17095e-09 1.35556e-10 -3.17508e-11)
(-3.62384e-09 1.51304e-10 -3.74873e-11)
(-4.12146e-09 1.64973e-10 -4.29104e-11)
(-4.67486e-09 1.75502e-10 -4.67412e-11)
(-5.29268e-09 1.8225e-10 -4.64061e-11)
(-5.97739e-09 1.8594e-10 -3.69512e-11)
(-6.7134e-09 1.89463e-10 -9.47541e-12)
(-7.44284e-09 2.00014e-10 4.80827e-11)
(-7.98221e-09 2.17799e-10 1.31454e-10)
(-2.97062e-10 1.2191e-11 -2.24447e-12)
(-8.59194e-10 3.54978e-11 -6.59274e-12)
(-1.36839e-09 5.72763e-11 -1.08206e-11)
(-1.8416e-09 7.84894e-11 -1.51963e-11)
(-2.2936e-09 9.99e-11 -1.99425e-11)
(-2.73736e-09 1.22096e-10 -2.52366e-11)
(-3.18467e-09 1.45567e-10 -3.12003e-11)
(-3.64639e-09 1.70767e-10 -3.78623e-11)
(-4.13242e-09 1.98338e-10 -4.50797e-11)
(-4.65116e-09 2.2942e-10 -5.23861e-11)
(-5.20835e-09 2.66318e-10 -5.87091e-11)
(-5.80491e-09 3.13528e-10 -6.18561e-11)
(-6.43368e-09 3.79004e-10 -5.76046e-11)
(-7.07407e-09 4.74268e-10 -3.8256e-11)
(-7.67198e-09 6.06318e-10 7.16847e-12)
(-8.09977e-09 7.41856e-10 7.76912e-11)
(-3.36306e-10 1.35469e-11 -2.54849e-12)
(-9.7213e-10 3.95093e-11 -7.48664e-12)
(-1.54608e-09 6.39488e-11 -1.22874e-11)
(-2.0761e-09 8.80638e-11 -1.72569e-11)
(-2.57757e-09 1.12887e-10 -2.26538e-11)
(-3.06347e-09 1.39334e-10 -2.86949e-11)
(-3.54494e-09 1.68347e-10 -3.555e-11)
(-4.03134e-09 2.01052e-10 -4.33191e-11)
(-4.52997e-09 2.39041e-10 -5.1975e-11)
(-5.04514e-09 2.84858e-10 -6.12593e-11)
(-5.57656e-09 3.42779e-10 -7.04985e-11)
(-6.11646e-09 4.19973e-10 -7.83064e-11)
(-6.64596e-09 5.28069e-10 -8.21167e-11)
(-7.13103e-09 6.84251e-10 -7.7537e-11)
(-7.51106e-09 9.00938e-10 -5.84851e-11)
(-7.71679e-09 1.13616e-09 -2.43738e-11)
(-3.69999e-10 1.44329e-11 -2.80951e-12)
(-1.06894e-09 4.21574e-11 -8.25311e-12)
(-1.69768e-09 6.84164e-11 -1.35425e-11)
(-2.27466e-09 9.46037e-11 -1.90143e-11)
(-2.81534e-09 1.21944e-10 -2.49572e-11)
(-3.33234e-09 1.51603e-10 -3.16191e-11)
(-3.83579e-09 1.84817e-10 -3.92148e-11)
(-4.33338e-09 2.23078e-10 -4.79098e-11)
(-4.82982e-09 2.68408e-10 -5.77889e-11)
(-5.32579e-09 3.23766e-10 -6.87956e-11)
(-5.81597e-09 3.93622e-10 -8.06407e-11)
(-6.28597e-09 4.84749e-10 -9.26778e-11)
(-6.70783e-09 6.07237e-10 -1.03804e-10)
(-7.0342e-09 7.76235e-10 -1.12545e-10)
(-7.18824e-09 1.00826e-09 -1.17555e-10)
(-7.10204e-09 1.29423e-09 -1.20269e-10)
(-3.12177e-11 1.29677e-12 -2.23831e-13)
(-9.05404e-11 3.75086e-12 -6.58422e-13)
(-1.45051e-10 5.965e-12 -1.08415e-12)
(-1.96906e-10 7.96943e-12 -1.5292e-12)
(-2.48264e-10 9.73694e-12 -2.01864e-12)
(-3.01154e-10 1.11377e-11 -2.57288e-12)
(-3.58165e-10 1.19018e-11 -3.21075e-12)
(-4.20693e-10 1.14431e-11 -3.93047e-12)
(-4.91369e-10 8.75886e-12 -4.72642e-12)
(-5.74681e-10 2.09082e-12 -5.59552e-12)
(-6.74163e-10 -1.17305e-11 -6.5283e-12)
(-7.94051e-10 -3.81935e-11 -7.60355e-12)
(-9.39064e-10 -8.65654e-11 -9.2228e-12)
(-1.11086e-09 -1.71411e-10 -1.26052e-11)
(-1.30232e-09 -3.09118e-10 -2.02866e-11)
(-1.47091e-09 -4.7877e-10 -3.29261e-11)
(-9.24508e-11 3.85099e-12 -6.63462e-13)
(-2.68127e-10 1.11474e-11 -1.95198e-12)
(-4.29543e-10 1.77624e-11 -3.21545e-12)
(-5.82695e-10 2.37951e-11 -4.53544e-12)
(-7.33798e-10 2.92001e-11 -5.98578e-12)
(-8.88837e-10 3.36658e-11 -7.62869e-12)
(-1.05377e-09 3.6465e-11 -9.50662e-12)
(-1.23529e-09 3.62106e-11 -1.16381e-11)
(-1.44169e-09 3.03827e-11 -1.40095e-11)
(-1.68193e-09 1.45227e-11 -1.65411e-11)
(-1.96589e-09 -1.89976e-11 -1.90936e-11)
(-2.30432e-09 -8.29351e-11 -2.1551e-11)
(-2.70897e-09 -1.97175e-10 -2.41372e-11)
(-3.17546e-09 -3.88467e-10 -2.79686e-11)
(-3.66324e-09 -6.75225e-10 -3.56503e-11)
(-4.03374e-09 -9.85191e-10 -4.79012e-11)
(-1.51381e-10 6.33123e-12 -1.08833e-12)
(-4.38803e-10 1.83482e-11 -3.20142e-12)
(-7.0159e-10 2.92811e-11 -5.2678e-12)
(-9.50071e-10 3.93949e-11 -7.42692e-12)
(-1.19406e-09 4.87247e-11 -9.80132e-12)
(-1.44258e-09 5.69443e-11 -1.2491e-11)
(-1.70442e-09 6.31919e-11 -1.55665e-11)
(-1.99085e-09 6.5882e-11 -1.90721e-11)
(-2.31346e-09 6.20902e-11 -2.2968e-11)
(-2.6834e-09 4.67852e-11 -2.70537e-11)
(-3.11429e-09 1.18195e-11 -3.09045e-11)
(-3.62044e-09 -5.56605e-11 -3.37401e-11)
(-4.20874e-09 -1.73459e-10 -3.42991e-11)
(-4.86579e-09 -3.58744e-10 -3.09881e-11)
(-5.51521e-09 -6.08512e-10 -2.27484e-11)
(-5.95762e-09 -8.34396e-10 -1.31031e-11)
(-2.06341e-10 8.65865e-12 -1.48718e-12)
(-5.97536e-10 2.51214e-11 -4.37286e-12)
(-9.54215e-10 4.02257e-11 -7.19408e-12)
(-1.29026e-09 5.44607e-11 -1.01457e-11)
(-1.61781e-09 6.80312e-11 -1.33926e-11)
(-1.9483e-09 8.08016e-11 -1.70761e-11)
(-2.29305e-09 9.21779e-11 -2.13065e-11)
(-2.66417e-09 1.00919e-10 -2.61438e-11)
(-3.07443e-09 1.04832e-10 -3.15391e-11)
(-3.53704e-09 1.00336e-10 -3.72244e-11)
(-4.06563e-09 8.20461e-11 -4.25224e-11)
(-4.67203e-09 4.24576e-11 -4.60163e-11)
(-5.35817e-09 -2.76521e-11 -4.5043e-11)
(-6.1016e-09 -1.334e-10 -3.56343e-11)
(-6.81504e-09 -2.6306e-10 -1.4767e-11)
(-7.2904e-09 -3.65296e-10 9.27259e-12)
(-2.5661e-10 1.07653e-11 -1.85466e-12)
(-7.42708e-10 3.12908e-11 -5.454e-12)
(-1.18485e-09 5.03111e-11 -8.97477e-12)
(-1.59898e-09 6.85569e-11 -1.26578e-11)
(-1.99923e-09 8.65093e-11 -1.67119e-11)
(-2.39847e-09 1.04374e-10 -2.13206e-11)
(-2.80898e-09 1.22059e-10 -2.6637e-11)
(-3.24294e-09 1.3913e-10 -3.27635e-11)
(-3.71248e-09 1.54785e-10 -3.96895e-11)
(-4.22926e-09 1.67896e-10 -4.71718e-11)
(-4.80358e-09 1.77249e-10 -5.45025e-11)
(-5.44179e-09 1.82158e-10 -6.00973e-11)
(-6.14078e-09 1.83547e-10 -6.088e-11)
(-6.87223e-09 1.84975e-10 -5.1906e-11)
(-7.55575e-09 1.94207e-10 -2.902e-11)
(-8.00756e-09 2.11178e-10 -9.72404e-13)
(-3.01784e-10 1.25724e-11 -2.18713e-12)
(-8.72943e-10 3.66128e-11 -6.43143e-12)
(-1.3907e-09 5.90881e-11 -1.05824e-11)
(-1.87263e-09 8.10061e-11 -1.4923e-11)
(-2.33404e-09 1.03155e-10 -1.97028e-11)
(-2.78844e-09 1.26146e-10 -2.51461e-11)
(-3.24803e-09 1.5047e-10 -3.14555e-11)
(-3.72402e-09 1.76608e-10 -3.87929e-11)
(-4.22643e-09 2.05232e-10 -4.72351e-11)
(-4.76336e-09 2.37606e-10 -5.66727e-11)
(-5.33945e-09 2.76317e-10 -6.66239e-11)
(-5.95309e-09 3.2642e-10 -7.59044e-11)
(-6.59205e-09 3.96655e-10 -8.21387e-11)
(-7.22504e-09 4.98275e-10 -8.13717e-11)
(-7.78291e-09 6.33047e-10 -6.9674e-11)
(-8.14183e-09 7.56241e-10 -5.18852e-11)
(-3.41443e-10 1.3986e-11 -2.47968e-12)
(-9.87064e-10 4.07982e-11 -7.29161e-12)
(-1.57021e-09 6.60629e-11 -1.19941e-11)
(-2.10945e-09 9.10456e-11 -1.69068e-11)
(-2.62068e-09 1.16822e-10 -2.23144e-11)
(-3.11738e-09 1.44374e-10 -2.84776e-11)
(-3.61101e-09 1.74702e-10 -3.56459e-11)
(-4.11115e-09 2.09029e-10 -4.40476e-11)
(-4.62501e-09 2.49113e-10 -5.3864e-11)
(-5.15637e-09 2.97797e-10 -6.51719e-11)
(-5.70354e-09 3.59887e-10 -7.78396e-11)
(-6.25612e-09 4.43459e-10 -9.13642e-11)
(-6.79056e-09 5.61275e-10 -1.04705e-10)
(-7.26509e-09 7.3015e-10 -1.16302e-10)
(-7.6133e-09 9.54507e-10 -1.24789e-10)
(-7.78031e-09 1.17164e-09 -1.31388e-10)
(-3.75413e-10 1.49161e-11 -2.72939e-12)
(-1.08464e-09 4.35769e-11 -8.025e-12)
(-1.72295e-09 7.07652e-11 -1.31936e-11)
(-2.30935e-09 9.79465e-11 -1.85841e-11)
(-2.85984e-09 1.26427e-10 -2.45061e-11)
(-3.3874e-09 1.57446e-10 -3.12511e-11)
(-3.90247e-09 1.92345e-10 -3.91032e-11)
(-4.41278e-09 2.32761e-10 -4.83435e-11)
(-4.92283e-09 2.80939e-10 -5.92396e-11)
(-5.43258e-09 3.40189e-10 -7.2022e-11)
(-5.93522e-09 4.15558e-10 -8.68388e-11)
(-6.41365e-09 5.14665e-10 -1.0371e-10)
(-6.8357e-09 6.48595e-10 -1.22536e-10)
(-7.14849e-09 8.32138e-10 -1.43344e-10)
(-7.27538e-09 1.07446e-09 -1.66477e-10)
(-7.17394e-09 1.34295e-09 -1.91949e-10)
(-3.17166e-11 1.32667e-12 -2.10363e-13)
(-9.19958e-11 3.83512e-12 -6.19758e-13)
(-1.47407e-10 6.09204e-12 -1.02391e-12)
(-2.00314e-10 8.1285e-12 -1.45338e-12)
(-2.53181e-10 9.91772e-12 -1.93844e-12)
(-3.07453e-10 1.12858e-11 -2.50149e-12)
(-3.65709e-10 1.19283e-11 -3.17284e-12)
(-4.30271e-10 1.12372e-11 -3.98001e-12)
(-5.03817e-10 8.1207e-12 -4.95434e-12)
(-5.89128e-10 6.50501e-13 -6.13375e-12)
(-6.91619e-10 -1.44808e-11 -7.61305e-12)
(-8.14594e-10 -4.2927e-11 -9.56302e-12)
(-9.62083e-10 -9.38515e-11 -1.24179e-11)
(-1.13485e-09 -1.80845e-10 -1.70798e-11)
(-1.32574e-09 -3.17753e-10 -2.48056e-11)
(-1.49596e-09 -4.82513e-10 -3.44975e-11)
(-9.39373e-11 3.94174e-12 -6.23411e-13)
(-2.72481e-10 1.14067e-11 -1.83697e-12)
(-4.36399e-10 1.81479e-11 -3.03486e-12)
(-5.92503e-10 2.428e-11 -4.30671e-12)
(-7.46782e-10 2.97174e-11 -5.73269e-12)
(-9.05371e-10 3.41029e-11 -7.39423e-12)
(-1.07486e-09 3.66393e-11 -9.37456e-12)
(-1.26218e-09 3.57964e-11 -1.17572e-11)
(-1.4752e-09 2.88392e-11 -1.46317e-11)
(-1.72324e-09 1.09838e-11 -1.81056e-11)
(-2.01613e-09 -2.58564e-11 -2.23278e-11)
(-2.36311e-09 -9.47182e-11 -2.75961e-11)
(-2.77388e-09 -2.15035e-10 -3.46673e-11)
(-3.24043e-09 -4.10741e-10 -4.50316e-11)
(-3.71997e-09 -6.9362e-10 -6.07004e-11)
(-4.08304e-09 -9.89083e-10 -7.93082e-11)
(-1.5388e-10 6.48974e-12 -1.02247e-12)
(-4.45519e-10 1.87759e-11 -3.00843e-12)
(-7.12353e-10 2.99347e-11 -4.96561e-12)
(-9.65419e-10 4.02368e-11 -7.04155e-12)
(-1.21396e-09 4.96526e-11 -9.36705e-12)
(-1.46822e-09 5.78346e-11 -1.20796e-11)
(-1.73755e-09 6.38312e-11 -1.53101e-11)
(-2.03254e-09 6.58379e-11 -1.91982e-11)
(-2.36487e-09 6.06725e-11 -2.3881e-11)
(-2.7476e-09 4.29795e-11 -2.94873e-11)
(-3.1916e-09 4.08523e-12 -3.60924e-11)
(-3.70991e-09 -6.91203e-11 -4.38217e-11)
(-4.30588e-09 -1.93699e-10 -5.29015e-11)
(-4.96004e-09 -3.83418e-10 -6.40428e-11)
(-5.59216e-09 -6.28352e-10 -7.8586e-11)
(-6.01733e-09 -8.38835e-10 -9.55068e-11)
(-2.09403e-10 8.87115e-12 -1.39402e-12)
(-6.06276e-10 2.57236e-11 -4.10359e-12)
(-9.68708e-10 4.11828e-11 -6.7743e-12)
(-1.31067e-09 5.57206e-11 -9.60481e-12)
(-1.64467e-09 6.95183e-11 -1.27783e-11)
(-1.9827e-09 8.23986e-11 -1.64759e-11)
(-2.3365e-09 9.36733e-11 -2.08825e-11)
(-2.71834e-09 1.01946e-10 -2.61891e-11)
(-3.14117e-09 1.04792e-10 -3.25825e-11)
(-3.61835e-09 9.83362e-11 -4.02102e-11)
(-4.16224e-09 7.68332e-11 -4.91226e-11)
(-4.78252e-09 3.26145e-11 -5.92076e-11)
(-5.47648e-09 -4.29888e-11 -7.01454e-11)
(-6.21503e-09 -1.52632e-10 -8.17099e-11)
(-6.90613e-09 -2.80438e-10 -9.46282e-11)
(-7.35931e-09 -3.74477e-10 -1.09463e-10)
(-2.60291e-10 1.10393e-11 -1.73623e-12)
(-7.53431e-10 3.20846e-11 -5.11225e-12)
(-1.20239e-09 5.15808e-11 -8.4384e-12)
(-1.62353e-09 7.0269e-11 -1.19603e-11)
(-2.03142e-09 8.86211e-11 -1.59066e-11)
(-2.43939e-09 1.06819e-10 -2.05032e-11)
(-2.86011e-09 1.24706e-10 -2.59873e-11)
(-3.30601e-09 1.41755e-10 -3.26091e-11)
(-3.78933e-09 1.57021e-10 -4.0626e-11)
(-4.3215e-09 1.69202e-10 -5.0267e-11)
(-4.91173e-09 1.76904e-10 -6.16659e-11)
(-5.564e-09 1.79324e-10 -7.47559e-11)
(-6.27103e-09 1.77431e-10 -8.91864e-11)
(-6.99779e-09 1.75103e-10 -1.04423e-10)
(-7.65967e-09 1.80472e-10 -1.20386e-10)
(-8.08976e-09 1.94233e-10 -1.36513e-10)
(-3.05971e-10 1.29062e-11 -2.04443e-12)
(-8.85152e-10 3.75841e-11 -6.0198e-12)
(-1.41056e-09 6.06606e-11 -9.93225e-12)
(-1.90027e-09 8.31683e-11 -1.40696e-11)
(-2.37007e-09 1.05912e-10 -1.86991e-11)
(-2.83386e-09 1.29498e-10 -2.40891e-11)
(-3.3042e-09 1.54403e-10 -3.0524e-11)
(-3.79251e-09 1.81075e-10 -3.83198e-11)
(-4.30883e-09 2.10143e-10 -4.78212e-11)
(-4.8609e-09 2.42824e-10 -5.93948e-11)
(-5.45233e-09 2.81656e-10 -7.33958e-11)
(-6.07943e-09 3.31571e-10 -9.01243e-11)
(-6.72658e-09 4.00781e-10 -1.09815e-10)
(-7.35706e-09 4.98553e-10 -1.32635e-10)
(-7.90032e-09 6.23146e-10 -1.5831e-10)
(-8.24511e-09 7.30304e-10 -1.82714e-10)
(-3.46001e-10 1.43705e-11 -2.31454e-12)
(-1.00034e-09 4.19242e-11 -6.8137e-12)
(-1.59171e-09 6.79033e-11 -1.12356e-11)
(-2.13921e-09 9.36149e-11 -1.59018e-11)
(-2.65919e-09 1.20175e-10 -2.11108e-11)
(-3.16549e-09 1.48584e-10 -2.71656e-11)
(-3.66988e-09 1.7987e-10 -3.43915e-11)
(-4.18207e-09 2.15275e-10 -4.31581e-11)
(-4.70923e-09 2.56588e-10 -5.38948e-11)
(-5.2547e-09 3.06687e-10 -6.71058e-11)
(-5.81583e-09 3.70393e-10 -8.33891e-11)
(-6.38051e-09 4.55589e-10 -1.03488e-10)
(-6.92286e-09 5.74077e-10 -1.28428e-10)
(-7.39858e-09 7.39283e-10 -1.59708e-10)
(-7.74362e-09 9.49089e-10 -1.9817e-10)
(-7.91294e-09 1.13976e-09 -2.37407e-10)
(-3.80214e-10 1.53388e-11 -2.5438e-12)
(-1.09861e-09 4.4822e-11 -7.48607e-12)
(-1.74549e-09 7.28136e-11 -1.23348e-11)
(-2.34036e-09 1.00843e-10 -1.7435e-11)
(-2.89965e-09 1.30261e-10 -2.31104e-11)
(-3.43669e-09 1.62362e-10 -2.96831e-11)
(-3.96214e-09 1.98533e-10 -3.75059e-11)
(-4.48383e-09 2.40469e-10 -4.69807e-11)
(-5.00613e-09 2.9048e-10 -5.85847e-11)
(-5.52854e-09 3.51944e-10 -7.2897e-11)
(-6.04338e-09 4.29904e-10 -9.06384e-11)
(-6.53227e-09 5.31706e-10 -1.1273e-10)
(-6.96165e-09 6.67259e-10 -1.4042e-10)
(-7.27854e-09 8.4764e-10 -1.75422e-10)
(-7.4121e-09 1.07457e-09 -2.18641e-10)
(-7.33105e-09 1.31121e-09 -2.64423e-10)
(-3.21404e-11 1.35134e-12 -1.87886e-13)
(-9.32349e-11 3.90485e-12 -5.54416e-13)
(-1.49442e-10 6.19703e-12 -9.19276e-13)
(-2.03236e-10 8.25746e-12 -1.31276e-12)
(-2.57068e-10 1.00485e-11 -1.76644e-12)
(-3.12441e-10 1.13813e-11 -2.30751e-12)
(-3.71974e-10 1.1927e-11 -2.97581e-12)
(-4.38154e-10 1.10434e-11 -3.81885e-12)
(-5.1366e-10 7.58503e-12 -4.89899e-12)
(-6.01024e-10 -4.46261e-13 -6.30184e-12)
(-7.0564e-10 -1.64143e-11 -8.19004e-12)
(-8.30859e-10 -4.59546e-11 -1.07986e-11)
(-9.80378e-10 -9.80004e-11 -1.45338e-11)
(-1.155e-09 -1.85586e-10 -1.99705e-11)
(-1.34852e-09 -3.22002e-10 -2.7473e-11)
(-1.52355e-09 -4.86152e-10 -3.51963e-11)
(-9.51824e-11 4.01652e-12 -5.56549e-13)
(-2.76104e-10 1.16169e-11 -1.64278e-12)
(-4.42297e-10 1.84655e-11 -2.72299e-12)
(-6.00814e-10 2.46696e-11 -3.88594e-12)
(-7.57747e-10 3.01199e-11 -5.21765e-12)
(-9.19474e-10 3.44246e-11 -6.81094e-12)
(-1.09278e-09 3.67229e-11 -8.77917e-12)
(-1.28468e-09 3.53814e-11 -1.12607e-11)
(-1.503e-09 2.75293e-11 -1.44383e-11)
(-1.75711e-09 8.21011e-12 -1.85777e-11)
(-2.05651e-09 -3.08014e-11 -2.40625e-11)
(-2.40976e-09 -1.02466e-10 -3.14741e-11)
(-2.82558e-09 -2.25503e-10 -4.17764e-11)
(-3.29536e-09 -4.22131e-10 -5.61624e-11)
(-3.77776e-09 -7.0216e-10 -7.51041e-11)
(-4.14702e-09 -9.92933e-10 -9.3656e-11)
(-1.55885e-10 6.6159e-12 -9.12361e-13)
(-4.51261e-10 1.91302e-11 -2.68769e-12)
(-7.21698e-10 3.04776e-11 -4.45075e-12)
(-9.78538e-10 4.09184e-11 -6.34636e-12)
(-1.23129e-09 5.03967e-11 -8.51185e-12)
(-1.4905e-09 5.85185e-11 -1.11047e-11)
(-1.7658e-09 6.4247e-11 -1.43034e-11)
(-2.06778e-09 6.56416e-11 -1.83305e-11)
(-2.40817e-09 5.93377e-11 -2.34815e-11)
(-2.80024e-09 3.97768e-11 -3.0154e-11)
(-3.25425e-09 -1.88427e-12 -3.88601e-11)
(-3.78179e-09 -7.86497e-11 -5.03753e-11)
(-4.3846e-09 -2.06676e-10 -6.57266e-11)
(-5.04205e-09 -3.97498e-10 -8.61327e-11)
(-5.67532e-09 -6.38727e-10 -1.1174e-10)
(-6.10572e-09 -8.42475e-10 -1.3618e-10)
(-2.12022e-10 9.04837e-12 -1.24215e-12)
(-6.1388e-10 2.62297e-11 -3.66172e-12)
(-9.81167e-10 4.19744e-11 -6.0647e-12)
(-1.32816e-09 5.67461e-11 -8.64433e-12)
(-1.66771e-09 7.07036e-11 -1.159e-11)
(-2.01215e-09 8.36223e-11 -1.51089e-11)
(-2.37349e-09 9.47299e-11 -1.94421e-11)
(-2.76415e-09 1.02501e-10 -2.48926e-11)
(-3.19716e-09 1.04331e-10 -3.185e-11)
(-3.6858e-09 9.6141e-11 -4.08262e-11)
(-4.24173e-09 7.20009e-11 -5.24838e-11)
(-4.87306e-09 2.42581e-11 -6.76991e-11)
(-5.57481e-09 -5.52503e-11 -8.75585e-11)
(-6.31791e-09 -1.67066e-10 -1.13142e-10)
(-7.01e-09 -2.93847e-10 -1.4411e-10)
(-7.46874e-09 -3.83965e-10 -1.73005e-10)
(-2.63452e-10 1.12694e-11 -1.54516e-12)
(-7.62652e-10 3.27473e-11 -4.55642e-12)
(-1.21745e-09 5.26333e-11 -7.54355e-12)
(-1.6446e-09 7.1669e-11 -1.07446e-11)
(-2.05904e-09 9.03155e-11 -1.43927e-11)
(-2.47445e-09 1.08716e-10 -1.87423e-11)
(-2.90376e-09 1.26653e-10 -2.40894e-11)
(-3.35962e-09 1.43491e-10 -3.08106e-11)
(-3.85431e-09 1.58141e-10 -3.93898e-11)
(-4.3991e-09 1.69117e-10 -5.04679e-11)
(-5.00246e-09 1.7482e-10 -6.48897e-11)
(-5.66674e-09 1.74272e-10 -8.3751e-11)
(-6.38433e-09 1.68372e-10 -1.08492e-10)
(-7.11771e-09 1.61293e-10 -1.40245e-10)
(-7.78289e-09 1.62078e-10 -1.78099e-10)
(-8.22046e-09 1.73454e-10 -2.12318e-10)
(-3.09566e-10 1.3186e-11 -1.81723e-12)
(-8.95646e-10 3.83976e-11 -5.35726e-12)
(-1.42764e-09 6.19678e-11 -8.86406e-12)
(-1.92406e-09 8.49457e-11 -1.26124e-11)
(-2.40106e-09 1.08137e-10 -1.68731e-11)
(-2.87288e-09 1.32131e-10 -2.19373e-11)
(-3.35237e-09 1.57365e-10 -2.81519e-11)
(-3.85112e-09 1.84216e-10 -3.59512e-11)
(-4.37923e-09 2.13205e-10 -4.59095e-11)
(-4.94425e-09 2.45389e-10 -5.87982e-11)
(-5.54928e-09 2.83054e-10 -7.56743e-11)
(-6.18976e-09 3.30707e-10 -9.79883e-11)
(-6.84951e-09 3.95839e-10 -1.27677e-10)
(-7.48971e-09 4.85813e-10 -1.66574e-10)
(-8.0426e-09 5.98821e-10 -2.13698e-10)
(-8.39903e-09 6.94892e-10 -2.56164e-10)
(-3.49917e-10 1.46941e-11 -2.05425e-12)
(-1.01176e-09 4.28698e-11 -6.0544e-12)
(-1.61023e-09 6.94384e-11 -1.00087e-11)
(-2.16486e-09 9.57377e-11 -1.42215e-11)
(-2.69239e-09 1.22897e-10 -1.89924e-11)
(-3.20697e-09 1.51924e-10 -2.46399e-11)
(-3.72062e-09 1.83828e-10 -3.15441e-11)
(-4.24322e-09 2.19812e-10 -4.01826e-11)
(-4.78197e-09 2.61589e-10 -5.11865e-11)
(-5.34008e-09 3.11886e-10 -6.5417e-11)
(-5.91458e-09 3.75215e-10 -8.40771e-11)
(-6.49297e-09 4.58792e-10 -1.08862e-10)
(-7.04937e-09 5.72983e-10 -1.42135e-10)
(-7.54e-09 7.28401e-10 -1.86625e-10)
(-7.90368e-09 9.20687e-10 -2.42177e-10)
(-8.09346e-09 1.09147e-09 -2.94958e-10)
(-3.84345e-10 1.56962e-11 -2.25413e-12)
(-1.11063e-09 4.58687e-11 -6.64169e-12)
(-1.76492e-09 7.45282e-11 -1.09667e-11)
(-2.36713e-09 1.03241e-10 -1.55567e-11)
(-2.93406e-09 1.33393e-10 -2.07258e-11)
(-3.47934e-09 1.66294e-10 -2.6812e-11)
(-4.01384e-09 2.03336e-10 -3.42073e-11)
(-4.54552e-09 2.46197e-10 -4.34028e-11)
(-5.0788e-09 2.97128e-10 -5.50398e-11)
(-5.6131e-09 3.59359e-10 -6.99839e-11)
(-6.14059e-09 4.37589e-10 -8.94176e-11)
(-6.6429e-09 5.38384e-10 -1.14958e-10)
(-7.08721e-09 6.69981e-10 -1.48736e-10)
(-7.42279e-09 8.40264e-10 -1.93142e-10)
(-7.58315e-09 1.04753e-09 -2.48151e-10)
(-7.53528e-09 1.25812e-09 -3.03243e-10)
(-3.24866e-11 1.37084e-12 -1.56818e-13)
(-9.42535e-11 3.95974e-12 -4.63561e-13)
(-1.51159e-10 6.28099e-12 -7.71252e-13)
(-2.059e-10 8.36787e-12 -1.10848e-12)
(-2.60196e-10 1.01439e-11 -1.50103e-12)
(-3.1644e-10 1.14435e-11 -1.9819e-12)
(-3.77028e-10 1.19089e-11 -2.59337e-12)
(-4.44492e-10 1.08716e-11 -3.39167e-12)
(-5.21606e-10 7.15377e-12 -4.45625e-12)
(-6.11342e-10 -1.26585e-12 -5.90003e-12)
(-7.16881e-10 -1.77839e-11 -7.88639e-12)
(-8.43989e-10 -4.79936e-11 -1.06678e-11)
(-9.95651e-10 -1.00701e-10 -1.45304e-11)
(-1.17289e-09 -1.88816e-10 -1.96985e-11)
(-1.37009e-09 -3.25829e-10 -2.59055e-11)
(-1.54949e-09 -4.91362e-10 -3.12365e-11)
(-9.61924e-11 4.07503e-12 -4.64462e-13)
(-2.79068e-10 1.17825e-11 -1.37257e-12)
(-4.47238e-10 1.8718e-11 -2.28307e-12)
(-6.07589e-10 2.49676e-11 -3.27381e-12)
(-7.66591e-10 3.04151e-11 -4.4288e-12)
(-9.30977e-10 3.46452e-11 -5.84404e-12)
(-1.10734e-09 3.67371e-11 -7.64201e-12)
(-1.30286e-09 3.49878e-11 -9.98743e-12)
(-1.52553e-09 2.64309e-11 -1.31139e-11)
(-1.78417e-09 6.06209e-12 -1.73519e-11)
(-2.08857e-09 -3.43907e-11 -2.31889e-11)
(-2.44746e-09 -1.07845e-10 -3.12553e-11)
(-2.86891e-09 -2.32538e-10 -4.2329e-11)
(-3.34479e-09 -4.30117e-10 -5.68678e-11)
(-3.8347e-09 -7.10339e-10 -7.38157e-11)
(-4.2119e-09 -1.0019e-09 -8.75935e-11)
(-1.57505e-10 6.71517e-12 -7.60557e-13)
(-4.55966e-10 1.941e-11 -2.24395e-12)
(-7.29348e-10 3.09019e-11 -3.72709e-12)
(-9.88952e-10 4.14289e-11 -5.33941e-12)
(-1.24547e-09 5.09539e-11 -7.21645e-12)
(-1.50876e-09 5.90028e-11 -9.51321e-12)
(-1.78881e-09 6.44789e-11 -1.24241e-11)
(-2.09633e-09 6.53459e-11 -1.62166e-11)
(-2.44303e-09 5.8111e-11 -2.12618e-11)
(-2.84158e-09 3.70868e-11 -2.80895e-11)
(-3.30452e-09 -6.56341e-12 -3.74315e-11)
(-3.84049e-09 -8.57898e-11 -5.02457e-11)
(-4.45152e-09 -2.16171e-10 -6.75694e-11)
(-5.11733e-09 -4.08301e-10 -8.9932e-11)
(-5.76002e-09 -6.49235e-10 -1.1547e-10)
(-6.19984e-09 -8.52137e-10 -1.3585e-10)
(-2.14165e-10 9.189e-12 -1.03465e-12)
(-6.20129e-10 2.66305e-11 -3.05424e-12)
(-9.91375e-10 4.25953e-11 -5.07335e-12)
(-1.34243e-09 5.75365e-11 -7.26537e-12)
(-1.68658e-09 7.15976e-11 -9.81009e-12)
(-2.03624e-09 8.45031e-11 -1.29141e-11)
(-2.40364e-09 9.54115e-11 -1.68391e-11)
(-2.80136e-09 1.0269e-10 -2.19393e-11)
(-3.24248e-09 1.03597e-10 -2.87101e-11)
(-3.74023e-09 9.39002e-11 -3.78478e-11)
(-4.30643e-09 6.75679e-11 -5.03163e-11)
(-4.94832e-09 1.69674e-11 -6.73639e-11)
(-5.6606e-09 -6.56957e-11 -9.03563e-11)
(-6.41458e-09 -1.80081e-10 -1.199e-10)
(-7.11856e-09 -3.0806e-10 -1.53414e-10)
(-7.58893e-09 -3.97985e-10 -1.80169e-10)
(-2.66042e-10 1.14521e-11 -1.28576e-12)
(-7.7022e-10 3.32736e-11 -3.79586e-12)
(-1.2298e-09 5.34615e-11 -6.30213e-12)
(-1.66187e-09 7.27559e-11 -9.01612e-12)
(-2.08168e-09 9.16018e-11 -1.21572e-11)
(-2.50315e-09 1.10104e-10 -1.59741e-11)
(-2.93944e-09 1.2798e-10 -2.07865e-11)
(-3.40337e-09 1.44493e-10 -2.70208e-11)
(-3.90732e-09 1.58416e-10 -3.52785e-11)
(-4.46258e-09 1.68082e-10 -4.64104e-11)
(-5.07751e-09 1.71689e-10 -6.16057e-11)
(-5.75417e-09 1.6807e-10 -8.24394e-11)
(-6.48512e-09 1.58032e-10 -1.10818e-10)
(-7.23271e-09 1.46061e-10 -1.47586e-10)
(-7.9138e-09 1.4217e-10 -1.89746e-10)
(-8.36647e-09 1.51087e-10 -2.23798e-10)
(-3.12515e-10 1.34094e-11 -1.51006e-12)
(-9.04257e-10 3.90445e-11 -4.45768e-12)
(-1.44166e-09 6.30003e-11 -7.39397e-12)
(-1.94358e-09 8.6332e-11 -1.05639e-11)
(-2.42649e-09 1.09838e-10 -1.42166e-11)
(-2.90491e-09 1.34083e-10 -1.86376e-11)
(-3.39189e-09 1.59448e-10 -2.41849e-11)
(-3.89923e-09 1.86224e-10 -3.13445e-11)
(-4.43716e-09 2.14794e-10 -4.07946e-11)
(-5.01331e-09 2.46007e-10 -5.35081e-11)
(-5.63082e-09 2.81839e-10 -7.08723e-11)
(-6.28527e-09 3.26338e-10 -9.48004e-11)
(-6.96105e-09 3.86359e-10 -1.27679e-10)
(-7.61987e-09 4.68655e-10 -1.71191e-10)
(-8.1947e-09 5.72322e-10 -2.22521e-10)
(-8.57127e-09 6.61614e-10 -2.65466e-10)
(-3.53131e-10 1.4953e-11 -1.70501e-12)
(-1.02113e-09 4.36235e-11 -5.0309e-12)
(-1.62545e-09 7.06546e-11 -8.33522e-12)
(-2.18595e-09 9.73996e-11 -1.18878e-11)
(-2.7197e-09 1.24993e-10 -1.59591e-11)
(-3.24111e-09 1.54426e-10 -2.08592e-11)
(-3.76243e-09 1.86671e-10 -2.69707e-11)
(-4.29373e-09 2.22855e-10 -3.48078e-11)
(-4.84237e-09 2.64557e-10 -4.50878e-11)
(-5.41172e-09 3.14275e-10 -5.88361e-11)
(-5.99906e-09 3.76119e-10 -7.75215e-11)
(-6.59243e-09 4.56617e-10 -1.03206e-10)
(-7.16714e-09 5.65034e-10 -1.38568e-10)
(-7.68114e-09 7.10603e-10 -1.86119e-10)
(-8.07421e-09 8.89189e-10 -2.44092e-10)
(-8.2917e-09 1.04798e-09 -2.96052e-10)
(-3.87735e-10 1.5982e-11 -1.8689e-12)
(-1.12052e-09 4.67061e-11 -5.51049e-12)
(-1.7809e-09 7.58904e-11 -9.11796e-12)
(-2.38918e-09 1.05129e-10 -1.29749e-11)
(-2.96244e-09 1.35819e-10 -1.73685e-11)
(-3.51456e-09 1.69268e-10 -2.26151e-11)
(-4.05663e-09 2.06843e-10 -2.91044e-11)
(-4.5968e-09 2.50159e-10 -3.73481e-11)
(-5.13966e-09 3.01338e-10 -4.80488e-11)
(-5.68487e-09 3.63372e-10 -6.21896e-11)
(-6.22501e-09 4.40519e-10 -8.11475e-11)
(-6.74256e-09 5.38559e-10 -1.06788e-10)
(-7.20639e-09 6.64454e-10 -1.41437e-10)
(-7.56851e-09 8.24385e-10 -1.87289e-10)
(-7.76448e-09 1.01607e-09 -2.43257e-10)
(-7.7545e-09 1.21012e-09 -2.97272e-10)
(-3.27497e-11 1.38517e-12 -1.18143e-13)
(-9.50267e-11 4.00001e-12 -3.49563e-13)
(-1.5244e-10 6.34108e-12 -5.83347e-13)
(-2.07734e-10 8.43937e-12 -8.4221e-13)
(-2.62562e-10 1.0209e-11 -1.14723e-12)
(-3.19472e-10 1.14812e-11 -1.52788e-12)
(-3.80855e-10 1.18837e-11 -2.02194e-12)
(-4.4927e-10 1.07308e-11 -2.68215e-12)
(-5.27522e-10 6.82498e-12 -3.58374e-12)
(-6.18612e-10 -1.87012e-12 -4.83218e-12)
(-7.25449e-10 -1.87589e-11 -6.56867e-12)
(-8.54243e-10 -4.94204e-11 -8.98975e-12)
(-1.008e-09 -1.0263e-10 -1.22504e-11)
(-1.18797e-09 -1.91354e-10 -1.63338e-11)
(-1.38871e-09 -3.29394e-10 -2.0729e-11)
(-1.5717e-09 -4.96642e-10 -2.39557e-11)
(-9.6961e-11 4.11829e-12 -3.49624e-13)
(-2.81319e-10 1.19039e-11 -1.03491e-12)
(-4.50939e-10 1.88995e-11 -1.72602e-12)
(-6.12751e-10 2.51811e-11 -2.48569e-12)
(-7.73406e-10 3.06223e-11 -3.38288e-12)
(-9.3975e-10 3.47847e-11 -4.50207e-12)
(-1.11841e-09 3.67103e-11 -5.95282e-12)
(-1.31663e-09 3.46491e-11 -7.89032e-12)
(-1.54247e-09 2.55773e-11 -1.05351e-11)
(-1.80468e-09 4.45407e-12 -1.42009e-11)
(-2.11326e-09 -3.70183e-11 -1.93248e-11)
(-2.47698e-09 -1.11704e-10 -2.64137e-11)
(-2.90411e-09 -2.37688e-10 -3.59268e-11)
(-3.38695e-09 -4.36563e-10 -4.7738e-11)
(-3.88521e-09 -7.18473e-10 -6.01869e-11)
(-4.26988e-09 -1.01256e-09 -6.87867e-11)
(-1.58739e-10 6.78845e-12 -5.72437e-13)
(-4.59565e-10 1.96165e-11 -1.69074e-12)
(-7.35217e-10 3.12131e-11 -2.81546e-12)
(-9.97131e-10 4.18054e-11 -4.04981e-12)
(-1.25634e-09 5.13453e-11 -5.50675e-12)
(-1.52271e-09 5.93188e-11 -7.31879e-12)
(-1.80634e-09 6.45809e-11 -9.66312e-12)
(-2.11804e-09 6.50234e-11 -1.2787e-11)
(-2.46958e-09 5.70725e-11 -1.70473e-11)
(-2.87366e-09 3.49615e-11 -2.295e-11)
(-3.34331e-09 -1.01668e-11 -3.11863e-11)
(-3.88677e-09 -9.1208e-11 -4.25753e-11)
(-4.50637e-09 -2.23501e-10 -5.78015e-11)
(-5.18231e-09 -4.17368e-10 -7.66695e-11)
(-5.83656e-09 -6.59929e-10 -9.64809e-11)
(-6.28593e-09 -8.6464e-10 -1.1012e-10)
(-2.15804e-10 9.29326e-12 -7.78038e-13)
(-6.24913e-10 2.69271e-11 -2.29934e-12)
(-9.9919e-10 4.30509e-11 -3.82903e-12)
(-1.35337e-09 5.81089e-11 -5.50499e-12)
(-1.701e-09 7.22272e-11 -7.47555e-12)
(-2.05463e-09 8.50924e-11 -9.91787e-12)
(-2.42663e-09 9.5805e-11 -1.30669e-11)
(-2.82971e-09 1.02651e-10 -1.72514e-11)
(-3.27707e-09 1.02785e-10 -2.29446e-11)
(-3.78205e-09 9.18631e-11 -3.08223e-11)
(-4.3567e-09 6.3772e-11 -4.18093e-11)
(-5.00825e-09 1.08807e-11 -5.70391e-11)
(-5.73174e-09 -7.44361e-11 -7.75489e-11)
(-6.49893e-09 -1.91496e-10 -1.03212e-10)
(-7.21757e-09 -3.2192e-10 -1.30526e-10)
(-7.69967e-09 -4.13948e-10 -1.49891e-10)
(-2.68024e-10 1.15879e-11 -9.65875e-13)
(-7.76011e-10 3.36634e-11 -2.8554e-12)
(-1.23925e-09 5.40704e-11 -4.75135e-12)
(-1.67508e-09 7.35443e-11 -6.82278e-12)
(-2.09899e-09 9.25136e-11 -9.24777e-12)
(-2.52508e-09 1.11049e-10 -1.22411e-11)
(-2.9667e-09 1.2881e-10 -1.60829e-11)
(-3.43681e-09 1.44974e-10 -2.11688e-11)
(-3.94798e-09 1.58193e-10 -2.80661e-11)
(-4.51164e-09 1.66649e-10 -3.75943e-11)
(-5.13641e-09 1.68374e-10 -5.08969e-11)
(-5.82463e-09 1.62051e-10 -6.94316e-11)
(-6.56953e-09 1.48431e-10 -9.47745e-11)
(-7.33383e-09 1.32235e-10 -1.27082e-10)
(-8.03353e-09 1.24079e-10 -1.62507e-10)
(-8.50086e-09 1.29776e-10 -1.88816e-10)
(-3.14772e-10 1.35757e-11 -1.13361e-12)
(-9.10847e-10 3.95247e-11 -3.34949e-12)
(-1.45239e-09 6.37612e-11 -5.56794e-12)
(-1.95852e-09 8.73411e-11 -7.98152e-12)
(-2.44597e-09 1.11052e-10 -1.07933e-11)
(-2.92943e-09 1.35429e-10 -1.42444e-11)
(-3.42218e-09 1.60803e-10 -1.86495e-11)
(-3.93619e-09 1.87376e-10 -2.44472e-11)
(-4.48188e-09 2.15399e-10 -3.22706e-11)
(-5.06714e-09 2.45531e-10 -4.30396e-11)
(-5.69549e-09 2.79481e-10 -5.80653e-11)