/*--------------------------------*- C++ -*----------------------------------*\
| =========                 |                                                 |
| \\      /  F ield         | foam-extend: Open Source CFD                    |
|  \\    /   O peration     | Version:     3.1                                |
|   \\  /    A nd           | Web:         http://www.extend-project.de       |
|    \\/     M anipulation  |                                                 |
\*---------------------------------------------------------------------------*/
FoamFile
{
    version     2.0;
    format      ascii;
    class       volScalarField;
    location    "1";
    object      p;
}
// * * * * * * * * * * * * * * * * * * * * * * * * * * * * * * * * * * * * * //

dimensions      [0 2 -2 0 0 0 0];

internalField   nonuniform List<scalar> 
14592
(
0.0885312
0.0885263
0.08834
0.0878629
0.0871679
0.0863324
0.0854221
0.0844865
0.0835593
0.0826621
0.0818044
0.0809818
0.0801692
0.0793027
0.0782474
0.0769157
0.0883785
0.0882122
0.0880508
0.0876403
0.086999
0.0862019
0.085318
0.0844014
0.0834907
0.0826119
0.081781
0.0810024
0.080266
0.079533
0.0786355
0.077186
0.0884071
0.0880171
0.0878091
0.0874371
0.0868273
0.0860484
0.0851741
0.0842617
0.0833533
0.0824808
0.0816671
0.0809276
0.0802669
0.0796638
0.0789286
0.0774629
0.0885924
0.0879663
0.0876454
0.0872705
0.0866652
0.0858814
0.0849973
0.0840716
0.0831467
0.0822592
0.0814379
0.0807079
0.0800876
0.0795755
0.0789982
0.0777048
0.088849
0.0880147
0.08755
0.0871361
0.0865119
0.0857039
0.0847921
0.0838334
0.0828739
0.0819471
0.0810863
0.0803244
0.079694
0.0792229
0.0787936
0.0777949
0.0890939
0.0880986
0.0874947
0.0870211
0.0863603
0.0855133
0.0845605
0.0835529
0.0825367
0.0815434
0.0806057
0.0797597
0.0790502
0.07854
0.0782058
0.0775236
0.0892525
0.0881469
0.0874339
0.0869001
0.0861958
0.0853028
0.0842945
0.0832312
0.0821414
0.0810556
0.0800009
0.0790079
0.0781221
0.0774316
0.0770476
0.0764461
0.0892734
0.0881085
0.0873319
0.0867539
0.0860095
0.0850701
0.084012
0.0828805
0.0817044
0.0805055
0.0792979
0.0780925
0.0769043
0.0757754
0.0749242
0.0731454
0.0889907
0.0889859
0.0888041
0.0883276
0.0876359
0.0868164
0.085944
0.0850762
0.0842548
0.0835118
0.0828711
0.0823515
0.0819642
0.0816959
0.0815412
0.0818146
0.0888434
0.0886585
0.0884964
0.0880894
0.0874556
0.0866793
0.0858383
0.0849947
0.0841959
0.0834791
0.0828763
0.0824162
0.0821258
0.0820073
0.0820421
0.0826887
0.0889016
0.0884739
0.0882519
0.0878808
0.0872786
0.0865211
0.0856911
0.0848538
0.0840605
0.0833549
0.0827776
0.0823707
0.0821802
0.0822299
0.0824971
0.0835247
0.089137
0.0884554
0.0881006
0.0877179
0.0871163
0.0863507
0.0855086
0.0846567
0.083846
0.0831258
0.0825439
0.0821545
0.0820223
0.082198
0.0826757
0.0840807
0.089453
0.0885485
0.0880279
0.0875926
0.0869646
0.0861689
0.085294
0.0844041
0.0835541
0.0827897
0.082164
0.0817407
0.081602
0.0818328
0.0824622
0.084205
0.0897533
0.0886768
0.0879969
0.0874866
0.0868125
0.0859702
0.0850477
0.0841006
0.0831852
0.0823437
0.0816278
0.0811041
0.0808674
0.0810391
0.0816938
0.0836058
0.0899511
0.0887568
0.0879522
0.0873682
0.0866414
0.0857449
0.0847566
0.0837463
0.0827454
0.0817948
0.0809383
0.0802334
0.0797703
0.0796899
0.0801105
0.081578
0.0899864
0.0887285
0.0878511
0.0872138
0.0864397
0.0854892
0.0844448
0.0833552
0.0822533
0.081168
0.080125
0.0791542
0.0782998
0.0776357
0.0772754
0.076169
0.089438
0.0894353
0.0892601
0.0887862
0.0880986
0.0872944
0.086457
0.0856513
0.0849257
0.0843196
0.083866
0.0835951
0.0835313
0.0836764
0.0840514
0.0848476
0.0892967
0.0890979
0.0889377
0.0885355
0.0879094
0.0871525
0.0863509
0.0855741
0.0848766
0.0843033
0.0838955
0.0836928
0.0837324
0.0840245
0.0845999
0.0858135
0.0893834
0.0889256
0.0886938
0.0883249
0.0877301
0.0869921
0.0862025
0.0854337
0.0847441
0.0841857
0.0838088
0.0836665
0.083815
0.0842849
0.0851224
0.0867896
0.0896656
0.0889392
0.0885575
0.0881687
0.0875703
0.0868208
0.0860165
0.0852312
0.084523
0.0839495
0.0835689
0.0834472
0.0836602
0.0842652
0.0853312
0.0874265
0.0900367
0.0890755
0.0885088
0.0880547
0.0874225
0.0866367
0.0857944
0.084966
0.0842136
0.083591
0.0831617
0.0830017
0.0832048
0.0838591
0.085059
0.0874909
0.090388
0.0892461
0.0885026
0.0879592
0.0872716
0.0864316
0.085535
0.0846412
0.083815
0.0831054
0.0825738
0.0822984
0.082384
0.082947
0.0840963
0.0866102
0.0906216
0.0893559
0.0884743
0.0878443
0.0870948
0.0861929
0.0852199
0.0842559
0.0833333
0.0824997
0.0818072
0.0813225
0.081141
0.0813851
0.0821417
0.0839455
0.0906696
0.0893369
0.0883743
0.0876825
0.0868783
0.0859143
0.0848797
0.083826
0.0827889
0.0818016
0.0808949
0.080103
0.0794671
0.0790278
0.0787873
0.0773777
0.0898506
0.0898509
0.0896835
0.0892135
0.0885306
0.0877401
0.0869332
0.0861808
0.0855364
0.0850439
0.0847405
0.08466
0.0848285
0.0852478
0.0859295
0.0869274
0.0897154
0.0895062
0.0893496
0.0889531
0.0883346
0.0875949
0.0868275
0.0861081
0.0854963
0.0850416
0.0847893
0.0847816
0.0850544
0.0856139
0.0864901
0.0878873
0.0898277
0.0893464
0.0891085
0.0887428
0.0881551
0.0874341
0.0866793
0.0859691
0.0853669
0.0849294
0.0847108
0.084766
0.0851486
0.0858831
0.087023
0.0888799
0.0901516
0.08939
0.0889876
0.0885947
0.0879994
0.0872635
0.0864914
0.0857628
0.0851404
0.0846865
0.0844633
0.0845384
0.0849846
0.0858508
0.0872169
0.0895078
0.0905713
0.0895655
0.0889621
0.0884927
0.0878567
0.0870788
0.0862635
0.0854869
0.0848157
0.0843077
0.0840305
0.0840614
0.0844904
0.0853929
0.0868708
0.0894832
0.0909674
0.089774
0.0889795
0.088408
0.0877079
0.0868687
0.0859924
0.0851432
0.0843907
0.083787
0.0833969
0.0832991
0.0835923
0.0843731
0.0857431
0.08838
0.0912321
0.0899102
0.0889664
0.0882971
0.0875266
0.0866184
0.0856568
0.0847301
0.0838715
0.0831314
0.082564
0.0822349
0.0822296
0.08264
0.0835123
0.0852923
0.0912909
0.0898992
0.0888674
0.0881285
0.0872964
0.0863182
0.0852901
0.0842649
0.0832804
0.0823712
0.0815681
0.0809016
0.0803988
0.0800598
0.0798059
0.0780132
0.0902081
0.0902117
0.0900519
0.0895864
0.088908
0.088129
0.087347
0.0866376
0.0860577
0.0856535
0.0854635
0.0855209
0.0858483
0.0864418
0.0872954
0.0883808
0.0900783
0.0898617
0.0897093
0.0893185
0.0887069
0.0879815
0.0872421
0.0865689
0.0860251
0.0856623
0.0855267
0.0856589
0.0860894
0.0868162
0.0878557
0.0893246
0.0902124
0.0897133
0.0894716
0.0891097
0.0885283
0.0878213
0.0870948
0.0864316
0.0858985
0.0855541
0.0854532
0.0856483
0.086186
0.087081
0.0883776
0.090301
0.0905713
0.0897827
0.0893651
0.0889698
0.0883773
0.0876524
0.0869061
0.0862226
0.0856675
0.0853051
0.0851977
0.0854102
0.0860073
0.0870265
0.0885407
0.0908937
0.0910317
0.0899916
0.0893603
0.088879
0.0882398
0.0874679
0.0866738
0.0859381
0.08533
0.084909
0.0847427
0.0849048
0.0854764
0.0865185
0.0881248
0.0907841
0.0914649
0.0902321
0.0893981
0.0888042
0.0880936
0.0872541
0.0863931
0.0855786
0.0848829
0.084359
0.084071
0.0840935
0.0845144
0.0854104
0.0868684
0.0895128
0.0917553
0.0903905
0.0893982
0.088697
0.0879088
0.0869945
0.0860403
0.0851421
0.0843324
0.0836621
0.0831843
0.0829591
0.0830587
0.0835478
0.0844404
0.0861353
0.0918226
0.0903859
0.0893
0.0885227
0.0876668
0.0866751
0.0856508
0.0846468
0.0837022
0.0828509
0.0821218
0.081538
0.0811113
0.0808083
0.080496
0.07838
0.0904929
0.0904997
0.0903466
0.0898852
0.0892107
0.0884406
0.0876773
0.087
0.0864675
0.0861272
0.086017
0.0861682
0.0865989
0.0872985
0.0882473
0.0893724
0.0903676
0.0901461
0.0899977
0.089612
0.0890061
0.0882916
0.0875732
0.0869344
0.0864407
0.0861442
0.0860904
0.0863172
0.0868493
0.087677
0.0888047
0.0903031
0.0905188
0.0900072
0.0897636
0.0894051
0.0888289
0.0881326
0.0874271
0.0867989
0.0863163
0.0860387
0.0860197
0.0863083
0.0869442
0.0879335
0.0893112
0.0912586
0.0909051
0.0900972
0.0896689
0.0892724
0.0886823
0.0879656
0.0872383
0.086588
0.0860819
0.0857846
0.0857571
0.0860601
0.0867508
0.0878569
0.0894436
0.0918153
0.0913969
0.0903324
0.0896808
0.089191
0.0885495
0.0877817
0.087003
0.0862971
0.0857345
0.0853749
0.0852843
0.0855317
0.0861896
0.0873073
0.0889711
0.0916375
0.0918588
0.0905979
0.089735
0.0891244
0.0884057
0.0875653
0.0867151
0.0859254
0.0852703
0.0848022
0.0845832
0.0846827
0.0851787
0.0861327
0.0876211
0.0902461
0.0921688
0.0907734
0.0897456
0.0890204
0.0882183
0.0872982
0.0863488
0.0854706
0.0846955
0.0840738
0.0836561
0.0834963
0.0836552
0.0841779
0.0850576
0.0866728
0.0922425
0.0907737
0.0896479
0.0888416
0.087967
0.0869643
0.0859413
0.0849519
0.084035
0.0832239
0.0825439
0.0820116
0.0816257
0.0813286
0.0809547
0.078599
0.0906913
0.0907011
0.0905537
0.0900955
0.0894237
0.0886596
0.0879087
0.0872524
0.0867508
0.0864516
0.086392
0.0866011
0.0870934
0.0878534
0.0888524
0.0899949
0.0905697
0.0903464
0.090202
0.0898205
0.0892184
0.0885111
0.0878065
0.0871902
0.086729
0.0864751
0.086473
0.086758
0.0873505
0.0882352
0.0894089
0.0909182
0.0907323
0.0902143
0.0899708
0.0896157
0.0890432
0.0883538
0.087662
0.0870564
0.0866066
0.0863717
0.0864042
0.0867499
0.0874435
0.0884851
0.0899035
0.0918574
0.0911369
0.0903185
0.0898845
0.0894884
0.0889003
0.0881888
0.0874736
0.0868448
0.0863701
0.0861142
0.0861365
0.0864942
0.0872388
0.0883916
0.0900131
0.0923871
0.09165
0.0905718
0.0899079
0.0894137
0.0887712
0.0880058
0.0872366
0.0865495
0.086016
0.0856952
0.0856512
0.0859495
0.0866562
0.0878128
0.0895015
0.0921626
0.092131
0.0908543
0.0899733
0.0893527
0.0886292
0.0877878
0.0869438
0.0861696
0.0855401
0.0851069
0.0849302
0.0850749
0.0856121
0.0865938
0.08809
0.0906933
0.0924542
0.0910415
0.0899909
0.0892508
0.0884401
0.0875155
0.0865683
0.0857023
0.0849487
0.0843572
0.0839758
0.0838539
0.0840442
0.0845792
0.0854402
0.0869963
0.0925321
0.0910451
0.0898937
0.0890689
0.0881825
0.087172
0.0861484
0.0851674
0.0842677
0.0834812
0.0828308
0.0823278
0.081962
0.0816603
0.0812374
0.0787236
0.090789
0.0907953
0.0906507
0.0901951
0.0895253
0.0887648
0.0880205
0.0873748
0.0868885
0.0866091
0.0865732
0.086809
0.0873289
0.0881153
0.0891365
0.0902857
0.0906706
0.0904417
0.0902972
0.0899178
0.0893178
0.0886144
0.0879168
0.0873117
0.0868663
0.0866326
0.0866544
0.0869659
0.0875849
0.0884943
0.0896896
0.0912023
0.0908367
0.0903127
0.0900655
0.0897119
0.0891419
0.0884565
0.087772
0.0871779
0.086744
0.0865294
0.0865856
0.086957
0.0876755
0.0887392
0.0901774
0.0921312
0.0912494
0.0904251
0.0899831
0.0895863
0.0890002
0.088292
0.0875833
0.0869654
0.0865061
0.0862699
0.086315
0.0866971
0.0874648
0.0886369
0.0902761
0.092647
0.0917726
0.0906883
0.0900126
0.0895143
0.0888726
0.0881092
0.0873453
0.0866679
0.0861485
0.0858461
0.0858235
0.0861443
0.0868715
0.0880435
0.0897461
0.0923998
0.092263
0.0909797
0.0900838
0.0894558
0.0887311
0.0878904
0.0870501
0.0862838
0.0856669
0.0852503
0.0850928
0.0852573
0.0858114
0.0868028
0.0883054
0.0908933
0.0925926
0.0911728
0.0901053
0.0893547
0.088541
0.0876154
0.0866698
0.0858103
0.0850676
0.0844903
0.0841254
0.0840199
0.0842223
0.0847593
0.0856109
0.0871283
0.0926725
0.0911782
0.0900083
0.0891711
0.08828
0.0872669
0.0862439
0.0852676
0.0843767
0.083602
0.0829651
0.0824747
0.0821163
0.0818087
0.081347
0.0787404
0.0867386
0.0868424
0.0866722
0.0861972
0.0854644
0.0845142
0.0833805
0.0820859
0.0806398
0.0790391
0.0772688
0.0753053
0.073118
0.0706767
0.0679603
0.064978
0.086702
0.0868421
0.0866949
0.0862204
0.0854775
0.0845119
0.0833607
0.0820486
0.0805854
0.0789682
0.0771821
0.075202
0.0729972
0.0705376
0.0678017
0.0648009
0.0866943
0.0868482
0.0867182
0.0862427
0.0854858
0.0845
0.0833265
0.0819925
0.0805075
0.0788701
0.0770651
0.0750683
0.0728492
0.0703787
0.0676353
0.0646317
0.0867005
0.086849
0.086723
0.0862402
0.0854657
0.084457
0.083259
0.0818998
0.0803926
0.0787335
0.0769088
0.074895
0.0726629
0.0701849
0.0674401
0.0644425
0.0867029
0.0868409
0.0867103
0.0862147
0.0854194
0.0843861
0.0831624
0.0817781
0.0802461
0.078564
0.0767183
0.0746871
0.0724427
0.0699597
0.0672191
0.0642365
0.086693
0.0868223
0.0866833
0.0861714
0.0853533
0.0842945
0.0830438
0.0816334
0.0800757
0.0783692
0.0765016
0.0744525
0.0721969
0.069712
0.066982
0.0640239
0.0866649
0.0867885
0.0866401
0.0861112
0.0852703
0.0841855
0.0829093
0.0814726
0.0798888
0.0781573
0.0762674
0.0742008
0.0719355
0.0694523
0.0667393
0.0638155
0.0866156
0.0867358
0.0865783
0.0860333
0.0851723
0.084065
0.0827643
0.0813023
0.0796932
0.0779374
0.0760257
0.0739427
0.0716698
0.0691921
0.0665025
0.0636214
0.0866569
0.0867608
0.0865999
0.086134
0.0854121
0.0844727
0.0833493
0.0820648
0.0806286
0.0790373
0.0772759
0.0753184
0.0731322
0.0706841
0.067949
0.0649373
0.0865656
0.0866852
0.0865545
0.0861008
0.08538
0.0844346
0.0833007
0.0820034
0.0805531
0.0789465
0.077168
0.0751922
0.0729862
0.0705183
0.0677627
0.0647347
0.0865261
0.086634
0.0865248
0.0860801
0.0853544
0.084396
0.0832452
0.0819294
0.0804599
0.0788344
0.0770379
0.0750453
0.0728244
0.0703448
0.0675805
0.0645502
0.0865173
0.0865949
0.0864919
0.0860483
0.0853121
0.0843364
0.0831651
0.0818276
0.0803368
0.0786908
0.0768751
0.0748658
0.0726319
0.0701446
0.0673784
0.0643543
0.0865112
0.0865573
0.0864505
0.0860012
0.0852502
0.0842546
0.083061
0.0816999
0.0801862
0.0785179
0.0766817
0.0746553
0.0724093
0.0699172
0.0671554
0.0641466
0.0864958
0.0865173
0.0864025
0.0859424
0.0851733
0.0841554
0.0829373
0.081552
0.0800135
0.0783213
0.0764635
0.0744194
0.0721624
0.0696688
0.0669184
0.0639353
0.086464
0.0864693
0.0863453
0.085872
0.0850836
0.0840422
0.0827998
0.0813892
0.0798251
0.0781082
0.0762282
0.0741666
0.0719002
0.0694089
0.0666773
0.0637304
0.0864118
0.0864091
0.0862766
0.0857893
0.0849818
0.0839195
0.0826535
0.0812179
0.0796286
0.0778873
0.0759854
0.0739074
0.0716337
0.0691488
0.0664428
0.0635414
0.0866753
0.0867635
0.086605
0.0861443
0.0854308
0.0845039
0.0833976
0.0821353
0.0807258
0.079166
0.0774369
0.0755078
0.0733373
0.0708798
0.068091
0.0649756
0.0865535
0.0866334
0.086512
0.0860746
0.0853715
0.0844458
0.0833345
0.0820635
0.0806435
0.0790695
0.0773245
0.0753775
0.0731867
0.0707078
0.0678941
0.0647602
0.086494
0.086531
0.0864331
0.0860156
0.0853164
0.0843846
0.0832615
0.0819756
0.0805388
0.0789482
0.0771863
0.0752232
0.0730173
0.070526
0.0677007
0.0645625
0.0864784
0.0864535
0.0863587
0.0859508
0.0852483
0.0843049
0.0831656
0.0818612
0.0804046
0.0787944
0.0770137
0.0750339
0.0728145
0.0703149
0.067486
0.0643532
0.0864733
0.0863894
0.0862852
0.0858777
0.0851661
0.0842068
0.0830481
0.0817217
0.0802435
0.078611
0.0768093
0.0748113
0.0725789
0.0700737
0.0672491
0.0641331
0.0864622
0.0863324
0.0862143
0.0857999
0.0850739
0.0840949
0.0829136
0.0815636
0.0800603
0.078403
0.0765779
0.0745604
0.0723152
0.0698079
0.0669964
0.0639106
0.0864339
0.0862736
0.086142
0.0857164
0.0849736
0.0839722
0.0827668
0.0813913
0.0798612
0.0781772
0.0763274
0.0742895
0.0720324
0.0695267
0.0667374
0.0636955
0.0863818
0.0862063
0.0860644
0.0856258
0.0848637
0.0838422
0.0826131
0.0812114
0.0796541
0.0779429
0.0760678
0.0740098
0.0717425
0.0692425
0.0664837
0.0634975
0.0867985
0.0868614
0.086698
0.086238
0.0855307
0.0846178
0.0835348
0.0823061
0.0809408
0.079434
0.0777635
0.0758908
0.0737591
0.0712994
0.068428
0.0651308
0.0866604
0.0866879
0.0865654
0.0861394
0.0854509
0.0845458
0.0834628
0.0822291
0.080856
0.0793379
0.0776538
0.0757648
0.0736131
0.0711317
0.0682294
0.0649112
0.0865939
0.0865439
0.0864413
0.0860447
0.0853685
0.0844638
0.083374
0.0821292
0.0807423
0.0792097
0.0775105
0.0756068
0.0734406
0.0709467
0.0680276
0.0647002
0.0865846
0.0864384
0.0863288
0.0859482
0.0852752
0.0843637
0.0832615
0.0820009
0.0805956
0.0790442
0.0773266
0.075406
0.0732258
0.0707225
0.0677963
0.0644713
0.0865944
0.0863594
0.0862274
0.0858503
0.0851722
0.0842479
0.0831283
0.0818466
0.0804201
0.0788456
0.0771053
0.0751647
0.0729693
0.0704589
0.0675364
0.0642305
0.0866004
0.0862964
0.0861377
0.0857544
0.085064
0.0841212
0.0829797
0.0816739
0.0802206
0.0786185
0.0768514
0.0748872
0.0726754
0.070161
0.0672539
0.0639868
0.0865851
0.0862347
0.0860528
0.0856578
0.0849509
0.0839859
0.0828192
0.0814863
0.0800032
0.0783703
0.0765729
0.0745821
0.0723529
0.0698374
0.0669576
0.0637486
0.0865375
0.0861635
0.0859663
0.085558
0.0848321
0.0838452
0.0826532
0.0812913
0.0797767
0.078111
0.0762813
0.0742625
0.0720158
0.069502
0.0666593
0.0635243
0.0870107
0.0870485
0.0868767
0.0864143
0.0857114
0.0848135
0.0837589
0.0825739
0.0812686
0.0798377
0.0782558
0.0764753
0.0744188
0.0719811
0.0690118
0.0654495
0.0868615
0.0868354
0.086705
0.0862863
0.0856109
0.0847275
0.083678
0.0824921
0.0811824
0.0797435
0.0781512
0.0763572
0.0742822
0.0718236
0.0688173
0.0652369
0.086799
0.0866603
0.0865407
0.0861585
0.0855026
0.0846256
0.083574
0.0823805
0.0810599
0.0796092
0.0780043
0.0761979
0.0741096
0.0716385
0.0686076
0.065009
0.0868098
0.0865409
0.0863978
0.0860342
0.0853861
0.0845059
0.0834449
0.0822377
0.0808999
0.079431
0.0778079
0.0759848
0.073882
0.0714
0.0683562
0.0647541
0.0868495
0.0864625
0.086277
0.0859158
0.0852646
0.0843729
0.0832953
0.082067
0.0807073
0.0792135
0.0775653
0.0757195
0.0735988
0.071108
0.0680665
0.0644878
0.0868864
0.0864075
0.0861764
0.0858053
0.0851417
0.0842311
0.0831307
0.0818763
0.0804868
0.0789612
0.0772807
0.0754051
0.0732624
0.0707647
0.0677421
0.064217
0.0868942
0.0863529
0.0860842
0.0856975
0.0850161
0.0840818
0.0829536
0.0816691
0.0802448
0.0786816
0.0769622
0.0750501
0.0728806
0.0703767
0.0673878
0.0639446
0.0868559
0.086282
0.0859905
0.0855879
0.0848863
0.0839275
0.0827712
0.0814531
0.079991
0.0783863
0.0766234
0.0746697
0.0724692
0.069958
0.0670126
0.0636712
0.0873039
0.0873223
0.0871425
0.0866756
0.0859754
0.0850926
0.0840702
0.0829378
0.0817083
0.0803779
0.0789206
0.077281
0.0753584
0.0729929
0.0699218
0.0659612
0.0871484
0.0870754
0.0869348
0.0865197
0.0858549
0.0849933
0.0839812
0.0828523
0.0816224
0.0802885
0.0788257
0.0771778
0.0752398
0.0728495
0.0697174
0.0657059
0.0870996
0.0868813
0.0867386
0.0863639
0.0857241
0.0848735
0.0838635
0.0827304
0.0814926
0.0801499
0.0786783
0.0770226
0.075074
0.0726663
0.0694858
0.0654117
0.0871433
0.0867632
0.0865758
0.0862184
0.0855887
0.0847369
0.083719
0.0825734
0.0813192
0.0799589
0.0784699
0.0767988
0.0748363
0.0724149
0.0692085
0.0651099
0.0872264
0.0867011
0.0864469
0.086086
0.0854526
0.0845886
0.0835534
0.0823855
0.0811075
0.0797198
0.0782026
0.0765055
0.0745228
0.072092
0.0688877
0.0648215
0.0873063
0.0866678
0.0863453
0.0859664
0.0853178
0.0844324
0.083372
0.0821744
0.080862
0.0794363
0.0778792
0.0761437
0.0741313
0.0716922
0.0685166
0.0645396
0.087346
0.0866302
0.0862528
0.0858506
0.0851806
0.0842682
0.0831757
0.0819434
0.0805893
0.0791163
0.0775077
0.0757204
0.0736663
0.0712147
0.0680885
0.0642523
0.0873216
0.0865639
0.0861541
0.0857313
0.0850382
0.0840976
0.0829729
0.0817008
0.0803001
0.0787734
0.0771042
0.0752535
0.0731446
0.07067
0.0676026
0.0639424
0.0876666
0.0876722
0.0874866
0.087015
0.0863162
0.0854488
0.0844618
0.08339
0.0822513
0.0810471
0.0797559
0.0783234
0.0766343
0.074463
0.0713417
0.0666647
0.087509
0.0873975
0.0872472
0.0868337
0.0861773
0.0853373
0.0843661
0.0833027
0.0821685
0.0809667
0.079678
0.0782484
0.0765564
0.0743566
0.071095
0.0660705
0.0874817
0.0871953
0.0870281
0.086656
0.0860284
0.0852029
0.0842369
0.0831723
0.0820335
0.0808272
0.0795363
0.0781086
0.0764178
0.0741982
0.0708308
0.0655288
0.0875679
0.0870913
0.0868564
0.0864968
0.0858791
0.0850525
0.084079
0.0830024
0.0818475
0.0806243
0.0793182
0.0778797
0.076182
0.0739519
0.0705409
0.065128
0.0877044
0.0870583
0.0867303
0.0863576
0.0857329
0.0848916
0.0838986
0.0827971
0.0816157
0.0803616
0.0790238
0.0775567
0.0758388
0.0736047
0.0702085
0.0648391
0.0878358
0.0870579
0.0866373
0.0862346
0.0855895
0.0847224
0.0837
0.0825638
0.0813417
0.0800416
0.0786535
0.0771361
0.075378
0.0731358
0.0697974
0.0646032
0.0879132
0.087045
0.0865508
0.0861142
0.0854419
0.0845428
0.0834822
0.0823051
0.0810322
0.0796722
0.078215
0.0766224
0.0747962
0.072527
0.0692754
0.0643817
0.0879043
0.0869865
0.0864495
0.0859855
0.0852857
0.0843534
0.0832555
0.0820305
0.0806997
0.0792693
0.0777271
0.0760358
0.0741076
0.071773
0.0686103
0.064146
0.0880824
0.0880806
0.0878929
0.0874175
0.0867202
0.0858686
0.0849194
0.0839143
0.0828786
0.0818224
0.0807373
0.0795872
0.0782815
0.0766053
0.073957
0.0687711
0.087926
0.0877838
0.0876263
0.0872138
0.0865651
0.0857466
0.0848186
0.0838271
0.0828016
0.0817555
0.0806846
0.0795571
0.0782843
0.0766351
0.0738377
0.067703
0.0879253
0.087582
0.0873925
0.0870206
0.0864026
0.0856009
0.0846806
0.0836908
0.0826642
0.0816188
0.080555
0.0794471
0.0782085
0.0765881
0.0736999
0.0669556
0.0880599
0.0875017
0.0872212
0.0868547
0.0862446
0.0854404
0.084512
0.0835098
0.082467
0.0814058
0.0803304
0.0792211
0.0779959
0.0764004
0.0735121
0.0665739
0.0882555
0.0875069
0.0871072
0.0867152
0.0860928
0.0852698
0.0843182
0.0832876
0.0822146
0.0811184
0.0800076
0.0788679
0.0776269
0.0760459
0.0732278
0.0663951
0.0884431
0.0875468
0.0870303
0.0865941
0.0859438
0.085089
0.0841027
0.0830308
0.0819096
0.0807577
0.0795839
0.078378
0.0770799
0.0754823
0.0727677
0.0662562
0.0885609
0.0875633
0.086955
0.0864722
0.0857872
0.0848939
0.0838615
0.0827415
0.0815586
0.0803312
0.0790656
0.0777512
0.076338
0.0746582
0.0720382
0.0660178
0.0885668
0.0875145
0.0868528
0.0863346
0.0856162
0.0846836
0.0836078
0.0824303
0.0811759
0.0798578
0.0784751
0.0770094
0.0754066
0.07352
0.0708814
0.0654495
0.0891293
0.0879584
0.0871744
0.0865792
0.0858069
0.0848295
0.0837192
0.0825188
0.081252
0.07993
0.078551
0.0770966
0.0755152
0.0736698
0.0710993
0.0655298
0.0888391
0.0877141
0.0869772
0.0863916
0.0856027
0.0845938
0.0834364
0.0821708
0.0808156
0.0793739
0.077831
0.0761473
0.0742306
0.0719048
0.0686671
0.0639895
0.0884406
0.0874176
0.0867775
0.0862196
0.0854207
0.0843856
0.0831859
0.0818601
0.0804241
0.0788768
0.0771976
0.0753425
0.0732247
0.0707287
0.0675647
0.0638415
0.0880042
0.0871417
0.0866307
0.0861006
0.0852887
0.0842272
0.0829869
0.0816057
0.0800992
0.0784648
0.0766822
0.0747125
0.0724898
0.0699451
0.0669187
0.0635205
0.0876156
0.0869671
0.0865883
0.0860653
0.0852279
0.0841338
0.0828516
0.0814195
0.0798532
0.0781507
0.0762937
0.0742508
0.0719744
0.0694209
0.0665068
0.0633022
0.0873591
0.0869537
0.0866709
0.0861206
0.0852416
0.0841071
0.082782
0.0813045
0.0796904
0.0779379
0.076031
0.0739442
0.0716434
0.0691004
0.0662772
0.0632212
0.0873141
0.087133
0.0868751
0.086262
0.0853255
0.084144
0.0827782
0.081265
0.0796184
0.0778356
0.0759016
0.0737938
0.0714855
0.0689563
0.0661897
0.0632202
0.0874847
0.0874555
0.0871534
0.0864605
0.0854597
0.0842309
0.0828325
0.0812976
0.0796368
0.0778445
0.0759047
0.0737943
0.0714877
0.0689643
0.0662126
0.0632594
0.0898283
0.0885624
0.0876758
0.0870192
0.0862137
0.0852209
0.0841169
0.082948
0.0817398
0.0805072
0.0792536
0.0779675
0.0766003
0.0749835
0.0724553
0.0660234
0.0894965
0.0882787
0.0874448
0.0868021
0.0859805
0.0849537
0.0837972
0.0825537
0.0812422
0.0798663
0.0784112
0.0768344
0.0750285
0.0727657
0.0693855
0.0640856
0.0890358
0.0879255
0.0872014
0.0865962
0.085768
0.0847146
0.083512
0.0822004
0.080795
0.0792933
0.0776715
0.0758788
0.0738108
0.0713206
0.0680388
0.0640697
0.0885266
0.0875868
0.087011
0.0864459
0.0856092
0.0845299
0.0832839
0.0819105
0.0804238
0.0788192
0.0770722
0.0751366
0.0729329
0.0703757
0.067261
0.0637211
0.0880674
0.087357
0.0869354
0.0863886
0.0855298
0.0844183
0.0831278
0.0816978
0.0801429
0.0784584
0.076622
0.0745958
0.0723222
0.0697466
0.0667598
0.0634455
0.0877559
0.0873079
0.0870021
0.0864347
0.0855354
0.0843827
0.0830464
0.0815662
0.079957
0.0782143
0.0763183
0.074238
0.0719314
0.0693626
0.0664792
0.0633362
0.0876808
0.0874778
0.0872097
0.0865807
0.0856224
0.0844203
0.0830402
0.0815204
0.0798743
0.0780966
0.0761684
0.0740621
0.0717446
0.0691891
0.0663708
0.0633273
0.0878482
0.0878156
0.0875074
0.0867953
0.0857685
0.0845153
0.0830995
0.0815557
0.0798938
0.0781054
0.0761706
0.0740612
0.0717454
0.0691965
0.0663962
0.0633717
0.0904975
0.0891551
0.0881817
0.0874682
0.0866293
0.0856188
0.0845175
0.0833746
0.0822171
0.0810615
0.0799121
0.0787553
0.0775282
0.0760091
0.0733973
0.0662421
0.090127
0.088834
0.0879177
0.0872217
0.0863669
0.0853201
0.084161
0.0829351
0.0816609
0.0803416
0.07896
0.0774663
0.0757333
0.0734833
0.0699496
0.06417
0.0896083
0.0884269
0.0876312
0.0869815
0.0861234
0.0850496
0.0838411
0.0825398
0.0811602
0.0796975
0.078124
0.0763803
0.0743442
0.0718394
0.068437
0.0642446
0.0890312
0.0880283
0.0873971
0.0867989
0.0859367
0.0848378
0.0835836
0.0822147
0.0807442
0.0791648
0.0774475
0.0755387
0.0733454
0.0707665
0.0675626
0.0638874
0.0885064
0.0877452
0.0872873
0.0867178
0.085837
0.0847066
0.0834059
0.0819755
0.0804292
0.0787595
0.0769401
0.0749266
0.0726516
0.0700505
0.0669928
0.0635753
0.0881431
0.0876605
0.0873357
0.0867522
0.0858324
0.0846605
0.0833117
0.081827
0.0802204
0.0784853
0.076598
0.0745218
0.0722075
0.0696121
0.066671
0.0634457
0.0880392
0.0878189
0.0875432
0.0868996
0.08592
0.0846971
0.0833017
0.0817741
0.080127
0.0783526
0.0764286
0.0743223
0.0719947
0.069413
0.066545
0.0634314
0.0882025
0.0881687
0.0878568
0.0871275
0.0860761
0.0847989
0.0833651
0.0818115
0.080147
0.0783611
0.0764297
0.0743201
0.0719944
0.0694202
0.066573
0.0634808
0.0911059
0.089703
0.0886589
0.0878959
0.0870259
0.0859975
0.0848961
0.0837732
0.0826565
0.081562
0.0804921
0.0794259
0.0782823
0.0767914
0.0740574
0.0663043
0.0907007
0.0893481
0.0883644
0.0876218
0.0867361
0.0856692
0.0845054
0.0832922
0.0820477
0.0807733
0.0794479
0.0780128
0.0763215
0.0740553
0.0703748
0.064212
0.0901306
0.0888925
0.088038
0.0873492
0.086463
0.085369
0.0841528
0.0828583
0.0814987
0.0800668
0.0785303
0.0768212
0.074801
0.0722694
0.0687549
0.0643723
0.0894933
0.0884398
0.0877631
0.0871357
0.0862495
0.0851313
0.0838675
0.0825005
0.0810421
0.0794824
0.0777878
0.0758974
0.0737065
0.0711006
0.0678143
0.0640197
0.0889099
0.0881081
0.0876205
0.0870311
0.0861297
0.0849808
0.083669
0.0822365
0.080696
0.0790376
0.0772308
0.0752254
0.0729453
0.0703174
0.0671948
0.063686
0.0885006
0.0879903
0.0876504
0.0870528
0.086114
0.0849237
0.083562
0.0820717
0.0804662
0.0787363
0.0768549
0.0747805
0.0724572
0.0698356
0.0668418
0.0635433
0.0883706
0.088137
0.0878559
0.0871998
0.0862007
0.0849581
0.0835478
0.0820118
0.0803625
0.07859
0.0766683
0.0745607
0.0722225
0.0696159
0.0667025
0.0635259
0.0885294
0.0884959
0.088182
0.0874384
0.0863649
0.0850654
0.0836144
0.0820508
0.0803829
0.0785979
0.0766685
0.0745573
0.0722214
0.0696231
0.066733
0.06358
0.0916266
0.0901773
0.0890779
0.0882743
0.0873776
0.0863327
0.0852293
0.0841207
0.0830345
0.0819854
0.080972
0.0799652
0.0788669
0.0773693
0.0745117
0.0662885
0.091192
0.0897937
0.088757
0.0879761
0.0870637
0.0859786
0.084809
0.0836042
0.0823816
0.0811404
0.079855
0.0784581
0.0767867
0.0744906
0.0706811
0.0642193
0.0905787
0.0892969
0.0883961
0.0876749
0.0867645
0.0856521
0.0844278
0.0831371
0.081792
0.0803828
0.0788725
0.0771855
0.0751699
0.0726069
0.0689958
0.0644603
0.0898908
0.0887983
0.0880856
0.087434
0.0865269
0.0853913
0.084118
0.082751
0.081301
0.0797556
0.0780768
0.0761978
0.0740037
0.07137
0.0680127
0.0641197
0.0892583
0.088425
0.0879141
0.0873082
0.086389
0.0852235
0.083901
0.0824654
0.0809284
0.0792778
0.0774795
0.0754783
0.0731909
0.0705375
0.0673595
0.0637747
0.0888101
0.0882785
0.087927
0.0873179
0.0863628
0.0851561
0.0837825
0.0822864
0.0806806
0.0789539
0.0770761
0.0750015
0.0726687
0.0700234
0.0669845
0.0636244
0.0886579
0.0884143
0.0881295
0.0874633
0.0864476
0.0851878
0.0837641
0.0822202
0.0805681
0.0787961
0.0768754
0.0747654
0.0724169
0.0697881
0.0668357
0.0636057
0.0888127
0.0887801
0.0884655
0.0877103
0.0866182
0.0852995
0.0838333
0.0822603
0.0805887
0.0788036
0.0768747
0.0747611
0.0724153
0.0697957
0.0668686
0.063664
0.0920377
0.0905551
0.0894149
0.0885805
0.0876628
0.0866043
0.085498
0.0843987
0.0833337
0.0823157
0.0813398
0.0803695
0.0792932
0.0777758
0.0748157
0.0662509
0.0915802
0.090149
0.0890731
0.088263
0.0873296
0.0862294
0.085054
0.0838542
0.0826467
0.0814281
0.0801691
0.0787951
0.0771306
0.0748029
0.0708918
0.0642119
0.0909332
0.08962
0.0886847
0.0879389
0.0870093
0.0858818
0.08465
0.0833609
0.0820254
0.0806316
0.0791385
0.0774642
0.075447
0.0728545
0.0691678
0.0645182
0.0902061
0.0890852
0.0883459
0.0876759
0.0867522
0.0856022
0.0843205
0.0829524
0.0815077
0.0799717
0.0783032
0.07643
0.0742304
0.0715719
0.0681591
0.0641911
0.0895354
0.0886792
0.0881511
0.0875327
0.0865993
0.0854201
0.0840886
0.0826497
0.0811143
0.0794687
0.0776756
0.0756758
0.0733808
0.0707057
0.0674841
0.0638408
0.0890567
0.0885097
0.0881501
0.0875322
0.0865641
0.0853441
0.0839606
0.0824592
0.0808524
0.0791273
0.0772513
0.0751753
0.0728338
0.0701689
0.0670945
0.0636867
0.0888871
0.0886365
0.0883496
0.0876757
0.086647
0.0853733
0.0839385
0.0823878
0.0807329
0.0789605
0.0770398
0.0749271
0.0725697
0.0699226
0.0669395
0.0636679
0.0890384
0.0890072
0.0886928
0.0879289
0.0868222
0.0854881
0.0840095
0.0824288
0.0807535
0.0789677
0.0770386
0.0749223
0.0725679
0.0699308
0.0669744
0.0637296
0.0923211
0.0908196
0.089653
0.0887989
0.0878678
0.0867995
0.08569
0.0845956
0.0835434
0.0825444
0.0815909
0.0806411
0.0795746
0.0780388
0.0750083
0.0662238
0.091848
0.0903981
0.0892968
0.088468
0.087521
0.08641
0.0852295
0.0840319
0.0828331
0.0816282
0.0803848
0.0790234
0.07736
0.0750068
0.0710255
0.0642014
0.0911782
0.0898469
0.0888895
0.088128
0.0871859
0.0860475
0.0848095
0.0835203
0.0821902
0.0808054
0.0793224
0.0776545
0.0756335
0.073018
0.0692789
0.064553
0.0904244
0.0892873
0.0885311
0.0878496
0.086915
0.0857545
0.084466
0.0830962
0.0816541
0.0801234
0.0784606
0.0765899
0.0743846
0.0717075
0.0682567
0.0642383
0.0897277
0.0888586
0.0883202
0.0876942
0.0867511
0.085562
0.0842234
0.0827814
0.0812464
0.0796032
0.0778127
0.0758128
0.0735114
0.0708204
0.067569
0.0638859
0.0892286
0.0886732
0.0883093
0.0876862
0.0867091
0.0854794
0.0840883
0.0825827
0.0809744
0.0792498
0.0773742
0.0752965
0.0729483
0.0702692
0.0671703
0.0637297
0.0890473
0.0887935
0.0885063
0.0878276
0.0867896
0.085506
0.0840631
0.0825071
0.0808496
0.0790765
0.0771552
0.0750401
0.072676
0.0700158
0.0670113
0.0637111
0.0891957
0.0891662
0.0888528
0.0880833
0.0869665
0.0856216
0.0841341
0.0825475
0.0808694
0.0790825
0.0771528
0.0750341
0.0726734
0.0700237
0.0670471
0.0637746
0.0924583
0.090949
0.0897637
0.0888967