/*--------------------------------*- C++ -*----------------------------------*\
| =========                 |                                                 |
| \\      /  F ield         | foam-extend: Open Source CFD                    |
|  \\    /   O peration     | Version:     3.1                                |
|   \\  /    A nd           | Web:         http://www.extend-project.de       |
|    \\/     M anipulation  |                                                 |
\*---------------------------------------------------------------------------*/
FoamFile
{
    version     2.0;
    format      ascii;
    class       surfaceScalarField;
    location    "1";
    object      phi;
}
// * * * * * * * * * * * * * * * * * * * * * * * * * * * * * * * * * * * * * //

dimensions      [0 3 -1 0 0 0 0];

internalField   nonuniform List<scalar> 
41600
(
1.38242e-05
-2.25686e-06
-4.62069e-06
4.86411e-06
1.71203e-05
-3.68683e-06
-8.40054e-06
8.79133e-06
2.01379e-05
-3.36897e-06
-9.39527e-06
9.74661e-06
2.23751e-05
-2.49684e-06
-9.16696e-06
9.42661e-06
2.38112e-05
-1.60973e-06
-8.53331e-06
8.70693e-06
2.46108e-05
-9.0838e-07
-7.91087e-06
8.01967e-06
2.49551e-05
-4.09379e-07
-7.50824e-06
7.57327e-06
2.49793e-05
-6.28851e-08
-7.43845e-06
7.47718e-06
2.47634e-05
1.88222e-07
-7.78293e-06
7.8106e-06
2.43534e-05
3.76459e-07
-8.63351e-06
8.6671e-06
2.3766e-05
5.19639e-07
-1.01228e-05
1.01905e-05
2.29872e-05
6.12025e-07
-1.24613e-05
1.26281e-05
2.19132e-05
6.22481e-07
-1.59835e-05
1.6435e-05
2.00506e-05
5.14309e-07
-2.11034e-05
2.24517e-05
1.51166e-05
4.63546e-07
-2.74948e-05
3.19652e-05
-1.50781e-08
-2.70709e-05
4.26512e-05
3.44441e-05
-4.06112e-06
-6.04386e-06
6.55037e-06
3.78744e-05
-8.03631e-06
-1.40344e-05
1.49537e-05
4.16616e-05
-8.04343e-06
-1.71887e-05
1.80759e-05
4.48206e-05
-6.35668e-06
-1.74383e-05
1.81391e-05
4.70175e-05
-4.31434e-06
-1.64185e-05
1.69262e-05
4.83015e-05
-2.54811e-06
-1.51234e-05
1.54792e-05
4.88578e-05
-1.2155e-06
-1.40814e-05
1.43312e-05
4.88622e-05
-2.50004e-07
-1.35659e-05
1.37487e-05
4.84189e-05
4.83214e-07
-1.37426e-05
1.38909e-05
4.7571e-05
1.07716e-06
-1.47658e-05
1.4913e-05
4.62884e-05
1.60635e-06
-1.68396e-05
1.70355e-05
4.44304e-05
2.11683e-06
-2.02775e-05
2.06307e-05
4.15906e-05
2.64239e-06
-2.5571e-05
2.63909e-05
3.65335e-05
3.23512e-06
-3.32918e-05
3.5628e-05
2.54279e-05
3.96179e-06
-4.26587e-05
5.02661e-05
2.321e-06
-3.94149e-05
6.35564e-05
5.12384e-05
-4.46175e-06
-5.33216e-06
5.92837e-06
5.22078e-05
-1.02185e-05
-1.47912e-05
1.60041e-05
5.39781e-05
-1.10294e-05
-1.94942e-05
2.07097e-05
5.58031e-05
-9.15397e-06
-2.04791e-05
2.14514e-05
5.72096e-05
-6.42762e-06
-1.95302e-05
2.0237e-05
5.80336e-05
-3.86932e-06
-1.79809e-05
1.84781e-05
5.82978e-05
-1.83201e-06
-1.65994e-05
1.69517e-05
5.80798e-05
-2.92732e-07
-1.57797e-05
1.60406e-05
5.7416e-05
9.3443e-07
-1.5738e-05
1.59505e-05
5.63042e-05
1.98278e-06
-1.66494e-05
1.68556e-05
5.46556e-05
2.99467e-06
-1.87304e-05
1.89907e-05
5.22481e-05
4.08116e-06
-2.23083e-05
2.27514e-05
4.85473e-05
5.35589e-06
-2.78967e-05
2.88841e-05
4.20871e-05
6.94904e-06
-3.60962e-05
3.88425e-05
2.86333e-05
8.67199e-06
-4.6079e-05
5.48226e-05
5.39283e-06
-4.21815e-05
6.91659e-05
6.56128e-05
-4.02021e-06
-4.597e-06
5.21642e-06
6.41527e-05
-1.01491e-05
-1.44708e-05
1.58614e-05
6.32858e-05
-1.15964e-05
-2.0137e-05
2.1571e-05
6.2952e-05
-9.96731e-06
-2.17129e-05
2.286e-05
6.28341e-05
-7.13129e-06
-2.08775e-05
2.16991e-05
6.26698e-05
-4.27183e-06
-1.91702e-05
1.97371e-05
6.23193e-05
-1.87653e-06
-1.75487e-05
1.79437e-05
6.17165e-05
2.12302e-08
-1.64994e-05
1.67883e-05
6.08067e-05
1.6112e-06
-1.62699e-05
1.6503e-05
5.95126e-05
3.05264e-06
-1.7032e-05
1.72562e-05
5.76889e-05
4.53753e-06
-1.89927e-05
1.92735e-05
5.50621e-05
6.23378e-06
-2.24698e-05
2.29441e-05
5.10471e-05
8.32384e-06
-2.79719e-05
2.9019e-05
4.41206e-05
1.09939e-05
-3.61124e-05
3.89941e-05
2.99156e-05
1.37994e-05
-4.61437e-05
5.52212e-05
9.1399e-06
-4.26308e-05
7.04991e-05
7.74484e-05
-3.22792e-06
-4.1353e-06
4.76016e-06
7.42907e-05
-8.50895e-06
-1.41667e-05
1.56842e-05
7.11671e-05
-1.00751e-05
-2.0468e-05
2.20702e-05
6.87369e-05
-8.81741e-06
-2.24669e-05
2.37472e-05
6.69999e-05
-6.29528e-06
-2.16892e-05
2.25902e-05
6.57243e-05
-3.60247e-06
-1.9813e-05
2.04193e-05
6.46742e-05
-1.23852e-06
-1.79556e-05
1.83677e-05
6.36499e-05
7.50176e-07
-1.66815e-05
1.69768e-05
6.252e-05
2.50631e-06
-1.62532e-05
1.6488e-05
6.1128e-05
4.22123e-06
-1.68295e-05
1.7053e-05
5.92801e-05
6.10719e-06
-1.85956e-05
1.88738e-05
5.66628e-05
8.38198e-06
-2.18478e-05
2.23168e-05
5.26512e-05
1.13008e-05
-2.70801e-05
2.81148e-05
4.56549e-05
1.51403e-05
-3.49206e-05
3.77705e-05
3.10846e-05
1.93308e-05
-4.47325e-05
5.37713e-05
1.38995e-05
-4.18763e-05
7.00508e-05
8.6458e-05
-2.30358e-06
-3.88035e-06
4.50738e-06
8.2251e-05
-5.91539e-06
-1.40189e-05
1.56323e-05
7.75011e-05
-7.0604e-06
-2.07524e-05
2.24876e-05
7.34209e-05
-6.12415e-06
-2.30378e-05
2.44247e-05
7.03357e-05
-4.17258e-06
-2.2268e-05
2.32306e-05
6.81047e-05
-2.00467e-06
-2.02158e-05
2.0849e-05
6.64586e-05
-1.23903e-08
-1.8124e-05
1.8544e-05
6.51066e-05
1.80739e-06
-1.66188e-05
1.69135e-05
6.38498e-05
3.5334e-06
-1.59713e-05
1.62011e-05
6.24826e-05
5.37365e-06
-1.63178e-05
1.65325e-05
6.07802e-05
7.54657e-06
-1.78109e-05
1.80738e-05
5.84076e-05
1.03162e-05
-2.07117e-05
2.11502e-05
5.47078e-05
1.40352e-05
-2.5483e-05
2.64484e-05
4.79904e-05
1.91785e-05
-3.27656e-05
3.54449e-05
3.31866e-05
2.54252e-05
-4.20926e-05
5.08019e-05
2.07973e-05
-4.00067e-05
6.818e-05
9.24908e-05
-1.31877e-06
-3.75328e-06
4.38294e-06
8.76788e-05
-2.78422e-06
-1.39791e-05
1.566e-05
8.19059e-05
-3.11662e-06
-2.09795e-05
2.28086e-05
7.67388e-05
-2.41961e-06
-2.34241e-05
2.48866e-05
7.27471e-05
-1.18639e-06
-2.26213e-05
2.36268e-05
6.98916e-05
2.00195e-07
-2.04059e-05
2.10565e-05
6.78484e-05
1.6067e-06
-1.80985e-05
1.85226e-05
6.63469e-05
3.01735e-06
-1.63799e-05
1.66714e-05
6.51122e-05
4.54558e-06
-1.55066e-05
1.57291e-05
6.3928e-05
6.35546e-06
-1.55867e-05
1.57891e-05
6.25743e-05
8.66063e-06
-1.67299e-05
1.69696e-05
6.07417e-05
1.1761e-05
-1.91402e-05
1.95281e-05
5.78023e-05
1.61321e-05
-2.32073e-05
2.40498e-05
5.20392e-05
2.25959e-05
-2.95377e-05
3.18834e-05
3.76205e-05
3.18911e-05
-3.79247e-05
4.58775e-05
3.2547e-05
-3.65566e-05
6.42516e-05
9.54852e-05
-3.70555e-06
4.33913e-06
-2.84345e-07
9.0373e-05
-1.39947e-05
1.57135e-05
6.09172e-07
8.41134e-05
-2.11061e-05
2.2984e-05
1.26498e-06
7.84464e-05
-2.35825e-05
2.50821e-05
1.74779e-06
7.40616e-05
-2.27088e-05
2.37338e-05
2.17335e-06
7.09449e-05
-2.03531e-05
2.10105e-05
2.6595e-06
6.88235e-05
-1.7886e-05
1.8309e-05
3.30507e-06
6.73712e-05
-1.59864e-05
1.6273e-05
4.18302e-06
6.63234e-05
-1.48974e-05
1.51117e-05
5.37906e-06
6.54808e-05
-1.46928e-05
1.48812e-05
7.00966e-06
6.46784e-05
-1.5428e-05
1.56398e-05
9.25116e-06
6.3725e-05
-1.72214e-05
1.75441e-05
1.23916e-05
6.22184e-05
-2.03177e-05
2.09857e-05
1.69706e-05
5.88711e-05
-2.51139e-05
2.69042e-05
2.41529e-05
4.75819e-05
-3.16341e-05
3.78761e-05
3.69384e-05
-3.03838e-05
5.50847e-05
5.71143e-05
1.46636e-05
-2.41201e-06
-4.23368e-06
1.79907e-05
-3.99786e-06
-7.72978e-06
2.09946e-05
-3.69296e-06
-8.70623e-06
2.31445e-05
-2.76031e-06
-8.55655e-06
2.44188e-05
-1.79099e-06
-8.01666e-06
2.49951e-05
-1.01624e-06
-7.47086e-06
2.50657e-05
-4.62245e-07
-7.11662e-06
2.47652e-05
-7.61216e-08
-7.06182e-06
2.41568e-05
2.06053e-07
-7.38064e-06
2.32502e-05
4.22103e-07
-8.14903e-06
2.19967e-05
5.94917e-07
-9.46418e-06
2.0271e-05
7.23525e-07
-1.14591e-05
1.78021e-05
7.81211e-07
-1.42959e-05
1.39789e-05
7.48149e-07
-1.80283e-05
7.54051e-06
6.09808e-07
-2.16662e-05
-5.37132e-07
-1.85138e-05
3.66853e-05
-4.26889e-06
-5.40271e-06
4.00025e-05
-8.63368e-06
-1.27159e-05
4.36278e-05
-8.76503e-06
-1.57419e-05
4.65475e-05
-7.00179e-06
-1.61166e-05
4.84168e-05
-4.79075e-06
-1.52879e-05
4.92895e-05
-2.84687e-06
-1.41656e-05
4.93595e-05
-1.36665e-06
-1.32469e-05
4.87988e-05
-2.87023e-07
-1.27944e-05
4.76845e-05
5.411e-07
-1.29633e-05
4.60022e-05
1.22414e-06
-1.38855e-05
4.36189e-05
1.85205e-06
-1.57134e-05
4.0226e-05
2.48421e-06
-1.86453e-05
3.51902e-05
3.15742e-06
-2.29115e-05
2.72753e-05
3.89424e-06
-2.85229e-05
1.43927e-05
4.4577e-06
-3.3624e-05
2.25135e-06
-2.66626e-05
5.47446e-05
-4.64154e-06
-4.66517e-06
5.54406e-05
-1.08967e-05
-1.32242e-05
5.68345e-05
-1.19583e-05
-1.76947e-05
5.82158e-05
-1.00517e-05
-1.88106e-05
5.9126e-05
-7.12733e-06
-1.81039e-05
5.9404e-05
-4.32288e-06
-1.67829e-05
5.90692e-05
-2.06121e-06
-1.55701e-05
5.8185e-05
-3.37258e-07
-1.48453e-05
5.67499e-05
1.05328e-06
-1.48151e-05
5.46941e-05
2.26194e-06
-1.56313e-05
5.18118e-05
3.45892e-06
-1.7455e-05
4.7695e-05
4.78093e-06
-2.04882e-05
4.15629e-05
6.35348e-06
-2.49606e-05
3.19699e-05
8.24696e-06
-3.08559e-05
1.65993e-05
9.87458e-06
-3.61254e-05
6.42276e-06
-2.81909e-05
7.02268e-05
-4.16408e-06
-3.95447e-06
6.84188e-05
-1.07661e-05
-1.27935e-05
6.6993e-05
-1.25248e-05
-1.81446e-05
6.60003e-05
-1.09189e-05
-1.98529e-05
6.51966e-05
-7.90156e-06
-1.92995e-05
6.43444e-05
-4.77789e-06
-1.78629e-05
6.32977e-05
-2.12088e-06
-1.64424e-05
6.19615e-05
9.76112e-09
-1.55102e-05
6.02361e-05
1.81519e-06
-1.53063e-05
5.79646e-05
3.48301e-06
-1.59816e-05
5.48764e-05
5.24182e-06
-1.76873e-05
5.05004e-05
7.30063e-06
-2.06135e-05
4.39878e-05
9.87298e-06
-2.49788e-05
3.38071e-05
1.30783e-05
-3.07631e-05
1.75176e-05
1.59753e-05
-3.59549e-05
1.1332e-05
-2.81543e-05
8.2959e-05
-3.34897e-06
-3.51642e-06
7.94456e-05
-9.00252e-06
-1.24167e-05
7.56475e-05
-1.08591e-05
-1.83357e-05
7.23816e-05
-9.6505e-06
-2.04694e-05
6.9783e-05
-6.98098e-06
-2.00112e-05
6.7682e-05
-4.04504e-06
-1.84449e-05
6.5845e-05
-1.42244e-06
-1.6817e-05
6.40371e-05
8.15236e-07
-1.56792e-05
6.20715e-05
2.81791e-06
-1.52903e-05
5.97059e-05
4.81078e-06
-1.57916e-05
5.66151e-05
7.05241e-06
-1.73155e-05
5.22811e-05
9.81941e-06
-2.00325e-05
4.57944e-05
1.34289e-05
-2.41493e-05
3.54972e-05
1.81131e-05
-2.96583e-05
1.8665e-05
2.27289e-05
-3.46539e-05
1.74918e-05
-2.73262e-05
9.26355e-05
-2.41079e-06
-3.27633e-06
8.80893e-05
-6.26374e-06
-1.22114e-05
8.26028e-05
-7.61569e-06
-1.85094e-05
7.75636e-05
-6.71712e-06
-2.09319e-05
7.34811e-05
-4.65186e-06
-2.05147e-05
7.03139e-05
-2.28617e-06
-1.88075e-05
6.78123e-05
-7.34227e-08
-1.69714e-05
6.56449e-05
1.98472e-06
-1.56209e-05
6.35563e-05
3.96335e-06
-1.50282e-05
6.12526e-05
6.11367e-06
-1.53169e-05
5.83783e-05
8.7082e-06
-1.65924e-05
5.43942e-05
1.20899e-05
-1.89981e-05
4.83428e-05
1.67191e-05
-2.27219e-05
3.83686e-05
2.31045e-05
-2.77828e-05
2.10801e-05
3.03729e-05
-3.2448e-05
2.64e-05
-2.5728e-05
9.91069e-05
-1.41378e-06
-3.15629e-06
9.39723e-05
-2.97978e-06
-1.21286e-05
8.74317e-05
-3.39726e-06
-1.86573e-05
8.1231e-05
-2.69818e-06
-2.12423e-05
7.61555e-05
-1.38014e-06
-2.08176e-05
7.22988e-05
1.39647e-07
-1.8975e-05
6.93556e-05
1.71626e-06
-1.69449e-05
6.70371e-05
3.3209e-06
-1.53976e-05
6.50029e-05
5.08643e-06
-1.45955e-05
6.29549e-05
7.21498e-06
-1.464e-05
6.05554e-05
9.98058e-06
-1.56028e-05
5.73098e-05
1.37809e-05
-1.75856e-05
5.23032e-05
1.92526e-05
-2.07341e-05
4.35512e-05
2.7406e-05
-2.50872e-05
2.65235e-05
3.86828e-05
-2.92069e-05
4.16225e-05
-2.31816e-05
0.000102316
-3.10937e-06
-3.63449e-07
9.68877e-05
-1.21177e-05
5.71419e-07
8.98455e-05
-1.87422e-05
1.28103e-06
8.31122e-05
-2.13647e-05
1.81743e-06
7.76102e-05
-2.08854e-05
2.29845e-06
7.34643e-05
-1.89189e-05
2.85138e-06
7.04465e-05
-1.67437e-05
3.59168e-06
6.82029e-05
-1.50284e-05
4.60656e-06
6.64148e-05
-1.40269e-05
6.00404e-06
6.48143e-05
-1.38126e-05
7.93542e-06
6.31466e-05
-1.4415e-05
1.06353e-05
6.1087e-05
-1.58758e-05
1.44947e-05
5.8029e-05
-1.8255e-05
2.02481e-05
5.24223e-05
-2.15312e-05
2.943e-05
3.89679e-05
-2.47241e-05
4.52271e-05
-1.93434e-05
7.15108e-05
1.53809e-05
-2.54433e-06
-3.72217e-06
1.87398e-05
-4.2719e-06
-6.81677e-06
2.17412e-05
-3.9867e-06
-7.72089e-06
2.38228e-05
-3.00534e-06
-7.63281e-06
2.49585e-05
-1.96386e-06
-7.18852e-06
2.53363e-05
-1.1223e-06
-6.72638e-06
2.51601e-05
-5.17091e-07
-6.42329e-06
2.4567e-05
-9.34028e-08
-6.37535e-06
2.36115e-05
2.19176e-07
-6.6443e-06
2.22843e-05
4.63814e-07
-7.28566e-06
2.05095e-05
6.70052e-07
-8.35944e-06
1.81364e-05
8.45023e-07
-9.93096e-06
1.49101e-05
9.74479e-07
-1.20441e-05
1.04192e-05
1.04409e-06
-1.45815e-05
4.40125e-06
8.71058e-07
-1.65193e-05
-5.22519e-07
-1.30853e-05
3.86094e-05
-4.44168e-06
-4.65394e-06
4.18419e-05
-9.15062e-06
-1.10696e-05
4.53438e-05
-9.40781e-06
-1.38228e-05
4.80695e-05
-7.59027e-06
-1.42573e-05
4.96591e-05
-5.23454e-06
-1.36069e-05
5.01697e-05
-3.13099e-06
-1.26674e-05
4.98035e-05
-1.5144e-06
-1.18835e-05
4.87345e-05
-3.27171e-07
-1.14916e-05
4.70242e-05
5.92257e-07
-1.16261e-05
4.46282e-05
1.36276e-06
-1.23884e-05
4.13706e-05
2.08996e-06
-1.38757e-05
3.69081e-05
2.84762e-06
-1.61854e-05
3.06579e-05
3.68181e-06
-1.93687e-05
2.17633e-05
4.59181e-06
-2.3176e-05
9.65717e-06
5.08718e-06
-2.5734e-05
2.5372e-06
-1.88399e-05
5.77592e-05
-4.78898e-06
-3.9482e-06
5.82428e-05
-1.14749e-05
-1.13836e-05
5.9335e-05
-1.27751e-05
-1.54197e-05
6.03474e-05
-1.08605e-05
-1.65527e-05
6.08311e-05
-7.77077e-06
-1.60513e-05
6.06279e-05
-4.74742e-06
-1.49633e-05
5.97569e-05
-2.27971e-06
-1.39337e-05
5.82739e-05
-3.82065e-07
-1.33074e-05
5.6154e-05
1.16388e-06
-1.32669e-05
5.32906e-05
2.52646e-06
-1.39316e-05
4.94287e-05
3.90077e-06
-1.54039e-05
4.41217e-05
5.44473e-06
-1.77784e-05
3.66437e-05
7.29204e-06
-2.10928e-05
2.5964e-05
9.46435e-06
-2.50487e-05
1.14271e-05
1.10622e-05
-2.75636e-05
7.21714e-06
-1.97574e-05
7.4193e-05
-4.28296e-06
-3.30126e-06
7.21204e-05
-1.12865e-05
-1.09092e-05
7.02464e-05
-1.33332e-05
-1.57126e-05
6.87026e-05
-1.17688e-05
-1.74008e-05
6.73065e-05
-8.60374e-06
-1.70705e-05
6.58463e-05
-5.24701e-06
-1.59031e-05
6.41755e-05
-2.35054e-06
-1.47008e-05
6.21798e-05
-1.94938e-09
-1.38947e-05
5.97305e-05
2.00752e-06
-1.37007e-05
5.66243e-05
3.88969e-06
-1.42386e-05
5.25353e-05
5.90403e-06
-1.56016e-05
4.69485e-05
8.2902e-06
-1.78722e-05
3.90605e-05
1.12767e-05
-2.10754e-05
2.77427e-05
1.49226e-05
-2.49036e-05
1.22237e-05
1.79192e-05
-2.72928e-05
1.28433e-05
-1.95358e-05
8.7692e-05
-3.45142e-06
-2.90906e-06
8.39163e-05
-9.41627e-06
-1.05113e-05
7.95831e-05
-1.15369e-05
-1.57989e-05
7.562e-05
-1.03894e-05
-1.78857e-05
7.22768e-05
-7.60192e-06
-1.76698e-05
6.9445e-05
-4.45232e-06
-1.64078e-05
6.69014e-05
-1.59337e-06
-1.50306e-05
6.43881e-05
8.77153e-07
-1.40449e-05
6.16802e-05
3.11217e-06
-1.36871e-05
5.84834e-05
5.3655e-06
-1.40706e-05
5.44118e-05
7.93324e-06
-1.52731e-05
4.88963e-05
1.11341e-05
-1.7361e-05
4.10574e-05
1.53165e-05
-2.03503e-05
2.96073e-05
2.06597e-05
-2.39453e-05
1.34316e-05
2.5613e-05
-2.6172e-05
1.99431e-05
-1.87717e-05
9.79369e-05
-2.50376e-06
-2.69597e-06
9.31483e-05
-6.555e-06
-1.02842e-05
8.70839e-05
-8.093e-06
-1.58887e-05
8.12484e-05
-7.23993e-06
-1.8246e-05
7.63054e-05
-5.08309e-06
-1.80904e-05
7.23094e-05
-2.54317e-06
-1.67207e-05
6.9039e-05
-1.28752e-07
-1.51656e-05
6.61365e-05
2.153e-06
-1.39942e-05
6.33082e-05
4.36888e-06
-1.34567e-05
6.02039e-05
6.80724e-06
-1.36542e-05
5.64056e-05
9.78325e-06
-1.46441e-05
5.13193e-05
1.36952e-05
-1.6473e-05
4.4e-05
1.9062e-05
-1.9148e-05
3.29048e-05
2.63769e-05
-2.24049e-05
1.61139e-05
3.43748e-05
-2.44189e-05
3.0138e-05
-1.75021e-05
0.000104781
-1.49748e-06
-2.58955e-06
9.94216e-05
-3.1435e-06
-1.01805e-05
9.22838e-05
-3.63685e-06
-1.59756e-05
8.52286e-05
-2.94141e-06
-1.84856e-05
7.92197e-05
-1.55169e-06
-1.83401e-05
7.4478e-05
8.63305e-08
-1.68629e-05
7.07254e-05
1.82146e-06
-1.51426e-05
6.76697e-05
3.60807e-06
-1.37969e-05
6.49226e-05
5.5959e-06
-1.30754e-05
6.2134e-05
8.01834e-06
-1.30624e-05
5.89085e-05
1.11961e-05
-1.37903e-05
5.47028e-05
1.55935e-05
-1.52782e-05
4.86084e-05
2.19365e-05
-1.75142e-05
3.88812e-05
3.12947e-05
-2.02777e-05
2.22233e-05
4.38307e-05
-2.2005e-05
4.71559e-05
-1.56797e-05
0.000108173
-2.54703e-06
-4.33464e-07
0.000102527
-1.01542e-05
5.3895e-07
9.48783e-05
-1.60278e-05
1.29704e-06
8.72659e-05
-1.8576e-05
1.88227e-06
8.08037e-05
-1.839e-05
2.41516e-06
7.57473e-05
-1.68075e-05
3.03129e-06
7.19241e-05
-1.49611e-05
3.86203e-06
6.89659e-05
-1.34686e-05
5.00653e-06
6.65159e-05
-1.25735e-05
6.59246e-06
6.42616e-05
-1.23399e-05
8.79986e-06
6.19057e-05
-1.27703e-05
1.19073e-05
5.90955e-05
-1.38464e-05
1.63743e-05
5.52518e-05
-1.55139e-05
2.30391e-05
4.90109e-05
-1.75633e-05
3.35676e-05
3.59895e-05
-1.88729e-05
5.10009e-05
-1.3131e-05
7.91376e-05
1.59768e-05
-2.6538e-06
-3.10576e-06
1.93647e-05
-4.50454e-06
-5.70012e-06
2.23698e-05
-4.24187e-06
-6.48416e-06
2.43994e-05
-3.22262e-06
-6.43984e-06
2.54208e-05
-2.12027e-06
-6.08965e-06
2.56305e-05
-1.22049e-06
-5.71553e-06
2.52434e-05
-5.69728e-07
-5.46645e-06
2.44025e-05
-1.1209e-07
-5.42243e-06
2.31607e-05
2.28652e-07
-5.63112e-06
2.15038e-05
5.0057e-07
-6.12938e-06
1.93532e-05
7.39686e-07
-6.94852e-06
1.6572e-05
9.60233e-07
-8.10998e-06
1.29693e-05
1.1566e-06
-9.59798e-06
8.33117e-06
1.30728e-06
-1.12506e-05
2.92112e-06
1.12963e-06
-1.22389e-05
-3.45262e-07
-9.29169e-06
4.02142e-05
-4.5815e-06
-3.8202e-06
4.33826e-05
-9.58286e-06
-9.15976e-06
4.67918e-05
-9.95827e-06
-1.15156e-05
4.93637e-05
-8.10422e-06
-1.19476e-05
5.07229e-05
-5.62884e-06
-1.14575e-05
5.09277e-05
-3.38758e-06
-1.07051e-05
5.01898e-05
-1.65052e-06
-1.00648e-05
4.86889e-05
-3.66656e-07
-9.73615e-06
4.64832e-05
6.35984e-07
-9.82768e-06
4.35195e-05
1.48692e-06
-1.04111e-05
3.9618e-05
2.30563e-06
-1.15402e-05
3.44616e-05
3.17722e-06
-1.32459e-05
2.75872e-05
4.15218e-06
-1.54899e-05
1.84835e-05
5.19841e-06
-1.79635e-05
7.37237e-06
5.66104e-06
-1.91542e-05
2.88651e-06
-1.34105e-05
6.02765e-05
-4.90695e-06
-3.19552e-06
6.05961e-05
-1.19522e-05
-9.33378e-06
6.14508e-05
-1.34671e-05
-1.27656e-05
6.21643e-05
-1.15599e-05
-1.38105e-05
6.22937e-05
-8.33659e-06
-1.34729e-05
6.16835e-05
-5.12615e-06
-1.26146e-05
6.0355e-05
-2.47731e-06
-1.17784e-05
5.8363e-05
-4.24475e-07
-1.12576e-05
5.56728e-05
1.26193e-06
-1.12026e-05
5.21656e-05
2.76337e-06
-1.17008e-05
4.75802e-05
4.29551e-06
-1.28084e-05
4.14986e-05
6.03102e-06
-1.45506e-05
3.33262e-05
8.10302e-06
-1.68712e-05
2.24094e-05
1.04787e-05
-1.94122e-05
8.9478e-06
1.20452e-05
-2.04862e-05
7.86331e-06
-1.39975e-05
7.75042e-05
-4.37891e-06
-2.64343e-06
7.52316e-05
-1.17123e-05
-8.87656e-06
7.30051e-05
-1.40123e-05
-1.29409e-05
7.10126e-05
-1.2498e-05
-1.44702e-05
6.91219e-05
-9.21675e-06
-1.42997e-05
6.71456e-05
-5.66225e-06
-1.33908e-05
6.49411e-05
-2.55598e-06
-1.24175e-05
6.23837e-05
-1.31766e-08
-1.17486e-05
5.93312e-05
2.17921e-06
-1.15655e-05
5.55599e-05
4.2522e-06
-1.19561e-05
5.07341e-05
6.48896e-06
-1.29693e-05
4.43638e-05
9.14879e-06
-1.46196e-05
3.57713e-05
1.24596e-05
-1.68395e-05
2.4196e-05
1.64124e-05
-1.9262e-05
9.71847e-06
1.94406e-05
-2.02106e-05
1.39452e-05
-1.37438e-05
9.16405e-05
-3.53599e-06
-2.31337e-06
8.76726e-05
-9.75293e-06
-8.50279e-06
8.29225e-05
-1.21026e-05
-1.29584e-05
7.83934e-05
-1.10197e-05
-1.48349e-05
7.44282e-05
-8.14091e-06
-1.47803e-05
7.09749e-05
-4.81058e-06
-1.38061e-05
6.78254e-05
-1.74431e-06
-1.26927e-05
6.471e-05
9.32727e-07
-1.18754e-05
6.13825e-05
3.37482e-06
-1.15552e-05
5.75235e-05
5.85747e-06
-1.18169e-05
5.2732e-05
8.70432e-06
-1.2697e-05
4.64577e-05
1.226e-05
-1.41979e-05
3.79334e-05
1.68795e-05
-1.62458e-05
2.62131e-05
2.26724e-05
-1.84849e-05
1.09942e-05
2.77957e-05
-1.93084e-05
2.16635e-05
-1.31135e-05
0.000102357
-2.58216e-06
-2.13555e-06
9.73955e-05
-6.79152e-06
-8.28443e-06
9.08855e-05
-8.48945e-06
-1.29919e-05
8.44067e-05
-7.68354e-06
-1.51034e-05
7.8746e-05
-5.45529e-06
-1.51153e-05
7.40454e-05
-2.76805e-06
-1.40626e-05
7.01137e-05
-1.72826e-07
-1.28055e-05
6.65827e-05
2.30383e-06
-1.18343e-05
6.31353e-05
4.73031e-06
-1.13647e-05
5.93921e-05
7.41974e-06
-1.14733e-05
5.49167e-05
1.07176e-05
-1.21821e-05
4.9128e-05
1.50557e-05
-1.34799e-05
4.11761e-05
2.09733e-05
-1.529e-05
2.98174e-05
2.89123e-05
-1.72859e-05
1.38596e-05
3.73098e-05
-1.79752e-05
3.26638e-05
-1.21557e-05
0.00010951
-1.56913e-06
-2.04699e-06
0.000103993
-3.27661e-06
-8.17904e-06
9.63989e-05
-3.83453e-06
-1.3036e-05
8.8656e-05
-3.14585e-06
-1.52804e-05
8.18697e-05
-1.69739e-06
-1.53116e-05
7.63754e-05
4.09187e-08
-1.41775e-05
7.19279e-05
1.918e-06
-1.27859e-05
6.82395e-05
3.8656e-06
-1.16702e-05
6.48935e-05
6.04954e-06
-1.10487e-05
6.15114e-05
8.72584e-06
-1.09865e-05
5.76801e-05
1.22472e-05
-1.14885e-05
5.28673e-05
1.7117e-05
-1.25267e-05
4.62465e-05
2.40982e-05
-1.40183e-05
3.63164e-05
3.42473e-05
-1.56827e-05
2.03697e-05
4.74783e-05
-1.62267e-05
5.07196e-05
-1.08697e-05
0.000113052
-2.01107e-06
-4.94379e-07
0.000107256
-8.14672e-06
5.11924e-07
9.91462e-05
-1.30648e-05
1.31221e-06
9.08281e-05
-1.5344e-05
1.94021e-06
8.35678e-05
-1.53465e-05
2.51938e-06
7.77363e-05
-1.41273e-05
3.19221e-06
7.32209e-05
-1.26326e-05
4.10487e-06
6.96485e-05
-1.13956e-05
5.36501e-06
6.66399e-05
-1.06319e-05
7.11648e-06
6.38581e-05
-1.03929e-05
9.5606e-06
6.09937e-05
-1.06638e-05
1.30052e-05
5.77112e-05
-1.13949e-05
1.7948e-05
5.35096e-05
-1.24851e-05
2.52711e-05
4.72145e-05
-1.36869e-05
3.6666e-05
3.48755e-05
-1.40543e-05
5.49988e-05
-9.13107e-06
8.40183e-05
1.64521e-05
-2.74078e-06
-2.40464e-06
1.98642e-05
-4.69308e-06
-4.41922e-06
2.28759e-05
-4.45229e-06
-5.04357e-06
2.48675e-05
-3.40463e-06
-5.02675e-06
2.57989e-05
-2.25327e-06
-4.76784e-06
2.58734e-05
-1.30535e-06
-4.48467e-06
2.53163e-05
-6.16263e-07
-4.29308e-06
2.4278e-05
-1.29681e-07
-4.25445e-06
2.28143e-05
2.35487e-07
-4.40284e-06
2.09142e-05
5.31331e-07
-4.76068e-06
1.85076e-05
7.9923e-07
-5.34116e-06
1.54828e-05
1.05842e-06
-6.14359e-06
1.17096e-05
1.30792e-06
-7.13265e-06
7.10589e-06
1.51745e-06
-8.16438e-06
2.16372e-06
1.34911e-06
-8.64582e-06
-1.73502e-07
-6.40875e-06
4.14986e-05
-4.69053e-06
-2.92137e-06
4.46194e-05
-9.92882e-06
-7.04475e-06
4.79601e-05
-1.04072e-05
-8.90143e-06
5.04145e-05
-8.52988e-06
-9.2767e-06
5.1592e-05
-5.95982e-06
-8.92851e-06
5.15515e-05
-3.60565e-06
-8.36428e-06
5.05138e-05
-1.76783e-06
-7.87549e-06
4.86672e-05
-4.02142e-07
-7.61716e-06
4.60736e-05
6.71712e-07
-7.67027e-06
4.26844e-05
1.59139e-06
-8.08196e-06
3.83334e-05
2.48736e-06
-8.87737e-06
3.27478e-05
3.45221e-06
-1.0054e-05
2.55749e-05
4.53679e-06
-1.15459e-05
1.65314e-05
5.6821e-06
-1.30847e-05
6.17328e-06
6.13709e-06
-1.3584e-05
3.20201e-06
-9.27282e-06
6.22933e-05
-4.99811e-06
-2.41756e-06
6.24891e-05
-1.23302e-05
-7.1282e-06
6.31622e-05
-1.40265e-05
-9.81941e-06
6.36424e-05
-1.21346e-05
-1.06859e-05
6.34901e-05
-8.80781e-06
-1.04727e-05
6.25525e-05
-5.44511e-06
-9.83753e-06
6.08544e-05
-2.64539e-06
-9.20274e-06
5.84542e-05
-4.61785e-07
-8.79773e-06
5.53164e-05
1.34393e-06
-8.73702e-06
5.13247e-05
2.96234e-06
-9.08009e-06
4.6232e-05
4.62477e-06
-9.85315e-06
3.96683e-05
6.51262e-06
-1.10473e-05
3.11605e-05
8.75372e-06
-1.25803e-05
2.03028e-05
1.12709e-05
-1.41433e-05
7.65155e-06
1.28232e-05
-1.4521e-05
8.3829e-06
-9.6551e-06
8.01563e-05
-4.45369e-06
-1.98383e-06
7.7736e-05
-1.20469e-05
-6.73948e-06
7.52403e-05
-1.45575e-05
-9.9142e-06
7.28962e-05
-1.30935e-05
-1.11672e-05
7.06106e-05
-9.72429e-06
-1.10976e-05
6.82175e-05
-6.00981e-06
-1.04329e-05
6.55804e-05
-2.72935e-06
-9.69653e-06
6.25714e-05
-2.32399e-08
-9.17813e-06
5.90448e-05
2.32332e-06
-9.01829e-06
5.4773e-05
4.55531e-06
-9.27722e-06
4.94315e-05
6.97262e-06
-9.97573e-06
4.25758e-05
9.84537e-06
-1.10967e-05
3.36451e-05
1.33936e-05
-1.25488e-05
2.21183e-05
1.75525e-05
-1.40168e-05
8.42542e-06
2.05978e-05
-1.42923e-05
1.47693e-05
-9.43841e-06
9.48011e-05
-3.6032e-06
-1.72735e-06
9.06948e-05
-1.00164e-05
-6.42704e-06
8.56295e-05
-1.25544e-05
-9.89614e-06
8.06582e-05
-1.15319e-05
-1.14252e-05
7.6196e-05
-8.58501e-06
-1.14574e-05
7.22396e-05
-5.10892e-06
-1.07507e-05
6.85977e-05
-1.87073e-06
-9.90946e-06
6.49968e-05
9.79531e-07
-9.2773e-06
6.11812e-05
3.59513e-06
-9.01143e-06
5.68235e-05
6.26695e-06
-9.17078e-06
5.15294e-05
9.33718e-06
-9.76744e-06
4.47881e-05
1.31643e-05
-1.07755e-05
3.59387e-05
1.80972e-05
-1.20999e-05
2.42546e-05
2.41861e-05
-1.34345e-05
9.75866e-06
2.94061e-05
-1.36208e-05
2.2896e-05
-8.96562e-06
0.000105893
-2.64557e-06
-1.59012e-06
0.00010081
-6.97626e-06
-6.24225e-06
9.39667e-05
-8.80463e-06
-9.89811e-06
8.69872e-05
-8.04229e-06
-1.16135e-05
8.07538e-05
-5.76042e-06
-1.17065e-05
7.54827e-05
-2.95441e-06
-1.09461e-05
7.10124e-05
-2.09047e-07
-9.99683e-06
6.69732e-05
2.43107e-06
-9.2466e-06
6.30364e-05
5.03307e-06
-8.86582e-06
5.8811e-05
7.92765e-06
-8.90866e-06
5.38633e-05
1.148e-05
-9.37715e-06
4.76454e-05
1.6139e-05
-1.02368e-05
3.93994e-05
2.24454e-05
-1.13922e-05
2.8072e-05
3.07885e-05
-1.2561e-05
1.27503e-05
3.94172e-05
-1.26646e-05
3.4415e-05
-8.28438e-06
0.000113291
-1.62776e-06
-1.52197e-06
0.000107667
-3.38069e-06
-6.15039e-06
9.97332e-05
-3.9907e-06
-9.91587e-06
9.14569e-05
-3.30972e-06
-1.17367e-05
8.40508e-05
-1.81504e-06
-1.18509e-05
7.79476e-05
3.33771e-09
-1.1032e-05
7.29334e-05
2.0008e-06
-9.98153e-06
6.87319e-05
4.08293e-06
-9.12058e-06
6.49106e-05
6.42932e-06
-8.62372e-06
6.10787e-05
9.31118e-06
-8.5381e-06
5.68237e-05
1.31012e-05
-8.8547e-06
5.16427e-05
1.83225e-05
-9.52926e-06
4.47881e-05
2.57476e-05
-1.04659e-05
3.49119e-05
3.6402e-05
-1.14199e-05
1.95185e-05
5.00353e-05
-1.14514e-05
5.3137e-05
-7.40725e-06
0.000116954
-1.49403e-06
-5.4468e-07
0.000111055
-6.11968e-06
4.90403e-07
0.000102604
-9.9297e-06
1.32574e-06
9.37396e-05
-1.17788e-05
1.98935e-06
8.58444e-05
-1.18739e-05
2.60755e-06
7.93845e-05
-1.09924e-05
3.32826e-06
7.43045e-05
-9.8624e-06
4.31061e-06
7.02327e-05
-8.90849e-06
5.66758e-06
6.67786e-05
-8.30386e-06
7.5554e-06
6.35939e-05
-8.08678e-06
1.01898e-05
6.03714e-05
-8.23604e-06
1.3896e-05
5.68042e-05
-8.69539e-06
1.91903e-05
5.24616e-05
-9.36244e-06
2.69675e-05
4.62893e-05
-1.00243e-05
3.89116e-05
3.44911e-05
-9.98607e-06
5.77652e-05
-6.23709e-06
8.73438e-05
1.68075e-05
-2.80603e-06
-1.63892e-06
2.02384e-05
-4.83707e-06
-3.01306e-06
2.32571e-05
-4.61491e-06
-3.44737e-06
2.52223e-05
-3.54698e-06
-3.44501e-06
2.60876e-05
-2.35862e-06
-3.27452e-06
2.60611e-05
-1.37358e-06
-3.08453e-06
2.53767e-05
-6.54513e-07
-2.9542e-06
2.41923e-05
-1.4507e-07
-2.92493e-06
2.25682e-05
2.39602e-07
-3.0184e-06
2.05e-05
5.54507e-07
-3.24696e-06
1.79284e-05
8.44985e-07
-3.61456e-06
1.47649e-05
1.13344e-06
-4.11351e-06
1.09227e-05
1.42107e-06
-4.71149e-06
6.39502e-06
1.67063e-06
-5.30737e-06
1.76346e-06
1.51277e-06
-5.52703e-06
-4.40313e-08
-4.04153e-06
4.24619e-05
-4.77069e-06
-1.97528e-06
4.55487e-05
-1.01889e-05
-4.77969e-06
4.88416e-05
-1.07492e-05
-6.05996e-06
5.12112e-05
-8.85796e-06
-6.33536e-06
5.22546e-05
-6.21771e-06
-6.11285e-06
5.20308e-05
-3.77733e-06
-5.73665e-06
5.07682e-05
-1.86132e-06
-5.40609e-06
4.86644e-05
-4.31589e-07
-5.22691e-06
4.5788e-05
6.98355e-07
-5.25256e-06
4.20997e-05
1.67178e-06
-5.51095e-06
3.74519e-05
2.62707e-06
-6.0117e-06
3.1612e-05
3.66128e-06
-6.74191e-06
2.43065e-05
4.82401e-06
-7.64334e-06
1.53835e-05
6.03734e-06
-8.52843e-06
5.52595e-06
6.49423e-06
-8.70792e-06
3.44639e-06
-5.85855e-06
6.38065e-05
-5.06452e-06
-1.62155e-06
6.39137e-05
-1.26116e-05
-4.81272e-06
6.44554e-05
-1.44491e-05
-6.66125e-06
6.47644e-05
-1.2574e-05
-7.27886e-06
6.44027e-05
-9.17202e-06
-7.15675e-06
6.32196e-05
-5.69386e-06
-6.73784e-06
6.12437e-05
-2.77753e-06
-6.31064e-06
5.85392e-05
-4.92224e-07
-6.03259e-06
5.5074e-05
1.40697e-06
-5.98041e-06
5.07405e-05
3.11585e-06
-6.1907e-06
4.53109e-05
4.87688e-06
-6.67336e-06
3.84592e-05
6.87609e-06
-7.41041e-06
2.97991e-05
9.23547e-06
-8.33166e-06
1.90674e-05
1.18475e-05
-9.22171e-06
6.95282e-06
1.3396e-05
-9.30819e-06
8.77163e-06
-6.09307e-06
8.21455e-05
-4.50856e-06
-1.32226e-06
7.9621e-05
-1.22944e-05
-4.53221e-06
7.69312e-05
-1.49669e-05
-6.70653e-06
7.43283e-05
-1.35464e-05
-7.59194e-06
7.17479e-05
-1.01145e-05
-7.57477e-06
6.90411e-05
-6.2793e-06
-7.1407e-06
6.60783e-05
-2.8647e-06
-6.64653e-06
6.27314e-05
-3.16641e-08
-6.2918e-06
5.88576e-05
2.43472e-06
-6.17222e-06
5.42324e-05
4.78868e-06
-6.32489e-06
4.85487e-05
7.34104e-06
-6.75618e-06
4.14036e-05
1.03672e-05
-7.44261e-06
3.23198e-05
1.40785e-05
-8.30808e-06
2.09119e-05
1.83716e-05
-9.13304e-06
7.73548e-06
2.143e-05
-9.14985e-06
1.53614e-05
-5.94156e-06
9.71706e-05
-3.65331e-06
-1.14665e-06
9.2969e-05
-1.02105e-05
-4.30932e-06
8.76779e-05
-1.28923e-05
-6.67973e-06
8.23817e-05
-1.19198e-05
-7.75568e-06
7.75484e-05
-8.92499e-06
-7.81358e-06
7.32128e-05
-5.33917e-06
-7.35516e-06
6.9199e-05
-1.96881e-06
-6.79153e-06
6.52341e-05
1.01578e-06
-6.35988e-06
6.10601e-05
3.76549e-06
-6.16815e-06
5.63499e-05
6.58126e-06
-6.25321e-06
5.07226e-05
9.8168e-06
-6.61585e-06
4.37043e-05
1.3837e-05
-7.22704e-06
3.47095e-05
1.89819e-05
-8.00847e-06
2.31334e-05
2.52603e-05
-8.747e-06
9.11027e-06
3.05399e-05
-8.70755e-06
2.37549e-05
-5.6294e-06
0.000108542
-2.69351e-06
-1.05309e-06
0.000103378
-7.11218e-06
-4.17661e-06
9.62977e-05
-9.03949e-06
-6.6702e-06
8.89518e-05
-8.31292e-06
-7.87437e-06
8.22913e-05
-5.99294e-06
-7.97805e-06
7.65897e-05
-3.09705e-06
-7.4866e-06
7.17117e-05
-2.36548e-07
-6.85111e-06
6.72905e-05
2.53005e-06
-6.33963e-06
6.29932e-05
5.26705e-06
-6.07009e-06
5.84262e-05
8.31649e-06
-6.07687e-06
5.31652e-05
1.20552e-05
-6.35455e-06
4.66943e-05
1.69401e-05
-6.86903e-06
3.83205e-05
2.35061e-05
-7.54261e-06
2.70932e-05
3.21045e-05
-8.17799e-06
1.21864e-05
4.08729e-05
-8.09071e-06
3.56082e-05
-5.19205e-06
0.000116125
-1.67247e-06
-1.0067e-06
0.000110429
-3.45729e-06
-4.10961e-06
0.000102255
-4.10642e-06
-6.67502e-06
9.35895e-05
-3.43239e-06
-7.95164e-06
8.57219e-05
-1.90372e-06
-8.07252e-06
7.91587e-05
-2.22016e-08
-7.54362e-06
7.37152e-05
2.06596e-06
-6.84056e-06
6.91269e-05
4.25214e-06
-6.25441e-06
6.49543e-05
6.72278e-06
-5.90679e-06
6.08022e-05
9.7586e-06
-5.82813e-06
5.62655e-05
1.37437e-05
-6.00654e-06
5.0869e-05
1.92098e-05
-6.40256e-06
4.39205e-05
2.69284e-05
-6.93967e-06
3.41525e-05
3.78984e-05
-7.4458e-06
1.91226e-05
5.17733e-05
-7.32191e-06
5.47627e-05
-4.63937e-06
0.000119876
-9.87497e-07
-5.83273e-07
0.000113911
-4.08621e-06
4.74431e-07
0.000105219
-6.68067e-06
1.33685e-06
9.59564e-05
-7.97693e-06
2.02799e-06
8.75883e-05
-8.08623e-06
2.6767e-06
8.06549e-05
-7.51635e-06
3.43527e-06
7.51462e-05
-6.75938e-06
4.47159e-06
7.0697e-05
-6.11051e-06