/*--------------------------------*- C++ -*----------------------------------*\
| =========                 |                                                 |
| \\      /  F ield         | foam-extend: Open Source CFD                    |
|  \\    /   O peration     | Version:     3.1                                |
|   \\  /    A nd           | Web:         http://www.extend-project.de       |
|    \\/     M anipulation  |                                                 |
\*---------------------------------------------------------------------------*/
FoamFile
{
    version     2.0;
    format      ascii;
    class       pointVectorField;
    location    "1";
    object      pointMotionU;
}
// * * * * * * * * * * * * * * * * * * * * * * * * * * * * * * * * * * * * * //

dimensions      [0 1 -1 0 0 0 0];

internalField   nonuniform List<vector> 
16859
(
(0 0 0)
(0 0 0)
(0 0 0)
(0 0 0)
(0 0 0)
(0 0 0)
(0 0 0)
(0 0 0)
(0 0 0)
(0 0 0)
(0 0 0)
(0 0 0)
(0 0 0)
(0 0 0)
(0 0 0)
(0 0 0)
(0 0 0)
(0 0 0)
(-1.1719e-10 4.80246e-12 -8.84202e-13)
(-2.26678e-10 9.26394e-12 -1.74133e-12)
(-3.28616e-10 1.33326e-11 -2.596e-12)
(-4.26815e-10 1.70385e-11 -3.49057e-12)
(-5.25068e-10 2.02938e-11 -4.455e-12)
(-6.27126e-10 2.28172e-11 -5.50054e-12)
(-7.36983e-10 2.40242e-11 -6.61143e-12)
(-8.59152e-10 2.28285e-11 -7.73151e-12)
(-9.98931e-10 1.73081e-11 -8.74947e-12)
(-1.16246e-09 4.14954e-12 -9.49486e-12)
(-1.3567e-09 -2.22158e-11 -9.79211e-12)
(-1.58973e-09 -7.0706e-11 -9.69481e-12)
(-1.86662e-09 -1.54352e-10 -1.01081e-11)
(-2.18048e-09 -2.87385e-10 -1.40598e-11)
(-2.48279e-09 -4.59586e-10 -2.76839e-11)
(-3.40754e-09 -1.52787e-09 -2.99213e-10)
(0 0 0)
(-2.31255e-10 9.50375e-12 -1.74851e-12)
(-4.469e-10 1.83476e-11 -3.44205e-12)
(-6.47082e-10 2.64594e-11 -5.12989e-12)
(-8.39381e-10 3.39525e-11 -6.89857e-12)
(-1.03101e-09 4.07272e-11 -8.80859e-12)
(-1.22896e-09 4.63612e-11 -1.08838e-11)
(-1.44065e-09 4.99476e-11 -1.30954e-11)
(-1.6744e-09 4.98042e-11 -1.53299e-11)
(-1.93958e-09 4.29935e-11 -1.73406e-11)
(-2.24678e-09 2.45847e-11 -1.86895e-11)
(-2.60792e-09 -1.34132e-11 -1.87088e-11)
(-3.03498e-09 -8.30346e-11 -1.65703e-11)
(-3.53315e-09 -1.99533e-10 -1.16246e-11)
(-4.08285e-09 -3.74111e-10 -4.21903e-12)
(-4.5947e-09 -5.81024e-10 1.85725e-12)
(-5.57123e-09 -1.3135e-09 1.5213e-10)
(0 0 0)
(-3.39448e-10 1.39898e-11 -2.57488e-12)
(-6.55178e-10 2.70455e-11 -5.06665e-12)
(-9.47275e-10 3.91344e-11 -7.551e-12)
(-1.22665e-09 5.05227e-11 -1.0159e-11)
(-1.50318e-09 6.12129e-11 -1.29826e-11)
(-1.78637e-09 7.08573e-11 -1.60639e-11)
(-2.08607e-09 7.86133e-11 -1.93698e-11)
(-2.41298e-09 8.28969e-11 -2.27409e-11)
(-2.77872e-09 8.10029e-11 -2.58004e-11)
(-3.19604e-09 6.8588e-11 -2.78097e-11)
(-3.67848e-09 3.90585e-11 -2.74488e-11)
(-4.23726e-09 -1.67015e-11 -2.25067e-11)
(-4.87376e-09 -1.08034e-10 -9.66983e-12)
(-5.55829e-09 -2.36221e-10 1.4943e-11)
(-6.18317e-09 -3.73401e-10 5.03829e-11)
(-7.33805e-09 -7.95193e-10 3.12691e-10)
(0 0 0)
(-4.39545e-10 1.81239e-11 -3.34762e-12)
(-8.47565e-10 3.51147e-11 -6.58757e-12)
(-1.22373e-09 5.10313e-11 -9.82172e-12)
(-1.58136e-09 6.63463e-11 -1.32234e-11)
(-1.93226e-09 8.12774e-11 -1.69188e-11)
(-2.28758e-09 9.57496e-11 -2.09769e-11)
(-2.65843e-09 1.09324e-10 -2.53785e-11)
(-3.05622e-09 1.21089e-10 -2.99523e-11)
(-3.49285e-09 1.29525e-10 -3.42554e-11)
(-3.98047e-09 1.324e-10 -3.73647e-11)
(-4.53061e-09 1.268e-10 -3.75236e-11)
(-5.15112e-09 1.09505e-10 -3.15783e-11)
(-5.83837e-09 7.86299e-11 -1.44124e-11)
(-6.55883e-09 3.81608e-11 2.02513e-11)
(-7.20917e-09 6.16493e-13 7.21223e-11)
(-8.37492e-09 -9.59925e-11 4.03375e-10)
(0 0 0)
(-5.30516e-10 2.17716e-11 -4.0581e-12)
(-1.02204e-09 4.22847e-11 -7.98714e-12)
(-1.47329e-09 6.17228e-11 -1.1913e-11)
(-1.89929e-09 8.08036e-11 -1.605e-11)
(-2.31311e-09 1.00031e-10 -2.05621e-11)
(-2.72667e-09 1.19715e-10 -2.5554e-11)
(-3.1512e-09 1.39995e-10 -3.10423e-11)
(-3.59749e-09 1.60893e-10 -3.68917e-11)
(-4.07576e-09 1.82427e-10 -4.2694e-11)
(-4.59515e-09 2.04887e-10 -4.75521e-11)
(-5.16235e-09 2.29337e-10 -4.97107e-11)
(-5.77898e-09 2.58372e-10 -4.59712e-11)
(-6.43559e-09 2.96568e-10 -3.10034e-11)
(-7.09778e-09 3.49003e-10 1.95943e-12)
(-7.68106e-09 4.07324e-10 5.39804e-11)
(-8.72231e-09 5.77769e-10 3.89584e-10)
(0 0 0)
(-6.11546e-10 2.47697e-11 -4.69712e-12)
(-1.17692e-09 4.82165e-11 -9.2453e-12)
(-1.69356e-09 7.06656e-11 -1.37924e-11)
(-2.17762e-09 9.30853e-11 -1.85919e-11)
(-2.64282e-09 1.16271e-10 -2.38455e-11)
(-3.1011e-09 1.40924e-10 -2.96996e-11)
(-3.56299e-09 1.67752e-10 -3.62239e-11)
(-4.03771e-09 1.9763e-10 -4.33589e-11)
(-4.53269e-09 2.31891e-10 -5.0819e-11)
(-5.05268e-09 2.72797e-10 -5.79222e-11)
(-5.59792e-09 3.24264e-10 -6.3313e-11)
(-6.16139e-09 3.92709e-10 -6.4552e-11)
(-6.7249e-09 4.87112e-10 -5.76551e-11)
(-7.24961e-09 6.13363e-10 -3.75837e-11)
(-7.67254e-09 7.48541e-10 -2.73013e-12)
(-8.39207e-09 1.1531e-09 2.70773e-10)
(0 0 0)
(-6.82059e-10 2.6948e-11 -5.2559e-12)
(-1.31124e-09 5.25622e-11 -1.03446e-11)
(-1.88345e-09 7.7304e-11 -1.54323e-11)
(-2.41548e-09 1.02356e-10 -2.08067e-11)
(-2.92113e-09 1.28756e-10 -2.67039e-11)
(-3.41189e-09 1.57516e-10 -3.33116e-11)
(-3.89718e-09 1.89753e-10 -4.0757e-11)
(-4.38421e-09 2.26899e-10 -4.90722e-11)
(-4.87739e-09 2.7101e-10 -5.81289e-11)
(-5.37702e-09 3.25233e-10 -6.75341e-11)
(-5.87722e-09 3.94427e-10 -7.648e-11)
(-6.36268e-09 4.85796e-10 -8.35741e-11)
(-6.80492e-09 6.08924e-10 -8.67748e-11)
(-7.15548e-09 7.7023e-10 -8.3925e-11)
(-7.35808e-09 9.47133e-10 -7.48401e-11)
(-7.38066e-09 1.58535e-09 1.99642e-11)
(0 0 0)
(-7.41888e-10 2.81565e-11 -5.72872e-12)
(-1.42485e-09 5.50149e-11 -1.12731e-11)
(-2.04309e-09 8.1147e-11 -1.68127e-11)
(-2.61358e-09 1.07883e-10 -2.26621e-11)
(-3.14986e-09 1.36422e-10 -2.90845e-11)
(-3.66269e-09 1.67953e-10 -3.63014e-11)
(-4.16026e-09 2.03787e-10 -4.44885e-11)
(-4.6479e-09 2.45536e-10 -5.37558e-11)
(-5.12747e-09 2.95326e-10 -6.41098e-11)
(-5.59601e-09 3.5607e-10 -7.53975e-11)
(-6.0437e-09 4.31679e-10 -8.72395e-11)
(-6.451e-09 5.26936e-10 -9.89909e-11)
(-6.78537e-09 6.46223e-10 -1.09837e-10)
(-6.99881e-09 7.87453e-10 -1.19195e-10)
(-7.04218e-09 9.23792e-10 -1.27943e-10)
(-5.88324e-09 1.70121e-09 -1.74928e-10)
(0 0 0)
(0 0 0)
(0 0 0)
(0 0 0)
(0 0 0)
(0 0 0)
(0 0 0)
(0 0 0)
(0 0 0)
(0 0 0)
(0 0 0)
(0 0 0)
(0 0 0)
(0 0 0)
(0 0 0)
(0 0 0)
(0 0 0)
(0 0 0)
(-1.19436e-10 4.94217e-12 -8.82689e-13)
(-2.31082e-10 9.52686e-12 -1.74193e-12)
(-3.35216e-10 1.36952e-11 -2.60707e-12)
(-4.35869e-10 1.74669e-11 -3.52702e-12)
(-5.37042e-10 2.07271e-11 -4.54171e-12)
(-6.42748e-10 2.31408e-11 -5.67786e-12)
(-7.57132e-10 2.40163e-11 -6.94152e-12)
(-8.84925e-10 2.20693e-11 -8.30973e-12)
(-1.03198e-09 1.50168e-11 -9.72027e-12)
(-1.20493e-09 -1.13213e-12 -1.10632e-11)
(-1.41111e-09 -3.32183e-11 -1.22234e-11)
(-1.65904e-09 -9.25487e-11 -1.32764e-11)
(-1.95402e-09 -1.96567e-10 -1.49772e-11)
(-2.28825e-09 -3.66604e-10 -1.9641e-11)
(-2.60172e-09 -5.94373e-10 -3.0425e-11)
(-3.35202e-09 -1.51659e-09 -1.21973e-10)
(0 0 0)
(-2.35615e-10 9.78595e-12 -1.74438e-12)
(-4.55426e-10 1.88816e-11 -3.44078e-12)
(-6.59824e-10 2.72048e-11 -5.14753e-12)
(-8.56766e-10 3.48542e-11 -6.96338e-12)
(-1.05384e-09 4.1688e-11 -8.96766e-12)
(-1.25838e-09 4.7194e-11 -1.12126e-11)
(-1.47833e-09 5.03049e-11 -1.37142e-11)
(-1.72278e-09 4.90443e-11 -1.64275e-11)
(-2.00163e-09 3.99185e-11 -1.91987e-11)
(-2.32593e-09 1.70023e-11 -2.1709e-11)
(-2.70813e-09 -2.94629e-11 -2.34246e-11)
(-3.16035e-09 -1.14598e-10 -2.35979e-11)
(-3.6863e-09 -2.58706e-10 -2.14093e-11)
(-4.26043e-09 -4.79648e-10 -1.63166e-11)
(-4.76842e-09 -7.50974e-10 -9.10644e-12)
(-5.43791e-09 -1.34672e-09 3.0983e-11)
(0 0 0)
(-3.45681e-10 1.44177e-11 -2.56633e-12)
(-6.67364e-10 2.78631e-11 -5.05961e-12)
(-9.65446e-10 4.02965e-11 -7.56804e-12)
(-1.25133e-09 5.19757e-11 -1.02396e-11)
(-1.53541e-09 6.28643e-11 -1.31924e-11)
(-1.82764e-09 7.25272e-11 -1.65085e-11)
(-2.13857e-09 7.99658e-11 -2.02191e-11)
(-2.47976e-09 8.33178e-11 -2.42618e-11)
(-2.86335e-09 7.93725e-11 -2.83945e-11)
(-3.30245e-09 6.29358e-11 -3.20593e-11)
(-3.8109e-09 2.60128e-11 -3.41532e-11)
(-4.39912e-09 -4.27328e-11 -3.26462e-11)
(-5.06489e-09 -1.55705e-10 -2.4156e-11)
(-5.76794e-09 -3.17145e-10 -4.06034e-12)
(-6.36701e-09 -4.97033e-10 2.84919e-11)
(-7.14749e-09 -8.09965e-10 1.22203e-10)
(0 0 0)
(-4.47375e-10 1.8699e-11 -3.33264e-12)
(-8.62867e-10 3.62255e-11 -6.57018e-12)
(-1.24648e-09 5.26405e-11 -9.82936e-12)
(-1.61212e-09 6.84244e-11 -1.33039e-11)
(-1.97216e-09 8.37772e-11 -1.71515e-11)
(-2.33835e-09 9.85718e-11 -2.14908e-11)
(-2.72239e-09 1.12269e-10 -2.638e-11)
(-3.13636e-09 1.23784e-10 -3.17659e-11)
(-3.59263e-09 1.3132e-10 -3.73771e-11)
(-4.10361e-09 1.32231e-10 -4.25283e-11)
(-4.68055e-09 1.23036e-10 -4.57627e-11)
(-5.32967e-09 9.97996e-11 -4.42307e-11)
(-6.04265e-09 5.99725e-11 -3.29166e-11)
(-6.77417e-09 7.32959e-12 -5.00163e-12)
(-7.38667e-09 -4.52109e-11 4.0243e-11)
(-8.18126e-09 -9.99851e-11 1.65305e-10)
(0 0 0)
(-5.39657e-10 2.249e-11 -4.03459e-12)
(-1.03986e-09 4.36855e-11 -7.95435e-12)
(-1.49966e-09 6.3786e-11 -1.19014e-11)
(-1.93472e-09 8.35397e-11 -1.61124e-11)
(-2.3587e-09 1.03464e-10 -2.07858e-11)
(-2.7841e-09 1.23869e-10 -2.60812e-11)
(-3.22266e-09 1.4488e-10 -3.21015e-11)
(-3.68563e-09 1.66497e-10 -3.88429e-11)
(-4.1835e-09 1.8874e-10 -4.60927e-11)
(-4.72526e-09 2.11985e-10 -5.32321e-11)
(-5.3167e-09 2.3761e-10 -5.88752e-11)
(-5.95716e-09 2.68997e-10 -6.02484e-11)
(-6.63208e-09 3.12268e-10 -5.23347e-11)
(-7.29646e-09 3.74545e-10 -2.80963e-11)
(-7.83759e-09 4.4654e-10 1.41253e-11)
(-8.55694e-09 5.97804e-10 1.40119e-10)
(0 0 0)
(-6.21687e-10 2.56183e-11 -4.66307e-12)
(-1.19663e-09 4.98835e-11 -9.19236e-12)
(-1.72257e-09 7.31535e-11 -1.37522e-11)
(-2.21632e-09 9.64514e-11 -1.86187e-11)
(-2.69217e-09 1.20621e-10 -2.40286e-11)
(-3.16256e-09 1.46416e-10 -3.0185e-11)
(-3.63843e-09 1.74613e-10 -3.72458e-11)
(-4.12924e-09 2.06209e-10 -4.52873e-11)
(-4.64238e-09 2.42766e-10 -5.4226e-11)
(-5.182e-09 2.87021e-10 -6.36726e-11)
(-5.74681e-09 3.4385e-10 -7.26736e-11)
(-6.32673e-09 4.21569e-10 -7.9294e-11)
(-6.89794e-09 5.32597e-10 -8.00582e-11)
(-7.41251e-09 6.87671e-10 -7.00127e-11)
(-7.79064e-09 8.64178e-10 -4.70215e-11)
(-8.30653e-09 1.2163e-09 3.60629e-11)
(0 0 0)
(-6.929e-10 2.79026e-11 -5.20986e-12)
(-1.33224e-09 5.44486e-11 -1.02677e-11)
(-1.91419e-09 8.01476e-11 -1.53557e-11)
(-2.45618e-09 1.06259e-10 -2.0783e-11)
(-2.97253e-09 1.33899e-10 -2.68193e-11)
(-3.47516e-09 1.64173e-10 -3.37066e-11)
(-3.97375e-09 1.98331e-10 -4.1657e-11)
(-4.47557e-09 2.38016e-10 -5.0831e-11)
(-4.98469e-09 2.85644e-10 -6.12917e-11)
(-5.50044e-09 3.45012e-10 -7.29208e-11)
(-6.01486e-09 4.22189e-10 -8.52875e-11)
(-6.50888e-09 5.2666e-10 -9.74801e-11)
(-6.94744e-09 6.72326e-10 -1.07986e-10)
(-7.27236e-09 8.72979e-10 -1.14888e-10)
(-7.41952e-09 1.11148e-09 -1.17076e-10)
(-7.3879e-09 1.67635e-09 -1.37289e-10)
(0 0 0)
(-7.5316e-10 2.91829e-11 -5.6698e-12)
(-1.44661e-09 5.70524e-11 -1.11699e-11)
(-2.07477e-09 8.42409e-11 -1.66945e-11)
(-2.65519e-09 1.12172e-10 -2.25773e-11)
(-3.20192e-09 1.42143e-10 -2.91121e-11)
(-3.72603e-09 1.75462e-10 -3.65694e-11)
(-4.23586e-09 2.13607e-10 -4.52006e-11)
(-4.73666e-09 2.58429e-10 -5.52294e-11)
(-5.22974e-09 3.12439e-10 -6.68275e-11)
(-5.71098e-09 3.79171e-10 -8.00717e-11)
(-6.1683e-09 4.63578e-10 -9.48814e-11)
(-6.5782e-09 5.72209e-10 -1.10953e-10)
(-6.90167e-09 7.12417e-10 -1.27745e-10)
(-7.08144e-09 8.86559e-10 -1.44513e-10)
(-7.06167e-09 1.0708e-09 -1.606e-10)
(-5.93454e-09 1.78493e-09 -2.25748e-10)
(0 0 0)
(0 0 0)
(0 0 0)
(0 0 0)
(0 0 0)
(0 0 0)
(0 0 0)
(0 0 0)
(0 0 0)
(0 0 0)
(0 0 0)
(0 0 0)
(0 0 0)
(0 0 0)
(0 0 0)
(0 0 0)
(0 0 0)
(0 0 0)
(-1.21476e-10 5.06609e-12 -8.4795e-13)
(-2.35047e-10 9.75732e-12 -1.67715e-12)
(-3.4115e-10 1.40091e-11 -2.52141e-12)
(-4.44057e-10 1.7833e-11 -3.43564e-12)
(-5.47817e-10 2.10841e-11 -4.46929e-12)
(-6.56593e-10 2.33788e-11 -5.66751e-12)
(-7.74767e-10 2.39409e-11 -7.06816e-12)
(-9.07204e-10 2.13386e-11 -8.70005e-12)
(-1.05981e-09 1.30373e-11 -1.0584e-11)
(-1.2394e-09 -5.35393e-12 -1.27402e-11)
(-1.45309e-09 -4.12325e-11 -1.52355e-11)
(-1.70831e-09 -1.06457e-10 -1.8353e-11)
(-2.00792e-09 -2.18167e-10 -2.29144e-11)
(-2.33927e-09 -3.93963e-10 -3.05711e-11)
(-2.64027e-09 -6.16884e-10 -4.20412e-11)
(-3.40261e-09 -1.4938e-09 -9.93049e-11)
(0 0 0)
(-2.39569e-10 1.00363e-11 -1.67454e-12)
(-4.63061e-10 1.93487e-11 -3.31006e-12)
(-6.71224e-10 2.78497e-11 -4.97366e-12)
(-8.72274e-10 3.56189e-11 -6.77376e-12)
(-1.07404e-09 4.24725e-11 -8.80892e-12)
(-1.28428e-09 4.78253e-11 -1.11677e-11)
(-1.51127e-09 5.04715e-11 -1.39267e-11)
(-1.7644e-09 4.82024e-11 -1.71437e-11)
(-2.05393e-09 3.71431e-11 -2.08351e-11)
(-2.39076e-09 1.07714e-11 -2.49535e-11)
(-2.78643e-09 -4.14513e-11 -2.93985e-11)
(-3.251e-09 -1.35261e-10 -3.41056e-11)
(-3.78305e-09 -2.90081e-10 -3.92837e-11)
(-4.34744e-09 -5.18072e-10 -4.57525e-11)
(-4.82671e-09 -7.81461e-10 -5.41924e-11)
(-5.4727e-09 -1.3115e-09 -9.14996e-11)
(0 0 0)
(-3.51272e-10 1.47954e-11 -2.46071e-12)
(-6.78249e-10 2.85792e-11 -4.86201e-12)
(-9.81723e-10 4.13069e-11 -7.30328e-12)
(-1.27339e-09 5.32175e-11 -9.94535e-12)
(-1.56405e-09 6.42366e-11 -1.29334e-11)
(-1.86419e-09 7.38535e-11 -1.63995e-11)
(-2.18476e-09 8.09274e-11 -2.04602e-11)
(-2.53766e-09 8.33637e-11 -2.51996e-11)
(-2.93541e-09 7.75905e-11 -3.06233e-11)
(-3.39071e-09 5.78835e-11 -3.65859e-11)
(-3.91606e-09 1.56138e-11 -4.2693e-11)
(-4.51884e-09 -6.09171e-11 -4.81705e-11)
(-5.18977e-09 -1.83e-10 -5.18827e-11)
(-5.87637e-09 -3.5003e-10 -5.29448e-11)
(-6.43459e-09 -5.23448e-10 -5.24633e-11)
(-7.16509e-09 -7.94717e-10 -7.84189e-11)
(0 0 0)
(-4.54377e-10 1.92071e-11 -3.19151e-12)
(-8.76596e-10 3.72042e-11 -6.30562e-12)
(-1.26696e-09 5.40494e-11 -9.47111e-12)
(-1.63979e-09 7.02197e-11 -1.28972e-11)
(-2.00796e-09 8.58918e-11 -1.67734e-11)
(-2.38368e-09 1.00883e-10 -2.12772e-11)
(-2.77909e-09 1.14553e-10 -2.65699e-11)
(-3.20658e-09 1.25655e-10 -3.27751e-11)
(-3.67866e-09 1.32158e-10 -3.99246e-11)
(-4.20725e-09 1.31114e-10 -4.7852e-11)
(-4.80208e-09 1.18737e-10 -5.60101e-11)
(-5.46576e-09 9.09969e-11 -6.32013e-11)
(-6.18246e-09 4.60033e-11 -6.74193e-11)
(-6.89452e-09 -1.05008e-11 -6.66546e-11)
(-7.46251e-09 -6.2013e-11 -6.21125e-11)
(-8.20111e-09 -1.06697e-10 -7.7241e-11)
(0 0 0)
(-5.47864e-10 2.31283e-11 -3.85859e-12)
(-1.05591e-09 4.49263e-11 -7.62258e-12)
(-1.52346e-09 6.56014e-11 -1.14465e-11)
(-1.9667e-09 8.59194e-11 -1.55834e-11)
(-2.39979e-09 1.06399e-10 -2.02651e-11)
(-2.83565e-09 1.27331e-10 -2.57144e-11)
(-3.28642e-09 1.48801e-10 -3.2145e-11)
(-3.76356e-09 1.70752e-10 -3.97445e-11)
(-4.27752e-09 1.93137e-10 -4.86275e-11)
(-4.83666e-09 2.16286e-10 -5.87377e-11)
(-5.44512e-09 2.41601e-10 -6.96715e-11)
(-6.09873e-09 2.72557e-10 -8.04181e-11)
(-6.77613e-09 3.15137e-10 -8.9129e-11)
(-7.42236e-09 3.75066e-10 -9.36133e-11)
(-7.92431e-09 4.41311e-10 -9.37729e-11)
(-8.58786e-09 5.62129e-10 -1.10106e-10)
(0 0 0)
(-6.30803e-10 2.63746e-11 -4.45293e-12)
(-1.2144e-09 5.1365e-11 -8.79397e-12)
(-1.74879e-09 7.53511e-11 -1.31994e-11)
(-2.25133e-09 9.93941e-11 -1.79602e-11)
(-2.73677e-09 1.24367e-10 -2.3346e-11)
(-3.21796e-09 1.51045e-10 -2.96216e-11)
(-3.70614e-09 1.80227e-10 -3.70547e-11)
(-4.21086e-09 2.12948e-10 -4.59093e-11)
(-4.73932e-09 2.50846e-10 -5.64203e-11)
(-5.29489e-09 2.96805e-10 -6.87362e-11)
(-5.8746e-09 3.55945e-10 -8.28219e-11)
(-6.46529e-09 4.36772e-10 -9.83323e-11)
(-7.03783e-09 5.5096e-10 -1.14528e-10)
(-7.53859e-09 7.05327e-10 -1.30364e-10)
(-7.89087e-09 8.70774e-10 -1.4443e-10)
(-8.39138e-09 1.1544e-09 -1.88372e-10)
(0 0 0)
(-7.02649e-10 2.87554e-11 -4.96719e-12)
(-1.35118e-09 5.61295e-11 -9.8051e-12)
(-1.942e-09 8.26673e-11 -1.47064e-11)
(-2.49305e-09 1.09685e-10 -1.99924e-11)
(-3.0191e-09 1.38354e-10 -2.59626e-11)
(-3.5324e-09 1.69832e-10 -3.29156e-11)
(-4.04285e-09 2.05442e-10 -4.11634e-11)
(-4.55772e-09 2.46927e-10 -5.10365e-11)
(-5.08074e-09 2.96857e-10 -6.28792e-11)
(-5.61039e-09 3.59267e-10 -7.70345e-11)
(-6.13705e-09 4.40523e-10 -9.38214e-11)
(-6.63902e-09 5.50269e-10 -1.13539e-10)
(-7.07765e-09 7.01382e-10 -1.36561e-10)
(-7.39329e-09 9.02821e-10 -1.63241e-10)
(-7.52999e-09 1.12798e-09 -1.91789e-10)
(-7.55422e-09 1.60277e-09 -2.94802e-10)
(0 0 0)
(-7.63296e-10 3.01016e-11 -5.39701e-12)
(-1.46624e-09 5.88721e-11 -1.06472e-11)
(-2.10344e-09 8.69899e-11 -1.59533e-11)
(-2.69295e-09 1.15951e-10 -2.16578e-11)
(-3.24919e-09 1.47122e-10 -2.80791e-11)
(-3.78353e-09 1.81891e-10 -3.55362e-11)
(-4.30445e-09 2.21831e-10 -4.43661e-11)
(-4.8171e-09 2.68919e-10 -5.49347e-11)
(-5.32242e-09 3.25839e-10 -6.7643e-11)
(-5.81539e-09 3.96343e-10 -8.29265e-11)
(-6.28245e-09 4.85599e-10 -1.01245e-10)
(-6.69794e-09 6.0011e-10 -1.2306e-10)
(-7.02054e-09 7.46048e-10 -1.48762e-10)
(-7.1936e-09 9.21463e-10 -1.78105e-10)
(-7.17077e-09 1.09384e-09 -2.08213e-10)
(-6.15751e-09 1.70321e-09 -2.88969e-10)
(0 0 0)
(0 0 0)
(0 0 0)
(0 0 0)
(0 0 0)
(0 0 0)
(0 0 0)
(0 0 0)
(0 0 0)
(0 0 0)
(0 0 0)
(0 0 0)
(0 0 0)
(0 0 0)
(0 0 0)
(0 0 0)
(0 0 0)
(0 0 0)
(-1.23264e-10 5.1714e-12 -7.78482e-13)
(-2.3852e-10 9.95195e-12 -1.54341e-12)
(-3.46344e-10 1.42711e-11 -2.3311e-12)
(-4.51201e-10 1.8132e-11 -3.19998e-12)
(-5.57145e-10 2.13631e-11 -4.20649e-12)
(-6.68428e-10 2.35393e-11 -5.41195e-12)
(-7.89718e-10 2.38227e-11 -6.88684e-12)
(-9.26006e-10 2.06818e-11 -8.71416e-12)
(-1.08295e-09 1.14282e-11 -1.1002e-11)
(-1.26736e-09 -8.52065e-12 -1.3912e-11)
(-1.48616e-09 -4.67058e-11 -1.77047e-11)
(-1.74586e-09 -1.14843e-10 -2.28639e-11)
(-2.04819e-09 -2.29129e-10 -3.02363e-11)
(-2.37979e-09 -4.04934e-10 -4.08708e-11)
(-2.68066e-09 -6.23673e-10 -5.38926e-11)
(-3.47491e-09 -1.49429e-09 -9.67539e-11)
(0 0 0)
(-2.43028e-10 1.0249e-11 -1.53632e-12)
(-4.69722e-10 1.97425e-11 -3.04354e-12)
(-6.81153e-10 2.83868e-11 -4.59378e-12)
(-8.85742e-10 3.62424e-11 -6.3004e-12)
(-1.0915e-09 4.30878e-11 -8.27633e-12)
(-1.30664e-09 4.82808e-11 -1.06435e-11)
(-1.53961e-09 5.05017e-11 -1.35383e-11)
(-1.79969e-09 4.73676e-11 -1.7122e-11)
(-2.09745e-09 3.47766e-11 -2.15957e-11)
(-2.44361e-09 5.91653e-12 -2.72127e-11)
(-2.84865e-09 -4.99574e-11 -3.43372e-11)
(-3.32096e-09 -1.48275e-10 -4.35665e-11)
(-3.85666e-09 -3.06838e-10 -5.58525e-11)
(-4.41865e-09 -5.3431e-10 -7.2271e-11)
(-4.89355e-09 -7.90592e-10 -9.14104e-11)
(-5.56867e-09 -1.29516e-09 -1.46755e-10)
(0 0 0)
(-3.56148e-10 1.51161e-11 -2.25491e-12)
(-6.87735e-10 2.91838e-11 -4.46554e-12)
(-9.95904e-10 4.21511e-11 -6.73723e-12)
(-1.29258e-09 5.42366e-11 -9.23613e-12)
(-1.58892e-09 6.53289e-11 -1.21278e-11)
(-1.8959e-09 7.48535e-11 -1.55896e-11)
(-2.22461e-09 8.15456e-11 -1.98206e-11)
(-2.58697e-09 8.3124e-11 -2.50544e-11)
(-2.99582e-09 7.57822e-11 -3.15659e-11)
(-3.46346e-09 5.35125e-11 -3.96669e-11)
(-4.00093e-09 7.4942e-12 -4.973e-11)
(-4.61326e-09 -7.367e-11 -6.22184e-11)
(-5.2879e-09 -1.99663e-10 -7.77352e-11)
(-5.96962e-09 -3.66783e-10 -9.68596e-11)
(-6.51967e-09 -5.34449e-10 -1.17973e-10)
(-7.27879e-09 -7.84031e-10 -1.81865e-10)
(0 0 0)
(-4.60486e-10 1.96399e-11 -2.92095e-12)
(-8.88584e-10 3.80342e-11 -5.7843e-12)
(-1.28485e-09 5.52332e-11 -8.72411e-12)
(-1.66395e-09 7.17045e-11 -1.19551e-11)
(-2.03917e-09 8.75972e-11 -1.56901e-11)
(-2.42308e-09 1.02672e-10 -2.01578e-11)
(-2.8281e-09 1.16189e-10 -2.56184e-11)
(-3.26677e-09 1.26754e-10 -3.23773e-11)
(-3.7516e-09 1.32143e-10 -4.0791e-11)
(-4.29401e-09 1.29183e-10 -5.12638e-11)
(-4.90227e-09 1.13917e-10 -6.42333e-11)
(-5.57658e-09 8.23892e-11 -8.01593e-11)
(-6.29768e-09 3.34744e-11 -9.946e-11)
(-7.0048e-09 -2.56447e-11 -1.22241e-10)
(-7.56407e-09 -7.69879e-11 -1.46165e-10)
(-8.33021e-09 -1.12877e-10 -2.1374e-10)
(0 0 0)
(-5.55035e-10 2.36739e-11 -3.52693e-12)
(-1.06995e-09 4.59826e-11 -6.98213e-12)
(-1.5443e-09 6.71338e-11 -1.05246e-11)
(-1.9947e-09 8.79e-11 -1.44116e-11)
(-2.43571e-09 1.08789e-10 -1.88981e-11)
(-2.88062e-09 1.30059e-10 -2.42599e-11)
(-3.34181e-09 1.51734e-10 -3.08149e-11)
(-3.8309e-09 1.73665e-10 -3.89435e-11)
(-4.35824e-09 1.9568e-10 -4.91055e-11)
(-4.93165e-09 2.17953e-10 -6.18528e-11)
(-5.55397e-09 2.41692e-10 -7.78349e-11)
(-6.2191e-09 2.70108e-10 -9.78132e-11)
(-6.9025e-09 3.08591e-10 -1.22529e-10)
(-7.54684e-09 3.62099e-10 -1.5203e-10)
(-8.04386e-09 4.2053e-10 -1.82423e-10)
(-8.72763e-09 5.28033e-10 -2.55818e-10)
(0 0 0)
(-6.38776e-10 2.70229e-11 -4.0642e-12)
(-1.22996e-09 5.26302e-11 -8.04164e-12)
(-1.77178e-09 7.72131e-11 -1.21116e-11)
(-2.28204e-09 1.01856e-10 -1.65665e-11)
(-2.77589e-09 1.27442e-10 -2.1696e-11)
(-3.26648e-09 1.54741e-10 -2.78152e-11)
(-3.76531e-09 1.84531e-10 -3.52913e-11)
(-4.28202e-09 2.17806e-10 -4.45722e-11)
(-4.82367e-09 2.5614e-10 -5.62199e-11)
(-5.39314e-09 3.02303e-10 -7.09517e-11)
(-5.98647e-09 3.61162e-10 -8.96985e-11)
(-6.58906e-09 4.40585e-10 -1.13689e-10)
(-7.1698e-09 5.50499e-10 -1.44415e-10)
(-7.67478e-09 6.9484e-10 -1.82601e-10)
(-8.03094e-09 8.44421e-10 -2.23152e-10)
(-8.54573e-09 1.08624e-09 -3.14635e-10)
(0 0 0)
(-7.11183e-10 2.94882e-11 -4.52652e-12)
(-1.36779e-09 5.75689e-11 -8.95041e-12)
(-1.96642e-09 8.48096e-11 -1.34652e-11)
(-2.52546e-09 1.12565e-10 -1.83901e-11)
(-3.06006e-09 1.42035e-10 -2.40399e-11)
(-3.58275e-09 1.74399e-10 -3.07562e-11)
(-4.10361e-09 2.10988e-10 -3.89384e-11)
(-4.62998e-09 2.53542e-10 -4.90774e-11)
(-5.16544e-09 3.04604e-10 -6.17986e-11)
(-5.70803e-09 3.68102e-10 -7.79197e-11)
(-6.24742e-09 4.50084e-10 -9.85324e-11)
(-6.76112e-09 5.59286e-10 -1.25119e-10)
(-7.21013e-09 7.06262e-10 -1.59596e-10)
(-7.53684e-09 8.95789e-10 -2.03248e-10)
(-7.68917e-09 1.09963e-09 -2.51024e-10)
(-7.75088e-09 1.50983e-09 -3.76375e-10)
(0 0 0)
(-7.72174e-10 3.08929e-11 -4.91046e-12)
(-1.48347e-09 6.04342e-11 -9.70169e-12)
(-2.12865e-09 8.93346e-11 -1.4575e-11)
(-2.7262e-09 1.19141e-10 -1.98665e-11)
(-3.29088e-09 1.51263e-10 -2.59043e-11)
(-3.83431e-09 1.87125e-10 -3.30411e-11)
(-4.36511e-09 2.28331e-10 -4.16846e-11)
(-4.88846e-09 2.76877e-10 -5.23307e-11)
(-5.40515e-09 3.35425e-10 -6.56026e-11)
(-5.90981e-09 4.07616e-10 -8.22967e-11)
(-6.38841e-09 4.98253e-10 -1.03424e-10)
(-6.81497e-09 6.12878e-10 -1.30207e-10)
(-7.14884e-09 7.55435e-10 -1.63835e-10)
(-7.33653e-09 9.20232e-10 -2.04099e-10)
(-7.33665e-09 1.07267e-09 -2.45245e-10)
(-6.40917e-09 1.60081e-09 -3.41471e-10)
(0 0 0)
(0 0 0)
(0 0 0)
(0 0 0)
(0 0 0)
(0 0 0)
(0 0 0)
(0 0 0)
(0 0 0)
(0 0 0)
(0 0 0)
(0 0 0)
(0 0 0)
(0 0 0)
(0 0 0)
(0 0 0)
(0 0 0)
(0 0 0)
(-1.24746e-10 5.25603e-12 -6.74411e-13)
(-2.41446e-10 1.01092e-11 -1.3404e-12)
(-3.50748e-10 1.44816e-11 -2.03349e-12)
(-4.57133e-10 1.83631e-11 -2.8103e-12)
(-5.64816e-10 2.15659e-11 -3.73035e-12)
(-6.7822e-10 2.36364e-11 -4.86449e-12)
(-8.0205e-10 2.36857e-11 -6.30335e-12)
(-9.41379e-10 2.01133e-11 -8.16766e-12)
(-1.10185e-09 1.01519e-11 -1.06268e-11)
(-1.28997e-09 -1.08548e-11 -1.39305e-11)
(-1.5126e-09 -5.04602e-11 -1.84422e-11)
(-1.77616e-09 -1.20164e-10 -2.46821e-11)
(-2.08205e-09 -2.35595e-10 -3.32678e-11)
(-2.41741e-09 -4.11452e-10 -4.4463e-11)
(-2.72306e-09 -6.29429e-10 -5.62988e-11)
(-3.53807e-09 -1.50979e-09 -8.31733e-11)
(0 0 0)
(-2.45891e-10 1.042e-11 -1.3301e-12)
(-4.75329e-10 2.00608e-11 -2.64117e-12)
(-6.89458e-10 2.88138e-11 -4.00319e-12)
(-8.96982e-10 3.67271e-11 -5.52683e-12)
(-1.10618e-09 4.35513e-11 -7.3301e-12)
(-1.32538e-09 4.85875e-11 -9.55178e-12)
(-1.56314e-09 5.0432e-11 -1.23672e-11)
(-1.82882e-09 4.65835e-11 -1.60112e-11)
(-2.13288e-09 3.28031e-11 -2.08101e-11)
(-2.48616e-09 2.16582e-12 -2.72196e-11)
(-2.89871e-09 -5.6082e-11 -3.58744e-11)
(-3.37794e-09 -1.57e-10 -4.76217e-11)
(-3.91944e-09 -3.17376e-10 -6.33675e-11)
(-4.48658e-09 -5.44566e-10 -8.32574e-11)
(-4.96765e-09 -7.98576e-10 -1.03755e-10)
(-5.66086e-09 -1.29916e-09 -1.43907e-10)
(0 0 0)
(-3.60236e-10 1.53768e-11 -1.95041e-12)
(-6.95733e-10 2.9674e-11 -3.87128e-12)
(-1.00777e-09 4.28246e-11 -5.86455e-12)
(-1.30867e-09 5.50352e-11 -8.09107e-12)
(-1.60986e-09 6.61604e-11 -1.07219e-11)
(-1.92246e-09 7.55607e-11 -1.39574e-11)
(-2.25777e-09 8.1875e-11 -1.80507e-11)
(-2.62777e-09 8.26854e-11 -2.33394e-11)
(-3.04526e-09 7.40206e-11 -3.02853e-11)
(-3.52262e-09 4.97304e-11 -3.95154e-11)
(-4.07015e-09 9.62733e-13 -5.18731e-11)
(-4.69156e-09 -8.33613e-11 -6.84085e-11)
(-5.37371e-09 -2.11865e-10 -9.01177e-11)
(-6.06163e-09 -3.79442e-10 -1.16847e-10)
(-6.61861e-09 -5.45165e-10 -1.43825e-10)
(-7.40041e-09 -7.87959e-10 -1.9684e-10)
(0 0 0)
(-4.65636e-10 1.99935e-11 -2.52375e-12)
(-8.98683e-10 3.87082e-11 -5.00864e-12)
(-1.29988e-09 5.6183e-11 -7.58378e-12)
(-1.68424e-09 7.28751e-11 -1.04547e-11)
(-2.06536e-09 8.89036e-11 -1.38389e-11)
(-2.45607e-09 1.03972e-10 -1.79908e-11)
(-2.86897e-09 1.1725e-10 -2.32332e-11)
(-3.31675e-09 1.27214e-10 -2.99954e-11)
(-3.81191e-09 1.31473e-10 -3.88624e-11)
(-4.36567e-09 1.26676e-10 -5.06311e-11)
(-4.98556e-09 1.08742e-10 -6.63616e-11)
(-5.67088e-09 7.37566e-11 -8.73824e-11)
(-6.40175e-09 2.11268e-11 -1.14879e-10)
(-7.11733e-09 -4.10349e-11 -1.48447e-10)
(-7.68561e-09 -9.36376e-11 -1.81938e-10)
(-8.48235e-09 -1.25121e-10 -2.47039e-10)
(0 0 0)
(-5.61069e-10 2.41202e-11 -3.04359e-12)
(-1.08176e-09 4.6842e-11 -6.0375e-12)
(-1.56183e-09 6.83683e-11 -9.13366e-12)
(-2.01825e-09 8.94702e-11 -1.2576e-11)
(-2.46591e-09 1.10637e-10 -1.66212e-11)
(-2.91837e-09 1.32083e-10 -2.15695e-11)
(-3.38822e-09 1.53761e-10 -2.78018e-11)
(-3.88723e-09 1.75407e-10 -3.58266e-11)
(-4.42575e-09 1.96694e-10 -4.63422e-11)
(-5.01142e-09 2.17581e-10 -6.03155e-11)
(-5.64656e-09 2.38999e-10 -7.90653e-11)
(-6.32471e-09 2.63807e-10 -1.04312e-10)
(-7.02079e-09 2.96955e-10 -1.37708e-10)
(-7.6776e-09 3.43465e-10 -1.78968e-10)
(-8.18778e-09 3.95308e-10 -2.20379e-10)
(-8.91206e-09 4.99694e-10 -2.99622e-10)
(0 0 0)
(-6.45488e-10 2.75545e-11 -3.50249e-12)
(-1.24307e-09 5.36626e-11 -6.94296e-12)
(-1.79116e-09 7.8719e-11 -1.04911e-11)
(-2.30793e-09 1.03819e-10 -1.44216e-11)
(-2.80886e-09 1.2984e-10 -1.90214e-11)
(-3.30737e-09 1.57526e-10 -2.46249e-11)
(-3.81517e-09 1.87604e-10 -3.16551e-11)
(-4.34203e-09 2.20976e-10 -4.06772e-11)
(-4.89507e-09 2.59066e-10 -5.24721e-11)
(-5.47708e-09 3.04388e-10 -6.81365e-11)
(-6.08396e-09 3.61371e-10 -8.9207e-11)
(-6.70118e-09 4.37107e-10 -1.17757e-10)
(-7.29787e-09 5.4018e-10 -1.56068e-10)
(-7.82119e-09 6.73507e-10 -2.04524e-10)
(-8.19727e-09 8.10396e-10 -2.54598e-10)
(-8.76211e-09 1.03514e-09 -3.53501e-10)
(0 0 0)
(-7.1837e-10 3.00906e-11 -3.89536e-12)
(-1.3818e-09 5.87468e-11 -7.71498e-12)
(-1.98703e-09 8.65483e-11 -1.16404e-11)
(-2.55284e-09 1.14873e-10 -1.59683e-11)
(-3.09468e-09 1.44927e-10 -2.10055e-11)
(-3.62534e-09 1.77883e-10 -2.71057e-11)
(-4.1551e-09 2.15038e-10 -3.47119e-11)
(-4.69143e-09 2.58056e-10 -4.44111e-11)
(-5.23799e-09 3.09337e-10 -5.70088e-11)
(-5.79286e-09 3.72524e-10 -7.36297e-11)
(-6.34587e-09 4.53108e-10 -9.58405e-11)
(-6.87509e-09 5.58768e-10 -1.25749e-10)
(-7.34293e-09 6.98212e-10 -1.658e-10)
(-7.69406e-09 8.74293e-10 -2.16876e-10)
(-7.87495e-09 1.06062e-09 -2.71263e-10)
(-8.00473e-09 1.43838e-09 -3.94752e-10)
(0 0 0)
(-7.79657e-10 3.15447e-11 -4.21962e-12)
(-1.49801e-09 6.17158e-11 -8.34869e-12)
(-2.14997e-09 9.12436e-11 -1.25743e-11)
(-2.75435e-09 1.21707e-10 -1.72056e-11)
(-3.32621e-09 1.54537e-10 -2.25578e-11)
(-3.87743e-09 1.91161e-10 -2.89871e-11)
(-4.41678e-09 2.33163e-10 -3.69312e-11)
(-4.94959e-09 2.82477e-10 -4.69575e-11)
(-5.47674e-09 3.41627e-10 -5.98249e-11)
(-5.99301e-09 4.13963e-10 -7.65565e-11)
(-6.48471e-09 5.03713e-10 -9.84998e-11)
(-6.92677e-09 6.1534e-10 -1.27287e-10)
(-7.28047e-09 7.51048e-10 -1.64391e-10)
(-7.49522e-09 9.03429e-10 -2.09221e-10)
(-7.52989e-09 1.0393e-09 -2.542e-10)
(-6.706e-09 1.51788e-09 -3.56342e-10)
(0 0 0)
(0 0 0)
(0 0 0)
(0 0 0)
(0 0 0)
(0 0 0)
(0 0 0)
(0 0 0)
(0 0 0)
(0 0 0)
(0 0 0)
(0 0 0)
(0 0 0)
(0 0 0)
(0 0 0)
(0 0 0)
(0 0 0)
(0 0 0)
(-1.25919e-10 5.32068e-12 -5.38329e-13)
(-2.43774e-10 1.02291e-11 -1.07236e-12)
(-3.54254e-10 1.46404e-11 -1.63326e-12)
(-4.61828e-10 1.85325e-11 -2.27e-12)
(-5.70869e-10 2.17061e-11 -3.0379e-12)
(-6.85942e-10 2.36868e-11 -4.00632e-12)
(-8.11743e-10 2.35481e-11 -5.2679e-12)
(-9.53425e-10 1.96438e-11 -6.95246e-12)
(-1.11666e-09 9.16565e-12 -9.24417e-12)
(-1.30768e-09 -1.25724e-11 -1.24051e-11)
(-1.5335e-09 -5.31187e-11 -1.67886e-11)
(-1.80075e-09 -1.23855e-10 -2.28058e-11)
(-2.11087e-09 -2.40222e-10 -3.07406e-11)
(-2.45141e-09 -4.16939e-10 -4.02399e-11)
(-2.76274e-09 -6.36129e-10 -4.90702e-11)
(-3.59678e-09 -1.52828e-09 -6.36797e-11)
(0 0 0)
(-2.4816e-10 1.0551e-11 -1.06114e-12)
(-4.79789e-10 2.03036e-11 -2.11158e-12)
(-6.96043e-10 2.91347e-11 -3.21216e-12)
(-9.05886e-10 3.70831e-11 -4.4599e-12)
(-1.11783e-09 4.38776e-11 -5.96346e-12)
(-1.34021e-09 4.87725e-11 -7.85683e-12)
(-1.58169e-09 5.03032e-11 -1.03199e-11)
(-1.85171e-09 4.58873e-11 -1.3605e-11)
(-2.16062e-09 3.12041e-11 -1.80704e-11)
(-2.51953e-09 -7.1894e-13 -2.42205e-11)
(-2.93848e-09 -6.06208e-11 -3.27148e-11)
(-3.42451e-09 -1.63354e-10 -4.42907e-11)
(-3.97345e-09 -3.25295e-10 -5.94066e-11)
(-4.54911e-09 -5.53555e-10 -7.72464e-11)
(-5.03903e-09 -8.08501e-10 -9.36118e-11)
(-5.75036e-09 -1.31357e-09 -1.15864e-10)
(0 0 0)
(-3.63485e-10 1.5577e-11 -1.55485e-12)
(-7.02095e-10 3.00486e-11 -3.09234e-12)
(-1.0172e-09 4.33324e-11 -4.70109e-12)
(-1.32144e-09 5.56254e-11 -6.52157e-12)
(-1.62649e-09 6.67531e-11 -8.7098e-12)
(-1.94351e-09 7.60204e-11 -1.14583e-11)
(-2.28396e-09 8.19923e-11 -1.50255e-11)
(-2.65993e-09 8.21499e-11 -1.97737e-11)
(-3.08415e-09 7.24065e-11 -2.62165e-11)
(-3.56936e-09 4.65282e-11 -3.50704e-11)
(-4.1257e-09 -4.3459e-12 -4.72712e-11)
(-4.75643e-09 -9.11096e-11 -6.38572e-11)
(-5.4487e-09 -2.21916e-10 -8.54477e-11)
(-6.14784e-09 -3.91171e-10 -1.10813e-10)
(-6.71604e-09 -5.5788e-10 -1.34066e-10)
(-7.51894e-09 -8.03337e-10 -1.66399e-10)
(0 0 0)
(-4.69734e-10 2.02659e-11 -2.01005e-12)
(-9.06716e-10 3.92244e-11 -3.99683e-12)
(-1.31182e-09 5.69022e-11 -6.0723e-12)
(-1.70036e-09 7.37451e-11 -8.41431e-12)
(-2.08616e-09 8.98442e-11 -1.12196e-11)
(-2.48222e-09 1.04852e-10 -1.47311e-11)
(-2.90134e-09 1.17858e-10 -1.92746e-11)
(-3.35631e-09 1.27231e-10 -2.53057e-11)
(-3.85973e-09 1.30441e-10 -3.34732e-11)
(-4.42291e-09 1.23997e-10 -4.46869e-11)
(-5.05334e-09 1.03703e-10 -6.01543e-11)
(-5.75031e-09 6.56573e-11 -8.12916e-11)
(-6.49416e-09 9.52786e-12 -1.0902e-10)
(-7.22422e-09 -5.60374e-11 -1.41899e-10)