/*--------------------------------*- C++ -*----------------------------------*\
| =========                 |                                                 |
| \\      /  F ield         | foam-extend: Open Source CFD                    |
|  \\    /   O peration     | Version:     3.1                                |
|   \\  /    A nd           | Web:         http://www.extend-project.de       |
|    \\/     M anipulation  |                                                 |
\*---------------------------------------------------------------------------*/
FoamFile
{
    version     2.0;
    format      ascii;
    class       surfaceVectorField;
    location    "1";
    object      Sf;
}
// * * * * * * * * * * * * * * * * * * * * * * * * * * * * * * * * * * * * * //

dimensions      [0 2 0 0 0 0 0];

internalField   nonuniform List<vector> 
41600
(
(0.000626002 -7.22922e-06 -5.59887e-08)
(-1.00282e-06 0.000710354 -2.84222e-08)
(-2.34212e-08 -2.63488e-08 0.000707346)
(2.40118e-08 2.70133e-08 -0.000707261)
(0.000626966 -1.39207e-05 -1.07932e-07)
(-9.64004e-07 0.000709814 -8.51881e-08)
(-2.33512e-08 -7.89468e-08 0.00070821)
(2.39432e-08 8.09413e-08 -0.000708072)
(0.000627915 -2.002e-05 -1.56624e-07)
(-9.49753e-07 0.000709221 -1.43593e-07)
(-2.46073e-08 -1.32819e-07 0.000709017)
(2.52321e-08 1.36181e-07 -0.000708825)
(0.000628901 -2.56855e-05 -2.04573e-07)
(-9.87375e-07 0.000708786 -2.08113e-07)
(-2.79567e-08 -1.91769e-07 0.00070992)
(2.86604e-08 1.96623e-07 -0.000709664)
(0.000629975 -3.10471e-05 -2.53699e-07)
(-1.07473e-06 0.00070848 -2.84255e-07)
(-3.36897e-08 -2.60773e-07 0.000710964)
(3.45209e-08 2.67349e-07 -0.00071063)
(0.000631188 -3.6207e-05 -3.0519e-07)
(-1.21349e-06 0.000708276 -3.78172e-07)
(-4.24924e-08 -3.45862e-07 0.000712194)
(4.3512e-08 3.54513e-07 -0.000711764)
(0.000632595 -4.12342e-05 -3.5862e-07)
(-1.40834e-06 0.000708141 -4.97238e-07)
(-5.56674e-08 -4.55226e-07 0.000713657)
(5.69296e-08 4.66436e-07 -0.000713106)
(0.000634261 -4.61555e-05 -4.11966e-07)
(-1.66801e-06 0.000708032 -6.50689e-07)
(-7.53835e-08 -6.00807e-07 0.000715402)
(7.69419e-08 6.15188e-07 -0.000714698)
(0.000636264 -5.09387e-05 -4.61565e-07)
(-2.0043e-06 0.00070789 -8.5101e-07)
(-1.05403e-07 -8.0092e-07 0.000717484)
(1.07341e-07 8.19252e-07 -0.000716583)
(0.000638692 -5.54653e-05 -5.00357e-07)
(-2.43106e-06 0.000707628 -1.11569e-06)
(-1.52566e-07 -1.08519e-06 0.000719958)
(1.54943e-07 1.10844e-06 -0.000718804)
(0.000641654 -5.95035e-05 -5.18658e-07)
(-2.96427e-06 0.000707134 -1.47034e-06)
(-2.28988e-07 -1.50331e-06 0.000722888)
(2.31707e-07 1.53253e-06 -0.000721399)
(0.000645268 -6.26806e-05 -5.09151e-07)
(-3.61615e-06 0.000706267 -1.95584e-06)
(-3.56094e-07 -2.1403e-06 0.000726347)
(3.58543e-07 2.17592e-06 -0.000724401)
(0.000649645 -6.45077e-05 -4.81835e-07)
(-4.37782e-06 0.000704912 -2.64262e-06)
(-5.70409e-07 -3.14177e-06 0.000730447)
(5.70724e-07 3.18191e-06 -0.000727831)
(0.000654789 -6.45611e-05 -5.06087e-07)
(-5.14082e-06 0.000703139 -3.65305e-06)
(-9.1192e-07 -4.73432e-06 0.000735379)
(9.08624e-07 4.77352e-06 -0.000731701)
(0.000659902 -6.28458e-05 -8.37897e-07)
(-5.14806e-06 0.000701339 -5.13864e-06)
(-1.26744e-06 -7.07794e-06 0.000741156)
(1.30318e-06 7.14859e-06 -0.000735686)
(-1.95007e-05 0.000692963 -3.43131e-07)
(-4.79486e-06 -1.32973e-05 0.000752196)
(1.06549e-05 1.92197e-05 -0.000749161)
(0.000625955 -7.1086e-06 -1.66614e-07)
(-1.95956e-06 0.000717462 -5.5759e-08)
(-6.94038e-08 -2.53765e-08 0.000714544)
(7.11503e-08 2.60123e-08 -0.00071435)
(0.000626871 -1.36857e-05 -3.21207e-07)
(-1.88217e-06 0.00071639 -1.66947e-07)
(-6.91733e-08 -7.59719e-08 0.000714815)
(7.09161e-08 7.78713e-08 -0.000714579)
(0.000627771 -1.96764e-05 -4.66134e-07)
(-1.85146e-06 0.000715208 -2.80983e-07)
(-7.27792e-08 -1.2754e-07 0.000714974)
(7.46075e-08 1.30715e-07 -0.000714692)
(0.000628703 -2.52367e-05 -6.08925e-07)
(-1.92065e-06 0.000714341 -4.06539e-07)
(-8.24272e-08 -1.83399e-07 0.000715382)
(8.44799e-08 1.87944e-07 -0.000715041)
(0.00062971 -3.04968e-05 -7.55383e-07)
(-2.0849e-06 0.000713734 -5.54218e-07)
(-9.8903e-08 -2.47822e-07 0.000716051)
(1.01332e-07 2.53942e-07 -0.000715634)
(0.00063084 -3.55602e-05 -9.08704e-07)
(-2.34576e-06 0.000713332 -7.35734e-07)
(-1.24087e-07 -3.25795e-07 0.000716991)
(1.27048e-07 3.33797e-07 -0.00071648)
(0.000632139 -4.05036e-05 -1.06869e-06)
(-2.71177e-06 0.000713074 -9.64964e-07)
(-1.61339e-07 -4.2357e-07 0.000718209)
(1.64988e-07 4.33859e-07 -0.000717581)
(0.000633664 -4.53704e-05 -1.23098e-06)
(-3.19741e-06 0.000712886 -1.25941e-06)
(-2.16285e-07 -5.49406e-07 0.000719704)
(2.20818e-07 5.62545e-07 -0.000718933)
(0.000635475 -5.01558e-05 -1.38414e-06)
(-3.82085e-06 0.000712658 -1.64202e-06)
(-2.98751e-07 -7.15024e-07 0.000721456)
(3.04408e-07 7.31786e-07 -0.000720512)
(0.00063764 -5.47884e-05 -1.5075e-06)
(-4.6029e-06 0.00071224 -2.14377e-06)
(-4.25774e-07 -9.37417e-07 0.000723416)
(4.32751e-07 9.58808e-07 -0.000722264)
(0.000640228 -5.91018e-05 -1.57243e-06)
(-5.56049e-06 0.00071142 -2.80893e-06)
(-6.26194e-07 -1.24059e-06 0.000725497)
(6.34308e-07 1.26785e-06 -0.000724093)
(0.000643291 -6.28039e-05 -1.55124e-06)
(-6.68697e-06 0.000709934 -3.70422e-06)
(-9.47979e-07 -1.65613e-06 0.000727566)
(9.55866e-07 1.69068e-06 -0.000725839)
(0.000646813 -6.54663e-05 -1.45146e-06)
(-7.90299e-06 0.000707531 -4.93706e-06)
(-1.46358e-06 -2.21638e-06 0.000729486)
(1.46702e-06 2.25943e-06 -0.000727292)
(0.000650564 -6.6608e-05 -1.41499e-06)
(-8.88727e-06 0.00070423 -6.68247e-06)
(-2.2255e-06 -2.92438e-06 0.000731266)
(2.22082e-06 2.97565e-06 -0.000728274)
(0.000653606 -6.60002e-05 -2.04085e-06)
(-8.26348e-06 0.000700683 -9.17693e-06)
(-2.90564e-06 -3.68799e-06 0.000733274)
(2.9788e-06 3.73657e-06 -0.00072861)
(-1.95992e-05 0.000686292 -5.09538e-06)
(-8.26031e-06 -2.14356e-06 0.000730173)
(1.7605e-05 -1.29146e-06 -0.000719809)
(0.000625867 -6.88031e-06 -2.73278e-07)
(-2.82903e-06 0.000724341 -8.06804e-08)
(-1.12857e-07 -2.34768e-08 0.00072154)
(1.1569e-07 2.40631e-08 -0.000721242)
(0.000626695 -1.32389e-05 -5.26791e-07)
(-2.71382e-06 0.000722747 -2.41305e-07)
(-1.12342e-07 -7.01301e-08 0.00072118)
(1.15161e-07 7.18831e-08 -0.000720852)
(0.000627504 -1.90197e-05 -7.64373e-07)
(-2.66295e-06 0.000720986 -4.05463e-07)
(-1.17758e-07 -1.17139e-07 0.000720649)
(1.20709e-07 1.20081e-07 -0.000720287)
(0.000628333 -2.43764e-05 -9.98665e-07)
(-2.75327e-06 0.000719694 -5.85417e-07)
(-1.3251e-07 -1.66999e-07 0.000720515)
(1.35815e-07 1.71227e-07 -0.000720102)
(0.00062922 -2.94382e-05 -1.2395e-06)
(-2.97569e-06 0.00071879 -7.9607e-07)
(-1.57671e-07 -2.22847e-07 0.000720755)
(1.61558e-07 2.28521e-07 -0.000720272)
(0.0006302 -3.43111e-05 -1.49239e-06)
(-3.32977e-06 0.000718197 -1.05364e-06)
(-1.9578e-07 -2.87973e-07 0.000721342)
(2.00467e-07 2.95311e-07 -0.000720771)
(0.000631307 -3.90833e-05 -1.75878e-06)
(-3.82474e-06 0.000717837 -1.37707e-06)
(-2.51101e-07 -3.65819e-07 0.000722244)
(2.56832e-07 3.7512e-07 -0.000721565)
(0.000632578 -4.38237e-05 -2.03401e-06)
(-4.47602e-06 0.000717614 -1.78983e-06)
(-3.30718e-07 -4.59837e-07 0.000723414)
(3.37819e-07 4.71508e-07 -0.000722609)
(0.000634051 -4.85766e-05 -2.30105e-06)
(-5.30277e-06 0.000717397 -2.32199e-06)
(-4.46652e-07 -5.72891e-07 0.000724767)
(4.55477e-07 5.87461e-07 -0.00072382)
(0.000635762 -5.33518e-05 -2.52903e-06)
(-6.32423e-06 0.000716997 -3.01341e-06)
(-6.18302e-07 -7.05473e-07 0.000726164)
(6.2916e-07 7.2362e-07 -0.000725067)
(0.000637733 -5.80994e-05 -2.67185e-06)
(-7.54409e-06 0.000716145 -3.91907e-06)
(-8.75866e-07 -8.51465e-07 0.000727387)
(8.88678e-07 8.7416e-07 -0.000726134)
(0.00063995 -6.26839e-05 -2.67344e-06)
(-8.91814e-06 0.00071449 -5.11813e-06)
(-1.26336e-06 -9.8846e-07 0.000728121)
(1.27675e-06 1.01719e-06 -0.000726706)
(0.000642317 -6.68389e-05 -2.50008e-06)
(-1.02785e-05 0.000711649 -6.73192e-06)
(-1.8303e-06 -1.05782e-06 0.000727994)
(1.83964e-06 1.09472e-06 -0.000726372)
(0.000644554 -7.01373e-05 -2.25018e-06)
(-1.11238e-05 0.000707482 -8.95493e-06)
(-2.56073e-06 -9.4072e-07 0.000726831)
(2.56036e-06 9.86289e-07 -0.000724809)
(0.000646015 -7.20956e-05 -2.55884e-06)
(-9.781e-06 0.000702619 -1.20979e-05)
(-3.0185e-06 -5.23671e-07 0.00072533)
(3.07474e-06 5.46156e-07 -0.0007221)
(-2.34623e-05 0.000690139 -6.79622e-06)
(-5.86933e-06 1.20569e-06 0.000718328)
(1.2173e-05 -2.49574e-06 -0.000711391)
(0.000625742 -6.54197e-06 -3.73418e-07)
(-3.57517e-06 0.000730883 -1.02081e-07)
(-1.52273e-07 -2.07711e-08 0.000728229)
(1.56097e-07 2.12975e-08 -0.000727834)
(0.000626449 -1.25773e-05 -7.19597e-07)
(-3.42412e-06 0.00072878 -3.04951e-07)
(-1.51145e-07 -6.17434e-08 0.000727207)
(1.54951e-07 6.33216e-08 -0.000726797)
(0.000627132 -1.80524e-05 -1.04388e-06)
(-3.34988e-06 0.000726459 -5.11404e-07)
(-1.57442e-07 -1.02149e-07 0.00072596)
(1.61425e-07 1.04796e-07 -0.000725529)
(0.000627823 -2.31135e-05 -1.36399e-06)
(-3.44855e-06 0.000724751 -7.36546e-07)
(-1.75529e-07 -1.43606e-07 0.000725251)
(1.79966e-07 1.4738e-07 -0.00072478)
(0.000628547 -2.78825e-05 -1.69396e-06)
(-3.70523e-06 0.000723554 -9.98565e-07)
(-2.06436e-07 -1.88038e-07 0.000725021)
(2.11588e-07 1.93024e-07 -0.000724488)
(0.000629327 -3.24656e-05 -2.04291e-06)
(-4.11623e-06 0.000722774 -1.31684e-06)
(-2.52632e-07 -2.36872e-07 0.000725208)
(2.58761e-07 2.43195e-07 -0.000724596)
(0.000630182 -3.69615e-05 -2.41439e-06)
(-4.68729e-06 0.000722325 -1.71348e-06)
(-3.18179e-07 -2.90714e-07 0.000725751)
(3.25592e-07 2.98547e-07 -0.000725043)
(0.000631128 -4.14658e-05 -2.80486e-06)
(-5.43068e-06 0.000722109 -2.21531e-06)
(-4.09515e-07 -3.48539e-07 0.000726566)
(4.18563e-07 3.5807e-07 -0.00072575)
(0.000632176 -4.60745e-05 -3.19746e-06)
(-6.36159e-06 0.000721994 -2.85625e-06)
(-5.36635e-07 -4.05683e-07 0.000727529)
(5.47694e-07 4.17094e-07 -0.000726602)
(0.00063333 -5.08866e-05 -3.55807e-06)
(-7.49133e-06 0.000721795 -3.68074e-06)
(-7.14211e-07 -4.50234e-07 0.000728447)
(7.27601e-07 4.63727e-07 -0.000727419)
(0.00063458 -5.60003e-05 -3.82962e-06)
(-8.80982e-06 0.000721243 -4.74933e-06)
(-9.62074e-07 -4.56877e-07 0.000729029)
(9.77794e-07 4.72724e-07 -0.000727927)
(0.00063589 -6.14849e-05 -3.92919e-06)
(-1.02454e-05 0.000719956 -6.14863e-06)
(-1.30179e-06 -3.76287e-07 0.000728861)
(1.31861e-06 3.94969e-07 -0.000727731)
(0.000637171 -6.72932e-05 -3.76267e-06)
(-1.15731e-05 0.000717436 -8.01046e-06)
(-1.7412e-06 -1.24108e-07 0.000727423)
(1.75444e-06 1.46224e-07 -0.000726311)
(0.000638256 -7.30838e-05 -3.3113e-06)
(-1.22088e-05 0.000713249 -1.05513e-05)
(-2.21093e-06 4.06654e-07 0.000724365)
(2.21175e-06 -3.82907e-07 -0.00072322)
(0.000638865 -7.79332e-05 -3.00273e-06)
(-1.04063e-05 0.000707472 -1.41648e-05)
(-2.34039e-06 1.21051e-06 0.000720308)
(2.35592e-06 -1.21432e-06 -0.000718549)
(-2.4755e-05 0.000698066 -8.32718e-06)
(-3.79674e-06 2.96124e-06 0.000712266)
(8.4902e-06 -4.73399e-06 -0.000707646)
(0.000625591 -6.10469e-06 -4.64514e-07)
(-4.17045e-06 0.000736987 -1.19079e-07)
(-1.86285e-07 -1.7278e-08 0.000734509)
(1.9098e-07 1.77282e-08 -0.000734027)
(0.000626149 -1.17278e-05 -8.94984e-07)
(-3.98722e-06 0.000734402 -3.55287e-07)
(-1.8413e-07 -5.10546e-08 0.000732814)
(1.88798e-07 5.23945e-08 -0.000732333)
(0.000626682 -1.68158e-05 -1.29808e-06)
(-3.8876e-06 0.000731545 -5.94577e-07)
(-1.90242e-07 -8.34636e-08 0.000730841)
(1.95105e-07 8.56786e-08 -0.000730355)
(0.000627209 -2.14997e-05 -1.69614e-06)
(-3.98145e-06 0.000729432 -8.54017e-07)
(-2.09718e-07 -1.15223e-07 0.000729539)
(2.15082e-07 1.18317e-07 -0.000729024)
(0.000627746 -2.58889e-05 -2.10744e-06)
(-4.24769e-06 0.000727939 -1.15392e-06)
(-2.43172e-07 -1.4703e-07 0.00072881)
(2.49309e-07 1.51018e-07 -0.000728243)
(0.0006283 -3.00852e-05 -2.54524e-06)
(-4.67731e-06 0.000726965 -1.5154e-06)
(-2.92414e-07 -1.78676e-07 0.000728566)
(2.99618e-07 1.83592e-07 -0.00072793)
(0.000628874 -3.41897e-05 -3.01588e-06)
(-5.27024e-06 0.000726424 -1.96177e-06)
(-3.60489e-07 -2.08573e-07 0.000728724)
(3.69077e-07 2.14459e-07 -0.000728005)
(0.000629464 -3.83111e-05 -3.51979e-06)
(-6.03139e-06 0.000726224 -2.52077e-06)
(-4.51648e-07 -2.32603e-07 0.000729181)
(4.61897e-07 2.39444e-07 -0.000728372)
(0.000630058 -4.2578e-05 -4.04552e-06)
(-6.96711e-06 0.000726253 -3.22716e-06)
(-5.71411e-07 -2.41869e-07 0.000729796)
(5.8361e-07 2.49531e-07 -0.0007289)
(0.000630632 -4.71577e-05 -4.56399e-06)
(-8.07969e-06 0.000726367 -4.12645e-06)
(-7.26448e-07 -2.19275e-07 0.000730369)
(7.40768e-07 2.27459e-07 -0.000729404)
(0.000631158 -5.22793e-05 -5.02062e-06)
(-9.35232e-06 0.000726356 -5.28194e-06)
(-9.22464e-07 -1.34497e-07 0.000730609)
(9.38738e-07 1.42682e-07 -0.00072962)
(0.000631606 -5.82181e-05 -5.31942e-06)
(-1.07102e-05 0.000725887 -6.78687e-06)
(-1.15676e-06 6.26963e-08 0.000730097)
(1.17367e-06 -5.52054e-08 -0.00072916)
(0.000631949 -6.5192e-05 -5.31438e-06)
(-1.1929e-05 0.000724404 -8.78878e-06)
(-1.40637e-06 4.44866e-07 0.000728249)
(1.41874e-06 -4.39088e-07 -0.000727476)
(0.000632166 -7.30285e-05 -4.83614e-06)
(-1.24213e-05 0.000721084 -1.15362e-05)
(-1.59475e-06 1.08066e-06 0.000724448)
(1.59099e-06 -1.07904e-06 -0.000723942)
(0.000632197 -8.0366e-05 -3.88507e-06)
(-1.04145e-05 0.00071483 -1.54859e-05)
(-1.50296e-06 1.91418e-06 0.000718482)
(1.48002e-06 -1.93513e-06 -0.000718112)
(-2.47834e-05 0.000709209 -9.22689e-06)
(-1.93696e-06 3.34615e-06 0.000710568)
(4.7084e-06 -4.689e-06 -0.000709554)
(0.00062542 -5.58478e-06 -5.44609e-07)
(-4.59586e-06 0.000742571 -1.31068e-07)
(-2.1385e-07 -1.33426e-08 0.000740293)
(2.19268e-07 1.37012e-08 -0.000739736)
(0.000625813 -1.07207e-05 -1.04944e-06)
(-4.38607e-06 0.000739537 -3.90615e-07)
(-2.10387e-07 -3.91689e-08 0.000737932)
(2.15754e-07 4.02247e-08 -0.000737392)
(0.000626181 -1.53488e-05 -1.5217e-06)
(-4.26078e-06 0.000736171 -6.52351e-07)
(-2.15387e-07 -6.30969e-08 0.000735241)
(2.20939e-07 6.4815e-08 -0.000734711)
(0.000626532 -1.95805e-05 -1.98763e-06)
(-4.33863e-06 0.000733661 -9.3439e-07)
(-2.34414e-07 -8.49525e-08 0.000733338)
(2.40468e-07 8.73061e-08 -0.000732791)
(0.00062687 -2.35105e-05 -2.46959e-06)
(-4.59247e-06 0.000731866 -1.25804e-06)
(-2.67451e-07 -1.04366e-07 0.000732092)
(2.74272e-07 1.07319e-07 -0.000731506)
(0.000627191 -2.72276e-05 -2.98431e-06)
(-5.00646e-06 0.000730679 -1.64463e-06)
(-3.15384e-07 -1.19991e-07 0.000731395)
(3.23279e-07 1.23501e-07 -0.000730751)
(0.000627484 -3.08208e-05 -3.54225e-06)
(-5.57236e-06 0.000730013 -2.11698e-06)
(-3.79799e-07 -1.28944e-07 0.000731147)
(3.89045e-07 1.32944e-07 -0.000730434)
(0.000627727 -3.43892e-05 -4.15019e-06)
(-6.28467e-06 0.000729788 -2.70171e-06)
(-4.62195e-07 -1.25781e-07 0.000731238)
(4.72914e-07 1.30073e-07 -0.000730449)
(0.000627885 -3.80619e-05 -4.80535e-06)
(-7.13778e-06 0.000729922 -3.43165e-06)
(-5.6329e-07 -1.00806e-07 0.00073153)
(5.75584e-07 1.04974e-07 -0.00073067)
(0.000627916 -4.20273e-05 -5.49051e-06)
(-8.12386e-06 0.000730329 -4.35006e-06)
(-6.82194e-07 -3.78923e-08 0.000731847)
(6.95958e-07 4.12562e-08 -0.000730939)
(0.000627773 -4.65683e-05 -6.1671e-06)
(-9.22434e-06 0.000730896 -5.51926e-06)
(-8.1306e-07 8.79172e-08 0.00073196)
(8.27726e-07 -8.64368e-08 -0.000731046)
(0.000627434 -5.20919e-05 -6.7529e-06)
(-1.03846e-05 0.000731413 -7.0373e-06)
(-9.36457e-07 3.12421e-07 0.000731523)
(9.50296e-07 -3.14462e-07 -0.000730687)
(0.000626949 -5.91025e-05 -7.09182e-06)
(-1.14516e-05 0.000731422 -9.07412e-06)
(-1.01346e-06 6.80335e-07 0.000730012)
(1.02078e-06 -6.88009e-07 -0.000729388)
(0.000626497 -6.78869e-05 -6.89051e-06)
(-1.19582e-05 0.000729884 -1.1934e-05)
(-9.82616e-07 1.22315e-06 0.000726608)
(9.71302e-07 -1.23862e-06 -0.000726411)
(0.000626296 -7.72877e-05 -5.53324e-06)
(-1.0165e-05 0.000724263 -1.61428e-05)
(-7.61415e-07 1.88135e-06 0.000719792)
(7.12524e-07 -1.91343e-06 -0.000720492)
(-2.42986e-05 0.000724889 -9.69773e-06)
(-4.74187e-07 2.90913e-06 0.000714117)
(1.73671e-06 -3.88775e-06 -0.000717264)
(0.000625239 -4.99713e-06 -6.12658e-07)
(-4.8407e-06 0.000747568 -1.37807e-07)
(-2.34554e-07 -9.34985e-09 0.00074551)
(2.40531e-07 9.61185e-09 -0.000744891)
(0.000625459 -9.58115e-06 -1.1804e-06)
(-4.61164e-06 0.00074412 -4.10213e-07)
(-2.29658e-07 -2.71883e-08 0.000742505)
(2.35552e-07 2.79563e-08 -0.000741918)
(0.000625655 -1.36881e-05 -1.71065e-06)
(-4.4632e-06 0.000740277 -6.83702e-07)
(-2.32827e-07 -4.28056e-08 0.000739117)
(2.38873e-07 4.40328e-08 -0.000738555)
(0.000625828 -1.74076e-05 -2.23253e-06)
(-4.51795e-06 0.000737379 -9.7657e-07)
(-2.49867e-07 -5.53102e-08 0.000736615)
(2.56387e-07 5.69409e-08 -0.000736051)
(0.000625971 -2.08132e-05 -2.77164e-06)
(-4.74283e-06 0.00073527 -1.30996e-06)
(-2.80146e-07 -6.36012e-08 0.000734844)
(2.87381e-07 6.55715e-08 -0.000734253)
(0.000626071 -2.39712e-05 -3.34754e-06)
(-5.11476e-06 0.000733835 -1.70436e-06)
(-3.23568e-07 -6.56989e-08 0.000733675)
(3.31811e-07 6.79102e-08 -0.000733039)
(0.000626105 -2.6945e-05 -3.97547e-06)
(-5.61568e-06 0.000732985 -2.18078e-06)
(-3.80207e-07 -5.82182e-08 0.000732997)
(3.89653e-07 6.0499e-08 -0.000732305)
(0.000626038 -2.98046e-05 -4.66868e-06)
(-6.22824e-06 0.000732645 -2.76293e-06)
(-4.49158e-07 -3.57708e-08 0.000732694)
(4.59749e-07 3.78222e-08 -0.00073194)
(0.000625821 -3.26431e-05 -5.4328e-06)
(-6.93242e-06 0.000732759 -3.47927e-06)
(-5.27479e-07 9.77728e-09 0.00073264)
(5.39098e-07 -8.44855e-09 -0.000731829)
(0.00062539 -3.56014e-05 -6.26461e-06)
(-7.7052e-06 0.000733287 -4.36669e-06)
(-6.09242e-07 9.00999e-08 0.000732696)
(6.21475e-07 -9.02488e-08 -0.000731848)
(0.000624674 -3.8899e-05 -7.14913e-06)
(-8.51995e-06 0.000734196 -5.47976e-06)
(-6.82387e-07 2.20488e-07 0.000732693)
(6.94145e-07 -2.23312e-07 -0.000731848)
(0.00062362 -4.28874e-05 -8.0439e-06)
(-9.34018e-06 0.000735409 -6.91088e-06)
(-7.21157e-07 4.17625e-07 0.000732388)
(7.30039e-07 -4.25035e-07 -0.00073162)
(0.000622285 -4.81418e-05 -8.84663e-06)
(-1.01157e-05 0.000736691 -8.83994e-06)
(-6.845e-07 6.93797e-07 0.000731398)
(6.84429e-07 -7.08347e-07 -0.000730829)
(0.000621031 -5.54833e-05 -9.27658e-06)
(-1.06843e-05 0.00073725 -1.16421e-05)
(-5.30641e-07 1.04342e-06 0.000728991)
(5.10032e-07 -1.06809e-06 -0.000728853)
(0.000620747 -6.51613e-05 -8.17261e-06)
(-9.81497e-06 0.000733981 -1.60262e-05)
(-2.57692e-07 1.41627e-06 0.000722857)
(1.9241e-07 -1.45652e-06 -0.000724077)
(-2.53697e-05 0.000751495 -9.75106e-06)
(5.25181e-07 1.96261e-06 0.000726833)
(-3.79514e-07 -2.57582e-06 -0.000734662)
(0.000625055 -4.34988e-06 -6.68093e-07)
(-2.48536e-07 -5.56534e-09 0.000750101)
(2.54905e-07 5.73273e-09 -0.000749432)
(-4.90162e-06 0.000751918 -1.39271e-07)
(0.000625099 -8.33296e-06 -1.28632e-06)
(-2.42172e-07 -1.58781e-08 0.000746491)
(2.48432e-07 1.63672e-08 -0.000745868)
(-4.66272e-06 0.000748103 -4.14108e-07)
(0.000625127 -1.18783e-05 -1.8623e-06)
(-2.43037e-07 -2.38684e-08 0.00074244)
(2.494e-07 2.4634e-08 -0.000741858)
(-4.4971e-06 0.000743821 -6.88892e-07)
(0.000625129 -1.50473e-05 -2.42709e-06)
(-2.57019e-07 -2.81919e-08 0.000739356)
(2.63801e-07 2.91617e-08 -0.000738786)
(-4.52649e-06 0.000740547 -9.8136e-07)
(0.000625091 -1.78879e-05 -3.00817e-06)
(-2.82971e-07 -2.72924e-08 0.000737057)
(2.90398e-07 2.83804e-08 -0.000736474)
(-4.71304e-06 0.00073811 -1.31162e-06)
(0.000624995 -2.04379e-05 -3.6274e-06)
(-3.19925e-07 -1.8939e-08 0.000735401)
(3.28228e-07 2.00073e-08 -0.000734787)
(-5.02667e-06 0.000736384 -1.69852e-06)
(0.00062481 -2.27272e-05 -4.30387e-06)
(-3.66677e-07 1.55031e-10 0.000734262)
(3.75956e-07 6.66698e-10 -0.000733606)
(-5.43998e-06 0.000735273 -2.16038e-06)
(0.000624495 -2.47846e-05 -5.05476e-06)
(-4.20704e-07 3.45434e-08 0.000733521)
(4.30801e-07 -3.42546e-08 -0.000732816)
(-5.92309e-06 0.000734702 -2.71674e-06)
(0.000623992 -2.66426e-05 -5.89082e-06)
(-4.77117e-07 8.99914e-08 0.000733057)
(4.87739e-07 -9.06066e-08 -0.00073231)
(-6.43994e-06 0.000734618 -3.38973e-06)
(0.000623222 -2.83424e-05 -6.8196e-06)
(-5.2778e-07 1.73259e-07 0.000732748)
(5.38255e-07 -1.75322e-07 -0.000731979)
(-6.94614e-06 0.000734989 -4.2063e-06)
(0.000622079 -2.9934e-05 -7.84532e-06)
(-5.59189e-07 2.91074e-07 0.000732442)
(5.6806e-07 -2.95325e-07 -0.000731692)
(-7.38548e-06 0.000735792 -5.20414e-06)
(0.000620416 -3.14867e-05 -8.96285e-06)
(-5.479e-07 4.45961e-07 0.000731897)
(5.52382e-07 -4.53236e-07 -0.000731246)
(-7.68155e-06 0.000736969 -6.44388e-06)
(0.000618025 -3.31323e-05 -1.0144e-05)
(-4.61639e-07 6.28515e-07 0.000730644)
(4.56064e-07 -6.39013e-07 -0.000730265)
(-7.7193e-06 0.000738347 -8.03725e-06)
(0.000614591 -3.52326e-05 -1.12528e-05)
(-2.7696e-07 8.10422e-07 0.000727557)
(2.51797e-07 -8.21883e-07 -0.00072789)
(-7.2248e-06 0.000739362 -1.02003e-05)
(0.00060976 -3.96392e-05 -1.13278e-05)
(-1.27166e-08 9.5552e-07 0.000719376)
(-4.99e-08 -9.5722e-07 -0.000722029)
(-4.92162e-06 0.00073839 -1.32978e-05)
(8.38839e-07 9.11931e-07 0.000753881)
(-1.37802e-06 -1.14036e-06 -0.000767511)
(-3.58634e-05 0.000801789 -8.0622e-06)
(0.000626049 -7.3348e-06 -4.92185e-08)
(-1.05095e-06 0.000710458 -2.61086e-08)
(-2.19499e-08 -2.46937e-08 0.000707421)
(0.00062706 -1.41251e-05 -9.50526e-08)
(-1.01202e-06 0.00070991 -7.8184e-08)
(-2.18761e-08 -7.39782e-08 0.000708334)
(0.000628059 -2.03179e-05 -1.37956e-07)
(-1.00053e-06 0.000709309 -1.31467e-07)
(-2.30408e-08 -1.24433e-07 0.000709191)
(0.000629102 -2.60759e-05 -1.79996e-07)
(-1.04527e-06 0.000708871 -1.89709e-07)
(-2.61496e-08 -1.79599e-07 0.000710152)
(0.000630244 -3.15328e-05 -2.22476e-07)
(-1.14422e-06 0.000708565 -2.57401e-07)
(-3.14641e-08 -2.44088e-07 0.000711264)
(0.000631541 -3.67927e-05 -2.65812e-07)
(-1.29961e-06 0.000708362 -3.39126e-07)
(-3.95884e-08 -3.23449e-07 0.000712576)
(0.000633054 -4.19244e-05 -3.09701e-07)
(-1.51712e-06 0.000708227 -4.4e-07)
(-5.16477e-08 -4.25101e-07 0.000714141)
(0.000634855 -4.69522e-05 -3.52571e-07)
(-1.80665e-06 0.000708112 -5.65678e-07)
(-6.95039e-08 -5.59694e-07 0.00071601)
(0.000637028 -5.18376e-05 -3.91274e-07)
(-2.18189e-06 0.000707953 -7.21923e-07)
(-9.6238e-08 -7.43182e-07 0.000718244)
(0.000639671 -5.64531e-05 -4.22131e-07)
(-2.65903e-06 0.000707656 -9.14111e-07)
(-1.3705e-07 -1.00035e-06 0.000720903)
(0.000642899 -6.05558e-05 -4.43101e-07)
(-3.25652e-06 0.000707095 -1.14459e-06)
(-2.00396e-07 -1.37043e-06 0.000724053)
(0.00064683 -6.3771e-05 -4.60028e-07)
(-3.98796e-06 0.000706115 -1.40417e-06)
(-2.98902e-07 -1.91486e-06 0.000727768)
(0.000651547 -6.56425e-05 -5.02239e-07)
(-4.8398e-06 0.000704579 -1.64937e-06)
(-4.47328e-07 -2.7239e-06 0.000732138)
(0.000656953 -6.5865e-05 -6.3927e-07)
(-5.67799e-06 0.000702512 -1.74979e-06)
(-6.39799e-07 -3.89843e-06 0.000737265)
(0.000662145 -6.47406e-05 -9.42955e-07)
(-5.7097e-06 0.000700331 -1.47793e-06)
(-7.50407e-07 -5.4079e-06 0.000742938)
(-1.43959e-05 0.000697349 -9.2026e-07)
(-2.02649e-06 -8.31949e-06 0.000754368)
(0.000625998 -7.21186e-06 -1.46726e-07)
(-2.05335e-06 0.000717668 -5.12642e-08)
(-6.50526e-08 -2.37922e-08 0.000714715)
(0.000626957 -1.38855e-05 -2.83248e-07)
(-1.97556e-06 0.000716579 -1.53308e-07)
(-6.48266e-08 -7.12359e-08 0.000715027)
(0.000627902 -1.99673e-05 -4.11062e-07)
(-1.95e-06 0.000715383 -2.57326e-07)
(-6.81821e-08 -1.19599e-07 0.000715228)
(0.000628884 -2.56178e-05 -5.36256e-07)
(-2.03271e-06 0.00071451 -3.70649e-07)
(-7.71504e-08 -1.71971e-07 0.000715688)
(0.000629953 -3.09709e-05 -6.62813e-07)
(-2.21903e-06 0.000713903 -5.01938e-07)
(-9.24234e-08 -2.32297e-07 0.000716422)
(0.000631156 -3.6132e-05 -7.92434e-07)
(-2.51157e-06 0.000713503 -6.60096e-07)
(-1.1566e-07 -3.05142e-07 0.000717441)
(0.000632548 -4.11788e-05 -9.24413e-07)
(-2.92041e-06 0.000713246 -8.54744e-07)
(-1.49789e-07 -3.96202e-07 0.000718755)
(0.000634187 -4.61539e-05 -1.05439e-06)
(-3.46239e-06 0.00071305 -1.09615e-06)
(-1.99594e-07 -5.12874e-07 0.000720364)
(0.000636138 -5.10466e-05 -1.17356e-06)
(-4.1587e-06 0.000712796 -1.39501e-06)
(-2.73003e-07 -6.65261e-07 0.000722248)
(0.000638469 -5.57746e-05 -1.26951e-06)
(-5.03328e-06 0.000712314 -1.76039e-06)
(-3.82943e-07 -8.67449e-07 0.000724358)
(0.000641242 -6.01574e-05 -1.33307e-06)
(-6.10558e-06 0.000711375 -2.19344e-06)
(-5.49372e-07 -1.13842e-06 0.000726609)
(0.000644471 -6.38851e-05 -1.37351e-06)
(-7.36643e-06 0.000709687 -2.67085e-06)
(-7.99263e-07 -1.50072e-06 0.000728873)
(0.000648042 -6.65134e-05 -1.45518e-06)
(-8.71784e-06 0.000706962 -3.10174e-06)
(-1.15626e-06 -1.97158e-06 0.00073102)
(0.000651497 -6.75673e-05 -1.74233e-06)
(-9.77891e-06 0.000703178 -3.23742e-06)
(-1.5792e-06 -2.53673e-06 0.000733041)
(0.000653779 -6.6943e-05 -2.42177e-06)
(-9.15333e-06 0.000699124 -2.68581e-06)
(-1.7444e-06 -3.1062e-06 0.000735162)
(-1.34853e-05 0.000688562 -5.33293e-07)
(-3.41738e-06 -2.50362e-06 0.000732455)
(0.000625903 -6.97862e-06 -2.41043e-07)
(-2.96387e-06 0.000724646 -7.42159e-08)
(-1.058e-07 -2.20192e-08 0.000721804)
(0.000626769 -1.34288e-05 -4.64975e-07)
(-2.84785e-06 0.000723025 -2.21689e-07)
(-1.05307e-07 -6.5767e-08 0.000721472)
(0.000627615 -1.9296e-05 -6.74913e-07)
(-2.80406e-06 0.000721243 -3.71565e-07)
(-1.10347e-07 -1.09824e-07 0.000720973)
(0.000628487 -2.47386e-05 -8.80806e-07)
(-2.91312e-06 0.000719942 -5.34294e-07)
(-1.24068e-07 -1.56517e-07 0.000720885)
(0.000629424 -2.98893e-05 -1.08921e-06)
(-3.16614e-06 0.000719039 -7.21951e-07)
(-1.47398e-07 -2.08768e-07 0.000721184)
(0.000630463 -3.48567e-05 -1.30382e-06)
(-3.56399e-06 0.000718452 -9.46879e-07)
(-1.82582e-07 -2.69628e-07 0.000721843)
(0.000631643 -3.97308e-05 -1.52408e-06)
(-4.11769e-06 0.000718097 -1.22211e-06)
(-2.33339e-07 -3.42257e-07 0.000722832)
(0.000633001 -4.458e-05 -1.74354e-06)
(-4.84551e-06 0.000717869 -1.56123e-06)
(-3.05588e-07 -4.29732e-07 0.000724099)
(0.000634574 -4.94454e-05 -1.94882e-06)
(-5.76999e-06 0.000717623 -1.97792e-06)
(-4.08875e-07 -5.34512e-07 0.000725555)
(0.000636394 -5.43297e-05 -2.11848e-06)
(-6.91341e-06 0.00071715 -2.48261e-06)
(-5.57726e-07 -6.5697e-07 0.000727056)
(0.000638465 -5.91665e-05 -2.22988e-06)
(-8.28008e-06 0.000716153 -3.07317e-06)
(-7.72167e-07 -7.91889e-07 0.000728379)
(0.000640726 -6.37897e-05 -2.2768e-06)
(-9.81718e-06 0.000714243 -3.71121e-06)
(-1.07361e-06 -9.21584e-07 0.000729208)
(0.000642965 -6.78774e-05 -2.31001e-06)
(-1.13233e-05 0.000710997 -4.26385e-06)
(-1.46421e-06 -1.0047e-06 0.000729189)
(0.000644692 -7.092e-05 -2.5007e-06)
(-1.22149e-05 0.000706251 -4.39223e-06)
(-1.85108e-06 -9.71187e-07 0.000728177)
(0.00064522 -7.24132e-05 -3.10975e-06)
(-1.08486e-05 0.000700875 -3.59655e-06)
(-1.85181e-06 -7.81308e-07 0.00072685)
(-1.53502e-05 0.000691261 -5.80288e-07)
(-2.3278e-06 -8.66516e-08 0.000720989)
(0.000625771 -6.63302e-06 -3.29827e-07)
(-3.74476e-06 0.000731277 -9.39721e-08)
(-1.42757e-07 -1.94676e-08 0.000728579)
(0.000626506 -1.27528e-05 -6.3579e-07)
(-3.59236e-06 0.000729141 -2.80401e-07)
(-1.41676e-07 -5.78606e-08 0.000727572)
(0.000627219 -1.83073e-05 -9.22926e-07)
(-3.52638e-06 0.000726791 -4.69169e-07)
(-1.47513e-07 -9.56962e-08 0.000726344)
(0.000627942 -2.34473e-05 -1.2049e-06)
(-3.64749e-06 0.000725073 -6.73103e-07)
(-1.64325e-07 -1.34482e-07 0.000725672)
(0.000628703 -2.82983e-05 -1.49106e-06)
(-3.94097e-06 0.000723878 -9.06973e-07)
(-1.93007e-07 -1.76033e-07 0.000725492)
(0.000629527 -3.29701e-05 -1.78759e-06)
(-4.40412e-06 0.000723109 -1.1855e-06)
(-2.35721e-07 -2.21717e-07 0.000725743)
(0.000630431 -3.7563e-05 -2.09452e-06)
(-5.04452e-06 0.000722671 -1.52378e-06)
(-2.95947e-07 -2.72103e-07 0.000726359)
(0.000631432 -4.21737e-05 -2.40434e-06)
(-5.87716e-06 0.000722458 -1.93726e-06)
(-3.78968e-07 -3.2629e-07 0.000727252)
(0.000632539 -4.6899e-05 -2.70073e-06)
(-6.92041e-06 0.000722323 -2.44068e-06)
(-4.92546e-07 -3.80286e-07 0.000728288)
(0.000633747 -5.18361e-05 -2.95591e-06)
(-8.1884e-06 0.00072206 -3.04439e-06)
(-6.47134e-07 -4.24064e-07 0.000729264)
(0.000635029 -5.70722e-05 -3.13061e-06)
(-9.67023e-06 0.000721369 -3.7434e-06)
(-8.54048e-07 -4.36917e-07 0.000729874)
(0.00063631 -6.26444e-05 -3.18594e-06)
(-1.12822e-05 0.00071982 -4.48901e-06)
(-1.11797e-06 -3.81203e-07 0.000729694)
(0.000637419 -6.84328e-05 -3.11721e-06)
(-1.2758e-05 0.000716862 -5.12132e-06)
(-1.41515e-06 -2.0083e-07 0.000728212)
(0.000638051 -7.3964e-05 -3.02711e-06)
(-1.3425e-05 0.000712035 -5.24424e-06)
(-1.63331e-06 1.54301e-07 0.000725127)
(0.000637945 -7.81748e-05 -3.22246e-06)
(-1.16153e-05 0.000705668 -4.28365e-06)
(-1.46735e-06 6.28559e-07 0.00072119)
(-1.55622e-05 0.000697506 -7.71044e-07)
(-1.48426e-06 1.33993e-06 0.000714282)
(0.000625611 -6.1858e-06 -4.10611e-07)
(-4.36713e-06 0.000737462 -1.09664e-07)
(-1.74628e-07 -1.61846e-08 0.000734935)
(0.000626189 -1.18847e-05 -7.91811e-07)
(-4.18198e-06 0.000734837 -3.26924e-07)
(-1.72584e-07 -4.78298e-08 0.000733241)
(0.000626741 -1.70436e-05 -1.1492e-06)
(-4.09101e-06 0.000731945 -5.45988e-07)
(-1.78223e-07 -7.81895e-08 0.000731275)
(0.00062729 -2.1797e-05 -1.49999e-06)
(-4.20943e-06 0.000729819 -7.8126e-07)
(-1.96318e-07 -1.07926e-07 0.000729998)
(0.000627849 -2.62588e-05 -1.85721e-06)
(-4.51608e-06 0.000728331 -1.04936e-06)
(-2.27405e-07 -1.37727e-07 0.00072931)
(0.000628428 -3.05336e-05 -2.22947e-06)
(-5.00244e-06 0.000727372 -1.36636e-06)
(-2.73009e-07 -1.67443e-07 0.000729119)
(0.000629029 -3.4725e-05 -2.61781e-06)
(-5.66972e-06 0.000726849 -1.74805e-06)
(-3.3564e-07 -1.9563e-07 0.000729336)
(0.000629644 -3.89451e-05 -3.01558e-06)
(-6.52532e-06 0.000726664 -2.21009e-06)
(-4.18714e-07 -2.18653e-07 0.000729852)
(0.000630257 -4.33272e-05 -3.40644e-06)
(-7.57844e-06 0.000726692 -2.76715e-06)
(-5.26196e-07 -2.28859e-07 0.000730514)
(0.000630838 -4.80421e-05 -3.75973e-06)
(-8.83389e-06 0.000726768 -3.42898e-06)
(-6.6189e-07 -2.11861e-07 0.000731106)
(0.000631345 -5.3318e-05 -4.02263e-06)
(-1.02744e-05 0.000726653 -4.18924e-06)
(-8.26074e-07 -1.43187e-07 0.000731318)
(0.000631727 -5.94093e-05 -4.11815e-06)
(-1.18143e-05 0.00072596 -4.99669e-06)
(-1.00688e-06 1.46945e-08 0.0007307)
(0.00063192 -6.64688e-05 -3.96233e-06)
(-1.31899e-05 0.000724059 -5.68377e-06)
(-1.16671e-06 3.0749e-07 0.000728656)
(0.000631839 -7.41648e-05 -3.53183e-06)
(-1.37268e-05 0.000720055 -5.82898e-06)
(-1.21219e-06 7.55811e-07 0.000724603)
(0.000631437 -8.08484e-05 -3.13127e-06)
(-1.17467e-05 0.000712997 -4.80304e-06)
(-9.69235e-07 1.26866e-06 0.0007186)
(-1.48787e-05 0.000706603 -1.08159e-06)