/*--------------------------------*- C++ -*----------------------------------*\
| =========                 |                                                 |
| \\      /  F ield         | foam-extend: Open Source CFD                    |
|  \\    /   O peration     | Version:     3.1                                |
|   \\  /    A nd           | Web:         http://www.extend-project.de       |
|    \\/     M anipulation  |                                                 |
\*---------------------------------------------------------------------------*/
FoamFile
{
    version     2.0;
    format      ascii;
    class       volVectorField;
    location    "1";
    object      U;
}
// * * * * * * * * * * * * * * * * * * * * * * * * * * * * * * * * * * * * * //

dimensions      [0 1 -1 0 0 0 0];

internalField   nonuniform List<vector> 
14592
(
(0.0204099 -0.00212153 -0.00673545)
(0.0246992 -0.00249342 -0.0122182)
(0.0297641 -0.00185848 -0.0136019)
(0.0340385 -0.00119069 -0.0132037)
(0.0368993 -0.00065247 -0.0122298)
(0.0385664 -0.000277592 -0.0112842)
(0.0393631 -3.09015e-05 -0.0106629)
(0.0395462 0.000132917 -0.0105218)
(0.0392822 0.000248245 -0.0109717)
(0.0386655 0.000325386 -0.012139)
(0.0377422 0.000353285 -0.014213)
(0.0365168 0.000295516 -0.017511)
(0.0349405 7.44345e-05 -0.0225912)
(0.0327154 -0.000405463 -0.0303702)
(0.0283645 -0.000897373 -0.0414483)
(0.0179414 -0.000267773 -0.0443214)
(0.0532453 -0.00480445 -0.00883933)
(0.0575307 -0.00876713 -0.0204077)
(0.0632294 -0.00827827 -0.0248544)
(0.0688779 -0.00624147 -0.0250795)
(0.0731358 -0.00404912 -0.0234936)
(0.0757971 -0.00225474 -0.0215373)
(0.077118 -0.000941086 -0.019962)
(0.0774119 -4.45817e-09 -0.0191486)
(0.0769046 0.00070504 -0.0193234)
(0.0757126 0.00127081 -0.0207004)
(0.0738541 0.00175243 -0.0235748)
(0.0712203 0.00216029 -0.0284336)
(0.0675023 0.0024564 -0.0361445)
(0.0618671 0.00256061 -0.0481753)
(0.0512921 0.00249115 -0.0654108)
(0.0280134 0.00166124 -0.066002)
(0.0812605 -0.00591763 -0.00780003)
(0.0823622 -0.0132421 -0.021467)
(0.0842565 -0.0138689 -0.0280999)
(0.0870513 -0.0111966 -0.0293403)
(0.0896853 -0.00764608 -0.0278299)
(0.0914657 -0.00443673 -0.0254962)
(0.0922814 -0.00193238 -0.0234286)
(0.092243 -4.82995e-05 -0.0221752)
(0.0914553 0.00141573 -0.0220321)
(0.0899568 0.00265394 -0.0232439)
(0.0876985 0.00380996 -0.0261314)
(0.0844818 0.00497462 -0.031223)
(0.0798633 0.00620277 -0.039478)
(0.0728373 0.00750028 -0.0525818)
(0.0599259 0.00849181 -0.071774)
(0.0313822 0.00578022 -0.0720449)
(0.105238 -0.00547266 -0.00670607)
(0.103621 -0.0142156 -0.020943)
(0.101271 -0.0160539 -0.0289207)
(0.0999334 -0.0135911 -0.0309747)
(0.0996066 -0.00955644 -0.0296119)
(0.0994854 -0.00558675 -0.0270538)
(0.0991384 -0.00231179 -0.0246524)
(0.0984135 0.000270405 -0.0230813)
(0.0972312 0.00236281 -0.0226789)
(0.0955113 0.0042289 -0.0236871)
(0.0931124 0.00608459 -0.0264191)
(0.0897633 0.00810176 -0.031404)
(0.0849498 0.0104299 -0.0396256)
(0.0776055 0.0131486 -0.0528629)
(0.0640932 0.0154557 -0.072671)
(0.0336913 0.0107028 -0.073894)
(0.124759 -0.00429921 -0.00600026)
(0.121507 -0.0125018 -0.020429)
(0.115935 -0.0149073 -0.029282)
(0.110835 -0.013009 -0.0319151)
(0.107449 -0.00923012 -0.0306274)
(0.105199 -0.00523636 -0.0278376)
(0.103494 -0.00176645 -0.0251168)
(0.101969 0.00110405 -0.023243)
(0.100374 0.0035646 -0.0225734)
(0.0985121 0.00589383 -0.0233315)
(0.0961478 0.00835385 -0.0258016)
(0.0929495 0.0111872 -0.0304847)
(0.0883447 0.0146366 -0.0383449)
(0.0811961 0.0188723 -0.0511881)
(0.0677154 0.0227873 -0.0708949)
(0.0364146 0.0164958 -0.0734473)
(0.139504 -0.00292119 -0.00559229)
(0.135372 -0.00923668 -0.0201327)
(0.127708 -0.0113875 -0.0295726)
(0.1198 -0.0100209 -0.0325975)
(0.113912 -0.00693233 -0.0313222)
(0.109834 -0.00348558 -0.028297)
(0.106941 -0.000322513 -0.0252642)
(0.10474 0.00242594 -0.0230834)
(0.102853 0.0049614 -0.0221214)
(0.10099 0.00754325 -0.0225691)
(0.0988538 0.0104548 -0.0246628)
(0.0960788 0.0140036 -0.0288452)
(0.0920516 0.0185525 -0.0360094)
(0.0855496 0.0244751 -0.0479181)
(0.0726458 0.0306953 -0.0668368)
(0.0406562 0.0242165 -0.0708012)
(0.149352 -0.00151448 -0.00537192)
(0.144774 -0.00513612 -0.0199887)
(0.135898 -0.00636133 -0.0297808)
(0.12621 -0.00537017 -0.0330256)
(0.118652 -0.00320191 -0.0317138)
(0.113345 -0.000690357 -0.0284777)
(0.109657 0.00174488 -0.025164)
(0.107047 0.00404789 -0.0227033)
(0.105095 0.00639081 -0.0214415)
(0.103435 0.00900264 -0.0215289)
(0.101762 0.0121677 -0.0231376)
(0.0997321 0.0162536 -0.0266161)
(0.0967683 0.0217945 -0.0327103)
(0.0916141 0.0296141 -0.0429967)
(0.080696 0.0395897 -0.0601275)
(0.0483848 0.0367117 -0.064962)
(0.154268 -0.000100177 -0.00527126)
(0.149488 -0.000623356 -0.0199243)
(0.140069 -0.000537932 -0.0298486)
(0.129574 0.000185328 -0.0331415)
(0.121275 0.00130166 -0.0317492)
(0.11544 0.00262414 -0.0283412)
(0.111477 0.00406668 -0.0248267)
(0.108848 0.00570066 -0.022133)
(0.107091 0.00764235 -0.0205868)
(0.105851 0.0100709 -0.0202901)
(0.104873 0.0132418 -0.0213361)
(0.103931 0.0175431 -0.0239404)
(0.10269 0.0236551 -0.0286015)
(0.100169 0.0329505 -0.0364137)
(0.0952868 0.048535 -0.0500947)
(0.0651893 0.0569903 -0.0534172)
(0.0217309 -0.00231798 -0.00628353)
(0.0260736 -0.00275244 -0.0114547)
(0.0311451 -0.00206655 -0.0128518)
(0.0353395 -0.00133294 -0.012575)
(0.0379967 -0.000735717 -0.0117296)
(0.0393492 -0.000317816 -0.0108852)
(0.0397444 -4.32334e-05 -0.0103292)
(0.0394505 0.000138716 -0.0102163)
(0.0386219 0.000267865 -0.0106528)
(0.0373144 0.000356864 -0.011751)
(0.0355007 0.000395746 -0.013663)
(0.0330594 0.000350242 -0.0166137)
(0.0297454 0.000149522 -0.0209184)
(0.0248808 -0.000262559 -0.0268181)
(0.0168959 -0.000829002 -0.0331937)
(0.00706758 -0.00186804 -0.0300672)
(0.0568725 -0.00508458 -0.00802464)
(0.0610305 -0.00946602 -0.0188105)
(0.066487 -0.00905022 -0.0231825)
(0.0718037 -0.00688676 -0.0236266)
(0.0756068 -0.0044982 -0.0223134)
(0.0776744 -0.00251805 -0.0205881)
(0.078277 -0.00105886 -0.0191757)
(0.0777374 -8.91521e-06 -0.0184535)
(0.0762615 0.000783835 -0.018644)
(0.0739054 0.00143146 -0.0199428)
(0.0705734 0.00200234 -0.0225918)
(0.065963 0.00252047 -0.0269402)
(0.0594858 0.00296102 -0.0334753)
(0.0497468 0.00327966 -0.0425165)
(0.0335675 0.00327644 -0.0518401)
(0.0134042 0.00092512 -0.044622)
(0.0869574 -0.00615295 -0.00691357)
(0.0877762 -0.0141499 -0.0195)
(0.0891157 -0.0150612 -0.0259552)
(0.0912104 -0.0123031 -0.0274542)
(0.0930851 -0.00847553 -0.0263012)
(0.094039 -0.00495007 -0.0242774)
(0.0939509 -0.00216989 -0.0224319)
(0.0929208 -6.247e-05 -0.0213098)
(0.0910172 0.00158925 -0.0212069)
(0.0882043 0.00300981 -0.0223505)
(0.0843022 0.00437249 -0.0250047)
(0.0788934 0.00579886 -0.0295474)
(0.0712272 0.0073695 -0.0365165)
(0.0596599 0.00908999 -0.0462846)
(0.0402886 0.0103052 -0.0563889)
(0.0158962 0.0063533 -0.0482867)
(0.112702 -0.00562262 -0.00583064)
(0.110779 -0.0150678 -0.0187907)
(0.107678 -0.0173352 -0.0264996)
(0.105286 -0.0148797 -0.0288389)
(0.103855 -0.0105737 -0.0279005)
(0.102644 -0.00623247 -0.0257122)
(0.101213 -0.00260138 -0.0235741)
(0.0993775 0.000289503 -0.0221604)
(0.0970035 0.00265812 -0.0218144)
(0.0939222 0.00480671 -0.022764)
(0.0898465 0.00699666 -0.0252664)
(0.0842712 0.00945222 -0.0296971)
(0.0763562 0.0123751 -0.0366088)
(0.064364 0.0158361 -0.0464239)
(0.0439792 0.0186683 -0.0567503)
(0.0178495 0.0129703 -0.0490217)
(0.133636 -0.00438468 -0.00514658)
(0.130118 -0.0131767 -0.0181551)
(0.123726 -0.0160301 -0.0266599)
(0.117319 -0.0142048 -0.029599)
(0.112517 -0.0102033 -0.028796)
(0.108921 -0.00585041 -0.0264297)
(0.105954 -0.00200602 -0.0240071)
(0.103214 0.00121237 -0.0223117)
(0.10038 0.00400732 -0.0217122)
(0.097154 0.00670087 -0.0224232)
(0.0931451 0.00961454 -0.0246766)
(0.0877803 0.0130677 -0.0288239)
(0.0801507 0.0173937 -0.0354083)
(0.0684479 0.0227759 -0.0448993)
(0.0479207 0.0276545 -0.055115)
(0.0205789 0.0206379 -0.0480916)
(0.149431 -0.00296672 -0.00475516)
(0.145079 -0.00970202 -0.0177692)
(0.136593 -0.0122164 -0.0267953)
(0.127227 -0.0109317 -0.0301411)
(0.119694 -0.00767333 -0.0294012)
(0.114062 -0.00392125 -0.0268463)
(0.109763 -0.000411957 -0.0241425)
(0.106269 0.00267713 -0.022159)
(0.103125 0.00556893 -0.0212813)
(0.0999318 0.00857023 -0.0216974)
(0.0962401 0.0120358 -0.0235982)
(0.0914457 0.0163762 -0.0272888)
(0.0846022 0.0220986 -0.0332703)
(0.0738637 0.0296566 -0.0420491)
(0.0539631 0.0374941 -0.0517745)
(0.0252169 0.0307586 -0.0455013)
(0.159974 -0.00153388 -0.00454426)
(0.155207 -0.00538981 -0.017564)
(0.145528 -0.00682852 -0.0268975)
(0.134303 -0.00587815 -0.0304733)
(0.124958 -0.00358316 -0.0297338)
(0.117965 -0.000840198 -0.0270033)
(0.112779 0.00186956 -0.0240423)
(0.108837 0.00446997 -0.021795)
(0.105649 0.00715869 -0.020632)
(0.102739 0.0102146 -0.0207076)
(0.0996591 0.0140028 -0.0221588)
(0.0958569 0.019021 -0.0252169)
(0.0904534 0.026017 -0.0302896)
(0.0817229 0.0360496 -0.0378672)
(0.0644179 0.0486299 -0.0465528)
(0.0340498 0.0467708 -0.0406773)
(0.165234 -9.98965e-05 -0.00444671)
(0.160279 -0.000666829 -0.0174681)
(0.15007 -0.000612251 -0.026915)
(0.138008 0.000139484 -0.0305474)
(0.127863 0.00134549 -0.0297479)
(0.120287 0.00280831 -0.0268639)
(0.114801 0.00442821 -0.0237168)
(0.110857 0.00629232 -0.0212481)
(0.107925 0.00854128 -0.0198144)
(0.105554 0.0114039 -0.0195286)
(0.103376 0.0152191 -0.0204614)
(0.101013 0.0205204 -0.0227424)
(0.0979168 0.0282591 -0.0266181)
(0.0929249 0.0403018 -0.0324244)
(0.0839143 0.05995 -0.0394141)
(0.0524953 0.0707355 -0.0326488)
(0.0228571 -0.00249022 -0.00564303)
(0.0272506 -0.0029868 -0.0103237)
(0.03234 -0.00226177 -0.0116552)
(0.0364791 -0.00147163 -0.0114782)
(0.0389678 -0.00082106 -0.0107683)
(0.0400451 -0.000363018 -0.0100385)
(0.0400809 -6.19209e-05 -0.00955379)
(0.0393573 0.000137507 -0.00945632)
(0.0380253 0.000280305 -0.00983805)
(0.0361207 0.000382469 -0.0107848)
(0.0335826 0.000437413 -0.0123955)
(0.0302501 0.000417924 -0.0147896)
(0.0258559 0.000268666 -0.0180753)
(0.0198089 -5.35113e-05 -0.0221419)
(0.0113448 -0.00067481 -0.0255345)
(0.00298081 -0.00209127 -0.0206447)
(0.0599801 -0.00531921 -0.00704406)
(0.0640425 -0.010076 -0.0167107)
(0.0693144 -0.00974345 -0.0207938)
(0.0743685 -0.0074803 -0.0213666)
(0.0777924 -0.00492077 -0.020315)
(0.0793452 -0.00277261 -0.0188423)
(0.0793095 -0.00117897 -0.0176137)
(0.0780219 -2.71836e-05 -0.0169796)
(0.0756809 0.000848147 -0.0171401)
(0.072311 0.00157363 -0.0182521)
(0.0677632 0.0022313 -0.0204794)
(0.0616739 0.00285981 -0.0240122)
(0.0534322 0.00345062 -0.0290158)
(0.0417795 0.00395358 -0.0352507)
(0.0249704 0.00388319 -0.0400284)
(0.00744317 0.00103682 -0.0305299)
(0.0918429 -0.00634221 -0.00594882)
(0.0924468 -0.0149258 -0.0171082)
(0.0933476 -0.0161135 -0.0230848)
(0.0948684 -0.013304 -0.0246825)
(0.0961001 -0.0092415 -0.0238428)
(0.0963348 -0.0054339 -0.0221443)
(0.0954444 -0.00240097 -0.0205479)
(0.0935251 -8.5947e-05 -0.0195634)
(0.0906252 0.00174111 -0.0194621)
(0.0866665 0.00333134 -0.0204313)
(0.0814059 0.00488378 -0.0226512)
(0.074355 0.00654341 -0.0263273)
(0.0647344 0.00840281 -0.0316416)
(0.0510073 0.0104212 -0.0383341)
(0.0308679 0.0115739 -0.0433994)
(0.00944308 0.00696935 -0.0326467)
(0.119101 -0.00573852 -0.00493828)
(0.116956 -0.0157832 -0.0163129)
(0.113269 -0.0184505 -0.023405)
(0.110011 -0.0160311 -0.0258134)
(0.107638 -0.0115021 -0.0252249)
(0.105474 -0.00683282 -0.0234143)
(0.103078 -0.00287721 -0.0215711)
(0.100246 0.000299511 -0.0203296)
(0.096807 0.00292493 -0.02001)
(0.0925388 0.00533368 -0.0208021)
(0.0870789 0.0078238 -0.0228799)
(0.0798413 0.0106549 -0.0264432)
(0.069948 0.0140462 -0.0316774)
(0.0557272 0.0179983 -0.0383391)
(0.0344302 0.0208975 -0.0434417)
(0.0112676 0.0144517 -0.0327628)
(0.141241 -0.00444847 -0.00431162)
(0.137542 -0.0137348 -0.015633)
(0.130526 -0.0169964 -0.0234157)
(0.123054 -0.0152627 -0.0264024)
(0.117047 -0.0110832 -0.0259847)
(0.11227 -0.00641565 -0.0240452)
(0.108178 -0.00223111 -0.0219586)
(0.104345 0.00130871 -0.0204663)
(0.100402 0.00441339 -0.0199175)
(0.095984 0.00744004 -0.0204936)
(0.0906175 0.0107565 -0.0223476)
(0.0836402 0.0147327 -0.0256591)
(0.0740974 0.0197375 -0.0306063)
(0.0602095 0.0258846 -0.0369794)
(0.038639 0.0311035 -0.0419559)
(0.0141246 0.0233118 -0.0317779)
(0.157932 -0.00299925 -0.00395675)
(0.153439 -0.0100813 -0.0152115)
(0.144344 -0.012922 -0.0234362)
(0.133801 -0.0117299 -0.0268143)
(0.124873 -0.00833703 -0.0264918)
(0.117878 -0.00431802 -0.0244083)
(0.112323 -0.000494192 -0.022078)
(0.107663 0.00290932 -0.0203281)
(0.103391 0.00613016 -0.0195282)
(0.0990344 0.00951286 -0.0198403)
(0.0940564 0.0134666 -0.0213851)
(0.0877625 0.0184701 -0.0243078)
(0.0791607 0.0250969 -0.0287637)
(0.0664112 0.0337623 -0.0345866)
(0.0453694 0.0423841 -0.0392294)
(0.0191927 0.0350199 -0.0296889)
(0.169067 -0.00154568 -0.00376633)
(0.164185 -0.0055915 -0.0149792)
(0.153922 -0.00721969 -0.0234596)
(0.141469 -0.00631657 -0.0270595)
(0.130612 -0.00391835 -0.0267632)
(0.122144 -0.000970706 -0.0245398)
(0.11562 0.00198889 -0.0219853)
(0.110475 0.00486388 -0.0199978)
(0.106174 0.00787105 -0.018941)
(0.102165 0.0113287 -0.0189514)
(0.0979183 0.015663 -0.0201086)
(0.0928004 0.0214568 -0.0225072)
(0.0859019 0.0295663 -0.0262524)
(0.0755373 0.041086 -0.0312134)
(0.0571597 0.055047 -0.0352467)
(0.028933 0.0530977 -0.02624)
(0.174622 -9.57292e-05 -0.00367737)
(0.169563 -0.000693418 -0.0148686)
(0.158786 -0.000664837 -0.0234414)
(0.145477 0.000110254 -0.0270993)
(0.133776 0.00139521 -0.0267604)
(0.124677 0.00298589 -0.0244049)
(0.117829 0.00476922 -0.0216857)
(0.112699 0.00684648 -0.0194993)
(0.108706 0.0093778 -0.0182002)
(0.105336 0.0126317 -0.0178933)
(0.102153 0.0170094 -0.0186097)
(0.0987274 0.0231393 -0.0203773)
(0.0945129 0.0321159 -0.0232169)
(0.0884915 0.0459752 -0.0269901)
(0.0791077 0.0677387 -0.0302288)
(0.0484437 0.0784857 -0.0210933)
(0.0237912 -0.00263611 -0.00484116)
(0.0282291 -0.00319004 -0.00887913)
(0.0333403 -0.00243581 -0.0100732)
(0.0374427 -0.00159897 -0.00997162)
(0.0397962 -0.000902327 -0.00939752)
(0.040643 -0.00040867 -0.00879108)
(0.0403729 -8.36441e-05 -0.00838245)
(0.0392838 0.000131799 -0.00829415)
(0.0375311 0.000287445 -0.00859948)
(0.0351465 0.000402959 -0.00935705)
(0.0320636 0.000475667 -0.0106206)
(0.0281283 0.000485272 -0.0124346)
(0.0231175 0.000388372 -0.0147937)
(0.0166182 0.000141868 -0.0174721)
(0.00845227 -0.000477437 -0.0192042)
(0.00121816 -0.00196596 -0.0146322)
(0.0625682 -0.00551021 -0.00593161)
(0.0665582 -0.0105897 -0.0142025)
(0.0716897 -0.0103411 -0.0178082)
(0.0765397 -0.00800221 -0.0184198)
(0.079657 -0.0052993 -0.0176078)
(0.0807802 -0.00300558 -0.0163982)
(0.080203 -0.00129333 -0.0153689)
(0.0782788 -5.08071e-05 -0.0148254)
(0.0752108 0.000898416 -0.0149351)
(0.0710158 0.00169385 -0.0158127)
(0.0655349 0.00242987 -0.0175536)
(0.0584164 0.00315746 -0.0202331)
(0.049128 0.00387911 -0.0238389)
(0.036706 0.00452487 -0.0279529)
(0.0204178 0.00443712 -0.0302482)
(0.00483855 0.00137276 -0.021677)
(0.0959148 -0.00649064 -0.00492887)
(0.0963559 -0.0155675 -0.0143904)
(0.0969143 -0.0170078 -0.0196307)
(0.0979746 -0.0141722 -0.0211732)
(0.0986781 -0.0099176 -0.020591)
(0.0983099 -0.00586829 -0.0192182)
(0.0967381 -0.00261391 -0.017889)
(0.0940616 -0.000115032 -0.0170514)
(0.0903228 0.00186745 -0.0169373)
(0.0854288 0.00360687 -0.0176884)
(0.0791215 0.0053233 -0.0194116)
(0.0709224 0.00717859 -0.0221879)
(0.0601353 0.00926894 -0.0260028)
(0.0455252 0.0115018 -0.0303903)
(0.0259235 0.0126135 -0.0327249)
(0.00665808 0.00759421 -0.0230123)
(0.124432 -0.00582606 -0.00404024)
(0.122127 -0.0163656 -0.0136022)
(0.117989 -0.0193872 -0.0197863)
(0.114036 -0.0170199 -0.0220605)
(0.110884 -0.0123137 -0.0217347)
(0.107918 -0.00736612 -0.0202922)
(0.104699 -0.00312756 -0.0187634)
(0.101016 0.000301211 -0.0177092)
(0.0966784 0.00315299 -0.0174084)
(0.0914401 0.00578792 -0.0180061)
(0.0849143 0.00853203 -0.0196036)
(0.0765181 0.0116676 -0.0222749)
(0.0654508 0.0154151 -0.0260029)
(0.0503162 0.0196993 -0.0303233)
(0.0294999 0.0226051 -0.0326065)
(0.00847645 0.015596 -0.0228805)
(0.147575 -0.00449502 -0.00349769)
(0.143751 -0.0141832 -0.0129478)
(0.136267 -0.0177997 -0.0197028)
(0.127946 -0.0161636 -0.0224975)
(0.120945 -0.0118465 -0.0223525)
(0.115172 -0.00691387 -0.0208222)
(0.110117 -0.00243332 -0.0190942)
(0.105347 0.00138872 -0.0178276)
(0.100466 0.00476502 -0.0173301)
(0.0950723 0.00807879 -0.0177427)
(0.0886604 0.0117316 -0.0191498)
(0.0805639 0.0161241 -0.0216095)
(0.0698968 0.0216326 -0.0250988)
(0.0551164 0.0282875 -0.0291793)
(0.0339436 0.0336635 -0.0313467)
(0.011456 0.0252225 -0.0219924)
(0.165009 -0.00302191 -0.00319338)
(0.160426 -0.0103819 -0.0125381)
(0.150884 -0.013503 -0.0196507)
(0.139414 -0.0124038 -0.0227963)
(0.129336 -0.00890821 -0.0227597)
(0.121192 -0.00466509 -0.0211248)
(0.114561 -0.000568782 -0.0191951)
(0.1089 0.00311123 -0.0177098)
(0.103669 0.00661946 -0.0169977)
(0.0983566 0.0103284 -0.017187)
(0.0923863 0.0146856 -0.018338)
(0.0850549 0.0202104 -0.0204846)
(0.0754332 0.027499 -0.0235925)
(0.0618761 0.0368957 -0.0272667)
(0.0411416 0.0459387 -0.0292222)
(0.0168152 0.0379459 -0.0203845)
(0.176637 -0.00155227 -0.00303082)
(0.171685 -0.00574745 -0.0123083)
(0.161001 -0.00753679 -0.0196238)
(0.147587 -0.00668164 -0.0229683)
(0.135489 -0.00420214 -0.0229719)
(0.125777 -0.00108068 -0.0212305)
(0.118108 0.00209501 -0.019115)
(0.111927 0.00521099 -0.0174264)
(0.106678 0.00849492 -0.0164958)
(0.101761 0.0122937 -0.016433)
(0.0966088 0.0170751 -0.0172696)
(0.0905809 0.0234723 -0.0190063)
(0.0828309 0.0323862 -0.0215859)
(0.0718472 0.0448752 -0.0246661)
(0.0537364 0.0595997 -0.0262933)
(0.0271083 0.057291 -0.0179589)
(0.182435 -8.9382e-05 -0.00295435)
(0.177316 -0.000707457 -0.0121979)
(0.166134 -0.000699819 -0.0195848)
(0.151855 9.39676e-05 -0.0229831)
(0.13888 0.00144575 -0.0229581)
(0.128498 0.00314781 -0.0211079)
(0.120483 0.00507458 -0.0188539)
(0.114328 0.00733797 -0.0169965)
(0.109429 0.0101132 -0.0158616)
(0.105227 0.0136972 -0.0155371)
(0.101257 0.0185324 -0.0160214)
(0.0970913 0.0253019 -0.0172756)
(0.0922537 0.0351644 -0.0192039)
(0.0859093 0.0501902 -0.0215103)
(0.0770711 0.0731293 -0.0228119)
(0.0471641 0.0833925 -0.0145314)
(0.0245355 -0.00275429 -0.00390625)
(0.0290098 -0.0033576 -0.00717688)
(0.0341422 -0.00258216 -0.00817251)
(0.0382211 -0.00170833 -0.00812238)
(0.0404709 -0.000973904 -0.00768139)
(0.041134 -0.000450393 -0.00720391)
(0.0406175 -0.00010501 -0.00687683)
(0.0392354 0.000124245 -0.00679829)
(0.037152 0.000291236 -0.00702268)
(0.0344042 0.000418972 -0.00758645)
(0.0309346 0.000508215 -0.00851283)
(0.0266132 0.000543986 -0.00980491)
(0.0212737 0.000490513 -0.0114121)
(0.0146492 0.00030169 -0.0131089)
(0.00687461 -0.000296457 -0.013944)
(0.000384995 -0.00181055 -0.0102892)
(0.0646375 -0.00565985 -0.00471689)
(0.0685735 -0.0110033 -0.0113723)
(0.0736003 -0.0108312 -0.0143434)
(0.0782962 -0.00843682 -0.0149121)
(0.081175 -0.00561914 -0.0143142)
(0.0819565 -0.00320567 -0.0133719)
(0.0809436 -0.00139438 -0.0125546)
(0.0785079 -7.55373e-05 -0.0121108)
(0.0748639 0.000936027 -0.0121705)
(0.0700358 0.00179038 -0.0128119)
(0.0638778 0.00259196 -0.0140821)
(0.0560782 0.00340091 -0.0159913)
(0.0462032 0.00422603 -0.0184553)
(0.0335384 0.00497884 -0.0210651)
(0.0178899 0.00490331 -0.0220634)
(0.00359312 0.00170101 -0.0152967)
(0.0991725 -0.00660321 -0.00387024)
(0.0994927 -0.0160764 -0.0114284)
(0.0997908 -0.0177326 -0.0157216)
(0.100494 -0.0148875 -0.0170725)
(0.100781 -0.0104825 -0.0166905)
(0.0999305 -0.00623627 -0.0156366)
(0.0978093 -0.00279811 -0.0145879)
(0.094523 -0.000145336 -0.013911)
(0.0901179 0.00196697 -0.0137905)
(0.0845033 0.00382983 -0.0143267)
(0.0774324 0.00567949 -0.0155743)
(0.0684682 0.00768938 -0.0175437)
(0.057021 0.00995549 -0.0201411)
(0.0421196 0.0123446 -0.0229071)
(0.0231999 0.0134497 -0.0238475)
(0.00534737 0.00814461 -0.0161799)
(0.128697 -0.00589025 -0.00314181)
(0.126276 -0.0168214 -0.0107283)
(0.121801 -0.020139 -0.0157717)
(0.117309 -0.0178279 -0.017734)
(0.113539 -0.0129867 -0.0175849)
(0.109928 -0.00781435 -0.0164919)
(0.106044 -0.00334201 -0.0152904)
(0.101673 0.000296849 -0.0144417)
(0.0966193 0.00333672 -0.0141713)
(0.0906325 0.00615689 -0.014583)
(0.0833287 0.00910382 -0.0157272)
(0.0741621 0.0124739 -0.0176078)
(0.0624342 0.0164827 -0.0201261)
(0.0469959 0.020996 -0.0228199)
(0.0268333 0.0239142 -0.0236857)
(0.00719677 0.0164967 -0.0159885)
(0.152639 -0.00452808 -0.00270256)
(0.148731 -0.0145301 -0.0101582)
(0.140903 -0.0184392 -0.0156463)
(0.13193 -0.0168947 -0.018042)
(0.124141 -0.0124756 -0.0180603)
(0.117564 -0.00733014 -0.0169117)
(0.111728 -0.00260578 -0.0155563)
(0.106199 0.00145056 -0.0145383)
(0.100567 0.00505149 -0.0141097)
(0.094419 0.00859844 -0.0143728)
(0.0872439 0.0125163 -0.0153656)
(0.0784057 0.0172238 -0.0170798)
(0.0671126 0.0230931 -0.0194127)
(0.0520391 0.0300868 -0.021922)
(0.0314652 0.0355587 -0.0226951)
(0.0102786 0.0266278 -0.0152731)
(0.170667 -0.00303724 -0.00245815)
(0.166025 -0.0106116 -0.00979973)
(0.156161 -0.0139616 -0.0155608)
(0.143984 -0.012947 -0.0182476)
(0.133 -0.00937589 -0.01837)
(0.12393 -0.00495345 -0.0171495)
(0.116423 -0.000633139 -0.0156371)
(0.109947 0.00327602 -0.0144447)
(0.103948 0.00702063 -0.0138443)
(0.0978924 0.0109923 -0.0139305)
(0.091196 0.0156641 -0.0147242)
(0.0831787 0.021578 -0.0162011)
(0.0729966 0.0293326 -0.0182535)
(0.0591876 0.039208 -0.0204766)
(0.0389853 0.0485017 -0.0211181)
(0.0158382 0.040008 -0.0140905)
(0.182686 -0.00155551 -0.0023281)
(0.177691 -0.0058639 -0.00959669)
(0.166711 -0.00778362 -0.0155101)
(0.152569 -0.00697233 -0.0183615)
(0.139495 -0.00443139 -0.0185273)
(0.128781 -0.00116951 -0.0172297)
(0.120179 0.00218346 -0.0155719)
(0.113154 0.00549851 -0.0142171)
(0.10714 0.00900871 -0.0134429)
(0.101514 0.0130801 -0.013332)
(0.0956961 0.0182067 -0.013886)
(0.089066 0.0250491 -0.0150603)
(0.0808573 0.0345216 -0.0167385)
(0.0697145 0.0476346 -0.0185664)
(0.0520913 0.0628081 -0.0190358)
(0.0264871 0.0601714 -0.0124077)
(0.18868 -8.24383e-05 -0.00226657)
(0.183523 -0.00071318 -0.0094985)
(0.17206 -0.000721584 -0.0154642)
(0.157049 8.66585e-05 -0.018361)
(0.143075 0.00149231 -0.0185088)
(0.131659 0.00328617 -0.0171274)
(0.122692 0.00533134 -0.0153598)
(0.115702 0.00774792 -0.0138706)
(0.110068 0.0107212 -0.0129352)
(0.105212 0.0145669 -0.012622)
(0.100657 0.0197528 -0.0129115)
(0.0959978 0.0269907 -0.0137367)
(0.0908343 0.0374623 -0.0149665)
(0.0844749 0.05323 -0.0163018)
(0.0762874 0.0768629 -0.01666)
(0.0468621 0.0866884 -0.0100868)
(0.0250918 -0.00284459 -0.00286598)
(0.0295937 -0.00348808 -0.0052699)
(0.0347438 -0.00269793 -0.00601885)
(0.0388088 -0.0017964 -0.0060003)
(0.0409839 -0.00103291 -0.00568892)
(0.0415106 -0.000485993 -0.00534471)
(0.0408097 -0.00012442 -0.00510522)
(0.0392093 0.000115947 -0.00504172)
(0.036884 0.000292189 -0.00519115)
(0.0338794 0.000430005 -0.0055742)
(0.0301511 0.000532751 -0.00619746)
(0.0255943 0.000589079 -0.00704792)
(0.0200895 0.000567675 -0.00807018)
(0.0134645 0.000419259 -0.00908947)
(0.00600419 -0.000158618 -0.00946449)
(-2.69052e-05 -0.00168934 -0.00685715)
(0.0661883 -0.00577049 -0.00342527)
(0.0700858 -0.0113166 -0.00829608)
(0.0750381 -0.0112071 -0.0105086)
(0.0796238 -0.00877411 -0.0109669)
(0.0823286 -0.00587041 -0.0105592)
(0.0828562 -0.00336518 -0.00988551)
(0.081517 -0.00147706 -0.00929165)
(0.078699 -9.8707e-05 -0.00896035)
(0.0746305 0.00096156 -0.00898383)
(0.0693485 0.0018617 -0.00941096)
(0.0627278 0.00271365 -0.0102608)
(0.054499 0.00358382 -0.0115169)
(0.0443098 0.00448432 -0.0130872)
(0.0316119 0.00531294 -0.0146557)
(0.0164745 0.00525554 -0.0150293)
(0.00297132 0.00195756 -0.0102248)
(0.101615 -0.00668387 -0.0027832)
(0.101849 -0.0164556 -0.00828619)
(0.10196 -0.0182814 -0.0114684)
(0.102402 -0.0154358 -0.0125169)
(0.102381 -0.0109206 -0.0122848)
(0.10117 -0.00652495 -0.0115407)
(0.0986364 -0.00294523 -0.0107829)
(0.0948936 -0.000173136 -0.0102831)
(0.0899958 0.00203949 -0.0101745)
(0.0838625 0.00399687 -0.0105225)
(0.0762668 0.00594684 -0.0113509)
(0.0668166 0.00807049 -0.0126413)
(0.0550112 0.0104624 -0.0142912)
(0.040057 0.0129616 -0.0159444)
(0.0216859 0.0140749 -0.0162418)
(0.00470338 0.00857295 -0.0107973)
(0.131893 -0.00593491 -0.00224232)
(0.129392 -0.0171574 -0.00773939)
(0.124677 -0.0207037 -0.0114643)
(0.119791 -0.0184431 -0.0129714)
(0.115563 -0.0135052 -0.0129245)
(0.111468 -0.00816343 -0.0121617)
(0.107083 -0.0035118 -0.0112967)
(0.102195 0.000289316 -0.0106724)
(0.0966105 0.00347385 -0.0104543)
(0.0900838 0.00643468 -0.0107109)
(0.0822447 0.00953234 -0.0114627)
(0.0725893 0.0130719 -0.0126862)
(0.0605044 0.0172633 -0.0142747)
(0.045008 0.0219326 -0.0158684)
(0.0253772 0.0248682 -0.0161009)
(0.00658672 0.0171658 -0.0106309)
(0.156433 -0.00455039 -0.00191921)
(0.152468 -0.0147835 -0.00730011)
(0.144401 -0.0189163 -0.0113416)
(0.134954 -0.017448 -0.0131723)
(0.12658 -0.0129577 -0.01326)
(0.1194 -0.00765269 -0.012465)
(0.112973 -0.00274198 -0.0114912)
(0.106872 0.00149456 -0.0107441)
(0.100683 0.00526756 -0.0104104)
(0.0939883 0.00899027 -0.0105587)
(0.0862875 0.0131031 -0.011201)
(0.07698 0.0180348 -0.0123054)
(0.0653523 0.024151 -0.0137628)
(0.0502257 0.0313679 -0.0152275)
(0.0301465 0.0369053 -0.015395)
(0.00974436 0.027628 -0.0101166)
(0.174906 -0.00304708 -0.00174042)
(0.170224 -0.0107777 -0.00702313)
(0.160142 -0.0143015 -0.011256)
(0.147455 -0.0133558 -0.0133032)
(0.135799 -0.00973236 -0.0134762)
(0.126034 -0.00517557 -0.0126357)
(0.117864 -0.000684566 -0.0115502)
(0.110772 0.00340031 -0.0106766)
(0.104198 0.007325 -0.0102179)
(0.0976038 0.0114933 -0.0102387)
(0.090406 0.016394 -0.0107397)
(0.081955 0.0225814 -0.0116789)
(0.0714781 0.03065 -0.0129455)
(0.0576357 0.0408337 -0.0142212)
(0.0378829 0.0502846 -0.01431)
(0.0154388 0.0414305 -0.00930827)
(0.187219 -0.00155673 -0.00164556)
(0.182194 -0.00594643 -0.00686543)
(0.171015 -0.00796447 -0.0112038)
(0.156352 -0.00718902 -0.0133731)
(0.142557 -0.00460437 -0.0135837)
(0.131091 -0.00123737 -0.0126913)
(0.121782 0.00225117 -0.0115021)
(0.114117 0.00571854 -0.0105108)
(0.10753 0.0094001 -0.00992659)
(0.101386 0.0136737 -0.00980678)
(0.095106 0.0190495 -0.0101402)
(0.0880946 0.0262015 -0.0108732)
(0.0796504 0.0360453 -0.0118922)
(0.0685214 0.0495536 -0.0129179)
(0.0513165 0.0650019 -0.0129161)
(0.0263199 0.0621237 -0.00819477)
(0.193358 -7.61254e-05 -0.00160046)
(0.188176 -0.000714193 -0.00678886)
(0.176527 -0.000734124 -0.0111626)
(0.160993 8.47021e-05 -0.0133658)
(0.146281 0.00153081 -0.013566)
(0.13409 0.00339423 -0.0126155)
(0.124402 0.00553033 -0.0113464)
(0.116777 0.00806373 -0.0102576)
(0.110591 0.0111859 -0.00955773)
(0.105253 0.0152245 -0.00929518)
(0.100289 0.0206616 -0.00944633)
(0.0953149 0.0282226 -0.00994548)
(0.0899917 0.0390951 -0.010675)
(0.0837185 0.0553259 -0.0113989)
(0.0760625 0.0793797 -0.0113654)
(0.0468957 0.0888877 -0.00667201)
(0.0254635 -0.00290896 -0.00174064)
(0.0299829 -0.00358558 -0.00319263)
(0.0351431 -0.00278558 -0.00365655)
(0.0392014 -0.00186478 -0.00365511)
(0.0413291 -0.00108059 -0.00347176)
(0.041766 -0.00051647 -0.00326576)
(0.0409427 -0.000142705 -0.00312098)
(0.0391984 0.000106167 -0.0030802)
(0.0367156 0.00028951 -0.00316459)
(0.0335479 0.000434912 -0.00338431)
(0.0296624 0.000547369 -0.00373951)
(0.0249731 0.00061773 -0.00421698)
(0.0193906 0.000617111 -0.00477757)
(0.0127957 0.000494025 -0.00531589)
(0.0055437 -7.05084e-05 -0.00546864)
(-0.000224818 -0.00161135 -0.0039184)
(0.0672213 -0.00584336 -0.00207128)
(0.0710949 -0.0115319 -0.00501908)
(0.0759974 -0.0114665 -0.0063734)
(0.0805126 -0.00900865 -0.00666885)
(0.083105 -0.00604762 -0.00643324)
(0.0834652 -0.00347987 -0.00603035)
(0.0819094 -0.0015387 -0.0056713)
(0.0788382 -0.000119089 -0.00546704)
(0.0744915 0.000975008 -0.00547183)
(0.0689183 0.00190673 -0.00571198)
(0.0620113 0.0027929 -0.00619325)
(0.0535332 0.00370378 -0.0068971)
(0.0431859 0.0046531 -0.0077584)
(0.0305153 0.00553008 -0.00858588)
(0.0157182 0.0054862 -0.00870136)
(0.00267207 0.00212759 -0.00585078)
(0.103238 -0.00673293 -0.00166704)
(0.103417 -0.0167071 -0.00499211)
(0.103408 -0.0186491 -0.00693269)
(0.103679 -0.0158063 -0.00759185)
(0.103456 -0.0112199 -0.00747119)
(0.102008 -0.00672465 -0.00703119)
(0.0992004 -0.00304895 -0.00657556)
(0.0951548 -0.000195401 -0.00627031)
(0.0899334 0.00208549 -0.00619501)
(0.083466 0.00410665 -0.00638639)
(0.075544 0.00612345 -0.00685262)
(0.0658096 0.00832153 -0.00757333)
(0.053821 0.0107942 -0.00847588)
(0.0388864 0.0133638 -0.00934419)
(0.0208823 0.0144861 -0.00940496)
(0.00439935 0.00885983 -0.00617297)
(0.134016 -0.00596098 -0.00133213)
(0.131463 -0.0173786 -0.00464795)
(0.126599 -0.0210798 -0.00691363)
(0.121455 -0.018856 -0.0078528)
(0.116926 -0.0138567 -0.00785087)
(0.11251 -0.00840253 -0.00740446)
(0.107791 -0.0036298 -0.00688602)
(0.102559 0.000281695 -0.00650581)
(0.0966253 0.00356421 -0.00636457)
(0.0897503 0.00661934 -0.00650063)
(0.0815781 0.00981649 -0.0069202)
(0.0716366 0.0134656 -0.00759987)
(0.0593699 0.0177727 -0.00846426)
(0.0438901 0.0225398 -0.00929501)
(0.0246161 0.0254897 -0.00931619)
(0.00630818 0.0176062 -0.00606697)
(0.158954 -0.00456281 -0.00113368)
(0.15495 -0.0149491 -0.0043744)
(0.146737 -0.0192327 -0.00682836)
(0.136983 -0.017818 -0.00796379)
(0.128223 -0.013283 -0.008048)
(0.120644 -0.00787254 -0.0075861)
(0.113823 -0.00283633 -0.00700346)
(0.107339 0.00152227 -0.00654928)
(0.100782 0.00541143 -0.00633811)
(0.0937344 0.00925138 -0.00640882)
(0.085706 0.0134918 -0.00676263)
(0.0761242 0.018567 -0.00737132)
(0.0643278 0.0248374 -0.00815823)
(0.0492194 0.0321914 -0.00891328)
(0.0294735 0.0377707 -0.00889901)
(0.00951484 0.0282721 -0.00576219)
(0.177722 -0.00305206 -0.00102423)
(0.173012 -0.0108854 -0.00420142)
(0.162799 -0.0145259 -0.00676882)
(0.149784 -0.013628 -0.00803499)
(0.137685 -0.00997194 -0.00817408)
(0.127458 -0.00532624 -0.00768787)
(0.118847 -0.000720516 -0.00703909)
(0.111343 0.00348297 -0.00650867)
(0.104389 0.00752863 -0.00622217)
(0.0974445 0.0118271 -0.00621645)
(0.0899333 0.0168767 -0.00648647)
(0.0812292 0.0232375 -0.00699835)
(0.0706062 0.0314996 -0.00767503)