/*--------------------------------*- C++ -*----------------------------------*\
| =========                 |                                                 |
| \\      /  F ield         | foam-extend: Open Source CFD                    |
|  \\    /   O peration     | Version:     3.1                                |
|   \\  /    A nd           | Web:         http://www.extend-project.de       |
|    \\/     M anipulation  |                                                 |
\*---------------------------------------------------------------------------*/
FoamFile
{
    version     2.0;
    format      ascii;
    class       volVectorField;
    location    "2.3";
    object      D;
}
// * * * * * * * * * * * * * * * * * * * * * * * * * * * * * * * * * * * * * //

dimensions      [0 1 0 0 0 0 0];

internalField   nonuniform List<vector> 
256
(
(0.000256342 0.000163477 0.000280898)
(0.000114753 3.06596e-05 8.57004e-05)
(0.00010161 -4.84661e-05 -9.64558e-05)
(0.000214041 -0.000181091 -0.000303001)
(0.00105656 0.000672142 0.000223861)
(0.000880017 0.00017932 8.36778e-05)
(0.000845462 -0.000209731 -0.000129536)
(0.000947051 -0.000698796 -0.000294576)
(0.00205706 0.00103505 0.00015062)
(0.00188055 0.000301899 4.0541e-05)
(0.0018343 -0.000340447 -0.000117783)
(0.00191416 -0.00107561 -0.000254132)
(0.00323654 0.00131389 4.9187e-05)
(0.00307853 0.000391062 -3.06764e-06)
(0.00302525 -0.000451084 -9.92861e-05)
(0.0030718 -0.00137825 -0.000179087)
(0.00452928 0.00150112 -5.07424e-05)
(0.00438872 0.000445731 -4.50115e-05)
(0.00433128 -0.000539893 -7.74987e-05)
(0.00435099 -0.00159877 -9.88696e-05)
(0.0058757 0.00161504 -0.000139228)
(0.00575107 0.00047243 -8.22473e-05)
(0.00569153 -0.000610143 -5.82249e-05)
(0.00569063 -0.00175229 -2.55567e-05)
(0.00722982 0.00167355 -0.000209919)
(0.00711603 0.000478047 -0.000115451)
(0.00705484 -0.00066428 -4.54121e-05)
(0.00704132 -0.00185235 3.12738e-05)
(0.00856934 0.00169476 -0.00026319)
(0.00845 0.000471721 -0.000146345)
(0.00838277 -0.000704284 -4.10321e-05)
(0.00836765 -0.00191529 6.21965e-05)
(0.000283867 0.000161548 0.000138172)
(0.0001459 3.16142e-05 4.40752e-05)
(0.000132948 -4.45575e-05 -5.56452e-05)
(0.000238055 -0.000171501 -0.000161015)
(0.00111493 0.000667128 0.000124026)
(0.000917385 0.000181011 4.17453e-05)
(0.000885078 -0.000202121 -8.42327e-05)
(0.00100969 -0.000685546 -0.000183692)
(0.00209398 0.00104575 7.87568e-05)
(0.00191881 0.000309965 1.44429e-05)
(0.0018753 -0.000339525 -8.41354e-05)
(0.00195666 -0.00107781 -0.000166352)
(0.00324153 0.00132852 1.00563e-05)
(0.00308683 0.000401759 -1.72476e-05)
(0.00303642 -0.000450408 -7.46405e-05)
(0.00308221 -0.00138179 -0.000120463)
(0.00449526 0.00151828 -6.23372e-05)
(0.00436056 0.000458594 -4.88562e-05)
(0.00430572 -0.000537504 -6.14768e-05)
(0.00432164 -0.00160022 -6.59012e-05)
(0.00580329 0.00163217 -0.000128525)
(0.00568541 0.000486418 -7.79015e-05)
(0.00562822 -0.000604121 -4.94887e-05)
(0.00562204 -0.00174795 -1.46163e-05)
(0.00712326 0.00168889 -0.000182672)
(0.00701744 0.00049196 -0.000104057)
(0.0069587 -0.000653721 -4.27507e-05)
(0.00693851 -0.00184022 2.4424e-05)
(0.00843719 0.00170727 -0.0002223)
(0.00832597 0.000484392 -0.000127139)
(0.00826134 -0.000689539 -4.47987e-05)
(0.00823975 -0.00189541 4.13275e-05)
(0.00029559 0.000166087 6.56478e-05)
(0.000149511 3.3716e-05 2.04289e-05)
(0.000134974 -4.51001e-05 -3.21863e-05)
(0.000244466 -0.000175095 -8.46086e-05)
(0.00113813 0.000659995 5.89186e-05)
(0.000924032 0.000180345 1.5304e-05)
(0.000889938 -0.000196137 -5.32761e-05)
(0.00102716 -0.000674701 -0.000107349)
(0.00210903 0.00103627 2.92656e-05)
(0.00192162 0.000310676 -3.53607e-06)
(0.0018763 -0.000331445 -5.75665e-05)
(0.00196634 -0.00106088 -0.000100652)
(0.00323782 0.00131849 -1.67062e-05)
(0.00307514 0.000404038 -2.62821e-05)
(0.00302284 -0.000439769 -5.41358e-05)
(0.00307295 -0.00135925 -7.38753e-05)
(0.00446773 0.00151028 -6.70621e-05)
(0.00432781 0.000463093 -4.95051e-05)
(0.00427102 -0.000524275 -4.7413e-05)
(0.0042883 -0.00157373 -3.92706e-05)
(0.00575034 0.00162754 -0.00011466)
(0.00562938 0.000493318 -7.1486e-05)
(0.00557028 -0.000588239 -4.11387e-05)
(0.00556323 -0.00171823 -5.73206e-06)
(0.00704643 0.00168856 -0.000154609)
(0.00693944 0.000501042 -9.17047e-05)
(0.00687896 -0.000635365 -3.90298e-05)
(0.00685598 -0.00180798 1.90221e-05)
(0.00834154 0.00171193 -0.00018344)
(0.00823077 0.000495358 -0.000109547)
(0.00816387 -0.000669095 -4.50848e-05)
(0.00813664 -0.00186126 2.52503e-05)
(0.000298811 0.00016849 2.88543e-05)
(0.000147046 3.4711e-05 8.13038e-06)
(0.000131143 -4.53217e-05 -1.83662e-05)
(0.000243678 -0.000176802 -4.30612e-05)
(0.00114285 0.000654699 2.21687e-05)
(0.00091869 0.000179743 1.64078e-06)
(0.00088239 -0.000191271 -3.33381e-05)
(0.00102574 -0.000665342 -6.01357e-05)
(0.00210725 0.00102598 9.8348e-07)
(0.00191074 0.000310263 -1.21866e-05)
(0.0018631 -0.000322571 -3.84831e-05)
(0.0019584 -0.00104237 -5.74646e-05)
(0.00322419 0.00130622 -3.0404e-05)
(0.0030545 0.000404702 -2.8625e-05)
(0.0029999 -0.000427338 -3.81521e-05)
(0.00305335 -0.00133371 -4.17829e-05)
(0.00443897 0.00149875 -6.52457e-05)
(0.00429394 0.000465634 -4.55844e-05)
(0.00423491 -0.000508779 -3.53189e-05)
(0.00425377 -0.00154333 -2.03595e-05)
(0.0057049 0.00161871 -9.90038e-05)
(0.00558047 0.00049824 -6.20236e-05)
(0.00551925 -0.000570194 -3.27364e-05)
(0.00551222 -0.00168466 7.71039e-07)
(0.00698453 0.00168371 -0.000128075)
(0.00687549 0.000508458 -7.75558e-05)
(0.00681292 -0.000615283 -3.34438e-05)
(0.00678845 -0.00177248 1.5572e-05)
(0.00826561 0.00171151 -0.00014901)
(0.00815354 0.000505253 -9.15188e-05)
(0.00808376 -0.00064737 -4.10239e-05)
(0.00805292 -0.00182454 1.56298e-05)
(0.000298929 0.000169384 1.09438e-05)
(0.000143837 3.52086e-05 2.29227e-06)
(0.000126979 -4.52747e-05 -1.02132e-05)
(0.000240949 -0.000177038 -2.08693e-05)
(0.00114018 0.000650869 3.93754e-06)
(0.000910042 0.000179586 -4.08796e-06)
(0.000871993 -0.000187317 -2.04538e-05)
(0.00101821 -0.000657396 -3.22112e-05)
(0.00209848 0.00101849 -1.16334e-05)
(0.00189609 0.000310316 -1.43113e-05)
(0.00184659 -0.000314853 -2.50108e-05)
(0.00194466 -0.00102693 -3.09656e-05)
(0.00320699 0.00129694 -3.32291e-05)
(0.00303234 0.000405629 -2.60876e-05)
(0.00297595 -0.000416221 -2.59429e-05)
(0.00303142 -0.00131205 -2.16565e-05)
(0.00441159 0.00148961 -5.71622e-05)
(0.00426269 0.000468049 -3.82638e-05)
(0.00420199 -0.00049477 -2.51679e-05)
(0.00422198 -0.00151707 -8.55208e-06)
(0.00566626 0.00161127 -8.07131e-05)
(0.005539 0.000502545 -5.02823e-05)
(0.00547624 -0.000553852 -2.46284e-05)
(0.00546944 -0.00165527 4.38494e-06)
(0.00693429 0.00167893 -0.000101417)
(0.00682334 0.000514752 -6.19021e-05)
(0.00675923 -0.000597145 -2.66165e-05)
(0.00673402 -0.00174108 1.2767e-05)
(0.00820443 0.0017097 -0.000116292)
(0.00809096 0.000513522 -7.25117e-05)
(0.00801902 -0.000627793 -3.3929e-05)
(0.007986 -0.00179187 1.00325e-05)
(0.000298184 0.000169606 2.99705e-06)
(0.000141242 3.54706e-05 -4.82335e-08)
(0.000123752 -4.5116e-05 -5.42819e-06)
(0.000238258 -0.000176674 -9.40981e-06)
(0.00113563 0.000648243 -3.17561e-06)
(0.000902029 0.000179715 -5.25407e-06)
(0.00086276 -0.000184298 -1.19998e-05)
(0.00101023 -0.000651201 -1.62397e-05)
(0.00208869 0.00101364 -1.41082e-05)
(0.00188269 0.000310792 -1.24052e-05)
(0.00183189 -0.00030888 -1.54153e-05)
(0.00193135 -0.00101535 -1.55278e-05)
(0.00319102 0.00129094 -2.84146e-05)
(0.00301316 0.000406853 -2.04109e-05)
(0.00295555 -0.000407532 -1.6593e-05)
(0.00301215 -0.00129581 -1.00751e-05)
(0.00438863 0.00148364 -4.41596e-05)
(0.00423711 0.000470395 -2.86812e-05)
(0.0041753 -0.000483748 -1.67086e-05)
(0.004196 -0.00149719 -2.3122e-06)
(0.00563562 0.00160626 -5.97918e-05)
(0.00550636 0.000506244 -3.69473e-05)
(0.0054426 -0.000540939 -1.70486e-05)
(0.00543604 -0.00163276 5.27344e-06)
(0.0068955 0.00167547 -7.37322e-05)
(0.00678311 0.000519837 -4.50705e-05)
(0.00671802 -0.000582784 -1.91881e-05)
(0.00669249 -0.00171674 9.73984e-06)
(0.00815747 0.00170798 -8.37394e-05)
(0.0080428 0.000519977 -5.25668e-05)
(0.00796946 -0.00061227 -2.50666e-05)
(0.00793531 -0.00176629 6.49317e-06)
(0.000297447 0.000169581 1.97365e-07)
(0.000139535 3.56069e-05 -5.83637e-07)
(0.000121656 -4.49565e-05 -2.5901e-06)
(0.000236298 -0.000176221 -3.76063e-06)
(0.00113174 0.000646596 -3.99401e-06)
(0.000896256 0.000179919 -3.944e-06)
(0.000856226 -0.00018226 -6.23802e-06)
(0.00100418 -0.00064698 -7.30842e-06)
(0.00208101 0.0010108 -1.05403e-05)
(0.00187294 0.000311341 -8.2029e-06)
(0.00182133 -0.000304844 -8.32111e-06)
(0.00192145 -0.00100768 -6.89459e-06)
(0.00317917 0.00128749 -1.87743e-05)
(0.00299941 0.000407968 -1.28793e-05)
(0.00294105 -0.000401647 -9.20218e-06)
(0.00299824 -0.00128512 -4.01624e-06)
(0.00437228 0.0014802 -2.77772e-05)
(0.00421916 0.000472269 -1.77042e-05)
(0.00415668 -0.000476261 -9.51367e-06)
(0.00417779 -0.00148405 8.55898e-08)
(0.00561438 0.00160335 -3.67572e-05)
(0.00548386 0.000508983 -2.25638e-05)
(0.00541951 -0.000532144 -9.98874e-06)
(0.00541312 -0.00161775 4.04039e-06)
(0.00686896 0.00167337 -4.48349e-05)
(0.00675564 0.000523434 -2.73861e-05)
(0.00668998 -0.000572982 -1.15427e-05)
(0.00666434 -0.00170039 6.16214e-06)
(0.00812545 0.0017068 -5.06301e-05)
(0.00800995 0.000524413 -3.18606e-05)
(0.00793581 -0.000601659 -1.53019e-05)
(0.00790111 -0.001749 3.75496e-06)
(0.000297024 0.000169525 -1.71307e-07)
(0.0001387 3.56658e-05 -2.75996e-07)
(0.000120638 -4.48619e-05 -7.59623e-07)
(0.000235289 -0.000175939 -9.67764e-07)
(0.00112959 0.000645801 -1.6497e-06)
(0.000893285 0.000180054 -1.43305e-06)
(0.000852892 -0.000181233 -1.9266e-06)
(0.001001 -0.000644848 -2.0558e-06)
(0.00207687 0.00100948 -3.83449e-06)
(0.00186787 0.000311684 -2.84967e-06)
(0.00181588 -0.000302815 -2.62402e-06)
(0.00191625 -0.00100386 -1.91535e-06)
(0.00317292 0.00128593 -6.52969e-06)
(0.00299229 0.000408618 -4.39063e-06)
(0.00293358 -0.000398687 -2.94408e-06)
(0.00299102 -0.00127982 -1.01385e-06)
(0.0043638 0.00147866 -9.46584e-06)
(0.00420993 0.000473304 -5.97935e-06)
(0.00414714 -0.000472491 -3.08587e-06)
(0.00416843 -0.00147753 2.68565e-07)
(0.00560349 0.00160202 -1.24004e-05)
(0.00547237 0.00051044 -7.58524e-06)
(0.00540775 -0.00052771 -3.28745e-06)
(0.00540145 -0.00161029 1.49394e-06)
(0.00685544 0.00167238 -1.5051e-05)
(0.00674168 0.0005253 -9.18582e-06)
(0.00667576 -0.000568034 -3.84852e-06)
(0.00665009 -0.00169222 2.11352e-06)
(0.00810916 0.00170617 -1.6952e-05)
(0.00799327 0.00052668 -1.06739e-05)
(0.00791876 -0.000596292 -5.13719e-06)
(0.00788385 -0.00174032 1.24042e-06)
)
;

boundaryField
{
    interface
    {
        type            tractionDisplacement;
        gradient        nonuniform List<vector> 
192
(
(0.0234992 0.0329453 0.000526818)
(0.0110944 0.0323764 0.00116277)
(0.0122828 0.0422502 -2.21642e-05)
(0.00999427 0.0476819 -0.00187005)
(0.00840583 0.0514836 -0.00372261)
(0.00693574 0.0532237 -0.0054343)
(0.00609459 0.0537125 -0.0067942)
(0.00567224 0.0543829 -0.00756288)
(0.0238837 0.0347765 0.000374487)
(0.0128217 0.0321897 0.000919826)
(0.0124139 0.0408557 0.000311194)
(0.0103024 0.0461854 -0.000829765)
(0.00859682 0.049919 -0.00207327)
(0.00716474 0.0518533 -0.00331323)
(0.00632751 0.0526647 -0.00438597)
(0.00588101 0.0539296 -0.00510808)
(0.0247218 0.0358476 5.4318e-05)
(0.013355 0.0321558 0.000167163)
(0.0127904 0.0400879 -0.000197359)
(0.0104739 0.0452256 -0.000852841)
(0.00859866 0.0488607 -0.00166497)
(0.00706739 0.0508614 -0.00250758)
(0.00617964 0.0518403 -0.00328327)
(0.00560422 0.0534548 -0.00387232)
(0.0252235 0.0362754 -9.38608e-05)
(0.0137745 0.0320466 -0.000194197)
(0.0131941 0.0396654 -0.00048462)
(0.0107674 0.044604 -0.000912947)
(0.00877553 0.0481594 -0.00143953)
(0.00715275 0.0501682 -0.00200497)
(0.00620308 0.0512258 -0.00255475)
(0.00554804 0.0530253 -0.0030185)
(0.0254596 0.036388 -0.000136354)
(0.0140442 0.0319028 -0.000311494)
(0.0134801 0.0393714 -0.000555219)
(0.0110074 0.0441989 -0.000858525)
(0.00895103 0.0476962 -0.00121256)
(0.00726642 0.0496921 -0.00159643)
(0.00627021 0.0507762 -0.00198715)
(0.00555358 0.0526635 -0.00234518)
(0.0255548 0.0363723 -0.000121468)
(0.0142044 0.0317612 -0.000286591)
(0.0136638 0.039155 -0.000473612)
(0.0111751 0.0439273 -0.000685092)
(0.00908626 0.0473896 -0.000920294)
(0.00736628 0.0493693 -0.00117451)
(0.00634149 0.0504552 -0.00143998)
(0.00559191 0.0523805 -0.00169444)
(0.0255855 0.0363255 -7.98629e-05)
(0.0142903 0.031652 -0.0001917)
(0.0137691 0.0390084 -0.000309238)
(0.0112767 0.0437549 -0.000436258)
(0.00917267 0.0471986 -0.000573337)
(0.00743422 0.0491658 -0.000720746)
(0.00639373 0.0502466 -0.000876555)
(0.00562702 0.0521872 -0.00102925)
(0.0255917 0.0362932 -2.7448e-05)
(0.0143265 0.0315936 -6.6528e-05)
(0.0138157 0.0389339 -0.000106562)
(0.0113231 0.0436702 -0.000149085)
(0.00921325 0.0471059 -0.000194371)
(0.00746711 0.0490668 -0.000242956)
(0.00641929 0.0501439 -0.000294504)
(0.00564459 0.0520878 -0.000345413)
(-0.00164985 0.0113503 0.012583)
(-0.00299723 -0.00376358 0.00180371)
(-0.000969318 -0.00317922 0.00302756)
(0.00107503 -0.00419299 0.00138973)
(0.00338518 -0.00394254 0.000497952)
(0.0054278 -0.00342368 -0.00034855)
(0.00703843 -0.00274722 -0.000863642)
(0.00821106 -0.00167845 -0.00153209)
(-0.00428292 0.00434453 0.00282769)
(-0.00747616 -0.0014406 0.000567588)
(-0.00496912 -0.0011814 0.000385215)
(-0.00246085 -0.00151094 -0.000127587)
(0.000260944 -0.00149465 -0.000437101)
(0.00266104 -0.00143283 -0.000693746)
(0.0046463 -0.00137691 -0.000873004)
(0.00625277 -0.00107083 -0.00131276)
(-0.00461121 -0.00546972 -0.00330284)
(-0.00794362 0.000977077 -0.00076352)
(-0.00556934 0.000924961 -0.00102276)
(-0.00304565 0.00129577 -0.00077673)
(-0.000324775 0.00110132 -0.000605816)
(0.00212131 0.000746875 -0.000401126)
(0.00419521 0.000274474 -0.000215635)
(0.00580794 -0.000219162 0.000163187)
(-0.0028619 -0.0139208 -0.0122313)
(-0.00458224 0.00268509 -0.0021241)
(-0.00306131 0.00261018 -0.00358941)
(-0.00109281 0.00376228 -0.00219853)
(0.00116873 0.00345909 -0.00142494)
(0.00328118 0.002813 -0.000622925)
(0.00507472 0.00184101 -1.27667e-05)
(0.00636344 0.000461952 0.000655817)
(0.0193758 -0.0311679 -0.0013676)
(0.0077854 -0.0317761 -0.00288011)
(0.00761515 -0.0426249 -0.00229674)
(0.00465351 -0.0482713 -0.000637362)
(0.00259535 -0.0520247 0.00121199)
(0.00093708 -0.0535067 0.00308092)
(-1.99164e-05 -0.0534774 0.00472978)
(-0.000175572 -0.052674 0.00592197)
(0.0190794 -0.0334011 -0.00076692)
(0.00923558 -0.0322159 -0.00158622)
(0.0075251 -0.0414054 -0.00119346)
(0.00470857 -0.0468446 -9.33309e-05)
(0.00252923 -0.0504124 0.00119241)
(0.000869763 -0.0519859 0.00253529)
(-0.000126914 -0.0521779 0.00376466)
(-0.000229711 -0.0517753 0.00480589)
(0.0196618 -0.0344035 -0.000295549)
(0.0097403 -0.0323433 -0.000508131)
(0.00796006 -0.0406977 -0.000214518)
(0.00498241 -0.0458867 0.000439465)
(0.00264331 -0.0492934 0.00129109)
(0.000863755 -0.0508734 0.00220806)
(-0.000234588 -0.0511588 0.00310858)
(-0.000502005 -0.0508561 0.0039575)
(0.0199748 -0.034649 -5.8259e-05)
(0.0100992 -0.0322461 8.59489e-06)
(0.00831179 -0.0402903 0.000285236)
(0.00524723 -0.0452602 0.00073011)
(0.00279724 -0.0485513 0.0012907)
(0.00091721 -0.0500928 0.00191038)
(-0.000277653 -0.0503786 0.0025499)
(-0.000643458 -0.050068 0.00319995)
(0.020076 -0.0345662 3.76124e-05)
(0.0103148 -0.0320693 0.000200052)
(0.00853495 -0.039983 0.000446777)
(0.00543139 -0.0448416 0.000769069)
(0.00291966 -0.0480552 0.00114985)
(0.000971964 -0.049551 0.0015711)
(-0.000292844 -0.0498056 0.00201951)
(-0.000720707 -0.049449 0.00249893)
(0.0200782 -0.0343888 5.98891e-05)
(0.0104319 -0.0318894 0.00022025)
(0.00866442 -0.0397456 0.000413504)
(0.00554582 -0.0445538 0.000640352)
(0.00300154 -0.0477226 0.00089427)
(0.00101475 -0.049182 0.00117198)
(-0.00029309 -0.0494024 0.00147154)
(-0.000751177 -0.0489968 0.00179964)
(0.0200505 -0.0342306 4.65063e-05)
(0.0104895 -0.031751 0.000156768)
(0.00873324 -0.0395812 0.000279075)
(0.00560996 -0.044368 0.000415605)
(0.00304997 -0.0475136 0.000563478)
(0.00104251 -0.0489496 0.000723388)
(-0.000288601 -0.0491445 0.000896735)
(-0.000760333 -0.0487022 0.00108841)
(0.0200293 -0.0341421 1.70593e-05)
(0.0105125 -0.0316771 5.58346e-05)
(0.0087624 -0.0394969 9.75845e-05)
(0.00563843 -0.0442761 0.000143274)
(0.0030721 -0.0474118 0.000192032)
(0.00105593 -0.0488365 0.000244463)
(-0.000285031 -0.0490185 0.00030141)
(-0.000762084 -0.0485571 0.000364478)
(0.0542194 0.000461749 -0.00104097)
(0.0538793 0.000269626 -0.000406943)
(0.0535274 0.000563415 -0.000245187)
(0.0531575 0.000737545 -8.56653e-05)
(0.05281 0.000870793 -2.39964e-05)
(0.0525292 0.000948891 -1.34441e-06)
(0.0523341 0.000991575 2.60304e-06)
(0.0522333 0.00100696 1.26735e-06)
(0.0502284 0.000505104 -0.000581476)
(0.0499588 0.000384653 -0.000390452)
(0.0496035 0.000479328 -0.000388385)
(0.0492028 0.000587451 -0.000326974)
(0.0488026 0.000685359 -0.000261475)
(0.0484719 0.000755656 -0.000189696)
(0.0482419 0.000800161 -0.000114871)
(0.0481262 0.000822022 -3.82995e-05)
(0.0495839 -0.00138642 -0.000162898)
(0.0492383 -0.00117898 -0.00053415)
(0.0487307 -0.00110934 -0.00069109)
(0.0482116 -0.00104112 -0.000702736)
(0.0477381 -0.000978383 -0.000604202)
(0.0473616 -0.000925835 -0.000452064)
(0.047105 -0.000888473 -0.000276561)
(0.0469757 -0.000868606 -9.27693e-05)
(0.0518176 -0.00196808 3.56901e-05)
(0.0511503 -0.00162506 -0.000942867)
(0.0503673 -0.00167072 -0.00121408)
(0.0496588 -0.00167036 -0.00121686)
(0.0490734 -0.00165441 -0.00103194)
(0.0486345 -0.00162352 -0.000765167)
(0.0483445 -0.00159501 -0.000465642)
(0.0482002 -0.00157849 -0.000155964)
)
;
        traction        nonuniform List<vector> 
192
(
(23.5489 -0.771 -2.15025)
(23.9449 -0.812807 -3.7148)
(24.0435 -1.00516 -4.37943)
(24.2009 -0.959511 -4.66672)
(24.4365 -0.719954 -4.74253)
(24.6981 -0.226874 -4.64649)
(24.8517 0.685658 -4.34899)
(23.8929 2.20133 -3.72758)
(26.0799 -1.05194 -1.47626)
(26.7088 -1.08464 -2.57207)
(27.3862 -1.28717 -3.0361)
(28.0071 -1.20442 -3.22179)
(28.4611 -0.875974 -3.24416)
(28.6335 -0.230266 -3.13105)
(28.1812 0.94652 -2.8699)
(25.4213 2.77656 -2.42727)
(27.6545 -1.16904 -1.01192)
(28.203 -1.17405 -1.76417)
(28.9538 -1.37118 -2.06219)
(29.6581 -1.26146 -2.16378)
(30.1177 -0.872054 -2.15498)
(30.1499 -0.126269 -2.05974)
(29.2903 1.19768 -1.87922)
(25.6397 3.14116 -1.61429)
(28.7608 -1.21967 -0.713616)
(29.2284 -1.19859 -1.25001)
(29.9581 -1.38962 -1.45455)
(30.6527 -1.25909 -1.51467)
(31.0714 -0.829802 -1.4987)
(30.983 -0.0202111 -1.42727)
(29.8579 1.39069 -1.30735)
(25.6798 3.38667 -1.14179)
(29.5473 -1.24374 -0.499508)
(29.9653 -1.20147 -0.880228)
(30.6632 -1.38496 -1.02349)
(31.3297 -1.2396 -1.06168)
(31.7045 -0.784229 -1.04721)
(31.5252 0.0663397 -0.997163)
(30.2229 1.53286 -0.918906)
(25.6927 3.5601 -0.812051)
(30.0913 -1.25588 -0.332015)
(30.482 -1.19783 -0.587995)
(31.1521 -1.37418 -0.684092)
(31.7934 -1.21854 -0.708547)
(32.133 -0.746388 -0.698104)
(31.8901 0.130368 -0.665474)
(30.4709 1.63311 -0.616224)
(25.7043 3.68027 -0.548385)
(30.437 -1.26241 -0.18921)
(30.8129 -1.19378 -0.336335)
(31.4679 -1.36478 -0.391411)
(32.0902 -1.20258 -0.405101)
(32.4061 -0.720266 -0.399002)
(32.1233 0.172543 -0.380672)
(30.6316 1.69781 -0.352273)
(25.7181 3.75508 -0.311961)
(30.5985 -1.26434 -0.060857)
(30.9664 -1.19025 -0.108434)
(31.6109 -1.35848 -0.126144)
(32.2226 -1.19341 -0.130446)
(32.527 -0.706461 -0.128449)
(32.2261 0.19511 -0.122556)
(30.6915 1.73335 -0.11278)
(25.692 3.78854 -0.0983454)
(2.72931 0.464855 11.9)
(4.78902 0.884055 8.82521)
(5.73435 0.83408 6.09903)
(6.25656 0.676368 4.3011)
(6.58354 0.585477 3.36602)
(6.83352 0.646698 3.12515)
(7.15953 0.869387 3.4466)
(7.97637 1.13465 4.27136)
(1.80798 0.454968 10.7158)
(3.34132 0.884842 9.42861)
(3.92933 0.959627 7.8004)
(4.1753 0.785648 6.59564)
(4.30824 0.566183 5.93628)
(4.4552 0.424204 5.74443)
(4.78593 0.395045 5.89378)
(5.85336 0.377248 6.07441)
(1.41426 0.404543 9.8778)
(2.81521 0.730322 9.42338)
(3.38621 0.888944 8.37732)
(3.59353 0.754258 7.50332)
(3.67374 0.517234 7.01313)
(3.77834 0.306932 6.87118)
(4.08818 0.172035 6.9993)
(5.14542 0.0677708 7.16074)
(1.32183 0.437591 8.80172)
(2.78632 0.69584 8.60554)
(3.47254 0.877121 7.72435)
(3.73421 0.754371 6.94709)
(3.82716 0.512478 6.50429)
(3.92805 0.27222 6.34792)
(4.22388 0.0540779 6.38854)
(5.21007 -0.201227 6.58879)
(-5.98172 0.521693 0.186891)
(-4.85575 0.840213 0.399038)
(-3.70871 0.994694 0.421079)
(-2.92435 0.898588 0.396504)
(-2.41759 0.719597 0.430178)
(-1.94693 0.546278 0.572569)
(-1.0918 0.27899 0.851723)
(1.26326 -0.827538 1.26045)
(-6.81873 0.385962 -0.216989)
(-6.54252 0.585748 -0.307906)
(-6.05354 0.748713 -0.373154)
(-5.61571 0.756002 -0.412278)
(-5.2598 0.712911 -0.380492)
(-4.84073 0.690053 -0.259554)
(-3.96212 0.605843 -0.0505577)
(-1.28811 -0.363236 0.253245)
(-7.35892 0.328919 -0.268506)
(-7.29828 0.450814 -0.382615)
(-7.02826 0.610828 -0.406568)
(-6.71865 0.691825 -0.396115)
(-6.37376 0.757007 -0.334044)
(-5.87048 0.843295 -0.211638)
(-4.86395 0.848182 -0.0493578)
(-2.27767 0.0278699 0.122497)
(-7.748 0.312296 -0.227768)
(-7.73572 0.391497 -0.316636)
(-7.56089 0.551568 -0.306958)
(-7.29219 0.683413 -0.266002)
(-6.92158 0.825791 -0.193805)
(-6.33594 0.98862 -0.091172)
(-5.21756 1.05007 0.0216597)
(-2.68266 0.319833 0.127026)
(-8.02403 0.310361 -0.166876)
(-8.02207 0.373321 -0.225659)
(-7.87314 0.539014 -0.199284)
(-7.61353 0.705583 -0.14917)
(-7.21066 0.897836 -0.0830724)
(-6.55993 1.10674 -0.00649715)
(-5.37534 1.20254 0.0639185)
(-2.87787 0.525813 0.121857)
(-8.20546 0.314046 -0.108307)
(-8.19861 0.374439 -0.141624)
(-8.04756 0.548212 -0.113144)
(-7.77655 0.736552 -0.069037)
(-7.35086 0.958142 -0.018496)
(-6.65527 1.1922 0.0328421)
(-5.44008 1.30451 0.0733477)
(-2.97021 0.659107 0.0996966)
(-8.31219 0.318467 -0.0591053)
(-8.29443 0.380999 -0.075066)
(-8.13293 0.561359 -0.0547471)
(-7.85872 0.762569 -0.0259605)
(-7.41335 0.999746 0.00490924)
(-6.69387 1.24643 0.0339339)
(-5.46065 1.36524 0.0544857)
(-3.01461 0.737829 0.0635395)
(-8.35857 0.320773 -0.0185073)
(-8.33649 0.385251 -0.0231728)
(-8.17166 0.569381 -0.0160619)
(-7.89267 0.776481 -0.00622645)
(-7.43842 1.02057 0.00400212)
(-6.70764 1.27262 0.0133678)
(-5.46479 1.39245 0.0196695)
(-3.04114 0.773919 0.0211454)
(8.1152 -4.37494 -1.67685)
(7.54266 -2.98015 -1.33855)
(7.46458 -1.87632 -1.00001)
(7.50943 -1.01142 -0.745656)
(7.57944 -0.36818 -0.548449)
(7.64528 0.0882251 -0.382528)
(7.69471 0.371306 -0.234678)
(7.71663 0.451184 -0.0820451)
(5.86612 -5.53173 -0.414007)
(4.87729 -4.82175 -0.344661)
(4.60131 -4.04607 -0.224936)
(4.51618 -3.40325 -0.151258)
(4.49192 -2.92785 -0.107751)
(4.49012 -2.59203 -0.0748974)
(4.49824 -2.37258 -0.0449129)
(4.51195 -2.24956 -0.0149659)
(4.98961 -6.4154 0.164978)
(3.87804 -5.88544 0.111851)
(3.49755 -5.2892 0.113347)
(3.33494 -4.80473 0.0999128)
(3.25451 -4.45123 0.0762513)
(3.212 -4.20479 0.0526058)
(3.19016 -4.04669 0.0319282)
(3.18016 -3.96058 0.0112589)
(4.89838 -5.93998 0.56195)
(3.78446 -5.51648 0.345792)
(3.35172 -5.13738 0.252335)
(3.14187 -4.8079 0.196518)
(3.02473 -4.56002 0.146841)
(2.95546 -4.38839 0.101462)
(2.9156 -4.28033 0.0590518)
(2.89463 -4.23132 0.0191859)
)
;
        pressure        uniform 0;
        value           nonuniform List<vector> 
192
(
(0.000550081 0.000575292 0.000287483)
(0.00119524 0.00107685 0.000238395)
(0.0022106 0.00156318 0.000150342)
(0.00336147 0.00190991 2.58113e-05)
(0.00463435 0.00214467 -9.7275e-05)
(0.0059624 0.00228034 -0.000207157)
(0.007306 0.00234496 -0.000294847)
(0.00864024 0.00237455 -0.000357727)
(0.000582413 0.000596255 0.000142853)
(0.0012752 0.0010695 0.000135524)
(0.00224916 0.00155644 8.26468e-05)
(0.00337031 0.00190584 -3.15751e-07)
(0.00460272 0.00214226 -8.82531e-05)
(0.00589285 0.00228034 -0.000169941)
(0.00720235 0.0023472 -0.000237497)
(0.00851071 0.00238139 -0.000286151)
(0.000604612 0.000614182 6.63268e-05)
(0.00130507 0.00106194 6.10082e-05)
(0.00226891 0.00153737 2.67986e-05)
(0.00336874 0.00188381 -2.73667e-05)
(0.00457521 0.00212104 -8.78742e-05)
(0.00583869 0.0022633 -0.000146005)
(0.00712367 0.00233657 -0.000195649)
(0.00841159 0.00238011 -0.000231844)
(0.000614105 0.000621933 2.76811e-05)
(0.00131503 0.00105528 1.97413e-05)
(0.00227218 0.0015218 -5.07427e-06)
(0.00335878 0.00186377 -4.18158e-05)
(0.00454866 0.00210074 -8.32399e-05)
(0.00579431 0.00224581 -0.000124066)
(0.00706207 0.00232403 -0.000160009)
(0.00833496 0.00237433 -0.000186741)
(0.000617174 0.000624235 9.23939e-06)
(0.00131573 0.00104965 4.38616e-08)
(0.00226699 0.00151063 -1.85737e-05)
(0.00334458 0.00184942 -4.39607e-05)
(0.00452348 0.00208582 -7.23192e-05)
(0.00575709 0.00223242 -0.000100668)
(0.00701266 0.00231363 -0.000126256)
(0.00827385 0.00236799 -0.000145607)
(0.00061762 0.00062426 1.4787e-06)
(0.00131318 0.00104526 -6.758e-06)
(0.00225949 0.00150308 -2.00284e-05)
(0.00333071 0.00184004 -3.69783e-05)
(0.00450221 0.00207601 -5.56633e-05)
(0.0057277 0.00222338 -7.44731e-05)
(0.00697476 0.00230616 -9.17319e-05)
(0.00822737 0.00236274 -0.00010492)
(0.000617265 0.00062365 -8.00922e-07)
(0.00131037 0.00104225 -6.39026e-06)
(0.00225312 0.0014984 -1.44057e-05)
(0.00332013 0.00183443 -2.42275e-05)
(0.00448694 0.00207019 -3.49439e-05)
(0.0057073 0.00221792 -4.57666e-05)
(0.00694888 0.00230145 -5.57918e-05)
(0.00819579 0.00235914 -6.34958e-05)
(0.00061692 0.000623191 -5.14407e-07)
(0.00130867 0.00104072 -2.4813e-06)
(0.00224956 0.00149616 -5.16651e-06)
(0.00331446 0.00183181 -8.39326e-06)
(0.00447896 0.00206748 -1.18955e-05)
(0.00569683 0.00221535 -1.54374e-05)
(0.00693568 0.00229918 -1.87323e-05)
(0.00817972 0.00235727 -2.12697e-05)
(0.000235718 0.000305355 0.000438185)
(0.00101909 0.000625098 0.000246407)
(0.00204494 0.000995315 0.000188464)
(0.00324998 0.00126148 6.65586e-05)
(0.0045716 0.00145184 -4.4518e-05)
(0.00594355 0.00157225 -0.000143585)
(0.0073178 0.00163921 -0.000220715)
(0.00867197 0.00167378 -0.000282342)
(6.12168e-05 8.49662e-05 0.000121046)
(0.000786565 0.000161312 9.07727e-05)
(0.00181844 0.000287132 4.53561e-05)
(0.00304777 0.000372175 -4.66247e-06)
(0.00439199 0.000427048 -5.04753e-05)
(0.00578434 0.00045452 -9.09191e-05)
(0.00717411 0.000460836 -0.000126364)
(0.00852816 0.000458336 -0.000162754)
(4.39696e-05 -0.000116838 -0.000137741)
(0.000746166 -0.000197517 -0.00013908)
(0.00176468 -0.000328885 -0.000130567)
(0.00298718 -0.000434887 -0.000108995)
(0.00432722 -0.000526127 -8.50714e-05)
(0.00571804 -0.000600807 -6.32389e-05)
(0.00710728 -0.000660849 -4.81076e-05)
(0.00845537 -0.000707024 -3.89923e-05)
(0.000178267 -0.000355101 -0.000455892)
(0.000889773 -0.000665232 -0.000321127)
(0.00187589 -0.00104298 -0.000299)
(0.00305814 -0.00133122 -0.000206568)
(0.0043656 -0.00155553 -0.000116681)
(0.00573164 -0.00171712 -3.33432e-05)
(0.00710475 -0.00182934 3.11142e-05)
(0.0084472 -0.00190952 7.03942e-05)
(0.000456238 -0.00057069 -0.000320096)
(0.00104437 -0.001096 -0.000330577)
(0.00200934 -0.00160842 -0.000282841)
(0.00312997 -0.00198164 -0.000187054)
(0.00438343 -0.00224908 -8.37198e-05)
(0.00570234 -0.00242112 1.29549e-05)
(0.00704107 -0.00252082 9.0396e-05)
(0.00836546 -0.00257372 0.000136221)
(0.000476548 -0.000589015 -0.000170601)
(0.00112513 -0.00108824 -0.00020352)
(0.00205072 -0.00159537 -0.00018127)
(0.00314107 -0.00196735 -0.000121629)
(0.00435325 -0.00223037 -5.09961e-05)
(0.00563292 -0.00239778 1.70748e-05)
(0.00693693 -0.00249244 7.14822e-05)
(0.00823688 -0.0025426 0.000101401)
(0.000490239 -0.000605138 -8.8303e-05)
(0.00114891 -0.00107899 -0.000113701)
(0.00206584 -0.0015696 -0.000103333)
(0.00313523 -0.00193283 -6.8382e-05)
(0.00432134 -0.0021899 -2.3132e-05)
(0.00557403 -0.00235414 2.18687e-05)
(0.00685304 -0.00244747 5.78794e-05)
(0.00813036 -0.00249696 7.4719e-05)
(0.000493363 -0.000609915 -4.37894e-05)
(0.00115198 -0.00106842 -6.00283e-05)
(0.0020623 -0.001546 -5.38991e-05)
(0.00311894 -0.00189947 -3.26565e-05)
(0.00428873 -0.00215022 -4.22572e-06)
(0.00552368 -0.00231082 2.46508e-05)
(0.00678498 -0.00240221 4.74458e-05)
(0.00804487 -0.00245039 5.56292e-05)
(0.000491899 -0.000609115 -2.03991e-05)
(0.00114715 -0.00105826 -2.97106e-05)
(0.00205135 -0.00152672 -2.53808e-05)
(0.00309931 -0.00187257 -1.20432e-05)
(0.00425847 -0.00211776 5.82105e-06)
(0.00548159 -0.00227466 2.40237e-05)
(0.00673036 -0.00236365 3.80109e-05)
(0.00797699 -0.00240998 4.12691e-05)
(0.000489236 -0.000606534 -8.66119e-06)
(0.00114063 -0.00104982 -1.34866e-05)
(0.00203965 -0.00151217 -1.0359e-05)
(0.00308148 -0.00185274 -2.07069e-06)
(0.00423352 -0.00209373 8.86617e-06)
(0.00544872 -0.00224753 1.99232e-05)
(0.00668883 -0.00233427 2.81341e-05)
(0.00792592 -0.00237875 2.89887e-05)
(0.00048693 -0.000604103 -3.1793e-06)
(0.0011353 -0.00104387 -5.34882e-06)
(0.00203061 -0.00150244 -3.40615e-06)
(0.00306837 -0.00183972 1.17883e-06)
(0.00421591 -0.00207797 7.12907e-06)
(0.00542615 -0.00222962 1.30827e-05)
(0.00666073 -0.0023147 1.73713e-05)
(0.00789161 -0.00235778 1.73601e-05)
(0.000485656 -0.000602716 -7.54522e-07)
(0.0011324 -0.00104081 -1.35787e-06)
(0.00202578 -0.00149757 -6.95543e-07)
(0.0030615 -0.00183327 7.77078e-07)
(0.00420683 -0.00207018 2.66896e-06)
(0.00541465 -0.00222075 4.54973e-06)
(0.00664653 -0.00230495 5.88114e-06)
(0.00787433 -0.00234729 5.7964e-06)
(0.00924708 0.00170053 -0.000276203)
(0.00911068 0.00171064 -0.000227386)
(0.00901063 0.00171897 -0.000186505)
(0.00893008 0.00172073 -0.000150081)
(0.00886456 0.00172059 -0.000116592)
(0.00881409 0.00171984 -8.37562e-05)
(0.00877963 0.0017192 -5.05976e-05)
(0.00876208 0.00171876 -1.69362e-05)
(0.00907785 0.000478035 -0.000153613)
(0.00895046 0.000489201 -0.00013202)
(0.00885081 0.00050135 -0.000114402)
(0.00876857 0.000512596 -9.56059e-05)
(0.00870099 0.000522089 -7.57801e-05)
(0.0086487 0.000529422 -5.4938e-05)
(0.00861298 0.000534415 -3.32965e-05)
(0.00859485 0.000536955 -1.11527e-05)
(0.00900257 -0.000721614 -4.30683e-05)
(0.00887682 -0.000704276 -5.14756e-05)
(0.008773 -0.000682962 -5.37235e-05)
(0.00868641 -0.000660384 -4.98081e-05)
(0.00861575 -0.000640023 -4.14815e-05)
(0.00856148 -0.000623843 -3.07175e-05)
(0.00852462 -0.000612765 -1.87589e-05)