/*--------------------------------*- C++ -*----------------------------------*\
| =========                 |                                                 |
| \\      /  F ield         | foam-extend: Open Source CFD                    |
|  \\    /   O peration     | Version:     3.1                                |
|   \\  /    A nd           | Web:         http://www.extend-project.de       |
|    \\/     M anipulation  |                                                 |
\*---------------------------------------------------------------------------*/
FoamFile
{
    version     2.0;
    format      ascii;
    class       volVectorField;
    location    "2.3";
    object      D_0;
}
// * * * * * * * * * * * * * * * * * * * * * * * * * * * * * * * * * * * * * //

dimensions      [0 1 0 0 0 0 0];

internalField   nonuniform List<vector> 
256
(
(0.000239362 0.000148915 0.000253724)
(0.000110421 2.74101e-05 7.82757e-05)
(9.7573e-05 -4.37552e-05 -8.48042e-05)
(0.00019769 -0.000163651 -0.000269354)
(0.000977155 0.000612327 0.000191178)
(0.000814363 0.000163717 7.30884e-05)
(0.000781166 -0.000187651 -0.000113093)
(0.000872371 -0.000630332 -0.000255644)
(0.00189136 0.000942954 0.000116672)
(0.00172818 0.000277494 3.00314e-05)
(0.00168417 -0.000303052 -0.000102617)
(0.00175598 -0.000968141 -0.000215321)
(0.00296362 0.00119821 1.86116e-05)
(0.0028173 0.000361888 -1.26599e-05)
(0.00276713 -0.000399366 -8.63881e-05)
(0.00280919 -0.00123784 -0.000145078)
(0.00413578 0.00137134 -7.62518e-05)
(0.00400548 0.00041556 -5.29934e-05)
(0.0039519 -0.000475523 -6.71123e-05)
(0.00397009 -0.00143305 -7.08114e-05)
(0.00535545 0.00147894 -0.000159461)
(0.00523979 0.00044414 -8.8422e-05)
(0.00518471 -0.000534906 -4.99675e-05)
(0.00518471 -0.00156798 -3.05452e-06)
(0.00658271 0.00153701 -0.000225806)
(0.00647686 0.000453582 -0.00011998)
(0.00642052 -0.000580094 -3.87275e-05)
(0.0064096 -0.00165525 4.95325e-05)
(0.00779927 0.00156146 -0.000276199)
(0.00768757 0.000452115 -0.000149535)
(0.00762543 -0.000612949 -3.54722e-05)
(0.00761354 -0.00170957 7.78253e-05)
(0.00026201 0.000147499 0.000122663)
(0.000135533 2.86796e-05 3.9803e-05)
(0.000122738 -4.03556e-05 -4.83222e-05)
(0.000216684 -0.000155348 -0.00014072)
(0.00102193 0.000609175 0.000102336)
(0.000840335 0.00016658 3.50323e-05)
(0.000809027 -0.000180492 -7.28591e-05)
(0.000920391 -0.000618168 -0.000156821)
(0.00191181 0.00095441 5.45081e-05)
(0.00175048 0.000286626 7.13266e-06)
(0.00170908 -0.000301243 -7.27424e-05)
(0.00178166 -0.000969174 -0.000137722)
(0.00295159 0.00121313 -1.33035e-05)
(0.00280898 0.000373421 -2.43525e-05)
(0.00276167 -0.000397427 -6.44258e-05)
(0.00280258 -0.00123958 -9.37871e-05)
(0.00408579 0.00138826 -8.31718e-05)
(0.00396153 0.000428889 -5.51682e-05)
(0.00391065 -0.000471859 -5.27558e-05)
(0.00392504 -0.00143254 -4.25028e-05)
(0.0052687 0.00149544 -0.00014639)
(0.00515986 0.000458236 -8.31719e-05)
(0.00510725 -0.000527844 -4.20865e-05)
(0.00510211 -0.00156189 5.52477e-06)
(0.00646327 0.00155138 -0.000197954)
(0.00636538 0.000467302 -0.000108315)
(0.0063116 -0.000568742 -3.63172e-05)
(0.00629419 -0.00164157 4.20298e-05)
(0.00765489 0.00157259 -0.00023569)
(0.00755131 0.000464317 -0.000130548)
(0.00749183 -0.000597488 -3.90161e-05)
(0.00747356 -0.00168812 5.72617e-05)
(0.000271102 0.000151222 5.63093e-05)
(0.000137023 3.06492e-05 1.78885e-05)
(0.000122582 -4.0732e-05 -2.7439e-05)
(0.000220309 -0.000158094 -7.19245e-05)
(0.00103709 0.000601843 4.46945e-05)
(0.000840328 0.000166236 1.10741e-05)
(0.000807009 -0.000174491 -4.55401e-05)
(0.000929239 -0.000606693 -8.91718e-05)
(0.00191565 0.0009452 1.23832e-05)
(0.00174312 0.000287844 -8.46844e-06)
(0.00169973 -0.000292847 -4.92992e-05)
(0.00177965 -0.000951615 -8.01339e-05)
(0.00293515 0.00120372 -3.40043e-05)
(0.00278519 0.000376311 -3.13733e-05)
(0.0027359 -0.000386328 -4.62829e-05)
(0.00278033 -0.00121655 -5.35942e-05)
(0.00404513 0.00138091 -8.35544e-05)
(0.00391599 0.000433942 -5.43375e-05)
(0.00386312 -0.00045813 -4.02842e-05)
(0.00387848 -0.00140561 -2.0324e-05)
(0.00520284 0.00149119 -0.000129848)
(0.00509105 0.000465508 -7.58302e-05)
(0.00503655 -0.000511477 -3.46961e-05)
(0.00503042 -0.00153168 1.16802e-05)
(0.00637383 0.00155091 -0.000168519)
(0.00627478 0.000476499 -9.5502e-05)
(0.0062193 -0.000549899 -3.30945e-05)
(0.00619916 -0.0016086 3.51842e-05)
(0.00754654 0.00157645 -0.000196215)
(0.00744332 0.000475128 -0.000112804)
(0.00738162 -0.000576476 -3.94863e-05)
(0.00735789 -0.00165279 4.04906e-05)
(0.000272841 0.00015301 2.30458e-05)
(0.000133638 3.15272e-05 6.58477e-06)
(0.00011781 -4.08129e-05 -1.52562e-05)
(0.000217964 -0.000159091 -3.49977e-05)
(0.0010368 0.000595839 1.27835e-05)
(0.00083091 0.00016563 -1.04944e-06)
(0.000795279 -0.000169501 -2.80598e-05)
(0.000922537 -0.000596413 -4.78399e-05)
(0.00190626 0.000934607 -1.06837e-05)
(0.00172537 0.000287573 -1.54865e-05)
(0.00167954 -0.000283782 -3.25489e-05)
(0.00176382 -0.000932438 -4.29198e-05)
(0.00291215 0.00119156 -4.29812e-05)
(0.00275567 0.000377263 -3.22096e-05)
(0.00270399 -0.000373661 -3.22236e-05)
(0.00275112 -0.00119059 -2.66697e-05)
(0.00400598 0.00136969 -7.79209e-05)
(0.003872 0.000436826 -4.91846e-05)
(0.00381684 -0.000442365 -2.96507e-05)
(0.00383339 -0.00137491 -5.47225e-06)
(0.00514648 0.00148261 -0.000111348)
(0.00503133 0.000470715 -6.54612e-05)
(0.00497471 -0.000493127 -2.73536e-05)
(0.00496846 -0.00149775 1.51725e-05)
(0.0063007 0.00154598 -0.000139941)
(0.0061996 0.000484047 -8.07348e-05)
(0.00614206 -0.000529455 -2.82739e-05)
(0.00612046 -0.0015725 2.95231e-05)
(0.00745896 0.00157548 -0.000160244)
(0.00735438 0.000484969 -9.43525e-05)
(0.00728986 -0.000554293 -3.60005e-05)
(0.00726266 -0.00161513 2.91532e-05)
(0.000272052 0.000153486 7.28278e-06)
(0.00012994 3.194e-05 1.34153e-06)
(0.000113155 -4.06665e-05 -8.18794e-06)
(0.000214297 -0.000158833 -1.57354e-05)
(0.00103088 0.000591279 -2.2262e-06)
(0.000819654 0.000165363 -5.79581e-06)
(0.000782231 -0.000165415 -1.68864e-05)
(0.000911651 -0.00058764 -2.39765e-05)
(0.00189227 0.000926545 -1.95711e-05)
(0.00170599 0.000287576 -1.6485e-05)
(0.00165826 -0.000275899 -2.0836e-05)
(0.00174473 -0.000916271 -2.08545e-05)
(0.00288815 0.00118198 -4.21287e-05)
(0.00272704 0.000378245 -2.85462e-05)
(0.00267354 -0.00036236 -2.16007e-05)
(0.00272228 -0.00116838 -1.07297e-05)
(0.00397066 0.00136046 -6.65174e-05)
(0.00383301 0.000439369 -4.08461e-05)
(0.00377617 -0.000428151 -2.08479e-05)
(0.0037936 -0.00134821 2.65452e-06)
(0.00509912 0.0014751 -9.02036e-05)
(0.00498124 0.000475148 -5.28633e-05)
(0.00492307 -0.000476544 -2.0377e-05)
(0.00491696 -0.00146792 1.56354e-05)
(0.00624117 0.00154097 -0.000110847)
(0.00613819 0.000490399 -6.43843e-05)
(0.00607913 -0.000511021 -2.24171e-05)
(0.00605681 -0.00154053 2.39896e-05)
(0.00738799 0.00157317 -0.000125395)
(0.00728199 0.000493187 -7.47739e-05)
(0.00721534 -0.000534346 -2.97743e-05)
(0.00718606 -0.00158165 2.11076e-05)
(0.00027073 0.000153429 7.46671e-07)
(0.000127053 3.2144e-05 -6.20296e-07)
(0.000109637 -4.04402e-05 -4.16044e-06)
(0.000211019 -0.000158142 -6.24566e-06)
(0.00102421 0.000588047 -7.06769e-06)
(0.000809951 0.000165368 -6.30166e-06)
(0.000771296 -0.000162282 -9.69636e-06)
(0.000901514 -0.000580799 -1.09646e-05)
(0.00187895 0.000921105 -1.92498e-05)
(0.0016894 0.000287934 -1.37731e-05)
(0.00164036 -0.000269779 -1.2637e-05)
(0.00172786 -0.000904032 -8.86674e-06)
(0.00286741 0.00117554 -3.43449e-05)
(0.00270333 0.00037941 -2.20049e-05)
(0.00264861 -0.000353512 -1.36164e-05)
(0.00269823 -0.00115157 -2.66736e-06)
(0.00394194 0.00135418 -5.05818e-05)
(0.00380182 0.000441711 -3.04115e-05)
(0.00374388 -0.000416956 -1.36634e-05)
(0.00376189 -0.00132785 5.50336e-06)
(0.00506197 0.00146984 -6.64912e-05)
(0.00494217 0.000478859 -3.87341e-05)
(0.00488302 -0.000463435 -1.39793e-05)
(0.00487709 -0.00144494 1.33191e-05)
(0.0061953 0.0015372 -8.05359e-05)
(0.00609091 0.00049547 -4.68348e-05)
(0.00603089 -0.000496423 -1.61015e-05)
(0.00600826 -0.00151565 1.79214e-05)
(0.00733347 0.001571 -9.03846e-05)
(0.00722628 0.000499573 -5.41953e-05)
(0.00715826 -0.000518534 -2.19816e-05)
(0.0071279 -0.0015554 1.46562e-05)
(0.000269643 0.000153233 -1.02976e-06)
(0.000125173 3.22442e-05 -8.90808e-07)
(0.000107371 -4.02385e-05 -1.89254e-06)
(0.000208708 -0.000157488 -2.03638e-06)
(0.00101902 0.000585977 -6.15002e-06)
(0.000803148 0.000165474 -4.51196e-06)
(0.00076373 -0.000160161 -4.94223e-06)
(0.00089416 -0.00057614 -4.3583e-06)
(0.00186906 0.000917796 -1.34356e-05)
(0.00167766 0.000288371 -8.95637e-06)
(0.00162781 -0.000265634 -6.72633e-06)
(0.00171576 -0.000895878 -3.09916e-06)
(0.00285252 0.00117168 -2.21753e-05)
(0.0026867 0.00038044 -1.3775e-05)
(0.00263124 -0.000347507 -7.46065e-06)
(0.00268132 -0.00114042 2.83589e-07)
(0.00392184 0.00135042 -3.15304e-05)
(0.00378022 0.000443532 -1.8698e-05)
(0.00372163 -0.00040934 -7.70093e-06)
(0.00373998 -0.0013143 4.70293e-06)
(0.00503641 0.00146664 -4.07407e-05)
(0.00491541 0.000481562 -2.36118e-05)
(0.00485568 -0.000454496 -8.13523e-06)
(0.0048499 -0.00142954 8.86762e-06)
(0.00616401 0.00153481 -4.89341e-05)
(0.00605871 0.000499024 -2.8438e-05)
(0.00599813 -0.000486452 -9.65914e-06)
(0.00597539 -0.00149888 1.11283e-05)
(0.00729633 0.00156946 -5.46608e-05)
(0.00718833 0.000503941 -3.28385e-05)
(0.00711952 -0.00050772 -1.34094e-05)
(0.00708863 -0.00153761 8.74004e-06)
(0.000269054 0.000153094 -5.61848e-07)
(0.000124257 3.22856e-05 -3.72961e-07)
(0.000106274 -4.01234e-05 -5.36776e-07)
(0.000207537 -0.000157111 -4.19529e-07)
(0.00101626 0.000584966 -2.34078e-06)
(0.000799687 0.000165558 -1.61298e-06)
(0.000759909 -0.000159091 -1.50785e-06)
(0.000890363 -0.000573787 -1.10552e-06)
(0.00186386 0.000916234 -4.77008e-06)
(0.00167164 0.00028865 -3.09022e-06)
(0.00162141 -0.000263546 -2.10347e-06)
(0.00170953 -0.00089181 -6.81376e-07)
(0.00284479 0.00116989 -7.63852e-06)
(0.00267818 0.000381035 -4.67946e-06)
(0.00262237 -0.000344482 -2.37043e-06)
(0.00267264 -0.00113487 3.96647e-07)
(0.00391151 0.00134868 -1.07007e-05)
(0.0037692 0.000444526 -6.3034e-06)
(0.0037103 -0.000405501 -2.4839e-06)
(0.00372881 -0.00130756 1.796e-06)
(0.00502337 0.00146514 -1.37219e-05)
(0.00490181 0.000482987 -7.9305e-06)
(0.00484182 -0.000449985 -2.66777e-06)
(0.00483611 -0.00142186 3.10263e-06)
(0.0061481 0.00153364 -1.64193e-05)
(0.00604238 0.000500857 -9.5351e-06)
(0.00598155 -0.000481414 -3.21575e-06)
(0.00595878 -0.00149047 3.77762e-06)
(0.00727746 0.00156863 -1.83016e-05)
(0.00716908 0.000506166 -1.09998e-05)
(0.00709991 -0.000502247 -4.50011e-06)
(0.0070688 -0.00152866 2.91533e-06)
)
;

boundaryField
{
    interface
    {
        type            tractionDisplacement;
        gradient        nonuniform List<vector> 
192
(
(0.0012504 8.90088e-08 -6.27537e-06)
(0.00125106 2.32615e-07 -7.48491e-06)
(0.0012496 5.25483e-07 -7.47543e-06)
(0.00124673 8.45864e-07 -7.27339e-06)
(0.00124237 1.23213e-06 -6.95727e-06)
(0.00123606 1.75972e-06 -6.48764e-06)
(0.00122701 2.65546e-06 -5.77696e-06)
(0.00121237 4.4017e-06 -4.57372e-06)
(0.00127836 1.58951e-07 -4.18175e-06)
(0.00127813 3.40733e-07 -4.98588e-06)
(0.00127606 6.81215e-07 -4.94782e-06)
(0.00127234 1.07974e-06 -4.77587e-06)
(0.0012667 1.57845e-06 -4.5173e-06)
(0.00125852 2.26978e-06 -4.14438e-06)
(0.00124668 3.43378e-06 -3.60938e-06)
(0.00122774 5.61186e-06 -2.83028e-06)
(0.0012969 2.0556e-07 -2.92788e-06)
(0.00129628 4.22773e-07 -3.50022e-06)
(0.00129375 8.10625e-07 -3.4639e-06)
(0.00128935 1.27314e-06 -3.32432e-06)
(0.00128271 1.85533e-06 -3.11929e-06)
(0.00127309 2.65704e-06 -2.83373e-06)
(0.00125927 3.97152e-06 -2.44508e-06)
(0.00123752 6.33252e-06 -1.9299e-06)
(0.00131022 2.36666e-07 -2.12187e-06)
(0.00130939 4.82114e-07 -2.53952e-06)
(0.00130652 9.12912e-07 -2.50899e-06)
(0.00130157 1.426e-06 -2.39958e-06)
(0.00129415 2.06871e-06 -2.2415e-06)
(0.00128345 2.94405e-06 -2.02736e-06)
(0.00126819 4.35007e-06 -1.74696e-06)
(0.00124452 6.81512e-06 -1.39307e-06)
(0.00131978 2.59652e-07 -1.51365e-06)
(0.00131882 5.26652e-07 -1.81147e-06)
(0.00131569 9.91037e-07 -1.78752e-06)
(0.00131032 1.54199e-06 -1.7059e-06)
(0.0013023 2.22756e-06 -1.58946e-06)
(0.00129082 3.15197e-06 -1.43486e-06)
(0.00127453 4.6157e-06 -1.23756e-06)
(0.00124954 7.14639e-06 -9.95544e-07)
(0.00132642 2.76131e-07 -1.01788e-06)
(0.00132536 5.58719e-07 -1.21811e-06)
(0.00132204 1.04754e-06 -1.20117e-06)
(0.00131638 1.62535e-06 -1.14496e-06)
(0.00130794 2.34023e-06 -1.06545e-06)
(0.0012959 3.29691e-06 -9.61283e-07)
(0.00127891 4.79762e-06 -8.30326e-07)
(0.00125304 7.37104e-06 -6.71486e-07)
(0.00133063 2.87035e-07 -5.86262e-07)
(0.00132951 5.79709e-07 -7.01327e-07)
(0.00132607 1.08477e-06 -6.91544e-07)
(0.00132021 1.68017e-06 -6.58841e-07)
(0.00131151 2.41383e-06 -6.12817e-07)
(0.00129912 3.39091e-06 -5.5309e-07)
(0.00128169 4.9157e-06 -4.77739e-07)
(0.00125526 7.51474e-06 -3.82182e-07)
(0.00133265 2.92824e-07 -1.90632e-07)
(0.00133149 5.90077e-07 -2.27698e-07)
(0.001328 1.10224e-06 -2.24725e-07)
(0.00132205 1.70638e-06 -2.14081e-07)
(0.00131322 2.44881e-06 -1.99112e-07)
(0.00130067 3.43614e-06 -1.79825e-07)
(0.00128303 4.97701e-06 -1.55001e-07)
(0.00125626 7.58408e-06 -1.20792e-07)
(1.09308e-05 7.23725e-08 0.00114973)
(1.30776e-05 1.27851e-07 0.00114889)
(1.31548e-05 1.98457e-07 0.00114824)
(1.29808e-05 2.92527e-07 0.0011473)
(1.2715e-05 4.04896e-07 0.00114595)
(1.23458e-05 5.36693e-07 0.00114413)
(1.18492e-05 6.86119e-07 0.00114175)
(1.13079e-05 8.03277e-07 0.00113874)
(1.00547e-05 2.11513e-08 0.0010997)
(1.20342e-05 3.77271e-08 0.00109949)
(1.21003e-05 5.67502e-08 0.0010993)
(1.19489e-05 8.24212e-08 0.00109902)
(1.17254e-05 1.12105e-07 0.00109863)
(1.14243e-05 1.44074e-07 0.00109811)
(1.10382e-05 1.71046e-07 0.00109746)
(1.0708e-05 1.6209e-07 0.00109671)
(1.00418e-05 -2.70428e-08 0.00105277)
(1.20188e-05 -4.56996e-08 0.00105298)
(1.20844e-05 -6.9588e-08 0.00105321)
(1.1933e-05 -1.00411e-07 0.00105354)
(1.171e-05 -1.3707e-07 0.001054)
(1.141e-05 -1.80176e-07 0.00105463)
(1.10258e-05 -2.2871e-07 0.00105544)
(1.06983e-05 -2.6355e-07 0.00105648)
(1.09054e-05 -8.04064e-08 0.00100291)
(1.30452e-05 -1.36982e-07 0.00100376)
(1.312e-05 -2.11694e-07 0.00100444)
(1.29457e-05 -3.09713e-07 0.00100544)
(1.26804e-05 -4.27843e-07 0.00100685)
(1.23126e-05 -5.69225e-07 0.00100876)
(1.18188e-05 -7.38586e-07 0.00101129)
(1.12818e-05 -8.99354e-07 0.00101456)
(-0.000903606 -9.63547e-08 6.85177e-06)
(-0.000902881 -2.51564e-07 8.12936e-06)
(-0.000904348 -5.72774e-07 8.11249e-06)
(-0.00090722 -9.20022e-07 7.89131e-06)
(-0.000911576 -1.33875e-06 7.54482e-06)
(-0.000917854 -1.91504e-06 7.02877e-06)
(-0.00092686 -2.91625e-06 6.2435e-06)
(-0.00094155 -4.95238e-06 4.89368e-06)
(-0.000876477 -1.72336e-07 4.42126e-06)
(-0.000876696 -3.68407e-07 5.23941e-06)
(-0.000878763 -7.40343e-07 5.19106e-06)
(-0.000882477 -1.17274e-06 5.00456e-06)
(-0.000888098 -1.71422e-06 4.72407e-06)
(-0.000896245 -2.4707e-06 4.31857e-06)
(-0.000908024 -3.77243e-06 3.7342e-06)
(-0.000927051 -6.30466e-06 2.87503e-06)
(-0.000858904 -2.23527e-07 3.02815e-06)
(-0.000859518 -4.57468e-07 3.59773e-06)
(-0.000862036 -8.80012e-07 3.55226e-06)
(-0.00086643 -1.38156e-06 3.40144e-06)
(-0.000873045 -2.0136e-06 3.18024e-06)
(-0.000882602 -2.89053e-06 2.87178e-06)
(-0.000896351 -4.35875e-06 2.45083e-06)
(-0.000918167 -7.09737e-06 1.88924e-06)
(-0.00084644 -2.57774e-07 2.16159e-06)
(-0.000847264 -5.21851e-07 2.57079e-06)
(-0.000850126 -9.90306e-07 2.53274e-06)
(-0.00085506 -1.54618e-06 2.41474e-06)
(-0.000862449 -2.24345e-06 2.24466e-06)
(-0.000873069 -3.20009e-06 2.01421e-06)
(-0.000888236 -4.76849e-06 1.71208e-06)
(-0.000911949 -7.62329e-06 1.32891e-06)
(-0.000837595 -2.83051e-07 1.52365e-06)
(-0.00083856 -5.70096e-07 1.81175e-06)
(-0.000841682 -1.07445e-06 1.78199e-06)
(-0.000847026 -1.67087e-06 1.69407e-06)
(-0.000854997 -2.41412e-06 1.56902e-06)
(-0.000866396 -3.42352e-06 1.40308e-06)
(-0.00088257 -5.05455e-06 1.19126e-06)
(-0.000907581 -7.98206e-06 9.30362e-07)
(-0.000831511 -3.01135e-07 1.01526e-06)
(-0.000832571 -6.04765e-07 1.20705e-06)
(-0.000835879 -1.13523e-06 1.18601e-06)
(-0.000841519 -1.76034e-06 1.1255e-06)
(-0.000849902 -2.53489e-06 1.04024e-06)
(-0.000861845 -3.57878e-06 9.28656e-07)
(-0.000878708 -5.24964e-06 7.88457e-07)
(-0.000904589 -8.22417e-06 6.17775e-07)
(-0.000827684 -3.13066e-07 5.81157e-07)
(-0.000828802 -6.27424e-07 6.90621e-07)
(-0.00083223 -1.17521e-06 6.7841e-07)
(-0.000838059 -1.81904e-06 6.43226e-07)
(-0.000846706 -2.61357e-06 5.93914e-07)
(-0.000858993 -3.67914e-06 5.30029e-07)
(-0.000876286 -5.37574e-06 4.49542e-07)
(-0.000902707 -8.37837e-06 3.46949e-07)
(-0.000825854 -3.19376e-07 1.88378e-07)
(-0.000827006 -6.38536e-07 2.23531e-07)
(-0.000830489 -1.19398e-06 2.19753e-07)
(-0.000836409 -1.8471e-06 2.083e-07)
(-0.000845182 -2.65092e-06 1.92268e-07)
(-0.000857629 -3.72725e-06 1.71653e-07)
(-0.000875121 -5.44102e-06 1.45178e-07)
(-0.000901879 -8.45211e-06 1.08378e-07)
(1.13077e-05 -0.00113956 -9.86196e-07)
(1.18661e-05 -0.00114323 -8.3836e-07)
(1.23873e-05 -0.00114616 -6.69958e-07)
(1.27835e-05 -0.00114847 -5.21832e-07)
(1.30767e-05 -0.00115024 -3.91006e-07)
(1.32868e-05 -0.00115152 -2.72808e-07)
(1.34306e-05 -0.00115236 -1.66012e-07)
(1.35055e-05 -0.00115283 -5.78898e-08)
(1.07333e-05 -0.00109747 -3.23353e-07)
(1.10861e-05 -0.00109878 -2.9851e-07)
(1.14951e-05 -0.00109989 -2.50886e-07)
(1.18192e-05 -0.0011008 -2.02547e-07)
(1.20647e-05 -0.00110151 -1.55909e-07)
(1.22434e-05 -0.00110204 -1.10734e-07)
(1.23687e-05 -0.0011024 -6.67961e-08)
(1.24387e-05 -0.00110257 -2.25708e-08)
(1.07338e-05 -0.00105712 1.29308e-07)
(1.10872e-05 -0.00105654 1.24779e-07)
(1.1494e-05 -0.00105609 9.54584e-08)
(1.18153e-05 -0.00105577 6.74789e-08)
(1.20582e-05 -0.00105555 4.5425e-08)
(1.22347e-05 -0.00105541 2.87838e-08)
(1.23586e-05 -0.00105532 1.65634e-08)
(1.24277e-05 -0.00105528 5.73912e-09)
(1.13263e-05 -0.00101504 7.95589e-07)
(1.18919e-05 -0.00101212 6.58727e-07)
(1.24086e-05 -0.00100987 5.05786e-07)
(1.27978e-05 -0.00100817 3.78169e-07)
(1.3084e-05 -0.00100692 2.73189e-07)
(1.32882e-05 -0.00100604 1.85436e-07)
(1.34278e-05 -0.00100548 1.12584e-07)
(1.35008e-05 -0.00100515 4.00141e-08)
)
;
        traction        nonuniform List<vector> 
192
(
(26.7942 0.00190733 -0.134472)
(26.8085 0.00498462 -0.160391)
(26.7772 0.0112604 -0.160188)
(26.7157 0.0181257 -0.155858)
(26.6222 0.0264028 -0.149084)
(26.487 0.0377082 -0.139021)
(26.293 0.0569026 -0.123792)
(25.9793 0.0943222 -0.0980083)
(27.3935 0.0034061 -0.0896089)
(27.3884 0.00730142 -0.10684)
(27.3441 0.0145975 -0.106025)
(27.2645 0.0231373 -0.10234)
(27.1437 0.033824 -0.0967993)
(26.9683 0.0486382 -0.0888082)
(26.7147 0.0735809 -0.077344)
(26.3087 0.120254 -0.0606489)
(27.7907 0.00440487 -0.0627403)
(27.7773 0.00905942 -0.0750048)
(27.7233 0.0173705 -0.0742265)
(27.6289 0.0272816 -0.0712353)
(27.4865 0.039757 -0.066842)
(27.2806 0.0569365 -0.0607228)
(26.9843 0.085104 -0.0523946)
(26.5182 0.135697 -0.0413549)
(28.0762 0.00507141 -0.0454687)
(28.0584 0.010331 -0.0544183)
(27.997 0.0195624 -0.0537641)
(27.8909 0.0305572 -0.0514196)
(27.7317 0.0443295 -0.0480322)
(27.5026 0.0630869 -0.0434433)
(27.1755 0.0932158 -0.0374349)
(26.6683 0.146038 -0.0298516)
(28.2811 0.00556398 -0.0324353)
(28.2603 0.0112854 -0.0388172)
(28.1933 0.0212365 -0.038304)
(28.0783 0.0330426 -0.0365551)
(27.9065 0.0477333 -0.0340599)
(27.6604 0.0675421 -0.0307469)
(27.3113 0.0989078 -0.0265191)
(26.7759 0.153137 -0.0213331)
(28.4234 0.00591708 -0.0218117)
(28.4006 0.0119725 -0.0261023)
(28.3295 0.0224473 -0.0257394)
(28.2081 0.034829 -0.0245348)
(28.0273 0.0501478 -0.0228311)
(27.7694 0.0706481 -0.0205989)
(27.4052 0.102806 -0.0177927)
(26.8508 0.157951 -0.014389)
(28.5135 0.00615074 -0.0125628)
(28.4894 0.0124223 -0.0150284)
(28.4158 0.023245 -0.0148188)
(28.2903 0.0360036 -0.014118)
(28.1037 0.0517248 -0.0131318)
(27.8383 0.0726623 -0.0118519)
(27.4647 0.105336 -0.0102373)
(26.8984 0.16103 -0.00818961)
(28.5567 0.00627479 -0.00408497)
(28.532 0.0126445 -0.00487923)
(28.4571 0.0236193 -0.00481554)
(28.3296 0.0365652 -0.00458744)
(28.1404 0.0524745 -0.00426669)
(27.8714 0.0736316 -0.00385339)
(27.4935 0.10665 -0.00332146)
(26.9199 0.162516 -0.00258841)
(0.234232 0.00155084 24.637)
(0.280235 0.00273965 24.6191)
(0.281888 0.00425265 24.6052)
(0.278159 0.00626843 24.5849)
(0.272465 0.00867633 24.5561)
(0.264553 0.0115006 24.5171)
(0.253912 0.0147025 24.4661)
(0.242312 0.0172131 24.4015)
(0.215458 0.000453242 23.565)
(0.257875 0.000808438 23.5605)
(0.259292 0.00121608 23.5564)
(0.256048 0.00176617 23.5504)
(0.251258 0.00240225 23.542)
(0.244806 0.00308729 23.5309)
(0.236532 0.00366528 23.517)
(0.229457 0.00347336 23.5009)
(0.215181 -0.00057949 22.5593)
(0.257546 -0.000979277 22.564)
(0.258951 -0.00149117 22.5688)
(0.255708 -0.00215167 22.5758)
(0.250929 -0.00293722 22.5858)
(0.244501 -0.00386092 22.5992)
(0.236268 -0.00490093 22.6167)
(0.22925 -0.00564749 22.6389)
(0.233687 -0.00172299 21.4909)
(0.279539 -0.00293532 21.5091)
(0.281144 -0.00453631 21.5238)
(0.277407 -0.00663671 21.5451)
(0.271722 -0.00916805 21.5754)
(0.263841 -0.0121977 21.6164)
(0.253261 -0.0158268 21.6704)
(0.241752 -0.0192719 21.7405)
(-19.363 -0.00206474 0.146824)
(-19.3475 -0.00539066 0.174201)
(-19.3789 -0.0122737 0.173839)
(-19.4404 -0.0197148 0.1691)
(-19.5338 -0.0286875 0.161675)
(-19.6683 -0.0410367 0.150616)
(-19.8613 -0.0624911 0.133789)
(-20.1761 -0.106122 0.104865)
(-18.7816 -0.00369291 0.0947413)
(-18.7863 -0.00789443 0.112273)
(-18.8306 -0.0158645 0.111237)
(-18.9102 -0.0251302 0.107241)
(-19.0307 -0.0367334 0.10123)
(-19.2052 -0.0529437 0.0925409)
(-19.4577 -0.0808377 0.0800185)
(-19.8654 -0.1351 0.0616077)
(-18.4051 -0.00478987 0.064889)
(-18.4182 -0.00980289 0.0770943)
(-18.4722 -0.0188574 0.0761199)
(-18.5664 -0.0296049 0.0728881)
(-18.7081 -0.0431486 0.0681481)
(-18.9129 -0.06194 0.0615382)
(-19.2075 -0.0934018 0.0525179)
(-19.675 -0.152086 0.0404836)
(-18.138 -0.00552373 0.0463197)
(-18.1556 -0.0111825 0.0550883)
(-18.217 -0.0212208 0.054273)
(-18.3227 -0.0331325 0.0517444)
(-18.481 -0.048074 0.0480998)
(-18.7086 -0.0685733 0.0431617)
(-19.0336 -0.102182 0.0366875)
(-19.5418 -0.163356 0.0284766)
(-17.9485 -0.00606538 0.0326497)
(-17.9691 -0.0122163 0.0388231)
(-18.036 -0.023024 0.0381856)
(-18.1506 -0.0358044 0.0363015)
(-18.3214 -0.0517312 0.0336219)
(-18.5656 -0.0733611 0.0300661)
(-18.9122 -0.108312 0.0255271)
(-19.4482 -0.171044 0.0199363)
(-17.8181 -0.00645288 0.0217555)
(-17.8408 -0.0129593 0.0258653)
(-17.9117 -0.0243264 0.0254145)
(-18.0325 -0.0377215 0.0241178)
(-18.2122 -0.0543192 0.0222908)
(-18.4681 -0.0766882 0.0198998)
(-18.8294 -0.112492 0.0168955)
(-19.3841 -0.176232 0.013238)
(-17.7361 -0.00670857 0.0124534)
(-17.7601 -0.0134448 0.014799)
(-17.8335 -0.0251831 0.0145374)
(-17.9584 -0.0389794 0.0137834)
(-18.1437 -0.0560052 0.0127267)
(-18.407 -0.0788387 0.0113578)
(-18.7775 -0.115194 0.00963305)
(-19.3437 -0.179537 0.00743463)
(-17.6969 -0.00684377 0.00403667)
(-17.7216 -0.0136829 0.00478996)
(-17.7962 -0.0255853 0.00470898)
(-17.9231 -0.0395806 0.00446357)
(-18.111 -0.0568055 0.00412003)
(-18.3778 -0.0798697 0.00367828)
(-18.7526 -0.116593 0.00311095)
(-19.326 -0.181117 0.00232238)
(0.242309 -24.4191 -0.0211328)
(0.254273 -24.4977 -0.0179648)
(0.265441 -24.5605 -0.0143563)
(0.273931 -24.61 -0.0111821)
(0.280215 -24.6479 -0.00837869)
(0.284717 -24.6755 -0.00584588)
(0.287799 -24.6935 -0.0035574)
(0.289404 -24.7035 -0.0012405)
(0.229999 -23.5171 -0.006929)
(0.237559 -23.5453 -0.00639663)
(0.246324 -23.5691 -0.00537612)
(0.253268 -23.5885 -0.00434029)
(0.25853 -23.6038 -0.00334091)
(0.262358 -23.6152 -0.00237288)
(0.265043 -23.6228 -0.00143135)
(0.266544 -23.6265 -0.00048366)
(0.23001 -22.6525 0.00277088)
(0.237582 -22.6402 0.00267384)
(0.2463 -22.6305 0.00204554)
(0.253185 -22.6237 0.00144598)
(0.25839 -22.6189 0.000973392)
(0.262173 -22.6158 0.000616796)
(0.264827 -22.614 0.00035493)
(0.266308 -22.6131 0.000122981)
(0.242706 -21.7508 0.0170483)
(0.254825 -21.6882 0.0141156)
(0.265899 -21.64 0.0108383)
(0.274239 -21.6037 0.00810362)
(0.280372 -21.5769 0.00585405)
(0.284748 -21.558 0.00397363)
(0.287739 -21.5459 0.00241252)
(0.289303 -21.5389 0.000857445)
)
;
        pressure        uniform 0;
        value           nonuniform List<vector> 
192
(
(0.000507923 0.00053157 0.000257276)
(0.00110365 0.000984876 0.000198042)
(0.00203166 0.0014256 0.000107333)
(0.00307806 0.00174042 -1.35635e-05)
(0.00423244 0.00195548 -0.000130654)
(0.00543577 0.00208254 -0.000234105)
(0.00665399 0.00214687 -0.000316508)
(0.00786584 0.00218096 -0.000376082)
(0.000534976 0.000548113 0.000125398)
(0.00116818 0.000977045 0.000108607)
(0.00205381 0.00141919 5.16649e-05)
(0.00306988 0.00173694 -3.08071e-05)
(0.00418502 0.00195363 -0.000116056)
(0.00535203 0.00208272 -0.000194327)
(0.00653755 0.00214868 -0.000258898)
(0.00772409 0.00218642 -0.000305572)
(0.000552588 0.000562104 5.57722e-05)
(0.00118919 0.000967435 4.34254e-05)
(0.00206174 0.00139956 5.25825e-06)
(0.00305527 0.00171528 -5.00775e-05)
(0.00414433 0.0019332 -0.000110071)
(0.00528504 0.00206632 -0.000166936)
(0.00644643 0.00213805 -0.000215285)
(0.00761253 0.00218415 -0.000250456)
(0.000559146 0.000567231 2.11099e-05)
(0.00119348 0.00095878 8.16192e-06)
(0.00205684 0.00138276 -1.99542e-05)
(0.00303562 0.00169485 -5.8371e-05)
(0.00410725 0.001913 -0.000100374)
(0.00522975 0.002049 -0.000141154)
(0.00637367 0.00212534 -0.000176813)
(0.0075244 0.00217757 -0.00020313)
(0.000560328 0.000567801 5.09199e-06)
(0.00119043 0.000951506 -7.56602e-06)
(0.00204601 0.00137024 -2.87106e-05)
(0.00301434 0.00167965 -5.57036e-05)
(0.00407399 0.00189762 -8.50006e-05)
(0.00518377 0.0020353 -0.000113833)
(0.00631501 0.00211452 -0.000139623)
(0.00745358 0.00217049 -0.000158888)
(0.000559558 0.000566689 -1.07518e-06)
(0.00118542 0.000945871 -1.15736e-05)
(0.0020347 0.0013615 -2.661e-05)
(0.00299552 0.00166934 -4.48222e-05)
(0.00404685 0.00188714 -6.43868e-05)
(0.00514784 0.00202573 -8.37776e-05)
(0.00627003 0.00210651 -0.00010138)
(0.00739957 0.00216455 -0.00011462)
(0.000558466 0.000565382 -2.19547e-06)
(0.0011811 0.000942037 -9.06321e-06)
(0.00202595 0.00135596 -1.81207e-05)
(0.00298178 0.00166299 -2.8735e-05)
(0.00402776 0.00188072 -4.00494e-05)
(0.0051231 0.00201977 -5.13031e-05)
(0.00623939 0.00210134 -6.16058e-05)
(0.00736288 0.00216043 -6.93825e-05)
(0.000557771 0.000564591 -9.58619e-07)
(0.00117869 0.000940102 -3.33906e-06)
(0.00202125 0.00135327 -6.36845e-06)
(0.00297457 0.00165997 -9.86437e-06)
(0.00401791 0.00187768 -1.35765e-05)
(0.00511045 0.00201692 -1.72747e-05)
(0.0062238 0.00209879 -2.06731e-05)
(0.00734423 0.00215826 -2.32412e-05)
(0.000223123 0.000274296 0.000396256)
(0.000949996 0.000564542 0.000210296)
(0.00189009 0.000902964 0.000149572)
(0.00298741 0.00114763 3.26922e-05)
(0.00418692 0.00132448 -7.22546e-05)
(0.00543046 0.0014386 -0.000164962)
(0.00667648 0.00150464 -0.000236938)
(0.00790684 0.00154171 -0.000295104)
(6.37299e-05 7.60244e-05 0.000110116)
(0.000734769 0.000145086 7.88433e-05)
(0.00167935 0.000261998 3.35066e-05)
(0.00279839 0.000342969 -1.52104e-05)
(0.00401836 0.000397235 -5.91239e-05)
(0.00528048 0.000426819 -9.74822e-05)
(0.00654053 0.000437002 -0.000131064)
(0.00777007 0.000439224 -0.000165775)
(4.70716e-05 -0.000103686 -0.000121349)
(0.000695698 -0.000176502 -0.000121864)
(0.00162774 -0.000292939 -0.000114165)
(0.00274072 -0.000385266 -9.51939e-05)
(0.00395726 -0.000463591 -7.40092e-05)
(0.00521848 -0.000526927 -5.45718e-05)
(0.00647844 -0.000577496 -4.12335e-05)
(0.00770235 -0.00061608 -3.35661e-05)
(0.0001672 -0.000316035 -0.000407121)
(0.00082517 -0.00059739 -0.000279378)
(0.00172835 -0.000937043 -0.000255309)
(0.00280534 -0.00119447 -0.000169328)
(0.00399291 -0.00139341 -8.6371e-05)
(0.00523233 -0.00153577 -9.63904e-06)
(0.00647844 -0.00163418 4.97712e-05)
(0.00769791 -0.00170478 8.58487e-05)
(0.000417822 -0.000519658 -0.000283409)
(0.000960553 -0.000993444 -0.000283939)
(0.00184243 -0.00145253 -0.000234692)
(0.00286249 -0.00178512 -0.000144084)
(0.00400049 -0.00202229 -4.7705e-05)
(0.00519667 -0.00217409 4.22141e-05)
(0.00641101 -0.00226155 0.000114498)
(0.00761333 -0.00230736 0.000157364)
(0.000433447 -0.000533611 -0.000148225)
(0.0010248 -0.000983808 -0.000171149)
(0.00186696 -0.00143806 -0.000145627)
(0.0028564 -0.00176939 -8.77006e-05)
(0.0039546 -0.00200245 -2.06125e-05)
(0.0051132 -0.00214976 4.37121e-05)
(0.00629421 -0.00223205 9.52197e-05)
(0.00747266 -0.00227452 0.000123472)
(0.000442757 -0.000544972 -7.43116e-05)
(0.00103923 -0.000971801 -9.19653e-05)
(0.00186971 -0.00141085 -7.79205e-05)
(0.00283712 -0.00173418 -4.25303e-05)
(0.00390924 -0.00196172 1.59445e-06)
(0.0050414 -0.00210589 4.50568e-05)
(0.00619795 -0.00218644 7.98081e-05)
(0.00735384 -0.00222748 9.58789e-05)
(0.00044305 -0.00054653 -3.49091e-05)
(0.00103641 -0.000958845 -4.54097e-05)
(0.00185771 -0.0013856 -3.59706e-05)
(0.00281083 -0.00169988 -1.34271e-05)
(0.00386587 -0.00192153 1.52098e-05)
(0.00498007 -0.00206212 4.38536e-05)
(0.00611879 -0.00214048 6.63852e-05)
(0.00725703 -0.00217972 7.43799e-05)
(0.000439761 -0.000543641 -1.47461e-05)
(0.00102777 -0.000946838 -1.99506e-05)
(0.00184101 -0.00136475 -1.29615e-05)
(0.00278404 -0.00167186 1.81874e-06)
(0.00382748 -0.00188826 2.04201e-05)
(0.00492923 -0.00202528 3.89996e-05)
(0.006055 -0.00210114 5.32192e-05)
(0.00717959 -0.00213826 5.65851e-05)
(0.000435922 -0.000539724 -5.17291e-06)
(0.00101879 -0.000937056 -7.24062e-06)
(0.0018255 -0.00134892 -2.19437e-06)
(0.00276125 -0.00165097 7.30373e-06)
(0.00379672 -0.00186337 1.90243e-05)
(0.00488988 -0.0019974 3.06117e-05)
(0.00600648 -0.00207099 3.9203e-05)
(0.00712111 -0.00210614 4.02617e-05)
(0.000432908 -0.000536493 -1.27642e-06)
(0.00101196 -0.00093024 -1.85815e-06)
(0.0018141 -0.00133829 1.23835e-06)
(0.00274505 -0.00163715 6.61033e-06)
(0.00377538 -0.00184692 1.31209e-05)
(0.00486303 -0.00197887 1.94882e-05)
(0.00597368 -0.00205081 2.40854e-05)
(0.00708175 -0.00208448 2.42445e-05)
(0.000431302 -0.00053473 -1.49453e-07)
(0.00100836 -0.000926758 -2.34665e-07)
(0.00180816 -0.00133297 8.12665e-07)
(0.00273668 -0.00163027 2.55701e-06)