/*--------------------------------*- C++ -*----------------------------------*\
| =========                 |                                                 |
| \\      /  F ield         | foam-extend: Open Source CFD                    |
|  \\    /   O peration     | Version:     3.1                                |
|   \\  /    A nd           | Web:         http://www.extend-project.de       |
|    \\/     M anipulation  |                                                 |
\*---------------------------------------------------------------------------*/
FoamFile
{
    version     2.0;
    format      ascii;
    class       volSymmTensorField;
    location    "2.3";
    object      epsilon;
}
// * * * * * * * * * * * * * * * * * * * * * * * * * * * * * * * * * * * * * //

dimensions      [0 0 0 0 0 0 0];

internalField   nonuniform List<symmTensor> 
256
(
(-0.00613751 0.00836354 -0.000368813 0.0232868 0.00414062 -0.00247707)
(-0.00206849 0.00721664 -0.001089 0.00550343 0.00149048 -0.000937348)
(0.00101469 0.00672271 -0.00110934 -0.00619598 -0.00197179 0.00102582)
(0.00475793 0.00702906 -0.000457796 -0.0228871 -0.00489532 0.00259327)
(-0.0108329 0.00350747 -0.000437871 0.0147117 -0.00143947 -0.00367999)
(-0.0044055 0.00912405 -0.00172842 0.00567798 -0.000625924 -0.00137324)
(0.00184937 0.00893863 -0.00178292 -0.00469242 0.000323171 0.00165279)
(0.0081621 0.00341195 -0.000645746 -0.0138586 0.00101282 0.00411189)
(-0.00908892 0.00419763 -0.000195492 0.0136439 -0.000784816 -0.00204985)
(-0.00454148 0.0087222 -0.00120118 0.00513667 -0.000315027 -0.00070101)
(0.00130205 0.00873362 -0.00124349 -0.00375673 4.32768e-05 0.00119021)
(0.00601834 0.00425666 -0.000411553 -0.012365 0.000479342 0.0027901)
(-0.00781356 0.00361862 -0.000199738 0.0100726 -0.0010735 -0.00113173)
(-0.00410372 0.00786112 -0.00100054 0.00402146 -0.000369309 -0.000301708)
(0.000687571 0.00792332 -0.00102793 -0.00259609 0.000160175 0.000976099)
(0.00452177 0.00375096 -0.000425856 -0.00868226 0.000855318 0.0020692)
(-0.00634791 0.00309621 -0.000153338 0.00712296 -0.000965708 -0.000148237)
(-0.00357876 0.006694 -0.000811833 0.00298719 -0.000312042 9.138e-05)
(0.000197371 0.00678929 -0.000832054 -0.00165934 0.000158891 0.000691104)
(0.00301113 0.00328005 -0.000375238 -0.00572859 0.000831917 0.00119688)
(-0.0051891 0.00236335 -0.000162357 0.00461943 -0.000836096 0.000610805)
(-0.00310812 0.00531624 -0.000709514 0.0020827 -0.000270282 0.000389311)
(-0.000146609 0.00545487 -0.000712111 -0.000921335 0.000143918 0.000443589)
(0.00188143 0.00263575 -0.000355901 -0.00327249 0.000766256 0.000466964)
(-0.00444729 0.00151959 -0.000228014 0.00297398 -0.00069233 0.00121985)
(-0.00283098 0.00383792 -0.000681601 0.00143084 -0.00026307 0.000640122)
(-0.000368047 0.00397938 -0.000655738 -0.000386475 9.17141e-05 0.000221565)
(0.00119519 0.00189803 -0.000360127 -0.00157093 0.000607279 -0.000158224)
(-0.00464267 0.000849671 -0.000313858 0.00212343 -0.000376875 0.00170259)
(-0.00335911 0.00216902 -0.000671331 0.00124653 -0.000164129 0.000848099)
(-0.000282486 0.00212591 -0.000652989 3.80052e-05 4.03601e-07 1.59613e-05)
(0.00122323 0.000934239 -0.000422458 -0.000678909 0.000230436 -0.000686236)
(-0.00616612 0.00935681 -0.000227167 0.0225792 0.00250221 -0.00163709)
(-0.00190149 0.00848198 -0.000867739 0.00529656 0.000836771 -0.000633392)
(0.000934162 0.0080573 -0.000945027 -0.00547512 -0.00138194 0.000691625)
(0.00476241 0.00809837 -0.000416381 -0.0216732 -0.00328565 0.00180616)
(-0.0108301 0.00352992 -0.000326174 0.0160626 -0.000630232 -0.00288432)
(-0.0040295 0.00929172 -0.00160119 0.00633451 -0.000357287 -0.00110105)
(0.00170162 0.00918824 -0.00176986 -0.005406 -7.96718e-05 0.00131911)
(0.00818102 0.00356262 -0.000736375 -0.0153176 8.46451e-05 0.00339837)
(-0.00888397 0.00364778 -0.00013783 0.0136837 -0.00124613 -0.00200823)
(-0.00404743 0.00793669 -0.00127771 0.00518509 -0.000497608 -0.000738457)
(0.00117767 0.00796913 -0.00146 -0.00387617 0.000212135 0.00113009)
(0.00592895 0.00371357 -0.000608083 -0.012468 0.000912799 0.00279242)
(-0.00746988 0.00299254 -4.68211e-06 0.0101306 -0.00148562 -0.0010063)
(-0.00355778 0.00679881 -0.000928435 0.00404692 -0.000520356 -0.000348482)
(0.00056464 0.00685819 -0.00111342 -0.0026467 0.000356758 0.00086255)
(0.00430919 0.00310932 -0.00050764 -0.00875159 0.00131642 0.00195084)
(-0.00600126 0.00243225 0.000114162 0.00702295 -0.00144833 -5.15843e-05)
(-0.00304701 0.00558679 -0.00065277 0.00295192 -0.000477665 7.75621e-06)
(9.35438e-05 0.00566868 -0.000834378 -0.00160013 0.000403314 0.000585514)
(0.00278829 0.00259488 -0.000390308 -0.00559218 0.00141009 0.00108187)
(-0.00485145 0.00177822 0.00016553 0.00448794 -0.00126442 0.000741643)
(-0.00260823 0.00433813 -0.000476461 0.00203297 -0.000410412 0.000303443)
(-0.000246574 0.00445821 -0.00063815 -0.000800031 0.00037159 0.000339438)
(0.00164343 0.00203353 -0.000303207 -0.00304905 0.00131174 0.000315401)
(-0.0041312 0.00104836 0.000141521 0.00281024 -0.00098544 0.00135832)
(-0.00237719 0.00308657 -0.000411086 0.00134991 -0.000344787 0.000544921)
(-0.000468255 0.00321793 -0.000542074 -0.00022858 0.000264798 0.000137636)
(0.000953853 0.00144401 -0.000254194 -0.00127088 0.00103811 -0.000306623)
(-0.00433742 0.000620944 4.58803e-05 0.00201103 -0.000532705 0.00181989)
(-0.00295314 0.00179108 -0.00045613 0.00118916 -0.000203621 0.000726375)
(-0.000419398 0.00173952 -0.000608023 0.000158919 0.000100071 -5.69671e-05)
(0.000957904 0.000725326 -0.000346303 -0.000448776 0.000513554 -0.000825933)
(-0.00644721 0.00974804 -0.000152639 0.0226765 0.00119637 -0.00093595)
(-0.00201618 0.00875763 -0.000550879 0.00533671 0.000339417 -0.000343814)
(0.00099578 0.00830499 -0.000615219 -0.00533744 -0.000845839 0.000427352)
(0.00496272 0.00838878 -0.000290899 -0.0216258 -0.00183513 0.00108846)
(-0.0113723 0.00356436 -0.000267655 0.0157128 -0.000438861 -0.00175149)
(-0.00427917 0.00937379 -0.00108261 0.00633589 -0.000281859 -0.000614373)
(0.00184579 0.00927421 -0.00122466 -0.00528234 -0.000126603 0.000876165)
(0.00860186 0.00359317 -0.000570449 -0.0148726 -4.04016e-06 0.0021787)
(-0.00929328 0.00356852 -0.000177477 0.0135853 -0.00097392 -0.00133408)
(-0.00425845 0.00782052 -0.000954464 0.00522669 -0.00041649 -0.000410727)
(0.00129312 0.00785261 -0.00111083 -0.00382249 0.000156369 0.000841245)
(0.00624263 0.00361036 -0.000519122 -0.012257 0.000702513 0.00196858)
(-0.00770727 0.00286384 -7.07781e-05 0.0101028 -0.00122155 -0.000673485)
(-0.00368532 0.00650759 -0.000719947 0.00407812 -0.000450687 -0.000136086)
(0.000596601 0.00656614 -0.000877506 -0.00258241 0.000325343 0.000694677)
(0.00444106 0.00296875 -0.000424247 -0.00860703 0.00110604 0.00145268)
(-0.00614128 0.0022613 2.52792e-05 0.00705218 -0.0012376 2.96505e-05)
(-0.00312745 0.0052336 -0.000494345 0.00299128 -0.00041992 0.000139499)
(7.10404e-05 0.00532112 -0.0006465 -0.00153827 0.000398842 0.000510424)
(0.00280751 0.00243245 -0.000319375 -0.00548958 0.00125299 0.000840609)
(-0.0049172 0.00160009 7.95072e-05 0.00456218 -0.0011055 0.000653204)
(-0.00265279 0.00399292 -0.000340066 0.00207345 -0.0003582 0.000380706)
(-0.000312036 0.00413102 -0.000475377 -0.000737246 0.000389687 0.000336298)
(0.00156927 0.00189399 -0.000233212 -0.00297664 0.00120856 0.000268566)
(-0.00413497 0.000876528 7.33444e-05 0.00293159 -0.000864638 0.0011508)
(-0.00239479 0.0028088 -0.000290958 0.00139008 -0.000284393 0.000579354)
(-0.000573734 0.00297102 -0.00040668 -0.000170097 0.000296987 0.000197985)
(0.000799763 0.00134916 -0.000191915 -0.0012198 0.000987119 -0.00019628)
(-0.00428861 0.000531029 -2.00612e-05 0.00213592 -0.00043883 0.00148806)
(-0.00297171 0.00164797 -0.000390504 0.00124157 -0.000146229 0.000717201)
(-0.00060769 0.00161367 -0.0005381 0.000213311 0.000116674 0.000100399)
(0.000709931 0.000686616 -0.000312305 -0.000408519 0.000479918 -0.000507809)
(-0.00664369 0.00986491 -8.48766e-05 0.0226952 0.000467989 -0.000479031)
(-0.00211503 0.00876532 -0.000325457 0.00535178 8.23924e-05 -0.000162418)
(0.00102807 0.00827849 -0.000368324 -0.00525291 -0.000503674 0.000263715)
(0.00509885 0.00841968 -0.000180097 -0.0215302 -0.000960182 0.000622023)
(-0.0117649 0.00356065 -0.000163245 0.0153959 -0.000361552 -0.000902129)
(-0.00450039 0.00939343 -0.000676069 0.00630272 -0.000227349 -0.000275912)
(0.00191574 0.00928647 -0.000772647 -0.00511223 -0.000107643 0.000570665)
(0.00888562 0.00358501 -0.000375208 -0.0144516 2.27689e-05 0.00129034)
(-0.00965528 0.00356789 -0.000130542 0.013422 -0.000706409 -0.000663015)
(-0.00448662 0.00782166 -0.000649612 0.0052347 -0.000311923 -0.000135711)
(0.00134753 0.00785338 -0.000756589 -0.00368938 0.000105067 0.000598184)
(0.0064977 0.00360384 -0.000367712 -0.0119521 0.000506877 0.00123273)
(-0.00798878 0.0028448 -6.92093e-05 0.0100477 -0.000888844 -0.000236182)
(-0.00387805 0.00646704 -0.000518883 0.00411141 -0.000335065 6.14215e-05)
(0.000606829 0.00652891 -0.000623974 -0.00247511 0.000248276 0.000535762)
(0.00460768 0.00295355 -0.000308233 -0.0084001 0.000817715 0.00094522)
(-0.0063356 0.00222461 -5.08905e-06 0.00708372 -0.000922215 0.000251773)
(-0.00328431 0.00516193 -0.0003702 0.00304605 -0.00031413 0.000268598)
(4.06072e-05 0.00525964 -0.000468786 -0.0014561 0.000322229 0.00043375)
(0.00287812 0.00241474 -0.000232071 -0.00536297 0.000960911 0.000558878)
(-0.0050382 0.00154936 3.44031e-05 0.00465742 -0.000845952 0.000708827)
(-0.00277756 0.00390787 -0.000264022 0.00214021 -0.000270328 0.000458694)
(-0.000375981 0.00406576 -0.000349634 -0.000675581 0.000328045 0.00033142)
(0.00155424 0.0018826 -0.00016721 -0.00290923 0.000957098 0.000176521)
(-0.00419233 0.000816213 2.76964e-05 0.00307637 -0.000680815 0.00108567)
(-0.00249558 0.00273261 -0.000245796 0.00146256 -0.000215016 0.000622477)
(-0.000674769 0.00292089 -0.000319507 -0.000123891 0.000258725 0.000259704)
(0.000701722 0.00134832 -0.000142456 -0.00118639 0.000803376 -0.000130079)
(-0.00430115 0.00049959 -6.62321e-05 0.00229593 -0.000360824 0.00134401)
(-0.00307976 0.00160425 -0.000376296 0.00132671 -0.00011258 0.00074972)
(-0.000782322 0.00158009 -0.000477948 0.000249239 0.000105477 0.000245636)
(0.000521277 0.000687711 -0.000263017 -0.000407357 0.000398933 -0.00028269)
(-0.00676102 0.00987306 -4.15589e-05 0.0226573 0.000113476 -0.000214574)
(-0.00217833 0.00869447 -0.000181689 0.00535731 -2.91234e-05 -5.88335e-05)
(0.00103866 0.00818215 -0.000208506 -0.00518019 -0.000292529 0.000163805)
(0.00516769 0.00836526 -0.000104354 -0.0213854 -0.000472711 0.000344022)
(-0.0120167 0.00353825 -8.65927e-05 0.0151969 -0.000298219 -0.000377577)
(-0.00464601 0.00936498 -0.000397786 0.00628495 -0.000177498 -7.16114e-05)
(0.00193745 0.00925254 -0.000459678 -0.00496909 -7.76403e-05 0.000373341)
(0.00904066 0.0035633 -0.00022842 -0.014153 4.79705e-05 0.000732313)
(-0.00991742 0.00356703 -7.95051e-05 0.0132977 -0.000500872 -0.000194628)
(-0.00464787 0.00782735 -0.000412413 0.00524232 -0.000222123 4.67208e-05)
(0.00136108 0.00786121 -0.000481499 -0.00355985 7.00595e-05 0.000423337)
(0.00665569 0.00360544 -0.000237074 -0.0116966 0.000360892 0.000721701)
(-0.00821884 0.0028492 -4.87773e-05 0.00999753 -0.000615246 0.000109871)
(-0.00402622 0.00648265 -0.000348158 0.00414193 -0.000232459 0.000201596)
(0.000600241 0.00654966 -0.000414415 -0.00236709 0.000176466 0.000408169)
(0.00472448 0.00296726 -0.000204074 -0.0082072 0.000574585 0.000555517)
(-0.00651625 0.00222581 -1.17691e-05 0.00710026 -0.000643974 0.000462704)
(-0.00341236 0.00517386 -0.000261356 0.00309467 -0.000217773 0.000365751)
(1.21916e-05 0.00528098 -0.00032176 -0.001372 0.000236818 0.000361305)
(0.00293924 0.00243477 -0.000155856 -0.00523382 0.000686559 0.000314692)
(-0.00516991 0.00154189 1.09383e-05 0.00472268 -0.000603793 0.000805655)
(-0.00288493 0.00391119 -0.000199233 0.00219857 -0.000189948 0.00052271)
(-0.000425059 0.00408396 -0.000250199 -0.000613809 0.000246778 0.000312938)
(0.00155802 0.0019062 -0.000114614 -0.00283097 0.000698242 6.93276e-05)
(-0.00428001 0.000798213 -6.37039e-07 0.00317492 -0.000500078 0.00109983)
(-0.00258862 0.00272942 -0.000204819 0.00152373 -0.000154163 0.000666102)
(-0.000749668 0.00293448 -0.000248256 -7.95676e-05 0.000197495 0.000293322)
(0.000647389 0.00137258 -0.000105524 -0.00114011 0.000596606 -0.000117677)
(-0.004363 0.000490388 -8.79189e-05 0.0024034 -0.000271228 0.00129908)
(-0.00318401 0.00160065 -0.000337282 0.00139501 -8.18855e-05 0.000785566)
(-0.000907369 0.00157916 -0.00040111 0.000285481 8.04182e-05 0.000337459)
(0.000407144 0.00069899 -0.000212742 -0.000389501 0.000298327 -0.0001583)
(-0.00682481 0.00984662 -1.70838e-05 0.0226044 -2.75687e-05 -6.79448e-05)
(-0.00221634 0.00861616 -9.50827e-05 0.00536077 -6.01361e-05 -2.87524e-06)
(0.00103965 0.00808652 -0.000111051 -0.0051203 -0.000162624 0.000103707)
(0.00519612 0.00829641 -5.65465e-05 -0.0212434 -0.000214717 0.00018379)
(-0.0121641 0.0035115 -3.90241e-05 0.0150816 -0.000225185 -7.43248e-05)
(-0.00473559 0.0093195 -0.000218924 0.00628122 -0.000127844 4.28707e-05)
(0.00193896 0.00920375 -0.0002566 -0.00486189 -5.0056e-05 0.000250073)
(0.00911445 0.00353976 -0.0001292 -0.0139524 5.29035e-05 0.000399598)
(-0.0100854 0.00356024 -4.07901e-05 0.013222 -0.000337068 9.7012e-05)
(-0.00475148 0.00782129 -0.000242786 0.005254 -0.000148459 0.000155342)
(0.00135871 0.00785778 -0.000285151 -0.00345806 4.54159e-05 0.000306342)
(0.00674278 0.00360367 -0.000140522 -0.0115133 0.000244652 0.000397865)
(-0.00837673 0.00285339 -2.72099e-05 0.0099649 -0.000402161 0.000343343)
(-0.0041257 0.00649942 -0.000215244 0.004168 -0.000150919 0.00028948)
(0.000589264 0.0065711 -0.000255101 -0.00227899 0.000116937 0.000316231)
(0.00479419 0.00298091 -0.000123956 -0.0080592 0.000380146 0.000291982)
(-0.00664934 0.00223261 -8.13622e-06 0.00710766 -0.000421166 0.000623015)
(-0.00350136 0.00519835 -0.000169601 0.00313179 -0.000140761 0.000430421)
(-9.47253e-06 0.00531271 -0.000205089 -0.00130133 0.000159464 0.000303009)
(0.00297974 0.00245673 -9.64142e-05 -0.00512569 0.000456188 0.000134423)
(-0.00527478 0.00154461 2.62584e-06 0.00475933 -0.0004009 0.000900551)
(-0.00296185 0.00393288 -0.00013828 0.00224059 -0.000124337 0.000569414)
(-0.000458126 0.00411604 -0.000167441 -0.000561064 0.000167978 0.000290613)
(0.00156475 0.00193131 -7.32672e-05 -0.00275807 0.000468901 -2.54367e-05)
(-0.00435835 0.000792563 -1.01603e-05 0.0032307 -0.000339418 0.00114659)
(-0.00265745 0.00274307 -0.000154524 0.00156571 -0.00010306 0.000702427)
(-0.000798457 0.00295907 -0.000179036 -4.18798e-05 0.000134996 0.000306624)
(0.000618611 0.00139588 -7.32042e-05 -0.00109169 0.000404532 -0.000134529)
(-0.00442844 0.000486303 -7.91292e-05 0.00246773 -0.000188214 0.00131371)
(-0.00326313 0.0016057 -0.000263857 0.00144212 -5.58939e-05 0.000818735)
(-0.000986689 0.00158493 -0.000302048 0.000317054 5.46165e-05 0.000385544)
(0.000343069 0.000708315 -0.000155914 -0.000363729 0.000203374 -0.000108856)
(-0.00685682 0.00981844 -5.55604e-06 0.0225602 -5.33592e-05 8.14832e-06)
(-0.00223759 0.00855695 -4.42763e-05 0.0053635 -4.91132e-05 2.5359e-05)
(0.00103764 0.00801663 -5.27034e-05 -0.00507779 -8.08069e-05 6.96329e-05)
(0.00520528 0.00824202 -2.71921e-05 -0.0211358 -8.58091e-05 9.68056e-05)
(-0.0122434 0.0034898 -1.45108e-05 0.0150192 -0.000140387 8.7477e-05)
(-0.00478661 0.00927932 -0.000106562 0.00628366 -7.72875e-05 0.000102148)
(0.00193447 0.00916177 -0.000126784 -0.00479088 -2.74501e-05 0.000178291)
(0.00914533 0.00352131 -6.4349e-05 -0.013828 3.94696e-05 0.000214653)
(-0.0101827 0.00355205 -1.75962e-05 0.0131816 -0.000195591 0.000260167)
(-0.00481222 0.00781015 -0.000124831 0.00526553 -8.54447e-05 0.000214024)
(0.00135267 0.00784874 -0.000147707 -0.00338962 2.58454e-05 0.000235122)
(0.00678651 0.00359994 -7.25697e-05 -0.0113968 0.000142815 0.000210569)
(-0.0084724 0.00285448 -1.25123e-05 0.00994757 -0.000228133 0.000480978)
(-0.0041856 0.00650797 -0.000115031 0.00418729 -8.49236e-05 0.000338948)
(0.000579897 0.00658297 -0.000136281 -0.00221862 6.6687e-05 0.000257688)
(0.00483153 0.0029891 -6.53094e-05 -0.00796204 0.000217259 0.000133085)
(-0.0067336 0.00223719 -4.00587e-06 0.00711103 -0.00023842 0.000725093)
(-0.00355608 0.00521582 -9.41973e-05 0.00315652 -7.8855e-05 0.000468871)
(-2.36997e-05 0.00533494 -0.000112814 -0.00125193 9.15132e-05 0.00026339)
(0.00300292 0.0024716 -5.1674e-05 -0.00505074 0.000260505 1.92984e-05)
(-0.00534434 0.00154753 5.10283e-08 0.00477739 -0.000229035 0.000969611)
(-0.00301 0.00395035 -8.09804e-05 0.00226685 -7.03164e-05 0.000599492)
(-0.000478063 0.00414 -9.59812e-05 -0.000523653 9.67831e-05 0.000272407)
(0.00157003 0.00194857 -4.05501e-05 -0.0027041 0.000268932 -9.28009e-05)
(-0.00441379 0.000790241 -9.77697e-06 0.00325827 -0.000196773 0.00119095)
(-0.00270134 0.00275487 -9.58911e-05 0.00159074 -5.92313e-05 0.000728064)
(-0.000826863 0.00297739 -0.000108349 -1.50269e-05 7.77794e-05 0.000309799)
(0.000604793 0.00141144 -4.32941e-05 -0.00105353 0.000233021 -0.000157079)
(-0.00447845 0.000484387 -5.37921e-05 0.00250077 -0.000111086 0.00134197)
(-0.0033144 0.00161067 -0.00016674 0.00147016 -3.26205e-05 0.000843251)
(-0.00103206 0.00158965 -0.000187049 0.000340149 3.13161e-05 0.000407421)
(0.000310672 0.000713969 -9.52124e-05 -0.000340201 0.000117433 -9.58785e-05)
(-0.00686986 0.00980195 -1.13195e-06 0.0225358 -2.33026e-05 4.0286e-05)
(-0.00224708 0.00852602 -1.27514e-05 0.00536506 -1.82931e-05 3.70075e-05)
(0.00103595 0.00798061 -1.5376e-05 -0.00505579 -2.43051e-05 5.41992e-05)
(0.00520722 0.00821303 -7.99312e-06 -0.0210788 -2.2001e-05 5.8612e-05)
(-0.0122776 0.00347796 -3.44858e-06 0.0149919 -4.76872e-05 0.000156968)
(-0.00480967 0.00925667 -3.15566e-05 0.00628634 -2.58709e-05 0.000127001)
(0.00193084 0.00913833 -3.79142e-05 -0.00475552 -8.68714e-06 0.000145239)
(0.00915574 0.00351138 -1.93238e-05 -0.0137682 1.44497e-05 0.000132248)
(-0.0102267 0.0035468 -4.76866e-06 0.0131644 -6.42456e-05 0.000332213)
(-0.00484016 0.00780225 -3.81836e-05 0.0052725 -2.79307e-05 0.000239287)
(0.00134855 0.00784197 -4.53988e-05 -0.0033554 8.42164e-06 0.000201488)
(0.0068043 0.00359718 -2.22552e-05 -0.0113404 4.70556e-05 0.000125171)
(-0.00851689 0.00285425 -3.5613e-06 0.00994046 -7.40576e-05 0.000543666)
(-0.00421356 0.0065108 -3.59744e-05 0.00419756 -2.74339e-05 0.000360844)
(0.000574726 0.00658748 -4.26307e-05 -0.00218821 2.16743e-05 0.000229372)
(0.00484748 0.00299258 -2.02636e-05 -0.00791432 7.07557e-05 5.89385e-05)
(-0.00677375 0.00223911 -1.20825e-06 0.00711242 -7.72788e-05 0.00077374)
(-0.00358192 0.00522398 -3.01109e-05 0.00316884 -2.54104e-05 0.000486562)
(-3.07059e-05 0.00534543 -3.58927e-05 -0.0012268 2.97991e-05 0.000243571)
(0.00301323 0.00247865 -1.62051e-05 -0.00501287 8.47205e-05 -3.61737e-05)
(-0.00537828 0.00154888 -2.77817e-07 0.00478452 -7.45683e-05 0.00100495)
(-0.00303295 0.00395905 -2.66611e-05 0.00227934 -2.27772e-05 0.000614083)
(-0.000487378 0.00415178 -3.12671e-05 -0.000504462 3.15485e-05 0.000262493)
(0.00157275 0.0019569 -1.29745e-05 -0.00267591 8.75783e-05 -0.000127186)
(-0.00444158 0.000789143 -3.9731e-06 0.00326896 -6.45885e-05 0.00121624)
(-0.00272241 0.00276086 -3.2524e-05 0.00160223 -1.93609e-05 0.000741145)
(-0.000839793 0.00298631 -3.63152e-05 -1.17687e-06 2.53385e-05 0.000309771)
(0.000599337 0.00141879 -1.43754e-05 -0.00103295 7.59975e-05 -0.000171395)
(-0.0045041 0.000483704 -1.91259e-05 0.00251386 -3.70199e-05 0.00136096)
(-0.00333913 0.00161349 -5.69583e-05 0.00148303 -1.07841e-05 0.000856032)
(-0.00105259 0.00159186 -6.33143e-05 0.000352311 1.02033e-05 0.000415359)
(0.000297278 0.000716355 -3.20754e-05 -0.000326676 3.83435e-05 -9.50993e-05)
)
;

boundaryField
{
    interface
    {
        type            calculated;
        value           nonuniform List<symmTensor> 
192
(
(-0.0226802 -3.02586e-06 0.000309661 0.0353091 0.00508719 -0.0030302)
(-0.0105081 4.02556e-06 0.000525615 0.0185232 -0.0017733 -0.00448001)
(-0.0113148 -4.30645e-06 0.000623948 0.0177151 -0.0010802 -0.0024727)
(-0.00880579 -2.99838e-05 0.000667993 0.012819 -0.0015134 -0.00134005)
(-0.00703829 -7.79171e-05 0.000682435 0.00892464 -0.00138539 -0.000104574)
(-0.00548054 -0.00015445 0.000672532 0.00562737 -0.00120031 0.00084678)
(-0.00461043 -0.000284735 0.000633935 0.00358001 -0.000951319 0.00158574)
(-0.0041488 -0.000491839 0.00054756 0.00240276 -0.000499343 0.00214583)
(-0.0229937 1.71141e-05 0.000212141 0.0345506 0.00309599 -0.00199039)
(-0.012221 2.98117e-05 0.000363674 0.019896 -0.000755062 -0.00348987)
(-0.0115022 2.16984e-05 0.000431329 0.0176668 -0.00163899 -0.00238462)
(-0.00918243 -1.40961e-05 0.000460095 0.0128717 -0.00201373 -0.00110176)
(-0.00731177 -7.76676e-05 0.00046629 0.00880779 -0.00198472 0.00013468)
(-0.0057892 -0.000176882 0.000453632 0.00549856 -0.00174091 0.00115822)
(-0.00491108 -0.000341658 0.000419758 0.00344504 -0.00133909 0.00193544)
(-0.00439647 -0.000582315 0.000358047 0.00231584 -0.000714235 0.00249659)
(-0.0237737 2.13101e-05 0.000146226 0.0347638 0.0014859 -0.00115404)
(-0.0127488 3.56283e-05 0.000251044 0.0192576 -0.000513176 -0.00216969)
(-0.0119051 2.74731e-05 0.000294573 0.0174339 -0.00124523 -0.00166197)
(-0.00939596 -1.289e-05 0.000310373 0.0127992 -0.00160673 -0.000827839)
(-0.00736662 -8.53567e-05 0.000311276 0.00883394 -0.00165211 7.29215e-05)
(-0.00574583 -0.000198218 0.000300232 0.0056111 -0.00149065 0.00087377)
(-0.00481145 -0.000381467 0.00027691 0.00364738 -0.00116953 0.00150637)
(-0.00415232 -0.000632942 0.000239904 0.00250625 -0.00060349 0.00192647)
(-0.0242475 2.08842e-05 0.000103704 0.034826 0.000574776 -0.000590077)
(-0.0131662 3.48165e-05 0.000179097 0.0187592 -0.000434127 -0.00112128)
(-0.0123202 2.60225e-05 0.000209231 0.0171614 -0.000894424 -0.000841031)
(-0.00971428 -1.70531e-05 0.000218709 0.0126908 -0.00115389 -0.000314633)
(-0.00757633 -9.49331e-05 0.000217871 0.0088526 -0.00121727 0.000300083)
(-0.00586674 -0.000216119 0.000209405 0.00572692 -0.00113095 0.000879997)
(-0.00486854 -0.000410064 0.00019394 0.00384425 -0.000920032 0.00135525)
(-0.00412225 -0.000665931 0.000170721 0.00271222 -0.000500304 0.00167328)
(-0.0244734 1.96515e-05 7.29151e-05 0.0347789 0.000132008 -0.000263473)
(-0.0134366 3.24534e-05 0.000126854 0.0184596 -0.000368369 -0.000470645)
(-0.0126141 2.26001e-05 0.000148177 0.0169666 -0.000635794 -0.000257715)
(-0.00996968 -2.23827e-05 0.000154326 0.0125978 -0.000796211 0.000111764)
(-0.00777277 -0.000103681 0.000153252 0.0088528 -0.000846763 0.000548622)
(-0.00600409 -0.000230071 0.000147276 0.00579741 -0.000805222 0.00097666)
(-0.00495947 -0.000430755 0.000137214 0.00396767 -0.000676903 0.00134232)
(-0.00414869 -0.000688982 0.000122151 0.00284173 -0.000378865 0.00158279)
(-0.0245668 1.85642e-05 4.86118e-05 0.0346971 -4.23262e-05 -8.23676e-05)
(-0.0135991 3.01969e-05 8.50875e-05 0.0182883 -0.000283375 -9.36817e-05)
(-0.0128038 1.92648e-05 9.95145e-05 0.016849 -0.000430577 0.000108249)
(-0.0101476 -2.70888e-05 0.000103534 0.0125372 -0.000521459 0.000405295)
(-0.00792167 -0.000110568 0.000102721 0.00884606 -0.000554114 0.000747526)
(-0.00611979 -0.000240232 9.88311e-05 0.00583197 -0.000535142 0.00108935)
(-0.00504748 -0.000445263 9.25185e-05 0.00403277 -0.000460893 0.00139152)
(-0.00420298 -0.000704914 8.28955e-05 0.00291537 -0.00026449 0.00158979)
(-0.0245984 1.78726e-05 2.77545e-05 0.0346248 -7.16259e-05 1.14188e-05)
(-0.0136872 2.86017e-05 4.8798e-05 0.0181954 -0.000178454 0.000107125)
(-0.0129134 1.682e-05 5.71204e-05 0.0167854 -0.000251239 0.000313006)
(-0.0102558 -3.04312e-05 5.94126e-05 0.0125036 -0.000296736 0.000579233)
(-0.00801658 -0.000115236 5.89466e-05 0.00883978 -0.000314322 0.000876289)
(-0.00619769 -0.000246899 5.67763e-05 0.00584623 -0.000306309 0.00117509)
(-0.00511054 -0.000454624 5.31341e-05 0.00406255 -0.000267978 0.00144478)
(-0.00424891 -0.000714843 4.73928e-05 0.00295119 -0.000156827 0.00162184)
(-0.0246057 1.7441e-05 8.93539e-06 0.0345842 -3.0789e-05 5.09358e-05)
(-0.0137248 2.76685e-05 1.57544e-05 0.0181544 -6.08768e-05 0.000193173)
(-0.0129623 1.5466e-05 1.84417e-05 0.0167579 -8.27701e-05 0.000403269)
(-0.0103054 -3.21702e-05 1.91733e-05 0.0124891 -9.65244e-05 0.00065849)
(-0.0080613 -0.000117575 1.90244e-05 0.00883636 -0.000102032 0.000937971)
(-0.00623542 -0.00025035 1.83312e-05 0.00585087 -9.98561e-05 0.00121962)
(-0.00514144 -0.00045961 1.70714e-05 0.00407316 -8.81132e-05 0.00147621)
(-0.00427203 -0.000719006 1.50132e-05 0.00296449 -5.24027e-05 0.00164502)
(-0.00626868 0.00766236 -0.000385898 0.0240676 -8.80948e-05 -0.0124381)
(-0.0111423 0.00351545 -0.000670993 0.0132064 -0.000135572 -0.00179051)
(-0.00949873 0.00467003 -0.000806929 0.0135938 -0.000140487 -0.00301745)
(-0.00824692 0.00413607 -0.000879571 0.0100135 -0.000127429 -0.0013794)
(-0.00674158 0.00362306 -0.000924318 0.00723278 -0.000121743 -0.000484326)
(-0.00554229 0.00281252 -0.000957305 0.0047715 -0.000135107 0.000369202)
(-0.00475369 0.00186525 -0.00100085 0.00317652 -0.000170292 0.000892558)
(-0.00491372 0.00101341 -0.00111402 0.00226658 -0.000214327 0.00156838)
(-0.00228974 0.00619028 -0.000246729 0.00574217 -7.16092e-05 -0.00280508)
(-0.00489787 0.00901307 -0.000455622 0.00504318 -0.000129118 -0.000538442)
(-0.0051145 0.00939618 -0.000540922 0.00512478 -0.000146399 -0.000372097)
(-0.00467082 0.00867733 -0.000578281 0.00401079 -0.000127514 0.000131764)
(-0.00410749 0.00751789 -0.000600053 0.00303477 -0.00010125 0.000438347)
(-0.00358849 0.00602634 -0.000623013 0.00213984 -8.49622e-05 0.000698553)
(-0.00325338 0.00437788 -0.000670898 0.00151529 -8.47829e-05 0.000885127)
(-0.00373303 0.00244173 -0.000821977 0.00131066 -9.07862e-05 0.00133374)
(0.00113417 0.00561937 -0.000189438 -0.00682079 -5.03599e-05 0.00333389)
(0.00209094 0.00875217 -0.000378332 -0.00394412 -0.000110304 0.00079584)
(0.00150097 0.00938806 -0.000459771 -0.00364572 -0.000137818 0.00103922)
(0.000831734 0.00874135 -0.00049253 -0.0025303 -0.000123782 0.000782509)
(0.000293939 0.00762772 -0.000508377 -0.00169411 -9.36087e-05 0.000606659)
(-7.6693e-05 0.00619076 -0.000527233 -0.00100885 -6.65202e-05 0.000403736)
(-0.000316742 0.00454455 -0.000573963 -0.000508545 -5.0606e-05 0.000224496)
(-0.000234553 0.00241635 -0.000724668 -4.56285e-05 -4.35883e-05 -0.000146283)
(0.00486567 0.00620176 -0.000176059 -0.0240735 -4.65871e-05 0.0124071)
(0.00838441 0.00328974 -0.000376367 -0.0121947 -0.000111688 0.00214046)
(0.00626728 0.00470494 -0.000471021 -0.0122095 -0.000143042 0.00360395)
(0.00477184 0.00427292 -0.000511181 -0.00856845 -0.000131386 0.00220862)
(0.0032185 0.00382819 -0.000528971 -0.00582072 -9.97948e-05 0.00143262)
(0.0020606 0.00311939 -0.000547877 -0.00345207 -6.75739e-05 0.000632458)
(0.00134531 0.00226903 -0.000593401 -0.00183212 -3.89609e-05 2.73378e-05)
(0.00135709 0.00110909 -0.000735075 -0.00086416 -9.30107e-06 -0.000635249)
(0.0200502 4.75255e-05 2.48161e-05 -0.033658 -0.00606036 0.00318418)
(0.00832472 9.65847e-05 5.27889e-05 -0.0178735 0.00123309 0.00505201)
(0.00855523 0.000117655 5.6495e-05 -0.0165147 0.000731728 0.00342514)
(0.00582959 0.000106351 5.41962e-05 -0.0114553 0.00128546 0.00250648)
(0.00395274 8.3269e-05 5.98598e-05 -0.00748533 0.00126817 0.00138636)
(0.00237375 6.19352e-05 8.04606e-05 -0.0041484 0.00117613 0.000450595)
(0.00142118 3.08983e-05 0.00011967 -0.00187529 0.000938382 -0.0003333)
(0.00122925 -0.000106278 0.000175328 -0.000784733 0.0003861 -0.00096759)
(0.0198195 2.27833e-05 -2.9889e-05 -0.0324297 -0.00404244 0.00224611)
(0.00979842 5.29739e-05 -4.36772e-05 -0.0193805 0.000119774 0.00423534)
(0.00841133 7.02168e-05 -5.24853e-05 -0.0165131 0.00125956 0.00347973)
(0.00581687 6.93318e-05 -5.73098e-05 -0.0115051 0.00183632 0.00239052)
(0.00380384 6.28376e-05 -5.21822e-05 -0.0073184 0.00197038 0.00124603)
(0.00222462 6.13822e-05 -3.46305e-05 -0.00390949 0.00184761 0.000233617)
(0.00124145 5.57713e-05 -5.0672e-06 -0.00156038 0.00148901 -0.000580045)
(0.0011222 -6.00834e-05 3.62997e-05 -0.000543147 0.000770956 -0.00122855)
(0.0204469 1.12973e-05 -3.65868e-05 -0.0325122 -0.00220688 0.00135245)
(0.0103109 3.04721e-05 -5.30534e-05 -0.0186742 4.60289e-05 0.00270963)
(0.00881992 4.59164e-05 -5.62447e-05 -0.0161515 0.000961912 0.00243944)
(0.00604771 5.40199e-05 -5.45098e-05 -0.0112992 0.00149641 0.00176298)
(0.00386255 6.21659e-05 -4.54007e-05 -0.00719055 0.0016916 0.000952988)
(0.00216062 7.6249e-05 -2.78284e-05 -0.00384526 0.00164176 0.000193295)
(0.00107888 8.37649e-05 -4.86472e-06 -0.00153531 0.00137133 -0.000425056)
(0.000799123 -1.2325e-05 1.83971e-05 -0.000525974 0.00070829 -0.000831664)
(0.0207746 6.87735e-06 -3.08798e-05 -0.0324364 -0.00110977 0.000759762)
(0.0106701 2.0276e-05 -4.35059e-05 -0.0181031 9.5119e-05 0.0015705)
(0.00915803 3.49829e-05 -4.20178e-05 -0.0157377 0.000698139 0.00148267)
(0.00628551 4.976e-05 -3.61445e-05 -0.0110316 0.00109255 0.00109949)
(0.00398059 6.86913e-05 -2.5781e-05 -0.00703657 0.00127629 0.000583985)
(0.0021741 9.39207e-05 -1.11218e-05 -0.0037749 0.00127845 6.99306e-05)
(0.000994638 0.000110015 4.82963e-06 -0.00150869 0.00110096 -0.000350685)
(0.000615273 2.58851e-05 1.89905e-05 -0.000539289 0.000583173 -0.000571938)
(0.0208749 5.38636e-06 -2.25503e-05 -0.0322537 -0.000513841 0.000408442)
(0.0108822 1.6634e-05 -3.08067e-05 -0.0177292 0.000124286 0.000859227)
(0.00937079 3.17843e-05 -2.69967e-05 -0.0154169 0.000503337 0.000821708)
(0.00645182 5.1242e-05 -1.98825e-05 -0.0107934 0.000765605 0.000589906)
(0.00407923 7.72714e-05 -1.04546e-05 -0.0068821 0.000905142 0.000261486)
(0.00220132 0.000109339 4.64532e-07 -0.00368525 0.000925428 -7.64503e-05)
(0.000949538 0.000130644 1.04181e-05 -0.00145615 0.000813221 -0.000347116)
(0.000505276 5.35658e-05 1.80877e-05 -0.000524885 0.000435697 -0.000435737)
(0.0208711 5.23922e-06 -1.46009e-05 -0.0320594 -0.00021185 0.000207938)
(0.0109948 1.6202e-05 -1.92308e-05 -0.0174905 0.000117208 0.00043976)
(0.0094919 3.23511e-05 -1.51497e-05 -0.0151966 0.000345089 0.000407952)
(0.00655392 5.48453e-05 -8.89645e-06 -0.0106169 0.000507445 0.000249071)
(0.00414517 8.50835e-05 -1.69597e-06 -0.00675448 0.000600159 2.51632e-05)
(0.00222539 0.000120956 5.62633e-06 -0.00359964 0.000619855 -0.000205025)