/*--------------------------------*- C++ -*----------------------------------*\
| =========                 |                                                 |
| \\      /  F ield         | foam-extend: Open Source CFD                    |
|  \\    /   O peration     | Version:     3.1                                |
|   \\  /    A nd           | Web:         http://www.extend-project.de       |
|    \\/     M anipulation  |                                                 |
\*---------------------------------------------------------------------------*/
FoamFile
{
    version     2.0;
    format      ascii;
    class       volScalarField;
    location    "2.3";
    object      sigmaCauchyEq;
}
// * * * * * * * * * * * * * * * * * * * * * * * * * * * * * * * * * * * * * //

dimensions      [1 -1 -2 0 0 0 0];

internalField   nonuniform List<scalar> 
256
(
248.426
106.664
99.4482
198.855
171.764
132.244
120.587
148.945
156.372
124.78
113.727
129.206
122.388
110.189
101.096
97.5869
92.9819
92.6569
85.5065
70.1155
68.3983
73.7513
68.2918
47.2061
52.1082
55.5678
49.917
30.2514
48.0696
41.9418
27.5683
18.8355
243.921
118.039
108.926
191.899
180.339
135.454
123.94
155.635
154.013
115.76
105.321
127.381
119.106
97.5696
88.5785
94.1654
88.4926
79.0738
71.9778
65.2112
64.1917
61.3799
56.0719
42.1734
48.5826
45.5509
40.5354
26.0642
45.5381
36.0421
23.0751
16.5503
245.301
120.647
109.856
189.58
179.003
135.81
123.29
152.438
153.836
114.576
103.046
124.956
118.854
94.5583
84.4819
91.6525
88.1685
75.4326
67.3712
62.7587
63.6968
57.811
51.8445
39.9436
47.8369
42.7441
37.4482
24.1863
44.2896
35.0966
21.7556
13.8551
245.765
120.641
108.726
187.828
177.931
135.857
122.294
149.871
153.632
114.788
102.131
122.767
119.135
94.5064
83.3436
89.6963
88.6441
75.1698
66.1675
60.9525
64.163
57.4567
50.8019
38.2742
48.1689
42.556
36.8148
22.6601
44.4881
35.737
21.6951
12.0812
245.47
119.842
107.204
186.212
177.435
135.602
121.219
148.139
153.672
115.111
101.585
121.188
119.64
95.0601
83.0804
88.3128
89.3835
75.7713
66.0727
59.7036
64.9396
58.0047
50.8275
37.0962
48.8714
43.0825
36.9577
21.5535
45.1587
36.5712
21.9264
10.9935
244.89
118.976
105.87
184.84
177.181
135.231
120.249
146.934
153.795
115.298
101.15
120.101
120.108
95.5597
83.0121
87.3826
90.034
76.3983
66.228
58.8809
65.6298
58.6172
51.088
36.3267
49.5236
43.6309
37.2334
20.8306
45.8591
37.217
22.088
10.3114
244.362
118.323
104.931
183.855
177.039
134.904
119.529
146.148
153.904
115.368
100.817
119.407
120.441
95.8749
82.9683
86.8039
90.4814
76.8272
66.3662
58.3802
66.1043
59.0483
51.3048
35.8699
49.9837
44.0089
37.4375
20.4112
46.3757
37.623
22.152
9.89825
244.061
117.982
104.453
183.344
176.97
134.719
119.149
145.755
153.963
115.383
100.634
119.066
120.608
96.019
82.9382
86.524
90.7023
77.0342
66.4344
58.1419
66.3378
59.2596
51.4145
35.6573
50.2116
44.1926
37.5357
20.2201
46.636
37.814
22.1656
9.69959
)
;

boundaryField
{
    interface
    {
        type            calculated;
        value           nonuniform List<scalar> 
192
(
393.535
196.759
189.928
139.967
101.906
71.2797
54.7847
47.1018
383.62
212.309
190.89
142.897
103.946
74.1311
57.8725
50.0118
386.702
207.857
189.692
142.315
103.388
73.2747
56.5457
46.8742
388.729
205.046
188.681
142.142
103.648
73.6357
56.8848
46.6478
389.198
203.707
188.235
142.286
104.173
74.2834
57.5649
47.0252
388.884
203.066
188.127
142.569
104.71
74.9164
58.2402
47.6495
388.393
202.742
188.134
142.817
105.104
75.3665
58.7216
48.1456
388.071
202.598
188.149
142.948
105.3
75.5884
58.9556
48.392
271.916
159.402
160.873
126.309
98.329
73.5943
56.5707
51.9905
97.9401
127.524
132.525
119.95
103.013
83.0406
63.0475
47.7569
94.1354
114.408
120.47
110.154
95.2808
77.0233
56.6564
31.1812
237.842
134.836
133.87
101.08
75.3819
52.5168
35.025
22.373
325.28
171.092
158.822
111.993
74.7526
43.5698
23.4221
15.9992
312.296
184.354
158.652
113.014
74.8728
44.5238
25.3296
17.7014
312.978
179.113
155.786
110.685
72.7504
42.5751
23.3674
13.8094
313.147
175.575
153.09
108.304
70.4865
40.1755
20.5694
11.0247
312.243
173.535
151.25
106.551
68.7408
38.1566
17.9636
8.89088
310.968
172.276
150.054
105.394
67.5499
36.731
15.9874
7.44453
309.869
171.502
149.318
104.69
66.8205
35.8514
14.717
6.54869
309.254
171.125
148.962
104.356
66.474
35.4358
14.107
6.12654
51.801
48.9577
47.9889
48.0655
48.7321
49.439
49.974
50.2341
40.1431
35.9275
36.2113
37.4704
38.6005
39.382
39.8528
40.0738
12.2932
11.3727
11.3876
11.9831
12.366
12.3815
12.229
12.102
19.4007
16.7616
12.958
10.4445
9.03178
8.11439
7.50376
7.18215
)
;
    }
    symmetry
    {
        type            symmetryPlane;
    }
    bottom
    {
        type            calculated;
        value           nonuniform List<scalar> 
32
(
227.006
195.653
191.549
191.365
191.253
190.926
190.576
190.362
74.1133
78.7695
78.4026
76.8189
75.2551
74.0401
73.2414
72.8492
72.9751
74.1623
71.8052
68.9764
66.7055
65.1018
64.0958
63.613
193.462
159.216
149.515
145.969
144.078
142.8
141.946
141.512
)
;
    }
}


// ************************************************************************* //
