/*--------------------------------*- C++ -*----------------------------------*\
| =========                 |                                                 |
| \\      /  F ield         | foam-extend: Open Source CFD                    |
|  \\    /   O peration     | Version:     3.1                                |
|   \\  /    A nd           | Web:         http://www.extend-project.de       |
|    \\/     M anipulation  |                                                 |
\*---------------------------------------------------------------------------*/
FoamFile
{
    version     2.0;
    format      ascii;
    class       volSymmTensorField;
    location    "2.3";
    object      sigmaCauchy;
}
// * * * * * * * * * * * * * * * * * * * * * * * * * * * * * * * * * * * * * //

dimensions      [1 -1 -2 0 0 0 0];

internalField   nonuniform List<symmTensor> 
256
(
(165.098 68.8893 -1.20512 386.259 32.9446 188.883)
(22.8629 53.0116 -7.3869 74.9987 10.7488 28.9896)
(-50.6545 46.2476 -8.34534 -103.318 -13.7708 -52.1763)
(-190.532 42.6229 -4.54399 -374.747 -30.9257 -207.071)
(-71.0602 30.8231 -3.32954 109.578 -10.7158 -23.1952)
(-28.0689 67.1075 -12.3614 37.3102 -4.78922 -11.0396)
(0.469434 61.9914 -12.7176 -52.2035 2.05384 -5.0382)
(37.7396 19.3621 -4.55688 -119.592 7.05219 6.86026)
(-25.6606 36.8351 -1.64203 134.177 -6.06266 21.0555)
(-28.1238 64.642 -8.59088 32.1462 -2.41012 -6.41784)
(-3.45397 60.4403 -8.8752 -47.8416 0.186236 -9.50044)
(-5.5895 24.6485 -2.83883 -138.061 3.16628 -31.1364)
(-36.2397 31.7744 -1.89344 87.2789 -7.99551 8.05712)
(-28.8292 58.321 -7.25663 19.4856 -2.6126 -7.58884)
(-2.85534 55.0515 -7.24974 -35.5317 1.17861 -6.31583)
(4.84359 22.1028 -2.72299 -92.5074 5.90319 -15.1458)
(-33.3441 26.8518 -1.61303 58.345 -7.04222 7.93558)
(-27.2933 49.6607 -5.94587 10.3733 -2.0571 -6.48417)
(-4.4804 47.4221 -5.84109 -26.6187 1.30212 -6.07522)
(2.07762 20.0348 -2.30985 -64.0172 5.87588 -13.1927)
(-34.093 20.3863 -1.6714 32.0399 -5.96753 4.98496)
(-26.8787 39.4558 -5.23391 2.41509 -1.66536 -6.32589)
(-5.72644 38.3498 -5.00124 -18.851 1.28165 -5.76952)
(2.17323 16.7338 -2.18042 -38.1042 5.53208 -9.8674)
(-33.7594 13.5278 -2.10823 16.4821 -4.85251 5.1136)
(-27.8645 28.6578 -5.05442 -3.23946 -1.56959 -6.32468)
(-7.14729 28.1843 -4.63679 -12.9744 0.947345 -6.06318)
(2.32899 12.4152 -2.27469 -20.097 4.47223 -8.76352)
(-43.6475 8.51151 -2.63655 2.76248 -2.543 0.478326)
(-40.0909 16.9229 -4.964 -10.7455 -0.873185 -12.081)
(-3.65823 15.203 -4.66125 -4.4383 0.284362 -3.18819)
(7.41878 5.93666 -2.85658 -7.50269 1.81729 -6.94613)
(167.007 76.5181 -0.724648 381.877 19.7841 196.15)
(28.4436 62.2106 -5.9743 77.2097 6.01643 34.8406)
(-46.1726 55.7423 -7.07204 -94.0183 -9.6934 -50.2335)
(-183.476 49.8245 -3.86851 -361.184 -20.9756 -206.542)
(-40.8597 31.5788 -2.38291 151.174 -4.72934 12.8646)
(-6.73634 68.7771 -11.4644 60.8764 -2.69723 9.40404)
(-17.5677 63.3074 -12.6908 -74.1804 -0.626045 -24.6691)
(6.63963 19.8782 -5.37558 -159.624 0.681106 -29.4176)
(-20.6353 32.7447 -1.36946 138.946 -9.30134 25.413)
(-18.06 59.0721 -9.23031 40.0039 -3.5546 0.495163)
(-9.2629 54.967 -10.3612 -52.7739 1.57705 -14.3151)
(-9.37364 20.9203 -4.10758 -141.163 6.37075 -33.8648)
(-26.9383 27.1541 -0.61213 95.7573 -10.9505 16.449)
(-18.4202 50.7363 -6.80836 27.6701 -3.61841 -0.446678)
(-8.73202 47.4872 -7.80098 -39.5224 2.69817 -11.2591)
(-2.97156 17.6872 -3.17036 -98.247 9.27232 -21.7565)
(-26.6435 21.9113 0.168079 63.0444 -10.5804 13.5362)
(-18.6457 41.6993 -4.86812 16.6299 -3.25406 -1.18368)
(-8.34313 39.5269 -5.78066 -27.759 3.08507 -8.98742)
(-2.98248 15.373 -2.23732 -65.4576 10.0193 -16.9)
(-27.463 16.0327 0.561553 36.3748 -9.17028 10.7614)
(-19.0319 32.3944 -3.60907 7.86685 -2.748 -1.72108)
(-8.49119 31.3612 -4.39823 -18.5864 2.88012 -7.69739)
(-2.41588 12.6608 -1.62905 -38.4595 9.39362 -13.3194)
(-27.8251 9.99592 0.474312 19.8383 -7.11215 10.2977)
(-21.3657 23.1849 -3.13071 0.648714 -2.26939 -3.0146)
(-8.88439 22.8775 -3.76697 -11.7423 2.1211 -7.03002)
(-1.05479 9.39919 -1.38098 -18.9132 7.48696 -11.0936)
(-37.3218 6.73881 -0.0729271 6.58602 -3.81067 5.7976)
(-34.3327 14.1093 -3.41163 -7.64103 -1.25169 -9.67914)
(-6.21443 12.5425 -4.30494 -4.58912 0.958539 -4.97073)
(2.84802 4.62636 -2.2257 -8.2086 3.79012 -10.4302)
(172.383 79.7664 -0.655625 389.986 9.48283 208.38)
(30.8273 64.2646 -3.84821 80.5667 2.43182 39.9418)
(-46.5389 57.4887 -4.59275 -94.0067 -5.92467 -53.096)
(-188.871 51.5919 -2.57518 -367.641 -11.6786 -218.613)
(-41.2018 31.8376 -1.96031 151.994 -3.26136 24.3453)
(-5.05806 69.4272 -7.77717 64.3161 -2.08176 16.214)
(-18.9914 63.9144 -8.80214 -75.8153 -0.892735 -30.4123)
(4.58089 20.1045 -4.15797 -161.665 0.08423 -43.2627)
(-21.2304 32.1586 -1.57069 140.684 -7.21743 32.5765)
(-17.4062 58.2958 -6.92062 42.6556 -2.93917 5.05361)
(-10.261 54.1417 -7.88796 -54.0348 1.21112 -18.1395)
(-11.5315 20.2429 -3.51929 -143.907 4.95308 -44.0819)
(-27.7694 26.1945 -0.971986 96.6446 -8.95469 19.7672)
(-17.9441 48.692 -5.30231 29.734 -3.11639 2.70851)
(-9.80149 45.4468 -6.13879 -39.9245 2.47516 -13.5065)
(-5.34895 16.7753 -2.64879 -100.295 7.82404 -28.5274)
(-28.2023 20.661 -0.352138 62.981 -9.00135 13.6727)
(-18.2597 39.2127 -3.71302 18.4412 -2.8682 1.04732)
(-9.34508 37.106 -4.45421 -27.6108 3.02307 -10.0428)
(-4.71194 14.3129 -1.80309 -66.3134 8.91589 -20.354)
(-29.2139 14.7523 0.0527204 35.9139 -7.99219 8.96522)
(-18.6273 29.9622 -2.60738 9.44192 -2.42285 -0.121144)
(-9.34965 29.0945 -3.24122 -18.0004 2.95803 -7.80177)
(-3.77368 11.7616 -1.18827 -38.5266 8.64707 -14.3599)
(-29.2661 8.78068 0.0843568 19.5596 -6.22647 7.507)
(-20.9293 21.2275 -2.23793 1.94943 -1.89309 -1.94783)
(-9.67307 21.186 -2.79765 -10.9586 2.29453 -6.40228)
(-2.13992 8.81911 -0.978221 -18.3663 7.10171 -10.2062)
(-39.2962 6.10356 -0.446082 5.28593 -3.1211 1.14165)
(-34.2385 13.1121 -2.90284 -6.80828 -0.878621 -9.38444)
(-7.33308 11.7306 -3.80919 -3.77435 1.04235 -3.50437)
(2.61717 4.46518 -2.02491 -6.31515 3.53856 -6.58669)
(174.882 80.7669 -0.439446 394.106 3.72016 215.616)
(31.5034 64.3382 -2.30943 82.0785 0.579355 42.6245)
(-47.0025 57.317 -2.74772 -94.0856 -3.52072 -54.9483)
(-191.389 51.7666 -1.53959 -370.402 -6.09089 -225.332)
(-41.9554 31.778 -1.2396 151.612 -2.68148 32.4093)
(-5.43302 69.5759 -4.8833 65.3004 -1.65653 19.811)
(-19.4424 64.047 -5.56107 -75.549 -0.736555 -33.5545)
(3.97048 20.115 -2.711 -161.449 0.245364 -52.2337)
(-21.7256 32.1292 -1.17027 141.577 -5.22397 39.4499)
(-18.2677 58.3268 -4.73078 43.5407 -2.18715 7.78346)
(-10.7023 54.1931 -5.3727 -53.8601 0.837388 -20.6904)
(-12.2592 20.274 -2.47608 -144.333 3.58784 -51.8568)
(-28.352 26.0494 -0.845248 97.7218 -6.50328 24.3173)
(-18.8365 48.4364 -3.834 30.5829 -2.3042 4.65424)
(-10.3931 45.2321 -4.36109 -39.7034 1.89861 -15.244)
(-6.11267 16.7422 -1.91217 -100.757 5.79542 -34.0799)
(-28.7715 20.4106 -0.438744 64.1115 -6.69598 16.0944)
(-19.0814 38.7452 -2.78691 19.3007 -2.13618 2.35333)
(-10.0109 36.7199 -3.22141 -27.3162 2.43938 -10.9499)
(-5.45421 14.2538 -1.29026 -66.6132 6.84201 -23.586)
(-29.691 14.4203 -0.148621 37.0839 -6.10631 9.77673)
(-19.3255 29.4041 -2.0254 10.2882 -1.82229 0.722538)
(-9.99587 28.6813 -2.37359 -17.5968 2.47811 -7.93737)
(-4.47629 11.7401 -0.82063 -38.6015 6.84693 -15.5921)
(-29.4022 8.3926 -0.143387 20.9738 -4.89394 7.34927)
(-21.5122 20.7333 -1.87988 2.74831 -1.42228 -1.4257)
(-10.3594 20.8826 -2.19458 -10.4794 1.98535 -5.85927)
(-2.83146 8.87688 -0.706334 -18.101 5.77788 -9.71491)
(-39.3597 5.9219 -0.709603 6.511 -2.55041 0.154888)
(-34.9067 12.8569 -2.7748 -6.02414 -0.652763 -9.01112)
(-8.52364 11.5611 -3.38844 -3.39391 0.934991 -2.36798)
(1.7986 4.54924 -1.71966 -5.7696 2.94451 -4.44068)
(175.528 80.8427 -0.260531 395.36 0.908616 219.096)
(31.654 63.8273 -1.31198 82.7848 -0.222814 44.0194)
(-47.2224 56.6615 -1.55655 -93.8094 -2.04043 -55.9004)
(-191.903 51.4491 -0.865072 -370.415 -2.98862 -228.196)
(-42.6775 31.5793 -0.700981 151.179 -2.21409 37.2237)
(-5.92345 69.3685 -2.89507 65.7849 -1.28367 21.8504)
(-19.7997 63.8558 -3.31228 -74.9919 -0.52113 -35.4324)
(3.56159 20.036 -1.63015 -160.925 0.391359 -57.6944)
(-22.4142 32.097 -0.752116 141.838 -3.70257 43.9805)
(-19.022 58.3784 -3.02081 44.0414 -1.55195 9.49288)
(-11.0877 54.2999 -3.41749 -53.3788 0.568796 -22.3989)
(-12.5449 20.3625 -1.57511 -143.99 2.55626 -56.8861)
(-29.0421 26.0766 -0.6042 98.3115 -4.49827 27.7306)
(-19.584 48.5723 -2.58355 31.1565 -1.5914 5.97515)
(-10.8347 45.4297 -2.8929 -39.2924 1.35462 -16.532)
(-6.43135 16.9084 -1.24686 -100.572 4.07503 -38.004)
(-29.3869 20.4362 -0.374549 64.9202 -4.67144 18.2663)
(-19.7563 38.8648 -1.97242 19.9319 -1.47272 3.3008)
(-10.4702 36.9182 -2.20731 -26.9413 1.79431 -11.7068)
(-5.79082 14.4532 -0.84764 -66.4889 4.89005 -26.1023)
(-30.1991 14.3992 -0.209294 38.0091 -4.35323 10.897)
(-19.8938 29.4671 -1.52656 10.9459 -1.27204 1.39569)
(-10.4421 28.8533 -1.69718 -17.2269 1.86435 -8.15024)
(-4.80475 11.9565 -0.546459 -38.421 4.99594 -16.7198)
(-29.6796 8.30441 -0.257699 22.0615 -3.58794 7.80338)
(-22.0228 20.751 -1.55579 3.37392 -1.0088 -0.943937)
(-10.8599 21.0209 -1.70974 -10.1114 1.51817 -5.57264)
(-3.14884 9.09808 -0.525726 -17.725 4.29312 -9.56534)
(-39.7917 5.89729 -0.80511 7.30228 -1.90384 -0.158476)
(-35.6563 12.8774 -2.47344 -5.5264 -0.453878 -8.75341)
(-9.38549 11.607 -2.84908 -3.0835 0.724434 -1.66371)
(1.38579 4.68332 -1.40556 -5.24882 2.20894 -3.14755)
(175.449 80.6183 -0.136157 395.369 -0.212452 220.606)
(31.6366 63.2576 -0.699962 83.1263 -0.443412 44.7262)
(-47.2584 56.0106 -0.830479 -93.3746 -1.13198 -56.3159)
(-191.597 51.055 -0.455507 -369.374 -1.35145 -229.139)
(-43.1454 31.3535 -0.350967 150.907 -1.67452 39.983)
(-6.30617 69.0375 -1.60797 66.0877 -0.921049 22.971)
(-20.0504 63.5515 -1.851 -74.4303 -0.331071 -36.5195)
(3.23075 19.9347 -0.908926 -160.4 0.40238 -60.8869)
(-22.9251 32.0263 -0.424315 141.974 -2.49279 46.7623)
(-19.5438 58.3414 -1.79044 44.393 -1.03561 10.5066)
(-11.3842 54.3186 -2.02222 -52.893 0.37212 -23.4856)
(-12.7011 20.4142 -0.917614 -143.507 1.73151 -59.9453)
(-29.5458 26.1026 -0.369996 98.6978 -2.9403 30.0169)
(-20.0929 48.7087 -1.6055 31.5724 -1.03007 6.80985)
(-11.1349 45.6233 -1.77805 -38.8683 0.89962 -17.3997)
(-6.59136 17.0612 -0.741444 -100.211 2.69605 -40.5337)
(-29.8332 20.4967 -0.25501 65.4786 -3.05413 19.9068)
(-20.207 39.0634 -1.28426 20.3945 -0.947441 3.94658)
(-10.757 37.1811 -1.40481 -26.5679 1.20961 -12.2546)
(-5.9489 14.6556 -0.509798 -66.1968 3.24947 -27.8396)
(-30.5608 14.441 -0.177107 38.664 -2.88845 11.955)
(-20.2714 29.6487 -1.05915 11.4237 -0.827401 1.89955)
(-10.7109 29.114 -1.13637 -16.8902 1.27102 -8.34567)
(-4.96342 12.1738 -0.340049 -38.1375 3.35564 -17.6126)
(-29.8935 8.29144 -0.247542 22.8189 -2.43201 8.4823)
(-22.3783 20.8756 -1.16835 3.81494 -0.667421 -0.547247)
(-11.1731 21.2257 -1.23721 -9.81329 1.04218 -5.44361)
(-3.30405 9.30042 -0.369242 -17.3558 2.91293 -9.64526)
(-40.0635 5.89835 -0.689657 7.96347 -1.31487 0.140274)
(-36.2034 12.9451 -1.92954 -5.16884 -0.29876 -8.49661)
(-9.95309 11.6837 -2.14847 -2.85041 0.501871 -1.31092)
(1.08809 4.78644 -1.03767 -4.91247 1.51017 -2.6318)
(175.187 80.376 -0.0615637 395.018 -0.419545 221.173)
(31.5857 62.8259 -0.332157 83.2923 -0.360228 45.0674)
(-47.219 55.5353 -0.395004 -92.9817 -0.561488 -56.4644)
(-191.127 50.7465 -0.213587 -368.271 -0.536848 -229.291)
(-43.4278 31.1727 -0.151966 150.737 -1.04517 41.4341)
(-6.55547 68.7455 -0.789868 66.2787 -0.555814 23.5482)
(-20.1992 63.2835 -0.915464 -73.9933 -0.17959 -37.1048)
(3.00849 19.8513 -0.446504 -159.982 0.292252 -62.6203)
(-23.2574 31.9516 -0.206334 142.048 -1.44728 48.3001)
(-19.8617 58.2656 -0.926545 44.6331 -0.595752 11.0615)
(-11.5769 54.2845 -1.04662 -52.5216 0.212466 -24.119)
(-12.7876 20.4331 -0.465899 -143.103 1.00969 -61.6587)
(-29.872 26.1071 -0.192581 98.9314 -1.66824 31.3563)
(-20.3995 48.7803 -0.86225 31.8531 -0.578691 7.2906)
(-11.3177 45.7362 -0.948477 -38.5401 0.513546 -17.9244)
(-6.67536 17.1581 -0.382398 -99.8924 1.54047 -42.0109)
(-30.1258 20.5361 -0.143164 65.8122 -1.72873 20.9402)
(-20.4746 39.2028 -0.715689 20.7009 -0.529109 4.34302)
(-10.9203 37.3646 -0.771767 -26.2786 0.69478 -12.5998)
(-6.02211 14.7936 -0.265874 -65.9236 1.85554 -28.9017)
(-30.802 14.4746 -0.113894 39.0502 -1.64949 12.6993)
(-20.4941 29.7895 -0.620495 11.7323 -0.465801 2.23257)
(-10.858 29.3062 -0.651846 -16.6364 0.733489 -8.48478)
(-5.03459 12.3236 -0.184163 -37.8828 1.92487 -18.2087)
(-30.0529 8.29048 -0.172883 23.2584 -1.40861 9.03503)
(-22.5927 20.9758 -0.723211 4.0933 -0.380725 -0.26552)
(-11.3492 21.3752 -0.750669 -9.60096 0.602886 -5.39586)
(-3.37012 9.43542 -0.220946 -17.0687 1.67886 -9.77976)
(-40.2569 5.90283 -0.458608 8.36569 -0.773615 0.505174)
(-36.5501 12.9995 -1.21769 -4.94784 -0.170179 -8.30049)
(-10.2871 11.7391 -1.33163 -2.68961 0.292423 -1.15711)
(0.915282 4.84962 -0.636648 -4.68985 0.873929 -2.47781)
(175.004 80.2336 -0.017371 394.752 -0.183607 221.341)
(31.5517 62.6002 -0.0968733 83.3608 -0.133966 45.2042)
(-47.1806 55.2906 -0.115424 -92.7563 -0.168706 -56.5033)
(-190.823 50.5829 -0.0617912 -367.615 -0.136897 -229.244)
(-43.5601 31.0744 -0.04152 150.653 -0.355225 42.0489)
(-6.6771 68.5811 -0.235319 66.3728 -0.185918 23.7901)
(-20.2664 63.1325 -0.273931 -73.7568 -0.0564936 -37.3584)
(2.89875 19.8056 -0.1329 -159.751 0.105917 -63.3774)
(-23.4188 31.9056 -0.0611106 142.081 -0.475531 48.9737)
(-20.0115 58.211 -0.284567 44.7561 -0.194729 11.3036)
(-11.6703 54.2517 -0.32151 -52.323 0.0692866 -24.4089)
(-12.8267 20.4368 -0.141344 -142.879 0.332464 -62.4228)
(-30.0296 26.1035 -0.0595409 99.0423 -0.541611 31.9646)
(-20.543 48.8056 -0.270475 31.9953 -0.186815 7.50754)
(-11.4036 45.7827 -0.296427 -38.364 0.166971 -18.1699)
(-6.71244 17.2027 -0.11705 -99.7143 0.501605 -42.6867)
(-30.2683 20.5527 -0.0462923 65.9668 -0.560292 21.43)
(-20.5988 39.2681 -0.229247 20.8532 -0.170242 4.52951)
(-10.9939 37.452 -0.245364 -26.1231 0.226346 -12.7649)
(-6.05098 14.8603 -0.0819908 -65.7671 0.603435 -29.4005)
(-30.9202 14.4897 -0.039598 39.2262 -0.5369 13.0741)
(-20.597 29.8591 -0.20435 11.8826 -0.150534 2.39645)
(-10.9224 29.4007 -0.212444 -16.5013 0.239328 -8.5554)
(-5.06137 12.3966 -0.058251 -37.7383 0.626894 -18.5032)
(-30.1337 8.28929 -0.0624826 23.4552 -0.462098 9.33328)
(-22.6924 21.0259 -0.245018 4.22652 -0.123973 -0.121282)
(-11.4273 21.4479 -0.251941 -9.49042 0.196872 -5.38232)
(-3.3944 9.49983 -0.073901 -16.9155 0.547722 -9.86988)
(-40.347 5.90583 -0.161498 8.55324 -0.257408 0.733837)
(-36.7133 13.0282 -0.415743 -4.84183 -0.0556714 -8.19467)
(-10.4423 11.7652 -0.450918 -2.60792 0.096069 -1.10483)
(0.832211 4.87764 -0.214977 -4.58193 0.285703 -2.45783)
)
;

boundaryField
{
    interface
    {
        type            calculated;
        value           nonuniform List<symmTensor> 
192
(
(-23.0606 14.7477 3.68328 412.972 41.4208 114.727)
(-23.7223 6.96536 3.31334 188.773 -13.5769 18.3623)
(-23.6738 9.03826 4.06114 188.042 -8.64613 38.1849)
(-23.8782 7.33524 4.0936 132.37 -11.7054 28.5963)
(-24.1984 5.42366 4.14312 90.3533 -10.5629 24.7888)
(-24.5804 3.18542 4.08741 54.8119 -9.04077 20.3768)
(-24.8472 1.15824 3.86557 33.758 -7.13889 19.4119)
(-24 -0.932988 3.38983 23.2126 -3.82327 21.1904)
(-25.5397 15.5568 2.46684 406.176 24.9668 121.283)
(-26.4609 7.90019 2.44003 208.911 -5.84899 34.5037)
(-27.0356 8.95876 2.56479 185.57 -12.4993 36.7344)
(-27.6949 7.34195 2.52253 131.592 -15.1251 29.0712)
(-28.2348 5.28009 2.48037 87.3719 -14.7383 24.3406)
(-28.5242 2.96529 2.41972 52.1175 -12.8217 20.7951)
(-28.1893 0.741063 2.28534 31.6107 -9.83809 20.6716)
(-25.5482 -1.54208 2.04385 22.8903 -5.29645 23.9225)
(-27.0717 16.3312 1.50061 411.902 11.9952 130.967)
(-27.9587 7.90612 1.66738 206.174 -3.9515 46.1171)
(-28.6154 8.89299 1.69694 185.043 -9.4463 43.1126)
(-29.3584 7.24432 1.61034 130.883 -12.0071 30.8146)
(-29.9039 5.12374 1.53421 86.2827 -12.2089 22.5615)
(-30.0522 2.74568 1.47455 51.1191 -10.9278 16.8748)
(-29.3107 0.432395 1.39896 31.2883 -8.5513 15.7343)
(-25.7823 -1.95657 1.32212 22.3633 -4.44866 17.8504)
(-28.1596 16.6694 0.903059 414.661 4.64227 137.192)
(-28.9881 7.84911 1.15161 204.228 -3.3262 55.5323)
(-29.6269 8.83224 1.17946 184.879 -6.78002 50.8883)
(-30.3608 7.18117 1.11078 131.317 -8.61744 35.701)
(-30.8646 5.04776 1.04046 86.9458 -8.98822 24.6763)
(-30.8913 2.6381 0.987105 51.9915 -8.28259 16.9095)
(-29.8845 0.274201 0.93673 32.5695 -6.71793 14.4669)
(-25.829 -2.15319 0.909735 23.6256 -3.6767 15.7728)
(-28.9415 16.7583 0.541001 415.054 1.0641 140.336)
(-29.7286 7.78645 0.785829 203.077 -2.81512 61.37)
(-30.3375 8.76914 0.816905 184.754 -4.82045 56.4303)
(-31.0432 7.1261 0.774977 131.745 -5.94889 39.8642)
(-31.5022 4.99359 0.723824 87.7035 -6.25459 27.1913)
(-31.4375 2.56691 0.682261 52.9407 -5.89774 18.0143)
(-30.2536 0.169374 0.646584 33.7559 -4.94176 14.6428)
(-25.846 -2.28225 0.637331 24.7547 -2.78193 15.2967)
(-29.4867 16.7422 0.315837 414.458 -0.344841 141.752)
(-30.2483 7.73122 0.510845 202.376 -2.16293 64.7066)
(-30.8305 8.71554 0.538195 184.703 -3.26555 59.9036)
(-31.5107 7.08217 0.515602 132.084 -3.8984 42.7535)
(-31.9339 4.95258 0.482857 88.28 -4.09525 29.2304)
(-31.8053 2.51589 0.454185 53.6513 -3.9211 19.2665)
(-30.5045 0.095709 0.429699 34.6124 -3.3654 15.3657)
(-25.86 -2.36613 0.4254 25.6728 -1.94171 15.721)
(-29.835 16.7007 0.164117 413.708 -0.580706 142.301)
(-30.5815 7.69064 0.286379 201.944 -1.36121 66.4397)
(-31.1491 8.6768 0.30405 184.673 -1.90572 61.8301)
(-31.81 7.05122 0.293144 132.3 -2.21922 44.4638)
(-32.2093 4.92379 0.275241 88.6331 -2.32391 30.5459)
(-32.0405 2.4805 0.25868 54.0767 -2.24499 20.1943)
(-30.6673 0.0456016 0.243099 35.1201 -1.95694 16.031)
(-25.8753 -2.41884 0.238329 26.2511 -1.15091 16.2638)
(-29.9983 16.6715 0.0501998 413.246 -0.249432 142.475)
(-30.7361 7.66825 0.0911993 201.737 -0.464196 67.1694)
(-31.2936 8.65569 0.0970074 184.664 -0.627825 62.6795)
(-31.9437 7.03475 0.0936613 132.41 -0.721949 45.2492)
(-32.3312 4.90858 0.0879805 88.8044 -0.754436 31.1813)
(-32.1443 2.4608 0.0825899 54.2769 -0.731886 20.676)
(-30.7283 0.0166123 0.0767397 35.3597 -0.643381 16.4147)
(-25.8497 -2.44135 0.0736239 26.5406 -0.384294 16.6209)
(34.4057 61.9852 -2.1111 257.797 2.30652 -11.8694)
(-72.1393 30.5251 -4.5958 99.2992 -1.41384 -8.79964)
(-48.198 40.2021 -5.74486 112.849 -1.32231 -6.07958)
(-49.2428 35.522 -6.37673 75.8386 -1.03241 -4.29212)
(-44.3607 30.7186 -6.7764 49.8778 -0.742751 -3.37328)
(-42.3876 23.7053 -7.06658 26.47 -0.658875 -3.14749)
(-41.6554 16.1189 -7.41622 11.5024 -0.822882 -3.48136)
(-49.028 9.79916 -8.28738 -0.0984847 -1.07623 -4.31857)
(-5.41932 45.3243 -1.59064 50.2462 -0.459965 -10.7103)
(-35.7102 66.0849 -3.15158 28.4852 -1.4875 -9.4)
(-35.2376 69.4664 -3.81463 28.1995 -1.42117 -7.77539)
(-34.1598 64.1985 -4.16083 17.0189 -1.04769 -6.57881)
(-32.1894 55.6254 -4.36834 8.39082 -0.632707 -5.9311)
(-31.2554 44.6191 -4.56745 0.791754 -0.362771 -5.7503)
(-31.6964 32.6222 -4.93828 -4.30348 -0.281343 -5.90966)
(-39.9685 18.996 -6.05899 -7.94855 -0.280806 -6.10197)
(-24.2586 38.7154 -1.50836 -81.8921 -0.142936 -9.86978)
(4.05874 60.902 -2.80304 -45.0688 -1.29513 -9.40037)
(0.779734 65.1036 -3.34651 -44.9704 -1.34228 -8.35672)
(-0.889734 60.8347 -3.52323 -35.1448 -1.03823 -7.49031)
(-3.38178 53.3132 -3.61755 -27.5844 -0.615734 -7.00886)
(-5.41202 43.4999 -3.75486 -20.6945 -0.274637 -6.87536)
(-7.27796 32.1209 -4.10276 -15.1529 -0.0778597 -7.01184)
(-5.91009 17.2089 -5.17519 -8.05089 0.00906067 -7.18336)
(-61.5414 38.2519 -1.65596 -258.933 3.02419 -8.8392)
(38.0859 18.8651 -2.94235 -109.549 -1.06778 -8.59268)
(14.2101 27.823 -3.46383 -120.03 -1.27067 -7.7136)
(14.3341 25.7428 -3.67342 -84.8786 -1.10934 -6.94331)
(9.0833 23.8065 -3.7474 -60.0002 -0.708572 -6.50707)
(6.24487 20.0388 -3.85962 -37.3284 -0.330634 -6.35728)
(4.79314 14.9112 -4.17803 -21.1355 -0.0347394 -6.4049)
(8.5384 7.07036 -5.16461 -8.94761 0.231209 -6.61405)
(-6.31724 -10.795 -1.14025 -367.259 -37.4971 -127.405)
(-5.01606 -5.02938 0.580967 -185.807 8.39372 -28.5531)
(-3.98891 -6.53705 0.525918 -177.338 4.74695 -40.7624)
(-3.17159 -5.06447 0.794367 -123.712 8.64667 -26.8095)
(-2.60953 -3.60536 0.905843 -82.9181 8.69108 -20.7912)
(-2.06298 -2.05607 1.0579 -48.138 8.18947 -15.6716)
(-1.156 -1.06355 1.26646 -24.5312 6.58366 -13.5903)
(1.17687 -1.52266 1.48198 -12.9433 2.66563 -14.3437)
(-7.19774 -11.4117 -1.14072 -358.919 -25.3123 -133.748)
(-6.74046 -6.05907 -0.350472 -207.517 0.846182 -46.7926)
(-6.33108 -6.60354 -0.0646702 -178.528 8.57924 -41.6356)
(-5.86315 -5.15964 0.180449 -126.509 12.6706 -30.2129)
(-5.44392 -3.51091 0.342962 -83.4513 13.7564 -23.5427)
(-4.94507 -1.85448 0.467411 -48.2405 13.0181 -19.0359)
(-4.00539 -0.682545 0.564878 -23.8911 10.5463 -16.9448)
(-1.34777 -1.06424 0.620304 -13.0594 5.44704 -18.0159)
(-7.76748 -11.9717 -0.765296 -364.244 -13.77 -145.404)
(-7.50116 -6.1994 -0.395687 -207.23 0.37002 -62.1242)
(-7.30397 -6.67021 -0.145601 -179.945 6.58952 -52.9829)
(-6.96204 -5.16303 0.0981656 -127.816 10.3618 -37.4763)
(-6.54963 -3.40286 0.286434 -84.086 11.8364 -27.1954)
(-5.9631 -1.64803 0.423657 -48.3739 11.5824 -19.9236)
(-4.89178 -0.386682 0.498384 -23.4846 9.72209 -15.6077)
(-2.31212 -0.585687 0.432455 -11.6782 5.01911 -13.9048)
(-8.16504 -12.1398 -0.461748 -366.415 -6.89629 -152.392)
(-7.93807 -6.20746 -0.28766 -206.45 0.694991 -73.221)
(-7.83347 -6.65933 -0.0924918 -180.11 4.78999 -62.7433)
(-7.53027 -5.10953 0.110859 -128.259 7.57058 -44.491)
(-7.08958 -3.28433 0.281506 -84.4246 8.93279 -31.237)
(-6.41819 -1.46255 0.403137 -48.4718 9.01996 -21.3867)
(-5.23234 -0.136939 0.454563 -23.0873 7.80697 -14.8502)
(-2.69926 -0.240214 0.369998 -10.9143 4.13707 -11.1655)
(-8.43893 -12.1046 -0.262023 -366.272 -3.1769 -155.853)
(-8.22199 -6.16544 -0.177142 -205.779 0.878046 -80.0511)
(-8.14149 -6.60182 -0.027918 -179.798 3.45348 -69.2595)
(-7.84594 -5.02672 0.127731 -128.153 5.30447 -49.6267)
(-7.3714 -3.1641 0.261605 -84.3673 6.33341 -34.5361)
(-6.63339 -1.30322 0.353932 -48.29 6.52762 -22.8609)
(-5.37977 0.0614313 0.382133 -22.5848 5.76636 -14.6732)
(-2.88165 0.0100892 0.299064 -10.259 3.09238 -9.61531)
(-8.61488 -12.0028 -0.138427 -365.25 -1.29895 -157.393)
(-8.39565 -6.10799 -0.0943843 -205.186 0.816833 -83.988)
(-8.31165 -6.5321 0.0123951 -179.372 2.36658 -73.2225)
(-8.00391 -4.944 0.121663 -127.852 3.51465 -52.938)
(-7.50559 -3.06088 0.214901 -84.1111 4.1978 -36.832)
(-6.72198 -1.18033 0.276581 -47.9783 4.37075 -24.0505)
(-5.4372 0.201713 0.289075 -22.1046 3.9059 -14.8217)
(-2.96561 0.174595 0.219669 -9.79269 2.11313 -8.99298)
(-8.7166 -11.9075 -0.0643338 -364.211 -0.442747 -157.997)
(-8.4891 -6.05855 -0.0422479 -204.723 0.564918 -86.0896)
(-8.39372 -6.47461 0.0218515 -179.002 1.39135 -75.4239)
(-8.08236 -4.88097 0.0861177 -127.572 2.01374 -54.8604)
(-7.56388 -2.98778 0.140282 -83.853 2.39699 -38.2328)
(-6.75608 -1.09847 0.174837 -47.6972 2.50562 -24.8509)
(-5.45316 0.289503 0.179159 -21.7409 2.25134 -15.0361)
(-3.00499 0.273481 0.132884 -9.48648 1.22337 -8.81688)
(-8.76015 -11.8535 -0.0183219 -363.599 -0.0962114 -158.186)
(-8.52988 -6.03132 -0.0115473 -204.469 0.200487 -86.9966)
(-8.43068 -6.44332 0.00967888 -178.796 0.459985 -76.4016)
(-8.11439 -4.84782 0.0307894 -127.41 0.656909 -55.7346)
(-7.58681 -2.95048 0.0484043 -83.7026 0.779888 -38.8897)
(-6.76761 -1.05781 0.0594777 -47.5385 0.816146 -25.2477)
(-5.45514 0.330565 0.0604379 -21.5487 0.734761 -15.1742)
(-3.02921 0.319094 0.0438352 -9.34222 0.400006 -8.80348)
(-52.485 10.8453 -2.85548 -4.94393 -1.53345 -4.14106)
(-47.6316 10.015 -0.416489 -3.50189 -1.31882 -0.473908)
(-48.0318 9.94169 -0.872773 -2.38944 -0.956361 -4.25897)
(-48.2706 9.9806 -1.16936 -1.52155 -0.686304 -5.74307)
(-48.8496 10.0623 -1.23996 -0.877998 -0.485555 -6.43039)
(-49.3037 10.1365 -1.03253 -0.421785 -0.330376 -6.41376)
(-49.6121 10.1911 -0.6762 -0.13901 -0.200662 -6.20344)
(-49.7898 10.2165 -0.236077 -0.0592332 -0.0701946 -6.07507)
(-44.9859 8.05145 -4.84631 -5.92861 -0.184816 -11.2332)
(-40.8196 6.8617 -3.72454 -5.16026 -0.167544 -10.5745)
(-40.8681 6.57656 -3.54059 -4.36798 -0.0578905 -10.5893)
(-41.7526 6.5185 -3.54293 -3.7191 0.0151753 -10.3265)
(-42.6936 6.52273 -3.2127 -3.24074 0.0422631 -10.161)
(-43.3994 6.54041 -2.51684 -2.9032 0.0419678 -9.97381)
(-43.8448 6.55961 -1.58904 -2.68288 0.0285654 -9.81542)
(-44.0433 6.57754 -0.54218 -2.55977 0.0100523 -9.71567)
(-5.28398 5.24888 -4.70748 -6.67556 0.390701 -5.69726)
(-7.52318 4.24179 -4.94556 -6.0962 0.345962 -7.12412)
(-9.09597 3.93221 -4.79835 -5.48266 0.338694 -5.26899)
(-10.5675 3.83483 -4.44336 -4.99111 0.307315 -3.70004)
(-11.6579 3.80142 -3.79471 -4.6339 0.252253 -2.74465)
(-12.387 3.78946 -2.87329 -4.38525 0.185058 -2.27629)
(-12.825 3.78553 -1.7815 -4.22586 0.113669 -2.08031)
(-13.0263 3.78361 -0.602945 -4.13909 0.0388563 -2.01162)
(9.78577 4.41039 -3.25012 -6.17 0.725702 -7.8784)
(5.74581 3.49811 -3.12333 -5.69812 0.491502 -10.7479)
(4.49105 3.12981 -3.07665 -5.29789 0.396331 -6.55043)
(3.33601 2.97938 -2.69809 -4.95859 0.323615 -3.76152)
(2.61773 2.89956 -2.2181 -4.70493 0.251732 -2.13197)
(2.12319 2.85599 -1.63449 -4.52985 0.178588 -1.45981)
(1.82186 2.83177 -0.999304 -4.41975 0.106025 -1.25664)
(1.674 2.81845 -0.336595 -4.36968 0.0349663 -1.22869)
)
;
    }
    symmetry
    {
        type            symmetryPlane;
    }
    bottom
    {
        type            calculated;
        value           nonuniform List<symmTensor> 
32
(
(195.236 79.2285 3.38202 295.813 86.8181 195.856)
(191.729 87.59 1.84092 289.255 42.6343 188.843)
(196.809 91.3804 0.911344 296.791 20.2948 192.908)
(199.539 92.4735 0.405075 300.969 8.9296 195.384)
(200.522 92.5461 0.153717 302.521 3.38812 196.329)
(200.727 92.3239 0.0419931 302.878 0.927948 196.549)
(200.658 92.0939 0.00275851 302.803 0.0611069 196.501)
(200.572 91.96 -0.00239087 302.685 -0.0530376 196.426)
(36.5372 33.2827 0.451865 54.1629 24.8563 36.2696)
(38.1225 42.3375 0.295519 55.9985 12.7899 37.2335)
(40.5465 43.4284 0.14041 59.5985 5.93396 39.5381)
(41.5976 42.7315 0.0549678 61.2439 2.36269 40.6065)
(42.0765 41.808 0.0151604 62.0358 0.666278 41.1254)
(42.3071 41.0585 -0.000313259 62.4376 -0.0140212 41.3898)
(42.4187 40.5643 -0.00374475 62.6404 -0.16967 41.5234)
(42.4644 40.3226 -0.00176027 62.7261 -0.0802369 41.5798)
(-54.1285 28.3682 -0.444646 -81.2615 -26.9293 -54.1748)
(-49.2585 37.1893 -0.335845 -74.557 -15.5655 -49.9204)
(-49.926 37.7449 -0.1972 -75.581 -9.00077 -50.7059)
(-50.3053 36.6683 -0.109327 -76.0743 -5.13531 -51.0706)
(-50.3602 35.5041 -0.0588645 -76.0839 -2.85566 -51.0873)
(-50.2554 34.6037 -0.0304911 -75.8751 -1.51784 -50.9492)
(-50.1205 34.0199 -0.0143029 -75.6414 -0.724299 -50.792)
(-50.0347 33.7366 -0.0041597 -75.4982 -0.212431 -50.6953)
(-200.062 56.0388 -2.88253 -294.428 -79.3299 -198.018)
(-191.015 62.563 -1.70541 -282.393 -42.3161 -192.382)
(-195.77 64.108 -0.919585 -289.36 -22.1875 -198.109)
(-198.031 63.8373 -0.46635 -292.55 -11.2809 -200.588)
(-198.49 63.1112 -0.223467 -293.122 -5.46624 -201.051)
(-198.202 62.416 -0.099639 -292.636 -2.46507 -200.721)
(-197.763 61.9157 -0.0394957 -291.959 -0.985373 -200.245)
(-197.481 61.6597 -0.0101209 -291.53 -0.253611 -199.942)
)
;
    }
}


// ************************************************************************* //
