/*--------------------------------*- C++ -*----------------------------------*\
| =========                 |                                                 |
| \\      /  F ield         | foam-extend: Open Source CFD                    |
|  \\    /   O peration     | Version:     3.1                                |
|   \\  /    A nd           | Web:         http://www.extend-project.de       |
|    \\/     M anipulation  |                                                 |
\*---------------------------------------------------------------------------*/
FoamFile
{
    version     2.0;
    format      ascii;
    class       volSymmTensorField;
    location    "2.3";
    object      sigma;
}
// * * * * * * * * * * * * * * * * * * * * * * * * * * * * * * * * * * * * * //

dimensions      [1 -1 -2 0 0 0 0];

internalField   nonuniform List<symmTensor> 
256
(
(165.763 59.7396 -2.63438 375.937 29.5759 191.909)
(20.9051 51.5474 -7.77858 74.9902 10.6463 28.9846)
(-52.1161 48.0194 -7.92387 -103.621 -14.0842 -52.0366)
(-187.956 50.2076 -3.26997 -385.421 -34.9666 -203.418)
(-74.5378 25.0533 -3.12765 107.924 -10.2819 -23.4455)
(-32.9073 65.1718 -12.3459 39.1176 -4.47088 -11.2483)
(-3.79399 63.8473 -12.7351 -50.5211 2.30837 -5.1981)
(35.6628 24.3711 -4.61247 -121.628 7.2344 6.73273)
(-29.1334 29.9831 -1.39637 133.244 -5.60583 21.1456)
(-33.951 62.3014 -8.57986 35.1787 -2.2502 -6.51902)
(-8.76363 62.383 -8.88208 -44.8978 0.30912 -9.5625)
(-7.82012 30.4047 -2.93967 -139.13 3.42387 -30.879)
(-39.7062 25.8473 -1.4267 88.0524 -7.66785 8.02115)
(-34.7976 56.1509 -7.14669 23.2394 -2.63792 -7.64035)
(-8.40913 56.5951 -7.34233 -31.8639 1.14411 -6.34821)
(2.42278 26.7926 -3.04183 -91.8917 6.10941 -15.0956)
(-36.3879 22.1158 -1.09527 59.8326 -6.89792 7.89553)
(-32.7081 47.8143 -5.79881 14.1916 -2.22887 -6.49282)
(-9.60255 48.4949 -5.94324 -22.8648 1.13494 -6.07589)
(-0.214524 23.4289 -2.68027 -62.6411 5.94226 -13.1735)
(-36.4774 16.8811 -1.15969 33.5835 -5.97211 4.95049)
(-31.2881 37.9731 -5.06795 5.78918 -1.93059 -6.30647)
(-9.96658 38.9634 -5.08651 -15.5003 1.02799 -5.75088)
(0.237484 18.8268 -2.54215 -36.5763 5.47326 -9.86588)
(-35.3873 10.8542 -1.62867 17.6218 -4.94521 5.09223)
(-31.0786 27.4137 -4.86858 -0.637102 -1.87907 -6.28508)
(-10.2426 28.4241 -4.68384 -10.3742 0.655101 -6.03107)
(0.908953 13.5574 -2.57234 -18.8491 4.3377 -8.75829)
(-44.8284 6.06908 -2.24185 3.50083 -2.69196 0.494861)
(-42.0576 15.493 -4.79522 -9.16018 -1.17235 -12.0061)
(-5.28233 15.1851 -4.66421 -2.9931 0.00288287 -3.15056)
(6.70997 6.67314 -3.01756 -6.87673 1.64597 -6.92906)
(167.041 66.8344 -1.62262 372.364 17.8729 199.391)
(25.8706 60.5855 -6.19814 77.2852 5.97694 34.9284)
(-48.3179 57.5522 -6.7502 -94.0985 -9.87098 -50.0503)
(-181.764 57.8455 -2.97415 -370.59 -23.4689 -202.88)
(-43.8121 25.2137 -2.32981 148.279 -4.50166 12.9435)
(-11.5827 66.3694 -11.4371 62.446 -2.55205 9.33484)
(-21.9209 65.6303 -12.6419 -72.6896 -0.569084 -24.6531)
(5.03324 25.4473 -5.25982 -162.814 0.604608 -29.1285)
(-23.5783 26.0555 -0.984497 137.619 -8.90093 25.5342)
(-23.2073 56.6906 -9.12648 42.7393 -3.55434 0.428216)
(-13.9939 56.9224 -10.4286 -50.0928 1.51525 -14.3338)
(-11.1742 26.5255 -4.34345 -142.581 6.51999 -33.578)
(-29.7223 21.3753 -0.0334437 95.9951 -10.6116 16.4461)
(-23.4032 48.5629 -6.63168 30.9161 -3.71683 -0.479654)
(-13.3884 48.9871 -7.95298 -36.3265 2.54827 -11.2605)
(-4.81382 22.2094 -3.626 -98.1052 9.40299 -21.6592)
(-29.0076 17.3732 0.815439 64.0226 -10.3452 13.4902)
(-23.012 39.9056 -4.66265 19.8375 -3.4119 -1.19223)
(-12.4899 40.4906 -5.95984 -24.5876 2.88081 -8.97587)
(-4.68395 18.5349 -2.78791 -64.5445 10.0721 -16.8727)
(-29.2512 12.7016 1.18236 37.4587 -9.03159 10.6994)
(-22.5132 30.9867 -3.40329 10.6382 -2.93151 -1.71559)
(-11.8636 31.8443 -4.55822 -15.8169 2.65422 -7.67782)
(-3.83584 14.5252 -2.16576 -37.3535 9.36956 -13.3218)
(-28.9748 7.48829 1.01086 20.6069 -7.03886 10.2361)
(-23.8707 22.0469 -2.93633 2.7515 -2.46276 -2.99845)
(-11.3332 22.9852 -3.87196 -9.62127 1.89141 -7.00544)
(-2.09609 10.3143 -1.81567 -17.9871 7.41504 -11.0995)
(-38.2174 4.43531 0.327717 7.1287 -3.80504 5.7634)
(-35.9168 12.7935 -3.25807 -6.32893 -1.45443 -9.63453)
(-7.53063 12.4251 -4.34302 -3.3998 0.714793 -4.94184)
(2.31637 5.1809 -2.47359 -7.73134 3.66825 -10.4253)
(172.424 69.6288 -1.09028 380.451 8.54551 211.791)
(28.1232 62.5545 -3.93485 80.6439 2.42441 40.0687)
(-48.806 59.3214 -4.39442 -94.0433 -6.04171 -52.8662)
(-187.047 59.9199 -2.07785 -376.965 -13.1081 -214.72)
(-44.2441 25.4597 -1.91182 149.221 -3.13472 24.4758)
(-9.96068 66.9556 -7.73293 65.8612 -2.01328 16.2165)
(-23.3927 66.2443 -8.74757 -74.3079 -0.90431 -30.3186)
(2.98369 25.6655 -4.07464 -164.691 -0.0288583 -42.8961)
(-24.1241 25.4895 -1.26769 139.294 -6.95657 32.7273)
(-22.453 55.8609 -6.8176 45.298 -2.97493 5.0307)
(-14.8795 56.09 -7.93453 -51.4196 1.11692 -18.1072)
(-13.2072 25.7883 -3.70801 -145.348 5.01795 -43.7361)
(-30.4508 20.456 -0.505558 96.7643 -8.72533 19.7906)
(-22.6562 46.4828 -5.14248 32.7969 -3.21919 2.69542)
(-14.1833 46.901 -6.2679 -36.8905 2.32388 -13.4828)
(-7.03935 21.2054 -3.03034 -100.24 7.9003 -28.385)
(-30.4298 16.1522 0.180565 63.8092 -8.84 13.6483)
(-22.2914 37.3828 -3.53103 21.4138 -2.99943 1.04394)
(-13.1612 38.008 -4.61785 -24.6562 2.84887 -10.0227)
(-6.25298 17.3746 -2.28125 -65.5179 8.94993 -20.3023)
(-30.863 11.4292 0.567909 36.8469 -7.8964 8.92558)
(-21.7862 28.5209 -2.42904 11.9727 -2.55857 -0.118366)
(-12.4143 29.5073 -3.39555 -15.4515 2.78348 -7.78336)
(-5.0595 13.5285 -1.6658 -37.5303 8.63258 -14.3503)
(-30.2866 6.26092 0.523888 20.1889 -6.17598 7.4689)
(-23.1822 20.0629 -2.07827 3.85256 -2.03138 -1.93832)
(-11.8959 21.2216 -2.90486 -9.01278 2.12134 -6.38363)
(-3.09195 9.63684 -1.37082 -17.5174 7.05085 -10.2065)
(-40.1277 3.79306 -0.143294 5.76179 -3.1345 1.13423)
(-35.697 11.7712 -2.78932 -5.60215 -1.04449 -9.34764)
(-8.54036 11.5262 -3.84357 -2.67607 0.833386 -3.48258)
(2.12241 4.9044 -2.23075 -5.86652 3.42799 -6.57573)
(175.009 70.4637 -0.606261 384.573 3.34278 219.043)
(28.8116 62.6094 -2.32469 82.1459 0.588517 42.7589)
(-49.2442 59.1321 -2.63088 -94.1084 -3.59767 -54.7039)
(-189.427 60.1406 -1.28641 -379.634 -6.85844 -221.404)
(-45.0514 25.4332 -1.16604 148.954 -2.58251 32.5398)
(-10.3396 67.0959 -4.82907 66.8255 -1.62392 19.8352)
(-23.8279 66.332 -5.51891 -74.0277 -0.768877 -33.4356)
(2.38876 25.6072 -2.68006 -164.305 0.162635 -51.8633)
(-24.6282 25.4849 -0.932446 140.209 -5.04578 39.6023)
(-23.2992 55.869 -4.64009 46.1388 -2.22802 7.77872)
(-15.2844 56.0955 -5.40421 -51.2623 0.75048 -20.6368)
(-13.8975 25.7417 -2.62651 -145.682 3.62055 -51.5044)
(-31.0235 20.32 -0.494352 97.8086 -6.34888 24.3522)
(-23.4893 46.1931 -3.70631 33.5783 -2.39332 4.64982)
(-14.7015 46.6351 -4.45696 -36.7153 1.7734 -15.2091)
(-7.76229 21.0968 -2.20166 -100.675 5.84082 -33.9227)
(-30.97 15.8901 -0.0363504 64.8823 -6.58725 16.0827)
(-23.026 36.8709 -2.64429 22.1909 -2.24379 2.35193)
(-13.7348 37.5689 -3.34847 -24.4256 2.30164 -10.9266)
(-6.95591 17.2482 -1.65765 -65.8208 6.86365 -23.5219)
(-31.3007 11.0668 0.245737 37.9537 -6.04251 9.74947)
(-22.392 27.9134 -1.88587 12.735 -1.93092 0.724135)
(-12.9733 29.0411 -2.49738 -15.1133 2.34318 -7.92045)
(-5.73357 13.4471 -1.19436 -37.6154 6.83642 -15.5744)
(-30.3779 5.83009 0.197832 21.5414 -4.86296 7.32205)
(-23.6904 19.5186 -1.75568 4.58196 -1.53583 -1.41861)
(-12.5191 20.8635 -2.28219 -8.5843 1.84804 -5.84433)
(-3.76983 9.63083 -1.01754 -17.2564 5.7384 -9.71127)
(-40.1683 3.5685 -0.473086 6.95373 -2.57732 0.154333)
(-36.3315 11.459 -2.68783 -4.85678 -0.804139 -8.97812)
(-9.69441 11.2863 -3.41391 -2.32612 0.753407 -2.35185)
(1.31241 4.91222 -1.87869 -5.32069 2.84952 -4.43021)
(175.731 70.5218 -0.296849 385.861 0.810541 222.491)
(29.0141 62.1034 -1.29778 82.84 -0.208024 44.1533)
(-49.4056 58.444 -1.48933 -93.8259 -2.08949 -55.6546)
(-189.855 59.7518 -0.745388 -379.521 -3.37651 -224.31)
(-45.7974 25.2732 -0.61852 148.585 -2.13014 37.3394)
(-10.7954 66.8927 -2.84133 67.283 -1.26784 21.8789)
(-24.1366 66.0896 -3.28342 -73.4691 -0.554574 -35.3089)
(2.00455 25.4521 -1.63157 -163.664 0.342647 -57.3408)
(-25.3289 25.4788 -0.567894 140.494 -3.57766 44.1196)
(-24.0395 55.9096 -2.9458 46.6048 -1.58659 9.49334)
(-15.6414 56.1515 -3.43928 -50.7909 0.500425 -22.3396)
(-14.1626 25.7531 -1.69339 -145.251 2.5778 -56.5483)
(-31.7267 20.3514 -0.348409 98.3902 -4.39461 27.7641)
(-24.2258 46.3046 -2.48685 34.1182 -1.66042 5.97292)
(-15.1223 46.7833 -2.96011 -36.3176 1.26047 -16.4943)
(-8.07088 21.1947 -1.45767 -100.44 4.10418 -37.8492)
(-31.5916 15.8987 -0.0840648 65.6692 -4.59982 18.2581)
(-23.6874 36.9561 -1.86683 22.7914 -1.55552 3.29909)
(-14.1772 37.7213 -2.29829 -24.0643 1.69155 -11.6835)
(-7.28955 17.3912 -1.11326 -65.6685 4.90399 -26.0363)
(-31.8077 11.0135 0.0781306 38.8537 -4.3128 10.8749)
(-22.9445 27.9371 -1.42309 13.3663 -1.35677 1.39579)
(-13.4066 29.1711 -1.78713 -14.7548 1.7627 -8.13517)
(-6.06587 13.6157 -0.81867 -37.4158 4.98744 -16.6994)
(-30.6467 5.70152 -0.00455028 22.6029 -3.57198 7.78075)
(-24.187 19.4958 -1.46299 5.18695 -1.10116 -0.938995)
(-13.0107 20.9606 -1.77326 -8.22425 1.41068 -5.56075)
(-4.09582 9.80413 -0.753744 -16.8637 4.26147 -9.56058)
(-40.6002 3.50277 -0.627992 7.73124 -1.93734 -0.156773)
(-37.0778 11.4332 -2.40915 -4.37052 -0.584896 -8.72368)
(-10.5445 11.2797 -2.86507 -2.02414 0.574416 -1.65286)
(0.898785 4.99279 -1.51959 -4.79153 2.13091 -3.1401)
(175.703 70.333 -0.122027 385.911 -0.19692 223.966)
(29.0484 61.544 -0.679162 83.1706 -0.429543 44.8588)
(-49.3875 57.7608 -0.793219 -93.3871 -1.1616 -56.0728)
(-189.506 59.2601 -0.403904 -378.359 -1.5337 -225.308)
(-46.2696 25.0821 -0.278743 148.342 -1.60846 40.0858)
(-11.1328 66.5679 -1.56374 67.5588 -0.913172 22.9991)
(-24.3341 65.741 -1.83286 -72.9116 -0.357543 -36.3975)
(1.69865 25.284 -0.922855 -163.064 0.377882 -60.5503)
(-25.8432 25.4303 -0.291358 140.638 -2.40763 46.8882)
(-24.541 55.8664 -1.73418 46.9267 -1.06042 10.5077)
(-15.9093 56.127 -2.03679 -50.3149 0.3244 -23.4263)
(-14.3033 25.7405 -1.00373 -144.704 1.74752 -59.6241)
(-32.2408 20.3814 -0.194356 98.7709 -2.87258 30.0455)
(-24.7297 46.4244 -1.53746 34.511 -1.07799 6.80733)
(-15.4123 46.9364 -1.82215 -35.8998 0.835267 -17.3625)
(-8.22751 21.2922 -0.885403 -100.037 2.71533 -40.3862)
(-32.0476 15.9472 -0.0581159 66.2166 -3.00833 19.8978)
(-24.1404 37.1311 -1.21144 23.2393 -1.00544 3.94376)
(-14.4647 37.9479 -1.46492 -23.6922 1.13903 -12.2326)
(-7.45218 17.5481 -0.688673 -65.3481 3.25849 -27.7759)
(-32.1755 11.0329 0.018756 39.4966 -2.86357 11.934)
(-23.3252 28.092 -0.987715 13.8351 -0.888124 1.89809)
(-13.6806 29.4003 -1.19601 -14.4158 1.19984 -8.33242)
(-6.23393 13.7951 -0.523337 -37.1112 3.3493 -17.5924)
(-30.8605 5.66117 -0.0725733 23.3471 -2.42441 8.46056)
(-24.5435 19.5934 -1.10375 5.62191 -0.736144 -0.544371)
(-13.3277 21.1362 -1.27883 -7.92362 0.964259 -5.43431)
(-4.26145 9.97059 -0.522887 -16.4779 2.88951 -9.64102)
(-40.8746 3.47359 -0.565208 8.38383 -1.34438 0.140811)
(-37.6263 11.4693 -1.88469 -4.01737 -0.399242 -8.47011)
(-11.1062 11.3209 -2.15749 -1.79377 0.390118 -1.30456)
(0.600276 5.05939 -1.11367 -4.44828 1.45267 -2.62776)
(175.473 70.1317 -0.039686 385.594 -0.381137 224.508)
(29.0352 61.1211 -0.316259 83.3287 -0.350809 45.1992)
(-49.3099 57.2616 -0.376453 -92.9916 -0.577192 -56.2243)
(-189.015 58.8716 -0.19423 -377.166 -0.612922 -225.504)
(-46.5492 24.9272 -0.103648 148.184 -1.00277 41.5286)
(-11.3444 66.2809 -0.761156 67.729 -0.552054 23.5754)
(-24.4412 65.4412 -0.905602 -72.4794 -0.196072 -36.9853)
(1.49506 25.1522 -0.459636 -162.6 0.281926 -62.2955)
(-26.1744 25.3718 -0.125687 140.713 -1.39708 48.4172)
(-24.8396 55.7868 -0.891651 47.1443 -0.61032 11.0621)
(-16.0784 56.0624 -1.05505 -49.9519 0.18461 -24.0609)
(-14.3786 25.7138 -0.518355 -144.26 1.02011 -61.3496)
(-32.5721 20.3891 -0.0893738 98.9991 -1.62952 31.3806)
(-25.0308 46.4855 -0.821653 34.7755 -0.606597 7.28734)
(-15.5869 47.0212 -0.973435 -35.5764 0.476336 -17.8884)
(-8.30938 21.3507 -0.466496 -99.6921 1.55185 -41.8697)
(-32.3469 15.9799 -0.0286134 66.5434 -1.703 20.9295)
(-24.4105 37.2558 -0.672838 23.5367 -0.56325 4.33918)
(-14.6298 38.1067 -0.805816 -23.4029 0.653666 -12.5792)
(-7.52933 17.6543 -0.3691 -65.0555 1.86075 -28.8409)
(-32.4217 11.0538 0.000364488 39.8764 -1.63596 12.678)
(-23.5522 28.2168 -0.578432 14.1396 -0.50226 2.22989)
(-13.8334 29.5714 -0.68558 -14.1591 0.691308 -8.47293)
(-6.31219 13.9184 -0.289644 -36.8417 1.92094 -18.1896)
(-31.021 5.64458 -0.0698355 23.7795 -1.40552 9.01288)
(-24.76 19.6776 -0.684936 5.8977 -0.42308 -0.264296)
(-13.5075 21.2671 -0.773921 -7.70863 0.555567 -5.38844)
(-4.3345 10.0817 -0.309244 -16.1796 1.66444 -9.77645)
(-41.0705 3.4599 -0.384229 8.78107 -0.793472 0.50394)
(-37.974 11.5048 -1.191 -3.79861 -0.233003 -8.27655)
(-11.436 11.3547 -1.33607 -1.63449 0.223686 -1.15398)
(0.427536 5.09978 -0.680088 -4.22156 0.838807 -2.47639)
(175.305 70.0139 -0.00808538 385.345 -0.166447 224.663)
(29.0207 60.9001 -0.0910811 83.3931 -0.130665 45.3356)
(-49.2524 57.0043 -0.109829 -92.7648 -0.173608 -56.2649)
(-188.705 58.6645 -0.0570937 -376.462 -0.15715 -225.481)
(-46.6786 24.8426 -0.0246327 148.104 -0.340623 42.1397)
(-11.4452 66.119 -0.225404 67.8119 -0.184792 23.8167)
(-24.4861 65.2738 -0.270816 -72.2458 -0.062051 -37.2404)
(1.39512 25.0813 -0.138027 -162.347 0.103212 -63.0584)
(-26.334 25.3343 -0.0340619 140.745 -0.458897 49.0866)
(-24.9779 55.7303 -0.27274 47.2554 -0.199505 11.3039)
(-16.1584 56.014 -0.324277 -49.7581 0.0601546 -24.3517)
(-14.4118 25.6942 -0.158966 -144.017 0.336111 -62.1199)
(-32.7316 20.3875 -0.0254379 99.1066 -0.528983 31.9867)
(-25.1705 46.5057 -0.25696 34.9089 -0.195956 7.50382)
(-15.6679 47.0534 -0.304505 -35.4032 0.154816 -18.1347)
(-8.34519 21.3756 -0.14474 -99.5008 0.505398 -42.549)
(-32.4923 15.9937 -0.00863036 66.6945 -0.551991 21.4183)
(-24.5355 37.3142 -0.215078 23.6842 -0.181503 4.52512)
(-14.7041 38.1816 -0.256376 -23.2476 0.212851 -12.745)
(-7.56008 17.7047 -0.115751 -64.8894 0.605146 -29.3415)
(-32.5422 11.0634 -0.00198441 40.0493 -0.532631 13.0524)
(-23.6571 28.279 -0.190436 14.2878 -0.162694 2.39311)
(-13.9005 29.6556 -0.223336 -14.0225 0.225347 -8.54429)
(-6.3424 13.9779 -0.0926752 -36.6899 0.625559 -18.4848)
(-31.1024 5.63674 -0.0283793 23.9729 -0.461347 9.31066)
(-24.8607 19.7204 -0.232314 6.02964 -0.138292 -0.120969)
(-13.5871 21.3308 -0.259394 -7.59696 0.180989 -5.37591)
(-4.36196 10.1342 -0.102681 -16.0211 0.542839 -9.86719)
(-41.1619 3.45503 -0.136614 8.96637 -0.264428 0.731419)
(-38.1376 11.5249 -0.406845 -3.69361 -0.077029 -8.17215)
(-11.5887 11.3705 -0.452245 -1.55373 0.0728809 -1.10338)
(0.34488 5.11682 -0.22911 -4.11193 0.273882 -2.45781)
)
;

boundaryField
{
    interface
    {
        type            calculated;
        value           nonuniform List<symmTensor> 
192
(
(-24.8775 -0.0216133 2.21187 389.333 36.337 115.48)
(-24.5566 0.028754 3.7544 182.81 -12.6664 18.5013)
(-24.7131 -0.0307604 4.45677 182.643 -7.71573 38.445)
(-24.7106 -0.21417 4.77138 129.752 -10.81 28.6162)
(-24.8195 -0.55655 4.87454 89.2015 -9.89563 24.7071)
(-24.9522 -1.10321 4.8038 54.39 -8.57366 20.2429)
(-24.9984 -2.03382 4.52811 33.5047 -6.79513 19.2599)
(-23.9231 -3.51313 3.91114 22.8738 -3.56673 21.0386)
(-27.5761 0.122243 1.5153 383.454 22.1142 122.447)
(-27.5038 0.21294 2.59767 201.903 -5.3933 34.8611)
(-28.1588 0.154988 3.08092 180.191 -11.7071 36.9668)
(-28.6242 -0.100686 3.28639 128.905 -14.3838 29.0949)
(-28.9311 -0.554769 3.33064 86.2086 -14.1766 24.2578)
(-28.9574 -1.26344 3.24023 51.6694 -12.4351 20.667)
(-28.3735 -2.44042 2.99827 31.313 -9.5649 20.5302)
(-25.4611 -4.15939 2.55748 22.484 -5.10168 23.775)
(-29.297 0.152215 1.04447 388.828 10.6136 132.272)
(-29.0765 0.254488 1.79317 199.541 -3.66554 46.4889)
(-29.7951 0.196237 2.10409 179.769 -8.8945 43.3698)
(-30.323 -0.0920712 2.21695 128.214 -11.4767 30.8779)
(-30.6152 -0.60969 2.2234 85.1031 -11.8008 22.5243)
(-30.484 -1.41584 2.14451 50.637 -10.6475 16.7989)
(-29.4774 -2.72477 1.97793 30.9428 -8.3538 15.6499)
(-25.6536 -4.52101 1.7136 21.9076 -4.31064 17.7663)
(-30.5032 0.149173 0.740742 391.45 4.10554 138.478)
(-30.1621 0.248689 1.27927 197.876 -3.10091 55.8727)
(-30.8568 0.185875 1.49451 179.726 -6.38874 51.1375)
(-31.3608 -0.121808 1.56221 128.675 -8.24209 35.7796)
(-31.5972 -0.678094 1.55622 85.7523 -8.69476 24.6629)
(-31.3312 -1.54371 1.49575 51.4806 -8.07825 16.8597)
(-30.0474 -2.92903 1.38529 32.1868 -6.57166 14.4083)
(-25.684 -4.75665 1.21944 23.1336 -3.5736 15.7126)
(-31.3533 0.140368 0.520822 391.878 0.942912 141.575)
(-30.9412 0.23181 0.906099 196.889 -2.6312 61.6727)
(-31.6033 0.161429 1.05841 179.687 -4.54139 56.6564)
(-32.0706 -0.159876 1.10233 129.126 -5.68722 39.9397)
(-32.2533 -0.740581 1.09466 86.5007 -6.04831 27.1852)
(-31.8867 -1.64336 1.05197 52.4097 -5.75158 17.9758)
(-30.4173 -3.07682 0.980098 33.348 -4.83502 14.5955)
(-25.693 -4.9213 0.872504 24.2386 -2.70618 15.2461)
(-31.9365 0.132601 0.347227 391.377 -0.30233 142.953)
(-31.4858 0.215692 0.607768 196.281 -2.02411 64.9813)
(-32.1203 0.137606 0.710818 179.686 -3.07555 60.1087)
(-32.5573 -0.193492 0.739531 129.477 -3.72471 42.8208)
(-32.6988 -0.789772 0.733719 87.0707 -3.95796 29.224)
(-32.2625 -1.71595 0.705937 53.1072 -3.82244 19.2314)
(-30.6706 -3.18045 0.660846 34.1884 -3.29209 15.3223)
(-25.7044 -5.0351 0.59211 25.141 -1.88922 15.6725)
(-32.3051 0.127662 0.198247 390.718 -0.511614 143.479)
(-31.8335 0.204298 0.348557 195.899 -1.27467 66.6976)
(-32.4533 0.120143 0.408003 179.682 -1.79456 62.0213)
(-32.8686 -0.217366 0.424376 129.698 -2.11954 44.5243)
(-32.983 -0.823114 0.421047 87.4196 -2.24516 30.5375)
(-32.503 -1.76356 0.405545 53.525 -2.18792 20.1597)
(-30.8354 -3.24731 0.379529 34.6867 -1.91413 15.9884)
(-25.719 -5.10602 0.33852 25.7103 -1.12019 16.2149)
(-32.4766 0.124579 0.0638242 390.308 -0.219922 143.642)
(-31.9945 0.197632 0.112532 195.715 -0.434835 67.4198)
(-32.6041 0.110472 0.131726 179.683 -0.591215 62.8643)
(-33.0075 -0.229787 0.136952 129.811 -0.68946 45.3063)
(-33.1089 -0.839821 0.135889 87.5886 -0.728802 31.1716)
(-32.6092 -1.78821 0.130937 53.7215 -0.713258 20.6411)
(-30.8969 -3.28293 0.121939 34.9217 -0.62938 16.3721)
(-25.6933 -5.13576 0.107237 25.9961 -0.374305 16.5713)
(31.8079 54.7311 -2.75642 248.496 -0.629248 -12.2591)
(-75.6796 25.1104 -4.79281 98.2403 -0.968371 -8.88085)
(-52.4534 33.3573 -5.76378 112.493 -1.00348 -6.15858)
(-53.3749 29.5434 -6.28265 77.057 -0.910205 -4.32115)
(-48.0559 25.879 -6.60227 51.7609 -0.869595 -3.36126)
(-45.3248 20.0894 -6.8379 28.3451 -0.965052 -3.09982)
(-43.735 13.3232 -7.1489 12.9093 -1.21637 -3.40473)
(-50.509 7.23867 -7.95731 0.77889 -1.53091 -4.20823)
(-7.10746 44.2163 -1.76235 50.2633 -0.511494 -10.7885)
(-40.6011 64.3791 -3.25444 30.4064 -0.922273 -9.46228)
(-41.7009 67.1156 -3.86373 31.4367 -1.04571 -7.82666)
(-40.9098 61.9809 -4.13058 21.1017 -0.910816 -6.60561)
(-38.4018 53.6992 -4.2861 12.6144 -0.723214 -5.93149)
(-36.3477 43.0453 -4.45009 4.56889 -0.606873 -5.72599)
(-35.4237 31.2706 -4.79213 -1.36172 -0.605592 -5.86288)
(-42.2163 17.4409 -5.87126 -6.18993 -0.648473 -6.0251)
(-25.5093 40.1384 -1.35313 -82.3305 -0.359713 -9.79703)
(-0.169563 62.5155 -2.70237 -43.2772 -0.787886 -9.42031)
(-5.07199 67.0576 -3.28408 -41.8341 -0.984412 -8.3702)
(-7.1455 62.4382 -3.51807 -31.16 -0.88416 -7.4971)
(-9.23638 54.4837 -3.63127 -23.4367 -0.668634 -7.00266)
(-10.2878 44.2197 -3.76595 -16.9461 -0.475144 -6.85621)
(-10.8452 32.4611 -4.09973 -12.2152 -0.361471 -6.97917)
(-7.76774 17.2597 -5.1762 -6.41828 -0.311345 -7.13724)
(-62.3994 44.2983 -1.25756 -269.108 -0.332765 -8.53218)
(36.0343 23.4981 -2.68834 -110.959 -0.797772 -8.56533)
(11.3629 33.6067 -3.36444 -120.614 -1.02173 -7.66087)
(11.399 30.5209 -3.6513 -83.8888 -0.93847 -6.90975)
(6.28075 27.3442 -3.77837 -58.2851 -0.71282 -6.47551)
(3.87545 22.2813 -3.9134 -35.5007 -0.482671 -6.32553)
(3.04553 16.2073 -4.23858 -19.6504 -0.278292 -6.36859)
(7.66029 7.92206 -5.25054 -8.20575 -0.0664362 -6.57067)
(-5.69475 0.339468 0.177258 -389.325 -43.2883 -126.166)
(-4.77761 0.689891 0.377064 -191.908 8.8078 -28.1541)
(-3.66756 0.84039 0.403536 -182.739 5.22663 -40.3111)
(-2.92076 0.759652 0.387116 -126.384 9.18184 -26.6573)
(-2.42663 0.594779 0.42757 -84.1271 9.05836 -20.7579)
(-1.95973 0.442394 0.574719 -48.5465 8.40092 -15.6966)
(-1.09733 0.220702 0.854784 -24.6436 6.70273 -13.6293)
(1.30797 -0.759127 1.25234 -13.0776 2.75786 -14.3838)
(-6.48965 0.162738 -0.213493 -379.698 -28.8745 -132.014)
(-6.39393 0.378385 -0.31198 -214.815 0.85553 -46.1302)
(-5.94854 0.501548 -0.374895 -183.98 8.99688 -41.1742)
(-5.56062 0.495227 -0.409355 -129.289 13.1166 -30.0345)
(-5.23727 0.44884 -0.37273 -84.6819 14.0741 -23.5074)
(-4.84198 0.438444 -0.24736 -48.657 13.1972 -19.0634)
(-3.97502 0.398366 -0.0361943 -23.988 10.6358 -16.9857)
(-1.26278 -0.429167 0.259284 -13.1581 5.50683 -18.0539)
(-6.99032 0.0806947 -0.261334 -385.27 -15.7634 -143.379)
(-7.11744 0.217658 -0.378953 -214.154 0.328778 -61.4123)
(-6.8888 0.327974 -0.401748 -185.256 6.8708 -52.4637)
(-6.63852 0.385856 -0.389355 -130.545 10.6886 -37.2438)
(-6.33913 0.444042 -0.324291 -85.2899 12.0828 -27.1217)
(-5.87195 0.544636 -0.198774 -48.7711 11.7269 -19.9243)
(-4.88627 0.598321 -0.034748 -23.5591 9.79523 -15.6287)
(-2.27075 -0.0880359 0.131408 -11.7357 5.05922 -13.9192)
(-7.35288 0.0491239 -0.22057 -387.431 -7.92696 -150.316)
(-7.53478 0.144829 -0.310757 -213.058 0.679422 -72.5321)
(-7.40039 0.249878 -0.300127 -185.227 4.98671 -62.2244)
(-7.19748 0.355429 -0.258175 -130.891 7.80395 -44.2405)
(-6.8813 0.490652 -0.18415 -85.5753 9.11639 -31.1428)
(-6.34026 0.670862 -0.0794415 -48.8331 9.13177 -21.37)
(-5.24888 0.785824 0.0344973 -23.1298 7.86399 -14.8583)
(-2.69024 0.184894 0.135646 -10.9371 4.16552 -11.1703)
(-7.61252 0.038474 -0.161074 -387.103 -3.67029 -153.802)
(-7.80855 0.118814 -0.220048 -212.176 0.887754 -79.4016)
(-7.70041 0.22703 -0.192834 -184.756 3.59527 -68.7653)
(-7.51082 0.366014 -0.142018 -130.691 5.4686 -49.3816)
(-7.1682 0.551938 -0.0746755 -85.4634 6.4653 -34.4378)
(-6.56745 0.780995 0.00331809 -48.6144 6.6102 -22.8373)
(-5.41368 0.933175 0.0744152 -22.5972 5.80872 -14.6755)
(-2.89582 0.382613 0.129198 -10.2541 3.11212 -9.61734)
(-7.78462 0.037423 -0.104292 -385.86 -1.51322 -155.378)
(-7.97788 0.115728 -0.137363 -211.445 0.837198 -83.3714)
(-7.86839 0.231079 -0.108212 -184.215 2.46492 -72.7538)
(-7.67016 0.391752 -0.063546 -130.319 3.62461 -52.7048)
(-7.30808 0.607739 -0.012114 -85.1627 4.28685 -36.7367)
(-6.66555 0.863972 0.0401881 -48.2729 4.42754 -24.0256)
(-5.48317 1.03396 0.0811127 -22.0942 3.93534 -14.8221)
(-2.99481 0.512566 0.105221 -9.76873 2.12648 -8.99496)
(-7.88656 0.0395173 -0.0568133 -384.642 -0.523267 -156.01)
(-8.07007 0.120361 -0.072486 -210.896 0.582653 -85.4946)
(-7.95083 0.242114 -0.0517296 -183.772 1.44984 -74.9732)
(-7.75079 0.415473 -0.0225555 -129.991 2.07735 -54.6371)
(-7.37092 0.647784 0.00887016 -84.8745 2.44857 -38.1416)
(-6.70607 0.917733 0.0384695 -47.9718 2.53885 -24.8268)
(-5.50657 1.095 0.0592494 -21.7159 2.26872 -15.0364)
(-3.04309 0.589949 0.0669581 -9.4508 1.23117 -8.81945)
(-7.93107 0.0409803 -0.017771 -383.933 -0.115719 -156.214)
(-8.11062 0.123882 -0.0223158 -210.601 0.207316 -86.4119)
(-7.98834 0.249266 -0.0150504 -183.531 0.479443 -75.9598)
(-7.78421 0.42856 -0.00507535 -129.807 0.677758 -55.5167)
(-7.39628 0.668121 0.0053439 -84.7092 0.796784 -38.8009)
(-6.72081 0.94395 0.0149011 -47.8032 0.827074 -25.2244)
(-5.51199 1.12267 0.0212748 -21.5168 0.740506 -15.1747)
(-3.07136 0.625168 0.0223047 -9.30108 0.402557 -8.80649)
(-54.0331 8.34477 -2.4784 -3.92777 -1.72088 -4.09309)
(-48.9982 7.70115 -0.118064 -2.57511 -1.36881 -0.470452)
(-49.3774 7.5626 -0.665548 -1.48335 -1.02174 -4.23585)
(-49.6135 7.56114 -1.01916 -0.624384 -0.762135 -5.71447)
(-50.2014 7.59739 -1.12994 0.0153558 -0.561004 -6.40074)
(-50.6649 7.63993 -0.955016 0.469632 -0.391541 -6.386)
(-50.9805 7.67524 -0.629154 0.751591 -0.24011 -6.17793)
(-51.1618 7.69342 -0.220117 0.831178 -0.0838492 -6.05085)
(-46.0562 6.13926 -4.69145 -5.21594 -0.443549 -11.1549)
(-41.698 5.11413 -3.61498 -4.55955 -0.36355 -10.5195)
(-41.7078 4.79882 -3.46382 -3.80229 -0.238591 -10.5423)
(-42.5904 4.68114 -3.48867 -3.16841 -0.161282 -10.284)
(-43.5349 4.6328 -3.17433 -2.69832 -0.115067 -10.1228)
(-44.2429 4.61412 -2.4905 -2.36586 -0.0799608 -9.93972)
(-44.6893 4.61131 -1.57336 -2.14828 -0.0479133 -9.78458)
(-44.8887 4.61897 -0.536952 -2.02586 -0.0159631 -9.68665)
(-5.8597 5.302 -4.72631 -6.1677 0.141169 -5.65559)
(-7.98487 4.16289 -4.96159 -5.68952 0.0949612 -7.09047)
(-9.51383 3.75173 -4.80329 -5.11366 0.100252 -5.24179)
(-10.9647 3.56387 -4.44152 -4.63908 0.0896403 -3.67928)
(-12.0412 3.46474 -3.79022 -4.29119 0.0685033 -2.73029)
(-12.7593 3.4091 -2.8688 -4.04811 0.0471813 -2.26738)
(-13.1895 3.37882 -1.77845 -3.89194 0.0287111 -2.0753)
(-13.3866 3.36429 -0.601905 -3.80677 0.0101928 -2.00864)
(9.21958 5.19813 -3.37224 -5.69221 0.537628 -7.85994)
(5.31297 4.05904 -3.21497 -5.32277 0.324543 -10.742)
(4.11753 3.60507 -3.12786 -4.96916 0.234674 -6.53657)
(2.99733 3.37642 -2.72613 -4.65286 0.182127 -3.74873)
(2.30143 3.24489 -2.23375 -4.4127 0.135787 -2.12301)
(1.82193 3.1655 -1.64353 -4.24568 0.0936607 -1.45492)
(1.53009 3.11919 -1.00418 -4.14025 0.0544142 -1.25479)
(1.38711 3.09524 -0.338149 -4.09258 0.0176474 -1.22843)
)
;
    }
    symmetry
    {
        type            symmetryPlane;
    }
    bottom
    {
        type            calculated;
        value           nonuniform List<symmTensor> 
32
(
(194.663 73.2405 0 291.994 80.2565 194.663)
(190.376 81.105 0 285.564 39.4777 190.376)
(195.266 84.4542 0 292.9 18.7565 195.266)
(197.978 85.3746 0 296.966 8.2441 197.978)
(198.984 85.4083 0 298.476 3.12681 198.984)
(199.215 85.1956 0 298.823 0.856301 199.215)
(199.167 84.9849 0 298.75 0.0563899 199.167)
(199.09 84.8639 0 298.635 -0.048945 199.09)
(36.0202 32.7867 0 54.0304 24.4858 36.0202)
(37.2382 41.6856 0 55.8572 12.5929 37.2382)
(39.6255 42.7174 0 59.4382 5.83682 39.6255)
(40.7162 42.0131 0 61.0743 2.32297 40.7162)
(41.241 41.0962 0 61.8616 0.654934 41.241)
(41.5073 40.355 0 62.2609 -0.013781 41.5073)
(41.6417 39.8671 0 62.4625 -0.166753 41.6417)
(41.6985 39.6286 0 62.5477 -0.0788559 41.6985)
(-54.3852 29.0314 0 -81.5778 -27.5588 -54.3852)
(-49.8825 37.9851 0 -74.8237 -15.8986 -49.8825)
(-50.5698 38.564 0 -75.8547 -9.19609 -50.5698)
(-50.9007 37.4693 0 -76.3511 -5.2475 -50.9007)
(-50.907 36.2798 0 -76.3605 -2.91805 -50.907)
(-50.7666 35.3576 0 -76.1499 -1.55091 -50.7666)
(-50.6096 34.7588 0 -75.9144 -0.740029 -50.6096)
(-50.5134 34.4679 0 -75.7701 -0.217035 -50.5134)
(-199.171 61.1545 0 -298.756 -86.5717 -199.171)
(-190.881 68.0158 0 -286.321 -46.0042 -190.881)
(-195.647 69.8475 0 -293.471 -24.1739 -195.647)
(-197.832 69.6222 0 -296.748 -12.3032 -197.832)
(-198.222 68.8425 0 -297.333 -5.96265 -198.222)
(-197.887 68.0738 0 -296.831 -2.68852 -197.887)
(-197.422 67.5137 0 -296.133 -1.07447 -197.422)
(-197.128 67.2255 0 -295.692 -0.276504 -197.128)
)
;
    }
}


// ************************************************************************* //
