/*--------------------------------*- C++ -*----------------------------------*\
| =========                 |                                                 |
| \\      /  F ield         | foam-extend: Open Source CFD                    |
|  \\    /   O peration     | Version:     3.1                                |
|   \\  /    A nd           | Web:         http://www.extend-project.de       |
|    \\/     M anipulation  |                                                 |
\*---------------------------------------------------------------------------*/
FoamFile
{
    version     2.0;
    format      ascii;
    class       volVectorField;
    location    "2.3";
    object      U;
}
// * * * * * * * * * * * * * * * * * * * * * * * * * * * * * * * * * * * * * //

dimensions      [0 1 -1 0 0 0 0];

internalField   nonuniform List<vector> 
256
(
(0.000169801 0.000145613 0.000271736)
(4.3327e-05 3.24948e-05 7.42462e-05)
(4.03673e-05 -4.71096e-05 -0.000116516)
(0.000163502 -0.0001744 -0.000336468)
(0.000794005 0.000598153 0.00032683)
(0.000656541 0.00015603 0.000105894)
(0.000642954 -0.0002208 -0.000164424)
(0.000746802 -0.000684632 -0.00038932)
(0.001657 0.000921011 0.000339471)
(0.00152371 0.000244049 0.000105096)
(0.00150125 -0.000373953 -0.000151657)
(0.00158178 -0.0010747 -0.000388116)
(0.00272923 0.00115685 0.000305754)
(0.00261234 0.000291737 9.59224e-05)
(0.00258124 -0.000517177 -0.00012898)
(0.00262617 -0.00140404 -0.000340085)
(0.00393505 0.00129786 0.000255094)
(0.00383242 0.000301711 7.98185e-05)
(0.0037938 -0.000643701 -0.000103863)
(0.00380898 -0.00165717 -0.000280582)
(0.0052025 0.00136108 0.000202332)
(0.0051128 0.0002829 6.17463e-05)
(0.00506821 -0.00075237 -8.25741e-05)
(0.00505921 -0.00184303 -0.000225021)
(0.0064711 0.00136537 0.000158862)
(0.00639177 0.000244644 4.52918e-05)
(0.00634319 -0.000841851 -6.68459e-05)
(0.00631717 -0.00197107 -0.000182588)
(0.00770065 0.00133301 0.000130084)
(0.0076243 0.000196058 3.19001e-05)
(0.0075734 -0.000913346 -5.55995e-05)
(0.00754118 -0.00205724 -0.000156288)
(0.00021857 0.000140498 0.000155093)
(0.00010367 2.93467e-05 4.27216e-05)
(0.000102098 -4.20184e-05 -7.32302e-05)
(0.000213716 -0.000161525 -0.00020295)
(0.000930049 0.000579528 0.000216901)
(0.000770506 0.000144314 6.713e-05)
(0.000760514 -0.000216292 -0.000113736)
(0.000892974 -0.000673771 -0.000268713)
(0.00182175 0.000913353 0.000242488)
(0.00168329 0.000233387 7.31028e-05)
(0.00166226 -0.00038282 -0.000113931)
(0.00175 -0.00108631 -0.000286291)
(0.00289942 0.00115391 0.000233598)
(0.0027785 0.000283385 7.10492e-05)
(0.00274743 -0.000529815 -0.000102146)
(0.00279626 -0.00142216 -0.000266754)
(0.00409471 0.00130018 0.000208346)
(0.00399028 0.000297046 6.31206e-05)
(0.00395073 -0.000656444 -8.72097e-05)
(0.00396594 -0.00167681 -0.000233984)
(0.00534593 0.00136737 0.000178647)
(0.00525551 0.000281819 5.27043e-05)
(0.00520972 -0.000762769 -7.40219e-05)
(0.00519929 -0.00186058 -0.000201411)
(0.00659988 0.00137518 0.000152818)
(0.00652056 0.000246581 4.25839e-05)
(0.00647101 -0.000849786 -6.43347e-05)
(0.00644328 -0.00198644 -0.000176058)
(0.00782299 0.00134682 0.000133904)
(0.00774663 0.000200752 3.40868e-05)
(0.00769517 -0.000920508 -5.78264e-05)
(0.00766199 -0.00207287 -0.000159342)
(0.000244874 0.000148659 9.33844e-05)
(0.000124885 3.06676e-05 2.5404e-05)
(0.000123922 -4.36806e-05 -4.7473e-05)
(0.000241578 -0.000170005 -0.00012684)
(0.0010104 0.000581521 0.000142241)
(0.00083704 0.000141089 4.22998e-05)
(0.000829287 -0.000216452 -7.73595e-05)
(0.000979216 -0.000680073 -0.000181774)
(0.00193381 0.000910739 0.000168824)
(0.00178503 0.000228317 4.93238e-05)
(0.00176573 -0.000385979 -8.26724e-05)
(0.00186681 -0.00109262 -0.000205179)
(0.00302665 0.00114772 0.000172981)
(0.00289948 0.000277267 5.09115e-05)
(0.00286934 -0.000534412 -7.85286e-05)
(0.00292623 -0.001427 -0.000202811)
(0.00422596 0.00129371 0.000164923)
(0.0041182 0.000291514 4.83235e-05)
(0.00407891 -0.000661459 -7.12876e-05)
(0.00409827 -0.00168115 -0.000189466)
(0.00547507 0.00136349 0.000151877)
(0.00538338 0.000278095 4.34421e-05)
(0.00533734 -0.000767625 -6.44261e-05)
(0.0053281 -0.00186549 -0.000174122)
(0.00672599 0.00137649 0.000139101)
(0.00664668 0.000245431 3.79726e-05)
(0.00659661 -0.000854661 -5.93534e-05)
(0.00656812 -0.00199384 -0.00016162)
(0.00795003 0.00135483 0.00012775)
(0.00787449 0.000202309 3.25664e-05)
(0.00782245 -0.000926198 -5.59849e-05)
(0.00778747 -0.00208472 -0.000152403)
(0.000259696 0.0001548 5.80851e-05)
(0.000134081 3.18375e-05 1.54561e-05)
(0.000133322 -4.50884e-05 -3.11003e-05)
(0.000257138 -0.000177116 -8.06346e-05)
(0.00106048 0.000588602 9.38521e-05)
(0.0008778 0.000141128 2.69021e-05)
(0.000871107 -0.000217699 -5.27832e-05)
(0.00103201 -0.000689286 -0.000122959)
(0.00200989 0.000913731 0.000116671)
(0.00185376 0.0002269 3.29983e-05)
(0.00183558 -0.000387889 -5.93419e-05)
(0.00194585 -0.00109935 -0.000145448)
(0.00312033 0.00114662 0.000125772)
(0.00298833 0.000274395 3.58455e-05)
(0.00295904 -0.000536772 -5.92845e-05)
(0.00302235 -0.00143126 -0.000151132)
(0.00432987 0.00129055 0.000126752)
(0.00421942 0.000288079 3.60017e-05)
(0.00418061 -0.000664145 -5.6682e-05)
(0.00420379 -0.00168423 -0.000148873)
(0.00558418 0.00136105 0.000123443)
(0.00549137 0.000275252 3.43759e-05)
(0.00544539 -0.000770664 -5.38279e-05)
(0.0054376 -0.00186907 -0.000144015)
(0.0068383 0.00137733 0.000118663)
(0.00675891 0.000244102 3.17898e-05)
(0.0067086 -0.000858281 -5.16988e-05)
(0.00667987 -0.00199973 -0.000139511)
(0.00806646 0.00136033 0.000112345)
(0.00799153 0.000202845 2.83374e-05)
(0.00793901 -0.000930777 -5.02345e-05)
(0.00790256 -0.00209416 -0.000135235)
(0.000268771 0.000158981 3.66104e-05)
(0.000138969 3.26853e-05 9.50743e-06)
(0.000138246 -4.60818e-05 -2.02524e-05)
(0.000266516 -0.000182049 -5.13391e-05)
(0.00109298 0.000595904 6.16374e-05)
(0.000903884 0.00014223 1.70785e-05)
(0.000897612 -0.00021902 -3.56739e-05)
(0.00106559 -0.000697555 -8.2347e-05)
(0.00206216 0.000919442 7.93767e-05)
(0.00190098 0.000227403 2.17374e-05)
(0.0018833 -0.000389544 -4.17483e-05)
(0.00199934 -0.00110661 -0.000101111)
(0.00318842 0.00114958 8.89958e-05)
(0.00305296 0.000273837 2.45859e-05)
(0.00302405 -0.000538604 -4.34217e-05)
(0.00309144 -0.00143676 -0.000109268)
(0.00440934 0.00129149 9.35517e-05)
(0.00429684 0.000286798 2.58228e-05)
(0.00425824 -0.000666197 -4.31997e-05)
(0.00428382 -0.00168858 -0.000112066)
(0.00567144 0.00136171 9.49048e-05)
(0.00557764 0.000273977 2.58099e-05)
(0.00553164 -0.000773071 -4.25138e-05)
(0.00552483 -0.00187349 -0.000112505)
(0.00693118 0.00137956 9.43046e-05)
(0.00685153 0.000243536 2.48218e-05)
(0.00680103 -0.000861238 -4.19946e-05)
(0.00677216 -0.00200552 -0.000112226)
(0.00816446 0.00136527 9.10277e-05)
(0.0080897 0.000203351 2.26224e-05)
(0.0080368 -0.000934474 -4.15462e-05)
(0.00799942 -0.00210219 -0.000110751)
(0.000274543 0.000161765 2.25038e-05)
(0.000141891 3.32653e-05 5.72062e-06)
(0.00014115 -4.67572e-05 -1.26775e-05)
(0.000272395 -0.000185322 -3.16414e-05)
(0.00111422 0.000601954 3.89208e-05)
(0.000920782 0.000143473 1.04759e-05)
(0.000914636 -0.000220159 -2.30344e-05)
(0.00108716 -0.000704017 -5.2751e-05)
(0.00209745 0.000925375 5.14156e-05)
(0.00193287 0.000228584 1.36787e-05)
(0.00191532 -0.000391002 -2.7783e-05)
(0.00203492 -0.00111316 -6.66105e-05)
(0.00323611 0.00115408 5.93024e-05)
(0.00309824 0.000274428 1.59398e-05)
(0.00306939 -0.000540197 -2.97655e-05)
(0.00313921 -0.00144245 -7.40774e-05)
(0.00446692 0.00129459 6.42218e-05)
(0.0043529 0.000286844 1.73036e-05)
(0.00431422 -0.000667923 -3.0452e-05)
(0.0043411 -0.00169344 -7.81556e-05)
(0.00573652 0.00136427 6.69944e-05)
(0.00564191 0.000273849 1.7868e-05)
(0.00559579 -0.000775046 -3.06922e-05)
(0.00558951 -0.0018782 -8.04564e-05)
(0.00700197 0.00138271 6.80379e-05)
(0.00692199 0.000243674 1.7643e-05)
(0.00687129 -0.00086361 -3.08659e-05)
(0.00684233 -0.00201092 -8.18161e-05)
(0.00824003 0.00136982 6.64526e-05)
(0.00816517 0.000204042 1.62848e-05)
(0.00811198 -0.000937359 -3.0851e-05)
(0.00807409 -0.00210892 -8.16303e-05)
(0.000278037 0.000163485 1.22712e-05)
(0.000143618 3.36274e-05 3.07172e-06)
(0.000142848 -4.71802e-05 -6.97562e-06)
(0.000275898 -0.000187325 -1.72425e-05)
(0.0011272 0.000606183 2.15601e-05)
(0.000931081 0.000144446 5.67963e-06)
(0.000924953 -0.000220988 -1.2958e-05)
(0.0011002 -0.000708403 -2.95013e-05)
(0.00211947 0.000929999 2.89536e-05)
(0.00195274 0.000229694 7.53468e-06)
(0.00193518 -0.000392101 -1.59478e-05)
(0.00205685 -0.001118 -3.79543e-05)
(0.0032665 0.00115812 3.40099e-05)
(0.00312708 0.000275277 8.95614e-06)
(0.00309812 -0.000541402 -1.74153e-05)
(0.00316921 -0.00144697 -4.29982e-05)
(0.00450439 0.00129781 3.75322e-05)
(0.00438936 0.000287369 9.93798e-06)
(0.00435055 -0.000669211 -1.81274e-05)
(0.00437809 -0.0016975 -4.61734e-05)
(0.00577966 0.00136705 3.98349e-05)
(0.00568448 0.000274208 1.048e-05)
(0.00563823 -0.000776487 -1.85351e-05)
(0.00563222 -0.00188211 -4.82723e-05)
(0.00704953 0.00138564 4.0992e-05)
(0.00696927 0.000244102 1.05189e-05)
(0.00691844 -0.000865307 -1.88361e-05)
(0.00688947 -0.00201517 -4.9662e-05)
(0.00829122 0.00137341 4.03068e-05)
(0.00821619 0.000204719 9.77921e-06)
(0.00816287 -0.000939395 -1.89249e-05)
(0.00812487 -0.00211393 -4.98508e-05)
(0.000279694 0.000164312 3.90541e-06)
(0.000144428 3.38017e-05 9.69653e-07)
(0.000143635 -4.73851e-05 -2.22847e-06)
(0.000277527 -0.000188281 -5.48235e-06)
(0.00113338 0.000608345 6.91082e-06)
(0.000935975 0.000144969 1.79934e-06)
(0.000929824 -0.000221422 -4.18755e-06)
(0.00110632 -0.000710614 -9.5028e-06)
(0.00213006 0.00093249 9.35588e-06)
(0.00196229 0.000230336 2.40545e-06)
(0.00194467 -0.000392687 -5.20548e-06)
(0.00206724 -0.00112053 -1.23397e-05)
(0.00328131 0.00116042 1.10883e-05)
(0.00314112 0.000275832 2.88832e-06)
(0.00311208 -0.000542048 -5.73649e-06)
(0.00318373 -0.00144942 -1.4105e-05)
(0.00452287 0.00129976 1.23488e-05)
(0.00440734 0.00028778 3.24048e-06)
(0.00436844 -0.000669898 -6.01968e-06)
(0.00439628 -0.00169977 -1.52744e-05)
(0.00580113 0.00136876 1.32148e-05)
(0.00570567 0.000274526 3.45256e-06)
(0.00565936 -0.00077725 -6.19676e-06)
(0.00565346 -0.0018843 -1.60869e-05)
(0.00707338 0.00138736 1.36832e-05)
(0.00699298 0.000244427 3.49279e-06)
(0.00694209 -0.000866195 -6.32771e-06)
(0.00691314 -0.0020175 -1.66411e-05)
(0.008317 0.00137537 1.34956e-05)
(0.0082419 0.000205135 3.25816e-06)
(0.00818854 -0.000940454 -6.37083e-06)
(0.00815057 -0.00211663 -1.6749e-05)
)
;

boundaryField
{
    interface
    {
        type            calculated;
        value           nonuniform List<vector> 
192
(
(0.000421588 0.000437226 0.000302065)
(0.000915855 0.000919715 0.000403536)
(0.00178941 0.00137581 0.000430093)
(0.00283412 0.00169497 0.000393748)
(0.00401913 0.00189184 0.000333787)
(0.0052663 0.00197802 0.000269484)
(0.00652007 0.00198086 0.000216609)
(0.00774401 0.00193589 0.000183551)
(0.000474373 0.000481417 0.000174548)
(0.00107029 0.000924548 0.000269162)
(0.00195343 0.0013725 0.000309819)
(0.0030043 0.00168903 0.000304913)
(0.00417701 0.00188633 0.000278027)
(0.00540827 0.00197619 0.00024386)
(0.00664801 0.00198523 0.000214005)
(0.00786618 0.00194968 0.00019421)
(0.00052024 0.000520781 0.000105545)
(0.00115883 0.00094507 0.000175828)
(0.00207171 0.00137811 0.000215404)
(0.00313466 0.00168531 0.000227107)
(0.00430883 0.00187841 0.000221965)
(0.00553648 0.00196979 0.000209314)
(0.00677248 0.00198513 0.00019636)
(0.00799066 0.00195967 0.000186114)
(0.000549588 0.000547016 6.57123e-05)
(0.00121558 0.000965017 0.000115793)
(0.00215334 0.00139035 0.000148799)
(0.00323164 0.0016892 0.000165552)
(0.00441414 0.00187741 0.000171342)
(0.0056456 0.00196816 0.000170879)
(0.00688401 0.00198687 0.000168032)
(0.00810554 0.0019676 0.000163888)
(0.000568455 0.000564341 4.1474e-05)
(0.00125299 0.000981487 7.60988e-05)
(0.00220975 0.00140391 0.000101369)
(0.00330236 0.00169769 0.000117429)
(0.00449495 0.00188198 0.000126814)
(0.00573319 0.00197125 0.000131649)
(0.00697658 0.00199112 0.000133667)
(0.00820273 0.00197507 0.000132814)
(0.000580622 0.000575711 2.55388e-05)
(0.0012776 0.000993862 4.81561e-05)
(0.00224789 0.00141579 6.58165e-05)
(0.00335194 0.00170696 7.84396e-05)
(0.00455357 0.00188868 8.72349e-05)
(0.00579865 0.0019765 9.30451e-05)
(0.00704732 0.00199647 9.64778e-05)
(0.008278 0.00198188 9.70026e-05)
(0.000587998 0.000582675 1.39455e-05)
(0.00129266 0.00100209 2.67295e-05)
(0.00227171 0.00142437 3.71491e-05)
(0.00338354 0.00171437 4.50743e-05)
(0.00459174 0.00189464 5.10549e-05)
(0.00584208 0.00198144 5.53659e-05)
(0.00709492 0.00200116 5.81396e-05)
(0.00832911 0.00198715 5.88669e-05)
(0.000591494 0.000585998 4.44211e-06)
(0.00129984 0.00100619 8.57763e-06)
(0.00228316 0.00142883 1.20193e-05)
(0.00339893 0.00171842 1.47111e-05)
(0.00461056 0.00189805 1.68106e-05)
(0.00586371 0.00198432 1.83736e-05)
(0.0071188 0.00200385 1.94081e-05)
(0.00835487 0.00199001 1.97153e-05)
(0.000125951 0.000310586 0.000419289)
(0.000690943 0.000605556 0.000361114)
(0.0015485 0.000923504 0.000388923)
(0.00262569 0.0011385 0.000338664)
(0.00384678 0.00127358 0.000277366)
(0.00513085 0.00133651 0.000213765)
(0.0064132 0.00134568 0.00016223)
(0.00765135 0.00132071 0.000127623)
(-2.51315e-05 8.94178e-05 0.000109301)
(0.000517966 0.000162261 0.000119293)
(0.00139085 0.000251334 0.000118496)
(0.00249384 0.000292061 0.000105479)
(0.00373627 0.000298133 8.64862e-05)
(0.00503861 0.000277005 6.56304e-05)
(0.0063358 0.000238337 4.70076e-05)
(0.0075809 0.000191118 3.0206e-05)
(-3.10194e-05 -0.000131514 -0.000163919)
(0.000504685 -0.000210153 -0.000172159)
(0.00136939 -0.00035946 -0.000164018)
(0.00246463 -0.000496209 -0.000138013)
(0.00369959 -0.000625364 -0.000110622)
(0.00499564 -0.000738797 -8.66717e-05)
(0.00628834 -0.000833525 -6.87404e-05)
(0.00753023 -0.000909431 -5.42614e-05)
(0.000110667 -0.000390656 -0.000487716)
(0.000646032 -0.000678417 -0.000417491)
(0.00147535 -0.00105941 -0.00043691)
(0.00252802 -0.00136749 -0.000372399)
(0.00372683 -0.00162118 -0.000303104)
(0.00499313 -0.00181355 -0.000237042)
(0.00626313 -0.0019516 -0.00018657)
(0.0074929 -0.00204732 -0.000154545)
(0.000384157 -0.000510328 -0.00036687)
(0.000838157 -0.00102553 -0.000466377)
(0.00166918 -0.00155892 -0.000481497)
(0.0026748 -0.00196517 -0.000429698)
(0.00382941 -0.0022679 -0.000360148)
(0.00505671 -0.00247026 -0.000292592)
(0.00630055 -0.0025927 -0.000241018)
(0.00752128 -0.00266352 -0.000211424)
(0.000431007 -0.000554043 -0.00022376)
(0.00100336 -0.00104436 -0.000323707)
(0.00183766 -0.00157318 -0.000356429)
(0.00284669 -0.0019796 -0.000339285)
(0.00398653 -0.00227922 -0.000303836)
(0.00519712 -0.00248012 -0.000266373)
(0.00642713 -0.00260396 -0.000237374)
(0.00764224 -0.00268078 -0.000220706)
(0.000474814 -0.000601658 -0.000139914)
(0.00109684 -0.00107192 -0.000217355)
(0.00196131 -0.00158749 -0.000254127)
(0.00298113 -0.00198652 -0.000258516)
(0.00412101 -0.00228176 -0.000247265)
(0.00532626 -0.00248257 -0.000231881)
(0.00655089 -0.0026103 -0.000219286)
(0.00776523 -0.0026948 -0.000211599)
(0.000503125 -0.000633851 -8.8803e-05)
(0.00115569 -0.00109573 -0.000146186)
(0.00204596 -0.00160403 -0.000179285)
(0.00308111 -0.00199584 -0.000192294)
(0.00422859 -0.00228693 -0.000194356)
(0.00543613 -0.00248695 -0.000192027)
(0.00666193 -0.00261726 -0.000189394)
(0.00787841 -0.0027067 -0.000187507)
(0.000521376 -0.000654742 -5.65299e-05)
(0.00119378 -0.00111423 -9.75997e-05)
(0.00210338 -0.0016197 -0.000124194)
(0.00315278 -0.00200708 -0.000138619)
(0.00430994 -0.00229497 -0.000145991)
(0.0055236 -0.00249384 -0.000149759)
(0.00675368 -0.00262513 -0.000152083)
(0.00797404 -0.00271719 -0.00015316)
(0.00053314 -0.000668108 -3.48828e-05)
(0.00121844 -0.00112761 -6.24595e-05)
(0.00214159 -0.00163253 -8.16462e-05)
(0.00320222 -0.00201768 -9.37442e-05)
(0.00436795 -0.00230355 -0.000101581)
(0.0055884 -0.00250136 -0.000106885)
(0.00682351 -0.00263281 -0.000110689)
(0.00804803 -0.00272617 -0.00011273)
(0.000540222 -0.0006761 -1.90288e-05)
(0.00123342 -0.00113628 -3.49067e-05)
(0.00216515 -0.0016415 -4.6445e-05)
(0.00323316 -0.00202569 -5.43151e-05)
(0.00440536 -0.00231049 -5.9918e-05)
(0.00563116 -0.00250756 -6.40549e-05)
(0.00687045 -0.00263891 -6.71403e-05)
(0.00809855 -0.00273293 -6.88442e-05)
(0.000543542 -0.00067986 -6.05069e-06)
(0.00124046 -0.00114054 -1.1232e-05)
(0.00217627 -0.00164606 -1.50821e-05)
(0.00324812 -0.00202995 -1.77993e-05)
(0.00442375 -0.0023143 -1.98085e-05)
(0.00565243 -0.00251102 -2.13363e-05)
(0.00689403 -0.00264228 -2.2492e-05)
(0.00812417 -0.00273659 -2.31381e-05)
(0.00829736 0.0013121 0.000121733)
(0.0084235 0.0013276 0.000126518)
(0.00855432 0.00133861 0.00012124)
(0.00867417 0.00134623 0.000106781)
(0.00877514 0.00135253 8.62986e-05)
(0.00885315 0.00135781 6.27635e-05)
(0.00890609 0.00136174 3.79456e-05)
(0.00893279 0.00136382 1.26836e-05)
(0.00819776 0.000176237 2.8814e-05)
(0.00832692 0.000181591 3.10771e-05)
(0.00845986 0.000183828 2.98611e-05)
(0.00858069 0.000185052 2.59918e-05)
(0.0086818 0.000186061 2.06286e-05)
(0.00875956 0.000187043 1.47365e-05)
(0.00881221 0.000187862 8.79401e-06)
(0.00883877 0.000188332 2.92007e-06)
(0.00814494 -0.00094501 -5.23017e-05)
(0.0082735 -0.000952845 -5.58993e-05)
(0.00840567 -0.000959209 -5.48608e-05)
(0.00852585 -0.000964372 -4.95756e-05)
(0.00862646 -0.000968479 -4.10875e-05)
(0.00870387 -0.000971628 -3.04936e-05)
(0.00875636 -0.000973828 -1.86767e-05)
(0.00878288 -0.000974967 -6.28089e-06)
(0.00813388 -0.00209332 -0.00014836)
(0.00825906 -0.00210991 -0.000153328)
(0.00838804 -0.00212435 -0.000147813)
(0.00850617 -0.00213568 -0.000131713)
(0.00860566 -0.00214495 -0.000107885)
(0.00868255 -0.00215239 -7.93599e-05)
(0.00873498 -0.00215783 -4.83422e-05)
(0.00876158 -0.00216072 -1.62168e-05)
)
;
    }
    symmetry
    {
        type            symmetryPlane;
    }
    bottom
    {
        type            calculated;
        value           uniform (0 0 0);
    }
}


// ************************************************************************* //
