/*--------------------------------*- C++ -*----------------------------------*\
| =========                 |                                                 |
| \\      /  F ield         | foam-extend: Open Source CFD                    |
|  \\    /   O peration     | Version:     3.1                                |
|   \\  /    A nd           | Web:         http://www.extend-project.de       |
|    \\/     M anipulation  |                                                 |
\*---------------------------------------------------------------------------*/
FoamFile
{
    version     2.0;
    format      ascii;
    class       volVectorField;
    location    "0.6";
    object      D;
}
// * * * * * * * * * * * * * * * * * * * * * * * * * * * * * * * * * * * * * //

dimensions      [0 1 0 0 0 0 0];

internalField   nonuniform List<vector> 
256
(
(0.00060392 0.00020614 0.000675808)
(0.000279277 -2.674e-05 0.000273008)
(0.000210592 -0.000166468 -9.83648e-05)
(0.000372863 -0.000416749 -0.000537247)
(0.00216151 0.0010349 0.000788479)
(0.00179015 0.000136789 0.000466234)
(0.00168207 -0.000573812 1.3643e-05)
(0.00181846 -0.00148922 -0.000347764)
(0.00402426 0.00152186 0.000854097)
(0.00366527 0.000214842 0.000538242)
(0.00353598 -0.000943276 0.000166244)
(0.00362224 -0.00228739 -0.00016146)
(0.00613669 0.00183181 0.000836003)
(0.00582478 0.000213625 0.000586976)
(0.00568379 -0.00128102 0.000300372)
(0.00569832 -0.00293527 4.80504e-05)
(0.00837857 0.00195938 0.000797206)
(0.0081064 0.000142336 0.00061588)
(0.00795691 -0.00157666 0.000412936)
(0.00791439 -0.00342238 0.000231974)
(0.0106465 0.00195509 0.000760162)
(0.0104076 2.45222e-05 0.000636951)
(0.0102517 -0.00183127 0.000502028)
(0.0101652 -0.00378124 0.000379768)
(0.0128659 0.00186091 0.000740583)
(0.0126514 -0.000120563 0.000657482)
(0.0124916 -0.00204724 0.000572095)
(0.0123761 -0.0040409 0.000489884)
(0.0149993 0.00171893 0.000745106)
(0.0147931 -0.000277062 0.00068198)
(0.0146317 -0.00223163 0.000631938)
(0.014507 -0.00423682 0.000569173)
(0.00064992 0.000184265 0.000367358)
(0.000354192 -4.94198e-05 0.000157299)
(0.000300163 -0.000181753 -5.86845e-05)
(0.000466434 -0.000420732 -0.000301185)
(0.00234875 0.000951597 0.000532263)
(0.00192767 6.34735e-05 0.00031751)
(0.00182003 -0.000628785 2.80681e-05)
(0.00200098 -0.0015358 -0.000209989)
(0.00421702 0.00145851 0.000630875)
(0.00385162 0.000141552 0.000409758)
(0.00372042 -0.00102271 0.000147334)
(0.00380682 -0.00237438 -8.39413e-05)
(0.00631522 0.00177388 0.000661866)
(0.00599791 0.000144526 0.000472112)
(0.00585329 -0.00136152 0.000257459)
(0.00586382 -0.00302611 6.49556e-05)
(0.00852614 0.00191043 0.000663736)
(0.00825306 8.15046e-05 0.000513992)
(0.00809943 -0.00165146 0.000350852)
(0.00804885 -0.00350846 0.00020141)
(0.0107624 0.00191183 0.000658592)
(0.0105244 -2.935e-05 0.000544979)
(0.0103651 -0.0018982 0.000426046)
(0.0102708 -0.0038586 0.000313602)
(0.0129573 0.00182125 0.000659924)
(0.0127449 -0.00016985 0.00057242)
(0.012583 -0.00210812 0.000486329)
(0.0124616 -0.00411145 0.00040001)
(0.0150797 0.00168206 0.00067414)
(0.0148754 -0.0003234 0.000601678)
(0.014713 -0.00228993 0.000537896)
(0.0145851 -0.00430492 0.000466173)
(0.000677683 0.000193125 0.000211871)
(0.000374552 -5.0397e-05 9.65016e-05)
(0.00032535 -0.000188736 -3.05474e-05)
(0.000509464 -0.000437682 -0.000168479)
(0.00244646 0.000920412 0.000356197)
(0.00199777 3.13662e-05 0.000218121)
(0.00189214 -0.000652615 3.72209e-05)
(0.00210393 -0.00156181 -0.000114474)
(0.00434518 0.00140955 0.000455257)
(0.00395831 9.48711e-05 0.000305143)
(0.00382562 -0.00106313 0.000128112)
(0.00392988 -0.00241211 -2.93194e-05)
(0.00644814 0.00171536 0.000508532)
(0.00611772 9.11982e-05 0.000369621)
(0.00597048 -0.00140922 0.000215069)
(0.00598879 -0.00306829 7.40137e-05)
(0.00865144 0.00185127 0.000536343)
(0.00837104 2.74107e-05 0.000417002)
(0.00821466 -0.00170175 0.000290285)
(0.0081662 -0.00355365 0.00017125)
(0.0108751 0.00185659 0.00055333)
(0.0106341 -8.14527e-05 0.000453438)
(0.0104726 -0.00194893 0.000352247)
(0.0103774 -0.00390645 0.000253523)
(0.0130594 0.00177272 0.000569635)
(0.0128469 -0.000218979 0.000484577)
(0.0126837 -0.00215907 0.00040304)
(0.01256 -0.00416334 0.000319234)
(0.0151783 0.00164137 0.000590282)
(0.0149758 -0.000369465 0.000514805)
(0.0148126 -0.00234167 0.000446817)
(0.0146816 -0.0043623 0.000372251)
(0.000692636 0.000199613 0.000127153)
(0.000381029 -5.01912e-05 6.15643e-05)
(0.000333438 -0.000192423 -1.3853e-05)
(0.000529784 -0.000449215 -9.37429e-05)
(0.00250088 0.000909443 0.000239868)
(0.00203586 1.60906e-05 0.000151821)
(0.00193172 -0.000665104 3.84433e-05)
(0.0021625 -0.00157935 -5.75452e-05)
(0.00442572 0.00138077 0.000325087)
(0.00402434 6.66883e-05 0.00022458)
(0.00389123 -0.00108626 0.000106695)
(0.004009 -0.00243429 1.29743e-06)
(0.00654207 0.00167416 0.000381654)
(0.0062014 5.41874e-05 0.000282692)
(0.00605282 -0.00143993 0.0001735)
(0.0060788 -0.00309478 7.27648e-05)
(0.00874975 0.0018044 0.000419664)
(0.00846309 -1.42066e-05 0.000328232)
(0.00830518 -0.00173743 0.000232482)
(0.00826015 -0.0035844 0.000141108)
(0.0109728 0.00180955 0.000447207)
(0.0107288 -0.000124408 0.00036455)
(0.010566 -0.0019879 0.000282104)
(0.0104715 -0.0039419 0.000200324)
(0.0131555 0.00172938 0.000470709)
(0.0129424 -0.000261221 0.000395242)
(0.0127783 -0.00220043 0.000323556)
(0.0126535 -0.00420414 0.000249182)
(0.0152753 0.00160352 0.000493362)
(0.0150738 -0.000409981 0.000423225)
(0.01491 -0.00238496 0.00035946)
(0.0147768 -0.00440863 0.000290248)
(0.000701168 0.000203488 7.79835e-05)
(0.000383645 -5.00142e-05 3.98849e-05)
(0.000336717 -0.000194655 -4.97781e-06)
(0.000540733 -0.000456497 -5.17282e-05)
(0.00253336 0.00090595 0.00016056)
(0.00205819 8.33405e-06 0.000104866)
(0.00195493 -0.000672621 3.40393e-05)
(0.00219743 -0.00159207 -2.62679e-05)
(0.00447755 0.00136591 0.000227423)
(0.00406708 5.0054e-05 0.000161104)
(0.00393394 -0.00110091 8.379e-05)
(0.00406056 -0.00245071 1.43594e-05)
(0.00660783 0.00164913 0.000277052)
(0.00626025 2.99087e-05 0.000208434)
(0.00611102 -0.00146082 0.000133192)
(0.00614256 -0.00311493 6.32281e-05)
(0.00882404 0.00177284 0.000314302)
(0.00853286 -4.37054e-05 0.000247229)
(0.00837409 -0.00176326 0.000177553)
(0.00833186 -0.00360842 0.000110376)
(0.0110517 0.00177555 0.000343222)
(0.0108053 -0.000156612 0.000279048)
(0.0106417 -0.00201743 0.000215525)
(0.010548 -0.00397004 0.000151935)
(0.0132373 0.00169627 0.000367332)
(0.0130234 -0.000294148 0.000305876)
(0.0128586 -0.00223267 0.000247681)
(0.0127331 -0.00423658 0.000187092)
(0.0153601 0.00157324 0.000388203)
(0.0151587 -0.000442421 0.000329316)
(0.0149942 -0.0024192 0.000275559)
(0.0148596 -0.00444524 0.000217504)
(0.000706318 0.000205805 4.704e-05)
(0.000385051 -4.99237e-05 2.51387e-05)
(0.000338461 -0.000196054 -9.21323e-07)
(0.000547208 -0.000461064 -2.78187e-05)
(0.00255345 0.000905392 0.000103019)
(0.00207198 4.27687e-06 6.90074e-05)
(0.00196924 -0.000677453 2.61781e-05)
(0.00221893 -0.00160124 -1.04435e-05)
(0.00451113 0.00135887 0.000150548)
(0.00409502 4.04162e-05 0.000108657)
(0.00396194 -0.00111054 6.01218e-05)
(0.00409413 -0.00246315 1.63475e-05)
(0.0066528 0.00163519 0.000188191)
(0.00630082 1.4725e-05 0.000143199)
(0.00615126 -0.00147507 9.41261e-05)
(0.00618642 -0.00313051 4.82121e-05)
(0.00887746 0.00175359 0.000218168)
(0.00858326 -6.32419e-05 0.00017237)
(0.00842398 -0.00178148 0.000125047)
(0.00838363 -0.00362706 7.91031e-05)
(0.011111 0.00175343 0.000242331)
(0.0108628 -0.000178877 0.000196769)
(0.0106986 -0.00203877 0.000151851)
(0.0106054 -0.00399172 0.000106652)
(0.0133007 0.00167364 0.000262367)
(0.0130859 -0.000317635 0.000217345)
(0.0129205 -0.0022563 0.000174754)
(0.0127946 -0.00426122 0.000130362)
(0.0154268 0.00155166 0.000278775)
(0.015225 -0.000466097 0.000234802)
(0.0150599 -0.00244449 0.000194585)
(0.0149243 -0.00447269 0.000151275)
(0.000709361 0.000207131 2.53625e-05)
(0.00038591 -4.98856e-05 1.39679e-05)
(0.000339508 -0.000196888 3.71851e-07)
(0.000551008 -0.000463763 -1.35968e-05)
(0.00256539 0.000905767 5.77307e-05)
(0.00208026 2.20324e-06 3.93428e-05)
(0.00197782 -0.000680436 1.63554e-05)
(0.00223166 -0.00160727 -3.36252e-06)
(0.00453162 0.00135586 8.60493e-05)
(0.00411223 3.51328e-05 6.28625e-05)
(0.00397921 -0.00111652 3.61372e-05)
(0.00411465 -0.00247163 1.19446e-05)
(0.00668112 0.0016281 0.000109316)
(0.00632654 5.95585e-06 8.3785e-05)
(0.00617682 -0.00148408 5.60546e-05)
(0.0062141 -0.00314127 2.99917e-05)
(0.00891213 0.00174297 0.00012845)
(0.00861609 -7.498e-05 0.000101778)
(0.00845651 -0.00179318 7.43137e-05)
(0.00841726 -0.00363995 4.75324e-05)
(0.0111504 0.00174056 0.000144196)
(0.0109011 -0.000192663 0.000117011)
(0.0107365 -0.00205264 9.02718e-05)
(0.0106436 -0.00400657 6.32878e-05)
(0.0133437 0.00165992 0.000157239)
(0.0131282 -0.000332509 0.000129865)
(0.0129623 -0.00227176 0.00010398)
(0.0128362 -0.00427788 7.69905e-05)
(0.0154726 0.00153816 0.000167602)
(0.0152703 -0.000481357 0.000140568)
(0.0151046 -0.00246111 0.000115824)
(0.0149684 -0.00449105 8.92188e-05)
(0.000710791 0.000207741 8.0308e-06)
(0.000386337 -4.98725e-05 4.49021e-06)
(0.000340023 -0.000197279 2.65637e-07)
(0.000552791 -0.000465023 -4.06765e-06)
(0.002571 0.000906146 1.86185e-05)
(0.0020842 1.32407e-06 1.27981e-05)
(0.0019819 -0.000681876 5.55048e-06)
(0.00223765 -0.00161027 -6.77272e-07)
(0.0045414 0.0013548 2.80165e-05)
(0.00412049 3.27955e-05 2.05884e-05)
(0.00398751 -0.00111941 1.2052e-05)
(0.00412443 -0.00247594 4.30813e-06)
(0.00669485 0.00162518 3.58681e-05)
(0.00633906 1.95504e-06 2.7587e-05)
(0.00618927 -0.00148846 1.86131e-05)
(0.00622753 -0.00314678 1.01586e-05)
(0.00892921 0.00173832 4.24188e-05)
(0.0086323 -8.04616e-05 3.36575e-05)
(0.00847256 -0.00179892 2.4652e-05)
(0.00843382 -0.00364654 1.58514e-05)
(0.0111701 0.00173472 4.78596e-05)
(0.0109202 -0.000199217 3.88264e-05)
(0.0107555 -0.00205947 2.99508e-05)
(0.0106626 -0.00401412 2.09822e-05)
(0.0133653 0.00165353 5.23664e-05)
(0.0131495 -0.000339679 4.31897e-05)
(0.0129834 -0.0022794 3.45132e-05)
(0.0128571 -0.00428629 2.54664e-05)
(0.0154958 0.00153171 5.5898e-05)
(0.0152932 -0.000488797 4.67894e-05)
(0.0151272 -0.00246934 3.84502e-05)
(0.0149906 -0.00450026 2.94897e-05)
)
;

boundaryField
{
    interface
    {
        type            tractionDisplacement;
        gradient        nonuniform List<vector> 
192
(
(0.0518742 0.06534 0.0027059)
(0.0211731 0.0587773 0.00717414)
(0.0236317 0.0754 0.00769744)
(0.0182212 0.0827147 0.00651424)
(0.0147469 0.0872274 0.00507769)
(0.0115827 0.087896 0.00366481)
(0.00950469 0.0863129 0.00268498)
(0.00881769 0.0841017 0.00229321)
(0.0513963 0.0705479 0.00170429)
(0.0250215 0.0608251 0.00504938)
(0.023555 0.0747376 0.00618741)
(0.0185318 0.0817648 0.00587629)
(0.0147029 0.0859722 0.0052023)
(0.0115524 0.0868639 0.00437867)
(0.00949345 0.0857019 0.0037507)
(0.00885142 0.0840741 0.00352216)
(0.0536118 0.0735718 0.00098443)
(0.0262499 0.0626505 0.00297268)
(0.024414 0.0749062 0.004043)
(0.0189879 0.0814882 0.00444304)
(0.0148055 0.0853878 0.00437168)
(0.0114648 0.0863179 0.00411176)
(0.00930589 0.0853769 0.00387134)
(0.00853709 0.0841471 0.003814)
(0.0552385 0.0753483 0.000561785)
(0.0271854 0.0637717 0.00178971)
(0.0252157 0.0755184 0.00261653)
(0.0195143 0.0816372 0.00316328)
(0.0150614 0.085295 0.00341392)
(0.0115231 0.0861611 0.00348855)
(0.00923693 0.0852936 0.0035076)
(0.0083557 0.0842612 0.00357814)
(0.0562736 0.0764141 0.000325785)
(0.0278272 0.0645118 0.00109713)
(0.0257865 0.0760925 0.00169406)
(0.0199162 0.0819676 0.00218791)
(0.015294 0.0854509 0.0025218)
(0.0116106 0.0862303 0.0027298)
(0.0092225 0.0853592 0.00286747)
(0.00826144 0.0844016 0.00299608)
(0.0569151 0.0770613 0.000189532)
(0.0282416 0.0649978 0.000666773)
(0.0261638 0.0765355 0.00106854)
(0.0201901 0.0822977 0.00143998)
(0.0154638 0.0856761 0.00173115)
(0.0116882 0.0863825 0.00194431)
(0.00923331 0.0854815 0.00210062)
(0.00823039 0.0845393 0.00223196)
(0.057289 0.077438 0.00010046)
(0.0284859 0.0652956 0.000363346)
(0.0263897 0.0768307 0.000595247)
(0.0203565 0.0825447 0.000822199)
(0.0155702 0.0858671 0.00101274)
(0.0117415 0.0865251 0.00116188)
(0.00924853 0.0855952 0.00127592)
(0.00822641 0.0846482 0.00136978)
(0.0574617 0.077613 3.1654e-05)
(0.0285984 0.065438 0.000115908)
(0.0264947 0.0769776 0.00019176)
(0.0204344 0.0826742 0.000267834)
(0.0156207 0.0859727 0.000333539)
(0.0117679 0.0866073 0.000386342)
(0.00925801 0.0856612 0.000427384)
(0.00822823 0.0847078 0.000461072)
(-0.00424964 0.032648 0.0315623)
(-0.0103506 0.000703159 0.00569229)
(-0.00901256 0.00206276 0.00936023)
(-0.0077173 -0.000904059 0.00641554)
(-0.00553139 -0.00117684 0.00520576)
(-0.00364209 -0.000953795 0.00401349)
(-0.00230252 -0.000181029 0.0032918)
(-0.00160344 0.000752231 0.00282498)
(-0.00879991 0.0186248 0.0116796)
(-0.0167996 0.00386717 0.0042273)
(-0.0135579 0.0040467 0.00454)
(-0.0106409 0.00242798 0.00386658)
(-0.00731425 0.00171908 0.00363247)
(-0.00459757 0.00130759 0.00342922)
(-0.00261513 0.00125104 0.00332943)
(-0.00135219 0.00149236 0.00303574)
(-0.00943657 -0.00137933 -0.000836705)
(-0.0171483 0.00792239 0.00161504)
(-0.0137328 0.00679691 0.00148355)
(-0.0104436 0.00625775 0.00210262)
(-0.007074 0.0049866 0.00256179)
(-0.00438582 0.00384731 0.00300492)
(-0.00246938 0.00298309 0.00335775)
(-0.00127483 0.00252287 0.00378732)
(-0.00616756 -0.0196383 -0.0184515)
(-0.0104653 0.0104351 -0.000995041)
(-0.00907236 0.00874272 -0.00325953)
(-0.00704006 0.00934073 -0.000506074)
(-0.00478415 0.00766359 0.000991553)
(-0.00300077 0.00593174 0.00239887)
(-0.00188237 0.00432907 0.00337691)
(-0.00139011 0.00328023 0.00397653)
(0.0330558 -0.0605338 -0.00322124)
(0.0114772 -0.0620523 -0.00754361)
(0.00960226 -0.0791842 -0.0079467)
(0.00355349 -0.0860067 -0.00651514)
(-0.000438433 -0.089333 -0.00492424)
(-0.00338238 -0.0890057 -0.0034935)
(-0.00499622 -0.0868071 -0.00257296)
(-0.005159 -0.0843121 -0.00224979)
(0.0339545 -0.0675245 -0.0023658)
(0.0138912 -0.0640474 -0.00548403)
(0.00939303 -0.0783827 -0.00603578)
(0.00358372 -0.0849401 -0.00556121)
(-0.000587182 -0.0880881 -0.0048307)
(-0.00347628 -0.0880817 -0.0040858)
(-0.00502187 -0.0863509 -0.00359943)
(-0.00510727 -0.0843877 -0.00349774)
(0.0358777 -0.0722204 -0.00135872)
(0.0148422 -0.065479 -0.00331432)
(0.0101597 -0.0785334 -0.0040864)
(0.00394088 -0.0846517 -0.00425782)
(-0.000532463 -0.0875729 -0.00411304)
(-0.00359751 -0.0876441 -0.00388672)
(-0.00523795 -0.08614 -0.00373407)
(-0.00544955 -0.0844958 -0.00376266)
(0.0372287 -0.0749988 -0.000781661)
(0.0156166 -0.06659 -0.00201875)
(0.0108482 -0.0790998 -0.00271135)
(0.00434503 -0.0848072 -0.00309532)
(-0.000374628 -0.0875365 -0.00326649)
(-0.00361385 -0.0875662 -0.00333571)
(-0.00536417 -0.0861307 -0.00339141)
(-0.0056763 -0.0846364 -0.00350606)
(0.0380836 -0.07667 -0.000463533)
(0.0161523 -0.0674004 -0.00125228)
(0.0113279 -0.0796719 -0.00179108)
(0.00464835 -0.0851406 -0.00218456)
(-0.000237341 -0.0877209 -0.00245194)
(-0.0036076 -0.0876755 -0.0026342)
(-0.00544617 -0.0862314 -0.00277371)
(-0.00583104 -0.0847871 -0.00291428)
(0.0386118 -0.0776898 -0.00027615)
(0.0164971 -0.0679554 -0.000768935)
(0.0116359 -0.0801327 -0.00114583)
(0.00484574 -0.0854748 -0.0014586)
(-0.000145651 -0.0879559 -0.00170236)
(-0.00360153 -0.0878411 -0.00188718)
(-0.00549861 -0.0863626 -0.00203043)
(-0.00592346 -0.0849242 -0.00215731)
(0.0389186 -0.0782861 -0.000148945)
(0.0166994 -0.0683016 -0.000422125)
(0.0118162 -0.080446 -0.000644077)
(0.00496072 -0.0857256 -0.000840232)
(-9.32235e-05 -0.0881484 -0.00100267)
(-0.00359992 -0.0879844 -0.00113132)
(-0.00553138 -0.0864735 -0.001232)
(-0.00597662 -0.0850278 -0.00131803)
(0.03906 -0.0785638 -4.73174e-05)
(0.0167922 -0.0684681 -0.000135151)
(0.0118988 -0.0806033 -0.000208384)
(0.00501282 -0.0858573 -0.000274835)
(-7.02927e-05 -0.0882535 -0.000331236)
(-0.00360053 -0.0880644 -0.000376679)
(-0.00554767 -0.0865353 -0.000412384)
(-0.006002 -0.0850829 -0.000442669)
(0.0829299 -0.00589713 0.000947997)
(0.0832031 -0.00581988 0.00115072)
(0.0834419 -0.00547892 0.00108026)
(0.0836412 -0.00524827 0.000924958)
(0.0838078 -0.00511061 0.000692137)
(0.0839482 -0.00505239 0.000459497)
(0.0840526 -0.00503554 0.000255989)
(0.0841081 -0.00503493 8.16348e-05)
(0.0801079 -0.0056403 0.00151956)
(0.0806556 -0.00557939 0.00150187)
(0.0810023 -0.0054766 0.0013438)
(0.0812336 -0.00539752 0.00111787)
(0.0813919 -0.00535873 0.000851105)
(0.0815108 -0.00535246 0.00058575)
(0.0815956 -0.00536036 0.000339139)
(0.0816409 -0.0053683 0.000110737)
(0.0800281 -0.00695894 0.00224401)
(0.0805779 -0.00691004 0.00191972)
(0.0809226 -0.00694578 0.0016257)
(0.0811502 -0.00700891 0.00130103)
(0.0813041 -0.00707949 0.000988384)
(0.0814183 -0.007141 0.00069026)
(0.0814991 -0.00718593 0.000407096)
(0.081542 -0.00720954 0.000134419)
(0.0827237 -0.00714556 0.0027828)
(0.0830247 -0.00707469 0.002266)
(0.0832589 -0.00733179 0.00188335)
(0.0834548 -0.0075382 0.00148305)
(0.0836132 -0.00770547 0.00113161)
(0.0837435 -0.00781934 0.000800156)
(0.0838383 -0.00789032 0.00047814)
(0.0838887 -0.00792398 0.000159075)
)
;
        traction        nonuniform List<vector> 
192
(
(195.798 -13.4189 -2.66669)
(196.283 -11.6878 -4.27322)
(195.512 -14.8184 -4.4162)
(194.323 -15.9553 -3.99899)
(192.836 -16.5391 -3.44851)
(191.093 -16.3448 -2.84879)
(189.025 -15.6679 -2.28265)
(186.31 -14.7458 -1.75539)
(199.756 -14.8019 -1.71047)
(200.187 -12.3539 -2.8485)
(199.388 -14.9051 -3.09643)
(198.037 -15.9492 -2.91491)
(196.287 -16.4124 -2.60614)
(194.174 -16.1846 -2.23093)
(191.611 -15.4823 -1.86012)
(188.188 -14.525 -1.53161)
(202.215 -15.6633 -1.11967)
(202.575 -12.8675 -1.83811)
(201.73 -15.0717 -2.07012)
(200.285 -15.9938 -2.07312)
(198.383 -16.3536 -1.94203)
(196.047 -16.0812 -1.74597)
(193.169 -15.3578 -1.52941)
(189.315 -14.402 -1.33005)
(203.939 -16.2009 -0.762079)
(204.255 -13.1993 -1.23584)
(203.357 -15.2917 -1.41626)
(201.842 -16.0955 -1.47402)
(199.832 -16.3758 -1.44345)
(197.34 -16.0533 -1.35692)
(194.247 -15.3007 -1.24129)
(190.104 -14.3355 -1.12351)
(205.16 -16.5413 -0.520062)
(205.449 -13.4248 -0.835058)
(204.508 -15.4778 -0.966172)
(202.937 -16.214 -1.03029)
(200.846 -16.4367 -1.04173)
(198.242 -16.07 -1.01275)
(195 -15.2864 -0.956562)
(190.659 -14.3035 -0.889835)
(206.002 -16.7572 -0.340301)
(206.275 -13.5759 -0.54287)
(205.302 -15.6165 -0.631645)
(203.688 -16.3173 -0.683663)
(201.539 -16.5032 -0.705777)
(198.858 -16.1033 -0.701846)
(195.514 -15.2931 -0.677415)
(191.04 -14.2915 -0.641768)
(206.533 -16.8864 -0.192885)
(206.798 -13.6696 -0.306255)
(205.804 -15.7079 -0.357868)
(204.162 -16.3908 -0.391001)
(201.976 -16.5555 -0.408824)
(199.245 -16.1342 -0.412269)
(195.837 -15.3049 -0.403007)
(191.278 -14.2892 -0.384966)
(206.785 -16.9458 -0.0622339)
(207.041 -13.7135 -0.0984645)
(206.038 -15.7526 -0.115469)
(204.384 -16.4283 -0.126869)
(202.18 -16.5834 -0.133544)
(199.427 -16.1515 -0.135638)
(195.988 -15.3115 -0.133335)
(191.373 -14.2883 -0.127398)
(4.52269 -6.04221 178.41)
(6.85332 -0.2268 177.272)
(6.64982 -0.556051 176.703)
(6.09229 -0.0669743 176.366)
(5.27024 -0.0184739 176.105)
(4.44642 -0.0256529 175.837)
(3.69872 -0.108769 175.504)
(3.09997 -0.242813 175.035)
(4.84776 -3.21803 171.86)
(7.41038 -0.669915 171.309)
(6.85704 -0.736001 170.838)
(6.06251 -0.47711 170.454)
(5.10641 -0.352511 170.121)
(4.21424 -0.259406 169.812)
(3.43763 -0.208245 169.495)
(2.84838 -0.216572 169.086)
(4.85354 0.256135 165.363)
(7.36928 -1.25629 165.023)
(6.81407 -1.06451 164.593)
(5.98055 -0.968805 164.229)
(5.03444 -0.743181 163.925)
(4.15774 -0.527703 163.682)
(3.39566 -0.337149 163.48)
(2.80987 -0.193715 163.237)
(4.53579 3.11347 157.693)
(6.59049 -1.46035 157.31)
(6.38921 -1.19888 156.916)
(5.76117 -1.28478 156.715)
(4.97817 -1.00691 156.644)
(4.21305 -0.710163 156.682)
(3.52366 -0.414185 156.802)
(2.94867 -0.171104 156.959)
(-140.001 8.50115 2.47039)
(-138.54 8.8593 3.8444)
(-138.136 11.0741 3.91436)
(-138.568 11.9923 3.57617)
(-139.484 12.4769 3.13536)
(-140.789 12.48 2.66538)
(-142.412 12.1795 2.22306)
(-144.558 11.687 1.79732)
(-137.458 9.13697 1.47721)
(-136.852 8.82807 2.36411)
(-136.69 10.6673 2.45697)
(-137.08 11.5126 2.31665)
(-137.894 11.9301 2.0992)
(-139.124 11.9345 1.84769)
(-140.741 11.6504 1.60213)
(-143.006 11.1604 1.38134)
(-135.666 9.56801 0.938977)
(-135.307 8.83915 1.52167)
(-135.248 10.4783 1.6474)
(-135.675 11.2476 1.62489)
(-136.514 11.6162 1.52979)
(-137.789 11.614 1.40211)
(-139.491 11.3424 1.26564)
(-141.909 10.8766 1.14182)
(-134.236 9.80071 0.642863)
(-133.937 8.85896 1.03888)
(-133.924 10.3922 1.15188)
(-134.402 11.0892 1.17311)
(-135.301 11.4203 1.14338)
(-136.657 11.4052 1.08475)
(-138.465 11.1359 1.0122)
(-141.031 10.683 0.942069)
(-133.183 9.9246 0.440177)
(-132.91 8.87559 0.706665)
(-132.923 10.3516 0.794301)
(-133.439 11.0028 0.82694)
(-134.389 11.3056 0.826872)
(-135.812 11.2763 0.805022)
(-137.704 11.0025 0.769639)
(-140.381 10.5518 0.731766)
(-132.445 9.99164 0.288133)
(-132.185 8.88608 0.460132)
(-132.215 10.3319 0.521278)
(-132.756 10.9563 0.550362)
(-133.744 11.24 0.559779)
(-135.216 11.1989 0.554639)
(-137.168 10.9187 0.539029)
(-139.922 10.4658 0.51972)
(-131.975 10.0272 0.163319)
(-131.722 8.89182 0.259704)
(-131.759 10.3221 0.295643)
(-132.317 10.9319 0.314812)
(-133.329 11.2041 0.323517)
(-134.834 11.155 0.324048)
(-136.825 10.8692 0.317901)
(-139.63 10.4141 0.307739)
(-131.75 10.0424 0.052709)
(-131.503 8.8944 0.0835344)
(-131.545 10.3187 0.0953737)
(-132.11 10.9221 0.102023)
(-133.134 11.1891 0.105388)
(-134.654 11.1358 0.106156)
(-136.664 10.8457 0.104553)
(-139.511 10.3924 0.10082)
(-11.707 -174.348 -0.461284)
(-11.6213 -174.363 -0.446504)
(-11.517 -174.396 -0.387786)
(-11.438 -174.428 -0.319997)
(-11.3837 -174.459 -0.242144)
(-11.3501 -174.485 -0.166509)
(-11.3319 -174.507 -0.0983844)
(-11.3265 -174.54 -0.0332973)
(-10.8155 -167.505 -0.20972)
(-10.8042 -167.298 -0.256204)
(-10.7443 -167.169 -0.242921)
(-10.6894 -167.075 -0.20682)
(-10.6465 -167.012 -0.160684)
(-10.6173 -166.971 -0.112707)
(-10.5996 -166.947 -0.0668901)
(-10.5903 -166.939 -0.0224096)
(-10.4197 -161.057 -0.0972216)
(-10.4064 -160.685 -0.159845)
(-10.346 -160.423 -0.164101)
(-10.2892 -160.216 -0.13992)
(-10.2439 -160.066 -0.110601)
(-10.2124 -159.961 -0.079228)
(-10.1929 -159.895 -0.0476241)
(-10.1831 -159.864 -0.0159548)
(-10.4659 -154.504 0.0431417)
(-10.3793 -153.915 -0.0472873)
(-10.2752 -153.484 -0.0760418)
(-10.1917 -153.138 -0.0688866)
(-10.1307 -152.879 -0.0585303)
(-10.0898 -152.695 -0.0445754)
(-10.0648 -152.576 -0.0277636)
(-10.0528 -152.514 -0.0093608)
)
;
        pressure        uniform 0;
        value           nonuniform List<vector> 
192
(
(0.00125235 0.00102289 0.000709631)
(0.00242617 0.00176962 0.000878156)
(0.00431965 0.00246436 0.000950315)
(0.00636446 0.00286575 0.000917431)
(0.00856291 0.00304972 0.000860677)
(0.0107912 0.00305379 0.000805972)
(0.0129847 0.00293982 0.000774145)
(0.0151095 0.0027702 0.000773771)
(0.00129237 0.00106611 0.000388662)
(0.00266151 0.00171191 0.000595381)
(0.00451146 0.00239273 0.000708218)
(0.00654687 0.00279594 0.00073532)
(0.00870992 0.00298508 0.000728764)
(0.0109068 0.00299763 0.000713326)
(0.013076 0.00289253 0.000706807)
(0.0151903 0.00273299 0.000718167)
(0.00134783 0.00111277 0.000224176)
(0.00277458 0.00170354 0.000393356)
(0.00465036 0.00234588 0.000505794)
(0.00668549 0.00273397 0.00056407)
(0.00883651 0.00291862 0.000590989)
(0.0110184 0.00293556 0.000604727)
(0.0131758 0.00283993 0.000618026)
(0.015285 0.00269321 0.000637957)
(0.00138312 0.00114147 0.000134175)
(0.00284069 0.00170659 0.000262239)
(0.00474091 0.00232475 0.000357794)
(0.00678599 0.00269463 0.000421195)
(0.00893802 0.00287059 0.000462338)
(0.0111168 0.00288656 0.000490814)
(0.013271 0.00279555 0.000514554)
(0.0153797 0.00265679 0.000538089)
(0.00140459 0.00115866 8.20558e-05)
(0.0028812 0.00171235 0.000174275)
(0.00479988 0.00231707 0.000248598)
(0.00685678 0.00267373 0.000304401)
(0.00901522 0.00284098 0.000345824)
(0.0111969 0.00285343 0.000377345)
(0.0133526 0.00276326 0.000403175)
(0.0154633 0.00262826 0.000425653)
(0.00141776 0.00116907 4.94092e-05)
(0.00290647 0.00171786 0.000111353)
(0.00483818 0.00231556 0.000163905)
(0.00690517 0.00266392 0.00020619)
(0.00907076 0.00282454 0.000239808)
(0.0112571 0.00283321 0.000266635)
(0.0134161 0.00274215 0.000288624)
(0.0155297 0.0026084 0.000306674)
(0.00142547 0.00117511 2.66183e-05)
(0.00292146 0.00172196 6.22726e-05)
(0.00486149 0.00231624 9.34899e-05)
(0.00693558 0.00265991 0.000119593)
(0.00910676 0.00281631 0.00014111)
(0.0112972 0.00282213 0.000158719)
(0.0134593 0.00272986 0.000173188)
(0.0155754 0.00259626 0.000184724)
(0.00142906 0.0011779 8.42648e-06)
(0.00292848 0.00172412 2.00674e-05)
(0.00487258 0.00231702 3.04135e-05)
(0.00695028 0.00265861 3.92161e-05)
(0.00912447 0.00281298 4.65881e-05)
(0.0113172 0.00281731 5.26888e-05)
(0.0134811 0.00272429 5.77087e-05)
(0.0155986 0.00259056 6.16614e-05)
(0.0005508 0.00061424 0.00107034)
(0.00203213 0.00104369 0.000859633)
(0.0039116 0.00154764 0.0009711)
(0.00604022 0.00182051 0.000916197)
(0.00830943 0.00194467 0.000862278)
(0.0106009 0.00194317 0.000810331)
(0.0128371 0.00185865 0.00078173)
(0.0149792 0.00172833 0.000780418)
(0.000169278 0.00020607 0.000419003)
(0.00158016 0.000185128 0.000519075)
(0.00349579 0.000265425 0.000594992)
(0.00569177 0.000243975 0.000635308)
(0.00801497 0.000163824 0.000661286)
(0.0103501 4.08671e-05 0.000679817)
(0.0126187 -0.000104925 0.0006991)
(0.0147762 -0.000258407 0.000719926)
(9.26351e-05 -0.00018371 -0.000108824)
(0.00146772 -0.000474782 3.38309e-05)
(0.00336432 -0.000858314 0.000184788)
(0.00555325 -0.0012028 0.000326655)
(0.00786849 -0.00151432 0.000444959)
(0.0101968 -0.00178318 0.00053959)
(0.0124607 -0.00200995 0.000614067)
(0.0146158 -0.00220009 0.000679279)
(0.000295768 -0.000662227 -0.000767891)
(0.00168764 -0.00135878 -0.000360202)
(0.00350884 -0.0021781 -0.000202204)
(0.00561032 -0.00281851 4.17245e-05)
(0.00785459 -0.00332658 0.000244369)
(0.0101277 -0.00370709 0.000409753)
(0.0123526 -0.00398678 0.000532096)
(0.0144896 -0.00419582 0.00061888)
(0.00078606 -0.00117342 -0.000577512)
(0.00196192 -0.00226487 -0.000442059)
(0.00374227 -0.00327719 -0.000260794)
(0.00574274 -0.00401035 -3.33889e-05)
(0.00790891 -0.00453904 0.000170421)
(0.010123 -0.00489381 0.000336099)
(0.0123137 -0.00512598 0.000457722)
(0.0144425 -0.00529072 0.000541051)
(0.000890865 -0.00126479 -0.000330758)
(0.00217462 -0.00233639 -0.00027854)
(0.00392423 -0.00335416 -0.000159389)
(0.00590862 -0.00408786 -4.55963e-06)
(0.00804152 -0.00460957 0.000141026)
(0.0102274 -0.00495962 0.000262529)
(0.0123988 -0.00519083 0.000355017)
(0.0145212 -0.00535976 0.000422451)
(0.000957935 -0.00134044 -0.000185463)
(0.00228946 -0.00238029 -0.000155903)
(0.00405687 -0.00339378 -8.03994e-05)
(0.00603805 -0.00412644 2.07909e-05)
(0.00815954 -0.00464831 0.000119837)
(0.0103325 -0.005002 0.000204939)
(0.0124945 -0.00524009 0.000272558)
(0.0146135 -0.0054185 0.000325217)
(0.000995142 -0.0013867 -0.000103514)
(0.0023577 -0.00241173 -8.27796e-05)
(0.0041446 -0.00342304 -3.25944e-05)
(0.00613311 -0.00415487 3.40733e-05)
(0.00825547 -0.00467861 0.000100276)
(0.0104263 -0.00503648 0.000158628)
(0.0125864 -0.00528078 0.00020679)
(0.0147058 -0.00546658 0.000246422)
(0.00101678 -0.00141487 -5.75223e-05)
(0.00239934 -0.00243457 -4.19214e-05)
(0.00420216 -0.00344661 -8.02911e-06)
(0.00620067 -0.00417919 3.59211e-05)
(0.00832889 -0.00470493 7.97267e-05)
(0.0105029 -0.00506598 0.000119008)
(0.0126651 -0.00531447 0.000152421)
(0.0147867 -0.00550508 0.000181076)
(0.00102986 -0.00143219 -3.12706e-05)
(0.00242514 -0.00245068 -2.00552e-05)
(0.00423958 -0.0034648 2.02458e-06)
(0.00624699 -0.00419894 2.99796e-05)
(0.00838181 -0.00472651 5.78237e-05)
(0.0105604 -0.00508973 8.30622e-05)
(0.0127259 -0.00534075 0.000104982)
(0.0148502 -0.00553424 0.000124309)
(0.00103749 -0.00144234 -1.54586e-05)
(0.0024404 -0.00246104 -8.63908e-06)
(0.00426235 -0.0034772 3.89368e-06)
(0.00627611 -0.00421284 1.94888e-05)
(0.0084161 -0.0047418 3.4999e-05)
(0.0105986 -0.00510637 4.91463e-05)
(0.012767 -0.0053588 6.15905e-05)
(0.0148937 -0.0055539 7.27435e-05)
(0.00104104 -0.00144707 -4.65911e-06)
(0.00244755 -0.00246613 -2.36666e-06)
(0.00427317 -0.00348348 1.70333e-06)
(0.00629019 -0.00422 6.72316e-06)
(0.00843294 -0.00474971 1.17109e-05)
(0.0106176 -0.00511492 1.62737e-05)
(0.0127877 -0.00536798 2.03116e-05)
(0.0149156 -0.0055638 2.39563e-05)
(0.0160359 0.00164521 0.000756956)
(0.0161197 0.00160932 0.000688524)
(0.0162213 0.00157288 0.000603785)
(0.0163208 0.00153792 0.000504924)
(0.0164077 0.00150936 0.000396854)
(0.0164762 0.0014885 0.000284519)
(0.0165233 0.00147521 0.000170802)
(0.0165471 0.00146878 5.69184e-05)
(0.0157945 -0.000347565 0.000700974)
(0.0158836 -0.000393142 0.000620451)
(0.0159883 -0.000437922 0.000531602)
(0.0160892 -0.00047745 0.000437198)
(0.0161761 -0.000509405 0.000339955)
(0.0162439 -0.000533003 0.000242123)
(0.0162902 -0.000548362 0.000144807)
(0.0163137 -0.000555901 4.81736e-05)
(0.0156321 -0.00231861 0.000659988)
(0.0157202 -0.0023763 0.000561892)
(0.0158242 -0.00242849 0.000467138)
(0.0159243 -0.00247257 0.000375723)
(0.0160105 -0.00250769 0.000287913)
(0.0160777 -0.00253375 0.000203213)
(0.0161234 -0.00255093 0.000120913)
(0.0161465 -0.00255946 4.01305e-05)
(0.0155411 -0.00432614 0.000603958)
(0.0156229 -0.00439335 0.000494498)
(0.0157223 -0.00445395 0.000395793)
(0.01582 -0.00450285 0.000308786)
(0.0159047 -0.00454156 0.00023165)
(0.0159711 -0.00457043 0.000161277)
(0.0160164 -0.00458968 9.51956e-05)
(0.0160392 -0.00459931 3.14781e-05)
)
;
    }
    symmetry
    {
        type            symmetryPlane;
    }
    bottom
    {
        type            fixedDisplacement;
        value           uniform (0 0 0);
    }
}


// ************************************************************************* //
