/*--------------------------------*- C++ -*----------------------------------*\
| =========                 |                                                 |
| \\      /  F ield         | foam-extend: Open Source CFD                    |
|  \\    /   O peration     | Version:     3.1                                |
|   \\  /    A nd           | Web:         http://www.extend-project.de       |
|    \\/     M anipulation  |                                                 |
\*---------------------------------------------------------------------------*/
FoamFile
{
    version     2.0;
    format      ascii;
    class       volVectorField;
    location    "0.6";
    object      D_0;
}
// * * * * * * * * * * * * * * * * * * * * * * * * * * * * * * * * * * * * * //

dimensions      [0 1 0 0 0 0 0];

internalField   nonuniform List<vector> 
256
(
(0.000486051 0.000135562 0.000537696)
(0.000235372 -3.80243e-05 0.000239026)
(0.000172105 -0.000136735 -2.74298e-05)
(0.00027022 -0.00031292 -0.000338244)
(0.00164573 0.000723447 0.000642045)
(0.00136588 6.95554e-05 0.000420493)
(0.0012745 -0.000435965 0.000103371)
(0.00136047 -0.0010867 -0.000149211)
(0.00299838 0.00104819 0.000708766)
(0.00273173 0.000112873 0.000492171)
(0.00262693 -0.000706811 0.000237297)
(0.0026778 -0.00165703 1.35604e-05)
(0.00450063 0.00124826 0.000710931)
(0.00427301 0.000103532 0.000541928)
(0.00416327 -0.000947878 0.000348444)
(0.00416491 -0.00210908 0.000178715)
(0.00607209 0.00132012 0.000697656)
(0.00587636 4.67138e-05 0.000574519)
(0.00576344 -0.00115523 0.000438403)
(0.0057262 -0.00244234 0.000317046)
(0.00764479 0.00130218 0.000685557)
(0.00747468 -4.10488e-05 0.000600301)
(0.00735913 -0.00133188 0.000508724)
(0.00729199 -0.00268426 0.000425089)
(0.00917305 0.00122425 0.000685301)
(0.00902095 -0.000147176 0.000624977)
(0.00890366 -0.00148175 0.000564305)
(0.00881644 -0.00285872 0.000504943)
(0.0106369 0.00111546 0.000700585)
(0.0104913 -0.000261542 0.000651922)
(0.0103733 -0.00161129 0.000612723)
(0.0102791 -0.00299229 0.000564281)
(0.00051296 0.000114215 0.000295917)
(0.000286125 -5.96184e-05 0.000140505)
(0.000235857 -0.000153575 -1.36669e-05)
(0.00034237 -0.000323664 -0.000182958)
(0.00178262 0.000652178 0.000441585)
(0.0014633 4.75525e-06 0.000292254)
(0.00136912 -0.000488208 9.00744e-05)
(0.00148381 -0.00113342 -7.5338e-05)
(0.00313532 0.000993911 0.000533293)
(0.00286299 5.09468e-05 0.000380546)
(0.0027552 -0.00077345 0.000200214)
(0.00280441 -0.00172951 4.15696e-05)
(0.0046271 0.00119878 0.000571355)
(0.00439478 4.58889e-05 0.00044068)
(0.00428154 -0.00101354 0.000294585)
(0.0042793 -0.00218236 0.000163713)
(0.00617724 0.00127763 0.000586204)
(0.00598047 -4.22097e-06 0.000482607)
(0.00586426 -0.00121578 0.000371615)
(0.00582106 -0.00251111 0.000269611)
(0.00772926 0.0012638 0.000594987)
(0.00755948 -8.68422e-05 0.000514892)
(0.00744155 -0.00138659 0.000432717)
(0.0073692 -0.00274657 0.00035428)
(0.00924222 0.00118844 0.000607417)
(0.00909125 -0.000189709 0.000543641)
(0.00897271 -0.00153236 0.000481977)
(0.00888207 -0.00291646 0.000419311)
(0.0106998 0.00108173 0.000627773)
(0.0105553 -0.000301962 0.000573161)
(0.0104368 -0.00166034 0.000525267)
(0.0103413 -0.0030486 0.00047111)
(0.000531602 0.000119945 0.000173649)
(0.000300257 -6.10233e-05 8.85579e-05)
(0.000254286 -0.000159329 -1.64517e-06)
(0.000374961 -0.000336664 -9.70375e-05)
(0.00185423 0.00062471 0.000301643)
(0.00151418 -2.34966e-05 0.000204764)
(0.00142026 -0.000510383 7.85526e-05)
(0.00155616 -0.00115677 -2.66335e-05)
(0.00322928 0.000952666 0.000392266)
(0.00294056 1.08902e-05 0.000287518)
(0.00283021 -0.000809139 0.000165297)
(0.00289046 -0.0017632 5.65959e-05)
(0.00472435 0.0011506 0.000445724)
(0.00448205 8.61322e-07 0.000348612)
(0.00436584 -0.00105492 0.000242329)
(0.0043677 -0.00222035 0.000145165)
(0.00626938 0.00122928 0.000478116)
(0.00606704 -4.9725e-05 0.000394026)
(0.00594819 -0.00125918 0.000306449)
(0.0059055 -0.0025518 0.000223712)
(0.00781313 0.00121834 0.000501138)
(0.00764105 -0.000130901 0.000429548)
(0.00752125 -0.00143044 0.000358412)
(0.00744773 -0.00278951 0.00028832)
(0.0093193 0.00114766 0.000522511)
(0.00916819 -0.000231699 0.000460141)
(0.00904869 -0.0015765 0.000401211)
(0.00895645 -0.00296241 0.000339935)
(0.0107749 0.00104632 0.000545974)
(0.0106317 -0.000341778 0.000489609)
(0.010513 -0.00170502 0.000439201)
(0.0104157 -0.00309832 0.000383399)
(0.000542412 0.000124531 0.000106285)
(0.000305262 -6.11199e-05 5.80001e-05)
(0.000260743 -0.000162191 4.64758e-06)
(0.000390521 -0.00034503 -5.03964e-05)
(0.00189485 0.000614412 0.000207177)
(0.00154294 -3.71782e-05 0.000144907)
(0.00144969 -0.000521958 6.57126e-05)
(0.00159886 -0.00117159 -9.85563e-07)
(0.00328969 0.000927985 0.000284991)
(0.00299019 -1.37767e-05 0.000214102)
(0.00287872 -0.000830344 0.000132199)
(0.00294767 -0.00178372 5.8784e-05)
(0.0047948 0.00111626 0.000339)
(0.00454483 -3.10086e-05 0.000268844)
(0.00442688 -0.00108276 0.000192909)
(0.00443316 -0.0022457 0.000122515)
(0.0063433 0.00119066 0.000377212)
(0.00613623 -8.52984e-05 0.000311752)
(0.00601572 -0.00129127 0.000244583)
(0.00597459 -0.00258127 0.000179983)
(0.00788688 0.00117951 0.000406249)
(0.00771256 -0.000167635 0.000346182)
(0.0075915 -0.00146528 0.000287352)
(0.00751787 -0.00282294 0.000228399)
(0.00939226 0.00111136 0.000431244)
(0.00924072 -0.000268038 0.00037549)
(0.00912047 -0.00161323 0.000323216)
(0.00902727 -0.0029999 0.000268393)
(0.0108488 0.00101387 0.000454762)
(0.0107064 -0.000376887 0.000402403)
(0.0105874 -0.00174311 0.000355197)
(0.0104887 -0.00313969 0.000303426)
(0.00054893 0.000127325 6.64485e-05)
(0.000307671 -6.11327e-05 3.83901e-05)
(0.000263781 -0.000163907 6.69012e-06)
(0.000399161 -0.000350271 -2.55626e-05)
(0.00191977 0.000610604 0.000141052)
(0.0015606 -4.43817e-05 0.000101354)
(0.00146788 -0.000528982 5.17252e-05)
(0.00162529 -0.0011822 9.59912e-06)
(0.00332945 0.00091472 0.000202208)
(0.00302334 -2.87483e-05 0.00015493)
(0.00291147 -0.000844084 0.000100822)
(0.00298626 -0.00179879 5.19698e-05)
(0.00484512 0.0010948 0.000248703)
(0.00459008 -5.24224e-05 0.000199438)
(0.00447123 -0.00110218 0.000146538)
(0.00448083 -0.00226498 9.69655e-05)
(0.00640006 0.00116403 0.000284395)
(0.00618966 -0.000111029 0.00023573)
(0.00606815 -0.00131503 0.00018621)
(0.00602841 -0.0026044 0.000138005)
(0.00794719 0.0011509 0.000312697)
(0.00777108 -0.000195622 0.000265528)
(0.00764919 -0.00149217 0.000219642)
(0.00757567 -0.00284967 0.00017322)
(0.00945479 0.00108328 0.000336558)
(0.00930267 -0.000296693 0.000290824)
(0.00918182 -0.00164229 0.000248049)
(0.00908797 -0.00303004 0.000203044)
(0.0109138 0.000987798 0.000357358)
(0.0107716 -0.000405202 0.000313268)
(0.0106521 -0.00177363 0.000273375)
(0.0105524 -0.00317287 0.000229837)
(0.000553025 0.000129017 4.07329e-05)
(0.00030916 -6.11585e-05 2.45665e-05)
(0.000265607 -0.000164986 6.13566e-06)
(0.000404429 -0.000353575 -1.25059e-05)
(0.00193556 0.000609474 9.1689e-05)
(0.00157195 -4.83246e-05 6.72719e-05)
(0.00147959 -0.000533525 3.71354e-05)
(0.00164208 -0.00118984 1.13837e-05)
(0.0033557 0.000908003 0.000135263)
(0.00304559 -3.77004e-05 0.000105115)
(0.00293362 -0.000853212 7.09051e-05)
(0.00301212 -0.00181002 3.98046e-05)
(0.00488005 0.00108237 0.000170235)
(0.00462187 -6.61513e-05 0.000137591)
(0.00450256 -0.00111558 0.00010276)
(0.00451438 -0.0022796 6.98421e-05)
(0.00644135 0.00114728 0.000198376)
(0.00622879 -0.000128421 0.000164799)
(0.0061067 -0.00133196 0.000130812)
(0.00606792 -0.00262209 9.74529e-05)
(0.00799284 0.00113182 0.00022131)
(0.00781547 -0.00021529 0.000187526)
(0.007693 -0.00151177 0.000154774)
(0.00761957 -0.0028701 0.000121457)
(0.00950353 0.00106371 0.000240533)
(0.00935086 -0.000317388 0.000206823)
(0.0092295 -0.00166376 0.000175316)
(0.00913515 -0.0030529 0.000142133)
(0.0109652 0.000969014 0.000256576)
(0.0108228 -0.000426053 0.000223531)
(0.0107029 -0.00179635 0.000193586)
(0.0106024 -0.00319785 0.000160998)
(0.000555505 0.000129994 2.22115e-05)
(0.00031012 -6.11873e-05 1.37767e-05)
(0.00026676 -0.000165633 4.1431e-06)
(0.000407587 -0.000355545 -5.58902e-06)
(0.00194513 0.000609347 5.18289e-05)
(0.00157896 -5.04302e-05 3.85535e-05)
(0.00148683 -0.000536336 2.23155e-05)
(0.00165227 -0.00119487 8.36742e-06)
(0.00337195 0.000904849 7.7838e-05)
(0.00305955 -4.27517e-05 6.10329e-05)
(0.00294756 -0.000858903 4.20885e-05)
(0.00302826 -0.00181759 2.47696e-05)
(0.00490229 0.00107575 9.93725e-05)
(0.00464228 -7.42545e-05 8.07089e-05)
(0.00452275 -0.00112409 6.08887e-05)
(0.00453589 -0.00228955 4.20431e-05)
(0.00646836 0.00113775 0.000117168)
(0.00625451 -0.000139053 9.74729e-05)
(0.00613209 -0.00134289 7.76036e-05)
(0.00609388 -0.00263413 5.79996e-05)
(0.00802341 0.00112044 0.000131908)
(0.00784525 -0.000227638 0.000111631)
(0.00772241 -0.00152456 9.20096e-05)
(0.00764899 -0.00288395 7.19884e-05)
(0.00953676 0.00105165 0.000144246)
(0.00938365 -0.000330634 0.000123661)
(0.00926191 -0.00167787 0.000104425)
(0.00916721 -0.00306829 8.4161e-05)
(0.0110006 0.000957127 0.00015429)
(0.0108579 -0.000439597 0.000133912)
(0.0107376 -0.00181136 0.000115437)
(0.0106365 -0.00321457 9.53633e-05)
(0.000556684 0.000130445 7.07358e-06)
(0.000310603 -6.1205e-05 4.44768e-06)
(0.000267334 -0.000165939 1.45013e-06)
(0.000409086 -0.000356471 -1.57918e-06)
(0.00194968 0.000609444 1.67868e-05)
(0.00158234 -5.13522e-05 1.25716e-05)
(0.00149032 -0.000537692 7.44008e-06)
(0.00165712 -0.00119737 3.01934e-06)
(0.00337977 0.000903628 2.54269e-05)
(0.00306632 -4.50325e-05 2.00228e-05)
(0.00295433 -0.000861655 1.39528e-05)
(0.00303605 -0.00182141 8.38612e-06)
(0.00491313 0.00107292 3.26834e-05)
(0.0046523 -7.80069e-05 2.6606e-05)
(0.00453268 -0.00112823 2.01682e-05)
(0.00454643 -0.00229459 1.40277e-05)
(0.00648172 0.00113347 3.87531e-05)
(0.00626728 -0.000144075 3.22599e-05)
(0.00614471 -0.00134824 2.57204e-05)
(0.00610676 -0.00264023 1.92517e-05)
(0.00803873 0.00111519 4.38188e-05)
(0.00786018 -0.000233562 3.70605e-05)
(0.00773716 -0.00153086 3.05265e-05)
(0.00766373 -0.00289095 2.38502e-05)
(0.00955356 0.00104595 4.80578e-05)
(0.00940021 -0.000337063 4.11413e-05)
(0.00927827 -0.00168485 3.46787e-05)
(0.00918337 -0.00307603 2.78707e-05)
(0.0110186 0.00095141 5.1469e-05)
(0.0108757 -0.000446233 4.45917e-05)
(0.0107552 -0.00181881 3.83552e-05)
(0.0106538 -0.00322295 3.15845e-05)
)
;

boundaryField
{
    interface
    {
        type            tractionDisplacement;
        gradient        nonuniform List<vector> 
192
(
(0.0012504 8.90088e-08 -6.27537e-06)
(0.00125106 2.32615e-07 -7.48491e-06)
(0.0012496 5.25483e-07 -7.47543e-06)
(0.00124673 8.45864e-07 -7.27339e-06)
(0.00124237 1.23213e-06 -6.95727e-06)
(0.00123606 1.75972e-06 -6.48764e-06)
(0.00122701 2.65546e-06 -5.77696e-06)
(0.00121237 4.4017e-06 -4.57372e-06)
(0.00127836 1.58951e-07 -4.18175e-06)
(0.00127813 3.40733e-07 -4.98588e-06)
(0.00127606 6.81215e-07 -4.94782e-06)
(0.00127234 1.07974e-06 -4.77587e-06)
(0.0012667 1.57845e-06 -4.5173e-06)
(0.00125852 2.26978e-06 -4.14438e-06)
(0.00124668 3.43378e-06 -3.60938e-06)
(0.00122774 5.61186e-06 -2.83028e-06)
(0.0012969 2.0556e-07 -2.92788e-06)
(0.00129628 4.22773e-07 -3.50022e-06)
(0.00129375 8.10625e-07 -3.4639e-06)
(0.00128935 1.27314e-06 -3.32432e-06)
(0.00128271 1.85533e-06 -3.11929e-06)
(0.00127309 2.65704e-06 -2.83373e-06)
(0.00125927 3.97152e-06 -2.44508e-06)
(0.00123752 6.33252e-06 -1.9299e-06)
(0.00131022 2.36666e-07 -2.12187e-06)
(0.00130939 4.82114e-07 -2.53952e-06)
(0.00130652 9.12912e-07 -2.50899e-06)
(0.00130157 1.426e-06 -2.39958e-06)
(0.00129415 2.06871e-06 -2.2415e-06)
(0.00128345 2.94405e-06 -2.02736e-06)
(0.00126819 4.35007e-06 -1.74696e-06)
(0.00124452 6.81512e-06 -1.39307e-06)
(0.00131978 2.59652e-07 -1.51365e-06)
(0.00131882 5.26652e-07 -1.81147e-06)
(0.00131569 9.91037e-07 -1.78752e-06)
(0.00131032 1.54199e-06 -1.7059e-06)
(0.0013023 2.22756e-06 -1.58946e-06)
(0.00129082 3.15197e-06 -1.43486e-06)
(0.00127453 4.6157e-06 -1.23756e-06)
(0.00124954 7.14639e-06 -9.95544e-07)
(0.00132642 2.76131e-07 -1.01788e-06)
(0.00132536 5.58719e-07 -1.21811e-06)
(0.00132204 1.04754e-06 -1.20117e-06)
(0.00131638 1.62535e-06 -1.14496e-06)
(0.00130794 2.34023e-06 -1.06545e-06)
(0.0012959 3.29691e-06 -9.61283e-07)
(0.00127891 4.79762e-06 -8.30326e-07)
(0.00125304 7.37104e-06 -6.71486e-07)
(0.00133063 2.87035e-07 -5.86262e-07)
(0.00132951 5.79709e-07 -7.01327e-07)
(0.00132607 1.08477e-06 -6.91544e-07)
(0.00132021 1.68017e-06 -6.58841e-07)
(0.00131151 2.41383e-06 -6.12817e-07)
(0.00129912 3.39091e-06 -5.5309e-07)
(0.00128169 4.9157e-06 -4.77739e-07)
(0.00125526 7.51474e-06 -3.82182e-07)
(0.00133265 2.92824e-07 -1.90632e-07)
(0.00133149 5.90077e-07 -2.27698e-07)
(0.001328 1.10224e-06 -2.24725e-07)
(0.00132205 1.70638e-06 -2.14081e-07)
(0.00131322 2.44881e-06 -1.99112e-07)
(0.00130067 3.43614e-06 -1.79825e-07)
(0.00128303 4.97701e-06 -1.55001e-07)
(0.00125626 7.58408e-06 -1.20792e-07)
(1.09308e-05 7.23725e-08 0.00114973)
(1.30776e-05 1.27851e-07 0.00114889)
(1.31548e-05 1.98457e-07 0.00114824)
(1.29808e-05 2.92527e-07 0.0011473)
(1.2715e-05 4.04896e-07 0.00114595)
(1.23458e-05 5.36693e-07 0.00114413)
(1.18492e-05 6.86119e-07 0.00114175)
(1.13079e-05 8.03277e-07 0.00113874)
(1.00547e-05 2.11513e-08 0.0010997)
(1.20342e-05 3.77271e-08 0.00109949)
(1.21003e-05 5.67502e-08 0.0010993)
(1.19489e-05 8.24212e-08 0.00109902)
(1.17254e-05 1.12105e-07 0.00109863)
(1.14243e-05 1.44074e-07 0.00109811)
(1.10382e-05 1.71046e-07 0.00109746)
(1.0708e-05 1.6209e-07 0.00109671)
(1.00418e-05 -2.70428e-08 0.00105277)
(1.20188e-05 -4.56996e-08 0.00105298)
(1.20844e-05 -6.9588e-08 0.00105321)
(1.1933e-05 -1.00411e-07 0.00105354)
(1.171e-05 -1.3707e-07 0.001054)
(1.141e-05 -1.80176e-07 0.00105463)
(1.10258e-05 -2.2871e-07 0.00105544)
(1.06983e-05 -2.6355e-07 0.00105648)
(1.09054e-05 -8.04064e-08 0.00100291)
(1.30452e-05 -1.36982e-07 0.00100376)
(1.312e-05 -2.11694e-07 0.00100444)
(1.29457e-05 -3.09713e-07 0.00100544)
(1.26804e-05 -4.27843e-07 0.00100685)
(1.23126e-05 -5.69225e-07 0.00100876)
(1.18188e-05 -7.38586e-07 0.00101129)
(1.12818e-05 -8.99354e-07 0.00101456)
(-0.000903606 -9.63547e-08 6.85177e-06)
(-0.000902881 -2.51564e-07 8.12936e-06)
(-0.000904348 -5.72774e-07 8.11249e-06)
(-0.00090722 -9.20022e-07 7.89131e-06)
(-0.000911576 -1.33875e-06 7.54482e-06)
(-0.000917854 -1.91504e-06 7.02877e-06)
(-0.00092686 -2.91625e-06 6.2435e-06)
(-0.00094155 -4.95238e-06 4.89368e-06)
(-0.000876477 -1.72336e-07 4.42126e-06)
(-0.000876696 -3.68407e-07 5.23941e-06)
(-0.000878763 -7.40343e-07 5.19106e-06)
(-0.000882477 -1.17274e-06 5.00456e-06)
(-0.000888098 -1.71422e-06 4.72407e-06)
(-0.000896245 -2.4707e-06 4.31857e-06)
(-0.000908024 -3.77243e-06 3.7342e-06)
(-0.000927051 -6.30466e-06 2.87503e-06)
(-0.000858904 -2.23527e-07 3.02815e-06)
(-0.000859518 -4.57468e-07 3.59773e-06)
(-0.000862036 -8.80012e-07 3.55226e-06)
(-0.00086643 -1.38156e-06 3.40144e-06)
(-0.000873045 -2.0136e-06 3.18024e-06)
(-0.000882602 -2.89053e-06 2.87178e-06)
(-0.000896351 -4.35875e-06 2.45083e-06)
(-0.000918167 -7.09737e-06 1.88924e-06)
(-0.00084644 -2.57774e-07 2.16159e-06)
(-0.000847264 -5.21851e-07 2.57079e-06)
(-0.000850126 -9.90306e-07 2.53274e-06)
(-0.00085506 -1.54618e-06 2.41474e-06)
(-0.000862449 -2.24345e-06 2.24466e-06)
(-0.000873069 -3.20009e-06 2.01421e-06)
(-0.000888236 -4.76849e-06 1.71208e-06)
(-0.000911949 -7.62329e-06 1.32891e-06)
(-0.000837595 -2.83051e-07 1.52365e-06)
(-0.00083856 -5.70096e-07 1.81175e-06)
(-0.000841682 -1.07445e-06 1.78199e-06)
(-0.000847026 -1.67087e-06 1.69407e-06)
(-0.000854997 -2.41412e-06 1.56902e-06)
(-0.000866396 -3.42352e-06 1.40308e-06)
(-0.00088257 -5.05455e-06 1.19126e-06)
(-0.000907581 -7.98206e-06 9.30362e-07)
(-0.000831511 -3.01135e-07 1.01526e-06)
(-0.000832571 -6.04765e-07 1.20705e-06)
(-0.000835879 -1.13523e-06 1.18601e-06)
(-0.000841519 -1.76034e-06 1.1255e-06)
(-0.000849902 -2.53489e-06 1.04024e-06)
(-0.000861845 -3.57878e-06 9.28656e-07)
(-0.000878708 -5.24964e-06 7.88457e-07)
(-0.000904589 -8.22417e-06 6.17775e-07)
(-0.000827684 -3.13066e-07 5.81157e-07)
(-0.000828802 -6.27424e-07 6.90621e-07)
(-0.00083223 -1.17521e-06 6.7841e-07)
(-0.000838059 -1.81904e-06 6.43226e-07)
(-0.000846706 -2.61357e-06 5.93914e-07)
(-0.000858993 -3.67914e-06 5.30029e-07)
(-0.000876286 -5.37574e-06 4.49542e-07)
(-0.000902707 -8.37837e-06 3.46949e-07)
(-0.000825854 -3.19376e-07 1.88378e-07)
(-0.000827006 -6.38536e-07 2.23531e-07)
(-0.000830489 -1.19398e-06 2.19753e-07)
(-0.000836409 -1.8471e-06 2.083e-07)
(-0.000845182 -2.65092e-06 1.92268e-07)
(-0.000857629 -3.72725e-06 1.71653e-07)
(-0.000875121 -5.44102e-06 1.45178e-07)
(-0.000901879 -8.45211e-06 1.08378e-07)
(1.13077e-05 -0.00113956 -9.86196e-07)
(1.18661e-05 -0.00114323 -8.3836e-07)
(1.23873e-05 -0.00114616 -6.69958e-07)
(1.27835e-05 -0.00114847 -5.21832e-07)
(1.30767e-05 -0.00115024 -3.91006e-07)
(1.32868e-05 -0.00115152 -2.72808e-07)
(1.34306e-05 -0.00115236 -1.66012e-07)
(1.35055e-05 -0.00115283 -5.78898e-08)
(1.07333e-05 -0.00109747 -3.23353e-07)
(1.10861e-05 -0.00109878 -2.9851e-07)
(1.14951e-05 -0.00109989 -2.50886e-07)
(1.18192e-05 -0.0011008 -2.02547e-07)
(1.20647e-05 -0.00110151 -1.55909e-07)
(1.22434e-05 -0.00110204 -1.10734e-07)
(1.23687e-05 -0.0011024 -6.67961e-08)
(1.24387e-05 -0.00110257 -2.25708e-08)
(1.07338e-05 -0.00105712 1.29308e-07)
(1.10872e-05 -0.00105654 1.24779e-07)
(1.1494e-05 -0.00105609 9.54584e-08)
(1.18153e-05 -0.00105577 6.74789e-08)
(1.20582e-05 -0.00105555 4.5425e-08)
(1.22347e-05 -0.00105541 2.87838e-08)
(1.23586e-05 -0.00105532 1.65634e-08)
(1.24277e-05 -0.00105528 5.73912e-09)
(1.13263e-05 -0.00101504 7.95589e-07)
(1.18919e-05 -0.00101212 6.58727e-07)
(1.24086e-05 -0.00100987 5.05786e-07)
(1.27978e-05 -0.00100817 3.78169e-07)
(1.3084e-05 -0.00100692 2.73189e-07)
(1.32882e-05 -0.00100604 1.85436e-07)
(1.34278e-05 -0.00100548 1.12584e-07)
(1.35008e-05 -0.00100515 4.00141e-08)
)
;
        traction        nonuniform List<vector> 
192
(
(26.7942 0.00190733 -0.134472)
(26.8085 0.00498462 -0.160391)
(26.7772 0.0112604 -0.160188)
(26.7157 0.0181257 -0.155858)
(26.6222 0.0264028 -0.149084)
(26.487 0.0377082 -0.139021)
(26.293 0.0569026 -0.123792)
(25.9793 0.0943222 -0.0980083)
(27.3935 0.0034061 -0.0896089)
(27.3884 0.00730142 -0.10684)
(27.3441 0.0145975 -0.106025)
(27.2645 0.0231373 -0.10234)
(27.1437 0.033824 -0.0967993)
(26.9683 0.0486382 -0.0888082)
(26.7147 0.0735809 -0.077344)
(26.3087 0.120254 -0.0606489)
(27.7907 0.00440487 -0.0627403)
(27.7773 0.00905942 -0.0750048)
(27.7233 0.0173705 -0.0742265)
(27.6289 0.0272816 -0.0712353)
(27.4865 0.039757 -0.066842)
(27.2806 0.0569365 -0.0607228)
(26.9843 0.085104 -0.0523946)
(26.5182 0.135697 -0.0413549)
(28.0762 0.00507141 -0.0454687)
(28.0584 0.010331 -0.0544183)
(27.997 0.0195624 -0.0537641)
(27.8909 0.0305572 -0.0514196)
(27.7317 0.0443295 -0.0480322)
(27.5026 0.0630869 -0.0434433)
(27.1755 0.0932158 -0.0374349)
(26.6683 0.146038 -0.0298516)
(28.2811 0.00556398 -0.0324353)
(28.2603 0.0112854 -0.0388172)
(28.1933 0.0212365 -0.038304)
(28.0783 0.0330426 -0.0365551)
(27.9065 0.0477333 -0.0340599)
(27.6604 0.0675421 -0.0307469)
(27.3113 0.0989078 -0.0265191)
(26.7759 0.153137 -0.0213331)
(28.4234 0.00591708 -0.0218117)
(28.4006 0.0119725 -0.0261023)
(28.3295 0.0224473 -0.0257394)
(28.2081 0.034829 -0.0245348)
(28.0273 0.0501478 -0.0228311)
(27.7694 0.0706481 -0.0205989)
(27.4052 0.102806 -0.0177927)
(26.8508 0.157951 -0.014389)
(28.5135 0.00615074 -0.0125628)
(28.4894 0.0124223 -0.0150284)
(28.4158 0.023245 -0.0148188)
(28.2903 0.0360036 -0.014118)
(28.1037 0.0517248 -0.0131318)
(27.8383 0.0726623 -0.0118519)
(27.4647 0.105336 -0.0102373)
(26.8984 0.16103 -0.00818961)
(28.5567 0.00627479 -0.00408497)
(28.532 0.0126445 -0.00487923)
(28.4571 0.0236193 -0.00481554)
(28.3296 0.0365652 -0.00458744)
(28.1404 0.0524745 -0.00426669)
(27.8714 0.0736316 -0.00385339)
(27.4935 0.10665 -0.00332146)
(26.9199 0.162516 -0.00258841)
(0.234232 0.00155084 24.637)
(0.280235 0.00273965 24.6191)
(0.281888 0.00425265 24.6052)
(0.278159 0.00626843 24.5849)
(0.272465 0.00867633 24.5561)
(0.264553 0.0115006 24.5171)
(0.253912 0.0147025 24.4661)
(0.242312 0.0172131 24.4015)
(0.215458 0.000453242 23.565)
(0.257875 0.000808438 23.5605)
(0.259292 0.00121608 23.5564)
(0.256048 0.00176617 23.5504)
(0.251258 0.00240225 23.542)
(0.244806 0.00308729 23.5309)
(0.236532 0.00366528 23.517)
(0.229457 0.00347336 23.5009)
(0.215181 -0.00057949 22.5593)
(0.257546 -0.000979277 22.564)
(0.258951 -0.00149117 22.5688)
(0.255708 -0.00215167 22.5758)
(0.250929 -0.00293722 22.5858)
(0.244501 -0.00386092 22.5992)
(0.236268 -0.00490093 22.6167)
(0.22925 -0.00564749 22.6389)
(0.233687 -0.00172299 21.4909)
(0.279539 -0.00293532 21.5091)
(0.281144 -0.00453631 21.5238)
(0.277407 -0.00663671 21.5451)
(0.271722 -0.00916805 21.5754)
(0.263841 -0.0121977 21.6164)
(0.253261 -0.0158268 21.6704)
(0.241752 -0.0192719 21.7405)
(-19.363 -0.00206474 0.146824)
(-19.3475 -0.00539066 0.174201)
(-19.3789 -0.0122737 0.173839)
(-19.4404 -0.0197148 0.1691)
(-19.5338 -0.0286875 0.161675)
(-19.6683 -0.0410367 0.150616)
(-19.8613 -0.0624911 0.133789)
(-20.1761 -0.106122 0.104865)
(-18.7816 -0.00369291 0.0947413)
(-18.7863 -0.00789443 0.112273)
(-18.8306 -0.0158645 0.111237)
(-18.9102 -0.0251302 0.107241)
(-19.0307 -0.0367334 0.10123)
(-19.2052 -0.0529437 0.0925409)
(-19.4577 -0.0808377 0.0800185)
(-19.8654 -0.1351 0.0616077)
(-18.4051 -0.00478987 0.064889)
(-18.4182 -0.00980289 0.0770943)
(-18.4722 -0.0188574 0.0761199)
(-18.5664 -0.0296049 0.0728881)
(-18.7081 -0.0431486 0.0681481)
(-18.9129 -0.06194 0.0615382)
(-19.2075 -0.0934018 0.0525179)
(-19.675 -0.152086 0.0404836)
(-18.138 -0.00552373 0.0463197)
(-18.1556 -0.0111825 0.0550883)
(-18.217 -0.0212208 0.054273)
(-18.3227 -0.0331325 0.0517444)
(-18.481 -0.048074 0.0480998)
(-18.7086 -0.0685733 0.0431617)
(-19.0336 -0.102182 0.0366875)
(-19.5418 -0.163356 0.0284766)
(-17.9485 -0.00606538 0.0326497)
(-17.9691 -0.0122163 0.0388231)
(-18.036 -0.023024 0.0381856)
(-18.1506 -0.0358044 0.0363015)
(-18.3214 -0.0517312 0.0336219)
(-18.5656 -0.0733611 0.0300661)
(-18.9122 -0.108312 0.0255271)
(-19.4482 -0.171044 0.0199363)
(-17.8181 -0.00645288 0.0217555)
(-17.8408 -0.0129593 0.0258653)
(-17.9117 -0.0243264 0.0254145)
(-18.0325 -0.0377215 0.0241178)
(-18.2122 -0.0543192 0.0222908)
(-18.4681 -0.0766882 0.0198998)
(-18.8294 -0.112492 0.0168955)
(-19.3841 -0.176232 0.013238)
(-17.7361 -0.00670857 0.0124534)
(-17.7601 -0.0134448 0.014799)
(-17.8335 -0.0251831 0.0145374)
(-17.9584 -0.0389794 0.0137834)
(-18.1437 -0.0560052 0.0127267)
(-18.407 -0.0788387 0.0113578)
(-18.7775 -0.115194 0.00963305)
(-19.3437 -0.179537 0.00743463)
(-17.6969 -0.00684377 0.00403667)
(-17.7216 -0.0136829 0.00478996)
(-17.7962 -0.0255853 0.00470898)
(-17.9231 -0.0395806 0.00446357)
(-18.111 -0.0568055 0.00412003)
(-18.3778 -0.0798697 0.00367828)
(-18.7526 -0.116593 0.00311095)
(-19.326 -0.181117 0.00232238)
(0.242309 -24.4191 -0.0211328)
(0.254273 -24.4977 -0.0179648)
(0.265441 -24.5605 -0.0143563)
(0.273931 -24.61 -0.0111821)
(0.280215 -24.6479 -0.00837869)
(0.284717 -24.6755 -0.00584588)
(0.287799 -24.6935 -0.0035574)
(0.289404 -24.7035 -0.0012405)
(0.229999 -23.5171 -0.006929)
(0.237559 -23.5453 -0.00639663)
(0.246324 -23.5691 -0.00537612)
(0.253268 -23.5885 -0.00434029)
(0.25853 -23.6038 -0.00334091)
(0.262358 -23.6152 -0.00237288)
(0.265043 -23.6228 -0.00143135)
(0.266544 -23.6265 -0.00048366)
(0.23001 -22.6525 0.00277088)
(0.237582 -22.6402 0.00267384)
(0.2463 -22.6305 0.00204554)
(0.253185 -22.6237 0.00144598)
(0.25839 -22.6189 0.000973392)
(0.262173 -22.6158 0.000616796)
(0.264827 -22.614 0.00035493)
(0.266308 -22.6131 0.000122981)
(0.242706 -21.7508 0.0170483)
(0.254825 -21.6882 0.0141156)
(0.265899 -21.64 0.0108383)
(0.274239 -21.6037 0.00810362)
(0.280372 -21.5769 0.00585405)
(0.284748 -21.558 0.00397363)
(0.287739 -21.5459 0.00241252)
(0.289303 -21.5389 0.000857445)
)
;
        pressure        uniform 0;
        value           nonuniform List<vector> 
192
(
(0.000973013 0.000776909 0.00056114)
(0.00183218 0.00126768 0.000704693)
(0.00320735 0.00173366 0.00077629)
(0.00465761 0.00198397 0.000767761)
(0.00619747 0.00208469 0.000742623)
(0.00774266 0.00206401 0.000719283)
(0.00925393 0.00196712 0.000711719)
(0.0107132 0.00183657 0.000724407)
(0.000990878 0.000802503 0.000311036)
(0.00200651 0.00121671 0.000487133)
(0.00334368 0.00167265 0.000589449)
(0.00478766 0.0019265 0.000624318)
(0.0063028 0.00203182 0.000633392)
(0.00782733 0.00201756 0.000635384)
(0.00932333 0.00192688 0.000642895)
(0.0107765 0.00180302 0.000661689)
(0.00102817 0.000836335 0.000182645)
(0.00208889 0.00120718 0.00032892)
(0.00344518 0.00163284 0.000429635)
(0.00488903 0.0018761 0.000486746)
(0.00639596 0.00197862 0.000518591)
(0.00791056 0.00196775 0.000539508)
(0.00939887 0.00188365 0.000559022)
(0.0108489 0.00176847 0.00058223)
(0.00105317 0.0008579 0.000111602)
(0.00213763 0.00120788 0.000224011)
(0.00351252 0.00161414 0.000309703)
(0.00496407 0.00184338 0.000368822)
(0.00647207 0.00193942 0.000409382)
(0.00798479 0.00192778 0.000439184)
(0.00947116 0.00184685 0.000464479)
(0.0109211 0.00173722 0.00048879)
(0.00106884 0.000871162 6.96448e-05)
(0.00216808 0.0012114 0.000151637)
(0.00355714 0.00160654 0.000218549)
(0.00501778 0.00182519 0.000269701)
(0.00653075 0.0019144 0.000308501)
(0.00804574 0.00189995 0.000338737)
(0.00953344 0.00181951 0.000363911)
(0.0109851 0.00171258 0.000385987)
(0.00107868 0.000879361 4.26522e-05)
(0.00218744 0.00121514 9.82647e-05)
(0.00358656 0.00160421 0.000145753)
(0.00505496 0.00181599 0.000184249)
(0.00657338 0.00189983 0.000215106)
(0.00809194 0.00188234 0.000240009)
(0.00958216 0.00180116 0.000260694)
(0.0110361 0.00169518 0.000278012)
(0.00108454 0.00088419 2.32516e-05)
(0.0021991 0.00121803 5.54665e-05)
(0.0036047 0.00160399 8.37524e-05)
(0.00507854 0.00181178 0.00010745)
(0.00660121 0.00189213 0.000127026)
(0.00812287 0.00187233 0.000143146)
(0.00961542 0.0017902 0.000156548)
(0.0110714 0.00168439 0.000167498)
(0.00108729 0.000886451 7.40482e-06)
(0.00220461 0.00121958 1.79558e-05)
(0.00361338 0.00160423 2.73434e-05)
(0.00509001 0.00181021 3.53268e-05)
(0.00661495 0.00188886 4.20115e-05)
(0.00813836 0.00186786 4.75661e-05)
(0.00963225 0.00178514 5.21887e-05)
(0.0110894 0.00167927 5.59245e-05)
(0.000447947 0.000470026 0.000847172)
(0.00155638 0.000735133 0.000695429)
(0.00292181 0.00107386 0.000800153)
(0.00443528 0.00124499 0.00077505)
(0.00602493 0.00131509 0.000752016)
(0.00761242 0.00129951 0.000730247)
(0.00915042 0.0012284 0.000724553)
(0.0106187 0.00112653 0.000736887)
(0.000157611 0.000168357 0.000366914)
(0.00121947 0.000112723 0.000464825)
(0.0026164 0.000155593 0.000541787)
(0.00418334 0.000129004 0.000585414)
(0.00581486 6.56534e-05 0.000616447)
(0.00743507 -2.55646e-05 0.000640828)
(0.00899645 -0.000131906 0.000664998)
(0.010476 -0.000244391 0.000689932)
(8.98937e-05 -0.000107725 -1.16427e-05)
(0.00112442 -0.00035248 0.000124695)
(0.00250937 -0.000638514 0.000260424)
(0.00407495 -0.000888675 0.00037725)
(0.00570364 -0.00110873 0.000471615)
(0.00732097 -0.00129578 0.000545901)
(0.00888007 -0.00145294 0.000604558)
(0.0103584 -0.00158573 0.000656334)
(0.000219039 -0.000440343 -0.000484239)
(0.00126949 -0.000976826 -0.000150787)
(0.00260071 -0.00156926 -3.59654e-06)
(0.00410489 -0.0020224 0.000186171)
(0.0056845 -0.00237314 0.000337932)
(0.00726394 -0.00263128 0.000457937)
(0.00879627 -0.0028195 0.000545842)
(0.0102619 -0.00296056 0.000609459)
(0.000563838 -0.00085488 -0.000366113)
(0.00146076 -0.00165344 -0.000214036)
(0.0027587 -0.00236279 -5.3058e-05)
(0.00419267 -0.00286576 0.000123956)
(0.00571931 -0.00321932 0.000274767)
(0.00725981 -0.00345202 0.000393365)
(0.0087703 -0.0036036 0.000479372)
(0.0102315 -0.00371383 0.000540304)
(0.000651334 -0.000926666 -0.000203812)
(0.0016039 -0.00171376 -0.000122957)
(0.00288311 -0.00242861 -9.8448e-06)
(0.00430668 -0.00293054 0.000115734)
(0.00581241 -0.00327869 0.000227005)
(0.00733593 -0.00350785 0.000316955)
(0.00883573 -0.00365868 0.000385072)
(0.0102943 -0.00377142 0.000436899)
(0.000702908 -0.000980651 -0.00010904)
(0.00168482 -0.00174761 -5.5965e-05)
(0.00297548 -0.00246369 2.07373e-05)
(0.00439745 -0.0029665 0.000107441)
(0.00589665 -0.00331576 0.000186594)
(0.00741296 -0.00354795 0.000252407)
(0.00890807 -0.00370369 0.000304591)
(0.0103661 -0.00382273 0.000347138)
(0.000731371 -0.00101337 -5.74334e-05)
(0.0017344 -0.00177163 -1.93252e-05)
(0.00303846 -0.00248907 3.42503e-05)
(0.00446591 -0.00299348 9.43174e-05)
(0.00596659 -0.0033454 0.000149861)
(0.00748256 -0.00358128 0.000197181)
(0.00897758 -0.00374171 0.000236185)
(0.0104371 -0.00386587 0.000269727)
(0.000748178 -0.0010335 -2.98504e-05)
(0.00176554 -0.00178931 -2.10559e-06)
(0.00308109 -0.0025092 3.52976e-05)
(0.0045159 -0.00301586 7.6575e-05)
(0.00602124 -0.00337043 0.00011498)
(0.0075401 -0.00360933 0.000148281)
(0.00903736 -0.00377313 0.000176547)
(0.0104993 -0.00390077 0.000201757)
(0.000758539 -0.00104608 -1.51282e-05)
(0.00178536 -0.00180195 4.01764e-06)
(0.00310955 -0.00252459 2.88967e-05)
(0.00455096 -0.00303354 5.59738e-05)
(0.00606131 -0.00339035 8.12455e-05)
(0.00758384 -0.00363143 0.000103425)
(0.00908393 -0.0037974 0.00012263)
(0.0105484 -0.00392725 0.000140146)
(0.000764689 -0.00105356 -7.03069e-06)
(0.00179731 -0.00181016 4.25402e-06)
(0.00312719 -0.00253502 1.85462e-05)
(0.00457337 -0.00304578 3.39574e-05)
(0.0060876 -0.0034042 4.83674e-05)
(0.00761315 -0.00364668 6.11109e-05)
(0.00911558 -0.00381392 7.2278e-05)
(0.010582 -0.00394507 8.25893e-05)
(0.000767577 -0.00105708 -2.04157e-06)
(0.00180297 -0.00181422 1.69119e-06)
(0.00313568 -0.00254029 6.35795e-06)
(0.0045843 -0.00305203 1.13674e-05)
(0.00610061 -0.00341127 1.60557e-05)
(0.00762782 -0.00365444 2.02171e-05)
(0.00913155 -0.00382228 2.38844e-05)
(0.010599 -0.00395402 2.72881e-05)
(0.0113472 0.00105963 0.000713143)
(0.0114126 0.0010267 0.000642002)
(0.01149 0.000994354 0.00055927)
(0.0115659 0.000964022 0.00046616)
(0.0116325 0.000939244 0.000366049)
(0.0116853 0.000921031 0.000262494)
(0.0117218 0.000909326 0.000157667)