/*--------------------------------*- C++ -*----------------------------------*\
| =========                 |                                                 |
| \\      /  F ield         | foam-extend: Open Source CFD                    |
|  \\    /   O peration     | Version:     3.1                                |
|   \\  /    A nd           | Web:         http://www.extend-project.de       |
|    \\/     M anipulation  |                                                 |
\*---------------------------------------------------------------------------*/
FoamFile
{
    version     2.0;
    format      ascii;
    class       volSymmTensorField;
    location    "0.6";
    object      epsilon;
}
// * * * * * * * * * * * * * * * * * * * * * * * * * * * * * * * * * * * * * //

dimensions      [0 0 0 0 0 0 0];

internalField   nonuniform List<symmTensor> 
256
(
(-0.0127516 0.0182764 -0.000781149 0.0411566 0.0120423 -0.00649978)
(-0.00464407 0.0155593 -0.00203742 0.00682 0.00607982 -0.00346311)
(0.00106589 0.0138194 -0.00212659 -0.015051 -0.0011854 0.000343395)
(0.0078184 0.01327 -0.000833406 -0.0464204 -0.00752986 0.00337232)
(-0.0213387 0.00649317 -0.000813572 0.0207503 -0.00115248 -0.0103765)
(-0.00937956 0.0180367 -0.00295409 0.00553698 -0.00024487 -0.005824)
(0.0019027 0.0177988 -0.00317054 -0.0129587 0.00146271 -3.9262e-05)
(0.0131767 0.00698087 -0.00102339 -0.0290339 0.00250941 0.00463766)
(-0.0164928 0.00772674 -0.00026215 0.018439 7.97255e-05 -0.00747588)
(-0.00896133 0.0162803 -0.00165049 0.00432264 0.000233399 -0.00466171)
(0.000965509 0.0163959 -0.00178196 -0.0108676 0.000619549 -0.00107377)
(0.00875501 0.00781351 -0.000393864 -0.0250333 0.000988956 0.0018916)
(-0.0132645 0.00620577 -0.000260395 0.0111402 -0.000848555 -0.00631701)
(-0.00755508 0.0137948 -0.00111575 0.00199215 -0.000162166 -0.00430057)
(-0.000101939 0.0138896 -0.00116442 -0.00856464 0.000515767 -0.0017566)
(0.00562192 0.00637706 -0.000305486 -0.0176703 0.00126253 0.000308033)
(-0.0099391 0.00503913 -0.000121701 0.00563372 -0.000809828 -0.00491621)
(-0.00622344 0.0109402 -0.000632582 0.000106868 -0.000212982 -0.00385943)
(-0.00102446 0.0109692 -0.000663282 -0.00666216 0.000294486 -0.0024447)
(0.00261499 0.00508685 -0.00015296 -0.0120152 0.000908682 -0.00135531)
(-0.00746719 0.00359526 -6.72079e-05 0.00125643 -0.000701941 -0.00390994)
(-0.00521034 0.00794704 -0.000316855 -0.00133644 -0.000230139 -0.00355794)
(-0.00177157 0.00794216 -0.000333928 -0.00513162 0.000139389 -0.00297356)
(0.000379257 0.00360961 -8.07623e-05 -0.00758081 0.000593419 -0.00260127)
(-0.00589167 0.00214879 -4.16425e-05 -0.00149623 -0.000449336 -0.0032103)
(-0.00454426 0.00502377 -9.01263e-05 -0.0022712 -0.000190103 -0.00334968)
(-0.00229671 0.00500791 -9.56213e-05 -0.00403324 2.45913e-05 -0.00336834)
(-0.00103077 0.00215949 -3.87968e-05 -0.0047045 0.000257901 -0.00349393)
(-0.00557312 0.000754768 6.85777e-06 -0.00243678 -0.000131357 -0.00282502)
(-0.00457479 0.002195 0.000154003 -0.00267081 -7.09975e-05 -0.00324157)
(-0.00221505 0.00216844 0.000156828 -0.00348415 -1.97931e-05 -0.00363691)
(-0.0012714 0.000744085 2.4476e-05 -0.00366943 2.15184e-05 -0.00404268)
(-0.0128233 0.0208735 -0.000604926 0.0367116 0.00875584 -0.00406647)
(-0.00435048 0.0188724 -0.00167142 0.0032687 0.00453579 -0.00206395)
(0.000980988 0.0173021 -0.00175974 -0.0164938 -0.000513719 0.000452006)
(0.007984 0.0161708 -0.000662963 -0.0470014 -0.00508574 0.00256844)
(-0.0215612 0.00733218 -0.000876428 0.0231197 0.00214662 -0.00799466)
(-0.00898689 0.019423 -0.00288465 0.00655978 0.00162112 -0.00430787)
(0.00158856 0.0191799 -0.00306859 -0.0145735 0.00163323 0.000279818)
(0.0133516 0.00767558 -0.00105266 -0.0320332 0.0012678 0.00419131)
(-0.0165391 0.00728423 -0.000440891 0.0184183 0.000362847 -0.00737985)
(-0.00867178 0.015803 -0.00196138 0.00440155 0.000660432 -0.00442018)
(0.000540602 0.015882 -0.00210696 -0.0110452 0.00132746 -0.000836861)
(0.00855816 0.00735619 -0.000658886 -0.0251743 0.00182662 0.00225765)
(-0.0130892 0.00562118 -0.000204162 0.0114664 -0.000625515 -0.00623788)
(-0.00731529 0.0127774 -0.00111702 0.002266 0.000118117 -0.00419577)
(-0.000552769 0.0128435 -0.0012025 -0.00843888 0.00100245 -0.00173697)
(0.00522188 0.00574554 -0.000338199 -0.0175972 0.00183441 0.000354697)
(-0.00978893 0.00433752 3.14092e-05 0.00570458 -0.000950858 -0.00502302)
(-0.00606783 0.00979287 -0.000471679 0.000281724 -0.000165093 -0.00389293)
(-0.00139541 0.00982014 -0.000525667 -0.00637016 0.000657633 -0.00245717)
(0.00225636 0.00438826 -6.06404e-05 -0.0116422 0.00146123 -0.00130656)
(-0.00733309 0.00301095 0.000171627 0.00127054 -0.000897205 -0.00402994)
(-0.00510583 0.00696422 -1.92627e-05 -0.00124052 -0.000262514 -0.00362366)
(-0.00203553 0.00697027 -4.97567e-05 -0.00485937 0.000356089 -0.00298937)
(9.7165e-05 0.00304442 0.000119633 -0.0072376 0.000964653 -0.00257374)
(-0.00580013 0.00174249 0.000254011 -0.00151286 -0.000602066 -0.00335795)
(-0.00448456 0.00432911 0.000295914 -0.00225386 -0.000231528 -0.00344607)
(-0.00243808 0.00432814 0.000286045 -0.00385938 0.000134736 -0.00336787)
(-0.00119568 0.00178111 0.00023903 -0.00449487 0.000465497 -0.00344926)
(-0.00549431 0.000602477 0.000354025 -0.00237765 -0.000216077 -0.00302643)
(-0.00452809 0.00187819 0.000593538 -0.00263292 -9.75833e-05 -0.0033973)
(-0.00228028 0.00185819 0.000599306 -0.00340855 3.2e-05 -0.00366189)
(-0.00136161 0.00059985 0.000370127 -0.00361111 0.000121696 -0.00402493)
(-0.0133498 0.0220307 -0.00040673 0.0366334 0.00566001 -0.00245798)
(-0.00446264 0.0200739 -0.0011148 0.00253618 0.00306185 -0.0012492)
(0.00123371 0.0185841 -0.0011836 -0.0171629 -4.75299e-05 0.000261496)
(0.00857387 0.0175051 -0.000483872 -0.0483589 -0.00288644 0.00157852)
(-0.0225845 0.00780952 -0.000716302 0.021887 0.0023772 -0.00533816)
(-0.00935143 0.0203432 -0.00204014 0.00582419 0.00171347 -0.0029059)
(0.00203414 0.0200564 -0.00215764 -0.0152124 0.00138313 4.69768e-05)
(0.014411 0.0079592 -0.000831058 -0.0320409 0.00083231 0.00265081)
(-0.0173225 0.0073867 -0.000478802 0.0178924 0.00100081 -0.00573184)
(-0.00907877 0.016229 -0.00153029 0.0041259 0.000984394 -0.00347446)
(0.000795592 0.0163104 -0.00161619 -0.0113965 0.00127617 -0.000873519)
(0.00918197 0.00747996 -0.000581918 -0.025355 0.00139555 0.00144932)
(-0.0135141 0.00560339 -0.000229445 0.0112532 5.78218e-05 -0.00541145)
(-0.00758852 0.0127816 -0.000896471 0.00216093 0.000433959 -0.0036545)
(-0.000508372 0.012859 -0.000957647 -0.00856081 0.00101052 -0.00169327)
(0.00544747 0.00573808 -0.000307877 -0.0176683 0.00145848 6.02556e-05)
(-0.0100064 0.00421405 -9.48193e-06 0.00570311 -0.000398403 -0.00480159)
(-0.00624383 0.00960745 -0.000337632 0.000296323 8.91085e-05 -0.00364165)
(-0.0014443 0.00964998 -0.000377088 -0.0063999 0.000690015 -0.00235819)
(0.00227449 0.00428878 -6.2125e-05 -0.0117034 0.00119232 -0.00121963)
(-0.00739041 0.00286906 0.000149018 0.00141473 -0.000504964 -0.00421425)
(-0.00519432 0.00672182 8.26244e-05 -0.00117598 -8.18631e-05 -0.00357421)
(-0.00211621 0.0067445 6.06668e-05 -0.00486316 0.000396725 -0.00286056)
(4.45393e-06 0.00292638 0.000119538 -0.00734486 0.00079956 -0.00223842)
(-0.00574977 0.00161972 0.00025461 -0.00126829 -0.000376363 -0.0038056)
(-0.00450306 0.00412968 0.000388528 -0.00216327 -0.000119429 -0.00354031)
(-0.00251216 0.00414294 0.000381578 -0.00387269 0.000174321 -0.00323519)
(-0.00132784 0.00168126 0.000245884 -0.00466336 0.000398855 -0.00297586)
(-0.00535742 0.000571102 0.00035775 -0.00211898 -0.000136458 -0.00365372)
(-0.00448533 0.00180375 0.000647041 -0.00251933 -5.77475e-05 -0.00360266)
(-0.00235229 0.00178917 0.000651928 -0.00342041 4.66644e-05 -0.00354318)
(-0.00152135 0.000572992 0.000368111 -0.00376287 0.000102603 -0.00348871)
(-0.0137807 0.022641 -0.000254761 0.0369068 0.00367022 -0.00152588)
(-0.00457211 0.0206327 -0.000707346 0.00227743 0.00208521 -0.000808187)
(0.00141274 0.0191804 -0.000753462 -0.0175182 0.00017982 9.99346e-05)
(0.00901856 0.0181878 -0.000312674 -0.0492655 -0.00155701 0.000889692)
(-0.0233562 0.00806903 -0.00048447 0.0210738 0.00202376 -0.00356098)
(-0.00962594 0.0209544 -0.00134601 0.00532163 0.00145783 -0.00203752)
(0.00237615 0.0206578 -0.00141728 -0.0155483 0.00108473 -0.000174661)
(0.0152299 0.00816348 -0.000558408 -0.0319542 0.00057809 0.00146339)
(-0.0179528 0.0075938 -0.000364689 0.0172893 0.00118549 -0.00427664)
(-0.00938583 0.0166924 -0.00107633 0.0037611 0.00100633 -0.00272039)
(0.00104324 0.0167703 -0.00112262 -0.0116684 0.00104938 -0.000928254)
(0.00977147 0.00767805 -0.000419968 -0.0254292 0.000948786 0.000677411)
(-0.0139593 0.00571997 -0.00018869 0.0108963 0.000500735 -0.00447478)
(-0.00783725 0.0130611 -0.000651299 0.00194201 0.000586869 -0.00312285)
(-0.000400208 0.0131468 -0.000685651 -0.00874118 0.000857108 -0.00163984)
(0.00578628 0.00586197 -0.000232206 -0.0177603 0.000996636 -0.000287976)
(-0.0102596 0.0042648 -1.72892e-05 0.00557778 7.62765e-05 -0.00437787)
(-0.00641635 0.00974478 -0.000236091 0.000203305 0.000276914 -0.00333819)
(-0.00142577 0.00979781 -0.000258486 -0.00652274 0.000603599 -0.00223835)
(0.00240192 0.00435246 -4.63446e-05 -0.0118322 0.000819968 -0.00121847)
(-0.00748774 0.00287718 0.000117838 0.00147194 -0.000111407 -0.00419795)
(-0.00529332 0.00676747 9.86739e-05 -0.00117938 8.64433e-05 -0.00346276)
(-0.00214274 0.00680047 8.6341e-05 -0.00495296 0.000363889 -0.00271028)
(-5.11467e-06 0.00294727 0.000101779 -0.00751494 0.00055253 -0.00199382)
(-0.0057276 0.00160584 0.000215174 -0.00108468 -0.00012448 -0.00407525)
(-0.00453903 0.00413511 0.000352918 -0.00210802 -1.11084e-06 -0.00357377)
(-0.00255524 0.00415628 0.000348869 -0.00394264 0.000176391 -0.00308211)
(-0.00141984 0.00167835 0.000210275 -0.00486355 0.000280603 -0.00258956)
(-0.00525133 0.000572429 0.000307144 -0.00189679 -5.16938e-05 -0.00409484)
(-0.00447392 0.00180839 0.000560491 -0.00243075 -1.4406e-05 -0.00373306)
(-0.00240171 0.00179674 0.000562884 -0.003473 5.58924e-05 -0.00340234)
(-0.0016625 0.000575777 0.000312574 -0.00394486 7.88161e-05 -0.00304134)
(-0.014072 0.0229878 -0.000154216 0.0371588 0.00238728 -0.0010088)
(-0.00464724 0.0209276 -0.000435722 0.0021652 0.00141735 -0.000568278)
(0.00152353 0.0194937 -0.00046402 -0.0177317 0.000250854 -6.06504e-06)
(0.00931247 0.0185649 -0.000191843 -0.0498579 -0.000811963 0.000479767)
(-0.0238779 0.00822485 -0.00030719 0.0206489 0.00156046 -0.00250522)
(-0.00979951 0.0213434 -0.000851914 0.00503272 0.00112883 -0.00152657)
(0.00259704 0.0210471 -0.000893416 -0.015753 0.000806867 -0.000323485)
(0.0157859 0.00829924 -0.000351843 -0.0319495 0.000404283 0.000728096)
(-0.0183903 0.00775454 -0.000246731 0.016865 0.0010845 -0.00329413)
(-0.00957516 0.0170496 -0.000710502 0.00347659 0.00086767 -0.00221197)
(0.00121896 0.0171262 -0.000735154 -0.0118675 0.000795162 -0.000962184)
(0.0102018 0.00783359 -0.000276737 -0.0254985 0.000620146 0.000156178)
(-0.0142895 0.00584283 -0.000132396 0.0105722 0.000643715 -0.00374852)
(-0.00799989 0.0133434 -0.000438995 0.00172793 0.000584362 -0.00271559)
(-0.00030703 0.0134327 -0.00045734 -0.00890636 0.000663137 -0.00158694)
(0.0060632 0.00598771 -0.000155656 -0.0178465 0.000638692 -0.000548325)
(-0.0104662 0.00434977 -1.24921e-05 0.00540825 0.000320839 -0.00397443)
(-0.0065369 0.00994306 -0.000153571 7.69653e-05 0.000346577 -0.00307171)
(-0.00139507 0.0100008 -0.000165628 -0.0066525 0.000479326 -0.00213229)
(0.00253226 0.0044429 -2.79713e-05 -0.0119447 0.000520311 -0.00124064)
(-0.00758459 0.00292687 8.76771e-05 0.00144711 0.000130197 -0.00409043)
(-0.00536873 0.0068912 8.88414e-05 -0.00122609 0.000177615 -0.00333399)
(-0.00215019 0.00692849 8.20141e-05 -0.00505205 0.000300387 -0.00258135)
(1.75978e-05 0.00300221 7.89025e-05 -0.00764978 0.000347652 -0.00183885)
(-0.00573716 0.0016279 0.000163711 -0.0010004 4.84966e-05 -0.00419022)
(-0.00457453 0.00420382 0.000279784 -0.00209595 7.50746e-05 -0.00355502)
(-0.00258237 0.00422792 0.000276824 -0.00401604 0.000155547 -0.00295065)
(-0.00146851 0.00170438 0.000159999 -0.00501122 0.000174741 -0.00232467)
(-0.00520557 0.000584018 0.000238038 -0.00176843 1.63799e-05 -0.00434022)
(-0.00448295 0.00183815 0.000437276 -0.00238712 1.79175e-05 -0.00378185)
(-0.00243543 0.00182742 0.000436767 -0.00352906 5.24619e-05 -0.00327277)
(-0.00174982 0.000587167 0.000238212 -0.00408294 4.74228e-05 -0.00271857)
(-0.0142554 0.0231929 -8.88854e-05 0.0373488 0.00150286 -0.000726919)
(-0.00469482 0.0210968 -0.000256883 0.00211316 0.000923441 -0.000438225)
(0.00159103 0.0196724 -0.000273074 -0.0178664 0.000228582 -6.88244e-05)
(0.0094963 0.0187845 -0.000111495 -0.0502452 -0.000405608 0.000249319)
(-0.0242076 0.00831937 -0.000182383 0.0204416 0.00109463 -0.0019029)
(-0.00990572 0.0215846 -0.000511249 0.00487311 0.000794858 -0.00123377)
(0.00273487 0.0212894 -0.000534165 -0.0158865 0.000556293 -0.000411039)
(0.0161393 0.00838399 -0.00020791 -0.0319911 0.000270074 0.000306561)
(-0.0186698 0.00786254 -0.000151725 0.0166095 0.000838988 -0.00268829)
(-0.00968833 0.0172918 -0.000437675 0.00328795 0.000651864 -0.00189366)
(0.00133435 0.0173679 -0.000450372 -0.0120078 0.000552142 -0.000976612)
(0.0104846 0.00793911 -0.000168051 -0.0255711 0.000386439 -0.000154153)
(-0.0145047 0.00593553 -8.20431e-05 0.0103401 0.000577404 -0.00326173)
(-0.00809855 0.0135561 -0.0002731 0.00156376 0.000476599 -0.00243833)
(-0.000239949 0.0136469 -0.000282512 -0.00903362 0.000466994 -0.00154163)
(0.00625399 0.00608137 -9.45418e-05 -0.0179205 0.000387201 -0.000708861)
(-0.010607 0.00442172 -5.17448e-06 0.00525702 0.000362081 -0.00366878)
(-0.00661309 0.0101094 -9.10719e-05 -3.65006e-05 0.000315127 -0.00287244)
(-0.00136852 0.010169 -9.73367e-05 -0.00675801 0.000344488 -0.00204998)
(0.00262961 0.00451689 -1.35311e-05 -0.0120273 0.000309699 -0.00125747)
(-0.00765741 0.00297497 6.15556e-05 0.00138949 0.000211497 -0.00396925)
(-0.00542021 0.00700673 6.91155e-05 -0.00128357 0.000188225 -0.00322087)
(-0.00215157 0.00704549 6.53002e-05 -0.00513341 0.000222385 -0.00248321)
(4.1604e-05 0.00305203 5.64961e-05 -0.00773954 0.000203109 -0.0017442)
(-0.00575644 0.00165342 0.000114185 -0.000979299 0.00011944 -0.00421568)
(-0.00460446 0.00427296 0.000198972 -0.00210761 9.83743e-05 -0.00351361)
(-0.00260049 0.00429776 0.000196593 -0.00407559 0.000120236 -0.00284938)
(-0.00149509 0.00173059 0.000111058 -0.00510533 9.8675e-05 -0.00215676)
(-0.00519491 0.000593898 0.000169375 -0.00170934 4.63095e-05 -0.00444383)
(-0.0045014 0.00186638 0.000310321 -0.0023749 3.05383e-05 -0.00377798)
(-0.00245904 0.00185578 0.000308167 -0.0035771 4.19655e-05 -0.00316871)
(-0.00180174 0.000596409 0.000166683 -0.00417638 2.45041e-05 -0.00251038)
(-0.0143624 0.0233111 -4.56609e-05 0.0374746 0.000832899 -0.000580827)
(-0.0047225 0.0211936 -0.000134504 0.00208943 0.000523613 -0.000370635)
(0.00162994 0.0197744 -0.000142697 -0.0179479 0.000154228 -0.000102768)
(0.00960327 0.0189102 -5.75666e-05 -0.0504828 -0.000183868 0.000128368)
(-0.0244001 0.00837398 -9.54244e-05 0.0203474 0.000646808 -0.00158064)
(-0.00996653 0.021725 -0.000270477 0.00478957 0.000470834 -0.00107532)
(0.00281539 0.0214304 -0.000281766 -0.0159696 0.000326016 -0.000457559)
(0.0163465 0.00843319 -0.00010833 -0.0320385 0.000155805 8.31528e-05)
(-0.0188336 0.0079276 -8.08344e-05 0.0164713 0.000523742 -0.00234734)
(-0.00975214 0.0174385 -0.000234941 0.00317688 0.000400833 -0.00171086)
(0.00140366 0.0175143 -0.000240873 -0.0120975 0.000324398 -0.000980466)
(0.0106531 0.00800281 -8.88896e-05 -0.025631 0.000211585 -0.000321054)
(-0.0146316 0.00599428 -4.34905e-05 0.0101985 0.000387805 -0.00297301)
(-0.00815419 0.0136915 -0.000147016 0.00145793 0.000306862 -0.00227012)
(-0.000197694 0.0137827 -0.00015142 -0.00911816 0.000276851 -0.00150901)
(0.00637003 0.00614033 -4.965e-05 -0.0179752 0.00020704 -0.000795262)
(-0.0106914 0.00446954 -1.01068e-06 0.00515164 0.000266841 -0.00347337)
(-0.00665709 0.0102202 -4.66192e-05 -0.000116691 0.000214683 -0.00274376)
(-0.00135053 0.0102804 -4.96071e-05 -0.00682964 0.000207112 -0.00199449)
(0.00269064 0.00456534 -5.19071e-06 -0.0120809 0.00016265 -0.00126483)
(-0.00770376 0.00300838 3.67178e-05 0.00133603 0.000173263 -0.00387608)
(-0.00545181 0.00708672 4.37082e-05 -0.00133033 0.000137362 -0.00314011)
(-0.00215166 0.00712579 4.172e-05 -0.00518881 0.000136401 -0.00241773)
(5.81349e-05 0.00308579 3.39835e-05 -0.00779273 0.000104514 -0.00168862)
(-0.00577405 0.00167181 6.71735e-05 -0.000984355 0.000106235 -0.00420671)
(-0.00462594 0.00432149 0.000118443 -0.00212477 7.74701e-05 -0.00347354)
(-0.00261234 0.0043462 0.000116818 -0.00411618 7.56929e-05 -0.00278091)
(-0.00150953 0.00174859 6.49843e-05 -0.00515922 4.86061e-05 -0.00205789)
(-0.00519891 0.000600159 0.000101171 -0.00168921 4.22264e-05 -0.0044751)
(-0.00451937 0.0018856 0.000185197 -0.00237737 2.57205e-05 -0.00375534)
(-0.00247488 0.00187487 0.000183078 -0.00361123 2.68358e-05 -0.00309595)
(-0.0018306 0.000602106 9.82984e-05 -0.00423248 1.05187e-05 -0.00238653)
(-0.0144116 0.0233659 -1.40519e-05 0.0375373 0.000267272 -0.000518753)
(-0.00473518 0.0212386 -4.179e-05 0.00208026 0.00016993 -0.000341796)
(0.00164782 0.0198217 -4.42778e-05 -0.0179866 5.40025e-05 -0.00011747)
(0.00965248 0.0189683 -1.77492e-05 -0.0505966 -5.2324e-05 7.6764e-05)
(-0.0244886 0.00839913 -2.96291e-05 0.0203118 0.000213823 -0.00144096)
(-0.0099942 0.0217898 -8.44317e-05 0.00475385 0.00015583 -0.00100596)
(0.00285261 0.0214956 -8.78054e-05 -0.0160099 0.000107419 -0.000477352)
(0.0164422 0.00845584 -3.35359e-05 -0.0320675 5.09987e-05 -1.25932e-05)
(-0.0189089 0.00795805 -2.52959e-05 0.0164118 0.0001775 -0.00219505)
(-0.00978092 0.0175073 -7.3808e-05 0.00312597 0.00013496 -0.00162796)
(0.00143614 0.0175829 -7.55261e-05 -0.0121413 0.000106966 -0.00098067)
(0.0107314 0.0080326 -2.77091e-05 -0.0256644 6.73907e-05 -0.000392859)
(-0.01469 0.00602237 -1.35443e-05 0.0101326 0.000135596 -0.00284013)
(-0.00817924 0.0137563 -4.61983e-05 0.00140691 0.000105496 -0.00219138)
(-0.000177449 0.0138477 -4.748e-05 -0.00916004 9.16939e-05 -0.00149204)
(0.00642437 0.00616841 -1.54012e-05 -0.0180042 6.5077e-05 -0.000831972)
(-0.0107306 0.00449286 1.5495e-08 0.00509886 9.67848e-05 -0.00337956)
(-0.00667715 0.0102743 -1.41879e-05 -0.000157333 7.56529e-05 -0.00268129)
(-0.00134168 0.0103347 -1.50724e-05 -0.00686545 6.90885e-05 -0.00196664)
(0.00271948 0.00458879 -1.26614e-06 -0.0121074 5.05777e-05 -0.00126677)
(-0.00772592 0.00302491 1.21854e-05 0.00130569 6.52723e-05 -0.00382703)
(-0.00546681 0.00712637 1.4918e-05 -0.00135572 4.97967e-05 -0.00309863)
(-0.00215167 0.00716543 1.42924e-05 -0.00521654 4.59571e-05 -0.00238501)
(6.60502e-05 0.0031023 1.13016e-05 -0.00781734 3.20756e-05 -0.00166252)
(-0.00578393 0.00168091 2.21009e-05 -0.000992219 4.11196e-05 -0.00419512)
(-0.00463712 0.00434552 3.92479e-05 -0.00213599 2.88959e-05 -0.00345)
(-0.00261838 0.00437002 3.86635e-05 -0.00413659 2.58137e-05 -0.00274632)
(-0.00151623 0.00175726 2.13026e-05 -0.00518358 1.44661e-05 -0.0020119)
(-0.00520376 0.000603015 3.35551e-05 -0.00168502 1.63991e-05 -0.00447969)
(-0.00452996 0.00189497 6.15199e-05 -0.00238186 9.77433e-06 -0.00373806)
(-0.0024831 0.00188408 6.06674e-05 -0.00362887 9.20946e-06 -0.00305844)
(-0.00184389 0.000604633 3.23768e-05 -0.00425868 2.817e-06 -0.0023287)
)
;

boundaryField
{
    interface
    {
        type            calculated;
        value           nonuniform List<symmTensor> 
192
(
(-0.0483904 -9.12429e-06 0.000313887 0.0649745 0.014438 -0.00763197)
(-0.0191959 -1.17399e-05 0.000407298 0.026625 -0.00124064 -0.0120635)
(-0.0204803 -3.8272e-05 0.000412479 0.0250038 7.72565e-05 -0.00852398)
(-0.0146131 -5.74293e-05 0.00038492 0.0150221 -0.00120446 -0.00706328)
(-0.0108209 -7.38926e-05 0.000346182 0.00776713 -0.00115627 -0.00526706)
(-0.00764607 -8.9952e-05 0.000300087 0.00193812 -0.000988479 -0.0039711)
(-0.00573095 -0.000111642 0.000247382 -0.00161272 -0.000599985 -0.00308234)
(-0.00523963 -0.000147704 0.000185014 -0.00261462 -0.000164637 -0.00260892)
(-0.0475856 -7.5355e-06 0.000200495 0.0606848 0.0105329 -0.00483704)
(-0.0228459 -1.85592e-05 0.000261018 0.0290612 0.00264317 -0.00943669)
(-0.0204656 -4.88646e-05 0.00026303 0.0247564 0.00036356 -0.00857422)
(-0.0150001 -7.55537e-05 0.000245815 0.0153217 -0.000944763 -0.00705671)
(-0.0108857 -9.86673e-05 0.000221453 0.00779225 -0.00133168 -0.00543667)
(-0.0077034 -0.000121762 0.00019226 0.00195862 -0.00122292 -0.00411962)
(-0.00576894 -0.000152204 0.000158636 -0.00158481 -0.000787323 -0.00323157)
(-0.00527182 -0.000199907 0.0001207 -0.00251497 -0.000267723 -0.0027894)
(-0.0494678 -7.94785e-06 0.000134983 0.0613348 0.00675994 -0.00293285)
(-0.0239384 -2.3082e-05 0.000175497 0.0273774 0.00285188 -0.00633002)
(-0.0213024 -5.77002e-05 0.000177067 0.0239457 0.00114264 -0.0067075)
(-0.0154776 -8.88946e-05 0.000165835 0.0149992 -4.34932e-05 -0.00619333)
(-0.0110408 -0.000116347 0.000149906 0.00775785 -0.000590761 -0.00532047)
(-0.0076652 -0.000143805 0.000130661 0.00215139 -0.000689206 -0.00449708)
(-0.00561049 -0.000178971 0.000108466 -0.00123705 -0.000484584 -0.00391814)
(-0.00495301 -0.000231379 8.43469e-05 -0.00217369 -0.000161402 -0.00367515)
(-0.050874 -8.93184e-06 9.51956e-05 0.0621232 0.00433815 -0.00180401)
(-0.0247809 -2.6522e-05 0.00012366 0.0263324 0.00238825 -0.00417641)
(-0.0220429 -6.42247e-05 0.000124858 0.0231524 0.00137495 -0.00494907)
(-0.0159866 -9.84923e-05 0.000117076 0.0145296 0.000541089 -0.00508918)
(-0.0113045 -0.000128903 0.000106108 0.00759008 3.52641e-05 -0.00486761)
(-0.00773878 -0.000159269 9.28675e-05 0.00222883 -0.000170889 -0.00455583)
(-0.00555062 -0.00019738 7.76587e-05 -0.000986701 -0.000157769 -0.00433005)
(-0.00476442 -0.000252448 6.14444e-05 -0.00188857 -5.26377e-05 -0.00429069)
(-0.0517706 -9.84276e-06 6.67731e-05 0.0627094 0.00279571 -0.00117742)
(-0.0253585 -2.90648e-05 8.66999e-05 0.0258098 0.00182261 -0.00289703)
(-0.0225575 -6.89153e-05 8.75773e-05 0.0226317 0.00125932 -0.00375942)
(-0.0163562 -0.000105309 8.21672e-05 0.0141236 0.000737281 -0.00422027)
(-0.011523 -0.000137753 7.45955e-05 0.00737901 0.00035879 -0.00440761)
(-0.00782168 -0.000170081 6.54985e-05 0.00220167 0.000143511 -0.0044696)
(-0.00553276 -0.000210128 5.51043e-05 -0.000872343 6.26482e-05 -0.00452221)
(-0.00466101 -0.000266913 4.41376e-05 -0.0017256 3.27475e-05 -0.00464319)
(-0.0523262 -1.05362e-05 4.44439e-05 0.0631135 0.00174758 -0.000836792)
(-0.0257302 -3.08425e-05 5.76781e-05 0.0255655 0.00127047 -0.00217004)
(-0.0228921 -7.21485e-05 5.82923e-05 0.0223335 0.000973433 -0.00302979)
(-0.0165988 -0.000109974 5.47205e-05 0.0138439 0.000670485 -0.0036393)
(-0.0116725 -0.00014378 4.97386e-05 0.00719597 0.000421897 -0.0040543)
(-0.00788704 -0.000177412 4.37772e-05 0.00213321 0.000251105 -0.00434809)
(-0.00553494 -0.000218738 3.69814e-05 -0.000842081 0.000151388 -0.0045846)
(-0.00462059 -0.000276649 2.98217e-05 -0.00165003 6.80284e-05 -0.00480406)
(-0.0526497 -1.10135e-05 2.54137e-05 0.0633682 0.000964133 -0.000661107)
(-0.0259484 -3.1972e-05 3.28977e-05 0.0254596 0.00074808 -0.00178353)
(-0.0230899 -7.41652e-05 3.32875e-05 0.0221787 0.000607175 -0.00262254)
(-0.0167422 -0.000112884 3.1283e-05 0.013678 0.000452268 -0.00329744)
(-0.0117619 -0.000147534 2.84695e-05 0.00707067 0.000314157 -0.00382885)
(-0.00792858 -0.00018198 2.5106e-05 0.00206939 0.000208116 -0.00425031)
(-0.00554167 -0.00022413 2.12323e-05 -0.000846574 0.00013391 -0.00459246)
(-0.00460898 -0.000282684 1.70161e-05 -0.0016233 5.93536e-05 -0.0048641)
(-0.0527989 -1.13965e-05 8.22403e-06 0.0634918 0.00030871 -0.00058675)
(-0.0260484 -3.25831e-05 1.06006e-05 0.0254212 0.000246921 -0.00161682)
(-0.0231809 -7.50908e-05 1.07431e-05 0.0221139 0.000205688 -0.00244177)
(-0.0168081 -0.000114235 1.01115e-05 0.0136021 0.000158346 -0.00314111)
(-0.011803 -0.000149294 9.2129e-06 0.00700855 0.000114288 -0.00372105)
(-0.00794816 -0.000184164 8.13691e-06 0.0020332 7.862e-05 -0.00419812)
(-0.00554614 -0.000226867 6.87296e-06 -0.000855601 5.17082e-05 -0.00458727)
(-0.00460657 -0.000285541 5.41673e-06 -0.00161706 2.27582e-05 -0.00488039)
(-0.0129521 0.0164398 -0.000546259 0.0454471 -7.73156e-06 -0.0305222)
(-0.0216837 0.00597326 -0.000712881 0.0176933 -2.07173e-05 -0.00562227)
(-0.0168637 0.00815886 -0.000718539 0.0182761 -1.76171e-05 -0.00927368)
(-0.0136162 0.00672351 -0.000668479 0.0107751 -1.63326e-05 -0.00636477)
(-0.010174 0.00560959 -0.000604499 0.00560343 -1.57253e-05 -0.00517622)
(-0.0076148 0.00405205 -0.000533456 0.00133145 -1.64792e-05 -0.00399835)
(-0.00595557 0.00245426 -0.000460377 -0.00135505 -1.83715e-05 -0.00328372)
(-0.00558668 0.000880147 -0.000393549 -0.00237393 -1.69511e-05 -0.00281942)
(-0.00498247 0.0130715 -0.000468543 0.00985292 -8.34964e-06 -0.0113993)
(-0.00996396 0.0172031 -0.000633981 0.00409935 -1.91497e-05 -0.00406978)
(-0.00946689 0.016929 -0.000635178 0.00416507 -2.39481e-05 -0.0044296)
(-0.00791822 0.0146923 -0.000593195 0.00171595 -2.68365e-05 -0.00379955)
(-0.00645456 0.0118663 -0.000538467 -2.20737e-05 -2.87268e-05 -0.00359764)
(-0.00534798 0.00870001 -0.000478082 -0.00138104 -3.04162e-05 -0.00341192)
(-0.00460495 0.00554354 -0.000416362 -0.00223831 -3.28733e-05 -0.00331968)
(-0.00459081 0.00244644 -0.000363975 -0.0026518 -3.38218e-05 -0.00302911)
(0.00129666 0.0112211 -0.000454264 -0.0140368 -9.52056e-06 0.00088253)
(0.00246112 0.0169285 -0.000625405 -0.0117686 -2.78651e-05 -0.00143532)
(0.00150484 0.017087 -0.000627266 -0.0108846 -3.8126e-05 -0.00136506)
(0.000339873 0.0148218 -0.000588212 -0.00872192 -4.45508e-05 -0.0020263)
(-0.000704396 0.0119055 -0.00053495 -0.00692907 -4.80538e-05 -0.00252105)
(-0.00156736 0.0086937 -0.000475314 -0.00536957 -5.0275e-05 -0.00298339)
(-0.00220243 0.00552133 -0.000413403 -0.00418932 -5.35386e-05 -0.00334462)
(-0.00219212 0.00241653 -0.000358998 -0.00354799 -5.92352e-05 -0.00377616)
(0.00797827 0.0112607 -0.000476429 -0.0466303 -2.12996e-05 0.0188336)
(0.013581 0.00644503 -0.000671167 -0.0260955 -6.07065e-05 0.00110474)
(0.0092434 0.00828803 -0.000674124 -0.0250307 -6.83549e-05 0.00334421)
(0.00607018 0.00694707 -0.000635824 -0.0177667 -7.3604e-05 0.000574608)
(0.00293675 0.0056695 -0.000579634 -0.0123833 -7.46532e-05 -0.000950252)
(0.000587513 0.00406232 -0.000514733 -0.00794015 -7.41233e-05 -0.0023739)
(-0.000937485 0.00245213 -0.000444591 -0.00497104 -7.45957e-05 -0.00336006)
(-0.001254 0.000864554 -0.000375279 -0.00377834 -7.9647e-05 -0.00396228)
(0.0354395 4.16204e-05 0.000265908 -0.0665301 -0.010176 0.00449901)
(0.0134968 5.15514e-05 0.000378732 -0.035939 0.00266818 0.00639531)
(0.012815 3.57656e-05 0.000382794 -0.031559 0.00112344 0.00303517)
(0.0072796 1.82819e-05 0.000366404 -0.0214861 0.00166195 0.00109892)
(0.00356398 3.14447e-06 0.000337884 -0.0139933 0.0012659 -0.000974726)
(0.000590452 -1.18178e-05 0.000301634 -0.00814621 0.000863228 -0.00252252)
(-0.0012127 -3.31987e-05 0.000258631 -0.0045052 0.000385103 -0.00361226)
(-0.0015889 -7.77858e-05 0.000205383 -0.00345323 3.86997e-05 -0.00425356)
(0.0368135 2.26396e-05 0.000151695 -0.0673075 -0.00705039 0.00340089)
(0.0160538 2.62356e-05 0.000218194 -0.0389667 0.000862682 0.00575976)
(0.0125273 7.82947e-06 0.000222134 -0.0315337 0.00195687 0.00353407)
(0.00721301 -1.21139e-05 0.000213341 -0.0213963 0.00220653 0.00121088)
(0.00330442 -3.08527e-05 0.000198001 -0.0135981 0.0018472 -0.000875248)
(0.000417301 -5.01245e-05 0.000177641 -0.00782021 0.00126367 -0.00247579)
(-0.00127455 -7.81113e-05 0.000152621 -0.0043378 0.000615284 -0.0035706)
(-0.00152747 -0.000134408 0.000122947 -0.0034306 0.00014865 -0.00425721)
(0.0391301 1.54215e-05 9.89891e-05 -0.0693404 -0.00411377 0.00211878)
(0.0171016 1.55053e-05 0.000145209 -0.0383963 0.000423637 0.00374216)
(0.0133034 -4.9325e-06 0.000149124 -0.0315024 0.00134843 0.00245286)
(0.00754066 -2.673e-05 0.000143864 -0.0214007 0.00160475 0.000827564)
(0.00331064 -4.79685e-05 0.00013385 -0.0136633 0.00138895 -0.000723514)
(0.000257259 -7.02903e-05 0.000120315 -0.00799373 0.000962714 -0.00197272)
(-0.00150722 -0.000102313 0.000103682 -0.00460841 0.000478352 -0.00286892)
(-0.00185785 -0.000163875 8.47565e-05 -0.00365929 0.000107888 -0.00346408)
(0.0407344 1.3261e-05 7.03231e-05 -0.0707172 -0.00230514 0.0012109)
(0.0179577 1.09242e-05 0.000103964 -0.0379766 0.000243733 0.0021466)
(0.0140391 -1.21479e-05 0.000107459 -0.0314234 0.000815384 0.00137473)
(0.00795539 -3.61766e-05 0.000104052 -0.0214176 0.000992456 0.000318348)
(0.0034621 -5.95717e-05 9.69812e-05 -0.0137784 0.000869338 -0.000748517)
(0.000232162 -8.41293e-05 8.72984e-05 -0.00819809 0.000602127 -0.00165254)
(-0.00163478 -0.00011883 7.54862e-05 -0.00487529 0.000297393 -0.00234199)
(-0.00207239 -0.000183748 6.2363e-05 -0.00390021 6.77782e-05 -0.00284512)
(0.041748 1.23275e-05 4.93608e-05 -0.0716161 -0.00126946 0.000675285)
(0.018555 8.42036e-06 7.30625e-05 -0.0378093 0.00015457 0.00116345)
(0.0145675 -1.67137e-05 7.57762e-05 -0.0314048 0.000475625 0.000641618)
(0.008286 -4.25934e-05 7.36045e-05 -0.0214454 0.000569709 -7.71865e-05)
(0.00361317 -6.76817e-05 6.8776e-05 -0.0138685 0.000492271 -0.000818886)
(0.00024588 -9.38592e-05 6.20731e-05 -0.00834051 0.0003329 -0.00147173)
(-0.00170956 -0.000130387 5.39044e-05 -0.00505392 0.000154194 -0.00199985)
(-0.00221537 -0.000197631 4.49277e-05 -0.00407073 2.57402e-05 -0.00241805)
(0.0423751 1.18119e-05 3.27655e-05 -0.0722 -0.000679405 0.000376885)
(0.0189425 6.8926e-06 4.84725e-05 -0.0377749 9.87407e-05 0.000603423)
(0.0149149 -1.96603e-05 5.03736e-05 -0.0314341 0.000267797 0.000204384)
(0.00851152 -4.68756e-05 4.90438e-05 -0.0214827 0.000309305 -0.000326954)
(0.00372393 -7.31779e-05 4.59273e-05 -0.0139301 0.000258429 -0.000876594)
(0.000264766 -0.00010048 4.15549e-05 -0.0084255 0.000166023 -0.00137332)
(-0.00175218 -0.000138245 3.62091e-05 -0.0051583 6.61378e-05 -0.00179519)
(-0.00229753 -0.000207075 3.03241e-05 -0.0041797 1.56161e-06 -0.00215571)
(0.0427403 1.15138e-05 1.86975e-05 -0.072556 -0.000330493 0.00022155)
(0.0191715 5.98712e-06 2.75935e-05 -0.0377883 5.58489e-05 0.000308536)
(0.015122 -2.14415e-05 2.87129e-05 -0.0314751 0.000135742 -3.07631e-05)