/*--------------------------------*- C++ -*----------------------------------*\
| =========                 |                                                 |
| \\      /  F ield         | foam-extend: Open Source CFD                    |
|  \\    /   O peration     | Version:     3.1                                |
|   \\  /    A nd           | Web:         http://www.extend-project.de       |
|    \\/     M anipulation  |                                                 |
\*---------------------------------------------------------------------------*/
FoamFile
{
    version     2.0;
    format      ascii;
    class       volSymmTensorField;
    location    "0.6";
    object      sigma;
}
// * * * * * * * * * * * * * * * * * * * * * * * * * * * * * * * * * * * * * //

dimensions      [1 -1 -2 0 0 0 0];

internalField   nonuniform List<symmTensor> 
256
(
(221.849 130.546 -5.57964 606.908 86.0166 266.505)
(-51.5601 111.138 -14.553 30.3261 43.4273 -43.1248)
(-187.269 98.7102 -15.1899 -302.389 -8.46714 -192.429)
(-447.435 94.7854 -5.9529 -834.855 -53.7847 -479.193)
(-309.06 46.3798 -5.81123 -8.42449 -8.23198 -230.759)
(-205.091 128.834 -21.1006 -98.5442 -1.74907 -179.694)
(-144.913 127.134 -22.6467 -251.066 10.4479 -158.784)
(-66.1588 49.8634 -7.30992 -367.663 17.9243 -127.152)
(-196.802 55.191 -1.8725 52.7108 0.569468 -132.395)
(-196.872 116.288 -11.7892 -101.987 1.66714 -166.161)
(-149.901 117.113 -12.7283 -234.423 4.42535 -164.468)
(-142.989 55.8108 -2.81331 -384.334 7.06397 -192.013)
(-215.335 44.3269 -1.85997 -41.0158 -6.06111 -165.71)
(-194.872 98.5344 -7.96963 -126.677 -1.15833 -171.625)
(-149.631 99.2114 -8.31725 -210.079 3.68405 -161.45)
(-127.563 45.5504 -2.18204 -293.936 9.01807 -165.519)
(-202.731 35.9938 -0.869292 -91.4961 -5.78449 -166.853)
(-186.967 78.1439 -4.51844 -141.751 -1.5213 -170.082)
(-152.051 78.3516 -4.73773 -192.32 2.10347 -162.195)
(-134.972 36.3346 -1.09257 -239.473 6.49058 -163.331)
(-197.918 25.6804 -0.480057 -135.607 -5.01387 -172.51)
(-181.57 56.7645 -2.26325 -153.899 -1.64385 -169.767)
(-153.75 56.7297 -2.3852 -177.751 0.995637 -162.336)
(-137.331 25.7829 -0.576874 -194.189 4.23871 -158.621)
(-193.486 15.3485 -0.297446 -162.09 -3.20954 -174.334)
(-177.675 35.884 -0.643759 -161.439 -1.35788 -169.143)
(-154.952 35.7708 -0.683009 -167.356 0.175652 -162.607)
(-139.208 15.4249 -0.27712 -165.449 1.84215 -156.802)
(-194.592 5.3912 0.0489841 -172.19 -0.938263 -174.963)
(-182.494 15.6786 1.10002 -168.894 -0.507125 -172.971)
(-149.195 15.4889 1.1202 -158.26 -0.141379 -159.351)
(-137.417 5.31489 0.174828 -154.546 0.153703 -157.212)
(191.574 149.097 -4.3209 545.394 62.5417 254.123)
(-76.0139 134.803 -11.9387 -21.5912 32.3985 -59.6816)
(-208.148 123.587 -12.5696 -332.968 -3.66942 -211.926)
(-463.67 115.506 -4.73545 -856.423 -36.3267 -502.353)
(-245.953 52.3727 -6.2602 73.1959 15.333 -149.049)
(-160.406 138.736 -20.6047 -49.3584 11.5795 -126.984)
(-170.155 136.999 -21.9185 -285.598 11.6659 -179.503)
(-111.636 54.8256 -7.51901 -435.812 9.05571 -177.066)
(-196.717 52.0302 -3.14922 52.9783 2.59177 -131.294)
(-186.09 112.879 -14.0099 -92.709 4.71737 -155.721)
(-158.16 113.443 -15.0497 -240.916 9.48185 -167.999)
(-143.992 52.5442 -4.70633 -384.939 13.0473 -188.996)
(-205.79 40.1513 -1.4583 -30.3927 -4.46796 -156.852)
(-184.324 91.2669 -7.97873 -115.887 0.843695 -162.042)
(-157.214 91.7393 -8.58928 -213.544 7.16039 -165.673)
(-134.424 41.0396 -2.41571 -297.417 13.1029 -169.189)
(-200.026 30.9823 0.224352 -89.3584 -6.79184 -165.984)
(-181.614 69.9491 -3.36914 -136.26 -1.17924 -166.079)
(-156.006 70.1438 -3.75476 -191.54 4.69738 -163.59)
(-136.631 31.3447 -0.433146 -235.907 10.4374 -162.081)
(-196.558 21.5068 1.22591 -135.103 -6.4086 -172.964)
(-178.899 49.7444 -0.137591 -151.29 -1.8751 -168.312)
(-155.743 49.7877 -0.355405 -175.914 2.54349 -162.557)
(-138.08 21.7458 0.854519 -190.471 6.89038 -157.158)
(-193.871 12.4464 1.81436 -163.248 -4.30047 -176.427)
(-177.525 30.9222 2.11367 -161.592 -1.65377 -170.107)
(-155.491 30.9153 2.04318 -165.643 0.962403 -162.132)
(-139.109 12.7222 1.70736 -162.675 3.32498 -155.206)
(-194.936 4.30341 2.52875 -172.674 -1.54341 -177.309)
(-183.176 13.4156 4.23955 -169.639 -0.697024 -175.099)
(-149.869 13.2728 4.28076 -157.928 0.228571 -159.738)
(-138.264 4.28464 2.64377 -154.331 0.869254 -157.287)
(202.153 157.362 -2.90521 559.176 40.4287 279.952)
(-77.2427 143.385 -7.96288 -27.2511 21.8704 -54.2896)
(-215.012 132.743 -8.45429 -346.416 -0.339499 -221.956)
(-484.565 125.036 -3.45623 -891.227 -20.6175 -534.531)
(-247.543 55.7823 -5.11644 70.1111 16.98 -124.354)
(-158.698 145.309 -14.5725 -50.3005 12.2391 -112.658)
(-173.06 143.26 -15.4117 -296.25 9.87949 -187.255)
(-111.051 56.8514 -5.93613 -442.85 5.94507 -195.053)
(-197.473 52.7621 -3.42001 54.0617 7.14863 -114.683)
(-185.239 115.921 -10.9307 -90.9197 7.03139 -145.208)
(-158.237 116.503 -11.5442 -245.324 9.11549 -170.16)
(-144.754 53.4283 -4.15655 -391.447 9.96821 -199.987)
(-206.135 40.0242 -1.63889 -29.2257 0.413013 -148.259)
(-183.948 91.297 -6.40337 -114.309 3.0997 -155.848)
(-157.381 91.8499 -6.84033 -214.898 7.21802 -165.844)
(-134.811 40.9863 -2.19912 -299.924 10.4177 -173.291)
(-201.545 30.1004 -0.0677281 -89.3339 -2.84574 -164.367)
(-181.587 68.6246 -2.41166 -134.871 0.636489 -163)
(-156.065 68.9284 -2.69349 -191.462 4.92868 -162.593)
(-135.875 30.6341 -0.44375 -235.717 8.51655 -160.833)
(-198.359 20.4933 1.06442 -135.465 -3.60689 -175.672)
(-179.167 48.013 0.590174 -150.464 -0.584736 -167.594)
(-155.686 48.175 0.433334 -175.307 2.83375 -161.003)
(-136.809 20.9027 0.853842 -189.304 5.71114 -152.829)
(-195.693 11.5694 1.81865 -163.683 -2.68831 -181.806)
(-177.974 29.4977 2.7752 -161.261 -0.853067 -171.097)
(-155.373 29.5925 2.72556 -165.091 1.24515 -160.538)
(-137.585 12.009 1.75631 -161.41 2.84896 -149.357)
(-197.269 4.0793 2.55536 -174.137 -0.974699 -185.1)
(-183.571 12.8839 4.62172 -169.528 -0.412482 -177.267)
(-149.886 12.7798 4.65663 -157.516 0.333317 -158.393)
(-136.194 4.0928 2.62936 -152.205 0.73288 -150.247)
(210.141 161.722 -1.81972 572.195 26.2159 297.676)
(-76.9846 147.376 -5.05247 -28.0593 14.8943 -50.0994)
(-218.56 137.003 -5.38187 -353.781 1.28443 -227.937)
(-497.828 129.913 -2.23338 -914.142 -11.1215 -555.891)
(-250.306 57.636 -3.4605 67.0509 14.4554 -108.912)
(-159.354 149.674 -9.61435 -52.5861 10.4131 -105.151)
(-173.696 147.556 -10.1234 -301.728 7.74804 -191.916)
(-109.228 58.3106 -3.98863 -446.258 4.12922 -207.561)
(-198.807 54.2414 -2.60492 52.9226 8.46782 -101.12)
(-186.258 119.232 -7.68804 -92.3511 7.18804 -138.647)
(-157.597 119.788 -8.01872 -248.395 7.49556 -171.679)
(-144.208 54.8432 -2.99977 -395.642 6.77705 -209.166)
(-207.392 40.8569 -1.34779 -29.8517 3.57668 -139.645)
(-184.81 93.2938 -4.65213 -114.958 4.19192 -151.136)
(-156.876 93.9057 -4.89751 -216.454 6.1222 -165.731)
(-133.841 41.8712 -1.65862 -302.031 7.11883 -177.228)
(-202.707 30.4629 -0.123494 -89.5827 0.544832 -160.695)
(-182.277 69.6056 -1.68636 -134.994 1.97795 -160.29)
(-155.711 69.9844 -1.84633 -192.118 4.31142 -161.515)
(-134.969 31.089 -0.331033 -236.641 5.85691 -160.829)
(-199.394 20.5513 0.841698 -135.397 -0.795764 -175.896)
(-179.745 48.3391 0.704814 -150.359 0.617452 -166.669)
(-155.391 48.5748 0.616722 -175.464 2.5992 -159.445)
(-135.949 21.0519 0.726995 -189.591 3.94664 -150.154)
(-196.448 11.4703 1.53696 -163.284 -0.88914 -184.645)
(-178.433 29.5365 2.52084 -161.069 -0.00793455 -171.539)
(-155.109 29.6877 2.49192 -165.019 1.25993 -158.872)
(-136.898 11.9882 1.50196 -161.496 2.0043 -145.253)
(-198.123 4.08878 2.19388 -174.162 -0.369241 -189.863)
(-183.924 12.917 4.00351 -169.33 -0.1029 -178.632)
(-149.684 12.8338 4.0206 -157.336 0.399231 -156.832)
(-135.428 4.1127 2.23267 -151.73 0.562972 -145.277)
(214.887 164.198 -1.10155 580.821 17.052 308.195)
(-76.7705 149.483 -3.1123 -28.1103 10.124 -47.6351)
(-220.749 139.24 -3.31443 -358.286 1.79181 -231.675)
(-505.85 132.606 -1.37031 -928.495 -5.79973 -568.94)
(-252.475 58.7489 -2.19421 65.5738 11.1462 -99.8126)
(-159.902 152.453 -6.0851 -53.9572 8.06305 -100.809)
(-174.012 150.336 -6.38154 -305.084 5.76334 -194.873)
(-107.75 59.2803 -2.51316 -448.717 2.88774 -215.306)
(-200.208 55.3895 -1.76237 51.6153 7.74646 -92.3784)
(-187.116 121.783 -5.07501 -93.8892 6.19765 -134.522)
(-157.161 122.33 -5.2511 -250.636 5.67973 -172.741)
(-143.424 55.9542 -1.97669 -398.426 4.42961 -215.178)
(-208.722 41.7345 -0.945684 -31.1383 4.59797 -133.429)
(-185.536 95.31 -3.13568 -116.051 4.17401 -147.791)
(-156.484 95.9476 -3.26671 -217.907 4.73669 -165.626)
(-132.857 42.7693 -1.11183 -303.64 4.56208 -180.082)
(-203.793 31.0698 -0.0892295 -90.404 2.29171 -157.423)
(-182.859 71.0219 -1.09694 -135.617 2.47555 -158.107)
(-155.392 71.4342 -1.18306 -192.945 3.42376 -160.657)
(-134.099 31.735 -0.199795 -237.506 3.71651 -161.048)
(-200.289 20.9062 0.626265 -135.777 0.92998 -175.33)
(-180.188 49.2229 0.634581 -150.598 1.26868 -165.654)
(-155.124 49.4892 0.585815 -175.852 2.14562 -158.204)
(-135.175 21.4444 0.563589 -189.942 2.48323 -148.435)
(-197.091 11.6279 1.16936 -163.257 0.346405 -186.041)
(-178.754 30.0273 1.99845 -161.05 0.536247 -171.472)
(-154.861 30.1994 1.97731 -165.101 1.11105 -157.491)
(-136.266 12.1741 1.14285 -161.572 1.24815 -142.382)
(-198.814 4.17156 1.70027 -174.263 0.116999 -192.633)
(-184.191 13.1296 3.1234 -169.221 0.127982 -179.183)
(-149.357 13.053 3.11976 -157.168 0.374728 -155.338)
(-134.661 4.19405 1.70152 -151.326 0.338734 -141.58)
(217.697 165.663 -0.634896 586.298 10.7347 314.329)
(-76.6757 150.691 -1.83488 -28.0473 6.59601 -46.2714)
(-222.124 140.517 -1.95053 -361.106 1.63273 -233.98)
(-510.735 134.175 -0.796394 -937.461 -2.8972 -576.785)
(-253.897 59.4241 -1.30274 65.0257 7.81876 -94.5777)
(-160.275 154.175 -3.65178 -54.7117 5.67756 -98.3323)
(-174.217 152.067 -3.81547 -307.227 3.97352 -196.688)
(-106.795 59.8856 -1.48507 -450.584 1.9291 -219.886)
(-201.194 56.161 -1.08375 50.8013 5.99277 -87.0398)
(-187.689 123.513 -3.12625 -95.001 4.65617 -132.013)
(-156.898 124.057 -3.21695 -252.199 3.94387 -173.405)
(-142.835 56.708 -1.20037 -400.376 2.76028 -218.826)
(-209.696 42.3967 -0.586022 -32.2329 4.12432 -129.389)
(-186.034 96.8296 -1.95071 -117.018 3.40428 -145.604)
(-156.217 97.4776 -2.01794 -219.029 3.33567 -165.515)
(-132.12 43.4383 -0.675298 -304.795 2.76572 -181.855)
(-204.603 31.5837 -0.0369606 -91.2886 2.58629 -155.044)
(-183.265 72.2098 -0.650513 -136.29 2.2509 -156.546)
(-155.154 72.6355 -0.695262 -193.65 2.46063 -160.021)
(-133.433 32.2635 -0.0966507 -238.125 2.21214 -161.198)
(-200.941 21.2498 0.439683 -136.32 1.51069 -174.597)
(-180.497 50.0481 0.493682 -150.949 1.34446 -164.787)
(-154.914 50.3249 0.46643 -176.213 1.58847 -157.283)
(-134.59 21.8002 0.403543 -190.17 1.45078 -147.346)
(-197.566 11.8101 0.815607 -163.444 0.853141 -186.561)
(-178.97 30.5211 1.42123 -161.135 0.702674 -171.178)
(-154.653 30.6983 1.40424 -165.189 0.85883 -156.431)
(-135.782 12.3614 0.793273 -161.569 0.704821 -140.508)
(-199.222 4.24213 1.20982 -174.325 0.330782 -193.857)
(-184.357 13.3313 2.21658 -169.167 0.218131 -179.19)
(-149.063 13.2556 2.2012 -157.049 0.299753 -154.132)
(-134.134 4.26007 1.19059 -151.096 0.175029 -139.196)
(219.289 166.508 -0.326149 589.553 5.94928 317.729)
(-76.6422 151.383 -0.960746 -27.9856 3.7401 -45.5574)
(-222.939 141.246 -1.01926 -362.78 1.10163 -235.315)
(-513.565 135.073 -0.41119 -942.751 -1.31334 -581.243)
(-254.763 59.8142 -0.681603 64.8619 4.62006 -91.7669)
(-160.508 155.178 -1.93198 -55.107 3.3631 -96.9991)
(-174.344 153.075 -2.01261 -308.523 2.32869 -197.723)
(-106.223 60.2371 -0.773784 -451.83 1.11289 -222.39)
(-201.806 56.6257 -0.577389 50.372 3.74102 -84.047)
(-188.031 124.561 -1.67815 -95.6811 2.86309 -130.594)
(-156.749 125.102 -1.72052 -253.186 2.31713 -173.778)
(-142.464 57.1629 -0.634926 -401.636 1.51132 -220.851)
(-210.313 42.8163 -0.310646 -32.9556 2.77004 -127.038)
(-186.335 97.7962 -1.05011 -117.677 2.19187 -144.306)
(-156.053 98.4479 -1.08157 -219.771 1.97751 -165.419)
(-131.649 43.8595 -0.354643 -305.543 1.47886 -182.83)
(-205.126 31.9253 -0.00721911 -91.9617 1.906 -153.569)
(-183.515 73.0011 -0.332994 -136.798 1.53345 -155.563)
(-154.999 73.4312 -0.354336 -194.135 1.47937 -159.599)
(-132.997 32.6096 -0.0370765 -238.509 1.16179 -161.251)
(-201.367 21.4884 0.26227 -136.797 1.23759 -174.027)
(-180.688 50.6194 0.312202 -151.249 0.981159 -164.176)
(-154.772 50.8985 0.298 -176.466 0.974294 -156.672)
(-134.202 22.0414 0.24274 -190.28 0.746527 -146.679)
(-197.888 11.9415 0.479811 -163.676 0.758823 -186.692)
(-179.103 30.8678 0.846025 -161.238 0.553358 -170.872)
(-154.509 31.0443 0.834412 -165.25 0.540664 -155.713)
(-135.449 12.4899 0.464173 -161.518 0.347186 -139.366)
(-199.467 4.28685 0.722649 -174.397 0.301617 -194.297)
(-184.454 13.4686 1.32284 -169.154 0.183718 -178.996)
(-148.85 13.3919 1.3077 -156.967 0.191684 -153.286)
(-133.785 4.30076 0.702131 -150.941 0.0751337 -137.755)
(220.017 166.899 -0.100371 591.081 1.90909 319.252)
(-76.6329 151.704 -0.2985 -27.9512 1.21378 -45.2516)
(-223.319 141.583 -0.31627 -363.565 0.385732 -235.928)
(-514.873 135.488 -0.12678 -945.223 -0.373743 -583.27)
(-255.172 59.9938 -0.211637 64.8308 1.52731 -90.5461)
(-160.62 155.642 -0.603083 -55.2769 1.11307 -96.4184)
(-174.405 153.54 -0.627181 -309.138 0.767279 -198.191)
(-105.954 60.3988 -0.239542 -452.452 0.364276 -223.489)
(-202.095 56.8432 -0.180685 50.1952 1.26786 -82.7106)
(-188.191 125.052 -0.5272 -95.999 0.963997 -129.956)
(-156.681 125.592 -0.539472 -253.663 0.764041 -173.944)
(-142.288 57.3757 -0.197922 -402.258 0.481362 -221.747)
(-210.607 43.017 -0.0967448 -33.3032 0.968541 -125.966)
(-186.476 98.2593 -0.329988 -118.004 0.753541 -143.706)
(-155.975 98.9118 -0.339143 -220.136 0.654957 -165.365)
(-131.423 44.06 -0.110008 -305.913 0.464836 -183.254)
(-205.379 32.0919 0.000110679 -92.3121 0.69132 -152.872)
(-183.634 73.3878 -0.101342 -137.063 0.540378 -155.092)
(-154.923 73.819 -0.10766 -194.379 0.49349 -159.387)
(-132.785 32.7771 -0.00904384 -238.691 0.361269 -161.258)
(-201.575 21.6065 0.0870387 -137.063 0.466231 -173.725)
(-180.779 50.9026 0.106557 -151.415 0.355691 -163.864)
(-154.701 51.1816 0.102088 -176.593 0.328265 -156.367)
(-134.011 22.1593 0.0807254 -190.321 0.229112 -146.358)
(-198.046 12.0065 0.157864 -163.82 0.293711 -186.698)
(-179.167 31.0394 0.280342 -161.301 0.206399 -170.687)
(-154.435 31.2144 0.276168 -165.28 0.184383 -155.349)
(-135.283 12.5519 0.152161 -161.478 0.103329 -138.824)
(-199.576 4.30725 0.239679 -174.443 0.117137 -194.405)
(-184.498 13.5355 0.439428 -169.154 0.0698166 -178.841)
(-148.742 13.4577 0.433338 -156.926 0.0657819 -152.852)
(-133.617 4.31881 0.231263 -150.866 0.0201215 -137.08)
)
;

boundaryField
{
    interface
    {
        type            calculated;
        value           nonuniform List<symmTensor> 
192
(
(-217.758 -0.0651735 2.24205 591.991 103.129 73.3735)
(-203.318 -0.0838564 2.90927 123.974 -8.86169 -152.373)
(-203.437 -0.273372 2.94628 121.449 0.551832 -118.035)
(-199.442 -0.41021 2.74943 12.2385 -8.60331 -145.514)
(-196.162 -0.527804 2.47273 -63.3899 -8.25906 -156.491)
(-192.887 -0.642514 2.14348 -124.428 -7.06056 -166.637)
(-189.878 -0.797444 1.76702 -160.462 -4.2856 -170.96)
(-186.9 -1.05503 1.32153 -168.15 -1.17598 -168.109)
(-221.865 -0.053825 1.4321 551.495 75.235 83.4816)
(-209.204 -0.132566 1.86441 161.561 18.8798 -113.424)
(-207.375 -0.349033 1.87879 115.639 2.59686 -122.437)
(-203.358 -0.539669 1.75582 13.2259 -6.7483 -146.62)
(-199.613 -0.704767 1.58181 -66.1995 -9.51197 -160.692)
(-195.944 -0.869731 1.37328 -126.93 -8.73514 -170.346)
(-192.425 -1.08717 1.13311 -162.539 -5.62374 -174.301)
(-188.744 -1.42791 0.862142 -169.052 -1.91231 -171.013)
(-225.71 -0.0567703 0.964162 565.737 48.2853 106.682)
(-212.289 -0.164871 1.25355 154.252 20.3705 -86.515)
(-210.219 -0.412144 1.26477 112.982 8.16169 -105.97)
(-205.865 -0.634961 1.18454 11.8256 -0.310666 -139.549)
(-201.77 -0.831049 1.07076 -67.4934 -4.21972 -160.91)
(-197.764 -1.02718 0.933294 -127.646 -4.9229 -175.135)
(-193.87 -1.27836 0.774755 -162.631 -3.46131 -181.782)
(-189.691 -1.65271 0.602478 -169.838 -1.15287 -180.563)
(-228.454 -0.0637989 0.679969 578.669 30.9868 122.046)
(-214.506 -0.189443 0.883285 150.589 17.059 -67.3308)
(-212.299 -0.458748 0.89184 110.525 9.82104 -90.2004)
(-207.706 -0.703516 0.83626 10.2665 3.86492 -129.868)
(-203.347 -0.920738 0.757912 -68.3853 0.251887 -157.369)
(-199.074 -1.13764 0.663339 -127.877 -1.22063 -176.338)
(-194.895 -1.40986 0.554705 -162.296 -1.12692 -186.177)
(-190.37 -1.8032 0.438889 -169.828 -0.375984 -186.986)
(-230.342 -0.0703054 0.476951 587.373 19.9693 131.038)
(-216.072 -0.207606 0.619285 149.416 13.0186 -55.6326)
(-213.772 -0.492252 0.625552 109.008 8.99515 -79.4994)
(-209.013 -0.752204 0.586908 8.6996 5.26629 -122.328)
(-204.472 -0.983947 0.532825 -69.458 2.56279 -153.648)
(-200.006 -1.21486 0.467846 -128.411 1.02508 -176.063)
(-195.624 -1.50092 0.393602 -162.335 0.447487 -188.406)
(-190.861 -1.90652 0.315269 -169.894 0.23391 -190.734)
(-231.608 -0.0752585 0.317456 592.961 12.4827 136.173)
(-217.14 -0.220304 0.411987 149.257 9.07476 -48.8536)
(-214.778 -0.515346 0.416374 108.261 6.9531 -72.9047)
(-209.908 -0.785531 0.390861 7.54026 4.78918 -117.34)
(-205.245 -1.027 0.355276 -70.4697 3.01355 -150.829)
(-200.649 -1.26723 0.312694 -129.076 1.7936 -175.371)
(-196.13 -1.56241 0.264153 -162.609 1.08134 -189.342)
(-191.214 -1.97606 0.213012 -169.996 0.485917 -192.524)
(-232.392 -0.0786679 0.181527 596.307 6.88667 138.955)
(-217.807 -0.228371 0.234984 149.392 5.34343 -45.2014)
(-215.409 -0.529752 0.237768 107.938 4.33696 -69.2134)
(-210.468 -0.806314 0.22345 6.81892 3.23048 -114.434)
(-205.73 -1.05381 0.203354 -71.2112 2.24398 -149.065)
(-201.054 -1.29986 0.179328 -129.64 1.48654 -174.781)
(-196.451 -1.60093 0.151659 -162.914 0.956499 -189.67)
(-191.441 -2.01917 0.121543 -170.115 0.423955 -193.263)
(-232.761 -0.0814036 0.0587431 597.887 2.20507 140.183)
(-218.117 -0.232736 0.0757182 149.523 1.76372 -43.6056)
(-215.703 -0.536363 0.0767364 107.832 1.4692 -67.5659)
(-210.73 -0.815964 0.072225 6.48553 1.13104 -113.109)
(-205.957 -1.06638 0.0658064 -71.5891 0.816345 -148.229)
(-201.245 -1.31546 0.0581208 -129.95 0.561571 -174.459)
(-196.601 -1.62048 0.0490926 -163.097 0.369345 -189.752)
(-191.533 -2.03958 0.0386909 -170.179 0.162559 -193.489)
(-64.3315 117.427 -3.90185 352.806 -0.0552254 -189.832)
(-292.208 42.6661 -5.09201 -10.9435 -0.147981 -177.483)
(-232.759 58.2776 -5.13242 18.2394 -0.125836 -178.545)
(-228.77 48.0251 -4.77485 -54.5465 -0.116661 -176.974)
(-211.912 40.0685 -4.31785 -99.216 -0.112323 -176.213)
(-201.273 28.9432 -3.8104 -137.371 -0.117708 -175.441)
(-193.887 17.5305 -3.28841 -161.027 -0.131225 -174.803)
(-193.905 6.28676 -2.81107 -170.957 -0.121079 -174.139)
(-128.858 93.368 -3.34674 -22.891 -0.0596403 -174.692)
(-213.091 122.879 -4.52844 -112.639 -0.136784 -170.99)
(-206.641 120.922 -4.53698 -109.27 -0.171058 -170.66)
(-199.442 104.945 -4.23711 -130.626 -0.19169 -170.023)
(-190.022 84.759 -3.84619 -144.076 -0.205192 -169.616)
(-183.07 62.1429 -3.41487 -154.735 -0.217259 -169.241)
(-178.077 39.5967 -2.97401 -161.173 -0.234809 -168.897)
(-179.53 17.4746 -2.59982 -165.68 -0.241584 -168.375)
(-160.133 80.1504 -3.24474 -269.658 -0.068004 -163.091)
(-135.889 120.918 -4.46718 -237.53 -0.199037 -163.721)
(-142.749 122.05 -4.48047 -231.245 -0.272328 -163.248)
(-146.263 105.87 -4.20151 -210.99 -0.31822 -163.164)
(-150.096 85.0393 -3.82107 -194.558 -0.343242 -163.072)
(-152.914 62.0978 -3.3951 -180.073 -0.359107 -163.029)
(-154.823 39.4381 -2.95288 -169.015 -0.382418 -162.981)
(-151.605 17.2609 -2.56427 -161.29 -0.423109 -162.919)
(-226.133 80.4333 -3.40306 -616.194 -0.15214 -148.595)
(-65.9879 46.0359 -4.79405 -349.392 -0.433618 -155.104)
(-111.734 59.2002 -4.81517 -356.548 -0.488249 -153.871)
(-115.525 49.6219 -4.5416 -285.788 -0.525743 -154.779)
(-127.549 40.4964 -4.14025 -236.978 -0.533237 -155.313)
(-134.754 29.0166 -3.67667 -195.666 -0.529452 -155.907)
(-139.105 17.5152 -3.17565 -167.916 -0.532827 -156.409)
(-137.452 6.17539 -2.68057 -155.483 -0.568907 -156.796)
(-126.742 0.297289 1.89935 -855.096 -72.6859 -347.745)
(-132.836 0.368224 2.70523 -485.949 19.0584 -183.561)
(-132.877 0.255468 2.73424 -449.834 8.02458 -202.733)
(-135.254 0.130585 2.61717 -340.724 11.871 -179.402)
(-137.458 0.0224605 2.41346 -262.867 9.04211 -169.877)
(-139.758 -0.0844129 2.15453 -202.163 6.16591 -161.993)
(-141.95 -0.237134 1.84737 -165.468 2.75074 -159.09)
(-144.145 -0.555613 1.46702 -157.461 0.276426 -163.178)
(-124.09 0.161712 1.08354 -867.811 -50.3599 -362.752)
(-130.375 0.187397 1.55853 -523.378 6.16201 -203.904)
(-131.553 0.0559248 1.58667 -446.275 13.9776 -195.79)
(-133.798 -0.0865278 1.52386 -338.151 15.7609 -176.671)
(-135.954 -0.220377 1.41429 -256.686 13.1943 -165.809)
(-138.143 -0.358032 1.26887 -196.983 9.02623 -158.808)
(-140.289 -0.557938 1.09015 -162.169 4.39489 -156.689)
(-142.557 -0.960056 0.878195 -156.151 1.06179 -162.055)
(-121.807 0.110153 0.707065 -896.597 -29.3841 -386.174)
(-128.595 0.110752 1.03721 -525.008 3.02598 -224.02)
(-129.92 -0.0352322 1.06517 -449.962 9.63166 -207.424)
(-132.316 -0.190928 1.0276 -339.04 11.4625 -180.267)
(-134.584 -0.342632 0.956074 -255.827 9.9211 -163.399)
(-136.865 -0.502073 0.859393 -195.801 6.87653 -152.793)
(-139.116 -0.730806 0.740583 -161.268 3.4168 -148.843)
(-141.574 -1.17054 0.605404 -154.441 0.770628 -153.047)
(-120.067 0.0947213 0.502308 -916.15 -16.4653 -402.378)
(-127.049 0.0780302 0.742602 -526.579 1.74095 -239.985)
(-128.428 -0.0867704 0.767566 -453.16 5.82417 -218.888)
(-130.946 -0.258404 0.74323 -340.753 7.08897 -185.496)
(-133.34 -0.425512 0.692723 -256.486 6.20956 -163.415)
(-135.748 -0.600924 0.62356 -195.964 4.30091 -149.21)
(-138.135 -0.848783 0.539187 -161.282 2.12423 -143.187)
(-140.77 -1.31249 0.44545 -153.826 0.48413 -146.29)
(-118.84 0.0880533 0.352577 -928.583 -9.06756 -412.216)
(-125.905 0.0601454 0.521875 -528.507 1.10407 -250.13)
(-127.313 -0.119383 0.541259 -455.687 3.39732 -226.784)
(-129.908 -0.304239 0.525747 -342.275 4.06935 -189.645)
(-132.395 -0.483441 0.491257 -257.264 3.51622 -164.052)
(-134.906 -0.670423 0.44338 -196.237 2.37786 -147.175)
(-137.402 -0.931337 0.385031 -161.29 1.10138 -139.475)
(-140.169 -1.41165 0.320912 -153.422 0.183859 -141.617)
(-118.006 0.0843704 0.234039 -936.399 -4.8529 -417.993)
(-125.11 0.0492329 0.346232 -530.234 0.705291 -256.104)
(-126.535 -0.140431 0.359811 -457.599 1.91283 -231.609)
(-129.177 -0.334826 0.350313 -343.422 2.20932 -192.309)
(-131.726 -0.5227 0.328052 -257.827 1.84592 -164.587)
(-134.31 -0.717717 0.296821 -196.383 1.18588 -146.01)
(-136.882 -0.987467 0.258636 -161.212 0.472413 -137.189)
(-139.739 -1.47911 0.216601 -153.183 0.0111543 -138.726)
(-117.485 0.0822413 0.133553 -941.03 -2.36066 -421.19)
(-124.607 0.0427652 0.197096 -531.463 0.398921 -259.343)
(-126.04 -0.153154 0.205092 -458.877 0.969587 -234.274)
(-128.711 -0.353684 0.199991 -344.177 1.07692 -193.797)
(-131.299 -0.54712 0.187528 -258.167 0.863755 -164.889)
(-133.927 -0.747266 0.16998 -196.422 0.518197 -145.341)
(-136.549 -1.02283 0.148216 -161.1 0.15863 -135.86)
(-139.463 -1.52114 0.122951 -153.028 -0.0449484 -137.053)
(-117.238 0.0804636 0.0431911 -943.2 -0.704155 -422.619)
(-124.371 0.0392677 0.0635035 -532.096 0.129564 -260.76)
(-125.807 -0.1591 0.06613 -459.52 0.296148 -235.451)
(-128.492 -0.36257 0.0645432 -344.555 0.320819 -194.453)
(-131.098 -0.558664 0.0605479 -258.329 0.250037 -165.018)
(-133.747 -0.761417 0.0549393 -196.428 0.142202 -145.033)
(-136.392 -1.04106 0.0478284 -161.03 0.0326191 -135.251)
(-139.351 -1.54068 0.0388185 -152.965 -0.0234027 -136.303)
(-197.573 2.82081 0.388909 -173.66 -0.286623 -175.561)
(-197.62 2.95303 3.03562 -173.624 -0.234793 -177.916)
(-198.791 3.09369 2.99058 -173.492 -0.187462 -185.389)
(-199.485 3.20429 2.5601 -173.411 -0.14732 -190.639)
(-200.07 3.28652 1.9981 -173.371 -0.111745 -193.722)
(-200.43 3.34497 1.43903 -173.364 -0.079066 -195.083)
(-200.634 3.38252 0.86865 -173.372 -0.0492112 -195.537)
(-200.732 3.40014 0.289812 -173.401 -0.0175231 -195.642)
(-184.255 2.66181 2.15413 -166.885 0.0509346 -172.593)
(-184.354 2.74665 5.40599 -166.637 0.00285407 -174.486)
(-184.571 2.85149 5.52927 -166.452 -0.0096957 -177.058)
(-184.907 2.9354 4.69821 -166.314 -0.011783 -178.807)
(-185.188 2.99849 3.64878 -166.228 -0.011443 -179.589)
(-185.367 3.04378 2.59853 -166.178 -0.00953832 -179.68)
(-185.467 3.07363 1.55895 -166.153 -0.00694898 -179.491)
(-185.512 3.08993 0.519673 -166.147 -0.0027986 -179.323)
(-148.259 2.54125 2.19006 -161.06 0.270748 -161.143)
(-148.882 2.61225 5.48994 -160.655 0.156418 -161.808)
(-149.129 2.70718 5.60093 -160.395 0.105108 -160.705)
(-148.994 2.78466 4.73608 -160.204 0.0765573 -159.246)
(-148.695 2.84342 3.65221 -160.076 0.0544791 -157.775)
(-148.404 2.88572 2.58212 -159.991 0.0363797 -156.554)
(-148.19 2.91347 1.54057 -159.939 0.0206809 -155.684)
(-148.081 2.92791 0.512058 -159.916 0.00661921 -155.233)
(-135.653 2.3876 0.552234 -154.595 0.480964 -158.47)
(-136.254 2.47015 3.2414 -153.971 0.310443 -158.66)
(-135.49 2.57856 3.13105 -153.629 0.222759 -152.654)
(-134.996 2.6668 2.63684 -153.353 0.167465 -147.728)
(-134.4 2.73329 2.01292 -153.151 0.122349 -143.99)
(-133.932 2.78075 1.41931 -153.006 0.0835483 -141.533)
(-133.612 2.81141 0.843528 -152.91 0.0488652 -140.046)
(-133.454 2.82651 0.279161 -152.859 0.0161422 -139.345)
)
;
    }
    symmetry
    {
        type            symmetryPlane;
    }
    bottom
    {
        type            calculated;
        value           nonuniform List<symmTensor> 
32
(
(275.083 172.549 0 412.624 193.088 275.083)
(237.619 185.692 0 356.429 104.96 237.619)
(245.466 193.624 0 368.199 60.5345 245.466)
(252.621 197.896 0 378.932 36.3295 252.621)
(257.204 200.334 0 385.805 22.281 257.204)
(260.05 201.805 0 390.074 13.44 260.05)
(261.715 202.675 0 392.572 7.24643 261.715)
(262.49 203.083 0 393.734 2.29452 262.49)
(-23.5546 79.7935 0 -35.3319 78.0022 -23.5546)
(-49.5021 101.198 0 -74.2531 44.9425 -49.5021)
(-50.6415 107.015 0 -75.9622 27.5719 -50.6415)
(-50.436 108.865 0 -75.654 17.5898 -50.436)
(-50.2436 109.613 0 -75.3655 11.3957 -50.2436)
(-50.1351 110.015 0 -75.2026 7.1825 -50.1351)
(-50.0813 110.26 0 -75.1219 3.99084 -50.0813)
(-50.0593 110.382 0 -75.089 1.28292 -50.0593)
(-186.513 60.1692 0 -279.769 -28.1042 -186.513)
(-201.931 85.7609 0 -302.896 -16.767 -201.931)
(-209.188 92.9571 0 -313.782 -8.72783 -209.188)
(-213.128 95.268 0 -319.692 -3.95801 -213.128)
(-215.547 96.2049 0 -323.32 -1.42223 -215.547)
(-217.068 96.7031 0 -325.602 -0.263235 -217.068)
(-217.973 97.0023 0 -326.96 0.106243 -217.973)
(-218.397 97.1494 0 -327.596 0.0758963 -218.397)
(-448.794 106.532 0 -673.191 -153.499 -448.794)
(-458.652 133.267 0 -687.978 -86.0529 -458.652)
(-478.288 145.561 0 -717.431 -48.1368 -478.288)
(-490.931 151.367 0 -736.396 -26.7837 -490.931)
(-498.696 154.495 0 -748.044 -14.7795 -498.696)
(-503.489 156.345 0 -755.233 -7.94821 -503.489)
(-506.295 157.431 0 -759.442 -3.88479 -506.295)
(-507.6 157.94 0 -761.399 -1.16218 -507.6)
)
;
    }
}


// ************************************************************************* //
