/*--------------------------------*- C++ -*----------------------------------*\
| =========                 |                                                 |
| \\      /  F ield         | foam-extend: Open Source CFD                    |
|  \\    /   O peration     | Version:     3.1                                |
|   \\  /    A nd           | Web:         http://www.extend-project.de       |
|    \\/     M anipulation  |                                                 |
\*---------------------------------------------------------------------------*/
FoamFile
{
    version     2.0;
    format      ascii;
    class       volSymmTensorField;
    location    "0.6";
    object      sigmaCauchy;
}
// * * * * * * * * * * * * * * * * * * * * * * * * * * * * * * * * * * * * * //

dimensions      [1 -1 -2 0 0 0 0];

internalField   nonuniform List<symmTensor> 
256
(
(229.298 163.795 4.03157 635.368 102.865 263.289)
(-41.8639 113.472 -10.7203 28.0615 43.4309 -41.38)
(-183.215 89.0687 -15.1211 -299.225 -8.4887 -195.056)
(-464.519 65.5998 -9.13331 -788.986 -41.1679 -499.574)
(-292.871 61.0803 -4.97471 -14.2516 -7.53854 -228.649)
(-186.559 128.68 -19.3025 -108.434 -2.71229 -178.888)
(-131.47 114.757 -20.8951 -254.522 8.14107 -159.884)
(-63.7581 30.4064 -6.58337 -354.404 15.2189 -129.535)
(-181.749 71.3927 -1.07054 46.9233 0.41908 -131.213)
(-176.877 116.987 -10.4293 -114.868 0.793909 -165.965)
(-134.314 104.936 -11.6703 -242.144 2.90142 -165.675)
(-140.662 35.1796 -2.4281 -376.098 4.99721 -195.563)
(-203.061 55.8653 -1.94201 -49.6335 -6.18775 -165.037)
(-176.822 98.3556 -7.34352 -140.225 -1.61416 -171.763)
(-134.76 89.0651 -7.45617 -219.8 2.7254 -162.448)
(-124.143 29.7694 -1.44923 -292.387 7.40491 -167.495)
(-193.628 43.1767 -1.17504 -99.6301 -5.79937 -166.755)
(-172.558 77.3424 -4.26545 -153.829 -1.72197 -170.45)
(-139.844 70.7 -4.2023 -201.826 1.60559 -163.012)
(-131.675 25.5878 -0.501778 -241.109 5.55976 -164.597)
(-192.143 29.2891 -0.810774 -141.792 -4.90211 -172.906)
(-171.481 55.7195 -2.20967 -163.317 -1.69118 -170.28)
(-145.031 51.6073 -2.10094 -185.627 0.774592 -162.971)
(-134.785 19.6238 -0.182414 -196.821 3.79659 -159.321)
(-190.499 16.9387 -0.496401 -165.956 -3.09085 -175.067)
(-171.745 35.0928 -0.673309 -167.763 -1.3658 -169.74)
(-149.815 32.8122 -0.59021 -172.86 0.0813209 -163.094)
(-137.818 12.4675 -0.118906 -167.695 1.69961 -157.143)
(-193.522 6.8211 0.0233932 -174.214 -0.914018 -175.88)
(-180.154 15.8007 1.04432 -172.209 -0.59971 -173.676)
(-147.505 13.9665 1.06544 -160.923 -0.253545 -159.688)
(-137.565 3.67679 0.143378 -155.529 0.129442 -157.353)
(204.555 181.557 2.88421 566.294 72.6171 250.065)
(-62.8404 134.718 -8.82037 -24.4681 31.7812 -58.9431)
(-201.457 110.795 -12.3085 -328.966 -3.88688 -215.397)
(-479.524 80.8013 -7.12013 -809.829 -27.8899 -524.608)
(-229.303 69.6891 -3.91287 70.787 16.0838 -147.549)
(-139.661 140.164 -18.0601 -58.7838 10.7887 -126.361)
(-155.416 122.29 -19.9769 -288.269 9.79782 -181.542)
(-110.821 32.7871 -7.16316 -418.442 7.4542 -181.231)
(-182.185 68.3188 -2.19108 47.5363 2.77523 -130.118)
(-166.656 113.965 -12.395 -105.275 4.28357 -155.508)
(-143.192 101.302 -13.4677 -248.374 8.2913 -169.38)
(-142.182 32.2419 -3.75021 -376.201 11.1196 -192.561)
(-194.387 52.0498 -1.4247 -38.1155 -4.41282 -156.171)
(-167.659 91.7634 -7.20678 -128.651 0.626486 -162.117)
(-143.769 82.1918 -7.43237 -222.674 6.3872 -166.761)
(-131.893 25.8825 -1.34502 -295.288 11.5959 -171.26)
(-191.93 38.3409 -0.204618 -96.6638 -6.71237 -165.855)
(-168.804 69.7161 -3.14659 -147.353 -1.29963 -166.393)
(-145.31 63.3166 -3.05721 -200.257 4.19475 -164.426)
(-134.129 21.4234 0.440904 -237.038 9.42489 -163.325)
(-191.592 25.2569 0.705854 -140.602 -6.31485 -173.336)
(-170.135 49.1277 -0.206985 -159.779 -1.99233 -168.794)
(-148.232 45.3678 -0.0474604 -183.007 2.18225 -163.197)
(-136.135 16.2306 1.39032 -192.642 6.27691 -157.844)
(-191.424 14.1315 1.42482 -166.659 -4.28191 -177.148)
(-172.48 30.3877 1.92328 -167.226 -1.83229 -170.695)
(-151.133 28.4051 2.0643 -170.533 0.650063 -162.626)
(-138.091 10.1386 1.88766 -164.573 2.97278 -155.55)
(-194.067 5.78335 2.33065 -174.56 -1.68171 -178.193)
(-181.206 13.6596 4.00789 -172.656 -1.01546 -175.788)
(-148.49 11.9357 4.10404 -160.303 -0.139491 -160.085)
(-138.536 2.77772 2.55053 -155.183 0.616972 -157.448)
(216.491 191.709 1.93658 579.465 47.0322 274.465)
(-62.5499 142.821 -5.78506 -30.266 21.433 -54.0557)
(-207.274 118.559 -8.11664 -342.028 -0.666823 -225.757)
(-501.636 86.5507 -4.8327 -842.058 -15.6552 -558.706)
(-229.523 73.086 -2.85652 66.8869 17.6933 -123.704)
(-136.322 146.257 -12.3536 -59.9877 11.6724 -112.565)
(-157.273 127.385 -13.8713 -298.739 8.46778 -189.693)
(-110.129 33.8441 -5.72437 -425.54 4.95124 -199.244)
(-182.363 69.1425 -2.11819 48.4571 7.44828 -113.968)
(-164.883 116.876 -9.31826 -103.644 6.68015 -145.338)
(-142.686 103.77 -10.1584 -252.799 8.15447 -171.732)
(-143.063 32.5755 -3.43463 -382.524 8.6053 -203.608)
(-194.536 52.0098 -1.17747 -36.8889 0.484668 -147.828)
(-167.108 91.852 -5.51397 -127.017 2.89393 -156.1)
(-143.914 82.1716 -5.78006 -223.956 6.56782 -167.02)
(-132.401 25.6768 -1.36146 -297.675 9.30264 -175.408)
(-193.521 37.5951 -0.124712 -96.5101 -2.80888 -164.315)
(-168.953 68.5637 -2.0657 -145.779 0.472631 -163.387)
(-145.592 62.179 -2.04101 -199.995 4.45798 -163.474)
(-133.507 20.7378 0.256765 -236.67 7.72938 -162.128)
(-193.568 24.4079 0.797254 -140.872 -3.58577 -176.005)
(-170.69 47.5828 0.603104 -158.731 -0.772555 -168.089)
(-148.446 43.8931 0.721092 -182.166 2.44604 -161.678)
(-134.966 15.4406 1.28708 -191.263 5.19574 -153.596)
(-193.436 13.4212 1.55348 -167.078 -2.73017 -182.413)
(-173.168 29.1104 2.61695 -166.731 -1.10624 -171.661)
(-151.21 27.1897 2.73574 -169.781 0.87808 -161.065)
(-136.621 9.44417 1.90244 -163.105 2.51604 -149.81)
(-196.528 5.64529 2.38238 -176.138 -1.13248 -185.831)
(-181.7 13.2031 4.38487 -172.523 -0.771243 -177.9)
(-148.549 11.5001 4.47136 -159.814 -0.0712371 -158.772)
(-136.407 2.59898 2.5402 -152.941 0.477397 -150.531)
(225.074 197.486 1.39525 592.565 30.5932 291.554)
(-61.5299 146.661 -3.55255 -31.1475 14.6138 -50.0764)
(-210.349 122.1 -5.04083 -349.185 0.929403 -231.89)
(-515.988 89.1712 -2.96588 -863.163 -8.3967 -581.148)
(-231.328 74.9449 -1.65665 63.2708 15.0337 -108.76)
(-135.87 150.246 -7.88021 -62.4968 10.0173 -105.358)
(-157.147 130.958 -8.97034 -304.187 6.70718 -194.53)
(-108.159 34.6185 -3.83897 -429.146 3.44926 -211.636)
(-183.039 70.5868 -1.3311 46.9772 8.7515 -100.764)
(-165.021 119.892 -6.2964 -105.291 6.89113 -139.043)
(-141.417 106.529 -6.93052 -255.957 6.74333 -173.37)
(-142.462 33.4434 -2.51895 -386.753 5.84517 -212.747)
(-195.391 52.8251 -0.667342 -37.6355 3.61166 -139.477)
(-167.433 93.6946 -3.78087 -127.816 3.97542 -151.564)
(-143.015 83.9138 -4.0366 -225.612 5.58732 -166.982)
(-131.369 26.2343 -1.09993 -299.797 6.34741 -179.34)
(-194.494 37.996 0.108105 -96.8006 0.506488 -160.767)
(-169.378 69.5069 -1.26345 -145.984 1.7796 -160.77)
(-145.038 63.0783 -1.29982 -200.703 3.90301 -162.448)
(-132.557 21.0081 0.139956 -237.56 5.29618 -162.155)
(-194.555 24.5537 0.821901 -140.844 -0.858904 -176.234)
(-171.172 47.9391 0.815165 -158.666 0.398362 -167.193)
(-148.07 44.2278 0.868989 -182.327 2.24668 -160.159)
(-134.075 15.4815 1.01886 -191.475 3.56044 -150.986)
(-194.223 13.4302 1.42513 -166.746 -0.985117 -185.167)
(-173.61 29.2028 2.44196 -166.571 -0.270507 -172.089)
(-150.913 27.2623 2.51274 -169.691 0.920592 -159.434)
(-135.904 9.35618 1.59871 -163.097 1.73452 -145.797)
(-197.443 5.72702 2.07149 -176.271 -0.522673 -190.46)
(-182.057 13.2835 3.81539 -172.372 -0.42693 -179.223)
(-148.321 11.5497 3.87221 -159.622 0.0399092 -157.241)
(-135.583 2.59253 2.16335 -152.392 0.34082 -145.663)
(230.149 200.892 1.01982 601.362 19.9433 301.792)
(-60.8968 148.706 -2.09046 -31.2443 9.94711 -47.7059)
(-212.301 123.926 -3.01766 -353.564 1.46873 -235.711)
(-524.767 90.4987 -1.73946 -876.297 -4.37755 -594.83)
(-232.853 76.1322 -0.860135 61.472 11.5805 -99.9238)
(-135.696 152.801 -4.81133 -64.0269 7.79262 -101.175)
(-156.953 133.272 -5.55325 -307.545 5.01718 -197.57)
(-106.567 35.0869 -2.40196 -431.684 2.40702 -219.276)
(-183.936 71.7182 -0.69564 45.3872 7.97552 -92.2395)
(-165.214 122.194 -3.98288 -107.014 5.95828 -135.086)
(-140.48 108.671 -4.44954 -258.286 5.11558 -174.502)
(-141.597 34.1153 -1.66859 -389.571 3.80072 -218.703)
(-196.357 53.6536 -0.256259 -39.073 4.60243 -133.455)
(-167.651 95.5218 -2.38781 -129.08 3.9702 -148.349)
(-142.22 85.6555 -2.61778 -227.188 4.31789 -166.934)
(-130.288 26.8244 -0.763889 -301.445 4.04481 -182.175)
(-195.361 38.5834 0.266762 -97.7026 2.21011 -157.613)
(-169.622 70.813 -0.680682 -146.747 2.27586 -158.669)
(-144.438 64.3314 -0.759047 -201.641 3.09291 -161.634)
(-131.602 21.4522 0.0905678 -238.441 3.33539 -162.387)
(-195.343 24.9312 0.753569 -141.287 0.820413 -175.702)
(-171.421 48.7805 0.795047 -159.013 1.05527 -166.215)
(-147.629 45.0273 0.791757 -182.792 1.85508 -158.953)
(-133.235 15.7481 0.741403 -191.814 2.21244 -149.304)
(-194.841 13.6389 1.17056 -166.787 0.22504 -186.525)
(-173.834 29.6939 1.98499 -166.632 0.300088 -172.023)
(-150.565 27.7155 2.0062 -169.817 0.832656 -158.081)
(-135.222 9.46844 1.19796 -163.136 1.0502 -142.981)
(-198.154 5.85755 1.63303 -176.451 -0.020613 -193.152)
(-182.294 13.5177 2.99324 -172.318 -0.136981 -179.754)
(-147.948 11.7451 3.01251 -159.465 0.0887603 -155.771)
(-134.769 2.63868 1.64808 -151.94 0.168293 -142.031)
(233.158 202.953 0.712672 606.995 12.5724 307.787)
(-60.5551 149.885 -1.16961 -31.2116 6.48817 -46.387)
(-213.545 124.952 -1.72523 -356.303 1.38018 -238.068)
(-530.142 91.2252 -0.972031 -884.449 -2.19558 -603.067)
(-233.864 76.8972 -0.392839 60.7427 8.11774 -94.8277)
(-135.611 154.398 -2.78535 -64.8913 5.50166 -98.7828)
(-156.832 134.701 -3.25905 -309.694 3.47025 -199.428)
(-105.54 35.3409 -1.40692 -433.547 1.60168 -223.79)
(-184.579 72.5006 -0.297447 44.38 6.15646 -87.0266)
(-165.331 123.753 -2.35098 -108.265 4.48035 -132.679)
(-139.865 110.116 -2.67121 -259.915 3.55098 -175.207)
(-140.944 34.5459 -1.01213 -391.522 2.35331 -222.312)
(-197.069 54.2766 -0.0224741 -40.2909 4.11398 -129.542)
(-167.768 96.8867 -1.38735 -130.186 3.23939 -146.25)
(-141.641 86.9541 -1.56913 -228.409 3.03439 -166.861)
(-129.468 27.255 -0.470604 -302.626 2.43491 -183.931)
(-195.997 39.0607 0.305207 -98.659 2.49935 -155.326)
(-169.75 71.8909 -0.309412 -147.543 2.08324 -157.17)
(-143.961 65.3669 -0.395212 -202.448 2.21715 -161.03)
(-130.86 21.8203 0.0705937 -239.084 1.96711 -162.542)
(-195.901 25.2639 0.608396 -141.881 1.39795 -175.009)
(-171.55 49.5461 0.650136 -159.463 1.16852 -165.381)
(-147.257 45.7588 0.618489 -183.233 1.37333 -158.058)
(-132.589 16.0055 0.503379 -192.05 1.27342 -148.236)
(-195.282 13.8368 0.868993 -167.02 0.73859 -187.038)
(-173.953 30.1689 1.4415 -166.79 0.517269 -171.739)
(-150.263 28.1591 1.43278 -169.954 0.654738 -157.042)
(-134.694 9.60119 0.820306 -163.122 0.571659 -141.14)
(-198.563 5.9553 1.18052 -176.555 0.220292 -194.341)
(-182.425 13.7274 2.13519 -172.303 0.0223683 -179.756)
(-147.615 11.9232 2.13016 -159.356 0.0939693 -154.583)
(-134.213 2.67578 1.1516 -151.681 0.0558795 -139.685)
(234.87 204.157 0.424759 610.362 6.97339 311.115)
(-60.3779 150.563 -0.583982 -31.1691 3.68176 -45.6947)
(-214.285 125.533 -0.879678 -357.929 0.94237 -239.434)
(-533.262 91.6263 -0.48652 -889.235 -1.00159 -607.761)
(-234.485 77.3597 -0.153069 60.4805 4.79449 -92.0886)
(-135.571 155.334 -1.42951 -65.3566 3.26362 -97.4934)
(-156.764 135.526 -1.69213 -310.994 2.03731 -200.486)
(-104.924 35.4686 -0.727267 -434.764 0.920846 -226.259)
(-184.981 72.9855 -0.09921 43.8331 3.83841 -84.1027)
(-165.392 124.699 -1.21692 -109.036 2.75561 -131.317)
(-139.497 110.985 -1.40404 -260.946 2.08497 -175.604)
(-140.531 34.7896 -0.533559 -392.769 1.28154 -224.316)
(-197.52 54.674 0.0519298 -41.0967 2.75842 -127.267)
(-167.824 97.7511 -0.702669 -130.941 2.08536 -145.006)
(-141.274 87.7719 -0.818681 -229.217 1.79566 -166.789)
(-128.941 27.5173 -0.247955 -303.388 1.29394 -184.897)
(-196.408 39.3715 0.230648 -99.3824 1.84266 -153.91)
(-169.814 72.6021 -0.112061 -148.137 1.42293 -156.228)
(-143.644 66.0493 -0.175771 -203.003 1.33034 -160.628)
(-130.371 22.0597 0.0482082 -239.486 1.02461 -162.597)
(-196.262 25.4843 0.393975 -142.39 1.15617 -174.471)
(-171.617 50.0689 0.422762 -159.832 0.866246 -164.795)
(-147.001 46.2595 0.391207 -183.544 0.842361 -157.465)
(-132.158 16.1832 0.292199 -192.171 0.646262 -147.58)
(-195.576 13.9686 0.5336 -167.277 0.678638 -187.174)
(-174.016 30.4964 0.870808 -166.941 0.43554 -171.443)
(-150.051 28.4661 0.854894 -170.05 0.416584 -156.338)
(-134.331 9.69632 0.475381 -163.067 0.270908 -140.015)
(-198.803 6.01324 0.713391 -176.647 0.230077 -194.77)
(-182.496 13.8667 1.2791 -172.311 0.063581 -179.565)
(-147.376 12.0418 1.26741 -159.281 0.0678515 -153.75)
(-133.846 2.69752 0.678144 -151.508 0.00507775 -138.267)
(235.655 204.719 0.141204 611.948 2.23855 312.606)
(-60.3014 150.879 -0.176318 -31.1443 1.19531 -45.398)
(-214.63 125.802 -0.269086 -358.69 0.331454 -240.062)
(-534.704 91.8082 -0.14735 -891.464 -0.286451 -609.901)
(-234.779 77.5788 -0.0382972 60.4059 1.58462 -90.8985)
(-135.555 155.768 -0.438444 -65.5606 1.08084 -96.9315)
(-156.734 135.904 -0.522491 -311.611 0.671792 -200.964)
(-104.635 35.5214 -0.22409 -435.364 0.300857 -227.343)
(-185.171 73.217 -0.0204775 43.6009 1.30015 -82.797)
(-165.418 125.143 -0.374255 -109.399 0.927849 -130.705)
(-139.325 111.39 -0.435792 -261.444 0.687208 -175.781)
(-140.335 34.8982 -0.165932 -393.38 0.406953 -225.204)
(-197.735 54.8653 0.0278267 -41.4855 0.963805 -126.23)
(-167.846 98.1644 -0.212799 -131.314 0.716815 -144.43)
(-141.097 88.1609 -0.252594 -229.616 0.594149 -166.746)
(-128.688 27.6388 -0.0769553 -303.761 0.405283 -185.317)
(-196.606 39.5216 0.084548 -99.7582 0.668419 -153.243)
(-169.84 72.9479 -0.0251172 -148.444 0.501924 -155.776)
(-143.487 66.3804 -0.0483905 -203.281 0.443329 -160.427)
(-130.132 22.1745 0.0170252 -239.678 0.317086 -162.605)
(-196.438 25.5904 0.135905 -142.671 0.436853 -174.188)
(-171.646 50.3261 0.146161 -160.031 0.315863 -164.496)
(-146.873 46.5059 0.133497 -183.7 0.283842 -157.169)
(-131.945 16.2705 0.0955602 -192.219 0.196694 -147.263)
(-195.72 14.031 0.17944 -167.432 0.265112 -187.184)
(-174.045 30.6569 0.290744 -167.028 0.166073 -171.265)
(-149.945 28.6167 0.283579 -170.097 0.142811 -155.982)
(-134.151 9.74281 0.155093 -163.027 0.0785531 -139.48)
(-198.91 6.03852 0.238012 -176.699 0.092477 -194.876)
(-182.526 13.9336 0.425719 -172.322 0.0293552 -179.414)
(-147.255 12.0985 0.420316 -159.243 0.0244824 -153.322)
(-133.671 2.70659 0.22319 -151.425 -0.0029259 -137.601)
)
;

boundaryField
{
    interface
    {
        type            calculated;
        value           nonuniform List<symmTensor> 
192
(
(-192.124 59.4886 11.8137 661.841 128.645 79.5636)
(-195.454 19.4614 2.56762 130.266 -8.17234 -149.649)
(-194.172 24.6117 3.45759 126.295 0.612939 -116.664)
(-193.577 16.8991 2.19392 11.3247 -8.87189 -144.493)
(-192.632 10.7371 1.8073 -65.822 -8.36741 -156.16)
(-191.382 5.14997 1.51707 -126.531 -7.01117 -166.927)
(-189.59 1.65922 1.37103 -161.7 -4.24248 -171.698)
(-186.93 0.50682 1.20337 -168.992 -1.2301 -169.005)
(-195.785 60.5715 8.66267 612.355 90.882 85.8429)
(-199.118 23.1104 3.4733 170.289 20.1703 -111.602)
(-198.111 24.1566 2.49979 120.187 2.96602 -120.998)
(-197.303 16.9917 1.42353 12.3916 -6.68818 -145.626)
(-196.118 10.4467 0.882826 -68.6282 -9.3523 -160.346)
(-194.488 4.89938 0.672648 -129.021 -8.49436 -170.634)
(-192.2 1.39831 0.677864 -163.766 -5.4537 -175.035)
(-188.837 0.227071 0.724652 -169.896 -1.89172 -171.883)
(-197.795 64.6215 5.80853 628.322 58.4585 107.116)
(-201.482 23.3766 2.93806 161.899 21.5955 -85.5632)
(-200.463 24.1373 2.26637 117.163 8.65943 -105.045)
(-199.562 16.9525 1.38802 10.914 -0.196481 -138.825)
(-198.227 10.3485 0.832826 -69.9566 -4.10293 -160.622)
(-196.367 4.82391 0.56236 -129.811 -4.76242 -175.332)
(-193.765 1.32756 0.495727 -163.99 -3.34255 -182.328)
(-189.985 0.0320722 0.511391 -170.809 -1.13178 -181.197)
(-199.196 67.5654 3.86312 643.174 37.6453 121.787)
(-203.143 23.5895 2.28138 157.62 18.0614 -66.8811)
(-202.087 24.2127 1.95378 114.36 10.3064 -89.6887)
(-201.127 16.9356 1.35959 9.28045 3.96277 -129.445)
(-199.683 10.3205 0.894079 -70.8524 0.280058 -157.218)
(-197.664 4.81309 0.603441 -130.077 -1.17871 -176.522)
(-194.846 1.32141 0.462311 -163.748 -1.09286 -186.597)
(-190.785 -0.0492595 0.396571 -170.904 -0.371916 -187.433)
(-200.204 69.4904 2.55381 653.278 24.3173 130.536)
(-204.319 23.8257 1.6781 156.161 13.7812 -55.4316)
(-203.23 24.3235 1.55031 112.619 9.40491 -79.2308)
(-202.228 16.9214 1.18616 7.65052 5.33999 -122.123)
(-200.705 10.2844 0.848072 -71.9155 2.53452 -153.63)
(-198.573 4.78346 0.59211 -130.612 0.987422 -176.274)
(-195.604 1.299 0.428573 -163.83 0.418006 -188.764)
(-191.349 -0.107659 0.317161 -171.03 0.217254 -191.069)
(-200.91 70.7186 1.62498 659.82 15.2221 135.584)
(-205.128 24.0302 1.14677 155.876 9.60664 -48.7777)
(-204.014 24.4391 1.11438 111.742 7.25833 -72.7732)
(-202.982 16.922 0.906036 6.44556 4.84028 -117.277)
(-201.406 10.2464 0.68511 -72.9173 2.96703 -150.913)
(-199.197 4.742 0.493738 -131.263 1.72715 -175.624)
(-196.124 1.26485 0.351637 -164.114 1.02607 -189.683)
(-191.736 -0.149762 0.237521 -171.156 0.46003 -192.808)
(-201.361 71.4538 0.905949 663.76 8.40471 138.332)
(-205.64 24.1748 0.666821 155.958 5.65698 -45.1881)
(-204.509 24.5299 0.66829 111.35 4.52411 -69.156)
(-203.458 16.9301 0.562987 5.69489 3.26066 -114.454)
(-201.849 10.2179 0.439982 -73.6527 2.20623 -149.217)
(-199.59 4.70501 0.323857 -131.813 1.43107 -175.07)
(-196.453 1.2325 0.229764 -164.417 0.909149 -190.013)
(-191.979 -0.179851 0.146527 -171.283 0.402322 -193.528)
(-201.574 71.7991 0.291189 665.627 2.69213 139.548)
(-205.877 24.2483 0.218199 156.071 1.86733 -43.6187)
(-204.739 24.5791 0.221953 111.215 1.5322 -67.5411)
(-203.681 16.9368 0.190073 5.34734 1.14107 -113.168)
(-202.056 10.2033 0.150799 -74.0279 0.802243 -148.414)
(-199.776 4.68402 0.112118 -132.115 0.540571 -174.768)
(-196.607 1.2125 0.0793884 -164.597 0.35123 -190.099)
(-192.077 -0.196086 0.0487652 -171.348 0.154406 -193.749)
(-48.4947 143.22 0.577796 378.345 18.0261 -177.909)
(-276.548 56.1542 -3.52714 -16.444 -0.45252 -177.243)
(-216.683 73.9299 -4.19957 10.7192 -0.202282 -176.669)
(-215.64 59.2451 -4.17278 -64.0801 -0.421058 -176.335)
(-201.982 47.1185 -3.95169 -108.169 -0.181919 -176.083)
(-194.865 32.5041 -3.55283 -144.141 0.000514625 -175.822)
(-190.496 19.1221 -3.08428 -165.285 0.0694943 -175.495)
(-192.679 7.71038 -2.63106 -173.13 0.088026 -175.029)
(-121.412 95.0441 -1.85919 -25.7425 1.79627 -171.847)
(-195.184 121.947 -3.38848 -122.255 -2.02462 -171.285)
(-185.519 121.187 -3.59275 -122.499 -1.5754 -170.812)
(-179.948 104.293 -3.66497 -144.718 -1.12257 -170.426)
(-174.215 83.5695 -3.49036 -156.882 -0.629299 -170.099)
(-171.912 60.8223 -3.17371 -164.837 -0.300721 -169.797)
(-171.468 38.6489 -2.79459 -168.024 -0.137977 -169.487)
(-176.861 17.5282 -2.45209 -169.212 -0.0723028 -169.081)
(-157.327 72.7417 -3.32715 -266.968 -0.643333 -165.336)
(-123.148 109.523 -4.22968 -241.446 -2.68376 -164.999)
(-126.151 109.47 -4.1737 -239.162 -2.21239 -164.567)
(-130.123 95.0425 -3.86812 -221.165 -1.52843 -164.207)
(-136.656 76.6621 -3.53489 -204.65 -0.906697 -163.908)
(-143.259 56.4068 -3.1733 -188.52 -0.499464 -163.671)
(-149.087 36.132 -2.79459 -174.964 -0.300352 -163.473)
(-149.69 15.5979 -2.47053 -164.219 -0.243886 -163.233)
(-228.992 58.0057 -4.056 -573.874 7.54752 -157.843)
(-64.0918 28.0115 -5.54529 -338.696 -2.3865 -157.289)
(-107.706 38.2721 -4.93956 -348.942 -2.22764 -156.898)
(-111.16 33.2676 -4.52892 -284.626 -1.63782 -156.704)
(-123.453 29.0696 -4.02169 -238.896 -0.987895 -156.635)
(-131.685 22.3217 -3.5486 -198.561 -0.549722 -156.675)
(-137.412 14.2332 -3.07933 -170.369 -0.353393 -156.797)
(-137.48 4.42968 -2.6374 -156.56 -0.338976 -156.955)
(-142.392 -36.5019 -1.96191 -763.679 -53.3267 -359.87)
(-139.955 -19.1374 3.25335 -457.958 15.4885 -188.988)
(-140.3 -22.3601 2.57136 -426.968 5.52899 -207.378)
(-140.44 -16.1256 3.1012 -329.299 9.64665 -182.112)
(-140.96 -10.4566 2.87585 -257.643 7.70423 -171.428)
(-141.817 -5.34504 2.49407 -200.46 5.45995 -162.769)
(-143.137 -2.17893 1.94926 -165.327 2.44571 -159.414)
(-145.207 -1.60735 1.38073 -157.659 0.165711 -163.311)
(-140.469 -41.5004 -1.93051 -773.592 -37.323 -376.463)
(-138.519 -22.1385 1.42563 -490.5 4.48658 -210.191)
(-138.808 -22.1175 2.07594 -423.493 11.5558 -200.36)
(-138.913 -16.012 2.41831 -326.77 13.749 -179.337)
(-139.31 -10.1295 2.2805 -251.696 11.9001 -167.287)
(-140.12 -5.23135 1.87868 -195.381 8.32448 -159.536)
(-141.466 -2.3254 1.34614 -162.02 4.08954 -156.991)
(-143.684 -2.00905 0.85738 -156.277 0.9632 -162.169)
(-139.206 -45.9906 -1.1644 -796.377 -21.5463 -401.183)
(-137.067 -22.9415 0.843355 -492.723 2.10135 -230.113)
(-137.412 -22.6532 1.35459 -427.079 8.00239 -211.948)
(-137.521 -16.2713 1.64946 -327.595 10.0529 -182.948)
(-137.927 -10.2462 1.59904 -250.754 8.98538 -164.949)
(-138.785 -5.35741 1.3292 -194.068 6.35664 -153.651)
(-140.224 -2.50758 0.953457 -160.962 3.18101 -149.318)
(-142.597 -2.15009 0.598105 -154.423 0.692124 -153.363)
(-138.125 -48.9025 -0.595095 -811.752 -12.0002 -417.968)
(-135.77 -23.5681 0.578663 -494.732 1.16448 -245.811)
(-136.148 -23.2187 0.883623 -430.249 4.78783 -223.283)
(-136.279 -16.6274 1.07989 -329.236 6.18013 -188.137)
(-136.732 -10.4926 1.06612 -251.303 5.59824 -164.994)
(-137.667 -5.56198 0.906955 -194.098 3.95666 -150.151)
(-139.212 -2.70446 0.673328 -160.835 1.96235 -143.784)
(-141.731 -2.30116 0.445372 -153.68 0.422021 -146.751)
(-137.295 -50.7413 -0.278017 -821.423 -6.59892 -428.092)
(-134.798 -24.0638 0.404082 -496.787 0.720376 -255.76)
(-135.199 -23.6845 0.569253 -432.706 2.7469 -231.06)
(-135.349 -16.9453 0.680669 -330.685 3.5074 -192.234)
(-135.841 -10.7185 0.67609 -251.992 3.13984 -165.633)
(-136.837 -5.73235 0.588118 -194.277 2.16574 -148.158)
(-138.463 -2.84857 0.452931 -160.748 1.00022 -140.144)
(-141.09 -2.41286 0.316831 -153.186 0.141362 -142.169)
(-136.699 -51.8959 -0.118531 -827.44 -3.53738 -434.033)
(-134.114 -24.426 0.268658 -498.489 0.453673 -261.614)
(-134.531 -24.035 0.352531 -434.517 1.51804 -235.807)
(-134.695 -17.1902 0.409956 -331.763 1.87695 -194.859)
(-135.214 -10.8877 0.406592 -252.492 1.62642 -166.162)
(-136.252 -5.85098 0.359598 -194.363 1.0633 -147.014)
(-137.936 -2.94222 0.285327 -160.612 0.41419 -137.897)
(-140.638 -2.49373 0.209471 -152.889 -0.0151392 -139.33)
(-136.313 -52.5813 -0.0447321 -830.973 -1.72567 -437.327)
(-133.676 -24.6607 0.153091 -499.653 0.254645 -264.79)
(-134.103 -24.2671 0.191422 -435.704 0.756953 -238.429)
(-134.275 -17.3541 0.217737 -332.463 0.902153 -196.323)
(-134.812 -10.9978 0.215121 -252.792 0.750135 -166.459)
(-135.878 -5.92332 0.192275 -194.37 0.45557 -146.354)
(-137.598 -2.99677 0.155398 -160.468 0.129338 -136.588)
(-140.352 -2.5443 0.116543 -152.7 -0.0587074 -137.686)
(-136.128 -52.9034 -0.0112446 -832.62 -0.515836 -438.803)
(-133.469 -24.776 0.0492413 -500.242 0.0824443 -266.181)
(-133.902 -24.3821 0.0601833 -436.295 0.228998 -239.587)
(-134.078 -17.4356 0.0677187 -332.812 0.266394 -196.969)
(-134.623 -11.0513 0.0667327 -252.935 0.215014 -166.586)
(-135.701 -5.95705 0.0599544 -194.36 0.123084 -146.05)
(-137.439 -3.02256 0.048791 -160.383 0.0238099 -135.986)
(-140.234 -2.56726 0.0363589 -152.622 -0.0275707 -136.947)
(-196.841 4.51584 0.399976 -175.315 -0.31294 -176.542)
(-196.889 4.64775 2.9193 -175.345 -0.470475 -178.849)
(-198.129 4.88946 2.85915 -175.401 -0.413801 -186.128)
(-198.883 5.06182 2.43507 -175.451 -0.337206 -191.225)
(-199.496 5.19466 1.89429 -175.496 -0.258968 -194.215)
(-199.863 5.28342 1.36218 -175.532 -0.185619 -195.532)
(-200.064 5.33743 0.821738 -175.56 -0.113939 -195.972)
(-200.16 5.36115 0.274059 -175.596 -0.0391661 -196.074)
(-183.876 3.82153 2.07736 -168.343 -0.113536 -173.304)
(-183.953 3.92996 5.16205 -168.152 -0.40677 -175.16)
(-184.182 4.066 5.26925 -168.04 -0.427483 -177.661)
(-184.529 4.18836 4.47283 -167.959 -0.366335 -179.357)
(-184.813 4.2818 3.47261 -167.905 -0.287236 -180.112)
(-184.988 4.34631 2.47333 -167.872 -0.206664 -180.196)
(-185.081 4.38688 1.48418 -167.852 -0.125618 -180.009)
(-185.122 4.40759 0.494815 -167.847 -0.0424248 -179.844)
(-148.763 1.42408 2.09362 -161.684 0.0880012 -161.461)
(-149.328 1.55589 5.22894 -161.329 -0.274073 -162.13)
(-149.526 1.68175 5.33264 -161.08 -0.335713 -161.059)
(-149.366 1.76014 4.5101 -160.882 -0.299232 -159.629)
(-149.053 1.80398 3.47959 -160.737 -0.237663 -158.182)
(-148.754 1.82907 2.46145 -160.636 -0.171507 -156.98)
(-148.534 1.84328 1.46927 -160.572 -0.103894 -156.123)
(-148.422 1.85057 0.488483 -160.542 -0.0348763 -155.679)
(-136.336 0.764237 0.51949 -155.096 0.423384 -158.549)
(-136.879 0.927908 3.06483 -154.52 0.0471603 -158.749)
(-136.025 0.99347 2.96692 -154.096 -0.0421094 -152.892)
(-135.462 1.05778 2.50785 -153.757 -0.0634475 -148.076)
(-134.821 1.08783 1.92084 -153.502 -0.0590745 -144.41)
(-134.327 1.10575 1.35782 -153.321 -0.0468551 -141.996)
(-133.992 1.1158 0.808316 -153.203 -0.0295829 -140.533)
(-133.827 1.12092 0.267726 -153.142 -0.00998145 -139.843)
)
;
    }
    symmetry
    {
        type            symmetryPlane;
    }
    bottom
    {
        type            calculated;
        value           nonuniform List<symmTensor> 
32
(
(287.97 192.484 19.4152 419.429 215.396 292.346)
(254.146 204.224 11.2926 361.683 115.435 240.551)
(263.472 213.585 6.79704 373.888 66.7754 243.856)
(271.382 218.893 4.17304 384.983 40.184 249.417)
(276.393 221.975 2.59245 392.086 24.6879 253.372)
(279.499 223.847 1.57587 396.497 14.9079 255.942)
(281.321 224.953 0.853513 399.077 8.04296 257.479)
(282.169 225.472 0.27083 400.278 2.54748 258.202)
(-20.0496 79.0041 3.47567 -35.2563 77.2305 -20.2075)
(-44.0007 99.0938 2.53045 -73.9596 44.0081 -48.5748)
(-44.4758 104.739 1.64138 -75.656 26.9855 -50.4236)
(-44.0462 106.559 1.06527 -75.3502 17.2172 -50.4672)
(-43.7613 107.3 0.694904 -75.0639 11.1552 -50.3732)
(-43.6028 107.698 0.439597 -74.9023 7.03126 -50.3074)
(-43.5185 107.941 0.244802 -74.8221 3.9069 -50.2731)
(-43.4814 108.061 0.0787829 -74.7894 1.25594 -50.259)
(-187.056 55.4558 -0.922155 -276.044 -25.9027 -188.6)
(-200.908 78.4874 -0.782484 -298.492 -15.345 -204.757)
(-207.698 84.79 -0.441036 -309.044 -7.96101 -212.353)
(-211.529 86.7402 -0.204863 -314.77 -3.60372 -216.451)
(-213.93 87.4955 -0.0743114 -318.285 -1.29348 -218.955)
(-215.449 87.8868 -0.0138221 -320.495 -0.239236 -220.527)
(-216.353 88.1219 0.00559522 -321.81 0.0965167 -221.461)
(-216.776 88.2382 0.00400284 -322.426 0.0689346 -221.9)
(-458.318 86.4516 -8.58047 -650.747 -124.565 -451.91)
(-465.327 107.595 -6.00567 -664.822 -69.4762 -470.749)
(-484.581 116.321 -3.6578 -692.311 -38.4671 -494.433)
(-497.294 120.156 -2.11217 -709.932 -21.2611 -508.857)
(-505.178 122.136 -1.18816 -720.725 -11.6839 -517.485)
(-510.061 123.284 -0.646146 -727.376 -6.26744 -522.738)
(-512.921 123.954 -0.317867 -731.266 -3.05872 -525.795)
(-514.25 124.269 -0.0953825 -733.074 -0.914416 -527.212)
)
;
    }
}


// ************************************************************************* //
