/*--------------------------------*- C++ -*----------------------------------*\
| =========                 |                                                 |
| \\      /  F ield         | foam-extend: Open Source CFD                    |
|  \\    /   O peration     | Version:     3.1                                |
|   \\  /    A nd           | Web:         http://www.extend-project.de       |
|    \\/     M anipulation  |                                                 |
\*---------------------------------------------------------------------------*/
FoamFile
{
    version     2.0;
    format      ascii;
    class       volScalarField;
    location    "0.6";
    object      sigmaCauchyEq;
}
// * * * * * * * * * * * * * * * * * * * * * * * * * * * * * * * * * * * * * //

dimensions      [1 -1 -2 0 0 0 0];

internalField   nonuniform List<scalar> 
256
(
514.319
222.458
192.164
336.717
274.402
237.442
231.234
270.707
242.04
211.361
206.633
222.09
169.236
174.272
172.135
160.378
112.825
135.369
134.159
107.306
67.7077
96.9304
96.1592
64.2414
36.7682
60.9374
60.269
34.1139
22.0341
28.407
27.4553
19.9868
480.83
242.998
228.039
343.969
295.966
256.726
247.408
285.438
239.921
206.61
201.324
221.461
167.634
163.569
159.671
155.672
108.705
122.597
120.175
100.409
63.5393
85.7192
84.2727
57.8955
33.5225
53.036
52.1545
29.822
21.1654
25.8295
24.7987
19.0725
480.596
252.016
241.615
350.705
290.997
263.852
256.809
287.969
238.099
210.498
206.359
223.495
166.706
163.444
159.929
155.886
108.142
120.646
118.226
99.8935
63.1469
83.1501
81.6412
57.1733
33.1011
50.9948
50.016
28.6968
20.7017
25.4207
23.9372
16.7223
484.618
256.735
248.099
355.312
288.513
268.859
263.34
290.174
236.505
214.649
211.675
225.666
166.145
166.189
163.353
157.413
108.252
122.18
120.083
101.005
63.6345
83.7819
82.409
58.0537
33.7384
51.1632
50.1637
29.1143
21.4766
25.455
23.4874
15.7878
488.473
259.446
251.6
358.454
288.038
272.306
267.7
292.384
235.78
217.921
215.855
227.726
165.835
168.977
166.786
159.109
108.428
124.31
122.598
102.407
64.1448
85.2074
84.0303
59.2347
34.427
51.9555
51.0001
29.9896
22.3254
25.6076
23.3415
15.8745
491.395
261.1
253.642
360.551
288.272
274.561
270.502
294.186
235.555
220.183
218.757
229.393
165.653
171.07
169.395
160.519
108.472
126.057
124.689
103.574
64.4035
86.4836
85.5032
60.2018
34.8132
52.7055
51.8311
30.7571
22.803
25.7208
23.3393
16.2772
493.321
262.087
254.822
361.853
288.621
275.918
272.173
295.421
235.531
221.57
220.546
230.536
165.545
172.394
171.069
161.487
108.431
127.198
126.082
104.361
64.4666
87.3414
86.5152
60.8367
34.9461
53.211
52.4158
31.2681
22.9775
25.7728
23.3735
16.6322
494.274
262.556
255.373
362.48
288.838
276.556
272.956
296.043
235.551
222.224
221.394
231.112
165.492
173.026
171.876
161.974
108.386
127.748
126.764
104.752
64.4579
87.7581
87.0157
61.1441
34.9645
53.4541
52.7062
31.5148
23.0126
25.7884
23.3975
16.8227
)
;

boundaryField
{
    interface
    {
        type            calculated;
        value           nonuniform List<scalar> 
192
(
794.822
307.617
292.783
188.266
115.549
58.7516
25.8233
18.1983
735.405
338.601
290.707
191.865
116.468
59.8597
26.6742
18.3728
739.209
326.228
285.782
189.931
115.835
60.0916
26.7645
16.7645
748.479
319.723
281.59
187.724
115.117
60.5041
28.0717
18.4591
756.189
317.369
279.319
186.017
114.362
60.6058
29.0718
20.1926
761.683
316.764
278.28
184.901
113.64
60.3854
29.4662
21.1568
765.167
316.748
277.854
184.239
113.073
60.0494
29.4727
21.528
766.856
316.828
277.707
183.93
112.762
59.8174
29.3852
21.6184
562.753
247.353
246.3
170.707
117.258
71.9518
40.0997
23.405
208.906
220.923
217.638
183.498
145.724
105.679
67.1839
31.6115
164.668
216.463
214.299
183.026
145.548
105.439
66.6678
30.7589
398.57
246.909
230.716
166.295
114.822
70.4214
38.2053
21.256
557.421
299.646
262.793
174.992
107.327
53.321
20.9702
16.4594
562.568
324.557
263.044
175.17
104.964
51.5599
20.402
16.8697
579.728
321.948
263.836
175.108
104.767
51.6524
19.3932
12.0343
592.607
321.145
264.859
175.678
105.427
52.7075
20.6023
11.1811
601.254
321.901
266.246
176.579
106.272
53.7672
22.1348
12.3391
606.85
323.045
267.596
177.473
106.989
54.533
23.2772
13.6606
610.216
323.991
268.609
178.15
107.48
54.9936
23.9632
14.5599
611.801
324.501
269.14
178.505
107.723
55.2037
24.2755
14.9921
22.3702
22.1801
22.0135
22.8745
23.8552
24.3885
24.5855
24.6208
15.6721
17.7432
18.2011
18.1295
17.8858
17.58
17.3084
17.1504
13.5419
15.6135
15.0792
13.7965
12.6271
11.8074
11.3072
11.0722
20.7778
20.8443
18.3201
16.8904
16.6257
16.8259
17.0848
17.2355
)
;
    }
    symmetry
    {
        type            symmetryPlane;
    }
    bottom
    {
        type            calculated;
        value           nonuniform List<scalar> 
32
(
517.874
422.718
406.342
405.613
407.732
409.872
411.4
412.174
192.051
189.92
189.54
189.149
189.027
189.104
189.245
189.342
137.932
168.377
177.707
181.068
182.654
183.574
184.133
184.404
327.865
296.758
293.723
295.926
298.537
300.578
301.913
302.566
)
;
    }
}


// ************************************************************************* //
