/*--------------------------------*- C++ -*----------------------------------*\
| =========                 |                                                 |
| \\      /  F ield         | foam-extend: Open Source CFD                    |
|  \\    /   O peration     | Version:     3.1                                |
|   \\  /    A nd           | Web:         http://www.extend-project.de       |
|    \\/     M anipulation  |                                                 |
\*---------------------------------------------------------------------------*/
FoamFile
{
    version     2.0;
    format      ascii;
    class       volScalarField;
    location    "0.6";
    object      sigmaEq;
}
// * * * * * * * * * * * * * * * * * * * * * * * * * * * * * * * * * * * * * //

dimensions      [1 -1 -2 0 0 0 0];

internalField   nonuniform List<scalar> 
256
(
454.407
222.337
206.939
417.776
282.366
245.826
245.65
291.236
243.894
219.149
218.67
241.531
173.823
181.459
181.263
171.139
116.871
141.258
140.761
113.366
70.7081
101.334
100.591
67.2662
38.589
63.7781
62.9097
35.5056
23.1792
29.7992
28.5796
20.7624
430.639
245.829
247.907
429.662
298.95
262.976
265.502
312.4
241.792
213.745
213.748
241.033
171.692
169.816
168.498
166.416
112.504
127.713
126.173
106.074
66.3228
89.5331
88.1593
60.6016
35.185
55.5055
54.4272
31.0257
22.2663
27.101
25.8154
19.817
430.069
255.306
263.59
442.453
295.341
270.757
276.051
314.934
240.498
218.043
219.216
243.303
170.945
169.822
168.816
166.64
112.001
125.723
124.147
105.513
65.9228
86.8528
85.4171
59.8516
34.7297
53.3602
52.2015
29.8664
21.7723
26.6644
24.9203
17.3619
433.113
260.197
271.119
451.148
294.048
276.333
283.191
316.885
239.545
222.7
224.884
245.548
170.687
172.887
172.452
168.205
112.225
127.415
126.124
106.675
66.4464
87.5378
86.2434
60.7872
35.3819
53.5314
52.3694
30.3203
22.5707
26.6913
24.4549
16.397
436.152
263.004
275.208
456.952
294.36
280.156
287.933
318.968
239.336
226.362
229.341
247.67
170.662
175.966
176.102
169.958
112.522
129.728
128.795
108.145
67.0045
89.0588
87.9641
62.0328
36.098
54.3626
53.2569
31.2444
23.4548
26.8457
24.3071
16.4952
438.481
264.717
277.603
460.769
295.07
282.646
290.984
320.745
239.457
228.891
232.442
249.411
170.691
178.274
178.883
171.427
112.664
131.623
131.018
109.371
67.302
90.4226
89.5255
63.0507
36.5041
55.1541
54.1362
32.0506
23.9536
26.9625
24.309
16.919
440.021
265.737
278.991
463.114
295.684
284.139
292.81
321.997
239.639
230.44
234.36
250.619
170.716
179.735
180.671
172.443
112.688
132.864
132.5
110.2
67.3904
91.3421
90.5986
63.7182
36.647
55.6902
54.755
32.5859
24.1363
27.0173
24.348
17.2906
440.784
266.222
279.639
464.237
296.02
284.84
293.667
322.636
239.754
231.171
235.27
251.232
170.727
180.432
181.534
172.956
112.674
133.463
133.226
110.611
67.3937
91.7897
91.1295
64.0412
36.6691
55.9489
55.0624
32.8441
24.1731
27.0343
24.375
17.4897
)
;

boundaryField
{
    interface
    {
        type            calculated;
        value           nonuniform List<scalar> 
192
(
732.55
305.455
291.763
191.171
118.991
61.1815
27.0754
19.1065
687.144
334.975
290.082
194.9
120.008
62.3574
27.9697
19.2958
693.397
324.53
286.074
193.278
119.466
62.6134
28.0538
17.5924
703.053
319.527
282.841
191.449
118.86
63.0628
29.4145
19.3562
710.594
318.109
281.283
190.07
118.209
63.1916
30.4594
21.174
715.81
318.05
280.71
189.195
117.568
62.986
30.8739
22.1878
719.061
318.329
280.557
188.687
117.057
62.6559
30.8834
22.5789
720.62
318.537
280.534
188.451
116.773
62.4256
30.7935
22.6745
532.464
256.012
250.199
176.069
121.754
75.2114
42.0876
24.6179
210.649
230.203
226.275
191.496
152.272
110.556
70.3225
33.1405
176.024
228.474
226.245
192.509
152.668
110.311
69.6051
32.0362
455.903
263.497
248.954
176.908
121.159
73.7328
39.7796
22.0787
658.965
332.358
288.819
188.518
113.91
55.939
21.8375
17.1392
663.472
362.053
289.055
188.65
111.318
54.0632
21.2443
17.5607
684.07
358.403
289.674
188.465
111.062
54.159
20.2016
12.5126
699.656
356.747
290.452
188.951
111.73
55.2658
21.4691
11.6329
710.24
357.087
291.711
189.823
112.605
56.3782
23.0673
12.8425
717.164
358.075
293.034
190.725
113.352
57.1816
24.2557
14.2159
721.363
358.982
294.064
191.42
113.866
57.6642
24.9681
15.1489
723.353
359.489
294.613
191.789
114.122
57.8843
25.2921
15.5969
23.5495
23.3499
23.1565
24.041
25.0611
25.6173
25.8227
25.8593
16.4418
18.6215
19.0981
19.0144
18.7509
18.4248
18.1369
17.9698
14.1038
16.2625
15.7046
14.3672
13.1494
12.2975
11.7789
11.5356
21.5854
21.6577
19.0212
17.5397
17.2736
17.4888
17.762
17.9204
)
;
    }
    symmetry
    {
        type            symmetryPlane;
    }
    bottom
    {
        type            calculated;
        value           nonuniform List<scalar> 
32
(
469.133
388.084
372.192
370.678
372.06
373.663
374.85
375.459
193.63
193.378
193.076
192.663
192.525
192.595
192.735
192.832
148.079
181.94
192.592
196.547
198.462
199.585
200.266
200.595
393.811
357.891
357.359
362.134
366.655
369.995
372.132
373.167
)
;
    }
}


// ************************************************************************* //
