/*--------------------------------*- C++ -*----------------------------------*\
| =========                 |                                                 |
| \\      /  F ield         | foam-extend: Open Source CFD                    |
|  \\    /   O peration     | Version:     3.1                                |
|   \\  /    A nd           | Web:         http://www.extend-project.de       |
|    \\/     M anipulation  |                                                 |
\*---------------------------------------------------------------------------*/
FoamFile
{
    version     2.0;
    format      ascii;
    class       volVectorField;
    location    "0.6";
    object      U;
}
// * * * * * * * * * * * * * * * * * * * * * * * * * * * * * * * * * * * * * //

dimensions      [0 1 -1 0 0 0 0];

internalField   nonuniform List<vector> 
256
(
(0.00117869 0.000705787 0.00138112)
(0.00043905 0.000112843 0.000339814)
(0.000384877 -0.000297336 -0.00070935)
(0.00102643 -0.00103828 -0.00199003)
(0.00515782 0.00311456 0.00146434)
(0.00424275 0.000672331 0.00045741)
(0.00407575 -0.00137847 -0.000897276)
(0.00457992 -0.00402513 -0.00198553)
(0.0102587 0.00473663 0.00145331)
(0.00933537 0.00101969 0.000460708)
(0.00909054 -0.00236465 -0.00071053)
(0.0094444 -0.0063036 -0.00175021)
(0.0163606 0.00583555 0.00125072)
(0.0155177 0.00110093 0.000450477)
(0.0152052 -0.00333139 -0.000480719)
(0.0153342 -0.0082619 -0.00130665)
(0.0230648 0.00639259 0.000995496)
(0.0223004 0.000956219 0.000413611)
(0.0219347 -0.0042143 -0.000254666)
(0.021882 -0.00980036 -0.000850715)
(0.0300166 0.00652909 0.000746052)
(0.0293288 0.00065571 0.000366505)
(0.0289252 -0.0049939 -6.69534e-05)
(0.0287326 -0.0109698 -0.000453219)
(0.0369286 0.00636665 0.000552823)
(0.0363045 0.000266126 0.000325056)
(0.0358796 -0.00565493 7.7905e-05)
(0.035597 -0.0118217 -0.000150585)
(0.0436237 0.00603464 0.000445203)
(0.0430178 -0.000155196 0.000300575)
(0.0425846 -0.00620339 0.000192153)
(0.0422795 -0.0124453 4.89242e-05)
(0.0013696 0.000700502 0.00071441)
(0.000680671 0.000101985 0.000167939)
(0.000643063 -0.000281775 -0.000450176)
(0.00124065 -0.000970681 -0.00118227)
(0.00566126 0.00299419 0.000906779)
(0.00464367 0.000587183 0.000252561)
(0.00450907 -0.00140577 -0.000620063)
(0.0051717 -0.00402372 -0.00134651)
(0.010817 0.00464596 0.000975822)
(0.00988632 0.000906049 0.000292125)
(0.00965217 -0.00249258 -0.000528791)
(0.0100241 -0.00644874 -0.00125511)
(0.0168813 0.00575103 0.000905115)
(0.0160313 0.000986372 0.000314318)
(0.0157175 -0.0034798 -0.000371269)
(0.0158452 -0.00843745 -0.000987577)
(0.023489 0.00632795 0.000775314)
(0.0227259 0.000857255 0.000313853)
(0.0223517 -0.00435684 -0.000207627)
(0.022278 -0.00997353 -0.000682013)
(0.0303312 0.00648024 0.00063605)
(0.0296488 0.000574922 0.00030087)
(0.0292351 -0.00511608 -6.67181e-05)
(0.0290164 -0.0111203 -0.000406782)
(0.0371512 0.00632806 0.000525065)
(0.0365364 0.000198585 0.000287794)
(0.0361031 -0.0057576 4.3517e-05)
(0.0357951 -0.0119499 -0.000193008)
(0.0437991 0.00600335 0.000463679)
(0.0432014 -0.000214382 0.000285168)
(0.0427616 -0.00629588 0.000126286)
(0.042438 -0.0125631 -4.93687e-05)
(0.00146081 0.000731805 0.000382221)
(0.00074295 0.000106263 7.94375e-05)
(0.000710637 -0.000294069 -0.000289022)
(0.00134503 -0.00101018 -0.000714413)
(0.00592232 0.00295702 0.000545549)
(0.00483592 0.000548628 0.00013357)
(0.00471883 -0.00142232 -0.000413316)
(0.00547778 -0.00405041 -0.000878403)
(0.011159 0.00456882 0.000629902)
(0.0101775 0.000839809 0.000176242)
(0.0099541 -0.00253992 -0.000371851)
(0.0103941 -0.00648913 -0.000859153)
(0.017238 0.00564761 0.00062808)
(0.0163567 0.000903369 0.000210092)
(0.0160465 -0.00354302 -0.000272606)
(0.016211 -0.00847942 -0.000711513)
(0.0238205 0.00621992 0.000582273)
(0.02304 0.000771357 0.000229764)
(0.0226646 -0.00442572 -0.000161639)
(0.022607 -0.0100184 -0.000524628)
(0.0306199 0.00638245 0.000521917)
(0.0299308 0.000494487 0.000238896)
(0.0295138 -0.00518488 -6.16594e-05)
(0.0292971 -0.0111694 -0.00034797)
(0.0374014 0.00625063 0.000471233)
(0.0367873 0.000127196 0.000244358)
(0.0363501 -0.00582576 1.82899e-05)
(0.0360351 -0.0120093 -0.00020701)
(0.0440337 0.0059505 0.000443076)
(0.0434408 -0.000276869 0.000251952)
(0.0429963 -0.0063665 7.61547e-05)
(0.0426587 -0.0126398 -0.000111477)
(0.00150224 0.000750824 0.00020868)
(0.000757669 0.000109287 3.56418e-05)
(0.000726948 -0.000302313 -0.000185006)
(0.00139263 -0.00104184 -0.000433464)
(0.0060603 0.00295031 0.000326904)
(0.00492924 0.000532688 6.91486e-05)
(0.00482027 -0.00143146 -0.000272693)
(0.00563638 -0.00407759 -0.000565597)
(0.0113603 0.00452783 0.00040096)
(0.0103415 0.000804649 0.000104773)
(0.0101252 -0.0025592 -0.000255046)
(0.0106133 -0.00650573 -0.000574865)
(0.0174727 0.00557902 0.000426538)
(0.0165657 0.00085196 0.000138487)
(0.0162594 -0.00357167 -0.000194082)
(0.0164564 -0.00849082 -0.000497504)
(0.0240645 0.00613743 0.000424519)
(0.0232685 0.000710919 0.000164808)
(0.0228946 -0.00446156 -0.000121009)
(0.0228556 -0.0100313 -0.000388751)
(0.0308589 0.00630035 0.000409571)
(0.0301626 0.00043227 0.000183679)
(0.0297453 -0.00522621 -5.24827e-05)
(0.029536 -0.0111896 -0.000280743)
(0.0376328 0.00618013 0.000394649)
(0.0370171 6.81706e-05 0.000197518)
(0.0365783 -0.005872 3.3944e-06)
(0.0362621 -0.0120424 -0.000192101)
(0.0442646 0.00589653 0.000386003)
(0.0436733 -0.000330943 0.000208216)
(0.0432256 -0.00641851 4.26294e-05)
(0.0428805 -0.0126894 -0.000131783)
(0.00152238 0.000761629 0.00011535)
(0.000759739 0.000111185 1.49484e-05)
(0.00072936 -0.000307482 -0.000116679)
(0.00141572 -0.00106226 -0.000261656)
(0.00613599 0.00295346 0.000195089)
(0.00497588 0.000527158 3.51239e-05)
(0.00487051 -0.00143639 -0.000176859)
(0.00572142 -0.00409873 -0.00035867)
(0.011481 0.00451191 0.000252148)
(0.0104374 0.000788022 6.17386e-05)
(0.0102246 -0.00256827 -0.000170322)
(0.010743 -0.00651926 -0.000376104)
(0.0176271 0.0055433 0.000283489)
(0.0167017 0.00082331 8.99597e-05)
(0.0163979 -0.00358634 -0.000133459)
(0.0166173 -0.0084995 -0.000337374)
(0.0242398 0.0060881 0.00029907)
(0.023432 0.000673237 0.000114994)
(0.0230594 -0.00448225 -8.65668e-05)
(0.0230345 -0.0100402 -0.000276295)
(0.0310454 0.00624651 0.000305249)
(0.0303425 0.000390095 0.000135206)
(0.0299255 -0.00525267 -4.11741e-05)
(0.0297229 -0.0112036 -0.000212851)
(0.0378254 0.00612996 0.000307736)
(0.0372071 2.54516e-05 0.000150516)
(0.0367673 -0.00590381 -3.68449e-06)
(0.0364517 -0.0120654 -0.000159518)
(0.0444631 0.0058544 0.000308447)
(0.0438709 -0.000372188 0.000160475)
(0.0434209 -0.00645567 2.18318e-05)
(0.0430718 -0.0127238 -0.000123331)
(0.00153294 0.00076788 6.30717e-05)
(0.000758914 0.000112347 5.72236e-06)
(0.000728538 -0.000310684 -7.05698e-05)
(0.00142779 -0.00107489 -0.000153129)
(0.00617881 0.00295918 0.000113295)
(0.00500022 0.000526015 1.73545e-05)
(0.00489644 -0.00143927 -0.000109573)
(0.00576842 -0.00411405 -0.000218272)
(0.0115543 0.00450866 0.000152856)
(0.0104943 0.000781165 3.54213e-05)
(0.0102833 -0.00257326 -0.000107833)
(0.0108201 -0.00653126 -0.000234571)
(0.0177275 0.00552824 0.000179562)
(0.0167895 0.000808764 5.60823e-05)
(0.016487 -0.00359485 -8.63407e-05)
(0.0167204 -0.008509 -0.000216301)
(0.0243612 0.00606308 0.000197919)
(0.0235447 0.00065179 7.57097e-05)
(0.0231728 -0.00449514 -5.76509e-05)
(0.0231571 -0.0100497 -0.000183497)
(0.0311815 0.00621616 0.000210211)
(0.0304734 0.000364135 9.2427e-05)
(0.0300564 -0.00527004 -2.92354e-05)
(0.0298585 -0.0112162 -0.000148051)
(0.0379716 0.00609921 0.000218341)
(0.0373504 -2.4647e-06 0.000105213)
(0.0369098 -0.00592538 -5.61736e-06)
(0.0365949 -0.0120832 -0.000117708)
(0.0446165 0.00582642 0.00022199)
(0.0440221 -0.000400444 0.000112706)
(0.0435703 -0.00648131 9.98619e-06)
(0.0432193 -0.0127484 -9.72312e-05)
(0.00153857 0.000771372 3.15099e-05)
(0.000757905 0.000113017 1.91221e-06)
(0.00072748 -0.000312547 -3.77125e-05)
(0.00143421 -0.00108218 -8.00776e-05)
(0.00620252 0.0029642 5.90183e-05)
(0.00501301 0.000526335 7.89391e-06)
(0.00490991 -0.001441 -5.96011e-05)
(0.00579392 -0.00412406 -0.000117299)
(0.0115967 0.00451006 8.21128e-05)
(0.0105268 0.000778845 1.82962e-05)
(0.0103165 -0.00257616 -5.95138e-05)
(0.0108639 -0.00654036 -0.00012825)
(0.0177883 0.0055235 9.94319e-05)
(0.0168426 0.000802104 3.07612e-05)
(0.0165406 -0.0035999 -4.83405e-05)
(0.0167821 -0.00851725 -0.000120514)
(0.0244378 0.00605225 0.000112821)
(0.0236158 0.000640726 4.30525e-05)
(0.0232441 -0.00450299 -3.28983e-05)
(0.0232338 -0.0100582 -0.000104672)
(0.0312703 0.00620122 0.000122872)
(0.0305586 0.000349751 5.38015e-05)
(0.0301414 -0.00528082 -1.73784e-05)
(0.0299462 -0.0112262 -8.70064e-05)
(0.0380692 0.00608272 0.000129931)
(0.0374456 -1.8747e-05 6.20422e-05)
(0.0370043 -0.0059389 -4.45342e-06)
(0.0366898 -0.0120959 -7.17048e-05)
(0.04472 0.00581032 0.000133121)
(0.0441235 -0.000417602 6.65535e-05)
(0.0436703 -0.00649747 3.8752e-06)
(0.0433183 -0.0127648 -6.14449e-05)
(0.00154106 0.000772954 9.57222e-06)
(0.000757346 0.000113325 4.25267e-07)
(0.000726892 -0.000313406 -1.1845e-05)
(0.00143704 -0.00108552 -2.48847e-05)
(0.00621319 0.00296702 1.83169e-05)
(0.00501862 0.000526762 2.26491e-06)
(0.00491578 -0.00144183 -1.8896e-05)
(0.00580526 -0.00412903 -3.69661e-05)
(0.0116163 0.00451172 2.58966e-05)
(0.0105418 0.00077828 5.65553e-06)
(0.0103317 -0.00257755 -1.90075e-05)
(0.0108839 -0.00654525 -4.07799e-05)
(0.0178172 0.00552261 3.18474e-05)
(0.0168677 0.00079962 9.81024e-06)
(0.0165659 -0.00360231 -1.55504e-05)
(0.016811 -0.00852197 -3.86909e-05)
(0.0244749 0.00604855 3.66574e-05)
(0.0236502 0.000636137 1.39759e-05)
(0.0232786 -0.00450676 -1.06837e-05)
(0.0232706 -0.0100631 -3.40033e-05)
(0.0313141 0.00619536 4.04072e-05)
(0.0306005 0.000343448 1.76596e-05)
(0.0301831 -0.00528602 -5.75778e-06)
(0.0299891 -0.0112317 -2.86805e-05)
(0.0381178 0.00607573 4.30863e-05)
(0.037493 -2.61535e-05 2.04841e-05)
(0.0370512 -0.00594545 -1.65511e-06)
(0.0367369 -0.0121026 -2.40431e-05)
(0.0447718 0.00580305 4.42902e-05)
(0.0441741 -0.000425641 2.19775e-05)
(0.0437201 -0.0065053 9.50066e-07)
(0.0433678 -0.0127731 -2.09487e-05)
)
;

boundaryField
{
    interface
    {
        type            calculated;
        value           nonuniform List<vector> 
192
(
(0.00279334 0.00245981 0.00148492)
(0.00593992 0.00501943 0.00173463)
(0.011123 0.00730694 0.00174024)
(0.0170685 0.00881774 0.0014967)
(0.0236544 0.00965025 0.00118054)
(0.0304858 0.00989786 0.000866895)
(0.0373079 0.00972705 0.000624261)
(0.043963 0.00933627 0.000493637)
(0.00301496 0.00263611 0.000776264)
(0.00655008 0.00495199 0.00108247)
(0.0116778 0.0072008 0.00118769)
(0.0175921 0.00869445 0.00111002)
(0.0240713 0.00953262 0.000953728)
(0.0307945 0.00980065 0.000779418)
(0.0375268 0.00965651 0.00063912)
(0.0441385 0.00929973 0.000564787)
(0.00319657 0.00276438 0.000415308)
(0.00685691 0.00496361 0.000644355)
(0.0120518 0.00713034 0.000761595)
(0.0179646 0.00857866 0.000773244)
(0.0244055 0.00939999 0.000723986)
(0.0310786 0.00967815 0.000652184)
(0.037769 0.00956286 0.000590039)
(0.0443608 0.00924739 0.000557274)
(0.00329949 0.00283567 0.00022573)
(0.00703062 0.00498711 0.000382281)
(0.0122839 0.00710604 0.000480906)
(0.0182193 0.00851246 0.000523724)
(0.0246595 0.00931162 0.000529563)
(0.0313203 0.00958781 0.000516293)
(0.0379984 0.00948698 0.000500748)
(0.044586 0.00919563 0.000492987)
(0.00335745 0.00287502 0.00012411)
(0.00713122 0.00500953 0.000226371)
(0.0124275 0.00710531 0.000300495)
(0.0183901 0.00848532 0.000346995)
(0.0248447 0.0092658 0.00037323)
(0.0315112 0.00953482 0.000386081)
(0.0381917 0.00943758 0.000392639)
(0.0447824 0.00915678 0.000396664)
(0.00339077 0.00289711 6.75695e-05)
(0.00719027 0.00502728 0.000130885)
(0.0125161 0.00711356 0.000181522)
(0.0185021 0.00847924 0.000219412)
(0.0249738 0.00924709 0.000247018)
(0.0316516 0.00950869 0.00026626)
(0.0383395 0.00940999 0.000279301)
(0.044936 0.00913216 0.000286626)
(0.00340936 0.00290916 3.36662e-05)
(0.00722363 0.00503934 6.80603e-05)
(0.012568 0.0071225 9.73755e-05)
(0.0185704 0.00848129 0.000121432)
(0.0250555 0.00924181 0.000140832)
(0.0317434 0.00949796 0.000155735)
(0.0384386 0.00939666 0.000166398)
(0.0450403 0.00911875 0.000172265)
(0.00341774 0.00291453 1.02166e-05)
(0.00723877 0.00504543 2.11157e-05)
(0.012592 0.00712787 3.07008e-05)
(0.0186027 0.00848397 3.88924e-05)
(0.0250952 0.00924121 4.57659e-05)
(0.0317888 0.00949456 5.12275e-05)
(0.0384881 0.00939154 5.52004e-05)
(0.0450927 0.00911296 5.73687e-05)
(0.00102853 0.00144215 0.00223164)
(0.00475747 0.00308559 0.00164204)
(0.00989786 0.00473779 0.00170947)
(0.0160494 0.0057552 0.00141147)
(0.022845 0.0062958 0.00110262)
(0.029885 0.00643654 0.00080084)
(0.0368671 0.00630247 0.000571769)
(0.0436053 0.00601797 0.000435308)
(0.000116668 0.000377124 0.000520891)
(0.0036069 0.000724049 0.000542498)
(0.00879396 0.00109833 0.000532045)
(0.0150843 0.00114971 0.000498943)
(0.0220011 0.000981708 0.000448386)
(0.0291503 0.000664317 0.000389892)
(0.0362226 0.000269813 0.000341023)
(0.0430024 -0.000140163 0.000299946)
(2.74138e-05 -0.000759844 -0.000971808)
(0.00343301 -0.00122303 -0.000908639)
(0.00854951 -0.002198 -0.000756357)
(0.014783 -0.0031412 -0.000505958)
(0.0216484 -0.00405589 -0.000266565)
(0.0287586 -0.00487397 -6.31058e-05)
(0.0358068 -0.00557012 9.5095e-05)
(0.0425743 -0.00614355 0.000229449)
(0.000767295 -0.00221884 -0.00283651)
(0.00418153 -0.00381952 -0.00209414)
(0.0090813 -0.00608848 -0.00198608)
(0.0150543 -0.00796108 -0.00144447)
(0.0217009 -0.00953441 -0.000935632)
(0.028638 -0.0107581 -0.000481837)
(0.0355635 -0.0116729 -0.000137464)
(0.0422774 -0.0123526 9.42062e-05)
(0.00222222 -0.00318541 -0.002114)
(0.00501168 -0.00611431 -0.00228023)
(0.00983567 -0.00914399 -0.00207736)
(0.0155007 -0.0114459 -0.00157345)
(0.021896 -0.0131972 -0.00104346)
(0.0286316 -0.0144179 -0.000572662)
(0.035434 -0.0152238 -0.000216501)
(0.0421104 -0.0157689 7.47137e-06)
(0.00239531 -0.00338121 -0.00126945)
(0.00570723 -0.00622628 -0.00155583)
(0.0104112 -0.00925557 -0.00149544)
(0.0160194 -0.0115732 -0.00120294)
(0.0222911 -0.0133087 -0.000859791)
(0.0289145 -0.0145177 -0.000544261)
(0.0356307 -0.0153215 -0.000300552)
(0.0422687 -0.0158834 -0.000144481)
(0.00255026 -0.00359786 -0.000764227)
(0.00604643 -0.0063268 -0.000999378)
(0.010814 -0.00930093 -0.00101137)
(0.016406 -0.0115994 -0.000866499)
(0.0226289 -0.0133255 -0.00066757)
(0.029195 -0.0145405 -0.000474682)
(0.0358641 -0.0153639 -0.000320333)
(0.0424741 -0.0159577 -0.000219205)
(0.00263772 -0.00373331 -0.000460802)
(0.00623301 -0.00640095 -0.000634544)
(0.0110614 -0.00933962 -0.000668447)
(0.016672 -0.0116139 -0.000602441)
(0.0228888 -0.0133321 -0.000495841)
(0.0294374 -0.0145519 -0.000385535)
(0.0360885 -0.0153906 -0.000293953)
(0.0426874 -0.0160071 -0.000233043)
(0.002686 -0.0038137 -0.000276719)
(0.00633793 -0.00645267 -0.000398158)
(0.0112107 -0.00937411 -0.000433267)
(0.0168477 -0.0116333 -0.00040654)
(0.0230765 -0.013345 -0.00035253)
(0.0296276 -0.0145665 -0.000292729)
(0.036277 -0.0154134 -0.000241267)
(0.0428738 -0.0160431 -0.000206814)
(0.00271316 -0.0038611 -0.000161424)
(0.00639785 -0.00648735 -0.000240728)
(0.0113003 -0.00940218 -0.000268721)
(0.0169603 -0.011654 -0.000259942)
(0.023205 -0.0133616 -0.000234218)
(0.0297655 -0.014583 -0.000203628)
(0.0364198 -0.0154335 -0.000176477)
(0.0430189 -0.0160699 -0.000158368)
(0.00272802 -0.00388778 -8.42791e-05)
(0.00643095 -0.00650879 -0.000128931)
(0.0113515 -0.00942182 -0.000146525)
(0.0170274 -0.0116706 -0.000144686)
(0.023285 -0.0133761 -0.000133684)
(0.0298546 -0.014597 -0.000119646)
(0.0365146 -0.0154487 -0.000106875)
(0.0431169 -0.0160884 -9.84582e-05)
(0.00273463 -0.00389988 -2.61754e-05)
(0.00644578 -0.00651907 -4.05784e-05)
(0.0113749 -0.00943188 -4.65462e-05)
(0.0170589 -0.0116797 -4.64425e-05)
(0.0233233 -0.0133843 -4.34476e-05)
(0.0298982 -0.0146049 -3.94344e-05)
(0.0365617 -0.015457 -3.5728e-05)
(0.0431658 -0.0160978 -3.33176e-05)
(0.0468873 0.00585581 0.000438128)
(0.0470715 0.00582611 0.000465219)
(0.0473133 0.0057853 0.000445156)
(0.0475495 0.00573895 0.000387647)
(0.0477519 0.00570112 0.000308054)
(0.0479085 0.00567471 0.000220249)
(0.0480143 0.00565888 0.000131347)
(0.0480673 0.00565145 4.35702e-05)
(0.0461466 -0.000327972 0.000316435)
(0.0463498 -0.000386969 0.000298022)
(0.0465995 -0.000447707 0.000260948)
(0.046837 -0.000500048 0.000213804)
(0.0470368 -0.000540406 0.000163072)
(0.0471893 -0.000568578 0.000113384)
(0.0472917 -0.000585993 6.64331e-05)
(0.0473428 -0.000594272 2.18483e-05)
(0.0457067 -0.00645118 0.000236561)
(0.0459032 -0.00654215 0.000151955)
(0.0461468 -0.0066169 9.13302e-05)
(0.04638 -0.00667302 5.04029e-05)
(0.0465765 -0.00671364 2.55071e-05)
(0.0467265 -0.00674175 1.15198e-05)
(0.0468271 -0.00675951 4.4156e-06)
(0.0468773 -0.00676811 1.07109e-06)
(0.0455293 -0.0127188 0.000113691)
(0.0456963 -0.0128335 -1.47775e-05)
(0.0459205 -0.0129237 -9.18639e-05)
(0.0461445 -0.0129831 -0.000122335)
(0.0463373 -0.0130246 -0.000118573)
(0.0464864 -0.0130536 -9.47196e-05)
(0.0465868 -0.0130725 -6.0142e-05)
(0.046637 -0.0130818 -2.05389e-05)
)
;
    }
    symmetry
    {
        type            symmetryPlane;
    }
    bottom
    {
        type            calculated;
        value           uniform (0 0 0);
    }
}


// ************************************************************************* //
