/*--------------------------------*- C++ -*----------------------------------*\
| =========                 |                                                 |
| \\      /  F ield         | foam-extend: Open Source CFD                    |
|  \\    /   O peration     | Version:     3.1                                |
|   \\  /    A nd           | Web:         http://www.extend-project.de       |
|    \\/     M anipulation  |                                                 |
\*---------------------------------------------------------------------------*/
FoamFile
{
    version     2.0;
    format      ascii;
    class       volVectorField;
    location    "0.0002";
    object      cellMotionU;
}
// * * * * * * * * * * * * * * * * * * * * * * * * * * * * * * * * * * * * * //

dimensions      [0 1 -1 0 0 0 0];

internalField   nonuniform List<vector> 
16000
(
(-2.72765e-10 -2.7041e-10 1.3321e-09)
(-8.16838e-10 -2.60129e-10 1.37487e-09)
(-1.35407e-09 -2.49073e-10 1.46526e-09)
(-1.90264e-09 -2.39844e-10 1.61537e-09)
(-2.48588e-09 -2.32123e-10 1.8455e-09)
(-3.13325e-09 -2.27156e-10 2.18487e-09)
(-3.88574e-09 -2.25347e-10 2.67407e-09)
(-4.80616e-09 -2.27563e-10 3.37022e-09)
(-5.99463e-09 -2.3596e-10 4.35463e-09)
(-7.62464e-09 -2.53031e-10 5.75283e-09)
(-2.62244e-10 -8.07287e-10 1.37284e-09)
(-7.94661e-10 -7.8746e-10 1.40915e-09)
(-1.33139e-09 -7.58408e-10 1.48743e-09)
(-1.87915e-09 -7.31535e-10 1.61987e-09)
(-2.45835e-09 -7.10091e-10 1.82569e-09)
(-3.09642e-09 -6.95461e-10 2.13068e-09)
(-3.82844e-09 -6.90591e-10 2.56736e-09)
(-4.70716e-09 -6.99242e-10 3.17722e-09)
(-5.80459e-09 -7.24218e-10 4.00624e-09)
(-7.21965e-09 -7.71336e-10 5.09447e-09)
(-2.52518e-10 -1.33636e-09 1.45985e-09)
(-7.66315e-10 -1.31578e-09 1.48373e-09)
(-1.29245e-09 -1.28011e-09 1.53836e-09)
(-1.83689e-09 -1.23865e-09 1.6365e-09)
(-2.40826e-09 -1.20452e-09 1.79592e-09)
(-3.02884e-09 -1.18239e-09 2.03751e-09)
(-3.72892e-09 -1.17626e-09 2.38413e-09)
(-4.54261e-09 -1.19162e-09 2.85405e-09)
(-5.51009e-09 -1.23325e-09 3.45282e-09)
(-6.67099e-09 -1.30705e-09 4.1517e-09)
(-2.42594e-10 -1.87909e-09 1.60562e-09)
(-7.39805e-10 -1.85586e-09 1.61164e-09)
(-1.25091e-09 -1.81665e-09 1.6317e-09)
(-1.78354e-09 -1.76726e-09 1.68047e-09)
(-2.34613e-09 -1.72044e-09 1.77656e-09)
(-2.94838e-09 -1.68947e-09 1.937e-09)
(-3.61119e-09 -1.68233e-09 2.17456e-09)
(-4.35943e-09 -1.70401e-09 2.49271e-09)
(-5.21088e-09 -1.76081e-09 2.8715e-09)
(-6.17497e-09 -1.85906e-09 3.25235e-09)
(-2.3425e-10 -2.45835e-09 1.83061e-09)
(-7.16707e-10 -2.43092e-09 1.81253e-09)
(-1.21615e-09 -2.38137e-09 1.78595e-09)
(-1.7355e-09 -2.32233e-09 1.7712e-09)
(-2.28372e-09 -2.26469e-09 1.78998e-09)
(-2.86997e-09 -2.2216e-09 1.8601e-09)
(-3.5037e-09 -2.2093e-09 1.9891e-09)
(-4.1983e-09 -2.23704e-09 2.17005e-09)
(-4.96597e-09 -2.30843e-09 2.37688e-09)
(-5.80734e-09 -2.42969e-09 2.55027e-09)
(-2.28524e-10 -3.10427e-09 2.16408e-09)
(-6.99887e-10 -3.06685e-09 2.11195e-09)
(-1.19063e-09 -2.99858e-09 2.02254e-09)
(-1.70235e-09 -2.91804e-09 1.92661e-09)
(-2.23817e-09 -2.84337e-09 1.85504e-09)
(-2.80868e-09 -2.7886e-09 1.82931e-09)
(-3.4238e-09 -2.76611e-09 1.85682e-09)
(-4.08516e-09 -2.79263e-09 1.9274e-09)
(-4.79932e-09 -2.87918e-09 2.01259e-09)
(-5.5728e-09 -3.02328e-09 2.06743e-09)
(-2.25751e-10 -3.85926e-09 2.64655e-09)
(-6.92246e-10 -3.80006e-09 2.54256e-09)
(-1.18037e-09 -3.69768e-09 2.36415e-09)
(-1.69046e-09 -3.57761e-09 2.16032e-09)
(-2.22313e-09 -3.46978e-09 1.98014e-09)
(-2.78275e-09 -3.39458e-09 1.85287e-09)
(-3.38167e-09 -3.36273e-09 1.7859e-09)
(-4.02835e-09 -3.38309e-09 1.76841e-09)
(-4.71459e-09 -3.47707e-09 1.77244e-09)
(-5.44941e-09 -3.64219e-09 1.76226e-09)
(-2.26684e-10 -4.78837e-09 3.335e-09)
(-6.97273e-10 -4.68506e-09 3.14585e-09)
(-1.19038e-09 -4.5138e-09 2.82936e-09)
(-1.70583e-09 -4.32429e-09 2.47566e-09)
(-2.2441e-09 -4.1594e-09 2.15985e-09)
(-2.80677e-09 -4.04566e-09 1.92177e-09)
(-3.3985e-09 -3.9956e-09 1.76678e-09)
(-4.03373e-09 -4.01214e-09 1.67779e-09)
(-4.703e-09 -4.10008e-09 1.62693e-09)
(-5.4129e-09 -4.27915e-09 1.57928e-09)
(-2.33283e-10 -5.99516e-09 4.31026e-09)
(-7.1731e-10 -5.79626e-09 3.9677e-09)
(-1.2251e-09 -5.48831e-09 3.42394e-09)
(-1.75487e-09 -5.17653e-09 2.85319e-09)
(-2.30724e-09 -4.92349e-09 2.36768e-09)
(-2.88375e-09 -4.75405e-09 2.00965e-09)
(-3.48642e-09 -4.67078e-09 1.77307e-09)
(-4.11606e-09 -4.67027e-09 1.6284e-09)
(-4.76611e-09 -4.74369e-09 1.53971e-09)
(-5.44778e-09 -4.92062e-09 1.46756e-09)
(-2.47562e-10 -7.65856e-09 5.6973e-09)
(-7.57214e-10 -7.23549e-09 5.04816e-09)
(-1.28972e-09 -6.66149e-09 4.11977e-09)
(-1.84411e-09 -6.14329e-09 3.23516e-09)
(-2.42043e-09 -5.76184e-09 2.54464e-09)
(-3.02036e-09 -5.52249e-09 2.069e-09)
(-3.64513e-09 -5.40134e-09 1.76695e-09)
(-4.2889e-09 -5.37245e-09 1.58387e-09)
(-4.93429e-09 -5.4161e-09 1.47047e-09)
(-5.55782e-09 -5.53741e-09 1.38686e-09)
(-7.7494e-10 -7.67218e-10 3.693e-09)
(-2.31776e-09 -7.37677e-10 3.80656e-09)
(-3.83182e-09 -7.05592e-10 4.04661e-09)
(-5.36086e-09 -6.78318e-10 4.44535e-09)
(-6.95903e-09 -6.54842e-10 5.05717e-09)
(-8.69024e-09 -6.38531e-10 5.96121e-09)
(-1.06368e-08 -6.30274e-10 7.2699e-09)
(-1.29161e-08 -6.32178e-10 9.14725e-09)
(-1.57015e-08 -6.49734e-10 1.18393e-08)
(-1.92757e-08 -6.89004e-10 1.57511e-08)
(-7.44673e-10 -2.28747e-09 3.8006e-09)
(-2.25369e-09 -2.23016e-09 3.89693e-09)
(-3.766e-09 -2.14581e-09 4.10468e-09)
(-5.29317e-09 -2.06653e-09 4.45645e-09)
(-6.88187e-09 -2.00114e-09 5.00374e-09)
(-8.59222e-09 -1.95305e-09 5.81665e-09)
(-1.04943e-08 -1.92984e-09 6.9859e-09)
(-1.26876e-08 -1.94098e-09 8.63256e-09)
(-1.52948e-08 -1.99288e-09 1.09033e-08)
(-1.84679e-08 -2.09947e-09 1.39562e-08)
(-7.16277e-10 -3.77599e-09 4.03061e-09)
(-2.17113e-09 -3.71636e-09 4.09378e-09)
(-3.65268e-09 -3.61261e-09 4.23858e-09)
(-5.17104e-09 -3.49088e-09 4.4992e-09)
(-6.74103e-09 -3.38733e-09 4.92346e-09)
(-8.41112e-09 -3.31413e-09 5.5685e-09)
(-1.02439e-08 -3.28129e-09 6.4991e-09)
(-1.23017e-08 -3.30254e-09 7.77287e-09)
(-1.46495e-08 -3.3889e-09 9.42321e-09)
(-1.73408e-08 -3.55347e-09 1.14084e-08)
(-6.86932e-10 -5.28563e-09 4.41623e-09)
(-2.09253e-09 -5.219e-09 4.43193e-09)
(-3.53021e-09 -5.10603e-09 4.48488e-09)
(-5.01535e-09 -4.96221e-09 4.61455e-09)
(-6.56371e-09 -4.82211e-09 4.87117e-09)
(-8.19146e-09 -4.72138e-09 5.3018e-09)
(-9.94102e-09 -4.68049e-09 5.94431e-09)
(-1.18597e-08 -4.7111e-09 6.81584e-09)
(-1.39717e-08 -4.82789e-09 7.87841e-09)
(-1.62805e-08 -5.0441e-09 9.00196e-09)
(-6.61549e-10 -6.86896e-09 5.01234e-09)
(-2.02205e-09 -6.7925e-09 4.96408e-09)
(-3.42413e-09 -6.65399e-09 4.89348e-09)
(-4.87081e-09 -6.48644e-09 4.85503e-09)
(-6.38053e-09 -6.31787e-09 4.90752e-09)
(-7.97002e-09 -6.18273e-09 5.10032e-09)
(-9.65401e-09 -6.12375e-09 5.45751e-09)
(-1.14552e-08 -6.16383e-09 5.96839e-09)
(-1.33915e-08 -6.30952e-09 6.57712e-09)
(-1.5454e-08 -6.57321e-09 7.14848e-09)
(-6.42939e-10 -8.59147e-09 5.89811e-09)
(-1.96729e-09 -8.49231e-09 5.75975e-09)
(-3.34057e-09 -8.31028e-09 5.52295e-09)
(-4.7627e-09 -8.09195e-09 5.27024e-09)
(-6.23686e-09 -7.8827e-09 5.08489e-09)
(-7.78507e-09 -7.71789e-09 5.0265e-09)
(-9.42556e-09 -7.62931e-09 5.11907e-09)
(-1.11522e-08 -7.66026e-09 5.34339e-09)
(-1.29708e-08 -7.83676e-09 5.63774e-09)
(-1.4889e-08 -8.14707e-09 5.90453e-09)
(-6.31785e-10 -1.0539e-08 7.18566e-09)
(-1.93573e-09 -1.03918e-08 6.90984e-09)
(-3.29513e-09 -1.01347e-08 6.43764e-09)
(-4.70704e-09 -9.82719e-09 5.90026e-09)
(-6.16814e-09 -9.54168e-09 5.42982e-09)
(-7.68444e-09 -9.32911e-09 5.1067e-09)
(-9.28177e-09 -9.21653e-09 4.95553e-09)
(-1.09736e-08 -9.22656e-09 4.95599e-09)
(-1.2727e-08 -9.414e-09 5.04824e-09)
(-1.45543e-08 -9.76633e-09 5.16065e-09)
(-6.29899e-10 -1.28347e-08 9.03811e-09)
(-1.9361e-09 -1.25951e-08 8.53519e-09)
(-3.30034e-09 -1.2192e-08 7.69579e-09)
(-4.71841e-09 -1.17348e-08 6.76206e-09)
(-6.18715e-09 -1.13229e-08 5.93566e-09)
(-7.70528e-09 -1.1022e-08 5.3252e-09)
(-9.27862e-09 -1.08663e-08 4.94997e-09)
(-1.09369e-08 -1.08643e-08 4.77433e-09)
(-1.26457e-08 -1.10291e-08 4.73729e-09)
(-1.44073e-08 -1.1406e-08 4.77402e-09)
(-6.4221e-10 -1.56611e-08 1.16998e-08)
(-1.97351e-09 -1.52307e-08 1.07819e-08)
(-3.36621e-09 -1.45501e-08 9.33148e-09)
(-4.81179e-09 -1.38402e-08 7.81913e-09)
(-6.30746e-09 -1.32414e-08 6.54577e-09)
(-7.85213e-09 -1.28177e-08 5.6259e-09)
(-9.44509e-09 -1.25836e-08 5.04766e-09)
(-1.10811e-08 -1.25378e-08 4.74054e-09)
(-1.27351e-08 -1.26612e-08 4.62171e-09)
(-1.442e-08 -1.30248e-08 4.61722e-09)
(-6.73454e-10 -1.93151e-08 1.55731e-08)
(-2.05927e-09 -1.84585e-08 1.38077e-08)
(-3.50396e-09 -1.72636e-08 1.13049e-08)
(-5.00104e-09 -1.61456e-08 8.94409e-09)
(-6.54598e-09 -1.52857e-08 7.12633e-09)
(-8.13791e-09 -1.47133e-08 5.90504e-09)
(-9.77457e-09 -1.43914e-08 5.17165e-09)
(-1.1435e-08 -1.42723e-08 4.78615e-09)
(-1.30687e-08 -1.43171e-08 4.62437e-09)
(-1.46078e-08 -1.45421e-08 4.59385e-09)
(-1.16732e-09 -1.1527e-09 5.25855e-09)
(-3.48426e-09 -1.10718e-09 5.40439e-09)
(-5.73602e-09 -1.05686e-09 5.71214e-09)
(-7.97081e-09 -1.01276e-09 6.22204e-09)
(-1.0245e-08 -9.73184e-10 7.00187e-09)
(-1.26156e-08 -9.42827e-10 8.15016e-09)
(-1.51427e-08 -9.22538e-10 9.80699e-09)
(-1.78952e-08 -9.14742e-10 1.21785e-08)
(-2.09492e-08 -9.26435e-10 1.55788e-08)
(-2.43998e-08 -9.64706e-10 2.0535e-08)
(-1.12055e-09 -3.42952e-09 5.39518e-09)
(-3.38446e-09 -3.34026e-09 5.51844e-09)
(-5.63228e-09 -3.20768e-09 5.78401e-09)
(-7.86457e-09 -3.07971e-09 6.23284e-09)
(-1.01279e-08 -2.96887e-09 6.92943e-09)
(-1.24772e-08 -2.87925e-09 7.96133e-09)
(-1.4962e-08 -2.82064e-09 9.44188e-09)
(-1.76425e-08 -2.80484e-09 1.15239e-08)
(-2.05652e-08 -2.83837e-09 1.43973e-08)
(-2.37566e-08 -2.9372e-09 1.82775e-08)
(-1.07553e-09 -5.63615e-09 5.68704e-09)
(-3.25391e-09 -5.54236e-09 5.76703e-09)
(-5.45283e-09 -5.37823e-09 5.95056e-09)
(-7.67193e-09 -5.18264e-09 6.28114e-09)
(-9.91293e-09 -5.00795e-09 6.81922e-09)
(-1.22186e-08 -4.87026e-09 7.63676e-09)
(-1.46381e-08 -4.78186e-09 8.81559e-09)
(-1.7202e-08 -4.75963e-09 1.04299e-08)
(-1.99243e-08 -4.81513e-09 1.25284e-08)
(-2.27916e-08 -4.961e-09 1.5075e-08)
(-1.02802e-09 -7.83383e-09 6.17568e-09)
(-3.12601e-09 -7.73011e-09 6.19402e-09)
(-5.25461e-09 -7.5527e-09 6.25847e-09)
(-7.42271e-09 -7.32319e-09 6.4198e-09)
(-9.63605e-09 -7.09053e-09 6.74232e-09)
(-1.18953e-08 -6.90419e-09 7.28639e-09)
(-1.42307e-08 -6.79037e-09 8.10111e-09)
(-1.66694e-08 -6.76161e-09 9.21156e-09)
(-1.92012e-08 -6.83362e-09 1.05779e-08)
(-2.17942e-08 -7.01737e-09 1.20536e-08)
(-9.85209e-10 -1.00758e-08 6.92941e-09)
(-3.0064e-09 -9.96092e-09 6.8654e-09)
(-5.07414e-09 -9.75167e-09 6.77096e-09)
(-7.18069e-09 -9.49232e-09 6.71635e-09)
(-9.33817e-09 -9.21951e-09 6.77762e-09)
(-1.1552e-08 -8.97934e-09 7.01918e-09)
(-1.38194e-08 -8.82902e-09 7.47419e-09)
(-1.61445e-08 -8.79601e-09 8.1342e-09)
(-1.85235e-08 -8.88302e-09 8.93857e-09)
(-2.09238e-08 -9.09866e-09 9.73484e-09)
(-9.50989e-10 -1.24206e-08 8.04646e-09)
(-2.9055e-09 -1.22819e-08 7.86778e-09)
(-4.91876e-09 -1.20249e-08 7.56181e-09)
(-6.97994e-09 -1.17077e-08 7.23457e-09)
(-9.08092e-09 -1.13872e-08 6.99371e-09)
(-1.12373e-08 -1.11074e-08 6.91771e-09)
(-1.34555e-08 -1.09093e-08 7.04108e-09)
(-1.57047e-08 -1.08492e-08 7.3461e-09)
(-1.79689e-08 -1.09553e-08 7.76638e-09)
(-2.02395e-08 -1.12018e-08 8.1976e-09)
(-9.25906e-10 -1.49322e-08 9.66596e-09)
(-2.83299e-09 -1.47466e-08 9.31433e-09)
(-4.80906e-09 -1.44164e-08 8.71208e-09)
(-6.84045e-09 -1.40074e-08 8.02651e-09)
(-8.91082e-09 -1.3605e-08 7.42729e-09)
(-1.1015e-08 -1.32718e-08 7.01991e-09)
(-1.31723e-08 -1.30412e-08 6.84123e-09)
(-1.5381e-08 -1.29416e-08 6.87367e-09)
(-1.75738e-08 -1.30424e-08 7.05425e-09)
(-1.97442e-08 -1.33154e-08 7.31289e-09)
(-9.11967e-10 -1.76864e-08 1.19918e-08)
(-2.7996e-09 -1.74198e-08 1.13569e-08)
(-4.76029e-09 -1.69591e-08 1.02967e-08)
(-6.77919e-09 -1.6411e-08 9.11715e-09)
(-8.84129e-09 -1.5884e-08 8.07535e-09)
(-1.09321e-08 -1.54574e-08 7.31314e-09)
(-1.30448e-08 -1.51779e-08 6.8616e-09)
(-1.52006e-08 -1.50569e-08 6.68589e-09)
(-1.73347e-08 -1.51138e-08 6.72102e-09)
(-1.94192e-08 -1.53942e-08 6.90899e-09)
(-9.15341e-10 -2.07702e-08 1.5334e-08)
(-2.81e-09 -2.03554e-08 1.41834e-08)
(-4.78261e-09 -1.96696e-08 1.23649e-08)
(-6.8124e-09 -1.8909e-08 1.0469e-08)
(-8.88523e-09 -1.82152e-08 8.87682e-09)
(-1.09876e-08 -1.76691e-08 7.73845e-09)
(-1.31052e-08 -1.73024e-08 7.04683e-09)
(-1.52155e-08 -1.71263e-08 6.72294e-09)
(-1.72693e-08 -1.71236e-08 6.6741e-09)
(-1.92511e-08 -1.73726e-08 6.83292e-09)
(-9.41167e-10 -2.42966e-08 2.02127e-08)
(-2.87634e-09 -2.35884e-08 1.80078e-08)
(-4.88595e-09 -2.25348e-08 1.48837e-08)
(-6.95205e-09 -2.14659e-08 1.19401e-08)
(-9.0577e-09 -2.05616e-08 9.68222e-09)
(-1.11898e-08 -1.98825e-08 8.18465e-09)
(-1.33335e-08 -1.94226e-08 7.32037e-09)
(-1.54494e-08 -1.91545e-08 6.92221e-09)
(-1.7462e-08 -1.90508e-08 6.84099e-09)
(-1.92711e-08 -1.91385e-08 6.97072e-09)
(-1.42381e-09 -1.40097e-09 5.80957e-09)
(-4.24108e-09 -1.3436e-09 5.94156e-09)
(-6.95237e-09 -1.2787e-09 6.21892e-09)
(-9.59696e-09 -1.21977e-09 6.67506e-09)
(-1.22186e-08 -1.1647e-09 7.36511e-09)
(-1.48521e-08 -1.11894e-09 8.36628e-09)
(-1.75195e-08 -1.08309e-09 9.78359e-09)
(-2.02289e-08 -1.05942e-09 1.17649e-08)
(-2.29586e-08 -1.05523e-09 1.45258e-08)
(-2.56468e-08 -1.07722e-09 1.84182e-08)
(-1.36463e-09 -4.15908e-09 5.93026e-09)
(-4.11324e-09 -4.04474e-09 6.04058e-09)
(-6.8166e-09 -3.87284e-09 6.27761e-09)
(-9.45657e-09 -3.70182e-09 6.6759e-09)
(-1.2066e-08 -3.54645e-09 7.28829e-09)
(-1.46793e-08 -3.41103e-09 8.18365e-09)
(-1.73119e-08 -3.30605e-09 9.44592e-09)
(-1.99708e-08 -3.24351e-09 1.11816e-08)
(-2.26259e-08 -3.22863e-09 1.35119e-08)
(-2.51998e-08 -3.27634e-09 1.65559e-08)
(-1.30575e-09 -6.80428e-09 6.18753e-09)
(-3.94264e-09 -6.68174e-09 6.25652e-09)
(-6.58033e-09 -6.46583e-09 6.41543e-09)
(-9.20061e-09 -6.20432e-09 6.70202e-09)
(-1.17841e-08 -5.95951e-09 7.16689e-09)
(-1.43544e-08 -5.74928e-09 7.86714e-09)
(-1.69327e-08 -5.58609e-09 8.8628e-09)
(-1.95077e-08 -5.48705e-09 1.01995e-08)
(-2.20401e-08 -5.46179e-09 1.18913e-08)
(-2.44607e-08 -5.51976e-09 1.38731e-08)
(-1.24215e-09 -9.39088e-09 6.61602e-09)
(-3.77003e-09 -9.25506e-09 6.62673e-09)
(-6.31299e-09 -9.02018e-09 6.6733e-09)
(-8.86514e-09 -8.71204e-09 6.80102e-09)
(-1.1414e-08 -8.38832e-09 7.06566e-09)
(-1.39369e-08 -8.10582e-09 7.51657e-09)
(-1.64398e-08 -7.89218e-09 8.18885e-09)
(-1.89189e-08 -7.7581e-09 9.09193e-09)
(-2.13276e-08 -7.71719e-09 1.01751e-08)
(-2.36033e-08 -7.77549e-09 1.12957e-08)
(-1.18253e-09 -1.19578e-08 7.27123e-09)
(-3.60211e-09 -1.18096e-08 7.20538e-09)
(-6.05785e-09 -1.15383e-08 7.10459e-09)
(-8.52553e-09 -1.11943e-08 7.03214e-09)
(-1.10024e-08 -1.08185e-08 7.05584e-09)
(-1.34742e-08 -1.04628e-08 7.23105e-09)
(-1.59134e-08 -1.01899e-08 7.58227e-09)
(-1.82976e-08 -1.00266e-08 8.09445e-09)
(-2.05964e-08 -9.97019e-09 8.70587e-09)
(-2.2756e-08 -1.00233e-08 9.27698e-09)
(-1.13138e-09 -1.45401e-08 8.22967e-09)
(-3.45091e-09 -1.43694e-08 8.06026e-09)
(-5.82259e-09 -1.4051e-08 7.76804e-09)
(-8.22017e-09 -1.36475e-08 7.44814e-09)
(-1.0619e-08 -1.32198e-08 7.19718e-09)
(-1.30188e-08 -1.28144e-08 7.08481e-09)
(-1.54058e-08 -1.24753e-08 7.13973e-09)
(-1.77222e-08 -1.22618e-08 7.34232e-09)
(-1.99265e-08 -1.21979e-08 7.62889e-09)
(-2.19927e-08 -1.22471e-08 7.90498e-09)
(-1.08899e-09 -1.7163e-08 9.5946e-09)
(-3.32683e-09 -1.69525e-08 9.2745e-09)
(-5.62974e-09 -1.65718e-08 8.72275e-09)
(-7.96982e-09 -1.60856e-08 8.08694e-09)
(-1.03141e-08 -1.55801e-08 7.51786e-09)
(-1.26408e-08 -1.51206e-08 7.11039e-09)
(-1.49525e-08 -1.47405e-08 6.89757e-09)
(-1.72261e-08 -1.44687e-08 6.8625e-09)
(-1.93651e-08 -1.4376e-08 6.94664e-09)
(-2.13436e-08 -1.44219e-08 7.08591e-09)
(-1.05714e-09 -1.98401e-08 1.15101e-08)
(-3.24071e-09 -1.95697e-08 1.09525e-08)
(-5.49468e-09 -1.90905e-08 1.00146e-08)
(-7.79077e-09 -1.84945e-08 8.9582e-09)
(-1.00991e-08 -1.78841e-08 8.00845e-09)
(-1.23885e-08 -1.73396e-08 7.29328e-09)
(-1.46348e-08 -1.69116e-08 6.84352e-09)
(-1.6841e-08 -1.66102e-08 6.62943e-09)
(-1.89202e-08 -1.64577e-08 6.59374e-09)
(-2.08152e-08 -1.6488e-08 6.68094e-09)
(-1.04216e-09 -2.25591e-08 1.41852e-08)
(-3.19564e-09 -2.21963e-08 1.32123e-08)
(-5.42554e-09 -2.15689e-08 1.16582e-08)
(-7.6975e-09 -2.08271e-08 1.00138e-08)
(-9.98341e-09 -2.00942e-08 8.60741e-09)
(-1.22546e-08 -1.94534e-08 7.57728e-09)
(-1.4481e-08 -1.89463e-08 6.92605e-09)
(-1.66227e-08 -1.85919e-08 6.58981e-09)
(-1.86147e-08 -1.83777e-08 6.48947e-09)
(-2.04105e-08 -1.83681e-08 6.55985e-09)
(-1.04843e-09 -2.52748e-08 1.79601e-08)
(-3.20207e-09 -2.47618e-08 1.61692e-08)
(-5.42869e-09 -2.39353e-08 1.35914e-08)
(-7.69745e-09 -2.30144e-08 1.11169e-08)
(-9.97723e-09 -2.21499e-08 9.17926e-09)
(-1.22407e-08 -2.14164e-08 7.86213e-09)
(-1.44595e-08 -2.08328e-08 7.07479e-09)
(-1.6582e-08 -2.03935e-08 6.68378e-09)
(-1.85229e-08 -2.00871e-08 6.56403e-09)
(-2.01711e-08 -1.99442e-08 6.62172e-09)
(-1.55366e-09 -1.52233e-09 5.45542e-09)
(-4.62067e-09 -1.4572e-09 5.54093e-09)
(-7.55088e-09 -1.3816e-09 5.71939e-09)
(-1.03739e-08 -1.31059e-09 6.00906e-09)
(-1.31238e-08 -1.24216e-09 6.4383e-09)
(-1.58241e-08 -1.18226e-09 7.04267e-09)
(-1.84847e-08 -1.13152e-09 7.86385e-09)
(-2.1103e-08 -1.09214e-09 8.95167e-09)
(-2.3655e-08 -1.07136e-09 1.03681e-08)
(-2.61004e-08 -1.07546e-09 1.22084e-08)
(-1.48615e-09 -4.51178e-09 5.52902e-09)
(-4.47255e-09 -4.37932e-09 5.5982e-09)
(-7.38898e-09 -4.1775e-09 5.74639e-09)
(-1.02025e-08 -3.9709e-09 5.99326e-09)
(-1.2935e-08 -3.7762e-09 6.36648e-09)
(-1.56101e-08 -3.59844e-09 6.89791e-09)
(-1.82299e-08 -3.44872e-09 7.61868e-09)
(-2.0789e-08 -3.33898e-09 8.55851e-09)
(-2.32505e-08 -3.27384e-09 9.73599e-09)
(-2.55431e-08 -3.26749e-09 1.11425e-08)
(-1.41653e-09 -7.35623e-09 5.68567e-09)
(-4.27054e-09 -7.21016e-09 5.72392e-09)
(-7.10545e-09 -6.9512e-09 5.81382e-09)
(-9.88857e-09 -6.63339e-09 5.97845e-09)
(-1.25855e-08 -6.32519e-09 6.24574e-09)
(-1.52075e-08 -6.0463e-09 6.64239e-09)
(-1.77623e-08 -5.80968e-09 7.18878e-09)
(-2.02244e-08 -5.63263e-09 7.88561e-09)
(-2.25422e-08 -5.52386e-09 8.70253e-09)
(-2.46392e-08 -5.49142e-09 9.55315e-09)
(-1.33975e-09 -1.01008e-08 5.94462e-09)
(-4.06006e-09 -9.93617e-09 5.93988e-09)
(-6.77787e-09 -9.64854e-09 5.94727e-09)
(-9.47404e-09 -9.26822e-09 5.99613e-09)
(-1.21219e-08 -8.85955e-09 6.12001e-09)
(-1.46834e-08 -8.48426e-09 6.34386e-09)
(-1.71497e-08 -8.17106e-09 6.67677e-09)
(-1.9502e-08 -7.92992e-09 7.10464e-09)
(-2.16791e-08 -7.77366e-09 7.57051e-09)
(-2.36052e-08 -7.70626e-09 7.96078e-09)
(-1.26556e-09 -1.27733e-08 6.3344e-09)
(-3.84926e-09 -1.25916e-08 6.27474e-09)
(-6.45421e-09 -1.22579e-08 6.17696e-09)
(-9.04233e-09 -1.18287e-08 6.083e-09)
(-1.1598e-08 -1.13508e-08 6.03648e-09)
(-1.40924e-08 -1.08811e-08 6.06934e-09)
(-1.64813e-08 -1.04852e-08 6.18807e-09)
(-1.87265e-08 -1.01893e-08 6.36899e-09)
(-2.07833e-08 -9.9886e-09 6.55673e-09)
(-2.2585e-08 -9.88339e-09 6.64907e-09)
(-1.19893e-09 -1.53965e-08 6.88967e-09)
(-3.65166e-09 -1.51875e-08 6.75946e-09)
(-6.14362e-09 -1.47974e-08 6.53083e-09)
(-8.63556e-09 -1.42964e-08 6.26678e-09)
(-1.10896e-08 -1.37524e-08 6.03087e-09)
(-1.34922e-08 -1.32165e-08 5.86656e-09)
(-1.58147e-08 -1.27353e-08 5.78697e-09)
(-1.79828e-08 -1.23682e-08 5.77006e-09)
(-1.99403e-08 -1.21356e-08 5.76239e-09)
(-2.16522e-08 -1.19988e-08 5.69467e-09)
(-1.14015e-09 -1.79819e-08 7.64992e-09)
(-3.47838e-09 -1.77276e-08 7.42393e-09)
(-5.87001e-09 -1.72654e-08 7.0284e-09)
(-8.27559e-09 -1.667e-08 6.55876e-09)
(-1.06494e-08 -1.6036e-08 6.11283e-09)
(-1.29572e-08 -1.54344e-08 5.75233e-09)
(-1.5188e-08 -1.48993e-08 5.49592e-09)
(-1.73044e-08 -1.44589e-08 5.32643e-09)
(-1.91968e-08 -1.41805e-08 5.19701e-09)
(-2.08327e-08 -1.40205e-08 5.05833e-09)
(-1.09097e-09 -2.0531e-08 8.66067e-09)
(-3.34024e-09 -2.02087e-08 8.29532e-09)
(-5.64912e-09 -1.96362e-08 7.67031e-09)
(-7.97886e-09 -1.8919e-08 6.94546e-09)
(-1.02885e-08 -1.81705e-08 6.26343e-09)
(-1.25352e-08 -1.74768e-08 5.70852e-09)
(-1.46833e-08 -1.68888e-08 5.30169e-09)
(-1.67229e-08 -1.64125e-08 5.0201e-09)
(-1.85613e-08 -1.60704e-08 4.8237e-09)
(-2.01309e-08 -1.58857e-08 4.66417e-09)
(-1.05763e-09 -2.3027e-08 9.97623e-09)
(-3.23974e-09 -2.25974e-08 9.38825e-09)
(-5.48833e-09 -2.18578e-08 8.42638e-09)
(-7.75943e-09 -2.09804e-08 7.37231e-09)
(-1.0015e-08 -2.01025e-08 6.428e-09)
(-1.22165e-08 -1.93116e-08 5.68786e-09)
(-1.43248e-08 -1.86481e-08 5.16163e-09)
(-1.62926e-08 -1.81273e-08 4.81166e-09)
(-1.80533e-08 -1.77355e-08 4.588e-09)
(-1.95481e-08 -1.75189e-08 4.43315e-09)
(-1.04393e-09 -2.54431e-08 1.16789e-08)
(-3.18635e-09 -2.48271e-08 1.06898e-08)
(-5.39265e-09 -2.38494e-08 9.21305e-09)
(-7.62318e-09 -2.27711e-08 7.73124e-09)
(-9.83766e-09 -2.1758e-08 6.50831e-09)
(-1.20003e-08 -2.08825e-08 5.61681e-09)
(-1.40771e-08 -2.01575e-08 5.02086e-09)
(-1.60144e-08 -1.95734e-08 4.64945e-09)
(-1.77314e-08 -1.91179e-08 4.42982e-09)
(-1.9124e-08 -1.88145e-08 4.30068e-09)
(-1.58164e-09 -1.54285e-09 4.53407e-09)
(-4.69967e-09 -1.47364e-09 4.56516e-09)
(-7.6666e-09 -1.39124e-09 4.62951e-09)
(-1.05073e-08 -1.31155e-09 4.73156e-09)
(-1.32543e-08 -1.23314e-09 4.87619e-09)
(-1.59346e-08 -1.16243e-09 5.06463e-09)
(-1.85707e-08 -1.10041e-09 5.29058e-09)
(-2.11887e-08 -1.04949e-09 5.53603e-09)
(-2.38237e-08 -1.01685e-09 5.76611e-09)
(-2.65498e-08 -1.00857e-09 5.92635e-09)
(-1.50956e-09 -4.56809e-09 4.55428e-09)
(-4.5388e-09 -4.42424e-09 4.57584e-09)
(-7.48518e-09 -4.20222e-09 4.62256e-09)
(-1.03094e-08 -3.96943e-09 4.70019e-09)
(-1.30308e-08 -3.74448e-09 4.81406e-09)
(-1.56748e-08 -3.53397e-09 4.96543e-09)
(-1.82522e-08 -3.35004e-09 5.14607e-09)
(-2.07779e-08 -3.205e-09 5.33417e-09)
(-2.32535e-08 -3.10397e-09 5.48946e-09)
(-2.56696e-08 -3.06112e-09 5.54565e-09)
(-1.43256e-09 -7.43365e-09 4.59815e-09)
(-4.31476e-09 -7.26989e-09 4.60181e-09)
(-7.1657e-09 -6.9781e-09 4.61483e-09)
(-9.94611e-09 -6.61669e-09 4.64591e-09)
(-1.26167e-08 -6.25803e-09 4.70221e-09)
(-1.51877e-08 -5.92443e-09 4.78506e-09)
(-1.767e-08 -5.63053e-09 4.88545e-09)
(-2.00472e-08 -5.39466e-09 4.97759e-09)
(-2.22835e-08 -5.22622e-09 5.01519e-09)
(-2.43175e-08 -5.13377e-09 4.92751e-09)
(-1.34624e-09 -1.01797e-08 4.67087e-09)
(-4.07567e-09 -9.99062e-09 4.65018e-09)
(-6.79059e-09 -9.65758e-09 4.6167e-09)
(-9.46496e-09 -9.21614e-09 4.5834e-09)
(-1.20664e-08 -8.73653e-09 4.56229e-09)
(-1.45526e-08 -8.28498e-09 4.55717e-09)
(-1.69128e-08 -7.89235e-09 4.55835e-09)
(-1.91287e-08 -7.56999e-09 4.5407e-09)
(-2.11405e-08 -7.33177e-09 4.45846e-09)
(-2.28661e-08 -7.18235e-09 4.24554e-09)
(-1.26108e-09 -1.28319e-08 4.77738e-09)
(-3.83167e-09 -1.26179e-08 4.72686e-09)
(-6.41169e-09 -1.22242e-08 4.63697e-09)
(-8.95585e-09 -1.1715e-08 4.52721e-09)
(-1.14422e-08 -1.11451e-08 4.41652e-09)
(-1.38365e-08 -1.05779e-08 4.31491e-09)
(-1.6089e-08 -1.00821e-08 4.21553e-09)
(-1.81572e-08 -9.68466e-09 4.09449e-09)
(-1.99928e-08 -9.3823e-09 3.91393e-09)
(-2.15196e-08 -9.17619e-09 3.62007e-09)
(-1.18258e-09 -1.54161e-08 4.91817e-09)
(-3.59808e-09 -1.5164e-08 4.83273e-09)
(-6.04106e-09 -1.46949e-08 4.67785e-09)
(-8.46536e-09 -1.40905e-08 4.48304e-09)
(-1.0827e-08 -1.34313e-08 4.27768e-09)
(-1.31058e-08 -1.27762e-08 4.07909e-09)
(-1.52674e-08 -1.21764e-08 3.88743e-09)
(-1.72324e-08 -1.1692e-08 3.68379e-09)
(-1.89394e-08 -1.13418e-08 3.43361e-09)
(-2.03502e-08 -1.10902e-08 3.10131e-09)
(-1.11139e-09 -1.79557e-08 5.08501e-09)
(-3.38717e-09 -1.7641e-08 4.95833e-09)
(-5.70447e-09 -1.70705e-08 4.72982e-09)
(-8.01796e-09 -1.63397e-08 4.44278e-09)
(-1.02762e-08 -1.55616e-08 4.14127e-09)
(-1.24397e-08 -1.48183e-08 3.85296e-09)
(-1.44913e-08 -1.4148e-08 3.58295e-09)
(-1.63889e-08 -1.35789e-08 3.31754e-09)
(-1.8022e-08 -1.31744e-08 3.02828e-09)
(-1.93608e-08 -1.28928e-08 2.68914e-09)
(-1.04951e-09 -2.04803e-08 5.2561e-09)
(-3.21027e-09 -2.00652e-08 5.07965e-09)
(-5.41896e-09 -1.93346e-08 4.76703e-09)
(-7.63191e-09 -1.84324e-08 4.3823e-09)
(-9.80346e-09 -1.75015e-08 3.98704e-09)
(-1.18868e-08 -1.66418e-08 3.62011e-09)
(-1.38426e-08 -1.59059e-08 3.29129e-09)
(-1.56566e-08 -1.52952e-08 2.98647e-09)
(-1.72416e-08 -1.483e-08 2.68689e-09)
(-1.85337e-08 -1.45266e-08 2.36169e-09)
(-1.00314e-09 -2.30313e-08 5.39005e-09)
(-3.07039e-09 -2.24416e-08 5.153e-09)
(-5.19281e-09 -2.14505e-08 4.74341e-09)
(-7.32264e-09 -2.03073e-08 4.25785e-09)
(-9.4182e-09 -1.91939e-08 3.77811e-09)
(-1.14382e-08 -1.82107e-08 3.35038e-09)
(-1.33426e-08 -1.73929e-08 2.98556e-09)
(-1.50853e-08 -1.67445e-08 2.66987e-09)
(-1.66079e-08 -1.62454e-08 2.38392e-09)
(-1.78535e-08 -1.5925e-08 2.08879e-09)
(-9.75847e-10 -2.56954e-08 5.42116e-09)
(-2.97705e-09 -2.47647e-08 5.10855e-09)
(-5.03173e-09 -2.33531e-08 4.59059e-09)
(-7.09702e-09 -2.18755e-08 4.00792e-09)
(-9.1301e-09 -2.05563e-08 3.46405e-09)
(-1.10942e-08 -1.94651e-08 3.00567e-09)
(-1.29566e-08 -1.85907e-08 2.63542e-09)
(-1.46695e-08 -1.79011e-08 2.33482e-09)
(-1.61631e-08 -1.73682e-08 2.07983e-09)
(-1.73468e-08 -1.70006e-08 1.84425e-09)
(-1.53317e-09 -1.48878e-09 3.43224e-09)
(-4.55373e-09 -1.41871e-09 3.42164e-09)
(-7.42288e-09 -1.33331e-09 3.40008e-09)
(-1.0164e-08 -1.24868e-09 3.365e-09)
(-1.28117e-08 -1.16424e-09 3.30982e-09)
(-1.54005e-08 -1.0868e-09 3.22115e-09)
(-1.79694e-08 -1.01788e-09 3.07591e-09)
(-2.05745e-08 -9.60228e-10 2.83749e-09)
(-2.33024e-08 -9.20853e-10 2.4519e-09)
(-2.6316e-08 -9.05651e-10 1.84143e-09)
(-1.45986e-09 -4.40593e-09 3.41308e-09)
(-4.38741e-09 -4.25722e-09 3.39871e-09)
(-7.22974e-09 -4.02499e-09 3.37013e-09)
(-9.94749e-09 -3.77671e-09 3.32568e-09)
(-1.25613e-08 -3.53267e-09 3.25955e-09)
(-1.51025e-08 -3.30138e-09 3.16002e-09)
(-1.75949e-08 -3.09615e-09 3.00596e-09)
(-2.00753e-08 -2.92981e-09 2.76394e-09)
(-2.25807e-08 -2.80831e-09 2.38957e-09)
(-2.51477e-08 -2.74575e-09 1.82793e-09)
(-1.37901e-09 -7.16362e-09 3.37506e-09)
(-4.1514e-09 -6.98911e-09 3.35369e-09)
(-6.88803e-09 -6.67693e-09 3.31184e-09)
(-9.54926e-09 -6.28779e-09 3.24982e-09)
(-1.20973e-08 -5.89576e-09 3.16392e-09)
(-1.45455e-08 -5.52593e-09 3.04452e-09)
(-1.69122e-08 -5.19513e-09 2.87368e-09)
(-1.91938e-08 -4.92291e-09 2.62477e-09)
(-2.13698e-08 -4.71986e-09 2.26409e-09)
(-2.33889e-08 -4.59533e-09 1.75725e-09)
(-1.28719e-09 -9.80002e-09 3.31614e-09)
(-3.89469e-09 -9.59376e-09 3.28561e-09)
(-6.48198e-09 -9.22818e-09 3.22645e-09)
(-9.02145e-09 -8.74355e-09 3.1412e-09)
(-1.14808e-08 -8.21439e-09 3.02939e-09)
(-1.38199e-08 -7.71024e-09 2.885e-09)
(-1.60307e-08 -7.2645e-09 2.69382e-09)
(-1.80996e-08 -6.89078e-09 2.43512e-09)
(-1.99705e-08 -6.6044e-09 2.08505e-09)
(-2.15547e-08 -6.41111e-09 1.62209e-09)
(-1.19532e-09 -1.23431e-08 3.22998e-09)
(-3.62956e-09 -1.21038e-08 3.18916e-09)
(-6.06599e-09 -1.16632e-08 3.11138e-09)
(-8.458e-09 -1.10921e-08 3.00119e-09)
(-1.07824e-08 -1.04531e-08 2.86199e-09)
(-1.30053e-08 -9.81586e-09 2.69191e-09)
(-1.50776e-08 -9.25107e-09 2.48082e-09)
(-1.69577e-08 -8.78759e-09 2.21295e-09)
(-1.85966e-08 -8.42466e-09 1.8717e-09)
(-1.99103e-08 -8.16458e-09 1.44323e-09)
(-1.10937e-09 -1.48265e-08 3.1029e-09)
(-3.37301e-09 -1.4538e-08 3.05279e-09)
(-5.6556e-09 -1.40025e-08 2.95778e-09)
(-7.90962e-09 -1.33126e-08 2.82509e-09)
(-1.00906e-08 -1.25608e-08 2.66175e-09)
(-1.2177e-08 -1.18147e-08 2.46935e-09)
(-1.4134e-08 -1.11304e-08 2.24293e-09)
(-1.58834e-08 -1.05683e-08 1.97154e-09)
(-1.73631e-08 -1.01466e-08 1.64078e-09)
(-1.85329e-08 -9.83389e-09 1.24348e-09)
(-1.03056e-09 -1.72906e-08 2.91067e-09)
(-3.13859e-09 -1.69219e-08 2.85473e-09)
(-5.27839e-09 -1.6255e-08 2.74777e-09)
(-7.40387e-09 -1.54053e-08 2.59982e-09)
(-9.46366e-09 -1.45044e-08 2.4202e-09)
(-1.14181e-08 -1.36467e-08 2.21474e-09)
(-1.32491e-08 -1.28751e-08 1.98164e-09)
(-1.49148e-08 -1.22191e-08 1.71352e-09)
(-1.63091e-08 -1.17375e-08 1.39996e-09)
(-1.74067e-08 -1.13921e-08 1.03642e-09)
(-9.61237e-10 -1.97957e-08 2.61428e-09)
(-2.93823e-09 -1.92946e-08 2.56024e-09)
(-4.95294e-09 -1.84176e-08 2.45498e-09)
(-6.96143e-09 -1.73459e-08 2.306e-09)
(-8.91847e-09 -1.62519e-08 2.12426e-09)
(-1.07785e-08 -1.52509e-08 1.91867e-09)
(-1.25038e-08 -1.43985e-08 1.69152e-09)
(-1.408e-08 -1.36938e-08 1.43687e-09)
(-1.54291e-08 -1.31543e-08 1.15256e-09)
(-1.64941e-08 -1.27902e-08 8.27369e-10)
(-9.07479e-10 -2.24359e-08 2.1555e-09)
(-2.77591e-09 -2.16974e-08 2.1229e-09)
(-4.68888e-09 -2.04706e-08 2.04626e-09)
(-6.59936e-09 -1.9078e-08 1.92151e-09)
(-8.46666e-09 -1.77464e-08 1.75846e-09)
(-1.02516e-08 -1.65917e-08 1.56959e-09)
(-1.19177e-08 -1.56468e-08 1.36242e-09)
(-1.34242e-08 -1.49061e-08 1.1369e-09)
(-1.47229e-08 -1.43432e-08 8.93528e-10)
(-1.57626e-08 -1.39727e-08 6.14609e-10)
(-8.7268e-10 -2.53881e-08 1.44903e-09)
(-2.66115e-09 -2.41726e-08 1.48573e-09)
(-4.49289e-09 -2.23603e-08 1.48923e-09)
(-6.32577e-09 -2.05077e-08 1.42827e-09)
(-8.11888e-09 -1.88989e-08 1.31162e-09)
(-9.83884e-09 -1.76078e-08 1.15942e-09)
(-1.14579e-08 -1.66044e-08 9.87035e-10)
(-1.29367e-08 -1.58363e-08 8.01507e-10)
(-1.42178e-08 -1.526e-08 6.05611e-10)
(-1.52239e-08 -1.48685e-08 3.96162e-10)
(-1.42983e-09 -1.38186e-09 2.44056e-09)
(-4.24587e-09 -1.31367e-09 2.40918e-09)
(-6.91838e-09 -1.22877e-09 2.34593e-09)
(-9.4693e-09 -1.14285e-09 2.2474e-09)
(-1.19333e-08 -1.05623e-09 2.10618e-09)
(-1.4348e-08 -9.75921e-10 1.90982e-09)
(-1.67586e-08 -9.03965e-10 1.64017e-09)
(-1.92317e-08 -8.43412e-10 1.2722e-09)
(-2.18689e-08 -8.00937e-10 7.73949e-10)
(-2.48531e-08 -7.82153e-10 1.04044e-10)
(-1.35818e-09 -4.08851e-09 2.4037e-09)
(-4.08085e-09 -3.94097e-09 2.37217e-09)
(-6.72183e-09 -3.70816e-09 2.30852e-09)
(-9.24413e-09 -3.45516e-09 2.20972e-09)
(-1.16686e-08 -3.20327e-09 2.06891e-09)
(-1.40289e-08 -2.9627e-09 1.87524e-09)
(-1.63539e-08 -2.74764e-09 1.61288e-09)
(-1.86882e-08 -2.57116e-09 1.26029e-09)
(-2.10791e-08 -2.43998e-09 7.94811e-10)
(-2.35726e-08 -2.36779e-09 1.96176e-10)
(-1.27686e-09 -6.64465e-09 2.32974e-09)
(-3.84278e-09 -6.46686e-09 2.29798e-09)
(-6.37269e-09 -6.14778e-09 2.23361e-09)
(-8.82927e-09 -5.74802e-09 2.13461e-09)
(-1.11778e-08 -5.34076e-09 1.99552e-09)
(-1.3433e-08 -4.95313e-09 1.80735e-09)
(-1.56162e-08 -4.60378e-09 1.55713e-09)
(-1.77287e-08 -4.31307e-09 1.23049e-09)
(-1.9755e-08 -4.09254e-09 8.14957e-10)
(-2.16435e-08 -3.95196e-09 3.06868e-10)
(-1.18351e-09 -9.08619e-09 2.21571e-09)
(-3.57971e-09 -8.87206e-09 2.18389e-09)
(-5.95377e-09 -8.49062e-09 2.11961e-09)
(-8.27911e-09 -7.98496e-09 2.02153e-09)