/*--------------------------------*- C++ -*----------------------------------*\
| =========                 |                                                 |
| \\      /  F ield         | foam-extend: Open Source CFD                    |
|  \\    /   O peration     | Version:     3.1                                |
|   \\  /    A nd           | Web:         http://www.extend-project.de       |
|    \\/     M anipulation  |                                                 |
\*---------------------------------------------------------------------------*/
FoamFile
{
    version     2.0;
    format      ascii;
    class       volScalarField;
    location    "0.0002";
    object      p;
}
// * * * * * * * * * * * * * * * * * * * * * * * * * * * * * * * * * * * * * //

dimensions      [0 2 -2 0 0 0 0];

internalField   nonuniform List<scalar> 
16000
(
1.24924
1.24887
1.24813
1.24699
1.24546
1.24349
1.24109
1.23824
1.23497
1.23138
1.24887
1.24853
1.24782
1.24673
1.24525
1.24337
1.24106
1.23832
1.23517
1.23171
1.24813
1.24782
1.24715
1.24612
1.24471
1.2429
1.24069
1.23806
1.23505
1.23173
1.24699
1.24673
1.24612
1.24515
1.24381
1.24209
1.23998
1.23748
1.23461
1.23145
1.24546
1.24525
1.24471
1.24381
1.24255
1.24093
1.23893
1.23656
1.23385
1.23087
1.24349
1.24337
1.2429
1.24209
1.24093
1.23941
1.23753
1.23531
1.23277
1.23
1.24109
1.24106
1.24069
1.23998
1.23893
1.23753
1.2358
1.23373
1.23138
1.22885
1.23824
1.23832
1.23806
1.23748
1.23656
1.23531
1.23373
1.23185
1.22973
1.22745
1.23497
1.23517
1.23505
1.23461
1.23385
1.23277
1.23138
1.22973
1.22785
1.22587
1.23138
1.23171
1.23173
1.23145
1.23087
1.23
1.22885
1.22745
1.22587
1.22424
1.0839
1.08283
1.08065
1.07733
1.07281
1.06702
1.05987
1.05127
1.04116
1.02954
1.08283
1.08182
1.07974
1.07656
1.07221
1.06664
1.05976
1.05149
1.04176
1.03059
1.08065
1.07974
1.07779
1.07475
1.0706
1.06526
1.05865
1.05071
1.04138
1.03067
1.07733
1.07656
1.07475
1.0719
1.06795
1.06285
1.05653
1.04893
1.04001
1.02976
1.07281
1.07221
1.0706
1.06795
1.06423
1.05939
1.05337
1.04613
1.03762
1.02787
1.06702
1.06664
1.06526
1.06285
1.05939
1.05484
1.04914
1.04227
1.0342
1.02497
1.05987
1.05976
1.05865
1.05653
1.05337
1.04915
1.04381
1.03735
1.02975
1.02107
1.05127
1.05149
1.05071
1.04893
1.04613
1.04227
1.03735
1.03135
1.02426
1.01618
1.04116
1.04176
1.04138
1.04001
1.03762
1.0342
1.02975
1.02426
1.01775
1.01033
1.02954
1.03059
1.03067
1.02976
1.02787
1.02497
1.02107
1.01618
1.01033
1.00366
0.926017
0.924328
0.920906
0.915684
0.908553
0.899364
0.887922
0.873977
0.857215
0.837242
0.924328
0.922743
0.919477
0.914465
0.907607
0.898765
0.887757
0.874352
0.85826
0.83912
0.920906
0.919477
0.916404
0.911629
0.90506
0.896569
0.88599
0.873107
0.857652
0.839298
0.915684
0.914465
0.911629
0.907124
0.900867
0.89274
0.88259
0.870219
0.85538
0.837775
0.908553
0.907607
0.90506
0.900867
0.894953
0.887212
0.877503
0.865644
0.851407
0.834527
0.899364
0.898765
0.896569
0.89274
0.887212
0.879889
0.870642
0.859306
0.845671
0.829501
0.887922
0.887757
0.88599
0.88259
0.877503
0.870642
0.861892
0.851102
0.838079
0.822617
0.873977
0.874352
0.873107
0.870219
0.865644
0.859306
0.851102
0.840894
0.828507
0.813762
0.857215
0.85826
0.857652
0.85538
0.851407
0.845671
0.838079
0.828507
0.816796
0.802793
0.837242
0.83912
0.839298
0.837775
0.834527
0.829501
0.822617
0.813762
0.802793
0.789569
0.779758
0.777616
0.773277
0.766654
0.757604
0.745927
0.73135
0.713509
0.691918
0.665927
0.777616
0.775608
0.771467
0.76511
0.756407
0.745171
0.731149
0.714004
0.693287
0.668404
0.773277
0.771467
0.767571
0.761516
0.75318
0.742389
0.72891
0.712429
0.692529
0.668669
0.766654
0.76511
0.761516
0.755804
0.747862
0.737531
0.724591
0.708753
0.68963
0.666724
0.757604
0.756407
0.75318
0.747862
0.740353
0.730504
0.718115
0.702912
0.684538
0.662538
0.745927
0.745171
0.742389
0.737531
0.730504
0.721176
0.709357
0.694797
0.677158
0.656031
0.73135
0.731149
0.72891
0.724591
0.718115
0.709357
0.698147
0.684248
0.667348
0.647074
0.713509
0.714004
0.712429
0.708753
0.702912
0.694797
0.684248
0.671049
0.654905
0.635484
0.691918
0.693287
0.692529
0.68963
0.684538
0.677158
0.667348
0.654905
0.639556
0.621005
0.665927
0.668404
0.668669
0.666724
0.662538
0.656031
0.647074
0.635484
0.621005
0.603356
0.648187
0.645794
0.640955
0.633577
0.62352
0.610582
0.594492
0.574891
0.551313
0.523156
0.645794
0.643554
0.638937
0.631862
0.622195
0.60975
0.594276
0.57544
0.552812
0.525837
0.640955
0.638937
0.634601
0.62787
0.618622
0.606683
0.591822
0.573729
0.552004
0.526141
0.633577
0.631862
0.62787
0.621533
0.612739
0.601329
0.587087
0.569725
0.548874
0.524071
0.62352
0.622195
0.618622
0.612739
0.604447
0.593599
0.579993
0.563366
0.543373
0.519596
0.610582
0.60975
0.606683
0.601329
0.593599
0.583358
0.570422
0.554547
0.535414
0.512644
0.594492
0.594276
0.591822
0.587087
0.579993
0.570422
0.558205
0.543115
0.524859
0.503098
0.574891
0.57544
0.573729
0.569725
0.563366
0.554547
0.543115
0.528864
0.511522
0.490791
0.551313
0.552812
0.552004
0.548874
0.543373
0.535414
0.524859
0.511522
0.495154
0.475497
0.523156
0.525837
0.526141
0.524071
0.519596
0.512644
0.503098
0.490791
0.475497
0.456977
0.532978
0.530538
0.525611
0.518123
0.507963
0.494971
0.478942
0.459618
0.436679
0.409746
0.530538
0.528255
0.523561
0.516387
0.506629
0.49414
0.478731
0.460159
0.438129
0.41229
0.525611
0.523561
0.519162
0.512353
0.503037
0.491079
0.476304
0.458488
0.437356
0.412586
0.518123
0.516387
0.512353
0.505966
0.497138
0.485747
0.47163
0.45458
0.434346
0.410634
0.507963
0.506629
0.503037
0.497138
0.488855
0.478075
0.46465
0.448391
0.429066
0.406414
0.494971
0.49414
0.491079
0.485747
0.478075
0.467963
0.455278
0.439846
0.421457
0.399879
0.478942
0.478731
0.476304
0.471629
0.46465
0.455277
0.443392
0.42884
0.411427
0.390955
0.459618
0.460159
0.458488
0.45458
0.448391
0.439846
0.42884
0.415234
0.398856
0.379539
0.436679
0.438129
0.437356
0.434346
0.429066
0.421457
0.411427
0.398856
0.383592
0.365498
0.409746
0.41229
0.412586
0.410634
0.406414
0.399879
0.390955
0.379539
0.365498
0.348713
0.434431
0.432108
0.427426
0.42034
0.410778
0.398645
0.383823
0.366177
0.345557
0.321816
0.432108
0.429937
0.425483
0.418702
0.409528
0.397873
0.383629
0.366668
0.34685
0.324036
0.427426
0.425483
0.421321
0.414902
0.406166
0.395032
0.381401
0.365154
0.346162
0.324297
0.42034
0.418702
0.414902
0.408908
0.400664
0.390098
0.37712
0.361622
0.343485
0.322596
0.410778
0.409528
0.406166
0.400664
0.392973
0.38303
0.370754
0.356047
0.338803
0.318924
0.398645
0.397873
0.395032
0.390098
0.38303
0.373773
0.362256
0.348392
0.332087
0.313261
0.383823
0.383629
0.381401
0.37712
0.370754
0.362256
0.351564
0.338606
0.323297
0.305576
0.366177
0.366668
0.365154
0.361622
0.356047
0.348392
0.338606
0.326626
0.312382
0.29583
0.345557
0.34685
0.346162
0.343485
0.338803
0.332087
0.323297
0.312382
0.299284
0.283976
0.321816
0.324036
0.324297
0.322596
0.318924
0.313261
0.305576
0.29583
0.283976
0.269996
0.351739
0.349638
0.345416
0.339051
0.330512
0.31976
0.306754
0.291458
0.27385
0.253937
0.349638
0.347679
0.343667
0.337584
0.329399
0.319078
0.306583
0.291879
0.274944
0.255781
0.345416
0.343667
0.33993
0.334187
0.326413
0.316575
0.30464
0.290576
0.27436
0.255998
0.339051
0.337584
0.334187
0.328847
0.321541
0.312241
0.300917
0.287541
0.272094
0.254583
0.330512
0.329399
0.326413
0.321541
0.314765
0.30606
0.295403
0.282768
0.268142
0.251535
0.31976
0.319078
0.316575
0.312241
0.30606
0.298015
0.288084
0.276249
0.262499
0.246852
0.306754
0.306583
0.30464
0.300917
0.295403
0.288084
0.278945
0.267972
0.25516
0.240533
0.291458
0.291879
0.290576
0.287541
0.282768
0.276249
0.267972
0.257931
0.246123
0.232579
0.27385
0.274944
0.27436
0.272094
0.268142
0.262499
0.25516
0.246123
0.235389
0.222997
0.253937
0.255781
0.255998
0.254583
0.251535
0.246852
0.240533
0.232579
0.222997
0.211826
0.283374
0.281547
0.277883
0.272378
0.265032
0.255845
0.244827
0.232003
0.217418
0.201154
0.281547
0.279845
0.276368
0.271112
0.264077
0.255264
0.244682
0.232352
0.218317
0.202649
0.277883
0.276368
0.273137
0.268188
0.261521
0.253136
0.243044
0.231265
0.217835
0.202824
0.272378
0.271112
0.268188
0.263604
0.257361
0.24946
0.239913
0.228737
0.215969
0.201674
0.265032
0.264077
0.261521
0.257361
0.251598
0.244239
0.235291
0.224775
0.212724
0.199202
0.255845
0.255264
0.253136
0.24946
0.244239
0.237477
0.229185
0.219385
0.208108
0.195416
0.244827
0.244682
0.243044
0.239913
0.235291
0.229185
0.221609
0.21258
0.202134
0.190329
0.232003
0.232352
0.231265
0.228737
0.224775
0.219385
0.21258
0.204382
0.194822
0.183961
0.217417
0.218317
0.217835
0.215969
0.212724
0.208108
0.202134
0.194822
0.186204
0.176341
0.201154
0.202649
0.202824
0.201674
0.199202
0.195416
0.190329
0.183961
0.176341
0.167526
0.227471
0.225925
0.22283
0.218195
0.212035
0.204372
0.195244
0.1847
0.172813
0.159685
0.225925
0.224487
0.221553
0.217131
0.211236
0.203889
0.195123
0.184985
0.173542
0.160886
0.22283
0.221553
0.218832
0.214677
0.2091
0.202121
0.193771
0.184094
0.17315
0.161025
0.218195
0.217131
0.214677
0.21084
0.205632
0.199072
0.19119
0.182026
0.171635
0.160099
0.212035
0.211236
0.2091
0.205632
0.200844
0.194754
0.187391
0.17879
0.169006
0.158112
0.204372
0.203889
0.202121
0.199072
0.194754
0.189185
0.182389
0.174403
0.165274
0.155074
0.195244
0.195123
0.193771
0.19119
0.187391
0.182389
0.17621
0.168885
0.160461
0.151004
0.1847
0.184985
0.184094
0.182026
0.17879
0.174403
0.168885
0.162268
0.154594
0.145925
0.172813
0.173542
0.17315
0.171635
0.169006
0.165274
0.160461
0.154594
0.147711
0.139872
0.159685
0.160886
0.161025
0.160099
0.158112
0.155074
0.151004
0.145925
0.139872
0.132899
0.182114
0.18083
0.178264
0.17443
0.16935
0.163056
0.155592
0.147016
0.137402
0.126844
0.18083
0.179637
0.177206
0.173551
0.168692
0.16266
0.155493
0.147247
0.137989
0.127807
0.178264
0.177206
0.174956
0.171526
0.166935
0.161211
0.15439
0.146523
0.137673
0.127918
0.17443
0.173551
0.171526
0.168366
0.164087
0.158716
0.152288
0.144846
0.13645
0.127174
0.16935
0.168692
0.166935
0.164087
0.160165
0.155191
0.149198
0.142226
0.13433
0.125579
0.163056
0.16266
0.161211
0.158716
0.155191
0.150655
0.145139
0.13868
0.131327
0.123144
0.155592
0.155493
0.15439
0.152288
0.149198
0.145139
0.140138
0.134231
0.127459
0.119885
0.147016
0.147247
0.146523
0.144846
0.142226
0.13868
0.134231
0.128909
0.122756
0.115826
0.137402
0.137989
0.137673
0.13645
0.13433
0.131327
0.127459
0.122756
0.117251
0.110997
0.126844
0.127807
0.127918
0.127174
0.125579
0.123144
0.119885
0.115826
0.110997
0.105443
0.145512
0.14446
0.142358
0.139223
0.135079
0.129957
0.123901
0.116966
0.109217
0.100733
0.14446
0.143482
0.141493
0.138506
0.134543
0.129635
0.123821
0.117152
0.109689
0.101505
0.142358
0.141493
0.139653
0.136853
0.133112
0.128458
0.122928
0.116568
0.109434
0.101594
0.139223
0.138506
0.136853
0.134276
0.130795
0.126433
0.121225
0.115214
0.10845
0.100996
0.135079
0.134543
0.133112
0.130795
0.127608
0.123575
0.118726
0.1131
0.106744
0.0997157
0.129957
0.129635
0.128458
0.126433
0.123575
0.119904
0.115449
0.110243
0.104329
0.0977614
0.123901
0.123821
0.122928
0.121225
0.118726
0.115449
0.111417
0.106662
0.101222
0.0951481
0.116966
0.117152
0.116568
0.115214
0.1131
0.110243
0.106662
0.102386
0.0974484
0.0918952
0.109217
0.109689
0.109434
0.10845
0.106744
0.104329
0.101222
0.0974484
0.093036
0.0880276
0.100732
0.101505
0.101594
0.100996
0.0997156
0.0977614
0.0951481
0.0918952
0.0880276
0.083582
0.116089
0.115234
0.113526
0.110982
0.107624
0.10348
0.0985901
0.0930005
0.0867668
0.079953
0.115234
0.114439
0.112824
0.1104
0.10719
0.103219
0.0985253
0.0931506
0.0871466
0.0805732
0.113526
0.112824
0.111331
0.109061
0.106031
0.102268
0.0978043
0.0926795
0.086941
0.0806445
0.110982
0.1104
0.109061
0.106974
0.104157
0.100633
0.0964314
0.0915893
0.0861496
0.0801642
0.107624
0.10719
0.106031
0.104157
0.101581
0.098326
0.0944173
0.0898884
0.0847786
0.0791359
0.10348
0.103219
0.102268
0.100633
0.098326
0.0953664
0.0917778
0.08759
0.0828385
0.0775674
0.0985901
0.0985253
0.0978042
0.0964314
0.0944173
0.0917778
0.088534
0.0847122
0.0803442
0.0754705
0.0930005
0.0931505
0.0926795
0.0915893
0.0898884
0.08759
0.0847122
0.081278
0.0773153
0.0728614
0.0867667
0.0871466
0.086941
0.0861496
0.0847786
0.0828385
0.0803442
0.0773153
0.073776
0.0697599
0.0799529
0.0805732
0.0806445
0.0801641
0.0791359
0.0775674
0.0754705
0.0728614
0.0697599
0.0661956
0.0925018
0.0918106
0.0904314
0.0883772
0.0856676
0.0823285
0.0783926
0.0738991
0.0688934
0.0634277
0.0918106
0.0911688
0.0898638
0.0879074
0.0853176
0.0821186
0.0783404
0.0740195
0.0691982
0.063925
0.0904314
0.0898638
0.0886586
0.0868265
0.0843837
0.0813525
0.0777604
0.0736409
0.0690331
0.063982
0.0883772
0.0879074
0.0868265
0.0851436
0.0828734
0.0800359
0.0766562
0.072765
0.0683979
0.0635967
0.0856676
0.0853176
0.0843837
0.0828734
0.0807995
0.0781798
0.075037
0.0713988
0.0672976
0.0627721
0.0823285
0.0821186
0.0813524
0.0800359
0.0781798
0.0757998
0.0729161
0.0695535
0.065741
0.0615145
0.0783926
0.0783404
0.0777604
0.0766562
0.075037
0.0729161
0.0703111
0.0672439
0.0637404
0.0598336
0.073899
0.0740195
0.0736409
0.072765
0.0713988
0.0695535
0.0672439
0.0644892
0.061312
0.0577426
0.0688934
0.0691982
0.0690331
0.0683978
0.0672976
0.065741
0.0637404
0.061312
0.0584753
0.0552577
0.0634276
0.0639249
0.063982
0.0635967
0.0627721
0.0615144
0.0598336
0.0577426
0.0552577
0.0524025
0.0736336
0.0730771
0.0719669
0.0703143
0.0681356
0.0654527
0.0622928
0.0586882
0.0546764
0.0502996
0.0730771
0.0725605
0.0715102
0.0699364
0.0678542
0.065284
0.0622508
0.0587848
0.0549206
0.0506976
0.0719669
0.0715102
0.0705405
0.0690671
0.0671037
0.0646687
0.0617853
0.0584812
0.0547883
0.0507433
0.0703143
0.0699364
0.0690671
0.0677143
0.0658902
0.0636116
0.0608994
0.0577789
0.0542793
0.0504348
0.0681355
0.0678542
0.0671037
0.0658902
0.0642247
0.0621218
0.0596005
0.0566837
0.0533979
0.0497746
0.0654526
0.065284
0.0646687
0.0636116
0.0621218
0.0602123
0.0578999
0.0552049
0.0521512
0.048768
0.0622927
0.0622508
0.0617853
0.0608994
0.0596005
0.0578999
0.0558119
0.0533547
0.0505495
0.047423
0.0586882
0.0587848
0.0584812
0.0577789
0.0566837
0.0552049
0.0533547
0.0511488
0.0486058
0.0457502
0.0546764
0.0549206
0.0547882
0.0542793
0.0533979
0.0521512
0.0505495
0.0486058
0.0463363
0.043763
0.0502996
0.0506976
0.0507433
0.0504348
0.0497746
0.048768
0.047423
0.0457502
0.043763
0.0414805
0.0585652
0.0581185
0.0572275
0.0559014
0.0541541
0.0520036
0.0494722
0.0465867
0.0433775
0.0398791
0.0581185
0.0577038
0.0568609
0.0555983
0.0539285
0.0518684
0.0494387
0.046664
0.0435728
0.0401971
0.0572275
0.0568609
0.056083
0.0549011
0.0533268
0.0513754
0.0490659
0.046421
0.0434669
0.0402336
0.0559014
0.0555983
0.0549011
0.0538163
0.0523542
0.0505284
0.0483565
0.045859
0.0430599
0.039987
0.0541541
0.0539285
0.0533268
0.0523542
0.0510196
0.0493352
0.0473167
0.0449828
0.0423551
0.0394595
0.0520036
0.0518684
0.0513754
0.0505284
0.0493352
0.0478064
0.0459557
0.0437999
0.0413586
0.0386554
0.0494722
0.0494387
0.0490659
0.0483565
0.0473167
0.0459557
0.0442854
0.0423205
0.0400785
0.0375811
0.0465867
0.046664
0.046421
0.045859
0.0449828
0.0437999
0.0423205
0.0405574
0.0385257
0.0362455
0.0433775
0.0435727
0.0434669
0.0430599
0.0423551
0.0413586
0.0400785
0.0385257
0.0367134
0.0346594
0.0398791
0.0401971
0.0402336
0.039987
0.0394595
0.0386554
0.0375811
0.0362455
0.0346594
0.0328385
0.0465478
0.04619
0.0454765
0.0444149
0.0430164
0.0412961
0.0392721
0.0369663
0.0344035
0.0316118
0.04619
0.0458579
0.045183
0.0441722
0.0428359
0.0411879
0.0392452
0.037028
0.0345593
0.0318655
0.0454765
0.045183
0.0445602
0.0436142
0.0423545
0.0407936
0.0389472
0.0368338
0.0344748
0.0318945
0.0444149
0.0441722
0.0436142
0.0427462
0.0415765
0.0401164
0.0383803
0.0363849
0.0341499
0.0316978
0.0430164
0.0428359
0.0423545
0.0415765
0.0405091
0.0391625
0.0375494
0.0356851
0.0335873
0.031277
0.0412961
0.0411879
0.0407936
0.0401164
0.0391625
0.0379406
0.0364621
0.0347406
0.032792
0.0306357
0.0392721
0.0392452
0.0389472
0.0383803
0.0375494
0.0364621
0.0351282
0.0335596
0.0317707
0.029779
0.0369663
0.037028
0.0368338
0.0363849
0.0356851
0.0347406
0.0335596
0.0321527
0.0305322
0.0287143
0.0344035
0.0345593
0.0344748
0.0341499
0.0335873
0.032792
0.0317707
0.0305322
0.0290872
0.0274504
0.0316118
0.0318654
0.0318945
0.0316978
0.031277
0.0306357
0.029779
0.0287143
0.0274504
0.026
0.0369743
0.0366883
0.0361179
0.0352695
0.0341523
0.0327783
0.0311626
0.0293227
0.027279
0.0250542
0.0366883
0.0364228
0.0358834
0.0350756
0.0340081
0.032692
0.0311411
0.0293719
0.0274032
0.0252563
0.0361179
0.0358834
0.0353856
0.0346298
0.0336236
0.0323771
0.0309033
0.0292171
0.0273358
0.0252794
0.0352695
0.0350756
0.0346298
0.0339364
0.0330022
0.0318365
0.0304508
0.0288589
0.0270768
0.0251227
0.0341523
0.0340081
0.0336235
0.0330022
0.0321499
0.031075
0.0297878
0.0283008
0.0266283
0.0247874
0.0327783
0.032692
0.0323771
0.0318365
0.031075
0.0301
0.0289205
0.0275476
0.0259944
0.0242765
0.0311626
0.0311411
0.0309033
0.0304508
0.0297878
0.0289205
0.0278567
0.0266062
0.0251806
0.0235943
0.0293227
0.0293719
0.0292171
0.0288589
0.0283008
0.0275476
0.0266062
0.025485
0.024194
0.0227465
0.027279
0.0274032
0.0273358
0.0270768
0.0266283
0.0259944
0.0251806
0.024194
0.0230434
0.0217404
0.0250542
0.0252563
0.0252794
0.0251227
0.0247874
0.0242765
0.0235943
0.0227465
0.0217404
0.0205863
0.0293548
0.0291265
0.0286713
0.0279942
0.0271029
0.0260071
0.0247188
0.0232526
0.0216246
0.0198532
0.0291265
0.0289146
0.0284841
0.0278395
0.0269879
0.0259382
0.0247017
0.0232918
0.0217235
0.0200141
0.0286713
0.0284841
0.0280869
0.0274838
0.0266811
0.0256871
0.0245121
0.0231684
0.0216698
0.0200325
0.0279942
0.0278395
0.0274838
0.0269306
0.0261856
0.025256
0.0241515
0.022883
0.0214635
0.0199077
0.0271029
0.0269879
0.0266811
0.0261856
0.025506
0.024649
0.0236231
0.0224384
0.0211064
0.0196409
0.026007
0.0259382
0.0256871
0.025256
0.024649
0.0238719
0.022932
0.0218385
0.0206017
0.0192342
0.0247188
0.0247017
0.0245121
0.0241515
0.0236231
0.022932
0.0220846
0.0210887
0.0199538
0.0186913
0.0232526
0.0232918
0.0231684
0.022883
0.0224384
0.0218385
0.0210887
0.020196
0.0191686
0.0180168
0.0216246
0.0217235
0.0216698
0.0214635
0.0211064
0.0206017
0.0199538
0.0191686
0.018253
0.0172166
0.0198532
0.0200141
0.0200325
0.0199077
0.0196409
0.0192342
0.0186913
0.0180168
0.0172166
0.0162988
0.0232951
0.0231131
0.0227502
0.0222106
0.0215003
0.0206272
0.0196012
0.0184337
0.017138
0.0157288
0.0231131
0.0229441
0.022601
0.0220873
0.0214086
0.0205724
0.0195876
0.018465
0.0172167
0.0158567
0.0227502
0.022601
0.0222844
0.0218038
0.0211642
0.0203724
0.0194366
0.0183667
0.017174
0.0158713
0.0222106
0.0220873
0.0218038
0.021363
0.0207694
0.020029
0.0191494
0.0181396
0.0170098
0.0157721
0.0215003
0.0214086
0.0211642
0.0207694
0.0202281
0.0195456
0.0187287
0.0177856
0.0167257
0.0155598
0.0206272
0.0205724
0.0203724
0.020029
0.0195456
0.0189268
0.0181785
0.0173082
0.0163241
0.0152364
0.0196012
0.0195876
0.0194366
0.0191494
0.0187287
0.0181785
0.017504
0.0167116
0.0158087
0.0148046
0.0184337
0.018465
0.0183667
0.0181396
0.0177856
0.0173082
0.0167116
0.0160014
0.0151841
0.0142683
0.017138
0.0172167
0.017174
0.0170098
0.0167257
0.0163241
0.0158087
0.0151841
0.014456
0.013632
0.0157288
0.0158567
0.0158714
0.0157721
0.0155598
0.0152364
0.0148046
0.0142683
0.013632
0.0129025
0.018479
0.018334
0.0180451
0.0176154
0.0170499
0.0163549
0.0155384
0.0146096
0.013579
0.0124585
0.018334
0.0181995
0.0179262
0.0175172
0.0169769
0.0163113
0.0155276
0.0146344
0.0136416
0.0125602
0.0180451
0.0179262
0.0176742
0.0172915
0.0167824
0.0161521
0.0154074
0.0145562
0.0136076
0.0125718
0.0176154
0.0175172
0.0172915
0.0169406
0.0164681
0.0158788
0.0151789
0.0143756
0.013477
0.0124929
0.0170499
0.0169769
0.0167824
0.0164681
0.0160372
0.0154941
0.0148442
0.014094
0.0132511
0.0123241
0.0163549
0.0163113
0.0161521
0.0158788
0.0154941
0.0150018
0.0144066
0.0137143
0.0129317
0.012067
0.0155384
0.0155276
0.0154074
0.0151789
0.0148442
0.0144066
0.0138701
0.0132399
0.012522
0.0117238
0.0146096
0.0146344
0.0145563
0.0143756
0.014094
0.0137143
0.0132399
0.0126752
0.0120255
0.0112975
0.013579
0.0136416
0.0136076
0.013477
0.0132511
0.0129317
0.012522
0.0120255
0.0114467
0.0107919
0.0124585
0.0125602
0.0125718
0.0124929
0.0123241
0.012067
0.0117238
0.0112975
0.0107919
0.0102122
0.0146534
0.0145381
0.0143081
0.0139663
0.0135164
0.0129636
0.0123143
0.0115758
0.0107566
0.00986605
0.0145381
0.014431
0.0142136
0.0138882
0.0134584
0.0129289
0.0123057
0.0115955
0.0108063
0.00994688
0.0143081
0.0142136
0.014013
0.0137086
0.0133036
0.0128023
0.0122101
0.0115334
0.0107793
0.00995612
0.0139663
0.0138882
0.0137086
0.0134295
0.0130536
0.012585
0.0120284
0.0113897
0.0106755
0.00989341
0.0135164
0.0134584
0.0133036
0.0130536
0.012711
0.0122791
0.0117623
0.0111659
0.0104959
0.0097593
0.0129636
0.0129289
0.0128023
0.012585
0.0122791
0.0118876
0.0114144
0.0108641
0.0102421
0.00955499
0.0123143
0.0123057
0.0122101
0.0120284
0.0117623
0.0114144
0.0109879
0.010487
0.00991648
0.00928229
0.0115758
0.0115955
0.0115334
0.0113897
0.0111659
0.0108641
0.010487
0.0100382
0.00952196
0.00894362
0.0107566
0.0108063
0.0107793
0.0106755
0.0104959
0.0102421
0.00991648
0.00952196
0.00906216
0.00854196
0.00986606
0.00994689
0.00995613
0.00989341
0.00975931
0.009555
0.0092823
0.00894362
0.00854196
0.00808152
0.0116161
0.0115244
0.0113415
0.0110697
0.0107121
0.0102727
0.00975658
0.00916974
0.00851888
0.00781152
0.0115244
0.0114392
0.0112664
0.0110076
0.0106659
0.0102451
0.00974972
0.00918541
0.0085584
0.00787572
0.0113415
0.0112664
0.0111069
0.0108649
0.0105429
0.0101444
0.0096738
0.00913603
0.00853693
0.00788305
0.0110697
0.0110076
0.0108649
0.010643
0.0103442
0.00997172
0.00952941
0.0090219
0.00845448
0.00783324
0.0107121
0.0106659
0.0105429
0.0103442
0.0100718
0.00972859
0.00931795
0.00884408
0.0083118
0.00772673
0.0102727
0.0102451
0.0101444
0.00997172
0.00972859
0.00941748
0.00904146
0.00860427
0.00811021
0.00756446
0.00975659
0.00974973
0.0096738
0.00952941
0.00931795
0.00904147
0.00870263
0.00830471
0.00785156
0.00734789
0.00916974
0.00918542
0.00913604
0.0090219
0.00884408
0.00860427
0.00830471
0.00794824
0.00753822
0.00707895
0.00851888
0.0085584
0.00853694
0.00845448
0.00831181
0.00811021
0.00785156
0.00753822
0.00717308
0.00676002
0.00781153
0.00787573
0.00788306
0.00783325
0.00772673
0.00756447
0.0073479
0.00707895
0.00676002
0.00639445
0.00920557
0.00913268
0.00898739
0.00877141
0.00848724
0.00813816
0.00772821
0.00726212
0.00674527
0.00618367
0.00913268
0.00906505
0.00892766
0.00872207
0.00845058
0.00811623
0.00772276
0.00727456
0.00677665
0.00623464
0.00898739
0.00892766
0.00880095
0.00860865
0.00835284
0.0080363
0.00766245
0.00723535
0.00675961
0.00624046
0.00877142
0.00872207
0.00860865
0.00843234
0.00819498
0.00789909
0.00754776
0.00714471
0.00669414
0.00620092
0.00848724
0.00845058
0.00835284
0.00819498
0.00797862
0.00770597
0.00737982
0.0070035
0.00658085
0.00611636
0.00813816
0.00811623
0.0080363
0.00789909
0.00770597
0.00745887
0.00716024
0.00681307
0.0064208
0.00598755
0.00772821
0.00772276
0.00766245
0.00754777
0.00737982
0.00716024
0.00689117
0.00657522
0.00621545
0.00581564
0.00726212
0.00727457
0.00723535
0.00714471
0.0070035
0.00681307
0.00657522
0.00629221
0.00596671
0.00560217
0.00674528
0.00677666
0.00675962
0.00669415
0.00658086
0.0064208
0.00621545
0.00596671
0.00567688
0.00534905
0.00618369
0.00623465
0.00624047
0.00620092
0.00611637
0.00598756
0.00581564
0.00560218
0.00534905
0.00505894
0.00729323
0.00723533
0.00711994
0.00694841
0.00672274
0.00644555
0.00612006
0.00575006
0.00533983
0.00489416
0.00723533
0.00718162
0.0070725
0.00690922
0.00669363
0.00642814
0.00611574
0.00575994
0.00536474
0.0049346
0.00711994
0.0070725
0.00697187
0.00681915
0.00661601
0.00636467
0.00606786
0.00572881
0.00535121
0.00493922
0.00694841
0.00690922
0.00681915
0.00667914
0.00649067
0.00625573
0.00597681
0.00565686
0.00529925
0.00490784
0.00672274
0.00669363
0.00661602
0.00649067
0.00631888
0.00610241
0.00584349
0.00554478
0.00520934
0.00484075
0.00644555
0.00642814
0.00636467
0.00625573
0.00610241
0.00590624
0.00566919
0.00539364
0.00508232
0.00473854
0.00612007
0.00611574
0.00606786
0.00597682
0.00584349
0.00566919
0.00545562
0.00520487
0.00491938
0.00460215
0.00575007
0.00575995
0.00572882
0.00565687
0.00554478
0.00539364
0.00520487
0.00498028
0.00472201
0.00443279
0.00533984
0.00536475
0.00535122
0.00529926
0.00520935
0.00508233
0.00491938
0.00472201
0.00449206
0.004232
0.00489418
0.00493462
0.00493924
0.00490785
0.00484076
0.00473855
0.00460216
0.0044328
0.004232
0.00400189
0.00577657
0.00573061
0.005639
0.00550284
0.0053237
0.0051037
0.00484539
0.00455179
0.00422632
0.0038728
0.00573061
0.00568797
0.00560134
0.00547173
0.0053006
0.00508988
0.00484196
0.00455963
0.00424608
0.00390488
0.005639
0.00560134
0.00552146
0.00540023
0.00523899
0.00503951
0.00480396
0.00453493
0.00423535
0.00390854
0.00550284
0.00547173
0.00540023
0.0052891
0.00513951
0.00495305
0.00473171
0.00447784
0.00419413
0.00388365
0.00532371
0.0053006
0.005239
0.00513951
0.00500317
0.00483138
0.00462592
0.00438892
0.00412281
0.00383044
0.0051037
0.00508988
0.00503951
0.00495305
0.00483138
0.00467572
0.00448763
0.00426901
0.00402205
0.00374938
0.0048454
0.00484196
0.00480397
0.00473172
0.00462593
0.00448763
0.00431818
0.00411926
0.0038928
0.0036412
0.0045518
0.00455964
0.00453494
0.00447785
0.00438892
0.00426901
0.00411926
0.00394111
0.00373626
0.0035069
0.00422634
0.00424609
0.00423536
0.00419414
0.00412281
0.00402206
0.0038928
0.00373626
0.0035539
0.00334768
0.00387282
0.00390489
0.00390856
0.00388367
0.00383045
0.00374939
0.00364121
0.00350691
0.00334768
0.00316523
0.00457406
0.00453759
0.00446489
0.00435684
0.00421471
0.00404015
0.00383523
0.00360234
0.00334421
0.00306388
0.00453759
0.00450375
0.00443501
0.00433216
0.00419637
0.00402919
0.00383251
0.00360856
0.00335988
0.00308931
0.00446489
0.00443501
0.00437162
0.00427543
0.00414749
0.00398923
0.00380237
0.00358897
0.00335137
0.00309222
0.00435684
0.00433216
0.00427543
0.00418725
0.00406856
0.00392064
0.00374506
0.00354369
0.00331868
0.00307248
0.00421471
0.00419637
0.0041475
0.00406856
0.00396039
0.00382411
0.00366114
0.00347316
0.00326212
0.00303029
0.00404016
0.00402919
0.00398923
0.00392064
0.00382412
0.00370064
0.00355145
0.00337806
0.00318222
0.00296601
0.00383524
0.00383251
0.00380237
0.00374506
0.00366114
0.00355145
0.00341706
0.0032593
0.00307973
0.00288025
0.00360235
0.00360857
0.00358898
0.00354369
0.00347316
0.00337806
0.00325931
0.00311804
0.00295562
0.00277378
0.00334423
0.00335989
0.00335138
0.00331869
0.00326213
0.00318223
0.00307974
0.00295562
0.00281104
0.00264756
0.0030639
0.00308933
0.00309223
0.0030725
0.0030303
0.00296602
0.00288026
0.00277379
0.00264757
0.00250295
0.00362086
0.00359193
0.00353426
0.00344854
0.00333579
0.00319734
0.00303482
0.00285013
0.00264546
0.0024232
0.00359193
0.00356508
0.00351055
0.00342896
0.00332125
0.00318865
0.00303266
0.00285506
0.00265788
0.00244337
0.00353426
0.00351055
0.00346026
0.00338396
0.00328248
0.00315695
0.00300875
0.00283953
0.00265113
0.00244567
0.00344854
0.00342896
0.00338396
0.00331401
0.00321987
0.00310255
0.0029633
0.00280362
0.00262521
0.00243003
0.0033358
0.00332125
0.00328248
0.00321988
0.00313408
0.003026
0.00289676
0.00274769
0.00258037
0.00239657
0.00319735
0.00318865
0.00315696
0.00310255
0.003026
0.00292808
0.00280977
0.00267229
0.00251702
0.00234562
0.00303483
0.00303267
0.00300876
0.00296331
0.00289676
0.00280977
0.00270321
0.00257813
0.00243577
0.00227764
0.00285014
0.00285507
0.00283953
0.00280363
0.0027477
0.00267229
0.00257813
0.00246614
0.00233738
0.00219325
0.00264547
0.00265789
0.00265114
0.00262522
0.00258037
0.00251703
0.00243577
0.00233738
0.00222278
0.00209321
0.00242322
0.00244339
0.00244569
0.00243004
0.00239659
0.00234563
0.00227765
0.00219325
0.00209321
0.0019786
0.00286545
0.0028425
0.00279676
0.00272878
0.00263936
0.00252957
0.00240069
0.00225425
0.00209198
0.00191579
0.0028425
0.00282121
0.00277796
0.00271325
0.00262783
0.00252267
0.00239898
0.00225816
0.00210182
0.00193177
0.00279676
0.00277796
0.00273807
0.00267756
0.00259708
0.00249754
0.00238002
0.00224584
0.00209647
0.0019336
0.00272878
0.00271325
0.00267756
0.00262209
0.00254743
0.0024544
0.00234398
0.00221737
0.00207592
0.00192119
0.00263937
0.00262783
0.00259708
0.00254743
0.0024794
0.0023937
0.00229122
0.00217303
0.00204037
0.00189467
0.00252957
0.00252267
0.00249754
0.0024544
0.0023937
0.00231605
0.00222225
0.00211325
0.00199015
0.00185428
0.0024007
0.00239898
0.00238003
0.00234399
0.00229122
0.00222225
0.00213776
0.0020386
0.00192574
0.00180039
0.00225426
0.00225817
0.00224585
0.00221738
0.00217304
0.00211325
0.0020386
0.00194981
0.00184775
0.0017335
0.00209199
0.00210184
0.00209648
0.00207593
0.00204038
0.00199016
0.00192574
0.00184775
0.00175691
0.00165421
0.00191581
0.00193179
0.00193361
0.00192121
0.00189469
0.00185429
0.0018004
0.0017335
0.00165421
0.00156337
0.00226692
0.00224872
0.00221245
0.00215854
0.00208763
0.00200057
0.00189838
0.00178227
0.00165361
0.00151393
0.00224872
0.00223183
0.00219753
0.00214622
0.00207849
0.0019951
0.00189702
0.00178537
0.00166142
0.0015266
0.00221245
0.00219753
0.00216591
0.00211792
0.0020541
0.00197517
0.00188199
0.0017756
0.00165718
0.00152805
0.00215854
0.00214622
0.00211792
0.00207393
0.00201474
0.00194096
0.00185341
0.00175303
0.00164088
0.00151821
0.00208763
0.00207849
0.00205411
0.00201474
0.00196079
0.00189283
0.00181158
0.00171787
0.0016127
0.00149719
0.00200057
0.0019951
0.00197517
0.00194097
0.00189283
0.00183127
0.00175689
0.00167047
0.00157288
0.00146517
0.00189839
0.00189703
0.001882
0.00185342
0.00181158
0.0017569
0.00168991
0.00161129
0.00152181
0.00142244
0.00178228
0.00178538
0.00177561
0.00175304
0.00171788
0.00167048
0.00161129
0.0015409
0.00145998
0.00136941
0.00165363
0.00166143
0.00165719
0.00164089
0.0016127
0.00157289
0.00152182
0.00145998
0.00138797
0.00130655
0.00151395
0.00152662
0.00152806
0.00151823
0.0014972
0.00146518
0.00142245
0.00136942
0.00130655
0.00123454
0.0017928
0.00177837
0.00174961
0.00170686
0.00165064
0.0015816
0.00150057
0.00140851
0.0013065
0.00119574