/*--------------------------------*- C++ -*----------------------------------*\
| =========                 |                                                 |
| \\      /  F ield         | foam-extend: Open Source CFD                    |
|  \\    /   O peration     | Version:     3.1                                |
|   \\  /    A nd           | Web:         http://www.extend-project.de       |
|    \\/     M anipulation  |                                                 |
\*---------------------------------------------------------------------------*/
FoamFile
{
    version     2.0;
    format      ascii;
    class       surfaceScalarField;
    location    "0.0002";
    object      phi;
}
// * * * * * * * * * * * * * * * * * * * * * * * * * * * * * * * * * * * * * //

dimensions      [0 3 -1 0 0 0 0];

internalField   nonuniform List<scalar> 
45800
(
5.65071e-11
5.64954e-11
6.41282e-09
1.12893e-10
5.71482e-11
6.33291e-09
1.71004e-10
5.84996e-11
6.28472e-09
2.32705e-10
6.05693e-11
6.26846e-09
3.00103e-10
6.34345e-11
6.2853e-09
3.75723e-10
6.72269e-11
6.33741e-09
4.62698e-10
7.21333e-11
6.42822e-09
5.65029e-10
7.84202e-11
6.56264e-09
6.8791e-10
8.6479e-11
6.74742e-09
9.68714e-11
6.99159e-09
8.38144e-10
5.71596e-11
1.12887e-10
6.33289e-09
1.14032e-10
1.1402e-10
6.25006e-09
1.72435e-10
1.16482e-10
6.19755e-09
2.34211e-10
1.20334e-10
6.17541e-09
3.01398e-10
1.25698e-10
6.18462e-09
3.76403e-10
1.32797e-10
6.22709e-09
4.62196e-10
1.41953e-10
6.30582e-09
5.62568e-10
1.53614e-10
6.42512e-09
6.82486e-10
1.68393e-10
6.59094e-09
1.87202e-10
6.81107e-09
8.28598e-10
5.85042e-11
1.71007e-10
6.2847e-09
1.16494e-10
1.72432e-10
6.19753e-09
1.75779e-10
1.75768e-10
6.13967e-09
2.38202e-10
1.81135e-10
6.11097e-09
3.05774e-10
1.88696e-10
6.11218e-09
3.80823e-10
1.98729e-10
6.14495e-09
4.66186e-10
2.11651e-10
6.21191e-09
5.65467e-10
2.2804e-10
6.31683e-09
6.83356e-10
2.48643e-10
6.46496e-09
2.74737e-10
6.66301e-09
8.26013e-10
6.05676e-11
2.3271e-10
6.26846e-09
1.20337e-10
2.34214e-10
6.17539e-09
1.81145e-10
2.38199e-10
6.11095e-09
2.44837e-10
2.44826e-10
6.07482e-09
3.13417e-10
2.54311e-10
6.0675e-09
3.8917e-10
2.66982e-10
6.09034e-09
4.74834e-10
2.83313e-10
6.14561e-09
5.73831e-10
3.03973e-10
6.23665e-09
6.90558e-10
3.29793e-10
6.36805e-09
3.62509e-10
6.54556e-09
8.30607e-10
6.34315e-11
3.00106e-10
6.2853e-09
1.25694e-10
3.01401e-10
6.18462e-09
1.88698e-10
3.05776e-10
6.11217e-09
2.54322e-10
3.13413e-10
6.06748e-09
3.2457e-10
3.24556e-10
6.05084e-09
4.01697e-10
3.39592e-10
6.06329e-09
4.88374e-10
3.59056e-10
6.10672e-09
5.87863e-10
3.83664e-10
6.18404e-09
7.04273e-10
4.14286e-10
6.2993e-09
4.53213e-10
6.45736e-09
8.42652e-10
6.72239e-11
3.75725e-10
6.33742e-09
1.32791e-10
3.76405e-10
6.2271e-09
1.98723e-10
3.80826e-10
6.14495e-09
2.66983e-10
3.89171e-10
6.09032e-09
3.39606e-10
4.0169e-10
6.06326e-09
4.18832e-10
4.18809e-10
6.06456e-09
5.07263e-10
4.41142e-10
6.09572e-09
6.08036e-10
4.69462e-10
6.15917e-09
7.24993e-10
5.04632e-10
6.25849e-09
5.4958e-10
6.39775e-09
8.6264e-10
7.21304e-11
4.62698e-10
6.42823e-09
1.41947e-10
4.62197e-10
6.30582e-09
2.11643e-10
4.66188e-10
6.21192e-09
2.83305e-10
4.74837e-10
6.14561e-09
3.59056e-10
4.88377e-10
6.1067e-09
4.41165e-10
5.07257e-10
6.09567e-09
5.3218e-10
5.32158e-10
6.11375e-09
6.35115e-10
5.63972e-10
6.16285e-09
7.53558e-10
6.03592e-10
6.24599e-09
6.5465e-10
6.36663e-09
8.91407e-10
7.84175e-11
5.65028e-10
6.56265e-09
1.53609e-10
5.62567e-10
6.42512e-09
2.28033e-10
5.65468e-10
6.31684e-09
3.03963e-10
5.73835e-10
6.23665e-09
3.83653e-10
5.87873e-10
6.18403e-09
4.69472e-10
6.08051e-10
6.15912e-09
5.63997e-10
6.35125e-10
6.1628e-09
6.7017e-10
6.70163e-10
6.19655e-09
7.91256e-10
7.14248e-10
6.26286e-09
7.72015e-10
6.36455e-09
9.30284e-10
8.64766e-11
6.87906e-10
6.74743e-09
1.68388e-10
6.82483e-10
6.59095e-09
2.48637e-10
6.83355e-10
6.46496e-09
3.29786e-10
6.9056e-10
6.36805e-09
4.14279e-10
7.04281e-10
6.2993e-09
5.04637e-10
7.25009e-10
6.25847e-09
6.03606e-10
7.53576e-10
6.24597e-09
7.1426e-10
7.91262e-10
6.26284e-09
8.39676e-10
8.3967e-10
6.31101e-09
9.055e-10
6.3925e-09
9.81623e-10
9.68695e-11
6.99159e-09
8.38139e-10
1.87199e-10
6.81107e-09
8.28594e-10
2.74733e-10
6.66301e-09
8.2601e-10
3.62505e-10
6.54556e-09
8.30608e-10
4.53211e-10
6.45737e-09
8.42656e-10
5.49583e-10
6.39775e-09
8.62647e-10
6.54652e-10
6.36664e-09
8.91416e-10
7.72019e-10
6.36454e-09
9.30294e-10
9.05511e-10
6.39247e-09
9.81633e-10
6.4521e-09
1.05598e-09
1.05598e-09
1.69466e-10
1.69455e-10
6.0739e-09
3.38172e-10
1.71194e-10
5.99301e-09
5.11342e-10
1.74718e-10
5.93683e-09
6.94383e-10
1.80176e-10
5.90524e-09
8.9337e-10
1.87793e-10
5.89852e-09
1.1155e-09
1.97913e-10
5.91737e-09
1.36965e-09
2.11027e-10
5.96305e-09
1.66706e-09
2.27849e-10
6.03738e-09
2.02225e-09
2.49446e-10
6.14279e-09
2.77285e-10
6.28224e-09
2.45431e-09
1.71203e-10
3.38166e-10
5.99298e-09
3.41317e-10
3.41305e-10
5.90983e-09
5.15437e-10
3.47886e-10
5.85026e-09
6.98835e-10
3.58199e-10
5.81399e-09
8.97376e-10
3.72642e-10
5.80123e-09
1.11795e-09
3.9183e-10
5.8126e-09
1.36899e-09
4.16636e-10
5.84917e-09
1.66118e-09
4.48292e-10
5.91248e-09
2.00844e-09
4.88511e-10
6.00461e-09
5.39799e-10
6.12796e-09
2.42904e-09
1.74721e-10
5.11345e-10
5.9368e-09
3.47895e-10
5.15433e-10
5.85022e-09
5.24549e-10
5.24538e-10
5.78636e-09
7.09868e-10
5.39095e-10
5.74476e-09
9.09583e-10
5.59636e-10
5.72547e-09
1.13035e-09
5.86978e-10
5.72904e-09
1.38027e-09
6.22292e-10
5.75634e-09
1.66951e-09
6.67201e-10
5.80868e-09
2.01131e-09
7.23848e-10
5.88783e-09
7.95829e-10
5.99574e-09
2.42254e-09
1.80173e-10
6.94388e-10
5.90524e-09
3.58199e-10
6.98838e-10
5.81396e-09
5.39102e-10
7.09863e-10
5.74473e-09
7.28027e-10
7.28016e-10
5.69698e-09
9.3062e-10
7.53952e-10
5.67059e-09
1.15338e-09
7.88643e-10
5.66591e-09
1.40412e-09
8.33483e-10
5.68368e-09
1.69258e-09
8.90402e-10
5.72499e-09
2.03129e-09
9.61854e-10
5.79133e-09
1.05278e-09
5.88425e-09
2.43565e-09
1.8779e-10
8.93374e-10
5.89853e-09
3.72638e-10
8.9738e-10
5.80123e-09
5.59634e-10
9.09584e-10
5.72545e-09
7.53959e-10
9.30612e-10
5.67056e-09
9.61219e-10
9.61204e-10
5.63633e-09
1.1878e-09
1.00248e-09
5.62287e-09
1.4413e-09
1.056e-09
5.6307e-09
1.73108e-09
1.12393e-09
5.66074e-09
2.06906e-09
1.20893e-09
5.71425e-09
1.31758e-09
5.7924e-09
2.46922e-09
1.97911e-10
1.11551e-09
5.91737e-09
3.91825e-10
1.11795e-09
5.81261e-09
5.86972e-10
1.13036e-09
5.72903e-09
7.88639e-10
1.15338e-09
5.66589e-09
1.00248e-09
1.18779e-09
5.62284e-09
1.23484e-09
1.23481e-09
5.59987e-09
1.49311e-09
1.2962e-09
5.59725e-09
1.78634e-09
1.37427e-09
5.6156e-09
2.12594e-09
1.4718e-09
5.656e-09
1.59737e-09
5.71934e-09
2.52456e-09
2.11025e-10
1.36965e-09
5.96306e-09
4.16632e-10
1.36899e-09
5.84918e-09
6.22285e-10
1.38027e-09
5.75635e-09
8.33473e-10
1.40413e-09
5.68368e-09
1.05599e-09
1.4413e-09
5.63067e-09
1.2962e-09
1.49309e-09
5.59718e-09
1.56141e-09
1.56139e-09
5.58334e-09
1.86037e-09
1.64874e-09
5.58943e-09
2.20401e-09
1.75795e-09
5.6162e-09
1.89991e-09
5.66442e-09
2.60368e-09
2.27847e-10
1.66706e-09
6.03739e-09
4.48289e-10
1.66118e-09
5.91249e-09
6.67196e-10
1.66951e-09
5.80869e-09
8.90395e-10
1.69259e-09
5.72499e-09
1.12391e-09
1.73109e-09
5.66073e-09
1.37426e-09
1.78634e-09
5.61552e-09
1.64875e-09
1.86035e-09
5.58935e-09
1.95592e-09
1.9559e-09
5.58222e-09
2.30619e-09
2.0759e-09
5.59464e-09
2.23406e-09
5.62717e-09
2.70941e-09
2.49445e-10
2.02225e-09
6.14279e-09
4.88509e-10
2.00844e-09
6.00462e-09
7.23845e-10
2.01131e-09
5.88783e-09
9.61851e-10
2.03129e-09
5.79134e-09
1.20892e-09
2.06906e-09
5.71425e-09
1.4718e-09
2.12595e-09
5.65598e-09
1.75795e-09
2.20401e-09
5.61617e-09
2.0759e-09
2.30618e-09
5.59461e-09
2.43565e-09
2.43564e-09
5.59152e-09
2.60927e-09
5.60708e-09
2.84586e-09
2.77284e-10
6.28225e-09
2.45431e-09
5.39797e-10
6.12796e-09
2.42903e-09
7.95828e-10
5.99575e-09
2.42254e-09
1.05277e-09
5.88426e-09
2.43565e-09
1.31758e-09
5.7924e-09
2.46922e-09
1.59737e-09
5.71934e-09
2.52456e-09
1.89991e-09
5.66444e-09
2.60368e-09
2.23405e-09
5.62716e-09
2.70942e-09
2.60927e-09
5.60704e-09
2.84586e-09
5.60433e-09
3.03316e-09
3.03315e-09
2.59432e-10
2.59426e-10
5.55505e-09
5.16859e-10
2.61815e-10
5.47377e-09
7.79411e-10
2.66609e-10
5.40767e-09
1.05441e-09
2.74025e-10
5.35622e-09
1.34989e-09
2.84349e-10
5.31869e-09
1.67513e-09
2.97989e-10
5.29413e-09
2.04124e-09
3.15531e-10
5.28141e-09
2.46187e-09
3.37824e-10
5.27893e-09
2.95414e-09
3.66143e-10
5.28437e-09
4.02208e-10
5.2942e-09
3.53998e-09
2.61819e-10
5.16855e-10
5.47373e-09
5.21204e-10
5.21197e-10
5.39106e-09
7.851e-10
5.30167e-10
5.3228e-09
1.06062e-09
5.44172e-10
5.26832e-09
1.35553e-09
5.63715e-10
5.22696e-09
1.67871e-09
5.89539e-10
5.19787e-09
2.04077e-09
6.22682e-10
5.17996e-09
2.45472e-09
6.64603e-10
5.17176e-09
2.93705e-09
7.17315e-10
5.17111e-09
7.83716e-10
5.17469e-09
3.5088e-09
2.66607e-10
7.79412e-10
5.40763e-09
5.30169e-10
7.85095e-10
5.32276e-09
7.97525e-10
7.97517e-10
5.25166e-09
1.07564e-09
8.1726e-10
5.19355e-09
1.37208e-09
8.44985e-10
5.14776e-09
1.69544e-09
8.81682e-10
5.11353e-09
2.05589e-09
9.28748e-10
5.08982e-09
2.46587e-09
9.88088e-10
5.07522e-09
2.94109e-09
1.06219e-09
5.06773e-09
1.15521e-09
5.06429e-09
3.50106e-09
2.74023e-10
1.05441e-09
5.35622e-09
5.44168e-10
1.06062e-09
5.26829e-09
8.1726e-10
1.07563e-09
5.19352e-09
1.10019e-09
1.10018e-09
5.13113e-09
1.40037e-09
1.13505e-09
5.08034e-09
1.72618e-09
1.18141e-09
5.04036e-09
2.08745e-09
1.24092e-09
5.01024e-09
2.49606e-09
1.31584e-09
4.98862e-09
2.96694e-09
1.40899e-09
4.97365e-09
1.52611e-09
4.96246e-09
3.51784e-09
2.84348e-10
1.34989e-09
5.3187e-09
5.63711e-10
1.35553e-09
5.22696e-09
8.44978e-10
1.37208e-09
5.14774e-09
1.13505e-09
1.40036e-09
5.08031e-09
1.44128e-09
1.44126e-09
5.02389e-09
1.77185e-09
1.4961e-09
4.97762e-09
2.13629e-09
1.56671e-09
4.94048e-09
2.54604e-09
1.65559e-09
4.91123e-09
3.01532e-09
1.76582e-09
4.88815e-09
1.9051e-09
4.86853e-09
3.56019e-09
2.97988e-10
1.67513e-09
5.29414e-09
5.89537e-10
1.67871e-09
5.19788e-09
8.81676e-10
1.69544e-09
5.11353e-09
1.1814e-09
1.72618e-09
5.04034e-09
1.4961e-09
1.77183e-09
4.97758e-09
1.83385e-09
1.83382e-09
4.9244e-09
2.20392e-09
1.91418e-09
4.87971e-09
2.61733e-09
2.01555e-09
4.84223e-09
3.08771e-09
2.14109e-09
4.81035e-09
2.30095e-09
4.78163e-09
3.62958e-09
3.1553e-10
2.04124e-09
5.28142e-09
6.22681e-10
2.04077e-09
5.17997e-09
9.28745e-10
2.0559e-09
5.08983e-09
1.24091e-09
2.08745e-09
5.01024e-09
1.56668e-09
2.13628e-09
4.94044e-09
1.91417e-09
2.20388e-09
4.87964e-09
2.29245e-09
2.29243e-09
4.8268e-09
2.71216e-09
2.40476e-09
4.78051e-09
3.18635e-09
2.54395e-09
4.73916e-09
2.72297e-09
4.70065e-09
3.72809e-09
3.37824e-10
2.46187e-09
5.27894e-09
6.64602e-10
2.45472e-09
5.17176e-09
9.88087e-10
2.46587e-09
5.07522e-09
1.31584e-09
2.49606e-09
4.98863e-09
1.65558e-09
2.54605e-09
4.91122e-09
2.01552e-09
2.61731e-09
4.84215e-09
2.40474e-09
2.71213e-09
4.78043e-09
2.83354e-09
2.83353e-09
4.72465e-09
3.31434e-09
2.9846e-09
4.67318e-09
3.18167e-09
4.62421e-09
3.85861e-09
3.66143e-10
2.95415e-09
5.28438e-09
7.17315e-10
2.93705e-09
5.17112e-09
1.06219e-09
2.94109e-09
5.06774e-09
1.40899e-09
2.96694e-09
4.97366e-09
1.76582e-09
3.01532e-09
4.88815e-09
2.14108e-09
3.08771e-09
4.81033e-09
2.54392e-09
3.18634e-09
4.73913e-09
2.98458e-09
3.31432e-09
4.67316e-09
3.47493e-09
3.47492e-09
4.61085e-09
3.688e-09
4.55045e-09
4.02523e-09
4.02208e-10
5.2942e-09
3.53998e-09
7.83717e-10
5.1747e-09
3.5088e-09
1.15521e-09
5.06429e-09
3.50106e-09
1.52611e-09
4.96246e-09
3.51784e-09
1.9051e-09
4.86853e-09
3.56019e-09
2.30095e-09
4.78163e-09
3.62958e-09
2.72297e-09
4.70066e-09
3.72809e-09
3.18165e-09
4.6242e-09
3.85861e-09
3.68798e-09
4.55042e-09
4.02521e-09
4.4778e-09
4.25126e-09
4.25125e-09
3.16314e-10
3.16311e-10
4.92242e-09
6.28791e-10
3.18768e-10
4.84253e-09
9.44668e-10
3.23638e-10
4.76815e-09
1.2712e-09
3.31141e-10
4.69855e-09
1.61606e-09
3.41505e-10
4.63232e-09
1.98768e-09
3.55046e-10
4.56747e-09
2.39558e-09
3.7221e-10
4.5013e-09
2.85072e-09
3.9363e-10
4.43015e-09
3.36582e-09
4.20253e-10
4.34902e-09
4.53242e-10
4.25098e-09
3.95579e-09
3.18767e-10
6.28788e-10
4.84249e-09
6.33263e-10
6.3326e-10
4.76208e-09
9.50518e-10
6.42369e-10
4.68682e-09
1.27757e-09
6.56505e-10
4.61591e-09
1.62183e-09
6.76076e-10
4.54813e-09
1.99139e-09
7.0166e-10
4.48169e-09
2.39537e-09
7.34037e-10
4.41415e-09
2.84431e-09
7.7428e-10
4.34217e-09
3.35062e-09
8.2382e-10
4.26123e-09
8.84594e-10
4.16507e-09
3.9289e-09
3.23634e-10
9.44668e-10
4.76812e-09
6.42364e-10
9.50513e-10
4.68678e-09
9.63089e-10
9.63085e-10
4.61022e-09
1.29266e-09
9.82926e-10
4.53756e-09
1.63829e-09
1.01056e-09
4.46766e-09
2.0078e-09
1.04674e-09
4.39894e-09
2.40997e-09
1.09252e-09
4.32917e-09
2.85489e-09
1.14928e-09
4.2553e-09
3.35449e-09
1.2187e-09
4.17325e-09
1.30363e-09
4.07738e-09
3.92236e-09
3.31139e-10
1.2712e-09
4.69855e-09
6.56497e-10
1.27757e-09
4.61588e-09
9.82919e-10
1.29265e-09
4.53753e-09
1.31715e-09
1.31714e-09
4.46268e-09
1.66622e-09
1.35164e-09
4.39019e-09
2.03773e-09
1.39702e-09
4.31857e-09
2.44016e-09
1.4545e-09
4.24584e-09
2.88316e-09
1.52569e-09
4.16921e-09
3.3781e-09
1.61245e-09
4.08497e-09
1.71883e-09
3.98808e-09
3.93728e-09
3.41505e-10
1.61607e-09
4.63233e-09
6.76073e-10
1.62183e-09
4.54813e-09
1.01054e-09
1.63828e-09
4.46764e-09
1.35163e-09
1.66621e-09
4.39016e-09
1.70626e-09
1.70625e-09
4.31465e-09
2.08182e-09
1.75938e-09
4.23969e-09
2.48651e-09
1.8269e-09
4.16339e-09
2.9296e-09
1.91058e-09
4.08326e-09
3.42191e-09
2.01234e-09
3.99594e-09
2.13786e-09
3.89692e-09
3.97449e-09
3.55046e-10
1.98768e-09
4.56748e-09
7.0166e-10
1.99139e-09
4.4817e-09
1.04673e-09
2.0078e-09
4.39894e-09
1.397e-09
2.03772e-09
4.31855e-09
1.75937e-09
2.0818e-09
4.23966e-09
2.1411e-09
2.14107e-09
4.16098e-09
2.55008e-09
2.21694e-09
4.08069e-09
2.99523e-09
2.31118e-09
3.99647e-09
3.48691e-09
2.42571e-09
3.9053e-09
2.56817e-09
3.80325e-09
4.03498e-09
3.7221e-10
2.39558e-09
4.50131e-09
7.34038e-10
2.39538e-09
4.41416e-09
1.09252e-09
2.40997e-09
4.32917e-09
1.45449e-09
2.44016e-09
4.24584e-09
1.82687e-09
2.4865e-09
4.16336e-09
2.21691e-09
2.55004e-09
4.08063e-09
2.63232e-09
2.63229e-09
3.99605e-09
3.08156e-09
2.7351e-09
3.90735e-09
3.57452e-09
2.86014e-09
3.81177e-09
3.01737e-09
3.70595e-09
4.12002e-09
3.93631e-10
2.85072e-09
4.43016e-09
7.74281e-10
2.84431e-09
4.34218e-09
1.14928e-09
2.85489e-09
4.25531e-09
1.52569e-09
2.88316e-09
4.16921e-09
1.91057e-09
2.9296e-09
4.08325e-09
2.31114e-09
2.99521e-09
3.99641e-09
2.73506e-09
3.08152e-09
3.90729e-09
3.19049e-09
3.19048e-09
3.81384e-09
3.68667e-09
3.32364e-09
3.7135e-09
3.49359e-09
3.60343e-09
4.23124e-09
4.20254e-10
3.36582e-09
4.34903e-09
8.23822e-10
3.35063e-09
4.26124e-09
1.21871e-09
3.35449e-09
4.17325e-09
1.61246e-09
3.3781e-09
4.08498e-09
2.01235e-09
3.42191e-09
3.99594e-09
2.4257e-09
3.48691e-09
3.90529e-09
2.8601e-09
3.5745e-09
3.81174e-09
3.32361e-09
3.68665e-09
3.71348e-09
3.82496e-09
3.82495e-09
3.6082e-09
4.00459e-09
3.49346e-09
4.37094e-09
4.53243e-10
4.25099e-09
3.95579e-09
8.84596e-10
4.16507e-09
3.9289e-09
1.30363e-09
4.07738e-09
3.92236e-09
1.71884e-09
3.98808e-09
3.93728e-09
2.13787e-09
3.89692e-09
3.97449e-09
2.56817e-09
3.80325e-09
4.03498e-09
3.01737e-09
3.70596e-09
4.12002e-09
3.49356e-09
3.60342e-09
4.23123e-09
4.00457e-09
3.49344e-09
4.37092e-09
3.37389e-09
4.55654e-09
4.55653e-09
3.39021e-10
3.39021e-10
4.24438e-09
6.72189e-10
3.41084e-10
4.16827e-09
1.00545e-09
3.45108e-10
4.08978e-09
1.34456e-09
3.51257e-10
4.00819e-09
1.69523e-09
3.59654e-10
3.922e-09
2.06326e-09
3.70445e-10
3.829e-09
2.45453e-09
3.83831e-10
3.7262e-09
2.87492e-09
4.0009e-10
3.60967e-09
3.33005e-09
4.19635e-10
3.47426e-09
4.42815e-10
3.31333e-09
3.82488e-09
3.4108e-10
6.72187e-10
4.16824e-09
6.75941e-10
6.75941e-10
4.09236e-09
1.01034e-09
6.83446e-10
4.01408e-09
1.34984e-09
6.94989e-10
3.93267e-09
1.69998e-09
7.10785e-10
3.84686e-09
2.06634e-09
7.31107e-10
3.75467e-09
2.45461e-09
7.56292e-10
3.65342e-09
2.87053e-09
7.86786e-10
3.53955e-09
3.31983e-09
8.2312e-10
3.40844e-09
8.65848e-10
3.25411e-09
3.80776e-09
3.45101e-10
1.00545e-09
4.08975e-09
6.83438e-10
1.01034e-09
4.01405e-09
1.02063e-09
1.02063e-09
3.93584e-09
1.36206e-09
1.03672e-09
3.8544e-09
1.71309e-09
1.05886e-09
3.76856e-09
2.07915e-09
1.0874e-09
3.67659e-09
2.46571e-09
1.12278e-09
3.57611e-09
2.87835e-09
1.16555e-09
3.4639e-09
3.3227e-09
1.21621e-09
3.3358e-09
1.27567e-09
3.18651e-09
3.80374e-09
3.51255e-10
1.34456e-09
4.00818e-09
6.9498e-10
1.34984e-09
3.93265e-09
1.03671e-09
1.36205e-09
3.85438e-09
1.3817e-09
1.38169e-09
3.77271e-09
1.73514e-09
1.40903e-09
3.68656e-09
2.10229e-09
1.44444e-09
3.59438e-09
2.48846e-09
1.48841e-09
3.49405e-09
2.89898e-09
1.54154e-09
3.38269e-09
3.33928e-09
1.60429e-09
3.2566e-09
1.67819e-09
3.11106e-09
3.81377e-09
3.59654e-10
1.69524e-09
3.922e-09
7.10783e-10
1.69998e-09
3.84686e-09
1.05884e-09
1.71309e-09
3.76854e-09
1.40902e-09
1.73513e-09
3.68654e-09
1.7664e-09
1.76639e-09
3.59992e-09
2.13602e-09
1.80723e-09
3.50727e-09
2.52302e-09
1.85815e-09
3.40666e-09
2.93252e-09
1.91974e-09
3.29556e-09
3.36969e-09
1.99238e-09
3.17068e-09
2.07851e-09
3.02791e-09
3.83837e-09
3.70446e-10
2.06326e-09
3.829e-09
7.31108e-10
2.06634e-09
3.75468e-09
1.08739e-09
2.07915e-09
3.67659e-09
1.44442e-09
2.10229e-09
3.59437e-09
1.80722e-09
2.136e-09
3.50725e-09
2.18071e-09
2.18069e-09
3.41403e-09
2.56977e-09
2.23683e-09
3.31295e-09
2.97929e-09
2.30494e-09
3.20174e-09
3.41423e-09
2.38523e-09
3.07752e-09
2.48134e-09
2.93677e-09
3.87788e-09
3.83832e-10
2.45453e-09
3.72621e-09
7.56294e-10
2.45461e-09
3.65343e-09
1.12278e-09
2.46571e-09
3.57612e-09
1.4884e-09
2.48846e-09
3.49405e-09
1.85812e-09
2.52301e-09
3.40664e-09
2.2368e-09
2.56973e-09
3.31291e-09
2.62916e-09
2.62914e-09
3.21138e-09
3.03977e-09
2.70172e-09
3.09996e-09
3.47329e-09
2.78738e-09
2.97609e-09
2.8911e-09
2.83689e-09
3.93258e-09
4.00091e-10
2.87493e-09
3.60968e-09
7.86788e-10
2.87053e-09
3.53956e-09
1.16555e-09
2.87835e-09
3.4639e-09
1.54155e-09
2.89899e-09
3.38269e-09
1.91973e-09
2.93252e-09
3.29556e-09
2.3049e-09
2.97927e-09
3.2017e-09
2.70168e-09
3.03973e-09
3.09992e-09
3.11442e-09
3.11441e-09
2.98842e-09
3.54733e-09
3.20304e-09
2.86493e-09
3.31205e-09
2.7271e-09
4.00271e-09
4.19637e-10
3.33005e-09
3.47427e-09
8.23123e-10
3.31984e-09
3.40844e-09
1.21622e-09
3.3227e-09
3.33581e-09
1.6043e-09
3.33928e-09
3.2566e-09
1.99239e-09
3.36969e-09
3.17069e-09
2.38522e-09
3.41422e-09
3.07751e-09
2.78734e-09
3.47327e-09
2.97607e-09
3.20301e-09
3.54731e-09
2.86491e-09
3.63608e-09
3.63607e-09
2.7421e-09
3.74729e-09
2.60575e-09
4.08855e-09
4.42816e-10
3.31334e-09
3.82489e-09
8.6585e-10
3.25411e-09
3.80776e-09
1.27568e-09
3.18651e-09
3.80375e-09
1.67819e-09
3.11107e-09
3.81378e-09
2.07851e-09
3.02792e-09
3.83837e-09
2.48134e-09
2.93677e-09
3.87788e-09
2.8911e-09
2.83689e-09
3.93258e-09
3.31203e-09
2.72709e-09
4.00271e-09
3.74727e-09
2.60573e-09
4.08853e-09
2.47119e-09
4.19863e-09
4.19863e-09
3.33125e-10
3.33127e-10
3.57813e-09
6.58705e-10
3.34569e-10
3.50812e-09
9.80758e-10
3.37304e-10
3.43042e-09
1.30294e-09
3.41437e-10
3.34457e-09
1.62856e-09
3.46985e-10
3.24939e-09
1.96048e-09
3.53946e-10
3.14313e-09
2.30094e-09
3.62311e-10
3.02343e-09
2.65127e-09
3.72068e-10
2.88728e-09
3.01133e-09
3.83212e-10
2.73099e-09
3.95508e-10
2.55013e-09
3.37902e-09
3.34564e-10
6.58704e-10
3.5081e-09
6.61321e-10
6.61322e-10
3.43885e-09
9.84146e-10
6.66402e-10
3.36215e-09
1.30657e-09
6.74117e-10
3.27757e-09
1.63179e-09
6.84495e-10
3.18412e-09
1.96261e-09
6.97539e-10
3.08026e-09
2.30125e-09
7.13212e-10
2.96388e-09
2.64913e-09
7.31451e-10
2.83229e-09
3.0065e-09
7.52105e-10
2.68217e-09
7.74748e-10
2.50956e-09
3.37181e-09
3.37298e-10
9.80757e-10
3.4304e-09
6.66394e-10
9.84142e-10
3.36213e-09
9.91038e-10
9.91038e-10
3.28656e-09
1.31462e-09
1.00168e-09
3.20326e-09
1.64024e-09
1.01607e-09
3.11136e-09
1.97061e-09
1.0342e-09
3.00956e-09
2.30793e-09
1.05601e-09
2.896e-09
2.65365e-09
1.08135e-09
2.76828e-09
3.00821e-09
1.10989e-09
2.62345e-09
1.14112e-09
2.45802e-09
3.37033e-09
3.41435e-10
1.30294e-09
3.34457e-09
6.74108e-10
1.30656e-09
3.27756e-09
1.00167e-09
1.31461e-09
3.20324e-09
1.3274e-09
1.32739e-09
3.12127e-09
1.65426e-09
1.34488e-09
3.03089e-09
1.98489e-09
1.36701e-09
2.93094e-09
2.32142e-09
1.39368e-09
2.81984e-09
2.66528e-09
1.4247e-09
2.69548e-09
3.017e-09
1.45951e-09
2.55526e-09
1.49776e-09
2.39614e-09
3.37529e-09
3.46986e-10
1.62856e-09
3.2494e-09
6.84493e-10
1.63179e-09
3.18412e-09
1.01606e-09
1.64023e-09
3.11135e-09
1.34487e-09
1.65425e-09
3.03087e-09
1.6738e-09
1.67379e-09
2.94208e-09
2.00535e-09
1.69876e-09
2.84397e-09
2.34156e-09
1.72897e-09
2.73516e-09
2.68385e-09
1.76414e-09
2.61383e-09
3.03275e-09
1.80355e-09
2.47775e-09
1.84716e-09
2.32432e-09
3.38694e-09
3.53947e-10
1.96048e-09
3.14314e-09
6.97541e-10
1.96261e-09
3.08026e-09
1.03419e-09
1.97061e-09
3.00956e-09
1.367e-09
1.98488e-09
2.93093e-09
1.69875e-09
2.00533e-09
2.84396e-09
2.03186e-09
2.03184e-09
2.74784e-09
2.36823e-09
2.06418e-09
2.64136e-09
2.70919e-09
2.10194e-09
2.52298e-09
3.05529e-09
2.14419e-09
2.39078e-09
2.19137e-09
2.24263e-09
3.40521e-09
3.62312e-10
2.30095e-09
3.02343e-09
7.13214e-10
2.30126e-09
2.96388e-09
1.05601e-09
2.30794e-09
2.896e-09
1.39368e-09
2.32142e-09
2.81984e-09
1.72895e-09
2.34156e-09
2.73514e-09
2.06416e-09
2.3682e-09
2.64134e-09
2.40113e-09
2.40112e-09
2.53746e-09
2.74103e-09
2.43984e-09
2.42217e-09
3.08432e-09
2.48314e-09
2.29385e-09
2.53199e-09
2.15083e-09
3.42976e-09
3.72069e-10
2.65127e-09
2.88729e-09
7.31453e-10
2.64914e-09
2.83229e-09
1.08136e-09
2.65365e-09
2.76828e-09
1.4247e-09
2.66528e-09
2.69548e-09
1.76413e-09
2.68385e-09
2.61383e-09
2.10191e-09
2.70918e-09
2.52295e-09
2.4398e-09
2.741e-09
2.42215e-09
2.77886e-09
2.77886e-09
2.31034e-09
3.11937e-09
2.82139e-09
2.18617e-09
2.87006e-09
2.0484e-09
3.46e-09
3.83213e-10
3.01133e-09
2.73099e-09
7.52108e-10
3.00651e-09
2.68218e-09
1.1099e-09
3.00821e-09
2.62346e-09
1.45952e-09
3.017e-09
2.55526e-09
1.80356e-09
3.03275e-09
2.47776e-09
2.14419e-09
3.05529e-09
2.39077e-09
2.48311e-09
3.08431e-09
2.29383e-09
2.82137e-09
3.11935e-09
2.18616e-09
3.15909e-09
3.15909e-09
2.06669e-09
3.20529e-09
1.93454e-09
3.49507e-09
3.95509e-10
2.55013e-09
3.37902e-09
7.7475e-10
2.50956e-09
3.37181e-09
1.14113e-09
2.45802e-09
3.37033e-09
1.49776e-09
2.39614e-09
3.37529e-09
1.84716e-09
2.32432e-09
3.38694e-09
2.19138e-09
2.24263e-09
3.40521e-09
2.53198e-09
2.15083e-09
3.42976e-09
2.87004e-09
2.04839e-09
3.45999e-09
3.20528e-09
1.93453e-09
3.49506e-09
1.80854e-09
3.53661e-09
3.53661e-09
3.07505e-10
3.07507e-10
2.96312e-09
6.06447e-10
3.08317e-10
2.90086e-09
8.98946e-10
3.09769e-10
2.82815e-09
1.18673e-09
3.1192e-10
2.74487e-09
1.47103e-09
3.14723e-10
2.65036e-09
1.75248e-09
3.18094e-10
2.54359e-09
2.03081e-09
3.2191e-10
2.42318e-09
2.30464e-09
3.26016e-10
2.28744e-09
2.57094e-09
3.30211e-10
2.13447e-09
3.34034e-10
1.96226e-09
2.82478e-09
3.08312e-10
6.06447e-10
2.90085e-09
6.07914e-10
6.07915e-10
2.83965e-09
9.0083e-10
6.10593e-10
2.76841e-09
1.18872e-09
6.14569e-10
2.68704e-09
1.4728e-09
6.1976e-10
2.595e-09
1.7537e-09
6.26015e-10
2.49143e-09
2.03128e-09
6.33102e-10
2.37511e-09
2.30432e-09
6.4071e-10
2.24455e-09
2.57026e-09
6.48397e-10
2.09805e-09
6.55354e-10
1.9338e-09
2.8247e-09
3.09764e-10
8.98945e-10
2.82814e-09
6.10585e-10
9.00827e-10
2.7684e-09
9.044e-10
9.044e-10
2.69894e-09
1.19277e-09
9.09786e-10
2.61967e-09
1.47688e-09
9.16845e-10
2.53017e-09
1.75735e-09
9.25366e-10
2.42973e-09
2.03411e-09
9.3503e-10
2.31732e-09
2.30609e-09
9.45381e-10
2.19163e-09
2.57104e-09
9.55726e-10
2.05117e-09
9.64983e-10
1.8944e-09
2.82503e-09
3.11918e-10
1.18673e-09
2.74487e-09
6.14561e-10
1.18872e-09
2.68702e-09
9.09778e-10
1.19277e-09
2.61966e-09
1.19905e-09
1.19905e-09
2.54274e-09
1.48348e-09
1.20738e-09
2.45593e-09
1.76368e-09
1.21745e-09
2.35865e-09
2.03961e-09
1.22889e-09
2.25005e-09
2.31032e-09
1.24111e-09
2.12904e-09
2.57376e-09
1.2532e-09
1.99434e-09
1.26394e-09
1.84466e-09
2.82628e-09
3.14724e-10
1.47103e-09
2.65036e-09
6.19758e-10
1.4728e-09
2.595e-09
9.16837e-10
1.47687e-09
2.53017e-09
1.20737e-09
1.48347e-09
2.45592e-09
1.49238e-09
1.49238e-09
2.37206e-09
1.77245e-09
1.50325e-09
2.27811e-09
2.04752e-09
1.51559e-09
2.17339e-09
2.31673e-09
1.52873e-09
2.05701e-09
2.5782e-09
1.54157e-09
1.92792e-09
1.55285e-09
1.78509e-09
2.82854e-09
3.18095e-10
1.75248e-09
2.5436e-09
6.26016e-10
1.75371e-09
2.49144e-09
9.25364e-10
1.75735e-09
2.42973e-09
1.21744e-09
1.76368e-09
2.35864e-09
1.50324e-09
1.77244e-09
2.2781e-09
1.78327e-09
1.78326e-09
2.18779e-09
2.05745e-09
1.7956e-09
2.08718e-09
2.32495e-09
1.80867e-09
1.97554e-09
2.58403e-09
1.82119e-09
1.85207e-09
1.83193e-09
1.716e-09
2.83158e-09
3.21911e-10
2.03082e-09
2.42318e-09
6.33104e-10
2.03128e-09
2.37512e-09
9.35032e-10
2.03411e-09
2.31732e-09
1.22889e-09
2.03961e-09
2.25005e-09
1.51557e-09
2.04752e-09
2.17338e-09
1.79559e-09
2.05743e-09
2.08716e-09
2.06881e-09
2.0688e-09
1.99103e-09
2.3344e-09
2.0808e-09
1.88445e-09
2.5907e-09
2.09194e-09
1.76679e-09
2.10101e-09
1.63756e-09
2.83489e-09
3.26017e-10
2.30464e-09
2.28745e-09
6.40712e-10
2.30433e-09
2.24455e-09
9.45384e-10
2.30609e-09
2.19163e-09
1.24111e-09
2.31032e-09
2.12904e-09
1.52872e-09
2.31673e-09
2.057e-09
1.80864e-09
2.32494e-09
1.97553e-09
2.08078e-09
2.33438e-09
1.88444e-09
2.34427e-09
2.34427e-09
1.78338e-09
2.59744e-09
2.35303e-09
1.67191e-09
2.35939e-09
1.54979e-09
2.83767e-09
3.30212e-10
2.57094e-09
2.13448e-09
6.48399e-10
2.57026e-09
2.09805e-09
9.55729e-10
2.57104e-09
2.05118e-09
1.25321e-09
2.57376e-09
1.99435e-09
1.54157e-09
2.5782e-09
1.92792e-09
1.82118e-09
2.58403e-09
1.85207e-09
2.09193e-09
2.59069e-09
1.76678e-09
2.35302e-09
2.59743e-09
1.6719e-09
2.60277e-09
2.60277e-09
1.56719e-09
2.60524e-09
1.45261e-09
2.83885e-09
3.34035e-10
1.96226e-09
2.82478e-09
6.55356e-10
1.93381e-09
2.8247e-09
9.64985e-10
1.89441e-09
2.82503e-09
1.26395e-09
1.84466e-09
2.82628e-09
1.55285e-09
1.78509e-09
2.82854e-09
1.83193e-09
1.716e-09
2.83158e-09
2.10101e-09
1.63756e-09
2.83489e-09
2.35938e-09
1.54979e-09
2.83767e-09
2.60523e-09
1.45261e-09
2.83884e-09
1.34609e-09
2.83646e-09
2.83646e-09
2.7117e-10
2.71171e-10
2.42077e-09
5.33524e-10
2.71474e-10
2.36704e-09
7.87708e-10
2.71914e-10
2.30206e-09
1.03403e-09
2.72521e-10
2.22602e-09
1.27237e-09
2.73231e-10
2.13879e-09
1.50204e-09
2.73934e-10
2.03999e-09
1.7216e-09
2.74489e-10
1.92914e-09
1.92865e-09
2.74714e-10
1.80568e-09
2.11961e-09
2.7439e-10
1.66912e-09
2.73072e-10
1.51915e-09
2.28966e-09
2.7147e-10
5.33524e-10
2.36702e-09
5.34072e-10
5.34073e-10
2.31445e-09
7.88402e-10
5.34867e-10
2.25113e-09
1.03475e-09
5.35952e-10
2.17726e-09
1.27302e-09
5.37209e-10
2.09275e-09
1.50259e-09
5.38449e-10
1.99736e-09
1.72213e-09
5.39404e-10
1.89066e-09
1.92947e-09
5.39731e-10
1.77219e-09
2.12139e-09
5.38987e-10
1.64153e-09
5.36399e-10
1.49842e-09
2.29345e-09
2.7191e-10
7.87707e-10
2.30205e-09
5.34861e-10
7.884e-10
2.25112e-09
7.89399e-10
7.89399e-10
2.18987e-09
1.03577e-09
7.90771e-10
2.11848e-09
1.27387e-09
7.92337e-10
2.03695e-09
1.50312e-09
7.93837e-10
1.9451e-09
1.72231e-09
7.9491e-10
1.84262e-09
1.92944e-09
7.95073e-10
1.72915e-09
2.12159e-09
7.93664e-10
1.60435e-09
7.89609e-10
1.46803e-09
2.29475e-09
2.7252e-10
1.03403e-09
2.22602e-09
5.35946e-10
1.03475e-09
2.17725e-09
7.90765e-10
1.03576e-09
2.11848e-09
1.03717e-09
1.03717e-09
2.04993e-09
1.27505e-09
1.03875e-09
1.97164e-09
1.50383e-09
1.04018e-09
1.88353e-09
1.72239e-09
1.041e-09
1.7854e-09
1.92889e-09
1.04063e-09
1.67699e-09
2.12062e-09
1.03823e-09
1.55805e-09
1.03249e-09
1.42849e-09
2.29391e-09
2.73231e-10
1.27237e-09
2.13879e-09
5.37208e-10
1.27302e-09
2.09275e-09
7.92331e-10
1.27386e-09
2.03694e-09
1.03875e-09
1.27504e-09
1.97163e-09
1.27631e-09
1.2763e-09
1.89695e-09
1.50445e-09
1.27728e-09
1.81287e-09
1.7221e-09
1.27744e-09
1.71929e-09
1.92754e-09
1.27612e-09
1.61608e-09
2.11828e-09
1.27234e-09
1.50308e-09
1.26458e-09
1.38033e-09
2.29094e-09
2.73935e-10
1.50204e-09
2.03999e-09
5.3845e-10
1.50259e-09
1.99736e-09
7.93836e-10
1.50312e-09
1.9451e-09
1.04017e-09
1.50382e-09
1.88353e-09
1.27727e-09
1.50444e-09
1.81286e-09
1.50458e-09
1.50457e-09
1.73319e-09
1.72105e-09
1.50367e-09
1.64448e-09
1.92504e-09
1.50097e-09
1.5467e-09
2.11425e-09
1.49538e-09
1.43981e-09
1.4852e-09
1.32398e-09
2.28565e-09
2.74489e-10
1.7216e-09
1.92914e-09
5.39405e-10
1.72213e-09
1.89066e-09
7.94911e-10
1.72231e-09
1.84262e-09
1.04099e-09
1.72239e-09
1.7854e-09
1.27743e-09
1.7221e-09
1.71929e-09
1.50366e-09
1.72103e-09
1.64447e-09
1.71866e-09
1.71865e-09
1.56104e-09
1.92085e-09
1.71419e-09
1.46904e-09
2.10806e-09
1.7064e-09
1.36855e-09
1.6934e-09
1.25983e-09
2.2776e-09
2.74715e-10
1.92865e-09
1.80568e-09
5.39733e-10
1.92947e-09
1.77219e-09
7.95075e-10
1.92944e-09
1.72915e-09
1.04063e-09
1.92889e-09
1.67699e-09
1.27612e-09
1.92754e-09
1.61607e-09
1.50096e-09
1.92503e-09
1.54669e-09
1.71418e-09
1.92084e-09
1.46903e-09
1.91424e-09
1.91424e-09
1.38326e-09
2.09905e-09
1.90398e-09
1.28953e-09
1.88786e-09
1.18823e-09
2.26614e-09
2.74391e-10
2.11962e-09
1.66912e-09
5.38988e-10
2.12139e-09
1.64153e-09
7.93666e-10
2.12159e-09
1.60435e-09
1.03823e-09
2.12062e-09
1.55805e-09
1.27234e-09
2.11828e-09
1.50308e-09
1.49537e-09
2.11425e-09
1.43981e-09
1.70639e-09
2.10806e-09
1.36854e-09
1.90397e-09
2.09904e-09
1.28953e-09
2.08606e-09
2.08606e-09
1.20303e-09
2.06655e-09
1.10951e-09
2.25046e-09
2.73072e-10
1.51915e-09
2.28966e-09
5.364e-10
1.49842e-09
2.29345e-09
7.89611e-10
1.46803e-09
2.29475e-09
1.03249e-09
1.42849e-09
2.29391e-09
1.26458e-09
1.38033e-09
2.29094e-09
1.48521e-09
1.32398e-09
2.28565e-09
1.69339e-09
1.25983e-09
2.27759e-09
1.88785e-09
1.18823e-09
2.26614e-09
2.06655e-09
1.10951e-09
2.25046e-09
1.02415e-09
2.22752e-09
2.22752e-09
2.31315e-10
2.31316e-10
1.95814e-09
4.54205e-10
2.3128e-10
1.91287e-09
6.68366e-10
2.31057e-10
1.85684e-09
8.73266e-10
2.30671e-10
1.79045e-09
1.06808e-09
2.30063e-10
1.71391e-09
1.25157e-09
2.29141e-10
1.62735e-09
1.42203e-09
2.27789e-10
1.53089e-09
1.57714e-09
2.25868e-10
1.4247e-09
1.71392e-09
2.23215e-10
1.30912e-09
2.195e-10
1.18473e-09
1.82884e-09
2.31277e-10
4.54205e-10
1.91286e-09
4.54142e-10
4.54143e-10
1.86872e-09
6.68279e-10
4.53713e-10
1.81434e-09
8.73167e-10
4.52952e-10
1.75009e-09
1.06802e-09
4.51753e-10
1.67621e-09
1.25168e-09
4.49955e-10
1.59288e-09
1.42255e-09