/*--------------------------------*- C++ -*----------------------------------*\
| =========                 |                                                 |
| \\      /  F ield         | foam-extend: Open Source CFD                    |
|  \\    /   O peration     | Version:     3.1                                |
|   \\  /    A nd           | Web:         http://www.extend-project.de       |
|    \\/     M anipulation  |                                                 |
\*---------------------------------------------------------------------------*/
FoamFile
{
    version     2.0;
    format      ascii;
    class       surfaceScalarField;
    location    "0.0002";
    object      phi_0;
}
// * * * * * * * * * * * * * * * * * * * * * * * * * * * * * * * * * * * * * //

dimensions      [0 3 -1 0 0 0 0];

internalField   nonuniform List<scalar> 
45800
(
3.31065e-11
3.31038e-11
3.29142e-09
6.62993e-11
3.35182e-11
3.25175e-09
1.00846e-10
3.43773e-11
3.22968e-09
1.38126e-10
3.57217e-11
3.22546e-09
1.79793e-10
3.7629e-11
3.23994e-09
2.27971e-10
4.02239e-11
3.27469e-09
2.85535e-10
4.36968e-11
3.33212e-09
3.56548e-10
4.83445e-11
3.41571e-09
4.4697e-10
5.46467e-11
3.53032e-09
6.33576e-11
3.68261e-09
5.65883e-10
3.35209e-11
6.62982e-11
3.25174e-09
6.70449e-11
6.70423e-11
3.21044e-09
1.01816e-10
6.86433e-11
3.18599e-09
1.39181e-10
7.11812e-11
3.17852e-09
1.80734e-10
7.4793e-11
3.18879e-09
2.285e-10
7.9701e-11
3.21816e-09
2.85199e-10
8.6244e-11
3.26875e-09
3.54656e-10
9.49357e-11
3.34365e-09
4.42499e-10
1.06556e-10
3.44717e-09
1.22317e-10
3.58511e-09
5.57334e-10
3.43783e-11
1.00848e-10
3.22967e-09
6.86459e-11
1.01816e-10
3.18598e-09
1.04044e-10
1.04041e-10
3.15859e-09
1.41907e-10
1.07641e-10
3.14756e-09
1.83801e-10
1.12803e-10
3.15347e-09
2.31688e-10
1.19825e-10
3.17752e-09
2.88179e-10
1.29163e-10
3.22159e-09
3.56917e-10
1.41499e-10
3.28842e-09
4.43225e-10
1.57828e-10
3.38181e-09
1.79794e-10
3.50686e-09
5.55062e-10
3.57212e-11
1.38128e-10
3.22546e-09
7.11817e-11
1.39183e-10
3.17852e-09
1.07644e-10
1.41907e-10
3.14755e-09
1.46449e-10
1.46447e-10
3.13249e-09
1.89155e-10
1.53034e-10
3.1338e-09
2.37694e-10
1.62033e-10
3.15249e-09
2.94601e-10
1.73994e-10
3.1902e-09
3.6338e-10
1.89738e-10
3.24937e-09
4.49091e-10
2.1043e-10
3.33339e-09
2.38209e-10
3.44667e-09
5.59083e-10
3.76282e-11
1.79795e-10
3.23994e-09
7.47918e-11
1.80736e-10
3.18879e-09
1.12803e-10
1.83803e-10
3.15346e-09
1.53036e-10
1.89156e-10
3.13379e-09
1.9706e-10
1.97058e-10
3.13011e-09
2.46798e-10
2.07935e-10
3.14323e-09
3.04747e-10
2.22427e-10
3.17459e-09
3.7431e-10
2.4147e-10
3.22633e-09
4.60341e-10
2.66367e-10
3.30146e-09
2.99849e-10
3.4038e-09
5.69667e-10
4.02231e-11
2.27973e-10
3.27469e-09
7.96994e-11
2.28502e-10
3.21816e-09
1.19823e-10
2.31691e-10
3.17752e-09
1.62032e-10
2.37696e-10
3.15248e-09
2.07938e-10
2.46797e-10
3.14322e-09
2.59479e-10
2.59474e-10
3.15041e-09
3.19139e-10
2.76454e-10
3.17524e-09
3.9026e-10
2.98788e-10
3.21956e-09
4.7755e-10
3.27893e-10
3.28605e-09
3.67207e-10
3.378e-09
5.87383e-10
4.36961e-11
2.85538e-10
3.33212e-09
8.62425e-11
2.85201e-10
3.26875e-09
1.29161e-10
2.88182e-10
3.22159e-09
1.73991e-10
2.94604e-10
3.1902e-09
2.22426e-10
3.0475e-10
3.17459e-09
2.76458e-10
3.19139e-10
3.17522e-09
3.38589e-10
3.38586e-10
3.19311e-09
4.12134e-10
3.64278e-10
3.22981e-09
5.01691e-10
3.97756e-10
3.28765e-09
4.43304e-10
3.36945e-09
6.13204e-10
4.83438e-11
3.56551e-10
3.41571e-09
9.49342e-11
3.54658e-10
3.34365e-09
1.41497e-10
3.5692e-10
3.28842e-09
1.89735e-10
3.63384e-10
3.24938e-09
2.41466e-10
3.74315e-10
3.22633e-09
2.98789e-10
3.90267e-10
3.21954e-09
3.64283e-10
4.12139e-10
3.22979e-09
4.41288e-10
4.41288e-10
3.25838e-09
5.34292e-10
4.7946e-10
3.30729e-09
5.32099e-10
3.37887e-09
6.48664e-10
5.4646e-11
4.46972e-10
3.53032e-09
1.06555e-10
4.42501e-10
3.44717e-09
1.57827e-10
4.43228e-10
3.38181e-09
2.10427e-10
4.49095e-10
3.33339e-09
2.66364e-10
4.60346e-10
3.30146e-09
3.27893e-10
4.77557e-10
3.28605e-09
3.97757e-10
5.01697e-10
3.28765e-09
4.79461e-10
5.34295e-10
3.30728e-09
5.77483e-10
5.77483e-10
3.3466e-09
6.38657e-10
3.4074e-09
6.96332e-10
6.33571e-11
3.68261e-09
5.65885e-10
1.22316e-10
3.58511e-09
5.57335e-10
1.79793e-10
3.50686e-09
5.55065e-10
2.38208e-10
3.44667e-09
5.59086e-10
2.99848e-10
3.40381e-09
5.6967e-10
3.67206e-10
3.378e-09
5.87387e-10
4.43302e-10
3.36946e-09
6.13207e-10
5.32098e-10
3.37886e-09
6.48668e-10
6.38658e-10
3.4074e-09
6.96336e-10
3.45661e-09
7.66881e-10
7.66883e-10
9.534e-11
9.53371e-11
3.10074e-09
1.90654e-10
9.64118e-11
3.06002e-09
2.89306e-10
9.86176e-11
3.03241e-09
3.94921e-10
1.02072e-10
3.01777e-09
5.11744e-10
1.06959e-10
3.01616e-09
6.45056e-10
1.13563e-10
3.02782e-09
8.01738e-10
1.22307e-10
3.05313e-09
9.91086e-10
1.33835e-10
3.09253e-09
1.226e-09
1.49151e-10
3.14625e-09
1.69711e-10
3.21397e-09
1.52493e-09
9.64144e-11
1.90653e-10
3.06001e-09
1.92613e-10
1.9261e-10
3.01804e-09
2.91878e-10
1.96757e-10
2.98858e-09
3.97734e-10
2.03314e-10
2.97142e-09
5.14272e-10
2.12613e-10
2.9666e-09
6.46535e-10
2.25169e-10
2.97429e-09
8.01053e-10
2.4174e-10
2.9948e-09
9.86616e-10
2.63445e-10
3.02848e-09
1.2155e-09
2.91923e-10
3.07552e-09
3.29552e-10
3.13555e-09
1.50522e-09
9.86182e-11
2.89307e-10
3.0324e-09
1.96759e-10
2.91877e-10
2.98857e-09
2.97671e-10
2.97669e-10
2.95677e-09
4.04825e-10
3.06991e-10
2.93672e-09
5.22217e-10
3.20297e-10
2.92839e-09
6.54727e-10
3.3828e-10
2.9319e-09
8.08622e-10
3.61967e-10
2.94747e-09
9.92285e-10
3.92848e-10
2.97535e-09
1.21736e-09
4.33008e-10
3.01566e-09
4.85734e-10
3.06797e-09
1.50006e-09
1.02071e-10
3.94923e-10
3.01777e-09
2.03313e-10
3.97735e-10
2.97142e-09
3.06993e-10
4.04825e-10
2.93672e-09
4.16569e-10
4.16567e-10
2.91334e-09
5.35992e-10
4.33511e-10
2.90116e-09
6.70038e-10
4.565e-10
2.90022e-09
8.24784e-10
4.86776e-10
2.91065e-09
1.00828e-09
5.26129e-10
2.9326e-09
1.23159e-09
5.7699e-10
2.96609e-09
6.43721e-10
3.01062e-09
1.50966e-09
1.06959e-10
5.11746e-10
3.01616e-09
2.12612e-10
5.14274e-10
2.9666e-09
3.20296e-10
5.22218e-10
2.92838e-09
4.33512e-10
5.3599e-10
2.90115e-09
5.56212e-10
5.56209e-10
2.88471e-09
6.9312e-10
5.83843e-10
2.87898e-09
8.5018e-10
6.20315e-10
2.88399e-09
1.03518e-09
6.67663e-10
2.89979e-09
1.25874e-09
7.28587e-10
2.9263e-09
8.08744e-10
2.96289e-09
1.53463e-09
1.13563e-10
6.45058e-10
3.02782e-09
2.25168e-10
6.46537e-10
2.97429e-09
3.38278e-10
6.54729e-10
2.9319e-09
4.56498e-10
6.70039e-10
2.90021e-09
5.83844e-10
6.93117e-10
2.87897e-09
7.25042e-10
7.25036e-10
2.86802e-09
8.85956e-10
7.67382e-10
2.86726e-09
1.07419e-09
8.22407e-10
2.87658e-09
1.3e-09
8.93007e-10
2.89582e-09
9.86395e-10
2.92422e-09
1.57612e-09
1.22307e-10
8.0174e-10
3.05313e-09
2.41739e-10
8.01055e-10
2.9948e-09
3.61965e-10
8.08624e-10
2.94747e-09
4.86772e-10
8.24787e-10
2.91065e-09
6.20311e-10
8.50181e-10
2.88398e-09
7.67383e-10
8.8595e-10
2.86723e-09
9.33838e-10
9.33831e-10
2.8602e-09
1.12714e-09
9.9629e-10
2.86263e-09
1.35726e-09
1.07637e-09
2.87416e-09
1.18315e-09
2.89399e-09
1.63597e-09
1.33834e-10
9.91087e-10
3.09253e-09
2.63444e-10
9.86618e-10
3.02848e-09
3.92846e-10
9.92287e-10
2.97535e-09
5.26126e-10
1.00828e-09
2.9326e-09
6.67658e-10
1.03519e-09
2.89979e-09
8.22402e-10
1.07419e-09
2.87656e-09
9.96289e-10
1.12713e-09
2.8626e-09
1.19672e-09
1.19672e-09
2.85751e-09
1.43339e-09
1.2862e-09
2.86079e-09
1.40701e-09
2.87151e-09
1.71689e-09
1.49151e-10
1.226e-09
3.14626e-09
2.91923e-10
1.2155e-09
3.07552e-09
4.33007e-10
1.21736e-09
3.01566e-09
5.76989e-10
1.23159e-09
2.9661e-09
7.28586e-10
1.25875e-09
2.9263e-09
8.93005e-10
1.3e-09
2.89581e-09
1.07637e-09
1.35726e-09
2.87415e-09
1.2862e-09
1.43339e-09
2.86078e-09
1.53199e-09
1.53198e-09
2.85503e-09
1.66755e-09
2.85581e-09
1.82304e-09
1.69711e-10
3.21397e-09
1.52493e-09
3.29551e-10
3.13555e-09
1.50522e-09
4.85734e-10
3.06797e-09
1.50006e-09
6.43721e-10
3.01062e-09
1.50966e-09
8.08744e-10
2.9629e-09
1.53463e-09
9.86395e-10
2.92422e-09
1.57613e-09
1.18315e-09
2.894e-09
1.63597e-09
1.407e-09
2.87151e-09
1.71689e-09
1.66755e-09
2.8558e-09
1.82304e-09
2.84572e-09
1.97299e-09
1.97299e-09
1.42633e-10
1.42631e-10
2.81548e-09
2.8455e-10
1.44025e-10
2.77408e-09
4.30036e-10
1.46862e-10
2.74006e-09
5.83574e-10
1.51277e-10
2.71295e-09
7.50178e-10
1.57457e-10
2.6921e-09
9.3572e-10
1.6568e-10
2.67659e-09
1.14733e-09
1.76343e-10
2.66518e-09
1.39386e-09
1.90019e-10
2.65598e-09
1.68636e-09
2.07554e-10
2.64619e-09
2.29993e-10
2.63151e-09
2.03883e-09
1.44027e-10
2.84549e-10
2.77407e-09
2.87089e-10
2.87086e-10
2.73192e-09
4.3336e-10
2.92408e-10
2.69676e-09
5.87191e-10
3.00758e-10
2.66811e-09
7.53413e-10
3.12477e-10
2.64536e-09
9.3765e-10
3.28064e-10
2.62767e-09
1.14669e-09
3.48226e-10
2.61387e-09
1.38897e-09
3.7395e-10
2.60227e-09
1.67515e-09
4.06574e-10
2.59032e-09
4.47785e-10
2.57414e-09
2.01877e-09
1.46862e-10
4.30036e-10
2.74005e-09
2.92408e-10
4.33358e-10
2.69675e-09
4.40753e-10
4.40751e-10
2.66008e-09
5.96159e-10
4.52552e-10
2.62953e-09
7.63328e-10
4.69211e-10
2.60449e-09
9.47695e-10
4.91401e-10
2.58419e-09
1.15578e-09
5.20066e-10
2.56755e-09
1.39562e-09
5.56499e-10
2.55296e-09
1.67738e-09
6.02357e-10
2.53811e-09
6.60012e-10
2.51948e-09
2.01365e-09
1.51276e-10
5.83575e-10
2.71295e-09
3.00757e-10
5.87191e-10
2.6681e-09
4.52552e-10
5.96157e-10
2.62951e-09
6.10881e-10
6.10879e-10
2.59668e-09
7.80361e-10
6.3189e-10
2.569e-09
9.66282e-10
6.59988e-10
2.54571e-09
1.17493e-09
6.96295e-10
2.52577e-09
1.41401e-09
7.4234e-10
2.50769e-09
1.69315e-09
7.99995e-10
2.48931e-09
8.72518e-10
2.46744e-09
2.02382e-09
1.57457e-10
7.50179e-10
2.6921e-09
3.12476e-10
7.53414e-10
2.64536e-09
4.69209e-10
7.63327e-10
2.60448e-09
6.3189e-10
7.80358e-10
2.56899e-09
8.05095e-10
8.05091e-10
2.5383e-09
9.94005e-10
8.38417e-10
2.51164e-09
1.20472e-09
8.81586e-10
2.48799e-09
1.44461e-09
9.36296e-10
2.46594e-09
1.72287e-09
1.00456e-09
2.44349e-09
1.09073e-09
2.41768e-09
2.04986e-09
1.6568e-10
9.35721e-10
2.6766e-09
3.28064e-10
9.3765e-10
2.62767e-09
4.91399e-10
9.47695e-10
2.58419e-09
6.59984e-10
9.66281e-10
2.5457e-09
8.38415e-10
9.93999e-10
2.51163e-09
1.03181e-09
1.03181e-09
2.48123e-09
1.24611e-09
1.08105e-09
2.45349e-09
1.48841e-09
1.14355e-09
2.42703e-09
1.76746e-09
1.22135e-09
2.39997e-09
1.32017e-09
2.36961e-09
2.09263e-09
1.76343e-10
1.14733e-09
2.66518e-09
3.48225e-10
1.14669e-09
2.61388e-09
5.20065e-10
1.15578e-09
2.56755e-09
6.96292e-10
1.17493e-09
2.52577e-09
8.81579e-10
1.20472e-09
2.48798e-09
1.08105e-09
1.2461e-09
2.45347e-09
1.30053e-09
1.30052e-09
2.42126e-09
1.54684e-09
1.36989e-09
2.38998e-09
1.82833e-09
1.4562e-09
2.35783e-09
1.56675e-09
2.32235e-09
2.15338e-09
1.90019e-10
1.39386e-09
2.65598e-09
3.7395e-10
1.38897e-09
2.60227e-09
5.56499e-10
1.39562e-09
2.55296e-09
7.42339e-10
1.41401e-09
2.50769e-09
9.36292e-10
1.44462e-09
2.46594e-09
1.14354e-09
1.4884e-09
2.42701e-09
1.36988e-09
1.54683e-09
2.38996e-09
1.62191e-09
1.6219e-09
2.35347e-09
1.90748e-09
1.71563e-09
2.31579e-09
1.83721e-09
2.27471e-09
2.23383e-09
2.07554e-10
1.68636e-09
2.6462e-09
4.06574e-10
1.67515e-09
2.59032e-09
6.02357e-10
1.67738e-09
2.53811e-09
7.99995e-10
1.69315e-09
2.48932e-09
1.00456e-09
1.72287e-09
2.44349e-09
1.22135e-09
1.76746e-09
2.39996e-09
1.45619e-09
1.82832e-09
2.35782e-09
1.71562e-09
1.90747e-09
2.31578e-09
2.00704e-09
2.00704e-09
2.27219e-09
2.13856e-09
2.22501e-09
2.33649e-09
2.29993e-10
2.63151e-09
2.03883e-09
4.47786e-10
2.57414e-09
2.01877e-09
6.60013e-10
2.51948e-09
2.01365e-09
8.72519e-10
2.46745e-09
2.02382e-09
1.09073e-09
2.41769e-09
2.04986e-09
1.32017e-09
2.36961e-09
2.09263e-09
1.56675e-09
2.32236e-09
2.15338e-09
1.8372e-09
2.27471e-09
2.23383e-09
2.13855e-09
2.225e-09
2.33648e-09
2.17137e-09
2.47573e-09
2.47573e-09
1.70199e-10
1.70198e-10
2.47508e-09
3.38532e-10
1.7154e-10
2.43421e-09
5.09027e-10
1.74242e-10
2.39532e-09
6.85724e-10
1.78406e-10
2.35785e-09
8.72853e-10
1.84153e-10
2.32082e-09
1.07497e-09
1.91647e-10
2.28283e-09
1.29706e-09
2.01111e-10
2.24198e-09
1.54453e-09
2.12849e-10
2.19566e-09
1.8231e-09
2.27278e-10
2.14034e-09
2.44754e-10
2.07129e-09
2.13857e-09
1.7154e-10
3.38531e-10
2.43419e-09
3.40969e-10
3.40968e-10
2.39306e-09
5.12198e-10
3.46015e-10
2.35376e-09
6.89138e-10
3.53856e-10
2.31572e-09
8.75874e-10
3.64704e-10
2.27807e-09
1.07678e-09
3.78857e-10
2.23955e-09
1.29664e-09
3.96702e-10
2.19842e-09
1.54068e-09
4.18748e-10
2.15233e-09
1.81458e-09
4.45597e-10
2.09811e-09
4.77779e-10
2.03148e-09
2.12422e-09
1.74241e-10
5.09027e-10
2.39532e-09
3.46014e-10
5.12196e-10
2.35375e-09
5.19151e-10
5.1915e-10
2.31381e-09
6.97463e-10
5.30136e-10
2.27493e-09
8.84913e-10
5.4543e-10
2.23631e-09
1.08573e-09
5.65418e-10
2.19682e-09
1.3045e-09
5.90614e-10
2.15486e-09
1.54625e-09
6.21655e-10
2.1083e-09
1.81646e-09
6.59222e-10
2.05427e-09
7.04108e-10
1.98895e-09
2.12066e-09
1.78405e-10
6.85724e-10
2.35785e-09
3.53854e-10
6.89137e-10
2.31571e-09
5.30135e-10
6.9746e-10
2.27492e-09
7.10992e-10
7.1099e-10
2.23497e-09
9.00285e-10
7.30035e-10
2.19511e-09
1.10211e-09
7.55037e-10
2.15427e-09
1.32089e-09
7.86585e-10
2.11102e-09
1.56141e-09
8.25405e-10
2.06342e-09
1.82888e-09
8.722e-10
2.00886e-09
9.28215e-10
1.94394e-09
2.12827e-09
1.84153e-10
8.72853e-10
2.32082e-09
3.64704e-10
8.75874e-10
2.27807e-09
5.45427e-10
8.84911e-10
2.23631e-09
7.30033e-10
9.00281e-10
2.1951e-09
9.22311e-10
9.22308e-10
2.15375e-09
1.12623e-09
9.51463e-10
2.11129e-09
1.34605e-09
9.88366e-10
2.06639e-09
1.58633e-09
1.03379e-09
2.01728e-09
1.85199e-09
1.0884e-09
1.96162e-09
1.15409e-09
1.89637e-09
2.14743e-09
1.91647e-10
1.07497e-09
2.28283e-09
3.78857e-10
1.07678e-09
2.23955e-09
5.65417e-10
1.08573e-09
2.19682e-09
7.55033e-10
1.10211e-09
2.15426e-09
9.5146e-10
1.12623e-09
2.11128e-09
1.15858e-09
1.15857e-09
2.06701e-09
1.38046e-09
1.19977e-09
2.0202e-09
1.62144e-09
1.2506e-09
1.96924e-09
1.88618e-09
1.31162e-09
1.91201e-09
1.38555e-09
1.84585e-09
2.17848e-09
2.01111e-10
1.29706e-09
2.24198e-09
3.96703e-10
1.29664e-09
2.19842e-09
5.90614e-10
1.3045e-09
2.15486e-09
7.86583e-10
1.32089e-09
2.11102e-09
9.88358e-10
1.34605e-09
2.06638e-09
1.19977e-09
1.38045e-09
2.02019e-09
1.42474e-09
1.42473e-09
1.97133e-09
1.66736e-09
1.47966e-09
1.9183e-09
1.93197e-09
1.54565e-09
1.85919e-09
1.62634e-09
1.79171e-09
2.22183e-09
2.12849e-10
1.54453e-09
2.19566e-09
4.18748e-10
1.54068e-09
2.15234e-09
6.21655e-10
1.54625e-09
2.10831e-09
8.25406e-10
1.56141e-09
2.06342e-09
1.03378e-09
1.58633e-09
2.01728e-09
1.25058e-09
1.62143e-09
1.96922e-09
1.47965e-09
1.66735e-09
1.91828e-09
1.72483e-09
1.72483e-09
1.86312e-09
1.99007e-09
1.7942e-09
1.80199e-09
1.88021e-09
1.73296e-09
2.27795e-09
2.27278e-10
1.8231e-09
2.14035e-09
4.45598e-10
1.81458e-09
2.09811e-09
6.59223e-10
1.81646e-09
2.05427e-09
8.72202e-10
1.82888e-09
2.00886e-09
1.0884e-09
1.85199e-09
1.96162e-09
1.31162e-09
1.88618e-09
1.91201e-09
1.54563e-09
1.93196e-09
1.85919e-09
1.79419e-09
1.99007e-09
1.80199e-09
2.06085e-09
2.06084e-09
1.73889e-09
2.15035e-09
1.66824e-09
2.34748e-09
2.44755e-10
2.07129e-09
2.13857e-09
4.7778e-10
2.03148e-09
2.12422e-09
7.0411e-10
1.98896e-09
2.12066e-09
9.28217e-10
1.94394e-09
2.12827e-09
1.1541e-09
1.89637e-09
2.14743e-09
1.38556e-09
1.84585e-09
2.17848e-09
1.62633e-09
1.79171e-09
2.22183e-09
1.88021e-09
1.73296e-09
2.27794e-09
2.15035e-09
1.66824e-09
2.34747e-09
1.59611e-09
2.43798e-09
2.43798e-09
1.78784e-10
1.78783e-10
2.11751e-09
3.54477e-10
1.79833e-10
2.07868e-09
5.30133e-10
1.81913e-10
2.03776e-09
7.08647e-10
1.85081e-10
1.99426e-09
8.92802e-10
1.89376e-10
1.94729e-09
1.08524e-09
1.94844e-10
1.89555e-09
1.28836e-09
2.01536e-10
1.83732e-09
1.50414e-09
2.09513e-10
1.77036e-09
1.73376e-09
2.18848e-10
1.69188e-09
2.29422e-10
1.59846e-09
1.97717e-09
1.79832e-10
3.54476e-10
2.07867e-09
3.56375e-10
3.56374e-10
2.03998e-09
5.3258e-10
3.60239e-10
1.99923e-09
7.11249e-10
3.66168e-10
1.95596e-09
8.95073e-10
3.74233e-10
1.90939e-09
1.0866e-09
3.8451e-10
1.85835e-09
1.28819e-09
3.97082e-10
1.80129e-09
1.50181e-09
4.12028e-10
1.7362e-09
1.72883e-09
4.29376e-10
1.66056e-09
4.48866e-10
1.5713e-09
1.96956e-09
1.81912e-10
5.30132e-10
2.03775e-09
3.60237e-10
5.32578e-10
1.99922e-09
5.37847e-10
5.37846e-10
1.95859e-09
7.17454e-10
5.46068e-10
1.91543e-09
9.0166e-10
5.57319e-10
1.86902e-09
1.09294e-09
5.71695e-10
1.81835e-09
1.29356e-09
5.89289e-10
1.76203e-09
1.50547e-09
6.10173e-10
1.69825e-09
1.73008e-09
6.34283e-10
1.62475e-09
6.61311e-10
1.53881e-09
1.96779e-09
1.8508e-10
7.08647e-10
1.99426e-09
3.66166e-10
7.11248e-10
1.95596e-09
5.46066e-10
7.17451e-10
1.91542e-09
7.27416e-10
7.27415e-10
1.87228e-09
9.12734e-10
7.4121e-10
1.8259e-09
1.10441e-09
7.58924e-10
1.77537e-09
1.30462e-09
7.80644e-10
1.71945e-09
1.51525e-09
8.0642e-10
1.65655e-09
1.73767e-09
8.36085e-10
1.58464e-09
8.69437e-10
1.50132e-09
1.97216e-09
1.89376e-10
8.92801e-10
1.94729e-09
3.74232e-10
8.95072e-10
1.90939e-09
5.57316e-10
9.01658e-10
1.86901e-09
7.41208e-10
9.1273e-10
1.82589e-09
9.2835e-10
9.28347e-10
1.77947e-09
1.12103e-09
9.48579e-10
1.72895e-09
1.32135e-09
9.73485e-10
1.67323e-09
1.53108e-09
1.00307e-09
1.6109e-09
1.75155e-09
1.03707e-09
1.54017e-09
1.07551e-09
1.45897e-09
1.98287e-09
1.94844e-10
1.08524e-09
1.89555e-09
3.84511e-10
1.0866e-09
1.85835e-09
5.71694e-10
1.09294e-09
1.81835e-09
7.5892e-10
1.1044e-09
1.77536e-09
9.48576e-10
1.12103e-09
1.72895e-09
1.14287e-09
1.14287e-09
1.67843e-09
1.34379e-09
1.16995e-09
1.62282e-09
1.55298e-09
1.20223e-09
1.56089e-09
1.7717e-09
1.23927e-09
1.49109e-09
1.28148e-09
1.41165e-09
1.99992e-09
2.01536e-10
1.28836e-09
1.83732e-09
3.97083e-10
1.28819e-09
1.80129e-09
5.8929e-10
1.29356e-09
1.76203e-09
7.80643e-10
1.30462e-09
1.71945e-09
9.73478e-10
1.32135e-09
1.67323e-09
1.16994e-09
1.34378e-09
1.62281e-09
1.37192e-09
1.37191e-09
1.56739e-09
1.58092e-09
1.40567e-09
1.50586e-09
1.79805e-09
1.44445e-09
1.43688e-09
1.48905e-09
1.35901e-09
2.02318e-09
2.09513e-10
1.50414e-09
1.77036e-09
4.12029e-10
1.50181e-09
1.7362e-09
6.10174e-10
1.50547e-09
1.69825e-09
8.06422e-10
1.51525e-09
1.65655e-09
1.00307e-09
1.53108e-09
1.6109e-09
1.20221e-09
1.55297e-09
1.56088e-09
1.40566e-09
1.58091e-09
1.50584e-09
1.61479e-09
1.61479e-09
1.44487e-09
1.8305e-09
1.65393e-09
1.37681e-09
1.69958e-09
1.30051e-09
2.05241e-09
2.18848e-10
1.73376e-09
1.69188e-09
4.29377e-10
1.72883e-09
1.66056e-09
6.34285e-10
1.73008e-09
1.62475e-09
8.36088e-10
1.73767e-09
1.58464e-09
1.03707e-09
1.75155e-09
1.54017e-09
1.23927e-09
1.77169e-09
1.49109e-09
1.44444e-09
1.79805e-09
1.43688e-09
1.65392e-09
1.83049e-09
1.37681e-09
1.86839e-09
1.86839e-09
1.30995e-09
1.91357e-09
1.23541e-09
2.08724e-09
2.29422e-10
1.59846e-09
1.97717e-09
4.48867e-10
1.5713e-09
1.96956e-09
6.61313e-10
1.53881e-09
1.96779e-09
8.69439e-10
1.50132e-09
1.97216e-09
1.07551e-09
1.45897e-09
1.98287e-09
1.28149e-09
1.41165e-09
1.99991e-09
1.48905e-09
1.35901e-09
2.02318e-09
1.69958e-09
1.30051e-09
2.05241e-09
1.91357e-09
1.2354e-09
2.08724e-09
1.16296e-09
2.13014e-09
2.13014e-09
1.72606e-10
1.72606e-10
1.7723e-09
3.41175e-10
1.73283e-10
1.73683e-09
5.0759e-10
1.74589e-10
1.69675e-09
6.73504e-10
1.76548e-10
1.6518e-09
8.40297e-10
1.79144e-10
1.60135e-09
1.00898e-09
1.82345e-10
1.54452e-09
1.18006e-09
1.86101e-10
1.48014e-09
1.35332e-09
1.9034e-10
1.40677e-09
1.52747e-09
1.94964e-10
1.32277e-09
1.99665e-10
1.22631e-09
1.69995e-09
1.73281e-10
3.41174e-10
1.73682e-09
3.42391e-10
3.42391e-10
1.70176e-09
5.09141e-10
3.44801e-10
1.66227e-09
6.75128e-10
3.4844e-10
1.61809e-09
8.41692e-10
3.53278e-10
1.56869e-09
1.00983e-09
3.59256e-10
1.5133e-09
1.18008e-09
3.66272e-10
1.45087e-09
1.35233e-09
3.74178e-10
1.38012e-09
1.52555e-09
3.82733e-10
1.29957e-09
3.91368e-10
1.20758e-09
1.69757e-09
1.74588e-10
5.07589e-10
1.69675e-09
3.44799e-10
5.0914e-10
1.66226e-09
5.12381e-10
5.1238e-10
1.62343e-09
6.78862e-10
5.17355e-10
1.58003e-09
8.45538e-10
5.24011e-10
1.53161e-09
1.01339e-09
5.32259e-10
1.4775e-09
1.18295e-09
5.41954e-10
1.41678e-09
1.35418e-09
5.52868e-10
1.34833e-09
1.52623e-09
5.64606e-10
1.27083e-09
5.76411e-10
1.18283e-09
1.69716e-09
1.76548e-10
6.73503e-10
1.65179e-09
3.48438e-10
6.75126e-10
1.61808e-09
5.17353e-10
6.7886e-10
1.58002e-09
6.84761e-10
6.8476e-10
1.53746e-09
8.51902e-10
6.9275e-10
1.49002e-09
1.01972e-09
7.02702e-10
1.43711e-09
1.18875e-09
7.14425e-10
1.37795e-09
1.35897e-09
7.27625e-10
1.31157e-09
1.52964e-09
7.41765e-10
1.23681e-09
7.56001e-10
1.15243e-09
1.69894e-09
1.79145e-10
8.40296e-10
1.60135e-09
3.53278e-10
8.41691e-10
1.56869e-09
5.24009e-10
8.45536e-10
1.53161e-09
6.92748e-10
8.51899e-10
1.49001e-09
8.60681e-10
8.60679e-10
1.44361e-09
1.0287e-09
8.71717e-10
1.39192e-09
1.19732e-09
8.8477e-10
1.33427e-09
1.36653e-09
8.9948e-10
1.26983e-09
1.53566e-09
9.15186e-10
1.19762e-09
9.31041e-10
1.11661e-09
1.70298e-09
1.82346e-10
1.00898e-09
1.54452e-09
3.59256e-10
1.00983e-09
1.5133e-09
5.32259e-10
1.01339e-09
1.4775e-09
7.02699e-10
1.01972e-09
1.4371e-09
8.71715e-10
1.0287e-09
1.39191e-09
1.04015e-09
1.04015e-09
1.34156e-09
1.20848e-09
1.05379e-09
1.28548e-09
1.37667e-09
1.0692e-09
1.22298e-09
1.5441e-09
1.08559e-09
1.15325e-09
1.10217e-09
1.07546e-09
1.70916e-09
1.86101e-10
1.18006e-09
1.48014e-09
3.66273e-10
1.18008e-09
1.45087e-09
5.41955e-10
1.18295e-09
1.41679e-09
7.14424e-10
1.18875e-09
1.37795e-09
8.84765e-10
1.19732e-09
1.33427e-09
1.05378e-09
1.20847e-09
1.28547e-09
1.22191e-09
1.22191e-09
1.23115e-09
1.38907e-09
1.23717e-09
1.17072e-09
1.55466e-09
1.25335e-09
1.10352e-09
1.26973e-09
1.02895e-09
1.71717e-09
1.9034e-10
1.35331e-09
1.40677e-09
3.74179e-10
1.35233e-09
1.38012e-09
5.52869e-10
1.35418e-09
1.34833e-09
7.27626e-10
1.35897e-09
1.31157e-09
8.99479e-10
1.36653e-09
1.26983e-09
1.06919e-09
1.37666e-09
1.22298e-09
1.23717e-09
1.38906e-09
1.17071e-09
1.4033e-09
1.4033e-09
1.11261e-09
1.56692e-09
1.4184e-09
1.04815e-09
1.43371e-09
9.7691e-10
1.72654e-09
1.94964e-10
1.52747e-09
1.32277e-09
3.82733e-10
1.52555e-09
1.29957e-09
5.64608e-10
1.52623e-09
1.27083e-09
7.41767e-10
1.52964e-09
1.23681e-09
9.15188e-10
1.53566e-09
1.19762e-09
1.08559e-09
1.5441e-09
1.15325e-09
1.25335e-09
1.55466e-09
1.10352e-09
1.41839e-09
1.56691e-09
1.04815e-09
1.57999e-09
1.57999e-09
9.8677e-10
1.59337e-09
9.19123e-10
1.73662e-09
1.99665e-10
1.22631e-09
1.69995e-09
3.91369e-10
1.20758e-09
1.69757e-09
5.76412e-10
1.18284e-09
1.69716e-09
7.56003e-10
1.15243e-09
1.69894e-09
9.31043e-10
1.11661e-09
1.70298e-09
1.10217e-09
1.07546e-09
1.70916e-09
1.26973e-09
1.02895e-09
1.71717e-09
1.43371e-09
9.76909e-10
1.72653e-09
1.59336e-09
9.19121e-10
1.73662e-09
8.55421e-10
1.74714e-09
1.74713e-09
1.57031e-10
1.57031e-10
1.45824e-09
3.09526e-10
1.5737e-10
1.42696e-09
4.58357e-10
1.57988e-10
1.38993e-09
6.04174e-10
1.5889e-10
1.34709e-09
7.47336e-10
1.60037e-10
1.29815e-09
8.87824e-10
1.61367e-10
1.24266e-09
1.02511e-09
1.62795e-10
1.18005e-09
1.15802e-09
1.64213e-10
1.10965e-09
1.28454e-09
1.65483e-10
1.03077e-09
1.66291e-10
9.42805e-10
1.40175e-09
1.57368e-10
3.09526e-10
1.42696e-09
3.1013e-10
3.1013e-10
1.39624e-09
4.59116e-10
3.11258e-10
1.36001e-09
6.04949e-10
3.12911e-10
1.31823e-09
7.4799e-10
3.15017e-10
1.27067e-09
8.88243e-10
3.17466e-10
1.21695e-09
1.02525e-09
3.20098e-10
1.15656e-09
1.15796e-09
3.22704e-10
1.08892e-09
1.28459e-09
3.24998e-10
1.01342e-09
3.26413e-10
9.29523e-10
1.40252e-09
1.57987e-10
4.58357e-10
1.38993e-09
3.11256e-10
4.59114e-10
1.36001e-09
4.60593e-10
4.60593e-10
1.32476e-09
6.06585e-10
4.62794e-10
1.28415e-09
7.49577e-10
4.65614e-10
1.23802e-09
8.8959e-10
4.68896e-10
1.18606e-09
1.02622e-09
4.72421e-10
1.12783e-09
1.15851e-09
4.75892e-10
1.06286e-09
1.28486e-09
4.78877e-10
9.90595e-10
4.80593e-10
9.10593e-10
1.40292e-09
1.5889e-10
6.04173e-10
1.34709e-09
3.12909e-10
6.04948e-10
1.31823e-09
4.62793e-10
6.06583e-10
1.28415e-09
6.09088e-10
6.09088e-10
1.24487e-09
7.52116e-10
6.12328e-10
1.20027e-09
8.91899e-10
6.16108e-10
1.15011e-09
1.02807e-09
6.20155e-10
1.09405e-09
1.15975e-09
6.24102e-10
1.03168e-09
1.28548e-09
6.27392e-10
9.62561e-10
6.29087e-10
8.86333e-10
1.40308e-09
1.60037e-10
7.47336e-10
1.29815e-09
3.15017e-10
7.4799e-10
1.27067e-09
4.65612e-10
7.49576e-10
1.23802e-09
6.12326e-10
7.52114e-10
1.20027e-09
7.55453e-10
7.55452e-10
1.15736e-09
8.95001e-10
7.59361e-10
1.10912e-09
1.03062e-09
7.63525e-10
1.05528e-09
1.16151e-09
7.67518e-10
9.95533e-10
1.28631e-09
7.70681e-10
9.29535e-10
7.71963e-10
8.57021e-10
1.40302e-09
1.61367e-10
8.87824e-10
1.24266e-09
3.17466e-10
8.88242e-10
1.21695e-09
4.68895e-10
8.8959e-10
1.18606e-09
6.16105e-10
8.91898e-10
1.15011e-09
7.59359e-10
8.94998e-10
1.10911e-09
8.98653e-10
8.98651e-10
1.06297e-09
1.03364e-09
9.0251e-10
1.01151e-09
1.16355e-09
9.06106e-10
9.54481e-10
1.28715e-09
9.08685e-10
8.91652e-10
9.09109e-10
8.22861e-10
1.4026e-09
1.62795e-10
1.02511e-09
1.18005e-09
3.20098e-10
1.02525e-09
1.15656e-09
4.72422e-10
1.02622e-09
1.12784e-09
6.20154e-10
1.02807e-09
1.09405e-09
7.63521e-10
1.03062e-09
1.05528e-09
9.02507e-10
1.03363e-09
1.0115e-09
1.03677e-09
1.03677e-09
9.62631e-10
1.16556e-09
1.03953e-09
9.0851e-10
1.28769e-09
1.04109e-09
8.48983e-10
1.0402e-09
7.84e-10
1.40155e-09
1.64213e-10
1.15802e-09
1.10965e-09
3.22705e-10
1.15796e-09
1.08892e-09
4.75893e-10
1.15851e-09
1.06286e-09
6.24103e-10
1.15975e-09
1.03168e-09
7.67517e-10
1.16151e-09
9.95532e-10
9.061e-10
1.16355e-09
9.54477e-10
1.03952e-09
1.16555e-09
9.08505e-10
1.16705e-09
1.16705e-09
8.57554e-10
1.28753e-09
1.16721e-09
8.0155e-10
1.16467e-09
7.4054e-10
1.39943e-09
1.65484e-10
1.28454e-09
1.03077e-09
3.24998e-10
1.28459e-09
1.01342e-09
4.78878e-10
1.28486e-09
9.90595e-10
6.27394e-10
1.28548e-09
9.62561e-10
7.70683e-10
1.28631e-09
9.29535e-10
9.08684e-10
1.28715e-09
8.91651e-10
1.04108e-09
1.28769e-09
8.4898e-10
1.16721e-09
1.28753e-09
8.01548e-10
1.28591e-09
1.28591e-09
7.49366e-10
1.28143e-09
6.92565e-10
1.39571e-09
1.66291e-10
9.42805e-10
1.40175e-09
3.26414e-10
9.29523e-10
1.40252e-09
4.80593e-10
9.10593e-10
1.40292e-09
6.29088e-10
8.86333e-10
1.40308e-09
7.71964e-10
8.57021e-10
1.40302e-09
9.0911e-10
8.22861e-10
1.4026e-09
1.0402e-09
7.84e-10
1.40155e-09
1.16467e-09
7.4054e-10
1.39943e-09
1.28143e-09
6.92564e-10
1.3957e-09
6.40242e-10
1.38902e-09
1.38902e-09
1.36891e-10
1.36891e-10
1.18446e-09
2.6919e-10
1.36981e-10
1.15768e-09
3.97051e-10
1.37101e-10
1.12497e-09
5.20462e-10
1.37249e-10
1.08643e-09
6.39187e-10
1.37384e-10
1.04204e-09
7.52699e-10
1.37448e-10
9.91705e-10
8.60101e-10
1.37361e-10
9.35289e-10
9.60054e-10
1.37031e-10
8.72666e-10
1.0507e-09
1.36342e-10
8.03779e-10
1.35049e-10
7.28717e-10
1.12974e-09
1.3698e-10
2.69189e-10
1.15768e-09
2.69346e-10
2.69346e-10
1.13151e-09
3.97236e-10
2.69551e-10
1.09967e-09
5.20636e-10
2.69797e-10
1.06228e-09
6.39327e-10
2.70012e-10
1.01935e-09
7.5282e-10
2.70087e-10
9.70813e-10
8.6029e-10
2.69879e-10
9.1657e-10
9.60508e-10
2.69209e-10
8.56525e-10
1.05179e-09
2.67849e-10
7.90637e-10
2.65359e-10
7.18995e-10
1.132e-09
1.371e-10
3.9705e-10
1.12497e-09
2.6955e-10
3.97235e-10
1.09967e-09
3.97465e-10
3.97465e-10
1.06893e-09
5.20815e-10
3.97729e-10
1.03287e-09
6.39389e-10
3.97925e-10
9.91535e-10
7.52731e-10
3.97907e-10
9.44895e-10
8.60074e-10
3.97479e-10
8.92893e-10
9.60283e-10
3.96389e-10
8.35466e-10
1.05182e-09
3.94303e-10
7.72603e-10
3.90593e-10
7.04407e-10
1.13277e-09
1.37248e-10
5.20461e-10
1.08643e-09
2.69796e-10
5.20635e-10
1.06228e-09
3.97727e-10
5.20814e-10
1.03287e-09
5.20994e-10
5.20994e-10
9.98342e-10
6.39382e-10
5.21051e-10
9.58761e-10
7.52456e-10
5.20803e-10
9.14143e-10
8.59498e-10
5.20013e-10
8.64472e-10
9.59457e-10
5.18379e-10
8.0973e-10
1.05091e-09
5.15473e-10
7.49934e-10
5.10508e-10
6.85215e-10
1.13212e-09
1.37384e-10
6.39187e-10
1.04204e-09
2.70012e-10
6.39327e-10
1.01935e-09
3.97924e-10
6.39388e-10
9.91533e-10
5.21049e-10
6.39381e-10
9.58759e-10
6.39166e-10
6.39165e-10
9.2113e-10
7.51848e-10
6.38539e-10
8.78699e-10
8.58417e-10
6.37234e-10
8.3149e-10
9.57892e-10
6.34906e-10
7.7953e-10
1.04896e-09
6.31058e-10
7.22877e-10
6.24758e-10
6.61694e-10
1.13004e-09
1.37448e-10
7.52699e-10
9.91705e-10
2.70087e-10
7.5282e-10
9.70814e-10
3.97907e-10
7.52731e-10
9.44895e-10
5.20801e-10
7.52455e-10
9.14141e-10
6.38538e-10
7.51846e-10
8.78697e-10
7.50699e-10
7.50697e-10
8.38656e-10
8.56631e-10
7.48725e-10
7.94084e-10
9.55409e-10
7.45559e-10
7.45049e-10
1.04582e-09
7.40643e-10
6.91651e-10
7.32902e-10
6.3409e-10
1.12645e-09
1.37362e-10
8.60101e-10
9.35289e-10
2.69879e-10
8.6029e-10
9.1657e-10
3.97479e-10
8.60074e-10
8.92893e-10
5.20013e-10
8.59498e-10
8.64472e-10
6.37231e-10
8.58416e-10
8.31488e-10
7.48723e-10
8.56627e-10
7.94081e-10
8.53858e-10
8.53857e-10
7.52363e-10
9.51751e-10
8.49735e-10
7.06441e-10
1.04127e-09
8.43658e-10
6.56449e-10
8.34385e-10
6.02633e-10
1.12115e-09
1.37031e-10
9.60054e-10
8.72666e-10
2.69209e-10
9.60507e-10
8.56525e-10
3.96389e-10
9.60283e-10
8.35467e-10
5.18379e-10
9.59457e-10
8.0973e-10
6.34905e-10
9.57892e-10
7.7953e-10
7.45556e-10
9.55407e-10
7.45047e-10
8.49732e-10
9.51748e-10
7.06438e-10
9.46584e-10
9.46584e-10
6.63852e-10
1.03501e-09
9.39319e-10
6.17462e-10
9.28528e-10
5.67543e-10
1.11387e-09
1.36342e-10
1.0507e-09
8.03779e-10
2.67849e-10
1.05179e-09
7.90637e-10
3.94304e-10
1.05182e-09
7.72603e-10
5.15474e-10
1.05091e-09
7.49934e-10
6.31059e-10
1.04896e-09
7.22877e-10
7.40642e-10
1.04582e-09
6.9165e-10
8.43655e-10
1.04127e-09
6.56448e-10
9.39317e-10
1.03501e-09
6.1746e-10
1.02655e-09
1.02655e-09
5.74893e-10
1.01436e-09
5.29052e-10
1.10424e-09
1.35049e-10
7.28717e-10
1.12974e-09
2.65359e-10
7.18995e-10
1.132e-09
3.90594e-10
7.04407e-10
1.13277e-09
5.10509e-10
6.85215e-10
1.13212e-09
6.24759e-10
6.61694e-10
1.13004e-09
7.32903e-10
6.3409e-10
1.12645e-09
8.34384e-10
6.02632e-10
1.12115e-09
9.28526e-10
5.67542e-10
1.11387e-09
1.01436e-09
5.29052e-10
1.10424e-09
4.87463e-10
1.09075e-09
1.09075e-09
1.15728e-10
1.15728e-10
9.53001e-10
2.27138e-10
1.15663e-10
9.30609e-10
3.33958e-10
1.1548e-10
9.0267e-10
4.35816e-10
1.15176e-10
8.69395e-10
5.32202e-10
1.14723e-10
8.30931e-10
6.22428e-10
1.14073e-10
7.87406e-10
7.05591e-10
1.13172e-10
7.38953e-10
7.80547e-10
1.11956e-10
6.85753e-10
8.45903e-10
1.10352e-10
6.28071e-10
1.08189e-10
5.66305e-10
9.00126e-10
1.15662e-10
2.27138e-10
9.30607e-10
2.27018e-10
2.27018e-10
9.08799e-10
3.33795e-10
2.26667e-10
8.81709e-10
4.35631e-10
2.26079e-10
8.49544e-10
5.32042e-10
2.25199e-10
8.12463e-10
6.22377e-10
2.23947e-10
7.70604e-10