/*--------------------------------*- C++ -*----------------------------------*\
| =========                 |                                                 |
| \\      /  F ield         | foam-extend: Open Source CFD                    |
|  \\    /   O peration     | Version:     3.1                                |
|   \\  /    A nd           | Web:         http://www.extend-project.de       |
|    \\/     M anipulation  |                                                 |
\*---------------------------------------------------------------------------*/
FoamFile
{
    version     2.0;
    format      ascii;
    class       volScalarField::DimensionedInternalField;
    location    "0.0002";
    object      V0;
}
// * * * * * * * * * * * * * * * * * * * * * * * * * * * * * * * * * * * * * //

dimensions      [0 3 0 0 0 0 0];

value           nonuniform List<scalar> 
16000
(
7.16117e-11
7.03612e-11
6.91107e-11
6.78607e-11
6.66112e-11
6.53624e-11
6.41143e-11
6.28671e-11
6.16212e-11
6.03768e-11
7.03611e-11
6.91108e-11
6.78605e-11
6.66106e-11
6.53611e-11
6.41123e-11
6.28642e-11
6.1617e-11
6.0371e-11
5.91261e-11
6.91107e-11
6.78605e-11
6.66105e-11
6.53607e-11
6.41113e-11
6.28624e-11
6.16143e-11
6.0367e-11
5.91208e-11
5.78756e-11
6.78607e-11
6.66106e-11
6.53607e-11
6.4111e-11
6.28616e-11
6.16128e-11
6.03646e-11
5.91172e-11
5.78709e-11
5.66253e-11
6.66113e-11
6.53611e-11
6.41112e-11
6.28616e-11
6.16123e-11
6.03635e-11
5.91152e-11
5.78677e-11
5.66212e-11
5.53754e-11
6.53624e-11
6.41123e-11
6.28624e-11
6.16127e-11
6.03634e-11
5.91146e-11
5.78663e-11
5.66186e-11
5.5372e-11
5.41259e-11
6.41143e-11
6.28642e-11
6.16143e-11
6.03646e-11
5.91151e-11
5.78662e-11
5.66178e-11
5.537e-11
5.41231e-11
5.28766e-11
6.28671e-11
6.1617e-11
6.0367e-11
5.91172e-11
5.78677e-11
5.66186e-11
5.537e-11
5.41219e-11
5.28744e-11
5.16274e-11
6.16212e-11
6.0371e-11
5.91208e-11
5.78709e-11
5.66212e-11
5.53719e-11
5.4123e-11
5.28744e-11
5.1626e-11
5.03775e-11
6.03768e-11
5.91261e-11
5.78756e-11
5.66253e-11
5.53754e-11
5.41259e-11
5.28767e-11
5.16274e-11
5.03775e-11
4.91267e-11
7.1642e-11
7.03908e-11
6.91396e-11
6.78892e-11
6.66398e-11
6.53914e-11
6.41442e-11
6.28982e-11
6.16534e-11
6.041e-11
7.03907e-11
6.914e-11
6.78894e-11
6.66392e-11
6.53899e-11
6.41416e-11
6.28943e-11
6.16483e-11
6.04034e-11
5.9159e-11
6.91395e-11
6.78893e-11
6.66393e-11
6.53895e-11
6.41403e-11
6.28919e-11
6.16447e-11
6.03984e-11
5.91532e-11
5.79083e-11
6.78892e-11
6.66392e-11
6.53894e-11
6.414e-11
6.2891e-11
6.16426e-11
6.03951e-11
5.91486e-11
5.79031e-11
5.66577e-11
6.66398e-11
6.53899e-11
6.41402e-11
6.28909e-11
6.1642e-11
6.03936e-11
5.91459e-11
5.7899e-11
5.66532e-11
5.54072e-11
6.53914e-11
6.41416e-11
6.28919e-11
6.16425e-11
6.03935e-11
5.9145e-11
5.78972e-11
5.66499e-11
5.54034e-11
5.41568e-11
6.41442e-11
6.28943e-11
6.16447e-11
6.03951e-11
5.91458e-11
5.7897e-11
5.66488e-11
5.54011e-11
5.41537e-11
5.29061e-11
6.28982e-11
6.16483e-11
6.03985e-11
5.91487e-11
5.7899e-11
5.66497e-11
5.54008e-11
5.41521e-11
5.29034e-11
5.16545e-11
6.16534e-11
6.04034e-11
5.91533e-11
5.79032e-11
5.66532e-11
5.54034e-11
5.41536e-11
5.29034e-11
5.16526e-11
5.04005e-11
6.041e-11
5.91591e-11
5.79083e-11
5.66577e-11
5.54072e-11
5.41568e-11
5.29062e-11
5.16545e-11
5.04004e-11
4.91439e-11
7.16633e-11
7.04114e-11
6.91591e-11
6.79077e-11
6.66573e-11
6.54078e-11
6.41591e-11
6.29112e-11
6.16639e-11
6.04167e-11
7.04112e-11
6.91601e-11
6.79087e-11
6.66576e-11
6.54073e-11
6.41578e-11
6.29092e-11
6.16613e-11
6.04139e-11
5.91658e-11
6.9159e-11
6.79085e-11
6.6658e-11
6.54075e-11
6.41574e-11
6.29079e-11
6.16593e-11
6.04113e-11
5.91635e-11
5.79149e-11
6.79077e-11
6.66575e-11
6.54074e-11
6.41574e-11
6.29075e-11
6.16581e-11
6.04092e-11
5.91609e-11
5.79128e-11
5.66638e-11
6.66573e-11
6.54073e-11
6.41573e-11
6.29074e-11
6.16578e-11
6.04083e-11
5.91591e-11
5.79103e-11
5.66618e-11
5.54123e-11
6.54078e-11
6.41578e-11
6.29079e-11
6.1658e-11
6.04082e-11
5.91587e-11
5.79093e-11
5.66598e-11
5.54105e-11
5.41604e-11
6.41592e-11
6.29093e-11
6.16593e-11
6.04092e-11
5.9159e-11
5.7909e-11
5.66593e-11
5.54092e-11
5.41587e-11
5.29076e-11
6.29113e-11
6.16614e-11
6.04113e-11
5.91609e-11
5.79103e-11
5.66596e-11
5.54089e-11
5.41578e-11
5.29059e-11
5.16534e-11
6.16639e-11
6.04139e-11
5.91635e-11
5.79128e-11
5.66618e-11
5.54105e-11
5.41586e-11
5.29058e-11
5.16517e-11
5.03964e-11
6.04167e-11
5.91658e-11
5.79149e-11
5.66638e-11
5.54123e-11
5.41604e-11
5.29077e-11
5.16534e-11
5.03963e-11
4.9137e-11
7.1674e-11
7.04214e-11
6.91681e-11
6.79155e-11
6.66635e-11
6.54121e-11
6.41611e-11
6.29104e-11
6.16597e-11
6.04085e-11
7.04212e-11
6.91696e-11
6.79173e-11
6.6665e-11
6.54132e-11
6.41619e-11
6.2911e-11
6.16603e-11
6.04095e-11
5.91576e-11
6.9168e-11
6.79171e-11
6.66659e-11
6.54143e-11
6.41627e-11
6.29114e-11
6.16606e-11
6.04098e-11
5.91588e-11
5.79067e-11
6.79154e-11
6.66649e-11
6.54141e-11
6.41632e-11
6.29119e-11
6.16607e-11
6.04097e-11
5.91587e-11
5.79075e-11
5.66552e-11
6.66635e-11
6.54131e-11
6.41626e-11
6.29118e-11
6.16609e-11
6.04098e-11
5.91585e-11
5.79071e-11
5.66556e-11
5.54031e-11
6.54121e-11
6.41619e-11
6.29114e-11
6.16606e-11
6.04096e-11
5.91586e-11
5.79072e-11
5.66553e-11
5.54031e-11
5.41502e-11
6.41612e-11
6.2911e-11
6.16606e-11
6.04097e-11
5.91584e-11
5.79069e-11
5.66553e-11
5.54029e-11
5.41498e-11
5.28964e-11
6.29105e-11
6.16604e-11
6.04098e-11
5.91587e-11
5.79071e-11
5.6655e-11
5.54027e-11
5.41495e-11
5.28954e-11
5.16413e-11
6.16597e-11
6.04095e-11
5.91589e-11
5.79075e-11
5.66556e-11
5.5403e-11
5.41497e-11
5.28953e-11
5.16397e-11
5.03839e-11
6.04085e-11
5.91577e-11
5.79067e-11
5.66552e-11
5.54031e-11
5.41503e-11
5.28965e-11
5.16412e-11
5.03838e-11
4.91255e-11
7.16754e-11
7.04223e-11
6.91683e-11
6.79146e-11
6.66612e-11
6.54082e-11
6.41552e-11
6.29023e-11
6.16492e-11
6.03955e-11
7.04222e-11
6.91701e-11
6.79171e-11
6.66637e-11
6.54106e-11
6.41576e-11
6.29048e-11
6.16519e-11
6.03988e-11
5.91447e-11
6.91682e-11
6.79169e-11
6.6665e-11
6.54124e-11
6.41595e-11
6.29067e-11
6.1654e-11
6.04011e-11
5.91479e-11
5.78938e-11
6.79145e-11
6.66636e-11
6.54122e-11
6.41603e-11
6.29079e-11
6.16552e-11
6.04024e-11
5.91495e-11
5.78962e-11
5.66422e-11
6.66612e-11
6.54106e-11
6.41594e-11
6.29078e-11
6.16558e-11
6.04033e-11
5.91504e-11
5.78972e-11
5.66438e-11
5.53899e-11
6.54082e-11
6.41576e-11
6.29067e-11
6.16551e-11
6.04032e-11
5.91509e-11
5.7898e-11
5.66446e-11
5.53908e-11
5.41369e-11
6.41553e-11
6.29048e-11
6.1654e-11
6.04024e-11
5.91503e-11
5.78978e-11
5.6645e-11
5.53914e-11
5.41371e-11
5.28831e-11
6.29023e-11
6.1652e-11
6.04011e-11
5.91495e-11
5.78972e-11
5.66444e-11
5.53912e-11
5.41372e-11
5.28824e-11
5.16282e-11
6.16492e-11
6.03988e-11
5.91479e-11
5.78963e-11
5.66439e-11
5.53908e-11
5.4137e-11
5.28823e-11
5.16268e-11
5.0372e-11
6.03955e-11
5.91448e-11
5.78938e-11
5.66422e-11
5.53899e-11
5.41369e-11
5.28831e-11
5.16282e-11
5.03719e-11
4.91157e-11
7.16702e-11
7.0417e-11
6.91626e-11
6.79083e-11
6.66541e-11
6.54e-11
6.41459e-11
6.28918e-11
6.16375e-11
6.0383e-11
7.04168e-11
6.91646e-11
6.79111e-11
6.66572e-11
6.54032e-11
6.41492e-11
6.28953e-11
6.16413e-11
6.0387e-11
5.91323e-11
6.91625e-11
6.7911e-11
6.66586e-11
6.54054e-11
6.41517e-11
6.2898e-11
6.16442e-11
6.03902e-11
5.91361e-11
5.78814e-11
6.79082e-11
6.66571e-11
6.54053e-11
6.41528e-11
6.28996e-11
6.1646e-11
6.03923e-11
5.91384e-11
5.78843e-11
5.66299e-11
6.66541e-11
6.54032e-11
6.41516e-11
6.28995e-11
6.16468e-11
6.03936e-11
5.91399e-11
5.7886e-11
5.66319e-11
5.53778e-11
6.54e-11
6.41493e-11
6.28979e-11
6.1646e-11
6.03935e-11
5.91406e-11
5.78871e-11
5.66331e-11
5.53789e-11
5.41251e-11
6.41459e-11
6.28953e-11
6.16442e-11
6.03923e-11
5.91398e-11
5.78869e-11
5.66337e-11
5.53798e-11
5.41254e-11
5.28717e-11
6.28918e-11
6.16413e-11
6.03902e-11
5.91384e-11
5.7886e-11
5.66329e-11
5.53796e-11
5.41257e-11
5.28712e-11
5.16176e-11
6.16376e-11
6.03871e-11
5.91361e-11
5.78844e-11
5.66319e-11
5.53789e-11
5.41253e-11
5.28711e-11
5.16164e-11
5.03628e-11
6.0383e-11
5.91323e-11
5.78814e-11
5.66299e-11
5.53778e-11
5.41251e-11
5.28717e-11
5.16176e-11
5.03628e-11
4.91085e-11
7.16613e-11
7.04082e-11
6.91539e-11
6.78994e-11
6.6645e-11
6.53906e-11
6.41362e-11
6.28817e-11
6.16273e-11
6.03728e-11
7.04081e-11
6.91558e-11
6.79023e-11
6.66482e-11
6.5394e-11
6.41397e-11
6.28854e-11
6.16311e-11
6.03767e-11
5.91222e-11
6.91538e-11
6.79022e-11
6.66496e-11
6.53962e-11
6.41423e-11
6.28883e-11
6.16342e-11
6.038e-11
5.91258e-11
5.78714e-11
6.78994e-11
6.66481e-11
6.53961e-11
6.41434e-11
6.289e-11
6.16362e-11
6.03823e-11
5.91282e-11
5.78742e-11
5.66201e-11
6.6645e-11
6.5394e-11
6.41423e-11
6.28899e-11
6.16371e-11
6.03837e-11
5.91299e-11
5.78759e-11
5.6622e-11
5.53682e-11
6.53906e-11
6.41397e-11
6.28883e-11
6.16362e-11
6.03836e-11
5.91306e-11
5.78771e-11
5.66232e-11
5.53693e-11
5.41159e-11
6.41362e-11
6.28854e-11
6.16342e-11
6.03823e-11
5.91298e-11
5.78769e-11
5.66238e-11
5.53701e-11
5.41162e-11
5.28632e-11
6.28817e-11
6.16311e-11
6.038e-11
5.91283e-11
5.78759e-11
5.66231e-11
5.537e-11
5.41165e-11
5.28627e-11
5.161e-11
6.16273e-11
6.03767e-11
5.91258e-11
5.78742e-11
5.6622e-11
5.53692e-11
5.41161e-11
5.28627e-11
5.1609e-11
5.03564e-11
6.03728e-11
5.91222e-11
5.78714e-11
5.66201e-11
5.53683e-11
5.41159e-11
5.28632e-11
5.16099e-11
5.03563e-11
4.91033e-11
7.16511e-11
7.03983e-11
6.91443e-11
6.78901e-11
6.66359e-11
6.53816e-11
6.41274e-11
6.28732e-11
6.16191e-11
6.03652e-11
7.03982e-11
6.91461e-11
6.78928e-11
6.66389e-11
6.53848e-11
6.41307e-11
6.28766e-11
6.16225e-11
6.03686e-11
5.91146e-11
6.91442e-11
6.78927e-11
6.66402e-11
6.53869e-11
6.41332e-11
6.28793e-11
6.16254e-11
6.03715e-11
5.91176e-11
5.78639e-11
6.78901e-11
6.66388e-11
6.53868e-11
6.41342e-11
6.28809e-11
6.16273e-11
6.03736e-11
5.91199e-11
5.78662e-11
5.66127e-11
6.66359e-11
6.53848e-11
6.41331e-11
6.28809e-11
6.16281e-11
6.03749e-11
5.91214e-11
5.78678e-11
5.66143e-11
5.53612e-11
6.53816e-11
6.41307e-11
6.28793e-11
6.16273e-11
6.03748e-11
5.9122e-11
5.78689e-11
5.66154e-11
5.53621e-11
5.41093e-11
6.41274e-11
6.28766e-11
6.16254e-11
6.03736e-11
5.91213e-11
5.78688e-11
5.6616e-11
5.53628e-11
5.41095e-11
5.28571e-11
6.28732e-11
6.16225e-11
6.03715e-11
5.91199e-11
5.78678e-11
5.66153e-11
5.53627e-11
5.41098e-11
5.28567e-11
5.16046e-11
6.16191e-11
6.03686e-11
5.91176e-11
5.78662e-11
5.66143e-11
5.5362e-11
5.41095e-11
5.28567e-11
5.16038e-11
5.03518e-11
6.03652e-11
5.91146e-11
5.78639e-11
5.66127e-11
5.53612e-11
5.41093e-11
5.28571e-11
5.16046e-11
5.03518e-11
4.90996e-11
7.16412e-11
7.03887e-11
6.91352e-11
6.78814e-11
6.66276e-11
6.53738e-11
6.412e-11
6.28664e-11
6.16129e-11
6.03596e-11
7.03886e-11
6.91367e-11
6.78838e-11
6.66303e-11
6.53767e-11
6.4123e-11
6.28693e-11
6.16157e-11
6.03623e-11
5.91091e-11
6.91351e-11
6.78837e-11
6.66314e-11
6.53785e-11
6.41251e-11
6.28717e-11
6.16182e-11
6.03648e-11
5.91115e-11
5.78584e-11
6.78814e-11
6.66302e-11
6.53784e-11
6.4126e-11
6.28731e-11
6.16199e-11
6.03666e-11
5.91134e-11
5.78603e-11
5.66074e-11
6.66276e-11
6.53766e-11
6.41251e-11
6.2873e-11
6.16205e-11
6.03677e-11
5.91147e-11
5.78616e-11
5.66087e-11
5.53562e-11
6.53738e-11
6.4123e-11
6.28717e-11
6.16198e-11
6.03677e-11
5.91152e-11
5.78625e-11
5.66096e-11
5.53568e-11
5.41046e-11
6.41201e-11
6.28693e-11
6.16182e-11
6.03666e-11
5.91146e-11
5.78624e-11
5.661e-11
5.53574e-11
5.41048e-11
5.28528e-11
6.28664e-11
6.16157e-11
6.03648e-11
5.91134e-11
5.78616e-11
5.66095e-11
5.53573e-11
5.4105e-11
5.28525e-11
5.16008e-11
6.16129e-11
6.03623e-11
5.91115e-11
5.78603e-11
5.66087e-11
5.53568e-11
5.41047e-11
5.28525e-11
5.16002e-11
5.03487e-11
6.03596e-11
5.9109e-11
5.78584e-11
5.66074e-11
5.53562e-11
5.41046e-11
5.28528e-11
5.16008e-11
5.03487e-11
4.9097e-11
7.16323e-11
7.03802e-11
6.91272e-11
6.7874e-11
6.66207e-11
6.53674e-11
6.41142e-11
6.28611e-11
6.16082e-11
6.03555e-11
7.03801e-11
6.91285e-11
6.78759e-11
6.6623e-11
6.53698e-11
6.41166e-11
6.28635e-11
6.16105e-11
6.03577e-11
5.9105e-11
6.91272e-11
6.78759e-11
6.66239e-11
6.53713e-11
6.41185e-11
6.28655e-11
6.16125e-11
6.03597e-11
5.9107e-11
5.78544e-11
6.7874e-11
6.66229e-11
6.53713e-11
6.41192e-11
6.28667e-11
6.16139e-11
6.03612e-11
5.91085e-11
5.78559e-11
5.66036e-11
6.66207e-11
6.53698e-11
6.41184e-11
6.28666e-11
6.16145e-11
6.03621e-11
5.91095e-11
5.7857e-11
5.66046e-11
5.53525e-11
6.53674e-11
6.41166e-11
6.28655e-11
6.16139e-11
6.0362e-11
5.91099e-11
5.78577e-11
5.66053e-11
5.5353e-11
5.41012e-11
6.41142e-11
6.28635e-11
6.16125e-11
6.03611e-11
5.91095e-11
5.78576e-11
5.66056e-11
5.53535e-11
5.41014e-11
5.28498e-11
6.28611e-11
6.16105e-11
6.03597e-11
5.91085e-11
5.7857e-11
5.66052e-11
5.53534e-11
5.41015e-11
5.28496e-11
5.15982e-11
6.16082e-11
6.03577e-11
5.9107e-11
5.78559e-11
5.66046e-11
5.5353e-11
5.41013e-11
5.28495e-11
5.15977e-11
5.03465e-11
6.03555e-11
5.9105e-11
5.78544e-11
5.66036e-11
5.53525e-11
5.41012e-11
5.28498e-11
5.15982e-11
5.03465e-11
4.90951e-11
7.16248e-11
7.0373e-11
6.91205e-11
6.78678e-11
6.66151e-11
6.53623e-11
6.41097e-11
6.28571e-11
6.16047e-11
6.03525e-11
7.0373e-11
6.91216e-11
6.78694e-11
6.66169e-11
6.53643e-11
6.41116e-11
6.2859e-11
6.16065e-11
6.03542e-11
5.9102e-11
6.91205e-11
6.78694e-11
6.66177e-11
6.53655e-11
6.41131e-11
6.28606e-11
6.16081e-11
6.03558e-11
5.91036e-11
5.78515e-11
6.78678e-11
6.66169e-11
6.53655e-11
6.41137e-11
6.28615e-11
6.16093e-11
6.0357e-11
5.91047e-11
5.78527e-11
5.66008e-11
6.66151e-11
6.53643e-11
6.4113e-11
6.28615e-11
6.16097e-11
6.03577e-11
5.91056e-11
5.78535e-11
5.66015e-11
5.53499e-11
6.53623e-11
6.41116e-11
6.28606e-11
6.16092e-11
6.03576e-11
5.91059e-11
5.7854e-11
5.66021e-11
5.53503e-11
5.40988e-11
6.41097e-11
6.2859e-11
6.16081e-11
6.0357e-11
5.91055e-11
5.7854e-11
5.66024e-11
5.53506e-11
5.40989e-11
5.28476e-11
6.28571e-11
6.16065e-11
6.03558e-11
5.91047e-11
5.78535e-11
5.66021e-11
5.53506e-11
5.4099e-11
5.28474e-11
5.15963e-11
6.16047e-11
6.03542e-11
5.91036e-11
5.78527e-11
5.66015e-11
5.53502e-11
5.40988e-11
5.28474e-11
5.15959e-11
5.03449e-11
6.03525e-11
5.9102e-11
5.78515e-11
5.66008e-11
5.53499e-11
5.40988e-11
5.28476e-11
5.15963e-11
5.03449e-11
4.90937e-11
7.16187e-11
7.03672e-11
6.91151e-11
6.78629e-11
6.66106e-11
6.53583e-11
6.41061e-11
6.2854e-11
6.16021e-11
6.03503e-11
7.03672e-11
6.91159e-11
6.78641e-11
6.66121e-11
6.53599e-11
6.41077e-11
6.28555e-11
6.16035e-11
6.03516e-11
5.90998e-11
6.91151e-11
6.78641e-11
6.66127e-11
6.53609e-11
6.41088e-11
6.28568e-11
6.16048e-11
6.03528e-11
5.9101e-11
5.78493e-11
6.78629e-11
6.6612e-11
6.53608e-11
6.41093e-11
6.28575e-11
6.16056e-11
6.03537e-11
5.91019e-11
5.78502e-11
5.65987e-11
6.66106e-11
6.53599e-11
6.41088e-11
6.28575e-11
6.1606e-11
6.03543e-11
5.91026e-11
5.78509e-11
5.65993e-11
5.53479e-11
6.53583e-11
6.41077e-11
6.28568e-11
6.16056e-11
6.03543e-11
5.91028e-11
5.78513e-11
5.65997e-11
5.53482e-11
5.4097e-11
6.41061e-11
6.28555e-11
6.16048e-11
6.03537e-11
5.91025e-11
5.78512e-11
5.65999e-11
5.53485e-11
5.4097e-11
5.28459e-11
6.2854e-11
6.16035e-11
6.03528e-11
5.91019e-11
5.78508e-11
5.65996e-11
5.53484e-11
5.40971e-11
5.28458e-11
5.15948e-11
6.16021e-11
6.03516e-11
5.9101e-11
5.78502e-11
5.65992e-11
5.53482e-11
5.4097e-11
5.28458e-11
5.15945e-11
5.03437e-11
6.03503e-11
5.90998e-11
5.78493e-11
5.65987e-11
5.53479e-11
5.40969e-11
5.28459e-11
5.15948e-11
5.03437e-11
4.90927e-11
7.16138e-11
7.03625e-11
6.91108e-11
6.78589e-11
6.66071e-11
6.53552e-11
6.41034e-11
6.28516e-11
6.16e-11
6.03486e-11
7.03625e-11
6.91114e-11
6.786e-11
6.66082e-11
6.53564e-11
6.41046e-11
6.28528e-11
6.16011e-11
6.03496e-11
5.90981e-11
6.91108e-11
6.78599e-11
6.66087e-11
6.53572e-11
6.41055e-11
6.28538e-11
6.16021e-11
6.03505e-11
5.9099e-11
5.78476e-11
6.78589e-11
6.66082e-11
6.53572e-11
6.41059e-11
6.28544e-11
6.16028e-11
6.03513e-11
5.90998e-11
5.78483e-11
5.65971e-11
6.66071e-11
6.53564e-11
6.41055e-11
6.28544e-11
6.16031e-11
6.03517e-11
5.91003e-11
5.78488e-11
5.65975e-11
5.53464e-11
6.53552e-11
6.41046e-11
6.28538e-11
6.16028e-11
6.03517e-11
5.91005e-11
5.78492e-11
5.65978e-11
5.53466e-11
5.40956e-11
6.41034e-11
6.28528e-11
6.16021e-11
6.03513e-11
5.91002e-11
5.78491e-11
5.6598e-11
5.53468e-11
5.40956e-11
5.28447e-11
6.28516e-11
6.16011e-11
6.03505e-11
5.90997e-11
5.78488e-11
5.65978e-11
5.53468e-11
5.40957e-11
5.28446e-11
5.15937e-11
6.16e-11
6.03496e-11
5.9099e-11
5.78483e-11
5.65975e-11
5.53466e-11
5.40956e-11
5.28446e-11
5.15935e-11
5.03427e-11
6.03486e-11
5.90981e-11
5.78476e-11
5.6597e-11
5.53463e-11
5.40956e-11
5.28447e-11
5.15937e-11
5.03427e-11
4.90919e-11
7.16099e-11
7.03588e-11
6.91074e-11
6.78559e-11
6.66043e-11
6.53527e-11
6.41012e-11
6.28498e-11
6.15985e-11
6.03472e-11
7.03588e-11
6.91079e-11
6.78566e-11
6.66052e-11
6.53537e-11
6.41022e-11
6.28507e-11
6.15993e-11
6.0348e-11
5.90968e-11
6.91074e-11
6.78566e-11
6.66056e-11
6.53543e-11
6.41029e-11
6.28515e-11
6.16001e-11
6.03488e-11
5.90975e-11
5.78464e-11
6.78559e-11
6.66052e-11
6.53543e-11
6.41032e-11
6.2852e-11
6.16006e-11
6.03493e-11
5.90981e-11
5.78469e-11
5.65958e-11
6.66043e-11
6.53537e-11
6.41029e-11
6.28519e-11
6.16009e-11
6.03497e-11
5.90985e-11
5.78473e-11
5.65962e-11
5.53452e-11
6.53527e-11
6.41022e-11
6.28515e-11
6.16006e-11
6.03497e-11
5.90986e-11
5.78475e-11
5.65964e-11
5.53454e-11
5.40945e-11
6.41012e-11
6.28507e-11
6.16001e-11
6.03493e-11
5.90985e-11
5.78475e-11
5.65965e-11
5.53455e-11
5.40945e-11
5.28437e-11
6.28498e-11
6.15993e-11
6.03488e-11
5.90981e-11
5.78473e-11
5.65964e-11
5.53455e-11
5.40946e-11
5.28436e-11
5.15929e-11
6.15985e-11
6.0348e-11
5.90975e-11
5.78469e-11
5.65962e-11
5.53453e-11
5.40945e-11
5.28436e-11
5.15927e-11
5.0342e-11
6.03472e-11
5.90968e-11
5.78463e-11
5.65958e-11
5.53452e-11
5.40945e-11
5.28437e-11
5.15929e-11
5.0342e-11
4.90913e-11
7.16069e-11
7.03559e-11
6.91047e-11
6.78534e-11
6.66021e-11
6.53508e-11
6.40996e-11
6.28484e-11
6.15972e-11
6.03462e-11
7.03559e-11
6.91051e-11
6.78541e-11
6.66028e-11
6.53516e-11
6.41003e-11
6.28491e-11
6.15979e-11
6.03468e-11
5.90958e-11
6.91047e-11
6.7854e-11
6.66031e-11
6.53521e-11
6.41009e-11
6.28497e-11
6.15985e-11
6.03474e-11
5.90963e-11
5.78453e-11
6.78534e-11
6.66028e-11
6.5352e-11
6.41011e-11
6.28501e-11
6.15989e-11
6.03478e-11
5.90968e-11
5.78458e-11
5.65948e-11
6.66021e-11
6.53516e-11
6.41009e-11
6.285e-11
6.15991e-11
6.03481e-11
5.90971e-11
5.78461e-11
5.65951e-11
5.53443e-11
6.53508e-11
6.41003e-11
6.28497e-11
6.15989e-11
6.03481e-11
5.90972e-11
5.78463e-11
5.65953e-11
5.53444e-11
5.40936e-11
6.40996e-11
6.28491e-11
6.15985e-11
6.03478e-11
5.90971e-11
5.78463e-11
5.65954e-11
5.53445e-11
5.40937e-11
5.2843e-11
6.28484e-11
6.15979e-11
6.03474e-11
5.90968e-11
5.78461e-11
5.65953e-11
5.53445e-11
5.40937e-11
5.28429e-11
5.15922e-11
6.15972e-11
6.03468e-11
5.90963e-11
5.78458e-11
5.65951e-11
5.53444e-11
5.40936e-11
5.28429e-11
5.15921e-11
5.03415e-11
6.03462e-11
5.90958e-11
5.78453e-11
5.65948e-11
5.53443e-11
5.40936e-11
5.28429e-11
5.15922e-11
5.03415e-11
4.90908e-11
7.16045e-11
7.03537e-11
6.91026e-11
6.78515e-11
6.66004e-11
6.53493e-11
6.40983e-11
6.28473e-11
6.15963e-11
6.03454e-11
7.03537e-11
6.91029e-11
6.7852e-11
6.6601e-11
6.53499e-11
6.40989e-11
6.28478e-11
6.15968e-11
6.03459e-11
5.9095e-11
6.91026e-11
6.7852e-11
6.66012e-11
6.53503e-11
6.40993e-11
6.28483e-11
6.15973e-11
6.03463e-11
5.90954e-11
5.78446e-11
6.78515e-11
6.6601e-11
6.53503e-11
6.40995e-11
6.28486e-11
6.15976e-11
6.03467e-11
5.90958e-11
5.78449e-11
5.65941e-11
6.66004e-11
6.53499e-11
6.40993e-11
6.28486e-11
6.15977e-11
6.03469e-11
5.9096e-11
5.78451e-11
5.65943e-11
5.53435e-11
6.53493e-11
6.40989e-11
6.28483e-11
6.15976e-11
6.03469e-11
5.90961e-11
5.78453e-11
5.65945e-11
5.53437e-11
5.4093e-11
6.40983e-11
6.28478e-11
6.15973e-11
6.03467e-11
5.9096e-11
5.78453e-11
5.65945e-11
5.53438e-11
5.4093e-11
5.28424e-11
6.28472e-11
6.15968e-11
6.03463e-11
5.90958e-11
5.78451e-11
5.65944e-11
5.53437e-11
5.4093e-11
5.28423e-11
5.15917e-11
6.15963e-11
6.03459e-11
5.90954e-11
5.78449e-11
5.65943e-11
5.53437e-11
5.4093e-11
5.28423e-11
5.15916e-11
5.0341e-11
6.03454e-11
5.9095e-11
5.78446e-11
5.65941e-11
5.53435e-11
5.4093e-11
5.28424e-11
5.15917e-11
5.0341e-11
4.90904e-11
7.16026e-11
7.03519e-11
6.9101e-11
6.78501e-11
6.65991e-11
6.53482e-11
6.40973e-11
6.28464e-11
6.15955e-11
6.03448e-11
7.03519e-11
6.91012e-11
6.78504e-11
6.65995e-11
6.53486e-11
6.40977e-11
6.28468e-11
6.1596e-11
6.03451e-11
5.90944e-11
6.9101e-11
6.78504e-11
6.65997e-11
6.53489e-11
6.40981e-11
6.28472e-11
6.15963e-11
6.03455e-11
5.90947e-11
5.78439e-11
6.78501e-11
6.65995e-11
6.53489e-11
6.40982e-11
6.28474e-11
6.15966e-11
6.03458e-11
5.9095e-11
5.78442e-11
5.65935e-11
6.65991e-11
6.53486e-11
6.40981e-11
6.28474e-11
6.15967e-11
6.03459e-11
5.90951e-11
5.78444e-11
5.65937e-11
5.5343e-11
6.53482e-11
6.40977e-11
6.28472e-11
6.15966e-11
6.03459e-11
5.90952e-11
5.78445e-11
5.65938e-11
5.53431e-11
5.40925e-11
6.40973e-11
6.28468e-11
6.15963e-11
6.03458e-11
5.90951e-11
5.78445e-11
5.65938e-11
5.53432e-11
5.40925e-11
5.28419e-11
6.28464e-11
6.1596e-11
6.03455e-11
5.9095e-11
5.78444e-11
5.65938e-11
5.53431e-11
5.40925e-11
5.28418e-11
5.15913e-11
6.15955e-11
6.03451e-11
5.90947e-11
5.78442e-11
5.65937e-11
5.53431e-11
5.40925e-11
5.28418e-11
5.15912e-11
5.03407e-11
6.03448e-11
5.90944e-11
5.78439e-11
5.65935e-11
5.5343e-11
5.40924e-11
5.28419e-11
5.15913e-11
5.03407e-11
4.90901e-11
7.16011e-11
7.03505e-11
6.90997e-11
6.78489e-11
6.65981e-11
6.53473e-11
6.40965e-11
6.28457e-11
6.1595e-11
6.03443e-11
7.03505e-11
6.90999e-11
6.78492e-11
6.65984e-11
6.53476e-11
6.40968e-11
6.2846e-11
6.15953e-11
6.03446e-11
5.90939e-11
6.90997e-11
6.78492e-11
6.65986e-11
6.53478e-11
6.40971e-11
6.28463e-11
6.15956e-11
6.03448e-11
5.90941e-11
5.78435e-11
6.78489e-11
6.65984e-11
6.53478e-11
6.40972e-11
6.28465e-11
6.15958e-11
6.0345e-11
5.90943e-11
5.78437e-11
5.6593e-11
6.65981e-11
6.53476e-11
6.40971e-11
6.28465e-11
6.15958e-11
6.03452e-11
5.90945e-11
5.78438e-11
5.65932e-11
5.53426e-11
6.53473e-11
6.40968e-11
6.28463e-11
6.15958e-11
6.03452e-11
5.90945e-11
5.78439e-11
5.65932e-11
5.53426e-11
5.4092e-11
6.40965e-11
6.2846e-11
6.15956e-11
6.0345e-11
5.90945e-11
5.78439e-11
5.65933e-11
5.53427e-11
5.40921e-11
5.28415e-11
6.28457e-11
6.15953e-11
6.03448e-11
5.90943e-11
5.78438e-11
5.65932e-11
5.53427e-11
5.40921e-11
5.28415e-11
5.1591e-11
6.1595e-11
6.03446e-11
5.90941e-11
5.78437e-11
5.65931e-11
5.53426e-11
5.40921e-11
5.28415e-11
5.15909e-11
5.03404e-11
6.03443e-11
5.90939e-11
5.78435e-11
5.6593e-11
5.53425e-11
5.4092e-11
5.28415e-11
5.1591e-11
5.03404e-11
4.90899e-11
7.16e-11
7.03494e-11
6.90987e-11
6.7848e-11
6.65973e-11
6.53465e-11
6.40958e-11
6.28452e-11
6.15945e-11
6.03439e-11
7.03494e-11
6.90989e-11
6.78482e-11
6.65975e-11
6.53468e-11
6.40961e-11
6.28454e-11
6.15948e-11
6.03441e-11
5.90935e-11
6.90987e-11
6.78482e-11
6.65976e-11
6.5347e-11
6.40963e-11
6.28456e-11
6.1595e-11
6.03443e-11
5.90937e-11
5.78431e-11
6.7848e-11
6.65975e-11
6.5347e-11
6.40964e-11
6.28458e-11
6.15951e-11
6.03445e-11
5.90939e-11
5.78432e-11
5.65927e-11
6.65973e-11
6.53468e-11
6.40963e-11
6.28458e-11
6.15952e-11
6.03446e-11
5.9094e-11
5.78434e-11
5.65928e-11
5.53422e-11
6.53466e-11
6.40961e-11
6.28456e-11
6.15951e-11
6.03446e-11
5.9094e-11
5.78434e-11
5.65928e-11
5.53423e-11
5.40917e-11
6.40958e-11
6.28454e-11
6.1595e-11
6.03445e-11
5.9094e-11
5.78434e-11
5.65929e-11
5.53423e-11
5.40917e-11
5.28412e-11
6.28452e-11
6.15948e-11
6.03443e-11
5.90938e-11
5.78433e-11
5.65928e-11
5.53423e-11
5.40918e-11
5.28412e-11
5.15907e-11
6.15945e-11
6.03441e-11
5.90937e-11
5.78432e-11
5.65928e-11
5.53422e-11
5.40917e-11
5.28412e-11
5.15907e-11
5.03402e-11
6.03439e-11
5.90935e-11
5.78431e-11
5.65926e-11
5.53422e-11
5.40917e-11
5.28412e-11
5.15907e-11
5.03402e-11
4.90897e-11
7.15991e-11
7.03486e-11
6.90979e-11
6.78473e-11
6.65966e-11
6.5346e-11
6.40954e-11
6.28447e-11
6.15941e-11
6.03436e-11
7.03485e-11
6.9098e-11
6.78475e-11
6.65968e-11
6.53462e-11
6.40956e-11
6.28449e-11
6.15943e-11
6.03438e-11
5.90932e-11
6.90979e-11
6.78475e-11
6.65969e-11
6.53463e-11
6.40957e-11
6.28451e-11
6.15945e-11
6.03439e-11
5.90933e-11
5.78428e-11
6.78473e-11
6.65968e-11
6.53463e-11
6.40958e-11
6.28452e-11
6.15946e-11
6.0344e-11
5.90935e-11
5.78429e-11
5.65924e-11
6.65966e-11
6.53462e-11
6.40957e-11
6.28452e-11
6.15947e-11
6.03441e-11
5.90936e-11
5.7843e-11
5.65925e-11
5.53419e-11
6.5346e-11
6.40956e-11
6.28451e-11
6.15946e-11
6.03441e-11
5.90936e-11
5.78431e-11
5.65925e-11
5.5342e-11
5.40915e-11
6.40954e-11
6.28449e-11
6.15945e-11
6.0344e-11
5.90936e-11
5.7843e-11
5.65925e-11
5.5342e-11
5.40915e-11
5.2841e-11
6.28447e-11
6.15943e-11
6.03439e-11
5.90935e-11
5.7843e-11
5.65925e-11
5.5342e-11
5.40915e-11
5.2841e-11
5.15905e-11
6.15941e-11
6.03437e-11
5.90933e-11
5.78429e-11
5.65924e-11
5.5342e-11
5.40915e-11
5.2841e-11
5.15905e-11
5.034e-11
6.03436e-11
5.90932e-11
5.78428e-11
5.65924e-11
5.53419e-11
5.40915e-11
5.2841e-11
5.15905e-11
5.034e-11
4.90896e-11
7.15984e-11
7.03479e-11
6.90973e-11
6.78467e-11
6.65961e-11
6.53455e-11
6.4095e-11
6.28444e-11
6.15939e-11
6.03433e-11
7.03479e-11
6.90974e-11
6.78469e-11
6.65963e-11
6.53457e-11
6.40951e-11
6.28446e-11
6.1594e-11
6.03435e-11
5.90929e-11
6.90973e-11
6.78469e-11
6.65964e-11
6.53458e-11
6.40953e-11
6.28447e-11
6.15942e-11
6.03436e-11
5.90931e-11
5.78426e-11
6.78467e-11
6.65963e-11
6.53458e-11
6.40953e-11
6.28448e-11
6.15942e-11
6.03437e-11
5.90932e-11
5.78427e-11
5.65921e-11
6.65961e-11
6.53457e-11
6.40953e-11
6.28448e-11
6.15943e-11
6.03438e-11
5.90932e-11
5.78427e-11
5.65922e-11
5.53417e-11
6.53456e-11
6.40951e-11
6.28447e-11
6.15942e-11
6.03438e-11
5.90933e-11
5.78428e-11
5.65923e-11
5.53418e-11
5.40913e-11
6.4095e-11
6.28446e-11
6.15941e-11
6.03437e-11
5.90932e-11
5.78428e-11
5.65923e-11
5.53418e-11
5.40913e-11
5.28408e-11
6.28444e-11
6.1594e-11
6.03436e-11
5.90932e-11
5.78427e-11
5.65922e-11
5.53418e-11
5.40913e-11
5.28408e-11
5.15904e-11
6.15939e-11
6.03435e-11
5.90931e-11
5.78426e-11
5.65922e-11
5.53417e-11
5.40913e-11
5.28408e-11
5.15903e-11
5.03399e-11
6.03433e-11
5.90929e-11
5.78425e-11
5.65921e-11
5.53417e-11
5.40913e-11
5.28408e-11
5.15904e-11
5.03399e-11
4.90895e-11
7.15978e-11
7.03474e-11
6.90968e-11
6.78463e-11
6.65957e-11
6.53452e-11
6.40947e-11
6.28441e-11
6.15936e-11
6.03431e-11
7.03474e-11
6.90969e-11
6.78464e-11
6.65959e-11
6.53453e-11
6.40948e-11
6.28443e-11
6.15938e-11
6.03433e-11
5.90928e-11
6.90968e-11
6.78464e-11
6.65959e-11
6.53454e-11
6.40949e-11
6.28444e-11
6.15939e-11
6.03434e-11
5.90929e-11
5.78424e-11
6.78463e-11
6.65959e-11
6.53454e-11
6.40949e-11
6.28444e-11
6.15939e-11
6.03434e-11
5.90929e-11
5.78424e-11
5.6592e-11
6.65958e-11
6.53453e-11
6.40949e-11
6.28444e-11
6.1594e-11
6.03435e-11
5.9093e-11
5.78425e-11
5.6592e-11
5.53416e-11
6.53452e-11
6.40948e-11
6.28444e-11
6.15939e-11
6.03435e-11
5.9093e-11
5.78425e-11
5.65921e-11
5.53416e-11
5.40911e-11
6.40947e-11
6.28443e-11
6.15939e-11
6.03434e-11
5.9093e-11
5.78425e-11
5.65921e-11
5.53416e-11
5.40911e-11
5.28407e-11
6.28441e-11
6.15938e-11
6.03434e-11
5.90929e-11
5.78425e-11
5.6592e-11
5.53416e-11
5.40911e-11
5.28407e-11
5.15903e-11
6.15936e-11
6.03432e-11
5.90928e-11
5.78424e-11
5.6592e-11
5.53416e-11
5.40911e-11
5.28407e-11
5.15902e-11
5.03398e-11
6.03431e-11
5.90927e-11
5.78424e-11
5.6592e-11
5.53415e-11
5.40911e-11
5.28407e-11
5.15903e-11
5.03398e-11
4.90894e-11
7.15974e-11
7.03469e-11
6.90964e-11
6.78459e-11
6.65954e-11
6.53449e-11
6.40944e-11
6.28439e-11
6.15935e-11
6.0343e-11
7.03469e-11
6.90965e-11
6.7846e-11
6.65955e-11
6.5345e-11
6.40945e-11
6.2844e-11
6.15936e-11
6.03431e-11
5.90926e-11
6.90965e-11
6.7846e-11
6.65956e-11
6.53451e-11
6.40946e-11
6.28441e-11
6.15936e-11
6.03432e-11
5.90927e-11
5.78422e-11
6.7846e-11
6.65955e-11
6.53451e-11
6.40946e-11
6.28442e-11
6.15937e-11
6.03432e-11
5.90927e-11
5.78423e-11
5.65918e-11
6.65954e-11
6.5345e-11
6.40946e-11
6.28442e-11
6.15937e-11
6.03433e-11
5.90928e-11
5.78423e-11
5.65919e-11
5.53414e-11
6.53449e-11
6.40945e-11
6.28441e-11
6.15937e-11
6.03433e-11
5.90928e-11
5.78424e-11
5.65919e-11
5.53414e-11
5.4091e-11
6.40944e-11
6.2844e-11
6.15936e-11
6.03432e-11
5.90928e-11
5.78423e-11
5.65919e-11
5.53415e-11
5.4091e-11
5.28406e-11
6.28439e-11
6.15936e-11
6.03432e-11
5.90927e-11
5.78423e-11
5.65919e-11
5.53415e-11
5.4091e-11
5.28406e-11
5.15902e-11
6.15935e-11
6.03431e-11
5.90927e-11
5.78423e-11
5.65919e-11
5.53414e-11
5.4091e-11
5.28406e-11
5.15901e-11
5.03397e-11
6.0343e-11
5.90926e-11
5.78422e-11
5.65918e-11
5.53414e-11
5.4091e-11
5.28406e-11
5.15902e-11
5.03397e-11
4.90893e-11
7.15971e-11
7.03466e-11
6.90962e-11
6.78457e-11
6.65952e-11
6.53447e-11
6.40943e-11
6.28438e-11
6.15933e-11
6.03429e-11
7.03466e-11
6.90962e-11
6.78457e-11
6.65953e-11
6.53448e-11
6.40943e-11
6.28439e-11
6.15934e-11
6.03429e-11
5.90925e-11
6.90962e-11
6.78457e-11
6.65953e-11
6.53449e-11
6.40944e-11
6.28439e-11
6.15935e-11
6.0343e-11
5.90926e-11
5.78421e-11
6.78457e-11
6.65953e-11
6.53449e-11
6.40944e-11
6.2844e-11
6.15935e-11
6.03431e-11
5.90926e-11
5.78422e-11
5.65917e-11
6.65952e-11
6.53448e-11
6.40944e-11
6.2844e-11
6.15935e-11
6.03431e-11
5.90926e-11
5.78422e-11
5.65918e-11
5.53413e-11
6.53447e-11
6.40943e-11
6.28439e-11
6.15935e-11
6.03431e-11
5.90926e-11
5.78422e-11
5.65918e-11
5.53413e-11
5.40909e-11
6.40942e-11
6.28439e-11
6.15935e-11
6.03431e-11
5.90926e-11
5.78422e-11
5.65918e-11
5.53413e-11
5.40909e-11
5.28405e-11
6.28438e-11
6.15934e-11
6.0343e-11
5.90926e-11
5.78422e-11
5.65918e-11
5.53413e-11
5.40909e-11
5.28405e-11
5.15901e-11
6.15933e-11
6.03429e-11
5.90925e-11
5.78422e-11
5.65917e-11
5.53413e-11
5.40909e-11
5.28405e-11
5.15901e-11
5.03397e-11
6.03429e-11
5.90925e-11
5.78421e-11
5.65917e-11
5.53413e-11
5.40909e-11
5.28405e-11
5.15901e-11
5.03397e-11
4.90893e-11
7.15968e-11
7.03464e-11
6.90959e-11
6.78455e-11
6.6595e-11
6.53446e-11
6.40941e-11
6.28437e-11
6.15932e-11
6.03428e-11
7.03464e-11
6.9096e-11
6.78455e-11
6.65951e-11
6.53446e-11
6.40942e-11
6.28437e-11
6.15933e-11
6.03428e-11
5.90924e-11
6.90959e-11
6.78455e-11
6.65951e-11
6.53447e-11
6.40942e-11
6.28438e-11
6.15933e-11
6.03429e-11
5.90925e-11
5.7842e-11
6.78455e-11
6.65951e-11
6.53447e-11
6.40942e-11
6.28438e-11
6.15934e-11
6.03429e-11
5.90925e-11
5.78421e-11
5.65916e-11
6.6595e-11
6.53446e-11
6.40942e-11
6.28438e-11
6.15934e-11
6.03429e-11
5.90925e-11