/*--------------------------------*- C++ -*----------------------------------*\
| =========                 |                                                 |
| \\      /  F ield         | foam-extend: Open Source CFD                    |
|  \\    /   O peration     | Version:     3.1                                |
|   \\  /    A nd           | Web:         http://www.extend-project.de       |
|    \\/     M anipulation  |                                                 |
\*---------------------------------------------------------------------------*/
FoamFile
{
    version     2.0;
    format      ascii;
    class       volVectorField;
    location    "3.1";
    object      D;
}
// * * * * * * * * * * * * * * * * * * * * * * * * * * * * * * * * * * * * * //

dimensions      [0 1 0 0 0 0 0];

internalField   nonuniform List<vector> 
256
(
(0.000270656 0.000179512 0.000305776)
(0.000116067 3.48504e-05 9.15316e-05)
(0.00010294 -5.27631e-05 -0.000109554)
(0.000228855 -0.000198406 -0.000337345)
(0.00113139 0.000737513 0.00024915)
(0.000939258 0.000197754 8.81978e-05)
(0.000902844 -0.000231818 -0.000151453)
(0.00101561 -0.000769489 -0.000338023)
(0.00222062 0.00113885 0.00017087)
(0.00202772 0.000331826 3.98538e-05)
(0.00197795 -0.000378241 -0.000142903)
(0.0020663 -0.00118908 -0.000301317)
(0.00351665 0.00144832 5.81098e-05)
(0.00334233 0.000428558 -1.08725e-05)
(0.00328372 -0.000504012 -0.000127186)
(0.0033347 -0.00152962 -0.000225505)
(0.00494704 0.00165717 -5.64098e-05)
(0.00478985 0.000486939 -6.15674e-05)
(0.00472525 -0.000606717 -0.0001083)
(0.00474575 -0.00178123 -0.000143232)
(0.00644463 0.00178476 -0.000160724)
(0.00630301 0.000514172 -0.000108509)
(0.0062346 -0.000689376 -9.25955e-05)
(0.00623131 -0.00195925 -6.8093e-05)
(0.00795629 0.00185035 -0.0002468)
(0.00782507 0.000517894 -0.000152093)
(0.00775348 -0.000754037 -8.43309e-05)
(0.00773512 -0.00207744 -1.08993e-05)
(0.00945511 0.00187345 -0.000315265)
(0.00931617 0.000508361 -0.000194481)
(0.00923657 -0.000802293 -8.58508e-05)
(0.00921571 -0.00215292 1.77624e-05)
(0.000303692 0.000177771 0.000151785)
(0.000153159 3.6193e-05 4.72387e-05)
(0.000139913 -4.77431e-05 -6.36283e-05)
(0.000256795 -0.000186841 -0.000181151)
(0.00120303 0.00073299 0.000138976)
(0.000987213 0.000200682 4.33691e-05)
(0.00095308 -0.000221548 -9.95623e-05)
(0.00109139 -0.000752845 -0.000213155)
(0.0022728 0.00115224 9.04688e-05)
(0.00208013 0.000342388 1.18608e-05)
(0.00203291 -0.000374938 -0.000103545)
(0.0021232 -0.0011891 -0.00020084)
(0.00353604 0.00146725 1.38428e-05)
(0.00336407 0.000443052 -2.56704e-05)
(0.00330801 -0.000500422 -9.74787e-05)
(0.00335833 -0.00153082 -0.00015667)
(0.00492456 0.00168022 -6.92158e-05)
(0.00477254 0.000504943 -6.44495e-05)
(0.00471016 -0.000600569 -8.78217e-05)
(0.00472654 -0.00177969 -0.000102597)
(0.00638005 0.00180923 -0.000147253)
(0.00624465 0.000534559 -0.000101519)
(0.00617824 -0.000678483 -7.98579e-05)
(0.0061691 -0.00195088 -5.19382e-05)
(0.00785391 0.00187435 -0.000213226)
(0.00773035 0.000539287 -0.000136314)
(0.00766096 -0.000737456 -7.79761e-05)
(0.00763519 -0.00206008 -1.46689e-05)
(0.00932471 0.00189575 -0.00026487)
(0.00919378 0.000529247 -0.000168823)
(0.00911671 -0.000780786 -8.60044e-05)
(0.00908869 -0.002127 -1.36149e-06)
(0.000318582 0.000183294 7.32676e-05)
(0.000158909 3.8674e-05 2.19848e-05)
(0.000143761 -4.81978e-05 -3.73198e-05)
(0.000265279 -0.000190935 -9.68242e-05)
(0.00123454 0.000727031 6.71063e-05)
(0.00100002 0.000200961 1.51379e-05)
(0.000963749 -0.000214214 -6.40256e-05)
(0.00111599 -0.000740985 -0.00012704)
(0.00229865 0.00114421 3.51151e-05)
(0.00209184 0.000344823 -7.21458e-06)
(0.00204235 -0.000364749 -7.23385e-05)
(0.00214231 -0.00117001 -0.000125392)
(0.00354373 0.00145905 -1.63766e-05)
(0.00336218 0.000447833 -3.47114e-05)
(0.00330366 -0.00048688 -7.25523e-05)
(0.0033588 -0.00150495 -0.000101652)
(0.00490778 0.00167485 -7.4259e-05)
(0.00474914 0.000512848 -6.36974e-05)
(0.0046841 -0.00058363 -6.958e-05)
(0.00470192 -0.00174896 -6.92599e-05)
(0.00633646 0.00180847 -0.000130405)
(0.00619676 0.00054587 -9.21519e-05)
(0.00612764 -0.00065811 -6.74609e-05)
(0.00611731 -0.00191623 -3.80222e-05)
(0.007785 0.0018796 -0.000179135)
(0.00765922 0.000553792 -0.000119382)
(0.00758727 -0.000713986 -7.01288e-05)
(0.00755808 -0.00202264 -1.63312e-05)
(0.00923639 0.00190801 -0.000217241)
(0.00910506 0.000546522 -0.000144845)
(0.0090249 -0.000754916 -8.16943e-05)
(0.0089904 -0.00208787 -1.41943e-05)
(0.000323694 0.000186402 3.31605e-05)
(0.00015744 3.99193e-05 8.80227e-06)
(0.000140669 -4.83892e-05 -2.17504e-05)
(0.000265562 -0.000193075 -5.06197e-05)
(0.00124463 0.000722952 2.63846e-05)
(0.000998514 0.000201114 6.22911e-07)
(0.000959616 -0.000208535 -4.09786e-05)
(0.00111864 -0.000731286 -7.34176e-05)
(0.00230434 0.0011352 3.37176e-06)
(0.002087 0.000345717 -1.61004e-05)
(0.00203471 -0.000354288 -4.96623e-05)
(0.00214045 -0.00114997 -7.52169e-05)
(0.00353868 0.00144822 -3.19108e-05)
(0.00334887 0.000450355 -3.63258e-05)
(0.0032875 -0.000472123 -5.27418e-05)
(0.00334622 -0.00147677 -6.29124e-05)
(0.00488788 0.00166523 -7.2032e-05)
(0.00472305 0.000517885 -5.78185e-05)
(0.00465515 -0.000565135 -5.34643e-05)
(0.0046745 -0.00171508 -4.44213e-05)
(0.00629968 0.00180245 -0.00011188)
(0.00615556 0.00055404 -7.93538e-05)
(0.00608362 -0.000636499 -5.4759e-05)
(0.00607301 -0.00187871 -2.63022e-05)
(0.00773147 0.00187889 -0.000147388)
(0.0076028 0.000565275 -0.000100434)
(0.00752804 -0.000689937 -5.97791e-05)
(0.00749685 -0.00198314 -1.49675e-05)
(0.00916907 0.00191331 -0.00017538)
(0.00903567 0.000561298 -0.000120431)
(0.00895182 -0.000729001 -7.20928e-05)
(0.00891297 -0.00204748 -1.8854e-05)
(0.00032504 0.000187772 1.33825e-05)
(0.000154818 4.05876e-05 2.51769e-06)
(0.000136897 -4.83159e-05 -1.24521e-05)
(0.000263432 -0.000193582 -2.5587e-05)
(0.00124556 0.000720163 5.9552e-06)
(0.000992398 0.000201555 -5.3431e-06)
(0.000951383 -0.000204047 -2.58488e-05)
(0.0011136 -0.000723217 -4.11645e-05)
(0.00230082 0.00112891 -1.104e-05)
(0.00207659 0.000346801 -1.78503e-05)
(0.00202202 -0.000345455 -3.32748e-05)
(0.00213071 -0.0011336 -4.35532e-05)
(0.00352785 0.00144028 -3.53685e-05)
(0.00333218 0.000452724 -3.25275e-05)
(0.00326856 -0.000459319 -3.7084e-05)
(0.00332933 -0.00145337 -3.73321e-05)
(0.00486751 0.00165777 -6.29538e-05)
(0.00469802 0.000522202 -4.81358e-05)
(0.00462794 -0.000548934 -3.93421e-05)
(0.00464827 -0.00168645 -2.7117e-05)
(0.00626836 0.00179731 -9.07581e-05)
(0.0061207 0.000560782 -6.40098e-05)
(0.00604668 -0.000617559 -4.20852e-05)
(0.00603599 -0.00184662 -1.71476e-05)
(0.00768876 0.00187733 -0.000116061)
(0.00755755 0.000574594 -7.98401e-05)
(0.00748068 -0.000668924 -4.76465e-05)
(0.0074483 -0.00194901 -1.19853e-05)
(0.00911592 0.00191581 -0.000136125)
(0.00898053 0.0005732 -9.50262e-05)
(0.00889385 -0.000706378 -5.87408e-05)
(0.00885223 -0.00201228 -1.80919e-05)
(0.000325117 0.000188312 4.35031e-06)
(0.000152611 4.09653e-05 -1.8211e-08)
(0.000133914 -4.81346e-05 -6.85812e-06)
(0.000261098 -0.000193384 -1.22852e-05)
(0.00124344 0.000718346 -2.30202e-06)
(0.000986086 0.000202133 -6.36689e-06)
(0.000943565 -0.000200682 -1.56244e-05)
(0.00110717 -0.000716997 -2.20452e-05)
(0.00229466 0.00112507 -1.42676e-05)
(0.00206613 0.000348055 -1.51719e-05)
(0.00200993 -0.000338742 -2.11432e-05)
(0.00212004 -0.00112152 -2.40013e-05)
(0.00351645 0.00143545 -3.03999e-05)
(0.00331695 0.00045503 -2.5233e-05)
(0.00325175 -0.000449496 -2.4481e-05)
(0.00331357 -0.00143611 -2.09662e-05)
(0.00484977 0.0016532 -4.85498e-05)
(0.0046771 0.00052595 -3.59134e-05)
(0.00460554 -0.000536428 -2.68908e-05)
(0.0046264 -0.00166513 -1.55527e-05)
(0.0062434 0.00179412 -6.69972e-05)
(0.00609323 0.000566244 -4.68836e-05)
(0.00601781 -0.000602887 -2.97037e-05)
(0.00600708 -0.00182242 -1.03841e-05)
(0.007656 0.00187629 -8.40317e-05)
(0.0075229 0.000581836 -5.7964e-05)
(0.00744463 -0.000652614 -3.4498e-05)
(0.00741156 -0.00192296 -8.4642e-06)
(0.0090755 0.00191724 -9.76022e-05)
(0.00893846 0.000582232 -6.86714e-05)
(0.00884991 -0.000688775 -4.31168e-05)
(0.00880669 -0.00198511 -1.42535e-05)
(0.000324895 0.000188484 8.78455e-07)
(0.00015115 4.11741e-05 -6.10882e-07)
(0.00013197 -4.79592e-05 -3.39108e-06)
(0.000259343 -0.000193024 -5.32053e-06)
(0.00124107 0.00071725 -3.66811e-06)
(0.000981383 0.000202636 -4.68983e-06)
(0.000937907 -0.000198435 -8.33802e-06)
(0.00110205 -0.00071279 -1.05946e-05)
(0.00228928 0.00112294 -1.08431e-05)
(0.00205826 0.000349125 -9.95126e-06)
(0.00200102 -0.000334261 -1.17031e-05)
(0.00211176 -0.00111361 -1.18077e-05)
(0.00350757 0.00143285 -2.01304e-05)
(0.00330578 0.000456868 -1.58563e-05)
(0.00323959 -0.000442923 -1.39183e-05)
(0.0033019 -0.00142487 -1.04555e-05)
(0.00483688 0.00165078 -3.05054e-05)
(0.00466227 0.000528752 -2.21133e-05)
(0.00458979 -0.000528036 -1.56529e-05)
(0.0046109 -0.00165119 -7.8662e-06)
(0.006226 0.00179246 -4.10955e-05)
(0.00607425 0.000570133 -2.85776e-05)
(0.00599799 -0.000593017 -1.76586e-05)
(0.00598722 -0.00180647 -5.46938e-06)
(0.00763364 0.00187582 -5.0961e-05)
(0.0074993 0.000586826 -3.51553e-05)
(0.00742019 -0.000641618 -2.08419e-05)
(0.00738675 -0.00190563 -4.9641e-06)
(0.00904804 0.00191812 -5.88411e-05)
(0.00890988 0.000588322 -4.15333e-05)
(0.0088202 -0.00067688 -2.62562e-05)
(0.00877613 -0.00196688 -8.942e-06)
(0.00032472 0.000188523 3.62149e-08)
(0.000150436 4.12679e-05 -2.91944e-07)
(0.000131026 -4.78564e-05 -1.0181e-06)
(0.00025843 -0.000192787 -1.46311e-06)
(0.00123966 0.000716734 -1.57124e-06)
(0.000978933 0.00020292 -1.69383e-06)
(0.000934996 -0.000197311 -2.61564e-06)
(0.0010993 -0.000710673 -3.12187e-06)
(0.00228627 0.00112201 -3.96725e-06)
(0.00205411 0.00034973 -3.44642e-06)
(0.00199637 -0.000332022 -3.74357e-06)
(0.00210735 -0.0011097 -3.52782e-06)
(0.00350279 0.00143173 -7.00725e-06)
(0.00329993 0.00045788 -5.39632e-06)
(0.00323327 -0.000439639 -4.51431e-06)
(0.00329577 -0.00141935 -3.14679e-06)
(0.00483013 0.00164976 -1.03899e-05)
(0.0046546 0.000530249 -7.46031e-06)
(0.00458169 -0.000523839 -5.13785e-06)
(0.0046029 -0.00164433 -2.3846e-06)
(0.00621705 0.00179179 -1.3849e-05)
(0.00606455 0.000572159 -9.59835e-06)
(0.00598789 -0.000588074 -5.85694e-06)
(0.0059771 -0.00179859 -1.69538e-06)
(0.00762224 0.00187564 -1.70849e-05)
(0.00748732 0.000589377 -1.1781e-05)
(0.00740781 -0.000636101 -6.96663e-06)
(0.00737421 -0.00189702 -1.6283e-06)
(0.00903407 0.00191849 -1.96723e-05)
(0.00889538 0.000591404 -1.38994e-05)
(0.00880518 -0.000670895 -8.80824e-06)
(0.00876074 -0.00195778 -3.03148e-06)
)
;

boundaryField
{
    interface
    {
        type            tractionDisplacement;
        gradient        nonuniform List<vector> 
192
(
(0.0255158 0.035186 0.000711214)
(0.0122216 0.034993 0.00164991)
(0.0135812 0.0461046 0.000488935)
(0.0111794 0.0524676 -0.001495)
(0.00952766 0.0570054 -0.00356685)
(0.00798536 0.0592171 -0.00552313)
(0.00710806 0.0599665 -0.00709548)
(0.00664893 0.0608706 -0.00796346)
(0.025993 0.0374004 0.000492344)
(0.0141231 0.0349386 0.00126343)
(0.0137564 0.0446754 0.000718163)
(0.0115468 0.050851 -0.000458197)
(0.00977832 0.0552687 -0.00179513)
(0.00829181 0.057676 -0.00315273)
(0.00744004 0.0587915 -0.00433012)
(0.00694954 0.0604162 -0.00507603)
(0.0270152 0.0387361 0.000117645)
(0.0147406 0.0350202 0.000376863)
(0.0142059 0.04393 7.77951e-05)
(0.0117661 0.0498553 -0.00056413)
(0.00980722 0.0541381 -0.00140545)
(0.00820754 0.0566064 -0.00229639)
(0.00729987 0.057912 -0.00311505)
(0.00665387 0.0599714 -0.00369401)
(0.0276543 0.0393405 -6.15844e-05)
(0.015229 0.0349953 -6.57639e-05)
(0.0146755 0.0435505 -0.00030075)
(0.01211 0.0492355 -0.000700262)
(0.0100202 0.0534145 -0.00122346)
(0.00831899 0.0558846 -0.00179916)
(0.00734529 0.0572822 -0.00235725)
(0.0066053 0.059579 -0.00279487)
(0.0279846 0.0395725 -0.000120199)
(0.0155486 0.0349141 -0.000231924)
(0.0150105 0.0432985 -0.000432861)
(0.0123895 0.0488486 -0.000706728)
(0.010226 0.0529542 -0.00104585)
(0.00845657 0.0554062 -0.00142371)
(0.00743349 0.0568375 -0.00180834)
(0.00662085 0.0592541 -0.00213801)
(0.0281426 0.039637 -0.00011349)
(0.0157426 0.0348169 -0.000238001)
(0.0152278 0.0431164 -0.000394893)
(0.0125852 0.0485979 -0.000582644)
(0.0103839 0.0526592 -0.000802186)
(0.00857551 0.0550914 -0.00104613)
(0.00752248 0.0565279 -0.00130177)
(0.00667065 0.0590019 -0.00153211)
(0.0282118 0.0396402 -7.60846e-05)
(0.0158493 0.0347365 -0.000165138)
(0.0153539 0.0429935 -0.000264765)
(0.0127044 0.0484422 -0.000376693)
(0.0104851 0.0524797 -0.000502748)
(0.00865625 0.054897 -0.000642026)
(0.00758683 0.0563299 -0.000790099)
(0.00671434 0.0588304 -0.000927009)
(0.0282364 0.0396321 -2.6291e-05)
(0.0158954 0.0346922 -5.80267e-05)
(0.0154103 0.0429313 -9.20928e-05)
(0.0127591 0.0483666 -0.000129461)
(0.0105327 0.0523938 -0.000170839)
(0.00869528 0.0548038 -0.000216429)
(0.00761802 0.0562337 -0.000265126)
(0.00673568 0.0587417 -0.000310564)
(-0.00195978 0.0124464 0.0136568)
(-0.00373533 -0.00389933 0.00204521)
(-0.0016833 -0.00343442 0.00335928)
(0.000515351 -0.00469574 0.00155774)
(0.00310497 -0.0045684 0.00052968)
(0.00545785 -0.00409865 -0.000466344)
(0.00734499 -0.00342129 -0.00110377)
(0.0087327 -0.00230639 -0.00189836)
(-0.00482027 0.00461004 0.0029972)
(-0.00856134 -0.00155366 0.000612329)
(-0.00597537 -0.00132957 0.000403916)
(-0.00328288 -0.00175587 -0.000169358)
(-0.000277929 -0.00181739 -0.000541839)
(0.00242625 -0.00182071 -0.000866208)
(0.00470223 -0.00182971 -0.00111223)
(0.00657697 -0.00157363 -0.00164049)
(-0.00517616 -0.0063269 -0.00379553)
(-0.00903231 0.000904814 -0.000896185)
(-0.00658634 0.000864673 -0.00120945)
(-0.00388655 0.00127517 -0.000954342)
(-0.000901163 0.00104076 -0.000786461)
(0.00183058 0.000616953 -0.000582509)
(0.00418279 5.28432e-05 -0.000402947)
(0.00603775 -0.00056239 7.84738e-06)
(-0.00326388 -0.015818 -0.013535)
(-0.00533165 0.00257776 -0.00244679)
(-0.00382788 0.0025728 -0.00409698)
(-0.00173378 0.00390669 -0.0025879)
(0.000743 0.00360445 -0.00174625)
(0.00309148 0.00289253 -0.000862497)
(0.00509354 0.00179897 -0.000185414)
(0.00652991 0.000221956 0.000572813)
(0.0211714 -0.0337613 -0.00155885)
(0.00861111 -0.034479 -0.00339033)
(0.00843107 -0.0466803 -0.00290136)
(0.00515962 -0.0531957 -0.0011559)
(0.00285899 -0.0576229 0.000850702)
(0.000985429 -0.059502 0.00290622)
(-0.000118807 -0.0596454 0.00471741)
(-0.000337762 -0.0588681 0.00598759)
(0.0207993 -0.0363846 -0.00087747)
(0.0102097 -0.0351315 -0.00191369)
(0.00834029 -0.0454365 -0.00160994)
(0.0052317 -0.0516794 -0.000482923)
(0.00280081 -0.0558702 0.000881645)
(0.000928895 -0.0578412 0.00232597)
(-0.000220864 -0.0582453 0.00363633)
(-0.000396824 -0.0579536 0.00469684)
(0.0214776 -0.0376421 -0.000352553)
(0.0107644 -0.0354014 -0.000695693)
(0.00882644 -0.0447516 -0.000480791)
(0.00554288 -0.0506917 0.000152763)
(0.00293399 -0.0546883 0.00102599)
(0.000923343 -0.0566642 0.00197953)
(-0.000346494 -0.0571839 0.00290577)
(-0.00070927 -0.0570402 0.0037433)
(0.0218655 -0.0380419 -8.7111e-05)
(0.0111591 -0.0353947 -0.000102591)
(0.00921099 -0.0443911 0.000109844)
(0.00582861 -0.0500725 0.000518943)
(0.00309351 -0.0539313 0.00106946)
(0.000967378 -0.0558642 0.00169025)
(-0.000411724 -0.0563976 0.00232706)
(-0.000890746 -0.0562708 0.00294971)
(0.0220146 -0.0380511 2.18256e-05)
(0.0113966 -0.0352799 0.000130607)
(0.00944995 -0.044129 0.000327757)
(0.00601873 -0.0496777 0.000614017)
(0.00321145 -0.0534449 0.000973461)
(0.00100757 -0.0553273 0.00138116)
(-0.000450456 -0.0558346 0.00181495)
(-0.00100195 -0.0556721 0.00226547)
(0.0220462 -0.0379291 5.06695e-05)
(0.011526 -0.035142 0.000176574)
(0.00958559 -0.043928 0.000334644)
(0.00613154 -0.0494157 0.000532526)
(0.003285 -0.0531295 0.000765601)
(0.00103568 -0.0549713 0.00102731)
(-0.000470802 -0.0554454 0.00131088)
(-0.00105791 -0.0552375 0.00161524)
(0.0220355 -0.0378028 4.14274e-05)
(0.0115896 -0.0350298 0.000132211)
(0.00965602 -0.0437885 0.000233466)
(0.00619255 -0.0492499 0.000351615)
(0.00332598 -0.0529356 0.000485173)
(0.00105243 -0.0547511 0.000633363)
(-0.000480475 -0.0551995 0.00079525)
(-0.00108388 -0.0549555 0.000971576)
(0.022022 -0.0377288 1.53951e-05)
(0.0116151 -0.0349686 4.78447e-05)
(0.00968562 -0.0437168 8.2591e-05)
(0.00621899 -0.0491685 0.000122024)
(0.00334406 -0.0528423 0.000165759)
(0.00106012 -0.0546451 0.00021396)
(-0.000484015 -0.0550801 0.000266819)
(-0.00109383 -0.0548168 0.000324612)
(0.0607752 0.000475746 -0.0016258)
(0.0605118 0.000290653 -0.00088691)
(0.0602424 0.000669466 -0.000659759)
(0.0599441 0.000900805 -0.00041711)
(0.0596548 0.00107882 -0.000279632)
(0.0594189 0.00118655 -0.000182943)
(0.0592543 0.0012472 -0.000106003)
(0.0591683 0.0012704 -3.4805e-05)
(0.0561346 0.000524508 -0.00102412)
(0.0559511 0.000395862 -0.000747731)
(0.055672 0.000523462 -0.000692802)
(0.0553318 0.000664995 -0.00057012)
(0.0549769 0.000791657 -0.000446828)
(0.0546802 0.000882748 -0.000319852)
(0.0544734 0.000940677 -0.000192023)
(0.0543697 0.000969458 -6.38163e-05)
(0.05535 -0.00165674 -0.000492679)
(0.0550691 -0.00145292 -0.000815677)
(0.0546107 -0.00137292 -0.000928477)
(0.0541335 -0.00129448 -0.000892505)
(0.0536937 -0.00122181 -0.000746957)
(0.053343 -0.00116106 -0.000550792)
(0.0531043 -0.00111774 -0.000334274)
(0.0529843 -0.00109433 -0.000111692)
(0.0578807 -0.00237754 -0.000229807)
(0.0572416 -0.00202917 -0.00119099)
(0.0564838 -0.00209454 -0.00141717)
(0.0558017 -0.00210929 -0.00137568)
(0.0552395 -0.00210265 -0.00114908)
(0.054819 -0.00207605 -0.000844875)
(0.0545417 -0.00204902 -0.000511565)
(0.0544038 -0.00203261 -0.000170884)
)
;
        traction        nonuniform List<vector> 
192
(
(22.2173 -0.734127 -2.33399)
(22.3537 -0.815106 -4.01818)
(22.296 -1.11054 -4.78897)
(22.4934 -1.15936 -5.20258)
(22.9493 -0.949998 -5.41589)
(23.5447 -0.389448 -5.43545)
(24.0453 0.72267 -5.19832)
(22.9931 2.53847 -4.51354)
(25.0464 -1.06954 -1.67327)
(25.5139 -1.16784 -2.89643)
(26.198 -1.51096 -3.45371)
(27.0728 -1.55242 -3.74125)
(28.0381 -1.26619 -3.8689)
(28.778 -0.529416 -3.83833)
(28.7642 0.919421 -3.61387)
(25.4858 3.15907 -3.10455)
(26.8787 -1.22578 -1.19463)
(27.3035 -1.31118 -2.0591)
(28.1286 -1.67053 -2.42484)
(29.1688 -1.69796 -2.59622)
(30.2465 -1.35184 -2.65611)
(30.9194 -0.496795 -2.61548)
(30.4908 1.14299 -2.45998)
(26.0815 3.55122 -2.14673)
(28.1973 -1.3043 -0.870046)
(28.5563 -1.37289 -1.50135)
(29.3953 -1.74088 -1.75649)
(30.4744 -1.75393 -1.86706)
(31.5512 -1.36537 -1.89829)
(32.1385 -0.434002 -1.86649)
(31.4296 1.32153 -1.76679)
(26.3443 3.81503 -1.56591)
(29.1499 -1.34812 -0.62423)
(29.4668 -1.40138 -1.08057)
(30.2935 -1.77216 -1.26095)
(31.3762 -1.77432 -1.33529)
(32.4223 -1.35717 -1.35417)
(32.9427 -0.377292 -1.33346)
(32.049 1.45315 -1.27195)
(26.5132 3.99996 -1.13984)
(29.8177 -1.37341 -0.422374)
(30.1086 -1.41455 -0.733225)
(30.9204 -1.78552 -0.854987)
(31.9958 -1.78034 -0.903879)
(33.0161 -1.34501 -0.91635)
(33.4883 -0.334097 -0.904169)
(32.4744 1.54532 -0.867462)
(26.6367 4.12693 -0.782428)
(30.2447 -1.38824 -0.24334)
(30.5229 -1.42099 -0.423806)
(31.3241 -1.7911 -0.493864)
(32.3922 -1.7814 -0.521651)
(33.3958 -1.33522 -0.529009)
(33.8373 -0.305222 -0.522644)
(32.7497 1.60461 -0.50153)
(26.7259 4.20495 -0.450483)
(30.4445 -1.39434 -0.0786905)
(30.7162 -1.42236 -0.137453)
(31.5084 -1.79155 -0.15999)
(32.5703 -1.78009 -0.168852)
(33.5663 -1.32889 -0.171276)
(33.9933 -0.288115 -0.169249)
(32.8587 1.63911 -0.161666)
(26.7277 4.23892 -0.143268)
(2.7715 0.528388 10.1928)
(4.79415 0.974419 6.87728)
(5.76734 0.938621 3.74006)
(6.41327 0.767874 1.40486)
(6.93568 0.661151 -0.120051)
(7.41473 0.720393 -0.886575)
(7.97261 0.96185 -0.907208)
(9.02336 1.23347 -0.103379)
(1.82327 0.483276 9.08378)
(3.31695 0.942265 7.71685)
(3.90775 1.07019 5.88093)
(4.21476 0.931148 4.37094)
(4.45371 0.716741 3.37089)
(4.7345 0.554074 2.87189)
(5.21881 0.484482 2.79559)
(6.4996 0.377359 2.82407)
(1.42662 0.398968 8.30401)
(2.78832 0.741564 7.83439)
(3.35919 0.94998 6.70501)
(3.61849 0.862119 5.65828)
(3.78889 0.63954 4.96707)
(4.00582 0.408922 4.6414)
(4.44186 0.223126 4.62389)
(5.67967 0.0164698 4.65427)
(1.34382 0.396154 7.2816)
(2.76555 0.651306 7.09828)
(3.4462 0.873202 6.19033)
(3.76311 0.800078 5.30256)
(3.95048 0.577683 4.70549)
(4.16409 0.3184 4.39154)
(4.57704 0.0470779 4.28951)
(5.72246 -0.312933 4.33661)
(-4.36682 0.429916 0.324962)
(-3.35348 0.723054 0.583327)
(-2.25102 0.915073 0.61366)
(-1.39294 0.876364 0.597661)
(-0.741804 0.713984 0.640038)
(-0.113123 0.505195 0.7788)
(0.95159 0.160504 1.02446)
(3.88801 -1.17424 1.34063)
(-5.11742 0.308457 -0.0712572)
(-4.92181 0.495201 -0.103751)
(-4.51567 0.685546 -0.169792)
(-4.07063 0.735201 -0.215562)
(-3.63635 0.697029 -0.195669)
(-3.10464 0.622525 -0.102638)
(-2.06822 0.44117 0.0449448)
(1.15133 -0.758457 0.243287)
(-5.5509 0.260448 -0.142186)
(-5.55994 0.384041 -0.21321)
(-5.35387 0.566341 -0.246098)
(-5.03858 0.665068 -0.248984)
(-4.64653 0.704599 -0.206093)
(-4.09069 0.714055 -0.12049)
(-3.00465 0.623019 -0.0175828)
(0.149456 -0.416844 0.0623337)
(-5.8611 0.246909 -0.134291)
(-5.92523 0.337276 -0.199727)
(-5.79919 0.516383 -0.209237)
(-5.53373 0.648612 -0.187828)
(-5.13812 0.744556 -0.135537)
(-4.52685 0.815391 -0.0612865)
(-3.34148 0.769624 0.0096941)
(-0.310662 -0.166854 0.0318562)
(-6.08839 0.244933 -0.104388)
(-6.16942 0.321228 -0.153759)
(-6.07593 0.503199 -0.150574)
(-5.82652 0.660146 -0.121159)
(-5.41526 0.794414 -0.0728607)
(-4.76218 0.903423 -0.0175042)
(-3.53338 0.885868 0.0222485)
(-0.580632 0.0140854 0.0185843)
(-6.2417 0.246908 -0.07009)
(-6.32557 0.31947 -0.101636)
(-6.24203 0.507083 -0.0935036)
(-5.99353 0.681261 -0.0665067)
(-5.56633 0.839321 -0.0293763)
(-4.88634 0.969883 0.00708814)
(-3.64406 0.967097 0.0264407)
(-0.749085 0.135447 0.010992)
(-6.33419 0.249472 -0.0390059)
(-6.41682 0.322528 -0.0555634)
(-6.33466 0.515512 -0.0484697)
(-6.08268 0.700469 -0.0303826)
(-5.64423 0.871741 -0.00771914)
(-4.94973 1.01328 0.0123675)
(-3.70377 1.01677 0.0204528)
(-0.852924 0.208945 0.00482584)
(-6.3762 0.251184 -0.0123326)
(-6.45689 0.325094 -0.0173344)
(-6.37449 0.520931 -0.0146644)
(-6.12037 0.710961 -0.00845143)
(-5.67691 0.888151 -0.00098627)
(-4.97705 1.03461 0.00533376)
(-3.72797 1.03921 0.00753577)
(-0.910702 0.243396 0.000816081)
(9.62895 -0.431049 -2.22066)
(9.2106 1.38978 -1.84752)
(9.26632 2.83752 -1.44425)
(9.41654 3.97069 -1.12252)
(9.56606 4.81315 -0.852309)
(9.68896 5.40859 -0.6068)
(9.77537 5.77502 -0.373444)
(9.81361 5.88115 -0.129356)
(6.84463 -2.5244 -0.674148)
(5.90132 -1.61102 -0.59883)
(5.69384 -0.611739 -0.454142)
(5.65891 0.215661 -0.354232)
(5.66825 0.8276 -0.277773)
(5.68843 1.25792 -0.203489)
(5.71122 1.53826 -0.124499)
(5.7344 1.69907 -0.0416315)
(5.76049 -4.14485 -0.00933462)
(4.65741 -3.50038 -0.0616442)
(4.30813 -2.76735 -0.0493581)
(4.15904 -2.17824 -0.0519113)
(4.08003 -1.75221 -0.055598)
(4.03361 -1.45913 -0.0491126)
(4.00766 -1.27273 -0.0308585)
(3.99576 -1.16673 -0.00940743)
(5.61575 -3.92726 0.406867)
(4.52116 -3.414 0.182067)
(4.11313 -2.96447 0.0866485)
(3.90509 -2.59719 0.0351347)
(3.7762 -2.33437 0.00324854)
(3.69213 -2.15914 -0.0110446)
(3.63974 -2.05204 -0.0111569)
(3.61118 -2.00304 -0.00417198)
)
;
        pressure        uniform 0;
        value           nonuniform List<vector> 
192
(
(0.000589603 0.000619337 0.000314666)
(0.00128416 0.00117492 0.000269774)
(0.00239039 0.00171515 0.000176981)
(0.00365639 0.00210417 3.94224e-05)
(0.00506614 0.00236973 -0.000100995)
(0.00654445 0.00252498 -0.000229763)
(0.00804514 0.00259993 -0.000335494)
(0.00953822 0.00263433 -0.000414808)
(0.000628605 0.000645276 0.000157939)
(0.00137957 0.00116972 0.000154769)
(0.00244476 0.00171068 9.94459e-05)
(0.00368037 0.00210289 8.11534e-06)
(0.00504679 0.00237108 -9.16549e-05)
(0.00648369 0.00253018 -0.000186662)
(0.00794691 0.00260924 -0.000267352)
(0.00941157 0.00265095 -0.00032832)
(0.000656272 0.000667495 7.47382e-05)
(0.0014188 0.00116478 7.18171e-05)
(0.00247622 0.00169333 3.60876e-05)
(0.00369081 0.00208224 -2.34282e-05)
(0.00503037 0.00235158 -9.18272e-05)
(0.00643905 0.00251605 -0.00015911)
(0.00787625 0.0026035 -0.000218073)
(0.00931956 0.00265766 -0.000263416)
(0.000669373 0.000678159 3.23907e-05)
(0.00143499 0.00116039 2.55626e-05)
(0.00248778 0.00167958 -3.87623e-07)
(0.00369005 0.00206366 -4.0664e-05)
(0.00501314 0.00233291 -8.73252e-05)
(0.00640367 0.00250101 -0.00013437)
(0.00782329 0.00259492 -0.000176853)
(0.00925163 0.00265804 -0.000210316)
(0.000674847 0.000682428 1.188e-05)
(0.00143992 0.00115659 3.05615e-06)
(0.00248845 0.00167014 -1.64508e-05)
(0.00368272 0.00205089 -4.42026e-05)
(0.00499534 0.0023197 -7.60269e-05)
(0.00637407 0.00248989 -0.000108554)
(0.00778168 0.0025878 -0.000138665)
(0.00919868 0.00265649 -0.00016285)
(0.0006769 0.000683774 2.93169e-06)
(0.00144022 0.00115356 -5.27703e-06)
(0.00248501 0.00166403 -1.92038e-05)
(0.00367377 0.00204292 -3.7683e-05)
(0.00497956 0.00231144 -5.85772e-05)
(0.00635059 0.00248276 -8.00738e-05)
(0.00775003 0.00258289 -0.000100304)
(0.00915888 0.00265476 -0.000116754)
(0.000677543 0.000683987 -7.26019e-08)
(0.00143919 0.00115146 -5.73234e-06)
(0.00248121 0.00166036 -1.41526e-05)
(0.00366638 0.00203837 -2.48391e-05)
(0.00496795 0.00230677 -3.67897e-05)
(0.0063342 0.00247868 -4.91208e-05)
(0.00772848 0.00257994 -6.08372e-05)
(0.00913197 0.0026535 -7.04287e-05)
(0.000677675 0.000683924 -2.92422e-07)
(0.00143835 0.00115039 -2.29657e-06)
(0.0024789 0.00165865 -5.11841e-06)
(0.00366227 0.00203632 -8.62551e-06)
(0.00496179 0.00230468 -1.25254e-05)
(0.00632575 0.00247684 -1.65543e-05)
(0.00771747 0.00257856 -2.0399e-05)
(0.00911827 0.00265276 -2.35544e-05)
(0.000246158 0.000335092 0.000476486)
(0.0010847 0.000688771 0.000274715)
(0.00219958 0.00109592 0.000212861)
(0.00352309 0.00138963 7.75815e-05)
(0.00498585 0.00160006 -4.97888e-05)
(0.00651285 0.00173353 -0.000166553)
(0.0080481 0.00180758 -0.000260597)
(0.00956427 0.00184462 -0.000338995)
(5.58133e-05 9.2476e-05 0.000128997)
(0.000832241 0.000178333 9.58519e-05)
(0.00195303 0.000315206 4.49027e-05)
(0.00330129 0.00040661 -1.29895e-05)
(0.00478638 0.000464222 -6.83404e-05)
(0.00633334 0.000491413 -0.000119336)
(0.00788385 0.000495022 -0.000165996)
(0.00939838 0.000488691 -0.000214987)
(3.8238e-05 -0.000131849 -0.000156998)
(0.00078994 -0.000220508 -0.000162656)
(0.00189562 -0.000367432 -0.000158021)
(0.00323514 -0.000488073 -0.000139115)
(0.00471398 -0.000593708 -0.000118131)
(0.00625749 -0.000681664 -9.98769e-05)
(0.00780576 -0.000753376 -8.93678e-05)
(0.00931204 -0.000809323 -8.57527e-05)
(0.000188056 -0.000396132 -0.000506533)
(0.00094896 -0.000737267 -0.000368608)
(0.00201846 -0.00115692 -0.00035253)
(0.00331303 -0.00148079 -0.000257853)
(0.00475504 -0.00173617 -0.00016506)
(0.00626995 -0.0019231 -7.88742e-05)
(0.00779879 -0.00205496 -1.3217e-05)
(0.00929733 -0.00215015 2.49226e-05)
(0.000493497 -0.000620423 -0.000356831)
(0.00112324 -0.00120048 -0.000380403)
(0.00217169 -0.00177258 -0.000337584)
(0.0033992 -0.00219457 -0.000239953)
(0.00478149 -0.00250151 -0.000132598)
(0.00624363 -0.00270303 -3.17652e-05)
(0.00773364 -0.00282301 4.80683e-05)
(0.00921149 -0.00288877 9.26073e-05)
(0.000516787 -0.000641649 -0.000192119)
(0.00121901 -0.00119199 -0.000237076)
(0.00222745 -0.00175706 -0.000220964)
(0.00342373 -0.00217681 -0.000162707)
(0.00476155 -0.00247807 -9.15767e-05)
(0.00618071 -0.0026739 -2.28636e-05)
(0.00763243 -0.00278815 3.07853e-05)
(0.00908373 -0.00285142 5.7349e-05)
(0.000533749 -0.000661461 -0.000101231)
(0.00125055 -0.0011835 -0.000135736)
(0.00225264 -0.00172941 -0.000131402)
(0.00342809 -0.0021386 -9.97425e-05)
(0.0047386 -0.00243256 -5.6435e-05)
(0.00612886 -0.00262453 -1.3278e-05)
(0.00755375 -0.00273744 1.99909e-05)
(0.00898154 -0.00280088 3.2597e-05)
(0.000538881 -0.000668599 -5.17085e-05)
(0.00125813 -0.00117372 -7.47e-05)
(0.00225559 -0.00170486 -7.38439e-05)
(0.00341908 -0.00210268 -5.64256e-05)
(0.00471317 -0.00238922 -3.1053e-05)
(0.0060851 -0.00257701 -5.17402e-06)
(0.0074917 -0.00268811 1.41207e-05)
(0.00890184 -0.00275086 1.80173e-05)
(0.000538615 -0.000669221 -2.53142e-05)
(0.00125606 -0.00116422 -3.9532e-05)
(0.00224883 -0.00168522 -3.94563e-05)
(0.00340456 -0.00207434 -2.96569e-05)
(0.00468842 -0.00235451 -1.49488e-05)
(0.00604859 -0.00253821 1.16902e-07)
(0.00744267 -0.00264695 1.07015e-05)
(0.00883971 -0.00270818 1.02264e-05)
(0.000536675 -0.000667497 -1.16518e-05)
(0.00125125 -0.00115627 -1.98381e-05)
(0.00223986 -0.00167062 -1.98182e-05)
(0.00339021 -0.00205381 -1.43096e-05)
(0.00466747 -0.00232925 -5.98272e-06)
(0.00602003 -0.00250956 2.45732e-06)
(0.00740567 -0.00261602 7.92177e-06)
(0.00879346 -0.00267558 5.9369e-06)
(0.000534787 -0.000665559 -4.80268e-06)
(0.00124692 -0.00115066 -8.94197e-06)
(0.00223246 -0.00166096 -8.88939e-06)
(0.0033793 -0.0020405 -6.0603e-06)
(0.00465248 -0.00231289 -1.80153e-06)
(0.00600037 -0.00249086 2.44766e-06)
(0.00738074 -0.00259562 4.97653e-06)
(0.00876258 -0.00265383 3.2027e-06)
(0.000533704 -0.000664397 -1.27068e-06)
(0.00124449 -0.00114778 -2.52381e-06)
(0.00222842 -0.00165616 -2.49543e-06)
(0.00337351 -0.00203395 -1.62149e-06)
(0.0046447 -0.00230486 -3.12603e-07)
(0.00599035 -0.00248165 9.79119e-07)
(0.00736816 -0.00258552 1.70694e-06)
(0.00874706 -0.00264299 1.02617e-06)
(0.0102148 0.0018794 -0.000335588)
(0.0100811 0.00189938 -0.000275956)
(0.00998942 0.00191638 -0.000225488)
(0.00991837 0.00192457 -0.000180594)
(0.00986161 0.0019293 -0.00013962)
(0.00981823 0.00193207 -9.9889e-05)
(0.00978872 0.00193371 -6.01661e-05)
(0.00977367 0.00193437 -2.01074e-05)
(0.0100179 0.000514918 -0.000207283)
(0.00989317 0.000534195 -0.000178169)
(0.00980096 0.000553065 -0.000153505)
(0.00972732 0.00056961 -0.000127557)
(0.00966774 0.000583096 -0.000100612)
(0.00962196 0.000593266 -7.26696e-05)
(0.00959079 0.000600081 -4.39336e-05)
(0.009575 0.000603522 -1.46971e-05)
(0.00992844 -0.000823002 -9.20092e-05)
(0.00980507 -0.000798947 -9.62003e-05)
(0.00970754 -0.000772078 -9.33002e-05)
(0.00962849 -0.000745182 -8.32491e-05)
(0.00956502 -0.00072165 -6.80777e-05)
(0.00951669 -0.000703288 -5.00017e-05)
(0.009484 -0.000690852 -3.04346e-05)