/*--------------------------------*- C++ -*----------------------------------*\
| =========                 |                                                 |
| \\      /  F ield         | foam-extend: Open Source CFD                    |
|  \\    /   O peration     | Version:     3.1                                |
|   \\  /    A nd           | Web:         http://www.extend-project.de       |
|    \\/     M anipulation  |                                                 |
\*---------------------------------------------------------------------------*/
FoamFile
{
    version     2.0;
    format      ascii;
    class       volVectorField;
    location    "3.1";
    object      D_0;
}
// * * * * * * * * * * * * * * * * * * * * * * * * * * * * * * * * * * * * * //

dimensions      [0 1 0 0 0 0 0];

internalField   nonuniform List<vector> 
256
(
(0.000275415 0.000182722 0.000311923)
(0.000117882 3.54818e-05 9.32978e-05)
(0.000104562 -5.38716e-05 -0.000112007)
(0.000233043 -0.000202473 -0.000344755)
(0.00115178 0.000750829 0.000256375)
(0.000956338 0.000201094 9.09458e-05)
(0.000919461 -0.000236806 -0.00015435)
(0.00103442 -0.000785051 -0.000345465)
(0.00226131 0.00115902 0.00017859)
(0.00206522 0.000336978 4.30126e-05)
(0.00201481 -0.000386703 -0.000144799)
(0.00210485 -0.00121327 -0.00030768)
(0.0035815 0.00147322 6.56211e-05)
(0.00340447 0.000434517 -7.2751e-06)
(0.00334509 -0.000515774 -0.000127776)
(0.00339699 -0.00156104 -0.000229778)
(0.00503817 0.00168455 -4.9168e-05)
(0.00487878 0.000492778 -5.75002e-05)
(0.00481334 -0.000621451 -0.000107464)
(0.00483416 -0.00181817 -0.000145217)
(0.00656272 0.00181284 -0.000153561)
(0.00641938 0.000519191 -0.000103856)
(0.00635016 -0.000706736 -9.03569e-05)
(0.00634674 -0.00200031 -6.79205e-05)
(0.00810086 0.00187783 -0.000239321)
(0.00796837 0.000521635 -0.000146649)
(0.00789606 -0.000773667 -8.07261e-05)
(0.00787736 -0.00212148 -8.86278e-06)
(0.00962492 0.00189959 -0.000306843)
(0.00948512 0.000510546 -0.000187929)
(0.00940506 -0.00082392 -8.08424e-05)
(0.00938391 -0.00219919 2.1395e-05)
(0.000309238 0.000180809 0.000155103)
(0.000156049 3.66915e-05 4.81973e-05)
(0.000142692 -4.88289e-05 -6.51606e-05)
(0.000261989 -0.000190694 -0.000185491)
(0.00122572 0.000745608 0.000143693)
(0.00100617 0.000203495 4.51264e-05)
(0.000971685 -0.000226757 -0.000101483)
(0.00111283 -0.000768474 -0.000218126)
(0.00231608 0.00117178 9.59683e-05)
(0.0021202 0.00034687 1.41709e-05)
(0.00207238 -0.000384056 -0.000104827)
(0.00216447 -0.00121398 -0.000205284)
(0.00360338 0.00149147 1.96064e-05)
(0.00342868 0.000448248 -2.28228e-05)
(0.00337185 -0.000513016 -9.77652e-05)
(0.00342312 -0.00156313 -0.000159744)
(0.00501782 0.00170689 -6.3317e-05)
(0.00486361 0.000509973 -6.10454e-05)
(0.00480037 -0.000616214 -8.69733e-05)
(0.00481701 -0.00181762 -0.000104018)
(0.00649989 0.00183653 -0.00014113)
(0.00636281 0.000538735 -9.74835e-05)
(0.00629552 -0.000696774 -7.78518e-05)
(0.00628617 -0.00199292 -5.17213e-05)
(0.00799994 0.00190098 -0.000206637)
(0.00787516 0.000542148 -0.000131505)
(0.00780499 -0.000758025 -7.48202e-05)
(0.00777878 -0.0021051 -1.29699e-05)
(0.00949588 0.001921 -0.00025741)
(0.00936412 0.000530541 -0.000163033)
(0.00928654 -0.000803353 -8.16986e-05)
(0.00925817 -0.00217426 1.63498e-06)
(0.000324466 0.000186447 7.51405e-05)
(0.000162075 3.91683e-05 2.2528e-05)
(0.000146868 -4.93497e-05 -3.82714e-05)
(0.000270972 -0.000194968 -9.94049e-05)
(0.00125833 0.000739427 7.01448e-05)
(0.00101986 0.000203525 1.62851e-05)
(0.00098334 -0.000219568 -6.52174e-05)
(0.00113884 -0.000756799 -0.000130204)
(0.00234339 0.00116331 3.89345e-05)
(0.00213323 0.000348889 -5.53136e-06)
(0.00208324 -0.000374189 -7.30933e-05)
(0.00218532 -0.00119517 -0.000128298)
(0.0036126 0.00148266 -1.20889e-05)
(0.00342828 0.000452489 -3.24829e-05)
(0.00336907 -0.000499916 -7.25652e-05)
(0.00342536 -0.00153761 -0.000103672)
(0.00500245 0.00170082 -6.96055e-05)
(0.00484167 0.000517266 -6.08981e-05)
(0.00477583 -0.000599796 -6.87117e-05)
(0.00479403 -0.00178729 -7.01282e-05)
(0.00645754 0.00183503 -0.000125353)
(0.00631625 0.000549394 -8.87301e-05)
(0.00624631 -0.00067697 -6.5664e-05)
(0.00623584 -0.00195873 -3.76869e-05)
(0.00793212 0.00190548 -0.000173557)
(0.00780523 0.00055599 -0.000115252)
(0.00773255 -0.000735149 -6.73995e-05)
(0.00770296 -0.00206819 -1.48628e-05)
(0.00940857 0.0019325 -0.000210901)
(0.00927653 0.000547158 -0.0001399)
(0.00919592 -0.000778088 -7.80668e-05)
(0.00916109 -0.00213573 -1.17373e-05)
(0.000329706 0.000189632 3.42482e-05)
(0.000160658 4.04163e-05 9.12252e-06)
(0.000143861 -4.9586e-05 -2.2331e-05)
(0.00027149 -0.000197249 -5.21513e-05)
(0.00126893 0.000735285 2.83546e-05)
(0.00101874 0.000203561 1.39465e-06)
(0.000979674 -0.000213982 -4.16882e-05)
(0.00114222 -0.000747269 -7.53788e-05)
(0.00234986 0.00115406 6.00469e-06)
(0.00212908 0.000349547 -1.48707e-05)
(0.00207637 -0.000363901 -5.00535e-05)
(0.00218448 -0.00117529 -7.70297e-05)
(0.00360845 0.00147142 -2.87827e-05)
(0.00341585 0.00045467 -3.46086e-05)
(0.00335386 -0.000485403 -5.2581e-05)
(0.00341392 -0.00150959 -6.41381e-05)
(0.00498349 0.0016907 -6.8469e-05)
(0.00481652 0.00052189 -5.55827e-05)
(0.0047479 -0.000581601 -5.26309e-05)
(0.00476777 -0.0017536 -4.48477e-05)
(0.00642165 0.00182846 -0.00010787)
(0.00627597 0.000557112 -7.65607e-05)
(0.00620329 -0.000655698 -5.3202e-05)
(0.00619264 -0.00192144 -2.58581e-05)
(0.00787941 0.0019042 -0.000142869)
(0.0077497 0.000567003 -9.70366e-05)
(0.00767429 -0.000711463 -5.74937e-05)
(0.00764275 -0.00202896 -1.36818e-05)
(0.00934199 0.0019372 -0.000170222)
(0.00920797 0.00056145 -0.000116383)
(0.00912375 -0.000752558 -6.91288e-05)
(0.00908463 -0.00209564 -1.68436e-05)
(0.000331092 0.000191045 1.40238e-05)
(0.000158026 4.10868e-05 2.71236e-06)
(0.000140099 -4.95417e-05 -1.27968e-05)
(0.000269475 -0.000197847 -2.64844e-05)
(0.0012701 0.000732484 7.22899e-06)
(0.00101278 0.000203947 -4.81915e-06)
(0.000971651 -0.000209552 -2.62515e-05)
(0.00113757 -0.000739325 -4.23455e-05)
(0.00234674 0.00114765 -9.2526e-06)
(0.00211902 0.000350504 -1.69662e-05)
(0.00206409 -0.000355166 -3.34427e-05)
(0.00217532 -0.00115904 -4.46336e-05)
(0.00359815 0.00146326 -3.31505e-05)
(0.00339966 0.000456841 -3.12475e-05)
(0.00333549 -0.000472737 -3.68488e-05)
(0.00339774 -0.00148629 -3.80172e-05)
(0.00496371 0.00168292 -6.03345e-05)
(0.00479208 0.000525953 -4.64289e-05)
(0.00472135 -0.00056557 -3.86098e-05)
(0.00474232 -0.00172508 -2.72514e-05)
(0.00639092 0.00182295 -8.77309e-05)
(0.00624174 0.000563565 -6.18476e-05)
(0.00616705 -0.000636953 -4.08124e-05)
(0.00615641 -0.00188946 -1.66676e-05)
(0.00783727 0.00190223 -0.000112599)
(0.00770507 0.000576013 -7.71984e-05)
(0.00762761 -0.000690662 -4.5831e-05)
(0.00759495 -0.00199495 -1.09026e-05)
(0.00928936 0.00193928 -0.000132162)
(0.0091534 0.000573025 -9.1893e-05)
(0.00906642 -0.00073016 -5.64341e-05)
(0.00902458 -0.00206059 -1.64994e-05)
(0.00033118 0.000191609 4.72257e-06)
(0.000155798 4.14656e-05 9.94683e-08)
(0.000137108 -4.93788e-05 -7.05305e-06)
(0.0002672 -0.000197703 -1.27923e-05)
(0.00126808 0.000730673 -1.50747e-06)
(0.00100653 0.0002045 -6.02373e-06)
(0.000963924 -0.000206221 -1.58382e-05)
(0.00113135 -0.000733188 -2.27224e-05)
(0.00234078 0.00114376 -1.31117e-05)
(0.00210873 0.000351694 -1.45713e-05)
(0.00205222 -0.00034851 -2.11925e-05)
(0.00216497 -0.00114704 -2.46071e-05)
(0.00358704 0.00145831 -2.89204e-05)
(0.0033847 0.000459039 -2.43437e-05)
(0.003319 -0.000462991 -2.42533e-05)
(0.0033824 -0.0014691 -2.13134e-05)
(0.00494632 0.00167818 -4.67579e-05)
(0.00477152 0.000529555 -3.47101e-05)
(0.00469935 -0.000553159 -2.63202e-05)
(0.00472093 -0.00170382 -1.55375e-05)
(0.00636634 0.00181954 -6.48888e-05)
(0.00621466 0.000568855 -4.53467e-05)
(0.00613862 -0.000622389 -2.87586e-05)
(0.00612801 -0.00186532 -9.95946e-06)
(0.00780489 0.00190095 -8.15966e-05)
(0.00767082 0.000583067 -5.60823e-05)
(0.007592 -0.000674466 -3.31786e-05)
(0.00755871 -0.00196894 -7.63545e-06)
(0.00924926 0.00194042 -9.48095e-05)
(0.0091117 0.000581851 -6.6448e-05)
(0.00902289 -0.000712679 -4.14663e-05)
(0.00897949 -0.00203346 -1.30884e-05)
(0.000330958 0.000191794 1.07322e-06)
(0.000154319 4.1675e-05 -5.46884e-07)
(0.000135154 -4.92142e-05 -3.48911e-06)
(0.000265476 -0.000197375 -5.57722e-06)
(0.00126575 0.000729585 -3.23155e-06)
(0.00100184 0.000204992 -4.49386e-06)
(0.000958302 -0.000203994 -8.43833e-06)
(0.00112633 -0.00072903 -1.09391e-05)
(0.0023355 0.00114162 -1.01927e-05)
(0.00210094 0.000352734 -9.60117e-06)
(0.00204341 -0.000344059 -1.17051e-05)
(0.00215687 -0.00113917 -1.21081e-05)
(0.00357831 0.00145566 -1.92815e-05)
(0.00337367 0.000460824 -1.53314e-05)
(0.00330701 -0.000456458 -1.37577e-05)
(0.00337097 -0.00145791 -1.06079e-05)
(0.00493363 0.00167567 -2.94609e-05)
(0.00475689 0.000532282 -2.13972e-05)
(0.00468383 -0.000544817 -1.5291e-05)
(0.00470571 -0.00168991 -7.8115e-06)
(0.00634916 0.00181777 -3.98531e-05)
(0.00619592 0.000572653 -2.76589e-05)
(0.00611905 -0.000612573 -1.70765e-05)
(0.00610845 -0.00184939 -5.17969e-06)
(0.00778274 0.00190033 -4.95176e-05)
(0.00764746 0.000587953 -3.40296e-05)
(0.00756782 -0.000663526 -2.00407e-05)
(0.0075342 -0.00195163 -4.44216e-06)
(0.009222 0.00194114 -5.71842e-05)
(0.00908333 0.000587825 -4.02069e-05)
(0.00899342 -0.000700844 -2.52642e-05)
(0.00894921 -0.00201525 -8.2291e-06)
(0.000330781 0.000191838 9.68721e-08)
(0.000153595 4.1769e-05 -2.71539e-07)
(0.000134204 -4.91163e-05 -1.04777e-06)
(0.000264575 -0.000197151 -1.5413e-06)
(0.00126436 0.000729074 -1.43188e-06)
(0.000999391 0.000205273 -1.62993e-06)
(0.000955404 -0.000202879 -2.64455e-06)
(0.00112363 -0.000726937 -3.2269e-06)
(0.00233253 0.00114068 -3.75722e-06)
(0.00209682 0.000353328 -3.33123e-06)
(0.00203881 -0.000341834 -3.73972e-06)
(0.00215253 -0.00113529 -3.61774e-06)
(0.00357359 0.00145453 -6.73047e-06)
(0.00336789 0.000461814 -5.22265e-06)
(0.00330077 -0.000453192 -4.4568e-06)
(0.00336494 -0.0014524 -3.18843e-06)
(0.00492697 0.00167462 -1.00468e-05)
(0.00474931 0.000533747 -7.22252e-06)
(0.00467583 -0.000540641 -5.01388e-06)
(0.00469784 -0.00168306 -2.35873e-06)
(0.00634032 0.00181705 -1.34387e-05)
(0.00618633 0.00057464 -9.2927e-06)
(0.00610908 -0.000607651 -5.66036e-06)
(0.00609848 -0.00184152 -1.59283e-06)
(0.00777145 0.00190009 -1.6607e-05)
(0.00763558 0.000590459 -1.14064e-05)
(0.00755557 -0.000658031 -6.69795e-06)
(0.00752181 -0.00194302 -1.44998e-06)
(0.00920812 0.00194144 -1.91235e-05)
(0.00906892 0.000590855 -1.34588e-05)
(0.00897851 -0.000694882 -8.47726e-06)
(0.00893395 -0.00200614 -2.79129e-06)
)
;

boundaryField
{
    interface
    {
        type            tractionDisplacement;
        gradient        nonuniform List<vector> 
192
(
(0.0012504 8.90088e-08 -6.27537e-06)
(0.00125106 2.32615e-07 -7.48491e-06)
(0.0012496 5.25483e-07 -7.47543e-06)
(0.00124673 8.45864e-07 -7.27339e-06)
(0.00124237 1.23213e-06 -6.95727e-06)
(0.00123606 1.75972e-06 -6.48764e-06)
(0.00122701 2.65546e-06 -5.77696e-06)
(0.00121237 4.4017e-06 -4.57372e-06)
(0.00127836 1.58951e-07 -4.18175e-06)
(0.00127813 3.40733e-07 -4.98588e-06)
(0.00127606 6.81215e-07 -4.94782e-06)
(0.00127234 1.07974e-06 -4.77587e-06)
(0.0012667 1.57845e-06 -4.5173e-06)
(0.00125852 2.26978e-06 -4.14438e-06)
(0.00124668 3.43378e-06 -3.60938e-06)
(0.00122774 5.61186e-06 -2.83028e-06)
(0.0012969 2.0556e-07 -2.92788e-06)
(0.00129628 4.22773e-07 -3.50022e-06)
(0.00129375 8.10625e-07 -3.4639e-06)
(0.00128935 1.27314e-06 -3.32432e-06)
(0.00128271 1.85533e-06 -3.11929e-06)
(0.00127309 2.65704e-06 -2.83373e-06)
(0.00125927 3.97152e-06 -2.44508e-06)
(0.00123752 6.33252e-06 -1.9299e-06)
(0.00131022 2.36666e-07 -2.12187e-06)
(0.00130939 4.82114e-07 -2.53952e-06)
(0.00130652 9.12912e-07 -2.50899e-06)
(0.00130157 1.426e-06 -2.39958e-06)
(0.00129415 2.06871e-06 -2.2415e-06)
(0.00128345 2.94405e-06 -2.02736e-06)
(0.00126819 4.35007e-06 -1.74696e-06)
(0.00124452 6.81512e-06 -1.39307e-06)
(0.00131978 2.59652e-07 -1.51365e-06)
(0.00131882 5.26652e-07 -1.81147e-06)
(0.00131569 9.91037e-07 -1.78752e-06)
(0.00131032 1.54199e-06 -1.7059e-06)
(0.0013023 2.22756e-06 -1.58946e-06)
(0.00129082 3.15197e-06 -1.43486e-06)
(0.00127453 4.6157e-06 -1.23756e-06)
(0.00124954 7.14639e-06 -9.95544e-07)
(0.00132642 2.76131e-07 -1.01788e-06)
(0.00132536 5.58719e-07 -1.21811e-06)
(0.00132204 1.04754e-06 -1.20117e-06)
(0.00131638 1.62535e-06 -1.14496e-06)
(0.00130794 2.34023e-06 -1.06545e-06)
(0.0012959 3.29691e-06 -9.61283e-07)
(0.00127891 4.79762e-06 -8.30326e-07)
(0.00125304 7.37104e-06 -6.71486e-07)
(0.00133063 2.87035e-07 -5.86262e-07)
(0.00132951 5.79709e-07 -7.01327e-07)
(0.00132607 1.08477e-06 -6.91544e-07)
(0.00132021 1.68017e-06 -6.58841e-07)
(0.00131151 2.41383e-06 -6.12817e-07)
(0.00129912 3.39091e-06 -5.5309e-07)
(0.00128169 4.9157e-06 -4.77739e-07)
(0.00125526 7.51474e-06 -3.82182e-07)
(0.00133265 2.92824e-07 -1.90632e-07)
(0.00133149 5.90077e-07 -2.27698e-07)
(0.001328 1.10224e-06 -2.24725e-07)
(0.00132205 1.70638e-06 -2.14081e-07)
(0.00131322 2.44881e-06 -1.99112e-07)
(0.00130067 3.43614e-06 -1.79825e-07)
(0.00128303 4.97701e-06 -1.55001e-07)
(0.00125626 7.58408e-06 -1.20792e-07)
(1.09308e-05 7.23725e-08 0.00114973)
(1.30776e-05 1.27851e-07 0.00114889)
(1.31548e-05 1.98457e-07 0.00114824)
(1.29808e-05 2.92527e-07 0.0011473)
(1.2715e-05 4.04896e-07 0.00114595)
(1.23458e-05 5.36693e-07 0.00114413)
(1.18492e-05 6.86119e-07 0.00114175)
(1.13079e-05 8.03277e-07 0.00113874)
(1.00547e-05 2.11513e-08 0.0010997)
(1.20342e-05 3.77271e-08 0.00109949)
(1.21003e-05 5.67502e-08 0.0010993)
(1.19489e-05 8.24212e-08 0.00109902)
(1.17254e-05 1.12105e-07 0.00109863)
(1.14243e-05 1.44074e-07 0.00109811)
(1.10382e-05 1.71046e-07 0.00109746)
(1.0708e-05 1.6209e-07 0.00109671)
(1.00418e-05 -2.70428e-08 0.00105277)
(1.20188e-05 -4.56996e-08 0.00105298)
(1.20844e-05 -6.9588e-08 0.00105321)
(1.1933e-05 -1.00411e-07 0.00105354)
(1.171e-05 -1.3707e-07 0.001054)
(1.141e-05 -1.80176e-07 0.00105463)
(1.10258e-05 -2.2871e-07 0.00105544)
(1.06983e-05 -2.6355e-07 0.00105648)
(1.09054e-05 -8.04064e-08 0.00100291)
(1.30452e-05 -1.36982e-07 0.00100376)
(1.312e-05 -2.11694e-07 0.00100444)
(1.29457e-05 -3.09713e-07 0.00100544)
(1.26804e-05 -4.27843e-07 0.00100685)
(1.23126e-05 -5.69225e-07 0.00100876)
(1.18188e-05 -7.38586e-07 0.00101129)
(1.12818e-05 -8.99354e-07 0.00101456)
(-0.000903606 -9.63547e-08 6.85177e-06)
(-0.000902881 -2.51564e-07 8.12936e-06)
(-0.000904348 -5.72774e-07 8.11249e-06)
(-0.00090722 -9.20022e-07 7.89131e-06)
(-0.000911576 -1.33875e-06 7.54482e-06)
(-0.000917854 -1.91504e-06 7.02877e-06)
(-0.00092686 -2.91625e-06 6.2435e-06)
(-0.00094155 -4.95238e-06 4.89368e-06)
(-0.000876477 -1.72336e-07 4.42126e-06)
(-0.000876696 -3.68407e-07 5.23941e-06)
(-0.000878763 -7.40343e-07 5.19106e-06)
(-0.000882477 -1.17274e-06 5.00456e-06)
(-0.000888098 -1.71422e-06 4.72407e-06)
(-0.000896245 -2.4707e-06 4.31857e-06)
(-0.000908024 -3.77243e-06 3.7342e-06)
(-0.000927051 -6.30466e-06 2.87503e-06)
(-0.000858904 -2.23527e-07 3.02815e-06)
(-0.000859518 -4.57468e-07 3.59773e-06)
(-0.000862036 -8.80012e-07 3.55226e-06)
(-0.00086643 -1.38156e-06 3.40144e-06)
(-0.000873045 -2.0136e-06 3.18024e-06)
(-0.000882602 -2.89053e-06 2.87178e-06)
(-0.000896351 -4.35875e-06 2.45083e-06)
(-0.000918167 -7.09737e-06 1.88924e-06)
(-0.00084644 -2.57774e-07 2.16159e-06)
(-0.000847264 -5.21851e-07 2.57079e-06)
(-0.000850126 -9.90306e-07 2.53274e-06)
(-0.00085506 -1.54618e-06 2.41474e-06)
(-0.000862449 -2.24345e-06 2.24466e-06)
(-0.000873069 -3.20009e-06 2.01421e-06)
(-0.000888236 -4.76849e-06 1.71208e-06)
(-0.000911949 -7.62329e-06 1.32891e-06)
(-0.000837595 -2.83051e-07 1.52365e-06)
(-0.00083856 -5.70096e-07 1.81175e-06)
(-0.000841682 -1.07445e-06 1.78199e-06)
(-0.000847026 -1.67087e-06 1.69407e-06)
(-0.000854997 -2.41412e-06 1.56902e-06)
(-0.000866396 -3.42352e-06 1.40308e-06)
(-0.00088257 -5.05455e-06 1.19126e-06)
(-0.000907581 -7.98206e-06 9.30362e-07)
(-0.000831511 -3.01135e-07 1.01526e-06)
(-0.000832571 -6.04765e-07 1.20705e-06)
(-0.000835879 -1.13523e-06 1.18601e-06)
(-0.000841519 -1.76034e-06 1.1255e-06)
(-0.000849902 -2.53489e-06 1.04024e-06)
(-0.000861845 -3.57878e-06 9.28656e-07)
(-0.000878708 -5.24964e-06 7.88457e-07)
(-0.000904589 -8.22417e-06 6.17775e-07)
(-0.000827684 -3.13066e-07 5.81157e-07)
(-0.000828802 -6.27424e-07 6.90621e-07)
(-0.00083223 -1.17521e-06 6.7841e-07)
(-0.000838059 -1.81904e-06 6.43226e-07)
(-0.000846706 -2.61357e-06 5.93914e-07)
(-0.000858993 -3.67914e-06 5.30029e-07)
(-0.000876286 -5.37574e-06 4.49542e-07)
(-0.000902707 -8.37837e-06 3.46949e-07)
(-0.000825854 -3.19376e-07 1.88378e-07)
(-0.000827006 -6.38536e-07 2.23531e-07)
(-0.000830489 -1.19398e-06 2.19753e-07)
(-0.000836409 -1.8471e-06 2.083e-07)
(-0.000845182 -2.65092e-06 1.92268e-07)
(-0.000857629 -3.72725e-06 1.71653e-07)
(-0.000875121 -5.44102e-06 1.45178e-07)
(-0.000901879 -8.45211e-06 1.08378e-07)
(1.13077e-05 -0.00113956 -9.86196e-07)
(1.18661e-05 -0.00114323 -8.3836e-07)
(1.23873e-05 -0.00114616 -6.69958e-07)
(1.27835e-05 -0.00114847 -5.21832e-07)
(1.30767e-05 -0.00115024 -3.91006e-07)
(1.32868e-05 -0.00115152 -2.72808e-07)
(1.34306e-05 -0.00115236 -1.66012e-07)
(1.35055e-05 -0.00115283 -5.78898e-08)
(1.07333e-05 -0.00109747 -3.23353e-07)
(1.10861e-05 -0.00109878 -2.9851e-07)
(1.14951e-05 -0.00109989 -2.50886e-07)
(1.18192e-05 -0.0011008 -2.02547e-07)
(1.20647e-05 -0.00110151 -1.55909e-07)
(1.22434e-05 -0.00110204 -1.10734e-07)
(1.23687e-05 -0.0011024 -6.67961e-08)
(1.24387e-05 -0.00110257 -2.25708e-08)
(1.07338e-05 -0.00105712 1.29308e-07)
(1.10872e-05 -0.00105654 1.24779e-07)
(1.1494e-05 -0.00105609 9.54584e-08)
(1.18153e-05 -0.00105577 6.74789e-08)
(1.20582e-05 -0.00105555 4.5425e-08)
(1.22347e-05 -0.00105541 2.87838e-08)
(1.23586e-05 -0.00105532 1.65634e-08)
(1.24277e-05 -0.00105528 5.73912e-09)
(1.13263e-05 -0.00101504 7.95589e-07)
(1.18919e-05 -0.00101212 6.58727e-07)
(1.24086e-05 -0.00100987 5.05786e-07)
(1.27978e-05 -0.00100817 3.78169e-07)
(1.3084e-05 -0.00100692 2.73189e-07)
(1.32882e-05 -0.00100604 1.85436e-07)
(1.34278e-05 -0.00100548 1.12584e-07)
(1.35008e-05 -0.00100515 4.00141e-08)
)
;
        traction        nonuniform List<vector> 
192
(
(26.7942 0.00190733 -0.134472)
(26.8085 0.00498462 -0.160391)
(26.7772 0.0112604 -0.160188)
(26.7157 0.0181257 -0.155858)
(26.6222 0.0264028 -0.149084)
(26.487 0.0377082 -0.139021)
(26.293 0.0569026 -0.123792)
(25.9793 0.0943222 -0.0980083)
(27.3935 0.0034061 -0.0896089)
(27.3884 0.00730142 -0.10684)
(27.3441 0.0145975 -0.106025)
(27.2645 0.0231373 -0.10234)
(27.1437 0.033824 -0.0967993)
(26.9683 0.0486382 -0.0888082)
(26.7147 0.0735809 -0.077344)
(26.3087 0.120254 -0.0606489)
(27.7907 0.00440487 -0.0627403)
(27.7773 0.00905942 -0.0750048)
(27.7233 0.0173705 -0.0742265)
(27.6289 0.0272816 -0.0712353)
(27.4865 0.039757 -0.066842)
(27.2806 0.0569365 -0.0607228)
(26.9843 0.085104 -0.0523946)
(26.5182 0.135697 -0.0413549)
(28.0762 0.00507141 -0.0454687)
(28.0584 0.010331 -0.0544183)
(27.997 0.0195624 -0.0537641)
(27.8909 0.0305572 -0.0514196)
(27.7317 0.0443295 -0.0480322)
(27.5026 0.0630869 -0.0434433)
(27.1755 0.0932158 -0.0374349)
(26.6683 0.146038 -0.0298516)
(28.2811 0.00556398 -0.0324353)
(28.2603 0.0112854 -0.0388172)
(28.1933 0.0212365 -0.038304)
(28.0783 0.0330426 -0.0365551)
(27.9065 0.0477333 -0.0340599)
(27.6604 0.0675421 -0.0307469)
(27.3113 0.0989078 -0.0265191)
(26.7759 0.153137 -0.0213331)
(28.4234 0.00591708 -0.0218117)
(28.4006 0.0119725 -0.0261023)
(28.3295 0.0224473 -0.0257394)
(28.2081 0.034829 -0.0245348)
(28.0273 0.0501478 -0.0228311)
(27.7694 0.0706481 -0.0205989)
(27.4052 0.102806 -0.0177927)
(26.8508 0.157951 -0.014389)
(28.5135 0.00615074 -0.0125628)
(28.4894 0.0124223 -0.0150284)
(28.4158 0.023245 -0.0148188)
(28.2903 0.0360036 -0.014118)
(28.1037 0.0517248 -0.0131318)
(27.8383 0.0726623 -0.0118519)
(27.4647 0.105336 -0.0102373)
(26.8984 0.16103 -0.00818961)
(28.5567 0.00627479 -0.00408497)
(28.532 0.0126445 -0.00487923)
(28.4571 0.0236193 -0.00481554)
(28.3296 0.0365652 -0.00458744)
(28.1404 0.0524745 -0.00426669)
(27.8714 0.0736316 -0.00385339)
(27.4935 0.10665 -0.00332146)
(26.9199 0.162516 -0.00258841)
(0.234232 0.00155084 24.637)
(0.280235 0.00273965 24.6191)
(0.281888 0.00425265 24.6052)
(0.278159 0.00626843 24.5849)
(0.272465 0.00867633 24.5561)
(0.264553 0.0115006 24.5171)
(0.253912 0.0147025 24.4661)
(0.242312 0.0172131 24.4015)
(0.215458 0.000453242 23.565)
(0.257875 0.000808438 23.5605)
(0.259292 0.00121608 23.5564)
(0.256048 0.00176617 23.5504)
(0.251258 0.00240225 23.542)
(0.244806 0.00308729 23.5309)
(0.236532 0.00366528 23.517)
(0.229457 0.00347336 23.5009)
(0.215181 -0.00057949 22.5593)
(0.257546 -0.000979277 22.564)
(0.258951 -0.00149117 22.5688)
(0.255708 -0.00215167 22.5758)
(0.250929 -0.00293722 22.5858)
(0.244501 -0.00386092 22.5992)
(0.236268 -0.00490093 22.6167)
(0.22925 -0.00564749 22.6389)
(0.233687 -0.00172299 21.4909)
(0.279539 -0.00293532 21.5091)
(0.281144 -0.00453631 21.5238)
(0.277407 -0.00663671 21.5451)
(0.271722 -0.00916805 21.5754)
(0.263841 -0.0121977 21.6164)
(0.253261 -0.0158268 21.6704)
(0.241752 -0.0192719 21.7405)
(-19.363 -0.00206474 0.146824)
(-19.3475 -0.00539066 0.174201)
(-19.3789 -0.0122737 0.173839)
(-19.4404 -0.0197148 0.1691)
(-19.5338 -0.0286875 0.161675)
(-19.6683 -0.0410367 0.150616)
(-19.8613 -0.0624911 0.133789)
(-20.1761 -0.106122 0.104865)
(-18.7816 -0.00369291 0.0947413)
(-18.7863 -0.00789443 0.112273)
(-18.8306 -0.0158645 0.111237)
(-18.9102 -0.0251302 0.107241)
(-19.0307 -0.0367334 0.10123)
(-19.2052 -0.0529437 0.0925409)
(-19.4577 -0.0808377 0.0800185)
(-19.8654 -0.1351 0.0616077)
(-18.4051 -0.00478987 0.064889)
(-18.4182 -0.00980289 0.0770943)
(-18.4722 -0.0188574 0.0761199)
(-18.5664 -0.0296049 0.0728881)
(-18.7081 -0.0431486 0.0681481)
(-18.9129 -0.06194 0.0615382)
(-19.2075 -0.0934018 0.0525179)
(-19.675 -0.152086 0.0404836)
(-18.138 -0.00552373 0.0463197)
(-18.1556 -0.0111825 0.0550883)
(-18.217 -0.0212208 0.054273)
(-18.3227 -0.0331325 0.0517444)
(-18.481 -0.048074 0.0480998)
(-18.7086 -0.0685733 0.0431617)
(-19.0336 -0.102182 0.0366875)
(-19.5418 -0.163356 0.0284766)
(-17.9485 -0.00606538 0.0326497)
(-17.9691 -0.0122163 0.0388231)
(-18.036 -0.023024 0.0381856)
(-18.1506 -0.0358044 0.0363015)
(-18.3214 -0.0517312 0.0336219)
(-18.5656 -0.0733611 0.0300661)
(-18.9122 -0.108312 0.0255271)
(-19.4482 -0.171044 0.0199363)
(-17.8181 -0.00645288 0.0217555)
(-17.8408 -0.0129593 0.0258653)
(-17.9117 -0.0243264 0.0254145)
(-18.0325 -0.0377215 0.0241178)
(-18.2122 -0.0543192 0.0222908)
(-18.4681 -0.0766882 0.0198998)
(-18.8294 -0.112492 0.0168955)
(-19.3841 -0.176232 0.013238)
(-17.7361 -0.00670857 0.0124534)
(-17.7601 -0.0134448 0.014799)
(-17.8335 -0.0251831 0.0145374)
(-17.9584 -0.0389794 0.0137834)
(-18.1437 -0.0560052 0.0127267)
(-18.407 -0.0788387 0.0113578)
(-18.7775 -0.115194 0.00963305)
(-19.3437 -0.179537 0.00743463)
(-17.6969 -0.00684377 0.00403667)
(-17.7216 -0.0136829 0.00478996)
(-17.7962 -0.0255853 0.00470898)
(-17.9231 -0.0395806 0.00446357)
(-18.111 -0.0568055 0.00412003)
(-18.3778 -0.0798697 0.00367828)
(-18.7526 -0.116593 0.00311095)
(-19.326 -0.181117 0.00232238)
(0.242309 -24.4191 -0.0211328)
(0.254273 -24.4977 -0.0179648)
(0.265441 -24.5605 -0.0143563)
(0.273931 -24.61 -0.0111821)
(0.280215 -24.6479 -0.00837869)
(0.284717 -24.6755 -0.00584588)
(0.287799 -24.6935 -0.0035574)
(0.289404 -24.7035 -0.0012405)
(0.229999 -23.5171 -0.006929)
(0.237559 -23.5453 -0.00639663)
(0.246324 -23.5691 -0.00537612)
(0.253268 -23.5885 -0.00434029)
(0.25853 -23.6038 -0.00334091)
(0.262358 -23.6152 -0.00237288)
(0.265043 -23.6228 -0.00143135)
(0.266544 -23.6265 -0.00048366)
(0.23001 -22.6525 0.00277088)
(0.237582 -22.6402 0.00267384)
(0.2463 -22.6305 0.00204554)
(0.253185 -22.6237 0.00144598)
(0.25839 -22.6189 0.000973392)
(0.262173 -22.6158 0.000616796)
(0.264827 -22.614 0.00035493)
(0.266308 -22.6131 0.000122981)
(0.242706 -21.7508 0.0170483)
(0.254825 -21.6882 0.0141156)
(0.265899 -21.64 0.0108383)
(0.274239 -21.6037 0.00810362)
(0.280372 -21.5769 0.00585405)
(0.284748 -21.558 0.00397363)
(0.287739 -21.5459 0.00241252)
(0.289303 -21.5389 0.000857445)
)
;
        pressure        uniform 0;
        value           nonuniform List<vector> 
192
(
(0.000600466 0.000629887 0.000321391)
(0.00130735 0.00119593 0.000278429)
(0.0024341 0.00174573 0.000186333)
(0.00372355 0.00214098 4.84835e-05)
(0.005159 0.00240994 -9.23457e-05)
(0.00666369 0.00256609 -0.000221343)
(0.00819039 0.00264016 -0.000326844)
(0.00970851 0.00267268 -0.000405257)
(0.000640261 0.000656496 0.000161604)
(0.00140545 0.00119039 0.000160389)
(0.00249099 0.00174063 0.000106065)
(0.00374996 0.00213893 1.50047e-05)
(0.00514165 0.00241042 -8.46982e-05)
(0.00660454 0.00257039 -0.000179588)
(0.00809347 0.00264855 -0.000259897)
(0.00958308 0.00268836 -0.000320069)
(0.000668577 0.000679272 7.68115e-05)
(0.00144594 0.00118548 7.53722e-05)
(0.00252402 0.0017229 4.05942e-05)
(0.00376197 0.00211764 -1.8381e-05)
(0.00512663 0.00239015 -8.64146e-05)
(0.00656111 0.00255544 -0.000153335)
(0.00802384 0.00264201 -0.000211816)
(0.00949204 0.00269425 -0.000256461)
(0.000682009 0.000690239 3.35926e-05)
(0.00146276 0.00118118 2.7827e-05)
(0.00253645 0.00170899 2.65714e-06)
(0.00376218 0.00209868 -3.70471e-05)
(0.00511035 0.00237096 -8.32416e-05)
(0.0065266 0.00253981 -0.000129835)
(0.00797167 0.00263281 -0.000171828)
(0.00942481 0.00269398 -0.000204701)
(0.000687638 0.000694664 1.25875e-05)
(0.00146801 0.00117745 4.49919e-06)
(0.00253759 0.0016995 -1.44181e-05)
(0.00375541 0.00208572 -4.16776e-05)
(0.00509317 0.00235744 -7.30629e-05)
(0.00649759 0.00252831 -0.000105164)
(0.00793061 0.00262526 -0.000134843)
(0.00937236 0.00269195 -0.000158562)
(0.000689765 0.000696089 3.34174e-06)
(0.00146846 0.00117447 -4.38622e-06)
(0.0025344 0.00169338 -1.79052e-05)
(0.00374677 0.00207768 -3.60187e-05)
(0.00507777 0.00234902 -5.65697e-05)
(0.0064745 0.00252097 -7.77313e-05)
(0.00789933 0.00262009 -9.76327e-05)
(0.00933288 0.00268991 -0.000113748)
(0.00069044 0.000696341 1.4146e-07)
(0.0014675 0.0011724 -5.24645e-06)
(0.00253072 0.00168973 -1.34279e-05)
(0.00373955 0.0020731 -2.3892e-05)
(0.00506636 0.00234429 -3.56278e-05)
(0.00645834 0.00251677 -4.77485e-05)
(0.00787799 0.002617 -5.92614e-05)
(0.00930616 0.00268846 -6.86528e-05)
(0.000690584 0.000696294 -2.25915e-07)
(0.00146669 0.00117135 -2.14207e-06)
(0.00252846 0.00168803 -4.88534e-06)
(0.00373552 0.00207103 -8.31808e-06)
(0.0050603 0.00234217 -1.21452e-05)
(0.00644998 0.00251488 -1.61027e-05)
(0.00786708 0.00261555 -1.98786e-05)
(0.00929254 0.00268763 -2.29675e-05)
(0.000250089 0.000341989 0.00048619)
(0.00110314 0.000702226 0.000282756)
(0.00223836 0.00111634 0.000221786)
(0.00358616 0.00141451 8.59608e-05)
(0.00507547 0.00162747 -4.18385e-05)
(0.00662965 0.00176175 -0.000158824)
(0.00819152 0.00183542 -0.000252621)
(0.00973294 0.00187143 -0.000330105)
(5.62265e-05 9.45668e-05 0.000131698)
(0.000846564 0.000181974 9.90076e-05)
(0.00198808 0.000320788 4.84897e-05)
(0.00336138 0.000412935 -9.01096e-06)
(0.00487374 0.000470432 -6.38941e-05)
(0.00644857 0.000496843 -0.000114289)
(0.00802629 0.00049928 -0.000160113)
(0.00956654 0.000491571 -0.00020798)
(3.83818e-05 -0.000134528 -0.000160321)
(0.00080382 -0.000224895 -0.000165589)
(0.00193009 -0.000375189 -0.000160025)
(0.00329457 -0.000498974 -0.000139699)
(0.00480067 -0.000607622 -0.000117192)
(0.00637207 -0.00069827 -9.74257e-05)
(0.00794767 -0.000772293 -8.54423e-05)
(0.00947995 -0.000830226 -8.03085e-05)
(0.000191191 -0.000404605 -0.000517201)
(0.000965954 -0.000752103 -0.000376508)
(0.00205529 -0.00118024 -0.000359784)
(0.00337394 -0.00151092 -0.000262612)
(0.00484249 -0.0017719 -0.000167286)
(0.00638478 -0.00196311 -7.86922e-05)
(0.00794063 -0.00209813 -1.0986e-05)
(0.00946518 -0.00219568 2.88848e-05)
(0.000502654 -0.000632816 -0.000364807)
(0.00114397 -0.00122432 -0.000389212)
(0.00221202 -0.00180804 -0.000345469)
(0.0034624 -0.00223865 -0.000245519)
(0.00487021 -0.00255192 -0.000135569)
(0.00635893 -0.00275768 -3.22824e-05)
(0.00787554 -0.0028804 4.9612e-05)
(0.00937935 -0.00294813 9.5825e-05)
(0.000526913 -0.000654908 -0.000196864)
(0.00124279 -0.00121636 -0.000243032)
(0.00227052 -0.0017931 -0.000226548)
(0.00348947 -0.0022216 -0.000166837)
(0.00485234 -0.00252921 -9.39039e-05)
(0.00629767 -0.00272934 -2.33893e-05)
(0.0077757 -0.00284643 3.18629e-05)
(0.0092529 -0.00291179 5.97944e-05)
(0.00054467 -0.000675616 -0.000104049)
(0.00127589 -0.00120837 -0.000139483)
(0.00229759 -0.00176577 -0.000135032)
(0.0034957 -0.00218366 -0.000102505)
(0.00483108 -0.00248399 -5.79943e-05)
(0.00624729 -0.00268033 -1.35566e-05)
(0.0076983 -0.00279618 2.09208e-05)
(0.00915188 -0.00286183 3.45819e-05)
(0.000550263 -0.000683307 -5.33725e-05)
(0.00128436 -0.00119894 -7.69959e-05)
(0.00230171 -0.00174147 -7.60927e-05)
(0.00348795 -0.00214791 -5.81295e-05)
(0.00480689 -0.00244081 -3.19554e-05)
(0.0062047 -0.00263298 -5.17763e-06)
(0.00763732 -0.00274706 1.5002e-05)
(0.00907316 -0.0028121 1.96745e-05)
(0.000550262 -0.00068425 -2.62837e-05)
(0.00128279 -0.00118968 -4.09004e-05)
(0.00229564 -0.00172202 -4.07892e-05)
(0.00347423 -0.00211972 -3.06331e-05)
(0.00478299 -0.0024062 -1.53882e-05)
(0.00616902 -0.00259427 2.98372e-07)
(0.00758908 -0.00270599 1.1511e-05)
(0.00901175 -0.00276954 1.1584e-05)
(0.000548475 -0.000682708 -1.2197e-05)
(0.00127826 -0.00118189 -2.06169e-05)
(0.00228707 -0.00170755 -2.05641e-05)
(0.00346038 -0.00209928 -1.48242e-05)
(0.00476259 -0.00238101 -6.14908e-06)
(0.00614102 -0.00256566 2.69944e-06)
(0.00755263 -0.00267509 8.58172e-06)
(0.008966 -0.00273695 6.96004e-06)
(0.000546672 -0.000680868 -5.07756e-06)
(0.00127409 -0.00117636 -9.33644e-06)
(0.0022799 -0.00169798 -9.25945e-06)
(0.00344975 -0.00208604 -6.29801e-06)
(0.00474792 -0.00236469 -1.8415e-06)
(0.0061217 -0.00254699 2.64089e-06)
(0.00752803 -0.0026547 5.40917e-06)
(0.00893542 -0.0027152 3.84087e-06)
(0.000545627 -0.00067975 -1.35423e-06)
(0.00127173 -0.00117352 -2.6438e-06)
(0.00227596 -0.00169321 -2.60639e-06)
(0.00344408 -0.00207952 -1.68915e-06)
(0.00474029 -0.00235668 -3.16029e-07)