/*--------------------------------*- C++ -*----------------------------------*\
| =========                 |                                                 |
| \\      /  F ield         | foam-extend: Open Source CFD                    |
|  \\    /   O peration     | Version:     3.1                                |
|   \\  /    A nd           | Web:         http://www.extend-project.de       |
|    \\/     M anipulation  |                                                 |
\*---------------------------------------------------------------------------*/
FoamFile
{
    version     2.0;
    format      ascii;
    class       volSymmTensorField;
    location    "3.1";
    object      epsilon;
}
// * * * * * * * * * * * * * * * * * * * * * * * * * * * * * * * * * * * * * //

dimensions      [0 0 0 0 0 0 0];

internalField   nonuniform List<symmTensor> 
256
(
(-0.006687 0.00884402 -0.000389806 0.0254598 0.0045665 -0.00270061)
(-0.00223693 0.00753409 -0.00117602 0.0060545 0.00158769 -0.000998044)
(0.00115002 0.00702318 -0.00120192 -0.00685259 -0.00225882 0.00116734)
(0.00524297 0.0074586 -0.000488476 -0.0250911 -0.00552377 0.0028954)
(-0.0118121 0.00369351 -0.000450898 0.0163437 -0.00149155 -0.00404166)
(-0.00475295 0.00968959 -0.00185808 0.00628308 -0.000665402 -0.00146407)
(0.00211074 0.00948424 -0.00192228 -0.00517318 0.000340665 0.00189867)
(0.00904125 0.0035578 -0.00067677 -0.0153224 0.00104478 0.00463189)
(-0.00994843 0.00451235 -0.00018004 0.0152265 -0.000825567 -0.00229181)
(-0.00489907 0.0093707 -0.00127482 0.00570432 -0.000341263 -0.000743455)
(0.00151229 0.0093733 -0.00132327 -0.00417544 3.48003e-05 0.0013989)
(0.00672573 0.00455471 -0.00041193 -0.0137799 0.000479601 0.00321286)
(-0.00859229 0.00395803 -0.000177409 0.0113683 -0.00116995 -0.00126861)
(-0.00444504 0.00855442 -0.00104992 0.00451061 -0.000409108 -0.000294474)
(0.000828914 0.00860781 -0.00108544 -0.00290112 0.000162757 0.00117703)
(0.00509445 0.00406872 -0.000428537 -0.00976775 0.000908522 0.00243782)
(-0.00703844 0.0034403 -0.000123838 0.00814608 -0.00107492 -0.000143324)
(-0.00391124 0.00737966 -0.000842909 0.00339681 -0.000354128 0.000163123)
(0.00026886 0.00746856 -0.000873284 -0.00185949 0.000159905 0.000877351)
(0.0034279 0.00360755 -0.000378182 -0.00651208 0.000892346 0.00148252)
(-0.00581651 0.0026635 -0.000133333 0.00537859 -0.000939973 0.00075795)
(-0.00344096 0.0059363 -0.000732223 0.00241281 -0.000310168 0.000528925)
(-0.000141327 0.0060764 -0.000745233 -0.00102615 0.000144669 0.000620786)
(0.00216134 0.0029345 -0.000365337 -0.00376618 0.000825704 0.000675815)
(-0.0050388 0.00173255 -0.000208645 0.00352619 -0.000780559 0.00150145)
(-0.00318157 0.00434188 -0.000699606 0.00169043 -0.000302825 0.000848615)
(-0.000423463 0.00449086 -0.000681094 -0.000413138 9.10657e-05 0.000393516)
(0.00136951 0.0021355 -0.000379817 -0.0018293 0.00065399 -1.95707e-05)
(-0.00530259 0.000984721 -0.000294092 0.00254721 -0.00044025 0.00209308)
(-0.00383458 0.00248331 -0.000663826 0.0014967 -0.000200756 0.00111912)
(-0.000357441 0.00242514 -0.000655942 8.16413e-05 -1.29369e-05 0.00019121)
(0.00137952 0.00106046 -0.000446653 -0.000782554 0.000236222 -0.000593599)
(-0.00673239 0.010033 -0.000240138 0.0247295 0.00279983 -0.00178921)
(-0.00206395 0.00903343 -0.000940844 0.00587584 0.000890036 -0.000674735)
(0.00105525 0.00859127 -0.00102734 -0.00596537 -0.0016077 0.000785746)
(0.00524449 0.00870913 -0.000446703 -0.0236607 -0.00376713 0.00201691)
(-0.0118393 0.00378282 -0.000340065 0.0178387 -0.000596226 -0.00317908)
(-0.00437024 0.00997617 -0.00173073 0.00701706 -0.00038666 -0.0011737)
(0.00193551 0.00986144 -0.00191541 -0.00595135 -0.000144454 0.00151569)
(0.00906085 0.00379274 -0.000779465 -0.0169177 -4.18939e-05 0.00383152)
(-0.00975965 0.00395308 -0.000125296 0.0153189 -0.00130205 -0.0022517)
(-0.0043949 0.00857764 -0.00136555 0.00579676 -0.000540248 -0.000782667)
(0.00136536 0.00860421 -0.00156339 -0.00429173 0.000192423 0.00132912)
(0.00663236 0.00400087 -0.000629815 -0.0138851 0.00089968 0.00321175)
(-0.00825385 0.00328642 3.56471e-05 0.0114794 -0.00160322 -0.00114211)
(-0.0038829 0.00741652 -0.000969204 0.00457847 -0.000575979 -0.000347041)
(0.00068391 0.00747097 -0.00117517 -0.00294002 0.000356799 0.00104797)
(0.00486531 0.00338303 -0.000518055 -0.00983705 0.00136915 0.00230515)
(-0.00669467 0.00270734 0.000182216 0.00808331 -0.00159177 -4.8866e-05)
(-0.0033575 0.00616 -0.000653369 0.00339643 -0.000538375 6.77778e-05)
(0.000146977 0.00623965 -0.000862437 -0.00177548 0.00041081 0.000756469)
(0.00318689 0.00285403 -0.000389879 -0.006354 0.00148938 0.00135315)
(-0.0054812 0.00200443 0.000254683 0.00528026 -0.00140159 0.000889537)
(-0.00291378 0.00483752 -0.000445476 0.00239396 -0.000468441 0.000427781)
(-0.000254522 0.0049632 -0.000639505 -0.000873068 0.000378008 0.000500596)
(0.0019044 0.00225918 -0.000296958 -0.0035136 0.001389 0.000505742)
(-0.00472572 0.00119196 0.000242645 0.00339898 -0.00109489 0.00164295)
(-0.00269782 0.00348418 -0.00035186 0.00163672 -0.000399677 0.000736122)
(-0.000528861 0.00362859 -0.000517125 -0.000219739 0.000261171 0.000298437)
(0.00111187 0.00161857 -0.000244808 -0.00149625 0.0010872 -0.000181208)
(-0.00499877 0.000727027 0.000168465 0.00246544 -0.000609151 0.00222036)
(-0.0034001 0.00205296 -0.000351045 0.00145676 -0.00025365 0.000986041)
(-0.000496271 0.00198989 -0.000545299 0.000221497 7.9262e-05 0.000122282)
(0.00109858 0.000825597 -0.000328038 -0.000536683 0.000515573 -0.000727508)
(-0.00705776 0.0105276 -0.00015916 0.0249184 0.00136934 -0.0010268)
(-0.00219571 0.00940943 -0.00059972 0.00595303 0.000357915 -0.000366324)
(0.0011197 0.00893273 -0.000671816 -0.00579048 -0.00100269 0.000487636)
(0.00546664 0.00908021 -0.000311689 -0.0236277 -0.00215181 0.00122115)
(-0.0124635 0.00384982 -0.000274572 0.0174833 -0.000410124 -0.00193586)
(-0.00466029 0.0101279 -0.00117014 0.00705215 -0.000312661 -0.000651945)
(0.00208842 0.0100181 -0.00132695 -0.00578891 -0.000197472 0.00101255)
(0.00952879 0.00385942 -0.000603897 -0.0164018 -0.00013059 0.00246959)
(-0.0102381 0.00389182 -0.000166053 0.0152284 -0.00100969 -0.00149515)
(-0.004649 0.00849476 -0.00101329 0.00586919 -0.000458888 -0.000425023)
(0.00148691 0.00851977 -0.00118486 -0.00420934 0.000119997 0.000997572)
(0.00698199 0.00390913 -0.000538329 -0.0136248 0.000657468 0.00227997)
(-0.00854724 0.00316247 -3.64757e-05 0.0114661 -0.00130629 -0.000762355)
(-0.00404931 0.00712352 -0.000740319 0.00463838 -0.000503946 -0.000111176)
(0.000710576 0.00717492 -0.000916515 -0.00284792 0.000309043 0.000855744)
(0.00501286 0.00323939 -0.000430197 -0.00965439 0.00111683 0.00173898)
(-0.00688268 0.00253013 8.23333e-05 0.00813984 -0.00134513 4.17586e-05)
(-0.00347427 0.00578283 -0.000477018 0.00346561 -0.000477644 0.000215633)
(0.00011018 0.00586588 -0.000652451 -0.00168865 0.000391376 0.000673108)
(0.00320668 0.00267585 -0.000313761 -0.00622529 0.00128957 0.00108248)
(-0.00558909 0.00181231 0.00015532 0.00539771 -0.0012096 0.000775961)
(-0.00299185 0.00445674 -0.00029044 0.00246585 -0.000413527 0.000514504)
(-0.00034142 0.00459988 -0.00045275 -0.000789033 0.000382305 0.000504116)
(0.00181727 0.00209819 -0.000219289 -0.00342937 0.00124504 0.000466045)
(-0.00476421 0.000999452 0.000162392 0.00358278 -0.000946455 0.00138075)
(-0.00274502 0.00317139 -0.000210865 0.00170848 -0.000335066 0.000774314)
(-0.000660419 0.00334957 -0.000355897 -0.000146836 0.000282141 0.000379845)
(0.000933488 0.00150402 -0.000171879 -0.00145088 0.00100219 -2.86871e-05)
(-0.00497538 0.000632089 9.179e-05 0.00265287 -0.000495718 0.00181147)
(-0.00344772 0.00189637 -0.000266614 0.00153935 -0.000188834 0.000974356)
(-0.000718671 0.00185283 -0.000451901 0.00028387 9.32557e-05 0.000311141)
(0.000815552 0.000781563 -0.000281977 -0.000509035 0.000466193 -0.000339886)
(-0.00729135 0.0107069 -8.64768e-05 0.025012 0.000564466 -0.000530132)
(-0.00231006 0.00947148 -0.000355628 0.00599529 8.25571e-05 -0.000172344)
(0.00115372 0.00895398 -0.000404195 -0.00568964 -0.000612405 0.000304116)
(0.00562212 0.00915444 -0.000193132 -0.0235566 -0.00116715 0.000705749)
(-0.0129231 0.00386675 -0.000162153 0.017165 -0.000344157 -0.00100603)
(-0.00491683 0.0101958 -0.000729637 0.00704418 -0.000256666 -0.000287686)
(0.00216159 0.0100776 -0.000837848 -0.00558505 -0.000170143 0.000668175)
(0.00984801 0.00387213 -0.00039719 -0.0159267 -8.26824e-05 0.00148322)
(-0.0106586 0.00390968 -0.000116533 0.0150656 -0.000726855 -0.000751238)
(-0.0049163 0.00852957 -0.000683377 0.00589935 -0.000348635 -0.000124724)
(0.0015409 0.00855341 -0.000802874 -0.00404416 6.34011e-05 0.000722714)
(0.00726258 0.00391818 -0.000381181 -0.0132692 0.000448535 0.00145885)
(-0.00887952 0.00315524 -3.86891e-05 0.0114177 -0.000941274 -0.000274983)
(-0.00428009 0.0071016 -0.000524659 0.00469338 -0.000379004 0.000107673)
(0.000712691 0.00715467 -0.000644181 -0.00271286 0.000220855 0.000678602)
(0.00519234 0.0032311 -0.00031188 -0.00940791 0.000796292 0.00117646)
(-0.00711917 0.00249923 4.24189e-05 0.00819191 -0.000991112 0.000284782)
(-0.00366799 0.00571685 -0.000346942 0.00354445 -0.000361268 0.000359948)
(6.39028e-05 0.00580829 -0.000462674 -0.00158417 0.000301838 0.00059299)
(0.00327591 0.00265764 -0.000226267 -0.0060744 0.000958801 0.000781284)
(-0.00574518 0.00176143 9.67592e-05 0.00553024 -0.000914171 0.000823425)
(-0.00315195 0.00436773 -0.000214523 0.00255986 -0.000316116 0.000601262)
(-0.000427622 0.00452992 -0.000319563 -0.000711254 0.000308435 0.000509957)
(0.00178797 0.00208138 -0.000153693 -0.00335477 0.000956675 0.000389465)
(-0.00484892 0.000932982 0.000101831 0.00378298 -0.000735989 0.00128245)
(-0.00287898 0.00308702 -0.000170518 0.00181055 -0.000257585 0.000820325)
(-0.000788668 0.00329238 -0.000265595 -9.10726e-05 0.000235263 0.000464393)
(0.000809839 0.00149631 -0.000122918 -0.00142665 0.000790975 8.33298e-05)
(-0.00500835 0.000601213 2.82542e-05 0.00287297 -0.000405312 0.00161953)
(-0.00359047 0.00185053 -0.000264432 0.00165697 -0.000149752 0.00100634)
(-0.000927818 0.00181663 -0.000394597 0.000327278 8.02479e-05 0.000486865)
(0.000591201 0.000779939 -0.000234182 -0.000521658 0.000375204 -5.01885e-05)
(-0.00743532 0.0107551 -4.05168e-05 0.0250289 0.000166062 -0.000242351)
(-0.00238492 0.00943385 -0.00019942 0.00602066 -3.66136e-05 -6.10842e-05)
(0.00116434 0.00888541 -0.000230248 -0.00560711 -0.000367506 0.000193011)
(0.00570329 0.00912486 -0.0001122 -0.0234298 -0.000608278 0.000399824)
(-0.0132235 0.00385817 -8.13069e-05 0.0169721 -0.000288984 -0.000431907)
(-0.0050887 0.0102003 -0.000428515 0.00704629 -0.000202712 -6.67813e-05)
(0.00218209 0.0100755 -0.000499103 -0.00541845 -0.000128131 0.000448481)
(0.010024 0.0038636 -0.000242132 -0.0155961 -3.42575e-05 0.000867975)
(-0.0109642 0.00392287 -6.51177e-05 0.0149451 -0.000512115 -0.000234281)
(-0.00510697 0.00856188 -0.00042954 0.00592428 -0.000251446 7.52306e-05)
(0.00154953 0.00858747 -0.000508446 -0.00388948 3.11011e-05 0.000529066)
(0.00743312 0.00393174 -0.000246003 -0.0129778 0.000303713 0.000896212)
(-0.00914846 0.00317046 -2.30016e-05 0.0113737 -0.000645485 0.000107224)
(-0.00445734 0.00713669 -0.000345957 0.00474073 -0.000266133 0.000263381)
(0.000696159 0.00719414 -0.000423217 -0.00258253 0.000146214 0.000540769)
(0.00531262 0.00325247 -0.000206569 -0.00918426 0.000539035 0.000753615)
(-0.00733325 0.00250781 2.58717e-05 0.00822383 -0.000684861 0.000513297)
(-0.00382442 0.00574076 -0.000238566 0.00361141 -0.000253581 0.000468747)
(2.05798e-05 0.00584068 -0.000311602 -0.00148233 0.000211198 0.000520653)
(0.00333072 0.00268105 -0.000151664 -0.00592568 0.000663465 0.000528377)
(-0.00590575 0.00175735 5.93225e-05 0.00562282 -0.000645362 0.000918191)
(-0.00328676 0.00437617 -0.000157205 0.00263891 -0.00022524 0.000672525)
(-0.00049584 0.00455277 -0.000222245 -0.00063709 0.000222023 0.000501772)
(0.00177659 0.00210486 -0.000104636 -0.00327023 0.00067742 0.000298332)
(-0.00496064 0.000913812 5.67639e-05 0.00392153 -0.000535114 0.00127752)
(-0.00299845 0.00308436 -0.000143216 0.00189442 -0.000187748 0.000867081)
(-0.000886299 0.00330664 -0.000202224 -3.92032e-05 0.000171308 0.000516652)
(0.000732498 0.00151823 -9.08197e-05 -0.00138582 0.000570589 0.000132724)
(-0.00509077 0.000594127 -1.44071e-05 0.00302408 -0.000303463 0.00154383)
(-0.00372344 0.00184846 -0.000247363 0.00175077 -0.000112029 0.00104165)
(-0.00108095 0.00181533 -0.000332364 0.000370445 5.64022e-05 0.000601456)
(0.000447061 0.000789323 -0.0001905 -0.00051233 0.000271636 0.000123065)
(-0.00751706 0.0107549 -1.51951e-05 0.0250148 1.4138e-07 -8.26024e-05)
(-0.002431 0.00937688 -0.000104974 0.0060382 -6.89321e-05 -6.30536e-07)
(0.0011646 0.00880699 -0.000123621 -0.00554093 -0.000212112 0.000126893)
(0.00573882 0.0090708 -6.11098e-05 -0.0233 -0.000300776 0.000224544)
(-0.0134037 0.00384049 -3.29501e-05 0.0168651 -0.00022079 -9.99134e-05)
(-0.00519665 0.0101768 -0.000235464 0.00705752 -0.000147096 5.78406e-05)
(0.00218072 0.0100474 -0.000279224 -0.00529604 -8.70485e-05 0.000313257)
(0.0101089 0.0038483 -0.000137422 -0.0153779 -6.04804e-06 0.000504329)
(-0.0111619 0.00392579 -2.85834e-05 0.0148751 -0.00034302 8.68787e-05)
(-0.00523135 0.0085746 -0.000250368 0.00594906 -0.000169765 0.000195174)
(0.00154117 0.00860253 -0.000299864 -0.00377043 1.43862e-05 0.00040231)
(0.00752481 0.00393795 -0.000146188 -0.0127722 0.000198128 0.000544542)
(-0.0093334 0.00318265 -7.56976e-06 0.0113472 -0.000418637 0.000363795)
(-0.00457748 0.00716854 -0.000210295 0.00477926 -0.00017466 0.000361755)
(0.000675875 0.00723022 -0.000258053 -0.00247857 9.07216e-05 0.000444308)
(0.00538058 0.00327191 -0.000125714 -0.00901558 0.000345279 0.000473109)
(-0.00749011 0.00252056 1.92974e-05 0.0082424 -0.000443987 0.000686042)
(-0.00393363 0.00577587 -0.000151138 0.00366165 -0.000165838 0.000541738)
(-1.34347e-05 0.0058825 -0.00019552 -0.00139888 0.000135924 0.00046441)
(0.00336315 0.00270632 -9.38741e-05 -0.00580348 0.000428555 0.000346163)
(-0.00603169 0.00176339 3.72544e-05 0.00567796 -0.000424733 0.00101376)
(-0.00338332 0.00440384 -0.000106943 0.00269535 -0.000149334 0.000724913)
(-0.000543861 0.00459053 -0.0001459 -0.000575338 0.000145104 0.000488076)
(0.00176964 0.00213095 -6.68774e-05 -0.00319186 0.000443218 0.00021724)
(-0.00505728 0.000908196 3.07322e-05 0.00400387 -0.000360408 0.00131454)
(-0.0030865 0.00310026 -0.000109719 0.00195211 -0.000127285 0.000906438)
(-0.000952384 0.00333342 -0.000145101 4.24857e-06 0.00011194 0.000543788)
(0.000685107 0.00154079 -6.35682e-05 -0.00133943 0.000377329 0.000142528)
(-0.00517291 0.000591745 -2.65154e-05 0.00311806 -0.000210204 0.0015417)
(-0.00382389 0.00185522 -0.00019888 0.00181603 -7.81627e-05 0.00107529)
(-0.00118123 0.00182106 -0.000252053 0.000407823 3.50352e-05 0.000665359)
(0.000359985 0.000797288 -0.000140807 -0.000490667 0.000180005 0.000205695)
(-0.00756013 0.0107429 -4.0187e-06 0.0249955 -4.01091e-05 4.11117e-07)
(-0.00245735 0.00933077 -4.921e-05 0.00605003 -5.56093e-05 3.00816e-05)
(0.00116177 0.00874743 -5.9184e-05 -0.00549462 -0.00010916 8.98086e-05)
(0.00575174 0.00902494 -2.95801e-05 -0.0232001 -0.000133874 0.000129992)
(-0.0135034 0.00382431 -1.00376e-05 0.0168099 -0.000138584 7.73692e-05)
(-0.00525935 0.01015 -0.000114501 0.00706998 -8.93265e-05 0.000122893)
(0.00217352 0.0100181 -0.000138337 -0.00521599 -5.00207e-05 0.000235611)
(0.0101452 0.00383469 -6.87348e-05 -0.0152445 3.95665e-06 0.000303897)
(-0.0112777 0.00392363 -9.56248e-06 0.01484 -0.000198453 0.000266429)
(-0.00530537 0.00857523 -0.000127637 0.0059694 -9.83807e-05 0.000260587)
(0.00153022 0.00860504 -0.000154841 -0.00369144 6.02749e-06 0.000326596)
(0.00756956 0.00393906 -7.56855e-05 -0.0126434 0.000112815 0.000343567)
(-0.00944601 0.00318886 -2.80302e-07 0.0113347 -0.000236178 0.000514674)
(-0.0046506 0.0071869 -0.000110803 0.00480679 -9.90688e-05 0.000417689)
(0.000659546 0.00725163 -0.000136823 -0.00240829 4.9198e-05 0.000384288)
(0.00541491 0.00328379 -6.63238e-05 -0.00890615 0.000192818 0.000306543)
(-0.00758947 0.00252906 1.26386e-05 0.00825313 -0.000249777 0.000795707)
(-0.00400131 0.00580057 -8.23491e-05 0.00369478 -9.37305e-05 0.00058557)
(-3.63857e-05 0.00591164 -0.000106287 -0.00134135 7.53494e-05 0.000427123)
(0.00337954 0.00272347 -5.03219e-05 -0.00571965 0.000239707 0.000231799)
(-0.00611489 0.0017686 2.07925e-05 0.00570732 -0.000241177 0.00108398)
(-0.0034441 0.00442565 -6.18003e-05 0.00273063 -8.52486e-05 0.000758952)
(-0.00057401 0.00461864 -8.26295e-05 -0.000532078 8.10264e-05 0.000476014)
(0.00176486 0.0021491 -3.7047e-05 -0.0031339 0.000249384 0.000159499)
(-0.00512486 0.00090609 1.45808e-05 0.00404735 -0.000207912 0.00135421)
(-0.00314284 0.00311389 -6.88916e-05 0.00198691 -7.38626e-05 0.000934497)
(-0.000992394 0.00335343 -8.78267e-05 3.50413e-05 6.22612e-05 0.000556034)
(0.000658416 0.00155611 -3.79412e-05 -0.00130157 0.000213405 0.000136878)
(-0.0052344 0.000591054 -2.23963e-05 0.00316899 -0.000124022 0.00156125)
(-0.00388918 0.00186147 -0.000127656 0.00185553 -4.62362e-05 0.00110059)
(-0.00124058 0.00182567 -0.000156952 0.000435158 1.87054e-05 0.000697112)
(0.000312148 0.000801995 -8.65751e-05 -0.000468603 0.000101824 0.000238847)
(-0.00757845 0.0107342 -5.63472e-07 0.0249834 -1.93956e-05 3.54995e-05)
(-0.00246931 0.00930613 -1.4242e-05 0.00605608 -2.06467e-05 4.28267e-05)
(0.00115958 0.00871632 -1.73716e-05 -0.00547083 -3.35596e-05 7.31432e-05)
(0.00575529 0.0089999 -8.73558e-06 -0.0231468 -3.74944e-05 8.86807e-05)
(-0.0135473 0.0038151 -1.84024e-06 0.0167867 -4.72189e-05 0.00015355)
(-0.00528808 0.0101338 -3.38936e-05 0.00707768 -2.99643e-05 0.000150354)
(0.00216831 0.0100006 -4.14449e-05 -0.00517643 -1.62737e-05 0.000200205)
(0.0101577 0.00382704 -2.06906e-05 -0.015181 2.58584e-06 0.000215144)
(-0.0113305 0.00392124 -1.99227e-06 0.0148259 -6.50917e-05 0.000345687)
(-0.00533977 0.00857298 -3.88439e-05 0.0059808 -3.22694e-05 0.000288971)
(0.00152341 0.00860379 -4.75014e-05 -0.00365226 1.62411e-06 0.000291273)
(0.00758734 0.00393859 -2.32286e-05 -0.0125815 3.67283e-05 0.000252668)
(-0.00949861 0.0031911 5.68482e-07 0.0113303 -7.64537e-05 0.000583285)
(-0.00468501 0.0071945 -3.43698e-05 0.00482117 -3.21357e-05 0.000442651)
(0.000650716 0.00726077 -4.26144e-05 -0.00237315 1.55619e-05 0.000355664)
(0.0054289 0.00328905 -2.05798e-05 -0.00885277 6.20521e-05 0.000229563)
(-0.00763688 0.0025329 4.34536e-06 0.00825817 -8.06998e-05 0.000847854)
(-0.00403347 0.0058123 -2.60508e-05 0.00371121 -3.0344e-05 0.000605888)
(-4.78675e-05 0.00592554 -3.35993e-05 -0.00131229 2.40816e-05 0.000408729)
(0.00338611 0.00273165 -1.57744e-05 -0.00567754 7.71151e-05 0.000177243)
(-0.00615543 0.00177105 6.59507e-06 0.0057198 -7.82794e-05 0.00112001)
(-0.00347322 0.00443653 -2.02298e-05 0.00274745 -2.77447e-05 0.00077555)
(-0.00058848 0.00463248 -2.67662e-05 -0.000510003 2.597e-05 0.000469254)
(0.00176233 0.00215789 -1.1859e-05 -0.00310362 8.04017e-05 0.000129988)
(-0.00515855 0.00090512 4.06117e-06 0.00406539 -6.80911e-05 0.00137759)
(-0.00317 0.00312082 -2.35405e-05 0.00200306 -2.42505e-05 0.000948866)
(-0.00101113 0.00336319 -2.9476e-05 5.09201e-05 1.99052e-05 0.000560442)
(0.000646445 0.00156336 -1.26649e-05 -0.00128081 6.8939e-05 0.000130648)
(-0.00526565 0.000591059 -8.77224e-06 0.00319034 -4.13508e-05 0.00157646)
(-0.00392077 0.001865 -4.39549e-05 0.00187395 -1.53509e-05 0.00111381)
(-0.00126811 0.00182776 -5.32939e-05 0.000449632 5.89885e-06 0.000709687)
(0.000291034 0.000803862 -2.92765e-05 -0.000455369 3.29166e-05 0.00024898)
)
;

boundaryField
{
    interface
    {
        type            calculated;
        value           nonuniform List<symmTensor> 
192
(
(-0.024571 -9.19576e-06 0.00033685 0.0385202 0.00565171 -0.00331447)
(-0.0115333 3.2296e-06 0.000568709 0.020634 -0.0018118 -0.00494342)
(-0.012426 8.24316e-06 0.000682072 0.0198189 -0.00112694 -0.00278954)
(-0.00973933 -6.34289e-06 0.000743656 0.0145224 -0.00164547 -0.00152612)
(-0.00785111 -5.34868e-05 0.000777349 0.0102528 -0.00154018 -0.000112073)
(-0.00618489 -0.000143611 0.000783716 0.00659217 -0.00134841 0.00101701)
(-0.00525963 -0.000305659 0.000753763 0.00427535 -0.00106937 0.00191971)
(-0.0047425 -0.000553805 0.000658039 0.00289684 -0.000576071 0.00260669)
(-0.0249557 1.49959e-05 0.000240996 0.0377569 0.00350214 -0.0021865)
(-0.0134122 3.67033e-05 0.000409758 0.022147 -0.000676761 -0.00387391)
(-0.0126636 4.53674e-05 0.000490419 0.0198109 -0.00169647 -0.00270777)
(-0.0101871 2.24981e-05 0.000533247 0.0146234 -0.00216452 -0.00128604)
(-0.00820159 -4.15588e-05 0.00055414 0.0101704 -0.0021757 0.000131016)
(-0.0065892 -0.000159986 0.000553134 0.00649933 -0.00192461 0.00134255)
(-0.00567477 -0.000367397 0.000524548 0.00418963 -0.00147802 0.00229253)
(-0.00508745 -0.000660156 0.000452813 0.00285291 -0.000801484 0.00299204)
(-0.0259 2.17303e-05 0.000172962 0.0381189 0.00172829 -0.00127284)
(-0.0140187 4.75678e-05 0.000292943 0.0214664 -0.000445768 -0.00241557)
(-0.01314 5.83932e-05 0.000345856 0.0195624 -0.0012713 -0.00188604)
(-0.010454 3.1896e-05 0.000371171 0.0145507 -0.00170386 -0.000964564)
(-0.00829267 -4.19131e-05 0.000381584 0.0102189 -0.00178359 6.13646e-05)
(-0.00656907 -0.000177156 0.000378203 0.00666108 -0.00161924 0.000998981)
(-0.00559148 -0.000408929 0.000358443 0.00447507 -0.00126482 0.00176102)
(-0.00482663 -0.000717929 0.000314044 0.00312521 -0.000663708 0.00228867)
(-0.0264981 2.28461e-05 0.000126613 0.0382996 0.000714673 -0.000657859)
(-0.0145007 5.00626e-05 0.000214852 0.0209446 -0.00038715 -0.00126372)
(-0.0136195 6.18125e-05 0.00025197 0.0192742 -0.000901231 -0.000972477)
(-0.0108244 3.3021e-05 0.000268263 0.0144375 -0.00120631 -0.000391165)
(-0.00854272 -4.6948e-05 0.000273891 0.0102537 -0.00129419 0.000307393)
(-0.00672122 -0.000192525 0.000270929 0.00681821 -0.00120833 0.000983041)
(-0.00567491 -0.000438778 0.000258279 0.00474222 -0.000978183 0.00155269)
(-0.00480475 -0.000755384 0.000229578 0.0034056 -0.000544428 0.00195775)
(-0.02681 2.25686e-05 9.11949e-05 0.0383384 0.000211818 -0.000301446)
(-0.0148182 4.98445e-05 0.00015539 0.0206391 -0.000337607 -0.000549611)
(-0.0139603 6.16445e-05 0.000181829 0.0190736 -0.00063392 -0.000327354)
(-0.0111194 3.11801e-05 0.00019283 0.014343 -0.000821162 7.96097e-05)
(-0.00877112 -5.27122e-05 0.000196292 0.0102661 -0.000887404 0.000574346)
(-0.00688488 -0.000204712 0.00019436 0.00691833 -0.000847662 0.00107065)
(-0.00578897 -0.000460254 0.000186605 0.00491496 -0.000709539 0.00150701)
(-0.00484112 -0.000781403 0.000167573 0.00358757 -0.00040867 0.00181876)
(-0.0269611 2.20033e-05 6.18618e-05 0.0383166 2.04371e-06 -0.0001037)
(-0.0150125 4.8902e-05 0.000105793 0.0204696 -0.00026433 -0.000136143)
(-0.0141822 6.04123e-05 0.000123755 0.0189568 -0.000426133 7.58893e-05)
(-0.0113249 2.87927e-05 0.000131042 0.0142839 -0.00053181 0.000401478)
(-0.00894321 -5.75839e-05 0.000133332 0.0102685 -0.000573752 0.000786852)
(-0.00702066 -0.000213637 0.000132251 0.00697263 -0.000556647 0.0011807)
(-0.00589564 -0.000475226 0.000127656 0.00501224 -0.000477921 0.00153931)
(-0.00490661 -0.000799287 0.000115305 0.00369625 -0.00028375 0.00179964)
(-0.0270282 2.16179e-05 3.56936e-05 0.0382826 -4.9304e-05 -1.21811e-06)
(-0.0151204 4.80909e-05 6.12751e-05 0.0203806 -0.000168119 8.41172e-05)
(-0.0143118 5.92407e-05 7.16601e-05 0.018896 -0.00024752 0.000301102)
(-0.0114503 2.68824e-05 7.58324e-05 0.0142528 -0.000300291 0.000591471)
(-0.00905296 -6.09928e-05 7.71858e-05 0.0102684 -0.000322707 0.000923902)
(-0.00711174 -0.00021953 7.66549e-05 0.00699883 -0.000316002 0.00126591)
(-0.00597121 -0.00048487 7.4007e-05 0.00506105 -0.000275952 0.00158411)
(-0.00496086 -0.000810349 6.65651e-05 0.00375291 -0.000167852 0.001818)
(-0.0270524 2.13628e-05 1.1551e-05 0.0382607 -2.39938e-05 4.19706e-05)
(-0.0151672 4.75145e-05 1.98943e-05 0.0203423 -5.76034e-05 0.000178486)
(-0.01437 5.84452e-05 2.32453e-05 0.0188705 -8.1369e-05 0.00040026)
(-0.0115081 2.58062e-05 2.45839e-05 0.01424 -9.72983e-05 0.000677811)
(-0.00910469 -6.27616e-05 2.50325e-05 0.0102681 -0.000104298 0.000989347)
(-0.00715572 -0.000222717 2.48685e-05 0.00700907 -0.000102587 0.00131038)
(-0.00600785 -0.000490151 2.39066e-05 0.00508034 -9.045e-05 0.00161197)
(-0.00498765 -0.000814815 2.12267e-05 0.00377568 -5.60958e-05 0.00183525)
(-0.00682429 0.0080121 -0.000392345 0.0263136 -9.61797e-05 -0.0134842)
(-0.0121351 0.0036551 -0.000671903 0.0146925 -0.000150413 -0.00202854)
(-0.0103781 0.0050018 -0.000811387 0.0151321 -0.000158581 -0.00334633)
(-0.00904824 0.00451999 -0.000900745 0.0112667 -0.000146275 -0.00154537)
(-0.00745428 0.00402795 -0.00097167 0.00823445 -0.000141052 -0.000514284)
(-0.00619081 0.00317421 -0.00103496 0.0055197 -0.000156709 0.000489747)
(-0.00536297 0.00213193 -0.00110906 0.00372307 -0.000196755 0.00113721)
(-0.00558834 0.00117298 -0.00125385 0.00268777 -0.000243757 0.00194095)
(-0.00247223 0.00633992 -0.000249174 0.00628729 -7.50747e-05 -0.00297046)
(-0.00527203 0.00950093 -0.000452356 0.00559063 -0.00013805 -0.000574286)
(-0.00550302 0.0100672 -0.000537262 0.00566685 -0.000163332 -0.000385098)
(-0.00504577 0.00943633 -0.000582463 0.00447421 -0.000150333 0.000176303)
(-0.00447762 0.00829211 -0.000618381 0.00342598 -0.000126001 0.000543676)
(-0.00396244 0.0067372 -0.000659423 0.00245541 -0.00010826 0.000871184)
(-0.00364535 0.00496064 -0.00072828 0.001763 -0.000104107 0.00112558)
(-0.00424752 0.00279765 -0.000909295 0.00155575 -0.000100175 0.0016647)
(0.00128536 0.00574974 -0.00019132 -0.00761561 -4.99414e-05 0.00383614)
(0.00238573 0.00921239 -0.000374632 -0.00434096 -0.000112258 0.000937788)
(0.00173858 0.0100467 -0.000455158 -0.00405623 -0.000147325 0.00123224)
(0.000993231 0.00948671 -0.000494468 -0.00283404 -0.000140494 0.000963163)
(0.000377213 0.00839049 -0.000522415 -0.00190611 -0.000113263 0.000787717)
(-6.78053e-05 0.00689893 -0.000556744 -0.00113309 -8.44977e-05 0.000584544)
(-0.000378455 0.00513136 -0.000621139 -0.000561516 -6.29264e-05 0.000411777)
(-0.000322982 0.00275547 -0.000797593 -1.67385e-05 -4.40453e-05 1.0538e-05)
(0.00536396 0.00650323 -0.000178841 -0.0264922 -4.20437e-05 0.0137571)
(0.0092882 0.00337442 -0.000373169 -0.0134837 -0.000105689 0.00246732)
(0.00699805 0.00501675 -0.000466175 -0.0136016 -0.000143495 0.00411601)
(0.0053676 0.00462898 -0.000513419 -0.00963726 -0.000139538 0.00260038)
(0.00365314 0.00421032 -0.000544007 -0.00661273 -0.000111722 0.00175455)
(0.00235309 0.00347461 -0.000578644 -0.00396685 -7.80722e-05 0.000871831)
(0.00152487 0.00255478 -0.00064082 -0.00212369 -4.34861e-05 0.000200022)
(0.00151297 0.00125754 -0.000805474 -0.000987933 -1.60611e-06 -0.000551305)
(0.0219666 4.00233e-05 4.34908e-05 -0.0367866 -0.00683608 0.00354684)
(0.00924833 8.55159e-05 7.83645e-05 -0.019782 0.00124878 0.00567857)
(0.00956035 0.000113934 8.31296e-05 -0.0184327 0.000731527 0.00393552)
(0.00658849 0.000112653 8.19046e-05 -0.0129258 0.00136797 0.00294409)
(0.00452364 9.41149e-05 8.85481e-05 -0.00855089 0.00136651 0.00171137)
(0.00276038 6.98161e-05 0.000108317 -0.00481946 0.00127347 0.000669089)
(0.00167111 3.04174e-05 0.00014241 -0.00222866 0.00101202 -0.000212149)
(0.00141295 -0.000132016 0.000184294 -0.000932383 0.000401086 -0.000910915)
(0.0216779 1.76807e-05 -1.00489e-05 -0.0353611 -0.0046365 0.00250482)
(0.0108808 4.55581e-05 -1.54749e-05 -0.0214258 -5.21177e-05 0.00476867)
(0.00940861 6.77118e-05 -2.44338e-05 -0.018419 0.00124187 0.00399574)
(0.00658088 7.37749e-05 -3.02544e-05 -0.0129723 0.00191491 0.00281854)
(0.00436586 6.92563e-05 -2.69147e-05 -0.00836042 0.00208851 0.00155762)
(0.00260483 6.19784e-05 -1.34451e-05 -0.00455443 0.00196394 0.00042916)
(0.00148203 4.47865e-05 7.26701e-06 -0.00188816 0.0015647 -0.000480642)
(0.00129359 -9.66133e-05 3.32583e-05 -0.000680615 0.000782208 -0.00117644)
(0.0224168 7.83205e-06 -1.94043e-05 -0.0355076 -0.00259321 0.00151513)
(0.0114492 2.65786e-05 -2.97379e-05 -0.0206188 -0.000116964 0.00306636)
(0.00986686 4.61577e-05 -3.42179e-05 -0.0179861 0.000905242 0.00281904)
(0.00684307 5.76467e-05 -3.43978e-05 -0.0127173 0.00151643 0.0021043)
(0.00443423 6.32038e-05 -2.80665e-05 -0.00820293 0.00174783 0.00122785)
(0.00253114 6.74936e-05 -1.57655e-05 -0.00448345 0.00169845 0.000399909)
(0.00129278 6.3042e-05 -1.28745e-06 -0.00188199 0.0013982 -0.000268938)
(0.00092478 -5.70471e-05 8.60767e-06 -0.000687456 0.00069604 -0.000687621)
(0.0228281 4.02276e-06 -1.81774e-05 -0.0354905 -0.00135908 0.000860978)
(0.0118477 1.82143e-05 -2.7472e-05 -0.0199776 -3.72024e-05 0.00180305)
(0.0102387 3.6636e-05 -2.87038e-05 -0.0175075 0.000625449 0.00175281)
(0.00709936 5.22771e-05 -2.56199e-05 -0.012401 0.00106913 0.00136986)
(0.00455316 6.55497e-05 -1.81294e-05 -0.00802177 0.00127946 0.000834308)
(0.00252968 7.86976e-05 -7.54492e-06 -0.00440971 0.00128432 0.000297727)
(0.00118141 8.1209e-05 2.41083e-06 -0.00187426 0.00109015 -0.000133675)
(0.000697202 -2.57671e-05 4.56621e-06 -0.000724106 0.000556689 -0.000342709)
(0.0229809 2.55737e-06 -1.4067e-05 -0.0353482 -0.00067546 0.000474711)
(0.0120839 1.48575e-05 -2.09872e-05 -0.0195648 2.26933e-05 0.00101963)
(0.0104683 3.32785e-05 -2.04511e-05 -0.0171436 0.000432612 0.00102596)
(0.00727097 5.21348e-05 -1.62895e-05 -0.0121261 0.000723199 0.000817612)
(0.00464526 7.07751e-05 -9.4317e-06 -0.00784551 0.000879718 0.000500692)
(0.00253959 8.951e-05 -1.56657e-06 -0.00431592 0.000903418 0.000172433)
(0.00111005 9.62258e-05 3.99292e-06 -0.00183302 0.000783836 -8.17098e-05)
(0.000550816 -2.55767e-06 2.78244e-06 -0.000724449 0.000404732 -0.00014235)
(0.0230085 2.13915e-06 -9.41779e-06 -0.0351807 -0.000313711 0.000255546)
(0.0122099 1.39632e-05 -1.37976e-05 -0.019306 4.50552e-05 0.000561506)
(0.0105964 3.29624e-05 -1.25861e-05 -0.0168979 0.000287837 0.000576939)
(0.00737144 5.41301e-05 -8.77506e-06 -0.0119256 0.000465271 0.000454995)
(0.00470206 7.61536e-05 -3.51505e-06 -0.00770229 0.000567829 0.000261746)
(0.00254767 9.80741e-05 1.66324e-06 -0.00422578 0.000590411 6.13326e-05)
(0.00106727 0.000106917 4.36131e-06 -0.00177918 0.000519164 -7.94135e-05)