/*--------------------------------*- C++ -*----------------------------------*\
| =========                 |                                                 |
| \\      /  F ield         | foam-extend: Open Source CFD                    |
|  \\    /   O peration     | Version:     3.1                                |
|   \\  /    A nd           | Web:         http://www.extend-project.de       |
|    \\/     M anipulation  |                                                 |
\*---------------------------------------------------------------------------*/
FoamFile
{
    version     2.0;
    format      ascii;
    class       volSymmTensorField;
    location    "3.1";
    object      sigmaCauchy;
}
// * * * * * * * * * * * * * * * * * * * * * * * * * * * * * * * * * * * * * //

dimensions      [1 -1 -2 0 0 0 0];

internalField   nonuniform List<symmTensor> 
256
(
(180.834 73.8621 -1.09365 423.853 36.6816 206.711)
(26.4465 55.5309 -7.96289 83.5748 11.4643 33.1443)
(-54.9903 48.1042 -9.09891 -113.329 -15.7216 -56.6029)
(-207.976 44.4206 -5.02402 -408.521 -34.4578 -225.828)
(-73.378 33.3201 -3.42295 125.981 -11.1775 -21.6019)
(-27.4608 71.5639 -13.2907 43.7441 -5.1438 -9.26764)
(3.34178 65.5541 -13.7378 -55.5356 2.13957 -2.85575)
(43.4257 19.4233 -4.80283 -130.43 7.2913 9.69704)
(-24.3314 40.5762 -1.55042 152.745 -6.47792 26.1515)
(-27.2823 69.7895 -9.12329 38.0526 -2.66024 -4.30482)
(-1.04194 64.6048 -9.469 -51.3621 0.0886062 -7.98144)
(-4.24128 25.5433 -2.85762 -151.839 3.13431 -32.2284)
(-35.6739 35.598 -1.81472 101.918 -8.80867 12.5027)
(-27.8806 63.7773 -7.64102 24.4402 -2.93488 -5.30565)
(-0.237036 59.5848 -7.66491 -37.9124 1.17852 -4.33012)
(7.32814 23.2656 -2.70594 -102.325 6.23527 -14.5759)
(-32.7592 30.5149 -1.51078 70.1871 -7.91081 12.8011)
(-26.353 55.0133 -6.21188 14.5811 -2.36525 -3.83356)
(-2.04113 52.0059 -6.13537 -28.0473 1.31526 -3.91162)
(4.37782 21.5031 -2.27544 -71.0067 6.27913 -12.3098)
(-33.9893 23.4912 -1.58197 41.0815 -6.7552 10.0414)
(-26.2389 44.2761 -5.44675 5.91667 -1.92967 -3.36443)
(-3.57499 42.6296 -5.23846 -19.2863 1.31549 -3.38907)
(4.54917 18.2887 -2.18798 -42.0315 5.95543 -8.44355)
(-34.0845 15.8246 -2.08607 23.5878 -5.4948 10.6156)
(-27.8531 32.6052 -5.24083 -0.383083 -1.81416 -3.14935)
(-5.46454 31.7826 -4.82501 -12.5479 0.984974 -3.54971)
(4.70733 13.7826 -2.36728 -21.4652 4.82653 -6.99396)
(-45.8164 10.2023 -2.59906 7.78109 -2.98733 5.50245)
(-42.2901 19.5873 -4.96945 -8.74285 -1.09863 -9.48833)
(-1.70152 17.3717 -4.7022 -2.46533 0.226449 0.119944)
(10.7942 6.63968 -3.0167 -6.33071 1.88954 -4.21465)
(183.257 83.1055 -0.627874 419.63 22.3313 214.887)
(32.9944 66.4707 -6.46936 86.7348 6.40227 39.8806)
(-48.9332 59.2665 -7.74557 -101.425 -11.2539 -53.5068)
(-198.938 52.7934 -4.29985 -392.031 -23.7979 -224.183)
(-40.8612 34.7048 -2.45374 171.42 -4.52491 17.4524)
(-4.53295 74.1778 -12.4007 69.349 -2.95072 12.7384)
(-16.8215 67.6842 -13.777 -79.9707 -1.09437 -24.8938)
(9.09023 20.4167 -5.75648 -174.396 -0.155166 -30.467)
(-18.9858 36.4247 -1.32186 158.468 -9.80627 30.9876)
(-16.4653 64.1919 -9.88334 47.0155 -3.88753 3.33473)
(-7.48166 59.0981 -11.1188 -56.6558 1.43941 -13.2886)
(-8.24139 21.7588 -4.26587 -155.053 6.27416 -35.1245)
(-25.8296 30.6519 -0.422678 111.595 -11.9097 21.5905)
(-16.7709 55.674 -7.14467 33.7794 -4.03423 2.54222)
(-6.79503 51.5264 -8.23962 -42.1038 2.70947 -9.76089)
(-1.1475 18.5737 -3.19316 -108.422 9.62748 -21.7416)
(-25.7639 25.0656 0.52418 75.7349 -11.7133 18.8419)
(-17.1262 46.2607 -4.92825 21.8677 -3.69826 2.0246)
(-6.36071 43.3747 -5.96869 -29.0085 3.15566 -7.05927)
(-1.09195 16.4131 -2.15221 -72.3528 10.5686 -16.28)
(-27.0672 18.5986 1.0642 46.2235 -10.238 16.2766)
(-17.8093 36.3604 -3.4465 12.3495 -3.16815 1.74388)
(-6.6059 34.8532 -4.39652 -18.6209 2.94563 -5.39746)
(-0.417292 13.7543 -1.49859 -42.1982 9.94053 -12.1495)
(-27.7746 11.7937 1.07786 27.8312 -7.96409 16.3511)
(-20.7591 26.374 -2.76729 4.40165 -2.66666 0.610652)
(-7.13379 25.7993 -3.58886 -10.666 2.11243 -4.3214)
(1.15751 10.3742 -1.24977 -19.9137 7.84258 -9.3701)
(-39.0092 8.22335 0.706294 12.4325 -4.41391 11.4663)
(-35.9352 16.3928 -2.71933 -4.94906 -1.62473 -6.66591)
(-4.05221 14.3878 -3.87438 -2.11603 0.817086 -1.33064)
(6.15216 5.18244 -2.07476 -6.80262 3.81475 -7.57143)
(189.889 87.2869 -0.593535 430.016 10.9498 229.041)
(35.8775 69.2834 -4.18806 90.9111 2.56152 45.6624)
(-49.1254 61.6722 -5.05762 -101.079 -7.01045 -56.5351)
(-205.188 55.0192 -2.86369 -399.604 -13.5479 -237.897)
(-41.4171 35.2389 -1.98843 172.493 -3.0791 30.0427)
(-2.67032 75.362 -8.41694 73.4286 -2.33129 20.1901)
(-18.2978 68.7939 -9.57705 -81.5362 -1.39398 -31.2658)
(7.05064 20.8838 -4.46094 -176.341 -0.752161 -45.6934)
(-19.7561 35.9944 -1.51869 160.568 -7.54552 39.0396)
(-15.8399 63.6839 -7.36679 50.1417 -3.26069 8.34963)
(-8.52526 58.5078 -8.44092 -57.8347 0.962271 -17.543)
(-10.4678 21.1693 -3.6713 -157.794 4.64801 -46.451)
(-26.9858 29.742 -0.800988 112.678 -9.64661 25.3156)
(-16.4068 53.6437 -5.48894 36.2638 -3.5104 6.05036)
(-7.95607 49.476 -6.42224 -42.3176 2.37278 -12.2153)
(-3.63282 17.662 -2.66131 -110.403 7.89649 -29.2124)
(-27.8405 23.7875 -0.0446236 75.7358 -9.8518 18.8789)
(-16.918 43.631 -3.6388 24.0738 -3.29354 4.50604)
(-7.48843 40.7921 -4.49122 -28.6102 2.98251 -8.14237)
(-2.88586 15.2687 -1.70565 -73.0447 9.16971 -19.9889)
(-29.4822 17.2437 0.490629 45.7642 -8.80628 13.949)
(-17.6056 33.7039 -2.30414 14.308 -2.83331 3.51611)
(-7.59185 32.3571 -3.0737 -17.7434 2.91375 -5.36228)
(-1.81512 12.7291 -1.02682 -42.0709 8.90437 -13.0563)
(-29.8713 10.4675 0.631112 27.6533 -6.87098 12.7732)
(-20.5091 24.1955 -1.71568 6.05951 -2.27459 1.78653)
(-8.02823 23.9058 -2.43807 -9.60363 2.19037 -3.40787)
(0.0459546 9.67589 -0.790169 -19.2118 7.21051 -8.00812)
(-41.7352 7.58809 0.284772 11.0228 -3.57828 5.67364)
(-36.0883 15.3274 -2.06394 -3.89888 -1.2111 -6.40967)
(-5.3585 13.5231 -3.21037 -1.15032 0.869391 0.439558)
(5.97306 5.00704 -1.79888 -4.68262 3.44639 -2.91811)
(193.227 88.8556 -0.394994 435.837 4.52385 237.638)
(36.8197 69.7683 -2.52591 92.9662 0.574474 48.7789)
(-49.5761 61.8366 -3.04504 -101.077 -4.27345 -58.561)
(-208.361 55.4399 -1.71994 -403.305 -7.32437 -245.771)
(-42.4389 35.3554 -1.22197 172.25 -2.57724 38.8602)
(-3.0289 75.8789 -5.28172 74.8115 -1.88698 24.1906)
(-18.7117 69.271 -6.06292 -81.0772 -1.17521 -34.7197)
(6.59119 21.0391 -2.91501 -175.917 -0.453532 -55.4904)
(-20.4342 36.12 -1.09138 161.665 -5.42137 46.6487)
(-16.8279 63.9774 -4.99522 51.2984 -2.46332 11.375)
(-8.94226 58.807 -5.72752 -57.4503 0.550681 -20.3292)
(-11.1298 21.3202 -2.59084 -158.029 3.19351 -54.9667)
(-27.8289 29.7003 -0.677754 113.89 -6.93936 30.3095)
(-17.4839 53.5441 -3.90869 37.3404 -2.62923 8.21805)
(-8.57441 49.4005 -4.51609 -41.8853 1.71426 -14.0664)
(-4.33744 17.6951 -1.92732 -110.643 5.64742 -35.1998)
(-28.714 23.6007 -0.168518 77.0114 -7.24845 21.4366)
(-17.9689 43.2298 -2.66011 25.1489 -2.4852 5.95452)
(-8.22855 40.4543 -3.18033 -28.1101 2.30206 -9.03236)
(-3.59099 15.2249 -1.2179 -73.1289 6.82665 -23.3134)
(-30.2939 16.94 0.224024 47.1302 -6.64738 14.6123)
(-18.5564 33.1461 -1.7125 15.3734 -2.16511 4.43172)
(-8.34392 31.9316 -2.16036 -17.1498 2.34093 -5.35609)
(-2.50605 12.6857 -0.688531 -41.9727 6.84378 -14.0596)
(-30.28 10.0728 0.322505 29.4101 -5.33605 12.2993)
(-21.3497 23.673 -1.38172 7.07453 -1.74637 2.31836)
(-8.84621 23.5725 -1.81698 -8.9725 1.81461 -2.62734)
(-0.677181 9.69894 -0.542052 -18.8505 5.69073 -7.03197)
(-42.0573 7.44923 -0.0853383 12.5672 -2.90984 4.22024)
(-37.0413 15.0903 -2.0126 -2.91656 -0.943828 -6.08096)
(-6.74921 13.359 -2.80953 -0.662989 0.74704 1.84429)
(5.11246 5.08924 -1.51267 -4.01953 2.7803 -0.0933221)
(194.418 89.292 -0.226994 438.263 1.33445 242.008)
(37.1302 69.508 -1.44363 94.0446 -0.283179 50.4553)
(-49.8034 61.3782 -1.73924 -100.756 -2.55951 -59.6141)
(-209.28 55.2698 -0.974718 -403.925 -3.80618 -249.326)
(-43.3818 35.2767 -0.661044 171.949 -2.16617 44.135)
(-3.53302 75.9231 -3.12925 75.582 -1.47895 26.4936)
(-19.0554 69.3135 -3.6214 -80.3684 -0.874245 -36.7616)
(6.28438 21.0537 -1.76064 -175.259 -0.155638 -61.418)
(-21.2874 36.2066 -0.664996 162.069 -3.81949 51.6573)
(-17.6879 64.2354 -3.16244 51.9952 -1.77208 13.2857)
(-9.31911 59.1136 -3.63099 -56.7832 0.299305 -22.1541)
(-11.3602 21.5025 -1.65619 -157.508 2.16905 -60.408)
(-28.7306 29.8217 -0.453553 114.568 -4.75719 34.0322)
(-18.3713 53.837 -2.59345 38.077 -1.84112 9.69616)
(-9.03889 49.7469 -2.96839 -41.2956 1.14686 -15.3987)
(-4.60698 17.93 -1.26456 -110.244 3.82978 -39.3452)
(-29.5622 23.6989 -0.151214 77.9249 -5.00613 23.7272)
(-18.8102 43.4548 -1.83912 25.9323 -1.73896 7.00773)
(-8.74171 40.7479 -2.14192 -27.5732 1.61653 -9.74724)
(-3.90274 15.4635 -0.80475 -72.8113 4.72857 -25.8282)
(-31.0511 16.9681 0.0876442 48.2051 -4.68914 15.6645)
(-19.3068 33.2675 -1.25692 16.1871 -1.53745 5.16324)
(-8.87106 32.1527 -1.50372 -16.6435 1.6882 -5.4449)
(-2.83796 12.9142 -0.45855 -41.6491 4.84933 -14.9706)
(-30.7706 10.0067 0.10872 30.748 -3.87381 12.5689)
(-22.0543 23.7177 -1.14576 7.85597 -1.26507 2.81286)
(-9.4572 23.731 -1.39074 -8.50171 1.32735 -2.15804)
(-1.03645 9.91501 -0.410268 -18.3926 4.10972 -6.49593)
(-42.7378 7.47151 -0.316121 13.563 -2.165 3.5729)
(-38.0409 15.148 -1.85921 -2.29058 -0.688612 -5.88222)
(-7.78625 13.421 -2.37296 -0.279816 0.546726 2.73467)
(4.63254 5.2239 -1.25071 -3.41279 2.02372 1.69774)
(194.691 89.3 -0.111835 439.063 0.00379913 244.089)
(37.2129 69.0989 -0.776042 94.6394 -0.51213 51.344)
(-49.8455 60.8505 -0.937753 -100.286 -1.47466 -60.0796)
(-209.218 54.9678 -0.520049 -403.261 -1.87627 -250.666)
(-44.0085 35.1305 -0.30889 171.791 -1.65773 47.1636)
(-3.93443 75.7593 -1.73783 76.0877 -1.06902 27.7827)
(-19.3071 69.1632 -2.03191 -79.701 -0.589364 -37.929)
(6.00817 21.0121 -0.988894 -174.66 0.00893633 -64.8605)
(-21.9188 36.2192 -0.348219 162.32 -2.56032 54.7323)
(-18.2877 64.3443 -1.85903 52.4896 -1.19554 14.4322)
(-9.62099 59.2738 -2.14333 -56.1622 0.156689 -23.2899)
(-11.4908 21.6178 -0.971668 -156.902 1.41588 -63.6782)
(-29.3843 29.9182 -0.250976 115.026 -3.08651 36.5159)
(-18.978 54.0941 -1.5883 38.6106 -1.20662 10.6385)
(-9.36217 50.0567 -1.81038 -40.7386 0.717841 -16.2706)
(-4.74506 18.135 -0.758013 -109.723 2.4554 -41.9679)
(-30.1699 23.817 -0.0875574 78.561 -3.24562 25.4546)
(-19.3743 43.7436 -1.17289 26.5025 -1.13451 7.7303)
(-9.06972 41.0949 -1.34443 -27.0804 1.04455 -10.2455)
(-4.05545 15.7012 -0.488197 -72.3704 3.05644 -27.5218)
(-31.583 17.0518 0.0394432 48.9669 -3.08516 16.699)
(-19.809 33.5072 -0.856604 16.7722 -1.01582 5.71391)
(-9.20036 32.4655 -0.989815 -16.2089 1.10754 -5.54068)
(-3.01307 13.1491 -0.288506 -41.2535 3.17496 -15.6882)
(-31.1322 10.0154 0.0163621 31.6788 -2.60645 13.1555)
(-22.5473 23.8746 -0.869374 8.40213 -0.852171 3.22408)
(-9.85608 23.9626 -1.00415 -8.13208 0.874573 -1.89745)
(-1.23692 10.1216 -0.297857 -17.9544 2.72123 -6.29961)
(-43.1761 7.5079 -0.338194 14.3833 -1.49328 3.69555)
(-38.7708 15.2468 -1.48523 -1.84298 -0.471103 -5.66178)
(-8.49118 13.5111 -1.80326 0.00385108 0.357964 3.20978)
(4.25759 5.32831 -0.935269 -3.01937 1.34795 2.53792)
(194.645 89.1995 -0.0467932 439.205 -0.320016 244.997)
(37.2222 68.7655 -0.371291 94.9648 -0.410512 51.7951)
(-49.8095 60.4497 -0.451056 -99.8686 -0.757858 -60.25)
(-208.888 54.7146 -0.247628 -402.381 -0.832423 -251.037)
(-44.3936 34.9986 -0.121881 171.704 -1.04178 48.7605)
(-4.19918 75.57 -0.854076 76.4097 -0.647994 28.4601)
(-19.4614 68.9889 -1.00943 -79.1982 -0.337076 -38.5499)
(5.8114 20.9644 -0.489845 -174.204 0.0546941 -66.719)
(-22.3292 36.1969 -0.155649 162.475 -1.48242 56.4354)
(-18.657 64.3602 -0.955517 52.8236 -0.692902 15.0677)
(-9.82331 59.3284 -1.10754 -55.7053 0.0745632 -23.9395)
(-11.5697 21.6755 -0.496733 -156.426 0.805902 -65.4915)
(-29.806 29.9683 -0.117074 115.31 -1.7421 37.9683)
(-19.347 54.2442 -0.84291 38.9688 -0.684104 11.1865)
(-9.56401 50.2454 -0.959939 -40.3244 0.391694 -16.7851)
(-4.82343 18.2654 -0.393556 -109.304 1.37169 -43.4766)
(-30.5653 23.8944 -0.0399431 78.9446 -1.82624 26.5405)
(-19.7131 43.9437 -0.643183 26.8782 -0.640319 8.17708)
(-9.26224 41.3357 -0.731049 -26.7133 0.580931 -10.5496)
(-4.13298 15.8635 -0.256337 -71.9997 1.71027 -28.5381)
(-31.9328 17.1132 0.0172179 49.4182 -1.75157 17.4346)
(-20.1101 33.6887 -0.496089 17.1482 -0.578482 6.07995)
(-9.38889 32.6948 -0.562017 -15.8917 0.620716 -5.6107)
(-3.10271 13.3126 -0.157928 -40.923 1.78738 -16.1651)
(-31.3883 10.0294 -0.0147511 32.2215 -1.50245 13.6607)
(-22.8499 23.998 -0.542877 8.74542 -0.492182 3.51881)
(-10.091 24.1315 -0.610628 -7.87354 0.490292 -1.76503)
(-1.34013 10.2617 -0.183111 -17.6179 1.54066 -6.26025)
(-43.4795 7.53572 -0.248518 14.8811 -0.878427 3.96397)
(-39.2375 15.3221 -0.950334 -1.56662 -0.275094 -5.48641)
(-8.92079 13.5747 -1.12426 0.196758 0.200145 3.43585)
(4.02146 5.39229 -0.579291 -2.76059 0.765598 2.88282)
(194.566 89.1246 -0.012461 439.176 -0.155 245.325)
(37.2167 68.5869 -0.108915 95.1105 -0.152125 51.9839)
(-49.7727 60.2404 -0.132821 -99.6307 -0.23281 -60.2968)
(-208.649 54.5772 -0.0724253 -401.828 -0.232589 -251.087)
(-44.5763 34.9237 -0.030825 171.663 -0.355161 49.4386)
(-4.32927 75.4546 -0.254587 76.568 -0.217209 28.7486)
(-19.5328 68.8825 -0.302947 -78.9302 -0.109416 -38.8164)
(5.71149 20.9356 -0.146554 -173.959 0.0264622 -67.5274)
(-22.5287 36.176 -0.0435238 162.551 -0.486428 57.1826)
(-18.8323 64.3497 -0.292304 52.9932 -0.227322 15.3476)
(-9.9231 59.3383 -0.339908 -55.4656 0.0219339 -24.2332)
(-11.6075 21.6977 -0.151221 -156.169 0.262261 -66.2946)
(-30.0102 29.9869 -0.0338633 115.447 -0.564075 38.6269)
(-19.521 54.3077 -0.262634 39.1493 -0.221891 11.4357)
(-9.66049 50.3288 -0.298977 -40.1065 0.124296 -17.0221)
(-4.85996 18.3261 -0.12085 -109.078 0.441478 -44.16)
(-30.7578 23.9295 -0.0116268 79.1237 -0.590071 27.0539)
(-19.8719 44.039 -0.204262 27.0643 -0.207162 8.38826)
(-9.35114 41.4514 -0.231134 -26.5197 0.186002 -10.692)
(-4.16618 15.9421 -0.0793049 -71.7954 0.550306 -29.0099)
(-32.1035 17.1417 0.0040348 49.6246 -0.568421 17.8061)
(-20.251 33.7785 -0.162585 17.3309 -0.188031 6.26059)
(-9.47432 32.808 -0.18233 -15.7253 0.199384 -5.64633)
(-3.1409 13.3927 -0.0502538 -40.7406 0.576419 -16.4002)
(-31.5165 10.0354 -0.0102256 32.4652 -0.491781 13.9382)
(-22.9926 24.0597 -0.185006 8.90949 -0.161185 3.67011)
(-10.1991 24.2138 -0.205424 -7.74007 0.157491 -1.71053)
(-1.38512 10.3289 -0.0621292 -17.4391 0.498001 -6.26768)
(-43.6229 7.55042 -0.0922322 15.1121 -0.292378 4.14931)
(-39.4592 15.3615 -0.326785 -1.43386 -0.0907774 -5.39022)
(-9.12559 13.6045 -0.381943 0.294254 0.0646365 3.52036)
(3.90248 5.42049 -0.196589 -2.63555 0.248051 2.98872)
)
;

boundaryField
{
    interface
    {
        type            calculated;
        value           nonuniform List<symmTensor> 
192
(
(-21.6042 17.2286 4.19685 455.303 46.5633 127.359)
(-22.0611 8.36803 3.59218 214.242 -13.9955 23.8397)
(-21.7927 11.1069 4.45075 214.116 -9.17531 45.4638)
(-22.0311 9.31167 4.52615 153.622 -12.8837 35.5624)
(-22.586 7.14891 4.67778 107.445 -11.8716 31.991)
(-23.3397 4.4703 4.72492 67.9862 -10.2563 27.7811)
(-23.9968 1.96576 4.56953 44.2253 -8.10449 27.2865)
(-23.0977 -0.588399 4.05449 31.9918 -4.46121 29.715)
(-24.3574 18.3347 2.90605 448.558 28.5422 134.622)
(-25.1849 9.55173 2.79604 236.375 -5.33827 41.2813)
(-25.7161 11.0999 2.93911 211.711 -13.078 43.7434)
(-26.6218 9.41839 2.92364 152.911 -16.4023 35.7519)
(-27.6888 7.08494 2.94587 104.161 -16.2824 31.021)
(-28.5828 4.31378 2.96189 64.9019 -14.2764 27.6502)
(-28.7316 1.5627 2.8871 41.8401 -10.9405 28.109)
(-25.6166 -1.25196 2.61691 31.7165 -5.99816 32.4145)
(-26.125 19.4257 1.82695 456.477 14.0989 145.694)
(-26.9757 9.63058 1.9887 233.507 -3.49835 54.1353)
(-27.6591 11.1006 2.03158 211.188 -9.74798 50.9726)
(-28.7318 9.38154 1.95758 152.109 -12.8436 37.7457)
(-29.9117 6.98135 1.91636 102.924 -13.2799 28.8629)
(-30.7375 4.13463 1.90626 63.7936 -11.9528 22.8164)
(-30.4727 1.27161 1.87525 41.6214 -9.31619 21.9057)
(-26.2324 -1.69757 1.7826 31.301 -4.93966 24.8645)
(-27.4111 19.9756 1.13699 460.915 5.8281 152.923)
(-28.231 9.62471 1.4187 231.562 -3.0163 64.5211)
(-28.9321 11.0962 1.46433 211.065 -6.90867 59.5982)
(-30.0449 9.3706 1.40856 152.546 -9.09085 43.109)
(-31.2232 6.95572 1.36109 103.631 -9.63133 31.0323)
(-31.9626 4.0727 1.34201 64.7995 -8.91317 22.5115)
(-31.4177 1.14641 1.3235 43.2327 -7.19725 20.0289)
(-26.5026 -1.88597 1.28055 32.9486 -4.04 22.0543)
(-28.3508 20.198 0.704816 462.469 1.71831 156.708)
(-29.1439 9.59959 0.993794 230.494 -2.61921 70.9735)
(-29.8347 11.0761 1.04321 211.014 -4.86288 65.7205)
(-30.9516 9.35593 1.01466 153.004 -6.1945 47.6395)
(-32.0985 6.94124 0.980949 104.46 -6.60953 33.659)
(-32.7704 4.03907 0.963979 65.8871 -6.25616 23.4664)
(-32.041 1.0699 0.951027 44.69 -5.22183 19.8715)
(-26.676 -2.00446 0.927334 34.3797 -3.03122 21.1398)
(-29.0152 20.2639 0.424597 462.651 0.00487794 158.517)
(-29.7881 9.57004 0.659099 229.891 -2.04635 74.6723)
(-30.465 11.0534 0.701785 211.045 -3.27117 69.5498)
(-31.5745 9.34186 0.690596 153.385 -4.01611 50.7679)
(-32.695 6.92957 0.671128 105.098 -4.27782 35.7894)
(-33.3182 4.01574 0.65938 66.7016 -4.11165 24.6559)
(-32.469 1.01731 0.650195 45.7365 -3.5192 20.4233)
(-26.8021 -2.07805 0.634119 35.5239 -2.10481 21.3419)
(-29.4421 20.2703 0.225991 462.383 -0.411003 159.294)
(-30.2042 9.54557 0.374746 229.534 -1.30005 76.6005)
(-30.871 11.0346 0.402275 211.081 -1.90076 71.6748)
(-31.9731 9.33056 0.398816 153.636 -2.26932 52.6136)
(-33.0765 6.9199 0.389257 105.492 -2.40775 37.16)
(-33.6689 3.99799 0.38253 67.1902 -2.33541 25.5543)
(-32.7462 0.980325 0.375325 46.3571 -2.0326 20.9992)
(-26.8928 -2.12354 0.362133 36.2394 -1.24466 21.7688)
(-29.6426 20.2635 0.0701124 462.155 -0.198889 159.573)
(-30.3985 9.53082 0.120368 229.369 -0.44519 77.4152)
(-31.0566 11.0229 0.129458 211.109 -0.624885 72.6125)
(-32.1522 9.32357 0.128636 153.768 -0.735457 53.4604)
(-33.2479 6.91374 0.125779 105.685 -0.778358 37.8212)
(-33.8258 3.98592 0.123544 67.4217 -0.75827 26.0253)
(-32.8564 0.956123 0.120147 46.6519 -0.666168 21.3478)
(-26.895 -2.1414 0.113647 36.5966 -0.415556 22.0809)
(39.8628 65.6793 -2.06516 284.998 2.83692 -10.1526)
(-75.0816 32.6104 -4.54575 114.016 -1.61486 -6.84748)
(-49.0374 44.0426 -5.76549 128.823 -1.56003 -3.71508)
(-50.0557 39.6575 -6.54154 88.7248 -1.25415 -1.39013)
(-44.9119 34.8225 -7.15169 60.3477 -0.9073 0.116219)
(-43.137 27.2585 -7.67649 34.5088 -0.77655 0.864117)
(-42.8481 18.8081 -8.26 17.632 -0.93088 0.868592)
(-51.7246 11.6738 -9.37377 4.36272 -1.17291 0.048584)
(-3.78022 46.5782 -1.59428 57.005 -0.476255 -9.07762)
(-35.745 69.9472 -3.10374 34.0764 -1.66667 -7.68479)
(-34.9172 74.7689 -3.78089 33.5011 -1.65228 -5.85172)
(-33.6205 70.1227 -4.20426 21.4059 -1.28666 -4.34967)
(-31.6616 61.6149 -4.52811 12.0519 -0.834923 -3.36232)
(-31.0602 50.0953 -4.86631 3.76431 -0.506664 -2.87623)
(-32.1412 37.1437 -5.3949 -1.92819 -0.360805 -2.81232)
(-42.1375 21.9773 -6.73578 -5.80498 -0.263637 -2.85556)
(-25.1122 39.428 -1.53979 -89.4356 -0.0452853 -8.29549)
(7.32075 63.9049 -2.81486 -47.6215 -1.39992 -7.80824)
(3.74739 69.403 -3.34485 -48.1796 -1.4996 -6.68106)
(2.02096 65.7867 -3.55945 -37.5618 -1.22247 -5.64226)
(-0.772043 58.4655 -3.73616 -29.2592 -0.779316 -4.96047)
(-3.25249 48.3672 -3.98316 -21.5383 -0.385678 -4.64443)
(-5.75909 36.2273 -4.45867 -15.2481 -0.116855 -4.63699)
(-4.64698 19.6462 -5.71131 -6.89826 0.0746072 -4.67972)
(-66.1126 39.4138 -1.72595 -282.179 3.88843 -7.33736)
(44.0133 18.5702 -2.98815 -119.173 -1.04801 -7.08282)
(17.7652 28.8132 -3.46377 -131.815 -1.31532 -6.17703)
(17.9791 27.1572 -3.71304 -93.7607 -1.2193 -5.29684)
(12.2723 25.6271 -3.86669 -66.4777 -0.815216 -4.70697)
(9.12697 21.9566 -4.08494 -41.1661 -0.39148 -4.40054)
(7.37648 16.5828 -4.5193 -22.717 -0.024533 -4.30681)
(11.5327 7.90626 -5.66324 -8.36671 0.349268 -4.36446)
(-4.79594 -12.8123 -1.27828 -397.513 -41.7128 -137.089)
(-3.56675 -6.22811 0.773026 -203.202 8.50548 -29.2616)
(-2.63103 -8.16223 0.70227 -195.455 4.69915 -42.9585)
(-1.73434 -6.41233 1.04801 -137.385 9.13992 -27.6322)
(-1.0106 -4.62757 1.19209 -92.5709 9.31424 -20.9033)
(-0.278909 -2.71834 1.34691 -53.7182 8.83268 -15.0513)
(0.85899 -1.4676 1.50435 -26.7448 7.08013 -12.4703)
(3.77267 -1.9315 1.57549 -12.6185 2.75709 -12.6167)
(-5.60497 -13.5449 -1.21591 -387.606 -28.6954 -143.793)
(-5.18352 -7.40856 -0.205841 -226.665 -0.294385 -49.2327)
(-4.88973 -8.17875 0.143281 -196.427 8.42578 -43.6503)
(-4.41022 -6.48516 0.449795 -140.166 13.1638 -31.1275)
(-3.89426 -4.50548 0.638272 -92.9217 14.5397 -23.7368)
(-3.25739 -2.51759 0.7408 -53.6794 13.8108 -18.6303)
(-2.13953 -1.1151 0.749078 -25.9977 11.0692 -16.0627)
(1.06234 -1.52229 0.638907 -12.7542 5.52341 -16.42)
(-6.08092 -14.2679 -0.780034 -393.954 -15.9914 -156.923)
(-5.82822 -7.54542 -0.27988 -226.046 -0.710017 -66.1256)
(-5.72435 -8.21514 0.00569502 -197.613 6.18661 -56.2052)
(-5.37215 -6.47308 0.288352 -141.24 10.47 -39.1104)
(-4.89492 -4.40802 0.490375 -93.3207 12.203 -27.6231)
(-4.23202 -2.35333 0.597205 -53.6495 11.9661 -19.3283)
(-3.06122 -0.870436 0.591574 -25.5651 9.90698 -14.1652)
(0.086987 -1.07562 0.385881 -11.2294 4.93579 -11.3372)
(-6.40641 -14.5351 -0.453441 -396.976 -8.34843 -164.904)
(-6.19338 -7.54854 -0.209961 -225.052 -0.183035 -78.3202)
(-6.16553 -8.18698 -0.009468 -197.53 4.28703 -66.9041)
(-5.86051 -6.41004 0.207179 -141.423 7.39199 -46.6899)
(-5.37774 -4.29976 0.381181 -93.4289 8.94044 -31.7932)
(-4.65778 -2.19807 0.480288 -53.5894 9.05384 -20.5053)
(-3.38567 -0.666762 0.476763 -25.0894 7.73015 -12.7614)
(-0.354875 -0.762492 0.277293 -10.3738 3.95661 -7.7299)
(-6.63449 -14.5526 -0.250097 -397.402 -4.13285 -168.951)
(-6.43531 -7.50869 -0.13215 -224.279 0.202408 -85.7917)
(-6.43745 -8.12427 0.00626588 -197.037 2.96846 -73.9729)
(-6.1467 -6.32414 0.159783 -141.089 5.00297 -52.1393)
(-5.64693 -4.18725 0.290218 -93.1685 6.14877 -35.1136)
(-4.88411 -2.0578 0.365739 -53.2682 6.37011 -21.7168)
(-3.56742 -0.496824 0.35583 -24.5131 5.56076 -12.0841)
(-0.611474 -0.529518 0.191667 -9.63891 2.88094 -5.53413)
(-6.78336 -14.4782 -0.129415 -396.749 -1.91007 -170.824)
(-6.58863 -7.4564 -0.071835 -223.643 0.33599 -90.0756)
(-6.59902 -8.05593 0.0203731 -196.496 1.97543 -78.2257)
(-6.3081 -6.24182 0.122277 -140.626 3.21928 -55.5969)
(-5.79148 -4.08862 0.210155 -92.7544 3.96896 -37.3736)
(-5.00122 -1.94505 0.25976 -52.841 4.1632 -22.6962)
(-3.67066 -0.3705 0.247102 -23.961 3.68389 -11.8787)
(-0.770987 -0.371535 0.124787 -9.11172 1.9258 -4.48584)
(-6.87108 -14.3967 -0.0594015 -395.934 -0.786149 -171.607)
(-6.67753 -7.41162 -0.0325749 -223.168 0.276415 -92.3546)
(-6.68817 -8.00091 0.0206855 -196.066 1.1404 -80.5699)
(-6.39319 -6.17963 0.0788115 -140.242 1.80718 -57.574)
(-5.86481 -4.01763 0.128724 -92.3917 2.22345 -38.729)
(-5.05982 -1.86779 0.155817 -52.4774 2.34514 -23.3526)
(-3.72559 -0.288843 0.145734 -23.5425 2.08966 -11.8725)
(-0.869388 -0.274326 0.0692041 -8.76348 1.09754 -4.05706)
(-6.91028 -14.348 -0.0168489 -395.429 -0.207272 -171.876)
(-6.71629 -7.38653 -0.00889103 -222.911 0.104289 -93.3343)
(-6.72616 -7.97107 0.00852227 -195.83 0.373796 -81.6016)
(-6.4288 -6.14703 0.0273309 -140.03 0.583445 -58.464)
(-5.89517 -3.98122 0.0433595 -92.1886 0.716295 -39.3567)
(-5.08475 -1.82881 0.0518425 -52.2763 0.756934 -23.6774)
(-3.74752 -0.24994 0.0481283 -23.3203 0.67637 -11.9051)
(-0.92464 -0.22862 0.021654 -8.59744 0.356108 -3.92792)
(-56.0498 12.8945 -2.77096 -1.18204 -2.06336 0.250358)
(-50.8454 12.1711 0.497776 0.686461 -1.8778 4.41353)
(-51.6571 12.2591 -0.0135346 2.13526 -1.44594 -0.282906)
(-52.1592 12.4209 -0.43436 3.26532 -1.09971 -2.2945)
(-52.9914 12.6008 -0.664788 4.10297 -0.81596 -3.36397)
(-53.6291 12.7458 -0.618815 4.69446 -0.572736 -3.56397)
(-54.0596 12.8466 -0.428796 5.05811 -0.349813 -3.47502)
(-54.3039 12.8934 -0.154488 5.16297 -0.120842 -3.40952)
(-48.1765 9.45897 -4.68825 -3.04056 -0.428356 -8.40026)
(-43.6153 8.27422 -2.80108 -2.06247 -0.452153 -7.53341)
(-43.9013 8.07279 -2.49584 -1.049 -0.32427 -7.61982)
(-45.0994 8.08796 -2.61031 -0.218507 -0.218061 -7.42792)
(-46.3214 8.14671 -2.46602 0.394082 -0.149324 -7.34982)
(-47.2385 8.20196 -1.97703 0.824541 -0.100798 -7.22265)
(-47.8222 8.24586 -1.26383 1.1047 -0.0590145 -7.09971)
(-48.0826 8.27772 -0.433832 1.26495 -0.019181 -7.01173)
(-3.51087 5.95528 -4.62533 -4.47089 0.238181 -2.30481)
(-5.67325 4.96582 -4.35258 -3.77242 0.169582 -3.50313)
(-7.47195 4.70982 -4.05701 -3.02281 0.166134 -1.3323)
(-9.18693 4.64852 -3.7454 -2.42755 0.146981 0.509639)
(-10.4925 4.63507 -3.22471 -1.99829 0.115106 1.64114)
(-11.3928 4.63306 -2.45987 -1.70315 0.0805415 2.21548)
(-11.951 4.63426 -1.53251 -1.5155 0.0496254 2.46902)
(-12.2108 4.63485 -0.519943 -1.40885 0.0178467 2.56519)
(13.8341 4.84349 -3.41502 -4.20638 0.598436 -4.69237)
(9.71636 3.98011 -2.94948 -3.64197 0.338466 -7.36687)
(8.39854 3.65007 -2.82208 -3.17089 0.23972 -2.36288)
(7.11599 3.51769 -2.46116 -2.79356 0.171537 1.09261)
(6.25419 3.44006 -2.03549 -2.52432 0.117376 3.19015)
(5.6239 3.39328 -1.50987 -2.34499 0.0737702 4.15316)
(5.21854 3.36478 -0.927692 -2.23532 0.0408547 4.51911)
(5.01465 3.34815 -0.313322 -2.18493 0.0133609 4.61785)
)
;
    }
    symmetry
    {
        type            symmetryPlane;
    }
    bottom
    {
        type            calculated;
        value           nonuniform List<symmTensor> 
32
(
(214.669 84.2888 3.89756 325.995 95.2262 215.623)
(211.278 94.418 2.16927 319.299 47.1899 208.022)
(217.56 99.2771 1.09931 328.599 22.8318 213.033)
(221.172 101.008 0.505763 334.099 10.3477 216.287)
(222.755 101.49 0.205001 336.551 4.17855 217.784)
(223.359 101.539 0.0666619 337.51 1.35866 218.378)
(223.54 101.477 0.0134521 337.808 0.274374 218.564)
(223.573 101.424 0.000554277 337.869 0.0113114 218.603)
(41.3892 33.7313 0.488466 61.4961 26.6009 41.155)
(43.5535 44.5425 0.332739 64.0815 13.7382 42.5773)
(46.4654 46.2692 0.160734 68.3765 6.40125 45.3258)
(47.8231 45.8676 0.0637715 70.4716 2.5644 46.686)
(48.5063 45.1172 0.0179384 71.5673 0.733709 47.4035)
(48.8742 44.4816 -0.00012791 72.1742 -0.00530796 47.8023)
(49.0714 44.0596 -0.00424974 72.5051 -0.178069 48.0199)
(49.1585 43.8533 -0.00202141 72.6527 -0.0851039 48.1169)
(-58.9105 28.6809 -0.511299 -88.336 -30.5237 -58.8468)
(-52.6957 39.0788 -0.403948 -79.7632 -17.7719 -53.4003)
(-53.2398 40.1434 -0.243421 -80.6407 -10.4211 -54.1143)
(-53.5818 39.2751 -0.138811 -81.0879 -6.07276 -54.4581)
(-53.6079 38.2223 -0.0773383 -81.0569 -3.47669 -54.4511)
(-53.4786 37.392 -0.0416675 -80.8123 -1.91495 -54.2901)
(-53.3261 36.852 -0.0203044 -80.5528 -0.946944 -54.1158)
(-53.2313 36.59 -0.00605247 -80.3962 -0.284314 -54.0102)
(-218.538 59.4179 -3.42251 -320.856 -87.5855 -215.815)
(-207.643 66.9783 -2.0648 -306.483 -47.2484 -209.113)
(-213.081 69.0166 -1.13909 -314.471 -25.1904 -215.786)
(-215.869 69.004 -0.595902 -318.423 -13.1531 -218.881)
(-216.649 68.4281 -0.298764 -319.457 -6.64638 -219.695)
(-216.552 67.8261 -0.142178 -319.249 -3.19137 -219.567)
(-216.224 67.3815 -0.0611642 -318.731 -1.38236 -219.204)
(-215.992 67.1517 -0.0167611 -318.376 -0.380183 -218.952)
)
;
    }
}


// ************************************************************************* //
