/*--------------------------------*- C++ -*----------------------------------*\
| =========                 |                                                 |
| \\      /  F ield         | foam-extend: Open Source CFD                    |
|  \\    /   O peration     | Version:     3.1                                |
|   \\  /    A nd           | Web:         http://www.extend-project.de       |
|    \\/     M anipulation  |                                                 |
\*---------------------------------------------------------------------------*/
FoamFile
{
    version     2.0;
    format      ascii;
    class       volScalarField;
    location    "3.1";
    object      sigmaEq;
}
// * * * * * * * * * * * * * * * * * * * * * * * * * * * * * * * * * * * * * //

dimensions      [1 -1 -2 0 0 0 0];

internalField   nonuniform List<scalar> 
256
(
249.369
111.119
108.749
238.361
186.613
140.999
130.314
167.244
169.463
134.448
123.831
147.119
134.975
120.29
110.94
110.921
104.108
102.549
94.7332
79.8953
77.8993
82.8091
76.4436
53.8405
60.2208
63.3434
56.505
34.3418
56.2478
48.7055
31.2888
20.7529
245.826
124.495
119.484
228.499
194.714
144.895
135.88
176.613
167.367
125.214
115.472
145.358
131.661
106.667
97.561
107.342
99.4971
87.5404
79.7881
74.3828
73.5326
68.9056
62.6684
47.9675
56.6327
51.9836
45.754
29.1784
53.7991
42.095
25.9943
17.7679
247.868
128.157
121.12
226.161
193.987
146.11
135.755
172.764
167.653
124.589
113.37
142.476
131.797
103.857
93.2534
104.395
99.5538
83.8671
74.7539
71.5012
73.4039
65.1913
57.9513
45.3251
56.1994
49.0675
42.3116
26.9209
52.7029
41.3308
24.7135
14.781
249.049
128.833
120.347
224.486
193.523
146.869
135.063
169.661
167.898
125.385
112.649
139.82
132.46
104.236
92.1893
102.064
100.401
83.9072
73.5375
69.4095
74.2517
65.0521
56.8644
43.4626
56.8948
49.0751
41.6984
25.2982
53.1589
42.3152
24.9365
13.0693
249.413
128.499
119.017
222.841
193.527
147.141
134.191
167.607
168.333
126.176
112.278
137.905
133.303
105.181
92.0661
100.404
101.468
84.8264
73.5493
67.9691
75.366
65.8566
56.9798
42.1949
57.929
49.8345
41.9607
24.2152
54.1002
43.4833
25.4775
12.1929
249.361
127.95
117.793
221.388
193.636
147.135
133.351
166.218
168.754
126.697
111.973
136.599
134.029
105.974
92.1197
99.2845
102.365
85.702
73.8143
67.0149
76.3078
66.6769
57.3409
41.3729
58.8302
50.5742
42.3531
23.5347
55.0235
44.402
25.8959
11.6931
249.195
127.497
116.916
220.326
193.727
147.038
132.709
165.33
169.06
126.98
111.722
135.775
134.532
106.478
92.158
98.5884
102.974
86.2941
74.0298
66.4299
76.9447
67.2464
57.6301
40.8814
59.4506
51.0816
42.6385
23.1418
55.69
44.9972
26.1373
11.3858
249.079
127.253
116.467
219.771
193.772
146.963
132.366
164.892
169.215
127.097
111.578
135.374
134.782
106.715
92.1681
98.2527
103.274
86.581
74.1364
66.1503
77.2565
67.5257
57.7759
40.6506
59.755
51.3296
42.7771
22.9611
56.0224
45.2842
26.2404
11.2302
)
;

boundaryField
{
    interface
    {
        type            calculated;
        value           nonuniform List<scalar> 
192
(
403.265
211.53
205.421
154.293
114.392
81.5853
63.6554
55.0704
395.147
227.917
206.99
157.93
117.152
85.2709
67.7539
58.9115
400.087
223.943
206.19
157.65
116.891
84.6888
66.6497
55.5322
403.66
221.658
205.607
157.797
117.485
85.4377
67.428
55.5023
405.334
220.772
205.544
158.232
118.306
86.4262
68.4971
56.0975
405.908
220.47
205.733
158.746
119.07
87.3153
69.4631
56.9139
406.002
220.369
205.937
159.149
119.614
87.9302
70.128
57.5349
405.969
220.333
206.05
159.356
119.883
88.2303
70.4456
57.8347
281.78
173.827
174.663
139.306
109.96
83.6194
65.1486
60.5642
101.551
135.622
142.639
131.01
114.167
93.4161
72.0179
55.4725
102.95
122.197
130.618
120.653
105.554
86.3052
64.2716
35.5676
274.755
150.572
151.439
114.378
85.5975
59.7682
39.803
24.7887
381.271
196.473
183.428
129.49
86.8189
50.9555
27.243
17.6234
363.651
212.328
183.182
130.528
86.6639
51.5057
28.5238
18.8835
364.326
205.765
179.515
127.633
84.1034
49.2109
26.1831
14.3977
364.78
201.282
176.067
124.704
81.4785
46.629
23.2919
11.418
364.035
198.706
173.709
122.536
79.464
44.5189
20.758
9.35217
362.812
197.153
172.186
121.093
78.0796
43.0324
18.893
8.01135
361.717
196.222
171.262
120.216
77.2244
42.1089
17.708
7.16388
361.096
195.777
170.82
119.8
76.8168
41.6695
17.1406
6.74645
60.8524
58.1383
57.3475
57.6555
58.5961
59.5373
60.2345
60.5708
46.8965
42.2843
42.9207
44.6345
46.1912
47.324
48.041
48.3889
13.2163
11.6404
12.1122
13.4855
14.5906
15.1918
15.457
15.5491
20.9503
17.7546
13.7354
11.3984
10.3644
9.76264
9.34815
9.11459
)
;
    }
    symmetry
    {
        type            symmetryPlane;
    }
    bottom
    {
        type            calculated;
        value           nonuniform List<scalar> 
32
(
228.722
198.094
194.483
194.858
195.277
195.383
195.336
195.276
75.9524
82.127
82.5763
81.4716
80.2299
79.2386
78.5838
78.2621
80.0549
80.6091
78.298
75.4859
73.2342
71.6554
70.6719
70.2019
229.144
186.928
175.675
171.816
169.865
168.568
167.699
167.256
)
;
    }
}


// ************************************************************************* //
