/*--------------------------------*- C++ -*----------------------------------*\
| =========                 |                                                 |
| \\      /  F ield         | foam-extend: Open Source CFD                    |
|  \\    /   O peration     | Version:     3.1                                |
|   \\  /    A nd           | Web:         http://www.extend-project.de       |
|    \\/     M anipulation  |                                                 |
\*---------------------------------------------------------------------------*/
FoamFile
{
    version     2.0;
    format      ascii;
    class       volSymmTensorField;
    location    "3.1";
    object      sigma;
}
// * * * * * * * * * * * * * * * * * * * * * * * * * * * * * * * * * * * * * //

dimensions      [1 -1 -2 0 0 0 0];

internalField   nonuniform List<symmTensor> 
256
(
(181.838 63.1716 -2.78433 411.458 32.6179 210.312)
(24.301 53.8149 -8.40016 83.5255 11.3407 33.1502)
(-56.5746 50.1655 -8.58515 -113.736 -16.1344 -56.4509)
(-204.731 53.2757 -3.48911 -421.403 -39.4555 -221.5)
(-77.3741 26.3822 -3.2207 123.739 -10.6539 -21.8708)
(-33.0059 69.2114 -13.272 45.8229 -4.75287 -9.51388)
(-1.54849 67.7446 -13.7306 -53.5765 2.43332 -3.06329)
(41.0196 25.4129 -4.83407 -133.006 7.46273 9.52414)
(-28.3998 32.2311 -1.286 151.421 -5.89691 26.2904)
(-34.1104 66.9336 -9.10586 41.628 -2.43759 -4.4275)
(-7.25866 66.9521 -9.45192 -47.8854 0.248574 -8.06865)
(-6.83456 32.5336 -2.94236 -153.303 3.42572 -31.9265)
(-39.8392 28.2716 -1.26721 102.737 -8.35677 12.4728)
(-35.0203 61.103 -7.49942 28.9486 -2.9222 -5.37343)
(-6.86742 61.4844 -7.75316 -33.5105 1.16255 -4.3809)
(4.45355 29.0623 -3.06098 -101.705 6.48944 -14.5224)
(-36.4985 24.5736 -0.884557 71.9623 -7.67799 12.7523)
(-32.956 52.7119 -6.02078 19.2444 -2.52948 -3.85341)
(-8.26928 53.3468 -6.23774 -23.4718 1.14218 -3.92291)
(1.60422 25.7682 -2.7013 -69.3956 6.3739 -12.2913)
(-36.9746 19.025 -0.952381 42.9904 -6.71409 9.9858)
(-31.71 42.4021 -5.23016 10.1027 -2.21549 -3.35368)
(-8.81942 43.4029 -5.3231 -15.1396 1.03335 -3.37575)
(2.16631 20.9607 -2.60955 -40.1731 5.89789 -8.44455)
(-36.1509 12.3753 -1.49032 25.0276 -5.57542 10.5652)
(-31.9045 31.0134 -4.99719 2.89551 -2.16304 -3.11744)
(-9.35451 32.0776 -4.86496 -9.28076 0.650469 -3.51894)
(2.93423 15.2536 -2.71298 -19.9144 4.67136 -6.98776)
(-47.3371 7.03372 -2.10066 8.73287 -3.14464 5.48911)
(-44.8007 17.7379 -4.74161 -6.72009 -1.43397 -9.41712)
(-3.76158 17.3225 -4.6853 -0.625276 -0.0924061 0.157354)
(9.90185 7.57469 -3.19038 -5.54155 1.6873 -4.19187)
(183.452 71.6643 -1.71527 408.18 19.9988 218.761)
(30.0739 64.5245 -6.72032 86.7867 6.3574 39.9969)
(-51.382 61.3662 -7.33813 -101.529 -11.4836 -53.307)
(-196.815 62.2081 -3.19074 -403.281 -26.9081 -219.869)
(-44.2769 27.0201 -2.42904 167.709 -4.25876 17.5821)
(-10.1714 71.2583 -12.3623 71.1665 -2.76186 12.661)
(-21.8913 70.4388 -13.6815 -78.226 -1.03181 -24.89)
(7.21556 27.091 -5.56761 -178.346 -0.299242 -30.1368)
(-22.4607 28.2363 -0.894969 156.672 -9.30037 31.1675)
(-22.5466 61.2689 -9.75394 50.251 -3.85891 3.2551)
(-13.0654 61.4587 -11.1671 -53.4732 1.37445 -13.3243)
(-10.3547 28.5777 -4.49868 -156.908 6.42629 -34.7877)
(-29.1918 23.4744 0.254622 111.76 -11.4516 21.6063)
(-22.7559 52.9751 -6.92289 37.6824 -4.11414 2.50019)
(-12.374 53.3641 -8.39408 -38.2593 2.54856 -9.7736)
(-3.3419 24.1645 -3.70039 -108.359 9.77963 -21.6288)
(-28.6796 19.3382 1.30154 76.8774 -11.3698 18.7905)
(-22.4578 44 -4.66692 25.7845 -3.84554 2.00847)
(-11.4078 44.5689 -6.16026 -25.1396 2.93435 -7.05426)
(-3.15023 20.3859 -2.78485 -71.2994 10.6384 -16.2483)
(-29.3144 14.3173 1.81916 47.5532 -10.0114 16.1909)
(-22.1275 34.5537 -3.18197 15.7849 -3.34601 1.74075)
(-10.7751 35.4514 -4.56789 -15.1933 2.70006 -5.38138)
(-2.16088 16.137 -2.12113 -40.8609 9.9214 -12.1513)
(-29.2379 8.51397 1.73318 28.7956 -7.82064 16.2525)
(-23.9127 24.887 -2.51328 7.04827 -2.85483 0.615432)
(-10.2085 25.9185 -3.69375 -8.00047 1.86551 -4.29921)
(-0.138004 11.5612 -1.74863 -18.7674 7.76575 -9.37425)
(-40.1765 5.19305 1.20332 13.1392 -4.35108 11.3887)
(-37.9621 14.664 -2.50746 -3.27024 -1.81178 -6.63252)
(-5.72324 14.2135 -3.89499 -0.596329 0.566157 -1.305)
(5.48122 5.89712 -2.34313 -6.19927 3.68266 -7.5623)
(190.071 75.197 -1.13686 418.472 9.78103 233.149)
(32.7593 67.2102 -4.28371 90.9645 2.55654 45.8263)
(-51.7614 63.8052 -4.79868 -101.12 -7.16206 -56.2761)
(-202.951 64.8587 -2.22635 -410.767 -15.3701 -233.276)
(-44.9692 27.4987 -1.96123 168.936 -2.92946 30.2283)
(-8.43193 72.3418 -8.35812 75.2283 -2.23329 20.1991)
(-23.4818 71.5576 -9.47823 -79.7484 -1.41051 -31.1666)
(5.15684 27.5673 -4.31355 -180.062 -0.932787 -45.266)
(-23.1973 27.7987 -1.1861 158.706 -7.21209 39.2522)
(-21.8477 60.6768 -7.23777 53.2822 -3.27777 8.32358)
(-14.0199 60.8555 -8.46327 -54.7074 0.857122 -17.5152)
(-12.4553 27.9224 -3.8452 -159.647 4.6962 -46.0412)
(-30.2445 22.5891 -0.260541 112.708 -9.33061 25.3618)
(-22.0964 50.8823 -5.28799 39.9585 -3.59961 6.03305)
(-13.233 51.2494 -6.54654 -38.6508 2.20745 -12.1961)
(-5.65877 23.1385 -3.07284 -110.425 7.97737 -29.0436)
(-30.606 18.0724 0.588095 76.6978 -9.60808 18.8543)
(-21.8594 41.3059 -3.40727 27.7111 -3.41175 4.49702)
(-12.1468 41.8992 -4.66036 -24.9956 2.79554 -8.12586)
(-4.7542 19.1132 -2.24115 -72.1254 9.21119 -19.9271)
(-31.5708 12.9451 1.10943 46.9063 -8.63997 13.8938)
(-21.5345 31.8339 -2.07457 17.449 -2.95376 3.51081)
(-11.3864 32.8563 -3.23393 -14.5836 2.73075 -5.34686)
(-3.39171 14.9871 -1.56635 -40.8677 8.89312 -13.0433)
(-31.1826 7.13894 1.15995 28.4387 -6.76039 12.71)
(-23.3533 22.6528 -1.50618 8.45744 -2.39333 1.78481)
(-10.8231 23.9255 -2.54212 -7.15469 2.01529 -3.39268)
(-1.13341 10.743 -1.22771 -18.1646 7.15851 -8.00608)
(-42.8391 4.51492 0.655643 11.6484 -3.54085 5.63844)
(-37.9695 13.5455 -1.90438 -2.3476 -1.34882 -6.3833)
(-6.89993 13.2345 -3.22786 0.261078 0.666112 0.45587)
(5.34868 5.5826 -2.01412 -4.11266 3.32995 -2.90445)
(193.497 76.4779 -0.617691 424.235 4.0319 241.792)
(33.6836 67.6534 -2.5402 93.0076 0.589694 48.953)
(-52.2135 63.957 -2.88711 -101.095 -4.37432 -58.2821)
(-205.966 65.3888 -1.37952 -414.385 -8.33676 -241.083)
(-46.0805 27.6196 -1.15824 168.835 -2.45827 39.0415)
(-8.83924 72.8271 -5.21169 76.5966 -1.83333 24.2261)
(-23.9213 71.9831 -5.98463 -79.2544 -1.21531 -34.5885)
(4.69258 27.6581 -2.83707 -179.413 -0.590589 -55.0559)
(-23.9071 27.9263 -0.832382 159.838 -5.19182 46.8598)
(-22.8546 60.9255 -4.88127 54.4 -2.49025 11.3709)
(-14.43 61.0958 -5.73481 -54.3233 0.452865 -20.2742)
(-13.0924 27.987 -2.72272 -159.748 3.20382 -54.5477)
(-31.0934 22.5374 -0.276351 113.887 -6.72338 30.3676)
(-23.1298 50.7257 -3.74757 40.9664 -2.70717 8.21138)
(-13.7889 51.1048 -4.60129 -38.2571 1.57754 -14.0324)
(-6.3278 23.0793 -2.22771 -110.615 5.6878 -35.0126)
(-31.4579 17.8517 0.302992 77.9069 -7.07937 21.4274)
(-22.8227 40.8347 -2.47816 28.6947 -2.58048 5.94829)
(-12.7904 41.4878 -3.30481 -24.5623 2.15599 -9.01115)
(-5.41784 18.9831 -1.61619 -72.2058 6.84858 -23.2366)
(-32.3445 12.5817 0.691137 48.1942 -6.52979 14.5742)
(-22.3829 31.1981 -1.5323 18.4158 -2.25797 4.4258)
(-12.039 32.3566 -2.28259 -14.0649 2.20311 -5.342)
(-4.04792 14.867 -1.09781 -40.7817 6.8334 -14.0372)
(-31.5421 6.66415 0.727363 30.1144 -5.25706 12.2534)
(-24.1085 22.0502 -1.21799 9.3882 -1.8399 2.31514)
(-11.5669 23.517 -1.89711 -6.58407 1.68045 -2.61646)
(-1.83663 10.6879 -0.877988 -17.8116 5.64982 -7.02599)
(-43.1432 4.29438 0.201816 13.152 -2.89509 4.19884)
(-38.8914 13.2181 -1.8888 -1.40961 -1.06966 -6.05695)
(-8.25119 12.9759 -2.81855 0.713774 0.573199 1.85368)
(4.49936 5.57099 -1.67273 -3.44964 2.68003 -0.0819982)
(194.765 76.8224 -0.289406 426.653 1.18615 246.144)
(34.0313 67.3846 -1.42443 94.0711 -0.261526 50.6301)
(-52.3941 63.4672 -1.64463 -100.762 -2.62505 -59.3322)
(-206.787 65.1775 -0.80143 -414.881 -4.34484 -244.669)
(-47.0726 27.5584 -0.580764 168.61 -2.06417 44.2959)
(-9.33624 72.8596 -3.06082 77.3422 -1.44794 26.5346)
(-24.2405 71.9677 -3.56502 -78.5301 -0.915222 -36.6234)
(4.39867 27.5971 -1.72951 -178.603 -0.244696 -61.0018)
(-24.792 28.0205 -0.465127 160.274 -3.65796 51.8501)
(-23.7277 61.1563 -3.06815 55.067 -1.79604 13.288)
(-14.8018 61.3391 -3.63176 -53.6519 0.222151 -22.0908)
(-13.3132 28.0838 -1.75717 -159.106 2.16938 -60.0053)
(-32.0251 22.6462 -0.164297 114.562 -4.61061 34.0869)
(-24.0271 50.9763 -2.47112 41.6734 -1.90095 9.69232)
(-14.2503 51.3867 -3.02298 -37.6695 1.04438 -15.3602)
(-6.59579 23.2319 -1.47549 -110.145 3.85025 -39.1601)
(-32.325 17.9129 0.184798 78.797 -4.89186 23.7218)
(-23.664 41.0054 -1.70404 29.4491 -1.81129 7.00154)
(-13.2972 41.7192 -2.22573 -24.0323 1.50856 -9.72529)
(-5.73165 19.1504 -1.08332 -71.8488 4.73903 -25.7484)
(-33.1087 12.5525 0.423732 49.2382 -4.60973 15.6337)
(-23.1243 31.2583 -1.1229 19.2019 -1.60886 5.15627)
(-12.5583 32.5198 -1.58746 -13.5672 1.58588 -5.43246)
(-4.38581 15.0347 -0.747403 -40.4345 4.83871 -14.9448)
(-32.0273 6.52723 0.405456 31.4168 -3.82224 12.531)
(-24.8026 22.0311 -1.02297 10.1464 -1.34106 2.80833)
(-12.1714 23.6189 -1.44446 -6.12074 1.22363 -2.15034)
(-2.20496 10.8445 -0.648712 -17.3358 4.07563 -6.48906)
(-43.8321 4.24376 -0.102908 14.1312 -2.16759 3.55789)
(-39.8964 13.2033 -1.76688 -0.79492 -0.800204 -5.86003)
(-9.27886 12.9666 -2.37403 1.08822 0.402873 2.73831)
(4.01895 5.63802 -1.36072 -2.83385 1.94026 1.70469)
(195.094 76.8209 -0.108536 427.465 0.00100986 248.198)
(34.1583 66.9777 -0.749813 94.6526 -0.492372 51.518)
(-52.3878 62.9071 -0.883008 -100.284 -1.51509 -59.8)
(-206.674 64.7914 -0.436498 -414.094 -2.1484 -246.062)
(-47.7199 27.4321 -0.235358 168.486 -1.57707 47.3074)
(-9.70871 72.6912 -1.68188 77.8211 -1.05068 27.8234)
(-24.4528 71.7675 -1.99446 -77.8582 -0.621775 -37.7918)
(4.14118 27.4879 -0.981587 -177.907 -0.0432003 -64.4632)
(-25.4405 28.0414 -0.204167 160.538 -2.45014 54.9078)
(-24.3256 61.2472 -1.78834 55.5345 -1.21261 14.4353)
(-15.0909 61.4466 -2.14188 -53.0309 0.102758 -23.2256)
(-13.4353 28.1282 -1.0442 -158.414 1.4152 -63.2943)
(-32.7021 22.7332 -0.0540697 115.016 -2.99027 36.5635)
(-24.6458 51.2038 -1.50211 42.188 -1.24757 10.6345)
(-14.5779 51.6444 -1.84323 -37.1097 0.648012 -16.2319)
(-6.73728 23.3708 -0.897956 -109.567 2.46628 -41.7906)
(-32.9531 18.004 0.137839 79.4219 -3.17133 25.448)
(-24.2438 41.2562 -1.07956 30.0082 -1.18456 7.72316)
(-13.6375 42.0179 -1.39657 -23.5335 0.970882 -10.2243)
(-5.89418 19.3308 -0.67053 -71.3701 3.06111 -27.4441)
(-33.6546 12.5956 0.266103 49.9858 -3.03381 16.6701)
(-23.6388 31.456 -0.763875 19.7802 -1.06667 5.7057)
(-12.9008 32.7895 -1.04214 -13.1256 1.03646 -5.52979)
(-4.57376 15.2211 -0.477696 -40.013 3.16585 -15.6623)
(-32.3929 6.48712 0.219516 32.3296 -2.57434 13.1201)
(-25.3028 22.1447 -0.783707 10.6872 -0.90918 3.21814)
(-12.5791 23.8101 -1.03644 -5.74605 0.799572 -1.8922)
(-2.41776 11.0057 -0.454058 -16.8787 2.69521 -6.29332)
(-44.28 4.22675 -0.189396 14.9412 -1.50146 3.68153)
(-40.6358 13.2516 -1.42057 -0.3507 -0.558305 -5.64171)
(-9.98094 13.0076 -1.80038 1.36945 0.250252 3.20899)
(3.64295 5.69492 -1.00577 -2.43313 1.28575 2.54088)
(195.081 76.7351 -0.028705 427.621 -0.286494 249.085)
(34.2013 66.6483 -0.3515 94.9683 -0.397209 51.9687)
(-52.3166 62.4817 -0.422743 -99.8622 -0.779714 -59.9734)
(-206.321 64.4638 -0.211287 -413.12 -0.956245 -246.477)
(-48.112 27.3165 -0.0716969 168.412 -0.989888 48.8937)
(-9.94488 72.5001 -0.817864 78.1218 -0.638047 28.4997)
(-24.5729 71.5576 -0.98812 -77.355 -0.357291 -38.415)
(3.96003 27.3907 -0.490963 -177.395 0.0282618 -66.335)
(-25.8582 28.0259 -0.0683034 160.696 -1.41752 56.5995)
(-24.6866 61.2517 -0.911695 55.8475 -0.702719 15.0702)
(-15.2789 61.4646 -1.10601 -52.5765 0.0430535 -23.8762)
(-13.5071 28.1361 -0.540611 -157.885 0.805823 -65.1213)
(-33.1376 22.7775 -0.00200216 115.296 -1.68699 38.0101)
(-25.0203 51.335 -0.79145 42.5326 -0.707634 11.1818)
(-14.7811 51.7974 -0.977306 -36.6942 0.351414 -16.7473)
(-6.81779 23.4557 -0.473742 -109.111 1.37727 -43.3061)
(-33.3623 18.0647 0.0902757 79.7991 -1.78412 26.5318)
(-24.5944 41.4326 -0.588208 30.3777 -0.669504 8.169)
(-13.8401 42.226 -0.759192 -23.1613 0.53821 -10.5293)
(-5.97932 19.4534 -0.359442 -70.9735 1.71219 -28.4631)
(-34.0148 12.6328 0.148518 50.4296 -1.72269 17.4057)
(-23.9511 31.6118 -0.441431 20.1542 -0.608918 6.07075)
(-13.1011 32.9903 -0.590211 -12.8016 0.57876 -5.60095)
(-4.67315 15.3507 -0.264621 -39.6643 1.78132 -16.14)
(-32.6533 6.47207 0.104149 32.8625 -1.48509 13.6258)
(-25.6122 22.2421 -0.492083 11.0289 -0.52759 3.51166)
(-12.8216 23.9531 -0.627334 -5.48282 0.444723 -1.76145)
(-2.52955 11.115 -0.271009 -16.5294 1.52432 -6.25481)
(-44.591 4.22181 -0.159974 15.4332 -0.885873 3.94935)
(-41.1093 13.2962 -0.911831 -0.0756988 -0.330258 -5.46813)
(-10.4086 13.0405 -1.12108 1.56099 0.13361 3.43209)
(3.40666 5.72853 -0.618394 -2.17013 0.727314 2.88308)
(195.017 76.6727 -0.0040248 427.602 -0.13854 249.403)
(34.2134 66.4723 -0.101729 95.109 -0.147476 52.1572)
(-52.2618 62.2594 -0.124083 -99.6218 -0.239711 -60.022)
(-206.074 64.285 -0.062397 -412.518 -0.267817 -246.55)
(-48.2964 27.2507 -0.0131445 168.375 -0.337278 49.567)
(-10.0583 72.384 -0.242097 78.2685 -0.214031 28.7876)
(-24.6252 71.4329 -0.296035 -77.0876 -0.116241 -38.6831)
(3.86864 27.336 -0.14779 -177.122 0.0184703 -67.15)
(-26.06 28.0089 -0.0142305 160.771 -0.464941 57.3413)
(-24.8555 61.2356 -0.277456 56.0057 -0.230496 15.3498)
(-15.3697 61.4557 -0.339296 -52.3388 0.0116008 -24.1706)
(-13.5407 28.1328 -0.165918 -157.604 0.262345 -65.9312)
(-33.3477 22.7936 0.00406059 115.43 -0.546098 38.6658)
(-25.1956 51.3893 -0.245498 42.7056 -0.229541 11.4305)
(-14.8773 51.8627 -0.304389 -36.4763 0.111156 -16.9848)
(-6.85507 23.4932 -0.146999 -108.867 0.443229 -43.9932)
(-33.5613 18.0921 0.0310383 79.9747 -0.576427 27.0439)
(-24.7586 41.5164 -0.186077 30.5605 -0.216743 8.37966)
(-13.9337 42.3253 -0.239995 -22.9653 0.172011 -10.6723)
(-6.01621 19.5118 -0.112674 -70.7566 0.550822 -28.9367)
(-34.1905 12.6504 0.0471076 50.6325 -0.559139 17.7769)
(-24.0975 31.6895 -0.144499 20.3359 -0.198177 6.25085)
(-13.1924 33.0892 -0.191187 -12.6319 0.1855 -5.63717)
(-4.71612 15.4135 -0.084707 -39.4729 0.574298 -16.3757)
(-32.7836 6.46514 0.0290084 33.1017 -0.486365 13.9031)
(-25.7582 22.2916 -0.168147 11.1922 -0.173218 3.66227)
(-12.9333 24.0228 -0.210543 -5.34723 0.14218 -1.70779)
(-2.57852 11.1669 -0.0904637 -16.3447 0.492421 -6.26278)
(-44.7382 4.22185 -0.0626589 15.6617 -0.295363 4.13402)
(-41.3343 13.3214 -0.313964 0.0565656 -0.109649 -5.37296)
(-10.612 13.0554 -0.380671 1.65758 0.0421346 3.51512)
(3.28802 5.74187 -0.209118 -2.04343 0.235118 2.98764)
)
;

boundaryField
{
    interface
    {
        type            calculated;
        value           nonuniform List<symmTensor> 
192
(
(-23.5819 -0.065684 2.40607 427.069 40.3694 128.25)
(-22.9903 0.0230686 4.06221 206.776 -12.9414 24.0802)
(-22.9947 0.0588797 4.87195 207.326 -8.04957 45.8373)
(-23.0385 -0.0453064 5.31183 150.26 -11.7534 35.6273)
(-23.3707 -0.382049 5.5525 105.943 -11.0013 31.9081)
(-23.8308 -1.0258 5.59797 67.4339 -9.63148 27.6113)
(-24.2055 -2.18328 5.38402 43.9015 -7.63837 27.0755)
(-23.0031 -3.95575 4.70028 31.5636 -4.11479 29.4911)
(-26.6152 0.107114 1.7214 421.332 25.0153 136.022)
(-26.3596 0.262166 2.92684 227.635 -4.83401 41.771)
(-27.0322 0.324053 3.50299 204.928 -12.1176 44.0806)
(-27.7614 0.1607 3.8089 149.457 -15.4608 35.8176)
(-28.5853 -0.296849 3.95814 102.643 -15.5407 30.9333)
(-29.1704 -1.14276 3.95096 64.3191 -13.7472 27.485)
(-28.9999 -2.62426 3.74677 41.4601 -10.5573 27.9094)
(-25.5175 -4.7154 3.23438 31.1993 -5.72488 32.1931)
(-28.6292 0.155217 1.23544 428.649 12.3449 147.279)
(-28.2467 0.33977 2.09245 225.218 -3.18406 54.6329)
(-29.053 0.417094 2.4704 204.536 -9.08074 51.3326)
(-29.9256 0.227829 2.65122 148.68 -12.1705 37.8559)
(-30.8398 -0.299379 2.7256 101.385 -12.7399 28.8319)
(-31.3363 -1.2654 2.70145 63.1648 -11.566 22.7212)
(-30.7303 -2.92092 2.56031 41.1736 -9.0344 21.7875)
(-26.0867 -5.12806 2.24317 30.7121 -4.74077 24.7368)
(-30.0768 0.163187 0.90438 432.764 5.10481 154.496)
(-29.5754 0.35759 1.53466 223.605 -2.76536 64.9748)
(-30.3937 0.441518 1.79978 204.561 -6.43737 59.9422)
(-31.2895 0.235864 1.91617 149.153 -8.61647 43.2336)
(-32.1857 -0.335343 1.95637 102.074 -9.24423 31.0294)
(-32.5797 -1.37518 1.9352 64.1305 -8.63093 22.4507)
(-31.6778 -3.13413 1.84485 42.7302 -6.98702 19.9479)
(-26.3397 -5.3956 1.63985 32.3056 -3.88877 21.9638)
(-31.1153 0.161204 0.651392 434.231 1.51299 158.232)
(-30.5401 0.356032 1.10993 222.726 -2.41148 71.3782)
(-31.3459 0.440318 1.29878 204.611 -4.528 66.0324)
(-32.2356 0.222715 1.37736 149.639 -5.86544 47.7573)
(-33.0893 -0.376516 1.40209 102.891 -6.3386 33.664)
(-33.4048 -1.46223 1.38828 65.1896 -6.05473 23.4204)
(-32.307 -3.28753 1.33289 44.1497 -5.06814 19.8072)
(-26.505 -5.58145 1.19695 33.7 -2.91907 21.0656)
(-31.8386 0.157167 0.44187 434.43 0.0145979 160)
(-31.2186 0.3493 0.755666 222.225 -1.88807 75.0412)
(-32.0101 0.431517 0.883966 204.697 -3.04381 69.8337)
(-32.8864 0.205662 0.936018 150.034 -3.79864 50.8738)
(-33.7071 -0.411314 0.952374 103.519 -4.09823 35.7934)
(-33.9667 -1.52598 0.944647 65.9854 -3.97605 24.6145)
(-32.7415 -3.39447 0.911832 45.172 -3.41372 20.3653)
(-26.6289 -5.70919 0.823606 34.8201 -2.02679 21.2729)
(-32.2989 0.154414 0.254955 434.207 -0.352171 160.751)
(-31.6555 0.343507 0.437679 221.923 -1.20085 76.9481)
(-32.4369 0.423148 0.511858 204.761 -1.768 71.9407)
(-33.3026 0.192017 0.54166 150.291 -2.14493 52.7102)
(-34.1023 -0.435663 0.551327 103.907 -2.30505 37.161)
(-34.3267 -1.56807 0.547535 66.4631 -2.25716 25.5137)
(-33.0235 -3.46335 0.528621 45.7784 -1.97109 20.9431)
(-26.7197 -5.78821 0.475465 35.5216 -1.19894 21.7008)
(-32.5137 0.152591 0.082507 434.008 -0.171385 161.018)
(-31.8591 0.33939 0.142102 221.78 -0.411453 77.7533)
(-32.6318 0.417466 0.166038 204.8 -0.581207 72.87)
(-33.4896 0.18433 0.1756 150.425 -0.694988 53.5523)
(-34.2798 -0.448297 0.178804 104.097 -0.744988 37.8204)
(-34.4877 -1.59083 0.177632 66.6894 -0.732768 25.9845)
(-33.1352 -3.50108 0.170762 46.0662 -0.646071 21.2921)
(-26.7222 -5.8201 0.151619 35.873 -0.400684 22.0128)
(37.0425 57.2293 -2.80246 273.741 -0.686998 -10.528)
(-79.1247 26.1079 -4.79931 112.501 -1.07438 -6.93478)
(-54.0188 35.7271 -5.79562 128.197 -1.13272 -3.79195)
(-55.014 32.2856 -6.43389 90.0931 -1.04482 -1.42203)
(-49.4465 28.7711 -6.9405 62.6159 -1.00752 0.124945)
(-46.811 22.6729 -7.39258 36.8355 -1.11935 0.90726)
(-45.4882 15.2281 -7.92185 19.412 -1.40539 0.941583)
(-53.6256 8.37842 -8.95604 5.48952 -1.74112 0.155092)
(-5.59317 45.2851 -1.77981 56.9749 -0.536248 -9.15195)
(-41.31 67.8638 -3.23112 36.2804 -0.98607 -7.7547)
(-42.4684 71.9083 -3.83758 37.3164 -1.16666 -5.91179)
(-41.6878 67.4024 -4.16045 26.312 -1.07381 -4.38729)
(-39.2396 59.2294 -4.417 17.2147 -0.900004 -3.37316)
(-37.3865 48.1229 -4.71017 8.45526 -0.773283 -2.86066)
(-36.8492 35.4332 -5.202 1.78184 -0.743619 -2.77113)
(-45.0118 19.9832 -6.49496 -3.5599 -0.715535 -2.78165)
(-26.449 41.0696 -1.36657 -90.0274 -0.356724 -8.22914)
(2.5059 65.8028 -2.67594 -45.5419 -0.801843 -7.83651)
(-3.08739 71.7624 -3.25113 -44.4789 -1.05232 -6.70409)
(-5.44323 67.7622 -3.53191 -32.7809 -1.00353 -5.658)
(-7.89385 59.9321 -3.73154 -24.2033 -0.809019 -4.96167)
(-9.28927 49.2781 -3.97674 -16.8984 -0.603555 -4.62962)
(-10.2489 36.6526 -4.43671 -11.5565 -0.449474 -4.60436)
(-7.00961 19.6819 -5.69709 -4.82216 -0.314609 -4.62733)
(-66.9878 46.4516 -1.27744 -294.531 -0.300312 -7.03705)
(41.6565 24.103 -2.66549 -121 -0.754918 -7.06408)
(14.4492 35.8339 -3.32982 -132.691 -1.02497 -6.13675)
(14.4931 33.0641 -3.66728 -92.6844 -0.996703 -5.27276)
(8.87906 30.0737 -3.88577 -64.4486 -0.798013 -4.68232)
(6.20892 24.8186 -4.13317 -38.9335 -0.557658 -4.37152)
(5.19475 18.2485 -4.57729 -20.8664 -0.310615 -4.26845)
(10.4318 8.98245 -5.75339 -7.43186 -0.0114722 -4.31308)
(-4.13956 0.285881 0.310649 -423.805 -48.8291 -135.71)
(-3.29922 0.610828 0.559746 -210.659 8.91984 -28.7976)
(-2.23784 0.813814 0.593783 -202.188 5.22519 -42.4152)
(-1.41444 0.804662 0.585033 -140.802 9.77123 -27.4459)
(-0.772362 0.672249 0.632487 -94.1619 9.76082 -20.86)
(-0.139907 0.498686 0.773693 -54.2816 9.09619 -15.0777)
(0.940974 0.217267 1.01721 -26.9145 7.22872 -12.5109)
(3.94466 -0.942971 1.31638 -12.8077 2.8649 -12.6544)
(-4.84869 0.126291 -0.0717779 -412.27 -33.1179 -141.799)
(-4.79999 0.325415 -0.110535 -235.561 -0.372269 -48.4579)
(-4.43355 0.483655 -0.174527 -203.202 8.8705 -43.0969)
(-4.03433 0.526963 -0.216103 -143.7 13.6779 -30.9082)
(-3.62876 0.494688 -0.192248 -94.5308 14.918 -23.6876)
(-3.11457 0.442703 -0.0960366 -54.2522 14.0281 -18.6551)
(-2.08219 0.319904 0.0519072 -26.155 11.1764 -16.1013)
(1.19052 -0.690095 0.237559 -12.911 5.5872 -16.4526)
(-5.24743 0.0559432 -0.138602 -418.993 -18.5229 -154.545)
(-5.40892 0.189847 -0.212414 -234.466 -0.835458 -65.2863)
(-5.2395 0.329698 -0.244414 -204.189 6.46601 -55.5811)
(-4.97748 0.411762 -0.245699 -144.695 10.8316 -38.8259)
(-4.62494 0.451455 -0.200475 -94.8903 12.4845 -27.5276)
(-4.09753 0.482097 -0.112611 -54.2018 12.1318 -19.3206)
(-3.02497 0.4503 -0.00919609 -25.7019 9.98713 -14.1801)
(0.172755 -0.407479 0.0614834 -11.3432 4.97172 -11.3444)
(-5.53411 0.028734 -0.129838 -422.096 -9.70772 -162.442)
(-5.75633 0.130102 -0.196228 -233.08 -0.265731 -77.5041)
(-5.66588 0.261686 -0.205027 -203.853 4.46749 -66.2794)
(-5.45879 0.373408 -0.182999 -144.747 7.63662 -46.3838)
(-5.11028 0.468212 -0.129496 -94.9313 9.13902 -31.6735)
(-4.53514 0.562126 -0.0538923 -54.1022 9.17371 -20.4777)
(-3.36881 0.580065 0.0172202 -25.1951 7.78681 -12.7623)
(-0.300172 -0.184051 0.0326158 -10.4524 3.97635 -7.72811)
(-5.74617 0.018267 -0.100479 -422.383 -4.82472 -166.504)
(-5.98908 0.106125 -0.149908 -232.051 0.162095 -85.0198)
(-5.93119 0.237703 -0.14608 -203.16 3.09009 -73.3768)
(-5.74381 0.372392 -0.116353 -144.295 5.16571 -51.8392)
(-5.38481 0.505536 -0.0673693 -94.6046 6.2837 -34.9888)
(-4.77284 0.639357 -0.0111898 -53.7407 6.45299 -21.6811)
(-3.56656 0.687327 0.0285208 -24.5884 5.59883 -12.0791)
(-0.57965 -0.0182691 0.0198746 -9.68868 2.89095 -5.53084)
(-5.89034 0.0152797 -0.06727 -421.528 -2.24079 -168.412)
(-6.13839 0.0997374 -0.0985542 -231.252 0.321823 -89.3411)
(-6.0909 0.235446 -0.0899008 -202.479 2.05598 -77.6587)
(-5.90691 0.386644 -0.062679 -143.743 3.32336 -55.3101)
(-5.53519 0.543954 -0.0251075 -94.1377 4.05592 -37.2517)
(-4.89924 0.70053 0.0118803 -53.2811 4.21722 -22.6588)
(-3.68136 0.76369 0.0311522 -24.0131 3.70831 -11.8719)
(-0.754478 0.0938645 0.0122456 -9.14133 1.93085 -4.48333)
(-5.97783 0.0151872 -0.0373616 -420.542 -0.927847 -169.223)
(-6.22594 0.100308 -0.053657 -230.678 0.273892 -91.6444)
(-6.18027 0.240649 -0.0462231 -201.962 1.18704 -80.0233)
(-5.99431 0.40237 -0.0279754 -143.301 1.86553 -57.2982)
(-5.61317 0.573222 -0.00504125 -93.7396 2.27225 -38.6113)
(-4.96426 0.741435 0.0153512 -52.8956 2.37564 -23.3157)
(-3.7436 0.810898 0.0233745 -23.5797 2.10336 -11.8655)
(-0.862143 0.16177 0.00570673 -8.78061 1.0999 -4.0555)
(-6.01774 0.0157999 -0.0117994 -419.942 -0.245859 -169.507)
(-6.26445 0.101864 -0.016698 -230.374 0.104442 -92.6358)
(-6.21879 0.244759 -0.0139088 -201.684 0.389135 -81.0651)
(-6.03136 0.411464 -0.00763478 -143.062 0.602285 -58.194)
(-5.64601 0.588381 -7.5551e-05 -93.519 0.732033 -39.2416)
(-4.99242 0.761749 0.00634654 -52.6835 0.766795 -23.6411)
(-3.76895 0.832419 0.00852539 -23.3502 0.680793 -11.8982)
(-0.921677 0.193126 0.00113369 -8.60872 0.356779 -3.92688)
(-58.0489 9.64474 -2.27822 0.128922 -2.26591 0.271445)
(-52.6486 9.12396 0.886577 1.91076 -1.87845 4.37727)
(-53.4619 9.09215 0.25902 3.34626 -1.46482 -0.284529)
(-53.98 9.17544 -0.23556 4.47406 -1.1375 -2.28344)
(-54.8387 9.27633 -0.518864 5.31331 -0.863361 -3.34759)
(-55.4995 9.36587 -0.516213 5.90707 -0.614579 -3.54723)
(-55.9467 9.43226 -0.366735 6.27283 -0.37806 -3.45928)
(-56.1992 9.46519 -0.133487 6.37903 -0.130875 -3.39443)
(-49.5371 6.97967 -4.47361 -2.13851 -0.706681 -8.32702)
(-44.7529 5.9859 -2.64154 -1.28223 -0.619302 -7.4898)
(-45.0096 5.72349 -2.37928 -0.301812 -0.467928 -7.58308)
(-46.2202 5.64353 -2.52497 0.516169 -0.363627 -7.39394)
(-47.4587 5.62002 -2.40417 1.1221 -0.284169 -7.31851)
(-48.3883 5.6175 -1.93413 1.54847 -0.207694 -7.19423)
(-48.9802 5.6257 -1.23829 1.82659 -0.126914 -7.07368)
(-49.2452 5.64051 -0.425343 1.98672 -0.0424242 -6.98709)
(-4.22562 5.98153 -4.6224 -3.82978 -0.0376497 -2.26304)
(-6.25601 4.84292 -4.34673 -3.24386 -0.0804345 -3.47308)
(-8.01 4.45389 -4.04131 -2.53228 -0.0627334 -1.31121)
(-9.70686 4.27288 -3.72514 -1.9539 -0.061567 0.52282)
(-11.0015 4.17084 -3.20494 -1.53448 -0.0624274 1.64737)
(-11.8934 4.10866 -2.44395 -1.24571 -0.0536888 2.21635)
(-12.4456 4.07275 -1.52248 -1.06195 -0.0335044 2.46632)
(-12.7022 4.05519 -0.516586 -0.957237 -0.0102742 2.5607)
(13.1304 5.83115 -3.53228 -3.61043 0.378077 -4.66637)
(9.16346 4.70546 -3.03015 -3.15827 0.159558 -7.35649)
(7.91199 4.27249 -2.85783 -2.73538 0.0694296 -2.34701)
(6.66856 4.04385 -2.47287 -2.3826 0.0219919 1.10502)
(5.8323 3.90012 -2.0363 -2.12908 -0.00642983 3.19705)
(5.21924 3.80606 -1.50722 -1.95995 -0.0177042 4.15535)
(4.8248 3.74754 -0.925174 -1.85663 -0.0150607 4.51822)
(4.62658 3.71615 -0.312376 -1.80963 -0.00545847 4.61547)
)
;
    }
    symmetry
    {
        type            symmetryPlane;
    }
    bottom
    {
        type            calculated;
        value           nonuniform List<symmTensor> 
32
(
(214.253 77.3301 0 321.379 87.3646 214.253)
(209.881 86.7692 0 314.822 43.3671 209.881)
(215.9 91.0233 0 323.85 20.9336 215.9)
(219.46 92.4839 0 329.19 9.47444 219.46)
(221.047 92.8686 0 331.57 3.82357 221.047)
(221.667 92.8905 0 332.501 1.24295 221.667)
(221.86 92.8271 0 332.79 0.250987 221.86)
(221.9 92.7771 0 332.849 0.0103471 221.9)
(40.8834 33.1619 0 61.3251 26.1519 40.8834)
(42.5976 43.7596 0 63.8965 13.4968 42.5976)
(45.4437 45.4027 0 68.1656 6.28137 45.4437)
(46.8315 44.9828 0 70.2473 2.51493 46.8315)
(47.5571 44.2337 0 71.3357 0.719341 47.5571)
(47.9589 43.6033 0 71.9384 -0.00520315 47.9589)
(48.178 43.1858 0 72.2671 -0.174538 48.178)
(48.2757 42.9818 0 72.4136 -0.0834127 48.2757)
(-59.1403 29.4114 0 -88.7104 -31.3012 -59.1403)
(-53.3793 39.975 0 -80.069 -18.1795 -53.3793)
(-53.9686 41.0745 0 -80.9529 -10.6628 -53.9686)
(-54.2687 40.1912 0 -81.4031 -6.21441 -54.2687)
(-54.2476 39.1134 0 -81.3714 -3.55775 -54.2476)
(-54.0831 38.2611 0 -81.1247 -1.95946 -54.0831)
(-53.9087 37.7057 0 -80.863 -0.968881 -53.9087)
(-53.8035 37.436 0 -80.7052 -0.290887 -53.8035)
(-217.354 65.387 0 -326.031 -96.3843 -217.354)
(-207.422 73.3701 0 -311.133 -51.7574 -207.422)
(-212.899 75.7939 0 -319.349 -27.664 -212.899)
(-215.612 75.875 0 -323.418 -14.4628 -215.612)
(-216.322 75.2664 0 -324.483 -7.31058 -216.322)
(-216.177 74.5993 0 -324.265 -3.51006 -216.177)
(-215.82 74.0981 0 -323.73 -1.52015 -215.82)
(-215.575 73.837 0 -323.363 -0.418033 -215.575)
)
;
    }
}


// ************************************************************************* //
