/*--------------------------------*- C++ -*----------------------------------*\
| =========                 |                                                 |
| \\      /  F ield         | foam-extend: Open Source CFD                    |
|  \\    /   O peration     | Version:     3.1                                |
|   \\  /    A nd           | Web:         http://www.extend-project.de       |
|    \\/     M anipulation  |                                                 |
\*---------------------------------------------------------------------------*/
FoamFile
{
    version     2.0;
    format      ascii;
    class       volScalarField;
    location    "3.1";
    object      sigmaCauchyEq;
}
// * * * * * * * * * * * * * * * * * * * * * * * * * * * * * * * * * * * * * //

dimensions      [1 -1 -2 0 0 0 0];

internalField   nonuniform List<scalar> 
256
(
271.747
112.967
106.037
215.671
189.324
141.701
128.888
163.89
173.314
134.826
122.562
143
136.631
120.29
110.061
108.923
104.745
102.337
94.1441
78.8942
77.9026
82.4801
76.0865
53.4561
60.0094
62.9908
56.3076
34.2381
55.8126
48.2665
31.2587
20.7791
267.606
126.763
116.763
207.758
199.444
146.544
133.64
171.241
171.445
125.957
114.11
141.147
133.649
107.018
96.6509
105.197
100.307
87.6046
79.2365
73.3732
73.6824
68.8053
62.3586
47.5798
56.5374
51.7988
45.5977
29.0702
53.4818
41.7871
25.9605
17.7629
270.203
130.609
118.337
205.341
198.352
147.787
133.514
167.664
171.569
125.317
112.045
138.377
133.685
104.192
92.3946
102.309
100.302
83.9307
74.2424
70.5353
73.5232
65.103
57.6665
44.9609
56.0897
48.9003
42.164
26.8206
52.3565
41.0318
24.6726
14.7786
271.671
131.328
117.577
203.717
197.538
148.487
132.88
164.885
171.61
126.046
111.375
135.926
134.228
104.521
91.3677
100.093
101.091
83.9414
73.0468
68.5032
74.3495
64.9503
56.5871
43.1258
56.7844
48.9027
41.5482
25.2073
52.8153
42.0059
24.8864
13.0656
272.113
130.992
116.289
202.253
197.307
148.708
132.068
163.064
171.882
126.786
111.047
134.187
134.968
105.43
91.2712
98.5367
102.105
84.838
73.0717
67.1166
75.4396
65.7425
56.7053
41.8824
57.8111
49.6542
41.8066
24.1326
53.7491
43.1597
25.421
12.1892
272.048
130.432
115.11
201.007
197.277
148.669
131.277
161.824
172.199
127.277
110.773
133.004
135.626
106.2
91.3446
97.4926
102.965
85.6992
73.3461
66.2029
76.3622
66.554
57.0684
41.0789
58.7041
50.387
42.1963
23.4583
54.6651
44.067
25.8354
11.6895
271.847
129.97
114.268
200.109
197.291
148.552
130.669
161.025
172.447
127.542
110.544
132.257
136.089
106.693
91.3961
96.8441
103.55
86.2833
73.5682
65.6439
76.9859
67.118
57.3593
40.5994
59.3178
50.8898
42.4806
23.0697
55.3252
44.6546
26.0746
11.3827
271.706
129.721
113.837
199.643
197.302
148.469
130.343
160.628
172.575
127.653
110.411
131.893
136.322
106.923
91.4128
96.5313
103.839
86.5665
73.6781
65.377
77.2912
67.3948
57.5062
40.3744
59.6185
51.1354
42.6187
22.891
55.6542
44.9379
26.1768
11.2273
)
;

boundaryField
{
    interface
    {
        type            calculated;
        value           nonuniform List<scalar> 
192
(
431.32
218.943
212.113
157.715
115.895
82.022
63.6935
54.9971
420.972
236.282
213.572
161.317
118.585
85.6633
67.7591
58.8283
425.728
231.579
212.408
160.846
118.232
85.0437
66.6382
55.4309
429.213
228.715
211.443
160.783
118.722
85.7485
67.4057
55.4077
430.761
227.467
211.109
161.059
119.461
86.6997
68.4631
56.0082
431.2
226.953
211.129
161.468
120.169
87.5603
69.4172
56.8261
431.186
226.735
211.239
161.811
120.679
88.1561
70.0726
57.4463
431.095
226.648
211.31
161.991
120.932
88.447
70.3854
57.7459
296.364
175.417
177.633
140.448
110.278
83.4035
64.7573
59.9916
102.771
135.714
142.687
130.704
113.699
92.8764
71.5092
54.9658
100.86
121.233
129.438
119.785
104.919
85.8898
64.0226
35.5075
259.91
148.213
147.98
112.628
84.6749
59.4041
39.7085
24.8288
354.248
188.997
176.915
126.238
85.3604
50.46
27.1171
17.6092
339.497
203.478
176.574
127.134
85.1435
50.9553
28.3528
18.8331
340.692
197.549
173.206
124.376
82.654
48.6951
26.0309
14.363
341.475
193.615
170.125
121.641
80.1284
46.1639
23.1679
11.3938
341.035
191.403
168.052
119.639
78.2024
44.0995
20.658
9.33483
340.077
190.075
166.721
118.315
76.8834
42.6472
18.8104
7.99815
339.174
189.276
165.912
117.511
76.0699
41.7456
17.6366
7.15318
338.653
188.892
165.525
117.13
75.6823
41.3167
17.0745
6.73696
60.214
57.5953
56.8024
57.111
58.0419
58.9718
59.6597
59.9904
46.4648
41.9377
42.5727
44.2666
45.8035
46.9214
47.629
47.9726
13.2016
11.6231
12.0906
13.459
14.5602
15.1586
15.422
15.5132
20.9977
17.7776
13.7546
11.4094
10.3695
9.76445
9.34815
9.11372
)
;
    }
    symmetry
    {
        type            symmetryPlane;
    }
    bottom
    {
        type            calculated;
        value           nonuniform List<scalar> 
32
(
246.681
213.236
209.734
210.376
210.935
211.091
211.053
210.99
77.1104
83.4329
83.9756
82.893
81.6503
80.6526
79.9921
79.6674
78.3032
79.0162
76.7338
73.9699
71.7643
70.2218
69.2627
68.8048
210.702
172.611
161.896
158.184
156.351
155.17
154.395
154.002
)
;
    }
}


// ************************************************************************* //
