/*--------------------------------*- C++ -*----------------------------------*\
| =========                 |                                                 |
| \\      /  F ield         | foam-extend: Open Source CFD                    |
|  \\    /   O peration     | Version:     3.1                                |
|   \\  /    A nd           | Web:         http://www.extend-project.de       |
|    \\/     M anipulation  |                                                 |
\*---------------------------------------------------------------------------*/
FoamFile
{
    version     2.0;
    format      ascii;
    class       volVectorField;
    location    "3.1";
    object      U;
}
// * * * * * * * * * * * * * * * * * * * * * * * * * * * * * * * * * * * * * //

dimensions      [0 1 -1 0 0 0 0];

internalField   nonuniform List<vector> 
256
(
(-4.75922e-05 -3.21039e-05 -6.14717e-05)
(-1.81566e-05 -6.31352e-06 -1.76628e-05)
(-1.62211e-05 1.10857e-05 2.45262e-05)
(-4.18835e-05 4.06701e-05 7.40946e-05)
(-0.000203877 -0.000133162 -7.22495e-05)
(-0.000170799 -3.34046e-05 -2.74803e-05)
(-0.000166168 4.98842e-05 2.89644e-05)
(-0.000188112 0.000155619 7.44148e-05)
(-0.000406892 -0.000201696 -7.7207e-05)
(-0.000375018 -5.152e-05 -3.15883e-05)
(-0.000368577 8.46226e-05 1.89543e-05)
(-0.000385433 0.000241903 6.36237e-05)
(-0.000648464 -0.000249025 -7.51122e-05)
(-0.000621404 -5.9593e-05 -3.59739e-05)
(-0.000613705 0.000117621 5.90048e-06)
(-0.00062289 0.000314131 4.27388e-05)
(-0.000911331 -0.000273874 -7.24177e-05)
(-0.000889219 -5.8386e-05 -4.06717e-05)
(-0.00088094 0.000147337 -8.3583e-06)
(-0.000884092 0.00036943 1.98537e-05)
(-0.00118092 -0.000280818 -7.1628e-05)
(-0.00116371 -5.0193e-05 -4.65274e-05)
(-0.00115552 0.000173596 -2.2386e-05)
(-0.00115428 0.000410544 -1.7256e-06)
(-0.00144568 -0.000274784 -7.47875e-05)
(-0.00143295 -3.74142e-05 -5.44427e-05)
(-0.00142582 0.000196298 -3.60484e-05)
(-0.00142231 0.000440331 -2.0365e-05)
(-0.00169814 -0.000261418 -8.42178e-05)
(-0.00168943 -2.18466e-05 -6.55203e-05)
(-0.00168497 0.000216273 -5.0084e-05)
(-0.00168207 0.000462702 -3.63259e-05)
(-5.54608e-05 -3.03813e-05 -3.31777e-05)
(-2.8905e-05 -4.98487e-06 -9.58605e-06)
(-2.77942e-05 1.08586e-05 1.53233e-05)
(-5.19393e-05 3.85267e-05 4.34033e-05)
(-0.000226912 -0.000126182 -4.71684e-05)
(-0.000189597 -2.81284e-05 -1.75731e-05)
(-0.00018605 5.20809e-05 1.92037e-05)
(-0.000214375 0.000156284 4.97116e-05)
(-0.000432788 -0.000195465 -5.49948e-05)
(-0.000400666 -4.48142e-05 -2.31003e-05)
(-0.000394674 9.11774e-05 1.28171e-05)
(-0.000412742 0.000248772 4.44463e-05)
(-0.000673379 -0.00024217 -5.76359e-05)
(-0.000646158 -5.19569e-05 -2.84756e-05)
(-0.000638392 0.000125945 2.86461e-06)
(-0.000647872 0.000323117 3.07351e-05)
(-0.000932576 -0.000266683 -5.8988e-05)
(-0.000910777 -5.03074e-05 -3.40407e-05)
(-0.00090211 0.00015645 -8.48437e-06)
(-0.000904669 0.000379267 1.42046e-05)
(-0.00119841 -0.000273052 -6.12283e-05)
(-0.00118161 -4.1758e-05 -4.03595e-05)
(-0.00117283 0.000182908 -2.00607e-05)
(-0.00117069 0.000420414 -2.16928e-06)
(-0.00146031 -0.00026633 -6.58915e-05)
(-0.00144811 -2.86041e-05 -4.80908e-05)
(-0.00144032 0.000205692 -3.15586e-05)
(-0.00143584 0.000450136 -1.69897e-05)
(-0.00171171 -0.000252542 -7.45998e-05)
(-0.00170341 -1.29466e-05 -5.78938e-05)
(-0.00169834 0.00022567 -4.3058e-05)
(-0.00169485 0.000472592 -2.99647e-05)
(-5.88474e-05 -3.15278e-05 -1.87286e-05)
(-3.16584e-05 -4.94262e-06 -5.43243e-06)
(-3.10703e-05 1.15182e-05 9.51606e-06)
(-5.69367e-05 4.03316e-05 2.58072e-05)
(-0.000237912 -0.000123962 -3.03853e-05)
(-0.000198388 -2.56378e-05 -1.14721e-05)
(-0.000195914 5.35431e-05 1.19183e-05)
(-0.000228446 0.000158133 3.16416e-05)
(-0.000447437 -0.000191054 -3.81939e-05)
(-0.000413927 -4.06623e-05 -1.68322e-05)
(-0.00040889 9.43978e-05 7.54781e-06)
(-0.000430127 0.000251606 2.90605e-05)
(-0.000688717 -0.000236071 -4.28769e-05)
(-0.000661043 -4.65559e-05 -2.22851e-05)
(-0.000654068 0.000130365 1.29342e-07)
(-0.000665568 0.000326523 2.01972e-05)
(-0.000946777 -0.000259696 -4.65352e-05)
(-0.000925249 -4.41735e-05 -2.79924e-05)
(-0.000917287 0.000161662 -8.68223e-06)
(-0.000921093 0.000383295 8.68328e-06)
(-0.00121084 -0.000265662 -5.05151e-05)
(-0.00119482 -3.52448e-05 -3.42185e-05)
(-0.00118669 0.0001886 -1.79687e-05)
(-0.00118527 0.000425056 -3.35316e-06)
(-0.00147123 -0.00025882 -5.57819e-05)
(-0.00146009 -2.19778e-05 -4.12936e-05)
(-0.00145288 0.000211631 -2.7293e-05)
(-0.00144876 0.000455434 -1.46842e-05)
(-0.00172181 -0.000244912 -6.33966e-05)
(-0.00171465 -6.35765e-06 -4.94491e-05)
(-0.00171018 0.000231724 -3.62746e-05)
(-0.0017069 0.000478557 -2.45703e-05)
(-6.01208e-05 -3.22935e-05 -1.08765e-05)
(-3.21782e-05 -4.97031e-06 -3.20255e-06)
(-3.19141e-05 1.19675e-05 5.80615e-06)
(-5.92792e-05 4.17401e-05 1.5316e-05)
(-0.000243058 -0.000123332 -1.96997e-05)
(-0.000202276 -2.44681e-05 -7.71737e-06)
(-0.00020058 5.44721e-05 7.09583e-06)
(-0.00023582 0.000159835 1.9612e-05)
(-0.000455207 -0.000188601 -2.63293e-05)
(-0.000420827 -3.82984e-05 -1.22962e-05)
(-0.000416642 9.61279e-05 3.9116e-06)
(-0.000440293 0.000253231 1.81271e-05)
(-0.000697758 -0.000232054 -3.12809e-05)
(-0.000669766 -4.31585e-05 -1.71715e-05)
(-0.000663625 0.000132801 -1.60846e-06)
(-0.000676999 0.000328192 1.22571e-05)
(-0.000956064 -0.000254648 -3.563e-05)
(-0.000934665 -4.00543e-05 -2.23588e-05)
(-0.000927502 0.000164656 -8.33398e-06)
(-0.000932698 0.0003852 4.26351e-06)
(-0.00121964 -0.000260097 -4.01e-05)
(-0.00120414 -3.07214e-05 -2.79304e-05)
(-0.00119679 0.000191993 -1.55697e-05)
(-0.00119635 0.000427325 -4.44081e-06)
(-0.00147937 -0.000253052 -4.51914e-05)
(-0.00146898 -1.72809e-05 -3.39735e-05)
(-0.0014625 0.000215266 -2.28538e-05)
(-0.00145905 0.000458109 -1.28572e-05)
(-0.00172922 -0.000238966 -5.15744e-05)
(-0.001723 -1.52363e-06 -4.04818e-05)
(-0.00171931 0.00023557 -2.96405e-05)
(-0.00171655 0.000481637 -2.01046e-05)
(-6.05235e-05 -3.27292e-05 -6.41345e-06)
(-3.20778e-05 -4.99175e-06 -1.94669e-06)
(-3.20233e-05 1.2258e-05 3.4465e-06)
(-6.0426e-05 4.26411e-05 8.97393e-06)
(-0.000245385 -0.000123218 -1.27379e-05)
(-0.00020385 -2.39199e-05 -5.23946e-06)
(-0.000202683 5.5044e-05 4.02729e-06)
(-0.000239712 0.000161077 1.18095e-05)
(-0.000459211 -0.000187432 -1.78742e-05)
(-0.000424322 -3.70309e-05 -8.84119e-06)
(-0.000420766 9.71111e-05 1.67914e-06)
(-0.000446097 0.000254372 1.08037e-05)
(-0.00070293 -0.000229784 -2.21795e-05)
(-0.000674754 -4.11744e-05 -1.27999e-05)
(-0.000669271 0.000134177 -2.35211e-06)
(-0.000684078 0.000329232 6.85016e-06)
(-0.000961958 -0.000251517 -2.61937e-05)
(-0.000940603 -3.75099e-05 -1.70687e-05)
(-0.00093407 0.000166367 -7.32288e-06)
(-0.000940418 0.000386237 1.34419e-06)
(-0.00122561 -0.000256436 -3.02718e-05)
(-0.00121041 -2.7827e-05 -2.16218e-05)
(-0.00120368 0.000193948 -1.27281e-05)
(-0.00120415 0.000428446 -4.79946e-06)
(-0.00148508 -0.000249065 -3.46204e-05)
(-0.00147518 -1.41881e-05 -2.64167e-05)
(-0.0014693 0.000217375 -1.81558e-05)
(-0.00146654 0.000459356 -1.08276e-05)
(-0.00173436 -0.000234683 -3.96301e-05)
(-0.00172875 1.75473e-06 -3.13325e-05)
(-0.0017257 0.000237825 -2.30667e-05)
(-0.00172348 0.000483027 -1.59258e-05)
(-6.06334e-05 -3.29707e-05 -3.72264e-06)
(-3.18657e-05 -5.00312e-06 -1.17679e-06)
(-3.19427e-05 1.24417e-05 1.94928e-06)
(-6.10194e-05 4.31913e-05 5.07145e-06)
(-0.000246396 -0.000123272 -7.94545e-06)
(-0.000204409 -2.3671e-05 -3.43158e-06)
(-0.000203589 5.539e-05 2.13822e-06)
(-0.00024178 0.000161905 6.77125e-06)
(-0.000461225 -0.000186946 -1.15597e-05)
(-0.000426027 -3.6389e-05 -6.0058e-06)
(-0.000422901 9.76747e-05 4.92955e-07)
(-0.000449363 0.000255162 6.05843e-06)
(-0.000705823 -0.000228635 -1.47954e-05)
(-0.000677526 -4.00941e-05 -8.8924e-06)
(-0.000672502 0.000134949 -2.27692e-06)
(-0.000688318 0.000329924 3.47231e-06)
(-0.000965524 -0.000249771 -1.7919e-05)
(-0.000944184 -3.60562e-05 -1.20333e-05)
(-0.000938097 0.000167316 -5.70613e-06)
(-0.000945293 0.000386842 -1.52762e-07)
(-0.00122942 -0.00025425 -2.10842e-05)
(-0.00121439 -2.61159e-05 -1.53698e-05)
(-0.0012081 0.000195017 -9.45058e-06)
(-0.00120927 0.000428989 -4.24654e-06)
(-0.00148882 -0.000246546 -2.4351e-05)
(-0.00147921 -1.23054e-05 -1.88178e-05)
(-0.00147375 0.000218513 -1.31938e-05)
(-0.00147155 0.000459852 -8.28754e-06)
(-0.00173767 -0.000231852 -2.79271e-05)
(-0.00173242 3.80931e-06 -2.22343e-05)
(-0.00172982 0.000239038 -1.65051e-05)
(-0.00172808 0.000483497 -1.1651e-05)
(-6.06288e-05 -3.30997e-05 -1.94764e-06)
(-3.16839e-05 -5.00851e-06 -6.39984e-07)
(-3.18442e-05 1.25495e-05 9.80233e-07)
(-6.1326e-05 4.35036e-05 2.56696e-06)
(-0.0002468 -0.000123354 -4.36559e-06)
(-0.00020456 -2.35656e-05 -1.95976e-06)
(-0.000203953 5.55865e-05 1.00309e-06)
(-0.000242846 0.000162403 3.44547e-06)
(-0.000462184 -0.000186781 -6.50325e-06)
(-0.000426809 -3.60887e-05 -3.50093e-06)
(-0.000423949 9.79812e-05 2.01203e-08)
(-0.000451112 0.000255656 3.00341e-06)
(-0.000707347 -0.000228117 -8.48899e-06)
(-0.000678973 -3.95563e-05 -5.24916e-06)
(-0.000674237 0.000135358 -1.60579e-06)
(-0.000690692 0.000330352 1.5246e-06)
(-0.000967515 -0.000248898 -1.04441e-05)
(-0.00094618 -3.53017e-05 -7.16147e-06)
(-0.000940376 0.000167808 -3.61964e-06)
(-0.000948126 0.000387185 -5.4695e-07)
(-0.00123163 -0.000253078 -1.24241e-05)
(-0.00121669 -2.51994e-05 -9.18773e-06)
(-0.00121068 0.000195559 -5.82069e-06)
(-0.00121232 0.000429241 -2.89688e-06)
(-0.00149102 -0.000245119 -1.4434e-05)
(-0.00148156 -1.12694e-05 -1.12577e-05)
(-0.00147638 0.000219076 -8.01154e-06)
(-0.00147456 0.000460021 -5.21937e-06)
(-0.00173958 -0.000230181 -1.65687e-05)
(-0.00173454 4.97137e-06 -1.3264e-05)
(-0.00173223 0.000239636 -9.92004e-06)
(-0.00173083 0.000483614 -7.12903e-06)
(-6.06085e-05 -3.31566e-05 -6.06572e-07)
(-3.15851e-05 -5.01074e-06 -2.0405e-07)
(-3.17861e-05 1.25993e-05 2.96672e-07)
(-6.1458e-05 4.36447e-05 7.81842e-07)
(-0.000246937 -0.000123406 -1.39356e-06)
(-0.000204581 -2.35282e-05 -6.39004e-07)
(-0.000204076 5.56754e-05 2.89191e-07)
(-0.000243301 0.000162636 1.05026e-06)
(-0.000462567 -0.000186741 -2.10026e-06)
(-0.000427108 -3.59731e-05 -1.15187e-06)
(-0.000424376 9.81154e-05 -3.85138e-08)
(-0.000451873 0.000255891 8.99147e-07)
(-0.000708001 -0.000227928 -2.7678e-06)
(-0.000679588 -3.93395e-05 -1.73667e-06)
(-0.000674988 0.000135532 -5.75163e-07)
(-0.000691752 0.000330555 4.16415e-07)
(-0.000968399 -0.000248547 -3.43101e-06)
(-0.000947064 -3.49879e-05 -2.3779e-06)
(-0.000941396 0.000168013 -1.23961e-06)
(-0.000949415 0.000387338 -2.58621e-07)
(-0.00123263 -0.000252579 -4.10253e-06)
(-0.00121774 -2.48087e-05 -3.05647e-06)
(-0.00121186 0.000195779 -1.96584e-06)
(-0.00121372 0.000429335 -1.0255e-06)
(-0.00149203 -0.000244488 -4.77937e-06)
(-0.00148264 -1.08183e-05 -3.74583e-06)
(-0.00147758 0.000219299 -2.68684e-06)
(-0.00147596 0.000460055 -1.78317e-06)
(-0.00174046 -0.000229422 -5.48785e-06)
(-0.00173549 5.48942e-06 -4.40653e-06)
(-0.00173332 0.000239871 -3.30984e-06)
(-0.0017321 0.000483603 -2.40194e-06)
)
;

boundaryField
{
    interface
    {
        type            calculated;
        value           nonuniform List<vector> 
192
(
(-0.000108637 -0.000105505 -6.7243e-05)
(-0.000231931 -0.00021006 -8.65568e-05)
(-0.000437171 -0.000305765 -9.35206e-05)
(-0.000671536 -0.00036812 -9.06116e-05)
(-0.000928602 -0.000402058 -8.64963e-05)
(-0.00119239 -0.000411174 -8.4206e-05)
(-0.00145253 -0.000402271 -8.6499e-05)
(-0.00170293 -0.000383483 -9.55116e-05)
(-0.000116559 -0.000112202 -3.66521e-05)
(-0.000258863 -0.000206636 -5.62007e-05)
(-0.0004623 -0.000299519 -6.61893e-05)
(-0.000695849 -0.000360378 -6.88939e-05)
(-0.000948537 -0.000393444 -6.95677e-05)
(-0.00120846 -0.000402164 -7.07403e-05)
(-0.00146553 -0.000393133 -7.45542e-05)
(-0.0017151 -0.000374087 -8.25102e-05)
(-0.000123055 -0.000117776 -2.07327e-05)
(-0.000271395 -0.000207006 -3.55513e-05)
(-0.000478006 -0.000295705 -4.50658e-05)
(-0.000711656 -0.000354031 -5.04726e-05)
(-0.000962674 -0.000385674 -5.41258e-05)
(-0.00122058 -0.000393961 -5.7745e-05)
(-0.00147598 -0.000385059 -6.2567e-05)
(-0.00172481 -0.000365902 -6.95566e-05)
(-0.000126362 -0.000120807 -1.20191e-05)
(-0.000277719 -0.000207851 -2.26441e-05)
(-0.000486734 -0.000294107 -3.04476e-05)
(-0.000721236 -0.000350221 -3.61697e-05)
(-0.000972155 -0.000380433 -4.08361e-05)
(-0.00122927 -0.000388028 -4.53479e-05)
(-0.00148379 -0.000378912 -5.02579e-05)
(-0.00173181 -0.000359408 -5.6149e-05)
(-0.000127906 -0.000122361 -7.07443e-06)
(-0.000280854 -0.000208589 -1.44305e-05)
(-0.000491424 -0.000293612 -2.03267e-05)
(-0.000726827 -0.000348325 -2.52501e-05)
(-0.000978294 -0.000377404 -2.96396e-05)
(-0.00123524 -0.000384265 -3.39054e-05)
(-0.00148933 -0.000374694 -3.82186e-05)
(-0.00173674 -0.000354655 -4.2879e-05)
(-0.000128657 -0.000123152 -4.10056e-06)
(-0.000282381 -0.000209121 -8.9081e-06)
(-0.000493891 -0.000293585 -1.29861e-05)
(-0.000730021 -0.000347522 -1.66424e-05)
(-0.000982044 -0.000375845 -2.00743e-05)
(-0.00123908 -0.000382094 -2.34252e-05)
(-0.00149298 -0.000372045 -2.67113e-05)
(-0.00173995 -0.000351468 -3.00539e-05)
(-0.000128978 -0.00012354 -2.14062e-06)
(-0.000283085 -0.000209457 -4.8589e-06)
(-0.000495122 -0.000293698 -7.24686e-06)
(-0.000731738 -0.000347245 -9.47044e-06)
(-0.000984154 -0.000375129 -1.16188e-05)
(-0.00124132 -0.000380966 -1.37229e-05)
(-0.00149515 -0.00037055 -1.57577e-05)
(-0.00174183 -0.000349564 -1.77591e-05)
(-0.000129096 -0.000123701 -6.65073e-07)
(-0.000283361 -0.000209621 -1.54507e-06)
(-0.000495634 -0.000293787 -2.3307e-06)
(-0.000732489 -0.000347177 -3.07426e-06)
(-0.000985098 -0.000374863 -3.80257e-06)
(-0.00124235 -0.000380495 -4.51666e-06)
(-0.00149615 -0.000369887 -5.20351e-06)
(-0.0017427 -0.000348697 -5.86863e-06)
(-3.93078e-05 -6.89687e-05 -9.70375e-05)
(-0.000184446 -0.000134546 -8.04145e-05)
(-0.000387816 -0.000204214 -8.92586e-05)
(-0.000630692 -0.000248833 -8.37924e-05)
(-0.000896173 -0.000274108 -7.95023e-05)
(-0.00116801 -0.000282231 -7.72924e-05)
(-0.00143416 -0.000278383 -7.97659e-05)
(-0.00168674 -0.000268057 -8.88915e-05)
(-4.1315e-06 -2.09088e-05 -2.70113e-05)
(-0.000143236 -3.64097e-05 -3.15573e-05)
(-0.000350516 -5.58154e-05 -3.58696e-05)
(-0.000600883 -6.32546e-05 -3.97851e-05)
(-0.000873634 -6.21002e-05 -4.44624e-05)
(-0.0011523 -5.43016e-05 -5.04754e-05)
(-0.00142434 -4.2579e-05 -5.88309e-05)
(-0.00168151 -2.87943e-05 -7.00728e-05)
(-1.43774e-06 2.67901e-05 3.32245e-05)
(-0.000138798 4.38723e-05 2.93323e-05)
(-0.000344674 7.75634e-05 2.00356e-05)
(-0.000594349 0.000109011 5.83527e-06)
(-0.000866889 0.000139139 -9.38626e-06)
(-0.00114588 0.000166057 -2.45114e-05)
(-0.00141908 0.000189163 -3.92549e-05)
(-0.00167908 0.000209033 -5.44412e-05)
(-3.13536e-05 8.47287e-05 0.000106682)
(-0.000169943 0.000148357 7.89956e-05)
(-0.000368333 0.0002332 7.2546e-05)
(-0.000609112 0.000301341 4.75837e-05)
(-0.00087451 0.000357329 2.22597e-05)
(-0.00114822 0.00040008 -1.82061e-06)
(-0.00141839 0.000431723 -2.23097e-05)
(-0.0016785 0.000455354 -3.96224e-05)
(-9.15654e-05 0.000123939 7.9766e-05)
(-0.000207277 0.000238471 8.80926e-05)
(-0.000403241 0.00035458 7.88509e-05)
(-0.000631987 0.000440794 5.56598e-05)
(-0.00088723 0.000504095 2.97136e-05)
(-0.00115303 0.000546502 5.17148e-06)
(-0.00141901 0.000573923 -1.54376e-05)
(-0.00167868 0.00059356 -3.21774e-05)
(-0.00010126 0.000132585 4.74433e-05)
(-0.000237823 0.000243727 5.95579e-05)
(-0.000430675 0.000360398 5.58412e-05)
(-0.000657399 0.000447835 4.1302e-05)
(-0.000907881 0.000511437 2.3272e-05)
(-0.00116955 0.000554423 5.2562e-06)
(-0.00143263 0.000582784 -1.07764e-05)
(-0.00169167 0.000603713 -2.4455e-05)
(-0.000109212 0.000141549 2.81776e-05)
(-0.000253486 0.000248633 3.74725e-05)
(-0.000449563 0.000363591 3.6305e-05)
(-0.000676117 0.000450638 2.76232e-05)
(-0.00092486 0.000514319 1.5593e-05)
(-0.00118435 0.00055797 2.78626e-06)
(-0.00144554 0.000587343 -9.29861e-06)
(-0.00170344 0.000609565 -1.98491e-05)
(-0.000113827 0.00014708 1.66396e-05)
(-0.000262293 0.000252232 2.29583e-05)
(-0.000461172 0.000366116 2.24877e-05)
(-0.000688688 0.00045239 1.70382e-05)
(-0.000937272 0.000515859 9.02371e-06)
(-0.00119597 0.000559698 3.6085e-08)
(-0.00145618 0.000589485 -8.81291e-06)
(-0.00171326 0.000612387 -1.65718e-05)
(-0.000116467 0.000150285 9.69473e-06)
(-0.000267281 0.000254639 1.36845e-05)
(-0.000468101 0.000368023 1.33296e-05)
(-0.000696717 0.000453748 9.76181e-06)
(-0.00094574 0.000516881 4.39478e-06)
(-0.00120434 0.000560582 -1.8147e-06)
(-0.00146412 0.000590403 -8.09437e-06)
(-0.00172048 0.000613526 -1.35754e-05)
(-0.000117998 0.000152108 5.45148e-06)
(-0.000270116 0.000256148 7.78849e-06)
(-0.00047217 0.000369347 7.45943e-06)
(-0.000701662 0.000454751 5.14591e-06)
(-0.000951201 0.000517589 1.66361e-06)
(-0.00120993 0.000561051 -2.42121e-06)
(-0.00146954 0.000590689 -6.59946e-06)
(-0.0017254 0.000613784 -1.02313e-05)
(-0.00011885 0.000153096 2.74879e-06)
(-0.00027166 0.000257017 3.9447e-06)
(-0.000474431 0.000370162 3.70062e-06)
(-0.000704496 0.000455397 2.37704e-06)
(-0.000954428 0.000518031 3.99758e-07)
(-0.00121331 0.000561285 -1.93239e-06)
(-0.00147284 0.000590745 -4.32633e-06)
(-0.00172841 0.000613775 -6.38177e-06)
(-0.000119233 0.00015353 8.3553e-07)
(-0.000272343 0.000257413 1.19989e-06)
(-0.00047544 0.000370548 1.10957e-06)
(-0.00070578 0.000455711 6.76575e-07)
(-0.000955909 0.000518242 3.42648e-08)
(-0.00121488 0.000561377 -7.25634e-07)
(-0.00147438 0.00059073 -1.50529e-06)
(-0.00172981 0.000613706 -2.17065e-06)
(-0.00181816 -0.000253576 -9.25772e-05)
(-0.00183109 -0.000245103 -8.11787e-05)
(-0.00184044 -0.000237148 -6.89108e-05)
(-0.00184708 -0.000231044 -5.5888e-05)
(-0.00185156 -0.000226548 -4.28363e-05)
(-0.00185435 -0.00022352 -3.01126e-05)
(-0.00185592 -0.000221698 -1.78308e-05)
(-0.00185663 -0.000220862 -5.89857e-06)
(-0.00180989 -1.35624e-05 -7.30312e-05)
(-0.00182381 -5.02902e-06 -6.32744e-05)
(-0.00183468 1.84117e-06 -5.3657e-05)
(-0.00184247 6.9173e-06 -4.3622e-05)
(-0.00184768 1.04197e-05 -3.35751e-05)
(-0.0018509 1.26482e-05 -2.37189e-05)
(-0.00185269 1.39308e-05 -1.41048e-05)
(-0.00185349 1.45136e-05 -4.67724e-06)
(-0.00180699 0.000226217 -5.73244e-05)
(-0.00182076 0.000235359 -4.79609e-05)
(-0.00183258 0.000241744 -3.9789e-05)
(-0.00184141 0.000245893 -3.20313e-05)
(-0.00184739 0.000248386 -2.46486e-05)
(-0.00185115 0.00024975 -1.74952e-05)
(-0.0018533 0.00025044 -1.04616e-05)
(-0.00185427 0.000250721 -3.48017e-06)
(-0.00180963 0.000472761 -4.36601e-05)
(-0.00182293 0.000482395 -3.49148e-05)
(-0.00183507 0.000488929 -2.78348e-05)
(-0.00184458 0.000492339 -2.21012e-05)
(-0.00185128 0.000493933 -1.71351e-05)
(-0.00185567 0.00049447 -1.2358e-05)
(-0.00185829 0.000494621 -7.50217e-06)
(-0.0018595 0.000494615 -2.5168e-06)
)
;
    }
    symmetry
    {
        type            symmetryPlane;
    }
    bottom
    {
        type            calculated;
        value           uniform (0 0 0);
    }
}


// ************************************************************************* //
