/*--------------------------------*- C++ -*----------------------------------*\
| =========                 |                                                 |
| \\      /  F ield         | foam-extend: Open Source CFD                    |
|  \\    /   O peration     | Version:     3.1                                |
|   \\  /    A nd           | Web:         http://www.extend-project.de       |
|    \\/     M anipulation  |                                                 |
\*---------------------------------------------------------------------------*/
FoamFile
{
    version     2.0;
    format      ascii;
    class       volVectorField;
    location    "0.0019";
    object      cellMotionU;
}
// * * * * * * * * * * * * * * * * * * * * * * * * * * * * * * * * * * * * * //

dimensions      [0 1 -1 0 0 0 0];

internalField   nonuniform List<vector> 
16000
(
(3.43934e-09 1.29957e-09 3.25191e-08)
(1.05142e-08 8.3217e-10 3.47374e-08)
(1.81191e-08 1.86964e-11 3.91954e-08)
(2.68364e-08 -1.03293e-09 4.60945e-08)
(3.72644e-08 -2.2147e-09 5.58646e-08)
(4.99373e-08 -3.4284e-09 6.91845e-08)
(6.52691e-08 -4.58112e-09 8.70268e-08)
(8.34146e-08 -5.59983e-09 1.10764e-07)
(1.03966e-07 -6.45382e-09 1.42259e-07)
(1.25566e-07 -7.13024e-09 1.84161e-07)
(2.85901e-09 4.17197e-09 3.42612e-08)
(8.87214e-09 2.78631e-09 3.63599e-08)
(1.55527e-08 2.57542e-10 4.06141e-08)
(2.32965e-08 -3.04141e-09 4.72217e-08)
(3.26124e-08 -6.77058e-09 5.6594e-08)
(4.40034e-08 -1.06091e-08 6.93435e-08)
(5.77878e-08 -1.4284e-08 8.63049e-08)
(7.40417e-08 -1.76124e-08 1.08626e-07)
(9.23227e-08 -2.04232e-08 1.37597e-07)
(1.11213e-07 -2.26535e-08 1.74523e-07)
(1.90136e-09 7.87783e-09 3.7836e-08)
(5.95115e-09 5.53534e-09 3.97032e-08)
(1.06609e-08 1.13418e-09 4.35519e-08)
(1.64402e-08 -4.75155e-09 4.95852e-08)
(2.35526e-08 -1.14401e-08 5.81659e-08)
(3.23498e-08 -1.8377e-08 6.98216e-08)
(4.3095e-08 -2.51175e-08 8.5248e-08)
(5.56813e-08 -3.13187e-08 1.05159e-07)
(6.94884e-08 -3.6738e-08 1.30188e-07)
(8.31687e-08 -4.12572e-08 1.60598e-07)
(6.32098e-10 1.31502e-08 4.34899e-08)
(2.0716e-09 9.6491e-09 4.50414e-08)
(3.98817e-09 3.06708e-09 4.82735e-08)
(6.75842e-09 -5.86163e-09 5.34383e-08)
(1.06565e-08 -1.61628e-08 6.09052e-08)
(1.57617e-08 -2.68961e-08 7.10897e-08)
(2.20738e-08 -3.7431e-08 8.44904e-08)
(2.94086e-08 -4.73115e-08 1.01572e-07)
(3.69761e-08 -5.62409e-08 1.2247e-07)
(4.32755e-08 -6.41532e-08 1.46879e-07)
(-8.53998e-10 2.07972e-08 5.17007e-08)
(-2.52012e-09 1.58556e-08 5.28259e-08)
(-3.94624e-09 6.49476e-09 5.52093e-08)
(-4.92594e-09 -6.16257e-09 5.9196e-08)
(-5.2228e-09 -2.08319e-08 6.51892e-08)
(-4.7388e-09 -3.62395e-08 7.35998e-08)
(-3.80728e-09 -5.14569e-08 8.47828e-08)
(-2.97684e-09 -6.59665e-08 9.89359e-08)
(-3.02038e-09 -7.94528e-08 1.16008e-07)
(-5.60014e-09 -9.19712e-08 1.35464e-07)
(-2.47462e-09 3.17575e-08 6.32061e-08)
(-7.54976e-09 2.49319e-08 6.37058e-08)
(-1.27169e-08 1.19912e-08 6.49105e-08)
(-1.79049e-08 -5.45659e-09 6.73275e-08)
(-2.3022e-08 -2.55042e-08 7.14687e-08)
(-2.80576e-08 -4.65827e-08 7.77973e-08)
(-3.32165e-08 -6.7479e-08 8.6605e-08)
(-3.93716e-08 -8.74593e-08 9.79049e-08)
(-4.79023e-08 -1.06537e-07 1.11467e-07)
(-6.00677e-08 -1.24725e-07 1.26731e-07)
(-4.14857e-09 4.71237e-08 7.90788e-08)
(-1.27679e-08 3.76963e-08 7.85963e-08)
(-2.19137e-08 2.00005e-08 7.81034e-08)
(-3.16132e-08 -3.64776e-09 7.83475e-08)
(-4.1907e-08 -3.05105e-08 8.01426e-08)
(-5.28838e-08 -5.83377e-08 8.3998e-08)
(-6.4813e-08 -8.58164e-08 9.01714e-08)
(-7.83012e-08 -1.12179e-07 9.86234e-08)
(-9.50949e-08 -1.37394e-07 1.08879e-07)
(-1.1656e-07 -1.61808e-07 1.20239e-07)
(-5.80334e-09 6.81353e-08 1.00868e-07)
(-1.7988e-08 5.49472e-08 9.87624e-08)
(-3.11584e-08 3.06953e-08 9.55539e-08)
(-4.5504e-08 -1.01096e-09 9.2694e-08)
(-6.11618e-08 -3.63567e-08 9.13912e-08)
(-7.82385e-08 -7.23358e-08 9.23011e-08)
(-9.69825e-08 -1.07156e-07 9.55477e-08)
(-1.18016e-07 -1.40373e-07 1.0095e-07)
(-1.41938e-07 -1.71405e-07 1.07846e-07)
(-1.71298e-07 -2.01794e-07 1.15391e-07)
(-7.40861e-09 9.61048e-08 1.30776e-07)
(-2.30272e-08 7.72138e-08 1.25696e-07)
(-4.01476e-08 4.35852e-08 1.17947e-07)
(-5.91415e-08 1.32512e-09 1.10476e-07)
(-8.02591e-08 -4.43271e-08 1.05097e-07)
(-1.03591e-07 -8.97367e-08 1.0246e-07)
(-1.29102e-07 -1.32764e-07 1.02438e-07)
(-1.56825e-07 -1.72443e-07 1.04529e-07)
(-1.86544e-07 -2.08244e-07 1.07924e-07)
(-2.2127e-07 -2.43015e-07 1.11698e-07)
(-8.971e-09 1.32552e-07 1.72123e-07)
(-2.78272e-08 1.0414e-07 1.61009e-07)
(-4.87198e-08 5.68795e-08 1.45525e-07)
(-7.23213e-08 8.54171e-10 1.31236e-07)
(-9.90012e-08 -5.69904e-08 1.20572e-07)
(-1.28765e-07 -1.12734e-07 1.13782e-07)
(-1.61211e-07 -1.643e-07 1.10117e-07)
(-1.95391e-07 -2.10285e-07 1.08642e-07)
(-2.29947e-07 -2.49753e-07 1.08485e-07)
(-2.64616e-07 -2.83668e-07 1.08774e-07)
(1.05114e-08 4.0989e-09 8.23518e-08)
(3.21249e-08 2.81308e-09 8.82377e-08)
(5.53533e-08 5.94917e-10 1.00029e-07)
(8.20249e-08 -2.24821e-09 1.18188e-07)
(1.14114e-07 -5.41104e-09 1.4375e-07)
(1.53596e-07 -8.60678e-09 1.78368e-07)
(2.02445e-07 -1.15575e-08 2.24442e-07)
(2.62507e-07 -1.40265e-08 2.85412e-07)
(3.35089e-07 -1.58638e-08 3.66071e-07)
(4.2068e-07 -1.69212e-08 4.73513e-07)
(8.88622e-09 1.30953e-08 8.68745e-08)
(2.75609e-08 9.30272e-09 9.24636e-08)
(4.82797e-08 2.41174e-09 1.03757e-07)
(7.23176e-08 -6.51279e-09 1.21212e-07)
(1.01399e-07 -1.65001e-08 1.45817e-07)
(1.3741e-07 -2.66227e-08 1.79061e-07)
(1.82028e-07 -3.60585e-08 2.22997e-07)
(2.36818e-07 -4.41886e-08 2.80507e-07)
(3.02732e-07 -5.03725e-08 3.54917e-07)
(3.79319e-07 -5.41468e-08 4.49822e-07)
(6.23742e-09 2.45435e-08 9.61311e-08)
(1.94889e-08 1.81496e-08 1.01148e-07)
(3.48084e-08 6.16807e-09 1.11458e-07)
(5.35195e-08 -9.77451e-09 1.27534e-07)
(7.66305e-08 -2.77237e-08 1.50242e-07)
(1.05599e-07 -4.60692e-08 1.80866e-07)
(1.41936e-07 -6.34677e-08 2.21126e-07)
(1.86554e-07 -7.87949e-08 2.72814e-07)
(2.39625e-07 -9.11129e-08 3.37609e-07)
(3.00268e-07 -9.96686e-08 4.16444e-07)
(2.74041e-09 4.067e-08 1.10706e-07)
(8.82031e-09 3.11061e-08 1.14957e-07)
(1.64853e-08 1.31734e-08 1.23777e-07)
(2.69929e-08 -1.10457e-08 1.37776e-07)
(4.1397e-08 -3.87666e-08 1.57845e-07)
(6.03539e-08 -6.72657e-08 1.84988e-07)
(8.46004e-08 -9.46312e-08 2.20455e-07)
(1.1477e-07 -1.19366e-07 2.6545e-07)
(1.50327e-07 -1.40298e-07 3.20444e-07)
(1.89572e-07 -1.56694e-07 3.85006e-07)
(-1.33479e-09 6.40138e-08 1.31759e-07)
(-3.75533e-09 5.04856e-08 1.34984e-07)
(-5.21035e-09 2.4909e-08 1.41771e-07)
(-4.92024e-09 -9.51052e-09 1.52968e-07)
(-1.91502e-09 -4.91009e-08 1.69564e-07)
(4.52901e-09 -9.01888e-08 1.92572e-07)
(1.41684e-08 -1.29976e-07 2.22908e-07)
(2.65366e-08 -1.6672e-07 2.61168e-07)
(4.1053e-08 -1.99119e-07 3.07442e-07)
(5.53236e-08 -2.26671e-07 3.6086e-07)
(-5.74938e-09 9.76861e-08 1.61084e-07)
(-1.7448e-08 7.89229e-08 1.62809e-07)
(-2.90608e-08 4.34206e-08 1.66783e-07)
(-4.01739e-08 -4.20852e-09 1.74275e-07)
(-5.02374e-08 -5.85073e-08 1.86547e-07)
(-5.87392e-08 -1.14933e-07 2.04779e-07)
(-6.55542e-08 -1.69891e-07 2.2976e-07)
(-7.21587e-08 -2.20972e-07 2.61682e-07)
(-8.08862e-08 -2.6763e-07 3.0035e-07)
(-9.31194e-08 -3.09189e-07 3.44991e-07)
(-1.02616e-08 1.45597e-07 2.013e-07)
(-3.15079e-08 1.19506e-07 2.00667e-07)
(-5.38238e-08 7.06883e-08 2.00608e-07)
(-7.70625e-08 5.80183e-09 2.02994e-07)
(-1.01038e-07 -6.72741e-08 2.09858e-07)
(-1.25558e-07 -1.42065e-07 2.22496e-07)
(-1.50643e-07 -2.14657e-07 2.41678e-07)
(-1.76967e-07 -2.8255e-07 2.67547e-07)
(-2.08127e-07 -3.44979e-07 2.99393e-07)
(-2.45858e-07 -4.02013e-07 3.36351e-07)
(-1.46389e-08 2.12729e-07 2.5621e-07)
(-4.53141e-08 1.7586e-07 2.5168e-07)
(-7.82862e-08 1.08373e-07 2.45156e-07)
(-1.1384e-07 2.08022e-08 2.40277e-07)
(-1.52044e-07 -7.58524e-08 2.40067e-07)
(-1.92762e-07 -1.72963e-07 2.462e-07)
(-2.36062e-07 -2.65317e-07 2.59108e-07)
(-2.82598e-07 -3.51278e-07 2.78714e-07)
(-3.33005e-07 -4.28756e-07 3.03783e-07)
(-3.92266e-07 -5.00637e-07 3.33522e-07)
(-1.87361e-08 3.05435e-07 3.31283e-07)
(-5.82025e-08 2.51749e-07 3.19578e-07)
(-1.01346e-07 1.56956e-07 3.02216e-07)
(-1.48939e-07 3.91814e-08 2.86568e-07)
(-2.01329e-07 -8.63968e-08 2.77165e-07)
(-2.58325e-07 -2.09454e-07 2.75681e-07)
(-3.19255e-07 -3.23975e-07 2.81913e-07)
(-3.83461e-07 -4.27087e-07 2.94869e-07)
(-4.49469e-07 -5.17001e-07 3.12947e-07)
(-5.23567e-07 -5.99858e-07 3.35468e-07)
(-2.24675e-08 4.32742e-07 4.34903e-07)
(-6.97368e-08 3.49841e-07 4.08542e-07)
(-1.22148e-07 2.14178e-07 3.72668e-07)
(-1.81249e-07 5.61858e-08 3.41144e-07)
(-2.47665e-07 -1.0405e-07 3.20025e-07)
(-3.20924e-07 -2.55669e-07 3.09986e-07)
(-3.99365e-07 -3.93208e-07 3.09259e-07)
(-4.79855e-07 -5.13037e-07 3.15615e-07)
(-5.583e-07 -6.12694e-07 3.26951e-07)
(-6.33604e-07 -6.942e-07 3.41584e-07)
(1.79017e-08 7.17357e-09 9.51011e-08)
(5.46242e-08 5.35033e-09 1.02795e-07)
(9.38612e-08 2.25965e-09 1.18078e-07)
(1.38625e-07 -1.64052e-09 1.41345e-07)
(1.92301e-07 -5.90132e-09 1.73608e-07)
(2.5851e-07 -1.0082e-08 2.16527e-07)
(3.41293e-07 -1.375e-08 2.72508e-07)
(4.45245e-07 -1.65099e-08 3.44999e-07)
(5.75361e-07 -1.8042e-08 4.38781e-07)
(7.37361e-07 -1.79616e-08 5.61003e-07)
(1.55059e-08 2.27252e-08 1.00707e-07)
(4.79944e-08 1.73994e-08 1.08082e-07)
(8.37668e-08 7.80806e-09 1.22832e-07)
(1.24926e-07 -4.45092e-09 1.45365e-07)
(1.74512e-07 -1.79244e-08 1.76637e-07)
(2.36029e-07 -3.1211e-08 2.18115e-07)
(3.13088e-07 -4.30163e-08 2.7182e-07)
(4.09877e-07 -5.22669e-08 3.40594e-07)
(5.30689e-07 -5.77952e-08 4.27579e-07)
(6.79291e-07 -5.85119e-08 5.36027e-07)
(1.16936e-08 4.20099e-08 1.12098e-07)
(3.64003e-08 3.30788e-08 1.18844e-07)
(6.45596e-08 1.6428e-08 1.32564e-07)
(9.83852e-08 -5.52581e-09 1.53683e-07)
(1.39804e-07 -2.98367e-08 1.83004e-07)
(1.91725e-07 -5.40558e-08 2.21768e-07)
(2.57572e-07 -7.60637e-08 2.71648e-07)
(3.40477e-07 -9.39704e-08 3.34273e-07)
(4.43417e-07 -1.06036e-07 4.11001e-07)
(5.69114e-07 -1.10582e-07 5.02214e-07)
(6.69299e-09 6.856e-08 1.29841e-07)
(2.12019e-08 5.5188e-08 1.35771e-07)
(3.85431e-08 3.02307e-08 1.47938e-07)
(6.09281e-08 -3.20857e-09 1.66931e-07)
(9.04014e-08 -4.09546e-08 1.93593e-07)
(1.28646e-07 -7.88741e-08 2.28836e-07)
(1.77955e-07 -1.13942e-07 2.7383e-07)
(2.41072e-07 -1.43648e-07 3.29615e-07)
(3.19742e-07 -1.65804e-07 3.96287e-07)
(4.15195e-07 -1.78605e-07 4.72901e-07)
(9.03854e-10 1.06524e-07 1.55126e-07)
(3.3837e-09 8.75415e-08 1.59987e-07)
(7.91379e-09 5.17807e-08 1.70053e-07)
(1.60203e-08 4.04884e-09 1.86189e-07)
(2.96957e-08 -5.01509e-08 2.09368e-07)
(5.07854e-08 -1.05274e-07 2.40532e-07)
(8.00982e-08 -1.56921e-07 2.80498e-07)
(1.18698e-07 -2.02121e-07 3.297e-07)
(1.68206e-07 -2.38417e-07 3.87957e-07)
(2.28541e-07 -2.64214e-07 4.54067e-07)
(-5.31358e-09 1.61191e-07 1.89777e-07)
(-1.58756e-08 1.34698e-07 1.93071e-07)
(-2.55408e-08 8.47493e-08 2.0024e-07)
(-3.32757e-08 1.82893e-08 2.12634e-07)
(-3.77258e-08 -5.65031e-08 2.31524e-07)
(-3.72566e-08 -1.32745e-07 2.58087e-07)
(-3.04765e-08 -2.04894e-07 2.93031e-07)
(-1.79778e-08 -2.68944e-07 3.36378e-07)
(-7.59467e-10 -3.23288e-07 3.87855e-07)
(2.23523e-08 -3.66087e-07 4.46571e-07)
(-1.15891e-08 2.39536e-07 2.36422e-07)
(-3.54065e-08 2.02359e-07 2.37245e-07)
(-5.98661e-08 1.33142e-07 2.40271e-07)
(-8.42946e-08 4.19283e-08 2.47527e-07)
(-1.07851e-07 -5.94126e-08 2.61154e-07)
(-1.29456e-07 -1.61163e-07 2.82426e-07)
(-1.47845e-07 -2.57268e-07 3.12104e-07)
(-1.62309e-07 -3.43625e-07 3.50252e-07)
(-1.76197e-07 -4.18228e-07 3.96085e-07)
(-1.89013e-07 -4.80114e-07 4.48881e-07)
(-1.75406e-08 3.50999e-07 2.98829e-07)
(-5.41521e-08 2.97817e-07 2.95572e-07)
(-9.30601e-08 2.01091e-07 2.91918e-07)
(-1.34165e-07 7.69292e-08 2.91886e-07)
(-1.76963e-07 -5.80834e-08 2.9871e-07)
(-2.20486e-07 -1.91056e-07 3.14064e-07)
(-2.63766e-07 -3.14172e-07 3.38258e-07)
(-3.05943e-07 -4.24537e-07 3.71256e-07)
(-3.46569e-07 -5.18729e-07 4.11536e-07)
(-3.89866e-07 -5.9903e-07 4.58944e-07)
(-2.28661e-08 5.08504e-07 3.82332e-07)
(-7.09343e-08 4.2969e-07 3.71537e-07)
(-1.23156e-07 2.91868e-07 3.56677e-07)
(-1.80096e-07 1.23121e-07 3.45875e-07)
(-2.41594e-07 -5.35732e-08 3.44023e-07)
(-3.06591e-07 -2.2298e-07 3.52757e-07)
(-3.73185e-07 -3.76458e-07 3.7159e-07)
(-4.39302e-07 -5.09829e-07 3.99213e-07)
(-5.01749e-07 -6.20424e-07 4.33649e-07)
(-5.66686e-07 -7.14596e-07 4.75249e-07)
(-2.72961e-08 7.31378e-07 4.95063e-07)
(-8.47441e-08 6.0661e-07 4.68872e-07)
(-1.48362e-07 4.05779e-07 4.34908e-07)
(-2.1972e-07 1.76609e-07 4.08379e-07)
(-2.98984e-07 -5.05498e-08 3.95807e-07)
(-3.84654e-07 -2.6012e-07 3.97656e-07)
(-4.73495e-07 -4.44944e-07 4.11578e-07)
(-5.60372e-07 -6.00639e-07 4.3459e-07)
(-6.393e-07 -7.24384e-07 4.63734e-07)
(-7.08813e-07 -8.1855e-07 4.96997e-07)
(2.4823e-08 9.90524e-09 6.17751e-08)
(7.557e-08 7.91171e-09 6.90501e-08)
(1.29045e-07 4.6448e-09 8.33193e-08)
(1.88854e-07 6.00559e-10 1.04583e-07)
(2.59147e-07 -3.7089e-09 1.33276e-07)
(3.44288e-07 -7.76505e-09 1.70177e-07)
(4.49097e-07 -1.10661e-08 2.16409e-07)
(5.79015e-07 -1.3139e-08 2.73537e-07)
(7.398e-07 -1.35562e-08 3.43582e-07)
(9.37564e-07 -1.17825e-08 4.29489e-07)
(2.20151e-08 3.10785e-08 6.64742e-08)
(6.80467e-08 2.53493e-08 7.35845e-08)
(1.17908e-07 1.51732e-08 8.75766e-08)
(1.73959e-07 2.4294e-09 1.08463e-07)
(2.40109e-07 -1.12361e-08 1.36653e-07)
(3.2063e-07 -2.42066e-08 1.72765e-07)
(4.19958e-07 -3.49629e-08 2.1764e-07)
(5.43321e-07 -4.21883e-08 2.7245e-07)
(6.96072e-07 -4.44583e-08 3.38097e-07)
(8.83083e-07 -4.03349e-08 4.14953e-07)
(1.77413e-08 5.64211e-08 7.59308e-08)
(5.50126e-08 4.69086e-08 8.26687e-08)
(9.65875e-08 2.9238e-08 9.61156e-08)
(1.45017e-07 6.29933e-09 1.16335e-07)
(2.02815e-07 -1.85327e-08 1.43555e-07)
(2.73704e-07 -4.24242e-08 1.78227e-07)
(3.62135e-07 -6.28912e-08 2.20968e-07)
(4.72363e-07 -7.76748e-08 2.7209e-07)
(6.0875e-07 -8.46598e-08 3.31336e-07)
(7.75909e-07 -8.17148e-08 3.97286e-07)
(1.21708e-08 9.00368e-08 9.03706e-08)
(3.81079e-08 7.57553e-08 9.66523e-08)
(6.78082e-08 4.9227e-08 1.09286e-07)
(1.04036e-07 1.41016e-08 1.28481e-07)
(1.49473e-07 -2.48065e-08 1.54467e-07)
(2.06442e-07 -6.2723e-08 1.87401e-07)
(2.78267e-07 -9.61053e-08 2.27553e-07)
(3.69044e-07 -1.21989e-07 2.74878e-07)
(4.82002e-07 -1.37749e-07 3.28329e-07)
(6.20471e-07 -1.411e-07 3.85794e-07)
(5.73079e-09 1.3686e-07 1.10416e-07)
(1.83661e-08 1.16447e-07 1.16127e-07)
(3.40683e-08 7.81908e-08 1.27688e-07)
(5.48929e-08 2.7693e-08 1.45472e-07)
(8.35772e-08 -2.86873e-08 1.69808e-07)
(1.22768e-07 -8.45699e-08 2.00865e-07)
(1.74122e-07 -1.34833e-07 2.38636e-07)
(2.39899e-07 -1.75981e-07 2.8269e-07)
(3.23329e-07 -2.05123e-07 3.31894e-07)
(4.26203e-07 -2.20236e-07 3.8419e-07)
(-1.16071e-09 2.03227e-07 1.37032e-07)
(-2.93142e-09 1.7449e-07 1.41874e-07)
(-2.74354e-09 1.20598e-07 1.51899e-07)
(9.78414e-10 4.96592e-08 1.67823e-07)
(1.02239e-08 -2.88833e-08 1.9012e-07)
(2.75586e-08 -1.0709e-07 2.19156e-07)
(5.5407e-08 -1.78617e-07 2.54817e-07)
(9.39778e-08 -2.38859e-07 2.96345e-07)
(1.43492e-07 -2.85793e-07 3.4272e-07)
(2.06933e-07 -3.17285e-07 3.92198e-07)
(-8.08978e-09 2.97566e-07 1.71529e-07)
(-2.44436e-08 2.56817e-07 1.74932e-07)
(-4.03805e-08 1.81435e-07 1.82682e-07)
(-5.46797e-08 8.31678e-08 1.95954e-07)
(-6.5915e-08 -2.42379e-08 2.15798e-07)
(-7.22613e-08 -1.29686e-07 2.42522e-07)
(-7.13301e-08 -2.26281e-07 2.76074e-07)
(-6.12698e-08 -3.09411e-07 3.15756e-07)
(-4.51442e-08 -3.76752e-07 3.60115e-07)
(-2.10372e-08 -4.27168e-07 4.07631e-07)
(-1.46135e-08 4.31409e-07 2.15695e-07)
(-4.49112e-08 3.72434e-07 2.16645e-07)
(-7.64912e-08 2.65967e-07 2.20525e-07)
(-1.08713e-07 1.3098e-07 2.29895e-07)
(-1.40493e-07 -1.33019e-08 2.4651e-07)
(-1.70195e-07 -1.52247e-07 2.70835e-07)
(-1.96069e-07 -2.77243e-07 3.02299e-07)
(-2.15978e-07 -3.85107e-07 3.40202e-07)
(-2.29188e-07 -4.72491e-07 3.8231e-07)
(-2.39365e-07 -5.41457e-07 4.27772e-07)
(-2.03474e-08 6.20665e-07 2.71888e-07)
(-6.29497e-08 5.32091e-07 2.6817e-07)
(-1.08725e-07 3.78631e-07 2.65365e-07)
(-1.57747e-07 1.9351e-07 2.68806e-07)
(-2.09282e-07 3.4044e-09 2.81304e-07)
(-2.61619e-07 -1.74594e-07 3.03154e-07)
(-3.12141e-07 -3.31386e-07 3.33005e-07)
(-3.58106e-07 -4.63026e-07 3.68863e-07)
(-3.95933e-07 -5.67388e-07 4.08081e-07)
(-4.31593e-07 -6.50722e-07 4.50451e-07)
(-2.49447e-08 8.8911e-07 3.43587e-07)
(-7.73093e-08 7.46783e-07 3.30229e-07)
(-1.34909e-07 5.20518e-07 3.15888e-07)
(-1.9884e-07 2.6699e-07 3.1065e-07)
(-2.68733e-07 2.13693e-08 3.18292e-07)
(-3.42433e-07 -1.99347e-07 3.3806e-07)
(-4.15982e-07 -3.88488e-07 3.67021e-07)
(-4.83694e-07 -5.42815e-07 4.01614e-07)
(-5.39657e-07 -6.60802e-07 4.38231e-07)
(-5.83609e-07 -7.45744e-07 4.74335e-07)
(3.02227e-08 1.15193e-08 -1.195e-08)
(9.15602e-08 9.75239e-09 -6.95515e-09)
(1.54855e-07 6.97192e-09 2.62587e-09)
(2.23486e-07 3.64816e-09 1.63678e-08)
(3.01234e-07 2.57414e-10 3.395e-08)
(3.91727e-07 -2.70268e-09 5.50596e-08)
(4.98498e-07 -4.76676e-09 7.93216e-08)
(6.24874e-07 -5.49184e-09 1.06253e-07)
(7.73182e-07 -4.44351e-09 1.35124e-07)
(9.43856e-07 -1.0721e-09 1.64969e-07)
(2.74271e-08 3.56993e-08 -9.74362e-09)
(8.43263e-08 3.07272e-08 -4.67436e-09)
(1.44567e-07 2.20568e-08 5.10442e-09)
(2.10145e-07 1.15283e-08 1.91211e-08)
(2.847e-07 7.08736e-10 3.70372e-08)
(3.71905e-07 -8.88966e-09 5.84518e-08)
(4.75165e-07 -1.5839e-08 8.28779e-08)
(5.9812e-07 -1.88779e-08 1.09733e-07)
(7.43699e-07 -1.6686e-08 1.37907e-07)
(9.13582e-07 -7.86862e-09 1.65655e-07)
(2.33687e-08 6.33898e-08 -5.38999e-09)
(7.20074e-08 5.52055e-08 -2.15833e-10)
(1.24818e-07 4.01468e-08 9.9047e-09)
(1.84086e-07 2.10248e-08 2.45145e-08)
(2.52033e-07 1.08315e-09 4.31032e-08)
(3.32025e-07 -1.70081e-08 6.51816e-08)
(4.27901e-07 -3.09214e-08 9.01965e-08)
(5.42982e-07 -3.85607e-08 1.17235e-07)
(6.80454e-07 -3.80073e-08 1.44871e-07)
(8.43904e-07 -2.73072e-08 1.70903e-07)
(1.81134e-08 9.83424e-08 9.48987e-10)
(5.61865e-08 8.59632e-08 6.34225e-09)
(9.81954e-08 6.32058e-08 1.69263e-08)
(1.46851e-07 3.36121e-08 3.23366e-08)
(2.04704e-07 1.801e-09 5.20076e-08)
(2.73835e-07 -2.77246e-08 7.52108e-08)
(3.57353e-07 -5.1666e-08 1.01252e-07)
(4.58996e-07 -6.73425e-08 1.29135e-07)
(5.81635e-07 -7.24566e-08 1.57226e-07)
(7.28687e-07 -6.50297e-08 1.83302e-07)
(1.20393e-08 1.45052e-07 9.16779e-09)
(3.76948e-08 1.27146e-07 1.48581e-08)
(6.69419e-08 9.38979e-08 2.60728e-08)
(1.01879e-07 5.07571e-08 4.24416e-08)
(1.45313e-07 3.82984e-09 6.33985e-08)
(1.99868e-07 -4.08756e-08 8.81558e-08)
(2.67182e-07 -7.86371e-08 1.15827e-07)
(3.49507e-07 -1.06379e-07 1.45294e-07)
(4.50038e-07 -1.21724e-07 1.7496e-07)
(5.70908e-07 -1.23098e-07 2.02831e-07)
(5.51981e-09 2.09249e-07 1.91498e-08)
(1.76305e-08 1.83677e-07 2.51335e-08)
(3.25655e-08 1.36152e-07 3.70268e-08)
(5.2081e-08 7.46098e-08 5.45283e-08)
(7.82712e-08 8.10118e-09 7.69603e-08)
(1.13908e-07 -5.58839e-08 1.03588e-07)
(1.61544e-07 -1.11581e-07 1.33391e-07)
(2.21356e-07 -1.55101e-07 1.65e-07)
(2.9368e-07 -1.85e-07 1.97052e-07)
(3.81509e-07 -1.99871e-07 2.27671e-07)
(-1.09498e-09 2.9849e-07 3.06935e-08)
(-2.81636e-09 2.6167e-07 3.68924e-08)
(-2.91678e-09 1.94228e-07 4.94441e-08)
(1.09725e-10 1.07744e-07 6.81255e-08)
(7.8513e-09 1.54214e-08 9.23092e-08)
(2.22669e-08 -7.2404e-08 1.20973e-07)
(4.60108e-08 -1.49572e-07 1.53097e-07)
(8.10236e-08 -2.12336e-07 1.87324e-07)
(1.23857e-07 -2.59404e-07 2.2194e-07)
(1.76055e-07 -2.90529e-07 2.55203e-07)
(-7.41493e-09 4.23035e-07 4.34708e-08)
(-2.25013e-08 3.68937e-07 4.97117e-08)
(-3.73679e-08 2.72345e-07 6.26492e-08)
(-5.09733e-08 1.52045e-07 8.24401e-08)
(-6.20004e-08 2.6564e-08 1.08517e-07)
(-6.87536e-08 -9.059e-08 1.3964e-07)
(-6.95075e-08 -1.92095e-07 1.7423e-07)
(-6.19587e-08 -2.75765e-07 2.10997e-07)
(-4.63311e-08 -3.39871e-07 2.47498e-07)
(-2.6886e-08 -3.87245e-07 2.82573e-07)
(-1.30857e-08 5.96972e-07 5.69327e-08)
(-4.0226e-08 5.14516e-07 6.26949e-08)
(-6.86774e-08 3.73479e-07 7.54975e-08)
(-9.80422e-08 2.06766e-07 9.62012e-08)
(-1.27323e-07 4.0122e-08 1.24351e-07)
(-1.54802e-07 -1.10918e-07 1.58356e-07)
(-1.78127e-07 -2.39167e-07 1.95981e-07)
(-1.95133e-07 -3.42614e-07 2.34837e-07)
(-2.0348e-07 -4.21078e-07 2.7219e-07)
(-2.09795e-07 -4.81258e-07 3.07549e-07)
(-1.78354e-08 8.41437e-07 7.03195e-08)
(-5.49414e-08 7.0709e-07 7.44043e-08)
(-9.49941e-08 4.96719e-07 8.6076e-08)
(-1.38466e-07 2.666e-07 1.0752e-07)
(-1.84771e-07 5.05528e-08 1.38229e-07)
(-2.31899e-07 -1.36674e-07 1.7582e-07)
(-2.76393e-07 -2.91112e-07 2.17059e-07)
(-3.13677e-07 -4.12405e-07 2.58421e-07)
(-3.39695e-07 -5.01669e-07 2.96454e-07)
(-3.56503e-07 -5.63791e-07 3.28869e-07)
(3.31971e-08 1.14867e-08 -1.09335e-07)
(9.99951e-08 1.02777e-08 -1.07743e-07)
(1.67224e-07 8.53164e-09 -1.05005e-07)
(2.37319e-07 6.61831e-09 -1.01813e-07)
(3.12805e-07 4.90245e-09 -9.90474e-08)
(3.95515e-07 3.78288e-09 -9.77953e-08)
(4.86364e-07 3.61103e-09 -9.93837e-08)
(5.84882e-07 4.72681e-09 -1.05443e-07)
(6.87953e-07 7.51119e-09 -1.18008e-07)
(7.87992e-07 1.24611e-08 -1.39734e-07)
(3.07847e-08 3.51181e-08 -1.10488e-07)
(9.40822e-08 3.18444e-08 -1.08533e-07)
(1.59402e-07 2.63758e-08 -1.05054e-07)
(2.2779e-07 2.0216e-08 -1.00835e-07)
(3.01793e-07 1.46126e-08 -9.67882e-08)
(3.8348e-07 1.07296e-08 -9.40098e-08)
(4.74033e-07 9.66791e-09 -9.37702e-08)
(5.73985e-07 1.24287e-08 -9.75295e-08)
(6.82162e-07 2.00131e-08 -1.07018e-07)
(7.95477e-07 3.35777e-08 -1.24064e-07)
(2.7535e-08 6.08146e-08 -1.12917e-07)
(8.43116e-08 5.54939e-08 -1.10294e-07)
(1.44302e-07 4.59387e-08 -1.05439e-07)
(2.08947e-07 3.44418e-08 -9.91954e-08)
(2.79568e-07 2.36096e-08 -9.26319e-08)
(3.58314e-07 1.55181e-08 -8.68648e-08)
(4.47325e-07 1.19509e-08 -8.30961e-08)
(5.47817e-07 1.44763e-08 -8.26029e-08)
(6.60591e-07 2.44753e-08 -8.66798e-08)
(7.8715e-07 4.34152e-08 -9.64943e-08)
(2.33623e-08 9.12399e-08 -1.1703e-07)
(7.19391e-08 8.30167e-08 -1.13412e-07)
(1.23933e-07 6.82613e-08 -1.06624e-07)
(1.81452e-07 4.98888e-08 -9.75283e-08)
(2.46327e-07 3.16164e-08 -8.73233e-08)
(3.19792e-07 1.69371e-08 -7.73111e-08)
(4.03922e-07 8.33261e-09 -6.86501e-08)
(5.01107e-07 7.70229e-09 -6.24845e-08)
(6.13037e-07 1.6561e-08 -5.98377e-08)
(7.4258e-07 3.62087e-08 -6.14371e-08)
(1.85219e-08 1.29559e-07 -1.23472e-07)
(5.73865e-08 1.17297e-07 -1.18574e-07)
(9.98434e-08 9.5e-08 -1.09246e-07)
(1.47613e-07 6.71808e-08 -9.65665e-08)
(2.03026e-07 3.87831e-08 -8.18662e-08)
(2.68089e-07 1.44769e-08 -6.66129e-08)
(3.43915e-07 -2.27306e-09 -5.20994e-08)
(4.32117e-07 -9.45343e-09 -3.93771e-08)
(5.35104e-07 -5.74164e-09 -2.94147e-08)
(6.54984e-07 9.60215e-09 -2.2731e-08)
(1.32713e-08 1.79765e-07 -1.33126e-07)
(4.13473e-08 1.61655e-07 -1.26645e-07)
(7.28007e-08 1.28656e-07 -1.14207e-07)
(1.09246e-07 8.74255e-08 -9.71468e-08)
(1.52462e-07 4.52768e-08 -7.7198e-08)
(2.04891e-07 8.05571e-09 -5.59638e-08)
(2.68644e-07 -2.00947e-08 -3.49298e-08)
(3.43558e-07 -3.6911e-08 -1.53551e-08)
(4.29763e-07 -4.20602e-08 2.04419e-09)
(5.2965e-07 -3.5291e-08 1.65335e-08)
(7.82435e-09 2.47051e-07 -1.47156e-07)
(2.46369e-08 2.20098e-07 -1.38674e-07)
(4.42156e-08 1.7173e-07 -1.22443e-07)
(6.81024e-08 1.11832e-07 -1.00147e-07)
(9.77202e-08 5.11167e-08 -7.40502e-08)
(1.34743e-07 -2.52528e-09 -4.62834e-08)
(1.81548e-07 -4.48405e-08 -1.84192e-08)
(2.39646e-07 -7.38673e-08 8.20331e-09)
(3.05314e-07 -9.01055e-08 3.25555e-08)
(3.79159e-07 -9.45623e-08 5.38709e-08)
(2.44664e-09 3.38434e-07 -1.67091e-07)
(8.08311e-09 2.97585e-07 -1.55968e-07)
(1.56419e-08 2.26249e-07 -1.34943e-07)
(2.64085e-08 1.40605e-07 -1.06392e-07)
(4.16667e-08 5.58267e-08 -7.32095e-08)
(6.27787e-08 -1.79522e-08 -3.81272e-08)
(9.09952e-08 -7.62523e-08 -3.28348e-09)
(1.28227e-07 -1.18677e-07 3.01048e-08)
(1.72908e-07 -1.4601e-07 6.0308e-08)
(2.20261e-07 -1.6201e-07 8.70259e-08)
(-2.59719e-09 4.63642e-07 -1.94913e-07)
(-7.51788e-09 3.99533e-07 -1.80073e-07)
(-1.1403e-08 2.92621e-07 -1.52648e-07)
(-1.34438e-08 1.71307e-07 -1.16425e-07)
(-1.26033e-08 5.67522e-08 -7.51482e-08)
(-7.56058e-09 -3.97443e-08 -3.20585e-08)
(3.21797e-09 -1.14675e-07 1.02228e-08)
(2.07098e-08 -1.69074e-07 4.96426e-08)
(4.5278e-08 -2.05445e-07 8.42849e-08)
(7.0004e-08 -2.30608e-07 1.14483e-07)
(-7.17158e-09 6.37843e-07 -2.33363e-07)
(-2.151e-08 5.30481e-07 -2.12557e-07)
(-3.57012e-08 3.67234e-07 -1.76288e-07)
(-4.95266e-08 1.97036e-07 -1.30433e-07)
(-6.23915e-08 4.75087e-08 -7.97932e-08)
(-7.29014e-08 -7.17782e-08 -2.80624e-08)
(-7.88187e-08 -1.61243e-07 2.18274e-08)
(-7.76067e-08 -2.24578e-07 6.71747e-08)
(-6.79953e-08 -2.66294e-07 1.05543e-07)
(-5.45374e-08 -2.92838e-07 1.3571e-07)
(3.32349e-08 9.58014e-09 -2.07701e-07)
(9.95175e-08 9.15038e-09 -2.09949e-07)
(1.64475e-07 8.77794e-09 -2.14826e-07)
(2.2927e-07 8.68585e-09 -2.23111e-07)
(2.94854e-07 9.08762e-09 -2.35992e-07)
(3.61032e-07 1.02421e-08 -2.54961e-07)
(4.26009e-07 1.23566e-08 -2.81769e-07)
(4.8565e-07 1.56478e-08 -3.18461e-07)
(5.31949e-07 2.04406e-08 -3.67403e-07)
(5.50492e-07 2.71946e-08 -4.3173e-07)
(3.14866e-08 2.88489e-08 -2.12451e-07)
(9.56593e-08 2.78675e-08 -2.14067e-07)
(1.60181e-07 2.66351e-08 -2.17709e-07)
(2.24963e-07 2.61202e-08 -2.24291e-07)
(2.9116e-07 2.71117e-08 -2.35045e-07)
(3.5902e-07 3.03061e-08 -2.514e-07)
(4.27432e-07 3.63784e-08 -2.74896e-07)
(4.93952e-07 4.60154e-08 -3.0717e-07)
(5.53799e-07 5.98787e-08 -3.49659e-07)
(6.00188e-07 7.89249e-08 -4.03209e-07)
(2.94547e-08 4.85399e-08 -2.22063e-07)
(8.96858e-08 4.70071e-08 -2.2249e-07)
(1.51754e-07 4.46769e-08 -2.2382e-07)
(2.1606e-07 4.30419e-08 -2.27103e-07)
(2.82879e-07 4.37604e-08 -2.33712e-07)
(3.52974e-07 4.80976e-08 -2.45033e-07)
(4.26704e-07 5.71343e-08 -2.62426e-07)
(5.03361e-07 7.18072e-08 -2.8688e-07)
(5.81854e-07 9.29316e-08 -3.1874e-07)
(6.6247e-07 1.21546e-07 -3.57202e-07)
(2.68915e-08 6.99472e-08 -2.37035e-07)
(8.2355e-08 6.72129e-08 -2.35763e-07)
(1.40345e-07 6.29356e-08 -2.33842e-07)
(2.02143e-07 5.9087e-08 -2.32466e-07)
(2.68701e-07 5.80632e-08 -2.33208e-07)
(3.40384e-07 6.19501e-08 -2.37588e-07)
(4.18249e-07 7.21743e-08 -2.46764e-07)
(5.03494e-07 8.97226e-08 -2.61422e-07)
(5.97152e-07 1.1529e-07 -2.81245e-07)
(7.02397e-07 1.49593e-07 -3.04649e-07)
(2.38902e-08 9.46459e-08 -2.58312e-07)
(7.35916e-08 8.98659e-08 -2.54883e-07)
(1.26569e-07 8.1967e-08 -2.48732e-07)
(1.84013e-07 7.4053e-08 -2.41481e-07)
(2.47612e-07 6.93828e-08 -2.34965e-07)
(3.18695e-07 7.07737e-08 -2.30974e-07)
(3.98027e-07 8.00527e-08 -2.3076e-07)
(4.86886e-07 9.80055e-08 -2.34753e-07)
(5.87371e-07 1.24881e-07 -2.42612e-07)
(7.02471e-07 1.60733e-07 -2.52678e-07)
(2.05606e-08 1.24657e-07 -2.87189e-07)
(6.35887e-08 1.16506e-07 -2.81034e-07)
(1.1032e-07 1.02734e-07 -2.6964e-07)
(1.62117e-07 8.80553e-08 -2.55205e-07)
(2.20354e-07 7.72841e-08 -2.40234e-07)
(2.87085e-07 7.40023e-08 -2.26842e-07)
(3.64078e-07 8.02672e-08 -2.16528e-07)
(4.51319e-07 9.64518e-08 -2.09903e-07)
(5.49453e-07 1.21854e-07 -2.06442e-07)
(6.61004e-07 1.55751e-07 -2.05065e-07)
(1.69595e-08 1.62629e-07 -3.25283e-07)
(5.27105e-08 1.48956e-07 -3.15546e-07)
(9.22706e-08 1.26019e-07 -2.9763e-07)
(1.37131e-07 1.0109e-07 -2.74492e-07)
(1.88513e-07 8.13118e-08 -2.49703e-07)
(2.47823e-07 7.12546e-08 -2.26105e-07)
(3.17259e-07 7.27771e-08 -2.0537e-07)
(3.98232e-07 8.58082e-08 -1.88283e-07)
(4.87732e-07 1.081e-07 -1.74624e-07)
(5.86221e-07 1.37708e-07 -1.63553e-07)
(1.32148e-08 2.12241e-07 -3.74595e-07)
(4.14336e-08 1.89375e-07 -3.59923e-07)
(7.3307e-08 1.51931e-07 -3.33386e-07)
(1.10319e-07 1.121e-07 -2.9963e-07)
(1.53704e-07 8.02198e-08 -2.63495e-07)
(2.04536e-07 6.19048e-08 -2.2873e-07)
(2.63752e-07 5.81375e-08 -1.97526e-07)
(3.33186e-07 6.74208e-08 -1.70507e-07)
(4.10502e-07 8.63734e-08 -1.48086e-07)
(4.91714e-07 1.11032e-07 -1.29153e-07)
(9.50892e-09 2.7892e-07 -4.37574e-07)
(3.01566e-08 2.39882e-07 -4.15479e-07)
(5.43472e-08 1.78984e-07 -3.76877e-07)
(8.33018e-08 1.17824e-07 -3.29779e-07)
(1.18109e-07 7.09965e-08 -2.80717e-07)
(1.59737e-07 4.41918e-08 -2.34041e-07)
(2.09e-07 3.64834e-08 -1.92182e-07)
(2.65928e-07 4.35536e-08 -1.56261e-07)
(3.29186e-07 6.02212e-08 -1.26771e-07)
(3.93053e-07 8.07692e-08 -1.02096e-07)
(5.87987e-09 3.7204e-07 -5.17719e-07)
(1.92219e-08 3.01706e-07 -4.82883e-07)
(3.60816e-08 2.02161e-07 -4.26793e-07)
(5.74327e-08 1.11281e-07 -3.62703e-07)
(8.39202e-08 4.78912e-08 -2.99042e-07)
(1.16351e-07 1.49304e-08 -2.40163e-07)
(1.55759e-07 6.89273e-09 -1.88055e-07)
(2.02612e-07 1.57053e-08 -1.43929e-07)
(2.55369e-07 3.34183e-08 -1.08597e-07)
(3.07474e-07 5.27396e-08 -8.18039e-08)
(3.00805e-08 5.66082e-09 -2.82728e-07)
(8.95168e-08 6.09317e-09 -2.88649e-07)
(1.46115e-07 7.17445e-09 -3.00763e-07)
(1.99782e-07 8.96677e-09 -3.19842e-07)
(2.50021e-07 1.15289e-08 -3.47255e-07)
(2.94984e-07 1.49724e-08 -3.84753e-07)
(3.30887e-07 1.93685e-08 -4.34374e-07)
(3.5115e-07 2.48279e-08 -4.98482e-07)
(3.44788e-07 3.16428e-08 -5.79799e-07)
(2.93422e-07 4.0283e-08 -6.8216e-07)
(2.9147e-08 1.66376e-08 -2.90772e-07)
(8.80339e-08 1.811e-08 -2.95874e-07)
(1.45687e-07 2.13364e-08 -3.06412e-07)
(2.01025e-07 2.66538e-08 -3.23329e-07)
(2.53922e-07 3.43587e-08 -3.48047e-07)
(3.0314e-07 4.4676e-08 -3.82181e-07)
(3.45932e-07 5.78671e-08 -4.27421e-07)
(3.7794e-07 7.4347e-08 -4.85506e-07)
(3.92367e-07 9.45331e-08 -5.57635e-07)
(3.80809e-07 1.19318e-07 -6.43952e-07)
(2.84938e-08 2.66854e-08 -3.06933e-07)
(8.63294e-08 2.91155e-08 -3.10479e-07)
(1.44585e-07 3.43051e-08 -3.18068e-07)
(2.02724e-07 4.28298e-08 -3.30843e-07)
(2.60177e-07 5.52934e-08 -3.5033e-07)
(3.16612e-07 7.21291e-08 -3.78048e-07)
(3.71138e-07 9.37416e-08 -4.154e-07)
(4.21999e-07 1.2051e-07 -4.6305e-07)
(4.6743e-07 1.52837e-07 -5.20494e-07)
(5.07906e-07 1.91561e-07 -5.85261e-07)
(2.77362e-08 3.58129e-08 -3.31731e-07)
(8.45943e-08 3.87822e-08 -3.33093e-07)
(1.42986e-07 4.53273e-08 -3.36542e-07)
(2.03394e-07 5.63761e-08 -3.43471e-07)
(2.66047e-07 7.28796e-08 -3.55654e-07)
(3.30761e-07 9.54436e-08 -3.7467e-07)
(3.98036e-07 1.24466e-07 -4.01584e-07)
(4.68576e-07 1.60144e-07 -4.36598e-07)
(5.43726e-07 2.02556e-07 -4.78176e-07)
(6.28063e-07 2.52149e-07 -5.22742e-07)
(2.68024e-08 4.42095e-08 -3.66303e-07)
(8.22782e-08 4.71811e-08 -3.64912e-07)
(1.40536e-07 5.41209e-08 -3.62999e-07)
(2.02276e-07 6.65733e-08 -3.62552e-07)
(2.68631e-07 8.59888e-08 -3.65708e-07)
(3.40502e-07 1.13249e-07 -3.74386e-07)
(4.18767e-07 1.48551e-07 -3.89692e-07)
(5.05021e-07 1.91607e-07 -4.11437e-07)
(6.01904e-07 2.41881e-07 -4.38073e-07)
(7.14304e-07 2.99117e-07 -4.66066e-07)
(2.56557e-08 5.23071e-08 -4.12237e-07)