/*--------------------------------*- C++ -*----------------------------------*\
| =========                 |                                                 |
| \\      /  F ield         | foam-extend: Open Source CFD                    |
|  \\    /   O peration     | Version:     3.1                                |
|   \\  /    A nd           | Web:         http://www.extend-project.de       |
|    \\/     M anipulation  |                                                 |
\*---------------------------------------------------------------------------*/
FoamFile
{
    version     2.0;
    format      ascii;
    class       volScalarField;
    location    "0.0019";
    object      p;
}
// * * * * * * * * * * * * * * * * * * * * * * * * * * * * * * * * * * * * * //

dimensions      [0 2 -2 0 0 0 0];

internalField   nonuniform List<scalar> 
16000
(
1.32761
1.3277
1.32787
1.32813
1.32847
1.32889
1.32939
1.32996
1.33059
1.33127
1.3277
1.32778
1.32794
1.32818
1.32851
1.32892
1.3294
1.32995
1.33056
1.33122
1.32787
1.32794
1.32809
1.32832
1.32863
1.32901
1.32947
1.33
1.33058
1.33122
1.32813
1.32819
1.32832
1.32853
1.32882
1.32918
1.32961
1.33011
1.33066
1.33127
1.32847
1.32851
1.32863
1.32882
1.32908
1.32942
1.32981
1.33028
1.3308
1.33136
1.32889
1.32892
1.32901
1.32918
1.32942
1.32972
1.33008
1.3305
1.33098
1.33151
1.32939
1.3294
1.32947
1.32961
1.32982
1.33008
1.3304
1.33079
1.33122
1.33169
1.32996
1.32995
1.33
1.33011
1.33028
1.3305
1.33079
1.33112
1.3315
1.33191
1.33059
1.33056
1.33058
1.33067
1.3308
1.33099
1.33122
1.3315
1.33182
1.33217
1.33127
1.33122
1.33122
1.33127
1.33137
1.33151
1.33169
1.33191
1.33217
1.33246
1.31623
1.31651
1.31706
1.31787
1.31896
1.32029
1.32187
1.32368
1.32569
1.32787
1.31651
1.31676
1.31728
1.31806
1.3191
1.32038
1.32189
1.32363
1.32557
1.32767
1.31706
1.31728
1.31776
1.31849
1.31947
1.32068
1.32213
1.32378
1.32563
1.32765
1.31788
1.31806
1.31849
1.31916
1.32007
1.32121
1.32257
1.32413
1.32588
1.3278
1.31896
1.3191
1.31947
1.32007
1.3209
1.32196
1.32322
1.32468
1.32632
1.32812
1.32029
1.32038
1.32068
1.32121
1.32196
1.32291
1.32407
1.32542
1.32694
1.32861
1.32188
1.3219
1.32213
1.32257
1.32322
1.32407
1.32511
1.32634
1.32774
1.32927
1.32368
1.32363
1.32378
1.32413
1.32468
1.32542
1.32634
1.32744
1.3287
1.33009
1.32569
1.32557
1.32563
1.32589
1.32632
1.32694
1.32774
1.3287
1.32981
1.33106
1.32787
1.32767
1.32765
1.3278
1.32812
1.32862
1.32928
1.33009
1.33106
1.33216
1.30315
1.30362
1.30457
1.30598
1.30786
1.31019
1.31296
1.31616
1.31975
1.3237
1.30362
1.30406
1.30496
1.30631
1.3081
1.31034
1.313
1.31607
1.31953
1.32334
1.30457
1.30496
1.30579
1.30706
1.30875
1.31088
1.31341
1.31634
1.31965
1.3233
1.30598
1.30631
1.30706
1.30823
1.30981
1.3118
1.3142
1.31697
1.32011
1.32358
1.30786
1.30811
1.30876
1.30981
1.31127
1.31312
1.31535
1.31795
1.3209
1.32418
1.31019
1.31034
1.31088
1.31181
1.31312
1.3148
1.31686
1.31927
1.32203
1.32509
1.31296
1.313
1.31341
1.3142
1.31535
1.31686
1.31873
1.32094
1.32347
1.32631
1.31616
1.31607
1.31635
1.31697
1.31795
1.31928
1.32094
1.32293
1.32523
1.32783
1.31975
1.31953
1.31965
1.32011
1.3209
1.32203
1.32348
1.32523
1.32729
1.32963
1.3237
1.32335
1.32331
1.32358
1.32418
1.32509
1.32631
1.32783
1.32963
1.3317
1.28687
1.28755
1.28892
1.29096
1.29369
1.29709
1.30116
1.30589
1.31125
1.31722
1.28755
1.28819
1.28948
1.29144
1.29405
1.29731
1.30122
1.30576
1.31093
1.31668
1.28892
1.28948
1.29068
1.29252
1.295
1.2981
1.30183
1.30617
1.31111
1.31662
1.29097
1.29144
1.29252
1.29423
1.29654
1.29946
1.30299
1.30711
1.3118
1.31705
1.29369
1.29405
1.295
1.29654
1.29867
1.3014
1.3047
1.30857
1.313
1.31797
1.29709
1.29731
1.2981
1.29947
1.3014
1.30389
1.30695
1.31056
1.31471
1.31937
1.30116
1.30122
1.30183
1.30299
1.3047
1.30695
1.30974
1.31306
1.31691
1.32124
1.30589
1.30577
1.30617
1.30711
1.30857
1.31056
1.31307
1.31608
1.31959
1.32358
1.31126
1.31093
1.31112
1.31181
1.31301
1.31471
1.31691
1.3196
1.32276
1.32638
1.31723
1.31669
1.31663
1.31706
1.31797
1.31937
1.32124
1.32358
1.32638
1.32962
1.26609
1.26699
1.26878
1.27147
1.27507
1.27959
1.28502
1.29137
1.29865
1.30684
1.26699
1.26782
1.26952
1.2721
1.27555
1.27988
1.2851
1.29121
1.29821
1.3061
1.26878
1.26952
1.27111
1.27353
1.27681
1.28093
1.28592
1.29176
1.29847
1.30603
1.27148
1.2721
1.27353
1.27579
1.27886
1.28275
1.28748
1.29303
1.29942
1.30663
1.27508
1.27555
1.27681
1.27886
1.2817
1.28534
1.28978
1.29503
1.30107
1.3079
1.27959
1.27988
1.28094
1.28276
1.28534
1.2887
1.29283
1.29774
1.30341
1.30984
1.28502
1.2851
1.28592
1.28748
1.28979
1.29283
1.29663
1.30117
1.30645
1.31246
1.29138
1.29121
1.29177
1.29304
1.29503
1.29774
1.30117
1.30532
1.31018
1.31574
1.29865
1.29822
1.29848
1.29943
1.30107
1.30342
1.30645
1.31018
1.3146
1.31968
1.30685
1.30611
1.30603
1.30663
1.30791
1.30985
1.31246
1.31574
1.31968
1.32426
1.23949
1.24059
1.24278
1.24609
1.25052
1.2561
1.26287
1.27084
1.28005
1.29053
1.24059
1.24161
1.2437
1.24686
1.25111
1.25647
1.26297
1.27064
1.27951
1.28959
1.24278
1.2437
1.24564
1.24863
1.25267
1.25779
1.264
1.27135
1.27984
1.2895
1.24609
1.24686
1.24863
1.25141
1.25521
1.26006
1.26596
1.27296
1.28106
1.29028
1.25052
1.25111
1.25267
1.25521
1.25875
1.26329
1.26886
1.27548
1.28317
1.29193
1.25611
1.25648
1.25779
1.26006
1.26329
1.2675
1.27271
1.27893
1.28618
1.29446
1.26287
1.26298
1.26401
1.26597
1.26887
1.27271
1.27752
1.28331
1.29009
1.29786
1.27085
1.27065
1.27135
1.27296
1.27549
1.27893
1.28331
1.28864
1.29492
1.30214
1.28006
1.27952
1.27985
1.28107
1.28318
1.28618
1.2901
1.29492
1.30066
1.3073
1.29054
1.2896
1.28951
1.29029
1.29194
1.29446
1.29786
1.30214
1.30731
1.31334
1.20584
1.2071
1.20962
1.21344
1.21857
1.22507
1.23299
1.24241
1.25339
1.26601
1.2071
1.20827
1.21068
1.21432
1.21925
1.2255
1.23312
1.24218
1.25274
1.26488
1.20962
1.21068
1.21292
1.21637
1.22107
1.22704
1.23434
1.24302
1.25315
1.26478
1.21344
1.21433
1.21637
1.2196
1.22403
1.2297
1.23665
1.24494
1.25461
1.26573
1.21857
1.21925
1.22107
1.22403
1.22816
1.2335
1.24008
1.24795
1.25716
1.26774
1.22507
1.2255
1.22704
1.2297
1.2335
1.23848
1.24465
1.25208
1.26079
1.27082
1.233
1.23313
1.23434
1.23665
1.24009
1.24466
1.2504
1.25734
1.26553
1.27498
1.24241
1.24218
1.24302
1.24494
1.24796
1.25208
1.25734
1.26378
1.2714
1.28024
1.2534
1.25275
1.25315
1.25462
1.25716
1.26079
1.26554
1.27141
1.27843
1.28661
1.26603
1.26489
1.26479
1.26574
1.26775
1.27083
1.27498
1.28024
1.28662
1.29411
1.16413
1.16548
1.16821
1.17233
1.17792
1.18503
1.19376
1.20422
1.21654
1.23087
1.16548
1.16675
1.16934
1.1733
1.17867
1.18551
1.19391
1.20397
1.21581
1.22957
1.16821
1.16934
1.17177
1.17553
1.18065
1.1872
1.19525
1.20491
1.21627
1.22946
1.17234
1.1733
1.17553
1.17905
1.18389
1.19013
1.19782
1.20706
1.21794
1.23055
1.17792
1.17867
1.18065
1.1839
1.18844
1.19433
1.20164
1.21044
1.22082
1.23286
1.18503
1.18551
1.1872
1.19013
1.19434
1.19985
1.20675
1.21509
1.22494
1.23639
1.19376
1.19391
1.19526
1.19783
1.20164
1.20675
1.21319
1.22104
1.23035
1.24118
1.20423
1.20398
1.20491
1.20706
1.21044
1.21509
1.22104
1.22835
1.23708
1.24726
1.21655
1.21582
1.21628
1.21794
1.22082
1.22495
1.23035
1.23708
1.24518
1.25467
1.23088
1.22958
1.22947
1.23056
1.23286
1.23639
1.24118
1.24726
1.25467
1.26344
1.1137
1.11506
1.1178
1.12197
1.12763
1.13489
1.14386
1.15471
1.16762
1.18281
1.11506
1.11634
1.11895
1.12295
1.12839
1.13537
1.14401
1.15445
1.16685
1.18143
1.11781
1.11895
1.12141
1.12521
1.13041
1.13711
1.1454
1.15542
1.16734
1.18131
1.12197
1.12295
1.12521
1.12878
1.13373
1.14012
1.14806
1.15767
1.16909
1.18248
1.12763
1.12839
1.13041
1.13373
1.13838
1.14445
1.15202
1.16121
1.17213
1.18493
1.13489
1.13538
1.13711
1.14012
1.14445
1.15017
1.15734
1.16608
1.1765
1.18871
1.14386
1.14401
1.14541
1.14806
1.15203
1.15735
1.1641
1.17237
1.18226
1.19386
1.15471
1.15445
1.15543
1.15767
1.16121
1.16609
1.17237
1.18013
1.18946
1.20044
1.16763
1.16686
1.16734
1.16909
1.17214
1.17651
1.18226
1.18947
1.19819
1.2085
1.18282
1.18144
1.18132
1.18249
1.18494
1.18872
1.19387
1.20044
1.2085
1.2181
1.05449
1.05574
1.05826
1.06211
1.06736
1.07413
1.08258
1.0929
1.10531
1.12012
1.05574
1.05691
1.05932
1.06301
1.06807
1.07459
1.08272
1.09264
1.10457
1.11876
1.05826
1.05932
1.06158
1.0651
1.06995
1.07622
1.08404
1.09357
1.10503
1.11864
1.06211
1.06301
1.0651
1.06843
1.07304
1.07904
1.08655
1.09571
1.10672
1.11977
1.06736
1.06807
1.06995
1.07304
1.07741
1.08313
1.09032
1.0991
1.10966
1.12217
1.07414
1.07459
1.07622
1.07905
1.08313
1.08855
1.09539
1.1038
1.11391
1.12589
1.08259
1.08273
1.08404
1.08655
1.09032
1.0954
1.10188
1.10988
1.11953
1.13097
1.0929
1.09265
1.09358
1.09572
1.09911
1.1038
1.10988
1.11745
1.12662
1.1375
1.10532
1.10458
1.10504
1.10672
1.10967
1.11391
1.11954
1.12662
1.13527
1.14556
1.12013
1.11877
1.11865
1.11978
1.12218
1.12589
1.13097
1.1375
1.14557
1.15526
0.987103
0.988111
0.990152
0.993278
0.99757
1.00314
1.01016
1.01881
1.02937
1.04215
0.988112
0.989059
0.99101
0.994015
0.998148
1.00352
1.01027
1.01859
1.02872
1.04096
0.990153
0.991011
0.992851
0.99572
0.999688
1.00486
1.01136
1.01937
1.02911
1.04084
0.993279
0.994016
0.995721
0.998437
1.00223
1.00719
1.01345
1.02116
1.03053
1.04181
0.997572
0.99815
0.99969
1.00223
1.00583
1.01058
1.0166
1.02402
1.03304
1.04387
1.00315
1.00352
1.00486
1.0072
1.01059
1.01511
1.02087
1.028
1.03668
1.04709
1.01016
1.01027
1.01136
1.01345
1.0166
1.02087
1.02636
1.03319
1.04153
1.05152
1.01882
1.0186
1.01937
1.02117
1.02402
1.028
1.0332
1.03971
1.04769
1.05726
1.02938
1.02873
1.02911
1.03054
1.03305
1.03668
1.04153
1.04769
1.05528
1.06443
1.04216
1.04097
1.04086
1.04182
1.04388
1.0471
1.05153
1.05727
1.06443
1.07315
0.91296
0.913609
0.914925
0.916949
0.919745
0.923404
0.928054
0.933869
0.941078
0.949984
0.913609
0.91422
0.915479
0.917427
0.920121
0.923647
0.928124
0.933713
0.940626
0.949138
0.914925
0.91548
0.91667
0.918532
0.921123
0.924521
0.928837
0.934221
0.940869
0.949032
0.91695
0.917428
0.918533
0.920301
0.922783
0.926055
0.930219
0.935414
0.941822
0.949673
0.919747
0.920123
0.921124
0.922784
0.925151
0.928294
0.93231
0.937328
0.943516
0.951082
0.923407
0.92365
0.924523
0.926057
0.928295
0.931303
0.93517
0.940017
0.945998
0.953303
0.928059
0.928129
0.928842
0.930223
0.932313
0.935171
0.938884
0.94356
0.949342
0.956399
0.933876
0.93372
0.934227
0.93542
0.937332
0.94002
0.943561
0.948059
0.953642
0.960461
0.941087
0.940635
0.940877
0.941829
0.943522
0.946003
0.949345
0.953644
0.959021
0.965608
0.949996
0.94915
0.949042
0.949682
0.951091
0.95331
0.956405
0.960464
0.96561
0.971988
0.834269
0.834474
0.834889
0.835533
0.836431
0.837623
0.83917
0.841157
0.843712
0.847019
0.834474
0.834668
0.835065
0.835684
0.836549
0.837698
0.839185
0.841093
0.843536
0.846684
0.83489
0.835066
0.835441
0.836032
0.836863
0.83797
0.839404
0.841241
0.84359
0.846604
0.835534
0.835685
0.836033
0.836594
0.837389
0.838455
0.839839
0.841615
0.843883
0.846786
0.836433
0.836551
0.836865
0.83739
0.838149
0.839174
0.840512
0.842233
0.844432
0.847242
0.837627
0.837701
0.837972
0.838457
0.839175
0.840159
0.841454
0.843127
0.845266
0.847998
0.839175
0.83919
0.839408
0.839843
0.840515
0.841455
0.842709
0.844339
0.846428
0.849095
0.841164
0.841099
0.841247
0.84162
0.842238
0.843129
0.84434
0.845929
0.847976
0.850591
0.843722
0.843545
0.843598
0.84389
0.844438
0.845271
0.846431
0.847978
0.849992
0.852576
0.847031
0.846695
0.846614
0.846795
0.84725
0.848005
0.8491
0.850595
0.852578
0.855172
0.753846
0.753581
0.75304
0.752211
0.751067
0.749577
0.747698
0.745386
0.742593
0.73928
0.753581
0.753333
0.752814
0.752014
0.750909
0.74947
0.747658
0.745432
0.742747
0.739567
0.753041
0.752814
0.75232
0.75155
0.750481
0.749086
0.747333
0.745182
0.742593
0.739534
0.752212
0.752014
0.75155
0.75081
0.749776
0.748423
0.746721
0.744636
0.742134
0.739187
0.751069
0.750911
0.750482
0.749776
0.748778
0.747466
0.745813
0.743789
0.741366
0.738523
0.74958
0.749473
0.749089
0.748424
0.747466
0.746197
0.744594
0.74263
0.740282
0.737539
0.747703
0.747663
0.747337
0.746724
0.745815
0.744595
0.743046
0.741146
0.738874
0.73623
0.745393
0.745438
0.745187
0.744641
0.743793
0.742633
0.741147
0.739319
0.737132
0.734593
0.742602
0.742755
0.7426
0.74214
0.741371
0.740286
0.738877
0.737133
0.735048
0.732635
0.73929
0.739577
0.739544
0.739195
0.73853
0.737545
0.736234
0.734596
0.732637
0.730398
0.674751
0.674065
0.672665
0.670508
0.667519
0.663589
0.658575
0.652285
0.644475
0.634836
0.674065
0.673419
0.672077
0.669998
0.667113
0.663321
0.658489
0.652441
0.644951
0.635736
0.672665
0.672078
0.670803
0.668803
0.666015
0.662347
0.657673
0.651833
0.644616
0.635767
0.670509
0.669999
0.668804
0.66689
0.664197
0.660642
0.656109
0.650448
0.643468
0.634936
0.667521
0.667115
0.666017
0.664198
0.661604
0.658158
0.653754
0.648253
0.641479
0.633226
0.663593
0.663324
0.662349
0.660643
0.658159
0.654826
0.650546
0.645193
0.638605
0.630599
0.658579
0.658493
0.657677
0.656111
0.653756
0.650547
0.646397
0.64119
0.634775
0.626995
0.652291
0.652447
0.651838
0.650452
0.648257
0.645195
0.64119
0.636136
0.629896
0.622335
0.644483
0.644958
0.644623
0.643474
0.641484
0.638608
0.634777
0.629897
0.623847
0.616516
0.634846
0.635745
0.635776
0.634944
0.633233
0.630604
0.627
0.622337
0.616517
0.609456
0.599805
0.598815
0.596796
0.593685
0.589374
0.583708
0.576471
0.567375
0.556034
0.541942
0.598815
0.597883
0.595949
0.592952
0.588794
0.583329
0.576359
0.567617
0.556747
0.543285
0.596796
0.595949
0.594114
0.591237
0.587225
0.581943
0.575207
0.566771
0.556304
0.543383
0.593686
0.592953
0.591237
0.588489
0.584622
0.579511
0.572986
0.564816
0.554697
0.542242
0.589376
0.588796
0.587226
0.584622
0.580907
0.575963
0.569632
0.5617
0.551885
0.539837
0.583711
0.583332
0.581945
0.579513
0.575964
0.571192
0.56505
0.557339
0.547795
0.536106
0.576475
0.576363
0.575211
0.572988
0.569634
0.565051
0.559103
0.551606
0.542315
0.530949
0.56738
0.567622
0.566775
0.56482
0.561703
0.55734
0.551606
0.544331
0.535288
0.524227
0.556042
0.556754
0.55631
0.554702
0.55189
0.547799
0.542317
0.535289
0.526508
0.515754
0.541951
0.543294
0.543391
0.54225
0.539843
0.536111
0.530953
0.52423
0.515755
0.505335
0.531111
0.529974
0.52766
0.524104
0.519198
0.512782
0.504638
0.494469
0.481877
0.466334
0.529974
0.528906
0.526691
0.523271
0.518544
0.512362
0.504522
0.494751
0.482681
0.467829
0.52766
0.526692
0.524598
0.521324
0.516774
0.510813
0.503251
0.493835
0.482224
0.467975
0.524105
0.523272
0.521324
0.518211
0.513844
0.508096
0.500793
0.491698
0.480495
0.466779
0.5192
0.518545
0.516775
0.513844
0.509671
0.50414
0.497085
0.488287
0.477453
0.464214
0.512785
0.512364
0.510815
0.508098
0.50414
0.498834
0.492028
0.483515
0.473023
0.460217
0.504642
0.504526
0.503254
0.500796
0.497086
0.492028
0.485481
0.477252
0.467089
0.454686
0.494474
0.494756
0.493839
0.491702
0.48829
0.483517
0.477253
0.469322
0.459487
0.447474
0.481884
0.482688
0.48223
0.4805
0.477458
0.473027
0.467091
0.459488
0.449998
0.438379
0.466343
0.467837
0.467982
0.466785
0.46422
0.460222
0.45469
0.447476
0.43838
0.427181
0.469741
0.468612
0.466324
0.462828
0.458045
0.45186
0.444116
0.434605
0.423055
0.409111
0.468612
0.467555
0.46537
0.462015
0.457414
0.451462
0.444014
0.434876
0.423798
0.410452
0.466324
0.46537
0.463316
0.460119
0.455711
0.449993
0.442832
0.434048
0.423408
0.410613
0.462829
0.462016
0.460119
0.457102
0.4529
0.447424
0.440547
0.432104
0.421879
0.409598
0.458047
0.457416
0.455712
0.452901
0.448926
0.443702
0.437114
0.429008
0.419183
0.40739
0.451862
0.451465
0.449995
0.447425
0.443703
0.438751
0.432464
0.424699
0.415269
0.403947
0.444119
0.444017
0.442835
0.440549
0.437115
0.432465
0.426499
0.419088
0.410058
0.399202
0.43461
0.434881
0.434053
0.432108
0.429011
0.424701
0.419089
0.412056
0.403441
0.393059
0.423062
0.423804
0.423414
0.421884
0.419187
0.415272
0.41006
0.403442
0.395271
0.385383
0.40912
0.41046
0.41062
0.409604
0.407395
0.403952
0.399206
0.393061
0.385384
0.376025
0.41572
0.414713
0.412682
0.409608
0.405458
0.400186
0.393735
0.386039
0.377025
0.366615
0.414713
0.413773
0.411841
0.4089
0.404918
0.399854
0.393656
0.386262
0.377602
0.367604
0.412682
0.411841
0.410037
0.407254
0.403463
0.398627
0.392698
0.385618
0.377323
0.367747
0.409609
0.4089
0.407255
0.404657
0.401081
0.396494
0.390851
0.384101
0.376185
0.367042
0.40546
0.40492
0.403465
0.401082
0.397748
0.393434
0.388101
0.381701
0.374181
0.365487
0.400188
0.399857
0.398629
0.396495
0.393435
0.389423
0.384425
0.3784
0.371298
0.363074
0.393739
0.39366
0.392701
0.390854
0.388103
0.384426
0.379795
0.374173
0.367518
0.35979
0.386044
0.386267
0.385622
0.384105
0.381704
0.378402
0.374174
0.368991
0.362817
0.355617
0.377031
0.377608
0.377329
0.37619
0.374185
0.371301
0.36752
0.362818
0.357164
0.350533
0.366623
0.367612
0.367754
0.367048
0.365493
0.363079
0.359794
0.35562
0.350534
0.344518
0.368293
0.367457
0.365784
0.363279
0.359954
0.355829
0.350941
0.34535
0.33916
0.332536
0.367458
0.366681
0.365095
0.362707
0.359527
0.355575
0.350884
0.34551
0.339548
0.333146
0.365784
0.365095
0.363627
0.361387
0.358384
0.354637
0.350179
0.345063
0.339374
0.333251
0.36328
0.362708
0.361387
0.359324
0.356529
0.353021
0.348831
0.34401
0.338639
0.332845
0.359956
0.359529
0.358385
0.35653
0.353974
0.350738
0.346851
0.342363
0.337353
0.331938
0.355832
0.355578
0.354639
0.353022
0.350738
0.347807
0.344259
0.340144
0.335537
0.33055
0.350945
0.350888
0.350182
0.348833
0.346852
0.34426
0.341088
0.337386
0.333226
0.328713
0.345355
0.345515
0.345067
0.344014
0.342366
0.340147
0.337387
0.334137
0.330468
0.326478
0.339166
0.339554
0.33938
0.338644
0.337357
0.335541
0.333228
0.330469
0.327334
0.323918
0.332544
0.333154
0.333258
0.332852
0.331944
0.330555
0.328717
0.326481
0.323919
0.321126
0.326359
0.325684
0.324341
0.322353
0.319758
0.316613
0.313003
0.309057
0.30496
0.300984
0.325685
0.32506
0.323792
0.321903
0.319428
0.316421
0.312961
0.309166
0.305207
0.301331
0.324342
0.323792
0.322628
0.32087
0.31855
0.315719
0.312453
0.30886
0.305099
0.301397
0.322355
0.321904
0.32087
0.319272
0.317139
0.314522
0.311489
0.308146
0.304639
0.301177
0.31976
0.31943
0.318551
0.31714
0.315226
0.312856
0.310097
0.307046
0.303844
0.300682
0.316615
0.316424
0.315721
0.314523
0.312857
0.310767
0.308317
0.305602
0.302751
0.299946
0.313007
0.312965
0.312456
0.311492
0.310099
0.308318
0.306213
0.303871
0.301418
0.299019
0.309062
0.309171
0.308864
0.30815
0.30705
0.305604
0.303872
0.30194
0.299924
0.29798
0.304967
0.305214
0.305105
0.304644
0.303848
0.302755
0.30142
0.299926
0.298384
0.296937
0.300993
0.301339
0.301405
0.301184
0.300689
0.299951
0.299023
0.297983
0.296939
0.296031
0.288877
0.288317
0.287204
0.285567
0.283444
0.280897
0.278011
0.274905
0.271747
0.268763
0.288317
0.287799
0.286751
0.285197
0.283175
0.280741
0.277975
0.274988
0.271931
0.269016
0.287205
0.286751
0.285791
0.284349
0.282459
0.280174
0.277567
0.274743
0.271842
0.269057
0.285568
0.285198
0.28435
0.283045
0.281315
0.27921
0.2768
0.274179
0.271481
0.268882
0.283446
0.283177
0.282461
0.281316
0.279773
0.277878
0.275696
0.273318
0.270865
0.268501
0.2809
0.280744
0.280176
0.279212
0.277879
0.276221
0.274297
0.272194
0.270024
0.267939
0.278015
0.277979
0.277571
0.276802
0.275699
0.274298
0.272659
0.27086
0.269007
0.26724
0.274911
0.274993
0.274748
0.274184
0.273321
0.272196
0.270861
0.269391
0.267883
0.266466
0.271754
0.271938
0.271849
0.271487
0.270869
0.270028
0.26901
0.267885
0.266744
0.265704
0.268772
0.269024
0.269065
0.268889
0.268507
0.267945
0.267244
0.266469
0.265705
0.265066
0.255111
0.254613
0.253621
0.252156
0.250243
0.247922
0.245243
0.242273
0.239096
0.235812
0.254613
0.254151
0.253216
0.251823
0.249998
0.247777
0.245208
0.242351
0.239284
0.236102
0.253622
0.253216
0.252356
0.251059
0.249346
0.247251
0.244819
0.242105
0.239181
0.236135
0.252157
0.251824
0.251059
0.249877
0.248298
0.246353
0.244083
0.241539
0.238787
0.235909
0.250245
0.25
0.249347
0.248299
0.246874
0.245101
0.243015
0.240665
0.238111
0.235428
0.247925
0.24778
0.247254
0.246355
0.245102
0.243517
0.241636
0.239501
0.237167
0.234703
0.245248
0.245212
0.244822
0.244086
0.243017
0.241637
0.239976
0.238074
0.235978
0.233752
0.242279
0.242356
0.24211
0.241543
0.240668
0.239503
0.238075
0.236417
0.234575
0.232601
0.239103
0.239291
0.239188
0.238793
0.238116
0.237172
0.235981
0.234576
0.232994
0.231284
0.235821
0.236111
0.236144
0.235917
0.235435
0.234709
0.233757
0.232604
0.231286
0.229849
0.224674
0.224201
0.223256
0.221846
0.219979
0.217666
0.214916
0.211734
0.208118
0.204045
0.224201
0.223762
0.222867
0.221523
0.219737
0.217519
0.214878
0.211819
0.208339
0.204421
0.223257
0.222867
0.222039
0.220778
0.21909
0.216984
0.214467
0.211544
0.208213
0.204458
0.221847
0.221524
0.220779
0.219616
0.218042
0.216062
0.213684
0.210911
0.207739
0.204156
0.219982
0.219739
0.219092
0.218043
0.216596
0.214758
0.212532
0.20992
0.206918
0.203513
0.21767
0.217522
0.216987
0.216064
0.214759
0.213073
0.21101
0.20857
0.205747
0.202528
0.214921
0.214882
0.214471
0.213688
0.212534
0.211012
0.209122
0.206862
0.204223
0.201195
0.211741
0.211825
0.21155
0.210916
0.209924
0.208573
0.206863
0.204789
0.20234
0.199505
0.208126
0.208346
0.20822
0.207746
0.206924
0.205752
0.204226
0.202342
0.200086
0.197445
0.204056
0.20443
0.204467
0.204164
0.203521
0.202534
0.2012
0.199508
0.197447
0.195004
0.197414
0.196955
0.196032
0.194644
0.192785
0.190445
0.187605
0.184233
0.180274
0.175645
0.196955
0.196527
0.19565
0.194324
0.192542
0.190296
0.187566
0.184324
0.180521
0.17608
0.196032
0.195651
0.194835
0.193584
0.191891
0.189748
0.187136
0.18403
0.180382
0.176123
0.194645
0.194325
0.193584
0.192421
0.190828
0.188798
0.186313
0.183346
0.179855
0.175776
0.192787
0.192544
0.191893
0.190829
0.189349
0.187441
0.185089
0.182268
0.178935
0.175033
0.190449
0.190299
0.18975
0.1888
0.187442
0.185666
0.183455
0.180784
0.177612
0.173886
0.18761
0.187571
0.187141
0.186316
0.185092
0.183457
0.181394
0.178877
0.175868
0.172317
0.184239
0.18433
0.184035
0.183351
0.182272
0.180787
0.178879
0.176522
0.173678
0.170302
0.180283
0.180529
0.180389
0.179862
0.178941
0.177617
0.175871
0.17368
0.171005
0.167804
0.175656
0.17609
0.176133
0.175785
0.175041
0.173893
0.172322
0.170305
0.167806
0.164786
0.173259
0.172819
0.171932
0.170595
0.168795
0.166515
0.163729
0.160397
0.156459
0.151834
0.172819
0.172408
0.171565
0.170286
0.16856
0.16637
0.163692
0.160489
0.156707
0.15227
0.171933
0.171566
0.17078
0.16957
0.167927
0.165835
0.16327
0.160199
0.156571
0.152317
0.170596
0.170287
0.169571
0.168442
0.166892
0.164905
0.16246
0.159523
0.156049
0.151974
0.168798
0.168562
0.167929
0.166893
0.165446
0.163573
0.161253
0.158456
0.155137
0.151238
0.166519
0.166373
0.165838
0.164907
0.163574
0.161824
0.159637
0.156984
0.153822
0.1501
0.163735
0.163697
0.163274
0.162463
0.161256
0.159639
0.157592
0.155089
0.152088
0.148544
0.160404
0.160495
0.160205
0.159529
0.15846
0.156987
0.15509
0.152744
0.14991
0.146546
0.156468
0.156715
0.156579
0.156056
0.155143
0.153827
0.152092
0.149912
0.147252
0.144074
0.151845
0.152281
0.152327
0.151983
0.151247
0.150107
0.148549
0.14655
0.144076
0.141095
0.152086
0.151678
0.150859
0.149623
0.147961
0.14586
0.143302
0.140259
0.136698
0.132573
0.151679
0.151299
0.15052
0.149338
0.147744
0.145727
0.143268
0.140343
0.136921
0.132961
0.15086
0.150521
0.149794
0.148677
0.147162
0.145236
0.142883
0.140081
0.136801
0.133005
0.149625
0.149339
0.148678
0.147637
0.146209
0.144383
0.142144
0.139471
0.136336
0.132706
0.147964
0.147747
0.147163
0.14621
0.14488
0.143164
0.141046
0.138508
0.135524
0.132063
0.145864
0.14573
0.145239
0.144386
0.143165
0.141567
0.13958
0.137184
0.134357
0.13107
0.143307
0.143273
0.142888
0.142148
0.141049
0.139581
0.137734
0.135489
0.132826
0.12972
0.140266
0.14035
0.140088
0.139477
0.138512
0.137187
0.135491
0.133407
0.130918
0.128001
0.136707
0.13693
0.136809
0.136344
0.13553
0.134362
0.132829
0.130919
0.128614
0.125897
0.132585
0.132972
0.133015
0.132716
0.132072
0.131078
0.129726
0.128005
0.125899
0.123396
0.133673
0.133311
0.132584
0.131489
0.130025
0.128185
0.125966
0.12336
0.120364
0.116975
0.133312
0.132974
0.132283
0.131238
0.129834
0.128069
0.125937
0.123432
0.120551
0.11729
0.132585
0.132284
0.131641
0.130655
0.129324
0.127642
0.125606
0.123211
0.120452
0.117328
0.131491
0.131239
0.130656
0.129741
0.128491
0.126903
0.124973
0.122696
0.120068
0.117089
0.130027
0.129837
0.129325
0.128492
0.127335
0.12585
0.124035
0.121885
0.119398
0.116573
0.128189
0.128073
0.127645
0.126905
0.125851
0.124481
0.122791
0.120779
0.118441
0.11578
0.125971
0.125942
0.125611
0.124977
0.124038
0.122793
0.121239
0.119374
0.117197
0.114709
0.123368
0.123439
0.123218
0.122701
0.12189
0.120782
0.119376
0.117671
0.115665
0.113362
0.120374
0.12056
0.120461
0.120076
0.119404
0.118446
0.117201
0.115667
0.113845
0.11174
0.116988
0.117302
0.117339
0.117099
0.116582
0.115787
0.114715
0.113366
0.111742
0.10985
0.117719
0.117407
0.116781
0.115843
0.114595
0.113039
0.111183
0.109034
0.106609
0.103932
0.117407
0.117116
0.116523
0.115628
0.114433
0.112942
0.111159
0.109094
0.106759
0.104178
0.116782
0.116523
0.115973
0.115131
0.114
0.112583
0.110885
0.108913
0.106681
0.104209
0.115844
0.115629
0.115132
0.114354
0.113298
0.111965
0.110361
0.108494
0.106375
0.104024
0.114597
0.114435
0.114002
0.113299
0.112326
0.111089
0.10959
0.107837
0.105842
0.103624
0.113043
0.112946
0.112587
0.111967
0.11109
0.109957
0.108573
0.106946
0.105086
0.103012
0.111189
0.111164
0.11089
0.110365
0.109592
0.108575
0.107317
0.105826
0.104112
0.102194
0.109042
0.109101
0.10892
0.108499
0.107842
0.106949
0.105827
0.104483
0.102927
0.101176
0.106619
0.106768
0.10669
0.106382
0.105849
0.105092
0.104116
0.102929
0.101541
0.0999684
0.103945
0.10419
0.10422
0.104034
0.103633
0.10302
0.1022
0.10118
0.0999706
0.0985892
0.103885
0.10362
0.103091
0.102301
0.101253
0.0999572
0.0984225
0.0966646
0.0947053
0.0925754
0.103621
0.103375
0.102873
0.10212
0.101118
0.0998762
0.0984029
0.0967127
0.0948255
0.0927696
0.103092
0.102874
0.10241
0.101703
0.100757
0.099579
0.0981775
0.096566
0.0947629
0.092794
0.102302
0.102121
0.101704
0.101053
0.100172
0.0990675
0.0977479
0.0962255
0.0945175
0.0926479
0.101256
0.101121
0.100759
0.100173
0.0993665
0.0983451
0.0971171
0.0956939
0.0940916
0.0923326
0.0999612
0.0998799
0.0995821
0.0990698
0.0983463
0.0974172
0.0962901
0.0949759
0.0934895
0.0918518
0.0984282
0.0984082
0.0981822
0.0977517
0.0971198
0.0962916
0.0952744
0.0940783
0.0927174
0.0912112
0.0966722
0.0967198
0.0965725
0.0962312
0.0956985
0.0949791
0.09408
0.0930108
0.0917845
0.0904193
0.0947152
0.0948348
0.0947715
0.0945252
0.0940982
0.0934947
0.0927211
0.0917865
0.090703
0.0894877
0.0925878
0.0927813
0.092805
0.0926578
0.0923415
0.0918593
0.0912172
0.0904234
0.0894899
0.0884335
0.0918487
0.0916255
0.0911793
0.090514
0.089635
0.08855
0.0872696
0.085808
0.0841836
0.0824201
0.0916257
0.0914183
0.090996
0.0903621
0.0895218
0.0884822
0.0872532
0.0858478
0.0842831
0.0825808
0.0911801
0.0909965
0.0906061
0.0900121
0.0892192
0.0882339
0.0870655
0.085726
0.084231
0.0826008
0.0905156
0.0903634
0.0900129
0.0894668
0.0887295
0.087807
0.0867078
0.0854432
0.0840274
0.0824792
0.0896376
0.0895241
0.089221
0.0887305
0.0880566
0.0872049
0.0861833
0.085002
0.0836742
0.0822174
0.088554
0.0884859
0.088237
0.0878093
0.0872061
0.0864328
0.0854964
0.0844064
0.0831749
0.0818179
0.0872752
0.0872584
0.0870701
0.0867116
0.086186
0.0854979
0.0846538
0.0836624
0.0825347
0.0812853
0.0858156
0.0858549
0.0857324
0.0854487
0.0850064
0.0844096
0.0836641
0.0827777
0.0817604
0.0806255
0.0841934
0.0842923
0.0842395
0.084035
0.0836807
0.0831801
0.0825383
0.0817624
0.0808613
0.0798471
0.0824323
0.0825924
0.0826116
0.0824891
0.0822261
0.0818253
0.0812911
0.0806297
0.0798492
0.0789616
0.081331
0.0811415
0.0807629
0.0801984
0.0794525
0.0785314
0.0774431
0.0761974
0.0748059
0.0732817
0.0811418
0.0809658
0.0806074
0.0800695
0.0793565
0.0784739
0.0774292
0.0762314
0.0748913
0.0734213
0.0807637
0.0806079
0.0802766
0.0797726
0.0790996
0.0782629
0.0772693
0.0761272
0.0748463
0.0734383
0.0801999
0.0800708
0.0797733
0.0793099
0.0786839
0.0779
0.0769646
0.0758852
0.0746709
0.0733323
0.0794551
0.0793588
0.0791014
0.0786848
0.0781122
0.0773878
0.0765172
0.0755073
0.0743662
0.0731038
0.0785353
0.0784775
0.0782659
0.0779023
0.0773891
0.0767301
0.0759305
0.0749962
0.0739345
0.0727545
0.0774486
0.0774343
0.0772738
0.0769683
0.0765199
0.0759319
0.0752086
0.0743555
0.0733788
0.0722868
0.0762048
0.0762383
0.0761334
0.0758907
0.0755117
0.0749993
0.0743571
0.0735899
0.0727031
0.0717039
0.0748154
0.0749003
0.0748546
0.0746783
0.0743726
0.0739396
0.0733824
0.072705
0.0719121
0.0710099
0.0732937
0.0734327
0.0734489
0.0733419
0.0731123
0.0727618
0.0722925
0.0717079
0.071012
0.0702111
0.0721032
0.0719409
0.0716165
0.0711325
0.0704919
0.0696991
0.0687591
0.0676776
0.0664605
0.0651134
0.0719412
0.0717904
0.0714832
0.0710219
0.0704094
0.0696495
0.068747
0.0677072
0.0665356
0.0652375
0.0716173
0.0714837
0.0711996
0.070767
0.0701884
0.0694675
0.0686086
0.0676164
0.066496
0.0652525
0.071134
0.0710231
0.0707677
0.0703694
0.0698305
0.0691542
0.0683444
0.0674054
0.0663417
0.0651581
0.0704944
0.0704116
0.0701901
0.0698315
0.0693376
0.0687112
0.0679558
0.0670752
0.0660733
0.0649545
0.0697029
0.0696529
0.0694704
0.0691564
0.0687124
0.0681409
0.0674448
0.0666273
0.0656919
0.0646426
0.0687644
0.0687519
0.0686129
0.068348
0.0679584
0.0674462
0.0668137
0.0660637
0.0651991
0.0642233
0.0676847
0.0677138
0.0676224
0.0674106
0.0670794
0.0666303
0.0660654
0.0653867
0.0645964
0.0636978
0.0664697
0.0665442
0.066504
0.0663488
0.0660794
0.0656968
0.0652025
0.0645983
0.0638857
0.0630676
0.065125
0.0652485
0.0652627
0.0651674
0.0649628
0.0646496
0.0642288
0.0637017
0.0630696
0.0623353
0.063981
0.0638411
0.0635611
0.0631429
0.0625886
0.061901
0.0610832
0.0601386
0.0590701
0.0578801
0.0638413
0.0637112
0.063446
0.0630473
0.0625171
0.061858
0.0610728
0.0601646
0.0591363
0.0579901
0.0635618
0.0634465
0.063201
0.0628268
0.0623257
0.0616999
0.0609521
0.0600851
0.0591015
0.0580034
0.0631443
0.0630485
0.0628275
0.0624826
0.0620152
0.0614275
0.0607217
0.0599003
0.0589656
0.0579198
0.062591
0.0625192
0.0623273
0.0620162
0.0615871
0.0610418
0.0603823
0.0596108
0.0587291
0.0577394
0.0619046