/*--------------------------------*- C++ -*----------------------------------*\
| =========                 |                                                 |
| \\      /  F ield         | foam-extend: Open Source CFD                    |
|  \\    /   O peration     | Version:     3.1                                |
|   \\  /    A nd           | Web:         http://www.extend-project.de       |
|    \\/     M anipulation  |                                                 |
\*---------------------------------------------------------------------------*/
FoamFile
{
    version     2.0;
    format      ascii;
    class       surfaceScalarField;
    location    "0.0019";
    object      phi;
}
// * * * * * * * * * * * * * * * * * * * * * * * * * * * * * * * * * * * * * //

dimensions      [0 3 -1 0 0 0 0];

internalField   nonuniform List<scalar> 
45800
(
-2.31366e-10
-2.32063e-10
3.17118e-08
-4.46612e-10
-2.28149e-10
3.11711e-08
-6.4077e-10
-2.19534e-10
3.06455e-08
-8.14759e-10
-2.08979e-10
3.01426e-08
-9.70023e-10
-1.97528e-10
2.96633e-08
-1.10723e-09
-1.85461e-10
2.92066e-08
-1.22617e-09
-1.73139e-10
2.87723e-08
-1.32531e-09
-1.61122e-10
2.83607e-08
-1.40075e-09
-1.50523e-10
2.79727e-08
-1.42659e-10
2.76093e-08
-1.44361e-09
-2.27458e-10
-4.46958e-10
3.117e-08
-4.42201e-10
-4.42915e-10
3.06335e-08
-6.38319e-10
-4.30605e-10
3.01112e-08
-8.1449e-10
-4.13327e-10
2.96069e-08
-9.71346e-10
-3.93718e-10
2.91235e-08
-1.10958e-09
-3.72876e-10
2.86616e-08
-1.2291e-09
-3.51498e-10
2.82207e-08
-1.32869e-09
-3.30568e-10
2.78011e-08
-1.40529e-09
-3.11752e-10
2.74032e-08
-2.97866e-10
2.70264e-08
-1.44949e-09
-2.19216e-10
-6.40515e-10
3.06446e-08
-4.2987e-10
-6.38424e-10
3.01101e-08
-6.25836e-10
-6.26437e-10
2.95906e-08
-8.03747e-10
-6.06532e-10
2.90861e-08
-9.62442e-10
-5.81918e-10
2.85987e-08
-1.10215e-09
-5.55002e-10
2.81306e-08
-1.22292e-09
-5.2712e-10
2.76823e-08
-1.32374e-09
-4.99459e-10
2.72535e-08
-1.40232e-09
-4.74196e-10
2.68449e-08
-4.56037e-10
2.64559e-08
-1.44982e-09
-2.09011e-10
-8.14292e-10
3.01425e-08
-4.13046e-10
-8.14144e-10
2.96061e-08
-6.05888e-10
-8.03817e-10
2.90852e-08
-7.83471e-10
-7.84034e-10
2.85794e-08
-9.43182e-10
-7.57224e-10
2.80884e-08
-1.08396e-09
-7.2614e-10
2.76137e-08
-1.20559e-09
-6.93178e-10
2.7157e-08
-1.30736e-09
-6.60064e-10
2.67186e-08
-1.38778e-09
-6.2925e-10
2.62992e-08
-6.07857e-10
2.58991e-08
-1.43903e-09
-1.97626e-10
-9.69519e-10
2.96633e-08
-3.93806e-10
-9.70903e-10
2.91234e-08
-5.81698e-10
-9.62171e-10
2.8598e-08
-7.56608e-10
-9.43318e-10
2.80876e-08
-9.15509e-10
-9.16144e-10
2.75921e-08
-1.05643e-09
-8.82606e-10
2.71111e-08
-1.17819e-09
-8.45213e-10
2.66453e-08
-1.28007e-09
-8.06659e-10
2.61962e-08
-1.36151e-09
-7.70074e-10
2.57654e-08
-7.45593e-10
2.53549e-08
-1.41602e-09
-1.85547e-10
-1.10673e-09
2.92067e-08
-3.73042e-10
-1.10913e-09
2.86616e-08
-5.55126e-10
-1.1018e-09
2.81305e-08
-7.25954e-10
-1.08381e-09
2.76131e-08
-8.8192e-10
-1.05674e-09
2.71103e-08
-1.02103e-09
-1.02192e-09
2.66223e-08
-1.14159e-09
-9.80782e-10
2.6148e-08
-1.24222e-09
-9.35938e-10
2.56875e-08
-1.32302e-09
-8.91571e-10
2.52439e-08
-8.62417e-10
2.48226e-08
-1.37956e-09
-1.7322e-10
-1.2257e-09
2.87724e-08
-3.51654e-10
-1.22869e-09
2.82208e-08
-5.27344e-10
-1.2226e-09
2.76824e-08
-6.9341e-10
-1.20537e-09
2.71569e-08
-8.45077e-10
-1.17814e-09
2.66446e-08
-9.7985e-10
-1.14199e-09
2.61467e-08
-1.09646e-09
-1.09742e-09
2.5663e-08
-1.19333e-09
-1.04548e-09
2.51917e-08
-1.27076e-09
-9.89814e-10
2.47342e-08
-9.51497e-10
2.43014e-08
-1.32737e-09
-1.61198e-10
-1.32492e-09
2.83608e-08
-3.30713e-10
-1.32835e-09
2.78012e-08
-4.99679e-10
-1.32347e-09
2.72537e-08
-6.60391e-10
-1.30716e-09
2.67187e-08
-8.06995e-10
-1.2799e-09
2.61961e-08
-9.35617e-10
-1.24211e-09
2.56863e-08
-1.04456e-09
-1.19354e-09
2.51904e-08
-1.1327e-09
-1.13327e-09
2.47067e-08
-1.20151e-09
-1.06223e-09
2.42352e-08
-1.00594e-09
2.37902e-08
-1.25498e-09
-1.50585e-10
-1.40048e-09
2.79729e-08
-3.11869e-10
-1.40505e-09
2.74034e-08
-4.74365e-10
-1.40214e-09
2.68451e-08
-6.29479e-10
-1.38767e-09
2.62993e-08
-7.70375e-10
-1.36141e-09
2.57656e-08
-8.91635e-10
-1.32289e-09
2.52436e-08
-9.89448e-10
-1.27068e-09
2.47335e-08
-1.06175e-09
-1.20167e-09
2.42347e-08
-1.11156e-09
-1.11189e-09
2.37478e-08
-1.02186e-09
2.3288e-08
-1.15382e-09
-1.42702e-10
2.76094e-08
-1.44344e-09
-2.97945e-10
2.70265e-08
-1.44936e-09
-4.56145e-10
2.64561e-08
-1.44974e-09
-6.07985e-10
2.58992e-08
-1.43899e-09
-7.45721e-10
2.53549e-08
-1.41601e-09
-8.62489e-10
2.48227e-08
-1.37956e-09
-9.51493e-10
2.43014e-08
-1.32738e-09
-1.00581e-09
2.379e-08
-1.25503e-09
-1.0216e-09
2.32876e-08
-1.15393e-09
2.28074e-08
-1.02307e-09
-1.02323e-09
-1.92472e-10
-1.93123e-10
3.20974e-08
-3.70826e-10
-1.9065e-10
3.15401e-08
-5.30698e-10
-1.84755e-10
3.09902e-08
-6.73151e-10
-1.77975e-10
3.04631e-08
-7.99475e-10
-1.71112e-10
2.99607e-08
-9.09782e-10
-1.64241e-10
2.94811e-08
-1.00273e-09
-1.57436e-10
2.90227e-08
-1.07496e-09
-1.50787e-10
2.85837e-08
-1.12026e-09
-1.44309e-10
2.81623e-08
-1.37299e-10
2.77542e-08
-1.12786e-09
-1.9e-10
-3.71109e-10
3.1538e-08
-3.68732e-10
-3.69369e-10
3.0991e-08
-5.31175e-10
-3.61444e-10
3.04503e-08
-6.7636e-10
-3.50282e-10
2.99244e-08
-8.04905e-10
-3.38111e-10
2.94191e-08
-9.17005e-10
-3.25724e-10
2.89352e-08
-1.01152e-09
-3.13365e-10
2.84712e-08
-1.08536e-09
-3.01253e-10
2.80254e-08
-1.13294e-09
-2.89192e-10
2.75957e-08
-2.75213e-10
2.71751e-08
-1.14377e-09
-1.84462e-10
-5.30385e-10
3.09883e-08
-3.60771e-10
-5.31195e-10
3.04483e-08
-5.24175e-10
-5.24674e-10
2.99172e-08
-6.71888e-10
-5.12445e-10
2.9396e-08
-8.02891e-10
-4.97157e-10
2.88887e-08
-9.16992e-10
-4.80836e-10
2.83998e-08
-1.01316e-09
-4.64295e-10
2.79294e-08
-1.08842e-09
-4.4776e-10
2.74753e-08
-1.1377e-09
-4.30916e-10
2.70359e-08
-4.10788e-10
2.66052e-08
-1.15138e-09
-1.78031e-10
-6.72621e-10
3.04627e-08
-3.50047e-10
-6.75939e-10
2.99229e-08
-5.11884e-10
-6.71848e-10
2.93942e-08
-6.60372e-10
-6.60808e-10
2.88762e-08
-7.93141e-10
-6.44651e-10
2.83687e-08
-9.08776e-10
-6.25678e-10
2.78742e-08
-1.00595e-09
-6.05729e-10
2.73956e-08
-1.08182e-09
-5.85485e-10
2.69322e-08
-1.13186e-09
-5.64382e-10
2.64827e-08
-5.38666e-10
2.60428e-08
-1.14775e-09
-1.71236e-10
-7.98903e-10
2.99608e-08
-3.3825e-10
-8.04386e-10
2.94189e-08
-4.97007e-10
-8.02518e-10
2.88874e-08
-6.44144e-10
-7.93133e-10
2.83671e-08
-7.77045e-10
-7.77514e-10
2.78579e-08
-8.93377e-10
-7.5725e-10
2.7359e-08
-9.90774e-10
-7.34293e-10
2.68713e-08
-1.06622e-09
-7.10286e-10
2.63965e-08
-1.11575e-09
-6.84982e-10
2.59356e-08
-6.5396e-10
2.54871e-08
-1.13271e-09
-1.64352e-10
-9.09205e-10
2.94813e-08
-3.25945e-10
-9.16479e-10
2.89353e-08
-4.81037e-10
-9.16546e-10
2.83996e-08
-6.25586e-10
-9.08494e-10
2.7873e-08
-7.56703e-10
-8.9349e-10
2.73574e-08
-8.72102e-10
-8.72776e-10
2.68532e-08
-9.68738e-10
-8.47487e-10
2.63578e-08
-1.04264e-09
-8.19347e-10
2.58705e-08
-1.08996e-09
-7.88963e-10
2.53952e-08
-7.52251e-10
2.49371e-08
-1.10621e-09
-1.57541e-10
-1.00219e-09
2.90229e-08
-3.13573e-10
-1.01102e-09
2.84714e-08
-4.64601e-10
-1.01273e-09
2.79296e-08
-6.06063e-10
-1.0056e-09
2.73955e-08
-7.34265e-10
-9.90543e-10
2.68698e-08
-8.46706e-10
-9.68876e-10
2.63552e-08
-9.40768e-10
-9.41474e-10
2.58511e-08
-1.01169e-09
-9.09229e-10
2.53525e-08
-1.05477e-09
-8.72563e-10
2.48609e-08
-8.29029e-10
2.43912e-08
-1.06778e-09
-1.50886e-10
-1.0745e-09
2.8584e-08
-3.01449e-10
-1.08494e-09
2.80257e-08
-4.4806e-10
-1.08804e-09
2.74756e-08
-5.8592e-10
-1.08148e-09
2.69324e-08
-7.1074e-10
-1.06586e-09
2.63962e-08
-8.1912e-10
-1.04226e-09
2.58681e-08
-9.08454e-10
-1.01159e-09
2.53498e-08
-9.74046e-10
-9.74381e-10
2.48374e-08
-1.01039e-09
-9.30535e-10
2.43296e-08
-8.79344e-10
2.38465e-08
-1.0164e-09
-1.44396e-10
-1.11991e-09
2.81627e-08
-2.89363e-10
-1.13262e-09
2.7596e-08
-4.31167e-10
-1.13741e-09
2.70363e-08
-5.64718e-10
-1.13158e-09
2.64829e-08
-6.85411e-10
-1.11545e-09
2.59359e-08
-7.89137e-10
-1.0896e-09
2.53947e-08
-8.72296e-10
-1.05443e-09
2.48595e-08
-9.30191e-10
-1.0103e-09
2.43285e-08
-9.57076e-10
-9.57233e-10
2.38014e-08
-8.97317e-10
2.32988e-08
-9.49859e-10
-1.37369e-10
2.77545e-08
-1.12762e-09
-2.75347e-10
2.71754e-08
-1.14356e-09
-4.10977e-10
2.66055e-08
-1.15119e-09
-5.38896e-10
2.60431e-08
-1.14757e-09
-6.54205e-10
2.54873e-08
-1.13252e-09
-7.52436e-10
2.49373e-08
-1.10602e-09
-8.29131e-10
2.43912e-08
-1.06759e-09
-8.79303e-10
2.38461e-08
-1.01626e-09
-8.97137e-10
2.3298e-08
-9.49785e-10
2.27642e-08
-8.75591e-10
-8.75634e-10
-1.00021e-10
-1.00571e-10
3.2298e-08
-1.9041e-10
-9.81232e-11
3.17286e-08
-2.67199e-10
-9.32025e-11
3.11602e-08
-3.31859e-10
-8.77974e-11
3.06155e-08
-3.86187e-10
-8.26272e-11
3.00977e-08
-4.3099e-10
-7.78091e-11
2.96037e-08
-4.65988e-10
-7.34793e-11
2.91312e-08
-4.89546e-10
-6.97932e-11
2.8677e-08
-4.98524e-10
-6.66391e-11
2.8238e-08
-6.14043e-11
2.78064e-08
-4.89347e-10
-9.75772e-11
-1.90575e-10
3.17256e-08
-1.88165e-10
-1.8865e-10
3.11721e-08
-2.67148e-10
-1.82344e-10
3.06184e-08
-3.34116e-10
-1.73676e-10
3.00772e-08
-3.90237e-10
-1.64676e-10
2.95572e-08
-4.36374e-10
-1.56157e-10
2.90596e-08
-4.72385e-10
-1.48459e-10
2.85822e-08
-4.9678e-10
-1.41894e-10
2.81219e-08
-5.06745e-10
-1.35958e-10
2.7675e-08
-1.2435e-10
2.72302e-08
-4.98897e-10
-9.29882e-11
-2.66787e-10
3.11575e-08
-1.81834e-10
-2.67038e-10
3.06155e-08
-2.62166e-10
-2.62487e-10
3.00777e-08
-3.31895e-10
-2.5355e-10
2.95456e-08
-3.90659e-10
-2.42652e-10
2.90255e-08
-4.38942e-10
-2.3179e-10
2.85237e-08
-4.76651e-10
-2.21881e-10
2.80406e-08
-5.02263e-10
-2.13272e-10
2.75723e-08
-5.1315e-10
-2.05163e-10
2.7116e-08
-1.8775e-10
2.66617e-08
-5.06237e-10
-8.79073e-11
-3.31228e-10
3.06151e-08
-1.73576e-10
-3.33579e-10
3.00751e-08
-2.53188e-10
-3.31695e-10
2.9543e-08
-3.24309e-10
-3.2453e-10
2.90183e-08
-3.85326e-10
-3.13745e-10
2.85008e-08
-4.35569e-10
-3.01655e-10
2.79943e-08
-4.7461e-10
-2.90208e-10
2.75029e-08
-5.00943e-10
-2.80204e-10
2.70255e-08
-5.12149e-10
-2.7044e-10
2.65591e-08
-2.47823e-10
2.60967e-08
-5.05908e-10
-8.28023e-11
-3.85501e-10
3.00979e-08
-1.64924e-10
-3.8959e-10
2.9557e-08
-2.42681e-10
-3.90127e-10
2.90236e-08
-3.13476e-10
-3.85111e-10
2.84984e-08
-3.7548e-10
-3.7569e-10
2.79818e-08
-4.27174e-10
-3.63595e-10
2.74727e-08
-4.67108e-10
-3.50982e-10
2.6972e-08
-4.93484e-10
-3.39618e-10
2.64823e-08
-5.0414e-10
-3.28448e-10
2.60042e-08
-3.01139e-10
2.55342e-08
-4.97886e-10
-7.79721e-11
-4.30292e-10
2.96041e-08
-1.56478e-10
-4.35712e-10
2.906e-08
-2.32146e-10
-4.38327e-10
2.85235e-08
-3.01785e-10
-4.35076e-10
2.79926e-08
-3.63329e-10
-4.27028e-10
2.74703e-08
-4.15315e-10
-4.15686e-10
2.69573e-08
-4.55632e-10
-4.02566e-10
2.64497e-08
-4.8143e-10
-3.89656e-10
2.59463e-08
-4.90296e-10
-3.76641e-10
2.54522e-08
-3.44786e-10
2.49731e-08
-4.82636e-10
-7.36345e-11
-4.65324e-10
2.91316e-08
-1.48766e-10
-4.71749e-10
2.85826e-08
-2.22331e-10
-4.76046e-10
2.80409e-08
-2.90733e-10
-4.74037e-10
2.75028e-08
-3.51206e-10
-4.66613e-10
2.69699e-08
-4.02099e-10
-4.55471e-10
2.64459e-08
-4.41678e-10
-4.42054e-10
2.59302e-08
-4.66153e-10
-4.27787e-10
2.54151e-08
-4.71712e-10
-4.12394e-10
2.49022e-08
-3.75988e-10
2.44109e-08
-4.6029e-10
-6.99402e-11
-4.88963e-10
2.86776e-08
-1.42185e-10
-4.96213e-10
2.81224e-08
-2.13709e-10
-5.01702e-10
2.75728e-08
-2.8081e-10
-5.00367e-10
2.70259e-08
-3.40274e-10
-4.92853e-10
2.6482e-08
-3.89686e-10
-4.80754e-10
2.59428e-08
-4.27322e-10
-4.65734e-10
2.54111e-08
-4.49205e-10
-4.49237e-10
2.48807e-08
-4.49871e-10
-4.31354e-10
2.43492e-08
-3.92034e-10
2.38434e-08
-4.30651e-10
-6.67731e-11
-4.98052e-10
2.82386e-08
-1.3622e-10
-5.06283e-10
2.76755e-08
-2.05545e-10
-5.12679e-10
2.71166e-08
-2.70938e-10
-5.11644e-10
2.65596e-08
-3.29054e-10
-5.03575e-10
2.60047e-08
-3.77009e-10
-4.89637e-10
2.54515e-08
-4.12362e-10
-4.71085e-10
2.49002e-08
-4.31257e-10
-4.49523e-10
2.43477e-08
-4.27046e-10
-4.26989e-10
2.37928e-08
-3.89711e-10
2.32624e-08
-3.92977e-10
-6.15188e-11
2.7807e-08
-4.88996e-10
-1.24569e-10
2.72308e-08
-4.98551e-10
-1.88058e-10
2.66622e-08
-5.05879e-10
-2.48201e-10
2.60971e-08
-5.05523e-10
-3.01546e-10
2.55346e-08
-4.97469e-10
-3.45135e-10
2.49735e-08
-4.82198e-10
-3.76258e-10
2.44111e-08
-4.59869e-10
-3.92156e-10
2.38428e-08
-4.30296e-10
-3.89674e-10
2.32613e-08
-3.92725e-10
2.26895e-08
-3.52393e-10
-3.52303e-10
2.28148e-11
2.23952e-11
3.22528e-08
4.86142e-11
2.48404e-11
3.16779e-08
8.06773e-11
2.85637e-11
3.10995e-08
1.16946e-10
3.23408e-11
3.05469e-08
1.54825e-10
3.55868e-11
3.00242e-08
1.92376e-10
3.81137e-11
2.95281e-08
2.2823e-10
3.96851e-11
2.90556e-08
2.61652e-10
4.00199e-11
2.86036e-08
2.9227e-10
3.91889e-11
2.81681e-08
4.01138e-11
2.77404e-08
3.18107e-10
2.52395e-11
4.85714e-11
3.16742e-08
5.12436e-11
5.09387e-11
3.112e-08
8.18608e-11
5.547e-11
3.05609e-08
1.16672e-10
6.13035e-11
3.00135e-08
1.53688e-10
6.67075e-11
2.94891e-08
1.90982e-10
7.08904e-11
2.89896e-08
2.27161e-10
7.33503e-11
2.85123e-08
2.61469e-10
7.35901e-11
2.8054e-08
2.9328e-10
7.21867e-11
2.76101e-08
7.66693e-11
2.7167e-08
3.19945e-10
2.86682e-11
8.11582e-11
3.10963e-08
5.57627e-11
8.20708e-11
3.05573e-08
8.48948e-11
8.47556e-11
3.00192e-08
1.17041e-10
9.01749e-11
2.94845e-08
1.51578e-10
9.61726e-11
2.89615e-08
1.86999e-10
1.00901e-10
2.84583e-08
2.21926e-10
1.03354e-10
2.79756e-08
2.55741e-10
1.0295e-10
2.75091e-08
2.87835e-10
1.00702e-10
2.70554e-08
1.08642e-10
2.6602e-08
3.15599e-10
3.21804e-11
1.17635e-10
3.05464e-08
6.12368e-11
1.17277e-10
3.00108e-08
9.03032e-11
1.17351e-10
2.94813e-08
1.20659e-10
1.20629e-10
2.89575e-08
1.52713e-10
1.25619e-10
2.84393e-08
1.86005e-10
1.30046e-10
2.79318e-08
2.19578e-10
1.31967e-10
2.74407e-08
2.52894e-10
1.30449e-10
2.69646e-08
2.85301e-10
1.27068e-10
2.65004e-08
1.38074e-10
2.60386e-08
3.13961e-10
3.53778e-11
1.55582e-10
3.00246e-08
6.63675e-11
1.54418e-10
2.94889e-08
9.59519e-11
1.52215e-10
2.89592e-08
1.25633e-10
1.53068e-10
2.84363e-08
1.56016e-10
1.56019e-10
2.7921e-08
1.87284e-10
1.59242e-10
2.74122e-08
2.19455e-10
1.60427e-10
2.69114e-08
2.52462e-10
1.57759e-10
2.6422e-08
2.85581e-10
1.53042e-10
2.59451e-08
1.66667e-10
2.54758e-08
3.15375e-10
3.79175e-11
1.93155e-10
2.95286e-08
7.05031e-11
1.91739e-10
2.89901e-08
1.00422e-10
1.87735e-10
2.8458e-08
1.29691e-10
1.86646e-10
2.79298e-08
1.59217e-10
1.87596e-10
2.74092e-08
1.89142e-10
1.89002e-10
2.68976e-08
2.19969e-10
1.89042e-10
2.63903e-08
2.52727e-10
1.8544e-10
2.58859e-08
2.87282e-10
1.79603e-10
2.53911e-08
1.95476e-10
2.49124e-08
3.19223e-10
3.94987e-11
2.28984e-10
2.90563e-08
7.29813e-11
2.27902e-10
2.85129e-08
1.02812e-10
2.22665e-10
2.79762e-08
1.31298e-10
2.20321e-10
2.74407e-08
1.59935e-10
2.20134e-10
2.69087e-08
1.89153e-10
2.20285e-10
2.63854e-08
2.19172e-10
2.19046e-10
2.58701e-08
2.51855e-10
2.14446e-10
2.53534e-08
2.88791e-10
2.0769e-10
2.48372e-08
2.25046e-10
2.43451e-08
3.25026e-10
3.98442e-11
2.62333e-10
2.86044e-08
7.32417e-11
2.62148e-10
2.80548e-08
1.02431e-10
2.56442e-10
2.75098e-08
1.29747e-10
2.53642e-10
2.69652e-08
1.56955e-10
2.53293e-10
2.64216e-08
1.85099e-10
2.53567e-10
2.58814e-08
2.14542e-10
2.52416e-10
2.53483e-08
2.47497e-10
2.47691e-10
2.48145e-08
2.87664e-10
2.3966e-10
2.42771e-08
2.551e-10
2.37686e-08
3.32371e-10
3.90272e-11
2.92844e-10
2.8169e-08
7.18705e-11
2.93857e-10
2.7611e-08
1.00244e-10
2.88446e-10
2.70562e-08
1.26479e-10
2.85974e-10
2.65011e-08
1.52345e-10
2.86333e-10
2.59458e-08
1.79078e-10
2.88121e-10
2.53902e-08
2.0745e-10
2.89572e-10
2.48346e-08
2.395e-10
2.88148e-10
2.42752e-08
2.80767e-10
2.8097e-10
2.37102e-08
2.85159e-10
2.3172e-08
3.41085e-10
3.99735e-11
2.77413e-08
3.18554e-10
7.64007e-11
2.71678e-08
3.20399e-10
1.08264e-10
2.66027e-08
3.16084e-10
1.37611e-10
2.60392e-08
3.14494e-10
1.66166e-10
2.54764e-08
3.15952e-10
1.95023e-10
2.49129e-08
3.19818e-10
2.24648e-10
2.43455e-08
3.2559e-10
2.54814e-10
2.37679e-08
3.32841e-10
2.85046e-10
2.31706e-08
3.41413e-10
2.25818e-08
3.38879e-10
3.39044e-10
1.63139e-10
1.62854e-10
3.19268e-08
3.21676e-10
1.65195e-10
3.13542e-08
4.77931e-10
1.67484e-10
3.07758e-08
6.29353e-10
1.69372e-10
3.02261e-08
7.72675e-10
1.70456e-10
2.97104e-08
9.04955e-10
1.70482e-10
2.92253e-08
1.02339e-09
1.69129e-10
2.87681e-08
1.12526e-09
1.66025e-10
2.83357e-08
1.20737e-09
1.61252e-10
2.79248e-08
1.58052e-10
2.75263e-08
1.26347e-09
1.65434e-10
3.21722e-10
3.13499e-08
3.24646e-10
3.245e-10
3.08015e-08
4.80369e-10
3.27019e-10
3.02457e-08
6.31359e-10
3.29641e-10
2.97022e-08
7.74933e-10
3.31054e-10
2.91849e-08
9.08244e-10
3.30564e-10
2.86962e-08
1.02858e-09
3.27535e-10
2.82336e-08
1.13329e-09
3.21353e-10
2.7794e-08
1.21894e-09
3.12753e-10
2.7373e-08
3.10398e-10
2.69557e-08
1.27791e-09
1.67471e-10
4.78421e-10
3.07721e-08
3.27094e-10
4.80612e-10
3.02416e-08
4.81373e-10
4.81365e-10
2.97106e-08
6.30029e-10
4.82992e-10
2.91825e-08
7.7152e-10
4.83678e-10
2.86673e-08
9.03483e-10
4.81886e-10
2.8175e-08
1.02328e-09
4.76639e-10
2.77067e-08
1.12847e-09
4.67199e-10
2.72581e-08
1.21581e-09
4.54902e-10
2.68259e-08
4.53796e-10
2.63964e-08
1.27794e-09
1.69179e-10
6.30032e-10
3.02256e-08
3.29418e-10
6.31954e-10
2.96993e-08
4.82903e-10
6.30356e-10
2.91789e-08
6.29588e-10
6.29676e-10
2.86641e-08
7.68604e-10
6.28619e-10
2.81553e-08
8.98481e-10
6.25058e-10
2.76588e-08
1.01713e-09
6.17255e-10
2.71815e-08
1.12228e-09
6.04332e-10
2.67224e-08
1.21078e-09
5.88357e-10
2.62784e-08
5.8839e-10
2.58393e-08
1.2755e-09
1.70242e-10
7.73428e-10
2.97109e-08
3.30666e-10
7.75671e-10
2.91847e-08
4.83295e-10
7.72167e-10
2.86647e-08
6.28415e-10
7.68979e-10
2.81519e-08
7.65309e-10
7.65421e-10
2.76473e-08
8.92819e-10
7.59664e-10
2.71501e-08
1.00973e-09
7.49368e-10
2.66623e-08
1.11452e-09
7.32929e-10
2.61886e-08
1.20414e-09
7.13175e-10
2.57307e-08
7.14037e-10
2.5283e-08
1.27133e-09
1.70282e-10
9.05739e-10
2.9226e-08
3.30169e-10
9.09016e-10
2.86968e-08
4.81351e-10
9.04248e-10
2.81748e-08
6.24522e-10
8.99154e-10
2.76564e-08
7.594e-10
8.93142e-10
2.71466e-08
8.84798e-10
8.84746e-10
2.66471e-08
9.99655e-10
8.71966e-10
2.61528e-08
1.10355e-09
8.52354e-10
2.56625e-08
1.19447e-09
8.28806e-10
2.51846e-08
8.29908e-10
2.47262e-08
1.26479e-09
1.6894e-10
1.02416e-09
2.87689e-08
3.27162e-10
1.02934e-09
2.82344e-08
4.76088e-10
1.02405e-09
2.77074e-08
6.1653e-10
1.01793e-09
2.71814e-08
7.48652e-10
1.01045e-09
2.66593e-08
8.71753e-10
9.99912e-10
2.61471e-08
9.84613e-10
9.84582e-10
2.56447e-08
1.08731e-09
9.62023e-10
2.51411e-08
1.17982e-09
9.34626e-10
2.46388e-08
9.34382e-10
2.41653e-08
1.25516e-09
1.6585e-10
1.12596e-09
2.83368e-08
3.21007e-10
1.134e-09
2.77949e-08
4.66687e-10
1.12921e-09
2.7259e-08
6.03648e-10
1.12307e-09
2.67231e-08
7.32088e-10
1.11541e-09
2.61882e-08
8.51719e-10
1.10435e-09
2.56573e-08
9.61769e-10
1.08777e-09
2.51351e-08
1.06277e-09
1.06304e-09
2.46125e-08
1.15699e-09
1.03106e-09
2.40864e-08
1.0244e-09
2.35941e-08
1.24147e-09
1.61093e-10
1.20798e-09
2.79259e-08
3.12443e-10
1.21955e-09
2.73741e-08
4.54454e-10
1.21646e-09
2.68269e-08
5.87791e-10
1.2115e-09
2.62793e-08
7.12529e-10
1.20493e-09
2.57315e-08
8.28227e-10
1.19531e-09
2.51836e-08
9.34149e-10
1.18055e-09
2.46359e-08
1.0307e-09
1.15743e-09
2.40843e-08
1.12249e-09
1.12272e-09
2.35268e-08
1.09603e-09
2.29999e-08
1.22292e-09
1.57916e-10
2.75274e-08
1.26396e-09
3.10139e-10
2.69567e-08
1.2784e-09
4.53431e-10
2.63974e-08
1.27847e-09
5.87946e-10
2.58401e-08
1.27607e-09
7.1356e-10
2.52838e-08
1.27193e-09
8.29466e-10
2.47269e-08
1.2654e-09
9.33953e-10
2.41658e-08
1.25572e-09
1.02401e-09
2.35934e-08
1.24192e-09
1.09582e-09
2.29983e-08
1.22319e-09
2.24132e-08
1.18012e-09
1.18028e-09
3.18847e-10
3.18683e-10
3.12893e-08
6.2509e-10
3.20931e-10
3.0727e-08
9.20248e-10
3.21853e-10
3.01588e-08
1.20171e-09
3.22034e-10
2.96226e-08
1.46602e-09
3.213e-10
2.91248e-08
1.7097e-09
3.19343e-10
2.86623e-08
1.92906e-09
3.15771e-10
2.82329e-08
2.12003e-09
3.10158e-10
2.78346e-08
2.27743e-09
3.02612e-10
2.74648e-08
2.96885e-10
2.71153e-08
2.39157e-09
3.21017e-10
6.2517e-10
3.07224e-08
6.28522e-10
6.28487e-10
3.01864e-08
9.24209e-10
6.29272e-10
2.96425e-08
1.20637e-09
6.29111e-10
2.9113e-08
1.47209e-09
6.27221e-10
2.86133e-08
1.71807e-09
6.23079e-10
2.81465e-08
1.94078e-09
6.1594e-10
2.77107e-08
2.1363e-09
6.05119e-10
2.73035e-08
2.29912e-09
5.91525e-10
2.69213e-08
5.85215e-10
2.65491e-08
2.41742e-09
3.21734e-10
9.2066e-10
3.01549e-08
6.29164e-10
9.24391e-10
2.96382e-08
9.23755e-10
9.23796e-10
2.91215e-08
1.20421e-09
9.22428e-10
2.86088e-08
1.46848e-09
9.18888e-10
2.81114e-08
1.71379e-09
9.12082e-10
2.76407e-08
1.93675e-09
9.01158e-10
2.71986e-08
2.13363e-09
8.85276e-10
2.67811e-08
2.29928e-09
8.6607e-10
2.63857e-08
8.59984e-10
2.59987e-08
2.42219e-09
3.21841e-10
1.20228e-09
2.96222e-08
6.28775e-10
1.20684e-09
2.91099e-08
9.22183e-10
1.20443e-09
2.86048e-08
1.2009e-09
1.20098e-09
2.81069e-08
1.46304e-09
1.19544e-09
2.76167e-08
1.70655e-09
1.18589e-09
2.71415e-08
1.92871e-09
1.17098e-09
2.66895e-08
2.12602e-09
1.14999e-09
2.62603e-08
2.2935e-09
1.12543e-09
2.58516e-08
1.11968e-09
2.54528e-08
2.42022e-09
3.21121e-10
1.46665e-09
2.91254e-08
6.26853e-10
1.47272e-09
2.86131e-08
9.18408e-10
1.469e-09
2.81086e-08
1.1951e-09
1.46327e-09
2.76129e-08
1.45513e-09
1.4552e-09
2.71275e-08
1.69628e-09
1.44301e-09
2.66518e-08
1.91658e-09
1.42442e-09
2.61886e-08
2.11356e-09
1.39819e-09
2.57434e-08
2.28248e-09
1.3682e-09
2.5319e-08
1.36254e-09
2.49099e-08
2.41266e-09
3.19178e-10
1.71036e-09
2.86631e-08
6.22754e-10
1.71873e-09
2.81472e-08
9.11587e-10
1.71445e-09
2.76405e-08
1.18526e-09
1.7071e-09
2.71389e-08
1.44261e-09
1.69642e-09
2.6648e-08
1.6814e-09
1.68124e-09
2.61701e-08
1.89927e-09
1.65945e-09
2.56999e-08
2.09485e-09
1.62842e-09
2.52367e-08
2.26488e-09
1.59259e-09
2.47902e-08
1.58611e-09
2.43685e-08
2.39895e-09
3.15619e-10
1.92972e-09
2.82339e-08
6.15637e-10
1.94144e-09
2.77117e-08
9.00706e-10
1.93742e-09
2.71994e-08
1.17031e-09
1.92941e-09
2.66895e-08
1.42357e-09
1.91715e-09
2.61853e-08
1.659e-09
1.89922e-09
2.56937e-08
1.87421e-09
1.87408e-09
2.52148e-08
2.06776e-09
1.8388e-09
2.47371e-08
2.23857e-09
1.79678e-09
2.42638e-08
1.78688e-09
2.38249e-08
2.37823e-09
3.10022e-10
2.12065e-09
2.78358e-08
6.04849e-10
2.13692e-09
2.73046e-08
8.84877e-10
2.13428e-09
2.67821e-08
1.14946e-09
2.12672e-09
2.62612e-08
1.39745e-09
2.11434e-09
2.5743e-08
1.62755e-09
2.09538e-09
2.5231e-08
1.83826e-09
2.06787e-09
2.47306e-08
2.0286e-09
2.02877e-09
2.42322e-08
2.19974e-09
1.97942e-09
2.37326e-08
1.95933e-09
2.32724e-08
2.34903e-09
3.02493e-10
2.27797e-09
2.74661e-08
5.91293e-10
2.29967e-09
2.69225e-08
8.65738e-10
2.29985e-09
2.63869e-08
1.12503e-09
2.29412e-09
2.58526e-08
1.36777e-09
2.28313e-09
2.532e-08
1.5921e-09
2.26552e-09
2.47891e-08
1.79614e-09
2.23906e-09
2.42607e-08
1.97895e-09
2.19994e-09
2.37303e-08
2.14444e-09
2.14456e-09
2.31961e-08
2.09639e-09
2.26974e-08
2.30986e-09
2.9679e-10
2.71166e-08
2.392e-09
5.85033e-10
2.65503e-08
2.41785e-09
8.5973e-10
2.59999e-08
2.42265e-09
1.11937e-09
2.54539e-08
2.42071e-09
1.36222e-09
2.49109e-08
2.41315e-09
1.58582e-09
2.43694e-08
2.39943e-09
1.78654e-09
2.38255e-08
2.37865e-09
1.95892e-09
2.32716e-08
2.34933e-09
2.09614e-09
2.26957e-08
2.30995e-09
2.21331e-08
2.23632e-09
2.23638e-09
4.86554e-10
4.86488e-10
3.03163e-08
9.52622e-10
4.88786e-10
2.97722e-08
1.39949e-09
4.88708e-10
2.92232e-08
1.82517e-09
4.87795e-10
2.87092e-08
2.22666e-09
4.86139e-10
2.82372e-08
2.60071e-09
4.83386e-10
2.78049e-08
2.94352e-09
4.79096e-10
2.7411e-08
3.25053e-09
4.72807e-10
2.70548e-08
3.5155e-09
4.64653e-10
2.67351e-08
4.59106e-10
2.64455e-08
3.72618e-09
4.88736e-10
9.52672e-10
2.97674e-08
9.56788e-10
9.56817e-10
2.92503e-08
1.40536e-09
9.56656e-10
2.8726e-08
1.8329e-09
9.54923e-10
2.82183e-08
2.2369e-09
9.51433e-10
2.7744e-08
2.61431e-09
9.45887e-10
2.73066e-08
2.96153e-09
9.37462e-10
2.69051e-08
3.27416e-09
9.25439e-10
2.65382e-08
3.54557e-09
9.10852e-10
2.62036e-08
9.05461e-10
2.58877e-08
3.7606e-09
4.88509e-10
1.39972e-09
2.92193e-08
9.56403e-10
1.40538e-09
2.87218e-08
1.40463e-09
1.40463e-09
2.82253e-08
1.83141e-09
1.40207e-09
2.77348e-08
2.23477e-09
1.39675e-09
2.72627e-08
2.61227e-09
1.38812e-09
2.6821e-08
2.9604e-09
1.37553e-09
2.64124e-08
3.27494e-09
1.35806e-09
2.60339e-08
3.54969e-09
1.33754e-09
2.56843e-08
1.33326e-09
2.53508e-08
3.7698e-09
4.8764e-10
1.8255e-09
2.87087e-08
9.54524e-10
1.83313e-09
2.82152e-08
1.40174e-09
1.83138e-09
2.77308e-08
1.82752e-09
1.82749e-09
2.72557e-08
2.22951e-09
1.82059e-09
2.67908e-08
2.60572e-09
1.80911e-09
2.63443e-08
2.95346e-09
1.79211e-09
2.59252e-08
3.26873e-09
1.76915e-09
2.5534e-08
3.5455e-09
1.743e-09
2.51693e-08
1.73995e-09
2.48219e-08
3.76978e-09
4.86036e-10
2.22705e-09
2.82379e-08
9.51153e-10
2.23729e-09
2.77438e-08
1.39626e-09
2.23503e-09
2.72599e-08
1.82022e-09
2.22945e-09
2.6787e-08
2.22071e-09
2.22059e-09
2.63271e-08
2.59499e-09
2.2068e-09
2.58799e-08
2.94093e-09
2.18585e-09
2.54489e-08
3.25585e-09
2.15694e-09
2.50407e-08
3.53405e-09
2.12486e-09
2.4659e-08
2.12271e-09
2.42991e-08
3.76207e-09
4.83295e-10
2.60114e-09
2.78057e-08
9.45709e-10
2.61473e-09
2.73074e-08
1.38777e-09
2.61268e-09
2.68208e-08
1.80849e-09
2.60598e-09
2.63417e-08
2.20637e-09
2.59476e-09
2.58759e-08
2.57865e-09
2.57822e-09
2.54264e-08
2.92218e-09
2.55417e-09
2.49881e-08
3.23527e-09
2.51972e-09
2.45609e-08
3.51416e-09
2.4807e-09
2.41554e-08
2.47795e-09
2.37812e-08
3.74626e-09
4.79017e-10
2.94396e-09
2.74121e-08
9.37303e-10
2.96196e-09
2.69061e-08
1.37528e-09
2.96084e-09
2.64132e-08
1.79163e-09
2.95393e-09
2.59252e-08
2.18495e-09
2.9412e-09
2.54455e-08
2.55357e-09
2.92162e-09
2.49817e-08
2.8944e-09
2.89401e-09
2.45341e-08
3.20491e-09
2.85478e-09
2.40916e-08
3.48364e-09
2.808e-09
2.36578e-08
2.8008e-09
2.32643e-08
3.72142e-09
4.72744e-10
3.25094e-09
2.70561e-08
9.25315e-10
3.27457e-09
2.65395e-08
1.35787e-09
3.27537e-09
2.6035e-08
1.7689e-09
3.26918e-09
2.5535e-08
2.15643e-09
3.25637e-09
2.50403e-08
2.5187e-09
3.23537e-09
2.4555e-08
2.85402e-09
3.20446e-09
2.40848e-08
3.16033e-09
3.16027e-09
2.36204e-08
3.43809e-09
3.10408e-09
2.31588e-08
3.08385e-09
2.27418e-08
3.6856e-09
4.64606e-10
3.51587e-09
2.67366e-08
9.10762e-10
3.54594e-09
2.6205e-08
1.33742e-09
3.55006e-09
2.56856e-08
1.74286e-09
3.54589e-09
2.51704e-08
2.12479e-09
3.53444e-09
2.466e-08
2.48041e-09
3.51448e-09
2.41544e-08
2.80726e-09
3.48373e-09
2.36546e-08
3.10356e-09
3.4379e-09
2.31564e-08
3.37283e-09
3.37273e-09
2.26582e-08
3.31742e-09
2.22003e-08
3.63644e-09
4.5908e-10
2.64469e-08
3.72648e-09
9.05413e-10
2.5889e-08
3.7609e-09
1.33319e-09
2.53521e-08
3.77009e-09
1.73989e-09
2.4823e-08
3.77008e-09
2.12267e-09
2.43002e-08
3.76235e-09
2.47793e-09
2.37821e-08
3.74649e-09
2.80065e-09
2.32649e-08
3.72159e-09
3.08348e-09
2.2741e-08
3.68564e-09
3.31717e-09
2.21985e-08
3.63626e-09
2.16733e-08
3.54721e-09
3.54712e-09
6.59605e-10
6.59592e-10
2.89971e-08
1.29166e-09
6.62149e-10
2.8478e-08
1.89786e-09
6.61691e-10
2.79553e-08
2.47763e-09
6.60628e-10
2.74688e-08
3.02933e-09
6.59315e-10
2.70262e-08
3.55081e-09
6.5739e-10
2.6626e-08
4.03915e-09
6.54395e-10
2.62683e-08
4.49036e-09
6.4987e-10
2.59537e-08
4.89844e-09
6.43982e-10
2.56831e-08
6.42085e-10
2.54521e-08
5.24975e-09
6.62006e-10
1.29161e-09
2.84734e-08
1.29693e-09
1.29695e-09
2.79806e-08
1.90606e-09
1.29695e-09
2.74816e-08
2.48878e-09
1.29537e-09
2.70008e-08
3.04391e-09
1.29265e-09
2.65555e-08
3.56944e-09
1.28875e-09
2.61497e-08
4.06267e-09
1.28282e-09
2.57835e-08
4.51974e-09
1.27416e-09
2.54569e-08
4.93414e-09
1.26389e-09
2.51693e-08
1.26568e-09
2.49095e-08
5.28872e-09
6.6144e-10
1.89786e-09
2.79516e-08
1.29663e-09
1.90586e-09
2.74777e-08
1.90656e-09
1.90645e-09
2.70059e-08
2.48977e-09
1.9051e-09
2.65419e-08
3.04521e-09
1.90133e-09
2.60986e-08
3.57157e-09
1.89518e-09
2.56882e-08
4.06615e-09
1.88625e-09
2.53144e-08
4.52518e-09
1.87361e-09
2.49754e-08
4.9426e-09
1.8592e-09
2.46716e-08
1.86541e-09
2.43922e-08
5.30149e-09
6.60527e-10
2.47768e-09
2.74684e-08
1.29496e-09
2.48872e-09
2.6998e-08
1.90475e-09
2.48944e-09
2.65381e-08
2.48828e-09
2.48805e-09
2.60892e-08
3.04351e-09
2.48397e-09
2.56529e-08
3.5693e-09
2.47593e-09
2.52377e-08
4.06391e-09
2.46353e-09
2.48533e-08
4.5237e-09
2.44663e-09
2.45012e-08
4.94274e-09
2.42813e-09
2.41814e-08
2.43863e-09
2.38863e-08
5.30507e-09
6.59303e-10
3.02942e-09
2.70268e-08
1.29249e-09
3.044e-09
2.65554e-08
1.90086e-09
3.04514e-09
2.60958e-08
2.48362e-09
3.04308e-09
2.56492e-08
3.03863e-09
3.03824e-09
2.52178e-08
3.56339e-09
3.02914e-09
2.48019e-08
4.05646e-09
3.01369e-09
2.44057e-08
4.51584e-09
2.99152e-09
2.40364e-08
4.93587e-09
2.96816e-09
2.36989e-08
2.98226e-09
2.33901e-08
5.30131e-09
6.57386e-10
3.55093e-09
2.66268e-08
1.28874e-09
3.56955e-09
2.61505e-08
1.89499e-09
3.57167e-09
2.5688e-08
2.47535e-09
3.56922e-09
2.52352e-08
3.02875e-09
3.56272e-09
2.47981e-08
3.55262e-09
3.55183e-09
2.43799e-08
4.04376e-09
3.53433e-09
2.39763e-08
4.501e-09
3.50708e-09
2.35881e-08
4.92106e-09
3.47697e-09
2.32265e-08
3.49239e-09
2.29021e-08
5.29004e-09
6.544e-10
4.03929e-09
2.62693e-08
1.28283e-09
4.0628e-09
2.57845e-08
1.88624e-09
4.06629e-09
2.53152e-08
2.46326e-09
4.06407e-09
2.48533e-08
3.01277e-09
4.05636e-09
2.44024e-08
3.53364e-09
4.0426e-09
2.39701e-08
4.02278e-09
4.02204e-09
2.35573e-08
4.47727e-09
3.99046e-09
2.31537e-08
4.89615e-09
3.95215e-09
2.27638e-08
3.96353e-09
2.24189e-08
5.27032e-09
6.49891e-10
4.49051e-09
2.5955e-08
1.2742e-09
4.51988e-09
2.54581e-08
1.87367e-09
4.52532e-09
2.49765e-08
2.44671e-09
4.52385e-09
2.45021e-08
2.99127e-09
4.51604e-09
2.40361e-08
3.50592e-09
4.50059e-09
2.35824e-08
3.9895e-09
4.47618e-09
2.31471e-08
4.4395e-09
4.43916e-09
2.27217e-08
4.85632e-09
4.39034e-09
2.23037e-08
4.38724e-09
2.19346e-08
5.23985e-09
6.44017e-10
4.89858e-09
2.56845e-08
1.26397e-09
4.93427e-09
2.51707e-08
1.85932e-09
4.94272e-09
2.46728e-08
2.42831e-09
4.94285e-09
2.41825e-08
2.96849e-09
4.93593e-09
2.36999e-08
3.47694e-09
4.92099e-09
2.32255e-08
3.95133e-09
4.89578e-09
2.27606e-08
4.38978e-09
4.85568e-09
2.23014e-08
4.79592e-09
4.79556e-09
2.18469e-08
4.75194e-09
2.14362e-08
5.19531e-09
6.42137e-10
2.54535e-08
5.24986e-09
1.26578e-09
2.49108e-08
5.28882e-09
1.86556e-09
2.43934e-08
5.30157e-09
2.43884e-09
2.38875e-08
5.30513e-09
2.98254e-09
2.33911e-08
5.30132e-09
3.49268e-09
2.2903e-08
5.28997e-09
3.9636e-09
2.24196e-08
5.2702e-09
4.38692e-09
2.19338e-08
5.2396e-09
4.75172e-09
2.14344e-08
5.19482e-09
2.09565e-08