/*--------------------------------*- C++ -*----------------------------------*\
| =========                 |                                                 |
| \\      /  F ield         | foam-extend: Open Source CFD                    |
|  \\    /   O peration     | Version:     3.1                                |
|   \\  /    A nd           | Web:         http://www.extend-project.de       |
|    \\/     M anipulation  |                                                 |
\*---------------------------------------------------------------------------*/
FoamFile
{
    version     2.0;
    format      ascii;
    class       surfaceScalarField;
    location    "0.0019";
    object      phi_0;
}
// * * * * * * * * * * * * * * * * * * * * * * * * * * * * * * * * * * * * * //

dimensions      [0 3 -1 0 0 0 0];

internalField   nonuniform List<scalar> 
45800
(
-2.21071e-10
-2.21732e-10
3.14402e-08
-4.26778e-10
-2.18024e-10
3.09079e-08
-6.1251e-10
-2.09761e-10
3.03944e-08
-7.7933e-10
-1.99664e-10
2.99068e-08
-9.28769e-10
-1.88741e-10
2.94454e-08
-1.06156e-09
-1.77253e-10
2.90093e-08
-1.17751e-09
-1.65538e-10
2.85978e-08
-1.27515e-09
-1.54127e-10
2.82107e-08
-1.35066e-09
-1.44044e-10
2.78486e-08
-1.36341e-10
2.75118e-08
-1.39562e-09
-2.17367e-10
-4.27077e-10
3.09068e-08
-4.22698e-10
-4.23359e-10
3.03783e-08
-6.10448e-10
-4.11644e-10
2.98674e-08
-7.79489e-10
-3.95197e-10
2.93776e-08
-9.30548e-10
-3.76583e-10
2.89114e-08
-1.06437e-09
-3.56855e-10
2.8469e-08
-1.1809e-09
-3.36673e-10
2.80498e-08
-1.27892e-09
-3.16968e-10
2.76535e-08
-1.35543e-09
-2.99267e-10
2.72803e-08
-2.85878e-10
2.69289e-08
-1.40135e-09
-2.09468e-10
-6.12207e-10
3.03935e-08
-4.10958e-10
-6.10501e-10
2.98664e-08
-5.98696e-10
-5.99237e-10
2.93573e-08
-7.6954e-10
-5.80415e-10
2.88663e-08
-9.22462e-10
-5.57155e-10
2.8395e-08
-1.05775e-09
-5.31796e-10
2.79453e-08
-1.17547e-09
-5.05619e-10
2.75174e-08
-1.27461e-09
-4.79754e-10
2.71107e-08
-1.35289e-09
-4.56189e-10
2.67253e-08
-4.38874e-10
2.63604e-08
-1.4018e-09
-1.99712e-10
-7.78809e-10
2.99066e-08
-3.94953e-10
-7.79089e-10
2.93768e-08
-5.79826e-10
-7.69552e-10
2.88654e-08
-7.50495e-10
-7.50996e-10
2.83719e-08
-9.04506e-10
-7.25785e-10
2.78958e-08
-1.04088e-09
-6.96597e-10
2.74382e-08
-1.15941e-09
-6.65765e-10
2.70004e-08
-1.2594e-09
-6.34945e-10
2.65825e-08
-1.33934e-09
-6.06367e-10
2.61848e-08
-5.86133e-10
2.58072e-08
-1.39172e-09
-1.88851e-10
-9.28208e-10
2.94455e-08
-3.76698e-10
-9.30048e-10
2.89113e-08
-5.56979e-10
-9.22133e-10
2.83944e-08
-7.25227e-10
-9.04582e-10
2.7895e-08
-8.78578e-10
-8.7915e-10
2.7413e-08
-1.01516e-09
-8.47746e-10
2.69476e-08
-1.13383e-09
-8.12823e-10
2.64991e-08
-1.23385e-09
-7.77e-10
2.60689e-08
-1.31466e-09
-7.43151e-10
2.56582e-08
-7.20116e-10
2.52684e-08
-1.37009e-09
-1.77351e-10
-1.06099e-09
2.90094e-08
-3.57043e-10
-1.06387e-09
2.84691e-08
-5.31952e-10
-1.05734e-09
2.79452e-08
-6.96457e-10
-1.04067e-09
2.74376e-08
-8.47119e-10
-1.01541e-09
2.69467e-08
-9.82042e-10
-9.82874e-10
2.64727e-08
-1.09958e-09
-9.44456e-10
2.6014e-08
-1.19836e-09
-9.02729e-10
2.55708e-08
-1.27845e-09
-8.61584e-10
2.51454e-08
-8.34178e-10
2.4743e-08
-1.33572e-09
-1.6563e-10
-1.17699e-09
2.85979e-08
-3.36848e-10
-1.18043e-09
2.80499e-08
-5.05871e-10
-1.17509e-09
2.75175e-08
-6.66032e-10
-1.15915e-09
2.70003e-08
-8.12733e-10
-1.13372e-09
2.64984e-08
-9.43583e-10
-1.09992e-09
2.60128e-08
-1.05735e-09
-1.05826e-09
2.55431e-08
-1.15247e-09
-1.00976e-09
2.5087e-08
-1.22922e-09
-9.57799e-10
2.46459e-08
-9.21596e-10
2.423e-08
-1.28643e-09
-1.54212e-10
-1.27471e-09
2.82109e-08
-3.17131e-10
-1.27853e-09
2.76537e-08
-4.79998e-10
-1.27429e-09
2.71108e-08
-6.35302e-10
-1.25915e-09
2.65827e-08
-7.77371e-10
-1.23362e-09
2.60688e-08
-9.02452e-10
-1.19819e-09
2.55696e-08
-1.0089e-09
-1.15263e-09
2.50857e-08
-1.09554e-09
-1.09606e-09
2.46154e-08
-1.16383e-09
-1.02917e-09
2.41584e-08
-9.75449e-10
2.37282e-08
-1.21785e-09
-1.44115e-10
-1.35034e-09
2.78488e-08
-2.994e-10
-1.35515e-09
2.72805e-08
-4.56381e-10
-1.35267e-09
2.67255e-08
-6.06624e-10
-1.33918e-09
2.6185e-08
-7.43481e-10
-1.31451e-09
2.56584e-08
-8.6168e-10
-1.27827e-09
2.51452e-08
-9.5747e-10
-1.2291e-09
2.46452e-08
-1.02873e-09
-1.16395e-09
2.41579e-08
-1.07836e-09
-1.07866e-09
2.36833e-08
-9.91562e-10
2.32361e-08
-1.12133e-09
-1.36391e-10
2.7512e-08
-1.39541e-09
-2.85971e-10
2.69291e-08
-1.40119e-09
-4.39002e-10
2.63605e-08
-1.40168e-09
-5.86284e-10
2.58073e-08
-1.39165e-09
-7.2027e-10
2.52685e-08
-1.37004e-09
-8.34276e-10
2.47431e-08
-1.33568e-09
-9.2162e-10
2.42301e-08
-1.2864e-09
-9.75354e-10
2.3728e-08
-1.21786e-09
-9.91328e-10
2.32357e-08
-1.12141e-09
2.27659e-08
-9.9357e-10
-9.93712e-10
-1.66471e-10
-1.67084e-10
3.17738e-08
-3.20256e-10
-1.64788e-10
3.12264e-08
-4.57354e-10
-1.59296e-10
3.06908e-08
-5.79029e-10
-1.53056e-10
3.01815e-08
-6.86751e-10
-1.46846e-10
2.97e-08
-7.80827e-10
-1.40743e-10
2.92442e-08
-8.60147e-10
-1.34827e-10
2.88119e-08
-9.21626e-10
-1.2919e-10
2.84014e-08
-9.59412e-10
-1.23827e-10
2.80102e-08
-1.17838e-10
2.76336e-08
-9.63389e-10
-1.64176e-10
-3.20493e-10
3.12244e-08
-3.18413e-10
-3.18997e-10
3.06867e-08
-4.58076e-10
-3.11726e-10
3.01595e-08
-5.82455e-10
-3.01518e-10
2.96504e-08
-6.92349e-10
-2.90537e-10
2.9165e-08
-7.88145e-10
-2.7956e-10
2.87036e-08
-8.68911e-10
-2.68839e-10
2.82646e-08
-9.31815e-10
-2.58596e-10
2.78458e-08
-9.71571e-10
-2.48602e-10
2.74448e-08
-2.36478e-10
2.70543e-08
-9.78322e-10
-1.59032e-10
-4.56993e-10
3.06891e-08
-3.11108e-10
-4.58045e-10
3.01575e-08
-4.51865e-10
-4.52304e-10
2.96386e-08
-5.78829e-10
-4.41298e-10
2.9133e-08
-6.91201e-10
-4.27612e-10
2.86444e-08
-7.88978e-10
-4.13228e-10
2.81768e-08
-8.71325e-10
-3.98954e-10
2.77299e-08
-9.35487e-10
-3.85023e-10
2.73012e-08
-9.76662e-10
-3.71073e-10
2.6889e-08
-3.53498e-10
2.64865e-08
-9.85792e-10
-1.53129e-10
-5.78446e-10
3.01812e-08
-3.01326e-10
-5.81981e-10
2.96489e-08
-4.408e-10
-5.78732e-10
2.91313e-08
-5.68706e-10
-5.69077e-10
2.86276e-08
-6.82939e-10
-5.54807e-10
2.81373e-08
-7.82292e-10
-5.38186e-10
2.76625e-08
-8.65621e-10
-5.21032e-10
2.72058e-08
-9.30292e-10
-5.04018e-10
2.67662e-08
-9.7198e-10
-4.86526e-10
2.6342e-08
-4.63941e-10
2.59285e-08
-9.82886e-10
-1.46983e-10
-6.86119e-10
2.97002e-08
-2.90705e-10
-6.91772e-10
2.91648e-08
-4.27513e-10
-6.90772e-10
2.86432e-08
-5.54366e-10
-6.82872e-10
2.81357e-08
-6.68924e-10
-6.69328e-10
2.76421e-08
-7.69089e-10
-6.51713e-10
2.71613e-08
-8.52691e-10
-6.31975e-10
2.66937e-08
-9.16889e-10
-6.11733e-10
2.62409e-08
-9.57892e-10
-5.90657e-10
2.58034e-08
-5.63243e-10
2.53793e-08
-9.69487e-10
-1.40866e-10
-7.80188e-10
2.92444e-08
-2.79803e-10
-7.87558e-10
2.87038e-08
-4.13465e-10
-7.88472e-10
2.81766e-08
-5.3815e-10
-7.81951e-10
2.76613e-08
-6.51235e-10
-7.69143e-10
2.71596e-08
-7.50671e-10
-7.51281e-10
2.66717e-08
-8.33631e-10
-7.29515e-10
2.61945e-08
-8.96316e-10
-7.05574e-10
2.57273e-08
-9.35013e-10
-6.7996e-10
2.52734e-08
-6.47256e-10
2.48376e-08
-9.45575e-10
-1.34942e-10
-8.59545e-10
2.88122e-08
-2.69067e-10
-8.68355e-10
2.82648e-08
-3.99289e-10
-8.70837e-10
2.77301e-08
-5.21406e-10
-8.6521e-10
2.72057e-08
-6.32005e-10
-8.524e-10
2.66923e-08
-7.28806e-10
-8.33716e-10
2.6192e-08
-8.094e-10
-8.10044e-10
2.57042e-08
-8.69218e-10
-7.82313e-10
2.52236e-08
-9.03643e-10
-7.50879e-10
2.47513e-08
-7.11732e-10
2.43016e-08
-9.10702e-10
-1.29298e-10
-9.21106e-10
2.84017e-08
-2.5881e-10
-9.31332e-10
2.78462e-08
-3.85348e-10
-9.35048e-10
2.73016e-08
-5.04484e-10
-9.29886e-10
2.67665e-08
-6.12225e-10
-9.16471e-10
2.62406e-08
-7.05405e-10
-8.95889e-10
2.57249e-08
-7.81606e-10
-8.69066e-10
2.52209e-08
-8.36304e-10
-8.36585e-10
2.47243e-08
-8.64063e-10
-7.98356e-10
2.42336e-08
-7.51994e-10
2.37683e-08
-8.63912e-10
-1.23923e-10
-9.59008e-10
2.80106e-08
-2.48789e-10
-9.71195e-10
2.74452e-08
-3.71347e-10
-9.76315e-10
2.68893e-08
-4.86889e-10
-9.71646e-10
2.63423e-08
-5.91115e-10
-9.57538e-10
2.58037e-08
-6.8017e-10
-9.34592e-10
2.52729e-08
-7.50662e-10
-9.03255e-10
2.47499e-08
-7.98063e-10
-8.6393e-10
2.42326e-08
-8.16658e-10
-8.16775e-10
2.37203e-08
-7.62441e-10
2.3233e-08
-8.03148e-10
-1.17916e-10
2.7634e-08
-9.63102e-10
-2.36626e-10
2.70546e-08
-9.78056e-10
-3.53706e-10
2.64868e-08
-9.85547e-10
-4.64196e-10
2.59288e-08
-9.8265e-10
-5.63515e-10
2.53795e-08
-9.69247e-10
-6.4747e-10
2.48378e-08
-9.45325e-10
-7.11866e-10
2.43017e-08
-9.10465e-10
-7.5199e-10
2.37679e-08
-8.63722e-10
-7.62297e-10
2.32323e-08
-8.03039e-10
2.27117e-08
-7.35261e-10
-7.35273e-10
-5.757e-11
-5.8082e-11
3.18894e-08
-1.07592e-10
-5.57741e-11
3.13322e-08
-1.46473e-10
-5.1232e-11
3.07809e-08
-1.75868e-10
-4.63289e-11
3.02572e-08
-1.9775e-10
-4.17554e-11
2.97637e-08
-2.13171e-10
-3.76376e-11
2.92972e-08
-2.22172e-10
-3.41293e-11
2.88551e-08
-2.23542e-10
-3.14083e-11
2.84341e-08
-2.14691e-10
-2.93846e-11
2.80307e-08
-2.53962e-11
2.76372e-08
-1.92881e-10
-5.52696e-11
-1.07715e-10
3.13293e-08
-1.05505e-10
-1.0594e-10
3.07871e-08
-1.4651e-10
-1.00225e-10
3.02495e-08
-1.78119e-10
-9.2445e-11
2.97281e-08
-2.0168e-10
-8.45562e-11
2.92313e-08
-2.18288e-10
-7.73531e-11
2.87599e-08
-2.28099e-10
-7.12082e-11
2.83115e-08
-2.30014e-10
-6.64701e-11
2.78828e-08
-2.21739e-10
-6.26687e-11
2.74698e-08
-5.33469e-11
2.70612e-08
-2.00724e-10
-5.10519e-11
-1.46019e-10
3.07784e-08
-9.97737e-11
-1.46357e-10
3.02466e-08
-1.42199e-10
-1.42464e-10
2.97233e-08
-1.76569e-10
-1.34637e-10
2.92096e-08
-2.0275e-10
-1.2524e-10
2.87113e-08
-2.21446e-10
-1.16218e-10
2.82343e-08
-2.32848e-10
-1.08497e-10
2.77786e-08
-2.35799e-10
-1.02478e-10
2.73402e-08
-2.28143e-10
-9.74066e-11
2.6916e-08
-8.31978e-11
2.64958e-08
-2.07565e-10
-4.64566e-11
-1.75189e-10
3.02568e-08
-9.23929e-11
-1.77536e-10
2.97261e-08
-1.34342e-10
-1.76323e-10
2.92071e-08
-1.70219e-10
-1.70381e-10
2.86992e-08
-1.98712e-10
-1.61346e-10
2.82019e-08
-2.19398e-10
-1.51515e-10
2.77185e-08
-2.32108e-10
-1.42815e-10
2.72528e-08
-2.35684e-10
-1.36078e-10
2.68034e-08
-2.28144e-10
-1.30159e-10
2.63672e-08
-1.11553e-10
2.59366e-08
-2.0784e-10
-4.19415e-11
-1.97011e-10
2.97639e-08
-8.48315e-11
-2.00981e-10
2.92311e-08
-1.25325e-10
-2.02169e-10
2.87096e-08
-1.6115e-10
-1.98449e-10
2.81996e-08
-1.90795e-10
-1.90947e-10
2.77013e-08
-2.1305e-10
-1.81405e-10
2.72134e-08
-2.2674e-10
-1.72005e-10
2.67366e-08
-2.30365e-10
-1.64531e-10
2.62729e-08
-2.22172e-10
-1.5794e-10
2.58229e-08
-1.35359e-10
2.53824e-08
-2.01551e-10
-3.78105e-11
-2.12416e-10
2.92976e-08
-7.76937e-11
-2.1757e-10
2.87603e-08
-1.16609e-10
-2.20775e-10
2.82341e-08
-1.51707e-10
-2.18852e-10
2.77168e-08
-1.81214e-10
-2.1286e-10
2.72111e-08
-2.03978e-10
-2.04296e-10
2.67174e-08
-2.18222e-10
-1.94735e-10
2.62315e-08
-2.214e-10
-1.86256e-10
2.57522e-08
-2.11435e-10
-1.78521e-10
2.5284e-08
-1.52068e-10
2.4832e-08
-1.89195e-10
-3.42932e-11
-2.21448e-10
2.88556e-08
-7.15321e-11
-2.27403e-10
2.83119e-08
-1.08972e-10
-2.32183e-10
2.7779e-08
-1.43379e-10
-2.31476e-10
2.72527e-08
-1.723e-10
-2.26191e-10
2.67345e-08
-1.94356e-10
-2.18028e-10
2.62278e-08
-2.08136e-10
-2.08458e-10
2.57317e-08
-2.10216e-10
-1.99046e-10
2.52385e-08
-1.97092e-10
-1.89571e-10
2.47492e-08
-1.59268e-10
2.42826e-08
-1.70972e-10
-3.15626e-11
-2.22896e-10
2.84347e-08
-6.67759e-11
-2.29386e-10
2.78833e-08
-1.02935e-10
-2.35178e-10
2.73407e-08
-1.36708e-10
-2.35047e-10
2.68038e-08
-1.65225e-10
-2.29673e-10
2.62726e-08
-1.86365e-10
-2.20679e-10
2.57487e-08
-1.98671e-10
-2.09765e-10
2.52345e-08
-1.98515e-10
-1.98493e-10
2.47236e-08
-1.80755e-10
-1.87091e-10
2.42134e-08
-1.54642e-10
2.37297e-08
-1.46795e-10
-2.95249e-11
-2.14156e-10
2.80314e-08
-6.2943e-11
-2.21215e-10
2.74704e-08
-9.78056e-11
-2.27611e-10
2.69166e-08
-1.30676e-10
-2.27578e-10
2.63677e-08
-1.58565e-10
-2.21548e-10
2.58234e-08
-1.78923e-10
-2.10721e-10
2.52833e-08
-1.89608e-10
-1.96419e-10
2.47472e-08
-1.87061e-10
-1.80369e-10
2.42119e-08
-1.64907e-10
-1.64808e-10
2.36758e-08
-1.35431e-10
2.3165e-08
-1.16091e-10
-2.55164e-11
2.76378e-08
-1.92466e-10
-5.35768e-11
2.70618e-08
-2.00314e-10
-8.35217e-11
2.64963e-08
-2.07145e-10
-1.1195e-10
2.5937e-08
-2.07395e-10
-1.35787e-10
2.53829e-08
-2.01075e-10
-1.52441e-10
2.48324e-08
-1.88702e-10
-1.59572e-10
2.42829e-08
-1.705e-10
-1.54812e-10
2.37292e-08
-1.46396e-10
-1.35443e-10
2.31639e-08
-1.15803e-10
2.26095e-08
-8.43939e-11
-8.42672e-11
8.08067e-11
8.04253e-11
3.17282e-08
1.62016e-10
8.27685e-11
3.11683e-08
2.46595e-10
8.61599e-11
3.06102e-08
3.32422e-10
8.95176e-11
3.00819e-08
4.16818e-10
9.22943e-11
2.9587e-08
4.97652e-10
9.42865e-11
2.91221e-08
5.73253e-10
9.52314e-11
2.86842e-08
6.42444e-10
9.48162e-11
2.82701e-08
7.04251e-10
9.30752e-11
2.78759e-08
9.30229e-11
2.74927e-08
7.55725e-10
8.31224e-11
1.62007e-10
3.11646e-08
1.6458e-10
1.64321e-10
3.06241e-08
2.47849e-10
1.68387e-10
3.0084e-08
3.32359e-10
1.73501e-10
2.95596e-08
4.16038e-10
1.78027e-10
2.90619e-08
4.96782e-10
1.81198e-10
2.85923e-08
5.7292e-10
1.82461e-10
2.81481e-08
6.4329e-10
1.81265e-10
2.7726e-08
7.06699e-10
1.7813e-10
2.73214e-08
1.80847e-10
2.69206e-08
7.59491e-10
8.62259e-11
2.47108e-10
3.06071e-08
1.68617e-10
2.48089e-10
3.00805e-08
2.50422e-10
2.50331e-10
2.95595e-08
3.32346e-10
2.54918e-10
2.90463e-08
4.13614e-10
2.5975e-10
2.85483e-08
4.92565e-10
2.6305e-10
2.80735e-08
5.67555e-10
2.63801e-10
2.76222e-08
6.37584e-10
2.61338e-10
2.71901e-08
7.01532e-10
2.56598e-10
2.67736e-08
2.62066e-10
2.63602e-08
7.55869e-10
8.93411e-11
3.33149e-10
3.00814e-08
1.73383e-10
3.32998e-10
2.95571e-08
2.54974e-10
3.32685e-10
2.90432e-08
3.35094e-10
3.35113e-10
2.85389e-08
4.13886e-10
3.38795e-10
2.8044e-08
4.90696e-10
3.41466e-10
2.75632e-08
5.64345e-10
3.41207e-10
2.71017e-08
6.33933e-10
3.37049e-10
2.66581e-08
6.98333e-10
3.30468e-10
2.62289e-08
3.38369e-10
2.58047e-08
7.53891e-10
9.20782e-11
4.17616e-10
2.95874e-08
1.77664e-10
4.1681e-10
2.90617e-08
2.5947e-10
4.14287e-10
2.85461e-08
3.38732e-10
4.14269e-10
2.80412e-08
4.15768e-10
4.15815e-10
2.75472e-08
4.90465e-10
4.1707e-10
2.70631e-08
5.62597e-10
4.15665e-10
2.659e-08
6.31815e-10
4.09763e-10
2.6131e-08
6.96953e-10
4.01154e-10
2.56871e-08
4.11089e-10
2.52528e-08
7.53873e-10
9.40841e-11
4.98478e-10
2.91226e-08
1.80799e-10
4.97586e-10
2.85928e-08
2.62541e-10
4.93347e-10
2.80733e-08
3.41041e-10
4.91376e-10
2.75612e-08
4.16963e-10
4.90798e-10
2.70602e-08
4.90151e-10
4.90041e-10
2.65712e-08
5.60748e-10
4.87192e-10
2.60894e-08
6.29505e-10
4.7981e-10
2.56134e-08
6.95961e-10
4.69343e-10
2.51494e-08
4.80907e-10
2.4703e-08
7.55167e-10
9.50398e-11
5.7406e-10
2.86849e-08
1.82081e-10
5.73713e-10
2.81487e-08
2.63243e-10
5.68346e-10
2.76228e-08
3.40503e-10
5.65141e-10
2.71017e-08
4.15087e-10
5.63319e-10
2.65874e-08
4.87198e-10
5.61063e-10
2.60847e-08
5.56715e-10
5.56626e-10
2.55927e-08
6.251e-10
5.47805e-10
2.51021e-08
6.93663e-10
5.35696e-10
2.46143e-08
5.47987e-10
2.4152e-08
7.57215e-10
9.46365e-11
6.43184e-10
2.8271e-08
1.80909e-10
6.44027e-10
2.77268e-08
2.6081e-10
6.38342e-10
2.71908e-08
3.36336e-10
6.34738e-10
2.66587e-08
4.08927e-10
6.32704e-10
2.61307e-08
4.79365e-10
6.30373e-10
2.5609e-08
5.47784e-10
6.25662e-10
2.50971e-08
6.16015e-10
6.16256e-10
2.4587e-08
6.87429e-10
6.02188e-10
2.40755e-08
6.11623e-10
2.35941e-08
7.59447e-10
9.29104e-11
7.04891e-10
2.78768e-08
1.77808e-10
7.0734e-10
2.73222e-08
2.56132e-10
7.02206e-10
2.67744e-08
3.29872e-10
6.99066e-10
2.62296e-08
4.00457e-10
6.97762e-10
2.56878e-08
4.68788e-10
6.96849e-10
2.51485e-08
5.35367e-10
6.94478e-10
2.46119e-08
6.01944e-10
6.87936e-10
2.40737e-08
6.73801e-10
6.74042e-10
2.35321e-08
6.7079e-10
2.30182e-08
7.61448e-10
9.28801e-11
2.74936e-08
7.56245e-10
1.80574e-10
2.69214e-08
7.60015e-10
2.61681e-10
2.6361e-08
7.56423e-10
3.37899e-10
2.58054e-08
7.54489e-10
4.10579e-10
2.52534e-08
7.54511e-10
4.80442e-10
2.47036e-08
7.55818e-10
5.47558e-10
2.41524e-08
7.5783e-10
6.11279e-10
2.35934e-08
7.59959e-10
6.70617e-10
2.30168e-08
7.61805e-10
2.245e-08
7.50361e-10
7.50563e-10
2.36155e-10
2.35906e-10
3.12561e-08
4.64764e-10
2.38217e-10
3.07014e-08
6.88035e-10
2.40301e-10
3.01466e-08
9.03585e-10
2.41978e-10
2.96244e-08
1.10827e-09
2.42892e-10
2.91394e-08
1.29915e-09
2.4277e-10
2.86885e-08
1.47325e-09
2.41257e-10
2.82689e-08
1.62752e-09
2.37947e-10
2.78779e-08
1.75828e-09
2.32875e-10
2.75122e-08
2.29473e-10
2.71632e-08
1.85826e-09
2.38409e-10
4.64836e-10
3.06973e-08
4.67825e-10
4.6772e-10
3.01652e-08
6.90783e-10
4.70053e-10
2.96313e-08
9.06095e-10
4.72364e-10
2.91139e-08
1.11121e-09
4.73462e-10
2.86262e-08
1.30326e-09
4.72685e-10
2.81703e-08
1.47941e-09
4.69337e-10
2.77439e-08
1.63673e-09
4.62736e-10
2.73439e-08
1.7713e-09
4.53549e-10
2.69661e-08
4.50904e-10
2.65961e-08
1.87441e-09
2.40247e-10
6.88542e-10
3.01431e-08
4.70062e-10
6.9104e-10
2.96273e-08
6.91753e-10
6.91784e-10
2.91161e-08
9.04933e-10
6.93195e-10
2.86123e-08
1.1081e-09
6.9352e-10
2.81251e-08
1.29891e-09
6.91312e-10
2.76641e-08
1.4746e-09
6.85591e-10
2.72303e-08
1.63246e-09
6.7552e-10
2.68195e-08
1.76883e-09
6.62328e-10
2.64285e-08
6.60852e-10
2.60438e-08
1.87532e-09
2.41772e-10
9.04286e-10
2.96239e-08
4.72088e-10
9.06707e-10
2.91111e-08
6.93033e-10
9.05269e-10
2.86088e-08
9.04412e-10
9.04533e-10
2.81162e-08
1.10523e-09
9.03196e-10
2.76335e-08
1.294e-09
8.99139e-10
2.71666e-08
1.46855e-09
8.90662e-10
2.67221e-08
1.62635e-09
8.76856e-10
2.62989e-08
1.76388e-09
8.59657e-10
2.5894e-08
8.59239e-10
2.54971e-08
1.87306e-09
2.42677e-10
1.10905e-09
2.91399e-08
4.73057e-10
1.11197e-09
2.86261e-08
6.93074e-10
1.10876e-09
2.81226e-08
9.02915e-10
1.10561e-09
2.76302e-08
1.10171e-09
1.10184e-09
2.71498e-08
1.28811e-09
1.09559e-09
2.66802e-08
1.46082e-09
1.08444e-09
2.62235e-08
1.61814e-09
1.06675e-09
2.57838e-08
1.75668e-09
1.04536e-09
2.53629e-08
1.04565e-09
2.49547e-08
1.86836e-09
2.42569e-10
1.29996e-09
2.86892e-08
4.72289e-10
1.30406e-09
2.8171e-08
6.90756e-10
1.29971e-09
2.76639e-08
8.9853e-10
1.29469e-09
2.71644e-08
1.09524e-09
1.28843e-09
2.66769e-08
1.27952e-09
1.27948e-09
2.6203e-08
1.45003e-09
1.26572e-09
2.57376e-08
1.60619e-09
1.24447e-09
2.52795e-08
1.74577e-09
1.2187e-09
2.48364e-08
1.21896e-09
2.44149e-08
1.86057e-09
2.41068e-10
1.47406e-09
2.82698e-08
4.68962e-10
1.48022e-09
2.77447e-08
6.85038e-10
1.47542e-09
2.7231e-08
8.8991e-10
1.46939e-09
2.67221e-08
1.08362e-09
1.46156e-09
2.62206e-08
1.26538e-09
1.45024e-09
2.57321e-08
1.43372e-09
1.4337e-09
2.52564e-08
1.58836e-09
1.40918e-09
2.47827e-08
1.72913e-09
1.37889e-09
2.43133e-08
1.37721e-09
2.3874e-08
1.84888e-09
2.37773e-10
1.62828e-09
2.7879e-08
4.62392e-10
1.63749e-09
2.73449e-08
6.75012e-10
1.63325e-09
2.68204e-08
8.76179e-10
1.6272e-09
2.62997e-08
1.06588e-09
1.61908e-09
2.57834e-08
1.24371e-09
1.60699e-09
2.52744e-08
1.40878e-09
1.58878e-09
2.47769e-08
1.5613e-09
1.5616e-09
2.4282e-08
1.7033e-09
1.526e-09
2.37864e-08
1.51692e-09
2.33256e-08
1.83209e-09
2.32718e-10
1.75895e-09
2.75134e-08
4.53243e-10
1.77198e-09
2.69672e-08
6.61887e-10
1.76955e-09
2.64295e-08
8.59103e-10
1.76465e-09
2.58949e-08
1.04474e-09
1.75752e-09
2.53637e-08
1.2181e-09
1.74665e-09
2.48355e-08
1.37831e-09
1.72988e-09
2.43105e-08
1.52554e-09
1.70373e-09
2.37843e-08
1.66428e-09
1.66453e-09
2.32549e-08
1.63357e-09
2.27568e-08
1.809e-09
2.2934e-10
2.71644e-08
1.85882e-09
4.50649e-10
2.65971e-08
1.87498e-09
6.60494e-10
2.60448e-08
1.87592e-09
8.58805e-10
2.5498e-08
1.8737e-09
1.04519e-09
2.49555e-08
1.86903e-09
1.21853e-09
2.44157e-08
1.86123e-09
1.37676e-09
2.38746e-08
1.84949e-09
1.51647e-09
2.33249e-08
1.83258e-09
1.63328e-09
2.27553e-08
1.80929e-09
2.21969e-08
1.75988e-09
1.76007e-09
4.0499e-10
4.04859e-10
3.04463e-08
7.94297e-10
4.0719e-10
2.99049e-08
1.16964e-09
4.08135e-10
2.93632e-08
1.52894e-09
4.08462e-10
2.88566e-08
1.86917e-09
4.08053e-10
2.83911e-08
2.18717e-09
4.06583e-10
2.79639e-08
2.47938e-09
4.03629e-10
2.7573e-08
2.74168e-09
3.98727e-10
2.72169e-08
2.96863e-09
3.91937e-10
2.68933e-08
3.87304e-10
2.6595e-08
3.14962e-09
4.07229e-10
7.9439e-10
2.99005e-08
7.98046e-10
7.98043e-10
2.93835e-08
1.17423e-09
7.99098e-10
2.88641e-08
1.53447e-09
7.9931e-10
2.83629e-08
1.87629e-09
7.98037e-10
2.78944e-08
2.19669e-09
7.94806e-10
2.74617e-08
2.49229e-09
7.88807e-10
2.70631e-08
2.75914e-09
7.79292e-10
2.66964e-08
2.9915e-09
7.67086e-10
2.63586e-08
7.62919e-10
2.60354e-08
3.1765e-09
4.07973e-10
1.17006e-09
2.93595e-08
7.98926e-10
1.17441e-09
2.886e-08
1.17441e-09
1.17447e-09
2.83653e-08
1.53331e-09
1.17388e-09
2.78788e-08
1.8739e-09
1.1713e-09
2.74112e-08
2.19377e-09
1.16576e-09
2.69733e-08
2.48963e-09
1.15642e-09
2.65668e-08
2.75776e-09
1.14233e-09
2.61883e-08
2.99279e-09
1.125e-09
2.58355e-08
1.12199e-09
2.54953e-08
3.18223e-09
4.08259e-10
1.52951e-09
2.88562e-08
7.98921e-10
1.53494e-09
2.83599e-08
1.17357e-09
1.53351e-09
2.78751e-08
1.53115e-09
1.53126e-09
2.74013e-08
1.86994e-09
1.5271e-09
2.6939e-08
2.18813e-09
1.51915e-09
2.64951e-08
2.4832e-09
1.50611e-09
2.60774e-08
2.75163e-09
1.48725e-09
2.56856e-08
2.98826e-09
1.46492e-09
2.53175e-08
1.46305e-09
2.49631e-08
3.18124e-09
4.07878e-10
1.86981e-09
2.83918e-08
7.97659e-10
1.87693e-09
2.78943e-08
1.17076e-09
1.87442e-09
2.74086e-08
1.52668e-09
1.87015e-09
2.69354e-08
1.86373e-09
1.8638e-09
2.64761e-08
2.17973e-09
1.85357e-09
2.60298e-08
2.47287e-09
1.83707e-09
2.55994e-08
2.74077e-09
1.81305e-09
2.51901e-08
2.97854e-09
1.78539e-09
2.48046e-08
1.78427e-09
2.44373e-08
3.17468e-09
4.06422e-10
2.18785e-09
2.79647e-08
7.9449e-10
2.19737e-09
2.74625e-08
1.16526e-09
2.19444e-09
2.69731e-08
1.51845e-09
2.18867e-09
2.64927e-08
1.85308e-09
2.17983e-09
2.60262e-08
2.16696e-09
2.16678e-09
2.55759e-08
2.45764e-09
2.14729e-09
2.51367e-08
2.72383e-09
2.11843e-09
2.47079e-08
2.9623e-09
2.08472e-09
2.42987e-08
2.0831e-09
2.39164e-08
3.16202e-09
4.03481e-10
2.48007e-09
2.75741e-08
7.88514e-10
2.49298e-09
2.70641e-08
1.15598e-09
2.49033e-09
2.65677e-08
1.50543e-09
2.48393e-09
2.60774e-08
1.8361e-09
2.47344e-09
2.55963e-08
2.1467e-09
2.4575e-09
2.51308e-08
2.43476e-09
2.43462e-09
2.4681e-08
2.69863e-09
2.40142e-09
2.42359e-08
2.93731e-09
2.36107e-09
2.37983e-08
2.35581e-09
2.33963e-08
3.14231e-09
3.98596e-10
2.74234e-09
2.72181e-08
7.79034e-10
2.7598e-09
2.66976e-08
1.14195e-09
2.75844e-09
2.61893e-08
1.48675e-09
2.75236e-09
2.56865e-08
1.8123e-09
2.74158e-09
2.51898e-08
2.11741e-09
2.72434e-09
2.47025e-08
2.40072e-09
2.69864e-09
2.42296e-08
2.66104e-09
2.66123e-09
2.37619e-08
2.89946e-09
2.61289e-09
2.32961e-08
2.59656e-09
2.28705e-08
3.1138e-09
3.91824e-10
2.96923e-09
2.68947e-08
7.66867e-10
2.9921e-09
2.63599e-08
1.12469e-09
2.99341e-09
2.58367e-08
1.46454e-09
2.98892e-09
2.53185e-08
1.78502e-09
2.97923e-09
2.48056e-08
2.08422e-09
2.96296e-09
2.42977e-08
2.36031e-09
2.93778e-09
2.37953e-08
2.6123e-09
2.89962e-09
2.32939e-08
2.8441e-09
2.84423e-09
2.27917e-08
2.79767e-09
2.23254e-08
3.07439e-09
3.87216e-10
2.65963e-08
3.15013e-09
7.62752e-10
2.60367e-08
3.17701e-09
1.12176e-09
2.54964e-08
3.18276e-09
1.46277e-09
2.49642e-08
3.18178e-09
1.78399e-09
2.44383e-08
3.17523e-09
2.08284e-09
2.39172e-08
3.16254e-09
2.35546e-09
2.3397e-08
3.14276e-09
2.59608e-09
2.28698e-08
3.11411e-09
2.79734e-09
2.23237e-08
3.07447e-09
2.17922e-08
2.99981e-09
2.9999e-09
5.81852e-10
5.81815e-10
2.92826e-08
1.14029e-09
5.84338e-10
2.87622e-08
1.67721e-09
5.84594e-10
2.82416e-08
2.19156e-09
5.84304e-10
2.77579e-08
2.68124e-09
5.83624e-10
2.73178e-08
3.14372e-09
5.82194e-10
2.69192e-08
3.57576e-09
5.7955e-10
2.65614e-08
3.97318e-09
5.75204e-10
2.62443e-08
4.32995e-09
5.69251e-10
2.59673e-08
5.66535e-10
2.57251e-08
4.63324e-09
5.84243e-10
1.14034e-09
2.87578e-08
1.14504e-09
1.14509e-09
2.8262e-08
1.68406e-09
1.14579e-09
2.77639e-08
2.20055e-09
1.14533e-09
2.72853e-08
2.6929e-09
1.14368e-09
2.6842e-08
3.15872e-09
1.14062e-09
2.64374e-08
3.59502e-09
1.13528e-09
2.60711e-08
3.99777e-09
1.12688e-09
2.5742e-08
4.36055e-09
1.11639e-09
2.54487e-08
1.11637e-09
2.51787e-08
4.66747e-09
5.84354e-10
1.67743e-09
2.82381e-08
1.14548e-09
1.68406e-09
2.77599e-08
1.68478e-09
1.68479e-09
2.7287e-08
2.20107e-09
1.68429e-09
2.68235e-08
2.6931e-09
1.68166e-09
2.63812e-08
3.15917e-09
1.67652e-09
2.59713e-08
3.59632e-09
1.66826e-09
2.55967e-08
4.00068e-09
1.65585e-09
2.5255e-08
4.36628e-09
1.64101e-09
2.49453e-08
1.64434e-09
2.4656e-08
4.67754e-09
5.84143e-10
2.19189e-09
2.77576e-08
1.14488e-09
2.20077e-09
2.72825e-08
1.6839e-09
2.20101e-09
2.68198e-08
2.19992e-09
2.19989e-09
2.63696e-08
2.69112e-09
2.19656e-09
2.59329e-08
3.15614e-09
2.18945e-09
2.55171e-08
3.59291e-09
2.17774e-09
2.51311e-08
3.99774e-09
2.161e-09
2.47756e-08
4.36484e-09
2.14182e-09
2.44496e-08
2.14836e-09
2.41444e-08
4.67949e-09
5.83531e-10
2.68163e-09
2.73185e-08
1.1434e-09
2.69329e-09
2.68419e-08
1.68111e-09
2.69334e-09
2.63786e-08
2.19612e-09
2.69102e-09
2.59293e-08
2.68653e-09
2.68639e-09
2.54958e-08
3.15002e-09
2.67779e-09
2.5078e-08
3.58499e-09
2.66292e-09
2.46792e-08
3.98923e-09
2.64099e-09
2.43059e-08
4.35723e-09
2.61678e-09
2.39617e-08
2.62588e-09
2.36422e-08
4.67486e-09
5.82113e-10
3.14415e-09
2.69201e-08
1.14046e-09
3.15915e-09
2.64383e-08
1.67617e-09
3.15959e-09
2.59712e-08
2.18875e-09
3.15639e-09
2.55147e-08
2.67729e-09
3.14973e-09
2.50743e-08
3.13938e-09
3.1389e-09
2.46528e-08
3.57211e-09
3.12159e-09
2.42453e-08
3.97421e-09
3.09461e-09
2.38522e-08
4.34231e-09
3.06384e-09
2.34835e-08
3.07351e-09
2.31477e-08
4.66333e-09
5.7948e-10
3.57621e-09
2.65625e-08
1.13514e-09
3.59547e-09
2.60721e-08
1.66803e-09
3.59677e-09
2.55976e-08
2.17725e-09
3.59339e-09
2.51312e-08
2.66191e-09
3.58524e-09
2.46761e-08
3.12085e-09
3.57142e-09
2.42394e-08
3.55124e-09
3.5508e-09
2.38214e-08
3.95057e-09
3.51937e-09
2.34118e-08
4.31782e-09
3.48082e-09
2.30141e-08
3.48643e-09
2.26573e-08
4.64389e-09
5.75152e-10
3.97363e-09
2.62455e-08
1.12678e-09
3.99822e-09
2.57432e-08
1.6557e-09
4.00113e-09
2.52561e-08
2.1608e-09
3.99822e-09
2.47765e-08
2.64048e-09
3.98977e-09
2.43055e-08
3.09343e-09
3.97425e-09
2.38467e-08
3.51842e-09
3.94999e-09
2.34054e-08
3.91344e-09
3.91337e-09
2.29729e-08
4.27907e-09
3.86502e-09
2.25463e-08
3.85711e-09
2.21646e-08
4.6143e-09
5.69216e-10
4.33038e-09
2.59687e-08
1.11632e-09
4.36097e-09
2.545e-08
1.64092e-09
4.3667e-09
2.49465e-08
2.14173e-09
4.36526e-09
2.44507e-08
2.61678e-09
4.35763e-09
2.39627e-08
3.06356e-09
4.34262e-09
2.34825e-08
3.47995e-09
4.31787e-09
2.3011e-08
3.86438e-09
4.27881e-09
2.25441e-08
4.22055e-09
4.22044e-09
2.20801e-08
4.17533e-09
2.16563e-08
4.57146e-09
5.66521e-10
2.57265e-08
4.63361e-09
1.11634e-09
2.518e-08
4.66784e-09
1.64432e-09
2.46572e-08
4.6779e-09
2.14835e-09
2.41456e-08
4.67983e-09
2.6259e-09
2.36432e-08
4.67518e-09
3.07354e-09
2.31486e-08
4.66359e-09
3.48629e-09
2.2658e-08
4.64407e-09
3.85667e-09
2.21639e-08
4.61434e-09
4.17501e-09
2.16546e-08
4.57125e-09
2.11637e-08
4.48947e-09
4.48939e-09
7.5783e-10
7.57839e-10
2.77669e-08
1.48562e-09
7.60763e-10
2.72736e-08
2.18614e-09
7.60987e-10
2.67801e-08
2.86019e-09
7.61071e-10
2.63228e-08
3.50748e-09
7.61441e-10
2.59091e-08
4.12707e-09
7.61745e-10
2.55379e-08
4.71718e-09
7.61527e-10
2.52098e-08
5.27479e-09
7.60329e-10
2.49263e-08
5.79476e-09
7.58305e-10
2.4689e-08
7.61206e-10
2.44951e-08
6.26358e-09
7.60584e-10
1.48558e-09
2.72694e-08
1.49172e-09
1.49175e-09
2.67999e-08
2.19562e-09
1.49325e-09
2.63277e-08
2.87291e-09
1.49392e-09
2.58752e-08
3.52371e-09
1.49438e-09
2.54583e-08
4.1472e-09
1.49468e-09
2.5081e-08
4.74179e-09
1.49398e-09
2.4744e-08
5.30459e-09
1.49155e-09
2.4448e-08
5.82991e-09
1.48849e-09
2.41932e-08
1.49925e-09
2.397e-08
6.3006e-09
7.60702e-10
2.18613e-09
2.67768e-08
1.49288e-09
2.1954e-09
2.63241e-08
2.19843e-09
2.19832e-09
2.58763e-08
2.8769e-09
2.20038e-09
2.54386e-08
3.52845e-09
2.20118e-09
2.50229e-08
4.15293e-09
2.20095e-09
2.46405e-08
4.7487e-09
2.19939e-09
2.42955e-08
5.31291e-09
2.19551e-09
2.39868e-08
5.84034e-09
2.19115e-09
2.37152e-08
2.21003e-09
2.34717e-08
6.31394e-09
7.60968e-10
2.86023e-09
2.63225e-08
1.49347e-09
2.87283e-09
2.58726e-08
2.19998e-09
2.87654e-09
2.54351e-08
2.87982e-09
2.87958e-09
2.50106e-08
3.53191e-09
2.88139e-09
2.46006e-08
4.15621e-09
2.88078e-09
2.4213e-08
4.75203e-09
2.87749e-09
2.38572e-08
5.31662e-09
2.87146e-09
2.35351e-08
5.84482e-09
2.86542e-09
2.32471e-08
2.89185e-09
2.29869e-08
6.3205e-09
7.61441e-10
3.50756e-09
2.59097e-08
1.49422e-09
3.52379e-09
2.54582e-08
2.20066e-09
3.52835e-09
2.50203e-08
2.88098e-09
3.53142e-09
2.45971e-08
3.53393e-09
3.53351e-09
2.41907e-08
4.15786e-09
3.53318e-09
2.38016e-08
4.75231e-09
3.52829e-09
2.3434e-08
5.31622e-09
3.51858e-09
2.30948e-08
5.84467e-09
3.50954e-09
2.27891e-08
3.54237e-09
2.25141e-08
6.32222e-09
7.61753e-10
4.12719e-09
2.55387e-08
1.4947e-09
4.14731e-09
2.50818e-08
2.20077e-09
4.15302e-09
2.46404e-08
2.88013e-09
4.1561e-09
2.42107e-08
3.53271e-09
4.15711e-09
2.37981e-08
4.15675e-09
4.1559e-09
2.3406e-08
4.74971e-09
4.15019e-09
2.30305e-08
5.31128e-09
4.13658e-09
2.26726e-08
5.83907e-09
4.122e-09
2.23432e-08
4.1583e-09
2.20518e-08
6.31904e-09
7.61544e-10
4.71732e-09
2.52108e-08
1.49401e-09
4.74193e-09
2.4745e-08
2.1994e-09
4.74884e-09
2.42964e-08
2.87723e-09
4.7522e-09
2.38573e-08
3.52727e-09
4.75218e-09
2.3431e-08
4.14936e-09
4.7484e-09
2.30248e-08
4.74108e-09
4.74029e-09
2.26396e-08
5.29995e-09
4.72323e-09
2.22662e-08
5.82585e-09
4.7011e-09
2.19091e-08
4.73462e-09
2.15968e-08
6.31005e-09
7.60363e-10
5.27496e-09
2.49275e-08
1.49162e-09
5.30475e-09
2.44492e-08
2.19561e-09
5.31308e-09
2.39878e-08
2.87159e-09
5.31679e-09
2.3536e-08
3.51834e-09
5.31644e-09
2.30945e-08
4.13526e-09
5.3108e-09
2.26674e-08
4.72209e-09
5.29871e-09
2.22602e-08
5.2767e-09
5.27634e-09
2.18651e-08
5.79999e-09
5.2438e-09
2.14803e-08
5.2631e-09
2.11434e-08
6.29268e-09
7.58353e-10
5.79495e-09
2.46904e-08
1.48858e-09
5.83009e-09
2.41944e-08
2.19131e-09
5.8405e-09
2.37164e-08
2.86565e-09
5.84495e-09
2.32482e-08
3.50995e-09
5.84474e-09
2.27901e-08
4.12197e-09
5.83898e-09
2.23423e-08
4.70014e-09
5.82543e-09
2.19061e-08
5.24313e-09
5.79927e-09
2.14781e-08
5.755e-09
5.75462e-09
2.10574e-08
5.7319e-09
2.06796e-08
6.26289e-09
7.61273e-10
2.44964e-08
6.26377e-09
1.49938e-09
2.39712e-08
6.30077e-09
2.21023e-09
2.34728e-08
6.31408e-09
2.89212e-09
2.2988e-08
6.3206e-09
3.54272e-09
2.25151e-08
6.32226e-09
4.15865e-09
2.20527e-08
6.319e-09
4.73471e-09
2.15974e-08
6.30994e-09
5.26272e-09
2.11427e-08
6.29242e-09
5.73161e-09
2.0678e-08
6.26235e-09
2.02351e-08
6.19617e-09