/*--------------------------------*- C++ -*----------------------------------*\
| =========                 |                                                 |
| \\      /  F ield         | foam-extend: Open Source CFD                    |
|  \\    /   O peration     | Version:     3.1                                |
|   \\  /    A nd           | Web:         http://www.extend-project.de       |
|    \\/     M anipulation  |                                                 |
\*---------------------------------------------------------------------------*/
FoamFile
{
    version     2.0;
    format      ascii;
    class       pointVectorField;
    location    "0.0019";
    object      pointMotionU;
}
// * * * * * * * * * * * * * * * * * * * * * * * * * * * * * * * * * * * * * //

dimensions      [0 1 -1 0 0 0 0];

internalField   nonuniform List<vector> 
18306
(
(0 0 0)
(0 0 0)
(0 0 0)
(0 0 0)
(0 0 0)
(0 0 0)
(0 0 0)
(0 0 0)
(0 0 0)
(0 0 0)
(0 0 0)
(0 0 0)
(0 0 0)
(0 0 0)
(0 0 0)
(0 0 0)
(0 0 0)
(0 0 0)
(0 0 0)
(0 0 0)
(0 0 0)
(0 0 0)
(0 0 0)
(0 0 0)
(0 0 0)
(0 0 0)
(0 0 0)
(0 0 0)
(0 0 0)
(0 0 0)
(0 0 0)
(0 0 0)
(0 0 0)
(0 0 0)
(0 0 0)
(0 0 0)
(0 0 0)
(0 0 0)
(0 0 0)
(0 0 0)
(0 0 0)
(0 0 0)
(0 0 0)
(0 0 0)
(0 0 0)
(0 0 0)
(0 0 0)
(0 0 0)
(0 0 0)
(0 0 0)
(0 0 0)
(0 0 0)
(0 0 0)
(0 0 0)
(0 0 0)
(0 0 0)
(0 0 0)
(0 0 0)
(0 0 0)
(0 0 0)
(0 0 0)
(0 0 0)
(0 0 0)
(0 0 0)
(0 0 0)
(0 0 0)
(0 0 0)
(0 0 0)
(0 0 0)
(0 0 0)
(0 0 0)
(0 0 0)
(0 0 0)
(0 0 0)
(0 0 0)
(0 0 0)
(0 0 0)
(0 0 0)
(0 0 0)
(0 0 0)
(0 0 0)
(0 0 0)
(0 0 0)
(0 0 0)
(0 0 0)
(0 0 0)
(0 0 0)
(0 0 0)
(0 0 0)
(0 0 0)
(0 0 0)
(0 0 0)
(0 0 0)
(0 0 0)
(0 0 0)
(0 0 0)
(0 0 0)
(0 0 0)
(0 0 0)
(0 0 0)
(0 0 0)
(0 0 0)
(0 0 0)
(0 0 0)
(0 0 0)
(0 0 0)
(0 0 0)
(0 0 0)
(0 0 0)
(0 0 0)
(0 0 0)
(0 0 0)
(0 0 0)
(0 0 0)
(0 0 0)
(0 0 0)
(0 0 0)
(0 0 0)
(0 0 0)
(0 0 0)
(0 0 0)
(0 0 5.74483e-08)
(1.41435e-08 0 5.94394e-08)
(2.90205e-08 0 6.55295e-08)
(4.55736e-08 0 7.58585e-08)
(6.50496e-08 0 9.0959e-08)
(8.87202e-08 0 1.11782e-07)
(1.17812e-07 0 1.39755e-07)
(1.53424e-07 0 1.76927e-07)
(1.96288e-07 0 2.26173e-07)
(2.46418e-07 0 2.91597e-07)
(3.03357e-07 0 3.80725e-07)
(0 5.66488e-09 5.89796e-08)
(1.30996e-08 4.79994e-09 6.09276e-08)
(2.70376e-08 2.37276e-09 6.68805e-08)
(4.2702e-08 -1.20295e-09 7.69987e-08)
(6.12038e-08 -5.48019e-09 9.18059e-08)
(8.37565e-08 -1.00393e-08 1.12216e-07)
(1.11521e-07 -1.44929e-08 1.39567e-07)
(1.45503e-07 -1.85186e-08 1.75752e-07)
(1.86336e-07 -2.18534e-08 2.23287e-07)
(2.33859e-07 -2.42883e-08 2.85418e-07)
(2.87389e-07 -2.5053e-08 3.66953e-07)
(0 1.24192e-08 6.37556e-08)
(1.02186e-08 1.06774e-08 6.55532e-08)
(2.13816e-08 5.70718e-09 7.10906e-08)
(3.43319e-08 -1.77963e-09 8.05778e-08)
(4.99325e-08 -1.08347e-08 9.45101e-08)
(6.91462e-08 -2.05388e-08 1.13706e-07)
(9.29697e-08 -3.01053e-08 1.39319e-07)
(1.22181e-07 -3.88909e-08 1.72832e-07)
(1.57097e-07 -4.63631e-08 2.1593e-07)
(1.97213e-07 -5.21009e-08 2.70245e-07)
(2.43397e-07 -5.42631e-08 3.38005e-07)
(0 2.15564e-08 7.2023e-08)
(5.97452e-09 1.88253e-08 7.35863e-08)
(1.27644e-08 1.09804e-08 7.84501e-08)
(2.11735e-08 -1.01017e-09 8.68867e-08)
(3.19476e-08 -1.57198e-08 9.94005e-08)
(4.57289e-08 -3.1621e-08 1.16707e-07)
(6.31494e-08 -4.74455e-08 1.39732e-07)
(8.46806e-08 -6.22257e-08 1.6952e-07)
(1.10259e-07 -7.52036e-08 2.06958e-07)
(1.3898e-07 -8.58449e-08 2.52472e-07)
(1.74477e-07 -9.08249e-08 3.07061e-07)
(0 3.46538e-08 8.43992e-08)
(7.13569e-10 3.07023e-08 8.56468e-08)
(1.96747e-09 1.9318e-08 8.95695e-08)
(4.36515e-09 1.84958e-09 9.65159e-08)
(8.55088e-09 -1.97205e-08 1.07076e-07)
(1.5036e-08 -4.32272e-08 1.21937e-07)
(2.40339e-08 -6.68125e-08 1.41833e-07)
(3.54931e-08 -8.9169e-08 1.67451e-07)
(4.90092e-08 -1.09386e-07 1.9918e-07)
(6.33305e-08 -1.2693e-07 2.36837e-07)
(8.53989e-08 -1.36628e-07 2.81073e-07)
(0 5.35615e-08 1.01928e-07)
(-5.22872e-09 4.80398e-08 1.02729e-07)
(-1.0305e-08 3.20937e-08 1.05344e-07)
(-1.48992e-08 7.6388e-09 1.10273e-07)
(-1.85971e-08 -2.24656e-08 1.18285e-07)
(-2.09998e-08 -5.52989e-08 1.3016e-07)
(-2.20218e-08 -8.84147e-08 1.46577e-07)
(-2.21676e-08 -1.20074e-07 1.67954e-07)
(-2.24931e-08 -1.49337e-07 1.9437e-07)
(-2.44819e-08 -1.75807e-07 2.25438e-07)
(-1.79284e-08 -1.92293e-07 2.61685e-07)
(0 8.05446e-08 1.26167e-07)
(-1.15139e-08 7.28848e-08 1.26284e-07)
(-2.33839e-08 5.08527e-08 1.26998e-07)
(-3.55813e-08 1.72615e-08 1.29142e-07)
(-4.79331e-08 -2.37398e-08 1.33844e-07)
(-6.02635e-08 -6.80513e-08 1.42112e-07)
(-7.25413e-08 -1.12569e-07 1.54643e-07)
(-8.52673e-08 -1.55241e-07 1.71741e-07)
(-1.00032e-07 -1.95106e-07 1.93244e-07)
(-1.18702e-07 -2.31981e-07 2.18591e-07)
(-1.28787e-07 -2.57079e-07 2.48127e-07)
(0 1.18413e-07 1.59379e-07)
(-1.7838e-08 1.07683e-07 1.58389e-07)
(-3.66385e-08 7.71682e-08 1.56127e-07)
(-5.67064e-08 3.13796e-08 1.54198e-07)
(-7.80946e-08 -2.36112e-08 1.54453e-07)
(-1.00795e-07 -8.20827e-08 1.58293e-07)
(-1.24868e-07 -1.39967e-07 1.66432e-07)
(-1.50713e-07 -1.95075e-07 1.79051e-07)
(-1.79471e-07 -2.46309e-07 1.95748e-07)
(-2.13314e-07 -2.93858e-07 2.15739e-07)
(-2.39832e-07 -3.28714e-07 2.39023e-07)
(0 1.70645e-07 2.04826e-07)
(-2.3934e-08 1.55264e-07 2.01875e-07)
(-4.9488e-08 1.12358e-07 1.94576e-07)
(-7.73641e-08 4.98775e-08 1.86355e-07)
(-1.07866e-07 -2.29722e-08 1.8046e-07)
(-1.41081e-07 -9.85937e-08 1.78794e-07)
(-1.76943e-07 -1.719e-07 1.81968e-07)
(-2.15488e-07 -2.40266e-07 1.89789e-07)
(-2.56738e-07 -3.02331e-07 2.01501e-07)
(-3.02767e-07 -3.59173e-07 2.16167e-07)
(-3.43271e-07 -4.03175e-07 2.33246e-07)
(0 2.41805e-07 2.67359e-07)
(-2.96041e-08 2.18733e-07 2.60547e-07)
(-6.14656e-08 1.56734e-07 2.44175e-07)
(-9.68433e-08 7.09862e-08 2.25983e-07)
(-1.36358e-07 -2.44836e-08 2.11545e-07)
(-1.8014e-07 -1.2016e-07 2.03116e-07)
(-2.27772e-07 -2.10501e-07 2.00742e-07)
(-2.7832e-07 -2.92445e-07 2.03485e-07)
(-3.30302e-07 -3.64173e-07 2.10091e-07)
(-3.83833e-07 -4.26486e-07 2.19371e-07)
(-4.30556e-07 -4.73772e-07 2.30101e-07)
(0 3.40087e-07 3.55991e-07)
(-3.3965e-08 3.03194e-07 3.40273e-07)
(-7.04516e-08 2.13146e-07 3.07458e-07)
(-1.11462e-07 9.83557e-08 2.73884e-07)
(-1.58096e-07 -2.19178e-08 2.47884e-07)
(-2.10716e-07 -1.37994e-07 2.31103e-07)
(-2.68745e-07 -2.4538e-07 2.22212e-07)
(-3.30421e-07 -3.41418e-07 2.19172e-07)
(-3.92443e-07 -4.23469e-07 2.20185e-07)
(-4.49339e-07 -4.88107e-07 2.23844e-07)
(-4.96105e-07 -5.33962e-07 2.2938e-07)
(0 0 8.87319e-08)
(2.87958e-08 0 9.21201e-08)
(5.90009e-08 0 1.02289e-07)
(9.24819e-08 0 1.1942e-07)
(1.31792e-07 0 1.44241e-07)
(1.79674e-07 0 1.78094e-07)
(2.39032e-07 0 2.23009e-07)
(3.12986e-07 0 2.81912e-07)
(4.04727e-07 0 3.5892e-07)
(5.17391e-07 0 4.59986e-07)
(6.5583e-07 0 5.96324e-07)
(0 1.17756e-08 9.1257e-08)
(2.69187e-08 1.02538e-08 9.45849e-08)
(5.5472e-08 5.98834e-09 1.04556e-07)
(8.74213e-08 -2.40217e-10 1.21389e-07)
(1.25061e-07 -7.60526e-09 1.45797e-07)
(1.71034e-07 -1.53269e-08 1.79066e-07)
(2.28128e-07 -2.26685e-08 2.23093e-07)
(2.99282e-07 -2.89856e-08 2.80565e-07)
(3.87472e-07 -3.37016e-08 3.55068e-07)
(4.95333e-07 -3.6273e-08 4.5124e-07)
(6.26268e-07 -3.52519e-08 5.76102e-07)
(0 2.55987e-08 9.8955e-08)
(2.17348e-08 2.25465e-08 1.02062e-07)
(4.53602e-08 1.38315e-08 1.11423e-07)
(7.25687e-08 7.8513e-10 1.27343e-07)
(1.05186e-07 -1.48349e-08 1.50496e-07)
(1.45394e-07 -3.13138e-08 1.82019e-07)
(1.95695e-07 -4.71553e-08 2.23532e-07)
(2.58592e-07 -6.1073e-08 2.77114e-07)
(3.36362e-07 -7.19168e-08 3.45093e-07)
(4.30694e-07 -7.86333e-08 4.29671e-07)
(5.46786e-07 -7.79132e-08 5.33835e-07)
(0 4.39559e-08 1.12202e-07)
(1.41569e-08 3.91758e-08 1.14969e-07)
(3.00163e-08 2.54251e-08 1.23347e-07)
(4.92415e-08 4.5085e-09 1.37757e-07)
(7.34631e-08 -2.09321e-08 1.58889e-07)
(1.04271e-07 -4.80459e-08 1.87723e-07)
(1.435e-07 -7.44186e-08 2.25541e-07)
(1.93077e-07 -9.81229e-08 2.73779e-07)
(2.54473e-07 -1.17525e-07 3.33592e-07)
(3.28385e-07 -1.31262e-07 4.05415e-07)
(4.24248e-07 -1.33509e-07 4.90259e-07)
(0 6.99614e-08 1.31873e-07)
(4.81136e-09 6.30347e-08 1.34189e-07)
(1.08765e-08 4.30367e-08 1.41208e-07)
(1.95236e-08 1.2488e-08 1.53485e-07)
(3.2234e-08 -2.49386e-08 1.71847e-07)
(5.038e-08 -6.52114e-08 1.97243e-07)
(7.50211e-08 -1.04802e-07 2.30676e-07)
(1.07102e-07 -1.41107e-07 2.73072e-07)
(1.47404e-07 -1.72145e-07 3.24898e-07)
(1.95803e-07 -1.96467e-07 3.85776e-07)
(2.67149e-07 -2.05159e-07 4.5608e-07)
(0 1.0739e-07 1.59462e-07)
(-5.68732e-09 9.76769e-08 1.61145e-07)
(-1.07693e-08 6.95533e-08 1.66284e-07)
(-1.43835e-08 2.66134e-08 1.75687e-07)
(-1.54518e-08 -2.58352e-08 1.90461e-07)
(-1.27745e-08 -8.23565e-08 2.11707e-07)
(-5.50071e-09 -1.38326e-07 2.4037e-07)
(6.44116e-09 -1.9031e-07 2.77008e-07)
(2.25761e-08 -2.36183e-07 3.21703e-07)
(4.22371e-08 -2.7466e-07 3.73915e-07)
(8.57294e-08 -2.93514e-07 4.33701e-07)
(0 1.61066e-07 1.97186e-07)
(-1.6701e-08 1.47514e-07 1.97896e-07)
(-3.36592e-08 1.08437e-07 2.00307e-07)
(-5.052e-08 4.91423e-08 2.05757e-07)
(-6.66329e-08 -2.26495e-08 2.15905e-07)
(-8.12041e-08 -9.93056e-08 2.32204e-07)
(-9.34591e-08 -1.74987e-07 2.5565e-07)
(-1.03304e-07 -2.45679e-07 2.86676e-07)
(-1.12291e-07 -3.09143e-07 3.25085e-07)
(-1.21936e-07 -3.64372e-07 3.70223e-07)
(-1.08127e-07 -3.96629e-07 4.21782e-07)
(0 2.37323e-07 2.48252e-07)
(-2.7626e-08 2.18177e-07 2.4738e-07)
(-5.65413e-08 1.63624e-07 2.45515e-07)
(-8.69602e-08 8.2246e-08 2.45192e-07)
(-1.18619e-07 -1.4601e-08 2.49166e-07)
(-1.51038e-07 -1.16275e-07 2.5948e-07)
(-1.83652e-07 -2.15189e-07 2.77159e-07)
(-2.16159e-07 -3.07087e-07 3.02497e-07)
(-2.4942e-07 -3.89538e-07 3.34974e-07)
(-2.85688e-07 -4.62081e-07 3.73742e-07)
(-3.01223e-07 -5.09802e-07 4.18011e-07)
(0 3.44598e-07 3.17253e-07)
(-3.78889e-08 3.16799e-07 3.13568e-07)
(-7.81891e-08 2.39218e-07 3.04452e-07)
(-1.21795e-07 1.2717e-07 2.95207e-07)
(-1.68865e-07 -1.99271e-09 2.90693e-07)
(-2.19072e-07 -1.3416e-07 2.93706e-07)
(-2.71685e-07 -2.59987e-07 3.05079e-07)
(-3.25899e-07 -3.74578e-07 3.24515e-07)
(-3.80774e-07 -4.75234e-07 3.50917e-07)
(-4.38512e-07 -5.62964e-07 3.8334e-07)
(-4.79497e-07 -6.2541e-07 4.20339e-07)
(0 4.9481e-07 4.11019e-07)
(-4.69816e-08 4.52294e-07 4.01766e-07)
(-9.74844e-08 3.3838e-07 3.79566e-07)
(-1.53344e-07 1.82791e-07 3.56202e-07)
(-2.15237e-07 1.21873e-08 3.40004e-07)
(-2.82879e-07 -1.55855e-07 3.34273e-07)
(-3.54925e-07 -3.11436e-07 3.38957e-07)
(-4.29057e-07 -4.49272e-07 3.52508e-07)
(-5.02041e-07 -5.66265e-07 3.72903e-07)
(-5.73299e-07 -6.63345e-07 3.98566e-07)
(-6.27939e-07 -7.31981e-07 4.26911e-07)
(0 7.09646e-07 5.4239e-07)
(-5.32401e-08 6.39333e-07 5.20184e-07)
(-1.10588e-07 4.70088e-07 4.74157e-07)
(-1.75122e-07 2.5844e-07 4.28868e-07)
(-2.48308e-07 4.12091e-08 3.96745e-07)
(-3.30215e-07 -1.64044e-07 3.80174e-07)
(-4.19184e-07 -3.49829e-07 3.77036e-07)
(-5.11489e-07 -5.12138e-07 3.8406e-07)
(-6.00972e-07 -6.47089e-07 3.98157e-07)
(-6.78652e-07 -7.49782e-07 4.16335e-07)
(-7.36901e-07 -8.18835e-07 4.36487e-07)
(0 0 7.84213e-08)
(4.32479e-08 0 8.2188e-08)
(8.83087e-08 0 9.33248e-08)
(1.37645e-07 0 1.11853e-07)
(1.94803e-07 0 1.38234e-07)
(2.63665e-07 0 1.73441e-07)
(3.48448e-07 0 2.18964e-07)
(4.53879e-07 0 2.76941e-07)
(5.85162e-07 0 3.50323e-07)
(7.47939e-07 0 4.43331e-07)
(9.51028e-07 0 5.64343e-07)
(0 1.77287e-08 8.10211e-08)
(4.08733e-08 1.58839e-08 8.47462e-08)
(8.39268e-08 1.07388e-08 9.57334e-08)
(1.31459e-07 3.33428e-09 1.14036e-07)
(1.86672e-07 -5.26651e-09 1.40107e-07)
(2.53353e-07 -1.40579e-08 1.74867e-07)
(3.35587e-07 -2.20724e-08 2.1968e-07)
(4.37927e-07 -2.84327e-08 2.76476e-07)
(5.65358e-07 -3.2312e-08 3.47738e-07)
(7.2299e-07 -3.28641e-08 4.36533e-07)
(9.17419e-07 -2.83626e-08 5.47534e-07)
(0 3.80751e-08 8.88132e-08)
(3.4337e-08 3.4401e-08 9.2361e-08)
(7.13186e-08 2.39201e-08 1.02861e-07)
(1.13183e-07 8.3865e-09 1.20464e-07)
(1.62504e-07 -9.91642e-09 1.45582e-07)
(2.2251e-07 -2.87715e-08 1.78989e-07)
(2.96998e-07 -4.62126e-08 2.21801e-07)
(3.90062e-07 -6.04938e-08 2.75405e-07)
(5.05928e-07 -6.99895e-08 3.41186e-07)
(6.48699e-07 -7.31087e-08 4.20098e-07)
(8.27128e-07 -6.60364e-08 5.13205e-07)
(0 6.42847e-08 1.02076e-07)
(2.48871e-08 5.85397e-08 1.0535e-07)
(5.22683e-08 4.20077e-08 1.1507e-07)
(8.44664e-08 1.7047e-08 1.31523e-07)
(1.23847e-07 -1.29096e-08 1.55132e-07)
(1.72881e-07 -4.41656e-08 1.86506e-07)
(2.34586e-07 -7.35501e-08 2.26456e-07)
(3.12434e-07 -9.8463e-08 2.75814e-07)
(4.0974e-07 -1.16616e-07 3.3496e-07)
(5.29488e-07 -1.25955e-07 4.03386e-07)
(6.85477e-07 -1.19844e-07 4.80304e-07)
(0 1.00543e-07 1.21461e-07)
(1.33021e-08 9.21876e-08 1.24384e-07)
(2.86238e-08 6.80578e-08 1.33045e-07)
(4.7949e-08 3.1448e-08 1.47874e-07)
(7.35342e-08 -1.28781e-08 1.69423e-07)
(1.07626e-07 -5.96974e-08 1.98262e-07)
(1.52291e-07 -1.04389e-07 2.34945e-07)
(2.09808e-07 -1.4345e-07 2.79875e-07)
(2.82679e-07 -1.74119e-07 3.32888e-07)
(3.72842e-07 -1.94192e-07 3.92901e-07)
(5.00511e-07 -1.93553e-07 4.58393e-07)
(0 1.5203e-07 1.48119e-07)
(3.43363e-10 1.40244e-07 1.50549e-07)
(1.99079e-09 1.06099e-07 1.57746e-07)
(6.40667e-09 5.43113e-08 1.70385e-07)
(1.53758e-08 -8.23045e-09 1.89263e-07)
(3.09989e-08 -7.44867e-08 2.15092e-07)
(5.51512e-08 -1.38431e-07 2.48382e-07)
(8.89753e-08 -1.95498e-07 2.89212e-07)
(1.33337e-07 -2.42689e-07 3.3716e-07)
(1.89389e-07 -2.77979e-07 3.91157e-07)
(2.83863e-07 -2.87557e-07 4.49212e-07)
(0 2.2551e-07 1.83733e-07)
(-1.3171e-08 2.0893e-07 1.85391e-07)
(-2.60229e-08 1.61113e-07 1.90432e-07)
(-3.76572e-08 8.90562e-08 2.00035e-07)
(-4.68082e-08 2.80042e-09 2.15478e-07)
(-5.18852e-08 -8.77775e-08 2.37769e-07)
(-5.10611e-08 -1.75117e-07 2.67463e-07)
(-4.31248e-08 -2.53946e-07 3.0455e-07)
(-2.87295e-08 -3.21108e-07 3.48413e-07)
(-8.05811e-09 -3.74905e-07 3.97995e-07)
(5.02374e-08 -3.9882e-07 4.50881e-07)
(0 3.30086e-07 2.30675e-07)
(-2.64352e-08 3.06419e-07 2.31054e-07)
(-5.37424e-08 2.39018e-07 2.32661e-07)
(-8.16793e-08 1.39269e-07 2.37761e-07)
(-1.09432e-07 2.20005e-08 2.48606e-07)
(-1.35828e-07 -9.90396e-08 2.66686e-07)
(-1.59382e-07 -2.14135e-07 2.9252e-07)
(-1.78597e-07 -3.17778e-07 3.25991e-07)
(-1.93433e-07 -4.06726e-07 3.66173e-07)
(-2.05344e-07 -4.79933e-07 4.1191e-07)
(-1.83523e-07 -5.20883e-07 4.60486e-07)
(0 4.78224e-07 2.92259e-07)
(-3.8649e-08 4.43407e-07 2.90328e-07)
(-7.94716e-08 3.46406e-07 2.86019e-07)
(-1.23021e-07 2.07696e-07 2.84065e-07)
(-1.68971e-07 5.00681e-08 2.88564e-07)
(-2.16336e-07 -1.08291e-07 3.01614e-07)
(-2.63535e-07 -2.55626e-07 3.23455e-07)
(-3.08683e-07 -3.85906e-07 3.53315e-07)
(-3.49791e-07 -4.95904e-07 3.89631e-07)
(-3.88474e-07 -5.86366e-07 4.31257e-07)
(-3.99347e-07 -6.43962e-07 4.7522e-07)
(0 6.8792e-07 3.73304e-07)
(-4.90516e-08 6.3376e-07 3.66756e-07)
(-1.01583e-07 4.89241e-07 3.51694e-07)
(-1.59232e-07 2.94462e-07 3.38516e-07)
(-2.22267e-07 8.46217e-08 3.3433e-07)
(-2.89742e-07 -1.17753e-07 3.41584e-07)
(-3.59375e-07 -3.00617e-07 3.59581e-07)
(-4.27733e-07 -4.58069e-07 3.86189e-07)
(-4.90504e-07 -5.87004e-07 4.18765e-07)
(-5.46719e-07 -6.88618e-07 4.55362e-07)
(-5.78321e-07 -7.54514e-07 4.922e-07)
(0 9.91831e-07 4.83127e-07)
(-5.5627e-08 9.00042e-07 4.65776e-07)
(-1.15539e-07 6.81475e-07 4.30918e-07)
(-1.82801e-07 4.1294e-07 3.9997e-07)
(-2.58604e-07 1.43247e-07 3.836e-07)
(-3.42407e-07 -1.05419e-07 3.83417e-07)
(-4.31538e-07 -3.24682e-07 3.96813e-07)
(-5.20911e-07 -5.10988e-07 4.19966e-07)
(-6.02937e-07 -6.61133e-07 4.48996e-07)
(-6.67874e-07 -7.71031e-07 4.79788e-07)
(-7.08205e-07 -8.40499e-07 5.09338e-07)
(0 0 2.48768e-08)
(5.55762e-08 0 2.79879e-08)
(1.12816e-07 0 3.70234e-08)
(1.7414e-07 0 5.17429e-08)
(2.43291e-07 0 7.20697e-08)
(3.24252e-07 0 9.81485e-08)
(4.21112e-07 0 1.30282e-07)
(5.38156e-07 0 1.68927e-07)
(6.79597e-07 0 2.14675e-07)
(8.49082e-07 0 2.68341e-07)
(1.0514e-06 0 3.32315e-07)
(0 2.20644e-08 2.66453e-08)
(5.30972e-08 2.0279e-08 2.97604e-08)
(1.08362e-07 1.53356e-08 3.87867e-08)
(1.68011e-07 8.37151e-09 5.34974e-08)
(2.35405e-07 4.99553e-10 7.38051e-08)
(3.14481e-07 -7.23606e-09 9.98192e-08)
(4.09258e-07 -1.38257e-08 1.31762e-07)
(5.23971e-07 -1.83415e-08 1.69981e-07)
(6.62874e-07 -1.98937e-08 2.14818e-07)
(8.29645e-07 -1.75416e-08 2.66479e-07)
(1.02789e-06 -9.83275e-09 3.25369e-07)
(0 4.66737e-08 3.18261e-08)
(4.63058e-08 4.31489e-08 3.49033e-08)
(9.54845e-08 3.31145e-08 4.38478e-08)
(1.49737e-07 1.846e-08 5.85012e-08)
(2.11746e-07 1.60278e-09 7.87291e-08)
(2.84929e-07 -1.51465e-08 1.04527e-07)
(3.73191e-07 -2.97375e-08 1.35968e-07)
(4.80607e-07 -4.03315e-08 1.73104e-07)
(6.11214e-07 -4.5212e-08 2.15691e-07)
(7.68819e-07 -4.26718e-08 2.62861e-07)
(9.60815e-07 -2.95557e-08 3.12934e-07)
(0 7.70897e-08 4.04749e-08)
(3.66191e-08 7.15779e-08 4.34982e-08)
(7.61107e-08 5.57311e-08 5.23096e-08)
(1.20951e-07 3.20707e-08 6.68555e-08)
(1.73677e-07 4.23032e-09 8.69898e-08)
(2.36965e-07 -2.39242e-08 1.12557e-07)
(3.14095e-07 -4.90873e-08 1.43436e-07)
(4.08842e-07 -6.85514e-08 1.79373e-07)
(5.24838e-07 -7.99445e-08 2.19612e-07)
(6.6561e-07 -8.11208e-08 2.62607e-07)
(8.44419e-07 -6.64931e-08 3.05399e-07)
(0 1.17641e-07 5.2738e-08)
(2.47999e-08 1.09566e-07 5.57083e-08)
(5.21407e-08 8.62747e-08 6.43561e-08)
(8.42837e-08 5.12966e-08 7.87175e-08)
(1.23787e-07 9.66464e-09 9.87015e-08)
(1.73209e-07 -3.31587e-08 1.24087e-07)
(2.34969e-07 -7.23714e-08 1.54559e-07)
(3.11821e-07 -1.04363e-07 1.89626e-07)
(4.06882e-07 -1.26332e-07 2.28283e-07)
(5.22961e-07 -1.36058e-07 2.68803e-07)
(6.79988e-07 -1.24818e-07 3.07472e-07)
(0 1.73707e-07 6.89559e-08)
(1.15787e-08 1.62199e-07 7.18334e-08)
(2.51208e-08 1.28907e-07 8.02115e-08)
(4.24635e-08 7.89074e-08 9.42618e-08)
(6.57484e-08 1.94815e-08 1.13981e-07)
(9.75127e-08 -4.20082e-08 1.39191e-07)
(1.40121e-07 -9.933e-08 1.69513e-07)
(1.95206e-07 -1.47853e-07 2.04231e-07)
(2.64235e-07 -1.8461e-07 2.42242e-07)
(3.49205e-07 -2.07672e-07 2.81951e-07)
(4.76784e-07 -2.04912e-07 3.19048e-07)
(0 2.52307e-07 8.96173e-08)
(-2.23428e-09 2.35925e-07 9.22861e-08)
(-3.37548e-09 1.88774e-07 1.00128e-07)
(-2.05431e-09 1.18421e-07 1.13593e-07)
(3.37532e-09 3.55072e-08 1.32878e-07)
(1.49419e-08 -4.96542e-08 1.57877e-07)
(3.5047e-08 -1.29308e-07 1.88175e-07)
(6.54723e-08 -1.98198e-07 2.22974e-07)
(1.05955e-07 -2.53341e-07 2.61051e-07)
(1.56786e-07 -2.93305e-07 3.00856e-07)
(2.4965e-07 -3.03439e-07 3.37707e-07)
(0 3.62898e-07 1.15364e-07)
(-1.58211e-08 3.39214e-07 1.17598e-07)
(-3.16341e-08 2.71952e-07 1.24344e-07)
(-4.66586e-08 1.73474e-07 1.36635e-07)
(-5.96632e-08 5.95598e-08 1.55132e-07)
(-6.90803e-08 -5.54712e-08 1.7985e-07)
(-7.29558e-08 -1.61795e-07 2.10197e-07)
(-6.91855e-08 -2.5409e-07 2.45263e-07)
(-5.75004e-08 -3.29547e-07 2.83555e-07)
(-3.93732e-08 -3.87596e-07 3.23438e-07)
(1.66831e-08 -4.13606e-07 3.60303e-07)
(0 5.18444e-07 1.47011e-07)
(-2.83604e-08 4.83129e-07 1.48322e-07)
(-5.79104e-08 3.85124e-07 1.52828e-07)
(-8.86091e-08 2.46704e-07 1.6285e-07)
(-1.19686e-07 9.22058e-08 1.79948e-07)
(-1.49775e-07 -5.94694e-08 2.04306e-07)
(-1.76972e-07 -1.96695e-07 2.3494e-07)
(-1.9905e-07 -3.1405e-07 2.70333e-07)
(-2.1402e-07 -4.09192e-07 3.08419e-07)
(-2.23798e-07 -4.83517e-07 3.47612e-07)
(-2.02348e-07 -5.25481e-07 3.83718e-07)
(0 7.3769e-07 1.85689e-07)
(-3.90772e-08 6.81969e-07 1.84966e-07)
(-8.05444e-08 5.34106e-07 1.84962e-07)
(-1.25355e-07 3.37765e-07 1.90924e-07)
(-1.73322e-07 1.30628e-07 2.05869e-07)
(-2.23153e-07 -6.40543e-08 2.29937e-07)
(-2.72337e-07 -2.34891e-07 2.61341e-07)
(-3.17412e-07 -3.77347e-07 2.97416e-07)
(-3.54477e-07 -4.89901e-07 3.3516e-07)
(-3.83444e-07 -5.74925e-07 3.72328e-07)
(-3.86713e-07 -6.25874e-07 4.04815e-07)
(0 1.05474e-06 2.34061e-07)
(-4.62047e-08 9.58981e-07 2.28287e-07)
(-9.55494e-08 7.32507e-07 2.1915e-07)
(-1.50328e-07 4.59043e-07 2.17593e-07)
(-2.1128e-07 1.91011e-07 2.28451e-07)
(-2.77555e-07 -4.90102e-08 2.51286e-07)
(-3.46283e-07 -2.54101e-07 2.83077e-07)
(-4.12392e-07 -4.2292e-07 3.19969e-07)
(-4.68808e-07 -5.54661e-07 3.57937e-07)
(-5.07358e-07 -6.47644e-07 3.92743e-07)
(-5.22383e-07 -7.03261e-07 4.21531e-07)
(0 -0 -6.06812e-08)
(6.37877e-08 0 -5.89905e-08)
(1.28486e-07 0 -5.4262e-08)
(1.95823e-07 0 -4.69477e-08)
(2.68845e-07 0 -3.76271e-08)
(3.50494e-07 0 -2.69518e-08)
(4.4325e-07 0 -1.56985e-08)
(5.48938e-07 0 -4.82299e-09)
(6.68069e-07 0 4.4519e-09)
(7.98639e-07 0 1.05277e-08)
(9.35553e-07 0 1.13656e-08)
(0 2.34731e-08 -6.03759e-08)
(6.15772e-08 2.2099e-08 -5.86235e-08)
(1.24672e-07 1.83413e-08 -5.37141e-08)
(1.90808e-07 1.32489e-08 -4.61106e-08)
(2.62664e-07 7.80369e-09 -3.64164e-08)
(3.43212e-07 2.90947e-09 -2.53011e-08)
(4.34983e-07 -5.67104e-10 -1.35608e-08)
(5.39986e-07 -1.82537e-09 -2.1494e-09)
(6.59217e-07 -9.03729e-11 7.70926e-09)
(7.91718e-07 5.48356e-09 1.44126e-08)
(9.33649e-07 1.56738e-08 1.57337e-08)
(0 4.87871e-08 -5.96336e-08)
(5.55697e-08 4.61021e-08 -5.77271e-08)
(1.13594e-07 3.85056e-08 -5.23325e-08)
(1.75663e-07 2.77131e-08 -4.39032e-08)
(2.43834e-07 1.58744e-08 -3.31146e-08)
(3.20736e-07 5.00292e-09 -2.07095e-08)
(4.09103e-07 -3.14263e-09 -7.51606e-09)
(5.1135e-07 -6.98926e-09 5.49587e-09)
(6.29282e-07 -5.09117e-09 1.70986e-08)
(7.6407e-07 4.00238e-09 2.57302e-08)
(9.17962e-07 2.19532e-08 2.85951e-08)
(0 7.8494e-08 -5.85995e-08)
(4.71601e-08 7.42734e-08 -5.64407e-08)
(9.70225e-08 6.22004e-08 -5.02812e-08)
(1.51655e-07 4.45588e-08 -4.05498e-08)
(2.13117e-07 2.45826e-08 -2.79826e-08)
(2.83496e-07 5.64925e-09 -1.34551e-08)
(3.65293e-07 -9.41083e-09 2.1262e-09)
(4.61248e-07 -1.83303e-08 1.77678e-08)
(5.73762e-07 -1.91878e-08 3.22534e-08)
(7.05297e-07 -1.02659e-08 4.41279e-08)
(8.64477e-07 1.1649e-08 4.97743e-08)
(0 1.16121e-07 -5.76041e-08)
(3.69316e-08 1.09831e-07 -5.50919e-08)
(7.65257e-08 9.17915e-08 -4.78845e-08)
(1.20845e-07 6.52194e-08 -3.64286e-08)
(1.72167e-07 3.46069e-08 -2.15183e-08)
(2.32676e-07 4.72782e-09 -4.15019e-09)
(3.0435e-07 -2.03301e-08 1.46338e-08)
(3.89428e-07 -3.7615e-08 3.37899e-08)
(4.90438e-07 -4.49805e-08 5.21247e-08)
(6.09893e-07 -4.0815e-08 6.83167e-08)
(7.62542e-07 -1.96303e-08 7.78414e-08)
(0 1.66018e-07 -5.70856e-08)
(2.54223e-08 1.56865e-07 -5.41368e-08)
(5.32392e-08 1.30538e-07 -4.56244e-08)
(8.53088e-08 9.17057e-08 -3.20366e-08)
(1.23658e-07 4.68906e-08 -1.43008e-08)
(1.70653e-07 2.53638e-09 6.46823e-09)
(2.28457e-07 -3.60837e-08 2.9108e-08)
(2.98465e-07 -6.5301e-08 5.24301e-08)
(3.81904e-07 -8.30361e-08 7.52543e-08)
(4.80632e-07 -8.81545e-08 9.63787e-08)
(6.15563e-07 -7.24983e-08 1.10484e-07)
(0 2.33811e-07 -5.76371e-08)
(1.32577e-08 2.20487e-07 -5.41713e-08)
(2.83519e-08 1.82389e-07 -4.41136e-08)
(4.69e-08 1.26548e-07 -2.79986e-08)
(7.0565e-08 6.25482e-08 -6.93671e-09)
(1.01314e-07 -6.07727e-10 1.77192e-08)
(1.41476e-07 -5.64325e-08 4.4644e-08)
(1.92704e-07 -1.00902e-07 7.25324e-08)
(2.54544e-07 -1.32223e-07 1.00114e-07)
(3.26955e-07 -1.5003e-07 1.26165e-07)
(4.35875e-07 -1.44032e-07 1.45005e-07)
(0 3.27016e-07 -6.00665e-08)
(1.08896e-09 3.07322e-07 -5.59822e-08)
(3.25452e-09 2.51832e-07 -4.41034e-08)
(7.72285e-09 1.72103e-07 -2.50551e-08)
(1.58699e-08 8.24491e-08 -1.52219e-10)
(2.92331e-08 -4.66061e-09 2.89145e-08)
(4.96486e-08 -8.12151e-08 6.04623e-08)
(7.90896e-08 -1.43419e-07 9.30536e-08)
(1.17376e-07 -1.9002e-07 1.25166e-07)
(1.62347e-07 -2.21798e-07 1.55454e-07)
(2.40553e-07 -2.28299e-07 1.78623e-07)
(0 4.55925e-07 -6.54735e-08)
(-1.04277e-08 4.25925e-07 -6.0643e-08)
(-2.06403e-08 3.43468e-07 -4.65868e-08)
(-2.99517e-08 2.2942e-07 -2.41056e-08)
(-3.73383e-08 1.05974e-07 5.1939e-09)
(-4.14558e-08 -1.04532e-08 3.92472e-08)
(-4.06832e-08 -1.10743e-07 7.58756e-08)
(-3.32414e-08 -1.91665e-07 1.13137e-07)
(-1.80878e-08 -2.52951e-07 1.49049e-07)
(1.8963e-09 -2.97377e-07 1.82324e-07)
(4.89814e-08 -3.16838e-07 2.08637e-07)
(0 6.35586e-07 -7.53675e-08)
(-2.07046e-08 5.87268e-07 -6.95907e-08)
(-4.20395e-08 4.60543e-07 -5.28326e-08)
(-6.40369e-08 2.96311e-07 -2.62145e-08)
(-8.61727e-08 1.29062e-07 8.23724e-09)
(-1.07233e-07 -2.12493e-08 4.79599e-08)
(-1.25203e-07 -1.46479e-07 9.02019e-08)
(-1.37594e-07 -2.45179e-07 1.32242e-07)
(-1.42109e-07 -3.18661e-07 1.71421e-07)
(-1.40388e-07 -3.71099e-07 2.05968e-07)
(-1.18091e-07 -3.98606e-07 2.32382e-07)
(0 8.94146e-07 -9.20287e-08)
(-2.86675e-08 8.09814e-07 -8.50179e-08)
(-5.8418e-08 6.12231e-07 -6.55966e-08)
(-9.03164e-08 3.80143e-07 -3.52179e-08)
(-1.24662e-07 1.61782e-07 3.84465e-09)
(-1.60698e-07 -2.39859e-08 4.87395e-08)
(-1.96157e-07 -1.73913e-07 9.63252e-08)
(-2.27183e-07 -2.90348e-07 1.43352e-07)
(-2.48752e-07 -3.7613e-07 1.86466e-07)
(-2.55821e-07 -4.32994e-07 2.22152e-07)
(-2.45549e-07 -4.63893e-07 2.48317e-07)
(0 -0 -1.58545e-07)
(6.65365e-08 0 -1.5868e-07)
(1.32889e-07 0 -1.59382e-07)
(1.99681e-07 0 -1.61195e-07)
(2.68696e-07 0 -1.65006e-07)
(3.41214e-07 0 -1.71978e-07)
(4.17421e-07 0 -1.83527e-07)
(4.95941e-07 0 -2.01345e-07)
(5.72828e-07 0 -2.27453e-07)
(6.39773e-07 0 -2.64401e-07)
(6.81041e-07 0 -3.16498e-07)
(0 2.12756e-08 -1.59994e-07)
(6.48895e-08 2.05692e-08 -1.60008e-07)
(1.30262e-07 1.8716e-08 -1.60336e-07)
(1.9656e-07 1.65191e-08 -1.61559e-07)
(2.65263e-07 1.46897e-08 -1.64601e-07)
(3.3777e-07 1.38695e-08 -1.7063e-07)
(4.14472e-07 1.46658e-08 -1.81021e-07)
(4.94447e-07 1.76529e-08 -1.9736e-07)
(5.74736e-07 2.34091e-08 -2.21443e-07)
(6.49205e-07 3.26237e-08 -2.55271e-07)
(7.06151e-07 4.52502e-08 -3.01806e-07)
(0 4.336e-08 -1.64487e-07)
(6.04849e-08 4.2008e-08 -1.64148e-07)
(1.22572e-07 3.82759e-08 -1.63405e-07)
(1.86869e-07 3.34578e-08 -1.62905e-07)
(2.54383e-07 2.91321e-08 -1.63675e-07)
(3.26436e-07 2.67382e-08 -1.66916e-07)
(4.04007e-07 2.75066e-08 -1.73931e-07)
(4.87242e-07 3.25432e-08 -1.86062e-07)
(5.75182e-07 4.28561e-08 -2.0458e-07)
(6.66051e-07 5.95168e-08 -2.30453e-07)
(7.56241e-07 8.23483e-08 -2.65886e-07)
(0 6.76765e-08 -1.72279e-07)
(5.45253e-08 6.54937e-08 -1.71374e-07)
(1.11182e-07 5.9377e-08 -1.68946e-07)
(1.71255e-07 5.10642e-08 -1.65724e-07)
(2.35946e-07 4.29486e-08 -1.62856e-07)
(3.06359e-07 3.74505e-08 -1.61663e-07)
(3.83764e-07 3.65321e-08 -1.63421e-07)
(4.69387e-07 4.17137e-08 -1.69251e-07)
(5.64046e-07 5.42203e-08 -1.79957e-07)
(6.69034e-07 7.51748e-08 -1.95743e-07)
(7.86941e-07 1.04802e-07 -2.19279e-07)
(0 9.64065e-08 -1.83994e-07)
(4.73011e-08 9.29592e-08 -1.82326e-07)
(9.70594e-08 8.32683e-08 -1.77631e-07)
(1.50819e-07 6.98277e-08 -1.70783e-07)
(2.10226e-07 5.60027e-08 -1.63123e-07)
(2.76747e-07 4.52275e-08 -1.56159e-07)
(3.51619e-07 4.02898e-08 -1.51259e-07)
(4.36279e-07 4.30474e-08 -1.49443e-07)
(5.32449e-07 5.46808e-08 -1.51289e-07)
(6.42403e-07 7.60073e-08 -1.56681e-07)
(7.73484e-07 1.08332e-07 -1.69373e-07)
(0 1.32242e-07 -2.00576e-07)
(3.90542e-08 1.26895e-07 -1.97945e-07)
(8.07064e-08 1.11804e-07 -1.90382e-07)
(1.26592e-07 9.06622e-08 -1.79004e-07)
(1.78345e-07 6.84032e-08 -1.65522e-07)
(2.37849e-07 4.96943e-08 -1.51736e-07)
(3.06809e-07 3.80921e-08 -1.39214e-07)
(3.86268e-07 3.57101e-08 -1.29066e-07)
(4.77215e-07 4.33676e-08 -1.21808e-07)
(5.81504e-07 6.12309e-08 -1.17319e-07)
(7.113e-07 9.21917e-08 -1.20361e-07)
(0 1.78651e-07 -2.23267e-07)
(3.01237e-08 1.70373e-07 -2.19405e-07)
(6.27245e-08 1.47167e-07 -2.08263e-07)
(9.95004e-08 1.14715e-07 -1.91349e-07)
(1.41925e-07 8.0362e-08 -1.70955e-07)
(1.91672e-07 5.06079e-08 -1.49433e-07)
(2.50756e-07 2.97277e-08 -1.28648e-07)
(3.20584e-07 1.9824e-08 -1.09881e-07)
(4.0071e-07 2.10578e-08 -9.37523e-08)
(4.91027e-07 3.25651e-08 -8.03004e-08)
(6.08244e-07 5.87328e-08 -7.46972e-08)
(0 2.40276e-07 -2.53648e-07)
(2.0904e-08 2.27336e-07 -2.48147e-07)
(4.39932e-08 1.91651e-07 -2.3238e-07)
(7.0852e-08 1.42703e-07 -2.08631e-07)
(1.02852e-07 9.16477e-08 -1.80068e-07)
(1.41325e-07 4.74566e-08 -1.49829e-07)
(1.87806e-07 1.5096e-08 -1.20295e-07)
(2.43989e-07 -3.90367e-09 -9.2904e-08)
(3.09354e-07 -1.03189e-08 -6.85251e-08)
(3.81452e-07 -6.41157e-09 -4.73892e-08)
(4.78553e-07 1.25694e-08 -3.41499e-08)
(0 3.23592e-07 -2.93713e-07)
(1.18132e-08 3.02855e-07 -2.85878e-07)
(2.54356e-08 2.47212e-07 -2.63765e-07)
(4.21994e-08 1.7392e-07 -2.31272e-07)
(6.32857e-08 1.00505e-07 -1.93022e-07)
(8.98665e-08 3.87367e-08 -1.53035e-07)
(1.23097e-07 -6.30287e-09 -1.14249e-07)
(1.64139e-07 -3.44435e-08 -7.84594e-08)
(2.12975e-07 -4.79882e-08 -4.68676e-08)
(2.66163e-07 -5.10224e-08 -1.96739e-08)
(3.39541e-07 -4.00898e-08 -3.07168e-10)
(0 4.38538e-07 -3.46129e-07)
(3.20395e-09 4.0355e-07 -3.34568e-07)
(7.8709e-09 3.14235e-07 -3.03078e-07)
(1.50029e-08 2.04613e-07 -2.58986e-07)
(2.54237e-08 1.02167e-07 -2.09126e-07)
(4.01175e-08 2.08615e-08 -1.58402e-07)
(6.03524e-08 -3.60838e-08 -1.10018e-07)
(8.73335e-08 -7.12749e-08 -6.61091e-08)
(1.21403e-07 -8.94018e-08 -2.82706e-08)
(1.5931e-07 -9.63316e-08 2.92587e-09)
(2.10295e-07 -9.15818e-08 2.51678e-08)
(0 6.04937e-07 -4.159e-07)
(-4.71273e-09 5.41628e-07 -3.97444e-07)
(-8.0353e-09 3.96545e-07 -3.52543e-07)
(-9.53811e-09 2.35963e-07 -2.94584e-07)
(-9.03646e-09 9.87779e-08 -2.32611e-07)
(-5.9804e-09 -2.65224e-09 -1.71488e-07)
(1.00895e-09 -7.02031e-08 -1.13934e-07)
(1.40968e-08 -1.10774e-07 -6.19175e-08)
(3.55657e-08 -1.31514e-07 -1.73975e-08)
(6.64336e-08 -1.3817e-07 1.74256e-08)
(1.06068e-07 -1.3519e-07 4.14879e-08)
(0 -0 -2.45224e-07)
(6.31371e-08 0 -2.47258e-07)
(1.24989e-07 0 -2.53557e-07)
(1.8501e-07 0 -2.64659e-07)
(2.43595e-07 0 -2.81591e-07)
(3.00347e-07 0 -3.05807e-07)
(3.53356e-07 0 -3.39067e-07)
(3.98536e-07 0 -3.83423e-07)
(4.28442e-07 0 -4.41253e-07)
(4.30098e-07 0 -5.1557e-07)
(3.79819e-07 0 -6.124e-07)
(0 1.51945e-08 -2.48417e-07)
(6.22295e-08 1.52823e-08 -2.50284e-07)
(1.23841e-07 1.56794e-08 -2.56054e-07)
(1.84158e-07 1.68328e-08 -2.66326e-07)
(2.43367e-07 1.91115e-08 -2.8218e-07)
(3.01277e-07 2.28465e-08 -3.05056e-07)
(3.56324e-07 2.83513e-08 -3.3662e-07)
(4.05128e-07 3.59576e-08 -3.78723e-07)
(4.41662e-07 4.60581e-08 -4.33307e-07)
(4.56095e-07 5.92277e-08 -5.02326e-07)
(4.31075e-07 7.46811e-08 -5.89028e-07)
(0 3.01983e-08 -2.58071e-07)
(5.99051e-08 3.04031e-08 -2.59423e-07)
(1.20403e-07 3.11819e-08 -2.63649e-07)
(1.81079e-07 3.32534e-08 -2.71488e-07)
(2.41857e-07 3.74616e-08 -2.84143e-07)
(3.02762e-07 4.45532e-08 -3.03054e-07)
(3.63179e-07 5.51581e-08 -3.29714e-07)
(4.214e-07 6.98828e-08 -3.65501e-07)
(4.74459e-07 8.93177e-08 -4.11347e-07)
(5.18788e-07 1.14239e-07 -4.67253e-07)
(5.46359e-07 1.42761e-07 -5.34322e-07)
(0 4.52716e-08 -2.74473e-07)
(5.7045e-08 4.54479e-08 -2.75007e-07)
(1.15466e-07 4.62292e-08 -2.76814e-07)
(1.7568e-07 4.86346e-08 -2.80813e-07)
(2.37998e-07 5.39919e-08 -2.88391e-07)