/*--------------------------------*- C++ -*----------------------------------*\
| =========                 |                                                 |
| \\      /  F ield         | foam-extend: Open Source CFD                    |
|  \\    /   O peration     | Version:     3.1                                |
|   \\  /    A nd           | Web:         http://www.extend-project.de       |
|    \\/     M anipulation  |                                                 |
\*---------------------------------------------------------------------------*/
FoamFile
{
    version     2.0;
    format      ascii;
    class       surfaceVectorField;
    location    "0.0019";
    object      Sf;
}
// * * * * * * * * * * * * * * * * * * * * * * * * * * * * * * * * * * * * * //

dimensions      [0 2 0 0 0 0 0];

internalField   nonuniform List<vector> 
45800
(
(2.11221e-07 3.68737e-09 -9.47437e-10)
(3.68669e-09 2.11218e-07 -9.50007e-10)
(-1.38647e-11 -1.37867e-11 1.16451e-07)
(2.07554e-07 7.36854e-09 -1.82809e-09)
(3.70771e-09 2.11218e-07 -9.41097e-10)
(-4.09689e-11 -1.44557e-11 1.14374e-07)
(2.03906e-07 1.1047e-08 -2.62359e-09)
(3.71444e-09 2.11224e-07 -9.17383e-10)
(-6.63756e-11 -1.58024e-11 1.12265e-07)
(2.00282e-07 1.47293e-08 -3.33627e-09)
(3.71583e-09 2.11253e-07 -8.89713e-10)
(-9.14308e-11 -1.79993e-11 1.10154e-07)
(1.96682e-07 1.84176e-08 -3.97105e-09)
(3.71693e-09 2.11312e-07 -8.61664e-10)
(-1.17266e-10 -2.12014e-11 1.08047e-07)
(1.93109e-07 2.21139e-08 -4.53096e-09)
(3.71779e-09 2.11402e-07 -8.34072e-10)
(-1.44772e-10 -2.55498e-11 1.05944e-07)
(1.89566e-07 2.58203e-08 -5.01712e-09)
(3.71803e-09 2.11523e-07 -8.0796e-10)
(-1.74779e-10 -3.12596e-11 1.03844e-07)
(1.86056e-07 2.95394e-08 -5.4285e-09)
(3.7176e-09 2.11678e-07 -7.84619e-10)
(-2.07679e-10 -3.85017e-11 1.01745e-07)
(1.82583e-07 3.32742e-08 -5.76147e-09)
(3.71638e-09 2.11867e-07 -7.65445e-10)
(-2.43372e-10 -4.70477e-11 9.96469e-08)
(3.72782e-09 2.12094e-07 -7.45214e-10)
(-2.8344e-10 -5.42064e-11 9.75438e-08)
(1.79139e-07 3.70319e-08 -6.01215e-09)
(2.11217e-07 3.70698e-09 -9.38548e-10)
(7.36722e-09 2.07552e-07 -1.82935e-09)
(-1.45066e-11 -4.0855e-11 1.14371e-07)
(2.07565e-07 7.40184e-09 -1.82147e-09)
(7.40047e-09 2.07564e-07 -1.82408e-09)
(-4.10404e-11 -4.09071e-11 1.12318e-07)
(2.03926e-07 1.10859e-08 -2.62813e-09)
(7.41981e-09 2.07581e-07 -1.79177e-09)
(-6.61545e-11 -4.12699e-11 1.10233e-07)
(2.00305e-07 1.47695e-08 -3.35326e-09)
(7.42753e-09 2.07612e-07 -1.74619e-09)
(-9.09795e-11 -4.22042e-11 1.08133e-07)
(1.96708e-07 1.84589e-08 -3.99905e-09)
(7.43059e-09 2.07667e-07 -1.69669e-09)
(-1.1658e-10 -4.38805e-11 1.06031e-07)
(1.93137e-07 2.21562e-08 -4.56857e-09)
(7.43298e-09 2.07751e-07 -1.64715e-09)
(-1.4381e-10 -4.65049e-11 1.03932e-07)
(1.89594e-07 2.58635e-08 -5.0631e-09)
(7.43388e-09 2.07866e-07 -1.59979e-09)
(-1.7342e-10 -5.02226e-11 1.01835e-07)
(1.86084e-07 2.95842e-08 -5.48161e-09)
(7.43372e-09 2.08012e-07 -1.55709e-09)
(-2.05503e-10 -5.48135e-11 9.97395e-08)
(1.82606e-07 3.33208e-08 -5.8207e-09)
(7.43317e-09 2.0819e-07 -1.52099e-09)
(-2.39585e-10 -5.95994e-11 9.76425e-08)
(7.45948e-09 2.08405e-07 -1.47979e-09)
(-2.74242e-10 -6.25341e-11 9.55353e-08)
(1.79149e-07 3.70729e-08 -6.07411e-09)
(2.11221e-07 3.71251e-09 -9.16202e-10)
(1.10464e-08 2.03906e-07 -2.62262e-09)
(-1.58013e-11 -6.63484e-11 1.12262e-07)
(2.07579e-07 7.41849e-09 -1.78907e-09)
(1.10838e-08 2.03924e-07 -2.6285e-09)
(-4.13516e-11 -6.60527e-11 1.10229e-07)
(2.03951e-07 1.11147e-08 -2.59913e-09)
(1.11132e-08 2.0395e-07 -2.60132e-09)
(-6.58691e-11 -6.57257e-11 1.08171e-07)
(2.00337e-07 1.48045e-08 -3.33446e-09)
(1.1132e-08 2.03988e-07 -2.55115e-09)
(-9.02132e-11 -6.56921e-11 1.06091e-07)
(1.96742e-07 1.84963e-08 -3.99105e-09)
(1.11407e-08 2.04041e-07 -2.48946e-09)
(-1.1534e-10 -6.61663e-11 1.03999e-07)
(1.93173e-07 2.21956e-08 -4.57019e-09)
(1.11449e-08 2.04119e-07 -2.42504e-09)
(-1.42113e-10 -6.7372e-11 1.01906e-07)
(1.8963e-07 2.5905e-08 -5.07313e-09)
(1.11474e-08 2.04226e-07 -2.3626e-09)
(-1.71081e-10 -6.94862e-11 9.98143e-08)
(1.86117e-07 2.96274e-08 -5.49838e-09)
(1.11487e-08 2.04362e-07 -2.30523e-09)
(-2.01942e-10 -7.23087e-11 9.77213e-08)
(1.82635e-07 3.3365e-08 -5.84299e-09)
(1.11494e-08 2.04528e-07 -2.25554e-09)
(-2.34142e-10 -7.54161e-11 9.56265e-08)
(1.11918e-08 2.04732e-07 -2.19568e-09)
(-2.64475e-10 -7.67982e-11 9.35219e-08)
(1.79167e-07 3.7114e-08 -6.10227e-09)
(2.11252e-07 3.71533e-09 -8.89821e-10)
(1.47293e-08 2.00282e-07 -3.33449e-09)
(-1.79746e-11 -9.14875e-11 1.10153e-07)
(2.07609e-07 7.4255e-09 -1.74514e-09)
(1.47685e-08 2.00305e-07 -3.35194e-09)
(-4.22126e-11 -9.10057e-11 1.0813e-07)
(2.03986e-07 1.11307e-08 -2.54879e-09)
(1.48022e-08 2.00335e-07 -3.33469e-09)
(-6.5777e-11 -9.01549e-11 1.06087e-07)
(2.00378e-07 1.48307e-08 -3.28755e-09)
(1.48293e-08 2.00377e-07 -3.28959e-09)
(-8.94302e-11 -8.932e-11 1.04027e-07)
(1.96785e-07 1.8528e-08 -3.95258e-09)
(1.48474e-08 2.00432e-07 -3.2254e-09)
(-1.13899e-10 -8.88211e-11 1.0195e-07)
(1.93214e-07 2.22299e-08 -4.54042e-09)
(1.48564e-08 2.00506e-07 -3.15242e-09)
(-1.40038e-10 -8.88969e-11 9.98637e-08)
(1.89669e-07 2.59419e-08 -5.05075e-09)
(1.48603e-08 2.00604e-07 -3.07954e-09)
(-1.68314e-10 -8.98096e-11 9.77752e-08)
(1.86153e-07 2.96666e-08 -5.4819e-09)
(1.48633e-08 2.00729e-07 -3.01188e-09)
(-1.98186e-10 -9.16593e-11 9.56851e-08)
(1.82665e-07 3.34057e-08 -5.83146e-09)
(1.48661e-08 2.00883e-07 -2.95207e-09)
(-2.29106e-10 -9.43745e-11 9.35928e-08)
(1.49239e-08 2.01079e-07 -2.8769e-09)
(-2.55535e-10 -9.52841e-11 9.14939e-08)
(1.79189e-07 3.71541e-08 -6.098e-09)
(2.11312e-07 3.71698e-09 -8.62014e-10)
(1.84175e-08 1.96683e-07 -3.96913e-09)
(-2.11877e-11 -1.17358e-10 1.08048e-07)
(2.07666e-07 7.42998e-09 -1.697e-09)
(1.84586e-08 1.96708e-07 -3.99736e-09)
(-4.38566e-11 -1.16669e-10 1.06031e-07)
(2.04039e-07 1.11388e-08 -2.48864e-09)
(1.84952e-08 1.96742e-07 -3.99003e-09)
(-6.61494e-11 -1.15371e-10 1.03997e-07)
(2.00431e-07 1.48462e-08 -3.22315e-09)
(1.85257e-08 1.96783e-07 -3.95305e-09)
(-8.88769e-11 -1.13834e-10 1.01947e-07)
(1.9684e-07 1.85525e-08 -3.89093e-09)
(1.85508e-08 1.96839e-07 -3.89323e-09)
(-1.1259e-10 -1.12481e-10 9.98841e-08)
(1.93267e-07 2.22591e-08 -4.4853e-09)
(1.85683e-08 1.96911e-07 -3.81846e-09)
(-1.38081e-10 -1.11734e-10 9.78083e-08)
(1.89716e-07 2.59729e-08 -5.00179e-09)
(1.85766e-08 1.97002e-07 -3.73866e-09)
(-1.65667e-10 -1.11836e-10 9.57229e-08)
(1.86194e-07 2.97003e-08 -5.43726e-09)
(1.85798e-08 1.97114e-07 -3.6629e-09)
(-1.94958e-10 -1.1303e-10 9.36332e-08)
(1.82701e-07 3.34429e-08 -5.79004e-09)
(1.85844e-08 1.97256e-07 -3.59564e-09)
(-2.25277e-10 -1.156e-10 9.15425e-08)
(1.86553e-08 1.97445e-07 -3.50903e-09)
(-2.4778e-10 -1.16013e-10 8.94509e-08)
(1.79218e-07 3.71933e-08 -6.06325e-09)
(2.11402e-07 3.71781e-09 -8.34379e-10)
(2.21138e-08 1.9311e-07 -4.52903e-09)
(-2.55445e-11 -1.44862e-10 1.05945e-07)
(2.07751e-07 7.43305e-09 -1.64774e-09)
(2.21559e-08 1.93137e-07 -4.56688e-09)
(-4.64726e-11 -1.43898e-10 1.03933e-07)
(2.04118e-07 1.11442e-08 -2.42548e-09)
(2.21952e-08 1.93173e-07 -4.5689e-09)
(-6.7308e-11 -1.42191e-10 1.01906e-07)
(2.00504e-07 1.48543e-08 -3.15173e-09)
(2.22287e-08 1.93213e-07 -4.53987e-09)
(-8.88877e-11 -1.40089e-10 9.98616e-08)
(1.9691e-07 1.85669e-08 -3.81598e-09)
(2.22564e-08 1.93264e-07 -4.48639e-09)
(-1.11771e-10 -1.38041e-10 9.78053e-08)
(1.93335e-07 2.22822e-08 -4.4118e-09)
(2.22799e-08 1.93332e-07 -4.41499e-09)
(-1.3661e-10 -1.36509e-10 9.57397e-08)
(1.89778e-07 2.60006e-08 -4.93237e-09)
(2.22969e-08 1.93419e-07 -4.33288e-09)
(-1.63564e-10 -1.35852e-10 9.36615e-08)
(1.86248e-07 2.97297e-08 -5.37049e-09)
(2.23031e-08 1.93522e-07 -4.25015e-09)
(-1.92454e-10 -1.36416e-10 9.15715e-08)
(1.82747e-07 3.34763e-08 -5.72344e-09)
(2.23078e-08 1.93648e-07 -4.17532e-09)
(-2.22397e-10 -1.38344e-10 8.94781e-08)
(2.23865e-08 1.93827e-07 -4.08009e-09)
(-2.4089e-10 -1.37473e-10 8.7393e-08)
(1.79256e-07 3.72314e-08 -6.00051e-09)
(2.11523e-07 3.71804e-09 -8.08247e-10)
(2.58203e-08 1.89566e-07 -5.01534e-09)
(-3.12556e-11 -1.74869e-10 1.03844e-07)
(2.07866e-07 7.4339e-09 -1.60034e-09)
(2.58632e-08 1.89595e-07 -5.06155e-09)
(-5.01854e-11 -1.73505e-10 1.01836e-07)
(2.04226e-07 1.11473e-08 -2.36342e-09)
(2.59047e-08 1.8963e-07 -5.07192e-09)
(-6.94168e-11 -1.71157e-10 9.98146e-08)
(2.00603e-07 1.48594e-08 -3.08038e-09)
(2.59416e-08 1.8967e-07 -5.04995e-09)
(-8.97587e-11 -1.68366e-10 9.7775e-08)
(1.96999e-07 1.85736e-08 -3.73816e-09)
(2.5972e-08 1.89715e-07 -5.00159e-09)
(-1.11747e-10 -1.6564e-10 9.57203e-08)
(1.93417e-07 2.22946e-08 -4.32954e-09)
(2.59974e-08 1.89775e-07 -4.93375e-09)
(-1.35773e-10 -1.6333e-10 9.36569e-08)
(1.89856e-07 2.60216e-08 -4.84919e-09)
(2.60199e-08 1.89854e-07 -4.85257e-09)
(-1.62158e-10 -1.6183e-10 9.15854e-08)
(1.86316e-07 2.97557e-08 -5.28724e-09)
(2.6034e-08 1.89948e-07 -4.76547e-09)
(-1.90139e-10 -1.6104e-10 8.94989e-08)
(1.82802e-07 3.35059e-08 -5.63673e-09)
(2.60408e-08 1.90058e-07 -4.6819e-09)
(-2.19142e-10 -1.60788e-10 8.7401e-08)
(2.61178e-08 1.90223e-07 -4.57932e-09)
(-2.34025e-10 -1.57435e-10 8.53196e-08)
(1.79305e-07 3.72678e-08 -5.91284e-09)
(2.11678e-07 3.71764e-09 -7.84882e-10)
(2.95393e-08 1.86057e-07 -5.42703e-09)
(-3.84963e-11 -2.07775e-10 1.01746e-07)
(2.08012e-07 7.43382e-09 -1.5576e-09)
(2.95839e-08 1.86084e-07 -5.48034e-09)
(-5.47652e-11 -2.05587e-10 9.974e-08)
(2.04362e-07 1.11489e-08 -2.30602e-09)
(2.96271e-08 1.86117e-07 -5.49739e-09)
(-7.2217e-11 -2.01998e-10 9.77218e-08)
(2.00729e-07 1.48636e-08 -3.01304e-09)
(2.96664e-08 1.86153e-07 -5.48117e-09)
(-9.15364e-11 -1.98181e-10 9.56856e-08)
(1.97113e-07 1.85792e-08 -3.66408e-09)
(2.97004e-08 1.86195e-07 -5.43662e-09)
(-1.12833e-10 -1.94858e-10 9.36328e-08)
(1.93517e-07 2.23001e-08 -4.24895e-09)
(2.97289e-08 1.86246e-07 -5.37001e-09)
(-1.36002e-10 -1.92122e-10 9.15672e-08)
(1.89945e-07 2.60316e-08 -4.76218e-09)
(2.97532e-08 1.86312e-07 -5.28787e-09)
(-1.61198e-10 -1.89596e-10 8.9494e-08)
(1.86393e-07 2.97738e-08 -5.19438e-09)
(2.97729e-08 1.86392e-07 -5.19636e-09)
(-1.86661e-10 -1.86077e-10 8.7408e-08)
(1.82864e-07 3.35292e-08 -5.5358e-09)
(2.97829e-08 1.86485e-07 -5.10392e-09)
(-2.13597e-10 -1.81684e-10 8.53077e-08)
(2.98487e-08 1.86626e-07 -4.99613e-09)
(-2.25224e-10 -1.73675e-10 8.3229e-08)
(1.79359e-07 3.72998e-08 -5.80428e-09)
(2.11868e-07 3.71645e-09 -7.65659e-10)
(3.32742e-08 1.82584e-07 -5.76044e-09)
(-4.7039e-11 -2.4346e-10 9.96476e-08)
(2.08191e-07 7.43332e-09 -1.5214e-09)
(3.33206e-08 1.82607e-07 -5.81983e-09)
(-5.95399e-11 -2.39666e-10 9.76431e-08)
(2.04528e-07 1.11497e-08 -2.25613e-09)
(3.33648e-08 1.82635e-07 -5.84235e-09)
(-7.52978e-11 -2.34206e-10 9.5627e-08)
(2.00883e-07 1.48666e-08 -2.95286e-09)
(3.34056e-08 1.82665e-07 -5.83101e-09)
(-9.41977e-11 -2.29139e-10 9.35933e-08)
(1.97256e-07 1.85853e-08 -3.59668e-09)
(3.34429e-08 1.82701e-07 -5.78966e-09)
(-1.15353e-10 -2.25267e-10 9.1543e-08)
(1.93647e-07 2.23076e-08 -4.17548e-09)
(3.34764e-08 1.82746e-07 -5.72293e-09)
(-1.37875e-10 -2.22388e-10 8.94772e-08)
(1.90056e-07 2.60384e-08 -4.68051e-09)
(3.3505e-08 1.828e-07 -5.63636e-09)
(-1.60926e-10 -2.19247e-10 8.73984e-08)
(1.86483e-07 2.97811e-08 -5.10219e-09)
(3.35278e-08 1.82863e-07 -5.53626e-09)
(-1.82174e-10 -2.13587e-10 8.53059e-08)
(1.82932e-07 3.35382e-08 -5.4308e-09)
(3.35379e-08 1.82931e-07 -5.43194e-09)
(-2.03594e-10 -2.03383e-10 8.32003e-08)
(3.35786e-08 1.83026e-07 -5.31955e-09)
(-2.07374e-10 -1.82945e-10 8.11172e-08)
(1.79409e-07 3.73207e-08 -5.68151e-09)
(2.12095e-07 3.72789e-09 -7.45364e-10)
(-5.41877e-11 -2.83459e-10 9.75444e-08)
(3.70319e-08 1.79139e-07 -6.01155e-09)
(2.08405e-07 7.45962e-09 -1.48006e-09)
(-6.24646e-11 -2.74264e-10 9.55358e-08)
(3.70728e-08 1.79149e-07 -6.07363e-09)
(2.04733e-07 1.1192e-08 -2.19606e-09)
(-7.66721e-11 -2.64504e-10 9.35223e-08)
(3.71139e-08 1.79167e-07 -6.10197e-09)
(2.0108e-07 1.49241e-08 -2.87734e-09)
(-9.5116e-11 -2.55585e-10 9.14942e-08)
(3.7154e-08 1.79189e-07 -6.09786e-09)
(1.97445e-07 1.86556e-08 -3.50948e-09)
(-1.15816e-10 -2.47885e-10 8.94512e-08)
(3.71932e-08 1.79218e-07 -6.06319e-09)
(1.93827e-07 2.23865e-08 -4.08031e-09)
(-1.37244e-10 -2.4115e-10 8.73933e-08)
(3.72314e-08 1.79256e-07 -6.00046e-09)
(1.90222e-07 2.61171e-08 -4.57925e-09)
(-1.57556e-10 -2.34377e-10 8.53197e-08)
(3.72677e-08 1.79304e-07 -5.9128e-09)
(1.86624e-07 2.98473e-08 -4.99564e-09)
(-1.73816e-10 -2.25324e-10 8.32282e-08)
(3.72994e-08 1.79358e-07 -5.80436e-09)
(1.83025e-07 3.35776e-08 -5.31862e-09)
(-1.82945e-10 -2.07081e-10 8.1116e-08)
(3.73201e-08 1.79408e-07 -5.68183e-09)
(-1.76568e-10 -1.76175e-10 7.90134e-08)
(1.79452e-07 3.73282e-08 -5.55427e-09)
(3.7328e-08 1.79452e-07 -5.55481e-09)
(2.12721e-07 3.71023e-09 -9.2182e-10)
(3.70822e-09 2.12713e-07 -9.24204e-10)
(-2.47195e-11 -2.45846e-11 1.18297e-07)
(2.08982e-07 7.3989e-09 -1.77909e-09)
(3.76954e-09 2.12651e-07 -9.15922e-10)
(-7.19091e-11 -2.57102e-11 1.16148e-07)
(2.05245e-07 1.10734e-08 -2.55474e-09)
(3.78709e-09 2.1255e-07 -8.93199e-10)
(-1.1602e-10 -2.79672e-11 1.13934e-07)
(2.01524e-07 1.47497e-08 -3.25215e-09)
(3.78777e-09 2.12459e-07 -8.6687e-10)
(-1.58788e-10 -3.16165e-11 1.11718e-07)
(1.97822e-07 1.84306e-08 -3.87742e-09)
(3.78638e-09 2.12394e-07 -8.40541e-10)
(-2.01863e-10 -3.68663e-11 1.09513e-07)
(1.94141e-07 2.21175e-08 -4.43519e-09)
(3.78297e-09 2.12349e-07 -8.15104e-10)
(-2.46339e-10 -4.38591e-11 1.07317e-07)
(1.90483e-07 2.58115e-08 -4.92889e-09)
(3.77614e-09 2.1232e-07 -7.91677e-10)
(-2.92998e-10 -5.28041e-11 1.05129e-07)
(1.86852e-07 2.95136e-08 -5.36075e-09)
(3.76546e-09 2.12302e-07 -7.71742e-10)
(-3.41618e-10 -6.37624e-11 1.02949e-07)
(1.83249e-07 3.32257e-08 -5.73158e-09)
(3.75018e-09 2.12283e-07 -7.57015e-10)
(-3.90816e-10 -7.60504e-11 1.00775e-07)
(3.77002e-09 2.1226e-07 -7.43645e-10)
(-4.41372e-10 -8.51048e-11 9.85986e-08)
(1.79637e-07 3.69599e-08 -6.04275e-09)
(2.12649e-07 3.76738e-09 -9.13525e-10)
(7.395e-09 2.08976e-07 -1.78011e-09)
(-2.57956e-11 -7.17097e-11 1.1614e-07)
(2.08957e-07 7.49567e-09 -1.77353e-09)
(7.49164e-09 2.08954e-07 -1.77585e-09)
(-7.19154e-11 -7.16832e-11 1.14038e-07)
(2.0525e-07 1.11859e-08 -2.56052e-09)
(7.54431e-09 2.08891e-07 -1.74534e-09)
(-1.15466e-10 -7.20615e-11 1.11872e-07)
(2.01544e-07 1.4865e-08 -3.27044e-09)
(7.56043e-09 2.08811e-07 -1.70228e-09)
(-1.57786e-10 -7.32811e-11 1.09678e-07)
(1.97854e-07 1.85486e-08 -3.90688e-09)
(7.56037e-09 2.08742e-07 -1.65601e-09)
(-2.00418e-10 -7.5592e-11 1.07483e-07)
(1.94181e-07 2.22378e-08 -4.47452e-09)
(7.5557e-09 2.08692e-07 -1.61061e-09)
(-2.44395e-10 -7.92631e-11 1.05295e-07)
(1.90531e-07 2.59343e-08 -4.97696e-09)
(7.54349e-09 2.08658e-07 -1.56848e-09)
(-2.90389e-10 -8.4412e-11 1.03115e-07)
(1.86904e-07 2.96417e-08 -5.41631e-09)
(7.52451e-09 2.0863e-07 -1.53247e-09)
(-3.37724e-10 -9.05052e-11 1.0094e-07)
(1.83299e-07 3.33607e-08 -5.79329e-09)
(7.50004e-09 2.086e-07 -1.50518e-09)
(-3.84517e-10 -9.62454e-11 9.87677e-08)
(7.55109e-09 2.08573e-07 -1.4775e-09)
(-4.271e-10 -9.82507e-11 9.65816e-08)
(1.79671e-07 3.70832e-08 -6.10571e-09)
(2.12543e-07 3.78137e-09 -8.92102e-10)
(1.10716e-08 2.05244e-07 -2.55356e-09)
(-2.79609e-11 -1.15975e-10 1.13927e-07)
(2.08885e-07 7.54041e-09 -1.74286e-09)
(1.11796e-08 2.05244e-07 -2.56055e-09)
(-7.22003e-11 -1.15289e-10 1.11864e-07)
(2.05218e-07 1.12645e-08 -2.53387e-09)
(1.126e-08 2.05215e-07 -2.53567e-09)
(-1.14592e-10 -1.14345e-10 1.09752e-07)
(2.01539e-07 1.49603e-08 -3.25438e-09)
(1.1306e-08 2.05164e-07 -2.48908e-09)
(-1.5598e-10 -1.13697e-10 1.07598e-07)
(1.97863e-07 1.8649e-08 -3.90191e-09)
(1.13182e-08 2.05101e-07 -2.432e-09)
(-1.977e-10 -1.13676e-10 1.05423e-07)
(1.94204e-07 2.23434e-08 -4.47957e-09)
(1.13134e-08 2.05045e-07 -2.37349e-09)
(-2.40818e-10 -1.14591e-10 1.03247e-07)
(1.90563e-07 2.60453e-08 -4.99086e-09)
(1.12991e-08 2.05003e-07 -2.31868e-09)
(-2.85688e-10 -1.16622e-10 1.01076e-07)
(1.86941e-07 2.97575e-08 -5.43728e-09)
(1.12759e-08 2.04965e-07 -2.27117e-09)
(-3.31039e-10 -1.19278e-10 9.89064e-08)
(1.83337e-07 3.34805e-08 -5.81977e-09)
(1.12446e-08 2.04924e-07 -2.23449e-09)
(-3.74991e-10 -1.21677e-10 9.67383e-08)
(1.13316e-08 2.049e-07 -2.19458e-09)
(-4.11332e-10 -1.20507e-10 9.4556e-08)
(1.79704e-07 3.71973e-08 -6.13675e-09)
(2.12456e-07 3.78627e-09 -8.67071e-10)
(1.47496e-08 2.01525e-07 -3.25017e-09)
(-3.15713e-11 -1.58894e-10 1.11717e-07)
(2.08804e-07 7.5544e-09 -1.70139e-09)
(1.48623e-08 2.01543e-07 -3.26886e-09)
(-7.32919e-11 -1.57838e-10 1.09672e-07)
(2.05159e-07 1.1302e-08 -2.48701e-09)
(1.49535e-08 2.01533e-07 -3.25417e-09)
(-1.13839e-10 -1.55883e-10 1.07591e-07)
(2.01508e-07 1.50253e-08 -3.21188e-09)
(1.50211e-08 2.01505e-07 -3.21343e-09)
(-1.53868e-10 -1.53685e-10 1.05476e-07)
(1.97849e-07 1.87281e-08 -3.86852e-09)
(1.50576e-08 2.01461e-07 -3.15522e-09)
(-1.94303e-10 -1.51748e-10 1.0333e-07)
(1.94197e-07 2.24277e-08 -4.45545e-09)
(1.50621e-08 2.01407e-07 -3.08988e-09)
(-2.36184e-10 -1.504e-10 1.01167e-07)
(1.90562e-07 2.6136e-08 -4.97477e-09)
(1.50452e-08 2.01355e-07 -3.02684e-09)
(-2.79754e-10 -1.49964e-10 9.90027e-08)
(1.86945e-07 2.98542e-08 -5.4277e-09)
(1.50186e-08 2.01305e-07 -2.97209e-09)
(-3.23391e-10 -1.50421e-10 9.6839e-08)
(1.83342e-07 3.35817e-08 -5.81548e-09)
(1.49836e-08 2.01253e-07 -2.92946e-09)
(-3.65304e-10 -1.51414e-10 9.46755e-08)
(1.51055e-08 2.01236e-07 -2.88039e-09)
(-3.95887e-10 -1.48582e-10 9.25032e-08)
(1.79708e-07 3.72988e-08 -6.139e-09)
(2.12393e-07 3.78654e-09 -8.41e-10)
(1.84303e-08 1.97824e-07 -3.87529e-09)
(-3.68422e-11 -2.0203e-10 1.09514e-07)
(2.0874e-07 7.55859e-09 -1.65651e-09)
(1.85477e-08 1.97855e-07 -3.90495e-09)
(-7.55485e-11 -2.0058e-10 1.07482e-07)
(2.05094e-07 1.13126e-08 -2.43142e-09)
(1.8646e-08 1.97862e-07 -3.90051e-09)
(-1.13642e-10 -1.97759e-10 1.05418e-07)
(2.01457e-07 1.50541e-08 -3.15336e-09)
(1.87214e-08 1.97844e-07 -3.86843e-09)
(-1.51834e-10 -1.94196e-10 1.03324e-07)
(1.97818e-07 1.87803e-08 -3.81407e-09)
(1.87753e-08 1.97813e-07 -3.81572e-09)
(-1.90736e-10 -1.9056e-10 1.01205e-07)
(1.94173e-07 2.24908e-08 -4.40857e-09)
(1.88001e-08 1.97772e-07 -3.75045e-09)
(-2.31276e-10 -1.87471e-10 9.90634e-08)
(1.90535e-07 2.62018e-08 -4.93492e-09)
(1.87903e-08 1.97717e-07 -3.68279e-09)
(-2.73436e-10 -1.852e-10 9.69052e-08)
(1.86918e-07 2.99264e-08 -5.39319e-09)
(1.87567e-08 1.97652e-07 -3.62282e-09)
(-3.15855e-10 -1.83934e-10 9.47422e-08)
(1.83316e-07 3.36627e-08 -5.78522e-09)
(1.87172e-08 1.97585e-07 -3.57682e-09)
(-3.56585e-10 -1.83834e-10 9.25818e-08)
(1.88682e-08 1.97575e-07 -3.52222e-09)
(-3.81175e-10 -1.79228e-10 9.0423e-08)
(1.79687e-07 3.73867e-08 -6.11548e-09)
(2.12349e-07 3.78305e-09 -8.15516e-10)
(2.21172e-08 1.94142e-07 -4.43304e-09)
(-4.385e-11 -2.46502e-10 1.07318e-07)
(2.08692e-07 7.5559e-09 -1.61142e-09)
(2.2237e-08 1.94182e-07 -4.47257e-09)
(-7.92057e-11 -2.44554e-10 1.05296e-07)
(2.05043e-07 1.13115e-08 -2.37422e-09)
(2.23422e-08 1.94205e-07 -4.47792e-09)
(-1.14478e-10 -2.40959e-10 1.03246e-07)
(2.01402e-07 1.50556e-08 -3.08951e-09)
(2.24244e-08 1.94196e-07 -4.45439e-09)
(-1.50378e-10 -2.36276e-10 1.01163e-07)
(1.9777e-07 1.87958e-08 -3.74844e-09)
(2.2483e-08 1.94166e-07 -4.40888e-09)
(-1.87524e-10 -2.31214e-10 9.90574e-08)
(1.94138e-07 2.25283e-08 -4.34627e-09)
(2.25215e-08 1.9413e-07 -4.34861e-09)
(-2.26608e-10 -2.26453e-10 9.69357e-08)
(1.905e-07 2.62494e-08 -4.87828e-09)
(2.25322e-08 1.94083e-07 -4.2812e-09)
(-2.67337e-10 -2.22425e-10 9.47919e-08)
(1.86873e-07 2.9976e-08 -5.34062e-09)
(2.25003e-08 1.94008e-07 -4.21731e-09)
(-3.08677e-10 -2.1946e-10 9.26283e-08)
(1.83264e-07 3.37215e-08 -5.73442e-09)
(2.24521e-08 1.93919e-07 -4.16761e-09)
(-3.48331e-10 -2.17454e-10 9.04627e-08)
(2.26171e-08 1.9391e-07 -4.10982e-09)
(-3.66634e-10 -2.09854e-10 8.83157e-08)
(1.79641e-07 3.74597e-08 -6.06945e-09)
(2.12321e-07 3.77619e-09 -7.92065e-10)
(2.58113e-08 1.90484e-07 -4.92689e-09)
(-5.27973e-11 -2.93161e-10 1.0513e-07)
(2.08658e-07 7.54354e-09 -1.56924e-09)
(2.59336e-08 1.90532e-07 -4.97513e-09)
(-8.43461e-11 -2.90542e-10 1.03116e-07)
(2.05003e-07 1.12989e-08 -2.3198e-09)
(2.60443e-08 1.90564e-07 -4.98928e-09)
(-1.16501e-10 -2.85825e-10 1.01077e-07)
(2.01353e-07 1.50424e-08 -3.02804e-09)
(2.6135e-08 1.90564e-07 -4.97348e-09)
(-1.49874e-10 -2.7985e-10 9.90023e-08)
(1.9771e-07 1.87814e-08 -3.68261e-09)
(2.61992e-08 1.90534e-07 -4.93404e-09)
(-1.85048e-10 -2.73394e-10 9.69e-08)
(1.94078e-07 2.25256e-08 -4.27834e-09)
(2.624e-08 1.90489e-07 -4.87863e-09)
(-2.22287e-10 -2.66962e-10 9.47826e-08)
(1.90447e-07 2.62671e-08 -4.81201e-09)
(2.62621e-08 1.90441e-07 -4.81443e-09)
(-2.6156e-10 -2.61052e-10 9.26524e-08)
(1.86811e-07 3.00048e-08 -5.27643e-09)
(2.62476e-08 1.90365e-07 -4.74943e-09)
(-3.00911e-10 -2.55285e-10 9.04954e-08)
(1.83184e-07 3.37582e-08 -5.66867e-09)
(2.61978e-08 1.90254e-07 -4.69467e-09)
(-3.38431e-10 -2.49045e-10 8.83203e-08)
(2.63495e-08 1.90231e-07 -4.63392e-09)
(-3.50976e-10 -2.36761e-10 8.61794e-08)
(1.79569e-07 3.75158e-08 -6.00433e-09)
(2.12303e-07 3.76559e-09 -7.72106e-10)
(2.95134e-08 1.86853e-07 -5.35906e-09)
(-6.37527e-11 -3.41789e-10 1.0295e-07)
(2.08631e-07 7.52478e-09 -1.53319e-09)
(2.96411e-08 1.86905e-07 -5.41475e-09)
(-9.04201e-11 -3.37874e-10 1.00941e-07)
(2.04965e-07 1.12764e-08 -2.27227e-09)
(2.97569e-08 1.86942e-07 -5.43588e-09)
(-1.19119e-10 -3.31142e-10 9.89075e-08)
(2.01305e-07 1.50195e-08 -2.97367e-09)
(2.98539e-08 1.86946e-07 -5.42643e-09)
(-1.50212e-10 -3.23391e-10 9.68399e-08)
(1.97648e-07 1.8755e-08 -3.62443e-09)
(2.99269e-08 1.8692e-07 -5.39189e-09)
(-1.8361e-10 -3.15699e-10 9.47414e-08)
(1.93997e-07 2.24918e-08 -4.21638e-09)
(2.99738e-08 1.86868e-07 -5.33921e-09)
(-2.18794e-10 -3.08137e-10 9.26198e-08)
(1.90356e-07 2.62407e-08 -4.74656e-09)
(2.99975e-08 1.86802e-07 -5.27592e-09)
(-2.55514e-10 -3.00039e-10 9.04857e-08)
(1.86712e-07 2.9998e-08 -5.20786e-09)
(2.99955e-08 1.86711e-07 -5.209e-09)
(-2.90324e-10 -2.89408e-10 8.83289e-08)
(1.8307e-07 3.37649e-08 -5.59414e-09)
(2.99497e-08 1.86581e-07 -5.14825e-09)
(-3.24007e-10 -2.76191e-10 8.61476e-08)
(3.00622e-08 1.86531e-07 -5.08477e-09)
(-3.31481e-10 -2.5644e-10 8.40095e-08)
(1.79464e-07 3.75484e-08 -5.92383e-09)
(2.12284e-07 3.75037e-09 -7.57336e-10)
(3.32255e-08 1.8325e-07 -5.73031e-09)
(-7.60344e-11 -3.90967e-10 1.00776e-07)
(2.08602e-07 7.50047e-09 -1.5058e-09)
(3.33602e-08 1.833e-07 -5.79212e-09)
(-9.61409e-11 -3.84658e-10 9.8769e-08)
(2.04925e-07 1.12453e-08 -2.23541e-09)
(3.348e-08 1.83338e-07 -5.8187e-09)
(-1.21473e-10 -3.75102e-10 9.67394e-08)
(2.01254e-07 1.4985e-08 -2.93068e-09)
(3.35814e-08 1.83342e-07 -5.81446e-09)
(-1.51115e-10 -3.65362e-10 9.46766e-08)
(1.97586e-07 1.872e-08 -3.57838e-09)
(3.36628e-08 1.83316e-07 -5.78413e-09)
(-1.83428e-10 -3.56572e-10 9.25829e-08)
(1.93917e-07 2.24517e-08 -4.16821e-09)
(3.37221e-08 1.83263e-07 -5.73308e-09)
(-2.16706e-10 -3.4831e-10 9.04609e-08)
(1.90247e-07 2.6191e-08 -4.6936e-09)
(3.37559e-08 1.83182e-07 -5.6674e-09)
(-2.49252e-10 -3.3858e-10 8.83153e-08)
(1.86576e-07 2.99447e-08 -5.14695e-09)
(3.37606e-08 1.83067e-07 -5.59373e-09)
(-2.76969e-10 -3.23995e-10 8.6144e-08)
(1.8291e-07 3.37161e-08 -5.52141e-09)
(3.37151e-08 1.82908e-07 -5.52193e-09)
(-3.02088e-10 -3.01774e-10 8.39485e-08)
(3.37558e-08 1.82785e-07 -5.45095e-09)
(-2.98583e-10 -2.64351e-10 8.17946e-08)
(1.79307e-07 3.7543e-08 -5.83259e-09)
(2.12262e-07 3.77024e-09 -7.43905e-10)
(-8.50706e-11 -4.41399e-10 9.85999e-08)
(3.69598e-08 1.79637e-07 -6.04189e-09)
(2.08575e-07 7.55152e-09 -1.47799e-09)
(-9.81278e-11 -4.27131e-10 9.65827e-08)
(3.70828e-08 1.79672e-07 -6.10493e-09)
(2.04901e-07 1.13322e-08 -2.19527e-09)
(-1.20289e-10 -4.11374e-10 9.4557e-08)
(3.71969e-08 1.79704e-07 -6.13604e-09)
(2.01237e-07 1.51063e-08 -2.88123e-09)
(-1.48296e-10 -3.95964e-10 9.25041e-08)
(3.72986e-08 1.79709e-07 -6.13832e-09)
(1.97577e-07 1.88692e-08 -3.52312e-09)
(-1.78901e-10 -3.81342e-10 9.04237e-08)
(3.73867e-08 1.79687e-07 -6.11479e-09)
(1.93911e-07 2.26173e-08 -4.1105e-09)
(-2.09485e-10 -3.67049e-10 8.83163e-08)
(3.74598e-08 1.7964e-07 -6.06871e-09)
(1.90231e-07 2.63479e-08 -4.63426e-09)
(-2.36952e-10 -3.51538e-10 8.61797e-08)
(3.75155e-08 1.79569e-07 -6.00362e-09)
(1.86527e-07 3.00586e-08 -5.08455e-09)
(-2.56695e-10 -3.31654e-10 8.4008e-08)
(3.75475e-08 1.79463e-07 -5.92326e-09)
(1.82782e-07 3.37532e-08 -5.45027e-09)
(-2.64362e-10 -2.98164e-10 8.1792e-08)
(3.75413e-08 1.79305e-07 -5.83226e-09)
(-2.48691e-10 -2.48131e-10 7.95881e-08)
(1.79114e-07 3.74973e-08 -5.73792e-09)
(3.74965e-08 1.79113e-07 -5.73804e-09)
(2.13979e-07 3.72844e-09 -8.62952e-10)
(3.72521e-09 2.13966e-07 -8.64961e-10)
(-3.00805e-11 -2.9918e-11 1.20025e-07)
(2.10169e-07 7.42054e-09 -1.66616e-09)
(3.82434e-09 2.13845e-07 -8.57495e-10)
(-8.67644e-11 -3.11996e-11 1.17808e-07)
(2.06341e-07 1.10872e-08 -2.3944e-09)
(3.85133e-09 2.13638e-07 -8.36702e-10)
(-1.39188e-10 -3.37425e-11 1.15499e-07)
(2.0252e-07 1.47534e-08 -3.05204e-09)
(3.85052e-09 2.13427e-07 -8.12811e-10)
(-1.88831e-10 -3.78045e-11 1.13189e-07)
(1.9871e-07 1.84221e-08 -3.64621e-09)
(3.84581e-09 2.13235e-07 -7.89299e-10)
(-2.37208e-10 -4.35427e-11 1.10897e-07)
(1.94912e-07 2.20938e-08 -4.18288e-09)
(3.83712e-09 2.13055e-07 -7.67086e-10)
(-2.8502e-10 -5.0982e-11 1.08621e-07)
(1.91129e-07 2.57688e-08 -4.66729e-09)
(3.82201e-09 2.12878e-07 -7.47326e-10)
(-3.32421e-10 -6.01559e-11 1.06361e-07)
(1.87366e-07 2.94464e-08 -5.104e-09)
(3.79956e-09 2.12692e-07 -7.3157e-10)
(-3.78221e-10 -7.08596e-11 1.04117e-07)
(1.83627e-07 3.31282e-08 -5.49658e-09)
(3.76825e-09 2.1248e-07 -7.21654e-10)
(-4.1976e-10 -8.20062e-11 1.01889e-07)
(3.79317e-09 2.12238e-07 -7.14923e-10)
(-4.56484e-10 -8.85327e-11 9.96658e-08)
(1.79849e-07 3.68351e-08 -5.84878e-09)
(2.1384e-07 3.82082e-09 -8.55445e-10)
(7.41427e-09 2.1016e-07 -1.66671e-09)
(-3.1301e-11 -8.65235e-11 1.17797e-07)
(2.10109e-07 7.57677e-09 -1.66165e-09)
(7.57027e-09 2.10103e-07 -1.6634e-09)
(-8.65758e-11 -8.62975e-11 1.1565e-07)
(2.0633e-07 1.12684e-08 -2.40092e-09)
(7.65302e-09 2.0996e-07 -1.63594e-09)
(-1.38233e-10 -8.63382e-11 1.1341e-07)
(2.02535e-07 1.49384e-08 -3.07063e-09)
(7.67541e-09 2.0977e-07 -1.59717e-09)
(-1.87268e-10 -8.71454e-11 1.11132e-07)
(1.98745e-07 1.86109e-08 -3.67567e-09)
(7.67038e-09 2.09576e-07 -1.55608e-09)
(-2.35062e-10 -8.89556e-11 1.08855e-07)
(1.94963e-07 2.22861e-08 -4.22205e-09)
(7.65652e-09 2.09393e-07 -1.51675e-09)
(-2.82258e-10 -9.19709e-11 1.06592e-07)
(1.91195e-07 2.59649e-08 -4.71516e-09)
(7.62869e-09 2.09211e-07 -1.48161e-09)
(-3.28913e-10 -9.6171e-11 1.04342e-07)
(1.87442e-07 2.96517e-08 -5.15934e-09)
(7.58781e-09 2.09016e-07 -1.45367e-09)
(-3.73387e-10 -1.00772e-10 1.02106e-07)
(1.83703e-07 3.33465e-08 -5.55786e-09)
(7.53545e-09 2.08793e-07 -1.43579e-09)
(-4.12599e-10 -1.04178e-10 9.98803e-08)
(7.60493e-09 2.08552e-07 -1.42124e-09)
(-4.41651e-10 -1.02766e-10 9.764e-08)
(1.79906e-07 3.70364e-08 -5.91002e-09)
(2.13625e-07 3.84202e-09 -8.35831e-10)
(1.10844e-08 2.06341e-07 -2.39285e-09)
(-3.37338e-11 -1.39137e-10 1.15489e-07)
(2.09951e-07 7.64665e-09 -1.63398e-09)
(1.12582e-08 2.06322e-07 -2.40041e-09)
(-8.6502e-11 -1.38023e-10 1.13399e-07)
(2.06241e-07 1.13922e-08 -2.37779e-09)
(1.13849e-08 2.06237e-07 -2.37889e-09)
(-1.36579e-10 -1.36289e-10 1.11239e-07)
(2.02491e-07 1.5088e-08 -3.0581e-09)
(1.1454e-08 2.06095e-07 -2.3378e-09)
(-1.8435e-10 -1.34576e-10 1.09019e-07)
(1.98728e-07 1.87676e-08 -3.67414e-09)
(1.14666e-08 2.05916e-07 -2.28776e-09)
(-2.30939e-10 -1.33234e-10 1.0677e-07)
(1.94971e-07 2.24502e-08 -4.23055e-09)
(1.14495e-08 2.05728e-07 -2.23766e-09)
(-2.77038e-10 -1.32533e-10 1.04524e-07)
(1.91222e-07 2.61371e-08 -4.73254e-09)
(1.14144e-08 2.0554e-07 -2.19274e-09)
(-3.22389e-10 -1.32551e-10 1.02289e-07)
(1.87482e-07 2.98316e-08 -5.18373e-09)
(1.13619e-08 2.05335e-07 -2.15683e-09)
(-3.64758e-10 -1.32579e-10 1.00061e-07)
(1.83751e-07 3.35328e-08 -5.58737e-09)
(1.12926e-08 2.05102e-07 -2.13382e-09)
(-4.01221e-10 -1.31501e-10 9.78399e-08)
(1.14154e-08 2.04876e-07 -2.11313e-09)
(-4.24503e-10 -1.2581e-10 9.56032e-08)
(1.79954e-07 3.7214e-08 -5.94268e-09)
(2.13421e-07 3.84807e-09 -8.13193e-10)
(1.47534e-08 2.02523e-07 -3.04971e-09)
(-3.77507e-11 -1.88967e-10 1.13187e-07)
(2.09759e-07 7.66558e-09 -1.59669e-09)
(1.49342e-08 2.02534e-07 -3.0686e-09)
(-8.71564e-11 -1.87336e-10 1.11124e-07)
(2.06088e-07 1.14474e-08 -2.33638e-09)
(1.5077e-08 2.02483e-07 -3.05722e-09)
(-1.34739e-10 -1.84241e-10 1.09009e-07)
(2.02389e-07 1.51864e-08 -3.02188e-09)
(1.51796e-08 2.02383e-07 -3.02259e-09)
(-1.80652e-10 -1.80444e-10 1.06846e-07)
(1.98657e-07 1.88873e-08 -3.64738e-09)
(1.52297e-08 2.0224e-07 -2.97284e-09)
(-2.25514e-10 -1.76488e-10 1.04641e-07)
(1.94916e-07 2.25771e-08 -4.21321e-09)
(1.52247e-08 2.02061e-07 -2.91791e-09)
(-2.69996e-10 -1.72677e-10 1.02413e-07)
(1.91182e-07 2.62733e-08 -4.72341e-09)
(1.51817e-08 2.01863e-07 -2.86724e-09)
(-3.13742e-10 -1.69257e-10 1.00187e-07)
(1.87456e-07 2.99765e-08 -5.18122e-09)
(1.51192e-08 2.01647e-07 -2.8272e-09)
(-3.54192e-10 -1.6604e-10 9.79671e-08)
(1.83733e-07 3.36841e-08 -5.58995e-09)
(1.50384e-08 2.01405e-07 -2.80215e-09)
(-3.88624e-10 -1.62452e-10 9.57526e-08)
(1.52135e-08 2.012e-07 -2.77788e-09)
(-4.06515e-10 -1.53912e-10 9.35286e-08)
(1.79946e-07 3.73654e-08 -5.95056e-09)
(2.13234e-07 3.84607e-09 -7.89951e-10)
(1.84217e-08 1.98712e-07 -3.64369e-09)
(-4.35146e-11 -2.37421e-10 1.10898e-07)
(2.09572e-07 7.66748e-09 -1.55696e-09)
(1.86096e-08 1.98747e-07 -3.67329e-09)
(-8.89029e-11 -2.35265e-10 1.08854e-07)
(2.05906e-07 1.14575e-08 -2.28773e-09)
(1.8763e-08 1.98726e-07 -3.67212e-09)
(-1.33191e-10 -2.31017e-10 1.06764e-07)
(2.02234e-07 1.52238e-08 -2.97176e-09)
(1.88767e-08 1.98648e-07 -3.6464e-09)
(-1.7658e-10 -2.25396e-10 1.04632e-07)
(1.98539e-07 1.89608e-08 -3.60244e-09)
(1.89528e-08 1.98531e-07 -3.60304e-09)
(-2.19326e-10 -2.19133e-10 1.02466e-07)
(1.94816e-07 2.26664e-08 -4.17647e-09)
(1.89783e-08 1.98381e-07 -3.5499e-09)
(-2.61971e-10 -2.12852e-10 1.00269e-07)
(1.91085e-07 2.63654e-08 -4.69407e-09)
(1.89436e-08 1.98186e-07 -3.49689e-09)
(-3.0387e-10 -2.06739e-10 9.80525e-08)
(1.87366e-07 3.00773e-08 -5.15759e-09)
(1.88651e-08 1.97952e-07 -3.45433e-09)
(-3.42779e-10 -2.00816e-10 9.58329e-08)
(1.83652e-07 3.37978e-08 -5.57079e-09)
(1.87716e-08 1.97696e-07 -3.42941e-09)
(-3.75878e-10 -1.95029e-10 9.36223e-08)