/*--------------------------------*- C++ -*----------------------------------*\
| =========                 |                                                 |
| \\      /  F ield         | foam-extend: Open Source CFD                    |
|  \\    /   O peration     | Version:     3.1                                |
|   \\  /    A nd           | Web:         http://www.extend-project.de       |
|    \\/     M anipulation  |                                                 |
\*---------------------------------------------------------------------------*/
FoamFile
{
    version     2.0;
    format      ascii;
    class       surfaceVectorField;
    location    "0.0019";
    object      Sf_0;
}
// * * * * * * * * * * * * * * * * * * * * * * * * * * * * * * * * * * * * * //

dimensions      [0 2 0 0 0 0 0];

internalField   nonuniform List<vector> 
45800
(
(2.11179e-07 3.68658e-09 -9.3464e-10)
(3.6859e-09 2.11177e-07 -9.37099e-10)
(-1.38399e-11 -1.37629e-11 1.16425e-07)
(2.07514e-07 7.36706e-09 -1.80394e-09)
(3.7065e-09 2.11177e-07 -9.28487e-10)
(-4.08475e-11 -1.44335e-11 1.14351e-07)
(2.03867e-07 1.10449e-08 -2.59023e-09)
(3.71304e-09 2.11184e-07 -9.05421e-10)
(-6.62201e-11 -1.57846e-11 1.12244e-07)
(2.00244e-07 1.47267e-08 -3.29609e-09)
(3.71434e-09 2.11215e-07 -8.78583e-10)
(-9.1298e-11 -1.79903e-11 1.10136e-07)
(1.96646e-07 1.84145e-08 -3.92655e-09)
(3.71537e-09 2.11277e-07 -8.51482e-10)
(-1.1722e-10 -2.12088e-11 1.08033e-07)
(1.93074e-07 2.21102e-08 -4.48461e-09)
(3.7162e-09 2.11369e-07 -8.24927e-10)
(-1.44882e-10 -2.5584e-11 1.05933e-07)
(1.89533e-07 2.58162e-08 -4.97131e-09)
(3.71645e-09 2.11492e-07 -7.99911e-10)
(-1.75113e-10 -3.13341e-11 1.03836e-07)
(1.86025e-07 2.95349e-08 -5.38541e-09)
(3.71606e-09 2.1165e-07 -7.77694e-10)
(-2.083e-10 -3.86323e-11 1.01741e-07)
(1.82555e-07 3.32695e-08 -5.72299e-09)
(3.71491e-09 2.11842e-07 -7.59644e-10)
(-2.44327e-10 -4.72487e-11 9.96457e-08)
(3.72636e-09 2.12073e-07 -7.40543e-10)
(-2.8476e-10 -5.44762e-11 9.75452e-08)
(1.79113e-07 3.70272e-08 -5.97976e-09)
(2.11176e-07 3.70579e-09 -9.26043e-10)
(7.36576e-09 2.07512e-07 -1.80505e-09)
(-1.44835e-11 -4.07362e-11 1.14347e-07)
(2.07525e-07 7.39966e-09 -1.79774e-09)
(7.3983e-09 2.07524e-07 -1.80019e-09)
(-4.09294e-11 -4.07988e-11 1.12296e-07)
(2.03887e-07 1.1083e-08 -2.59516e-09)
(7.41718e-09 2.07542e-07 -1.76893e-09)
(-6.60147e-11 -4.11818e-11 1.10212e-07)
(2.00267e-07 1.47659e-08 -3.31339e-09)
(7.42466e-09 2.07575e-07 -1.72482e-09)
(-9.08661e-11 -4.21453e-11 1.08115e-07)
(1.96672e-07 1.84548e-08 -3.95478e-09)
(7.42758e-09 2.07632e-07 -1.67707e-09)
(-1.16555e-10 -4.38599e-11 1.06017e-07)
(1.93102e-07 2.21516e-08 -4.52237e-09)
(7.42991e-09 2.07718e-07 -1.62946e-09)
(-1.4394e-10 -4.65328e-11 1.03922e-07)
(1.89561e-07 2.58585e-08 -5.01736e-09)
(7.4308e-09 2.07836e-07 -1.58416e-09)
(-1.73771e-10 -5.03095e-11 1.01828e-07)
(1.86053e-07 2.95789e-08 -5.43851e-09)
(7.4307e-09 2.07985e-07 -1.5436e-09)
(-2.06133e-10 -5.49687e-11 9.97356e-08)
(1.82578e-07 3.33154e-08 -5.78209e-09)
(7.43027e-09 2.08166e-07 -1.50965e-09)
(-2.40536e-10 -5.98271e-11 9.76415e-08)
(7.4566e-09 2.08383e-07 -1.47062e-09)
(-2.75526e-10 -6.28243e-11 9.55367e-08)
(1.79123e-07 3.70677e-08 -6.0414e-09)
(2.11181e-07 3.71114e-09 -9.0432e-10)
(1.10443e-08 2.03867e-07 -2.58909e-09)
(-1.5783e-11 -6.61954e-11 1.12241e-07)
(2.0754e-07 7.4159e-09 -1.76638e-09)
(1.10809e-08 2.03885e-07 -2.59534e-09)
(-4.12611e-11 -6.59156e-11 1.10209e-07)
(2.03913e-07 1.11111e-08 -2.56737e-09)
(1.11096e-08 2.03912e-07 -2.56937e-09)
(-6.5761e-11 -6.56204e-11 1.08152e-07)
(2.003e-07 1.48002e-08 -3.29583e-09)
(1.1128e-08 2.03951e-07 -2.52106e-09)
(-9.0138e-11 -6.56316e-11 1.06075e-07)
(1.96707e-07 1.84913e-08 -3.94795e-09)
(1.11364e-08 2.04007e-07 -2.46168e-09)
(-1.15355e-10 -6.61614e-11 1.03986e-07)
(1.93139e-07 2.21902e-08 -4.52505e-09)
(1.11405e-08 2.04087e-07 -2.3999e-09)
(-1.42282e-10 -6.74325e-11 1.01897e-07)
(1.89598e-07 2.58993e-08 -5.02829e-09)
(1.1143e-08 2.04196e-07 -2.3403e-09)
(-1.71464e-10 -6.96209e-11 9.98079e-08)
(1.86087e-07 2.96214e-08 -5.45599e-09)
(1.11444e-08 2.04335e-07 -2.2859e-09)
(-2.02593e-10 -7.25234e-11 9.77179e-08)
(1.82607e-07 3.3359e-08 -5.80486e-09)
(1.11452e-08 2.04504e-07 -2.23922e-09)
(-2.35097e-10 -7.57114e-11 9.56258e-08)
(1.11876e-08 2.04711e-07 -2.18242e-09)
(-2.6573e-10 -7.71598e-11 9.35234e-08)
(1.79142e-07 3.71082e-08 -6.06974e-09)
(2.11214e-07 3.71385e-09 -8.78747e-10)
(1.47267e-08 2.00244e-07 -3.29413e-09)
(-1.79652e-11 -9.13562e-11 1.10135e-07)
(2.07572e-07 7.42266e-09 -1.72389e-09)
(1.4765e-08 2.00267e-07 -3.3119e-09)
(-4.21516e-11 -9.08939e-11 1.08113e-07)
(2.0395e-07 1.11267e-08 -2.51887e-09)
(1.47978e-08 2.00298e-07 -3.29586e-09)
(-6.57138e-11 -9.00815e-11 1.06072e-07)
(2.00343e-07 1.48258e-08 -3.25093e-09)
(1.48243e-08 2.00342e-07 -3.25277e-09)
(-8.9409e-11 -8.93007e-11 1.04013e-07)
(1.96751e-07 1.85224e-08 -3.91148e-09)
(1.48421e-08 2.00399e-07 -3.19121e-09)
(-1.13972e-10 -8.88685e-11 1.01939e-07)
(1.93181e-07 2.22237e-08 -4.49719e-09)
(1.48509e-08 2.00474e-07 -3.12132e-09)
(-1.40262e-10 -8.90213e-11 9.98556e-08)
(1.89638e-07 2.59354e-08 -5.00763e-09)
(1.48547e-08 2.00575e-07 -3.05184e-09)
(-1.68746e-10 -9.00188e-11 9.77699e-08)
(1.86123e-07 2.96599e-08 -5.44098e-09)
(1.48577e-08 2.00702e-07 -2.98776e-09)
(-1.98872e-10 -9.19583e-11 9.56825e-08)
(1.82638e-07 3.33991e-08 -5.7945e-09)
(1.48607e-08 2.00859e-07 -2.93163e-09)
(-2.30078e-10 -9.47637e-11 9.35926e-08)
(1.49185e-08 2.01058e-07 -2.8602e-09)
(-2.56775e-10 -9.57448e-11 9.14956e-08)
(1.79164e-07 3.71477e-08 -6.06623e-09)
(2.11276e-07 3.71543e-09 -8.51878e-10)
(1.84144e-08 1.96646e-07 -3.92443e-09)
(-2.11945e-11 -1.17312e-10 1.08033e-07)
(2.07631e-07 7.427e-09 -1.67747e-09)
(1.84545e-08 1.96672e-07 -3.9529e-09)
(-4.38343e-11 -1.16645e-10 1.06017e-07)
(2.04005e-07 1.11345e-08 -2.46101e-09)
(1.84902e-08 1.96706e-07 -3.94673e-09)
(-6.61421e-11 -1.15387e-10 1.03984e-07)
(2.00398e-07 1.48409e-08 -3.18915e-09)
(1.85201e-08 1.96749e-07 -3.91176e-09)
(-8.89224e-11 -1.13908e-10 1.01936e-07)
(1.96808e-07 1.85464e-08 -3.85257e-09)
(1.85447e-08 1.96806e-07 -3.85466e-09)
(-1.12734e-10 -1.12627e-10 9.98754e-08)
(1.93235e-07 2.22524e-08 -4.44472e-09)
(1.85619e-08 1.9688e-07 -3.78319e-09)
(-1.38375e-10 -1.11962e-10 9.78019e-08)
(1.89686e-07 2.59659e-08 -4.96114e-09)
(1.85701e-08 1.96973e-07 -3.70712e-09)
(-1.66161e-10 -1.12154e-10 9.5719e-08)
(1.86166e-07 2.96931e-08 -5.39853e-09)
(1.85733e-08 1.97089e-07 -3.63534e-09)
(-1.95694e-10 -1.13442e-10 9.36317e-08)
(1.82675e-07 3.34357e-08 -5.75494e-09)
(1.8578e-08 1.97233e-07 -3.5722e-09)
(-2.26283e-10 -1.16108e-10 9.15431e-08)
(1.86491e-08 1.97424e-07 -3.48979e-09)
(-2.49015e-10 -1.16592e-10 8.9453e-08)
(1.79194e-07 3.71864e-08 -6.03288e-09)
(2.11368e-07 3.71624e-09 -8.25274e-10)
(2.21101e-08 1.93075e-07 -4.48249e-09)
(-2.55781e-11 -1.44972e-10 1.05934e-07)
(2.07718e-07 7.42998e-09 -1.63013e-09)
(2.21513e-08 1.93102e-07 -4.52048e-09)
(-4.6499e-11 -1.44027e-10 1.03922e-07)
(2.04086e-07 1.11398e-08 -2.40045e-09)
(2.21898e-08 1.93139e-07 -4.52356e-09)
(-6.73664e-11 -1.4236e-10 1.01896e-07)
(2.00473e-07 1.48487e-08 -3.12078e-09)
(2.22225e-08 1.9318e-07 -4.49644e-09)
(-8.90101e-11 -1.40314e-10 9.98535e-08)
(1.9688e-07 1.85604e-08 -3.7809e-09)
(2.22497e-08 1.93233e-07 -4.44561e-09)
(-1.11997e-10 -1.38335e-10 9.7799e-08)
(1.93306e-07 2.22751e-08 -4.37451e-09)
(2.22728e-08 1.93303e-07 -4.37751e-09)
(-1.36985e-10 -1.36884e-10 9.57352e-08)
(1.8975e-07 2.59931e-08 -4.89484e-09)
(2.22896e-08 1.93392e-07 -4.2992e-09)
(-1.64131e-10 -1.36316e-10 9.36591e-08)
(1.86221e-07 2.97221e-08 -5.33461e-09)
(2.22958e-08 1.93497e-07 -4.22063e-09)
(-1.93252e-10 -1.36973e-10 9.15712e-08)
(1.82722e-07 3.34687e-08 -5.69083e-09)
(2.23007e-08 1.93625e-07 -4.15014e-09)
(-2.23446e-10 -1.38992e-10 8.94797e-08)
(2.23796e-08 1.93807e-07 -4.05932e-09)
(-2.42129e-10 -1.38184e-10 8.73957e-08)
(1.79233e-07 3.72241e-08 -5.97212e-09)
(2.11493e-07 3.71647e-09 -8.00232e-10)
(2.58161e-08 1.89534e-07 -4.96935e-09)
(-3.13295e-11 -1.75203e-10 1.03837e-07)
(2.07836e-07 7.43083e-09 -1.58479e-09)
(2.58582e-08 1.89562e-07 -5.01562e-09)
(-5.02708e-11 -1.73855e-10 1.01829e-07)
(2.04196e-07 1.11429e-08 -2.34121e-09)
(2.58989e-08 1.89598e-07 -5.0269e-09)
(-6.95494e-11 -1.71539e-10 9.98083e-08)
(2.00574e-07 1.48538e-08 -3.05279e-09)
(2.59351e-08 1.89638e-07 -5.00665e-09)
(-8.9966e-11 -1.68797e-10 9.77697e-08)
(1.96971e-07 1.85671e-08 -3.70676e-09)
(2.59649e-08 1.89686e-07 -4.96076e-09)
(-1.12063e-10 -1.66133e-10 9.57164e-08)
(1.9339e-07 2.22874e-08 -4.29604e-09)
(2.59899e-08 1.89746e-07 -4.89604e-09)
(-1.36237e-10 -1.63896e-10 9.36545e-08)
(1.8983e-07 2.60139e-08 -4.81534e-09)
(2.60122e-08 1.89828e-07 -4.81853e-09)
(-1.62805e-10 -1.62476e-10 9.15847e-08)
(1.86291e-07 2.97479e-08 -5.25476e-09)
(2.60262e-08 1.89924e-07 -4.73552e-09)
(-1.91e-10 -1.61766e-10 8.94998e-08)
(1.82778e-07 3.34981e-08 -5.60712e-09)
(2.60332e-08 1.90037e-07 -4.65629e-09)
(-2.20234e-10 -1.61588e-10 8.74034e-08)
(2.61104e-08 1.90203e-07 -4.55811e-09)
(-2.35266e-10 -1.58275e-10 8.53229e-08)
(1.79283e-07 3.72603e-08 -5.88693e-09)
(2.11651e-07 3.7161e-09 -7.77987e-10)
(2.95348e-08 1.86026e-07 -5.38379e-09)
(-3.86261e-11 -2.08395e-10 1.01742e-07)
(2.07985e-07 7.43081e-09 -1.54418e-09)
(2.95787e-08 1.86053e-07 -5.43708e-09)
(-5.49188e-11 -2.06216e-10 9.97362e-08)
(2.04335e-07 1.11445e-08 -2.28677e-09)
(2.96211e-08 1.86087e-07 -5.45483e-09)
(-7.24297e-11 -2.02648e-10 9.77184e-08)
(2.00702e-07 1.4858e-08 -2.98903e-09)
(2.96598e-08 1.86124e-07 -5.44008e-09)
(-9.18336e-11 -1.98866e-10 9.5683e-08)
(1.97087e-07 1.85727e-08 -3.63663e-09)
(2.96932e-08 1.86166e-07 -5.39771e-09)
(-1.13244e-10 -1.95594e-10 9.36313e-08)
(1.93492e-07 2.22929e-08 -4.21957e-09)
(2.97213e-08 1.86219e-07 -5.33395e-09)
(-1.36556e-10 -1.92918e-10 9.1567e-08)
(1.89921e-07 2.60239e-08 -4.73239e-09)
(2.97454e-08 1.86287e-07 -5.25521e-09)
(-1.61925e-10 -1.90454e-10 8.9495e-08)
(1.8637e-07 2.97659e-08 -5.16568e-09)
(2.9765e-08 1.86369e-07 -5.16751e-09)
(-1.87576e-10 -1.86989e-10 8.74102e-08)
(1.82843e-07 3.35214e-08 -5.50956e-09)
(2.97752e-08 1.86464e-07 -5.07914e-09)
(-2.14714e-10 -1.82635e-10 8.5311e-08)
(2.98412e-08 1.86607e-07 -4.97547e-09)
(-2.26451e-10 -1.74626e-10 8.32327e-08)
(1.79338e-07 3.72923e-08 -5.78119e-09)
(2.11843e-07 3.71498e-09 -7.59884e-10)
(3.32694e-08 1.82555e-07 -5.72182e-09)
(-4.72392e-11 -2.44414e-10 9.96464e-08)
(2.08166e-07 7.43043e-09 -1.51011e-09)
(3.33153e-08 1.82579e-07 -5.78108e-09)
(-5.97659e-11 -2.40616e-10 9.76422e-08)
(2.04504e-07 1.11455e-08 -2.23989e-09)
(3.33588e-08 1.82607e-07 -5.80408e-09)
(-7.55913e-11 -2.3516e-10 9.56263e-08)
(2.0086e-07 1.48612e-08 -2.93252e-09)
(3.33989e-08 1.82638e-07 -5.7939e-09)
(-9.45853e-11 -2.3011e-10 9.35932e-08)
(1.97233e-07 1.85789e-08 -3.57333e-09)
(3.34357e-08 1.82675e-07 -5.7544e-09)
(-1.15859e-10 -2.26272e-10 9.15436e-08)
(1.93624e-07 2.23005e-08 -4.1504e-09)
(3.34688e-08 1.82721e-07 -5.69016e-09)
(-1.38521e-10 -2.23438e-10 8.94788e-08)
(1.90034e-07 2.60309e-08 -4.65501e-09)
(3.34972e-08 1.82777e-07 -5.60661e-09)
(-1.61726e-10 -2.2034e-10 8.74009e-08)
(1.86462e-07 2.97734e-08 -5.07753e-09)
(3.352e-08 1.82841e-07 -5.50989e-09)
(-1.83127e-10 -2.14705e-10 8.53092e-08)
(1.82912e-07 3.35307e-08 -5.40811e-09)
(3.35304e-08 1.82911e-07 -5.40915e-09)
(-2.047e-10 -2.04488e-10 8.32043e-08)
(3.35715e-08 1.83008e-07 -5.30027e-09)
(-2.08527e-10 -1.83966e-10 8.11211e-08)
(1.7939e-07 3.73135e-08 -5.66133e-09)
(2.12074e-07 3.72644e-09 -7.40716e-10)
(-5.44568e-11 -2.84778e-10 9.75459e-08)
(3.70272e-08 1.79114e-07 -5.97905e-09)
(2.08384e-07 7.45676e-09 -1.47094e-09)
(-6.27533e-11 -2.75547e-10 9.55373e-08)
(3.70676e-08 1.79124e-07 -6.04082e-09)
(2.04712e-07 1.11879e-08 -2.18286e-09)
(-7.70321e-11 -2.65758e-10 9.35239e-08)
(3.71081e-08 1.79142e-07 -6.06933e-09)
(2.01059e-07 1.49188e-08 -2.86072e-09)
(-9.55753e-11 -2.56824e-10 9.1496e-08)
(3.71476e-08 1.79164e-07 -6.06597e-09)
(1.97424e-07 1.86494e-08 -3.49031e-09)
(-1.16394e-10 -2.4912e-10 8.94534e-08)
(3.71863e-08 1.79194e-07 -6.03269e-09)
(1.93807e-07 2.23796e-08 -4.05962e-09)
(-1.37954e-10 -2.4239e-10 8.7396e-08)
(3.72241e-08 1.79233e-07 -5.97195e-09)
(1.90202e-07 2.61098e-08 -4.55811e-09)
(-1.58397e-10 -2.3562e-10 8.5323e-08)
(3.72602e-08 1.79282e-07 -5.88677e-09)
(1.86605e-07 2.98399e-08 -4.97505e-09)
(-1.74768e-10 -2.26552e-10 8.32319e-08)
(3.72919e-08 1.79338e-07 -5.78117e-09)
(1.83007e-07 3.35705e-08 -5.29941e-09)
(-1.83966e-10 -2.08232e-10 8.11199e-08)
(3.73129e-08 1.79389e-07 -5.66157e-09)
(-1.77562e-10 -1.77166e-10 7.9017e-08)
(1.79434e-07 3.73216e-08 -5.53684e-09)
(3.73213e-08 1.79434e-07 -5.53733e-09)
(2.12654e-07 3.70888e-09 -9.06684e-10)
(3.7069e-09 2.12646e-07 -9.08959e-10)
(-2.45931e-11 -2.44605e-11 1.18241e-07)
(2.08918e-07 7.39657e-09 -1.75043e-09)
(3.76691e-09 2.12588e-07 -9.00992e-10)
(-7.15066e-11 -2.55877e-11 1.16095e-07)
(2.05183e-07 1.10703e-08 -2.51489e-09)
(3.78388e-09 2.12491e-07 -8.78971e-10)
(-1.15451e-10 -2.78488e-11 1.13887e-07)
(2.01466e-07 1.4746e-08 -3.2037e-09)
(3.78428e-09 2.12406e-07 -8.53535e-10)
(-1.58173e-10 -3.15092e-11 1.11678e-07)
(1.97767e-07 1.84263e-08 -3.82303e-09)
(3.78271e-09 2.12346e-07 -8.28218e-10)
(-2.01333e-10 -3.67824e-11 1.0948e-07)
(1.94089e-07 2.21126e-08 -4.37752e-09)
(3.77921e-09 2.12308e-07 -8.03879e-10)
(-2.46033e-10 -4.38164e-11 1.07292e-07)
(1.90435e-07 2.58062e-08 -4.8705e-09)
(3.77238e-09 2.12286e-07 -7.81608e-10)
(-2.93055e-10 -5.28264e-11 1.05111e-07)
(1.86807e-07 2.95079e-08 -5.30402e-09)
(3.76178e-09 2.12274e-07 -7.62854e-10)
(-3.42164e-10 -6.3878e-11 1.02937e-07)
(1.83208e-07 3.32197e-08 -5.6786e-09)
(3.74667e-09 2.12262e-07 -7.493e-10)
(-3.91952e-10 -7.62868e-11 1.0077e-07)
(3.76648e-09 2.12245e-07 -7.37104e-10)
(-4.43162e-10 -8.54664e-11 9.8599e-08)
(1.796e-07 3.69542e-08 -5.99525e-09)
(2.12585e-07 3.76479e-09 -8.987e-10)
(7.39272e-09 2.08912e-07 -1.7513e-09)
(-2.56715e-11 -7.13131e-11 1.16088e-07)
(2.08895e-07 7.49116e-09 -1.74527e-09)
(7.48716e-09 2.08892e-07 -1.74744e-09)
(-7.1534e-11 -7.13081e-11 1.13989e-07)
(2.0519e-07 1.11802e-08 -2.52102e-09)
(7.53842e-09 2.08833e-07 -1.71805e-09)
(-1.1493e-10 -7.17265e-11 1.11827e-07)
(2.01486e-07 1.48584e-08 -3.22224e-09)
(7.5538e-09 2.08758e-07 -1.67657e-09)
(-1.57214e-10 -7.30034e-11 1.0964e-07)
(1.97799e-07 1.85413e-08 -3.85264e-09)
(7.55334e-09 2.08695e-07 -1.63216e-09)
(-1.99934e-10 -7.53883e-11 1.07452e-07)
(1.9413e-07 2.22301e-08 -4.41688e-09)
(7.54844e-09 2.08652e-07 -1.58881e-09)
(-2.44135e-10 -7.91511e-11 1.05271e-07)
(1.90483e-07 2.59263e-08 -4.91849e-09)
(7.53618e-09 2.08624e-07 -1.54885e-09)
(-2.90485e-10 -8.44102e-11 1.03097e-07)
(1.8686e-07 2.96336e-08 -5.35939e-09)
(7.51733e-09 2.08603e-07 -1.51508e-09)
(-3.38298e-10 -9.06306e-11 1.00929e-07)
(1.83258e-07 3.33528e-08 -5.74001e-09)
(7.49315e-09 2.08579e-07 -1.49004e-09)
(-3.8566e-10 -9.65082e-11 9.87629e-08)
(7.54411e-09 2.08558e-07 -1.46461e-09)
(-4.28846e-10 -9.86388e-11 9.65819e-08)
(1.79634e-07 3.7076e-08 -6.05773e-09)
(2.12483e-07 3.77825e-09 -8.77955e-10)
(1.10686e-08 2.05183e-07 -2.51355e-09)
(-2.78419e-11 -1.15411e-10 1.13881e-07)
(2.08827e-07 7.53461e-09 -1.71572e-09)
(1.11739e-08 2.05184e-07 -2.52088e-09)
(-7.18602e-11 -1.14759e-10 1.1182e-07)
(2.05162e-07 1.12568e-08 -2.49564e-09)
(1.12523e-08 2.05159e-07 -2.49726e-09)
(-1.14123e-10 -1.13883e-10 1.09712e-07)
(2.01484e-07 1.49513e-08 -3.20743e-09)
(1.12969e-08 2.05112e-07 -2.45263e-09)
(-1.55489e-10 -1.13328e-10 1.07563e-07)
(1.97811e-07 1.86392e-08 -3.84883e-09)
(1.13083e-08 2.05054e-07 -2.39801e-09)
(-1.97306e-10 -1.13421e-10 1.05394e-07)
(1.94155e-07 2.23331e-08 -4.42296e-09)
(1.13032e-08 2.05005e-07 -2.34228e-09)
(-2.40644e-10 -1.14468e-10 1.03224e-07)
(1.90516e-07 2.60348e-08 -4.93325e-09)
(1.12887e-08 2.0497e-07 -2.29045e-09)
(-2.85861e-10 -1.16648e-10 1.0106e-07)
(1.86897e-07 2.97471e-08 -5.38102e-09)
(1.12656e-08 2.04937e-07 -2.24606e-09)
(-3.3167e-10 -1.19462e-10 9.88967e-08)
(1.83297e-07 3.34705e-08 -5.7669e-09)
(1.12346e-08 2.04902e-07 -2.21253e-09)
(-3.7616e-10 -1.22023e-10 9.67341e-08)
(1.13214e-08 2.04884e-07 -2.17579e-09)
(-4.13052e-10 -1.20994e-10 9.45565e-08)
(1.79667e-07 3.71883e-08 -6.08886e-09)
(2.12402e-07 3.78282e-09 -8.5379e-10)
(1.4746e-08 2.01467e-07 -3.20155e-09)
(-3.14634e-11 -1.58282e-10 1.11677e-07)
(2.08751e-07 7.54789e-09 -1.6758e-09)
(1.48557e-08 2.01486e-07 -3.22049e-09)
(-7.30103e-11 -1.57268e-10 1.09634e-07)
(2.05107e-07 1.12929e-08 -2.45073e-09)
(1.49445e-08 2.01479e-07 -3.20704e-09)
(-1.13464e-10 -1.55396e-10 1.07557e-07)
(2.01458e-07 1.50145e-08 -3.16704e-09)
(1.50102e-08 2.01454e-07 -3.16839e-09)
(-1.53493e-10 -1.53314e-10 1.05446e-07)
(1.978e-07 1.87162e-08 -3.81752e-09)
(1.50456e-08 2.01415e-07 -3.11295e-09)
(-1.94033e-10 -1.51517e-10 1.03305e-07)
(1.9415e-07 2.24152e-08 -4.4008e-09)
(1.50494e-08 2.01367e-07 -3.05088e-09)
(-2.36134e-10 -1.50331e-10 1.01148e-07)
(1.90518e-07 2.61233e-08 -4.91892e-09)
(1.50322e-08 2.01321e-07 -2.99141e-09)
(-2.8004e-10 -1.5007e-10 9.8989e-08)
(1.86903e-07 2.98417e-08 -5.37294e-09)
(1.50057e-08 2.01278e-07 -2.94042e-09)
(-3.24111e-10 -1.50711e-10 9.68309e-08)
(1.83303e-07 3.35696e-08 -5.7638e-09)
(1.4971e-08 2.01232e-07 -2.90163e-09)
(-3.6653e-10 -1.51889e-10 9.46726e-08)
(1.50927e-08 2.01219e-07 -2.85645e-09)
(-3.97607e-10 -1.49212e-10 9.25044e-08)
(1.79673e-07 3.72878e-08 -6.09188e-09)
(2.12346e-07 3.78288e-09 -8.2872e-10)
(1.8426e-08 1.97769e-07 -3.82072e-09)
(-3.67573e-11 -2.01502e-10 1.09481e-07)
(2.08693e-07 7.55161e-09 -1.63275e-09)
(1.85404e-08 1.978e-07 -3.85053e-09)
(-7.53416e-11 -2.00097e-10 1.07451e-07)
(2.05048e-07 1.13029e-08 -2.39757e-09)
(1.86362e-08 1.9781e-07 -3.84725e-09)
(-1.13383e-10 -1.97366e-10 1.05389e-07)
(2.01412e-07 1.50421e-08 -3.11128e-09)
(1.87095e-08 1.97795e-07 -3.81724e-09)
(-1.516e-10 -1.93928e-10 1.03299e-07)
(1.97773e-07 1.87668e-08 -3.76593e-09)
(1.87618e-08 1.97768e-07 -3.76738e-09)
(-1.9062e-10 -1.90446e-10 1.01184e-07)
(1.9413e-07 2.24766e-08 -4.35669e-09)
(1.87856e-08 1.97733e-07 -3.70558e-09)
(-2.31381e-10 -1.87534e-10 9.90474e-08)
(1.90495e-07 2.61873e-08 -4.88165e-09)
(1.87754e-08 1.97684e-07 -3.64185e-09)
(-2.73864e-10 -1.85453e-10 9.68944e-08)
(1.86879e-07 2.9912e-08 -5.34074e-09)
(1.87417e-08 1.97624e-07 -3.58606e-09)
(-3.16696e-10 -1.84386e-10 9.47364e-08)
(1.8328e-07 3.36487e-08 -5.7355e-09)
(1.87025e-08 1.97563e-07 -3.54437e-09)
(-3.57899e-10 -1.84484e-10 9.25806e-08)
(1.88534e-08 1.97557e-07 -3.49416e-09)
(-3.82919e-10 -1.80038e-10 9.04251e-08)
(1.79653e-07 3.7374e-08 -6.06984e-09)
(2.12308e-07 3.77931e-09 -8.04329e-10)
(2.21123e-08 1.9409e-07 -4.37519e-09)
(-4.38062e-11 -2.46197e-10 1.07292e-07)
(2.08652e-07 7.54867e-09 -1.58969e-09)
(2.22293e-08 1.94131e-07 -4.41476e-09)
(-7.90907e-11 -2.44293e-10 1.05272e-07)
(2.05003e-07 1.13013e-08 -2.34311e-09)
(2.23319e-08 1.94155e-07 -4.42114e-09)
(-1.14352e-10 -2.40786e-10 1.03224e-07)
(2.01362e-07 1.5043e-08 -3.05065e-09)
(2.24119e-08 1.94149e-07 -4.39956e-09)
(-1.50304e-10 -2.36227e-10 1.01143e-07)
(1.97731e-07 1.87814e-08 -3.70376e-09)
(2.24688e-08 1.94123e-07 -4.35683e-09)
(-1.87585e-10 -2.31319e-10 9.90415e-08)
(1.941e-07 2.25128e-08 -4.29786e-09)
(2.2506e-08 1.94092e-07 -4.30001e-09)
(-2.2689e-10 -2.26736e-10 9.69238e-08)
(1.90463e-07 2.62334e-08 -4.82831e-09)
(2.25159e-08 1.9405e-07 -4.23661e-09)
(-2.6793e-10 -2.22899e-10 9.47843e-08)
(1.86838e-07 2.99601e-08 -5.29118e-09)
(2.24839e-08 1.9398e-07 -4.17712e-09)
(-3.09659e-10 -2.20134e-10 9.26251e-08)
(1.83231e-07 3.37062e-08 -5.68738e-09)
(2.24359e-08 1.93897e-07 -4.13199e-09)
(-3.49754e-10 -2.18324e-10 9.04635e-08)
(2.26009e-08 1.93891e-07 -4.07882e-09)
(-3.68418e-10 -2.10871e-10 8.8319e-08)
(1.79609e-07 3.74455e-08 -6.02597e-09)
(2.12287e-07 3.77244e-09 -7.82028e-10)
(2.5806e-08 1.90436e-07 -4.86834e-09)
(-5.28183e-11 -2.93217e-10 1.05112e-07)
(2.08624e-07 7.53626e-09 -1.54968e-09)
(2.59256e-08 1.90484e-07 -4.9165e-09)
(-8.43414e-11 -2.90636e-10 1.03098e-07)
(2.0497e-07 1.12885e-08 -2.29166e-09)
(2.60338e-08 1.90518e-07 -4.93151e-09)
(-1.16523e-10 -2.85997e-10 1.01061e-07)
(2.01319e-07 1.50295e-08 -2.99272e-09)
(2.61223e-08 1.9052e-07 -4.91747e-09)
(-1.49976e-10 -2.80135e-10 9.89887e-08)
(1.97676e-07 1.87666e-08 -3.64181e-09)
(2.61847e-08 1.90494e-07 -4.88061e-09)
(-1.85298e-10 -2.73821e-10 9.68893e-08)
(1.94045e-07 2.25094e-08 -4.23393e-09)
(2.62241e-08 1.90453e-07 -4.82849e-09)
(-2.2276e-10 -2.67553e-10 9.47751e-08)
(1.90415e-07 2.62503e-08 -4.76593e-09)
(2.62452e-08 1.90408e-07 -4.76818e-09)
(-2.62331e-10 -2.61821e-10 9.26483e-08)
(1.8678e-07 2.9988e-08 -5.23061e-09)
(2.62303e-08 1.90337e-07 -4.70751e-09)
(-3.02043e-10 -2.56233e-10 9.04949e-08)
(1.83154e-07 3.3742e-08 -5.62488e-09)
(2.61808e-08 1.90231e-07 -4.65735e-09)
(-3.39965e-10 -2.50162e-10 8.8323e-08)
(2.63327e-08 1.90212e-07 -4.60124e-09)
(-3.52799e-10 -2.37989e-10 8.6184e-08)
(1.7954e-07 3.75006e-08 -5.96357e-09)
(2.12276e-07 3.76192e-09 -7.63246e-10)
(2.95077e-08 1.86808e-07 -5.30219e-09)
(-6.38668e-11 -3.42333e-10 1.02939e-07)
(2.08604e-07 7.51763e-09 -1.51586e-09)
(2.96331e-08 1.86861e-07 -5.35769e-09)
(-9.05427e-11 -3.38445e-10 1.0093e-07)
(2.04938e-07 1.12661e-08 -2.24723e-09)
(2.97465e-08 1.86898e-07 -5.37948e-09)
(-1.193e-10 -3.31771e-10 9.88978e-08)
(2.01278e-07 1.50066e-08 -2.94209e-09)
(2.98413e-08 1.86904e-07 -5.37152e-09)
(-1.50499e-10 -3.2411e-10 9.68319e-08)
(1.97621e-07 1.87401e-08 -3.58777e-09)
(2.99125e-08 1.86881e-07 -5.33928e-09)
(-1.84059e-10 -3.16538e-10 9.47356e-08)
(1.9397e-07 2.24755e-08 -4.17631e-09)
(2.9958e-08 1.86833e-07 -5.28962e-09)
(-2.19464e-10 -3.09117e-10 9.26166e-08)
(1.90329e-07 2.62236e-08 -4.7048e-09)
(2.99807e-08 1.86771e-07 -5.22995e-09)
(-2.56464e-10 -3.01168e-10 9.04853e-08)
(1.86685e-07 2.9981e-08 -5.16611e-09)
(2.99783e-08 1.86684e-07 -5.16711e-09)
(-2.91591e-10 -2.90672e-10 8.83311e-08)
(1.83044e-07 3.37484e-08 -5.55401e-09)
(2.99327e-08 1.86559e-07 -5.11072e-09)
(-3.25626e-10 -2.77564e-10 8.61523e-08)
(3.00456e-08 1.8651e-07 -5.05163e-09)
(-3.33315e-10 -2.57858e-10 8.40153e-08)
(1.79438e-07 3.75329e-08 -5.8862e-09)
(2.12264e-07 3.74688e-09 -7.49646e-10)
(3.32196e-08 1.83209e-07 -5.67721e-09)
(-7.62694e-11 -3.921e-10 1.00771e-07)
(2.08581e-07 7.4936e-09 -1.49071e-09)
(3.33524e-08 1.83259e-07 -5.73872e-09)
(-9.64011e-11 -3.85798e-10 9.87642e-08)
(2.04904e-07 1.12354e-08 -2.21351e-09)
(3.347e-08 1.83298e-07 -5.76571e-09)
(-1.21816e-10 -3.76268e-10 9.67354e-08)
(2.01233e-07 1.49725e-08 -2.90293e-09)
(3.35694e-08 1.83304e-07 -5.76265e-09)
(-1.51588e-10 -3.66587e-10 9.46737e-08)
(1.97564e-07 1.87054e-08 -3.54602e-09)
(3.36489e-08 1.8328e-07 -5.73428e-09)
(-1.84076e-10 -3.57885e-10 9.25817e-08)
(1.93895e-07 2.24356e-08 -4.13267e-09)
(3.37068e-08 1.83229e-07 -5.6859e-09)
(-2.17572e-10 -3.49734e-10 9.04617e-08)
(1.90224e-07 2.61741e-08 -4.65639e-09)
(3.37396e-08 1.83152e-07 -5.62348e-09)
(-2.50369e-10 -3.40115e-10 8.83181e-08)
(1.86554e-07 2.99277e-08 -5.10952e-09)
(3.3744e-08 1.83041e-07 -5.55349e-09)
(-2.78345e-10 -3.25613e-10 8.61487e-08)
(1.82887e-07 3.36999e-08 -5.48516e-09)
(3.36988e-08 1.82885e-07 -5.48559e-09)
(-3.03732e-10 -3.03415e-10 8.39548e-08)
(3.37406e-08 1.82764e-07 -5.41844e-09)
(-3.0033e-10 -2.65894e-10 8.1801e-08)
(1.79284e-07 3.75281e-08 -5.79823e-09)
(2.12247e-07 3.76671e-09 -7.37384e-10)
(-8.5431e-11 -4.43187e-10 9.86004e-08)
(3.69541e-08 1.79601e-07 -5.9943e-09)
(2.08559e-07 7.54456e-09 -1.46515e-09)
(-9.85136e-11 -4.28875e-10 9.65832e-08)
(3.70757e-08 1.79635e-07 -6.05685e-09)
(2.04885e-07 1.13221e-08 -2.17654e-09)
(-1.20773e-10 -4.13093e-10 9.45576e-08)
(3.71879e-08 1.79667e-07 -6.08805e-09)
(2.0122e-07 1.50936e-08 -2.85737e-09)
(-1.48924e-10 -3.97683e-10 9.25053e-08)
(3.72876e-08 1.79673e-07 -6.0911e-09)
(1.97559e-07 1.88544e-08 -3.49512e-09)
(-1.7971e-10 -3.83087e-10 9.04259e-08)
(3.73739e-08 1.79653e-07 -6.06904e-09)
(1.93892e-07 2.26012e-08 -4.07956e-09)
(-2.10501e-10 -3.68833e-10 8.83197e-08)
(3.74455e-08 1.79609e-07 -6.02512e-09)
(1.90212e-07 2.63312e-08 -4.60165e-09)
(-2.38182e-10 -3.53363e-10 8.61843e-08)
(3.75003e-08 1.7954e-07 -5.96277e-09)
(1.86507e-07 3.00421e-08 -5.05148e-09)
(-2.58114e-10 -3.33488e-10 8.40138e-08)
(3.7532e-08 1.79437e-07 -5.88555e-09)
(1.82761e-07 3.37381e-08 -5.41782e-09)
(-2.65906e-10 -2.99908e-10 8.17984e-08)
(3.75264e-08 1.79281e-07 -5.79783e-09)
(-2.50212e-10 -2.49649e-10 7.95942e-08)
(1.79092e-07 3.74837e-08 -5.70669e-09)
(3.74829e-08 1.79091e-07 -5.70676e-09)
(2.13883e-07 3.72649e-09 -8.43412e-10)
(3.72329e-09 2.13871e-07 -8.45315e-10)
(-2.97555e-11 -2.95969e-11 1.19929e-07)
(2.10077e-07 7.41731e-09 -1.62895e-09)
(3.82012e-09 2.13754e-07 -8.38189e-10)
(-8.58098e-11 -3.08753e-11 1.17719e-07)
(2.06253e-07 1.10832e-08 -2.34222e-09)
(3.84612e-09 2.13554e-07 -8.18184e-10)
(-1.37771e-10 -3.3415e-11 1.15419e-07)
(2.02437e-07 1.47487e-08 -2.98782e-09)
(3.84485e-09 2.13353e-07 -7.95289e-10)
(-1.87144e-10 -3.74785e-11 1.13119e-07)
(1.98632e-07 1.84166e-08 -3.5729e-09)
(3.83984e-09 2.13171e-07 -7.72889e-10)
(-2.3545e-10 -4.32293e-11 1.10838e-07)
(1.94838e-07 2.20877e-08 -4.1034e-09)
(3.83099e-09 2.13002e-07 -7.51871e-10)
(-2.83402e-10 -5.07009e-11 1.08574e-07)
(1.9106e-07 2.57621e-08 -4.58453e-09)
(3.81589e-09 2.12836e-07 -7.33358e-10)
(-3.31156e-10 -5.99358e-11 1.06325e-07)
(1.87302e-07 2.94392e-08 -5.02066e-09)
(3.79359e-09 2.1266e-07 -7.18867e-10)
(-3.7751e-10 -7.07372e-11 1.04092e-07)
(1.83567e-07 3.31207e-08 -5.41514e-09)
(3.76257e-09 2.12458e-07 -7.10197e-10)
(-4.19775e-10 -8.20221e-11 1.01874e-07)
(3.78734e-09 2.12224e-07 -7.04703e-10)
(-4.57347e-10 -8.87128e-11 9.966e-08)
(1.79794e-07 3.68278e-08 -5.77144e-09)
(2.13749e-07 3.81667e-09 -8.36244e-10)
(7.41113e-09 2.10068e-07 -1.62938e-09)
(-3.09741e-11 -8.55776e-11 1.17708e-07)
(2.1002e-07 7.56967e-09 -1.62485e-09)
(7.56324e-09 2.10015e-07 -1.62645e-09)
(-8.56531e-11 -8.53839e-11 1.15565e-07)
(2.06245e-07 1.12596e-08 -2.34903e-09)
(7.64354e-09 2.09878e-07 -1.60023e-09)
(-1.3687e-10 -8.5485e-11 1.13334e-07)
(2.02453e-07 1.49286e-08 -3.00652e-09)
(7.66467e-09 2.09697e-07 -1.56321e-09)
(-1.85651e-10 -8.63751e-11 1.11065e-07)
(1.98668e-07 1.86003e-08 -3.60231e-09)
(7.65898e-09 2.09513e-07 -1.52416e-09)
(-2.33381e-10 -8.82888e-11 1.08799e-07)
(1.9489e-07 2.22749e-08 -4.14238e-09)
(7.64473e-09 2.0934e-07 -1.48705e-09)
(-2.80719e-10 -9.14289e-11 1.06546e-07)
(1.91127e-07 2.59535e-08 -4.63204e-09)
(7.61683e-09 2.09169e-07 -1.45426e-09)
(-3.2772e-10 -9.5777e-11 1.04308e-07)
(1.87379e-07 2.96402e-08 -5.07552e-09)
(7.57618e-09 2.08984e-07 -1.4287e-09)
(-3.72736e-10 -1.00551e-10 1.02082e-07)
(1.83644e-07 3.33354e-08 -5.47579e-09)
(7.5243e-09 2.08771e-07 -1.4132e-09)
(-4.12652e-10 -1.0415e-10 9.98661e-08)
(7.5934e-09 2.08537e-07 -1.40104e-09)
(-4.42507e-10 -1.02934e-10 9.76343e-08)
(1.79851e-07 3.70263e-08 -5.83186e-09)
(2.13542e-07 3.83698e-09 -8.17394e-10)
(1.10804e-08 2.06254e-07 -2.34054e-09)
(-3.34053e-11 -1.37726e-10 1.15409e-07)
(2.09869e-07 7.63731e-09 -1.59841e-09)
(1.12496e-08 2.06237e-07 -2.34837e-09)
(-8.56415e-11 -1.36669e-10 1.13323e-07)
(2.06161e-07 1.13798e-08 -2.32724e-09)
(1.13726e-08 2.06157e-07 -2.32818e-09)
(-1.35323e-10 -1.35042e-10 1.11168e-07)
(2.02414e-07 1.50739e-08 -2.99527e-09)
(1.14393e-08 2.06023e-07 -2.28923e-09)
(-1.82866e-10 -1.33476e-10 1.08957e-07)
(1.98654e-07 1.87525e-08 -3.60191e-09)
(1.14507e-08 2.05853e-07 -2.24187e-09)
(-2.29407e-10 -1.32308e-10 1.06718e-07)
(1.94901e-07 2.24345e-08 -4.15183e-09)
(1.14329e-08 2.05675e-07 -2.19477e-09)
(-2.7565e-10 -1.31808e-10 1.04482e-07)
(1.91156e-07 2.61212e-08 -4.65017e-09)
(1.13976e-08 2.05497e-07 -2.15306e-09)
(-3.21338e-10 -1.32048e-10 1.02257e-07)
(1.8742e-07 2.98159e-08 -5.10042e-09)
(1.13452e-08 2.05302e-07 -2.12047e-09)
(-3.64227e-10 -1.32315e-10 1.00039e-07)
(1.83693e-07 3.35178e-08 -5.50556e-09)
(1.12765e-08 2.05078e-07 -2.10079e-09)
(-4.01359e-10 -1.31486e-10 9.78269e-08)
(1.13986e-08 2.0486e-07 -2.08348e-09)
(-4.25388e-10 -1.2603e-10 9.55978e-08)
(1.799e-07 3.72005e-08 -5.86444e-09)
(2.13347e-07 3.84247e-09 -7.95719e-10)
(1.47487e-08 2.0244e-07 -2.98535e-09)
(-3.74238e-11 -1.87282e-10 1.13118e-07)
(2.09686e-07 7.65503e-09 -1.56284e-09)
(1.49244e-08 2.02452e-07 -3.00436e-09)
(-8.63811e-11 -1.85721e-10 1.11057e-07)
(2.06015e-07 1.14329e-08 -2.28797e-09)
(1.5063e-08 2.02406e-07 -2.99424e-09)
(-1.33631e-10 -1.82762e-10 1.08948e-07)
(2.02318e-07 1.51692e-08 -2.9613e-09)
(1.51624e-08 2.02313e-07 -2.96183e-09)
(-1.79353e-10 -1.79152e-10 1.06791e-07)
(1.98589e-07 1.88685e-08 -3.57732e-09)
(1.52103e-08 2.02177e-07 -2.91507e-09)
(-2.2419e-10 -1.75421e-10 1.04594e-07)
(1.9485e-07 2.25575e-08 -4.13651e-09)
(1.52042e-08 2.02008e-07 -2.86365e-09)
(-2.68821e-10 -1.71866e-10 1.02376e-07)
(1.9112e-07 2.62535e-08 -4.64284e-09)
(1.51608e-08 2.0182e-07 -2.81681e-09)
(-3.12894e-10 -1.68723e-10 1.00159e-07)
(1.87396e-07 2.9957e-08 -5.09942e-09)
(1.50983e-08 2.01613e-07 -2.78079e-09)
(-3.53838e-10 -1.65797e-10 9.79478e-08)
(1.83677e-07 3.36654e-08 -5.50933e-09)
(1.50181e-08 2.01381e-07 -2.75982e-09)
(-3.889e-10 -1.62503e-10 9.57415e-08)
(1.51923e-08 2.01182e-07 -2.73969e-09)
(-4.07473e-10 -1.54233e-10 9.35243e-08)
(1.79893e-07 3.73484e-08 -5.87308e-09)
(2.1317e-07 3.84012e-09 -7.73576e-10)
(1.84162e-08 1.98634e-07 -3.57023e-09)
(-4.31999e-11 -2.35663e-10 1.10839e-07)
(2.09509e-07 7.65617e-09 -1.52511e-09)
(1.8599e-08 1.9867e-07 -3.59979e-09)
(-8.8232e-11 -2.33585e-10 1.08798e-07)
(2.05843e-07 1.14417e-08 -2.24196e-09)
(1.87479e-08 1.98653e-07 -3.59975e-09)
(-1.3226e-10 -2.29487e-10 1.06712e-07)
(2.02171e-07 1.52046e-08 -2.91415e-09)
(1.88579e-08 1.9858e-07 -3.57619e-09)
(-1.75508e-10 -2.24075e-10 1.04585e-07)
(1.98478e-07 1.89393e-08 -3.53544e-09)
(1.89312e-08 1.9847e-07 -3.53587e-09)
(-2.18257e-10 -2.18067e-10 1.02427e-07)
(1.94757e-07 2.26438e-08 -4.10272e-09)
(1.8955e-08 1.98328e-07 -3.48645e-09)
(-2.6106e-10 -2.12075e-10 1.00237e-07)
(1.91028e-07 2.63424e-08 -4.61624e-09)
(1.89194e-08 1.98142e-07 -3.43766e-09)
(-3.03275e-10 -2.06274e-10 9.80288e-08)
(1.87311e-07 3.00546e-08 -5.07826e-09)
(1.88409e-08 1.97917e-07 -3.3996e-09)
(-3.42653e-10 -2.00674e-10 9.58172e-08)
(1.83599e-07 3.37758e-08 -5.4923e-09)
(1.87479e-08 1.9767e-07 -3.37926e-09)