/*--------------------------------*- C++ -*----------------------------------*\
| =========                 |                                                 |
| \\      /  F ield         | foam-extend: Open Source CFD                    |
|  \\    /   O peration     | Version:     3.1                                |
|   \\  /    A nd           | Web:         http://www.extend-project.de       |
|    \\/     M anipulation  |                                                 |
\*---------------------------------------------------------------------------*/
FoamFile
{
    version     2.0;
    format      ascii;
    class       volVectorField;
    location    "0.0019";
    object      U_0;
}
// * * * * * * * * * * * * * * * * * * * * * * * * * * * * * * * * * * * * * //

dimensions      [0 1 -1 0 0 0 0];

internalField   nonuniform List<vector> 
16000
(
(0.000165532 0.000165787 0.270672)
(0.000492099 0.000165818 0.270925)
(0.000806801 0.000166765 0.271435)
(0.00110895 0.000169903 0.272204)
(0.00140051 0.000175429 0.273239)
(0.00168396 0.000183251 0.274549)
(0.00196269 0.000193271 0.276148)
(0.00224241 0.000205191 0.278061)
(0.00253517 0.000217544 0.280323)
(0.00285877 0.000206768 0.282991)
(0.000165572 0.000492485 0.270925)
(0.000492565 0.000493032 0.27116)
(0.000808249 0.000495686 0.271644)
(0.00111238 0.000503686 0.272378)
(0.00140622 0.000517928 0.273368)
(0.00169189 0.000538667 0.274625)
(0.00197232 0.000565842 0.27616)
(0.00225196 0.000598746 0.277997)
(0.00254362 0.000633705 0.280167)
(0.00285084 0.000603021 0.282724)
(0.000166652 0.000806772 0.271435)
(0.000495348 0.000808471 0.271644)
(0.000812191 0.000812586 0.272092)
(0.00111841 0.000823192 0.272784)
(0.00141471 0.000841813 0.273724)
(0.00170237 0.000869615 0.27492)
(0.00198342 0.000907059 0.276386)
(0.00226066 0.000953349 0.278141)
(0.00254828 0.0010031 0.280213)
(0.00283289 0.000942487 0.282656)
(0.000169931 0.00110852 0.272204)
(0.000503639 0.00111218 0.272378)
(0.000822928 0.00111856 0.272784)
(0.00113195 0.00113229 0.273427)
(0.00143174 0.00115493 0.274313)
(0.00172288 0.0011885 0.275447)
(0.00200606 0.00123453 0.276841)
(0.00228211 0.0012926 0.278515)
(0.00256695 0.0013557 0.280492)
(0.00282696 0.00126233 0.282829)
(0.00017549 0.00139996 0.273239)
(0.00051806 0.00140577 0.273368)
(0.000841839 0.00141452 0.273724)
(0.00115471 0.0014319 0.274313)
(0.00145892 0.00145928 0.275138)
(0.00175505 0.00149916 0.276206)
(0.00204254 0.00155425 0.277528)
(0.00231979 0.00162529 0.27912)
(0.00260428 0.00170405 0.281007)
(0.00283889 0.00158036 0.283246)
(0.000183302 0.00168341 0.274549)
(0.000538825 0.00169139 0.274625)
(0.00086982 0.001702 0.27492)
(0.00118858 0.00172277 0.275447)
(0.00149893 0.00175532 0.276206)
(0.00180218 0.00180268 0.277204)
(0.00209718 0.0018688 0.278452)
(0.00237981 0.00195636 0.279963)
(0.00266807 0.00205695 0.281761)
(0.00287691 0.00191128 0.283912)
(0.000193314 0.00196219 0.276148)
(0.000565982 0.00197186 0.276161)
(0.000907297 0.00198302 0.276386)
(0.00123483 0.00200578 0.276841)
(0.0015544 0.00204253 0.277528)
(0.00186847 0.00209757 0.278452)
(0.00217632 0.00217693 0.279622)
(0.00247168 0.00228642 0.281054)
(0.00277159 0.0024196 0.282767)
(0.00295585 0.00226953 0.284839)
(0.000205227 0.002242 0.278061)
(0.000598865 0.00225158 0.277997)
(0.000953554 0.0022603 0.278141)
(0.00129291 0.00228177 0.278515)
(0.00162565 0.0023195 0.27912)
(0.00195637 0.00237968 0.279963)
(0.00228591 0.00247188 0.281054)
(0.0026074 0.00260785 0.282407)
(0.00293595 0.00278896 0.284041)
(0.00310439 0.00266788 0.286049)
(0.000217573 0.00253488 0.280323)
(0.000633799 0.00254335 0.280167)
(0.00100326 0.00254802 0.280213)
(0.00135591 0.00256667 0.280492)
(0.00170431 0.00260393 0.281007)
(0.00205707 0.00266763 0.281761)
(0.00241936 0.00277128 0.282767)
(0.00278858 0.00293598 0.284041)
(0.00318098 0.00318122 0.285604)
(0.00337169 0.00313278 0.287568)
(0.000206793 0.00285862 0.282991)
(0.000603098 0.0028507 0.282724)
(0.00094261 0.00283275 0.282656)
(0.00126248 0.0028268 0.28283)
(0.00158053 0.00283868 0.283246)
(0.00191141 0.00287661 0.283912)
(0.00226954 0.00295552 0.284839)
(0.00266777 0.00310422 0.286049)
(0.00313255 0.0033717 0.287568)
(0.00359232 0.00359246 0.289499)
(0.000180295 0.000180326 0.270002)
(0.000543084 0.000177978 0.270258)
(0.000903096 0.000174741 0.270773)
(0.00125813 0.000171651 0.271548)
(0.00161117 0.000169011 0.272585)
(0.00196642 0.000167114 0.273889)
(0.00233264 0.00016641 0.275465)
(0.00272593 0.000167566 0.277323)
(0.00317371 0.000171666 0.279476)
(0.00371853 0.000178339 0.28194)
(0.000177949 0.00054313 0.270258)
(0.000536454 0.000536511 0.270499)
(0.000892715 0.00052728 0.270991)
(0.00124452 0.000518464 0.271736)
(0.00159469 0.00051098 0.272736)
(0.00194718 0.000505675 0.273995)
(0.00231012 0.000503748 0.27552)
(0.00269807 0.000506888 0.277318)
(0.00313677 0.000517944 0.279404)
(0.00366406 0.000535605 0.281791)
(0.000174734 0.000903099 0.270773)
(0.000527245 0.000892749 0.270991)
(0.000878112 0.000878167 0.27145)
(0.00122529 0.000864211 0.272154)
(0.00157148 0.000852366 0.273105)
(0.00192042 0.000844029 0.274307)
(0.00227972 0.000841071 0.275766)
(0.00266259 0.000846068 0.277491)
(0.00309351 0.000863623 0.279495)
(0.00360597 0.000890701 0.281789)
(0.000171658 0.00125811 0.271548)
(0.000518463 0.00124452 0.271736)
(0.000864175 0.00122532 0.272154)
(0.00120712 0.00120718 0.272808)
(0.00155006 0.00119205 0.273702)
(0.00189662 0.00118183 0.274839)
(0.00225403 0.00117908 0.276225)
(0.00263437 0.00118717 0.27787)
(0.00306125 0.00121221 0.279785)
(0.00356397 0.00124857 0.281984)
(0.000169015 0.00161115 0.272585)
(0.000510989 0.00159468 0.272736)
(0.000852362 0.00157149 0.273105)
(0.001192 0.00155011 0.273702)
(0.00153287 0.00153294 0.27453)
(0.00187868 0.0015223 0.275595)
(0.00223644 0.00152139 0.276902)
(0.00261727 0.00153441 0.278459)
(0.00304412 0.00156888 0.280281)
(0.00354256 0.00161638 0.282382)
(0.000167115 0.0019664 0.273889)
(0.000505679 0.00194718 0.273995)
(0.000844035 0.00192042 0.274307)
(0.00118182 0.00189665 0.274839)
(0.00152225 0.00187874 0.275595)
(0.0018693 0.00186939 0.27658)
(0.00223 0.00187231 0.2778)
(0.00261468 0.00189248 0.279263)
(0.00304574 0.00193899 0.280984)
(0.0035455 0.00200102 0.282982)
(0.000166411 0.00233264 0.275465)
(0.000503748 0.00231012 0.27552)
(0.000841072 0.00227973 0.275766)
(0.00117909 0.00225405 0.276225)
(0.00152139 0.00223649 0.276902)
(0.00187223 0.0022301 0.2778)
(0.00223887 0.00223901 0.278925)
(0.00263112 0.00226879 0.280287)
(0.00307115 0.00233004 0.281898)
(0.00357832 0.00241086 0.283787)
(0.000167566 0.00272594 0.277323)
(0.000506887 0.00269809 0.277318)
(0.000846064 0.00266262 0.277491)
(0.00118717 0.0026344 0.27787)
(0.00153442 0.0026173 0.278459)
(0.00189245 0.00261471 0.279263)
(0.00226867 0.00263119 0.280287)
(0.00267248 0.0026726 0.281537)
(0.00312662 0.0027504 0.283027)
(0.00364904 0.00285384 0.284797)
(0.000171666 0.00317375 0.279476)
(0.000517942 0.00313682 0.279404)
(0.000863617 0.00309356 0.279495)
(0.00121219 0.00306129 0.279785)
(0.00156887 0.00304415 0.280281)
(0.00193896 0.00304575 0.280984)
(0.00232995 0.00307116 0.281898)
(0.00275029 0.00312667 0.283027)
(0.00322435 0.00322446 0.284383)
(0.00377375 0.0033476 0.286013)
(0.000178339 0.00371861 0.28194)
(0.000535604 0.00366414 0.281791)
(0.000890697 0.00360605 0.281789)
(0.00124856 0.00356404 0.281984)
(0.00161636 0.00354263 0.282382)
(0.00200099 0.00354555 0.282982)
(0.00241081 0.00357836 0.283787)
(0.00285377 0.00364909 0.284797)
(0.0033475 0.00377382 0.286013)
(0.00394677 0.00394686 0.287472)
(0.000385385 0.000385424 0.267899)
(0.00116111 0.000380059 0.268164)
(0.00193351 0.000372344 0.268697)
(0.00269799 0.000364252 0.269493)
(0.00345747 0.000356108 0.270552)
(0.00421402 0.000348128 0.271869)
(0.00497307 0.000340663 0.273438)
(0.00574498 0.000334271 0.27525)
(0.00654532 0.000330482 0.277291)
(0.00739314 0.000331528 0.279533)
(0.00038002 0.00116117 0.268164)
(0.00114563 0.00114571 0.268413)
(0.00190861 0.00112329 0.26892)
(0.00266434 0.00109978 0.269683)
(0.00341566 0.00107623 0.2707)
(0.00416453 0.00105329 0.271969)
(0.00491609 0.00103193 0.273483)
(0.00567984 0.00101366 0.275234)
(0.00646996 0.00100275 0.277209)
(0.00730367 0.00100743 0.279385)
(0.000372333 0.00193353 0.268697)
(0.00112324 0.00190867 0.26892)
(0.00187227 0.00187236 0.26939)
(0.00261504 0.00183418 0.270108)
(0.00335426 0.0017959 0.271072)
(0.00409181 0.00175865 0.272278)
(0.0048326 0.00172396 0.273722)
(0.00558548 0.00169422 0.275395)
(0.00636325 0.00167665 0.277287)
(0.00718183 0.00168658 0.279374)
(0.000364259 0.00269799 0.269493)
(0.00109978 0.00266436 0.269683)
(0.00183412 0.00261511 0.270108)
(0.00256334 0.00256343 0.270772)
(0.00329018 0.00251163 0.271673)
(0.00401647 0.00246127 0.272807)
(0.00474701 0.00241439 0.274171)
(0.0054902 0.00237414 0.275757)
(0.00625747 0.0023504 0.277554)
(0.00706263 0.00236485 0.279544)
(0.00035611 0.00345749 0.270552)
(0.00107623 0.00341567 0.2707)
(0.00179588 0.0033543 0.271072)
(0.00251156 0.00329026 0.271673)
(0.00322619 0.0032263 0.272501)
(0.00394174 0.00316418 0.273555)
(0.00466301 0.00310633 0.274829)
(0.00539816 0.00305663 0.276318)
(0.00615717 0.00302754 0.278011)
(0.00695149 0.00304705 0.279894)
(0.000348125 0.00421406 0.271869)
(0.00105328 0.00416457 0.271969)
(0.00175865 0.00409185 0.272278)
(0.00246124 0.00401653 0.272807)
(0.00316409 0.00394184 0.273555)
(0.00386939 0.00386954 0.274519)
(0.00458221 0.0038021 0.275694)
(0.00531075 0.00374388 0.277076)
(0.0060637 0.00370997 0.278654)
(0.00685027 0.00373553 0.280422)
(0.00034066 0.00497314 0.273438)
(0.00103192 0.00491616 0.273483)
(0.00172395 0.00483266 0.273722)
(0.00241439 0.00474707 0.274171)
(0.00310632 0.00466309 0.274829)
(0.00380199 0.00458235 0.275694)
(0.00450682 0.00450702 0.276762)
(0.00522954 0.00444116 0.278026)
(0.00597822 0.00440175 0.279479)
(0.00676116 0.00443308 0.281123)
(0.000334268 0.00574507 0.27525)
(0.00101365 0.00567993 0.275234)
(0.0016942 0.00558556 0.275395)
(0.00237413 0.00549028 0.275757)
(0.00305664 0.00539822 0.276318)
(0.00374385 0.00531082 0.277076)
(0.004441 0.00522967 0.278026)
(0.00515711 0.00515729 0.279162)
(0.00590118 0.00510949 0.280477)
(0.00668609 0.00514006 0.281987)
(0.000330479 0.00654544 0.277291)
(0.00100274 0.00647008 0.277209)
(0.00167663 0.00636336 0.277287)
(0.00235037 0.00625758 0.277554)
(0.00302752 0.00615725 0.278011)
(0.00370992 0.00606374 0.278654)
(0.00440165 0.00597827 0.279479)
(0.00510935 0.0059013 0.280478)
(0.00584229 0.00584245 0.281644)
(0.00663465 0.00585376 0.283003)
(0.000331525 0.0073933 0.279533)
(0.00100742 0.00730382 0.279385)
(0.00168656 0.00718198 0.279374)
(0.00236482 0.00706277 0.279544)
(0.00304701 0.00695162 0.279894)
(0.00373548 0.00685038 0.280423)
(0.004433 0.00676125 0.281123)
(0.00513998 0.0066862 0.281987)
(0.00585362 0.00663479 0.283003)
(0.00664205 0.0066422 0.284189)
(0.000630351 0.000630429 0.264168)
(0.00189696 0.000621611 0.264445)
(0.00315597 0.000608828 0.265001)
(0.0043992 0.000595244 0.26583)
(0.00562715 0.000581147 0.266929)
(0.00683629 0.000566572 0.268289)
(0.00802369 0.000551632 0.2699)
(0.00918723 0.000536554 0.271746)
(0.0103233 0.000522785 0.273801)
(0.0114196 0.000510759 0.276029)
(0.000621533 0.00189707 0.264445)
(0.00187144 0.0018716 0.264705)
(0.0031148 0.00183429 0.265233)
(0.00434344 0.00179454 0.266026)
(0.00555781 0.00175338 0.26708)
(0.00675462 0.00171105 0.268389)
(0.00793126 0.00166795 0.269941)
(0.00908557 0.00162484 0.271723)
(0.0102136 0.00158616 0.273711)
(0.0113023 0.00155746 0.275872)
(0.000608805 0.00315598 0.265001)
(0.00183419 0.0031149 0.265233)
(0.00305399 0.00305415 0.265722)
(0.00426043 0.00298895 0.266467)
(0.00545378 0.00292114 0.267464)
(0.00663086 0.00285137 0.268706)
(0.0077893 0.00278031 0.270185)
(0.00892711 0.00270931 0.271885)
(0.0100398 0.00264649 0.273786)
(0.0111141 0.00260556 0.275858)
(0.00059526 0.00439916 0.26583)
(0.00179453 0.00434344 0.266026)
(0.00298884 0.00426053 0.266467)
(0.00417116 0.00417133 0.267154)
(0.00534181 0.00407821 0.268084)
(0.00649763 0.00398213 0.26925)
(0.00763648 0.00388415 0.270643)
(0.0087566 0.00378619 0.272251)
(0.00985292 0.00369984 0.274053)
(0.010909 0.00364611 0.276024)
(0.000581156 0.00562714 0.266929)
(0.0017534 0.00555779 0.26708)
(0.00292114 0.0054538 0.267464)
(0.00407811 0.00534193 0.268084)
(0.00522476 0.00522494 0.268937)
(0.00635824 0.00510374 0.270016)
(0.00747669 0.00497966 0.271314)
(0.00857873 0.00485529 0.272818)
(0.00965845 0.00474577 0.27451)
(0.0106943 0.00467939 0.276371)
(0.000566573 0.00683631 0.268289)
(0.00171107 0.00675464 0.268389)
(0.0028514 0.00663087 0.268706)
(0.00398212 0.00649768 0.26925)
(0.00510362 0.0063584 0.270016)
(0.00621339 0.00621363 0.271)
(0.00731019 0.00606439 0.272192)
(0.00839339 0.00591368 0.273582)
(0.00945639 0.00578034 0.275153)
(0.0104713 0.00570117 0.276892)
(0.000551633 0.00802374 0.2699)
(0.00166796 0.00793131 0.269941)
(0.00278032 0.00778935 0.270184)
(0.00388418 0.00763652 0.270643)
(0.00497967 0.00747678 0.271314)
(0.00606423 0.00731041 0.272192)
(0.00713727 0.00713759 0.273269)
(0.00819959 0.00696047 0.274535)
(0.00924511 0.00680058 0.275973)
(0.0102401 0.00670573 0.277581)
(0.000536555 0.00918732 0.271746)
(0.00162484 0.00908566 0.271723)
(0.00270931 0.00892719 0.271885)
(0.0037862 0.00875667 0.272251)
(0.00485535 0.00857877 0.272818)
(0.00591367 0.00839347 0.273582)
(0.00696024 0.00819978 0.274534)
(0.00799689 0.00799716 0.275665)
(0.00902054 0.00780494 0.276959)
(0.00999864 0.00768161 0.278426)
(0.000522785 0.0103234 0.273801)
(0.00158615 0.0102137 0.273711)
(0.00264648 0.01004 0.273786)
(0.00369982 0.00985303 0.274053)
(0.00474577 0.00965853 0.27451)
(0.00578033 0.00945641 0.275153)
(0.00680046 0.00924515 0.275973)
(0.00780474 0.0090207 0.276959)
(0.00879188 0.00879209 0.278097)
(0.00975424 0.0086093 0.279411)
(0.000510759 0.0114198 0.276029)
(0.00155745 0.0113025 0.275872)
(0.00260555 0.0111143 0.275858)
(0.00364609 0.0109091 0.276024)
(0.00467936 0.0106945 0.276371)
(0.00570111 0.0104714 0.276892)
(0.00670566 0.0102402 0.277581)
(0.00768151 0.00999878 0.278426)
(0.00860912 0.00975442 0.279411)
(0.00953182 0.00953202 0.280552)
(0.000889942 0.000890064 0.258607)
(0.00267614 0.000877554 0.2589)
(0.00444999 0.000859385 0.259488)
(0.00619945 0.000840001 0.260365)
(0.00792204 0.000819627 0.26153)
(0.00960816 0.000798107 0.262977)
(0.0112462 0.000775317 0.264696)
(0.0128215 0.000751184 0.266674)
(0.014313 0.000727114 0.268893)
(0.0156819 0.000702119 0.271324)
(0.000877433 0.00267631 0.2589)
(0.00263992 0.00264016 0.259174)
(0.00439151 0.00258709 0.259732)
(0.0061202 0.00253023 0.260572)
(0.00782343 0.00247057 0.261689)
(0.00949225 0.00240791 0.26308)
(0.0111159 0.00234205 0.264735)
(0.0126806 0.00227309 0.266644)
(0.0141658 0.00220569 0.268787)
(0.0155329 0.00214329 0.27114)
(0.000859351 0.00444998 0.259487)
(0.00258693 0.00439165 0.259732)
(0.00430484 0.00430508 0.26025)
(0.00600164 0.00421149 0.261039)
(0.0076745 0.00411275 0.262097)
(0.00931474 0.00400895 0.263418)
(0.0109124 0.00389992 0.264996)
(0.0124547 0.00378607 0.266818)
(0.0139215 0.00367647 0.268869)
(0.0152745 0.00358345 0.271124)
(0.000840031 0.00619935 0.260365)
(0.00253024 0.00612016 0.260572)
(0.00421135 0.00600177 0.261039)
(0.00587301 0.00587323 0.261768)
(0.0075124 0.0057369 0.262756)
(0.00912098 0.00559313 0.263998)
(0.0106894 0.00544201 0.265488)
(0.0122057 0.00528437 0.267213)
(0.0136502 0.0051335 0.26916)
(0.0149805 0.0050097 0.271307)
(0.000819647 0.00792197 0.26153)
(0.00247063 0.00782335 0.261689)
(0.00411277 0.00767449 0.262097)
(0.00573677 0.00751254 0.262756)
(0.00733994 0.00734018 0.263665)
(0.0089142 0.00715752 0.264818)
(0.0104508 0.00696484 0.266208)
(0.0119388 0.00676366 0.267827)
(0.0133586 0.00657173 0.269658)
(0.0146602 0.00641728 0.271688)
(0.000798116 0.00960813 0.262976)
(0.00240795 0.00949221 0.26308)
(0.00400901 0.0093147 0.263418)
(0.00559315 0.009121 0.263998)
(0.00715738 0.00891439 0.264818)
(0.00869415 0.00869447 0.265872)
(0.0101957 0.00846093 0.267154)
(0.0116527 0.00821572 0.268655)
(0.0130455 0.00798138 0.270361)
(0.0143144 0.00779557 0.272263)
(0.000775327 0.0112462 0.264695)
(0.00234208 0.0111159 0.264735)
(0.00389997 0.0109124 0.264996)
(0.00544211 0.0106893 0.265488)
(0.00696491 0.0104508 0.266208)
(0.00846075 0.010196 0.267154)
(0.00992293 0.00992335 0.268318)
(0.0113443 0.00963357 0.269691)
(0.0127073 0.00935277 0.271261)
(0.0139417 0.00913112 0.273027)
(0.000751193 0.0128216 0.266674)
(0.00227311 0.0126807 0.266644)
(0.00378611 0.0124547 0.266818)
(0.00528444 0.0122057 0.267213)
(0.00676381 0.0119388 0.267827)
(0.00821577 0.0116527 0.268655)
(0.00963329 0.0113446 0.269691)
(0.0110111 0.0110114 0.270927)
(0.0123365 0.0106766 0.27235)
(0.0135376 0.010402 0.27397)
(0.00072712 0.0143131 0.268893)
(0.00220571 0.014166 0.268787)
(0.00367649 0.0139216 0.268869)
(0.00513352 0.0136503 0.26916)
(0.00657178 0.0133586 0.269658)
(0.00798142 0.0130454 0.270361)
(0.00935266 0.0127073 0.271261)
(0.0106763 0.0123367 0.27235)
(0.0119436 0.0119438 0.273616)
(0.0131097 0.0115764 0.275078)
(0.000702125 0.0156821 0.271324)
(0.0021433 0.0155331 0.271139)
(0.00358347 0.0152747 0.271124)
(0.00500971 0.0149807 0.271307)
(0.00641728 0.0146604 0.271688)
(0.00779554 0.0143144 0.272263)
(0.00913108 0.0139417 0.273027)
(0.0104019 0.0135378 0.27397)
(0.0115762 0.0131099 0.275078)
(0.0126742 0.0126744 0.27637)
(0.00116462 0.00116479 0.251145)
(0.00350091 0.00114863 0.251456)
(0.00582251 0.00112535 0.25208)
(0.00811562 0.00110074 0.253016)
(0.0103767 0.00107497 0.254265)
(0.0125926 0.00104774 0.255828)
(0.0147463 0.00101873 0.257704)
(0.0168154 0.000987664 0.259891)
(0.0187668 0.000955975 0.262384)
(0.0205449 0.000922913 0.265174)
(0.00114847 0.00350112 0.251456)
(0.0034541 0.00345442 0.251747)
(0.00574678 0.00338639 0.25234)
(0.00801264 0.00331415 0.253236)
(0.0102479 0.00323864 0.254435)
(0.0124405 0.00315929 0.255937)
(0.0145745 0.00307545 0.257743)
(0.0166288 0.00298671 0.25985)
(0.0185717 0.00289805 0.262255)
(0.0203477 0.00281437 0.264947)
(0.00112531 0.00582247 0.25208)
(0.00338619 0.00574695 0.25234)
(0.00563548 0.00563578 0.252892)
(0.00785997 0.00551653 0.253737)
(0.0100554 0.00539111 0.254874)
(0.01221 0.00525918 0.256306)
(0.014309 0.00511991 0.25803)
(0.0163328 0.00497301 0.260046)
(0.0182508 0.00482839 0.262348)
(0.0200082 0.00470214 0.264929)
(0.00110079 0.00811544 0.253016)
(0.00331418 0.00801255 0.253236)
(0.00551638 0.00786011 0.253737)
(0.00769554 0.0076958 0.25452)
(0.00984731 0.00752196 0.255588)
(0.01196 0.00733848 0.256939)
(0.0140196 0.00714475 0.258573)
(0.016008 0.00694078 0.260488)
(0.0178954 0.00674129 0.26268)
(0.0196224 0.00657244 0.265142)
(0.00107501 0.0103765 0.254265)
(0.00323874 0.0102478 0.254435)
(0.00539117 0.0100554 0.254874)
(0.00752183 0.00984745 0.255588)
(0.00962633 0.0096266 0.256575)
(0.0116935 0.00939234 0.257837)
(0.0137104 0.00914421 0.259372)
(0.0156598 0.00888299 0.261178)
(0.0175127 0.00862858 0.263251)
(0.0192011 0.00841716 0.265587)
(0.00104776 0.0125925 0.255828)
(0.00315937 0.0124403 0.255937)
(0.00525931 0.0122099 0.256305)
(0.00733856 0.0119599 0.256939)
(0.0093922 0.0116937 0.257837)
(0.0114097 0.0114101 0.258999)
(0.0133794 0.0111079 0.260426)
(0.0152861 0.0107882 0.262114)
(0.0171012 0.0104769 0.26406)
(0.0187452 0.0102217 0.266262)
(0.00101875 0.0147462 0.257703)
(0.00307551 0.0145744 0.257743)
(0.00512002 0.0143089 0.25803)
(0.00714493 0.0140195 0.258573)
(0.00914437 0.0137104 0.259372)
(0.0111077 0.0133797 0.260426)
(0.0130244 0.0130249 0.261735)
(0.0148825 0.0126458 0.263296)
(0.0166558 0.0122722 0.265104)
(0.0182525 0.0119675 0.267164)
(0.000987684 0.0168154 0.25989)
(0.00298677 0.0166288 0.25985)
(0.00497311 0.0163328 0.260045)
(0.00694093 0.0160079 0.260488)
(0.00888326 0.0156597 0.261178)
(0.0107884 0.0152861 0.262114)
(0.0126455 0.0148828 0.263295)
(0.0144449 0.0144453 0.264719)
(0.0161668 0.0140003 0.266381)
(0.0177169 0.0136255 0.26829)
(0.00095599 0.0187669 0.262384)
(0.00289809 0.0185718 0.262255)
(0.00482845 0.0182509 0.262348)
(0.00674137 0.0178954 0.26268)
(0.00862872 0.0175127 0.263251)
(0.010477 0.0171011 0.26406)
(0.0122721 0.0166557 0.265104)
(0.014 0.016167 0.266381)
(0.0156457 0.015646 0.267885)
(0.0171464 0.0151545 0.269632)
(0.000922928 0.0205451 0.265174)
(0.00281441 0.0203479 0.264947)
(0.00470219 0.0200084 0.264929)
(0.0065725 0.0196225 0.265142)
(0.00841721 0.0192012 0.265587)
(0.0102217 0.0187452 0.266262)
(0.0119675 0.0182525 0.267164)
(0.0136255 0.017717 0.26829)
(0.0151543 0.0171467 0.269632)
(0.0165635 0.0165638 0.271211)
(0.00145306 0.00145326 0.241696)
(0.00436804 0.00143378 0.24202)
(0.00727089 0.00140621 0.242672)
(0.0101497 0.00137774 0.243656)
(0.0130037 0.00134851 0.244977)
(0.015821 0.00131812 0.246647)
(0.0185848 0.00128616 0.248676)
(0.0212716 0.00125223 0.251078)
(0.0238452 0.00121785 0.253868)
(0.0262432 0.0011848 0.257062)
(0.00143358 0.00436829 0.24202)
(0.00431152 0.0043119 0.242324)
(0.00717904 0.00423129 0.242945)
(0.010024 0.00414766 0.243887)
(0.012845 0.00406196 0.245156)
(0.0156313 0.00397339 0.246762)
(0.0183672 0.00388099 0.248715)
(0.0210307 0.00378407 0.251027)
(0.0235869 0.00368784 0.253714)
(0.0259741 0.00360379 0.256787)
(0.00140616 0.00727081 0.242672)
(0.00423106 0.00717921 0.242945)
(0.00704668 0.00704702 0.243525)
(0.00984158 0.0069084 0.244416)
(0.0126135 0.00676532 0.245625)
(0.0153517 0.00661718 0.247159)
(0.0180418 0.00646274 0.249028)
(0.0206633 0.00630125 0.251244)
(0.0231825 0.00614311 0.25382)
(0.0255384 0.00601558 0.256767)
(0.0013778 0.0101495 0.243655)
(0.00414771 0.0100238 0.243887)
(0.00690823 0.00984171 0.244416)
(0.00964949 0.00964978 0.245248)
(0.0123688 0.00945037 0.246388)
(0.0150554 0.00924313 0.247843)
(0.0176955 0.00902701 0.249623)
(0.02027 0.00880147 0.251737)
(0.0227459 0.00858203 0.254197)
(0.0250581 0.00841031 0.257014)
(0.00134857 0.0130034 0.244977)
(0.00406211 0.0128448 0.245156)
(0.00676543 0.0126134 0.245625)
(0.00945024 0.0123689 0.246388)
(0.0121136 0.0121139 0.247451)
(0.0147452 0.0118475 0.248819)
(0.0173321 0.0115687 0.250502)
(0.0198563 0.011278 0.252508)
(0.022285 0.0109963 0.254847)
(0.0245451 0.0107796 0.25753)
(0.00131816 0.0158207 0.246646)
(0.00397351 0.015631 0.246762)
(0.00661739 0.0153514 0.247159)
(0.00924328 0.0150552 0.247843)
(0.0118474 0.0147454 0.248819)
(0.0144199 0.0144203 0.250093)
(0.0169492 0.0140781 0.251671)
(0.0194194 0.0137197 0.253562)
(0.0217976 0.0133724 0.255774)
(0.0240001 0.0131084 0.258317)
(0.0012862 0.0185846 0.248675)
(0.00388109 0.018367 0.248715)
(0.00646292 0.0180416 0.249028)
(0.00902729 0.0176953 0.249622)
(0.011569 0.017332 0.250502)
(0.0140779 0.0169496 0.251671)
(0.0165439 0.0165444 0.253135)
(0.0189541 0.0161159 0.254903)
(0.0212778 0.0156959 0.25698)
(0.0234207 0.015377 0.259378)
(0.00125226 0.0212715 0.251077)
(0.00378416 0.0210306 0.251027)
(0.0063014 0.0206632 0.251244)
(0.00880171 0.0202698 0.251737)
(0.0112784 0.0198561 0.252508)
(0.0137199 0.0194193 0.253561)
(0.0161156 0.0189543 0.254903)
(0.0184551 0.0184556 0.256537)
(0.0207144 0.0179515 0.25847)
(0.0227992 0.0175537 0.260715)
(0.00121788 0.0238452 0.253868)
(0.00368791 0.0235869 0.253713)
(0.00614323 0.0231825 0.25382)
(0.00858218 0.0227458 0.254197)
(0.0109965 0.0222848 0.254847)
(0.0133726 0.0217973 0.255774)
(0.0156959 0.0212777 0.25698)
(0.0179512 0.0207146 0.25847)
(0.0201193 0.0201195 0.260249)
(0.0221439 0.0195907 0.26233)
(0.00118483 0.0262433 0.257061)
(0.00360386 0.0259742 0.256787)
(0.00601567 0.0255385 0.256767)
(0.00841043 0.0250581 0.257014)
(0.0107797 0.024545 0.25753)
(0.0131085 0.024 0.258317)
(0.0153771 0.0234206 0.259378)
(0.0175537 0.0227993 0.260715)
(0.0195905 0.0221442 0.26233)
(0.0215031 0.0215033 0.264244)
(0.00174682 0.00174706 0.230193)
(0.00525264 0.00172478 0.230517)
(0.00875493 0.00169411 0.23117)
(0.0122483 0.00166361 0.232161)
(0.015739 0.00163341 0.233503)
(0.0192226 0.00160311 0.235215)
(0.0226891 0.00157227 0.237322)
(0.0261222 0.00154052 0.239854)
(0.029492 0.0015095 0.242848)
(0.0327415 0.00148606 0.246347)
(0.00172456 0.00525291 0.230517)
(0.00518788 0.00518831 0.230821)
(0.00864899 0.00509852 0.231444)
(0.0121019 0.00500885 0.232394)
(0.0155519 0.00492026 0.233685)
(0.0189949 0.00483189 0.235332)
(0.0224223 0.0047427 0.23736)
(0.0258185 0.00465191 0.239795)
(0.0291547 0.00456492 0.242674)
(0.0323747 0.00450556 0.246033)
(0.00169405 0.00875481 0.23117)
(0.00509827 0.00864917 0.231444)
(0.00850079 0.00850115 0.232028)
(0.0118962 0.00835156 0.232931)
(0.0152883 0.00820248 0.234164)
(0.0186728 0.00805323 0.235742)
(0.0220416 0.00790242 0.237688)
(0.0253806 0.00774913 0.240026)
(0.0286612 0.00760391 0.242789)
(0.0318284 0.00751349 0.24601)
(0.00166368 0.0122479 0.232161)
(0.00500892 0.0121016 0.232394)
(0.0083514 0.0118963 0.232931)
(0.0116873 0.0116876 0.233778)
(0.0150198 0.0114781 0.234947)
(0.0183438 0.0112673 0.236452)
(0.0216516 0.011054 0.238312)
(0.0249299 0.0108374 0.240551)
(0.0281498 0.0106332 0.243197)
(0.0312534 0.0105093 0.246283)
(0.00163348 0.0157387 0.233503)
(0.00492045 0.0155515 0.233684)
(0.00820263 0.0152881 0.234163)
(0.011478 0.0150199 0.234947)
(0.014749 0.0147493 0.236044)
(0.0180108 0.0144753 0.237469)
(0.0212557 0.0141969 0.239239)
(0.0244715 0.0139141 0.241376)
(0.0276281 0.0136481 0.243905)
(0.0306623 0.0134881 0.246853)
(0.00160316 0.0192222 0.235215)
(0.00483206 0.0189946 0.235332)
(0.0080535 0.0186724 0.235742)
(0.0112675 0.0183436 0.236452)
(0.0144752 0.0180109 0.237469)
(0.017672 0.0176724 0.238807)
(0.0208514 0.0173261 0.240481)
(0.0240024 0.0169725 0.24251)
(0.0270938 0.0166393 0.244918)
(0.0300555 0.016439 0.247728)
(0.00157232 0.0226888 0.237321)
(0.00474284 0.0224219 0.237359)
(0.00790267 0.0220413 0.237687)
(0.0110544 0.0216512 0.238311)
(0.0141972 0.0212556 0.239239)
(0.0173259 0.0208517 0.240481)
(0.0204352 0.0204358 0.242051)
(0.0235168 0.0200066 0.243966)
(0.0265405 0.0195966 0.246248)
(0.0294304 0.0193456 0.248915)
(0.00154056 0.026122 0.239853)
(0.00465204 0.0258182 0.239795)
(0.00774934 0.0253803 0.240026)
(0.0108378 0.0249295 0.240551)
(0.0139146 0.0244711 0.241376)
(0.0169729 0.0240023 0.24251)
(0.0200063 0.0235171 0.243966)
(0.023009 0.0230095 0.245759)
(0.025956 0.0225079 0.247906)
(0.0287783 0.0221787 0.250424)
(0.00150954 0.0294919 0.242847)
(0.00456503 0.0291546 0.242673)
(0.00760408 0.028661 0.242788)
(0.0106334 0.0281495 0.243197)
(0.0136484 0.0276277 0.243905)
(0.0166397 0.0270933 0.244918)
(0.0195966 0.0265402 0.246247)
(0.0225077 0.0259561 0.247905)
(0.0253515 0.0253518 0.249907)
(0.0281072 0.0248876 0.252266)
(0.00148609 0.0327416 0.246346)
(0.00450565 0.0323747 0.246033)
(0.00751363 0.0318284 0.24601)
(0.0105095 0.0312533 0.246282)
(0.0134883 0.0306621 0.246853)
(0.0164392 0.0300553 0.247727)
(0.0193457 0.0294302 0.248914)
(0.0221787 0.0287783 0.250423)
(0.0248875 0.0281074 0.252266)
(0.0275127 0.0275129 0.254466)
(0.00202926 0.00202951 0.216647)
(0.00610464 0.00200513 0.216949)
(0.0101908 0.00197268 0.217558)
(0.0142928 0.00194204 0.218488)
(0.0184287 0.00191338 0.219757)
(0.0226065 0.00188636 0.221392)
(0.0268303 0.00186065 0.223427)
(0.0310992 0.00183601 0.225907)
(0.0354 0.00181435 0.22889)
(0.0396936 0.00180994 0.232442)
(0.00200488 0.00610494 0.216948)
(0.00603355 0.00603401 0.217232)
(0.0100735 0.00593888 0.217814)
(0.0141288 0.00584871 0.218707)
(0.0182159 0.00576457 0.219928)
(0.0223426 0.0056857 0.221502)
(0.0265133 0.00561123 0.22346)
(0.0307274 0.00554063 0.225845)
(0.0349715 0.00547952 0.228709)
(0.0392078 0.00546948 0.232113)
(0.00197262 0.0101906 0.217558)
(0.00593861 0.0100737 0.217814)
(0.00991539 0.00991576 0.218363)
(0.0139074 0.00976404 0.219214)
(0.0179288 0.00962074 0.220384)
(0.0219865 0.00948536 0.221896)
(0.0260849 0.00935672 0.223779)
(0.0302235 0.00923411 0.226072)
(0.0343879 0.00912805 0.228823)
(0.0385421 0.00911269 0.232088)
(0.00194212 0.0142924 0.218488)
(0.00584879 0.0141286 0.218707)
(0.00976387 0.0139075 0.219214)
(0.0136935 0.0136938 0.220017)
(0.0176504 0.01349 0.221132)
(0.0216401 0.0132958 0.222579)
(0.0256666 0.0131103 0.224387)
(0.0297294 0.012933 0.22659)
(0.033812 0.0127789 0.229233)
(0.0378777 0.0127532 0.232364)
(0.00191346 0.0184283 0.219757)
(0.00576479 0.0182155 0.219928)
(0.00962092 0.0179286 0.220384)
(0.0134899 0.0176505 0.221132)
(0.0173832 0.0173835 0.222186)
(0.021306 0.0171267 0.223566)
(0.0252617 0.0168795 0.225295)
(0.0292499 0.0166421 0.227408)
(0.0332506 0.0164349 0.229944)
(0.0372269 0.0163934 0.232946)
(0.00188641 0.022606 0.221391)
(0.00568589 0.0223421 0.221502)
(0.00948566 0.0219861 0.221895)
(0.013296 0.0216399 0.222579)
(0.0171266 0.0213062 0.223565)
(0.0209825 0.020983 0.224871)
(0.0248676 0.0206687 0.22652)
(0.0287817 0.020364 0.22854)
(0.0327015 0.0200954 0.230969)
(0.0365901 0.020031 0.233842)
(0.0018607 0.0268299 0.223426)
(0.0056114 0.0265129 0.22346)
(0.009357 0.0260844 0.223779)
(0.0131108 0.0256662 0.224387)
(0.01688 0.0252615 0.225295)
(0.0206685 0.0248679 0.226519)
(0.0244809 0.0244816 0.22808)
(0.0283191 0.0241015 0.230004)
(0.0321584 0.0237587 0.232322)
(0.0359645 0.0236582 0.235067)
(0.00183606 0.0310988 0.225907)
(0.00554078 0.030727 0.225845)
(0.00923436 0.0302231 0.226072)
(0.0129334 0.029729 0.22659)
(0.0166427 0.0292494 0.227408)
(0.0203643 0.0287814 0.22854)
(0.0241012 0.0283194 0.230004)
(0.0278566 0.0278571 0.231823)
(0.031609 0.0274216 0.234026)
(0.0353412 0.0272538 0.236636)
(0.00181439 0.0353997 0.228889)
(0.00547965 0.0349712 0.228709)
(0.00912825 0.0343876 0.228823)
(0.0127792 0.0338116 0.229233)
(0.0164353 0.0332502 0.229944)
(0.0200958 0.032701 0.230968)
(0.0237588 0.032158 0.232322)
(0.0274214 0.0316091 0.234026)
(0.0310635 0.0310637 0.236103)
(0.034728 0.030769 0.238572)
(0.00180998 0.0396935 0.232441)
(0.00546959 0.0392077 0.232112)
(0.00911285 0.038542 0.232087)
(0.0127534 0.0378775 0.232364)
(0.0163936 0.0372266 0.232945)
(0.0200313 0.0365898 0.233842)
(0.0236584 0.0359642 0.235066)
(0.0272539 0.0353411 0.236636)
(0.0307688 0.0347282 0.238572)
(0.0342884 0.0342887 0.240901)
(0.00227683 0.00227709 0.201205)
(0.00685277 0.00225134 0.201456)
(0.0114572 0.00221834 0.201964)
(0.0161086 0.0021891 0.202743)