/*--------------------------------*- C++ -*----------------------------------*\
| =========                 |                                                 |
| \\      /  F ield         | foam-extend: Open Source CFD                    |
|  \\    /   O peration     | Version:     3.1                                |
|   \\  /    A nd           | Web:         http://www.extend-project.de       |
|    \\/     M anipulation  |                                                 |
\*---------------------------------------------------------------------------*/
FoamFile
{
    version     2.0;
    format      ascii;
    class       volScalarField::DimensionedInternalField;
    location    "0.0019";
    object      V0;
}
// * * * * * * * * * * * * * * * * * * * * * * * * * * * * * * * * * * * * * //

dimensions      [0 3 0 0 0 0 0];

value           nonuniform List<scalar> 
16000
(
7.23872e-11
7.11192e-11
6.98497e-11
6.85879e-11
6.73355e-11
6.60925e-11
6.48591e-11
6.36355e-11
6.24223e-11
6.12184e-11
7.1118e-11
6.98568e-11
6.85938e-11
6.73344e-11
6.60823e-11
6.48391e-11
6.3605e-11
6.23801e-11
6.11644e-11
5.99551e-11
6.98486e-11
6.85926e-11
6.73369e-11
6.6082e-11
6.48312e-11
6.35877e-11
6.23526e-11
6.11258e-11
5.99072e-11
5.8694e-11
6.85876e-11
6.73335e-11
6.6081e-11
6.48302e-11
6.35816e-11
6.23375e-11
6.11005e-11
5.98713e-11
5.86496e-11
5.74333e-11
6.73356e-11
6.60822e-11
6.48304e-11
6.35807e-11
6.23337e-11
6.10898e-11
5.98505e-11
5.86176e-11
5.73925e-11
5.61737e-11
6.60926e-11
6.48392e-11
6.35875e-11
6.23368e-11
6.10889e-11
5.98448e-11
5.86041e-11
5.73672e-11
5.61371e-11
5.49154e-11
6.48592e-11
6.36051e-11
6.23527e-11
6.11005e-11
5.98496e-11
5.86026e-11
5.73599e-11
5.61199e-11
5.48837e-11
5.3658e-11
6.36358e-11
6.23803e-11
6.1126e-11
5.98714e-11
5.86175e-11
5.73658e-11
5.61182e-11
5.48734e-11
5.36309e-11
5.23999e-11
6.24226e-11
6.11647e-11
5.99074e-11
5.86497e-11
5.73926e-11
5.61366e-11
5.48827e-11
5.36303e-11
5.23793e-11
5.11387e-11
6.12187e-11
5.99554e-11
5.86942e-11
5.74335e-11
5.61738e-11
5.49154e-11
5.36578e-11
5.23995e-11
5.11382e-11
4.98807e-11
7.34713e-11
7.21568e-11
7.08188e-11
6.94858e-11
6.8163e-11
6.68492e-11
6.55436e-11
6.42452e-11
6.29526e-11
6.16602e-11
7.21532e-11
7.08601e-11
6.95435e-11
6.82197e-11
6.69006e-11
6.55895e-11
6.42859e-11
6.29884e-11
6.16949e-11
6.03957e-11
7.08156e-11
6.954e-11
6.82473e-11
6.69407e-11
6.5629e-11
6.43216e-11
6.30205e-11
6.17235e-11
6.04293e-11
5.91291e-11
6.94852e-11
6.82171e-11
6.69377e-11
6.56473e-11
6.43471e-11
6.30434e-11
6.17429e-11
6.04457e-11
5.91508e-11
5.78521e-11
6.81632e-11
6.69003e-11
6.56269e-11
6.43443e-11
6.30546e-11
6.1758e-11
6.04574e-11
5.91574e-11
5.78606e-11
5.65648e-11
6.68496e-11
6.55899e-11
6.43213e-11
6.30415e-11
6.17552e-11
6.0465e-11
5.91679e-11
5.78642e-11
5.65613e-11
5.52672e-11
6.55441e-11
6.42864e-11
6.30209e-11
6.17427e-11
6.0455e-11
5.91635e-11
5.78691e-11
5.65647e-11
5.52533e-11
5.39581e-11
6.42459e-11
6.2989e-11
6.1724e-11
6.04462e-11
5.91571e-11
5.78601e-11
5.65601e-11
5.52516e-11
5.3933e-11
5.26345e-11
6.29534e-11
6.16956e-11
6.04299e-11
5.91513e-11
5.78611e-11
5.65604e-11
5.52509e-11
5.39312e-11
5.26012e-11
5.12908e-11
6.1661e-11
6.03964e-11
5.91296e-11
5.78525e-11
5.65652e-11
5.52675e-11
5.39581e-11
5.26337e-11
5.12895e-11
4.99512e-11
7.4445e-11
7.30864e-11
7.16828e-11
7.02812e-11
6.88904e-11
6.75086e-11
6.61344e-11
6.47663e-11
6.34027e-11
6.20353e-11
7.30807e-11
7.17575e-11
7.03895e-11
6.90038e-11
6.76201e-11
6.6244e-11
6.48746e-11
6.35099e-11
6.2147e-11
6.07707e-11
7.16778e-11
7.03839e-11
6.9056e-11
6.76996e-11
6.63297e-11
6.49613e-11
6.35981e-11
6.22365e-11
6.08752e-11
5.95003e-11
7.02803e-11
6.89997e-11
6.76948e-11
6.63666e-11
6.50174e-11
6.36573e-11
6.22974e-11
6.09385e-11
5.9579e-11
5.82099e-11
6.88909e-11
6.76197e-11
6.63262e-11
6.50129e-11
6.36829e-11
6.2337e-11
6.09798e-11
5.96194e-11
5.82603e-11
5.68993e-11
6.75093e-11
6.62447e-11
6.49608e-11
6.36542e-11
6.23324e-11
6.09998e-11
5.96515e-11
5.82883e-11
5.69229e-11
5.55684e-11
6.61353e-11
6.48754e-11
6.35988e-11
6.22972e-11
6.09759e-11
5.96444e-11
5.83039e-11
5.69432e-11
5.55677e-11
5.4215e-11
6.47675e-11
6.35109e-11
6.22375e-11
6.09393e-11
5.96188e-11
5.82817e-11
5.69357e-11
5.5572e-11
5.41885e-11
5.28347e-11
6.3404e-11
6.21482e-11
6.08762e-11
5.958e-11
5.82612e-11
5.69216e-11
5.55639e-11
5.41857e-11
5.27873e-11
5.14166e-11
6.20365e-11
6.07718e-11
5.95012e-11
5.82108e-11
5.69001e-11
5.5569e-11
5.42154e-11
5.28336e-11
5.14146e-11
5.00005e-11
7.52889e-11
7.38913e-11
7.24293e-11
7.09672e-11
6.95176e-11
6.80784e-11
6.66484e-11
6.52269e-11
6.38128e-11
6.2397e-11
7.38836e-11
7.25342e-11
7.11207e-11
6.96807e-11
6.82414e-11
6.68107e-11
6.53881e-11
6.3972e-11
6.25598e-11
6.11322e-11
7.24226e-11
7.11133e-11
6.97548e-11
6.83553e-11
6.69355e-11
6.55164e-11
6.41035e-11
6.2693e-11
6.1284e-11
5.9859e-11
7.09662e-11
6.96753e-11
6.83488e-11
6.69886e-11
6.5598e-11
6.41916e-11
6.27847e-11
6.13793e-11
5.99745e-11
5.85584e-11
6.95184e-11
6.82409e-11
6.69309e-11
6.5592e-11
6.4229e-11
6.28433e-11
6.14419e-11
6.00363e-11
5.86339e-11
5.72301e-11
6.80795e-11
6.68117e-11
6.55159e-11
6.41874e-11
6.28372e-11
6.14713e-11
6.00838e-11
5.86766e-11
5.72677e-11
5.58741e-11
6.66498e-11
6.53894e-11
6.41046e-11
6.27846e-11
6.14366e-11
6.00741e-11
5.86995e-11
5.72976e-11
5.58769e-11
5.44874e-11
6.52286e-11
6.39737e-11
6.26944e-11
6.13805e-11
6.00356e-11
5.86676e-11
5.72875e-11
5.58833e-11
5.44534e-11
5.30635e-11
6.38146e-11
6.25616e-11
6.12856e-11
5.9976e-11
5.86353e-11
5.7266e-11
5.5872e-11
5.44498e-11
5.30002e-11
5.15861e-11
6.23987e-11
6.11338e-11
5.98604e-11
5.85597e-11
5.72313e-11
5.58751e-11
5.44881e-11
5.30622e-11
5.15834e-11
5.01079e-11
7.59839e-11
7.4554e-11
7.30437e-11
7.15323e-11
7.00357e-11
6.85519e-11
6.70804e-11
6.56209e-11
6.41731e-11
6.27272e-11
7.45447e-11
7.31741e-11
7.17232e-11
7.02389e-11
6.87553e-11
6.72824e-11
6.58203e-11
6.43679e-11
6.29227e-11
6.14619e-11
7.30358e-11
7.17143e-11
7.0331e-11
6.88969e-11
6.74378e-11
6.59797e-11
6.45301e-11
6.3085e-11
6.16442e-11
6.01865e-11
7.15313e-11
7.02326e-11
6.88891e-11
6.75037e-11
6.60811e-11
6.46393e-11
6.31979e-11
6.17598e-11
6.03248e-11
5.88779e-11
7.0037e-11
6.87549e-11
6.74323e-11
6.60738e-11
6.46857e-11
6.32702e-11
6.18364e-11
6.0399e-11
5.89677e-11
5.7536e-11
6.85535e-11
6.72839e-11
6.59793e-11
6.46343e-11
6.32628e-11
6.18726e-11
6.04569e-11
5.90184e-11
5.75799e-11
5.61609e-11
6.70823e-11
6.58221e-11
6.45316e-11
6.31978e-11
6.18301e-11
6.0445e-11
5.90461e-11
5.76151e-11
5.61627e-11
5.47489e-11
6.56232e-11
6.43701e-11
6.30869e-11
6.17615e-11
6.03983e-11
5.90075e-11
5.76027e-11
5.61693e-11
5.47059e-11
5.32913e-11
6.41756e-11
6.29251e-11
6.16463e-11
6.03267e-11
5.89695e-11
5.75779e-11
5.61569e-11
5.47016e-11
5.32134e-11
5.17674e-11
6.27295e-11
6.14641e-11
6.01885e-11
5.88798e-11
5.75378e-11
5.61625e-11
5.475e-11
5.32899e-11
5.17642e-11
5.02404e-11
7.65111e-11
7.50568e-11
7.35097e-11
7.19609e-11
7.04294e-11
6.8913e-11
6.74116e-11
6.59256e-11
6.4455e-11
6.29888e-11
7.50463e-11
7.36598e-11
7.21803e-11
7.06624e-11
6.91459e-11
6.76422e-11
6.61518e-11
6.4674e-11
6.32064e-11
6.17229e-11
7.35009e-11
7.21704e-11
7.07684e-11
6.93082e-11
6.78199e-11
6.63335e-11
6.48577e-11
6.33885e-11
6.19259e-11
6.04457e-11
7.196e-11
7.06555e-11
6.92994e-11
6.78954e-11
6.64492e-11
6.49818e-11
6.35158e-11
6.20549e-11
6.0599e-11
5.91312e-11
7.0431e-11
6.91457e-11
6.78138e-11
6.6441e-11
6.50347e-11
6.35978e-11
6.2141e-11
6.06813e-11
5.92299e-11
5.77792e-11
6.8915e-11
6.76441e-11
6.63331e-11
6.49762e-11
6.35894e-11
6.21819e-11
6.07462e-11
5.92857e-11
5.78263e-11
5.63899e-11
6.74141e-11
6.61541e-11
6.48596e-11
6.35159e-11
6.21338e-11
6.07326e-11
5.93165e-11
5.78649e-11
5.63898e-11
5.4959e-11
6.59285e-11
6.46767e-11
6.33909e-11
6.2057e-11
6.06805e-11
5.92732e-11
5.78507e-11
5.63965e-11
5.49087e-11
5.34767e-11
6.44581e-11
6.32093e-11
6.19285e-11
6.06014e-11
5.92321e-11
5.78241e-11
5.63832e-11
5.49038e-11
5.33875e-11
5.19191e-11
6.29918e-11
6.17257e-11
6.04482e-11
5.91335e-11
5.77813e-11
5.63918e-11
5.49604e-11
5.34752e-11
5.19154e-11
5.03575e-11
7.68554e-11
7.5385e-11
7.3813e-11
7.22389e-11
7.06837e-11
6.91453e-11
6.76238e-11
6.612e-11
6.4634e-11
6.31539e-11
7.53738e-11
7.39768e-11
7.24776e-11
7.09367e-11
6.93979e-11
6.78733e-11
6.63639e-11
6.48689e-11
6.33861e-11
6.18875e-11
7.38038e-11
7.24673e-11
7.10522e-11
6.9574e-11
6.8066e-11
6.65603e-11
6.50668e-11
6.35813e-11
6.2104e-11
6.0609e-11
7.2238e-11
7.09295e-11
6.95646e-11
6.81478e-11
6.66857e-11
6.52009e-11
6.37183e-11
6.22421e-11
6.07722e-11
5.92905e-11
7.06855e-11
6.93978e-11
6.80594e-11
6.66768e-11
6.52582e-11
6.38068e-11
6.23345e-11
6.08599e-11
5.9395e-11
5.79319e-11
6.91475e-11
6.78754e-11
6.656e-11
6.5195e-11
6.37978e-11
6.23787e-11
6.09296e-11
5.94544e-11
5.79811e-11
5.65335e-11
6.76266e-11
6.63664e-11
6.5069e-11
6.37185e-11
6.23269e-11
6.0915e-11
5.94875e-11
5.80222e-11
5.65322e-11
5.50907e-11
6.61232e-11
6.4872e-11
6.3584e-11
6.22444e-11
6.08592e-11
5.9441e-11
5.80069e-11
5.65392e-11
5.50358e-11
5.35933e-11
6.46374e-11
6.33893e-11
6.21069e-11
6.07748e-11
5.93975e-11
5.79788e-11
5.65251e-11
5.50306e-11
5.34969e-11
5.20156e-11
6.31572e-11
6.18906e-11
6.06119e-11
5.92932e-11
5.79344e-11
5.65357e-11
5.50924e-11
5.35917e-11
5.20117e-11
5.04347e-11
7.70099e-11
7.55316e-11
7.39465e-11
7.23587e-11
7.07904e-11
6.92395e-11
6.77065e-11
6.61922e-11
6.46972e-11
6.32093e-11
7.55201e-11
7.41181e-11
7.26079e-11
7.10541e-11
6.95029e-11
6.79664e-11
6.64458e-11
6.49408e-11
6.34492e-11
6.19426e-11
7.39373e-11
7.25977e-11
7.11748e-11
6.96862e-11
6.81671e-11
6.66505e-11
6.51467e-11
6.36517e-11
6.2166e-11
6.06635e-11
7.23579e-11
7.10469e-11
6.96766e-11
6.82523e-11
6.67811e-11
6.52865e-11
6.37944e-11
6.23094e-11
6.08317e-11
5.93433e-11
7.07923e-11
6.95027e-11
6.81604e-11
6.67719e-11
6.53462e-11
6.38866e-11
6.24058e-11
6.09229e-11
5.94507e-11
5.79819e-11
6.92418e-11
6.79686e-11
6.66502e-11
6.52804e-11
6.38773e-11
6.24517e-11
6.09953e-11
5.95125e-11
5.80321e-11
5.65798e-11
6.77093e-11
6.64485e-11
6.5149e-11
6.37947e-11
6.23979e-11
6.09803e-11
5.95469e-11
5.80749e-11
5.65781e-11
5.51327e-11
6.61956e-11
6.4944e-11
6.36546e-11
6.23119e-11
6.09222e-11
5.94988e-11
5.80592e-11
5.65857e-11
5.50759e-11
5.36301e-11
6.47008e-11
6.34526e-11
6.21691e-11
6.08344e-11
5.94533e-11
5.80298e-11
5.65708e-11
5.50705e-11
5.35308e-11
5.20465e-11
6.32127e-11
6.19458e-11
6.06665e-11
5.93461e-11
5.79845e-11
5.65822e-11
5.51344e-11
5.36284e-11
5.20425e-11
5.04613e-11
7.69785e-11
7.55003e-11
7.39135e-11
7.23229e-11
7.07512e-11
6.91965e-11
6.76597e-11
6.6142e-11
6.46442e-11
6.31545e-11
7.5489e-11
7.40866e-11
7.25739e-11
7.10169e-11
6.94624e-11
6.79222e-11
6.63979e-11
6.48895e-11
6.33952e-11
6.18878e-11
7.39046e-11
7.25641e-11
7.11386e-11
6.96469e-11
6.81248e-11
6.66047e-11
6.50975e-11
6.35995e-11
6.21115e-11
6.06089e-11
7.23221e-11
7.10099e-11
6.96375e-11
6.82105e-11
6.67365e-11
6.52391e-11
6.37441e-11
6.22566e-11
6.07771e-11
5.92893e-11
7.0753e-11
6.94622e-11
6.8118e-11
6.67273e-11
6.52992e-11
6.38373e-11
6.23544e-11
6.08699e-11
5.93966e-11
5.79289e-11
6.91988e-11
6.79243e-11
6.66044e-11
6.52329e-11
6.38281e-11
6.24007e-11
6.0943e-11
5.94595e-11
5.79791e-11
5.65287e-11
6.76625e-11
6.64005e-11
6.50997e-11
6.37443e-11
6.23466e-11
6.09282e-11
5.94942e-11
5.80225e-11
5.6527e-11
5.50845e-11
6.61452e-11
6.48925e-11
6.36022e-11
6.2259e-11
6.08692e-11
5.9446e-11
5.80071e-11
5.65353e-11
5.50285e-11
5.35867e-11
6.46476e-11
6.33984e-11
6.21145e-11
6.07798e-11
5.93991e-11
5.79768e-11
5.65198e-11
5.50231e-11
5.34886e-11
5.2011e-11
6.31577e-11
6.18909e-11
6.06117e-11
5.92919e-11
5.79314e-11
5.65309e-11
5.50861e-11
5.3585e-11
5.2007e-11
5.04358e-11
7.6778e-11
7.53064e-11
7.37284e-11
7.21448e-11
7.05784e-11
6.90278e-11
6.74941e-11
6.59792e-11
6.44843e-11
6.29986e-11
7.52956e-11
7.38968e-11
7.23896e-11
7.08384e-11
6.92887e-11
6.77522e-11
6.62307e-11
6.4725e-11
6.32338e-11
6.17324e-11
7.37198e-11
7.23804e-11
7.09571e-11
6.9469e-11
6.79509e-11
6.64343e-11
6.49298e-11
6.34347e-11
6.19502e-11
6.04543e-11
7.2144e-11
7.08318e-11
6.946e-11
6.80347e-11
6.65636e-11
6.50696e-11
6.35778e-11
6.20936e-11
6.06181e-11
5.91373e-11
7.05799e-11
6.92884e-11
6.79444e-11
6.65548e-11
6.51286e-11
6.36697e-11
6.21906e-11
6.07104e-11
5.92419e-11
5.77817e-11
6.90297e-11
6.77541e-11
6.64339e-11
6.50636e-11
6.36608e-11
6.22361e-11
6.07824e-11
5.93045e-11
5.78306e-11
5.63882e-11
6.74966e-11
6.6233e-11
6.49318e-11
6.35778e-11
6.21831e-11
6.07684e-11
5.93387e-11
5.78737e-11
5.63871e-11
5.49537e-11
6.59821e-11
6.47277e-11
6.34371e-11
6.20957e-11
6.07097e-11
5.92918e-11
5.78591e-11
5.6396e-11
5.49007e-11
5.34697e-11
6.44873e-11
6.32367e-11
6.19528e-11
6.06205e-11
5.92442e-11
5.78283e-11
5.63801e-11
5.48955e-11
5.33764e-11
5.19143e-11
6.30015e-11
6.17351e-11
6.04567e-11
5.91397e-11
5.77838e-11
5.63901e-11
5.4955e-11
5.34679e-11
5.19106e-11
5.03622e-11
7.64359e-11
7.49766e-11
7.34159e-11
7.18477e-11
7.0294e-11
6.87541e-11
6.72296e-11
6.57229e-11
6.42358e-11
6.27589e-11
7.49666e-11
7.35747e-11
7.20797e-11
7.05419e-11
6.9004e-11
6.74774e-11
6.59644e-11
6.44665e-11
6.29833e-11
6.14934e-11
7.34079e-11
7.20712e-11
7.06543e-11
6.91754e-11
6.76676e-11
6.61602e-11
6.46637e-11
6.31763e-11
6.17002e-11
6.02167e-11
7.18469e-11
7.05356e-11
6.91671e-11
6.77472e-11
6.62838e-11
6.47985e-11
6.33151e-11
6.1839e-11
6.03723e-11
5.89042e-11
7.02953e-11
6.90034e-11
6.76614e-11
6.62757e-11
6.48551e-11
6.34036e-11
6.19334e-11
6.04626e-11
5.90036e-11
5.75561e-11
6.87557e-11
6.74788e-11
6.61595e-11
6.4793e-11
6.33954e-11
6.19771e-11
6.05319e-11
5.9065e-11
5.76028e-11
5.61735e-11
6.72316e-11
6.59663e-11
6.46652e-11
6.33149e-11
6.19265e-11
6.05191e-11
5.90978e-11
5.76448e-11
5.61732e-11
5.47543e-11
6.57252e-11
6.44686e-11
6.31783e-11
6.18408e-11
6.04618e-11
5.90534e-11
5.76315e-11
5.61828e-11
5.4706e-11
5.32915e-11
6.42382e-11
6.29856e-11
6.17023e-11
6.03743e-11
5.90056e-11
5.76007e-11
5.61667e-11
5.47011e-11
5.32059e-11
5.17668e-11
6.27612e-11
6.14955e-11
6.02187e-11
5.8906e-11
5.75578e-11
5.6175e-11
5.47552e-11
5.32897e-11
5.17633e-11
5.02488e-11
7.59888e-11
7.45462e-11
7.30093e-11
7.14631e-11
6.99279e-11
6.8404e-11
6.68936e-11
6.53994e-11
6.39239e-11
6.24595e-11
7.45371e-11
7.31548e-11
7.16772e-11
7.01586e-11
6.8638e-11
6.71263e-11
6.56265e-11
6.41405e-11
6.26691e-11
6.11949e-11
7.30019e-11
7.16694e-11
7.02622e-11
6.87971e-11
6.73043e-11
6.58108e-11
6.43266e-11
6.28511e-11
6.1387e-11
5.992e-11
7.14621e-11
7.01528e-11
6.87896e-11
6.73783e-11
6.59266e-11
6.44542e-11
6.29831e-11
6.15191e-11
6.00647e-11
5.86132e-11
6.99288e-11
6.86373e-11
6.72987e-11
6.59193e-11
6.45072e-11
6.30668e-11
6.16094e-11
6.01518e-11
5.87059e-11
5.72747e-11
6.84052e-11
6.71274e-11
6.58101e-11
6.44492e-11
6.30595e-11
6.16504e-11
6.02172e-11
5.87653e-11
5.73186e-11
5.5906e-11
6.68951e-11
6.56279e-11
6.43278e-11
6.29828e-11
6.16031e-11
6.0206e-11
5.87962e-11
5.7359e-11
5.59068e-11
5.45059e-11
6.54011e-11
6.41421e-11
6.28525e-11
6.15205e-11
6.0151e-11
5.87552e-11
5.73473e-11
5.59171e-11
5.44637e-11
5.30695e-11
6.39257e-11
6.26708e-11
6.13886e-11
6.00662e-11
5.87075e-11
5.73167e-11
5.59009e-11
5.44592e-11
5.29938e-11
5.15829e-11
6.24612e-11
6.11964e-11
5.99215e-11
5.86146e-11
5.7276e-11
5.5907e-11
5.45064e-11
5.30677e-11
5.15799e-11
5.01073e-11
7.54788e-11
7.40556e-11
7.25469e-11
7.10272e-11
6.9515e-11
6.80112e-11
6.65186e-11
6.50403e-11
6.35795e-11
6.21302e-11
7.40477e-11
7.26769e-11
7.12201e-11
6.97249e-11
6.82256e-11
6.67329e-11
6.52498e-11
6.3779e-11
6.23223e-11
6.08666e-11
7.25404e-11
7.12132e-11
6.98181e-11
6.83701e-11
6.6896e-11
6.542e-11
6.39514e-11
6.24908e-11
6.10416e-11
5.95939e-11
7.10261e-11
6.97196e-11
6.83635e-11
6.69632e-11
6.55261e-11
6.407e-11
6.26144e-11
6.11653e-11
5.97259e-11
5.82936e-11
6.95155e-11
6.82249e-11
6.6891e-11
6.55198e-11
6.41187e-11
6.2692e-11
6.12502e-11
5.98087e-11
5.83784e-11
5.69658e-11
6.8012e-11
6.67336e-11
6.54192e-11
6.40655e-11
6.26857e-11
6.12881e-11
5.98694e-11
5.84351e-11
5.70064e-11
5.56124e-11
6.65196e-11
6.52507e-11
6.39522e-11
6.2614e-11
6.12449e-11
5.986e-11
5.84637e-11
5.70447e-11
5.56145e-11
5.42335e-11
6.50415e-11
6.37801e-11
6.24918e-11
6.11663e-11
5.98079e-11
5.84266e-11
5.70349e-11
5.56255e-11
5.4198e-11
5.28261e-11
6.35807e-11
6.23234e-11
6.10426e-11
5.97269e-11
5.83795e-11
5.70047e-11
5.56093e-11
5.41941e-11
5.27613e-11
5.13813e-11
6.21313e-11
6.08676e-11
5.95949e-11
5.82944e-11
5.69665e-11
5.5613e-11
5.42335e-11
5.28244e-11
5.13788e-11
4.99522e-11
7.49487e-11
7.35462e-11
7.20679e-11
7.05774e-11
6.90909e-11
6.76103e-11
6.61385e-11
6.4679e-11
6.32353e-11
6.18033e-11
7.35394e-11
7.21814e-11
7.07474e-11
6.9278e-11
6.7803e-11
6.6332e-11
6.48686e-11
6.34158e-11
6.19762e-11
6.05409e-11
7.20622e-11
7.07414e-11
6.936e-11
6.79314e-11
6.64785e-11
6.50227e-11
6.35725e-11
6.21294e-11
6.06972e-11
5.92706e-11
7.05763e-11
6.92734e-11
6.79257e-11
6.65384e-11
6.51181e-11
6.36806e-11
6.2243e-11
6.08111e-11
5.93887e-11
5.79768e-11
6.90912e-11
6.78021e-11
6.64742e-11
6.51128e-11
6.37245e-11
6.23136e-11
6.08896e-11
5.94661e-11
5.80531e-11
5.66601e-11
6.76108e-11
6.63324e-11
6.50219e-11
6.36768e-11
6.23084e-11
6.09239e-11
5.95215e-11
5.81063e-11
5.66971e-11
5.53223e-11
6.61391e-11
6.48691e-11
6.3573e-11
6.22424e-11
6.08851e-11
5.95138e-11
5.81324e-11
5.67328e-11
5.53255e-11
5.39646e-11
6.46797e-11
6.34164e-11
6.213e-11
6.08117e-11
5.94654e-11
5.80995e-11
5.67249e-11
5.5337e-11
5.3936e-11
5.25862e-11
6.32361e-11
6.19768e-11
6.06979e-11
5.93893e-11
5.80539e-11
5.66956e-11
5.53211e-11
5.39326e-11
5.25326e-11
5.11827e-11
6.18039e-11
6.05415e-11
5.92711e-11
5.79772e-11
5.66604e-11
5.53225e-11
5.39643e-11
5.25846e-11
5.11806e-11
4.97991e-11
7.4437e-11
7.30552e-11
7.16076e-11
7.01472e-11
6.86881e-11
6.72327e-11
6.57841e-11
6.43458e-11
6.29217e-11
6.15089e-11
7.30496e-11
7.17046e-11
7.0294e-11
6.88516e-11
6.74023e-11
6.59553e-11
6.45138e-11
6.30814e-11
6.16612e-11
6.02478e-11
7.16027e-11
7.02889e-11
6.89223e-11
6.75142e-11
6.60842e-11
6.46506e-11
6.3221e-11
6.17976e-11
6.03846e-11
5.89797e-11
7.01461e-11
6.88476e-11
6.75095e-11
6.61364e-11
6.47346e-11
6.33175e-11
6.18997e-11
6.0487e-11
5.90833e-11
5.76924e-11
6.86882e-11
6.74016e-11
6.60807e-11
6.47302e-11
6.33563e-11
6.19627e-11
6.05581e-11
5.91541e-11
5.77597e-11
5.63863e-11
6.72329e-11
6.59555e-11
6.46498e-11
6.33143e-11
6.19585e-11
6.05885e-11
5.92035e-11
5.78085e-11
5.64194e-11
5.50633e-11
6.57844e-11
6.45141e-11
6.32212e-11
6.18992e-11
6.05544e-11
5.91974e-11
5.78317e-11
5.6452e-11
5.50674e-11
5.37254e-11
6.43461e-11
6.30818e-11
6.17979e-11
6.04874e-11
5.91534e-11
5.78032e-11
5.64458e-11
5.50789e-11
5.37031e-11
5.23733e-11
6.2922e-11
6.16616e-11
6.03849e-11
5.90837e-11
5.77602e-11
5.64182e-11
5.50637e-11
5.37002e-11
5.23301e-11
5.10064e-11
6.15092e-11
6.0248e-11
5.898e-11
5.76926e-11
5.63864e-11
5.50633e-11
5.37249e-11
5.23719e-11
5.10048e-11
4.96619e-11
7.39734e-11
7.26112e-11
7.11929e-11
6.97622e-11
6.83309e-11
6.69019e-11
6.5478e-11
6.40629e-11
6.26604e-11
6.12687e-11
7.26065e-11
7.12745e-11
6.98868e-11
6.84711e-11
6.70482e-11
6.56262e-11
6.42085e-11
6.27985e-11
6.13996e-11
6.00087e-11
7.11888e-11
6.98824e-11
6.8531e-11
6.71439e-11
6.57374e-11
6.43271e-11
6.29198e-11
6.15179e-11
6.01257e-11
5.8743e-11
6.97612e-11
6.84678e-11
6.714e-11
6.57821e-11
6.43995e-11
6.30039e-11
6.16074e-11
6.02154e-11
5.88318e-11
5.74617e-11
6.83309e-11
6.70475e-11
6.57345e-11
6.4396e-11
6.30374e-11
6.16622e-11
6.02778e-11
5.88944e-11
5.75196e-11
5.61652e-11
6.69019e-11
6.56263e-11
6.43264e-11
6.30013e-11
6.16588e-11
6.03042e-11
5.89373e-11
5.75629e-11
5.61941e-11
5.48555e-11
6.54781e-11
6.42086e-11
6.29199e-11
6.16069e-11
6.02749e-11
5.89326e-11
5.7583e-11
5.62228e-11
5.48599e-11
5.35347e-11
6.40631e-11
6.27987e-11
6.15181e-11
6.02156e-11
5.88939e-11
5.75588e-11
5.6218e-11
5.48706e-11
5.35175e-11
5.22045e-11
6.26606e-11
6.13997e-11
6.01258e-11
5.8832e-11
5.752e-11
5.61931e-11
5.48569e-11
5.35152e-11
5.21701e-11
5.08663e-11
6.12688e-11
6.00088e-11
5.87431e-11
5.74617e-11
5.61651e-11
5.48553e-11
5.35341e-11
5.22033e-11
5.08651e-11
4.95506e-11
7.35756e-11
7.22313e-11
7.08398e-11
6.9437e-11
6.80328e-11
6.66301e-11
6.52316e-11
6.38408e-11
6.24611e-11
6.10914e-11
7.22274e-11
7.09075e-11
6.95412e-11
6.81509e-11
6.67538e-11
6.53571e-11
6.39638e-11
6.25774e-11
6.12009e-11
5.98327e-11
7.08364e-11
6.95375e-11
6.8201e-11
6.68343e-11
6.5451e-11
6.40643e-11
6.268e-11
6.13007e-11
5.99302e-11
5.85692e-11
6.94361e-11
6.81482e-11
6.68311e-11
6.54886e-11
6.41254e-11
6.27514e-11
6.13767e-11
6.00061e-11
5.86432e-11
5.72931e-11
6.80328e-11
6.67532e-11
6.54486e-11
6.41226e-11
6.27797e-11
6.14231e-11
6.00592e-11
5.86965e-11
5.73416e-11
5.6005e-11
6.66301e-11
6.53571e-11
6.40637e-11
6.27493e-11
6.14204e-11
6.00814e-11
5.87327e-11
5.73784e-11
5.60293e-11
5.47064e-11
6.52317e-11
6.39638e-11
6.268e-11
6.13762e-11
6.00569e-11
5.8729e-11
5.73953e-11
5.60536e-11
5.47105e-11
5.33995e-11
6.38409e-11
6.25774e-11
6.13008e-11
6.00063e-11
5.86961e-11
5.73752e-11
5.60498e-11
5.47198e-11
5.33861e-11
5.20859e-11
6.24612e-11
6.1201e-11
5.99302e-11
5.86433e-11
5.73418e-11
5.60285e-11
5.47081e-11
5.33842e-11
5.20586e-11
5.07676e-11
6.10915e-11
5.98327e-11
5.85692e-11
5.72931e-11
5.60049e-11
5.47062e-11
5.33989e-11
5.20849e-11
5.07667e-11
4.94689e-11
7.3249e-11
7.19203e-11
7.05525e-11
6.91749e-11
6.7796e-11
6.64183e-11
6.50444e-11
6.36775e-11
6.23204e-11
6.09724e-11
7.19172e-11
7.06083e-11
6.92612e-11
6.78941e-11
6.6521e-11
6.51484e-11
6.3779e-11
6.24158e-11
6.10615e-11
5.97147e-11
7.05497e-11
6.92582e-11
6.79354e-11
6.65878e-11
6.52263e-11
6.38622e-11
6.25004e-11
6.11433e-11
5.9794e-11
5.84533e-11
6.91742e-11
6.78918e-11
6.65852e-11
6.52575e-11
6.39128e-11
6.25595e-11
6.12059e-11
5.98562e-11
5.85135e-11
5.71816e-11
6.77959e-11
6.65206e-11
6.52244e-11
6.39105e-11
6.25828e-11
6.12441e-11
5.98998e-11
5.8557e-11
5.72211e-11
5.59003e-11
6.64183e-11
6.51484e-11
6.38617e-11
6.25577e-11
6.12419e-11
5.99181e-11
5.85866e-11
5.7251e-11
5.59201e-11
5.46106e-11
6.50445e-11
6.37791e-11
6.25004e-11
6.12055e-11
5.98979e-11
5.85836e-11
5.72647e-11
5.59397e-11
5.4614e-11
5.33142e-11
6.36775e-11
6.24159e-11
6.11433e-11
5.98563e-11
5.85566e-11
5.72483e-11
5.59366e-11
5.46214e-11
5.33034e-11
5.20123e-11
6.23205e-11
6.10616e-11
5.97941e-11
5.85136e-11
5.72212e-11
5.59195e-11
5.46121e-11
5.33019e-11
5.19902e-11
5.0706e-11
6.09724e-11
5.97147e-11
5.84533e-11
5.71816e-11
5.59003e-11
5.46105e-11
5.33138e-11
5.20116e-11
5.07053e-11
4.94143e-11
7.29888e-11
7.16733e-11
7.03255e-11
6.89698e-11
6.76132e-11
6.62581e-11
6.49067e-11
6.35615e-11
6.22251e-11
6.08966e-11
7.16707e-11
7.03716e-11
6.9041e-11
6.7694e-11
6.63424e-11
6.49915e-11
6.36439e-11
6.23019e-11
6.09678e-11
5.96399e-11
7.03232e-11
6.90385e-11
6.77281e-11
6.63972e-11
6.50553e-11
6.37116e-11
6.23703e-11
6.10334e-11
5.97034e-11
5.83802e-11
6.89693e-11
6.76921e-11
6.63951e-11
6.50809e-11
6.37529e-11
6.24181e-11
6.10837e-11
5.97529e-11
5.84282e-11
5.71121e-11
6.76132e-11
6.6342e-11
6.50537e-11
6.3751e-11
6.24371e-11
6.11145e-11
5.97878e-11
5.84626e-11
5.71435e-11
5.58361e-11
6.62581e-11
6.49916e-11
6.37112e-11
6.24167e-11
6.11127e-11
5.98024e-11
5.84862e-11
5.71669e-11
5.58518e-11
5.45532e-11
6.49067e-11
6.36439e-11
6.23703e-11
6.10834e-11
5.97862e-11
5.84837e-11
5.71778e-11
5.5867e-11
5.45556e-11
5.32645e-11
6.35616e-11
6.2302e-11
6.10334e-11
5.9753e-11
5.84623e-11
5.71647e-11
5.58644e-11
5.4561e-11
5.32552e-11
5.19703e-11
6.22252e-11
6.09679e-11
5.97035e-11
5.84284e-11
5.71437e-11
5.58513e-11
5.45541e-11
5.32539e-11
5.19519e-11
5.06704e-11
6.08967e-11
5.964e-11
5.83802e-11
5.71122e-11
5.58362e-11
5.45532e-11
5.32642e-11
5.19697e-11
5.06698e-11
4.938e-11
7.27837e-11
7.14789e-11
7.01476e-11
6.88102e-11
6.74725e-11
6.61365e-11
6.4804e-11
6.34773e-11
6.21581e-11
6.08456e-11
7.14768e-11
7.01858e-11
6.88689e-11
6.75388e-11
6.62053e-11
6.48729e-11
6.35437e-11
6.22196e-11
6.09023e-11
5.95897e-11
7.01457e-11
6.88668e-11
6.75669e-11
6.62503e-11
6.49249e-11
6.35984e-11
6.22744e-11
6.09545e-11
5.96404e-11
5.83313e-11
6.88097e-11
6.75372e-11
6.62485e-11
6.49458e-11
6.3632e-11
6.23129e-11
6.09944e-11
5.96794e-11
5.83696e-11
5.7066e-11
6.74725e-11
6.6205e-11
6.49236e-11
6.36304e-11
6.23283e-11
6.10192e-11
5.97069e-11
5.83963e-11
5.70908e-11
5.5794e-11
6.61365e-11
6.48729e-11
6.35981e-11
6.23117e-11
6.10176e-11
5.97187e-11
5.8415e-11
5.71088e-11
5.58062e-11
5.45161e-11
6.48041e-11
6.35438e-11
6.22745e-11
6.09942e-11
5.97056e-11
5.84128e-11
5.71174e-11
5.58178e-11
5.45176e-11
5.32328e-11
6.34774e-11
6.22197e-11
6.09546e-11
5.96796e-11
5.83961e-11
5.71069e-11
5.58156e-11
5.45213e-11
5.32245e-11
5.19439e-11
6.21582e-11
6.09024e-11
5.96405e-11
5.83698e-11
5.7091e-11
5.58058e-11
5.45163e-11
5.32235e-11
5.19282e-11
5.06479e-11
6.08457e-11
5.95898e-11
5.83314e-11
5.70661e-11
5.57941e-11
5.45162e-11
5.32327e-11
5.19434e-11
5.06473e-11
4.9357e-11
7.26199e-11
7.13238e-11
7.00059e-11
6.86831e-11
6.73607e-11
6.604e-11
6.47226e-11
6.34102e-11
6.21042e-11
6.08037e-11
7.1322e-11
7.00377e-11
6.87319e-11
6.74154e-11
6.60965e-11
6.47788e-11
6.34642e-11
6.2154e-11
6.08495e-11
5.95483e-11
7.00042e-11
6.87301e-11
6.74387e-11
6.61336e-11
6.48214e-11
6.35087e-11
6.21984e-11
6.08915e-11
5.95895e-11
5.82909e-11
6.86828e-11
6.74141e-11
6.61321e-11
6.48387e-11
6.35362e-11
6.22295e-11
6.09236e-11
5.96207e-11
5.8322e-11
5.70276e-11
6.73607e-11
6.60962e-11
6.48203e-11
6.35348e-11
6.2242e-11
6.09435e-11
5.96426e-11
5.8343e-11
5.70477e-11
5.57586e-11
6.60401e-11
6.47789e-11
6.35084e-11
6.22284e-11
6.09422e-11
5.9652e-11
5.8358e-11
5.70617e-11
5.57684e-11
5.44845e-11
6.47227e-11
6.34643e-11
6.21984e-11
6.09234e-11
5.96414e-11
5.8356e-11
5.70686e-11
5.57774e-11
5.44853e-11
5.32052e-11
6.34104e-11
6.21541e-11
6.08916e-11
5.96208e-11
5.83428e-11
5.706e-11
5.57754e-11
5.44879e-11
5.31978e-11
5.19204e-11
6.21043e-11
6.08496e-11
5.95897e-11
5.83222e-11
5.70479e-11
5.5768e-11
5.44842e-11
5.3197e-11
5.19067e-11
5.06279e-11
6.08038e-11
5.95484e-11
5.8291e-11
5.70277e-11
5.57588e-11
5.44845e-11
5.32052e-11
5.192e-11
5.06274e-11
4.93382e-11
7.24853e-11
7.11962e-11
6.98888e-11
6.85778e-11
6.72672e-11
6.59583e-11
6.46524e-11
6.33505e-11
6.20539e-11
6.07616e-11
7.11946e-11
6.99155e-11
6.86186e-11
6.73128e-11
6.60052e-11
6.46989e-11
6.33952e-11
6.20952e-11
6.07998e-11
5.95067e-11
6.98874e-11
6.86171e-11
6.73324e-11
6.60363e-11
6.47343e-11
6.3432e-11
6.21319e-11
6.08346e-11
5.95412e-11
5.825e-11
6.85775e-11
6.73117e-11
6.6035e-11
6.47487e-11
6.34549e-11
6.21576e-11
6.0861e-11
5.95668e-11
5.8276e-11
5.69883e-11
6.72673e-11
6.6005e-11
6.47334e-11
6.34537e-11
6.21679e-11
6.08775e-11
5.95848e-11
5.82932e-11
5.7005e-11
5.57216e-11
6.59584e-11
6.4699e-11
6.34318e-11
6.21567e-11
6.08763e-11
5.95926e-11
5.83056e-11
5.70165e-11
5.57296e-11
5.44503e-11
6.46525e-11
6.33953e-11
6.2132e-11
6.08608e-11
5.95838e-11
5.83038e-11
5.70222e-11
5.5737e-11
5.44508e-11
5.31744e-11
6.33507e-11
6.20954e-11
6.08347e-11
5.95669e-11
5.8293e-11
5.7015e-11
5.57353e-11
5.44529e-11
5.31679e-11
5.18934e-11
6.2054e-11
6.07999e-11
5.95413e-11
5.82762e-11
5.70052e-11
5.57293e-11
5.44499e-11
5.31671e-11
5.18814e-11
5.06052e-11
6.07617e-11
5.95068e-11
5.82501e-11
5.69884e-11
5.57217e-11
5.44504e-11
5.31744e-11
5.18931e-11
5.06047e-11
4.9319e-11
7.23707e-11
7.10872e-11
6.97885e-11
6.84867e-11
6.71854e-11
6.58855e-11
6.4588e-11
6.32938e-11
6.20037e-11
6.0717e-11
7.10859e-11
6.9811e-11
6.85211e-11
6.72239e-11
6.5925e-11
6.46273e-11
6.33316e-11
6.2039e-11
6.07499e-11
5.94625e-11
6.97873e-11
6.85198e-11
6.72403e-11
6.59512e-11
6.46572e-11
6.33628e-11
6.20701e-11
6.07796e-11
5.94922e-11
5.82064e-11
6.84864e-11
6.72229e-11
6.59501e-11
6.46693e-11
6.33821e-11
6.20918e-11
6.0802e-11
5.95141e-11
5.82288e-11
5.69459e-11
6.71855e-11
6.59249e-11
6.46563e-11
6.3381e-11
6.21006e-11
6.0816e-11
5.95294e-11
5.82435e-11
5.69604e-11
5.56811e-11
6.58856e-11
6.46274e-11
6.33626e-11
6.2091e-11
6.0815e-11
5.95361e-11
5.82541e-11
5.69703e-11
5.56881e-11
5.44123e-11
6.45881e-11
6.33317e-11
6.20702e-11
6.08019e-11
5.95285e-11
5.82527e-11
5.69752e-11
5.56946e-11
5.44128e-11
5.31395e-11
6.32939e-11
6.20391e-11
6.07797e-11
5.95142e-11
5.82434e-11
5.6969e-11
5.5693e-11
5.44147e-11
5.31339e-11
5.18624e-11
6.20039e-11
6.07501e-11
5.94923e-11
5.8229e-11
5.69606e-11
5.56878e-11
5.4412e-11
5.31333e-11
5.1852e-11
5.05793e-11
6.07172e-11
5.94626e-11
5.82066e-11
5.69461e-11
5.56812e-11
5.44124e-11
5.31395e-11
5.18621e-11
5.05789e-11
4.92985e-11
7.22707e-11
7.0992e-11
6.97003e-11
6.8406e-11
6.71121e-11
6.58192e-11
6.45282e-11
6.32398e-11
6.19547e-11
6.06723e-11
7.09909e-11
6.97195e-11
6.84353e-11
6.71448e-11
6.58529e-11
6.45619e-11
6.32724e-11
6.19853e-11
6.0701e-11
5.9418e-11
6.96993e-11
6.84342e-11
6.71588e-11
6.58752e-11
6.45873e-11
6.32991e-11
6.20121e-11
6.07268e-11
5.94439e-11
5.81625e-11
6.84058e-11
6.71439e-11
6.58743e-11
6.45977e-11
6.33156e-11
6.20308e-11
6.07462e-11
5.94631e-11
5.8182e-11
5.69031e-11
6.71121e-11
6.58528e-11
6.45866e-11
6.33147e-11
6.20383e-11
6.07583e-11
5.94764e-11
5.8195e-11
5.69157e-11
5.564e-11
6.58193e-11
6.45619e-11
6.32989e-11
6.20301e-11
6.07574e-11
5.94822e-11
5.82043e-11
5.69245e-11
5.56461e-11
5.43734e-11
6.45283e-11
6.32725e-11
6.20122e-11
6.07461e-11
5.94757e-11
5.8203e-11
5.69288e-11
5.56519e-11
5.4374e-11
5.31036e-11
6.32399e-11
6.19854e-11
6.07269e-11
5.94632e-11
5.81949e-11
5.69234e-11
5.56507e-11
5.43758e-11
5.30989e-11
5.18303e-11
6.19549e-11
6.07011e-11
5.94441e-11
5.81822e-11
5.69159e-11
5.56459e-11
5.43733e-11
5.30984e-11
5.18215e-11
5.05526e-11
6.06724e-11
5.94181e-11
5.81626e-11
5.69032e-11
5.56401e-11
5.43735e-11
5.31036e-11
5.18301e-11
5.05522e-11
4.92777e-11
7.21828e-11
7.09081e-11
6.96224e-11
6.83344e-11
6.70466e-11
6.57595e-11
6.44739e-11
6.31903e-11
6.19095e-11
6.06307e-11
7.09071e-11
6.96386e-11
6.83592e-11
6.70744e-11
6.57883e-11
6.45028e-11
6.32184e-11
6.19359e-11
6.06557e-11
5.93768e-11
6.96215e-11
6.83583e-11
6.70863e-11
6.58073e-11
6.45246e-11
6.32414e-11
6.19592e-11
6.06782e-11
5.93993e-11
5.81217e-11
6.83342e-11
6.70737e-11
6.58065e-11
6.45334e-11
6.32556e-11
6.19753e-11
6.06951e-11
5.94161e-11
5.81387e-11
5.68633e-11
6.70466e-11
6.57882e-11
6.4524e-11
6.32548e-11
6.19818e-11
6.07056e-11
5.94277e-11
5.81502e-11