/*--------------------------------*- C++ -*----------------------------------*\
| =========                 |                                                 |
| \\      /  F ield         | foam-extend: Open Source CFD                    |
|  \\    /   O peration     | Version:     3.1                                |
|   \\  /    A nd           | Web:         http://www.extend-project.de       |
|    \\/     M anipulation  |                                                 |
\*---------------------------------------------------------------------------*/
FoamFile
{
    version     2.0;
    format      ascii;
    class       volVectorField;
    location    "0.2";
    object      D;
}
// * * * * * * * * * * * * * * * * * * * * * * * * * * * * * * * * * * * * * //

dimensions      [0 1 0 0 0 0 0];

internalField   nonuniform List<vector> 
256
(
(0.000114546 3.82473e-06 0.000114966)
(6.18789e-05 -2.43639e-05 6.98873e-05)
(3.73637e-05 -3.62984e-05 3.51943e-05)
(2.95585e-05 -5.77792e-05 -3.59235e-06)
(0.000304155 6.74952e-05 0.000153176)
(0.000246872 -2.35001e-05 0.00013389)
(0.000214244 -8.50991e-05 9.92711e-05)
(0.000205336 -0.000164732 7.09485e-05)
(0.000492627 8.02935e-05 0.000182629)
(0.000438013 -3.56011e-05 0.000163586)
(0.000402579 -0.000131715 0.000140649)
(0.000387423 -0.000243918 0.000120893)
(0.000675265 7.6965e-05 0.000198525)
(0.000627772 -5.46196e-05 0.000185106)
(0.000592754 -0.000172798 0.000170125)
(0.000571259 -0.000303145 0.000157606)
(0.000848202 5.75878e-05 0.000210139)
(0.000805836 -8.02661e-05 0.000200575)
(0.000771435 -0.000209889 0.000190925)
(0.000745358 -0.000347611 0.000182699)
(0.00100863 2.94667e-05 0.000220222)
(0.000969824 -0.000109563 0.000212901)
(0.000935731 -0.000243906 0.000205908)
(0.000906414 -0.000382909 0.000199516)
(0.0011571 -3.17218e-06 0.000230317)
(0.00112045 -0.000140756 0.000223644)
(0.00108646 -0.000275829 0.000217505)
(0.00105506 -0.00041323 0.000211342)
(0.00129674 -3.71725e-05 0.00024083)
(0.00126095 -0.000172724 0.000234045)
(0.0012269 -0.000306637 0.000228202)
(0.00119459 -0.000441852 0.000221561)
(0.000112293 -4.55194e-06 6.51633e-05)
(6.58849e-05 -3.25481e-05 4.25301e-05)
(4.57369e-05 -4.3969e-05 2.30289e-05)
(4.39566e-05 -6.50419e-05 3.11526e-06)
(0.000323903 4.58044e-05 0.00011094)
(0.000258331 -4.48168e-05 9.65019e-05)
(0.000222909 -0.000105301 7.49136e-05)
(0.000214823 -0.000184506 5.7146e-05)
(0.000508992 6.23774e-05 0.000143751)
(0.000452451 -5.49271e-05 0.000129613)
(0.000415086 -0.000151975 0.000113069)
(0.000397877 -0.000265059 9.85656e-05)
(0.000689767 6.06154e-05 0.000164255)
(0.000640496 -7.20469e-05 0.000152589)
(0.000603844 -0.00019117 0.000140567)
(0.000580444 -0.000322478 0.000130078)
(0.000860153 4.32738e-05 0.000178404)
(0.000816772 -9.54616e-05 0.000169113)
(0.000781112 -0.000225975 0.000160315)
(0.000753441 -0.000364614 0.000152331)
(0.00101878 1.64553e-05 0.000189659)
(0.000979298 -0.000123192 0.000181824)
(0.000944377 -0.000258226 0.000174746)
(0.000914019 -0.000398017 0.000167882)
(0.00116619 -1.53814e-05 0.00019984)
(0.00112914 -0.000153476 0.000192583)
(0.00109474 -0.000289166 0.000186137)
(0.00106292 -0.00042729 0.000179445)
(0.00130555 -4.89957e-05 0.000209936)
(0.00126955 -0.000185037 0.000202884)
(0.00123539 -0.000319652 0.000196759)
(0.00120308 -0.000455595 0.000189931)
(0.000113581 -4.63771e-06 4.02261e-05)
(6.73413e-05 -3.34654e-05 2.82198e-05)
(4.85127e-05 -4.53564e-05 1.71942e-05)
(4.96881e-05 -6.71925e-05 6.48323e-06)
(0.000334347 3.67685e-05 8.00212e-05)
(0.000265193 -5.38536e-05 6.99847e-05)
(0.000228773 -0.000113353 5.67093e-05)
(0.000222502 -0.000192254 4.57084e-05)
(0.000522525 5.01403e-05 0.000110533)
(0.00046271 -6.71787e-05 0.000100137)
(0.000423494 -0.000163685 8.86317e-05)
(0.000405935 -0.000276289 7.83297e-05)
(0.000703169 4.72214e-05 0.000131879)
(0.000651677 -8.525e-05 0.000122251)
(0.000613339 -0.000204084 0.000112878)
(0.000588875 -0.000335155 0.000104371)
(0.000872611 3.01543e-05 0.000147145)
(0.000827751 -0.000108525 0.00013861)
(0.000790753 -0.000239055 0.000130882)
(0.000761941 -0.000377774 0.000123555)
(0.00103011 3.97229e-06 0.00015896)
(0.00098973 -0.000135808 0.000151195)
(0.000953889 -0.000271133 0.000144392)
(0.000922618 -0.000411316 0.000137568)
(0.00117667 -2.71936e-05 0.000169082)
(0.00113915 -0.00016568 0.000161685)
(0.00110423 -0.000301915 0.000155257)
(0.00107187 -0.000440699 0.000148457)
(0.00131572 -6.02303e-05 0.000178629)
(0.00127957 -0.000196917 0.000171507)
(0.00124521 -0.000332298 0.000165377)
(0.00121269 -0.000469123 0.000158558)
(0.000115096 -4.22915e-06 2.61007e-05)
(6.82916e-05 -3.36972e-05 1.94214e-05)
(4.98219e-05 -4.58629e-05 1.30759e-05)
(5.23427e-05 -6.82477e-05 7.05233e-06)
(0.000340816 3.28976e-05 5.77213e-05)
(0.000269837 -5.82153e-05 5.09306e-05)
(0.000233031 -0.000117249 4.26266e-05)
(0.000227977 -0.000196124 3.5683e-05)
(0.00053211 4.27098e-05 8.33663e-05)
(0.000470293 -7.47177e-05 7.58549e-05)
(0.00043 -0.00017076 6.78899e-05)
(0.000412484 -0.00028305 6.06264e-05)
(0.000713939 3.76537e-05 0.000102711)
(0.000660833 -9.46443e-05 9.51687e-05)
(0.000621321 -0.000213149 8.80039e-05)
(0.000596274 -0.000344049 8.12851e-05)
(0.000883546 1.97156e-05 0.000117238)
(0.000837519 -0.000118804 0.000109976)
(0.000799504 -0.000249234 0.000103492)
(0.00076991 -0.000388007 9.71561e-05)
(0.00104072 -6.61232e-06 0.000128563)
(0.000999604 -0.000146396 0.000121555)
(0.000963008 -0.000281896 0.00011545)
(0.000931022 -0.000422398 0.000109206)
(0.00118693 -3.75459e-05 0.000138047)
(0.00114901 -0.000176288 0.000131172)
(0.00111362 -0.000312977 0.000125221)
(0.00108075 -0.000452336 0.000118873)
(0.00132594 -7.01791e-05 0.000146632)
(0.00128965 -0.000207382 0.000139971)
(0.00125505 -0.000343467 0.00013425)
(0.00122221 -0.0004811 0.000127898)
(0.000116307 -3.91082e-06 1.7238e-05)
(6.90211e-05 -3.37979e-05 1.3376e-05)
(5.06685e-05 -4.61298e-05 9.66463e-06)
(5.3888e-05 -6.88707e-05 6.15024e-06)
(0.000345243 3.11038e-05 4.08797e-05)
(0.000273196 -6.05538e-05 3.63592e-05)
(0.000236201 -0.000119457 3.11138e-05)
(0.000231878 -0.000198544 2.6669e-05)
(0.000538934 3.83952e-05 6.08633e-05)
(0.000475962 -7.93749e-05 5.55532e-05)
(0.000435087 -0.000175253 5.0099e-05)
(0.000417675 -0.000287556 4.50362e-05)
(0.00072218 3.13236e-05 7.66947e-05)
(0.000668046 -0.000101089 7.10458e-05)
(0.000627812 -0.000219474 6.57463e-05)
(0.000602436 -0.000350415 6.06497e-05)
(0.000892426 1.21464e-05 8.90577e-05)
(0.0008456 -0.000126406 8.32997e-05)
(0.000806901 -0.000256841 7.81693e-05)
(0.000776784 -0.000395771 7.30491e-05)
(0.00104978 -1.47537e-05 9.88628e-05)
(0.00100811 -0.00015463 9.30641e-05)
(0.000970958 -0.000290317 8.80006e-05)
(0.00093844 -0.000431138 8.27611e-05)
(0.00119601 -4.57895e-05 0.000107018)
(0.00115776 -0.000184787 0.000101191)
(0.00112198 -0.000321869 9.61374e-05)
(0.00108867 -0.000461727 9.07277e-05)
(0.00133516 -7.82392e-05 0.00011418)
(0.00129873 -0.000215899 0.000108479)
(0.00126388 -0.000352581 0.000103581)
(0.0012307 -0.000490892 9.81563e-05)
(0.000117183 -3.6901e-06 1.10405e-05)
(6.95751e-05 -3.38534e-05 8.80156e-06)
(5.1271e-05 -4.62896e-05 6.65336e-06)
(5.48885e-05 -6.92666e-05 4.59984e-06)
(0.000348298 3.0261e-05 2.73464e-05)
(0.000275609 -6.18705e-05 2.44644e-05)
(0.000238512 -0.000120804 2.12332e-05)
(0.000234623 -0.000200172 1.84545e-05)
(0.000543713 3.59347e-05 4.15322e-05)
(0.000480075 -8.22318e-05 3.79836e-05)
(0.000438887 -0.000178141 3.4417e-05)
(0.000421558 -0.000290624 3.10535e-05)
(0.000728168 2.73422e-05 5.31325e-05)
(0.000673422 -0.000105329 4.92032e-05)
(0.000632763 -0.00022376 4.55417e-05)
(0.000607193 -0.000354871 4.19562e-05)
(0.000899121 7.04726e-06 6.24429e-05)
(0.000851792 -0.000131675 5.8285e-05)
(0.000812658 -0.000262215 5.45755e-05)
(0.000782199 -0.000401361 5.08218e-05)
(0.00105683 -2.04997e-05 6.99447e-05)
(0.00101479 -0.000160551 6.56363e-05)
(0.000977257 -0.000296443 6.18599e-05)
(0.00094436 -0.000437564 5.79248e-05)
(0.00120326 -5.17784e-05 7.61798e-05)
(0.00116476 -0.000191037 7.17745e-05)
(0.00112869 -0.000328457 6.79443e-05)
(0.00109502 -0.000468724 6.38388e-05)
(0.00134266 -8.41956e-05 8.15382e-05)
(0.00130607 -0.000222252 7.71937e-05)
(0.00127099 -0.000359413 7.34588e-05)
(0.00123751 -0.000498252 6.93315e-05)
(0.000117751 -3.55155e-06 6.20071e-06)
(6.99514e-05 -3.38849e-05 5.02056e-06)
(5.16708e-05 -4.63841e-05 3.89521e-06)
(5.55134e-05 -6.95086e-05 2.80622e-06)
(0.000350248 2.98797e-05 1.57432e-05)
(0.000277191 -6.25936e-05 1.41346e-05)
(0.000240041 -0.0001216 1.23682e-05)
(0.000236398 -0.000201207 1.08307e-05)
(0.000546786 3.46056e-05 2.41968e-05)
(0.000482779 -8.38838e-05 2.2153e-05)
(0.000441426 -0.000179887 2.0126e-05)
(0.000424149 -0.000292567 1.81921e-05)
(0.00073209 2.50329e-05 3.12435e-05)
(0.000677002 -0.00010789 2.89228e-05)
(0.000636107 -0.000226423 2.67682e-05)
(0.000610427 -0.000357718 2.46341e-05)
(0.000903599 3.94612e-06 3.69967e-05)
(0.000855981 -0.000134968 3.44852e-05)
(0.000816591 -0.000265635 3.22412e-05)
(0.000785923 -0.000404979 2.99517e-05)
(0.00106164 -2.411e-05 4.16838e-05)
(0.00101937 -0.00016434 3.90362e-05)
(0.000981602 -0.000300411 3.67089e-05)
(0.000948461 -0.000441768 3.42744e-05)
(0.00120829 -5.56214e-05 4.55827e-05)
(0.00116963 -0.000195101 4.28461e-05)
(0.00113335 -0.000332774 4.04621e-05)
(0.00109944 -0.000473335 3.79061e-05)
(0.00134792 -8.807e-05 4.88871e-05)
(0.0013112 -0.000226426 4.61736e-05)
(0.00127595 -0.000363928 4.38401e-05)
(0.00124224 -0.000503131 4.1266e-05)
(0.000118031 -3.48435e-06 2.00375e-06)
(7.01413e-05 -3.38995e-05 1.63371e-06)
(5.1871e-05 -4.64286e-05 1.28247e-06)
(5.58164e-05 -6.96248e-05 9.39878e-07)
(0.000351201 2.97346e-05 5.14412e-06)
(0.000277977 -6.29166e-05 4.62622e-06)
(0.000240804 -0.000121975 4.06301e-06)
(0.000237273 -0.000201713 3.56948e-06)
(0.000548295 3.40242e-05 7.95055e-06)
(0.000484123 -8.46426e-05 7.28226e-06)
(0.000442698 -0.000180714 6.62357e-06)
(0.000425445 -0.000293514 5.9913e-06)
(0.000734034 2.39763e-05 1.03112e-05)
(0.000678793 -0.000109094 9.54315e-06)
(0.000637793 -0.000227701 8.83123e-06)
(0.000612061 -0.000359108 8.12219e-06)
(0.000905843 2.48707e-06 1.22544e-05)
(0.000858093 -0.000136545 1.14144e-05)
(0.000818584 -0.000267295 1.06632e-05)
(0.000787816 -0.000406754 9.89397e-06)
(0.00106407 -2.58414e-05 1.38463e-05)
(0.0010217 -0.000166181 1.29536e-05)
(0.000983816 -0.000302356 1.21678e-05)
(0.000950554 -0.000443842 1.13444e-05)
(0.00121086 -5.74881e-05 1.51714e-05)
(0.00117211 -0.000197094 1.4244e-05)
(0.00113573 -0.000334904 1.34352e-05)
(0.0011017 -0.00047562 1.25681e-05)
(0.00135063 -8.99689e-05 1.62867e-05)
(0.00131384 -0.000228487 1.53647e-05)
(0.00127849 -0.000366168 1.45717e-05)
(0.00124466 -0.000505558 1.36977e-05)
)
;

boundaryField
{
    interface
    {
        type            tractionDisplacement;
        gradient        nonuniform List<vector> 
192
(
(0.00704662 0.0104909 0.000155682)
(0.00209023 0.00653754 0.000499121)
(0.0026027 0.00735652 0.000542743)
(0.00197857 0.00690109 0.00041399)
(0.00172773 0.00656446 0.000334201)
(0.00153736 0.00612069 0.000277454)
(0.00146374 0.00575324 0.000261253)
(0.0014717 0.00553485 0.000268506)
(0.00664676 0.0109121 0.00012529)
(0.00271665 0.00685121 0.000464884)
(0.0026201 0.00722554 0.000596373)
(0.00208711 0.00683722 0.000524863)
(0.00177959 0.00648923 0.000462704)
(0.00158131 0.00608203 0.000402767)
(0.0014964 0.00574235 0.000366417)
(0.0014931 0.00554772 0.000356617)
(0.00678191 0.0112134 9.35902e-05)
(0.00282938 0.00712686 0.000305361)
(0.00270071 0.00721582 0.000431036)
(0.0021442 0.00681061 0.00046042)
(0.00180593 0.00644063 0.000442701)
(0.00159311 0.00604546 0.000413111)
(0.00149852 0.00572286 0.000389074)
(0.00148146 0.00555641 0.000382675)
(0.00691688 0.011428 6.69811e-05)
(0.00290673 0.00728499 0.000211432)
(0.00277046 0.00728956 0.000310324)
(0.00219933 0.00682424 0.000363136)
(0.00183856 0.00642854 0.000377713)
(0.00160951 0.00602846 0.000373738)
(0.00150347 0.00571306 0.000366532)
(0.00147403 0.00556679 0.000368328)
(0.00701167 0.0115786 4.66018e-05)
(0.00295692 0.00739019 0.000146494)
(0.00281575 0.00736272 0.00022017)
(0.00223515 0.00685862 0.000270597)
(0.00186293 0.00643863 0.000296446)
(0.00162271 0.00602838 0.000306538)
(0.00150818 0.00571407 0.000310842)
(0.00146955 0.00557967 0.000318569)
(0.00707479 0.0116812 3.1045e-05)
(0.00298852 0.00746192 9.7678e-05)
(0.00284416 0.00742015 0.000148898)
(0.002257 0.00689386 0.000187883)
(0.0018784 0.00645672 0.000212234)
(0.00163186 0.00603708 0.000225888)
(0.00151227 0.00572136 0.000234571)
(0.00146852 0.005593 0.000244129)
(0.0071135 0.0117456 1.79044e-05)
(0.00300677 0.00750749 5.64181e-05)
(0.00286042 0.00745892 8.6712e-05)
(0.00226914 0.00692052 0.00011097)
(0.00188705 0.00647306 0.000127503)
(0.00163728 0.00604699 0.000138028)
(0.00151513 0.0057296 0.000145453)
(0.00146899 0.005604 0.000152899)
(0.00713192 0.0117768 5.8609e-06)
(0.00301504 0.00752977 1.84885e-05)
(0.00286775 0.00747838 2.85248e-05)
(0.0022745 0.00693461 3.67371e-05)
(0.00189085 0.00648236 4.25352e-05)
(0.00163974 0.00605313 4.64077e-05)
(0.00151659 0.00573474 4.92461e-05)
(0.00146961 0.00561019 5.20195e-05)
(-0.000342695 0.00645559 0.00524115)
(-0.000676662 0.000734561 0.000829203)
(-0.000478669 0.00101376 0.00160693)
(-0.000398124 0.000499432 0.00127116)
(-0.000283341 0.000438777 0.00124886)
(-0.00023307 0.000408525 0.00121512)
(-0.000230998 0.000424378 0.00122738)
(-0.000254065 0.000426914 0.00125209)
(-0.000717505 0.00510837 0.00307092)
(-0.00122017 0.00130802 0.00105338)
(-0.000765346 0.00116711 0.00126679)
(-0.000535682 0.000750851 0.00119153)
(-0.000341044 0.00058703 0.00121018)
(-0.000250967 0.000487724 0.00122276)
(-0.000230743 0.000450481 0.00124312)
(-0.000238328 0.000451259 0.00124854)
(-0.000738447 0.00336612 0.00194602)
(-0.00130817 0.00198245 0.000859202)
(-0.00083516 0.00148857 0.00105688)
(-0.000522415 0.00105812 0.00111372)
(-0.000320728 0.000763524 0.0011761)
(-0.000234149 0.000573732 0.00121825)
(-0.000222266 0.000479475 0.00124842)
(-0.000235136 0.000482581 0.00125679)
(-0.000389725 0.00194099 0.000196894)
(-0.000747608 0.00246328 0.000624889)
(-0.000497939 0.00180288 0.000782972)
(-0.000332886 0.00131139 0.00101198)
(-0.00023358 0.000903711 0.00114618)
(-0.000211865 0.000632065 0.00122748)
(-0.000241694 0.000489945 0.00127043)
(-0.000282957 0.000502385 0.00125857)
(0.0021022 -0.00538951 -0.000230098)
(0.000416188 -0.00653069 -0.00048118)
(-0.00016622 -0.00709 -0.000389702)
(-0.000702029 -0.00695878 -0.000303133)
(-0.00102278 -0.00656934 -0.000253539)
(-0.00120377 -0.00610364 -0.000250246)
(-0.00128284 -0.00571167 -0.000282335)
(-0.00126109 -0.0054495 -0.00032122)
(0.00271396 -0.00595223 -0.000205043)
(0.000425865 -0.00642133 -0.000383143)
(-0.000228269 -0.00702869 -0.000319435)
(-0.000766268 -0.00690792 -0.000308713)
(-0.00107769 -0.00655008 -0.000300062)
(-0.00123939 -0.00611906 -0.000308508)
(-0.00129449 -0.00574782 -0.00033511)
(-0.00125638 -0.00548179 -0.00037127)
(0.00296961 -0.00634624 -0.000114668)
(0.000486888 -0.00636738 -0.000261227)
(-0.000213721 -0.00702743 -0.000279314)
(-0.000801885 -0.00690065 -0.00029198)
(-0.00112583 -0.0065524 -0.000305315)
(-0.00128359 -0.00613543 -0.000323913)
(-0.00132719 -0.00577711 -0.000350439)
(-0.00127527 -0.00551512 -0.000384489)
(0.00311389 -0.00657837 -7.07456e-05)
(0.000533773 -0.00640296 -0.000182488)
(-0.00019433 -0.00704772 -0.000226508)
(-0.000821415 -0.00691516 -0.000255902)
(-0.00116018 -0.00656829 -0.000280019)
(-0.00131987 -0.00615531 -0.000303637)
(-0.00135823 -0.00580357 -0.000329505)
(-0.00129944 -0.00554602 -0.000359401)
(0.00320287 -0.00672703 -4.69991e-05)
(0.000562577 -0.00645434 -0.00012945)
(-0.000182 -0.00708121 -0.000174716)
(-0.000832688 -0.00693913 -0.000208015)
(-0.00118441 -0.00658933 -0.000234162)
(-0.00134778 -0.006176 -0.000257257)
(-0.00138433 -0.00582655 -0.000279889)
(-0.00132267 -0.00557185 -0.000304202)
(0.00325963 -0.00682543 -3.11313e-05)
(0.000579704 -0.00649926 -8.83606e-05)
(-0.000175412 -0.00711464 -0.00012454)
(-0.000840467 -0.0069636 -0.000152834)
(-0.00120111 -0.00660946 -0.000175058)
(-0.00136795 -0.00619411 -0.000193854)
(-0.0014043 -0.00584479 -0.000211199)
(-0.00134177 -0.00559162 -0.000229003)
(0.0032941 -0.00688695 -1.80651e-05)
(0.000589319 -0.00653096 -5.19503e-05)
(-0.000172177 -0.00713999 -7.48e-05)
(-0.000845645 -0.00698267 -9.32811e-05)
(-0.00121176 -0.00662479 -0.000107889)
(-0.00138108 -0.00620731 -0.000120012)
(-0.00141777 -0.00585738 -0.000130849)
(-0.00135519 -0.00560495 -0.000141686)
(0.0033105 -0.00691683 -5.94381e-06)
(0.000593584 -0.00654721 -1.71817e-05)
(-0.000170913 -0.00715342 -2.4956e-05)
(-0.000848298 -0.00699294 -3.13419e-05)
(-0.00121701 -0.00663298 -3.641e-05)
(-0.0013876 -0.00621421 -4.05864e-05)
(-0.00142457 -0.00586378 -4.42708e-05)
(-0.00136205 -0.00561166 -4.79094e-05)
(0.00545923 -0.00134774 0.000418792)
(0.00547925 -0.00134002 0.000425338)
(0.00550046 -0.0013091 0.000389406)
(0.00552079 -0.001287 0.000332879)
(0.00553942 -0.0012737 0.000260588)
(0.0055558 -0.0012686 0.000183877)
(0.00556819 -0.00126783 0.000108436)
(0.00557487 -0.00126834 3.57396e-05)
(0.00536156 -0.00127305 0.000447774)
(0.00539239 -0.00126139 0.000454479)
(0.00542333 -0.00124124 0.000418935)
(0.00545271 -0.00122818 0.000359017)
(0.00547769 -0.00122308 0.000283338)
(0.00549779 -0.00122372 0.000201867)
(0.00551204 -0.0012265 0.000120094)
(0.00551948 -0.00122864 3.97843e-05)
(0.00535502 -0.0012342 0.000482085)
(0.00538767 -0.00122589 0.000489285)
(0.00542242 -0.00121019 0.000454755)
(0.00545585 -0.00120351 0.000390446)
(0.00548427 -0.00120447 0.000309284)
(0.00550641 -0.00120955 0.000221389)
(0.00552163 -0.00121511 0.000132315)
(0.00552938 -0.00121857 4.39568e-05)
(0.00540112 -0.00116865 0.000509995)
(0.00542776 -0.00115932 0.00052501)
(0.00546175 -0.00115157 0.000491876)
(0.0054943 -0.00115273 0.000423323)
(0.00552172 -0.0011602 0.000335939)
(0.00554278 -0.00116977 0.000240969)
(0.00555703 -0.00117807 0.000144313)
(0.00556425 -0.00118289 4.8003e-05)
)
;
        traction        nonuniform List<vector> 
192
(
(71.9554 -0.752022 -0.303864)
(71.7496 -0.473661 -0.407587)
(71.3106 -0.498504 -0.392646)
(70.7385 -0.443055 -0.34865)
(70.1243 -0.401699 -0.30036)
(69.5092 -0.359376 -0.25276)
(68.9285 -0.331643 -0.21031)
(68.4247 -0.331424 -0.176558)
(72.877 -0.775203 -0.189078)
(72.5888 -0.471728 -0.268017)
(72.0617 -0.460796 -0.276121)
(71.3877 -0.405002 -0.255849)
(70.6587 -0.360753 -0.230323)
(69.9249 -0.32066 -0.203074)
(69.2284 -0.296196 -0.178123)
(68.6161 -0.300561 -0.158909)
(73.4304 -0.797144 -0.123972)
(73.1029 -0.481764 -0.178455)
(72.5268 -0.443329 -0.191878)
(71.7947 -0.382212 -0.188584)
(71.0002 -0.334367 -0.1771)
(70.1976 -0.294561 -0.162632)
(69.4325 -0.271736 -0.148282)
(68.7536 -0.279108 -0.137417)
(73.8076 -0.814037 -0.0855004)
(73.4591 -0.488396 -0.124423)
(72.8512 -0.438546 -0.137117)
(72.0798 -0.369478 -0.139664)
(71.2415 -0.317843 -0.135847)
(70.3928 -0.276895 -0.12876)
(69.5813 -0.254555 -0.120816)
(68.8564 -0.263746 -0.114832)
(74.0679 -0.826264 -0.0588632)
(73.7066 -0.493414 -0.0863394)
(73.0777 -0.437626 -0.0967447)
(72.2798 -0.362986 -0.100839)
(71.4118 -0.30792 -0.100593)
(70.5317 -0.265415 -0.0976799)
(69.6885 -0.242899 -0.0936828)
(68.9318 -0.253013 -0.0906836)
(74.2438 -0.834733 -0.0386675)
(73.8745 -0.497169 -0.0570445)
(73.2319 -0.437985 -0.0646636)
(72.4163 -0.359795 -0.0684141)
(71.5285 -0.302208 -0.0694009)
(70.6275 -0.258314 -0.0685315)
(69.7629 -0.235395 -0.0667537)
(68.9845 -0.245906 -0.0654499)
(74.3532 -0.840074 -0.0219652)
(73.979 -0.499692 -0.03247)
(73.3283 -0.438615 -0.0371426)
(72.5019 -0.358319 -0.0396944)
(71.6018 -0.299129 -0.0406978)
(70.6878 -0.254262 -0.0406215)
(69.8099 -0.23098 -0.0399615)
(69.0181 -0.241632 -0.0395049)
(74.4048 -0.842524 -0.00710349)
(74.0275 -0.500919 -0.0104867)
(73.3735 -0.439091 -0.0120794)
(72.5424 -0.35779 -0.0129899)
(71.6367 -0.297816 -0.0133951)
(70.7167 -0.252451 -0.0134458)
(69.8326 -0.228961 -0.0132943)
(69.0343 -0.239625 -0.0131986)
(0.601055 -0.446567 67.6612)
(0.670888 -0.0803311 67.5049)
(0.578137 -0.0910081 67.3897)
(0.466306 -0.0506336 67.2548)
(0.350493 -0.0381743 67.1214)
(0.241717 -0.0283261 66.9937)
(0.141427 -0.0265963 66.8819)
(0.0461667 -0.039929 66.8131)
(0.57309 -0.324451 65.3634)
(0.656789 -0.071254 65.26)
(0.544647 -0.0504957 65.1716)
(0.42646 -0.0145454 65.0802)
(0.309852 0.00458009 64.9998)
(0.204394 0.0185231 64.9329)
(0.110162 0.0246081 64.882)
(0.0251691 0.0155227 64.8612)
(0.566113 -0.196277 63.2409)
(0.655834 -0.0855318 63.1722)
(0.541579 -0.0306778 63.0979)
(0.416167 0.012886 63.0364)
(0.297372 0.0440449 62.9951)
(0.19114 0.0662955 62.9734)
(0.0973961 0.0797384 62.9666)
(0.0142708 0.077924 62.9724)
(0.578022 -0.0908387 61.0063)
(0.653924 -0.0753227 60.9846)
(0.54752 -0.00354105 60.9518)
(0.422377 0.048017 60.9502)
(0.300613 0.0881361 60.9778)
(0.189598 0.117315 61.0273)
(0.0904479 0.137804 61.0865)
(0.00144028 0.144899 61.138)
(-57.0293 0.317224 0.282302)
(-57.1665 0.419592 0.319013)
(-57.5727 0.458626 0.259413)
(-58.109 0.462861 0.189585)
(-58.6923 0.457071 0.122049)
(-59.2755 0.452731 0.0621961)
(-59.8185 0.463629 0.0127605)
(-60.2568 0.501817 -0.0231668)
(-56.2233 0.334568 0.163193)
(-56.4461 0.395357 0.184736)
(-56.9344 0.428466 0.147961)
(-57.5699 0.427276 0.108652)
(-58.2632 0.42133 0.070123)
(-58.9577 0.420889 0.0357027)
(-59.6025 0.439422 0.00714618)
(-60.1178 0.489219 -0.01515)
(-55.7526 0.348779 0.0996675)
(-56.0097 0.382233 0.114265)
(-56.5399 0.414427 0.0938588)
(-57.2298 0.410753 0.0694875)
(-57.9844 0.404997 0.0456574)
(-58.7415 0.406959 0.0241412)
(-59.4445 0.429893 0.00590601)
(-60.0064 0.485457 -0.00952254)
(-55.4353 0.357026 0.0657711)
(-55.7101 0.378088 0.075565)
(-56.2672 0.407001 0.0632824)
(-56.9926 0.401986 0.0476348)
(-57.7874 0.396395 0.0319913)
(-58.586 0.39978 0.0176496)
(-59.3277 0.425406 0.00519335)
(-59.9218 0.484543 -0.00596391)
(-55.2205 0.362245 0.0437973)
(-55.5062 0.377108 0.0502482)
(-56.0808 0.403534 0.0425709)
(-56.8296 0.397463 0.0325082)
(-57.6509 0.391913 0.0222284)
(-58.4768 0.396141 0.0126441)
(-59.2444 0.423422 0.00414657)
(-59.8603 0.484902 -0.0037531)
(-55.0781 0.365727 0.0280529)
(-55.3708 0.377217 0.0321322)
(-55.9568 0.402117 0.0274169)
(-56.7207 0.395278 0.0211545)
(-57.5592 0.389684 0.0146591)
(-58.4029 0.3944 0.00851532)
(-59.1874 0.422694 0.00298505)
(-59.8178 0.485716 -0.00226434)
(-54.9909 0.367911 0.0156604)
(-55.2878 0.377576 0.017835)
(-55.8806 0.401648 0.0153033)
(-56.6536 0.39432 0.0118904)
(-57.5025 0.388661 0.00830302)
(-58.357 0.393643 0.00487577)
(-59.1518 0.422536 0.0017772)
(-59.7909 0.486489 -0.00115097)
(-54.9502 0.368836 0.00501646)
(-55.2499 0.377793 0.00565794)
(-55.8454 0.401603 0.00487692)
(-56.6224 0.394015 0.00380364)
(-57.476 0.388302 0.00266196)
(-58.3355 0.39341 0.00156554)
(-59.1349 0.422633 0.000579367)
(-59.7771 0.486948 -0.000329429)
(-0.374448 -67.0927 -0.139238)
(-0.360687 -67.1156 -0.126399)
(-0.352089 -67.1233 -0.109665)
(-0.346445 -67.1277 -0.0913378)
(-0.342965 -67.1312 -0.0715506)
(-0.34101 -67.1341 -0.0511366)
(-0.34004 -67.1363 -0.0306873)
(-0.33972 -67.1384 -0.0102552)
(-0.345781 -64.9307 -0.107592)
(-0.333594 -64.8955 -0.104801)
(-0.328949 -64.8636 -0.0929584)
(-0.327142 -64.837 -0.0779191)
(-0.326669 -64.8169 -0.0612644)
(-0.326826 -64.8026 -0.0438779)
(-0.32716 -64.7934 -0.0263379)
(-0.327382 -64.7893 -0.00879114)
(-0.347229 -62.7917 -0.0811588)
(-0.339445 -62.702 -0.0898244)
(-0.338166 -62.6379 -0.0826911)
(-0.338976 -62.5873 -0.0699547)
(-0.340467 -62.5493 -0.0551866)
(-0.341993 -62.5221 -0.0395849)
(-0.343213 -62.5045 -0.0238037)
(-0.343995 -62.4964 -0.0079624)
(-0.390767 -60.7688 -0.0669582)
(-0.392346 -60.6427 -0.0813955)
(-0.394808 -60.5562 -0.0763998)
(-0.397812 -60.4883 -0.0647888)
(-0.400764 -60.4371 -0.0510893)
(-0.403276 -60.4003 -0.0366416)
(-0.405083 -60.3767 -0.0221455)
(-0.406013 -60.3672 -0.00747457)
)
;
        pressure        uniform 0;
        value           nonuniform List<vector> 
192
(
(0.000202629 0.000134961 0.000116912)
(0.000330283 0.000149215 0.000159415)
(0.000525161 0.00017225 0.000189413)
(0.000699997 0.000163229 0.000203699)
(0.000869799 0.000139644 0.000214316)
(0.00102785 0.000105975 0.00022369)
(0.00117539 6.87433e-05 0.000233582)
(0.00131513 3.20132e-05 0.000244186)
(0.000195378 0.000131849 6.67294e-05)
(0.000357861 0.000131445 0.000116751)
(0.000541743 0.000152697 0.000151205)
(0.000715856 0.000146081 0.000170816)
(0.000882398 0.000124389 0.000184188)
(0.00103854 9.24807e-05 0.000194693)
(0.00118489 5.63979e-05 0.00020442)
(0.00132422 2.03508e-05 0.000214394)
(0.000198355 0.00013553 4.1396e-05)
(0.000369714 0.000125854 8.38382e-05)
(0.000556284 0.000140338 0.000115921)
(0.000729971 0.000132354 0.000137634)
(0.000895185 0.000110662 0.000152678)
(0.00105002 7.95406e-05 0.000164124)
(0.0011954 4.43422e-05 0.000173945)
(0.00133424 9.22485e-06 0.000183413)
(0.000201557 0.000138621 2.6938e-05)
(0.00037715 0.00012396 6.03642e-05)
(0.000566741 0.000133829 8.72453e-05)
(0.000741431 0.000122957 0.00010725)
(0.000906528 0.000100072 0.000121959)
(0.00106084 6.87434e-05 0.000133235)
(0.00120573 3.38673e-05 0.000142629)
(0.00134436 -5.94222e-07 0.000151237)
(0.000203953 0.000140821 1.78205e-05)
(0.000382204 0.000123481 4.27109e-05)
(0.000574131 0.000130429 6.36154e-05)
(0.00075012 0.000117056 8.00772e-05)
(0.000915713 9.26292e-05 9.27633e-05)
(0.00107006 6.06011e-05 0.000102695)
(0.00121486 2.56364e-05 0.000110904)
(0.00135353 -8.49334e-06 0.000118162)
(0.000205618 0.000142324 1.14286e-05)
(0.000385654 0.000123535 2.85674e-05)
(0.000579265 0.000128687 4.33934e-05)
(0.00075638 0.000113515 5.5481e-05)
(0.000922601 8.77562e-05 6.50958e-05)
(0.00107723 5.49638e-05 7.27683e-05)
(0.00122216 1.97386e-05 7.91119e-05)
(0.00136101 -1.42831e-05 8.45899e-05)
(0.00020667 0.000143268 6.42452e-06)
(0.000387833 0.000123723 1.64484e-05)
(0.000582541 0.000127842 2.52807e-05)
(0.000760454 0.000111539 3.26306e-05)
(0.000927187 8.48594e-05 3.85905e-05)
(0.0010821 5.14774e-05 4.34091e-05)
(0.00122723 1.59985e-05 4.74009e-05)
(0.00136628 -1.802e-05 5.07983e-05)
(0.00020718 0.000143726 2.07701e-06)
(0.000388889 0.000123857 5.37523e-06)
(0.000584141 0.000127504 8.30711e-06)
(0.000762465 0.000110659 1.07704e-05)
(0.000929478 8.35166e-05 1.2786e-05)
(0.00108457 4.98227e-05 1.44264e-05)
(0.00122982 1.41962e-05 1.5787e-05)
(0.001369 -1.98415e-05 1.6937e-05)
(0.000110262 8.45196e-05 0.00018048)
(0.000295697 7.66772e-05 0.000163541)
(0.000486644 9.29656e-05 0.000202716)
(0.000670289 8.32079e-05 0.000214414)
(0.00084466 6.30725e-05 0.00022575)
(0.00100572 3.45732e-05 0.000235411)
(0.00115421 2.13255e-06 0.000245659)
(0.00129356 -3.1836e-05 0.000256481)
(5.29101e-05 3.94907e-05 0.000108274)
(0.00023162 -7.14978e-06 0.000147057)
(0.000428446 -2.10122e-05 0.000179421)
(0.000621076 -4.52339e-05 0.0002)
(0.000801573 -7.29282e-05 0.000215702)
(0.000966687 -0.000103467 0.000228186)
(0.00111756 -0.000135125 0.000239183)
(0.00125797 -0.000167083 0.000249652)
(2.81331e-05 5.77806e-06 5.95195e-05)
(0.000197892 -6.03185e-05 0.000110011)
(0.000392139 -0.000113107 0.00015386)
(0.000586224 -0.000159572 0.000184046)
(0.000767425 -0.000200345 0.000205626)
(0.000932804 -0.000236734 0.000221136)
(0.00108368 -0.000269835 0.00023311)
(0.00122397 -0.000300604 0.000243912)
(2.46869e-05 -3.35169e-05 -1.13118e-06)
(0.000195991 -0.000133941 7.87596e-05)
(0.000381198 -0.000221382 0.00013068)
(0.000567098 -0.000286753 0.000170256)
(0.000742438 -0.000336314 0.000197026)
(0.000903765 -0.000375009 0.00021486)
(0.00105203 -0.000407105 0.000227222)
(0.00119106 -0.000435573 0.000237293)
(5.58359e-05 -0.000125148 -6.46858e-06)
(0.000210538 -0.000246366 6.49337e-05)
(0.000385345 -0.000332543 0.000116022)
(0.000562484 -0.00039013 0.000153817)
(0.000732573 -0.000429727 0.00017953)
(0.000891367 -0.000459205 0.000196388)
(0.00103902 -0.000484626 0.000207812)
(0.00117883 -0.000509971 0.000217546)
(7.78811e-05 -0.000139445 5.52227e-07)
(0.000220147 -0.000264772 5.23567e-05)
(0.000395024 -0.000352917 9.45727e-05)
(0.000570866 -0.000408827 0.000126219)
(0.00073997 -0.00044649 0.00014858)
(0.000898526 -0.000474505 0.000164026)
(0.00104674 -0.000499138 0.000175256)
(0.00118737 -0.000524118 0.000185291)
(8.68083e-05 -0.00014652 5.04988e-06)
(0.000228588 -0.000271847 4.24431e-05)
(0.000403263 -0.000364131 7.48383e-05)
(0.000578851 -0.000421413 0.000100721)
(0.000747868 -0.000459679 0.000119739)
(0.000906573 -0.000488009 0.000133519)
(0.00105528 -0.000512913 0.000144077)
(0.00119675 -0.000538062 0.000153752)
(9.12663e-05 -0.000150477 6.16801e-06)
(0.00023465 -0.000276161 3.34019e-05)
(0.000410054 -0.000371146 5.7795e-05)
(0.000586007 -0.000430488 7.80864e-05)
(0.000755408 -0.000470111 9.36559e-05)
(0.000914524 -0.000499339 0.000105411)
(0.00106377 -0.000524881 0.000114754)
(0.00120597 -0.000550425 0.000123405)
(9.39239e-05 -0.000152959 5.56275e-06)
(0.00023891 -0.000279224 2.50509e-05)
(0.0004154 -0.000376071 4.28523e-05)
(0.000592027 -0.000437154 5.80495e-05)
(0.000761979 -0.000478138 7.01221e-05)
(0.000921593 -0.000508338 7.95454e-05)
(0.00107136 -0.000534559 8.72291e-05)
(0.00121417 -0.00056054 9.43538e-05)
(9.56339e-05 -0.000154584 4.2107e-06)
(0.000241869 -0.000281413 1.735e-05)
(0.000419366 -0.000379557 2.94968e-05)
(0.000596687 -0.000441916 4.00458e-05)
(0.000767185 -0.00048398 4.86335e-05)
(0.000927261 -0.000514991 5.55016e-05)
(0.00107747 -0.000541784 6.11988e-05)
(0.00122074 -0.000568147 6.6469e-05)
(9.66896e-05 -0.000155595 2.5804e-06)
(0.000243765 -0.000282844 1.01813e-05)
(0.000421997 -0.000381817 1.72571e-05)
(0.000599857 -0.000445001 2.34681e-05)
(0.000770776 -0.000487789 2.86031e-05)
(0.000931197 -0.000519359 3.27742e-05)
(0.00108172 -0.000546553 3.62704e-05)
(0.0012253 -0.000573193 3.94949e-05)
(9.71976e-05 -0.000156085 8.6558e-07)
(0.000244693 -0.000283553 3.35471e-06)
(0.000423309 -0.000382932 5.67935e-06)
(0.000601457 -0.00044652 7.73042e-06)
(0.000772604 -0.000489667 9.43884e-06)
(0.000933208 -0.00052152 1.08371e-05)
(0.00108389 -0.000548917 1.20147e-05)
(0.00122763 -0.000575704 1.30989e-05)
(0.00136498 -5.40191e-05 0.000246065)