/*--------------------------------*- C++ -*----------------------------------*\
| =========                 |                                                 |
| \\      /  F ield         | foam-extend: Open Source CFD                    |
|  \\    /   O peration     | Version:     3.1                                |
|   \\  /    A nd           | Web:         http://www.extend-project.de       |
|    \\/     M anipulation  |                                                 |
\*---------------------------------------------------------------------------*/
FoamFile
{
    version     2.0;
    format      ascii;
    class       volSymmTensorField;
    location    "0.2";
    object      epsilon;
}
// * * * * * * * * * * * * * * * * * * * * * * * * * * * * * * * * * * * * * //

dimensions      [0 0 0 0 0 0 0];

internalField   nonuniform List<symmTensor> 
256
(
(-0.00172474 0.00305169 -8.8695e-05 0.00376799 0.00219196 -0.00112491)
(-0.000867 0.0026386 -0.00020049 -5.33836e-05 0.00166132 -0.000856842)
(-0.000333001 0.0020836 -0.00019822 -0.00201463 0.00101906 -0.000510488)
(0.000289845 0.00151432 -7.16293e-05 -0.0049783 0.000482199 -0.000232779)
(-0.00291525 0.000765 -6.41774e-05 2.44932e-05 -0.000131952 -0.00181687)
(-0.00181128 0.00236003 -0.000246687 -0.000707956 3.57887e-05 -0.00148105)
(-0.000774197 0.00235115 -0.000280215 -0.00221729 0.000265672 -0.00100969)
(0.000234674 0.00110641 -9.71818e-05 -0.00356898 0.000422637 -0.000618736)
(-0.00229052 0.000846524 1.65485e-05 3.39459e-05 9.90229e-05 -0.00139108)
(-0.00182603 0.00178431 -7.94347e-05 -0.000724647 9.71008e-05 -0.00126477)
(-0.000966551 0.00183246 -0.000122306 -0.00179423 0.000135592 -0.00105592)
(-0.000332601 0.00086707 -3.91876e-05 -0.00267126 0.000194943 -0.000878156)
(-0.00201189 0.000522379 -1.82676e-06 -0.000689092 -5.0242e-05 -0.001329)
(-0.0016821 0.00123897 -4.03227e-05 -0.000980214 9.70607e-08 -0.00125737)
(-0.00110113 0.00127372 -5.17217e-05 -0.00156547 4.81361e-05 -0.00114405)
(-0.000718957 0.00058587 -1.63224e-05 -0.0019406 9.46583e-05 -0.00105915)
(-0.00172919 0.000337485 9.59911e-06 -0.00106058 -4.1508e-05 -0.0012412)
(-0.0015477 0.000778328 -5.6904e-06 -0.00113408 -1.73794e-05 -0.00123237)
(-0.00118944 0.000791794 -1.08385e-05 -0.00139956 6.53773e-07 -0.00119729)
(-0.000992447 0.00035548 -3.62669e-06 -0.00148124 1.7525e-05 -0.00117713)
(-0.00155992 0.000170156 1.07694e-05 -0.00128791 -3.84715e-05 -0.00121538)
(-0.00145881 0.000422317 9.19078e-06 -0.00122349 -2.8682e-05 -0.0012317)
(-0.00125174 0.000426754 8.31848e-06 -0.00129057 -2.68031e-05 -0.00123168)
(-0.00115793 0.000182563 1.40175e-06 -0.00122162 -3.00006e-05 -0.00124048)
(-0.00147075 5.97077e-05 1.17566e-05 -0.00136269 -2.42078e-05 -0.00121671)
(-0.00140747 0.000182943 1.62255e-05 -0.00125885 -2.86949e-05 -0.00123868)
(-0.00129249 0.000184739 1.74577e-05 -0.00122438 -3.79828e-05 -0.00124942)
(-0.00124039 7.32408e-05 3.57403e-06 -0.00110745 -5.35531e-05 -0.00126547)
(-0.00145341 3.50339e-06 1.46631e-05 -0.00134141 -1.43316e-05 -0.00122736)
(-0.00139799 5.41548e-05 2.51769e-05 -0.00126533 -1.83059e-05 -0.00124502)
(-0.00130803 5.16481e-05 2.77036e-05 -0.00120537 -2.33771e-05 -0.00125358)
(-0.00125908 1.20538e-05 7.72941e-06 -0.00112316 -3.32021e-05 -0.0012662)
(-0.00172724 0.003235 -5.79944e-05 0.00260334 0.00170769 -0.0006943)
(-0.000840148 0.00288467 -0.00014602 -0.0011881 0.00134325 -0.000524338)
(-0.000330823 0.0023472 -0.00014209 -0.0030132 0.000923875 -0.000302253)
(0.000333214 0.00176279 -3.70823e-05 -0.0059114 0.000563553 -0.000122039)
(-0.00297174 0.000851609 -3.79888e-05 0.000457008 0.000568789 -0.0014068)
(-0.00180321 0.00244583 -0.000203448 -0.000399071 0.000582585 -0.00114184)
(-0.000811985 0.00239695 -0.000230732 -0.00214919 0.000655838 -0.000782242)
(0.000247792 0.00107677 -7.42947e-05 -0.00362939 0.00069091 -0.000483936)
(-0.0023596 0.000770478 3.45467e-05 6.78693e-05 0.00022074 -0.0013923)
(-0.00185876 0.00170733 -7.15684e-05 -0.000638681 0.000251889 -0.00124287)
(-0.00104568 0.00175624 -0.000118757 -0.00168737 0.000331449 -0.00103038)
(-0.000399382 0.000823367 -4.76424e-05 -0.00255728 0.000408774 -0.000853573)
(-0.00204495 0.000478267 3.74265e-05 -0.000582309 3.89515e-05 -0.00131633)
(-0.00171373 0.00115836 -2.43121e-06 -0.000868772 9.29988e-05 -0.00124541)
(-0.00117262 0.00119389 -2.74211e-05 -0.00144007 0.000156412 -0.00113959)
(-0.000785656 0.000540106 -6.36451e-06 -0.00180476 0.000211243 -0.00106051)
(-0.00175922 0.000293993 4.56051e-05 -0.00100445 -3.01486e-05 -0.00124919)
(-0.00157893 0.00071332 3.51748e-05 -0.00106013 8.88008e-06 -0.00123613)
(-0.00124306 0.000733727 2.09579e-05 -0.00130009 4.46764e-05 -0.00119861)
(-0.00104358 0.00032512 1.34657e-05 -0.00136827 7.03276e-05 -0.00117834)
(-0.00158092 0.000145474 4.39635e-05 -0.00124974 -4.89449e-05 -0.00121765)
(-0.0014821 0.00038381 5.01277e-05 -0.00117722 -2.9809e-05 -0.00123245)
(-0.00128449 0.000395392 4.20356e-05 -0.00122697 -1.97469e-05 -0.0012289)
(-0.00118978 0.000169249 2.05806e-05 -0.00114996 -1.9932e-05 -0.00123624)
(-0.00148564 4.7293e-05 3.97376e-05 -0.00134098 -4.26165e-05 -0.00121571)
(-0.00142222 0.000164292 5.40508e-05 -0.00123785 -4.06844e-05 -0.00123789)
(-0.001306 0.000171717 5.01344e-05 -0.001199 -4.62176e-05 -0.00124471)
(-0.00125306 7.09974e-05 2.23782e-05 -0.00108098 -6.16922e-05 -0.00125878)
(-0.0014626 1.58632e-07 4.10597e-05 -0.00132711 -2.55072e-05 -0.00122937)
(-0.00140574 4.72335e-05 6.36018e-05 -0.00125486 -2.76725e-05 -0.00124973)
(-0.00130933 4.65724e-05 6.2903e-05 -0.00119776 -3.19482e-05 -0.00125583)
(-0.00125938 1.1504e-05 2.93219e-05 -0.00111783 -4.36685e-05 -0.0012676)
(-0.00177024 0.00332823 -3.23322e-05 0.00241093 0.00120002 -0.000441544)
(-0.000851517 0.00298805 -8.57188e-05 -0.00145213 0.000973686 -0.000339788)
(-0.00030447 0.00245918 -8.40449e-05 -0.00327213 0.000724574 -0.000213329)
(0.00040218 0.00189915 -2.63581e-05 -0.00620987 0.000506971 -0.000108038)
(-0.00308563 0.000920524 -3.34523e-05 0.000209727 0.000628195 -0.00100811)
(-0.00186415 0.00253615 -0.00012542 -0.000602612 0.000596452 -0.000826615)
(-0.000796953 0.00245277 -0.000137398 -0.00234665 0.000609512 -0.000605204)
(0.000325626 0.00106133 -4.58255e-05 -0.00377004 0.000599657 -0.000418322)
(-0.00247004 0.000764189 9.55681e-06 -1.30895e-05 0.0003363 -0.00117638)
(-0.00194724 0.00173729 -4.5754e-05 -0.000689632 0.000336705 -0.00103902)
(-0.00108221 0.001788 -7.08114e-05 -0.00174959 0.000375792 -0.00088332)
(-0.000405063 0.000838649 -2.50687e-05 -0.00263186 0.00040719 -0.000752896)
(-0.00211342 0.000471963 2.85157e-05 -0.00059049 0.000137828 -0.00122281)
(-0.00178277 0.00115406 1.00176e-05 -0.00087295 0.000162737 -0.00113322)
(-0.00122336 0.00119514 -8.58776e-06 -0.00144858 0.000201873 -0.00104017)
(-0.00082232 0.000539835 -1.31072e-08 -0.00182038 0.000230182 -0.000966596)
(-0.00180577 0.000279788 3.85078e-05 -0.000985273 3.14075e-05 -0.0012239)
(-0.00162986 0.000698294 4.34574e-05 -0.00104272 5.5552e-05 -0.00117712)
(-0.00128923 0.000724562 3.15218e-05 -0.00128856 7.95557e-05 -0.00113018)
(-0.00108685 0.000320565 1.63948e-05 -0.00136614 9.22126e-05 -0.00109489)
(-0.00160841 0.000132641 4.1253e-05 -0.00122324 -1.69348e-05 -0.00122418)
(-0.00151575 0.000367104 5.87481e-05 -0.00115854 -3.32526e-06 -0.00120365)
(-0.00131878 0.000384017 5.11641e-05 -0.00121458 3.34356e-06 -0.00118268)
(-0.00122612 0.000163935 2.37349e-05 -0.00114662 -9.81921e-08 -0.00116757)
(-0.00149974 3.65271e-05 4.06271e-05 -0.001316 -2.93135e-05 -0.00123703)
(-0.00144129 0.000151189 6.52635e-05 -0.00122347 -2.7158e-05 -0.0012286)
(-0.00132628 0.000162746 6.11033e-05 -0.00119177 -3.19671e-05 -0.00121799)
(-0.00127685 6.74268e-05 2.70442e-05 -0.00108098 -4.60494e-05 -0.00120971)
(-0.00146632 -3.27661e-06 4.46699e-05 -0.00130456 -1.96826e-05 -0.00126614)
(-0.00141379 4.19714e-05 7.72102e-05 -0.00124048 -2.14987e-05 -0.00126152)
(-0.00131949 4.2671e-05 7.62269e-05 -0.00118976 -2.54534e-05 -0.0012535)
(-0.00127344 9.83763e-06 3.59239e-05 -0.00111473 -3.62823e-05 -0.00124594)
(-0.00180774 0.00339083 -1.66707e-05 0.00236767 0.000843386 -0.000299958)
(-0.000863454 0.00305135 -4.83341e-05 -0.00155382 0.00070223 -0.000240211)
(-0.000290093 0.00252504 -4.73145e-05 -0.00337877 0.000551713 -0.000167599)
(0.000441944 0.00197499 -1.49472e-05 -0.00635303 0.000418208 -0.00010781)
(-0.00316179 0.000954893 -1.86931e-05 2.97316e-05 0.000544312 -0.000742063)
(-0.00190517 0.00260291 -7.20147e-05 -0.000753256 0.000503558 -0.000626721)
(-0.000784806 0.00250626 -7.64252e-05 -0.00248379 0.000492525 -0.000490972)
(0.000379292 0.00107202 -2.44376e-05 -0.00386653 0.000465514 -0.000376745)
(-0.00254208 0.000782602 5.61734e-06 -0.000132331 0.000348238 -0.00096728)
(-0.00200661 0.00177996 -2.48436e-05 -0.000784446 0.000329794 -0.000863882)
(-0.00109952 0.00182701 -3.6185e-05 -0.00184399 0.000339589 -0.000753325)
(-0.000395284 0.000854419 -1.09778e-05 -0.00272599 0.00034086 -0.000658746)
(-0.00217041 0.00047819 2.13897e-05 -0.000648526 0.000186837 -0.00109316)
(-0.00183792 0.00117354 1.41198e-05 -0.00092187 0.000187107 -0.00100969)
(-0.00125671 0.00121662 3.87745e-06 -0.00150177 0.000202209 -0.000930182)
(-0.000840653 0.000548802 4.50127e-06 -0.00187856 0.00020839 -0.00086285)
(-0.00184446 0.000278839 3.07753e-05 -0.00100411 7.93903e-05 -0.0011605)
(-0.00167292 0.000702974 3.9998e-05 -0.00106217 8.57541e-05 -0.00109967)
(-0.00132387 0.000732037 3.25002e-05 -0.00131588 9.50531e-05 -0.00104608)
(-0.00111766 0.000323883 1.6004e-05 -0.00140152 9.50271e-05 -0.0009997)
(-0.00163128 0.000128078 3.49207e-05 -0.00122042 1.89452e-05 -0.00120418)
(-0.00154562 0.000363381 5.37967e-05 -0.00116269 2.27454e-05 -0.00116056)
(-0.00134727 0.000383186 4.8512e-05 -0.00122805 2.32247e-05 -0.00112317)
(-0.00125696 0.000163515 2.20659e-05 -0.00116905 1.52273e-05 -0.00108839)
(-0.00150995 3.07765e-05 3.66214e-05 -0.00130192 -6.9218e-06 -0.00124452)
(-0.00145905 0.000144888 6.18936e-05 -0.00122003 -8.23231e-06 -0.00121087)
(-0.00134575 0.000158786 5.85284e-05 -0.00119778 -1.37865e-05 -0.00118125)
(-0.00130168 6.59099e-05 2.56488e-05 -0.0010953 -2.72674e-05 -0.00115073)
(-0.00146691 -5.19774e-06 4.22748e-05 -0.00128553 -1.05426e-05 -0.00129355)
(-0.00142201 3.86379e-05 7.48572e-05 -0.00123054 -1.2756e-05 -0.00126494)
(-0.00133167 4.00531e-05 7.36111e-05 -0.00118794 -1.60188e-05 -0.00123919)
(-0.00129254 8.84535e-06 3.42851e-05 -0.00111931 -2.53514e-05 -0.00121018)
(-0.00183431 0.00343495 -8.43864e-06 0.00236129 0.000586943 -0.000221391)
(-0.000871794 0.00309472 -2.6681e-05 -0.00160308 0.000497599 -0.000184261)
(-0.000282563 0.00256909 -2.59611e-05 -0.00343533 0.000405071 -0.000140488)
(0.000465473 0.0020221 -7.7997e-06 -0.00643969 0.000321181 -0.000104387)
(-0.00321241 0.000975687 -9.24908e-06 -7.8604e-05 0.000426345 -0.000581041)
(-0.00192973 0.00264957 -3.93357e-05 -0.000847623 0.000389053 -0.00050383)
(-0.000777265 0.00254808 -4.07628e-05 -0.00257178 0.000371087 -0.000416492)
(0.000412628 0.0010851 -1.19236e-05 -0.00393299 0.000342116 -0.000342283)
(-0.00258828 0.000798736 4.94225e-06 -0.00022936 0.000301598 -0.000817552)
(-0.00204137 0.00181513 -1.0894e-05 -0.000867196 0.000277997 -0.000738163)
(-0.00110789 0.00185957 -1.59324e-05 -0.00192427 0.000273154 -0.000656608)
(-0.000386866 0.000867708 -3.31805e-06 -0.00280211 0.000261196 -0.000584654)
(-0.00220946 0.000486736 1.6042e-05 -0.000715533 0.000185775 -0.000981694)
(-0.00187321 0.00119497 1.48263e-05 -0.000979146 0.000174354 -0.000907145)
(-0.00127692 0.00123808 9.48856e-06 -0.00156045 0.000174863 -0.000837959)
(-0.000851106 0.000557772 6.33473e-06 -0.00193868 0.000168816 -0.000775505)
(-0.001873 0.000281946 2.33527e-05 -0.00104005 9.77944e-05 -0.00109305)
(-0.00170283 0.000713 3.31733e-05 -0.00109583 9.28503e-05 -0.00102716)
(-0.0013474 0.000742896 2.87224e-05 -0.00135423 9.21028e-05 -0.000969857)
(-0.00113876 0.000328538 1.38086e-05 -0.00144419 8.48627e-05 -0.000915956)
(-0.00164934 0.000127474 2.72804e-05 -0.0012332 4.10889e-05 -0.00117354)
(-0.00156786 0.000365453 4.41067e-05 -0.00117892 3.73746e-05 -0.0011157)
(-0.00136854 0.00038634 4.05676e-05 -0.00125108 3.30799e-05 -0.00106635)
(-0.00128048 0.000164777 1.81729e-05 -0.0011979 2.27701e-05 -0.00101702)
(-0.00151887 2.83808e-05 2.97701e-05 -0.00129901 1.10988e-05 -0.00124068)
(-0.00147356 0.000143111 5.18113e-05 -0.00122456 6.28737e-06 -0.00118841)
(-0.00136219 0.000157884 4.91173e-05 -0.00120995 -1.75629e-07 -0.00114335)
(-0.001323 6.54955e-05 2.12143e-05 -0.00111377 -1.24639e-05 -0.00109526)
(-0.00146879 -5.91901e-06 3.56014e-05 -0.00127516 -1.71801e-06 -0.00130767)
(-0.00143003 3.72373e-05 6.37269e-05 -0.00122736 -4.95849e-06 -0.0012592)
(-0.00134384 3.87228e-05 6.21425e-05 -0.00119181 -8.04213e-06 -0.00121754)
(-0.0013112 8.31705e-06 2.84685e-05 -0.0011286 -1.5764e-05 -0.00117048)
(-0.00185148 0.00346539 -4.07452e-06 0.00236557 0.000388507 -0.000177572)
(-0.000877097 0.00312492 -1.4301e-05 -0.00162938 0.000333163 -0.000152299)
(-0.000278368 0.0025994 -1.38083e-05 -0.00346884 0.000277188 -0.000123482)
(0.000479656 0.00205295 -3.81319e-06 -0.0064964 0.000225254 -9.92458e-05)
(-0.0032441 0.00098909 -3.92029e-06 -0.000141976 0.000302479 -0.000485743)
(-0.00194424 0.0026813 -2.04025e-05 -0.000905118 0.000273817 -0.000429428)
(-0.000772635 0.00257777 -2.07518e-05 -0.00262803 0.00025729 -0.000368099)
(0.000432795 0.0010955 -5.28581e-06 -0.00397896 0.000233511 -0.000314609)
(-0.00261617 0.000810121 4.4416e-06 -0.000296636 0.000227119 -0.000719508)
(-0.00206135 0.00184011 -3.35165e-06 -0.000927044 0.000206206 -0.00065463)
(-0.00111205 0.00188317 -5.5903e-06 -0.00198255 0.000196992 -0.00058985)
(-0.000381621 0.000877562 4.56448e-08 -0.00285689 0.000182701 -0.000530463)
(-0.00223338 0.000493677 1.15745e-05 -0.000770842 0.000151291 -0.000900683)
(-0.00189433 0.00121173 1.27362e-05 -0.00102749 0.000137703 -0.000832639)
(-0.00128883 0.00125454 9.99713e-06 -0.00160881 0.000132349 -0.000769865)
(-0.000857688 0.000564601 5.90398e-06 -0.00198654 0.00012261 -0.000710203)
(-0.0018913 0.000285304 1.65599e-05 -0.00107606 8.88394e-05 -0.00103778)
(-0.00172188 0.000722162 2.47336e-05 -0.00112878 8.0081e-05 -0.000970041)
(-0.00136258 0.000752216 2.21614e-05 -0.00138932 7.50756e-05 -0.000910462)
(-0.00115297 0.000332426 1.0506e-05 -0.00148097 6.60043e-05 -0.000851609)
(-0.00166173 0.00012813 1.95454e-05 -0.00125088 4.49665e-05 -0.00114375)
(-0.00158308 0.000368809 3.24294e-05 -0.00119767 3.82862e-05 -0.00107746)
(-0.00138344 0.000390005 3.01307e-05 -0.00127383 3.22895e-05 -0.00102004)
(-0.00129742 0.000166203 1.3355e-05 -0.00122379 2.25455e-05 -0.000960895)
(-0.00152586 2.75295e-05 2.18187e-05 -0.00130243 1.86897e-05 -0.00123129)
(-0.00148459 0.000143163 3.84948e-05 -0.0012324 1.26317e-05 -0.00116648)
(-0.00137497 0.000158152 3.64499e-05 -0.0012229 6.44271e-06 -0.00111035)
(-0.00133959 6.54712e-05 1.55511e-05 -0.00113074 -3.49427e-06 -0.00105002)
(-0.00147156 -6.21928e-06 2.6792e-05 -0.00127157 3.20201e-06 -0.00131066)
(-0.00143736 3.66862e-05 4.79538e-05 -0.00122868 -2.53546e-07 -0.00124807)
(-0.00135454 3.80594e-05 4.63157e-05 -0.00119825 -2.93882e-06 -0.00119457)
(-0.00132688 8.0158e-06 2.09167e-05 -0.00113887 -8.77946e-06 -0.00113462)
(-0.00186169 0.00348472 -1.80194e-06 0.00237146 0.000222371 -0.000154154)
(-0.000880177 0.00314437 -6.97258e-06 -0.00164337 0.000191934 -0.000134731)
(-0.000276037 0.00261885 -6.68706e-06 -0.00348842 0.000161653 -0.000113285)
(0.000487888 0.0020722 -1.6941e-06 -0.00653179 0.000133036 -9.47037e-05)
(-0.00326255 0.000997351 -1.40037e-06 -0.000177082 0.000180002 -0.000432671)
(-0.00195237 0.00270119 -9.54158e-06 -0.000938129 0.000162193 -0.000386947)
(-0.000769919 0.0025967 -9.57318e-06 -0.00266186 0.000151111 -0.00033875)
(0.000444384 0.0011024 -2.073e-06 -0.00400829 0.000135869 -0.000295333)
(-0.00263192 0.000817251 3.0844e-06 -0.00033799 0.000139862 -0.000661325)
(-0.00207229 0.00185587 -3.26397e-07 -0.000964834 0.000125912 -0.000604133)
(-0.00111412 0.00189824 -1.28264e-06 -0.00201973 0.00011836 -0.000548194)
(-0.000378781 0.000883945 8.64233e-07 -0.00289201 0.000107817 -0.000495125)
(-0.00224685 0.000498242 7.05896e-06 -0.000808243 9.73429e-05 -0.000849555)
(-0.00190611 0.00122268 8.50202e-06 -0.00106074 8.72588e-05 -0.000785087)
(-0.00129551 0.00126525 7.18596e-06 -0.00164179 8.19138e-05 -0.000725732)
(-0.000861796 0.000569038 4.03202e-06 -0.00201861 7.40789e-05 -0.000667357)
(-0.00190183 0.000287729 9.92589e-06 -0.00110296 6.06187e-05 -0.00100039)
(-0.00173298 0.000728528 1.52489e-05 -0.00115329 5.33805e-05 -0.000931668)
(-0.00137163 0.000758556 1.38975e-05 -0.00141466 4.86063e-05 -0.000870619)
(-0.00116188 0.000335035 6.52713e-06 -0.0015067 4.16449e-05 -0.000808705)
(-0.00166927 0.000128874 1.17505e-05 -0.0012659 3.34551e-05 -0.0011216)
(-0.00159251 0.000371519 1.9775e-05 -0.00121277 2.77921e-05 -0.00105035)
(-0.00139291 0.000392752 1.8458e-05 -0.00129099 2.29503e-05 -0.000987917)
(-0.00130843 0.000167245 8.12061e-06 -0.0012424 1.61289e-05 -0.000922784)
(-0.00153068 2.72768e-05 1.3277e-05 -0.00130736 1.59353e-05 -0.00122202)
(-0.00149206 0.000143617 2.35909e-05 -0.00123966 1.11327e-05 -0.00114946)
(-0.00138374 0.000158589 2.22924e-05 -0.00123315 6.68992e-06 -0.0010863)
(-0.00135092 6.55127e-05 9.43024e-06 -0.00114323 2.18622e-07 -0.00101841)
(-0.00147428 -6.3552e-06 1.65892e-05 -0.00127154 3.92125e-06 -0.00130851)
(-0.00144306 3.64632e-05 2.96448e-05 -0.00123157 1.30786e-06 -0.00123698)
(-0.00136252 3.77007e-05 2.84198e-05 -0.00120431 -5.56289e-07 -0.00117589)
(-0.00133809 7.83041e-06 1.2716e-05 -0.00114726 -4.22504e-06 -0.00110791)
(-0.00186645 0.00349414 -5.09757e-07 0.00237515 7.24764e-05 -0.000143936)
(-0.000881587 0.00315395 -2.08631e-06 -0.00164951 6.27365e-05 -0.000126906)
(-0.000274979 0.00262841 -1.99298e-06 -0.00349757 5.31269e-05 -0.000108468)
(0.000491701 0.00208153 -4.80071e-07 -0.00654896 4.39541e-05 -9.21447e-05)
(-0.00327103 0.00100133 -3.28872e-07 -0.000192746 5.97047e-05 -0.00040893)
(-0.00195603 0.00271082 -2.77355e-06 -0.000953225 5.36824e-05 -0.000367606)
(-0.000768655 0.00260593 -2.76141e-06 -0.00267782 4.98212e-05 -0.000324848)
(0.000449697 0.00110581 -5.3438e-07 -0.00402262 4.45994e-05 -0.000285495)
(-0.00263899 0.000820684 1.09346e-06 -0.000357548 4.71263e-05 -0.000634342)
(-0.00207716 0.00186348 1.55093e-07 -0.000982984 4.22628e-05 -0.000580408)
(-0.001115 0.00190555 -1.12071e-07 -0.00203775 3.94356e-05 -0.000528211)
(-0.000377568 0.000887068 4.07786e-07 -0.00290914 3.56246e-05 -0.00047772)
(-0.00225286 0.000500475 2.37255e-06 -0.000826817 3.34595e-05 -0.000825042)
(-0.00191138 0.00122803 2.9721e-06 -0.00107742 2.97994e-05 -0.000762076)
(-0.00129853 0.00127048 2.57856e-06 -0.0016583 2.76806e-05 -0.000704144)
(-0.000863814 0.000571205 1.4138e-06 -0.00203455 2.47571e-05 -0.000646222)
(-0.00190658 0.000288958 3.30746e-06 -0.00111699 2.1389e-05 -0.000981792)
(-0.00173807 0.000731713 5.14788e-06 -0.00116609 1.86599e-05 -0.000912559)
(-0.00137589 0.000761702 4.72421e-06 -0.00142772 1.6779e-05 -0.000850751)
(-0.0011662 0.000336323 2.20573e-06 -0.00151976 1.42124e-05 -0.000787362)
(-0.00167279 0.000129301 3.91936e-06 -0.00127422 1.22407e-05 -0.00111001)
(-0.00159701 0.000372949 6.63892e-06 -0.00122097 1.00779e-05 -0.00103641)
(-0.00139753 0.000394162 6.20736e-06 -0.00130005 8.25265e-06 -0.000971572)
(-0.00131387 0.000167773 2.71878e-06 -0.00125199 5.81557e-06 -0.000903605)
(-0.00153312 2.72179e-05 4.45338e-06 -0.00131057 6.12846e-06 -0.00121652)
(-0.00149585 0.000143922 7.93708e-06 -0.00124387 4.32529e-06 -0.00114024)
(-0.00138822 0.000158847 7.49064e-06 -0.00123872 2.71408e-06 -0.00107368)
(-0.00135667 6.55388e-05 3.15514e-06 -0.00114979 4.6719e-07 -0.0010022)
(-0.00147592 -6.41716e-06 5.61383e-06 -0.00127228 1.65332e-06 -0.00130612)
(-0.00144619 3.63737e-05 1.00196e-05 -0.00123364 6.87358e-07 -0.00123027)
(-0.00136678 3.75254e-05 9.56865e-06 -0.00120788 1.75916e-08 -0.00116551)
(-0.0013439 7.73602e-06 4.2646e-06 -0.00115194 -1.23934e-06 -0.00109373)
)
;

boundaryField
{
    interface
    {
        type            calculated;
        value           nonuniform List<symmTensor> 
192
(
(-0.00696675 -1.11222e-06 4.1236e-05 0.00657232 0.00240337 -0.00122175)
(-0.00206655 5.74255e-07 5.20381e-05 5.37576e-06 -0.000175417 -0.00192887)
(-0.0025721 -3.80421e-06 4.95562e-05 0.000281685 0.000107557 -0.00142258)
(-0.00195271 -6.41673e-06 4.46766e-05 -0.000678352 -7.75046e-05 -0.00134404)
(-0.00170464 -8.2903e-06 3.87248e-05 -0.00111597 -5.69695e-05 -0.0012327)
(-0.00151741 -9.31482e-06 3.26414e-05 -0.00138558 -4.66071e-05 -0.00119883)
(-0.00144609 -9.1466e-06 2.68841e-05 -0.00145018 -2.36086e-05 -0.00119994)
(-0.00145526 -6.68096e-06 2.2115e-05 -0.00138745 -1.23889e-05 -0.00121395)
(-0.00656513 -3.54914e-06 2.53342e-05 0.00544339 0.00186354 -0.000755156)
(-0.00268938 -3.75753e-06 3.28058e-05 0.000443872 0.000595335 -0.00149946)
(-0.00259038 -8.54749e-06 3.26428e-05 0.000275628 0.00022194 -0.0014417)
(-0.00206142 -1.17434e-05 3.05527e-05 -0.000570821 1.41988e-05 -0.00133505)
(-0.00175684 -1.37701e-05 2.76375e-05 -0.00106473 -5.09084e-05 -0.00124346)
(-0.00156149 -1.47117e-05 2.44547e-05 -0.00134667 -6.16586e-05 -0.00120107)
(-0.00147873 -1.42429e-05 2.13562e-05 -0.00142524 -4.58204e-05 -0.00119715)
(-0.00147653 -1.12708e-05 1.87958e-05 -0.00137051 -2.46215e-05 -0.00121255)
(-0.00669604 -4.46616e-06 1.6486e-05 0.00532466 0.00130143 -0.000480768)
(-0.00279993 -5.69322e-06 2.18614e-05 0.000154921 0.000667364 -0.00108197)
(-0.00267093 -1.13809e-05 2.249e-05 0.000159735 0.000351539 -0.00123842)
(-0.0021186 -1.50658e-05 2.17623e-05 -0.000583588 0.000130837 -0.00126557)
(-0.00178346 -1.72944e-05 2.03735e-05 -0.00104595 1.9844e-05 -0.0012464)
(-0.00157348 -1.82381e-05 1.86855e-05 -0.00131514 -2.58158e-05 -0.00123371)
(-0.00148095 -1.764e-05 1.69552e-05 -0.00139325 -3.23854e-05 -0.00124004)
(-0.00146486 -1.44618e-05 1.55345e-05 -0.00134309 -1.90618e-05 -0.0012669)
(-0.00682765 -4.94644e-06 1.1342e-05 0.00533646 0.00090849 -0.000323457)
(-0.00287595 -6.7608e-06 1.52459e-05 -4.85151e-05 0.000579337 -0.000790337)
(-0.00274 -1.31438e-05 1.60351e-05 1.72948e-05 0.000369388 -0.00101589)
(-0.00217356 -1.7267e-05 1.5882e-05 -0.000651371 0.000193042 -0.00113591)
(-0.00181613 -1.97093e-05 1.52383e-05 -0.00106731 7.8124e-05 -0.00119323)
(-0.00158997 -2.07103e-05 1.43271e-05 -0.00130972 1.65171e-05 -0.00122817)
(-0.00148596 -2.00685e-05 1.33274e-05 -0.0013733 -7.13089e-06 -0.00126287)
(-0.00145738 -1.67908e-05 1.251e-05 -0.00131919 -9.24723e-06 -0.00130907)
(-0.00692006 -5.23833e-06 7.80221e-06 0.00536854 0.000629364 -0.000236501)
(-0.00292523 -7.40526e-06 1.05764e-05 -0.000168275 0.000454272 -0.000614572)
(-0.00278466 -1.42614e-05 1.1295e-05 -9.20389e-05 0.000321531 -0.000855947)
(-0.0022091 -1.87215e-05 1.13757e-05 -0.000727655 0.000196702 -0.00102069)
(-0.00184042 -2.13566e-05 1.1111e-05 -0.00110716 0.000102535 -0.0011291)
(-0.00160318 -2.24358e-05 1.06375e-05 -0.00132217 4.33488e-05 -0.00120575)
(-0.00149067 -2.17962e-05 1.00714e-05 -0.00136678 1.35148e-05 -0.00126983)
(-0.00145285 -1.84755e-05 9.6096e-06 -0.00130531 4.69652e-07 -0.00133492)
(-0.00698154 -5.4215e-06 5.12028e-06 0.00539933 0.000415419 -0.000188274)
(-0.00295621 -7.80097e-06 6.97633e-06 -0.000237352 0.000322566 -0.000511141)
(-0.00281258 -1.49648e-05 7.52879e-06 -0.000165625 0.000242728 -0.000751594)
(-0.00223067 -1.96611e-05 7.67131e-06 -0.000789233 0.000161717 -0.000936538)
(-0.00185577 -2.24457e-05 7.58583e-06 -0.00114678 9.51081e-05 -0.00107477)
(-0.00161228 -2.35983e-05 7.35396e-06 -0.00134053 4.89969e-05 -0.00118049)
(-0.00149473 -2.29778e-05 7.04689e-06 -0.00136833 2.21207e-05 -0.00126742)
(-0.00145177 -1.96402e-05 6.79704e-06 -0.00129949 5.60311e-06 -0.00134603)
(-0.00701922 -5.53437e-06 2.90561e-06 0.00542206 0.00023742 -0.000162705)
(-0.00297407 -8.03247e-06 3.96166e-06 -0.000275228 0.000192079 -0.000454006)
(-0.00282851 -1.53782e-05 4.31131e-06 -0.000210112 0.000149679 -0.000690134)
(-0.00224261 -2.02237e-05 4.42997e-06 -0.000830281 0.000104483 -0.000883687)
(-0.00186431 -2.31087e-05 4.41692e-06 -0.00117614 6.54349e-05 -0.00103781)
(-0.00161764 -2.43156e-05 4.31723e-06 -0.00135634 3.68408e-05 -0.0011609)
(-0.00149756 -2.37144e-05 4.16869e-06 -0.00137241 1.87344e-05 -0.00126241)
(-0.0014522 -2.0371e-05 4.04845e-06 -0.0012982 5.74699e-06 -0.00134901)
(-0.00703714 -5.60673e-06 9.38904e-07 0.00543398 7.7333e-05 -0.000151614)
(-0.00298214 -8.14417e-06 1.2766e-06 -0.000292019 6.37333e-05 -0.000428591)
(-0.00283567 -1.55605e-05 1.39862e-06 -0.000230972 5.0467e-05 -0.000661782)
(-0.00224787 -2.04814e-05 1.44524e-06 -0.00085051 3.59728e-05 -0.000858462)
(-0.00186805 -2.34184e-05 1.4479e-06 -0.00119138 2.31593e-05 -0.00101943)
(-0.00162008 -2.46549e-05 1.42174e-06 -0.00136512 1.35276e-05 -0.00115051)
(-0.001499 -2.40657e-05 1.37834e-06 -0.00137531 7.18797e-06 -0.00125894)
(-0.00145279 -2.07246e-05 1.34345e-06 -0.00129839 2.32876e-06 -0.00134908)
(-0.00174374 0.00292485 -8.1276e-05 0.00477799 8.19328e-07 -0.00520652)
(-0.00292742 0.000725622 -8.75046e-05 -0.000542913 3.80565e-06 -0.00082836)
(-0.00228848 0.000907152 -7.64369e-05 -1.79818e-05 2.71735e-06 -0.00160501)
(-0.00201429 0.000558446 -6.14976e-05 -0.000781138 2.00653e-06 -0.00127015)
(-0.00172416 0.000368971 -4.63604e-05 -0.00109504 9.37441e-07 -0.00124794)
(-0.00155407 0.000185735 -3.16115e-05 -0.00130636 -5.49204e-08 -0.00121427)
(-0.00146466 6.53611e-05 -1.76091e-05 -0.00136978 -3.54107e-07 -0.00122651)
(-0.00144799 4.82404e-06 -4.08796e-06 -0.00134495 1.567e-06 -0.00125118)
(-0.000898305 0.00245787 -7.37016e-05 0.000888202 -1.54559e-06 -0.0030529)
(-0.00185463 0.00232541 -8.06824e-05 -0.00112791 -2.20944e-06 -0.00105123)
(-0.00184442 0.00186878 -6.91731e-05 -0.000813717 -3.86033e-06 -0.00126501)
(-0.00168628 0.00130738 -5.47227e-05 -0.00107657 -5.06645e-06 -0.0011904)
(-0.00154241 0.000828466 -4.01831e-05 -0.00118684 -6.18984e-06 -0.00120921)
(-0.00145234 0.0004482 -2.62542e-05 -0.00125342 -7.16393e-06 -0.00122186)
(-0.00140215 0.000193195 -1.32642e-05 -0.00126977 -7.60366e-06 -0.00124222)
(-0.00139415 5.81439e-05 -1.32146e-06 -0.00126826 -6.27435e-06 -0.00124763)
(-0.000318317 0.001892 -7.26051e-05 -0.00120315 -2.4539e-06 -0.00193818)
(-0.000728818 0.00233183 -8.00016e-05 -0.00239918 -5.78161e-06 -0.000856012)
(-0.000912215 0.00191993 -6.8235e-05 -0.00191451 -9.12381e-06 -0.00105486)
(-0.00105971 0.0013451 -5.34745e-05 -0.00167706 -1.13946e-05 -0.0011124)
(-0.00116157 0.000838733 -3.86541e-05 -0.00147902 -1.30945e-05 -0.00117507)
(-0.00123718 0.000448752 -2.457e-05 -0.00133899 -1.44608e-05 -0.00121731)
(-0.00128889 0.000191827 -1.15705e-05 -0.00124186 -1.54384e-05 -0.0012475)
(-0.00131101 5.45444e-05 1.59938e-07 -0.00120769 -1.51485e-05 -0.00125586)
(0.000290365 0.00135479 -7.72438e-05 -0.00425231 -4.02382e-06 -0.000194915)
(0.000266453 0.00111694 -8.47819e-05 -0.00359176 -1.09005e-05 -0.00062138)
(-0.000276198 0.000917746 -7.20857e-05 -0.00280921 -1.52984e-05 -0.000780916)
(-0.000677051 0.000627341 -5.60434e-05 -0.00206624 -1.8246e-05 -0.00101055)
(-0.000966311 0.000380375 -3.98913e-05 -0.00157852 -2.02821e-05 -0.00114509)
(-0.0011451 0.000191465 -2.45648e-05 -0.00128192 -2.19492e-05 -0.0012265)
(-0.00123843 7.30626e-05 -1.04465e-05 -0.00112871 -2.35177e-05 -0.00126948)
(-0.00126359 1.15873e-05 2.35491e-06 -0.00112481 -2.45475e-05 -0.00125761)
(0.00211895 1.49279e-06 3.74223e-05 -0.00700341 0.000268334 -0.000130196)
(0.000437715 6.54939e-06 4.06268e-05 -0.0041627 0.000474003 -0.000475312)
(-0.000140996 7.08565e-06 3.30651e-05 -0.00298953 0.000222416 -0.000814424)
(-0.000677524 8.16323e-06 2.40159e-05 -0.00201087 0.000116222 -0.00103098)
(-0.00100064 9.95355e-06 1.49721e-05 -0.00142632 2.5032e-05 -0.00117472)
(-0.00118438 1.26571e-05 6.61427e-06 -0.00111884 -3.34229e-05 -0.00124908)
(-0.00126567 1.69914e-05 -5.87031e-07 -0.00100863 -6.37237e-05 -0.001276)
(-0.00124539 2.41908e-05 -5.96049e-06 -0.00107087 -3.99878e-05 -0.0012745)
(0.00273538 1.14647e-07 2.10679e-05 -0.00794174 0.000413936 -5.48019e-05)
(0.000446646 4.634e-06 2.2731e-05 -0.00422839 0.000693106 -0.000372936)
(-0.000203491 3.95259e-06 1.81099e-05 -0.00287726 0.000438888 -0.000789212)
(-0.000742067 4.10079e-06 1.26933e-05 -0.00187313 0.000231963 -0.00103505)
(-0.00105562 5.49679e-06 7.35363e-06 -0.00131244 7.84536e-05 -0.00117681)
(-0.00121985 8.34464e-06 2.44224e-06 -0.0010476 -2.37573e-05 -0.00124533)
(-0.00127708 1.34766e-05 -1.80287e-06 -0.00098295 -7.29064e-05 -0.00126965)
(-0.0012405 2.2264e-05 -5.25379e-06 -0.00106616 -5.23933e-05 -0.00127682)
(0.00299416 -5.62457e-07 1.2953e-05 -0.00828307 0.000413483 -6.66766e-05)
(0.000507312 3.60704e-06 1.38843e-05 -0.00431623 0.000584195 -0.000345222)
(-0.000188967 2.38068e-06 1.08938e-05 -0.00295783 0.000415144 -0.000702862)
(-0.000777711 2.17059e-06 7.37128e-06 -0.00189213 0.000237277 -0.00093926)
(-0.00110368 3.44499e-06 3.90365e-06 -0.00131599 9.3448e-05 -0.00108224)
(-0.0012639 6.44485e-06 7.09011e-07 -0.00104983 -5.48079e-06 -0.00116243)
(-0.00130956 1.20269e-05 -2.09585e-06 -0.000986598 -5.62402e-05 -0.00120661)
(-0.00125917 2.1544e-05 -4.57143e-06 -0.00106488 -4.43523e-05 -0.00124253)
(0.00314038 -9.16444e-07 8.58774e-06 -0.00846141 0.000359123 -8.43871e-05)
(0.000554431 3.01695e-06 9.11322e-06 -0.00437969 0.000443828 -0.0003312)
(-0.00016945 1.44933e-06 7.05205e-06 -0.00305089 0.000335045 -0.000619933)
(-0.000797135 1.0552e-06 4.61569e-06 -0.00195164 0.000205946 -0.000834303)
(-0.0011379 2.29157e-06 2.20667e-06 -0.00135472 9.0801e-05 -0.000978809)
(-0.00130001 5.40979e-06 -2.48084e-08 -0.00107626 8.12224e-06 -0.00107136)
(-0.00134041 1.12737e-05 -2.01522e-06 -0.00100456 -3.67147e-05 -0.00113455)
(-0.00128315 2.12228e-05 -3.85758e-06 -0.00107196 -3.23397e-05 -0.00119383)
(0.00323062 -1.13009e-06 5.72044e-06 -0.00857545 0.000282863 -9.00395e-05)
(0.000583573 2.66416e-06 6.0006e-06 -0.00442844 0.000321765 -0.000311732)
(-0.000156897 8.85057e-07 4.57301e-06 -0.00312332 0.000250415 -0.000553261)
(-0.000808244 3.88292e-07 2.8888e-06 -0.00201136 0.000161768 -0.000746682)
(-0.00116197 1.61888e-06 1.21748e-06 -0.00139865 7.81682e-05 -0.000889512)