/*--------------------------------*- C++ -*----------------------------------*\
| =========                 |                                                 |
| \\      /  F ield         | foam-extend: Open Source CFD                    |
|  \\    /   O peration     | Version:     3.1                                |
|   \\  /    A nd           | Web:         http://www.extend-project.de       |
|    \\/     M anipulation  |                                                 |
\*---------------------------------------------------------------------------*/
FoamFile
{
    version     2.0;
    format      ascii;
    class       pointVectorField;
    location    "0.2";
    object      pointD;
}
// * * * * * * * * * * * * * * * * * * * * * * * * * * * * * * * * * * * * * //

dimensions      [0 1 0 0 0 0 0];

internalField   nonuniform List<vector> 
405
(
(0 0 0)
(0 0 0)
(0 0 0)
(0 0 0)
(0 0 0)
(0.000260085 0.000187026 0.000176103)
(0.000172622 4.83844e-05 0.000149838)
(0.000127639 -5.54987e-06 0.000106215)
(0.000111676 -5.54996e-05 6.17898e-05)
(0.000126079 -0.00015823 3.43687e-05)
(0.000420501 0.000171659 0.00018964)
(0.000360602 3.53702e-05 0.000173184)
(0.000312524 -5.0397e-05 0.000147587)
(0.000291805 -0.000132187 0.000118328)
(0.000290157 -0.000262791 9.92768e-05)
(0.000607099 0.000177197 0.000214545)
(0.000551613 2.74818e-05 0.000199138)
(0.000506971 -8.47314e-05 0.000179332)
(0.000481665 -0.000195204 0.000159711)
(0.000468722 -0.000341873 0.000146138)
(0.000780639 0.0001573 0.000224758)
(0.000734399 7.02956e-06 0.000213966)
(0.000694075 -0.00011952 0.000201343)
(0.000665796 -0.000245746 0.000189239)
(0.000643988 -0.000396084 0.000180162)
(0.000945597 0.000128105 0.000234403)
(0.00090466 -1.96873e-05 0.000226262)
(0.000867122 -0.000153368 0.000217662)
(0.000836608 -0.0002871 0.000209662)
(0.000809186 -0.000434868 0.000202794)
(0.00109872 9.25649e-05 0.000243902)
(0.00106105 -5.04714e-05 0.000237109)
(0.00102518 -0.00018629 0.000230403)
(0.00099307 -0.000322171 0.000224082)
(0.000962358 -0.000464903 0.000217712)
(0.00124223 5.56988e-05 0.000254381)
(0.00120583 -8.29778e-05 0.000247744)
(0.00117079 -0.000218162 0.000241464)
(0.00113768 -0.000353279 0.000235384)
(0.00110565 -0.000491096 0.000228486)
(0.0013802 2.05029e-05 0.000265072)
(0.00134339 -0.000115839 0.000258482)
(0.00130794 -0.000249514 0.000252594)
(0.00127474 -0.000383106 0.000246803)
(0.00124281 -0.000518299 0.000239653)
(0 0 0)
(0 0 0)
(0 0 0)
(0 0 0)
(0 0 0)
(0.000271538 0.000136867 0.000114952)
(0.000185983 -1.58205e-06 9.83818e-05)
(0.000144153 -4.9487e-05 7.19021e-05)
(0.000126741 -9.28408e-05 4.50032e-05)
(0.000141101 -0.000193933 2.78435e-05)
(0.000438762 0.000151401 0.000154196)
(0.000378168 1.21407e-05 0.000139261)
(0.000331311 -7.91168e-05 0.000118937)
(0.000307535 -0.000166538 9.69319e-05)
(0.000302763 -0.00029915 8.19712e-05)
(0.000620689 0.000158564 0.000178784)
(0.000565673 7.88207e-06 0.000165007)
(0.000521624 -0.000108106 0.000149413)
(0.000493908 -0.000222782 0.000133944)
(0.000478429 -0.000371104 0.000122658)
(0.000792012 0.000143336 0.000193255)
(0.000745533 -7.99401e-06 0.000182338)
(0.000705003 -0.000137778 0.000171164)
(0.000674956 -0.00026721 0.000160581)
(0.000651473 -0.000418794 0.000152037)
(0.000954647 0.000115622 0.000204222)
(0.000913437 -3.27124e-05 0.000195354)
(0.000875548 -0.00016831 0.000187038)
(0.000843986 -0.000303893 0.00017929)
(0.000815609 -0.000452482 0.000172131)
(0.00110667 8.08993e-05 0.000214096)
(0.00106868 -6.24524e-05 0.000206374)
(0.0010325 -0.000199264 0.000199406)
(0.000999964 -0.000336072 0.00019281)
(0.000968913 -0.000479368 0.000185871)
(0.00124991 4.43763e-05 0.000224146)
(0.00121321 -9.45893e-05 0.00021676)
(0.00117795 -0.00023041 0.00021022)
(0.00114489 -0.000366156 0.00020386)
(0.00111299 -0.000504463 0.000196476)
(0.00138804 9.3835e-06 0.000234566)
(0.00135098 -0.000127302 0.000227381)
(0.00131537 -0.00026162 0.000221328)
(0.0012824 -0.000395897 0.000215384)
(0.00125078 -0.000531594 0.000207887)
(0 0 0)
(0 0 0)
(0 0 0)
(0 0 0)
(0 0 0)
(0.000280327 0.000131169 7.71787e-05)
(0.000192609 -1.14126e-05 6.66984e-05)
(0.000150335 -5.9083e-05 5.11353e-05)
(0.000134613 -0.000102122 3.55374e-05)
(0.000153356 -0.000205646 2.51005e-05)
(0.0004564 0.000137583 0.000116929)
(0.000391056 -3.21068e-06 0.000105185)
(0.000341118 -9.43862e-05 9.11949e-05)
(0.000316425 -0.000181553 7.66341e-05)
(0.000311755 -0.000313417 6.60527e-05)
(0.000635963 0.000142867 0.000143894)
(0.000578973 -7.38102e-06 0.000131876)
(0.000532887 -0.000123789 0.000119967)
(0.000503612 -0.000238737 0.000108311)
(0.000487001 -0.000386822 9.90879e-05)
(0.000805853 0.000128372 0.000161329)
(0.0007578 -2.25023e-05 0.000150531)
(0.000715718 -0.000152696 0.0001409)
(0.000684219 -0.000282538 0.000131872)
(0.000659389 -0.000434102 0.000123815)
(0.000966536 0.000101768 0.000173921)
(0.000924399 -4.61414e-05 0.000164364)
(0.00088546 -0.000182172 0.000156385)
(0.000852769 -0.000318264 0.000148959)
(0.000823234 -0.000467171 0.000141466)
(0.00111721 6.81903e-05 0.000184296)
(0.00107863 -7.50381e-05 0.000175604)
(0.00104182 -0.000212325 0.000168478)
(0.00100858 -0.00034972 0.000161736)
(0.00097678 -0.000493641 0.00015422)
(0.00125969 3.25789e-05 0.000194043)
(0.00122269 -0.000106614 0.000185768)
(0.00118712 -0.000243018 0.000179024)
(0.00115376 -0.000379467 0.00017249)
(0.00112154 -0.000518558 0.000164594)
(0.00139785 -1.76919e-06 0.000203995)
(0.00136071 -0.000138894 0.000196014)
(0.00132501 -0.00027391 0.000189811)
(0.0012919 -0.000409001 0.000183784)
(0.00126012 -0.000545533 0.000175877)
(0 0 0)
(0 0 0)
(0 0 0)
(0 0 0)
(0 0 0)
(0.000286694 0.000130991 5.31341e-05)
(0.000196813 -1.4804e-05 4.65782e-05)
(0.00015385 -6.26317e-05 3.72703e-05)
(0.000139081 -0.000105705 2.80666e-05)
(0.000160328 -0.000211251 2.17657e-05)
(0.000467472 0.000130995 8.68423e-05)
(0.000399729 -1.14311e-05 7.85686e-05)
(0.000347917 -0.000102377 6.90955e-05)
(0.000323024 -0.000189095 5.95256e-05)
(0.000319139 -0.000320821 5.21196e-05)
(0.000648607 0.00013237 0.000112013)
(0.000589657 -1.80082e-05 0.000102738)
(0.000541708 -0.000134183 9.38518e-05)
(0.000511465 -0.000248777 8.5252e-05)
(0.000494544 -0.000396795 7.78603e-05)
(0.000818279 0.000116511 0.00012988)
(0.000768881 -3.40598e-05 0.000120622)
(0.000725337 -0.000164093 0.000112658)
(0.00069274 -0.000293813 0.000105203)
(0.000667034 -0.000445423 9.80506e-05)
(0.000978144 8.97546e-05 0.000142999)
(0.000935199 -5.77879e-05 0.000134155)
(0.00089522 -0.000193857 0.000126944)
(0.000861581 -0.000330102 0.000120213)
(0.000831093 -0.000479285 0.000113081)
(0.001128 5.66234e-05 0.000153483)
(0.00108899 -8.6444e-05 0.000145033)
(0.00105153 -0.000224012 0.000138241)
(0.00101763 -0.000361834 0.000131803)
(0.000985038 -0.000506285 0.00012444)
(0.00126993 2.171e-05 0.000162806)
(0.00123283 -0.000117677 0.000154591)
(0.00119694 -0.000254616 0.000148055)
(0.0011632 -0.000391739 0.000141736)
(0.00113044 -0.00053157 0.000133997)
(0.00140818 -1.19103e-05 0.000171839)
(0.00137115 -0.000149507 0.000163873)
(0.00133535 -0.000285276 0.000157849)
(0.00130202 -0.000421241 0.000152022)
(0.00126983 -0.000558645 0.000144299)
(0 0 0)
(0 0 0)
(0 0 0)
(0 0 0)
(0 0 0)
(0.000291216 0.000131721 3.69584e-05)
(0.000199726 -1.63003e-05 3.27534e-05)
(0.000156259 -6.43704e-05 2.7071e-05)
(0.000141976 -0.000107561 2.15044e-05)
(0.000164687 -0.000214705 1.75459e-05)
(0.000475056 0.000127925 6.3484e-05)
(0.000405799 -1.59694e-05 5.76911e-05)
(0.000352951 -0.000106948 5.13034e-05)
(0.000328042 -0.000193499 4.4968e-05)
(0.000324754 -0.00032565 3.9775e-05)
(0.000658105 0.000126068 8.4547e-05)
(0.000597787 -2.4968e-05 7.76572e-05)
(0.000548669 -0.000141058 7.11702e-05)
(0.000517886 -0.000255463 6.49171e-05)
(0.000500872 -0.000403715 5.91958e-05)
(0.000828448 0.000108179 0.000100512)
(0.000778011 -4.2513e-05 9.3149e-05)
(0.000733442 -0.000172455 8.68627e-05)
(0.000700118 -0.000302118 8.0944e-05)
(0.000673855 -0.000453973 7.49785e-05)
(0.000988286 8.05115e-05 0.000112663)
(0.000944663 -6.69675e-05 0.000105202)
(0.0009039 -0.000203066 9.91258e-05)
(0.000869566 -0.00033945 9.34105e-05)
(0.000838376 -0.000488982 8.71836e-05)
(0.00113787 4.72121e-05 0.000122365)
(0.00109849 -9.58502e-05 0.000114934)
(0.00106051 -0.000233645 0.000108974)
(0.00102606 -0.000371832 0.000103297)
(0.000992814 -0.000516779 9.67348e-05)
(0.00127962 1.2604e-05 0.000130733)
(0.0012424 -0.000127014 0.000123336)
(0.00120621 -0.000264406 0.0001175)
(0.00117211 -0.000402119 0.000111855)
(0.00113882 -0.000542601 0.000104936)
(0.00141807 -2.05482e-05 0.000138408)
(0.00138109 -0.000158587 0.000131178)
(0.00134517 -0.000295017 0.000125764)
(0.00131157 -0.000431763 0.000120531)
(0.00127892 -0.000569938 0.000113625)
(0 0 0)
(0 0 0)
(0 0 0)
(0 0 0)
(0 0 0)
(0.000294357 0.00013254 2.51318e-05)
(0.000201804 -1.7039e-05 2.24382e-05)
(0.000158007 -6.53444e-05 1.89583e-05)
(0.000143991 -0.000108692 1.55673e-05)
(0.000167584 -0.000217045 1.30436e-05)
(0.000480313 0.000126533 4.45718e-05)
(0.000410129 -1.8542e-05 4.06227e-05)
(0.000356691 -0.000109711 3.64029e-05)
(0.000331803 -0.000196319 3.22595e-05)
(0.000328886 -0.000329066 2.86875e-05)
(0.000664974 0.000122422 6.06418e-05)
(0.000603812 -2.93786e-05 5.57511e-05)
(0.000554007 -0.000145582 5.11987e-05)
(0.000522926 -0.000260012 4.68125e-05)
(0.00050587 -0.000408674 4.26111e-05)
(0.000836203 0.000102739 7.33543e-05)
(0.000785094 -4.83299e-05 6.78952e-05)
(0.000739874 -0.000178349 6.32333e-05)
(0.000706093 -0.000308089 5.88137e-05)
(0.00067947 -0.000460297 5.42127e-05)
(0.0009964 7.39876e-05 8.33305e-05)
(0.000952305 -7.36653e-05 7.75742e-05)
(0.000911007 -0.000209885 7.28613e-05)
(0.000876195 -0.000346456 6.83953e-05)
(0.000844504 -0.000496361 6.34507e-05)
(0.00114608 4.0235e-05 9.13696e-05)
(0.00110641 -0.000102978 8.54589e-05)
(0.00106804 -0.000241011 8.0701e-05)
(0.00103317 -0.00037953 7.61493e-05)
(0.000999422 -0.000524918 7.08687e-05)
(0.00128789 5.64965e-06 9.81919e-05)
(0.00125055 -0.000134247 9.21943e-05)
(0.00121411 -0.000272037 8.747e-05)
(0.00117968 -0.000410239 8.2897e-05)
(0.00114594 -0.000551258 7.73127e-05)
(0.00142662 -2.72776e-05 0.000104154)
(0.00138962 -0.000165737 9.82529e-05)
(0.00135356 -0.000302726 9.38528e-05)
(0.00131969 -0.000440109 8.95932e-05)
(0.00128661 -0.000578906 8.4017e-05)
(0 0 0)
(0 0 0)
(0 0 0)
(0 0 0)
(0 0 0)
(0.000296444 0.000133213 1.57172e-05)
(0.000203226 -1.74129e-05 1.4094e-05)
(0.000159228 -6.591e-05 1.20714e-05)
(0.000145365 -0.000109404 1.01051e-05)
(0.000169489 -0.000218609 8.58059e-06)
(0.000483823 0.000125947 2.84225e-05)
(0.000413087 -1.99873e-05 2.59443e-05)
(0.000359315 -0.000111376 2.336e-05)
(0.000334449 -0.000198125 2.08344e-05)
(0.000331749 -0.000331408 1.85713e-05)
(0.00066966 0.000120396 3.91964e-05)
(0.000608004 -3.20523e-05 3.6046e-05)
(0.000557808 -0.000148443 3.31394e-05)
(0.000526564 -0.000262999 3.03361e-05)
(0.000509477 -0.000412073 2.75669e-05)
(0.000841656 9.94176e-05 4.79495e-05)
(0.000790147 -5.20616e-05 4.4339e-05)
(0.000744539 -0.000182237 4.12529e-05)
(0.000710483 -0.00031212 3.83113e-05)
(0.000683626 -0.000464671 3.51877e-05)
(0.00100228 6.97642e-05 5.49659e-05)
(0.000957889 -7.81438e-05 5.10638e-05)
(0.000916254 -0.00021453 4.78535e-05)
(0.000881131 -0.000351297 4.47948e-05)
(0.000849105 -0.00050153 4.13781e-05)
(0.00115218 3.55446e-05 6.06726e-05)
(0.00111232 -0.00010788 5.65855e-05)
(0.00107368 -0.000246139 5.32835e-05)
(0.00103852 -0.000384935 5.01149e-05)
(0.00100441 -0.000530672 4.64363e-05)
(0.00129417 8.58502e-07 6.54752e-05)
(0.00125672 -0.00013931 6.1272e-05)
(0.00122008 -0.000277424 5.79616e-05)
(0.0011854 -0.000416002 5.47559e-05)
(0.00115131 -0.000557419 5.08583e-05)
(0.00143317 -3.20042e-05 6.9521e-05)
(0.00139613 -0.000170819 6.53678e-05)
(0.00135992 -0.000308239 6.2278e-05)
(0.00132582 -0.000446095 5.92834e-05)
(0.0012924 -0.000585344 5.539e-05)
(0 0 0)
(0 0 0)
(0 0 0)
(0 0 0)
(0 0 0)
(0.000297643 0.000133644 7.58129e-06)
(0.000204062 -1.75895e-05 6.81336e-06)
(0.000159956 -6.62103e-05 5.87801e-06)
(0.000146173 -0.000109805 4.9694e-06)
(0.000170586 -0.000219519 4.2455e-06)
(0.000485851 0.000125732 1.38529e-05)
(0.000414825 -2.0724e-05 1.26539e-05)
(0.00036088 -0.000112276 1.14221e-05)
(0.000336029 -0.000199147 1.02205e-05)
(0.000333441 -0.000332787 9.11811e-06)
(0.0006724 0.000119386 1.92472e-05)
(0.000610488 -3.34839e-05 1.77004e-05)
(0.00056009 -0.000150029 1.62813e-05)
(0.000528763 -0.000264704 1.49111e-05)
(0.000511655 -0.000414068 1.35337e-05)
(0.000844896 9.76436e-05 2.36944e-05)
(0.000793179 -5.41318e-05 2.18964e-05)
(0.000747368 -0.000184444 2.03587e-05)
(0.000713163 -0.000314452 1.88882e-05)
(0.000686173 -0.000467244 1.73101e-05)
(0.00100584 6.7419e-05 2.7303e-05)
(0.000961287 -8.0694e-05 2.53338e-05)
(0.000919467 -0.000217216 2.37088e-05)
(0.000884168 -0.00035413 2.21557e-05)
(0.000851946 -0.000504584 2.04133e-05)
(0.00115593 3.28737e-05 3.02558e-05)
(0.00111596 -0.000110722 2.81705e-05)
(0.00107716 -0.000249145 2.64817e-05)
(0.00104183 -0.000388126 2.48584e-05)
(0.0010075 -0.000534087 2.29741e-05)
(0.00129808 -1.9167e-06 3.27308e-05)
(0.00126056 -0.000142282 3.05695e-05)
(0.00122379 -0.00028061 2.88672e-05)
(0.00118894 -0.000419427 2.72184e-05)
(0.00115464 -0.000561092 2.52197e-05)
(0.00143728 -3.47818e-05 3.47687e-05)
(0.00140019 -0.000173836 3.26282e-05)
(0.00136388 -0.00031153 3.1038e-05)
(0.00132963 -0.00044968 2.94957e-05)
(0.00129598 -0.000589204 2.74989e-05)
(0 0 0)
(0 0 0)
(0 0 0)
(0 0 0)
(0 0 0)
(0.000298034 0.000133791 0)
(0.000204338 -1.76414e-05 0)
(0.000160198 -6.63048e-05 0)
(0.000146441 -0.000109935 0)
(0.000170945 -0.000219819 0)
(0.000486515 0.00012568 0)
(0.000415399 -2.09501e-05 0)
(0.000361401 -0.000112562 0)
(0.000336555 -0.000199479 0)
(0.000334001 -0.000333243 0)
(0.000673303 0.000119081 0)
(0.000611311 -3.39341e-05 0)
(0.000560852 -0.000150538 0)
(0.000529499 -0.000265259 0)
(0.000512383 -0.000414726 0)
(0.000845972 9.70878e-05 0)
(0.000794191 -5.47941e-05 0)
(0.000748316 -0.000185159 0)
(0.000714064 -0.000315215 0)
(0.000687031 -0.000468093 0)
(0.00100702 6.66696e-05 0)
(0.000962427 -8.15201e-05 0)
(0.000920548 -0.000218094 0)
(0.000885192 -0.000355062 0)
(0.000852906 -0.000505593 0)
(0.00115719 3.20094e-05 0)
(0.00111719 -0.000111651 0)
(0.00107834 -0.000250134 0)
(0.00104295 -0.000389181 0)
(0.00100855 -0.000535218 0)
(0.00129941 -2.82267e-06 0)
(0.00126186 -0.00014326 0)
(0.00122504 -0.000281663 0)
(0.00119014 -0.000420563 0)
(0.00115576 -0.00056231 0)
(0.00143868 -3.56957e-05 0)
(0.00140157 -0.000174834 0)
(0.00136522 -0.000312623 0)
(0.00133091 -0.000450872 0)
(0.00129719 -0.00059049 0)
)
;

boundaryField
{
    interface
    {
        type            calculated;
    }
    symmetry
    {
        type            symmetryPlane;
    }
    bottom
    {
        type            fixedValue;
        value           uniform (0 0 0);
    }
}


// ************************************************************************* //
