/*--------------------------------*- C++ -*----------------------------------*\
| =========                 |                                                 |
| \\      /  F ield         | foam-extend: Open Source CFD                    |
|  \\    /   O peration     | Version:     3.1                                |
|   \\  /    A nd           | Web:         http://www.extend-project.de       |
|    \\/     M anipulation  |                                                 |
\*---------------------------------------------------------------------------*/
FoamFile
{
    version     2.0;
    format      ascii;
    class       volSymmTensorField;
    location    "0.2";
    object      sigma;
}
// * * * * * * * * * * * * * * * * * * * * * * * * * * * * * * * * * * * * * //

dimensions      [1 -1 -2 0 0 0 0];

internalField   nonuniform List<symmTensor> 
256
(
(0.799536 21.7978 -0.633536 40.0334 15.6568 5.08407)
(-31.5818 18.8471 -1.43207 -25.7703 11.8666 -31.5092)
(-43.2089 14.8829 -1.41586 -55.2205 7.27903 -44.4766)
(-68.233 10.8166 -0.511638 -105.863 3.44428 -71.9661)
(-88.0751 5.46428 -0.45841 -67.0769 -0.942512 -80.2296)
(-70.0846 16.8573 -1.76205 -62.2037 0.255634 -67.7258)
(-62.6897 16.7939 -2.00153 -72.9975 1.89766 -64.3718)
(-54.7958 7.90295 -0.694155 -81.9647 3.01884 -60.8916)
(-68.4702 6.0466 0.118203 -51.8669 0.707306 -62.0457)
(-67.5494 12.7451 -0.567391 -59.6824 0.693577 -63.5405)
(-61.4283 13.089 -0.873612 -67.3403 0.968512 -62.0667)
(-57.833 6.19336 -0.279911 -74.5377 1.39245 -61.7298)
(-71.9418 3.73128 -0.0130483 -62.4933 -0.358871 -67.064)
(-68.0105 8.84976 -0.28802 -62.997 0.000693291 -64.9767)
(-62.3031 9.09802 -0.36944 -65.6198 0.343829 -62.6097)
(-58.2599 4.18479 -0.116589 -66.9859 0.67613 -60.6898)
(-69.9367 2.4106 0.068565 -65.1609 -0.296485 -66.451)
(-66.9713 5.55949 -0.0406457 -64.0169 -0.124138 -64.719)
(-62.5859 5.65567 -0.077418 -64.0868 0.00466981 -62.642)
(-59.2435 2.53915 -0.025905 -62.7348 0.125179 -60.5626)
(-69.1883 1.2154 0.0769243 -67.2453 -0.274797 -66.7273)
(-66.3343 3.01655 0.0656484 -64.6534 -0.204872 -64.7121)
(-62.855 3.04824 0.0594177 -63.1323 -0.191451 -62.7117)
(-59.9857 1.30402 0.0100125 -60.4406 -0.21429 -60.5753)
(-68.3646 0.426484 0.0839754 -67.5928 -0.172913 -66.55)
(-65.8391 1.30674 0.115896 -64.7776 -0.204964 -64.6335)
(-63.0361 1.31957 0.124698 -62.5496 -0.271306 -62.7285)
(-60.4786 0.523149 0.0255288 -59.529 -0.382522 -60.6578)
(-67.8413 0.0250242 0.104737 -67.0413 -0.102368 -66.2267)
(-65.819 0.38682 0.179835 -64.8714 -0.130756 -64.7264)
(-63.1571 0.368915 0.197883 -62.4239 -0.166979 -62.7683)
(-61.1142 0.0860988 0.0552101 -60.1433 -0.237158 -61.165)
(-9.74024 23.1072 -0.414245 21.1924 12.1978 -2.36212)
(-42.4666 20.6048 -1.043 -44.952 9.59464 -40.2108)
(-54.4527 16.7657 -1.01493 -73.6125 6.59911 -54.2486)
(-79.0517 12.5913 -0.264874 -123.656 4.02538 -82.3035)
(-77.2486 6.08292 -0.271348 -52.7575 4.06278 -66.0704)
(-60.6531 17.4702 -1.4532 -50.6236 4.16132 -55.929)
(-59.2773 17.121 -1.64809 -68.8287 4.68456 -59.0648)
(-53.4519 7.69124 -0.530677 -81.146 4.93507 -58.6785)
(-69.4833 5.50341 0.246762 -52.1443 1.57671 -62.5741)
(-66.7098 12.1952 -0.511203 -57.995 1.7992 -62.3106)
(-61.2325 12.5446 -0.848261 -65.8159 2.36749 -61.1232)
(-57.2846 5.88119 -0.340303 -72.6981 2.91981 -60.5288)
(-70.9439 3.4162 0.267332 -60.4965 0.278225 -65.7395)
(-66.9254 8.27399 -0.0173658 -60.89 0.664277 -63.5802)
(-61.9798 8.5278 -0.195865 -63.8902 1.11723 -61.7439)
(-57.7679 3.8579 -0.0454608 -65.0472 1.50888 -59.7312)
(-69.8925 2.09995 0.325751 -64.5012 -0.215347 -66.2493)
(-66.6378 5.09514 0.251248 -62.9321 0.0634291 -64.1893)
(-62.3326 5.2409 0.149699 -62.74 0.319117 -62.0151)
(-58.7426 2.32228 0.0961833 -61.0618 0.50234 -59.7052)
(-69.1253 1.0391 0.314025 -66.7597 -0.349606 -66.5305)
(-66.1831 2.7415 0.358055 -64.0053 -0.212922 -64.3998)
(-62.6087 2.82423 0.300255 -62.1979 -0.141049 -62.2116)
(-59.5838 1.20892 0.147005 -59.2994 -0.142371 -59.9157)
(-68.3592 0.337807 0.28384 -67.3259 -0.304404 -66.4311)
(-65.8439 1.17352 0.386077 -64.5271 -0.290603 -64.5273)
(-62.8958 1.22655 0.358103 -62.1315 -0.330125 -62.458)
(-60.2762 0.507124 0.159844 -59.0471 -0.440659 -60.3171)
(-67.8626 0.00113309 0.293284 -66.8948 -0.182194 -66.1967)
(-65.9029 0.337382 0.454299 -64.8253 -0.197661 -64.7886)
(-63.1081 0.33266 0.449307 -62.3112 -0.228201 -62.726)
(-61.0642 0.0821712 0.209442 -60.0531 -0.311918 -61.1229)
(-9.79962 23.7731 -0.230944 20.0659 8.5716 -0.308937)
(-43.8456 21.3432 -0.612277 -48.1357 6.9549 -40.1904)
(-56.3167 17.5656 -0.600321 -77.5143 5.17553 -55.6657)
(-81.6377 13.5653 -0.188272 -128.867 3.62122 -85.2821)
(-77.5261 6.57517 -0.238945 -53.9878 4.48711 -62.6867)
(-60.3636 18.1154 -0.895858 -51.3526 4.26037 -52.9527)
(-59.2469 17.5198 -0.981411 -70.3162 4.35366 -57.8773)
(-52.856 7.58095 -0.327325 -82.1107 4.28326 -58.1699)
(-69.9219 5.45849 0.0682629 -52.3722 2.40214 -60.6814)
(-66.4216 12.4092 -0.326815 -57.4387 2.40503 -59.9343)
(-60.8032 12.7714 -0.505795 -65.5702 2.68423 -59.3826)
(-57.0335 5.99035 -0.179062 -72.9392 2.9085 -59.518)
(-71.1919 3.37116 0.203683 -60.3138 0.984486 -64.8304)
(-66.8618 8.24328 0.0715542 -60.3631 1.16241 -62.2222)
(-61.7684 8.53675 -0.0613411 -63.377 1.44195 -60.4598)
(-57.4351 3.85596 -9.36227e-05 -64.5641 1.64416 -58.4656)
(-70.2548 1.99849 0.275056 -64.3941 0.22434 -66.0986)
(-66.6374 4.98782 0.31041 -62.4436 0.3968 -63.4036)
(-62.1799 5.17544 0.225156 -62.1751 0.568255 -61.0437)
(-58.4471 2.28975 0.117106 -60.442 0.658661 -58.5045)
(-69.4291 0.947434 0.294664 -66.6778 -0.120963 -66.6846)
(-66.2261 2.62217 0.419629 -63.6746 -0.0237518 -63.9968)
(-62.5063 2.74298 0.365458 -61.762 0.0238826 -61.5341)
(-59.3339 1.17096 0.169535 -58.766 -0.000701372 -58.9157)
(-68.609 0.260908 0.290193 -67.2966 -0.209382 -66.7325)
(-65.9142 1.07992 0.466168 -64.3584 -0.193986 -64.395)
(-62.8455 1.16247 0.436452 -61.8847 -0.228337 -62.072)
(-60.0851 0.48162 0.193173 -58.686 -0.328925 -59.6055)
(-68.1456 -0.0234043 0.319071 -66.9901 -0.14059 -66.7157)
(-66.0384 0.299795 0.551502 -64.8005 -0.153562 -64.9507)
(-63.1785 0.304793 0.544478 -62.2518 -0.18181 -62.7071)
(-61.0118 0.0702688 0.256599 -59.8782 -0.259159 -60.8154)
(-9.19862 24.2202 -0.119076 20.6258 6.02419 1.57128)
(-44.1315 21.7953 -0.345244 -49.0627 5.01593 -39.6798)
(-56.8786 18.036 -0.337961 -78.9406 3.9408 -56.0037)
(-82.8275 14.1071 -0.106765 -131.363 2.9872 -86.7543)
(-77.9288 6.82067 -0.133522 -55.1322 3.88795 -60.6451)
(-60.539 18.5922 -0.514391 -52.311 3.59684 -51.4072)
(-59.3139 17.9019 -0.545895 -71.4494 3.51804 -57.215)
(-52.4906 7.65731 -0.174554 -82.8179 3.3251 -57.8909)
(-70.182 5.59001 0.0401239 -52.9694 2.48741 -58.9334)
(-66.5463 12.714 -0.177454 -57.8165 2.35567 -58.3839)
(-60.6657 13.05 -0.258465 -65.9833 2.42563 -58.1929)
(-56.8238 6.103 -0.0784129 -73.4717 2.43472 -58.7057)
(-71.3901 3.41564 0.152784 -60.5195 1.33455 -63.6954)
(-66.9777 8.38244 0.100856 -60.4345 1.33648 -61.0618)
(-61.6717 8.69016 0.0276961 -63.4222 1.44435 -59.3394)
(-57.177 3.92001 0.0321519 -64.5906 1.4885 -57.3355)
(-70.4471 1.99171 0.219824 -64.4446 0.567074 -65.5616)
(-66.7317 5.02124 0.2857 -62.3692 0.612529 -62.637)
(-62.1109 5.22883 0.232144 -62.0538 0.678951 -60.1267)
(-58.2529 2.31345 0.114314 -60.2804 0.678765 -57.4103)
(-69.5931 0.914842 0.249434 -66.6584 0.135323 -66.5425)
(-66.3097 2.59558 0.384262 -63.5745 0.162467 -63.5593)
(-62.4589 2.73704 0.346514 -61.6074 0.165891 -60.8583)
(-59.1839 1.16796 0.157614 -58.556 0.108766 -57.9799)
(-68.7338 0.219832 0.261581 -67.2478 -0.0494414 -66.8378)
(-65.9924 1.03491 0.442097 -64.2852 -0.0588022 -64.2197)
(-62.8235 1.13418 0.41806 -61.7666 -0.0984751 -61.6485)
(-59.9793 0.470785 0.183206 -58.5052 -0.194767 -58.9011)
(-68.2778 -0.0371267 0.301963 -66.9822 -0.0753039 -67.0396)
(-66.1215 0.275985 0.534694 -64.7538 -0.0911141 -64.9995)
(-63.209 0.286094 0.525794 -62.1824 -0.11442 -62.5485)
(-60.9757 0.0631811 0.244894 -59.7383 -0.181081 -60.3874)
(-8.73658 24.5354 -0.060276 21.232 4.19245 2.78425)
(-44.2148 22.1051 -0.190579 -49.4382 3.55428 -39.3038)
(-57.138 18.3506 -0.185436 -79.6578 2.89336 -56.1232)
(-83.5124 14.4436 -0.0557121 -132.835 2.29415 -87.5828)
(-78.2608 6.96919 -0.0660649 -55.8765 3.04532 -59.4653)
(-60.6577 18.9255 -0.280969 -52.9284 2.77895 -50.4728)
(-59.3452 18.2006 -0.291163 -72.1632 2.65062 -56.7683)
(-52.2332 7.75075 -0.0851688 -83.2733 2.44369 -57.6255)
(-70.419 5.70525 0.0353018 -53.5696 2.15427 -57.7709)
(-66.6774 12.9652 -0.077814 -58.2904 1.98569 -57.3688)
(-60.6102 13.2827 -0.113803 -66.4415 1.9511 -57.3868)
(-56.6723 6.19791 -0.0237004 -73.924 1.86569 -58.0851)
(-71.5916 3.47668 0.114586 -60.9207 1.32696 -62.8219)
(-67.0872 8.53552 0.105902 -60.7011 1.24538 -60.1868)
(-61.6255 8.84343 0.0677755 -63.6507 1.24902 -58.4901)
(-57.0121 3.98409 0.0452481 -64.7805 1.20583 -56.4721)
(-70.6086 2.0139 0.166805 -64.6589 0.698531 -65.0375)
(-66.8176 5.09286 0.236952 -62.4819 0.663217 -61.9913)
(-62.0742 5.3064 0.20516 -62.1229 0.657877 -59.3774)
(-58.1184 2.3467 0.0986332 -60.3 0.606162 -56.5269)
(-69.7248 0.910529 0.19486 -66.7524 0.293492 -66.3263)
(-66.3772 2.61038 0.315048 -63.5991 0.266961 -63.1475)
(-62.432 2.75957 0.289769 -61.593 0.236285 -60.2736)
(-59.0806 1.17698 0.129806 -58.4907 0.162644 -57.1988)
(-68.8285 0.20272 0.212643 -67.258 0.0792769 -66.8414)
(-66.0472 1.02222 0.370081 -64.2686 0.0449098 -64.0104)
(-62.8083 1.12774 0.350838 -61.7209 -0.00125449 -61.2451)
(-59.9075 0.467825 0.151531 -58.413 -0.0890277 -58.2808)
(-68.3717 -0.0422787 0.254296 -66.9886 -0.0122715 -67.2208)
(-66.1658 0.265981 0.455192 -64.7181 -0.0354178 -64.9455)
(-63.2158 0.276591 0.443875 -62.1299 -0.0574438 -62.3136)
(-60.9411 0.0594075 0.203346 -59.6368 -0.1126 -59.9359)
(-8.4174 24.7528 -0.0291037 21.7044 2.77505 3.53907)
(-44.2475 22.3209 -0.10215 -49.6209 2.37974 -39.0703)
(-57.2839 18.5672 -0.0986306 -80.073 1.97991 -56.1776)
(-83.9451 14.6639 -0.0272371 -133.774 1.60896 -88.0801)
(-78.4838 7.06493 -0.0280021 -56.3258 2.16057 -58.7813)
(-60.7272 19.1521 -0.145732 -53.3049 1.95583 -49.9071)
(-59.3583 18.4126 -0.148227 -72.6111 1.83778 -56.4687)
(-52.0626 7.82498 -0.0377558 -83.5751 1.66794 -57.4012)
(-70.5772 5.78658 0.0317257 -54.0091 1.62228 -57.0296)
(-66.7671 13.1437 -0.0239404 -58.6649 1.4729 -56.7191)
(-60.5782 13.4512 -0.0399307 -66.796 1.40709 -56.8482)
(-56.5683 6.2683 0.000326034 -74.2487 1.30501 -57.6314)
(-71.7371 3.52626 0.082675 -61.2904 1.08065 -62.2178)
(-67.1659 8.65519 0.0909732 -60.9742 0.983593 -59.5825)
(-61.5987 8.96098 0.071408 -63.8843 0.945352 -57.8919)
(-56.9039 4.03286 0.0421713 -64.9671 0.875789 -55.8504)
(-70.7258 2.03789 0.118285 -64.9026 0.634567 -64.6292)
(-66.8806 5.1583 0.176669 -62.6441 0.572007 -61.5103)
(-62.0521 5.37297 0.158296 -62.2432 0.536254 -58.8228)
(-58.029 2.37447 0.0750428 -60.3719 0.471459 -55.8765)
(-69.8176 0.915216 0.13961 -66.8829 0.321189 -66.1178)
(-66.4251 2.63435 0.231639 -63.6722 0.273473 -62.8136)
(-62.4146 2.78575 0.215219 -61.6317 0.230639 -59.8189)
(-59.0115 1.18716 0.095393 -58.4856 0.161039 -56.6078)
(-68.893 0.196639 0.155848 -67.2971 0.133498 -66.7889)
(-66.0824 1.02259 0.274963 -64.281 0.0902265 -63.8102)
(-62.7957 1.12966 0.260357 -61.7095 0.0460194 -60.9056)
(-59.8592 0.467652 0.111079 -58.3674 -0.0249591 -57.7908)
(-68.4224 -0.0444235 0.191372 -66.9939 0.0228715 -67.2731)
(-66.1828 0.262044 0.342527 -64.6922 -0.00181105 -64.8307)
(-63.209 0.271853 0.330827 -62.0926 -0.0209915 -62.0663)
(-60.9117 0.0572557 0.149405 -59.5687 -0.0627104 -59.5384)
(-8.21756 24.8909 -0.012871 22.0192 1.58836 3.97914)
(-44.2623 22.4598 -0.0498041 -49.7137 1.37096 -38.9377)
(-57.368 18.7061 -0.0477647 -80.3136 1.15466 -56.2055)
(-84.2094 14.8014 -0.0121007 -134.35 0.950259 -88.3708)
(-78.6226 7.12393 -0.0100026 -56.5836 1.28573 -58.4092)
(-60.7662 19.2942 -0.0681541 -53.5216 1.15852 -49.5846)
(-59.3641 18.5479 -0.0683799 -72.8779 1.07937 -56.2843)
(-51.9579 7.87427 -0.0148072 -83.7627 0.970496 -57.2416)
(-70.6741 5.83751 0.0220314 -54.2889 0.999011 -56.5985)
(-66.8201 13.2562 -0.00233141 -58.9097 0.899374 -56.3333)
(-60.5588 13.5588 -0.00916169 -67.0274 0.845431 -56.5164)
(-56.5044 6.31389 0.00617309 -74.4561 0.770125 -57.3355)
(-71.8295 3.55887 0.0504211 -61.5538 0.695306 -61.8489)
(-67.214 8.73344 0.0607287 -61.1757 0.623277 -59.2068)
(-61.5826 9.0375 0.0513283 -64.0561 0.585098 -57.5128)
(-56.8381 4.06455 0.0288001 -65.1011 0.529135 -55.4492)
(-70.8014 2.05521 0.0708992 -65.0952 0.432991 -64.3625)
(-66.9203 5.20377 0.108921 -62.7797 0.381289 -61.1967)
(-62.039 5.41826 0.0992678 -62.3464 0.347188 -58.4604)
(-57.9746 2.39311 0.0466224 -60.4377 0.297464 -55.452)
(-69.8771 0.920525 0.0839319 -66.996 0.238965 -65.9653)
(-66.4554 2.6537 0.14125 -63.7429 0.198515 -62.5828)
(-62.404 2.80537 0.131843 -61.676 0.163931 -59.5112)
(-58.9689 1.19461 0.0580043 -58.4973 0.115207 -56.2143)
(-68.9341 0.194834 0.0948357 -67.339 0.113823 -66.7295)
(-66.103 1.02583 0.168507 -64.3001 0.0795194 -63.6558)
(-62.7866 1.13278 0.159232 -61.7109 0.0477851 -60.662)
(-59.8289 0.467948 0.0673589 -58.3454 0.00156159 -57.4538)
(-68.4496 -0.0453943 0.118494 -67.0015 0.0280089 -67.2655)
(-66.1877 0.260452 0.211749 -64.677 0.00934188 -64.7157)
(-63.1996 0.269291 0.202999 -62.0695 -0.0039735 -61.8665)
(-60.8901 0.0559315 0.0908284 -59.5271 -0.0301789 -59.246)
(-8.12079 24.9581 -0.00364112 22.1764 0.517689 4.18287)
(-44.2685 22.5282 -0.0149022 -49.7536 0.448118 -38.8779)
(-57.4073 18.7744 -0.0142356 -80.4258 0.379478 -56.2179)
(-84.3365 14.868 -0.00342908 -134.627 0.313958 -88.5068)
(-78.6889 7.15234 -0.00234909 -56.7012 0.426462 -58.2453)
(-60.7839 19.363 -0.0198111 -53.621 0.383446 -49.438)
(-59.3665 18.6138 -0.0197244 -73.0034 0.355865 -56.1964)
(-51.9081 7.89867 -0.003817 -83.8533 0.318567 -57.1595)
(-70.7196 5.86203 0.00781044 -54.4236 0.336617 -56.4007)
(-66.8446 13.3105 0.00110781 -59.0291 0.301877 -56.1536)
(-60.5494 13.611 -0.000800506 -67.1406 0.281683 -56.3581)
(-56.4744 6.3362 0.00291276 -74.5571 0.254461 -57.1898)
(-71.8736 3.57482 0.0169468 -61.6876 0.238996 -61.6749)
(-67.2366 8.77165 0.0212293 -61.2797 0.212853 -59.0273)
(-61.5749 9.07485 0.0184183 -64.1447 0.197719 -57.3293)
(-56.8071 4.08003 0.0100986 -65.1695 0.176836 -55.2529)
(-70.8379 2.06398 0.0236247 -65.198 0.152778 -64.2323)
(-66.9393 5.22652 0.0367705 -62.8537 0.133285 -61.0428)
(-62.0329 5.44073 0.0337444 -62.4031 0.11985 -58.2819)
(-57.9489 2.4023 0.0157552 -60.4743 0.101517 -55.2429)
(-69.906 0.923579 0.0279954 -67.0591 0.0874333 -65.8862)
(-66.4699 2.66392 0.0474208 -63.7839 0.071985 -62.4656)
(-62.3989 2.81544 0.0443383 -61.7026 0.0589475 -59.3563)
(-58.9487 1.19838 0.0194199 -58.5067 0.0415398 -56.0182)
(-68.9541 0.194414 0.0318098 -67.3644 0.0437747 -66.6926)
(-66.1125 1.02802 0.0566934 -64.3126 0.0308949 -63.5724)
(-62.7819 1.13462 0.0535046 -61.714 0.0193863 -60.5351)
(-59.8142 0.468134 0.0225367 -58.3365 0.00333707 -57.2823)
(-68.461 -0.0458369 0.0400988 -67.0064 0.0118094 -67.2481)
(-66.1885 0.259812 0.0715688 -64.6703 0.0049097 -64.6462)
(-63.1938 0.268039 0.0683475 -62.0588 0.000125654 -61.7561)
(-60.8788 0.0552573 0.0304614 -59.5077 -0.00885241 -59.0918)
)
;

boundaryField
{
    interface
    {
        type            calculated;
        value           nonuniform List<symmTensor> 
192
(
(-72.8508 -0.00794441 0.294543 23.8568 17.1669 -31.8151)
(-71.7617 0.00410182 0.371701 -56.9622 -1.25298 -70.7783)
(-71.415 -0.0271729 0.353973 -51.0308 0.768263 -63.2041)
(-70.7352 -0.0458338 0.319118 -61.6327 -0.553605 -66.3876)
(-70.0804 -0.0592164 0.276606 -65.8756 -0.406925 -66.7094)
(-69.436 -0.0665345 0.233153 -68.4944 -0.332908 -67.1605)
(-68.8463 -0.0653329 0.192029 -68.8755 -0.168633 -67.0881)
(-68.3471 -0.0477211 0.157964 -67.8627 -0.0884924 -66.6234)
(-73.7065 -0.025351 0.180959 12.0687 13.311 -32.2067)
(-72.7094 -0.0268395 0.234327 -50.3291 4.2524 -64.21)
(-72.1663 -0.0610535 0.233163 -51.6948 1.58528 -63.9615)
(-71.4002 -0.0838817 0.218234 -60.753 0.10142 -66.2118)
(-70.6208 -0.0983582 0.197411 -65.6771 -0.363631 -66.9537)
(-69.8567 -0.105084 0.174676 -68.3223 -0.440419 -67.2823)
(-69.1498 -0.101735 0.152545 -68.7677 -0.327289 -67.1385)
(-68.5408 -0.0805059 0.134256 -67.7834 -0.175868 -66.6551)
(-74.2881 -0.0319011 0.117757 11.574 9.29594 -29.8933)
(-73.2421 -0.0406659 0.156153 -52.136 4.76689 -60.9709)
(-72.6441 -0.0812924 0.160643 -52.4251 2.51099 -62.4119)
(-71.8152 -0.107613 0.155445 -60.8508 0.934552 -65.7221)
(-70.9649 -0.123531 0.145525 -65.6969 0.141743 -67.1287)
(-70.1297 -0.130272 0.133468 -68.2843 -0.184398 -67.7027)
(-69.3529 -0.126 0.121109 -68.7265 -0.231325 -67.6321)
(-68.6753 -0.103299 0.110961 -67.8056 -0.136156 -67.2613)
(-74.6925 -0.0353317 0.0810144 12.194 6.48922 -28.234)
(-73.6111 -0.0482914 0.108899 -53.4151 4.13812 -58.7138)
(-72.9799 -0.0938845 0.114537 -53.2849 2.63849 -60.6648)
(-72.1087 -0.123336 0.113443 -61.236 1.37887 -64.697)
(-71.2105 -0.140781 0.108845 -65.8618 0.558029 -66.7612)
(-70.3265 -0.147931 0.102337 -68.3246 0.117979 -67.7422)
(-69.5015 -0.143346 0.0951956 -68.6969 -0.0509349 -67.9081)
(-68.7762 -0.119934 0.0893574 -67.7891 -0.0660517 -67.7168)
(-74.9721 -0.0374167 0.05573 12.8036 4.49546 -27.2324)
(-73.8669 -0.0528947 0.0755458 -54.1744 3.2448 -57.3623)
(-73.2138 -0.101867 0.0806784 -53.9809 2.29665 -59.4374)
(-72.3141 -0.133725 0.0812547 -61.7324 1.40501 -63.8255)
(-71.3841 -0.152547 0.0793642 -66.1465 0.732395 -66.3032)
(-70.4669 -0.160256 0.0759818 -68.4597 0.309634 -67.6281)
(-69.6089 -0.155687 0.0719385 -68.7239 0.0965344 -68.0314)
(-68.8502 -0.131968 0.06864 -67.7964 0.00335466 -68.0079)
(-75.1608 -0.038725 0.0365735 13.274 2.96728 -26.6374)
(-74.04 -0.0557212 0.0498309 -54.6196 2.30404 -56.5753)
(-73.3726 -0.106892 0.0537771 -54.4658 1.73377 -58.6513)
(-72.4539 -0.140436 0.054795 -62.158 1.15512 -63.2101)
(-71.5029 -0.160326 0.0541845 -66.4387 0.679343 -65.9244)
(-70.5636 -0.168559 0.0525283 -68.6225 0.349978 -67.4793)
(-69.6835 -0.164127 0.0503349 -68.7807 0.158005 -68.0599)
(-68.9025 -0.140287 0.0485503 -67.8147 0.0400222 -68.1472)
(-75.2781 -0.0395312 0.0207544 13.5882 1.69586 -26.303)
(-74.1476 -0.0573748 0.0282976 -54.8702 1.372 -56.1472)
(-73.4716 -0.109845 0.0307951 -54.7687 1.06914 -58.1975)
(-72.5412 -0.144455 0.0316427 -62.4531 0.746308 -62.8346)
(-71.5773 -0.165062 0.0315494 -66.6618 0.467392 -65.6737)
(-70.6244 -0.173683 0.0308374 -68.758 0.263148 -67.362)
(-69.7307 -0.169389 0.0297764 -68.8368 0.133817 -68.0511)
(-68.9358 -0.145507 0.0289175 -67.8359 0.0410499 -68.1987)
(-75.3335 -0.0400481 0.00670645 13.7459 0.552378 -26.1512)
(-74.1974 -0.0581726 0.00911858 -54.9823 0.455238 -55.9578)
(-73.518 -0.111146 0.00999012 -54.913 0.360479 -57.9902)
(-72.5825 -0.146296 0.0103231 -62.6014 0.256949 -62.6582)
(-71.6127 -0.167274 0.0103421 -66.7793 0.165423 -65.551)
(-70.6536 -0.176106 0.0101553 -68.8324 0.0966259 -67.2995)
(-69.7534 -0.171898 0.00984529 -68.8699 0.0513427 -68.0387)
(-68.9521 -0.148033 0.00959606 -67.8492 0.016634 -68.2113)
(-43.4877 20.8918 -0.580543 3.09613 0.00585234 -68.2218)
(-82.32 5.18302 -0.625033 -65.2878 0.0271832 -67.3267)
(-72.2244 6.47965 -0.545978 -56.0066 0.0194096 -67.3425)
(-72.4675 3.9889 -0.439268 -63.6593 0.0143324 -67.1523)
(-70.4175 2.63551 -0.331146 -65.9238 0.00669601 -67.0159)
(-69.3106 1.32668 -0.225796 -67.5413 -0.000392288 -66.8834)
(-68.4753 0.466865 -0.125779 -67.7976 -0.00252933 -66.7743)
(-68.1158 0.0344574 -0.0291997 -67.3798 0.0111929 -66.71)
(-50.1736 17.5562 -0.52644 -37.4129 -0.01104 -65.5636)
(-70.8726 16.6101 -0.576303 -65.6818 -0.0157817 -65.1341)
(-69.2194 13.3485 -0.494094 -61.8572 -0.0275738 -65.0807)
(-68.5198 9.33846 -0.390876 -64.1647 -0.0361889 -64.9778)
(-67.2809 5.91761 -0.287022 -64.7412 -0.0442132 -64.901)
(-66.4828 3.20143 -0.18753 -65.062 -0.0511709 -64.8365)
(-65.9316 1.37996 -0.0947439 -64.986 -0.0543118 -64.7892)
(-65.8159 0.415313 -0.00943902 -64.9167 -0.0448168 -64.7693)
(-51.6972 13.5143 -0.518608 -58.0174 -0.0175279 -63.2677)
(-62.1202 16.6559 -0.57144 -74.0514 -0.0412972 -63.0288)
(-61.967 13.7138 -0.487393 -69.1263 -0.0651701 -62.9859)
(-62.5576 9.60784 -0.381961 -66.9672 -0.0813898 -62.9339)
(-62.8063 5.99095 -0.2761 -65.0738 -0.0935322 -62.9027)
(-63.0296 3.20537 -0.1755 -63.7568 -0.103292 -62.8877)
(-63.1813 1.37019 -0.0826466 -62.8454 -0.110274 -62.8857)
(-63.2867 0.389603 0.00114242 -62.5487 -0.108204 -62.8928)
(-57.3097 9.67705 -0.551742 -89.7573 -0.0287416 -60.7759)
(-54.478 7.97813 -0.605585 -82.0366 -0.0778609 -60.8196)
(-57.206 6.55533 -0.514898 -75.299 -0.109274 -60.8112)
(-58.4624 4.48101 -0.40031 -68.3852 -0.130329 -60.8445)
(-59.6154 2.71696 -0.284938 -63.9883 -0.144872 -60.8923)
(-60.3725 1.36761 -0.175463 -61.3498 -0.15678 -60.9539)
(-60.7977 0.521876 -0.0746178 -60.0139 -0.167983 -61.0194)
(-61.1115 0.0827666 0.0168208 -60.1202 -0.175339 -61.0688)
(-56.5024 0.0106628 0.267302 -121.662 1.91667 -72.5678)
(-56.8777 0.0467814 0.290191 -89.7378 3.38573 -63.3993)
(-57.3635 0.0506118 0.236179 -77.7102 1.58868 -62.1737)
(-57.9734 0.0583088 0.171542 -67.4973 0.830156 -60.4981)
(-58.6001 0.0710968 0.106944 -61.6407 0.1788 -59.8435)
(-59.207 0.090408 0.0472448 -58.7388 -0.238735 -59.6691)
(-59.7592 0.121367 -0.00419308 -57.9232 -0.455169 -59.833)
(-60.1923 0.172791 -0.042575 -58.9457 -0.285627 -60.4002)
(-55.621 0.000818906 0.150485 -131.886 2.95668 -75.5509)
(-56.1622 0.0331 0.162365 -89.5553 4.95076 -62.0164)
(-56.7387 0.0282328 0.129356 -75.837 3.13492 -60.9224)
(-57.4468 0.0292914 0.0906661 -65.5258 1.65688 -59.5395)
(-58.1811 0.0392628 0.0525259 -60.0156 0.560383 -59.0468)
(-58.8959 0.0596046 0.0174446 -57.6655 -0.169695 -59.0779)
(-59.5459 0.0962616 -0.0128777 -57.445 -0.52076 -59.4929)
(-60.0532 0.159028 -0.0375271 -58.808 -0.374238 -60.3127)
(-55.1215 -0.00401755 0.0925212 -135.673 2.95345 -76.9846)
(-55.7212 0.0257646 0.0991735 -90.175 4.17282 -61.8107)
(-56.3449 0.0170049 0.0778129 -76.1225 2.96532 -60.0156)
(-57.1137 0.0155042 0.052652 -65.0738 1.69484 -58.2676)
(-57.9107 0.0246071 0.0278832 -59.4272 0.667485 -57.7575)
(-58.6872 0.0460346 0.00506437 -57.1582 -0.0391485 -57.9625)
(-59.3934 0.0859061 -0.0149703 -57.0866 -0.401716 -58.6581)
(-59.9452 0.153886 -0.032653 -58.5574 -0.316802 -59.8263)
(-54.7889 -0.00654603 0.061341 -137.659 2.56516 -77.823)
(-55.4177 0.0215497 0.0650944 -90.6614 3.1702 -61.7437)
(-56.0714 0.0103523 0.0503718 -76.6531 2.39318 -59.2891)
(-56.8806 0.00753715 0.0329692 -65.127 1.47104 -57.1461)
(-57.7197 0.0163684 0.0157619 -59.2684 0.648578 -56.5833)
(-58.5377 0.0386413 -0.000177203 -56.9395 0.058016 -56.9044)
(-59.2818 0.0805267 -0.0143944 -56.8829 -0.262248 -57.8113)
(-59.8646 0.151592 -0.0275541 -58.3561 -0.230998 -59.2266)
(-54.5651 -0.0080721 0.0408603 -138.894 2.02045 -78.2841)
(-55.2117 0.0190297 0.0428614 -91.0118 2.29832 -61.6067)
(-55.8847 0.00632184 0.0326643 -77.0734 1.78868 -58.7159)
(-56.7201 0.00277351 0.0206343 -65.3137 1.15549 -56.2803)
(-57.5873 0.0115634 0.0086963 -59.2778 0.558344 -55.6411)
(-58.433 0.0344609 -0.00242781 -56.8579 0.109289 -56.0305)
(-59.2027 0.0776649 -0.012467 -56.7682 -0.147751 -57.0795)
(-59.8069 0.150749 -0.022008 -58.2146 -0.153253 -58.6471)
(-54.4172 -0.00901687 0.0261188 -139.707 1.4346 -78.5421)
(-55.0751 0.0175309 0.0271115 -91.2623 1.55497 -61.4503)
(-55.7606 0.00391454 0.0203801 -77.3676 1.23086 -58.2819)
(-56.6128 -4.80167e-05 0.0124529 -65.4852 0.8219 -55.6505)
(-57.4984 0.00877519 0.00456198 -59.3338 0.42464 -54.9487)
(-58.3624 0.0321148 -0.00282595 -56.8354 0.115347 -55.3754)
(-59.1489 0.0761889 -0.00953858 -56.7041 -0.0704982 -56.5129)
(-59.7675 0.150621 -0.0159966 -58.1227 -0.0927826 -58.1657)
(-54.3266 -0.00959947 0.0145445 -140.214 0.852156 -78.6833)
(-54.9915 0.0166794 0.0148922 -91.4253 0.899897 -61.324)
(-55.6845 0.00257079 0.0110863 -77.5533 0.719262 -57.9912)
(-56.5469 -0.00162212 0.0065879 -65.6042 0.490332 -55.2404)
(-57.4435 0.0072418 0.0020875 -59.385 0.264545 -54.4967)
(-58.3186 0.0308691 -0.00213932 -56.8331 0.084801 -54.942)
(-59.1155 0.0754938 -0.00597705 -56.6695 -0.0272391 -56.1291)
(-59.7427 0.150749 -0.00964331 -58.0685 -0.048696 -57.8245)
(-54.2842 -0.0100258 0.00465066 -140.461 0.282172 -78.7471)
(-54.9534 0.0162479 0.00468638 -91.5068 0.294627 -61.2564)
(-55.6493 0.0020278 0.00347159 -77.6439 0.23656 -57.8466)
(-56.5162 -0.00229164 0.00202344 -65.6643 0.162901 -55.0391)
(-57.4179 0.00658547 0.000565567 -59.4136 0.0897717 -54.2744)
(-58.2982 0.0303663 -0.000805877 -56.8351 0.0309143 -54.727)
(-59.0996 0.0753113 -0.00204339 -56.6543 -0.00651571 -55.9357)
(-59.73 0.150885 -0.00320037 -58.0432 -0.0151218 -57.6474)
(-67.9262 -0.00763926 0.126754 -67.0025 -0.110942 -66.284)
(-68.051 0.00757397 0.320302 -67.0238 -0.0976689 -66.4079)
(-68.2711 0.0176115 0.352041 -67.0262 -0.0833652 -66.9685)
(-68.4066 0.0246211 0.337078 -67.0268 -0.0688553 -67.3884)
(-68.4967 0.0293516 0.28707 -67.0281 -0.0539479 -67.6358)
(-68.5433 0.0324091 0.218326 -67.0301 -0.0387131 -67.7233)
(-68.5647 0.0342147 0.13623 -67.0322 -0.0233594 -67.7278)
(-68.5729 0.0349919 0.0462889 -67.0343 -0.00783954 -67.7132)
(-65.8986 0.00281222 0.228311 -64.8411 -0.0783699 -64.76)
(-65.9806 0.016797 0.515707 -64.8041 -0.0751602 -64.8807)
(-66.116 0.0232619 0.618395 -64.7691 -0.0656527 -65.1647)
(-66.2117 0.026816 0.600655 -64.7405 -0.0545295 -65.327)
(-66.2652 0.028789 0.513141 -64.7196 -0.0428103 -65.3517)
(-66.2875 0.0298494 0.387809 -64.7055 -0.0307321 -65.2803)
(-66.2944 0.030385 0.240616 -64.6968 -0.0185177 -65.184)
(-66.2958 0.0306207 0.0814947 -64.6931 -0.00620046 -65.1206)
(-63.3466 -0.0105347 0.249087 -62.7083 -0.0507871 -62.9496)
(-63.3012 -0.00118929 0.520816 -62.6178 -0.0590311 -62.9807)
(-63.3979 0.00191408 0.623066 -62.5516 -0.0541003 -63.1147)
(-63.4638 0.00291606 0.600543 -62.5002 -0.0454278 -63.091)
(-63.4958 0.00299123 0.506945 -62.4626 -0.0357697 -62.9442)
(-63.5048 0.00269852 0.37825 -62.4363 -0.0256917 -62.7451)
(-63.5039 0.002332 0.232425 -62.4197 -0.0155023 -62.5673)
(-63.502 0.00199084 0.0783313 -62.4122 -0.00520478 -62.465)
(-61.4173 -0.0620769 0.0808716 -60.687 -0.0359039 -61.469)
(-61.336 -0.0627146 0.255505 -60.5603 -0.049478 -61.4701)
(-61.3848 -0.063587 0.309793 -60.473 -0.0465405 -61.4011)
(-61.433 -0.0649945 0.294402 -60.4057 -0.0391224 -61.1591)
(-61.4579 -0.0665723 0.244186 -60.3559 -0.0307395 -60.8262)
(-61.4652 -0.0680158 0.179482 -60.3208 -0.0220541 -60.4942)
(-61.4642 -0.0690933 0.109239 -60.2985 -0.0134126 -60.234)
(-61.4631 -0.069641 0.036674 -60.2897 -0.00457006 -60.0935)
)
;
    }
    symmetry
    {
        type            symmetryPlane;
    }
    bottom
    {
        type            calculated;
        value           nonuniform List<symmTensor> 
32
(
(5.57581 32.7274 0 8.36372 32.8474 5.57581)
(-4.4307 32.0838 0 -6.64606 18.6181 -4.4307)
(-4.63553 32.4518 0 -6.9533 11.4932 -4.63553)
(-4.19578 32.8846 0 -6.29367 7.45736 -4.19578)
(-3.83684 33.2305 0 -5.75526 4.92515 -3.83684)
(-3.58333 33.4807 0 -5.37499 3.15443 -3.58333)
(-3.42274 33.6433 0 -5.13411 1.77163 -3.42274)
(-3.34452 33.723 0 -5.01678 0.5725 -3.34452)
(-27.419 17.6797 0 -41.1285 19.9678 -27.419)
(-36.8683 18.8243 0 -55.3024 12.1515 -36.8683)
(-37.9512 19.2404 0 -56.9269 8.06281 -37.9512)
(-38.2287 19.5119 0 -57.343 5.54896 -38.2287)
(-38.3479 19.7203 0 -57.5219 3.82172 -38.3479)
(-38.4124 19.8786 0 -57.6185 2.51473 -38.4124)
(-38.4483 19.9861 0 -57.6724 1.43444 -38.4483)
(-38.4647 20.0404 0 -57.6971 0.466775 -38.4647)
(-41.3032 10.6753 0 -61.9548 10.0555 -41.3032)
(-50.0421 13.0677 0 -75.0631 6.57969 -50.0421)
(-51.6207 13.8608 0 -77.4311 4.91262 -51.6207)
(-52.1973 14.2348 0 -78.296 3.73598 -52.1973)
(-52.5008 14.4767 0 -78.7512 2.76132 -52.5008)
(-52.6823 14.6489 0 -79.0234 1.90096 -52.6823)
(-52.7893 14.7631 0 -79.184 1.11292 -52.7893)
(-52.8397 14.8203 0 -79.2595 0.36642 -52.8397)
(-65.8402 8.44527 0 -98.7604 -1.02639 -65.8402)
(-74.0514 12.559 0 -111.077 0.890074 -74.0514)
(-76.4702 14.1966 0 -114.705 1.85235 -76.4702)
(-77.6569 14.955 0 -116.485 2.01495 -77.6569)
(-78.3581 15.3966 0 -117.537 1.75721 -78.3581)
(-78.8038 15.6824 0 -118.206 1.31424 -78.8038)
(-79.0762 15.861 0 -118.614 0.801776 -79.0762)
(-79.2071 15.9475 0 -118.811 0.268537 -79.2071)
)
;
    }
}


// ************************************************************************* //
