/*--------------------------------*- C++ -*----------------------------------*\
| =========                 |                                                 |
| \\      /  F ield         | foam-extend: Open Source CFD                    |
|  \\    /   O peration     | Version:     3.1                                |
|   \\  /    A nd           | Web:         http://www.extend-project.de       |
|    \\/     M anipulation  |                                                 |
\*---------------------------------------------------------------------------*/
FoamFile
{
    version     2.0;
    format      ascii;
    class       volScalarField;
    location    "0.2";
    object      sigmaEq;
}
// * * * * * * * * * * * * * * * * * * * * * * * * * * * * * * * * * * * * * //

dimensions      [1 -1 -2 0 0 0 0];

internalField   nonuniform List<scalar> 
256
(
59.5953
39.0845
30.9859
40.949
20.751
30.1845
30.9947
28.7376
17.9305
23.1548
23.466
18.7153
10.4467
15.9478
16.0986
10.7142
6.00185
9.99611
9.90704
5.35863
3.11865
5.49252
5.30407
2.35072
1.77326
2.56702
2.38179
1.53817
1.42182
1.28592
1.00655
1.09299
53.2141
39.6229
36.7159
48.7804
24.7335
32.3951
32.3524
30.0152
18.0855
22.6634
22.6406
18.1049
10.8314
15.3013
15.0395
9.69733
6.03189
9.42003
9.11976
4.58656
3.17687
5.20645
4.94188
2.18987
1.91178
2.56237
2.38037
1.73015
1.56758
1.50999
1.25317
1.23647
51.1334
39.5004
38.3491
51.6065
24.804
33.3272
33.4686
30.9256
18.3826
23.3269
23.3072
18.7822
11.2573
15.5413
15.208
9.86171
6.29473
9.48052
9.09735
4.57602
3.24778
5.19127
4.87337
2.11177
1.83555
2.57459
2.35799
1.62753
1.44696
1.6192
1.38252
1.23077
50.5277
39.5858
39.1104
52.9562
24.6854
33.9495
34.3016
31.5325
18.4796
23.9427
24.0063
19.4655
11.5821
15.9777
15.6654
10.3228
6.60177
9.74392
9.34847
4.89967
3.42325
5.31567
4.98409
2.30009
1.8284
2.61545
2.38082
1.62038
1.37923
1.64494
1.38792
1.19976
50.4408
39.7614
39.5787
53.7603
24.6403
34.3901
34.9154
31.9898
18.5024
24.3938
24.5751
20.0233
11.7805
16.358
16.112
10.8084
6.85598
10.0232
9.65944
5.33072
3.62534
5.4891
5.17852
2.65801
1.89001
2.6909
2.47201
1.78823
1.35847
1.62965
1.35791
1.25426
50.5107
39.9397
39.8972
54.2848
24.6241
34.6959
35.349
32.3319
18.4914
24.6977
24.9903
20.443
11.8799
16.63
16.463
11.2124
7.02032
10.2438
9.9311
5.72396
3.78472
5.64662
5.3757
3.02051
1.96434
2.77541
2.59567
2.02804
1.35539
1.6101
1.35189
1.39062
50.6011
40.0758
40.1034
54.614
24.6177
34.8905
35.6274
32.5616
18.4714
24.8838
25.2587
20.7222
11.9206
16.7995
16.6977
11.4929
7.10827
10.3882
10.1225
6.00804
3.88172
5.75799
5.52589
3.29276
2.01693
2.84398
2.70522
2.23358
1.35463
1.6011
1.37438
1.53517
50.6563
40.1482
40.2058
54.7747
24.6152
34.9855
35.7638
32.677
18.4575
24.9722
25.3901
20.8613
11.9329
16.8801
16.8142
11.6352
7.14424
10.4584
10.2199
6.15456
3.92483
5.81421
5.60536
3.43547
2.04166
2.88146
2.76782
2.34774
1.35432
1.60006
1.39745
1.62334
)
;

boundaryField
{
    interface
    {
        type            calculated;
        value           nonuniform List<scalar> 
192
(
89.1751
14.5107
17.8244
7.96339
3.95047
2.10494
1.83092
1.5735
77.7921
20.9121
18.0596
9.23227
4.50569
2.3955
1.96089
1.69334
76.0964
20.1321
18.0454
9.65733
4.73586
2.24123
1.58988
1.28475
76.1407
19.5027
17.8314
9.9173
5.06321
2.37726
1.41457
1.06351
76.5108
19.1518
17.6241
10.0101
5.323
2.60221
1.41128
0.999442
76.8798
18.9457
17.4617
10.0176
5.47595
2.7847
1.46584
1.0015
77.1504
18.8226
17.3463
9.99013
5.54395
2.88775
1.50374
1.00673
77.2905
18.7633
17.2856
9.96604
5.56535
2.92905
1.51747
1.00744
72.4185
18.474
18.2902
10.3601
6.1356
3.18754
1.70333
1.22054
39.0073
29.3048
24.0029
16.6784
10.5536
5.76635
2.6206
1.21928
25.4835
31.0738
24.6967
17.1848
10.6236
5.62137
2.40628
0.948492
35.1318
28.5832
20.1214
11.8857
6.13363
2.54991
1.325
1.02751
58.8923
30.7029
18.6279
8.67179
2.67505
0.922633
2.04391
1.48191
68.7016
32.0546
18.2177
7.81061
1.86592
1.36703
2.2687
1.56244
72.3301
32.659
18.9322
8.00852
1.97389
1.32895
2.16168
1.46642
74.222
33.0053
19.6195
8.50766
2.591
1.62053
2.14848
1.39696
75.4058
33.3085
20.1641
9.04601
3.29716
2.12332
2.31297
1.47448
76.1899
33.5666
20.5739
9.49791
3.88471
2.59536
2.55218
1.65258
76.6822
33.7526
20.8488
9.81301
4.28768
2.93545
2.75974
1.82941
76.9218
33.8489
20.9864
9.97306
4.4902
3.11038
2.87584
1.93357
1.45556
1.5504
1.42077
1.37571
1.37554
1.3682
1.3518
1.33934
1.1771
1.45452
1.61231
1.65503
1.61531
1.54289
1.47944
1.44535
0.711209
1.08394
1.31535
1.34029
1.25569
1.15685
1.0955
1.07299
0.780278
0.968931
1.07378
1.06127
1.05465
1.11953
1.22022
1.29005
)
;
    }
    symmetry
    {
        type            symmetryPlane;
    }
    bottom
    {
        type            calculated;
        value           nonuniform List<scalar> 
32
(
80.361
64.2878
59.6742
58.4416
58.2172
58.2747
58.3777
58.4423
48.1851
42.9634
40.8127
39.9984
39.7257
39.6652
39.6746
39.6911
32.7371
35.6121
36.2621
36.4816
36.6154
36.7214
36.8
36.842
36.0675
42.9705
45.5725
46.8059
47.4913
47.9114
48.1654
48.287
)
;
    }
}


// ************************************************************************* //
