/*--------------------------------*- C++ -*----------------------------------*\
| =========                 |                                                 |
| \\      /  F ield         | foam-extend: Open Source CFD                    |
|  \\    /   O peration     | Version:     3.1                                |
|   \\  /    A nd           | Web:         http://www.extend-project.de       |
|    \\/     M anipulation  |                                                 |
\*---------------------------------------------------------------------------*/
FoamFile
{
    version     2.0;
    format      ascii;
    class       volScalarField;
    location    "0.2";
    object      sigmaCauchyEq;
}
// * * * * * * * * * * * * * * * * * * * * * * * * * * * * * * * * * * * * * //

dimensions      [1 -1 -2 0 0 0 0];

internalField   nonuniform List<scalar> 
256
(
60.0812
38.7941
30.5472
39.9276
20.3415
29.6715
30.4217
28.1852
17.6557
22.7697
23.0605
18.3768
10.2632
15.6735
15.8255
10.5351
5.89485
9.82374
9.74195
5.27289
3.06265
5.39781
5.21655
2.31392
1.74195
2.52295
2.34268
1.51418
1.39694
1.26391
0.990016
1.07575
53.3956
39.1397
36.0361
47.3594
24.3278
31.9218
31.7731
29.4392
17.806
22.2941
22.2524
17.7813
10.6457
15.0452
14.7888
9.53831
5.92495
9.25967
8.97007
4.51469
3.12002
5.11721
4.86115
2.15604
1.87807
2.51841
2.34135
1.70329
1.54013
1.48409
1.23253
1.21694
51.2714
38.9852
37.6075
50.0433
24.3786
32.8234
32.8579
30.3304
18.0915
22.9421
22.9055
18.4452
11.0629
15.2798
14.9537
9.70014
6.18276
9.31899
8.94803
4.50436
3.1895
5.10233
4.79381
2.07917
1.80299
2.53043
2.31935
1.60234
1.42141
1.59137
1.35972
1.21137
50.6538
39.0571
38.3427
51.3236
24.2448
33.4206
33.667
30.9246
18.1785
23.5394
23.5879
19.1146
11.3796
15.7053
15.4012
10.1533
6.48387
9.57682
9.19412
4.82282
3.36179
5.22441
4.9025
2.26451
1.79587
2.5706
2.34182
1.59522
1.35478
1.61665
1.36506
1.18084
50.5631
39.2241
38.7959
52.0859
24.1883
33.8436
34.2634
31.3724
18.1936
23.9757
24.1425
19.6608
11.5719
16.0757
15.8378
10.6305
6.73301
9.85011
9.49893
5.24716
3.56027
5.39461
5.09349
2.61704
1.85636
2.64477
2.43154
1.76046
1.33435
1.60164
1.33557
1.23445
50.6325
39.3963
39.1043
52.5831
24.1642
34.1376
34.6847
31.7071
18.1775
24.2692
24.5471
20.0717
11.6675
16.3402
16.181
11.0276
6.89391
10.0658
9.76525
5.6344
3.7168
5.54918
5.28724
2.97421
1.92938
2.72784
2.55321
1.99667
1.33133
1.58245
1.32969
1.36867
50.7232
39.5284
39.3041
52.8952
24.1531
34.3249
34.9552
31.9317
18.1543
24.4489
24.8086
20.3451
11.706
16.5049
16.4103
11.3033
6.97989
10.2069
9.95291
5.91421
3.81204
5.65844
5.43486
3.24252
1.98104
2.79523
2.66101
2.19917
1.33058
1.57362
1.35183
1.51099
50.7788
39.5989
39.4034
53.0475
24.1483
34.4164
35.0877
32.0446
18.139
24.5341
24.9365
20.4814
11.7173
16.5831
16.5241
11.4431
7.015
10.2754
10.0484
6.05855
3.85435
5.71359
5.51297
3.38319
2.00533
2.83206
2.72261
2.31165
1.33027
1.5726
1.37455
1.5978
)
;

boundaryField
{
    interface
    {
        type            calculated;
        value           nonuniform List<scalar> 
192
(
88.9136
14.2782
17.5466
7.82625
3.87974
2.06755
1.79859
1.54588
77.3157
20.5963
17.7761
9.07323
4.42474
2.35265
1.92621
1.66353
75.5245
19.8137
17.755
9.48964
4.65041
2.2007
1.56154
1.26193
75.5166
19.18
17.5355
9.74297
4.97161
2.33414
1.38918
1.04451
75.8582
18.8244
17.3242
9.83205
5.22658
2.5551
1.38588
0.981561
76.2113
18.6146
17.159
9.83773
5.37662
2.73439
1.43946
0.983584
76.4733
18.4892
17.0419
9.80955
5.44325
2.83563
1.47667
0.988725
76.6098
18.4287
16.9804
9.78524
5.46417
2.8762
1.49015
0.989411
72.144
18.1003
17.9946
10.1741
6.02509
3.13009
1.67315
1.19905
38.6279
28.7653
23.5903
16.3853
10.3695
5.66636
2.57553
1.1984
25.1517
30.4932
24.2625
16.8885
10.4443
5.52785
2.36666
0.932917
34.3933
28.0387
19.7556
11.6837
6.03375
2.50949
1.3042
1.01131
57.3627
30.0653
18.2825
8.52631
2.63293
0.90838
2.01273
1.45896
66.8094
31.387
17.8839
7.68176
1.83694
1.34631
2.23436
1.53828
70.302
31.9785
18.5847
7.87698
1.94351
1.30888
2.12906
1.44388
72.1243
32.3179
19.2584
8.3683
2.55173
1.59599
2.11587
1.37547
73.2645
32.6146
19.792
8.89814
3.24781
2.09147
2.27771
1.45171
74.0192
32.8668
20.1936
9.34295
3.82705
2.55685
2.51333
1.62703
74.4928
33.0485
20.4629
9.65314
4.22439
2.89219
2.71785
1.80117
74.7233
33.1424
20.5977
9.81071
4.42409
3.06471
2.83228
1.90376
1.43004
1.52314
1.39558
1.35127
1.35112
1.34394
1.32784
1.31561
1.15695
1.42956
1.58457
1.62653
1.58752
1.51638
1.45404
1.42054
0.699473
1.06601
1.29355
1.31808
1.23492
1.13774
1.07742
1.05529
0.767866
0.953486
1.05667
1.04436
1.03784
1.10167
1.20076
1.2695
)
;
    }
    symmetry
    {
        type            symmetryPlane;
    }
    bottom
    {
        type            calculated;
        value           nonuniform List<scalar> 
32
(
80.5372
64.1861
59.5746
58.3535
58.1372
58.2002
58.3065
58.3728
47.6952
42.3785
40.2418
39.4351
39.1646
39.1041
39.1129
39.1289
32.2439
34.9656
35.5835
35.7915
35.9188
36.0204
36.0961
36.1366
35.2237
41.8327
44.323
45.5013
46.155
46.5552
46.797
46.9127
)
;
    }
}


// ************************************************************************* //
