/*--------------------------------*- C++ -*----------------------------------*\
| =========                 |                                                 |
| \\      /  F ield         | foam-extend: Open Source CFD                    |
|  \\    /   O peration     | Version:     3.1                                |
|   \\  /    A nd           | Web:         http://www.extend-project.de       |
|    \\/     M anipulation  |                                                 |
\*---------------------------------------------------------------------------*/
FoamFile
{
    version     2.0;
    format      ascii;
    class       volVectorField;
    location    "0.2";
    object      U;
}
// * * * * * * * * * * * * * * * * * * * * * * * * * * * * * * * * * * * * * //

dimensions      [0 1 -1 0 0 0 0];

internalField   nonuniform List<vector> 
256
(
(0.000835115 4.76595e-05 0.000848012)
(0.000449246 -0.000168047 0.00049983)
(0.000279382 -0.000263328 0.000226712)
(0.000246518 -0.000434524 -8.0252e-05)
(0.00228331 0.000563629 0.00111628)
(0.00186518 -0.000147329 0.000953232)
(0.00163999 -0.000637825 0.000673553)
(0.0016008 -0.00127212 0.00044667)
(0.00375691 0.000698796 0.00132281)
(0.00336021 -0.00022252 0.0011639)
(0.00311568 -0.000991962 0.000973046)
(0.00303051 -0.00188919 0.000808132)
(0.00521306 0.000706514 0.00143141)
(0.00487107 -0.000350793 0.00131825)
(0.00462934 -0.00130252 0.00119079)
(0.00449482 -0.00235208 0.00108298)
(0.00661151 0.000587506 0.00151106)
(0.00630934 -0.000529525 0.00143078)
(0.00607164 -0.00157955 0.00134787)
(0.00590073 -0.00269594 0.00127611)
(0.00792282 0.000397116 0.00158196)
(0.00764851 -0.000736399 0.00152195)
(0.00741256 -0.00183015 0.00146313)
(0.00721529 -0.00296333 0.00140886)
(0.00914456 0.000168677 0.00165514)
(0.0088872 -0.000957773 0.00160252)
(0.00865142 -0.00206181 0.0015533)
(0.00843671 -0.00318658 0.00150344)
(0.0102961 -7.18097e-05 0.00173307)
(0.0100451 -0.00118451 0.00168078)
(0.00980842 -0.00228216 0.00163596)
(0.00958586 -0.00339194 0.00158396)
(0.000823783 -1.14489e-05 0.00047936)
(0.000483441 -0.000225717 0.000303652)
(0.00034477 -0.000316929 0.000149576)
(0.000353633 -0.000484913 -9.00781e-06)
(0.00243441 0.000407912 0.000805661)
(0.00195565 -0.000299567 0.000686372)
(0.00171198 -0.000780769 0.000511445)
(0.00168357 -0.00141145 0.000368083)
(0.00388507 0.000570078 0.00103918)
(0.00347551 -0.000361856 0.000922417)
(0.00321833 -0.00113837 0.000785264)
(0.00311989 -0.00204257 0.000664916)
(0.00532709 0.000588156 0.00118428)
(0.00497339 -0.000477685 0.00108797)
(0.00472092 -0.00143701 0.000986772)
(0.00457378 -0.0024943 0.000897725)
(0.00670551 0.000483112 0.00128488)
(0.00639721 -0.000641176 0.00120863)
(0.0061513 -0.00169863 0.00113443)
(0.00596952 -0.0028225 0.00106648)
(0.00800215 0.000301632 0.0013661)
(0.00772411 -0.000837206 0.00130284)
(0.00748292 -0.00193692 0.00124422)
(0.00727858 -0.00307658 0.00118701)
(0.00921524 7.88664e-05 0.0014409)
(0.00895587 -0.00105211 0.0013835)
(0.00871777 -0.00216153 0.0013317)
(0.00850047 -0.00329227 0.00127755)
(0.0103644 -0.000158537 0.00151586)
(0.0101126 -0.00127567 0.00146081)
(0.00987569 -0.00237944 0.00141279)
(0.00965364 -0.00349521 0.00135866)
(0.000834559 -1.13624e-05 0.000294457)
(0.000494977 -0.000232265 0.000200949)
(0.000366055 -0.000327316 0.00011347)
(0.000397182 -0.000501563 2.76816e-05)
(0.00251364 0.000342715 0.000579185)
(0.0020085 -0.000364772 0.000497457)
(0.00175885 -0.000838411 0.000389688)
(0.00174653 -0.0014672 0.000300474)
(0.00398815 0.000480988 0.000797701)
(0.00355504 -0.000450808 0.000712974)
(0.00328585 -0.00122299 0.000618033)
(0.00318747 -0.00212365 0.000532981)
(0.00542989 0.000489906 0.000950791)
(0.00506065 -0.00057423 0.000872682)
(0.00479719 -0.00153109 0.000794694)
(0.00464418 -0.00258632 0.000723484)
(0.0068015 0.000386397 0.00106112)
(0.00648323 -0.000737237 0.00099232)
(0.00622866 -0.00179457 0.00092821)
(0.00603989 -0.00291871 0.000867035)
(0.00808972 0.00020945 0.00114756)
(0.00780601 -0.000930291 0.00108559)
(0.00755902 -0.00203206 0.00102997)
(0.00734894 -0.00317442 0.000973864)
(0.00929652 -8.17599e-06 0.00122248)
(0.00903457 -0.00114219 0.00116408)
(0.00879345 -0.00225578 0.0011125)
(0.00857284 -0.00339143 0.00105761)
(0.0104436 -0.000240862 0.00129341)
(0.0101916 -0.00136318 0.00123752)
(0.00995382 -0.00247302 0.00118901)
(0.0097307 -0.00359565 0.00113464)
(0.000845791 -8.16427e-06 0.000190045)
(0.000501858 -0.00023404 0.000137975)
(0.00037582 -0.000331358 8.7466e-05)
(0.000417616 -0.000510123 3.90403e-05)
(0.002562 0.000314577 0.000416686)
(0.00204346 -0.000396603 0.000361947)
(0.00179187 -0.000866755 0.000294528)
(0.00179025 -0.00149585 0.000238119)
(0.00406029 0.000426591 0.000600973)
(0.00361281 -0.000505892 0.000540449)
(0.00333686 -0.00127441 0.000475075)
(0.00324066 -0.00217284 0.000415457)
(0.00551162 0.000419559 0.000740616)
(0.00513106 -0.000643103 0.000680156)
(0.00486008 -0.00159717 0.000621171)
(0.00470436 -0.00265091 0.00056566)
(0.00688509 0.000309458 0.000846413)
(0.00655891 -0.000812801 0.000788524)
(0.00629783 -0.00186905 0.00073542)
(0.00610452 -0.00299326 0.000683294)
(0.00817144 0.000131448 0.000929797)
(0.00788297 -0.00100822 0.000874273)
(0.00763124 -0.00211106 0.000824836)
(0.00741679 -0.0032555 0.000774052)
(0.00937602 -8.42352e-05 0.00100024)
(0.00911184 -0.00122022 0.000946068)
(0.00886792 -0.00233713 0.00089847)
(0.00864414 -0.00347694 0.000847441)
(0.0105232 -0.000313569 0.00106401)
(0.0102708 -0.00143999 0.00101166)
(0.0100318 -0.00255523 0.000966264)
(0.00980681 -0.00368396 0.000915583)
(0.000854508 -5.79958e-06 0.000124944)
(0.000506971 -0.000234885 9.48726e-05)
(0.000382011 -0.000333574 6.52795e-05)
(0.000429546 -0.000515261 3.6989e-05)
(0.00259471 0.000301432 0.000294577)
(0.00206836 -0.000413849 0.000258421)
(0.00181599 -0.00088307 0.000215897)
(0.00182092 -0.00151413 0.000179822)
(0.00411128 0.000394937 0.000438498)
(0.00365556 -0.000540094 0.000396097)
(0.00337612 -0.00130732 0.000351581)
(0.00328193 -0.00220604 0.000310278)
(0.00557381 0.000373056 0.000553203)
(0.00518611 -0.000690433 0.000508302)
(0.0049106 -0.00164344 0.000465056)
(0.00475357 -0.00269746 0.000423389)
(0.00695272 0.000253824 0.000643598)
(0.00662115 -0.000868651 0.000598025)
(0.00635576 -0.00192473 0.0005564)
(0.00615952 -0.00304998 0.00051473)
(0.00824098 7.16759e-05 0.000716014)
(0.00794899 -0.0010687 0.000670286)
(0.0076938 -0.00217278 0.000629569)
(0.00747614 -0.00331947 0.00058728)
(0.00944623 -0.000144573 0.000776672)
(0.00918018 -0.00128257 0.00073084)
(0.00893391 -0.00240237 0.00069055)
(0.00870739 -0.00354585 0.000647235)
(0.010595 -0.000372284 0.000829844)
(0.010342 -0.00150235 0.000785039)
(0.0101016 -0.00262213 0.000746185)
(0.00987445 -0.00375598 0.000702953)
(0.000860755 -4.20474e-06 7.97615e-05)
(0.000510837 -0.000235384 6.23674e-05)
(0.000386392 -0.00033493 4.52332e-05)
(0.00043726 -0.000518539 2.87113e-05)
(0.00261712 0.000295204 0.000196841)
(0.00208612 -0.000423646 0.000173926)
(0.00183342 -0.000893146 0.000147788)
(0.0018423 -0.00152658 0.000125289)
(0.00414684 0.000376882 0.000299159)
(0.00368642 -0.000561156 0.000271011)
(0.0034052 -0.00132861 0.000242044)
(0.00331243 -0.00222887 0.000214752)
(0.00561889 0.000343871 0.000383397)
(0.00522697 -0.000721605 0.000352345)
(0.00494886 -0.0016749 0.000322663)
(0.00479117 -0.00273027 0.000293574)
(0.00700363 0.000216472 0.000451622)
(0.00666871 -0.000907347 0.000418864)
(0.00640061 -0.00196413 0.000388963)
(0.0062025 -0.003091 0.000358638)
(0.00829508 2.96506e-05 0.000507113)
(0.00800072 -0.00111213 0.000473239)
(0.00774317 -0.00221769 0.000443016)
(0.00752324 -0.00336661 0.000411422)
(0.0095023 -0.000188249 0.000553511)
(0.00923479 -0.00132834 0.000518916)
(0.00898669 -0.00245067 0.000488453)
(0.00875797 -0.00359722 0.000455678)
(0.0106533 -0.000415539 0.000593273)
(0.0103995 -0.00154876 0.000559148)
(0.0101577 -0.00267221 0.000529546)
(0.00992859 -0.00381007 0.000496703)
(0.000864801 -3.21912e-06 4.47062e-05)
(0.000513471 -0.00023568 3.55584e-05)
(0.0003893 -0.00033574 2.65867e-05)
(0.000442072 -0.000520543 1.7836e-05)
(0.0026314 0.000292365 0.000113254)
(0.00209774 -0.00042906 0.000100515)
(0.0018449 -0.000899159 8.62567e-05)
(0.00185607 -0.00153454 7.38359e-05)
(0.00416967 0.000367136 0.000174286)
(0.00370666 -0.000573368 0.000158143)
(0.00342454 -0.00134155 0.00014174)
(0.00333264 -0.00224344 0.000126108)
(0.00564839 0.000326983 0.000225524)
(0.00525413 -0.000740447 0.00020725)
(0.00497462 -0.00169452 0.000189861)
(0.00481658 -0.00275136 0.000172632)
(0.00703767 0.000193824 0.000267734)
(0.00670083 -0.000931511 0.000248002)
(0.00643117 -0.00198925 0.000229987)
(0.00623191 -0.00311766 0.000211574)
(0.00833198 3.32812e-06 0.000302431)
(0.00803619 -0.00113989 0.000281652)
(0.00777716 -0.0022468 0.000263081)
(0.00755574 -0.00339752 0.000243599)
(0.00954118 -0.000216193 0.000331449)
(0.00927266 -0.00135806 0.000309979)
(0.00902329 -0.00248232 0.00029105)
(0.00879303 -0.00363111 0.000270685)
(0.0106942 -0.000443601 0.000355959)
(0.0104396 -0.00157922 0.000334657)
(0.0101968 -0.0027053 0.000316178)
(0.00996614 -0.00384595 0.000295718)
(0.000866786 -2.74468e-06 1.44332e-05)
(0.000514804 -0.000235819 1.15688e-05)
(0.000390758 -0.000336123 8.76984e-06)
(0.000444404 -0.000521503 6.01943e-06)
(0.00263836 0.000291279 3.69969e-05)
(0.00210351 -0.000431489 3.29036e-05)
(0.00185062 -0.000901998 2.83632e-05)
(0.00186283 -0.00153845 2.43819e-05)
(0.00418087 0.000362877 5.72676e-05)
(0.00371671 -0.000578986 5.20002e-05)
(0.00343422 -0.0013477 4.66803e-05)
(0.00334273 -0.00225057 4.158e-05)
(0.005663 0.000319271 7.4443e-05)
(0.00526771 -0.000749314 6.84056e-05)
(0.00498759 -0.00170395 6.26723e-05)
(0.00482938 -0.0027617 5.69615e-05)
(0.00705471 0.00018319 8.87078e-05)
(0.00671702 -0.000943089 8.21166e-05)
(0.00644663 -0.00200146 7.60979e-05)
(0.00624683 -0.00313077 6.99243e-05)
(0.00835067 -9.26929e-06 0.000100496)
(0.0080542 -0.00115337 9.34958e-05)
(0.00779446 -0.00226107 8.72339e-05)
(0.0075723 -0.00341279 8.06551e-05)
(0.00956106 -0.00022974 0.000110358)
(0.00929202 -0.00137262 0.000103086)
(0.00904199 -0.00249793 9.66696e-05)
(0.00881094 -0.00364792 8.97676e-05)
(0.0107152 -0.000457328 0.000118629)
(0.0104602 -0.00159425 0.000111393)
(0.0102168 -0.00272171 0.000105117)
(0.00998532 -0.0038638 9.81743e-05)
)
;

boundaryField
{
    interface
    {
        type            calculated;
        value           nonuniform List<vector> 
192
(
(0.00149343 0.00102204 0.000864503)
(0.0024827 0.00119742 0.00116697)
(0.00400019 0.00142304 0.00137772)
(0.00539527 0.00139892 0.00147385)
(0.00676749 0.00125396 0.00154518)
(0.0080589 0.00102398 0.00160998)
(0.00927238 0.000760543 0.0016811)
(0.0104246 0.000497466 0.00175951)
(0.00144687 0.00100508 0.00049187)
(0.00269113 0.00107084 0.000850677)
(0.00412927 0.0012822 0.00109663)
(0.00551848 0.00127406 0.00123527)
(0.00686549 0.00114192 0.00132993)
(0.00814159 0.000924385 0.00140536)
(0.00934554 0.000669468 0.00147666)
(0.0104945 0.000411972 0.00155077)
(0.00147118 0.00103429 0.000303392)
(0.00278108 0.00103123 0.000608238)
(0.00423989 0.00119251 0.000838714)
(0.00562634 0.00117334 0.000994833)
(0.00696353 0.00104059 0.00110371)
(0.00822979 0.000828716 0.00118753)
(0.00942653 0.000580638 0.00126035)
(0.0105721 0.000330609 0.00133088)
(0.00149537 0.00105767 0.000196255)
(0.00283686 0.00101791 0.000436479)
(0.00431858 0.00114522 0.000630206)
(0.00571304 0.00110448 0.000775073)
(0.00704987 0.000962702 0.000882534)
(0.00831267 0.000749282 0.000965823)
(0.00950609 0.000503838 0.00103585)
(0.0106506 0.000259057 0.00110002)
(0.00151307 0.00107396 0.000129191)
(0.00287439 0.00101464 0.000308149)
(0.00437381 0.00112058 0.000459107)
(0.00577846 0.00106144 0.000578775)
(0.00711956 0.000908263 0.000671872)
(0.00838316 0.000689739 0.000745513)
(0.00957643 0.000443815 0.000806832)
(0.0107217 0.000201729 0.000860949)
(0.00152525 0.00108494 8.25644e-05)
(0.00289983 0.00101515 0.000205838)
(0.00441203 0.00110803 0.000313048)
(0.00582549 0.00103576 0.000401116)
(0.00717175 0.000872834 0.000471841)
(0.00843791 0.000648749 0.000528833)
(0.00963266 0.000401018 0.00057625)
(0.0107797 0.000159878 0.000617082)
(0.00153291 0.0010918 4.63157e-05)
(0.00291585 0.00101658 0.000118436)
(0.00443637 0.00110201 0.000182361)
(0.00585607 0.00102151 0.00023598)
(0.00720649 0.000851882 0.000279875)
(0.00847519 0.000623516 0.000315698)
(0.00967167 0.000373988 0.000345542)
(0.0108205 0.000132958 0.000370859)
(0.00153661 0.00109511 1.49592e-05)
(0.0029236 0.00101758 3.86936e-05)
(0.00444825 0.00109962 5.99224e-05)
(0.00587115 0.0010152 7.79035e-05)
(0.00722385 0.000842206 9.27574e-05)
(0.00849404 0.000611578 0.000104956)
(0.00969162 0.000360998 0.000115128)
(0.0108415 0.000119868 0.000123697)
(0.000800311 0.000635591 0.00133064)
(0.00221361 0.0006256 0.00119272)
(0.00370603 0.000787011 0.0014693)
(0.00517095 0.000748514 0.00154554)
(0.00658162 0.000625118 0.00162182)
(0.00789896 0.000433119 0.00168864)
(0.00912179 0.000207146 0.0017623)
(0.0102716 -3.26711e-05 0.00184239)
(0.000377217 0.000286638 0.000773719)
(0.00174104 -3.23881e-05 0.00104665)
(0.0032794 -0.000118538 0.00127579)
(0.0048138 -0.000283321 0.00142293)
(0.00627262 -0.000476047 0.00153684)
(0.00762231 -0.000691341 0.00162901)
(0.00886445 -0.00091576 0.0017114)
(0.0100226 -0.00114247 0.00179018)
(0.000205235 1.85333e-05 0.000389349)
(0.00150794 -0.000459759 0.000747227)
(0.00302861 -0.000856693 0.00106346)
(0.00457305 -0.00120395 0.00128693)
(0.00603652 -0.00150716 0.00144998)
(0.00738764 -0.00177504 0.00156947)
(0.00862921 -0.00201568 0.00166275)
(0.009786 -0.00223636 0.00174674)
(0.000206756 -0.000294399 -9.00463e-05)
(0.00152453 -0.001049 0.000497728)
(0.00297758 -0.0017242 0.000869678)
(0.0044582 -0.00222783 0.00116773)
(0.00587506 -0.00260837 0.00137422)
(0.00719316 -0.00290099 0.00151563)
(0.00841287 -0.00313828 0.00161503)
(0.00955868 -0.00334364 0.00169519)
(0.000474607 -0.000973416 -0.000103664)
(0.0016545 -0.00190777 0.000396696)
(0.00303372 -0.00259215 0.000765908)
(0.00444499 -0.00305031 0.00104989)
(0.00581874 -0.00336298 0.0012489)
(0.00711412 -0.00358841 0.00138318)
(0.00832658 -0.00377429 0.00147561)
(0.00947703 -0.00395375 0.00155284)
(0.000635673 -0.00108001 -2.93762e-05)
(0.00174203 -0.00203973 0.000328594)
(0.00311798 -0.00273924 0.000630266)
(0.0045189 -0.00318703 0.000864572)
(0.00588297 -0.00348671 0.00103481)
(0.00717456 -0.00370226 0.00115528)
(0.00838964 -0.00388287 0.00124387)
(0.00954564 -0.00406005 0.0013218)
(0.000704059 -0.0011358 1.61705e-05)
(0.00181179 -0.00209254 0.000273913)
(0.00318803 -0.00282032 0.000503926)
(0.00458692 -0.00327813 0.000693088)
(0.00594948 -0.00358264 0.00083558)
(0.0072412 -0.00380119 0.000940955)
(0.00845918 -0.0039845 0.00102247)
(0.00962095 -0.00416364 0.00109641)
(0.000738959 -0.00116755 3.1942e-05)
(0.00186075 -0.00212555 0.000219798)
(0.00324399 -0.00287191 0.000392491)
(0.00464615 -0.00334417 0.000539655)
(0.00601157 -0.00365859 0.000654949)
(0.00730611 -0.003884 0.000743517)
(0.00852786 -0.00407239 0.000814536)
(0.00969493 -0.0042549 0.00087989)
(0.000759886 -0.00118751 3.23029e-05)
(0.00189473 -0.00214923 0.00016697)
(0.00328712 -0.00290868 0.000292851)
(0.00469497 -0.0033932 0.00040258)
(0.00606484 -0.00371739 0.000491307)
(0.00736324 -0.00394994 0.000561602)
(0.00858892 -0.00414347 0.000619391)
(0.00976054 -0.0043294 0.000672792)
(0.000773342 -0.00120055 2.56271e-05)
(0.00191813 -0.00216623 0.000116585)
(0.0033187 -0.00293496 0.000202449)
(0.00473228 -0.00342854 0.000278427)
(0.00610662 -0.00376046 0.000341253)
(0.00740872 -0.00399888 0.000392165)
(0.00863784 -0.00419662 0.000434723)
(0.00981303 -0.00438543 0.000474023)
(0.000781632 -0.00120863 1.60538e-05)
(0.00193305 -0.00217736 6.8742e-05)
(0.00333951 -0.00295211 0.000118758)
(0.00475747 -0.00345159 0.000163432)
(0.00613527 -0.00378868 0.000200903)
(0.00744018 -0.00403112 0.000231711)
(0.00867177 -0.00423176 0.000257722)
(0.00984941 -0.00442262 0.000281696)
(0.000785617 -0.00121254 5.43415e-06)
(0.00194033 -0.00218288 2.27005e-05)
(0.00334985 -0.00296059 3.9133e-05)
(0.00477015 -0.00346298 5.38773e-05)
(0.00614981 -0.00380264 6.63294e-05)
(0.00745622 -0.0040471 7.66397e-05)
(0.00868911 -0.00424921 8.53854e-05)
(0.009868 -0.00444114 9.34344e-05)
(0.0108573 -0.000190449 0.00177177)
(0.0109278 -0.000276199 0.001555)
(0.0110092 -0.000355424 0.00132913)
(0.0110908 -0.000425895 0.00109443)
(0.0111645 -0.000483245 0.000853571)
(0.0112245 -0.000525936 0.000609966)
(0.0112666 -0.000553868 0.00036578)
(0.0112883 -0.000567613 0.000121862)
(0.0105957 -0.00129651 0.00172262)
(0.0106665 -0.00138639 0.00150295)
(0.0107487 -0.00147195 0.00127618)
(0.0108308 -0.00154748 0.00104467)
(0.0109045 -0.0016093 0.000811018)
(0.010964 -0.00165572 0.00057762)
(0.0110055 -0.0016864 0.000345632)
(0.0110268 -0.0017016 0.000115027)
(0.0103582 -0.00239166 0.00168159)
(0.010429 -0.00248803 0.00145852)
(0.0105106 -0.0025802 0.00123121)
(0.0105919 -0.00266183 0.00100233)
(0.0106645 -0.00272884 0.000774676)
(0.0107227 -0.00277939 0.000549913)
(0.0107632 -0.00281298 0.000328343)
(0.010784 -0.0028297 0.000109157)
(0.0101419 -0.0034955 0.00163265)
(0.0102124 -0.00359775 0.00140798)
(0.0102928 -0.00369769 0.00118047)
(0.0103721 -0.00378624 0.000954812)
(0.0104424 -0.00385903 0.000734013)
(0.0104986 -0.00391404 0.000518966)
(0.0105375 -0.00395069 0.00030905)
(0.0105574 -0.00396899 0.000102609)
)
;
    }
    symmetry
    {
        type            symmetryPlane;
    }
    bottom
    {
        type            calculated;
        value           uniform (0 0 0);
    }
}


// ************************************************************************* //
