/*--------------------------------*- C++ -*----------------------------------*\
| =========                 |                                                 |
| \\      /  F ield         | foam-extend: Open Source CFD                    |
|  \\    /   O peration     | Version:     3.1                                |
|   \\  /    A nd           | Web:         http://www.extend-project.de       |
|    \\/     M anipulation  |                                                 |
\*---------------------------------------------------------------------------*/
FoamFile
{
    version     2.0;
    format      ascii;
    class       volVectorField;
    location    "0.5";
    object      D_0;
}
// * * * * * * * * * * * * * * * * * * * * * * * * * * * * * * * * * * * * * //

dimensions      [0 1 0 0 0 0 0];

internalField   nonuniform List<vector> 
256
(
(0.000355702 7.33339e-05 0.000384061)
(0.000180441 -4.22511e-05 0.000188256)
(0.000126702 -0.000103559 2.01878e-05)
(0.00017073 -0.000212963 -0.000173381)
(0.00112739 0.000433514 0.000471119)
(0.000935448 1.35699e-05 0.000341029)
(0.00086208 -0.000301328 0.00014834)
(0.000901685 -0.00070707 -5.02322e-06)
(0.00199553 0.00061101 0.00053191)
(0.0018144 2.51551e-05 0.000405503)
(0.0017329 -0.000481268 0.000256339)
(0.00174986 -0.00106855 0.000125975)
(0.00293101 0.000710509 0.000548354)
(0.00277782 5.20187e-06 0.000451775)
(0.00269521 -0.000638491 0.000341611)
(0.00268202 -0.00134837 0.000245569)
(0.00388885 0.000730527 0.000554308)
(0.00375764 -4.37807e-05 0.000484402)
(0.00367474 -0.00077315 0.000408165)
(0.00363804 -0.00155212 0.000340366)
(0.00483225 0.000697672 0.000560478)
(0.0047179 -0.000111004 0.000511267)
(0.0046344 -0.000888411 0.000459483)
(0.00457976 -0.00170011 0.000411835)
(0.00573959 0.000631008 0.000573117)
(0.00563654 -0.000188865 0.000536424)
(0.00555242 -0.000987866 0.000500244)
(0.0054856 -0.00180927 0.000464258)
(0.0066049 0.000548258 0.00059379)
(0.00650603 -0.000271484 0.00056231)
(0.00642145 -0.00107613 0.000536491)
(0.00634991 -0.00189664 0.000504975)
(0.000366947 5.44855e-05 0.000213549)
(0.000209657 -6.08925e-05 0.000112323)
(0.000166585 -0.000119445 1.57609e-05)
(0.000220885 -0.000225976 -8.79038e-05)
(0.00121504 0.000377199 0.00032998)
(0.000995205 -3.92183e-05 0.000240862)
(0.000917673 -0.000346789 0.000118601)
(0.0009727 -0.000749434 1.89746e-05)
(0.0020795 0.000567049 0.000407333)
(0.00189396 -2.40748e-05 0.000317359)
(0.00180927 -0.000533841 0.000211438)
(0.00182363 -0.00112509 0.000118392)
(0.00300787 0.000670177 0.000446652)
(0.00285098 -4.03606e-05 0.000370417)
(0.00276532 -0.000689028 0.000286306)
(0.00274868 -0.00140379 0.000211116)
(0.00395277 0.000695224 0.000469139)
(0.00382045 -8.42573e-05 0.00040872)
(0.00373503 -0.000819326 0.000345281)
(0.00369421 -0.00160344 0.00028681)
(0.00488454 0.000665281 0.000486554)
(0.00477003 -0.000147786 0.000439004)
(0.0046849 -0.000930348 0.000391349)
(0.00462708 -0.00174674 0.000345384)
(0.0057838 0.000600486 0.000505096)
(0.00568112 -0.000223353 0.000465879)
(0.0055963 -0.00102708 0.000428645)
(0.00552783 -0.00185289 0.000390268)
(0.00664614 0.000519174 0.000527343)
(0.00654773 -0.000304537 0.000492602)
(0.00646315 -0.00111437 0.000462206)
(0.00639138 -0.00193936 0.000427635)
(0.000377398 5.72908e-05 0.000127337)
(0.000218075 -6.25208e-05 7.22966e-05)
(0.000178531 -0.000123756 1.6252e-05)
(0.000242995 -0.00023475 -4.14744e-05)
(0.00126091 0.000354618 0.000229884)
(0.00102735 -6.22089e-05 0.000171393)
(0.000949112 -0.000365749 9.52936e-05)
(0.0010168 -0.000768664 3.21893e-05)
(0.00213956 0.000534489 0.000305013)
(0.00194291 -5.61063e-05 0.00024251)
(0.00185536 -0.000563164 0.000170337)
(0.00187517 -0.00115297 0.000106051)
(0.00306955 0.000632973 0.000353155)
(0.00290585 -7.5914e-05 0.000295336)
(0.00281736 -0.000722538 0.000233311)
(0.00280197 -0.00143549 0.000176482)
(0.0040112 0.000658108 0.000385473)
(0.00387502 -0.000120077 0.000335163)
(0.0037873 -0.00085424 0.000284026)
(0.00374587 -0.00163727 0.000235397)
(0.00493805 0.000630126 0.000410249)
(0.00482185 -0.000182606 0.000366724)
(0.00473521 -0.000965541 0.000324486)
(0.00467617 -0.00178212 0.0002824)
(0.00583344 0.000568241 0.000432754)
(0.00573052 -0.000256833 0.000393942)
(0.00564501 -0.00106241 0.000357885)
(0.0055755 -0.00189007 0.000319928)
(0.00669477 0.000490154 0.000455575)
(0.00659715 -0.000336624 0.000419863)
(0.00651253 -0.00114992 0.000388183)
(0.00644004 -0.00197859 0.000352772)
(0.000384179 5.9974e-05 7.94057e-05)
(0.000221496 -6.28537e-05 4.83237e-05)
(0.000183142 -0.00012576 1.53766e-05)
(0.000253626 -0.000240059 -1.77515e-05)
(0.00128748 0.000345536 0.000160829)
(0.00104639 -7.34997e-05 0.000122871)
(0.000968304 -0.000375521 7.51264e-05)
(0.00104406 -0.000780047 3.50686e-05)
(0.00217921 0.000514694 0.000225102)
(0.00197546 -7.60656e-05 0.000182239)
(0.00188653 -0.000580961 0.000133525)
(0.00191095 -0.00117016 8.96474e-05)
(0.00311555 0.000606256 0.0002717)
(0.00294674 -0.000101346 0.000229182)
(0.00285648 -0.000745718 0.000184234)
(0.00284293 -0.00145736 0.00014229)
(0.00405933 0.00062841 0.000306115)
(0.00391994 -0.000148281 0.00026613)
(0.00383064 -0.000880764 0.000226139)
(0.00378941 -0.00166271 0.000187312)
(0.00498603 0.000600183 0.000333138)
(0.00486827 -0.00021174 0.000295931)
(0.0047805 -0.000994121 0.000260309)
(0.00472089 -0.00181054 0.000224196)
(0.00588092 0.000539795 0.000356456)
(0.00577765 -0.000285814 0.00032136)
(0.00569155 -0.0010923 0.000288979)
(0.00562125 -0.00192117 0.000254624)
(0.00674291 0.00046405 0.000377997)
(0.0066458 -0.000364831 0.000344715)
(0.00656103 -0.0011806 0.000315014)
(0.00648776 -0.00201199 0.000282091)
(0.000388563 6.1661e-05 5.05527e-05)
(0.000223442 -6.30133e-05 3.25191e-05)
(0.000185613 -0.000126942 1.30043e-05)
(0.000259696 -0.000243359 -6.41632e-06)
(0.00130428 0.000341725 0.000111202)
(0.00105869 -7.95952e-05 8.67863e-05)
(0.00098086 -0.00038141 5.67923e-05)
(0.00106165 -0.000787965 3.13632e-05)
(0.00220594 0.000503627 0.000161721)
(0.00199797 -8.84053e-05 0.000132764)
(0.00190848 -0.000592568 0.000100315)
(0.00193611 -0.0011825 7.07714e-05)
(0.00314915 0.000589113 0.000201117)
(0.00297703 -0.000118701 0.000170795)
(0.00288581 -0.00076205 0.000139058)
(0.00287378 -0.00147377 0.000109009)
(0.00409697 0.000607496 0.000231996)
(0.00395537 -0.000168946 0.000201775)
(0.0038651 -0.000900591 0.000171803)
(0.0038242 -0.00168253 0.000142285)
(0.00502581 0.000577748 0.000256881)
(0.00490685 -0.000234155 0.000227239)
(0.0048183 -0.00101636 0.000199021)
(0.00475837 -0.0018332 0.000170128)
(0.00592202 0.000517566 0.00027799)
(0.00581837 -0.000308808 0.000248913)
(0.00573176 -0.00111612 0.000222136)
(0.00566084 -0.00194624 0.000193646)
(0.00678556 0.000443066 0.000296454)
(0.00668861 -0.000387636 0.000268274)
(0.00660356 -0.00120535 0.000243059)
(0.00652956 -0.00203899 0.000215241)
(0.00039144 6.27022e-05 3.14587e-05)
(0.000224767 -6.31238e-05 2.10558e-05)
(0.000187225 -0.000127687 9.71386e-06)
(0.000263502 -0.000245454 -1.56098e-06)
(0.00131523 0.000340217 7.31314e-05)
(0.00106693 -8.30286e-05 5.79924e-05)
(0.000989309 -0.000385194 3.97069e-05)
(0.00107321 -0.000793611 2.40541e-05)
(0.00222395 0.000497686 0.000109162)
(0.0020135 -9.5936e-05 9.04911e-05)
(0.0019238 -0.000600265 6.98087e-05)
(0.00195352 -0.00119149 5.07901e-05)
(0.00317285 0.000578812 0.000138541)
(0.00299874 -0.000130013 0.000118198)
(0.00290703 -0.000773324 9.7062e-05)
(0.00289605 -0.0014859 7.6824e-05)
(0.0041247 0.000593959 0.000162438)
(0.00398172 -0.000183105 0.000141326)
(0.00389087 -0.00091474 0.00012049)
(0.00385023 -0.00169737 9.97679e-05)
(0.00505623 0.000562447 0.000182083)
(0.00493645 -0.000250079 0.000160625)
(0.00484738 -0.00103261 0.000140249)
(0.00478723 -0.0018503 0.000119266)
(0.00595434 0.000501834 0.000198659)
(0.00585033 -0.000325542 0.000177057)
(0.00576329 -0.00113375 0.000157171)
(0.00569189 -0.00196514 0.000135996)
(0.00681961 0.000427818 0.000212674)
(0.00672258 -0.000404509 0.000191437)
(0.00663721 -0.00122384 0.000172416)
(0.00656261 -0.00205931 0.000151495)
(0.000393227 6.3311e-05 1.73345e-05)
(0.00022565 -6.31984e-05 1.18939e-05)
(0.000188273 -0.000128135 5.95875e-06)
(0.000265827 -0.000246715 4.0594e-08)
(0.00132199 0.000339702 4.16551e-05)
(0.00107213 -8.49097e-05 3.33725e-05)
(0.000994668 -0.000387518 2.34817e-05)
(0.00108038 -0.000797312 1.49497e-05)
(0.00223526 0.000494689 6.31827e-05)
(0.00202342 -0.000100262 5.26894e-05)
(0.00193365 -0.000605041 4.11626e-05)
(0.00196462 -0.00119744 3.04805e-05)
(0.0031881 0.000573109 8.11981e-05)
(0.00301287 -0.000136784 6.94655e-05)
(0.00292092 -0.000780456 5.73385e-05)
(0.00291058 -0.001494 4.56363e-05)
(0.004143 0.000586032 9.61747e-05)
(0.00399921 -0.000191861 8.3687e-05)
(0.00390805 -0.000923848 7.13989e-05)
(0.00386757 -0.00170731 5.91037e-05)
(0.00507674 0.000553129 0.000108645)
(0.00495646 -0.000260168 9.56735e-05)
(0.00486706 -0.0010432 8.33723e-05)
(0.00480675 -0.00186174 7.06642e-05)
(0.0059765 0.000491983 0.000119151)
(0.00587221 -0.000336326 0.000105888)
(0.00578488 -0.00114534 9.3678e-05)
(0.00571313 -0.00197777 8.06765e-05)
(0.00684321 0.000418073 0.000127855)
(0.00674601 -0.000415519 0.000114705)
(0.00666035 -0.00123606 0.000102924)
(0.00658531 -0.00207288 8.99898e-05)
(0.000394088 6.35948e-05 5.54959e-06)
(0.000226096 -6.32363e-05 3.85287e-06)
(0.000188798 -0.000128348 2.00409e-06)
(0.000266941 -0.000247313 1.55415e-07)
(0.00132524 0.000339571 1.35421e-05)
(0.00107468 -8.57479e-05 1.09032e-05)
(0.00099729 -0.000388635 7.77004e-06)
(0.00108384 -0.000799153 5.05583e-06)
(0.00224074 0.00049345 2.06973e-05)
(0.00202827 -0.00010224 1.73084e-05)
(0.00193849 -0.000607342 1.36019e-05)
(0.00197003 -0.00120042 1.01526e-05)
(0.00319559 0.00057059 2.67577e-05)
(0.00301986 -0.00013995 2.29201e-05)
(0.00292781 -0.000783918 1.89641e-05)
(0.00291777 -0.00149805 1.51315e-05)
(0.00415209 0.000582402 3.1847e-05)
(0.00400795 -0.000196029 2.77127e-05)
(0.00391664 -0.000928306 2.36504e-05)
(0.00387624 -0.0017123 1.95738e-05)
(0.00508706 0.000548756 3.61107e-05)
(0.00496654 -0.000265038 3.17721e-05)
(0.00487698 -0.00104841 2.76601e-05)
(0.00481659 -0.00186748 2.34059e-05)
(0.00598775 0.000487278 3.97018e-05)
(0.00588331 -0.000341584 3.52332e-05)
(0.00579581 -0.00115108 3.11194e-05)
(0.00572388 -0.00198409 2.67392e-05)
(0.00685525 0.000413356 4.26485e-05)
(0.00675794 -0.00042093 3.82006e-05)
(0.00667211 -0.00124213 3.42156e-05)
(0.00659683 -0.00207966 2.98445e-05)
)
;

boundaryField
{
    interface
    {
        type            tractionDisplacement;
        gradient        nonuniform List<vector> 
192
(
(0.0012504 8.90088e-08 -6.27537e-06)
(0.00125106 2.32615e-07 -7.48491e-06)
(0.0012496 5.25483e-07 -7.47543e-06)
(0.00124673 8.45864e-07 -7.27339e-06)
(0.00124237 1.23213e-06 -6.95727e-06)
(0.00123606 1.75972e-06 -6.48764e-06)
(0.00122701 2.65546e-06 -5.77696e-06)
(0.00121237 4.4017e-06 -4.57372e-06)
(0.00127836 1.58951e-07 -4.18175e-06)
(0.00127813 3.40733e-07 -4.98588e-06)
(0.00127606 6.81215e-07 -4.94782e-06)
(0.00127234 1.07974e-06 -4.77587e-06)
(0.0012667 1.57845e-06 -4.5173e-06)
(0.00125852 2.26978e-06 -4.14438e-06)
(0.00124668 3.43378e-06 -3.60938e-06)
(0.00122774 5.61186e-06 -2.83028e-06)
(0.0012969 2.0556e-07 -2.92788e-06)
(0.00129628 4.22773e-07 -3.50022e-06)
(0.00129375 8.10625e-07 -3.4639e-06)
(0.00128935 1.27314e-06 -3.32432e-06)
(0.00128271 1.85533e-06 -3.11929e-06)
(0.00127309 2.65704e-06 -2.83373e-06)
(0.00125927 3.97152e-06 -2.44508e-06)
(0.00123752 6.33252e-06 -1.9299e-06)
(0.00131022 2.36666e-07 -2.12187e-06)
(0.00130939 4.82114e-07 -2.53952e-06)
(0.00130652 9.12912e-07 -2.50899e-06)
(0.00130157 1.426e-06 -2.39958e-06)
(0.00129415 2.06871e-06 -2.2415e-06)
(0.00128345 2.94405e-06 -2.02736e-06)
(0.00126819 4.35007e-06 -1.74696e-06)
(0.00124452 6.81512e-06 -1.39307e-06)
(0.00131978 2.59652e-07 -1.51365e-06)
(0.00131882 5.26652e-07 -1.81147e-06)
(0.00131569 9.91037e-07 -1.78752e-06)
(0.00131032 1.54199e-06 -1.7059e-06)
(0.0013023 2.22756e-06 -1.58946e-06)
(0.00129082 3.15197e-06 -1.43486e-06)
(0.00127453 4.6157e-06 -1.23756e-06)
(0.00124954 7.14639e-06 -9.95544e-07)
(0.00132642 2.76131e-07 -1.01788e-06)
(0.00132536 5.58719e-07 -1.21811e-06)
(0.00132204 1.04754e-06 -1.20117e-06)
(0.00131638 1.62535e-06 -1.14496e-06)
(0.00130794 2.34023e-06 -1.06545e-06)
(0.0012959 3.29691e-06 -9.61283e-07)
(0.00127891 4.79762e-06 -8.30326e-07)
(0.00125304 7.37104e-06 -6.71486e-07)
(0.00133063 2.87035e-07 -5.86262e-07)
(0.00132951 5.79709e-07 -7.01327e-07)
(0.00132607 1.08477e-06 -6.91544e-07)
(0.00132021 1.68017e-06 -6.58841e-07)
(0.00131151 2.41383e-06 -6.12817e-07)
(0.00129912 3.39091e-06 -5.5309e-07)
(0.00128169 4.9157e-06 -4.77739e-07)
(0.00125526 7.51474e-06 -3.82182e-07)
(0.00133265 2.92824e-07 -1.90632e-07)
(0.00133149 5.90077e-07 -2.27698e-07)
(0.001328 1.10224e-06 -2.24725e-07)
(0.00132205 1.70638e-06 -2.14081e-07)
(0.00131322 2.44881e-06 -1.99112e-07)
(0.00130067 3.43614e-06 -1.79825e-07)
(0.00128303 4.97701e-06 -1.55001e-07)
(0.00125626 7.58408e-06 -1.20792e-07)
(1.09308e-05 7.23725e-08 0.00114973)
(1.30776e-05 1.27851e-07 0.00114889)
(1.31548e-05 1.98457e-07 0.00114824)
(1.29808e-05 2.92527e-07 0.0011473)
(1.2715e-05 4.04896e-07 0.00114595)
(1.23458e-05 5.36693e-07 0.00114413)
(1.18492e-05 6.86119e-07 0.00114175)
(1.13079e-05 8.03277e-07 0.00113874)
(1.00547e-05 2.11513e-08 0.0010997)
(1.20342e-05 3.77271e-08 0.00109949)
(1.21003e-05 5.67502e-08 0.0010993)
(1.19489e-05 8.24212e-08 0.00109902)
(1.17254e-05 1.12105e-07 0.00109863)
(1.14243e-05 1.44074e-07 0.00109811)
(1.10382e-05 1.71046e-07 0.00109746)
(1.0708e-05 1.6209e-07 0.00109671)
(1.00418e-05 -2.70428e-08 0.00105277)
(1.20188e-05 -4.56996e-08 0.00105298)
(1.20844e-05 -6.9588e-08 0.00105321)
(1.1933e-05 -1.00411e-07 0.00105354)
(1.171e-05 -1.3707e-07 0.001054)
(1.141e-05 -1.80176e-07 0.00105463)
(1.10258e-05 -2.2871e-07 0.00105544)
(1.06983e-05 -2.6355e-07 0.00105648)
(1.09054e-05 -8.04064e-08 0.00100291)
(1.30452e-05 -1.36982e-07 0.00100376)
(1.312e-05 -2.11694e-07 0.00100444)
(1.29457e-05 -3.09713e-07 0.00100544)
(1.26804e-05 -4.27843e-07 0.00100685)
(1.23126e-05 -5.69225e-07 0.00100876)
(1.18188e-05 -7.38586e-07 0.00101129)
(1.12818e-05 -8.99354e-07 0.00101456)
(-0.000903606 -9.63547e-08 6.85177e-06)
(-0.000902881 -2.51564e-07 8.12936e-06)
(-0.000904348 -5.72774e-07 8.11249e-06)
(-0.00090722 -9.20022e-07 7.89131e-06)
(-0.000911576 -1.33875e-06 7.54482e-06)
(-0.000917854 -1.91504e-06 7.02877e-06)
(-0.00092686 -2.91625e-06 6.2435e-06)
(-0.00094155 -4.95238e-06 4.89368e-06)
(-0.000876477 -1.72336e-07 4.42126e-06)
(-0.000876696 -3.68407e-07 5.23941e-06)
(-0.000878763 -7.40343e-07 5.19106e-06)
(-0.000882477 -1.17274e-06 5.00456e-06)
(-0.000888098 -1.71422e-06 4.72407e-06)
(-0.000896245 -2.4707e-06 4.31857e-06)
(-0.000908024 -3.77243e-06 3.7342e-06)
(-0.000927051 -6.30466e-06 2.87503e-06)
(-0.000858904 -2.23527e-07 3.02815e-06)
(-0.000859518 -4.57468e-07 3.59773e-06)
(-0.000862036 -8.80012e-07 3.55226e-06)
(-0.00086643 -1.38156e-06 3.40144e-06)
(-0.000873045 -2.0136e-06 3.18024e-06)
(-0.000882602 -2.89053e-06 2.87178e-06)
(-0.000896351 -4.35875e-06 2.45083e-06)
(-0.000918167 -7.09737e-06 1.88924e-06)
(-0.00084644 -2.57774e-07 2.16159e-06)
(-0.000847264 -5.21851e-07 2.57079e-06)
(-0.000850126 -9.90306e-07 2.53274e-06)
(-0.00085506 -1.54618e-06 2.41474e-06)
(-0.000862449 -2.24345e-06 2.24466e-06)
(-0.000873069 -3.20009e-06 2.01421e-06)
(-0.000888236 -4.76849e-06 1.71208e-06)
(-0.000911949 -7.62329e-06 1.32891e-06)
(-0.000837595 -2.83051e-07 1.52365e-06)
(-0.00083856 -5.70096e-07 1.81175e-06)
(-0.000841682 -1.07445e-06 1.78199e-06)
(-0.000847026 -1.67087e-06 1.69407e-06)
(-0.000854997 -2.41412e-06 1.56902e-06)
(-0.000866396 -3.42352e-06 1.40308e-06)
(-0.00088257 -5.05455e-06 1.19126e-06)
(-0.000907581 -7.98206e-06 9.30362e-07)
(-0.000831511 -3.01135e-07 1.01526e-06)
(-0.000832571 -6.04765e-07 1.20705e-06)
(-0.000835879 -1.13523e-06 1.18601e-06)
(-0.000841519 -1.76034e-06 1.1255e-06)
(-0.000849902 -2.53489e-06 1.04024e-06)
(-0.000861845 -3.57878e-06 9.28656e-07)
(-0.000878708 -5.24964e-06 7.88457e-07)
(-0.000904589 -8.22417e-06 6.17775e-07)
(-0.000827684 -3.13066e-07 5.81157e-07)
(-0.000828802 -6.27424e-07 6.90621e-07)
(-0.00083223 -1.17521e-06 6.7841e-07)
(-0.000838059 -1.81904e-06 6.43226e-07)
(-0.000846706 -2.61357e-06 5.93914e-07)
(-0.000858993 -3.67914e-06 5.30029e-07)
(-0.000876286 -5.37574e-06 4.49542e-07)
(-0.000902707 -8.37837e-06 3.46949e-07)
(-0.000825854 -3.19376e-07 1.88378e-07)
(-0.000827006 -6.38536e-07 2.23531e-07)
(-0.000830489 -1.19398e-06 2.19753e-07)
(-0.000836409 -1.8471e-06 2.083e-07)
(-0.000845182 -2.65092e-06 1.92268e-07)
(-0.000857629 -3.72725e-06 1.71653e-07)
(-0.000875121 -5.44102e-06 1.45178e-07)
(-0.000901879 -8.45211e-06 1.08378e-07)
(1.13077e-05 -0.00113956 -9.86196e-07)
(1.18661e-05 -0.00114323 -8.3836e-07)
(1.23873e-05 -0.00114616 -6.69958e-07)
(1.27835e-05 -0.00114847 -5.21832e-07)
(1.30767e-05 -0.00115024 -3.91006e-07)
(1.32868e-05 -0.00115152 -2.72808e-07)
(1.34306e-05 -0.00115236 -1.66012e-07)
(1.35055e-05 -0.00115283 -5.78898e-08)
(1.07333e-05 -0.00109747 -3.23353e-07)
(1.10861e-05 -0.00109878 -2.9851e-07)
(1.14951e-05 -0.00109989 -2.50886e-07)
(1.18192e-05 -0.0011008 -2.02547e-07)
(1.20647e-05 -0.00110151 -1.55909e-07)
(1.22434e-05 -0.00110204 -1.10734e-07)
(1.23687e-05 -0.0011024 -6.67961e-08)
(1.24387e-05 -0.00110257 -2.25708e-08)
(1.07338e-05 -0.00105712 1.29308e-07)
(1.10872e-05 -0.00105654 1.24779e-07)
(1.1494e-05 -0.00105609 9.54584e-08)
(1.18153e-05 -0.00105577 6.74789e-08)
(1.20582e-05 -0.00105555 4.5425e-08)
(1.22347e-05 -0.00105541 2.87838e-08)
(1.23586e-05 -0.00105532 1.65634e-08)
(1.24277e-05 -0.00105528 5.73912e-09)
(1.13263e-05 -0.00101504 7.95589e-07)
(1.18919e-05 -0.00101212 6.58727e-07)
(1.24086e-05 -0.00100987 5.05786e-07)
(1.27978e-05 -0.00100817 3.78169e-07)
(1.3084e-05 -0.00100692 2.73189e-07)
(1.32882e-05 -0.00100604 1.85436e-07)
(1.34278e-05 -0.00100548 1.12584e-07)
(1.35008e-05 -0.00100515 4.00141e-08)
)
;
        traction        nonuniform List<vector> 
192
(
(26.7942 0.00190733 -0.134472)
(26.8085 0.00498462 -0.160391)
(26.7772 0.0112604 -0.160188)
(26.7157 0.0181257 -0.155858)
(26.6222 0.0264028 -0.149084)
(26.487 0.0377082 -0.139021)
(26.293 0.0569026 -0.123792)
(25.9793 0.0943222 -0.0980083)
(27.3935 0.0034061 -0.0896089)
(27.3884 0.00730142 -0.10684)
(27.3441 0.0145975 -0.106025)
(27.2645 0.0231373 -0.10234)
(27.1437 0.033824 -0.0967993)
(26.9683 0.0486382 -0.0888082)
(26.7147 0.0735809 -0.077344)
(26.3087 0.120254 -0.0606489)
(27.7907 0.00440487 -0.0627403)
(27.7773 0.00905942 -0.0750048)
(27.7233 0.0173705 -0.0742265)
(27.6289 0.0272816 -0.0712353)
(27.4865 0.039757 -0.066842)
(27.2806 0.0569365 -0.0607228)
(26.9843 0.085104 -0.0523946)
(26.5182 0.135697 -0.0413549)
(28.0762 0.00507141 -0.0454687)
(28.0584 0.010331 -0.0544183)
(27.997 0.0195624 -0.0537641)
(27.8909 0.0305572 -0.0514196)
(27.7317 0.0443295 -0.0480322)
(27.5026 0.0630869 -0.0434433)
(27.1755 0.0932158 -0.0374349)
(26.6683 0.146038 -0.0298516)
(28.2811 0.00556398 -0.0324353)
(28.2603 0.0112854 -0.0388172)
(28.1933 0.0212365 -0.038304)
(28.0783 0.0330426 -0.0365551)
(27.9065 0.0477333 -0.0340599)
(27.6604 0.0675421 -0.0307469)
(27.3113 0.0989078 -0.0265191)
(26.7759 0.153137 -0.0213331)
(28.4234 0.00591708 -0.0218117)
(28.4006 0.0119725 -0.0261023)
(28.3295 0.0224473 -0.0257394)
(28.2081 0.034829 -0.0245348)
(28.0273 0.0501478 -0.0228311)
(27.7694 0.0706481 -0.0205989)
(27.4052 0.102806 -0.0177927)
(26.8508 0.157951 -0.014389)
(28.5135 0.00615074 -0.0125628)
(28.4894 0.0124223 -0.0150284)
(28.4158 0.023245 -0.0148188)
(28.2903 0.0360036 -0.014118)
(28.1037 0.0517248 -0.0131318)
(27.8383 0.0726623 -0.0118519)
(27.4647 0.105336 -0.0102373)
(26.8984 0.16103 -0.00818961)
(28.5567 0.00627479 -0.00408497)
(28.532 0.0126445 -0.00487923)
(28.4571 0.0236193 -0.00481554)
(28.3296 0.0365652 -0.00458744)
(28.1404 0.0524745 -0.00426669)
(27.8714 0.0736316 -0.00385339)
(27.4935 0.10665 -0.00332146)
(26.9199 0.162516 -0.00258841)
(0.234232 0.00155084 24.637)
(0.280235 0.00273965 24.6191)
(0.281888 0.00425265 24.6052)
(0.278159 0.00626843 24.5849)
(0.272465 0.00867633 24.5561)
(0.264553 0.0115006 24.5171)
(0.253912 0.0147025 24.4661)
(0.242312 0.0172131 24.4015)
(0.215458 0.000453242 23.565)
(0.257875 0.000808438 23.5605)
(0.259292 0.00121608 23.5564)
(0.256048 0.00176617 23.5504)
(0.251258 0.00240225 23.542)
(0.244806 0.00308729 23.5309)
(0.236532 0.00366528 23.517)
(0.229457 0.00347336 23.5009)
(0.215181 -0.00057949 22.5593)
(0.257546 -0.000979277 22.564)
(0.258951 -0.00149117 22.5688)
(0.255708 -0.00215167 22.5758)
(0.250929 -0.00293722 22.5858)
(0.244501 -0.00386092 22.5992)
(0.236268 -0.00490093 22.6167)
(0.22925 -0.00564749 22.6389)
(0.233687 -0.00172299 21.4909)
(0.279539 -0.00293532 21.5091)
(0.281144 -0.00453631 21.5238)
(0.277407 -0.00663671 21.5451)
(0.271722 -0.00916805 21.5754)
(0.263841 -0.0121977 21.6164)
(0.253261 -0.0158268 21.6704)
(0.241752 -0.0192719 21.7405)
(-19.363 -0.00206474 0.146824)
(-19.3475 -0.00539066 0.174201)
(-19.3789 -0.0122737 0.173839)
(-19.4404 -0.0197148 0.1691)
(-19.5338 -0.0286875 0.161675)
(-19.6683 -0.0410367 0.150616)
(-19.8613 -0.0624911 0.133789)
(-20.1761 -0.106122 0.104865)
(-18.7816 -0.00369291 0.0947413)
(-18.7863 -0.00789443 0.112273)
(-18.8306 -0.0158645 0.111237)
(-18.9102 -0.0251302 0.107241)
(-19.0307 -0.0367334 0.10123)
(-19.2052 -0.0529437 0.0925409)
(-19.4577 -0.0808377 0.0800185)
(-19.8654 -0.1351 0.0616077)
(-18.4051 -0.00478987 0.064889)
(-18.4182 -0.00980289 0.0770943)
(-18.4722 -0.0188574 0.0761199)
(-18.5664 -0.0296049 0.0728881)
(-18.7081 -0.0431486 0.0681481)
(-18.9129 -0.06194 0.0615382)
(-19.2075 -0.0934018 0.0525179)
(-19.675 -0.152086 0.0404836)
(-18.138 -0.00552373 0.0463197)
(-18.1556 -0.0111825 0.0550883)
(-18.217 -0.0212208 0.054273)
(-18.3227 -0.0331325 0.0517444)
(-18.481 -0.048074 0.0480998)
(-18.7086 -0.0685733 0.0431617)
(-19.0336 -0.102182 0.0366875)
(-19.5418 -0.163356 0.0284766)
(-17.9485 -0.00606538 0.0326497)
(-17.9691 -0.0122163 0.0388231)
(-18.036 -0.023024 0.0381856)
(-18.1506 -0.0358044 0.0363015)
(-18.3214 -0.0517312 0.0336219)
(-18.5656 -0.0733611 0.0300661)
(-18.9122 -0.108312 0.0255271)
(-19.4482 -0.171044 0.0199363)
(-17.8181 -0.00645288 0.0217555)
(-17.8408 -0.0129593 0.0258653)
(-17.9117 -0.0243264 0.0254145)
(-18.0325 -0.0377215 0.0241178)
(-18.2122 -0.0543192 0.0222908)
(-18.4681 -0.0766882 0.0198998)
(-18.8294 -0.112492 0.0168955)
(-19.3841 -0.176232 0.013238)
(-17.7361 -0.00670857 0.0124534)
(-17.7601 -0.0134448 0.014799)
(-17.8335 -0.0251831 0.0145374)
(-17.9584 -0.0389794 0.0137834)
(-18.1437 -0.0560052 0.0127267)
(-18.407 -0.0788387 0.0113578)
(-18.7775 -0.115194 0.00963305)
(-19.3437 -0.179537 0.00743463)
(-17.6969 -0.00684377 0.00403667)
(-17.7216 -0.0136829 0.00478996)
(-17.7962 -0.0255853 0.00470898)
(-17.9231 -0.0395806 0.00446357)
(-18.111 -0.0568055 0.00412003)
(-18.3778 -0.0798697 0.00367828)
(-18.7526 -0.116593 0.00311095)
(-19.326 -0.181117 0.00232238)
(0.242309 -24.4191 -0.0211328)
(0.254273 -24.4977 -0.0179648)
(0.265441 -24.5605 -0.0143563)
(0.273931 -24.61 -0.0111821)
(0.280215 -24.6479 -0.00837869)
(0.284717 -24.6755 -0.00584588)
(0.287799 -24.6935 -0.0035574)
(0.289404 -24.7035 -0.0012405)
(0.229999 -23.5171 -0.006929)
(0.237559 -23.5453 -0.00639663)
(0.246324 -23.5691 -0.00537612)
(0.253268 -23.5885 -0.00434029)
(0.25853 -23.6038 -0.00334091)
(0.262358 -23.6152 -0.00237288)
(0.265043 -23.6228 -0.00143135)
(0.266544 -23.6265 -0.00048366)
(0.23001 -22.6525 0.00277088)
(0.237582 -22.6402 0.00267384)
(0.2463 -22.6305 0.00204554)
(0.253185 -22.6237 0.00144598)
(0.25839 -22.6189 0.000973392)
(0.262173 -22.6158 0.000616796)
(0.264827 -22.614 0.00035493)
(0.266308 -22.6131 0.000122981)
(0.242706 -21.7508 0.0170483)
(0.254825 -21.6882 0.0141156)
(0.265899 -21.64 0.0108383)
(0.274239 -21.6037 0.00810362)
(0.280372 -21.5769 0.00585405)
(0.284748 -21.558 0.00397363)
(0.287739 -21.5459 0.00241252)
(0.289303 -21.5389 0.000857445)
)
;
        pressure        uniform 0;
        value           nonuniform List<vector> 
192
(
(0.000684082 0.000527083 0.000397756)
(0.00124376 0.000790724 0.000508472)
(0.00212778 0.00104923 0.000572218)
(0.00302846 0.00116676 0.000581702)
(0.00396682 0.00119518 0.00058091)
(0.00489409 0.00115368 0.000581065)
(0.00579229 0.00107174 0.0005902)
(0.00665591 0.00097451 0.000609899)
(0.000685589 0.000537245 0.000222676)
(0.00135764 0.00074854 0.000358404)
(0.00221147 0.00100019 0.000442621)
(0.0031083 0.00112171 0.000479455)
(0.00403136 0.00115395 0.000498401)
(0.00494692 0.00111707 0.000511893)
(0.00583694 0.00103914 0.000527774)
(0.00669753 0.000945802 0.000549308)
(0.000706725 0.000558078 0.000132983)
(0.0014101 0.000738381 0.000247239)
(0.00227612 0.000968266 0.000328989)
(0.00317259 0.00108317 0.000379357)
(0.00409049 0.00111397 0.000411275)
(0.00500014 0.00107949 0.000434777)
(0.00588574 0.00100562 0.000456222)
(0.00674457 0.000917416 0.000478981)
(0.000722047 0.000572035 8.2884e-05)
(0.00144154 0.000736841 0.000171845)
(0.00231991 0.000952471 0.00024134)
(0.00322139 0.00105755 0.000291207)
(0.00413994 0.00108397 0.000327059)
(0.0050484 0.00104891 0.000354521)
(0.0059328 0.000976942 0.000378019)
(0.00679165 0.000892139 0.000400095)
(0.000732039 0.000580897 5.2726e-05)
(0.00146161 0.000738087 0.000118323)
(0.00234948 0.000945243 0.000172699)
(0.00325695 0.00104258 0.000215114)
(0.00417868 0.00106409 0.00024794)
(0.00508852 0.00102698 0.000273997)
(0.0059737 0.000955202 0.000295905)
(0.00683362 0.000872114 0.000315195)
(0.00073848 0.000586515 3.28061e-05)
(0.00147465 0.000739981 7.76557e-05)
(0.00236931 0.000942297 0.000116338)
(0.00328192 0.00103442 0.000148018)
(0.00420714 0.00105196 0.000173631)
(0.0051192 0.00101261 0.000194489)
(0.00600593 0.000940247 0.000211967)
(0.00686736 0.000857798 0.000226805)
(0.000742385 0.000589885 1.80803e-05)
(0.00148262 0.000741597 4.41958e-05)
(0.00238168 0.000941314 6.72765e-05)
(0.0032979 0.00103032 8.67118e-05)
(0.00422586 0.00104521 0.00010282)
(0.00513987 0.00100415 0.000116146)
(0.00602807 0.000931106 0.000127316)
(0.00689082 0.000848788 0.000136607)
(0.000744236 0.000591478 5.78948e-06)
(0.00148642 0.000742498 1.43645e-05)
(0.00238765 0.000941083 2.20316e-05)
(0.00330571 0.00102863 2.85704e-05)
(0.00423515 0.00104223 3.40516e-05)
(0.00515026 0.00100027 3.86201e-05)
(0.00603931 0.000926811 4.24515e-05)
(0.00690281 0.000844474 4.5609e-05)
(0.000332053 0.000320544 0.000602941)
(0.0010746 0.000446706 0.000507279)
(0.00195175 0.000635062 0.000596555)
(0.00289402 0.000714353 0.000595085)
(0.00386221 0.000733539 0.000595892)
(0.00481324 0.000702081 0.000596918)
(0.00572498 0.000639275 0.000607121)
(0.00659179 0.000559644 0.000626948)
(0.000132556 0.000122998 0.00028949)
(0.000847275 4.97931e-05 0.000375348)
(0.0017478 5.96797e-05 0.000445192)
(0.00272709 2.64381e-05 0.000487484)
(0.00372331 -2.71968e-05 0.000519604)
(0.0046953 -9.68566e-05 0.000545984)
(0.0056213 -0.000174996 0.000571223)
(0.00649484 -0.000256781 0.000596379)
(7.6728e-05 -4.86182e-05 5.12161e-05)
(0.000771035 -0.000236053 0.000168712)
(0.00166428 -0.000429681 0.000280253)
(0.00264508 -0.000596465 0.000369163)
(0.00364125 -0.000740702 0.000438733)
(0.00461249 -0.000863131 0.000492575)
(0.00553752 -0.000967152 0.000535261)
(0.00641038 -0.0010569 0.000573285)
(0.000141207 -0.000252227 -0.000246497)
(0.000847135 -0.000621889 1.35116e-06)
(0.00170554 -0.00100295 0.000126516)
(0.002648 -0.00128925 0.000261471)
(0.00361417 -0.00150658 0.000364689)
(0.00456265 -0.00166583 0.000443122)
(0.00547169 -0.00178344 0.000500031)
(0.00633673 -0.00187413 0.000542621)
(0.000349686 -0.000554682 -0.000190008)
(0.000959992 -0.00107384 -4.31638e-05)
(0.00179237 -0.00151059 8.83341e-05)
(0.00269148 -0.00181312 0.000214837)
(0.00362636 -0.00202105 0.00031623)
(0.00455313 -0.00215764 0.00039265)
(0.00545082 -0.0022498 0.000447373)
(0.00631445 -0.00232194 0.00048814)
(0.00041564 -0.000604881 -0.000100802)
(0.00104159 -0.00112125 -9.59525e-06)
(0.00186447 -0.00156309 8.86952e-05)
(0.00275733 -0.00186384 0.00018317)
(0.0036811 -0.0020677 0.000261491)
(0.00459959 -0.00220153 0.0003224)
(0.00549297 -0.0022928 0.000368297)
(0.0063565 -0.00236585 0.000405066)
(0.000450884 -0.000638795 -4.8906e-05)
(0.00109097 -0.001145 1.41477e-05)
(0.00191946 -0.00159167 8.44522e-05)
(0.00281144 -0.00189452 0.000153683)
(0.00373209 -0.0020999 0.000212612)
(0.00464744 -0.00223587 0.000259854)
(0.0055393 -0.00233005 0.000297208)
(0.00640368 -0.00240645 0.000329047)
(0.000470097 -0.000659102 -2.22011e-05)
(0.00112242 -0.00116143 2.34326e-05)
(0.0019585 -0.00161159 7.42866e-05)
(0.00285374 -0.00191746 0.000124633)
(0.00377569 -0.00212572 0.000168296)
(0.0046915 -0.0022646 0.000204245)
(0.00558409 -0.00236186 0.000233765)
(0.0064502 -0.00244125 0.00026002)
(0.000481596 -0.00067174 -9.20924e-06)
(0.00114283 -0.00117356 2.36984e-05)
(0.00198593 -0.00162692 5.99827e-05)
(0.00288567 -0.00193577 9.58651e-05)
(0.00381066 -0.00214682 0.000127423)
(0.00472856 -0.00228826 0.000153951)
(0.00562295 -0.00238794 0.000176341)
(0.00649105 -0.00246953 0.000196769)
(0.000488823 -0.000679774 -3.3166e-06)
(0.00115618 -0.00118232 1.91038e-05)
(0.00200479 -0.00163845 4.35558e-05)
(0.00290866 -0.00194978 6.76953e-05)
(0.00383681 -0.00216309 8.91383e-05)
(0.00475712 -0.00230647 0.00010744)
(0.00565348 -0.00240784 0.000123169)
(0.00652343 -0.00249093 0.000137717)
(0.000493181 -0.00068463 -9.43227e-07)
(0.0011644 -0.00118805 1.21373e-05)
(0.00201673 -0.00164619 2.62877e-05)
(0.00292362 -0.0019593 4.02434e-05)
(0.00385422 -0.00217415 5.2722e-05)
(0.00477645 -0.00231882 6.3478e-05)
(0.00567438 -0.00242124 7.28224e-05)
(0.00654571 -0.00250526 8.1522e-05)
(0.000495249 -0.000686939 -1.63077e-07)
(0.00116834 -0.00119089 4.14015e-06)
(0.00202253 -0.00165008 8.77594e-06)
(0.00293099 -0.0019641 1.33461e-05)
(0.0038629 -0.00217974 1.7446e-05)
(0.00478619 -0.00232504 2.0997e-05)
(0.00568496 -0.00242797 2.40976e-05)
(0.00655703 -0.00251244 2.69913e-05)
(0.00702461 0.000506564 0.000605881)
(0.00706743 0.000478072 0.000540233)