/*--------------------------------*- C++ -*----------------------------------*\
| =========                 |                                                 |
| \\      /  F ield         | foam-extend: Open Source CFD                    |
|  \\    /   O peration     | Version:     3.1                                |
|   \\  /    A nd           | Web:         http://www.extend-project.de       |
|    \\/     M anipulation  |                                                 |
\*---------------------------------------------------------------------------*/
FoamFile
{
    version     2.0;
    format      ascii;
    class       volSymmTensorField;
    location    "0.5";
    object      epsilon;
}
// * * * * * * * * * * * * * * * * * * * * * * * * * * * * * * * * * * * * * //

dimensions      [0 0 0 0 0 0 0];

internalField   nonuniform List<symmTensor> 
256
(
(-0.00953096 0.0143446 -0.000583023 0.0295445 0.00969388 -0.00513511)
(-0.00364148 0.012358 -0.00147901 0.00435598 0.00542161 -0.00296785)
(0.000459558 0.0108396 -0.00152368 -0.011275 0.000239237 -0.000237654)
(0.00536369 0.0100268 -0.000588432 -0.0340169 -0.00424512 0.00194012)
(-0.0159605 0.00486824 -0.00058177 0.0130557 -0.000868736 -0.00819795)
(-0.00739752 0.0136982 -0.00209796 0.00277605 -0.000133057 -0.00501297)
(0.00068153 0.0135735 -0.00224878 -0.0103075 0.00115937 -0.000923983)
(0.00876268 0.00551386 -0.000721864 -0.021706 0.0019614 0.00238875)
(-0.0122766 0.00571872 -0.0001512 0.0115118 0.000137561 -0.00594697)
(-0.00711405 0.0120357 -0.00110646 0.00195358 0.000232636 -0.00406393)
(-6.93592e-05 0.0121498 -0.00122346 -0.00859361 0.000509772 -0.00162244)
(0.0054058 0.00578113 -0.00027669 -0.0182966 0.000788348 0.000391563)
(-0.00996009 0.0044316 -0.000165145 0.00618004 -0.000575973 -0.00514532)
(-0.00609947 0.00990834 -0.000724471 0.000233284 -0.000102063 -0.00382324)
(-0.000893442 0.00999391 -0.000762461 -0.0069097 0.000365732 -0.00213668)
(0.00303035 0.00458329 -0.000197054 -0.0129243 0.000866644 -0.000781355)
(-0.00759858 0.00349623 -6.39742e-05 0.00235108 -0.000527067 -0.00417694)
(-0.00515113 0.00762221 -0.000380662 -0.00109237 -0.000141387 -0.00351824)
(-0.00158913 0.00764777 -0.000401783 -0.00553376 0.000186338 -0.00261717)
(0.000840553 0.00352848 -8.62104e-05 -0.00889768 0.000572027 -0.00193572)
(-0.00589412 0.00240961 -2.52308e-05 -0.000595952 -0.000444827 -0.00352606)
(-0.00444766 0.0053576 -0.000162317 -0.00206673 -0.00015572 -0.00332948)
(-0.00214613 0.00535345 -0.000171471 -0.00444769 6.62352e-05 -0.00297886)
(-0.000753148 0.00241435 -3.36245e-05 -0.00584487 0.000329734 -0.00276972)
(-0.00483546 0.00138968 -3.99784e-06 -0.00236112 -0.000265915 -0.00310249)
(-0.00399441 0.00326762 -9.06965e-06 -0.00266358 -0.00012539 -0.00321173)
(-0.00253803 0.00325446 -1.0348e-05 -0.00367649 -1.47817e-05 -0.00323987)
(-0.0017411 0.0013891 -3.43492e-06 -0.00392368 9.78639e-05 -0.00334053)
(-0.00461788 0.000455235 3.38534e-05 -0.00287736 -7.27814e-05 -0.0028864)
(-0.00399559 0.0013724 0.000156604 -0.00289695 -4.83752e-05 -0.00315628)
(-0.0025249 0.00135581 0.000161363 -0.00329825 -2.8987e-05 -0.00340623)
(-0.00193372 0.000450403 4.33582e-05 -0.00329336 -2.13253e-05 -0.00366922)
(-0.00957548 0.0161521 -0.000443176 0.0256703 0.00717149 -0.00321781)
(-0.00343477 0.0146737 -0.00119435 0.00106472 0.00415583 -0.00179244)
(0.000406282 0.0132684 -0.00123335 -0.0131204 0.000585073 2.61938e-07)
(0.00551892 0.0120832 -0.000441798 -0.0352562 -0.00261448 0.00149645)
(-0.0161477 0.00548039 -0.000595194 0.0149911 0.00187163 -0.00634916)
(-0.0071397 0.0146521 -0.00200821 0.00374923 0.00155692 -0.0037751)
(0.000456224 0.0144751 -0.00213036 -0.0112156 0.00163223 -0.000555327)
(0.00890216 0.00590862 -0.000715068 -0.0236016 0.00142511 0.0021698)
(-0.0123647 0.00536776 -0.000247435 0.0115388 0.000422247 -0.00591684)
(-0.00695891 0.0116648 -0.00128987 0.00209495 0.00063607 -0.00392012)
(-0.000401185 0.0117587 -0.00141512 -0.00858858 0.00112581 -0.00148082)
(0.00523295 0.00545675 -0.000441609 -0.0182624 0.00149864 0.000608711)
(-0.00987366 0.00402734 -9.38248e-05 0.00647957 -0.00035717 -0.00510483)
(-0.00597271 0.00920159 -0.000684946 0.000504842 0.000152024 -0.00376504)
(-0.001229 0.00927267 -0.000753122 -0.00671433 0.00075887 -0.00213939)
(0.00273268 0.00415157 -0.000197776 -0.012751 0.00131496 -0.000775057)
(-0.00752604 0.0030237 6.38611e-05 0.00243638 -0.000607409 -0.0042705)
(-0.00507773 0.00685521 -0.000237517 -0.000924992 -9.39883e-05 -0.00355849)
(-0.00185437 0.00688802 -0.000276266 -0.00526602 0.000442169 -0.00264098)
(0.000586045 0.00307242 -2.91151e-06 -0.00856455 0.00094859 -0.0019208)
(-0.00582572 0.0020319 0.000152209 -0.0005595 -0.000576077 -0.00362418)
(-0.00440126 0.00472258 6.48296e-05 -0.00197209 -0.000181691 -0.00338761)
(-0.00232302 0.00473266 4.54079e-05 -0.00422621 0.000197146 -0.00300077)
(-0.000939708 0.00205942 0.000116816 -0.00557057 0.000553912 -0.00276079)
(-0.00479182 0.00113511 0.000202534 -0.00234809 -0.000379972 -0.00321655)
(-0.00397101 0.00283009 0.000269117 -0.00263226 -0.000167677 -0.00328875)
(-0.00261986 0.00283122 0.000264615 -0.00354907 3.6956e-05 -0.00325158)
(-0.0018355 0.00115978 0.000192123 -0.00377577 0.000206043 -0.00331965)
(-0.00457937 0.000361538 0.000271665 -0.00281997 -0.000137463 -0.00303458)
(-0.00397508 0.00117348 0.000470853 -0.00285924 -7.72963e-05 -0.0032741)
(-0.00254787 0.00116264 0.000478486 -0.00324636 -1.04544e-05 -0.00344118)
(-0.00196998 0.000363575 0.000283801 -0.00325807 2.21062e-05 -0.00367442)
(-0.00994366 0.0169669 -0.000292046 0.025448 0.00473636 -0.0019715)
(-0.00351641 0.0155284 -0.000784287 0.000356372 0.00287617 -0.00111145)
(0.000591594 0.0141812 -0.000815486 -0.0137875 0.000686318 -4.35872e-05)
(0.00596618 0.0130579 -0.000319709 -0.0363953 -0.0012953 0.000876984)
(-0.0168934 0.00584728 -0.000487644 0.0139888 0.00208269 -0.00431485)
(-0.00742252 0.0153219 -0.00139973 0.00310182 0.00163333 -0.00261052)
(0.000757057 0.0150821 -0.00146909 -0.0117963 0.00143306 -0.00055069)
(0.00965502 0.00607365 -0.000550614 -0.023735 0.00106397 0.00124802)
(-0.0129509 0.00542862 -0.000292378 0.0111386 0.000939028 -0.00469844)
(-0.00728824 0.011968 -0.000993762 0.00187662 0.000922149 -0.00315302)
(-0.000265347 0.0120642 -0.00106197 -0.00886644 0.00113422 -0.00138112)
(0.00563038 0.00555212 -0.000374651 -0.0184478 0.0012232 0.000187454)
(-0.0101895 0.00401368 -0.000114919 0.00634127 0.000167067 -0.00452369)
(-0.00619454 0.00920825 -0.000535425 0.00043298 0.000415477 -0.00334176)
(-0.00123524 0.00929091 -0.000583609 -0.00680299 0.000802955 -0.00203351)
(0.0028517 0.00414903 -0.000176502 -0.0128156 0.00109262 -0.000875407)
(-0.00768878 0.00293665 3.46506e-05 0.00245464 -0.000206469 -0.00413551)
(-0.00521935 0.00673296 -0.000147611 -0.000903016 0.000105959 -0.00336905)
(-0.00191286 0.00677994 -0.000176598 -0.00528001 0.000490089 -0.00252958)
(0.000569564 0.00300776 -5.19835e-06 -0.00860809 0.000796509 -0.00179077)
(-0.00587073 0.00193486 0.000138226 -0.000443922 -0.000307903 -0.00377238)
(-0.00447238 0.00456207 0.000133998 -0.0019169 -4.92113e-05 -0.00335336)
(-0.00238983 0.00458619 0.000119042 -0.00422268 0.000238693 -0.00289226)
(-0.00101842 0.00198167 0.000115989 -0.00564125 0.000466114 -0.00249131)
(-0.00475979 0.00105166 0.000205759 -0.00217169 -0.000235589 -0.00354011)
(-0.00398691 0.00269737 0.000335098 -0.00256275 -9.12644e-05 -0.00336178)
(-0.00266984 0.00270966 0.000331473 -0.00355446 7.04157e-05 -0.00316058)
(-0.0019265 0.00109397 0.000198298 -0.00388589 0.000177375 -0.00298715)
(-0.00448581 0.0003398 0.000279282 -0.00263597 -8.73684e-05 -0.00348218)
(-0.00394336 0.00112298 0.000516073 -0.00277348 -4.98231e-05 -0.00343684)
(-0.00258724 0.00111604 0.000522718 -0.00324735 3.35754e-06 -0.00338673)
(-0.00206873 0.000344836 0.000287879 -0.00335196 1.72638e-05 -0.00333748)
(-0.010247 0.01741 -0.000179451 0.0255817 0.00313883 -0.00125152)
(-0.00359475 0.0159431 -0.000491026 9.50232e-05 0.00199934 -0.000741472)
(0.000720315 0.0146238 -0.00051177 -0.0141171 0.000658194 -0.000103501)
(0.00629133 0.013568 -0.000203627 -0.0371116 -0.000557402 0.000444417)
(-0.0174453 0.00604595 -0.000325512 0.0133064 0.00178864 -0.00295141)
(-0.00762807 0.015776 -0.0009112 0.00264066 0.0013892 -0.00188189)
(0.00099016 0.0155163 -0.00094888 -0.0121424 0.00113778 -0.000586538)
(0.0102296 0.00621457 -0.000362327 -0.0237811 0.000780554 0.000541838)
(-0.0134057 0.00557959 -0.000223275 0.0106485 0.00107305 -0.00360197)
(-0.00752754 0.0123067 -0.000689559 0.00155563 0.000933919 -0.00252614)
(-0.000117095 0.012396 -0.000722359 -0.00913152 0.000960869 -0.00130018)
(0.0060169 0.00569402 -0.0002626 -0.0185909 0.00088409 -0.000208575)
(-0.0105094 0.00409588 -9.52383e-05 0.0060647 0.000494253 -0.00383624)
(-0.0063896 0.00940851 -0.000379873 0.000247205 0.000536563 -0.00290863)
(-0.00118756 0.00949698 -0.000405629 -0.00697167 0.000708595 -0.0019062)
(0.00305433 0.00423672 -0.000128393 -0.0129348 0.000785551 -0.00099729)
(-0.00786823 0.00297011 2.30424e-05 0.0023603 0.00013411 -0.00383684)
(-0.00535324 0.0068284 -9.04701e-05 -0.000981567 0.000251197 -0.00312578)
(-0.00192146 0.00688331 -0.000106908 -0.00538775 0.000450441 -0.00238687)
(0.000628113 0.00305142 3.29392e-07 -0.00872827 0.000568399 -0.00170272)
(-0.00593714 0.0019375 0.000113089 -0.000404179 -3.38535e-05 -0.00377056)
(-0.00454764 0.00459012 0.000135623 -0.00192428 7.74106e-05 -0.00326396)
(-0.00242069 0.00462209 0.000126796 -0.00429571 0.000235801 -0.00275507)
(-0.00104529 0.00199403 9.94898e-05 -0.00577398 0.000328349 -0.00226788)
(-0.00474066 0.00103879 0.00017752 -0.00204318 -6.42113e-05 -0.00374153)
(-0.00401232 0.0026957 0.000306111 -0.00252533 -3.46025e-06 -0.00338711)
(-0.00270285 0.00271387 0.000303482 -0.00360645 8.77963e-05 -0.00304501)
(-0.00199872 0.00108963 0.000171549 -0.00402821 0.000123707 -0.00269766)
(-0.00440609 0.000338911 0.000245508 -0.00247787 -2.94667e-05 -0.00380876)
(-0.00393028 0.00112218 0.000456632 -0.00270745 -1.65842e-05 -0.003544)
(-0.00261728 0.00111725 0.000460084 -0.00327825 1.74968e-05 -0.00330383)
(-0.00216577 0.0003448 0.000248728 -0.0034704 1.41059e-05 -0.00303764)
(-0.0104529 0.0176709 -0.000106977 0.0257349 0.00208131 -0.000851469)
(-0.0036477 0.016174 -0.000299034 -2.59452e-05 0.00137967 -0.000537669)
(0.000799745 0.0148691 -0.000311496 -0.0143113 0.000556726 -0.000143699)
(0.0065042 0.0138585 -0.000123194 -0.0375793 -0.000192065 0.000193172)
(-0.0178165 0.00616652 -0.000203565 0.0129339 0.00138952 -0.00213827)
(-0.0077547 0.0160709 -0.000569476 0.00236404 0.00107691 -0.00144697)
(0.00114226 0.0158064 -0.000589493 -0.0123631 0.000851196 -0.000609517)
(0.0106177 0.00631483 -0.00022409 -0.0238532 0.00055933 0.00011794)
(-0.0137162 0.00569893 -0.000149346 0.0102891 0.00096945 -0.00285376)
(-0.00767111 0.0125705 -0.000448224 0.00129436 0.000801848 -0.00209549)
(-7.04137e-06 0.0126555 -0.000463654 -0.00933966 0.000742986 -0.00123318)
(0.00630051 0.00580642 -0.000168404 -0.0187156 0.000609217 -0.000462634)
(-0.0107423 0.00418363 -6.49976e-05 0.00579805 0.000584636 -0.00329206)
(-0.00651475 0.00961084 -0.000248926 5.58517e-05 0.000525568 -0.00256821)
(-0.00113955 0.00970053 -0.000261817 -0.00713628 0.000564935 -0.00179205)
(0.00322352 0.00432523 -8.19814e-05 -0.0130523 0.000530311 -0.00107726)
(-0.00801163 0.00302811 1.86516e-05 0.00222086 0.00030296 -0.00354123)
(-0.00544566 0.00696542 -4.9088e-05 -0.0010943 0.000301932 -0.0029053)
(-0.00191527 0.00702305 -5.78192e-05 -0.00550949 0.00037234 -0.00225675)
(0.000695229 0.00311282 6.19722e-06 -0.00884411 0.000376953 -0.00163858)
(-0.00600109 0.0019691 8.63554e-05 -0.000430818 0.000133723 -0.00369698)
(-0.00460428 0.00467101 0.000115884 -0.00196969 0.00014681 -0.0031576)
(-0.00243621 0.00470575 0.000110749 -0.00438252 0.000206857 -0.00263062)
(-0.00104779 0.00202917 7.79926e-05 -0.00588955 0.000212436 -0.00210635)
(-0.00474169 0.00105086 0.000137999 -0.00198658 5.55764e-05 -0.0038328)
(-0.00403705 0.00273689 0.000246161 -0.00252187 5.56438e-05 -0.00337172)
(-0.00272629 0.00275693 0.000243751 -0.00366547 8.84842e-05 -0.0029387)
(-0.00204361 0.0011045 0.000132674 -0.00414069 7.59141e-05 -0.00248499)
(-0.00436613 0.000345347 0.000194589 -0.0023856 1.8249e-05 -0.00399887)
(-0.00393211 0.0011386 0.000363674 -0.00267552 9.54367e-06 -0.00358809)
(-0.0026408 0.00113409 0.000363919 -0.00331643 2.30065e-05 -0.003217)
(-0.00223222 0.000350716 0.000193064 -0.00356575 5.55868e-06 -0.00280774)
(-0.0105828 0.0178303 -6.08803e-05 0.0258587 0.00132994 -0.000632284)
(-0.00368079 0.0163131 -0.000174709 -8.71335e-05 0.000907897 -0.000425207)
(0.000848335 0.0150162 -0.000181663 -0.0144337 0.000415739 -0.000165709)
(0.00663738 0.0140333 -7.07166e-05 -0.0378886 -3.47665e-05 5.64591e-05)
(-0.0180502 0.00624107 -0.00011919 0.0127407 0.000980116 -0.00167124)
(-0.00783054 0.0162578 -0.000338023 0.00220366 0.000759293 -0.00119341)
(0.00123822 0.0159921 -0.000348235 -0.0125088 0.00058853 -0.000617209)
(0.0108642 0.0063802 -0.000130264 -0.0239337 0.000377421 -0.000115064)
(-0.013912 0.00577997 -9.01482e-05 0.0100629 0.000745984 -0.00238757)
(-0.00775475 0.012751 -0.000271875 0.00111481 0.000601234 -0.00182111)
(6.73642e-05 0.0128338 -0.00027891 -0.00948961 0.00052294 -0.00118014)
(0.00648715 0.00588377 -9.96809e-05 -0.0188213 0.000395865 -0.000602629)
(-0.0108915 0.00425028 -3.81842e-05 0.00559902 0.000510413 -0.00292179)
(-0.00658908 0.0097638 -0.000150158 -9.58509e-05 0.000425595 -0.00233179)
(-0.00110241 0.00985345 -0.000156351 -0.00726678 0.000406331 -0.00170283)
(0.0033408 0.00439139 -4.70349e-05 -0.0131498 0.000336961 -0.00111475)
(-0.00810722 0.00307765 1.5853e-05 0.00209183 0.000318252 -0.00331258)
(-0.0055032 0.00708055 -2.21591e-05 -0.00119827 0.000271036 -0.00273694)
(-0.00190648 0.00713886 -2.66392e-05 -0.00561222 0.000275603 -0.00215457)
(0.000746444 0.00316314 8.91737e-06 -0.00893471 0.00023477 -0.00158855)
(-0.0060479 0.00200051 6.1417e-05 -0.000483062 0.000184439 -0.00361011)
(-0.00464253 0.00474736 8.75719e-05 -0.00202406 0.000153859 -0.00306281)
(-0.00244471 0.00478272 8.45468e-05 -0.00445719 0.0001602 -0.00253246)
(-0.00104516 0.00206139 5.61208e-05 -0.00597315 0.000128541 -0.00199581)
(-0.00474994 0.00106631 9.78511e-05 -0.0019753 0.000102683 -0.0038581)
(-0.00405801 0.00277993 0.000177401 -0.00253613 7.49956e-05 -0.00333846)
(-0.00274339 0.00280013 0.000175225 -0.00371597 7.46033e-05 -0.00285275)
(-0.00207227 0.00112014 9.33249e-05 -0.00421754 4.23483e-05 -0.00234077)
(-0.00435162 0.000351138 0.000140666 -0.00234287 3.88173e-05 -0.00408562)
(-0.0039421 0.00115501 0.000262119 -0.00266746 2.0848e-05 -0.00358989)
(-0.0026594 0.00115037 0.000260536 -0.00335194 2.17227e-05 -0.00314097)
(-0.00227591 0.000355721 0.000136838 -0.00363407 2.05376e-07 -0.00264989)
(-0.0106588 0.0179243 -3.09937e-05 0.0259436 0.000744408 -0.000517977)
(-0.00369982 0.0163955 -9.09102e-05 -0.000117943 0.000517796 -0.000365657)
(0.000876525 0.0151033 -9.43519e-05 -0.0145079 0.000255122 -0.000176255)
(0.00671516 0.0141359 -3.61835e-05 -0.0380805 1.31938e-05 -1.28639e-05)
(-0.0181863 0.00628495 -6.1677e-05 0.012646 0.000581211 -0.00141952)
(-0.00787326 0.0163686 -0.000177375 0.0021157 0.000450216 -0.00105386)
(0.00129481 0.0161025 -0.000182096 -0.0125994 0.000345362 -0.000617139)
(0.0110091 0.00641932 -6.70365e-05 -0.0239991 0.000218515 -0.000232983)
(-0.0140255 0.00582923 -4.71894e-05 0.0099352 0.000464589 -0.00212274)
(-0.0078009 0.0128613 -0.000144086 0.00100583 0.000369383 -0.00166109)
(0.000112911 0.012943 -0.000147042 -0.0095862 0.000309804 -0.00114333)
(0.00659841 0.00593109 -5.1643e-05 -0.0188981 0.000223073 -0.000671163)
(-0.0109782 0.00429274 -1.91065e-05 0.00547352 0.000339022 -0.00269969)
(-0.00663017 0.0098615 -7.86355e-05 -0.000196088 0.000273148 -0.00218613)
(-0.00107809 0.00995085 -8.13837e-05 -0.00735468 0.000244117 -0.00164256)
(0.0034122 0.00443328 -2.3406e-05 -0.0132186 0.000186683 -0.00112706)
(-0.00816347 0.00311074 1.09204e-05 0.00199982 0.000229263 -0.00316453)
(-0.00553593 0.00715745 -7.78299e-06 -0.00127309 0.000183784 -0.00262666)
(-0.00189962 0.00721576 -9.90811e-06 -0.00568354 0.000168879 -0.00208548)
(0.000778561 0.00319622 7.34642e-06 -0.0089956 0.000128035 -0.00155247)
(-0.00607699 0.00202256 3.68667e-05 -0.000530487 0.000145904 -0.00354225)
(-0.0046658 0.00480052 5.44018e-05 -0.00206809 0.00011209 -0.00299456)
(-0.00244962 0.00483578 5.27549e-05 -0.00450962 0.00010117 -0.00246559)
(-0.00104301 0.00208335 3.38339e-05 -0.00602606 6.84372e-05 -0.00192592)
(-0.00475845 0.00107776 5.82393e-05 -0.00198204 8.77157e-05 -0.00385623)
(-0.00407317 0.00281053 0.000106613 -0.0025533 5.97905e-05 -0.00330626)
(-0.00275509 0.00283036 0.000105059 -0.00375164 4.94938e-05 -0.0027928)
(-0.00208984 0.00113101 5.51577e-05 -0.00426436 2.07439e-05 -0.00225115)
(-0.00434957 0.000354855 8.49329e-05 -0.00232829 3.42767e-05 -0.00411648)
(-0.00395319 0.00116633 0.000158004 -0.0026704 1.84903e-05 -0.00357522)
(-0.0026729 0.00116143 0.000156255 -0.00337852 1.51625e-05 -0.00308484)
(-0.00230245 0.000358812 8.14384e-05 -0.00367723 -1.59563e-06 -0.00255096)
(-0.0106937 0.0179685 -9.49552e-06 0.0259866 0.000240043 -0.000469149)
(-0.00370847 0.0164345 -2.8158e-05 -0.000130908 0.000168482 -0.000339878)
(0.000889534 0.0151444 -2.91892e-05 -0.0145432 8.58413e-05 -0.000180315)
(0.00675107 0.014184 -1.11065e-05 -0.038173 9.43676e-06 -4.16398e-05)
(-0.0182487 0.00630542 -1.90394e-05 0.0126077 0.000192471 -0.00130977)
(-0.0078925 0.0164204 -5.51306e-05 0.00207674 0.000149084 -0.000991989)
(0.00132113 0.0161542 -5.6489e-05 -0.0126431 0.000113849 -0.000615535)
(0.0110762 0.00643766 -2.06204e-05 -0.0240349 7.15971e-05 -0.000281643)
(-0.0140774 0.00585244 -1.46181e-05 0.00987823 0.000157312 -0.00200364)
(-0.00782143 0.0129134 -4.49405e-05 0.000954804 0.000124332 -0.00158773)
(0.000134478 0.0129945 -4.57411e-05 -0.00963343 0.000102557 -0.00112449)
(0.0066501 0.00595343 -1.59172e-05 -0.0189384 7.2093e-05 -0.000698266)
(-0.0110176 0.00431311 -5.73785e-06 0.00541384 0.00011804 -0.00259671)
(-0.00664841 0.00990845 -2.43088e-05 -0.000245196 9.37905e-05 -0.00211725)
(-0.0010662 0.0099976 -2.50851e-05 -0.00739852 8.13727e-05 -0.00161233)
(0.00344561 0.00445332 -7.02937e-06 -0.0132541 5.98044e-05 -0.00112931)
(-0.00818918 0.00312693 3.87623e-06 0.00195308 8.25128e-05 -0.00309295)
(-0.00555069 0.0071951 -1.66994e-06 -0.00131143 6.46645e-05 -0.00257266)
(-0.00189607 0.00725331 -2.29861e-06 -0.00571963 5.68594e-05 -0.00205081)
(0.000793646 0.00321227 2.76155e-06 -0.00902604 4.06768e-05 -0.00153335)
(-0.00609066 0.00203353 1.22786e-05 -0.000557257 5.43995e-05 -0.00350627)
(-0.00467677 0.00482695 1.84237e-05 -0.002092 4.06399e-05 -0.00295933)
(-0.00245201 0.00486203 1.78935e-05 -0.00453632 3.45753e-05 -0.00243183)
(-0.00104216 0.00209412 1.12764e-05 -0.00605157 2.14572e-05 -0.00189183)
(-0.00476342 0.00108349 1.92919e-05 -0.00198938 3.36021e-05 -0.00385013)
(-0.00408111 0.00282574 3.55125e-05 -0.00256404 2.24268e-05 -0.0032873)
(-0.00276116 0.00284528 3.49471e-05 -0.00376995 1.73005e-05 -0.00276201)
(-0.00209844 0.00113626 1.81944e-05 -0.00428644 6.17021e-06 -0.00220805)
(-0.0043506 0.000356546 2.83484e-05 -0.00232524 1.32407e-05 -0.00412391)
(-0.00396006 0.00117184 5.27579e-05 -0.00267442 7.15982e-06 -0.00356309)
(-0.00268017 0.00116676 5.20349e-05 -0.00339265 5.40831e-06 -0.00305505)
(-0.00231527 0.00036017 2.69777e-05 -0.00369811 -8.13116e-07 -0.00250318)
)
;

boundaryField
{
    interface
    {
        type            calculated;
        value           nonuniform List<symmTensor> 
192
(
(-0.0368801 -4.99866e-06 0.00023409 0.0471146 0.0114129 -0.00594018)
(-0.0138447 -2.77103e-06 0.000299495 0.0167467 -0.000966199 -0.00936704)
(-0.0150597 -2.01718e-05 0.000296936 0.015843 0.000145061 -0.00663459)
(-0.0107367 -3.15859e-05 0.000272274 0.00857384 -0.000821465 -0.00562505)
(-0.00810269 -4.02848e-05 0.000239813 0.00357341 -0.000751038 -0.00438601)
(-0.00593794 -4.7363e-05 0.000203102 -0.000321531 -0.000621749 -0.00354777)
(-0.00468087 -5.52376e-05 0.000163657 -0.00257048 -0.000349489 -0.00300842)
(-0.00441873 -6.67621e-05 0.000121277 -0.00306104 -8.63508e-05 -0.00274321)
(-0.0359858 -6.92672e-06 0.000147577 0.0433756 0.00844621 -0.00376301)
(-0.016724 -1.16819e-05 0.000189785 0.0187277 0.00220988 -0.00734776)
(-0.015046 -3.23548e-05 0.000188457 0.0156899 0.000426597 -0.00671439)
(-0.0110587 -4.91889e-05 0.000173988 0.00885901 -0.000574881 -0.00563522)
(-0.00816678 -6.2156e-05 0.000154634 0.00362683 -0.000855515 -0.00452385)
(-0.00599149 -7.30641e-05 0.000132449 -0.000279653 -0.000779311 -0.00366702)
(-0.00471865 -8.50114e-05 0.000108322 -0.00252708 -0.000486749 -0.00312603)
(-0.00444938 -0.000101664 8.30834e-05 -0.00297629 -0.000162054 -0.00287967)
(-0.0372941 -8.29725e-06 9.86262e-05 0.043682 0.00553102 -0.00230961)
(-0.0175089 -1.65293e-05 0.000127096 0.0174014 0.00242076 -0.00501143)
(-0.0156378 -4.08189e-05 0.000126944 0.0150803 0.00104707 -0.00537027)
(-0.011398 -6.09295e-05 0.000118049 0.00865143 0.000103581 -0.00505364)
(-0.00827242 -7.66542e-05 0.000105901 0.00362702 -0.00032879 -0.00448121)
(-0.00596275 -8.99117e-05 9.17451e-05 -0.000127488 -0.000421016 -0.00395969)
(-0.00460758 -0.000104067 7.61939e-05 -0.00228054 -0.000296083 -0.00361736)
(-0.00422983 -0.000122835 6.02923e-05 -0.00273727 -9.64826e-05 -0.00350246)
(-0.0383045 -9.41544e-06 6.92943e-05 0.0441926 0.0036258 -0.00145017)
(-0.0181063 -1.97113e-05 8.93441e-05 0.0165519 0.00205472 -0.00338629)
(-0.016159 -4.65996e-05 8.95812e-05 0.014451 0.00121759 -0.00407171)
(-0.0117552 -6.90093e-05 8.37262e-05 0.00829739 0.000532297 -0.00426354)
(-0.00845131 -8.6661e-05 7.56453e-05 0.00350565 0.000115293 -0.00417687)
(-0.00600647 -0.000101539 6.61421e-05 -7.16308e-05 -6.46728e-05 -0.00402107)
(-0.00455775 -0.000117132 5.56429e-05 -0.0021051 -7.70269e-05 -0.00392399)
(-0.00409026 -0.000137161 4.50244e-05 -0.00253575 -2.38551e-05 -0.00395295)
(-0.0389575 -1.02649e-05 4.84641e-05 0.044594 0.00238246 -0.000972927)
(-0.0185126 -2.18914e-05 6.24827e-05 0.0161086 0.00158471 -0.00241853)
(-0.0165166 -5.05545e-05 6.28017e-05 0.014021 0.00110346 -0.00318495)
(-0.0120089 -7.4561e-05 5.88982e-05 0.00797201 0.000659872 -0.00362852)
(-0.00859676 -9.35624e-05 5.34845e-05 0.00333754 0.000337996 -0.00385175)
(-0.00605538 -0.00010957 4.70945e-05 -9.88291e-05 0.000151159 -0.00397146)
(-0.00453568 -0.000126151 4.00164e-05 -0.00202628 7.32149e-05 -0.00407639)
(-0.00400736 -0.000147047 3.28996e-05 -0.00241853 3.45548e-05 -0.00422341)
(-0.0393666 -1.08671e-05 3.21904e-05 0.0448793 0.00151238 -0.000712534)
(-0.0187729 -2.33526e-05 4.14826e-05 0.015888 0.001113 -0.00186571)
(-0.016747 -5.31917e-05 4.17702e-05 0.0137632 0.000849523 -0.00263615)
(-0.0121722 -7.82691e-05 3.92713e-05 0.00773797 0.000583543 -0.00319798)
(-0.0086938 -9.81834e-05 3.57892e-05 0.00318568 0.000366798 -0.0035964)
(-0.00609283 -0.000114958 3.16712e-05 -0.000158183 0.000218197 -0.00389117)
(-0.00452872 -0.000132214 2.70967e-05 -0.00200739 0.000130696 -0.00413394)
(-0.00396956 -0.000153708 2.24964e-05 -0.00236322 5.76407e-05 -0.0043561)
(-0.0396069 -1.12693e-05 1.83892e-05 0.0450626 0.000843086 -0.000577604)
(-0.018925 -2.42594e-05 2.36306e-05 0.0157844 0.000658501 -0.00157007)
(-0.016882 -5.48024e-05 2.38463e-05 0.0136228 0.000529068 -0.00232739)
(-0.0122672 -8.05438e-05 2.24742e-05 0.00759417 0.00038931 -0.00294216)
(-0.0087503 -0.000101027 2.05372e-05 0.00307908 0.000266677 -0.0034315)
(-0.00611571 -0.000118288 1.82396e-05 -0.000212666 0.000174107 -0.00382462)
(-0.00452733 -0.000135987 1.56591e-05 -0.00201284 0.000110626 -0.00414852)
(-0.00395478 -0.000157833 1.2993e-05 -0.00234315 4.85637e-05 -0.0044117)
(-0.0397183 -1.15811e-05 5.95112e-06 0.0451525 0.000271347 -0.000520258)
(-0.0189946 -2.47387e-05 7.61101e-06 0.0157437 0.000217854 -0.00144194)
(-0.0169438 -5.55285e-05 7.69888e-06 0.0135616 0.000179137 -0.00218954)
(-0.0123104 -8.15903e-05 7.2727e-06 0.00752684 0.000135748 -0.00282441)
(-0.00877575 -0.000102353 6.65893e-06 0.00302545 9.62474e-05 -0.00335215)
(-0.00612613 -0.000119866 5.92815e-06 -0.000243455 6.50514e-05 -0.00378874)
(-0.00452733 -0.000137859 5.09308e-06 -0.00202053 4.22286e-05 -0.00414933)
(-0.00394989 -0.00015979 4.18855e-06 -0.00233817 1.84898e-05 -0.00442979)
(-0.00967619 0.0130682 -0.000423388 0.0331802 -4.97978e-07 -0.024089)
(-0.0161926 0.00450105 -0.000533393 0.0105664 -1.59505e-06 -0.0042356)
(-0.0125084 0.00604927 -0.000521966 0.0113573 3.26727e-06 -0.00726334)
(-0.0101826 0.00478807 -0.000471099 0.00587139 6.73357e-06 -0.00510265)
(-0.00773881 0.00387749 -0.000410099 0.00231133 9.14657e-06 -0.00433211)
(-0.00597696 0.00270159 -0.000344374 -0.000558468 1.04412e-05 -0.00356542)
(-0.00486387 0.00157741 -0.000277886 -0.00228258 1.1549e-05 -0.00313361)
(-0.00461448 0.000531153 -0.000214942 -0.00284758 1.71511e-05 -0.00289848)
(-0.00388206 0.0106231 -0.000370425 0.00714057 -3.40161e-06 -0.010023)
(-0.00780882 0.0131426 -0.000480434 0.00144492 -7.95518e-06 -0.00346575)
(-0.0074487 0.012525 -0.000466885 0.00176312 -9.96883e-06 -0.00391303)
(-0.00633021 0.0105328 -0.000421913 -2.67467e-05 -1.09508e-05 -0.003445)
(-0.00528813 0.00824174 -0.000367508 -0.00121371 -1.13678e-05 -0.00333539)
(-0.00452304 0.00584179 -0.000309319 -0.00211595 -1.16526e-05 -0.00323108)
(-0.00402123 0.00359138 -0.000250879 -0.00265438 -1.21152e-05 -0.00319389)
(-0.00399535 0.00152874 -0.000198225 -0.00289132 -9.8268e-06 -0.00303446)
(0.000620344 0.00903322 -0.000362167 -0.00987703 -5.68027e-06 -0.00123785)
(0.00107003 0.0130194 -0.000475308 -0.00976647 -1.80967e-05 -0.00161011)
(0.000315965 0.0126659 -0.00046205 -0.00873042 -2.58642e-05 -0.0017893)
(-0.000584736 0.01064 -0.000418597 -0.00711362 -3.0948e-05 -0.00226569)
(-0.00137168 0.00826853 -0.000364906 -0.00577059 -3.38874e-05 -0.00263509)
(-0.00201511 0.00583181 -0.000307035 -0.00463695 -3.58406e-05 -0.00296089)
(-0.00248662 0.00357074 -0.000248438 -0.00378771 -3.82843e-05 -0.00321061)
(-0.00252426 0.00150875 -0.000194702 -0.00333897 -4.11798e-05 -0.00348006)
(0.0054611 0.00861726 -0.000383723 -0.0334736 -1.47495e-05 0.0118082)
(0.0090377 0.00520175 -0.000510976 -0.0199229 -4.37986e-05 0.000191249)
(0.00575886 0.00612456 -0.000497958 -0.0184388 -5.20197e-05 0.00141717)
(0.00334261 0.00497384 -0.000453252 -0.0131047 -5.81382e-05 -0.00056075)
(0.0010567 0.00390823 -0.000395966 -0.00921699 -6.09443e-05 -0.00164861)
(-0.000622077 0.0026959 -0.000332947 -0.00612247 -6.24398e-05 -0.00261286)
(-0.00169281 0.00156303 -0.000267441 -0.00410501 -6.47514e-05 -0.00326036)
(-0.00193883 0.000521472 -0.000202699 -0.00335853 -7.01543e-05 -0.00360358)
(0.0247077 2.45743e-05 0.000210358 -0.048823 -0.00610048 0.00274981)
(0.00909654 3.39509e-05 0.000286849 -0.0266007 0.00210921 0.00362832)
(0.00810113 2.26825e-05 0.000282452 -0.0226788 0.000892354 0.0011595)
(0.00406564 1.24659e-05 0.000261892 -0.015349 0.00112826 -0.000270212)
(0.00138702 4.86199e-06 0.0002325 -0.0100416 0.000791751 -0.00170569)
(-0.000681571 -1.04601e-06 0.000198293 -0.00605752 0.000483485 -0.00273634)
(-0.0019073 -7.3243e-06 0.000160975 -0.00366978 0.000156853 -0.00342818)
(-0.00213131 -1.98417e-05 0.000120233 -0.00309041 -2.2217e-05 -0.00380893)
(0.0261876 1.24781e-05 0.000120909 -0.0501848 -0.00398443 0.00208012)
(0.0107381 1.64235e-05 0.000166502 -0.0285192 0.00116694 0.00325051)
(0.00788848 2.17925e-06 0.000165474 -0.0225445 0.0015998 0.00145804)
(0.00399122 -1.12011e-05 0.000154542 -0.015164 0.0015558 -0.000226956)
(0.00119938 -2.19053e-05 0.000138694 -0.00969323 0.00118426 -0.00165947)
(-0.000798861 -3.06451e-05 0.000119636 -0.00579365 0.00072303 -0.00271393)
(-0.0019338 -4.01344e-05 9.81956e-05 -0.00354884 0.000276015 -0.00340657)
(-0.00207062 -5.72276e-05 7.48015e-05 -0.00307824 2.33941e-05 -0.00382518)
(0.0279075 7.87336e-06 7.80742e-05 -0.0517956 -0.00215292 0.00125165)
(0.0114659 8.97285e-06 0.000109234 -0.0282418 0.00078433 0.00199461)
(0.00839859 -7.6817e-06 0.000109585 -0.0226049 0.00119118 0.000857625)
(0.00416932 -2.31167e-05 0.000103069 -0.0151904 0.00117979 -0.000373613)
(0.00116459 -3.58349e-05 9.31199e-05 -0.00974471 0.000908963 -0.00147068)
(-0.000932619 -4.64627e-05 8.09169e-05 -0.00591069 0.000551229 -0.00231975)
(-0.00210026 -5.79008e-05 6.70421e-05 -0.00372553 0.000206478 -0.00291383)
(-0.00228202 -7.70426e-05 5.20418e-05 -0.0032215 6.41267e-06 -0.00331328)
(0.0290693 6.26307e-06 5.45402e-05 -0.0528493 -0.00108451 0.000665777)
(0.0120556 5.44085e-06 7.67795e-05 -0.0280498 0.00054174 0.00100948)
(0.00888423 -1.35428e-05 7.7537e-05 -0.0226519 0.000785733 0.000263125)
(0.00441531 -3.08611e-05 7.33024e-05 -0.0152639 0.000770866 -0.000590527)
(0.00123149 -4.51499e-05 6.65278e-05 -0.00985937 0.00058542 -0.00138647)
(-0.000977634 -5.7117e-05 5.81012e-05 -0.0060685 0.000342966 -0.00203348)
(-0.00220339 -6.98329e-05 4.84905e-05 -0.00391295 0.000116291 -0.00252045)
(-0.00243219 -9.0272e-05 3.81523e-05 -0.00337921 -4.8785e-06 -0.00289103)
(0.029805 5.46228e-06 3.78011e-05 -0.0535435 -0.000518449 0.00032842)
(0.0124631 3.39215e-06 5.32669e-05 -0.0280045 0.000376005 0.000418982)
(0.00923127 -1.72974e-05 5.40018e-05 -0.0227186 0.00050071 -0.000127314)
(0.0046147 -3.60582e-05 5.1264e-05 -0.0153444 0.000472512 -0.000751262)
(0.00130586 -5.15255e-05 4.67236e-05 -0.00996227 0.00034519 -0.00134357)
(-0.000992566 -6.44565e-05 4.10041e-05 -0.00619077 0.000188501 -0.00184417)
(-0.00227135 -7.80576e-05 3.44481e-05 -0.00404735 4.82067e-05 -0.00224683)
(-0.00253974 -9.94181e-05 2.73875e-05 -0.00349703 -1.77559e-05 -0.00258332)
(0.0302647 4.99162e-06 2.487e-05 -0.0540021 -0.000232734 0.000145957)
(0.0127265 2.12427e-06 3.50276e-05 -0.0280294 0.000249296 9.42368e-05)
(0.00945841 -1.97072e-05 3.56004e-05 -0.0227946 0.000305878 -0.000348201)
(0.00475073 -3.94734e-05 3.38986e-05 -0.0154176 0.00027518 -0.000841816)
(0.00136116 -5.57686e-05 3.09973e-05 -0.0100397 0.000190715 -0.0013131)
(-0.000998088 -6.937e-05 2.73071e-05 -0.00627224 9.37252e-05 -0.00172328)
(-0.00231486 -8.3581e-05 2.30528e-05 -0.00413224 1.0811e-05 -0.00207068)