/*--------------------------------*- C++ -*----------------------------------*\
| =========                 |                                                 |
| \\      /  F ield         | foam-extend: Open Source CFD                    |
|  \\    /   O peration     | Version:     3.1                                |
|   \\  /    A nd           | Web:         http://www.extend-project.de       |
|    \\/     M anipulation  |                                                 |
\*---------------------------------------------------------------------------*/
FoamFile
{
    version     2.0;
    format      ascii;
    class       pointVectorField;
    location    "0.5";
    object      pointD;
}
// * * * * * * * * * * * * * * * * * * * * * * * * * * * * * * * * * * * * * //

dimensions      [0 1 0 0 0 0 0];

internalField   nonuniform List<vector> 
405
(
(0 0 0)
(0 0 0)
(0 0 0)
(0 0 0)
(0 0 0)
(0.00133887 0.00119537 0.000814346)
(0.000845351 0.00037156 0.000593585)
(0.000647847 -4.4781e-05 0.000236198)
(0.00067571 -0.000469343 -0.000130494)
(0.000941217 -0.00126293 -0.00036386)
(0.00243681 0.00151935 0.000812877)
(0.00207851 0.000519328 0.000625549)
(0.00186741 -0.000180669 0.000347933)
(0.001876 -0.000884269 5.76838e-05)
(0.00202569 -0.00190929 -0.000142914)
(0.00386152 0.00187002 0.000849779)
(0.00353921 0.000650863 0.000675601)
(0.00334601 -0.000310648 0.000441219)
(0.00332248 -0.00127971 0.000205062)
(0.00340713 -0.00252705 3.05987e-05)
(0.00537128 0.00203018 0.000814431)
(0.0051146 0.000688684 0.000682232)
(0.0049442 -0.000450688 0.000512682)
(0.00489199 -0.00159824 0.000343242)
(0.00490513 -0.0029646 0.000213533)
(0.0069303 0.0020705 0.000780477)
(0.00672182 0.000663672 0.000684884)
(0.00656864 -0.000591106 0.000568698)
(0.00649326 -0.00185223 0.000453346)
(0.00645469 -0.00327458 0.000360933)
(0.00847079 0.0020163 0.000757472)
(0.00829859 0.000592611 0.000690156)
(0.00815814 -0.000726547 0.000614071)
(0.00806531 -0.00204987 0.000538559)
(0.00799094 -0.00348171 0.000473242)
(0.00996315 0.00190946 0.00075584)
(0.00981039 0.000494659 0.000704093)
(0.00967772 -0.000853743 0.000653955)
(0.00957415 -0.00220468 0.000604048)
(0.00948222 -0.00362324 0.000552877)
(0.0114053 0.00179181 0.000773267)
(0.0112467 0.000386543 0.000728392)
(0.0111055 -0.00097278 0.000693642)
(0.0110087 -0.00233524 0.000658856)
(0.0109234 -0.00374408 0.00061379)
(0 0 0)
(0 0 0)
(0 0 0)
(0 0 0)
(0 0 0)
(0.00145064 0.00101595 0.000516)
(0.000972254 0.000200259 0.00037619)
(0.000800282 -0.000154727 0.000155578)
(0.000813556 -0.000508899 -7.41753e-05)
(0.00106996 -0.00128719 -0.000226729)
(0.00259743 0.00147267 0.000639391)
(0.00224824 0.000456982 0.000488894)
(0.00205621 -0.000270788 0.000277052)
(0.00204403 -0.00100139 5.76921e-05)
(0.00217662 -0.00203965 -9.99738e-05)
(0.00399907 0.00182919 0.000689455)
(0.00369049 0.000600297 0.000547459)
(0.00351118 -0.000391055 0.000366983)
(0.00346917 -0.00138996 0.000184762)
(0.00353529 -0.00264692 4.41969e-05)
(0.00548638 0.00200675 0.000692024)
(0.00523771 0.000654587 0.000575735)
(0.00507464 -0.000517564 0.000436598)
(0.005008 -0.00169716 0.000297767)
(0.00500777 -0.00307358 0.000185366)
(0.00701756 0.00204952 0.00068267)
(0.0068143 0.000634792 0.00059209)
(0.00666492 -0.000646859 0.000490472)
(0.0065796 -0.00193422 0.000389686)
(0.00653187 -0.00336447 0.000303023)
(0.00853681 0.00199389 0.00067732)
(0.00836696 0.000564237 0.000607134)
(0.00822793 -0.000774668 0.000533942)
(0.00812959 -0.00211732 0.000461418)
(0.00805044 -0.00355554 0.000393691)
(0.0100167 0.0018834 0.000685178)
(0.00986385 0.000463687 0.000626847)
(0.00973066 -0.000898265 0.000572246)
(0.00962567 -0.00226273 0.000517989)
(0.00953297 -0.00368688 0.000460412)
(0.0114564 0.00176437 0.000706442)
(0.011297 0.000354281 0.000653781)
(0.0111549 -0.0010162 0.000610752)
(0.0110582 -0.00238996 0.000567898)
(0.0109734 -0.00380431 0.000515189)
(0 0 0)
(0 0 0)
(0 0 0)
(0 0 0)
(0 0 0)
(0.00152861 0.00101568 0.000327434)
(0.00103066 0.000171458 0.000242359)
(0.000855423 -0.00018136 0.000109924)
(0.000879603 -0.000532751 -2.85815e-05)
(0.00116074 -0.00134217 -0.000122944)
(0.00272106 0.00143235 0.000458784)
(0.00234781 0.00040832 0.000354234)
(0.00214448 -0.000317261 0.000212403)
(0.0021387 -0.00104551 6.62915e-05)
(0.00228683 -0.00208842 -4.20073e-05)
(0.00411639 0.00177702 0.000532537)
(0.00379955 0.000550568 0.000424999)
(0.00361415 -0.000442808 0.000294973)
(0.00357183 -0.00144331 0.000163684)
(0.00364068 -0.00269733 5.85169e-05)
(0.00559386 0.00195326 0.000565762)
(0.0053403 0.000606137 0.000468415)
(0.00517302 -0.000568827 0.000360113)
(0.00510417 -0.00175113 0.000252148)
(0.0051033 -0.00312287 0.000159193)
(0.00710916 0.00199894 0.000581719)
(0.00690463 0.000589671 0.00049769)
(0.00675291 -0.00069546 0.000411283)
(0.00666484 -0.00198637 0.00032564)
(0.00661449 -0.00341256 0.00024574)
(0.00861503 0.00194896 0.000594202)
(0.00844549 0.000522388 0.000521784)
(0.00830552 -0.00082063 0.000452817)
(0.00820496 -0.0021676 0.00038452)
(0.00812317 -0.00360454 0.000314756)
(0.0100869 0.0018455 0.000611459)
(0.00993533 0.000424876 0.000546278)
(0.0098022 -0.00094242 0.000489276)
(0.00969584 -0.0023125 0.000432676)
(0.00960105 -0.00373913 0.000368425)
(0.0115266 0.00173225 0.000635722)
(0.0113699 0.000318365 0.000574357)
(0.0112291 -0.00105912 0.000525214)
(0.0111307 -0.00244011 0.000476414)
(0.0110435 -0.0038594 0.000415242)
(0 0 0)
(0 0 0)
(0 0 0)
(0 0 0)
(0 0 0)
(0.00157697 0.00102732 0.000211795)
(0.00106072 0.000162597 0.000160623)
(0.000880952 -0.000192085 8.0437e-05)
(0.000913184 -0.000545489 -3.47319e-06)
(0.00121338 -0.00137832 -6.04409e-05)
(0.00279606 0.00141551 0.000323067)
(0.00240699 0.000382026 0.000254671)
(0.00219584 -0.000341923 0.000161632)
(0.0021965 -0.00106839 6.61903e-05)
(0.00235829 -0.002118 -5.07565e-06)
(0.0042027 0.00174162 0.000398726)
(0.00387447 0.00051431 0.000322632)
(0.00368241 -0.000476275 0.000231476)
(0.00364258 -0.00147377 0.000139474)
(0.00371932 -0.00272819 6.41864e-05)
(0.00568028 0.00190938 0.000445885)
(0.00542025 0.000565203 0.000370411)
(0.00524835 -0.000606664 0.000288688)
(0.0051797 -0.00178591 0.000207206)
(0.00518165 -0.00315528 0.000134553)
(0.00719084 0.00195339 0.000476666)
(0.0069837 0.000548029 0.000405528)
(0.00682919 -0.000734967 0.000334788)
(0.00674029 -0.00202396 0.000264651)
(0.00668969 -0.0034476 0.000196511)
(0.00869135 0.00190651 0.000500548)
(0.00852176 0.000482326 0.000434063)
(0.00838055 -0.000860465 0.000372694)
(0.0082789 -0.00220753 0.000311905)
(0.00819529 -0.00364366 0.000247591)
(0.01016 0.00180905 0.00052363)
(0.0100103 0.000387601 0.000460267)
(0.00987708 -0.000982033 0.000405809)
(0.00976972 -0.00235477 0.000351747)
(0.0096722 -0.0037835 0.00028941)
(0.0116011 0.00170194 0.000547856)
(0.0114474 0.000284445 0.000486689)
(0.0113074 -0.00109817 0.000437503)
(0.0112079 -0.00248455 0.000388672)
(0.0111172 -0.00390835 0.000328019)
(0 0 0)
(0 0 0)
(0 0 0)
(0 0 0)
(0 0 0)
(0.00160693 0.00103708 0.000139224)
(0.0010778 0.000159132 0.000107952)
(0.000894821 -0.000197606 5.89282e-05)
(0.00093199 -0.000553266 7.67875e-06)
(0.00124487 -0.00140195 -2.71786e-05)
(0.00284384 0.00140999 0.000225975)
(0.00244385 0.000367955 0.00018134)
(0.0022281 -0.000356182 0.000120719)
(0.00223323 -0.00108271 5.87283e-05)
(0.00240488 -0.0021398 1.20293e-05)
(0.00426288 0.00172231 0.000291694)
(0.00392594 0.000490976 0.000239027)
(0.00372959 -0.000498166 0.000176223)
(0.00369203 -0.00149407 0.000112838)
(0.00377534 -0.0027519 6.01101e-05)
(0.00574617 0.0018806 0.000339102)
(0.00548051 0.000535749 0.000283134)
(0.00530535 -0.000633876 0.00022325)
(0.00523737 -0.00181095 0.000163464)
(0.00524241 -0.00318129 0.000108933)
(0.00725834 0.00192039 0.000373951)
(0.00704837 0.00051569 0.000317468)
(0.00689176 -0.000765417 0.000262122)
(0.00680264 -0.00205275 0.000207174)
(0.00675262 -0.00347661 0.000152576)
(0.00875878 0.00187352 0.000401578)
(0.00858852 0.000449634 0.000345597)
(0.00844625 -0.00089262 0.000294536)
(0.00834397 -0.00223944 0.000243914)
(0.0082594 -0.00367636 0.000189549)
(0.0102277 0.00177904 0.000425792)
(0.0100789 0.000356186 0.000370239)
(0.0099454 -0.00101489 0.000322728)
(0.00983727 -0.00238935 0.000275567)
(0.00973783 -0.00382037 0.000221054)
(0.011671 0.0016757 0.000447433)
(0.0115191 0.000255114 0.000392918)
(0.0113793 -0.0011311 0.000348878)
(0.0112789 -0.00252131 0.000305143)
(0.0111859 -0.00394886 0.000251373)
(0 0 0)
(0 0 0)
(0 0 0)
(0 0 0)
(0 0 0)
(0.00162576 0.00104426 9.05498e-05)
(0.00108833 0.000157678 7.1438e-05)
(0.00090328 -0.0002008 4.16586e-05)
(0.000943478 -0.00055841 1.05751e-05)
(0.0012644 -0.00141771 -1.07666e-05)
(0.00287481 0.00140932 0.000153551)
(0.00246775 0.000360456 0.00012486)
(0.00224926 -0.00036487 8.61574e-05)
(0.00225729 -0.00109258 4.66681e-05)
(0.00243538 -0.00215626 1.65266e-05)
(0.00430411 0.00171298 0.000204563)
(0.0039614 0.000476859 0.000169185)
(0.00376247 -0.000512511 0.000127262)
(0.00372656 -0.00150856 8.49509e-05)
(0.00381438 -0.0027708 4.91858e-05)
(0.00579422 0.00186385 0.000244389)
(0.00552462 0.000516308 0.000204908)
(0.00534738 -0.000652848 0.000162985)
(0.00528002 -0.00182948 0.000121073)
(0.00528735 -0.00320255 8.21935e-05)
(0.00731045 0.00189913 0.000275588)
(0.00709831 0.000492959 0.000233795)
(0.00694026 -0.000787661 0.000193128)
(0.00685108 -0.00207465 0.000152697)
(0.00680162 -0.00350039 0.000111983)
(0.00881332 0.00185074 0.000300838)
(0.00864231 0.000425589 0.000257725)
(0.0084992 -0.000916873 0.00021856)
(0.00839648 -0.00226409 0.000179704)
(0.00831131 -0.00370282 0.000137721)
(0.0102842 0.00175711 0.000322151)
(0.0101356 0.000332309 0.000278184)
(0.0100018 -0.00104017 0.000240597)
(0.00989302 -0.00241621 0.000203292)
(0.00979223 -0.00384964 0.00016027)
(0.01173 0.00165561 0.000339304)
(0.0115788 0.000232191 0.000295744)
(0.0114388 -0.00115685 0.000260464)
(0.0113378 -0.00255002 0.00022542)
(0.0112432 -0.00398074 0.000182661)
(0 0 0)
(0 0 0)
(0 0 0)
(0 0 0)
(0 0 0)
(0.00163744 0.00104918 5.49088e-05)
(0.00109493 0.000157091 4.38289e-05)
(0.000908622 -0.000202698 2.67373e-05)
(0.000950644 -0.000561788 8.92324e-06)
(0.00127647 -0.00142794 -3.47181e-06)
(0.00289445 0.00141034 9.58091e-05)
(0.00248305 0.000356558 7.8574e-05)
(0.00226296 -0.000370148 5.55523e-05)
(0.00227279 -0.00109929 3.20962e-05)
(0.00245485 -0.00216793 1.39286e-05)
(0.00433119 0.00170899 0.000130301)
(0.00398491 0.000468764 0.000108394)
(0.00378447 -0.000521581 8.26363e-05)
(0.00374964 -0.00151857 5.66377e-05)
(0.00384027 -0.00278473 3.43435e-05)
(0.00582702 0.00185493 0.000158458)
(0.00555494 0.000504409 0.000133215)
(0.00537644 -0.0006653 0.000106579)
(0.00530952 -0.00184249 7.99252e-05)
(0.00531831 -0.00321847 5.4886e-05)
(0.00734735 0.00188666 0.000181322)
(0.00713375 0.000478361 0.000153774)
(0.00697478 -0.000802697 0.000127079)
(0.00688557 -0.00209018 0.000100512)
(0.00683647 -0.00351817 7.35372e-05)
(0.0088531 0.00183651 0.000200099)
(0.00868147 0.000409584 0.000170955)
(0.00853776 -0.000933614 0.000144521)
(0.00843472 -0.00228165 0.000118283)
(0.00834912 -0.00372236 8.98609e-05)
(0.0103263 0.00174273 0.000215688)
(0.0101777 0.00031598 0.000185446)
(0.0100434 -0.00105788 0.000159586)
(0.00993415 -0.00243537 0.000133927)
(0.00983246 -0.00387091 0.000104411)
(0.0117745 0.00164189 0.000227402)
(0.0116233 0.000216112 0.000197277)
(0.0114829 -0.00117512 0.00017287)
(0.0113814 -0.00257052 0.000148623)
(0.0112858 -0.0040037 0.000119166)
(0 0 0)
(0 0 0)
(0 0 0)
(0 0 0)
(0 0 0)
(0.00164388 0.00105206 2.60197e-05)
(0.00109863 0.000156882 2.09063e-05)
(0.000911657 -0.000203722 1.30873e-05)
(0.000954663 -0.000563732 4.94592e-06)
(0.00128314 -0.00143376 -7.81762e-07)
(0.00290544 0.00141146 4.61295e-05)
(0.00249171 0.000354713 3.80077e-05)
(0.00227077 -0.000373019 2.72472e-05)
(0.00228159 -0.00110323 1.62924e-05)
(0.00246579 -0.00217492 7.71233e-06)
(0.00434666 0.00170755 6.34681e-05)
(0.00399845 0.000464638 5.29614e-05)
(0.00379722 -0.000526615 4.06836e-05)
(0.00376299 -0.0015245 2.82906e-05)
(0.00385514 -0.00279328 1.75572e-05)
(0.00584618 0.00185075 7.79537e-05)
(0.00557273 0.000498062 6.56281e-05)
(0.00539358 -0.000672354 5.26786e-05)
(0.0053269 -0.00185024 3.97129e-05)
(0.00533647 -0.00322832 2.7437e-05)
(0.00736935 0.00188029 8.99375e-05)
(0.00715493 0.000470314 7.62591e-05)
(0.00699545 -0.00081136 6.30355e-05)
(0.00690622 -0.00209948 4.98688e-05)
(0.00685729 -0.00352915 3.64378e-05)
(0.00887723 0.00182888 9.98622e-05)
(0.00870522 0.000400542 8.51906e-05)
(0.00856113 -0.00094338 7.18916e-05)
(0.00845788 -0.00229217 5.86887e-05)
(0.00837203 -0.00373433 4.43726e-05)
(0.0103521 0.00173475 0.00010804)
(0.0102034 0.000306577 9.26711e-05)
(0.0100688 -0.0010683 7.95252e-05)
(0.00995924 -0.00244684 6.64844e-05)
(0.00985703 -0.00388382 5.15099e-05)
(0.0118019 0.00163404 0.000113946)
(0.0116507 0.000206681 9.85952e-05)
(0.01151 -0.00118597 8.61618e-05)
(0.0114082 -0.0025828 7.38092e-05)
(0.0113119 -0.00401756 5.88356e-05)
(0 0 0)
(0 0 0)
(0 0 0)
(0 0 0)
(0 0 0)
(0.00164595 0.00105301 0)
(0.00109983 0.000156833 -0)
(0.000912648 -0.000204047 0)
(0.000955965 -0.000564368 0)
(0.00128527 -0.00143565 0)
(0.00290899 0.00141191 0)
(0.00249453 0.000354172 -0)
(0.00227333 -0.000373933 0)
(0.00228445 -0.00110453 0)
(0.00246932 -0.00217725 0)
(0.00435169 0.00170722 0)
(0.00400288 0.000463377 -0)
(0.00380141 -0.000528231 0)
(0.00376737 -0.00152647 0)
(0.00385999 -0.00279616 0)
(0.00585248 0.00184954 0)
(0.00557861 0.000496076 -0)
(0.00539924 -0.000674638 0)
(0.00533264 -0.00185282 0)
(0.00534246 -0.00323165 0)
(0.00737666 0.00187836 0)
(0.00716198 0.000467754 0)
(0.00700233 -0.000814186 0)
(0.00691309 -0.00210257 0)
(0.00686421 -0.00353286 0)
(0.00888531 0.0018265 0)
(0.00871317 0.000397628 0)
(0.00856895 -0.000946586 0)
(0.00846563 -0.00229567 0)
(0.00837969 -0.00373836 0)
(0.0103608 0.0017322 0)
(0.010212 0.000303517 -0)
(0.0100774 -0.00107174 0)
(0.00996767 -0.00245066 0)
(0.00986528 -0.00388815 0)
(0.0118112 0.00163149 0)
(0.0116599 0.000203579 0)
(0.0115191 -0.00118956 0)
(0.0114171 -0.00258689 0)
(0.0113207 -0.0040222 0)
)
;

boundaryField
{
    interface
    {
        type            calculated;
    }
    symmetry
    {
        type            symmetryPlane;
    }
    bottom
    {
        type            fixedValue;
        value           uniform (0 0 0);
    }
}


// ************************************************************************* //
