/*--------------------------------*- C++ -*----------------------------------*\
| =========                 |                                                 |
| \\      /  F ield         | foam-extend: Open Source CFD                    |
|  \\    /   O peration     | Version:     3.1                                |
|   \\  /    A nd           | Web:         http://www.extend-project.de       |
|    \\/     M anipulation  |                                                 |
\*---------------------------------------------------------------------------*/
FoamFile
{
    version     2.0;
    format      ascii;
    class       volScalarField;
    location    "0.5";
    object      sigmaCauchyEq;
}
// * * * * * * * * * * * * * * * * * * * * * * * * * * * * * * * * * * * * * //

dimensions      [1 -1 -2 0 0 0 0];

internalField   nonuniform List<scalar> 
256
(
371.999
175.703
148.977
258.07
188.837
176.938
175.965
198.72
164.957
154.131
153.225
159.196
112.7
123.954
124.061
111.732
73.4228
93.675
93.7424
72.5768
42.7628
65.047
64.9407
41.9232
22.4397
39.5012
39.2068
21.335
13.0173
17.6909
17.2054
12.1331
344.015
187.939
177.716
269.007
205.354
191.017
187.196
209.275
163.773
150.632
148.988
157.9
111.936
116.592
115.281
107.719
70.7746
85.16
84.3411
67.3917
40.1202
57.8395
57.2791
37.5036
20.4708
34.6214
34.2127
18.6428
12.6166
16.3866
15.9496
11.919
341.334
193.275
188.454
276.888
201.881
196.265
194.303
211.923
162.714
153.64
152.799
159.868
111.602
116.7
115.618
108.049
70.5758
83.9588
83.1181
67.0846
39.8845
56.1707
55.5736
36.9923
20.0346
33.2804
32.8272
17.7674
12.1332
16.1799
15.499
10.2791
342.978
196.308
193.679
281.822
199.967
199.966
199.37
214.096
161.596
156.792
156.872
161.99
111.346
118.783
118.215
109.483
70.7521
85.093
84.4977
68.0737
40.2196
56.5822
56.1063
37.7057
20.367
33.308
32.8632
18.0175
12.654
16.1177
15.0855
9.39681
345.147
198.212
196.599
285.059
199.475
202.541
202.828
216.071
160.988
159.247
160.104
163.892
111.127
120.84
120.801
111.013
70.8851
86.6074
86.3264
69.2873
40.5473
57.5239
57.2211
38.6728
20.7857
33.752
33.3606
18.6691
13.2854
16.0844
14.8033
9.28089
346.959
199.461
198.362
287.194
199.506
204.249
205.1
217.631
160.701
160.936
162.371
165.386
110.926
122.366
122.774
112.266
70.8694
87.836
87.8515
70.3037
40.6797
58.3699
58.2434
39.487
21.0065
34.1889
33.878
19.283
13.6364
16.025
14.6362
9.50314
348.208
200.242
199.409
288.515
199.655
205.288
206.48
218.69
160.575
161.97
163.783
166.398
110.769
123.326
124.049
113.124
70.7803
88.6344
88.8732
70.9974
40.6721
58.9382
58.9522
40.0365
21.0542
34.4845
34.2502
19.7137
13.7493
15.9539
14.5451
9.75678
348.84
200.622
199.904
289.152
199.759
205.781
207.134
219.222
160.527
162.458
164.458
166.905
110.682
123.782
124.667
113.555
70.7089
89.0181
89.3754
71.3438
40.6327
59.2137
59.3048
40.308
21.0382
34.6257
34.4375
19.9296
13.7611
15.9067
14.5047
9.90703
)
;

boundaryField
{
    interface
    {
        type            calculated;
        value           nonuniform List<scalar> 
192
(
571.939
202.744
195.307
121.091
71.858
34.306
13.9331
10.6826
524.287
227.351
194.197
124.349
72.8351
35.3212
14.6475
10.6705
524.74
218.409
190.932
123.394
72.6441
35.5233
14.3082
9.02986
530.323
213.467
187.892
121.967
72.2496
35.8318
15.1428
10.31
535.332
211.499
186.092
120.687
71.6905
35.8768
15.8827
11.7806
539.023
210.827
185.145
119.745
71.0749
35.6473
16.1711
12.629
541.407
210.644
184.672
119.13
70.5591
35.3203
16.1456
12.9754
542.574
210.612
184.475
118.826
70.2676
35.0963
16.0512
13.0715
415.664
168.087
168.202
113.518
76.3902
45.4965
24.4641
13.6535
167.665
165.255
158.863
130.406
100.643
70.6936
43.3762
19.562
124.709
166.868
159.182
131.832
101.441
70.9318
43.1551
19.0889
289.539
183.582
165.742
116.467
77.9943
46.0995
23.8337
12.6319
415.685
219.946
185.368
119.261
70.1311
32.7142
11.6773
10.112
426.559
236.575
184.863
118.51
67.875
31.0971
11.2068
10.5321
441.129
235.488
186.02
118.649
67.8166
31.1518
10.0309
6.88357
451.414
235.424
187.338
119.433
68.5543
32.1054
10.9506
5.75576
458.28
236.275
188.732
120.421
69.437
33.1186
12.3357
6.55075
462.764
237.299
189.965
121.318
70.1816
33.8977
13.4394
7.66352
465.493
238.108
190.857
121.97
70.6953
34.3967
14.1436
8.46917
466.789
238.539
191.317
122.307
70.9528
34.6361
14.4801
8.87213
13.3083
13.3089
13.0847
13.7674
14.5614
14.9873
15.131
15.1493
9.50854
11.4498
11.9084
11.828
11.5233
11.1274
10.7683
10.5567
8.4476
10.5963
10.5072
9.58517
8.53662
7.6579
7.0387
6.71925
12.574
13.1004
11.4435
10.2349
9.78309
9.76564
9.88331
9.97261
)
;
    }
    symmetry
    {
        type            symmetryPlane;
    }
    bottom
    {
        type            calculated;
        value           nonuniform List<scalar> 
32
(
395.06
318.992
303.448
301.373
302.29
303.604
304.629
305.167
164.797
157.152
154.511
153.42
153.107
153.145
153.284
153.383
109.109
135.926
144.021
147.122
148.675
149.604
150.171
150.445
239.835
227.883
230.522
234.294
237.278
239.361
240.668
241.297
)
;
    }
}


// ************************************************************************* //
