/*--------------------------------*- C++ -*----------------------------------*\
| =========                 |                                                 |
| \\      /  F ield         | foam-extend: Open Source CFD                    |
|  \\    /   O peration     | Version:     3.1                                |
|   \\  /    A nd           | Web:         http://www.extend-project.de       |
|    \\/     M anipulation  |                                                 |
\*---------------------------------------------------------------------------*/
FoamFile
{
    version     2.0;
    format      ascii;
    class       volScalarField;
    location    "0.5";
    object      sigmaEq;
}
// * * * * * * * * * * * * * * * * * * * * * * * * * * * * * * * * * * * * * //

dimensions      [1 -1 -2 0 0 0 0];

internalField   nonuniform List<scalar> 
256
(
340.669
176.694
158.055
301.733
195.789
183.658
185.936
211.78
168.065
160.083
161.302
170.601
116.49
129.166
130.157
118.161
76.3236
97.7557
98.0981
76.2178
44.6906
67.9586
67.8209
43.7649
23.521
41.2938
40.8864
22.1872
13.6553
18.5169
17.9121
12.6098
319.131
191.343
190.513
317.345
209.737
196.484
198.931
225.352
166.902
156.182
157.139
169.245
115.452
121.222
121.071
114.006
73.5272
88.7618
88.2726
70.7458
41.9165
60.3924
59.8077
39.1315
21.4588
36.1926
35.6693
19.3795
13.2368
17.1555
16.6051
12.3892
316.644
197.112
202.63
329.012
206.992
202.212
206.764
228.106
166.126
159.465
161.23
171.386
115.21
121.409
121.452
114.348
73.358
87.53
87.0017
70.4147
41.6734
58.6504
58.0305
38.6007
20.9965
34.7865
34.2265
18.4731
12.7294
16.9367
16.1365
10.6775
317.941
200.318
208.524
336.364
205.735
206.327
212.264
230.259
165.353
162.96
165.572
173.635
115.113
123.701
124.21
115.846
73.5957
88.7644
88.468
71.4533
42.0299
59.0931
58.6004
39.3543
21.3375
34.8128
34.2702
18.7423
13.2693
16.8675
15.7064
9.76147
319.766
202.32
211.827
341.164
205.694
209.18
216.011
232.255
165.031
165.687
169.022
175.647
115.043
125.953
126.962
117.453
73.7929
90.3975
90.4082
72.7303
42.3845
60.0945
59.7807
40.3708
21.7734
35.2782
34.7964
19.4264
13.9284
16.8295
15.4136
9.64412
321.306
203.631
213.827
344.317
206.007
211.066
218.478
233.866
164.941
167.563
171.45
177.239
114.956
127.625
129.066
118.777
73.8272
91.724
92.0278
73.8012
42.5368
60.9959
60.8624
41.2256
22.0052
35.7387
35.3427
20.0687
14.2952
16.7658
15.2415
9.87762
322.372
204.449
215.016
346.263
206.319
212.211
219.98
234.974
164.934
168.713
172.967
178.323
114.87
128.679
130.429
119.686
73.7703
92.5882
93.1141
74.5328
42.5404
61.6033
61.6128
41.8021
22.0569
36.0516
35.7359
20.5184
14.4132
16.6911
15.1483
10.1425
322.911
204.847
215.578
347.198
206.496
212.753
220.693
235.536
164.943
169.256
173.692
178.869
114.818
129.181
131.09
120.144
73.7146
93.0044
93.6486
74.8985
42.5058
61.8984
61.9864
42.0868
22.0415
36.2018
35.9338
20.7437
14.4255
16.6418
15.1073
10.2992
)
;

boundaryField
{
    interface
    {
        type            calculated;
        value           nonuniform List<scalar> 
192
(
544.196
204.786
197.682
124.246
74.4429
35.802
14.5988
11.1934
504.742
228.916
196.745
127.615
75.4835
36.8684
15.3475
11.1853
507.089
220.882
193.908
126.796
75.3333
37.0847
14.9903
9.46326
513.248
216.7
191.338
125.538
74.9864
37.415
15.8613
10.8
518.389
215.236
189.903
124.407
74.4682
37.4721
16.6355
12.3429
522.06
214.872
189.204
123.577
73.8819
37.2435
16.9385
13.2346
524.392
214.864
188.88
123.035
73.3844
36.9117
16.913
13.5992
525.522
214.909
188.751
122.765
73.1012
36.6833
16.815
13.7006
402.477
175.064
172.393
117.679
79.5339
47.5741
25.6421
14.3222
169.913
172.493
165.38
136.132
105.134
73.8933
45.3474
20.4674
131.578
175.657
167.384
138.253
106.162
74.0951
45.0143
19.8803
321.55
194.666
176.791
122.972
81.8716
48.1364
24.7961
13.1268
473.056
239.322
200.071
126.889
73.8433
34.1782
12.1441
10.5252
485.527
258.274
199.435
126.016
71.4101
32.4698
11.6521
10.9593
502.671
256.766
200.583
126.107
71.3274
32.5277
10.431
7.15475
514.79
256.383
201.884
126.898
72.0944
33.5253
11.3913
5.98357
522.935
257.116
203.306
127.923
73.0209
34.5849
12.8316
6.81176
528.291
258.13
204.593
128.865
73.805
35.3992
13.9773
7.96712
531.569
258.964
205.537
129.555
74.3467
35.9205
14.7074
8.80266
533.132
259.416
206.029
129.914
74.6186
36.1705
15.0561
9.22036
13.9636
13.9669
13.7267
14.4347
15.2634
15.7082
15.8581
15.8769
9.95277
11.9894
12.4695
12.3821
12.059
11.6412
11.2628
11.0401
8.79752
11.036
10.9433
9.98219
8.8895
7.97459
7.33059
6.99865
13.0705
13.6192
11.8897
10.633
10.1665
10.1516
10.2761
10.37
)
;
    }
    symmetry
    {
        type            symmetryPlane;
    }
    bottom
    {
        type            calculated;
        value           nonuniform List<scalar> 
32
(
369.785
302.157
287.005
284.57
285.121
286.16
287.007
287.457
167.108
160.893
158.298
157.193
156.874
156.914
157.058
157.16
115.625
145.104
154.126
157.639
159.422
160.492
161.146
161.462
274.926
262.65
267.334
272.785
276.942
279.808
281.597
282.455
)
;
    }
}


// ************************************************************************* //
