/*--------------------------------*- C++ -*----------------------------------*\
| =========                 |                                                 |
| \\      /  F ield         | foam-extend: Open Source CFD                    |
|  \\    /   O peration     | Version:     3.1                                |
|   \\  /    A nd           | Web:         http://www.extend-project.de       |
|    \\/     M anipulation  |                                                 |
\*---------------------------------------------------------------------------*/
FoamFile
{
    version     2.0;
    format      ascii;
    class       volVectorField;
    location    "0.0007";
    object      D_0;
}
// * * * * * * * * * * * * * * * * * * * * * * * * * * * * * * * * * * * * * //

dimensions      [0 1 0 0 0 0 0];

internalField   nonuniform List<vector> 
6400
(
(6.28117e-06 2.25892e-07 3.67314e-06)
(5.19503e-06 1.89199e-07 1.12063e-06)
(4.73514e-06 1.71219e-07 -6.21189e-07)
(4.82544e-06 1.70327e-07 -2.94934e-06)
(6.23537e-06 7.25372e-07 3.67384e-06)
(5.15898e-06 6.00696e-07 1.123e-06)
(4.7027e-06 5.47864e-07 -6.1836e-07)
(4.79571e-06 5.58768e-07 -2.94606e-06)
(6.15662e-06 1.21666e-06 3.67201e-06)
(5.09399e-06 1.0069e-06 1.12239e-06)
(4.64359e-06 9.18742e-07 -6.1843e-07)
(4.73574e-06 9.37996e-07 -2.94567e-06)
(6.04072e-06 1.6981e-06 3.67086e-06)
(4.99813e-06 1.4055e-06 1.12192e-06)
(4.55613e-06 1.28237e-06 -6.18403e-07)
(4.64642e-06 1.30909e-06 -2.94509e-06)
(5.88785e-06 2.16777e-06 3.67018e-06)
(4.87152e-06 1.79435e-06 1.12179e-06)
(4.44052e-06 1.63695e-06 -6.18074e-07)
(4.52828e-06 1.67072e-06 -2.94415e-06)
(5.69881e-06 2.62339e-06 3.66984e-06)
(4.71491e-06 2.17145e-06 1.12189e-06)
(4.29752e-06 1.98067e-06 -6.17548e-07)
(4.38217e-06 2.02112e-06 -2.94301e-06)
(5.47475e-06 3.06253e-06 3.66977e-06)
(4.52927e-06 2.53478e-06 1.12214e-06)
(4.12808e-06 2.31169e-06 -6.16931e-07)
(4.20915e-06 2.35845e-06 -2.94183e-06)
(5.21695e-06 3.48271e-06 3.67e-06)
(4.31574e-06 2.88228e-06 1.12252e-06)
(3.9333e-06 2.62816e-06 -6.16302e-07)
(4.0104e-06 2.68084e-06 -2.94073e-06)
(4.92691e-06 3.88146e-06 3.67055e-06)
(4.0756e-06 3.21192e-06 1.12298e-06)
(3.7144e-06 2.92825e-06 -6.15737e-07)
(3.7872e-06 2.98648e-06 -2.93984e-06)
(4.60616e-06 4.25646e-06 3.67143e-06)
(3.8103e-06 3.52176e-06 1.12345e-06)
(3.47281e-06 3.21025e-06 -6.15346e-07)
(3.54106e-06 3.27367e-06 -2.93932e-06)
(4.25646e-06 4.60616e-06 3.67143e-06)
(3.52176e-06 3.8103e-06 1.12345e-06)
(3.21025e-06 3.47281e-06 -6.15346e-07)
(3.27367e-06 3.54106e-06 -2.93932e-06)
(3.88146e-06 4.92691e-06 3.67055e-06)
(3.21192e-06 4.0756e-06 1.12298e-06)
(2.92825e-06 3.7144e-06 -6.15737e-07)
(2.98648e-06 3.7872e-06 -2.93984e-06)
(3.48271e-06 5.21695e-06 3.67e-06)
(2.88228e-06 4.31574e-06 1.12252e-06)
(2.62816e-06 3.9333e-06 -6.16302e-07)
(2.68085e-06 4.0104e-06 -2.94073e-06)
(3.06253e-06 5.47475e-06 3.66977e-06)
(2.53478e-06 4.52927e-06 1.12214e-06)
(2.31169e-06 4.12808e-06 -6.16931e-07)
(2.35845e-06 4.20915e-06 -2.94183e-06)
(2.62339e-06 5.69882e-06 3.66984e-06)
(2.17145e-06 4.71491e-06 1.12189e-06)
(1.98067e-06 4.29752e-06 -6.17549e-07)
(2.02112e-06 4.38217e-06 -2.94301e-06)
(2.16777e-06 5.88785e-06 3.67018e-06)
(1.79435e-06 4.87152e-06 1.12179e-06)
(1.63695e-06 4.44052e-06 -6.18074e-07)
(1.67072e-06 4.52828e-06 -2.94415e-06)
(1.6981e-06 6.04072e-06 3.67086e-06)
(1.4055e-06 4.99813e-06 1.12192e-06)
(1.28237e-06 4.55613e-06 -6.18403e-07)
(1.30909e-06 4.64642e-06 -2.94509e-06)
(1.21666e-06 6.15662e-06 3.67201e-06)
(1.0069e-06 5.09399e-06 1.12239e-06)
(9.18742e-07 4.64359e-06 -6.1843e-07)
(9.37997e-07 4.73574e-06 -2.94567e-06)
(7.25372e-07 6.23537e-06 3.67384e-06)
(6.00696e-07 5.15898e-06 1.123e-06)
(5.47865e-07 4.7027e-06 -6.18361e-07)
(5.58768e-07 4.79571e-06 -2.94606e-06)
(2.25892e-07 6.28117e-06 3.67314e-06)
(1.89199e-07 5.19503e-06 1.12063e-06)
(1.7122e-07 4.73514e-06 -6.21189e-07)
(1.70327e-07 4.82544e-06 -2.94934e-06)
(2.22886e-05 8.70435e-07 6.53463e-06)
(2.11826e-05 8.30144e-07 2.51077e-06)
(2.04081e-05 8.01692e-07 -9.4574e-07)
(1.99471e-05 7.87599e-07 -4.84905e-06)
(2.21404e-05 2.61285e-06 6.52343e-06)
(2.10434e-05 2.48627e-06 2.50049e-06)
(2.0277e-05 2.39849e-06 -9.5588e-07)
(1.98216e-05 2.34769e-06 -4.8591e-06)
(2.1862e-05 4.34031e-06 6.51906e-06)
(2.07788e-05 4.1278e-06 2.49715e-06)
(2.00222e-05 3.98046e-06 -9.583e-07)
(1.95729e-05 3.89415e-06 -4.8603e-06)
(2.14497e-05 6.04027e-06 6.51704e-06)
(2.03867e-05 5.74366e-06 2.49631e-06)
(1.96441e-05 5.5376e-06 -9.57992e-07)
(1.92029e-05 5.41649e-06 -4.85862e-06)
(2.09055e-05 7.70249e-06 6.51596e-06)
(1.9869e-05 7.32361e-06 2.49651e-06)
(1.91448e-05 7.06005e-06 -9.56566e-07)
(1.87143e-05 6.90479e-06 -4.85573e-06)
(2.02327e-05 9.31704e-06 6.51541e-06)
(1.9229e-05 8.85803e-06 2.49721e-06)
(1.85275e-05 8.5384e-06 -9.54653e-07)
(1.81105e-05 8.34975e-06 -4.85236e-06)
(1.94356e-05 1.08743e-05 6.51533e-06)
(1.84708e-05 1.03377e-05 2.49819e-06)
(1.77966e-05 9.96376e-06 -9.52579e-07)
(1.73956e-05 9.74262e-06 -4.84894e-06)
(1.85192e-05 1.2365e-05 6.51575e-06)
(1.75994e-05 1.17539e-05 2.49934e-06)
(1.69566e-05 1.13276e-05 -9.50586e-07)
(1.65744e-05 1.10752e-05 -4.84584e-06)
(1.74889e-05 1.37801e-05 6.51664e-06)
(1.662e-05 1.30981e-05 2.50051e-06)
(1.6013e-05 1.26219e-05 -9.48923e-07)
(1.56521e-05 1.23395e-05 -4.84342e-06)
(1.63506e-05 1.51112e-05 6.5177e-06)
(1.55385e-05 1.4362e-05 2.5014e-06)
(1.49715e-05 1.38388e-05 -9.47908e-07)
(1.46345e-05 1.35281e-05 -4.84205e-06)
(1.51112e-05 1.63506e-05 6.5177e-06)
(1.4362e-05 1.55385e-05 2.5014e-06)
(1.38388e-05 1.49715e-05 -9.47908e-07)
(1.35281e-05 1.46345e-05 -4.84205e-06)
(1.37801e-05 1.74889e-05 6.51664e-06)
(1.30981e-05 1.662e-05 2.50051e-06)
(1.26219e-05 1.6013e-05 -9.48923e-07)
(1.23395e-05 1.56521e-05 -4.84342e-06)
(1.2365e-05 1.85192e-05 6.51575e-06)
(1.17539e-05 1.75994e-05 2.49934e-06)
(1.13276e-05 1.69566e-05 -9.50586e-07)
(1.10752e-05 1.65744e-05 -4.84584e-06)
(1.08743e-05 1.94356e-05 6.51533e-06)
(1.03377e-05 1.84708e-05 2.49819e-06)
(9.96376e-06 1.77966e-05 -9.52579e-07)
(9.74263e-06 1.73956e-05 -4.84894e-06)
(9.31705e-06 2.02327e-05 6.51541e-06)
(8.85803e-06 1.9229e-05 2.49721e-06)
(8.5384e-06 1.85275e-05 -9.54653e-07)
(8.34975e-06 1.81105e-05 -4.85236e-06)
(7.70249e-06 2.09055e-05 6.51596e-06)
(7.32361e-06 1.9869e-05 2.49651e-06)
(7.06005e-06 1.91448e-05 -9.56566e-07)
(6.90479e-06 1.87143e-05 -4.85573e-06)
(6.04027e-06 2.14497e-05 6.51704e-06)
(5.74366e-06 2.03867e-05 2.4963e-06)
(5.5376e-06 1.96441e-05 -9.57992e-07)
(5.41649e-06 1.92029e-05 -4.85862e-06)
(4.34031e-06 2.1862e-05 6.51906e-06)
(4.1278e-06 2.07788e-05 2.49715e-06)
(3.98046e-06 2.00222e-05 -9.58301e-07)
(3.89415e-06 1.95729e-05 -4.8603e-06)
(2.61285e-06 2.21404e-05 6.52343e-06)
(2.48627e-06 2.10435e-05 2.50049e-06)
(2.39849e-06 2.0277e-05 -9.55881e-07)
(2.34769e-06 1.98216e-05 -4.8591e-06)
(8.70435e-07 2.22886e-05 6.53463e-06)
(8.30144e-07 2.11826e-05 2.51077e-06)
(8.01692e-07 2.04081e-05 -9.4574e-07)
(7.87599e-07 1.99472e-05 -4.84905e-06)
(3.49568e-05 1.37361e-06 5.12271e-06)
(3.40437e-05 1.34207e-06 2.12642e-06)
(3.31398e-05 1.30984e-06 -6.50038e-07)
(3.22388e-05 1.28071e-06 -3.61233e-06)
(3.47343e-05 4.10609e-06 5.11462e-06)
(3.38255e-05 4.00334e-06 2.11785e-06)
(3.29269e-05 3.90155e-06 -6.58525e-07)
(3.20304e-05 3.80055e-06 -3.61959e-06)
(3.42991e-05 6.81315e-06 5.11064e-06)
(3.34006e-05 6.63932e-06 2.11435e-06)
(3.25125e-05 6.46776e-06 -6.61123e-07)
(3.16267e-05 6.29679e-06 -3.62066e-06)
(3.36514e-05 9.47712e-06 5.10848e-06)
(3.2769e-05 9.23379e-06 2.11345e-06)
(3.1897e-05 8.99344e-06 -6.60731e-07)
(3.10272e-05 8.75386e-06 -3.6187e-06)
(3.27957e-05 1.20822e-05 5.10723e-06)
(3.19349e-05 1.17708e-05 2.11378e-06)
(3.10842e-05 1.1463e-05 -6.58889e-07)
(3.02357e-05 1.11561e-05 -3.61512e-06)
(3.17378e-05 1.46129e-05 5.10651e-06)
(3.09038e-05 1.42348e-05 2.11475e-06)
(3.00797e-05 1.38611e-05 -6.56331e-07)
(2.92579e-05 1.34886e-05 -3.61071e-06)
(3.04848e-05 1.70539e-05 5.10628e-06)
(2.96829e-05 1.66111e-05 2.11609e-06)
(2.88907e-05 1.61735e-05 -6.53488e-07)
(2.81009e-05 1.57372e-05 -3.60609e-06)
(2.90449e-05 1.93908e-05 5.10659e-06)
(2.82803e-05 1.88856e-05 2.11763e-06)
(2.75252e-05 1.83863e-05 -6.50722e-07)
(2.67725e-05 1.78885e-05 -3.6018e-06)
(2.7427e-05 2.16097e-05 5.10739e-06)
(2.67049e-05 2.10447e-05 2.11912e-06)
(2.59919e-05 2.04865e-05 -6.48429e-07)
(2.52814e-05 1.993e-05 -3.59841e-06)
(2.56409e-05 2.36972e-05 5.10834e-06)
(2.49663e-05 2.30756e-05 2.12017e-06)
(2.43006e-05 2.24617e-05 -6.47068e-07)
(2.36371e-05 2.18498e-05 -3.59651e-06)
(2.36972e-05 2.56409e-05 5.10834e-06)
(2.30756e-05 2.49663e-05 2.12017e-06)
(2.24617e-05 2.43006e-05 -6.47068e-07)
(2.18498e-05 2.36371e-05 -3.59651e-06)
(2.16097e-05 2.7427e-05 5.10739e-06)
(2.10447e-05 2.67048e-05 2.11912e-06)
(2.04865e-05 2.59919e-05 -6.48429e-07)
(1.993e-05 2.52814e-05 -3.59841e-06)
(1.93908e-05 2.90449e-05 5.10658e-06)
(1.88856e-05 2.82803e-05 2.11763e-06)
(1.83863e-05 2.75252e-05 -6.50723e-07)
(1.78885e-05 2.67725e-05 -3.6018e-06)
(1.70539e-05 3.04848e-05 5.10628e-06)
(1.66111e-05 2.96829e-05 2.11609e-06)
(1.61735e-05 2.88907e-05 -6.53489e-07)
(1.57372e-05 2.81009e-05 -3.60609e-06)
(1.46129e-05 3.17378e-05 5.10651e-06)
(1.42348e-05 3.09038e-05 2.11475e-06)
(1.38612e-05 3.00797e-05 -6.56331e-07)
(1.34886e-05 2.92579e-05 -3.61071e-06)
(1.20822e-05 3.27957e-05 5.10722e-06)
(1.17708e-05 3.19349e-05 2.11378e-06)
(1.1463e-05 3.10842e-05 -6.5889e-07)
(1.11561e-05 3.02357e-05 -3.61512e-06)
(9.47712e-06 3.36514e-05 5.10848e-06)
(9.23379e-06 3.2769e-05 2.11345e-06)
(8.99344e-06 3.1897e-05 -6.60731e-07)
(8.75387e-06 3.10272e-05 -3.6187e-06)
(6.81315e-06 3.42991e-05 5.11063e-06)
(6.63932e-06 3.34006e-05 2.11435e-06)
(6.46776e-06 3.25125e-05 -6.61123e-07)
(6.29679e-06 3.16267e-05 -3.62066e-06)
(4.10609e-06 3.47343e-05 5.11462e-06)
(4.00334e-06 3.38255e-05 2.11785e-06)
(3.90155e-06 3.29269e-05 -6.58525e-07)
(3.80055e-06 3.20304e-05 -3.61959e-06)
(1.37361e-06 3.49568e-05 5.12271e-06)
(1.34207e-06 3.40437e-05 2.12642e-06)
(1.30984e-06 3.31398e-05 -6.50039e-07)
(1.28071e-06 3.22388e-05 -3.61233e-06)
(4.082e-05 1.60502e-06 1.67046e-06)
(4.00089e-05 1.57712e-06 7.50178e-07)
(3.90832e-05 1.54449e-06 -1.94671e-07)
(3.80388e-05 1.51126e-06 -1.13833e-06)
(4.05624e-05 4.79459e-06 1.66871e-06)
(3.97534e-05 4.70423e-06 7.48272e-07)
(3.88313e-05 4.60071e-06 -1.96316e-07)
(3.77908e-05 4.48441e-06 -1.13915e-06)
(4.0053e-05 7.95387e-06 1.66727e-06)
(3.92527e-05 7.80114e-06 7.47376e-07)
(3.8341e-05 7.62646e-06 -1.96533e-07)
(3.73128e-05 7.42905e-06 -1.1384e-06)
(3.92943e-05 1.10625e-05 1.66618e-06)
(3.8508e-05 1.08484e-05 7.47376e-07)
(3.76125e-05 1.06035e-05 -1.95504e-07)
(3.66027e-05 1.03267e-05 -1.13618e-06)
(3.82918e-05 1.41019e-05 1.6654e-06)
(3.75242e-05 1.38275e-05 7.48005e-07)
(3.66504e-05 1.35136e-05 -1.93595e-07)
(3.56653e-05 1.31589e-05 -1.13281e-06)
(3.70525e-05 1.70539e-05 1.66491e-06)
(3.63084e-05 1.67203e-05 7.49086e-07)
(3.54619e-05 1.63388e-05 -1.91094e-07)
(3.45078e-05 1.59081e-05 -1.12866e-06)
(3.5585e-05 1.99011e-05 1.66474e-06)
(3.48694e-05 1.95095e-05 7.50498e-07)
(3.40556e-05 1.90623e-05 -1.88276e-07)
(3.31387e-05 1.85577e-05 -1.12415e-06)
(3.38996e-05 2.26267e-05 1.66501e-06)
(3.32173e-05 2.21789e-05 7.52097e-07)
(3.24417e-05 2.16682e-05 -1.85471e-07)
(3.15682e-05 2.10921e-05 -1.11983e-06)
(3.20072e-05 2.52149e-05 1.6657e-06)
(3.13631e-05 2.47132e-05 7.53634e-07)
(3.06312e-05 2.41416e-05 -1.83111e-07)
(2.9807e-05 2.34971e-05 -1.11633e-06)
(2.992e-05 2.76507e-05 1.66652e-06)
(2.9319e-05 2.70978e-05 7.54682e-07)
(2.8636e-05 2.64685e-05 -1.81709e-07)
(2.78667e-05 2.57594e-05 -1.11434e-06)
(2.76507e-05 2.99199e-05 1.66652e-06)
(2.70978e-05 2.93189e-05 7.54682e-07)
(2.64685e-05 2.8636e-05 -1.81709e-07)
(2.57594e-05 2.78667e-05 -1.11434e-06)
(2.52149e-05 3.20072e-05 1.6657e-06)
(2.47132e-05 3.13631e-05 7.53634e-07)
(2.41416e-05 3.06312e-05 -1.83111e-07)
(2.34971e-05 2.9807e-05 -1.11633e-06)
(2.26267e-05 3.38995e-05 1.66501e-06)
(2.2179e-05 3.32173e-05 7.52096e-07)
(2.16682e-05 3.24417e-05 -1.85471e-07)
(2.10921e-05 3.15682e-05 -1.11983e-06)
(1.99011e-05 3.5585e-05 1.66474e-06)
(1.95095e-05 3.48694e-05 7.50498e-07)
(1.90623e-05 3.40556e-05 -1.88276e-07)
(1.85577e-05 3.31387e-05 -1.12415e-06)
(1.70539e-05 3.70525e-05 1.6649e-06)
(1.67203e-05 3.63084e-05 7.49085e-07)
(1.63388e-05 3.54619e-05 -1.91095e-07)
(1.59081e-05 3.45078e-05 -1.12866e-06)
(1.41019e-05 3.82918e-05 1.6654e-06)
(1.38275e-05 3.75242e-05 7.48004e-07)
(1.35136e-05 3.66504e-05 -1.93595e-07)
(1.31589e-05 3.56653e-05 -1.13281e-06)
(1.10625e-05 3.92943e-05 1.66618e-06)
(1.08484e-05 3.8508e-05 7.47375e-07)
(1.06035e-05 3.76125e-05 -1.95504e-07)
(1.03267e-05 3.66027e-05 -1.13618e-06)
(7.95387e-06 4.0053e-05 1.66727e-06)
(7.80114e-06 3.92527e-05 7.47375e-07)
(7.62647e-06 3.8341e-05 -1.96533e-07)
(7.42905e-06 3.73128e-05 -1.1384e-06)
(4.7946e-06 4.05624e-05 1.66871e-06)
(4.70423e-06 3.97534e-05 7.4827e-07)
(4.60071e-06 3.88313e-05 -1.96317e-07)
(4.48441e-06 3.77908e-05 -1.13915e-06)
(1.60502e-06 4.082e-05 1.67046e-06)
(1.57712e-06 4.00089e-05 7.50177e-07)
(1.54449e-06 3.90832e-05 -1.94672e-07)
(1.51126e-06 3.80388e-05 -1.13833e-06)
(3.92843e-05 1.54162e-06 -1.88766e-06)
(3.85472e-05 1.51669e-06 -7.85518e-07)
(3.77102e-05 1.48742e-06 1.35727e-07)
(3.67689e-05 1.45776e-06 1.1654e-06)
(3.90354e-05 4.60961e-06 -1.88374e-06)
(3.83001e-05 4.5284e-06 -7.81628e-07)
(3.74658e-05 4.43568e-06 1.39856e-07)
(3.6528e-05 4.33199e-06 1.16978e-06)
(3.85431e-05 7.64839e-06 -1.88207e-06)
(3.78155e-05 7.51112e-06 -7.79663e-07)
(3.69906e-05 7.35454e-06 1.42036e-07)
(3.60638e-05 7.1782e-06 1.17213e-06)
(3.78101e-05 1.06379e-05 -1.88129e-06)
(3.70949e-05 1.04454e-05 -7.78417e-07)
(3.62845e-05 1.02257e-05 1.43657e-07)
(3.53743e-05 9.97827e-06 1.17415e-06)
(3.68413e-05 1.35601e-05 -1.88081e-06)
(3.6143e-05 1.33131e-05 -7.77311e-07)
(3.53522e-05 1.30313e-05 1.45293e-07)
(3.44641e-05 1.27142e-05 1.17639e-06)
(3.56438e-05 1.63974e-05 -1.88037e-06)
(3.49667e-05 1.60967e-05 -7.76103e-07)
(3.42005e-05 1.57541e-05 1.47146e-07)
(3.33403e-05 1.53687e-05 1.17901e-06)
(3.42263e-05 1.91331e-05 -1.87982e-06)
(3.3575e-05 1.87798e-05 -7.74727e-07)
(3.28385e-05 1.83777e-05 1.4921e-07)
(3.20119e-05 1.79257e-05 1.18194e-06)
(3.25991e-05 2.17516e-05 -1.87907e-06)
(3.19783e-05 2.1347e-05 -7.7324e-07)
(3.12766e-05 2.08872e-05 1.51311e-07)
(3.04893e-05 2.03707e-05 1.18489e-06)
(3.07738e-05 2.42383e-05 -1.87813e-06)
(3.01883e-05 2.37842e-05 -7.71843e-07)
(2.95265e-05 2.3269e-05 1.53124e-07)
(2.87841e-05 2.26905e-05 1.18736e-06)
(2.8763e-05 2.65797e-05 -1.87729e-06)
(2.82173e-05 2.60784e-05 -7.70911e-07)
(2.76003e-05 2.55105e-05 1.54219e-07)
(2.69081e-05 2.48732e-05 1.1888e-06)
(2.65797e-05 2.8763e-05 -1.87729e-06)
(2.60784e-05 2.82173e-05 -7.70911e-07)
(2.55106e-05 2.76003e-05 1.54219e-07)
(2.48732e-05 2.69081e-05 1.1888e-06)
(2.42383e-05 3.07738e-05 -1.87814e-06)
(2.37842e-05 3.01883e-05 -7.71844e-07)
(2.3269e-05 2.95265e-05 1.53124e-07)
(2.26905e-05 2.87841e-05 1.18736e-06)
(2.17516e-05 3.2599e-05 -1.87907e-06)
(2.1347e-05 3.19783e-05 -7.73241e-07)
(2.08872e-05 3.12766e-05 1.51311e-07)
(2.03707e-05 3.04893e-05 1.18489e-06)
(1.91331e-05 3.42263e-05 -1.87982e-06)
(1.87798e-05 3.3575e-05 -7.74727e-07)
(1.83777e-05 3.28385e-05 1.49209e-07)
(1.79257e-05 3.20119e-05 1.18194e-06)
(1.63974e-05 3.56438e-05 -1.88037e-06)
(1.60967e-05 3.49667e-05 -7.76104e-07)
(1.57541e-05 3.42005e-05 1.47146e-07)
(1.53687e-05 3.33403e-05 1.17901e-06)
(1.35601e-05 3.68413e-05 -1.88081e-06)
(1.33131e-05 3.6143e-05 -7.77312e-07)
(1.30313e-05 3.53522e-05 1.45293e-07)
(1.27142e-05 3.44641e-05 1.17639e-06)
(1.06379e-05 3.78101e-05 -1.88129e-06)
(1.04454e-05 3.70949e-05 -7.78418e-07)
(1.02257e-05 3.62845e-05 1.43657e-07)
(9.97827e-06 3.53743e-05 1.17415e-06)
(7.64839e-06 3.85431e-05 -1.88207e-06)
(7.51112e-06 3.78155e-05 -7.79664e-07)
(7.35455e-06 3.69906e-05 1.42036e-07)
(7.1782e-06 3.60638e-05 1.17213e-06)
(4.60962e-06 3.90354e-05 -1.88375e-06)
(4.5284e-06 3.83001e-05 -7.81629e-07)
(4.43568e-06 3.74658e-05 1.39856e-07)
(4.33199e-06 3.6528e-05 1.16978e-06)
(1.54162e-06 3.92843e-05 -1.88766e-06)
(1.51669e-06 3.85472e-05 -7.85519e-07)
(1.48742e-06 3.77102e-05 1.35727e-07)
(1.45776e-06 3.67689e-05 1.1654e-06)
(3.26078e-05 1.27498e-06 -4.25869e-06)
(3.1948e-05 1.25324e-06 -1.90615e-06)
(3.12717e-05 1.22978e-06 2.1893e-07)
(3.05724e-05 1.20786e-06 2.47105e-06)
(3.23992e-05 3.82011e-06 -4.25204e-06)
(3.17416e-05 3.74811e-06 -1.89965e-06)
(3.10678e-05 3.67404e-06 2.25449e-07)
(3.03714e-05 3.59822e-06 2.47727e-06)
(3.19888e-05 6.34123e-06 -4.24816e-06)
(3.13382e-05 6.21928e-06 -1.89603e-06)
(3.06719e-05 6.09411e-06 2.2869e-07)
(2.99837e-05 5.96491e-06 2.47989e-06)
(3.1378e-05 8.82112e-06 -4.24557e-06)
(3.07385e-05 8.65005e-06 -1.89387e-06)
(3.00839e-05 8.47426e-06 2.30381e-07)
(2.94079e-05 8.29278e-06 2.48103e-06)
(3.05708e-05 1.12445e-05 -4.24352e-06)
(2.99463e-05 1.10249e-05 -1.89234e-06)
(2.93074e-05 1.07993e-05 2.31429e-07)
(2.86477e-05 1.05665e-05 2.48154e-06)
(2.95729e-05 1.35966e-05 -4.24167e-06)
(2.89673e-05 1.33293e-05 -1.891e-06)
(2.83482e-05 1.30548e-05 2.32291e-07)
(2.77091e-05 1.27716e-05 2.4819e-06)
(2.83918e-05 1.58637e-05 -4.2399e-06)
(2.78093e-05 1.55496e-05 -1.8897e-06)
(2.72143e-05 1.52271e-05 2.33174e-07)
(2.66001e-05 1.48946e-05 2.48237e-06)
(2.70367e-05 1.80333e-05 -4.23821e-06)
(2.64817e-05 1.76733e-05 -1.88841e-06)
(2.59149e-05 1.73041e-05 2.34102e-07)
(2.53302e-05 1.69235e-05 2.48299e-06)
(2.5518e-05 2.00939e-05 -4.23668e-06)
(2.49948e-05 1.96894e-05 -1.88726e-06)
(2.44607e-05 1.92751e-05 2.34952e-07)
(2.39098e-05 1.8848e-05 2.48363e-06)
(2.38468e-05 2.2035e-05 -4.23562e-06)
(2.33598e-05 2.1588e-05 -1.88651e-06)
(2.28624e-05 2.11308e-05 2.35491e-07)
(2.23494e-05 2.06593e-05 2.48405e-06)
(2.2035e-05 2.38468e-05 -4.23562e-06)
(2.1588e-05 2.33598e-05 -1.88651e-06)
(2.11308e-05 2.28624e-05 2.35491e-07)
(2.06593e-05 2.23494e-05 2.48406e-06)
(2.00939e-05 2.55179e-05 -4.23668e-06)
(1.96894e-05 2.49948e-05 -1.88726e-06)
(1.92751e-05 2.44607e-05 2.34952e-07)
(1.8848e-05 2.39097e-05 2.48363e-06)
(1.80333e-05 2.70367e-05 -4.23821e-06)
(1.76733e-05 2.64817e-05 -1.88841e-06)
(1.73041e-05 2.59149e-05 2.34102e-07)
(1.69235e-05 2.53302e-05 2.48299e-06)
(1.58637e-05 2.83918e-05 -4.23991e-06)
(1.55496e-05 2.78093e-05 -1.8897e-06)
(1.52271e-05 2.72143e-05 2.33174e-07)
(1.48946e-05 2.66001e-05 2.48237e-06)
(1.35966e-05 2.95729e-05 -4.24167e-06)
(1.33293e-05 2.89673e-05 -1.891e-06)
(1.30548e-05 2.83482e-05 2.32291e-07)
(1.27716e-05 2.77091e-05 2.4819e-06)
(1.12445e-05 3.05708e-05 -4.24352e-06)
(1.1025e-05 2.99463e-05 -1.89234e-06)
(1.07994e-05 2.93074e-05 2.31429e-07)
(1.05665e-05 2.86477e-05 2.48154e-06)
(8.82113e-06 3.1378e-05 -4.24557e-06)
(8.65005e-06 3.07385e-05 -1.89387e-06)
(8.47426e-06 3.00839e-05 2.30381e-07)
(8.29278e-06 2.94079e-05 2.48103e-06)
(6.34123e-06 3.19888e-05 -4.24816e-06)
(6.21929e-06 3.13382e-05 -1.89603e-06)
(6.09411e-06 3.06719e-05 2.2869e-07)
(5.96491e-06 2.99837e-05 2.47989e-06)
(3.82011e-06 3.23992e-05 -4.25204e-06)
(3.74811e-06 3.17416e-05 -1.89965e-06)
(3.67404e-06 3.10678e-05 2.25448e-07)
(3.59822e-06 3.03714e-05 2.47727e-06)
(1.27498e-06 3.26078e-05 -4.2587e-06)
(1.25324e-06 3.1948e-05 -1.90615e-06)
(1.22978e-06 3.12717e-05 2.1893e-07)
(1.20786e-06 3.05724e-05 2.47105e-06)
(2.42257e-05 9.42734e-07 -5.06047e-06)
(2.36489e-05 9.24124e-07 -2.39888e-06)
(2.3144e-05 9.06706e-07 8.06374e-08)
(2.27017e-05 8.92865e-07 2.64172e-06)
(2.40687e-05 2.83272e-06 -5.05419e-06)
(2.34947e-05 2.77001e-06 -2.39293e-06)
(2.29922e-05 2.7153e-06 8.63323e-08)
(2.25524e-05 2.66844e-06 2.64673e-06)
(2.37629e-05 4.70528e-06 -5.04968e-06)
(2.31951e-05 4.5988e-06 -2.38921e-06)
(2.26983e-05 4.50623e-06 8.91995e-08)
(2.22636e-05 4.42615e-06 2.64846e-06)
(2.33082e-05 6.54716e-06 -5.0461e-06)
(2.27502e-05 6.39777e-06 -2.38682e-06)
(2.2262e-05 6.26765e-06 9.04501e-08)
(2.1835e-05 6.15493e-06 2.64845e-06)
(2.27074e-05 8.34673e-06 -5.04294e-06)
(2.21625e-05 8.15513e-06 -2.38514e-06)
(2.1686e-05 7.98806e-06 9.08164e-08)
(2.1269e-05 7.84326e-06 2.64736e-06)
(2.19643e-05 1.0093e-05 -5.03996e-06)
(2.14361e-05 9.85987e-06 -2.38379e-06)
(2.09742e-05 9.65645e-06 9.07459e-08)
(2.05701e-05 9.48007e-06 2.64573e-06)
(2.10848e-05 1.17758e-05 -5.03716e-06)
(2.05767e-05 1.15019e-05 -2.3826e-06)
(2.01328e-05 1.12627e-05 9.05279e-08)
(1.97444e-05 1.10552e-05 2.64399e-06)
(2.00757e-05 1.33859e-05 -5.03463e-06)
(1.95917e-05 1.30721e-05 -2.38155e-06)
(1.91689e-05 1.2798e-05 9.03365e-08)
(1.87992e-05 1.25599e-05 2.64246e-06)
(1.89454e-05 1.49152e-05 -5.03257e-06)
(1.84892e-05 1.45626e-05 -2.38068e-06)
(1.80909e-05 1.42547e-05 9.02443e-08)
(1.77429e-05 1.39868e-05 2.64135e-06)
(1.77025e-05 1.63563e-05 -5.0313e-06)
(1.7278e-05 1.59667e-05 -2.38014e-06)
(1.69074e-05 1.56265e-05 9.02321e-08)
(1.6584e-05 1.53299e-05 2.64079e-06)
(1.63563e-05 1.77025e-05 -5.0313e-06)
(1.59667e-05 1.7278e-05 -2.38014e-06)
(1.56265e-05 1.69074e-05 9.02321e-08)
(1.53299e-05 1.6584e-05 2.64079e-06)
(1.49152e-05 1.89454e-05 -5.03257e-06)
(1.45626e-05 1.84891e-05 -2.38068e-06)
(1.42547e-05 1.80909e-05 9.02444e-08)
(1.39868e-05 1.77429e-05 2.64135e-06)
(1.33859e-05 2.00757e-05 -5.03463e-06)
(1.30721e-05 1.95917e-05 -2.38155e-06)
(1.2798e-05 1.91689e-05 9.03366e-08)
(1.25599e-05 1.87992e-05 2.64246e-06)
(1.17758e-05 2.10848e-05 -5.03716e-06)
(1.15019e-05 2.05767e-05 -2.3826e-06)
(1.12627e-05 2.01328e-05 9.0528e-08)
(1.10552e-05 1.97444e-05 2.64399e-06)
(1.0093e-05 2.19643e-05 -5.03997e-06)
(9.85987e-06 2.14361e-05 -2.38379e-06)
(9.65645e-06 2.09742e-05 9.07459e-08)
(9.48008e-06 2.05701e-05 2.64574e-06)
(8.34673e-06 2.27074e-05 -5.04294e-06)
(8.15513e-06 2.21625e-05 -2.38514e-06)
(7.98806e-06 2.1686e-05 9.08164e-08)
(7.84326e-06 2.1269e-05 2.64736e-06)
(6.54716e-06 2.33082e-05 -5.0461e-06)
(6.39777e-06 2.27502e-05 -2.38683e-06)
(6.26766e-06 2.2262e-05 9.04501e-08)
(6.15493e-06 2.1835e-05 2.64845e-06)
(4.70529e-06 2.37629e-05 -5.04968e-06)
(4.59881e-06 2.31951e-05 -2.38921e-06)
(4.50623e-06 2.26983e-05 8.91996e-08)
(4.42615e-06 2.22636e-05 2.64846e-06)
(2.83272e-06 2.40687e-05 -5.05419e-06)
(2.77001e-06 2.34947e-05 -2.39293e-06)
(2.7153e-06 2.29922e-05 8.63323e-08)
(2.66844e-06 2.25524e-05 2.64673e-06)
(9.42735e-07 2.42257e-05 -5.06047e-06)
(9.24125e-07 2.36489e-05 -2.39888e-06)
(9.06706e-07 2.3144e-05 8.06374e-08)
(8.92865e-07 2.27017e-05 2.64172e-06)
(1.68549e-05 6.52703e-07 -4.6578e-06)
(1.63614e-05 6.36884e-07 -2.35993e-06)
(1.59935e-05 6.24168e-07 -1.61203e-07)
(1.57405e-05 6.16186e-07 2.05525e-06)
(1.67442e-05 1.96748e-06 -4.6537e-06)
(1.62538e-05 1.91362e-06 -2.35627e-06)
(1.58883e-05 1.87392e-06 -1.57977e-07)
(1.56373e-05 1.84781e-06 2.05767e-06)
(1.65315e-05 3.27058e-06 -4.64994e-06)
(1.60466e-05 3.17892e-06 -2.35354e-06)
(1.56852e-05 3.11167e-06 -1.56281e-07)
(1.54372e-05 3.0669e-06 2.05813e-06)
(1.62158e-05 4.55251e-06 -4.64647e-06)
(1.57394e-05 4.42394e-06 -2.35156e-06)
(1.53843e-05 4.32936e-06 -1.55681e-07)
(1.51405e-05 4.26615e-06 2.05724e-06)
(1.57985e-05 5.80511e-06 -4.64314e-06)
(1.53335e-05 5.64035e-06 -2.35007e-06)
(1.49868e-05 5.5189e-06 -1.55834e-07)
(1.47487e-05 5.43753e-06 2.05531e-06)
(1.52823e-05 7.02062e-06 -4.6399e-06)
(1.48316e-05 6.8204e-06 -2.34889e-06)
(1.44955e-05 6.67253e-06 -1.56461e-07)
(1.42645e-05 6.57325e-06 2.05273e-06)
(1.46709e-05 8.19195e-06 -4.63682e-06)
(1.42373e-05 7.95697e-06 -2.34791e-06)
(1.39142e-05 7.78314e-06 -1.57305e-07)
(1.3692e-05 7.6661e-06 2.0499e-06)
(1.3969e-05 9.31268e-06 -4.63408e-06)
(1.35558e-05 9.04377e-06 -2.34711e-06)
(1.32481e-05 8.84451e-06 -1.58141e-07)
(1.30366e-05 8.70984e-06 2.04728e-06)
(1.31824e-05 1.03772e-05 -4.63192e-06)
(1.27929e-05 1.00754e-05 -2.34649e-06)
(1.2503e-05 9.85141e-06 -1.58786e-07)
(1.2304e-05 9.69938e-06 2.04527e-06)
(1.23173e-05 1.13803e-05 -4.63064e-06)
(1.19546e-05 1.10471e-05 -2.34612e-06)
(1.16849e-05 1.07995e-05 -1.59126e-07)
(1.15003e-05 1.06307e-05 2.04418e-06)
(1.13803e-05 1.23173e-05 -4.63064e-06)
(1.10471e-05 1.19546e-05 -2.34612e-06)
(1.07995e-05 1.16849e-05 -1.59126e-07)
(1.06307e-05 1.15003e-05 2.04418e-06)
(1.03772e-05 1.31824e-05 -4.63192e-06)
(1.00754e-05 1.27929e-05 -2.34649e-06)
(9.85141e-06 1.2503e-05 -1.58786e-07)
(9.69939e-06 1.2304e-05 2.04527e-06)
(9.31269e-06 1.3969e-05 -4.63408e-06)
(9.04378e-06 1.35558e-05 -2.34711e-06)
(8.84451e-06 1.32481e-05 -1.58141e-07)
(8.70984e-06 1.30366e-05 2.04728e-06)
(8.19195e-06 1.46709e-05 -4.63682e-06)
(7.95698e-06 1.42373e-05 -2.34791e-06)
(7.78315e-06 1.39142e-05 -1.57304e-07)
(7.6661e-06 1.3692e-05 2.04991e-06)
(7.02063e-06 1.52823e-05 -4.6399e-06)
(6.82041e-06 1.48315e-05 -2.34889e-06)
(6.67254e-06 1.44955e-05 -1.5646e-07)
(6.57326e-06 1.42645e-05 2.05273e-06)
(5.80512e-06 1.57985e-05 -4.64314e-06)
(5.64036e-06 1.53335e-05 -2.35007e-06)
(5.5189e-06 1.49868e-05 -1.55834e-07)
(5.43754e-06 1.47487e-05 2.05531e-06)
(4.55252e-06 1.62158e-05 -4.64647e-06)
(4.42394e-06 1.57394e-05 -2.35156e-06)
(4.32937e-06 1.53843e-05 -1.5568e-07)
(4.26615e-06 1.51405e-05 2.05724e-06)
(3.27058e-06 1.65315e-05 -4.64994e-06)
(3.17893e-06 1.60466e-05 -2.35354e-06)
(3.11168e-06 1.56852e-05 -1.56281e-07)
(3.0669e-06 1.54372e-05 2.05813e-06)
(1.96749e-06 1.67442e-05 -4.65371e-06)
(1.91362e-06 1.62538e-05 -2.35627e-06)
(1.87392e-06 1.58883e-05 -1.57977e-07)
(1.84781e-06 1.56373e-05 2.05767e-06)
(6.52704e-07 1.68549e-05 -4.6578e-06)
(6.36885e-07 1.63614e-05 -2.35993e-06)
(6.24169e-07 1.59935e-05 -1.61203e-07)
(6.16186e-07 1.57405e-05 2.05525e-06)
(1.16409e-05 4.49363e-07 -3.70091e-06)
(1.12272e-05 4.35988e-07 -2.02698e-06)
(1.09496e-05 4.26284e-07 -3.82388e-07)
(1.07981e-05 4.21371e-07 1.23363e-06)
(1.15637e-05 1.35786e-06 -3.69923e-06)
(1.1153e-05 1.31226e-06 -2.02574e-06)
(1.08777e-05 1.2821e-06 -3.81612e-07)
(1.07279e-05 1.26661e-06 1.23371e-06)
(1.14176e-05 2.2586e-06 -3.69686e-06)
(1.10116e-05 2.18092e-06 -2.02434e-06)
(1.07395e-05 2.12981e-06 -3.81134e-07)
(1.05915e-05 2.1032e-06 1.23318e-06)
(1.12009e-05 3.14501e-06 -3.6943e-06)
(1.08022e-05 3.03609e-06 -2.02308e-06)
(1.05349e-05 2.96421e-06 -3.81095e-07)
(1.03893e-05 2.92653e-06 1.23195e-06)
(1.09146e-05 4.01146e-06 -3.69165e-06)
(1.05256e-05 3.87202e-06 -2.02203e-06)
(1.02646e-05 3.77978e-06 -3.81498e-07)
(1.01223e-05 3.73122e-06 1.23002e-06)
(1.05602e-05 4.85256e-06 -3.68899e-06)
(1.01832e-05 4.68334e-06 -2.02116e-06)
(9.93023e-06 4.57115e-06 -3.82248e-07)
(9.79209e-06 4.51186e-06 1.22757e-06)
(1.01399e-05 5.6633e-06 -3.68643e-06)
(9.77736e-06 5.46503e-06 -2.02046e-06)
(9.53408e-06 5.3333e-06 -3.83184e-07)
(9.40109e-06 5.26337e-06 1.22489e-06)
(9.65683e-06 6.43913e-06 -3.68415e-06)
(9.31125e-06 6.21262e-06 -2.01991e-06)
(9.07941e-06 6.06179e-06 -3.84116e-07)
(8.9527e-06 5.98128e-06 1.22236e-06)
(9.11469e-06 7.17593e-06 -3.68237e-06)
(8.78863e-06 6.92218e-06 -2.01949e-06)
(8.57006e-06 6.75283e-06 -3.84854e-07)
(8.45081e-06 6.66186e-06 1.22039e-06)
(8.51763e-06 7.86997e-06 -3.68132e-06)
(8.2136e-06 7.59024e-06 -2.01925e-06)
(8.01006e-06 7.40322e-06 -3.85253e-07)
(7.89941e-06 7.30211e-06 1.21931e-06)
(7.86997e-06 8.51762e-06 -3.68132e-06)
(7.59025e-06 8.2136e-06 -2.01925e-06)
(7.40323e-06 8.01005e-06 -3.85253e-07)
(7.30211e-06 7.8994e-06 1.21931e-06)
(7.17594e-06 9.11468e-06 -3.68237e-06)
(6.92218e-06 8.78862e-06 -2.01949e-06)
(6.75284e-06 8.57006e-06 -3.84854e-07)
(6.66186e-06 8.45081e-06 1.22039e-06)
(6.43914e-06 9.65683e-06 -3.68415e-06)
(6.21263e-06 9.31124e-06 -2.01991e-06)
(6.06179e-06 9.07941e-06 -3.84116e-07)
(5.98128e-06 8.9527e-06 1.22236e-06)
(5.66331e-06 1.01399e-05 -3.68643e-06)
(5.46504e-06 9.77736e-06 -2.02046e-06)
(5.3333e-06 9.53407e-06 -3.83184e-07)
(5.26338e-06 9.40109e-06 1.22489e-06)
(4.85257e-06 1.05602e-05 -3.68899e-06)
(4.68334e-06 1.01832e-05 -2.02116e-06)
(4.57115e-06 9.93023e-06 -3.82247e-07)
(4.51186e-06 9.79209e-06 1.22757e-06)
(4.01147e-06 1.09146e-05 -3.69165e-06)
(3.87203e-06 1.05256e-05 -2.02203e-06)
(3.77979e-06 1.02646e-05 -3.81498e-07)
(3.73122e-06 1.01223e-05 1.23002e-06)
(3.14502e-06 1.12009e-05 -3.6943e-06)
(3.03609e-06 1.08022e-05 -2.02308e-06)
(2.96422e-06 1.05349e-05 -3.81095e-07)
(2.92653e-06 1.03893e-05 1.23195e-06)
(2.2586e-06 1.14175e-05 -3.69686e-06)
(2.18092e-06 1.10116e-05 -2.02434e-06)
(2.12981e-06 1.07395e-05 -3.81134e-07)
(2.10321e-06 1.05915e-05 1.23318e-06)
(1.35786e-06 1.15637e-05 -3.69923e-06)
(1.31226e-06 1.1153e-05 -2.02574e-06)
(1.2821e-06 1.08777e-05 -3.81611e-07)
(1.26661e-06 1.07279e-05 1.23371e-06)
(4.49364e-07 1.16409e-05 -3.70091e-06)
(4.35988e-07 1.12272e-05 -2.02698e-06)
(4.26284e-07 1.09496e-05 -3.82388e-07)
(4.21371e-07 1.07981e-05 1.23363e-06)
(8.4423e-06 3.25941e-07 -2.71952e-06)
(8.10243e-06 3.14775e-07 -1.61915e-06)
(7.87973e-06 3.06859e-07 -5.12458e-07)
(7.76563e-06 3.03025e-07 5.48106e-07)
(8.38621e-06 9.85509e-07 -2.7195e-06)
(8.04896e-06 9.47619e-07 -1.61952e-06)
(7.82831e-06 9.23038e-07 -5.13196e-07)
(7.71566e-06 9.11024e-07 5.46908e-07)
(8.28101e-06 1.63956e-06 -2.71847e-06)
(7.94774e-06 1.57501e-06 -1.61919e-06)
(7.72969e-06 1.53338e-06 -5.13533e-07)
(7.61839e-06 1.51281e-06 5.45916e-07)
(8.12525e-06 2.28344e-06 -2.71705e-06)
(7.79808e-06 2.19296e-06 -1.61865e-06)
(7.58389e-06 2.13447e-06 -5.1383e-07)
(7.47447e-06 2.10535e-06 5.44789e-07)
(7.91943e-06 2.91312e-06 -2.71544e-06)
(7.60032e-06 2.79741e-06 -1.61809e-06)
(7.39129e-06 2.72242e-06 -5.14261e-07)
(7.28435e-06 2.68494e-06 5.43359e-07)
(7.66445e-06 3.52468e-06 -2.71376e-06)
(7.35533e-06 3.38443e-06 -1.61758e-06)
(7.15273e-06 3.29337e-06 -5.14858e-07)
(7.04892e-06 3.24773e-06 5.41642e-07)
(7.36175e-06 4.1144e-06 -2.71211e-06)
(7.06453e-06 3.95035e-06 -1.61716e-06)
(6.86967e-06 3.84363e-06 -5.15558e-07)
(6.76969e-06 3.78997e-06 5.39788e-07)
(7.01328e-06 4.67881e-06 -2.71063e-06)
(6.72991e-06 4.49174e-06 -1.61682e-06)
(6.54414e-06 4.36982e-06 -5.16244e-07)
(6.44878e-06 4.30826e-06 5.38038e-07)
(6.62148e-06 5.21472e-06 -2.70944e-06)
(6.35394e-06 5.00554e-06 -1.61656e-06)
(6.17862e-06 4.86896e-06 -5.16783e-07)
(6.08871e-06 4.79968e-06 5.36671e-07)
(6.18912e-06 5.71912e-06 -2.70873e-06)
(5.93934e-06 5.48895e-06 -1.61639e-06)
(5.77582e-06 5.33843e-06 -5.17072e-07)
(5.69217e-06 5.26172e-06 5.35923e-07)
(5.71913e-06 6.18911e-06 -2.70873e-06)