/*--------------------------------*- C++ -*----------------------------------*\
| =========                 |                                                 |
| \\      /  F ield         | foam-extend: Open Source CFD                    |
|  \\    /   O peration     | Version:     3.1                                |
|   \\  /    A nd           | Web:         http://www.extend-project.de       |
|    \\/     M anipulation  |                                                 |
\*---------------------------------------------------------------------------*/
FoamFile
{
    version     2.0;
    format      ascii;
    class       volSymmTensorField;
    location    "0.0007";
    object      epsilon;
}
// * * * * * * * * * * * * * * * * * * * * * * * * * * * * * * * * * * * * * //

dimensions      [0 0 0 0 0 0 0];

internalField   nonuniform List<symmTensor> 
6400
(
(-0.00313595 -0.000208272 0.00742396 0.00150302 0.000195944 0.0104342)
(-0.00182442 -0.000140356 0.00811126 0.00132672 0.000253914 0.00359975)
(-0.00077696 -8.57305e-05 0.00766629 0.00121427 0.000238265 -0.00184155)
(0.000320273 -2.96912e-05 0.00618 0.0011561 0.000156047 -0.00834878)
(-0.00305775 -0.000541986 0.00738715 0.00147223 0.000861877 0.0103146)
(-0.00176881 -0.000368694 0.0080533 0.00130271 0.000944605 0.0035147)
(-0.000734591 -0.000232668 0.00759849 0.0012021 0.000892992 -0.0019287)
(0.000356117 -9.57277e-05 0.00610229 0.0011583 0.000717829 -0.00847534)
(-0.00294267 -0.000889162 0.00729314 0.0013547 0.00144261 0.0103085)
(-0.00169066 -0.000602667 0.00795118 0.00122549 0.00157576 0.00351075)
(-0.00068439 -0.000379535 0.00750251 0.00115292 0.00148891 -0.0019313)
(0.000379238 -0.000156299 0.00602636 0.00113653 0.00119764 -0.00847621)
(-0.00277648 -0.00121352 0.00715556 0.00118791 0.002012 0.0103052)
(-0.00157813 -0.000822837 0.00780122 0.00111241 0.00219616 0.0035092)
(-0.000613488 -0.000518032 0.00736094 0.00108148 0.00207438 -0.00193137)
(0.000408342 -0.000213167 0.00591257 0.0011064 0.00166838 -0.00847455)
(-0.00256218 -0.00150813 0.0069743 0.000973115 0.00256794 0.0103036)
(-0.00143287 -0.00102287 0.00760348 0.000966511 0.00280213 0.00350912)
(-0.000522167 -0.000644017 0.00717421 0.000989336 0.00264614 -0.00193004)
(0.000445641 -0.000265001 0.0057624 0.00106796 0.00212777 -0.00847148)
(-0.00230469 -0.00176579 0.00675019 0.000715263 0.00310754 0.010303)
(-0.00125827 -0.00119783 0.00735903 0.000791344 0.00339026 0.00350986)
(-0.000412377 -0.000754263 0.00694342 0.000878755 0.00320095 -0.00192802)
(0.000490466 -0.000310408 0.00557685 0.00102201 0.00257332 -0.00846782)
(-0.00201018 -0.0019802 0.00648447 0.00042045 0.00362772 0.0103033)
(-0.00105847 -0.00134345 0.00706932 0.000591074 0.00395719 0.00351107)
(-0.000286685 -0.00084604 0.00666999 0.000752373 0.00373564 -0.00192575)
(0.000541851 -0.000348252 0.00535713 0.000969627 0.00300252 -0.00846413)
(-0.00168576 -0.00214612 0.00617866 9.57558e-05 0.00412539 0.0103044)
(-0.000838244 -0.00145614 0.00673606 0.000370483 0.00449953 0.00351254)
(-0.000148051 -0.000917057 0.00635561 0.000613193 0.00424704 -0.00192355)
(0.000598635 -0.000377563 0.00510463 0.000912019 0.0034129 -0.00846082)
(-0.0013392 -0.0022595 0.00583451 -0.000250939 0.00459746 0.010306)
(-0.000602794 -0.00153304 0.00636126 0.000134898 0.00501397 0.00351406)
(2.06605e-07 -0.000965469 0.0060022 0.000464592 0.00473209 -0.00192171)
(0.00065947 -0.00039753 0.00482096 0.000850575 0.00380205 -0.00845824)
(-0.000977589 -0.00231789 0.00545437 -0.00061122 0.00504118 0.0103075)
(-0.000357825 -0.00157215 0.00594743 -0.000109822 0.00549747 0.00351513)
(0.000154329 -0.000989981 0.00561212 0.000310368 0.00518794 -0.0019206)
(0.000722765 -0.000407606 0.00450799 0.000786945 0.00416772 -0.0084568)
(-0.00061122 -0.00231789 0.00504118 -0.000977589 0.00545437 0.0103075)
(-0.000109822 -0.00157215 0.00549747 -0.000357825 0.00594742 0.00351513)
(0.000310368 -0.000989981 0.00518794 0.000154329 0.00561212 -0.0019206)
(0.000786945 -0.000407606 0.00416773 0.000722765 0.00450799 -0.0084568)
(-0.000250939 -0.0022595 0.00459746 -0.0013392 0.00583451 0.010306)
(0.000134899 -0.00153304 0.00501398 -0.000602794 0.00636126 0.00351406)
(0.000464592 -0.000965469 0.00473209 2.06689e-07 0.0060022 -0.00192171)
(0.000850575 -0.000397531 0.00380205 0.00065947 0.00482096 -0.00845824)
(9.57558e-05 -0.00214612 0.00412539 -0.00168575 0.00617866 0.0103044)
(0.000370483 -0.00145614 0.00449953 -0.000838244 0.00673606 0.00351254)
(0.000613193 -0.000917057 0.00424704 -0.000148051 0.00635561 -0.00192355)
(0.000912019 -0.000377563 0.0034129 0.000598636 0.00510463 -0.00846082)
(0.00042045 -0.0019802 0.00362772 -0.00201018 0.00648447 0.0103034)
(0.000591074 -0.00134345 0.00395719 -0.00105847 0.00706932 0.00351107)
(0.000752373 -0.00084604 0.00373564 -0.000286684 0.00666999 -0.00192575)
(0.000969627 -0.000348252 0.00300252 0.000541851 0.00535713 -0.00846414)
(0.000715263 -0.00176579 0.00310754 -0.00230469 0.00675019 0.010303)
(0.000791344 -0.00119783 0.00339027 -0.00125827 0.00735903 0.00350986)
(0.000878756 -0.000754263 0.00320095 -0.000412377 0.00694342 -0.00192802)
(0.00102201 -0.000310408 0.00257332 0.000490466 0.00557685 -0.00846782)
(0.000973115 -0.00150813 0.00256794 -0.00256218 0.0069743 0.0103036)
(0.000966512 -0.00102287 0.00280213 -0.00143287 0.00760348 0.00350912)
(0.000989336 -0.000644017 0.00264614 -0.000522167 0.00717421 -0.00193004)
(0.00106796 -0.000265001 0.00212777 0.000445641 0.0057624 -0.00847148)
(0.00118791 -0.00121352 0.002012 -0.00277648 0.00715556 0.0103052)
(0.00111241 -0.000822838 0.00219616 -0.00157813 0.00780122 0.0035092)
(0.00108148 -0.000518032 0.00207438 -0.000613488 0.00736094 -0.00193137)
(0.0011064 -0.000213167 0.00166839 0.000408342 0.00591257 -0.00847455)
(0.0013547 -0.000889162 0.00144261 -0.00294267 0.00729314 0.0103085)
(0.00122549 -0.000602667 0.00157576 -0.00169066 0.00795118 0.00351075)
(0.00115292 -0.000379535 0.00148891 -0.00068439 0.00750252 -0.0019313)
(0.00113653 -0.0001563 0.00119764 0.000379238 0.00602636 -0.00847621)
(0.00147223 -0.000541986 0.000861878 -0.00305775 0.00738715 0.0103146)
(0.00130271 -0.000368694 0.000944606 -0.00176881 0.0080533 0.0035147)
(0.0012021 -0.000232668 0.000892992 -0.000734591 0.00759849 -0.0019287)
(0.0011583 -9.57278e-05 0.00071783 0.000356117 0.00610229 -0.00847534)
(0.00150302 -0.000208272 0.000195944 -0.00313595 0.00742396 0.0104342)
(0.00132672 -0.000140356 0.000253914 -0.00182442 0.00811126 0.00359975)
(0.00121427 -8.57305e-05 0.000238265 -0.000776959 0.00766629 -0.00184155)
(0.0011561 -2.96912e-05 0.000156047 0.000320273 0.00618 -0.00834878)
(-0.00541936 -0.000438926 0.00307971 0.00462375 -5.19891e-05 0.00143395)
(-0.00384416 -0.000351441 0.00572164 0.0042097 9.35545e-05 0.000968776)
(-0.00238159 -0.00026834 0.00562903 0.00389382 9.13671e-05 -0.000195637)
(-0.00107297 -0.000193982 0.00298836 0.00366397 -4.78432e-05 -0.000855057)
(-0.00527861 -0.00117433 0.00310626 0.00453613 0.000365934 0.0014329)
(-0.00372304 -0.000942435 0.00569094 0.00412435 0.000673333 0.000945989)
(-0.00228062 -0.000732701 0.00556262 0.00382376 0.000660755 -0.000220349)
(-0.000989802 -0.000549469 0.00289207 0.00360644 0.000349736 -0.000862183)
(-0.00503279 -0.0019283 0.00306828 0.00428411 0.000608206 0.0014298)
(-0.00352521 -0.00154168 0.00561949 0.00392864 0.001118 0.000941724)
(-0.00212547 -0.00119867 0.00549217 0.00367102 0.00109555 -0.000224336)
(-0.000871899 -0.00090232 0.00285562 0.00349127 0.00057487 -0.000864906)
(-0.004673 -0.00263216 0.0030106 0.00392395 0.000846079 0.00142858)
(-0.00323786 -0.00210511 0.00551336 0.00364084 0.00155464 0.000940863)
(-0.0019019 -0.0016367 0.00538824 0.00344713 0.00152236 -0.000224471)
(-0.000703944 -0.00123212 0.00280131 0.00332222 0.00079644 -0.000864078)
(-0.00420848 -0.00327154 0.00293422 0.0034591 0.00107877 0.00142802)
(-0.0028664 -0.0026169 0.00537326 0.00326872 0.00198139 0.000941177)
(-0.00161325 -0.00203471 0.00525119 0.00315744 0.00193942 -0.000223204)
(-0.000486945 -0.0015317 0.00272985 0.00310362 0.00101289 -0.000861802)
(-0.0036501 -0.0038308 0.00283953 0.00290051 0.00130515 0.0014278)
(-0.00241978 -0.00306452 0.00520009 0.00282141 0.00239602 0.000941997)
(-0.00126614 -0.00238279 0.00508195 0.00280916 0.00234449 -0.000221364)
(-0.00022598 -0.00179366 0.00264181 0.00284089 0.00122304 -0.000858924)
(-0.0030113 -0.00429626 0.00272701 0.00226148 0.00152382 0.00142784)
(-0.0019087 -0.00343703 0.00499488 0.00230968 0.00279606 0.000943044)
(-0.000868865 -0.00267241 0.00488159 0.00241079 0.00273519 -0.000219359)
(7.27397e-05 -0.00201158 0.00253777 0.00254051 0.00142565 -0.000855954)
(-0.00230746 -0.00465651 0.00259726 0.0015574 0.00173324 0.00142807)
(-0.00134537 -0.00372528 0.00475889 0.00174583 0.003179 0.000944134)
(-0.000430891 -0.00289644 0.00465136 0.00197191 0.0031091 -0.000217482)
(0.00040208 -0.00218007 0.00241838 0.00220978 0.00161949 -0.000853289)
(-0.0015555 -0.00490275 0.00245112 0.00080537 0.00193175 0.00142838)
(-0.000743157 -0.00392204 0.00449361 0.0011435 0.00354229 0.000945054)
(3.72615e-05 -0.00304915 0.00439269 0.00150322 0.00346384 -0.000216011)
(0.00075407 -0.00229482 0.00228437 0.00185674 0.00180333 -0.000851273)
(-0.000771091 -0.00502948 0.00229059 2.36443e-05 0.00211759 0.00142858)
(-0.000116669 -0.00402206 0.00420111 0.000517618 0.00388354 0.00094558)
(0.000523855 -0.00312651 0.00410735 0.00101651 0.00379719 -0.000215197)
(0.00111987 -0.00235286 0.00213663 0.00149038 0.00197602 -0.000850186)
(2.36441e-05 -0.00502948 0.00211759 -0.000771091 0.00229059 0.00142858)
(0.000517618 -0.00402206 0.00388354 -0.000116669 0.00420111 0.00094558)
(0.00101651 -0.00312651 0.00379719 0.000523855 0.00410735 -0.000215197)
(0.00149038 -0.00235286 0.00197602 0.00111987 0.00213663 -0.000850186)
(0.00080537 -0.00490275 0.00193175 -0.0015555 0.00245112 0.00142838)
(0.0011435 -0.00392204 0.0035423 -0.000743157 0.0044936 0.000945054)
(0.00150322 -0.00304915 0.00346384 3.72618e-05 0.00439269 -0.000216011)
(0.00185674 -0.00229482 0.00180333 0.000754071 0.00228437 -0.000851273)
(0.0015574 -0.00465651 0.00173324 -0.00230746 0.00259726 0.00142807)
(0.00174584 -0.00372528 0.003179 -0.00134537 0.00475889 0.000944134)
(0.00197191 -0.00289644 0.0031091 -0.000430891 0.00465136 -0.000217482)
(0.00220978 -0.00218007 0.00161949 0.00040208 0.00241838 -0.000853289)
(0.00226148 -0.00429626 0.00152382 -0.0030113 0.00272701 0.00142784)
(0.00230968 -0.00343703 0.00279607 -0.0019087 0.00499488 0.000943044)
(0.00241079 -0.00267241 0.00273519 -0.000868865 0.00488159 -0.000219359)
(0.00254051 -0.00201158 0.00142565 7.27399e-05 0.00253777 -0.000855954)
(0.00290051 -0.0038308 0.00130515 -0.0036501 0.00283953 0.0014278)
(0.00282141 -0.00306452 0.00239602 -0.00241978 0.00520009 0.000941997)
(0.00280916 -0.00238279 0.00234449 -0.00126614 0.00508195 -0.000221364)
(0.00284089 -0.00179366 0.00122304 -0.00022598 0.00264181 -0.000858924)
(0.00345911 -0.00327155 0.00107877 -0.00420848 0.00293422 0.00142802)
(0.00326872 -0.00261691 0.00198139 -0.0028664 0.00537326 0.000941177)
(0.00315744 -0.00203471 0.00193942 -0.00161325 0.00525119 -0.000223204)
(0.00310362 -0.00153171 0.00101289 -0.000486945 0.00272985 -0.000861802)
(0.00392395 -0.00263216 0.00084608 -0.00467299 0.0030106 0.00142858)
(0.00364084 -0.00210511 0.00155464 -0.00323785 0.00551336 0.000940863)
(0.00344713 -0.0016367 0.00152237 -0.0019019 0.00538824 -0.000224471)
(0.00332222 -0.00123212 0.00079644 -0.000703944 0.00280131 -0.000864078)
(0.00428411 -0.0019283 0.000608206 -0.00503279 0.00306828 0.0014298)
(0.00392865 -0.00154168 0.001118 -0.00352521 0.00561949 0.000941724)
(0.00367102 -0.00119867 0.00109555 -0.00212547 0.00549217 -0.000224336)
(0.00349127 -0.00090232 0.000574871 -0.000871899 0.00285562 -0.000864906)
(0.00453613 -0.00117433 0.000365934 -0.0052786 0.00310626 0.0014329)
(0.00412435 -0.000942436 0.000673333 -0.00372304 0.00569094 0.000945988)
(0.00382377 -0.000732701 0.000660756 -0.00228062 0.00556262 -0.000220349)
(0.00360644 -0.000549469 0.000349736 -0.000989802 0.00289208 -0.000862183)
(0.00462375 -0.000438926 -5.1989e-05 -0.00541936 0.00307971 0.00143395)
(0.0042097 -0.000351441 9.35546e-05 -0.00384416 0.00572164 0.000968775)
(0.00389382 -0.00026834 9.13672e-05 -0.00238159 0.00562903 -0.000195637)
(0.00366397 -0.000193982 -4.78431e-05 -0.00107297 0.00298836 -0.000855057)
(-0.00409175 -0.000485491 0.00160739 0.00743344 -7.82062e-05 -0.00403841)
(-0.00403986 -0.000466993 0.00284824 0.00691245 -1.15581e-05 -0.00151512)
(-0.00372301 -0.00043273 0.00279609 0.00644364 -1.33583e-05 0.000573166)
(-0.00375455 -0.000413734 0.00148939 0.00602551 -8.06712e-05 0.00301127)
(-0.00396535 -0.0013485 0.00161195 0.00730112 0.000185843 -0.00399455)
(-0.00390563 -0.00128191 0.00282931 0.00676817 0.000330695 -0.00148078)
(-0.00359782 -0.00118772 0.00275695 0.00629968 0.000324516 0.000608724)
(-0.00364486 -0.00113735 0.00143941 0.00586853 0.000173341 0.00305983)
(-0.00368796 -0.00221607 0.00159164 0.00701558 0.000312227 -0.00399229)
(-0.00364026 -0.00209948 0.00279336 0.0065026 0.000554072 -0.00147834)
(-0.00335093 -0.00194621 0.00272148 0.00605292 0.000542968 0.000611214)
(-0.00340849 -0.00187112 0.00142139 0.00563423 0.000288327 0.00306196)
(-0.00327565 -0.00302589 0.00156161 0.00660368 0.000435382 -0.00399177)
(-0.00324972 -0.00286725 0.00274 0.0061119 0.00077148 -0.00147759)
(-0.00298848 -0.00265806 0.0026693 0.00569053 0.000755251 0.000612138)
(-0.0030604 -0.00255586 0.00139375 0.00528571 0.000399699 0.00306302)
(-0.0027422 -0.00376166 0.00152181 0.00607091 0.000555619 -0.00399184)
(-0.00274398 -0.00356445 0.00266962 0.00560634 0.000983245 -0.0014772)
(-0.00251948 -0.00330434 0.00260052 0.0052213 0.000961746 0.000612915)
(-0.00260935 -0.00317721 0.00135744 0.00483399 0.000507574 0.00306418)
(-0.00210047 -0.00440534 0.0014723 0.00542997 0.000672745 -0.00399212)
(-0.00213567 -0.00417408 0.00258267 0.00499819 0.00118879 -0.00147682)
(-0.00195539 -0.00386922 0.00251574 0.00465682 0.0011619 0.000613827)
(-0.00206681 -0.00372012 0.00131293 0.00429051 0.000611796 0.00306567)
(-0.00136603 -0.00494117 0.00141327 0.00469616 0.000786165 -0.00399248)
(-0.0014396 -0.00468131 0.00247973 0.00430216 0.00138707 -0.00147641)
(-0.00130996 -0.00433898 0.0024156 0.00401094 0.00135474 0.000614855)
(-0.00144611 -0.00417144 0.00126063 0.00366882 0.000711941 0.00306737)
(-0.000556626 -0.00535599 0.00134499 0.00388719 0.000894996 -0.00399284)
(-0.000672484 -0.00507376 0.0023615 0.00353506 0.00157687 -0.001476)
(-0.000598781 -0.00470218 0.00230086 0.00329935 0.00153915 0.000615865)
(-0.000762339 -0.00452015 0.00120099 0.00298418 0.000807477 0.00306904)
(0.000308258 -0.00563961 0.00126805 0.00302269 0.000998129 -0.00399316)
(0.000147385 -0.00534161 0.00222891 0.00271543 0.00175687 -0.00147567)
(0.000161 -0.00494971 0.0021724 0.00253936 0.00171398 0.000616674)
(-3.21466e-05 -0.00475759 0.00113449 0.00225331 0.00089787 0.00307039)
(0.00120999 -0.00578531 0.00118406 0.00212362 0.00109437 -0.00399338)
(0.00100009 -0.00547774 0.00208332 0.00186349 0.00192586 -0.0014755)
(0.000950528 -0.00507513 0.00203123 0.00174989 0.00187823 0.000617121)
(0.000726364 -0.00487775 0.0010616 0.00149442 0.000982667 0.00307113)
(0.00212362 -0.00578531 0.00109437 0.00120999 0.00118406 -0.00399338)
(0.00186349 -0.00547774 0.00192586 0.00100009 0.00208332 -0.0014755)
(0.00174989 -0.00507513 0.00187824 0.000950529 0.00203122 0.000617121)
(0.00149442 -0.00487775 0.000982668 0.000726365 0.0010616 0.00307113)
(0.00302269 -0.00563961 0.000998129 0.000308259 0.00126805 -0.00399316)
(0.00271543 -0.00534161 0.00175687 0.000147386 0.00222891 -0.00147567)
(0.00253936 -0.00494971 0.00171399 0.000161 0.0021724 0.000616674)
(0.00225331 -0.00475759 0.000897871 -3.21463e-05 0.00113449 0.00307039)
(0.00388719 -0.00535599 0.000894996 -0.000556625 0.00134499 -0.00399284)
(0.00353506 -0.00507376 0.00157687 -0.000672483 0.0023615 -0.001476)
(0.00329935 -0.00470218 0.00153915 -0.000598781 0.00230086 0.000615865)
(0.00298418 -0.00452015 0.000807478 -0.000762338 0.00120099 0.00306904)
(0.00469616 -0.00494117 0.000786166 -0.00136603 0.00141327 -0.00399248)
(0.00430216 -0.00468131 0.00138707 -0.00143959 0.00247973 -0.00147641)
(0.00401094 -0.00433898 0.00135474 -0.00130996 0.0024156 0.000614855)
(0.00366882 -0.00417144 0.000711942 -0.00144611 0.00126063 0.00306737)
(0.00542997 -0.00440534 0.000672746 -0.00210046 0.0014723 -0.00399212)
(0.00499819 -0.00417408 0.00118879 -0.00213567 0.00258267 -0.00147682)
(0.00465682 -0.00386922 0.0011619 -0.00195539 0.00251574 0.000613827)
(0.00429051 -0.00372012 0.000611797 -0.00206681 0.00131293 0.00306567)
(0.00607092 -0.00376166 0.00055562 -0.00274219 0.00152181 -0.00399184)
(0.00560634 -0.00356446 0.000983245 -0.00274398 0.00266962 -0.0014772)
(0.0052213 -0.00330434 0.000961747 -0.00251948 0.00260052 0.000612915)
(0.00483399 -0.00317721 0.000507575 -0.00260935 0.00135744 0.00306418)
(0.00660368 -0.00302589 0.000435383 -0.00327565 0.00156161 -0.00399177)
(0.00611191 -0.00286725 0.00077148 -0.00324972 0.00274 -0.00147759)
(0.00569054 -0.00265806 0.000755251 -0.00298848 0.0026693 0.000612138)
(0.00528571 -0.00255586 0.000399699 -0.0030604 0.00139375 0.00306302)
(0.00701558 -0.00221607 0.000312228 -0.00368795 0.00159164 -0.00399229)
(0.0065026 -0.00209949 0.000554072 -0.00364026 0.00279336 -0.00147834)
(0.00605292 -0.00194621 0.000542969 -0.00335093 0.00272148 0.000611214)
(0.00563423 -0.00187112 0.000288328 -0.00340849 0.00142139 0.00306196)
(0.00730112 -0.0013485 0.000185843 -0.00396535 0.00161195 -0.00399455)
(0.00676817 -0.00128191 0.000330695 -0.00390563 0.00282931 -0.00148078)
(0.00629968 -0.00118772 0.000324517 -0.00359781 0.00275695 0.000608724)
(0.00586854 -0.00113735 0.000173342 -0.00364486 0.00143941 0.00305983)
(0.00743344 -0.000485491 -7.82061e-05 -0.00409174 0.00160739 -0.00403841)
(0.00691245 -0.000466993 -1.1558e-05 -0.00403986 0.00284824 -0.00151512)
(0.00644365 -0.00043273 -1.33582e-05 -0.00372301 0.00279609 0.000573166)
(0.00602551 -0.000413735 -8.06711e-05 -0.00375455 0.00148939 0.00301127)
(-0.00342852 -0.000520088 0.000290203 0.00911442 -5.46723e-05 -0.00651686)
(-0.00399342 -0.000528273 0.000565449 0.00853062 -4.0495e-05 -0.00274877)
(-0.00436421 -0.000524216 0.000551219 0.00797767 -4.11619e-05 0.000684988)
(-0.00498035 -0.000527659 0.000257484 0.00745902 -5.5636e-05 0.00436856)
(-0.0032988 -0.00146789 0.00028862 0.00895748 2.88394e-05 -0.00645435)
(-0.00385437 -0.0014668 0.000558349 0.0083584 6.20047e-05 -0.00269175)
(-0.00422778 -0.00144352 0.000539632 0.0077971 6.16242e-05 0.000744347)
(-0.00484909 -0.00144658 0.000244069 0.00725326 2.94976e-05 0.00443832)
(-0.00299851 -0.0024121 0.000284674 0.00864833 5.04747e-05 -0.00644919)
(-0.00355307 -0.0024038 0.000550407 0.00805345 0.000106232 -0.00268638)
(-0.00393022 -0.00236593 0.000531969 0.00749613 0.000105389 0.000749433)
(-0.00454935 -0.0023809 0.000240532 0.00695474 5.06502e-05 0.00444244)
(-0.00255047 -0.00329408 0.000278982 0.00820054 7.16071e-05 -0.00644685)
(-0.00310615 -0.00328301 0.000538807 0.0076058 0.000148871 -0.00268421)
(-0.00348958 -0.00323139 0.000520581 0.00705495 0.000147314 0.000751221)
(-0.00410622 -0.00325233 0.000234844 0.00651077 7.05868e-05 0.00444365)
(-0.00196998 -0.00409554 0.000271351 0.00762124 9.23061e-05 -0.00644588)
(-0.00252689 -0.00408123 0.000523586 0.00702706 0.000190004 -0.00268343)
(-0.00291894 -0.0040168 0.000505592 0.00648436 0.00018746 0.000751675)
(-0.00353158 -0.00404264 0.000227408 0.00593577 8.92288e-05 0.00444371)
(-0.00127134 -0.00479678 0.000261618 0.00692422 0.000112681 -0.00644559)
(-0.00183011 -0.00477899 0.00050481 0.0063311 0.000229668 -0.00268321)
(-0.00223267 -0.00470292 0.000487273 0.00579831 0.000225858 0.00075169)
(-0.00284045 -0.00473281 0.000218535 0.00524428 0.000106608 0.00444351)
(-0.000471595 -0.00538059 0.000249704 0.00612608 0.000132697 -0.00644568)
(-0.00103294 -0.00535931 0.000482676 0.00553477 0.000267741 -0.0026832)
(-0.00144777 -0.00527316 0.000465947 0.0050136 0.000262399 0.000751638)
(-0.00205009 -0.00530617 0.000208521 0.00445352 0.000122691 0.00444341)
(0.000409851 -0.00583255 0.000235653 0.00524602 0.000152117 -0.00644599)
(-0.000154757 -0.00580809 0.000457528 0.00465733 0.000304 -0.00268325)
(-0.000583385 -0.00571372 0.000442038 0.00414939 0.000296931 0.000751637)
(-0.00117993 -0.00574885 0.000197707 0.00358295 0.000137435 0.00444351)
(0.00135162 -0.0061415 0.000219764 0.00430537 0.000170489 -0.00644638)
(0.000783331 -0.00611421 0.000429913 0.00372002 0.000338202 -0.00268333)
(0.000339473 -0.00601378 0.00041607 0.00322673 0.000329365 0.000751674)
(-0.000251246 -0.00605009 0.000186448 0.00265392 0.000150887 0.0044437)
(0.00233286 -0.00629987 0.000203314 0.00332687 0.000187277 -0.00644668)
(0.00175851 -0.00626968 0.000400666 0.00274579 0.000370261 -0.00268339)
(0.00129804 -0.00616577 0.000388586 0.00226841 0.000359791 0.000751704)
(0.000713083 -0.00620251 0.00017499 0.00168938 0.000163267 0.00444385)
(0.00332687 -0.00629987 0.000187278 0.00233286 0.000203314 -0.00644668)
(0.00274579 -0.00626968 0.000370261 0.00175851 0.000400666 -0.00268339)
(0.00226841 -0.00616577 0.000359792 0.00129804 0.000388585 0.000751704)
(0.00168938 -0.00620251 0.000163268 0.000713083 0.00017499 0.00444385)
(0.00430537 -0.0061415 0.000170489 0.00135163 0.000219763 -0.00644638)
(0.00372002 -0.00611421 0.000338203 0.000783332 0.000429912 -0.00268333)
(0.00322673 -0.00601378 0.000329366 0.000339473 0.00041607 0.000751674)
(0.00265392 -0.00605009 0.000150888 -0.000251245 0.000186448 0.0044437)
(0.00524602 -0.00583255 0.000152117 0.000409853 0.000235652 -0.00644599)
(0.00465733 -0.00580809 0.000304001 -0.000154756 0.000457528 -0.00268325)
(0.00414939 -0.00571372 0.000296932 -0.000583385 0.000442038 0.000751637)
(0.00358295 -0.00574885 0.000137436 -0.00117993 0.000197707 0.00444351)
(0.00612608 -0.00538059 0.000132697 -0.000471593 0.000249704 -0.00644568)
(0.00553477 -0.00535931 0.000267742 -0.00103294 0.000482676 -0.0026832)
(0.0050136 -0.00527316 0.0002624 -0.00144777 0.000465947 0.000751638)
(0.00445352 -0.00530617 0.000122692 -0.00205009 0.000208521 0.00444341)
(0.00692423 -0.00479678 0.000112681 -0.00127134 0.000261618 -0.00644559)
(0.00633111 -0.00477899 0.000229669 -0.00183011 0.000504809 -0.00268321)
(0.00579831 -0.00470292 0.000225859 -0.00223267 0.000487272 0.00075169)
(0.00524429 -0.00473282 0.000106609 -0.00284045 0.000218535 0.00444351)
(0.00762124 -0.00409554 9.23069e-05 -0.00196998 0.000271351 -0.00644588)
(0.00702706 -0.00408123 0.000190005 -0.00252689 0.000523586 -0.00268343)
(0.00648437 -0.0040168 0.000187461 -0.00291894 0.000505592 0.000751675)
(0.00593578 -0.00404265 8.92296e-05 -0.00353158 0.000227408 0.00444371)
(0.00820054 -0.00329408 7.16078e-05 -0.00255047 0.000278982 -0.00644685)
(0.0076058 -0.00328301 0.000148871 -0.00310615 0.000538807 -0.00268421)
(0.00705496 -0.00323139 0.000147315 -0.00348958 0.000520581 0.000751221)
(0.00651077 -0.00325233 7.05874e-05 -0.00410622 0.000234845 0.00444365)
(0.00864833 -0.0024121 5.04753e-05 -0.0029985 0.000284674 -0.00644919)
(0.00805345 -0.00240381 0.000106232 -0.00355306 0.000550407 -0.00268638)
(0.00749613 -0.00236593 0.00010539 -0.00393022 0.000531968 0.000749433)
(0.00695474 -0.00238091 5.06507e-05 -0.00454935 0.000240532 0.00444244)
(0.00895748 -0.00146789 2.88397e-05 -0.0032988 0.000288621 -0.00645435)
(0.00835841 -0.0014668 6.20049e-05 -0.00385437 0.000558349 -0.00269175)
(0.0077971 -0.00144352 6.16244e-05 -0.00422777 0.000539632 0.000744347)
(0.00725327 -0.00144658 2.94979e-05 -0.00484909 0.000244069 0.00443832)
(0.00911442 -0.000520088 -5.46721e-05 -0.00342851 0.000290203 -0.00651686)
(0.00853063 -0.000528273 -4.0495e-05 -0.00399342 0.000565449 -0.00274877)
(0.00797767 -0.000524216 -4.11618e-05 -0.00436421 0.000551219 0.000684987)
(0.00745902 -0.00052766 -5.56359e-05 -0.00498035 0.000257484 0.00436856)
(-0.00319353 -0.000519114 -0.000755909 0.00936738 -1.12152e-05 -0.00630442)
(-0.00379312 -0.000528972 -0.00114895 0.00878281 -3.34639e-05 -0.00281978)
(-0.00427771 -0.000530277 -0.00111931 0.00822596 -3.26649e-05 0.00043604)
(-0.00491972 -0.000534447 -0.000691145 0.00770142 -1.01852e-05 0.00383856)
(-0.00306225 -0.00147068 -0.000758547 0.0092115 -9.29343e-05 -0.00624775)
(-0.00365553 -0.00147434 -0.00114369 0.00861211 -0.000137176 -0.00276633)
(-0.00414143 -0.00146384 -0.00110834 0.00804569 -0.000132087 0.000491386)
(-0.0047844 -0.00146819 -0.000675905 0.00749546 -8.03721e-05 0.00390079)
(-0.00276136 -0.00241646 -0.000749229 0.00890227 -0.000154267 -0.00624231)
(-0.00335289 -0.00241609 -0.00113016 0.0083054 -0.000227808 -0.00276141)
(-0.0038397 -0.002399 -0.00109523 0.00774007 -0.000219143 0.00049553)
(-0.00447937 -0.00241612 -0.000668256 0.00719185 -0.000132536 0.00390362)
(-0.00231254 -0.00330009 -0.000735448 0.00845359 -0.000213806 -0.00623896)
(-0.00290328 -0.00329953 -0.00111004 0.00785494 -0.00031644 -0.00275908)
(-0.00339222 -0.00327631 -0.00107594 0.00729194 -0.000304399 0.000496795)
(-0.00402885 -0.00330017 -0.000656751 0.00674053 -0.000183711 0.0039036)
(-0.00173079 -0.00410313 -0.000717523 0.0078732 -0.000271712 -0.00623681)
(-0.00232046 -0.00410147 -0.00108357 0.00727283 -0.000403103 -0.00275814)
(-0.00281278 -0.00407217 -0.00105052 0.00671272 -0.000387946 0.000496543)
(-0.00344479 -0.00410152 -0.000641574 0.00615634 -0.000233972 0.003902)
(-0.0010305 -0.00480576 -0.000695698 0.00717512 -0.000327789 -0.00623536)
(-0.0016195 -0.0048022 -0.00105094 0.0065732 -0.000487523 -0.0027579)
(-0.00211618 -0.00476699 -0.00101905 0.00601671 -0.00046955 0.000495589)
(-0.00274261 -0.00480082 -0.0006227 0.00545416 -0.000283299 0.00389972)
(-0.000228799 -0.00539067 -0.00067019 0.00637602 -0.000381731 -0.00623441)
(-0.000817844 -0.00538461 -0.00101224 0.00577313 -0.000569295 -0.00275801)
(-0.0013199 -0.00534394 -0.000981515 0.00522114 -0.000548854 0.000494417)
(-0.00194007 -0.00538119 -0.00059999 0.00465161 -0.000331582 0.00389737)
(0.000654707 -0.00584336 -0.000641134 0.00549517 -0.000433271 -0.00623387)
(6.47409e-05 -0.00583456 -0.000967437 0.00489217 -0.00064795 -0.00275827)
(-0.0004437 -0.00578916 -0.000937766 0.00434564 -0.000625389 0.000493318)
(-0.00105719 -0.00582875 -0.000573206 0.00376865 -0.0003786 0.00389533)
(0.00159835 -0.00615258 -0.000608448 0.00455391 -0.000482276 -0.00623369)
(0.0010067 -0.0061411 -0.000916268 0.00395177 -0.000722933 -0.00275856)
(0.000490882 -0.006092 -0.000887547 0.00341171 -0.000698512 0.000492474)
(-0.000115723 -0.00613293 -0.000542089 0.00282705 -0.000423933 0.00389386)
(0.00258055 -0.00631073 -0.000571175 0.00357489 -0.000528659 -0.00623371)
(0.00198496 -0.00629658 -0.000858274 0.00297485 -0.000793465 -0.00275876)
(0.0014608 -0.00624523 -0.000830646 0.00244227 -0.000767317 0.000492011)
(0.000861214 -0.00628668 -0.000506539 0.00185 -0.000466886 0.00389309)
(0.00357489 -0.00631073 -0.000528658 0.00258055 -0.000571175 -0.00623371)
(0.00297485 -0.00629658 -0.000793465 0.00198496 -0.000858274 -0.00275876)
(0.00244228 -0.00624523 -0.000767316 0.0014608 -0.000830646 0.000492011)
(0.00185 -0.00628668 -0.000466885 0.000861215 -0.00050654 0.00389309)
(0.00455391 -0.00615258 -0.000482275 0.00159836 -0.000608449 -0.00623369)
(0.00395177 -0.0061411 -0.000722933 0.0010067 -0.000916268 -0.00275856)
(0.00341171 -0.006092 -0.000698511 0.000490883 -0.000887548 0.000492474)
(0.00282705 -0.00613293 -0.000423932 -0.000115722 -0.00054209 0.00389386)
(0.00549517 -0.00584336 -0.00043327 0.000654709 -0.000641134 -0.00623387)
(0.00489217 -0.00583456 -0.000647949 6.47422e-05 -0.000967437 -0.00275827)
(0.00434565 -0.00578916 -0.000625389 -0.000443699 -0.000937767 0.000493318)
(0.00376865 -0.00582875 -0.000378599 -0.00105719 -0.000573207 0.00389533)
(0.00637602 -0.00539067 -0.00038173 -0.000228797 -0.00067019 -0.00623441)
(0.00577313 -0.00538461 -0.000569295 -0.000817842 -0.00101224 -0.00275801)
(0.00522114 -0.00534394 -0.000548854 -0.0013199 -0.000981515 0.000494417)
(0.00465161 -0.00538119 -0.000331581 -0.00194007 -0.00059999 0.00389737)
(0.00717512 -0.00480576 -0.000327789 -0.00103049 -0.000695697 -0.00623536)
(0.0065732 -0.0048022 -0.000487523 -0.0016195 -0.00105094 -0.0027579)
(0.00601671 -0.00476699 -0.00046955 -0.00211618 -0.00101905 0.000495588)
(0.00545416 -0.00480082 -0.000283298 -0.00274261 -0.0006227 0.00389972)
(0.0078732 -0.00410313 -0.000271711 -0.00173079 -0.000717523 -0.00623681)
(0.00727284 -0.00410147 -0.000403103 -0.00232046 -0.00108357 -0.00275814)
(0.00671272 -0.00407217 -0.000387945 -0.00281278 -0.00105052 0.000496543)
(0.00615634 -0.00410152 -0.000233972 -0.00344479 -0.000641573 0.003902)
(0.00845359 -0.0033001 -0.000213805 -0.00231253 -0.000735447 -0.00623896)
(0.00785495 -0.00329953 -0.000316439 -0.00290327 -0.00111004 -0.00275908)
(0.00729194 -0.00327631 -0.000304398 -0.00339221 -0.00107594 0.000496795)
(0.00674054 -0.00330018 -0.00018371 -0.00402885 -0.000656751 0.0039036)
(0.00890228 -0.00241646 -0.000154266 -0.00276136 -0.000749228 -0.00624231)
(0.00830541 -0.00241609 -0.000227807 -0.00335289 -0.00113016 -0.00276141)
(0.00774007 -0.002399 -0.000219143 -0.0038397 -0.00109523 0.00049553)
(0.00719186 -0.00241612 -0.000132536 -0.00447937 -0.000668256 0.00390362)
(0.0092115 -0.00147068 -9.2934e-05 -0.00306225 -0.000758546 -0.00624775)
(0.00861211 -0.00147434 -0.000137175 -0.00365553 -0.00114369 -0.00276633)
(0.00804569 -0.00146384 -0.000132087 -0.00414143 -0.00110834 0.000491385)
(0.00749547 -0.00146819 -8.03718e-05 -0.0047844 -0.000675904 0.00390079)
(0.00936738 -0.000519114 -1.12151e-05 -0.00319352 -0.000755908 -0.00630442)
(0.00878281 -0.000528972 -3.34638e-05 -0.00379312 -0.00114895 -0.00281978)
(0.00822597 -0.000530277 -3.26648e-05 -0.00427771 -0.00111931 0.00043604)
(0.00770143 -0.000534447 -1.01851e-05 -0.00491972 -0.000691145 0.00383856)
(-0.00312981 -0.000477344 -0.00128564 0.00837821 3.31218e-05 -0.00422078)
(-0.00339034 -0.000473422 -0.00201619 0.00785228 -7.90551e-06 -0.00205409)
(-0.0036357 -0.000465886 -0.00196236 0.00736033 -6.54983e-06 3.17938e-05)
(-0.00395241 -0.000457915 -0.0011694 0.00690553 3.41372e-05 0.00214649)