/*--------------------------------*- C++ -*----------------------------------*\
| =========                 |                                                 |
| \\      /  F ield         | foam-extend: Open Source CFD                    |
|  \\    /   O peration     | Version:     3.1                                |
|   \\  /    A nd           | Web:         http://www.extend-project.de       |
|    \\/     M anipulation  |                                                 |
\*---------------------------------------------------------------------------*/
FoamFile
{
    version     2.0;
    format      ascii;
    class       pointVectorField;
    location    "0.0007";
    object      pointD;
}
// * * * * * * * * * * * * * * * * * * * * * * * * * * * * * * * * * * * * * //

dimensions      [0 1 0 0 0 0 0];

internalField   nonuniform List<vector> 
8505
(
(0 0 0)
(0 0 0)
(0 0 0)
(0 0 0)
(0 0 0)
(0 0 0)
(0 0 0)
(0 0 0)
(0 0 0)
(0 0 0)
(0 0 0)
(0 0 0)
(0 0 0)
(0 0 0)
(0 0 0)
(0 0 0)
(0 0 0)
(0 0 0)
(0 0 0)
(0 0 0)
(0 0 0)
(0 0 0)
(0 0 0)
(0 0 0)
(0 0 0)
(0 0 0)
(0 0 0)
(0 0 0)
(0 0 0)
(0 0 0)
(0 0 0)
(0 0 0)
(0 0 0)
(0 0 0)
(0 0 0)
(0 0 0)
(0 0 0)
(0 0 0)
(0 0 0)
(0 0 0)
(0 0 0)
(0 0 0)
(0 0 0)
(0 0 0)
(0 0 0)
(0 0 0)
(0 0 0)
(0 0 0)
(0 0 0)
(0 0 0)
(0 0 0)
(0 0 0)
(0 0 0)
(0 0 0)
(0 0 0)
(0 0 0)
(0 0 0)
(0 0 0)
(0 0 0)
(0 0 0)
(0 0 0)
(0 0 0)
(0 0 0)
(0 0 0)
(0 0 0)
(0 0 0)
(0 0 0)
(0 0 0)
(0 0 0)
(0 0 0)
(0 0 0)
(0 0 0)
(0 0 0)
(0 0 0)
(0 0 0)
(0 0 0)
(0 0 0)
(0 0 0)
(0 0 0)
(0 0 0)
(0 0 0)
(0 0 0)
(0 0 0)
(0 0 0)
(0 0 0)
(0 0 0)
(0 0 0)
(0 0 0)
(0 0 0)
(0 0 0)
(0 0 0)
(0 0 0)
(0 0 0)
(0 0 0)
(0 0 0)
(0 0 0)
(0 0 0)
(0 0 0)
(0 0 0)
(0 0 0)
(0 0 0)
(0 0 0)
(0 0 0)
(0 0 0)
(0 0 0)
(1.65208e-05 0 9.19092e-06)
(1.49378e-05 0 4.03832e-06)
(1.40145e-05 0 5.91021e-07)
(1.3616e-05 0 -2.7618e-06)
(1.37644e-05 0 -7.48401e-06)
(1.6411e-05 1.27141e-06 9.01237e-06)
(1.48533e-05 1.15717e-06 3.92713e-06)
(1.39488e-05 1.08894e-06 4.96213e-07)
(1.35678e-05 1.06009e-06 -2.87948e-06)
(1.37381e-05 1.07394e-06 -7.67915e-06)
(1.62508e-05 2.56219e-06 9.0063e-06)
(1.47097e-05 2.32062e-06 3.92329e-06)
(1.38151e-05 2.18159e-06 4.93303e-07)
(1.34395e-05 2.12417e-06 -2.88179e-06)
(1.36111e-05 2.1529e-06 -7.67988e-06)
(1.59952e-05 3.8308e-06 9.00292e-06)
(1.44786e-05 3.46873e-06 3.92124e-06)
(1.35981e-05 3.25981e-06 4.92216e-07)
(1.32285e-05 3.17338e-06 -2.88198e-06)
(1.33974e-05 3.21588e-06 -7.67883e-06)
(1.56423e-05 5.07428e-06 9.00096e-06)
(1.4159e-05 4.59442e-06 3.92042e-06)
(1.32978e-05 4.31705e-06 4.92284e-07)
(1.29361e-05 4.20191e-06 -2.88098e-06)
(1.31011e-05 4.25756e-06 -7.67657e-06)
(1.51935e-05 6.28571e-06 8.99987e-06)
(1.37525e-05 5.69107e-06 3.92028e-06)
(1.29158e-05 5.34693e-06 4.92964e-07)
(1.25641e-05 5.20366e-06 -2.8794e-06)
(1.27241e-05 5.27194e-06 -7.67375e-06)
(1.46515e-05 7.45809e-06 8.99946e-06)
(1.32616e-05 6.75225e-06 3.92058e-06)
(1.24544e-05 6.34336e-06 4.93948e-07)
(1.2115e-05 6.17271e-06 -2.87761e-06)
(1.2269e-05 6.25305e-06 -7.67082e-06)
(1.40196e-05 8.58445e-06 8.9997e-06)
(1.26893e-05 7.77166e-06 3.9212e-06)
(1.19166e-05 7.30043e-06 4.95056e-07)
(1.15917e-05 7.10333e-06 -2.87584e-06)
(1.17387e-05 7.19513e-06 -7.66809e-06)
(1.33015e-05 9.65804e-06 9.00057e-06)
(1.20389e-05 8.7432e-06 3.92206e-06)
(1.13056e-05 8.21242e-06 4.96147e-07)
(1.09973e-05 7.98999e-06 -2.87431e-06)
(1.11367e-05 8.09262e-06 -7.66583e-06)
(1.25013e-05 1.06724e-05 9.00201e-06)
(1.13143e-05 9.66102e-06 3.92301e-06)
(1.06252e-05 9.07384e-06 4.9704e-07)
(1.03356e-05 8.82741e-06 -2.87322e-06)
(1.04667e-05 8.94021e-06 -7.66429e-06)
(1.16227e-05 1.16227e-05 9.00285e-06)
(1.05199e-05 1.05199e-05 3.92348e-06)
(9.8797e-06 9.87969e-06 4.97411e-07)
(9.61077e-06 9.61077e-06 -2.87281e-06)
(9.73305e-06 9.73305e-06 -7.66373e-06)
(1.06724e-05 1.25013e-05 9.00201e-06)
(9.66102e-06 1.13143e-05 3.92301e-06)
(9.07384e-06 1.06252e-05 4.9704e-07)
(8.82742e-06 1.03356e-05 -2.87322e-06)
(8.94021e-06 1.04667e-05 -7.66429e-06)
(9.65804e-06 1.33015e-05 9.00057e-06)
(8.74321e-06 1.20389e-05 3.92206e-06)
(8.21242e-06 1.13056e-05 4.96147e-07)
(7.99e-06 1.09973e-05 -2.87431e-06)
(8.09262e-06 1.11367e-05 -7.66583e-06)
(8.58445e-06 1.40196e-05 8.9997e-06)
(7.77167e-06 1.26893e-05 3.9212e-06)
(7.30043e-06 1.19166e-05 4.95056e-07)
(7.10333e-06 1.15917e-05 -2.87584e-06)
(7.19513e-06 1.17387e-05 -7.6681e-06)
(7.45809e-06 1.46515e-05 8.99946e-06)
(6.75225e-06 1.32616e-05 3.92058e-06)
(6.34336e-06 1.24544e-05 4.93948e-07)
(6.17271e-06 1.2115e-05 -2.87761e-06)
(6.25305e-06 1.2269e-05 -7.67082e-06)
(6.28571e-06 1.51935e-05 8.99987e-06)
(5.69107e-06 1.37525e-05 3.92028e-06)
(5.34693e-06 1.29158e-05 4.92964e-07)
(5.20366e-06 1.25641e-05 -2.8794e-06)
(5.27194e-06 1.27241e-05 -7.67375e-06)
(5.07428e-06 1.56423e-05 9.00097e-06)
(4.59442e-06 1.4159e-05 3.92042e-06)
(4.31705e-06 1.32978e-05 4.92284e-07)
(4.20191e-06 1.29361e-05 -2.88098e-06)
(4.25756e-06 1.31011e-05 -7.67657e-06)
(3.8308e-06 1.59952e-05 9.00292e-06)
(3.46873e-06 1.44786e-05 3.92124e-06)
(3.25981e-06 1.35981e-05 4.92216e-07)
(3.17339e-06 1.32285e-05 -2.88198e-06)
(3.21589e-06 1.33975e-05 -7.67883e-06)
(2.56219e-06 1.62508e-05 9.0063e-06)
(2.32062e-06 1.47097e-05 3.92329e-06)
(2.18159e-06 1.38151e-05 4.93303e-07)
(2.12417e-06 1.34395e-05 -2.88179e-06)
(2.15291e-06 1.36111e-05 -7.67988e-06)
(1.27141e-06 1.6411e-05 9.01237e-06)
(1.15718e-06 1.48533e-05 3.92713e-06)
(1.08894e-06 1.39488e-05 4.96213e-07)
(1.06009e-06 1.35678e-05 -2.87948e-06)
(1.07394e-06 1.37381e-05 -7.67915e-06)
(0 1.65208e-05 9.19092e-06)
(0 1.49378e-05 4.03832e-06)
(0 1.40145e-05 5.91021e-07)
(0 1.3616e-05 -2.7618e-06)
(0 1.37644e-05 -7.48401e-06)
(3.27892e-05 0 1.00078e-05)
(3.16435e-05 0 5.0111e-06)
(3.06264e-05 0 8.58882e-07)
(2.98174e-05 0 -3.24206e-06)
(2.91174e-05 0 -8.06624e-06)
(3.26531e-05 2.55698e-06 9.85178e-06)
(3.15089e-05 2.4757e-06 4.88074e-06)
(3.05002e-05 2.40035e-06 7.34906e-07)
(2.96992e-05 2.34161e-06 -3.38382e-06)
(2.9001e-05 2.29327e-06 -8.24877e-06)
(3.2344e-05 5.1119e-06 9.84419e-06)
(3.1209e-05 4.93629e-06 4.8728e-06)
(3.02102e-05 4.7825e-06 7.27549e-07)
(2.94174e-05 4.66135e-06 -3.39025e-06)
(2.87257e-05 4.55618e-06 -8.252e-06)
(3.18365e-05 7.63053e-06 9.83986e-06)
(3.07191e-05 7.36649e-06 4.8696e-06)
(2.97355e-05 7.13484e-06 7.25496e-07)
(2.89549e-05 6.95199e-06 -3.39089e-06)
(2.82735e-05 6.79291e-06 -8.25072e-06)
(3.11334e-05 1.01016e-05 9.83722e-06)
(3.00402e-05 9.75082e-06 4.8685e-06)
(2.90779e-05 9.44278e-06 7.25799e-07)
(2.83139e-05 9.19926e-06 -3.38906e-06)
(2.76471e-05 8.98723e-06 -8.247e-06)
(3.02391e-05 1.25103e-05 9.83558e-06)
(2.91767e-05 1.20748e-05 4.86846e-06)
(2.82413e-05 1.16921e-05 7.272e-07)
(2.74988e-05 1.13892e-05 -3.3861e-06)
(2.68507e-05 1.11253e-05 -8.24216e-06)
(2.91589e-05 1.48421e-05 9.83477e-06)
(2.81339e-05 1.43244e-05 4.86906e-06)
(2.72315e-05 1.38691e-05 7.29112e-07)
(2.6515e-05 1.35085e-05 -3.38274e-06)
(2.58896e-05 1.31942e-05 -8.23701e-06)
(2.78998e-05 1.7083e-05 9.83477e-06)
(2.69185e-05 1.6486e-05 4.87009e-06)
(2.60547e-05 1.59607e-05 7.31192e-07)
(2.53689e-05 1.55444e-05 -3.37944e-06)
(2.47702e-05 1.51813e-05 -8.23219e-06)
(2.64693e-05 1.92194e-05 9.83559e-06)
(2.5538e-05 1.85465e-05 4.8714e-06)
(2.47182e-05 1.79543e-05 7.33156e-07)
(2.40676e-05 1.74847e-05 -3.37661e-06)
(2.34996e-05 1.7075e-05 -8.22821e-06)
(2.4876e-05 2.12383e-05 9.83705e-06)
(2.40004e-05 2.04935e-05 4.8727e-06)
(2.32303e-05 1.98379e-05 7.34666e-07)
(2.26191e-05 1.93177e-05 -3.37464e-06)
(2.20857e-05 1.88638e-05 -8.22553e-06)
(2.31282e-05 2.31282e-05 9.83789e-06)
(2.23153e-05 2.23153e-05 4.8733e-06)
(2.16001e-05 2.16001e-05 7.35258e-07)
(2.10326e-05 2.10326e-05 -3.37392e-06)
(2.05373e-05 2.05373e-05 -8.22458e-06)
(2.12383e-05 2.4876e-05 9.83705e-06)
(2.04935e-05 2.40004e-05 4.8727e-06)
(1.98379e-05 2.32303e-05 7.34666e-07)
(1.93177e-05 2.26191e-05 -3.37464e-06)
(1.88638e-05 2.20857e-05 -8.22553e-06)
(1.92194e-05 2.64693e-05 9.83559e-06)
(1.85465e-05 2.5538e-05 4.87141e-06)
(1.79544e-05 2.47182e-05 7.33157e-07)
(1.74847e-05 2.40676e-05 -3.37661e-06)
(1.7075e-05 2.34996e-05 -8.22821e-06)
(1.70831e-05 2.78998e-05 9.83477e-06)
(1.6486e-05 2.69185e-05 4.87009e-06)
(1.59607e-05 2.60547e-05 7.31192e-07)
(1.55445e-05 2.53689e-05 -3.37944e-06)
(1.51813e-05 2.47702e-05 -8.23219e-06)
(1.48421e-05 2.91589e-05 9.83477e-06)
(1.43244e-05 2.81339e-05 4.86906e-06)
(1.38691e-05 2.72315e-05 7.29112e-07)
(1.35085e-05 2.6515e-05 -3.38274e-06)
(1.31942e-05 2.58896e-05 -8.23701e-06)
(1.25103e-05 3.02391e-05 9.83558e-06)
(1.20748e-05 2.91767e-05 4.86846e-06)
(1.16921e-05 2.82414e-05 7.272e-07)
(1.13892e-05 2.74988e-05 -3.3861e-06)
(1.11253e-05 2.68507e-05 -8.24216e-06)
(1.01016e-05 3.11334e-05 9.83722e-06)
(9.75083e-06 3.00402e-05 4.8685e-06)
(9.44278e-06 2.90779e-05 7.25799e-07)
(9.19926e-06 2.83139e-05 -3.38906e-06)
(8.98723e-06 2.76471e-05 -8.247e-06)
(7.63053e-06 3.18365e-05 9.83986e-06)
(7.36649e-06 3.07191e-05 4.8696e-06)
(7.13485e-06 2.97355e-05 7.25496e-07)
(6.95199e-06 2.89549e-05 -3.39089e-06)
(6.79291e-06 2.82735e-05 -8.25072e-06)
(5.1119e-06 3.2344e-05 9.84419e-06)
(4.93629e-06 3.1209e-05 4.8728e-06)
(4.7825e-06 3.02102e-05 7.27549e-07)
(4.66135e-06 2.94174e-05 -3.39025e-06)
(4.55618e-06 2.87257e-05 -8.252e-06)
(2.55698e-06 3.26531e-05 9.85178e-06)
(2.4757e-06 3.15089e-05 4.88074e-06)
(2.40035e-06 3.05002e-05 7.34906e-07)
(2.34162e-06 2.96992e-05 -3.38382e-06)
(2.29327e-06 2.9001e-05 -8.24877e-06)
(0 3.27892e-05 1.00078e-05)
(0 3.16435e-05 5.0111e-06)
(0 3.06264e-05 8.58882e-07)
(0 2.98174e-05 -3.24206e-06)
(0 2.91174e-05 -8.06624e-06)
(4.48447e-05 0 6.52537e-06)
(4.39394e-05 0 3.3779e-06)
(4.29259e-05 0 5.47423e-07)
(4.18634e-05 0 -2.26572e-06)
(4.06815e-05 0 -5.34956e-06)
(4.46823e-05 3.50802e-06 6.43098e-06)
(4.37713e-05 3.44391e-06 3.29123e-06)
(4.27569e-05 3.3692e-06 4.60838e-07)
(4.16935e-05 3.29171e-06 -2.36087e-06)
(4.05068e-05 3.21034e-06 -5.46142e-06)
(4.42627e-05 6.99833e-06 6.42539e-06)
(4.33573e-05 6.86062e-06 3.28576e-06)
(4.23509e-05 6.7074e-06 4.55815e-07)
(4.12961e-05 6.54692e-06 -2.36481e-06)
(4.01194e-05 6.36775e-06 -5.46318e-06)
(4.35681e-05 1.04418e-05 6.4216e-06)
(4.26759e-05 1.02343e-05 3.2832e-06)
(4.16842e-05 1.0003e-05 4.54436e-07)
(4.06451e-05 9.76057e-06 -2.36472e-06)
(3.94858e-05 9.48959e-06 -5.46124e-06)
(4.26044e-05 1.38206e-05 6.41888e-06)
(4.17308e-05 1.35442e-05 3.28228e-06)
(4.07601e-05 1.3236e-05 4.55103e-07)
(3.97431e-05 1.2913e-05 -2.36234e-06)
(3.86085e-05 1.25521e-05 -5.45682e-06)
(4.1378e-05 1.71143e-05 6.4169e-06)
(4.05286e-05 1.67702e-05 3.28231e-06)
(3.95848e-05 1.63868e-05 4.56879e-07)
(3.85963e-05 1.59848e-05 -2.35873e-06)
(3.74936e-05 1.55359e-05 -5.45098e-06)
(3.98973e-05 2.03033e-05 6.4156e-06)
(3.90772e-05 1.9893e-05 3.28296e-06)
(3.81665e-05 1.94362e-05 4.5923e-07)
(3.72127e-05 1.89575e-05 -2.35457e-06)
(3.6149e-05 1.84228e-05 -5.44459e-06)
(3.81716e-05 2.33682e-05 6.41507e-06)
(3.73864e-05 2.28939e-05 3.28405e-06)
(3.65145e-05 2.23661e-05 4.61782e-07)
(3.56017e-05 2.18131e-05 -2.35042e-06)
(3.45837e-05 2.11957e-05 -5.43842e-06)
(3.62119e-05 2.62905e-05 6.41539e-06)
(3.54667e-05 2.57548e-05 3.28543e-06)
(3.46394e-05 2.5159e-05 4.64176e-07)
(3.37735e-05 2.45348e-05 -2.34682e-06)
(3.2808e-05 2.38382e-05 -5.43322e-06)
(3.40301e-05 2.90526e-05 6.41644e-06)
(3.33298e-05 2.84585e-05 3.28675e-06)
(3.25528e-05 2.77981e-05 4.65978e-07)
(3.17397e-05 2.71064e-05 -2.34431e-06)
(3.0833e-05 2.63348e-05 -5.4297e-06)
(3.16383e-05 3.16383e-05 6.41712e-06)
(3.09888e-05 3.09888e-05 3.28735e-06)
(3.02677e-05 3.02676e-05 4.66671e-07)
(2.95128e-05 2.95128e-05 -2.3434e-06)
(2.86709e-05 2.86709e-05 -5.42845e-06)
(2.90526e-05 3.40301e-05 6.41644e-06)
(2.84585e-05 3.33298e-05 3.28675e-06)
(2.77981e-05 3.25528e-05 4.65978e-07)
(2.71064e-05 3.17397e-05 -2.34431e-06)
(2.63348e-05 3.0833e-05 -5.4297e-06)
(2.62905e-05 3.62119e-05 6.41539e-06)
(2.57548e-05 3.54667e-05 3.28543e-06)
(2.5159e-05 3.46394e-05 4.64176e-07)
(2.45348e-05 3.37735e-05 -2.34682e-06)
(2.38382e-05 3.2808e-05 -5.43322e-06)
(2.33682e-05 3.81716e-05 6.41507e-06)
(2.28939e-05 3.73864e-05 3.28405e-06)
(2.23661e-05 3.65145e-05 4.61782e-07)
(2.18131e-05 3.56017e-05 -2.35042e-06)
(2.11957e-05 3.45837e-05 -5.43842e-06)
(2.03033e-05 3.98973e-05 6.4156e-06)
(1.9893e-05 3.90772e-05 3.28296e-06)
(1.94362e-05 3.81665e-05 4.5923e-07)
(1.89575e-05 3.72127e-05 -2.35457e-06)
(1.84228e-05 3.6149e-05 -5.44459e-06)
(1.71143e-05 4.1378e-05 6.4169e-06)
(1.67702e-05 4.05286e-05 3.28231e-06)
(1.63868e-05 3.95848e-05 4.56879e-07)
(1.59848e-05 3.85963e-05 -2.35873e-06)
(1.55359e-05 3.74936e-05 -5.45098e-06)
(1.38206e-05 4.26044e-05 6.41888e-06)
(1.35442e-05 4.17308e-05 3.28228e-06)
(1.3236e-05 4.07601e-05 4.55103e-07)
(1.2913e-05 3.97431e-05 -2.36234e-06)
(1.25521e-05 3.86085e-05 -5.45682e-06)
(1.04418e-05 4.35681e-05 6.4216e-06)
(1.02343e-05 4.26759e-05 3.2832e-06)
(1.0003e-05 4.16842e-05 4.54435e-07)
(9.76058e-06 4.06451e-05 -2.36472e-06)
(9.48959e-06 3.94858e-05 -5.46124e-06)
(6.99833e-06 4.42627e-05 6.42539e-06)
(6.86062e-06 4.33573e-05 3.28576e-06)
(6.7074e-06 4.23509e-05 4.55815e-07)
(6.54692e-06 4.12961e-05 -2.36481e-06)
(6.36776e-06 4.01194e-05 -5.46319e-06)
(3.50802e-06 4.46823e-05 6.43098e-06)
(3.44391e-06 4.37713e-05 3.29123e-06)
(3.36921e-06 4.27569e-05 4.60838e-07)
(3.29171e-06 4.16935e-05 -2.36087e-06)
(3.21034e-06 4.05068e-05 -5.46142e-06)
(0 4.48447e-05 6.52537e-06)
(0 4.39394e-05 3.3779e-06)
(0 4.29259e-05 5.47423e-07)
(0 4.18634e-05 -2.26572e-06)
(0 4.06815e-05 -5.34956e-06)
(4.98274e-05 0 1.12416e-06)
(4.90167e-05 0 5.38509e-07)
(4.80279e-05 0 -1.32439e-07)
(4.69029e-05 0 -8.14972e-07)
(4.55923e-05 0 -1.44039e-06)
(4.96528e-05 3.89805e-06 1.10953e-06)
(4.88346e-05 3.84119e-06 5.19588e-07)
(4.78417e-05 3.76874e-06 -1.53647e-07)
(4.67125e-05 3.68722e-06 -8.36416e-07)
(4.53959e-05 3.59793e-06 -1.45938e-06)
(4.9186e-05 7.77327e-06 1.1081e-06)
(4.83721e-05 7.65158e-06 5.18798e-07)
(4.73861e-05 7.50299e-06 -1.53897e-07)
(4.62655e-05 7.33377e-06 -8.35878e-07)
(4.49598e-05 7.13622e-06 -1.45794e-06)
(4.84121e-05 1.1597e-05 1.10633e-06)
(4.76094e-05 1.14135e-05 5.18289e-07)
(4.66375e-05 1.1189e-05 -1.5337e-07)
(4.55334e-05 1.09331e-05 -8.34227e-07)
(4.42468e-05 1.0634e-05 -1.45494e-06)
(4.73379e-05 1.53486e-05 1.10455e-06)
(4.65515e-05 1.51036e-05 5.18204e-07)
(4.55998e-05 1.48042e-05 -1.52059e-07)
(4.4519e-05 1.4463e-05 -8.31484e-07)
(4.32598e-05 1.40645e-05 -1.45046e-06)
(4.59713e-05 1.90054e-05 1.10293e-06)
(4.52059e-05 1.86996e-05 5.18537e-07)
(4.42805e-05 1.83266e-05 -1.50124e-07)
(4.32299e-05 1.79017e-05 -8.27904e-07)
(4.2006e-05 1.74059e-05 -1.44485e-06)
(4.43215e-05 2.25456e-05 1.10161e-06)
(4.35823e-05 2.21801e-05 5.19257e-07)
(4.2689e-05 2.17351e-05 -1.47763e-07)
(4.16753e-05 2.12287e-05 -8.23838e-07)
(4.04947e-05 2.06379e-05 -1.4386e-06)
(4.23996e-05 2.59481e-05 1.10082e-06)
(4.16916e-05 2.55245e-05 5.2032e-07)
(4.08365e-05 2.50096e-05 -1.45222e-07)
(3.98664e-05 2.44241e-05 -8.19721e-07)
(3.87368e-05 2.37414e-05 -1.4324e-06)
(4.02183e-05 2.91927e-05 1.10075e-06)
(3.95465e-05 2.87129e-05 5.2161e-07)
(3.87354e-05 2.81309e-05 -1.42829e-07)
(3.78154e-05 2.74695e-05 -8.16082e-07)
(3.67443e-05 2.66987e-05 -1.42701e-06)
(3.77913e-05 3.22602e-05 1.10139e-06)
(3.71605e-05 3.17268e-05 5.22832e-07)
(3.63991e-05 3.10808e-05 -1.41028e-07)
(3.55356e-05 3.03473e-05 -8.1352e-07)
(3.45302e-05 2.94928e-05 -1.4233e-06)
(3.51327e-05 3.51327e-05 1.10188e-06)
(3.45484e-05 3.45484e-05 5.23373e-07)
(3.38424e-05 3.38423e-05 -1.40339e-07)
(3.30412e-05 3.30412e-05 -8.12586e-07)
(3.21083e-05 3.21083e-05 -1.42196e-06)
(3.22602e-05 3.77913e-05 1.10139e-06)
(3.17268e-05 3.71605e-05 5.22832e-07)
(3.10809e-05 3.63991e-05 -1.41028e-07)
(3.03473e-05 3.55356e-05 -8.1352e-07)
(2.94929e-05 3.45302e-05 -1.4233e-06)
(2.91927e-05 4.02183e-05 1.10075e-06)
(2.87129e-05 3.95465e-05 5.2161e-07)
(2.81309e-05 3.87354e-05 -1.42829e-07)
(2.74695e-05 3.78154e-05 -8.16082e-07)
(2.66987e-05 3.67443e-05 -1.42701e-06)
(2.59481e-05 4.23996e-05 1.10082e-06)
(2.55245e-05 4.16916e-05 5.2032e-07)
(2.50096e-05 4.08365e-05 -1.45222e-07)
(2.44241e-05 3.98664e-05 -8.19721e-07)
(2.37415e-05 3.87368e-05 -1.4324e-06)
(2.25456e-05 4.43215e-05 1.10161e-06)
(2.21801e-05 4.35823e-05 5.19258e-07)
(2.17351e-05 4.2689e-05 -1.47763e-07)
(2.12287e-05 4.16753e-05 -8.23839e-07)
(2.06379e-05 4.04947e-05 -1.43861e-06)
(1.90054e-05 4.59713e-05 1.10293e-06)
(1.86996e-05 4.52059e-05 5.18537e-07)
(1.83266e-05 4.42805e-05 -1.50124e-07)
(1.79017e-05 4.32299e-05 -8.27905e-07)
(1.74059e-05 4.2006e-05 -1.44485e-06)
(1.53486e-05 4.73379e-05 1.10455e-06)
(1.51036e-05 4.65515e-05 5.18204e-07)
(1.48042e-05 4.55998e-05 -1.52059e-07)
(1.4463e-05 4.4519e-05 -8.31484e-07)
(1.40645e-05 4.32598e-05 -1.45046e-06)
(1.1597e-05 4.84121e-05 1.10633e-06)
(1.14135e-05 4.76094e-05 5.18289e-07)
(1.1189e-05 4.66375e-05 -1.53371e-07)
(1.09331e-05 4.55334e-05 -8.34228e-07)
(1.06341e-05 4.42468e-05 -1.45494e-06)
(7.77327e-06 4.9186e-05 1.1081e-06)
(7.65158e-06 4.83721e-05 5.18798e-07)
(7.50299e-06 4.73861e-05 -1.53897e-07)
(7.33378e-06 4.62655e-05 -8.35878e-07)
(7.13622e-06 4.49598e-05 -1.45794e-06)
(3.89805e-06 4.96528e-05 1.10953e-06)
(3.84119e-06 4.88346e-05 5.19588e-07)
(3.76874e-06 4.78417e-05 -1.53647e-07)
(3.68723e-06 4.67125e-05 -8.36416e-07)
(3.59794e-06 4.53959e-05 -1.45938e-06)
(0 4.98274e-05 1.12416e-06)
(0 4.90167e-05 5.3851e-07)
(0 4.80279e-05 -1.3244e-07)
(0 4.69029e-05 -8.14972e-07)
(0 4.55923e-05 -1.44039e-06)
(4.74482e-05 0 -4.01658e-06)
(4.66599e-05 0 -2.2867e-06)
(4.57476e-05 0 -9.10508e-07)
(4.47293e-05 0 4.27755e-07)
(4.3577e-05 0 2.02444e-06)
(4.72796e-05 3.7065e-06 -3.96096e-06)
(4.64862e-05 3.65234e-06 -2.2426e-06)
(4.55707e-05 3.58629e-06 -8.69343e-07)
(4.45491e-05 3.51333e-06 4.74745e-07)
(4.33931e-05 3.43609e-06 2.08671e-06)
(4.68328e-05 7.39409e-06 -3.95814e-06)
(4.60437e-05 7.2776e-06 -2.23917e-06)
(4.51344e-05 7.14202e-06 -8.65587e-07)
(4.41206e-05 6.99048e-06 4.78792e-07)
(4.29744e-05 6.81903e-06 2.09044e-06)
(4.60928e-05 1.10323e-05 -3.95708e-06)
(4.53144e-05 1.08564e-05 -2.23738e-06)
(4.44179e-05 1.06515e-05 -8.63287e-07)
(4.34189e-05 1.0422e-05 4.81525e-07)
(4.22893e-05 1.01622e-05 2.09365e-06)
(4.50659e-05 1.46013e-05 -3.95685e-06)
(4.43029e-05 1.43662e-05 -2.23623e-06)
(4.34249e-05 1.40926e-05 -8.61437e-07)
(4.24469e-05 1.37864e-05 4.84049e-07)
(4.13413e-05 1.34399e-05 2.09701e-06)
(4.37597e-05 1.80794e-05 -3.95698e-06)
(4.30168e-05 1.77857e-05 -2.23523e-06)
(4.21629e-05 1.74444e-05 -8.59579e-07)
(4.1212e-05 1.70629e-05 4.86766e-07)
(4.01374e-05 1.66313e-05 2.10084e-06)
(4.21833e-05 2.14459e-05 -3.95718e-06)
(4.14656e-05 2.10945e-05 -2.23415e-06)
(4.06413e-05 2.06869e-05 -8.57566e-07)
(3.97238e-05 2.02316e-05 4.89744e-07)
(3.86872e-05 1.97169e-05 2.10513e-06)
(4.03478e-05 2.46812e-05 -3.95721e-06)
(3.96604e-05 2.42732e-05 -2.23293e-06)
(3.88714e-05 2.3801e-05 -8.55452e-07)
(3.79935e-05 2.32741e-05 4.92806e-07)
(3.70018e-05 2.26786e-05 2.10956e-06)
(3.82659e-05 2.77667e-05 -3.95688e-06)
(3.76138e-05 2.73037e-05 -2.23162e-06)
(3.68657e-05 2.67692e-05 -8.53454e-07)
(3.60336e-05 2.61733e-05 4.95585e-07)
(3.50937e-05 2.55e-05 2.11356e-06)
(3.59514e-05 3.06846e-05 -3.95615e-06)
(3.53398e-05 3.0169e-05 -2.23045e-06)
(3.46381e-05 2.95749e-05 -8.51941e-07)
(3.38575e-05 2.89132e-05 4.97584e-07)
(3.2976e-05 2.81658e-05 2.1164e-06)
(3.34187e-05 3.34187e-05 -3.95569e-06)
(3.28529e-05 3.28529e-05 -2.22995e-06)
(3.22028e-05 3.22028e-05 -8.51361e-07)
(3.14793e-05 3.14793e-05 4.98322e-07)
(3.06622e-05 3.06622e-05 2.11744e-06)
(3.06846e-05 3.59514e-05 -3.95615e-06)
(3.0169e-05 3.53398e-05 -2.23045e-06)
(2.95749e-05 3.46381e-05 -8.51941e-07)
(2.89132e-05 3.38575e-05 4.97584e-07)
(2.81658e-05 3.2976e-05 2.1164e-06)
(2.77667e-05 3.82659e-05 -3.95688e-06)
(2.73037e-05 3.76138e-05 -2.23162e-06)
(2.67692e-05 3.68657e-05 -8.53455e-07)
(2.61733e-05 3.60336e-05 4.95584e-07)
(2.55e-05 3.50937e-05 2.11356e-06)
(2.46812e-05 4.03478e-05 -3.95721e-06)
(2.42732e-05 3.96604e-05 -2.23293e-06)
(2.3801e-05 3.88714e-05 -8.55452e-07)
(2.32741e-05 3.79935e-05 4.92805e-07)
(2.26786e-05 3.70018e-05 2.10956e-06)
(2.14459e-05 4.21833e-05 -3.95718e-06)
(2.10945e-05 4.14656e-05 -2.23415e-06)
(2.06869e-05 4.06413e-05 -8.57566e-07)
(2.02316e-05 3.97238e-05 4.89743e-07)
(1.97169e-05 3.86872e-05 2.10513e-06)
(1.80794e-05 4.37597e-05 -3.95698e-06)
(1.77857e-05 4.30169e-05 -2.23523e-06)
(1.74444e-05 4.21629e-05 -8.59579e-07)
(1.70629e-05 4.1212e-05 4.86766e-07)
(1.66313e-05 4.01374e-05 2.10084e-06)
(1.46013e-05 4.50659e-05 -3.95685e-06)
(1.43663e-05 4.43029e-05 -2.23623e-06)
(1.40926e-05 4.3425e-05 -8.61438e-07)
(1.37865e-05 4.24469e-05 4.84048e-07)
(1.34399e-05 4.13413e-05 2.09701e-06)
(1.10323e-05 4.60928e-05 -3.95708e-06)
(1.08565e-05 4.53144e-05 -2.23738e-06)
(1.06515e-05 4.44179e-05 -8.63288e-07)
(1.0422e-05 4.34189e-05 4.81524e-07)
(1.01622e-05 4.22893e-05 2.09365e-06)
(7.3941e-06 4.68328e-05 -3.95814e-06)
(7.2776e-06 4.60437e-05 -2.23917e-06)
(7.14202e-06 4.51344e-05 -8.65587e-07)
(6.99048e-06 4.41206e-05 4.78791e-07)
(6.81904e-06 4.29744e-05 2.09044e-06)
(3.7065e-06 4.72796e-05 -3.96096e-06)
(3.65234e-06 4.64862e-05 -2.2426e-06)
(3.58629e-06 4.55707e-05 -8.69343e-07)
(3.51333e-06 4.45491e-05 4.74745e-07)
(3.43609e-06 4.33931e-05 2.08671e-06)
(0 4.74482e-05 -4.01658e-06)
(0 4.66599e-05 -2.2867e-06)
(0 4.57476e-05 -9.10509e-07)
(0 4.47293e-05 4.27754e-07)
(0 4.3577e-05 2.02444e-06)
(3.97725e-05 0 -7.37962e-06)
(3.89909e-05 0 -4.25109e-06)
(3.82024e-05 0 -1.56359e-06)
(3.73974e-05 0 1.06969e-06)
(3.65681e-05 0 4.01138e-06)
(3.96249e-05 3.09898e-06 -7.2832e-06)
(3.88428e-05 3.04641e-06 -4.16761e-06)
(3.8054e-05 2.99022e-06 -1.48242e-06)
(3.72486e-05 2.93343e-06 1.15925e-06)
(3.64199e-05 2.87937e-06 4.12045e-06)
(3.92477e-05 6.18804e-06 -7.27757e-06)
(3.84705e-05 6.07382e-06 -4.16191e-06)
(3.76874e-05 5.95821e-06 -1.47684e-06)
(3.68882e-05 5.84037e-06 1.16451e-06)
(3.60669e-05 5.71989e-06 4.12444e-06)
(3.86246e-05 9.23504e-06 -7.27389e-06)
(3.7858e-05 9.06239e-06 -4.15847e-06)
(3.70858e-05 8.8874e-06 -1.47371e-06)
(3.62983e-05 8.70876e-06 1.1672e-06)
(3.54889e-05 8.52569e-06 4.12655e-06)
(3.77604e-05 1.22234e-05 -7.2712e-06)
(3.7009e-05 1.19927e-05 -4.15614e-06)
(3.62526e-05 1.1759e-05 -1.47173e-06)
(3.54815e-05 1.15203e-05 1.16879e-06)
(3.4689e-05 1.12758e-05 4.12768e-06)
(3.66612e-05 1.51349e-05 -7.26901e-06)
(3.59297e-05 1.48468e-05 -4.15429e-06)
(3.5194e-05 1.45551e-05 -1.47021e-06)
(3.44441e-05 1.42573e-05 1.16997e-06)
(3.36737e-05 1.39523e-05 4.12851e-06)
(3.53351e-05 1.79523e-05 -7.26707e-06)
(3.46283e-05 1.76077e-05 -4.1526e-06)
(3.39181e-05 1.72589e-05 -1.46879e-06)
(3.31945e-05 1.69031e-05 1.17113e-06)
(3.24512e-05 1.65388e-05 4.12945e-06)
(3.37917e-05 2.06596e-05 -7.26529e-06)
(3.31147e-05 2.02594e-05 -4.15098e-06)
(3.24349e-05 1.98549e-05 -1.46739e-06)
(3.17428e-05 1.94426e-05 1.17236e-06)
(3.10319e-05 1.90202e-05 4.13061e-06)
(3.20421e-05 2.32416e-05 -7.26364e-06)
(3.14002e-05 2.27872e-05 -4.14947e-06)
(3.0756e-05 2.23289e-05 -1.46607e-06)
(3.01002e-05 2.18617e-05 1.17356e-06)
(2.94268e-05 2.13832e-05 4.13186e-06)
(3.00988e-05 2.56843e-05 -7.26218e-06)
(2.94972e-05 2.51778e-05 -4.14826e-06)
(2.88934e-05 2.46678e-05 -1.46506e-06)
(2.82788e-05 2.41483e-05 1.17448e-06)
(2.76481e-05 2.36157e-05 4.13285e-06)
(2.79748e-05 2.79748e-05 -7.26152e-06)
(2.74187e-05 2.74187e-05 -4.14777e-06)
(2.68599e-05 2.68599e-05 -1.46466e-06)
(2.6291e-05 2.6291e-05 1.17483e-06)
(2.57074e-05 2.57074e-05 4.13323e-06)
(2.56843e-05 3.00988e-05 -7.26218e-06)
(2.51778e-05 2.94972e-05 -4.14826e-06)
(2.46678e-05 2.88934e-05 -1.46506e-06)
(2.41483e-05 2.82788e-05 1.17448e-06)
(2.36157e-05 2.76481e-05 4.13285e-06)
(2.32416e-05 3.20421e-05 -7.26364e-06)
(2.27872e-05 3.14002e-05 -4.14947e-06)
(2.23289e-05 3.0756e-05 -1.46607e-06)
(2.18617e-05 3.01002e-05 1.17356e-06)
(2.13832e-05 2.94268e-05 4.13186e-06)
(2.06596e-05 3.37917e-05 -7.26529e-06)
(2.02594e-05 3.31147e-05 -4.15098e-06)
(1.98549e-05 3.24349e-05 -1.46739e-06)
(1.94426e-05 3.17428e-05 1.17236e-06)
(1.90202e-05 3.10319e-05 4.13061e-06)
(1.79524e-05 3.53351e-05 -7.26707e-06)
(1.76077e-05 3.46283e-05 -4.1526e-06)
(1.72589e-05 3.39181e-05 -1.46879e-06)
(1.69032e-05 3.31945e-05 1.17113e-06)
(1.65388e-05 3.24512e-05 4.12945e-06)
(1.51349e-05 3.66612e-05 -7.26901e-06)
(1.48468e-05 3.59297e-05 -4.15429e-06)
(1.45551e-05 3.5194e-05 -1.47021e-06)
(1.42573e-05 3.44441e-05 1.16997e-06)
(1.39523e-05 3.36737e-05 4.12851e-06)
(1.22234e-05 3.77604e-05 -7.2712e-06)
(1.19927e-05 3.7009e-05 -4.15614e-06)
(1.1759e-05 3.62527e-05 -1.47173e-06)
(1.15203e-05 3.54815e-05 1.16879e-06)
(1.12758e-05 3.4689e-05 4.12768e-06)
(9.23504e-06 3.86246e-05 -7.27389e-06)
(9.0624e-06 3.7858e-05 -4.15847e-06)
(8.8874e-06 3.70859e-05 -1.47371e-06)
(8.70876e-06 3.62983e-05 1.1672e-06)
(8.52569e-06 3.54889e-05 4.12655e-06)
(6.18805e-06 3.92477e-05 -7.27757e-06)
(6.07383e-06 3.84705e-05 -4.16191e-06)
(5.95821e-06 3.76874e-05 -1.47685e-06)
(5.84037e-06 3.68882e-05 1.16451e-06)
(5.71989e-06 3.60669e-05 4.12444e-06)
(3.09898e-06 3.96249e-05 -7.2832e-06)
(3.04641e-06 3.88428e-05 -4.16761e-06)
(2.99023e-06 3.8054e-05 -1.48242e-06)
(2.93344e-06 3.72486e-05 1.15925e-06)
(2.87937e-06 3.64199e-05 4.12045e-06)
(0 3.97725e-05 -7.37962e-06)
(0 3.8991e-05 -4.25109e-06)
(0 3.82024e-05 -1.56359e-06)
(0 3.73974e-05 1.06969e-06)
(0 3.65681e-05 4.01138e-06)
(3.0069e-05 0 -8.47114e-06)
(2.93145e-05 0 -5.03928e-06)
(2.86671e-05 0 -1.96691e-06)
(2.8097e-05 0 1.04911e-06)
(2.76097e-05 0 4.29302e-06)
(2.99499e-05 2.33504e-06 -8.36816e-06)
(2.91991e-05 2.28491e-06 -4.94553e-06)
(2.85546e-05 2.23947e-06 -1.87391e-06)
(2.79873e-05 2.20004e-06 1.14971e-06)
(2.75043e-05 2.16982e-06 4.40952e-06)
(2.96626e-05 4.66946e-06 -8.36182e-06)
(2.89173e-05 4.55951e-06 -4.93981e-06)
(2.82778e-05 4.46571e-06 -1.8688e-06)
(2.77151e-05 4.38406e-06 1.154e-06)
(2.7237e-05 4.31632e-06 4.41207e-06)
(2.91898e-05 6.97138e-06 -8.35667e-06)
(2.8455e-05 6.80507e-06 -4.93584e-06)
(2.78245e-05 6.66292e-06 -1.8659e-06)
(2.727e-05 6.53892e-06 1.15571e-06)
(2.67986e-05 6.43545e-06 4.41234e-06)
(2.85347e-05 9.22861e-06 -8.35209e-06)
(2.78146e-05 9.00665e-06 -4.93285e-06)
(2.7197e-05 8.81667e-06 -1.86424e-06)
(2.66539e-05 8.65073e-06 1.15601e-06)
(2.61921e-05 8.51204e-06 4.41103e-06)
(2.77015e-05 1.14273e-05 -8.34779e-06)
(2.70006e-05 1.11505e-05 -4.93036e-06)
(2.63998e-05 1.09133e-05 -1.86322e-06)
(2.58716e-05 1.0706e-05 1.15558e-06)
(2.54224e-05 1.05325e-05 4.40885e-06)
(2.66963e-05 1.35546e-05 -8.34374e-06)
(2.60193e-05 1.32237e-05 -4.92813e-06)
(2.54392e-05 1.29401e-05 -1.86247e-06)
(2.49294e-05 1.26921e-05 1.15487e-06)
(2.4496e-05 1.24842e-05 4.40643e-06)
(2.55266e-05 1.55984e-05 -8.34001e-06)
(2.48782e-05 1.52146e-05 -4.92612e-06)
(2.43231e-05 1.48855e-05 -1.86182e-06)
(2.38354e-05 1.45975e-05 1.1542e-06)
(2.34209e-05 1.43557e-05 4.40421e-06)
(2.42012e-05 1.75478e-05 -8.33683e-06)
(2.35864e-05 1.71123e-05 -4.92439e-06)
(2.30605e-05 1.67391e-05 -1.86122e-06)
(2.25987e-05 1.64122e-05 1.15373e-06)
(2.22065e-05 1.61371e-05 4.40252e-06)
(2.273e-05 1.93925e-05 -8.33446e-06)
(2.21539e-05 1.89073e-05 -4.92313e-06)
(2.16613e-05 1.84918e-05 -1.86076e-06)
(2.12289e-05 1.81275e-05 1.15349e-06)
(2.08622e-05 1.782e-05 4.40148e-06)
(2.11234e-05 2.11234e-05 -8.33353e-06)
(2.05909e-05 2.05909e-05 -4.92264e-06)
(2.01353e-05 2.01353e-05 -1.86057e-06)
(1.97356e-05 1.97356e-05 1.15342e-06)
(1.93974e-05 1.93974e-05 4.40114e-06)
(1.93925e-05 2.273e-05 -8.33446e-06)
(1.89073e-05 2.21539e-05 -4.92313e-06)
(1.84918e-05 2.16613e-05 -1.86076e-06)
(1.81275e-05 2.12289e-05 1.15349e-06)
(1.782e-05 2.08622e-05 4.40148e-06)
(1.75478e-05 2.42012e-05 -8.33683e-06)
(1.71123e-05 2.35864e-05 -4.92439e-06)
(1.67391e-05 2.30605e-05 -1.86122e-06)
(1.64122e-05 2.25987e-05 1.15373e-06)
(1.61371e-05 2.22065e-05 4.40252e-06)
(1.55984e-05 2.55266e-05 -8.34001e-06)
(1.52146e-05 2.48782e-05 -4.92612e-06)
(1.48855e-05 2.43231e-05 -1.86182e-06)
(1.45975e-05 2.38354e-05 1.1542e-06)
(1.43557e-05 2.34209e-05 4.40421e-06)
(1.35546e-05 2.66963e-05 -8.34374e-06)
(1.32237e-05 2.60193e-05 -4.92813e-06)
(1.29402e-05 2.54393e-05 -1.86247e-06)
(1.26921e-05 2.49294e-05 1.15487e-06)
(1.24842e-05 2.4496e-05 4.40643e-06)
(1.14273e-05 2.77015e-05 -8.34779e-06)
(1.11505e-05 2.70007e-05 -4.93036e-06)
(1.09133e-05 2.63998e-05 -1.86322e-06)
(1.0706e-05 2.58716e-05 1.15558e-06)
(1.05325e-05 2.54224e-05 4.40885e-06)
(9.22862e-06 2.85347e-05 -8.35209e-06)
(9.00666e-06 2.78146e-05 -4.93285e-06)
(8.81668e-06 2.7197e-05 -1.86424e-06)
(8.65074e-06 2.66539e-05 1.15601e-06)
(8.51205e-06 2.61921e-05 4.41103e-06)
(6.97138e-06 2.91898e-05 -8.35667e-06)
(6.80508e-06 2.8455e-05 -4.93584e-06)
(6.66293e-06 2.78245e-05 -1.8659e-06)
(6.53893e-06 2.727e-05 1.15571e-06)
(6.43546e-06 2.67986e-05 4.41234e-06)
(4.66946e-06 2.96626e-05 -8.36182e-06)
(4.55952e-06 2.89173e-05 -4.93981e-06)
(4.46572e-06 2.82778e-05 -1.8688e-06)
(4.38407e-06 2.77151e-05 1.154e-06)
(4.31633e-06 2.7237e-05 4.41207e-06)
(2.33504e-06 2.99499e-05 -8.36816e-06)
(2.28491e-06 2.91991e-05 -4.94553e-06)
(2.23947e-06 2.85546e-05 -1.87391e-06)
(2.20004e-06 2.79873e-05 1.14971e-06)
(2.16982e-06 2.75043e-05 4.40952e-06)
(0 3.0069e-05 -8.47114e-06)
(0 2.93145e-05 -5.03928e-06)
(0 2.86671e-05 -1.96691e-06)
(0 2.80971e-05 1.04911e-06)
(0 2.76097e-05 4.29302e-06)
(2.1219e-05 0 -7.76114e-06)
(2.05267e-05 0 -4.83547e-06)
(2.00078e-05 0 -2.10372e-06)
(1.96267e-05 0 5.80673e-07)
(1.93916e-05 0 3.35555e-06)
(2.11282e-05 1.64188e-06 -7.67604e-06)
(2.0442e-05 1.59595e-06 -4.75372e-06)
(1.99281e-05 1.5598e-06 -2.02102e-06)
(1.95518e-05 1.53392e-06 6.68319e-07)
(1.9323e-05 1.52067e-06 3.45168e-06)
(2.09243e-05 3.28938e-06 -7.67079e-06)
(2.02436e-05 3.18799e-06 -4.74956e-06)
(1.97341e-05 3.11318e-06 -2.01776e-06)
(1.93613e-05 3.05979e-06 6.70513e-07)
(1.91352e-05 3.02981e-06 3.45219e-06)
(2.05905e-05 4.91343e-06 -7.66568e-06)
(1.99198e-05 4.76003e-06 -4.74614e-06)
(1.94175e-05 4.64657e-06 -2.0158e-06)
(1.905e-05 4.56531e-06 6.70934e-07)
(1.8827e-05 4.51895e-06 3.45082e-06)
(2.01283e-05 6.50592e-06 -7.66057e-06)
(1.94714e-05 6.30142e-06 -4.74323e-06)
(1.89795e-05 6.14979e-06 -2.01473e-06)
(1.86194e-05 6.04086e-06 6.7016e-07)
(1.84007e-05 5.97822e-06 3.4479e-06)