/*--------------------------------*- C++ -*----------------------------------*\
| =========                 |                                                 |
| \\      /  F ield         | foam-extend: Open Source CFD                    |
|  \\    /   O peration     | Version:     3.1                                |
|   \\  /    A nd           | Web:         http://www.extend-project.de       |
|    \\/     M anipulation  |                                                 |
\*---------------------------------------------------------------------------*/
FoamFile
{
    version     2.0;
    format      ascii;
    class       volScalarField;
    location    "0.0007";
    object      sigmaEq;
}
// * * * * * * * * * * * * * * * * * * * * * * * * * * * * * * * * * * * * * //

dimensions      [1 -1 -2 0 0 0 0];

internalField   nonuniform List<scalar> 
6400
(
4052.01
3422
3127.98
3245.16
4034.06
3413.3
3123.96
3255.48
4032.19
3411.9
3123.22
3255.61
4031.23
3411.25
3122.71
3255.04
4030.68
3410.83
3122.24
3254.26
4030.34
3410.51
3121.78
3253.39
4030.15
3410.25
3121.34
3252.53
4030.07
3410.03
3120.93
3251.75
4030.03
3409.79
3120.56
3251.12
4029.96
3409.59
3120.3
3250.75
4029.96
3409.59
3120.3
3250.75
4030.03
3409.79
3120.56
3251.12
4030.07
3410.03
3120.93
3251.75
4030.15
3410.26
3121.34
3252.53
4030.34
3410.51
3121.78
3253.39
4030.68
3410.83
3122.24
3254.26
4031.23
3411.25
3122.71
3255.04
4032.19
3411.9
3123.22
3255.61
4034.06
3413.3
3123.97
3255.48
4052.01
3422
3127.98
3245.16
2398.7
2806.24
2587.71
1604.87
2409.16
2806.73
2576.77
1580.73
2407.82
2805.85
2575.91
1580.46
2407.15
2805.25
2575.34
1580.05
2406.79
2804.73
2574.8
1579.56
2406.61
2804.31
2574.33
1579.11
2406.55
2803.99
2573.95
1578.73
2406.57
2803.75
2573.66
1578.45
2406.68
2803.56
2573.44
1578.25
2407.11
2803.46
2573.31
1578.12
2407.11
2803.46
2573.31
1578.12
2406.68
2803.56
2573.45
1578.25
2406.57
2803.75
2573.66
1578.45
2406.55
2803.99
2573.95
1578.73
2406.61
2804.31
2574.33
1579.11
2406.79
2804.73
2574.8
1579.57
2407.15
2805.25
2575.34
1580.05
2407.82
2805.85
2575.91
1580.47
2409.16
2806.73
2576.77
1580.73
2398.7
2806.24
2587.71
1604.88
2737.26
2566.29
2332.45
2095.35
2736.51
2561.44
2323.46
2087.92
2735.77
2561.19
2323.09
2088.95
2735.77
2561.04
2322.9
2089.08
2736.05
2560.93
2322.68
2089.03
2736.47
2560.86
2322.45
2088.96
2736.95
2560.85
2322.26
2088.92
2737.46
2560.9
2322.14
2088.94
2738.04
2561.02
2322.08
2088.96
2738.99
2561.18
2322.05
2088.97
2738.99
2561.18
2322.05
2088.97
2738.04
2561.02
2322.08
2088.96
2737.46
2560.9
2322.14
2088.94
2736.95
2560.85
2322.26
2088.92
2736.47
2560.86
2322.45
2088.96
2736.05
2560.93
2322.68
2089.03
2735.77
2561.04
2322.9
2089.08
2735.77
2561.19
2323.09
2088.95
2736.51
2561.44
2323.46
2087.92
2737.26
2566.29
2332.45
2095.35
3317.57
2775.13
2498.72
2599.5
3308.67
2766.4
2492.59
2598.41
3307.74
2766.16
2492.57
2600.04
3307.8
2766.11
2492.5
2600.23
3308.31
2766.33
2492.48
2600.01
3309.08
2766.68
2492.45
2599.68
3309.96
2767.09
2492.44
2599.34
3310.87
2767.53
2492.45
2599.06
3311.78
2767.99
2492.5
2598.86
3312.88
2768.37
2492.54
2598.74
3312.88
2768.37
2492.54
2598.74
3311.78
2767.99
2492.5
2598.86
3310.87
2767.53
2492.45
2599.06
3309.96
2767.09
2492.44
2599.34
3309.08
2766.68
2492.45
2599.68
3308.31
2766.33
2492.48
2600.01
3307.8
2766.11
2492.5
2600.23
3307.75
2766.16
2492.57
2600.04
3308.67
2766.4
2492.59
2598.41
3317.57
2775.13
2498.72
2599.5
3336.61
2841.97
2572.09
2608.32
3329.25
2834.6
2566.57
2605.05
3328.45
2834.52
2566.55
2606.34
3328.44
2834.49
2566.4
2606.21
3328.92
2834.78
2566.36
2605.61
3329.74
2835.3
2566.35
2604.83
3330.75
2835.94
2566.38
2604
3331.86
2836.63
2566.45
2603.25
3332.96
2837.29
2566.53
2602.65
3334.1
2837.78
2566.6
2602.3
3334.1
2837.78
2566.6
2602.31
3332.96
2837.29
2566.53
2602.65
3331.86
2836.63
2566.45
2603.25
3330.75
2835.94
2566.38
2604
3329.74
2835.3
2566.35
2604.83
3328.92
2834.78
2566.36
2605.61
3328.44
2834.49
2566.4
2606.21
3328.45
2834.52
2566.55
2606.34
3329.25
2834.6
2566.57
2605.05
3336.61
2841.97
2572.09
2608.32
2843.48
2590.65
2378.59
2232.68
2842.48
2587.03
2373.35
2224.98
2842.06
2587.14
2373.19
2225.55
2842.06
2587.06
2372.88
2225.07
2842.42
2587.17
2372.62
2224.19
2843.1
2587.48
2372.39
2223.1
2844.04
2587.95
2372.2
2221.91
2845.12
2588.5
2372.06
2220.78
2846.22
2589.04
2371.98
2219.84
2847.26
2589.44
2371.95
2219.29
2847.26
2589.44
2371.95
2219.29
2846.22
2589.04
2371.98
2219.84
2845.12
2588.5
2372.06
2220.78
2844.04
2587.95
2372.2
2221.92
2843.11
2587.48
2372.39
2223.1
2842.42
2587.17
2372.62
2224.19
2842.06
2587.06
2372.89
2225.07
2842.06
2587.14
2373.2
2225.55
2842.48
2587.03
2373.35
2224.98
2843.48
2590.65
2378.59
2232.69
2149.9
2071.43
1927.83
1710.89
2153.97
2070.9
1923.94
1702.57
2153.87
2071.08
1923.67
1702.6
2153.93
2070.89
1923.22
1702.09
2154.18
2070.69
1922.7
1701.27
2154.69
2070.58
1922.13
1700.24
2155.43
2070.58
1921.56
1699.07
2156.32
2070.66
1921.05
1697.9
2157.22
2070.8
1920.65
1696.9
2158.02
2070.93
1920.43
1696.3
2158.02
2070.93
1920.43
1696.3
2157.22
2070.8
1920.65
1696.9
2156.32
2070.66
1921.05
1697.9
2155.43
2070.58
1921.56
1699.08
2154.69
2070.58
1922.13
1700.24
2154.18
2070.69
1922.7
1701.27
2153.93
2070.89
1923.22
1702.09
2153.87
2071.08
1923.67
1702.6
2153.98
2070.9
1923.94
1702.57
2149.9
2071.43
1927.83
1710.89
1580.36
1473.3
1369.51
1254.51
1584.09
1473.8
1368.04
1251.33
1583.98
1473.92
1367.8
1251.27
1584.02
1473.73
1367.42
1251.02
1584.18
1473.41
1366.88
1250.54
1584.52
1473.09
1366.23
1249.86
1585.04
1472.81
1365.53
1249.02
1585.67
1472.58
1364.86
1248.13
1586.29
1472.42
1364.29
1247.33
1586.8
1472.35
1363.96
1246.85
1586.8
1472.35
1363.97
1246.85
1586.29
1472.42
1364.29
1247.33
1585.67
1472.58
1364.86
1248.13
1585.04
1472.81
1365.53
1249.02
1584.52
1473.09
1366.24
1249.86
1584.18
1473.41
1366.89
1250.54
1584.02
1473.73
1367.43
1251.02
1583.98
1473.92
1367.8
1251.27
1584.09
1473.8
1368.04
1251.33
1580.36
1473.3
1369.51
1254.52
1241
1010.58
903.975
928.262
1241.35
1010.44
904.662
930.636
1241.03
1010.47
904.566
930.647
1240.91
1010.44
904.473
930.615
1240.91
1010.32
904.24
930.398
1241.05
1010.18
903.898
929.99
1241.32
1010.07
903.49
929.437
1241.68
1009.98
903.067
928.82
1242.04
1009.91
902.698
928.258
1242.33
1009.87
902.476
927.91
1242.33
1009.87
902.476
927.91
1242.04
1009.91
902.698
928.258
1241.68
1009.98
903.067
928.821
1241.32
1010.07
903.491
929.438
1241.05
1010.18
903.899
929.991
1240.91
1010.32
904.241
930.399
1240.91
1010.44
904.474
930.616
1241.03
1010.47
904.568
930.648
1241.35
1010.44
904.663
930.638
1241
1010.59
903.976
928.263
1012.43
756.335
632.822
681.035
1011.32
755.458
633.851
684.561
1010.9
755.418
633.81
684.497
1010.66
755.512
633.935
684.483
1010.5
755.585
634.006
684.335
1010.45
755.685
634.021
684.026
1010.5
755.82
633.992
683.593
1010.65
755.971
633.934
683.109
1010.83
756.106
633.868
682.675
1011.01
756.193
633.824
682.412
1011.01
756.193
633.824
682.413
1010.83
756.106
633.869
682.675
1010.65
755.972
633.935
683.109
1010.5
755.82
633.993
683.593
1010.45
755.686
634.022
684.027
1010.51
755.586
634.007
684.336
1010.66
755.513
633.936
684.485
1010.91
755.419
633.811
684.498
1011.32
755.459
633.852
684.562
1012.43
756.337
632.823
681.036
802.518
613.655
495.598
482.861
801.99
612.768
495.662
484.492
801.653
612.69
495.552
484.3
801.405
612.769
495.678
484.265
801.211
612.841
495.799
484.178
801.075
612.938
495.896
483.981
801.024
613.069
495.97
483.687
801.058
613.222
496.023
483.351
801.154
613.367
496.057
483.049
801.279
613.464
496.074
482.867
801.279
613.464
496.074
482.867
801.154
613.367
496.057
483.049
801.058
613.222
496.024
483.352
801.025
613.07
495.971
483.688
801.076
612.938
495.897
483.982
801.212
612.842
495.8
484.179
801.407
612.77
495.679
484.267
801.654
612.691
495.554
484.301
801.991
612.769
495.663
484.493
802.519
613.656
495.6
482.862
618.007
499.061
404.093
349.543
618.321
498.417
403.462
349.224
618.11
498.344
403.311
349.016
617.944
498.388
403.385
349.03
617.804
498.413
403.468
349.068
617.695
498.444
403.535
349.055
617.644
498.493
403.584
348.976
617.657
498.562
403.618
348.851
617.727
498.636
403.639
348.723
617.837
498.694
403.651
348.641
617.837
498.694
403.651
348.641
617.728
498.637
403.64
348.723
617.657
498.562
403.619
348.852
617.645
498.494
403.585
348.976
617.696
498.444
403.536
349.056
617.805
498.414
403.469
349.07
617.946
498.389
403.386
349.032
618.112
498.345
403.313
349.017
618.323
498.418
403.464
349.225
618.009
499.063
404.094
349.544
479.809
402.935
333.303
279.579
480.472
402.478
332.55
278.541
480.345
402.432
332.419
278.412
480.253
402.467
332.472
278.476
480.18
402.482
332.54
278.588
480.127
402.495
332.596
278.682
480.112
402.515
332.636
278.733
480.14
402.547
332.662
278.74
480.21
402.585
332.676
278.721
480.315
402.62
332.683
278.701
480.315
402.62
332.683
278.701
480.211
402.586
332.676
278.721
480.141
402.547
332.662
278.741
480.113
402.516
332.637
278.734
480.128
402.495
332.597
278.683
480.181
402.483
332.541
278.59
480.255
402.468
332.474
278.477
480.347
402.433
332.421
278.414
480.474
402.479
332.551
278.543
479.811
402.937
333.305
279.58
383.008
328.314
278.125
238.068
383.659
327.98
277.487
237.037
383.571
327.956
277.389
236.965
383.514
327.984
277.424
237.021
383.476
327.997
277.474
237.111
383.456
328.009
277.516
237.188
383.465
328.025
277.545
237.232
383.504
328.046
277.56
237.242
383.572
328.072
277.566
237.228
383.665
328.096
277.566
237.212
383.666
328.096
277.567
237.212
383.572
328.072
277.566
237.229
383.505
328.047
277.561
237.243
383.466
328.025
277.546
237.233
383.457
328.01
277.517
237.189
383.478
327.999
277.476
237.112
383.516
327.985
277.426
237.022
383.573
327.958
277.39
236.967
383.662
327.982
277.488
237.039
383.01
328.315
278.126
238.069
311.685
269.097
231.01
200.27
312.212
268.848
230.504
199.379
312.143
268.832
230.424
199.323
312.098
268.846
230.437
199.348
312.072
268.849
230.459
199.39
312.065
268.852
230.474
199.417
312.082
268.858
230.478
199.417
312.122
268.869
230.472
199.391
312.182
268.882
230.461
199.351
312.261
268.896
230.452
199.321
312.261
268.896
230.452
199.321
312.183
268.882
230.461
199.351
312.123
268.869
230.473
199.391
312.083
268.859
230.479
199.417
312.067
268.853
230.475
199.418
312.074
268.85
230.46
199.391
312.1
268.847
230.438
199.35
312.146
268.834
230.425
199.324
312.214
268.849
230.505
199.381
311.688
269.099
231.012
200.271
255.322
219.524
188.456
163.06
255.706
219.322
188.05
162.319
255.651
219.308
187.98
162.266
255.613
219.311
187.977
162.271
255.592
219.306
187.98
162.283
255.589
219.3
187.975
162.279
255.607
219.298
187.961
162.253
255.645
219.3
187.94
162.206
255.696
219.305
187.918
162.153
255.759
219.313
187.903
162.116
255.759
219.313
187.903
162.117
255.697
219.306
187.918
162.153
255.646
219.301
187.941
162.206
255.609
219.299
187.962
162.253
255.591
219.301
187.976
162.28
255.594
219.307
187.981
162.284
255.615
219.313
187.978
162.272
255.653
219.31
187.981
162.267
255.709
219.323
188.051
162.32
255.324
219.526
188.457
163.061
209.12
177.874
151.394
129.92
209.38
177.695
151.064
129.325
209.334
177.682
151.005
129.277
209.301
177.681
150.998
129.276
209.284
177.673
150.994
129.279
209.282
177.667
150.983
129.267
209.298
177.664
150.966
129.235
209.33
177.664
150.944
129.188
209.373
177.667
150.922
129.137
209.423
177.672
150.907
129.103
209.423
177.672
150.907
129.103
209.373
177.667
150.922
129.138
209.331
177.665
150.945
129.188
209.299
177.664
150.967
129.236
209.283
177.668
150.984
129.267
209.286
177.674
150.994
129.279
209.303
177.682
150.999
129.277
209.337
177.683
151.006
129.278
209.383
177.696
151.065
129.326
209.122
177.875
151.395
129.921
170.608
143.606
120.937
102.829
170.782
143.444
120.665
102.358
170.743
143.432
120.617
102.318
170.714
143.432
120.612
102.318
170.698
143.426
120.609
102.321
170.695
143.422
120.602
102.311
170.707
143.421
120.589
102.286
170.733
143.423
120.573
102.248
170.767
143.427
120.556
102.207
170.806
143.432
120.545
102.179
170.806
143.432
120.545
102.179
170.767
143.427
120.556
102.207
170.733
143.423
120.573
102.248
170.708
143.421
120.59
102.286
170.696
143.422
120.602
102.312
170.7
143.427
120.61
102.321
170.716
143.433
120.612
102.319
170.745
143.434
120.618
102.319
170.784
143.445
120.666
102.359
170.61
143.607
120.938
102.83
138.368
115.77
96.7275
81.6078
138.491
115.628
96.5015
81.2313
138.459
115.618
96.4635
81.1998
138.434
115.618
96.4616
81.2031
138.419
115.614
96.4621
81.2083
138.415
115.612
96.459
81.2038
138.423
115.613
96.4519
81.1863
138.442
115.616
96.4416
81.1586
138.469
115.621
96.4306
81.1282
138.499
115.626
96.4233
81.1074
138.499
115.626
96.4233
81.1075
138.469
115.621
96.4307
81.1283
138.442
115.616
96.4417
81.1588
138.424
115.613
96.4521
81.1866
138.416
115.612
96.4593
81.2041
138.42
115.615
96.4624
81.2087
138.435
115.618
96.462
81.2035
138.461
115.618
96.4639
81.2002
138.493
115.629
96.5019
81.2317
138.37
115.771
96.7278
81.6082
111.587
93.2149
77.5904
65.1434
111.682
93.0948
77.4037
64.8383
111.655
93.0864
77.3739
64.8145
111.634
93.0871
77.3742
64.8197
111.621
93.0847
77.3765
64.8267
111.616
93.0834
77.376
64.8261
111.622
93.0847
77.3723
64.815
111.636
93.0882
77.366
64.7956
111.656
93.0929
77.3587
64.7734
111.681
93.0974
77.3538
64.7581
111.681
93.0973
77.3538
64.7581
111.657
93.0928
77.3587
64.7734
111.636
93.0882
77.3659
64.7956
111.622
93.0846
77.3723
64.8152
111.617
93.0834
77.376
64.8263
111.622
93.0847
77.3765
64.8269
111.635
93.0872
77.3742
64.8198
111.656
93.0865
77.3739
64.8146
111.683
93.0949
77.4037
64.8385
111.588
93.215
77.5904
65.1436
89.6394
74.9456
62.3469
52.2448
89.7158
74.8471
62.1941
51.9964
89.6947
74.8405
62.1708
51.9785
89.6771
74.8414
62.172
51.9842
89.6662
74.8397
62.1748
51.9916
89.6619
74.8388
62.1754
51.9928
89.6656
74.8399
62.1733
51.9857
89.6763
74.8427
62.1689
51.9717
89.6924
74.8465
62.1637
51.9552
89.7117
74.8501
62.1601
51.9436
89.7117
74.85
62.1601
51.9436
89.6923
74.8463
62.1636
51.9551
89.6762
74.8424
62.1687
51.9716
89.6655
74.8395
62.173
51.9857
89.6619
74.8384
62.1751
51.9928
89.6662
74.8393
62.1745
51.9916
89.6772
74.841
62.1716
51.9842
89.6948
74.8401
62.1704
51.9784
89.7159
74.8467
62.1937
51.9963
89.6394
74.9451
62.3465
52.2447
71.8643
60.1709
50.099
41.9771
71.9267
60.0914
49.9751
41.7753
71.9097
60.0863
49.9567
41.7617
71.8956
60.0871
49.9581
41.7671
71.8868
60.0858
49.9607
41.7736
71.8833
60.085
49.9614
41.7753
71.886
60.0857
49.9599
41.7702
71.8945
60.0879
49.9565
41.7595
71.9071
60.0907
49.9524
41.7467
71.9226
60.0935
49.9495
41.7376
71.9225
60.0933
49.9494
41.7376
71.9068
60.0903
49.9522
41.7466
71.894
60.0873
49.9562
41.7593
71.8854
60.0851
49.9594
41.77
71.8826
60.0842
49.9609
41.7751
71.8861
60.0849
49.9601
41.7734
71.8949
60.0862
49.9574
41.7668
71.909
60.0853
49.956
41.7614
71.9259
60.0904
49.9743
41.775
71.8634
60.1698
50.0982
41.9768
57.5675
48.2472
40.2099
33.7046
57.6179
48.1834
40.1099
33.5414
57.6042
48.1793
40.0954
33.5309
57.5929
48.18
40.0966
33.5354
57.5859
48.1789
40.0987
33.5408
57.5831
48.1782
40.0992
33.5422
57.5853
48.1787
40.0979
33.5382
57.5921
48.1802
40.0951
33.5296
57.6022
48.1823
40.0916
33.5193
57.6147
48.1844
40.0892
33.512
57.6145
48.1842
40.089
33.5119
57.6017
48.1818
40.0913
33.5191
57.5913
48.1795
40.0945
33.5293
57.5843
48.1777
40.0972
33.5379
57.5818
48.177
40.0984
33.5419
57.5845
48.1776
40.0978
33.5405
57.5914
48.1786
40.0956
33.535
57.6027
48.1778
40.0943
33.5304
57.6162
48.1818
40.1088
33.5408
57.5656
48.2455
40.2086
33.7041
46.0976
38.6427
32.2192
27.011
46.1378
38.5915
32.1389
26.8795
46.1267
38.5882
32.1273
26.8713
46.1175
38.5886
32.1281
26.875
46.1119
38.5877
32.1298
26.8793
46.1097
38.5871
32.1301
26.8803
46.1116
38.5874
32.1289
26.8769
46.1171
38.5885
32.1265
26.8699
46.1252
38.5901
32.1236
26.8614
46.1352
38.5917
32.1215
26.8555
46.135
38.5914
32.1213
26.8554
46.1245
38.5895
32.1232
26.8612
46.1159
38.5875
32.1258
26.8695
46.1101
38.5861
32.128
26.8765
46.1079
38.5855
32.129
26.8798
46.1099
38.5859
32.1286
26.8787
46.1153
38.5867
32.1268
26.8743
46.1243
38.5861
32.1258
26.8706
46.1352
38.5893
32.1373
26.8788
46.0949
38.6404
32.2176
27.0102
36.8985
30.9194
25.7754
21.6039
36.9302
30.8781
25.7109
21.4984
36.9211
30.8754
25.7016
21.4919
36.9137
30.8757
25.7023
21.4948
36.9091
30.8748
25.7035
21.4982
36.9074
30.8743
25.7037
21.499
36.9089
30.8745
25.7026
21.4961
36.9133
30.8753
25.7006
21.4904
36.9198
30.8765
25.6982
21.4835
36.9278
30.8777
25.6964
21.4786
36.9275
30.8775
25.6962
21.4785
36.9189
30.8758
25.6977
21.4832
36.9118
30.8742
25.6998
21.4899
36.9069
30.8729
25.7016
21.4956
36.905
30.8724
25.7024
21.4984
36.9065
30.8727
25.7021
21.4975
36.9108
30.8733
25.7007
21.494
36.918
30.8729
25.6999
21.491
36.9269
30.8754
25.7091
21.4974
36.895
30.9166
25.7735
21.6029
29.519
24.7184
20.5947
17.2536
29.5439
24.6851
20.5429
17.1692
29.5364
24.6828
20.5355
17.164
29.5303
24.6829
20.536
17.1664
29.5265
24.6822
20.5369
17.1691
29.525
24.6817
20.537
17.1697
29.5262
24.6818
20.5361
17.1674
29.5297
24.6824
20.5344
17.1627
29.5349
24.6833
20.5324
17.1571
29.5413
24.6842
20.5309
17.1531
29.5409
24.684
20.5307
17.153
29.5339
24.6825
20.5318
17.1568
29.528
24.6811
20.5335
17.1622
29.524
24.68
20.5349
17.1667
29.5223
24.6796
20.5356
17.1689
29.5234
24.6798
20.5353
17.1683
29.5269
24.6803
20.5342
17.1654
29.5328
24.6799
20.5335
17.1629
29.54
24.682
20.5409
17.1681
29.5149
24.7152
20.5926
17.2525
23.6
19.7467
16.441
13.7668
23.6196
19.7198
16.3995
13.6993
23.6134
19.7179
16.3935
13.6952
23.6083
19.7179
16.3939
13.6972
23.6052
19.7172
16.3946
13.6994
23.6038
19.7167
16.3946
13.6998
23.6047
19.7168
16.3939
13.6979
23.6074
19.7172
16.3925
13.6942
23.6115
19.7179
16.3908
13.6897
23.6165
19.7185
16.3896
13.6864
23.6162
19.7183
16.3894
13.6863
23.6104
19.717
16.3902
13.6893
23.6056
19.7158
16.3915
13.6936
23.6022
19.7149
16.3926
13.6973
23.6009
19.7145
16.3931
13.699
23.6018
19.7146
16.3928
13.6984
23.6046
19.715
16.3919
13.6961
23.6094
19.7148
16.3914
13.6941
23.6153
19.7165
16.3973
13.6981
23.5955
19.7433
16.4387
13.7656
18.8557
15.7655
13.1174
10.9791
18.8711
15.7438
13.084
10.9253
18.866
15.7422
13.0792
10.922
18.8617
15.7421
13.0795
10.9236
18.859
15.7414
13.08
10.9253
18.8578
15.7409
13.08
10.9257
18.8583
15.7409
13.0794
10.9242
18.8604
15.7412
13.0783
10.9212
18.8636
15.7417
13.0769
10.9176
18.8676
15.7421
13.0759
10.915
18.8672
15.7418
13.0757
10.9148
18.8625
15.7408
13.0763
10.9172
18.8585
15.7398
13.0773
10.9206
18.8558
15.739
13.0781
10.9235
18.8547
15.7386
13.0785
10.9249
18.8555
15.7388
13.0782
10.9244
18.8578
15.7391
13.0775
10.9225
18.8618
15.739
13.0771
10.9208
18.8667
15.7404
13.0818
10.924
18.851
15.762
13.115
10.9778
15.0565
12.5807
10.4611
8.75316
15.0687
12.5632
10.4344
8.71024
15.0644
12.5618
10.4306
8.70765
15.0608
12.5616
10.4308
8.70895
15.0585
12.561
10.4311
8.71037
15.0574
12.5605
10.4311
8.71066
15.0577
12.5604
10.4306
8.70948
15.0593
12.5606
10.4296
8.70705
15.0618
12.5609
10.4285
8.70415
15.0649
12.5612
10.4277
8.70204
15.0645
12.5609
10.4275
8.70191
15.0606
12.5601
10.4279
8.70378
15.0575
12.5592
10.4287
8.70649
15.0553
12.5586
10.4293
8.70877
15.0545
12.5583
10.4296
8.70983
15.0551
12.5584
10.4294
8.7094
15.0571
12.5588
10.4288
8.70785
15.0603
12.5587
10.4285
8.70645
15.0644
12.5599
10.4322
8.709
15.052
12.5772
10.4589
8.75189
12.0173
10.035
8.33992
6.97682
12.027
10.021
8.31853
6.94261
12.0233
10.0198
8.31541
6.94056
12.0203
10.0196
8.31554
6.94161
12.0184
10.019
8.31583
6.94275
12.0174
10.0186
8.31577
6.94298
12.0176
10.0184
8.31532
6.94204
12.0187
10.0185
8.31455
6.9401
12.0207
10.0187
8.31363
6.93777
12.0231
10.019
8.31292
6.93606
12.0228
10.0187
8.31273
6.93594
12.0197
10.0179
8.31308
6.93742
12.0171
10.0172
8.31367
6.93957
12.0154
10.0167
8.31417
6.94137
12.0147
10.0165
8.31438
6.94219
12.0153
10.0167
8.31423
6.94184
12.0169
10.017
8.31377
6.94057
12.0196
10.017
8.31349
6.93943
12.023
10.018
8.31651
6.94144
12.0132
10.0319
8.33781
6.97563
9.58822
8.00183
6.64683
5.55964
9.59585
7.99049
6.6297
5.5324
9.59283
7.98948
6.62719
5.53077
9.59034
7.98925
6.62728
5.53162
9.58869
7.98876
6.6275
5.53253
9.58786
7.98838
6.62744
5.53272
9.58794
7.98823
6.62707
5.53196
9.58885
7.98829
6.62644
5.53041
9.59038
7.98846
6.6257
5.52855
9.59236
7.98863
6.62512
5.52717
9.59206
7.98841
6.62496
5.52706
9.58951
7.98779
6.62522
5.52823
9.58745
7.98721
6.62568
5.52993
9.58607
7.98679
6.62606
5.53135
9.58557
7.98664
6.62623
5.53201
9.58609
7.98678
6.62612
5.53171
9.58748
7.98707
6.62576
5.53069
9.58973
7.98712
6.62554
5.52975
9.59251
7.98797
6.62796
5.53135
9.58472
7.99919
6.64501
5.55859
7.6481
6.37883
5.29607
4.42933
7.65414
6.36972
5.28238
4.40765
7.65165
6.36887
5.28036
4.40635
7.6496
6.36867
5.28043
4.40704
7.64826
6.36826
5.2806
4.40777
7.64759
6.36795
5.28055
4.40792
7.64767
6.36785
5.28026
4.40732
7.64842
6.36792
5.27977
4.40609
7.64967
6.36807
5.27919
4.40459
7.65128
6.36822
5.27873
4.40349
7.65106
6.36804
5.2786
4.40339
7.64901
6.36754
5.2788
4.40431
7.64735
6.36707
5.27916
4.40567
7.64624
6.36673
5.27946
4.4068
7.64586
6.36662
5.27959
4.40732
7.64631
6.36674
5.27951
4.40708
7.64747
6.36701
5.27922
4.40625
7.64932
6.36707
5.27906
4.4055
7.65162
6.36779
5.281
4.40678
7.64545
6.37681
5.29464
4.42846
6.09934
5.08397
4.21895
3.52818
6.10413
5.07666
4.208
3.51092
6.1021
5.07596
4.20639
3.5099
6.10045
5.0758
4.20645
3.51045
6.09941
5.07549
4.2066
3.51103
6.09892
5.07528
4.20658
3.51115
6.09905
5.07524
4.20638
3.51068
6.09972
5.07535
4.20601
3.50971
6.10079
5.07552
4.20557
3.50853
6.10215
5.07568
4.20522
3.50764
6.10201
5.07556
4.20512
3.50756
6.10038
5.07517
4.20529
3.50829
6.09905
5.07479
4.20557
3.50937
6.09816
5.07451
4.20581
3.51027
6.09785
5.07441
4.20591
3.51069
6.09822
5.07452
4.20584
3.5105
6.09917
5.07475
4.20563
3.50984
6.10069
5.07482
4.2055
3.50924
6.10258
5.07542
4.20706
3.51026
6.09769
5.08266
4.21797
3.52752
4.86346
4.05134
3.36042
2.81005
4.86726
4.04548
3.35168
2.79633
4.86563
4.04493
3.3504
2.79551
4.86435
4.04483
3.35046
2.79596
4.86357
4.04462
3.3506
2.79642
4.86327
4.04452
3.35062
2.79653
4.86349
4.04456
3.3505
2.79617
4.86414
4.04473
3.35026
2.79541
4.86511
4.04494
3.34994
2.79448
4.86629
4.04513
3.34969
2.79378
4.86624
4.04507
3.34964
2.79371
4.86496
4.04477
3.34977
2.7943
4.8639
4.04447
3.35
2.79516
4.86318
4.04424
3.35019
2.79588
4.86293
4.04416
3.35027
2.79622
4.86322
4.04425
3.35022
2.79608
4.86399
4.04444
3.35006
2.79556
4.86523
4.04451
3.34996
2.79508
4.86678
4.04501
3.35122
2.7959
4.8629
4.05082
3.35994
2.80965
3.87748
3.22811
2.67642
2.23806
3.88051
3.22343
2.66944
2.22715
3.87922
3.223
2.66843
2.2265
3.87825
3.22295
2.6685
2.22685
3.87772
3.22285
2.66864
2.22723
3.8776
3.22284
2.66869
2.22733
3.87791
3.22298
2.66865
2.22706
3.87858
3.22321
2.66851
2.22647
3.87949
3.22347
2.66831
2.22574
3.88055
3.2237
2.66815
2.22519
3.8806
3.22371
2.66814
2.22515
3.87961
3.2235
2.66826
2.22562
3.87879
3.22327
2.66846
2.22631
3.87821
3.22309
2.66861
2.2269
3.878
3.22302
2.66868
2.22718
3.87823
3.22309
2.66865
2.22708
3.87886
3.22325
2.66853
2.22668
3.87986
3.22332
2.66847
2.22631
3.88113
3.22374
2.66948
2.22697
3.87806
3.22841
2.67645
2.23791
3.09096
2.57195
2.13162
1.78263
3.0934
2.56821
2.12606
1.77396
3.09238
2.56789
2.12526
1.77345
3.09167
2.5679
2.12534
1.77373
3.09135
2.56788
2.12549
1.77403
3.09139
2.56796
2.12558
1.77412
3.09179
2.56817
2.1256
1.77393
3.09247
2.56846
2.12554
1.77348
3.09335
2.56878
2.12544
1.77292
3.09434
2.56905
2.12536
1.7725
3.09447
2.56912
2.12539
1.77248
3.09375
2.56899
2.12552
1.77286
3.09312
2.56884
2.12569
1.77343
3.09268
2.5687
2.12583
1.77391
3.09251
2.56866
2.1259
1.77415
3.0927
2.56873
2.12589
1.77409
3.09321
2.56887
2.12581
1.77379
3.09404
2.56895
2.12577
1.7735
3.09508
2.5693
2.12659
1.77404
3.09265
2.57305
2.13218
1.78276
2.46359
2.04901
1.69779
1.4201
2.46554
2.04603
1.69335
1.41321
2.46476
2.04579
1.69273
1.41281
2.46425
2.04584
1.69281
1.41304
2.4641
2.04589
1.69296
1.41328
2.46425
2.04604
1.69307
1.41336
2.46472
2.0463
1.69314
1.41323
2.46542
2.04664
1.69316
1.4129
2.46627
2.04699
1.69314
1.41247
2.4672
2.0473
1.69313
1.41216
2.46741
2.04743
1.69319
1.41215
2.46691
2.04739
1.69333
1.41248
2.46646
2.0473
1.6935
1.41294
2.46614
2.04723
1.69363
1.41335
2.46603
2.04721
1.69371
1.41356
2.46621
2.04729
1.69373
1.41354
2.46664
2.04743
1.69369
1.41332
2.46733
2.04752
1.69368
1.41311
2.4682
2.04782
1.69435
1.41355
2.46627
2.05084
1.69883
1.4205
1.96316
1.63225
1.35231
1.13153
1.96474
1.62988
1.34878
1.12605
1.96413
1.6297
1.34829
1.12574
1.96378
1.62977
1.34838
1.12592
1.96374
1.62987
1.34852
1.12612
1.96398
1.63006
1.34866
1.12619
1.96449
1.63037
1.34876
1.1261
1.96519
1.63073
1.34883
1.12587
1.96601
1.63111
1.34887
1.12555
1.96688
1.63145
1.34892
1.12532
1.96717
1.63163
1.34902
1.12534
1.96686
1.63166
1.34917
1.12562
1.96657
1.63164
1.34934
1.12601
1.96636
1.63162
1.34948
1.12635
1.96632
1.63165
1.34957
1.12655
1.9665
1.63175
1.34962
1.12656
1.96689
1.6319
1.34962
1.12641
1.96748
1.63201
1.34964
1.12626
1.96822
1.63228
1.3502
1.12663
1.9667
1.63471
1.35378
1.13217
1.56405
1.30011
1.07718
0.901758
1.56532
1.29822
1.07437
0.897413
1.56484
1.2981
1.07399
0.897163
1.5646
1.29818
1.07407
0.897312
1.56465
1.2983
1.07421
0.897473
1.56493
1.29852
1.07435
0.897544
1.56545
1.29884
1.07448
0.897493
1.56613
1.29922
1.07459
0.897329
1.56692
1.29961
1.07468
0.897107
1.56774
1.29997
1.07476
0.896948
1.56808
1.30019
1.07489
0.896981
1.56792
1.30028
1.07505
0.897221
1.56777
1.30033
1.07523
0.897553
1.56767
1.30037
1.07538
0.897854
1.5677
1.30043
1.0755
0.898045
1.5679
1.30056
1.07557
0.898081
1.56827
1.30073
1.07561
0.897988
1.56879
1.30086
1.07566
0.897894
1.56943
1.30112
1.07613
0.898204
1.56823
1.30308
1.07901
0.902622
1.24582
1.03543
0.858003
0.718712
1.24684
1.03393
0.855772
0.715264
1.24647
1.03384
0.855471
0.715068
1.24631
1.03392
0.855549
0.715189
1.2464
1.03405
0.855681
0.715322
1.2467
1.03428
0.855825
0.715391
1.24721
1.0346
0.855972
0.715372
1.24786
1.03498
0.856107
0.715269
1.2486
1.03537
0.856226
0.715119
1.24937
1.03574
0.856347
0.715018
1.24974
1.03599
0.856494
0.715066
1.24971
1.03613
0.856669
0.715277
1.24967
1.03623
0.856851
0.715563
1.24966
1.03631
0.857012
0.715828
1.24975
1.03642
0.857145
0.71601
1.24997
1.03658
0.857247
0.716068
1.25033
1.03677
0.857318
0.71602
1.25082
1.03692
0.85739
0.715967
1.25137
1.03716
0.857791
0.716231
1.25044
1.03875
0.860099
0.719757
0.992195
0.824513
0.683338
0.572765
0.993016
0.823321
0.681564
0.57003
0.992722
0.82325
0.681329
0.569878
0.992616
0.823333
0.681402
0.569978
0.992729
0.823468
0.681525
0.57009
0.993037
0.823694
0.68167
0.57016
0.993519
0.824007
0.681825
0.570168
0.99413
0.824377
0.681979
0.570115
0.994814
0.82476
0.682122
0.570024
0.995527
0.82512
0.682265
0.569968
0.995919
0.825389
0.682426
0.570028
0.995976
0.825563
0.682606
0.570215
0.996019
0.825698
0.682789
0.570462
0.996083
0.825821
0.682956
0.570696
0.996214
0.825961
0.6831
0.570868
0.996457
0.826139
0.683221
0.570942
0.996808
0.826343
0.683315
0.570928
0.997253
0.826512
0.683405
0.570906
0.997746
0.826743
0.68375
0.571131
0.997025
0.828031
0.685606
0.573947
0.790141
0.656433
0.54406
0.456273
0.790798
0.655484
0.54265
0.454105
0.790565
0.655431
0.542467
0.453988
0.790497
0.655509
0.542535
0.454071
0.790622
0.655642
0.542651
0.454169
0.790919
0.655861
0.542795
0.454243
0.791371
0.656162
0.542957
0.454276
0.791935
0.656516
0.543123
0.454263
0.792564
0.656884
0.543281
0.45422
0.793218
0.657234
0.543438
0.4542
0.793611
0.657508
0.543605
0.454267
0.793727
0.657699
0.543784
0.454433
0.793824
0.657855
0.543962
0.454646
0.793931
0.657998
0.544127
0.454851
0.79409
0.658155
0.544275
0.455011
0.794339
0.658344
0.544405
0.455093
0.794675
0.658553
0.544513
0.455102
0.795083
0.658731
0.544613
0.455102
0.79552
0.658949
0.544911
0.455293
0.794967
0.659998
0.546405
0.457542
0.629194
0.522451
0.432914
0.363182
0.629717
0.521694
0.431794
0.361464
0.629533
0.521655
0.431653
0.361375
0.629493
0.52173
0.431717
0.361447
0.629624
0.521858
0.431829
0.361537
0.629906
0.522069
0.431973
0.361617
0.630324
0.522356
0.432138
0.361671
0.630842
0.522691
0.432311
0.361691
0.631415
0.52304
0.432478
0.361685
0.632008
0.523373
0.432641
0.361692
0.632386
0.52364
0.432808
0.361764
0.632533
0.523835
0.432979
0.361909
0.632656
0.523995
0.433146
0.362091
0.632781
0.524143
0.433301
0.362269
0.632945
0.5243
0.433443
0.362414
0.633183
0.524486
0.433572
0.362497
0.633495
0.52469
0.433685
0.36252
0.633862
0.524866
0.433787
0.362532
0.634245
0.525069
0.434042
0.362694
0.633825
0.525926
0.435247
0.36449
0.500953
0.415591
0.344149
0.288718
0.501364
0.414985
0.343259
0.28736
0.50122
0.414958
0.343152
0.287294
0.501203
0.41503
0.343215
0.287359
0.501336
0.415155
0.343323
0.287445
0.501602
0.415358
0.343467
0.287531
0.501988
0.415629
0.343634
0.287603
0.502459
0.415945
0.343809
0.287649
0.502977
0.416272
0.343979
0.287671
0.503508
0.416582
0.344142
0.287698
0.503858
0.416833
0.344302
0.28777
0.504011
0.417017
0.344459
0.287896
0.504136
0.417168
0.344609
0.288049
0.504256
0.417305
0.344748
0.288201
0.504405
0.417449
0.344876
0.288328
0.504617
0.417619
0.344996
0.288406
0.504892
0.417807
0.345103
0.288435
0.505214
0.417972
0.3452
0.288453
0.505544
0.418155
0.345416
0.288587
0.50523
0.418856
0.346388
0.290019
0.398699
0.330309
0.273225
0.229137
0.399019
0.329824
0.272518
0.228067
0.398907
0.329808
0.27244
0.228021
0.398908
0.329877
0.272502
0.228083
0.39904
0.33
0.272609
0.228166
0.399291
0.330193
0.272751
0.228258
0.399645
0.33045
0.272917
0.228343
0.400072
0.330743
0.273092
0.228408
0.400535
0.331045
0.273259
0.228451
0.401002
0.331328
0.273416
0.22849
0.401315
0.331555
0.273563
0.228559
0.401457
0.331719
0.273702
0.228666
0.401564
0.331849
0.27383
0.228793
0.40166
0.331963
0.273947
0.228918
0.401778
0.332083
0.274055
0.229027
0.40195
0.332227
0.274158
0.229095
0.40218
0.332389
0.274252
0.229124
0.402452
0.332536
0.274339
0.229141
0.402731
0.332696
0.274518
0.22925
0.402497
0.333268
0.2753
0.230388
0.317105
0.262235
0.216577
0.181509
0.317351
0.261845
0.216018
0.180669
0.317265
0.261838
0.215963
0.180642
0.317279
0.261906
0.216026
0.180702
0.31741
0.262026
0.216131
0.180784
0.317646
0.262211
0.21627
0.180879
0.31797
0.26245
0.216433
0.180973