/*--------------------------------*- C++ -*----------------------------------*\
| =========                 |                                                 |
| \\      /  F ield         | foam-extend: Open Source CFD                    |
|  \\    /   O peration     | Version:     3.1                                |
|   \\  /    A nd           | Web:         http://www.extend-project.de       |
|    \\/     M anipulation  |                                                 |
\*---------------------------------------------------------------------------*/
FoamFile
{
    version     2.0;
    format      ascii;
    class       volSymmTensorField;
    location    "0.0007";
    object      sigma;
}
// * * * * * * * * * * * * * * * * * * * * * * * * * * * * * * * * * * * * * //

dimensions      [1 -1 -2 0 0 0 0];

internalField   nonuniform List<symmTensor> 
6400
(
(799.617 -48.0629 1713.22 1870.15 45.2178 3931.19)
(115.874 -32.3898 1871.83 843.058 58.5955 1367.6)
(-422.34 -19.784 1769.14 37.1739 54.9842 -668.015)
(-1115.55 -6.85182 1426.15 -922.663 36.0108 -3116.1)
(805.163 -125.074 1704.73 1850.54 198.895 3891.08)
(119.455 -85.0832 1858.45 828.269 217.986 1338.73)
(-422.42 -53.6927 1753.5 24.5095 206.075 -697.983)
(-1122.6 -22.091 1408.22 -937.476 165.653 -3160.62)
(830.235 -205.191 1683.03 1821.94 332.91 3888.19)
(136.969 -139.077 1834.89 809.925 363.636 1337.29)
(-411.107 -87.5851 1731.35 12.888 343.595 -698.855)
(-1117.18 -36.0691 1390.7 -942.417 276.378 -3160.74)
(867.915 -280.043 1651.28 1782.77 464.308 3886.76)
(162.571 -189.886 1800.28 783.464 506.806 1336.57)
(-394.853 -119.546 1698.68 -3.70697 478.704 -698.98)
(-1110.35 -49.1923 1364.44 -949.26 385.012 -3160.25)
(917.008 -348.029 1609.45 1732.85 592.602 3886.03)
(195.97 -236.047 1754.65 749.673 646.644 1336.43)
(-373.688 -148.619 1655.59 -24.8802 610.647 -698.581)
(-1101.41 -61.1541 1329.78 -957.797 491.023 -3159.21)
(976.275 -407.489 1557.74 1673.19 717.124 3885.75)
(236.293 -276.423 1698.24 709.28 782.369 1336.63)
(-348.14 -174.061 1602.33 -50.186 738.681 -697.902)
(-1090.63 -71.6326 1286.97 -967.961 593.842 -3157.92)
(1044.24 -456.97 1496.42 1605.15 837.167 3885.82)
(282.526 -310.028 1631.38 663.191 913.197 1337.04)
(-318.861 -195.24 1539.23 -79.079 862.07 -697.108)
(-1078.3 -80.3658 1236.26 -979.584 692.889 -3156.61)
(1119.24 -495.258 1425.84 1530.36 952.013 3886.2)
(333.54 -336.032 1554.48 612.478 1038.35 1337.57)
(-286.583 -211.629 1466.68 -110.911 980.087 -696.314)
(-1064.77 -87.1299 1177.99 -992.447 787.593 -3155.41)
(1199.48 -521.422 1346.43 1450.61 1060.95 3886.84)
(388.114 -353.779 1467.98 558.351 1157.07 1338.16)
(-252.11 -222.8 1385.12 -144.944 1092.02 -695.629)
(-1050.39 -91.7378 1112.53 -1006.29 877.396 -3154.48)
(1283.41 -534.898 1258.7 1367.96 1163.35 3887.66)
(444.875 -362.803 1372.48 502.106 1268.65 1338.63)
(-216.369 -228.457 1295.1 -180.36 1197.22 -695.199)
(-1035.59 -94.063 1040.31 -1020.78 961.783 -3153.95)
(1367.96 -534.898 1163.35 1283.41 1258.7 3887.66)
(502.106 -362.803 1268.65 444.875 1372.48 1338.63)
(-180.36 -228.457 1197.22 -216.369 1295.1 -695.199)
(-1020.78 -94.063 961.783 -1035.59 1040.31 -3153.95)
(1450.61 -521.422 1060.95 1199.48 1346.43 3886.84)
(558.351 -353.779 1157.07 388.115 1467.98 1338.16)
(-144.944 -222.8 1092.02 -252.11 1385.12 -695.629)
(-1006.29 -91.7378 877.396 -1050.39 1112.53 -3154.48)
(1530.36 -495.258 952.013 1119.24 1425.84 3886.2)
(612.478 -336.032 1038.35 333.541 1554.48 1337.57)
(-110.911 -211.629 980.087 -286.583 1466.68 -696.314)
(-992.447 -87.1299 787.593 -1064.77 1177.99 -3155.41)
(1605.15 -456.97 837.167 1044.24 1496.42 3885.82)
(663.191 -310.028 913.197 282.526 1631.38 1337.04)
(-79.079 -195.24 862.071 -318.861 1539.23 -697.108)
(-979.584 -80.3659 692.89 -1078.3 1236.26 -3156.61)
(1673.19 -407.489 717.124 976.275 1557.74 3885.75)
(709.28 -276.423 782.369 236.293 1698.24 1336.63)
(-50.1859 -174.061 738.682 -348.14 1602.33 -697.902)
(-967.961 -71.6326 593.843 -1090.63 1286.97 -3157.92)
(1732.85 -348.029 592.602 917.008 1609.45 3886.03)
(749.674 -236.047 646.645 195.97 1754.65 1336.43)
(-24.8801 -148.619 610.647 -373.688 1655.59 -698.581)
(-957.797 -61.1541 491.024 -1101.41 1329.78 -3159.21)
(1782.78 -280.043 464.308 867.916 1651.28 3886.76)
(783.465 -189.886 506.806 162.571 1800.28 1336.57)
(-3.7068 -119.546 478.704 -394.852 1698.68 -698.98)
(-949.26 -49.1924 385.012 -1110.35 1364.44 -3160.25)
(1821.94 -205.191 332.91 830.236 1683.03 3888.19)
(809.926 -139.077 363.636 136.969 1834.89 1337.29)
(12.8882 -87.5851 343.595 -411.107 1731.35 -698.855)
(-942.417 -36.0691 276.378 -1117.18 1390.7 -3160.74)
(1850.54 -125.074 198.895 805.163 1704.73 3891.08)
(828.269 -85.0832 217.986 119.455 1858.45 1338.73)
(24.5097 -53.6927 206.075 -422.419 1753.5 -697.983)
(-937.476 -22.091 165.653 -1122.6 1408.22 -3160.62)
(1870.15 -48.0629 45.2179 799.618 1713.22 3931.19)
(843.058 -32.3898 58.5955 115.874 1871.83 1367.6)
(37.1741 -19.784 54.9842 -422.34 1769.14 -668.015)
(-922.663 -6.85182 36.0108 -1115.55 1426.15 -3116.1)
(-1140.14 -101.291 710.702 1177.5 -11.9975 441.395)
(-656.174 -81.1019 1320.38 1202.41 21.5895 454.503)
(-321.724 -61.9246 1299.01 1126.45 21.0847 182.726)
(52.8447 -44.765 689.621 1145.99 -11.0407 103.132)
(-1098.64 -270.999 716.828 1166.29 84.4463 450.165)
(-625.978 -217.485 1313.29 1184.96 155.384 451.491)
(-297.351 -169.085 1283.68 1111.35 152.482 178.096)
(75.2401 -126.8 667.402 1135.91 80.7083 104.691)
(-1043.53 -444.993 708.063 1106.53 140.355 447.84)
(-580.695 -355.771 1296.81 1139.43 258 450.136)
(-261.819 -276.617 1267.42 1075.83 252.82 176.903)
(102.451 -208.228 658.989 1109.34 132.662 104.064)
(-960.773 -607.422 694.753 1023.14 195.249 447.282)
(-514.609 -485.794 1272.31 1072.78 358.763 449.711)
(-210.308 -377.7 1243.44 1024.08 351.315 176.791)
(141.162 -284.335 646.455 1070.28 183.794 104.208)
(-853.732 -754.972 677.127 915.712 248.947 447)
(-428.95 -603.901 1239.98 986.848 457.243 449.722)
(-143.658 -469.549 1211.81 957.271 447.558 177.123)
(191.356 -353.47 629.965 1019.95 233.744 104.85)
(-724.948 -884.032 655.276 786.733 301.188 446.876)
(-325.86 -707.196 1200.02 883.645 552.927 449.935)
(-63.4392 -549.874 1172.76 877.016 541.037 177.664)
(251.772 -413.921 609.648 959.511 282.24 105.708)
(-577.566 -991.445 629.309 639.229 351.651 446.849)
(-207.85 -793.16 1152.67 765.623 645.246 450.245)
(28.3978 -616.71 1126.52 785.241 631.198 178.284)
(320.933 -464.21 585.639 890.419 328.996 106.619)
(-415.145 -1074.58 599.368 476.746 399.979 446.902)
(-77.7527 -859.681 1098.21 635.603 733.616 450.595)
(129.638 -668.408 1073.39 684.131 717.484 178.886)
(397.155 -503.094 558.087 814.315 373.728 107.454)
(-241.572 -1131.4 565.643 303.244 445.789 447.016)
(61.3603 -905.085 1036.99 496.744 817.453 450.947)
(237.833 -703.65 1013.7 576.131 799.348 179.386)
(478.552 -529.575 527.163 733.016 416.153 108.089)
(-60.0558 -1160.65 528.598 123.345 488.674 447.56)
(206.129 -928.168 969.486 352.503 896.202 451.264)
(350.245 -721.503 947.849 463.934 876.275 179.695)
(563.057 -542.968 493.068 648.56 456.004 108.429)
(123.345 -1160.65 488.674 -60.0557 528.598 447.56)
(352.503 -928.168 896.202 206.129 969.486 451.264)
(463.934 -721.503 876.275 350.245 947.849 179.695)
(648.56 -542.968 456.004 563.057 493.068 108.429)
(303.244 -1131.4 445.789 -241.572 565.643 447.016)
(496.744 -905.085 817.453 61.3605 1036.99 450.948)
(576.131 -703.651 799.348 237.834 1013.7 179.386)
(733.016 -529.575 416.153 478.553 527.163 108.089)
(476.746 -1074.58 399.979 -415.145 599.368 446.902)
(635.603 -859.681 733.616 -77.7525 1098.21 450.595)
(684.132 -668.408 717.485 129.638 1073.39 178.886)
(814.316 -503.094 373.728 397.155 558.087 107.455)
(639.229 -991.445 351.651 -577.566 629.309 446.849)
(765.623 -793.16 645.246 -207.849 1152.67 450.245)
(785.241 -616.71 631.198 28.398 1126.52 178.284)
(890.419 -464.211 328.996 320.934 585.639 106.62)
(786.733 -884.032 301.188 -724.948 655.276 446.876)
(883.645 -707.196 552.927 -325.86 1200.02 449.935)
(877.017 -549.874 541.037 -63.4389 1172.76 177.664)
(959.511 -413.922 282.24 251.772 609.648 105.708)
(915.712 -754.972 248.947 -853.731 677.127 447)
(986.848 -603.901 457.244 -428.95 1239.98 449.723)
(957.271 -469.549 447.559 -143.658 1211.81 177.123)
(1019.95 -353.47 233.744 191.356 629.965 104.851)
(1023.14 -607.422 195.249 -960.772 694.753 447.282)
(1072.78 -485.794 358.763 -514.609 1272.31 449.711)
(1024.08 -377.7 351.315 -210.308 1243.44 176.792)
(1070.28 -284.335 183.794 141.162 646.456 104.208)
(1106.53 -444.993 140.355 -1043.53 708.064 447.84)
(1139.43 -355.771 258.001 -580.695 1296.81 450.137)
(1075.83 -276.617 252.82 -261.819 1267.42 176.903)
(1109.34 -208.228 132.663 102.451 658.989 104.064)
(1166.29 -270.999 84.4464 -1098.64 716.828 450.166)
(1184.96 -217.485 155.385 -625.977 1313.29 451.491)
(1111.35 -169.085 152.482 -297.35 1283.68 178.096)
(1135.91 -126.801 80.7084 75.2403 667.402 104.691)
(1177.5 -101.291 -11.9975 -1140.14 710.702 441.395)
(1202.41 -81.1019 21.5895 -656.174 1320.38 454.503)
(1126.45 -61.9246 21.0847 -321.723 1299.01 182.726)
(1145.99 -44.765 -11.0407 52.8448 689.621 103.132)
(-1064.83 -112.036 370.935 1594.83 -18.0476 -1052.52)
(-697.329 -107.768 657.286 1830.13 -2.66725 -114.695)
(-289.074 -99.8608 645.251 2057.08 -3.08268 702.35)
(47.7989 -95.4772 343.706 2304.74 -18.6164 1609.14)
(-1029.1 -311.192 371.989 1570.85 42.8868 -1035.84)
(-662.148 -295.825 652.917 1801.04 76.3142 -102.568)
(-257.279 -274.09 636.22 2026.76 74.8884 713.461)
(73.3326 -262.466 332.171 2268.73 40.0018 1620.57)
(-966.105 -511.401 367.301 1503.94 72.0525 -1036.34)
(-600.522 -484.496 644.622 1740.14 127.863 -101.616)
(-199.853 -449.126 628.034 1970.27 125.3 714.488)
(128.603 -431.796 328.013 2215.39 66.5371 1621.79)
(-870.796 -698.283 360.371 1409.05 100.473 -1036.06)
(-510.295 -661.674 632.307 1650.08 178.034 -101.341)
(-116.041 -613.398 615.993 1886.81 174.289 714.872)
(209.043 -589.814 321.635 2135.07 92.2382 1622.14)
(-747.585 -868.076 351.186 1286.21 128.22 -1035.96)
(-393.486 -822.567 616.066 1533.51 226.903 -101.151)
(-7.71483 -762.541 600.121 1778.62 221.941 715.146)
(313.213 -733.202 313.255 2030.91 117.132 1622.49)
(-599.406 -1016.62 339.762 1138.39 155.249 -1035.94)
(-253.016 -963.249 596.002 1393.26 274.335 -100.974)
(122.552 -892.897 580.555 1648.45 268.131 715.448)
(438.511 -858.49 302.984 1905.59 141.184 1622.93)
(-429.874 -1140.27 326.138 969.094 181.423 -1035.98)
(-92.3029 -1080.3 572.246 1232.72 320.094 -100.798)
(271.595 -1001.3 557.447 1499.5 312.632 715.784)
(581.874 -962.64 290.915 1762.24 164.294 1623.45)
(-243.077 -1236 310.383 782.419 206.537 -1036.05)
(84.7957 -1170.87 544.962 1055.77 363.894 -100.63)
(435.818 -1085.12 530.969 1335.39 355.188 716.121)
(739.805 -1043.11 277.152 1604.38 186.341 1623.97)
(-43.4774 -1301.45 292.627 582.93 230.337 -1036.11)
(274.095 -1232.68 514.365 866.722 405.431 -100.457)
(611.256 -1142.24 501.322 1160.11 395.535 716.412)
(908.427 -1097.9 261.805 1435.84 207.201 1624.4)
(165.039 -1335.07 273.244 375.876 252.546 -1035.74)
(471.035 -1264.09 480.765 670.279 444.428 -100.257)
(793.542 -1171.18 468.744 978.011 433.439 716.602)
(1083.53 -1125.63 244.985 1260.78 226.769 1624.63)
(375.876 -1335.07 252.547 165.039 273.244 -1035.74)
(670.279 -1264.09 444.429 471.035 480.765 -100.257)
(978.011 -1171.18 433.439 793.543 468.744 716.602)
(1260.78 -1125.63 226.77 1083.53 244.985 1624.63)
(582.931 -1301.45 230.338 -43.4771 292.627 -1036.11)
(866.722 -1232.68 405.431 274.095 514.365 -100.456)
(1160.11 -1142.24 395.535 611.257 501.322 716.412)
(1435.84 -1097.9 207.201 908.427 261.805 1624.4)
(782.42 -1236 206.538 -243.076 310.383 -1036.05)
(1055.77 -1170.87 363.894 84.7961 544.961 -100.63)
(1335.39 -1085.12 355.188 435.818 530.968 716.121)
(1604.39 -1043.11 186.341 739.805 277.152 1623.97)
(969.094 -1140.27 181.423 -429.873 326.138 -1035.98)
(1232.72 -1080.3 320.094 -92.3023 572.245 -100.798)
(1499.5 -1001.3 312.633 271.596 557.446 715.784)
(1762.24 -962.64 164.294 581.874 290.915 1623.45)
(1138.39 -1016.62 155.249 -599.405 339.762 -1035.94)
(1393.26 -963.249 274.335 -253.016 596.002 -100.974)
(1648.45 -892.897 268.131 122.552 580.554 715.448)
(1905.59 -858.49 141.184 438.511 302.984 1622.93)
(1286.21 -868.076 128.22 -747.584 351.186 -1035.96)
(1533.51 -822.567 226.903 -393.485 616.066 -101.151)
(1778.62 -762.541 221.942 -7.71435 600.121 715.146)
(2030.91 -733.202 117.133 313.213 313.255 1622.49)
(1409.05 -698.283 100.473 -870.795 360.371 -1036.05)
(1650.08 -661.674 178.034 -510.294 632.307 -101.341)
(1886.81 -613.398 174.289 -116.041 615.993 714.872)
(2135.07 -589.815 92.2383 209.043 321.635 1622.14)
(1503.94 -511.401 72.0526 -966.104 367.301 -1036.33)
(1740.14 -484.497 127.863 -600.521 644.622 -101.615)
(1970.27 -449.126 125.3 -199.852 628.034 714.489)
(2215.39 -431.796 66.5372 128.604 328.013 1621.79)
(1570.85 -311.192 42.8869 -1029.1 371.989 -1035.84)
(1801.04 -295.825 76.3143 -662.147 652.917 -102.568)
(2026.76 -274.09 74.8885 -257.279 636.22 713.461)
(2268.73 -262.466 40.0019 73.3328 332.171 1620.57)
(1594.83 -112.036 -18.0476 -1064.83 370.935 -1052.52)
(1830.13 -107.768 -2.66724 -697.328 657.286 -114.695)
(2057.08 -99.8608 -3.08267 -289.074 645.251 702.351)
(2304.74 -95.4772 -18.6164 47.7991 343.706 1609.14)
(-935.015 -120.02 66.9698 1959.51 -12.6167 -1647.71)
(-612.023 -121.909 130.488 2278.14 -9.34501 -324.795)
(-263.163 -120.973 127.204 2584.96 -9.49889 902.036)
(35.7852 -121.768 59.4194 2906.41 -12.8391 2193.23)
(-898.975 -338.745 66.6046 1929.4 6.65524 -1627.18)
(-575.804 -338.493 128.85 2242.53 14.3088 -307.506)
(-229.044 -333.12 124.53 2545.93 14.221 918.369)
(65.2555 -333.825 56.3235 2858.11 6.80715 2208.51)
(-830.315 -556.638 65.6939 1857.42 11.648 -1626.63)
(-505.976 -554.724 127.017 2172.45 24.515 -305.972)
(-160.089 -545.984 122.762 2476.76 24.3206 919.831)
(135.35 -549.44 55.5074 2790.14 11.6885 2210.38)
(-726.474 -760.172 64.3804 1754.53 16.5247 -1625.64)
(-402.594 -757.617 124.34 2069.4 34.3548 -305.223)
(-58.1864 -745.705 120.134 2375.17 33.9956 920.461)
(237.676 -750.539 54.1949 2687.75 16.2893 2210.72)
(-592.141 -945.125 62.6194 1621.22 21.3014 -1625.04)
(-268.695 -941.822 120.828 1936.06 43.8472 -304.819)
(73.5892 -926.953 116.675 2243.58 43.26 920.654)
(370.235 -932.918 52.4789 2555.01 20.5913 2210.69)
(-430.585 -1106.95 60.3734 1460.7 26.0032 -1624.64)
(-107.716 -1102.84 116.495 1775.64 53.0004 -304.587)
(231.997 -1085.29 112.448 2085.3 52.1211 920.696)
(529.628 -1092.19 50.4312 2395.34 24.6018 2210.54)
(-245.767 -1241.67 57.624 1276.77 30.6223 -1624.4)
(76.3918 -1236.76 111.387 1592.02 61.7864 -304.436)
(413.155 -1216.88 107.526 1904.24 60.5537 920.71)
(711.932 -1224.5 48.1202 2212.77 28.3132 2210.43)
(-42.1691 -1345.97 54.3814 1073.87 35.1038 -1624.29)
(279.17 -1340.33 105.583 1389.65 70.1539 -304.329)
(612.656 -1318.55 102.009 1704.83 68.5226 920.738)
(912.686 -1326.66 45.6248 2011.81 31.7157 2210.4)
(175.289 -1417.27 50.7147 856.924 39.3435 -1624.25)
(495.773 -1410.97 99.2106 1173.47 78.0467 -304.225)
(825.665 -1387.8 96.0162 1491.96 76.0073 920.789)
(1126.97 -1396.17 43.0265 1797.39 34.82 2210.42)
(402.151 -1453.82 46.9187 631.538 43.2178 -1623.9)
(720.97 -1446.85 92.4614 948.803 85.4448 -304.085)
(1046.92 -1422.87 89.6737 1270.85 83.0287 920.844)
(1349.5 -1431.35 40.3824 1574.8 37.6771 2210.44)
(631.538 -1453.82 43.2179 402.151 46.9186 -1623.9)
(948.804 -1446.85 85.4449 720.97 92.4613 -304.085)
(1270.85 -1422.87 83.0289 1046.92 89.6735 920.844)
(1574.8 -1431.35 37.6773 1349.5 40.3822 2210.44)
(856.924 -1417.27 39.3437 175.29 50.7146 -1624.25)
(1173.47 -1410.97 78.0468 495.773 99.2105 -304.225)
(1491.96 -1387.8 76.0075 825.665 96.0161 920.789)
(1797.39 -1396.17 34.8203 1126.97 43.0264 2210.42)
(1073.87 -1345.97 35.104 -42.1684 54.3813 -1624.29)
(1389.65 -1340.33 70.1541 279.17 105.583 -304.329)
(1704.83 -1318.55 68.5228 612.656 102.009 920.738)
(2011.81 -1326.66 31.7159 912.686 45.6247 2210.4)
(1276.77 -1241.67 30.6225 -245.766 57.624 -1624.4)
(1592.02 -1236.76 61.7866 76.3925 111.387 -304.436)
(1904.24 -1216.88 60.5539 413.155 107.526 920.71)
(2212.77 -1224.5 28.3135 711.933 48.1201 2210.43)
(1460.7 -1106.95 26.0034 -430.584 60.3734 -1624.64)
(1775.64 -1102.84 53.0006 -107.715 116.494 -304.586)
(2085.3 -1085.29 52.1213 231.998 112.447 920.696)
(2395.34 -1092.19 24.602 529.628 50.4311 2210.54)
(1621.22 -945.125 21.3016 -592.14 62.6194 -1625.04)
(1936.06 -941.823 43.8473 -268.694 120.828 -304.819)
(2243.58 -926.953 43.2601 73.5898 116.675 920.654)
(2555.01 -932.918 20.5915 370.235 52.4789 2210.69)
(1754.53 -760.172 16.5249 -726.472 64.3804 -1625.64)
(2069.4 -757.617 34.3549 -402.593 124.34 -305.222)
(2375.17 -745.706 33.9957 -58.1858 120.134 920.461)
(2687.75 -750.539 16.2894 237.676 54.1949 2210.72)
(1857.42 -556.638 11.6481 -830.313 65.694 -1626.62)
(2172.45 -554.724 24.5151 -505.975 127.017 -305.972)
(2476.76 -545.984 24.3207 -160.089 122.762 919.832)
(2790.14 -549.44 11.6886 135.35 55.5075 2210.38)
(1929.4 -338.745 6.65532 -898.974 66.6048 -1627.18)
(2242.53 -338.493 14.3088 -575.803 128.85 -307.506)
(2545.93 -333.12 14.221 -229.043 124.53 918.369)
(2858.11 -333.825 6.80722 65.2557 56.3236 2208.51)
(1959.51 -120.02 -12.6166 -935.014 66.97 -1647.71)
(2278.14 -121.909 -9.34499 -612.022 130.488 -324.795)
(2584.96 -120.973 -9.49888 -263.162 127.204 902.037)
(2906.41 -121.768 -12.8391 35.7854 59.4194 2193.23)
(-759.567 -119.796 -174.441 2139.1 -2.58812 -1477.46)
(-499.776 -122.07 -265.142 2402.36 -7.72243 -275.157)
(-228.343 -122.372 -258.302 2657.12 -7.53805 859.445)
(10.4952 -123.334 -159.495 2923.07 -2.35044 2031.64)
(-723.721 -339.387 -175.049 2108.68 -21.4464 -1458.83)
(-464.502 -340.232 -263.928 2366.49 -31.6559 -259.302)
(-194.931 -337.809 -255.771 2617.48 -30.4817 874.181)
(40.2685 -338.813 -155.978 2874.08 -18.5474 2044.54)
(-654.785 -557.644 -172.899 2036.82 -35.6 -1458.08)
(-394.515 -557.56 -260.807 2295.86 -52.571 -258.021)
(-125.257 -553.615 -252.745 2547 -50.5716 875.181)
(111.395 -557.566 -154.213 2804.75 -30.5853 2045.93)
(-550.609 -761.56 -169.719 1933.88 -49.3398 -1456.71)
(-290.5 -761.43 -256.164 2192.17 -73.0246 -257.224)
(-21.8827 -756.072 -248.294 2443.69 -70.2459 875.581)
(215.218 -761.579 -151.558 2700.46 -42.3949 2045.78)
(-415.752 -946.876 -165.582 1800.55 -62.7027 -1455.6)
(-155.719 -946.494 -250.054 2058.12 -93.0239 -256.721)
(111.826 -939.731 -242.427 2310.02 -89.526 875.517)
(349.701 -946.505 -148.055 2565.35 -53.9937 2045.12)
(-253.511 -1109.02 -160.546 1640.09 -75.6437 -1454.63)
(6.31285 -1108.2 -242.524 1896.94 -112.505 -256.395)
(272.517 -1100.08 -235.165 2149.34 -108.358 875.233)
(511.348 -1107.88 -143.7 2402.91 -65.3766 2044.19)
(-67.8906 -1244 -154.659 1456.3 -88.0918 -1453.8)
(191.566 -1242.6 -233.595 1712.56 -131.376 -256.165)
(456.193 -1233.22 -226.503 1965.67 -126.659 874.883)
(696.14 -1241.81 -138.459 2217.3 -76.5188 2043.24)
(136.548 -1348.47 -147.954 1253.58 -99.9856 -1453.12)
(395.474 -1346.44 -223.255 1509.5 -149.527 -255.989)
(658.326 -1335.96 -216.408 1763.56 -144.321 874.561)
(899.518 -1345.1 -132.278 2013.17 -87.3693 2042.41)
(354.757 -1419.83 -140.411 1036.81 -111.294 -1452.64)
(613.068 -1417.18 -211.446 1292.7 -166.831 -255.836)
(873.965 -1405.85 -204.819 1548 -161.195 874.332)
(1116.5 -1415.29 -125.098 1795.6 -97.8308 2041.79)
(581.966 -1456.32 -131.81 811.43 -121.998 -1452.09)
(839.02 -1453.06 -198.063 1067.46 -183.107 -255.684)
(1097.8 -1441.21 -191.687 1324.29 -177.073 874.229)
(1341.79 -1450.77 -116.894 1569.98 -107.743 2041.46)
(811.43 -1456.32 -121.998 581.966 -131.81 -1452.09)
(1067.46 -1453.06 -183.107 839.021 -198.063 -255.683)
(1324.29 -1441.21 -177.073 1097.8 -191.688 874.229)
(1569.98 -1450.77 -107.743 1341.79 -116.894 2041.46)
(1036.81 -1419.83 -111.294 354.758 -140.411 -1452.64)
(1292.7 -1417.18 -166.831 613.068 -211.446 -255.836)
(1548 -1405.85 -161.195 873.965 -204.819 874.333)
(1795.6 -1415.29 -97.8306 1116.5 -125.098 2041.79)
(1253.58 -1348.47 -99.9855 136.549 -147.954 -1453.12)
(1509.5 -1346.44 -149.527 395.475 -223.255 -255.988)
(1763.56 -1335.96 -144.32 658.327 -216.408 874.562)
(2013.17 -1345.1 -87.3691 899.518 -132.278 2042.41)
(1456.3 -1244 -88.0916 -67.8895 -154.659 -1453.8)
(1712.56 -1242.6 -131.376 191.566 -233.595 -256.164)
(1965.67 -1233.22 -126.659 456.194 -226.503 874.883)
(2217.3 -1241.81 -76.5186 696.14 -138.459 2043.24)
(1640.09 -1109.02 -75.6435 -253.51 -160.546 -1454.63)
(1896.94 -1108.2 -112.505 6.31389 -242.524 -256.395)
(2149.34 -1100.08 -108.358 272.518 -235.165 875.234)
(2402.91 -1107.88 -65.3764 511.349 -143.7 2044.19)
(1800.56 -946.876 -62.7025 -415.751 -165.582 -1455.6)
(2058.12 -946.494 -93.0237 -155.718 -250.054 -256.72)
(2310.02 -939.731 -89.5258 111.827 -242.427 875.517)
(2565.35 -946.505 -53.9935 349.701 -148.055 2045.12)
(1933.88 -761.56 -49.3397 -550.608 -169.719 -1456.71)
(2192.17 -761.43 -73.0245 -290.499 -256.164 -257.223)
(2443.69 -756.072 -70.2458 -21.8819 -248.294 875.582)
(2700.46 -761.579 -42.3947 215.218 -151.558 2045.78)
(2036.82 -557.644 -35.5999 -654.784 -172.899 -1458.08)
(2295.86 -557.56 -52.5709 -394.514 -260.807 -258.02)
(2547 -553.616 -50.5715 -125.257 -252.745 875.182)
(2804.76 -557.567 -30.5852 111.396 -154.213 2045.93)
(2108.69 -339.387 -21.4463 -723.719 -175.049 -1458.83)
(2366.49 -340.232 -31.6559 -464.501 -263.928 -259.302)
(2617.48 -337.809 -30.4816 -194.93 -255.771 874.182)
(2874.08 -338.813 -18.5473 40.2687 -155.978 2044.54)
(2139.11 -119.796 -2.58809 -759.565 -174.44 -1477.46)
(2402.36 -122.07 -7.72241 -499.774 -265.142 -275.156)
(2657.12 -122.372 -7.53803 -228.343 -258.302 859.446)
(2923.07 -123.334 -2.35041 10.4955 -159.495 2031.64)
(-544.409 -110.156 -296.686 2111.29 7.64349 -796.171)
(-365.645 -109.251 -465.275 2228.81 -1.82435 -57.2781)
(-188.859 -107.512 -452.853 2348.69 -1.5115 657.486)
(-29.4696 -105.673 -269.861 2476.21 7.87781 1377.97)
(-510.379 -311.031 -297.017 2085.29 -35.0268 -783.531)
(-333.867 -304.467 -462.12 2197.71 -54.4498 -47.0579)
(-159.234 -297.395 -447.205 2314.62 -52.7601 666.429)
(-2.73961 -291.656 -262.586 2435.08 -31.2606 1384.55)
(-447.071 -511.095 -293.304 2019.35 -58.6701 -783.202)
(-271.214 -498.833 -456.395 2134.46 -90.9891 -46.4471)
(-97.9011 -487.194 -441.654 2252.4 -88.0609 666.619)
(58.5858 -479.695 -259.443 2375.03 -51.8973 1384.98)
(-351.461 -698.006 -287.814 1924.96 -81.6675 -781.89)
(-178.061 -681.181 -447.912 2041.55 -126.651 -45.9209)
(-6.88026 -665.275 -433.472 2161.22 -122.503 666.57)
(147.9 -655.111 -254.655 2284.92 -72.0327 1384.22)
(-227.581 -867.858 -280.634 1802.82 -104.064 -780.551)
(-57.2664 -846.685 -436.761 1921.51 -161.421 -45.4792)
(110.885 -826.778 -422.696 2043.31 -156.086 666.201)
(263.562 -814.046 -248.358 2168.25 -91.634 1382.99)
(-78.4461 -1016.45 -271.822 1655.98 -125.814 -779.155)
(87.9873 -991.233 -423.029 1777.28 -195.211 -45.1113)
(252.398 -967.683 -409.413 1901.66 -188.729 665.643)
(402.53 -952.618 -240.606 2028.03 -110.686 1381.44)
(92.235 -1140.12 -261.436 1487.95 -146.823 -777.767)
(254.025 -1111.27 -406.788 1612.45 -227.88 -44.7879)
(414.074 -1084.55 -393.684 1739.88 -220.307 665.014)
(561.292 -1067.47 -231.415 1867.92 -129.152 1379.8)
(280.199 -1235.79 -249.527 1302.76 -166.977 -776.491)
(436.659 -1203.88 -388.083 1431.09 -259.254 -44.4993)
(591.844 -1174.58 -375.537 1562.06 -250.661 664.425)
(735.886 -1155.88 -220.771 1692.03 -146.968 1378.28)
(480.676 -1301.07 -236.117 1104.78 -186.173 -775.465)
(631.308 -1266.86 -366.925 1237.67 -289.133 -44.2451)
(781.278 -1235.7 -354.98 1372.67 -279.583 663.976)
(922.024 -1215.85 -208.654 1504.82 -164.019 1377.09)
(688.936 -1334.38 -221.068 898.826 -204.31 -774.661)
(833.091 -1298.73 -343.292 1036.83 -317.262 -44.0431)
(977.694 -1266.57 -332.032 1176.35 -306.812 663.746)
(1115.23 -1246.11 -195.073 1311 -180.129 1376.43)
(898.826 -1334.38 -204.31 688.936 -221.069 -774.661)
(1036.83 -1298.73 -317.261 833.091 -343.292 -44.043)
(1176.35 -1266.57 -306.812 977.695 -332.032 663.746)
(1311 -1246.11 -180.129 1115.23 -195.073 1376.43)
(1104.78 -1301.07 -186.173 480.676 -236.117 -775.465)
(1237.67 -1266.86 -289.133 631.309 -366.926 -44.2449)
(1372.67 -1235.7 -279.583 781.278 -354.98 663.977)
(1504.82 -1215.85 -164.018 922.024 -208.654 1377.09)
(1302.76 -1235.79 -166.977 280.2 -249.527 -776.49)
(1431.1 -1203.88 -259.254 436.66 -388.083 -44.4989)
(1562.06 -1174.58 -250.66 591.844 -375.537 664.425)
(1692.03 -1155.88 -146.968 735.886 -220.771 1378.28)
(1487.96 -1140.12 -146.823 92.2362 -261.435 -777.766)
(1612.45 -1111.27 -227.88 254.026 -406.788 -44.7874)
(1739.88 -1084.55 -220.307 414.075 -393.684 665.015)
(1867.92 -1067.47 -129.152 561.292 -231.415 1379.81)
(1655.98 -1016.45 -125.814 -78.4448 -271.821 -779.154)
(1777.28 -991.233 -195.211 87.9884 -423.029 -45.1107)
(1901.66 -967.683 -188.729 252.399 -409.413 665.644)
(2028.03 -952.618 -110.685 402.53 -240.606 1381.45)
(1802.82 -867.858 -104.063 -227.579 -280.634 -780.55)
(1921.51 -846.685 -161.421 -57.2652 -436.761 -45.4785)
(2043.31 -826.778 -156.085 110.886 -422.695 666.202)
(2168.25 -814.046 -91.6338 263.562 -248.358 1382.99)
(1924.96 -698.006 -81.6673 -351.459 -287.813 -781.889)
(2041.55 -681.181 -126.651 -178.059 -447.912 -45.9201)
(2161.22 -665.275 -122.503 -6.87938 -433.472 666.57)
(2284.93 -655.111 -72.0325 147.901 -254.655 1384.22)
(2019.35 -511.095 -58.67 -447.069 -293.304 -783.201)
(2134.46 -498.833 -90.989 -271.213 -456.394 -46.4462)
(2252.4 -487.194 -88.0608 -97.9002 -441.654 666.62)
(2375.03 -479.696 -51.8971 58.5861 -259.443 1384.98)
(2085.3 -311.031 -35.0268 -510.378 -297.017 -783.53)
(2197.71 -304.467 -54.4497 -333.866 -462.12 -47.0569)
(2314.62 -297.395 -52.76 -159.233 -447.205 666.43)
(2435.08 -291.656 -31.2605 -2.73926 -262.585 1384.55)
(2111.29 -110.156 7.64352 -544.407 -296.686 -796.17)
(2228.81 -109.251 -1.82432 -365.643 -465.275 -57.277)
(2348.69 -107.512 -1.51147 -188.858 -452.852 657.487)
(2476.21 -105.673 7.87784 -29.4693 -269.861 1377.97)
(-337.093 -93.9233 -275.713 1909.3 15.5208 23.1461)
(-235.72 -88.7957 -442.182 1865.15 6.07514 206.234)
(-148.037 -83.9575 -430.428 1835.09 6.27668 407.803)
(-65.5965 -78.5739 -250.879 1810.11 15.3375 588.736)
(-306.524 -263.082 -275.558 1890.09 -31.6204 28.6634)
(-209.143 -246.737 -438.498 1841.4 -51.0974 209.683)
(-124.017 -232.659 -424.264 1809.66 -49.7595 409.952)
(-43.8637 -218.494 -243.224 1780.81 -28.9944 588.391)
(-252.922 -432.402 -272.104 1834.02 -53.2841 28.2509)
(-158.29 -404.101 -432.928 1790.2 -85.642 209.563)
(-75.9492 -380.899 -418.842 1760.94 -83.2642 409.438)
(2.24119 -359.017 -240.206 1735.53 -48.2536 588.007)
(-172.011 -590.566 -266.975 1754 -74.3896 29.0627)
(-82.8096 -551.812 -424.684 1714.83 -119.346 209.669)
(-4.76911 -520.058 -410.845 1689.51 -115.91 409.022)
(69.1 -490.208 -235.578 1667.85 -67.0089 586.974)
(-67.0706 -734.284 -260.238 1650.57 -94.9698 30.1468)
(15.1726 -685.881 -413.842 1617.45 -152.164 209.905)
(87.3787 -646.266 -400.315 1597.11 -147.663 408.499)
(155.661 -609.05 -229.497 1580.23 -85.182 585.652)
(59.3748 -860.005 -251.929 1526.36 -115.001 31.4647)
(133.069 -802.939 -400.493 1500.52 -184.015 210.194)
(198.129 -756.319 -387.363 1486.16 -178.44 407.877)
(259.628 -712.575 -222.052 1474.94 -102.741 584.07)
(204.171 -964.615 -242.09 1384.41 -134.413 32.9123)
(267.85 -900.074 -384.73 1367.01 -214.778 210.513)
(324.619 -847.494 -372.086 1359.52 -208.132 407.21)
(378.324 -798.247 -213.3 1354.75 -119.653 582.361)
(363.652 -1045.51 -230.768 1228.08 -153.111 34.3463)
(416.036 -974.921 -366.634 1220.26 -244.31 210.839)
(463.591 -917.615 -354.564 1220.49 -236.609 406.584)
(508.735 -864.057 -203.274 1222.85 -135.872 580.726)
(533.675 -1100.66 -218.001 1061.06 -170.996 35.5711)
(573.797 -1025.73 -346.272 1063.92 -272.449 211.142)
(611.507 -965.114 -334.865 1072.61 -263.719 406.099)
(647.642 -908.581 -192.004 1082.69 -151.331 579.409)
(709.943 -1128.73 -203.731 887.239 -187.962 36.4523)
(737.062 -1051.39 -323.689 901.678 -298.997 211.367)
(764.684 -989.052 -313.06 919.516 -289.277 405.844)
(791.749 -930.997 -179.527 937.837 -165.927 578.664)
(887.239 -1128.73 -187.962 709.943 -203.731 36.4524)
(901.678 -1051.39 -298.997 737.062 -323.689 211.367)
(919.516 -989.052 -289.277 764.685 -313.06 405.844)
(937.837 -930.997 -165.927 791.749 -179.527 578.664)
(1061.06 -1100.66 -170.996 533.676 -218.001 35.5713)
(1063.92 -1025.73 -272.448 573.798 -346.272 211.142)
(1072.61 -965.114 -263.719 611.508 -334.865 406.1)
(1082.69 -908.581 -151.331 647.642 -192.004 579.41)
(1228.08 -1045.51 -153.111 363.653 -230.768 34.3467)
(1220.26 -974.921 -244.31 416.037 -366.634 210.839)
(1220.49 -917.616 -236.609 463.591 -354.564 406.584)
(1222.85 -864.058 -135.872 508.736 -203.274 580.726)
(1384.41 -964.616 -134.413 204.172 -242.09 32.9128)
(1367.01 -900.074 -214.778 267.851 -384.73 210.514)
(1359.52 -847.494 -208.132 324.62 -372.086 407.211)
(1354.75 -798.248 -119.652 378.324 -213.3 582.361)
(1526.37 -860.005 -115.001 59.376 -251.929 31.4653)
(1500.52 -802.939 -184.015 133.07 -400.493 210.195)
(1486.16 -756.32 -178.44 198.13 -387.363 407.878)
(1474.94 -712.576 -102.741 259.629 -222.052 584.07)
(1650.57 -734.284 -94.9696 -67.0693 -260.238 30.1475)
(1617.45 -685.881 -152.164 15.1738 -413.841 209.906)
(1597.12 -646.267 -147.663 87.3795 -400.315 408.5)
(1580.23 -609.051 -85.1818 155.662 -229.497 585.653)
(1754 -590.566 -74.3894 -172.01 -266.974 29.0635)
(1714.83 -551.812 -119.346 -82.8084 -424.684 209.67)
(1689.51 -520.059 -115.91 -4.76823 -410.845 409.023)
(1667.85 -490.209 -67.0087 69.1005 -235.578 586.975)
(1834.02 -432.402 -53.284 -252.92 -272.104 28.2518)
(1790.21 -404.101 -85.6419 -158.288 -432.928 209.564)
(1760.94 -380.9 -83.2641 -75.9483 -418.841 409.439)
(1735.53 -359.018 -48.2535 2.24159 -240.206 588.008)
(1890.09 -263.083 -31.6203 -306.522 -275.558 28.6644)
(1841.4 -246.737 -51.0973 -209.142 -438.498 209.684)
(1809.66 -232.659 -49.7594 -124.016 -424.264 409.953)
(1780.82 -218.494 -28.9943 -43.8633 -243.224 588.392)
(1909.3 -93.9233 15.5209 -337.091 -275.712 23.1472)
(1865.15 -88.7957 6.07517 -235.718 -442.182 206.235)
(1835.09 -83.9576 6.27671 -148.036 -430.428 407.804)