/*--------------------------------*- C++ -*----------------------------------*\
| =========                 |                                                 |
| \\      /  F ield         | foam-extend: Open Source CFD                    |
|  \\    /   O peration     | Version:     3.1                                |
|   \\  /    A nd           | Web:         http://www.extend-project.de       |
|    \\/     M anipulation  |                                                 |
\*---------------------------------------------------------------------------*/
FoamFile
{
    version     2.0;
    format      ascii;
    class       volVectorField;
    location    "0.0007";
    object      U;
}
// * * * * * * * * * * * * * * * * * * * * * * * * * * * * * * * * * * * * * //

dimensions      [0 1 -1 0 0 0 0];

internalField   nonuniform List<vector> 
6400
(
(0.00239211 6.70461e-05 0.00437624)
(0.00151208 3.7286e-05 0.00159534)
(0.00138409 3.15249e-05 -0.000731924)
(0.0019536 4.87686e-05 -0.00342336)
(0.00236489 0.00026323 0.00438258)
(0.00149566 0.000163303 0.00160342)
(0.00137251 0.000149409 -0.000723359)
(0.00194484 0.000216308 -0.0034149)
(0.00233233 0.000454719 0.00438146)
(0.00147441 0.000285344 0.00160352)
(0.00135338 0.000261749 -0.000723041)
(0.00191931 0.000374171 -0.00341474)
(0.00228721 0.000641835 0.00438065)
(0.00144585 0.000404551 0.00160288)
(0.00132753 0.000370849 -0.000723697)
(0.00188337 0.000526914 -0.00341559)
(0.00222939 0.000823886 0.00438081)
(0.00140979 0.00052047 0.00160262)
(0.00129499 0.000476866 -0.000724284)
(0.00183736 0.000675447 -0.00341675)
(0.00215872 0.000999684 0.00438178)
(0.00136586 0.000632419 0.00160276)
(0.00125522 0.000579469 -0.000724718)
(0.00178071 0.000819624 -0.00341811)
(0.00207507 0.00116802 0.00438322)
(0.00131363 0.000739615 0.00160319)
(0.00120771 0.000678048 -0.000725007)
(0.00171291 0.000958693 -0.00341945)
(0.00197862 0.00132789 0.00438477)
(0.00125311 0.000841338 0.00160378)
(0.00115234 0.000771908 -0.000725155)
(0.00163394 0.00109165 -0.00342059)
(0.00186992 0.00147846 0.00438614)
(0.00118463 0.000936995 0.00160436)
(0.00108942 0.000860407 -0.000725179)
(0.00154423 0.00121749 -0.00342138)
(0.00174978 0.00161914 0.00438706)
(0.00110878 0.00102617 0.00160477)
(0.00101946 0.000943019 -0.000725141)
(0.00144444 0.00133531 -0.00342176)
(0.00161914 0.00174978 0.00438706)
(0.00102616 0.00110878 0.00160477)
(0.000943018 0.00101946 -0.000725141)
(0.00133531 0.00144444 -0.00342176)
(0.00147845 0.00186992 0.00438614)
(0.00093699 0.00118463 0.00160436)
(0.000860406 0.00108942 -0.000725178)
(0.00121749 0.00154423 -0.00342138)
(0.00132788 0.00197862 0.00438478)
(0.000841333 0.00125311 0.00160378)
(0.000771906 0.00115234 -0.000725153)
(0.00109165 0.00163394 -0.00342059)
(0.00116802 0.00207507 0.00438323)
(0.000739611 0.00131363 0.0016032)
(0.000678047 0.0012077 -0.000725005)
(0.000958694 0.00171291 -0.00341945)
(0.000999679 0.00215872 0.00438179)
(0.000632415 0.00136586 0.00160277)
(0.000579468 0.00125522 -0.000724715)
(0.000819625 0.00178071 -0.00341811)
(0.000823882 0.00222939 0.00438082)
(0.000520468 0.00140979 0.00160263)
(0.000476865 0.00129499 -0.00072428)
(0.000675448 0.00183736 -0.00341676)
(0.000641833 0.00228721 0.00438066)
(0.000404549 0.00144585 0.00160289)
(0.000370849 0.00132753 -0.000723693)
(0.000526915 0.00188337 -0.00341559)
(0.000454718 0.00233233 0.00438147)
(0.000285342 0.00147441 0.00160353)
(0.000261748 0.00135338 -0.000723037)
(0.000374171 0.00191931 -0.00341475)
(0.000263229 0.00236489 0.00438259)
(0.000163301 0.00149565 0.00160343)
(0.000149408 0.0013725 -0.000723355)
(0.000216308 0.00194484 -0.00341491)
(6.70457e-05 0.00239211 0.00437625)
(3.72855e-05 0.00151208 0.00159535)
(3.15245e-05 0.00138408 -0.00073192)
(4.87683e-05 0.0019536 -0.00342336)
(0.0196494 0.000749532 0.0114947)
(0.018618 0.000714552 0.00434096)
(0.0182376 0.000700472 -0.00231888)
(0.0184486 0.000707715 -0.00928973)
(0.0195111 0.00229111 0.0114846)
(0.0184911 0.0021748 0.00433125)
(0.0181186 0.00213294 -0.00232849)
(0.0183343 0.00215974 -0.00929834)
(0.0192627 0.00382205 0.0114791)
(0.0182561 0.00362386 0.00432637)
(0.0178893 0.00355232 -0.00233277)
(0.0181037 0.00359581 -0.00930167)
(0.0189003 0.00533028 0.0114771)
(0.0179135 0.00505168 0.00432435)
(0.0175544 0.00495002 -0.00233458)
(0.0177657 0.00500862 -0.00930329)
(0.0184262 0.00680586 0.0114777)
(0.0174654 0.0064489 0.00432424)
(0.0171163 0.00631775 -0.00233514)
(0.0173232 0.00639102 -0.00930449)
(0.0178414 0.0082387 0.0114803)
(0.0169126 0.00780645 0.00432533)
(0.0165758 0.00764719 -0.00233511)
(0.0167767 0.00773529 -0.00930584)
(0.0171473 0.00961897 0.011484)
(0.0162561 0.00911516 0.00432706)
(0.0159333 0.00892966 -0.00233489)
(0.0161268 0.00903291 -0.00930746)
(0.0163468 0.0109375 0.011488)
(0.0154982 0.0103662 0.00432896)
(0.015191 0.0101564 -0.00233462)
(0.0153756 0.010275 -0.00930908)
(0.0154441 0.0121859 0.0114915)
(0.0146428 0.0115513 0.00433068)
(0.0143527 0.0113193 -0.00233431)
(0.0145267 0.011453 -0.00931034)
(0.014445 0.0133569 0.0114938)
(0.0136955 0.012663 0.0043318)
(0.0134238 0.0124105 -0.00233406)
(0.0135857 0.0125589 -0.00931098)
(0.0133569 0.014445 0.0114938)
(0.012663 0.0136955 0.0043318)
(0.0124105 0.0134238 -0.00233406)
(0.0125589 0.0135857 -0.00931098)
(0.0121858 0.0154441 0.0114915)
(0.0115513 0.0146428 0.00433068)
(0.0113193 0.0143527 -0.00233431)
(0.011453 0.0145267 -0.00931034)
(0.0109375 0.0163468 0.011488)
(0.0103662 0.0154982 0.00432897)
(0.0101565 0.015191 -0.00233461)
(0.010275 0.0153756 -0.00930908)
(0.00961897 0.0171474 0.011484)
(0.00911516 0.0162561 0.00432707)
(0.00892967 0.0159333 -0.00233489)
(0.00903292 0.0161269 -0.00930746)
(0.00823869 0.0178414 0.0114803)
(0.00780645 0.0169126 0.00432535)
(0.0076472 0.0165758 -0.00233511)
(0.0077353 0.0167767 -0.00930585)
(0.00680586 0.0184262 0.0114777)
(0.00644891 0.0174654 0.00432426)
(0.00631776 0.0171164 -0.00233513)
(0.00639103 0.0173232 -0.00930449)
(0.00533028 0.0189004 0.0114771)
(0.00505168 0.0179135 0.00432437)
(0.00495002 0.0175544 -0.00233458)
(0.00500863 0.0177657 -0.0093033)
(0.00382205 0.0192627 0.0114791)
(0.00362387 0.0182561 0.00432639)
(0.00355233 0.0178894 -0.00233276)
(0.00359581 0.0181037 -0.00930167)
(0.00229111 0.0195111 0.0114847)
(0.0021748 0.0184911 0.00433127)
(0.00213294 0.0181187 -0.00232848)
(0.00215975 0.0183343 -0.00929834)
(0.000749533 0.0196494 0.0114947)
(0.000714552 0.0186181 0.00434099)
(0.000700473 0.0182376 -0.00231887)
(0.000707716 0.0184486 -0.00928973)
(0.04512 0.00175543 0.0151566)
(0.0440043 0.00171893 0.00542626)
(0.0432166 0.00169058 -0.00370226)
(0.0427131 0.00167357 -0.0131477)
(0.0448275 0.00529161 0.0151367)
(0.0437194 0.00516667 0.00540621)
(0.0429377 0.00507853 -0.00372198)
(0.042439 0.00502388 -0.0131651)
(0.0442657 0.00879967 0.0151261)
(0.043171 0.00858546 0.0053963)
(0.042399 0.00843519 -0.00373045)
(0.0419071 0.00834033 -0.0131711)
(0.0434369 0.0122558 0.0151216)
(0.0423634 0.0119534 0.00539266)
(0.0416064 0.0117406 -0.0037328)
(0.0411244 0.0116046 -0.013172)
(0.0423475 0.0156384 0.0151214)
(0.0413026 0.0152497 0.00539262)
(0.0405657 0.0149754 -0.00373213)
(0.0400966 0.014799 -0.0131707)
(0.0410025 0.0189255 0.0151242)
(0.039993 0.0184539 0.00539454)
(0.0392808 0.0181206 -0.00373031)
(0.0388276 0.0179054 -0.0131693)
(0.0394071 0.0220954 0.0151287)
(0.0384389 0.0215454 0.0053973)
(0.0377557 0.0211561 -0.00372843)
(0.0373208 0.0209047 -0.0131687)
(0.037568 0.0251267 0.0151339)
(0.0366464 0.0245034 0.00540014)
(0.0359959 0.024062 -0.00372695)
(0.0355813 0.0237773 -0.0131691)
(0.0354945 0.0279993 0.0151386)
(0.0346243 0.0273078 0.00540254)
(0.0340096 0.0268182 -0.00372595)
(0.0336172 0.0265031 -0.0131698)
(0.0331984 0.0306949 0.0151417)
(0.0323839 0.02994 0.00540406)
(0.0318082 0.0294059 -0.00372538)
(0.0314397 0.0290631 -0.0131703)
(0.0306949 0.0331984 0.0151417)
(0.02994 0.0323839 0.00540406)
(0.0294059 0.0318082 -0.00372538)
(0.0290631 0.0314397 -0.0131703)
(0.0279993 0.0354945 0.0151386)
(0.0273078 0.0346243 0.00540255)
(0.0268182 0.0340097 -0.00372594)
(0.0265031 0.0336172 -0.0131698)
(0.0251266 0.037568 0.0151339)
(0.0245034 0.0366464 0.00540015)
(0.024062 0.0359959 -0.00372694)
(0.0237773 0.0355813 -0.0131691)
(0.0220954 0.0394071 0.0151287)
(0.0215454 0.0384389 0.00539732)
(0.0211561 0.0377557 -0.00372842)
(0.0209048 0.0373208 -0.0131687)
(0.0189255 0.0410026 0.0151242)
(0.018454 0.039993 0.00539456)
(0.0181206 0.0392809 -0.00373031)
(0.0179054 0.0388276 -0.0131693)
(0.0156384 0.0423476 0.0151215)
(0.0152497 0.0413027 0.00539264)
(0.0149754 0.0405657 -0.00373213)
(0.014799 0.0400967 -0.0131707)
(0.0122558 0.043437 0.0151217)
(0.0119534 0.0423635 0.00539268)
(0.0117406 0.0416065 -0.00373279)
(0.0116047 0.0411244 -0.013172)
(0.00879967 0.0442658 0.0151261)
(0.00858546 0.0431711 0.00539632)
(0.0084352 0.042399 -0.00373044)
(0.00834034 0.0419072 -0.0131711)
(0.00529161 0.0448275 0.0151367)
(0.00516667 0.0437195 0.00540624)
(0.00507854 0.0429377 -0.00372197)
(0.00502389 0.042439 -0.0131651)
(0.00175543 0.04512 0.0151566)
(0.00171893 0.0440044 0.00542629)
(0.00169058 0.0432167 -0.00370225)
(0.00167358 0.0427131 -0.0131477)
(0.0768109 0.00301001 0.0145627)
(0.075492 0.00296588 0.00450282)
(0.0741381 0.00291782 -0.00478643)
(0.0727243 0.0028724 -0.0145206)
(0.0763248 0.00902463 0.0145376)
(0.0750104 0.00887745 0.0044791)
(0.0736614 0.00872583 -0.0048091)
(0.0722537 0.00856922 -0.0145407)
(0.0753707 0.0149881 0.0145234)
(0.0740709 0.0147365 0.00446749)
(0.0727377 0.0144787 -0.00481758)
(0.0713472 0.0142099 -0.014545)
(0.0739581 0.0208625 0.0145157)
(0.0726827 0.0205065 0.00446326)
(0.0713742 0.0201422 -0.00481808)
(0.0700098 0.0197617 -0.0145413)
(0.0720996 0.0266131 0.0145123)
(0.0708573 0.026154 0.00446323)
(0.0695823 0.0256844 -0.00481445)
(0.0682527 0.0251937 -0.0145338)
(0.0698063 0.0322043 0.0145121)
(0.0686054 0.0316453 0.00446545)
(0.067372 0.0310736 -0.00480922)
(0.0660855 0.0304759 -0.0145255)
(0.0670895 0.0376003 0.0145141)
(0.0659372 0.0369464 0.00446861)
(0.0647528 0.0362773 -0.00480404)
(0.0635171 0.0355775 -0.0145185)
(0.0639609 0.0427652 0.0145175)
(0.0628635 0.0420226 0.00447184)
(0.0617348 0.0412615 -0.0047998)
(0.0605567 0.0404657 -0.0145136)
(0.0604346 0.0476636 0.0145212)
(0.0593973 0.0468386 0.00447454)
(0.0583303 0.0459919 -0.00479687)
(0.0572163 0.0451066 -0.0145107)
(0.0565274 0.0522612 0.0145239)
(0.0555554 0.05136 0.00447624)
(0.054556 0.050434 -0.00479532)
(0.053512 0.0494661 -0.0145095)
(0.0522612 0.0565274 0.0145239)
(0.05136 0.0555554 0.00447624)
(0.050434 0.054556 -0.00479532)
(0.0494661 0.0535119 -0.0145095)
(0.0476636 0.0604347 0.0145212)
(0.0468386 0.0593973 0.00447455)
(0.0459919 0.0583304 -0.00479687)
(0.0451067 0.0572163 -0.0145107)
(0.0427652 0.063961 0.0145175)
(0.0420226 0.0628635 0.00447185)
(0.0412616 0.0617348 -0.0047998)
(0.0404657 0.0605568 -0.0145136)
(0.0376003 0.0670895 0.0145141)
(0.0369464 0.0659372 0.00446862)
(0.0362773 0.0647529 -0.00480403)
(0.0355775 0.0635172 -0.0145185)
(0.0322043 0.0698064 0.0145121)
(0.0316453 0.0686055 0.00446546)
(0.0310737 0.0673721 -0.00480922)
(0.030476 0.0660856 -0.0145255)
(0.0266131 0.0720996 0.0145123)
(0.026154 0.0708573 0.00446325)
(0.0256844 0.0695824 -0.00481445)
(0.0251937 0.0682527 -0.0145338)
(0.0208625 0.0739581 0.0145157)
(0.0205065 0.0726827 0.00446328)
(0.0201422 0.0713743 -0.00481807)
(0.0197617 0.0700098 -0.0145413)
(0.0149881 0.0753707 0.0145234)
(0.0147365 0.074071 0.00446751)
(0.0144787 0.0727378 -0.00481758)
(0.0142099 0.0713473 -0.014545)
(0.00902463 0.0763248 0.0145376)
(0.00887746 0.0750104 0.00447912)
(0.00872584 0.0736615 -0.00480909)
(0.00856923 0.0722537 -0.0145407)
(0.00301001 0.0768109 0.0145627)
(0.00296588 0.0754921 0.00450284)
(0.00291782 0.0741382 -0.00478642)
(0.0028724 0.0727244 -0.0145206)
(0.106953 0.00420437 0.00822368)
(0.105393 0.0041511 0.00114649)
(0.10346 0.00408347 -0.00529485)
(0.101143 0.00401111 -0.012113)
(0.106278 0.012569 0.00820294)
(0.104721 0.0123971 0.00112871)
(0.102793 0.0121823 -0.00531051)
(0.100483 0.0119263 -0.0121256)
(0.104943 0.020859 0.00818916)
(0.103402 0.0205661 0.00112)
(0.101496 0.0202014 -0.00531429)
(0.0992136 0.0197634 -0.0121234)
(0.102964 0.0290236 0.00817895)
(0.10145 0.0286085 0.00111676)
(0.0995787 0.0280934 -0.00531099)
(0.0973385 0.0274748 -0.0121128)
(0.100362 0.0370153 0.00817105)
(0.0988849 0.0364781 0.00111677)
(0.09706 0.0358141 -0.0053036)
(0.0948761 0.0350172 -0.0120971)
(0.0971533 0.0447864 0.00816515)
(0.0957242 0.0441298 0.00111869)
(0.0939576 0.0433201 -0.00529427)
(0.0918438 0.0423492 -0.0120795)
(0.093358 0.052289 0.00816124)
(0.0919854 0.0515176 0.0011216)
(0.0902879 0.0505676 -0.0052847)
(0.0882573 0.0494292 -0.0120626)
(0.0889939 0.0594742 0.00815932)
(0.0876855 0.0585945 0.00112481)
(0.0860672 0.0575113 -0.00527622)
(0.0841317 0.0562138 -0.0120483)
(0.0840803 0.066293 0.00815912)
(0.0828428 0.0653123 0.00112771)
(0.081313 0.0641038 -0.00526983)
(0.0794836 0.0626573 -0.0120379)
(0.0786388 0.0726965 0.00815995)
(0.0774789 0.0716224 0.00112964)
(0.0760468 0.0702975 -0.00526631)
(0.0743342 0.0687125 -0.0120325)
(0.0726965 0.0786389 0.00815995)
(0.0716224 0.0774789 0.00112964)
(0.0702975 0.0760468 -0.00526631)
(0.0687126 0.0743342 -0.0120325)
(0.066293 0.0840804 0.00815912)
(0.0653123 0.0828428 0.00112772)
(0.0641039 0.081313 -0.00526983)
(0.0626573 0.0794836 -0.012038)
(0.0594742 0.088994 0.00815933)
(0.0585945 0.0876855 0.00112482)
(0.0575113 0.0860673 -0.00527622)
(0.0562138 0.0841317 -0.0120483)
(0.052289 0.093358 0.00816126)
(0.0515176 0.0919854 0.00112161)
(0.0505677 0.090288 -0.00528469)
(0.0494292 0.0882573 -0.0120626)
(0.0447864 0.0971533 0.00816517)
(0.0441298 0.0957243 0.0011187)
(0.0433201 0.0939576 -0.00529426)
(0.0423492 0.0918438 -0.0120795)
(0.0370153 0.100362 0.00817107)
(0.0364781 0.098885 0.00111678)
(0.0358141 0.0970601 -0.0053036)
(0.0350172 0.0948762 -0.0120971)
(0.0290236 0.102964 0.00817897)
(0.0286085 0.10145 0.00111678)
(0.0280934 0.0995787 -0.00531099)
(0.0274748 0.0973386 -0.0121128)
(0.020859 0.104943 0.00818919)
(0.0205662 0.103402 0.00112002)
(0.0202014 0.101496 -0.00531429)
(0.0197634 0.0992137 -0.0121234)
(0.012569 0.106278 0.00820297)
(0.0123971 0.104721 0.00112873)
(0.0121823 0.102793 -0.00531051)
(0.0119263 0.100483 -0.0121256)
(0.00420437 0.106953 0.00822371)
(0.0041511 0.105393 0.00114651)
(0.00408348 0.10346 -0.00529485)
(0.00401111 0.101143 -0.012113)
(0.121763 0.00478705 -0.00291593)
(0.120057 0.00472935 -0.00412278)
(0.11782 0.00465241 -0.00523536)
(0.11505 0.00456767 -0.00636452)
(0.120989 0.0142961 -0.00292138)
(0.119284 0.0141125 -0.00412507)
(0.117053 0.0138675 -0.00523497)
(0.114291 0.0135649 -0.00636111)
(0.119454 0.0237175 -0.00292872)
(0.117766 0.0234047 -0.00412653)
(0.11556 0.0229887 -0.00523123)
(0.112831 0.0224713 -0.0063516)
(0.11718 0.0329929 -0.00293744)
(0.11552 0.0325489 -0.00412696)
(0.113353 0.0319613 -0.00522437)
(0.110673 0.0312308 -0.0063366)
(0.114189 0.0420683 -0.00294693)
(0.112568 0.0414923 -0.00412629)
(0.110454 0.040734 -0.00521482)
(0.107842 0.0397928 -0.00631703)
(0.110506 0.0508904 -0.00295638)
(0.108936 0.0501838 -0.00412454)
(0.106889 0.0492578 -0.00520336)
(0.10436 0.0481099 -0.00629449)
(0.106155 0.059406 -0.00296485)
(0.104647 0.0585726 -0.00412191)
(0.10268 0.057484 -0.00519116)
(0.10025 0.056136 -0.00627123)
(0.101161 0.067562 -0.00297138)
(0.0997233 0.0666077 -0.00411874)
(0.0978487 0.0653635 -0.00517967)
(0.0955344 0.0638243 -0.00624995)
(0.0955495 0.0753054 -0.00297524)
(0.0941905 0.0742372 -0.0041156)
(0.0924199 0.072846 -0.00517049)
(0.0902344 0.0711266 -0.00623348)
(0.0893466 0.0825837 -0.0029764)
(0.088075 0.0814096 -0.00411342)
(0.0864196 0.079881 -0.00516526)
(0.0843765 0.0779933 -0.00622439)
(0.0825837 0.0893466 -0.0029764)
(0.0814096 0.088075 -0.00411342)
(0.079881 0.0864196 -0.00516526)
(0.0779933 0.0843764 -0.00622439)
(0.0753054 0.0955495 -0.00297523)
(0.0742372 0.0941905 -0.00411559)
(0.072846 0.0924199 -0.00517049)
(0.0711266 0.0902344 -0.00623348)
(0.067562 0.101161 -0.00297137)
(0.0666077 0.0997233 -0.00411873)
(0.0653635 0.0978488 -0.00517967)
(0.0638244 0.0955344 -0.00624996)
(0.059406 0.106155 -0.00296484)
(0.0585726 0.104647 -0.0041219)
(0.0574841 0.10268 -0.00519117)
(0.056136 0.10025 -0.00627124)
(0.0508904 0.110506 -0.00295636)
(0.0501838 0.108936 -0.00412453)
(0.0492579 0.106889 -0.00520336)
(0.0481099 0.10436 -0.0062945)
(0.0420683 0.114189 -0.00294691)
(0.0414923 0.112568 -0.00412628)
(0.0407341 0.110455 -0.00521482)
(0.0397928 0.107842 -0.00631704)
(0.0329929 0.11718 -0.00293742)
(0.0325489 0.11552 -0.00412695)
(0.0319613 0.113353 -0.00522437)
(0.0312309 0.110673 -0.00633661)
(0.0237175 0.119455 -0.00292869)
(0.0234047 0.117766 -0.00412651)
(0.0229888 0.11556 -0.00523123)
(0.0224713 0.112831 -0.00635161)
(0.0142961 0.120989 -0.00292135)
(0.0141125 0.119284 -0.00412506)
(0.0138675 0.117053 -0.00523497)
(0.0135649 0.114291 -0.00636112)
(0.00478705 0.121763 -0.00291591)
(0.00472935 0.120057 -0.00412276)
(0.00465242 0.11782 -0.00523536)
(0.00456767 0.11505 -0.00636453)
(0.113825 0.00446282 -0.0144722)
(0.112142 0.00440839 -0.00954252)
(0.110049 0.00433796 -0.00510529)
(0.107542 0.00426276 -0.000315188)
(0.113091 0.0133378 -0.0144595)
(0.11141 0.0131619 -0.00952813)
(0.109322 0.0129377 -0.00508891)
(0.106823 0.0126698 -0.000297146)
(0.11164 0.0221291 -0.0144564)
(0.109974 0.0218289 -0.00952127)
(0.107909 0.0214477 -0.00507904)
(0.105439 0.0209888 -0.000284527)
(0.109488 0.0307804 -0.0144583)
(0.10785 0.0303537 -0.00951788)
(0.105821 0.0298144 -0.00507112)
(0.103395 0.0291657 -0.000271792)
(0.106661 0.0392403 -0.0144632)
(0.10506 0.0386856 -0.00951561)
(0.10308 0.0379886 -0.00506284)
(0.100715 0.0371513 -0.000256851)
(0.103181 0.0474587 -0.0144695)
(0.10163 0.0467767 -0.00951331)
(0.0997128 0.0459238 -0.00505339)
(0.0974229 0.0449008 -0.000239277)
(0.0990766 0.0553875 -0.014476)
(0.0975856 0.0545806 -0.00951053)
(0.095744 0.0535755 -0.00504301)
(0.0935453 0.0523717 -0.000220074)
(0.0943742 0.0629796 -0.0144815)
(0.0929541 0.0620523 -0.00950728)
(0.0912005 0.0609008 -0.00503275)
(0.0891073 0.059523 -0.000201425)
(0.0891026 0.0701897 -0.014485)
(0.0877632 0.0691479 -0.00950407)
(0.0861093 0.0678571 -0.00502419)
(0.0841353 0.0663141 -0.000186283)
(0.0832917 0.0769742 -0.0144862)
(0.0820425 0.0758249 -0.00950187)
(0.0804994 0.0744032 -0.0050192)
(0.0786573 0.0727051 -0.000177678)
(0.0769742 0.0832917 -0.0144862)
(0.0758248 0.0820425 -0.00950186)
(0.0744032 0.0804994 -0.0050192)
(0.0727051 0.0786573 -0.00017768)
(0.0701897 0.0891027 -0.014485)
(0.0691479 0.0877632 -0.00950407)
(0.0678571 0.0861093 -0.00502419)
(0.0663142 0.0841353 -0.000186287)
(0.0629796 0.0943743 -0.0144815)
(0.0620523 0.0929541 -0.00950728)
(0.0609008 0.0912005 -0.00503275)
(0.059523 0.0891074 -0.000201432)
(0.0553875 0.0990767 -0.014476)
(0.0545806 0.0975856 -0.00951052)
(0.0535756 0.0957441 -0.00504302)
(0.0523718 0.0935453 -0.000220083)
(0.0474588 0.103181 -0.0144695)
(0.0467768 0.10163 -0.00951331)
(0.0459238 0.0997128 -0.00505339)
(0.0449009 0.097423 -0.000239288)
(0.0392403 0.106661 -0.0144632)
(0.0386857 0.10506 -0.00951561)
(0.0379886 0.103081 -0.00506284)
(0.0371514 0.100715 -0.000256862)
(0.0307804 0.109488 -0.0144583)
(0.0303537 0.10785 -0.00951787)
(0.0298144 0.105821 -0.00507112)
(0.0291657 0.103395 -0.000271804)
(0.0221291 0.11164 -0.0144563)
(0.0218289 0.109974 -0.00952126)
(0.0214477 0.107909 -0.00507904)
(0.0209888 0.105439 -0.000284539)
(0.0133378 0.113091 -0.0144595)
(0.013162 0.11141 -0.00952812)
(0.0129377 0.109323 -0.00508891)
(0.0126698 0.106823 -0.000297158)
(0.00446282 0.113825 -0.0144722)
(0.00440839 0.112142 -0.00954251)
(0.00433796 0.110049 -0.00510529)
(0.00426276 0.107542 -0.0003152)
(0.0889295 0.00346749 -0.0217807)
(0.087395 0.00342075 -0.0132409)
(0.0857681 0.00336756 -0.00542209)
(0.0840341 0.003317 0.00284808)
(0.0883452 0.0103894 -0.0217579)
(0.0868141 0.010233 -0.0132184)
(0.085192 0.0100641 -0.0053993)
(0.0834646 0.00988631 0.00287009)
(0.0871971 0.017246 -0.0217457)
(0.0856801 0.0169778 -0.0132065)
(0.0840751 0.0166897 -0.00538804)
(0.0823676 0.0163837 0.00287971)
(0.0854969 0.0239906 -0.0217389)
(0.0840039 0.0236092 -0.0132)
(0.0824264 0.0232005 -0.00538208)
(0.0807491 0.0227662 0.00288476)
(0.0832626 0.0305821 -0.021735)
(0.0818036 0.0300861 -0.013196)
(0.0802639 0.0295564 -0.00537789)
(0.0786278 0.0289938 0.00288884)
(0.0805151 0.0369809 -0.0217329)
(0.0791005 0.0363705 -0.0131927)
(0.0776093 0.0357206 -0.00537371)
(0.0760255 0.0350305 0.0028939)
(0.0772775 0.0431502 -0.0217317)
(0.075918 0.0424269 -0.0131895)
(0.0744859 0.0416587 -0.00536892)
(0.0729658 0.0408435 0.00290048)
(0.0735748 0.0490556 -0.0217309)
(0.072281 0.0482223 -0.0131862)
(0.0709187 0.0473395 -0.00536378)
(0.0694731 0.0464028 0.00290789)
(0.0694337 0.0546652 -0.0217301)
(0.0682158 0.0537264 -0.0131832)
(0.0669332 0.0527337 -0.00535921)
(0.0655724 0.0516805 0.00291455)
(0.0648823 0.0599498 -0.0217293)
(0.0637497 0.0589109 -0.0131813)
(0.0625561 0.0578144 -0.00535643)
(0.0612898 0.056651 0.00291856)
(0.0599498 0.0648824 -0.0217293)
(0.0589109 0.0637497 -0.0131813)
(0.0578144 0.0625561 -0.00535643)
(0.056651 0.0612898 0.00291856)
(0.0546652 0.0694338 -0.0217301)
(0.0537264 0.0682158 -0.0131832)
(0.0527337 0.0669332 -0.00535921)
(0.0516806 0.0655725 0.00291455)
(0.0490556 0.0735749 -0.0217309)
(0.0482224 0.072281 -0.0131862)
(0.0473395 0.0709187 -0.00536378)
(0.0464029 0.0694731 0.00290789)
(0.0431502 0.0772776 -0.0217317)
(0.0424269 0.0759181 -0.0131895)
(0.0416588 0.074486 -0.00536892)
(0.0408436 0.0729659 0.00290047)
(0.0369809 0.0805152 -0.0217329)
(0.0363705 0.0791006 -0.0131927)
(0.0357206 0.0776094 -0.00537371)
(0.0350306 0.0760256 0.00289389)
(0.0305821 0.0832628 -0.021735)
(0.0300862 0.0818038 -0.013196)
(0.0295565 0.080264 -0.0053779)
(0.0289939 0.0786279 0.00288883)
(0.0239907 0.085497 -0.0217389)
(0.0236092 0.084004 -0.0132)
(0.0232006 0.0824265 -0.00538208)
(0.0227662 0.0807492 0.00288475)
(0.017246 0.0871973 -0.0217457)
(0.0169778 0.0856802 -0.0132065)
(0.0166898 0.0840753 -0.00538804)
(0.0163838 0.0823678 0.0028797)
(0.0103894 0.0883454 -0.0217579)
(0.010233 0.0868143 -0.0132183)
(0.0100641 0.0851922 -0.0053993)
(0.00988634 0.0834648 0.00287008)
(0.0034675 0.0889297 -0.0217807)
(0.00342076 0.0873952 -0.0132408)
(0.00336756 0.0857682 -0.00542209)
(0.00331701 0.0840342 0.00284807)
(0.0600391 0.00232188 -0.0232015)
(0.0586867 0.0022823 -0.0144434)
(0.0575654 0.00224668 -0.00622974)
(0.0566493 0.00222125 0.00226252)
(0.0596351 0.00698722 -0.0231803)
(0.0582886 0.00685023 -0.0144241)
(0.0571723 0.00673784 -0.00621182)
(0.0562614 0.00665141 0.00227757)
(0.0588522 0.0116097 -0.0231649)
(0.0575185 0.011374 -0.0144125)
(0.0564137 0.0111815 -0.00620389)
(0.0555131 0.0110309 0.00228056)
(0.0576948 0.0161561 -0.0231523)
(0.0563824 0.0158211 -0.0144053)
(0.0552959 0.0155469 -0.00620154)
(0.0544105 0.015331 0.00227728)
(0.0561745 0.0205976 -0.0231413)
(0.0548921 0.0201627 -0.0144004)
(0.0538311 0.0198061 -0.00620189)
(0.0529667 0.0195239 0.00227087)
(0.0543056 0.0249072 -0.0231314)
(0.0530621 0.0243727 -0.0143966)
(0.0520341 0.0239337 -0.00620316)
(0.0511969 0.0235847 0.00226371)
(0.0521045 0.0290604 -0.0231226)
(0.0509092 0.0284274 -0.0143932)
(0.0499221 0.0279068 -0.00620431)
(0.0491187 0.0274912 0.00225738)
(0.0495897 0.033035 -0.0231152)
(0.0484523 0.0323056 -0.0143902)
(0.0475138 0.0317053 -0.00620491)
(0.0467508 0.0312241 0.00225268)
(0.0467816 0.0368113 -0.0231096)
(0.0457115 0.035989 -0.0143877)
(0.0448292 0.0353117 -0.006205)
(0.0441129 0.0347666 0.00224978)
(0.0437017 0.0403721 -0.0231064)
(0.0427077 0.0394612 -0.0143863)
(0.0418885 0.0387107 -0.00620488)
(0.0412248 0.0381045 0.00224846)
(0.040372 0.0437018 -0.0231064)
(0.0394612 0.0427077 -0.0143863)
(0.0387107 0.0418885 -0.00620488)
(0.0381045 0.0412248 0.00224846)
(0.0368113 0.0467817 -0.0231096)
(0.035989 0.0457116 -0.0143877)
(0.0353117 0.0448292 -0.006205)
(0.0347667 0.044113 0.00224978)
(0.033035 0.0495898 -0.0231152)
(0.0323057 0.0484524 -0.0143902)
(0.0317054 0.0475139 -0.00620491)
(0.0312242 0.0467508 0.00225268)
(0.0290604 0.0521046 -0.0231226)
(0.0284274 0.0509093 -0.0143932)
(0.0279069 0.0499221 -0.00620431)
(0.0274913 0.0491188 0.00225738)
(0.0249072 0.0543057 -0.0231314)
(0.0243727 0.0530622 -0.0143966)
(0.0239338 0.0520342 -0.00620316)
(0.0235848 0.051197 0.0022637)
(0.0205976 0.0561747 -0.0231413)
(0.0201627 0.0548922 -0.0144004)
(0.0198062 0.0538312 -0.0062019)
(0.0195239 0.0529668 0.00227086)
(0.0161562 0.0576949 -0.0231523)
(0.0158211 0.0563826 -0.0144053)
(0.015547 0.0552961 -0.00620154)
(0.015331 0.0544107 0.00227727)
(0.0116098 0.0588524 -0.0231648)
(0.011374 0.0575187 -0.0144124)
(0.0111815 0.0564139 -0.0062039)
(0.011031 0.0555132 0.00228056)
(0.00698724 0.0596353 -0.0231803)
(0.00685025 0.0582888 -0.0144241)
(0.00673786 0.0571725 -0.00621183)
(0.00665144 0.0562616 0.00227757)
(0.00232189 0.0600393 -0.0232015)
(0.00228231 0.0586869 -0.0144434)
(0.00224668 0.0575656 -0.00622974)
(0.00222126 0.0566495 0.00226251)
(0.037443 0.00143488 -0.0203362)
(0.0362578 0.00139996 -0.0136307)
(0.0354826 0.00137543 -0.00713155)
(0.0350865 0.00136519 -0.000608129)
(0.0371849 0.00434163 -0.020324)
(0.0360075 0.00421939 -0.0136209)
(0.0352377 0.00414276 -0.00712405)
(0.034846 0.004111 -0.0006042)
(0.0366957 0.00722354 -0.0203112)
(0.0355303 0.00701302 -0.0136134)
(0.0347685 0.00688137 -0.00712147)
(0.0343809 0.00682442 -0.000607406)
(0.0359746 0.010059 -0.0202984)
(0.0348285 0.00976054 -0.0136079)
(0.0340791 0.00957259 -0.00712248)
(0.0336974 0.00948877 -0.000615649)
(0.0350281 0.0128296 -0.0202856)
(0.0339086 0.0124436 -0.0136037)
(0.0331764 0.0121988 -0.00712577)
(0.0328029 0.012087 -0.000627244)
(0.033864 0.0155184 -0.0202731)
(0.0327786 0.0150456 -0.0136003)
(0.0320688 0.0147439 -0.00713018)
(0.0317064 0.0146032 -0.000640337)
(0.0324919 0.01811 -0.0202615)
(0.0314485 0.0175516 -0.0135975)
(0.0307665 0.0171935 -0.00713474)
(0.0304184 0.0170234 -0.00065318)
(0.0309232 0.0205902 -0.0202515)
(0.0299297 0.0199485 -0.0135951)
(0.029281 0.0195351 -0.00713873)
(0.0289507 0.0193352 -0.000664266)
(0.0291706 0.022947 -0.020244)
(0.028235 0.0222249 -0.0135933)
(0.0276251 0.0217578 -0.00714163)
(0.027316 0.0215285 -0.000672384)
(0.027248 0.0251696 -0.0202398)
(0.0263778 0.024371 -0.0135923)
(0.0258116 0.0238527 -0.00714314)
(0.0255269 0.0235949 -0.000676668)
(0.0251695 0.027248 -0.0202398)
(0.024371 0.0263778 -0.0135923)
(0.0238527 0.0258116 -0.00714314)
(0.0235949 0.0255269 -0.000676668)
(0.022947 0.0291707 -0.020244)
(0.0222249 0.0282351 -0.0135933)
(0.0217578 0.0276251 -0.00714163)
(0.0215286 0.027316 -0.000672384)
(0.0205903 0.0309233 -0.0202515)
(0.0199486 0.0299298 -0.0135951)
(0.0195351 0.0292811 -0.00713873)
(0.0193353 0.0289507 -0.000664267)
(0.01811 0.032492 -0.0202615)
(0.0175517 0.0314486 -0.0135975)
(0.0171936 0.0307666 -0.00713474)
(0.0170235 0.0304185 -0.000653182)
(0.0155185 0.0338641 -0.0202731)
(0.0150456 0.0327787 -0.0136003)
(0.014744 0.0320689 -0.00713018)
(0.0146033 0.0317066 -0.000640339)
(0.0128297 0.0350283 -0.0202856)
(0.0124436 0.0339087 -0.0136037)
(0.0121989 0.0331766 -0.00712577)
(0.012087 0.0328031 -0.000627246)
(0.010059 0.0359748 -0.0202984)
(0.00976059 0.0348287 -0.0136079)
(0.00957264 0.0340793 -0.00712248)
(0.00948884 0.0336975 -0.000615651)
(0.00722357 0.0366959 -0.0203112)
(0.00701305 0.0355305 -0.0136134)
(0.00688141 0.0347687 -0.00712147)
(0.00682448 0.0343811 -0.000607408)
(0.00434165 0.0371851 -0.020324)
(0.00421941 0.0360077 -0.0136209)
(0.00414278 0.0352379 -0.00712406)
(0.00411103 0.0348462 -0.000604202)
(0.00143489 0.0374432 -0.0203362)
(0.00139997 0.036258 -0.0136307)
(0.00137543 0.0354828 -0.00713155)
(0.0013652 0.0350867 -0.000608132)
(0.0243207 0.000927957 -0.0159706)
(0.0232865 0.000896183 -0.0118471)
(0.0226699 0.000875885 -0.00767541)
(0.0224427 0.0008697 -0.00364835)
(0.0241514 0.00281802 -0.0159678)
(0.0231251 0.00270797 -0.0118465)
(0.0225143 0.00264498 -0.007677)
(0.0222911 0.00262731 -0.00365289)
(0.0238376 0.00469337 -0.0159607)
(0.0228226 0.0045042 -0.0118441)
(0.0222183 0.00439623 -0.00767884)
(0.0219975 0.00436419 -0.00365933)
(0.0233767 0.00654009 -0.0159519)
(0.0223793 0.00627278 -0.0118414)
(0.021785 0.00611907 -0.00768182)
(0.0215671 0.00607122 -0.00366829)
(0.0227717 0.00834648 -0.0159422)
(0.0217981 0.00800199 -0.011839)
(0.0212176 0.00780249 -0.00768593)
(0.0210041 0.00773809 -0.0036794)
(0.0220265 0.0101013 -0.0159322)
(0.0210831 0.00968099 -0.0118368)
(0.0205202 0.00943608 -0.00769076)
(0.0203126 0.00935471 -0.00369168)
(0.021146 0.011794 -0.0159228)
(0.020239 0.0112997 -0.0118351)
(0.0196977 0.0110101 -0.0076957)
(0.0194978 0.0109115 -0.00370387)
(0.0201361 0.0134147 -0.0159146)
(0.0192719 0.0128488 -0.0118336)
(0.0187563 0.0125156 -0.00770011)
(0.018566 0.0123997 -0.00371462)
(0.0190038 0.0149543 -0.0159083)
(0.0181886 0.0143198 -0.0118325)
(0.0177029 0.0139446 -0.0077034)
(0.0175243 0.0138115 -0.00372265)
(0.0177571 0.0164044 -0.0159048)
(0.016997 0.0157049 -0.0118319)
(0.0165449 0.0152899 -0.00770515)
(0.01638 0.0151403 -0.00372695)
(0.0164044 0.0177571 -0.0159048)
(0.0157049 0.016997 -0.0118319)
(0.0152899 0.0165449 -0.00770515)
(0.0151404 0.01638 -0.00372695)
(0.0149543 0.0190039 -0.0159083)
(0.0143198 0.0181887 -0.0118325)
(0.0139446 0.0177029 -0.0077034)
(0.0138116 0.0175243 -0.00372265)
(0.0134147 0.0201362 -0.0159146)
(0.0128488 0.0192719 -0.0118336)
(0.0125157 0.0187564 -0.00770011)
(0.0123998 0.018566 -0.00371462)
(0.011794 0.0211461 -0.0159228)
(0.0112997 0.0202391 -0.0118351)
(0.0110102 0.0196978 -0.0076957)
(0.0109116 0.0194978 -0.00370387)
(0.0101013 0.0220266 -0.0159322)
(0.00968104 0.0210832 -0.0118368)
(0.00943615 0.0205203 -0.00769076)
(0.0093548 0.0203127 -0.00369168)
(0.00834653 0.0227719 -0.0159422)
(0.00800204 0.0217983 -0.011839)
(0.00780256 0.0212178 -0.00768593)
(0.00773818 0.0210042 -0.0036794)
(0.00654013 0.0233769 -0.0159519)
(0.00627283 0.0223794 -0.0118414)
(0.00611913 0.0217852 -0.00768182)
(0.00607129 0.0215673 -0.00366829)
(0.00469341 0.0238378 -0.0159607)
(0.00450424 0.0228228 -0.0118441)