/*--------------------------------*- C++ -*----------------------------------*\
| =========                 |                                                 |
| \\      /  F ield         | foam-extend: Open Source CFD                    |
|  \\    /   O peration     | Version:     3.1                                |
|   \\  /    A nd           | Web:         http://www.extend-project.de       |
|    \\/     M anipulation  |                                                 |
\*---------------------------------------------------------------------------*/
FoamFile
{
    version     2.0;
    format      ascii;
    class       volVectorField;
    location    "0.002";
    object      cellMotionU;
}
// * * * * * * * * * * * * * * * * * * * * * * * * * * * * * * * * * * * * * //

dimensions      [0 1 -1 0 0 0 0];

internalField   nonuniform List<vector> 
16000
(
(2.13305e-10 5.17323e-10 -4.53408e-08)
(7.07155e-10 5.24269e-10 -4.65186e-08)
(1.40067e-09 5.52945e-10 -4.88463e-08)
(2.4509e-09 6.06345e-10 -5.23534e-08)
(4.0492e-09 6.8179e-10 -5.71392e-08)
(6.45272e-09 7.80512e-10 -6.33629e-08)
(1.00301e-08 9.0172e-10 -7.12274e-08)
(1.5334e-08 1.04758e-09 -8.09683e-08)
(2.31979e-08 1.22931e-09 -9.27933e-08)
(3.49106e-08 1.4676e-09 -1.06821e-07)
(2.36344e-10 1.59936e-09 -4.61869e-08)
(7.84979e-10 1.63998e-09 -4.73402e-08)
(1.54422e-09 1.73357e-09 -4.9638e-08)
(2.66419e-09 1.89765e-09 -5.31081e-08)
(4.33568e-09 2.13557e-09 -5.78503e-08)
(6.80614e-09 2.44483e-09 -6.40139e-08)
(1.04198e-08 2.82857e-09 -7.17852e-08)
(1.56849e-08 3.30003e-09 -8.13941e-08)
(2.32923e-08 3.8766e-09 -9.29864e-08)
(3.41741e-08 4.60807e-09 -1.0656e-07)
(2.84595e-10 2.83337e-09 -4.78817e-08)
(9.33219e-10 2.91759e-09 -4.89913e-08)
(1.80872e-09 3.09408e-09 -5.12335e-08)
(3.06459e-09 3.37585e-09 -5.46397e-08)
(4.87951e-09 3.78908e-09 -5.92956e-08)
(7.49198e-09 4.34033e-09 -6.53469e-08)
(1.12271e-08 5.03563e-09 -7.29867e-08)
(1.65065e-08 5.89196e-09 -8.23777e-08)
(2.388e-08 6.94348e-09 -9.36139e-08)
(3.40224e-08 8.26026e-09 -1.06654e-07)
(3.48866e-10 4.38144e-09 -5.04565e-08)
(1.13695e-09 4.49751e-09 -5.15261e-08)
(2.16783e-09 4.75019e-09 -5.3692e-08)
(3.60969e-09 5.16199e-09 -5.70091e-08)
(5.64695e-09 5.76503e-09 -6.15709e-08)
(8.49598e-09 6.58839e-09 -6.7495e-08)
(1.24576e-08 7.65273e-09 -7.49589e-08)
(1.79213e-08 8.97811e-09 -8.41287e-08)
(2.53456e-08 1.06126e-08 -9.50489e-08)
(3.53127e-08 1.26616e-08 -1.07663e-07)
(4.22946e-10 6.44143e-09 -5.39943e-08)
(1.37343e-09 6.57147e-09 -5.50304e-08)
(2.59622e-09 6.86323e-09 -5.71218e-08)
(4.26578e-09 7.38724e-09 -6.03408e-08)
(6.58018e-09 8.19625e-09 -6.47878e-08)
(9.76368e-09 9.32414e-09 -7.05901e-08)
(1.40961e-08 1.08149e-08 -7.79094e-08)
(1.99408e-08 1.27092e-08 -8.68886e-08)
(2.77532e-08 1.50593e-08 -9.75886e-08)
(3.81142e-08 1.80036e-08 -1.09945e-07)
(5.01103e-10 9.283e-09 -5.86157e-08)
(1.62342e-09 9.38175e-09 -5.96176e-08)
(3.05923e-09 9.65041e-09 -6.16436e-08)
(5.00006e-09 1.02318e-08 -6.47801e-08)
(7.64337e-09 1.12372e-08 -6.9121e-08)
(1.12391e-08 1.27263e-08 -7.48227e-08)
(1.60769e-08 1.47129e-08 -8.20384e-08)
(2.24814e-08 1.72493e-08 -9.08782e-08)
(3.09341e-08 2.04606e-08 -1.01449e-07)
(4.20429e-08 2.44589e-08 -1.13671e-07)
(5.78545e-10 1.32946e-08 -6.44615e-08)
(1.87602e-09 1.32684e-08 -6.54284e-08)
(3.54223e-09 1.3397e-08 -6.74176e-08)
(5.79068e-09 1.39352e-08 -7.04924e-08)
(8.83448e-09 1.51038e-08 -7.4775e-08)
(1.29041e-08 1.69832e-08 -8.03885e-08)
(1.83183e-08 1.95765e-08 -8.75155e-08)
(2.54482e-08 2.28719e-08 -9.62931e-08)
(3.46646e-08 2.7021e-08 -1.06754e-07)
(4.65993e-08 3.21917e-08 -1.18829e-07)
(6.54724e-10 1.90588e-08 -7.16731e-08)
(2.13374e-09 1.87233e-08 -7.26182e-08)
(4.04434e-09 1.84513e-08 -7.45691e-08)
(6.63766e-09 1.87731e-08 -7.76183e-08)
(1.01516e-08 2.00436e-08 -8.18818e-08)
(1.48183e-08 2.23598e-08 -8.74819e-08)
(2.08909e-08 2.56464e-08 -9.45363e-08)
(2.87856e-08 2.98486e-08 -1.03232e-07)
(3.87218e-08 3.49017e-08 -1.13412e-07)
(5.13759e-08 4.12701e-08 -1.25206e-07)
(7.37822e-10 2.74582e-08 -8.03298e-08)
(2.40906e-09 2.63956e-08 -8.12494e-08)
(4.58991e-09 2.52229e-08 -8.31658e-08)
(7.57652e-09 2.50226e-08 -8.62204e-08)
(1.16484e-08 2.63453e-08 -9.0532e-08)
(1.70509e-08 2.92125e-08 -9.61988e-08)
(2.3996e-08 3.33476e-08 -1.03267e-07)
(3.26817e-08 3.84625e-08 -1.11735e-07)
(4.32191e-08 4.43374e-08 -1.21379e-07)
(5.62711e-08 5.16722e-08 -1.32513e-07)
(8.46603e-10 3.98926e-08 -9.03643e-08)
(2.74703e-09 3.71104e-08 -9.12462e-08)
(5.23597e-09 3.41098e-08 -9.31713e-08)
(8.69159e-09 3.29488e-08 -9.62932e-08)
(1.34505e-08 3.43303e-08 -1.0073e-07)
(1.97779e-08 3.79954e-08 -1.06547e-07)
(2.78489e-08 4.32709e-08 -1.13704e-07)
(3.76848e-08 4.94581e-08 -1.21994e-07)
(4.90647e-08 5.60416e-08 -1.31013e-07)
(6.16564e-08 6.31325e-08 -1.40425e-07)
(2.41208e-10 1.15878e-09 -1.27371e-07)
(8.77838e-10 1.18271e-09 -1.30508e-07)
(1.97057e-09 1.2618e-09 -1.36701e-07)
(3.84411e-09 1.40033e-09 -1.46008e-07)
(6.87391e-09 1.5878e-09 -1.58671e-07)
(1.15446e-08 1.82019e-09 -1.75096e-07)
(1.85263e-08 2.08513e-09 -1.95821e-07)
(2.87952e-08 2.37209e-09 -2.21522e-07)
(4.37848e-08 2.68338e-09 -2.52923e-07)
(6.56722e-08 3.02744e-09 -2.90783e-07)
(3.1466e-10 3.58299e-09 -1.29606e-07)
(1.11019e-09 3.69729e-09 -1.32666e-07)
(2.37764e-09 3.95005e-09 -1.3876e-07)
(4.43742e-09 4.37341e-09 -1.47943e-07)
(7.66692e-09 4.96245e-09 -1.6046e-07)
(1.25278e-08 5.69047e-09 -1.76689e-07)
(1.96355e-08 6.53273e-09 -1.97122e-07)
(2.98615e-08 7.47272e-09 -2.22412e-07)
(4.43127e-08 8.48206e-09 -2.53093e-07)
(6.43607e-08 9.57069e-09 -2.89524e-07)
(4.52219e-10 6.34755e-09 -1.34081e-07)
(1.53217e-09 6.56951e-09 -1.37005e-07)
(3.11858e-09 7.02944e-09 -1.42913e-07)
(5.54115e-09 7.74872e-09 -1.51877e-07)
(9.16137e-09 8.76665e-09 -1.64107e-07)
(1.4424e-08 1.0064e-08 -1.7997e-07)
(2.18971e-08 1.16004e-08 -1.99972e-07)
(3.22608e-08 1.33369e-08 -2.24578e-07)
(4.63084e-08 1.52414e-08 -2.54158e-07)
(6.48311e-08 1.73158e-08 -2.88897e-07)
(6.27622e-10 9.81151e-09 -1.40863e-07)
(2.08377e-09 1.01059e-08 -1.43654e-07)
(4.0898e-09 1.07442e-08 -1.49311e-07)
(7.01062e-09 1.17741e-08 -1.57971e-07)
(1.12218e-08 1.32479e-08 -1.6987e-07)
(1.71284e-08 1.51839e-08 -1.85304e-07)
(2.525e-08 1.75515e-08 -2.04734e-07)
(3.61929e-08 2.02844e-08 -2.28629e-07)
(5.05601e-08 2.33415e-08 -2.57211e-07)
(6.89688e-08 2.67559e-08 -2.90595e-07)
(8.17176e-10 1.44065e-08 -1.50156e-07)
(2.68769e-09 1.47174e-08 -1.52828e-07)
(5.18385e-09 1.5426e-08 -1.58228e-07)
(8.69481e-09 1.67028e-08 -1.66548e-07)
(1.3629e-08 1.86531e-08 -1.78045e-07)
(2.04091e-08 2.12972e-08 -1.93049e-07)
(2.95166e-08 2.46287e-08 -2.11981e-07)
(4.15097e-08 2.85874e-08 -2.35248e-07)
(5.69877e-08 3.3091e-08 -2.63119e-07)
(7.661e-08 3.81962e-08 -2.95678e-07)
(9.97617e-10 2.07128e-08 -1.62272e-07)
(3.26809e-09 2.09088e-08 -1.64816e-07)
(6.26947e-09 2.1503e-08 -1.69974e-07)
(1.04378e-08 2.28624e-08 -1.77982e-07)
(1.6188e-08 2.52406e-08 -1.89091e-07)
(2.39994e-08 2.87067e-08 -2.03713e-07)
(3.43697e-08 3.31556e-08 -2.22261e-07)
(4.77763e-08 3.84989e-08 -2.45062e-07)
(6.48809e-08 4.47483e-08 -2.72512e-07)
(8.6407e-08 5.18326e-08 -3.04682e-07)
(1.14637e-09 2.95552e-08 -1.77589e-07)
(3.76364e-09 2.93702e-08 -1.79994e-07)
(7.24947e-09 2.95051e-08 -1.84971e-07)
(1.21e-08 3.06506e-08 -1.92709e-07)
(1.87693e-08 3.33408e-08 -2.03547e-07)
(2.76928e-08 3.76772e-08 -2.17826e-07)
(3.9421e-08 4.34791e-08 -2.36046e-07)
(5.45145e-08 5.04504e-08 -2.58627e-07)
(7.33844e-08 5.85784e-08 -2.85788e-07)
(9.67685e-08 6.78093e-08 -3.17668e-07)
(1.24781e-09 4.21582e-08 -1.96536e-07)
(4.13508e-09 4.10675e-08 -1.98818e-07)
(8.04765e-09 4.00101e-08 -2.03582e-07)
(1.35758e-08 4.04356e-08 -2.11124e-07)
(2.12305e-08 4.32428e-08 -2.2179e-07)
(3.14416e-08 4.85393e-08 -2.35935e-07)
(4.45983e-08 5.58847e-08 -2.53909e-07)
(6.13282e-08 6.47871e-08 -2.76284e-07)
(8.16969e-08 7.46951e-08 -3.02815e-07)
(1.06446e-07 8.60476e-08 -3.34203e-07)
(1.30002e-09 6.03658e-08 -2.19493e-07)
(4.3538e-09 5.72058e-08 -2.21592e-07)
(8.62711e-09 5.35641e-08 -2.26095e-07)
(1.48199e-08 5.24086e-08 -2.33484e-07)
(2.35296e-08 5.51543e-08 -2.44149e-07)
(3.51954e-08 6.16611e-08 -2.58399e-07)
(5.00907e-08 7.09031e-08 -2.76416e-07)
(6.83483e-08 8.17513e-08 -2.98303e-07)
(8.97843e-08 9.32467e-08 -3.23663e-07)
(1.15044e-07 1.06238e-07 -3.53709e-07)
(1.31374e-09 8.71281e-08 -2.46707e-07)
(4.43868e-09 7.91684e-08 -2.4845e-07)
(8.99051e-09 7.03705e-08 -2.52666e-07)
(1.58578e-08 6.64179e-08 -2.59993e-07)
(2.57482e-08 6.90997e-08 -2.70851e-07)
(3.91028e-08 7.74198e-08 -2.85474e-07)
(5.60661e-08 8.9216e-08 -3.03833e-07)
(7.63745e-08 1.02307e-07 -3.25514e-07)
(9.91925e-08 1.15104e-07 -3.4963e-07)
(1.23318e-07 1.27483e-07 -3.75562e-07)
(-6.11044e-10 9.32063e-10 -1.89799e-07)
(-1.68204e-09 9.85927e-10 -1.93936e-07)
(-2.30842e-09 1.11182e-09 -2.02094e-07)
(-2.27101e-09 1.30627e-09 -2.1428e-07)
(-1.36418e-09 1.54847e-09 -2.30732e-07)
(6.44622e-10 1.81787e-09 -2.51872e-07)
(4.04905e-09 2.07873e-09 -2.78264e-07)
(9.26653e-09 2.28852e-09 -3.1063e-07)
(1.69307e-08 2.40525e-09 -3.49768e-07)
(2.80995e-08 2.36985e-09 -3.96617e-07)
(-4.71519e-10 2.89427e-09 -1.92684e-07)
(-1.27857e-09 3.08545e-09 -1.96688e-07)
(-1.65892e-09 3.47147e-09 -2.04677e-07)
(-1.35359e-09 4.06055e-09 -2.16633e-07)
(-1.44373e-10 4.81515e-09 -2.32804e-07)
(2.17972e-09 5.65963e-09 -2.53579e-07)
(5.86526e-09 6.49799e-09 -2.79457e-07)
(1.12208e-08 7.2175e-09 -3.11116e-07)
(1.85475e-08 7.66235e-09 -3.4909e-07)
(2.80846e-08 7.66619e-09 -3.93736e-07)
(-2.49463e-10 5.16348e-09 -1.98461e-07)
(-5.99068e-10 5.48901e-09 -2.02241e-07)
(-4.9607e-10 6.14403e-09 -2.09885e-07)
(3.31768e-10 7.12745e-09 -2.21418e-07)
(2.13109e-09 8.42146e-09 -2.37042e-07)
(5.11237e-09 9.92597e-09 -2.57128e-07)
(9.47249e-09 1.14825e-08 -2.82189e-07)
(1.53577e-08 1.2893e-08 -3.12646e-07)
(2.27798e-08 1.39235e-08 -3.4879e-07)
(3.13928e-08 1.43179e-08 -3.90691e-07)
(1.57451e-11 8.04947e-09 -2.07176e-07)
(2.22627e-10 8.45398e-09 -2.10718e-07)
(9.49244e-10 9.31492e-09 -2.17888e-07)
(2.50684e-09 1.06729e-08 -2.28826e-07)
(5.16276e-09 1.25259e-08 -2.43771e-07)
(9.13319e-09 1.47754e-08 -2.63003e-07)
(1.45993e-08 1.72205e-08 -2.86968e-07)
(2.16456e-08 1.95713e-08 -3.16082e-07)
(3.01583e-08 2.15169e-08 -3.50429e-07)
(3.97192e-08 2.27683e-08 -3.89948e-07)
(2.74699e-10 1.19255e-08 -2.19036e-07)
(1.04269e-09 1.23164e-08 -2.22332e-07)
(2.43266e-09 1.32223e-08 -2.28992e-07)
(4.81382e-09 1.48385e-08 -2.39237e-07)
(8.49678e-09 1.72393e-08 -2.53349e-07)
(1.37219e-08 2.03143e-08 -2.71657e-07)
(2.06807e-08 2.38191e-08 -2.94554e-07)
(2.94686e-08 2.73887e-08 -3.22366e-07)
(4.00043e-08 3.05912e-08 -3.55229e-07)
(5.20596e-08 3.31023e-08 -3.93042e-07)
(4.77373e-10 1.72952e-08 -2.34366e-07)
(1.70255e-09 1.74738e-08 -2.37386e-07)
(3.69094e-09 1.81388e-08 -2.4352e-07)
(6.88683e-09 1.97661e-08 -2.53063e-07)
(1.16412e-08 2.26198e-08 -2.66305e-07)
(1.82578e-08 2.66257e-08 -2.83691e-07)
(2.69458e-08 3.13833e-08 -3.05617e-07)
(3.77743e-08 3.63811e-08 -3.32311e-07)
(5.07901e-08 4.11575e-08 -3.64043e-07)
(6.58861e-08 4.51871e-08 -4.00725e-07)
(5.73832e-10 2.48881e-08 -2.53559e-07)
(2.05292e-09 2.44607e-08 -2.56263e-07)
(4.47384e-09 2.43518e-08 -2.61901e-07)
(8.37584e-09 2.55483e-08 -2.70742e-07)
(1.41715e-08 2.86799e-08 -2.83212e-07)
(2.21432e-08 3.36725e-08 -2.99686e-07)
(3.25421e-08 3.99455e-08 -3.20679e-07)
(4.54951e-08 4.66642e-08 -3.46548e-07)
(6.0857e-08 5.31757e-08 -3.77352e-07)
(7.85331e-08 5.88321e-08 -4.13095e-07)
(5.17476e-10 3.58246e-08 -2.77059e-07)
(1.95755e-09 3.40051e-08 -2.79424e-07)
(4.54653e-09 3.20529e-08 -2.84466e-07)
(8.95286e-09 3.20666e-08 -2.92631e-07)
(1.56648e-08 3.52059e-08 -3.04394e-07)
(2.49579e-08 4.13325e-08 -3.2018e-07)
(3.69216e-08 4.94061e-08 -3.40336e-07)
(5.17021e-08 5.81979e-08 -3.65407e-07)
(6.88115e-08 6.64311e-08 -3.94977e-07)
(8.80639e-08 7.36871e-08 -4.29658e-07)
(2.66783e-10 5.18844e-08 -3.05273e-07)
(1.28191e-09 4.69622e-08 -3.07148e-07)
(3.70296e-09 4.11455e-08 -3.11424e-07)
(8.34831e-09 3.8749e-08 -3.18876e-07)
(1.57993e-08 4.16526e-08 -3.30081e-07)
(2.63224e-08 4.92899e-08 -3.45431e-07)
(3.98637e-08 5.97139e-08 -3.65096e-07)
(5.6082e-08 7.07683e-08 -3.8911e-07)
(7.4217e-08 8.06472e-08 -4.16927e-07)
(9.38803e-08 8.91995e-08 -4.49742e-07)
(-2.21598e-10 7.61542e-08 -3.38553e-07)
(-9.15859e-11 6.41492e-08 -3.39539e-07)
(1.74637e-09 5.07065e-08 -3.42821e-07)
(6.33912e-09 4.41951e-08 -3.49534e-07)
(1.43766e-08 4.69647e-08 -3.6035e-07)
(2.60743e-08 5.70509e-08 -3.75566e-07)
(4.11855e-08 7.07725e-08 -3.95101e-07)
(5.89764e-08 8.45626e-08 -4.18433e-07)
(7.81477e-08 9.59326e-08 -4.44526e-07)
(9.69328e-08 1.04252e-07 -4.72627e-07)
(-2.27343e-09 -1.33509e-10 -2.27386e-07)
(-6.73584e-09 -2.58374e-11 -2.31494e-07)
(-1.09224e-08 1.66777e-10 -2.39549e-07)
(-1.48828e-08 4.25525e-10 -2.51455e-07)
(-1.87722e-08 7.21674e-10 -2.67321e-07)
(-2.2818e-08 1.01615e-09 -2.87363e-07)
(-2.73327e-08 1.25285e-09 -3.11849e-07)
(-3.2698e-08 1.36228e-09 -3.41089e-07)
(-3.9274e-08 1.26501e-09 -3.7533e-07)
(-4.71835e-08 8.5235e-10 -4.14799e-07)
(-2.04224e-09 -3.55466e-10 -2.30153e-07)
(-6.12012e-09 -4.94915e-11 -2.34096e-07)
(-1.00031e-08 5.1947e-10 -2.41898e-07)
(-1.36187e-08 1.29756e-09 -2.53448e-07)
(-1.7097e-08 2.20869e-09 -2.68881e-07)
(-2.06708e-08 3.13042e-09 -2.88377e-07)
(-2.46627e-08 3.89826e-09 -3.12134e-07)
(-2.95294e-08 4.31384e-09 -3.40405e-07)
(-3.58697e-08 4.12816e-09 -3.73178e-07)
(-4.44255e-08 3.0536e-09 -4.10108e-07)
(-1.72186e-09 -4.45422e-10 -2.35678e-07)
(-5.13485e-09 1.19611e-11 -2.39314e-07)
(-8.36205e-09 9.06994e-10 -2.46597e-07)
(-1.13112e-08 2.18725e-09 -2.57499e-07)
(-1.39916e-08 3.73769e-09 -2.72099e-07)
(-1.65978e-08 5.37052e-09 -2.90556e-07)
(-1.94822e-08 6.81696e-09 -3.13075e-07)
(-2.31479e-08 7.7419e-09 -3.39658e-07)
(-2.83454e-08 7.76326e-09 -3.70038e-07)
(-3.62521e-08 6.46808e-09 -4.0357e-07)
(-1.35694e-09 -3.13125e-10 -2.43939e-07)
(-4.01581e-09 2.30432e-10 -2.47209e-07)
(-6.40064e-09 1.34961e-09 -2.53788e-07)
(-8.38869e-09 3.05866e-09 -2.6377e-07)
(-9.9537e-09 5.2618e-09 -2.77278e-07)
(-1.11854e-08 7.70778e-09 -2.94388e-07)
(-1.23711e-08 1.00242e-08 -3.15234e-07)
(-1.40221e-08 1.17385e-08 -3.39798e-07)
(-1.68563e-08 1.23484e-08 -3.67616e-07)
(-2.19366e-08 1.13851e-08 -3.97899e-07)
(-1.02439e-09 1.79782e-10 -2.55048e-07)
(-2.97367e-09 6.90747e-10 -2.57913e-07)
(-4.5307e-09 1.8557e-09 -2.63696e-07)
(-5.46639e-09 3.83972e-09 -2.72574e-07)
(-5.70099e-09 6.64767e-09 -2.84726e-07)
(-5.28826e-09 1.00086e-08 -3.00301e-07)
(-4.39761e-09 1.34137e-08 -3.19374e-07)
(-3.40398e-09 1.62318e-08 -3.41828e-07)
(-2.92543e-09 1.78062e-08 -3.67246e-07)
(-3.64308e-09 1.76232e-08 -3.94814e-07)
(-8.03615e-10 1.26531e-09 -2.69183e-07)
(-2.25049e-09 1.50889e-09 -2.71587e-07)
(-3.14175e-09 2.37814e-09 -2.76492e-07)
(-3.1421e-09 4.36599e-09 -2.84169e-07)
(-2.0706e-09 7.67069e-09 -2.9484e-07)
(8.5648e-11 1.20395e-08 -3.0877e-07)
(3.18467e-09 1.67887e-08 -3.26064e-07)
(6.96209e-09 2.10113e-08 -3.46519e-07)
(1.10478e-08 2.38887e-08 -3.69782e-07)
(1.49543e-08 2.47494e-08 -3.95112e-07)
(-7.70011e-10 3.36341e-09 -2.86518e-07)
(-2.08344e-09 2.87834e-09 -2.88384e-07)
(-2.64021e-09 2.80789e-09 -2.92363e-07)
(-1.97389e-09 4.30478e-09 -2.9875e-07)
(1.92459e-10 7.95306e-09 -3.07932e-07)
(3.91656e-09 1.34452e-08 -3.20154e-07)
(9.09019e-09 1.98337e-08 -3.35623e-07)
(1.54686e-08 2.58535e-08 -3.54275e-07)
(2.26906e-08 3.03153e-08 -3.75583e-07)
(3.03418e-08 3.23639e-08 -3.98866e-07)
(-9.97966e-10 7.26531e-09 -3.07186e-07)
(-2.70052e-09 5.1054e-09 -3.08432e-07)
(-3.40616e-09 2.85416e-09 -3.11301e-07)
(-2.48869e-09 3.00585e-09 -3.16317e-07)
(4.27732e-10 6.77829e-09 -3.23976e-07)
(5.41921e-09 1.37083e-08 -3.34602e-07)
(1.22915e-08 2.22037e-08 -3.48303e-07)
(2.07733e-08 3.04687e-08 -3.65145e-07)
(3.0236e-08 3.6758e-08 -3.84367e-07)
(4.01863e-08 4.01307e-08 -4.05617e-07)
(-1.56498e-09 1.45007e-08 -3.31187e-07)
(-4.31846e-09 8.61317e-09 -3.31585e-07)
(-5.7786e-09 1.81287e-09 -3.33059e-07)
(-5.12817e-09 -7.41605e-10 -3.36547e-07)
(-1.88661e-09 3.00348e-09 -3.42708e-07)
(4.01632e-09 1.20006e-08 -3.51873e-07)
(1.22661e-08 2.35127e-08 -3.64034e-07)
(2.22487e-08 3.45854e-08 -3.7894e-07)
(3.30669e-08 4.29243e-08 -3.95817e-07)
(4.39589e-08 4.7705e-08 -4.14688e-07)
(-2.55596e-09 2.82078e-08 -3.58372e-07)
(-7.15258e-09 1.37966e-08 -3.574e-07)
(-1.00804e-08 -2.05466e-09 -3.5707e-07)
(-1.02628e-08 -9.19003e-09 -3.58851e-07)
(-7.09508e-09 -5.07599e-09 -3.63562e-07)
(-5.73985e-10 7.40535e-09 -3.71444e-07)
(8.78364e-09 2.3346e-08 -3.82289e-07)
(2.00637e-08 3.81634e-08 -3.95508e-07)
(3.20037e-08 4.88253e-08 -4.10148e-07)
(4.29972e-08 5.4461e-08 -4.25322e-07)
(-4.32849e-09 -1.65485e-09 -2.41281e-07)
(-1.29618e-08 -1.46518e-09 -2.44653e-07)
(-2.14592e-08 -1.17086e-09 -2.51205e-07)
(-3.01301e-08 -8.02289e-10 -2.60785e-07)
(-3.94514e-08 -3.94311e-10 -2.73356e-07)
(-5.00189e-08 1.59277e-13 -2.88908e-07)
(-6.25853e-08 3.1502e-10 -3.07404e-07)
(-7.80671e-08 4.68904e-10 -3.28759e-07)
(-9.74333e-08 3.66548e-10 -3.52776e-07)
(-1.21488e-07 -1.16851e-10 -3.79227e-07)
(-3.98147e-09 -4.97764e-09 -2.4345e-07)
(-1.20762e-08 -4.49465e-09 -2.4663e-07)
(-2.01915e-08 -3.63276e-09 -2.52852e-07)
(-2.84193e-08 -2.52491e-09 -2.61977e-07)
(-3.71934e-08 -1.28208e-09 -2.73988e-07)
(-4.70948e-08 -5.53227e-11 -2.88845e-07)
(-5.8842e-08 9.51316e-10 -3.06446e-07)
(-7.33809e-08 1.49887e-09 -3.26634e-07)
(-9.1812e-08 1.30723e-09 -3.48977e-07)
(-1.15324e-07 5.09868e-11 -3.72714e-07)
(-3.52931e-09 -8.34814e-09 -2.4775e-07)
(-1.06856e-08 -7.67455e-09 -2.50559e-07)
(-1.7918e-08 -6.36337e-09 -2.56136e-07)
(-2.52922e-08 -4.54627e-09 -2.6442e-07)
(-3.30104e-08 -2.44216e-09 -2.75355e-07)
(-4.15681e-08 -3.00371e-10 -2.88887e-07)
(-5.16865e-08 1.55004e-09 -3.04902e-07)
(-6.4233e-08 2.70745e-09 -3.23034e-07)
(-8.03094e-08 2.73827e-09 -3.42602e-07)
(-1.01377e-07 1.19538e-09 -3.6253e-07)
(-3.01886e-09 -1.19194e-08 -2.54128e-07)
(-9.13369e-09 -1.11123e-08 -2.56468e-07)
(-1.52212e-08 -9.49383e-09 -2.6116e-07)
(-2.13258e-08 -7.09492e-09 -2.68243e-07)
(-2.76002e-08 -4.11219e-09 -2.77725e-07)
(-3.43194e-08 -9.31834e-10 -2.89495e-07)
(-4.20508e-08 1.96581e-09 -3.03374e-07)
(-5.16151e-08 4.0268e-09 -3.18965e-07)
(-6.39351e-08 4.68088e-09 -3.35423e-07)
(-8.02001e-08 3.4326e-09 -3.5153e-07)
(-2.55279e-09 -1.57986e-08 -2.62607e-07)
(-7.6907e-09 -1.49874e-08 -2.64407e-07)
(-1.26752e-08 -1.3225e-08 -2.68051e-07)
(-1.73914e-08 -1.04134e-08 -2.7367e-07)
(-2.19323e-08 -6.62791e-09 -2.81349e-07)
(-2.65284e-08 -2.2777e-09 -2.91062e-07)
(-3.15121e-08 1.93041e-09 -3.02592e-07)
(-3.74448e-08 5.22118e-09 -3.1545e-07)
(-4.51061e-08 6.87246e-09 -3.28842e-07)
(-5.51756e-08 6.35671e-09 -3.4157e-07)
(-2.23488e-09 -2.00101e-08 -2.73216e-07)
(-6.66631e-09 -1.94373e-08 -2.74387e-07)
(-1.07663e-08 -1.78791e-08 -2.76833e-07)
(-1.42871e-08 -1.48974e-08 -2.80803e-07)
(-1.7158e-08 -1.04025e-08 -2.8647e-07)
(-1.95444e-08 -4.79934e-09 -2.93922e-07)
(-2.17524e-08 1.03369e-09 -3.0301e-07)
(-2.41002e-08 5.92702e-09 -3.13204e-07)
(-2.70129e-08 8.89613e-09 -3.23713e-07)
(-3.09741e-08 9.32664e-09 -3.33512e-07)
(-2.15731e-09 -2.43945e-08 -2.85924e-07)
(-6.36132e-09 -2.45358e-08 -2.86349e-07)
(-1.00177e-08 -2.38593e-08 -2.87457e-07)
(-1.27225e-08 -2.11812e-08 -2.89595e-07)
(-1.42772e-08 -1.6055e-08 -2.93133e-07)
(-1.4738e-08 -9.01254e-09 -2.98214e-07)
(-1.43919e-08 -1.24826e-09 -3.04777e-07)
(-1.3595e-08 5.72167e-09 -3.12434e-07)
(-1.2585e-08 1.03636e-08 -3.20327e-07)
(-1.1747e-08 1.18473e-08 -3.2751e-07)
(-2.4112e-09 -2.84087e-08 -3.00617e-07)
(-7.06198e-09 -3.02766e-08 -3.00142e-07)
(-1.09032e-08 -3.17639e-08 -2.99642e-07)
(-1.33515e-08 -3.02392e-08 -2.99753e-07)
(-1.40955e-08 -2.45898e-08 -3.01033e-07)
(-1.31508e-08 -1.56032e-08 -3.03756e-07)
(-1.08217e-08 -5.28292e-09 -3.07859e-07)
(-7.54395e-09 4.25116e-09 -3.13028e-07)
(-3.81927e-09 1.09772e-08 -3.18486e-07)
(-6.7065e-11 1.3707e-08 -3.23341e-07)
(-3.0949e-09 -3.06766e-08 -3.1704e-07)
(-9.02556e-09 -3.64888e-08 -3.15347e-07)
(-1.38317e-08 -4.26349e-08 -3.12825e-07)
(-1.67086e-08 -4.36126e-08 -3.10634e-07)
(-1.72329e-08 -3.74473e-08 -3.09574e-07)
(-1.54283e-08 -2.56423e-08 -3.09987e-07)
(-1.1712e-08 -1.15231e-08 -3.11793e-07)
(-6.75704e-09 1.42098e-09 -3.14618e-07)
(-1.3765e-09 1.06212e-08 -3.17801e-07)
(3.6829e-09 1.48811e-08 -3.20587e-07)
(-4.31178e-09 -2.79732e-08 -3.34857e-07)
(-1.25121e-08 -4.29592e-08 -3.31264e-07)
(-1.91795e-08 -5.86324e-08 -3.26096e-07)
(-2.32258e-08 -6.39793e-08 -3.21268e-07)
(-2.40845e-08 -5.66077e-08 -3.17834e-07)
(-2.18614e-08 -4.01697e-08 -3.16071e-07)
(-1.72028e-08 -2.046e-08 -3.15773e-07)
(-1.10472e-08 -2.76344e-09 -3.16503e-07)
(-4.47825e-09 9.51968e-09 -3.17712e-07)
(1.21195e-09 1.53426e-08 -3.18771e-07)
(-6.35543e-09 -3.20656e-09 -2.36533e-07)
(-1.90598e-08 -2.91698e-09 -2.3893e-07)
(-3.16367e-08 -2.4883e-09 -2.43567e-07)
(-4.45409e-08 -1.96123e-09 -2.50296e-07)
(-5.84114e-08 -1.37325e-09 -2.59035e-07)
(-7.39847e-08 -7.83855e-10 -2.69693e-07)
(-9.21367e-08 -2.58093e-10 -2.8214e-07)
(-1.13897e-07 1.26108e-10 -2.96205e-07)
(-1.40335e-07 2.79543e-10 -3.11679e-07)
(-1.72395e-07 9.03974e-11 -3.28488e-07)
(-5.87621e-09 -9.66499e-09 -2.37995e-07)
(-1.78538e-08 -8.94994e-09 -2.40186e-07)
(-2.99396e-08 -7.69377e-09 -2.44456e-07)
(-4.22722e-08 -6.10521e-09 -2.50677e-07)
(-5.54287e-08 -4.32044e-09 -2.5878e-07)
(-7.01122e-08 -2.49887e-09 -2.68653e-07)
(-8.71224e-08 -8.50498e-10 -2.801e-07)
(-1.0747e-07 3.9381e-10 -2.92852e-07)
(-1.32257e-07 9.77104e-10 -3.06457e-07)
(-1.62595e-07 6.02913e-10 -3.2025e-07)
(-5.25939e-09 -1.62699e-08 -2.40898e-07)
(-1.59608e-08 -1.52853e-08 -2.42691e-07)
(-2.68718e-08 -1.33772e-08 -2.46246e-07)
(-3.81015e-08 -1.07588e-08 -2.51509e-07)
(-4.98888e-08 -7.74043e-09 -2.58395e-07)
(-6.28034e-08 -4.59963e-09 -2.6677e-07)
(-7.76193e-08 -1.66982e-09 -2.76413e-07)
(-9.51675e-08 6.54596e-10 -2.86861e-07)
(-1.16424e-07 1.9724e-09 -2.97384e-07)
(-1.42621e-07 1.89002e-09 -3.06916e-07)
(-4.5516e-09 -2.33519e-08 -2.4521e-07)
(-1.38204e-08 -2.21358e-08 -2.46481e-07)
(-2.31833e-08 -1.97411e-08 -2.49044e-07)
(-3.27401e-08 -1.62544e-08 -2.52936e-07)
(-4.26692e-08 -1.19672e-08 -2.58146e-07)
(-5.32158e-08 -7.36043e-09 -2.64515e-07)
(-6.49246e-08 -2.94425e-09 -2.71751e-07)
(-7.8539e-08 7.45291e-10 -2.79343e-07)
(-9.47632e-08 3.17426e-09 -2.86402e-07)
(-1.14465e-07 3.92251e-09 -2.91692e-07)
(-3.87541e-09 -3.11715e-08 -2.50945e-07)
(-1.17449e-08 -2.98439e-08 -2.51591e-07)
(-1.95791e-08 -2.70816e-08 -2.52948e-07)
(-2.7276e-08 -2.28835e-08 -2.55154e-07)
(-3.49531e-08 -1.74127e-08 -2.58293e-07)
(-4.28112e-08 -1.11792e-08 -2.62306e-07)
(-5.1065e-08 -4.98935e-09 -2.66873e-07)
(-6.01161e-08 3.67393e-10 -2.71403e-07)
(-7.05271e-08 4.22644e-09 -2.75055e-07)
(-8.26336e-08 6.151e-09 -2.76642e-07)
(-3.35017e-09 -3.98811e-08 -2.58108e-07)
(-1.00869e-08 -3.8661e-08 -2.58009e-07)
(-1.66014e-08 -3.58374e-08 -2.57949e-07)
(-2.26445e-08 -3.10988e-08 -2.58215e-07)
(-2.8126e-08 -2.45015e-08 -2.59025e-07)
(-3.31883e-08 -1.65647e-08 -2.6043e-07)
(-3.80426e-08 -8.25879e-09 -2.62213e-07)
(-4.27678e-08 -8.55622e-10 -2.6378e-07)
(-4.75151e-08 4.67005e-09 -2.64256e-07)
(-5.2518e-08 7.84036e-09 -2.62709e-07)
(-3.07389e-09 -4.94114e-08 -2.66652e-07)
(-9.17658e-09 -4.87363e-08 -2.65646e-07)
(-1.48307e-08 -4.64811e-08 -2.63936e-07)
(-1.96265e-08 -4.15932e-08 -2.61992e-07)
(-2.33294e-08 -3.38469e-08 -2.60269e-07)
(-2.59401e-08 -2.39726e-08 -2.58947e-07)
(-2.76758e-08 -1.32759e-08 -2.57883e-07)
(-2.87276e-08 -3.34474e-09 -2.56621e-07)
(-2.89826e-08 4.15292e-09 -2.54309e-07)
(-2.86195e-08 8.50203e-09 -2.50133e-07)
(-3.14072e-09 -5.92642e-08 -2.76478e-07)
(-9.31387e-09 -6.01119e-08 -2.74319e-07)
(-1.47677e-08 -5.96267e-08 -2.70583e-07)
(-1.89124e-08 -5.53471e-08 -2.66116e-07)
(-2.14063e-08 -4.64382e-08 -2.61654e-07)
(-2.22094e-08 -3.39831e-08 -2.57557e-07)
(-2.15379e-08 -2.02193e-08 -2.53756e-07)
(-1.97199e-08 -7.34475e-09 -2.49815e-07)
(-1.70172e-08 2.49179e-09 -2.45179e-07)
(-1.35831e-08 8.07017e-09 -2.38907e-07)
(-3.65046e-09 -6.80292e-08 -2.87447e-07)
(-1.07515e-08 -7.25927e-08 -2.83673e-07)
(-1.68219e-08 -7.62867e-08 -2.77305e-07)
(-2.10434e-08 -7.38485e-08 -2.69892e-07)
(-2.297e-08 -6.36588e-08 -2.62519e-07)
(-2.2593e-08 -4.76148e-08 -2.55655e-07)
(-2.0278e-08 -2.93781e-08 -2.49272e-07)
(-1.65938e-08 -1.26776e-08 -2.43041e-07)
(-1.22042e-08 -1.9818e-10 -2.3657e-07)
(-7.61016e-09 6.79252e-09 -2.28867e-07)
(-4.6995e-09 -7.235e-08 -2.99539e-07)
(-1.37393e-08 -8.58712e-08 -2.93161e-07)
(-2.13542e-08 -9.85884e-08 -2.83191e-07)
(-2.64337e-08 -9.97353e-08 -2.72288e-07)
(-2.83842e-08 -8.74066e-08 -2.61897e-07)
(-2.73135e-08 -6.58003e-08 -2.52416e-07)
(-2.38829e-08 -4.11766e-08 -2.43697e-07)
(-1.8992e-08 -1.91682e-08 -2.35491e-07)
(-1.35814e-08 -3.3752e-09 -2.27627e-07)
(-8.70141e-09 5.05626e-09 -2.19809e-07)
(-8.14659e-09 -4.51177e-09 -2.19036e-07)
(-2.44148e-08 -4.12556e-09 -2.20594e-07)
(-4.04601e-08 -3.55984e-09 -2.2362e-07)
(-5.67827e-08 -2.86399e-09 -2.28047e-07)
(-7.40524e-08 -2.07536e-09 -2.33861e-07)
(-9.29716e-08 -1.25305e-09 -2.41065e-07)
(-1.14304e-07 -4.51678e-10 -2.49664e-07)
(-1.38882e-07 2.68059e-10 -2.59702e-07)
(-1.67493e-07 8.43827e-10 -2.71312e-07)
(-2.00801e-07 1.20667e-09 -2.84954e-07)
(-7.53528e-09 -1.35929e-08 -2.1996e-07)
(-2.28799e-08 -1.26417e-08 -2.21316e-07)
(-3.83084e-08 -1.09767e-08 -2.23976e-07)
(-5.39162e-08 -8.87137e-09 -2.27891e-07)
(-7.02902e-08 -6.47657e-09 -2.33057e-07)
(-8.80779e-08 -3.9427e-09 -2.39454e-07)
(-1.07921e-07 -1.45544e-09 -2.47016e-07)
(-1.30561e-07 8.06491e-10 -2.55646e-07)
(-1.56691e-07 2.6619e-09 -2.65177e-07)
(-1.86831e-07 3.91658e-09 -2.75318e-07)
(-6.74273e-09 -2.28559e-08 -2.21829e-07)
(-2.04528e-08 -2.15333e-08 -2.22797e-07)
(-3.43892e-08 -1.89782e-08 -2.24741e-07)
(-4.86144e-08 -1.54807e-08 -2.2768e-07)
(-6.32804e-08 -1.14214e-08 -2.31605e-07)
(-7.88512e-08 -7.07615e-09 -2.36471e-07)
(-9.58989e-08 -2.7331e-09 -2.42152e-07)
(-1.14886e-07 1.28948e-09 -2.48344e-07)
(-1.36225e-07 4.70678e-09 -2.54524e-07)
(-1.60332e-07 7.27972e-09 -2.59845e-07)
(-5.81377e-09 -3.27405e-08 -2.24688e-07)
(-1.76513e-08 -3.10531e-08 -2.25131e-07)
(-2.95919e-08 -2.77686e-08 -2.26073e-07)
(-4.16981e-08 -2.30398e-08 -2.27612e-07)
(-5.40511e-08 -1.72428e-08 -2.29817e-07)
(-6.66981e-08 -1.09094e-08 -2.3263e-07)
(-7.99108e-08 -4.5055e-09 -2.35844e-07)
(-9.40162e-08 1.5445e-09 -2.39067e-07)
(-1.09081e-07 6.85282e-09 -2.4158e-07)
(-1.25094e-07 1.12e-08 -2.423e-07)
(-4.88369e-09 -4.3579e-08 -2.28636e-07)
(-1.48105e-08 -4.16123e-08 -2.2843e-07)
(-2.47116e-08 -3.7637e-08 -2.28125e-07)
(-3.44169e-08 -3.17801e-08 -2.27931e-07)
(-4.39466e-08 -2.4304e-08 -2.28019e-07)
(-5.33043e-08 -1.57817e-08 -2.28428e-07)
(-6.23559e-08 -7.01385e-09 -2.28931e-07)
(-7.10318e-08 1.32876e-09 -2.29044e-07)
(-7.92849e-08 8.77477e-09 -2.28075e-07)
(-8.66431e-08 1.51213e-08 -2.24988e-07)
(-4.07762e-09 -5.55485e-08 -2.33792e-07)
(-1.22979e-08 -5.34575e-08 -2.32793e-07)
(-2.03031e-08 -4.89922e-08 -2.30985e-07)
(-2.77716e-08 -4.20485e-08 -2.28755e-07)
(-3.44898e-08 -3.28733e-08 -2.26446e-07)
(-4.04085e-08 -2.20642e-08 -2.24205e-07)
(-4.54223e-08 -1.05744e-08 -2.21908e-07)
(-4.91054e-08 4.09622e-10 -2.19087e-07)
(-5.09841e-08 1.01332e-08 -2.14989e-07)
(-5.06635e-08 1.83912e-08 -2.08874e-07)
(-3.48812e-09 -6.85413e-08 -2.40282e-07)
(-1.04373e-08 -6.66534e-08 -2.38277e-07)
(-1.69399e-08 -6.21671e-08 -2.34648e-07)
(-2.25281e-08 -5.43552e-08 -2.30035e-07)
(-2.68381e-08 -4.33106e-08 -2.25066e-07)
(-2.96725e-08 -2.99295e-08 -2.20058e-07)
(-3.09562e-08 -1.54772e-08 -2.14947e-07)
(-3.04501e-08 -1.39903e-09 -2.09371e-07)
(-2.74311e-08 1.0798e-08 -2.02646e-07)
(-2.15437e-08 2.07021e-08 -1.94164e-07)
(-3.19768e-09 -8.19499e-08 -2.48267e-07)
(-9.49415e-09 -8.10649e-08 -2.44904e-07)
(-1.50774e-08 -7.74974e-08 -2.38939e-07)
(-1.93129e-08 -6.93418e-08 -2.31506e-07)
(-2.1749e-08 -5.62471e-08 -2.23594e-07)
(-2.21593e-08 -3.95441e-08 -2.15732e-07)
(-2.04856e-08 -2.14728e-08 -2.07947e-07)
(-1.66705e-08 -4.00317e-09 -1.9985e-07)
(-1.05617e-08 1.08529e-08 -1.91093e-07)
(-1.68758e-09 2.22341e-08 -1.80877e-07)
(-3.28554e-09 -9.41816e-08 -2.58001e-07)
(-9.66326e-09 -9.61838e-08 -2.52615e-07)
(-1.504e-08 -9.55308e-08 -2.43448e-07)
(-1.85646e-08 -8.79586e-08 -2.32578e-07)
(-1.96935e-08 -7.25384e-08 -2.21452e-07)
(-1.82605e-08 -5.14536e-08 -2.10713e-07)
(-1.44154e-08 -2.83466e-08 -2.00412e-07)
(-8.42994e-09 -6.76372e-09 -1.90282e-07)
(-6.74087e-10 1.07978e-08 -1.801e-07)
(9.01065e-09 2.35356e-08 -1.68908e-07)
(-3.80916e-09 -1.01699e-07 -2.70075e-07)
(-1.11081e-08 -1.11207e-07 -2.61216e-07)
(-1.70693e-08 -1.1768e-07 -2.47399e-07)
(-2.05503e-08 -1.12071e-07 -2.32264e-07)
(-2.08587e-08 -9.33784e-08 -2.17718e-07)
(-1.79742e-08 -6.60007e-08 -2.04266e-07)
(-1.24169e-08 -3.6052e-08 -1.91741e-07)
(-4.92626e-09 -8.96696e-09 -1.79924e-07)
(3.73551e-09 1.17939e-08 -1.68771e-07)
(1.2806e-08 2.52672e-08 -1.58125e-07)
(-9.68005e-09 -5.43516e-09 -1.93459e-07)
(-2.89975e-08 -4.98384e-09 -1.9444e-07)
(-4.80061e-08 -4.32731e-09 -1.9639e-07)
(-6.72471e-08 -3.52102e-09 -1.9935e-07)
(-8.74268e-08 -2.60078e-09 -2.03445e-07)
(-1.0924e-07 -1.62174e-09 -2.08867e-07)
(-1.33398e-07 -6.24321e-10 -2.1589e-07)
(-1.60638e-07 3.53527e-10 -2.24932e-07)
(-1.91648e-07 1.28354e-09 -2.36651e-07)
(-2.27132e-07 2.15068e-09 -2.52219e-07)
(-8.95765e-09 -1.63849e-08 -1.9407e-07)
(-2.71872e-08 -1.52723e-08 -1.94873e-07)
(-4.54766e-08 -1.33306e-08 -1.96493e-07)
(-6.38843e-08 -1.08807e-08 -1.98993e-07)
(-8.30109e-08 -8.08125e-09 -2.02497e-07)
(-1.03467e-07 -5.06586e-09 -2.07171e-07)
(-1.25775e-07 -1.98255e-09 -2.13203e-07)
(-1.50468e-07 1.05802e-09 -2.20836e-07)
(-1.77894e-07 3.97206e-09 -2.30345e-07)
(-2.08018e-07 6.69868e-09 -2.41956e-07)
(-8.01691e-09 -2.75796e-08 -1.95362e-07)
(-2.43111e-08 -2.60148e-08 -1.95822e-07)
(-4.08443e-08 -2.30024e-08 -1.968e-07)
(-5.76385e-08 -1.88968e-08 -1.98411e-07)
(-7.47691e-08 -1.41301e-08 -2.00784e-07)
(-9.26035e-08 -8.96222e-09 -2.04046e-07)
(-1.11523e-07 -3.61644e-09 -2.08298e-07)
(-1.31625e-07 1.69413e-09 -2.13535e-07)
(-1.52709e-07 6.83663e-09 -2.19587e-07)
(-1.74188e-07 1.177e-08 -2.2595e-07)
(-6.89824e-09 -3.95685e-08 -1.97478e-07)
(-2.09442e-08 -3.75147e-08 -1.97463e-07)
(-3.51045e-08 -3.35548e-08 -1.97532e-07)
(-4.94088e-08 -2.79165e-08 -1.97869e-07)
(-6.38481e-08 -2.10528e-08 -1.98671e-07)