/*--------------------------------*- C++ -*----------------------------------*\
| =========                 |                                                 |
| \\      /  F ield         | foam-extend: Open Source CFD                    |
|  \\    /   O peration     | Version:     3.1                                |
|   \\  /    A nd           | Web:         http://www.extend-project.de       |
|    \\/     M anipulation  |                                                 |
\*---------------------------------------------------------------------------*/
FoamFile
{
    version     2.0;
    format      ascii;
    class       surfaceScalarField;
    location    "0.002";
    object      meshPhi;
}
// * * * * * * * * * * * * * * * * * * * * * * * * * * * * * * * * * * * * * //

dimensions      [0 3 -1 0 0 0 0];

internalField   nonuniform List<scalar> 
45800
(
2.7446e-11
2.74445e-11
8.81025e-11
5.14784e-11
2.67244e-11
8.63277e-11
7.04015e-11
2.51788e-11
8.43436e-11
8.35205e-11
2.31757e-11
8.20432e-11
9.05991e-11
2.08702e-11
7.9294e-11
9.16936e-11
1.83397e-11
7.59422e-11
8.71397e-11
1.56599e-11
7.18327e-11
7.75764e-11
1.29095e-11
6.68305e-11
6.39545e-11
1.01679e-11
6.08486e-11
7.45027e-12
5.38509e-11
4.74043e-11
2.67243e-11
5.13747e-11
8.63188e-11
5.042e-11
5.03564e-11
8.45572e-11
6.93398e-11
4.78117e-11
8.25803e-11
8.2566e-11
4.42295e-11
8.0277e-11
8.97835e-11
3.99718e-11
7.7528e-11
9.10404e-11
3.52387e-11
7.41933e-11
8.66674e-11
3.0179e-11
7.01284e-11
7.73088e-11
2.49516e-11
6.52117e-11
6.39348e-11
1.97112e-11
5.93734e-11
1.45106e-11
5.26275e-11
4.78423e-11
2.52151e-11
7.01931e-11
8.43263e-11
4.78714e-11
6.9172e-11
8.25684e-11
6.63065e-11
6.61883e-11
8.05847e-11
7.94303e-11
6.16379e-11
7.82646e-11
8.67546e-11
5.59694e-11
7.54998e-11
8.82607e-11
4.9537e-11
7.21682e-11
8.42612e-11
4.25792e-11
6.81417e-11
7.5388e-11
3.53145e-11
6.33163e-11
6.25962e-11
2.79749e-11
5.7642e-11
2.06822e-11
5.11685e-11
4.727e-11
2.32455e-11
8.32706e-11
8.20202e-11
4.43306e-11
8.23337e-11
8.0258e-11
6.17524e-11
7.92404e-11
7.82541e-11
7.44217e-11
7.42739e-11
7.59096e-11
8.17192e-11
6.78125e-11
7.31262e-11
8.34865e-11
6.02604e-11
6.97943e-11
7.99661e-11
5.19636e-11
6.58051e-11
7.17491e-11
4.32093e-11
6.10725e-11
5.97394e-11
3.42812e-11
5.55611e-11
2.53994e-11
4.93574e-11
4.54134e-11
2.09418e-11
9.034e-11
7.92658e-11
4.01001e-11
8.95344e-11
7.75049e-11
5.6118e-11
8.65257e-11
7.54844e-11
6.79593e-11
8.15259e-11
7.3119e-11
7.49888e-11
7.48287e-11
7.03252e-11
7.6941e-11
6.67691e-11
6.70046e-11
7.39318e-11
5.7722e-11
6.30619e-11
6.64543e-11
4.80565e-11
5.84274e-11
5.53413e-11
3.81087e-11
5.30775e-11
2.82102e-11
4.71423e-11
4.2189e-11
1.84036e-11
9.14428e-11
7.59101e-11
3.53627e-11
9.07976e-11
7.41668e-11
4.97031e-11
8.80282e-11
7.21504e-11
6.04345e-11
8.32706e-11
6.97849e-11
6.69291e-11
7.67563e-11
6.70012e-11
6.88997e-11
6.87487e-11
6.37162e-11
6.6362e-11
5.95555e-11
5.9846e-11
5.96604e-11
4.95573e-11
5.53301e-11
4.95273e-11
3.91643e-11
5.01575e-11
2.88501e-11
4.45059e-11
3.76764e-11
1.57165e-11
8.69128e-11
7.17988e-11
3.02898e-11
8.64461e-11
7.01004e-11
4.27375e-11
8.40459e-11
6.81233e-11
5.21526e-11
7.97584e-11
6.57966e-11
5.79095e-11
7.37395e-11
6.30604e-11
5.97103e-11
6.62055e-11
5.9848e-11
5.75315e-11
5.74041e-11
5.6091e-11
5.16202e-11
4.76718e-11
5.17401e-11
4.25691e-11
3.74431e-11
4.67954e-11
2.73141e-11
4.14695e-11
3.21103e-11
1.29591e-11
7.73857e-11
6.67962e-11
2.50499e-11
7.71212e-11
6.51838e-11
3.54575e-11
7.52027e-11
6.32988e-11
4.33903e-11
7.15677e-11
6.10667e-11
4.82603e-11
6.62817e-11
5.84316e-11
4.97509e-11
5.95145e-11
5.53416e-11
4.78183e-11
5.1508e-11
5.17515e-11
4.27084e-11
4.25997e-11
4.76409e-11
3.48596e-11
3.31769e-11
4.30179e-11
2.38526e-11
3.80988e-11
2.58763e-11
1.02106e-11
6.38087e-11
6.0815e-11
1.97965e-11
6.37888e-11
5.93463e-11
2.81002e-11
6.24479e-11
5.76259e-11
3.44418e-11
5.95906e-11
5.55579e-11
3.82974e-11
5.51983e-11
5.30864e-11
3.93667e-11
4.94029e-11
5.01769e-11
3.76097e-11
4.24634e-11
4.68168e-11
3.32958e-11
3.47609e-11
4.30294e-11
2.67925e-11
2.67014e-11
3.8851e-11
1.89409e-11
3.45025e-11
1.9529e-11
7.48588e-12
5.38218e-11
4.73153e-11
1.45812e-11
5.2604e-11
4.7748e-11
2.07857e-11
5.1155e-11
4.71671e-11
2.55313e-11
4.93559e-11
4.53043e-11
2.83622e-11
4.71515e-11
4.20801e-11
2.90115e-11
4.45235e-11
3.75755e-11
2.74559e-11
4.1489e-11
3.20211e-11
2.39634e-11
3.81133e-11
2.58014e-11
1.90258e-11
3.45109e-11
1.94743e-11
3.09047e-11
1.36483e-11
1.36037e-11
8.88963e-11
8.89033e-11
1.79331e-10
1.67096e-10
8.66798e-11
1.76014e-10
2.2924e-10
8.18628e-11
1.72499e-10
2.73238e-10
7.56276e-11
1.68624e-10
2.98435e-10
6.84616e-11
1.64115e-10
3.04979e-10
6.06057e-11
1.58656e-10
2.93835e-10
5.22899e-11
1.51932e-10
2.66861e-10
4.37541e-11
1.4367e-10
2.26839e-10
3.52422e-11
1.33688e-10
2.6795e-11
1.21901e-10
1.77071e-10
8.66656e-11
1.6677e-10
1.7599e-10
1.63896e-10
1.63686e-10
1.72714e-10
2.26108e-10
1.55786e-10
1.69218e-10
2.70497e-10
1.44639e-10
1.65313e-10
2.96179e-10
1.31406e-10
1.60762e-10
3.03269e-10
1.16717e-10
1.55287e-10
2.92716e-10
1.0102e-10
1.48593e-10
2.66394e-10
8.47999e-11
1.4043e-10
2.27148e-10
6.85297e-11
1.30648e-10
5.23539e-11
1.19237e-10
1.78786e-10
8.19588e-11
2.28602e-10
1.72457e-10
1.55974e-10
2.25585e-10
1.69187e-10
2.16752e-10
2.16386e-10
1.65672e-10
2.60903e-10
2.02276e-10
1.61705e-10
2.86969e-10
1.84679e-10
1.57071e-10
2.94865e-10
1.64718e-10
1.51534e-10
2.85484e-10
1.43133e-10
1.44838e-10
2.60664e-10
1.20588e-10
1.36765e-10
2.23212e-10
9.77911e-11
1.27201e-10
7.50923e-11
1.16199e-10
1.77222e-10
7.58365e-11
2.72488e-10
1.68577e-10
1.44946e-10
2.69798e-10
1.6527e-10
2.02613e-10
2.6033e-10
1.61678e-10
2.45434e-10
2.44998e-10
1.57619e-10
2.71467e-10
2.24982e-10
1.52886e-10
2.80186e-10
2.01548e-10
1.47265e-10
2.72282e-10
1.75791e-10
1.40544e-10
2.49469e-10
1.48603e-10
1.32547e-10
2.14406e-10
1.20848e-10
1.23185e-10
9.31713e-11
1.12582e-10
1.71505e-10
6.86824e-11
2.97657e-10
1.64062e-10
1.318e-10
2.95431e-10
1.60718e-10
1.8512e-10
2.8628e-10
1.57037e-10
2.25405e-10
2.70887e-10
1.52867e-10
2.5064e-10
2.50172e-10
1.48037e-10
2.59936e-10
2.25172e-10
1.42346e-10
2.53581e-10
1.97052e-10
1.35605e-10
2.33006e-10
1.66979e-10
1.27677e-10
2.00661e-10
1.36003e-10
1.18505e-10
1.05102e-10
1.08297e-10
1.61369e-10
6.08027e-11
3.04227e-10
1.58597e-10
1.17099e-10
3.02541e-10
1.55238e-10
1.65221e-10
2.94168e-10
1.51499e-10
2.0206e-10
2.7954e-10
1.47243e-10
2.25628e-10
2.59386e-10
1.42334e-10
2.34968e-10
2.34533e-10
1.3661e-10
2.30027e-10
2.05923e-10
1.29895e-10
2.11775e-10
1.74734e-10
1.22066e-10
1.82373e-10
1.42274e-10
1.13101e-10
1.0998e-10
1.03309e-10
1.47059e-10
5.24637e-11
2.93155e-10
1.51871e-10
1.01359e-10
2.92053e-10
1.48542e-10
1.43615e-10
2.84841e-10
1.44804e-10
1.7636e-10
2.71663e-10
1.40527e-10
1.97597e-10
2.53009e-10
1.35597e-10
2.06352e-10
2.29565e-10
1.2989e-10
2.02461e-10
2.02106e-10
1.2327e-10
1.86564e-10
1.71652e-10
1.15628e-10
1.60388e-10
1.39568e-10
1.06955e-10
1.07707e-10
9.76474e-11
1.29302e-10
4.39058e-11
2.66291e-10
1.4361e-10
8.50992e-11
2.65834e-10
1.40381e-10
1.21022e-10
2.60111e-10
1.36734e-10
1.49151e-10
2.48929e-10
1.32536e-10
1.67589e-10
2.32494e-10
1.27681e-10
1.75289e-10
2.11344e-10
1.22076e-10
1.72052e-10
1.86238e-10
1.15637e-10
1.58521e-10
1.5822e-10
1.08311e-10
1.3593e-10
1.28492e-10
1.00098e-10
9.89748e-11
9.1413e-11
1.09303e-10
3.5372e-11
2.26408e-10
1.33632e-10
6.87872e-11
2.26716e-10
1.30602e-10
9.81679e-11
2.22772e-10
1.27172e-10
1.2133e-10
2.13964e-10
1.23177e-10
1.36568e-10
2.00238e-10
1.18517e-10
1.4287e-10
1.82006e-10
1.13128e-10
1.40041e-10
1.60078e-10
1.06982e-10
1.28821e-10
1.35645e-10
1.00111e-10
1.10244e-10
1.09988e-10
9.25701e-11
8.51829e-11
8.47801e-11
8.88124e-11
2.69021e-11
1.21854e-10
1.76819e-10
5.25647e-11
1.19199e-10
1.78515e-10
7.53991e-11
1.16175e-10
1.7692e-10
9.356e-11
1.12577e-10
1.71181e-10
1.05548e-10
1.08308e-10
1.61045e-10
1.10451e-10
1.03333e-10
1.46758e-10
1.08115e-10
9.76737e-11
1.29038e-10
9.92885e-11
9.14314e-11
1.09083e-10
8.54207e-11
8.47902e-11
8.86556e-11
7.81572e-11
6.97044e-11
6.95805e-11
1.69225e-10
1.6927e-10
2.72383e-10
3.19119e-10
1.65367e-10
2.68057e-10
4.40125e-10
1.56788e-10
2.6405e-10
5.28792e-10
1.45729e-10
2.60145e-10
5.84133e-10
1.33071e-10
2.55906e-10
6.06345e-10
1.19233e-10
2.50822e-10
5.96903e-10
1.04605e-10
2.44391e-10
5.58708e-10
8.95972e-11
2.36162e-10
4.96161e-10
7.46326e-11
2.25798e-10
5.97461e-11
2.13071e-10
4.14477e-10
1.65309e-10
3.18583e-10
2.68012e-10
3.13688e-10
3.13351e-10
2.63749e-10
4.35062e-10
2.99404e-10
2.59745e-10
5.24634e-10
2.79672e-10
2.55721e-10
5.81014e-10
2.56317e-10
2.51317e-10
6.04332e-10
2.30465e-10
2.46086e-10
5.96038e-10
2.0287e-10
2.39557e-10
5.59067e-10
1.74365e-10
2.31312e-10
4.97927e-10
1.45761e-10
2.21045e-10
1.17216e-10
2.08602e-10
4.18679e-10
1.56923e-10
4.39071e-10
2.63984e-10
2.99687e-10
4.34203e-10
2.59693e-10
4.18761e-10
4.18186e-10
2.55605e-10
5.08165e-10
3.93378e-10
2.51393e-10
5.654e-10
3.6239e-10
2.46719e-10
5.90249e-10
3.27276e-10
2.41222e-10
5.84072e-10
2.89344e-10
2.34492e-10
5.49737e-10
2.49719e-10
2.26152e-10
4.91723e-10
2.09614e-10
2.15945e-10
1.69509e-10
2.03797e-10
4.16631e-10
1.46078e-10
5.27563e-10
2.60079e-10
2.80165e-10
5.2349e-10
2.55655e-10
3.93882e-10
5.07235e-10
2.51348e-10
4.81163e-10
4.80491e-10
2.46865e-10
5.38499e-10
4.45374e-10
2.41869e-10
5.64853e-10
4.0416e-10
2.36025e-10
5.61252e-10
3.58846e-10
2.29006e-10
5.30367e-10
3.11009e-10
2.20499e-10
4.76447e-10
2.62114e-10
2.1029e-10
2.13121e-10
1.98399e-10
4.06742e-10
1.33451e-10
5.82858e-10
2.55835e-10
2.56982e-10
5.79789e-10
2.51256e-10
3.63089e-10
5.6427e-10
2.46666e-10
4.46001e-10
5.3756e-10
2.41834e-10
5.02032e-10
5.01316e-10
2.36482e-10
5.29417e-10
4.57371e-10
2.30285e-10
5.28445e-10
4.07803e-10
2.22941e-10
5.01332e-10
3.5473e-10
2.14216e-10
4.52001e-10
3.00014e-10
2.03956e-10
2.45161e-10
1.92298e-10
3.88541e-10
1.19571e-10
6.05112e-10
2.50746e-10
2.31116e-10
6.03141e-10
2.46024e-10
3.28116e-10
5.89112e-10
2.41176e-10
4.04963e-10
5.63803e-10
2.35989e-10
4.58037e-10
5.28542e-10
2.30259e-10
4.85461e-10
4.84819e-10
2.2373e-10
4.86842e-10
4.34276e-10
2.1611e-10
4.63565e-10
3.7899e-10
2.07177e-10
4.19108e-10
3.21364e-10
1.96852e-10
2.63774e-10
1.85433e-10
3.6246e-10
1.04901e-10
5.95792e-10
2.44317e-10
2.03447e-10
5.94959e-10
2.39496e-10
2.90158e-10
5.83027e-10
2.34451e-10
3.59788e-10
5.60254e-10
2.28983e-10
4.08648e-10
5.27529e-10
2.22921e-10
4.34864e-10
4.86116e-10
2.16087e-10
4.37894e-10
4.37401e-10
2.08264e-10
4.18462e-10
3.83132e-10
1.9923e-10
3.79274e-10
3.25758e-10
1.88922e-10
2.68517e-10
1.77799e-10
3.29776e-10
8.9855e-11
5.57783e-10
2.36094e-10
1.74872e-10
5.5816e-10
2.31256e-10
2.5045e-10
5.48844e-10
2.26116e-10
3.1193e-10
5.295e-10
2.20486e-10
3.55738e-10
5.00516e-10
2.14218e-10
3.79829e-10
4.62876e-10
2.07171e-10
3.83668e-10
4.17962e-10
1.99221e-10
3.68018e-10
3.67599e-10
1.90231e-10
3.34665e-10
3.1391e-10
1.80137e-10
2.60331e-10
1.69463e-10
2.9262e-10
7.48514e-11
4.95474e-10
2.25738e-10
1.46192e-10
4.97239e-10
2.20997e-10
2.10242e-10
4.9102e-10
2.15916e-10
2.62914e-10
4.75741e-10
2.10283e-10
3.00954e-10
4.51328e-10
2.03969e-10
3.22328e-10
4.18528e-10
1.96874e-10
3.26463e-10
3.78788e-10
1.88936e-10
3.14372e-10
3.3423e-10
1.80141e-10
2.87542e-10
2.87169e-10
1.70502e-10
2.41401e-10
1.60567e-10
2.54148e-10
5.99248e-11
2.13024e-10
4.14099e-10
1.17565e-10
2.08565e-10
4.18267e-10
1.70012e-10
2.03775e-10
4.16161e-10
2.13754e-10
1.98395e-10
4.0623e-10
2.45882e-10
1.9231e-10
3.88026e-10
2.6453e-10
1.85456e-10
3.61982e-10
2.69158e-10
1.77823e-10
3.29358e-10
2.60803e-10
1.69477e-10
2.92277e-10
2.41747e-10
1.60572e-10
2.53915e-10
1.51628e-10
2.17868e-10
2.17694e-10
2.79747e-10
2.79897e-10
3.60878e-10
5.29367e-10
2.74067e-10
3.56395e-10
7.34589e-10
2.60994e-10
3.53433e-10
8.90759e-10
2.44262e-10
3.51689e-10
9.9668e-10
2.25261e-10
3.50528e-10
1.05259e-09
2.04589e-10
3.49209e-10
1.06033e-09
1.828e-10
3.46993e-10
1.02362e-09
1.60497e-10
3.43191e-10
9.4815e-10
1.38301e-10
3.37202e-10
1.16206e-10
3.28512e-10
8.4064e-10
2.73893e-10
5.28704e-10
3.56329e-10
5.21583e-10
5.21247e-10
3.51903e-10
7.27879e-10
5.00299e-10
3.48869e-10
8.85886e-10
4.70594e-10
3.46828e-10
9.93765e-10
4.35599e-10
3.45269e-10
1.05165e-09
3.97039e-10
3.43544e-10
1.06136e-09
3.55988e-10
3.40957e-10
1.02667e-09
3.13662e-10
3.36852e-10
9.53417e-10
2.71243e-10
3.30659e-10
2.28806e-10
3.21884e-10
8.49438e-10
2.61127e-10
7.33188e-10
3.53343e-10
5.00546e-10
7.26779e-10
3.48795e-10
7.03875e-10
7.03222e-10
3.45523e-10
8.62155e-10
6.66252e-10
3.43042e-10
9.717e-10
6.19983e-10
3.40868e-10
1.03213e-09
5.67665e-10
3.38483e-10
1.04515e-09
5.11284e-10
3.35284e-10
1.01441e-09
4.52462e-10
3.30656e-10
9.45772e-10
3.9296e-10
3.24089e-10
3.33256e-10
3.15172e-10
8.47927e-10
2.4475e-10
8.89104e-10
3.5161e-10
4.712e-10
8.84352e-10
3.46741e-10
6.66786e-10
8.60936e-10
3.42976e-10
8.2232e-10
8.21525e-10
3.39885e-10
9.32363e-10
7.69372e-10
3.36965e-10
9.95196e-10
7.08013e-10
3.33731e-10
1.01206e-09
6.40599e-10
3.29706e-10
9.86336e-10
5.69517e-10
3.24373e-10
9.23609e-10
4.9688e-10
3.17276e-10
4.23808e-10
3.0812e-10
8.3369e-10
2.25805e-10
9.94958e-10
3.50448e-10
4.36521e-10
9.92112e-10
3.45196e-10
6.20858e-10
9.70177e-10
3.40795e-10
7.70065e-10
9.3113e-10
3.36909e-10
8.7839e-10
8.77544e-10
3.33133e-10
9.42849e-10
8.12205e-10
3.28986e-10
9.63491e-10
7.38313e-10
3.24017e-10
9.4311e-10
6.59183e-10
3.17832e-10
8.86874e-10
5.77663e-10
3.10082e-10
4.95623e-10
3.00615e-10
8.06063e-10
2.05071e-10
1.05092e-09
3.49126e-10
3.97963e-10
1.05004e-09
3.43475e-10
5.68818e-10
1.0306e-09
3.38428e-10
7.09017e-10
9.93799e-10
3.33678e-10
8.1293e-10
9.41721e-10
3.28941e-10
8.7742e-10
8.76702e-10
3.23849e-10
9.01362e-10
8.01196e-10
3.17954e-10
8.86255e-10
7.18348e-10
3.1087e-10
8.36728e-10
6.31989e-10
3.02377e-10
5.45435e-10
2.92552e-10
7.65714e-10
1.83223e-10
1.05884e-09
3.46917e-10
3.56803e-10
1.05992e-09
3.40894e-10
5.12429e-10
1.04375e-09
3.35242e-10
6.41892e-10
1.01074e-09
3.2968e-10
7.39353e-10
9.62291e-10
3.23979e-10
8.01751e-10
9.00435e-10
3.179e-10
8.27825e-10
8.27336e-10
3.11119e-10
8.17916e-10
7.45529e-10
3.0323e-10
7.75464e-10
6.58799e-10
2.94017e-10
5.72051e-10
2.83833e-10
7.14552e-10
1.60862e-10
1.02238e-09
3.43129e-10
3.14377e-10
1.02546e-09
3.36802e-10
4.53492e-10
1.01322e-09
3.30626e-10
5.70818e-10
9.85194e-10
3.24363e-10
6.60573e-10
9.42043e-10
3.17828e-10
7.1934e-10
8.85344e-10
3.10829e-10
7.46006e-10
8.17285e-10
3.0318e-10
7.41019e-10
7.40588e-10
2.94587e-10
7.06332e-10
6.58463e-10
2.84825e-10
5.76284e-10
2.74391e-10
6.5575e-10
1.38609e-10
9.47249e-10
3.37157e-10
2.71848e-10
9.52515e-10
3.30624e-10
3.93837e-10
9.44852e-10
3.24071e-10
4.97997e-10
9.22688e-10
3.17275e-10
5.78985e-10
8.85998e-10
3.10095e-10
6.33281e-10
8.35973e-10
3.02381e-10
6.59618e-10
7.74832e-10
2.94e-10
6.5894e-10
7.05789e-10
2.84808e-10
6.32849e-10
6.32424e-10
2.74689e-10
5.60766e-10
2.64195e-10
5.94083e-10
1.16455e-10
3.28485e-10
8.40174e-10
2.29289e-10
3.21864e-10
8.48922e-10
3.33949e-10
3.15164e-10
8.47329e-10
4.24675e-10
3.08125e-10
8.33033e-10
4.96608e-10
3.00628e-10
8.05399e-10
5.46456e-10
2.92568e-10
7.651e-10
5.72886e-10
2.83846e-10
7.14017e-10
5.76856e-10
2.74391e-10
6.55318e-10
5.61158e-10
2.64189e-10
5.93804e-10
2.5377e-10
5.35144e-10
5.34956e-10
4.29568e-10
4.29958e-10
4.32549e-10
8.15711e-10
4.21958e-10
4.29034e-10
1.13892e-09
4.03583e-10
4.28987e-10
1.39366e-09
3.80282e-10
4.31964e-10
1.57885e-09
3.54099e-10
4.37092e-10
1.69486e-09
3.25813e-10
4.43374e-10
1.74382e-09
2.96156e-10
4.49809e-10
1.72997e-09
2.65942e-10
4.55414e-10
1.65992e-09
2.36029e-10
4.59232e-10
2.06342e-10
4.60324e-10
1.54127e-09
4.21525e-10
8.15034e-10
4.28943e-10
8.05581e-10
8.05408e-10
4.25432e-10
1.13115e-09
7.76507e-10
4.25164e-10
1.38926e-09
7.35424e-10
4.2757e-10
1.57785e-09
6.87329e-10
4.31953e-10
1.69716e-09
6.34688e-10
4.37439e-10
1.7493e-09
5.78918e-10
4.43077e-10
1.73858e-09
5.21667e-10
4.47915e-10
1.6718e-09
4.64536e-10
4.51014e-10
4.07409e-10
4.5135e-10
1.55774e-09
4.03623e-10
1.13724e-09
4.28874e-10
7.76542e-10
1.12991e-09
4.25068e-10
1.09884e-09
1.09827e-09
4.24291e-10
1.35824e-09
1.0478e-09
4.25861e-10
1.54981e-09
9.84519e-10
4.29113e-10
1.67311e-09
9.13233e-10
4.33351e-10
1.73007e-09
8.36764e-10
4.37745e-10
1.72486e-09
7.57273e-10
4.41379e-10
1.66433e-09
6.77127e-10
4.43375e-10
5.96673e-10
4.42782e-10
1.55849e-09
3.80888e-10
1.39165e-09
4.31875e-10
7.36037e-10
1.3874e-09
4.27462e-10
1.04818e-09
1.35681e-09
4.25773e-10
1.30456e-09
1.30379e-09
4.26211e-10
1.49747e-09
1.23299e-09
4.2808e-10
1.6244e-09
1.14953e-09
4.30718e-10
1.6867e-09
1.05806e-09
4.33469e-10
1.68821e-09
9.61967e-10
4.35546e-10
1.63546e-09
8.64053e-10
4.36143e-10
7.65443e-10
4.34429e-10
1.54024e-09
3.54807e-10
1.57675e-09
4.3701e-10
6.88482e-10
1.57584e-09
4.31874e-10
9.85452e-10
1.54796e-09
4.29021e-10
1.23356e-09
1.49603e-09
4.28002e-10
1.42459e-09
1.42376e-09
4.28258e-10
1.55398e-09
1.33513e-09
4.29132e-10
1.62132e-09
1.23472e-09
4.29991e-10
1.62975e-09
1.1274e-09
4.30224e-10
1.58535e-09
1.01724e-09
4.29187e-10
9.06292e-10
4.26204e-10
1.50222e-09
3.26438e-10
1.69283e-09
4.43295e-10
6.35884e-10
1.6952e-09
4.37374e-10
9.14665e-10
1.67125e-09
4.33292e-10
1.15061e-09
1.62271e-09
4.30647e-10
1.33571e-09
1.55269e-09
4.29064e-10
1.46523e-09
1.4646e-09
4.28053e-10
1.53686e-09
1.36187e-09
4.26972e-10
1.55185e-09
1.24895e-09
4.25215e-10
1.51577e-09
1.13154e-09
4.22332e-10
1.01397e-09
4.1794e-10
1.44543e-09
2.96703e-10
1.742e-09
4.49746e-10
5.79972e-10
1.74754e-09
4.43025e-10
8.38236e-10
1.72839e-09
4.3771e-10
1.05968e-09
1.68513e-09
4.33442e-10
1.23581e-09
1.6199e-09
4.29932e-10
1.36213e-09
1.53579e-09
4.26878e-10
1.43628e-09
1.43596e-09
4.23827e-10
1.45761e-09
1.32383e-09
4.2012e-10
1.42994e-09
1.20483e-09
4.15298e-10
1.08598e-09
4.09386e-10
1.37247e-09
2.66415e-10
1.72847e-09
4.55376e-10
5.22591e-10
1.73713e-09
4.47886e-10
7.58602e-10
1.72344e-09
4.41364e-10
9.63657e-10
1.68685e-09
4.35545e-10
1.12916e-09
1.62848e-09
4.30213e-10
1.2499e-09
1.55073e-09
4.25124e-10
1.32398e-09
1.45685e-09
4.20012e-10
1.35093e-09
1.35061e-09
4.1435e-10
1.33234e-09
1.23648e-09
4.07658e-10
1.12243e-09
4.00228e-10
1.28764e-09
2.36426e-10
1.65884e-09
4.59221e-10
4.65312e-10
1.67072e-09
4.51009e-10
6.78252e-10
1.66323e-09
4.4338e-10
8.6549e-10
1.63437e-09
4.36154e-10
1.01896e-09
1.58431e-09
4.29199e-10
1.13311e-09
1.51485e-09
4.22306e-10
1.2056e-09
1.42917e-09
4.15229e-10
1.23682e-09
1.33171e-09
4.07609e-10
1.22798e-09
1.22757e-09
3.99101e-10
1.12571e-09
3.90111e-10
1.1974e-09
2.06659e-10
4.60336e-10
1.54072e-09
4.08023e-10
4.51366e-10
1.55713e-09
5.97551e-10
4.42802e-10
1.55778e-09
7.6654e-10
4.3445e-10
1.53946e-09
9.07534e-10
4.2622e-10
1.50144e-09
1.01524e-09
4.17946e-10
1.4447e-09
1.08698e-09
4.09381e-10
1.37185e-09
1.12303e-09
4.00208e-10
1.28714e-09
1.12606e-09
3.90084e-10
1.19709e-09
3.79433e-10
1.10988e-09
1.10971e-09
6.24237e-10
6.25029e-10
4.69551e-10
1.18932e-09
6.1469e-10
4.68313e-10
1.67009e-09
5.90314e-10
4.73141e-10
2.06074e-09
5.59725e-10
4.83366e-10
2.36088e-09
5.25783e-10
4.97874e-10
2.57124e-09
4.89463e-10
5.15425e-10
2.69426e-09
4.51685e-10
5.34773e-10
2.73449e-09
4.13511e-10
5.54638e-10
2.69892e-09
3.76076e-10
5.73664e-10
3.39214e-10
5.90413e-10
2.59518e-09
6.13829e-10
1.18875e-09
4.68203e-10
1.17707e-09
1.17722e-09
4.66851e-10
1.66226e-09
1.13968e-09
4.71222e-10
2.05854e-09
1.08618e-09
4.80522e-10
2.36418e-09
1.02405e-09
4.9385e-10
2.57974e-09
9.56665e-10
5.10111e-10
2.70766e-09
8.85819e-10
5.28112e-10
2.75255e-09
8.1365e-10
5.46598e-10
2.72157e-09
7.42233e-10
5.64201e-10
6.71149e-10
5.79248e-10
2.6233e-09
5.90146e-10
1.66821e-09
4.73006e-10
1.13932e-09
1.66096e-09
4.71108e-10
1.62149e-09
1.62116e-09
4.7458e-10
2.02084e-09
1.55644e-09
4.8252e-10
2.33147e-09
1.4752e-09
4.94065e-10
2.553e-09
1.38422e-09
5.08337e-10
2.68767e-09
1.28734e-09
5.24287e-10
2.73984e-09
1.18732e-09
5.40677e-10
2.71685e-09
1.08719e-09
5.56197e-10
9.8701e-10
5.69204e-10
2.62881e-09
5.60417e-10
2.05845e-09
4.83271e-10
1.08668e-09
2.05644e-09
4.80399e-10
1.55646e-09
2.01933e-09
4.82414e-10
1.95314e-09
1.95258e-09
4.88544e-10
2.26655e-09
1.86255e-09
4.97893e-10
2.4934e-09
1.75634e-09
5.09621e-10
2.63518e-09
1.64051e-09
5.22893e-10
2.69587e-09
1.51967e-09
5.36623e-10
2.68249e-09
1.39735e-09
5.49586e-10
1.27446e-09
5.60243e-10
2.60769e-09
5.26653e-10
2.35849e-09
4.97797e-10
1.0254e-09
2.36189e-09
4.9377e-10
1.47605e-09
2.32936e-09
4.93958e-10
1.86277e-09
2.26499e-09
4.97794e-10
2.17459e-09
2.17396e-09
5.04571e-10
2.40514e-09
2.06168e-09
5.13456e-10
2.55335e-09
1.93445e-09
5.23632e-10
2.62246e-09
1.79912e-09
5.3424e-10
2.6191e-09
1.66126e-09
5.44276e-10
1.52282e-09
5.52337e-10
2.55928e-09
4.90231e-10
2.56893e-09
5.15363e-10
9.5813e-10
2.57752e-09
5.10059e-10
1.38589e-09
2.5509e-09
5.08281e-10
1.75734e-09
2.49151e-09
5.09537e-10
2.06187e-09
2.40377e-09
5.13366e-10
2.29288e-09
2.29253e-09
5.19166e-10
2.44646e-09
2.16239e-09
5.261e-10
2.52322e-09
2.01933e-09
5.33308e-10
2.52933e-09
1.87152e-09
5.40048e-10
1.72427e-09
5.45251e-10
2.48502e-09
4.52358e-10
2.69219e-09
5.34738e-10
8.87109e-10
2.70567e-09
5.28085e-10
1.28913e-09
2.68578e-09
5.24269e-10
1.64242e-09
2.63343e-09
5.22871e-10
1.93543e-09
2.55176e-09
5.23553e-10
2.16203e-09
2.44528e-09
5.25961e-10
2.31847e-09
2.31851e-09
5.29515e-10
2.40236e-09
2.17576e-09
5.33271e-10
2.41749e-09
2.02448e-09
5.36451e-10
1.87433e-09
5.38529e-10
2.38827e-09
4.14092e-10
2.73279e-09
5.54641e-10
8.14783e-10
2.75089e-09
5.46605e-10
1.18895e-09
2.73824e-09
5.40688e-10
1.52176e-09
2.69434e-09
5.36635e-10
1.80123e-09
2.62103e-09
5.34222e-10
2.02001e-09
2.52185e-09
5.33158e-10
2.17525e-09
2.40145e-09
5.33092e-10
2.26484e-09
2.26473e-09
5.33221e-10
2.28932e-09
2.11767e-09
5.32732e-10
1.97154e-09
5.31514e-10
2.27435e-09
3.7656e-10
2.69768e-09
5.73707e-10
7.43181e-10
2.72034e-09
5.64244e-10
1.08857e-09
2.7156e-09
5.56237e-10
1.39911e-09
2.68125e-09
5.49614e-10
1.6634e-09
2.61792e-09
5.44286e-10
1.8733e-09
2.52825e-09
5.39981e-10
2.02499e-09
2.41653e-09
5.36316e-10
2.11769e-09
2.28859e-09
5.32643e-10
2.15156e-09
2.15122e-09
5.2831e-10
2.01702e-09
5.23387e-10
2.15132e-09
3.39597e-10
5.90485e-10
2.59454e-09
6.71891e-10
5.79317e-10
2.6226e-09
9.88071e-10
5.69266e-10
2.62801e-09
1.27579e-09
5.60289e-10
2.60682e-09
1.52432e-09
5.52358e-10
2.5584e-09
1.72577e-09
5.45241e-10
2.48419e-09
1.87543e-09
5.38496e-10
2.38755e-09
1.97208e-09
5.31464e-10
2.27377e-09
2.01724e-09
5.23333e-10
2.15095e-09
5.14252e-10
2.03009e-09
2.02996e-09
8.64022e-10
8.65381e-10
4.50182e-10
1.65115e-09
8.52673e-10
4.52573e-10
2.33058e-09
8.21848e-10
4.63973e-10
2.89709e-09
7.8363e-10
4.83427e-10
3.3518e-09
7.41842e-10
5.09612e-10
3.69626e-09
6.9767e-10
5.41124e-10
3.93338e-09
6.52241e-10
5.7655e-10
4.06781e-09
6.06905e-10
6.14387e-10
4.10638e-09
5.63124e-10
6.52921e-10
5.20599e-10
6.90239e-10
4.05577e-09
8.51215e-10
1.65083e-09
4.52455e-10
1.63727e-09
1.63795e-09
4.54539e-10
2.32402e-09
1.59155e-09
4.6517e-10
2.89929e-09
1.5253e-09
4.83299e-10
3.36235e-09
1.44914e-09
5.07837e-10
3.71457e-09
1.36752e-09
5.37526e-10
3.95887e-09
1.28265e-09
5.71001e-10
4.09994e-09
1.19722e-09
6.06766e-10
4.14472e-09
1.11385e-09
6.43061e-10
1.03163e-09
6.77552e-10
4.10008e-09
8.21359e-10
2.3286e-09
4.63831e-10
1.59058e-09
2.32283e-09
4.65052e-10
2.27534e-09
2.27546e-09
4.74303e-10
2.85639e-09
2.19673e-09
4.90473e-10
3.32722e-09
2.09791e-09
5.12524e-10
3.68802e-09
1.98816e-09
5.39429e-10
3.94144e-09
1.87256e-09
5.69974e-10
4.09178e-09
1.75453e-09
6.02653e-10
4.14625e-09
1.63783e-09
6.35743e-10
1.5219e-09
6.66871e-10
4.11349e-09
7.84372e-10
2.89466e-09
4.83336e-10
1.52556e-09
2.89706e-09
4.83177e-10
2.19615e-09
2.85491e-09
4.90362e-10
2.77568e-09
2.77554e-09
5.03969e-10
3.25157e-09
2.66733e-09
5.22938e-10
3.6199e-09
2.53978e-09
5.46289e-10
3.88249e-09
2.40181e-09
5.7304e-10
4.04317e-09
2.25945e-09
6.01848e-10
4.10887e-09
2.11704e-09
6.31072e-10
1.97484e-09
6.58401e-10
4.09164e-09
7.42865e-10
3.34926e-09
5.09554e-10
1.45065e-09
3.35992e-09
5.0777e-10
2.09852e-09
3.32497e-09
5.12416e-10
2.66695e-09
3.25001e-09
5.2283e-10
3.14221e-09
3.14199e-09
5.38186e-10
3.51599e-09
3.00803e-09
5.57527e-10
3.78654e-09
2.85656e-09
5.79888e-10
3.95702e-09
2.69682e-09
6.0418e-10
4.03406e-09
2.53617e-09
6.29034e-10
2.37595e-09
6.52212e-10
4.03424e-09
6.98574e-10
3.69381e-09
5.41095e-10
1.36924e-09
3.71221e-09
5.375e-10
1.99001e-09
3.68579e-09
5.39386e-10
2.54053e-09
3.6179e-09
5.46202e-10
3.00755e-09
3.51466e-09
5.57424e-10
3.38256e-09
3.3827e-09
5.72375e-10
3.6597e-09
3.22804e-09
5.90072e-10
3.83857e-09
3.0585e-09
6.09427e-10
3.92562e-09
2.88524e-09
6.29378e-10
2.7143e-09
6.48011e-10
3.94336e-09
6.53035e-10
3.93117e-09
5.76563e-10
1.28416e-09
3.95675e-09
5.71014e-10
1.87467e-09
3.93943e-09
5.69984e-10
2.40395e-09
3.88065e-09
5.73031e-10
2.85723e-09
3.78486e-09
5.79797e-10
3.22671e-09
3.65845e-09
5.89898e-10
3.50707e-09
3.50766e-09
6.02664e-10
3.69344e-09
3.33779e-09
6.16897e-10
3.78906e-09
3.15864e-09
6.31475e-10
2.9827e-09
6.45111e-10
3.82309e-09
6.07592e-10
4.06598e-09
6.14452e-10
1.19856e-09
4.09817e-09
6.06827e-10
1.75647e-09
4.09006e-09
6.02702e-10
2.26196e-09
4.04153e-09
6.01879e-10
2.69925e-09
3.95547e-09
6.04156e-10
3.05863e-09
3.83691e-09
6.09219e-10
3.33626e-09
3.69231e-09
6.16648e-10
3.52761e-09
3.52783e-09
6.25367e-10
3.63137e-09
3.35106e-09
6.34219e-10
3.17714e-09
6.42464e-10
3.67959e-09
5.63694e-10
4.10502e-09
6.53039e-10
1.11497e-09
4.14339e-09
6.43169e-10
1.63945e-09
4.1449e-09
6.3583e-10
2.11913e-09
4.10753e-09
6.31125e-10
2.53876e-09
4.03274e-09
6.29041e-10
2.88714e-09
3.92431e-09
6.29264e-10
3.15865e-09
3.78783e-09
6.31267e-10
3.35055e-09
3.63051e-09
6.34086e-10
3.46118e-09
3.46097e-09
6.36724e-10
3.29596e-09
6.38696e-10
3.52207e-09
5.21047e-10
6.90391e-10
4.05502e-09
1.0325e-09
6.77691e-10
4.09927e-09
1.52315e-09
6.66984e-10
4.1126e-09
1.97639e-09
6.58475e-10
4.09069e-09
2.3777e-09
6.52237e-10
4.03326e-09
2.71599e-09
6.47978e-10
3.94241e-09
2.98387e-09
6.45045e-10
3.82224e-09
3.17751e-09
6.42379e-10
3.6789e-09
3.29592e-09
6.38611e-10
3.52161e-09
6.33424e-10
3.36427e-09
3.36418e-09
1.1421e-09
1.1442e-09
3.52033e-10
2.18847e-09
1.12927e-09
3.59231e-10
3.10311e-09
1.09195e-09
3.78238e-10
3.88248e-09
1.0463e-09
4.07769e-10
4.53021e-09
9.97214e-10
4.46387e-10
5.0493e-09
9.46116e-10
4.92659e-10
5.44346e-09
8.94368e-10
5.45156e-10
5.7174e-09
8.4365e-10
6.023e-10
5.87726e-09
7.95809e-10
6.62167e-10
7.50315e-10
7.22524e-10
5.92777e-09
1.12705e-09
2.18857e-09
3.59125e-10
2.1737e-09
2.17511e-09
3.65756e-10
3.09942e-09
2.12031e-09
3.83638e-10
3.8915e-09
2.04194e-09
4.11468e-10
4.55118e-09
1.95296e-09
4.48023e-10
5.08123e-09
1.85903e-09
4.91995e-10
5.48542e-09
1.76283e-09
5.41988e-10
5.76843e-09
1.66771e-09
5.96409e-10
5.93637e-09
1.57687e-09
6.5324e-10
1.48859e-09
7.09637e-10
5.99278e-09
1.09103e-09
3.1012e-09
3.78112e-10
2.11852e-09
3.09851e-09
3.83535e-10
3.04412e-09
3.04494e-09
3.99526e-10
3.84568e-09
2.95367e-09
4.2482e-10
4.51673e-09
2.83929e-09
4.5826e-10
5.0586e-09
2.71369e-09
4.98747e-10
5.47468e-09
2.58342e-09
5.45019e-10
5.76906e-09
2.45261e-09
5.95438e-10
5.94823e-09
2.3258e-09
6.47989e-10
2.20132e-09
6.9969e-10
6.01758e-09
1.04704e-09
3.88008e-09
4.077e-10
2.04181e-09
3.88933e-09
4.11368e-10
2.95225e-09
3.84444e-09
4.24723e-10
3.75442e-09
3.75494e-09
4.46748e-10
4.43365e-09
3.63152e-09
4.76306e-10
4.98583e-09
3.48646e-09
5.12355e-10
5.41341e-09
3.33146e-09
5.53848e-10
5.71988e-09
3.17423e-09
5.99293e-10
5.91154e-09
3.01991e-09
6.46751e-10
2.86734e-09
6.9321e-10
5.99803e-09
9.98367e-10
4.5277e-09
4.46365e-10
1.95455e-09
4.54877e-09
4.47986e-10
2.83948e-09
4.5145e-09
4.58172e-10
3.63027e-09
4.43227e-09
4.76207e-10
4.31067e-09
4.3111e-09
5.01219e-10
4.87065e-09
4.16015e-09
5.32217e-10
5.30789e-09
3.99033e-09
5.6818e-10
5.62533e-09
3.81374e-09
6.07866e-10
5.82912e-09
3.63976e-09
6.49618e-10
3.46806e-09
6.90396e-10
5.93464e-09
9.47139e-10
5.04689e-09
4.92682e-10
1.86097e-09
5.07891e-09
4.92013e-10
2.71563e-09
5.05639e-09
4.98733e-10
3.48677e-09
4.98388e-09
5.12281e-10
4.15871e-09
4.86952e-09
5.32118e-10
4.72126e-09
4.72214e-09
5.57559e-10
5.16647e-09
4.54943e-09
5.87582e-10
5.49271e-09
4.36138e-09
6.20955e-10
5.70623e-09
4.17263e-09
6.56338e-10
3.98903e-09
6.90922e-10
5.83033e-09
8.95269e-10
5.44128e-09
5.45235e-10
1.76455e-09
5.48333e-09
5.42059e-10
2.58579e-09
5.4727e-09
5.45069e-10
3.33377e-09
5.41161e-09
5.5386e-10
3.99049e-09
5.30623e-09
5.68092e-10
4.54676e-09
5.16526e-09
5.87394e-10
4.99567e-09
4.99705e-09
6.11076e-10
5.32931e-09
4.80801e-09
6.37794e-10
5.54972e-09
4.61064e-09
6.66134e-10
4.41975e-09
6.93897e-10
5.68985e-09
8.44434e-10
5.71558e-09
6.02445e-10
1.66923e-09
5.76667e-09
5.96538e-10
2.45482e-09
5.76735e-09
5.95537e-10
3.17714e-09
5.71823e-09
5.9935e-10
3.81644e-09
5.62372e-09
6.07839e-10
4.36065e-09
5.49072e-09
6.20706e-10
4.80507e-09
5.32789e-09
6.37495e-10
5.14208e-09
5.14275e-09
6.56938e-10
5.3677e-09
4.94465e-09
6.77589e-10
4.75251e-09
6.97891e-10
5.51986e-09
7.96457e-10
5.87587e-09
6.62377e-10
1.57814e-09
5.93501e-09
6.53428e-10
2.32764e-09
5.94686e-09
6.48132e-10
3.02231e-09
5.91016e-09
6.46831e-10
3.64277e-09
5.8277e-09
6.49621e-10
4.17452e-09
5.70468e-09
6.56178e-10
4.60988e-09
5.54816e-09
6.6586e-10
4.9434e-09
5.36669e-09
6.7742e-10
5.17077e-09
5.17076e-09
6.89545e-10
4.98121e-09
7.0099e-10
5.33001e-09
7.50823e-10
7.22771e-10
5.92691e-09
1.48957e-09
7.09858e-10
5.99189e-09
2.20272e-09
6.99863e-10
6.01663e-09
2.86909e-09
6.93316e-10
5.99702e-09
3.47001e-09
6.90423e-10
5.9336e-09
3.99085e-09
6.90863e-10
5.82927e-09
4.42089e-09
6.93793e-10
5.68887e-09
4.75258e-09
6.97772e-10
5.51903e-09
4.98077e-09
7.00876e-10
5.32941e-09
7.02133e-10
5.13652e-09
5.13648e-09
1.44337e-09
1.44635e-09
1.56399e-10
2.77237e-09
1.42953e-09
1.69178e-10
3.94671e-09
1.38617e-09
1.95776e-10
4.96574e-09
1.33388e-09
2.3458e-10
5.83661e-09
1.27873e-09
2.84175e-10
6.56455e-09
1.22236e-09
3.43287e-10
7.15454e-09
1.16643e-09
4.1066e-10
7.61154e-09
1.113e-09
4.8486e-10
7.9406e-09
1.06435e-09
5.63995e-10
1.01955e-09
6.45805e-10
8.14383e-09
1.42641e-09
2.77309e-09
1.69108e-10
2.75759e-09
2.75996e-09
1.81024e-10
3.94747e-09
2.69788e-09
2.06156e-10
4.98382e-09
2.60908e-09
2.42995e-10
5.87083e-09
2.5097e-09
2.9027e-10
6.61345e-09
2.40675e-09
3.46778e-10
7.21676e-09