/*--------------------------------*- C++ -*----------------------------------*\
| =========                 |                                                 |
| \\      /  F ield         | foam-extend: Open Source CFD                    |
|  \\    /   O peration     | Version:     3.1                                |
|   \\  /    A nd           | Web:         http://www.extend-project.de       |
|    \\/     M anipulation  |                                                 |
\*---------------------------------------------------------------------------*/
FoamFile
{
    version     2.0;
    format      ascii;
    class       volScalarField;
    location    "0.002";
    object      p;
}
// * * * * * * * * * * * * * * * * * * * * * * * * * * * * * * * * * * * * * //

dimensions      [0 2 -2 0 0 0 0];

internalField   nonuniform List<scalar> 
16000
(
1.3296
1.32968
1.32984
1.33007
1.33038
1.33076
1.33121
1.33172
1.33228
1.33289
1.32968
1.32975
1.3299
1.33012
1.33042
1.33078
1.33122
1.33171
1.33226
1.33284
1.32984
1.3299
1.33004
1.33025
1.33053
1.33087
1.33128
1.33175
1.33228
1.33284
1.33007
1.33012
1.33025
1.33044
1.3307
1.33102
1.33141
1.33185
1.33235
1.33289
1.33038
1.33042
1.33053
1.3307
1.33093
1.33123
1.33159
1.332
1.33247
1.33297
1.33076
1.33078
1.33087
1.33102
1.33123
1.3315
1.33183
1.33221
1.33263
1.3331
1.33121
1.33122
1.33128
1.33141
1.33159
1.33183
1.33212
1.33246
1.33284
1.33326
1.33172
1.33171
1.33175
1.33185
1.332
1.33221
1.33246
1.33275
1.33309
1.33345
1.33228
1.33226
1.33228
1.33235
1.33247
1.33263
1.33284
1.33309
1.33337
1.33368
1.33289
1.33284
1.33284
1.33289
1.33297
1.3331
1.33326
1.33345
1.33368
1.33393
1.32228
1.32253
1.32303
1.32377
1.32475
1.32596
1.32739
1.32902
1.33082
1.33277
1.32253
1.32276
1.32323
1.32394
1.32488
1.32604
1.32741
1.32897
1.33071
1.33259
1.32303
1.32323
1.32367
1.32433
1.32522
1.32632
1.32762
1.32911
1.33077
1.33257
1.32377
1.32394
1.32433
1.32494
1.32576
1.32679
1.32802
1.32942
1.33099
1.3327
1.32475
1.32488
1.32522
1.32576
1.32652
1.32747
1.3286
1.32991
1.33139
1.33299
1.32596
1.32604
1.32632
1.32679
1.32747
1.32833
1.32937
1.33058
1.33194
1.33343
1.32739
1.32741
1.32762
1.32802
1.3286
1.32937
1.3303
1.3314
1.33265
1.33402
1.32902
1.32897
1.32911
1.32942
1.32991
1.33058
1.3314
1.33238
1.33351
1.33475
1.33082
1.33071
1.33077
1.33099
1.33138
1.33194
1.33265
1.33351
1.3345
1.33561
1.33276
1.33259
1.33257
1.3327
1.33299
1.33343
1.33402
1.33475
1.33561
1.33659
1.3134
1.31384
1.3147
1.316
1.31771
1.31983
1.32235
1.32523
1.32847
1.33201
1.31384
1.31424
1.31506
1.31629
1.31793
1.31997
1.32238
1.32516
1.32827
1.33169
1.3147
1.31506
1.31582
1.31698
1.31853
1.32046
1.32275
1.3254
1.32838
1.33165
1.316
1.31629
1.31698
1.31804
1.31949
1.3213
1.32346
1.32597
1.32879
1.3319
1.31771
1.31793
1.31853
1.31949
1.32081
1.32248
1.3245
1.32685
1.3295
1.33243
1.31983
1.31997
1.32046
1.3213
1.32248
1.32401
1.32587
1.32804
1.33051
1.33325
1.32235
1.32238
1.32275
1.32346
1.3245
1.32587
1.32755
1.32953
1.3318
1.33433
1.32523
1.32516
1.3254
1.32597
1.32685
1.32804
1.32953
1.33131
1.33337
1.33568
1.32846
1.32827
1.32838
1.32879
1.3295
1.33051
1.3318
1.33337
1.3352
1.33728
1.33201
1.33169
1.33165
1.3319
1.33243
1.33324
1.33433
1.33568
1.33728
1.33911
1.3016
1.30223
1.30349
1.30538
1.30789
1.31101
1.31472
1.31902
1.32388
1.32926
1.30223
1.30282
1.30401
1.30581
1.30822
1.31121
1.31478
1.31891
1.32359
1.32877
1.30349
1.30401
1.30512
1.30681
1.30909
1.31193
1.31533
1.31928
1.32375
1.32872
1.30538
1.30581
1.30681
1.30838
1.3105
1.31317
1.31639
1.32013
1.32438
1.3291
1.30789
1.30821
1.30909
1.3105
1.31245
1.31493
1.31794
1.32145
1.32546
1.32992
1.31101
1.31121
1.31193
1.31317
1.31493
1.31721
1.31998
1.32325
1.32699
1.33117
1.31472
1.31478
1.31533
1.31639
1.31794
1.31998
1.32251
1.32551
1.32896
1.33284
1.31902
1.31891
1.31928
1.32013
1.32145
1.32325
1.32551
1.32822
1.33137
1.33493
1.32388
1.32359
1.32375
1.32438
1.32545
1.32699
1.32896
1.33137
1.33419
1.33742
1.32926
1.32877
1.32872
1.3291
1.32992
1.33117
1.33284
1.33493
1.33742
1.34029
1.28565
1.28649
1.28816
1.29067
1.29402
1.29821
1.30322
1.30906
1.31571
1.32315
1.28649
1.28727
1.28886
1.29126
1.29446
1.29848
1.30329
1.30891
1.31531
1.32248
1.28816
1.28886
1.29033
1.29259
1.29563
1.29945
1.30405
1.30942
1.31554
1.32241
1.29067
1.29126
1.29259
1.29468
1.29753
1.30113
1.30548
1.31058
1.31641
1.32295
1.29402
1.29446
1.29563
1.29753
1.30016
1.30351
1.3076
1.3124
1.3179
1.3241
1.2982
1.29848
1.29945
1.30113
1.30351
1.3066
1.31039
1.31487
1.32003
1.32585
1.30322
1.30329
1.30405
1.30548
1.30759
1.31039
1.31385
1.31799
1.32278
1.3282
1.30905
1.30891
1.30941
1.31058
1.31239
1.31486
1.31798
1.32175
1.32614
1.33115
1.3157
1.31531
1.31554
1.31641
1.3179
1.32003
1.32278
1.32614
1.33012
1.33467
1.32314
1.32247
1.32241
1.32295
1.3241
1.32585
1.3282
1.33115
1.33467
1.33876
1.26428
1.26532
1.2674
1.27053
1.27471
1.27996
1.2863
1.29373
1.30226
1.3119
1.26532
1.26628
1.26826
1.27125
1.27527
1.28031
1.2864
1.29354
1.30176
1.31103
1.2674
1.26826
1.2701
1.27292
1.27673
1.28154
1.28736
1.2942
1.30206
1.31095
1.27053
1.27125
1.27292
1.27554
1.27912
1.28367
1.28918
1.29569
1.30318
1.31167
1.27471
1.27526
1.27673
1.27912
1.28244
1.28669
1.29188
1.29803
1.30513
1.31317
1.27996
1.28031
1.28154
1.28366
1.28669
1.29061
1.29545
1.30121
1.30789
1.31548
1.2863
1.2864
1.28736
1.28918
1.29188
1.29545
1.29991
1.30525
1.31147
1.31857
1.29372
1.29354
1.29419
1.29569
1.29802
1.30121
1.30525
1.31014
1.31588
1.32246
1.30226
1.30175
1.30206
1.30318
1.30512
1.30789
1.31147
1.31588
1.32111
1.32714
1.3119
1.31103
1.31095
1.31166
1.31317
1.31547
1.31857
1.32246
1.32714
1.33259
1.23623
1.23745
1.23989
1.24358
1.24852
1.25475
1.26232
1.27126
1.28162
1.29344
1.23745
1.23859
1.24091
1.24443
1.24918
1.25517
1.26244
1.27104
1.28101
1.29238
1.23989
1.24091
1.24308
1.24641
1.25092
1.25664
1.2636
1.27183
1.28139
1.29229
1.24358
1.24443
1.24641
1.24951
1.25376
1.25918
1.2658
1.27365
1.28276
1.29317
1.24852
1.24917
1.25092
1.25376
1.25771
1.2628
1.26905
1.27649
1.28515
1.29504
1.25475
1.25517
1.25664
1.25918
1.2628
1.26752
1.27337
1.28037
1.28854
1.2979
1.26232
1.26244
1.2636
1.26579
1.26905
1.27337
1.27879
1.28531
1.29297
1.30176
1.27126
1.27104
1.27183
1.27364
1.27649
1.28037
1.28531
1.29132
1.29843
1.30662
1.28162
1.281
1.28138
1.28276
1.28514
1.28854
1.29297
1.29843
1.30494
1.3125
1.29344
1.29238
1.29228
1.29317
1.29504
1.2979
1.30176
1.30662
1.3125
1.31938
1.20041
1.20176
1.20447
1.20857
1.21409
1.22109
1.22964
1.23983
1.25174
1.26548
1.20176
1.20302
1.2056
1.20952
1.21482
1.22156
1.22978
1.23958
1.25104
1.26424
1.20447
1.2056
1.20801
1.21173
1.21678
1.22322
1.2311
1.24049
1.25148
1.26414
1.20856
1.20952
1.21172
1.2152
1.21997
1.22609
1.2336
1.24257
1.25307
1.26518
1.21409
1.21482
1.21678
1.21997
1.22443
1.2302
1.23731
1.24584
1.25584
1.26737
1.22109
1.22155
1.22321
1.22609
1.2302
1.23557
1.24227
1.25032
1.2598
1.27073
1.22964
1.22978
1.23109
1.2336
1.23731
1.24227
1.2485
1.25605
1.26497
1.27528
1.23982
1.23958
1.24049
1.24257
1.24584
1.25032
1.25605
1.26305
1.27138
1.28104
1.25173
1.25103
1.25147
1.25307
1.25584
1.2598
1.26496
1.27138
1.27906
1.28803
1.26547
1.26423
1.26413
1.26517
1.26737
1.27073
1.27528
1.28104
1.28803
1.29627
1.15599
1.15739
1.16022
1.1645
1.1703
1.1777
1.1868
1.19773
1.21063
1.22569
1.15739
1.1587
1.1614
1.1655
1.17108
1.17819
1.18695
1.19746
1.20987
1.22433
1.16022
1.1614
1.16392
1.16782
1.17314
1.17996
1.18836
1.19845
1.21035
1.22421
1.1645
1.1655
1.16782
1.17147
1.17652
1.18301
1.19104
1.2007
1.2121
1.22536
1.1703
1.17108
1.17314
1.17652
1.18125
1.1874
1.19503
1.20424
1.21512
1.22779
1.1777
1.17819
1.17996
1.18301
1.1874
1.19316
1.20037
1.20911
1.21946
1.23151
1.18679
1.18695
1.18835
1.19104
1.19503
1.20037
1.20712
1.21535
1.22515
1.23656
1.19772
1.19746
1.19844
1.20069
1.20423
1.2091
1.21535
1.22304
1.23224
1.24299
1.21063
1.20987
1.21035
1.21209
1.21512
1.21946
1.22515
1.23224
1.24079
1.25084
1.22568
1.22432
1.22421
1.22536
1.22778
1.23151
1.23656
1.24299
1.25084
1.26015
1.10257
1.10393
1.10666
1.11083
1.11649
1.12375
1.13276
1.14367
1.15669
1.17207
1.10393
1.1052
1.10781
1.1118
1.11725
1.12424
1.13291
1.1434
1.15592
1.17066
1.10666
1.10781
1.11026
1.11406
1.11927
1.12598
1.1343
1.14439
1.1564
1.17055
1.11083
1.1118
1.11406
1.11764
1.12259
1.129
1.13697
1.14664
1.15817
1.17172
1.11649
1.11725
1.11927
1.12259
1.12726
1.13335
1.14096
1.15021
1.16124
1.17421
1.12375
1.12424
1.12598
1.129
1.13335
1.13909
1.14631
1.15513
1.16566
1.17804
1.13275
1.13291
1.1343
1.13697
1.14096
1.14631
1.15312
1.16148
1.17149
1.18327
1.14366
1.1434
1.14438
1.14664
1.15021
1.15513
1.16148
1.16933
1.1788
1.18996
1.15669
1.15591
1.1564
1.15817
1.16124
1.16566
1.17149
1.1788
1.18768
1.19818
1.17206
1.17066
1.17054
1.17172
1.17421
1.17804
1.18327
1.18996
1.19818
1.208
1.04039
1.04158
1.04398
1.04764
1.05266
1.05913
1.06721
1.07711
1.08906
1.10335
1.04158
1.04269
1.04498
1.04851
1.05333
1.05956
1.06735
1.07686
1.08834
1.10204
1.04398
1.04498
1.04714
1.0505
1.05512
1.06112
1.0686
1.07775
1.08878
1.10192
1.04764
1.04851
1.0505
1.05367
1.05808
1.06382
1.07101
1.07981
1.0904
1.103
1.05265
1.05333
1.05512
1.05808
1.06225
1.06773
1.07462
1.08306
1.09323
1.10532
1.05913
1.05956
1.06111
1.06382
1.06773
1.07292
1.07949
1.08757
1.09732
1.10891
1.06721
1.06735
1.0686
1.07101
1.07462
1.07949
1.08572
1.09343
1.10275
1.11383
1.07711
1.07686
1.07775
1.07981
1.08306
1.08757
1.09343
1.10073
1.1096
1.12016
1.08905
1.08833
1.08878
1.0904
1.09323
1.09732
1.10275
1.1096
1.11799
1.12801
1.10335
1.10203
1.10192
1.103
1.10532
1.10891
1.11383
1.12016
1.128
1.13747
0.970392
0.971287
0.9731
0.975877
0.979694
0.984656
0.99091
0.998647
1.00811
1.01963
0.971287
0.972129
0.973862
0.976532
0.980208
0.984989
0.99101
0.998449
1.00753
1.01855
0.973099
0.973861
0.975496
0.978046
0.981576
0.986178
0.991977
0.999137
1.00787
1.01844
0.975877
0.976531
0.978046
0.980461
0.983836
0.988257
0.99384
1.00074
1.00914
1.01929
0.979693
0.980207
0.981575
0.983835
0.987043
0.991276
0.996644
1.00329
1.01138
1.02114
0.984655
0.984988
0.986177
0.988256
0.991276
0.995309
1.00046
1.00684
1.01464
1.02403
0.990908
0.991008
0.991975
0.993839
0.996643
1.00046
1.00537
1.0115
1.01899
1.02802
0.998645
0.998447
0.999135
1.00074
1.00328
1.00684
1.0115
1.01735
1.02454
1.0332
1.00811
1.00753
1.00787
1.00914
1.01138
1.01464
1.01899
1.02454
1.0314
1.0397
1.01962
1.01855
1.01843
1.01929
1.02114
1.02403
1.02802
1.0332
1.0397
1.04764
0.894344
0.89484
0.895845
0.897392
0.899529
0.902329
0.905896
0.91037
0.915943
0.922873
0.89484
0.895307
0.896268
0.897756
0.899815
0.902513
0.905947
0.910246
0.915587
0.922207
0.895845
0.896268
0.897176
0.898598
0.900577
0.903177
0.906486
0.910627
0.915762
0.922109
0.897391
0.897755
0.898598
0.899946
0.901842
0.904344
0.907536
0.911531
0.916482
0.922587
0.899528
0.899814
0.900576
0.901841
0.903647
0.90605
0.909128
0.912989
0.917772
0.923659
0.902328
0.902512
0.903176
0.904343
0.90605
0.908349
0.911314
0.915045
0.919672
0.925361
0.905894
0.905945
0.906485
0.907535
0.909128
0.911314
0.914162
0.917765
0.922245
0.92775
0.910368
0.910244
0.910625
0.91153
0.912988
0.915044
0.917765
0.921237
0.925572
0.930903
0.915941
0.915585
0.91576
0.916481
0.91777
0.919671
0.922243
0.925571
0.92976
0.93493
0.922871
0.922205
0.922107
0.922585
0.923657
0.92536
0.927748
0.930902
0.93493
0.939968
0.814724
0.814758
0.814824
0.814931
0.815084
0.815296
0.815589
0.816003
0.816601
0.817487
0.814758
0.81479
0.814854
0.814955
0.815101
0.815303
0.815584
0.815978
0.816544
0.817378
0.814824
0.814853
0.814911
0.815006
0.815143
0.815335
0.815602
0.815979
0.81652
0.817313
0.81493
0.814954
0.815005
0.815091
0.815217
0.815398
0.815652
0.816014
0.816536
0.817299
0.815083
0.8151
0.815142
0.815217
0.815333
0.815502
0.815745
0.816094
0.816601
0.817344
0.815295
0.815302
0.815334
0.815397
0.815501
0.815659
0.815893
0.816234
0.816731
0.817462
0.815588
0.815582
0.815601
0.815652
0.815744
0.815892
0.81612
0.816457
0.816951
0.817678
0.816001
0.815976
0.815977
0.816013
0.816093
0.816233
0.816456
0.816795
0.817295
0.818031
0.816599
0.816542
0.816518
0.816534
0.816599
0.81673
0.81695
0.817295
0.817814
0.81858
0.817484
0.817375
0.817311
0.817297
0.817342
0.81746
0.817677
0.81803
0.818579
0.81942
0.734484
0.734059
0.733191
0.731855
0.730008
0.727587
0.724511
0.720682
0.715979
0.710266
0.734059
0.733659
0.732826
0.731539
0.729755
0.727417
0.724452
0.720768
0.716253
0.710783
0.73319
0.732826
0.732034
0.730795
0.729069
0.726806
0.723938
0.720379
0.716027
0.710771
0.731855
0.731538
0.730794
0.729606
0.727938
0.725743
0.722959
0.71951
0.715302
0.710235
0.730007
0.729754
0.729069
0.727937
0.726328
0.7242
0.721495
0.718145
0.714065
0.709169
0.727585
0.727416
0.726805
0.725742
0.724199
0.72214
0.719514
0.716257
0.712295
0.707557
0.724509
0.724451
0.723936
0.722958
0.721494
0.719513
0.71697
0.713809
0.709963
0.705375
0.72068
0.720766
0.720377
0.719508
0.718143
0.716256
0.713808
0.710752
0.707027
0.702591
0.715976
0.716251
0.716025
0.7153
0.714063
0.712294
0.709961
0.707026
0.70344
0.699175
0.710263
0.71078
0.710768
0.710233
0.709167
0.707555
0.705373
0.702589
0.699175
0.695127
0.656643
0.655835
0.654186
0.651645
0.648121
0.643487
0.637568
0.630134
0.620884
0.60943
0.655835
0.655074
0.653493
0.651044
0.647643
0.643172
0.63747
0.630323
0.621453
0.610507
0.654185
0.653493
0.651992
0.649637
0.646352
0.642028
0.636514
0.629613
0.621069
0.61056
0.651644
0.651043
0.649637
0.647384
0.644213
0.640024
0.634677
0.62799
0.619727
0.609594
0.64812
0.647642
0.646351
0.644212
0.641161
0.637102
0.631909
0.625412
0.617393
0.607591
0.643485
0.643171
0.642026
0.640022
0.637101
0.633178
0.628133
0.621812
0.614012
0.604502
0.637566
0.637468
0.636512
0.634675
0.631907
0.628132
0.623242
0.617092
0.609497
0.600252
0.630131
0.63032
0.629611
0.627988
0.62541
0.62181
0.617091
0.611122
0.60373
0.594738
0.62088
0.621449
0.621066
0.619724
0.617391
0.61401
0.609495
0.603729
0.596557
0.587828
0.609426
0.610503
0.610556
0.609591
0.607588
0.604499
0.60025
0.594737
0.587827
0.579396
0.583793
0.582737
0.580585
0.577271
0.572685
0.566664
0.558986
0.549351
0.537358
0.522479
0.582737
0.581743
0.579682
0.576492
0.572068
0.566263
0.558869
0.549609
0.538115
0.523899
0.580584
0.579682
0.577728
0.574667
0.570402
0.564795
0.557654
0.548721
0.537655
0.524013
0.57727
0.576491
0.574667
0.571746
0.56764
0.56222
0.555307
0.546663
0.53597
0.522825
0.572683
0.572067
0.570401
0.567639
0.5637
0.558464
0.551765
0.543381
0.533018
0.520308
0.566661
0.566261
0.564793
0.562218
0.558463
0.553418
0.546928
0.538787
0.528722
0.5164
0.558983
0.558866
0.557651
0.555305
0.551764
0.546927
0.540654
0.532751
0.522964
0.510995
0.549347
0.549606
0.548718
0.54666
0.543379
0.538785
0.53275
0.525094
0.515583
0.503948
0.537354
0.53811
0.537651
0.535967
0.533015
0.528719
0.522962
0.515581
0.506359
0.495061
0.522473
0.523894
0.524008
0.52282
0.520304
0.516396
0.510993
0.503946
0.49506
0.484125
0.517667
0.516524
0.514201
0.510638
0.505733
0.499339
0.491253
0.481201
0.468819
0.453622
0.516524
0.515451
0.51323
0.509805
0.505081
0.498922
0.49114
0.481482
0.469611
0.455083
0.5142
0.513229
0.511133
0.507858
0.503317
0.497384
0.489885
0.480584
0.469169
0.455233
0.510637
0.509804
0.507857
0.504749
0.5004
0.49469
0.487459
0.478487
0.467484
0.454079
0.505731
0.505079
0.503316
0.500399
0.496254
0.490772
0.483802
0.475141
0.464519
0.451597
0.499336
0.498919
0.497382
0.494689
0.490771
0.48553
0.478825
0.470467
0.460204
0.447728
0.491249
0.491137
0.489882
0.487456
0.483801
0.478824
0.472398
0.464345
0.454432
0.44238
0.481197
0.481478
0.48058
0.478484
0.475139
0.470465
0.464344
0.456613
0.447055
0.435418
0.468814
0.469606
0.469164
0.46748
0.464516
0.460201
0.45443
0.447054
0.437871
0.426656
0.453615
0.455076
0.455227
0.454074
0.451592
0.447724
0.442377
0.435415
0.426655
0.415891
0.458932
0.457846
0.455649
0.452302
0.447741
0.441874
0.434578
0.42569
0.415002
0.402248
0.457846
0.45683
0.454735
0.451526
0.447142
0.4415
0.434483
0.425944
0.415688
0.40347
0.455648
0.454734
0.452768
0.449717
0.445525
0.440114
0.433378
0.425178
0.415335
0.403624
0.452301
0.451524
0.449716
0.446846
0.442863
0.437694
0.431243
0.423379
0.413938
0.402713
0.44774
0.44714
0.445523
0.442862
0.439109
0.4342
0.428043
0.420519
0.411475
0.400723
0.441872
0.441497
0.440112
0.437693
0.434199
0.429571
0.423725
0.416551
0.407907
0.397624
0.434574
0.43448
0.433375
0.43124
0.428041
0.423723
0.418212
0.411407
0.403176
0.393367
0.425685
0.425939
0.425174
0.423376
0.420516
0.416549
0.411406
0.404997
0.3972
0.387878
0.414995
0.415682
0.41533
0.413933
0.411471
0.407904
0.403174
0.397199
0.389868
0.381061
0.40224
0.403463
0.403618
0.402706
0.400717
0.397619
0.393363
0.387876
0.381059
0.372804
0.407275
0.406339
0.404455
0.401615
0.397801
0.392995
0.387175
0.380324
0.372434
0.363522
0.406339
0.405466
0.403676
0.400962
0.397307
0.392695
0.387105
0.380522
0.372936
0.364362
0.404454
0.403676
0.40201
0.399448
0.395979
0.391585
0.386249
0.379956
0.3727
0.36449
0.401613
0.400961
0.399448
0.397068
0.39381
0.38966
0.384602
0.378625
0.371723
0.363904
0.397799
0.397306
0.395977
0.393809
0.390792
0.386913
0.382161
0.376526
0.370004
0.362606
0.392992
0.392692
0.391582
0.389658
0.386912
0.383335
0.378919
0.373657
0.367546
0.360599
0.387171
0.387101
0.386245
0.3846
0.382159
0.378918
0.374871
0.370014
0.364348
0.357888
0.380318
0.380516
0.379952
0.378621
0.376523
0.373654
0.370013
0.365598
0.360415
0.35448
0.372427
0.37293
0.372694
0.371717
0.37
0.367542
0.364346
0.360414
0.355756
0.350387
0.363513
0.364353
0.364482
0.363897
0.3626
0.360594
0.357884
0.354477
0.350386
0.345634
0.361753
0.360992
0.359471
0.357207
0.354221
0.350554
0.346266
0.341452
0.33626
0.330912
0.360992
0.360286
0.358847
0.356691
0.35384
0.35033
0.346217
0.341589
0.336582
0.331396
0.359471
0.358847
0.35752
0.355504
0.35282
0.349503
0.345605
0.34121
0.336441
0.331484
0.357205
0.35669
0.355503
0.353657
0.351173
0.348083
0.34444
0.34032
0.335841
0.331173
0.354219
0.353838
0.352818
0.351172
0.348919
0.346091
0.342739
0.338937
0.334795
0.330472
0.350551
0.350327
0.3495
0.348081
0.34609
0.343559
0.340535
0.337092
0.333334
0.329409
0.346262
0.346213
0.345602
0.344437
0.342737
0.340534
0.337876
0.334832
0.331503
0.328028
0.341446
0.341584
0.341205
0.340316
0.338934
0.33709
0.33483
0.332225
0.329369
0.326393
0.336252
0.336574
0.336435
0.335835
0.33479
0.33333
0.3315
0.329368
0.327027
0.324599
0.330902
0.331386
0.331476
0.331165
0.330465
0.329403
0.328023
0.32639
0.324597
0.322765
0.321234
0.32062
0.319401
0.317602
0.315268
0.312463
0.309281
0.305859
0.302395
0.299168
0.32062
0.320052
0.318902
0.317196
0.314972
0.312292
0.309244
0.305953
0.3026
0.299442
0.3194
0.318902
0.317849
0.316264
0.314186
0.31167
0.308798
0.305689
0.30251
0.299496
0.317601
0.317195
0.316264
0.31483
0.312928
0.310611
0.307957
0.305078
0.302128
0.299324
0.315266
0.31497
0.314184
0.312927
0.311231
0.309148
0.30675
0.304143
0.301472
0.298939
0.312459
0.312289
0.311667
0.310609
0.309146
0.307327
0.305221
0.302927
0.300582
0.298373
0.309276
0.309239
0.308794
0.307954
0.306748
0.30522
0.303436
0.301492
0.299516
0.29768
0.305853
0.305947
0.305684
0.305073
0.304139
0.302924
0.30149
0.299928
0.298358
0.296939
0.302387
0.302592
0.302503
0.302121
0.301467
0.300578
0.299513
0.298356
0.297225
0.296262
0.299157
0.299432
0.299487
0.299315
0.298931
0.298366
0.297675
0.296936
0.29626
0.295791
0.284768
0.284247
0.283213
0.281692
0.279723
0.277363
0.274691
0.271818
0.268893
0.266115
0.284247
0.283765
0.282791
0.281348
0.279473
0.277218
0.274657
0.271893
0.269063
0.26635
0.283212
0.28279
0.281899
0.28056
0.278808
0.27669
0.274278
0.271664
0.268977
0.266385
0.281691
0.281347
0.28056
0.279349
0.277746
0.275796
0.273564
0.271138
0.268637
0.266215
0.279721
0.27947
0.278806
0.277745
0.276315
0.27456
0.272539
0.270335
0.268058
0.26585
0.277359
0.277214
0.276688
0.275794
0.274558
0.273022
0.271239
0.269287
0.267267
0.265312
0.274686
0.274652
0.274274
0.273561
0.272537
0.271237
0.269715
0.26804
0.266307
0.264638
0.271811
0.271887
0.271658
0.271133
0.270331
0.269284
0.268039
0.266661
0.265239
0.263882
0.268884
0.269055
0.268969
0.26863
0.268052
0.267262
0.266304
0.265237
0.264142
0.26312
0.266104
0.26634
0.266375
0.266206
0.265842
0.265305
0.264632
0.263878
0.263118
0.262449
0.251764
0.251285
0.25033
0.248917
0.247065
0.244804
0.242174
0.23922
0.235998
0.232568
0.251284
0.25084
0.249939
0.248594
0.246826
0.244662
0.242138
0.239297
0.23619
0.232875
0.25033
0.249938
0.249109
0.247853
0.24619
0.244146
0.241751
0.239047
0.236081
0.232907
0.248915
0.248593
0.247853
0.246705
0.245167
0.243262
0.241019
0.238474
0.235672
0.232661
0.247062
0.246824
0.246189
0.245167
0.243771
0.242024
0.239951
0.237586
0.234968
0.232141
0.244801
0.244659
0.244143
0.24326
0.242023
0.24045
0.238564
0.236395
0.233977
0.231353
0.242169
0.242133
0.241747
0.241015
0.239949
0.238562
0.236877
0.234917
0.232715
0.230306
0.239213
0.23929
0.239041
0.238469
0.237582
0.236392
0.234916
0.233176
0.231199
0.229015
0.235989
0.236181
0.236073
0.235665
0.234962
0.233972
0.232711
0.231197
0.22945
0.227499
0.232557
0.232864
0.232896
0.232652
0.232133
0.231346
0.2303
0.229011
0.227497
0.225785
0.221965
0.221499
0.220565
0.219167
0.217308
0.214988
0.212204
0.208944
0.205181
0.20086
0.221498
0.221065
0.220179
0.218845
0.217065
0.214839
0.212165
0.209031
0.205412
0.201261
0.220564
0.220179
0.219358
0.218103
0.216417
0.214298
0.211745
0.208746
0.205278
0.201299
0.219165
0.218844
0.218102
0.216941
0.215362
0.213365
0.210944
0.208089
0.204779
0.200974
0.217305
0.217063
0.216415
0.215361
0.213903
0.212037
0.209759
0.207058
0.20391
0.200281
0.214984
0.214836
0.214296
0.213362
0.212036
0.210313
0.208187
0.205646
0.202667
0.199216
0.212199
0.21216
0.211741
0.21094
0.209757
0.208186
0.20622
0.203845
0.201038
0.197767
0.208937
0.209024
0.20874
0.208084
0.207054
0.205643
0.203843
0.20164
0.199008
0.195916
0.205171
0.205403
0.20527
0.204772
0.203904
0.202662
0.201034
0.199006
0.19655
0.193639
0.200848
0.20125
0.201289
0.200964
0.200273
0.199209
0.197761
0.195912
0.193637
0.190908
0.195306
0.194848
0.193927
0.192539
0.190674
0.188316
0.185438
0.181997
0.177928
0.173131
0.194848
0.194421
0.193546
0.192218
0.19043
0.188165
0.185398
0.18209
0.178182
0.173584
0.193926
0.193545
0.192729
0.191475
0.189773
0.187609
0.18496
0.181788
0.178038
0.173628
0.192538
0.192217
0.191474
0.190305
0.188701
0.186646
0.18412
0.181086
0.177493
0.173266
0.190672
0.190428
0.189772
0.1887
0.187203
0.185267
0.18287
0.179978
0.176542
0.172493
0.188312
0.188161
0.187607
0.186644
0.185266
0.183456
0.181195
0.178449
0.175171
0.171297
0.185432
0.185393
0.184956
0.184116
0.182867
0.181194
0.179075
0.176479
0.173359
0.169658
0.18199
0.182084
0.181782
0.181081
0.179974
0.178446
0.176477
0.174036
0.171078
0.16755
0.177919
0.178174
0.17803
0.177486
0.176536
0.175166
0.173356
0.171076
0.168284
0.16493
0.17312
0.173573
0.173618
0.173257
0.172485
0.17129
0.169653
0.167546
0.164928
0.161755
0.171743
0.171305
0.170424
0.169093
0.167299
0.165023
0.162236
0.158897
0.154948
0.150305
0.171305
0.170896
0.170058
0.168785
0.167063
0.164877
0.162198
0.158989
0.155196
0.150743
0.170423
0.170058
0.169276
0.16807
0.166431
0.164341
0.161775
0.158698
0.155059
0.15079
0.169091
0.168783
0.16807
0.166944
0.165397
0.163411
0.160963
0.15802
0.154535
0.150446
0.167296
0.167061
0.16643
0.165396
0.16395
0.162076
0.159753
0.156949
0.153619
0.149707
0.165019
0.164874
0.164339
0.163409
0.162075
0.160323
0.158132
0.155471
0.152299
0.148565
0.162231
0.162194
0.161771
0.16096
0.159751
0.15813
0.156079
0.153568
0.150558
0.147004
0.158891
0.158983
0.158692
0.158015
0.156945
0.155468
0.153566
0.151213
0.148373
0.145003
0.154939
0.155188
0.155051
0.154528
0.153613
0.152294
0.150555
0.148371
0.145708
0.142529
0.150295
0.150733
0.15078
0.150437
0.1497
0.148559
0.146999
0.144999
0.142527
0.139552
0.151145
0.150744
0.149937
0.14872
0.147084
0.145017
0.142502
0.139517
0.136033
0.132018
0.150744
0.15037
0.149603
0.148439
0.14687
0.144885
0.142468
0.139599
0.136251
0.132394
0.149937
0.149602
0.148887
0.147788
0.146296
0.144401
0.14209
0.139342
0.136134
0.132436
0.148719
0.148438
0.147787
0.146762
0.145358
0.143562
0.141364
0.138744
0.13568
0.132146
0.147082
0.146868
0.146294
0.145357
0.144049
0.142363
0.140285
0.1378
0.134886
0.131521
0.145013
0.144882
0.144399
0.143561
0.142362
0.140795
0.138847
0.136505
0.133749
0.130559
0.142497
0.142464
0.142086
0.141361
0.140283
0.138846
0.137039
0.134849
0.132259
0.129251
0.139511
0.139593
0.139337
0.138739
0.137796
0.136502
0.134848
0.132822
0.130407
0.127592
0.136026
0.136244
0.136127
0.135673
0.134881
0.133744
0.132256
0.130406
0.12818
0.125569
0.132008
0.132384
0.132428
0.132138
0.131514
0.130552
0.129247
0.127588
0.125567
0.123174
0.133269
0.132916
0.132207
0.131141
0.129717
0.127932
0.125784
0.123273
0.120401
0.117178
0.132915
0.132587
0.131914
0.130896
0.129532
0.127819
0.125756
0.123342
0.120579
0.117476
0.132206
0.131913
0.131288
0.130329
0.129035
0.127405
0.125436
0.123129
0.120485
0.117511
0.13114
0.130895
0.130328
0.129439
0.128226
0.126688
0.124824
0.122633
0.120117
0.117284
0.129715
0.12953
0.129034
0.128225
0.127104
0.125669
0.123919
0.121854
0.119477
0.116795
0.127929
0.127817
0.127402
0.126687
0.125668
0.124346
0.122721
0.120793
0.118564
0.116044
0.12578
0.125752
0.125433
0.124821
0.123917
0.12272
0.121231
0.11945
0.117382
0.115034
0.123268
0.123337
0.123124
0.122629
0.121851
0.120791
0.119449
0.117828
0.115932
0.113769
0.120394
0.120573
0.120479
0.120111
0.119472
0.118561
0.117379
0.11593
0.114218
0.112254
0.117169
0.117467
0.117504
0.117277
0.116788
0.116038
0.11503
0.113766
0.112252
0.1105
0.11779
0.117488
0.116883
0.115977
0.114774
0.113279
0.111501
0.109451
0.107151
0.104633
0.117488
0.117207
0.116633
0.11577
0.114619
0.113185
0.111477
0.109507
0.107292
0.104863
0.116882
0.116633
0.116102
0.11529
0.114202
0.112841
0.111215
0.109335
0.107218
0.104891
0.115976
0.115769
0.11529
0.114541
0.113525
0.112247
0.110713
0.108935
0.106927
0.104716
0.114773
0.114617
0.1142
0.113524
0.112591
0.111406
0.109976
0.108309
0.106423
0.10434
0.113277
0.113183
0.112839
0.112245
0.111405
0.110324
0.109006
0.107463
0.10571
0.103767
0.111497
0.111474
0.111212
0.110711
0.109974
0.109005
0.107812
0.106403
0.104793
0.103002
0.109446
0.109502
0.10933
0.108931
0.108307
0.107461
0.106402
0.105138
0.103682
0.102054
0.107145
0.107287
0.107212
0.106923
0.106419
0.105706
0.10479
0.10368
0.10239
0.100937
0.104625
0.104855
0.104884
0.10471
0.104334
0.103762
0.102998
0.102051
0.100936
0.0996698
0.104363
0.104108
0.103599
0.102838
0.101833
0.10059
0.0991227
0.097447
0.0955865
0.0935735
0.104108
0.103871
0.103389
0.102664
0.101703
0.100512
0.0991035
0.0974923
0.0956999
0.0937561
0.103598
0.103388
0.102942
0.102263
0.101355
0.100227
0.0988875
0.0973518
0.0956396
0.0937782
0.102837
0.102663
0.102263
0.101638
0.100793
0.0997363
0.0984762
0.0970266
0.0954057
0.0936388
0.101831
0.101701
0.101354
0.100793
0.100021
0.0990445
0.0978733
0.0965196
0.0950006
0.0933398
0.100588
0.10051
0.100225
0.0997351
0.0990438
0.0981573
0.0970841
0.095836
0.0944288
0.0928846
0.0991196
0.0991006
0.098885
0.0984742
0.0978718
0.0970833
0.0961167
0.0949831
0.0936972
0.0922793
0.0974429
0.0974884
0.0973483
0.0970236
0.0965172
0.0958342
0.0949822
0.0939713
0.0928152
0.0915328
0.0955813
0.095695
0.095635
0.0954016
0.0949971
0.094426
0.0936952
0.0928141
0.0917957
0.090657
0.093567
0.0937499
0.0937724
0.0936336
0.0933351
0.0928806
0.0922761
0.0915305
0.0906558
0.0896691
0.0926688
0.0924538
0.0920242
0.0913838
0.0905382
0.0894952
0.0882653
0.0868623
0.0853038
0.0836114
0.0924537
0.092254
0.0918473
0.0912373
0.090429
0.0894297
0.0882491
0.0869001
0.0853987
0.0837652
0.0920238
0.0918471
0.0914713
0.0908998
0.0901372
0.0891903
0.088068
0.0867822
0.0853477
0.0837833
0.091383
0.0912367
0.0908994
0.0903742
0.0896653
0.0887789
0.0877233
0.0865094
0.0851508
0.083665
0.090537
0.0904279
0.0901364
0.0896648
0.0890172
0.088199
0.087218
0.0860842
0.08481
0.0834115
0.0894934
0.089428
0.0891889
0.0887778
0.0881984
0.0874557
0.0865567
0.0855104
0.0843284
0.0830253
0.0882628
0.0882468
0.0880659
0.0877216
0.0872168
0.086556
0.0857456
0.0847938
0.0837109
0.0825103
0.086859
0.0868969
0.0867793
0.0865069
0.0860821
0.085509
0.084793
0.0839416
0.082964
0.0818723
0.0852995
0.0853946
0.0853439
0.0851475
0.0848071
0.084326
0.0837092
0.0829631
0.082096
0.0811187
0.0836061
0.0837602
0.0837785
0.0836607
0.0834076
0.083022
0.0825076
0.0818704
0.0811176
0.08026
0.0824388
0.0822559
0.0818902
0.081345
0.0806244
0.0797341
0.0786813
0.0774745
0.0761234
0.0746384
0.0822558
0.0820858
0.0817397
0.0812202
0.0805312
0.0796781
0.0786674
0.077507
0.0762061
0.0747742
0.0818899
0.0817395
0.0814195
0.0809326
0.0802823
0.0794733
0.0785118
0.0774051
0.0761614
0.0747898
0.0813444
0.0812197
0.0809323
0.0804845
0.0798793
0.0791211
0.0782155
0.0771691
0.0759894
0.0746848
0.0806234
0.0805304
0.0802816
0.0798789
0.079325
0.0786239
0.0777805
0.0768006
0.0756911
0.0744597
0.0797326
0.0796767
0.0794722
0.0791203
0.0786234
0.0779851
0.0772095
0.0763019
0.0752683
0.0741157
0.0786792
0.0786655
0.0785101
0.0782141
0.0777794
0.0772089
0.0765063
0.0756761
0.0747235
0.0736547
0.0774718
0.0775045
0.0774027
0.0771671
0.076799
0.0763007
0.0756755
0.0749271
0.0740599
0.0730793
0.07612
0.0762028
0.0761583
0.0759866
0.0756887
0.0752664
0.0747221
0.0740591
0.0732809
0.0723923
0.0746342
0.0747702
0.0747861
0.0746813
0.0744565
0.074113
0.0736526
0.0730777
0.0723915
0.0715986
0.073456
0.0732989
0.0729848
0.0725158
0.0718947
0.0711251
0.0702111
0.0691573
0.0679677
0.0666455
0.0732988
0.0731529
0.0728553
0.0724083
0.0718143
0.0710765
0.070199
0.0691858
0.0680408
0.0667672
0.0729845
0.0728552
0.0725799
0.0721605
0.0715992
0.0708991
0.0700635
0.0690964
0.0680012
0.066781
0.0725153
0.0724079
0.0721603
0.0717739
0.0712507
0.0705934
0.0698052
0.0688893
0.0678489
0.0666868
0.0718939
0.0718135
0.0715987
0.0712504
0.0707705
0.0701611
0.0694251
0.0685652
0.0675842
0.0664848
0.0711239
0.0710755
0.0708981
0.0705928
0.0701607
0.0696039
0.0689247
0.0681253
0.0672081
0.0661754
0.0702095
0.0701975
0.0700622
0.0698041
0.0694243
0.0689242
0.0683058
0.0675709
0.0667214
0.0657592
0.0691551
0.0691838
0.0690946