/*--------------------------------*- C++ -*----------------------------------*\
| =========                 |                                                 |
| \\      /  F ield         | foam-extend: Open Source CFD                    |
|  \\    /   O peration     | Version:     3.1                                |
|   \\  /    A nd           | Web:         http://www.extend-project.de       |
|    \\/     M anipulation  |                                                 |
\*---------------------------------------------------------------------------*/
FoamFile
{
    version     2.0;
    format      ascii;
    class       surfaceScalarField;
    location    "0.002";
    object      phi;
}
// * * * * * * * * * * * * * * * * * * * * * * * * * * * * * * * * * * * * * //

dimensions      [0 3 -1 0 0 0 0];

internalField   nonuniform List<scalar> 
45800
(
-2.39198e-10
-2.39899e-10
3.18998e-08
-4.61689e-10
-2.35808e-10
3.13524e-08
-6.62188e-10
-2.2691e-10
3.0817e-08
-8.41481e-10
-2.15985e-10
3.03013e-08
-1.00093e-09
-2.04104e-10
2.98066e-08
-1.14117e-09
-1.91564e-10
2.93323e-08
-1.26195e-09
-1.78746e-10
2.88786e-08
-1.36173e-09
-1.66243e-10
2.84459e-08
-1.43654e-09
-1.55244e-10
2.80358e-08
-1.47344e-10
2.76497e-08
-1.47705e-09
-2.35114e-10
-4.62027e-10
3.13513e-08
-4.56979e-10
-4.5769e-10
3.08087e-08
-6.59366e-10
-4.44889e-10
3.0277e-08
-8.40791e-10
-4.26924e-10
2.97606e-08
-1.0018e-09
-4.06492e-10
2.92627e-08
-1.14303e-09
-3.84725e-10
2.87841e-08
-1.2644e-09
-3.62355e-10
2.83247e-08
-1.36468e-09
-3.40412e-10
2.78851e-08
-1.44079e-09
-3.207e-10
2.74662e-08
-3.06551e-10
2.70677e-08
-1.48303e-09
-2.26593e-10
-6.61915e-10
3.0816e-08
-4.44155e-10
-6.59457e-10
3.0276e-08
-6.46261e-10
-6.46854e-10
2.97478e-08
-8.29355e-10
-6.26041e-10
2.92322e-08
-9.92168e-10
-6.00293e-10
2.87312e-08
-1.13488e-09
-5.72071e-10
2.82475e-08
-1.25754e-09
-5.42755e-10
2.77819e-08
-1.35916e-09
-5.13591e-10
2.73343e-08
-1.43743e-09
-4.86935e-10
2.69059e-08
-4.68256e-10
2.64965e-08
-1.48324e-09
-2.16023e-10
-8.40992e-10
3.03011e-08
-4.26651e-10
-8.40424e-10
2.97599e-08
-6.25404e-10
-8.29409e-10
2.92312e-08
-8.08028e-10
-8.0858e-10
2.87153e-08
-9.71784e-10
-7.80419e-10
2.82119e-08
-1.11555e-09
-7.47732e-10
2.77228e-08
-1.23911e-09
-7.12968e-10
2.725e-08
-1.34177e-09
-6.77913e-10
2.67942e-08
-1.42206e-09
-6.45241e-10
2.63563e-08
-6.23087e-10
2.59372e-08
-1.47184e-09
-2.04208e-10
-1.00041e-09
2.98067e-08
-4.06592e-10
-1.00133e-09
2.92626e-08
-6.00084e-10
-9.91876e-10
2.87305e-08
-7.79814e-10
-9.71904e-10
2.82111e-08
-9.42623e-10
-9.43245e-10
2.77044e-08
-1.08647e-09
-9.07894e-10
2.72104e-08
-1.21016e-09
-8.68402e-10
2.673e-08
-1.313e-09
-8.27523e-10
2.6265e-08
-1.39442e-09
-7.88644e-10
2.58173e-08
-7.63175e-10
2.53892e-08
-1.44767e-09
-1.91656e-10
-1.14065e-09
2.93324e-08
-3.84902e-10
-1.14256e-09
2.87842e-08
-5.72209e-10
-1.13451e-09
2.82474e-08
-7.4756e-10
-1.11539e-09
2.77222e-08
-9.07221e-10
-1.08676e-09
2.72096e-08
-1.04912e-09
-1.05e-09
2.67101e-08
-1.17154e-09
-1.00654e-09
2.62226e-08
-1.27314e-09
-9.59031e-10
2.57478e-08
-1.35399e-09
-9.11947e-10
2.52889e-08
-8.81562e-10
2.48518e-08
-1.40942e-09
-1.78833e-10
-1.26146e-09
2.88787e-08
-3.6252e-10
-1.26397e-09
2.83248e-08
-5.42993e-10
-1.25721e-09
2.7782e-08
-7.13216e-10
-1.23888e-09
2.72499e-08
-8.68282e-10
-1.21009e-09
2.67293e-08
-1.00562e-09
-1.17193e-09
2.62213e-08
-1.12393e-09
-1.12488e-09
2.57262e-08
-1.22167e-09
-1.07e-09
2.52422e-08
-1.29914e-09
-1.0112e-09
2.47711e-08
-9.7135e-10
2.43242e-08
-1.35476e-09
-1.66322e-10
-1.36133e-09
2.84461e-08
-3.40566e-10
-1.36433e-09
2.78852e-08
-5.13823e-10
-1.35888e-09
2.73344e-08
-6.78256e-10
-1.34156e-09
2.67943e-08
-8.27878e-10
-1.31281e-09
2.62649e-08
-9.58726e-10
-1.27301e-09
2.57466e-08
-1.06909e-09
-1.22187e-09
2.52409e-08
-1.15787e-09
-1.15843e-09
2.47463e-08
-1.2266e-09
-1.08389e-09
2.42631e-08
-1.02571e-09
2.38059e-08
-1.27913e-09
-1.5531e-10
-1.43625e-09
2.8036e-08
-3.20825e-10
-1.44055e-09
2.74663e-08
-4.87115e-10
-1.43725e-09
2.6906e-08
-6.45484e-10
-1.42193e-09
2.63565e-08
-7.88962e-10
-1.39431e-09
2.58174e-08
-9.12029e-10
-1.35385e-09
2.52886e-08
-1.01085e-09
-1.29906e-09
2.47704e-08
-1.08342e-09
-1.22675e-09
2.42625e-08
-1.13289e-09
-1.13321e-09
2.37657e-08
-1.04109e-09
2.32959e-08
-1.17408e-09
-1.47391e-10
2.76498e-08
-1.47688e-09
-3.06636e-10
2.70678e-08
-1.48289e-09
-4.68372e-10
2.64966e-08
-1.48315e-09
-6.23226e-10
2.59374e-08
-1.47179e-09
-7.63316e-10
2.53893e-08
-1.44765e-09
-8.81648e-10
2.48518e-08
-1.40941e-09
-9.71359e-10
2.43243e-08
-1.35476e-09
-1.0256e-09
2.38057e-08
-1.27917e-09
-1.04084e-09
2.32955e-08
-1.17419e-09
2.28072e-08
-1.04133e-09
-1.04149e-09
-2.14659e-10
-2.15315e-10
3.23298e-08
-4.1396e-10
-2.12678e-10
3.17644e-08
-5.93199e-10
-2.06418e-10
3.12026e-08
-7.53226e-10
-1.99139e-10
3.06605e-08
-8.95157e-10
-1.91664e-10
3.01402e-08
-1.01891e-09
-1.84067e-10
2.96402e-08
-1.12295e-09
-1.76419e-10
2.9159e-08
-1.20368e-09
-1.68811e-10
2.86955e-08
-1.25461e-09
-1.61284e-10
2.82481e-08
-1.53346e-10
2.78128e-08
-1.26442e-09
-2.12022e-10
-4.14234e-10
3.17623e-08
-4.11621e-10
-4.12255e-10
3.12078e-08
-5.93413e-10
-4.03721e-10
3.06561e-08
-7.56183e-10
-3.91673e-10
3.0116e-08
-9.00366e-10
-3.78386e-10
2.95936e-08
-1.02598e-09
-3.6467e-10
2.90903e-08
-1.13169e-09
-3.50762e-10
2.86048e-08
-1.21421e-09
-3.3688e-10
2.81357e-08
-1.2677e-09
-3.22878e-10
2.76812e-08
-3.07221e-10
2.7235e-08
-1.28116e-09
-2.06123e-10
-5.92865e-10
3.12008e-08
-4.03048e-10
-5.93417e-10
3.06541e-08
-5.8566e-10
-5.86151e-10
3.01129e-08
-7.50884e-10
-5.7277e-10
2.95785e-08
-8.97491e-10
-5.55976e-10
2.90554e-08
-1.02512e-09
-5.37829e-10
2.85483e-08
-1.13255e-09
-5.19147e-10
2.80577e-08
-1.21664e-09
-5.00154e-10
2.75817e-08
-1.27211e-09
-4.80598e-10
2.71191e-08
-4.58175e-10
2.66642e-08
-1.28885e-09
-1.992e-10
-7.52674e-10
3.06601e-08
-3.91443e-10
-7.5574e-10
3.01144e-08
-5.72213e-10
-7.50825e-10
2.95767e-08
-7.38041e-10
-7.38465e-10
2.90468e-08
-8.86314e-10
-7.20527e-10
2.85247e-08
-1.01543e-09
-6.99338e-10
2.80134e-08
-1.12389e-09
-6.76755e-10
2.75161e-08
-1.20871e-09
-6.53472e-10
2.70323e-08
-1.26517e-09
-6.28998e-10
2.65612e-08
-6.00484e-10
2.60989e-08
-1.28453e-09
-1.91796e-10
-8.94561e-10
3.01403e-08
-3.78537e-10
-8.99824e-10
2.95934e-08
-5.55834e-10
-8.97097e-10
2.90541e-08
-7.20026e-10
-8.86286e-10
2.85231e-08
-8.68246e-10
-8.68702e-10
2.80008e-08
-9.9795e-10
-8.45942e-10
2.74868e-08
-1.1066e-09
-8.19965e-10
2.69819e-08
-1.19105e-09
-7.92433e-10
2.64884e-08
-1.2472e-09
-7.632e-10
2.60076e-08
-7.28979e-10
2.55385e-08
-1.268e-09
-1.84185e-10
-1.01831e-09
2.96404e-08
-3.64903e-10
-1.02543e-09
2.90905e-08
-5.38045e-10
-1.02465e-09
2.85481e-08
-6.99256e-10
-1.01513e-09
2.80122e-08
-8.45402e-10
-9.98042e-10
2.74851e-08
-9.73989e-10
-9.74648e-10
2.69674e-08
-1.08179e-09
-9.46067e-10
2.64565e-08
-1.16468e-09
-9.14021e-10
2.59523e-08
-1.21876e-09
-8.79235e-10
2.5459e-08
-8.39001e-10
2.49822e-08
-1.23918e-09
-1.7653e-10
-1.12239e-09
2.91593e-08
-3.50981e-10
-1.13117e-09
2.8605e-08
-5.19469e-10
-1.13211e-09
2.80579e-08
-6.77106e-10
-1.12353e-09
2.7516e-08
-8.19945e-10
-1.10636e-09
2.69804e-08
-9.45289e-10
-1.0819e-09
2.64539e-08
-1.05034e-09
-1.05104e-09
2.59363e-08
-1.1302e-09
-1.01462e-09
2.54227e-08
-1.1801e-09
-9.73162e-10
2.49149e-08
-9.25813e-10
2.44285e-08
-1.19757e-09
-1.68915e-10
-1.2032e-09
2.86958e-08
-3.37086e-10
-1.21377e-09
2.8136e-08
-5.00469e-10
-1.21624e-09
2.7582e-08
-6.53926e-10
-1.20835e-09
2.70326e-08
-7.92904e-10
-1.19068e-09
2.64882e-08
-9.13799e-10
-1.16429e-09
2.59499e-08
-1.01384e-09
-1.13008e-09
2.542e-08
-1.08821e-09
-1.08854e-09
2.48946e-08
-1.13137e-09
-1.03958e-09
2.43727e-08
-9.84213e-10
2.3875e-08
-1.1421e-09
-1.61376e-10
-1.25425e-09
2.82485e-08
-3.23057e-10
-1.26737e-09
2.76816e-08
-4.80862e-10
-1.27181e-09
2.71194e-08
-6.29351e-10
-1.26488e-09
2.65615e-08
-7.6365e-10
-1.24689e-09
2.60079e-08
-8.79426e-10
-1.21838e-09
2.54585e-08
-9.72899e-10
-1.17975e-09
2.49135e-08
-1.03924e-09
-1.13127e-09
2.43716e-08
-1.07271e-09
-1.07286e-09
2.38325e-08
-1.00809e-09
2.33174e-08
-1.07041e-09
-1.53421e-10
2.78132e-08
-1.26418e-09
-3.07363e-10
2.72353e-08
-1.28094e-09
-4.58374e-10
2.66645e-08
-1.28865e-09
-6.00727e-10
2.60992e-08
-1.28434e-09
-7.29239e-10
2.55387e-08
-1.2678e-09
-8.39201e-10
2.49824e-08
-1.23897e-09
-9.25925e-10
2.44286e-08
-1.19737e-09
-9.84176e-10
2.38746e-08
-1.14194e-09
-1.00791e-09
2.33167e-08
-1.07033e-09
2.27724e-08
-9.90566e-10
-9.90606e-10
-1.37764e-10
-1.38321e-10
3.26059e-08
-2.63988e-10
-1.35736e-10
3.20264e-08
-3.74321e-10
-1.30445e-10
3.14434e-08
-4.70011e-10
-1.24537e-10
3.08807e-08
-5.52646e-10
-1.18756e-10
3.03416e-08
-6.22775e-10
-1.13212e-10
2.98235e-08
-6.79807e-10
-1.08026e-10
2.93241e-08
-7.21725e-10
-1.03335e-10
2.88407e-08
-7.44901e-10
-9.90104e-11
2.83703e-08
-9.25064e-11
2.79054e-08
-7.45025e-10
-1.35179e-10
-2.64145e-10
3.20233e-08
-2.61568e-10
-2.62053e-10
3.14605e-08
-3.74138e-10
-2.55151e-10
3.08934e-08
-4.72208e-10
-2.45583e-10
3.03351e-08
-5.56737e-10
-2.35444e-10
2.97948e-08
-6.28345e-10
-2.2556e-10
2.92743e-08
-6.86596e-10
-2.16245e-10
2.87712e-08
-7.29645e-10
-2.0778e-10
2.82832e-08
-7.5422e-10
-1.99638e-10
2.78064e-08
-1.85706e-10
2.73302e-08
-7.56196e-10
-1.30224e-10
-3.73888e-10
3.14408e-08
-2.54632e-10
-3.7401e-10
3.08904e-08
-3.68449e-10
-3.68763e-10
3.03403e-08
-4.69249e-10
-3.5868e-10
2.97924e-08
-5.56423e-10
-3.46234e-10
2.92533e-08
-6.30227e-10
-3.33463e-10
2.873e-08
-6.90288e-10
-3.21277e-10
2.82228e-08
-7.34745e-10
-3.0998e-10
2.77283e-08
-7.60556e-10
-2.98739e-10
2.7244e-08
-2.78078e-10
2.676e-08
-7.63971e-10
-1.24652e-10
-4.69357e-10
3.08802e-08
-2.45481e-10
-4.71648e-10
3.03329e-08
-3.58312e-10
-4.69025e-10
2.97898e-08
-4.60362e-10
-4.60572e-10
2.92507e-08
-5.49709e-10
-4.47964e-10
2.87158e-08
-6.25434e-10
-4.33533e-10
2.81892e-08
-6.86856e-10
-4.19237e-10
2.76754e-08
-7.3215e-10
-4.05852e-10
2.71735e-08
-7.58508e-10
-3.9214e-10
2.6681e-08
-3.65471e-10
2.61908e-08
-7.63009e-10
-1.18939e-10
-5.51936e-10
3.03419e-08
-2.35702e-10
-5.56068e-10
2.97946e-08
-3.46262e-10
-5.55867e-10
2.92515e-08
-4.47691e-10
-5.49468e-10
2.87134e-08
-5.37843e-10
-5.38037e-10
2.81811e-08
-6.14896e-10
-5.23295e-10
2.76536e-08
-6.7714e-10
-5.07367e-10
2.71322e-08
-7.22496e-10
-4.92002e-10
2.66199e-08
-7.48443e-10
-4.76156e-10
2.61176e-08
-4.44093e-10
2.5622e-08
-7.53263e-10
-1.13382e-10
-6.22054e-10
2.98239e-08
-2.25896e-10
-6.27661e-10
2.92746e-08
-3.33832e-10
-6.29592e-10
2.87297e-08
-4.33662e-10
-6.24919e-10
2.81875e-08
-5.23023e-10
-6.14722e-10
2.76511e-08
-6.00154e-10
-6.00504e-10
2.71217e-08
-6.62623e-10
-5.83731e-10
2.65954e-08
-7.0731e-10
-5.66302e-10
2.60713e-08
-7.31497e-10
-5.4794e-10
2.55549e-08
-5.10691e-10
2.50525e-08
-7.35162e-10
-1.08188e-10
-6.79123e-10
2.93246e-08
-2.16565e-10
-6.85941e-10
2.87717e-08
-3.21745e-10
-6.89665e-10
2.82232e-08
-4.19775e-10
-6.86268e-10
2.76753e-08
-5.07582e-10
-6.76625e-10
2.71301e-08
-5.83248e-10
-6.62427e-10
2.65915e-08
-6.44728e-10
-6.45089e-10
2.60591e-08
-6.87908e-10
-6.25913e-10
2.55255e-08
-7.08706e-10
-6.04585e-10
2.49924e-08
-5.62146e-10
2.44801e-08
-7.08782e-10
-1.03488e-10
-7.21126e-10
2.88413e-08
-2.08083e-10
-7.29063e-10
2.82837e-08
-3.10434e-10
-7.3417e-10
2.77288e-08
-4.06479e-10
-7.31561e-10
2.7174e-08
-4.92674e-10
-7.21854e-10
2.66196e-08
-5.66316e-10
-7.06613e-10
2.60677e-08
-6.25424e-10
-6.8746e-10
2.55214e-08
-6.65712e-10
-6.65737e-10
2.49747e-08
-6.81436e-10
-6.41421e-10
2.44252e-08
-5.95379e-10
2.39007e-08
-6.73834e-10
-9.91501e-11
-7.4442e-10
2.83709e-08
-1.99911e-10
-7.53748e-10
2.7807e-08
-2.99137e-10
-7.60075e-10
2.72445e-08
-3.92658e-10
-7.57994e-10
2.66814e-08
-4.76788e-10
-7.47868e-10
2.6118e-08
-5.48322e-10
-7.30827e-10
2.55542e-08
-6.0454e-10
-7.08065e-10
2.49903e-08
-6.41311e-10
-6.81072e-10
2.44237e-08
-6.51763e-10
-6.517e-10
2.38532e-08
-6.06758e-10
2.33065e-08
-6.29435e-10
-9.2626e-11
2.79061e-08
-7.4467e-10
-1.85934e-10
2.73307e-08
-7.55846e-10
-2.784e-10
2.67605e-08
-7.63607e-10
-3.65864e-10
2.61913e-08
-7.62618e-10
-4.44518e-10
2.56224e-08
-7.5284e-10
-5.11056e-10
2.50528e-08
-7.34716e-10
-5.62423e-10
2.44803e-08
-7.08355e-10
-5.95496e-10
2.39001e-08
-6.73473e-10
-6.06715e-10
2.33054e-08
-6.29175e-10
2.27195e-08
-5.80316e-10
-5.80224e-10
-2.9916e-11
-3.0346e-11
3.26661e-08
-5.43895e-11
-2.77822e-11
3.20786e-08
-6.97834e-11
-2.36939e-11
3.14825e-08
-7.80024e-11
-1.94358e-11
3.09084e-08
-8.1475e-11
-1.56263e-11
3.03607e-08
-8.18969e-11
-1.2439e-11
2.98364e-08
-8.03037e-11
-1.00867e-11
2.93326e-08
-7.69943e-11
-8.82131e-12
2.88462e-08
-7.17693e-11
-8.54146e-12
2.83736e-08
-6.42978e-12
2.79058e-08
-6.57064e-11
-2.73653e-11
-5.44257e-11
3.20747e-08
-5.16466e-11
-5.19567e-11
3.1509e-08
-6.85867e-11
-4.68776e-11
3.09335e-08
-7.83808e-11
-4.0201e-11
3.03656e-08
-8.28576e-11
-3.37405e-11
2.98174e-08
-8.37121e-11
-2.83071e-11
2.9291e-08
-8.20318e-11
-2.43587e-11
2.87838e-08
-7.81657e-11
-2.23436e-11
2.82928e-08
-7.22004e-11
-2.1641e-11
2.78136e-08
-1.50071e-11
2.73324e-08
-6.58519e-11
-2.35753e-11
-6.92837e-11
3.14792e-08
-4.65637e-11
-6.8357e-11
3.09298e-08
-6.49538e-11
-6.50893e-11
3.03769e-08
-7.74392e-11
-5.86437e-11
2.98233e-08
-8.44328e-11
-5.1222e-11
2.92778e-08
-8.72335e-11
-4.47307e-11
2.87492e-08
-8.69245e-11
-4.01645e-11
2.82383e-08
-8.37398e-11
-3.80365e-11
2.77408e-08
-7.78021e-11
-3.72686e-11
2.72537e-08
-2.63208e-11
2.67643e-08
-7.0867e-11
-1.95997e-11
-7.72911e-11
3.09079e-08
-4.02542e-11
-7.77512e-11
3.03629e-08
-5.84962e-11
-7.71018e-11
2.982e-08
-7.26959e-11
-7.27153e-11
2.9279e-08
-8.21317e-11
-6.6083e-11
2.87401e-08
-8.70322e-11
-5.94864e-11
2.82089e-08
-8.81001e-11
-5.48848e-11
2.76912e-08
-8.55102e-11
-5.31805e-11
2.71861e-08
-7.94581e-11
-5.27233e-11
2.66904e-08
-3.79528e-11
2.6195e-08
-7.20278e-11
-1.58449e-11
-8.06955e-11
3.03611e-08
-3.40891e-11
-8.21048e-11
2.98172e-08
-5.14301e-11
-8.37686e-11
2.92755e-08
-6.60516e-11
-8.17432e-11
2.87371e-08
-7.70209e-11
-7.69996e-11
2.82029e-08
-8.3829e-11
-7.13331e-11
2.76722e-08
-8.6193e-11
-6.6995e-11
2.71467e-08
-8.38889e-11
-6.5777e-11
2.66302e-08
-7.72159e-11
-6.58834e-11
2.61241e-08
-4.78137e-11
2.56236e-08
-6.89608e-11
-1.26438e-11
-8.10966e-11
2.98369e-08
-2.87108e-11
-8.29344e-11
2.92915e-08
-4.52202e-11
-8.6477e-11
2.8749e-08
-5.98258e-11
-8.63662e-11
2.82068e-08
-7.13377e-11
-8.34768e-11
2.76691e-08
-7.92878e-11
-7.93985e-11
2.71377e-08
-8.28055e-11
-7.5865e-11
2.66078e-08
-8.0582e-11
-7.50018e-11
2.60783e-08
-7.24281e-11
-7.54574e-11
2.55564e-08
-5.44689e-11
2.5049e-08
-6.22494e-11
-1.02809e-11
-7.9532e-11
2.93333e-08
-2.47425e-11
-8.12741e-11
2.87845e-08
-4.07261e-11
-8.617e-11
2.82388e-08
-5.55636e-11
-8.73448e-11
2.76912e-08
-6.74561e-11
-8.54923e-11
2.7144e-08
-7.57124e-11
-8.24325e-11
2.66028e-08
-7.97622e-11
-7.98664e-11
2.60672e-08
-7.73546e-11
-7.95552e-11
2.55276e-08
-6.66303e-11
-8.02152e-11
2.49864e-08
-5.69913e-11
2.44683e-08
-5.23027e-11
-9.00457e-12
-7.63007e-11
2.88471e-08
-2.27063e-11
-7.74749e-11
2.82936e-08
-3.85751e-11
-8.30275e-11
2.77415e-08
-5.39088e-11
-8.47525e-11
2.71867e-08
-6.65921e-11
-8.30521e-11
2.66298e-08
-7.52962e-11
-7.97111e-11
2.60737e-08
-7.94039e-11
-7.67436e-11
2.55224e-08
-7.63396e-11
-7.6139e-11
2.49682e-08
-6.20953e-11
-7.74368e-11
2.44082e-08
-5.52355e-11
2.38762e-08
-3.94064e-11
-8.71017e-12
-7.11882e-11
2.83745e-08
-2.19707e-11
-7.16159e-11
2.78144e-08
-3.77466e-11
-7.71835e-11
2.72545e-08
-5.33378e-11
-7.87778e-11
2.66911e-08
-6.66151e-11
-7.64563e-11
2.61247e-08
-7.59949e-11
-7.15777e-11
2.55555e-08
-8.04187e-11
-6.58284e-11
2.49839e-08
-7.75641e-11
-6.15851e-11
2.44063e-08
-6.16636e-11
-6.14519e-11
2.38213e-08
-4.91498e-11
2.32623e-08
-2.35404e-11
-6.57639e-12
2.79067e-08
-6.52571e-11
-1.52878e-11
2.73332e-08
-6.53961e-11
-2.67162e-11
2.67651e-08
-7.0378e-11
-3.84369e-11
2.61957e-08
-7.14907e-11
-4.83387e-11
2.56242e-08
-6.83794e-11
-5.49435e-11
2.50495e-08
-6.16485e-11
-5.73963e-11
2.44686e-08
-5.17341e-11
-5.55044e-11
2.38755e-08
-3.89285e-11
-4.92464e-11
2.32609e-08
-2.31974e-11
2.26536e-08
-1.63405e-11
-1.61722e-11
9.5337e-11
9.50348e-11
3.24758e-08
1.88965e-10
9.74445e-11
3.18875e-08
2.83441e-10
1.00023e-10
3.1288e-08
3.76191e-10
1.02262e-10
3.07133e-08
4.63959e-10
1.03713e-10
3.01692e-08
5.43928e-10
1.04143e-10
2.96523e-08
6.1354e-10
1.03258e-10
2.91597e-08
6.70441e-10
1.00727e-10
2.86886e-08
7.11981e-10
9.66684e-11
2.82354e-08
9.4123e-11
2.77908e-08
7.32912e-10
9.77117e-11
1.89018e-10
3.1883e-08
1.91927e-10
1.91773e-10
3.13205e-08
2.85696e-10
1.94655e-10
3.07451e-08
3.77844e-10
1.97856e-10
3.01779e-08
4.65695e-10
1.99958e-10
2.96333e-08
5.46515e-10
2.00237e-10
2.91141e-08
6.17803e-10
1.98115e-10
2.86177e-08
6.77263e-10
1.93039e-10
2.8141e-08
7.21965e-10
1.85805e-10
2.76797e-08
1.84575e-10
2.72186e-08
7.45368e-10
1.00034e-10
2.8395e-10
3.12842e-08
1.94763e-10
2.85962e-10
3.07409e-08
2.86998e-10
2.86993e-10
3.01923e-08
3.76685e-10
2.89228e-10
2.96422e-08
4.62356e-10
2.90807e-10
2.91013e-08
5.41729e-10
2.90109e-10
2.858e-08
6.12372e-10
2.86162e-10
2.80796e-08
6.7218e-10
2.78321e-10
2.75957e-08
7.18359e-10
2.68007e-10
2.71253e-08
2.68441e-10
2.66543e-08
7.44548e-10
1.02068e-10
3.76891e-10
3.07128e-08
1.97659e-10
3.78465e-10
3.01749e-08
2.89173e-10
3.77047e-10
2.96385e-08
3.76823e-10
3.76921e-10
2.91037e-08
4.59963e-10
3.7681e-10
2.8571e-08
5.37242e-10
3.74587e-10
2.80471e-08
6.06722e-10
3.68478e-10
2.75394e-08
6.66442e-10
3.57636e-10
2.7047e-08
7.1368e-10
3.44233e-10
2.65669e-08
3.4617e-10
2.60888e-08
7.42192e-10
1.03489e-10
4.64734e-10
3.01698e-08
1.99564e-10
4.66453e-10
2.96332e-08
2.90451e-10
4.63032e-10
2.90986e-08
3.76639e-10
4.60381e-10
2.85674e-08
4.57665e-10
4.57799e-10
2.80409e-08
5.32627e-10
4.53502e-10
2.75183e-08
6.00492e-10
4.45237e-10
2.70021e-08
6.59928e-10
4.31416e-10
2.6497e-08
7.08283e-10
4.14845e-10
2.60051e-08
4.17962e-10
2.5521e-08
7.39069e-10
1.03933e-10
5.44731e-10
2.9653e-08
1.99824e-10
5.47305e-10
2.91147e-08
2.89567e-10
5.42513e-10
2.85797e-08
3.74084e-10
5.37943e-10
2.80447e-08
4.53276e-10
5.33006e-10
2.75147e-08
5.26222e-10
5.26212e-10
2.69921e-08
5.92197e-10
5.15683e-10
2.64713e-08
6.50978e-10
4.99189e-10
2.59517e-08
7.00772e-10
4.79537e-10
2.54419e-08
4.83336e-10
2.49498e-08
7.34569e-10
1.03061e-10
6.14323e-10
2.91606e-08
1.97725e-10
6.18581e-10
2.86186e-08
2.8559e-10
6.13162e-10
2.80803e-08
3.67749e-10
6.07531e-10
2.75394e-08
4.44579e-10
6.01234e-10
2.6999e-08
5.15542e-10
5.9254e-10
2.64655e-08
5.79733e-10
5.79735e-10
2.59389e-08
6.37609e-10
5.60684e-10
2.54083e-08
6.89301e-10
5.37912e-10
2.48763e-08
5.41048e-10
2.43718e-08
7.28046e-10
1.00543e-10
6.71158e-10
2.86897e-08
1.92676e-10
6.77983e-10
2.81421e-08
2.77785e-10
6.72932e-10
2.75967e-08
3.56921e-10
6.67248e-10
2.70478e-08
4.30567e-10
6.60817e-10
2.64966e-08
4.98639e-10
6.5182e-10
2.59464e-08
5.60525e-10
6.38148e-10
2.54021e-08
6.17108e-10
6.17388e-10
2.48549e-08
6.70908e-10
5.90757e-10
2.43015e-08
5.88491e-10
2.3781e-08
7.18714e-10
9.65009e-11
7.12595e-10
2.82366e-08
1.85478e-10
7.22586e-10
2.76809e-08
2.67535e-10
7.1902e-10
2.71263e-08
3.43634e-10
7.14405e-10
2.65678e-08
4.14151e-10
7.09077e-10
2.6006e-08
4.78946e-10
7.01625e-10
2.54409e-08
5.37503e-10
6.90069e-10
2.48734e-08
5.90454e-10
6.71387e-10
2.42994e-08
6.42556e-10
6.42798e-10
2.37172e-08
6.22321e-10
2.31649e-08
7.06128e-10
9.39795e-11
2.77919e-08
7.33395e-10
1.843e-10
2.72196e-08
7.4586e-10
2.68055e-10
2.66553e-08
7.45076e-10
3.45698e-10
2.60897e-08
7.42767e-10
4.17451e-10
2.55218e-08
7.39681e-10
4.82863e-10
2.49505e-08
7.35186e-10
5.40612e-10
2.43723e-08
7.28619e-10
5.88131e-10
2.37802e-08
7.19178e-10
6.22133e-10
2.31632e-08
7.0643e-10
2.2555e-08
6.71435e-10
6.71601e-10
2.36912e-10
2.36727e-10
3.20021e-08
4.64374e-10
2.38952e-10
3.14211e-08
6.83893e-10
2.39992e-10
3.08285e-08
8.92548e-10
2.40251e-10
3.02644e-08
1.08661e-09
2.39497e-10
2.97356e-08
1.2625e-09
2.37443e-10
2.92389e-08
1.41656e-09
2.33731e-10
2.87719e-08
1.54489e-09
2.27974e-10
2.83323e-08
1.64268e-09
2.20329e-10
2.79172e-08
2.14231e-10
2.7518e-08
1.70125e-09
2.39074e-10
4.64458e-10
3.14162e-08
4.67605e-10
4.67556e-10
3.08633e-08
6.87383e-10
4.68346e-10
3.0297e-08
8.96508e-10
4.68234e-10
2.97408e-08
1.09181e-09
4.66306e-10
2.92112e-08
1.26984e-09
4.61992e-10
2.87115e-08
1.42711e-09
4.54614e-10
2.82395e-08
1.55984e-09
4.43559e-10
2.77927e-08
1.66288e-09
4.29804e-10
2.73672e-08
4.22682e-10
2.69475e-08
1.72552e-09
2.39906e-10
6.84321e-10
3.08245e-08
4.68283e-10
6.8759e-10
3.02925e-08
6.86692e-10
6.86732e-10
2.97555e-08
8.93841e-10
6.85186e-10
2.92181e-08
1.0875e-09
6.81502e-10
2.86925e-08
1.26475e-09
6.74472e-10
2.81902e-08
1.42219e-09
6.6324e-10
2.77135e-08
1.55627e-09
6.47072e-10
2.72581e-08
1.66212e-09
6.27714e-10
2.68215e-08
6.20418e-10
2.63894e-08
1.72931e-09
2.40059e-10
8.9313e-10
3.0264e-08
4.67935e-10
8.97007e-10
2.97376e-08
6.8499e-10
8.94098e-10
2.9214e-08
8.90105e-10
8.90203e-10
2.86935e-08
1.08143e-09
8.84277e-10
2.81769e-08
1.2568e-09
8.74431e-10
2.76718e-08
1.41343e-09
8.59227e-10
2.71868e-08
1.54799e-09
8.37986e-10
2.67216e-08
1.65575e-09
8.13357e-10
2.62735e-08
8.06037e-10
2.58321e-08
1.72677e-09
2.39306e-10
1.08726e-09
2.97363e-08
4.65934e-10
1.09245e-09
2.92111e-08
6.81064e-10
1.08805e-09
2.86896e-08
8.83989e-10
1.08171e-09
2.8173e-08
1.07298e-09
1.07308e-09
2.76631e-08
1.24592e-09
1.06043e-09
2.71594e-08
1.40079e-09
1.04159e-09
2.66649e-08
1.53515e-09
1.01531e-09
2.61853e-08
1.64452e-09
9.85458e-10
2.57236e-08
9.77977e-10
2.52745e-08
1.71907e-09
2.37267e-10
1.26319e-09
2.92398e-08
4.61647e-10
1.27052e-09
2.87123e-08
6.73974e-10
1.26542e-09
2.819e-08
8.73854e-10
1.25737e-09
2.76691e-08
1.06009e-09
1.24613e-09
2.71554e-08
1.23054e-09
1.23044e-09
2.66516e-08
1.38308e-09
1.20836e-09
2.6152e-08
1.51633e-09
1.17755e-09
2.56562e-08
1.6271e-09
1.14234e-09
2.51742e-08
1.13401e-09
2.47152e-08
1.70565e-09
2.33568e-10
1.41723e-09
2.8773e-08
4.54293e-10
1.42778e-09
2.82406e-08
6.62765e-10
1.42288e-09
2.77144e-08
8.58567e-10
1.41414e-09
2.71868e-08
1.04082e-09
1.40139e-09
2.66615e-08
1.20801e-09
1.38315e-09
2.61456e-08
1.35795e-09
1.35787e-09
2.56395e-08
1.48948e-09
1.32302e-09
2.51313e-08
1.6015e-09
1.28222e-09
2.46244e-08
1.27092e-09
2.41506e-08
1.68573e-09
2.27827e-10
1.54551e-09
2.83336e-08
4.43269e-10
1.56046e-09
2.7794e-08
6.46645e-10
1.55693e-09
2.72592e-08
8.37423e-10
1.54868e-09
2.67225e-08
1.01457e-09
1.53592e-09
2.61849e-08
1.17681e-09
1.51693e-09
2.56503e-08
1.32261e-09
1.4897e-09
2.51245e-08
1.4513e-09
1.45149e-09
2.45977e-08
1.56416e-09
1.40409e-09
2.40668e-08
1.38361e-09
2.35743e-08
1.6581e-09
2.20199e-10
1.64322e-09
2.79187e-08
4.29552e-10
1.66342e-09
2.73686e-08
6.27352e-10
1.6627e-09
2.68227e-08
8.12906e-10
1.65637e-09
2.62746e-08
9.84966e-10
1.64518e-09
2.57246e-08
1.14183e-09
1.62777e-09
2.51732e-08
1.28168e-09
1.60203e-09
2.46212e-08
1.4037e-09
1.56442e-09
2.40644e-08
1.51182e-09
1.51196e-09
2.35012e-08
1.46563e-09
2.29729e-08
1.62181e-09
2.14126e-10
2.75193e-08
1.70168e-09
4.22481e-10
2.69488e-08
1.72595e-09
6.20136e-10
2.63905e-08
1.72976e-09
8.05697e-10
2.58332e-08
1.72726e-09
9.77619e-10
2.52755e-08
1.71957e-09
1.13368e-09
2.47161e-08
1.70613e-09
1.27057e-09
2.41513e-08
1.68617e-09
1.38324e-09
2.35735e-08
1.65842e-09
1.46542e-09
2.29711e-08
1.62195e-09
2.23806e-08
1.55266e-09
1.55275e-09
3.93245e-10
3.93154e-10
3.12157e-08
7.69167e-10
3.95301e-10
3.06499e-08
1.12869e-09
3.95077e-10
3.00739e-08
1.4691e-09
3.93831e-10
2.95302e-08
1.78679e-09
3.91588e-10
2.90264e-08
2.07802e-09
3.88012e-10
2.85597e-08
2.33867e-09
3.82691e-10
2.81286e-08
2.56401e-09
3.752e-10
2.77318e-08
2.74786e-09
3.65718e-10
2.73677e-08
3.58309e-10
2.70287e-08
2.87878e-09
3.95293e-10
7.69217e-10
3.06449e-08
7.72884e-10
7.72894e-10
3.01081e-08
1.13374e-09
7.72219e-10
2.9559e-08
1.47575e-09
7.69755e-10
2.90228e-08
1.79577e-09
7.6516e-10
2.85176e-08
2.09028e-09
7.58073e-10
2.80469e-08
2.35535e-09
7.47731e-10
2.76094e-08
2.5864e-09
7.33481e-10
2.72034e-08
2.77686e-09
7.16434e-10
2.6826e-08
7.07445e-10
2.64627e-08
2.91252e-09
3.94918e-10
1.12893e-09
3.00698e-08
7.72023e-10
1.13378e-09
2.95545e-08
1.13203e-09
1.13202e-09
2.90357e-08
1.47283e-09
1.12816e-09
2.85189e-08
1.79194e-09
1.12119e-09
2.80173e-08
2.08639e-09
1.11041e-09
2.75434e-08
2.35236e-09
1.09515e-09
2.71001e-08
2.5855e-09
1.07458e-09
2.66839e-08
2.77957e-09
1.05068e-09
2.62932e-08
1.04125e-09
2.59144e-08
2.92071e-09
3.93681e-10
1.46945e-09
2.95298e-08
7.69405e-10
1.47599e-09
2.90196e-08
1.1279e-09
1.47284e-09
2.85147e-08
1.46713e-09
1.46709e-09
2.80154e-08
1.78444e-09
1.45793e-09
2.75228e-08
2.07742e-09
1.44374e-09
2.70455e-08
2.343e-09
1.42351e-09
2.65929e-08
2.57702e-09
1.3968e-09
2.61653e-08
2.77348e-09
1.36655e-09
2.57612e-08
1.35699e-09
2.53706e-08
2.91926e-09
3.91475e-10
1.7872e-09
2.90271e-08
7.64883e-10
1.79617e-09
2.85175e-08
1.12076e-09
1.79222e-09
2.80143e-08
1.45763e-09
1.78443e-09
2.75188e-08
1.77291e-09
1.77281e-09
2.7033e-08
2.06369e-09
1.75575e-09
2.65566e-08
2.32751e-09
1.73114e-09
2.60934e-08
2.5614e-09
1.69814e-09
2.565e-08
2.75966e-09
1.66154e-09
2.52304e-08
1.65174e-09
2.48298e-08
2.90964e-09
3.87911e-10
2.07846e-09
2.85606e-08
7.57876e-10
2.09071e-09
2.80478e-08
1.11006e-09
2.0868e-09
2.75432e-08
1.44318e-09
2.07771e-09
2.70427e-08
1.7554e-09
2.06354e-09
2.65525e-08
2.04378e-09
2.04341e-09
2.60756e-08
2.30513e-09
2.01526e-09
2.56065e-08
2.53751e-09
1.97657e-09
2.51454e-08
2.73693e-09
1.93304e-09
2.47033e-08
1.92193e-09
2.42905e-08
2.89143e-09
3.82603e-10
2.33911e-09
2.81297e-08
7.47555e-10
2.35578e-09
2.76105e-08
1.09488e-09
2.35281e-09
2.71011e-08
1.42304e-09
2.34347e-09
2.65929e-08
1.73035e-09
2.3278e-09
2.60899e-08
2.0148e-09
2.30471e-09
2.55999e-08
2.27327e-09
2.27293e-09
2.51233e-08
2.50331e-09
2.22935e-09
2.46484e-08
2.70318e-09
2.17837e-09
2.41792e-08
2.16279e-09
2.37492e-08
2.86376e-09
3.75127e-10
2.56442e-09
2.77332e-08
7.33337e-10
2.58681e-09
2.72047e-08
1.07437e-09
2.58592e-09
2.66851e-08
1.39651e-09
2.57748e-09
2.61664e-08
1.69763e-09
2.56191e-09
2.56497e-08
1.97572e-09
2.53767e-09
2.51393e-08
2.22877e-09
2.503e-09
2.46414e-08
2.45485e-09
2.45481e-09
2.41462e-08
2.65437e-09
2.39501e-09
2.36506e-08
2.36719e-09
2.31993e-08
2.825e-09
3.6566e-10
2.74823e-09
2.73692e-08
7.16323e-10
2.77722e-09
2.68275e-08
1.05053e-09
2.77995e-09
2.62945e-08
1.36637e-09
2.77387e-09
2.57623e-08
1.6614e-09
2.76005e-09
2.52315e-08
1.93275e-09
2.73727e-09
2.47022e-08
2.17776e-09
2.70333e-09
2.41759e-08
2.39459e-09
2.65426e-09
2.36481e-08
2.58663e-09
2.58656e-09
2.31176e-08
2.52607e-09
2.26271e-08
2.7735e-09
3.58271e-10
2.70302e-08
2.87908e-09
7.07375e-10
2.64641e-08
2.91281e-09
1.04116e-09
2.59157e-08
2.92101e-09
1.35688e-09
2.53718e-08
2.91955e-09
1.65165e-09
2.48309e-08
2.90992e-09
1.92186e-09
2.42915e-08
2.89167e-09
2.16262e-09
2.37499e-08
2.86395e-09
2.36687e-09
2.31985e-08
2.82507e-09
2.52588e-09
2.26253e-08
2.77338e-09
2.20684e-08
2.68215e-09
2.68209e-09
5.5985e-10
5.59807e-10
3.00961e-08
1.09503e-09
5.62069e-10
2.95527e-08
1.60644e-09
5.61136e-10
2.90014e-08
2.09236e-09
5.5924e-10
2.8485e-08
2.55008e-09
5.56661e-10
2.8012e-08
2.97651e-09
5.53041e-10
2.75802e-08
3.36793e-09
5.47937e-10
2.71892e-08
3.71969e-09
5.40907e-10
2.68391e-08
4.02531e-09
5.32149e-10
2.65299e-08
5.26557e-10
2.6256e-08
4.27148e-09
5.61973e-10
1.09498e-09
2.95477e-08
1.09959e-09
1.09958e-09
2.9033e-08
1.61349e-09
1.09846e-09
2.85078e-08
2.10207e-09
1.09521e-09
2.79983e-08
2.56307e-09
1.0901e-09
2.75232e-08
2.9936e-09
1.08301e-09
2.70864e-08
3.39013e-09
1.07313e-09
2.66877e-08
3.74819e-09
1.05978e-09
2.63265e-08
4.06076e-09
1.04417e-09
2.60014e-08
1.03897e-09
2.56998e-08
4.31122e-09
5.6093e-10
1.60644e-09
2.89974e-08
1.0982e-09
1.6133e-09
2.85035e-08
1.61217e-09
1.61204e-09
2.80082e-08
2.10061e-09
1.60807e-09
2.75176e-08
2.56155e-09
1.60083e-09
2.70456e-08
2.99274e-09
1.5902e-09
2.66051e-08
3.39072e-09
1.57572e-09
2.61996e-08
3.75113e-09
1.55652e-09
2.58268e-08
4.06739e-09
1.53467e-09
2.54864e-08
1.53097e-09
2.51666e-08
4.32316e-09
5.59148e-10
2.09241e-09
2.84847e-08
1.09485e-09
2.10201e-09
2.79952e-08
1.6078e-09
2.10031e-09
2.75135e-08
2.09567e-09
2.09544e-09
2.70401e-08
2.55576e-09
2.08683e-09
2.65767e-08
2.98609e-09
2.07317e-09
2.61322e-08
3.38408e-09
2.05393e-09
2.57167e-08
3.74553e-09
2.02893e-09
2.53315e-08
4.06408e-09
2.00126e-09
2.4976e-08
1.99927e-09
2.46421e-08
4.3243e-09
5.56642e-10
2.55016e-09
2.80127e-08
1.08995e-09
2.56316e-09
2.7523e-08
1.60043e-09
2.56149e-09
2.70426e-08
2.08656e-09
2.55537e-09
2.65727e-08
2.54555e-09
2.54517e-09
2.61156e-08
2.97432e-09
2.52941e-09
2.56716e-08
3.37071e-09
2.50606e-09
2.52449e-08
3.73201e-09
2.47473e-09
2.48429e-08
4.05215e-09
2.44091e-09
2.44706e-08
2.44033e-09
2.41244e-08
4.31643e-09
5.5303e-10
2.97662e-09
2.75811e-08
1.08299e-09
2.9937e-09
2.70873e-08
1.59003e-09
2.99284e-09
2.66049e-08
2.07267e-09
2.98601e-09
2.61295e-08
2.52911e-09
2.97372e-09
2.56675e-08
2.95622e-09
2.95548e-09
2.52224e-08
3.3504e-09
2.92918e-09
2.47892e-08
3.70983e-09
2.89199e-09
2.43687e-08
4.03063e-09
2.85075e-09
2.39727e-08
2.84987e-09
2.36123e-08
4.29928e-09
5.47935e-10
3.36806e-09
2.71904e-08
1.07312e-09
3.39026e-09
2.66888e-08
1.57569e-09
3.39085e-09
2.62005e-08
2.05369e-09
3.38422e-09
2.57167e-08
2.50528e-09
3.37062e-09
2.52414e-08
2.92864e-09
3.34937e-09
2.47826e-08
3.32028e-09
3.31959e-09
2.43413e-08
3.67706e-09
3.27752e-09
2.39061e-08
3.99739e-09
3.22785e-09
2.34818e-08
3.22221e-09
2.31023e-08
4.27197e-09
5.4092e-10
3.71982e-09
2.68405e-08
1.05981e-09
3.74832e-09
2.63278e-08
1.55655e-09
3.75125e-09
2.58279e-08
2.02898e-09
3.74567e-09
2.53325e-08
2.47449e-09
3.73219e-09
2.48426e-08
2.89102e-09
3.70949e-09
2.43626e-08
3.27677e-09
3.67612e-09
2.38991e-08
3.62904e-09
3.62871e-09
2.34427e-08
3.94791e-09
3.56877e-09
2.29909e-08
3.54892e-09
2.2588e-08
4.23247e-09
5.32174e-10
4.02544e-09
2.65314e-08
1.04422e-09
4.06088e-09
2.60029e-08
1.53475e-09
4.0675e-09
2.54877e-08
2.00139e-09
4.06417e-09
2.49772e-08
2.44117e-09
4.0522e-09
2.44717e-08
2.85072e-09
4.03057e-09
2.39716e-08
3.22719e-09
3.99708e-09
2.34784e-08
3.56834e-09
3.94737e-09
2.29883e-08
3.87746e-09
3.87713e-09
2.25001e-08
3.81889e-09
2.20563e-08
4.17827e-09
5.26598e-10
2.62575e-08
4.27159e-09
1.03905e-09
2.57012e-08
4.31131e-09
1.5311e-09
2.51679e-08
4.32323e-09
1.99945e-09
2.46433e-08