/*--------------------------------*- C++ -*----------------------------------*\
| =========                 |                                                 |
| \\      /  F ield         | foam-extend: Open Source CFD                    |
|  \\    /   O peration     | Version:     3.1                                |
|   \\  /    A nd           | Web:         http://www.extend-project.de       |
|    \\/     M anipulation  |                                                 |
\*---------------------------------------------------------------------------*/
FoamFile
{
    version     2.0;
    format      ascii;
    class       pointVectorField;
    location    "0.002";
    object      pointMotionU;
}
// * * * * * * * * * * * * * * * * * * * * * * * * * * * * * * * * * * * * * //

dimensions      [0 1 -1 0 0 0 0];

internalField   nonuniform List<vector> 
18306
(
(0 0 0)
(0 0 0)
(0 0 0)
(0 0 0)
(0 0 0)
(0 0 0)
(0 0 0)
(0 0 0)
(0 0 0)
(0 0 0)
(0 0 0)
(0 0 0)
(0 0 0)
(0 0 0)
(0 0 0)
(0 0 0)
(0 0 0)
(0 0 0)
(0 0 0)
(0 0 0)
(0 0 0)
(0 0 0)
(0 0 0)
(0 0 0)
(0 0 0)
(0 0 0)
(0 0 0)
(0 0 0)
(0 0 0)
(0 0 0)
(0 0 0)
(0 0 0)
(0 0 0)
(0 0 0)
(0 0 0)
(0 0 0)
(0 0 0)
(0 0 0)
(0 0 0)
(0 0 0)
(0 0 0)
(0 0 0)
(0 0 0)
(0 0 0)
(0 0 0)
(0 0 0)
(0 0 0)
(0 0 0)
(0 0 0)
(0 0 0)
(0 0 0)
(0 0 0)
(0 0 0)
(0 0 0)
(0 0 0)
(0 0 0)
(0 0 0)
(0 0 0)
(0 0 0)
(0 0 0)
(0 0 0)
(0 0 0)
(0 0 0)
(0 0 0)
(0 0 0)
(0 0 0)
(0 0 0)
(0 0 0)
(0 0 0)
(0 0 0)
(0 0 0)
(0 0 0)
(0 0 0)
(0 0 0)
(0 0 0)
(0 0 0)
(0 0 0)
(0 0 0)
(0 0 0)
(0 0 0)
(0 0 0)
(0 0 0)
(0 0 0)
(0 0 0)
(0 0 0)
(0 0 0)
(0 0 0)
(0 0 0)
(0 0 0)
(0 0 0)
(0 0 0)
(0 0 0)
(0 0 0)
(0 0 0)
(0 0 0)
(0 0 0)
(0 0 0)
(0 0 0)
(0 0 0)
(0 0 0)
(0 0 0)
(0 0 0)
(0 0 0)
(0 0 0)
(0 0 0)
(0 0 0)
(0 0 0)
(0 0 0)
(0 0 0)
(0 0 0)
(0 0 0)
(0 0 0)
(0 0 0)
(0 0 0)
(0 0 0)
(0 0 0)
(0 0 0)
(0 0 0)
(0 0 0)
(0 0 0)
(0 0 0)
(0 -0 -8.63769e-08)
(5.09923e-10 0 -8.73977e-08)
(1.23914e-09 0 -9.06103e-08)
(2.41668e-09 0 -9.59485e-08)
(4.30473e-09 0 -1.03519e-07)
(7.23058e-09 0 -1.13551e-07)
(1.16396e-08 0 -1.2637e-07)
(1.81741e-08 0 -1.42391e-07)
(2.77837e-08 0 -1.62079e-07)
(4.19025e-08 0 -1.85888e-07)
(6.30761e-08 0 -2.14601e-07)
(0 1.71432e-09 -8.70894e-08)
(5.61728e-10 1.73936e-09 -8.81031e-08)
(1.34822e-09 1.81953e-09 -9.12882e-08)
(2.58853e-09 1.97407e-09 -9.65916e-08)
(4.54361e-09 2.20824e-09 -1.0412e-07)
(7.5369e-09 2.51619e-09 -1.14096e-07)
(1.19999e-08 2.88957e-09 -1.26835e-07)
(1.85465e-08 3.32265e-09 -1.42741e-07)
(2.80494e-08 3.81435e-09 -1.6224e-07)
(4.17386e-08 4.37637e-09 -1.85693e-07)
(6.13967e-08 4.92648e-09 -2.1335e-07)
(0 3.59025e-09 -8.9406e-08)
(7.07311e-10 3.64931e-09 -9.03856e-08)
(1.6531e-09 3.83009e-09 -9.34876e-08)
(3.07233e-09 4.15193e-09 -9.86881e-08)
(5.22282e-09 4.6334e-09 -1.0609e-07)
(8.41731e-09 5.27727e-09 -1.15904e-07)
(1.30618e-08 6.07135e-09 -1.28433e-07)
(1.96984e-08 7.00558e-09 -1.44039e-07)
(2.90306e-08 8.07578e-09 -1.63056e-07)
(4.19229e-08 9.29789e-09 -1.85693e-07)
(5.92906e-08 1.04407e-08 -2.11887e-07)
(0 5.84272e-09 -9.3292e-08)
(9.2649e-10 5.93357e-09 -9.4229e-08)
(2.11108e-09 6.21446e-09 -9.72149e-08)
(3.80455e-09 6.71127e-09 -1.02259e-07)
(6.27153e-09 7.45592e-09 -1.09476e-07)
(9.81276e-09 8.47156e-09 -1.1906e-07)
(1.48058e-08 9.75707e-09 -1.31296e-07)
(2.17276e-08 1.12985e-08 -1.46509e-07)
(3.11413e-08 1.30886e-08 -1.64951e-07)
(4.36818e-08 1.51559e-08 -1.86741e-07)
(5.96669e-08 1.70478e-08 -2.11578e-07)
(0 8.75952e-09 -9.88442e-08)
(1.18921e-09 8.86729e-09 -9.97419e-08)
(2.6675e-09 9.21053e-09 -1.02604e-07)
(4.70594e-09 9.85293e-09 -1.07461e-07)
(7.58755e-09 1.08638e-08 -1.14457e-07)
(1.16169e-08 1.22863e-08 -1.23785e-07)
(1.71505e-08 1.41365e-08 -1.35709e-07)
(2.46263e-08 1.64101e-08 -1.5053e-07)
(3.45491e-08 1.90961e-08 -1.68473e-07)
(4.74902e-08 2.22347e-08 -1.89627e-07)
(6.34015e-08 2.50794e-08 -2.1341e-07)
(0 1.27107e-08 -1.06243e-07)
(1.46371e-09 1.28043e-08 -1.07102e-07)
(3.26063e-09 1.31295e-08 -1.09846e-07)
(5.69256e-09 1.38308e-08 -1.14519e-07)
(9.06085e-09 1.50678e-08 -1.21284e-07)
(1.36902e-08 1.69287e-08 -1.30356e-07)
(1.99465e-08 1.94296e-08 -1.4201e-07)
(2.82395e-08 2.25572e-08 -1.56514e-07)
(3.90601e-08 2.63184e-08 -1.74096e-07)
(5.30067e-08 3.07578e-08 -1.94867e-07)
(6.98068e-08 3.47501e-08 -2.17885e-07)
(0 1.82122e-08 -1.15727e-07)
(1.72201e-09 1.82249e-08 -1.16545e-07)
(3.83488e-09 1.83762e-08 -1.19181e-07)
(6.68603e-09 1.89709e-08 -1.23698e-07)
(1.06026e-08 2.03312e-08 -1.3027e-07)
(1.59192e-08 2.26358e-08 -1.39126e-07)
(2.30177e-08 2.58899e-08 -1.50554e-07)
(3.23229e-08 3.00171e-08 -1.64836e-07)
(4.42929e-08 3.50096e-08 -1.82192e-07)
(5.9508e-08 4.09234e-08 -2.02729e-07)
(7.76169e-08 4.62257e-08 -2.25148e-07)
(0 2.60199e-08 -1.2757e-07)
(1.94508e-09 2.58183e-08 -1.28349e-07)
(4.35309e-09 2.54796e-08 -1.30886e-07)
(7.62941e-09 2.5651e-08 -1.35275e-07)
(1.21451e-08 2.69497e-08 -1.41714e-07)
(1.82432e-08 2.96746e-08 -1.50436e-07)
(2.62792e-08 3.3787e-08 -1.61701e-07)
(3.669e-08 3.90936e-08 -1.75823e-07)
(4.98565e-08 4.54284e-08 -1.92947e-07)
(6.62625e-08 5.2862e-08 -2.13174e-07)
(8.56157e-08 5.96133e-08 -2.34999e-07)
(0 3.72681e-08 -1.42031e-07)
(2.12506e-09 3.65659e-08 -1.42766e-07)
(4.79746e-09 3.50892e-08 -1.4519e-07)
(8.49718e-09 3.42457e-08 -1.49466e-07)
(1.36573e-08 3.51918e-08 -1.55842e-07)
(2.06497e-08 3.83398e-08 -1.64551e-07)
(2.9784e-08 4.34719e-08 -1.7579e-07)
(4.13736e-08 5.01154e-08 -1.89757e-07)
(5.56168e-08 5.78002e-08 -2.06432e-07)
(7.28837e-08 6.66133e-08 -2.2599e-07)
(9.2919e-08 7.47754e-08 -2.46861e-07)
(0 5.37273e-08 -1.59273e-07)
(2.27252e-09 5.18609e-08 -1.59932e-07)
(5.18014e-09 4.79071e-08 -1.6221e-07)
(9.30838e-09 4.50222e-08 -1.66397e-07)
(1.51805e-08 4.52366e-08 -1.72804e-07)
(2.32108e-08 4.8933e-08 -1.81648e-07)
(3.3674e-08 5.54202e-08 -1.9304e-07)
(4.6682e-08 6.36429e-08 -2.06936e-07)
(6.21041e-08 7.26533e-08 -2.23032e-07)
(7.97714e-08 8.2237e-08 -2.41167e-07)
(9.88548e-08 9.07759e-08 -2.59494e-07)
(0 7.86947e-08 -1.79513e-07)
(2.37148e-09 7.3897e-08 -1.79748e-07)
(5.3882e-09 6.47952e-08 -1.81684e-07)
(9.73996e-09 5.8046e-08 -1.85583e-07)
(1.6066e-08 5.67469e-08 -1.91765e-07)
(2.48542e-08 6.08593e-08 -2.00445e-07)
(3.63903e-08 6.88672e-08 -2.11687e-07)
(5.07188e-08 7.89194e-08 -2.25304e-07)
(6.74847e-08 8.93521e-08 -2.40703e-07)
(8.54909e-08 9.87199e-08 -2.56575e-07)
(1.03204e-07 1.06229e-07 -2.71639e-07)
(0 0 -1.58612e-07)
(-2.93136e-10 0 -1.60388e-07)
(-2.847e-10 0 -1.658e-07)
(3.10091e-10 0 -1.74768e-07)
(1.77246e-09 0 -1.87428e-07)
(4.42694e-09 0 -2.04108e-07)
(8.69358e-09 0 -2.25292e-07)
(1.51613e-08 0 -2.51605e-07)
(2.46943e-08 0 -2.83778e-07)
(3.8616e-08 0 -3.22615e-07)
(5.93914e-08 0 -3.69673e-07)
(0 2.14284e-09 -1.59849e-07)
(-1.85692e-10 2.19466e-09 -1.61609e-07)
(-6.95968e-11 2.34826e-09 -1.66966e-07)
(6.37317e-10 2.62245e-09 -1.75862e-07)
(2.22264e-09 3.01313e-09 -1.88431e-07)
(5.00737e-09 3.49507e-09 -2.04994e-07)
(9.39361e-09 4.03119e-09 -2.26014e-07)
(1.59313e-08 4.57751e-09 -2.52094e-07)
(2.53761e-08 5.08312e-09 -2.839e-07)
(3.87662e-08 5.49439e-09 -3.22058e-07)
(5.75948e-08 5.61655e-09 -3.6721e-07)
(0 4.49853e-09 -1.63697e-07)
(1.03731e-10 4.61038e-09 -1.65389e-07)
(5.18635e-10 4.9367e-09 -1.70573e-07)
(1.54633e-09 5.49605e-09 -1.79243e-07)
(3.48503e-09 6.29349e-09 -1.91529e-07)
(6.65129e-09 7.2986e-09 -2.07732e-07)
(1.14145e-08 8.44354e-09 -2.28292e-07)
(1.82288e-08 9.64245e-09 -2.53739e-07)
(2.76203e-08 1.0793e-08 -2.84566e-07)
(4.01206e-08 1.17883e-08 -3.2111e-07)
(5.59541e-08 1.21767e-08 -3.63447e-07)
(0 7.34508e-09 -1.7014e-07)
(5.13806e-10 7.50789e-09 -1.71745e-07)
(1.369e-09 7.99125e-09 -1.76679e-07)
(2.89203e-09 8.8304e-09 -1.84998e-07)
(5.39913e-09 1.0048e-08 -1.9686e-07)
(9.20627e-09 1.16282e-08 -2.1254e-07)
(1.46562e-08 1.3492e-08 -2.32443e-07)
(2.21216e-08 1.55112e-08 -2.57032e-07)
(3.19526e-08 1.7534e-08 -2.86648e-07)
(4.43904e-08 1.94211e-08 -3.21454e-07)
(5.87786e-08 2.03859e-08 -3.61133e-07)
(0 1.10512e-08 -1.7931e-07)
(9.75246e-10 1.12357e-08 -1.80828e-07)
(2.34372e-09 1.18008e-08 -1.85483e-07)
(4.47196e-09 1.28515e-08 -1.93373e-07)
(7.70966e-09 1.44733e-08 -2.04712e-07)
(1.23876e-08 1.66737e-08 -2.1978e-07)
(1.88381e-08 1.93709e-08 -2.38949e-07)
(2.74005e-08 2.24068e-08 -2.62635e-07)
(3.83678e-08 2.55747e-08 -2.91129e-07)
(5.19453e-08 2.87035e-08 -3.24528e-07)
(6.698e-08 3.05945e-08 -3.62109e-07)
(0 1.60892e-08 -1.9147e-07)
(1.4127e-09 1.62364e-08 -1.92896e-07)
(3.29243e-09 1.67306e-08 -1.97263e-07)
(6.06386e-09 1.78261e-08 -2.04704e-07)
(1.01175e-08 1.97615e-08 -2.15475e-07)
(1.582e-08 2.26118e-08 -2.29899e-07)
(2.35245e-08 2.62702e-08 -2.4837e-07)
(3.3553e-08 3.05135e-08 -2.71252e-07)
(4.62081e-08 3.50927e-08 -2.98839e-07)
(6.17755e-08 3.97823e-08 -3.31264e-07)
(7.88751e-08 4.28771e-08 -3.67286e-07)
(0 2.31188e-08 -2.0697e-07)
(1.75218e-09 2.31059e-08 -2.08295e-07)
(4.06663e-09 2.32362e-08 -2.12373e-07)
(7.44846e-09 2.40638e-08 -2.19386e-07)
(1.23413e-08 2.61146e-08 -2.2962e-07)
(1.91367e-08 2.96014e-08 -2.43437e-07)
(2.82109e-08 3.43675e-08 -2.6126e-07)
(3.99067e-08 4.0037e-08 -2.83487e-07)
(5.44987e-08 4.62541e-08 -3.10401e-07)
(7.22665e-08 5.27204e-08 -3.42138e-07)
(9.18726e-08 5.71964e-08 -3.76938e-07)
(0 3.31149e-08 -2.26223e-07)
(1.92848e-09 3.26968e-08 -2.2744e-07)
(4.53562e-09 3.18805e-08 -2.31218e-07)
(8.42786e-09 3.18547e-08 -2.37814e-07)
(1.41253e-08 3.3677e-08 -2.47578e-07)
(2.20388e-08 3.77487e-08 -2.60895e-07)
(3.25059e-08 4.37873e-08 -2.78167e-07)
(4.58694e-08 5.11543e-08 -2.99844e-07)
(6.22902e-08 5.918e-08 -3.26117e-07)
(8.18971e-08 6.74718e-08 -3.57121e-07)
(1.03625e-07 7.34618e-08 -3.90784e-07)
(0 4.75696e-08 -2.49646e-07)
(1.88588e-09 4.62243e-08 -2.50728e-07)
(4.58763e-09 4.32834e-08 -2.54133e-07)
(8.83904e-09 4.13329e-08 -2.60282e-07)
(1.52596e-08 4.23978e-08 -2.69649e-07)
(2.42977e-08 4.70527e-08 -2.82644e-07)
(3.6216e-08 5.46447e-08 -2.99581e-07)
(5.11714e-08 6.39885e-08 -3.20749e-07)
(6.90606e-08 7.3881e-08 -3.46101e-07)
(8.98121e-08 8.3844e-08 -3.75911e-07)
(1.12601e-07 9.13272e-08 -4.07976e-07)
(0 6.88977e-08 -2.77582e-07)
(1.58212e-09 6.54267e-08 -2.78434e-07)
(4.13542e-09 5.79389e-08 -2.8131e-07)
(8.56414e-09 5.22183e-08 -2.86963e-07)
(1.56222e-08 5.18625e-08 -2.9603e-07)
(2.58013e-08 5.73351e-08 -3.08921e-07)
(3.92846e-08 6.70672e-08 -3.2582e-07)
(5.59333e-08 7.8822e-08 -3.46655e-07)
(7.52074e-08 9.06121e-08 -3.70965e-07)
(9.63768e-08 1.0158e-07 -3.98526e-07)
(1.18103e-07 1.09567e-07 -4.2666e-07)
(0 1.01813e-07 -3.10693e-07)
(9.65178e-10 9.3209e-08 -3.1064e-07)
(2.98448e-09 7.63908e-08 -3.12484e-07)
(7.1108e-09 6.36828e-08 -3.17204e-07)
(1.42638e-08 6.06339e-08 -3.25533e-07)
(2.50164e-08 6.68548e-08 -3.37869e-07)
(3.95279e-08 7.91875e-08 -3.54303e-07)
(5.75398e-08 9.39441e-08 -3.74542e-07)
(7.82515e-08 1.08003e-07 -3.97697e-07)
(9.98981e-08 1.19119e-07 -4.21805e-07)
(1.20419e-07 1.26451e-07 -4.44937e-07)
(0 0 -2.08611e-07)
(-2.82638e-09 0 -2.1065e-07)
(-5.41344e-09 0 -2.16771e-07)
(-7.59776e-09 0 -2.26855e-07)
(-9.32489e-09 0 -2.40966e-07)
(-1.05813e-08 0 -2.59351e-07)
(-1.1371e-08 0 -2.82378e-07)
(-1.16907e-08 0 -3.10513e-07)
(-1.14643e-08 0 -3.44274e-07)
(-1.0391e-08 -0 -3.84213e-07)
(-7.50371e-09 -0 -4.31639e-07)
(0 8.35034e-10 -2.10002e-07)
(-2.65386e-09 9.20535e-10 -2.12015e-07)
(-5.08832e-09 1.16261e-09 -2.18052e-07)
(-7.12406e-09 1.55014e-09 -2.28017e-07)
(-8.68155e-09 2.05418e-09 -2.41974e-07)
(-9.74596e-09 2.62191e-09 -2.60166e-07)
(-1.03316e-08 3.17684e-09 -2.82934e-07)
(-1.04652e-08 3.62175e-09 -3.10716e-07)
(-1.01652e-08 3.83762e-09 -3.43951e-07)
(-9.38243e-09 3.68093e-09 -3.82983e-07)
(-7.88322e-09 2.88921e-09 -4.28186e-07)
(0 1.8154e-09 -2.14245e-07)
(-2.20263e-09 1.98077e-09 -2.16159e-07)
(-4.20393e-09 2.45481e-09 -2.21929e-07)
(-5.8028e-09 3.22296e-09 -2.31525e-07)
(-6.87157e-09 4.24195e-09 -2.45012e-07)
(-7.37065e-09 5.41999e-09 -2.62611e-07)
(-7.33034e-09 6.60997e-09 -2.84636e-07)
(-6.84366e-09 7.61998e-09 -3.11432e-07)
(-6.1051e-09 8.21637e-09 -3.43236e-07)
(-5.49981e-09 8.1316e-09 -3.80044e-07)
(-6.08493e-09 6.83206e-09 -4.21661e-07)
(0 3.1151e-09 -2.2132e-07)
(-1.60414e-09 3.33934e-09 -2.23098e-07)
(-2.97493e-09 3.99814e-09 -2.28469e-07)
(-3.88722e-09 5.10733e-09 -2.37484e-07)
(-4.17489e-09 6.63818e-09 -2.50253e-07)
(-3.75395e-09 8.48186e-09 -2.66965e-07)
(-2.63984e-09 1.04331e-08 -2.87894e-07)
(-9.64308e-10 1.22042e-08 -3.13303e-07)
(9.76616e-10 1.3454e-08 -3.4325e-07)
(2.61113e-09 1.3827e-08 -3.77509e-07)
(1.95021e-09 1.24868e-08 -4.15578e-07)
(0 4.9622e-09 -2.31314e-07)
(-9.752e-10 5.20425e-09 -2.3294e-07)
(-1.65338e-09 5.94293e-09 -2.37843e-07)
(-1.74933e-09 7.28448e-09 -2.46132e-07)
(-1.04862e-09 9.27861e-09 -2.57989e-07)
(5.73073e-10 1.18311e-08 -2.73623e-07)
(3.14395e-09 1.46841e-08 -2.93266e-07)
(6.56451e-09 1.74512e-08 -3.17126e-07)
(1.05536e-08 1.96739e-08 -3.45193e-07)
(1.46243e-08 2.09177e-08 -3.77163e-07)
(1.63149e-08 2.00139e-08 -4.12264e-07)
(0 7.6685e-09 -2.4443e-07)
(-4.42392e-10 7.84838e-09 -2.45891e-07)
(-4.97488e-10 8.46484e-09 -2.5028e-07)
(2.0461e-10 9.81888e-09 -2.57766e-07)
(1.95146e-09 1.21449e-08 -2.68592e-07)
(4.92102e-09 1.54215e-08 -2.83027e-07)
(9.18684e-09 1.93293e-08 -3.01342e-07)
(1.46999e-08 2.33352e-08 -3.23686e-07)
(2.12723e-08 2.68406e-08 -3.50039e-07)
(2.85933e-08 2.92985e-08 -3.80139e-07)
(3.41119e-08 2.91615e-08 -4.12849e-07)
(0 1.17053e-08 -2.60938e-07)
(-1.36202e-10 1.16627e-08 -2.62208e-07)
(2.30358e-10 1.17692e-08 -2.66044e-07)
(1.57666e-09 1.27274e-08 -2.72689e-07)
(4.27865e-09 1.5137e-08 -2.8245e-07)
(8.57079e-09 1.91179e-08 -2.95659e-07)
(1.45611e-08 2.42531e-08 -3.12635e-07)
(2.22357e-08 2.97738e-08 -3.33571e-07)
(3.14506e-08 3.48486e-08 -3.58435e-07)
(4.19679e-08 3.87536e-08 -3.86969e-07)
(5.15257e-08 3.95508e-08 -4.17649e-07)
(0 1.78381e-08 -2.81123e-07)
(-1.8152e-10 1.72502e-08 -2.82175e-07)
(2.77022e-10 1.6085e-08 -2.85392e-07)
(1.98705e-09 1.58923e-08 -2.9114e-07)
(5.43058e-09 1.79653e-08 -2.99834e-07)
(1.08877e-08 2.26285e-08 -3.11868e-07)
(1.84487e-08 2.92349e-08 -3.27559e-07)
(2.80877e-08 3.66207e-08 -3.47168e-07)
(3.95687e-08 4.35342e-08 -3.706e-07)
(5.25401e-08 4.90139e-08 -3.97597e-07)
(6.53331e-08 5.08709e-08 -4.26372e-07)
(0 2.73728e-08 -3.0523e-07)
(-6.98107e-10 2.55525e-08 -3.06004e-07)
(-5.92302e-10 2.15863e-08 -3.0845e-07)
(1.09464e-09 1.88785e-08 -3.13177e-07)
(4.97016e-09 1.99809e-08 -3.20798e-07)
(1.13605e-08 2.54014e-08 -3.31773e-07)
(2.02907e-08 3.39411e-08 -3.46362e-07)
(3.1565e-08 4.36627e-08 -3.6469e-07)
(4.4698e-08 5.26546e-08 -3.86488e-07)
(5.91109e-08 5.97404e-08 -4.11636e-07)
(7.36948e-08 6.27698e-08 -4.38205e-07)
(0 4.26946e-08 -3.3341e-07)
(-1.80297e-09 3.8071e-08 -3.33746e-07)
(-2.59679e-09 2.81434e-08 -3.3512e-07)
(-1.39651e-09 2.05657e-08 -3.38641e-07)
(2.56304e-09 1.99453e-08 -3.4519e-07)
(9.64462e-09 2.65642e-08 -3.55266e-07)
(1.97734e-08 3.79397e-08 -3.69006e-07)
(3.24785e-08 5.07443e-08 -3.86228e-07)
(4.69022e-08 6.21142e-08 -4.06344e-07)
(6.19432e-08 7.05437e-08 -4.28888e-07)
(7.63767e-08 7.43939e-08 -4.51543e-07)
(0 6.89135e-08 -3.66152e-07)
(-3.54225e-09 5.7759e-08 -3.65282e-07)
(-5.87896e-09 3.56146e-08 -3.64896e-07)
(-5.86742e-09 1.90509e-08 -3.66676e-07)
(-2.55678e-09 1.5277e-08 -3.71726e-07)
(4.48502e-09 2.33262e-08 -3.80518e-07)
(1.51221e-08 3.84936e-08 -3.93069e-07)
(2.87462e-08 5.55197e-08 -4.08987e-07)
(4.43159e-08 7.01986e-08 -4.27379e-07)
(6.01847e-08 8.00053e-08 -4.4652e-07)
(7.45842e-08 8.44791e-08 -4.64801e-07)
(0 0 -2.3434e-07)
(-6.5784e-09 0 -2.36204e-07)
(-1.30259e-08 0 -2.41732e-07)
(-1.93566e-08 0 -2.50761e-07)
(-2.58199e-08 0 -2.6325e-07)
(-3.27803e-08 0 -2.79266e-07)
(-4.07107e-08 0 -2.9892e-07)
(-5.02031e-08 0 -3.22325e-07)
(-6.19156e-08 0 -3.49549e-07)
(-7.64116e-08 -0 -3.80602e-07)
(-9.39574e-08 -0 -4.1603e-07)
(0 -1.78125e-09 -2.35568e-07)
(-6.32491e-09 -1.64577e-09 -2.37398e-07)
(-1.25693e-08 -1.26867e-09 -2.42814e-07)
(-1.87137e-08 -7.13262e-10 -2.51677e-07)
(-2.49563e-08 -4.04324e-11 -2.63948e-07)
(-3.16525e-08 6.72694e-10 -2.79694e-07)
(-3.92712e-08 1.31875e-09 -2.98998e-07)
(-4.84146e-08 1.76246e-09 -3.21942e-07)
(-5.98006e-08 1.84182e-09 -3.48516e-07)
(-7.41663e-08 1.36261e-09 -3.78529e-07)
(-9.21776e-08 6.13815e-11 -4.11817e-07)
(0 -3.53324e-09 -2.39262e-07)
(-5.66815e-09 -3.29179e-09 -2.40967e-07)
(-1.13173e-08 -2.59508e-09 -2.46032e-07)
(-1.68947e-08 -1.51512e-09 -2.54387e-07)
(-2.24964e-08 -1.63933e-10 -2.66006e-07)
(-2.84081e-08 1.30422e-09 -2.80937e-07)
(-3.50836e-08 2.67929e-09 -2.99232e-07)
(-4.31353e-08 3.6931e-09 -3.20883e-07)
(-5.33558e-08 4.03007e-09 -3.45678e-07)
(-6.67608e-08 3.33784e-09 -3.73086e-07)
(-8.5226e-08 1.12935e-09 -4.02539e-07)
(0 -5.25887e-09 -2.45383e-07)
(-4.82906e-09 -4.94544e-09 -2.46903e-07)
(-9.61098e-09 -4.01514e-09 -2.51433e-07)
(-1.42771e-08 -2.49356e-09 -2.5899e-07)
(-1.88567e-08 -4.84528e-10 -2.69599e-07)
(-2.3524e-08 1.79843e-09 -2.83286e-07)
(-2.86528e-08 4.03894e-09 -3.00065e-07)
(-3.48236e-08 5.83453e-09 -3.19845e-07)
(-4.28125e-08 6.72789e-09 -3.42242e-07)
(-5.36636e-08 6.25576e-09 -3.66503e-07)
(-7.02066e-08 3.72969e-09 -3.91983e-07)
(0 -6.96636e-09 -2.53945e-07)
(-3.97386e-09 -6.62727e-09 -2.55248e-07)
(-7.83007e-09 -5.58319e-09 -2.59125e-07)
(-1.14208e-08 -3.75912e-09 -2.65664e-07)
(-1.47112e-08 -1.16953e-09 -2.7497e-07)
(-1.78004e-08 1.97455e-09 -2.87104e-07)
(-2.09393e-08 5.24825e-09 -3.02052e-07)
(-2.45817e-08 8.08778e-09 -3.19661e-07)
(-2.93923e-08 9.88167e-09 -3.39487e-07)
(-3.61931e-08 1.00747e-08 -3.60705e-07)
(-4.82843e-08 7.80477e-09 -3.82707e-07)
(0 -8.59605e-09 -2.65034e-07)
(-3.27722e-09 -8.32206e-09 -2.66089e-07)
(-6.33646e-09 -7.38455e-09 -2.6922e-07)
(-8.92004e-09 -5.49194e-09 -2.74589e-07)
(-1.08821e-08 -2.46726e-09 -2.82384e-07)
(-1.22482e-08 1.54868e-09 -2.92746e-07)
(-1.31924e-08 6.03931e-09 -3.05711e-07)
(-1.40236e-08 1.02193e-08 -3.21087e-07)
(-1.52054e-08 1.32545e-08 -3.38408e-07)
(-1.72917e-08 1.44591e-08 -3.56904e-07)
(-2.35719e-08 1.28101e-08 -3.75945e-07)
(0 -9.95107e-09 -2.78738e-07)
(-2.91956e-09 -9.91905e-09 -2.79503e-07)
(-5.49253e-09 -9.5179e-09 -2.81792e-07)
(-7.3337e-09 -7.99448e-09 -2.8587e-07)
(-8.17001e-09 -4.77392e-09 -2.92027e-07)
(-7.92983e-09 1.19976e-10 -3.00499e-07)
(-6.73831e-09 6.03435e-09 -3.11392e-07)
(-4.84987e-09 1.18953e-08 -3.24569e-07)
(-2.58629e-09 1.65267e-08 -3.39563e-07)
(-3.32923e-10 1.89944e-08 -3.55627e-07)
(-8.88003e-10 1.81173e-08 -3.72049e-07)
(-0 -1.05524e-08 -2.95096e-07)
(-3.07442e-09 -1.11248e-08 -2.95517e-07)
(-5.65334e-09 -1.21058e-08 -2.96832e-07)
(-7.19143e-09 -1.17684e-08 -2.9947e-07)
(-7.28267e-09 -8.75549e-09 -3.03884e-07)
(-5.77449e-09 -2.91124e-09 -3.10425e-07)
(-2.77195e-09 4.78e-09 -3.19239e-07)
(1.4489e-09 1.27598e-08 -3.30262e-07)
(6.50663e-09 1.93746e-08 -3.43037e-07)
(1.19751e-08 2.3338e-08 -3.56835e-07)
(1.59375e-08 2.33439e-08 -3.70823e-07)
(-0 -9.33816e-09 -3.1405e-07)
(-3.90843e-09 -1.12956e-08 -3.14029e-07)
(-7.14306e-09 -1.53674e-08 -3.14126e-07)
(-8.96355e-09 -1.76941e-08 -3.1509e-07)
(-8.81606e-09 -1.55005e-08 -3.17647e-07)
(-6.48898e-09 -8.47262e-09 -3.22268e-07)
(-2.12461e-09 1.69557e-09 -3.29107e-07)
(3.87208e-09 1.24935e-08 -3.38047e-07)
(1.08938e-08 2.15422e-08 -3.48602e-07)
(1.82805e-08 2.7246e-08 -3.60155e-07)
(2.49719e-08 2.83388e-08 -3.71741e-07)
(-0 -3.98604e-09 -3.35412e-07)
(-5.58716e-09 -9.12298e-09 -3.34731e-07)
(-1.02631e-08 -1.98683e-08 -3.33172e-07)
(-1.30546e-08 -2.7448e-08 -3.32128e-07)
(-1.32271e-08 -2.67546e-08 -3.32703e-07)
(-1.05297e-08 -1.78227e-08 -3.35463e-07)
(-5.20972e-09 -3.90741e-09 -3.40491e-07)
(2.09933e-09 1.08405e-08 -3.47514e-07)
(1.04936e-08 2.29656e-08 -3.55955e-07)
(1.89069e-08 3.05698e-08 -3.65164e-07)
(2.65042e-08 3.28421e-08 -3.73994e-07)
(0 1.09049e-08 -3.59246e-07)
(-8.10446e-09 -1.52424e-09 -3.57205e-07)
(-1.50143e-08 -2.61461e-08 -3.53238e-07)
(-1.95919e-08 -4.36338e-08 -3.49689e-07)
(-2.08911e-08 -4.58725e-08 -3.48035e-07)
(-1.85918e-08 -3.44612e-08 -3.48808e-07)
(-1.30309e-08 -1.53386e-08 -3.51948e-07)
(-5.00166e-09 5.07376e-09 -3.57051e-07)
(4.45459e-09 2.18251e-08 -3.63473e-07)
(1.40777e-08 3.22507e-08 -3.70311e-07)
(2.25947e-08 3.6228e-08 -3.76823e-07)
(0 0 -2.38905e-07)
(-1.06835e-08 0 -2.40351e-07)
(-2.12917e-08 0 -2.44595e-07)
(-3.19577e-08 0 -2.51475e-07)
(-4.31542e-08 0 -2.60885e-07)
(-5.54944e-08 0 -2.72772e-07)
(-6.97193e-08 0 -2.87067e-07)
(-8.67239e-08 0 -3.03666e-07)
(-1.07506e-07 0 -3.22401e-07)
(-1.3301e-07 -0 -3.43096e-07)
(-1.64141e-07 -0 -3.66085e-07)
(0 -4.87941e-09 -2.39816e-07)
(-1.03316e-08 -4.67486e-09 -2.4122e-07)
(-2.0672e-08 -4.10674e-09 -2.45332e-07)
(-3.11016e-08 -3.29976e-09 -2.5201e-07)
(-4.20131e-08 -2.34545e-09 -2.61156e-07)
(-5.40013e-08 -1.33648e-09 -2.72714e-07)
(-6.77881e-08 -3.94204e-10 -2.86592e-07)
(-8.42562e-08 3.34127e-10 -3.02648e-07)
(-1.04426e-07 6.79166e-10 -3.20635e-07)
(-1.29333e-07 4.42813e-10 -3.40171e-07)
(-1.60041e-07 -6.25088e-10 -3.6107e-07)
(0 -9.82097e-09 -2.42528e-07)
(-9.41713e-09 -9.46857e-09 -2.43788e-07)
(-1.8954e-08 -8.44024e-09 -2.47494e-07)
(-2.86456e-08 -6.87689e-09 -2.53567e-07)
(-3.87238e-08 -4.96262e-09 -2.6193e-07)
(-4.96651e-08 -2.89943e-09 -2.72511e-07)
(-6.21419e-08 -9.26822e-10 -2.85188e-07)
(-7.69894e-08 6.61698e-10 -2.99725e-07)
(-9.52012e-08 1.53568e-09 -3.15675e-07)
(-1.17934e-07 1.34046e-09 -3.323e-07)
(-1.47393e-07 -3.66613e-10 -3.49107e-07)
(0 -1.49802e-08 -2.47004e-07)
(-8.25542e-09 -1.45244e-08 -2.48048e-07)
(-1.66094e-08 -1.31563e-08 -2.51127e-07)
(-2.50921e-08 -1.09566e-08 -2.56245e-07)
(-3.38401e-08 -8.11128e-09 -2.63381e-07)
(-4.31475e-08 -4.92354e-09 -2.72457e-07)
(-5.35396e-08 -1.77499e-09 -2.83315e-07)
(-6.57521e-08 8.91359e-10 -2.95636e-07)
(-8.06571e-08 2.59646e-09 -3.08806e-07)
(-9.93021e-08 2.87887e-09 -3.21849e-07)
(-1.24914e-07 1.16415e-09 -3.34374e-07)
(0 -2.05711e-08 -2.53234e-07)
(-7.05643e-09 -2.00552e-08 -2.54012e-07)
(-1.41371e-08 -1.84641e-08 -2.56302e-07)
(-2.11775e-08 -1.57794e-08 -2.60186e-07)
(-2.8237e-08 -1.20942e-08 -2.65727e-07)
(-3.55026e-08 -7.72429e-09 -2.72902e-07)
(-4.33003e-08 -3.20843e-09 -2.81538e-07)
(-5.21536e-08 8.07281e-10 -2.9126e-07)
(-6.27508e-08 3.67899e-09 -3.01395e-07)
(-7.58303e-08 4.86164e-09 -3.10906e-07)
(-9.51748e-08 3.72283e-09 -3.19702e-07)
(0 -2.67298e-08 -2.61235e-07)
(-6.03199e-09 -2.62433e-08 -2.61699e-07)
(-1.19809e-08 -2.46358e-08 -2.63061e-07)
(-1.76535e-08 -2.16758e-08 -2.65491e-07)
(-2.29663e-08 -1.72826e-08 -2.69159e-07)
(-2.80189e-08 -1.17132e-08 -2.74142e-07)
(-3.30376e-08 -5.62112e-09 -2.80334e-07)
(-3.83245e-08 6.87455e-11 -2.87344e-07)
(-4.42878e-08 4.43602e-09 -2.94481e-07)
(-5.13649e-08 6.80765e-09 -3.00779e-07)
(-6.33446e-08 6.55506e-09 -3.06434e-07)
(0 -3.34429e-08 -2.70996e-07)
(-5.39585e-09 -3.31584e-08 -2.71085e-07)
(-1.05695e-08 -3.19536e-08 -2.71366e-07)
(-1.51897e-08 -2.91245e-08 -2.72138e-07)
(-1.90173e-08 -2.42082e-08 -2.73723e-07)
(-2.20239e-08 -1.73921e-08 -2.76331e-07)
(-2.4384e-08 -9.49638e-09 -2.79949e-07)
(-2.63443e-08 -1.76214e-09 -2.84258e-07)
(-2.8108e-08 4.46716e-09 -2.88585e-07)
(-2.99055e-08 8.21843e-09 -2.92036e-07)
(-3.49561e-08 8.88548e-09 -2.9498e-07)
(-0 -4.03921e-08 -2.82444e-07)
(-5.34748e-09 -4.0674e-08 -2.82073e-07)
(-1.03157e-08 -4.07124e-08 -2.8106e-07)
(-1.4401e-08 -3.87994e-08 -2.79926e-07)
(-1.72182e-08 -3.36871e-08 -2.79226e-07)
(-1.86359e-08 -2.54439e-08 -2.79345e-07)
(-1.87871e-08 -1.53118e-08 -2.8036e-07)
(-1.79653e-08 -5.06531e-09 -2.82028e-07)
(-1.64458e-08 3.43925e-09 -2.83767e-07)
(-1.44727e-08 8.78426e-09 -2.84739e-07)
(-1.42035e-08 1.03348e-08 -2.85296e-07)
(-0 -4.66177e-08 -2.95428e-07)
(-6.07228e-09 -4.8269e-08 -2.94448e-07)
(-1.15809e-08 -5.1282e-08 -2.91783e-07)
(-1.58145e-08 -5.17362e-08 -2.88383e-07)
(-1.82319e-08 -4.69483e-08 -2.85174e-07)
(-1.86422e-08 -3.68923e-08 -2.82733e-07)
(-1.7209e-08 -2.36453e-08 -2.8121e-07)
(-1.4348e-08 -1.00629e-08 -2.80392e-07)
(-1.05924e-08 1.22859e-09 -2.79796e-07)
(-6.44974e-09 8.43996e-09 -2.78671e-07)
(-3.01844e-09 1.09606e-08 -2.77217e-07)
(-0 -4.97702e-08 -3.09758e-07)
(-7.74945e-09 -5.46613e-08 -3.0786e-07)
(-1.46898e-08 -6.43556e-08 -3.02907e-07)
(-1.98674e-08 -6.9781e-08 -2.96715e-07)
(-2.25484e-08 -6.58716e-08 -2.90749e-07)
(-2.25091e-08 -5.30702e-08 -2.85742e-07)
(-2.00432e-08 -3.51937e-08 -2.8182e-07)
(-1.58017e-08 -1.69094e-08 -2.78749e-07)
(-1.06109e-08 -2.0216e-09 -2.76132e-07)
(-5.36381e-09 7.3606e-09 -2.73409e-07)
(-7.28792e-10 1.09619e-08 -2.70691e-07)
(-0 -4.4271e-08 -3.25617e-07)
(-1.03277e-08 -5.66402e-08 -3.22079e-07)
(-1.95457e-08 -8.06552e-08 -3.13887e-07)
(-2.65274e-08 -9.59659e-08 -3.04374e-07)
(-3.03029e-08 -9.43751e-08 -2.95572e-07)
(-3.05844e-08 -7.80885e-08 -2.88162e-07)
(-2.78027e-08 -5.38615e-08 -2.82075e-07)
(-2.28366e-08 -2.88329e-08 -2.76982e-07)
(-1.6685e-08 -8.42237e-09 -2.72587e-07)
(-1.03222e-08 4.56519e-09 -2.68806e-07)
(-4.65008e-09 1.02009e-08 -2.65664e-07)
(0 0 -2.27779e-07)
(-1.4505e-08 0 -2.28775e-07)
(-2.89114e-08 0 -2.31683e-07)
(-4.33786e-08 0 -2.36391e-07)
(-5.84765e-08 0 -2.42823e-07)
(-7.48932e-08 0 -2.50931e-07)
(-9.33991e-08 0 -2.60664e-07)
(-1.14871e-07 0 -2.71957e-07)
(-1.40239e-07 0 -2.84761e-07)
(-1.70368e-07 0 -2.99153e-07)
(-2.06247e-07 -0 -3.15891e-07)
(0 -7.75017e-09 -2.28382e-07)
(-1.40449e-08 -7.46716e-09 -2.29332e-07)
(-2.81077e-08 -6.67955e-09 -2.321e-07)
(-4.22767e-08 -5.57101e-09 -2.36593e-07)
(-5.7013e-08 -4.25822e-09 -2.42739e-07)
(-7.29771e-08 -2.8395e-09 -2.50491e-07)
(-9.09038e-08 -1.4331e-09 -2.59772e-07)
(-1.11632e-07 -1.72348e-10 -2.70472e-07)
(-1.3607e-07 8.0014e-10 -2.82442e-07)
(-1.6508e-07 1.32651e-09 -2.95522e-07)
(-1.99651e-07 1.17169e-09 -3.09962e-07)
(0 -1.56062e-08 -2.30174e-07)
(-1.28414e-08 -1.51201e-08 -2.30975e-07)
(-2.5859e-08 -1.36937e-08 -2.33321e-07)
(-3.90846e-08 -1.15368e-08 -2.37171e-07)
(-5.27625e-08 -8.89698e-09 -2.42479e-07)
(-6.73863e-08 -6.0044e-09 -2.49182e-07)
(-8.36049e-08 -3.09407e-09 -2.57167e-07)
(-1.02149e-07 -4.34054e-10 -2.66214e-07)
(-1.23797e-07 1.69432e-09 -2.75946e-07)
(-1.49351e-07 3.0104e-09 -2.85763e-07)
(-1.80832e-07 3.08453e-09 -2.95539e-07)
(0 -2.38181e-08 -2.33161e-07)
(-1.12972e-08 -2.31784e-08 -2.33736e-07)
(-2.27568e-08 -2.12529e-08 -2.35421e-07)
(-3.44176e-08 -1.81848e-08 -2.38252e-07)
(-4.64023e-08 -1.42383e-08 -2.42236e-07)
(-5.89565e-08 -9.78148e-09 -2.47318e-07)
(-7.25171e-08 -5.21037e-09 -2.53342e-07)
(-8.76516e-08 -9.34057e-10 -2.59993e-07)
(-1.04925e-07 2.63666e-09 -2.66701e-07)
(-1.24905e-07 5.14308e-09 -2.72568e-07)
(-1.50712e-07 6.03579e-09 -2.77592e-07)
(0 -3.27285e-08 -2.37378e-07)
(-9.65534e-09 -3.19667e-08 -2.37663e-07)
(-1.93966e-08 -2.96336e-08 -2.38501e-07)
(-2.91574e-08 -2.57885e-08 -2.39998e-07)
(-3.89746e-08 -2.06138e-08 -2.42255e-07)
(-4.89598e-08 -1.45104e-08 -2.45283e-07)
(-5.92857e-08 -8.06637e-09 -2.48919e-07)
(-7.02388e-08 -1.90818e-09 -2.52783e-07)
(-8.2156e-08 3.4043e-09 -2.56233e-07)
(-9.52632e-08 7.45607e-09 -2.58295e-07)
(-1.13399e-07 9.67548e-09 -2.59375e-07)
(0 -4.25681e-08 -2.42882e-07)
(-8.14971e-09 -4.17575e-08 -2.42818e-07)
(-1.62731e-08 -3.91727e-08 -2.42629e-07)
(-2.4165e-08 -3.46923e-08 -2.42526e-07)
(-3.16985e-08 -2.83718e-08 -2.42741e-07)
(-3.88908e-08 -2.05782e-08 -2.43397e-07)
(-4.5803e-08 -1.20311e-08 -2.44406e-07)
(-5.24538e-08 -3.66622e-09 -2.45387e-07)
(-5.88623e-08 3.66745e-09 -2.45675e-07)
(-6.49892e-08 9.44969e-09 -2.44375e-07)
(-7.48192e-08 1.31735e-08 -2.42327e-07)
(0 -5.33745e-08 -2.49725e-07)
(-7.00682e-09 -5.26581e-08 -2.49231e-07)
(-1.38401e-08 -5.01666e-08 -2.47808e-07)
(-2.01569e-08 -4.53554e-08 -2.45831e-07)
(-2.5662e-08 -3.79711e-08 -2.4373e-07)
(-3.02294e-08 -2.8381e-08 -2.41798e-07)
(-3.38784e-08 -1.74928e-08 -2.40054e-07)
(-3.65912e-08 -6.55923e-09 -2.38191e-07)
(-3.81683e-08 3.11407e-09 -2.35577e-07)
(-3.83994e-08 1.06898e-08 -2.31417e-07)
(-4.07644e-08 1.57559e-08 -2.26838e-07)
(0 -6.48256e-08 -2.57942e-07)
(-6.42531e-09 -6.45227e-08 -2.56895e-07)
(-1.25143e-08 -6.28509e-08 -2.53936e-07)
(-1.77552e-08 -5.83527e-08 -2.49732e-07)
(-2.17099e-08 -5.00916e-08 -2.45025e-07)
(-2.41463e-08 -3.84136e-08 -2.4034e-07)
(-2.50449e-08 -2.47131e-08 -2.35818e-07)
(-2.4472e-08 -1.07746e-08 -2.31221e-07)
(-2.23643e-08 1.57672e-09 -2.26037e-07)
(-1.85545e-08 1.10199e-08 -2.19556e-07)
(-1.54193e-08 1.71513e-08 -2.12901e-07)
(-0 -7.58911e-08 -2.67576e-07)
(-6.57655e-09 -7.67361e-08 -2.65761e-07)
(-1.26337e-08 -7.74417e-08 -2.60752e-07)
(-1.74586e-08 -7.45088e-08 -2.53801e-07)
(-2.04647e-08 -6.57265e-08 -2.46148e-07)
(-2.13743e-08 -5.14492e-08 -2.38575e-07)
(-2.02184e-08 -3.39773e-08 -2.31328e-07)
(-1.72216e-08 -1.62242e-08 -2.24226e-07)
(-1.26685e-08 -7.95045e-10 -2.16903e-07)
(-6.70062e-09 1.06209e-08 -2.08694e-07)
(-5.57778e-10 1.7622e-08 -2.00518e-07)
(-0 -8.40881e-08 -2.78802e-07)
(-7.61169e-09 -8.78328e-08 -2.75767e-07)
(-1.44758e-08 -9.43591e-08 -2.6777e-07)
(-1.96441e-08 -9.53356e-08 -2.5728e-07)
(-2.23387e-08 -8.64031e-08 -2.46283e-07)
(-2.22657e-08 -6.84896e-08 -2.35765e-07)
(-1.96305e-08 -4.5672e-08 -2.25939e-07)
(-1.49597e-08 -2.27246e-08 -2.16634e-07)
(-8.90952e-09 -3.47653e-09 -2.07613e-07)
(-2.09564e-09 1.00245e-08 -1.98468e-07)
(4.69399e-09 1.75876e-08 -1.90004e-07)
(-0 -8.37596e-08 -2.92432e-07)
(-9.44958e-09 -9.4436e-08 -2.87225e-07)
(-1.79124e-08 -1.14165e-07 -2.74838e-07)
(-2.42553e-08 -1.23837e-07 -2.60036e-07)
(-2.74458e-08 -1.16197e-07 -2.45622e-07)
(-2.71339e-08 -9.39654e-08 -2.32473e-07)
(-2.372e-08 -6.4131e-08 -2.20489e-07)
(-1.80623e-08 -3.39466e-08 -2.09343e-07)
(-1.11024e-08 -8.91637e-09 -1.98914e-07)
(-3.72692e-09 8.05833e-09 -1.89543e-07)
(3.30089e-09 1.7094e-08 -1.81626e-07)
(0 0 -2.06244e-07)
(-1.78238e-08 0 -2.06884e-07)
(-3.54934e-08 0 -2.08765e-07)
(-5.31537e-08 0 -2.11858e-07)
(-7.14139e-08 0 -2.16185e-07)
(-9.09686e-08 0 -2.21823e-07)
(-1.12536e-07 0 -2.2889e-07)
(-1.36879e-07 0 -2.37573e-07)
(-1.6476e-07 0 -2.48184e-07)
(-1.96885e-07 0 -2.61332e-07)
(-2.34339e-07 0 -2.7856e-07)
(0 -9.98951e-09 -2.06632e-07)
(-1.7263e-08 -9.64025e-09 -2.07228e-07)
(-3.45167e-08 -8.66674e-09 -2.08976e-07)
(-5.18184e-08 -7.30002e-09 -2.11863e-07)
(-6.96422e-08 -5.67511e-09 -2.15915e-07)
(-8.86436e-08 -3.88886e-09 -2.21205e-07)
(-1.09485e-07 -2.04477e-09 -2.27826e-07)
(-1.32852e-07 -2.45182e-10 -2.35904e-07)
(-1.59416e-07 1.41682e-09 -2.45627e-07)
(-1.8972e-07 2.85491e-09 -2.57302e-07)
(-2.24583e-07 3.87485e-09 -2.71822e-07)