/*--------------------------------*- C++ -*----------------------------------*\
| =========                 |                                                 |
| \\      /  F ield         | foam-extend: Open Source CFD                    |
|  \\    /   O peration     | Version:     3.1                                |
|   \\  /    A nd           | Web:         http://www.extend-project.de       |
|    \\/     M anipulation  |                                                 |
\*---------------------------------------------------------------------------*/
FoamFile
{
    version     2.0;
    format      ascii;
    class       surfaceVectorField;
    location    "0.002";
    object      Sf;
}
// * * * * * * * * * * * * * * * * * * * * * * * * * * * * * * * * * * * * * //

dimensions      [0 2 0 0 0 0 0];

internalField   nonuniform List<vector> 
45800
(
(2.11255e-07 3.68802e-09 -9.56332e-10)
(3.68733e-09 2.11252e-07 -9.58901e-10)
(-1.38251e-11 -1.3746e-11 1.16469e-07)
(2.07587e-07 7.36975e-09 -1.84477e-09)
(3.70866e-09 2.1125e-07 -9.49759e-10)
(-4.08999e-11 -1.44116e-11 1.14391e-07)
(2.03938e-07 1.10487e-08 -2.64641e-09)
(3.71554e-09 2.11255e-07 -9.25544e-10)
(-6.62348e-11 -1.57504e-11 1.12279e-07)
(2.00312e-07 1.47315e-08 -3.36335e-09)
(3.71701e-09 2.11283e-07 -8.97226e-10)
(-9.11778e-11 -1.79327e-11 1.10166e-07)
(1.96711e-07 1.84202e-08 -4.00045e-09)
(3.71814e-09 2.1134e-07 -8.6843e-10)
(-1.16853e-10 -2.11112e-11 1.08056e-07)
(1.93136e-07 2.21168e-08 -4.56073e-09)
(3.71902e-09 2.11427e-07 -8.4002e-10)
(-1.44148e-10 -2.54246e-11 1.05951e-07)
(1.8959e-07 2.58235e-08 -5.04544e-09)
(3.71924e-09 2.11545e-07 -8.13042e-10)
(-1.73891e-10 -3.10859e-11 1.03847e-07)
(1.86078e-07 2.95427e-08 -5.45375e-09)
(3.71877e-09 2.11697e-07 -7.88813e-10)
(-2.06486e-10 -3.8265e-11 1.01746e-07)
(1.82602e-07 3.32775e-08 -5.78235e-09)
(3.71748e-09 2.11883e-07 -7.68754e-10)
(-2.41847e-10 -4.67364e-11 9.96459e-08)
(3.72887e-09 2.12108e-07 -7.47647e-10)
(-2.81571e-10 -5.38312e-11 9.75409e-08)
(1.79155e-07 3.70349e-08 -6.0277e-09)
(2.1125e-07 3.70793e-09 -9.47209e-10)
(7.36841e-09 2.07585e-07 -1.846e-09)
(-1.44633e-11 -4.07834e-11 1.14387e-07)
(2.07597e-07 7.40357e-09 -1.83781e-09)
(7.40219e-09 2.07596e-07 -1.84041e-09)
(-4.09638e-11 -4.08278e-11 1.12333e-07)
(2.03957e-07 1.10883e-08 -2.65061e-09)
(7.42187e-09 2.07611e-07 -1.80727e-09)
(-6.60032e-11 -4.11746e-11 1.10246e-07)
(2.00335e-07 1.47723e-08 -3.38003e-09)
(7.42978e-09 2.07641e-07 -1.76053e-09)
(-9.07141e-11 -4.20842e-11 1.08144e-07)
(1.96736e-07 1.84622e-08 -4.02818e-09)
(7.43293e-09 2.07693e-07 -1.70965e-09)
(-1.16155e-10 -4.37263e-11 1.0604e-07)
(1.93163e-07 2.21597e-08 -4.59813e-09)
(7.43537e-09 2.07775e-07 -1.65858e-09)
(-1.43175e-10 -4.63065e-11 1.03938e-07)
(1.89618e-07 2.58673e-08 -5.09127e-09)
(7.43625e-09 2.07888e-07 -1.60958e-09)
(-1.72527e-10 -4.99699e-11 1.01839e-07)
(1.86105e-07 2.9588e-08 -5.50679e-09)
(7.43602e-09 2.08031e-07 -1.56519e-09)
(-2.04312e-10 -5.44993e-11 9.97404e-08)
(1.82626e-07 3.33245e-08 -5.84157e-09)
(7.43534e-09 2.08206e-07 -1.52741e-09)
(-2.38076e-10 -5.92232e-11 9.76414e-08)
(7.46154e-09 2.08418e-07 -1.48453e-09)
(-2.72429e-10 -6.21134e-11 9.55324e-08)
(1.79165e-07 3.70763e-08 -6.0898e-09)
(2.11252e-07 3.7136e-09 -9.24374e-10)
(1.10481e-08 2.03937e-07 -2.64537e-09)
(-1.57499e-11 -6.62049e-11 1.12276e-07)
(2.0761e-07 7.42055e-09 -1.80459e-09)
(1.10861e-08 2.03955e-07 -2.65092e-09)
(-4.12588e-11 -6.58986e-11 1.10242e-07)
(2.03981e-07 1.11176e-08 -2.62063e-09)
(1.1116e-08 2.0398e-07 -2.62278e-09)
(-6.56956e-11 -6.55494e-11 1.08182e-07)
(2.00366e-07 1.48079e-08 -3.36022e-09)
(1.11352e-08 2.04016e-07 -2.57114e-09)
(-8.99229e-11 -6.5483e-11 1.06101e-07)
(1.96769e-07 1.85001e-08 -4.01921e-09)
(1.1144e-08 2.04067e-07 -2.50761e-09)
(-1.1489e-10 -6.59155e-11 1.04007e-07)
(1.93198e-07 2.21998e-08 -4.59886e-09)
(1.11483e-08 2.04143e-07 -2.44112e-09)
(-1.41457e-10 -6.70707e-11 1.01911e-07)
(1.89654e-07 2.59094e-08 -5.10052e-09)
(1.11508e-08 2.04247e-07 -2.37643e-09)
(-1.70174e-10 -6.91267e-11 9.9817e-08)
(1.86138e-07 2.96317e-08 -5.52293e-09)
(1.11521e-08 2.0438e-07 -2.31671e-09)
(-2.00751e-10 -7.18871e-11 9.77219e-08)
(1.82654e-07 3.33691e-08 -5.86343e-09)
(1.11526e-08 2.04544e-07 -2.26465e-09)
(-2.32652e-10 -7.49347e-11 9.56251e-08)
(1.11948e-08 2.04746e-07 -2.20244e-09)
(-2.62717e-10 -7.62779e-11 9.3519e-08)
(1.79183e-07 3.71178e-08 -6.11778e-09)
(2.11281e-07 3.7165e-09 -8.97356e-10)
(1.47314e-08 2.00312e-07 -3.36149e-09)
(-1.79087e-11 -9.12325e-11 1.10165e-07)
(2.07638e-07 7.42774e-09 -1.75951e-09)
(1.47714e-08 2.00334e-07 -3.37865e-09)
(-4.20948e-11 -9.07384e-11 1.08141e-07)
(2.04014e-07 1.11338e-08 -2.56881e-09)
(1.48056e-08 2.00364e-07 -3.36039e-09)
(-6.55707e-11 -8.98627e-11 1.06097e-07)
(2.00405e-07 1.48346e-08 -3.31169e-09)
(1.48331e-08 2.00404e-07 -3.31369e-09)
(-8.91038e-11 -8.89917e-11 1.04035e-07)
(1.96811e-07 1.85324e-08 -3.9791e-09)
(1.48515e-08 2.00458e-07 -3.24741e-09)
(-1.13414e-10 -8.84473e-11 1.01956e-07)
(1.93238e-07 2.22345e-08 -4.56754e-09)
(1.48607e-08 2.00529e-07 -3.17199e-09)
(-1.39351e-10 -8.84697e-11 9.98678e-08)
(1.89692e-07 2.59468e-08 -5.07676e-09)
(1.48646e-08 2.00624e-07 -3.09643e-09)
(-1.67385e-10 -8.93226e-11 9.77771e-08)
(1.86173e-07 2.96714e-08 -5.50528e-09)
(1.48674e-08 2.00747e-07 -3.02593e-09)
(-1.96987e-10 -9.11091e-11 9.56851e-08)
(1.82683e-07 3.34103e-08 -5.85097e-09)
(1.48701e-08 2.00899e-07 -2.96324e-09)
(-2.27626e-10 -9.37622e-11 9.3591e-08)
(1.49276e-08 2.01092e-07 -2.88521e-09)
(-2.53824e-10 -9.4635e-11 9.14908e-08)
(1.79204e-07 3.71582e-08 -6.11291e-09)
(2.11339e-07 3.71819e-09 -8.68803e-10)
(1.84201e-08 1.96711e-07 -3.99844e-09)
(-2.10982e-11 -1.16943e-10 1.08057e-07)
(2.07693e-07 7.43233e-09 -1.71e-09)
(1.84618e-08 1.96736e-07 -4.02642e-09)
(-4.37046e-11 -1.16242e-10 1.06039e-07)
(2.04065e-07 1.11421e-08 -2.50684e-09)
(1.84991e-08 1.96769e-07 -4.01811e-09)
(-6.59016e-11 -1.1492e-10 1.04004e-07)
(2.00457e-07 1.48503e-08 -3.2452e-09)
(1.85301e-08 1.96809e-07 -3.97952e-09)
(-8.85053e-11 -1.13348e-10 1.01953e-07)
(1.96865e-07 1.85572e-08 -3.91528e-09)
(1.85555e-08 1.96863e-07 -3.91753e-09)
(-1.1206e-10 -1.11951e-10 9.98887e-08)
(1.93289e-07 2.22641e-08 -4.5103e-09)
(1.85732e-08 1.96933e-07 -3.84016e-09)
(-1.37355e-10 -1.11151e-10 9.78111e-08)
(1.89737e-07 2.59781e-08 -5.02584e-09)
(1.85815e-08 1.97022e-07 -3.75743e-09)
(-1.64709e-10 -1.11194e-10 9.57239e-08)
(1.86214e-07 2.97055e-08 -5.45892e-09)
(1.85846e-08 1.97132e-07 -3.67855e-09)
(-1.93741e-10 -1.12327e-10 9.36324e-08)
(1.82719e-07 3.34479e-08 -5.80813e-09)
(1.8589e-08 1.97271e-07 -3.60808e-09)
(-2.23796e-10 -1.14836e-10 9.15402e-08)
(1.86597e-08 1.97458e-07 -3.51828e-09)
(-2.46107e-10 -1.15218e-10 8.94476e-08)
(1.79233e-07 3.71978e-08 -6.07712e-09)
(2.11427e-07 3.71904e-09 -8.40348e-10)
(2.21167e-08 1.93136e-07 -4.55872e-09)
(-2.54201e-11 -1.44237e-10 1.05951e-07)
(2.07775e-07 7.43544e-09 -1.65922e-09)
(2.21594e-08 1.93163e-07 -4.59636e-09)
(-4.62765e-11 -1.43262e-10 1.03939e-07)
(2.04142e-07 1.11476e-08 -2.44161e-09)
(2.21994e-08 1.93198e-07 -4.59749e-09)
(-6.70099e-11 -1.41535e-10 1.01911e-07)
(2.00527e-07 1.48585e-08 -3.17135e-09)
(2.22334e-08 1.93238e-07 -4.56693e-09)
(-8.84632e-11 -1.39402e-10 9.98657e-08)
(1.96932e-07 1.85717e-08 -3.83772e-09)
(2.22615e-08 1.93287e-07 -4.51133e-09)
(-1.11189e-10 -1.37315e-10 9.78081e-08)
(1.93356e-07 2.22875e-08 -4.43421e-09)
(2.22852e-08 1.93353e-07 -4.43735e-09)
(-1.35837e-10 -1.35737e-10 9.5741e-08)
(1.89798e-07 2.60061e-08 -4.95398e-09)
(2.23023e-08 1.93438e-07 -4.35227e-09)
(-1.62569e-10 -1.35028e-10 9.36613e-08)
(1.86266e-07 2.97352e-08 -5.38995e-09)
(2.23084e-08 1.93538e-07 -4.26631e-09)
(-1.91214e-10 -1.35538e-10 9.15698e-08)
(1.82763e-07 3.34814e-08 -5.73966e-09)
(2.23129e-08 1.93662e-07 -4.18812e-09)
(-2.20909e-10 -1.37413e-10 8.94753e-08)
(2.23913e-08 1.93839e-07 -4.08956e-09)
(-2.39252e-10 -1.36527e-10 8.73894e-08)
(1.7927e-07 3.72362e-08 -6.01292e-09)
(2.11545e-07 3.71926e-09 -8.13347e-10)
(2.58234e-08 1.89591e-07 -5.04359e-09)
(-3.10828e-11 -1.73982e-10 1.03848e-07)
(2.07888e-07 7.43627e-09 -1.61018e-09)
(2.5867e-08 1.89619e-07 -5.08965e-09)
(-4.99353e-11 -1.72611e-10 1.01839e-07)
(2.04247e-07 1.11507e-08 -2.37729e-09)
(2.5909e-08 1.89654e-07 -5.09925e-09)
(-6.90607e-11 -1.7025e-10 9.98174e-08)
(2.00623e-07 1.48636e-08 -3.09732e-09)
(2.59464e-08 1.89692e-07 -5.0759e-09)
(-8.92749e-11 -1.67438e-10 9.77769e-08)
(1.97019e-07 1.85785e-08 -3.75699e-09)
(2.59772e-08 1.89737e-07 -5.02559e-09)
(-1.11108e-10 -1.64682e-10 9.57212e-08)
(1.93436e-07 2.23e-08 -4.34898e-09)
(2.60028e-08 1.89794e-07 -4.95532e-09)
(-1.3495e-10 -1.62337e-10 9.36567e-08)
(1.89874e-07 2.60271e-08 -4.86795e-09)
(2.60255e-08 1.89872e-07 -4.87128e-09)
(-1.61123e-10 -1.60799e-10 9.15841e-08)
(1.86332e-07 2.97613e-08 -5.30411e-09)
(2.60395e-08 1.89964e-07 -4.78104e-09)
(-1.88878e-10 -1.59971e-10 8.94964e-08)
(1.82816e-07 3.35112e-08 -5.65069e-09)
(2.60461e-08 1.90072e-07 -4.69417e-09)
(-2.17653e-10 -1.59691e-10 8.73975e-08)
(2.61227e-08 1.90234e-07 -4.58833e-09)
(-2.32427e-10 -1.56349e-10 8.53158e-08)
(1.79317e-07 3.72726e-08 -5.92345e-09)
(2.11698e-07 3.71882e-09 -7.89091e-10)
(2.95426e-08 1.86079e-07 -5.45223e-09)
(-3.82605e-11 -2.06582e-10 1.01747e-07)
(2.08031e-07 7.43612e-09 -1.56574e-09)
(2.95878e-08 1.86106e-07 -5.50545e-09)
(-5.44538e-11 -2.04396e-10 9.9741e-08)
(2.04381e-07 1.11522e-08 -2.31754e-09)
(2.96315e-08 1.86139e-07 -5.52188e-09)
(-7.17993e-11 -2.00807e-10 9.77224e-08)
(2.00747e-07 1.48677e-08 -3.02716e-09)
(2.96712e-08 1.86174e-07 -5.50449e-09)
(-9.09902e-11 -1.96983e-10 9.56855e-08)
(1.97131e-07 1.8584e-08 -3.67979e-09)
(2.97056e-08 1.86214e-07 -5.45823e-09)
(-1.12134e-10 -1.93644e-10 9.3632e-08)
(1.93534e-07 2.23054e-08 -4.26517e-09)
(2.97343e-08 1.86264e-07 -5.38943e-09)
(-1.35127e-10 -1.90886e-10 9.15656e-08)
(1.89961e-07 2.60371e-08 -4.7778e-09)
(2.97587e-08 1.86328e-07 -5.30471e-09)
(-1.60128e-10 -1.88339e-10 8.94916e-08)
(1.86407e-07 2.97792e-08 -5.20837e-09)
(2.97784e-08 1.86407e-07 -5.21032e-09)
(-1.85393e-10 -1.84815e-10 8.74048e-08)
(1.82878e-07 3.35344e-08 -5.54728e-09)
(2.97882e-08 1.86497e-07 -5.11484e-09)
(-2.12131e-10 -1.80435e-10 8.53039e-08)
(2.98535e-08 1.86637e-07 -5.00404e-09)
(-2.23687e-10 -1.72479e-10 8.3225e-08)
(1.7937e-07 3.73045e-08 -5.81288e-09)
(2.11884e-07 3.71756e-09 -7.68981e-10)
(3.32775e-08 1.82603e-07 -5.78127e-09)
(-4.67288e-11 -2.41935e-10 9.96465e-08)
(2.08207e-07 7.4355e-09 -1.52784e-09)
(3.33243e-08 1.82626e-07 -5.84065e-09)
(-5.91666e-11 -2.38158e-10 9.7642e-08)
(2.04544e-07 1.11528e-08 -2.26528e-09)
(3.33689e-08 1.82654e-07 -5.86274e-09)
(-7.48208e-11 -2.32717e-10 9.56256e-08)
(2.00899e-07 1.48706e-08 -2.96409e-09)
(3.34102e-08 1.82684e-07 -5.85048e-09)
(-9.359e-11 -2.2766e-10 9.35915e-08)
(1.97271e-07 1.85899e-08 -3.60918e-09)
(3.34478e-08 1.82718e-07 -5.80771e-09)
(-1.14593e-10 -2.23787e-10 9.15407e-08)
(1.93661e-07 2.23127e-08 -4.18835e-09)
(3.34815e-08 1.82762e-07 -5.73911e-09)
(-1.36948e-10 -2.20901e-10 8.94744e-08)
(1.90069e-07 2.60437e-08 -4.69283e-09)
(3.35103e-08 1.82815e-07 -5.6503e-09)
(-1.59827e-10 -2.17759e-10 8.7395e-08)
(1.86495e-07 2.97864e-08 -5.11315e-09)
(3.35329e-08 1.82876e-07 -5.54771e-09)
(-1.8092e-10 -2.12123e-10 8.5302e-08)
(1.82943e-07 3.35431e-08 -5.43967e-09)
(3.35429e-08 1.82942e-07 -5.44078e-09)
(-2.02193e-10 -2.01985e-10 8.31962e-08)
(3.3583e-08 1.83037e-07 -5.32589e-09)
(-2.05966e-10 -1.81695e-10 8.11133e-08)
(1.79419e-07 3.73251e-08 -5.68806e-09)
(2.12109e-07 3.72895e-09 -7.47809e-10)
(-5.38138e-11 -2.81592e-10 9.75415e-08)
(3.7035e-08 1.79156e-07 -6.02707e-09)
(2.08419e-07 7.4617e-09 -1.48483e-09)
(-6.20469e-11 -2.72453e-10 9.5533e-08)
(3.70762e-08 1.79166e-07 -6.08929e-09)
(2.04746e-07 1.1195e-08 -2.20286e-09)
(-7.61561e-11 -2.62747e-10 9.35194e-08)
(3.71176e-08 1.79183e-07 -6.11745e-09)
(2.01093e-07 1.49279e-08 -2.8857e-09)
(-9.44712e-11 -2.53874e-10 9.14912e-08)
(3.71581e-08 1.79205e-07 -6.11273e-09)
(1.97458e-07 1.866e-08 -3.51877e-09)
(-1.15025e-10 -2.46212e-10 8.94479e-08)
(3.71977e-08 1.79233e-07 -6.07702e-09)
(1.9384e-07 2.23913e-08 -4.08984e-09)
(-1.36301e-10 -2.39511e-10 8.73897e-08)
(3.72361e-08 1.7927e-07 -6.01283e-09)
(1.90234e-07 2.61221e-08 -4.5883e-09)
(-1.56469e-10 -2.32777e-10 8.53158e-08)
(3.72725e-08 1.79317e-07 -5.92338e-09)
(1.86635e-07 2.98522e-08 -5.00358e-09)
(-1.72618e-10 -2.23786e-10 8.32242e-08)
(3.73041e-08 1.7937e-07 -5.81293e-09)
(1.83035e-07 3.3582e-08 -5.32498e-09)
(-1.81694e-10 -2.05676e-10 8.11121e-08)
(3.73245e-08 1.79418e-07 -5.68835e-09)
(-1.75379e-10 -1.74989e-10 7.901e-08)
(1.79462e-07 3.73321e-08 -5.55891e-09)
(3.73319e-08 1.79461e-07 -5.55944e-09)
(2.12772e-07 3.71131e-09 -9.32782e-10)
(3.70928e-09 2.12764e-07 -9.3517e-10)
(-2.47129e-11 -2.45758e-11 1.18337e-07)
(2.09032e-07 7.40078e-09 -1.79977e-09)
(3.77158e-09 2.12701e-07 -9.26636e-10)
(-7.19295e-11 -2.56962e-11 1.16185e-07)
(2.05292e-07 1.10758e-08 -2.58327e-09)
(3.7896e-09 2.12596e-07 -9.03358e-10)
(-1.15993e-10 -2.79414e-11 1.13966e-07)
(2.01569e-07 1.47527e-08 -3.28643e-09)
(3.7905e-09 2.125e-07 -8.76314e-10)
(-1.58624e-10 -3.15679e-11 1.11745e-07)
(1.97864e-07 1.84341e-08 -3.91531e-09)
(3.78926e-09 2.12429e-07 -8.49166e-10)
(-2.01463e-10 -3.67792e-11 1.09535e-07)
(1.9418e-07 2.21214e-08 -4.47453e-09)
(3.78593e-09 2.12379e-07 -8.22833e-10)
(-2.45598e-10 -4.37137e-11 1.07333e-07)
(1.90519e-07 2.58157e-08 -4.96764e-09)
(3.77909e-09 2.12344e-07 -7.9846e-10)
(-2.91812e-10 -5.25763e-11 1.05139e-07)
(1.86884e-07 2.9518e-08 -5.39703e-09)
(3.76834e-09 2.1232e-07 -7.77555e-10)
(-3.39898e-10 -6.3426e-11 1.02953e-07)
(1.83278e-07 3.32301e-08 -5.76381e-09)
(3.75291e-09 2.12295e-07 -7.6186e-10)
(-3.88507e-10 -7.55839e-11 1.00775e-07)
(3.77271e-09 2.12268e-07 -7.47526e-10)
(-4.38449e-10 -8.45224e-11 9.85943e-08)
(1.79662e-07 3.6964e-08 -6.06966e-09)
(2.12698e-07 3.76941e-09 -9.24234e-10)
(7.39685e-09 2.09026e-07 -1.80075e-09)
(-2.57831e-11 -7.17243e-11 1.16177e-07)
(2.09006e-07 7.49922e-09 -1.79386e-09)
(7.49516e-09 2.09002e-07 -1.79616e-09)
(-7.19199e-11 -7.16818e-11 1.14073e-07)
(2.05296e-07 1.11904e-08 -2.58873e-09)
(7.54892e-09 2.08936e-07 -1.76475e-09)
(-1.15415e-10 -7.20276e-11 1.11902e-07)
(2.01587e-07 1.48702e-08 -3.30446e-09)
(7.56563e-09 2.08852e-07 -1.7204e-09)
(-1.57594e-10 -7.31981e-11 1.09703e-07)
(1.97895e-07 1.85543e-08 -3.94457e-09)
(7.56589e-09 2.08777e-07 -1.67262e-09)
(-1.99989e-10 -7.54431e-11 1.07503e-07)
(1.9422e-07 2.22439e-08 -4.51374e-09)
(7.56141e-09 2.08722e-07 -1.62555e-09)
(-2.43628e-10 -7.90305e-11 1.0531e-07)
(1.90566e-07 2.59405e-08 -5.01565e-09)
(7.54922e-09 2.08682e-07 -1.58163e-09)
(-2.89184e-10 -8.4078e-11 1.03124e-07)
(1.86936e-07 2.96478e-08 -5.45261e-09)
(7.53011e-09 2.08648e-07 -1.54378e-09)
(-3.36e-10 -9.00562e-11 1.00944e-07)
(1.83328e-07 3.33664e-08 -5.82563e-09)
(7.5054e-09 2.08613e-07 -1.51464e-09)
(-3.82228e-10 -9.56797e-11 9.87672e-08)
(7.55636e-09 2.08582e-07 -1.48511e-09)
(-4.2426e-10 -9.7596e-11 9.65773e-08)
(1.79696e-07 3.70882e-08 -6.13289e-09)
(2.12588e-07 3.78382e-09 -9.02269e-10)
(1.1074e-08 2.05292e-07 -2.58202e-09)
(-2.79359e-11 -1.15943e-10 1.13959e-07)
(2.0893e-07 7.54499e-09 -1.76228e-09)
(1.1184e-08 2.0529e-07 -2.5887e-09)
(-7.21717e-11 -1.15232e-10 1.11895e-07)
(2.05262e-07 1.12707e-08 -2.56102e-09)
(1.12661e-08 2.05259e-07 -2.56278e-09)
(-1.14493e-10 -1.1424e-10 1.09779e-07)
(2.0158e-07 1.49674e-08 -3.28733e-09)
(1.13131e-08 2.05203e-07 -2.51458e-09)
(-1.55731e-10 -1.13521e-10 1.07621e-07)
(1.97902e-07 1.86568e-08 -3.93858e-09)
(1.1326e-08 2.05135e-07 -2.45549e-09)
(-1.97214e-10 -1.13413e-10 1.05441e-07)
(1.94241e-07 2.23515e-08 -4.51787e-09)
(1.13215e-08 2.05074e-07 -2.39471e-09)
(-2.39999e-10 -1.14225e-10 1.0326e-07)
(1.90597e-07 2.60534e-08 -5.02877e-09)
(1.13073e-08 2.05027e-07 -2.33744e-09)
(-2.84444e-10 -1.1614e-10 1.01084e-07)
(1.86972e-07 2.97653e-08 -5.47297e-09)
(1.12839e-08 2.04983e-07 -2.28737e-09)
(-3.293e-10 -1.18671e-10 9.89096e-08)
(1.83365e-07 3.34877e-08 -5.8517e-09)
(1.12523e-08 2.04937e-07 -2.2481e-09)
(-3.7272e-10 -1.20951e-10 9.67372e-08)
(1.13392e-08 2.04909e-07 -2.20559e-09)
(-4.08571e-10 -1.19696e-10 9.45516e-08)
(1.79728e-07 3.72036e-08 -6.1638e-09)
(2.12497e-07 3.78899e-09 -8.76537e-10)
(1.47527e-08 2.0157e-07 -3.28438e-09)
(-3.15238e-11 -1.58727e-10 1.11744e-07)
(2.08845e-07 7.55956e-09 -1.71955e-09)
(1.48675e-08 2.01587e-07 -3.30281e-09)
(-7.32135e-11 -1.57642e-10 1.09698e-07)
(2.05198e-07 1.13091e-08 -2.51254e-09)
(1.49605e-08 2.01575e-07 -3.28707e-09)
(-1.13669e-10 -1.55631e-10 1.07615e-07)
(2.01546e-07 1.50338e-08 -3.24308e-09)
(1.50295e-08 2.01543e-07 -3.24458e-09)
(-1.5354e-10 -1.53353e-10 1.05496e-07)
(1.97886e-07 1.87374e-08 -3.90345e-09)
(1.50671e-08 2.01494e-07 -3.1841e-09)
(-1.93736e-10 -1.51316e-10 1.03345e-07)
(1.94231e-07 2.24374e-08 -4.4921e-09)
(1.5072e-08 2.01436e-07 -3.1161e-09)
(-2.3529e-10 -1.49855e-10 1.01178e-07)
(1.90594e-07 2.61457e-08 -5.01119e-09)
(1.50553e-08 2.01379e-07 -3.05012e-09)
(-2.78451e-10 -1.49292e-10 9.90089e-08)
(1.86974e-07 2.98636e-08 -5.46213e-09)
(1.50287e-08 2.01323e-07 -2.99227e-09)
(-3.21617e-10 -1.49617e-10 9.68409e-08)
(1.83368e-07 3.35905e-08 -5.84641e-09)
(1.49934e-08 2.01267e-07 -2.94647e-09)
(-3.63032e-10 -1.50482e-10 9.46737e-08)
(1.5115e-08 2.01246e-07 -2.89423e-09)
(-3.9319e-10 -1.47564e-10 9.24984e-08)
(1.79732e-07 3.73065e-08 -6.1654e-09)
(2.12429e-07 3.78943e-09 -8.4965e-10)
(1.84338e-08 1.97865e-07 -3.91309e-09)
(-3.67564e-11 -2.01628e-10 1.09535e-07)
(2.08775e-07 7.56411e-09 -1.67317e-09)
(1.85534e-08 1.97896e-07 -3.94256e-09)
(-7.54038e-11 -2.00148e-10 1.07503e-07)
(2.05129e-07 1.13204e-08 -2.45496e-09)
(1.86537e-08 1.97901e-07 -3.93711e-09)
(-1.13385e-10 -1.97271e-10 1.05436e-07)
(2.01491e-07 1.50635e-08 -3.18228e-09)
(1.87307e-08 1.9788e-07 -3.90329e-09)
(-1.51407e-10 -1.93627e-10 1.03339e-07)
(1.9785e-07 1.87908e-08 -3.84664e-09)
(1.87857e-08 1.97845e-07 -3.84824e-09)
(-1.90068e-10 -1.8989e-10 1.01217e-07)
(1.94204e-07 2.25019e-08 -4.44292e-09)
(1.88113e-08 1.978e-07 -3.78012e-09)
(-2.30288e-10 -1.86684e-10 9.90714e-08)
(1.90564e-07 2.62129e-08 -4.96922e-09)
(1.88019e-08 1.97741e-07 -3.70925e-09)
(-2.72056e-10 -1.84286e-10 9.69093e-08)
(1.86945e-07 2.99371e-08 -5.42574e-09)
(1.87683e-08 1.9767e-07 -3.64584e-09)
(-3.14028e-10 -1.82888e-10 9.47425e-08)
(1.8334e-07 3.36727e-08 -5.81456e-09)
(1.87285e-08 1.97599e-07 -3.5963e-09)
(-3.5429e-10 -1.82658e-10 9.25788e-08)
(1.88792e-08 1.97586e-07 -3.53814e-09)
(-3.78525e-10 -1.77975e-10 9.04176e-08)
(1.79709e-07 3.73957e-08 -6.14069e-09)
(2.12379e-07 3.78602e-09 -8.23267e-10)
(2.21211e-08 1.94181e-07 -4.4723e-09)
(-4.37061e-11 -2.4576e-10 1.07333e-07)
(2.08722e-07 7.56162e-09 -1.62641e-09)
(2.2243e-08 1.94221e-07 -4.51171e-09)
(-7.89773e-11 -2.43786e-10 1.05311e-07)
(2.05072e-07 1.13196e-08 -2.39549e-09)
(2.23503e-08 1.94242e-07 -4.51615e-09)
(-1.14118e-10 -2.40139e-10 1.03259e-07)
(2.0143e-07 1.50655e-08 -3.11578e-09)
(2.24341e-08 1.9423e-07 -4.49097e-09)
(-1.49837e-10 -2.35382e-10 1.01174e-07)
(1.97798e-07 1.8807e-08 -3.77816e-09)
(2.2494e-08 1.94196e-07 -4.44318e-09)
(-1.8674e-10 -2.30227e-10 9.90654e-08)
(1.94165e-07 2.25403e-08 -4.37777e-09)
(2.25334e-08 1.94157e-07 -4.38007e-09)
(-2.25513e-10 -2.25358e-10 9.69406e-08)
(1.90526e-07 2.62615e-08 -4.90988e-09)
(2.25446e-08 1.94106e-07 -4.30938e-09)
(-2.65867e-10 -2.21212e-10 9.47935e-08)
(1.86897e-07 2.99877e-08 -5.37071e-09)
(2.25129e-08 1.94026e-07 -4.24192e-09)
(-3.06783e-10 -2.18125e-10 9.26267e-08)
(1.83286e-07 3.37326e-08 -5.76162e-09)
(2.24643e-08 1.93933e-07 -4.18848e-09)
(-3.46001e-10 -2.16003e-10 9.04584e-08)
(2.26289e-08 1.93921e-07 -4.12694e-09)
(-3.64025e-10 -2.08351e-10 8.83096e-08)
(1.79661e-07 3.74697e-08 -6.09296e-09)
(2.12345e-07 3.77915e-09 -7.98867e-10)
(2.58155e-08 1.9052e-07 -4.96556e-09)
(-5.25711e-11 -2.91975e-10 1.0514e-07)
(2.08682e-07 7.54928e-09 -1.58244e-09)
(2.59398e-08 1.90567e-07 -5.01375e-09)
(-8.40166e-11 -2.89336e-10 1.03125e-07)
(2.05027e-07 1.13071e-08 -2.33862e-09)
(2.60524e-08 1.90598e-07 -5.02712e-09)
(-1.16024e-10 -2.84581e-10 1.01085e-07)
(2.01376e-07 1.50525e-08 -3.05138e-09)
(2.61447e-08 1.90596e-07 -5.00984e-09)
(-1.49208e-10 -2.78548e-10 9.90085e-08)
(1.97733e-07 1.8793e-08 -3.70913e-09)
(2.62102e-08 1.90563e-07 -4.96828e-09)
(-1.84138e-10 -2.72016e-10 9.69041e-08)
(1.94101e-07 2.2538e-08 -4.30656e-09)
(2.6252e-08 1.90515e-07 -4.91018e-09)
(-2.21076e-10 -2.65496e-10 9.47842e-08)
(1.90469e-07 2.62798e-08 -4.84043e-09)
(2.62748e-08 1.90462e-07 -4.84283e-09)
(-2.59992e-10 -2.59489e-10 9.26514e-08)
(1.86832e-07 3.00173e-08 -5.30359e-09)
(2.62605e-08 1.90382e-07 -4.7743e-09)
(-2.98953e-10 -2.53629e-10 9.04919e-08)
(1.83204e-07 3.37699e-08 -5.69328e-09)
(2.62106e-08 1.90268e-07 -4.71581e-09)
(-3.36077e-10 -2.47314e-10 8.83145e-08)
(2.63616e-08 1.90243e-07 -4.65134e-09)
(-3.48415e-10 -2.35023e-10 8.61726e-08)
(1.79587e-07 3.75264e-08 -6.02571e-09)
(2.12321e-07 3.76847e-09 -7.77936e-10)
(2.95178e-08 1.86885e-07 -5.39528e-09)
(-6.3418e-11 -3.40069e-10 1.02955e-07)
(2.08649e-07 7.53039e-09 -1.54454e-09)
(2.96472e-08 1.86937e-07 -5.45099e-09)
(-8.99761e-11 -3.3615e-10 1.00945e-07)
(2.04983e-07 1.12844e-08 -2.28852e-09)
(2.97647e-08 1.86973e-07 -5.47152e-09)
(-1.18519e-10 -3.29404e-10 9.89107e-08)
(2.01323e-07 1.50296e-08 -2.99392e-09)
(2.98633e-08 1.86975e-07 -5.46081e-09)
(-1.49415e-10 -3.2162e-10 9.68419e-08)
(1.97666e-07 1.87666e-08 -3.64752e-09)
(2.99376e-08 1.86947e-07 -5.42438e-09)
(-1.8257e-10 -3.13875e-10 9.47417e-08)
(1.94015e-07 2.25043e-08 -4.24104e-09)
(2.99855e-08 1.86892e-07 -5.36926e-09)
(-2.17465e-10 -3.06249e-10 9.26182e-08)
(1.90374e-07 2.62536e-08 -4.77147e-09)
(3.00099e-08 1.86823e-07 -5.30305e-09)
(-2.53856e-10 -2.98089e-10 9.04822e-08)
(1.86729e-07 3.00107e-08 -5.23174e-09)
(3.00082e-08 1.86728e-07 -5.23286e-09)
(-2.88327e-10 -2.8742e-10 8.83236e-08)
(1.83087e-07 3.37767e-08 -5.61584e-09)
(2.99622e-08 1.86595e-07 -5.16861e-09)
(-3.21668e-10 -2.74198e-10 8.61408e-08)
(3.0074e-08 1.86543e-07 -5.10164e-09)
(-3.29005e-10 -2.54516e-10 8.40023e-08)
(1.7948e-07 3.75591e-08 -5.94279e-09)
(2.12297e-07 3.75311e-09 -7.62195e-10)
(3.323e-08 1.83278e-07 -5.76249e-09)
(-7.55698e-11 -3.88659e-10 1.00776e-07)
(2.08615e-07 7.50584e-09 -1.51529e-09)
(3.3366e-08 1.83329e-07 -5.82441e-09)
(-9.55802e-11 -3.8237e-10 9.87685e-08)
(2.04938e-07 1.12531e-08 -2.24906e-09)
(3.34872e-08 1.83366e-07 -5.85059e-09)
(-1.20754e-10 -3.72832e-10 9.67384e-08)
(2.01268e-07 1.49948e-08 -2.94775e-09)
(3.35902e-08 1.83369e-07 -5.84535e-09)
(-1.5019e-10 -3.63092e-10 9.46748e-08)
(1.976e-07 1.87313e-08 -3.59792e-09)
(3.36729e-08 1.83341e-07 -5.81343e-09)
(-1.82258e-10 -3.54279e-10 9.25799e-08)
(1.93931e-07 2.2464e-08 -4.18914e-09)
(3.37332e-08 1.83285e-07 -5.76024e-09)
(-2.15262e-10 -3.45982e-10 9.04566e-08)
(1.90261e-07 2.62037e-08 -4.71479e-09)
(3.37676e-08 1.83202e-07 -5.69198e-09)
(-2.47518e-10 -3.36226e-10 8.83096e-08)
(1.8659e-07 2.99571e-08 -5.16734e-09)
(3.37724e-08 1.83084e-07 -5.61541e-09)
(-2.74968e-10 -3.21657e-10 8.61371e-08)
(1.82924e-07 3.37276e-08 -5.54005e-09)
(3.37266e-08 1.82922e-07 -5.54054e-09)
(-2.99837e-10 -2.99526e-10 8.39408e-08)
(3.37663e-08 1.82798e-07 -5.46658e-09)
(-2.96308e-10 -2.62332e-10 8.17872e-08)
(1.79322e-07 3.75531e-08 -5.84903e-09)
(2.1227e-07 3.77293e-09 -7.47798e-10)
(-8.44904e-11 -4.3848e-10 9.85956e-08)
(3.69639e-08 1.79662e-07 -6.06878e-09)
(2.08583e-07 7.5568e-09 -1.48563e-09)
(-9.74778e-11 -4.24295e-10 9.65785e-08)
(3.70878e-08 1.79697e-07 -6.13208e-09)
(2.04911e-07 1.13398e-08 -2.20631e-09)
(-1.19484e-10 -4.08616e-10 9.45526e-08)
(3.72032e-08 1.79728e-07 -6.16306e-09)
(2.01247e-07 1.51159e-08 -2.89511e-09)
(-1.47285e-10 -3.93268e-10 9.24993e-08)
(3.73063e-08 1.79732e-07 -6.16469e-09)
(1.97587e-07 1.88802e-08 -3.53908e-09)
(-1.77652e-10 -3.78692e-10 9.04184e-08)
(3.73957e-08 1.79709e-07 -6.13996e-09)
(1.93922e-07 2.26292e-08 -4.12767e-09)
(-2.07985e-10 -3.64436e-10 8.83102e-08)
(3.74697e-08 1.79661e-07 -6.09219e-09)
(1.90243e-07 2.636e-08 -4.65172e-09)
(-2.35213e-10 -3.48973e-10 8.61729e-08)
(3.75261e-08 1.79587e-07 -6.02498e-09)
(1.86539e-07 3.00704e-08 -5.10146e-09)
(-2.54768e-10 -3.29177e-10 8.40007e-08)
(3.75582e-08 1.79479e-07 -5.9422e-09)
(1.82795e-07 3.37638e-08 -5.46592e-09)
(-2.62342e-10 -2.95893e-10 8.17847e-08)
(3.75514e-08 1.79319e-07 -5.84868e-09)
(-2.46766e-10 -2.46212e-10 7.95816e-08)
(1.79127e-07 3.75064e-08 -5.75199e-09)
(3.75057e-08 1.79126e-07 -5.7521e-09)
(2.14053e-07 3.73002e-09 -8.77929e-10)
(3.72675e-09 2.1404e-07 -8.79948e-10)
(-3.02063e-11 -3.00404e-11 1.20094e-07)
(2.10241e-07 7.42318e-09 -1.69458e-09)
(3.82767e-09 2.13916e-07 -8.72195e-10)
(-8.71513e-11 -3.13186e-11 1.17873e-07)
(2.06409e-07 1.10906e-08 -2.43402e-09)
(3.85545e-09 2.13702e-07 -8.50744e-10)
(-1.39714e-10 -3.38527e-11 1.15556e-07)
(2.02585e-07 1.47575e-08 -3.10039e-09)
(3.85505e-09 2.13484e-07 -8.26018e-10)
(-1.89352e-10 -3.78952e-11 1.13238e-07)
(1.9877e-07 1.84267e-08 -3.7008e-09)
(3.85059e-09 2.13283e-07 -8.01562e-10)
(-2.37567e-10 -4.35971e-11 1.10936e-07)
(1.94968e-07 2.20989e-08 -4.24119e-09)
(3.84203e-09 2.13095e-07 -7.78326e-10)
(-2.85051e-10 -5.09769e-11 1.08651e-07)
(1.91181e-07 2.57743e-08 -4.7269e-09)
(3.82693e-09 2.12908e-07 -7.57491e-10)
(-3.3196e-10 -6.00612e-11 1.06382e-07)
(1.87414e-07 2.94523e-08 -5.16262e-09)
(3.80438e-09 2.12714e-07 -7.40635e-10)
(-3.77123e-10 -7.06408e-11 1.0413e-07)
(1.8367e-07 3.31343e-08 -5.55215e-09)
(3.77283e-09 2.12494e-07 -7.29624e-10)
(-4.17918e-10 -8.16315e-11 1.01894e-07)
(3.79778e-09 2.12244e-07 -7.21798e-10)
(-4.53838e-10 -8.80046e-11 9.96635e-08)
(1.79888e-07 3.68408e-08 -5.89951e-09)
(2.13911e-07 3.82411e-09 -8.70134e-10)
(7.41685e-09 2.10232e-07 -1.69511e-09)
(-3.14225e-11 -8.69022e-11 1.17862e-07)
(2.10178e-07 7.58243e-09 -1.6897e-09)
(7.57587e-09 2.10173e-07 -1.69144e-09)
(-8.69371e-11 -8.66503e-11 1.15711e-07)
(2.06396e-07 1.12755e-08 -2.44024e-09)
(7.66057e-09 2.10024e-07 -1.66294e-09)
(-1.38719e-10 -8.6641e-11 1.13465e-07)
(2.02598e-07 1.49464e-08 -3.11879e-09)
(7.684e-09 2.09827e-07 -1.62269e-09)
(-1.87739e-10 -8.73761e-11 1.11179e-07)
(1.98804e-07 1.86195e-08 -3.73018e-09)
(7.67953e-09 2.09624e-07 -1.57986e-09)
(-2.35367e-10 -8.9093e-11 1.08893e-07)
(1.95019e-07 2.22951e-08 -4.2804e-09)
(7.666e-09 2.09432e-07 -1.53862e-09)
(-2.82237e-10 -9.19928e-11 1.06621e-07)
(1.91247e-07 2.59741e-08 -4.7749e-09)
(7.63824e-09 2.09241e-07 -1.50146e-09)
(-3.28408e-10 -9.60547e-11 1.04362e-07)
(1.8749e-07 2.96607e-08 -5.2182e-09)
(7.59719e-09 2.09037e-07 -1.47143e-09)
(-3.72262e-10 -1.00498e-10 1.02118e-07)
(1.83747e-07 3.33551e-08 -5.61378e-09)
(7.54445e-09 2.08807e-07 -1.45146e-09)
(-4.10757e-10 -1.03738e-10 9.98846e-08)
(7.614e-09 2.0856e-07 -1.4348e-09)
(-4.39073e-10 -1.02182e-10 9.76378e-08)
(1.79945e-07 3.7044e-08 -5.96128e-09)
(2.1369e-07 3.84604e-09 -8.49878e-10)
(1.10878e-08 2.06409e-07 -2.4324e-09)
(-3.38454e-11 -1.39656e-10 1.15547e-07)
(2.10015e-07 7.65414e-09 -1.66099e-09)
(1.12652e-08 2.06388e-07 -2.43968e-09)
(-8.68121e-11 -1.38501e-10 1.13454e-07)
(2.06303e-07 1.14021e-08 -2.41593e-09)
(1.13948e-08 2.06298e-07 -2.41701e-09)
(-1.36984e-10 -1.36686e-10 1.11288e-07)
(2.0255e-07 1.50993e-08 -3.10513e-09)
(1.14658e-08 2.06151e-07 -2.37409e-09)
(-1.84724e-10 -1.3486e-10 1.09062e-07)
(1.98785e-07 1.87798e-08 -3.72761e-09)
(1.14794e-08 2.05963e-07 -2.32176e-09)
(-2.31141e-10 -1.3338e-10 1.06805e-07)
(1.95025e-07 2.24628e-08 -4.28799e-09)
(1.14628e-08 2.05767e-07 -2.26907e-09)
(-2.76918e-10 -1.32519e-10 1.04551e-07)
(1.91272e-07 2.61497e-08 -4.79154e-09)
(1.1428e-08 2.05571e-07 -2.22137e-09)
(-3.21799e-10 -1.32358e-10 1.02307e-07)
(1.87528e-07 2.98438e-08 -5.24204e-09)
(1.13753e-08 2.05357e-07 -2.18256e-09)
(-3.63574e-10 -1.32196e-10 1.00071e-07)
(1.83794e-07 3.35443e-08 -5.64297e-09)
(1.13056e-08 2.05117e-07 -2.15661e-09)
(-3.99361e-10 -1.30929e-10 9.78433e-08)
(1.14285e-08 2.04886e-07 -2.13295e-09)
(-4.21976e-10 -1.25082e-10 9.56007e-08)
(1.79993e-07 3.72241e-08 -5.99392e-09)
(2.13478e-07 3.85258e-09 -8.26423e-10)
(1.47574e-08 2.02587e-07 -3.09799e-09)
(-3.78428e-11 -1.89484e-10 1.13236e-07)
(2.09815e-07 7.67408e-09 -1.62223e-09)
(1.49421e-08 2.02597e-07 -3.1167e-09)
(-8.7393e-11 -1.87802e-10 1.11171e-07)
(2.06143e-07 1.14591e-08 -2.37268e-09)
(1.50883e-08 2.02542e-07 -3.10419e-09)
(-1.35031e-10 -1.8461e-10 1.09052e-07)
(2.02443e-07 1.52003e-08 -3.06695e-09)
(1.51935e-08 2.02437e-07 -3.06762e-09)
(-1.80889e-10 -1.80676e-10 1.06883e-07)
(1.98709e-07 1.89024e-08 -3.69892e-09)
(1.52452e-08 2.02287e-07 -3.0153e-09)
(-2.2557e-10 -1.76553e-10 1.04671e-07)
(1.94965e-07 2.25927e-08 -4.26885e-09)
(1.52412e-08 2.021e-07 -2.95734e-09)
(-2.69733e-10 -1.72552e-10 1.02436e-07)
(1.91229e-07 2.62889e-08 -4.78081e-09)
(1.51986e-08 2.01894e-07 -2.90334e-09)
(-3.13027e-10 -1.68925e-10 1.00203e-07)
(1.87499e-07 2.99916e-08 -5.23815e-09)
(1.5136e-08 2.0167e-07 -2.85979e-09)
(-3.52913e-10 -1.65492e-10 9.79755e-08)
(1.83774e-07 3.36984e-08 -5.64445e-09)
(1.50548e-08 2.01421e-07 -2.83114e-09)
(-3.86712e-10 -1.6169e-10 9.57545e-08)
(1.523e-08 2.01211e-07 -2.80323e-09)
(-4.04012e-10 -1.52983e-10 9.35254e-08)
(1.79983e-07 3.73781e-08 -6.0011e-09)
(2.13283e-07 3.85087e-09 -8.0224e-10)
(1.84263e-08 1.98773e-07 -3.6982e-09)
(-4.35707e-11 -2.37777e-10 1.10938e-07)
(2.0962e-07 7.67662e-09 -1.58078e-09)
(1.86182e-08 1.98806e-07 -3.72772e-09)
(-8.90457e-11 -2.35567e-10 1.08892e-07)
(2.05953e-07 1.14702e-08 -2.32176e-09)
(1.87751e-08 1.98783e-07 -3.72552e-09)
(-1.33344e-10 -2.31215e-10 1.06798e-07)
(2.0228e-07 1.52393e-08 -3.01425e-09)
(1.88917e-08 1.987e-07 -3.69789e-09)
(-1.76651e-10 -2.25449e-10 1.04662e-07)
(1.98585e-07 1.8978e-08 -3.65133e-09)
(1.897e-08 1.98577e-07 -3.6519e-09)
(-2.19203e-10 -2.19007e-10 1.02491e-07)
(1.9486e-07 2.26845e-08 -4.22953e-09)
(1.8997e-08 1.98419e-07 -3.59552e-09)
(-2.61532e-10 -2.12522e-10 1.00288e-07)
(1.91127e-07 2.63835e-08 -4.74906e-09)
(1.89629e-08 1.98217e-07 -3.53885e-09)
(-3.02996e-10 -2.06188e-10 9.80643e-08)
(1.87406e-07 3.0095e-08 -5.21237e-09)
(1.88845e-08 1.97976e-07 -3.49237e-09)
(-3.41373e-10 -2.00037e-10 9.58384e-08)
(1.83689e-07 3.38146e-08 -5.62344e-09)
(1.87906e-08 1.97713e-07 -3.46339e-09)