/*--------------------------------*- C++ -*----------------------------------*\
| =========                 |                                                 |
| \\      /  F ield         | foam-extend: Open Source CFD                    |
|  \\    /   O peration     | Version:     3.1                                |
|   \\  /    A nd           | Web:         http://www.extend-project.de       |
|    \\/     M anipulation  |                                                 |
\*---------------------------------------------------------------------------*/
FoamFile
{
    version     2.0;
    format      ascii;
    class       volVectorField;
    location    "0.002";
    object      U;
}
// * * * * * * * * * * * * * * * * * * * * * * * * * * * * * * * * * * * * * //

dimensions      [0 1 -1 0 0 0 0];

internalField   nonuniform List<vector> 
16000
(
(0.000145308 0.000145569 0.27439)
(0.000430605 0.000145991 0.274585)
(0.000702759 0.000147508 0.274981)
(0.000961491 0.000151305 0.27558)
(0.00120889 0.000157553 0.276389)
(0.00144775 0.000166124 0.277421)
(0.00168194 0.000176865 0.278693)
(0.00191802 0.000189383 0.280233)
(0.00216983 0.000201853 0.282083)
(0.00245849 0.000189811 0.28431)
(0.00014574 0.000430996 0.274585)
(0.000432258 0.000432732 0.274767)
(0.000706222 0.000437101 0.275142)
(0.00096778 0.000447063 0.275714)
(0.00121829 0.000463473 0.276489)
(0.00146011 0.0004865 0.277479)
(0.00169657 0.000515948 0.278699)
(0.0019328 0.000550858 0.280177)
(0.00218329 0.000586582 0.28195)
(0.00245465 0.000552915 0.28408)
(0.000147394 0.000702714 0.274981)
(0.000436761 0.000706438 0.275142)
(0.000713053 0.000713445 0.27549)
(0.000977874 0.000727335 0.27603)
(0.00123197 0.000749602 0.276766)
(0.00147682 0.000781339 0.27771)
(0.00171472 0.000822868 0.278876)
(0.00194897 0.000873082 0.280287)
(0.00219561 0.000925179 0.281979)
(0.00244424 0.000861526 0.284013)
(0.000151335 0.000961029 0.27558)
(0.000447021 0.000967559 0.275714)
(0.000727077 0.000978008 0.27603)
(0.00099602 0.000996351 0.276533)
(0.0012549 0.00102414 0.277228)
(0.00150444 0.00106337 0.278126)
(0.00174549 0.00111547 0.279239)
(0.00197921 0.00117973 0.280588)
(0.00222357 0.00124729 0.282206)
(0.00244807 0.00115168 0.284154)
(0.000157617 0.0012083 0.276389)
(0.000463613 0.0012178 0.276489)
(0.000749637 0.00123175 0.276766)
(0.00102393 0.00125505 0.277228)
(0.00128875 0.0012891 0.27788)
(0.00154476 0.00133643 0.27873)
(0.00179147 0.00139978 0.279791)
(0.00202748 0.00147965 0.281082)
(0.00227247 0.00156557 0.28263)
(0.00247265 0.00144133 0.284506)
(0.000166177 0.00144715 0.277421)
(0.000486665 0.00145956 0.277479)
(0.000781555 0.00147641 0.27771)
(0.00106346 0.00150431 0.278126)
(0.00133622 0.00154501 0.27873)
(0.00160122 0.0016017 0.279531)
(0.00185733 0.00167851 0.28054)
(0.00210042 0.00177799 0.281774)
(0.00235088 0.0018892 0.283261)
(0.00252699 0.0017458 0.285075)
(0.000176911 0.00168138 0.278693)
(0.000516095 0.00169606 0.2787)
(0.000823117 0.00171428 0.278876)
(0.00111579 0.00174518 0.279238)
(0.00139995 0.00179143 0.279791)
(0.00167819 0.00185769 0.280539)
(0.00194976 0.00195035 0.281496)
(0.00220828 0.00207538 0.282678)
(0.00247308 0.00222353 0.284109)
(0.00262704 0.00208014 0.285877)
(0.000189422 0.00191755 0.280233)
(0.000550984 0.00193236 0.280177)
(0.000873296 0.00194857 0.280287)
(0.00118004 0.00197883 0.280588)
(0.00148002 0.00202714 0.281082)
(0.00177802 0.00210026 0.281774)
(0.0020749 0.00220844 0.282678)
(0.00236358 0.00236399 0.283811)
(0.00266134 0.00256547 0.285195)
(0.002803 0.00245724 0.286934)
(0.000201885 0.00216949 0.282083)
(0.000586683 0.00218297 0.28195)
(0.000925342 0.0021953 0.281979)
(0.00124751 0.00222324 0.282206)
(0.00156585 0.00227208 0.28263)
(0.00188933 0.00235041 0.283261)
(0.00222331 0.00247274 0.284109)
(0.00256512 0.00266133 0.285195)
(0.00293289 0.00293309 0.286543)
(0.00310215 0.00290355 0.288277)
(0.000189838 0.00245828 0.28431)
(0.000552998 0.00245445 0.28408)
(0.000861657 0.00244405 0.284013)
(0.00115185 0.00244785 0.284154)
(0.00144152 0.00247239 0.284506)
(0.00174595 0.00252665 0.285075)
(0.00208018 0.00262668 0.285877)
(0.00245716 0.00280279 0.286934)
(0.00290336 0.00310211 0.288277)
(0.00334525 0.00334535 0.290016)
(9.36778e-05 9.37021e-05 0.274101)
(0.000283411 9.278e-05 0.274296)
(0.000471455 9.16184e-05 0.27469)
(0.000656688 9.08822e-05 0.275284)
(0.000843353 9.08967e-05 0.276082)
(0.00103745 9.19923e-05 0.277088)
(0.00125017 9.46645e-05 0.278312)
(0.00150079 9.96146e-05 0.279766)
(0.00182128 0.000107813 0.281468)
(0.00226014 0.000117383 0.283441)
(9.27578e-05 0.000283436 0.274296)
(0.000280955 0.000280991 0.27448)
(0.000467912 0.000277807 0.274858)
(0.000652471 0.000275781 0.27543)
(0.000838673 0.000275893 0.276201)
(0.00103215 0.000279095 0.277176)
(0.00124326 0.000286697 0.278362)
(0.00148948 0.00030047 0.279772)
(0.00180091 0.000322952 0.281424)
(0.00222073 0.000348664 0.283336)
(9.16185e-05 0.000471421 0.27469)
(0.000277793 0.000467909 0.274858)
(0.000463193 0.000463212 0.275211)
(0.000646839 0.000460291 0.275753)
(0.000832635 0.000460723 0.276487)
(0.00102589 0.00046607 0.277418)
(0.00123627 0.000478385 0.278556)
(0.00147953 0.000500379 0.27991)
(0.00178443 0.000536204 0.281499)
(0.00218906 0.000575818 0.283339)
(9.08969e-05 0.000656608 0.275284)
(0.000275802 0.000652415 0.27543)
(0.00046029 0.000646824 0.275753)
(0.000643828 0.000643837 0.276257)
(0.000830373 0.000645516 0.276949)
(0.00102505 0.000653979 0.277832)
(0.00123698 0.000672024 0.278915)
(0.00148045 0.000703205 0.280209)
(0.00178331 0.000753043 0.281731)
(0.00217874 0.000806084 0.283499)
(9.09071e-05 0.00084326 0.276082)
(0.000275923 0.000838588 0.276201)
(0.000460754 0.000832577 0.276487)
(0.000645522 0.000830356 0.276949)
(0.000834426 0.000834435 0.277592)
(0.00103263 0.000847378 0.278421)
(0.00124887 0.000872676 0.279445)
(0.00149617 0.000914762 0.280675)
(0.00180173 0.000980442 0.282127)
(0.00219421 0.00104863 0.283822)
(9.19987e-05 0.00103735 0.277088)
(0.000279118 0.00103206 0.277176)
(0.000466108 0.00102581 0.277418)
(0.000654017 0.001025 0.277832)
(0.000847386 0.00103262 0.278421)
(0.0010516 0.00105162 0.279192)
(0.00127529 0.00108605 0.280152)
(0.00153038 0.00114119 0.281312)
(0.00184359 0.00122526 0.282689)
(0.00223939 0.00131203 0.284309)
(9.46704e-05 0.00125006 0.278312)
(0.000286716 0.00124317 0.278362)
(0.000478416 0.00123618 0.278556)
(0.000672074 0.0012369 0.278915)
(0.000872734 0.00124883 0.279445)
(0.00108605 0.0012753 0.280152)
(0.00132078 0.00132083 0.281042)
(0.00158805 0.00139134 0.282126)
(0.00191441 0.00149653 0.283423)
(0.00232022 0.00160646 0.284963)
(9.96199e-05 0.00150069 0.279766)
(0.000300487 0.00148938 0.279772)
(0.000500404 0.00147944 0.27991)
(0.000703243 0.00148037 0.280209)
(0.000914832 0.00149609 0.280675)
(0.00114123 0.00153031 0.281312)
(0.0013913 0.00158802 0.282126)
(0.00167558 0.0016756 0.283128)
(0.00202126 0.00180387 0.284334)
(0.0024456 0.0019418 0.285787)
(0.000107818 0.00182118 0.281468)
(0.000322967 0.00180082 0.281424)
(0.000536226 0.00178434 0.281498)
(0.000753069 0.00178323 0.281731)
(0.000980484 0.00180164 0.282127)
(0.00122529 0.00184347 0.282689)
(0.00149652 0.0019143 0.283423)
(0.00180385 0.00202121 0.284334)
(0.00217658 0.00217658 0.285437)
(0.00263279 0.00234059 0.286787)
(0.000117388 0.00226006 0.283441)
(0.000348679 0.00222065 0.283336)
(0.000575841 0.00218899 0.283339)
(0.000806113 0.00217867 0.283499)
(0.00104866 0.00219414 0.283821)
(0.00131207 0.00223931 0.284309)
(0.00160648 0.00232013 0.284963)
(0.00194182 0.00244552 0.285787)
(0.00234059 0.00263274 0.286787)
(0.00286019 0.00286016 0.288001)
(0.000231565 0.000231584 0.272893)
(0.000700154 0.000228392 0.273095)
(0.00116699 0.000223721 0.273501)
(0.00162852 0.000218866 0.274107)
(0.00208916 0.000214194 0.274911)
(0.0025532 0.000209986 0.275908)
(0.00302926 0.000206674 0.277093)
(0.00353216 0.000204921 0.278456)
(0.00408376 0.000206319 0.279983)
(0.00471196 0.000211944 0.281649)
(0.000228373 0.000700166 0.273095)
(0.00069106 0.000691092 0.273285)
(0.00115264 0.000677631 0.273672)
(0.00160947 0.000663622 0.274253)
(0.00206583 0.000650201 0.275026)
(0.00252578 0.000638191 0.275988)
(0.00299739 0.000628756 0.277133)
(0.00349431 0.000623653 0.278453)
(0.00403663 0.000627295 0.279935)
(0.00464996 0.00064486 0.281556)
(0.000223724 0.00116694 0.273501)
(0.000677621 0.00115264 0.273671)
(0.00113117 0.00113119 0.27403)
(0.00158082 0.00110882 0.274577)
(0.00203077 0.00108743 0.275309)
(0.00248485 0.0010684 0.276223)
(0.00295074 0.00105354 0.277315)
(0.00344107 0.00104562 0.278576)
(0.00397427 0.00105206 0.279995)
(0.00457428 0.00108304 0.281551)
(0.000218884 0.00162845 0.274107)
(0.000663649 0.00160942 0.274253)
(0.00110882 0.0015808 0.274577)
(0.00155114 0.00155115 0.275081)
(0.00199487 0.00152294 0.275765)
(0.00244373 0.00149801 0.276624)
(0.0029051 0.00147878 0.277654)
(0.00339087 0.00146886 0.278848)
(0.00391788 0.0014784 0.280196)
(0.00450786 0.00152189 0.28168)
(0.000214205 0.0020891 0.274911)
(0.000650234 0.00206576 0.275026)
(0.00108747 0.00203071 0.275309)
(0.00152295 0.00199485 0.275765)
(0.00196115 0.00196116 0.276392)
(0.00240587 0.00193171 0.277189)
(0.00286437 0.00190937 0.27815)
(0.00334801 0.00189855 0.279269)
(0.00387205 0.00191202 0.280537)
(0.00445592 0.00196858 0.281942)
(0.000209992 0.00255313 0.275908)
(0.000638213 0.00252571 0.275988)
(0.00106844 0.00248477 0.276223)
(0.00149806 0.00244367 0.276624)
(0.00193173 0.00240585 0.277189)
(0.00237343 0.00237344 0.277916)
(0.00283056 0.00234942 0.2788)
(0.0033143 0.00233873 0.279836)
(0.00383847 0.00235676 0.281016)
(0.00442055 0.00242761 0.282334)
(0.000206679 0.00302919 0.277093)
(0.000628771 0.00299732 0.277133)
(0.00105357 0.00295066 0.277315)
(0.00147884 0.00290502 0.277654)
(0.00190944 0.0028643 0.27815)
(0.00234943 0.00283055 0.2788)
(0.00280644 0.00280648 0.2796)
(0.00329191 0.00279685 0.280545)
(0.00381895 0.00281896 0.281628)
(0.0044045 0.00290423 0.282852)
(0.000204925 0.00353208 0.278456)
(0.000623666 0.00349423 0.278453)
(0.00104564 0.00344099 0.278576)
(0.0014689 0.00339079 0.278848)
(0.00189864 0.00334791 0.279269)
(0.0023388 0.00331421 0.279836)
(0.00279684 0.00329187 0.280545)
(0.00328428 0.00328429 0.28139)
(0.00381495 0.00330776 0.282366)
(0.00441079 0.00340172 0.283488)
(0.000206323 0.00408367 0.279982)
(0.000627307 0.00403655 0.279935)
(0.00105208 0.00397419 0.279995)
(0.00147843 0.00391779 0.280196)
(0.00191207 0.00387195 0.280537)
(0.00235682 0.00383834 0.281016)
(0.00281899 0.00381882 0.281628)
(0.00330777 0.00381488 0.282366)
(0.00383707 0.00383704 0.283224)
(0.00445005 0.00392185 0.284231)
(0.000211948 0.00471187 0.281648)
(0.000644871 0.00464988 0.281556)
(0.00108306 0.0045742 0.281551)
(0.00152191 0.00450777 0.28168)
(0.00196862 0.00445583 0.281941)
(0.00242765 0.00442045 0.282334)
(0.00290428 0.00440439 0.282852)
(0.00340178 0.00441069 0.283488)
(0.00392188 0.00444998 0.284231)
(0.00454567 0.00454562 0.285097)
(0.000415066 0.000415115 0.27052)
(0.0012514 0.000409127 0.270733)
(0.00208067 0.000400177 0.271158)
(0.00289492 0.000390483 0.271791)
(0.00369557 0.000380386 0.272624)
(0.00448068 0.000370006 0.273647)
(0.00525018 0.000359555 0.274846)
(0.00600634 0.000349386 0.276201)
(0.00675203 0.000341045 0.277682)
(0.00748439 0.000333151 0.27925)
(0.000409077 0.00125145 0.270733)
(0.00123422 0.00123431 0.270932)
(0.00205338 0.00120831 0.271336)
(0.00285856 0.00118 0.271941)
(0.00365111 0.00115055 0.27274)
(0.00442926 0.00112042 0.273725)
(0.00519298 0.00109024 0.274882)
(0.00594416 0.00106109 0.276192)
(0.00668492 0.00103765 0.27763)
(0.00741104 0.00102089 0.279156)
(0.000400174 0.00208061 0.271158)
(0.00120827 0.0020534 0.271336)
(0.00201146 0.00201153 0.27171)
(0.00280204 0.00196557 0.272276)
(0.00358124 0.00191755 0.27303)
(0.00434735 0.0018684 0.273963)
(0.00510039 0.00181919 0.275062)
(0.00584205 0.00177173 0.276311)
(0.0065737 0.00173456 0.277684)
(0.00729029 0.00171382 0.279148)
(0.000390511 0.00289481 0.271791)
(0.00118004 0.00285848 0.271941)
(0.00196554 0.00280204 0.272276)
(0.00273986 0.00273991 0.272797)
(0.00350436 0.00267475 0.273497)
(0.00425732 0.00260787 0.274369)
(0.00499885 0.00254079 0.275401)
(0.0057306 0.00247603 0.276577)
(0.00645308 0.00242573 0.277875)
(0.00715815 0.00240057 0.279265)
(0.000380405 0.00369545 0.272623)
(0.00115061 0.00365098 0.27274)
(0.00191761 0.00358115 0.27303)
(0.00267475 0.00350434 0.273497)
(0.00342366 0.0034237 0.274135)
(0.00416289 0.00334058 0.274938)
(0.0048927 0.00325679 0.275893)
(0.00561487 0.00317565 0.276988)
(0.00632898 0.00311288 0.2782)
(0.00702195 0.00308381 0.279507)
(0.000370017 0.00448056 0.273647)
(0.00112046 0.00442914 0.273725)
(0.00186848 0.00434722 0.273963)
(0.00260795 0.00425722 0.274369)
(0.00334059 0.00416288 0.274937)
(0.00406525 0.00406532 0.275662)
(0.00478272 0.00396615 0.276534)
(0.0054953 0.00386912 0.277537)
(0.00620182 0.00379369 0.278653)
(0.00688311 0.00376112 0.279868)
(0.000359565 0.00525005 0.274846)
(0.00109027 0.00519286 0.274882)
(0.00181925 0.00510026 0.275062)
(0.0025409 0.00499872 0.275401)
(0.00325691 0.0048926 0.275893)
(0.00396615 0.00478274 0.276533)
(0.00466991 0.00467001 0.277312)
(0.00537165 0.00455743 0.278214)
(0.0060707 0.00446716 0.279225)
(0.00674252 0.00442904 0.280339)
(0.000349396 0.00600621 0.2762)
(0.00106112 0.00594404 0.276192)
(0.00177178 0.00584192 0.276311)
(0.00247612 0.00573046 0.276577)
(0.0031758 0.00561471 0.276988)
(0.00386924 0.00549516 0.277536)
(0.0045574 0.00537162 0.278214)
(0.00524455 0.00524458 0.279008)
(0.0059328 0.00513424 0.279903)
(0.00659959 0.00507895 0.280908)
(0.000341053 0.00675191 0.277682)
(0.00103767 0.00668479 0.277629)
(0.0017346 0.00657357 0.277684)
(0.00242578 0.00645295 0.277875)
(0.00311298 0.00632882 0.2782)
(0.0037938 0.00620161 0.278652)
(0.00446722 0.00607051 0.279225)
(0.00513426 0.00593271 0.279903)
(0.00579848 0.00579845 0.280674)
(0.00646269 0.00569585 0.281559)
(0.000333159 0.00748427 0.27925)
(0.00102091 0.00741092 0.279156)
(0.00171385 0.00729017 0.279148)
(0.00240062 0.00715802 0.279265)
(0.00308387 0.00702181 0.279507)
(0.00376119 0.00688295 0.279868)
(0.00442913 0.00674235 0.280339)
(0.00507905 0.00659946 0.280908)
(0.00569591 0.0064626 0.281559)
(0.00633878 0.00633871 0.282304)
(0.000614648 0.000614733 0.266745)
(0.00184992 0.000605555 0.266976)
(0.00307088 0.000591701 0.267437)
(0.0042639 0.000576406 0.268122)
(0.00542566 0.000559964 0.269025)
(0.00654641 0.000542312 0.270133)
(0.00761565 0.000523439 0.271433)
(0.00862172 0.000503407 0.272904)
(0.00954838 0.000483726 0.274516)
(0.010365 0.000460442 0.276231)
(0.000605469 0.00185001 0.266976)
(0.00182355 0.00182371 0.267191)
(0.00302896 0.00178339 0.267629)
(0.00420808 0.00173858 0.268284)
(0.00535767 0.00169044 0.269149)
(0.00646859 0.00163904 0.270215)
(0.00753104 0.00158445 0.271468)
(0.00853381 0.00152713 0.272888)
(0.00946106 0.00147207 0.274449)
(0.0102814 0.00141533 0.276116)
(0.000591691 0.00307079 0.267437)
(0.00178331 0.003029 0.267629)
(0.0029638 0.00296393 0.268033)
(0.00412006 0.00289086 0.268647)
(0.00524876 0.00281195 0.269463)
(0.00634107 0.00272761 0.270473)
(0.0073879 0.00263815 0.271663)
(0.00837867 0.00254454 0.273016)
(0.00929802 0.00245639 0.274508)
(0.0101143 0.00237421 0.276105)
(0.000576449 0.00426372 0.268122)
(0.00173863 0.00420795 0.268284)
(0.00289082 0.00412007 0.268647)
(0.00402077 0.00402085 0.26921)
(0.00512536 0.00391307 0.269968)
(0.00619598 0.00379747 0.270912)
(0.00722406 0.00367471 0.27203)
(0.00819977 0.00354634 0.273306)
(0.00910808 0.00342642 0.274716)
(0.0099131 0.00331923 0.276233)
(0.000559994 0.00542548 0.269025)
(0.00169053 0.00535748 0.269149)
(0.00281203 0.00524862 0.269463)
(0.00391306 0.00512534 0.269968)
(0.0049908 0.00499087 0.270659)
(0.00603719 0.00484585 0.271529)
(0.00704421 0.00469116 0.272565)
(0.00800288 0.00452914 0.273753)
(0.00889836 0.00437847 0.275071)
(0.00968707 0.00424727 0.276498)
(0.000542331 0.00654623 0.270133)
(0.00163911 0.0064684 0.270215)
(0.00272774 0.00634087 0.270473)
(0.00379758 0.00619583 0.270912)
(0.00484586 0.00603718 0.271529)
(0.00586504 0.00586515 0.272315)
(0.00684812 0.00568016 0.273261)
(0.00778738 0.00548503 0.274351)
(0.00866842 0.00530327 0.275567)
(0.0094374 0.00514852 0.276894)
(0.000523458 0.00761547 0.271433)
(0.00158451 0.00753086 0.271468)
(0.00263826 0.00738771 0.271663)
(0.00367488 0.00722386 0.27203)
(0.00469134 0.00704407 0.272565)
(0.00568016 0.00684816 0.273261)
(0.0066353 0.00663546 0.274107)
(0.00755116 0.00640774 0.275091)
(0.00841544 0.0061921 0.276195)
(0.00916378 0.00601087 0.277414)
(0.000503424 0.00862154 0.272904)
(0.00152718 0.00853363 0.272888)
(0.00254462 0.00837848 0.273016)
(0.00354647 0.00819957 0.273306)
(0.00452939 0.00800265 0.273753)
(0.00548523 0.00778719 0.274351)
(0.00640769 0.00755114 0.275091)
(0.00729283 0.0072929 0.27596)
(0.00813355 0.00703712 0.276943)
(0.00886351 0.00681443 0.278046)
(0.000483741 0.00954821 0.274516)
(0.00147211 0.00946088 0.274449)
(0.00245645 0.00929784 0.274508)
(0.00342651 0.00910789 0.274716)
(0.00437862 0.00889813 0.275071)
(0.00530346 0.00866812 0.275567)
(0.00619219 0.00841518 0.276195)
(0.00703714 0.00813345 0.276943)
(0.00783482 0.00783478 0.277796)
(0.00854588 0.00753222 0.278773)
(0.000460456 0.0103649 0.276231)
(0.00141537 0.0102812 0.276115)
(0.00237427 0.0101142 0.276105)
(0.00331931 0.00991293 0.276233)
(0.00424737 0.00968688 0.276498)
(0.00514864 0.00943717 0.276894)
(0.00601101 0.00916354 0.277414)
(0.00681458 0.00886333 0.278046)
(0.0075323 0.00854577 0.278773)
(0.00819764 0.00819755 0.279611)
(0.000834116 0.000834238 0.261477)
(0.00250794 0.000821691 0.261734)
(0.00416112 0.000802801 0.262248)
(0.00577534 0.000781916 0.263014)
(0.00734336 0.000759283 0.264029)
(0.00884893 0.000734688 0.265286)
(0.010273 0.000707936 0.266774)
(0.0115927 0.000678873 0.26848)
(0.0127769 0.00064904 0.270386)
(0.0137745 0.000613181 0.272465)
(0.000821569 0.00250807 0.261734)
(0.00247186 0.00247208 0.261974)
(0.00410366 0.00241708 0.262462)
(0.0056987 0.00235585 0.263195)
(0.00724985 0.00228955 0.264168)
(0.00874183 0.0022179 0.265375)
(0.0101569 0.00214055 0.266808)
(0.0114732 0.00205749 0.268454)
(0.0126609 0.00197407 0.270295)
(0.0136683 0.00188421 0.272307)
(0.000802784 0.004161 0.262248)
(0.00241696 0.00410372 0.262462)
(0.00401465 0.00401482 0.262914)
(0.00557825 0.00391478 0.263602)
(0.00710051 0.00380583 0.264523)
(0.00856671 0.00368803 0.265669)
(0.00996022 0.00356104 0.267034)
(0.0112606 0.00342521 0.268605)
(0.0124396 0.00329121 0.270365)
(0.0134453 0.00315775 0.272294)
(0.000781975 0.00577509 0.263014)
(0.00235592 0.00569852 0.263194)
(0.00391473 0.00557826 0.263602)
(0.00544198 0.0054421 0.264237)
(0.00693065 0.00529286 0.265096)
(0.00836638 0.00513093 0.266172)
(0.00973346 0.00495631 0.267459)
(0.0110129 0.00476984 0.268945)
(0.0121774 0.00458738 0.270616)
(0.0131702 0.00441159 0.272451)
(0.000759328 0.0073431 0.264029)
(0.00228968 0.00724957 0.264168)
(0.00380596 0.00710031 0.264522)
(0.00529286 0.00693063 0.265095)
(0.00674369 0.00674378 0.265883)
(0.00814485 0.00653991 0.266881)
(0.00948157 0.00631925 0.268081)
(0.0107362 0.00608355 0.269474)
(0.0118826 0.00585409 0.271044)
(0.0128544 0.00563767 0.272778)
(0.000734718 0.00884867 0.265285)
(0.00221801 0.00874156 0.265375)
(0.00368821 0.00856642 0.265669)
(0.00513111 0.00836618 0.266172)
(0.00653993 0.00814485 0.266881)
(0.00790188 0.00790202 0.267791)
(0.0092036 0.00763735 0.268896)
(0.0104294 0.00735311 0.270186)
(0.0115544 0.00707647 0.271647)
(0.0124989 0.00682023 0.273271)
(0.000707966 0.0102727 0.266773)
(0.00214064 0.0101566 0.266808)
(0.00356119 0.00995995 0.267034)
(0.00495656 0.00973318 0.267459)
(0.00631952 0.00948137 0.268081)
(0.00763736 0.00920366 0.268896)
(0.00889813 0.00889835 0.269897)
(0.0100891 0.00856649 0.271075)
(0.0111886 0.00823966 0.272418)
(0.0121032 0.00794039 0.273923)
(0.0006789 0.0115924 0.26848)
(0.00205757 0.0114729 0.268454)
(0.00342534 0.0112604 0.268604)
(0.00477005 0.0110126 0.268945)
(0.0060839 0.0107359 0.269473)
(0.00735339 0.0104291 0.270185)
(0.00856644 0.010089 0.271075)
(0.00971263 0.00971273 0.272133)
(0.0107775 0.00932892 0.273349)
(0.0116631 0.00896939 0.274728)
(0.000649063 0.0127767 0.270385)
(0.00197413 0.0126607 0.270295)
(0.00329132 0.0124393 0.270365)
(0.00458753 0.0121771 0.270615)
(0.00585431 0.0118823 0.271044)
(0.00707674 0.011554 0.271647)
(0.0082398 0.0111883 0.272418)
(0.00932896 0.0107773 0.273349)
(0.010335 0.0103349 0.274429)
(0.0111896 0.00987075 0.275673)
(0.000613203 0.0137743 0.272464)
(0.00188428 0.0136681 0.272307)
(0.00315784 0.0134451 0.272294)
(0.00441172 0.01317 0.272451)
(0.00563782 0.0128541 0.272778)
(0.00682041 0.0124986 0.27327)
(0.00794059 0.0121029 0.273923)
(0.00896959 0.0116629 0.274728)
(0.00987086 0.0111894 0.275673)
(0.0106604 0.0106603 0.276775)
(0.00107868 0.00107884 0.254574)
(0.00324195 0.00106298 0.254861)
(0.00538189 0.00103943 0.255435)
(0.00747837 0.00101375 0.256297)
(0.00952303 0.000986158 0.257447)
(0.0114967 0.000956328 0.258886)
(0.013376 0.000923942 0.260613)
(0.0151319 0.000888701 0.262627)
(0.016725 0.000852202 0.264927)
(0.0180917 0.000809858 0.267505)
(0.00106282 0.00324211 0.254861)
(0.00319627 0.00319655 0.255129)
(0.00530884 0.00312793 0.255675)
(0.00738036 0.00305262 0.2565)
(0.00940249 0.00297179 0.257603)
(0.0113572 0.00288489 0.258986)
(0.0132227 0.00279127 0.260648)
(0.0149715 0.00269058 0.262589)
(0.0165657 0.00258848 0.264806)
(0.0179413 0.00248113 0.267292)
(0.0010394 0.00538173 0.255435)
(0.00312779 0.0053089 0.255675)
(0.00519749 0.0051977 0.256183)
(0.00722913 0.00507428 0.256961)
(0.00921404 0.004941 0.258008)
(0.0111348 0.00479764 0.259326)
(0.012971 0.00464342 0.260913)
(0.014697 0.00447824 0.262769)
(0.0162766 0.0043135 0.264893)
(0.0176461 0.00415239 0.267276)
(0.00101382 0.00747803 0.256297)
(0.00305272 0.00738012 0.2565)
(0.00507423 0.00722913 0.256961)
(0.00706043 0.00706057 0.257683)
(0.00900278 0.00687735 0.258665)
(0.0108842 0.00667959 0.259909)
(0.0126853 0.00646686 0.261413)
(0.0143823 0.00623948 0.263178)
(0.0159404 0.00601449 0.2652)
(0.0172906 0.00580119 0.267474)
(0.000986218 0.00952267 0.257447)
(0.00297197 0.00940212 0.257603)
(0.00494118 0.00921377 0.258008)
(0.00687735 0.00900274 0.258665)
(0.00877218 0.00877229 0.259574)
(0.0106095 0.00852223 0.260736)
(0.0123709 0.00825239 0.26215)
(0.0140342 0.00796406 0.263815)
(0.0155662 0.00768028 0.265728)
(0.0168872 0.00741661 0.267886)
(0.000956371 0.0114963 0.258885)
(0.00288504 0.0113568 0.258986)
(0.00479789 0.0111344 0.259325)
(0.00667983 0.0108839 0.259909)
(0.00852228 0.0106094 0.260736)
(0.0103099 0.0103101 0.261807)
(0.0120262 0.00998501 0.263122)
(0.013651 0.00963613 0.26468)
(0.0151526 0.00929307 0.266476)
(0.0164375 0.00897971 0.268511)
(0.000923985 0.0133756 0.260612)
(0.0027914 0.0132223 0.260648)
(0.00464365 0.0129706 0.260913)
(0.0064672 0.012685 0.261413)
(0.00825276 0.0123706 0.26215)
(0.00998505 0.0120263 0.263122)
(0.0116492 0.0116494 0.26433)
(0.0132285 0.0112407 0.265771)
(0.014695 0.0108346 0.267443)
(0.0159403 0.0104676 0.269348)
(0.00088874 0.0151316 0.262627)
(0.0026907 0.0149711 0.262589)
(0.00447843 0.0146966 0.262769)
(0.00623977 0.0143819 0.263178)
(0.00796453 0.0140338 0.263815)
(0.00963651 0.0136507 0.26468)
(0.0112407 0.0132285 0.265771)
(0.0127631 0.0127632 0.267088)
(0.0141838 0.0122864 0.268627)
(0.0153905 0.0118461 0.270393)
(0.000852236 0.0167247 0.264927)
(0.00258858 0.0165654 0.264805)
(0.00431365 0.0162762 0.264892)
(0.0060147 0.0159401 0.2652)
(0.0076806 0.0155657 0.265728)
(0.00929343 0.0151521 0.266476)
(0.0108348 0.0146945 0.267443)
(0.0122864 0.0141836 0.268627)
(0.0136341 0.0136341 0.270022)
(0.0147995 0.0130713 0.271642)
(0.000809889 0.0180915 0.267505)
(0.00248121 0.0179411 0.267292)
(0.00415252 0.0176458 0.267276)
(0.00580137 0.0172902 0.267474)
(0.00741682 0.0168869 0.267886)
(0.00897996 0.0164371 0.268511)
(0.0104679 0.0159399 0.269348)
(0.0118464 0.0153902 0.270393)
(0.0130714 0.0147993 0.271642)
(0.0141541 0.014154 0.273111)
(0.0013479 0.00134809 0.245864)
(0.00405125 0.00132917 0.246176)
(0.00673412 0.00130173 0.246803)
(0.00937865 0.00127263 0.24775)
(0.0119795 0.00124206 0.249022)
(0.0145194 0.00120963 0.25063)
(0.0169763 0.00117497 0.252586)
(0.0193219 0.0011377 0.254905)
(0.0215154 0.00109948 0.257605)
(0.0234902 0.00105874 0.260702)
(0.00132898 0.00405145 0.246176)
(0.00399663 0.00399696 0.246468)
(0.00664618 0.00391693 0.247066)
(0.00925955 0.00383153 0.247972)
(0.0118311 0.00374194 0.249194)
(0.0143447 0.00364747 0.25074)
(0.0167798 0.00354725 0.252623)
(0.0191096 0.00344072 0.254855)
(0.021295 0.0033337 0.257453)
(0.0232689 0.00322987 0.260432)
(0.0013017 0.00673392 0.246803)
(0.00391676 0.00664625 0.247065)
(0.00651571 0.00651595 0.247623)
(0.00908125 0.00637532 0.248481)
(0.011607 0.00622681 0.249645)
(0.0140773 0.00607002 0.251123)
(0.016473 0.00590389 0.252925)
(0.0187688 0.00572798 0.255065)
(0.0209276 0.00555395 0.257556)
(0.0228824 0.00539729 0.260412)
(0.00127271 0.00937823 0.247749)
(0.00383165 0.00925925 0.247972)
(0.00637526 0.00908125 0.248481)
(0.00888793 0.00888809 0.249282)
(0.0113631 0.00868274 0.25038)
(0.0137852 0.00846517 0.251783)
(0.016136 0.00823466 0.2535)
(0.018392 0.0079911 0.255542)
(0.0205171 0.00775194 0.257922)
(0.0224394 0.00754329 0.260652)
(0.00124214 0.011979 0.249022)
(0.00374216 0.0118306 0.249194)
(0.00622703 0.0116067 0.249645)
(0.00868276 0.0113631 0.25038)
(0.0111028 0.0111029 0.251405)
(0.0134723 0.0108259 0.252725)
(0.015774 0.0105314 0.254349)
(0.0179859 0.0102205 0.256288)
(0.0200727 0.00991678 0.258552)
(0.0219534 0.00965712 0.261153)
(0.00120969 0.0145189 0.25063)
(0.00364766 0.0143442 0.25074)
(0.00607033 0.0140768 0.251123)
(0.00846548 0.0137849 0.251783)
(0.0108259 0.0134723 0.252725)
(0.0131377 0.0131379 0.253954)
(0.0153851 0.0127803 0.255479)
(0.0175484 0.0124013 0.257307)
(0.0195929 0.0120313 0.25945)
(0.0214256 0.0117202 0.261917)
(0.00117503 0.0169758 0.252586)
(0.00354741 0.0167793 0.252622)
(0.00590418 0.0164725 0.252925)
(0.0082351 0.0161355 0.253499)
(0.0105319 0.0157737 0.254349)
(0.0127804 0.0153852 0.255478)
(0.0149666 0.014967 0.256895)
(0.0170744 0.0145192 0.258606)
(0.0190723 0.0140776 0.260621)
(0.0208546 0.0137095 0.262947)
(0.00113775 0.0193214 0.254905)
(0.00344088 0.0191091 0.254855)
(0.00572824 0.0187683 0.255065)
(0.00799149 0.0183915 0.255541)
(0.0102211 0.0179854 0.256287)
(0.0124018 0.0175479 0.257307)
(0.0145192 0.0170744 0.258606)
(0.0165599 0.01656 0.260191)
(0.0185003 0.016037 0.262068)
(0.0202341 0.0155892 0.264247)
(0.00109952 0.021515 0.257604)
(0.00333383 0.0212946 0.257452)
(0.00555416 0.0209271 0.257556)
(0.00775222 0.0205166 0.257921)
(0.0099172 0.0200721 0.258552)
(0.0120318 0.0195923 0.25945)
(0.0140779 0.0190718 0.260621)
(0.016037 0.0185 0.262068)
(0.0178914 0.0178913 0.263798)
(0.0195751 0.0173103 0.265819)
(0.00105878 0.0234899 0.260701)
(0.00322999 0.0232686 0.260431)
(0.00539747 0.022882 0.260412)
(0.00754353 0.022439 0.260652)
(0.00965741 0.0219529 0.261152)
(0.0117206 0.0214251 0.261917)
(0.0137098 0.0208541 0.262947)
(0.0155895 0.0202337 0.264247)
(0.0173105 0.0195749 0.265819)
(0.0188939 0.0188937 0.267684)
(0.00163326 0.00163348 0.235198)
(0.00491058 0.00161192 0.235522)
(0.00817651 0.00158163 0.236174)
(0.0114201 0.0015508 0.237163)
(0.0146434 0.00151961 0.238502)
(0.0178368 0.00148767 0.240211)
(0.0209861 0.0014546 0.242315)
(0.0240705 0.00142004 0.244844)
(0.0270569 0.00138577 0.247837)
(0.0298853 0.00135564 0.251336)
(0.0016117 0.0049108 0.235522)
(0.00484814 0.00484852 0.235825)
(0.00807513 0.00476006 0.236447)
(0.0112811 0.00466949 0.237395)
(0.0144674 0.00457803 0.238683)
(0.0176252 0.00448493 0.240327)
(0.0207412 0.00438926 0.242351)
(0.0237961 0.00429041 0.244784)
(0.0267577 0.00419424 0.247661)
(0.029566 0.00411756 0.25102)
(0.00158159 0.00817629 0.236174)
(0.00475986 0.00807521 0.236447)
(0.00792997 0.00793024 0.23703)
(0.011081 0.00778006 0.237931)
(0.0142131 0.0076272 0.239161)
(0.0173173 0.0074712 0.240736)
(0.0203813 0.0073109 0.242679)
(0.0233871 0.00714567 0.245015)
(0.0263032 0.00698706 0.247776)
(0.0290705 0.00687108 0.250997)
(0.00155089 0.0114196 0.237162)
(0.00466962 0.0112808 0.237395)
(0.00778 0.011081 0.237931)
(0.0108729 0.0108731 0.238776)
(0.0139478 0.0106599 0.239943)
(0.0169953 0.0104413 0.241445)
(0.0200036 0.0102166 0.243302)
(0.0229559 0.00998535 0.245539)
(0.0258209 0.00976469 0.248184)
(0.0285358 0.00960844 0.251269)
(0.0015197 0.0146428 0.238502)
(0.00457829 0.0144668 0.238682)
(0.00762746 0.0142128 0.239161)
(0.0106599 0.0139477 0.239943)
(0.0136746 0.0136748 0.241038)
(0.0166627 0.0133933 0.242461)
(0.0196128 0.0131029 0.244229)
(0.022509 0.0128041 0.246364)
(0.0253196 0.0125201 0.248892)
(0.0279756 0.0123226 0.251839)
(0.00148774 0.0178362 0.240211)
(0.00448515 0.0176246 0.240327)
(0.00747157 0.0173167 0.240736)
(0.0104417 0.0169949 0.241445)
(0.0133934 0.0166627 0.242461)
(0.0163184 0.0163186 0.243798)
(0.0192066 0.0159613 0.24547)
(0.0220438 0.015592 0.247498)
(0.0247976 0.0152408 0.249905)
(0.027391 0.0149996 0.252713)
(0.00145467 0.0209855 0.242314)
(0.00438945 0.0207406 0.242351)
(0.00731124 0.0203807 0.242679)
(0.0102171 0.020003 0.243302)
(0.0131034 0.0196124 0.244229)
(0.0159613 0.0192067 0.24547)
(0.0187822 0.0187826 0.247039)
(0.021555 0.0183398 0.248953)
(0.024249 0.0179134 0.251234)
(0.0267802 0.0176201 0.253899)
(0.0014201 0.0240699 0.244844)
(0.00429059 0.0237955 0.244784)
(0.00714597 0.0233865 0.245014)
(0.00998581 0.0229553 0.245539)
(0.0128048 0.0225083 0.246364)
(0.0155926 0.0220433 0.247498)
(0.0183397 0.021555 0.248953)
(0.0210377 0.0210379 0.250745)
(0.0236622 0.0205233 0.252892)
(0.0261356 0.0201517 0.255407)
(0.00138582 0.0270564 0.247836)
(0.0041944 0.0267572 0.24766)
(0.00698731 0.0263026 0.247775)
(0.00976503 0.0258203 0.248184)
(0.0125206 0.0253189 0.248891)
(0.0152414 0.0247968 0.249904)
(0.0179137 0.0242484 0.251234)
(0.0205234 0.023662 0.252892)
(0.0230507 0.0230506 0.254893)
(0.0254675 0.0225435 0.257248)
(0.00135569 0.0298848 0.251336)
(0.0041177 0.0295656 0.251019)
(0.0068713 0.02907 0.250996)
(0.00960872 0.0285353 0.251268)