/*--------------------------------*- C++ -*----------------------------------*\
| =========                 |                                                 |
| \\      /  F ield         | foam-extend: Open Source CFD                    |
|  \\    /   O peration     | Version:     3.1                                |
|   \\  /    A nd           | Web:         http://www.extend-project.de       |
|    \\/     M anipulation  |                                                 |
\*---------------------------------------------------------------------------*/
FoamFile
{
    version     2.0;
    format      ascii;
    class       volScalarField::DimensionedInternalField;
    location    "0.002";
    object      V0;
}
// * * * * * * * * * * * * * * * * * * * * * * * * * * * * * * * * * * * * * //

dimensions      [0 3 0 0 0 0 0];

value           nonuniform List<scalar> 
16000
(
7.24056e-11
7.11368e-11
6.98663e-11
6.86034e-11
6.73498e-11
6.61055e-11
6.48706e-11
6.36457e-11
6.24311e-11
6.12259e-11
7.11356e-11
6.98738e-11
6.861e-11
6.73494e-11
6.60962e-11
6.48517e-11
6.36162e-11
6.239e-11
6.1173e-11
5.99624e-11
6.98652e-11
6.86087e-11
6.73522e-11
6.60964e-11
6.48445e-11
6.35998e-11
6.23635e-11
6.11353e-11
5.99155e-11
5.8701e-11
6.86031e-11
6.73485e-11
6.60954e-11
6.48438e-11
6.35942e-11
6.2349e-11
6.11108e-11
5.98803e-11
5.86574e-11
5.74401e-11
6.73498e-11
6.6096e-11
6.48437e-11
6.35932e-11
6.23454e-11
6.11005e-11
5.98601e-11
5.86261e-11
5.73998e-11
5.61801e-11
6.61056e-11
6.48518e-11
6.35996e-11
6.23483e-11
6.10995e-11
5.98546e-11
5.86129e-11
5.7375e-11
5.61439e-11
5.49214e-11
6.48708e-11
6.36164e-11
6.23636e-11
6.11107e-11
5.98592e-11
5.86114e-11
5.73679e-11
5.6127e-11
5.48899e-11
5.36634e-11
6.3646e-11
6.23902e-11
6.11355e-11
5.98805e-11
5.8626e-11
5.73736e-11
5.61253e-11
5.48798e-11
5.36365e-11
5.24049e-11
6.24314e-11
6.11733e-11
5.99157e-11
5.86576e-11
5.73999e-11
5.61434e-11
5.48889e-11
5.36358e-11
5.23843e-11
5.11432e-11
6.12262e-11
5.99626e-11
5.87012e-11
5.74402e-11
5.61801e-11
5.49213e-11
5.36633e-11
5.24045e-11
5.11428e-11
4.9885e-11
7.3507e-11
7.21907e-11
7.08499e-11
6.95138e-11
6.81876e-11
6.68704e-11
6.55614e-11
6.42596e-11
6.29639e-11
6.16687e-11
7.21871e-11
7.08925e-11
6.95735e-11
6.82468e-11
6.69245e-11
6.56101e-11
6.43031e-11
6.30024e-11
6.17059e-11
6.0404e-11
7.08467e-11
6.957e-11
6.82753e-11
6.69662e-11
6.56516e-11
6.43411e-11
6.30368e-11
6.17368e-11
6.04397e-11
5.9137e-11
6.95131e-11
6.82441e-11
6.69631e-11
6.56706e-11
6.43679e-11
6.30614e-11
6.1758e-11
6.0458e-11
5.91605e-11
5.78596e-11
6.81878e-11
6.69241e-11
6.56494e-11
6.43651e-11
6.30732e-11
6.17742e-11
6.0471e-11
5.91685e-11
5.78694e-11
5.65717e-11
6.68708e-11
6.56104e-11
6.43407e-11
6.30594e-11
6.17713e-11
6.04791e-11
5.91798e-11
5.78738e-11
5.65689e-11
5.52733e-11
6.55619e-11
6.43035e-11
6.30372e-11
6.17578e-11
6.04686e-11
5.91754e-11
5.78792e-11
5.65729e-11
5.52597e-11
5.39633e-11
6.42603e-11
6.3003e-11
6.17373e-11
6.04585e-11
5.91681e-11
5.78698e-11
5.65683e-11
5.52583e-11
5.39382e-11
5.2639e-11
6.29646e-11
6.17065e-11
6.04403e-11
5.9161e-11
5.78698e-11
5.65679e-11
5.52573e-11
5.39364e-11
5.26054e-11
5.12946e-11
6.16693e-11
6.04046e-11
5.91375e-11
5.786e-11
5.6572e-11
5.52735e-11
5.39633e-11
5.26382e-11
5.12934e-11
4.9955e-11
7.45018e-11
7.31402e-11
7.17319e-11
7.0325e-11
6.89287e-11
6.75412e-11
6.61614e-11
6.47881e-11
6.34195e-11
6.20477e-11
7.31344e-11
7.18088e-11
7.04368e-11
6.90462e-11
6.76572e-11
6.62757e-11
6.49008e-11
6.3531e-11
6.21633e-11
6.07828e-11
7.17268e-11
7.04311e-11
6.91001e-11
6.77395e-11
6.63647e-11
6.49913e-11
6.3623e-11
6.22566e-11
6.08908e-11
5.95121e-11
7.0324e-11
6.9042e-11
6.77345e-11
6.64029e-11
6.50495e-11
6.36849e-11
6.23204e-11
6.0957e-11
5.95935e-11
5.8221e-11
6.89291e-11
6.76567e-11
6.63612e-11
6.5045e-11
6.37115e-11
6.23617e-11
6.10005e-11
5.9636e-11
5.82732e-11
5.69094e-11
6.75419e-11
6.62763e-11
6.49908e-11
6.36817e-11
6.23571e-11
6.10213e-11
5.96694e-11
5.83027e-11
5.6934e-11
5.55772e-11
6.61623e-11
6.49016e-11
6.36237e-11
6.23202e-11
6.09965e-11
5.96622e-11
5.83189e-11
5.69552e-11
5.55769e-11
5.42226e-11
6.47891e-11
6.3532e-11
6.22575e-11
6.09578e-11
5.96354e-11
5.8296e-11
5.69477e-11
5.55816e-11
5.41959e-11
5.28409e-11
6.34207e-11
6.21645e-11
6.08918e-11
5.95944e-11
5.82741e-11
5.69326e-11
5.55731e-11
5.41931e-11
5.2793e-11
5.14219e-11
6.20488e-11
6.07839e-11
5.9513e-11
5.82218e-11
5.69101e-11
5.55778e-11
5.42229e-11
5.28398e-11
5.14199e-11
5.00057e-11
7.53724e-11
7.39704e-11
7.25014e-11
7.10317e-11
6.95742e-11
6.8127e-11
6.66891e-11
6.52601e-11
6.38391e-11
6.24171e-11
7.39625e-11
7.26098e-11
7.11904e-11
6.97433e-11
6.82964e-11
6.6858e-11
6.54278e-11
6.40045e-11
6.25856e-11
6.1152e-11
7.24946e-11
7.11828e-11
6.98199e-11
6.84144e-11
6.69877e-11
6.55614e-11
6.41414e-11
6.2724e-11
6.13088e-11
5.98783e-11
7.10306e-11
6.97378e-11
6.84077e-11
6.70426e-11
6.56462e-11
6.42333e-11
6.28199e-11
6.14082e-11
5.99977e-11
5.85767e-11
6.9575e-11
6.82959e-11
6.6983e-11
6.56401e-11
6.42722e-11
6.28809e-11
6.14737e-11
6.00624e-11
5.86548e-11
5.72469e-11
6.8128e-11
6.6859e-11
6.55609e-11
6.4229e-11
6.28747e-11
6.15043e-11
6.01118e-11
5.86995e-11
5.72859e-11
5.5889e-11
6.66905e-11
6.54291e-11
6.41425e-11
6.28197e-11
6.14683e-11
6.0102e-11
5.87233e-11
5.73171e-11
5.58923e-11
5.45003e-11
6.52618e-11
6.4006e-11
6.27254e-11
6.14094e-11
6.00617e-11
5.86904e-11
5.73068e-11
5.58992e-11
5.44659e-11
5.30743e-11
6.38409e-11
6.25873e-11
6.13103e-11
5.9999e-11
5.86561e-11
5.72841e-11
5.58873e-11
5.44622e-11
5.30101e-11
5.15953e-11
6.24188e-11
6.11535e-11
5.98797e-11
5.8578e-11
5.7248e-11
5.589e-11
5.4501e-11
5.3073e-11
5.15925e-11
5.01165e-11
7.61007e-11
7.46648e-11
7.31451e-11
7.16234e-11
7.01163e-11
6.8622e-11
6.71401e-11
6.56708e-11
6.4214e-11
6.27598e-11
7.46552e-11
7.32801e-11
7.18213e-11
7.03275e-11
6.88339e-11
6.73509e-11
6.58788e-11
6.44169e-11
6.29629e-11
6.14941e-11
7.3137e-11
7.18123e-11
7.04231e-11
6.8981e-11
6.75127e-11
6.60453e-11
6.45863e-11
6.31323e-11
6.16831e-11
6.0218e-11
7.16222e-11
7.0321e-11
6.89729e-11
6.75812e-11
6.61508e-11
6.47006e-11
6.32505e-11
6.18042e-11
6.03614e-11
5.8908e-11
7.01175e-11
6.88334e-11
6.75071e-11
6.61434e-11
6.47489e-11
6.33261e-11
6.18846e-11
6.04396e-11
5.90012e-11
5.7564e-11
6.86234e-11
6.73523e-11
6.60447e-11
6.46954e-11
6.33185e-11
6.19224e-11
6.05e-11
5.90546e-11
5.76097e-11
5.61861e-11
6.71419e-11
6.58805e-11
6.45878e-11
6.32504e-11
6.18781e-11
6.04879e-11
5.90834e-11
5.76466e-11
5.61884e-11
5.4771e-11
6.5673e-11
6.4419e-11
6.31341e-11
6.18058e-11
6.04388e-11
5.90435e-11
5.76339e-11
5.61957e-11
5.47274e-11
5.33102e-11
6.42164e-11
6.29652e-11
6.16852e-11
6.03633e-11
5.9003e-11
5.76076e-11
5.61824e-11
5.47229e-11
5.32308e-11
5.17832e-11
6.27621e-11
6.14962e-11
6.02199e-11
5.89098e-11
5.75656e-11
5.61876e-11
5.4772e-11
5.33087e-11
5.17799e-11
5.02547e-11
7.66681e-11
7.52059e-11
7.36466e-11
7.20847e-11
7.05399e-11
6.90104e-11
6.74962e-11
6.5998e-11
6.45161e-11
6.30395e-11
7.5195e-11
7.38028e-11
7.23132e-11
7.07833e-11
6.92541e-11
6.77378e-11
6.6235e-11
6.47454e-11
6.32667e-11
6.17731e-11
7.36375e-11
7.23031e-11
7.08937e-11
6.94234e-11
6.79237e-11
6.64255e-11
6.49381e-11
6.34577e-11
6.19846e-11
6.0495e-11
7.20836e-11
7.07761e-11
6.94143e-11
6.80024e-11
6.65466e-11
6.50686e-11
6.35918e-11
6.21205e-11
6.06549e-11
5.91785e-11
7.05414e-11
6.92538e-11
6.79173e-11
6.65381e-11
6.51239e-11
6.36779e-11
6.22113e-11
6.07419e-11
5.92815e-11
5.78234e-11
6.90123e-11
6.77396e-11
6.6425e-11
6.50628e-11
6.36692e-11
6.22542e-11
6.08101e-11
5.93406e-11
5.78728e-11
5.64303e-11
6.74985e-11
6.62372e-11
6.494e-11
6.35918e-11
6.22039e-11
6.07962e-11
5.9373e-11
5.79136e-11
5.64307e-11
5.49949e-11
6.60007e-11
6.4748e-11
6.346e-11
6.21225e-11
6.07411e-11
5.93279e-11
5.78991e-11
5.64383e-11
5.49436e-11
5.35078e-11
6.4519e-11
6.32696e-11
6.19872e-11
6.06572e-11
5.92837e-11
5.78705e-11
5.64239e-11
5.49386e-11
5.34163e-11
5.1945e-11
6.30423e-11
6.17757e-11
6.04974e-11
5.91807e-11
5.78256e-11
5.64322e-11
5.49963e-11
5.35061e-11
5.19412e-11
5.03802e-11
7.70585e-11
7.55782e-11
7.3991e-11
7.24008e-11
7.08297e-11
6.92756e-11
6.77389e-11
6.62205e-11
6.4721e-11
6.32284e-11
7.55665e-11
7.41625e-11
7.2651e-11
7.10954e-11
6.95413e-11
6.80017e-11
6.64775e-11
6.49685e-11
6.34725e-11
6.19614e-11
7.39814e-11
7.26404e-11
7.12163e-11
6.9726e-11
6.82043e-11
6.66846e-11
6.51774e-11
6.36785e-11
6.21886e-11
6.06818e-11
7.23998e-11
7.10878e-11
6.97163e-11
6.82902e-11
6.68165e-11
6.5319e-11
6.38236e-11
6.23348e-11
6.08531e-11
5.93608e-11
7.08314e-11
6.95411e-11
6.81974e-11
6.68072e-11
6.53793e-11
6.3917e-11
6.24329e-11
6.09465e-11
5.94706e-11
5.79981e-11
6.92778e-11
6.80038e-11
6.66842e-11
6.53128e-11
6.39076e-11
6.24794e-11
6.10201e-11
5.95339e-11
5.805e-11
5.65945e-11
6.77416e-11
6.64801e-11
6.51795e-11
6.38237e-11
6.2425e-11
6.1005e-11
5.95688e-11
5.80938e-11
5.65938e-11
5.51456e-11
6.62237e-11
6.49715e-11
6.36812e-11
6.23372e-11
6.09457e-11
5.95201e-11
5.80781e-11
5.66018e-11
5.50892e-11
5.3641e-11
6.47244e-11
6.34757e-11
6.21915e-11
6.08558e-11
5.9473e-11
5.80477e-11
5.65864e-11
5.50837e-11
5.35415e-11
5.20554e-11
6.32317e-11
6.19645e-11
6.06846e-11
5.93634e-11
5.80006e-11
5.65967e-11
5.51472e-11
5.36393e-11
5.20513e-11
5.04685e-11
7.72628e-11
7.57726e-11
7.41695e-11
7.25627e-11
7.09759e-11
6.9407e-11
6.78566e-11
6.63259e-11
6.48155e-11
6.33131e-11
7.57606e-11
7.43503e-11
7.28256e-11
7.12545e-11
6.96857e-11
6.81319e-11
6.65946e-11
6.50737e-11
6.3567e-11
6.20457e-11
7.41598e-11
7.2815e-11
7.13818e-11
6.98792e-11
6.83443e-11
6.68116e-11
6.52921e-11
6.3782e-11
6.22818e-11
6.07653e-11
7.25618e-11
7.12469e-11
6.98692e-11
6.84342e-11
6.69498e-11
6.54406e-11
6.39338e-11
6.24345e-11
6.09431e-11
5.94419e-11
7.09777e-11
6.96854e-11
6.83372e-11
6.69401e-11
6.55037e-11
6.40316e-11
6.25372e-11
6.10406e-11
5.95555e-11
5.80754e-11
6.94093e-11
6.81341e-11
6.68112e-11
6.54341e-11
6.40219e-11
6.25858e-11
6.11176e-11
5.96217e-11
5.81288e-11
5.66667e-11
6.78594e-11
6.65973e-11
6.52944e-11
6.3934e-11
6.25289e-11
6.11019e-11
5.96583e-11
5.81746e-11
5.66654e-11
5.52113e-11
6.63292e-11
6.50768e-11
6.37848e-11
6.24369e-11
6.10399e-11
5.96075e-11
5.81583e-11
5.6674e-11
5.51525e-11
5.36989e-11
6.48191e-11
6.35704e-11
6.22849e-11
6.09459e-11
5.95582e-11
5.81264e-11
5.66577e-11
5.51468e-11
5.35955e-11
5.21039e-11
6.33166e-11
6.2049e-11
6.07683e-11
5.94447e-11
5.8078e-11
5.6669e-11
5.5213e-11
5.36972e-11
5.20997e-11
5.0509e-11
7.72818e-11
7.57898e-11
7.41822e-11
7.257e-11
7.09777e-11
6.94031e-11
6.78472e-11
6.63116e-11
6.4797e-11
6.32914e-11
7.57778e-11
7.43661e-11
7.28368e-11
7.12603e-11
6.96861e-11
6.81269e-11
6.65843e-11
6.50585e-11
6.35478e-11
6.20239e-11
7.41727e-11
7.28265e-11
7.13896e-11
6.98822e-11
6.83425e-11
6.68048e-11
6.52804e-11
6.37658e-11
6.2262e-11
6.07434e-11
7.25692e-11
7.12529e-11
6.98723e-11
6.84336e-11
6.6945e-11
6.54314e-11
6.39204e-11
6.24171e-11
6.09226e-11
5.94199e-11
7.09794e-11
6.96858e-11
6.83353e-11
6.69353e-11
6.54955e-11
6.40198e-11
6.25218e-11
6.1022e-11
5.95344e-11
5.80535e-11
6.94053e-11
6.8129e-11
6.68043e-11
6.54249e-11
6.401e-11
6.25711e-11
6.11001e-11
5.96019e-11
5.81071e-11
5.6645e-11
6.785e-11
6.65869e-11
6.52826e-11
6.39205e-11
6.25135e-11
6.10846e-11
5.9639e-11
5.81538e-11
5.66437e-11
5.51905e-11
6.63148e-11
6.50616e-11
6.37685e-11
6.24196e-11
6.10213e-11
5.95877e-11
5.81375e-11
5.6653e-11
5.51318e-11
5.368e-11
6.48005e-11
6.35511e-11
6.2265e-11
6.09253e-11
5.9537e-11
5.81047e-11
5.6636e-11
5.51261e-11
5.35767e-11
5.20887e-11
6.32947e-11
6.20271e-11
6.07463e-11
5.94227e-11
5.80561e-11
5.66473e-11
5.51921e-11
5.36782e-11
5.20845e-11
5.04993e-11
7.71278e-11
7.56408e-11
7.40396e-11
7.24324e-11
7.08436e-11
6.92717e-11
6.7718e-11
6.61843e-11
6.46719e-11
6.31694e-11
7.56292e-11
7.42202e-11
7.26947e-11
7.11222e-11
6.95513e-11
6.79945e-11
6.64538e-11
6.49298e-11
6.34215e-11
6.19023e-11
7.40304e-11
7.26849e-11
7.12493e-11
6.97443e-11
6.82074e-11
6.66719e-11
6.51494e-11
6.36368e-11
6.21356e-11
6.06224e-11
7.24314e-11
7.1115e-11
6.97347e-11
6.8297e-11
6.68103e-11
6.52991e-11
6.37903e-11
6.22895e-11
6.0798e-11
5.9301e-11
7.08452e-11
6.95508e-11
6.82003e-11
6.68009e-11
6.53623e-11
6.38887e-11
6.23936e-11
6.08972e-11
5.94132e-11
5.79383e-11
6.92737e-11
6.79964e-11
6.66713e-11
6.52927e-11
6.38793e-11
6.24423e-11
6.09744e-11
5.94805e-11
5.79909e-11
5.65352e-11
6.77205e-11
6.64561e-11
6.51514e-11
6.37903e-11
6.23855e-11
6.09594e-11
5.95172e-11
5.80373e-11
5.65342e-11
5.50884e-11
6.61872e-11
6.49326e-11
6.36393e-11
6.22917e-11
6.08963e-11
5.94669e-11
5.80216e-11
5.65439e-11
5.50319e-11
5.35888e-11
6.46751e-11
6.34245e-11
6.21384e-11
6.08005e-11
5.94156e-11
5.79885e-11
5.65267e-11
5.50263e-11
5.34892e-11
5.20134e-11
6.31724e-11
6.19051e-11
6.0625e-11
5.93035e-11
5.79406e-11
5.65372e-11
5.50897e-11
5.35869e-11
5.20094e-11
5.04419e-11
7.68234e-11
7.53475e-11
7.37618e-11
7.21686e-11
7.05914e-11
6.90294e-11
6.74844e-11
6.59586e-11
6.44539e-11
6.29601e-11
7.53366e-11
7.39338e-11
7.24194e-11
7.08589e-11
6.92988e-11
6.77513e-11
6.62187e-11
6.47023e-11
6.32018e-11
6.16935e-11
7.37531e-11
7.24101e-11
7.09804e-11
6.94839e-11
6.79563e-11
6.64295e-11
6.49146e-11
6.34096e-11
6.19166e-11
6.0415e-11
7.21676e-11
7.08521e-11
6.94748e-11
6.80422e-11
6.65627e-11
6.50597e-11
6.35587e-11
6.20658e-11
6.05828e-11
5.90976e-11
7.05927e-11
6.92982e-11
6.79495e-11
6.65539e-11
6.51206e-11
6.3654e-11
6.21672e-11
6.06797e-11
5.92049e-11
5.77416e-11
6.90311e-11
6.77528e-11
6.64287e-11
6.50536e-11
6.36451e-11
6.22142e-11
6.07543e-11
5.92707e-11
5.7792e-11
5.63484e-11
6.74865e-11
6.62206e-11
6.49163e-11
6.35586e-11
6.21597e-11
6.07404e-11
5.9306e-11
5.78372e-11
5.6348e-11
5.4915e-11
6.59611e-11
6.47047e-11
6.34117e-11
6.20677e-11
6.06789e-11
5.92581e-11
5.78227e-11
5.63581e-11
5.48627e-11
5.34341e-11
6.44566e-11
6.32043e-11
6.19189e-11
6.05849e-11
5.9207e-11
5.77898e-11
5.63409e-11
5.48574e-11
5.33413e-11
5.18853e-11
6.29626e-11
6.16959e-11
6.04171e-11
5.90997e-11
5.77436e-11
5.635e-11
5.49161e-11
5.34322e-11
5.18816e-11
5.03431e-11
7.64006e-11
7.49406e-11
7.33778e-11
7.18057e-11
7.02466e-11
6.87004e-11
6.71693e-11
6.56562e-11
6.41635e-11
6.26824e-11
7.49307e-11
7.35371e-11
7.20394e-11
7.04974e-11
6.89542e-11
6.74215e-11
6.5902e-11
6.43978e-11
6.29093e-11
6.14168e-11
7.33697e-11
7.20308e-11
7.06105e-11
6.91274e-11
6.76145e-11
6.61014e-11
6.45989e-11
6.31059e-11
6.16252e-11
6.014e-11
7.18046e-11
7.04911e-11
6.91191e-11
6.7695e-11
6.6227e-11
6.47368e-11
6.32482e-11
6.17674e-11
6.02969e-11
5.88281e-11
7.02475e-11
6.89535e-11
6.76083e-11
6.62189e-11
6.47942e-11
6.33385e-11
6.18644e-11
6.03902e-11
5.89285e-11
5.74813e-11
6.87017e-11
6.74226e-11
6.61006e-11
6.47311e-11
6.33305e-11
6.19088e-11
6.04608e-11
5.8992e-11
5.75287e-11
5.61011e-11
6.7171e-11
6.59035e-11
6.46002e-11
6.32479e-11
6.18576e-11
6.04484e-11
5.90253e-11
5.75719e-11
5.61015e-11
5.46858e-11
6.56582e-11
6.43996e-11
6.31076e-11
6.17689e-11
6.03893e-11
5.89807e-11
5.7559e-11
5.61121e-11
5.46389e-11
5.32294e-11
6.41656e-11
6.29113e-11
6.1627e-11
6.02986e-11
5.89302e-11
5.75266e-11
5.6095e-11
5.46341e-11
5.31459e-11
5.17158e-11
6.26843e-11
6.14186e-11
6.01417e-11
5.88296e-11
5.74827e-11
5.61023e-11
5.46864e-11
5.32275e-11
5.17124e-11
5.02119e-11
7.58981e-11
7.44573e-11
7.29225e-11
7.13767e-11
6.98405e-11
6.83145e-11
6.68015e-11
6.53046e-11
6.38269e-11
6.23614e-11
7.44485e-11
7.30664e-11
7.15894e-11
7.00707e-11
6.85488e-11
6.70351e-11
6.55326e-11
6.40439e-11
6.25705e-11
6.10968e-11
7.29152e-11
7.15817e-11
7.01735e-11
6.87074e-11
6.72133e-11
6.57178e-11
6.42311e-11
6.27534e-11
6.12878e-11
5.98222e-11
7.13756e-11
7.00649e-11
6.87e-11
6.7287e-11
6.58336e-11
6.43598e-11
6.28869e-11
6.14213e-11
5.99661e-11
5.85166e-11
6.98411e-11
6.8548e-11
6.72077e-11
6.58265e-11
6.44128e-11
6.2971e-11
6.15128e-11
6.00548e-11
5.8609e-11
5.71805e-11
6.83154e-11
6.70359e-11
6.57169e-11
6.43547e-11
6.2964e-11
6.15539e-11
6.01206e-11
5.86695e-11
5.72244e-11
5.58154e-11
6.68026e-11
6.55337e-11
6.4232e-11
6.28864e-11
6.15068e-11
6.01099e-11
5.87005e-11
5.72654e-11
5.58169e-11
5.44209e-11
6.5306e-11
6.40452e-11
6.27546e-11
6.14225e-11
6.0054e-11
5.86599e-11
5.72543e-11
5.58281e-11
5.43807e-11
5.2993e-11
6.38284e-11
6.25719e-11
6.12891e-11
5.99674e-11
5.86103e-11
5.72225e-11
5.58112e-11
5.43763e-11
5.29202e-11
5.15199e-11
6.23628e-11
6.10981e-11
5.98234e-11
5.85177e-11
5.71814e-11
5.58162e-11
5.44211e-11
5.29912e-11
5.1517e-11
5.00606e-11
7.53573e-11
7.39376e-11
7.24337e-11
7.09176e-11
6.94075e-11
6.79049e-11
6.64128e-11
6.49348e-11
6.34745e-11
6.20265e-11
7.393e-11
7.25608e-11
7.11069e-11
6.96145e-11
6.81171e-11
6.66254e-11
6.51427e-11
6.36721e-11
6.22161e-11
6.07631e-11
7.24273e-11
7.11002e-11
6.97059e-11
6.82593e-11
6.67867e-11
6.53116e-11
6.38435e-11
6.23833e-11
6.09351e-11
5.94908e-11
7.09164e-11
6.96094e-11
6.8253e-11
6.68529e-11
6.54166e-11
6.39615e-11
6.25067e-11
6.10586e-11
5.96206e-11
5.8192e-11
6.94078e-11
6.81162e-11
6.67818e-11
6.54105e-11
6.40097e-11
6.25839e-11
6.11436e-11
5.97039e-11
5.82757e-11
5.68671e-11
6.79054e-11
6.66259e-11
6.53107e-11
6.39571e-11
6.25779e-11
6.11811e-11
5.97642e-11
5.83327e-11
5.69074e-11
5.55181e-11
6.64136e-11
6.51433e-11
6.3844e-11
6.25062e-11
6.11385e-11
5.97553e-11
5.83611e-11
5.69457e-11
5.55207e-11
5.41453e-11
6.49358e-11
6.3673e-11
6.23841e-11
6.10594e-11
5.97031e-11
5.83247e-11
5.69366e-11
5.55324e-11
5.4112e-11
5.27471e-11
6.34755e-11
6.2217e-11
6.0936e-11
5.96215e-11
5.82767e-11
5.69057e-11
5.55157e-11
5.41082e-11
5.26856e-11
5.13162e-11
6.20274e-11
6.0764e-11
5.94916e-11
5.81927e-11
5.68677e-11
5.55184e-11
5.41452e-11
5.27454e-11
5.13138e-11
4.99034e-11
7.48183e-11
7.34202e-11
7.19482e-11
7.04631e-11
6.8981e-11
6.75039e-11
6.6035e-11
6.45782e-11
6.31372e-11
6.17084e-11
7.34137e-11
7.2058e-11
7.06283e-11
6.91636e-11
6.76926e-11
6.62249e-11
6.47642e-11
6.3314e-11
6.18771e-11
6.04462e-11
7.19426e-11
7.06226e-11
6.92433e-11
6.78178e-11
6.63684e-11
6.49156e-11
6.3468e-11
6.20275e-11
6.05983e-11
5.91763e-11
7.0462e-11
6.91592e-11
6.78124e-11
6.64267e-11
6.5009e-11
6.35745e-11
6.21396e-11
6.07106e-11
5.92913e-11
5.78842e-11
6.89811e-11
6.76917e-11
6.63642e-11
6.50039e-11
6.36175e-11
6.22091e-11
6.07883e-11
5.93682e-11
5.79587e-11
5.65704e-11
6.75042e-11
6.62252e-11
6.49147e-11
6.35708e-11
6.22041e-11
6.08219e-11
5.94226e-11
5.80115e-11
5.66067e-11
5.52369e-11
6.60355e-11
6.47646e-11
6.34684e-11
6.21391e-11
6.0784e-11
5.94154e-11
5.80371e-11
5.66421e-11
5.52406e-11
5.38853e-11
6.45787e-11
6.33145e-11
6.2028e-11
6.07111e-11
5.93675e-11
5.80052e-11
5.66347e-11
5.52525e-11
5.38587e-11
5.25153e-11
6.31378e-11
6.18777e-11
6.05988e-11
5.92919e-11
5.79594e-11
5.66054e-11
5.52364e-11
5.38555e-11
5.24649e-11
5.11242e-11
6.17089e-11
6.04466e-11
5.91767e-11
5.78845e-11
5.65706e-11
5.5237e-11
5.38848e-11
5.25138e-11
5.11224e-11
4.97547e-11
7.43148e-11
7.29376e-11
7.14967e-11
7.00427e-11
6.85893e-11
6.7139e-11
6.5695e-11
6.42611e-11
6.28412e-11
6.14331e-11
7.29322e-11
7.159e-11
7.01844e-11
6.87476e-11
6.73036e-11
6.58614e-11
6.44244e-11
6.29962e-11
6.15803e-11
6.01721e-11
7.1492e-11
7.01795e-11
6.88158e-11
6.74119e-11
6.59865e-11
6.45574e-11
6.3132e-11
6.17128e-11
6.03041e-11
5.89046e-11
7.00416e-11
6.87438e-11
6.74074e-11
6.6037e-11
6.46389e-11
6.32261e-11
6.18125e-11
6.0404e-11
5.90046e-11
5.76189e-11
6.85893e-11
6.73028e-11
6.59831e-11
6.46348e-11
6.32636e-11
6.18737e-11
6.04733e-11
5.90739e-11
5.7684e-11
5.63154e-11
6.7139e-11
6.58615e-11
6.45566e-11
6.3223e-11
6.18697e-11
6.05029e-11
5.91219e-11
5.77317e-11
5.63476e-11
5.49963e-11
6.56952e-11
6.44246e-11
6.31321e-11
6.18119e-11
6.04699e-11
5.91162e-11
5.77543e-11
5.63794e-11
5.50007e-11
5.36636e-11
6.42614e-11
6.29965e-11
6.1713e-11
6.04043e-11
5.90733e-11
5.77268e-11
5.63737e-11
5.50122e-11
5.36429e-11
5.23185e-11
6.28416e-11
6.15806e-11
6.03044e-11
5.90049e-11
5.76844e-11
5.63465e-11
5.49972e-11
5.36402e-11
5.2278e-11
5.09611e-11
6.14333e-11
6.01723e-11
5.89048e-11
5.7619e-11
5.63155e-11
5.49962e-11
5.36631e-11
5.23171e-11
5.09597e-11
4.96268e-11
7.38707e-11
7.25128e-11
7.1101e-11
6.96767e-11
6.82516e-11
6.68284e-11
6.54102e-11
6.40006e-11
6.26035e-11
6.12171e-11
7.25084e-11
7.1179e-11
6.97964e-11
6.83866e-11
6.69695e-11
6.55531e-11
6.41409e-11
6.27362e-11
6.13426e-11
5.99574e-11
7.1097e-11
6.97922e-11
6.8444e-11
6.70615e-11
6.56602e-11
6.42552e-11
6.28531e-11
6.14564e-11
6.00694e-11
5.86922e-11
6.96758e-11
6.83834e-11
6.70578e-11
6.57032e-11
6.4325e-11
6.29343e-11
6.15427e-11
6.01558e-11
5.87772e-11
5.74123e-11
6.82516e-11
6.69688e-11
6.56574e-11
6.43216e-11
6.29665e-11
6.15955e-11
6.0216e-11
5.88376e-11
5.74678e-11
5.6118e-11
6.68284e-11
6.55531e-11
6.42545e-11
6.29318e-11
6.15923e-11
6.02414e-11
5.88789e-11
5.75095e-11
5.61457e-11
5.48114e-11
6.54103e-11
6.41409e-11
6.28531e-11
6.15422e-11
6.02133e-11
5.88744e-11
5.75289e-11
5.61734e-11
5.48158e-11
5.34946e-11
6.40008e-11
6.27364e-11
6.14566e-11
6.0156e-11
5.88371e-11
5.75057e-11
5.61689e-11
5.48263e-11
5.34785e-11
5.21693e-11
6.26036e-11
6.13427e-11
6.00695e-11
5.87774e-11
5.74681e-11
5.61449e-11
5.4813e-11
5.34764e-11
5.2137e-11
5.08373e-11
6.12173e-11
5.99575e-11
5.86923e-11
5.74123e-11
5.6118e-11
5.48112e-11
5.3494e-11
5.21682e-11
5.08362e-11
4.95271e-11
7.34977e-11
7.21571e-11
7.07713e-11
6.93744e-11
6.79762e-11
6.65794e-11
6.51869e-11
6.3802e-11
6.2428e-11
6.10639e-11
7.21534e-11
7.0836e-11
6.94742e-11
6.80895e-11
6.66981e-11
6.53071e-11
6.39196e-11
6.25389e-11
6.11681e-11
5.98054e-11
7.0768e-11
6.94707e-11
6.81374e-11
6.67752e-11
6.53971e-11
6.40158e-11
6.2637e-11
6.12632e-11
5.98981e-11
5.85423e-11
6.93736e-11
6.80868e-11
6.67722e-11
6.54331e-11
6.40743e-11
6.27053e-11
6.13358e-11
5.99705e-11
5.86127e-11
5.72674e-11
6.79761e-11
6.66975e-11
6.53948e-11
6.40717e-11
6.27324e-11
6.13801e-11
6.00211e-11
5.86635e-11
5.73135e-11
5.59809e-11
6.65794e-11
6.53071e-11
6.40152e-11
6.27033e-11
6.13776e-11
6.00423e-11
5.8698e-11
5.73484e-11
5.6004e-11
5.46846e-11
6.51869e-11
6.39196e-11
6.2637e-11
6.13354e-11
6.00189e-11
5.86944e-11
5.73645e-11
5.6027e-11
5.46885e-11
5.33803e-11
6.3802e-11
6.2539e-11
6.12633e-11
5.99706e-11
5.86631e-11
5.73453e-11
5.60235e-11
5.46973e-11
5.33675e-11
5.20697e-11
6.24281e-11
6.11682e-11
5.98982e-11
5.86129e-11
5.73137e-11
5.60033e-11
5.46862e-11
5.33658e-11
5.20437e-11
5.07542e-11
6.1064e-11
5.98054e-11
5.85424e-11
5.72674e-11
5.59809e-11
5.46844e-11
5.33798e-11
5.20688e-11
5.07534e-11
4.94568e-11
7.3196e-11
7.18701e-11
7.05069e-11
6.91343e-11
6.77606e-11
6.63884e-11
6.50201e-11
6.36587e-11
6.2307e-11
6.09641e-11
7.18671e-11
7.05605e-11
6.92171e-11
6.78547e-11
6.64867e-11
6.51194e-11
6.37554e-11
6.23976e-11
6.10486e-11
5.97066e-11
7.05041e-11
6.92142e-11
6.78943e-11
6.65506e-11
6.51939e-11
6.38347e-11
6.24781e-11
6.11261e-11
5.97819e-11
5.84455e-11
6.91336e-11
6.78524e-11
6.65481e-11
6.52237e-11
6.38831e-11
6.25343e-11
6.11855e-11
5.98407e-11
5.85026e-11
5.71747e-11
6.77606e-11
6.64862e-11
6.5192e-11
6.38809e-11
6.25565e-11
6.12218e-11
5.98819e-11
5.85436e-11
5.7212e-11
5.58945e-11
6.63884e-11
6.51194e-11
6.38342e-11
6.25326e-11
6.12197e-11
5.98992e-11
5.85716e-11
5.724e-11
5.59131e-11
5.46062e-11
6.50201e-11
6.37554e-11
6.24781e-11
6.11851e-11
5.98801e-11
5.85686e-11
5.7253e-11
5.59315e-11
5.46092e-11
5.33113e-11
6.36588e-11
6.23977e-11
6.11262e-11
5.98408e-11
5.85432e-11
5.72375e-11
5.59285e-11
5.4616e-11
5.33006e-11
5.20106e-11
6.23071e-11
6.10486e-11
5.97819e-11
5.85027e-11
5.72122e-11
5.59126e-11
5.46074e-11
5.32992e-11
5.19892e-11
5.07046e-11
6.09642e-11
5.97067e-11
5.84456e-11
5.71747e-11
5.58945e-11
5.46062e-11
5.3311e-11
5.20099e-11
5.07039e-11
4.94114e-11
7.2957e-11
7.16435e-11
7.02991e-11
6.89473e-11
6.7595e-11
6.62443e-11
6.48975e-11
6.35569e-11
6.22249e-11
6.09005e-11
7.1641e-11
7.03436e-11
6.90159e-11
6.76726e-11
6.6325e-11
6.49785e-11
6.36354e-11
6.22979e-11
6.09681e-11
5.96439e-11
7.02968e-11
6.90134e-11
6.77054e-11
6.63778e-11
6.50396e-11
6.37e-11
6.23629e-11
6.10303e-11
5.97043e-11
5.83844e-11
6.89467e-11
6.76707e-11
6.63757e-11
6.50641e-11
6.37395e-11
6.24084e-11
6.10779e-11
5.9751e-11
5.84301e-11
5.71168e-11
6.75949e-11
6.63246e-11
6.5038e-11
6.37376e-11
6.24266e-11
6.11072e-11
5.97839e-11
5.84623e-11
5.71465e-11
5.58415e-11
6.62443e-11
6.49785e-11
6.36996e-11
6.2407e-11
6.11054e-11
5.97979e-11
5.84846e-11
5.71684e-11
5.58562e-11
5.45593e-11
6.48975e-11
6.36354e-11
6.2363e-11
6.10776e-11
5.97824e-11
5.84821e-11
5.71787e-11
5.58703e-11
5.45613e-11
5.32711e-11
6.3557e-11
6.2298e-11
6.10303e-11
5.97512e-11
5.8462e-11
5.71662e-11
5.58678e-11
5.45661e-11
5.32617e-11
5.1977e-11
6.2225e-11
6.09682e-11
5.97044e-11
5.84302e-11
5.71467e-11
5.58557e-11
5.45598e-11
5.32605e-11
5.19588e-11
5.0676e-11
6.09006e-11
5.9644e-11
5.83845e-11
5.71169e-11
5.58415e-11
5.45593e-11
5.32709e-11
5.19764e-11
5.06754e-11
4.93828e-11
7.27676e-11
7.14642e-11
7.01352e-11
6.88004e-11
6.74658e-11
6.6133e-11
6.48039e-11
6.34805e-11
6.21644e-11
6.08547e-11
7.14621e-11
7.01723e-11
6.88574e-11
6.75299e-11
6.61993e-11
6.48701e-11
6.35442e-11
6.22233e-11
6.0909e-11
5.95988e-11
7.01332e-11
6.88553e-11
6.75572e-11
6.62429e-11
6.49202e-11
6.35967e-11
6.22758e-11
6.09588e-11
5.96475e-11
5.83405e-11
6.88e-11
6.75283e-11
6.62411e-11
6.49404e-11
6.3629e-11
6.23125e-11
6.09969e-11
5.96846e-11
5.83773e-11
5.70754e-11
6.74658e-11
6.6199e-11
6.49189e-11
6.36274e-11
6.23273e-11
6.10205e-11
5.97107e-11
5.84025e-11
5.70992e-11
5.58037e-11
6.6133e-11
6.48701e-11
6.35963e-11
6.23113e-11
6.1019e-11
5.97219e-11
5.84203e-11
5.71161e-11
5.58153e-11
5.4526e-11
6.4804e-11
6.35442e-11
6.22758e-11
6.09967e-11
5.97094e-11
5.8418e-11
5.71242e-11
5.58261e-11
5.45272e-11
5.32427e-11
6.34806e-11
6.22234e-11
6.09589e-11
5.96847e-11
5.84022e-11
5.71141e-11
5.58239e-11
5.45304e-11
5.32342e-11
5.19533e-11
6.21645e-11
6.09091e-11
5.96476e-11
5.83774e-11
5.70994e-11
5.58148e-11
5.45259e-11
5.32332e-11
5.19375e-11
5.06557e-11
6.08547e-11
5.95989e-11
5.83406e-11
5.70755e-11
5.58038e-11
5.4526e-11
5.32426e-11
5.19528e-11
5.06552e-11
4.93623e-11
7.26141e-11
7.13188e-11
7.00021e-11
6.86811e-11
6.73605e-11
6.60419e-11
6.47266e-11
6.34162e-11
6.21119e-11
6.08127e-11
7.13169e-11
7.00333e-11
6.87288e-11
6.74139e-11
6.60968e-11
6.47812e-11
6.34685e-11
6.21603e-11
6.08574e-11
5.95574e-11
7.00004e-11
6.8727e-11
6.74367e-11
6.61331e-11
6.48226e-11
6.35117e-11
6.22032e-11
6.08981e-11
5.95977e-11
5.83e-11
6.86807e-11
6.74125e-11
6.61316e-11
6.48394e-11
6.35384e-11
6.22333e-11
6.09291e-11
5.96277e-11
5.83304e-11
5.70367e-11
6.73605e-11
6.60965e-11
6.48215e-11
6.3537e-11
6.22455e-11
6.09484e-11
5.96488e-11
5.83505e-11
5.70563e-11
5.57677e-11
6.60419e-11
6.47812e-11
6.35114e-11
6.22323e-11
6.09471e-11
5.9658e-11
5.8365e-11
5.70698e-11
5.57772e-11
5.44935e-11
6.47267e-11
6.34686e-11
6.22033e-11
6.09289e-11
5.96476e-11
5.8363e-11
5.70764e-11
5.57858e-11
5.44941e-11
5.3214e-11
6.34163e-11
6.21604e-11
6.08982e-11
5.96278e-11
5.83503e-11
5.7068e-11
5.57838e-11
5.44965e-11
5.32064e-11
5.19286e-11
6.2112e-11
6.08575e-11
5.95978e-11
5.83305e-11
5.70565e-11
5.57768e-11
5.44931e-11
5.32055e-11
5.19147e-11
5.06349e-11
6.08128e-11
5.95575e-11
5.83001e-11
5.70369e-11
5.57679e-11
5.44936e-11
5.3214e-11
5.19282e-11
5.06343e-11
4.93435e-11
7.2485e-11
7.11963e-11
6.98896e-11
6.85795e-11
6.72699e-11
6.59621e-11
6.46571e-11
6.33561e-11
6.20601e-11
6.07681e-11
7.11947e-11
6.9916e-11
6.86197e-11
6.73148e-11
6.60082e-11
6.47029e-11
6.34001e-11
6.21009e-11
6.08061e-11
5.95132e-11
6.98882e-11
6.86182e-11
6.73341e-11
6.60388e-11
6.47377e-11
6.34363e-11
6.2137e-11
6.08404e-11
5.95475e-11
5.82565e-11
6.85791e-11
6.73137e-11
6.60375e-11
6.47519e-11
6.34588e-11
6.21622e-11
6.08663e-11
5.95728e-11
5.82824e-11
5.69947e-11
6.72699e-11
6.6008e-11
6.47367e-11
6.34576e-11
6.21725e-11
6.08826e-11
5.95904e-11
5.82993e-11
5.70114e-11
5.57279e-11
6.59621e-11
6.47029e-11
6.34361e-11
6.21614e-11
6.08814e-11
5.95982e-11
5.83115e-11
5.70226e-11
5.57359e-11
5.44563e-11
6.46572e-11
6.34002e-11
6.21371e-11
6.08662e-11
5.95894e-11
5.83097e-11
5.70283e-11
5.57432e-11
5.44569e-11
5.31802e-11
6.33562e-11
6.2101e-11
6.08405e-11
5.95729e-11
5.82991e-11
5.70211e-11
5.57414e-11
5.44589e-11
5.31735e-11
5.18987e-11
6.20602e-11
6.08062e-11
5.95477e-11
5.82825e-11
5.70115e-11
5.57356e-11
5.44559e-11
5.31728e-11
5.18866e-11
5.06099e-11
6.07683e-11
5.95133e-11
5.82567e-11
5.69948e-11
5.5728e-11
5.44565e-11
5.31802e-11
5.18984e-11
5.06094e-11
4.93232e-11
7.2373e-11
7.10897e-11
6.97912e-11
6.84898e-11
6.71888e-11
6.58893e-11
6.4592e-11
6.32979e-11
6.20078e-11
6.07208e-11
7.10884e-11
6.98136e-11
6.8524e-11
6.7227e-11
6.59285e-11
6.46311e-11
6.33357e-11
6.20431e-11
6.07539e-11
5.94663e-11
6.979e-11
6.85227e-11
6.72434e-11
6.59546e-11
6.46608e-11
6.33666e-11
6.20741e-11
6.07837e-11
5.94962e-11
5.82101e-11
6.84895e-11
6.7226e-11
6.59534e-11
6.46729e-11
6.33858e-11
6.20957e-11
6.0806e-11
5.95181e-11
5.82327e-11
5.69495e-11
6.71888e-11
6.59283e-11
6.46599e-11
6.33848e-11
6.21045e-11
6.082e-11
5.95334e-11
5.82475e-11
5.69641e-11
5.56845e-11
6.58893e-11
6.46311e-11
6.33665e-11
6.2095e-11
6.0819e-11
5.95401e-11
5.82581e-11
5.69741e-11
5.56916e-11
5.44155e-11
6.45921e-11
6.33357e-11
6.20742e-11
6.08059e-11
5.95326e-11
5.82566e-11
5.6979e-11
5.56981e-11
5.44161e-11
5.31425e-11
6.3298e-11
6.20432e-11
6.07838e-11
5.95182e-11
5.82473e-11
5.69727e-11
5.56966e-11
5.4418e-11
5.31369e-11
5.18651e-11
6.2008e-11
6.07541e-11
5.94963e-11
5.82329e-11
5.69643e-11
5.56913e-11
5.44153e-11
5.31363e-11
5.18547e-11
5.05819e-11
6.0721e-11
5.94664e-11
5.82103e-11
5.69497e-11
5.56847e-11
5.44156e-11
5.31425e-11
5.18649e-11
5.05815e-11
4.93014e-11
7.22741e-11
7.09954e-11
6.97036e-11
6.84094e-11
6.71155e-11
6.58225e-11
6.45314e-11
6.32427e-11
6.19573e-11
6.06743e-11
7.09942e-11
6.97228e-11
6.84386e-11
6.71481e-11
6.58562e-11
6.45651e-11
6.32755e-11
6.19881e-11
6.07034e-11
5.942e-11
6.97026e-11
6.84375e-11
6.71621e-11
6.58785e-11
6.45906e-11
6.33022e-11
6.20151e-11
6.07295e-11
5.94463e-11
5.81644e-11
6.84092e-11
6.71473e-11
6.58776e-11
6.4601e-11
6.33188e-11
6.20338e-11
6.07491e-11
5.94656e-11
5.81842e-11
5.69049e-11
6.71155e-11
6.58561e-11
6.45899e-11
6.33179e-11
6.20414e-11
6.07612e-11
5.94791e-11
5.81974e-11
5.69178e-11
5.56417e-11
6.58226e-11