/*--------------------------------*- C++ -*----------------------------------*\
| =========                 |                                                 |
| \\      /  F ield         | foam-extend: Open Source CFD                    |
|  \\    /   O peration     | Version:     3.1                                |
|   \\  /    A nd           | Web:         http://www.extend-project.de       |
|    \\/     M anipulation  |                                                 |
\*---------------------------------------------------------------------------*/
FoamFile
{
    version     2.0;
    format      ascii;
    class       volVectorField;
    location    "2.3";
    object      cellMotionU;
}
// * * * * * * * * * * * * * * * * * * * * * * * * * * * * * * * * * * * * * //

dimensions      [0 1 -1 0 0 0 0];

internalField   nonuniform List<vector> 
14592
(
(-1.63997e-11 -2.24566e-11 -4.0576e-12)
(-4.65913e-11 -6.55081e-11 -1.2027e-11)
(-7.13018e-11 -1.05969e-10 -2.0087e-11)
(-8.96273e-11 -1.45609e-10 -2.89364e-11)
(-1.00174e-10 -1.85798e-10 -3.92794e-11)
(-1.00725e-10 -2.27474e-10 -5.18957e-11)
(-8.78124e-11 -2.7101e-10 -6.77088e-11)
(-5.61501e-11 -3.15983e-10 -8.78692e-11)
(2.10164e-12 -3.60592e-10 -1.1384e-10)
(9.81842e-11 -4.00782e-10 -1.47496e-10)
(2.47411e-10 -4.28666e-10 -1.91211e-10)
(4.6888e-10 -4.30018e-10 -2.47808e-10)
(7.82336e-10 -3.80662e-10 -3.20125e-10)
(1.19815e-09 -2.42159e-10 -4.09151e-10)
(1.69031e-09 3.51023e-11 -5.07578e-10)
(2.11717e-09 4.29661e-10 -5.80553e-10)
(-4.95097e-11 -6.64604e-11 -1.19893e-11)
(-1.40794e-10 -1.93907e-10 -3.55323e-11)
(-2.15933e-10 -3.13733e-10 -5.93204e-11)
(-2.72482e-10 -4.31236e-10 -8.53995e-11)
(-3.0662e-10 -5.5054e-10 -1.15825e-10)
(-3.1222e-10 -6.74542e-10 -1.5286e-10)
(-2.79685e-10 -8.04663e-10 -1.99183e-10)
(-1.94371e-10 -9.40174e-10 -2.58124e-10)
(-3.45401e-11 -1.07681e-09 -3.33914e-10)
(2.31062e-10 -1.20459e-09 -4.32034e-10)
(6.45272e-10 -1.30384e-09 -5.595e-10)
(1.26213e-09 -1.33967e-09 -7.25117e-10)
(2.13871e-09 -1.25488e-09 -9.39194e-10)
(3.30689e-09 -9.66548e-10 -1.21157e-09)
(4.69416e-09 -3.90768e-10 -1.5418e-09)
(5.88973e-09 3.64382e-10 -1.86022e-09)
(-8.36713e-11 -1.0809e-10 -1.94477e-11)
(-2.38339e-10 -3.15389e-10 -5.76082e-11)
(-3.66917e-10 -5.10418e-10 -9.60835e-11)
(-4.66178e-10 -7.01922e-10 -1.38131e-10)
(-5.30864e-10 -8.96827e-10 -1.87e-10)
(-5.52384e-10 -1.10027e-09 -2.46243e-10)
(-5.17177e-10 -1.31543e-09 -3.20043e-10)
(-4.04532e-10 -1.54259e-09 -4.13546e-10)
(-1.83673e-10 -1.77789e-09 -5.33326e-10)
(1.89757e-10 -2.01038e-09 -6.87868e-10)
(7.77095e-10 -2.21806e-09 -8.88254e-10)
(1.65725e-09 -2.36194e-09 -1.14892e-09)
(2.91733e-09 -2.38093e-09 -1.48861e-09)
(4.61496e-09 -2.19608e-09 -1.93108e-09)
(6.66256e-09 -1.75444e-09 -2.49755e-09)
(8.46333e-09 -1.20911e-09 -3.10379e-09)
(-1.19279e-10 -1.45841e-10 -2.61691e-11)
(-3.40516e-10 -4.25607e-10 -7.74644e-11)
(-5.26771e-10 -6.89027e-10 -1.29019e-10)
(-6.751e-10 -9.4812e-10 -1.85094e-10)
(-7.80197e-10 -1.2126e-09 -2.499e-10)
(-8.32997e-10 -1.49015e-09 -3.2799e-10)
(-8.1898e-10 -1.78634e-09 -4.24653e-10)
(-7.15908e-10 -2.10418e-09 -5.46351e-10)
(-4.90796e-10 -2.44305e-09 -7.01253e-10)
(-9.61146e-11 -2.79676e-09 -8.99893e-10)
(5.34319e-10 -3.15047e-09 -1.15604e-09)
(1.48767e-09 -3.47678e-09 -1.48784e-09)
(2.86603e-09 -3.73261e-09 -1.91935e-09)
(4.75221e-09 -3.86441e-09 -2.48187e-09)
(7.0848e-09 -3.841e-09 -3.20367e-09)
(9.21388e-09 -3.73762e-09 -3.97493e-09)
(-1.56353e-10 -1.78335e-10 -3.1954e-11)
(-4.47438e-10 -5.20546e-10 -9.45052e-11)
(-6.95856e-10 -8.43033e-10 -1.57112e-10)
(-9.00086e-10 -1.16078e-09 -2.24786e-10)
(-1.05624e-09 -1.48613e-09 -3.02415e-10)
(-1.15684e-09 -1.82937e-09 -3.95204e-10)
(-1.18949e-09 -2.19882e-09 -5.09079e-10)
(-1.13509e-09 -2.60123e-09 -6.51197e-10)
(-9.65546e-10 -3.04116e-09 -8.30433e-10)
(-6.40813e-10 -3.5208e-09 -1.05813e-09)
(-1.05491e-10 -4.03878e-09 -1.34894e-09)
(7.14319e-10 -4.58891e-09 -1.72199e-09)
(1.91026e-09 -5.1583e-09 -2.20208e-09)
(3.57258e-09 -5.72645e-09 -2.81989e-09)
(5.69205e-09 -6.26645e-09 -3.59833e-09)
(7.72657e-09 -6.7076e-09 -4.41169e-09)
(-1.94491e-10 -2.04356e-10 -3.66758e-11)
(-5.5792e-10 -5.96613e-10 -1.08354e-10)
(-8.7217e-10 -9.66584e-10 -1.79735e-10)
(-1.13814e-09 -1.33169e-09 -2.56306e-10)
(-1.35456e-09 -1.70655e-09 -3.43331e-10)
(-1.51725e-09 -2.10364e-09 -4.46288e-10)
(-1.61834e-09 -2.53405e-09 -5.71292e-10)
(-1.64545e-09 -3.00791e-09 -7.25505e-10)
(-1.58079e-09 -3.53535e-09 -9.17655e-10)
(-1.40021e-09 -4.12715e-09 -1.15861e-09)
(-1.07228e-09 -4.79641e-09 -1.46214e-09)
(-5.57289e-10 -5.56021e-09 -1.84585e-09)
(1.9378e-10 -6.44044e-09 -2.33193e-09)
(1.23785e-09 -7.45796e-09 -2.94605e-09)
(2.60594e-09 -8.59626e-09 -3.7015e-09)
(4.03451e-09 -9.61666e-09 -4.46814e-09)
(-2.32917e-10 -2.2289e-10 -4.02846e-11)
(-6.69624e-10 -6.50864e-10 -1.18869e-10)
(-1.05164e-09 -1.05483e-09 -1.96672e-10)
(-1.38296e-09 -1.45399e-09 -2.79381e-10)
(-1.66571e-09 -1.86462e-09 -3.72355e-10)
(-1.89989e-09 -2.30076e-09 -4.81004e-10)
(-2.08341e-09 -2.77535e-09 -6.11181e-10)
(-2.21223e-09 -3.30102e-09 -7.69513e-10)
(-2.28111e-09 -3.89138e-09 -9.63773e-10)
(-2.28498e-09 -4.56298e-09 -1.20329e-09)
(-2.22169e-09 -5.3384e-09 -1.49951e-09)
(-2.09632e-09 -6.25099e-09 -1.86663e-09)
(-1.92631e-09 -7.35143e-09 -2.32253e-09)
(-1.74189e-09 -8.7101e-09 -2.88844e-09)
(-1.56248e-09 -1.03729e-08 -3.57509e-09)
(-1.33677e-09 -1.20205e-08 -4.26167e-09)
(-2.70581e-10 -2.33196e-10 -4.28027e-11)
(-7.79379e-10 -6.81134e-10 -1.26131e-10)
(-1.22877e-09 -1.10422e-09 -2.08087e-10)
(-1.62607e-09 -1.5227e-09 -2.94332e-10)
(-1.97699e-09 -1.95363e-09 -3.90049e-10)
(-2.28585e-09 -2.41187e-09 -5.00316e-10)
(-2.55618e-09 -2.91098e-09 -6.30378e-10)
(-2.79174e-09 -3.46424e-09 -7.85893e-10)
(-2.99834e-09 -4.08585e-09 -9.73124e-10)
(-3.18689e-09 -4.79281e-09 -1.19911e-09)
(-3.37859e-09 -5.60773e-09 -1.47182e-09)
(-3.61335e-09 -6.56373e-09 -1.80047e-09)
(-3.96314e-09 -7.71337e-09 -2.19647e-09)
(-4.55063e-09 -9.14682e-09 -2.67653e-09)
(-5.55292e-09 -1.1009e-08 -3.26595e-09)
(-6.97698e-09 -1.32208e-08 -3.92133e-09)
(-1.7293e-11 -2.33269e-11 -3.88617e-12)
(-4.91943e-11 -6.80667e-11 -1.15181e-11)
(-7.55083e-11 -1.1017e-10 -1.92344e-11)
(-9.5403e-11 -1.51521e-10 -2.77043e-11)
(-1.07535e-10 -1.93567e-10 -3.76013e-11)
(-1.09712e-10 -2.37288e-10 -4.96665e-11)
(-9.84644e-11 -2.83069e-10 -6.47745e-11)
(-6.84763e-11 -3.30374e-10 -8.4e-11)
(-1.18757e-11 -3.77177e-10 -1.0869e-10)
(8.25167e-11 -4.18889e-10 -1.40529e-10)
(2.29601e-10 -4.46604e-10 -1.81551e-10)
(4.47021e-10 -4.44327e-10 -2.33972e-10)
(7.50458e-10 -3.85133e-10 -2.99423e-10)
(1.14049e-09 -2.27998e-10 -3.7639e-10)
(1.57285e-09 7.24983e-11 -4.53202e-10)
(1.90311e-09 4.71538e-10 -4.97273e-10)
(-5.21883e-11 -6.90398e-11 -1.1483e-11)
(-1.48603e-10 -2.01476e-10 -3.40278e-11)
(-2.28568e-10 -3.26183e-10 -5.68017e-11)
(-2.89865e-10 -4.48769e-10 -8.17631e-11)
(-3.28838e-10 -5.73599e-10 -1.10876e-10)
(-3.39466e-10 -7.03744e-10 -1.46296e-10)
(-3.12182e-10 -8.40647e-10 -1.90559e-10)
(-2.32316e-10 -9.83358e-10 -2.46776e-10)
(-7.81242e-11 -1.12706e-09 -3.18856e-10)
(1.81374e-10 -1.26042e-09 -4.11709e-10)
(5.87709e-10 -1.3613e-09 -5.31379e-10)
(1.19063e-09 -1.39043e-09 -6.84793e-10)
(2.03529e-09 -1.2841e-09 -8.78234e-10)
(3.1246e-09 -9.53338e-10 -1.11179e-09)
(4.33067e-09 -3.22341e-10 -1.36211e-09)
(5.23157e-09 4.57465e-10 -1.54228e-09)
(-8.81398e-11 -1.12283e-10 -1.86257e-11)
(-2.5138e-10 -3.27722e-10 -5.5168e-11)
(-3.88058e-10 -5.3071e-10 -9.20022e-11)
(-4.95357e-10 -7.30526e-10 -1.32247e-10)
(-5.68351e-10 -9.34528e-10 -1.7901e-10)
(-5.98697e-10 -1.14819e-09 -2.35677e-10)
(-5.73018e-10 -1.37476e-09 -3.06203e-10)
(-4.70746e-10 -1.61449e-09 -3.95424e-10)
(-2.61355e-10 -1.86281e-09 -5.09393e-10)
(9.87662e-11 -2.10744e-09 -6.55761e-10)
(6.68592e-10 -2.3235e-09 -8.44075e-10)
(1.5202e-09 -2.46713e-09 -1.08576e-09)
(2.72246e-09 -2.46975e-09 -1.39268e-09)
(4.28865e-09 -2.24433e-09 -1.77061e-09)
(6.04516e-09 -1.73894e-09 -2.19487e-09)
(7.37427e-09 -1.1342e-09 -2.53443e-09)
(-1.25533e-10 -1.51508e-10 -2.50619e-11)
(-3.58787e-10 -4.42273e-10 -7.418e-11)
(-5.56463e-10 -7.16466e-10 -1.23533e-10)
(-7.1625e-10 -9.86853e-10 -1.77203e-10)
(-8.33393e-10 -1.26379e-09 -2.39219e-10)
(-8.9932e-10 -1.55545e-09 -3.1392e-10)
(-8.99987e-10 -1.86777e-09 -4.06323e-10)
(-8.13691e-10 -2.20386e-09 -5.22498e-10)
(-6.08259e-10 -2.56289e-09 -6.70007e-10)
(-2.37749e-10 -2.93777e-09 -8.58366e-10)
(3.6039e-10 -3.31178e-09 -1.09952e-09)
(1.26449e-09 -3.65375e-09 -1.40793e-09)
(2.55495e-09 -3.91389e-09 -1.79908e-09)
(4.2634e-09 -4.02713e-09 -2.2815e-09)
(6.22877e-09 -3.94378e-09 -2.82533e-09)
(7.77566e-09 -3.73069e-09 -3.26254e-09)
(-1.64364e-10 -1.85272e-10 -3.06004e-11)
(-4.70871e-10 -5.40945e-10 -9.04924e-11)
(-7.34034e-10 -8.76658e-10 -1.50423e-10)
(-9.53221e-10 -1.20833e-09 -2.15193e-10)
(-1.12536e-09 -1.54914e-09 -2.89482e-10)
(-1.2438e-09 -1.91004e-09 -3.78253e-10)
(-1.29704e-09 -2.30007e-09 -4.87149e-10)
(-1.2671e-09 -2.72637e-09 -6.22896e-10)
(-1.12754e-09 -3.19399e-09 -7.93761e-10)
(-8.41098e-10 -3.70522e-09 -1.01005e-09)
(-3.5757e-10 -4.25841e-09 -1.28458e-09)
(3.8649e-10 -4.84591e-09 -1.63279e-09)
(1.46044e-09 -5.4498e-09 -2.0708e-09)
(2.90619e-09 -6.03323e-09 -2.60592e-09)
(4.62342e-09 -6.52289e-09 -3.2007e-09)
(6.04999e-09 -6.79061e-09 -3.66822e-09)
(-2.04196e-10 -2.12306e-10 -3.51196e-11)
(-5.8634e-10 -6.20024e-10 -1.03747e-10)
(-9.18578e-10 -1.00519e-09 -1.72073e-10)
(-1.20296e-09 -1.38637e-09 -2.45356e-10)
(-1.43936e-09 -1.77915e-09 -3.28638e-10)
(-1.62474e-09 -2.19694e-09 -4.27157e-10)
(-1.75263e-09 -2.65165e-09 -5.46731e-10)
(-1.81245e-09 -3.15445e-09 -6.94145e-10)
(-1.78907e-09 -3.7164e-09 -8.77553e-10)
(-1.66248e-09 -4.34959e-09 -1.10693e-09)
(-1.40822e-09 -5.06861e-09 -1.39449e-09)
(-9.98691e-10 -5.89178e-09 -1.75474e-09)
(-4.0644e-10 -6.8387e-09 -2.20246e-09)
(3.86868e-10 -7.91069e-09 -2.74272e-09)
(1.35141e-09 -9.01696e-09 -3.33355e-09)
(2.22902e-09 -9.80433e-09 -3.78508e-09)
(-2.44209e-10 -2.31569e-10 -3.85728e-11)
(-7.02719e-10 -6.76427e-10 -1.13808e-10)
(-1.10578e-09 -1.09702e-09 -1.88276e-10)
(-1.45879e-09 -1.51382e-09 -2.67434e-10)
(-1.76528e-09 -1.94415e-09 -3.56408e-10)
(-2.02678e-09 -2.40319e-09 -4.6039e-10)
(-2.24301e-09 -2.90492e-09 -5.84965e-10)
(-2.41238e-09 -3.46319e-09 -7.36434e-10)
(-2.53314e-09 -4.09312e-09 -9.2212e-10)
(-2.60563e-09 -4.81327e-09 -1.15069e-09)
(-2.63624e-09 -5.64902e-09 -1.43245e-09)
(-2.64373e-09 -6.63724e-09 -1.77951e-09)
(-2.6668e-09 -7.82962e-09 -2.20448e-09)
(-2.76448e-09 -9.27882e-09 -2.71297e-09)
(-2.97681e-09 -1.0941e-08 -3.27042e-09)
(-3.18807e-09 -1.23217e-08 -3.69998e-09)
(-2.83306e-10 -2.42288e-10 -4.0982e-11)
(-8.16695e-10 -7.07894e-10 -1.20752e-10)
(-1.28987e-09 -1.14843e-09 -1.99194e-10)
(-1.71178e-09 -1.58541e-09 -2.81728e-10)
(-2.08978e-09 -2.03712e-09 -3.73336e-10)
(-2.42996e-09 -2.51949e-09 -4.7888e-10)
(-2.738e-09 -3.04731e-09 -6.03393e-10)
(-3.02049e-09 -3.63515e-09 -7.52287e-10)
(-3.28728e-09 -4.29886e-09 -9.31512e-10)
(-3.55525e-09 -5.05757e-09 -1.14768e-09)
(-3.85474e-09 -5.93695e-09 -1.40814e-09)
(-4.2397e-09 -6.97399e-09 -1.72097e-09)
(-4.80248e-09 -8.22373e-09 -2.09462e-09)
(-5.68922e-09 -9.7637e-09 -2.53593e-09)
(-7.07525e-09 -1.16585e-08 -3.03689e-09)
(-8.84685e-09 -1.36238e-08 -3.49646e-09)
(-1.81764e-11 -2.41049e-11 -3.56806e-12)
(-5.17816e-11 -7.03502e-11 -1.05733e-11)
(-7.97335e-11 -1.13917e-10 -1.76513e-11)
(-1.01298e-10 -1.56769e-10 -2.54112e-11)
(-1.15224e-10 -2.00416e-10 -3.44609e-11)
(-1.19412e-10 -2.45871e-10 -4.54595e-11)
(-1.10499e-10 -2.93491e-10 -5.91644e-11)
(-8.33211e-11 -3.42664e-10 -7.64714e-11)
(-3.02712e-11 -3.91162e-10 -9.84366e-11)
(5.93117e-11 -4.3406e-10 -1.2625e-10)
(1.99249e-10 -4.61962e-10 -1.61099e-10)
(4.05015e-10 -4.58389e-10 -2.0376e-10)
(6.88314e-10 -3.96676e-10 -2.53573e-10)
(1.04406e-09 -2.38967e-10 -3.06261e-10)
(1.42584e-09 5.00411e-11 -3.5053e-10)
(1.71005e-09 4.13958e-10 -3.69148e-10)
(-5.48326e-11 -7.13416e-11 -1.05428e-11)
(-1.56353e-10 -2.08245e-10 -3.12369e-11)
(-2.41232e-10 -3.37283e-10 -5.21271e-11)
(-3.07555e-10 -4.64329e-10 -7.4997e-11)
(-3.51953e-10 -5.93935e-10 -1.0162e-10)
(-3.68693e-10 -7.2926e-10 -1.33914e-10)
(-3.48551e-10 -8.71719e-10 -1.74076e-10)
(-2.77345e-10 -1.02015e-09 -2.24703e-10)
(-1.34142e-10 -1.16923e-09 -2.88858e-10)
(1.10462e-10 -1.30671e-09 -3.70022e-10)
(4.94819e-10 -1.40914e-09 -4.71741e-10)
(1.0623e-09 -1.4358e-09 -5.96559e-10)
(1.84634e-09 -1.32318e-09 -7.43334e-10)
(2.83275e-09 -9.8884e-10 -9.0135e-10)
(3.88572e-09 -3.78219e-10 -1.0404e-09)
(4.64327e-09 3.34438e-10 -1.10859e-09)
(-9.25386e-11 -1.16037e-10 -1.71009e-11)
(-2.64276e-10 -3.38738e-10 -5.06437e-11)
(-4.09158e-10 -5.48794e-10 -8.44325e-11)
(-5.24893e-10 -7.55908e-10 -1.21309e-10)
(-6.07055e-10 -9.67756e-10 -1.6408e-10)
(-6.47832e-10 -1.18999e-09 -2.1576e-10)
(-6.3448e-10 -1.42591e-09 -2.79782e-10)
(-5.47315e-10 -1.67548e-09 -3.60185e-10)
(-3.57257e-10 -1.93353e-09 -4.61727e-10)
(-2.33285e-11 -2.18655e-09 -5.89834e-10)
(5.08328e-10 -2.40781e-09 -7.50137e-10)
(1.29982e-09 -2.55109e-09 -9.46996e-10)
(2.40178e-09 -2.54646e-09 -1.17972e-09)
(3.80058e-09 -2.3109e-09 -1.43397e-09)
(5.30843e-09 -1.8096e-09 -1.66595e-09)
(6.39926e-09 -1.24572e-09 -1.79201e-09)
(-1.31663e-10 -1.56572e-10 -2.301e-11)
(-3.76772e-10 -4.57155e-10 -6.80964e-11)
(-5.85936e-10 -7.40913e-10 -1.13371e-10)
(-7.57607e-10 -1.02121e-09 -1.62554e-10)
(-8.87781e-10 -1.30887e-09 -2.19288e-10)
(-9.687e-10 -1.61237e-09 -2.87442e-10)
(-9.87307e-10 -1.93776e-09 -3.71378e-10)
(-9.23276e-10 -2.28803e-09 -4.76179e-10)
(-7.46577e-10 -2.66175e-09 -6.07802e-10)
(-4.14953e-10 -3.05067e-09 -7.73021e-10)
(1.27426e-10 -3.43593e-09 -9.7891e-10)
(9.46411e-10 -3.7831e-09 -1.23109e-09)
(2.10028e-09 -4.03805e-09 -1.52912e-09)
(3.58822e-09 -4.13222e-09 -1.85566e-09)
(5.23155e-09 -4.01987e-09 -2.15601e-09)
(6.46615e-09 -3.79188e-09 -2.32291e-09)
(-1.72179e-10 -1.91468e-10 -2.80946e-11)
(-4.93818e-10 -5.5917e-10 -8.30713e-11)
(-7.71693e-10 -9.06613e-10 -1.38051e-10)
(-1.00619e-09 -1.25048e-09 -1.97414e-10)
(-1.19527e-09 -1.60456e-09 -2.65394e-10)
(-1.33339e-09 -1.98027e-09 -3.46426e-10)
(-1.41045e-09 -2.38687e-09 -4.45426e-10)
(-1.41039e-09 -2.83159e-09 -5.68048e-10)
(-1.30964e-09 -3.31909e-09 -7.20827e-10)
(-1.07558e-09 -3.85067e-09 -9.11131e-10)
(-6.65912e-10 -4.42262e-09 -1.1466e-09)
(-3.08515e-11 -5.0231e-09 -1.43324e-09)
(8.76161e-10 -5.62629e-09 -1.77033e-09)
(2.06518e-09 -6.18179e-09 -2.13806e-09)
(3.42028e-09 -6.60303e-09 -2.47426e-09)
(4.49643e-09 -6.78966e-09 -2.65952e-09)
(-2.13616e-10 -2.19416e-10 -3.22438e-11)
(-6.14016e-10 -6.40925e-10 -9.52389e-11)
(-9.64055e-10 -1.03959e-09 -1.57924e-10)
(-1.26706e-09 -1.43483e-09 -2.25098e-10)
(-1.52418e-09 -1.84298e-09 -3.01333e-10)
(-1.73384e-09 -2.27803e-09 -3.91314e-10)
(-1.89133e-09 -2.75235e-09 -5.00133e-10)
(-1.98853e-09 -3.27727e-09 -6.33511e-10)
(-2.01382e-09 -3.86378e-09 -7.97926e-10)
(-1.95263e-09 -4.52325e-09 -1.00054e-09)
(-1.78909e-09 -5.26835e-09 -1.24867e-09)
(-1.50929e-09 -6.11272e-09 -1.54798e-09)
(-1.10643e-09 -7.0649e-09 -1.89756e-09)
(-5.87706e-10 -8.10329e-09 -2.27747e-09)
(1.05658e-11 -9.10656e-09 -2.62413e-09)
(5.41609e-10 -9.75144e-09 -2.81381e-09)
(-2.55113e-10 -2.39326e-10 -3.54139e-11)
(-7.34773e-10 -6.99246e-10 -1.04475e-10)
(-1.15849e-09 -1.13459e-09 -1.728e-10)
(-1.53317e-09 -1.5668e-09 -2.4537e-10)
(-1.86387e-09 -2.01406e-09 -3.26847e-10)
(-2.15383e-09 -2.49219e-09 -4.21879e-10)
(-2.40488e-09 -3.01575e-09 -5.35376e-10)
(-2.61826e-09 -3.59892e-09 -6.72677e-10)
(-2.79622e-09 -4.2569e-09 -8.39625e-10)
(-2.94493e-09 -5.00775e-09 -1.04245e-09)
(-3.07954e-09 -5.87511e-09 -1.28732e-09)
(-3.23159e-09 -6.89096e-09 -1.57889e-09)
(-3.45681e-09 -8.09443e-09 -1.91666e-09)
(-3.83043e-09 -9.50979e-09 -2.28525e-09)
(-4.38424e-09 -1.10498e-08 -2.63168e-09)
(-4.89826e-09 -1.22457e-08 -2.83638e-09)
(-2.95535e-10 -2.50402e-10 -3.76252e-11)
(-8.52653e-10 -7.31792e-10 -1.10851e-10)
(-1.34901e-09 -1.18778e-09 -1.82826e-10)
(-1.79527e-09 -1.64098e-09 -2.58508e-10)
(-2.20046e-09 -2.11048e-09 -3.42423e-10)
(-2.57259e-09 -2.61302e-09 -4.38952e-10)
(-2.91965e-09 -3.16393e-09 -5.5253e-10)
(-3.25124e-09 -3.77823e-09 -6.87764e-10)
(-3.58131e-09 -4.47186e-09 -8.49414e-10)
(-3.93255e-09 -5.2635e-09 -1.0422e-09)
(-4.34343e-09 -6.17703e-09 -1.27031e-09)
(-4.87889e-09 -7.2446e-09 -1.53632e-09)
(-5.64415e-09 -8.5089e-09 -1.83907e-09)
(-6.79358e-09 -1.00194e-08 -2.16947e-09)
(-8.48443e-09 -1.17949e-08 -2.50234e-09)
(-1.05085e-08 -1.35628e-08 -2.76993e-09)
(-1.90067e-11 -2.47739e-11 -3.1162e-12)
(-5.42228e-11 -7.23127e-11 -9.23241e-12)
(-8.37489e-11 -1.17122e-10 -1.54054e-11)
(-1.06965e-10 -1.61237e-10 -2.21598e-11)
(-1.22732e-10 -2.06205e-10 -3.00115e-11)
(-1.29079e-10 -2.53047e-10 -3.95055e-11)
(-1.22803e-10 -3.021e-10 -5.12421e-11)
(-9.89689e-11 -3.52665e-10 -6.58841e-11)
(-5.03187e-11 -4.02377e-10 -8.41237e-11)
(3.32383e-11 -4.46124e-10 -1.06575e-10)
(1.64605e-10 -4.74379e-10 -1.33518e-10)
(3.57883e-10 -4.70888e-10 -1.64396e-10)
(6.23219e-10 -4.1029e-10 -1.96931e-10)
(9.55296e-10 -2.58348e-10 -2.26037e-10)
(1.31275e-09 1.40117e-11 -2.43865e-10)
(1.58549e-09 3.50624e-10 -2.45871e-10)
(-5.73147e-11 -7.33235e-11 -9.20785e-12)
(-1.6365e-10 -2.14048e-10 -2.72755e-11)
(-2.53244e-10 -3.46777e-10 -4.54953e-11)
(-3.2452e-10 -4.77569e-10 -6.54034e-11)
(-3.74452e-10 -6.11099e-10 -8.85055e-11)
(-3.97695e-10 -7.50575e-10 -1.16387e-10)
(-3.85517e-10 -8.97336e-10 -1.50793e-10)
(-3.2442e-10 -1.05e-09 -1.93644e-10)
(-1.94527e-10 -1.20283e-09 -2.46953e-10)
(3.18843e-11 -1.34304e-09 -3.1252e-10)
(3.90444e-10 -1.44669e-09 -3.91218e-10)
(9.20464e-10 -1.47338e-09 -4.81555e-10)
(1.65063e-09 -1.36245e-09 -5.7715e-10)
(2.56554e-09 -1.03976e-09 -6.63417e-10)
(3.54341e-09 -4.64816e-10 -7.16923e-10)
(4.26278e-09 1.89435e-10 -7.21402e-10)
(-9.66553e-11 -1.19256e-10 -1.49358e-11)
(-2.76388e-10 -3.48189e-10 -4.42223e-11)
(-4.29107e-10 -5.64256e-10 -7.36942e-11)
(-5.53097e-10 -7.77487e-10 -1.05799e-10)
(-6.44518e-10 -9.95773e-10 -1.42923e-10)
(-6.96218e-10 -1.22486e-09 -1.87561e-10)
(-6.96287e-10 -1.46794e-09 -2.42443e-10)
(-6.26209e-10 -1.72469e-09 -3.10561e-10)
(-4.58634e-10 -1.98929e-09 -3.95046e-10)
(-1.55327e-10 -2.24733e-09 -4.98709e-10)
(3.33253e-10 -2.47103e-09 -6.22974e-10)
(1.06279e-09 -2.61375e-09 -7.65689e-10)
(2.07628e-09 -2.60765e-09 -9.17261e-10)
(3.35746e-09 -2.37753e-09 -1.05534e-09)
(4.739e-09 -1.90313e-09 -1.14297e-09)
(5.75916e-09 -1.38909e-09 -1.15166e-09)
(-1.37382e-10 -1.60922e-10 -2.00973e-11)
(-3.93602e-10 -4.69919e-10 -5.94646e-11)
(-6.13678e-10 -7.61807e-10 -9.89584e-11)
(-7.96882e-10 -1.0504e-09 -1.41786e-10)
(-9.40043e-10 -1.34684e-09 -1.91046e-10)
(-1.03635e-09 -1.65974e-09 -2.4995e-10)
(-1.07394e-09 -1.9951e-09 -3.21968e-10)
(-1.03413e-09 -2.35553e-09 -4.10883e-10)
(-8.89262e-10 -2.73882e-09 -5.20618e-10)
(-6.00717e-10 -3.13544e-09 -6.54692e-10)
(-1.18213e-10 -3.52468e-09 -8.14904e-10)
(6.16067e-10 -3.87013e-09 -9.9864e-10)
(1.65093e-09 -4.11676e-09 -1.194e-09)
(2.98191e-09 -4.19923e-09 -1.37294e-09)
(4.45438e-09 -4.08313e-09 -1.48856e-09)
(5.58495e-09 -3.87153e-09 -1.5038e-09)
(-1.79441e-10 -1.96793e-10 -2.45392e-11)
(-5.15198e-10 -5.74788e-10 -7.25444e-11)
(-8.06964e-10 -9.32203e-10 -1.2051e-10)
(-1.05618e-09 -1.28628e-09 -1.72215e-10)
(-1.26189e-09 -1.65121e-09 -2.31267e-10)
(-1.4198e-09 -2.03862e-09 -3.01353e-10)
(-1.52134e-09 -2.45778e-09 -3.86402e-10)
(-1.55252e-09 -2.9155e-09 -4.90629e-10)
(-1.49271e-09 -3.41558e-09 -6.18357e-10)
(-1.31358e-09 -3.95766e-09 -7.73413e-10)
(-9.79074e-10 -4.5353e-09 -9.57717e-10)
(-4.47981e-10 -5.13257e-09 -1.16835e-09)
(3.16656e-10 -5.71843e-09 -1.39216e-09)
(1.32182e-09 -6.23881e-09 -1.59788e-09)
(2.47737e-09 -6.61377e-09 -1.73262e-09)
(3.42518e-09 -6.77152e-09 -1.75392e-09)
(-2.22332e-10 -2.25516e-10 -2.81643e-11)
(-6.39688e-10 -6.58843e-10 -8.31748e-11)
(-1.00643e-09 -1.06895e-09 -1.3787e-10)
(-1.32716e-09 -1.47596e-09 -1.96396e-10)
(-1.60436e-09 -1.89666e-09 -2.62654e-10)
(-1.83793e-09 -2.34536e-09 -3.40552e-10)
(-2.02502e-09 -2.83442e-09 -4.34173e-10)
(-2.15993e-09 -3.37482e-09 -5.47801e-10)
(-2.23437e-09 -3.97657e-09 -6.85733e-10)
(-2.23841e-09 -4.6491e-09 -8.51677e-10)
(-2.16251e-09 -5.4015e-09 -1.04739e-09)
(-2.00075e-09 -6.24121e-09 -1.26991e-09)
(-1.75416e-09 -7.16711e-09 -1.50628e-09)
(-1.43004e-09 -8.14644e-09 -1.7256e-09)
(-1.03744e-09 -9.0587e-09 -1.87375e-09)
(-6.4109e-10 -9.62585e-09 -1.90273e-09)
(-2.65163e-10 -2.45984e-10 -3.09346e-11)
(-7.64374e-10 -7.18805e-10 -9.12471e-11)
(-1.20735e-09 -1.16667e-09 -1.50872e-10)
(-1.60248e-09 -1.61177e-09 -2.14121e-10)
(-1.95633e-09 -2.07283e-09 -2.84975e-10)
(-2.27384e-09 -2.56604e-09 -3.67331e-10)
(-2.5589e-09 -3.10597e-09 -4.65139e-10)
(-2.8154e-09 -3.70649e-09 -5.82416e-10)
(-3.04908e-09 -4.38174e-09 -7.23036e-10)
(-3.27075e-09 -5.14762e-09 -8.90171e-10)
(-3.50141e-09 -6.02354e-09 -1.0851e-09)
(-3.77915e-09 -7.03381e-09 -1.30493e-09)
(-4.16435e-09 -8.20458e-09 -1.53854e-09)
(-4.7273e-09 -9.54268e-09 -1.76027e-09)
(-5.46905e-09 -1.09547e-08 -1.92403e-09)
(-6.09795e-09 -1.20265e-08 -1.97736e-09)
(-3.06763e-10 -2.57375e-10 -3.28683e-11)
(-8.8572e-10 -7.52266e-10 -9.68215e-11)
(-1.40358e-09 -1.22139e-09 -1.59644e-10)
(-1.87261e-09 -1.68812e-09 -2.25625e-10)
(-2.30353e-09 -2.17217e-09 -2.98649e-10)
(-2.70614e-09 -2.69061e-09 -3.82392e-10)
(-3.09059e-09 -3.25889e-09 -4.80447e-10)
(-3.4692e-09 -3.89164e-09 -5.96288e-10)
(-3.85933e-09 -4.60373e-09 -7.3305e-10)
(-4.28791e-09 -5.41155e-09 -8.92991e-10)
(-4.79836e-09 -6.33454e-09 -1.07647e-09)
(-5.46025e-09 -7.39666e-09 -1.28022e-09)
(-6.38007e-09 -8.62657e-09 -1.49485e-09)
(-7.70258e-09 -1.00539e-08 -1.7025e-09)
(-9.55119e-09 -1.1685e-08 -1.87891e-09)
(-1.16533e-08 -1.32945e-08 -2.00052e-09)
(-1.97388e-11 -2.53201e-11 -2.54907e-12)
(-5.63802e-11 -7.39101e-11 -7.55015e-12)
(-8.7317e-11 -1.19726e-10 -1.25912e-11)
(-1.12039e-10 -1.64845e-10 -1.8094e-11)
(-1.29522e-10 -2.10843e-10 -2.44656e-11)
(-1.37927e-10 -2.58741e-10 -3.21225e-11)
(-1.34214e-10 -3.08838e-10 -4.14986e-11)
(-1.13663e-10 -3.6037e-10 -5.30259e-11)
(-6.93076e-11 -4.1087e-10 -6.70691e-11)
(8.56859e-12 -4.5514e-10 -8.37738e-11)
(1.32441e-10 -4.83687e-10 -1.02786e-10)
(3.16144e-10 -4.80683e-10 -1.22804e-10)
(5.70325e-10 -4.21984e-10 -1.41039e-10)
(8.92165e-10 -2.75648e-10 -1.53074e-10)
(1.24586e-09 -1.48076e-11 -1.54595e-10)
(1.52543e-09 3.08037e-10 -1.47806e-10)
(-5.94999e-11 -7.49371e-11 -7.53211e-12)
(-1.70094e-10 -2.1878e-10 -2.23057e-11)
(-2.63902e-10 -3.54486e-10 -3.71853e-11)
(-3.39683e-10 -4.88258e-10 -5.34057e-11)
(-3.94754e-10 -6.2485e-10 -7.21556e-11)
(-4.24165e-10 -7.67465e-10 -9.46482e-11)
(-4.19671e-10 -9.1735e-10 -1.22144e-10)
(-3.68421e-10 -1.07291e-09 -1.55898e-10)
(-2.51395e-10 -1.22811e-09 -1.96972e-10)
(-4.19926e-11 -1.36984e-09 -2.45799e-10)
(2.94145e-10 -1.47411e-09 -3.01382e-10)
(7.95459e-10 -1.50146e-09 -3.59972e-10)
(1.49186e-09 -1.39411e-09 -4.1345e-10)
(2.37474e-09 -1.08363e-09 -4.48656e-10)
(3.33799e-09 -5.3523e-10 -4.51817e-10)
(4.07308e-09 8.66405e-11 -4.27295e-10)
(-1.00274e-10 -1.21886e-10 -1.22179e-11)
(-2.87057e-10 -3.55885e-10 -3.61663e-11)
(-4.46761e-10 -5.76804e-10 -6.02371e-11)
(-5.78227e-10 -7.949e-10 -8.63994e-11)
(-6.78188e-10 -1.0182e-09 -1.16538e-10)
(-7.40147e-10 -1.25244e-09 -1.52566e-10)
(-7.53012e-10 -1.50069e-09 -1.96457e-10)
(-6.99316e-10 -1.76225e-09 -2.50171e-10)
(-5.5312e-10 -2.03078e-09 -3.15358e-10)
(-2.77982e-10 -2.29119e-09 -3.92705e-10)
(1.73584e-10 -2.5152e-09 -4.80672e-10)
(8.55776e-10 -2.6567e-09 -5.73458e-10)
(1.81313e-09 -2.65074e-09 -6.58374e-10)
(3.03911e-09 -2.42873e-09 -7.14532e-10)
(4.38973e-09 -1.97821e-09 -7.19171e-10)
(5.42497e-09 -1.49713e-09 -6.77317e-10)
(-1.42395e-10 -1.64469e-10 -1.6441e-11)
(-4.08384e-10 -4.80309e-10 -4.86345e-11)
(-6.38148e-10 -7.78757e-10 -8.08949e-11)
(-8.31732e-10 -1.07395e-09 -1.15804e-10)
(-9.86766e-10 -1.37719e-09 -1.55813e-10)
(-1.09735e-09 -1.69715e-09 -2.03386e-10)
(-1.15275e-09 -2.03961e-09 -2.61044e-10)
(-1.13572e-09 -2.40671e-09 -3.31267e-10)
(-1.02047e-09 -2.79543e-09 -4.1613e-10)
(-7.70726e-10 -3.19504e-09 -5.16482e-10)
(-3.38832e-10 -3.58351e-09 -6.30392e-10)
(3.31141e-10 -3.92353e-09 -7.50565e-10)
(1.28971e-09 -4.16121e-09 -8.60982e-10)
(2.54379e-09 -4.23641e-09 -9.35048e-10)
(3.96662e-09 -4.12426e-09 -9.4346e-10)
(5.10363e-09 -3.93046e-09 -8.92124e-10)
(-1.85787e-10 -2.01131e-10 -2.00758e-11)
(-5.33916e-10 -5.87507e-10 -5.93366e-11)
(-8.37955e-10 -9.52957e-10 -9.85235e-11)
(-1.10034e-09 -1.31513e-09 -1.40681e-10)
(-1.32111e-09 -1.68846e-09 -1.8867e-10)
(-1.49713e-09 -2.08462e-09 -2.45325e-10)
(-1.62124e-09 -2.51263e-09 -3.1351e-10)
(-1.68119e-09 -2.97873e-09 -3.95999e-10)
(-1.65859e-09 -3.48559e-09 -4.95081e-10)
(-1.5278e-09 -4.03107e-09 -6.11661e-10)
(-1.25556e-09 -4.60623e-09 -7.43561e-10)
(-8.02487e-10 -5.19219e-09 -8.82691e-10)
(-1.29331e-10 -5.75586e-09 -1.01127e-09)
(7.83359e-10 -6.24529e-09 -1.09948e-09)
(1.87471e-09 -6.59174e-09 -1.11384e-09)
(2.81814e-09 -6.74098e-09 -1.05971e-09)
(-2.29926e-10 -2.30493e-10 -2.30432e-11)
(-6.62084e-10 -6.73426e-10 -6.80375e-11)
(-1.04351e-09 -1.09277e-09 -1.12731e-10)
(-1.37998e-09 -1.50909e-09 -1.60468e-10)
(-1.67518e-09 -1.93951e-09 -2.14347e-10)
(-1.93036e-09 -2.39835e-09 -2.77384e-10)
(-2.1443e-09 -2.89775e-09 -3.52566e-10)
(-2.31326e-09 -3.44797e-09 -4.42727e-10)
(-2.43139e-09 -4.05763e-09 -5.50137e-10)
(-2.4915e-09 -4.73381e-09 -6.75621e-10)
(-2.48665e-09 -5.48185e-09 -8.16897e-10)
(-2.412e-09 -6.30397e-09 -9.65845e-10)
(-2.26485e-09 -7.1932e-09 -1.10478e-09)
(-2.03849e-09 -8.1144e-09 -1.20382e-09)
(-1.71309e-09 -8.95832e-09 -1.22772e-09)
(-1.32575e-09 -9.48138e-09 -1.17706e-09)
(-2.73888e-10 -2.51413e-10 -2.53118e-11)
(-7.90106e-10 -7.34723e-10 -7.46478e-11)
(-1.24994e-09 -1.19268e-09 -1.2338e-10)
(-1.66311e-09 -1.648e-09 -1.74989e-10)
(-2.03753e-09 -2.11972e-09 -2.32649e-10)
(-2.37965e-09 -2.62412e-09 -2.99373e-10)
(-2.6951e-09 -3.1755e-09 -3.78068e-10)
(-2.98987e-09 -3.78694e-09 -4.71399e-10)
(-3.27213e-09 -4.47099e-09 -5.81397e-10)
(-3.55527e-09 -5.2407e-09 -7.08644e-10)
(-3.86228e-09 -6.11083e-09 -8.50811e-10)
(-4.23104e-09 -7.09856e-09 -1.00037e-09)
(-4.71601e-09 -8.22077e-09 -1.14161e-09)
(-5.3706e-09 -9.47682e-09 -1.24871e-09)
(-6.16597e-09 -1.07806e-08 -1.29051e-09)
(-6.79019e-09 -1.17644e-08 -1.25959e-09)
(-3.1648e-10 -2.63054e-10 -2.68957e-11)
(-9.14371e-10 -7.68936e-10 -7.92169e-11)
(-1.45096e-09 -1.24864e-09 -1.30573e-10)
(-1.93997e-09 -1.72611e-09 -1.84437e-10)
(-2.39357e-09 -2.22138e-09 -2.43907e-10)
(-2.82313e-09 -2.75166e-09 -3.11843e-10)
(-3.24062e-09 -3.33207e-09 -3.909e-10)
(-3.6604e-09 -3.97644e-09 -4.83388e-10)
(-4.10213e-09 -4.69794e-09 -5.90906e-10)
(-4.59492e-09 -5.50991e-09 -7.13614e-10)
(-5.18344e-09 -6.42669e-09 -8.49013e-10)
(-5.93568e-09 -7.46432e-09 -9.90203e-10)
(-6.95018e-09 -8.64063e-09 -1.12407e-09)
(-8.35206e-09 -9.97446e-09 -1.23154e-09)
(-1.02313e-08 -1.14731e-08 -1.29579e-09)
(-1.2293e-08 -1.29526e-08 -1.32276e-09)
(-2.03303e-11 -2.57346e-11 -1.88892e-12)
(-5.81272e-11 -7.51233e-11 -5.59334e-12)
(-9.02153e-11 -1.21695e-10 -9.3228e-12)
(-1.1618e-10 -1.6756e-10 -1.33842e-11)
(-1.35098e-10 -2.14307e-10 -1.80688e-11)
(-1.4524e-10 -2.62949e-10 -2.36642e-11)
(-1.43698e-10 -3.13755e-10 -3.0452e-11)
(-1.25913e-10 -3.65902e-10 -3.8678e-11)
(-8.50917e-11 -4.16857e-10 -4.84793e-11)
(-1.16658e-11 -4.61377e-10 -5.974e-11)
(1.0685e-10 -4.90059e-10 -7.1857e-11)
(2.84746e-10 -4.87429e-10 -8.34248e-11)
(5.34096e-10 -4.30141e-10 -9.19995e-11)
(8.55039e-10 -2.87298e-10 -9.44294e-11)
(1.21559e-09 -3.21546e-11 -8.88312e-11)
(1.50846e-09 2.86076e-10 -7.95365e-11)
(-6.12651e-11 -7.61659e-11 -5.58142e-12)
(-1.75305e-10 -2.22366e-10 -1.65251e-11)
(-2.72551e-10 -3.60312e-10 -2.75336e-11)
(-3.52045e-10 -4.96295e-10 -3.95064e-11)
(-4.114e-10 -6.35109e-10 -5.32938e-11)
(-4.45998e-10 -7.79937e-10 -6.97346e-11)
(-4.47993e-10 -9.31927e-10 -8.96469e-11)
(-4.04999e-10 -1.08931e-09 -1.13746e-10)
(-2.98521e-10 -1.24582e-09 -1.42432e-10)
(-1.02397e-10 -1.38817e-09 -1.75378e-10)
(2.17721e-10 -1.49249e-09 -2.10839e-10)
(7.01513e-10 -1.52014e-09 -2.4473e-10)
(1.38281e-09 -1.41539e-09 -2.69864e-10)
(2.26117e-09 -1.11278e-09 -2.76735e-10)
(3.24099e-09 -5.78583e-10 -2.58943e-10)
(4.0103e-09 3.00245e-11 -2.2809e-10)
(-1.03191e-10 -1.23881e-10 -9.05415e-12)
(-2.95671e-10 -3.6172e-10 -2.67946e-11)
(-4.6106e-10 -5.86283e-10 -4.46049e-11)
(-5.98668e-10 -8.07982e-10 -6.39195e-11)
(-7.05716e-10 -1.03491e-09 -8.60881e-11)
(-7.76259e-10 -1.27277e-09 -1.12434e-10)
(-7.99848e-10 -1.52447e-09 -1.44242e-10)
(-7.59786e-10 -1.78899e-09 -1.82629e-10)
(-6.30971e-10 -2.05955e-09 -2.28221e-10)
(-3.77688e-10 -2.32057e-09 -2.80507e-10)
(4.7488e-11 -2.54361e-09 -3.3677e-10)
(7.00538e-10 -2.68324e-09 -3.90612e-10)
(1.63172e-09 -2.67691e-09 -4.30683e-10)
(2.84634e-09 -2.46021e-09 -4.41701e-10)
(4.21571e-09 -2.0239e-09 -4.12689e-10)
(5.29563e-09 -1.5596e-09 -3.61097e-10)
(-1.46428e-10 -1.67162e-10 -1.21842e-11)
(-4.20296e-10 -4.88185e-10 -3.60344e-11)
(-6.57918e-10 -7.91557e-10 -5.99073e-11)
(-8.59994e-10 -1.09162e-09 -8.56854e-11)
(-1.02483e-09 -1.39979e-09 -1.15126e-10)
(-1.14727e-09 -1.72467e-09 -1.49938e-10)
(-1.21747e-09 -2.07182e-09 -1.91765e-10)
(-1.21918e-09 -2.44291e-09 -2.42027e-10)
(-1.12776e-09 -2.83417e-09 -3.01508e-10)
(-9.07859e-10 -3.23394e-09 -3.69556e-10)
(-5.11898e-10 -3.6193e-09 -4.42736e-10)
(1.1824e-10 -3.95274e-09 -5.12949e-10)
(1.03995e-09 -4.18195e-09 -5.6575e-10)
(2.27416e-09 -4.25129e-09 -5.81507e-10)
(3.71205e-09 -4.14208e-09 -5.45888e-10)
(4.8954e-09 -3.95944e-09 -4.81045e-10)
(-1.90882e-10 -2.04425e-10 -1.4879e-11)
(-5.48961e-10 -5.97143e-10 -4.39675e-11)
(-8.62923e-10 -9.68626e-10 -7.2971e-11)
(-1.13602e-09 -1.33678e-09 -1.04111e-10)
(-1.36915e-09 -1.71618e-09 -1.39443e-10)
(-1.56009e-09 -2.1184e-09 -1.80936e-10)
(-1.70275e-09 -2.5522e-09 -2.30465e-10)
(-1.78613e-09 -3.02317e-09 -2.89624e-10)
(-1.79312e-09 -3.5329e-09 -3.59276e-10)
(-1.69909e-09 -4.07773e-09 -4.38672e-10)
(-1.47077e-09 -4.64677e-09 -5.23968e-10)
(-1.06608e-09 -5.2194e-09 -6.06135e-10)
(-4.37936e-10 -5.76226e-09 -6.6901e-10)
(4.48237e-10 -6.22706e-09 -6.90351e-10)
(1.55007e-09 -6.55452e-09 -6.53321e-10)
(2.53703e-09 -6.70029e-09 -5.81948e-10)
(-2.36006e-10 -2.34269e-10 -1.70796e-11)