/*--------------------------------*- C++ -*----------------------------------*\
| =========                 |                                                 |
| \\      /  F ield         | foam-extend: Open Source CFD                    |
|  \\    /   O peration     | Version:     3.1                                |
|   \\  /    A nd           | Web:         http://www.extend-project.de       |
|    \\/     M anipulation  |                                                 |
\*---------------------------------------------------------------------------*/
FoamFile
{
    version     2.0;
    format      ascii;
    class       surfaceScalarField;
    location    "2.3";
    object      meshPhi;
}
// * * * * * * * * * * * * * * * * * * * * * * * * * * * * * * * * * * * * * //

dimensions      [0 3 -1 0 0 0 0];

internalField   nonuniform List<scalar> 
41600
(
3.02802e-08
5.64643e-09
1.93204e-10
-1.96894e-10
5.82969e-08
1.67062e-08
5.80801e-10
-5.91725e-10
8.38068e-08
2.74213e-08
9.83382e-10
-1.00129e-09
1.07455e-07
3.8187e-08
1.43306e-09
-1.45776e-09
1.29761e-07
4.95318e-08
1.97068e-09
-2.00189e-09
1.51111e-07
6.19657e-08
2.64461e-09
-2.6816e-09
1.71747e-07
7.60124e-08
3.51727e-09
-3.55829e-09
1.91711e-07
9.22382e-08
4.67429e-09
-4.71576e-09
2.10771e-07
1.11276e-07
6.2387e-09
-6.27392e-09
2.28302e-07
1.33835e-07
8.39417e-09
-8.41115e-09
2.43145e-07
1.60697e-07
1.1425e-08
-1.14023e-08
2.53508e-07
1.92674e-07
1.57842e-08
-1.56823e-08
2.57108e-07
2.30466e-07
2.2194e-08
-2.1935e-08
2.52039e-07
2.74139e-07
3.16833e-08
-3.11249e-08
2.38973e-07
3.20148e-07
4.46762e-08
-4.37888e-08
4.21298e-07
7.64336e-08
-1.02736e-07
9.03289e-08
1.10391e-08
5.73292e-10
-5.84237e-10
1.73893e-07
3.26539e-08
1.72216e-09
-1.75456e-09
2.49965e-07
5.35716e-08
2.91275e-09
-2.96586e-09
3.20474e-07
7.45479e-08
4.23915e-09
-4.31238e-09
3.86972e-07
9.65961e-08
5.8199e-09
-5.91238e-09
4.50637e-07
1.20684e-07
7.7938e-09
-7.90329e-09
5.12225e-07
1.47794e-07
1.03376e-08
-1.04588e-08
5.71941e-07
1.78973e-07
1.36898e-08
-1.38121e-08
6.29222e-07
2.15374e-07
1.81862e-08
-1.82897e-08
6.82402e-07
2.58251e-07
2.43146e-08
-2.43644e-08
7.2831e-07
3.08915e-07
3.2804e-08
-3.27397e-08
7.61938e-07
3.68558e-07
4.47618e-08
-4.4475e-08
7.76732e-07
4.37788e-07
6.18378e-08
-6.11242e-08
7.66856e-07
5.15362e-07
8.61336e-08
-8.46235e-08
7.33382e-07
5.93282e-07
1.17887e-07
-1.1537e-07
7.07489e-07
1.80077e-07
-2.23314e-07
1.48902e-07
1.59547e-08
9.31178e-10
-9.49e-10
2.86611e-07
4.71786e-08
2.79404e-09
-2.84681e-09
4.11925e-07
7.73461e-08
4.71698e-09
-4.80343e-09
5.28028e-07
1.07515e-07
6.84836e-09
-6.96749e-09
6.37502e-07
1.39108e-07
9.37275e-09
-9.52304e-09
7.42348e-07
1.7346e-07
1.25018e-08
-1.26794e-08
8.43928e-07
2.11905e-07
1.64988e-08
-1.6695e-08
9.42807e-07
2.55837e-07
2.17091e-08
-2.19063e-08
1.03844e-06
3.06743e-07
2.86011e-08
-2.87672e-08
1.12872e-06
3.66194e-07
3.78247e-08
-3.79042e-08
1.2093e-06
4.35727e-07
5.02914e-08
-5.01903e-08
1.27306e-06
5.16516e-07
6.7267e-08
-6.68247e-08
1.31024e-06
6.08585e-07
9.03991e-08
-8.93294e-08
1.31132e-06
7.09012e-07
1.21289e-07
-1.19086e-07
1.27579e-06
8.06478e-07
1.5869e-07
-1.54832e-07
9.44526e-07
2.14959e-07
-2.46017e-07
2.05104e-07
2.01969e-08
1.25222e-09
-1.27632e-09
3.94713e-07
5.9698e-08
3.75181e-09
-3.82315e-09
5.67151e-07
9.77867e-08
6.31822e-09
-6.43504e-09
7.26811e-07
1.35748e-07
9.14221e-09
-9.30302e-09
8.77284e-07
1.75313e-07
1.24573e-08
-1.26599e-08
1.02142e-06
2.18076e-07
1.65239e-08
-1.67629e-08
1.1613e-06
2.65591e-07
2.16556e-08
-2.19188e-08
1.2981e-06
3.19436e-07
2.82479e-08
-2.85113e-08
1.43176e-06
3.8124e-07
3.68119e-08
-3.70319e-08
1.56047e-06
4.52659e-07
4.80132e-08
-4.81149e-08
1.67998e-06
5.35219e-07
6.27065e-08
-6.25648e-08
1.78272e-06
6.29911e-07
8.19355e-08
-8.13428e-08
1.85749e-06
7.36254e-07
1.06779e-07
-1.05381e-07
1.8918e-06
8.50226e-07
1.37708e-07
-1.34895e-07
1.88043e-06
9.58866e-07
1.72145e-07
-1.67075e-07
1.10601e-06
2.17483e-07
-2.41508e-07
2.58087e-07
2.36081e-08
1.52551e-09
-1.55511e-09
4.96559e-07
6.97488e-08
4.56278e-09
-4.65037e-09
7.13258e-07
1.14141e-07
7.66098e-09
-7.80431e-09
9.13705e-07
1.58212e-07
1.10391e-08
-1.12362e-08
1.10244e-06
2.03894e-07
1.49606e-08
-1.52084e-08
1.28317e-06
2.52922e-07
1.97094e-08
-2.0001e-08
1.45877e-06
3.06935e-07
2.56135e-08
-2.59338e-08
1.63121e-06
3.67532e-07
3.30677e-08
-3.33866e-08
1.80132e-06
4.36302e-07
4.25531e-08
-4.28167e-08
1.96839e-06
5.14782e-07
5.46492e-08
-5.47641e-08
2.12944e-06
6.0432e-07
7.00204e-08
-6.98304e-08
2.2783e-06
7.05715e-07
8.93449e-08
-8.85907e-08
2.40455e-06
8.18324e-07
1.13048e-07
-1.11299e-07
2.49377e-06
9.37923e-07
1.40628e-07
-1.37159e-07
2.53167e-06
1.05114e-06
1.68812e-07
-1.62535e-07
1.19889e-06
2.02325e-07
-2.17998e-07
3.07093e-07
2.60748e-08
1.74466e-09
-1.77886e-09
5.90679e-07
7.70002e-08
5.20829e-09
-5.30946e-09
8.48108e-07
1.25881e-07
8.71513e-09
-8.88053e-09
1.0859e-06
1.74208e-07
1.24981e-08
-1.27252e-08
1.30945e-06
2.24003e-07
1.68326e-08
-1.71177e-08
1.52324e-06
2.77033e-07
2.20038e-08
-2.23384e-08
1.73094e-06
3.34893e-07
2.83251e-08
-2.86916e-08
1.93539e-06
3.99061e-07
3.61536e-08
-3.65173e-08
2.13852e-06
4.70913e-07
4.58957e-08
-4.6194e-08
2.34112e-06
5.51695e-07
5.79962e-08
-5.81203e-08
2.54233e-06
6.42412e-07
7.28958e-08
-7.26614e-08
2.73886e-06
7.43629e-07
9.09343e-08
-9.00324e-08
2.92346e-06
8.54875e-07
1.12078e-07
-1.09993e-07
3.08225e-06
9.72904e-07
1.35295e-07
-1.3117e-07
3.19042e-06
1.08601e-06
1.57074e-07
-1.4965e-07
1.23167e-06
1.81513e-07
-1.90873e-07
3.51469e-07
2.75286e-08
1.90779e-09
-1.94564e-09
6.75819e-07
8.12568e-08
5.68354e-09
-5.79546e-09
9.69875e-07
1.32711e-07
9.47518e-09
-9.65795e-09
1.24099e-06
1.83372e-07
1.3517e-08
-1.37676e-08
1.49528e-06
2.35254e-07
1.80811e-08
-1.8395e-08
1.73786e-06
2.90059e-07
2.34366e-08
-2.38044e-08
1.97306e-06
3.49238e-07
2.9863e-08
-3.02651e-08
2.20448e-06
4.14032e-07
3.76583e-08
-3.80574e-08
2.43504e-06
4.85469e-07
4.7134e-08
-4.74621e-08
2.66694e-06
5.64326e-07
5.85906e-08
-5.87298e-08
2.90148e-06
6.51056e-07
7.22644e-08
-7.20148e-08
3.13859e-06
7.45701e-07
8.82428e-08
-8.72661e-08
3.3756e-06
8.47752e-07
1.06265e-07
-1.03987e-07
3.60325e-06
9.55579e-07
1.25263e-07
-1.20709e-07
3.7929e-06
1.06272e-06
1.42164e-07
-1.33907e-07
1.21354e-06
1.63496e-07
-1.68958e-07
3.90677e-07
2.01696e-09
-2.05752e-09
2.79437e-08
7.50954e-07
5.9959e-09
-6.11576e-09
8.24511e-08
1.0771e-06
9.957e-09
-1.01525e-08
1.34546e-07
1.37709e-06
1.41258e-08
-1.43934e-08
1.85643e-07
1.65757e-06
1.87596e-08
-1.90942e-08
2.37668e-07
1.92411e-06
2.41001e-08
-2.44916e-08
2.92181e-07
2.18146e-06
3.03827e-08
-3.08108e-08
3.50428e-07
2.43369e-06
3.7838e-08
-3.82647e-08
4.13345e-07
2.68433e-06
4.66801e-08
-4.70368e-08
4.81524e-07
2.93639e-06
5.70753e-08
-5.72444e-08
5.55148e-07
3.19236e-06
6.90878e-08
-6.88736e-08
6.33874e-07
3.45396e-06
8.26012e-08
-8.16802e-08
7.1666e-07
3.72103e-06
9.71665e-08
-9.50064e-08
8.01537e-07
3.98753e-06
1.1165e-07
-1.07388e-07
8.84899e-07
4.22868e-06
1.23328e-07
-1.15794e-07
9.58589e-07
1.50741e-07
-1.5582e-07
1.11012e-06
3.07844e-08
5.9081e-09
1.82151e-10
5.92767e-08
1.74896e-08
5.47704e-10
8.52415e-08
2.87381e-08
9.27761e-10
1.09348e-07
4.00862e-08
1.35289e-09
1.32132e-07
5.21076e-08
1.86193e-09
1.53997e-07
6.53605e-08
2.50082e-09
1.75187e-07
8.04233e-08
3.32844e-09
1.95742e-07
9.79267e-08
4.42443e-09
2.15412e-07
1.18581e-07
5.90045e-09
2.33544e-07
1.43191e-07
7.91687e-09
2.4895e-07
1.72652e-07
1.07068e-08
2.59868e-07
2.07901e-07
1.46054e-08
2.64217e-07
2.49745e-07
2.00564e-08
2.6071e-07
2.98209e-07
2.74653e-08
2.51404e-07
3.49421e-07
3.63633e-08
4.30662e-07
5.25825e-08
9.1829e-08
1.15493e-08
5.40508e-10
1.76807e-07
3.4181e-08
1.62405e-09
2.54232e-07
5.61364e-08
2.74803e-09
3.26101e-07
7.82427e-08
4.00201e-09
3.94025e-07
1.01599e-07
5.49885e-09
4.59222e-07
1.27265e-07
7.37048e-09
5.22467e-07
1.56324e-07
9.78387e-09
5.83956e-07
1.89944e-07
1.29614e-08
6.43078e-07
2.29416e-07
1.72086e-08
6.98083e-07
2.7616e-07
2.29526e-08
7.457e-07
3.31674e-07
3.0791e-08
7.8093e-07
3.97324e-07
4.15374e-08
7.97632e-07
4.73795e-07
5.61719e-08
7.91368e-07
5.59589e-07
7.5365e-08
7.66662e-07
6.46155e-07
9.74538e-08
7.3957e-07
1.29177e-07
1.5136e-07
1.66892e-08
8.77919e-10
2.91386e-07
4.93756e-08
2.6348e-09
4.18913e-07
8.1032e-08
4.45008e-09
5.37244e-07
1.12816e-07
6.4651e-09
6.49055e-07
1.46269e-07
8.85569e-09
7.56417e-07
1.82855e-07
1.18235e-08
8.60733e-07
2.24043e-07
1.56179e-08
9.62561e-07
2.71385e-07
2.05624e-08
1.0613e-06
3.2655e-07
2.70857e-08
1.15468e-06
3.91316e-07
3.57595e-08
1.2382e-06
4.6743e-07
4.73326e-08
1.3046e-06
5.56235e-07
6.27207e-08
1.34436e-06
6.57735e-07
8.28137e-08
1.34936e-06
7.68544e-07
1.07707e-07
1.32324e-06
8.76734e-07
1.34411e-07
9.88906e-07
1.63709e-07
2.0846e-07
2.11219e-08
1.18053e-09
4.01228e-07
6.2463e-08
3.53775e-09
5.76684e-07
1.02419e-07
5.96027e-09
7.39379e-07
1.42396e-07
8.62996e-09
8.93038e-07
1.8427e-07
1.17696e-08
1.04062e-06
2.29787e-07
1.56279e-08
1.18426e-06
2.80661e-07
2.05033e-08
1.32516e-06
3.38647e-07
2.67685e-08
1.46319e-06
4.05578e-07
3.48956e-08
1.5964e-06
4.83328e-07
4.54759e-08
1.72026e-06
5.7364e-07
5.92162e-08
1.82686e-06
6.77658e-07
7.68516e-08
1.90489e-06
7.9482e-07
9.88206e-08
1.94262e-06
9.20553e-07
1.24394e-07
1.93835e-06
1.04131e-06
1.49777e-07
1.16155e-06
1.74325e-07
2.6226e-07
2.46829e-08
1.43804e-09
5.04656e-07
7.29593e-08
4.30197e-09
7.25097e-07
1.19511e-07
7.22607e-09
9.29303e-07
1.65902e-07
1.04193e-08
1.12199e-06
2.14224e-07
1.41333e-08
1.30699e-06
2.66377e-07
1.86402e-08
1.48729e-06
3.24169e-07
2.42541e-08
1.66491e-06
3.89383e-07
3.13502e-08
1.84065e-06
4.6381e-07
4.03789e-08
2.01365e-06
5.49203e-07
5.18641e-08
2.18065e-06
6.47124e-07
6.63643e-08
2.33501e-06
7.58525e-07
8.43392e-08
2.46574e-06
8.82716e-07
1.05764e-07
2.55811e-06
1.01496e-06
1.29308e-07
2.59956e-06
1.14124e-06
1.50939e-07
1.26296e-06
1.70305e-07
3.11986e-07
2.72543e-08
1.64441e-09
6.00166e-07
8.05206e-08
4.90985e-09
8.61965e-07
1.3176e-07
8.21901e-09
1.10414e-06
1.82607e-07
1.17944e-08
1.33229e-06
2.3525e-07
1.58995e-08
1.55107e-06
2.91624e-07
2.08084e-08
1.76427e-06
3.53489e-07
2.68238e-08
1.97484e-06
4.22499e-07
3.42887e-08
2.18473e-06
5.00217e-07
4.35907e-08
2.39463e-06
5.88085e-07
5.51438e-08
2.60347e-06
6.87308e-07
6.93316e-08
2.80748e-06
7.98627e-07
8.63738e-08
2.99854e-06
9.21634e-07
1.05969e-07
3.16146e-06
1.0528e-06
1.26575e-07
3.2701e-06
1.17979e-06
1.44252e-07
1.30227e-06
1.60043e-07
3.56972e-07
2.87657e-08
1.79785e-09
6.86479e-07
8.49462e-08
5.35687e-09
9.85429e-07
1.38863e-07
8.93396e-09
1.26144e-06
1.9214e-07
1.27532e-08
1.52084e-06
2.46959e-07
1.70752e-08
1.76897e-06
3.05181e-07
2.21599e-08
2.0103e-06
3.68413e-07
2.82792e-08
2.24857e-06
4.3805e-07
3.57236e-08
2.48677e-06
5.15276e-07
4.47975e-08
2.7271e-06
6.0103e-07
5.57933e-08
2.97072e-06
6.95924e-07
6.89323e-08
3.21722e-06
8.00167e-07
8.42595e-08
3.46311e-06
9.13412e-07
1.01387e-07
3.69745e-06
1.03413e-06
1.18954e-07
3.88727e-06
1.1558e-06
1.33625e-07
1.28833e-06
1.49806e-07
3.96674e-07
1.90035e-09
2.91915e-08
7.62559e-07
5.65004e-09
8.61697e-08
1.094e-06
9.386e-09
1.40739e-07
1.39928e-06
1.33241e-08
1.94449e-07
1.68525e-06
1.77112e-08
2.49388e-07
1.95772e-06
2.27817e-08
3.07264e-07
2.22161e-06
2.87664e-08
3.69458e-07
2.48115e-06
3.58941e-08
4.37032e-07
2.73997e-06
4.43814e-08
5.10698e-07
3.00113e-06
5.44025e-08
5.90744e-07
3.26708e-06
6.60334e-08
6.76912e-07
3.53926e-06
7.91619e-08
7.68213e-07
3.81683e-06
9.3299e-08
8.6267e-07
4.09205e-06
1.07162e-07
9.56492e-07
4.33479e-06
1.17844e-07
1.0409e-06
1.40466e-07
1.17576e-06
3.12336e-08
6.14538e-09
1.6409e-10
6.01513e-08
1.81994e-08
4.93474e-10
8.65251e-08
2.99289e-08
8.36123e-10
1.11043e-07
4.17973e-08
1.21965e-09
1.34259e-07
5.44151e-08
1.67897e-09
1.56587e-07
6.83767e-08
2.25504e-09
1.78279e-07
8.42974e-08
2.99942e-09
1.99375e-07
1.02845e-07
3.97984e-09
2.19623e-07
1.24762e-07
5.287e-09
2.38371e-07
1.50872e-07
7.04221e-09
2.54458e-07
1.82052e-07
9.40329e-09
2.66223e-07
2.19129e-07
1.2559e-08
2.71851e-07
2.62599e-07
1.66834e-08
2.70509e-07
3.11806e-07
2.17745e-08
2.64392e-07
3.61999e-07
2.71952e-08
4.4631e-07
3.55754e-08
9.3165e-08
1.20121e-08
4.86927e-10
1.79408e-07
3.55649e-08
1.46328e-09
2.58049e-07
5.84563e-08
2.47665e-09
3.31144e-07
8.15726e-08
3.60801e-09
4.0035e-07
1.06083e-07
4.95892e-09
4.66926e-07
1.33115e-07
6.64713e-09
5.31666e-07
1.63823e-07
8.81918e-09
5.94771e-07
1.99439e-07
1.16647e-08
6.55624e-07
2.41312e-07
1.54327e-08
7.12466e-07
2.90888e-07
2.0447e-08
7.62077e-07
3.49607e-07
2.71105e-08
7.99691e-07
4.18588e-07
3.58689e-08
8.19799e-07
4.97852e-07
4.70506e-08
8.19077e-07
5.84517e-07
6.04055e-08
8.0243e-07
6.68303e-07
7.40241e-08
7.54509e-07
8.99349e-08
1.5355e-07
1.73555e-08
7.90899e-10
2.95648e-07
5.13671e-08
2.374e-09
4.25166e-07
8.43667e-08
4.01068e-09
5.45502e-07
1.17595e-07
5.82885e-09
6.59414e-07
1.52691e-07
7.98702e-09
7.69035e-07
1.91213e-07
1.06655e-08
8.75808e-07
2.34723e-07
1.40842e-08
9.80304e-07
2.84859e-07
1.85202e-08
1.0819e-06
3.4336e-07
2.43256e-08
1.17832e-06
4.12019e-07
3.19357e-08
1.26504e-06
4.92475e-07
4.18517e-08
1.33502e-06
5.85675e-07
5.45446e-08
1.3794e-06
6.90628e-07
7.01669e-08
1.39129e-06
8.01962e-07
8.78925e-08
1.37486e-06
9.05363e-07
1.04772e-07
1.00376e-06
1.19297e-07
2.11448e-07
2.19611e-08
1.0635e-09
4.07043e-07
6.49696e-08
3.18751e-09
5.8521e-07
1.06611e-07
5.37172e-09
7.50635e-07
1.48392e-07
7.78089e-09
9.07155e-07
1.92308e-07
1.06162e-08
1.05781e-06
2.40215e-07
1.41009e-08
1.20482e-06
2.93936e-07
1.84995e-08
1.34938e-06
3.55323e-07
2.41341e-08
1.49137e-06
4.26276e-07
3.13959e-08
1.62875e-06
5.0867e-07
4.07394e-08
1.75694e-06
6.04092e-07
5.26347e-08
1.86806e-06
7.13177e-07
6.7415e-08
1.95113e-06
8.34146e-07
8.49013e-08
1.99531e-06
9.60057e-07
1.03708e-07
1.99954e-06
1.07457e-06
1.20394e-07
1.17704e-06
1.33176e-07
2.65975e-07
2.56581e-08
1.29543e-09
5.11879e-07
7.58701e-08
3.87588e-09
7.35681e-07
1.24372e-07
6.51227e-09
9.43267e-07
1.72841e-07
9.39414e-09
1.13949e-06
2.23499e-07
1.27493e-08
1.32832e-06
2.78368e-07
1.6823e-08
1.51279e-06
3.39371e-07
2.18955e-08
1.69499e-06
4.08386e-07
2.82946e-08
1.87569e-06
4.87264e-07
3.63988e-08
2.05396e-06
5.77744e-07
4.6617e-08
2.22638e-06
6.81199e-07
5.93205e-08
2.38609e-06
7.98032e-07
7.46675e-08
2.52196e-06
9.26252e-07
9.2207e-08
2.61939e-06
1.05861e-06
1.10246e-07
2.66643e-06
1.17804e-06
1.2529e-07
1.28027e-06
1.36542e-07
3.16339e-07
2.83246e-08
1.48121e-09
6.08626e-07
8.37132e-08
4.4232e-09
8.7435e-07
1.37084e-07
7.4066e-09
1.12046e-06
1.9019e-07
1.06335e-08
1.35273e-06
2.45356e-07
1.4343e-08
1.57595e-06
3.04641e-07
1.87834e-08
1.79403e-06
3.69918e-07
2.42268e-08
2.00995e-06
4.42929e-07
3.09771e-08
2.22569e-06
5.25284e-07
3.93657e-08
2.44185e-06
6.18395e-07
4.97235e-08
2.65713e-06
7.2327e-07
6.23074e-08
2.86736e-06
8.40116e-07
7.71454e-08
3.06374e-06
9.67296e-07
9.36832e-08
3.23029e-06
1.09884e-06
1.1024e-07
3.34102e-06
1.21927e-06
1.23498e-07
1.32252e-06
1.34382e-07
3.61868e-07
2.98886e-08
1.61925e-09
6.95985e-07
8.82933e-08
4.82537e-09
9.99327e-07
1.44436e-07
8.05001e-09
1.27973e-06
2.0006e-07
1.1497e-08
1.54372e-06
2.57484e-07
1.54034e-08
1.79678e-06
3.18689e-07
2.00055e-08
2.04351e-06
3.85384e-07
2.55507e-08
2.28774e-06
4.59039e-07
3.22995e-08
2.53248e-06
5.40873e-07
4.05181e-08
2.77985e-06
6.31777e-07
5.04475e-08
3.03078e-06
7.32169e-07
6.22373e-08
3.28433e-06
8.41765e-07
7.58294e-08
3.536e-06
9.59156e-07
9.07037e-08
3.7732e-06
1.08068e-06
1.05482e-07
3.96223e-06
1.1968e-06
1.17409e-07
1.31194e-06
1.30635e-07
4.02009e-07
1.71133e-09
3.03244e-08
7.72907e-07
5.08872e-09
8.95447e-08
1.10911e-06
8.45612e-09
1.46352e-07
1.41912e-06
1.20102e-08
2.0241e-07
1.71002e-06
1.59757e-08
2.59938e-07
1.98776e-06
2.05672e-08
3.20756e-07
2.25741e-06
2.59963e-08
3.86335e-07
2.5233e-06
3.24716e-08
4.57795e-07
2.78909e-06
4.01874e-08
5.35865e-07
3.05778e-06
4.92927e-08
6.20769e-07
3.33158e-06
5.98325e-08
7.12052e-07
3.61141e-06
7.16526e-08
8.08273e-07
3.89533e-06
8.42149e-08
9.06561e-07
4.17362e-06
9.62824e-08
1.00142e-06
4.41458e-06
1.05423e-07
1.08152e-06
1.24938e-07
1.20117e-06
3.16209e-08
6.35194e-09
1.39668e-10
6.09065e-08
1.88167e-08
4.20066e-10
8.76347e-08
3.09618e-08
7.11819e-10
1.1251e-07
4.32753e-08
1.03837e-09
1.36101e-07
5.63956e-08
1.42917e-09
1.58831e-07
7.09417e-08
1.91827e-09
1.8096e-07
8.755e-08
2.54754e-09
2.02534e-07
1.06902e-07
3.3699e-09
2.23306e-07
1.29741e-07
4.45207e-09
2.42637e-07
1.56862e-07
5.87519e-09
2.59406e-07
1.89068e-07
7.72926e-09
2.72042e-07
2.27038e-07
1.00928e-08
2.7889e-07
2.71042e-07
1.29819e-08
2.79266e-07
3.20229e-07
1.62484e-08
2.75092e-07
3.70071e-07
1.93956e-08
4.58603e-07
2.3878e-08
9.43169e-08
1.2415e-08
4.14474e-10
1.81654e-07
3.67685e-08
1.24565e-09
2.61348e-07
6.04688e-08
2.10854e-09
3.35505e-07
8.44494e-08
3.07195e-09
4.05825e-07
1.09933e-07
4.22161e-09
4.73596e-07
1.38093e-07
5.6556e-09
5.39637e-07
1.70123e-07
7.49317e-09
6.04165e-07
2.0728e-07
9.88295e-09
6.66574e-07
2.50908e-07
1.30088e-08
7.25138e-07
3.02391e-07
1.70875e-08
7.76727e-07
3.63012e-07
2.23459e-08
8.16791e-07
4.33569e-07
2.89528e-08
8.40216e-07
5.13569e-07
3.68626e-08
8.44024e-07
5.99572e-07
4.55286e-08
8.32396e-07
6.81406e-07
5.34965e-08
7.66396e-07
6.16294e-08
1.55437e-07
1.79356e-08
6.73236e-10
2.99325e-07
5.30991e-08
2.02098e-09
4.30567e-07
8.72602e-08
3.41473e-09
5.5264e-07
1.21725e-07
4.96328e-09
6.68372e-07
1.58208e-07
6.80068e-09
7.7995e-07
1.98329e-07
9.07754e-09
8.88854e-07
2.43705e-07
1.19735e-08
9.95678e-07
2.96002e-07
1.57072e-08
1.09982e-06
3.56943e-07
2.05403e-08
1.19901e-06
4.28221e-07
2.67653e-08
1.28883e-06
5.1123e-07
3.46577e-08
1.36245e-06
6.06422e-07
4.43554e-08
1.41144e-06
7.11986e-07
5.56059e-08
1.42928e-06
8.216e-07
6.73688e-08
1.41922e-06
9.20871e-07
7.7457e-08
1.01375e-06
8.46137e-08
2.14023e-07
2.26918e-08
9.053e-10
4.12059e-07
6.71501e-08
2.71358e-09
5.92572e-07
1.10249e-07
4.57373e-09
7.60362e-07
1.53577e-07
6.62609e-09
9.19357e-07
1.99217e-07
9.04112e-09
1.07268e-06
2.49103e-07
1.20061e-08
1.22258e-06
3.05117e-07
1.57385e-08
1.37032e-06
3.69138e-07
2.04945e-08
1.51575e-06
4.43037e-07
2.6568e-08
1.65686e-06
5.28558e-07
3.42664e-08
1.78907e-06
6.26961e-07
4.3841e-08
1.90462e-06
7.38253e-07
5.53267e-08
1.99279e-06
8.59606e-07
6.82335e-08
2.04299e-06
9.82846e-07
8.11403e-08
2.05342e-06
1.09147e-06
9.15271e-08
1.18536e-06
9.813e-08
2.69175e-07
2.65074e-08
1.10272e-09
5.18109e-07
7.8403e-08
3.29961e-09
7.44819e-07
1.28593e-07
5.54499e-09
9.5533e-07
1.78843e-07
8.00055e-09
1.15462e-06
2.31478e-07
1.08599e-08
1.34672e-06
2.88601e-07
1.43296e-08
1.53479e-06
3.52194e-07
1.86419e-08
1.7209e-06
4.24162e-07
2.40604e-08
1.90586e-06
5.06312e-07
3.08735e-08
2.08869e-06
6.00224e-07
3.93619e-08
2.26589e-06
7.06902e-07
4.97184e-08
2.43054e-06
8.26045e-07
6.18801e-08
2.57148e-06
9.54507e-07
7.52119e-08
2.67414e-06
1.08365e-06
8.81418e-08
2.72617e-06
1.19621e-06
9.81077e-08
1.2883e-06
1.04722e-07
3.2009e-07
2.92571e-08
1.26084e-09
6.15922e-07
8.64922e-08
3.76547e-09
8.85041e-07
1.41709e-07
6.30647e-09
1.13456e-06
1.96754e-07
9.0566e-09
1.37039e-06
2.54058e-07
1.22195e-08
1.59742e-06
3.15762e-07
1.60054e-08
1.81966e-06
3.83801e-07
2.06418e-08
2.04013e-06
4.59933e-07
2.63762e-08
2.26081e-06
5.45716e-07
3.34657e-08
2.48222e-06
6.42384e-07
4.21423e-08
2.70292e-06
7.50568e-07
5.25361e-08
2.91845e-06
8.69769e-07
6.45327e-08
3.11971e-06
9.97199e-07
7.74968e-08
3.29037e-06
1.1255e-06
8.99532e-08
3.40442e-06
1.23889e-06
9.94585e-08
1.33181e-06
1.07065e-07
3.66084e-07
3.08673e-08
1.37826e-09
7.04181e-07
9.1208e-08
4.10763e-09
1.01132e-06
1.49281e-07
6.85412e-09
1.29553e-06
2.06922e-07
9.79225e-09
1.56347e-06
2.66556e-07
1.31244e-08
1.82076e-06
3.30246e-07
1.70519e-08
2.0721e-06
3.99754e-07
2.17832e-08
2.32136e-06
4.76563e-07
2.75337e-08
2.57155e-06
5.61828e-07
3.45141e-08
2.82471e-06
6.56265e-07
4.28971e-08
3.08154e-06
7.59924e-07
5.27532e-08
3.34072e-06
8.7186e-07
6.39457e-08
3.59713e-06
9.8962e-07
7.59334e-08
3.83753e-06
1.10825e-06
8.75459e-08
4.02831e-06
1.21785e-06
9.67589e-08
1.32343e-06
1.07315e-07
4.06604e-07
1.45652e-09
3.13123e-08
7.8183e-07
4.33147e-09
9.24851e-08
1.12215e-06
7.19944e-09
1.51233e-07
1.43627e-06
1.0229e-08
2.09311e-07
1.73141e-06
1.36128e-08
2.6904e-07
2.01367e-06
1.75341e-08
3.32316e-07
2.28823e-06
2.21732e-08
4.00658e-07
2.55946e-06
2.77051e-08
4.75188e-07
2.83103e-06
3.42865e-08
5.56569e-07
3.10584e-06
4.20257e-08
6.44858e-07
3.38586e-06
5.09271e-08
7.3926e-07
3.67156e-06
6.08065e-08
8.37746e-07
3.96024e-06
7.11468e-08
9.36559e-07
4.24135e-06
8.09091e-08
1.02912e-06
4.48306e-06
8.82602e-08
1.10358e-06
1.04314e-07
1.21451e-06
3.19397e-08
6.5226e-09
1.09818e-10
6.15284e-08
1.9326e-08
3.30294e-10
8.85489e-08
3.1812e-08
5.59687e-10
1.1372e-07
4.44866e-08
8.16331e-10
1.37619e-07
5.80081e-08
1.12309e-09
1.60681e-07
7.30108e-08
1.50598e-09
1.83173e-07
9.01401e-08
1.99617e-09
2.05146e-07
1.10077e-07
2.63149e-09
2.26363e-07
1.33547e-07
3.45656e-09
2.46196e-07
1.61304e-07
4.51989e-09
2.63554e-07
1.94074e-07
5.86452e-09
2.76918e-07
2.32434e-07
7.50751e-09
2.84686e-07
2.76574e-07
9.40372e-09
2.86157e-07
3.2572e-07
1.13987e-08
2.82981e-07
3.7571e-07
1.31783e-08
4.67624e-07
1.56463e-08
9.52647e-08
1.27479e-08
3.25902e-10
1.83502e-07
3.77616e-08
9.79475e-10
2.64065e-07
6.21253e-08
1.65798e-09
3.39099e-07
8.68072e-08
2.41524e-09
4.10337e-07
1.13067e-07
3.31789e-09
4.79095e-07
1.4211e-07
4.44099e-09
5.46213e-07
1.75143e-07
5.87352e-09
6.11926e-07
2.13421e-07
7.72202e-09
6.75646e-07
2.58252e-07
1.01099e-08
7.35684e-07
3.10931e-07
1.31667e-08
7.8898e-07
3.72583e-07
1.69977e-08
8.31104e-07
4.43778e-07
2.16206e-08
8.57072e-07
5.23791e-07
2.68572e-08
8.63826e-07
6.09169e-07
3.21997e-08
8.5481e-07
6.90239e-07
3.67234e-08
7.76041e-07
4.09783e-08
1.56989e-07
1.84149e-08
5.29385e-10
3.02352e-07
5.45285e-08
1.58919e-09
4.35014e-07
8.96423e-08
2.68521e-09
5.5852e-07
1.25112e-07
3.90268e-09
6.75752e-07
1.62702e-07
5.3459e-09
7.88941e-07
2.04076e-07
7.13049e-09
8.99602e-07
2.5087e-07
9.3911e-09
1.00836e-06
3.04741e-07
1.22853e-08
1.11462e-06
3.67355e-07
1.59899e-08
1.21617e-06
4.4027e-07
2.06799e-08
1.30865e-06
5.24636e-07
2.64758e-08
1.38534e-06
6.20538e-07
3.33408e-08
1.43796e-06
7.25745e-07
4.09105e-08
1.45983e-06
8.33755e-07
4.83071e-08
1.45322e-06
9.30729e-07
5.41322e-08
1.02208e-06
5.76832e-08
2.16141e-07
2.32957e-08
7.11889e-10
4.16186e-07
6.89501e-08
2.13391e-09
5.98633e-07
1.13246e-07
3.59685e-09
7.6837e-07
1.5783e-07
5.21081e-09
9.29403e-07
2.0485e-07
7.10876e-09
1.08491e-06
2.56288e-07
9.43498e-09
1.2372e-06
3.14047e-07
1.23534e-08
1.38754e-06
3.79991e-07
1.60502e-08
1.53583e-06
4.55914e-07
2.07261e-08
1.68005e-06
5.43383e-07
2.65658e-08
1.81566e-06
6.43343e-07
3.36706e-08
1.93495e-06
7.55312e-07
4.19287e-08
2.02727e-06
8.75886e-07
5.08107e-08
2.08182e-06
9.9658e-07
5.91821e-08
2.0959e-06
1.10152e-06
6.54112e-08
1.19194e-06
6.88365e-08
2.71806e-07
2.72095e-08
8.67154e-10
5.23234e-07
8.04944e-08
2.59483e-09
7.52339e-07
1.3207e-07
4.36092e-09
9.65259e-07
1.8377e-07
6.29248e-09
1.16706e-06
2.37989e-07
8.5409e-09
1.36187e-06
2.96882e-07
1.12661e-08
1.55286e-06
3.62453e-07
1.46443e-08
1.74217e-06
4.36583e-07
1.88692e-08
1.93061e-06
5.20988e-07
2.41404e-08
2.11718e-06
6.1704e-07
3.06287e-08
2.29834e-06
7.2538e-07
3.84045e-08
2.46712e-06
8.4515e-07
4.73056e-08
2.61229e-06
9.72534e-07
5.67285e-08
2.71907e-06
1.0985e-06
6.5457e-08
2.77448e-06
1.20648e-06
7.1797e-08
1.29391e-06
7.57049e-08
3.23173e-07
3.00282e-08
9.91494e-10
6.21923e-07
8.87879e-08
2.96122e-09
8.93839e-07
1.45521e-07
4.96001e-09
1.14616e-06
2.02145e-07
7.12387e-09
1.38491e-06
2.61165e-07
9.61246e-09
1.61507e-06
3.24775e-07
1.25892e-08
1.8407e-06
3.94929e-07
1.62282e-08
2.06487e-06
4.73357e-07
2.07135e-08
2.28953e-06
5.61513e-07
2.62262e-08
2.51517e-06
6.60413e-07
3.29102e-08
2.74024e-06
7.70305e-07
4.08069e-08
2.96012e-06
8.90116e-07
4.97461e-08
3.16548e-06
1.01637e-06
5.91624e-08
3.33977e-06
1.14127e-06
6.79386e-08
3.45666e-06
1.24976e-06
7.44229e-08
1.33765e-06
7.96166e-08
3.69552e-07
3.16768e-08
1.08381e-09
7.10924e-07
9.36169e-08
3.23028e-09
1.0212e-06
1.53276e-07
5.39086e-09
1.30853e-06
2.12562e-07
7.70316e-09
1.57972e-06
2.73974e-07
1.03263e-08
1.84047e-06
3.39625e-07
1.34174e-08
2.09555e-06
4.11297e-07
1.71374e-08
2.34887e-06
4.90438e-07
2.16487e-08
2.60344e-06
5.781e-07
2.71023e-08
2.86119e-06
6.74776e-07
3.36072e-08
3.12268e-06
7.80147e-07
4.11769e-08
3.38633e-06
8.92718e-07
4.96511e-08
3.64667e-06
1.00939e-06
5.85665e-08
3.8902e-06
1.12478e-06
6.70476e-08
4.08325e-06
1.22962e-06
7.37134e-08
1.33038e-06
8.16092e-08
4.10383e-07
1.14531e-09
3.21297e-08
7.89173e-07
3.40622e-09
9.49162e-08
1.13289e-06
5.66243e-09
1.55261e-07
1.45038e-06
8.04709e-09
2.14988e-07
1.74901e-06
1.07118e-08
2.7649e-07
2.03497e-06
1.38006e-08
3.41713e-07
2.31351e-06
1.74539e-08
4.12188e-07
2.58905e-06
2.1805e-08
4.89005e-07
2.86522e-06
2.69682e-08
5.72724e-07
3.14484e-06
3.30112e-08
6.63194e-07
3.42969e-06
3.99102e-08
7.5928e-07
3.71992e-06
4.74864e-08
8.58458e-07
4.01242e-06
5.53102e-08
9.56398e-07
4.29632e-06
6.25989e-08
1.04613e-06
4.53978e-06
6.80625e-08
1.11621e-06
8.02805e-08
1.22254e-06
3.21841e-08
6.65352e-09
7.56889e-11
6.20053e-08
1.97164e-08
2.27638e-10
8.92502e-08
3.2462e-08
3.85702e-10
1.14648e-07
4.5409e-08
5.62447e-10
1.38784e-07
5.92287e-08
7.73434e-10
1.62102e-07
7.45639e-08
1.03612e-09
1.84872e-07
9.20621e-08
1.37095e-09
2.07154e-07
1.12397e-07
1.80181e-09
2.28715e-07
1.36272e-07
2.35523e-09
2.48938e-07
1.64404e-07
3.05684e-09
2.66747e-07
1.97466e-07
3.92332e-09
2.8064e-07
2.35984e-07
4.94791e-09
2.89018e-07
2.80158e-07
6.08024e-09
2.91115e-07
3.29355e-07
7.21045e-09
2.88413e-07
3.79682e-07
8.16583e-09
4.7401e-07
9.49542e-09
9.59912e-08
1.30032e-08
2.24624e-10
1.8492e-07
3.85227e-08
6.75071e-10
2.66149e-07
6.33919e-08
1.14262e-09
3.41856e-07
8.8603e-08
1.6642e-09
4.13798e-07
1.15441e-07
2.28517e-09
4.83313e-07
1.45126e-07
3.05599e-09
5.51259e-07
1.7887e-07
4.03511e-09
6.17885e-07
2.17911e-07
5.29e-09
6.82621e-07
2.63515e-07
6.89422e-09
7.43802e-07
3.16898e-07
8.9161e-09
7.98404e-07
3.7907e-07
1.13938e-08
8.4204e-07
4.50484e-07
1.42917e-08
8.69713e-07
5.30371e-07
1.74401e-08
8.78183e-07
6.15451e-07
2.04879e-08
8.7042e-07
6.96457e-07
2.29201e-08
7.83485e-07
2.51096e-08
1.58178e-07
1.87827e-08
3.64883e-10
3.04671e-07
5.56242e-08
1.09534e-09
4.38423e-07
9.1464e-08
1.85067e-09
5.63029e-07
1.27691e-07
2.68937e-09
6.81411e-07
1.66107e-07
3.6826e-09
7.95835e-07
2.08395e-07
4.90824e-09
9.07844e-07
2.56194e-07
6.45503e-09
1.01808e-06
3.11138e-07
8.42323e-09
1.12598e-06
3.74827e-07
1.09189e-08
1.22935e-06
4.487e-07
1.40342e-08
1.32386e-06
5.33728e-07
1.78067e-08
1.40284e-06
6.2979e-07
2.21501e-08
1.45796e-06
7.34524e-07
2.67599e-08
1.48225e-06
8.41558e-07
3.10456e-08
1.47737e-06
9.37568e-07
3.4216e-08
1.02898e-06
3.59439e-08
2.17763e-07
2.37591e-08
4.9069e-10
4.19349e-07
7.03301e-08
1.47084e-09
6.03279e-07
1.15538e-07
2.47914e-09
7.7451e-07
1.61071e-07
3.59126e-09
9.37103e-07
2.09121e-07
4.89807e-09
1.09428e-06
2.61692e-07
6.49704e-09
1.2484e-06
3.20691e-07
8.49669e-09
1.40073e-06
3.87948e-07
1.10164e-08
1.5512e-06
4.65173e-07
1.41777e-08
1.69781e-06
5.53776e-07
1.80781e-08
1.83602e-06
6.54467e-07
2.2741e-08
1.95812e-06
7.66477e-07
2.80307e-08
2.05338e-06
8.86184e-07
3.35375e-08
2.11072e-06
1.00519e-06
3.85106e-08
2.12678e-06
1.10827e-06
4.20076e-08
1.19762e-06
4.37393e-08
2.73823e-07
2.77484e-08
5.97725e-10
5.27161e-07
8.20984e-08
1.78861e-09
7.58104e-07
1.34732e-07
3.00598e-09
9.72869e-07
1.87528e-07
4.33732e-09
1.1766e-06
2.42929e-07
5.88625e-09
1.37346e-06
3.03117e-07
7.76118e-09
1.56669e-06
3.70097e-07
1.00795e-08
1.75844e-06
4.45709e-07
1.29665e-08
1.94953e-06
5.31566e-07
1.65446e-08
2.13893e-06
6.28861e-07
2.09048e-08
2.3231e-06
7.37961e-07
2.60557e-08
2.495e-06
8.57663e-07
3.18378e-08
2.6433e-06
9.83874e-07
3.78044e-08
2.75295e-06
1.10763e-06
4.3157e-08
2.81042e-06
1.21308e-06
4.68911e-08
1.29867e-06
4.90991e-08
3.25536e-07
3.06203e-08
6.83444e-10
6.26522e-07
9.05492e-08
2.04122e-09
9.00582e-07
1.4844e-07
3.41916e-09
1.15505e-06
2.06259e-07
4.91097e-09
1.39604e-06
2.66562e-07
6.62622e-09
1.62858e-06
3.3157e-07
8.67612e-09
1.85679e-06
4.03235e-07
1.11774e-08
2.08375e-06
4.83241e-07
1.42503e-08
2.31142e-06
5.72935e-07
1.80076e-08
2.54025e-06
6.73135e-07
2.25273e-08
2.76862e-06
7.83799e-07
2.78073e-08
2.99179e-06
9.0349e-07
3.36954e-08
3.20027e-06
1.02843e-06
3.97844e-08
3.37733e-06
1.15087e-06
4.53451e-08
3.49627e-06
1.2565e-06
4.93715e-08
1.34218e-06
5.26283e-08
3.72209e-07
3.22987e-08
7.47087e-10
7.16091e-07
9.54657e-08
2.22673e-09
1.02876e-06
1.56337e-07
3.71633e-09
1.31849e-06
2.16869e-07
5.31082e-09
1.59216e-06
2.79612e-07
7.11958e-09
1.85555e-06
3.46706e-07
9.25003e-09
2.11348e-06
4.19929e-07
1.18108e-08
2.36986e-06
5.00683e-07
1.49093e-08
2.6277e-06
5.89907e-07
1.86406e-08
2.88889e-06
6.87902e-07
2.30646e-08
3.15386e-06
7.94058e-07
2.81689e-08
3.42087e-06
9.06522e-07
3.3819e-08
3.68427e-06
1.02189e-06
3.96867e-08
3.9304e-06
1.13483e-06
4.52022e-08
4.12541e-06
1.23677e-06
4.95135e-08
1.33531e-06
5.47552e-08
4.1328e-07
7.89472e-10
3.27578e-08
7.94801e-07
2.34801e-09
9.67828e-08
1.14112e-06
3.90362e-09
1.58348e-07
1.4612e-06
5.54828e-09
2.19326e-07
1.76249e-06
7.38643e-09
2.82158e-07
2.05127e-06
9.51683e-09
3.48817e-07
2.33283e-06
1.2035e-08
4.20829e-07
2.61161e-06
1.503e-08
4.99237e-07
2.89123e-06
1.85745e-08
5.84495e-07
3.17442e-06
2.27049e-08
6.7627e-07
3.46284e-06
2.73899e-08
7.73158e-07
3.75643e-06
3.24902e-08
8.72302e-07
4.0519e-06
3.77037e-08
9.69094e-07
4.3382e-06
4.25147e-08
1.05656e-06
4.58346e-06
4.6104e-08
1.12382e-06
5.42914e-08
1.22792e-06
3.23497e-08
6.74212e-09
3.86036e-11
6.23283e-08
1.99803e-08
1.16096e-10
8.97253e-08
3.29007e-08
1.96688e-10
1.15276e-07
4.60295e-08
2.86766e-10
1.39574e-07
6.00459e-08
3.94198e-10
1.63064e-07
7.55968e-08
5.2772e-10
1.86024e-07
9.33287e-08
6.97395e-10
2.08515e-07
1.13907e-07
9.14688e-10
2.30309e-07
1.3802e-07
1.19178e-09
2.50795e-07
1.66356e-07
1.53936e-09
2.68903e-07
1.99558e-07
1.96221e-09
2.83132e-07
2.38139e-07
2.45204e-09
2.91867e-07
2.82331e-07
2.97909e-09
2.94292e-07
3.31622e-07
3.48864e-09
2.91803e-07
3.82264e-07
3.90609e-09
4.78128e-07
4.49369e-09
9.64832e-08
1.3176e-08
1.14566e-10
1.8588e-07
3.90374e-08
3.44292e-10
2.6756e-07