/*--------------------------------*- C++ -*----------------------------------*\
| =========                 |                                                 |
| \\      /  F ield         | foam-extend: Open Source CFD                    |
|  \\    /   O peration     | Version:     3.1                                |
|   \\  /    A nd           | Web:         http://www.extend-project.de       |
|    \\/     M anipulation  |                                                 |
\*---------------------------------------------------------------------------*/
FoamFile
{
    version     2.0;
    format      ascii;
    class       volScalarField;
    location    "2.3";
    object      p;
}
// * * * * * * * * * * * * * * * * * * * * * * * * * * * * * * * * * * * * * //

dimensions      [0 2 -2 0 0 0 0];

internalField   nonuniform List<scalar> 
14592
(
0.0258745
0.0256782
0.0254995
0.0253753
0.0253186
0.0253249
0.0253761
0.025446
0.0255077
0.0255377
0.0255157
0.0254192
0.0252094
0.0248104
0.0241083
0.0231837
0.0258953
0.0256761
0.0254857
0.0253503
0.0252841
0.0252844
0.0253373
0.0254161
0.0254915
0.0255382
0.0255355
0.0254608
0.0252816
0.0249228
0.0242189
0.0230858
0.0258769
0.0256389
0.0254296
0.0252751
0.025194
0.0251917
0.0252522
0.0253477
0.0254458
0.0255192
0.0255485
0.0255167
0.025397
0.0251118
0.0244124
0.0230109
0.0258348
0.0255822
0.0253568
0.0251833
0.025086
0.0250742
0.0251362
0.0252431
0.0253592
0.0254548
0.0255131
0.0255204
0.0254575
0.0252494
0.0246001
0.0230341
0.0257733
0.025512
0.0252766
0.0250881
0.0249722
0.0249453
0.0249975
0.0251042
0.0252229
0.0253286
0.0254006
0.025429
0.0254045
0.0252666
0.0247074
0.0231018
0.0256927
0.025427
0.0251858
0.0249863
0.0248528
0.0248029
0.0248354
0.0249232
0.0250352
0.0251304
0.0251915
0.0252108
0.02519
0.0250927
0.0246406
0.0230982
0.0255973
0.025327
0.0250811
0.0248722
0.0247224
0.02465
0.0246557
0.0247167
0.0247971
0.0248577
0.024877
0.0248436
0.024769
0.0246409
0.0242787
0.0227929
0.0254888
0.0252146
0.0249633
0.0247442
0.0245776
0.0244815
0.0244569
0.0244816
0.024518
0.0245236
0.0244699
0.024331
0.0241117
0.0237666
0.0233448
0.0211505
0.026081
0.0258759
0.0256945
0.0255754
0.0255331
0.0255664
0.0256588
0.025786
0.0259227
0.0260489
0.0261511
0.026219
0.0262357
0.0261611
0.0259722
0.0258618
0.026104
0.0258749
0.0256808
0.02555
0.0254958
0.0255222
0.0256164
0.0257536
0.0259064
0.0260527
0.0261777
0.0262722
0.0263221
0.0262806
0.026123
0.0261272
0.0260888
0.0258407
0.025628
0.0254774
0.0254094
0.0254315
0.0255332
0.0256888
0.025868
0.0260472
0.0262121
0.0263604
0.0264872
0.0265463
0.0264482
0.026552
0.0260484
0.0257862
0.0255588
0.0253911
0.0253076
0.0253205
0.0254234
0.0255909
0.0257904
0.0259953
0.0261982
0.0263986
0.0266025
0.0267651
0.0267636
0.026962
0.0259842
0.0257152
0.0254799
0.0253003
0.0252006
0.025198
0.0252901
0.0254552
0.0256586
0.0258748
0.0260944
0.0263238
0.0265807
0.0268341
0.0269266
0.0272093
0.025901
0.0256262
0.025386
0.025198
0.0250826
0.025059
0.0251294
0.0252738
0.0254623
0.0256639
0.0258688
0.0260866
0.0263467
0.0266421
0.0267909
0.0271213
0.0257978
0.0255182
0.0252737
0.0250775
0.0249464
0.0248987
0.0249384
0.0250487
0.0251982
0.0253543
0.0255037
0.0256513
0.0258336
0.026068
0.0261679
0.0262986
0.0256781
0.0253946
0.0251442
0.0249371
0.0247877
0.0247129
0.0247166
0.0247815
0.0248748
0.0249587
0.025011
0.0250179
0.024999
0.0249383
0.0247285
0.0232441
0.0262836
0.0260717
0.0258901
0.0257788
0.0257531
0.0258147
0.0259491
0.0261328
0.0263415
0.0265569
0.0267691
0.0269732
0.0271603
0.0273041
0.0273977
0.0275159
0.0263089
0.026072
0.0258768
0.0257542
0.0257139
0.0257678
0.0259039
0.0260988
0.0263261
0.0265648
0.0268026
0.0270365
0.0272563
0.0274281
0.0275654
0.0278177
0.0262966
0.0260408
0.0258273
0.0256836
0.0256315
0.0256808
0.0258248
0.0260402
0.0262976
0.0265742
0.0268603
0.0271539
0.0274562
0.0277313
0.0279491
0.0283494
0.0262569
0.0259884
0.0257616
0.0256021
0.025537
0.0255778
0.0257236
0.0259523
0.0262329
0.026541
0.0268691
0.0272227
0.02761
0.0279911
0.0283187
0.0288538
0.0261931
0.0259172
0.0256837
0.025516
0.0254366
0.0254628
0.0255979
0.0258234
0.0261086
0.0264278
0.0267759
0.0271626
0.0276073
0.028076
0.0284866
0.0291129
0.0261061
0.0258242
0.0255868
0.0254129
0.0253196
0.0253266
0.0254389
0.0256413
0.0259062
0.0262074
0.026537
0.0269079
0.0273502
0.0278436
0.0282623
0.0288946
0.0259954
0.0257088
0.0254669
0.0252856
0.0251774
0.0251593
0.0252379
0.0254002
0.0256188
0.0258642
0.0261258
0.0264114
0.026755
0.0271494
0.0274103
0.0276998
0.0258652
0.0255743
0.025326
0.0251329
0.0250048
0.0249566
0.0249937
0.0251022
0.0252528
0.0254101
0.025554
0.0256709
0.0257741
0.0258177
0.0256036
0.0239042
0.0264714
0.0262547
0.0260745
0.0259718
0.0259635
0.0260528
0.0262269
0.0264628
0.0267361
0.0270288
0.0273315
0.02764
0.0279462
0.0282275
0.0284699
0.0286627
0.026499
0.0262563
0.0260615
0.0259457
0.0259228
0.0260038
0.0261796
0.0264278
0.026722
0.0270409
0.0273725
0.0277119
0.0280503
0.0283575
0.0286401
0.0289501
0.0264895
0.0262281
0.0260155
0.0258808
0.025845
0.0259212
0.0261057
0.0263764
0.0267043
0.0270657
0.0274494
0.0278534
0.0282726
0.0286709
0.029037
0.0294893
0.0264513
0.0261779
0.0259534
0.0258056
0.0257577
0.0258265
0.0260138
0.0262996
0.0266535
0.0270503
0.02748
0.0279465
0.0284512
0.0289496
0.0294144
0.0299971
0.0263879
0.0261064
0.025876
0.0257214
0.0256631
0.0257189
0.0258961
0.0261788
0.0265379
0.0269454
0.027397
0.0278972
0.0284574
0.0290323
0.0295602
0.0302212
0.0262971
0.0260099
0.0257759
0.0256168
0.0255464
0.0255849
0.0257388
0.0259962
0.0263308
0.026718
0.027147
0.0276265
0.0281766
0.028757
0.0292539
0.0298871
0.0261796
0.0258876
0.0256491
0.025483
0.0253983
0.025411
0.0255288
0.0257414
0.0260233
0.0263457
0.0266962
0.0270778
0.0275127
0.027964
0.0282326
0.0284428
0.0260398
0.0257433
0.0254976
0.0253186
0.0252127
0.0251925
0.0252641
0.0254155
0.0256191
0.0258399
0.0260558
0.0262481
0.0264165
0.0264817
0.0261822
0.0242043
0.0266348
0.0264148
0.0262368
0.0261425
0.0261503
0.0262646
0.0264735
0.0267541
0.0270816
0.0274369
0.0278092
0.0281926
0.028577
0.0289381
0.0292529
0.02947
0.0266641
0.0264177
0.0262241
0.0261158
0.0261088
0.026214
0.0264245
0.0267184
0.0270687
0.0274525
0.0278561
0.0282712
0.0286873
0.029072
0.0294201
0.0297422
0.026658
0.0263922
0.0261814
0.0260556
0.026035
0.0261355
0.0263556
0.026674
0.027061
0.0274911
0.0279496
0.0284317
0.0289243
0.0293886
0.0298177
0.0302683
0.0266218
0.0263441
0.0261222
0.0259853
0.025954
0.0260483
0.0262724
0.0266076
0.0270234
0.0274925
0.0279982
0.0285427
0.0291176
0.0296723
0.0301836
0.0307555
0.0265577
0.0262722
0.0260451
0.0259029
0.0258645
0.0259473
0.0261622
0.0264947
0.0269175
0.0273932
0.0279234
0.0285007
0.0291265
0.0297453
0.0303007
0.0309381
0.0264637
0.0261727
0.0259423
0.0257967
0.0257474
0.0258149
0.0260064
0.0263117
0.0267031
0.0271611
0.0276645
0.0282162
0.0288245
0.0294326
0.0299284
0.0305147
0.0263405
0.0260446
0.0258095
0.025657
0.025594
0.0256352
0.0257887
0.0260456
0.0263807
0.0267652
0.0271815
0.0276257
0.0281067
0.0285646
0.0287876
0.0289015
0.0261924
0.0258918
0.0256488
0.0254826
0.025397
0.0254028
0.0255063
0.0256961
0.0259448
0.0262165
0.0264855
0.0267258
0.0269236
0.0269736
0.0265743
0.0243689
0.0267657
0.0265434
0.0263677
0.0262809
0.0263021
0.0264366
0.0266733
0.0269892
0.0273585
0.0277605
0.0281828
0.0286164
0.0290492
0.0294536
0.0298009
0.0300244
0.0267966
0.0265475
0.0263555
0.026254
0.0262599
0.0263849
0.0266232
0.0269531
0.0273465
0.0277789
0.028234
0.0286998
0.0291641
0.02959
0.0299631
0.0302858
0.0267929
0.0265242
0.0263152
0.0261972
0.0261895
0.02631
0.0265585
0.0269145
0.0273471
0.0278282
0.0283407
0.028875
0.0294106
0.029908
0.0303629
0.0307978
0.0267582
0.0264775
0.0262583
0.0261307
0.0261136
0.0262289
0.0264826
0.0268566
0.0273195
0.0278406
0.0284027
0.0289983
0.0296126
0.0301907
0.0307118
0.0312625
0.0266935
0.0264055
0.0261814
0.0260495
0.026028
0.0261331
0.0263784
0.0267501
0.0272192
0.0277513
0.0283346
0.0289608
0.0296213
0.030253
0.0308029
0.0314103
0.0265971
0.0263037
0.0260764
0.0259419
0.0259101
0.0260018
0.026224
0.0265679
0.0270067
0.027514
0.0280686
0.0286654
0.0293023
0.0299114
0.0303823
0.0309233
0.0264694
0.026171
0.0259389
0.0257975
0.0257524
0.0258172
0.0260002
0.0262928
0.0266697
0.0270995
0.0275614
0.0280438
0.028545
0.02899
0.0291604
0.0291975
0.0263148
0.0260113
0.0257708
0.025615
0.0255462
0.0255738
0.0257037
0.0259246
0.0262086
0.026518
0.0268234
0.0270921
0.0272997
0.0273234
0.0268391
0.0244683
0.0268572
0.0266338
0.0264602
0.026379
0.0264099
0.0265589
0.0268152
0.0271555
0.0275532
0.0279864
0.0284407
0.028905
0.0293653
0.0297918
0.0301531
0.0303757
0.0268894
0.026639
0.0264489
0.0263528
0.0263683
0.0265077
0.0267658
0.0271208
0.0275438
0.0280087
0.0284971
0.0289936
0.0294859
0.0299329
0.0303192
0.0306323
0.026887
0.0266169
0.0264097
0.0262981
0.0263005
0.0264357
0.0267048
0.0270872
0.0275512
0.0280667
0.0286139
0.0291806
0.0297397
0.0302514
0.0307086
0.0311329
0.0268531
0.0265712
0.0263543
0.0262341
0.0262278
0.0263587
0.0266339
0.0270355
0.0275311
0.0280879
0.0286855
0.029312
0.0299469
0.0305329
0.03105
0.0315816
0.0267881
0.0264989
0.0262773
0.0261531
0.0261444
0.0262661
0.0265335
0.0269332
0.027435
0.0280037
0.0286218
0.0292771
0.0299548
0.0305872
0.0311238
0.0317058
0.0266901
0.0263955
0.0261707
0.0260444
0.0260254
0.026135
0.0263797
0.0267513
0.0272225
0.0277636
0.028351
0.0289742
0.029624
0.0302262
0.030672
0.0311782
0.0265593
0.0262596
0.0260298
0.0258965
0.0258645
0.0259467
0.0261512
0.0264696
0.0268759
0.0273365
0.0278273
0.0283317
0.0288405
0.0292702
0.0293989
0.0293821
0.0264
0.0260952
0.0258566
0.0257082
0.0256517
0.0256954
0.0258448
0.0260884
0.0263975
0.0267326
0.0270613
0.0273458
0.0275547
0.027555
0.0270093
0.0245303
0.0269027
0.0266784
0.0265054
0.0264263
0.0264614
0.0266169
0.0268824
0.0272343
0.0276456
0.0280935
0.0285626
0.0290406
0.0295126
0.0299481
0.0303149
0.0305389
0.0269353
0.0266837
0.0264934
0.0263989
0.0264182
0.0265638
0.0268308
0.0271976
0.0276345
0.0281145
0.028618
0.0291277
0.0296319
0.0300875
0.0304803
0.0307915
0.0269338
0.0266625
0.0264549
0.0263453
0.0263513
0.0264925
0.0267704
0.0271647
0.027643
0.0281743
0.0287373
0.0293182
0.0298861
0.0304028
0.0308617
0.0312836
0.0269004
0.0266174
0.0264006
0.0262831
0.0262806
0.0264177
0.0267019
0.0271156
0.0276259
0.0281989
0.0288124
0.029452
0.0300943
0.030682
0.0311986
0.0317232
0.0268354
0.0265453
0.026324
0.0262023
0.026199
0.0263273
0.026604
0.0270158
0.0275322
0.0281171
0.0287505
0.0294179
0.0301013
0.0307318
0.0312641
0.0318357
0.0267367
0.0264412
0.0262169
0.0260936
0.02608
0.0261971
0.0264512
0.0268345
0.0273198
0.0278757
0.0284774
0.0291114
0.0297649
0.0303611
0.0307975
0.0312894
0.0266043
0.0263039
0.0260744
0.0259443
0.0259178
0.0260074
0.0262209
0.0265502
0.026969
0.0274429
0.027946
0.028459
0.0289688
0.0293881
0.0294978
0.0294527
0.0264428
0.0261372
0.0258988
0.0257534
0.025702
0.0257526
0.02591
0.026163
0.0264826
0.0268287
0.027167
0.0274576
0.0276645
0.0276497
0.0270614
0.0245287
0.0249849
0.0249424
0.0248955
0.0248529
0.0248073
0.0247445
0.0246451
0.0244877
0.0242501
0.0239111
0.0234495
0.0228447
0.0220763
0.021129
0.019992
0.0186863
0.0249899
0.0249459
0.0249031
0.0248633
0.0248227
0.0247652
0.0246709
0.0245178
0.0242838
0.0239477
0.0234888
0.0228868
0.0221212
0.0211778
0.0200419
0.018738
0.0249776
0.0249271
0.0248842
0.0248517
0.0248216
0.0247771
0.0246958
0.0245541
0.0243292
0.0240002
0.0235474
0.0229522
0.0221951
0.0212643
0.0201408
0.0188535
0.024949
0.0248874
0.0248379
0.0248064
0.0247848
0.0247536
0.0246874
0.0245596
0.0243461
0.0240256
0.0235794
0.0229909
0.0222419
0.021324
0.0202151
0.0189478
0.024908
0.0248341
0.0247733
0.0247365
0.0247171
0.0246944
0.02464
0.0245245
0.0243214
0.0240088
0.0235684
0.0229852
0.0222426
0.0213356
0.0202406
0.0189928
0.0248577
0.0247731
0.0247001
0.0246545
0.0246323
0.0246124
0.0245647
0.0244571
0.0242612
0.0239539
0.0235174
0.0229379
0.0222006
0.0213031
0.0202233
0.0189968
0.0248013
0.0247089
0.0246255
0.024571
0.0245433
0.0245219
0.0244755
0.0243706
0.0241771
0.0238715
0.023436
0.0228583
0.0221255
0.0212374
0.0201756
0.0189745
0.0247418
0.0246447
0.0245546
0.0244932
0.0244596
0.0244339
0.0243844
0.0242771
0.0240812
0.0237731
0.0233357
0.0227579
0.0220292
0.0211513
0.0201108
0.0189394
0.024997
0.0249356
0.0248747
0.0248213
0.0247698
0.024705
0.0246062
0.0244507
0.0242154
0.023878
0.0234167
0.0228102
0.022037
0.0210818
0.019931
0.0186107
0.0250012
0.0249335
0.0248709
0.0248163
0.0247653
0.0247026
0.0246069
0.0244546
0.0242222
0.023887
0.0234273
0.0228221
0.0220499
0.0210978
0.0199483
0.0186335
0.0249873
0.0249088
0.0248409
0.0247867
0.0247417
0.0246888
0.0246048
0.0244637
0.0242407
0.0239129
0.0234592
0.0228604
0.0220957
0.0211553
0.0200159
0.0187171
0.0249596
0.0248677
0.0247894
0.0247313
0.0246899
0.0246475
0.0245769
0.0244494
0.0242382
0.0239197
0.0234733
0.0228815
0.0221244
0.0211968
0.0200707
0.0187939
0.024921
0.0248165
0.024725
0.0246585
0.0246157
0.0245787
0.0245182
0.0244026
0.0242023
0.0238926
0.0234531
0.0228678
0.0221177
0.0212014
0.0200888
0.0188298
0.0248732
0.0247587
0.0246547
0.0245777
0.0245297
0.0244931
0.024438
0.0243299
0.0241371
0.0238337
0.0233992
0.022819
0.0220755
0.0211702
0.0200741
0.0188377
0.0248183
0.024697
0.0245832
0.0244967
0.0244418
0.0244023
0.0243476
0.024242
0.0240522
0.0237513
0.0233191
0.0227421
0.0220049
0.0211111
0.0200357
0.0188268
0.0247591
0.0246342
0.0245144
0.024421
0.02436
0.0243157
0.0242578
0.0241498
0.023958
0.0236555
0.0232225
0.022647
0.021916
0.0210345
0.0199839
0.0188076
0.0250333
0.0249475
0.0248656
0.0247972
0.0247388
0.0246742
0.0245815
0.0244359
0.0242125
0.0238872
0.0234358
0.0228336
0.0220531
0.0210718
0.0198634
0.0184544
0.0250375
0.0249424
0.0248562
0.0247844
0.0247246
0.0246611
0.0245713
0.0244296
0.0242101
0.0238881
0.0234391
0.0228389
0.0220593
0.0210829
0.019876
0.0184772
0.0250196
0.0249105
0.0248144
0.0247385
0.0246822
0.0246274
0.0245497
0.0244205
0.0242121
0.0238991
0.0234578
0.0228658
0.0220962
0.0211316
0.0199318
0.0185505
0.0249885
0.0248638
0.0247531
0.0246684
0.0246112
0.0245657
0.0245016
0.0243871
0.024192
0.0238898
0.023457
0.0228727
0.02211
0.0211581
0.0199678
0.018604
0.0249483
0.0248101
0.0246834
0.024586
0.0245236
0.0244804
0.0244254
0.0243234
0.0241404
0.0238484
0.0234234
0.0228463
0.0220907
0.0211504
0.0199723
0.018628
0.0248995
0.0247515
0.0246108
0.0244998
0.0244285
0.024383
0.024332
0.0242373
0.0240625
0.0237775
0.0233583
0.0227867
0.0220382
0.02111
0.0199501
0.0186322
0.0248434
0.0246891
0.0245382
0.0244158
0.0243351
0.0242844
0.0242325
0.0241397
0.0239679
0.0236858
0.0232691
0.022701
0.0219594
0.0210446
0.01991
0.0186269
0.0247824
0.0246248
0.0244681
0.0243381
0.0242501
0.0241933
0.0241371
0.0240414
0.0238673
0.0235832
0.0231655
0.0225988
0.0218641
0.0209641
0.0198618
0.0186213
0.0251003
0.0249894
0.0248844
0.0248002
0.0247343
0.0246731
0.0245915
0.0244634
0.024262
0.0239605
0.0235314
0.0229438
0.0221597
0.0211388
0.0198297
0.0182457
0.0251059
0.0249837
0.0248732
0.0247845
0.024718
0.0246562
0.0245777
0.0244546
0.0242584
0.0239619
0.023537
0.0229538
0.0221737
0.0211601
0.0198525
0.0182822
0.0250844
0.0249459
0.0248224
0.0247259
0.0246591
0.0246064
0.0245408
0.0244316
0.0242486
0.0239632
0.0235482
0.0229745
0.0222043
0.0212043
0.0199001
0.0183415
0.0250483
0.0248931
0.0247518
0.0246422
0.0245716
0.0245252
0.0244728
0.0243791
0.0242107
0.0239379
0.0235328
0.0229679
0.0222057
0.0212163
0.0199147
0.0183664
0.0250036
0.024835
0.0246757
0.0245494
0.024469
0.0244217
0.0243768
0.0242957
0.0241403
0.0238783
0.0234816
0.022924
0.0221684
0.0211895
0.0198968
0.0183683
0.0249509
0.0247729
0.024599
0.0244562
0.0243629
0.02431
0.0242666
0.0241917
0.0240441
0.0237891
0.0233978
0.0228451
0.0220959
0.0211296
0.0198568
0.0183626
0.024891
0.024707
0.0245229
0.0243669
0.0242614
0.0242002
0.0241535
0.0240788
0.023933
0.0236797
0.0232896
0.022739
0.0219962
0.0210451
0.0198046
0.0183605
0.0248259
0.0246389
0.0244489
0.0242844
0.0241698
0.0241005
0.0240475
0.0239681
0.0238184
0.0235612
0.023168
0.0226166
0.0218795
0.0209459
0.0197487
0.0183689
0.0251997
0.0250651
0.0249377
0.024838
0.0247668
0.0247091
0.0246438
0.0245402
0.0243702
0.0241049
0.0237127
0.023155
0.0223788
0.0213145
0.0198685
0.0180064
0.0252075
0.0250596
0.0249255
0.0248199
0.0247456
0.0246894
0.0246258
0.0245278
0.0243645
0.0241058
0.0237201
0.0231687
0.022399
0.0213441
0.0199014
0.0180522
0.025184
0.0250182
0.0248684
0.0247515
0.0246743
0.0246239
0.0245731
0.0244898
0.0243412
0.0240957
0.0237216
0.0231814
0.0224223
0.0213772
0.0199278
0.018064
0.0251437
0.0249611
0.0247916
0.0246578
0.0245724
0.0245248
0.0244857
0.0244174
0.0242843
0.0240524
0.0236895
0.0231583
0.0224062
0.0213656
0.0199079
0.0180349
0.025094
0.0248988
0.0247113
0.0245578
0.0244581
0.0244049
0.02437
0.0243134
0.0241928
0.0239717
0.0236171
0.023092
0.0223452
0.0213107
0.0198572
0.0180004
0.0250359
0.0248323
0.024631
0.0244595
0.0243435
0.0242805
0.0242433
0.0241898
0.0240752
0.0238595
0.0235088
0.0229866
0.0222447
0.021222
0.0197917
0.0179829
0.0249702
0.0247614
0.0245507
0.0243653
0.0242344
0.0241596
0.0241151
0.0240584
0.0239428
0.023726
0.0233735
0.0228501
0.0221126
0.0211076
0.01972
0.0179919
0.0248989
0.0246873
0.024471
0.0242764
0.0241347
0.0240491
0.0239952
0.0239306
0.0238075
0.0235832
0.023223
0.0226944
0.0219598
0.0209759
0.0196472
0.018028
0.0253311
0.0251758
0.0250289
0.0249161
0.0248418
0.0247925
0.0247472
0.0246755
0.0245473
0.0243322
0.023996
0.023492
0.022749
0.0216548
0.0200423
0.0177696
0.0253417
0.0251709
0.025016
0.0248959
0.0248168
0.0247679
0.0247244
0.0246587
0.0245387
0.0243322
0.0240043
0.0235084
0.0227731
0.0216817
0.0200568
0.0177398
0.0253178
0.0251283
0.0249557
0.0248211
0.0247354
0.0246893
0.0246573
0.0246067
0.0245026
0.024311
0.0239972
0.0235137
0.0227872
0.0216895
0.0200226
0.0175963
0.0252749
0.025069
0.0248765
0.0247222
0.0246241
0.0245777
0.0245536
0.0245169
0.0244283
0.0242514
0.0239499
0.0234754
0.0227534
0.0216438
0.0199416
0.0174325
0.0252209
0.0250036
0.0247944
0.0246193
0.0245033
0.0244449
0.0244227
0.0243943
0.0243171
0.0241502
0.0238565
0.0233867
0.0226677
0.0215543
0.0198463
0.0173204
0.0251572
0.0249325
0.0247113
0.0245185
0.0243838
0.024312
0.0242818
0.0242524
0.0241776
0.0240133
0.0237207
0.0232504
0.0225341
0.0214294
0.0197512
0.017282
0.0250846
0.0248553
0.0246262
0.0244198
0.0242685
0.0241812
0.0241388
0.0241013
0.0240206
0.0238502
0.0235505
0.023073
0.0223577
0.0212731
0.0196593
0.0173244
0.0250052
0.0247733
0.0245391
0.0243233
0.0241594
0.0240583
0.0240023
0.0239518
0.0238582
0.0236736
0.0233585
0.0228666
0.0221479
0.0210898
0.0195708
0.0174521
0.0254914
0.0253191
0.0251571
0.0250356
0.0249622
0.0249258
0.0249069
0.0248749
0.0247996
0.0246517
0.0243963
0.0239837
0.0233284
0.0222685
0.020508
0.0176596
0.0255051
0.025315
0.0251437
0.0250135
0.0249338
0.0248962
0.0248786
0.0248534
0.0247883
0.0246505
0.0244058
0.0240037
0.0233568
0.0222841
0.0204323
0.0173031
0.0254823
0.0252731
0.0250831
0.0249358
0.024846
0.0248083
0.0248009
0.0247909
0.0247433
0.0246231
0.0243962
0.0240112
0.0233751
0.0222763
0.0202979
0.0167809
0.0254385
0.0252136
0.0250043
0.0248363
0.0247307
0.0246886
0.0246864
0.0246891
0.0246566
0.024553
0.0243415
0.0239693
0.0233405
0.022216
0.0201498
0.0163435
0.0253813
0.025146
0.0249222
0.0247341
0.0246088
0.0245532
0.0245475
0.0245538
0.0245307
0.0244362
0.0242328
0.0238664
0.0232427
0.0221084
0.0200213
0.0160826
0.0253123
0.0250702
0.0248368
0.0246325
0.0244878
0.0244137
0.0243952
0.0243965
0.0243715
0.0242755
0.0240696
0.0236991
0.0230771
0.0219493
0.0199058
0.0159892
0.0252322
0.0249858
0.0247459
0.0245294
0.0243674
0.0242745
0.0242389
0.0242256
0.0241879
0.0240783
0.0238568
0.0234688
0.02284
0.0217289
0.0197905
0.0160589
0.0251429
0.0248945
0.0246498
0.0244237
0.0242477
0.0241377
0.0240833
0.0240505
0.0239917
0.0238578
0.0236076
0.0231864
0.0225347
0.0214365
0.0196669
0.0163463
0.0256751
0.0254893
0.0253168
0.0251916
0.0251245
0.0251061
0.02512
0.0251358
0.0251251
0.0250603
0.0249127
0.0246406
0.0241681
0.0233289
0.021743
0.0186221
0.0256923
0.0254861
0.0253031
0.025168
0.0250938
0.0250717
0.0250861
0.0251096
0.0251105
0.0250593
0.0249261
0.02467
0.0242139
0.0233733
0.0216393
0.0178688
0.0256715
0.0254462
0.0252442
0.0250902
0.0250009
0.024979
0.0250025
0.0250416
0.0250622
0.0250323
0.0249235
0.0246958
0.0242701
0.0234288
0.0215287
0.0170373
0.025628
0.0253878
0.0251679
0.0249938
0.0248893
0.0248581
0.0248845
0.0249349
0.0249718
0.0249609
0.0248731
0.0246697
0.024271
0.0234354
0.0214454
0.0164446
0.0255687
0.0253186
0.0250866
0.0248943
0.0247683
0.0247242
0.0247446
0.0247942
0.0248373
0.0248356
0.0247581
0.0245668
0.0241867
0.0233683
0.0213792
0.0161274
0.0254938
0.0252381
0.0249987
0.0247928
0.0246486
0.0245815
0.0245823
0.0246247
0.0246621
0.0246542
0.0245701
0.024372
0.0239948
0.0231946
0.0212791
0.0159997
0.0254055
0.025146
0.0249012
0.0246846
0.0245235
0.0244354
0.0244152
0.0244348
0.024451
0.0244197
0.0243081
0.0240765
0.0236742
0.0228725
0.0210899
0.0159754
0.025307
0.0250446
0.0247948
0.0245684
0.0243919
0.0242833
0.0242389
0.0242306
0.0242152
0.0241456
0.0239853
0.0236882
0.0232137
0.0223377
0.0207269
0.015983
0.0253728
0.0250956
0.0248378
0.024607
0.0244235
0.0243048
0.0242503
0.0242365
0.024223
0.0241625
0.0240179
0.0237403
0.0232955
0.0224569
0.0209374
0.0163121
0.0252568
0.0249785
0.0247137
0.0244709
0.0242728
0.0241357
0.0240562
0.0240076
0.0239464
0.0238221
0.023591
0.0231929
0.0225705
0.0215011
0.0197538
0.0164547
0.025151
0.0248732
0.0246027
0.024351
0.0241439
0.0239959
0.0238993
0.0238234
0.0237224
0.0235456
0.0232481
0.0227774
0.0220775
0.0210354
0.0194988
0.0173985
0.0250648
0.0247899
0.0245175
0.0242641
0.0240569
0.023907
0.0238013
0.0237054
0.0235729
0.0233561
0.0230129
0.0225058
0.0217868
0.0208201
0.0194798
0.0178751
0.0250041
0.0247363
0.0244697
0.0242248
0.0240269
0.0238818
0.0237715
0.0236594
0.0235006
0.0232524
0.0228774
0.02235
0.0216319
0.0207208
0.0195278
0.0181605
0.0249713
0.0247156
0.0244641
0.0242374
0.0240549
0.0239167
0.0238016
0.0236738
0.0234919
0.0232181
0.0228204
0.0222803
0.0215687
0.0206952
0.0196086
0.018383
0.0249547
0.0247194
0.0244896
0.0242862
0.0241223
0.0239929
0.0238754
0.0237362
0.0235379
0.0232473
0.0228367
0.0222901
0.021586
0.0207335
0.0197046
0.018546
0.0249328
0.024722
0.0245104
0.0243267
0.0241816
0.024066
0.0239557
0.0238178
0.0236173
0.0233236
0.0229117
0.0223657
0.0216676
0.0208209
0.0198045
0.0186521
0.0255491
0.0252621
0.0250039
0.0247825
0.0246125
0.0245097
0.024476
0.024492
0.0245212
0.0245189
0.0244505
0.0242702
0.02394
0.0232146
0.0216053
0.0164832
0.0254197
0.0251302
0.0248631
0.0246259
0.0244356
0.0243076
0.024241
0.0242123
0.0241807
0.0240958
0.0239132
0.023568
0.0229909
0.0219147
0.0200016
0.0161893
0.0252991
0.0250101
0.024735
0.0244839
0.0242782
0.0241325
0.024042
0.0239784
0.0238972
0.0237462
0.0234776
0.0230321
0.0223434
0.0212687
0.0196165
0.0172638
0.0252
0.0249133
0.0246338
0.0243758
0.0241641
0.0240112
0.0239072
0.0238194
0.023701
0.0235021
0.0231766
0.0226818
0.0219618
0.0209691
0.0195512
0.017823
0.0251286
0.0248484
0.0245721
0.0243183
0.024112
0.0239614
0.0238513
0.023746
0.023599
0.0233646
0.0230016
0.0224811
0.0217577
0.0208269
0.0195778
0.0181355
0.0250872
0.0248191
0.0245561
0.0243184
0.0241265
0.023983
0.0238689
0.0237481
0.0235771
0.0233151
0.0229266
0.0223905
0.0216725
0.020783
0.0196562
0.0183793
0.0250656
0.0248176
0.0245758
0.0243619
0.0241901
0.0240576
0.023943
0.0238118
0.0236243
0.0233444
0.0229417
0.0223982
0.0216883
0.0208223
0.0197628
0.0185641
0.0250413
0.0248192
0.0245968
0.0244039
0.0242529
0.0241366
0.0240312
0.0239024
0.0237132
0.0234303
0.0230265
0.022484
0.0217815
0.0209227
0.019879
0.0186886
0.0257233
0.0254285
0.0251711
0.0249614
0.024809
0.0247274
0.0247197
0.0247692
0.0248418
0.0248942
0.0248917
0.0247846
0.024522
0.0238204
0.0220825
0.0165136
0.0255803
0.0252819
0.0250141
0.0247849
0.0246068
0.0244932
0.0244443
0.0244388
0.0244376
0.0243898
0.0242491
0.0239435
0.0233902
0.0222828
0.0202212
0.0160435
0.0254454
0.0251471
0.0248694
0.0246218
0.024422
0.0242835
0.0242032
0.0241547
0.0240937
0.0239668
0.0237229
0.0232958
0.022609
0.0214949
0.0197354
0.0171762
0.0253332
0.0250368
0.0247526
0.0244934
0.0242816
0.02413
0.0240309
0.0239529
0.0238488
0.0236661
0.0233556
0.0228694
0.0221441
0.0211218
0.0196303
0.0177908
0.0252514
0.0249607
0.0246775
0.0244186
0.0242078
0.024055
0.0239473
0.0238497
0.0237141
0.0234923
0.0231395
0.0226237
0.0218931
0.020941
0.0196395
0.0181284
0.0252014
0.0249231
0.0246514
0.0244062
0.024208
0.0240618
0.0239501
0.0238367
0.0236763
0.0234252
0.0230444
0.0225112
0.021786
0.02088
0.0197154
0.0183908
0.0251746
0.0249162
0.0246655
0.0244441
0.024267
0.0241333
0.0240225
0.0238994
0.0237223
0.0234526
0.0230567
0.0225155
0.0217992
0.0209195
0.019831
0.0185942
0.025148
0.0249169
0.0246866
0.0244874
0.0243329
0.0242175
0.0241176
0.0239982
0.0238199
0.0235473
0.0231507
0.0226109
0.0219032
0.0210322
0.0199623
0.0187357
0.025886
0.0255851
0.0253293
0.0251315
0.0249978
0.0249393
0.0249594
0.0250425
0.0251559
0.0252557
0.0253048
0.0252471
0.0250168
0.0242959
0.0224158
0.0164664
0.0257299
0.0254248
0.025157
0.0249366
0.0247724
0.0246755
0.0246466
0.0246653
0.0246928
0.0246773
0.0245694
0.0242896
0.0237427
0.0225916
0.0203957
0.0159377
0.0255819
0.0252761
0.0249969
0.0247544
0.0245627
0.0244342
0.0243665
0.0243339
0.0242924
0.0241864
0.0239618
0.0235457
0.022853
0.0216969
0.0198416
0.0171186
0.0254572
0.0251531
0.0248658
0.0246076
0.0243983
0.0242509
0.0241588
0.0240914
0.0240008
0.0238324
0.0235336
0.0230519
0.0223178
0.021265
0.0197076
0.0177742
0.0253652
0.0250665
0.0247785
0.024517
0.0243045
0.0241521
0.0240484
0.0239588
0.0238341
0.0236234
0.0232787
0.0227652
0.0220261
0.0210525
0.0197043
0.0181335
0.0253081
0.0250212
0.0247433
0.0244932
0.0242914
0.0241443
0.024036
0.0239301
0.0237795
0.0235381
0.0231639
0.0226322
0.0218994
0.0209773
0.0197789
0.0184118
0.0252762
0.0250095
0.0247523
0.0245257
0.0243454
0.0242119
0.0241055
0.0239904
0.0238231
0.0235624
0.0231725
0.0226326
0.0219099
0.021017
0.0199021
0.018631
0.0252475
0.0250094
0.0247733
0.0245699
0.0244139
0.0243005
0.0242067
0.0240963
0.0239283
0.023665
0.0232746
0.0227364
0.0220234
0.0211403
0.0200464
0.0187871
0.0260283
0.0257228
0.0254687
0.0252818
0.0251655
0.025129
0.0251752
0.0252889
0.0254373
0.0255753
0.0256623
0.0256348
0.0254143
0.0246561
0.0226449
0.0163917
0.0258607
0.0255505
0.0252833
0.0250711
0.0249202
0.0248399
0.0248303
0.0248713
0.024924
0.0249346
0.0248504
0.0245852
0.0240334
0.0228351
0.0205245
0.015852
0.0257011
0.0253896
0.0251097
0.0248724
0.0246892
0.0245714
0.0245164
0.024499
0.0244746
0.0243856
0.0241748
0.0237637
0.0230604
0.0218638
0.0199279
0.0170795
0.0255655
0.0252554
0.0249661
0.0247099
0.0245044
0.0243623
0.0242778
0.0242207
0.0241421
0.0239854
0.023695
0.0232146
0.0224698
0.0213884
0.0197755
0.0177676
0.0254642
0.0251597
0.0248683
0.0246058
0.0243934
0.0242428
0.0241437
0.0240618
0.0239466
0.0237451
0.0234065
0.0228935
0.0221454
0.0211521
0.0197646
0.0181447
0.0254014
0.0251076
0.0248252
0.0245722
0.0243685
0.0242218
0.0241173
0.0240184
0.0238765
0.0236432
0.0232742
0.0227431
0.0220029
0.0210661
0.0198391
0.0184364
0.0253651
0.0250918
0.0248298
0.0245999
0.0244179
0.0242855
0.0241836
0.0240759
0.0239171
0.0236643
0.0232792
0.02274
0.0220111
0.0211062
0.0199687
0.0186684
0.0253345
0.025091
0.0248509
0.024645
0.0244886
0.0243778
0.0242899
0.0241878
0.0240288
0.0237735
0.0233881
0.0228508
0.0221326
0.0212384
0.0201238
0.0188363
0.0261424
0.0258337
0.0255813
0.0254033
0.0253016
0.0252836
0.0253517
0.0254905
0.0256666
0.0258329
0.0259458
0.0259352
0.0257129
0.0249157
0.0228004
0.0163239
0.0259656
0.0256518
0.0253853
0.0251801
0.0250404
0.0249744
0.0249814
0.0250411
0.0251138
0.0251439
0.0250758
0.0248174
0.0242558
0.023015
0.0206157
0.0157883
0.0257966
0.0254811
0.025201
0.0249683
0.0247927
0.0246844
0.0246408
0.0246364
0.0246257
0.0245495
0.0243479
0.0239378
0.0232225
0.0219914
0.0199934
0.0170548
0.0256523
0.0253379
0.0250474
0.0247934
0.0245918
0.0244551
0.0243776
0.0243293
0.0242604
0.0241126
0.0238277
0.0233466
0.0225915
0.0214861
0.0198304
0.0177674
0.0255437
0.0252348
0.0249413
0.0246787
0.0244672
0.0243189
0.0242243
0.024149
0.0240416
0.0238472
0.0235128
0.0229993
0.022243
0.0212332
0.0198152
0.018158
0.0254759
0.0251773
0.024892
0.0246373
0.024433
0.0242873
0.0241863
0.0240934
0.0239585
0.0237317
0.0233664
0.0228352
0.0220886
0.0211396
0.0198903
0.0184599
0.0254363
0.0251583
0.0248931
0.0246612
0.0244786
0.0243476
0.0242498
0.0241482
0.0239964
0.0237497
0.0233683
0.0228292
0.0220951
0.0211802
0.0200249
0.0187015
0.0254043
0.0251569
0.0249141
0.0247069
0.0245508
0.0244427
0.0243598
0.0242646
0.0241131
0.023864
0.0234824
0.0229456
0.0222227
0.0213193
0.0201881
0.0188785
0.026222
0.0259116
0.0256606
0.025489
0.0253979
0.0253937
0.0254783
0.0256357
0.0258318
0.0260178
0.0261471
0.0261456
0.0259186
0.0250918
0.0229061
0.0162858
0.0260387
0.0257228
0.0254572
0.025257
0.0251259
0.0250707
0.0250905
0.0251644
0.0252519
0.0252958
0.025238
0.0249826
0.0244117
0.0231393
0.020679
0.0157511
0.0258633
0.0255454
0.0252653
0.0250362
0.0248667
0.0247661
0.0247315
0.0247373
0.0247371
0.0246701
0.0244743
0.0240637
0.0233383
0.0220817
0.020041
0.0170447
0.025713
0.0253959
0.0251049
0.0248529
0.0246549
0.0245229
0.0244515
0.0244103
0.024349
0.0242076
0.0239263
0.0234439
0.0226805
0.0215576
0.019873
0.0177745
0.0255992
0.0252876
0.0249931
0.0247311
0.0245212
0.0243756
0.024285
0.0242151
0.0241137
0.0239244
0.0235928
0.0230784
0.022316
0.0212942
0.0198555
0.0181731
0.0255279
0.0252265
0.0249397
0.0246847
0.0244807
0.0243366
0.0242388
0.0241506
0.024021
0.0237987
0.023436
0.0229043
0.022153
0.0211951
0.0199304
0.0184808
0.0254861
0.0252053
0.0249385
0.0247059
0.0245235
0.0243941
0.0242996
0.0242026
0.0240559
0.0238135
0.0234346
0.0228954
0.0221574
0.0212352
0.0200675
0.018728
0.0254531
0.0252033
0.0249592
0.0247515
0.0245961
0.0244901
0.0244111
0.0243209
0.0241746
0.02393
0.0235509
0.0230141
0.0222878
0.0213776
0.0202348
0.0189097
0.0262618
0.0259505