/*--------------------------------*- C++ -*----------------------------------*\
| =========                 |                                                 |
| \\      /  F ield         | foam-extend: Open Source CFD                    |
|  \\    /   O peration     | Version:     3.1                                |
|   \\  /    A nd           | Web:         http://www.extend-project.de       |
|    \\/     M anipulation  |                                                 |
\*---------------------------------------------------------------------------*/
FoamFile
{
    version     2.0;
    format      ascii;
    class       surfaceScalarField;
    location    "2.3";
    object      phi;
}
// * * * * * * * * * * * * * * * * * * * * * * * * * * * * * * * * * * * * * //

dimensions      [0 3 -1 0 0 0 0];

internalField   nonuniform List<scalar> 
41600
(
1.18316e-05
-9.39031e-09
-1.08146e-06
1.07008e-06
1.16469e-05
1.94618e-07
-2.16252e-06
2.15253e-06
1.13474e-05
3.01852e-07
-3.04316e-06
3.04086e-06
1.10767e-05
2.73891e-07
-3.88642e-06
3.88317e-06
1.0935e-05
1.6106e-07
-4.68797e-06
4.6687e-06
1.09572e-05
2.59813e-08
-5.43414e-06
5.38592e-06
1.11179e-05
-7.49155e-08
-6.13754e-06
6.05178e-06
1.13524e-05
-1.13597e-07
-6.8465e-06
6.72561e-06
1.15897e-05
-9.12565e-08
-7.64337e-06
7.49727e-06
1.17798e-05
-3.65641e-08
-8.64464e-06
8.49113e-06
1.19149e-05
-6.01521e-09
-1.00026e-05
9.87347e-06
1.20293e-05
-7.81598e-08
-1.19125e-05
1.18764e-05
1.21362e-05
-3.37689e-07
-1.45941e-05
1.48249e-05
1.19154e-05
-7.91195e-07
-1.80905e-05
1.91025e-05
9.6295e-06
-9.9683e-07
-2.12701e-05
2.45528e-05
-3.20237e-08
-1.74999e-05
2.69577e-05
3.30461e-05
6.5787e-08
-1.25706e-06
1.2822e-06
3.27484e-05
4.10877e-07
-3.34867e-06
3.43003e-06
3.23239e-05
5.67678e-07
-5.45999e-06
5.61867e-06
3.19242e-05
4.50763e-07
-7.65114e-06
7.87402e-06
3.16923e-05
1.53755e-07
-9.79186e-06
1.00311e-05
3.16937e-05
-1.85457e-07
-1.17499e-05
1.19599e-05
3.18907e-05
-4.19672e-07
-1.34729e-05
1.36207e-05
3.2162e-05
-4.59764e-07
-1.50156e-05
1.50905e-05
3.2351e-05
-2.96567e-07
-1.65367e-05
1.6553e-05
3.23102e-05
9.06622e-09
-1.82884e-05
1.82836e-05
3.19222e-05
3.42057e-07
-2.0607e-05
2.06469e-05
3.10739e-05
5.58942e-07
-2.39117e-05
2.41229e-05
2.95186e-05
4.98463e-07
-2.86547e-05
2.93738e-05
2.6337e-05
7.32346e-08
-3.48607e-05
3.71779e-05
1.87149e-05
-3.85629e-07
-3.98791e-05
4.68899e-05
1.9634e-07
-3.02631e-05
4.81366e-05
5.13993e-05
6.82116e-08
-9.7031e-07
1.00258e-06
5.11846e-05
5.0025e-07
-2.94408e-06
3.06946e-06
5.07731e-05
7.04219e-07
-5.28547e-06
5.56041e-06
5.02329e-05
5.60948e-07
-8.05195e-06
8.482e-06
4.97041e-05
1.45431e-07
-1.10375e-05
1.15746e-05
4.9303e-05
-3.43127e-07
-1.39613e-05
1.45202e-05
4.90565e-05
-6.79491e-07
-1.66104e-05
1.71167e-05
4.88869e-05
-7.01858e-07
-1.89141e-05
1.93258e-05
4.86323e-05
-3.59064e-07
-2.09742e-05
2.12913e-05
4.80858e-05
2.93252e-07
-2.30645e-05
2.33269e-05
4.70185e-05
1.1186e-06
-2.56026e-05
2.58933e-05
4.51537e-05
1.94972e-06
-2.91467e-05
2.96208e-05
4.20158e-05
2.59688e-06
-3.43519e-05
3.53914e-05
3.62747e-05
2.86374e-06
-4.14955e-05
4.44461e-05
2.45625e-05
2.47094e-06
-4.75095e-05
5.63652e-05
1.2783e-06
-3.58743e-05
5.82368e-05
6.66949e-05
2.45755e-08
-7.55989e-07
7.78516e-07
6.65854e-05
5.10639e-07
-2.2971e-06
2.39619e-06
6.62299e-05
7.87624e-07
-4.26917e-06
4.54126e-06
6.55715e-05
7.14626e-07
-6.90246e-06
7.40713e-06
6.46716e-05
3.38853e-07
-1.01063e-05
1.08128e-05
6.36642e-05
-1.50268e-07
-1.35706e-05
1.43852e-05
6.26676e-05
-4.88812e-07
-1.69414e-05
1.77473e-05
6.17143e-05
-4.59276e-07
-1.99656e-05
2.06763e-05
6.07194e-05
5.23378e-08
-2.25913e-05
2.31749e-05
5.94885e-05
1.03734e-06
-2.50088e-05
2.54956e-05
5.77482e-05
2.38169e-06
-2.76403e-05
2.81175e-05
5.51064e-05
3.94993e-06
-3.11092e-05
3.17508e-05
5.09336e-05
5.57926e-06
-3.62218e-05
3.74122e-05
4.35533e-05
7.07457e-06
-4.36078e-05
4.67773e-05
2.90353e-05
7.39725e-06
-5.03935e-05
5.99853e-05
3.81677e-06
-3.85607e-05
6.33e-05
7.8899e-05
-2.62153e-08
-6.3924e-07
6.56538e-07
7.88536e-05
5.02819e-07
-1.85745e-06
1.91065e-06
7.85707e-05
8.69559e-07
-3.3799e-06
3.5809e-06
7.78741e-05
9.53425e-07
-5.58781e-06
6.04559e-06
7.6711e-05
7.62656e-07
-8.58287e-06
9.32219e-06
7.51737e-05
4.49533e-07
-1.2159e-05
1.30965e-05
7.34242e-05
2.69141e-07
-1.59272e-05
1.69188e-05
7.16165e-05
4.2659e-07
-1.94877e-05
2.04095e-05
6.97698e-05
1.12946e-06
-2.26218e-05
2.33914e-05
6.77894e-05
2.38683e-06
-2.53734e-05
2.60043e-05
6.5419e-05
4.1742e-06
-2.81061e-05
2.8684e-05
6.2218e-05
6.44128e-06
-3.14574e-05
3.2167e-05
5.74676e-05
9.11271e-06
-3.6312e-05
3.75289e-05
4.92048e-05
1.21863e-05
-4.3631e-05
4.67821e-05
3.27945e-05
1.4053e-05
-5.09275e-05
6.0682e-05
8.10221e-06
-3.94883e-05
6.55173e-05
8.80286e-05
-5.65342e-08
-5.72494e-07
5.8358e-07
8.80079e-05
5.04775e-07
-1.60717e-06
1.62594e-06
8.77881e-05
9.63311e-07
-2.80993e-06
2.936e-06
8.7128e-05
1.23976e-06
-4.60918e-06
4.98294e-06
8.58665e-05
1.33126e-06
-7.25869e-06
7.95153e-06
8.4014e-05
1.34254e-06
-1.06962e-05
1.16556e-05
8.17378e-05
1.46147e-06
-1.45727e-05
1.56567e-05
7.92426e-05
1.88636e-06
-1.84258e-05
1.94612e-05
7.66949e-05
2.79047e-06
-2.18852e-05
2.27719e-05
7.40904e-05
4.27609e-06
-2.48751e-05
2.55903e-05
7.1255e-05
6.39233e-06
-2.76582e-05
2.82755e-05
6.77603e-05
9.23051e-06
-3.08405e-05
3.1546e-05
6.28644e-05
1.28535e-05
-3.53102e-05
3.64652e-05
5.43983e-05
1.76927e-05
-4.22919e-05
4.52515e-05
3.67183e-05
2.22196e-05
-4.98289e-05
5.93424e-05
1.49033e-05
-3.89618e-05
6.56318e-05
9.41058e-05
-6.83677e-08
-5.22576e-07
5.33888e-07
9.40894e-05
5.20947e-07
-1.45157e-06
1.45178e-06
9.392e-05
1.05893e-06
-2.46343e-06
2.53718e-06
9.33304e-05
1.53013e-06
-3.97602e-06
4.27528e-06
9.20902e-05
1.94173e-06
-6.31906e-06
6.94873e-06
9.01407e-05
2.35211e-06
-9.53662e-06
1.04766e-05
8.76193e-05
2.87013e-06
-1.33455e-05
1.44583e-05
8.47731e-05
3.6306e-06
-1.72665e-05
1.83685e-05
8.18395e-05
4.77103e-06
-2.08527e-05
2.18058e-05
7.89282e-05
6.42951e-06
-2.39136e-05
2.46714e-05
7.59668e-05
8.73398e-06
-2.66174e-05
2.72372e-05
7.2603e-05
1.19418e-05
-2.95064e-05
3.01589e-05
6.81433e-05
1.62921e-05
-3.33942e-05
3.44153e-05
6.04191e-05
2.28494e-05
-3.96454e-05
4.22128e-05
4.23809e-05
3.14863e-05
-4.70934e-05
5.5865e-05
2.65388e-05
-3.6729e-05
6.34487e-05
9.71379e-05
-4.82071e-07
4.93778e-07
-6.47476e-08
9.7128e-05
-1.33624e-06
1.32729e-06
5.39757e-07
9.70047e-05
-2.23512e-06
2.28079e-06
1.13652e-06
9.64963e-05
-3.57686e-06
3.83143e-06
1.78402e-06
9.53447e-05
-5.71378e-06
6.29811e-06
2.50897e-06
9.34571e-05
-8.73877e-06
9.6514e-06
3.32707e-06
9.09527e-05
-1.2408e-05
1.35196e-05
4.26296e-06
8.80957e-05
-1.62449e-05
1.73671e-05
5.3654e-06
8.51718e-05
-1.97661e-05
2.07439e-05
6.71719e-06
8.23775e-05
-2.27134e-05
2.34823e-05
8.4548e-06
7.97515e-05
-2.5176e-05
2.57759e-05
1.07601e-05
7.71181e-05
-2.76035e-05
2.81713e-05
1.40074e-05
7.3986e-05
-3.06619e-05
3.14859e-05
1.86e-05
6.86876e-05
-3.55626e-05
3.7447e-05
2.62635e-05
5.35732e-05
-4.24038e-05
4.93376e-05
3.96668e-05
-3.20305e-05
5.6383e-05
5.09669e-05
1.26336e-05
-3.39753e-08
-1.04254e-06
1.23911e-05
1.54371e-07
-2.07436e-06
1.20004e-05
2.55277e-07
-2.90774e-06
1.16058e-05
2.19398e-07
-3.71126e-06
1.131e-05
9.47034e-08
-4.4868e-06
1.11525e-05
-5.67781e-08
-5.21995e-06
1.11058e-05
-1.73364e-07
-5.91739e-06
1.1096e-05
-2.21252e-07
-6.61552e-06
1.10339e-05
-1.99895e-07
-7.3813e-06
1.08406e-05
-1.41976e-07
-8.30942e-06
1.04635e-05
-1.08374e-07
-9.51713e-06
9.86509e-06
-1.81738e-07
-1.11324e-05
8.95504e-06
-4.49065e-07
-1.3235e-05
7.39306e-06
-9.13705e-07
-1.56148e-05
4.3955e-06
-1.38027e-06
-1.68923e-05
-1.27536e-06
-1.20668e-05
3.53309e-05
3.079e-08
-1.18318e-06
3.49329e-05
3.43597e-07
-3.13992e-06
3.43439e-05
4.7992e-07
-5.09562e-06
3.37065e-05
3.41599e-07
-7.13596e-06
3.31641e-05
5.697e-10
-9.15532e-06
3.27888e-05
-3.92763e-07
-1.10386e-05
3.25406e-05
-6.74123e-07
-1.27239e-05
3.22847e-05
-7.39262e-07
-1.42418e-05
3.18354e-05
-5.70797e-07
-1.57164e-05
3.09958e-05
-2.34918e-07
-1.73559e-05
2.95734e-05
1.38822e-07
-1.94318e-05
2.7347e-05
3.80689e-07
-2.22478e-05
2.39399e-05
3.04768e-07
-2.60014e-05
1.85557e-05
-1.7834e-07
-3.02118e-05
1.00976e-05
-1.03932e-06
-3.17619e-05
-1.40158e-06
-2.07379e-05
5.49731e-05
2.96658e-08
-9.03404e-07
5.46654e-05
4.30978e-07
-2.72368e-06
5.40929e-05
6.15256e-07
-4.8484e-06
5.33044e-05
4.42402e-07
-7.36419e-06
5.24221e-05
-3.25983e-08
-1.0122e-05
5.15551e-05
-6.06531e-07
-1.28806e-05
5.07311e-05
-1.02563e-06
-1.54349e-05
4.98654e-05
-1.09621e-06
-1.76914e-05
4.87719e-05
-7.44356e-07
-1.97072e-05
4.71974e-05
-3.10426e-08
-2.16939e-05
4.4822e-05
9.08318e-07
-2.39967e-05
4.12386e-05
1.84979e-06
-2.70324e-05
3.57969e-05
2.566e-06
-3.11714e-05
2.73568e-05
2.78212e-06
-3.60159e-05
1.45267e-05
2.05353e-06
-3.77723e-05
2.71795e-07
-2.42435e-05
7.13399e-05
-1.64054e-08
-7.03057e-07
7.11495e-05
4.50762e-07
-2.12652e-06
7.06655e-05
7.19245e-07
-3.88912e-06
6.98014e-05
6.31243e-07
-6.22722e-06
6.85793e-05
2.01379e-07
-9.11818e-06
6.70988e-05
-3.76035e-07
-1.23206e-05
6.54656e-05
-8.12531e-07
-1.55213e-05
6.37097e-05
-8.45529e-07
-1.84604e-05
6.17386e-05
-3.2436e-07
-2.10402e-05
5.93206e-05
7.56914e-07
-2.33788e-05
5.61012e-05
2.28677e-06
-2.57994e-05
5.15387e-05
4.09094e-06
-2.87877e-05
4.47785e-05
5.96675e-06
-3.28623e-05
3.42627e-05
7.57406e-06
-3.7884e-05
1.8221e-05
7.65468e-06
-3.99529e-05
3.77921e-06
-2.57108e-05
8.43964e-05
-6.06629e-08
-5.98357e-07
8.42735e-05
4.54655e-07
-1.73845e-06
8.38838e-05
8.25629e-07
-3.09657e-06
8.30352e-05
9.10913e-07
-5.0189e-06
8.16187e-05
6.92761e-07
-7.65768e-06
7.96594e-05
3.20106e-07
-1.08959e-05
7.72812e-05
5.58466e-08
-1.44173e-05
7.46184e-05
1.75244e-07
-1.78457e-05
7.17067e-05
8.85549e-07
-2.092e-05
6.84243e-05
2.27545e-06
-2.36095e-05
6.44539e-05
4.3186e-06
-2.61676e-05
5.92085e-05
6.95632e-06
-2.90774e-05
5.17053e-05
1.01086e-05
-3.29506e-05
3.99882e-05
1.3598e-05
-3.79378e-05
2.16118e-05
1.5391e-05
-4.02875e-05
9.34103e-06
-2.60178e-05
9.41684e-05
-8.89551e-08
-5.34841e-07
9.4065e-05
4.70961e-07
-1.52007e-06
9.37448e-05
9.42365e-07
-2.60653e-06
9.29685e-05
1.23415e-06
-4.15608e-06
9.15195e-05
1.32618e-06
-6.44318e-06
8.93243e-05
1.3148e-06
-9.49564e-06
8.64726e-05
1.39951e-06
-1.30646e-05
8.31411e-05
1.81623e-06
-1.67353e-05
7.94875e-05
2.77663e-06
-2.01227e-05
7.55204e-05
4.43437e-06
-2.30669e-05
7.10235e-05
6.87168e-06
-2.57144e-05
6.54397e-05
1.02058e-05
-2.85062e-05
5.77573e-05
1.45592e-05
-3.20784e-05
4.56575e-05
2.02597e-05
-3.68538e-05
2.55182e-05
2.51073e-05
-3.94058e-05
1.79337e-05
-2.53731e-05
0.000100674
-9.86348e-08
-4.86437e-07
0.000100571
5.0354e-07
-1.38118e-06
0.000100301
1.06035e-06
-2.31078e-06
9.96143e-05
1.55402e-06
-3.60944e-06
9.8238e-05
1.98671e-06
-5.60325e-06
9.60187e-05
2.4152e-06
-8.4177e-06
9.29962e-05
2.95703e-06
-1.18806e-05
8.93629e-05
3.77028e-06
-1.55873e-05
8.53493e-05
5.02547e-06
-1.9088e-05
8.10842e-05
6.90477e-06
-2.21189e-05
7.64848e-05
9.58521e-06
-2.47314e-05
7.10952e-05
1.33911e-05
-2.73021e-05
6.39974e-05
1.86841e-05
-3.04212e-05
5.26909e-05
2.66603e-05
-3.47396e-05
3.16789e-05
3.64602e-05
-3.74344e-05
3.25065e-05
-2.37294e-05
0.000103921
-4.47968e-07
-9.09251e-08
0.000103824
-1.27583e-06
5.3981e-07
0.0001036
-2.1109e-06
1.15956e-06
0.000103008
-3.26154e-06
1.83131e-06
0.000101753
-5.06376e-06
2.59129e-06
9.96499e-05
-7.68398e-06
3.46383e-06
9.67111e-05
-1.09936e-05
4.48141e-06
9.31345e-05
-1.46018e-05
5.70371e-06
8.91983e-05
-1.80353e-05
7.23087e-06
8.51288e-05
-2.09723e-05
9.23322e-06
8.09882e-05
-2.33931e-05
1.19429e-05
7.65373e-05
-2.55998e-05
1.58383e-05
7.11599e-05
-2.80753e-05
2.14749e-05
6.27436e-05
-3.15485e-05
3.10626e-05
4.4466e-05
-3.44349e-05
4.67689e-05
-2.10075e-05
6.10799e-05
1.33173e-05
-5.75329e-08
-9.54163e-07
1.30189e-05
1.16297e-07
-1.89231e-06
1.25453e-05
2.08946e-07
-2.64309e-06
1.20412e-05
1.62219e-07
-3.36934e-06
1.16102e-05
2.37873e-08
-4.07964e-06
1.12949e-05
-1.45657e-07
-4.75898e-06
1.10668e-05
-2.80916e-07
-5.40833e-06
1.08457e-05
-3.41876e-07
-6.05255e-06
1.05304e-05
-3.25176e-07
-6.74088e-06
1.00275e-05
-2.63828e-07
-7.54266e-06
9.26787e-06
-2.19946e-07
-8.53759e-06
8.20487e-06
-2.75958e-07
-9.79344e-06
6.77355e-06
-5.03029e-07
-1.13007e-05
4.82534e-06
-9.05998e-07
-1.27606e-05
2.32109e-06
-1.42376e-06
-1.29643e-05
-1.47378e-06
-8.53199e-06
3.72854e-05
-2.06716e-09
-1.06324e-06
3.67945e-05
2.81118e-07
-2.8138e-06
3.6058e-05
3.95967e-07
-4.54621e-06
3.52176e-05
2.20905e-07
-6.35425e-06
3.44076e-05
-1.51352e-07
-8.17016e-06
3.37083e-05
-6.00137e-07
-9.88482e-06
3.30753e-05
-9.34219e-07
-1.14377e-05
3.23636e-05
-1.03272e-06
-1.28392e-05
3.13677e-05
-8.67772e-07
-1.4178e-05
2.98647e-05
-5.05423e-07
-1.56113e-05
2.76342e-05
-8.10591e-08
-1.73402e-05
2.44536e-05
2.131e-07
-1.95562e-05
2.00285e-05
2.10507e-07
-2.22899e-05
1.39824e-05
-1.84598e-07
-2.48871e-05
6.51472e-06
-1.11101e-06
-2.46069e-05
-1.70022e-06
-1.47524e-05
5.80337e-05
-5.71877e-09
-8.04638e-07
5.76395e-05
3.68348e-07
-2.41673e-06
5.69247e-05
5.33346e-07
-4.27097e-06
5.59236e-05
3.22151e-07
-6.46433e-06
5.47436e-05
-1.9953e-07
-8.89378e-06
5.34838e-05
-8.56514e-07
-1.13645e-05
5.21677e-05
-1.36213e-06
-1.36908e-05
5.07037e-05
-1.49117e-06
-1.5769e-05
4.8891e-05
-1.14481e-06
-1.76174e-05
4.64473e-05
-3.69499e-07
-1.93861e-05
4.30297e-05
6.69618e-07
-2.13297e-05
3.82089e-05
1.74382e-06
-2.37424e-05
3.14213e-05
2.60514e-06
-2.67784e-05
2.204e-05
2.95257e-06
-2.97717e-05
1.02955e-05
2.18433e-06
-2.93231e-05
1.86735e-07
-1.71334e-05
7.53183e-05
-4.83229e-08
-6.26534e-07
7.5052e-05
3.96695e-07
-1.8886e-06
7.44508e-05
6.57112e-07
-3.41163e-06
7.34079e-05
5.53597e-07
-5.41577e-06
7.19202e-05
8.04479e-08
-7.91045e-06
7.00503e-05
-5.78283e-07
-1.0729e-05
6.78853e-05
-1.11226e-06
-1.36062e-05
6.54479e-05
-1.21802e-06
-1.62961e-05
6.26405e-05
-7.05541e-07
-1.86721e-05
5.92216e-05
4.57242e-07
-2.07865e-05
5.48053e-05
2.15457e-06
-2.28681e-05
4.88304e-05
4.19291e-06
-2.52619e-05
4.04909e-05
6.34212e-06
-2.82598e-05
2.87443e-05
8.18992e-06
-3.13748e-05
1.36692e-05
8.28829e-06
-3.09817e-05
4.18523e-06
-1.79868e-05
8.91087e-05
-9.027e-08
-5.34241e-07
8.89106e-05
4.12487e-07
-1.5561e-06
8.84159e-05
7.8722e-07
-2.73198e-06
8.74289e-05
8.7657e-07
-4.35492e-06
8.58035e-05
6.39065e-07
-6.59089e-06
8.35067e-05
2.13239e-07
-9.39059e-06
8.06173e-05
-1.2773e-07
-1.25125e-05
7.72444e-05
-6.66184e-08
-1.56243e-05
7.34293e-05
6.44995e-07
-1.84554e-05
6.90473e-05
2.14177e-06
-2.0912e-05
6.37755e-05
4.40887e-06
-2.31501e-05
5.701e-05
7.38523e-06
-2.55042e-05
4.77823e-05
1.09773e-05
-2.8358e-05
3.45955e-05
1.48976e-05
-3.14586e-05
1.69737e-05
1.68258e-05
-3.12032e-05
1.05179e-05
-1.80399e-05
9.94327e-05
-1.17297e-07
-4.75628e-07
9.92506e-05
4.4334e-07
-1.36886e-06
9.88264e-05
9.27212e-07
-2.32229e-06
9.79342e-05
1.23631e-06
-3.62361e-06
9.6327e-05
1.33472e-06
-5.53158e-06
9.3864e-05
1.30837e-06
-8.1278e-06
9.05616e-05
1.35928e-06
-1.12492e-05
8.65495e-05
1.76135e-06
-1.45512e-05
8.19724e-05
2.76002e-06
-1.76607e-05
7.686e-05
4.55864e-06
-2.03713e-05
7.10068e-05
7.27142e-06
-2.27238e-05
6.38591e-05
1.10369e-05
-2.501e-05
5.44021e-05
1.60048e-05
-2.7649e-05
4.06719e-05
2.24071e-05
-3.06332e-05
2.10051e-05
2.76338e-05
-3.05471e-05
2.02172e-05
-1.74846e-05
0.000106307
-1.24716e-07
-4.31354e-07
0.000106124
4.92229e-07
-1.24728e-06
0.000105747
1.0688e-06
-2.07512e-06
0.000104954
1.58676e-06
-3.16756e-06
0.000103456
2.04352e-06
-4.814e-06
0.000101032
2.49238e-06
-7.17737e-06
9.76291e-05
3.05573e-06
-1.01743e-05
9.33739e-05
3.91216e-06
-1.34829e-05
8.84733e-05
5.26153e-06
-1.66888e-05
8.30771e-05
7.32714e-06
-1.94913e-05
7.71348e-05
1.03282e-05
-2.18459e-05
7.0217e-05
1.4636e-05
-2.39834e-05
6.14177e-05
2.06844e-05
-2.63015e-05
4.8445e-05
2.96762e-05
-2.9036e-05
2.75678e-05
4.02781e-05
-2.92014e-05
3.62445e-05
-1.6373e-05
0.000109736
-3.96693e-07
-1.13495e-07
0.000109561
-1.15388e-06
5.45527e-07
0.000109232
-1.90429e-06
1.19122e-06
0.000108542
-2.87401e-06
1.88962e-06
0.00010719
-4.35306e-06
2.68431e-06
0.000104927
-6.53535e-06
3.60705e-06
0.00010167
-9.37885e-06
4.69752e-06
9.75399e-05
-1.25846e-05
6.02544e-06
9.27852e-05
-1.57255e-05
7.70634e-06
8.76557e-05
-1.84548e-05
9.93924e-06
8.22642e-05
-2.06699e-05
1.29964e-05
7.64174e-05
-2.25424e-05
1.74254e-05
6.95562e-05
-2.44031e-05
2.38735e-05
5.9631e-05
-2.66594e-05
3.47122e-05
4.1139e-05
-2.73341e-05
5.16693e-05
-1.4696e-05
6.61263e-05
1.38835e-05
-7.67594e-08
-8.21569e-07
1.35343e-05
8.23872e-08
-1.62544e-06
1.29877e-05
1.67195e-07
-2.26366e-06
1.23881e-05
1.12371e-07
-2.8821e-06
1.18424e-05
-4.19099e-08
-3.49208e-06
1.13945e-05
-2.30576e-07
-4.08048e-06
1.10159e-05
-3.8525e-07
-4.64448e-06
1.06232e-05
-4.61038e-07
-5.19885e-06
1.01099e-05
-4.51012e-07
-5.77653e-06
9.37796e-06
-3.86748e-07
-6.42398e-06
8.36024e-06
-3.29964e-07
-7.1899e-06
7.02562e-06
-3.56151e-07
-8.10267e-06
5.36335e-06
-5.24774e-07
-9.11361e-06
3.38544e-06
-8.44971e-07
-9.93772e-06
1.38946e-06
-1.31215e-06
-9.65617e-06
-1.36751e-06
-6.04958e-06
3.89112e-05
-2.91908e-08
-9.01769e-07
3.83373e-05
2.2677e-07
-2.38428e-06
3.74742e-05
3.23076e-07
-3.83906e-06
3.64561e-05
1.32878e-07
-5.35668e-06
3.5425e-05
-2.8909e-07
-6.8918e-06
3.44566e-05
-7.89812e-07
-8.35718e-06
3.35057e-05
-1.17636e-06
-9.69573e-06
3.24208e-05
-1.31146e-06
-1.09038e-05
3.09861e-05
-1.15548e-06
-1.20388e-05
2.89699e-05
-7.70881e-07
-1.3211e-05
2.61567e-05
-2.98439e-07
-1.45585e-05
2.23626e-05
7.3879e-08
-1.61921e-05
1.7423e-05
1.85871e-07
-1.80609e-05
1.13122e-05
-8.19748e-08
-1.95394e-05
4.80837e-06
-8.9741e-07
-1.85178e-05
-1.56126e-06
-1.05435e-05
6.05821e-05
-3.34705e-08
-6.78713e-07
6.01106e-05
3.1399e-07
-2.03241e-06
5.92711e-05
4.61996e-07
-3.57047e-06
5.80911e-05
2.35136e-07
-5.3866e-06
5.66646e-05
-3.44537e-07
-7.41177e-06
5.50825e-05
-1.0761e-06
-9.49613e-06
5.33628e-05
-1.6641e-06
-1.14834e-05
5.14088e-05
-1.85413e-06
-1.32723e-05
4.90124e-05
-1.52181e-06
-1.48547e-05
4.5884e-05
-7.01534e-07
-1.63271e-05
4.1685e-05
4.3698e-07
-1.78661e-05
3.60292e-05
1.65295e-06
-1.96657e-05
2.85053e-05
2.69186e-06
-2.17605e-05
1.89e-05
3.23123e-06
-2.34797e-05
8.26562e-06
2.5642e-06
-2.21503e-05
4.43699e-07
-1.22239e-05
7.86327e-05
-7.33198e-08
-5.2936e-07
7.82976e-05
3.50458e-07
-1.58997e-06
7.7589e-05
6.04405e-07
-2.8454e-06
7.63976e-05
4.9193e-07
-4.48113e-06
7.46896e-05
-1.81025e-08
-6.52892e-06
7.25047e-05
-7.46948e-07
-8.87327e-06
6.99097e-05
-1.3702e-06
-1.13051e-05
6.69181e-05
-1.54944e-06
-1.36092e-05
6.3433e-05
-1.05659e-06
-1.56522e-05
5.92164e-05
1.6959e-07
-1.74411e-05
5.38897e-05
2.0144e-06
-1.91188e-05
4.69327e-05
4.27036e-06
-2.09224e-05
3.76779e-05
6.6865e-06
-2.29996e-05
2.55356e-05
8.79567e-06
-2.4797e-05
1.15207e-05
9.00978e-06
-2.34123e-05
4.72741e-06
-1.27591e-05
9.30367e-05
-1.15066e-07
-4.50125e-07
9.27706e-05
3.77303e-07
-1.31681e-06
9.21778e-05
7.55348e-07
-2.29015e-06
9.10667e-05
8.5117e-07
-3.60308e-06
8.92673e-05
6.0131e-07
-5.41091e-06
8.67018e-05
1.33675e-07
-7.70563e-06
8.34069e-05
-2.74119e-07
-1.03137e-05
7.94654e-05
-2.71572e-07
-1.29606e-05
7.49253e-05
4.21874e-07
-1.53938e-05
6.96643e-05
2.00743e-06
-1.74889e-05
6.33948e-05
4.4613e-06
-1.93274e-05
5.55545e-05
7.72887e-06
-2.11225e-05
4.52921e-05
1.16959e-05
-2.31049e-05
3.15447e-05
1.59863e-05
-2.49018e-05
1.48472e-05
1.80845e-05
-2.35804e-05
1.15346e-05
-1.27304e-05
0.000103821
-1.41149e-07
-3.99531e-07
0.00010357
4.21506e-07
-1.16218e-06
0.000103047
9.16673e-07
-1.96101e-06
0.000102044
1.24336e-06
-3.01255e-06
0.000100299
1.35217e-06
-4.53734e-06
9.7625e-05
1.31736e-06
-6.63745e-06
9.39736e-05
1.34444e-06
-9.21638e-06
8.94296e-05
1.72502e-06
-1.20038e-05
8.41158e-05
2.74602e-06
-1.46711e-05
7.80944e-05
4.65479e-06
-1.69972e-05
7.11964e-05
7.59096e-06
-1.89555e-05
6.29291e-05
1.17087e-05
-2.07226e-05
5.23793e-05
1.71603e-05
-2.25636e-05
3.79575e-05
2.40831e-05
-2.43082e-05
1.90209e-05
2.95998e-05
-2.31258e-05
2.18965e-05
-1.23123e-05
0.000111001
-1.46718e-07
-3.61641e-07
0.00011075
4.85258e-07
-1.06013e-06
0.000110273
1.08067e-06
-1.76156e-06
0.000109374
1.62235e-06
-2.64796e-06
0.000107763
2.10409e-06
-3.9551e-06
0.000105176
2.57455e-06
-5.84736e-06
0.000101488
3.15858e-06
-8.30033e-06
9.67569e-05
4.04904e-06
-1.10758e-05
9.11609e-05
5.47223e-06
-1.3819e-05
8.48711e-05
7.68633e-06
-1.62331e-05
7.78898e-05
1.09441e-05
-1.82177e-05
6.98642e-05
1.56471e-05
-1.98962e-05
5.99884e-05
2.22605e-05
-2.15259e-05
4.62518e-05
3.19377e-05
-2.31539e-05
2.58608e-05
4.30277e-05
-2.22383e-05
3.87105e-05
-1.15805e-05
0.000114584
-3.32234e-07
-1.32602e-07
0.000114343
-9.81244e-07
5.53897e-07
0.000113915
-1.62122e-06
1.22536e-06
0.000113124
-2.41062e-06
1.9502e-06
0.000111677
-3.58037e-06
2.7777e-06
0.000109288
-5.31639e-06
3.74546e-06
0.000105798
-7.63003e-06
4.89911e-06
0.000101254
-1.03078e-05
6.3166e-06
9.5867e-05
-1.2992e-05
8.12566e-06
8.99033e-05
-1.53527e-05
1.05478e-05
8.35368e-05
-1.72432e-05
1.3884e-05
7.66592e-05
-1.87419e-05
1.87242e-05
6.88212e-05
-2.00655e-05
2.5761e-05
5.81421e-05
-2.1444e-05
3.74013e-05
3.98539e-05
-2.10829e-05
5.50647e-05
-1.05056e-05
6.93568e-05
1.43341e-05
-9.17613e-08
-6.5148e-07
1.39409e-05
5.39882e-08
-1.2863e-06
1.3333e-05
1.31376e-07
-1.78707e-06
1.26545e-05
6.9303e-08
-2.27291e-06
1.20156e-05
-9.85252e-08
-2.75462e-06
1.14615e-05
-3.0437e-07
-3.22205e-06
1.09648e-05
-4.77078e-07
-3.67069e-06
1.04412e-05
-5.67262e-07
-4.108e-06
9.78281e-06
-5.64182e-07
-4.55395e-06
8.89343e-06
-4.97516e-07
-5.03708e-06
7.71448e-06
-4.26299e-07
-5.58465e-06
6.23568e-06
-4.20186e-07
-6.20369e-06
4.4921e-06
-5.30023e-07
-6.84e-06
2.59021e-06
-7.67631e-07
-7.2682e-06
9.47297e-07
-1.1619e-06
-6.85136e-06
-1.21685e-06
-4.16937e-06
4.0209e-05
-4.72594e-08
-7.07552e-07
3.9565e-05
1.81612e-07
-1.86793e-06
3.85971e-05
2.58716e-07
-2.99845e-06
3.7434e-05
5.39744e-08
-4.17824e-06
3.62244e-05
-4.04136e-07
-5.37665e-06
3.50421e-05
-9.50045e-07
-6.52921e-06
3.38415e-05
-1.38391e-06
-7.58823e-06
3.24674e-05
-1.554e-06
-8.54309e-06
3.07006e-05
-1.40894e-06
-9.42718e-06
2.83114e-05
-1.00694e-06
-1.03123e-05
2.51019e-05
-4.8817e-07
-1.12871e-05
2.0935e-05
-3.44289e-08
-1.24109e-05
1.576e-05
1.95381e-07
-1.36113e-05
9.76714e-06
7.38261e-08
-1.4388e-05
3.94134e-06
-6.01319e-07
-1.32526e-05
-1.32158e-06
-7.31542e-06
6.26198e-05
-5.23099e-08
-5.29812e-07
6.20833e-05
2.69442e-07
-1.58373e-06
6.11391e-05
4.02974e-07
-2.77046e-06
5.98134e-05
1.59202e-07
-4.16618e-06
5.81895e-05
-4.61689e-07
-5.73029e-06
5.6353e-05
-1.2559e-06
-7.35376e-06
5.4317e-05
-1.91591e-06
-8.91543e-06
5.19816e-05
-2.16248e-06
-1.03284e-05
4.91373e-05
-1.84781e-06
-1.15716e-05
4.54983e-05
-9.93689e-07
-1.27012e-05
4.07441e-05
2.32766e-07
-1.38329e-05
3.45495e-05
1.58098e-06
-1.50865e-05
2.66372e-05
2.79225e-06
-1.64451e-05
1.70644e-05
3.52649e-06
-1.73595e-05
7.22598e-06
2.99689e-06
-1.59101e-05
7.79257e-07
-8.48645e-06
8.1285e-05
-9.34353e-08
-4.12858e-07
8.0891e-05
3.13261e-07
-1.23984e-06
8.00913e-05
5.61326e-07
-2.20404e-06
7.8776e-05
4.42846e-07
-3.44948e-06
7.68921e-05
-9.40234e-08
-5.01265e-06
7.44607e-05
-8.7901e-07
-6.81879e-06
7.15317e-05
-1.57789e-06
-8.71408e-06
6.81107e-05
-1.82345e-06
-1.05273e-05
6.41028e-05
-1.35447e-06
-1.21375e-05
5.92867e-05
-9.22454e-08
-1.35265e-05
5.32997e-05
1.88537e-06
-1.47843e-05
4.56863e-05
4.32695e-06
-1.60549e-05
3.59126e-05
6.97596e-06
-1.74096e-05
2.36938e-05
9.32192e-06
-1.83737e-05
1.04417e-05
9.6752e-06
-1.68386e-05
5.2432e-06
-8.83638e-06
9.61798e-05
-1.35084e-07
-3.50578e-07
9.5857e-05
3.49361e-07
-1.03011e-06
9.51792e-05
7.30189e-07
-1.78126e-06
9.39611e-05
8.32906e-07
-2.77508e-06
9.20202e-05
5.76169e-07
-4.14018e-06
8.92454e-05
7.82874e-08
-5.88809e-06
8.56403e-05
-3.84246e-07
-7.9022e-06
8.12637e-05
-4.34019e-07
-9.9735e-06
7.61697e-05
2.34157e-07
-1.18884e-05
7.02411e-05
1.88555e-06
-1.3538e-05
6.3243e-05
4.48816e-06
-1.49322e-05
5.46695e-05
7.98979e-06
-1.62118e-05
4.37947e-05
1.22557e-05
-1.75098e-05
2.98541e-05
1.68418e-05
-1.84811e-05
1.38201e-05
1.91024e-05
-1.69735e-05
1.23467e-05
-8.79625e-06
0.000107332
-1.60391e-07
-3.10539e-07
0.000107025
4.04943e-07
-9.10673e-07
0.000106417
9.0967e-07
-1.53281e-06
0.000105315
1.25228e-06
-2.32977e-06
0.000103453
1.3731e-06
-3.47186e-06
0.000100614
1.33551e-06
-5.0557e-06
9.66998e-05
1.3433e-06
-7.03009e-06
9.17554e-05
1.70568e-06
-9.19909e-06
8.58839e-05
2.73809e-06
-1.13035e-05
7.91763e-05
4.72731e-06
-1.31314e-05
7.151e-05
7.83438e-06
-1.46354e-05
6.24671e-05
1.22229e-05
-1.59127e-05
5.12487e-05
1.80354e-05
-1.7125e-05
3.65311e-05
2.53321e-05
-1.80809e-05
1.81178e-05
3.10699e-05
-1.66801e-05
2.31184e-05
-8.50869e-06
0.000114758
-1.64519e-07
-2.80721e-07
0.000114452
4.81292e-07
-8.30975e-07
0.000113888
1.09322e-06
-1.38157e-06
0.000112893
1.65608e-06
-2.0565e-06
0.000111182
2.16115e-06
-3.03178e-06
0.000108466
2.65251e-06
-4.44802e-06
0.000104566
3.25517e-06
-6.31229e-06
9.94835e-05
4.17247e-06
-8.46045e-06
9.33679e-05
5.65097e-06
-1.06163e-05
8.64071e-05
7.97686e-06
-1.25218e-05
7.86581e-05
1.14283e-05
-1.40627e-05
6.98535e-05
1.64254e-05
-1.52941e-05
5.92979e-05
2.34415e-05
-1.63765e-05
4.51909e-05
3.3575e-05
-1.72898e-05
2.51546e-05
4.49849e-05
-1.61169e-05
4.04214e-05
-8.04179e-06
0.000118463
-2.57703e-07
-1.4807e-07
0.000118169
-7.69187e-07
5.62817e-07
0.000117657
-1.27375e-06
1.25748e-06
0.000116773
-1.87682e-06
2.00622e-06
0.000115239
-2.74778e-06
2.86269e-06
0.000112747
-4.04091e-06
3.86891e-06
0.000109089
-5.79101e-06
5.07492e-06
0.000104245
-7.85637e-06
6.56477e-06
9.83914e-05
-9.96285e-06
8.47534e-06
9.18039e-05
-1.18324e-05
1.10441e-05
8.47125e-05
-1.33148e-05
1.45913e-05
7.70962e-05
-1.44327e-05
1.97325e-05
6.8616e-05
-1.53214e-05
2.71776e-05
5.75308e-05
-1.61158e-05
3.93321e-05
3.94176e-05
-1.5413e-05
5.74283e-05
-7.35095e-06
7.1606e-05
1.46704e-05
-1.03466e-07
-4.51233e-07
1.42422e-05
3.18837e-08
-8.90042e-07
1.35863e-05
1.03478e-07
-1.23458e-06
1.28473e-05
3.48602e-08
-1.56878e-06
1.21377e-05
-1.43721e-07
-1.90128e-06
1.15044e-05
-3.63701e-07
-2.22512e-06
1.09214e-05
-5.51581e-07
-2.53608e-06
1.03048e-05
-6.54183e-07
-2.83724e-06
9.54757e-06
-6.5732e-07
-3.13937e-06
8.55719e-06
-5.88523e-07
-3.45819e-06
7.28472e-06
-5.04846e-07
-3.80733e-06
5.73661e-06
-4.69922e-07
-4.18565e-06
3.97841e-06
-5.30858e-07
-4.55094e-06
2.16316e-06
-7.00725e-07
-4.75222e-06
7.38791e-07
-1.03211e-06
-4.39488e-06
-1.09091e-06
-2.62965e-06
4.11808e-05
-6.21198e-08
-4.86316e-07
4.04819e-05
1.46654e-07
-1.2838e-06
3.94314e-05
2.11713e-07
-2.05621e-06
3.81584e-05
-7.99483e-09
-2.86243e-06
3.68143e-05
-4.92802e-07
-3.68346e-06
3.5473e-05
-1.07478e-06
-4.47681e-06
3.4089e-05
-1.54734e-06
-5.20846e-06
3.25062e-05
-1.74711e-06
-5.86735e-06
3.05048e-05
-1.61244e-06
-6.47072e-06
2.78613e-05
-1.19685e-06
-7.06051e-06
2.43978e-05
-6.40182e-07
-7.68828e-06
2.00156e-05
-1.14999e-07
-8.38362e-06
1.47457e-05
2.13684e-07
-9.08594e-06
8.8936e-06
2.19139e-07
-9.45577e-06
3.50256e-06
-3.34844e-07
-8.55883e-06
-1.10134e-06
-4.63683e-06
6.41472e-05
-6.7589e-08
-3.62917e-07
6.3559e-05
2.35862e-07
-1.08473e-06
6.25342e-05
3.5835e-07
-1.89227e-06
6.10965e-05
1.01714e-07
-2.83824e-06
5.93243e-05
-5.49187e-07
-3.90166e-06
5.72991e-05
-1.39178e-06
-5.01161e-06
5.50311e-05
-2.10913e-06
-6.08556e-06
5.24185e-05
-2.40257e-06
-7.06038e-06
4.9253e-05
-2.10414e-06
-7.91447e-06
4.52561e-05
-1.22424e-06
-8.67696e-06
4.01299e-05
6.95933e-08
-9.41646e-06
3.36034e-05
1.52605e-06
-1.02009e-05
2.54938e-05
2.88011e-06
-1.1002e-05
1.60179e-05
3.77791e-06
-1.14424e-05
6.69233e-06
3.37117e-06
-1.02906e-05
1.07672e-06
-5.38463e-06
8.32737e-05
-1.08668e-07
-2.82462e-07
8.28339e-05
2.85167e-07
-8.49357e-07
8.19621e-05
5.29668e-07
-1.50355e-06
8.05507e-05
4.06535e-07
-2.34288e-06
7.85341e-05
-1.48157e-07
-3.39705e-06
7.59207e-05
-9.74732e-07
-4.62244e-06
7.27481e-05
-1.73231e-06
-5.91829e-06
6.9016e-05
-2.0316e-06
-7.16614e-06
6.46325e-05
-1.58242e-06
-8.27576e-06
5.93882e-05
-2.83622e-07
-9.22289e-06
5.29519e-05
1.77784e-06
-1.00563e-05
4.49181e-05
4.36435e-06
-1.08594e-05
3.48558e-05
7.19589e-06
-1.1663e-05
2.26627e-05
9.73086e-06
-1.21335e-05
9.90104e-06
1.02071e-05
-1.09128e-05
5.65768e-06
-5.60327e-06
9.8537e-05
-1.50179e-07
-2.3947e-07
9.81703e-05
3.28624e-07
-7.06923e-07
9.74255e-05
7.11613e-07
-1.21833e-06
9.61218e-05
8.20699e-07
-1.88562e-06
9.40725e-05
5.60803e-07
-2.79975e-06
9.1143e-05
4.28936e-08
-3.97624e-06
8.73139e-05
-4.61003e-07
-5.34439e-06
8.26271e-05
-5.53961e-07
-6.76438e-06
7.71269e-05
1.14222e-07
-8.0849e-06
7.07319e-05
1.78936e-06
-9.21594e-06
6.3229e-05
4.49917e-06
-1.01506e-05
5.41754e-05
8.17436e-06
-1.09683e-05
4.29423e-05
1.26612e-05
-1.17419e-05
2.89462e-05
1.74673e-05
-1.22214e-05
1.33313e-05
1.98612e-05
-1.10127e-05
1.2947e-05
-5.57433e-06
0.000109965
-1.7491e-07
-2.11827e-07
0.000109616
3.93138e-07
-6.25463e-07
0.000108941
9.0537e-07
-1.05176e-06
0.000107758
1.26103e-06
-1.58773e-06
0.000105803
1.3932e-06
-2.34848e-06
0.000102841
1.35639e-06
-3.40715e-06
9.87384e-05
1.35099e-06
-4.73994e-06
9.35065e-05
1.69907e-06
-6.22023e-06
8.72449e-05
2.73985e-06
-7.66756e-06
8.00493e-05
4.78045e-06
-8.92677e-06
7.18488e-05
8.0086e-06
-9.94434e-06
6.22899e-05
1.25908e-05
-1.07703e-05
5.06663e-05
1.8657e-05
-1.14972e-05
3.58172e-05
2.62127e-05
-1.19772e-05
1.77248e-05
3.21143e-05
-1.08407e-05
2.39755e-05
-5.39663e-06
0.000117575
-1.77987e-07
-1.91311e-07
0.000117228
4.79291e-07
-5.70736e-07
0.000116598
1.10445e-06
-9.49921e-07
0.000115523
1.68446e-06
-1.40556e-06
0.000113729
2.20909e-06
-2.05378e-06
0.000110915
2.71853e-06
-2.99552e-06
0.000106864
3.33684e-06
-4.24741e-06
0.000101536
4.27432e-06
-5.70796e-06
9.50566e-05
5.79232e-06
-7.18916e-06
8.76221e-05
8.19646e-06
-8.50333e-06
7.93376e-05
1.17841e-05
-9.55373e-06
7.00076e-05
1.69863e-05
-1.03597e-05
5.90269e-05
2.4275e-05
-1.10137e-05
4.47279e-05
3.47061e-05
-1.14843e-05
2.49e-05
4.63327e-05
-1.05076e-05
4.15924e-05
-5.11646e-06
0.000121371
-1.75538e-07
-1.59769e-07
0.000121039
-5.2827e-07
5.7077e-07
0.000120462
-8.76696e-07
1.2843e-06
0.000119502
-1.2849e-06
2.05256e-06
0.000117894
-1.86321e-06
2.93243e-06
0.000115323
-2.72032e-06
3.96906e-06
0.000111545
-3.89161e-06
5.21554e-06
0.000106495
-5.29243e-06
6.76007e-06
0.000100318
-6.73849e-06
8.74579e-06
9.32914e-05
-8.03044e-06
1.14206e-05
8.5692e-05