/*--------------------------------*- C++ -*----------------------------------*\
| =========                 |                                                 |
| \\      /  F ield         | foam-extend: Open Source CFD                    |
|  \\    /   O peration     | Version:     3.1                                |
|   \\  /    A nd           | Web:         http://www.extend-project.de       |
|    \\/     M anipulation  |                                                 |
\*---------------------------------------------------------------------------*/
FoamFile
{
    version     2.0;
    format      ascii;
    class       pointVectorField;
    location    "2.3";
    object      pointMotionU;
}
// * * * * * * * * * * * * * * * * * * * * * * * * * * * * * * * * * * * * * //

dimensions      [0 1 -1 0 0 0 0];

internalField   nonuniform List<vector> 
16859
(
(0 0 0)
(0 0 0)
(0 0 0)
(0 0 0)
(0 0 0)
(0 0 0)
(0 0 0)
(0 0 0)
(0 0 0)
(0 0 0)
(0 0 0)
(0 0 0)
(0 0 0)
(0 0 0)
(0 0 0)
(0 0 0)
(0 0 0)
(0 0 0)
(-6.16155e-11 -8.52271e-11 -1.59325e-11)
(-1.15364e-10 -1.6612e-10 -3.18048e-11)
(-1.57592e-10 -2.43651e-10 -4.85302e-11)
(-1.86139e-10 -3.20842e-10 -6.74808e-11)
(-1.97638e-10 -3.99936e-10 -9.00976e-11)
(-1.86833e-10 -4.82291e-10 -1.18024e-10)
(-1.45674e-10 -5.68083e-10 -1.53243e-10)
(-6.21409e-11 -6.55653e-10 -1.98227e-10)
(8.1204e-11 -7.40379e-10 -2.56097e-10)
(3.08642e-10 -8.12771e-10 -3.30743e-10)
(6.51762e-10 -8.55623e-10 -4.2677e-10)
(1.14652e-09 -8.40503e-10 -5.48851e-10)
(1.82127e-09 -7.2578e-10 -6.99276e-10)
(2.66463e-09 -4.65984e-10 -8.7046e-10)
(3.55686e-09 -7.02466e-11 -1.02152e-09)
(5.64685e-09 1.92685e-09 -1.28722e-09)
(0 0 0)
(-1.24677e-10 -1.67355e-10 -3.12131e-11)
(-2.33919e-10 -3.26234e-10 -6.22735e-11)
(-3.20855e-10 -4.78615e-10 -9.49371e-11)
(-3.81741e-10 -6.30542e-10 -1.3185e-10)
(-4.10644e-10 -7.86597e-10 -1.75774e-10)
(-3.98236e-10 -9.49813e-10 -2.29843e-10)
(-3.30203e-10 -1.1212e-09 -2.97823e-10)
(-1.85161e-10 -1.29878e-09 -3.84396e-10)
(6.7955e-11 -1.47582e-09 -4.95479e-10)
(4.72592e-10 -1.63792e-09 -6.38511e-10)
(1.08587e-09 -1.75888e-09 -8.22541e-10)
(1.97425e-09 -1.79611e-09 -1.05757e-09)
(3.19343e-09 -1.69023e-09 -1.35147e-09)
(4.73081e-09 -1.38455e-09 -1.69922e-09)
(6.38313e-09 -9.04892e-10 -2.04033e-09)
(1.01626e-08 4.1345e-10 -3.7056e-09)
(0 0 0)
(-1.90348e-10 -2.43512e-10 -4.528e-11)
(-3.58228e-10 -4.74771e-10 -9.02561e-11)
(-4.94316e-10 -6.96796e-10 -1.37394e-10)
(-5.94307e-10 -9.186e-10 -1.90432e-10)
(-6.51106e-10 -1.14724e-09 -2.53237e-10)
(-6.53376e-10 -1.38788e-09 -3.30154e-10)
(-5.83654e-10 -1.64334e-09 -4.26354e-10)
(-4.1585e-10 -1.91334e-09 -5.48233e-10)
(-1.12069e-10 -2.19274e-09 -7.03839e-10)
(3.80902e-10 -2.46888e-09 -9.03326e-10)
(1.13396e-09 -2.71777e-09 -1.15924e-09)
(2.23237e-09 -2.90016e-09 -1.48604e-09)
(3.75448e-09 -2.96214e-09 -1.89699e-09)
(5.7032e-09 -2.85346e-09 -2.39105e-09)
(7.8515e-09 -2.58021e-09 -2.89434e-09)
(1.31025e-08 -2.13381e-09 -5.26724e-09)
(0 0 0)
(-2.59091e-10 -3.10944e-10 -5.76695e-11)
(-4.89378e-10 -6.06372e-10 -1.1481e-10)
(-6.8002e-10 -8.90337e-10 -1.7442e-10)
(-8.27383e-10 -1.17466e-09 -2.41086e-10)
(-9.24881e-10 -1.46892e-09 -3.19492e-10)
(-9.61612e-10 -1.78067e-09 -4.14821e-10)
(-9.2063e-10 -2.11547e-09 -5.33161e-10)
(-7.76668e-10 -2.47639e-09 -6.81942e-10)
(-4.93226e-10 -2.86313e-09 -8.70419e-10)
(-1.91796e-11 -3.27041e-09 -1.11018e-09)
(7.14178e-10 -3.68554e-09 -1.41548e-09)
(1.79228e-09 -4.08536e-09 -1.80268e-09)
(3.30201e-09 -4.43374e-09 -2.28638e-09)
(5.27125e-09 -4.68347e-09 -2.86334e-09)
(7.51497e-09 -4.77006e-09 -3.44438e-09)
(1.33006e-08 -5.52161e-09 -6.1167e-09)
(0 0 0)
(-3.30572e-10 -3.6715e-10 -6.80554e-11)
(-6.26748e-10 -7.16145e-10 -1.35279e-10)
(-8.77109e-10 -1.05199e-09 -2.05e-10)
(-1.07987e-09 -1.389e-09 -2.82374e-10)
(-1.23052e-09 -1.73904e-09 -3.72577e-10)
(-1.32082e-09 -2.11209e-09 -4.81223e-10)
(-1.33766e-09 -2.51663e-09 -6.14767e-10)
(-1.26157e-09 -2.95979e-09 -7.80926e-10)
(-1.065e-09 -3.44752e-09 -9.89131e-10)
(-7.10261e-10 -3.98442e-09 -1.25097e-09)
(-1.47605e-10 -4.57338e-09 -1.58038e-09)
(6.85311e-10 -5.2135e-09 -1.99283e-09)
(1.8573e-09 -5.89325e-09 -2.50056e-09)
(3.41017e-09 -6.56826e-09 -3.09443e-09)
(5.25736e-09 -7.08136e-09 -3.67448e-09)
(1.0583e-08 -9.05618e-09 -6.23444e-09)
(0 0 0)
(-4.03657e-10 -4.09983e-10 -7.62623e-11)
(-7.68029e-10 -7.99874e-10 -1.51321e-10)
(-1.08189e-09 -1.17548e-09 -2.28624e-10)
(-1.34622e-09 -1.55305e-09 -3.1362e-10)
(-1.55969e-09 -1.94629e-09 -4.11651e-10)
(-1.71827e-09 -2.36715e-09 -5.2836e-10)
(-1.81483e-09 -2.82651e-09 -6.70045e-10)
(-1.83885e-09 -3.3349e-09 -8.44007e-10)
(-1.77634e-09 -3.90352e-09 -1.05888e-09)
(-1.61022e-09 -4.54543e-09 -1.32494e-09)
(-1.32142e-09 -5.27712e-09 -1.6541e-09)
(-8.90579e-10 -6.11875e-09 -2.05896e-09)
(-2.99976e-10 -7.08688e-09 -2.54809e-09)
(4.63963e-10 -8.15648e-09 -3.10822e-09)
(1.41621e-09 -9.10599e-09 -3.63778e-09)
(5.10525e-09 -1.22986e-08 -5.89388e-09)
(0 0 0)
(-4.76561e-10 -4.3776e-10 -8.22665e-11)
(-9.09555e-10 -8.54252e-10 -1.62903e-10)
(-1.28847e-09 -1.25583e-09 -2.4529e-10)
(-1.6175e-09 -1.66004e-09 -3.349e-10)
(-1.89903e-09 -2.0817e-09 -4.36957e-10)
(-2.13377e-09 -2.5339e-09 -5.56785e-10)
(-2.32118e-09 -3.0288e-09 -7.00091e-10)
(-2.46017e-09 -3.57856e-09 -8.73189e-10)
(-2.55065e-09 -4.19665e-09 -1.08317e-09)
(-2.59621e-09 -4.89955e-09 -1.33796e-09)
(-2.60854e-09 -5.70909e-09 -1.64613e-09)
(-2.61394e-09 -6.65468e-09 -2.01598e-09)
(-2.66004e-09 -7.77099e-09 -2.45225e-09)
(-2.81147e-09 -9.06964e-09 -2.94403e-09)
(-3.06003e-09 -1.03673e-08 -3.41097e-09)
(-2.76138e-09 -1.52047e-08 -5.22871e-09)
(0 0 0)
(-5.47016e-10 -4.49332e-10 -8.61772e-11)
(-1.0467e-09 -8.77042e-10 -1.70272e-10)
(-1.48945e-09 -1.28976e-09 -2.55434e-10)
(-1.88272e-09 -1.70551e-09 -3.46941e-10)
(-2.23246e-09 -2.13947e-09 -4.49666e-10)
(-2.54376e-09 -2.60487e-09 -5.68358e-10)
(-2.8217e-09 -3.11377e-09 -7.0783e-10)
(-3.07282e-09 -3.67779e-09 -8.73048e-10)
(-3.30731e-09 -4.30898e-09 -1.06909e-09)
(-3.54257e-09 -5.0207e-09 -1.30091e-09)
(-3.80859e-09 -5.82833e-09 -1.57269e-09)
(-4.15507e-09 -6.74825e-09 -1.88627e-09)
(-4.65836e-09 -7.79013e-09 -2.2372e-09)
(-5.41686e-09 -8.92354e-09 -2.60336e-09)
(-6.49403e-09 -9.93666e-09 -2.90443e-09)
(-1.35354e-08 -1.70195e-08 -4.87121e-09)
(0 0 0)
(0 0 0)
(0 0 0)
(0 0 0)
(0 0 0)
(0 0 0)
(0 0 0)
(0 0 0)
(0 0 0)
(0 0 0)
(0 0 0)
(0 0 0)
(0 0 0)
(0 0 0)
(0 0 0)
(0 0 0)
(0 0 0)
(0 0 0)
(-6.50549e-11 -8.87576e-11 -1.55612e-11)
(-1.22034e-10 -1.73088e-10 -3.10617e-11)
(-1.67299e-10 -2.54095e-10 -4.73959e-11)
(-1.98777e-10 -3.35013e-10 -6.59102e-11)
(-2.13119e-10 -4.1824e-10 -8.80213e-11)
(-2.04995e-10 -5.05215e-10 -1.15348e-10)
(-1.66152e-10 -5.96061e-10 -1.4985e-10)
(-8.42042e-11 -6.88838e-10 -1.9398e-10)
(5.88319e-11 -7.78195e-10 -2.50854e-10)
(2.87867e-10 -8.53068e-10 -3.24401e-10)
(6.34814e-10 -8.93102e-10 -4.19412e-10)
(1.13452e-09 -8.63775e-10 -5.41143e-10)
(1.81012e-09 -7.12195e-10 -6.93466e-10)
(2.63417e-09 -3.75093e-10 -8.72406e-10)
(3.43006e-09 1.39435e-10 -1.04361e-09)
(4.70706e-09 2.47192e-09 -1.13097e-09)
(0 0 0)
(-1.31574e-10 -1.74293e-10 -3.04848e-11)
(-2.47312e-10 -3.3993e-10 -6.08163e-11)
(-3.40395e-10 -4.99161e-10 -9.27145e-11)
(-4.07287e-10 -6.58457e-10 -1.28776e-10)
(-4.42142e-10 -8.22734e-10 -1.71716e-10)
(-4.35562e-10 -9.95228e-10 -2.24625e-10)
(-3.72961e-10 -1.17696e-09 -2.91224e-10)
(-2.32414e-10 -1.3656e-09 -3.76165e-10)
(1.7957e-11 -1.5534e-09 -4.85362e-10)
(4.22524e-10 -1.72372e-09 -6.26348e-10)
(1.03874e-09 -1.84586e-09 -8.08548e-10)
(1.9308e-09 -1.86893e-09 -1.04309e-09)
(3.1443e-09 -1.71953e-09 -1.34088e-09)
(4.63517e-09 -1.32282e-09 -1.70365e-09)
(6.08834e-09 -7.17051e-10 -2.08051e-09)
(8.1939e-09 1.13432e-09 -2.80876e-09)
(0 0 0)
(-2.00726e-10 -2.53619e-10 -4.42209e-11)
(-3.7842e-10 -4.94733e-10 -8.81388e-11)
(-5.23885e-10 -7.26774e-10 -1.34169e-10)
(-6.33195e-10 -9.59406e-10 -1.8598e-10)
(-6.99497e-10 -1.20023e-09 -2.47376e-10)
(-7.1153e-10 -1.4548e-09 -3.22641e-10)
(-6.517e-10 -1.7262e-09 -4.16896e-10)
(-4.93543e-10 -2.01401e-09 -5.36503e-10)
(-1.98564e-10 -2.31246e-09 -6.89535e-10)
(2.87061e-10 -2.60718e-09 -8.86315e-10)
(1.03404e-09 -2.87072e-09 -1.13996e-09)
(2.12426e-09 -3.05768e-09 -1.46658e-09)
(3.62312e-09 -3.1049e-09 -1.88366e-09)
(5.49307e-09 -2.95442e-09 -2.39934e-09)
(7.35706e-09 -2.6383e-09 -2.95052e-09)
(1.03184e-08 -1.57359e-09 -4.02684e-09)
(0 0 0)
(-2.72949e-10 -3.23864e-10 -5.63164e-11)
(-5.16401e-10 -6.31908e-10 -1.12108e-10)
(-7.19757e-10 -9.28733e-10 -1.70312e-10)
(-8.79994e-10 -1.22704e-09 -2.3543e-10)
(-9.91013e-10 -1.53716e-09 -3.12071e-10)
(-1.04228e-09 -1.86734e-09 -4.05352e-10)
(-1.01711e-09 -2.22369e-09 -5.21312e-10)
(-8.90406e-10 -2.60975e-09 -6.67366e-10)
(-6.25847e-10 -3.02543e-09 -8.52841e-10)
(-1.72785e-10 -3.46534e-09 -1.08961e-09)
(5.35934e-10 -3.91615e-09 -1.39273e-09)
(1.58107e-09 -4.35344e-09 -1.78069e-09)
(3.03614e-09 -4.74004e-09 -2.2733e-09)
(4.88955e-09 -5.03227e-09 -2.87829e-09)
(6.79902e-09 -5.19542e-09 -3.519e-09)
(1.00487e-08 -5.11202e-09 -4.72247e-09)
(0 0 0)
(-3.47852e-10 -3.82423e-10 -6.64528e-11)
(-6.60516e-10 -7.46351e-10 -1.32084e-10)
(-9.26965e-10 -1.09747e-09 -2.00152e-10)
(-1.1463e-09 -1.45116e-09 -2.75721e-10)
(-1.31481e-09 -1.82027e-09 -3.63886e-10)
(-1.42503e-09 -2.21574e-09 -4.70196e-10)
(-1.46469e-09 -2.64703e-09 -6.0107e-10)
(-1.41534e-09 -3.12239e-09 -7.64246e-10)
(-1.25086e-09 -3.64911e-09 -9.69295e-10)
(-9.35867e-10 -4.23371e-09 -1.22822e-09)
(-4.24616e-10 -4.88202e-09 -1.55607e-09)
(3.38082e-10 -5.59822e-09 -1.97093e-09)
(1.40751e-09 -6.37953e-09 -2.49118e-09)
(2.79464e-09 -7.1965e-09 -3.11997e-09)
(4.2872e-09 -7.91877e-09 -3.77174e-09)
(7.18275e-09 -8.79007e-09 -4.91187e-09)
(0 0 0)
(-4.24218e-10 -4.27056e-10 -7.44597e-11)
(-8.08283e-10 -8.33658e-10 -1.47732e-10)
(-1.14153e-09 -1.22639e-09 -2.23195e-10)
(-1.42609e-09 -1.62275e-09 -3.06196e-10)
(-1.66179e-09 -2.03759e-09 -4.02001e-10)
(-1.84584e-09 -2.48407e-09 -5.16196e-10)
(-1.97255e-09 -2.97438e-09 -6.55065e-10)
(-2.03339e-09 -3.52077e-09 -8.25971e-10)
(-2.01724e-09 -4.13673e-09 -1.03777e-09)
(-1.91155e-09 -4.83901e-09 -1.30131e-09)
(-1.70448e-09 -5.65035e-09 -1.62987e-09)
(-1.38821e-09 -6.60211e-09 -2.03923e-09)
(-9.62408e-10 -7.73081e-09 -2.5451e-09)
(-4.37841e-10 -9.04231e-09 -3.1481e-09)
(1.40932e-10 -1.03405e-08 -3.76281e-09)
(1.82668e-09 -1.21635e-08 -4.75846e-09)
(0 0 0)
(-5.00163e-10 -4.56004e-10 -8.03145e-11)
(-9.55825e-10 -8.90372e-10 -1.59024e-10)
(-1.35718e-09 -1.31031e-09 -2.39439e-10)
(-1.70986e-09 -1.73469e-09 -3.26934e-10)
(-2.0177e-09 -2.17963e-09 -4.26659e-10)
(-2.28305e-09 -2.65956e-09 -5.43897e-10)
(-2.50735e-09 -3.18817e-09 -6.84365e-10)
(-2.69229e-09 -3.77961e-09 -8.54482e-10)
(-2.84185e-09 -4.45017e-09 -1.06162e-09)
(-2.96592e-09 -5.22082e-09 -1.31439e-09)
(-3.08628e-09 -6.12123e-09 -1.62289e-09)
(-3.24551e-09 -7.19542e-09 -1.99893e-09)
(-3.51676e-09 -8.50647e-09 -2.45516e-09)
(-3.99927e-09 -1.01185e-08 -2.99717e-09)
(-4.69578e-09 -1.18995e-08 -3.56636e-09)
(-5.73329e-09 -1.51327e-08 -4.42705e-09)
(0 0 0)
(-5.73321e-10 -4.68068e-10 -8.41247e-11)
(-1.09831e-09 -9.1415e-10 -1.662e-10)
(-1.5662e-09 -1.34576e-09 -2.49313e-10)
(-1.98608e-09 -1.7823e-09 -3.38647e-10)
(-2.3656e-09 -2.24026e-09 -4.39008e-10)
(-2.71172e-09 -2.73427e-09 -5.55122e-10)
(-3.0319e-09 -3.27794e-09 -6.91833e-10)
(-3.33583e-09 -3.88485e-09 -8.5424e-10)
(-3.63829e-09 -4.56974e-09 -1.04774e-09)
(-3.96361e-09 -5.35005e-09 -1.27797e-09)
(-4.35246e-09 -6.24785e-09 -1.55054e-09)
(-4.8714e-09 -7.29114e-09 -1.87027e-09)
(-5.62305e-09 -8.51025e-09 -2.23886e-09)
(-6.7429e-09 -9.90836e-09 -2.64556e-09)
(-8.32223e-09 -1.12982e-08 -3.02348e-09)
(-1.6317e-08 -1.69957e-08 -4.2965e-09)
(0 0 0)
(0 0 0)
(0 0 0)
(0 0 0)
(0 0 0)
(0 0 0)
(0 0 0)
(0 0 0)
(0 0 0)
(0 0 0)
(0 0 0)
(0 0 0)
(0 0 0)
(0 0 0)
(0 0 0)
(0 0 0)
(0 0 0)
(0 0 0)
(-6.85348e-11 -9.197e-11 -1.46008e-11)
(-1.28842e-10 -1.7942e-10 -2.91397e-11)
(-1.77356e-10 -2.63561e-10 -4.44518e-11)
(-2.12164e-10 -3.47793e-10 -6.1792e-11)
(-2.30058e-10 -4.34627e-10 -8.24714e-11)
(-2.2583e-10 -5.25541e-10 -1.0797e-10)
(-1.9136e-10 -6.2058e-10 -1.40043e-10)
(-1.14465e-10 -7.17539e-10 -1.80822e-10)
(2.24038e-11 -8.10489e-10 -2.32891e-10)
(2.43107e-10 -8.87317e-10 -2.99262e-10)
(5.77023e-10 -9.25996e-10 -3.83105e-10)
(1.05325e-09 -8.89889e-10 -4.86762e-10)
(1.68323e-09 -7.25122e-10 -6.0899e-10)
(2.42113e-09 -3.73989e-10 -7.38273e-10)
(3.0887e-09 1.37177e-10 -8.40717e-10)
(4.14082e-09 2.14445e-09 -8.68416e-10)
(0 0 0)
(-1.38534e-10 -1.80606e-10 -2.86031e-11)
(-2.6094e-10 -3.52381e-10 -5.70533e-11)
(-3.6056e-10 -5.17785e-10 -8.69561e-11)
(-4.34199e-10 -6.8363e-10 -1.20732e-10)
(-4.7632e-10 -8.55077e-10 -1.60897e-10)
(-4.77821e-10 -1.03547e-09 -2.10275e-10)
(-4.2445e-10 -1.22576e-09 -2.72206e-10)
(-2.94782e-10 -1.42322e-09 -3.50735e-10)
(-5.79046e-11 -1.6192e-09 -4.50774e-10)
(3.28401e-10 -1.79539e-09 -5.78106e-10)
(9.16661e-10 -1.91841e-09 -7.38998e-10)
(1.7601e-09 -1.93384e-09 -9.38667e-10)
(2.88209e-09 -1.76589e-09 -1.17679e-09)
(4.20326e-09 -1.34505e-09 -1.43581e-09)
(5.40339e-09 -7.30498e-10 -1.65556e-09)
(7.00734e-09 8.55436e-10 -1.86129e-09)
(0 0 0)
(-2.11158e-10 -2.62817e-10 -4.14908e-11)
(-3.98871e-10 -5.1288e-10 -8.26846e-11)
(-5.54214e-10 -7.53942e-10 -1.25836e-10)
(-6.7382e-10 -9.96191e-10 -1.74368e-10)
(-7.51363e-10 -1.24762e-09 -2.31805e-10)
(-7.76128e-10 -1.51403e-09 -3.0207e-10)
(-7.31175e-10 -1.79853e-09 -3.89762e-10)
(-5.90988e-10 -2.1004e-09 -5.00429e-10)
(-3.18737e-10 -2.41302e-09 -6.40787e-10)
(1.36087e-10 -2.72035e-09 -8.18788e-10)
(8.37191e-10 -2.99208e-09 -1.0432e-09)
(1.85164e-09 -3.17851e-09 -1.32181e-09)
(3.21541e-09 -3.21157e-09 -1.65573e-09)
(4.84438e-09 -3.03103e-09 -2.02368e-09)
(6.35405e-09 -2.67833e-09 -2.34471e-09)
(8.55438e-09 -1.71109e-09 -2.67125e-09)
(0 0 0)
(-2.86809e-10 -3.35622e-10 -5.28382e-11)
(-5.43609e-10 -6.55116e-10 -1.05168e-10)
(-7.60212e-10 -9.6352e-10 -1.59733e-10)
(-9.34401e-10 -1.27423e-09 -2.20736e-10)
(-1.06088e-09 -1.59814e-09 -2.9245e-10)
(-1.12998e-09 -1.94392e-09 -3.79569e-10)
(-1.12612e-09 -2.31791e-09 -4.87529e-10)
(-1.02574e-09 -2.72361e-09 -6.22815e-10)
(-7.95059e-10 -3.1605e-09 -7.93218e-10)
(-3.87952e-10 -3.622e-09 -1.00792e-09)
(2.54113e-10 -4.09241e-09 -1.27708e-09)
(1.19508e-09 -4.54271e-09 -1.60968e-09)
(2.47689e-09 -4.92704e-09 -2.00687e-09)
(4.03971e-09 -5.18634e-09 -2.44292e-09)
(5.53607e-09 -5.27595e-09 -2.82161e-09)
(7.85894e-09 -5.08776e-09 -3.20829e-09)
(0 0 0)
(-3.65037e-10 -3.9632e-10 -6.23466e-11)
(-6.94299e-10 -7.73797e-10 -1.23905e-10)
(-9.77317e-10 -1.13865e-09 -1.87719e-10)
(-1.21427e-09 -1.50713e-09 -2.58519e-10)
(-1.40254e-09 -1.8928e-09 -3.41037e-10)
(-1.53593e-09 -2.30721e-09 -4.40373e-10)
(-1.60375e-09 -2.76031e-09 -5.62322e-10)
(-1.5898e-09 -3.26067e-09 -7.13681e-10)
(-1.47144e-09 -3.81568e-09 -9.02484e-10)
(-1.219e-09 -4.43146e-09 -1.13809e-09)
(-7.96571e-10 -5.11238e-09 -1.43072e-09)
(-1.66136e-10 -5.85814e-09 -1.78924e-09)
(6.98665e-10 -6.65354e-09 -2.21388e-09)
(1.76959e-09 -7.43893e-09 -2.6755e-09)
(2.83901e-09 -8.05047e-09 -3.07036e-09)
(4.73472e-09 -8.62663e-09 -3.45487e-09)
(0 0 0)
(-4.44548e-10 -4.42587e-10 -6.98566e-11)
(-8.48292e-10 -8.64351e-10 -1.38581e-10)
(-1.20127e-09 -1.27249e-09 -2.0933e-10)
(-1.50697e-09 -1.68549e-09 -2.87104e-10)
(-1.7666e-09 -2.11907e-09 -3.76797e-10)
(-1.97898e-09 -2.58715e-09 -4.83559e-10)
(-2.14053e-09 -3.10265e-09 -6.13085e-10)
(-2.24559e-09 -3.67845e-09 -7.71874e-10)
(-2.28737e-09 -4.32862e-09 -9.6741e-10)
(-2.26005e-09 -5.07025e-09 -1.20821e-09)
(-2.16243e-09 -5.92555e-09 -1.50341e-09)
(-2.00332e-09 -6.92215e-09 -1.86089e-09)
(-1.806e-09 -8.08222e-09 -2.28083e-09)
(-1.60402e-09 -9.37017e-09 -2.73595e-09)
(-1.41668e-09 -1.05324e-08 -3.12487e-09)
(-6.89387e-10 -1.19169e-08 -3.48909e-09)
(0 0 0)
(-5.23373e-10 -4.72599e-10 -7.53474e-11)
(-1.00153e-09 -9.23181e-10 -1.4917e-10)
(-1.42551e-09 -1.35962e-09 -2.24565e-10)
(-1.80251e-09 -1.80188e-09 -3.0656e-10)
(-2.13801e-09 -2.26701e-09 -3.99952e-10)
(-2.43628e-09 -2.77032e-09 -5.09624e-10)
(-2.7012e-09 -3.32635e-09 -6.40781e-10)
(-2.9378e-09 -3.95007e-09 -7.99119e-10)
(-3.1549e-09 -4.65859e-09 -9.90907e-10)
(-3.3696e-09 -5.47357e-09 -1.22293e-09)
(-3.61447e-09 -6.42467e-09 -1.50215e-09)
(-3.94747e-09 -7.55291e-09 -1.83442e-09)
(-4.46019e-09 -8.9077e-09 -2.22073e-09)
(-5.25966e-09 -1.05093e-08 -2.64445e-09)
(-6.29955e-09 -1.2152e-08 -3.03073e-09)
(-8.11951e-09 -1.4906e-08 -3.427e-09)
(0 0 0)
(-5.99063e-10 -4.85111e-10 -7.89199e-11)
(-1.14901e-09 -9.47856e-10 -1.559e-10)
(-1.64202e-09 -1.39645e-09 -2.33827e-10)
(-2.08891e-09 -1.8514e-09 -3.17556e-10)
(-2.49916e-09 -2.3302e-09 -4.11573e-10)
(-2.88181e-09 -2.84837e-09 -5.20259e-10)
(-3.24693e-09 -3.42037e-09 -6.48047e-10)
(-3.60769e-09 -4.06063e-09 -7.99485e-10)
(-3.98369e-09 -4.78461e-09 -9.79175e-10)
(-4.40615e-09 -5.61028e-09 -1.19151e-09)
(-4.92538e-09 -6.55943e-09 -1.44003e-09)
(-5.62053e-09 -7.6568e-09 -1.72594e-09)
(-6.6067e-09 -8.92025e-09 -2.04409e-09)
(-8.01775e-09 -1.03163e-08 -2.37184e-09)
(-9.89708e-09 -1.15908e-08 -2.63489e-09)
(-1.85463e-08 -1.68825e-08 -3.50486e-09)
(0 0 0)
(0 0 0)
(0 0 0)
(0 0 0)
(0 0 0)
(0 0 0)
(0 0 0)
(0 0 0)
(0 0 0)
(0 0 0)
(0 0 0)
(0 0 0)
(0 0 0)
(0 0 0)
(0 0 0)
(0 0 0)
(0 0 0)
(0 0 0)
(-7.1898e-11 -9.47875e-11 -1.30907e-11)
(-1.35464e-10 -1.84964e-10 -2.61187e-11)
(-1.87245e-10 -2.71816e-10 -3.98228e-11)
(-2.2554e-10 -3.58871e-10 -5.53101e-11)
(-2.47356e-10 -4.48714e-10 -7.37192e-11)
(-2.47735e-10 -5.42826e-10 -9.63006e-11)
(-2.1889e-10 -6.41157e-10 -1.24477e-10)
(-1.49141e-10 -7.41272e-10 -1.59861e-10)
(-2.17941e-11 -8.36841e-10 -2.04193e-10)
(1.85481e-10 -9.15195e-10 -2.59099e-10)
(4.99325e-10 -9.53834e-10 -3.2548e-10)
(9.44332e-10 -9.16522e-10 -4.02204e-10)
(1.52614e-09 -7.52658e-10 -4.8366e-10)
(2.19697e-09 -4.13695e-10 -5.56479e-10)
(2.7967e-09 6.34331e-11 -5.99747e-10)
(3.79866e-09 1.86552e-09 -5.95526e-10)
(0 0 0)
(-1.45246e-10 -1.86143e-10 -2.56452e-11)
(-2.74162e-10 -3.63278e-10 -5.11394e-11)
(-3.80324e-10 -5.34022e-10 -7.79037e-11)
(-4.60969e-10 -7.05441e-10 -1.08074e-10)
(-5.11009e-10 -8.82856e-10 -1.43837e-10)
(-5.21864e-10 -1.06964e-09 -1.87582e-10)
(-4.7997e-10 -1.2666e-09 -2.42016e-10)
(-3.64938e-10 -1.4706e-09 -3.10205e-10)
(-1.47566e-10 -1.67229e-09 -3.95462e-10)
(2.11367e-10 -1.85232e-09 -5.00915e-10)
(7.59112e-10 -1.97623e-09 -6.28415e-10)
(1.54024e-09 -1.98958e-09 -7.7616e-10)
(2.56683e-09 -1.82037e-09 -9.34201e-10)
(3.75504e-09 -1.41076e-09 -1.07804e-09)
(4.81847e-09 -8.34194e-10 -1.16779e-09)
(6.31975e-09 5.40639e-10 -1.15393e-09)
(0 0 0)
(-2.21182e-10 -2.7088e-10 -3.72009e-11)
(-4.18633e-10 -5.28756e-10 -7.4116e-11)
(-5.83794e-10 -7.77618e-10 -1.12742e-10)
(-7.13969e-10 -1.02804e-09 -1.56102e-10)
(-8.03535e-10 -1.28828e-09 -2.07261e-10)
(-8.42602e-10 -1.56422e-09 -2.69543e-10)
(-8.15319e-10 -1.85883e-09 -3.46686e-10)
(-6.97768e-10 -2.17094e-09 -4.42899e-10)
(-4.55671e-10 -2.49302e-09 -5.62722e-10)
(-4.28202e-11 -2.80761e-09 -7.10469e-10)
(5.97158e-10 -3.08252e-09 -8.8879e-10)
(1.51952e-09 -3.26649e-09 -1.09552e-09)
(2.74485e-09 -3.29231e-09 -1.31758e-09)
(4.18245e-09 -3.10696e-09 -1.52192e-09)
(5.49298e-09 -2.76571e-09 -1.65327e-09)
(7.49991e-09 -1.92941e-09 -1.64657e-09)
(0 0 0)
(-3.00071e-10 -3.45928e-10 -4.73758e-11)
(-5.69775e-10 -6.75417e-10 -9.42729e-11)
(-7.99433e-10 -9.93821e-10 -1.43121e-10)
(-9.87752e-10 -1.31506e-09 -1.97636e-10)
(-1.13041e-09 -1.65039e-09 -2.6154e-10)
(-1.2189e-09 -2.00866e-09 -3.38819e-10)
(-1.23914e-09 -2.39615e-09 -4.33902e-10)
(-1.16976e-09 -2.81592e-09 -5.51723e-10)
(-9.80294e-10 -3.26647e-09 -6.97566e-10)
(-6.29954e-10 -3.73951e-09 -8.76425e-10)
(-6.88658e-11 -4.21653e-09 -1.09137e-09)
(7.53558e-10 -4.66453e-09 -1.3399e-09)
(1.86239e-09 -5.03313e-09 -1.60666e-09)
(3.19111e-09 -5.26204e-09 -1.85248e-09)
(4.44379e-09 -5.31982e-09 -2.01169e-09)
(6.49616e-09 -5.14731e-09 -2.01837e-09)
(0 0 0)
(-3.81404e-10 -4.08499e-10 -5.59025e-11)
(-7.26614e-10 -7.978e-10 -1.11073e-10)
(-1.02582e-09 -1.17451e-09 -1.6821e-10)
(-1.28036e-09 -1.55552e-09 -2.31499e-10)
(-1.48889e-09 -1.95488e-09 -3.05071e-10)
(-1.64668e-09 -2.38441e-09 -3.93267e-10)
(-1.74497e-09 -2.85407e-09 -5.00826e-10)
(-1.77026e-09 -3.3721e-09 -6.32939e-10)
(-1.70385e-09 -3.94491e-09 -7.95074e-10)
(-1.52212e-09 -4.5767e-09 -9.92324e-10)
(-1.19826e-09 -5.26813e-09 -1.22774e-09)
(-7.07396e-10 -6.01226e-09 -1.49859e-09)
(-3.83111e-11 -6.7832e-09 -1.78865e-09)
(7.7724e-10 -7.51022e-09 -2.05601e-09)
(1.58503e-09 -8.0421e-09 -2.22957e-09)
(3.1573e-09 -8.51498e-09 -2.24236e-09)
(0 0 0)
(-4.63819e-10 -4.56197e-10 -6.26379e-11)
(-8.86357e-10 -8.91185e-10 -1.24235e-10)
(-1.25845e-09 -1.31261e-09 -1.87591e-10)
(-1.58497e-09 -1.73971e-09 -2.57138e-10)
(-1.86865e-09 -2.18876e-09 -3.37157e-10)
(-2.11007e-09 -2.67405e-09 -4.32046e-10)
(-2.30791e-09 -3.2086e-09 -5.46482e-10)
(-2.4596e-09 -3.80503e-09 -6.8545e-10)
(-2.56273e-09 -4.47648e-09 -8.54051e-10)
(-2.61773e-09 -5.23793e-09 -1.05689e-09)
(-2.63224e-09 -6.10724e-09 -1.29659e-09)
(-2.62647e-09 -7.10327e-09 -1.57054e-09)
(-2.63456e-09 -8.23236e-09 -1.86404e-09)
(-2.68694e-09 -9.43888e-09 -2.13845e-09)
(-2.74942e-09 -1.04797e-08 -2.32321e-09)
(-2.34463e-09 -1.16517e-08 -2.34563e-09)
(0 0 0)
(-5.45272e-10 -4.8714e-10 -6.75633e-11)
(-1.04479e-09 -9.51862e-10 -1.33735e-10)
(-1.4905e-09 -1.40254e-09 -2.01264e-10)
(-1.89119e-09 -1.85994e-09 -2.74613e-10)
(-2.25404e-09 -2.34173e-09 -3.57988e-10)
(-2.58527e-09 -2.86366e-09 -4.55576e-10)
(-2.89126e-09 -3.44042e-09 -5.71671e-10)
(-3.18032e-09 -4.08676e-09 -7.10657e-10)
(-3.46571e-09 -4.81885e-09 -8.76786e-10)
(-3.77056e-09 -5.65615e-09 -1.07361e-09)
(-4.13528e-09 -6.62359e-09 -1.30277e-09)
(-4.62669e-09 -7.75247e-09 -1.56164e-09)
(-5.34203e-09 -9.0739e-09 -1.83894e-09)
(-6.37796e-09 -1.05827e-08 -2.10759e-09)
(-7.63471e-09 -1.20786e-08 -2.31526e-09)
(-9.6934e-09 -1.45366e-08 -2.40576e-09)
(0 0 0)
(-6.23246e-10 -5.00042e-10 -7.07692e-11)
(-1.19677e-09 -9.77321e-10 -1.39776e-10)
(-1.71373e-09 -1.44057e-09 -2.09588e-10)
(-2.18669e-09 -1.91113e-09 -2.84516e-10)
(-2.6269e-09 -2.40715e-09 -3.68508e-10)
(-3.04549e-09 -2.94457e-09 -4.65336e-10)
(-3.45505e-09 -3.53806e-09 -5.78673e-10)
(-3.87197e-09 -4.20178e-09 -7.12022e-10)
(-4.32002e-09 -4.95024e-09 -8.6844e-10)
(-4.8357e-09 -5.79917e-09 -1.04993e-09)
(-5.47559e-09 -6.76559e-09 -1.2563e-09)
(-6.32467e-09 -7.86493e-09 -1.48305e-09)
(-7.49895e-09 -9.09808e-09 -1.71763e-09)
(-9.11748e-09 -1.04089e-08 -1.93311e-09)
(-1.11789e-08 -1.1541e-08 -2.0757e-09)
(-1.99331e-08 -1.64832e-08 -2.64019e-09)
(0 0 0)
(0 0 0)
(0 0 0)
(0 0 0)
(0 0 0)
(0 0 0)
(0 0 0)
(0 0 0)
(0 0 0)
(0 0 0)
(0 0 0)
(0 0 0)
(0 0 0)
(0 0 0)
(0 0 0)
(0 0 0)
(0 0 0)
(0 0 0)
(-7.49681e-11 -9.71498e-11 -1.10932e-11)
(-1.41536e-10 -1.89601e-10 -2.2125e-11)
(-1.96383e-10 -2.78691e-10 -3.37102e-11)
(-2.38033e-10 -3.68037e-10 -4.67657e-11)
(-2.63738e-10 -4.60264e-10 -6.22133e-11)
(-2.68833e-10 -5.5683e-10 -8.10281e-11)
(-2.45917e-10 -6.57584e-10 -1.04249e-10)
(-1.8385e-10 -7.59902e-10 -1.32927e-10)
(-6.67258e-11 -8.57189e-10 -1.67953e-10)
(1.26648e-10 -9.36559e-10 -2.09681e-10)
(4.21424e-10 -9.75666e-10 -2.57203e-10)
(8.4079e-10 -9.39546e-10 -3.07198e-10)
(1.39078e-09 -7.81118e-10 -3.52579e-10)
(2.02959e-09 -4.57857e-10 -3.82555e-10)
(2.61121e-09 -8.5085e-12 -3.88783e-10)
(3.65523e-09 1.70263e-09 -3.57942e-10)
(0 0 0)
(-1.51361e-10 -1.90783e-10 -2.17325e-11)
(-2.86261e-10 -3.72389e-10 -4.33214e-11)
(-3.98539e-10 -5.47537e-10 -6.59494e-11)
(-4.85891e-10 -7.23474e-10 -9.13868e-11)
(-5.43722e-10 -9.05605e-10 -1.21405e-10)
(-5.64042e-10 -1.09727e-09 -1.57869e-10)
(-5.3406e-10 -1.29909e-09 -2.02758e-10)
(-4.34462e-10 -1.50756e-09 -2.58071e-10)
(-2.37597e-10 -1.71278e-09 -3.2551e-10)
(9.35413e-11 -1.89484e-09 -4.05763e-10)
(6.03301e-10 -2.01919e-09 -4.97157e-10)
(1.33343e-09 -2.03289e-09 -5.93457e-10)
(2.2964e-09 -1.86884e-09 -6.81205e-10)
(3.41909e-09 -1.47797e-09 -7.39448e-10)
(4.44194e-09 -9.37254e-10 -7.51247e-10)
(6.01106e-09 3.25987e-10 -6.50398e-10)
(0 0 0)
(-2.3029e-10 -2.77637e-10 -3.15263e-11)
(-4.3666e-10 -5.42026e-10 -6.27888e-11)
(-6.10954e-10 -7.97315e-10 -9.54503e-11)
(-7.51167e-10 -1.05435e-09 -1.32017e-10)
(-8.52421e-10 -1.32153e-09 -1.74977e-10)
(-9.05722e-10 -1.6047e-09 -2.26929e-10)
(-8.96375e-10 -1.90659e-09 -2.9061e-10)
(-8.0205e-10 -2.22549e-09 -3.68773e-10)
(-5.90708e-10 -2.55302e-09 -4.6375e-10)
(-2.19277e-10 -2.87061e-09 -5.76495e-10)
(3.64566e-10 -3.14515e-09 -7.04751e-10)
(1.21211e-09 -3.32568e-09 -8.40014e-10)
(2.34406e-09 -3.34846e-09 -9.63778e-10)
(3.68356e-09 -3.16868e-09 -1.04684e-09)
(4.92779e-09 -2.84848e-09 -1.06505e-09)
(6.9908e-09 -2.10049e-09 -9.25446e-10)
(0 0 0)
(-3.1208e-10 -3.54561e-10 -4.01511e-11)
(-5.93552e-10 -6.9238e-10 -7.98707e-11)
(-8.3528e-10 -1.01902e-09 -1.21183e-10)
(-1.03689e-09 -1.34876e-09 -1.67173e-10)
(-1.19507e-09 -1.69306e-09 -2.20868e-10)
(-1.30248e-09 -2.06076e-09 -2.85389e-10)
(-1.34658e-09 -2.45783e-09 -3.63994e-10)
(-1.30804e-09 -2.88667e-09 -4.59915e-10)
(-1.15918e-09 -3.34459e-09 -5.7587e-10)
(-8.62992e-10 -3.8215e-09 -7.12949e-10)
(-3.74303e-10 -4.29662e-09 -8.68491e-10)
(3.53052e-10 -4.73479e-09 -1.03252e-09)
(1.34441e-09 -5.0856e-09 -1.18321e-09)
(2.54886e-09 -5.29439e-09 -1.28578e-09)
(3.7123e-09 -5.34253e-09 -1.31113e-09)
(5.79379e-09 -5.20959e-09 -1.15832e-09)
(0 0 0)
(-3.9617e-10 -4.187e-10 -4.73803e-11)
(-7.55856e-10 -8.17851e-10 -9.41118e-11)
(-1.06992e-09 -1.20432e-09 -1.42445e-10)
(-1.34086e-09 -1.59545e-09 -1.95861e-10)
(-1.56854e-09 -2.00552e-09 -2.57723e-10)
(-1.74969e-09 -2.44639e-09 -3.31445e-10)
(-1.8774e-09 -2.9277e-09 -4.20526e-10)
(-1.94054e-09 -3.45688e-09 -5.28377e-10)
(-1.9236e-09 -4.03883e-09 -6.57807e-10)
(-1.80698e-09 -4.67521e-09 -8.0988e-10)
(-1.56858e-09 -5.3628e-09 -9.81732e-10)
(-1.18735e-09 -6.08948e-09 -1.1629e-09)
(-6.50587e-10 -6.82461e-09 -1.33044e-09)
(2.69121e-11 -7.49924e-09 -1.44712e-09)
(7.33177e-10 -7.98206e-09 -1.48026e-09)
(2.29782e-09 -8.43062e-09 -1.32542e-09)
(0 0 0)
(-4.81138e-10 -4.67596e-10 -5.30926e-11)
(-9.20656e-10 -9.13599e-10 -1.05274e-10)
(-1.31018e-09 -1.34596e-09 -1.58883e-10)
(-1.65593e-09 -1.78443e-09 -2.17608e-10)
(-1.96204e-09 -2.24558e-09 -2.84948e-10)
(-2.23078e-09 -2.74373e-09 -3.64373e-10)
(-2.46288e-09 -3.2916e-09 -4.59352e-10)
(-2.65837e-09 -3.90087e-09 -5.7317e-10)
(-2.81813e-09 -4.58292e-09 -7.08425e-10)
(-2.94651e-09 -5.34952e-09 -8.65958e-10)
(-3.05519e-09 -6.21322e-09 -1.04288e-09)
(-3.16664e-09 -7.18486e-09 -1.22932e-09)
(-3.31084e-09 -8.26121e-09 -1.40403e-09)
(-3.499e-09 -9.38343e-09 -1.53212e-09)
(-3.65735e-09 -1.03333e-08 -1.57916e-09)
(-3.27671e-09 -1.13977e-08 -1.42982e-09)
(0 0 0)
(-5.6488e-10 -4.99318e-10 -5.72717e-11)
(-1.08361e-09 -9.75818e-10 -1.13337e-10)
(-1.54902e-09 -1.43821e-09 -1.70492e-10)
(-1.97139e-09 -1.90781e-09 -2.3246e-10)
(-2.35945e-09 -2.40264e-09 -3.02688e-10)
(-2.72124e-09 -2.93848e-09 -3.84496e-10)
(-3.06529e-09 -3.5297e-09 -4.81082e-10)
(-3.40256e-09 -4.19007e-09 -5.95336e-10)
(-3.74946e-09 -4.9338e-09 -7.2936e-10)
(-4.1326e-09 -5.77674e-09 -8.8353e-10)
(-4.59531e-09 -6.73765e-09 -1.05487e-09)
(-5.20457e-09 -7.83803e-09 -1.23465e-09)
(-6.05019e-09 -9.0961e-09 -1.40561e-09)
(-7.20624e-09 -1.04984e-08 -1.5419e-09)
(-8.53489e-09 -1.18679e-08 -1.61872e-09)
(-1.05645e-08 -1.41071e-08 -1.52609e-09)
(0 0 0)
(-6.44824e-10 -5.12548e-10 -5.9994e-11)
(-1.23947e-09 -1.00193e-09 -1.1847e-10)
(-1.77803e-09 -1.47724e-09 -1.77574e-10)
(-2.27464e-09 -1.96039e-09 -2.40911e-10)
(-2.74222e-09 -2.46988e-09 -3.11727e-10)
(-3.19373e-09 -3.02172e-09 -3.93026e-10)
(-3.64389e-09 -3.63024e-09 -4.87558e-10)
(-4.11161e-09 -4.30861e-09 -5.97616e-10)
(-4.62347e-09 -5.06933e-09 -7.24584e-10)
(-5.21875e-09 -5.92445e-09 -8.68091e-10)
(-5.95574e-09 -6.8848e-09 -1.02464e-09)
(-6.91776e-09 -7.95608e-09 -1.18565e-09)
(-8.21129e-09 -9.1267e-09 -1.33531e-09)
(-9.93234e-09 -1.03321e-08 -1.45012e-09)
(-1.20451e-08 -1.13332e-08 -1.50112e-09)
(-2.05925e-08 -1.59403e-08 -1.81911e-09)
(0 0 0)
(0 0 0)
(0 0 0)
(0 0 0)
(0 0 0)
(0 0 0)
(0 0 0)
(0 0 0)
(0 0 0)
(0 0 0)
(0 0 0)
(0 0 0)
(0 0 0)
(0 0 0)
(0 0 0)
(0 0 0)
(0 0 0)
(0 0 0)
(-7.75714e-11 -9.90155e-11 -8.6884e-12)
(-1.46701e-10 -1.93254e-10 -1.73219e-11)
(-2.04195e-10 -2.84084e-10 -2.63722e-11)
(-2.48787e-10 -3.7518e-10 -3.65393e-11)
(-2.77957e-10 -4.69183e-10 -4.85098e-11)
(-2.87309e-10 -5.67516e-10 -6.29775e-11)
(-2.69775e-10 -6.69931e-10 -8.06227e-11)
(-2.14633e-10 -7.73652e-10 -1.02023e-10)
(-1.06466e-10 -8.71919e-10 -1.2744e-10)
(7.54431e-11 -9.51791e-10 -1.56433e-10)
(3.56101e-10 -9.91263e-10 -1.87224e-10)
(7.59646e-10 -9.56554e-10 -2.15935e-10)
(1.29554e-09 -8.02957e-10 -2.36229e-10)
(1.92894e-09 -4.90593e-10 -2.41047e-10)
(2.51996e-09 -5.6489e-11 -2.29662e-10)
(3.63459e-09 1.62947e-09 -1.89151e-10)
(0 0 0)
(-1.56539e-10 -1.94448e-10 -1.70218e-11)
(-2.96535e-10 -3.79565e-10 -3.3918e-11)
(-4.14083e-10 -5.58135e-10 -5.15966e-11)
(-5.07295e-10 -7.37519e-10 -7.14098e-11)
(-5.72032e-10 -9.23156e-10 -9.46779e-11)
(-6.00838e-10 -1.11832e-09 -1.22729e-10)
(-5.81583e-10 -1.32343e-09 -1.56862e-10)
(-4.95774e-10 -1.53467e-09 -1.98175e-10)
(-3.16722e-10 -1.74173e-09 -2.47173e-10)
(-8.35682e-12 -1.92444e-09 -3.03017e-10)
(4.73323e-10 -2.04852e-09 -3.62334e-10)
(1.1717e-09 -2.06269e-09 -4.17705e-10)
(2.10534e-09 -1.90356e-09 -4.56869e-10)
(3.21378e-09 -1.52671e-09 -4.65751e-10)
(4.24912e-09 -1.00777e-09 -4.42153e-10)
(5.93377e-09 2.07485e-10 -3.2854e-10)
(0 0 0)
(-2.37986e-10 -2.8297e-10 -2.46938e-11)
(-4.51933e-10 -5.52474e-10 -4.9163e-11)
(-6.34065e-10 -8.12752e-10 -7.46844e-11)
(-7.83001e-10 -1.07483e-09 -1.03174e-10)
(-8.94541e-10 -1.34715e-09 -1.3649e-10)
(-9.6048e-10 -1.63546e-09 -1.76484e-10)
(-9.67094e-10 -1.94221e-09 -2.24959e-10)
(-8.93241e-10 -2.26515e-09 -2.83428e-10)
(-7.08263e-10 -2.59519e-09 -3.52582e-10)
(-3.70418e-10 -2.91298e-09 -4.31265e-10)
(1.72087e-10 -3.18507e-09 -5.14829e-10)
(9.72597e-10 -3.36149e-09 -5.93014e-10)
(2.05967e-09 -3.38207e-09 -6.48709e-10)
(3.37286e-09 -3.20788e-09 -6.6196e-10)
(4.62538e-09 -2.90316e-09 -6.29193e-10)
(6.82133e-09 -2.20288e-09 -4.68553e-10)
(0 0 0)
(-3.222e-10 -3.61375e-10 -3.14515e-11)
(-6.13637e-10 -7.05732e-10 -6.25434e-11)
(-8.65676e-10 -1.03876e-09 -9.48316e-11)
(-1.07877e-09 -1.37497e-09 -1.30677e-10)