/*--------------------------------*- C++ -*----------------------------------*\
| =========                 |                                                 |
| \\      /  F ield         | foam-extend: Open Source CFD                    |
|  \\    /   O peration     | Version:     3.1                                |
|   \\  /    A nd           | Web:         http://www.extend-project.de       |
|    \\/     M anipulation  |                                                 |
\*---------------------------------------------------------------------------*/
FoamFile
{
    version     2.0;
    format      ascii;
    class       surfaceVectorField;
    location    "2.3";
    object      Sf;
}
// * * * * * * * * * * * * * * * * * * * * * * * * * * * * * * * * * * * * * //

dimensions      [0 2 0 0 0 0 0];

internalField   nonuniform List<vector> 
41600
(
(0.000625471 -2.5694e-06 -1.76213e-08)
(-4.71133e-07 0.000705695 -1.16565e-08)
(7.67634e-09 8.63588e-09 0.000704689)
(-7.84967e-09 -8.83088e-09 -0.00070466)
(0.000625923 -4.95088e-06 -3.39483e-08)
(-4.51103e-07 0.000705507 -3.4879e-08)
(7.59569e-09 2.58147e-08 0.000705125)
(-7.76584e-09 -2.63961e-08 -0.000705074)
(0.000626363 -7.12188e-06 -4.89375e-08)
(-4.40416e-07 0.000705297 -5.85501e-08)
(7.99464e-09 4.33441e-08 0.000705532)
(-8.163e-09 -4.43063e-08 -0.000705459)
(0.000626815 -9.13378e-06 -6.30043e-08)
(-4.51509e-07 0.000705138 -8.42741e-08)
(9.0375e-09 6.2483e-08 0.000705967)
(-9.20175e-09 -6.38195e-08 -0.000705868)
(0.000627298 -1.10282e-05 -7.66216e-08)
(-4.82681e-07 0.000705021 -1.1405e-07)
(1.06272e-08 8.45664e-08 0.000706448)
(-1.07738e-08 -8.62533e-08 -0.00070632)
(0.000627832 -1.2842e-05 -9.02345e-08)
(-5.3381e-07 0.000704941 -1.501e-07)
(1.25288e-08 1.10561e-07 0.000706997)
(-1.26344e-08 -1.12533e-07 -0.000706833)
(0.000628437 -1.46021e-05 -1.03531e-07)
(-6.05135e-07 0.000704887 -1.94984e-07)
(1.43236e-08 1.40705e-07 0.000707632)
(-1.43609e-08 -1.4284e-07 -0.000707423)
(0.000629135 -1.63198e-05 -1.15703e-07)
(-6.98069e-07 0.000704845 -2.51764e-07)
(1.53451e-08 1.74034e-07 0.00070837)
(-1.52613e-08 -1.76121e-07 -0.000708106)
(0.00062995 -1.79899e-05 -1.25627e-07)
(-8.15091e-07 0.000704797 -3.24578e-07)
(1.4204e-08 2.07315e-07 0.000709231)
(-1.38916e-08 -2.0896e-07 -0.000708897)
(0.000630907 -1.95759e-05 -1.3079e-07)
(-9.58274e-07 0.000704711 -4.19239e-07)
(8.11558e-09 2.3271e-07 0.000710229)
(-7.46612e-09 -2.33275e-07 -0.000709805)
(0.000632038 -2.10067e-05 -1.27983e-07)
(-1.13216e-06 0.000704555 -5.44632e-07)
(-8.2319e-09 2.33484e-07 0.000711383)
(9.25735e-09 -2.32147e-07 -0.000710841)
(0.000633379 -2.2164e-05 -1.14818e-07)
(-1.34205e-06 0.000704278 -7.16124e-07)
(-4.42937e-08 1.76701e-07 0.000712713)
(4.55479e-08 -1.72715e-07 -0.00071201)
(0.000634968 -2.2883e-05 -9.41162e-08)
(-1.59007e-06 0.000703837 -9.62358e-07)
(-1.1697e-07 6.11157e-10 0.000714256)
(1.17911e-07 6.10669e-09 -0.000713314)
(0.00063682 -2.30186e-05 -8.74305e-08)
(-1.85254e-06 0.000703252 -1.3367e-06)
(-2.47342e-07 -3.98114e-07 0.000716086)
(2.47811e-07 4.07019e-07 -0.000714756)
(0.000638694 -2.26119e-05 -1.74806e-07)
(-1.89269e-06 0.000702687 -1.91077e-06)
(-4.11054e-07 -1.12038e-06 0.000718252)
(4.30472e-07 1.1516e-06 -0.000716254)
(-7.53955e-06 0.000700149 -4.99386e-07)
(-1.84234e-06 -3.55611e-06 0.000722808)
(3.74416e-06 5.65053e-06 -0.000721726)
(0.000625452 -2.53404e-06 -5.27145e-08)
(-9.22739e-07 0.000708229 -2.28419e-08)
(2.25775e-08 8.1264e-09 0.000707247)
(-2.30978e-08 -8.32174e-09 -0.000707183)
(0.000625885 -4.88456e-06 -1.01701e-07)
(-8.83052e-07 0.000707858 -6.83098e-08)
(2.22623e-08 2.42002e-08 0.000707474)
(-2.27812e-08 -2.47919e-08 -0.000707391)
(0.000626306 -7.02769e-06 -1.46903e-07)
(-8.61213e-07 0.000707441 -1.14577e-07)
(2.33682e-08 4.04276e-08 0.000707648)
(-2.38949e-08 -4.14341e-08 -0.000707547)
(0.000626737 -9.01372e-06 -1.89407e-07)
(-8.81729e-07 0.000707126 -1.64735e-07)
(2.64134e-08 5.80495e-08 0.0007079)
(-2.6936e-08 -5.94888e-08 -0.000707777)
(0.000627196 -1.08884e-05 -2.3086e-07)
(-9.41432e-07 0.000706898 -2.22694e-07)
(3.10558e-08 7.83581e-08 0.000708239)
(-3.1537e-08 -8.02291e-08 -0.000708089)
(0.000627702 -1.26883e-05 -2.72536e-07)
(-1.0391e-06 0.000706743 -2.92774e-07)
(3.66525e-08 1.02293e-07 0.000708678)
(-3.70488e-08 -1.04587e-07 -0.000708494)
(0.000628272 -1.44389e-05 -3.13409e-07)
(-1.17531e-06 0.00070664 -3.79812e-07)
(4.22948e-08 1.30532e-07 0.000709223)
(-4.2494e-08 -1.33182e-07 -0.000708997)
(0.000628926 -1.61557e-05 -3.51417e-07)
(-1.35254e-06 0.000706564 -4.89775e-07)
(4.62967e-08 1.63305e-07 0.000709874)
(-4.60838e-08 -1.66058e-07 -0.000709598)
(0.000629684 -1.7841e-05 -3.82823e-07)
(-1.57367e-06 0.000706484 -6.30378e-07)
(4.49196e-08 1.99443e-07 0.000710631)
(-4.40005e-08 -2.01836e-07 -0.000710294)
(0.000630565 -1.94779e-05 -4.00747e-07)
(-1.84166e-06 0.00070635 -8.12032e-07)
(3.10784e-08 2.35144e-07 0.000711476)
(-2.91248e-08 -2.36497e-07 -0.000711066)
(0.000631589 -2.10145e-05 -3.96135e-07)
(-2.15929e-06 0.000706091 -1.05036e-06)
(-8.14704e-09 2.62617e-07 0.000712381)
(1.13264e-08 -2.61981e-07 -0.00071188)
(0.000632767 -2.23573e-05 -3.59897e-07)
(-2.52409e-06 0.000705617 -1.37068e-06)
(-9.50782e-08 2.68186e-07 0.000713298)
(9.92903e-08 -2.64324e-07 -0.00071268)
(0.000634088 -2.33595e-05 -2.93981e-07)
(-2.91565e-06 0.000704831 -1.81733e-06)
(-2.65915e-07 2.32478e-07 0.000714166)
(2.70191e-07 -2.23807e-07 -0.000713377)
(0.000635468 -2.38491e-05 -2.42692e-07)
(-3.2368e-06 0.000703725 -2.46813e-06)
(-5.57134e-07 1.40089e-07 0.000714973)
(5.61851e-07 -1.24031e-07 -0.000713893)
(0.00063655 -2.37641e-05 -3.90478e-07)
(-3.02269e-06 0.000702572 -3.43029e-06)
(-8.87688e-07 1.29841e-08 0.000715844)
(9.35853e-07 1.71533e-08 -0.000714176)
(-7.05297e-06 0.000698306 -2.54182e-06)
(-3.01928e-06 7.51832e-07 0.000714876)
(5.81337e-06 -1.93307e-06 -0.000711803)
(0.000625414 -2.46087e-06 -8.72047e-08)
(-1.33632e-06 0.00071069 -3.30577e-08)
(3.63294e-08 7.33752e-09 0.00070974)
(-3.71931e-08 -7.52863e-09 -0.000709643)
(0.00062581 -4.74343e-06 -1.68511e-07)
(-1.27779e-06 0.000710141 -9.88297e-08)
(3.56538e-08 2.17729e-08 0.000709741)
(-3.65241e-08 -2.23494e-08 -0.000709629)
(0.000626194 -6.82311e-06 -2.43619e-07)
(-1.2442e-06 0.000709522 -1.65647e-07)
(3.73122e-08 3.62229e-08 0.000709666)
(-3.81975e-08 -3.71833e-08 -0.000709539)
(0.000626585 -8.75227e-06 -3.14565e-07)
(-1.27161e-06 0.000709056 -2.37893e-07)
(4.21943e-08 5.18893e-08 0.000709717)
(-4.30795e-08 -5.32293e-08 -0.000709573)
(0.000626999 -1.0578e-05 -3.84862e-07)
(-1.35469e-06 0.000708725 -3.21193e-07)
(4.96551e-08 7.00128e-08 0.000709898)
(-5.05183e-08 -7.1762e-08 -0.000709729)
(0.000627451 -1.23334e-05 -4.56032e-07)
(-1.49028e-06 0.000708501 -4.2163e-07)
(5.89233e-08 9.17197e-08 0.000710207)
(-5.96973e-08 -9.39074e-08 -0.000710007)
(0.000627955 -1.40465e-05 -5.26476e-07)
(-1.67888e-06 0.000708356 -5.45866e-07)
(6.90787e-08 1.18266e-07 0.000710634)
(-6.9544e-08 -1.20839e-07 -0.000710397)
(0.000628525 -1.57433e-05 -5.93834e-07)
(-1.92295e-06 0.000708264 -7.02064e-07)
(7.80432e-08 1.50968e-07 0.000711169)
(-7.78381e-08 -1.53778e-07 -0.00071089)
(0.000629175 -1.74382e-05 -6.51878e-07)
(-2.22479e-06 0.000708182 -9.00567e-07)
(8.12962e-08 1.91381e-07 0.000711793)
(-7.99631e-08 -1.94148e-07 -0.000711465)
(0.000629916 -1.91407e-05 -6.90695e-07)
(-2.58638e-06 0.000708054 -1.15508e-06)
(7.05135e-08 2.41727e-07 0.000712465)
(-6.74775e-08 -2.43926e-07 -0.000712084)
(0.000630755 -2.08378e-05 -6.95934e-07)
(-3.00347e-06 0.000707788 -1.48528e-06)
(3.13768e-08 3.05818e-07 0.000713116)
(-2.60687e-08 -3.06469e-07 -0.000712675)
(0.000631679 -2.24845e-05 -6.49555e-07)
(-3.45598e-06 0.000707261 -1.92102e-06)
(-5.93227e-08 3.91723e-07 0.000713633)
(6.71482e-08 -3.89147e-07 -0.000713129)
(0.000632641 -2.39872e-05 -5.40883e-07)
(-3.88775e-06 0.000706325 -2.51172e-06)
(-2.33512e-07 5.18203e-07 0.000713867)
(2.43536e-07 -5.09703e-07 -0.000713281)
(0.000633521 -2.51853e-05 -4.00017e-07)
(-4.13015e-06 0.000704905 -3.34141e-06)
(-5.09708e-07 7.24419e-07 0.00071371)
(5.23564e-07 -7.06115e-07 -0.000712978)
(0.00063403 -2.5916e-05 -4.1579e-07)
(-3.58956e-06 0.000703279 -4.54269e-06)
(-7.76142e-07 1.05528e-06 0.000713374)
(8.33767e-07 -1.03195e-06 -0.000712246)
(-8.32549e-06 0.000699855 -3.22362e-06)
(-1.79689e-06 1.90172e-06 0.000711132)
(3.27994e-06 -2.25655e-06 -0.000710077)
(0.00062536 -2.34889e-06 -1.19959e-07)
(-1.69533e-06 0.000713039 -4.18545e-08)
(4.85281e-08 6.36869e-09 0.00071213)
(-4.97135e-08 -6.53967e-09 -0.000712001)
(0.000625703 -4.52438e-06 -2.3228e-07)
(-1.61952e-06 0.000712317 -1.25109e-07)
(4.75017e-08 1.89371e-08 0.000711892)
(-4.86937e-08 -1.94464e-08 -0.000711753)
(0.000626034 -6.50545e-06 -3.35871e-07)
(-1.57427e-06 0.000711504 -2.09543e-07)
(4.96708e-08 3.16108e-08 0.000711555)
(-5.0871e-08 -3.24521e-08 -0.000711407)
(0.000626369 -8.34223e-06 -4.34787e-07)
(-1.60508e-06 0.000710894 -3.00623e-07)
(5.62393e-08 4.54392e-08 0.000711394)
(-5.74609e-08 -4.66345e-08 -0.000711233)
(0.000626719 -1.00743e-05 -5.34315e-07)
(-1.70364e-06 0.000710459 -4.05335e-07)
(6.63838e-08 6.16068e-08 0.000711402)
(-6.76372e-08 -6.32131e-08 -0.000711218)
(0.000627096 -1.17379e-05 -6.35411e-07)
(-1.86556e-06 0.000710166 -5.30944e-07)
(7.94919e-08 8.14068e-08 0.000711559)
(-8.06585e-08 -8.34635e-08 -0.000711349)
(0.000627508 -1.33705e-05 -7.36938e-07)
(-2.09017e-06 0.000709991 -6.85382e-07)
(9.48016e-08 1.06383e-07 0.00071185)
(-9.56072e-08 -1.089e-07 -0.000711609)
(0.000627963 -1.50073e-05 -8.37385e-07)
(-2.37856e-06 0.000709904 -8.78247e-07)
(1.10604e-07 1.38677e-07 0.000712258)
(-1.10644e-07 -1.41659e-07 -0.000711982)
(0.000628469 -1.66806e-05 -9.29533e-07)
(-2.73168e-06 0.000709859 -1.12151e-06)
(1.2356e-07 1.82082e-07 0.000712745)
(-1.22211e-07 -1.85441e-07 -0.000712432)
(0.000629027 -1.84194e-05 -1.0019e-06)
(-3.14841e-06 0.000709797 -1.43083e-06)
(1.27281e-07 2.43501e-07 0.000713259)
(-1.23675e-07 -2.46889e-07 -0.000712911)
(0.000629636 -2.02556e-05 -1.03643e-06)
(-3.6189e-06 0.000709627 -1.82806e-06)
(1.11242e-07 3.35127e-07 0.000713706)
(-1.04247e-07 -3.37697e-07 -0.000713328)
(0.000630277 -2.22098e-05 -1.00655e-06)
(-4.10886e-06 0.000709216 -2.34543e-06)
(6.03651e-08 4.78887e-07 0.000713945)
(-4.88889e-08 -4.78889e-07 -0.00071355)
(0.000630904 -2.42664e-05 -8.81515e-07)
(-4.53107e-06 0.000708376 -3.034e-06)
(-4.45926e-08 7.09766e-07 0.000713772)
(6.13943e-08 -7.04195e-07 -0.000713375)
(0.000631426 -2.63015e-05 -6.53036e-07)
(-4.67619e-06 0.000706925 -3.98042e-06)
(-2.09237e-07 1.06912e-06 0.000713004)
(2.33503e-07 -1.05444e-06 -0.000712594)
(0.000631682 -2.8e-05 -4.37114e-07)
(-3.90097e-06 0.000704961 -5.34373e-06)
(-3.60547e-07 1.55349e-06 0.000711823)
(4.15896e-07 -1.53707e-06 -0.000711237)
(-8.77318e-06 0.000702751 -3.76744e-06)
(-7.30362e-07 2.39894e-06 0.000709189)
(1.48042e-06 -2.91984e-06 -0.000709421)
(0.000625293 -2.19571e-06 -1.50233e-07)
(-1.98675e-06 0.000715235 -4.89521e-08)
(5.91964e-08 5.60642e-09 0.000714378)
(-6.0673e-08 -5.76309e-09 -0.000714221)
(0.000625571 -4.22551e-06 -2.91221e-07)
(-1.89574e-06 0.000714348 -1.46218e-07)
(5.79346e-08 1.67126e-08 0.000713892)
(-5.9414e-08 -1.71813e-08 -0.00071373)
(0.000625837 -6.07027e-06 -4.21633e-07)
(-1.83914e-06 0.000713349 -2.4463e-07)
(6.06288e-08 2.79768e-08 0.000713289)
(-6.2131e-08 -2.87761e-08 -0.000713123)
(0.000626103 -7.77255e-06 -5.47705e-07)
(-1.86904e-06 0.000712598 -3.50518e-07)
(6.87561e-08 4.03177e-08 0.000712907)
(-7.03295e-08 -4.14992e-08 -0.000712731)
(0.000626375 -9.36994e-06 -6.74833e-07)
(-1.9748e-06 0.000712058 -4.71693e-07)
(8.14924e-08 5.48524e-08 0.000712724)
(-8.31499e-08 -5.64757e-08 -0.00071253)
(0.000626662 -1.09028e-05 -8.04283e-07)
(-2.15052e-06 0.000711701 -6.16078e-07)
(9.84263e-08 7.2827e-08 0.000712716)
(-1.00035e-07 -7.49612e-08 -0.000712502)
(0.000626966 -1.24091e-05 -9.37085e-07)
(-2.39332e-06 0.0007115 -7.92358e-07)
(1.1912e-07 9.58466e-08 0.000712864)
(-1.20407e-07 -9.85842e-08 -0.000712624)
(0.00062729 -1.39263e-05 -1.073e-06)
(-2.70157e-06 0.000711424 -1.01084e-06)
(1.42926e-07 1.26523e-07 0.000713139)
(-1.43478e-07 -1.29961e-07 -0.000712871)
(0.000627631 -1.54991e-05 -1.20591e-06)
(-3.07341e-06 0.000711436 -1.28407e-06)
(1.68716e-07 1.69584e-07 0.000713499)
(-1.67777e-07 -1.73771e-07 -0.000713204)
(0.000627984 -1.71805e-05 -1.32503e-06)
(-3.50502e-06 0.000711483 -1.62838e-06)
(1.93848e-07 2.33518e-07 0.000713883)
(-1.90297e-07 -2.38357e-07 -0.000713566)
(0.000628343 -1.90429e-05 -1.41266e-06)
(-3.9857e-06 0.000711494 -2.06701e-06)
(2.14074e-07 3.33024e-07 0.000714203)
(-2.06213e-07 -3.38036e-07 -0.000713876)
(0.000628698 -2.11787e-05 -1.4363e-06)
(-4.47869e-06 0.000711355 -2.6344e-06)
(2.25502e-07 4.92814e-07 0.000714322)
(-2.11068e-07 -4.96529e-07 -0.000714009)
(0.00062903 -2.36595e-05 -1.3461e-06)
(-4.88661e-06 0.000710856 -3.38454e-06)
(2.20059e-07 7.49517e-07 0.000714024)
(-1.96943e-07 -7.49095e-07 -0.000713764)
(0.000629303 -2.64204e-05 -1.08557e-06)
(-4.98242e-06 0.000709678 -4.40915e-06)
(1.8666e-07 1.13806e-06 0.000713037)
(-1.52631e-07 -1.12996e-06 -0.000712869)
(0.000629426 -2.89926e-05 -6.25593e-07)
(-4.07648e-06 0.000707523 -5.88405e-06)
(1.14879e-07 1.63376e-06 0.000711257)
(-6.29976e-08 -1.62313e-06 -0.000711176)
(-8.94567e-06 0.000706731 -4.0336e-06)
(2.01347e-07 2.35497e-06 0.0007087)
(-2.42454e-07 -2.73015e-06 -0.000710556)
(0.000625215 -2.00445e-06 -1.77937e-07)
(-2.20048e-06 0.000717239 -5.40934e-08)
(6.87034e-08 5.06015e-09 0.000716447)
(-7.04525e-08 -5.2102e-09 -0.000716264)
(0.000625419 -3.85363e-06 -3.44659e-07)
(-2.09715e-06 0.000716197 -1.61438e-07)
(6.72522e-08 1.50653e-08 0.000715711)
(-6.90078e-08 -1.55202e-08 -0.000715529)
(0.000625611 -5.52631e-06 -4.9965e-07)
(-2.02986e-06 0.000715023 -2.69738e-07)
(7.04098e-08 2.51575e-08 0.00071484)
(-7.2219e-08 -2.59375e-08 -0.00071466)
(0.0006258 -7.06168e-06 -6.49933e-07)
(-2.05555e-06 0.000714134 -3.85793e-07)
(7.99258e-08 3.61385e-08 0.00071423)
(-8.1854e-08 -3.72807e-08 -0.000714044)
(0.000625988 -8.49654e-06 -8.00248e-07)
(-2.16133e-06 0.000713494 -5.17789e-07)
(9.50137e-08 4.89876e-08 0.000713849)
(-9.70912e-08 -5.05609e-08 -0.000713653)
(0.000626178 -9.86254e-06 -9.54799e-07)
(-2.3385e-06 0.000713069 -6.73971e-07)
(1.15461e-07 6.48318e-08 0.000713669)
(-1.17577e-07 -6.69435e-08 -0.000713457)
(0.000626368 -1.11886e-05 -1.11721e-06)
(-2.58124e-06 0.000712829 -8.6321e-07)
(1.41293e-07 8.51969e-08 0.000713662)
(-1.43187e-07 -8.7978e-08 -0.000713428)
(0.000626553 -1.25089e-05 -1.2881e-06)
(-2.88478e-06 0.000712748 -1.09564e-06)
(1.7306e-07 1.12484e-07 0.000713793)
(-1.74345e-07 -1.16118e-07 -0.000713537)
(0.000626723 -1.38695e-05 -1.46453e-06)
(-3.24375e-06 0.000712801 -1.38344e-06)
(2.11828e-07 1.50818e-07 0.000714022)
(-2.11712e-07 -1.55547e-07 -0.000713746)
(0.000626867 -1.53384e-05 -1.63883e-06)
(-3.6515e-06 0.000712958 -1.74247e-06)
(2.58697e-07 2.07294e-07 0.000714295)
(-2.55894e-07 -2.13316e-07 -0.000714007)
(0.000626973 -1.70169e-05 -1.79759e-06)
(-4.09967e-06 0.00071318 -2.19607e-06)
(3.1523e-07 2.93562e-07 0.000714545)
(-3.07618e-07 -3.00863e-07 -0.000714257)
(0.00062704 -1.9047e-05 -1.91083e-06)
(-4.56161e-06 0.000713393 -2.78084e-06)
(3.87091e-07 4.28264e-07 0.000714667)
(-3.71317e-07 -4.36257e-07 -0.000714407)
(0.00062709 -2.15951e-05 -1.92399e-06)
(-4.96384e-06 0.000713411 -3.55818e-06)
(4.76744e-07 6.40326e-07 0.000714474)
(-4.49207e-07 -6.47112e-07 -0.000714287)
(0.000627173 -2.47592e-05 -1.73989e-06)
(-5.10865e-06 0.000712844 -4.63606e-06)
(5.63523e-07 9.60796e-07 0.000713654)
(-5.20548e-07 -9.62326e-07 -0.000713611)
(0.000627304 -2.81166e-05 -1.11754e-06)
(-4.26008e-06 0.000710877 -6.206e-06)
(5.546e-07 1.37799e-06 0.000711654)
(-5.02234e-07 -1.37497e-06 -0.000711955)
(-9.13673e-06 0.000712355 -4.15408e-06)
(9.87062e-07 1.99101e-06 0.000709949)
(-1.63256e-06 -2.25798e-06 -0.000713533)
(0.000625131 -1.78198e-06 -2.02049e-07)
(-2.32981e-06 0.000719022 -5.70787e-08)
(7.73241e-08 4.61503e-09 0.000718303)
(-7.93296e-08 -4.75367e-09 -0.000718098)
(0.000625254 -3.42166e-06 -3.909e-07)
(-2.21798e-06 0.000717837 -1.70209e-07)
(7.56388e-08 1.36877e-08 0.000717321)
(-7.76566e-08 -1.41045e-08 -0.000717124)
(0.000625368 -4.89741e-06 -5.66902e-07)
(-2.14198e-06 0.000716499 -2.84041e-07)
(7.91208e-08 2.27108e-08 0.000716187)
(-8.12199e-08 -2.34225e-08 -0.000715997)
(0.000625477 -6.24229e-06 -7.36482e-07)
(-2.16143e-06 0.00071548 -4.05474e-07)
(8.97702e-08 3.23665e-08 0.000715349)
(-9.20312e-08 -3.3415e-08 -0.00071516)
(0.000625579 -7.4821e-06 -9.05246e-07)
(-2.2609e-06 0.000714736 -5.42652e-07)
(1.06807e-07 4.34747e-08 0.000714768)
(-1.093e-07 -4.49332e-08 -0.000714574)
(0.000625671 -8.63641e-06 -1.08113e-06)
(-2.42867e-06 0.000714226 -7.03807e-07)
(1.30211e-07 5.69391e-08 0.000714405)
(-1.32848e-07 -5.89182e-08 -0.000714199)
(0.000625748 -9.72564e-06 -1.26883e-06)
(-2.65566e-06 0.000713921 -8.97372e-07)
(1.60401e-07 7.39322e-08 0.000714224)
(-1.62954e-07 -7.65869e-08 -0.000714002)
(0.000625799 -1.07748e-05 -1.47021e-06)
(-2.93349e-06 0.000713801 -1.13249e-06)
(1.98753e-07 9.61144e-08 0.000714189)
(-2.00906e-07 -9.96718e-08 -0.000713951)
(0.000625809 -1.1818e-05 -1.68572e-06)
(-3.25243e-06 0.000713849 -1.42001e-06)
(2.47798e-07 1.25975e-07 0.000714267)
(-2.48802e-07 -1.30755e-07 -0.000714015)
(0.000625757 -1.29069e-05 -1.91198e-06)
(-3.60116e-06 0.000714053 -1.7738e-06)
(3.10981e-07 1.67285e-07 0.000714413)
(-3.09487e-07 -1.73674e-07 -0.000714155)
(0.000625622 -1.41289e-05 -2.14307e-06)
(-3.97033e-06 0.000714411 -2.21477e-06)
(3.93172e-07 2.25512e-07 0.000714585)
(-3.86971e-07 -2.34016e-07 -0.000714335)
(0.000625391 -1.56141e-05 -2.3627e-06)
(-4.34529e-06 0.00071489 -2.77845e-06)
(5.05042e-07 3.08006e-07 0.00071471)
(-4.90392e-07 -3.19348e-07 -0.000714493)
(0.000625098 -1.75733e-05 -2.53542e-06)
(-4.69939e-06 0.000715385 -3.53235e-06)
(6.56968e-07 4.25789e-07 0.000714658)
(-6.28894e-07 -4.40328e-07 -0.000714511)
(0.000624893 -2.03212e-05 -2.56699e-06)
(-4.95145e-06 0.000715608 -4.61466e-06)
(8.28373e-07 5.96864e-07 0.000714194)
(-7.80322e-07 -6.12957e-07 -0.000714184)
(0.000625066 -2.39187e-05 -2.02498e-06)
(-4.48998e-06 0.00071449 -6.27948e-06)
(8.89724e-07 8.45276e-07 0.00071251)
(-8.33423e-07 -8.60028e-07 -0.000712979)
(-1.02847e-05 0.000722177 -4.13775e-06)
(1.73717e-06 1.3868e-06 0.000714454)
(-2.84295e-06 -1.58206e-06 -0.000719984)
(0.000625044 -1.53289e-06 -2.21692e-07)
(8.51909e-08 4.22448e-09 0.000719919)
(-8.7433e-08 -4.35211e-09 -0.000719697)
(-2.37136e-06 0.000720555 -5.78942e-08)
(0.000625084 -2.94328e-06 -4.28318e-07)
(8.32062e-08 1.24831e-08 0.000718705)
(-8.54565e-08 -1.28594e-08 -0.000718496)
(-2.25593e-06 0.000719248 -1.72495e-07)
(0.000625119 -4.20696e-06 -6.20576e-07)
(8.68212e-08 2.05391e-08 0.00071732)
(-8.91792e-08 -2.11714e-08 -0.000717124)
(-2.17468e-06 0.000717763 -2.87462e-07)
(0.000625147 -5.34237e-06 -8.04748e-07)
(9.82927e-08 2.89225e-08 0.00071626)
(-1.00863e-07 -2.9855e-08 -0.000716071)
(-2.18708e-06 0.000716616 -4.09597e-07)
(0.000625165 -6.36177e-06 -9.88486e-07)
(1.16771e-07 3.8263e-08 0.000715472)
(-1.19644e-07 -3.95583e-08 -0.000715284)
(-2.27574e-06 0.000715756 -5.46806e-07)
(0.000625166 -7.2761e-06 -1.18079e-06)
(1.42309e-07 4.91146e-08 0.000714912)
(-1.45433e-07 -5.08644e-08 -0.000714717)
(-2.42657e-06 0.000715142 -7.06759e-07)
(0.000625141 -8.09609e-06 -1.38655e-06)
(1.75559e-07 6.21077e-08 0.000714538)
(-1.78758e-07 -6.44672e-08 -0.000714333)
(-2.6272e-06 0.000714743 -8.96899e-07)
(0.000625075 -8.83123e-06 -1.60946e-06)
(2.18213e-07 7.79875e-08 0.000714315)
(-2.21214e-07 -8.11533e-08 -0.0007141)
(-2.8647e-06 0.000714539 -1.1249e-06)
(0.000624948 -9.49277e-06 -1.8515e-06)
(2.73193e-07 9.74281e-08 0.000714207)
(-2.7532e-07 -1.0165e-07 -0.000713985)
(-3.12365e-06 0.000714515 -1.39937e-06)
(0.000624732 -1.00962e-05 -2.11344e-06)
(3.44467e-07 1.20788e-07 0.000714174)
(-3.44477e-07 -1.26488e-07 -0.000713956)
(-3.3852e-06 0.000714662 -1.73059e-06)
(0.000624385 -1.06623e-05 -2.39652e-06)
(4.37296e-07 1.47639e-07 0.00071418)
(-4.33227e-07 -1.55581e-07 -0.000713978)
(-3.62721e-06 0.000714985 -2.13306e-06)
(0.000623847 -1.12185e-05 -2.69847e-06)
(5.60984e-07 1.74161e-07 0.000714133)
(-5.49527e-07 -1.85804e-07 -0.00071398)
(-3.81881e-06 0.000715458 -2.62992e-06)
(0.00062303 -1.18274e-05 -3.01133e-06)
(7.23953e-07 1.88638e-07 0.000713858)
(-7.00272e-07 -2.06698e-07 -0.000713815)
(-3.90622e-06 0.000716012 -3.26251e-06)
(0.000621793 -1.26527e-05 -3.2914e-06)
(9.05628e-07 1.70738e-07 0.000712953)
(-8.63143e-07 -2.00526e-07 -0.000713178)
(-3.75648e-06 0.000716463 -4.10954e-06)
(0.000619978 -1.4361e-05 -3.18512e-06)
(9.95264e-07 1.20539e-07 0.000710221)
(-9.4326e-07 -1.65779e-07 -0.000711317)
(-2.72663e-06 0.000716243 -5.28932e-06)
(2.52508e-06 4.97335e-07 0.0007242)
(-3.95511e-06 -6.47523e-07 -0.000732154)
(-1.58027e-05 0.000741636 -3.44724e-06)
(0.000625491 -2.60198e-06 -1.48969e-08)
(-4.90887e-07 0.000705727 -1.06229e-08)
(7.22188e-09 8.12462e-09 0.000704715)
(0.000625962 -5.0139e-06 -2.88409e-08)
(-4.70701e-07 0.000705538 -3.17695e-08)
(7.14944e-09 2.42903e-08 0.000705171)
(0.000626424 -7.21279e-06 -4.14766e-08)
(-4.60842e-07 0.000705326 -5.32035e-08)
(7.53712e-09 4.08033e-08 0.000705598)
(0.000626899 -9.25065e-06 -5.29803e-08)
(-4.7435e-07 0.000705166 -7.62245e-08)
(8.55414e-09 5.88841e-08 0.000706054)
(0.000627409 -1.11701e-05 -6.38596e-08)
(-5.09566e-07 0.000705049 -1.02461e-07)
(1.01017e-08 7.98334e-08 0.000706561)
(0.000627976 -1.30085e-05 -7.40504e-08)
(-5.66506e-07 0.000704969 -1.33518e-07)
(1.19801e-08 1.04619e-07 0.00070714)
(0.000628622 -1.47919e-05 -8.29964e-08)
(-6.45679e-07 0.000704915 -1.71123e-07)
(1.38377e-08 1.33598e-07 0.000707812)
(0.000629371 -1.65303e-05 -8.99882e-08)
(-7.48785e-07 0.000704871 -2.17123e-07)
(1.50631e-08 1.66056e-07 0.000708594)
(0.00063025 -1.82163e-05 -9.386e-08)
(-8.78898e-07 0.000704819 -2.73281e-07)
(1.4442e-08 1.99266e-07 0.000709508)
(0.000631287 -1.98091e-05 -9.27409e-08)
(-1.03888e-06 0.000704724 -3.41223e-07)
(9.70812e-09 2.26663e-07 0.000710569)
(0.000632517 -2.12337e-05 -8.54647e-08)
(-1.23475e-06 0.000704549 -4.22028e-07)
(-3.42924e-09 2.3448e-07 0.000711798)
(0.000633978 -2.23702e-05 -7.29558e-08)
(-1.47356e-06 0.000704242 -5.13842e-07)
(-3.18801e-08 1.9666e-07 0.000713215)
(0.000635705 -2.30646e-05 -6.33739e-08)
(-1.75855e-06 0.000703751 -6.04626e-07)
(-8.5692e-08 6.85911e-08 0.000714851)
(0.00063769 -2.32131e-05 -7.88127e-08)
(-2.06159e-06 0.000703087 -6.53669e-07)
(-1.7037e-07 -2.11475e-07 0.000716755)
(0.00063966 -2.29564e-05 -1.42472e-07)
(-2.13084e-06 0.000702422 -5.79921e-07)
(-2.50718e-07 -6.73744e-07 0.000718896)
(-5.84879e-06 0.000701471 -3.28673e-07)
(-8.57708e-07 -1.87542e-06 0.000723522)
(0.000625472 -2.56652e-06 -4.47543e-08)
(-9.61372e-07 0.000708295 -2.08391e-08)
(2.12291e-08 7.63199e-09 0.000707302)
(0.000625924 -4.94763e-06 -8.67342e-08)
(-9.21305e-07 0.000707921 -6.22497e-08)
(2.09251e-08 2.27113e-08 0.000707546)
(0.000626365 -7.11919e-06 -1.24949e-07)
(-9.0102e-07 0.000707501 -1.041e-07)
(2.19869e-08 3.79148e-08 0.000707737)
(0.000626819 -9.13207e-06 -1.60066e-07)
(-9.26142e-07 0.000707183 -1.48954e-07)
(2.49346e-08 5.44374e-08 0.000708007)
(0.000627304 -1.1033e-05 -1.93327e-07)
(-9.93663e-07 0.000706955 -1.99988e-07)
(2.945e-08 7.3547e-08 0.00070837)
(0.000627842 -1.28591e-05 -2.24667e-07)
(-1.10263e-06 0.000706802 -2.60444e-07)
(3.49869e-08 9.62182e-08 0.000708837)
(0.000628452 -1.46349e-05 -2.52569e-07)
(-1.25386e-06 0.000706699 -3.33602e-07)
(4.07636e-08 1.23183e-07 0.000709413)
(0.000629155 -1.63751e-05 -2.74841e-07)
(-1.45061e-06 0.00070662 -4.22767e-07)
(4.52788e-08 1.54798e-07 0.000710102)
(0.000629972 -1.80789e-05 -2.87533e-07)
(-1.69665e-06 0.000706532 -5.3137e-07)
(4.53703e-08 1.90348e-07 0.000710902)
(0.000630925 -1.97256e-05 -2.84929e-07)
(-1.99611e-06 0.000706379 -6.62408e-07)
(3.51275e-08 2.26869e-07 0.000711795)
(0.000632032 -2.126e-05 -2.63691e-07)
(-2.35356e-06 0.000706088 -8.16887e-07)
(3.91409e-09 2.57788e-07 0.000712755)
(0.000633295 -2.25816e-05 -2.23092e-07)
(-2.76756e-06 0.00070556 -9.89069e-07)
(-6.4579e-08 2.71789e-07 0.000713733)
(0.000634679 -2.35398e-05 -1.80172e-07)
(-3.2162e-06 0.000704688 -1.15319e-06)
(-1.91843e-07 2.53616e-07 0.000714672)
(0.000636032 -2.39703e-05 -1.88056e-07)
(-3.58772e-06 0.000703466 -1.23136e-06)
(-3.83641e-07 1.91859e-07 0.000715558)
(0.000636962 -2.38454e-05 -3.04343e-07)
(-3.40271e-06 0.000702207 -1.08373e-06)
(-5.46208e-07 1.02667e-07 0.000716464)
(-5.23617e-06 0.000698697 -3.17461e-07)
(-1.41561e-06 4.16413e-07 0.000715621)
(0.000625433 -2.49267e-06 -7.44478e-08)
(-1.39211e-06 0.000710788 -3.01783e-08)
(3.41285e-08 6.87291e-09 0.000709824)
(0.000625847 -4.80491e-06 -1.44069e-07)
(-1.33299e-06 0.000710235 -9.00952e-08)
(3.34732e-08 2.03958e-08 0.000709838)
(0.00062625 -6.91201e-06 -2.07732e-07)
(-1.3016e-06 0.00070961 -1.50596e-07)
(3.50647e-08 3.39492e-08 0.000709776)
(0.000626661 -8.8676e-06 -2.66976e-07)
(-1.33553e-06 0.000709142 -2.15392e-07)
(3.97696e-08 4.86809e-08 0.000709842)
(0.0006271 -1.07204e-05 -3.23663e-07)
(-1.42973e-06 0.000708812 -2.8899e-07)
(4.70048e-08 6.57701e-08 0.000710044)
(0.000627582 -1.25032e-05 -3.77697e-07)
(-1.58123e-06 0.00070859 -3.75935e-07)
(5.61348e-08 8.6305e-08 0.000710376)
(0.000628121 -1.42435e-05 -4.26709e-07)
(-1.79078e-06 0.000708446 -4.80672e-07)
(6.63733e-08 1.11533e-07 0.00071083)
(0.000628735 -1.59669e-05 -4.66987e-07)
(-2.06191e-06 0.000708352 -6.07642e-07)
(7.59534e-08 1.42831e-07 0.000711394)
(0.000629436 -1.76856e-05 -4.91725e-07)
(-2.39789e-06 0.00070826 -7.61378e-07)
(8.11321e-08 1.81829e-07 0.000712048)
(0.000630238 -1.94068e-05 -4.91935e-07)
(-2.80198e-06 0.000708111 -9.45542e-07)
(7.47572e-08 2.30618e-07 0.000712749)
(0.000631141 -2.11113e-05 -4.59613e-07)
(-3.27087e-06 0.000707806 -1.16016e-06)
(4.49587e-08 2.92582e-07 0.000713427)
(0.000632123 -2.27445e-05 -3.86556e-07)
(-3.78331e-06 0.00070721 -1.39443e-06)
(-2.55347e-08 3.74011e-07 0.000713966)
(0.000633107 -2.41959e-05 -2.83125e-07)
(-4.27684e-06 0.000706171 -1.60883e-06)
(-1.56196e-07 4.8684e-07 0.000714219)
(0.000633911 -2.52804e-05 -2.03604e-07)
(-4.55899e-06 0.000704624 -1.69441e-06)
(-3.43106e-07 6.50635e-07 0.000714094)
(0.00063425 -2.5822e-05 -2.23193e-07)
(-4.04005e-06 0.000702929 -1.47212e-06)
(-4.77895e-07 8.7533e-07 0.000713782)
(-5.8159e-06 0.000699719 -4.4369e-07)
(-8.47396e-07 1.30915e-06 0.00071179)
(0.000625377 -2.37829e-06 -1.02806e-07)
(-1.76585e-06 0.000713166 -3.82466e-08)
(4.55648e-08 5.97624e-09 0.000712241)
(0.000625736 -4.58178e-06 -1.98831e-07)
(-1.68932e-06 0.000712439 -1.14196e-07)
(4.45793e-08 1.77672e-08 0.000712012)
(0.000626084 -6.58875e-06 -2.86895e-07)
(-1.64671e-06 0.000711619 -1.90837e-07)
(4.66745e-08 2.96656e-08 0.000711683)
(0.000626437 -8.45148e-06 -3.69944e-07)
(-1.68558e-06 0.000711007 -2.72754e-07)
(5.29952e-08 4.26722e-08 0.000711535)
(0.000626809 -1.02107e-05 -4.50737e-07)
(-1.79787e-06 0.000710575 -3.65562e-07)
(6.27854e-08 5.78948e-08 0.000711559)
(0.000627211 -1.19017e-05 -5.28589e-07)
(-1.97903e-06 0.000710286 -4.74659e-07)
(7.55864e-08 7.65484e-08 0.000711736)
(0.000627653 -1.35626e-05 -6.00493e-07)
(-2.22893e-06 0.000710113 -6.05236e-07)
(9.08093e-08 1.0013e-07 0.000712047)
(0.000628144 -1.52287e-05 -6.61603e-07)
(-2.54961e-06 0.000710026 -7.62509e-07)
(1.07068e-07 1.30714e-07 0.000712474)
(0.000628691 -1.6932e-05 -7.03204e-07)
(-2.94301e-06 0.000709974 -9.5146e-07)
(1.21608e-07 1.71779e-07 0.000712977)
(0.000629297 -1.86997e-05 -7.13613e-07)
(-3.40917e-06 0.000709893 -1.17581e-06)
(1.28896e-07 2.29514e-07 0.000713499)
(0.000629955 -2.05586e-05 -6.7707e-07)
(-3.93847e-06 0.000709685 -1.43449e-06)
(1.20373e-07 3.14696e-07 0.000713943)
(0.000630642 -2.25201e-05 -5.74961e-07)
(-4.49351e-06 0.000709206 -1.71242e-06)
(8.40596e-08 4.45247e-07 0.000714161)
(0.00063129 -2.45427e-05 -3.955e-07)
(-4.97594e-06 0.000708258 -1.95879e-06)
(6.01749e-09 6.45612e-07 0.000713943)
(0.000631782 -2.64601e-05 -1.65838e-07)
(-5.14817e-06 0.000706675 -2.04145e-06)
(-1.11302e-07 9.34893e-07 0.000713122)
(0.000631978 -2.79112e-05 2.66202e-08)
(-4.39436e-06 0.000704649 -1.75534e-06)
(-2.02559e-07 1.28432e-06 0.000711913)
(-5.84086e-06 0.000701924 -5.71737e-07)
(-3.31866e-07 1.74182e-06 0.000709402)
(0.000625307 -2.22273e-06 -1.28876e-07)
(-2.06907e-06 0.000715389 -4.4757e-08)
(5.55712e-08 5.25551e-09 0.000714513)
(0.000625598 -4.27836e-06 -2.49861e-07)
(-1.97716e-06 0.000714496 -1.3362e-07)
(5.43506e-08 1.56534e-08 0.000714033)
(0.000625879 -6.14767e-06 -3.61224e-07)
(-1.92344e-06 0.00071349 -2.2315e-07)
(5.6946e-08 2.61813e-08 0.000713433)
(0.00062616 -7.87473e-06 -4.67394e-07)
(-1.9625e-06 0.000712737 -3.18562e-07)
(6.47396e-08 3.77107e-08 0.000713059)
(0.00062645 -9.49639e-06 -5.71417e-07)
(-2.08354e-06 0.0007122 -4.26173e-07)
(7.69695e-08 5.12914e-08 0.000712889)
(0.000626756 -1.10536e-05 -6.7194e-07)
(-2.28054e-06 0.000711848 -5.51864e-07)
(9.3374e-08 6.80885e-08 0.000712894)
(0.000627084 -1.25868e-05 -7.6668e-07)
(-2.55119e-06 0.000711652 -7.01258e-07)
(1.1372e-07 8.96218e-08 0.000713055)
(0.000627434 -1.41344e-05 -8.50801e-07)
(-2.89463e-06 0.000711581 -8.79868e-07)
(1.3755e-07 1.18317e-07 0.000713341)
(0.000627806 -1.5742e-05 -9.14649e-07)
(-3.30976e-06 0.000711592 -1.09271e-06)
(1.64022e-07 1.58459e-07 0.000713704)
(0.000628194 -1.74623e-05 -9.43794e-07)
(-3.79397e-06 0.000711629 -1.34331e-06)
(1.9094e-07 2.17676e-07 0.000714079)
(0.000628591 -1.93669e-05 -9.16088e-07)
(-4.33695e-06 0.000711614 -1.63002e-06)
(2.14942e-07 3.08758e-07 0.00071437)
(0.000628989 -2.15381e-05 -7.9899e-07)
(-4.89764e-06 0.000711417 -1.9354e-06)
(2.32049e-07 4.52244e-07 0.000714427)
(0.000629366 -2.40231e-05 -5.48993e-07)
(-5.36528e-06 0.000710817 -2.20172e-06)
(2.32107e-07 6.75213e-07 0.000714017)
(0.000629687 -2.6707e-05 -1.48005e-07)
(-5.48267e-06 0.000709504 -2.28249e-06)
(2.00533e-07 9.93721e-07 0.000712878)
(0.00062988 -2.90262e-05 3.15123e-07)
(-4.59927e-06 0.000707237 -1.95505e-06)
(1.26935e-07 1.36446e-06 0.000710993)
(-5.6566e-06 0.000705084 -6.91261e-07)
(1.29222e-07 1.78309e-06 0.00070841)
(0.000625226 -2.02901e-06 -1.5269e-07)
(-2.29129e-06 0.000717419 -4.94846e-08)