/*--------------------------------*- C++ -*----------------------------------*\
| =========                 |                                                 |
| \\      /  F ield         | foam-extend: Open Source CFD                    |
|  \\    /   O peration     | Version:     3.1                                |
|   \\  /    A nd           | Web:         http://www.extend-project.de       |
|    \\/     M anipulation  |                                                 |
\*---------------------------------------------------------------------------*/
FoamFile
{
    version     2.0;
    format      ascii;
    class       volVectorField;
    location    "2.3";
    object      U;
}
// * * * * * * * * * * * * * * * * * * * * * * * * * * * * * * * * * * * * * //

dimensions      [0 1 -1 0 0 0 0];

internalField   nonuniform List<vector> 
14592
(
(0.0189827 -3.2216e-05 -0.00153651)
(0.0187965 0.000187618 -0.00308597)
(0.0183668 0.000319667 -0.0043523)
(0.0178666 0.000344002 -0.00555818)
(0.017511 0.000300654 -0.00669252)
(0.0174091 0.000224315 -0.00773663)
(0.0175602 0.000142085 -0.00871094)
(0.0178825 7.35199e-05 -0.00969223)
(0.0182581 2.10591e-05 -0.010804)
(0.0185837 -3.45839e-05 -0.0122196)
(0.0188112 -0.00013414 -0.0141698)
(0.0189672 -0.000339135 -0.016968)
(0.0191454 -0.000723282 -0.021025)
(0.0192513 -0.00124278 -0.0266784)
(0.0180049 -0.00131303 -0.0328408)
(0.0121451 0.000276787 -0.0296021)
(0.0529531 9.23364e-05 -0.0018069)
(0.0526212 0.000491999 -0.00483053)
(0.0519907 0.000675009 -0.00789868)
(0.0512463 0.000567301 -0.0110725)
(0.0506743 0.000270941 -0.0141408)
(0.0504557 -5.41691e-05 -0.0169137)
(0.0506055 -0.000272408 -0.0193232)
(0.0509843 -0.00031512 -0.0214621)
(0.0513553 -0.000189336 -0.0235753)
(0.0514658 3.12563e-05 -0.0260419)
(0.0511064 0.000218997 -0.0293681)
(0.0501116 0.000205144 -0.0342126)
(0.0483219 -0.000209675 -0.0414182)
(0.0451642 -0.00110711 -0.0516458)
(0.0379424 -0.00179881 -0.0621006)
(0.0211977 -0.000118572 -0.0509691)
(0.0822498 0.000232876 -0.00139969)
(0.0820382 0.000781736 -0.00426784)
(0.0815071 0.00101668 -0.0077014)
(0.0806684 0.000799886 -0.0117485)
(0.0797204 0.000247918 -0.0160782)
(0.0788971 -0.000367093 -0.0202616)
(0.0783268 -0.000770463 -0.0239974)
(0.0779717 -0.000792669 -0.0272049)
(0.077634 -0.000405253 -0.0300586)
(0.0770113 0.000293107 -0.0329798)
(0.0757614 0.00110562 -0.0366028)
(0.0735028 0.00178895 -0.0417943)
(0.0697931 0.00205559 -0.0497146)
(0.0637295 0.00162607 -0.0616008)
(0.0516327 0.000565766 -0.0744814)
(0.026356 0.000616712 -0.0604365)
(0.106662 0.000288738 -0.00108872)
(0.106582 0.00092695 -0.0033218)
(0.106218 0.00125134 -0.00623318)
(0.105373 0.00106482 -0.0101301)
(0.104043 0.000446357 -0.0148262)
(0.102409 -0.000301952 -0.0198339)
(0.100706 -0.000810973 -0.0246277)
(0.0990806 -0.000802606 -0.0288625)
(0.0975072 -0.000160762 -0.0325011)
(0.0957642 0.00104617 -0.0358606)
(0.0934899 0.00262533 -0.0395919)
(0.0901727 0.00432978 -0.044666)
(0.0851621 0.00586391 -0.0524509)
(0.0773405 0.00684122 -0.0648011)
(0.0622098 0.00621128 -0.0794109)
(0.0305342 0.00319677 -0.0651812)
(0.126168 0.000317948 -0.000921669)
(0.12615 0.00100071 -0.00266572)
(0.125923 0.00144571 -0.00491335)
(0.125164 0.00144002 -0.00820985)
(0.123637 0.00100364 -0.012652)
(0.121377 0.000392521 -0.0178745)
(0.118623 -1.94193e-05 -0.0232761)
(0.115673 0.000111319 -0.0282944)
(0.112707 0.000974094 -0.0326432)
(0.109683 0.00260191 -0.0364543)
(0.106347 0.00487503 -0.0403045)
(0.102159 0.00762603 -0.0451927)
(0.0963551 0.0106393 -0.0525789)
(0.0876975 0.0136439 -0.0648248)
(0.0710576 0.014512 -0.0805637)
(0.03448 0.0079465 -0.0671349)
(0.140784 0.000346506 -0.000825015)
(0.140775 0.00106537 -0.0022897)
(0.140637 0.00163791 -0.00405338)
(0.140005 0.00189256 -0.00675513)
(0.138485 0.00181569 -0.010722)
(0.135932 0.00158713 -0.0157873)
(0.132513 0.00151222 -0.0213904)
(0.128574 0.00191951 -0.0268433)
(0.124473 0.00304174 -0.0316639)
(0.120372 0.00500952 -0.0357976)
(0.11618 0.00781969 -0.0396936)
(0.111425 0.0114755 -0.0443129)
(0.10534 0.015931 -0.0510957)
(0.0966226 0.0213592 -0.0627361)
(0.0798721 0.0250461 -0.079026)
(0.039202 0.0155566 -0.0667941)
(0.150526 0.000376013 -0.000756422)
(0.150513 0.00113243 -0.00205932)
(0.150429 0.00182127 -0.00352903)
(0.149928 0.00235414 -0.00580462)
(0.148532 0.00271852 -0.0093372)
(0.145964 0.00302061 -0.0141149)
(0.142297 0.00346611 -0.0196546)
(0.137883 0.00429842 -0.025235)
(0.133179 0.00574654 -0.0302433)
(0.128501 0.00798893 -0.0344702)
(0.123956 0.0111514 -0.0382324)
(0.119179 0.0154734 -0.0423982)
(0.113579 0.0211589 -0.0482773)
(0.105689 0.0292652 -0.0586093)
(0.091112 0.0378177 -0.0747573)
(0.0469007 0.0286042 -0.0637056)
(0.155396 0.000403224 -0.00070117)
(0.155388 0.00118754 -0.0018916)
(0.155357 0.00197042 -0.00318841)
(0.154981 0.00276362 -0.00520859)
(0.153754 0.00358098 -0.00844488)
(0.151342 0.00446737 -0.0129592)
(0.147765 0.00551206 -0.0183198)
(0.143367 0.00684379 -0.023801)
(0.13866 0.00862003 -0.0287291)
(0.134056 0.0110384 -0.0327961)
(0.129855 0.0143206 -0.0362044)
(0.125807 0.0189196 -0.0396777)
(0.121894 0.0253012 -0.0442991)
(0.116033 0.0354927 -0.0522728)
(0.109303 0.0524435 -0.0670942)
(0.0637913 0.0496702 -0.0559969)
(0.020288 -5.74022e-05 -0.0015165)
(0.0200413 0.000149973 -0.00302912)
(0.0194931 0.000282343 -0.00425491)
(0.0188183 0.000308053 -0.00543169)
(0.0182382 0.000264613 -0.00655794)
(0.0178689 0.000183028 -0.00761282)
(0.0177122 9.26926e-05 -0.0086092)
(0.0176779 1.55861e-05 -0.00960692)
(0.0176267 -4.5174e-05 -0.0107119)
(0.0174194 -0.000109488 -0.0120741)
(0.0169523 -0.000220496 -0.0138843)
(0.016166 -0.00044201 -0.0163683)
(0.0150126 -0.000837849 -0.0197231)
(0.0131615 -0.00136213 -0.0237704)
(0.00961425 -0.00176155 -0.0266086)
(0.00445586 -0.00151426 -0.0203023)
(0.0566441 5.51819e-05 -0.00173561)
(0.0562103 0.000412375 -0.00462119)
(0.0553716 0.000572596 -0.00751988)
(0.0543012 0.000437271 -0.0105361)
(0.0532864 0.00010101 -0.0135019)
(0.0525146 -0.00026894 -0.0162395)
(0.0520073 -0.000525017 -0.0186645)
(0.0516147 -0.000585357 -0.0208357)
(0.0510673 -0.000453205 -0.0229534)
(0.050053 -0.000210941 -0.0253453)
(0.048267 -1.4355e-06 -0.0284434)
(0.0454076 -1.4712e-05 -0.0327594)
(0.0411132 -0.000460029 -0.0387345)
(0.0344199 -0.00141365 -0.0459207)
(0.0233126 -0.00248322 -0.0499237)
(0.00947315 -0.00232084 -0.0352094)
(0.0879968 0.000197194 -0.00132868)
(0.0876921 0.000695481 -0.00402063)
(0.0869642 0.000898096 -0.00719021)
(0.085798 0.000633661 -0.0109416)
(0.0843674 -3.02432e-08 -0.0150257)
(0.0828853 -0.000716934 -0.0190688)
(0.0814766 -0.00121216 -0.0227701)
(0.0801038 -0.00128089 -0.0260082)
(0.0785497 -0.00087569 -0.0288939)
(0.0764612 -0.000101124 -0.0317719)
(0.0733921 0.000815045 -0.0351866)
(0.0687938 0.00158683 -0.0398346)
(0.0619791 0.00187828 -0.0464393)
(0.0515046 0.00136523 -0.0547803)
(0.0342924 -4.21279e-05 -0.0595361)
(0.0132664 -0.00126449 -0.0417341)
(0.114118 0.000263524 -0.00103471)
(0.113953 0.000859208 -0.00313069)
(0.113425 0.00116358 -0.00576962)
(0.112319 0.000940538 -0.00928554)
(0.110576 0.000236592 -0.0136049)
(0.10831 -0.000642019 -0.0183391)
(0.105716 -0.00128632 -0.0230099)
(0.102934 -0.00135887 -0.0272469)
(0.0999421 -0.000702934 -0.0309396)
(0.0964936 0.000633302 -0.0343055)
(0.0921407 0.00242798 -0.0378778)
(0.0861996 0.00438373 -0.042452)
(0.0777416 0.00614332 -0.0489814)
(0.0649435 0.00718872 -0.0576956)
(0.0435006 0.00632879 -0.0632059)
(0.0167018 0.00245111 -0.044795)
(0.134988 0.000303151 -0.000879762)
(0.134882 0.000958562 -0.00254436)
(0.134508 0.00140171 -0.00457311)
(0.133547 0.00138775 -0.00748142)
(0.131715 0.000897635 -0.0114605)
(0.128933 0.000176131 -0.0162882)
(0.125346 -0.000367631 -0.021464)
(0.121205 -0.000326778 -0.0264307)
(0.1167 0.000558485 -0.0308409)
(0.1118 0.00235572 -0.0347016)
(0.106195 0.00495088 -0.0384532)
(0.0991971 0.00814475 -0.0429006)
(0.0897545 0.0116891 -0.0491283)
(0.0758571 0.0150992 -0.0578332)
(0.0518669 0.0159326 -0.063921)
(0.020272 0.00881788 -0.0457333)
(0.150632 0.000340809 -0.000789409)
(0.150532 0.00104988 -0.00221499)
(0.150241 0.00163439 -0.00382501)
(0.149438 0.00190641 -0.00617462)
(0.147699 0.00181857 -0.00964942)
(0.144754 0.00153309 -0.0142371)
(0.140622 0.00137884 -0.0195181)
(0.135559 0.00173687 -0.0248652)
(0.1299 0.00291606 -0.0297348)
(0.123834 0.00509941 -0.0339543)
(0.117266 0.00832512 -0.0378151)
(0.10962 0.0126092 -0.0420674)
(0.0998461 0.0179497 -0.0478171)
(0.0859709 0.0243126 -0.0561739)
(0.0610089 0.0283396 -0.0625987)
(0.0249212 0.018655 -0.0448704)
(0.161061 0.000381319 -0.000721781)
(0.160956 0.00114494 -0.00200863)
(0.160714 0.0018547 -0.00337403)
(0.160051 0.00241828 -0.00534169)
(0.158492 0.00280591 -0.0083862)
(0.155641 0.00311354 -0.0126428)
(0.151393 0.00355843 -0.0177969)
(0.145963 0.00442377 -0.0232195)
(0.139765 0.00599249 -0.0282664)
(0.133143 0.00851255 -0.0326078)
(0.126235 0.0121737 -0.0363979)
(0.118635 0.0172843 -0.0402937)
(0.109474 0.0241974 -0.045311)
(0.0969961 0.0339671 -0.0528653)
(0.0737074 0.0435926 -0.0593773)
(0.0329347 0.0350459 -0.0419615)
(0.166274 0.000417206 -0.000667684)
(0.166177 0.00122689 -0.00185388)
(0.165989 0.00203754 -0.00307332)
(0.165459 0.00286597 -0.00481527)
(0.164106 0.00372875 -0.0075761)
(0.161484 0.00467401 -0.0115559)
(0.15743 0.00580065 -0.0165018)
(0.152131 0.00726015 -0.0217986)
(0.14604 0.00924469 -0.0267599)
(0.139604 0.0120084 -0.0309657)
(0.133183 0.0158467 -0.0344617)
(0.126568 0.0213388 -0.0377869)
(0.11947 0.0291642 -0.0417723)
(0.110171 0.0419006 -0.0478569)
(0.0957751 0.0613513 -0.0543684)
(0.0501787 0.0593981 -0.036366)
(0.0214028 -7.96991e-05 -0.00142534)
(0.021097 0.000113295 -0.00283518)
(0.0204381 0.000243339 -0.00396719)
(0.0196071 0.000265818 -0.00505926)
(0.0188298 0.000220555 -0.00611926)
(0.0182259 0.000131197 -0.00712558)
(0.0177995 3.04898e-05 -0.00808264)
(0.0174546 -5.80779e-05 -0.0090329)
(0.0170375 -0.00012973 -0.0100577)
(0.0163881 -0.000202749 -0.0112718)
(0.0153775 -0.000317918 -0.0128111)
(0.0139242 -0.000534097 -0.0148055)
(0.0119687 -0.000893869 -0.0172838)
(0.00929041 -0.00135675 -0.0198435)
(0.00560305 -0.00183859 -0.0206326)
(0.00179864 -0.00181663 -0.0139908)
(0.059804 2.30065e-05 -0.00159709)
(0.0592739 0.000337838 -0.00423868)
(0.0582456 0.000472995 -0.00686539)
(0.0568911 0.000307539 -0.00960519)
(0.0554959 -7.18544e-05 -0.0123362)
(0.0542491 -0.000492073 -0.0148971)
(0.0531755 -0.000793318 -0.0171985)
(0.0521154 -0.000880728 -0.0192666)
(0.0507762 -0.000751415 -0.0212504)
(0.048809 -0.000490846 -0.0234067)
(0.0458648 -0.000252229 -0.0260664)
(0.0416116 -0.000223216 -0.0295693)
(0.0356946 -0.000595797 -0.0340446)
(0.0273904 -0.00144141 -0.0386072)
(0.0161657 -0.00258839 -0.0390648)
(0.00506572 -0.00273014 -0.0243269)
(0.09292 0.000167921 -0.00121069)
(0.0925278 0.000616906 -0.00364546)
(0.0916208 0.000786841 -0.00646751)
(0.09017 0.000477754 -0.00980794)
(0.08833 -0.000237238 -0.0134906)
(0.0862944 -0.00105818 -0.0172057)
(0.084176 -0.00165365 -0.0206727)
(0.081932 -0.00178387 -0.0237468)
(0.0793317 -0.00137897 -0.0264779)
(0.0759895 -0.000543414 -0.0291199)
(0.0714162 0.000477662 -0.0320953)
(0.0650198 0.00137444 -0.0359026)
(0.0560963 0.00180229 -0.0408885)
(0.0434046 0.00142957 -0.0462085)
(0.0258199 -3.96033e-05 -0.0466696)
(0.00809875 -0.00160915 -0.0284961)
(0.120505 0.00024208 -0.000942611)
(0.120259 0.000798244 -0.00284136)
(0.119579 0.00108302 -0.0051628)
(0.118239 0.000828511 -0.00822999)
(0.116147 4.75744e-05 -0.0120401)
(0.113363 -0.000955289 -0.0163075)
(0.110033 -0.00173799 -0.0206203)
(0.106279 -0.00190747 -0.0246144)
(0.102074 -0.00126084 -0.0281256)
(0.0971688 0.00017725 -0.0312703)
(0.0910856 0.00217095 -0.0344383)
(0.0830936 0.00438371 -0.0382171)
(0.0722307 0.00642375 -0.0431666)
(0.056729 0.00770942 -0.0487509)
(0.0344547 0.00684067 -0.0494873)
(0.011112 0.00260366 -0.0301846)
(0.142549 0.000290389 -0.000804643)
(0.142361 0.000921704 -0.00233115)
(0.141841 0.00136269 -0.00411746)
(0.140686 0.00134471 -0.00661215)
(0.138589 0.000813547 -0.0100483)
(0.135388 -5.51114e-06 -0.0143164)
(0.131133 -0.000677593 -0.0190236)
(0.126016 -0.000737662 -0.0236639)
(0.120218 0.000142373 -0.0278541)
(0.113722 0.00207192 -0.0315001)
(0.10622 0.00494654 -0.0348897)
(0.0970061 0.00854621 -0.0386015)
(0.0849981 0.0125853 -0.0433331)
(0.0680852 0.0164431 -0.0489232)
(0.0427503 0.0173812 -0.0499772)
(0.0145359 0.0098801 -0.0304733)
(0.159075 0.000338827 -0.000720055)
(0.158893 0.00103969 -0.00204554)
(0.158452 0.00163483 -0.00348316)
(0.157467 0.00192674 -0.00548393)
(0.155523 0.00183798 -0.00843157)
(0.152265 0.0015083 -0.0124147)
(0.147584 0.00128042 -0.0171487)
(0.141626 0.00158029 -0.0220948)
(0.134683 0.00278687 -0.0267092)
(0.126963 0.00513945 -0.0307252)
(0.118411 0.00871731 -0.0342717)
(0.108466 0.0135464 -0.0378645)
(0.0960871 0.0196287 -0.042246)
(0.0791025 0.0267608 -0.0476263)
(0.0522664 0.0311341 -0.0489565)
(0.0193061 0.0210787 -0.0296221)
(0.170091 0.000389339 -0.00065635)
(0.169909 0.00116237 -0.00186241)
(0.169512 0.00189294 -0.00310181)
(0.168669 0.00248893 -0.00477784)
(0.16694 0.00290521 -0.00732978)
(0.16386 0.00322453 -0.010974)
(0.159181 0.00366979 -0.0155404)
(0.152972 0.0045554 -0.0205168)
(0.145571 0.00621538 -0.0252855)
(0.137332 0.0089626 -0.0294383)
(0.128452 0.0130427 -0.0329735)
(0.118586 0.0188128 -0.0363163)
(0.106915 0.0267013 -0.0401624)
(0.0915498 0.037654 -0.0450652)
(0.065878 0.0480129 -0.0466774)
(0.0277511 0.039305 -0.0275916)
(0.175599 0.000432516 -0.000606366)
(0.175428 0.00127022 -0.00172275)
(0.175088 0.00211128 -0.00284126)
(0.174383 0.00297739 -0.00432665)
(0.172885 0.00388663 -0.00662391)
(0.170092 0.00488873 -0.0100006)
(0.165699 0.00608913 -0.0143489)
(0.159733 0.00765864 -0.0191851)
(0.152553 0.00982014 -0.0238673)
(0.144608 0.012877 -0.0279129)
(0.136334 0.017185 -0.0312273)
(0.127626 0.0234075 -0.0341422)
(0.118255 0.0323525 -0.0372349)
(0.106681 0.0467584 -0.0412782)
(0.089776 0.0675296 -0.0435101)
(0.0453744 0.064767 -0.0242566)
(0.0223281 -9.97289e-05 -0.00126737)
(0.0219676 7.97355e-05 -0.00251374)
(0.0212096 0.000207278 -0.0035057)
(0.0202417 0.000228678 -0.00446473)
(0.0192952 0.000176203 -0.00540574)
(0.0184933 7.77731e-05 -0.00630805)
(0.0178416 -3.45055e-05 -0.00716929)
(0.0172414 -0.000135792 -0.00801628)
(0.016532 -0.000219074 -0.0089057)
(0.0155444 -0.00030001 -0.00991735)
(0.0141469 -0.000415136 -0.0111379)
(0.0122682 -0.000613567 -0.0126274)
(0.00988584 -0.000922804 -0.0143306)
(0.00693756 -0.00130814 -0.0158184)
(0.00358204 -0.00174471 -0.0156121)
(0.000747579 -0.00171798 -0.00992168)
(0.0624343 -4.3294e-06 -0.00139656)
(0.0618174 0.00027201 -0.00369969)
(0.0606233 0.000383132 -0.00596847)
(0.0590211 0.000188234 -0.00833417)
(0.0573042 -0.000231664 -0.0107175)
(0.0556637 -0.000701297 -0.0129785)
(0.0541214 -0.00104956 -0.015031)
(0.0525117 -0.00116865 -0.016877)
(0.0505286 -0.00104784 -0.018617)
(0.0478068 -0.000772066 -0.0204374)
(0.0439907 -0.000496438 -0.0225726)
(0.0387732 -0.000401562 -0.0252254)
(0.0318906 -0.000653054 -0.0283591)
(0.0229697 -0.00132117 -0.031037)
(0.0123814 -0.00237248 -0.0298729)
(0.0032221 -0.00256428 -0.0173694)
(0.0970206 0.000143735 -0.00105111)
(0.0965498 0.000549282 -0.00315459)
(0.0954838 0.000689192 -0.00555981)
(0.0937872 0.000336199 -0.0084014)
(0.0916069 -0.000447562 -0.0115602)
(0.0891155 -0.00136454 -0.0147921)
(0.0864155 -0.00205833 -0.0178523)
(0.0834569 -0.00225585 -0.0205914)
(0.0800015 -0.00186297 -0.0230124)
(0.0756524 -0.000977732 -0.025286)
(0.069914 0.000145772 -0.0277132)
(0.06222 0.00118588 -0.0306323)
(0.0519624 0.00180743 -0.0341581)
(0.0382717 0.0016751 -0.0373058)
(0.0212784 0.000335176 -0.0357999)
(0.00592368 -0.00136612 -0.0202447)
(0.125827 0.000224083 -0.000819223)
(0.12551 0.000746376 -0.00246159)
(0.12469 0.00101445 -0.00442485)
(0.123143 0.000735074 -0.00699433)
(0.120761 -0.000110464 -0.010204)
(0.117555 -0.00122324 -0.0138576)
(0.113631 -0.00213564 -0.0176192)
(0.109088 -0.00240563 -0.0211583)
(0.103896 -0.00178417 -0.0242854)
(0.0978154 -0.000266379 -0.0270371)
(0.0903742 0.00190181 -0.0296728)
(0.0808703 0.00436229 -0.0326005)
(0.0684227 0.00669967 -0.036118)
(0.0515841 0.00828698 -0.0394443)
(0.0296669 0.00757505 -0.0379499)
(0.00879639 0.00312247 -0.0212601)
(0.14885 0.000280964 -0.000699181)
(0.148592 0.000891478 -0.00203257)
(0.147937 0.00133062 -0.00354901)
(0.146601 0.00131507 -0.0056148)
(0.144274 0.000753107 -0.00846189)
(0.140733 -0.000147301 -0.012057)
(0.135951 -0.000934742 -0.0161101)
(0.130058 -0.00109573 -0.0201902)
(0.123222 -0.000238467 -0.023921)
(0.11544 0.00178757 -0.0271422)
(0.106441 0.00489472 -0.030016)
(0.0955731 0.00884824 -0.0329271)
(0.0818347 0.0133257 -0.0362993)
(0.0633335 0.0176054 -0.0396435)
(0.0380405 0.0187426 -0.0383052)
(0.012231 0.0109394 -0.0213052)
(0.166111 0.000339679 -0.000623585)
(0.165862 0.00103416 -0.00179134)
(0.165284 0.00163818 -0.00302812)
(0.164123 0.00195089 -0.00468098)
(0.161987 0.00186843 -0.00709107)
(0.158471 0.00150733 -0.010397)
(0.153365 0.00121558 -0.0144228)
(0.146716 0.00145642 -0.0187351)
(0.138759 0.00266988 -0.0228332)
(0.129715 0.00514622 -0.0264063)
(0.119596 0.00900708 -0.0294586)
(0.107919 0.0142838 -0.0323152)
(0.0937558 0.0209606 -0.0354499)
(0.0750492 0.0286956 -0.0386898)
(0.0479001 0.0333863 -0.0375769)
(0.0171593 0.0229662 -0.0206254)
(0.177617 0.000398214 -0.000567219)
(0.177371 0.00118177 -0.00163375)
(0.176838 0.00193147 -0.00271403)
(0.175817 0.00255873 -0.00410379)
(0.173917 0.00300572 -0.00617385)
(0.17064 0.00334159 -0.00916402)
(0.165635 0.00378876 -0.0130086)
(0.158841 0.00468617 -0.0173165)
(0.150509 0.00641036 -0.0215406)
(0.140991 0.00933265 -0.0252506)
(0.130555 0.013744 -0.0283348)
(0.118964 0.0200339 -0.0310357)
(0.105547 0.0286578 -0.033807)
(0.0885006 0.0404344 -0.0368011)
(0.0621252 0.0512887 -0.0360492)
(0.0259131 0.042264 -0.0192801)
(0.183369 0.000447484 -0.000523565)
(0.18314 0.00131278 -0.00151258)
(0.182667 0.00218351 -0.00249506)
(0.181789 0.00308627 -0.0037306)
(0.180136 0.00404009 -0.0055854)
(0.177191 0.00509492 -0.00833606)
(0.172547 0.00636031 -0.0119728)
(0.166093 0.00802095 -0.0161403)
(0.158088 0.0103249 -0.0202824)
(0.148963 0.0136161 -0.0239125)
(0.139226 0.018295 -0.0268444)
(0.1289 0.0250788 -0.0292477)
(0.117914 0.0348395 -0.0315043)
(0.104917 0.0503263 -0.0340382)
(0.087054 0.0718586 -0.0341043)
(0.0436982 0.068202 -0.0172059)
(0.0230656 -0.000115979 -0.00105128)
(0.0226574 5.07572e-05 -0.00208065)
(0.0218154 0.000175362 -0.0028939)
(0.0207333 0.000195102 -0.0036811)
(0.019648 0.000136284 -0.00445864)
(0.0186865 2.92342e-05 -0.00520956)
(0.0178561 -9.41873e-05 -0.00592767)
(0.017058 -0.00020764 -0.00662745)
(0.0161293 -0.00030165 -0.00734479)
(0.0149006 -0.000388929 -0.00813065)
(0.0132474 -0.000501218 -0.00903524)
(0.0111194 -0.000678188 -0.010078)
(0.00853776 -0.000937904 -0.0111786)
(0.00555582 -0.00124775 -0.0119729)
(0.00254226 -0.00161148 -0.0113939)
(0.00030955 -0.00156714 -0.00697647)
(0.0645355 -2.6962e-05 -0.00114363)
(0.0638447 0.000217298 -0.00302634)
(0.0625121 0.000308324 -0.00486637)
(0.0607056 8.78567e-05 -0.00678438)
(0.0587276 -0.00036743 -0.00872739)
(0.0567721 -0.000881289 -0.0105872)
(0.0548593 -0.00127323 -0.0122877)
(0.0528202 -0.00142367 -0.0138161)
(0.0503429 -0.00131354 -0.0152337)
(0.047059 -0.00102504 -0.0166664)
(0.0426248 -0.000711245 -0.0182694)
(0.036778 -0.000544856 -0.020155)
(0.02936 -0.000668165 -0.0222237)
(0.0202683 -0.00115634 -0.0236725)
(0.0103183 -0.00206901 -0.0220142)
(0.0024042 -0.00228335 -0.0123096)
(0.1003 0.000123121 -0.000856285)
(0.0997632 0.000494031 -0.00256411)
(0.0985635 0.000609973 -0.00449612)
(0.096663 0.000221509 -0.00677148)
(0.0942072 -0.000620105 -0.00931498)
(0.0913542 -0.00161977 -0.0119436)
(0.0881969 -0.00240148 -0.0144592)
(0.0846801 -0.00266331 -0.0167251)
(0.0805621 -0.00228775 -0.0187169)
(0.0754482 -0.00136461 -0.0205388)
(0.0688555 -0.000148494 -0.0223932)
(0.0602708 0.00103131 -0.0244963)
(0.0492061 0.00185229 -0.0268505)
(0.0351077 0.00196988 -0.0285807)
(0.0187695 0.000812377 -0.0264845)
(0.0049618 -0.000975559 -0.0143408)
(0.130085 0.000210207 -0.000667721)
(0.129708 0.000704576 -0.00200269)
(0.128769 0.000959032 -0.00357175)
(0.127048 0.000661842 -0.00560546)
(0.124429 -0.000234377 -0.00815521)
(0.120889 -0.00143777 -0.0110898)
(0.116503 -0.00246237 -0.0141528)
(0.111348 -0.00282523 -0.0170682)
(0.105392 -0.00223527 -0.0196512)
(0.098412 -0.000657424 -0.0218892)
(0.0899604 0.00165447 -0.023943)
(0.0793905 0.00433315 -0.026078)
(0.065937 0.00694457 -0.0284414)
(0.0484604 0.00882683 -0.030289)
(0.0270601 0.00831642 -0.0281014)
(0.00780458 0.00370022 -0.0149987)
(0.153891 0.000275278 -0.000568717)
(0.153577 0.000868294 -0.00166037)
(0.152808 0.00130533 -0.00287825)
(0.151313 0.00129423 -0.00450216)
(0.14879 0.000712328 -0.00673523)
(0.14498 -0.000251387 -0.00958544)
(0.139793 -0.00113548 -0.0128515)
(0.133308 -0.00138775 -0.0161913)
(0.125676 -0.000562382 -0.0192707)
(0.116911 0.00153186 -0.0219184)
(0.106788 0.00482199 -0.0241946)
(0.0947378 0.00906494 -0.0263455)
(0.0798689 0.0139055 -0.0286209)
(0.0605403 0.0185469 -0.0304931)
(0.035553 0.0198983 -0.0283791)
(0.0112987 0.0118524 -0.014976)
(0.17174 0.000341802 -0.000506038)
(0.171437 0.00103199 -0.00146663)
(0.170745 0.00164288 -0.00247073)
(0.169429 0.00197452 -0.003771)
(0.167121 0.00190259 -0.00564351)
(0.163394 0.00152109 -0.00823448)
(0.157966 0.0011784 -0.0114464)
(0.150799 0.00136546 -0.0149525)
(0.142076 0.00257178 -0.0183347)
(0.132027 0.00513281 -0.0212804)
(0.120731 0.00921011 -0.0237297)
(0.107803 0.0148345 -0.025871)
(0.0924458 0.0219665 -0.0279977)
(0.0727868 0.0301592 -0.0298319)
(0.0456946 0.0351199 -0.0278958)
(0.0163697 0.0243936 -0.0144893)
(0.183637 0.00040662 -0.000459692)
(0.183342 0.00120053 -0.00133838)
(0.182697 0.00196658 -0.0022237)
(0.18152 0.00262134 -0.00332244)
(0.17946 0.00309752 -0.00492314)
(0.176015 0.00345189 -0.00724628)
(0.170762 0.00390313 -0.0102881)
(0.163539 0.00480695 -0.0137699)
(0.154518 0.00657372 -0.0172454)
(0.144038 0.00962292 -0.0203155)
(0.132433 0.0142814 -0.0228197)
(0.119583 0.0209597 -0.0248768)
(0.104973 0.0301158 -0.0267731)
(0.0869455 0.0424619 -0.0285022)
(0.0603453 0.0536688 -0.0269085)
(0.0253451 0.0443669 -0.0136189)
(0.189585 0.000460858 -0.000424077)
(0.18931 0.00135093 -0.00123942)
(0.188731 0.00224805 -0.00204885)
(0.187701 0.00318337 -0.00302923)
(0.1859 0.00417681 -0.00445978)
(0.182818 0.00527775 -0.00658514)
(0.177985 0.00659753 -0.00944721)
(0.171183 0.00833052 -0.0128025)
(0.162577 0.0107438 -0.0162054)
(0.152571 0.0142117 -0.0192201)
(0.141735 0.019167 -0.0216276)
(0.130212 0.0263605 -0.0234915)
(0.118095 0.0366911 -0.0250549)
(0.104211 0.0528784 -0.0265606)
(0.0859261 0.074898 -0.0257297)
(0.0432197 0.0705708 -0.0122818)
(0.023617 -0.000129097 -0.000786922)
(0.0231706 2.72569e-05 -0.00155521)
(0.0222621 0.000149872 -0.00215878)
(0.0210915 0.000167059 -0.00274334)
(0.0199005 0.00010289 -0.00332313)
(0.0188189 -1.17085e-05 -0.00388569)
(0.0178564 -0.000144827 -0.00442409)
(0.0169156 -0.000268718 -0.00494471)
(0.0158337 -0.000371615 -0.00546804)
(0.0144448 -0.000463497 -0.00602373)
(0.0126343 -0.000572024 -0.00663829)
(0.0103714 -0.000729425 -0.00731258)
(0.00771111 -0.000949104 -0.0079749)
(0.00477453 -0.00119846 -0.00836069)
(0.00201535 -0.00150037 -0.00776636)
(0.000131987 -0.00144462 -0.00465162)
(0.0661099 -4.43228e-05 -0.000848188)
(0.0653606 0.000174815 -0.00224301)
(0.0639189 0.000249745 -0.00359757)
(0.0619552 9.62334e-06 -0.00500943)
(0.0597793 -0.000474026 -0.00644449)
(0.0575881 -0.00102404 -0.00782639)
(0.0554015 -0.00145258 -0.00909585)
(0.0530495 -0.00163031 -0.0102355)
(0.0502185 -0.0015305 -0.0112787)
(0.0465429 -0.00123191 -0.0123035)
(0.0416975 -0.000885364 -0.0134054)
(0.0354621 -0.000656055 -0.0146422)
(0.0277642 -0.000668897 -0.0159143)
(0.0186741 -0.00100727 -0.0166303)
(0.00920833 -0.00179567 -0.0151221)
(0.00204844 -0.00203364 -0.00825956)
(0.102759 0.000107882 -0.000632326)
(0.10217 0.000452375 -0.00189199)
(0.100865 0.00055002 -0.00330621)
(0.0988076 0.000135477 -0.00496522)
(0.0961423 -0.000750822 -0.00682658)
(0.0930193 -0.0018157 -0.00876361)
(0.0895251 -0.00266879 -0.010631)
(0.0856002 -0.00298511 -0.0123201)
(0.0810031 -0.00262668 -0.0137976)
(0.0753448 -0.00167481 -0.0151209)
(0.068163 -0.000386013 -0.0164171)
(0.0589989 0.000911 -0.0178152)
(0.0474658 0.00190305 -0.0192785)
(0.0332254 0.00223294 -0.0201515)
(0.0174001 0.00124227 -0.0182453)
(0.0045429 -0.0006168 -0.00963288)
(0.133279 0.0002004 -0.000492572)
(0.132855 0.000673559 -0.00147833)
(0.131822 0.000918262 -0.00262295)
(0.129964 0.000608983 -0.00409458)
(0.127162 -0.000324228 -0.00594233)
(0.123374 -0.00159652 -0.00808479)
(0.118649 -0.00270979 -0.0103426)
(0.11305 -0.00314944 -0.0125092)
(0.106542 -0.0025879 -0.0144318)
(0.0989144 -0.000973709 -0.0160764)
(0.0897543 0.00144996 -0.0175376)
(0.0784732 0.00430297 -0.018974)
(0.064404 0.00713712 -0.0204538)
(0.0466311 0.00926477 -0.0214015)
(0.0256597 0.0089348 -0.0193919)
(0.00739553 0.00419199 -0.0100615)
(0.157672 0.000271793 -0.000418931)
(0.157314 0.000851819 -0.00122847)
(0.156456 0.001287 -0.00212069)
(0.154835 0.00128097 -0.00329072)
(0.152158 0.000687422 -0.00489474)
(0.148145 -0.000322031 -0.00695564)
(0.142663 -0.00128061 -0.00934426)
(0.135753 -0.00160783 -0.0118144)
(0.127545 -0.000818668 -0.0141051)
(0.118074 0.00132056 -0.0160708)
(0.107163 0.00474795 -0.0177101)
(0.0943091 0.00921039 -0.019175)
(0.0787256 0.0143282 -0.0206073)
(0.058965 0.0192517 -0.0215797)
(0.0342651 0.0207871 -0.0196045)
(0.0109533 0.0125556 -0.0100338)
(0.175961 0.000344116 -0.000372195)
(0.175618 0.00103183 -0.0010863)
(0.174838 0.00164792 -0.00182761)
(0.173398 0.001995 -0.00276614)
(0.17095 0.00193458 -0.00410261)
(0.167059 0.00154111 -0.00596048)
(0.161396 0.00116095 -0.00829196)
(0.153859 0.00130382 -0.010872)
(0.144593 0.00249352 -0.0133886)
(0.133833 0.00511417 -0.0155776)
(0.121704 0.00934455 -0.0173612)
(0.107916 0.0152207 -0.0188395)
(0.0917863 0.0226809 -0.0201869)
(0.0715951 0.0312047 -0.0211548)
(0.0446199 0.0363771 -0.0193087)
(0.0161357 0.0254182 -0.00971601)
(0.188152 0.00041366 -0.000337823)
(0.18782 0.00121655 -0.00099141)
(0.18709 0.00199548 -0.00164911)
(0.185788 0.00267223 -0.00244576)
(0.183595 0.00317312 -0.00358516)
(0.180015 0.00354487 -0.00524058)
(0.174581 0.00400121 -0.00743477)
(0.167058 0.00490856 -0.00998514)
(0.157555 0.00670467 -0.0125642)
(0.146396 0.00983779 -0.0148521)
(0.133965 0.0146678 -0.0166929)
(0.120243 0.0216186 -0.018133)
(0.104843 0.0311414 -0.0193449)
(0.0862394 0.0438723 -0.0202796)
(0.0595638 0.0553324 -0.0187009)
(0.0252681 0.0458256 -0.00917288)
(0.194247 0.000471684 -0.00031154)
(0.193938 0.00138193 -0.000918096)
(0.193278 0.00230032 -0.00152145)
(0.192128 0.00326188 -0.00223454)
(0.190202 0.00428738 -0.00325152)
(0.187006 0.00542541 -0.00476013)
(0.182034 0.00678759 -0.00681639)
(0.174992 0.0085746 -0.00926668)
(0.165972 0.011067 -0.0117888)
(0.155349 0.0146589 -0.0140413)
(0.143736 0.019807 -0.0158259)
(0.131376 0.0272824 -0.0171508)
(0.118495 0.037993 -0.018161)
(0.10406 0.0546267 -0.0189991)
(0.0855721 0.0769731 -0.0180007)
(0.0432025 0.0721905 -0.00832141)
(0.0239828 -0.000138064 -0.000483413)
(0.0235096 1.03661e-05 -0.000955205)
(0.0225557 0.000131716 -0.00132371)
(0.021325 0.000145556 -0.00168012)
(0.0200626 7.6267e-05 -0.00203451)
(0.0189011 -4.49755e-05 -0.00237941)
(0.0178519 -0.000186128 -0.00270971)
(0.0168192 -0.000318336 -0.00302758)
(0.0156418 -0.000428091 -0.00334299)
(0.0141569 -0.000523318 -0.00367068)
(0.0122582 -0.000628766 -0.00402266)
(0.00992879 -0.000772176 -0.00439489)
(0.00724474 -0.000965476 -0.00474078)
(0.00436109 -0.00117498 -0.00490408)
(0.00176306 -0.00144058 -0.00449022)
(6.90135e-05 -0.00136881 -0.00265597)
(0.067157 -5.59265e-05 -0.000517298)
(0.066367 0.000145675 -0.00136995)
(0.0648508 0.000209082 -0.00219332)
(0.0627802 -4.46468e-05 -0.00305073)
(0.0604715 -0.000548698 -0.00392423)
(0.0581237 -0.00112508 -0.00476856)
(0.0557572 -0.00158067 -0.00554645)
(0.0532021 -0.00177913 -0.00624412)
(0.050145 -0.00168791 -0.00687708)
(0.0462246 -0.0013829 -0.00748665)
(0.041131 -0.00101331 -0.00812351)
(0.0346748 -0.000738686 -0.00881409)
(0.0268406 -0.000672381 -0.00949095)
(0.0177936 -0.000905481 -0.00980025)
(0.00864566 -0.00160122 -0.00879543)
(0.00191571 -0.00186188 -0.00473766)
(0.104396 9.80207e-05 -0.000384428)
(0.10377 0.000424944 -0.00115211)
(0.102394 0.000510299 -0.00200866)
(0.10023 7.88693e-05 -0.00301032)
(0.0974234 -0.000837451 -0.00413654)
(0.0941211 -0.00194743 -0.00531366)
(0.0904053 -0.00285109 -0.0064537)
(0.0862147 -0.00320737 -0.00748763)
(0.0813083 -0.00286339 -0.00838908)
(0.0753028 -0.00189339 -0.00918499)
(0.0677543 -0.000554595 -0.00994379)
(0.0582463 0.000825523 -0.0107331)
(0.0464599 0.0019404 -0.0115175)
(0.0321872 0.00242126 -0.0119029)
(0.0166959 0.00155531 -0.0106286)
(0.00437143 -0.000359314 -0.00552954)
(0.135406 0.000194356 -0.000299219)
(0.13495 0.00065363 -0.000900299)
(0.133853 0.000892727 -0.00159219)
(0.131901 0.00057659 -0.00247618)
(0.128975 -0.000380375 -0.00358656)
(0.125022 -0.0016987 -0.00488028)
(0.120075 -0.00287327 -0.00625225)
(0.114187 -0.00336807 -0.00757591)
(0.107321 -0.00283027 -0.00875211)
(0.0992782 -0.0011944 -0.00975007)
(0.0896716 0.00130463 -0.010616)
(0.0779573 0.00427807 -0.0114345)
(0.0635373 0.00726699 -0.012233)
(0.0456339 0.00956659 -0.0126599)
(0.0249516 0.00936204 -0.0113145)
(0.00724927 0.00453602 -0.00577317)
(0.160192 0.000269887 -0.000254291)
(0.159804 0.000841578 -0.000749184)
(0.158886 0.00127574 -0.00128988)
(0.157176 0.00127458 -0.00199032)
(0.154393 0.000675418 -0.00294872)
(0.150243 -0.000363111 -0.00418507)
(0.144568 -0.00137193 -0.00562875)
(0.137384 -0.00175208 -0.00713305)
(0.128805 -0.000991069 -0.00853509)
(0.118881 0.00117314 -0.00973351)
(0.107471 0.00468986 -0.010715)
(0.0941204 0.0092986 -0.0115582)
(0.0781177 0.0146025 -0.0123351)
(0.0581379 0.0197181 -0.0127796)
(0.0336402 0.0213837 -0.0114509)
(0.0108574 0.0130273 -0.00575623)
(0.178774 0.000345995 -0.000225734)