/*--------------------------------*- C++ -*----------------------------------*\
| =========                 |                                                 |
| \\      /  F ield         | foam-extend: Open Source CFD                    |
|  \\    /   O peration     | Version:     3.1                                |
|   \\  /    A nd           | Web:         http://www.extend-project.de       |
|    \\/     M anipulation  |                                                 |
\*---------------------------------------------------------------------------*/
FoamFile
{
    version     2.0;
    format      ascii;
    class       volVectorField;
    location    "1.9";
    object      D;
}
// * * * * * * * * * * * * * * * * * * * * * * * * * * * * * * * * * * * * * //

dimensions      [0 1 0 0 0 0 0];

internalField   nonuniform List<vector> 
256
(
(0.000193766 0.000107458 0.000171605)
(0.000100402 1.80537e-05 5.49654e-05)
(8.78446e-05 -3.02332e-05 -5.20779e-05)
(0.000152174 -0.000114355 -0.00017217)
(0.000759894 0.00044296 8.5604e-05)
(0.000633004 0.00011948 3.69285e-05)
(0.000601896 -0.000124734 -6.69313e-05)
(0.000662822 -0.000436545 -0.000139286)
(0.00143278 0.000683258 1.88869e-06)
(0.00130299 0.000208793 -8.56711e-06)
(0.00126282 -0.000197227 -6.00632e-05)
(0.00131078 -0.000665346 -9.60499e-05)
(0.00220491 0.00087317 -9.11062e-05)
(0.00208612 0.000279618 -5.07379e-05)
(0.00204158 -0.000254597 -5.0245e-05)
(0.00206962 -0.00084499 -3.69833e-05)
(0.00304103 0.00100818 -0.000175497)
(0.00293323 0.000329943 -8.82791e-05)
(0.00288685 -0.000297527 -3.80559e-05)
(0.00289918 -0.000973329 2.24337e-05)
(0.0039103 0.00109988 -0.000247234)
(0.00381278 0.000362947 -0.000120193)
(0.00376618 -0.000329451 -2.68637e-05)
(0.00376696 -0.00106158 7.62774e-05)
(0.00479061 0.00115874 -0.000304287)
(0.00469955 0.000381994 -0.000148665)
(0.0046527 -0.000353031 -1.99446e-05)
(0.00464751 -0.00111912 0.000118545)
(0.0056758 0.00119375 -0.000349343)
(0.00557731 0.000392808 -0.000176157)
(0.00552531 -0.000369545 -1.99012e-05)
(0.00552187 -0.00115535 0.00014068)
(0.00020062 0.000108 7.35698e-05)
(0.000105698 2.06252e-05 2.56357e-05)
(9.26181e-05 -2.82824e-05 -2.75157e-05)
(0.000154141 -0.000109505 -8.07224e-05)
(0.000758888 0.000445809 2.94601e-05)
(0.000619677 0.000126478 1.0613e-05)
(0.000589204 -0.000118842 -4.06884e-05)
(0.000661347 -0.000427352 -7.49809e-05)
(0.00139559 0.000697345 -3.08579e-05)
(0.00126916 0.000221633 -2.14608e-05)
(0.00123078 -0.000192781 -4.0509e-05)
(0.00127647 -0.000662695 -4.78361e-05)
(0.00213059 0.000889301 -0.000100475)
(0.00201661 0.000294242 -5.43599e-05)
(0.00197441 -0.000248647 -3.54579e-05)
(0.00199911 -0.000840761 -6.96831e-06)
(0.00292913 0.00102487 -0.000166923)
(0.00282777 0.000345448 -8.46363e-05)
(0.00278379 -0.00028943 -2.79322e-05)
(0.00279123 -0.000965899 3.71246e-05)
(0.00376403 0.00111513 -0.000225002)
(0.00367344 0.000378376 -0.000111214)
(0.00362914 -0.000318154 -2.09175e-05)
(0.00362418 -0.00104859 7.77281e-05)
(0.0046139 0.00117089 -0.000272033)
(0.00453087 0.000396311 -0.000134935)
(0.00448642 -0.000337588 -1.79135e-05)
(0.00447423 -0.00109842 0.000108447)
(0.00547437 0.00120139 -0.000306719)
(0.00538422 0.000404813 -0.000156259)
(0.00533472 -0.000349592 -2.29344e-05)
(0.00532426 -0.00112592 0.000119377)
(0.000200801 0.000109026 2.50907e-05)
(9.95369e-05 2.22301e-05 8.81636e-06)
(8.44954e-05 -2.81193e-05 -1.36708e-05)
(0.000147926 -0.000109344 -3.3193e-05)
(0.000745761 0.000436983 -5.41343e-06)
(0.000595209 0.000127134 -5.4875e-06)
(0.000561886 -0.000112409 -2.32788e-05)
(0.000639582 -0.000412676 -3.22422e-05)
(0.00135867 0.000687892 -4.9796e-05)
(0.00122376 0.000224462 -2.91514e-05)
(0.00118264 -0.000182797 -2.548e-05)
(0.00123159 -0.000641509 -1.38568e-05)
(0.00206611 0.000880807 -0.000101248)
(0.00194621 0.000299206 -5.43025e-05)
(0.00190147 -0.000235234 -2.35304e-05)
(0.00192719 -0.00081417 1.4301e-05)
(0.00283678 0.00101878 -0.00015193)
(0.00273105 0.000352648 -7.81049e-05)
(0.00268469 -0.000272907 -1.94833e-05)
(0.00269175 -0.000935207 4.57634e-05)
(0.00364498 0.00111175 -0.000197514)
(0.00355133 0.00038757 -9.96309e-05)
(0.00350486 -0.00029862 -1.58062e-05)
(0.0034984 -0.00101403 7.50353e-05)
(0.00447042 0.00117018 -0.000235082)
(0.0043858 0.000406978 -0.000119092)
(0.00433946 -0.000315113 -1.5817e-05)
(0.00432455 -0.00105992 9.60525e-05)
(0.0053104 0.0012034 -0.000261525)
(0.00522001 0.000416537 -0.000136227)
(0.00516816 -0.000324302 -2.39169e-05)
(0.00515251 -0.00108337 9.86333e-05)
(0.000197194 0.000108663 2.51895e-06)
(9.24416e-05 2.27346e-05 6.20293e-07)
(7.58575e-05 -2.77096e-05 -6.00356e-06)
(0.000139707 -0.000107854 -9.45203e-06)
(0.000726891 0.000427805 -2.1928e-05)
(0.000569861 0.000126432 -1.23917e-05)
(0.000533766 -0.00010657 -1.25301e-05)
(0.000613031 -0.000398182 -8.08825e-06)
(0.00132032 0.000675152 -5.5616e-05)
(0.00117901 0.000224589 -3.02947e-05)
(0.00113498 -0.00017233 -1.50716e-05)
(0.00118552 -0.000618251 5.50157e-06)
(0.00200648 0.000867799 -9.37917e-05)
(0.00188118 0.000301152 -4.93449e-05)
(0.00183368 -0.000220718 -1.46487e-05)
(0.00186027 -0.000784468 2.53363e-05)
(0.00275579 0.0010076 -0.000131967)
(0.00264567 0.00035694 -6.77294e-05)
(0.00259674 -0.000254886 -1.27248e-05)
(0.002604 -0.000900827 4.76122e-05)
(0.00354339 0.00110338 -0.000167065)
(0.00344634 0.000394316 -8.47996e-05)
(0.00339754 -0.000277571 -1.12449e-05)
(0.00339058 -0.000976005 6.82474e-05)
(0.0043496 0.00116489 -0.000196506)
(0.00426261 0.00041593 -0.000100539)
(0.00421408 -0.000291455 -1.3024e-05)
(0.00419776 -0.00101878 8.21051e-05)
(0.00517277 0.00120106 -0.000216675)
(0.00508051 0.000427491 -0.000114383)
(0.00502577 -0.000298345 -2.19921e-05)
(0.00500705 -0.00103941 8.01606e-05)
(0.000192951 0.000107605 -6.32227e-06)
(8.65745e-05 2.28646e-05 -2.59734e-06)
(6.89544e-05 -2.71956e-05 -1.99993e-06)
(0.000132282 -0.000105802 1.13806e-06)
(0.000708328 0.000420134 -2.60574e-05)
(0.000547854 0.000125749 -1.35011e-05)
(0.000509725 -0.000101643 -6.14966e-06)
(0.000588814 -0.000385644 3.4797e-06)
(0.00128563 0.000664252 -5.13735e-05)
(0.00114029 0.000224406 -2.68583e-05)
(0.00109409 -0.00016316 -8.28174e-06)
(0.00114501 -0.000598021 1.37491e-05)
(0.00195501 0.000856261 -7.92887e-05)
(0.00182591 0.000302409 -4.09367e-05)
(0.00177635 -0.000207784 -8.47601e-06)
(0.00180335 -0.000758333 2.77633e-05)
(0.00268781 0.000997243 -0.000107366)
(0.00257438 0.000360188 -5.46962e-05)
(0.00252357 -0.000238705 -7.71882e-06)
(0.00253105 -0.000870298 4.3325e-05)
(0.00345952 0.00109515 -0.000133572)
(0.00335976 0.000399707 -6.77451e-05)
(0.00330929 -0.000258651 -7.46842e-06)
(0.00330223 -0.00094212 5.75251e-05)
(0.00425064 0.00115903 -0.000155858)
(0.00416158 0.00042328 -7.99852e-05)
(0.00411146 -0.000270272 -9.91547e-06)
(0.00409448 -0.000982161 6.63716e-05)
(0.00505987 0.00119737 -0.000170801)
(0.00496588 0.000436596 -9.07421e-05)
(0.00490898 -0.00027523 -1.81552e-05)
(0.00488848 -0.00100049 6.26477e-05)
(0.000189346 0.000106492 -7.96137e-06)
(8.23098e-05 2.28703e-05 -3.13056e-06)
(6.40159e-05 -2.67088e-05 -1.93634e-07)
(0.000126541 -0.000103879 4.49275e-06)
(0.000693099 0.000414375 -2.2668e-05)
(0.000530904 0.000125316 -1.13004e-05)
(0.000491413 -9.78134e-05 -2.62685e-06)
(0.000569744 -0.000375859 7.08911e-06)
(0.00125789 0.000656152 -4.05086e-05)
(0.0011102 0.000224386 -2.06416e-05)
(0.00106254 -0.000155963 -4.14113e-06)
(0.00111331 -0.000582324 1.44441e-05)
(0.00191456 0.000847618 -5.97524e-05)
(0.00178305 0.000303489 -3.0393e-05)
(0.00173213 -0.000197574 -4.48981e-06)
(0.00175923 -0.000738 2.39015e-05)
(0.00263503 0.000989354 -7.91469e-05)
(0.00251938 0.000362777 -4.00027e-05)
(0.00246737 -0.000225885 -4.2956e-06)
(0.002475 -0.000846431 3.42384e-05)
(0.0033949 0.00108868 -9.74256e-05)
(0.00329325 0.00040391 -4.92553e-05)
(0.00324173 -0.000243644 -4.5695e-06)
(0.00323471 -0.00091552 4.35064e-05)
(0.00417463 0.00115412 -0.000113115)
(0.00408408 0.000428943 -5.804e-05)
(0.00403296 -0.000253486 -6.85452e-06)
(0.00401573 -0.000953353 4.88868e-05)
(0.00497299 0.00119382 -0.00012348)
(0.00487768 0.000443553 -6.5748e-05)
(0.00481941 -0.000256943 -1.33269e-05)
(0.004798 -0.000969848 4.52045e-05)
(0.000186841 0.000105629 -5.91273e-06)
(7.95825e-05 2.28446e-05 -2.29374e-06)
(6.08787e-05 -2.63397e-05 3.28383e-07)
(0.000122705 -0.000102451 3.95399e-06)
(0.000682551 0.000410553 -1.5012e-05)
(0.000519559 0.000125088 -7.33324e-06)
(0.000479234 -9.52e-05 -9.10588e-07)
(0.000556814 -0.000369197 5.92677e-06)
(0.0012388 0.000650855 -2.567e-05)
(0.00108984 0.000224476 -1.28812e-05)
(0.0010413 -0.000151046 -1.79528e-06)
(0.0010918 -0.000571691 1.03872e-05)
(0.00188689 0.000841975 -3.7004e-05)
(0.00175398 0.000304332 -1.86355e-05)
(0.00170225 -0.000190588 -2.07209e-06)
(0.00172932 -0.000724228 1.58895e-05)
(0.00259908 0.000984167 -4.84346e-05)
(0.00248208 0.000364626 -2.43353e-05)
(0.00242936 -0.000217105 -2.08163e-06)
(0.00243708 -0.000830238 2.18249e-05)
(0.00335101 0.00108434 -5.92703e-05)
(0.00324819 0.000406817 -2.9876e-05)
(0.00319606 -0.000233364 -2.41741e-06)
(0.00318911 -0.00089743 2.70714e-05)
(0.00412304 0.00115069 -6.86223e-05)
(0.00403153 0.000432794 -3.51741e-05)
(0.00397985 -0.000241993 -3.99137e-06)
(0.00396255 -0.000933725 2.99561e-05)
(0.00491393 0.00119117 -7.47413e-05)
(0.00481774 0.000448235 -3.9812e-05)
(0.00475869 -0.000244429 -8.08342e-06)
(0.00473685 -0.000948939 2.73845e-05)
(0.000185566 0.000105166 -2.13813e-06)
(7.82582e-05 2.28249e-05 -8.25075e-07)
(5.93608e-05 -2.61426e-05 1.79025e-07)
(0.000120795 -0.000101699 1.50844e-06)
(0.000677186 0.00040865 -5.21831e-06)
(0.000513896 0.000124993 -2.52604e-06)
(0.000473178 -9.38763e-05 -1.96332e-07)
(0.000550319 -0.000365831 2.23854e-06)
(0.0012291 0.000648243 -8.76732e-06)
(0.0010796 0.000224556 -4.3678e-06)
(0.00103065 -0.000148555 -4.85515e-07)
(0.00108096 -0.000566334 3.73648e-06)
(0.00187286 0.000839199 -1.25159e-05)
(0.00173932 0.000304797 -6.2722e-06)
(0.00168721 -0.00018705 -5.87657e-07)
(0.00171425 -0.000717296 5.54618e-06)
(0.00258088 0.000981605 -1.62975e-05)
(0.00246326 0.000365593 -8.16333e-06)
(0.00241022 -0.00021266 -6.10709e-07)
(0.00241796 -0.000822082 7.48432e-06)
(0.00332881 0.00108217 -1.98921e-05)
(0.00322544 0.000408306 -1.001e-05)
(0.00317304 -0.000228159 -7.50185e-07)
(0.00316613 -0.000888311 9.18437e-06)
(0.00409693 0.00114892 -2.30027e-05)
(0.00400498 0.000434744 -1.17816e-05)
(0.00395305 -0.000236175 -1.30729e-06)
(0.00393575 -0.000923824 1.00922e-05)
(0.004884 0.00118972 -2.50284e-05)
(0.00478741 0.000450594 -1.33296e-05)
(0.00472801 -0.000238091 -2.7035e-06)
(0.004706 -0.000938383 9.17906e-06)
)
;

boundaryField
{
    interface
    {
        type            tractionDisplacement;
        gradient        nonuniform List<vector> 
192
(
(0.0159054 0.024169 -0.000559781)
(0.00752232 0.0226422 -0.00156938)
(0.0084801 0.0283836 -0.00335394)
(0.00712242 0.031317 -0.00525515)
(0.00624321 0.0335227 -0.00693855)
(0.00544133 0.0347227 -0.00839547)
(0.00508822 0.0354425 -0.00954548)
(0.0048041 0.036757 -0.0102213)
(0.0161926 0.0242757 -0.000337043)
(0.00869419 0.0215514 -0.000972134)
(0.00865935 0.0267203 -0.00218786)
(0.00746446 0.0297983 -0.0035705)
(0.00652769 0.0321031 -0.00486572)
(0.00575869 0.0335233 -0.00605457)
(0.00538855 0.034504 -0.00707414)
(0.00504962 0.0362807 -0.00781071)
(0.0163805 0.0242256 -0.00041205)
(0.00897916 0.0208058 -0.00109751)
(0.00885074 0.0255752 -0.00198122)
(0.00755126 0.0286571 -0.00297662)
(0.00652671 0.0310012 -0.0039711)
(0.00570633 0.0325367 -0.00490378)
(0.0053075 0.0336663 -0.00573676)
(0.00486112 0.0357127 -0.00639922)
(0.0163848 0.0239038 -0.00040152)
(0.00919102 0.0201891 -0.00105443)
(0.00908994 0.0247592 -0.00175641)
(0.00775687 0.0277868 -0.00251191)
(0.0066795 0.0301529 -0.00326691)
(0.00581235 0.0317527 -0.0039877)
(0.00537656 0.032973 -0.00465201)
(0.00487007 0.0351745 -0.00521983)
(0.0162752 0.023509 -0.000341477)
(0.0093039 0.0196751 -0.000898874)
(0.00925232 0.024134 -0.00145201)
(0.00792756 0.0271316 -0.00202728)
(0.00683001 0.0295098 -0.00259527)
(0.00593445 0.0311462 -0.00314156)
(0.00547212 0.032417 -0.00365839)
(0.00491565 0.0347024 -0.00412357)
(0.016139 0.0231527 -0.000253925)
(0.00935499 0.0192724 -0.000672058)
(0.00934978 0.0236659 -0.00107429)
(0.00804633 0.0266512 -0.00148567)
(0.00694611 0.0290391 -0.00188825)
(0.00603748 0.0306966 -0.00227671)
(0.00555976 0.0319927 -0.0026496)
(0.00497509 0.0343226 -0.00299407)
(0.0160265 0.0228938 -0.000154734)
(0.0093725 0.0189959 -0.000411695)
(0.00940069 0.023351 -0.000656142)
(0.00811688 0.0263322 -0.000904579)
(0.00701994 0.0287273 -0.00114671)
(0.00610641 0.0303965 -0.00138085)
(0.00562062 0.031705 -0.00160718)
(0.00502023 0.0340576 -0.00181903)
(0.0159642 0.0227592 -5.17354e-05)
(0.00937581 0.0188556 -0.000138186)
(0.00942104 0.0231924 -0.000220154)
(0.0081483 0.0261724 -0.000303334)
(0.00705439 0.0285712 -0.000384307)
(0.00613956 0.0302461 -0.000462726)
(0.0056498 0.0315599 -0.000538681)
(0.00504187 0.0339198 -0.000610131)
(-0.000124786 0.0058667 0.0079814)
(0.000558192 -0.00422954 0.00072277)
(0.0029221 -0.00343363 0.00145991)
(0.00494435 -0.00376563 0.000322949)
(0.00690337 -0.00331849 -0.000250144)
(0.00854186 -0.00277937 -0.000773382)
(0.00981846 -0.00224577 -0.00104157)
(0.0107917 -0.00135184 -0.00156654)
(-0.00204712 0.00241678 0.0016744)
(-0.0029034 -0.00171792 0.000143319)
(-0.000437789 -0.0014656 -6.15594e-05)
(0.0017372 -0.00156499 -0.000466942)
(0.00386714 -0.00142963 -0.000697648)
(0.00567933 -0.00130307 -0.000877409)
(0.00718704 -0.001247 -0.000997028)
(0.00847748 -0.000977171 -0.00135336)
(-0.00229949 -0.0028867 -0.00185051)
(-0.00337895 0.000685838 -0.000512901)
(-0.00106608 0.000514298 -0.000632119)
(0.00110018 0.00067931 -0.000489027)
(0.0032251 0.000552992 -0.000390773)
(0.00508906 0.000330143 -0.000269894)
(0.00669989 4.51915e-06 -0.000152135)
(0.00802036 -0.000392584 0.000152699)
(-0.0011076 -0.00714122 -0.00753143)
(-0.00108404 0.00266423 -0.00124063)
(0.000781075 0.00227415 -0.00207305)
(0.00263405 0.00273814 -0.00119226)
(0.00451347 0.00242423 -0.000725248)
(0.00622326 0.00195414 -0.000248816)
(0.00772302 0.00127151 0.000111766)
(0.00889074 0.00010089 0.000652884)
(0.0125136 -0.0210428 -0.00028121)
(0.00496172 -0.0214675 -0.000110355)
(0.00491026 -0.0279441 0.00114798)
(0.00315161 -0.0312845 0.00282928)
(0.00197051 -0.0336232 0.0044815)
(0.00102649 -0.0347537 0.00607514)
(0.000525037 -0.0350814 0.00752034)
(0.000471335 -0.0349596 0.00866411)
(0.012271 -0.0213252 -1.44425e-05)
(0.0057977 -0.0208361 0.000417794)
(0.00479302 -0.0264981 0.00142901)
(0.00313836 -0.0298493 0.00273058)
(0.00189166 -0.03216 0.00403963)
(0.000951219 -0.033377 0.00532005)
(0.000407894 -0.0338347 0.00650758)
(0.000414499 -0.0339706 0.0076045)
(0.0122735 -0.0209521 0.000197832)
(0.00606371 -0.020174 0.000838543)
(0.00500721 -0.0254174 0.00166885)
(0.0032745 -0.0287191 0.00264298)
(0.00194597 -0.031005 0.0036565)
(0.000940915 -0.032267 0.0046539)
(0.000336913 -0.0327885 0.00561652)
(0.000216956 -0.0329425 0.00656321)
(0.0121159 -0.0202876 0.000266377)
(0.00621893 -0.0195195 0.000924907)
(0.00518031 -0.0246014 0.00163037)
(0.00342718 -0.0278424 0.00239484)
(0.00205114 -0.0301155 0.00317213)
(0.000994906 -0.0313923 0.00394123)
(0.000327257 -0.0319218 0.00469712)
(0.000142264 -0.0320417 0.00546469)
(0.0118816 -0.0196046 0.00025394)
(0.0062796 -0.0189411 0.000825491)
(0.00527449 -0.0239478 0.00139528)
(0.00353326 -0.027168 0.00198761)
(0.00214029 -0.0294365 0.00257637)
(0.0010529 -0.0307166 0.00315652)
(0.000340456 -0.0312387 0.0037319)
(0.000112431 -0.0313141 0.00432667)
(0.0116557 -0.0190349 0.000199946)
(0.00628826 -0.0184816 0.000630862)
(0.00531597 -0.0234477 0.00104873)
(0.00359642 -0.0266662 0.00147547)
(0.00220188 -0.0289368 0.00189386)
(0.00109955 -0.0302185 0.00230396)
(0.000360641 -0.0307299 0.00271155)
(0.000110773 -0.0307661 0.00313547)
(0.0114861 -0.0186369 0.000125866)
(0.00627728 -0.0181659 0.000391183)
(0.00532962 -0.0231084 0.000645755)
(0.00362952 -0.0263303 0.000904078)
(0.00223861 -0.0286049 0.00115575)
(0.00113046 -0.0298881 0.00140163)
(0.000377775 -0.0303913 0.00164623)
(0.000117491 -0.0304001 0.00190065)
(0.0113964 -0.0184341 4.28054e-05)
(0.00626706 -0.0180058 0.000132147)
(0.0053323 -0.022937 0.000217568)
(0.00364316 -0.0261615 0.000304092)
(0.00225536 -0.0284388 0.000388208)
(0.00114556 -0.0297227 0.000470289)
(0.0003874 -0.030222 0.000552033)
(0.000122596 -0.030217 0.000636869)
(0.0368722 0.00114211 -0.000809848)
(0.0363924 0.000888734 -0.000198939)
(0.0359002 0.0011032 -6.52344e-05)
(0.0353968 0.00122046 7.35987e-05)
(0.0349293 0.00131991 0.000115967)
(0.0345484 0.00138151 0.000110523)
(0.034281 0.00141736 7.5131e-05)
(0.0341422 0.00143056 2.63335e-05)
(0.033364 0.00111096 -0.000513404)
(0.0328359 0.000964283 -0.000337866)
(0.0322825 0.00104411 -0.000351651)
(0.0317259 0.00113924 -0.000296917)
(0.031198 0.00122911 -0.000234177)
(0.0307656 0.0012961 -0.000166616)
(0.0304636 0.00133994 -9.92532e-05)
(0.0303104 0.0013621 -3.27861e-05)
(0.0327405 -0.000582369 -0.000315698)
(0.0321371 -0.000329866 -0.000678302)
(0.0314315 -0.00023396 -0.000813639)
(0.030758 -0.000142275 -0.000805596)
(0.0301585 -6.25983e-05 -0.000688003)
(0.0296812 1.27646e-06 -0.000515011)
(0.0293528 4.56631e-05 -0.000315759)
(0.0291859 6.89986e-05 -0.000106059)
(0.0344946 -0.00109534 -0.000280512)
(0.0336598 -0.000685164 -0.00125934)
(0.0327326 -0.000649364 -0.00148823)
(0.0318944 -0.000587225 -0.00144998)
(0.0311941 -0.000530666 -0.00122632)
(0.0306586 -0.000475644 -0.000914558)
(0.0302978 -0.000433741 -0.000560346)
(0.0301157 -0.000411365 -0.000188414)
)
;
        traction        nonuniform List<vector> 
192
(
(21.6895 -0.483669 -2.18643)
(21.9316 -0.494362 -3.77739)
(21.8101 -0.555211 -4.41063)
(21.747 -0.426047 -4.65957)
(21.7952 -0.137142 -4.70454)
(21.9736 0.370437 -4.5904)
(22.2341 1.29001 -4.2857)
(21.5988 2.77684 -3.64966)
(23.8766 -0.683251 -1.47172)
(24.3458 -0.694109 -2.58593)
(24.753 -0.742785 -3.02419)
(25.0441 -0.551673 -3.17516)
(25.1909 -0.160168 -3.16794)
(25.1897 0.50168 -3.03461)
(24.8211 1.67306 -2.76117)
(22.4384 3.41467 -2.29896)
(25.1165 -0.733558 -0.983834)
(25.4682 -0.725033 -1.74304)
(25.8948 -0.762208 -2.01593)
(26.2029 -0.538332 -2.08523)
(26.2977 -0.0842813 -2.04978)
(26.1222 0.673642 -1.93581)
(25.3602 1.98139 -1.74473)
(22.1638 3.80005 -1.46543)
(25.9346 -0.734631 -0.678277)
(26.1779 -0.705446 -1.21643)
(26.5481 -0.730847 -1.40017)
(26.8103 -0.485306 -1.43332)
(26.8339 0.00771914 -1.39445)
(26.5245 0.824788 -1.3064)
(25.5166 2.21108 -1.17736)
(21.8512 4.05679 -1.00053)
(26.4888 -0.723499 -0.465829)
(26.6653 -0.675979 -0.845842)
(26.9821 -0.688927 -0.973262)
(27.1947 -0.428067 -0.990608)
(27.1575 0.089848 -0.957811)
(26.7526 0.94383 -0.894111)
(25.5844 2.37953 -0.808327)
(21.6077 4.2383 -0.692728)
(26.8582 -0.711474 -0.304989)
(26.996 -0.649715 -0.559343)
(27.2737 -0.651714 -0.644502)
(27.4471 -0.379915 -0.654209)
(27.3651 0.153928 -0.630441)
(26.8951 1.03102 -0.587649)
(25.6227 2.49852 -0.532659)
(21.4376 4.36442 -0.458568)
(27.0875 -0.702852 -0.171881)
(27.2052 -0.631459 -0.317547)
(27.459 -0.625337 -0.366283)
(27.6065 -0.346295 -0.371232)
(27.4955 0.19724 -0.357068)
(26.9851 1.08841 -0.332427)
(25.6488 2.57547 -0.300129)
(21.3353 4.44292 -0.25619)
(27.1911 -0.697526 -0.054921)
(27.2979 -0.62114 -0.101915)
(27.5384 -0.610998 -0.117544)
(27.6723 -0.328739 -0.118982)
(27.5475 0.21932 -0.114302)
(27.019 1.11861 -0.106253)
(25.6429 2.61674 -0.0949825)
(21.2575 4.47614 -0.079412)
(2.87193 0.641418 10.2596)
(5.09175 0.981506 6.83521)
(6.07275 0.891357 3.93438)
(6.56616 0.697541 2.1578)
(6.83896 0.596775 1.34333)
(7.03517 0.663232 1.27362)
(7.3256 0.915015 1.81084)
(8.15873 1.23927 2.90168)
(1.86389 0.561602 9.56461)
(3.53041 0.971711 8.09653)
(4.14543 0.993842 6.35636)
(4.35504 0.760646 5.1683)
(4.42723 0.506025 4.59975)
(4.50948 0.348482 4.53519)
(4.793 0.327504 4.83808)
(5.89309 0.346756 5.19584)
(1.43841 0.441687 9.24429)
(2.993 0.801355 8.71937)
(3.6046 0.91338 7.60415)
(3.77466 0.722376 6.74736)
(3.7877 0.446417 6.33118)
(3.8183 0.213992 6.28569)
(4.07327 0.0713517 6.52655)
(5.1741 -0.0184752 6.83885)
(1.33831 0.447824 8.73156)
(3.00138 0.761859 8.50211)
(3.73554 0.89094 7.54462)
(3.95355 0.70635 6.79186)
(3.9702 0.425799 6.43411)
(3.98813 0.168594 6.36722)
(4.22428 -0.0571573 6.47808)
(5.26759 -0.321361 6.72302)
(-7.23905 0.55851 0.0794266)
(-5.94268 0.904278 0.374277)
(-4.80161 0.992605 0.40469)
(-4.27094 0.818446 0.346389)
(-4.13613 0.610149 0.345559)
(-3.98325 0.468394 0.4768)
(-3.18255 0.27149 0.797856)
(-0.136192 -0.884512 1.34236)
(-8.92737 0.350173 -0.379772)
(-8.82389 0.57647 -0.436413)
(-8.56878 0.715532 -0.50144)
(-8.48872 0.699647 -0.564445)
(-8.51765 0.678833 -0.545018)
(-8.34155 0.735772 -0.406127)
(-7.36206 0.768493 -0.13463)
(-3.66709 -0.244705 0.291859)
(-10.1006 0.258482 -0.399812)
(-10.2661 0.395042 -0.465401)
(-10.3139 0.548811 -0.464355)
(-10.3919 0.638688 -0.456994)
(-10.4157 0.755976 -0.396962)
(-10.081 0.951823 -0.259755)
(-8.77098 1.09461 -0.0552675)
(-5.0345 0.226571 0.196258)
(-10.9514 0.223574 -0.320343)
(-11.1898 0.314591 -0.359124)
(-11.3541 0.477307 -0.317497)
(-11.4831 0.635401 -0.271896)
(-11.4543 0.848045 -0.198695)
(-10.9728 1.13726 -0.084545)
(-9.46708 1.35148 0.0561576)
(-5.60172 0.558637 0.216857)
(-11.5574 0.21297 -0.22778)
(-11.8075 0.287956 -0.242414)
(-12.0067 0.46164 -0.188016)
(-12.1358 0.664244 -0.132115)
(-12.0472 0.936536 -0.0647972)
(-11.4564 1.28145 0.0190481)
(-9.82714 1.53574 0.10745)
(-5.90012 0.784024 0.201834)
(-11.9626 0.212123 -0.146064)
(-12.2055 0.285758 -0.146491)
(-12.4061 0.470479 -0.0975677)
(-12.5168 0.700307 -0.0490877)
(-12.3804 1.00691 0.00190707)
(-11.7178 1.3819 0.0572394)
(-10.0168 1.65618 0.108356)
(-6.07219 0.929159 0.159224)
(-12.2089 0.213745 -0.0800105)
(-12.4433 0.290674 -0.0763442)
(-12.637 0.484063 -0.0439893)
(-12.7301 0.729388 -0.0125536)
(-12.5622 1.05415 0.0184244)
(-11.8566 1.44426 0.0495596)
(-10.1166 1.72727 0.0760452)
(-6.17288 1.01495 0.0988323)
(-12.3232 0.214728 -0.0253143)
(-12.5534 0.294159 -0.0235424)
(-12.7426 0.492154 -0.0124763)
(-12.827 0.744683 -0.00181979)
(-12.6434 1.07754 0.0084541)
(-11.9178 1.47424 0.0185106)
(-10.1581 1.75888 0.0268145)
(-6.23059 1.05355 0.032524)
(8.29257 -3.05793 -1.5857)
(7.59096 -1.51335 -1.20588)
(7.45074 -0.248932 -0.85056)
(7.46268 0.76437 -0.60156)
(7.51408 1.53218 -0.424936)
(7.56885 2.08409 -0.289176)
(7.61225 2.43239 -0.177454)
(7.63241 2.54699 -0.0630423)
(5.8977 -4.88141 -0.296273)
(4.74389 -4.1379 -0.186147)
(4.40457 -3.26759 -0.055475)
(4.29136 -2.52478 0.00350481)
(4.2528 -1.95984 0.0199737)
(4.24305 -1.55207 0.0194913)
(4.24715 -1.28155 0.0129582)
(4.25895 -1.1296 0.00455245)
(5.05285 -6.25044 0.314265)
(3.79621 -5.64631 0.300929)
(3.36703 -4.97931 0.302803)
(3.18645 -4.41942 0.267868)
(3.09743 -3.99613 0.212292)
(3.05003 -3.69152 0.152093)
(3.02526 -3.49136 0.0928914)
(3.01321 -3.38271 0.0319359)
(5.0391 -6.14341 0.739846)
(3.79487 -5.73436 0.543164)
(3.3375 -5.36688 0.440953)
(3.12844 -5.0201 0.362456)
(3.01531 -4.74265 0.281372)
(2.94941 -4.53741 0.199822)
(2.91149 -4.4012 0.118891)
(2.89002 -4.33974 0.0392416)
)
;
        pressure        uniform 0;
        value           nonuniform List<vector> 
192
(
(0.000392583 0.000409571 0.000164608)
(0.000853923 0.000725988 6.59868e-05)
(0.00153878 0.00103805 -4.00356e-05)
(0.00229394 0.00126463 -0.000156796)
(0.00311907 0.00142722 -0.000262229)
(0.00397832 0.00153391 -0.000352178)
(0.00485422 0.00160178 -0.000423605)
(0.00573585 0.00165321 -0.000477109)
(0.000403027 0.000411446 6.93567e-05)
(0.000867565 0.000715202 1.73085e-05)
(0.00150383 0.00103135 -5.82062e-05)
(0.0022239 0.00126178 -0.000145106)
(0.00301073 0.00142616 -0.000227744)
(0.00383601 0.00153418 -0.000300684)
(0.00468126 0.00160219 -0.000360459)
(0.00553749 0.0016549 -0.000404353)
(0.000405557 0.000411845 1.994e-05)
(0.000858 0.000697055 -1.91324e-05)
(0.0014693 0.00100758 -7.45612e-05)
(0.0021605 0.00123902 -0.000138456)
(0.00291837 0.0014063 -0.000201569)
(0.00371631 0.00151846 -0.000258811)
(0.00453676 0.00159101 -0.000306791)
(0.00537116 0.00164981 -0.000341516)
(0.000402004 0.00040746 -2.50005e-06)
(0.000841779 0.000680169 -3.51084e-05)
(0.00143395 0.000984642 -7.75711e-05)
(0.00210344 0.00121513 -0.000125191)
(0.00283929 0.00138451 -0.000172803)
(0.00361604 0.00150029 -0.000216911)
(0.00441681 0.00157705 -0.000254657)
(0.00523365 0.00164074 -0.000281923)
(0.000396391 0.000401468 -1.05907e-05)
(0.000824627 0.000666072 -3.72934e-05)
(0.00140129 0.000965928 -6.95236e-05)
(0.00205411 0.00119541 -0.00010463)
(0.00277319 0.00136612 -0.000139807)
(0.0035337 0.00148447 -0.000172842)
(0.00431904 0.00156424 -0.000201588)
(0.00512131 0.00163115 -0.000222346)
(0.000391083 0.000395902 -1.11354e-05)
(0.000810037 0.000655279 -3.10688e-05)
(0.00137476 0.000951976 -5.39372e-05)
(0.00201514 0.00118076 -7.83233e-05)
(0.00272186 0.00135234 -0.00010275)
(0.00347037 0.00147238 -0.000125885)
(0.00424413 0.00155403 -0.000146235)
(0.00503518 0.00162286 -0.000160906)
(0.000387172 0.000391801 -7.84691e-06)
(0.000799707 0.000648002 -2.01582e-05)
(0.0013563 0.000942742 -3.38718e-05)
(0.00198835 0.00117113 -4.83112e-05)
(0.00268683 0.00134326 -6.27685e-05)
(0.00342734 0.0014643 -7.65309e-05)
(0.0041933 0.001547 -8.87121e-05)
(0.00497668 0.00161689 -9.74792e-05)
(0.000385118 0.000389656 -2.78482e-06)
(0.000794384 0.000644345 -6.94563e-06)
(0.00134687 0.000938148 -1.15192e-05)
(0.00197471 0.00116635 -1.63076e-05)
(0.00266906 0.00133875 -2.11014e-05)
(0.00340555 0.00146025 -2.56761e-05)
(0.00416755 0.00154342 -2.97362e-05)
(0.00494702 0.00161371 -3.2655e-05)
(0.000192206 0.000180792 0.000271373)
(0.000766872 0.000390091 9.46386e-05)
(0.00146931 0.000640338 2.01376e-05)
(0.00226671 0.0008261 -8.70694e-05)
(0.00312732 0.0009667 -0.000178624)
(0.00401708 0.00106514 -0.000256902)
(0.00491334 0.00113067 -0.000317307)
(0.0058107 0.00117685 -0.000368924)
(7.48127e-05 4.82634e-05 7.58954e-05)
(0.000596711 9.80057e-05 3.872e-05)
(0.00129752 0.000190472 -9.3366e-06)
(0.00210783 0.000260056 -5.65747e-05)
(0.00298157 0.000312073 -9.69997e-05)
(0.00388377 0.000346659 -0.000131161)
(0.00478939 0.000366407 -0.000161128)
(0.00568328 0.000380593 -0.000193074)
(5.91009e-05 -6.63169e-05 -7.52092e-05)
(0.000559659 -0.000116161 -7.33426e-05)
(0.0012495 -0.000190798 -6.79647e-05)
(0.00205534 -0.000246106 -5.63578e-05)
(0.00292716 -0.000290615 -4.29405e-05)
(0.00382979 -0.000325324 -3.02373e-05)
(0.00473645 -0.000352975 -2.18462e-05)
(0.00562556 -0.000374452 -1.79925e-05)
(0.000138329 -0.00020362 -0.000266312)
(0.000649272 -0.000403242 -0.000154794)
(0.00132055 -0.000636919 -0.000121963)
(0.00210255 -0.000810764 -5.18866e-05)
(0.0029556 -0.000943026 1.33681e-05)
(0.00384475 -0.00103715 7.31672e-05)
(0.00474405 -0.00110322 0.000119942)
(0.005633 -0.00115409 0.000148842)
(0.000308594 -0.00037739 -0.000175685)
(0.000724844 -0.000704888 -0.000140666)
(0.00137216 -0.00101465 -8.17001e-05)
(0.00210901 -0.00123605 -1.61737e-06)
(0.00292381 -0.00139362 7.84525e-05)
(0.0037798 -0.001496 0.000152217)
(0.00465408 -0.00155763 0.000212549)
(0.00552776 -0.00159235 0.000248982)
(0.000307528 -0.00037607 -8.09029e-05)
(0.000733818 -0.000687803 -6.97585e-05)
(0.00133638 -0.000993921 -2.99735e-05)
(0.00203834 -0.00121388 2.7164e-05)
(0.00281487 -0.0013679 8.762e-05)
(0.00363607 -0.0014658 0.000144229)
(0.00447933 -0.00152135 0.000189791)
(0.00532944 -0.00155055 0.000214433)
(0.000301345 -0.000371245 -3.07201e-05)
(0.000715378 -0.000664851 -2.17604e-05)
(0.00129418 -0.000959227 7.00381e-06)
(0.00196812 -0.00117316 4.73382e-05)
(0.00271608 -0.00132277 9.14696e-05)
(0.00351016 -0.00141737 0.000133209)
(0.00432876 -0.00146978 0.000166259)
(0.00515522 -0.00149515 0.000180673)
(0.000291156 -0.000361449 -6.12232e-06)
(0.000690767 -0.000642176 3.47308e-06)
(0.00125027 -0.000925768 2.58812e-05)
(0.00190311 -0.0011325 5.52718e-05)
(0.00262964 -0.00127727 8.72638e-05)
(0.00340302 -0.00136841 0.000117513)
(0.00420185 -0.0014178 0.000140819)
(0.00500883 -0.00143993 0.000148469)
(0.000280801 -0.00035086 4.31231e-06)
(0.000667309 -0.000622408 1.37983e-05)
(0.00121094 -0.000897368 3.11901e-05)
(0.00184751 -0.00109793 5.26084e-05)
(0.00255781 -0.00123825 7.55296e-05)
(0.00331539 -0.00132608 9.69816e-05)
(0.00409874 -0.00137264 0.00011302)
(0.00488989 -0.00139192 0.000116731)
(0.000272238 -0.000341815 6.99207e-06)
(0.000648347 -0.00060688 1.49749e-05)
(0.00117976 -0.00087542 2.75532e-05)
(0.00180419 -0.00107133 4.23448e-05)
(0.00250252 -0.00120814 5.79116e-05)
(0.00324846 -0.00129325 7.2306e-05)
(0.00402024 -0.00133748 8.27812e-05)
(0.00479938 -0.00135442 8.43978e-05)
(0.00026628 -0.000335412 5.52731e-06)
(0.00063528 -0.00059627 1.08166e-05)
(0.00115842 -0.000860545 1.84591e-05)
(0.00177469 -0.00105336 2.71905e-05)
(0.00246506 -0.0011878 3.62717e-05)
(0.00320324 -0.00127103 4.45917e-05)
(0.00396728 -0.00131362 5.0534e-05)
(0.00473832 -0.00132894 5.11425e-05)
(0.00026325 -0.000332126 2.04351e-06)
(0.000628657 -0.000590904 3.89037e-06)
(0.00114762 -0.000853047 6.45608e-06)
(0.00175979 -0.00104431 9.34733e-06)
(0.00244616 -0.00117757 1.23369e-05)
(0.00318045 -0.00125984 1.5063e-05)
(0.00394059 -0.0013016 1.69926e-05)
(0.00470753 -0.0013161 1.71399e-05)
(0.0061367 0.00120802 -0.000359466)
(0.00592928 0.0012125 -0.000309205)
(0.00575915 0.00121719 -0.000262341)
(0.00561523 0.00121631 -0.000215755)
(0.00549648 0.00121386 -0.000169352)
(0.00540485 0.00121109 -0.000122098)
(0.00534244 0.00120889 -7.38022e-05)
(0.00531078 0.0012076 -2.46992e-05)
(0.00599436 0.000406695 -0.000182574)
(0.00579467 0.000416867 -0.000160483)
(0.00562354 0.000429589 -0.000140622)
(0.00547709 0.000441731 -0.000118094)
(0.00535586 0.00045196 -9.36693e-05)
(0.00526225 0.000459754 -6.78307e-05)
(0.00519854 0.000464984 -4.10526e-05)
(0.00516629 0.00046762 -1.37394e-05)
(0.00593456 -0.000376825 -2.38474e-05)
(0.00573644 -0.000353715 -3.14132e-05)
(0.00556105 -0.000327227 -3.40874e-05)
(0.00541024 -0.000300124 -3.2062e-05)
(0.00528596 -0.000276012 -2.67552e-05)
(0.00519043 -0.000256927 -1.97645e-05)