/*--------------------------------*- C++ -*----------------------------------*\
| =========                 |                                                 |
| \\      /  F ield         | foam-extend: Open Source CFD                    |
|  \\    /   O peration     | Version:     3.1                                |
|   \\  /    A nd           | Web:         http://www.extend-project.de       |
|    \\/     M anipulation  |                                                 |
\*---------------------------------------------------------------------------*/
FoamFile
{
    version     2.0;
    format      ascii;
    class       volVectorField;
    location    "1.9";
    object      D_0;
}
// * * * * * * * * * * * * * * * * * * * * * * * * * * * * * * * * * * * * * //

dimensions      [0 1 0 0 0 0 0];

internalField   nonuniform List<vector> 
256
(
(0.000192825 0.000104764 0.000163583)
(0.000101773 1.75316e-05 5.2883e-05)
(8.88065e-05 -2.87947e-05 -4.8594e-05)
(0.000149706 -0.000110227 -0.000162005)
(0.000750083 0.000432297 7.10163e-05)
(0.00062414 0.000117544 3.22604e-05)
(0.000592334 -0.000118435 -6.13992e-05)
(0.00065093 -0.000420681 -0.000123816)
(0.00140745 0.000667811 -1.69696e-05)
(0.0012779 0.000206572 -1.49437e-05)
(0.00123699 -0.000186837 -5.44138e-05)
(0.00128334 -0.000641111 -7.7663e-05)
(0.00215952 0.000855352 -0.000112436)
(0.00204018 0.000278029 -5.83006e-05)
(0.00199494 -0.000240653 -4.48533e-05)
(0.00202225 -0.000814399 -1.754e-05)
(0.00297385 0.000990458 -0.000198373)
(0.00286485 0.00032975 -9.66136e-05)
(0.00281783 -0.000280742 -3.29824e-05)
(0.00283013 -0.000938781 4.22906e-05)
(0.003822 0.00108413 -0.000271197)
(0.00372279 0.000364612 -0.000129056)
(0.00367566 -0.000310557 -2.19564e-05)
(0.003677 -0.00102516 9.64742e-05)
(0.00468368 0.00114617 -0.000329129)
(0.00459064 0.000385636 -0.000157997)
(0.00454347 -0.0003328 -1.50206e-05)
(0.00453945 -0.0010825 0.000139256)
(0.00555409 0.00118456 -0.000375123)
(0.00545326 0.000398239 -0.000186088)
(0.00540119 -0.000348748 -1.50259e-05)
(0.00539988 -0.00111953 0.000161909)
(0.000196981 0.000105629 6.74804e-05)
(0.000103598 2.03705e-05 2.40132e-05)
(8.99087e-05 -2.71007e-05 -2.5018e-05)
(0.000148379 -0.000105775 -7.32111e-05)
(0.000740666 0.000436031 1.79731e-05)
(0.00060288 0.000125341 6.87116e-06)
(0.000571254 -0.000112706 -3.6423e-05)
(0.000639629 -0.000411689 -6.27808e-05)
(0.00135821 0.000682604 -4.65107e-05)
(0.00123211 0.00022036 -2.68062e-05)
(0.00119252 -0.000181894 -3.57846e-05)
(0.00123555 -0.000637683 -3.24438e-05)
(0.00207064 0.000872121 -0.000118971)
(0.00195611 0.000293679 -6.09284e-05)
(0.00191275 -0.000233774 -3.06698e-05)
(0.00193578 -0.000808804 1.01522e-05)
(0.00284565 0.00100772 -0.000187432)
(0.00274304 0.000346309 -9.20892e-05)
(0.00269799 -0.000271398 -2.31736e-05)
(0.00270456 -0.000929555 5.53226e-05)
(0.00365817 0.0010999 -0.000247018)
(0.00356586 0.000381106 -0.000119318)
(0.00352062 -0.000297749 -1.61423e-05)
(0.00351544 -0.00101 9.67711e-05)
(0.00448841 0.00115872 -0.000295221)
(0.00440347 0.000400994 -0.000143595)
(0.00435837 -0.000315528 -1.31137e-05)
(0.00434662 -0.00105918 0.000128173)
(0.00533315 0.00119238 -0.0003308)
(0.00524083 0.0004112 -0.000165524)
(0.00519106 -0.00032654 -1.84104e-05)
(0.00518208 -0.0010868 0.000139223)
(0.000195385 0.000106195 2.02694e-05)
(9.56328e-05 2.19544e-05 7.49038e-06)
(7.98534e-05 -2.68604e-05 -1.17211e-05)
(0.000139983 -0.000105056 -2.73443e-05)
(0.000721431 0.000426481 -1.44813e-05)
(0.000572474 0.000126149 -8.46567e-06)
(0.000537691 -0.000105952 -1.98812e-05)
(0.000610869 -0.000395722 -2.25252e-05)
(0.00131172 0.000672594 -6.25062e-05)
(0.00117716 0.00022355 -3.34794e-05)
(0.00113449 -0.000171184 -2.14914e-05)
(0.00118015 -0.00061479 -1.10957e-06)
(0.00199393 0.000863353 -0.000116732)
(0.00187333 0.000299249 -5.97494e-05)
(0.00182711 -0.000219267 -1.92622e-05)
(0.0018507 -0.000780203 2.90309e-05)
(0.00273906 0.00100162 -0.000169579)
(0.00263183 0.00035434 -8.44376e-05)
(0.00258411 -0.000253439 -1.50468e-05)
(0.00259003 -0.000896559 6.1932e-05)
(0.00352339 0.00109672 -0.000216867)
(0.00342772 0.000391328 -0.000106669)
(0.00338007 -0.000276442 -1.12431e-05)
(0.00337325 -0.00097281 9.23152e-05)
(0.00432801 0.00115833 -0.000255766)
(0.00424122 0.000412847 -0.000126748)
(0.00419402 -0.000290918 -1.12516e-05)
(0.00417941 -0.00101761 0.000114061)
(0.00515125 0.00119474 -0.000283102)
(0.00505847 0.000424228 -0.000144511)
(0.00500617 -0.000298741 -1.97794e-05)
(0.00499189 -0.00104071 0.000116518)
(0.000190499 0.000105407 -1.26246e-06)
(8.74115e-05 2.2409e-05 -4.30573e-07)
(7.001e-05 -2.63481e-05 -4.46242e-06)
(0.000130223 -0.000103026 -4.89438e-06)
(0.000697907 0.000416298 -2.90159e-05)
(0.000542666 0.000125411 -1.4702e-05)
(0.000504927 -9.96737e-05 -9.79733e-06)
(0.000579139 -0.00037972 -3.72953e-07)
(0.00126576 0.000658893 -6.57046e-05)
(0.00112482 0.000223797 -3.36767e-05)
(0.00107904 -0.000159922 -1.17387e-05)
(0.00112591 -0.000589601 1.58656e-05)
(0.00192417 0.000849656 -0.000106329)
(0.00179809 0.00030156 -5.36711e-05)
(0.00174891 -0.000203627 -1.09494e-05)
(0.00177316 -0.000748298 3.76148e-05)
(0.00264595 0.000990082 -0.000146544)
(0.00253416 0.000359265 -7.2858e-05)
(0.0024837 -0.000233981 -8.77218e-06)
(0.00248973 -0.000859741 6.13813e-05)
(0.00340814 0.00108828 -0.000183319)
(0.00330886 0.000398955 -9.06116e-05)
(0.00325876 -0.000253648 -7.12686e-06)
(0.00325144 -0.000932082 8.3165e-05)
(0.00419233 0.00115318 -0.00021409)
(0.00410296 0.000422882 -0.000106968)
(0.00405347 -0.000265208 -8.92233e-06)
(0.00403752 -0.000973454 9.77155e-05)
(0.00499776 0.00119264 -0.000235098)
(0.0049029 0.00043641 -0.000121409)
(0.00484764 -0.000270457 -1.83505e-05)
(0.0048304 -0.000993421 9.55658e-05)
(0.000185314 0.000104006 -9.17926e-06)
(8.07715e-05 2.24955e-05 -3.38901e-06)
(6.22826e-05 -2.57417e-05 -8.16004e-07)
(0.00012168 -0.000100537 4.58274e-06)
(0.000675819 0.000407704 -3.14043e-05)
(0.00051733 0.000124652 -1.52173e-05)
(0.000477444 -9.43302e-05 -4.01399e-06)
(0.00055107 -0.00036584 9.40772e-06)
(0.00122514 0.00064701 -5.90539e-05)
(0.00108023 0.000223641 -2.93818e-05)
(0.00103215 -0.000150015 -5.61281e-06)
(0.00107914 -0.00056758 2.18281e-05)
(0.00186464 0.000837322 -8.89591e-05)
(0.00173471 0.000303045 -4.42037e-05)
(0.00168337 -0.000189674 -5.44808e-06)
(0.00170788 -0.000720102 3.74822e-05)
(0.00256814 0.000979223 -0.000118768)
(0.00245291 0.000362977 -5.86293e-05)
(0.0024005 -0.000216516 -4.43297e-06)
(0.00240672 -0.000826954 5.43681e-05)
(0.00331303 0.00107983 -0.000146443)
(0.0032109 0.00040504 -7.22736e-05)
(0.00315906 -0.000233191 -4.02407e-06)
(0.00315169 -0.000895745 6.95903e-05)
(0.00408102 0.0011473 -0.000169908)
(0.00398944 0.000431112 -8.50632e-05)
(0.00393833 -0.000242252 -6.49691e-06)
(0.00392183 -0.000934176 7.90315e-05)
(0.00487158 0.00118903 -0.000185571)
(0.00477487 0.000446524 -9.63322e-05)
(0.00471745 -0.000245371 -1.51514e-05)
(0.00469857 -0.000951641 7.51024e-05)
(0.000181038 0.000102637 -9.96232e-06)
(7.59744e-05 2.24685e-05 -3.68047e-06)
(5.67773e-05 -2.51812e-05 6.50178e-07)
(0.000115148 -9.82855e-05 6.9135e-06)
(0.000658034 0.000401211 -2.64106e-05)
(0.000497989 0.00012415 -1.24819e-05)
(0.00045667 -9.01597e-05 -1.08299e-06)
(0.000529236 -0.000354997 1.13082e-05)
(0.00119303 0.000638081 -4.59155e-05)
(0.00104583 0.000223614 -2.23846e-05)
(0.000996226 -0.000142217 -2.18261e-06)
(0.00104289 -0.000550428 2.02446e-05)
(0.00181816 0.000827966 -6.66187e-05)
(0.00168579 0.000304264 -3.267e-05)
(0.00163304 -0.000178637 -2.23974e-06)
(0.00165758 -0.000698074 3.09428e-05)
(0.00250792 0.000970835 -8.73184e-05)
(0.0023904 0.000365889 -4.27759e-05)
(0.00233674 -0.000202665 -1.83335e-06)
(0.00234311 -0.000801234 4.23021e-05)
(0.00323983 0.00107309 -0.000106729)
(0.00313571 0.000409745 -5.24868e-05)
(0.0030828 -0.000216963 -1.98118e-06)
(0.00307552 -0.000867155 5.23611e-05)
(0.0039955 0.00114229 -0.000123336)
(0.00390234 0.000437424 -6.16997e-05)
(0.00385024 -0.000224076 -4.29135e-06)
(0.00383357 -0.000903244 5.81942e-05)
(0.00477443 0.00118548 -0.000134248)
(0.00467632 0.00045423 -6.97955e-05)
(0.00461756 -0.000225557 -1.1085e-05)
(0.00459791 -0.000918746 5.43489e-05)
(0.000178094 0.000101604 -7.09864e-06)
(7.29073e-05 2.24215e-05 -2.61706e-06)
(5.32795e-05 -2.47612e-05 8.35347e-07)
(0.000110801 -9.66381e-05 5.39393e-06)
(0.000645814 0.000396887 -1.72297e-05)
(0.00048509 0.000123872 -8.02414e-06)
(0.000442895 -8.73086e-05 2.60018e-08)
(0.00051451 -0.000347612 8.45746e-06)
(0.00117106 0.000632197 -2.88849e-05)
(0.00102264 0.000223691 -1.3903e-05)
(0.000972108 -0.000136879 -5.96834e-07)
(0.00101838 -0.000538782 1.38838e-05)
(0.00178647 0.000821798 -4.1108e-05)
(0.0016527 0.000305189 -1.99783e-05)
(0.00159911 -0.000171073 -6.85818e-07)
(0.00162357 -0.000683111 2.01558e-05)
(0.00246698 0.000965262 -5.33472e-05)
(0.00234808 0.000367941 -2.59835e-05)
(0.00229368 -0.000193169 -5.58082e-07)
(0.00230014 -0.000783736 2.67319e-05)
(0.00319014 0.00106852 -6.48933e-05)
(0.0030848 0.000412976 -3.18118e-05)
(0.00303127 -0.000205842 -8.13784e-07)
(0.0030241 -0.000847675 3.24751e-05)
(0.00393747 0.00113875 -7.48244e-05)
(0.0038433 0.000441698 -3.73803e-05)
(0.00379064 -0.000211633 -2.40505e-06)
(0.00377398 -0.000882148 3.56425e-05)
(0.00470838 0.00118278 -8.12834e-05)
(0.00460936 0.000459403 -4.22581e-05)
(0.00454984 -0.000212007 -6.69793e-06)
(0.00452987 -0.000896297 3.29688e-05)
(0.000176603 0.000101056 -2.53111e-06)
(7.14172e-05 2.23913e-05 -9.31713e-07)
(5.15856e-05 -2.45382e-05 3.48245e-07)
(0.000108639 -9.57769e-05 1.98663e-06)
(0.000639622 0.000394729 -5.95311e-06)
(0.00047866 0.000123751 -2.75332e-06)
(0.000436052 -8.58632e-05 1.17817e-07)
(0.000507127 -0.000343881 3.08238e-06)
(0.00115994 0.000629282 -9.83432e-06)
(0.00101099 0.000223763 -4.70433e-06)
(0.000960031 -0.000134173 -8.19413e-08)
(0.00100606 -0.000532907 4.90508e-06)
(0.00177044 0.000818745 -1.38814e-05)
(0.00163604 0.000305691 -6.71586e-06)
(0.00158205 -0.000167239 -1.19427e-07)
(0.00160645 -0.000675565 6.9753e-06)
(0.00244628 0.000962491 -1.79365e-05)
(0.00232674 0.000369005 -8.71e-06)
(0.00227201 -0.000188358 -9.51768e-08)
(0.0022785 -0.00077491 9.13128e-06)
(0.00316503 0.00106622 -2.17729e-05)
(0.00305911 0.000414622 -1.06546e-05)
(0.0030053 -0.000200209 -2.07257e-07)
(0.0029982 -0.000837844 1.10004e-05)
(0.0039081 0.00113691 -2.50812e-05)
(0.00381347 0.000443856 -1.25184e-05)
(0.00376057 -0.000205335 -7.70391e-07)
(0.00374394 -0.000871499 1.20042e-05)
(0.00467492 0.00118128 -2.72221e-05)
(0.00457548 0.000462005 -1.41474e-05)
(0.00451563 -0.000205147 -2.2346e-06)
(0.00449555 -0.000884964 1.10567e-05)
)
;

boundaryField
{
    interface
    {
        type            tractionDisplacement;
        gradient        nonuniform List<vector> 
192
(
(0.0012504 8.90088e-08 -6.27537e-06)
(0.00125106 2.32615e-07 -7.48491e-06)
(0.0012496 5.25483e-07 -7.47543e-06)
(0.00124673 8.45864e-07 -7.27339e-06)
(0.00124237 1.23213e-06 -6.95727e-06)
(0.00123606 1.75972e-06 -6.48764e-06)
(0.00122701 2.65546e-06 -5.77696e-06)
(0.00121237 4.4017e-06 -4.57372e-06)
(0.00127836 1.58951e-07 -4.18175e-06)
(0.00127813 3.40733e-07 -4.98588e-06)
(0.00127606 6.81215e-07 -4.94782e-06)
(0.00127234 1.07974e-06 -4.77587e-06)
(0.0012667 1.57845e-06 -4.5173e-06)
(0.00125852 2.26978e-06 -4.14438e-06)
(0.00124668 3.43378e-06 -3.60938e-06)
(0.00122774 5.61186e-06 -2.83028e-06)
(0.0012969 2.0556e-07 -2.92788e-06)
(0.00129628 4.22773e-07 -3.50022e-06)
(0.00129375 8.10625e-07 -3.4639e-06)
(0.00128935 1.27314e-06 -3.32432e-06)
(0.00128271 1.85533e-06 -3.11929e-06)
(0.00127309 2.65704e-06 -2.83373e-06)
(0.00125927 3.97152e-06 -2.44508e-06)
(0.00123752 6.33252e-06 -1.9299e-06)
(0.00131022 2.36666e-07 -2.12187e-06)
(0.00130939 4.82114e-07 -2.53952e-06)
(0.00130652 9.12912e-07 -2.50899e-06)
(0.00130157 1.426e-06 -2.39958e-06)
(0.00129415 2.06871e-06 -2.2415e-06)
(0.00128345 2.94405e-06 -2.02736e-06)
(0.00126819 4.35007e-06 -1.74696e-06)
(0.00124452 6.81512e-06 -1.39307e-06)
(0.00131978 2.59652e-07 -1.51365e-06)
(0.00131882 5.26652e-07 -1.81147e-06)
(0.00131569 9.91037e-07 -1.78752e-06)
(0.00131032 1.54199e-06 -1.7059e-06)
(0.0013023 2.22756e-06 -1.58946e-06)
(0.00129082 3.15197e-06 -1.43486e-06)
(0.00127453 4.6157e-06 -1.23756e-06)
(0.00124954 7.14639e-06 -9.95544e-07)
(0.00132642 2.76131e-07 -1.01788e-06)
(0.00132536 5.58719e-07 -1.21811e-06)
(0.00132204 1.04754e-06 -1.20117e-06)
(0.00131638 1.62535e-06 -1.14496e-06)
(0.00130794 2.34023e-06 -1.06545e-06)
(0.0012959 3.29691e-06 -9.61283e-07)
(0.00127891 4.79762e-06 -8.30326e-07)
(0.00125304 7.37104e-06 -6.71486e-07)
(0.00133063 2.87035e-07 -5.86262e-07)
(0.00132951 5.79709e-07 -7.01327e-07)
(0.00132607 1.08477e-06 -6.91544e-07)
(0.00132021 1.68017e-06 -6.58841e-07)
(0.00131151 2.41383e-06 -6.12817e-07)
(0.00129912 3.39091e-06 -5.5309e-07)
(0.00128169 4.9157e-06 -4.77739e-07)
(0.00125526 7.51474e-06 -3.82182e-07)
(0.00133265 2.92824e-07 -1.90632e-07)
(0.00133149 5.90077e-07 -2.27698e-07)
(0.001328 1.10224e-06 -2.24725e-07)
(0.00132205 1.70638e-06 -2.14081e-07)
(0.00131322 2.44881e-06 -1.99112e-07)
(0.00130067 3.43614e-06 -1.79825e-07)
(0.00128303 4.97701e-06 -1.55001e-07)
(0.00125626 7.58408e-06 -1.20792e-07)
(1.09308e-05 7.23725e-08 0.00114973)
(1.30776e-05 1.27851e-07 0.00114889)
(1.31548e-05 1.98457e-07 0.00114824)
(1.29808e-05 2.92527e-07 0.0011473)
(1.2715e-05 4.04896e-07 0.00114595)
(1.23458e-05 5.36693e-07 0.00114413)
(1.18492e-05 6.86119e-07 0.00114175)
(1.13079e-05 8.03277e-07 0.00113874)
(1.00547e-05 2.11513e-08 0.0010997)
(1.20342e-05 3.77271e-08 0.00109949)
(1.21003e-05 5.67502e-08 0.0010993)
(1.19489e-05 8.24212e-08 0.00109902)
(1.17254e-05 1.12105e-07 0.00109863)
(1.14243e-05 1.44074e-07 0.00109811)
(1.10382e-05 1.71046e-07 0.00109746)
(1.0708e-05 1.6209e-07 0.00109671)
(1.00418e-05 -2.70428e-08 0.00105277)
(1.20188e-05 -4.56996e-08 0.00105298)
(1.20844e-05 -6.9588e-08 0.00105321)
(1.1933e-05 -1.00411e-07 0.00105354)
(1.171e-05 -1.3707e-07 0.001054)
(1.141e-05 -1.80176e-07 0.00105463)
(1.10258e-05 -2.2871e-07 0.00105544)
(1.06983e-05 -2.6355e-07 0.00105648)
(1.09054e-05 -8.04064e-08 0.00100291)
(1.30452e-05 -1.36982e-07 0.00100376)
(1.312e-05 -2.11694e-07 0.00100444)
(1.29457e-05 -3.09713e-07 0.00100544)
(1.26804e-05 -4.27843e-07 0.00100685)
(1.23126e-05 -5.69225e-07 0.00100876)
(1.18188e-05 -7.38586e-07 0.00101129)
(1.12818e-05 -8.99354e-07 0.00101456)
(-0.000903606 -9.63547e-08 6.85177e-06)
(-0.000902881 -2.51564e-07 8.12936e-06)
(-0.000904348 -5.72774e-07 8.11249e-06)
(-0.00090722 -9.20022e-07 7.89131e-06)
(-0.000911576 -1.33875e-06 7.54482e-06)
(-0.000917854 -1.91504e-06 7.02877e-06)
(-0.00092686 -2.91625e-06 6.2435e-06)
(-0.00094155 -4.95238e-06 4.89368e-06)
(-0.000876477 -1.72336e-07 4.42126e-06)
(-0.000876696 -3.68407e-07 5.23941e-06)
(-0.000878763 -7.40343e-07 5.19106e-06)
(-0.000882477 -1.17274e-06 5.00456e-06)
(-0.000888098 -1.71422e-06 4.72407e-06)
(-0.000896245 -2.4707e-06 4.31857e-06)
(-0.000908024 -3.77243e-06 3.7342e-06)
(-0.000927051 -6.30466e-06 2.87503e-06)
(-0.000858904 -2.23527e-07 3.02815e-06)
(-0.000859518 -4.57468e-07 3.59773e-06)
(-0.000862036 -8.80012e-07 3.55226e-06)
(-0.00086643 -1.38156e-06 3.40144e-06)
(-0.000873045 -2.0136e-06 3.18024e-06)
(-0.000882602 -2.89053e-06 2.87178e-06)
(-0.000896351 -4.35875e-06 2.45083e-06)
(-0.000918167 -7.09737e-06 1.88924e-06)
(-0.00084644 -2.57774e-07 2.16159e-06)
(-0.000847264 -5.21851e-07 2.57079e-06)
(-0.000850126 -9.90306e-07 2.53274e-06)
(-0.00085506 -1.54618e-06 2.41474e-06)
(-0.000862449 -2.24345e-06 2.24466e-06)
(-0.000873069 -3.20009e-06 2.01421e-06)
(-0.000888236 -4.76849e-06 1.71208e-06)
(-0.000911949 -7.62329e-06 1.32891e-06)
(-0.000837595 -2.83051e-07 1.52365e-06)
(-0.00083856 -5.70096e-07 1.81175e-06)
(-0.000841682 -1.07445e-06 1.78199e-06)
(-0.000847026 -1.67087e-06 1.69407e-06)
(-0.000854997 -2.41412e-06 1.56902e-06)
(-0.000866396 -3.42352e-06 1.40308e-06)
(-0.00088257 -5.05455e-06 1.19126e-06)
(-0.000907581 -7.98206e-06 9.30362e-07)
(-0.000831511 -3.01135e-07 1.01526e-06)
(-0.000832571 -6.04765e-07 1.20705e-06)
(-0.000835879 -1.13523e-06 1.18601e-06)
(-0.000841519 -1.76034e-06 1.1255e-06)
(-0.000849902 -2.53489e-06 1.04024e-06)
(-0.000861845 -3.57878e-06 9.28656e-07)
(-0.000878708 -5.24964e-06 7.88457e-07)
(-0.000904589 -8.22417e-06 6.17775e-07)
(-0.000827684 -3.13066e-07 5.81157e-07)
(-0.000828802 -6.27424e-07 6.90621e-07)
(-0.00083223 -1.17521e-06 6.7841e-07)
(-0.000838059 -1.81904e-06 6.43226e-07)
(-0.000846706 -2.61357e-06 5.93914e-07)
(-0.000858993 -3.67914e-06 5.30029e-07)
(-0.000876286 -5.37574e-06 4.49542e-07)
(-0.000902707 -8.37837e-06 3.46949e-07)
(-0.000825854 -3.19376e-07 1.88378e-07)
(-0.000827006 -6.38536e-07 2.23531e-07)
(-0.000830489 -1.19398e-06 2.19753e-07)
(-0.000836409 -1.8471e-06 2.083e-07)
(-0.000845182 -2.65092e-06 1.92268e-07)
(-0.000857629 -3.72725e-06 1.71653e-07)
(-0.000875121 -5.44102e-06 1.45178e-07)
(-0.000901879 -8.45211e-06 1.08378e-07)
(1.13077e-05 -0.00113956 -9.86196e-07)
(1.18661e-05 -0.00114323 -8.3836e-07)
(1.23873e-05 -0.00114616 -6.69958e-07)
(1.27835e-05 -0.00114847 -5.21832e-07)
(1.30767e-05 -0.00115024 -3.91006e-07)
(1.32868e-05 -0.00115152 -2.72808e-07)
(1.34306e-05 -0.00115236 -1.66012e-07)
(1.35055e-05 -0.00115283 -5.78898e-08)
(1.07333e-05 -0.00109747 -3.23353e-07)
(1.10861e-05 -0.00109878 -2.9851e-07)
(1.14951e-05 -0.00109989 -2.50886e-07)
(1.18192e-05 -0.0011008 -2.02547e-07)
(1.20647e-05 -0.00110151 -1.55909e-07)
(1.22434e-05 -0.00110204 -1.10734e-07)
(1.23687e-05 -0.0011024 -6.67961e-08)
(1.24387e-05 -0.00110257 -2.25708e-08)
(1.07338e-05 -0.00105712 1.29308e-07)
(1.10872e-05 -0.00105654 1.24779e-07)
(1.1494e-05 -0.00105609 9.54584e-08)
(1.18153e-05 -0.00105577 6.74789e-08)
(1.20582e-05 -0.00105555 4.5425e-08)
(1.22347e-05 -0.00105541 2.87838e-08)
(1.23586e-05 -0.00105532 1.65634e-08)
(1.24277e-05 -0.00105528 5.73912e-09)
(1.13263e-05 -0.00101504 7.95589e-07)
(1.18919e-05 -0.00101212 6.58727e-07)
(1.24086e-05 -0.00100987 5.05786e-07)
(1.27978e-05 -0.00100817 3.78169e-07)
(1.3084e-05 -0.00100692 2.73189e-07)
(1.32882e-05 -0.00100604 1.85436e-07)
(1.34278e-05 -0.00100548 1.12584e-07)
(1.35008e-05 -0.00100515 4.00141e-08)
)
;
        traction        nonuniform List<vector> 
192
(
(26.7942 0.00190733 -0.134472)
(26.8085 0.00498462 -0.160391)
(26.7772 0.0112604 -0.160188)
(26.7157 0.0181257 -0.155858)
(26.6222 0.0264028 -0.149084)
(26.487 0.0377082 -0.139021)
(26.293 0.0569026 -0.123792)
(25.9793 0.0943222 -0.0980083)
(27.3935 0.0034061 -0.0896089)
(27.3884 0.00730142 -0.10684)
(27.3441 0.0145975 -0.106025)
(27.2645 0.0231373 -0.10234)
(27.1437 0.033824 -0.0967993)
(26.9683 0.0486382 -0.0888082)
(26.7147 0.0735809 -0.077344)
(26.3087 0.120254 -0.0606489)
(27.7907 0.00440487 -0.0627403)
(27.7773 0.00905942 -0.0750048)
(27.7233 0.0173705 -0.0742265)
(27.6289 0.0272816 -0.0712353)
(27.4865 0.039757 -0.066842)
(27.2806 0.0569365 -0.0607228)
(26.9843 0.085104 -0.0523946)
(26.5182 0.135697 -0.0413549)
(28.0762 0.00507141 -0.0454687)
(28.0584 0.010331 -0.0544183)
(27.997 0.0195624 -0.0537641)
(27.8909 0.0305572 -0.0514196)
(27.7317 0.0443295 -0.0480322)
(27.5026 0.0630869 -0.0434433)
(27.1755 0.0932158 -0.0374349)
(26.6683 0.146038 -0.0298516)
(28.2811 0.00556398 -0.0324353)
(28.2603 0.0112854 -0.0388172)
(28.1933 0.0212365 -0.038304)
(28.0783 0.0330426 -0.0365551)
(27.9065 0.0477333 -0.0340599)
(27.6604 0.0675421 -0.0307469)
(27.3113 0.0989078 -0.0265191)
(26.7759 0.153137 -0.0213331)
(28.4234 0.00591708 -0.0218117)
(28.4006 0.0119725 -0.0261023)
(28.3295 0.0224473 -0.0257394)
(28.2081 0.034829 -0.0245348)
(28.0273 0.0501478 -0.0228311)
(27.7694 0.0706481 -0.0205989)
(27.4052 0.102806 -0.0177927)
(26.8508 0.157951 -0.014389)
(28.5135 0.00615074 -0.0125628)
(28.4894 0.0124223 -0.0150284)
(28.4158 0.023245 -0.0148188)
(28.2903 0.0360036 -0.014118)
(28.1037 0.0517248 -0.0131318)
(27.8383 0.0726623 -0.0118519)
(27.4647 0.105336 -0.0102373)
(26.8984 0.16103 -0.00818961)
(28.5567 0.00627479 -0.00408497)
(28.532 0.0126445 -0.00487923)
(28.4571 0.0236193 -0.00481554)
(28.3296 0.0365652 -0.00458744)
(28.1404 0.0524745 -0.00426669)
(27.8714 0.0736316 -0.00385339)
(27.4935 0.10665 -0.00332146)
(26.9199 0.162516 -0.00258841)
(0.234232 0.00155084 24.637)
(0.280235 0.00273965 24.6191)
(0.281888 0.00425265 24.6052)
(0.278159 0.00626843 24.5849)
(0.272465 0.00867633 24.5561)
(0.264553 0.0115006 24.5171)
(0.253912 0.0147025 24.4661)
(0.242312 0.0172131 24.4015)
(0.215458 0.000453242 23.565)
(0.257875 0.000808438 23.5605)
(0.259292 0.00121608 23.5564)
(0.256048 0.00176617 23.5504)
(0.251258 0.00240225 23.542)
(0.244806 0.00308729 23.5309)
(0.236532 0.00366528 23.517)
(0.229457 0.00347336 23.5009)
(0.215181 -0.00057949 22.5593)
(0.257546 -0.000979277 22.564)
(0.258951 -0.00149117 22.5688)
(0.255708 -0.00215167 22.5758)
(0.250929 -0.00293722 22.5858)
(0.244501 -0.00386092 22.5992)
(0.236268 -0.00490093 22.6167)
(0.22925 -0.00564749 22.6389)
(0.233687 -0.00172299 21.4909)
(0.279539 -0.00293532 21.5091)
(0.281144 -0.00453631 21.5238)
(0.277407 -0.00663671 21.5451)
(0.271722 -0.00916805 21.5754)
(0.263841 -0.0121977 21.6164)
(0.253261 -0.0158268 21.6704)
(0.241752 -0.0192719 21.7405)
(-19.363 -0.00206474 0.146824)
(-19.3475 -0.00539066 0.174201)
(-19.3789 -0.0122737 0.173839)
(-19.4404 -0.0197148 0.1691)
(-19.5338 -0.0286875 0.161675)
(-19.6683 -0.0410367 0.150616)
(-19.8613 -0.0624911 0.133789)
(-20.1761 -0.106122 0.104865)
(-18.7816 -0.00369291 0.0947413)
(-18.7863 -0.00789443 0.112273)
(-18.8306 -0.0158645 0.111237)
(-18.9102 -0.0251302 0.107241)
(-19.0307 -0.0367334 0.10123)
(-19.2052 -0.0529437 0.0925409)
(-19.4577 -0.0808377 0.0800185)
(-19.8654 -0.1351 0.0616077)
(-18.4051 -0.00478987 0.064889)
(-18.4182 -0.00980289 0.0770943)
(-18.4722 -0.0188574 0.0761199)
(-18.5664 -0.0296049 0.0728881)
(-18.7081 -0.0431486 0.0681481)
(-18.9129 -0.06194 0.0615382)
(-19.2075 -0.0934018 0.0525179)
(-19.675 -0.152086 0.0404836)
(-18.138 -0.00552373 0.0463197)
(-18.1556 -0.0111825 0.0550883)
(-18.217 -0.0212208 0.054273)
(-18.3227 -0.0331325 0.0517444)
(-18.481 -0.048074 0.0480998)
(-18.7086 -0.0685733 0.0431617)
(-19.0336 -0.102182 0.0366875)
(-19.5418 -0.163356 0.0284766)
(-17.9485 -0.00606538 0.0326497)
(-17.9691 -0.0122163 0.0388231)
(-18.036 -0.023024 0.0381856)
(-18.1506 -0.0358044 0.0363015)
(-18.3214 -0.0517312 0.0336219)
(-18.5656 -0.0733611 0.0300661)
(-18.9122 -0.108312 0.0255271)
(-19.4482 -0.171044 0.0199363)
(-17.8181 -0.00645288 0.0217555)
(-17.8408 -0.0129593 0.0258653)
(-17.9117 -0.0243264 0.0254145)
(-18.0325 -0.0377215 0.0241178)
(-18.2122 -0.0543192 0.0222908)
(-18.4681 -0.0766882 0.0198998)
(-18.8294 -0.112492 0.0168955)
(-19.3841 -0.176232 0.013238)
(-17.7361 -0.00670857 0.0124534)
(-17.7601 -0.0134448 0.014799)
(-17.8335 -0.0251831 0.0145374)
(-17.9584 -0.0389794 0.0137834)
(-18.1437 -0.0560052 0.0127267)
(-18.407 -0.0788387 0.0113578)
(-18.7775 -0.115194 0.00963305)
(-19.3437 -0.179537 0.00743463)
(-17.6969 -0.00684377 0.00403667)
(-17.7216 -0.0136829 0.00478996)
(-17.7962 -0.0255853 0.00470898)
(-17.9231 -0.0395806 0.00446357)
(-18.111 -0.0568055 0.00412003)
(-18.3778 -0.0798697 0.00367828)
(-18.7526 -0.116593 0.00311095)
(-19.326 -0.181117 0.00232238)
(0.242309 -24.4191 -0.0211328)
(0.254273 -24.4977 -0.0179648)
(0.265441 -24.5605 -0.0143563)
(0.273931 -24.61 -0.0111821)
(0.280215 -24.6479 -0.00837869)
(0.284717 -24.6755 -0.00584588)
(0.287799 -24.6935 -0.0035574)
(0.289404 -24.7035 -0.0012405)
(0.229999 -23.5171 -0.006929)
(0.237559 -23.5453 -0.00639663)
(0.246324 -23.5691 -0.00537612)
(0.253268 -23.5885 -0.00434029)
(0.25853 -23.6038 -0.00334091)
(0.262358 -23.6152 -0.00237288)
(0.265043 -23.6228 -0.00143135)
(0.266544 -23.6265 -0.00048366)
(0.23001 -22.6525 0.00277088)
(0.237582 -22.6402 0.00267384)
(0.2463 -22.6305 0.00204554)
(0.253185 -22.6237 0.00144598)
(0.25839 -22.6189 0.000973392)
(0.262173 -22.6158 0.000616796)
(0.264827 -22.614 0.00035493)
(0.266308 -22.6131 0.000122981)
(0.242706 -21.7508 0.0170483)
(0.254825 -21.6882 0.0141156)
(0.265899 -21.64 0.0108383)
(0.274239 -21.6037 0.00810362)
(0.280372 -21.5769 0.00585405)
(0.284748 -21.558 0.00397363)
(0.287739 -21.5459 0.00241252)
(0.289303 -21.5389 0.000857445)
)
;
        pressure        uniform 0;
        value           nonuniform List<vector> 
192
(
(0.000387557 0.000403624 0.000154472)
(0.000842692 0.000710363 4.61532e-05)
(0.00151244 0.00101447 -6.60242e-05)
(0.00224862 0.00123714 -0.000186424)
(0.00305281 0.00139942 -0.000294208)
(0.00389165 0.00150879 -0.000385824)
(0.00474948 0.00158129 -0.000458563)
(0.00561616 0.00163845 -0.000513219)
(0.000395251 0.000402836 6.17872e-05)
(0.000847655 0.000698311 1.96977e-06)
(0.00146568 0.00100708 -7.94136e-05)
(0.00216432 0.00123395 -0.000170396)
(0.00292856 0.00139826 -0.000255959)
(0.0037322 0.00150909 -0.000331082)
(0.00455831 0.00158175 -0.000392561)
(0.00539851 0.00164009 -0.000437711)
(0.000394987 0.00040062 1.39882e-05)
(0.000831806 0.000677712 -3.1168e-05)
(0.0014215 0.000981379 -9.16869e-05)
(0.00208876 0.00120987 -0.000159574)
(0.00282212 0.00137761 -0.000225798)
(0.00359696 0.00149298 -0.000285473)
(0.00439709 0.00157041 -0.000335352)
(0.00521442 0.00163498 -0.000371376)
(0.000389261 0.000394137 -7.13589e-06)
(0.000810743 0.000658468 -4.4478e-05)
(0.00137847 0.000956222 -9.11316e-05)
(0.00202163 0.00118428 -0.00014227)
(0.00273108 0.00135467 -0.000192803)
(0.00348324 0.00147412 -0.000239288)
(0.00426249 0.0015561 -0.000278918)
(0.00506123 0.00162574 -0.000307441)
(0.000381998 0.000386527 -1.40791e-05)
(0.000789887 0.000642388 -4.4349e-05)
(0.00133981 0.000935482 -7.98418e-05)
(0.00196429 0.00116286 -0.000117805)
(0.00265527 0.00133505 -0.000155453)
(0.00338982 0.00145752 -0.000190562)
(0.00415254 0.00154281 -0.000220978)
(0.00493576 0.00161585 -0.000242834)
(0.000375494 0.000379777 -1.35731e-05)
(0.000772595 0.000630076 -3.6004e-05)
(0.00130886 0.000919905 -6.12014e-05)
(0.00191932 0.0011468 -8.76816e-05)
(0.00259659 0.00132019 -0.000113967)
(0.00331802 0.00144468 -0.000138695)
(0.00406825 0.00153211 -0.000160344)
(0.00483946 0.00160722 -0.00017586)
(0.000370796 0.000374896 -9.28989e-06)
(0.000760493 0.000621774 -2.30821e-05)
(0.00128748 0.000909547 -3.81919e-05)
(0.00188853 0.00113616 -5.39067e-05)
(0.00255662 0.00131031 -6.95137e-05)
(0.00326927 0.00143602 -8.42746e-05)
(0.00401105 0.00152469 -9.7274e-05)
(0.00477403 0.00160097 -0.000106572)
(0.000368354 0.000372364 -3.26266e-06)
(0.000754291 0.000617603 -7.91433e-06)
(0.00127658 0.00090438 -1.29532e-05)
(0.0018729 0.00113087 -1.81697e-05)
(0.00253637 0.00130538 -2.33521e-05)
(0.0032446 0.00143166 -2.82665e-05)
(0.00398208 0.00152089 -3.26055e-05)
(0.00474086 0.00159762 -3.57048e-05)
(0.000193811 0.000171886 0.000259965)
(0.000763086 0.00037694 7.90015e-05)
(0.00145171 0.000623009 -1.54558e-07)
(0.00223016 0.000807188 -0.000109534)
(0.00306966 0.000948246 -0.000202425)
(0.00393879 0.00104887 -0.000281597)
(0.00481681 0.00111763 -0.000342672)
(0.00569965 0.00116756 -0.000395377)
(7.89312e-05 4.57958e-05 7.28533e-05)
(0.000593961 9.50523e-05 3.36498e-05)
(0.00127973 0.000187296 -1.62288e-05)
(0.00206989 0.000257749 -6.46423e-05)
(0.00292154 0.000311313 -0.000105826)
(0.00380239 0.000347853 -0.000140499)
(0.00468935 0.000369572 -0.000170916)
(0.00556832 0.000385656 -0.000203551)
(6.28586e-05 -6.20782e-05 -7.02316e-05)
(0.000556239 -0.000109739 -6.7518e-05)
(0.001231 -0.000180594 -6.18255e-05)
(0.00201673 -0.000232659 -5.05307e-05)
(0.00286651 -0.000274346 -3.74762e-05)
(0.00374788 -0.000306897 -2.4999e-05)
(0.0046361 -0.000333152 -1.66218e-05)
(0.00551058 -0.000354252 -1.26787e-05)
(0.000138543 -0.000191869 -0.000252163)
(0.000643595 -0.000385709 -0.000138564)
(0.00130113 -0.000611836 -0.000102235)
(0.00206425 -0.000780299 -3.14799e-05)
(0.00289623 -0.000908859 3.39518e-05)
(0.0037649 -0.00100114 9.38436e-05)
(0.00464646 -0.00106692 0.000140936)
(0.0055218 -0.00111908 0.000170639)
(0.000301058 -0.000367631 -0.000163329)
(0.000711268 -0.000683443 -0.000119469)
(0.0013433 -0.000981651 -5.54684e-05)
(0.00206135 -0.00119548 2.68585e-05)
(0.00285529 -0.00134894 0.00010811)
(0.00369103 -0.00145045 0.000182734)
(0.00454771 -0.00151366 0.000244006)
(0.00540753 -0.00155137 0.000281324)
(0.000296485 -0.00036314 -7.17817e-05)
(0.000709716 -0.000664129 -5.31363e-05)
(0.00129386 -0.000958703 -8.29599e-06)
(0.00197455 -0.0011709 5.18077e-05)
(0.00272865 -0.00132067 0.000114221)
(0.00352846 -0.00141747 0.000172322)
(0.00435339 -0.0014742 0.000219094)
(0.00518907 -0.00150587 0.000244367)
(0.000286994 -0.000354986 -2.36498e-05)
(0.00068399 -0.000637976 -8.67672e-06)
(0.00124087 -0.000920873 2.47014e-05)
(0.00189103 -0.0011271 6.8254e-05)
(0.00261477 -0.00127245 0.000114745)
(0.0033862 -0.0013658 0.000158301)
(0.00418535 -0.00141904 0.000192653)
(0.00499644 -0.00144648 0.000207462)
(0.000274268 -0.000342548 -6.3696e-07)
(0.000653937 -0.000612313 1.37719e-05)
(0.00118861 -0.000884174 4.01201e-05)
(0.00181535 -0.00108321 7.25138e-05)
(0.00251583 -0.00122372 0.000106865)
(0.00326518 -0.00131351 0.000138946)
(0.00404352 -0.00136354 0.000163501)
(0.0048342 -0.00138754 0.000171404)
(0.000262014 -0.000329956 8.44648e-06)
(0.000626405 -0.00059006 2.16563e-05)
(0.0011429 -0.0008529 4.21997e-05)
(0.00175139 -0.00104568 6.61404e-05)
(0.00243402 -0.00118172 9.11198e-05)
(0.00316628 -0.00126816 0.000114187)
(0.00392816 -0.00131527 0.000131301)
(0.00470218 -0.00133631 0.000135202)
(0.000252082 -0.000319464 9.89225e-06)
(0.000604506 -0.000572635 2.05389e-05)
(0.00110706 -0.000828674 3.54118e-05)
(0.00170187 -0.00101667 5.20896e-05)
(0.00237124 -0.00114917 6.92281e-05)
(0.0030908 -0.00123288 8.48654e-05)
(0.00384029 -0.00127761 9.6161e-05)
(0.00460163 -0.00129627 9.79196e-05)
(0.000245233 -0.000312117 7.25036e-06)
(0.000589524 -0.000560751 1.41426e-05)
(0.00108266 -0.000812233 2.31782e-05)
(0.00166827 -0.000997022 3.30714e-05)
(0.00232877 -0.00112711 4.31316e-05)
(0.00303984 -0.00120894 5.22293e-05)
(0.003781 -0.00125202 5.86833e-05)
(0.00453379 -0.00126905 5.93798e-05)
(0.000241762 -0.000308363 2.61525e-06)
(0.000581952 -0.000554744 4.99741e-06)