/*--------------------------------*- C++ -*----------------------------------*\
| =========                 |                                                 |
| \\      /  F ield         | foam-extend: Open Source CFD                    |
|  \\    /   O peration     | Version:     3.1                                |
|   \\  /    A nd           | Web:         http://www.extend-project.de       |
|    \\/     M anipulation  |                                                 |
\*---------------------------------------------------------------------------*/
FoamFile
{
    version     2.0;
    format      ascii;
    class       volSymmTensorField;
    location    "1.9";
    object      epsilon;
}
// * * * * * * * * * * * * * * * * * * * * * * * * * * * * * * * * * * * * * //

dimensions      [0 0 0 0 0 0 0];

internalField   nonuniform List<symmTensor> 
256
(
(-0.00422036 0.00636354 -0.000252407 0.015303 0.00205761 -0.00149378)
(-0.00151806 0.00568754 -0.000759831 0.00353715 0.000835567 -0.000579817)
(0.000513591 0.00522981 -0.000768331 -0.00371436 -0.0010455 0.00061757)
(0.0029806 0.0051528 -0.000333321 -0.01449 -0.00249394 0.00157012)
(-0.00761783 0.00269723 -0.000318145 0.00946367 -0.0014683 -0.00202707)
(-0.00335681 0.00670118 -0.00125765 0.00386909 -0.000585358 -0.000768985)
(0.000863034 0.00655064 -0.00129928 -0.00278725 0.000193179 0.000996662)
(0.00505177 0.0026817 -0.000519082 -0.00863387 0.000928591 0.0024226)
(-0.00667173 0.00298146 -0.000179976 0.00889636 -0.000881625 -0.000771477)
(-0.0036429 0.00614178 -0.000977088 0.00359598 -0.000332746 -0.000227227)
(0.000458257 0.00616043 -0.00102564 -0.00210789 1.76844e-05 0.000730705)
(0.00368016 0.0030505 -0.000411357 -0.00755835 0.000528347 0.00153588)
(-0.00602366 0.00246535 -0.000205487 0.00669601 -0.00097048 -8.86299e-05)
(-0.00345503 0.00536111 -0.000903677 0.00289254 -0.000330126 9.3403e-05)
(4.68517e-05 0.0054267 -0.000935807 -0.00138067 0.00010532 0.000623719)
(0.00276074 0.00260417 -0.000440862 -0.00527104 0.000727648 0.00107636)
(-0.00521004 0.00205041 -0.000190933 0.00494705 -0.00082701 0.000573257)
(-0.00316198 0.00448928 -0.000822787 0.00223549 -0.000260046 0.000379273)
(-0.000254795 0.004589 -0.000845481 -0.00083147 0.0001276 0.000474322)
(0.00186024 0.00223681 -0.000419423 -0.00351746 0.000710131 0.000553498)
(-0.00457263 0.00154441 -0.000215029 0.00348079 -0.000702445 0.00105013)
(-0.0028758 0.00358416 -0.00079322 0.00164941 -0.000216233 0.000580968)
(-0.000438734 0.00373141 -0.000795449 -0.000429982 0.000134584 0.000338946)
(0.00122144 0.00182529 -0.000410183 -0.00210317 0.000678633 0.000120144)
(-0.00418343 0.000995135 -0.000290055 0.00257054 -0.000612408 0.00143856)
(-0.00272605 0.00270208 -0.000819591 0.00122761 -0.000221809 0.000753293)
(-0.000533827 0.00285734 -0.000791186 -0.000153082 0.000105745 0.000200085)
(0.000880024 0.00139306 -0.000417124 -0.0011496 0.000590216 -0.000281838)
(-0.0044789 0.000691467 -0.000400394 0.00200353 -0.000360785 0.00179569)
(-0.00326304 0.00171106 -0.000883146 0.00116377 -0.000145095 0.00091344)
(-0.000435871 0.00167938 -0.000862359 0.000136394 2.61224e-05 3.88925e-05)
(0.00101338 0.000788015 -0.000499527 -0.000546364 0.000264311 -0.000690988)
(-0.00421624 0.0065169 -0.000106183 0.0150564 0.000882427 -0.000981605)
(-0.00139179 0.00590977 -0.000564191 0.00359462 0.00034853 -0.000415653)
(0.000449704 0.00549989 -0.000630958 -0.0033209 -0.000649128 0.000402071)
(0.00294581 0.00535395 -0.00029099 -0.0137756 -0.0013697 0.00107037)
(-0.00755114 0.002349 -0.000125582 0.0103842 -0.00119193 -0.00153704)
(-0.00303219 0.00623791 -0.0010699 0.00437137 -0.000498219 -0.00065336)
(0.000735236 0.00615037 -0.00123207 -0.00310426 3.33637e-05 0.000755962)
(0.00497702 0.00242877 -0.000549596 -0.00942241 0.000606275 0.00192531)
(-0.00644678 0.0023595 -1.69001e-05 0.0088885 -0.00145397 -0.000702828)
(-0.00318595 0.00519166 -0.000930477 0.00362322 -0.000553354 -0.000297695)
(0.00033178 0.00523532 -0.00112094 -0.00210847 0.000197889 0.000644965)
(0.00352666 0.0024458 -0.00051094 -0.00752489 0.00104309 0.00144357)
(-0.00570024 0.00187697 4.11826e-05 0.00669523 -0.00146765 7.83716e-05)
(-0.00293818 0.00435922 -0.000782194 0.00288923 -0.00050892 3.28596e-05)
(-7.52522e-05 0.00442716 -0.000973288 -0.00136605 0.000303424 0.000508862)
(0.00253319 0.00200924 -0.000477736 -0.00524169 0.0012468 0.000897236)
(-0.00488283 0.00149193 8.96836e-05 0.00484091 -0.00132856 0.000745972)
(-0.00264316 0.00355381 -0.000670728 0.00218975 -0.000428439 0.000303676)
(-0.000365738 0.00364519 -0.000855743 -0.000761304 0.000356682 0.000363286)
(0.00162918 0.00166955 -0.000425723 -0.00337066 0.001289 0.000363491)
(-0.0042477 0.00107124 9.06964e-05 0.00335533 -0.00113347 0.0012663)
(-0.00237336 0.00279905 -0.000617286 0.00160066 -0.000351517 0.000512282)
(-0.000555557 0.00293087 -0.000779797 -0.00031483 0.000353541 0.000224983)
(0.00097589 0.00134669 -0.000383126 -0.00188673 0.00122524 -0.000109438)
(-0.00386514 0.000610504 2.77256e-05 0.00240425 -0.000909085 0.00167217)
(-0.00225388 0.00211 -0.000647202 0.00115281 -0.000299271 0.00068309)
(-0.000665759 0.00225607 -0.000776776 4.55006e-06 0.000279039 9.74577e-05)
(0.000620318 0.00103549 -0.00036525 -0.000837539 0.00103277 -0.000519449)
(-0.00416837 0.000493111 -0.000124144 0.00186231 -0.000515783 0.00201396)
(-0.00283624 0.00141302 -0.000805225 0.00110161 -0.000179029 0.000822833)
(-0.000610993 0.00137232 -0.000956325 0.000273611 0.000129709 -5.66737e-05)
(0.000725736 0.000616232 -0.000509422 -0.000273981 0.000560427 -0.000923954)
(-0.00437269 0.00649253 -6.12468e-05 0.014874 9.84274e-05 -0.000523596)
(-0.00148358 0.00571444 -0.000323106 0.00362937 1.29689e-05 -0.000210946)
(0.000463401 0.00526312 -0.000378667 -0.00316938 -0.000337348 0.000236943)
(0.00301169 0.00520572 -0.000192206 -0.0134172 -0.000515225 0.000605077)
(-0.00787592 0.00221463 -9.91773e-05 0.0101659 -0.000974082 -0.000837502)
(-0.00322074 0.00594317 -0.000668833 0.00439989 -0.000428207 -0.000318279)
(0.000765608 0.00585071 -0.000803046 -0.00294922 1.39161e-05 0.000482048)
(0.00513694 0.00228319 -0.000401448 -0.00906745 0.000521679 0.00114617)
(-0.00671212 0.00218241 -6.12609e-05 0.00887324 -0.00127034 -0.000339019)
(-0.00334056 0.00483869 -0.000661754 0.00368483 -0.000503339 -8.05254e-05)
(0.000338023 0.00488223 -0.000819863 -0.00201186 0.000192801 0.000464359)
(0.00364753 0.0022493 -0.000408667 -0.00733726 0.000943908 0.000917323)
(-0.00586879 0.00170216 -2.52001e-05 0.00672955 -0.00133274 0.000243907)
(-0.00303683 0.00396492 -0.000587576 0.00293872 -0.000478934 0.000181166)
(-0.000110169 0.00403401 -0.000745852 -0.00127544 0.000316433 0.000392957)
(0.00255811 0.00182726 -0.000380374 -0.00510779 0.00117255 0.000547344)
(-0.00500203 0.00131389 5.02668e-06 0.00489667 -0.00124346 0.000790107)
(-0.00271195 0.00318063 -0.000510377 0.00223739 -0.000408754 0.000414027)
(-0.0004249 0.00328035 -0.000661369 -0.000677204 0.000385901 0.000295723)
(0.00159987 0.00150783 -0.000337121 -0.00325643 0.00125251 0.000140447)
(-0.00432534 0.00090497 6.99413e-06 0.00341538 -0.00107621 0.00124441)
(-0.00241823 0.00247975 -0.000474739 0.00163935 -0.000329664 0.00060298)
(-0.00063655 0.00263258 -0.000607083 -0.000228507 0.000393661 0.000196207)
(0.00089511 0.00122907 -0.000298417 -0.0017711 0.00121226 -0.000239145)
(-0.00389958 0.000455229 -4.15451e-05 0.00247157 -0.000850451 0.00160488)
(-0.00227898 0.00187123 -0.000522863 0.00118065 -0.000256885 0.000756592)
(-0.000774646 0.002051 -0.000634013 9.27952e-05 0.000321574 0.000110798)
(0.000484746 0.000968521 -0.000293241 -0.000710196 0.0010306 -0.000561072)
(-0.00416915 0.00040323 -0.000191109 0.00192285 -0.000438571 0.00186139)
(-0.00287448 0.00128807 -0.000730409 0.00113624 -0.00012425 0.000867676)
(-0.000790818 0.0012663 -0.000874024 0.000360523 0.000146571 4.63734e-05)
(0.000516612 0.000586037 -0.000466355 -0.000153333 0.000535591 -0.000787343)
(-0.00445525 0.00635944 -2.02148e-05 0.0146179 -0.000274644 -0.000211026)
(-0.00155778 0.00545998 -0.000164919 0.00361027 -0.000136093 -7.75938e-05)
(0.00045585 0.00496726 -0.000201262 -0.00303932 -0.00015438 0.000135347)
(0.00302659 0.00497396 -0.000109089 -0.0130196 -6.01877e-05 0.000300169)
(-0.00808153 0.00210451 -4.0255e-05 0.00990727 -0.000795286 -0.000278402)
(-0.00338966 0.00570544 -0.000378116 0.00437583 -0.000348702 -7.63701e-05)
(0.000748381 0.00560117 -0.000467116 -0.00276595 1.9105e-05 0.000293693)
(0.0052053 0.00216733 -0.000246556 -0.00869632 0.000462394 0.000572332)
(-0.00694637 0.00209128 -4.10934e-05 0.00879024 -0.00100819 7.56921e-05)
(-0.00352284 0.00464423 -0.000430303 0.00371891 -0.000401323 0.000107134)
(0.000310487 0.00468693 -0.000535054 -0.00186798 0.000164855 0.000311011)
(0.00374431 0.0021534 -0.000274544 -0.00707853 0.000777901 0.000438707)
(-0.00607181 0.00162365 -3.27932e-05 0.00674888 -0.00106915 0.000513033)
(-0.00320101 0.00379405 -0.000416765 0.00299894 -0.000385226 0.000316441)
(-0.000154509 0.00386717 -0.000519162 -0.00115577 0.000273468 0.000281583)
(0.00262248 0.00175535 -0.000265066 -0.0049325 0.000968821 0.000189606)
(-0.00516373 0.00124199 -2.12982e-05 0.0049702 -0.00101854 0.000947138)
(-0.0028549 0.00303404 -0.000383986 0.00230988 -0.000333075 0.000512583)
(-0.000484541 0.00314524 -0.000478814 -0.000577271 0.00033992 0.000226592)
(0.00162324 0.00145928 -0.000238499 -0.00313126 0.00105258 -0.000103633)
(-0.00444742 0.000837558 -2.60529e-05 0.00351206 -0.000898927 0.00132749)
(-0.00253993 0.00236116 -0.000375604 0.00171105 -0.000270508 0.000680746)
(-0.000710574 0.00253557 -0.00045638 -0.000142798 0.000352523 0.000167679)
(0.000874619 0.00120691 -0.000214654 -0.00167145 0.00103368 -0.000386326)
(-0.00398126 0.00039015 -7.05359e-05 0.00258083 -0.000720001 0.00163569)
(-0.00238431 0.00178673 -0.000441495 0.00124615 -0.000207406 0.000823096)
(-0.000872798 0.00199448 -0.000509317 0.000168054 0.000291917 0.000128919)
(0.000410599 0.00096952 -0.000223445 -0.000616586 0.000885548 -0.000613332)
(-0.00422387 0.000368715 -0.000215433 0.00203505 -0.000377795 0.00185028)
(-0.00299543 0.0012439 -0.000665876 0.00120912 -9.79121e-05 0.000937455)
(-0.000952279 0.00123344 -0.000761617 0.000425816 0.000134959 0.000139039)
(0.000372729 0.000588767 -0.000391713 -8.71081e-05 0.00046135 -0.000711611)
(-0.00448861 0.00620787 2.09698e-06 0.0143663 -0.000386616 -2.88084e-05)
(-0.00160165 0.00522753 -7.28304e-05 0.00358286 -0.000174846 -1.00331e-06)
(0.000438782 0.00470577 -9.5304e-05 -0.00292488 -5.52728e-05 7.24011e-05)
(0.0030063 0.00475312 -5.59488e-05 -0.0126427 0.000135634 0.000117651)
(-0.0081952 0.00201015 -2.23516e-06 0.00971197 -0.000625968 7.20281e-05)
(-0.00349629 0.00550092 -0.000192915 0.00435318 -0.000269525 7.01333e-05)
(0.000711404 0.00538921 -0.000248902 -0.00260646 2.48979e-05 0.000168405)
(0.0052043 0.00207432 -0.000137571 -0.00839834 0.000388061 0.000207229)
(-0.00711359 0.00202244 -1.66959e-05 0.00870938 -0.000761467 0.000374951)
(-0.00365101 0.00450315 -0.000258081 0.00374283 -0.000299365 0.000231123)
(0.000270287 0.00454774 -0.000323859 -0.00173119 0.000132544 0.000194622)
(0.00378931 0.00208792 -0.000167444 -0.00684481 0.000607125 9.80403e-05)
(-0.00624184 0.00157692 -2.33862e-05 0.0067551 -0.000804284 0.000734699)
(-0.00332768 0.00369801 -0.000275549 0.00305171 -0.000286498 0.000409786)
(-0.000197327 0.0037766 -0.000338128 -0.00103978 0.000216207 0.000186311)
(0.00266587 0.00171987 -0.000169464 -0.00476449 0.000747307 -9.09134e-05)
(-0.00531695 0.00120742 -2.48801e-05 0.00502742 -0.000774963 0.00109765)
(-0.0029712 0.00296967 -0.000272938 0.0023767 -0.000250319 0.000581955)
(-0.000532208 0.00309101 -0.000329021 -0.000480668 0.000269511 0.000158985)
(0.00165018 0.00144638 -0.000157588 -0.00300939 0.000815575 -0.000312208)
(-0.0045765 0.000808547 -3.57121e-05 0.00359087 -0.000695575 0.00142776)
(-0.00264296 0.00231951 -0.00028458 0.00177844 -0.000206482 0.000737511)
(-0.000765361 0.00250981 -0.000330579 -6.3224e-05 0.000280622 0.000131465)
(0.000875103 0.00121259 -0.000147684 -0.00157738 0.000806447 -0.000523975)
(-0.00408346 0.000362074 -7.719e-05 0.00266582 -0.000566461 0.00170325)
(-0.00247823 0.00176282 -0.000356297 0.00130697 -0.000159732 0.000876316)
(-0.000943756 0.00198845 -0.00039412 0.000233882 0.000232792 0.000129835)
(0.000375036 0.000987628 -0.000165713 -0.000534702 0.000693398 -0.000678742)
(-0.0043113 0.000356023 -0.000207077 0.00211647 -0.000298288 0.00188513)
(-0.00310484 0.00123487 -0.000565349 0.00127233 -7.40985e-05 0.000992076)
(-0.00106637 0.00122782 -0.00062338 0.00048414 0.00010709 0.000191181)
(0.000291765 0.000599319 -0.00031313 -2.66403e-05 0.000360148 -0.000688765)
(-0.00449486 0.00607782 1.06887e-05 0.0141594 -0.000350674 7.21261e-05)
(-0.00162583 0.00504606 -2.53655e-05 0.00356033 -0.000153527 3.9973e-05)
(0.000421519 0.00450522 -3.86966e-05 -0.00283269 -8.70199e-06 3.36066e-05)
(0.0029739 0.00457712 -2.56125e-05 -0.0123346 0.000178918 1.1654e-05)
(-0.00824725 0.00193558 1.50882e-05 0.00957902 -0.000453215 0.000275394)
(-0.00355843 0.0053381 -8.66425e-05 0.00433988 -0.000191651 0.000151085)
(0.000674739 0.00522231 -0.000120356 -0.0024825 2.46534e-05 8.71353e-05)
(0.00517222 0.00200403 -6.98511e-05 -0.0081775 0.000293629 -1.38743e-05)
(-0.00721583 0.00196829 -9.51838e-08 0.0086504 -0.000533486 0.000563983)
(-0.00373152 0.00439468 -0.000141862 0.00376221 -0.000206521 0.000303296)
(0.000233708 0.00444193 -0.000181368 -0.0016215 9.74505e-05 0.000112462)
(0.00380048 0.00203968 -9.35407e-05 -0.00666371 0.000435747 -0.000123359)
(-0.00635806 0.0015435 -1.11351e-05 0.00675747 -0.000559597 0.000887355)
(-0.00341195 0.00363239 -0.00016774 0.00309274 -0.000196478 0.000466146)
(-0.000231066 0.00371594 -0.000204404 -0.000945248 0.00015535 0.000113883)
(0.00268686 0.00169735 -9.98039e-05 -0.00462973 0.000529516 -0.000285304)
(-0.00543033 0.00118634 -1.79743e-05 0.00506612 -0.000542433 0.00121327)
(-0.0030514 0.00293414 -0.000178596 0.00242827 -0.000173029 0.000625582)
(-0.000565638 0.00306319 -0.000210477 -0.00040147 0.000192715 0.000103124)
(0.00166834 0.00144235 -9.67012e-05 -0.00290837 0.000577207 -0.000466883)
(-0.00467816 0.00079334 -3.03241e-05 0.00364389 -0.000492849 0.00151695)
(-0.00271582 0.00230304 -0.000198056 0.00182969 -0.000144993 0.000775593)
(-0.000801334 0.00250431 -0.000223218 1.30365e-06 0.000200196 9.69384e-05)
(0.000880223 0.001222 -9.52385e-05 -0.00149859 0.000571722 -0.000634619)
(-0.00416944 0.000347412 -6.44402e-05 0.00272033 -0.000406621 0.00177621)
(-0.00254612 0.00175732 -0.000261391 0.00135189 -0.00011364 0.00091461)
(-0.000989217 0.00199446 -0.000281524 0.000285969 0.000165584 0.00012089)
(0.000359012 0.00100411 -0.000114756 -0.000467427 0.000491976 -0.000742624)
(-0.00439019 0.000349479 -0.000165638 0.00216947 -0.000215666 0.00194146)
(-0.00318488 0.00123476 -0.000427758 0.00131893 -5.26433e-05 0.00103218)
(-0.00113831 0.00122882 -0.000461432 0.00053087 7.58439e-05 0.000212631)
(0.000248692 0.000607637 -0.00022813 2.4711e-05 0.000255421 -0.000701248)
(-0.00449103 0.00598632 9.82442e-06 0.0140152 -0.000235483 0.00012414)
(-0.00163828 0.00492423 -5.44732e-06 0.00354541 -0.000101452 6.03021e-05)
(0.00040838 0.00437182 -1.24911e-05 -0.00276837 6.09267e-06 1.10711e-05)
(0.00294527 0.00445749 -1.00449e-05 -0.0121198 0.000136166 -4.63589e-05)
(-0.00826698 0.0018845 1.55758e-05 0.00949697 -0.000274724 0.000383413)
(-0.00359201 0.00522572 -3.25817e-05 0.00433362 -0.000114702 0.000192089)
(0.000647157 0.00510787 -5.05918e-05 -0.0023982 1.78499e-05 3.82127e-05)
(0.00513752 0.00195701 -3.10332e-05 -0.00803128 0.000182892 -0.000138555)
(-0.00727184 0.00193036 5.11021e-06 0.00861362 -0.000316719 0.000669855)
(-0.00377756 0.0043192 -6.8037e-05 0.00377659 -0.000121148 0.000341115)
(0.000207251 0.0043687 -8.90958e-05 -0.00154614 5.97125e-05 6.03493e-05)
(0.00379745 0.00200692 -4.57326e-05 -0.0065418 0.000262624 -0.000254119)
(-0.00642762 0.00152041 -3.75174e-06 0.00675899 -0.000330463 0.000977854)
(-0.00346209 0.00358787 -8.83773e-05 0.00312069 -0.000114711 0.000496647)
(-0.000253809 0.00367498 -0.000107568 -0.00087995 9.34437e-05 6.60103e-05)
(0.00269456 0.00168233 -5.1307e-05 -0.00453775 0.000316159 -0.000404883)
(-0.00550209 0.00117258 -1.01235e-05 0.0050896 -0.000321365 0.00128711)
(-0.00310032 0.00291191 -9.99352e-05 0.00246252 -0.000101583 0.000650396)
(-0.000586585 0.00304602 -0.000116251 -0.000346616 0.000115233 6.44828e-05)
(0.00167817 0.00144003 -5.16859e-05 -0.00283804 0.000343813 -0.00056642)
(-0.00474521 0.000784214 -1.95413e-05 0.00367504 -0.000294266 0.0015793)
(-0.002761 0.00229458 -0.000116313 0.00186295 -8.61482e-05 0.000798829)
(-0.000822685 0.00250268 -0.000128799 4.5816e-05 0.000119265 7.1157e-05)
(0.000884748 0.00122851 -5.32187e-05 -0.00144303 0.000340424 -0.000709941)
(-0.00422848 0.00033898 -4.21027e-05 0.00275082 -0.000244922 0.00183201)
(-0.00258874 0.00175591 -0.000159345 0.0013803 -6.82379e-05 0.000939328)
(-0.00101545 0.00199984 -0.000169099 0.000321583 9.83062e-05 0.000110488)
(0.000352709 0.0010147 -6.77353e-05 -0.000419999 0.000292795 -0.000791427)
(-0.00444645 0.000346175 -0.000106226 0.00219882 -0.000130903 0.00198919)
(-0.00323561 0.00123629 -0.000265498 0.00134829 -3.16298e-05 0.0010581)
(-0.00117949 0.00123025 -0.000283063 0.000563392 4.49592e-05 0.000218551)
(0.000227909 0.00061259 -0.000138954 6.23952e-05 0.000151912 -0.000722708)
(-0.00448687 0.00593957 3.79101e-06 0.0139417 -8.22286e-05 0.000145924)
(-0.0016435 0.00486346 -2.83886e-07 0.00353809 -3.51771e-05 6.85491e-05)
(0.000401399 0.00430558 -2.48045e-06 -0.0027354 3.82422e-06 6.87497e-07)
(0.00292908 0.00439738 -2.50527e-06 -0.0120101 4.98225e-05 -7.19757e-05)
(-0.00827246 0.00185864 6.19797e-06 0.00945779 -9.20553e-05 0.000429469)
(-0.0036066 0.00516858 -7.76138e-06 0.00433134 -3.81916e-05 0.000208914)
(0.000632587 0.00504988 -1.34116e-05 -0.00235561 6.48353e-06 1.51881e-05)
(0.00511653 0.00193348 -8.59432e-06 -0.00795836 6.20833e-05 -0.000194631)
(-0.00729597 0.00191081 2.52231e-06 0.00859613 -0.000105096 0.000716401)
(-0.00379834 0.00428033 -1.98693e-05 0.0037843 -3.99508e-05 0.000356938)
(0.000193536 0.00433105 -2.6468e-05 -0.00150794 2.01216e-05 3.51157e-05)
(0.00379292 0.00199023 -1.35425e-05 -0.00648063 8.7766e-05 -0.000314509)
(-0.00645953 0.00150843 -7.82711e-07 0.00675985 -0.000109372 0.00101902)
(-0.00348528 0.00356488 -2.73975e-05 0.00313484 -3.77388e-05 0.000509707)
(-0.000265202 0.00365381 -3.33515e-05 -0.000846831 3.11777e-05 4.23529e-05)
(0.00269644 0.00167454 -1.56953e-05 -0.00449141 0.000105155 -0.000461352)
(-0.00553619 0.00116551 -3.2765e-06 0.00510064 -0.000106526 0.00132228)
(-0.00312328 0.00290055 -3.2079e-05 0.00247948 -3.35191e-05 0.000661464)
(-0.000596661 0.00303713 -3.70792e-05 -0.000318788 3.83091e-05 4.49588e-05)
(0.00168221 0.00143864 -1.62004e-05 -0.00280229 0.000114177 -0.000614622)
(-0.0047778 0.000779615 -6.77094e-06 0.00368921 -9.79226e-05 0.00161061)
(-0.0027824 0.00229043 -3.83419e-05 0.00187914 -2.86105e-05 0.000809756)
(-0.000832588 0.00250174 -4.20978e-05 6.83563e-05 3.9555e-05 5.76244e-05)
(0.000887144 0.00123149 -1.71224e-05 -0.00141458 0.000112986 -0.000747639)
(-0.00425765 0.0003349 -1.46965e-05 0.00276396 -8.19168e-05 0.00186136)
(-0.00260904 0.00175535 -5.35531e-05 0.00139386 -2.27996e-05 0.000951358)
(-0.00102736 0.00200231 -5.64398e-05 0.000339584 3.25402e-05 0.000104064)
(0.000350664 0.00101952 -2.24497e-05 -0.000395659 9.71182e-05 -0.000817433)
(-0.0044745 0.000344926 -3.66815e-05 0.00221116 -4.4185e-05 0.00201559)
(-0.00325982 0.00123745 -8.99516e-05 0.00136232 -1.06075e-05 0.00107071)
(-0.00119822 0.00123083 -9.54082e-05 0.000580093 1.49039e-05 0.00021906)
(0.000219546 0.000614599 -4.67607e-05 8.21971e-05 5.03656e-05 -0.000737171)
)
;

boundaryField
{
    interface
    {
        type            calculated;
        value           nonuniform List<symmTensor> 
192
(
(-0.0154866 -6.77089e-06 0.000314997 0.0234603 0.00235902 -0.001806)
(-0.00723646 -1.16036e-06 0.00053989 0.0117053 -0.00194719 -0.00241153)
(-0.0080357 -1.07097e-05 0.000634856 0.0113569 -0.00125908 -0.000858389)
(-0.00659287 -3.74314e-05 0.000673845 0.00836977 -0.00139292 -2.44886e-05)
(-0.00563777 -8.47268e-05 0.000683725 0.0061175 -0.00120157 0.00079666)
(-0.00478845 -0.00016015 0.000670878 0.00424791 -0.00101887 0.00138467)
(-0.00440163 -0.000292342 0.000631017 0.00319572 -0.000846634 0.0018423)
(-0.00406478 -0.000501462 0.000542353 0.00233666 -0.000482455 0.00224591)
(-0.0157668 1.31817e-05 0.000211883 0.0230626 0.000943603 -0.00114826)
(-0.00842369 2.31887e-05 0.000370026 0.0126431 -0.00160372 -0.00174551)
(-0.00826248 1.08381e-05 0.000435914 0.0113054 -0.00197635 -0.000677855)
(-0.00698626 -2.77543e-05 0.000460846 0.00838101 -0.00202035 0.000317857)
(-0.00597924 -9.13485e-05 0.000463237 0.00600978 -0.00184183 0.00117383)
(-0.00516188 -0.000189163 0.000447608 0.0041268 -0.00157672 0.00183632)
(-0.00475375 -0.000355219 0.000411697 0.00304619 -0.00124851 0.00233553)
(-0.00434822 -0.000593703 0.000346489 0.00220715 -0.000702796 0.0027405)
(-0.0159528 1.61085e-05 0.000142334 0.0227237 2.52035e-05 -0.000621147)
(-0.0087218 2.67701e-05 0.000251044 0.0122429 -0.00129016 -0.000979426)
(-0.00848257 1.34197e-05 0.000292742 0.01123 -0.00168857 -0.000354685)
(-0.00710771 -3.02617e-05 0.00030539 0.00841759 -0.00179021 0.000380428)
(-0.00601699 -0.000102868 0.000303249 0.00608686 -0.00168646 0.0010746)
(-0.00514871 -0.000213986 0.000289776 0.00422473 -0.00147294 0.00165261)
(-0.00471025 -0.000397993 0.000264834 0.0031734 -0.00117066 0.0021052)
(-0.00419113 -0.000644389 0.000225013 0.00231169 -0.00062098 0.00242048)
(-0.0159648 1.46253e-05 9.85775e-05 0.0223044 -0.000413954 -0.000243385)
(-0.00894442 2.41749e-05 0.00017629 0.0118544 -0.00105443 -0.000308607)
(-0.00874057 9.61655e-06 0.000204862 0.0110846 -0.0013336 0.000129971)
(-0.00733758 -3.69886e-05 0.000211854 0.00842347 -0.00142608 0.000675106)
(-0.00619725 -0.000115024 0.000208629 0.00617115 -0.00137221 0.00122184)
(-0.00528339 -0.000234194 0.000198231 0.00434749 -0.00122431 0.00170281)
(-0.00480767 -0.000428514 0.000181513 0.0033239 -0.00099343 0.00208944)
(-0.00422596 -0.00067716 0.000156025 0.00245516 -0.00054139 0.00235131)
(-0.0158664 1.26753e-05 6.79552e-05 0.0218967 -0.000534616 -2.29393e-05)
(-0.00906666 2.0555e-05 0.000123232 0.0115781 -0.000833806 0.000115729)
(-0.00891724 4.52617e-06 0.000143344 0.0109559 -0.00100983 0.000491899)
(-0.00752602 -4.41125e-05 0.000147627 0.00841371 -0.0010731 0.000939331)
(-0.0063679 -0.000125566 0.00014474 0.00623131 -0.00104331 0.00139392)
(-0.00542686 -0.000249726 0.000137284 0.00444012 -0.000946957 0.00180864)
(-0.00492502 -0.00045054 0.000126273 0.00343136 -0.000783729 0.00215278)
(-0.00429294 -0.000700035 0.000109444 0.00255131 -0.000431231 0.00237262)
(-0.0157407 1.11258e-05 4.46094e-05 0.0215596 -0.000473641 9.94241e-05)
(-0.00912529 1.74658e-05 8.18034e-05 0.0113943 -0.000606089 0.000363591)
(-0.00902545 6.77709e-08 9.53907e-05 0.0108643 -0.000710369 0.000724555)
(-0.00765771 -5.00412e-05 9.81077e-05 0.00840378 -0.00074869 0.00112825)
(-0.00649857 -0.00013368 9.60082e-05 0.00626961 -0.000731485 0.0015363)
(-0.00554553 -0.000260959 9.10575e-05 0.0044993 -0.000671875 0.00191685)
(-0.00502903 -0.000465962 8.40578e-05 0.00349667 -0.000564158 0.00224036)
(-0.00436922 -0.000715832 7.31766e-05 0.00261067 -0.000313596 0.00243942)
(-0.015636 1.01685e-05 2.51855e-05 0.0213234 -0.000315036 0.000162391)
(-0.00914807 1.53847e-05 4.6564e-05 0.0112818 -0.000368267 0.000495272)
(-0.00908366 -3.05816e-06 5.44027e-05 0.0108072 -0.000423079 0.00085543)
(-0.00773683 -5.41541e-05 5.59285e-05 0.00839738 -0.000443306 0.00124162)
(-0.00658202 -0.000139129 5.46929e-05 0.00629193 -0.000434199 0.00162952)
(-0.00562484 -0.000268313 5.18722e-05 0.00453273 -0.000401745 0.00199568)
(-0.00510093 -0.000475899 4.77673e-05 0.00353161 -0.000340511 0.00231114)
(-0.00442601 -0.000725625 4.12917e-05 0.00264189 -0.000191088 0.00250041)
(-0.0155777 9.60965e-06 8.05643e-06 0.0212026 -0.000109596 0.000188697)
(-0.00915408 1.42236e-05 1.4969e-05 0.0112281 -0.000123529 0.000551312)
(-0.0091077 -4.72728e-06 1.74977e-05 0.01078 -0.000140618 0.000912961)
(-0.00777256 -5.62554e-05 1.79802e-05 0.00839439 -0.000146938 0.00129337)
(-0.00662127 -0.000141853 1.75766e-05 0.00630217 -0.000144091 0.00167429)
(-0.00566319 -0.000272148 1.66613e-05 0.00454753 -0.000133799 0.00203583)
(-0.00513568 -0.000481171 1.52213e-05 0.00354607 -0.000114013 0.00234908)
(-0.00445369 -0.000729538 1.29291e-05 0.00265425 -6.46304e-05 0.00253495)
(-0.00432441 0.0062405 -0.000405951 0.0154912 -0.000101069 -0.00793233)
(-0.00788022 0.00296983 -0.000715942 0.0084707 -0.000145165 -0.000713409)
(-0.00703009 0.00347907 -0.000855298 0.00892711 -0.000141276 -0.00144868)
(-0.00641158 0.00292965 -0.000923228 0.00671706 -0.000120503 -0.000303584)
(-0.00558049 0.00248047 -0.000960103 0.0050695 -0.000110822 0.000279509)
(-0.00492298 0.00189898 -0.000986053 0.00361606 -0.000123024 0.000814025)
(-0.00450776 0.00127061 -0.00102562 0.00274592 -0.000160842 0.00109283)
(-0.00477916 0.000825965 -0.00114205 0.00214122 -0.000210997 0.00162691)
(-0.00168974 0.0053971 -0.000257882 0.00351965 -8.27008e-05 -0.00166798)
(-0.00376729 0.00699608 -0.000489192 0.00340606 -0.000138707 -0.000137618)
(-0.00414933 0.00685388 -0.000577652 0.00361003 -0.000146639 6.27311e-05)
(-0.00398058 0.00608133 -0.000608866 0.00291478 -0.000117846 0.000469785)
(-0.0036737 0.00515516 -0.000620859 0.00229358 -8.51335e-05 0.000706391)
(-0.00336011 0.00413771 -0.000633859 0.00170267 -6.53144e-05 0.00089477)
(-0.00317096 0.00312024 -0.00067469 0.00129901 -6.48177e-05 0.00102413)
(-0.00366864 0.00192003 -0.000830002 0.00122308 -7.33284e-05 0.00139069)
(0.000591228 0.00487451 -0.000196805 -0.00402377 -5.88865e-05 0.00185903)
(0.00102182 0.00678461 -0.000411071 -0.00241026 -0.000117455 0.000518977)
(0.000599061 0.00684937 -0.000498413 -0.00208021 -0.000136605 0.000633019)
(0.000155464 0.00614492 -0.000525078 -0.00136188 -0.00011295 0.000489982)
(-0.000170658 0.00526612 -0.000530113 -0.000865583 -7.61922e-05 0.000396203)
(-0.000361316 0.00430943 -0.00053732 -0.000501485 -4.50291e-05 0.000282934)
(-0.000455154 0.00330149 -0.000575486 -0.000261587 -2.68656e-05 0.000174591)
(-0.000348095 0.00190761 -0.000731737 5.25179e-05 -1.94744e-05 -0.000120447)
(0.00306185 0.00491615 -0.000182249 -0.0150403 -5.55748e-05 0.00758591)
(0.00522995 0.00285257 -0.000413064 -0.00769141 -0.000117624 0.00124554)
(0.00389164 0.00351727 -0.000515922 -0.00753378 -0.000139272 0.00207809)
(0.0029773 0.00306698 -0.00054947 -0.00525079 -0.000116573 0.00120019)
(0.00205407 0.00268079 -0.000555373 -0.00361035 -7.84432e-05 0.000738635)
(0.00140475 0.002209 -0.000561337 -0.00225368 -4.30724e-05 0.00027012)
(0.00105406 0.00169123 -0.000597421 -0.00138378 -1.2557e-05 -8.11287e-05)
(0.00118353 0.000932468 -0.000746371 -0.000732183 2.03093e-05 -0.000613143)
(0.0128134 5.72202e-05 1.09772e-05 -0.0216381 -0.00298206 0.00192707)
(0.00520446 0.000109112 5.14638e-05 -0.0111751 0.00128956 0.00295674)
(0.00531341 0.000120497 5.65329e-05 -0.0101441 0.00086021 0.00184068)
(0.00364994 9.60536e-05 4.95325e-05 -0.00701765 0.00113263 0.00124502)
(0.00254775 6.60317e-05 5.05398e-05 -0.00467753 0.00109758 0.000567137)
(0.00164939 4.62253e-05 6.98294e-05 -0.00276121 0.00104178 8.7628e-06)
(0.00116881 2.23736e-05 0.000114838 -0.00148332 0.000903548 -0.000492084)
(0.00112007 -0.000124371 0.000187976 -0.000708293 0.000425184 -0.000978391)
(0.0125736 2.27324e-05 -5.19923e-05 -0.0207861 -0.00156545 0.00132025)
(0.00603166 5.52753e-05 -5.99161e-05 -0.0120168 0.00092968 0.00236056)
(0.0051566 6.87036e-05 -6.79381e-05 -0.0100574 0.00151545 0.00172958)
(0.0035925 6.27124e-05 -7.5401e-05 -0.00698205 0.00178405 0.00100348)
(0.00241874 5.68383e-05 -7.12974e-05 -0.00451123 0.00182323 0.000289482)
(0.00152283 6.40805e-05 -5.06428e-05 -0.00252637 0.00173075 -0.000340757)
(0.00100155 7.26435e-05 -1.22169e-05 -0.00114104 0.00147872 -0.000876642)
(0.0010205 -5.16668e-05 4.47281e-05 -0.000409334 0.000832187 -0.00137651)
(0.0125683 6.93962e-06 -5.45472e-05 -0.0202777 -0.000501668 0.000740424)
(0.00628594 2.65718e-05 -6.32373e-05 -0.0115235 0.000817074 0.00138728)
(0.00534416 4.04253e-05 -6.20515e-05 -0.00979707 0.00134765 0.00106821)
(0.00369575 4.78698e-05 -5.98136e-05 -0.00682857 0.00162965 0.000563689)
(0.0024352 6.07694e-05 -5.01312e-05 -0.00439016 0.00171621 1.18403e-05)
(0.00147277 8.77224e-05 -2.98519e-05 -0.00241259 0.0016574 -0.000500994)
(0.000890286 0.000112832 -9.31949e-07 -0.0010147 0.00143463 -0.000935151)
(0.000781122 8.42753e-06 3.20965e-05 -0.000289146 0.000785785 -0.00123437)
(0.0123951 5.82582e-07 -4.35606e-05 -0.0196885 5.134e-05 0.000353126)
(0.0064292 1.36998e-05 -4.83024e-05 -0.011067 0.000725229 0.000652742)
(0.00549767 2.7972e-05 -4.15008e-05 -0.00947863 0.00110619 0.00044824)
(0.00382352 4.43847e-05 -3.40535e-05 -0.0066297 0.00133248 9.79521e-05)
(0.00251175 7.05145e-05 -2.27267e-05 -0.00425748 0.00142406 -0.000307738)
(0.0014959 0.000110918 -5.88232e-06 -0.00231193 0.00139488 -0.000698695)
(0.000847844 0.000146662 1.4e-05 -0.000915058 0.00121911 -0.00102023)
(0.000670541 5.29296e-05 3.46745e-05 -0.000222471 0.000671233 -0.00117561)
(0.0121443 -1.523e-06 -3.08747e-05 -0.0191238 0.000270601 0.000123173)
(0.00647904 9.22179e-06 -3.22354e-05 -0.0107209 0.00060532 0.000189595)
(0.00557612 2.46028e-05 -2.37858e-05 -0.0092039 0.000863497 1.1077e-05)
(0.00391052 4.69859e-05 -1.5073e-05 -0.0064423 0.00102467 -0.000264949)
(0.00257915 8.14974e-05 -4.78352e-06 -0.0041276 0.00109812 -0.000579856)
(0.0015302 0.000130001 7.61989e-06 -0.00221318 0.00108291 -0.000882729)
(0.000835406 0.000171733 2.01081e-05 -0.000823873 0.000951019 -0.00111823)
(0.000612082 8.37108e-05 3.188e-05 -0.000158433 0.000523327 -0.00117335)
(0.0119049 -1.80909e-06 -1.97383e-05 -0.0186606 0.000295808 -8.78515e-06)
(0.00647902 8.63099e-06 -1.92362e-05 -0.0104716 0.000454919 -8.70423e-05)
(0.00560555 2.53522e-05 -1.17538e-05 -0.00899596 0.000620121 -0.000268461)