/*--------------------------------*- C++ -*----------------------------------*\
| =========                 |                                                 |
| \\      /  F ield         | foam-extend: Open Source CFD                    |
|  \\    /   O peration     | Version:     3.1                                |
|   \\  /    A nd           | Web:         http://www.extend-project.de       |
|    \\/     M anipulation  |                                                 |
\*---------------------------------------------------------------------------*/
FoamFile
{
    version     2.0;
    format      ascii;
    class       volScalarField;
    location    "1.9";
    object      sigmaEq;
}
// * * * * * * * * * * * * * * * * * * * * * * * * * * * * * * * * * * * * * //

dimensions      [1 -1 -2 0 0 0 0];

internalField   nonuniform List<scalar> 
256
(
154.811
79.0774
73.3418
139.462
114.315
96.018
86.82
96.6788
104.593
89.1293
79.6574
83.3193
85.3292
78.0373
69.3269
62.4069
68.7517
65.9522
58.316
45.5413
55.3123
54.093
47.5528
32.3296
47.1648
44.0591
36.9838
23.1455
46.8517
38.9514
23.6635
16.752
151.411
80.5103
73.9707
132.411
117.552
91.4098
82.3321
99.0824
101.801
78.0555
68.8572
80.0025
82.2042
65.89
57.445
58.843
65.2697
54.2049
47.0655
41.7491
52.2986
43.84
38.0979
29.1463
44.522
35.7911
30.1641
20.9221
44.5387
33.8949
21.4801
15.8624
149.432
78.0937
70.0942
127.449
116.42
88.1313
77.4117
95.2824
101.854
74.7081
63.6762
77.0902
82.4051
62.1548
51.994
56.2294
65.4716
50.7234
42.1403
39.4439
52.3717
40.8971
34.1681
27.2729
44.3879
33.6582
27.5759
19.6012
43.9829
33.2776
20.4906
13.9586
146.803
75.194
66.0135
122.772
115.021
85.7147
73.448
91.8154
101.675
73.2195
60.436
74.3125
82.8846
61.0932
49.2429
53.8737
66.1836
50.0071
39.9567
37.2935
53.1019
40.4821
32.6391
25.33
45.0504
33.59
26.7374
18.0335
44.6226
33.9647
20.1337
12.4282
144.167
72.5735
62.5501
118.639
113.899
83.7419
70.2836
89.0558
101.51
72.2593
58.1489
72.042
83.3976
60.7447
47.6228
51.982
66.9965
50.0466
38.8945
35.5458
53.991
40.7464
32.0468
23.6562
45.935
34.0041
26.5013
16.6452
45.5458
34.6715
19.8958
11.3197
141.932
70.5275
59.9208
115.335
113.015
82.2092
67.8839
86.9551
101.344
71.5456
56.4923
70.3173
83.7796
60.5704
46.5645
50.5754
67.6442
50.2095
38.3047
34.2573
54.7254
41.0786
31.7954
22.4036
46.6894
34.3967
26.4349
15.6109
46.3866
35.1427
19.6165
10.5929
140.343
69.1516
58.1722
113.051
112.396
81.162
66.2672
85.5259
101.202
71.049
55.388
69.1499
84.012
60.4518
45.8881
49.6391
68.0647
50.329
37.9583
33.4122
55.2139
41.312
31.6708
21.5868
47.2035
34.6537
26.4023
14.9521
46.9776
35.4028
19.3551
10.1687
139.524
68.4643
57.3021
111.888
112.074
80.6317
65.4537
84.8002
101.119
70.7917
54.8318
68.5586
84.1164
60.3858
45.5516
49.1693
68.2648
50.3844
37.7908
32.9927
55.4497
41.4246
31.6133
21.1849
47.4542
34.7745
26.3827
14.6346
47.2702
35.5136
19.1975
9.9748
)
;

boundaryField
{
    interface
    {
        type            calculated;
        value           nonuniform List<scalar> 
192
(
246.216
124.32
122.551
94.7421
74.8144
59.1272
51.9371
46.6975
242.92
134.743
124.602
98.4947
78.243
63.2524
55.9539
50.3321
240.961
132.159
124.384
98.6513
78.1803
62.7863
55.1753
48.2132
238.04
129.95
123.991
99.1199
78.9203
63.5099
55.8874
48.5937
234.699
128.39
123.636
99.5724
79.7217
64.3853
56.8201
49.3409
231.682
127.277
123.363
99.9405
80.3948
65.1571
57.6682
50.2043
229.461
126.526
123.156
100.171
80.8392
65.6797
58.2521
50.8447
228.294
126.139
123.037
100.272
81.048
65.9305
58.5313
51.1594
174.163
108.231
109.565
89.7356
73.7527
60.0257
51.2269
50.855
76.4756
97.4694
97.7447
87.1214
74.7654
61.7658
50.2104
43.9847
71.4877
87.1743
87.135
77.2841
65.9525
53.9798
41.6542
25.4003
160.144
89.3051
87.7958
66.0098
49.9329
36.4989
26.8369
19.8682
220.974
111.015
100.911
70.6421
48.1557
30.4606
20.048
15.3271
210.861
118.575
100.506
71.6866
49.384
32.9885
23.3324
18.1467
205.911
114.274
98.0062
69.837
47.7945
31.6144
22.2422
15.8215
200.513
110.657
95.2555
67.5902
45.6174
29.306
19.9848
14.1436
195.165
107.931
92.969
65.6773
43.6888
27.0784
17.6867
12.8798
190.635
105.888
91.2204
64.2366
42.2296
25.3385
15.857
12.1845
187.409
104.494
90.0251
63.2701
41.2608
24.1754
14.6317
11.8683
185.743
103.783
89.415
62.7818
40.7763
23.5951
14.0254
11.7597
51.0257
48.239
47.9375
48.5009
49.4188
50.2564
50.854
51.142
40.0854
36.0696
36.4868
37.6955
38.6202
39.1537
39.4193
39.5271
14.7154
16.0149
16.0025
15.7923
15.2493
14.4507
13.6855
13.2242
18.1803
16.6163
13.737
11.5447
10.0189
8.96853
8.30018
7.96792
)
;
    }
    symmetry
    {
        type            symmetryPlane;
    }
    bottom
    {
        type            calculated;
        value           nonuniform List<scalar> 
32
(
142.831
123.103
118.583
116.299
114.223
112.389
111.038
110.325
57.6319
55.1594
51.1165
47.6136
44.8635
42.8573
41.5554
40.9159
53.325
50.3978
45.2379
40.7928
37.4568
35.1169
33.6332
32.9128
130.407
105.877
97.1268
92.2641
88.668
85.8926
83.9664
82.9775
)
;
    }
}


// ************************************************************************* //
