/*--------------------------------*- C++ -*----------------------------------*\
| =========                 |                                                 |
| \\      /  F ield         | foam-extend: Open Source CFD                    |
|  \\    /   O peration     | Version:     3.1                                |
|   \\  /    A nd           | Web:         http://www.extend-project.de       |
|    \\/     M anipulation  |                                                 |
\*---------------------------------------------------------------------------*/
FoamFile
{
    version     2.0;
    format      ascii;
    class       volSymmTensorField;
    location    "1.9";
    object      sigma;
}
// * * * * * * * * * * * * * * * * * * * * * * * * * * * * * * * * * * * * * //

dimensions      [1 -1 -2 0 0 0 0];

internalField   nonuniform List<symmTensor> 
256
(
(106.839 45.4539 -1.80291 246.292 14.6972 126.315)
(9.71766 40.6253 -5.42736 45.8263 5.96834 16.4194)
(-33.2344 37.3558 -5.48808 -63.434 -7.46783 -32.4917)
(-120.7 36.8057 -2.38086 -245.489 -17.8139 -130.774)
(-57.0019 19.2659 -2.27247 65.0088 -10.4879 -17.0679)
(-27.6444 47.8656 -8.98321 23.9691 -4.18113 -9.15996)
(-7.08619 46.7903 -9.28056 -33.1596 1.37985 -6.13171)
(19.5198 19.155 -3.70773 -78.2348 6.63279 0.739945)
(-26.896 21.2961 -1.28554 84.3046 -6.29732 15.2487)
(-29.9371 43.8698 -6.9792 21.7691 -2.37676 -5.53947)
(-9.85434 44.0031 -7.32599 -28.184 0.126317 -7.90828)
(-7.17474 21.7893 -2.93826 -87.4498 3.77391 -22.4911)
(-34.6872 17.6097 -1.46777 56.1676 -6.932 7.70585)
(-31.3801 38.2936 -6.45483 13.9597 -2.35804 -6.03411)
(-9.8096 38.7621 -6.68433 -20.0062 0.752283 -5.68912)
(-0.765261 18.6012 -3.14902 -58.1351 5.19749 -12.7966)
(-32.7822 14.6458 -1.3638 39.7684 -5.90721 8.52705)
(-30.4031 32.0663 -5.87705 8.15026 -1.85747 -5.1084)
(-10.562 32.7786 -6.03915 -14.6811 0.911429 -5.35403)
(-2.47998 15.9772 -2.99588 -40.8922 5.07237 -11.8139)
(-33.2574 11.0315 -1.53592 24.267 -5.01746 6.90516)
(-29.7618 25.6012 -5.66586 2.56112 -1.54452 -5.07059)
(-10.702 26.6529 -5.68178 -10.6394 0.961314 -5.14709)
(-2.15527 13.0378 -2.92988 -25.9025 4.84738 -10.0217)
(-32.3721 7.10811 -2.07182 15.8706 -4.37434 7.78495)
(-30.1169 19.3006 -5.85422 -1.87643 -1.58435 -5.26439)
(-10.7677 20.4096 -5.65133 -8.04807 0.755322 -5.52545)
(-1.5915 9.95041 -2.97946 -16.0888 4.21583 -9.89052)
(-41.7016 4.93905 -2.85996 4.60143 -2.57704 3.11685)
(-40.2478 12.2219 -6.30819 -8.62776 -1.0364 -10.4158)
(-6.836 11.9956 -6.15971 -2.74839 0.186588 -3.44483)
(4.03874 5.62868 -3.56805 -7.10226 1.88793 -8.13529)
(110.721 46.5493 -0.758452 248.383 6.30305 133.825)
(15.5897 42.2126 -4.02994 51.207 2.4895 22.5622)
(-32.061 39.2849 -4.50684 -58.9939 -4.63663 -32.4012)
(-118.378 38.2425 -2.0785 -237.816 -9.7836 -131.774)
(-35.4219 16.7786 -0.897017 92.6877 -8.51376 7.53594)
(-11.861 44.5565 -7.64213 41.0215 -3.5587 5.13058)
(-17.7921 43.9312 -8.80053 -45.217 0.238312 -17.644)
(-0.450958 17.3483 -3.92568 -103.304 4.33054 -22.2489)
(-21.2071 16.8536 -0.120715 88.3305 -10.3855 19.8211)
(-20.7629 37.0833 -6.64626 27.8741 -3.95253 -0.132464)
(-13.7976 37.3951 -8.00668 -31.228 1.41349 -11.5606)
(-11.3049 17.47 -3.64957 -90.2445 7.45063 -26.1841)
(-25.3823 13.4069 0.294161 63.1568 -10.4832 15.8935)
(-21.217 31.1373 -5.5871 20.4074 -3.63514 0.00475148)
(-13.8581 31.6225 -6.95205 -23.0781 2.16732 -9.68584)
(-7.78096 14.3517 -3.4124 -63.3158 8.90571 -19.4663)
(-24.8195 10.6566 0.640597 44.6359 -9.48972 15.3863)
(-21.0187 25.3844 -4.79092 13.502 -3.06028 0.030089)
(-13.5232 26.0371 -6.11245 -16.3487 2.54773 -8.31591)
(-8.04863 11.9254 -3.04088 -43.7617 9.20711 -17.0892)
(-24.999 7.65174 0.647831 29.3084 -8.09621 14.3867)
(-20.6729 19.9932 -4.40918 7.71299 -2.51083 -0.0611321)
(-13.1883 20.9348 -5.56998 -11.4688 2.52529 -7.61304)
(-7.60476 9.61921 -2.73662 -28.052 8.75172 -15.3571)
(-24.5899 4.36074 0.19804 20.1914 -6.49347 14.9623)
(-22.0703 15.0714 -4.62287 2.26318 -2.13765 -1.09196)
(-12.809 16.1148 -5.5484 -8.02108 1.99314 -7.35746)
(-6.093 7.39635 -2.60893 -16.5063 7.37695 -14.2342)
(-33.9469 3.52222 -0.886744 9.1294 -3.68416 10.2126)
(-33.2845 10.093 -5.75161 -5.15705 -1.27878 -7.14829)
(-9.9936 9.80227 -6.8309 -3.675 0.92649 -6.03418)
(-1.56187 4.40166 -3.63873 -8.70271 4.00305 -13.3454)
(111.305 46.3752 -0.437477 248.781 0.703053 138.799)
(17.0437 40.8174 -2.3079 53.5648 0.0926347 26.134)
(-31.9619 37.5937 -2.70477 -57.9104 -2.40963 -33.5795)
(-118.495 37.1837 -1.3729 -235.844 -3.68018 -135.685)
(-35.5066 15.8188 -0.70841 93.3637 -6.95773 14.7678)
(-10.707 42.4512 -4.77738 43.7261 -3.05862 10.0248)
(-18.8394 41.7908 -5.73604 -45.3738 0.0994007 -20.8648)
(-3.08384 16.3085 -2.86749 -104.544 3.72628 -31.5893)
(-21.9136 15.5887 -0.437578 89.4103 -9.07387 23.6085)
(-20.0933 34.5621 -4.72681 30.088 -3.59528 3.19262)
(-14.8638 34.873 -5.85617 -31.6486 1.37715 -13.9614)
(-13.552 16.0665 -2.91905 -92.0148 6.7422 -33.0535)
(-26.1391 12.1583 -0.180001 63.8491 -9.51954 17.5231)
(-20.5051 28.3209 -4.19697 22.1773 -3.42095 2.48054)
(-14.9677 28.8144 -5.32752 -23.2911 2.26024 -11.374)
(-10.3326 13.0519 -2.71696 -65.0891 8.37533 -24.6952)
(-25.9468 9.38495 0.0359048 44.7582 -8.88185 15.4256)
(-20.2358 22.7188 -3.64555 15.1166 -2.91967 2.09262)
(-14.5547 23.4311 -4.72407 -16.3569 2.75643 -9.40741)
(-10.2312 10.7702 -2.40801 -44.9191 8.94648 -20.6556)
(-26.1175 6.46407 0.049958 29.1734 -7.68721 13.6665)
(-19.7859 17.7125 -3.39099 9.19675 -2.35474 1.79414)
(-14.1018 18.8041 -4.3363 -11.1872 2.81186 -8.15352)
(-9.53681 8.77908 -2.13155 -28.5812 8.65897 -17.6386)
(-25.3274 3.25164 -0.296751 20.1809 -6.07465 13.9902)
(-21.1604 13.3659 -3.73474 3.55116 -1.8349 0.522204)
(-13.6911 14.65 -4.52866 -7.49508 2.29696 -7.36649)
(-7.77356 6.91801 -2.09458 -16.3089 7.36145 -15.2437)
(-35.2785 2.88021 -1.36506 8.23576 -3.13265 7.79675)
(-32.9688 9.20049 -5.21721 -4.32072 -0.887497 -6.23903)
(-11.1333 9.04498 -6.24303 -2.90943 1.04694 -5.15335)
(-2.36799 4.18598 -3.33111 -7.15331 3.82565 -11.682)
(110.342 45.4246 -0.144392 246.579 -1.96174 140.658)
(17.0859 38.9998 -1.17799 54.0006 -0.972095 27.6587)
(-31.7171 35.4804 -1.43758 -56.6826 -1.10271 -34.0064)
(-116.85 35.5283 -0.779209 -231.465 -0.429912 -136.325)
(-35.6205 15.0322 -0.287536 92.871 -5.68061 20.1162)
(-11.2146 40.7532 -2.70083 44.2532 -2.49073 12.4517)
(-19.2813 40.0084 -3.33655 -44.3837 0.136464 -22.5291)
(-4.51477 15.4809 -1.76111 -103.812 3.30281 -37.6074)
(-22.1947 14.9377 -0.293525 90.2097 -7.20137 27.9629)
(-20.8315 33.1731 -3.07359 30.8952 -2.8666 5.09682)
(-15.589 33.4781 -3.82181 -31.1495 1.17753 -15.5853)
(-14.6194 15.3815 -1.96103 -91.9254 5.55643 -38.2309)
(-26.3685 11.5975 -0.234237 65.2078 -7.63676 20.666)
(-21.2306 27.1004 -2.97689 23.0548 -2.75161 3.89409)
(-15.7993 27.6226 -3.7083 -22.9511 1.95334 -12.6843)
(-11.5597 12.5382 -1.89333 -65.5238 6.92015 -28.9373)
(-26.1181 8.87137 -0.15213 46.2671 -7.27527 17.531)
(-20.8555 21.6717 -2.74276 16.0358 -2.37911 3.19797)
(-15.3927 22.466 -3.4201 -16.0551 2.428 -10.3132)
(-11.429 10.4235 -1.70357 -45.3897 7.51841 -23.7638)
(-26.1655 5.98256 -0.186092 30.6879 -6.42091 15.0838)
(-20.2585 16.8654 -2.68288 10.1056 -1.9322 2.74628)
(-14.8712 18.1112 -3.25986 -10.8156 2.51802 -8.59793)
(-10.6549 8.62078 -1.53325 -28.8411 7.38341 -19.6617)
(-25.0769 2.78679 -0.503828 21.7952 -5.14287 15.0442)
(-21.5317 12.7624 -3.15354 4.40018 -1.48147 1.37835)
(-14.4604 14.2463 -3.63798 -7.0257 2.08512 -7.30523)
(-8.7717 6.92514 -1.59603 -16.1087 6.32534 -16.0855)
(-35.0066 2.63368 -1.53881 9.69996 -2.69854 8.38014)
(-33.5225 8.88501 -4.75625 -3.49003 -0.699372 -5.43046)
(-12.3366 8.81032 -5.44012 -2.49309 0.96399 -4.5415)
(-3.42321 4.20548 -2.79795 -6.70776 3.29536 -11.1685)
(108.637 44.3419 0.0149784 243.316 -2.76154 140.493)
(16.8484 37.3395 -0.520217 53.8806 -1.2489 28.2816)
(-31.3473 33.6127 -0.680743 -55.3734 -0.394806 -33.9643)
(-114.509 33.9509 -0.399634 -226.288 0.968814 -135.142)
(-35.84 14.3582 -0.0159654 92.0684 -4.4712 23.2117)
(-11.7302 39.2923 -1.37796 44.3374 -1.92518 13.7442)
(-19.585 38.4943 -1.77787 -43.2841 0.177842 -23.4636)
(-5.49507 14.8165 -0.982648 -102.657 2.77187 -41.1885)
(-22.658 14.446 -0.119256 90.3633 -5.43905 30.8316)
(-21.4651 32.1654 -1.84344 31.348 -2.13832 6.26438)
(-16.1591 32.4838 -2.31328 -30.4553 0.946741 -16.6996)
(-15.183 14.9137 -1.19603 -91.141 4.33661 -41.5492)
(-26.7567 11.2637 -0.167044 66.0786 -5.74488 23.0758)
(-21.8575 26.4144 -1.96821 23.7096 -2.04642 4.8387)
(-16.4209 26.9757 -2.4152 -22.4384 1.54434 -13.6806)
(-12.237 12.2848 -1.21046 -65.311 5.3379 -31.9283)
(-26.4337 8.6244 -0.177715 47.4546 -5.53545 19.3848)
(-21.4021 21.2119 -1.94956 16.7972 -1.788 3.97761)
(-15.9999 22.0786 -2.35015 -15.6318 1.92508 -11.0628)
(-12.0904 10.3313 -1.12563 -45.373 5.82554 -26.1074)
(-26.3731 5.77534 -0.255086 31.9653 -4.96839 16.5145)
(-20.6928 16.568 -2.03272 10.8887 -1.47487 3.45348)
(-15.4257 17.9272 -2.36128 -10.4105 2.00444 -9.01982)
(-11.2671 8.66132 -1.05489 -28.7848 5.76033 -21.2605)
(-25.0873 2.58625 -0.551357 23.1218 -4.04615 16.2463)
(-21.9151 12.5916 -2.54498 5.12211 -1.14094 2.04598)
(-15.0274 14.2032 -2.81514 -6.61568 1.6628 -7.35887)
(-9.29843 7.05448 -1.18367 -15.7966 4.95284 -16.8254)
(-35.2194 2.54302 -1.47912 10.6933 -2.13063 9.04087)
(-34.1836 8.82049 -4.03821 -2.91813 -0.529275 -4.91992)
(-13.2033 8.77014 -4.45272 -2.12823 0.764932 -4.2208)
(-3.96797 4.28085 -2.23664 -6.2423 2.57249 -10.9718)
(106.989 43.413 0.0763479 240.234 -2.50482 139.61)
(16.5937 36.0433 -0.181182 53.6377 -1.09662 28.4923)
(-30.9543 32.1802 -0.276405 -54.1987 -0.0621571 -33.7251)
(-112.315 32.6937 -0.182946 -221.661 1.27799 -133.474)
(-35.9493 13.8256 0.107773 91.3811 -3.23725 24.9267)
(-12.0955 38.1293 -0.618875 44.321 -1.36894 14.4011)
(-19.7608 37.3022 -0.859689 -42.3125 0.176095 -23.958)
(-6.18643 14.3145 -0.498937 -101.542 2.09735 -43.2299)
(-22.9908 14.0592 -0.000679884 90.3394 -3.81061 32.5793)
(-21.8825 31.3906 -1.0133 31.6441 -1.47515 6.9376)
(-16.5496 31.7281 -1.29549 -29.801 0.696075 -17.4156)
(-15.5194 14.5692 -0.668148 -90.2636 3.11248 -43.5468)
(-27.0323 11.025 -0.0795366 66.6501 -3.99712 24.7206)
(-22.2721 25.9457 -1.19814 24.1899 -1.40341 5.42859)
(-16.828 26.5424 -1.46003 -21.9293 1.10965 -14.3641)
(-12.6391 12.1239 -0.712885 -64.9005 3.78226 -33.8689)
(-26.6586 8.47383 -0.128388 48.316 -3.87452 20.7957)
(-21.7607 20.9582 -1.27569 17.3798 -1.23592 4.50348)
(-16.3829 21.8799 -1.50341 -15.2103 1.37653 -11.606)
(-12.4678 10.3025 -0.690723 -45.1585 4.1229 -27.7193)
(-26.52 5.66671 -0.216601 32.9232 -3.52035 17.7307)
(-20.9779 16.4503 -1.41469 11.49 -1.03567 3.96076)
(-15.768 17.8879 -1.59441 -10.0349 1.42997 -9.35176)
(-11.6125 8.72859 -0.680275 -28.6041 4.08373 -22.4328)
(-25.1088 2.48152 -0.460287 24.1038 -2.90444 17.3601)
(-22.1812 12.5523 -1.86708 5.66172 -0.811714 2.53831)
(-15.3852 14.2462 -2.01088 -6.27676 1.18274 -7.45589)
(-9.59332 7.17225 -0.819689 -15.4965 3.51411 -17.4621)
(-35.3481 2.49628 -1.18313 11.5066 -1.54047 9.87799)
(-34.6601 8.81971 -3.05541 -2.49004 -0.376024 -4.53826)
(-13.7708 8.77729 -3.29595 -1.84816 0.541742 -4.12129)
(-4.3357 4.34026 -1.6295 -5.93556 1.82444 -11.121)
(105.754 42.7594 0.0701744 237.942 -1.68202 138.72)
(16.4042 35.1731 -0.0389095 53.4305 -0.724656 28.5369)
(-30.6389 31.2273 -0.0892219 -53.33 0.0435191 -33.4769)
(-110.689 31.8392 -0.0717492 -218.297 0.972613 -132.058)
(-36.0012 13.4607 0.111255 90.8842 -1.96231 25.7873)
(-12.3187 37.3266 -0.232727 44.293 -0.819299 14.7106)
(-19.8465 36.4848 -0.36137 -41.5991 0.127499 -24.1961)
(-6.62222 13.9787 -0.221666 -100.685 1.30637 -44.3085)
(-23.2041 13.7883 0.0365015 90.2635 -2.26228 33.5223)
(-22.1234 30.8514 -0.485979 31.8348 -0.865339 7.29569)
(-16.7845 31.205 -0.636399 -29.3087 0.426518 -17.8338)
(-15.7105 14.3351 -0.326661 -89.5623 1.87589 -44.6503)
(-27.2083 10.8601 -0.0267982 66.9818 -2.36045 25.6879)
(-22.5114 25.6277 -0.631266 24.5085 -0.819366 5.76527)
(-17.0665 26.2499 -0.768342 -21.5389 0.667455 -14.7821)
(-12.8685 12.0166 -0.366478 -64.5279 2.25828 -35.0074)
(-26.806 8.37556 -0.0723104 48.849 -2.29546 21.6884)
(-21.9652 20.7993 -0.713823 17.7693 -0.72559 4.82562)
(-16.6002 21.7573 -0.830367 -14.8861 0.823096 -11.9497)
(-12.6744 10.2859 -0.369185 -44.933 2.45581 -28.7072)
(-26.621 5.60153 -0.139581 33.5237 -2.1019 18.5541)
(-21.1387 16.3899 -0.830805 11.8895 -0.615344 4.28859)
(-15.9579 17.8763 -0.919992 -9.75435 0.851894 -9.57334)
(-11.7978 8.77509 -0.380133 -28.4248 2.4316 -23.1884)
(-25.1412 2.42128 -0.300734 24.711 -1.74944 18.148)
(-22.3355 12.5422 -1.13818 6.01472 -0.487414 2.86495)
(-15.5872 14.2846 -1.20785 -6.03697 0.702187 -7.54479)
(-9.74805 7.24788 -0.483824 -15.2674 2.09139 -17.9204)
(-35.4523 2.47268 -0.758755 12.0139 -0.935023 10.5166)
(-34.9576 8.83062 -1.89641 -2.2154 -0.225927 -4.28818)
(-14.1041 8.7875 -2.02188 -1.65496 0.321137 -4.11812)
(-4.54927 4.37564 -0.992525 -5.73151 1.08509 -11.3394)
(105.104 42.4255 0.0270787 236.737 -0.587347 138.195)
(16.3055 34.739 -0.00202775 53.3168 -0.251265 28.5344)
(-30.466 30.7541 -0.0177175 -52.8717 0.0273159 -33.3282)
(-109.835 31.4098 -0.0178948 -216.544 0.355875 -131.271)
(-36.0204 13.276 0.0442712 90.6242 -0.657538 26.1362)
(-12.4235 36.9184 -0.0554385 44.2761 -0.272797 14.8302)
(-19.8791 36.0706 -0.0957971 -41.2233 0.0463109 -24.2891)
(-6.83146 13.8106 -0.061388 -100.224 0.443452 -44.7683)
(-23.3061 13.6486 0.0180165 90.2089 -0.750686 33.9251)
(-22.2325 30.5738 -0.141924 31.9293 -0.285363 7.44811)
(-16.8932 30.9361 -0.189057 -29.0466 0.143725 -18.0248)
(-15.7966 14.2159 -0.0967319 -89.179 0.6269 -45.1353)
(-27.2918 10.7745 -0.00559079 67.1324 -0.781227 26.1264)
(-22.6197 25.4634 -0.195696 24.6669 -0.269563 5.91598)
(-17.1754 26.0986 -0.238225 -21.3299 0.222698 -14.9786)
(-12.9728 11.961 -0.112109 -64.3146 0.751107 -35.5285)
(-26.8768 8.32508 -0.0234036 49.1005 -0.760897 22.1123)
(-22.0569 20.7182 -0.229136 17.9628 -0.239422 4.97703)
(-16.6974 21.6938 -0.264852 -14.7126 0.273636 -12.1144)
(-12.7656 10.276 -0.115717 -44.7978 0.815552 -29.1716)
(-26.6699 5.56868 -0.0483638 33.8088 -0.699447 18.9617)
(-21.2101 16.3602 -0.273871 12.0866 -0.204361 4.44817)
(-16.0415 17.8696 -0.300699 -9.60613 0.282536 -9.68279)
(-11.8786 8.79634 -0.122303 -28.3195 0.807045 -23.5556)
(-25.1594 2.39214 -0.104975 24.995 -0.58512 18.5478)
(-22.4048 12.5382 -0.382522 6.18729 -0.162854 3.02656)
(-15.677 14.3022 -0.403141 -5.91314 0.23243 -7.59542)
(-9.81567 7.2823 -0.160355 -15.1466 0.693701 -18.1592)
(-35.4999 2.46376 -0.262011 12.2548 -0.315607 10.8578)
(-35.0956 8.83893 -0.642512 -2.0804 -0.0757681 -4.16327)
(-14.2596 8.79162 -0.681487 -1.55739 0.106456 -4.1362)
(-4.65222 4.38999 -0.334005 -5.63328 0.359754 -11.4859)
)
;

boundaryField
{
    interface
    {
        type            calculated;
        value           nonuniform List<symmTensor> 
192
(
(-22.5091 -0.0483635 2.24998 255.684 16.8501 75.2098)
(-22.2988 -0.0082883 3.85636 112.999 -13.9085 12.1649)
(-22.2142 -0.0764978 4.53469 116.305 -8.99345 29.0523)
(-22.0576 -0.267367 4.81318 84.8184 -9.94942 24.8594)
(-22.0355 -0.605191 4.88375 61.9306 -8.58264 23.9246)
(-22.1441 -1.14393 4.79199 42.4013 -7.27762 21.9496)
(-22.349 -2.08816 4.50727 31.9178 -6.04739 22.2505)
(-21.6372 -3.58187 3.87395 24.0874 -3.44611 23.4392)
(-24.797 0.0941547 1.51345 252.556 6.74002 79.621)
(-24.8274 0.165634 2.64304 125.65 -11.4552 22.8739)
(-25.2305 0.0774151 3.11367 114.54 -14.1168 28.9454)
(-25.436 -0.198245 3.29176 84.3302 -14.4311 26.7362)
(-25.5037 -0.652489 3.30883 60.1322 -13.1559 25.5897)
(-25.4243 -1.35117 3.1972 40.9234 -11.2623 24.5628)
(-24.9842 -2.53728 2.9407 30.7297 -8.91796 25.6535)
(-22.4954 -4.24074 2.47492 24.3287 -5.01997 28.1383)
(-26.0952 0.115061 1.01667 250.165 0.180025 83.4166)
(-25.9891 0.191215 1.79317 123.759 -9.21541 29.3136)
(-26.4078 0.0958546 2.09101 114.396 -12.0612 31.6485)
(-26.622 -0.216155 2.18136 84.2731 -12.7872 26.8647)
(-26.629 -0.73477 2.16607 59.827 -12.0462 24.0252)
(-26.3673 -1.52847 2.06983 40.5858 -10.521 22.2135)
(-25.5253 -2.84281 1.89167 30.7865 -8.36188 23.1565)
(-22.2075 -4.60278 1.60724 24.2412 -4.43557 25.0183)
(-26.9442 0.104466 0.704125 246.407 -2.95681 85.3513)
(-26.7264 0.172678 1.25922 121.836 -7.53167 34.9579)
(-27.0901 0.0686897 1.4633 114.518 -9.52574 36.2709)
(-27.2541 -0.264204 1.51324 85.3248 -10.1863 29.9794)
(-27.1842 -0.821601 1.49021 61.1615 -9.80149 25.8093)
(-26.7825 -1.67281 1.41593 42.0095 -8.74504 23.1189)
(-25.688 -3.06082 1.29652 32.3946 -7.09593 23.5771)
(-21.8926 -4.83686 1.11447 25.8298 -3.86707 25.0879)
(-27.5119 0.090538 0.485394 242.224 -3.81869 85.6556)
(-27.2311 0.146822 0.880226 120.231 -5.95575 38.3574)
(-27.5439 0.0323298 1.02388 114.407 -7.21307 39.6643)
(-27.6569 -0.315089 1.05448 86.1983 -7.66496 32.8098)
(-27.5232 -0.896901 1.03386 62.4712 -7.45222 27.9184)
(-27.0219 -1.78376 0.980597 43.4565 -6.76398 24.6603)
(-25.7627 -3.21815 0.901953 33.9257 -5.59807 24.793)
(-21.6498 -5.00025 0.781741 27.2377 -3.08022 25.9613)
(-27.8857 0.0794703 0.318639 238.545 -3.38315 85.2578)
(-27.5719 0.124756 0.58431 118.997 -4.32921 40.2059)
(-27.8481 0.000484078 0.681362 114.221 -5.07407 41.7948)
(-27.9221 -0.357437 0.700769 86.8028 -5.34778 34.8348)
(-27.7421 -0.954859 0.685773 63.4591 -5.22489 29.6498)
(-27.1734 -1.86399 0.650411 44.5754 -4.7991 26.1293)
(-25.8073 -3.3283 0.600413 35.0905 -4.0297 26.1169)
(-21.4819 -5.11309 0.52269 28.3744 -2.23997 27.1512)
(-28.1158 0.0726319 0.179896 235.88 -2.25025 84.7296)
(-27.7865 0.109891 0.3326 118.141 -2.63048 41.0945)
(-28.0407 -0.021844 0.388591 114.037 -3.02199 42.9528)
(-28.0893 -0.386815 0.399489 87.1551 -3.16647 36.0426)
(-27.8797 -0.993776 0.390664 64.0771 -3.10142 30.7742)
(-27.2694 -1.91652 0.370516 45.2847 -2.86961 27.1629)
(-25.8379 -3.39928 0.341195 35.8231 -2.43222 27.1055)
(-21.3816 -5.18303 0.294941 29.1034 -1.36491 28.0928)
(-28.219 0.0686404 0.0575459 234.498 -0.782832 84.3984)
(-27.8813 0.101597 0.106922 117.706 -0.882352 41.4429)
(-28.1232 -0.0337663 0.124984 113.931 -1.00442 43.4529)
(-28.1584 -0.401824 0.12843 87.3198 -1.04956 36.5983)
(-27.935 -1.01324 0.125547 64.3753 -1.02922 31.3191)
(-27.3061 -1.94391 0.119009 45.6276 -0.955709 27.6869)
(-25.8338 -3.43693 0.108724 36.1787 -0.814375 27.6287)
(-21.3048 -5.21098 0.0923507 29.4662 -0.461646 28.6141)
(15.3173 44.575 -2.89965 156.857 -0.721923 -10.4536)
(-58.0435 21.213 -5.11387 58.7488 -1.03689 -6.85198)
(-43.8102 24.8505 -6.10927 70.1699 -1.00912 -3.94295)
(-45.77 20.9261 -6.59448 48.0061 -0.860734 -2.14138)
(-43.1674 17.7177 -6.85788 32.9039 -0.791587 -1.3103)
(-42.2054 13.5641 -7.04324 18.7877 -0.878744 -1.22682)
(-41.7555 9.07577 -7.32585 10.0564 -1.14887 -1.7513)
(-48.5801 5.89975 -8.15747 0.851204 -1.50712 -2.82243)
(-9.75631 38.5507 -1.84202 27.4536 -0.59072 -9.60092)
(-34.0355 49.972 -3.49423 17.2027 -0.990768 -8.10929)
(-36.4463 48.9563 -4.12609 18.9778 -1.04742 -6.36008)
(-36.9473 43.4381 -4.34904 12.3053 -0.841755 -5.15897)
(-35.8654 36.8226 -4.43471 6.75799 -0.608096 -4.57905)
(-34.8961 29.5551 -4.52757 1.26667 -0.466531 -4.50406)
(-34.7614 22.2874 -4.81922 -2.83303 -0.462984 -4.79646)
(-41.2743 13.7145 -5.92859 -6.33339 -0.523774 -5.13618)
(-18.2557 34.8179 -1.40575 -51.22 -0.420618 -9.20003)
(-5.12227 48.4615 -2.93622 -29.6371 -0.838968 -8.71399)
(-7.83708 48.924 -3.5601 -26.9747 -0.975749 -7.59452)
(-9.12429 43.8923 -3.75056 -19.9625 -0.806788 -6.73488)
(-10.3624 37.6152 -3.78652 -15.3261 -0.54423 -6.31339)
(-10.8646 30.7817 -3.838 -11.8658 -0.321637 -6.26285)
(-10.9961 23.5821 -4.11061 -9.61348 -0.191897 -6.49793)
(-8.42959 13.6258 -5.22669 -5.56807 -0.139103 -6.80353)
(-40.88 35.1154 -1.30178 -170.181 -0.396963 -8.56524)
(19.9865 20.3755 -2.95046 -72.3089 -0.840169 -8.4736)
(5.4539 25.1233 -3.68516 -76.1562 -0.994797 -7.50003)
(5.93353 21.907 -3.92478 -52.8386 -0.832667 -6.7601)
(2.99132 19.1485 -3.96695 -37.4689 -0.560309 -6.40467)
(1.76523 15.7786 -4.00955 -24.3664 -0.30766 -6.33927)
(1.65973 12.0802 -4.26729 -15.7534 -0.0896932 -6.44877)
(6.14238 6.66049 -5.33122 -7.54127 0.145067 -6.69098)
(-7.01478 0.408716 0.0784089 -253.097 -21.3004 -84.774)
(-5.88075 0.77937 0.367599 -122.877 9.21114 -21.9359)
(-4.76146 0.860691 0.403806 -115.172 6.14435 -29.5666)
(-4.25311 0.686097 0.353803 -80.4502 8.0902 -21.4311)
(-4.12514 0.471655 0.360998 -55.7343 7.83985 -18.2724)
(-3.97667 0.330181 0.498781 -35.4809 7.44129 -15.6954)
(-3.17422 0.159811 0.820269 -22.118 6.45391 -15.0377)
(-0.0940603 -0.888361 1.34269 -13.1538 3.03703 -15.083)
(-8.64859 0.162375 -0.371374 -246.933 -11.1818 -89.03)
(-8.69568 0.394823 -0.427972 -137.613 6.64057 -34.9179)
(-8.4698 0.49074 -0.485272 -117.141 10.8246 -32.9486)
(-8.42601 0.447946 -0.538578 -83.9585 12.7432 -26.919)
(-8.4806 0.405988 -0.509267 -57.9804 13.0231 -23.6896)
(-8.32685 0.457718 -0.361735 -37.2498 12.3625 -21.6382)
(-7.36233 0.518882 -0.0872632 -22.6665 10.5623 -20.778)
(-3.64417 -0.369048 0.319487 -13.8573 5.9442 -20.7656)
(-9.78207 0.0495687 -0.389623 -244.397 -3.58334 -94.2672)
(-10.1041 0.189799 -0.451695 -137.314 5.83625 -45.0946)
(-10.1803 0.288752 -0.443225 -118.332 9.62606 -40.7227)
(-10.3036 0.341927 -0.42724 -85.4774 11.6404 -32.6755)
(-10.3646 0.434067 -0.35808 -59.1171 12.2586 -27.6742)
(-10.0633 0.626589 -0.213228 -37.8158 11.8386 -24.1616)
(-8.77748 0.805946 -0.00665678 -22.3845 10.2473 -21.8163)
(-5.02624 0.0601967 0.229261 -12.671 5.61275 -19.4226)
(-10.609 0.0041613 -0.311147 -239.777 0.366714 -96.6233)
(-11.0062 0.0978558 -0.345017 -135.979 5.18021 -52.2666)
(-11.1984 0.1998 -0.296434 -118.172 7.90137 -47.2657)
(-11.3782 0.317034 -0.243239 -86.044 9.5177 -37.9893)
(-11.3942 0.503675 -0.162334 -59.7458 10.1718 -31.5334)
(-10.9539 0.792269 -0.0420166 -38.1527 9.96345 -26.6296)
(-9.47885 1.04758 0.0999996 -22.071 8.70795 -22.8222)
(-5.60391 0.378068 0.247675 -11.9826 4.79452 -18.7907)
(-11.2023 -0.0108786 -0.220534 -234.547 1.93286 -97.0678)
(-11.6109 0.0658699 -0.230253 -134.468 4.32371 -56.5356)
(-11.8378 0.175734 -0.169898 -117.409 6.16784 -51.588)
(-12.021 0.335613 -0.107664 -85.9698 7.31908 -41.8458)
(-11.9819 0.582125 -0.034168 -59.8873 7.8437 -34.5462)
(-11.4373 0.92858 0.0544278 -38.1757 7.73505 -28.6725)
(-9.84283 1.22667 0.14363 -21.6948 6.79299 -23.7974)
(-5.90945 0.597934 0.227714 -11.4131 3.73805 -18.6625)
(-11.6017 -0.0129221 -0.140988 -229.927 2.11292 -96.6992)
(-12.0017 0.06165 -0.137401 -133.078 3.24942 -58.9021)
(-12.23 0.181087 -0.083956 -116.526 4.42944 -54.1872)
(-12.3966 0.367438 -0.0307032 -85.6396 5.18482 -44.3399)
(-12.3125 0.648652 0.024841 -59.7746 5.54511 -36.6258)
(-11.699 1.02658 0.0835782 -38.0449 5.47794 -30.1872)
(-10.035 1.34606 0.135179 -21.349 4.81891 -24.6521)
(-6.08595 0.740908 0.178621 -11.0258 2.65465 -18.9133)
(-11.8457 -0.0111876 -0.0770351 -226.584 1.52235 -96.1732)
(-12.2358 0.0660402 -0.0707823 -132.027 2.01296 -60.1142)
(-12.4572 0.193476 -0.0356136 -115.804 2.67049 -55.6145)
(-12.6072 0.395019 -0.00121207 -85.3059 3.0973 -45.791)
(-12.4931 0.694682 0.0325587 -59.6078 3.30379 -37.8976)
(-11.8379 1.08854 0.0657519 -37.8951 3.26302 -31.1678)
(-10.1363 1.4174 0.0925074 -21.0937 2.87051 -25.2724)
(-6.18917 0.825823 0.110822 -10.778 1.5814 -19.2296)
(-11.9594 -0.00986962 -0.024337 -224.845 0.546354 -95.8355)
(-12.3444 0.0695071 -0.0216746 -131.464 0.681298 -60.6175)
(-12.5613 0.201279 -0.00965386 -115.405 0.892531 -56.2385)
(-12.7029 0.409892 0.00200856 -85.1078 1.03058 -46.451)
(-12.5738 0.717797 0.013224 -59.4993 1.09758 -38.4942)
(-11.8993 1.1186 0.0239696 -37.8041 1.08352 -31.6454)
(-10.1784 1.44943 0.0323603 -20.9594 0.952792 -25.5943)
(-6.24795 0.863805 0.0365847 -10.6655 0.524702 -19.4379)
(-50.7333 8.40105 -3.24906 -2.75672 -1.64925 -1.73016)
(-45.11 7.64828 -1.60619 -1.24813 -1.25412 3.20582)
(-45.2104 7.46396 -2.14641 0.00245489 -0.888967 1.51102)
(-45.2676 7.44208 -2.31926 1.00727 -0.632899 1.59375)
(-45.7191 7.46874 -2.18037 1.76909 -0.449778 1.87145)
(-46.0912 7.50649 -1.7267 2.31681 -0.307341 2.40147)
(-46.3503 7.53952 -1.10105 2.66249 -0.188519 2.85758)
(-46.5039 7.55667 -0.378856 2.77603 -0.0667445 3.08323)
(-43.8424 6.06024 -6.55832 -4.67131 -0.337737 -9.54307)
(-39.1135 4.87978 -6.60166 -3.97065 -0.214145 -8.41068)
(-39.1269 4.51125 -6.33631 -3.11666 -0.0770659 -7.80978)
(-39.9605 4.37344 -5.93917 -2.38271 -0.013342 -7.07619)
(-40.8327 4.31631 -5.11888 -1.82357 0.00715729 -6.64002)
(-41.4769 4.2934 -3.90055 -1.41974 0.0104089 -6.32768)
(-41.8789 4.28892 -2.42914 -1.15164 0.00751225 -6.12173)
(-42.0548 4.296 -0.823978 -1.00074 0.00273291 -6.0066)
(-7.95179 5.25693 -6.58215 -6.0876 0.27878 -6.11275)
(-10.551 3.97721 -7.95418 -5.52135 0.27578 -7.92268)
(-12.0935 3.52379 -7.65674 -4.86995 0.283017 -6.59052)
(-13.5335 3.32278 -6.85348 -4.31779 0.252145 -5.53812)
(-14.592 3.21817 -5.69457 -3.8991 0.200309 -4.96598)
(-15.2944 3.15956 -4.2471 -3.5974 0.143654 -4.74651)
(-15.7154 3.12749 -2.61507 -3.399 0.0878721 -4.69486)
(-15.909 3.11156 -0.882738 -3.29125 0.030271 -4.69205)
(6.39034 5.24946 -4.07203 -5.97885 0.700471 -8.84344)
(1.82248 3.98529 -4.65746 -5.608 0.510554 -12.9013)
(0.33147 3.51122 -4.4884 -5.25843 0.413881 -10.6692)
(-0.88538 3.28659 -3.8745 -4.92059 0.340339 -9.48174)
(-1.6122 3.16097 -3.1447 -4.64842 0.264278 -8.92796)
(-2.09441 3.08582 -2.30929 -4.44638 0.187697 -8.89309)
(-2.38376 3.04179 -1.41214 -4.31205 0.11166 -9.03358)
(-2.52763 3.01748 -0.475996 -4.25159 0.0368402 -9.1567)
)
;
    }
    symmetry
    {
        type            symmetryPlane;
    }
    bottom
    {
        type            calculated;
        value           nonuniform List<symmTensor> 
32
(
(126.4 55.3617 0 189.6 49.0301 126.4)
(126.049 57.32 0 189.074 21.0199 126.049)
(127.016 57.3717 0 190.524 7.16876 127.016)
(126.504 56.3413 0 189.757 0.7197 126.504)
(125.211 55.1288 0 187.816 -1.80636 125.211)
(123.866 54.0989 0 185.799 -2.27468 123.866)
(122.826 53.3831 0 184.239 -1.68935 122.826)
(122.269 53.019 0 183.404 -0.610893 122.269)
(21.2466 28.6862 0 31.8699 15.7044 21.2466)
(24.1318 30.1995 0 36.1978 7.32449 24.1318)
(25.8849 28.4391 0 38.8274 2.51896 25.8849)
(26.3966 26.4119 0 39.595 0.177226 26.3966)
(26.4978 24.7356 0 39.7467 -0.742098 26.4978)
(26.4715 23.5171 0 39.7073 -0.894445 26.4715)
(26.4218 22.7379 0 39.6327 -0.655355 26.4218)
(26.3894 22.3595 0 39.5841 -0.235736 26.3894)
(-34.0336 25.0984 0 -51.0505 -14.8794 -34.0336)
(-31.8595 26.4623 0 -47.7892 -7.86163 -31.8595)
(-31.7653 24.1415 0 -47.6479 -3.90594 -31.7653)
(-31.3683 21.6736 0 -47.0524 -1.7153 -31.3683)
(-30.8294 19.7013 0 -46.244 -0.571409 -30.8294)
(-30.3043 18.2902 0 -45.4565 -0.0553239 -30.3043)
(-29.9013 17.3939 0 -44.852 0.0938237 -29.9013)
(-29.6849 16.9602 0 -44.5274 0.0511499 -29.6849)
(-127.68 43.4782 0 -191.52 -49.1913 -127.68)
(-123.217 44.0403 0 -184.825 -23.0635 -123.217)
(-123.368 42.2646 0 -185.052 -9.4837 -123.368)
(-121.834 39.9163 0 -182.75 -2.70058 -121.834)
(-119.605 37.7948 0 -179.408 0.32516 -119.605)
(-117.493 36.1545 0 -176.239 1.28364 -117.493)
(-115.918 35.0585 0 -173.877 1.12971 -115.918)
(-115.087 34.5129 0 -172.631 0.430984 -115.087)
)
;
    }
}


// ************************************************************************* //
