/*--------------------------------*- C++ -*----------------------------------*\
| =========                 |                                                 |
| \\      /  F ield         | foam-extend: Open Source CFD                    |
|  \\    /   O peration     | Version:     3.1                                |
|   \\  /    A nd           | Web:         http://www.extend-project.de       |
|    \\/     M anipulation  |                                                 |
\*---------------------------------------------------------------------------*/
FoamFile
{
    version     2.0;
    format      ascii;
    class       volScalarField;
    location    "1.9";
    object      sigmaCauchyEq;
}
// * * * * * * * * * * * * * * * * * * * * * * * * * * * * * * * * * * * * * //

dimensions      [1 -1 -2 0 0 0 0];

internalField   nonuniform List<scalar> 
256
(
163.1
79.7704
72.2888
131.759
114.947
96.1381
86.1693
95.4863
105.678
89.0758
79.1227
81.9661
85.6618
77.8361
68.9487
61.7486
68.7832
65.697
58.048
45.1937
55.1645
53.8254
47.3703
32.1715
46.9746
43.8048
36.8639
23.0786
46.5213
38.6291
23.6252
16.7504
159.556
81.3595
72.96
125.341
118.937
91.94
81.4869
97.2891
103.021
78.208
68.3279
78.6245
82.7325
65.9002
57.0725
58.1166
65.4415
54.13
46.8136
41.3676
52.2798
43.7275
37.9285
28.9562
44.4394
35.6571
30.0522
20.8292
44.316
33.6708
21.4252
15.8234
157.412
78.949
69.1442
120.73
117.658
88.6398
76.6228
93.5895
103.007
74.8532
63.186
75.7618
82.9006
62.1677
51.6546
55.5232
65.6242
50.6595
41.9123
39.0748
52.3412
40.7989
34.0145
27.0897
44.2972
33.5381
27.4712
19.5119
43.7431
33.0603
20.4337
13.9247
154.521
76.0078
65.1363
116.443
116.109
86.1672
72.721
90.2502
102.741
73.3307
59.9823
73.0724
83.3348
61.0862
48.9287
53.2169
66.3132
49.9331
39.7452
36.9554
53.0595
40.3794
32.4956
25.1666
44.9558
33.4673
26.6369
17.9567
44.3827
33.7414
20.0751
12.3997
151.611
73.3444
61.7389
112.677
114.876
84.1517
69.6089
87.5937
102.499
72.3454
57.7253
70.885
83.8038
60.7228
47.3285
51.3761
67.1003
49.9644
38.6956
35.2419
53.9325
40.6388
31.9108
23.5158
45.8321
33.8774
26.4042
16.5826
45.2993
34.441
19.8377
11.2976
149.142
71.2652
59.161
109.67
113.921
82.5917
67.2493
85.5678
102.279
71.6166
56.092
69.2245
84.1543
60.5399
46.2854
50.0106
67.7283
50.1224
38.1154
33.9822
54.6535
40.9677
31.6652
22.2837
46.579
34.2669
26.341
15.5607
46.1351
34.9076
19.5604
10.5761
147.391
69.8676
57.447
107.589
113.26
81.5289
65.6597
84.1872
102.104
71.1122
55.0033
68.0997
84.3673
60.417
45.6192
49.1022
68.136
50.2395
37.7756
33.1573
55.1327
41.1993
31.5448
21.4814
47.0873
34.5219
26.3111
14.9108
46.7224
35.1652
19.3011
10.1557
146.488
69.1698
56.5941
106.528
112.918
80.9915
64.8597
83.4855
102.006
70.8516
54.4551
67.5297
84.4624
60.3493
45.2878
48.6463
68.3299
50.2939
37.6114
32.748
55.3639
41.3111
31.4894
21.0871
47.3351
34.6418
26.2929
14.598
47.013
35.2748
19.145
9.96382
)
;

boundaryField
{
    interface
    {
        type            calculated;
        value           nonuniform List<scalar> 
192
(
255.865
126.55
124.508
95.69
75.1946
59.2031
51.9044
46.6177
251.868
137.252
126.544
99.4464
78.6178
63.3313
55.9236
50.2659
249.461
134.391
126.208
99.5515
78.5317
62.8513
55.1345
48.1369
246.117
131.932
125.663
99.9396
79.2261
63.5471
55.8324
48.5172
242.403
130.197
125.186
100.322
79.9849
64.3946
56.7497
49.2636
239.09
128.968
124.828
100.64
80.6253
65.1434
57.584
50.1264
236.666
128.148
124.569
100.84
81.0482
65.6499
58.1576
50.7661
235.397
127.728
124.426
100.926
81.2465
65.8927
58.4317
51.0809
179.428
108.395
110.28
89.8038
73.5832
59.7152
50.8878
50.4023
76.8999
97.2672
97.4943
86.7345
74.3498
61.3638
49.8526
43.6137
70.5819
86.6539
86.5987
76.8925
65.6607
53.7743
41.5163
25.3527
154.907
88.4348
86.6318
65.4406
49.6302
36.3699
26.7933
19.8845
211.623
108.498
98.8456
69.6099
47.663
30.2551
19.9605
15.2988
202.407
115.62
98.3553
70.5457
48.8077
32.708
23.1834
18.0698
197.943
111.527
95.9435
68.7284
47.2322
31.3402
22.0973
15.7534
193.001
108.12
93.3305
66.558
45.1033
29.0637
19.8599
14.0852
188.06
105.553
91.1676
64.7233
43.2293
26.8753
17.585
12.8294
183.855
103.625
89.513
63.3455
41.8167
25.1709
15.776
12.1385
180.853
102.305
88.3801
62.4217
40.8807
24.034
14.5659
11.8243
179.3
101.631
87.8011
61.9549
40.4128
23.4674
13.9677
11.7163
50.5456
47.8486
47.5445
48.1044
49.0129
49.8425
50.4345
50.7193
39.743
35.7936
36.2106
37.4079
38.3234
38.852
39.1156
39.223
14.6843
15.9678
15.9525
15.7408
15.1986
14.4027
13.6409
13.1819
18.192
16.5999
13.7237
11.533
10.0087
8.95952
8.29223
7.9606
)
;
    }
    symmetry
    {
        type            symmetryPlane;
    }
    bottom
    {
        type            calculated;
        value           nonuniform List<scalar> 
32
(
149.475
128.779
124.081
121.665
119.437
117.464
116.009
115.242
58.0906
55.6568
51.6098
48.0815
45.3055
43.2788
41.9631
41.3167
52.6526
49.8028
44.7059
40.3195
37.0301
34.7241
33.2622
32.5525
124.261
101.084
92.74
88.1567
84.7975
82.2127
80.4193
79.4983
)
;
    }
}


// ************************************************************************* //
