/*--------------------------------*- C++ -*----------------------------------*\
| =========                 |                                                 |
| \\      /  F ield         | foam-extend: Open Source CFD                    |
|  \\    /   O peration     | Version:     3.1                                |
|   \\  /    A nd           | Web:         http://www.extend-project.de       |
|    \\/     M anipulation  |                                                 |
\*---------------------------------------------------------------------------*/
FoamFile
{
    version     2.0;
    format      ascii;
    class       volVectorField;
    location    "1.9";
    object      U;
}
// * * * * * * * * * * * * * * * * * * * * * * * * * * * * * * * * * * * * * //

dimensions      [0 1 -1 0 0 0 0];

internalField   nonuniform List<vector> 
256
(
(9.40911e-06 2.69451e-05 8.02226e-05)
(-1.37083e-05 5.22052e-06 2.08243e-05)
(-9.61918e-06 -1.43849e-05 -3.48387e-05)
(2.46831e-05 -4.12806e-05 -0.000101641)
(9.81123e-05 0.000106631 0.000145877)
(8.86359e-05 1.936e-05 4.66813e-05)
(9.5619e-05 -6.29978e-05 -5.53208e-05)
(0.000118919 -0.000158638 -0.000154705)
(0.000253335 0.000154463 0.000188583)
(0.000250895 2.22075e-05 6.37657e-05)
(0.000258296 -0.0001039 -5.64939e-05)
(0.00027446 -0.000242347 -0.000183869)
(0.000453826 0.000178187 0.000213299)
(0.000459419 1.58882e-05 7.56264e-05)
(0.000466407 -0.000139443 -5.3917e-05)
(0.000473739 -0.000305916 -0.000194433)
(0.000671785 0.000177237 0.000228756)
(0.000683839 1.93903e-06 8.33457e-05)
(0.000690226 -0.000167851 -5.07346e-05)
(0.000690547 -0.000345478 -0.000198569)
(0.000883044 0.000157502 0.000239626)
(0.000899859 -1.66441e-05 8.86219e-05)
(0.000905166 -0.000188931 -4.90726e-05)
(0.000899613 -0.000364265 -0.000201968)
(0.00106933 0.000125732 0.000248419)
(0.00108908 -3.64156e-05 9.33178e-05)
(0.00109231 -0.000202309 -4.92391e-05)
(0.00108062 -0.000366138 -0.000207113)
(0.0012171 9.18388e-05 0.000257801)
(0.0012405 -5.43152e-05 9.93141e-05)
(0.00124112 -0.000207968 -4.87529e-05)
(0.00121988 -0.000358244 -0.000212283)
(3.63878e-05 2.37074e-05 6.08936e-05)
(2.10044e-05 2.54664e-06 1.62252e-05)
(2.70942e-05 -1.18174e-05 -2.49766e-05)
(5.76222e-05 -3.73043e-05 -7.5113e-05)
(0.000182219 9.77886e-05 0.00011487)
(0.00016797 1.13671e-05 3.74187e-05)
(0.000179496 -6.13611e-05 -4.26542e-05)
(0.000217176 -0.00015663 -0.000122001)
(0.000373821 0.00014741 0.000156528)
(0.000370526 1.27357e-05 5.34541e-05)
(0.000382662 -0.000108867 -4.72439e-05)
(0.000409166 -0.000250115 -0.000153923)
(0.000599526 0.000171798 0.000184955)
(0.000604961 5.62781e-06 6.56849e-05)
(0.00061657 -0.000148725 -4.78807e-05)
(0.000633398 -0.000319566 -0.000171205)
(0.000834802 0.000171523 0.000205097)
(0.000847304 -8.61151e-06 7.4529e-05)
(0.000858049 -0.000180323 -4.75853e-05)
(0.000866695 -0.000363439 -0.00018198)
(0.00105855 0.000152311 0.000220153)
(0.00107581 -2.72991e-05 8.10469e-05)
(0.00108514 -0.00020405 -4.77519e-05)
(0.00108736 -0.000385837 -0.00019043)
(0.00125488 0.00012173 0.000231878)
(0.001274 -4.68277e-05 8.66084e-05)
(0.00128048 -0.000220592 -4.79985e-05)
(0.00127611 -0.000392432 -0.000197263)
(0.00141222 9.01102e-05 0.000240809)
(0.00143391 -6.38628e-05 9.26416e-05)
(0.00143667 -0.00023052 -4.52399e-05)
(0.00142173 -0.000391146 -0.000198459)
(5.41583e-05 2.83036e-05 4.82125e-05)
(3.90405e-05 2.75769e-06 1.32598e-05)
(4.64204e-05 -1.25893e-05 -1.94971e-05)
(7.94327e-05 -4.2879e-05 -5.84865e-05)
(0.000243303 0.000105017 9.06791e-05)
(0.000227349 9.84779e-06 2.97817e-05)
(0.000241948 -6.45716e-05 -3.39758e-05)
(0.000287129 -0.000169539 -9.71698e-05)
(0.000469471 0.000152981 0.000127102)
(0.000465996 9.11478e-06 4.32798e-05)
(0.000481511 -0.000116133 -3.98855e-05)
(0.00051434 -0.000267191 -0.000127472)
(0.00072181 0.000174541 0.000154844)
(0.000728734 -4.26712e-07 5.44685e-05)
(0.00074358 -0.000159679 -4.26822e-05)
(0.000764816 -0.00033967 -0.000147299)
(0.000977178 0.000171601 0.000176486)
(0.000992195 -1.692e-05 6.33271e-05)
(0.00100584 -0.000194688 -4.43649e-05)
(0.00101722 -0.000386483 -0.000161686)
(0.00121592 0.000150291 0.00019353)
(0.00123608 -3.75801e-05 7.03847e-05)
(0.00124785 -0.000221779 -4.56311e-05)
(0.00125148 -0.000412215 -0.0001728)
(0.00142408 0.000118514 0.000206842)
(0.00144583 -5.86895e-05 7.65648e-05)
(0.00145443 -0.000241952 -4.5654e-05)
(0.00145137 -0.000423111 -0.00018008)
(0.00159144 8.65552e-05 0.000215768)
(0.00161542 -7.69076e-05 8.28463e-05)
(0.00161993 -0.000255613 -4.13749e-05)
(0.0016062 -0.000426613 -0.000178844)
(6.69588e-05 3.25618e-05 3.78141e-05)
(5.03015e-05 3.25523e-06 1.05087e-05)
(5.84751e-05 -1.36152e-05 -1.54114e-05)
(9.48449e-05 -4.82781e-05 -4.55766e-05)
(0.00028984 0.000115064 7.08791e-05)
(0.000271944 1.02106e-05 2.31026e-05)
(0.000288386 -6.89597e-05 -2.73274e-05)
(0.000338921 -0.000184621 -7.7153e-05)
(0.000545641 0.000162585 0.000100886)
(0.00054185 7.91724e-06 3.38204e-05)
(0.000559392 -0.000124081 -3.33292e-05)
(0.0005961 -0.000286491 -0.000103641)
(0.00082311 0.000181431 0.000125374)
(0.000830927 -4.08026e-06 4.3262e-05)
(0.000847616 -0.000170905 -3.69922e-05)
(0.000871155 -0.000361697 -0.000122785)
(0.00109838 0.000175168 0.000145773)
(0.00111515 -2.32466e-05 5.12867e-05)
(0.00113037 -0.000209046 -3.95262e-05)
(0.0011427 -0.000410864 -0.000137691)
(0.00135251 0.000150919 0.000162545)
(0.0013748 -4.6392e-05 5.81194e-05)
(0.00138783 -0.000239232 -4.11809e-05)
(0.00139141 -0.000439229 -0.000149175)
(0.00157272 0.000117133 0.000175833)
(0.00159654 -6.95233e-05 6.42894e-05)
(0.00160603 -0.000262467 -4.10171e-05)
(0.00160233 -0.000453221 -0.000156104)
(0.0017501 8.42195e-05 0.000184237)
(0.00177609 -8.9188e-05 7.02678e-05)
(0.00178126 -0.000278883 -3.64155e-05)
(0.00176647 -0.000459857 -0.000154052)
(7.63683e-05 3.59937e-05 2.85699e-05)
(5.80299e-05 3.69136e-06 7.91663e-06)
(6.67178e-05 -1.45393e-05 -1.18393e-05)
(0.000106016 -5.2654e-05 -3.44468e-05)
(0.000325089 0.000124301 5.34684e-05)
(0.000305241 1.09618e-05 1.71617e-05)
(0.000322813 -7.31315e-05 -2.13567e-05)
(0.000377441 -0.000198047 -5.92802e-05)
(0.000604899 0.000172427 7.68035e-05)
(0.00060059 7.65107e-06 2.52347e-05)
(0.000619324 -0.00013145 -2.66893e-05)
(0.000658641 -0.000304408 -8.07905e-05)
(0.000903761 0.000189381 9.67036e-05)
(0.000912061 -6.35161e-06 3.26699e-05)
(0.000929783 -0.000181105 -3.02793e-05)
(0.000954627 -0.000382311 -9.71888e-05)
(0.00119669 0.000180205 0.000114013)
(0.00121463 -2.78931e-05 3.93307e-05)
(0.00123069 -0.000221886 -3.28585e-05)
(0.00124329 -0.000433441 -0.000110431)
(0.00146488 0.000153129 0.000128705)
(0.00148864 -5.33285e-05 4.52858e-05)
(0.00150227 -0.000254606 -3.44435e-05)
(0.00150541 -0.000463753 -0.000120653)
(0.00169624 0.000117273 0.000140501)
(0.00172146 -7.83198e-05 5.07799e-05)
(0.00173126 -0.0002802 -3.41856e-05)
(0.00172656 -0.000479848 -0.000126598)
(0.00188286 8.33085e-05 0.000147696)
(0.00191012 -9.92743e-05 5.59009e-05)
(0.00191532 -0.00029859 -3.00375e-05)
(0.00189906 -0.000488509 -0.000124547)
(8.30856e-05 3.85524e-05 2.00095e-05)
(6.33549e-05 4.01744e-06 5.49919e-06)
(7.23854e-05 -1.52755e-05 -8.43812e-06)
(0.000113927 -5.59381e-05 -2.42075e-05)
(0.000350655 0.000131632 3.74261e-05)
(0.000329153 1.16581e-05 1.18151e-05)
(0.000347432 -7.65366e-05 -1.54386e-05)
(0.000405076 -0.000208617 -4.21911e-05)
(0.000648564 0.000180714 5.40691e-05)
(0.000643691 7.71179e-06 1.74308e-05)
(0.000663132 -0.00013746 -1.95852e-05)
(0.000704256 -0.000318955 -5.80046e-05)
(0.000964053 0.000196524 6.86631e-05)
(0.000972569 -7.75408e-06 2.27699e-05)
(0.000990884 -0.000189374 -2.25007e-05)
(0.00101654 -0.000399259 -7.04134e-05)
(0.0012711 0.000185183 8.17155e-05)
(0.00128976 -3.11211e-05 2.77316e-05)
(0.00130626 -0.0002322 -2.46226e-05)
(0.00131889 -0.000451974 -8.06369e-05)
(0.00155075 0.000155854 9.30353e-05)
(0.00157545 -5.83544e-05 3.23148e-05)
(0.00158934 -0.000266811 -2.58831e-05)
(0.00159196 -0.000483645 -8.85467e-05)
(0.00179131 0.000118277 0.00010221)
(0.00181741 -8.48111e-05 3.65975e-05)
(0.00182725 -0.0002941 -2.56317e-05)
(0.00182162 -0.000501086 -9.30746e-05)
(0.00198561 8.33991e-05 0.000107676)
(0.00201357 -0.000106771 4.04743e-05)
(0.00201854 -0.000313862 -2.24182e-05)
(0.00200093 -0.000511027 -9.1444e-05)
(8.74686e-05 4.02507e-05 1.18591e-05)
(6.67518e-05 4.23093e-06 3.23314e-06)
(7.59912e-05 -1.57844e-05 -5.06964e-06)
(0.000119039 -5.81266e-05 -1.43994e-05)
(0.000367372 0.00013666 2.21766e-05)
(0.000344692 1.21606e-05 6.90894e-06)
(0.000363393 -7.89138e-05 -9.3659e-06)
(0.00042304 -0.000215844 -2.5307e-05)
(0.000677363 0.000186584 3.21497e-05)
(0.000672038 7.84423e-06 1.02173e-05)
(0.000691889 -0.000141665 -1.19844e-05)
(0.000734201 -0.000329089 -3.49663e-05)
(0.00100416 0.000201778 4.10407e-05)
(0.00101275 -8.56447e-06 1.34283e-05)
(0.0010314 -0.000195148 -1.38627e-05)
(0.00105757 -0.000411176 -4.26629e-05)
(0.00132097 0.000189046 4.91257e-05)
(0.00134005 -3.31446e-05 1.64818e-05)
(0.00135677 -0.000239362 -1.52355e-05)
(0.00136937 -0.000465014 -4.90709e-05)
(0.00160866 0.000158197 5.62295e-05)
(0.00163392 -6.15885e-05 1.93579e-05)
(0.00164791 -0.000275219 -1.60363e-05)
(0.0016501 -0.000497547 -5.40377e-05)
(0.00185574 0.000119427 6.20214e-05)
(0.00188235 -8.90372e-05 2.20628e-05)
(0.00189211 -0.000303595 -1.58632e-05)
(0.00188577 -0.000515772 -5.68634e-05)
(0.00205549 8.38947e-05 6.54214e-05)
(0.00208381 -0.00011168 2.44616e-05)
(0.0020885 -0.000324217 -1.38549e-05)
(0.00206984 -0.000526424 -5.58431e-05)
(8.96295e-05 4.10983e-05 3.92984e-06)
(6.84105e-05 4.33627e-06 1.06639e-06)
(7.77522e-05 -1.6044e-05 -1.6922e-06)
(0.000121558 -5.92216e-05 -4.78181e-06)
(0.000375645 0.000139209 7.34803e-06)
(0.000352358 1.24205e-05 2.27281e-06)
(0.000371259 -8.0131e-05 -3.14149e-06)
(0.000431911 -0.000219504 -8.43847e-06)
(0.000691683 0.00018961 1.06701e-05)
(0.000686108 7.9336e-06 3.36531e-06)
(0.00070615 -0.00014382 -4.03574e-06)
(0.000749058 -0.000334273 -1.1686e-05)
(0.00102419 0.000204542 1.36547e-05)
(0.0010328 -8.93508e-06 4.43658e-06)
(0.00105159 -0.000198106 -4.6823e-06)
(0.00107801 -0.000417303 -1.42911e-05)
(0.00134598 0.000191137 1.63899e-05)
(0.00136524 -3.41171e-05 5.46673e-06)
(0.00138206 -0.000243021 -5.15532e-06)
(0.00139464 -0.000471723 -1.64696e-05)
(0.00163781 0.000159533 1.88078e-05)
(0.00166332 -6.31671e-05 6.44568e-06)
(0.00167733 -0.000279496 -5.42928e-06)
(0.0016793 -0.000504675 -1.81599e-05)
(0.00188827 0.000120167 2.07851e-05)
(0.00191508 -9.11161e-05 7.36853e-06)
(0.00192477 -0.000308402 -5.36899e-06)
(0.00191803 -0.000523249 -1.912e-05)
(0.00209083 8.43166e-05 2.19375e-05)
(0.00211928 -0.000114113 8.17804e-06)
(0.00212376 -0.000329437 -4.68901e-06)
(0.0021045 -0.000534189 -1.87763e-05)
)
;

boundaryField
{
    interface
    {
        type            calculated;
        value           nonuniform List<vector> 
192
(
(5.02612e-05 5.94666e-05 0.000101365)
(0.000112312 0.000156247 0.000198335)
(0.00026344 0.000235871 0.000259886)
(0.000453179 0.000274919 0.000296287)
(0.000662522 0.000277978 0.000319795)
(0.000866657 0.000251192 0.000336467)
(0.00104741 0.000204864 0.000349574)
(0.00119691 0.000147534 0.000361099)
(7.77631e-05 8.61011e-05 7.56954e-05)
(0.000199104 0.000168915 0.000153387)
(0.000381504 0.000242689 0.000212074)
(0.000595751 0.00027828 0.000252892)
(0.000821639 0.000278997 0.000282152)
(0.0010381 0.000250893 0.00030398)
(0.00122948 0.000204455 0.000321012)
(0.00138977 0.000148055 0.000333586)
(0.000105698 0.000112258 5.95188e-05)
(0.000261947 0.000193429 0.000120357)
(0.000477994 0.000262035 0.000171257)
(0.000717423 0.000291528 0.000211183)
(0.000962481 0.000286884 0.00024229)
(0.00119351 0.000254814 0.000266616)
(0.00139668 0.000205993 0.000285603)
(0.00156738 0.000148293 0.000298605)
(0.000127433 0.000133237 4.63584e-05)
(0.000310361 0.000217008 9.36967e-05)
(0.000554798 0.000284202 0.000135604)
(0.000818055 0.000308581 0.000170796)
(0.00108211 0.000298415 0.000200001)
(0.00132806 0.000261622 0.000223767)
(0.00154319 0.000209527 0.000242613)
(0.00172415 0.000150001 0.000255186)
(0.000143934 0.000149403 3.48836e-05)
(0.000347397 0.000236841 7.05567e-05)
(0.000614738 0.000304458 0.000103182)
(0.000898219 0.000325422 0.000131753)
(0.00117921 0.000310685 0.00015646)
(0.00143882 0.000269576 0.0001772)
(0.001665 0.000214295 0.0001939)
(0.00185548 0.000152965 0.000204884)
(0.000155891 0.000161245 2.43765e-05)
(0.000374413 0.000252038 4.93525e-05)
(0.000659011 0.00032071 7.26423e-05)
(0.000958205 0.000339589 9.35833e-05)
(0.00125274 0.000321536 0.000112172)
(0.00152352 0.000277058 0.000128109)
(0.00175884 0.000219184 0.000141085)
(0.00195724 0.000156344 0.000149545)
(0.000163757 0.000169041 1.44299e-05)
(0.000392142 0.000262277 2.9239e-05)
(0.000688265 0.000331952 4.32019e-05)
(0.000998152 0.000349671 5.59551e-05)
(0.00130207 0.000329504 6.74525e-05)
(0.0015807 0.000282774 7.74371e-05)
(0.00182252 0.000223113 8.56189e-05)
(0.00202654 0.00015922 9.09252e-05)
(0.000167649 0.000172916 4.77839e-06)
(0.000400933 0.000267424 9.68701e-06)
(0.00070283 0.00033768 1.43397e-05)
(0.00101812 0.000354887 1.86204e-05)
(0.00132682 0.0003337 2.25073e-05)
(0.00160949 0.000285847 2.59034e-05)
(0.0018547 0.000225288 2.86932e-05)
(0.00206162 0.000160916 3.04979e-05)
(-1.60447e-05 8.90565e-05 0.000114077)
(3.78587e-05 0.000131505 0.000156371)
(0.000175954 0.000173287 0.000202922)
(0.000365471 0.000189118 0.000224643)
(0.000576596 0.000184543 0.000238016)
(0.000782831 0.000162695 0.000246953)
(0.000965339 0.000130459 0.000253652)
(0.00111046 9.28456e-05 0.000264521)
(-4.11851e-05 2.46765e-05 3.04212e-05)
(2.74996e-05 2.95344e-05 5.07022e-05)
(0.000177838 3.17644e-05 6.89221e-05)
(0.000379434 2.3071e-05 8.06759e-05)
(0.000600327 7.60173e-06 8.82591e-05)
(0.00081381 -1.19421e-05 9.33786e-05)
(0.00100044 -3.16551e-05 9.78878e-05)
(0.00114959 -5.06281e-05 0.000104769)
(-3.75766e-05 -4.23863e-05 -4.97757e-05)
(3.42029e-05 -6.42218e-05 -5.82462e-05)
(0.000184946 -0.000102043 -6.13918e-05)
(0.000386065 -0.000134475 -5.82712e-05)
(0.000606539 -0.000162687 -5.46438e-05)
(0.000819097 -0.00018427 -5.23832e-05)
(0.00100347 -0.000198231 -5.22439e-05)
(0.00114979 -0.000202005 -5.31378e-05)
(-2.13721e-06 -0.000117513 -0.000141499)
(5.67698e-05 -0.000175325 -0.000162299)
(0.000194198 -0.000250828 -0.000197283)
(0.000382914 -0.000304645 -0.000204067)
(0.000593682 -0.000341668 -0.000205837)
(0.000798569 -0.000360131 -0.000206764)
(0.000975948 -0.000362994 -0.00020994)
(0.00111199 -0.000350105 -0.000217978)
(7.53568e-05 -9.75849e-05 -0.000123554)
(0.000135752 -0.000214452 -0.000211965)
(0.00028859 -0.000329959 -0.000262317)
(0.000476659 -0.000405688 -0.000284758)
(0.000685252 -0.000446823 -0.000296578)
(0.000887694 -0.000455561 -0.000305173)
(0.0010637 -0.000439705 -0.000314569)
(0.00120225 -0.0004098 -0.000323426)
(0.000110433 -0.0001293 -9.12128e-05)
(0.000241019 -0.000236744 -0.000166222)
(0.000425174 -0.00035218 -0.000216776)
(0.000637958 -0.000429766 -0.000246438)
(0.000862194 -0.000472282 -0.000266012)
(0.00107612 -0.00048331 -0.000280939)
(0.00125939 -0.000471538 -0.000293026)
(0.00140367 -0.000446726 -0.000299338)
(0.000143514 -0.000162593 -7.07023e-05)
(0.00031388 -0.000268746 -0.000130837)
(0.000533017 -0.000383536 -0.000176976)
(0.000770852 -0.000460569 -0.000209159)
(0.0010131 -0.00050319 -0.000232752)
(0.00123965 -0.000515696 -0.000250923)
(0.00143409 -0.000507384 -0.000263937)
(0.00158775 -0.000486677 -0.00026789)
(0.000168874 -0.000189011 -5.48536e-05)
(0.000368304 -0.000298625 -0.000102988)
(0.000616588 -0.000415941 -0.000142389)
(0.000877661 -0.000492887 -0.00017242)
(0.00113804 -0.00053551 -0.00019601)
(0.00137838 -0.000548948 -0.000214333)
(0.0015833 -0.000542615 -0.000226817)
(0.00174625 -0.000523917 -0.000229344)
(0.000187872 -0.000209035 -4.13416e-05)
(0.000409042 -0.000323481 -7.85794e-05)
(0.000680426 -0.000444673 -0.000110097)
(0.00096121 -0.000522507 -0.00013532)
(0.00123789 -0.000565335 -0.000155902)
(0.00149112 -0.000579157 -0.000172057)
(0.00170584 -0.000573775 -0.000182806)
(0.00187709 -0.000556103 -0.000184714)
(0.000201553 -0.000223514 -2.90018e-05)
(0.000438409 -0.000342445 -5.56401e-05)
(0.000727002 -0.000467456 -7.85858e-05)
(0.00102315 -0.000546558 -9.74481e-05)
(0.00131286 -0.000589731 -0.000113165)
(0.0015766 -0.000603711 -0.000125594)
(0.00179955 -0.000598715 -0.000133798)
(0.00197749 -0.000581503 -0.000135218)
(0.000210472 -0.000232958 -1.72304e-05)
(0.000457563 -0.000355196 -3.32606e-05)
(0.000757618 -0.000483126 -4.71903e-05)
(0.00106419 -0.000563349 -5.88095e-05)
(0.00136291 -0.00060685 -6.8599e-05)
(0.00163401 -0.000620895 -7.63755e-05)
(0.00186277 -0.000616007 -8.14929e-05)
(0.00204534 -0.000598913 -8.23731e-05)
(0.000214887 -0.000237629 -5.71737e-06)
(0.000467044 -0.0003616 -1.10704e-05)
(0.000772827 -0.000491087 -1.5739e-05)
(0.00108465 -0.000571946 -1.96593e-05)
(0.00138797 -0.000615647 -2.29778e-05)
(0.00166285 -0.000629715 -2.56205e-05)
(0.00189454 -0.000624817 -2.73542e-05)
(0.00207943 -0.000607684 -2.76505e-05)
(0.0012645 7.61133e-05 0.000255279)
(0.00146312 7.53593e-05 0.000238549)
(0.00164606 7.15521e-05 0.000213998)
(0.00180872 6.9011e-05 0.00018222)
(0.00194529 6.77298e-05 0.000145646)
(0.00205123 6.74705e-05 0.000105902)
(0.00212344 6.77006e-05 6.42307e-05)
(0.00216001 6.8003e-05 2.15215e-05)
(0.00130041 -6.50959e-05 9.91351e-05)
(0.00150032 -7.43021e-05 9.43465e-05)
(0.00168742 -8.79338e-05 8.54082e-05)
(0.00185313 -0.000100809 7.26342e-05)
(0.00199165 -0.000111478 5.77659e-05)
(0.00209876 -0.000119441 4.17706e-05)
(0.00217157 -0.000124674 2.52146e-05)
(0.00220836 -0.000127282 8.42447e-06)
(0.00130292 -0.000206987 -4.45825e-05)
(0.00150468 -0.000232238 -3.77154e-05)
(0.00169371 -0.000258282 -3.34915e-05)
(0.00186007 -0.000282354 -2.91304e-05)
(0.00199858 -0.000302625 -2.39791e-05)
(0.00210542 -0.000318301 -1.79214e-05)
(0.0021779 -0.000328916 -1.11141e-05)
(0.00221445 -0.000334276 -3.77331e-06)
(0.00127085 -0.000353462 -0.000204908)
(0.0014767 -0.000390388 -0.000185572)
(0.00166534 -0.000426956 -0.000165839)
(0.00182962 -0.000461258 -0.000142069)
(0.00196589 -0.000490593 -0.000114509)
(0.00207083 -0.000513565 -8.39267e-05)
(0.00214192 -0.000529212 -5.12326e-05)
(0.00217774 -0.000537079 -1.72316e-05)
)
;
    }
    symmetry
    {
        type            symmetryPlane;
    }
    bottom
    {
        type            calculated;
        value           uniform (0 0 0);
    }
}


// ************************************************************************* //
