/*--------------------------------*- C++ -*----------------------------------*\
| =========                 |                                                 |
| \\      /  F ield         | foam-extend: Open Source CFD                    |
|  \\    /   O peration     | Version:     3.1                                |
|   \\  /    A nd           | Web:         http://www.extend-project.de       |
|    \\/     M anipulation  |                                                 |
\*---------------------------------------------------------------------------*/
FoamFile
{
    version     2.0;
    format      ascii;
    class       surfaceScalarField;
    location    "0.4";
    object      meshPhi;
}
// * * * * * * * * * * * * * * * * * * * * * * * * * * * * * * * * * * * * * //

dimensions      [0 3 -1 0 0 0 0];

internalField   nonuniform List<scalar> 
41600
(
1.26604e-07
1.78724e-08
1.59478e-09
-1.63748e-09
2.43884e-07
5.29248e-08
4.76266e-09
-4.89089e-09
3.50893e-07
8.70186e-08
7.96441e-09
-8.18066e-09
4.50394e-07
1.21495e-07
1.1397e-08
-1.17092e-08
5.4467e-07
1.58156e-07
1.53047e-08
-1.57268e-08
6.35543e-07
1.9882e-07
1.99497e-08
-2.05016e-08
7.24343e-07
2.45463e-07
2.56377e-08
-2.6346e-08
8.1177e-07
3.00376e-07
3.27523e-08
-3.36505e-08
8.97657e-07
3.66326e-07
4.18062e-08
-4.29364e-08
9.80595e-07
4.46745e-07
5.35292e-08
-5.49443e-08
1.05746e-06
5.45934e-07
6.90282e-08
-7.07941e-08
1.12303e-06
6.69282e-07
9.00803e-08
-9.22774e-08
1.17024e-06
8.23236e-07
1.19615e-07
-1.22335e-07
1.19243e-06
1.01345e-06
1.62024e-07
-1.65443e-07
1.18778e-06
1.23027e-06
2.19531e-07
-2.25225e-07
1.79659e-06
3.65871e-07
-5.08289e-07
3.77703e-07
3.49753e-08
4.72247e-09
-4.84914e-09
7.27547e-07
1.03538e-07
1.41001e-08
-1.44804e-08
1.04669e-06
1.70134e-07
2.35664e-08
-2.42074e-08
1.34338e-06
2.37334e-07
3.36932e-08
-3.46179e-08
1.62442e-06
3.08588e-07
4.51896e-08
-4.64387e-08
1.89529e-06
3.87334e-07
5.88103e-08
-6.04421e-08
2.16006e-06
4.77259e-07
7.5425e-08
-7.75164e-08
2.421e-06
5.82565e-07
9.61069e-08
-9.87549e-08
2.67795e-06
7.08215e-07
1.22259e-07
-1.25584e-07
2.92719e-06
8.60167e-07
1.55815e-07
-1.59969e-07
3.16005e-06
1.0455e-06
1.99587e-07
-2.04759e-07
3.36149e-06
1.27219e-06
2.5783e-07
-2.64253e-07
3.51025e-06
1.54776e-06
3.3701e-07
-3.44961e-07
3.58389e-06
1.87361e-06
4.4561e-07
-4.55568e-07
3.57241e-06
2.22035e-06
5.84723e-07
-6.00031e-07
2.7805e-06
8.56751e-07
-1.08078e-06
6.22557e-07
5.05618e-08
7.68348e-09
-7.89014e-09
1.19906e-06
1.4961e-07
2.29316e-08
-2.35518e-08
1.72476e-06
2.45627e-07
3.82904e-08
-3.93351e-08
2.21322e-06
3.42205e-07
5.46608e-08
-5.61659e-08
2.67567e-06
4.44162e-07
7.3157e-08
-7.51872e-08
3.12129e-06
5.5621e-07
9.49468e-08
-9.75939e-08
3.55705e-06
6.83302e-07
1.21347e-07
-1.24731e-07
3.98731e-06
8.30933e-07
1.53933e-07
-1.58206e-07
4.41278e-06
1.0054e-06
1.94681e-07
-2.00027e-07
4.82895e-06
1.21392e-06
2.46159e-07
-2.52808e-07
5.22376e-06
1.46451e-06
3.11804e-07
-3.20037e-07
5.575e-06
1.76496e-06
3.96239e-07
-4.06407e-07
5.84908e-06
2.11995e-06
5.05348e-07
-5.17877e-07
6.00649e-06
2.52264e-06
6.44423e-07
-6.59962e-07
6.02322e-06
2.92739e-06
8.068e-07
-8.28454e-07
3.54769e-06
1.03418e-06
-1.18898e-06
8.5718e-07
6.39788e-08
1.03911e-08
-1.06716e-08
1.65067e-06
1.89204e-07
3.09947e-08
-3.1836e-08
2.37379e-06
3.10294e-07
5.16869e-08
-5.31024e-08
3.0451e-06
4.31594e-07
7.36329e-08
-7.56693e-08
3.6801e-06
5.58919e-07
9.8271e-08
-1.01012e-07
4.2916e-06
6.97831e-07
1.27076e-07
-1.30641e-07
4.88972e-06
8.54006e-07
1.61664e-07
-1.66207e-07
5.48146e-06
1.03353e-06
2.03889e-07
-2.096e-07
6.06971e-06
1.24313e-06
2.55947e-07
-2.63057e-07
6.65135e-06
1.49013e-06
3.20473e-07
-3.29252e-07
7.21442e-06
1.78209e-06
4.00581e-07
-4.11356e-07
7.73438e-06
2.12527e-06
4.99729e-07
-5.12889e-07
8.17085e-06
2.52095e-06
6.20932e-07
-6.36937e-07
8.47046e-06
2.95628e-06
7.63938e-07
-7.83392e-07
8.58867e-06
3.37855e-06
9.15814e-07
-9.40794e-07
3.99281e-06
1.09068e-06
-1.21571e-06
1.07785e-06
7.47094e-08
1.27779e-08
-1.31242e-08
2.07515e-06
2.20798e-07
3.80865e-08
-3.91246e-08
2.9832e-06
3.61657e-07
6.3413e-08
-6.51575e-08
3.82516e-06
5.02082e-07
9.0114e-08
-9.26187e-08
4.62044e-06
6.48486e-07
1.1986e-07
-1.23223e-07
5.38531e-06
8.06828e-07
1.54324e-07
-1.58684e-07
6.1331e-06
9.82963e-07
1.95272e-07
-2.00806e-07
6.87397e-06
1.18291e-06
2.4464e-07
-2.51562e-07
7.61407e-06
1.41298e-06
3.04571e-07
-3.13131e-07
8.35394e-06
1.67976e-06
3.77391e-07
-3.87867e-07
9.08564e-06
1.98954e-06
4.65428e-07
-4.78133e-07
9.78842e-06
2.34689e-06
5.70516e-07
-5.85784e-07
1.04229e-05
2.75101e-06
6.92745e-07
-7.10925e-07
1.09265e-05
3.18697e-06
8.27658e-07
-8.49129e-07
1.12226e-05
3.60077e-06
9.59971e-07
-9.85875e-07
4.18414e-06
1.08772e-06
-1.17792e-06
1.28124e-06
8.2392e-08
1.47991e-08
-1.52019e-08
2.46608e-06
2.43339e-07
4.40749e-08
-4.52814e-08
3.54364e-06
3.98046e-07
7.32518e-08
-7.52765e-08
4.5411e-06
5.51465e-07
1.03804e-07
-1.06705e-07
5.48127e-06
7.10215e-07
1.37547e-07
-1.4143e-07
6.38351e-06
8.8023e-07
1.76246e-07
-1.81262e-07
7.26413e-06
1.06706e-06
2.217e-07
-2.28039e-07
8.13645e-06
1.27609e-06
2.75782e-07
-2.83667e-07
9.01045e-06
1.51259e-06
3.40422e-07
-3.50099e-07
9.89168e-06
1.78166e-06
4.1749e-07
-4.29219e-07
1.07791e-05
2.08782e-06
5.08498e-07
-5.22528e-07
1.16613e-05
2.4341e-06
6.13954e-07
-6.30492e-07
1.25084e-05
2.8196e-06
7.3208e-07
-7.5125e-07
1.3259e-05
3.23245e-06
8.56473e-07
-8.78308e-07
1.37992e-05
3.62485e-06
9.71996e-07
-9.96981e-07
4.17478e-06
1.06882e-06
-1.13332e-06
1.46457e-06
8.68217e-08
1.64338e-08
-1.68831e-08
2.81804e-06
2.56253e-07
4.88993e-08
-5.02439e-08
4.04727e-06
4.18609e-07
8.11117e-08
-8.33645e-08
5.18264e-06
5.78742e-07
1.14595e-07
-1.17815e-07
6.24972e-06
7.43134e-07
1.51226e-07
-1.55524e-07
7.27029e-06
9.17347e-07
1.92784e-07
-1.98314e-07
8.26302e-06
1.10626e-06
2.41009e-07
-2.47963e-07
9.24386e-06
1.31418e-06
2.97623e-07
-3.06222e-07
1.02261e-05
1.54485e-06
3.64274e-07
-3.74751e-07
1.12199e-05
1.80132e-06
4.42387e-07
-4.54961e-07
1.22314e-05
2.08568e-06
5.32833e-07
-5.47675e-07
1.32603e-05
2.39881e-06
6.35343e-07
-6.52508e-07
1.42926e-05
2.73983e-06
7.47498e-07
-7.66836e-07
1.52835e-05
3.10396e-06
8.63077e-07
-8.84171e-07
1.61058e-05
3.46349e-06
9.69165e-07
-9.91857e-07
4.01869e-06
1.05521e-06
-1.10056e-06
1.62561e-06
1.76828e-08
-1.81682e-08
8.79408e-08
3.12686e-06
5.25659e-08
-5.40177e-08
2.59403e-07
4.48813e-06
8.70162e-08
-8.94444e-08
4.23236e-07
5.74217e-06
1.22548e-07
-1.2601e-07
5.83988e-07
6.91642e-06
1.61034e-07
-1.6564e-07
7.47729e-07
8.03423e-06
2.04199e-07
-2.10101e-07
9.19401e-07
9.11572e-06
2.53666e-07
-2.61053e-07
1.10297e-06
1.01783e-05
3.10958e-07
-3.2004e-07
1.30145e-06
1.1237e-05
3.7743e-07
-3.88419e-07
1.51676e-06
1.23045e-05
4.5411e-07
-4.67188e-07
1.74947e-06
1.33909e-05
5.41411e-07
-5.56683e-07
1.99839e-06
1.4502e-05
6.38665e-07
-6.56077e-07
2.26005e-06
1.56344e-05
7.43412e-07
-7.62649e-07
2.5277e-06
1.67594e-05
8.50312e-07
-8.70725e-07
2.78821e-06
1.77741e-05
9.48948e-07
-9.70117e-07
3.00385e-06
1.04416e-06
-1.07774e-06
3.61713e-06
1.28549e-07
1.87306e-08
1.4931e-09
2.47657e-07
5.54961e-08
4.45843e-09
3.56403e-07
9.13454e-08
7.45395e-09
4.57637e-07
1.27745e-07
1.06632e-08
5.53708e-07
1.6665e-07
1.43136e-08
6.46491e-07
2.10048e-07
1.86476e-08
7.37334e-07
2.60113e-07
2.39455e-08
8.26922e-07
3.1938e-07
3.05523e-08
9.15026e-07
3.90929e-07
3.89166e-08
1.00013e-06
4.78598e-07
4.96487e-08
1.079e-06
5.87215e-07
6.36119e-08
1.14645e-06
7.22821e-07
8.20497e-08
1.19603e-06
8.92505e-07
1.06662e-07
1.223e-06
1.10191e-06
1.39105e-07
1.2298e-06
1.33946e-06
1.77651e-07
1.79047e-06
2.49424e-07
3.83491e-07
3.66513e-08
4.42126e-09
7.38772e-07
1.08556e-07
1.31991e-08
1.06308e-06
1.78571e-07
2.20555e-08
1.36491e-06
2.49506e-07
3.15234e-08
1.65128e-06
3.25102e-07
4.22627e-08
1.92783e-06
4.09116e-07
5.49723e-08
2.19867e-06
5.05606e-07
7.04496e-08
2.46605e-06
6.19218e-07
8.96617e-08
2.7296e-06
7.55473e-07
1.13837e-07
2.98527e-06
9.21021e-07
1.44597e-07
3.22394e-06
1.12379e-06
1.84129e-07
3.4304e-06
1.37266e-06
2.3538e-07
3.58433e-06
1.67575e-06
3.01946e-07
3.66725e-06
2.03352e-06
3.86316e-07
3.67945e-06
2.41331e-06
4.81769e-07
2.86968e-06
6.18673e-07
6.32048e-07
5.29767e-08
7.19313e-09
1.21746e-06
1.56836e-07
2.14655e-08
1.75161e-06
2.57761e-07
3.58345e-08
2.24848e-06
3.59677e-07
5.11393e-08
2.71966e-06
4.67807e-07
6.84178e-08
3.17456e-06
5.87302e-07
8.87518e-08
3.62029e-06
7.2361e-07
1.13351e-07
4.06114e-06
8.8281e-07
1.43637e-07
4.49754e-06
1.07189e-06
1.81348e-07
4.92437e-06
1.29893e-06
2.28637e-07
5.32866e-06
1.57285e-06
2.88167e-07
5.68723e-06
1.90229e-06
3.63036e-07
5.9664e-06
2.29205e-06
4.56048e-07
6.12966e-06
2.73335e-06
5.66748e-07
6.16469e-06
3.17709e-06
6.82416e-07
3.67419e-06
8.04604e-07
8.70143e-07
6.70217e-08
9.72746e-09
1.67579e-06
1.98302e-07
2.90116e-08
2.41042e-06
3.25546e-07
4.83693e-08
3.09319e-06
4.53503e-07
6.88863e-08
3.74007e-06
5.8848e-07
9.19024e-08
4.36422e-06
7.36555e-07
1.18786e-07
4.97596e-06
9.03971e-07
1.51023e-07
5.58228e-06
1.09747e-06
1.90295e-07
6.1857e-06
1.32451e-06
2.38541e-07
6.78232e-06
1.59331e-06
2.97975e-07
7.35879e-06
1.91228e-06
3.70985e-07
7.88862e-06
2.28838e-06
4.59703e-07
8.32945e-06
2.72262e-06
5.64713e-07
8.62807e-06
3.19974e-06
6.81725e-07
8.74934e-06
3.66418e-06
7.94566e-07
4.15347e-06
8.95477e-07
1.09397e-06
7.82455e-08
1.19609e-08
2.10637e-06
2.31359e-07
3.56473e-08
3.02871e-06
3.7933e-07
5.93391e-08
3.88485e-06
5.27404e-07
8.43003e-08
4.69482e-06
6.82536e-07
1.12088e-07
5.47535e-06
8.51239e-07
1.44256e-07
6.24008e-06
1.03996e-06
1.82433e-07
6.99919e-06
1.25536e-06
2.28382e-07
7.75855e-06
1.50449e-06
2.84008e-07
8.51784e-06
1.79474e-06
3.51274e-07
9.26748e-06
2.13319e-06
4.31939e-07
9.98394e-06
2.52498e-06
5.26877e-07
1.06239e-05
2.96902e-06
6.34585e-07
1.11212e-05
3.448e-06
7.48218e-07
1.14024e-05
3.90557e-06
8.51072e-07
4.36518e-06
9.32268e-07
1.30015e-06
8.62703e-08
1.38519e-08
2.50266e-06
2.54912e-07
4.12491e-08
3.59691e-06
4.17374e-07
6.85409e-08
4.61089e-06
5.79082e-07
9.7101e-08
5.56815e-06
7.47218e-07
1.28621e-07
6.48861e-06
9.28267e-07
1.64745e-07
7.38896e-06
1.12835e-06
2.07135e-07
8.2827e-06
1.35343e-06
2.57507e-07
9.17964e-06
1.60946e-06
3.17588e-07
1.00846e-05
1.9022e-06
3.88977e-07
1.09949e-05
2.2369e-06
4.72791e-07
1.18961e-05
2.61714e-06
5.68945e-07
1.27534e-05
3.04199e-06
6.74768e-07
1.34975e-05
3.49799e-06
7.82643e-07
1.4008e-05
3.93557e-06
8.76994e-07
4.3678e-06
9.46914e-07
1.48583e-06
9.08852e-08
1.53808e-08
2.85915e-06
2.68366e-07
4.57607e-08
4.10705e-06
4.38803e-07
7.58897e-08
5.26085e-06
6.07517e-07
1.07187e-07
6.34692e-06
7.81544e-07
1.41405e-07
7.38769e-06
9.66968e-07
1.80198e-07
8.40231e-06
1.16917e-06
2.25182e-07
9.40702e-06
1.39298e-06
2.77941e-07
1.04151e-05
1.64265e-06
3.39968e-07
1.14361e-05
1.92176e-06
4.12496e-07
1.24752e-05
2.23294e-06
4.96159e-07
1.3529e-05
2.57755e-06
5.90372e-07
1.45787e-05
2.95509e-06
6.92281e-07
1.55701e-05
3.36066e-06
7.95112e-07
1.63588e-05
3.7673e-06
8.85817e-07
4.21599e-06
9.56868e-07
1.64877e-06
1.65485e-08
9.20335e-08
3.17159e-06
4.91883e-08
2.71592e-07
4.55308e-06
8.14079e-08
4.43523e-07
5.82698e-06
1.14618e-07
6.1282e-07
7.02158e-06
1.50565e-07
7.86074e-07
8.16095e-06
1.90858e-07
9.687e-07
9.26573e-06
2.37006e-07
1.16509e-06
1.03537e-05
2.90418e-07
1.37866e-06
1.144e-05
3.52332e-07
1.61168e-06
1.2537e-05
4.23656e-07
1.86504e-06
1.36538e-05
5.04672e-07
2.13777e-06
1.47942e-05
5.94568e-07
2.42645e-06
1.59505e-05
6.90699e-07
2.72404e-06
1.70853e-05
7.87459e-07
3.01624e-06
1.80766e-05
8.7425e-07
3.26286e-06
9.59951e-07
3.78005e-06
1.30249e-07
1.95024e-08
1.33671e-09
2.50959e-07
5.78051e-08
3.9909e-09
3.61229e-07
9.52193e-08
6.67055e-09
4.63973e-07
1.33311e-07
9.53861e-09
5.61596e-07
1.74156e-07
1.27961e-08
6.56004e-07
2.19858e-07
1.66549e-08
7.48558e-07
2.72718e-07
2.1355e-08
8.39926e-07
3.35392e-07
2.71818e-08
9.29834e-07
4.1107e-07
3.44867e-08
1.01671e-06
5.03643e-07
4.37088e-08
1.09731e-06
6.17839e-07
5.53924e-08
1.16665e-06
7.59176e-07
7.01693e-08
1.2189e-06
9.33239e-07
8.8605e-08
1.25056e-06
1.1422e-06
1.10602e-07
1.26469e-06
1.36982e-06
1.33587e-07
1.81413e-06
1.68132e-07
3.8855e-07
3.8159e-08
3.9581e-09
7.48597e-07
1.13065e-07
1.18149e-08
1.07744e-06
1.86129e-07
1.97375e-08
1.38376e-06
2.60353e-07
2.81989e-08
1.67473e-06
3.39705e-07
3.77833e-08
1.95611e-06
4.28167e-07
4.91014e-08
2.23203e-06
5.30024e-07
6.28373e-08
2.50469e-06
6.50144e-07
7.9793e-08
2.77359e-06
7.94229e-07
1.00934e-07
3.03446e-06
9.6899e-07
1.27429e-07
3.27805e-06
1.18207e-06
1.60649e-07
3.48946e-06
1.44124e-06
2.02031e-07
3.6498e-06
1.75163e-06
2.5251e-07
3.74358e-06
2.10722e-06
3.10772e-07
3.77315e-06
2.46721e-06
3.68992e-07
2.8728e-06
4.34715e-07
6.40345e-07
5.51499e-08
6.43949e-09
1.23357e-06
1.63331e-07
1.92141e-08
1.77514e-06
2.68635e-07
3.20682e-08
2.27936e-06
3.75256e-07
4.57471e-08
2.75807e-06
4.88735e-07
6.11695e-08
3.22087e-06
6.14527e-07
7.92832e-08
3.67492e-06
7.58384e-07
1.01128e-07
4.12443e-06
9.26663e-07
1.2789e-07
4.56956e-06
1.12656e-06
1.60941e-07
5.0048e-06
1.36616e-06
2.01838e-07
5.41669e-06
1.65385e-06
2.5222e-07
5.78194e-06
1.99659e-06
3.13418e-07
6.06798e-06
2.39492e-06
3.85397e-07
6.2415e-06
2.83141e-06
4.64248e-07
6.29367e-06
3.24679e-06
5.37744e-07
3.6704e-06
5.98515e-07
8.81479e-07
6.9761e-08
8.70807e-09
1.69779e-06
2.06482e-07
2.59683e-08
2.44253e-06
3.39222e-07
4.32854e-08
3.13531e-06
4.73056e-07
6.1624e-08
3.79244e-06
6.14672e-07
8.21715e-08
4.42734e-06
7.70508e-07
1.06129e-07
5.05043e-06
9.47151e-07
1.3478e-07
5.66858e-06
1.15164e-06
1.69534e-07
6.28396e-06
1.39162e-06
2.11936e-07
6.89201e-06
1.67521e-06
2.63591e-07
7.47841e-06
2.01011e-06
3.25918e-07
8.01571e-06
2.40111e-06
3.9952e-07
8.46136e-06
2.84418e-06
4.82798e-07
8.76417e-06
3.31425e-06
5.69395e-07
8.89381e-06
3.74474e-06
6.45075e-07
4.1501e-06
6.99516e-07
1.10807e-06
8.14297e-08
1.07071e-08
2.13373e-06
2.4086e-07
3.19071e-08
3.06861e-06
3.95187e-07
5.31015e-08
3.93714e-06
5.50022e-07
7.54141e-08
4.7598e-06
7.12738e-07
1.00226e-07
5.55364e-06
8.90234e-07
1.28905e-07
6.33242e-06
1.0893e-06
1.62865e-07
7.10626e-06
1.3169e-06
2.03594e-07
7.88058e-06
1.58021e-06
2.52626e-07
8.65419e-06
1.88642e-06
3.11394e-07
9.41608e-06
2.24177e-06
3.80884e-07
1.01407e-05
2.649e-06
4.60873e-07
1.07828e-05
3.10172e-06
5.4852e-07
1.1276e-05
3.57247e-06
6.36176e-07
1.15525e-05
3.99371e-06
7.09607e-07
4.36663e-06
7.59172e-07
1.3167e-06
8.97647e-08
1.23994e-08
2.53473e-06
2.65328e-07
3.69199e-08
3.64364e-06
4.34731e-07
6.1335e-08
4.67208e-06
6.03776e-07
8.68661e-08
5.64411e-06
7.8008e-07
1.15016e-07
6.58003e-06
9.70515e-07
1.47235e-07
7.49675e-06
1.18153e-06
1.84975e-07
8.40771e-06
1.41934e-06
2.29694e-07
9.32226e-06
1.68994e-06
2.82803e-07
1.02443e-05
1.99887e-06
3.45483e-07
1.11693e-05
2.35041e-06
4.18303e-07
1.20801e-05
2.74581e-06
5.00497e-07
1.29378e-05
3.179e-06
5.88731e-07
1.36703e-05
3.62679e-06
6.75382e-07
1.41622e-05
4.02851e-06
7.47283e-07
4.37697e-06
7.96608e-07
1.50445e-06
9.45489e-08
1.37674e-08
2.8952e-06
2.79277e-07
4.09566e-08
4.15952e-06
4.56952e-07
6.79095e-08
5.32946e-06
6.33274e-07
9.58891e-08
6.43197e-06
8.15704e-07
1.26453e-07
7.48992e-06
1.01069e-06
1.61066e-07
8.52273e-06
1.22391e-06
2.01143e-07
9.54661e-06
1.46036e-06
2.48046e-07
1.05744e-05
1.72432e-06
3.0301e-07
1.16149e-05
2.01901e-06
3.66963e-07
1.2671e-05
2.34614e-06
4.40178e-07
1.37365e-05
2.70488e-06
5.21689e-07
1.47871e-05
3.09014e-06
6.0838e-07
1.57625e-05
3.48833e-06
6.93773e-07
1.65213e-05
3.86195e-06
7.66776e-07
4.23389e-06
8.23369e-07
1.66906e-06
1.48119e-08
9.57264e-08
3.21085e-06
4.40226e-08
2.82581e-07
4.61016e-06
7.28455e-08
4.61773e-07
5.90148e-06
1.02535e-07
6.38656e-07
7.11375e-06
1.34649e-07
8.20227e-07
8.27151e-06
1.7061e-07
1.01223e-06
9.39571e-06
2.11748e-07
1.21929e-06
1.05041e-05
2.59283e-07
1.44495e-06
1.16116e-05
3.14254e-07
1.6914e-06
1.27296e-05
3.77353e-07
1.95915e-06
1.38655e-05
4.48641e-07
2.24628e-06
1.50199e-05
5.27104e-07
2.5474e-06
1.61795e-05
6.10013e-07
2.8516e-06
1.72997e-05
6.92059e-07
3.13766e-06
1.82576e-05
7.63991e-07
3.35645e-06
8.3646e-07
3.80465e-06
1.3169e-07
2.01687e-08
1.13177e-09
2.53759e-07
5.97952e-08
3.37856e-09
3.65319e-07
9.85462e-08
5.64545e-09
4.69337e-07
1.38063e-07
8.06892e-09
5.68255e-07
1.80507e-07
1.08164e-08
6.64002e-07
2.28055e-07
1.40616e-08
7.57946e-07
2.83064e-07
1.79959e-08
8.50739e-07
3.48218e-07
2.28372e-08
9.42078e-07
4.2667e-07
2.88342e-08
1.03037e-06
5.22158e-07
3.62622e-08
1.1124e-06
6.39032e-07
4.53945e-08
1.18337e-06
7.82071e-07
5.64242e-08
1.23789e-06
9.55643e-07
6.9277e-08
1.27303e-06
1.16064e-06
8.32273e-08
1.29156e-06
1.38153e-06
9.62178e-08
1.8314e-06
1.12899e-07
3.92838e-07
3.94611e-08
3.35123e-09
7.56929e-07
1.16952e-07
1.00021e-08
1.0896e-06
1.92622e-07
1.67044e-08
1.39971e-06
2.69617e-07
2.38547e-08
1.69453e-06
3.52069e-07
3.19395e-08
1.97988e-06
4.44097e-07
4.14603e-08
2.25992e-06
5.5009e-07
5.29641e-08
2.53681e-06
6.74955e-07
6.70646e-08
2.80992e-06
8.24309e-07
8.4449e-08
3.0749e-06
1.00454e-06
1.0585e-07
3.32252e-06
1.22253e-06
1.31943e-07
3.53827e-06
1.48455e-06
1.63083e-07
3.70432e-06
1.79325e-06
1.98727e-07
3.80665e-06
2.13978e-06
2.3635e-07
3.847e-06
2.4838e-06
2.6993e-07
2.87102e-06
3.01129e-07
6.4738e-07
5.70274e-08
5.45215e-09
1.24723e-06
1.68932e-07
1.6266e-08
1.79509e-06
2.77981e-07
2.71408e-08
2.3055e-06
3.88572e-07
3.87013e-08
2.7905e-06
5.0647e-07
5.17137e-08
3.25979e-06
6.37321e-07
6.6958e-08
3.72057e-06
7.87006e-07
8.52686e-08
4.17696e-06
9.61918e-07
1.07559e-07
4.62892e-06
1.16911e-06
1.34811e-07
5.07067e-06
1.41614e-06
1.68004e-07
5.4886e-06
1.71031e-06
2.07902e-07
5.85963e-06
2.05634e-06
2.54584e-07
6.15229e-06
2.45123e-06
3.06516e-07
6.3351e-06
2.87332e-06
3.59068e-07
6.3991e-06
3.2635e-06
4.03194e-07
3.65232e-06
4.32665e-07
8.91093e-07
7.21285e-08
7.37288e-09
1.71645e-06
2.1354e-07
2.1984e-08
2.46977e-06
3.50984e-07
3.66354e-08
3.17097e-06
4.89782e-07
5.2136e-08
3.83666e-06
6.36893e-07
6.94778e-08
4.48039e-06
7.98976e-07
8.96521e-08
5.11263e-06
9.8276e-07
1.13694e-07
5.74011e-06
1.1953e-06
1.42697e-07
6.36471e-06
1.44402e-06
1.7778e-07
6.98137e-06
1.73637e-06
2.19954e-07
7.57524e-06
2.07863e-06
2.6981e-07
8.11858e-06
2.4729e-06
3.26892e-07
8.56938e-06
2.91083e-06
3.88596e-07
8.87823e-06
3.3624e-06
4.48702e-07
9.01614e-06
3.76119e-06
4.96815e-07
4.12239e-06
5.25577e-07
1.12004e-06
8.41831e-08
9.06538e-09
2.15694e-06
2.49062e-07
2.70118e-08
3.10246e-06
4.08836e-07
4.49446e-08
3.98144e-06
5.69388e-07
6.38069e-08
4.81469e-06
7.38393e-07
8.4755e-08
5.61945e-06
9.22983e-07
1.0892e-07
6.40954e-06
1.13009e-06
1.3745e-07
7.19491e-06
1.36665e-06
1.71512e-07
7.98059e-06
1.63956e-06
2.1223e-07
8.76466e-06
1.95524e-06
2.60514e-07
9.53514e-06
2.3183e-06
3.16687e-07
1.02655e-05
2.72856e-06
3.79809e-07
1.091e-05
3.17499e-06
4.46601e-07
1.14037e-05
3.62493e-06
5.10202e-07
1.16822e-05
4.01118e-06
5.60138e-07
4.33631e-06
5.90113e-07
1.33074e-06
9.27881e-08
1.04981e-08
2.56196e-06
2.74328e-07
3.12555e-08
3.68331e-06
4.49682e-07
5.19144e-08
4.72393e-06
6.24941e-07
7.35008e-08
5.70829e-06
8.08032e-07
9.72744e-08
6.65692e-06
1.00606e-06
1.2444e-07
7.58679e-06
1.22559e-06
1.56182e-07
8.51117e-06
1.47279e-06
1.93657e-07
9.43894e-06
1.75333e-06
2.37918e-07
1.0373e-05
2.07188e-06
2.89722e-07
1.13078e-05
2.43109e-06
3.49171e-07
1.22239e-05
2.82922e-06
4.15087e-07
1.30815e-05
3.25568e-06
4.84106e-07
1.38085e-05
3.68217e-06
5.49677e-07
1.42951e-05
4.04841e-06
6.01936e-07
4.34968e-06
6.36198e-07
1.52025e-06
9.77211e-08
1.16561e-08
2.92583e-06
2.88712e-07
3.46728e-08
4.2041e-06
4.72602e-07
5.74801e-08
5.38767e-06
6.55375e-07
8.11397e-08
6.50392e-06
8.44803e-07
1.06959e-07
7.576e-06
1.04755e-06
1.36159e-07
8.62341e-06
1.26939e-06
1.69903e-07
9.66222e-06
1.51524e-06
2.09281e-07
1.07047e-05
1.789e-06
2.5523e-07
1.17588e-05
2.09306e-06
3.08357e-07
1.28257e-05
2.42749e-06
3.68627e-07
1.38968e-05
2.7887e-06
4.3487e-07
1.49456e-05
3.16742e-06
5.04118e-07
1.5911e-05
3.54534e-06
5.709e-07
1.66578e-05
3.88509e-06
6.26734e-07
4.21306e-06
6.70016e-07
1.6863e-06
1.25403e-08
9.89261e-08
3.24423e-06
3.72682e-08
2.92091e-07
4.65869e-06
6.16586e-08
4.77523e-07
5.96475e-06
8.67673e-08
6.60852e-07
7.19182e-06
1.13902e-07
8.49365e-07
8.36475e-06
1.44254e-07
1.049e-06
9.50459e-06
1.78921e-07
1.26447e-06
1.0629e-05
2.1889e-07
1.49918e-06
1.17523e-05
2.64961e-07
1.75497e-06
1.2885e-05
3.17592e-07
2.0315e-06
1.40327e-05
3.7665e-07
2.32539e-06
1.51936e-05
4.41034e-07
2.62883e-06
1.63516e-05
5.08204e-07
2.92736e-06
1.74605e-05
5.73638e-07
3.19582e-06
1.8402e-05
6.30019e-07
3.38454e-06
6.87654e-07
3.79144e-06
1.32858e-07
2.07148e-08
8.86082e-10
2.56029e-07
6.14237e-08
2.64479e-09
3.68633e-07
1.01259e-07
4.41812e-09
4.73675e-07
1.41914e-07
6.31173e-09
5.73625e-07
1.85607e-07
8.45441e-09
6.70429e-07
2.34551e-07
1.09777e-08
7.65454e-07
2.91115e-07
1.40221e-08
8.59342e-07
3.57948e-07
1.77402e-08
9.5177e-07
4.38099e-07
2.22919e-08
1.04113e-06
5.35083e-07
2.78274e-08
1.12426e-06
6.52872e-07
3.44458e-08
1.19645e-06
7.95701e-07
4.21141e-08
1.25255e-06
9.67412e-07
5.0532e-08
1.28975e-06
1.16899e-06
5.89579e-08
1.3104e-06
1.3866e-06
6.60711e-08
1.84281e-06
7.41597e-08
3.96316e-07
4.05285e-08
2.62375e-09
7.63684e-07
1.20133e-07
7.82983e-09
1.09946e-06
1.97917e-07
1.3073e-08
1.41261e-06
2.77127e-07
1.86604e-08
1.7105e-06
3.62002e-07
2.49664e-08
1.99898e-06
4.56731e-07
3.23712e-08
2.28222e-06
5.65718e-07
4.12776e-08
2.56234e-06
6.93802e-07
5.21169e-08
2.83865e-06
8.46384e-07
6.53325e-08
3.10674e-06
1.02941e-06
8.13248e-08
3.35743e-06
1.249e-06
1.00322e-07
3.57649e-06
1.51033e-06
1.22134e-07
3.74662e-06
1.81484e-06
1.45751e-07
3.85418e-06
2.15343e-06
1.68848e-07
3.89979e-06
2.4883e-06
1.87573e-07
2.87086e-06
2.0231e-07
6.53085e-07
5.85672e-08
4.26862e-09
1.25831e-06
1.73519e-07
1.27336e-08
1.81125e-06
2.85607e-07
2.12413e-08
2.32663e-06
3.99374e-07
3.0276e-08
2.81664e-06
5.2073e-07
4.04282e-08
3.29105e-06
6.55418e-07
5.22901e-08
3.75705e-06
8.09332e-07
6.64791e-08
4.21868e-06
9.88754e-07
8.36409e-08
4.67579e-06
1.20041e-06
1.04415e-07
5.1224e-06
1.45122e-06
1.29334e-07
5.54488e-06
1.74735e-06
1.58608e-07
5.92037e-06
2.09191e-06
1.91721e-07
6.21802e-06
2.48002e-06
2.26816e-07
6.40693e-06
2.88928e-06
2.60026e-07
6.47699e-06
3.2636e-06
2.85572e-07
3.63858e-06
2.99743e-07
8.98892e-07
7.4071e-08
5.77246e-09
1.73159e-06
2.19323e-07
1.72101e-08
2.49183e-06
3.60587e-07
2.86732e-08
3.19982e-06
5.0336e-07
4.07892e-08
3.87232e-06
6.54779e-07
5.43236e-08
4.523e-06
8.21611e-07
7.00315e-08
5.16231e-06
1.01059e-06
8.86829e-08
5.79688e-06
1.22861e-06
1.11058e-07
6.42834e-06
1.4827e-06
1.37893e-07
7.0513e-06
1.77946e-06
1.69737e-07
7.65065e-06
2.12379e-06
2.06668e-07
8.19862e-06
2.51573e-06
2.47791e-07
8.6537e-06
2.94461e-06
2.90525e-07
8.96728e-06
3.37933e-06
3.29964e-07
9.11015e-06
3.75701e-06
3.5938e-07
4.09783e-06
3.74557e-07
1.12975e-06
8.64434e-08
7.09764e-09
2.17578e-06
2.55786e-07
2.11465e-08
3.1299e-06
4.19987e-07
3.51781e-08
4.01728e-06
5.85123e-07
4.99244e-08
4.85896e-06
7.59068e-07
6.62793e-08
5.67231e-06
9.49065e-07
8.51077e-08
6.47112e-06
1.16204e-06
1.07269e-07
7.2652e-06
1.40473e-06
1.33603e-07
8.05922e-06
1.68355e-06
1.64863e-07
8.85077e-06
2.00397e-06
2.01544e-07
9.62728e-06
2.36904e-06
2.43574e-07
1.03618e-05
2.7763e-06
2.8979e-07
1.10088e-05
3.21215e-06
3.37257e-07
1.15044e-05
3.64275e-06
3.80716e-07
1.17854e-05
4.00475e-06
4.13214e-07
4.30614e-06
4.31253e-07
1.34214e-06
9.52715e-08
8.21944e-09
2.58405e-06
2.81709e-07
2.44693e-08
3.71548e-06
4.61906e-07
4.06351e-08
4.76592e-06
6.42156e-07
5.75141e-08
5.7601e-06
8.30589e-07
7.60818e-08
6.71871e-06
1.03442e-06
9.72623e-08
7.65871e-06
1.2602e-06
1.21949e-07
8.59318e-06
1.51386e-06
1.50983e-07
9.53055e-06
1.80054e-06
1.85083e-07
1.04731e-05
2.12393e-06
2.24668e-07
1.14142e-05
2.48502e-06
2.69567e-07
1.2334e-05
2.87979e-06
3.18555e-07
1.31919e-05
3.29503e-06
3.68775e-07
1.39175e-05
3.70127e-06
4.15273e-07
1.44035e-05
4.04219e-06
4.51307e-07
4.31893e-06
4.74404e-07
1.53309e-06
1.00329e-07
9.12621e-09
2.9507e-06
2.96456e-07
2.7145e-08
4.24028e-06
4.85408e-07
4.49933e-08
5.43483e-06
6.73372e-07
6.34965e-08
6.56204e-06
8.68321e-07
8.3669e-08
7.64523e-06
1.07702e-06
1.0645e-07
8.7039e-06
1.30521e-06
1.32723e-07
9.75389e-06
1.55758e-06
1.6329e-07
1.08071e-05
1.83746e-06
1.98801e-07
1.18704e-05
2.14627e-06
2.39601e-07
1.29441e-05
2.4825e-06
2.8548e-07
1.40184e-05
2.84034e-06
3.35314e-07
1.5066e-05
3.20807e-06
3.86643e-07
1.6027e-05
3.56622e-06
4.35333e-07
1.67699e-05
3.88107e-06
4.75441e-07
4.18529e-06
5.06667e-07
1.70032e-06
9.81851e-09
1.01558e-07
3.27137e-06
2.91773e-08
2.99902e-07
4.69811e-06
4.82657e-08
4.90423e-07
6.01607e-06
6.79049e-08
6.78946e-07
7.25497e-06
8.91113e-08
8.72951e-07
8.43985e-06
1.12804e-07
1.07847e-06
9.59177e-06
1.39821e-07
1.30017e-06
1.07282e-05
1.70896e-07
1.54121e-06
1.18629e-05
2.06593e-07
1.80291e-06
1.30055e-05
2.47175e-07
2.084e-06
1.41607e-05
2.92405e-07
2.37968e-06
1.53249e-05
3.4127e-07
2.68014e-06
1.64812e-05
3.91674e-07
2.9688e-06
1.75839e-05
4.40147e-07
3.21944e-06
1.85187e-05
4.81376e-07
3.38504e-06
5.23911e-07
3.76829e-06
1.33744e-07
2.11309e-08
6.08759e-10
2.57749e-07
6.26627e-08
1.81684e-09
3.71141e-07
1.03316e-07
3.03432e-09
4.76953e-07
1.44818e-07
4.33308e-09
5.77673e-07
1.8942e-07
5.80026e-09
6.75257e-07
2.39349e-07
7.52355e-09
7.71071e-07
2.96961e-07
9.59438e-09
8.6575e-07
3.64849e-07
1.21075e-08
9.58959e-07
4.45946e-07
1.51541e-08
1.04908e-06
5.43571e-07
1.88047e-08
1.13297e-06
6.61421e-07
2.30741e-08
1.20599e-06
8.03449e-07
2.78638e-08
1.26305e-06
9.73416e-07
3.28867e-08
1.30134e-06
1.17284e-06
3.76129e-08
1.32289e-06
1.38919e-06
4.13102e-08
1.85047e-06
4.51487e-08
3.98952e-07
4.1342e-08
1.80258e-09
7.688e-07
1.22554e-07
5.37873e-09
1.10692e-06
2.01933e-07
8.97854e-09
1.42235e-06
2.82792e-07
1.2811e-08
1.72253e-06
3.69432e-07
1.71295e-08
2.01332e-06
4.66068e-07
2.2188e-08
2.29891e-06
5.77077e-07
2.82487e-08
2.58136e-06
7.07185e-07
3.55806e-08
2.85995e-06
8.61565e-07
4.44381e-08
3.13024e-06
1.04577e-06
5.50086e-08
3.38309e-06
1.26538e-06
6.73087e-08
3.6044e-06
1.52494e-06
8.1014e-08
3.77708e-06
1.82562e-06
9.52364e-08
3.88744e-06
2.15901e-06
1.08364e-07
3.93529e-06
2.48953e-06
1.18247e-07
2.87233e-06
1.25038e-07
6.57408e-07
5.9741e-08
2.93268e-09
1.2667e-06
1.7701e-07
8.74751e-09
1.82347e-06
2.91393e-07
1.4589e-08
2.3426e-06
4.07525e-07
2.07866e-08
2.83635e-06
5.31405e-07
2.77407e-08
3.31453e-06
6.68807e-07
3.58474e-08
3.78433e-06
8.25581e-07
4.55104e-08
4.24974e-06
1.00784e-06
5.71344e-08
4.71049e-06
1.22199e-06
7.10893e-08
5.16054e-06
1.47436e-06
8.76229e-08
5.58621e-06
1.77031e-06
1.06695e-07
5.96481e-06
2.11202e-06
1.27711e-07
6.26572e-06
2.49401e-06
1.49181e-07
6.45804e-06
2.89458e-06
1.68506e-07
6.53077e-06
3.26046e-06
1.82425e-07
3.63108e-06
1.8908e-07
9.04801e-07
7.55523e-08
3.96592e-09
1.74305e-06
2.23726e-07
1.1823e-08
2.50853e-06
3.67876e-07
1.96942e-08
3.22161e-06
5.13614e-07
2.80068e-08
3.89919e-06
6.6818e-07
3.72804e-08
4.55499e-06
8.38379e-07
4.80215e-08
5.19944e-06
1.03088e-06
6.07357e-08
5.83909e-06
1.25237e-06
7.59163e-08
6.47539e-06
1.50943e-06
9.39938e-08
7.10275e-06
1.80798e-06
1.15222e-07
7.70592e-06
2.15186e-06
1.39468e-07
8.25718e-06
2.53992e-06
1.65892e-07
8.71528e-06
2.96065e-06
1.92552e-07
9.03186e-06
3.38362e-06
2.16207e-07
9.1772e-06
3.74928e-06
2.32984e-07
4.08184e-06
2.40796e-07
1.13711e-06
8.81679e-08
4.87646e-09
2.19004e-06
2.60909e-07
1.45276e-08
3.15067e-06
4.28457e-07
2.41631e-08
4.04437e-06
5.97017e-07
3.42821e-08
4.89233e-06
7.74577e-07
4.5492e-08
5.712e-06
9.68416e-07
5.83747e-08
6.51715e-06
1.18538e-06
7.34975e-08
7.31744e-06
1.43196e-06
9.13972e-08
8.1173e-06
1.71407e-06
1.1252e-07
8.91399e-06
2.03637e-06
1.37095e-07
9.69461e-06
2.40074e-06
1.64913e-07
1.04321e-05
2.80335e-06
1.94995e-07
1.10813e-05
3.22961e-06
2.25215e-07
1.15787e-05
3.64635e-06
2.52127e-07
1.18614e-05
3.99392e-06
2.71609e-07
4.28456e-06
2.81959e-07
1.35078e-06
9.71675e-08
5.64728e-09
2.6008e-06
2.87337e-07
1.68108e-08
3.73984e-06
4.71199e-07
2.79128e-08
4.79766e-06
6.55179e-07
3.94971e-08
5.79916e-06
8.4753e-07
5.2228e-08
6.76512e-06
1.0555e-06
6.67289e-08
7.71247e-06
1.28554e-06
8.35929e-08
8.6541e-06
1.54332e-06
1.03364e-07
9.59815e-06
1.83344e-06
1.26473e-07
1.05464e-05
2.15873e-06
1.5312e-07
1.14918e-05
2.51897e-06
1.83062e-07
1.2414e-05
2.90869e-06
2.15326e-07
1.32729e-05
3.31365e-06
2.47889e-07
1.39987e-05
3.70503e-06
2.77505e-07
1.44855e-05
4.03033e-06
3.0006e-07
4.29518e-06
3.14409e-07
1.54284e-06
1.0232e-07
6.27039e-09
2.96957e-06
3.02364e-07
1.86495e-08
4.26769e-06
4.95151e-07
3.09078e-08
5.47051e-06
6.87e-07
4.36089e-08
6.6059e-06
8.86006e-07
5.74444e-08
7.69727e-06
1.09897e-06
7.30502e-08
8.7641e-06
1.33152e-06
9.10154e-08
9.82203e-06
1.58806e-06
1.11863e-07
1.08825e-05
1.87141e-06
1.35992e-07
1.1952e-05
2.18212e-06
1.6357e-07
1.30302e-05
2.51748e-06
1.9436e-07
1.41065e-05
2.87029e-06
2.27496e-07
1.5154e-05
3.2278e-06
2.6125e-07
1.61137e-05
3.57109e-06
2.92902e-07
1.68561e-05
3.87007e-06
3.18736e-07
4.16217e-06
3.38972e-07
1.71096e-06
6.74613e-09
1.03569e-07
3.29196e-06
2.00462e-08
3.05865e-07
4.72801e-06
3.3157e-08
5.00244e-07
6.05494e-06
4.66398e-08
6.92661e-07
7.30267e-06
6.11884e-08
8.90713e-07
8.49637e-06
7.74266e-08
1.10045e-06
9.65706e-06
9.59164e-08
1.32645e-06
1.0802e-05
1.1714e-07
1.5716e-06
1.19445e-05
1.41447e-07
1.8367e-06
1.30938e-05
1.68969e-07
2.1197e-06
1.42536e-05
1.99471e-07
2.41466e-06
1.54197e-05
2.32189e-07
2.71053e-06
1.65753e-05
2.65643e-07
2.98977e-06
1.76755e-05
2.9751e-07
3.22657e-06
1.86082e-05
3.24373e-07
3.37681e-06
3.52258e-07
3.74719e-06
1.34338e-07
2.14111e-08
3.09848e-10
2.58902e-07
6.34958e-08
9.24673e-10
3.72822e-07
1.04695e-07
1.54407e-09
4.79147e-07
1.46756e-07
2.20437e-09
5.80378e-07
1.91947e-07
2.94948e-09
6.78475e-07
2.42498e-07
3.82313e-09
7.74806e-07
3.00745e-07
4.87012e-09
8.69997e-07
3.69232e-07
6.13542e-09
9.63705e-07
4.50801e-07
7.65964e-09
1.05431e-06
5.48636e-07
9.46868e-09
1.13868e-06
6.66276e-07
1.15548e-08
1.21219e-06
8.07563e-07
1.38482e-08
1.26977e-06
9.7635e-07
1.61857e-08
1.30857e-06
1.17464e-06
1.83016e-08
1.33048e-06
1.39068e-06
1.98782e-08
1.85535e-06
2.14225e-08
4.0072e-07
4.18898e-08
9.17484e-10
7.72232e-07
1.24183e-07
2.7375e-09
1.11192e-06
2.04626e-07
4.56894e-09
1.42888e-06