/*--------------------------------*- C++ -*----------------------------------*\
| =========                 |                                                 |
| \\      /  F ield         | foam-extend: Open Source CFD                    |
|  \\    /   O peration     | Version:     3.1                                |
|   \\  /    A nd           | Web:         http://www.extend-project.de       |
|    \\/     M anipulation  |                                                 |
\*---------------------------------------------------------------------------*/
FoamFile
{
    version     2.0;
    format      ascii;
    class       volScalarField;
    location    "0.4";
    object      p;
}
// * * * * * * * * * * * * * * * * * * * * * * * * * * * * * * * * * * * * * //

dimensions      [0 2 -2 0 0 0 0];

internalField   nonuniform List<scalar> 
14592
(
0.209894
0.208
0.205178
0.201904
0.198424
0.19484
0.191208
0.187568
0.183946
0.180364
0.176845
0.173415
0.170112
0.166992
0.164217
0.162272
0.21076
0.20832
0.205301
0.201944
0.19842
0.194807
0.191155
0.187499
0.183862
0.180267
0.176735
0.173294
0.169981
0.166855
0.164076
0.162127
0.212326
0.209141
0.205741
0.202178
0.198527
0.194833
0.191126
0.187427
0.183755
0.180126
0.176559
0.173077
0.169717
0.166529
0.163659
0.16156
0.214113
0.210181
0.206343
0.202518
0.198699
0.194893
0.191107
0.187349
0.183625
0.179945
0.176324
0.172778
0.169336
0.166041
0.163019
0.160663
0.215799
0.211217
0.206964
0.202878
0.198883
0.194957
0.191084
0.187256
0.183471
0.179731
0.176041
0.172414
0.168867
0.165436
0.162221
0.159559
0.217192
0.2121
0.207501
0.203188
0.199036
0.194998
0.191042
0.187145
0.183297
0.17949
0.175724
0.172004
0.168337
0.164748
0.161314
0.158313
0.218164
0.212722
0.207876
0.203394
0.199122
0.194996
0.190969
0.187011
0.183103
0.179231
0.175388
0.17157
0.167777
0.164018
0.160347
0.156979
0.218635
0.213013
0.208035
0.203461
0.199118
0.194935
0.19086
0.186855
0.182895
0.178964
0.175049
0.171138
0.167221
0.163291
0.159365
0.155571
0.211168
0.209163
0.206199
0.202785
0.199186
0.195507
0.191808
0.188129
0.184498
0.180943
0.177493
0.174191
0.171095
0.168302
0.166022
0.164734
0.212099
0.209507
0.206331
0.202829
0.199182
0.195473
0.191753
0.188056
0.184411
0.180842
0.17738
0.174065
0.170959
0.168155
0.165852
0.164518
0.213781
0.210389
0.206804
0.203081
0.199298
0.195502
0.191722
0.187981
0.184297
0.18069
0.177188
0.173827
0.170662
0.167778
0.165355
0.163821
0.215702
0.211507
0.20745
0.203447
0.199483
0.195567
0.191703
0.187896
0.184155
0.180492
0.176927
0.173489
0.170225
0.167206
0.164587
0.162735
0.217518
0.212624
0.208119
0.203833
0.199681
0.195635
0.191677
0.187795
0.183987
0.180255
0.176611
0.173075
0.169682
0.166489
0.163625
0.161393
0.219019
0.213576
0.208697
0.204167
0.199846
0.19568
0.191631
0.187673
0.183794
0.179987
0.176254
0.172605
0.169063
0.16567
0.162525
0.159875
0.220068
0.214247
0.209101
0.204389
0.199938
0.195677
0.19155
0.187526
0.18358
0.179697
0.175873
0.172106
0.168406
0.164795
0.161343
0.158242
0.220577
0.214561
0.209273
0.204461
0.199934
0.195611
0.191432
0.187355
0.18335
0.179399
0.175488
0.171607
0.16775
0.163916
0.160128
0.1565
0.212324
0.210222
0.207134
0.203598
0.199892
0.196128
0.192368
0.188654
0.185016
0.181483
0.178093
0.174893
0.171952
0.169375
0.167361
0.166281
0.213309
0.210587
0.207273
0.203644
0.199888
0.196093
0.192311
0.188579
0.184926
0.181379
0.177976
0.174763
0.17181
0.169217
0.167169
0.166017
0.215092
0.211522
0.207775
0.203911
0.200012
0.196124
0.192279
0.1885
0.184805
0.181218
0.17777
0.174504
0.171484
0.168799
0.166614
0.165242
0.21713
0.212709
0.208461
0.2043
0.200208
0.196193
0.192258
0.188408
0.184652
0.181004
0.177486
0.174134
0.171
0.168161
0.165756
0.164047
0.219058
0.213895
0.209171
0.20471
0.200418
0.196266
0.192231
0.1883
0.18447
0.180746
0.177139
0.173676
0.170395
0.167359
0.164679
0.162567
0.220654
0.214908
0.209785
0.205064
0.200593
0.196312
0.192181
0.188168
0.184261
0.180452
0.176745
0.173154
0.169704
0.166438
0.163443
0.160888
0.221769
0.215622
0.210214
0.2053
0.200691
0.196309
0.192093
0.188008
0.184027
0.180135
0.176324
0.172598
0.168966
0.16545
0.162108
0.159075
0.222311
0.215957
0.210398
0.205376
0.200686
0.196237
0.191965
0.187823
0.183777
0.179807
0.175898
0.17204
0.168226
0.164452
0.160731
0.15713
0.213331
0.211148
0.207955
0.204314
0.200517
0.19668
0.192868
0.189123
0.185477
0.181962
0.178618
0.175494
0.172662
0.170224
0.168359
0.167368
0.214363
0.21153
0.208101
0.204363
0.200514
0.196644
0.192809
0.189046
0.185385
0.181856
0.178497
0.17536
0.172514
0.170057
0.168153
0.167077
0.216229
0.212511
0.208628
0.204643
0.200644
0.196678
0.192777
0.188963
0.185258
0.181686
0.17828
0.175085
0.172165
0.169608
0.167556
0.16625
0.218366
0.213756
0.209347
0.205051
0.20085
0.19675
0.192754
0.188866
0.185096
0.181458
0.177976
0.174687
0.171645
0.16892
0.166634
0.164979
0.220388
0.215
0.210091
0.205481
0.20107
0.196826
0.192724
0.188751
0.184902
0.181181
0.177603
0.174193
0.170991
0.168053
0.165473
0.163406
0.222063
0.216064
0.210736
0.205852
0.201253
0.196874
0.19267
0.18861
0.184677
0.180866
0.177178
0.173628
0.170241
0.167055
0.164139
0.161617
0.223235
0.216814
0.211186
0.2061
0.201355
0.196869
0.192576
0.188439
0.184427
0.180524
0.176723
0.173025
0.169439
0.165982
0.162696
0.159679
0.223805
0.217167
0.211379
0.20618
0.20135
0.196793
0.192441
0.188241
0.184159
0.180172
0.176262
0.172419
0.168633
0.164894
0.161202
0.157595
0.214165
0.211917
0.208639
0.204913
0.201042
0.197145
0.19329
0.189519
0.185865
0.182363
0.179051
0.17598
0.173222
0.170871
0.169088
0.168138
0.215234
0.212314
0.208791
0.204965
0.201039
0.197109
0.19323
0.18944
0.185771
0.182254
0.178927
0.175843
0.173069
0.170696
0.168872
0.16783
0.217168
0.21333
0.209337
0.205255
0.201174
0.197144
0.193196
0.189354
0.185639
0.182077
0.1787
0.175555
0.172703
0.170224
0.168245
0.166965
0.219383
0.214622
0.210083
0.205678
0.201388
0.197218
0.193172
0.189253
0.18547
0.181838
0.178381
0.175136
0.172154
0.1695
0.167277
0.165642
0.221481
0.215914
0.210855
0.206124
0.201616
0.197296
0.19314
0.189131
0.185266
0.181546
0.177987
0.174614
0.171463
0.168584
0.166058
0.164004
0.223221
0.217019
0.211524
0.206509
0.201805
0.197346
0.193083
0.188983
0.185029
0.181213
0.177538
0.174016
0.170669
0.16753
0.164655
0.162139
0.224439
0.217798
0.211992
0.206766
0.201911
0.19734
0.192983
0.188803
0.184765
0.180852
0.177056
0.173376
0.169818
0.166394
0.163135
0.160116
0.22503
0.218165
0.212192
0.206849
0.201905
0.197259
0.192841
0.188594
0.184482
0.180479
0.176567
0.172732
0.168962
0.165242
0.161559
0.157936
0.214807
0.212511
0.209169
0.205378
0.20145
0.197507
0.193619
0.189827
0.186167
0.182673
0.179382
0.176347
0.173636
0.171336
0.1696
0.168668
0.215904
0.212918
0.209325
0.205431
0.201447
0.19747
0.193557
0.189748
0.186071
0.182562
0.179257
0.176207
0.173479
0.171157
0.169376
0.168348
0.217889
0.213962
0.209885
0.20573
0.201586
0.197506
0.193523
0.189659
0.185936
0.182379
0.179022
0.175909
0.1731
0.170668
0.168729
0.167459
0.220163
0.215289
0.210651
0.206163
0.201806
0.197583
0.193498
0.189554
0.185761
0.182132
0.178691
0.175475
0.17253
0.169918
0.16773
0.166101
0.222319
0.216617
0.211445
0.206622
0.20204
0.197663
0.193465
0.189428
0.185549
0.181829
0.178282
0.174932
0.171813
0.168969
0.16647
0.164419
0.224108
0.217753
0.212133
0.207018
0.202234
0.197713
0.193405
0.189274
0.185303
0.181483
0.177815
0.17431
0.170987
0.167875
0.16502
0.162502
0.225359
0.218554
0.212613
0.207281
0.202343
0.197706
0.193301
0.189087
0.185028
0.181106
0.177312
0.173643
0.170102
0.166696
0.163448
0.160421
0.225968
0.218931
0.212819
0.207366
0.202336
0.197622
0.193153
0.18887
0.184734
0.180718
0.176802
0.172972
0.16921
0.165498
0.161816
0.158177
0.215243
0.212914
0.20953
0.205696
0.201729
0.197756
0.193844
0.190039
0.186374
0.182883
0.179606
0.176592
0.173908
0.171638
0.169925
0.169002
0.21636
0.213329
0.209689
0.20575
0.201727
0.197719
0.193783
0.189959
0.186277
0.182771
0.179479
0.17645
0.173749
0.171455
0.169698
0.168675
0.218378
0.214392
0.210259
0.206054
0.201868
0.197755
0.193747
0.189868
0.186139
0.182585
0.17924
0.176146
0.173362
0.170956
0.169038
0.167771
0.220692
0.215742
0.211039
0.206496
0.202092
0.197833
0.193722
0.189761
0.18596
0.182332
0.178901
0.175702
0.172779
0.17019
0.168019
0.166391
0.222886
0.217095
0.211847
0.206962
0.20233
0.197914
0.193687
0.189632
0.185743
0.182022
0.178482
0.175145
0.172044
0.16922
0.166734
0.164681
0.224707
0.218251
0.212547
0.207365
0.202528
0.197964
0.193626
0.189473
0.18549
0.181667
0.178002
0.174507
0.171199
0.168101
0.165255
0.162733
0.225982
0.219068
0.213036
0.207633
0.202638
0.197957
0.193519
0.189282
0.185209
0.181281
0.177487
0.173823
0.170291
0.166894
0.163649
0.160615
0.226601
0.219452
0.213246
0.20772
0.20263
0.197871
0.193367
0.189059
0.184907
0.180881
0.176963
0.173134
0.169376
0.165667
0.161983
0.15833
0.215461
0.21311
0.209708
0.205854
0.201868
0.197879
0.193956
0.190144
0.186477
0.182988
0.179717
0.176713
0.174041
0.171784
0.170084
0.169161
0.21659
0.213533
0.209871
0.205909
0.201866
0.197842
0.193894
0.190063
0.186379
0.182875
0.179588
0.176569
0.173879
0.171598
0.169852
0.168828
0.218621
0.214604
0.210444
0.206214
0.202008
0.197879
0.193859
0.189972
0.186239
0.182687
0.179347
0.176262
0.173489
0.171095
0.169186
0.167918
0.220953
0.215967
0.21123
0.206659
0.202233
0.197957
0.193833
0.189864
0.186058
0.182431
0.179004
0.175812
0.1729
0.170321
0.168158
0.166528
0.223166
0.217332
0.212045
0.20713
0.202474
0.198038
0.193798
0.189733
0.185839
0.182117
0.17858
0.17525
0.172157
0.169341
0.166862
0.164806
0.225002
0.218499
0.212751
0.207536
0.202672
0.198089
0.193735
0.189572
0.185583
0.181758
0.178095
0.174604
0.171301
0.16821
0.165368
0.162843
0.226288
0.219324
0.213245
0.207806
0.202783
0.198081
0.193627
0.189378
0.185298
0.181367
0.177573
0.173912
0.170383
0.166989
0.163746
0.160708
0.226913
0.219711
0.213456
0.207893
0.202776
0.197994
0.193473
0.189153
0.184992
0.180962
0.177042
0.173213
0.169457
0.165749
0.162062
0.158402
0.201147
0.200389
0.198787
0.196589
0.193977
0.191054
0.187893
0.184544
0.181041
0.177405
0.173647
0.169771
0.165775
0.161652
0.157399
0.153019
0.201346
0.200525
0.198867
0.196629
0.193988
0.191043
0.187864
0.1845
0.180985
0.177338
0.173571
0.169687
0.165683
0.161554
0.157296
0.152912
0.201749
0.200813
0.199054
0.196739
0.194041
0.191055
0.187845
0.184458
0.180923
0.17726
0.173479
0.169584
0.165571
0.161436
0.157175
0.152792
0.20224
0.201177
0.199298
0.196888
0.194119
0.19108
0.18783
0.184412
0.180853
0.17717
0.173373
0.169464
0.165442
0.161301
0.157039
0.152661
0.202724
0.201546
0.19955
0.197043
0.1942
0.191105
0.187813
0.184361
0.180776
0.177071
0.173256
0.169333
0.165301
0.161155
0.156894
0.152524
0.203133
0.201861
0.199766
0.197174
0.194264
0.191117
0.187785
0.184301
0.18069
0.176964
0.173132
0.169195
0.165153
0.161003
0.156746
0.152387
0.203417
0.20208
0.199912
0.197256
0.194294
0.191106
0.18774
0.18423
0.180596
0.176851
0.173003
0.169053
0.165003
0.160852
0.1566
0.152255
0.203545
0.202173
0.199965
0.197272
0.194278
0.191063
0.187676
0.184146
0.180494
0.176734
0.172872
0.168913
0.164857
0.160706
0.156462
0.152133
0.20145
0.200615
0.198951
0.196713
0.194074
0.191133
0.187959
0.184603
0.181096
0.177459
0.173703
0.16983
0.165837
0.161716
0.15746
0.15307
0.201685
0.200734
0.199009
0.196734
0.19407
0.19111
0.187921
0.184552
0.181034
0.177386
0.173621
0.16974
0.165739
0.161611
0.157351
0.152957
0.202169
0.201037
0.199195
0.196839
0.194119
0.191118
0.187898
0.184505
0.180967
0.177304
0.173525
0.169632
0.165622
0.161488
0.157224
0.152832
0.202747
0.201427
0.199447
0.196991
0.194197
0.191141
0.187882
0.184458
0.180895
0.177212
0.173416
0.169509
0.165488
0.161348
0.157084
0.152696
0.203306
0.20182
0.199707
0.197149
0.194279
0.191166
0.187863
0.184406
0.180816
0.177111
0.173296
0.169374
0.165343
0.161197
0.156934
0.152555
0.203772
0.202156
0.199932
0.197284
0.194344
0.191179
0.187835
0.184344
0.180729
0.177001
0.173168
0.169232
0.165191
0.161041
0.15678
0.152413
0.204096
0.202389
0.200084
0.197369
0.194375
0.191168
0.18779
0.184272
0.180633
0.176886
0.173036
0.169087
0.165037
0.160884
0.156629
0.152276
0.204243
0.20249
0.200139
0.197385
0.194359
0.191125
0.187725
0.184187
0.18053
0.176767
0.172903
0.168943
0.164886
0.160733
0.156485
0.152149
0.202165
0.201191
0.199404
0.19707
0.194361
0.191369
0.18816
0.184781
0.181262
0.177622
0.173869
0.170004
0.166021
0.161904
0.157641
0.153222
0.202489
0.201329
0.199463
0.197089
0.194353
0.191342
0.188119
0.184727
0.181197
0.177546
0.173784
0.16991
0.165919
0.161796
0.157527
0.153104
0.203116
0.201686
0.19967
0.197202
0.194404
0.191349
0.188094
0.184677
0.181127
0.177459
0.173682
0.169796
0.165794
0.161663
0.157391
0.15297
0.203847
0.202145
0.199954
0.197368
0.194488
0.191375
0.188077
0.184627
0.181051
0.177362
0.173566
0.169664
0.16565
0.161511
0.157237
0.152822
0.204542
0.202604
0.200247
0.197544
0.194578
0.191403
0.188058
0.184573
0.180967
0.177254
0.173438
0.169519
0.165491
0.161345
0.157071
0.152666
0.205118
0.202994
0.200499
0.197693
0.19465
0.191417
0.188029
0.184509
0.180875
0.177138
0.173301
0.169365
0.165324
0.161172
0.1569
0.152507
0.205517
0.203266
0.200671
0.197788
0.194686
0.191408
0.187982
0.184433
0.180774
0.177015
0.173159
0.169207
0.165155
0.160998
0.156731
0.152354
0.205702
0.203385
0.200736
0.197809
0.194672
0.191364
0.187915
0.184344
0.180665
0.176888
0.173017
0.169051
0.164991
0.160831
0.15657
0.152213
0.203182
0.202043
0.200095
0.197627
0.194814
0.191746
0.188483
0.18507
0.181532
0.177888
0.174144
0.170296
0.166333
0.162231
0.157962
0.153495
0.203608
0.202211
0.200163
0.197648
0.194806
0.191718
0.18844
0.185013
0.181465
0.17781
0.174055
0.170198
0.166226
0.162117
0.157842
0.153372
0.204403
0.202643
0.200404
0.197777
0.194864
0.191727
0.188414
0.184961
0.18139
0.177717
0.173946
0.170074
0.16609
0.161971
0.157691
0.153224
0.205316
0.203192
0.200734
0.197967
0.19496
0.191757
0.188397
0.184908
0.181309
0.177611
0.173819
0.169928
0.165928
0.161799
0.157515
0.153054
0.206177
0.20374
0.201074
0.198168
0.195062
0.191789
0.188378
0.18485
0.181218
0.177494
0.173677
0.169766
0.165748
0.161607
0.157321
0.152872
0.206888
0.204206
0.201368
0.198339
0.195145
0.191808
0.188348
0.184781
0.181119
0.177366
0.173525
0.169592
0.165556
0.161404
0.157118
0.152684
0.207379
0.20453
0.201569
0.19845
0.195188
0.1918
0.1883
0.1847
0.181009
0.177231
0.173367
0.169413
0.165361
0.1612
0.156916
0.152501
0.207611
0.204675
0.201648
0.198478
0.195176
0.191755
0.188229
0.184605
0.180891
0.177092
0.173208
0.169236
0.165171
0.161004
0.156725
0.152331
0.204397
0.203088
0.200961
0.198337
0.1954
0.192238
0.18891
0.185453
0.181895
0.178249
0.174521
0.170705
0.166782
0.162716
0.158455
0.153931
0.204923
0.203288
0.20104
0.198362
0.195393
0.19221
0.188864
0.185394
0.181824
0.178167
0.174428
0.170602
0.166669
0.162595
0.158328
0.153802
0.205889
0.203802
0.201321
0.198511
0.19546
0.192222
0.188838
0.185339
0.181744
0.178067
0.174309
0.170465
0.166517
0.16243
0.158156
0.153633
0.206992
0.204453
0.201704
0.19873
0.19557
0.192257
0.188821
0.185282
0.181655
0.17795
0.174167
0.1703
0.16633
0.162228
0.157946
0.153431
0.20803
0.2051
0.2021
0.198961
0.195687
0.192296
0.188802
0.185219
0.181556
0.177819
0.174007
0.170112
0.166119
0.161998
0.15771
0.153206
0.208884
0.20565
0.202441
0.199159
0.195784
0.192319
0.188771
0.185145
0.181446
0.177676
0.173833
0.16991
0.16589
0.161751
0.157457
0.152971
0.209477
0.206034
0.202676
0.199288
0.195836
0.192313
0.18872
0.185056
0.181325
0.177525
0.173652
0.169701
0.165656
0.161499
0.157202
0.152737
0.209758
0.206209
0.202772
0.199324
0.195826
0.192267
0.188643
0.184953
0.181195
0.177369
0.173471
0.169494
0.165428
0.161257
0.15696
0.15252
0.205735
0.204262
0.201951
0.199161
0.196088
0.192822
0.189419
0.185916
0.182336
0.178695
0.174996
0.171232
0.167382
0.163393
0.15918
0.154604
0.206357
0.204495
0.202041
0.199189
0.196082
0.192792
0.189372
0.185854
0.182262
0.178608
0.174898
0.171124
0.167262
0.163265
0.159044
0.15447
0.20749
0.205091
0.202364
0.19936
0.196159
0.192808
0.189345
0.185795
0.182176
0.178499
0.174767
0.170971
0.167089
0.163074
0.158842
0.154271
0.20878
0.205846
0.202805
0.19961
0.196284
0.19285
0.189328
0.185734
0.182079
0.17837
0.174606
0.17078
0.166869
0.162829
0.158583
0.154019
0.209994
0.206596
0.203259
0.199874
0.196419
0.192895
0.189309
0.185665
0.181968
0.178222
0.174422
0.17056
0.166614
0.162543
0.158282
0.15373
0.210993
0.207234
0.203651
0.200101
0.19653
0.192924
0.189276
0.185583
0.181845
0.178059
0.174221
0.170319
0.166335
0.162232
0.157955
0.153419
0.211688
0.20768
0.203922
0.20025
0.196591
0.19292
0.189221
0.185486
0.181709
0.177886
0.17401
0.17007
0.166047
0.161912
0.157619
0.153104
0.21202
0.207886
0.204034
0.200295
0.196584
0.192871
0.189138
0.185371
0.181563
0.177708
0.173798
0.169823
0.165765
0.161602
0.157298
0.152807
0.207133
0.205506
0.203015
0.200056
0.196844
0.193469
0.189988
0.186437
0.18284
0.17921
0.175557
0.171875
0.168145
0.164308
0.160234
0.155643
0.207844
0.205771
0.203116
0.200089
0.196838
0.193439
0.189939
0.186373
0.182762
0.17912
0.175454
0.171761
0.168019
0.16417
0.160083
0.155491
0.209134
0.206447
0.20348
0.200282
0.196926
0.193458
0.189912
0.18631
0.18267
0.179001
0.175309
0.171589
0.16782
0.163944
0.159836
0.155245
0.210603
0.207303
0.203978
0.200563
0.197067
0.193506
0.189895
0.186244
0.182562
0.178856
0.175126
0.171367
0.167556
0.16364
0.159505
0.154919
0.211986
0.208155
0.20449
0.20086
0.197219
0.193558
0.189875
0.186168
0.182439
0.178688
0.174913
0.171105
0.167243
0.163278
0.159109
0.154535
0.213126
0.208879
0.204933
0.201116
0.197345
0.193592
0.189839
0.186077
0.1823
0.178502
0.174678
0.170816
0.166897
0.162876
0.15867
0.15411
0.21392
0.209387
0.205241
0.201286
0.197415
0.193589
0.189779
0.185969
0.182146
0.178303
0.17443
0.170515
0.166537
0.162458
0.158213
0.153668
0.214301
0.209623
0.20537
0.201338
0.19741
0.193537
0.189688
0.185841
0.181982
0.178098
0.174181
0.170216
0.166183
0.162051
0.157768
0.15324
0.208535
0.206768
0.204104
0.200983
0.197633
0.194151
0.190594
0.186996
0.183385
0.179776
0.176184
0.172617
0.169074
0.16552
0.16185
0.157592
0.209328
0.207061
0.204217
0.20102
0.197628
0.194119
0.190542
0.186929
0.183304
0.179682
0.176078
0.172499
0.168944
0.165377
0.161685
0.157395
0.210763
0.207813
0.204621
0.201234
0.197726
0.194143
0.190514
0.186862
0.183204
0.179552
0.175917
0.172305
0.168713
0.165104
0.161366
0.157055
0.212398
0.208765
0.205172
0.201546
0.197883
0.194197
0.190496
0.18679
0.183085
0.17939
0.175709
0.172046
0.168394
0.164718
0.160916
0.156582
0.213939
0.209712
0.205741
0.201875
0.198052
0.194255
0.190475
0.186705
0.182947
0.179199
0.175462
0.171735
0.168008
0.164248
0.160365
0.156009
0.215212
0.210519
0.206233
0.202159
0.198192
0.194293
0.190437
0.186605
0.182791
0.178986
0.175187
0.171388
0.167576
0.16372
0.159744
0.155361
0.216098
0.211087
0.206575
0.202347
0.198271
0.194291
0.19037
0.186485
0.182618
0.178758
0.174897
0.171024
0.167123
0.163164
0.159088
0.154667
0.216527
0.211351
0.20672
0.202407
0.198266
0.194235
0.19027
0.186343
0.182432
0.178524
0.174605
0.170662
0.166676
0.162618
0.158436
0.15396
0.218567
0.212941
0.207956
0.203371
0.199014
0.194813
0.190714
0.186679
0.182681
0.178702
0.174724
0.170731
0.166705
0.162617
0.158426
0.154009
0.217966
0.21251
0.207642
0.203129
0.198815
0.194633
0.190537
0.18649
0.182468
0.178453
0.174426
0.170371
0.166266
0.162078
0.157762
0.15323
0.216874
0.211759
0.207125
0.202759
0.198538
0.19441
0.190339
0.186297
0.182265
0.178227
0.174166
0.170067
0.16591
0.161669
0.15731
0.152787
0.215378
0.210766
0.206463
0.202304
0.198213
0.194164
0.190136
0.186112
0.182081
0.17803
0.173947
0.16982
0.165632
0.161364
0.156996
0.152507
0.213612
0.209642
0.20574
0.201823
0.197883
0.193925
0.189947
0.185949
0.181925
0.177869
0.173774
0.169629
0.165424
0.161145
0.156782
0.152326
0.211772
0.208543
0.205062
0.201388
0.197594
0.193722
0.189793
0.18582
0.181805
0.177749
0.173648
0.169494
0.165279
0.160997
0.156642
0.152213
0.210185
0.20769
0.204572
0.201086
0.197401
0.19359
0.189695
0.185738
0.181731
0.177676
0.173571
0.169413
0.165194
0.160911
0.156562
0.15215
0.209323
0.207358
0.204421
0.201003
0.19735
0.193555
0.189668
0.185716
0.18171
0.177654
0.173548
0.169387
0.165167
0.160884
0.156536
0.152128
0.220505
0.214484
0.209189
0.204365
0.199823
0.19548
0.191274
0.187163
0.183114
0.179105
0.175119
0.171137
0.167139
0.163094
0.158951
0.154534
0.219858
0.214021
0.208852
0.204106
0.19961
0.195287
0.191083
0.186957
0.18288
0.178828
0.174783
0.170722
0.166622
0.162444
0.15813
0.15356
0.218682
0.213214
0.208297
0.20371
0.199313
0.195047
0.19087
0.186748
0.182657
0.178577
0.174489
0.170374
0.166207
0.161957
0.15758
0.153015
0.217072
0.212145
0.207586
0.203222
0.198966
0.194784
0.190652
0.186548
0.182456
0.17836
0.174245
0.170093
0.165886
0.161599
0.157205
0.152675
0.215172
0.210937
0.206811
0.202707
0.198612
0.194528
0.19045
0.186372
0.182286
0.178183
0.174051
0.169878
0.165647
0.161344
0.156952
0.152459
0.213196
0.209756
0.206084
0.20224
0.198303
0.194311
0.190285
0.186233
0.182156
0.178051
0.173911
0.169725
0.165483
0.161174
0.156788
0.152325
0.211492
0.208841
0.205558
0.201918
0.198096
0.19417
0.190179
0.186145
0.182076
0.177971
0.173826
0.169634
0.165386
0.161075
0.156696
0.152252
0.210567
0.208485
0.205397
0.201829
0.198042
0.194132
0.190151
0.186121
0.182053
0.177947
0.1738
0.169606
0.165356
0.161044
0.156666
0.152226
0.222235
0.215876
0.210308
0.205275
0.200568
0.196097
0.191796
0.187616
0.18352
0.179485
0.17549
0.171514
0.167536
0.163517
0.159391
0.154934
0.221548
0.215384
0.209951
0.205001
0.200342
0.195892
0.191592
0.187394
0.183266
0.179182
0.175118
0.171051
0.166952
0.162777
0.158453
0.153838
0.220299
0.214526
0.209363
0.204581
0.200027
0.195638
0.191365
0.18717
0.183025
0.178907
0.174794
0.170662
0.166485
0.162223
0.157826
0.153218
0.218589
0.213391
0.208609
0.204064
0.199659
0.195359
0.191133
0.186956
0.182808
0.178671
0.174525
0.17035
0.166124
0.161818
0.157399
0.152829
0.216573
0.212109
0.207787
0.203518
0.199285
0.195087
0.190918
0.186768
0.182625
0.178478
0.174313
0.170112
0.165858
0.161532
0.157112
0.152584
0.214478
0.210857
0.207017
0.203024
0.198957
0.194857
0.190743
0.186619
0.182486
0.178336
0.174159
0.169944
0.165675
0.16134
0.156927
0.152432
0.212673
0.209887
0.20646
0.202683
0.198739
0.194708
0.190631
0.186526
0.1824
0.178249
0.174067
0.169844
0.165568
0.16123
0.156824
0.152348
0.211693
0.209509
0.206289
0.202589
0.198681
0.194669
0.1906
0.1865
0.182375
0.178223
0.174038
0.169812
0.165534
0.161195
0.156789
0.15232
0.223725
0.217082
0.211285
0.206073
0.201226
0.196645
0.192261
0.18802
0.183884
0.179825
0.17582
0.171847
0.167879
0.163872
0.159746
0.155242
0.223004
0.216565
0.210911
0.205786
0.200988
0.196429
0.192045
0.187785
0.183612
0.179498
0.175417
0.171342
0.167241
0.163062
0.158723
0.154064
0.221693
0.215665
0.210293
0.205345
0.200658
0.196162
0.191805
0.187547
0.183355
0.179203
0.175067
0.17092
0.166731
0.162456
0.158037
0.153389
0.219898
0.214473
0.209503
0.204803
0.200272
0.195869
0.191561
0.187321
0.183124
0.178949
0.174776
0.170581
0.166338
0.162013
0.157569
0.152964
0.217784
0.213129
0.208641
0.204231
0.199879
0.195584
0.191335
0.187121
0.182929
0.178744
0.174548
0.170323
0.166048
0.161699
0.157254
0.152694
0.215588
0.211816
0.207834
0.203713
0.199536
0.195343
0.191151
0.186965
0.182781
0.178591
0.174382
0.17014
0.165848
0.16149
0.157052
0.152528
0.213699
0.2108
0.207251
0.203356
0.199307
0.195186
0.191033
0.186867
0.18269
0.178499
0.174283
0.170032
0.165732
0.16137
0.156938
0.152436
0.212674
0.210405
0.207072
0.203258
0.199247
0.195145
0.191001
0.186839
0.182663
0.178471
0.174253
0.169999
0.165695
0.161332
0.156901
0.152405
0.224948
0.218076
0.212095
0.206738
0.201776
0.197105
0.192653
0.188362
0.184191
0.180111
0.176097
0.172123
0.16816
0.164156
0.160022
0.155475
0.224199
0.21754
0.211706
0.206439
0.201528
0.19688
0.192427
0.188115
0.183905
0.179766
0.175669
0.171586
0.16748
0.163295
0.158939
0.15424
0.222837
0.216605
0.211065
0.205982
0.201185
0.196602
0.192177
0.187866
0.183634
0.179454
0.175298
0.171137
0.166936
0.162649
0.158209
0.153527
0.220974
0.215367
0.210244
0.205419
0.200784
0.196297
0.191922
0.187629
0.183391
0.179186
0.174989
0.170776
0.166517
0.162175
0.15771
0.153075
0.21878
0.213972
0.20935
0.204826
0.200377
0.196001
0.191687
0.18742
0.183187
0.178968
0.174747
0.170501
0.166208
0.161841
0.157374
0.152787
0.216504
0.21261
0.208514
0.204289
0.200021
0.195751
0.191495
0.187257
0.183031
0.178808
0.174572
0.170307
0.165995
0.161617
0.157158
0.152609
0.214547
0.211557
0.20791
0.203919
0.199783
0.195588
0.191373
0.187154
0.182936
0.17871
0.174467
0.170193
0.165871
0.161489
0.157036
0.152511
0.213485
0.211148
0.207724
0.203817
0.199721
0.195545
0.191339
0.187125
0.182907
0.178681
0.174435
0.170157
0.165832
0.161448
0.156996
0.152477
0.225883
0.21884
0.212719
0.207252
0.202202
0.197463
0.192958
0.188629
0.184431
0.180335
0.176312
0.172336
0.168373
0.164369
0.160223
0.155642
0.225112
0.218289
0.212319
0.206945
0.201947
0.197231
0.192725
0.188373
0.184134
0.179974
0.175865
0.171775
0.167664
0.163471
0.159099
0.154369
0.223712
0.217327
0.21166
0.206474
0.201594
0.196944
0.192466
0.188114
0.183852
0.17965
0.175478
0.171305
0.167095
0.162796
0.15834
0.153631
0.221797
0.216054
0.210817
0.205896
0.201182
0.19663
0.192203
0.187869
0.1836
0.179371
0.175156
0.170928
0.166656
0.162301
0.157818
0.15316
0.219544
0.214621
0.209898
0.205286
0.200763
0.196325
0.191961
0.187654
0.183388
0.179145
0.174903
0.170641
0.166333
0.16195
0.157466
0.152859
0.217207
0.213222
0.209039
0.204735
0.200397
0.196068
0.191763
0.187485
0.183227
0.178978
0.174721
0.170438
0.16611
0.161717
0.15724
0.152672
0.215199
0.212141
0.208419
0.204354
0.200153
0.195901
0.191637
0.187379
0.183128
0.178876
0.174611
0.170319
0.165981
0.161582
0.157112
0.152569
0.214109
0.21172
0.208228
0.20425
0.200089
0.195857
0.191603
0.187349
0.183099
0.178845
0.174578
0.170281
0.16594
0.161539
0.157071
0.152534
0.226515
0.219359
0.213144
0.207603
0.202494
0.197708
0.193168
0.188812
0.184596
0.180488
0.176459
0.172481
0.168517
0.16451
0.160356
0.155751
0.22573
0.218797
0.212736
0.20729
0.202234
0.197471
0.192929
0.18855
0.184291
0.180118
0.176
0.171904
0.167788
0.163589
0.159206
0.154455
0.224305
0.217817
0.212065
0.206811
0.201874
0.197179
0.192665
0.188285
0.184002
0.179784
0.175601
0.17142
0.167203
0.162895
0.158427
0.1537
0.222355
0.216522
0.211206
0.206222
0.201454
0.196859
0.192397
0.188035
0.183744
0.179498
0.17527
0.171033
0.166751
0.162386
0.157891
0.153217
0.220062
0.215062
0.210271
0.205601
0.201028
0.196548
0.192149
0.187815
0.183527
0.179266
0.175011
0.170737
0.166418
0.162026
0.15753
0.152908
0.217684
0.213638
0.209397
0.20504
0.200655
0.196286
0.191947
0.187642
0.183362
0.179094
0.174823
0.170529
0.166189
0.161785
0.157297
0.152716
0.215642
0.212538
0.208766
0.204653
0.200407
0.196115
0.191819
0.187534
0.18326
0.17899
0.174711
0.170405
0.166056
0.161647
0.157165
0.152609
0.214533
0.212109
0.208572
0.204546
0.200341
0.19607
0.191784
0.187503
0.18323
0.178959
0.174676
0.170366
0.166014
0.161602
0.157122
0.152573
0.226825
0.219618
0.213353
0.207776
0.202638
0.19783
0.193272
0.188903
0.184678
0.180564
0.176532
0.172552
0.168588
0.16458
0.160423
0.155804
0.226034
0.21905
0.212942
0.207459
0.202375
0.19759
0.19303
0.188637
0.184369
0.180189
0.176067
0.171968
0.167849
0.163647
0.159258
0.154494
0.224596
0.218061
0.212264
0.206976
0.202012
0.197295
0.192763
0.18837
0.184077
0.179851
0.175662
0.171478
0.167256
0.162944
0.15847
0.153733
0.22263
0.216753
0.211398
0.206382
0.201589
0.196972
0.192492
0.188117
0.183815
0.179561
0.175327
0.171084
0.166798
0.162429
0.157927
0.153245
0.220317
0.21528
0.210455
0.205756
0.201158
0.196658
0.192242
0.187894
0.183595
0.179326
0.175064
0.170785
0.166461
0.162063
0.157561
0.152932
0.217921
0.213843
0.209574
0.20519
0.200783
0.196394
0.192039
0.18772
0.183429
0.179153
0.174874
0.170573
0.166229
0.161819
0.157324
0.152737
0.215866
0.212735
0.208939
0.204801
0.200533
0.196222
0.191909
0.187611
0.183326
0.179047
0.17476
0.170448
0.166093
0.161679
0.157191
0.152629
0.214744
0.212298
0.208741
0.204692
0.200466
0.196176
0.191874
0.18758
0.183296
0.179015
0.174725
0.170409
0.16605
0.161633
0.157147
0.152592
0.203502
0.202128
0.199914
0.197214
0.194212
0.190988
0.18759
0.18405
0.180387
0.176616
0.172745
0.168779
0.16472
0.160571
0.156336
0.152024
0.203291
0.201945
0.19976
0.197084
0.194098
0.190882
0.187486
0.183944
0.180277
0.176501
0.172624
0.168653
0.164593
0.160448
0.156223
0.151929
0.20293
0.201643
0.19952
0.196894
0.193944
0.190752
0.187371
0.183835
0.180169
0.176391
0.172512
0.16854
0.164481
0.160341
0.156126
0.151848
0.202454
0.201254
0.19922
0.196667
0.193769
0.190611
0.187251
0.183728
0.180068
0.176292
0.172414
0.168442
0.164385
0.16025
0.156045
0.151781
0.201914
0.200825
0.198898
0.196429
0.193591
0.190474
0.187139
0.183631
0.17998
0.176208
0.172331
0.168361
0.164307
0.160177
0.15598
0.151728
0.201381
0.200415
0.1986
0.196214
0.193434
0.190355
0.187045
0.183552
0.179909
0.176142
0.172268
0.168299
0.164248
0.160122
0.155932
0.151688
0.200955
0.200099
0.198376
0.196057
0.193321
0.190271
0.186979
0.183497
0.179861
0.176098
0.172226
0.168259
0.164209
0.160086
0.1559
0.151663
0.200748
0.199951
0.198277
0.195988
0.193271
0.190234
0.18695
0.183472
0.17984
0.176078
0.172207
0.168241
0.164192
0.16007
0.155886
0.151651
0.2042
0.202443
0.200087
0.197327
0.194292
0.191049
0.187638
0.184089
0.180421
0.176647
0.172773
0.168805
0.164745
0.160593
0.156355
0.152037
0.203967
0.202251
0.19993
0.197194
0.194177
0.190941
0.187533
0.183983
0.18031
0.176529
0.17265
0.168677
0.164615
0.160467
0.156239
0.151939
0.203564
0.201933
0.199683
0.197001
0.194021
0.19081
0.187416
0.183872
0.180201
0.176418
0.172536
0.168561
0.1645
0.160357
0.156139
0.151856
0.203027
0.201523
0.199374
0.196769
0.193843
0.190668
0.187296
0.183764
0.180099
0.176318
0.172436
0.168461
0.164402
0.160264
0.156056
0.151788
0.202412
0.201068
0.199042
0.196527
0.193663
0.190529
0.187183
0.183667
0.180009
0.176233
0.172353
0.168379
0.164322
0.16019
0.15599
0.151734