/*--------------------------------*- C++ -*----------------------------------*\
| =========                 |                                                 |
| \\      /  F ield         | foam-extend: Open Source CFD                    |
|  \\    /   O peration     | Version:     3.1                                |
|   \\  /    A nd           | Web:         http://www.extend-project.de       |
|    \\/     M anipulation  |                                                 |
\*---------------------------------------------------------------------------*/
FoamFile
{
    version     2.0;
    format      ascii;
    class       surfaceScalarField;
    location    "0.4";
    object      phi;
}
// * * * * * * * * * * * * * * * * * * * * * * * * * * * * * * * * * * * * * //

dimensions      [0 3 -1 0 0 0 0];

internalField   nonuniform List<scalar> 
41600
(
7.52704e-06
-3.73438e-06
-4.15066e-06
4.43853e-06
1.0121e-05
-2.90223e-06
-4.96363e-06
5.27193e-06
1.15876e-05
-1.71476e-06
-4.53565e-06
4.78381e-06
1.23832e-05
-9.82805e-07
-3.94095e-06
4.1281e-06
1.28012e-05
-5.56087e-07
-3.39598e-06
3.53414e-06
1.30002e-05
-3.00424e-07
-2.95034e-06
3.05177e-06
1.30633e-05
-1.38128e-07
-2.61805e-06
2.69299e-06
1.30325e-05
-2.57664e-08
-2.40574e-06
2.46236e-06
1.29247e-05
6.27633e-08
-2.32166e-06
2.36666e-06
1.27412e-05
1.43576e-07
-2.38194e-06
2.42186e-06
1.24671e-05
2.29936e-07
-2.61705e-06
2.66125e-06
1.2063e-05
3.35034e-07
-3.0824e-06
3.15147e-06
1.14342e-05
4.76572e-07
-3.87476e-06
4.02699e-06
1.03197e-05
6.91425e-07
-5.14375e-06
5.56681e-06
7.84551e-06
1.05595e-06
-6.93986e-06
8.35808e-06
1.41897e-06
-7.46017e-06
1.26854e-05
1.35063e-05
-6.2144e-06
-5.60044e-06
6.02592e-06
1.56397e-05
-5.49811e-06
-7.10561e-06
7.56816e-06
1.7078e-05
-3.52324e-06
-6.54962e-06
6.91976e-06
1.79343e-05
-2.11651e-06
-5.68079e-06
5.95819e-06
1.84021e-05
-1.22771e-06
-4.87598e-06
5.07985e-06
1.86223e-05
-6.69921e-07
-4.21704e-06
4.36632e-06
1.86796e-05
-3.05651e-07
-3.72291e-06
3.83308e-06
1.86194e-05
-4.87087e-08
-3.40055e-06
3.4837e-06
1.84597e-05
1.56612e-07
-3.25911e-06
3.32505e-06
1.81984e-05
3.46831e-07
-3.31891e-06
3.37694e-06
1.78128e-05
5.52385e-07
-3.6194e-06
3.6825e-06
1.72466e-05
8.05091e-07
-4.23279e-06
4.32899e-06
1.63681e-05
1.14713e-06
-5.28296e-06
5.4909e-06
1.48415e-05
1.6488e-06
-6.94582e-06
7.515e-06
1.16174e-05
2.42376e-06
-9.17864e-06
1.10349e-05
3.22803e-06
-9.215e-06
1.56281e-05
1.80084e-05
-6.95786e-06
-6.0632e-06
6.56832e-06
1.87086e-05
-6.73786e-06
-7.82308e-06
8.36254e-06
1.93156e-05
-4.55234e-06
-7.17178e-06
7.59396e-06
1.97094e-05
-2.82116e-06
-6.16455e-06
6.47537e-06
1.99188e-05
-1.66251e-06
-5.24689e-06
5.47223e-06
1.99916e-05
-9.0596e-07
-4.50499e-06
4.6683e-06
1.9963e-05
-3.96617e-07
-3.95099e-06
4.07056e-06
1.98531e-05
-2.85478e-08
-3.58539e-06
3.67507e-06
1.96652e-05
2.73917e-07
-3.41259e-06
3.48319e-06
1.93914e-05
5.59051e-07
-3.44922e-06
3.51079e-06
1.90065e-05
8.71258e-07
-3.73113e-06
3.79722e-06
1.84561e-05
1.25619e-06
-4.32552e-06
4.42475e-06
1.76194e-05
1.77236e-06
-5.3467e-06
5.5582e-06
1.61911e-05
2.50645e-06
-6.94776e-06
7.51839e-06
1.3218e-05
3.57486e-06
-9.03153e-06
1.08536e-05
4.57025e-06
-8.805e-06
1.4964e-05
2.20257e-05
-6.52594e-06
-6.4397e-06
7.01731e-06
2.13973e-05
-6.71712e-06
-8.35402e-06
8.96164e-06
2.10809e-05
-4.70119e-06
-7.58471e-06
8.05005e-06
2.0894e-05
-2.97041e-06
-6.44143e-06
6.77752e-06
2.0751e-05
-1.75934e-06
-5.4222e-06
5.66199e-06
2.06142e-05
-9.40659e-07
-4.61052e-06
4.78203e-06
2.04649e-05
-3.71549e-07
-4.0074e-06
4.13165e-06
2.02929e-05
5.06921e-08
-3.60328e-06
3.69605e-06
2.00818e-05
4.13251e-07
-3.39682e-06
3.46863e-06
1.98174e-05
7.61919e-07
-3.396e-06
3.45752e-06
1.94738e-05
1.15048e-06
-3.62899e-06
3.69333e-06
1.90053e-05
1.63108e-06
-4.15147e-06
4.24508e-06
1.83142e-05
2.26891e-06
-5.05898e-06
5.25354e-06
1.7152e-05
3.15274e-06
-6.47463e-06
6.99057e-06
1.47229e-05
4.38145e-06
-8.27708e-06
9.89951e-06
5.42858e-06
-7.911e-06
1.33591e-05
2.54349e-05
-5.35614e-06
-6.79264e-06
7.43533e-06
2.37803e-05
-5.73345e-06
-8.84179e-06
9.51264e-06
2.26718e-05
-4.0984e-06
-7.95745e-06
8.46324e-06
2.19496e-05
-2.60792e-06
-6.68098e-06
7.04062e-06
2.14645e-05
-1.5272e-06
-5.56126e-06
5.81427e-06
2.1118e-05
-7.72802e-07
-4.67959e-06
4.85826e-06
2.08488e-05
-2.30107e-07
-4.02597e-06
4.15372e-06
2.06137e-05
1.92473e-07
-3.58093e-06
3.67419e-06
2.03888e-05
5.66337e-07
-3.3328e-06
3.40463e-06
2.01483e-05
9.42149e-07
-3.28321e-06
3.34346e-06
1.98682e-05
1.37006e-06
-3.44987e-06
3.51043e-06
1.95128e-05
1.90278e-06
-3.87428e-06
3.95795e-06
1.90092e-05
2.60539e-06
-4.63047e-06
4.79768e-06
1.81645e-05
3.56217e-06
-5.81107e-06
6.24625e-06
1.63347e-05
4.85385e-06
-7.28395e-06
8.64136e-06
5.89278e-06
-6.82266e-06
1.14083e-05
2.80853e-05
-3.7307e-06
-7.09108e-06
7.78679e-06
2.57043e-05
-4.07642e-06
-9.25614e-06
9.98013e-06
2.39958e-05
-2.93024e-06
-8.27551e-06
8.81586e-06
2.2849e-05
-1.84108e-06
-6.88331e-06
7.26328e-06
2.20836e-05
-1.02627e-06
-5.6739e-06
5.93835e-06
2.15626e-05
-4.36639e-07
-4.7277e-06
4.91253e-06
2.11942e-05
7.53504e-09
-4.02523e-06
4.15599e-06
2.0915e-05
3.76832e-07
-3.53701e-06
3.63188e-06
2.06878e-05
7.21842e-07
-3.24421e-06
3.31592e-06
2.04839e-05
1.08758e-06
-3.13926e-06
3.19775e-06
2.02815e-05
1.51663e-06
-3.22933e-06
3.28517e-06
2.00559e-05
2.05665e-06
-3.54086e-06
3.61255e-06
1.97582e-05
2.76802e-06
-4.12537e-06
4.26041e-06
1.9248e-05
3.72939e-06
-5.04538e-06
5.38836e-06
1.80221e-05
5.0134e-06
-6.16579e-06
7.23214e-06
6.03582e-06
-5.6307e-06
9.29905e-06
2.98883e-05
-1.83961e-06
-7.30684e-06
8.03998e-06
2.70467e-05
-1.99692e-06
-9.55552e-06
1.03177e-05
2.49434e-05
-1.39228e-06
-8.50414e-06
9.0695e-06
2.35105e-05
-8.02982e-07
-7.02515e-06
7.41989e-06
2.25544e-05
-3.42879e-07
-5.74663e-06
6.0194e-06
2.19174e-05
1.10478e-08
-4.7485e-06
4.93776e-06
2.14843e-05
3.07277e-07
-4.00284e-06
4.13622e-06
2.11852e-05
5.80182e-07
-3.47572e-06
3.57144e-06
2.09722e-05
8.63586e-07
-3.13872e-06
3.20997e-06
2.08161e-05
1.1872e-06
-2.97655e-06
3.03307e-06
2.06995e-05
1.58228e-06
-2.9861e-06
3.03708e-06
2.061e-05
2.08658e-06
-3.17854e-06
3.23808e-06
2.05243e-05
2.75137e-06
-3.58222e-06
3.68457e-06
2.03554e-05
3.6494e-06
-4.22912e-06
4.47802e-06
1.97345e-05
4.86399e-06
-4.98682e-06
5.75714e-06
5.91428e-06
-4.3952e-06
7.14952e-06
3.07976e-05
-7.4224e-06
8.17529e-06
1.75473e-07
2.77351e-05
-9.71115e-06
1.04933e-05
2.83469e-07
2.54422e-05
-8.61745e-06
9.19578e-06
3.22227e-07
2.3874e-05
-7.08786e-06
7.49011e-06
3.63036e-07
2.28316e-05
-5.76755e-06
6.04447e-06
4.22618e-07
2.2144e-05
-4.73494e-06
4.92655e-06
5.06993e-07
2.16944e-05
-3.95954e-06
4.09363e-06
6.22795e-07
2.14031e-05
-3.39952e-06
3.49522e-06
7.75832e-07
2.12209e-05
-3.02219e-06
3.09264e-06
9.75293e-07
2.11202e-05
-2.80548e-06
2.86006e-06
1.23328e-06
2.10898e-05
-2.73678e-06
2.78341e-06
1.56614e-06
2.11306e-05
-2.81254e-06
2.86135e-06
1.99695e-06
2.12482e-05
-3.03722e-06
3.11018e-06
2.56077e-06
2.14213e-05
-3.40915e-06
3.57022e-06
3.31519e-06
2.14428e-05
-3.79926e-06
4.28099e-06
4.36083e-06
-3.19386e-06
5.03755e-06
5.59267e-06
7.96343e-06
-3.99545e-06
-3.75213e-06
1.06274e-05
-3.11632e-06
-4.51128e-06
1.20806e-05
-1.84334e-06
-4.14552e-06
1.28178e-05
-1.05591e-06
-3.62223e-06
1.31562e-05
-5.96262e-07
-3.13814e-06
1.32664e-05
-3.20613e-07
-2.73988e-06
1.32352e-05
-1.45104e-07
-2.44177e-06
1.3103e-05
-2.25869e-08
-2.25093e-06
1.28805e-05
7.57586e-08
-2.1749e-06
1.2557e-05
1.68023e-07
-2.22645e-06
1.20967e-05
2.70137e-07
-2.42689e-06
1.14243e-05
3.9944e-07
-2.80951e-06
1.03881e-05
5.81408e-07
-3.41989e-06
8.67083e-06
8.67767e-07
-4.29429e-06
5.66391e-06
1.34543e-06
-5.27837e-06
1.83853e-06
-4.92864e-06
1.43304e-05
-6.63502e-06
-5.03689e-06
1.64532e-05
-5.90162e-06
-6.44307e-06
1.78257e-05
-3.78763e-06
-5.97779e-06
1.85792e-05
-2.27455e-06
-5.21575e-06
1.89255e-05
-1.31683e-06
-4.50163e-06
1.90157e-05
-7.14923e-07
-3.91295e-06
1.89377e-05
-3.20452e-07
-3.46958e-06
1.8734e-05
-3.98497e-08
-3.17961e-06
1.84134e-05
1.88809e-07
-3.0515e-06
1.79575e-05
4.06363e-07
-3.10143e-06
1.73154e-05
6.4954e-07
-3.35671e-06
1.63833e-05
9.59086e-07
-3.86025e-06
1.49587e-05
1.39161e-06
-4.66859e-06
1.26564e-05
2.03737e-06
-5.81318e-06
8.8314e-06
3.00652e-06
-7.01471e-06
3.92903e-06
-6.10292e-06
1.91567e-05
-7.41679e-06
-5.42268e-06
1.97342e-05
-7.22947e-06
-7.07265e-06
2.02022e-05
-4.89376e-06
-6.53368e-06
2.04479e-05
-3.03201e-06
-5.65282e-06
2.0507e-05
-1.78318e-06
-4.83964e-06
2.04306e-05
-9.66241e-07
-4.17726e-06
2.02533e-05
-4.13942e-07
-3.6802e-06
1.99905e-05
-1.11292e-08
-3.35124e-06
1.96347e-05
3.26397e-07
-3.19443e-06
1.91617e-05
6.5313e-07
-3.22301e-06
1.85184e-05
1.02272e-06
-3.46099e-06
1.76055e-05
1.49334e-06
-3.94687e-06
1.62375e-05
2.1425e-06
-4.72952e-06
1.40719e-05
3.07967e-06
-5.82452e-06
1.05595e-05
4.4071e-06
-6.91973e-06
5.53811e-06
-5.82962e-06
2.34728e-05
-6.9481e-06
-5.73149e-06
2.26252e-05
-7.20506e-06
-7.53082e-06
2.20972e-05
-5.05384e-06
-6.89658e-06
2.17149e-05
-3.19262e-06
-5.89858e-06
2.13926e-05
-1.88682e-06
-4.99625e-06
2.10899e-05
-1.00214e-06
-4.27187e-06
2.07835e-05
-3.84374e-07
-3.73062e-06
2.04547e-05
8.07775e-08
-3.36637e-06
2.00787e-05
4.84804e-07
-3.17919e-06
1.96239e-05
8.85824e-07
-3.17391e-06
1.90395e-05
1.34662e-06
-3.36856e-06
1.82404e-05
1.93431e-06
-3.79334e-06
1.70735e-05
2.73597e-06
-4.48556e-06
1.52605e-05
3.86521e-06
-5.44714e-06
1.23614e-05
5.401e-06
-6.37185e-06
6.59049e-06
-5.25076e-06
2.71376e-05
-5.69833e-06
-6.02295e-06
2.51913e-05
-6.14931e-06
-7.95122e-06
2.38097e-05
-4.40658e-06
-7.22307e-06
2.28496e-05
-2.80359e-06
-6.10995e-06
2.21584e-05
-1.63767e-06
-5.1192e-06
2.16306e-05
-8.21491e-07
-4.33247e-06
2.11971e-05
-2.3111e-07
-3.74576e-06
2.08062e-05
2.3514e-07
-3.34433e-06
2.04222e-05
6.55076e-07
-3.11909e-06
2.00055e-05
1.08905e-06
-3.06978e-06
1.95104e-05
1.59806e-06
-3.20613e-06
1.8868e-05
2.25084e-06
-3.54845e-06
1.79594e-05
3.13597e-06
-4.12186e-06
1.65664e-05
4.36449e-06
-4.91734e-06
1.43388e-05
5.99488e-06
-5.65027e-06
7.18292e-06
-4.55539e-06
2.99873e-05
-3.96837e-06
-6.27077e-06
2.72639e-05
-4.37336e-06
-8.30869e-06
2.52358e-05
-3.1524e-06
-7.50157e-06
2.38175e-05
-1.98048e-06
-6.28815e-06
2.28246e-05
-1.10043e-06
-5.21822e-06
2.21104e-05
-4.61138e-07
-4.37383e-06
2.15739e-05
2.31653e-08
-3.743e-06
2.11404e-05
4.33826e-07
-3.30218e-06
2.07631e-05
8.24213e-07
-3.03606e-06
2.04006e-05
1.24916e-06
-2.93685e-06
2.00134e-05
1.76192e-06
-3.00603e-06
1.95508e-05
2.42626e-06
-3.25368e-06
1.89272e-05
3.32694e-06
-3.69276e-06
1.79793e-05
4.57208e-06
-4.30507e-06
1.64281e-05
6.21594e-06
-4.83562e-06
7.40578e-06
-3.79215e-06
3.19259e-05
-1.95934e-06
-6.45051e-06
2.87101e-05
-2.14598e-06
-8.56707e-06
2.62565e-05
-1.50134e-06
-7.70159e-06
2.45298e-05
-8.66253e-07
-6.41268e-06
2.3332e-05
-3.6777e-07
-5.2815e-06
2.24957e-05
1.71524e-08
-4.39048e-06
2.18918e-05
3.44315e-07
-3.72012e-06
2.14433e-05
6.5043e-07
-3.24382e-06
2.10912e-05
9.74896e-07
-2.93727e-06
2.0796e-05
1.35429e-06
-2.78643e-06
2.05272e-05
1.82948e-06
-2.78493e-06
2.02542e-05
2.45335e-06
-2.93262e-06
1.99275e-05
3.30147e-06
-3.23008e-06
1.94408e-05
4.48006e-06
-3.6504e-06
1.85733e-05
6.07012e-06
-3.97343e-06
7.35047e-06
-2.99699e-06
3.29035e-05
-6.54699e-06
1.79889e-07
2.94515e-05
-8.70123e-06
2.96075e-07
2.67938e-05
-7.8003e-06
3.39222e-07
2.49215e-05
-6.467e-06
3.85192e-07
2.36322e-05
-5.29842e-06
4.52414e-07
2.27424e-05
-4.37595e-06
5.47886e-07
2.21254e-05
-3.6785e-06
6.8033e-07
2.1691e-05
-3.17177e-06
8.57032e-07
2.13817e-05
-2.82817e-06
1.0902e-06
2.11618e-05
-2.62799e-06
1.39668e-06
2.10118e-05
-2.55759e-06
1.80027e-06
2.09232e-05
-2.60697e-06
2.3364e-06
2.08898e-05
-2.76375e-06
3.06145e-06
2.08836e-05
-2.99049e-06
4.06753e-06
2.07784e-05
-3.10539e-06
5.4815e-06
-2.24123e-06
7.1385e-06
8.34049e-06
-4.21929e-06
-3.26168e-06
1.10696e-05
-3.30211e-06
-3.93824e-06
1.2515e-05
-1.95584e-06
-3.63513e-06
1.32036e-05
-1.12022e-06
-3.19057e-06
1.34732e-05
-6.31683e-07
-2.77611e-06
1.35049e-05
-3.38335e-07
-2.43328e-06
1.33895e-05
-1.50977e-07
-2.17538e-06
1.31668e-05
-1.92449e-08
-2.00892e-06
1.28434e-05
8.81983e-08
-1.93971e-06
1.24021e-05
1.91062e-07
-1.97623e-06
1.17982e-05
3.07558e-07
-2.13052e-06
1.09482e-05
4.58207e-07
-2.41773e-06
9.70528e-06
6.73434e-07
-2.85041e-06
7.8146e-06
1.01035e-06
-3.41396e-06
4.92318e-06
1.54898e-06
-3.93593e-06
2.06447e-06
-3.42461e-06
1.50417e-05
-6.99519e-06
-4.36026e-06
1.71623e-05
-6.25181e-06
-5.61404e-06
1.84834e-05
-4.01891e-06
-5.23575e-06
1.9151e-05
-2.41348e-06
-4.59013e-06
1.93923e-05
-1.39531e-06
-3.97928e-06
1.9368e-05
-7.54308e-07
-3.47272e-06
1.91694e-05
-3.32746e-07
-3.08919e-06
1.88378e-05
-3.08453e-08
-2.83637e-06
1.83758e-05
2.19417e-07
-2.72072e-06
1.77564e-05
4.61857e-07
-2.75285e-06
1.69167e-05
7.38425e-07
-2.94786e-06
1.57432e-05
1.09603e-06
-3.3246e-06
1.40452e-05
1.59914e-06
-3.89628e-06
1.15299e-05
2.34328e-06
-4.63086e-06
7.89461e-06
3.4159e-06
-5.2463e-06
4.32223e-06
-4.24732e-06
2.01474e-05
-7.80931e-06
-4.67296e-06
2.0627e-05
-7.65621e-06
-6.14788e-06
2.09812e-05
-5.19252e-06
-5.71421e-06
2.11019e-05
-3.21735e-06
-4.96972e-06
2.10312e-05
-1.88933e-06
-4.27488e-06
2.08236e-05
-1.0188e-06
-3.70521e-06
2.05139e-05
-4.27858e-07
-3.27535e-06
2.01149e-05
5.53879e-09
-2.98859e-06
1.96116e-05
3.76138e-07
-2.84788e-06
1.89712e-05
7.40454e-07
-2.86119e-06
1.8129e-05
1.16047e-06
-3.04084e-06
1.69777e-05
1.70259e-06
-3.40214e-06
1.53462e-05
2.45386e-06
-3.95268e-06
1.29869e-05
3.52777e-06
-4.64978e-06
9.68307e-06
4.98993e-06
-5.18989e-06
6.06847e-06
-4.05863e-06
2.47211e-05
-7.30883e-06
-4.91957e-06
2.36936e-05
-7.62868e-06
-6.53081e-06
2.29892e-05
-5.36251e-06
-6.02222e-06
2.24412e-05
-3.38791e-06
-5.17998e-06
2.1964e-05
-1.99879e-06
-4.40956e-06
2.15155e-05
-1.05542e-06
-3.78682e-06
2.10698e-05
-3.93863e-07
-3.31886e-06
2.06009e-05
1.09674e-07
-3.00167e-06
2.00801e-05
5.52339e-07
-2.8345e-06
1.94648e-05
1.00066e-06
-2.8189e-06
1.86946e-05
1.52479e-06
-2.96265e-06
1.76778e-05
2.20162e-06
-3.27554e-06
1.62759e-05
3.1289e-06
-3.7587e-06
1.42971e-05
4.42365e-06
-4.36423e-06
1.15954e-05
6.11921e-06
-4.79944e-06
7.23406e-06
-3.65913e-06
2.86065e-05
-5.9905e-06
-5.15387e-06
2.64187e-05
-6.51029e-06
-6.88181e-06
2.4808e-05
-4.67628e-06
-6.29852e-06
2.36454e-05
-2.97536e-06
-5.35991e-06
2.2776e-05
-1.73433e-06
-4.51434e-06
2.20893e-05
-8.63059e-07
-3.83811e-06
2.15102e-05
-2.2966e-07
-3.3308e-06
2.09802e-05
2.76498e-07
-2.98117e-06
2.04561e-05
7.38695e-07
-2.7814e-06
1.98903e-05
1.22523e-06
-2.72851e-06
1.9228e-05
1.80539e-06
-2.82439e-06
1.83954e-05
2.55829e-06
-3.0726e-06
1.72867e-05
3.58403e-06
-3.46827e-06
1.57572e-05
4.99742e-06
-3.96159e-06
1.37025e-05
6.80717e-06
-4.28353e-06
7.91092e-06
-3.18366e-06
3.16282e-05
-4.1711e-06
-5.35411e-06
2.86206e-05
-4.63089e-06
-7.18046e-06
2.63234e-05
-3.34653e-06
-6.53411e-06
2.46736e-05
-2.10243e-06
-5.51134e-06
2.34841e-05
-1.16469e-06
-4.59832e-06
2.26006e-05
-4.8092e-07
-3.87245e-06
2.19152e-05
3.94261e-08
-3.32675e-06
2.13442e-05
4.88558e-07
-2.94321e-06
2.08344e-05
9.20575e-07
-2.70813e-06
2.03367e-05
1.39913e-06
-2.61303e-06
1.98044e-05
1.9855e-06
-2.6539e-06
1.91832e-05
2.75393e-06
-2.82806e-06
1.83982e-05
3.80144e-06
-3.12517e-06
1.73441e-05
5.24193e-06
-3.4955e-06
1.5934e-05
7.08171e-06
-3.70009e-06
8.19489e-06
-2.66415e-06
3.36839e-05
-2.06122e-06
-5.49978e-06
3.01571e-05
-2.27479e-06
-7.39638e-06
2.74082e-05
-1.59606e-06
-6.70317e-06
2.54308e-05
-9.20815e-07
-5.61686e-06
2.40242e-05
-3.88102e-07
-4.65148e-06
2.30136e-05
2.43987e-08
-3.88528e-06
2.22584e-05
3.80377e-07
-3.30586e-06
2.16769e-05
7.1726e-07
-2.89096e-06
2.12015e-05
1.07959e-06
-2.62091e-06
2.07867e-05
1.50964e-06
-2.48214e-06
2.03968e-05
2.05556e-06
-2.46513e-06
1.99992e-05
2.7801e-06
-2.56111e-06
1.95534e-05
3.77148e-06
-2.75434e-06
1.89955e-05
5.14544e-06
-2.99599e-06
1.82388e-05
6.94647e-06
-3.08149e-06
8.19115e-06
-2.12508e-06
3.47204e-05
-5.57811e-06
1.84142e-07
3.09447e-05
-7.50836e-06
3.0803e-07
2.79792e-05
-6.78628e-06
3.55353e-07
2.58475e-05
-5.66234e-06
4.06233e-07
2.43451e-05
-4.66483e-06
4.80701e-07
2.32786e-05
-3.87161e-06
5.86621e-07
2.25135e-05
-3.26791e-06
7.34827e-07
2.19518e-05
-2.82656e-06
9.33741e-07
2.15295e-05
-2.52448e-06
1.19821e-06
2.12062e-05
-2.34393e-06
1.54895e-06
2.09592e-05
-2.27041e-06
2.01534e-06
2.07809e-05
-2.28934e-06
2.64078e-06
2.0675e-05
-2.37918e-06
3.49278e-06
2.0646e-05
-2.49105e-06
4.675e-06
2.06488e-05
-2.45899e-06
6.29731e-06
-1.62529e-06
8.05249e-06
8.65653e-06
-4.40573e-06
-2.69654e-06
1.14431e-05
-3.45834e-06
-3.26643e-06
1.28845e-05
-2.05106e-06
-3.02554e-06
1.35337e-05
-1.17484e-06
-2.66488e-06
1.37459e-05
-6.61804e-07
-2.32649e-06
1.37112e-05
-3.53333e-07
-2.04526e-06
1.35241e-05
-1.55759e-07
-1.83253e-06
1.32248e-05
-1.60334e-08
-1.69365e-06
1.28183e-05
9.93594e-08
-1.63255e-06
1.22848e-05
2.11338e-07
-1.65401e-06
1.15778e-05
3.39791e-07
-1.76333e-06
1.06174e-05
5.07166e-07
-1.96453e-06
9.2752e-06
7.46105e-07
-2.25429e-06
7.35078e-06
1.11415e-06
-2.60369e-06
4.60739e-06
1.68312e-06
-2.87566e-06
2.20151e-06
-2.41035e-06
1.56373e-05
-7.29471e-06
-3.59291e-06
1.77607e-05
-6.5462e-06
-4.64954e-06
1.90422e-05
-4.21453e-06
-4.35384e-06
1.96399e-05
-2.53139e-06
-3.83119e-06
1.97936e-05
-1.46197e-06
-3.33281e-06
1.96724e-05
-7.87557e-07
-2.91738e-06
1.93712e-05
-3.42642e-07
-2.60111e-06
1.89316e-05
-2.23257e-08
-2.3904e-06
1.8353e-05
2.46711e-07
-2.28954e-06
1.76055e-05
5.10333e-07
-2.30428e-06
1.66239e-05
8.14357e-07
-2.44086e-06
1.53005e-05
1.20936e-06
-2.70343e-06
1.34719e-05
1.76316e-06
-3.08473e-06
1.09218e-05
2.57037e-06
-3.53694e-06
7.50053e-06
3.69864e-06
-3.84056e-06
4.57411e-06
-2.9937e-06
2.09769e-05
-8.13529e-06
-3.83665e-06
2.13798e-05
-8.01493e-06
-5.08204e-06
2.16424e-05
-5.44524e-06
-4.74615e-06
2.16606e-05
-3.37463e-06
-4.14464e-06
2.14814e-05
-1.97941e-06
-3.57825e-06
2.1163e-05
-1.06304e-06
-3.11131e-06
2.07407e-05
-4.3878e-07
-2.75696e-06
2.02266e-05
2.12191e-08
-2.51804e-06
1.96017e-05
4.20322e-07
-2.39652e-06
1.88298e-05
8.16535e-07
-2.39554e-06
1.78447e-05
1.27786e-06
-2.51923e-06
1.65455e-05
1.8755e-06
-2.76907e-06
1.47894e-05
2.70032e-06
-3.13378e-06
1.24055e-05
3.8629e-06
-3.55845e-06
9.325e-06
5.3979e-06
-3.8086e-06
6.4116e-06
-2.86283e-06
2.57664e-05
-7.60811e-06
-4.02641e-06
2.4594e-05
-7.98475e-06
-5.38863e-06
2.3746e-05
-5.62361e-06
-4.99584e-06
2.30611e-05
-3.55356e-06
-4.31616e-06
2.24544e-05
-2.09365e-06
-3.68855e-06
2.18828e-05
-1.09999e-06
-3.17833e-06
2.13185e-05
-4.00556e-07
-2.79279e-06
2.07315e-05
1.35751e-07
-2.52918e-06
2.00908e-05
6.12306e-07
-2.38573e-06
1.93492e-05
1.10068e-06
-2.36146e-06
1.84449e-05
1.67664e-06
-2.45711e-06
1.72927e-05
2.42277e-06
-2.67064e-06
1.57808e-05
3.44084e-06
-2.98736e-06
1.37867e-05
4.8435e-06
-3.35065e-06
1.12947e-05
6.62502e-06
-3.53458e-06
7.65064e-06
-2.58239e-06
2.98366e-05
-6.23268e-06
-4.20783e-06
2.7453e-05
-6.81363e-06
-5.6694e-06
2.56545e-05
-4.90433e-06
-5.2193e-06
2.43243e-05
-3.12092e-06
-4.46233e-06
2.3306e-05
-1.81594e-06
-3.77373e-06
2.2485e-05
-8.97325e-07
-3.2198e-06
2.17821e-05
-2.26501e-07
-2.80195e-06
2.11343e-05
3.14074e-07
-2.51165e-06
2.04941e-05
8.12856e-07
-2.34175e-06
1.981e-05
1.34395e-06
-2.28775e-06
1.90262e-05
1.98239e-06
-2.34637e-06
1.8075e-05
2.81331e-06
-2.51186e-06
1.68733e-05
3.94112e-06
-2.76688e-06
1.53354e-05
5.47587e-06
-3.05601e-06
1.34649e-05
7.38284e-06
-3.17091e-06
8.38538e-06
-2.24967e-06
3.30023e-05
-4.33899e-06
-4.3636e-06
2.97637e-05
-4.84709e-06
-5.90843e-06
2.72455e-05
-3.51046e-06
-5.40977e-06
2.54039e-05
-2.20545e-06
-4.58517e-06
2.40498e-05
-1.21846e-06
-3.84173e-06
2.30235e-05
-4.96264e-07
-3.24715e-06
2.22114e-05
5.65725e-08
-2.79773e-06
2.15239e-05
5.37916e-07
-2.47955e-06
2.09036e-05
1.00604e-06
-2.28103e-06
2.02979e-05
1.5301e-06
-2.19345e-06
1.96591e-05
2.17688e-06
-2.20963e-06
1.89379e-05
3.02668e-06
-2.32028e-06
1.80786e-05
4.18133e-06
-2.50607e-06
1.70223e-05
5.7511e-06
-2.71442e-06
1.5765e-05
7.69922e-06
-2.75921e-06
8.71409e-06
-1.88799e-06
3.5156e-05
-2.14539e-06
-4.47722e-06
3.13764e-05
-2.38256e-06
-6.08128e-06
2.83846e-05
-1.67558e-06
-5.54635e-06
2.61992e-05
-9.66303e-07
-4.67057e-06
2.4618e-05
-4.04243e-07
-3.88445e-06
2.346e-05
3.32418e-08
-3.25678e-06
2.25767e-05
4.13651e-07
-2.77967e-06
2.1882e-05
7.77329e-07
-2.43567e-06
2.13033e-05
1.17251e-06
-2.20871e-06
2.0792e-05
1.64565e-06
-2.0864e-06
2.0312e-05
2.24978e-06
-2.05795e-06
1.98349e-05
3.05332e-06
-2.11073e-06
1.93357e-05
4.1498e-06
-2.22358e-06
1.87843e-05
5.65412e-06
-2.34764e-06
1.81493e-05
7.57513e-06
-2.32238e-06
8.74929e-06
-1.51524e-06
3.62419e-05
-4.53842e-06
1.88028e-07
3.22029e-05
-6.17082e-06
3.18842e-07
2.89844e-05
-5.61325e-06
3.69948e-07
2.66374e-05
-4.70701e-06
4.25272e-07
2.49567e-05
-3.89458e-06
5.06291e-07
2.37412e-05
-3.24465e-06
6.21766e-07
2.28504e-05
-2.74738e-06
7.83905e-07
2.21804e-05
-2.3816e-06
1.00242e-06
2.16628e-05
-2.12862e-06
1.29417e-06
2.1255e-05
-1.97308e-06
1.68269e-06
2.09344e-05
-1.90102e-06
2.20099e-06
2.06981e-05
-1.8967e-06
2.89695e-06
2.05629e-05
-1.93687e-06
3.84269e-06
2.05587e-05
-1.97589e-06
5.1432e-06
2.06709e-05
-1.88297e-06
6.88693e-06
-1.17767e-06
8.66816e-06
8.91047e-06
-4.55478e-06
-2.07287e-06
1.17448e-05
-3.58423e-06
-2.51656e-06
1.31847e-05
-2.12813e-06
-2.33728e-06
1.38031e-05
-1.21915e-06
-2.06417e-06
1.39694e-05
-6.86246e-07
-1.80655e-06
1.38812e-05
-3.65442e-07
-1.59159e-06
1.36363e-05
-1.59484e-07
-1.42815e-06
1.3276e-05
-1.31817e-08
-1.32019e-06
1.28048e-05
1.0873e-07
-1.27009e-06
1.22029e-05
2.28021e-07
-1.28008e-06
1.14254e-05
3.65722e-07
-1.35155e-06
1.03988e-05
5.45316e-07
-1.48326e-06
9.01108e-06
8.00263e-07
-1.66683e-06
7.09537e-06
1.1874e-06
-1.87539e-06
4.46041e-06
1.77337e-06
-2.01407e-06
2.29053e-06
-1.65459e-06
1.61157e-05
-7.5337e-06
-2.7553e-06
1.82437e-05
-6.78317e-06
-3.57868e-06
1.94958e-05
-4.3727e-06
-3.36137e-06
2.00386e-05
-2.62695e-06
-2.96613e-06
2.01223e-05
-1.51598e-06
-2.58685e-06
1.99232e-05
-8.14352e-07
-2.26937e-06
1.95394e-05
-3.50287e-07
-2.02644e-06
1.90135e-05
-1.48164e-08
-1.86285e-06
1.83442e-05
2.69496e-07
-1.78105e-06
1.75015e-05
5.50013e-07
-1.78354e-06
1.64227e-05
8.75193e-07
-1.87151e-06
1.50093e-05
1.29758e-06
-2.04229e-06
1.31212e-05
1.8861e-06
-2.28256e-06
1.05886e-05
2.73312e-06
-2.54997e-06
7.32122e-06
3.89316e-06
-2.69302e-06
4.7428e-06
-2.05712e-06
2.16429e-05
-8.39508e-06
-2.93382e-06
2.19872e-05
-8.30363e-06
-3.90593e-06
2.21788e-05
-5.64956e-06
-3.66086e-06
2.21159e-05
-3.50205e-06
-3.20667e-06
2.18501e-05
-2.05236e-06
-2.77601e-06
2.14424e-05
-1.09861e-06
-2.41936e-06
2.09296e-05
-4.47105e-07
-2.14733e-06
2.03233e-05
3.54502e-08
-1.962e-06
1.96035e-05
4.57036e-07
-1.86434e-06
1.8734e-05
8.78718e-07
-1.85467e-06
1.76507e-05
1.37186e-06
-1.93262e-06
1.62626e-05
2.01024e-06
-2.09364e-06
1.44508e-05
2.88578e-06
-2.32167e-06
1.20903e-05
4.10489e-06
-2.56968e-06
9.1693e-06
5.68127e-06
-2.67575e-06
6.64347e-06
-1.96881e-06
2.66056e-05
-7.84639e-06
-3.07135e-06
2.53204e-05
-8.27127e-06
-4.13583e-06
2.43595e-05
-5.83473e-06
-3.84983e-06
2.35661e-05
-3.68774e-06
-3.33705e-06
2.28557e-05
-2.17037e-06
-2.86011e-06
2.2185e-05
-1.13566e-06
-2.47058e-06
2.1525e-05
-4.05128e-07
-2.17479e-06
2.08437e-05
1.58368e-07
-1.97075e-06
2.01091e-05
6.62194e-07
-1.85636e-06
1.92732e-05
1.18247e-06
-1.82928e-06
1.82764e-05
1.79836e-06
-1.88681e-06
1.70428e-05
2.59545e-06
-2.02226e-06
1.54826e-05
3.67641e-06
-2.21779e-06
1.35146e-05
5.14821e-06
-2.42594e-06
1.11733e-05
6.97806e-06
-2.49009e-06
7.93233e-06
-1.77678e-06
3.08241e-05
-6.42536e-06
-3.20365e-06
2.82873e-05
-7.05763e-06
-4.3463e-06
2.63407e-05
-5.08866e-06
-4.0187e-06
2.48771e-05
-3.2387e-06
-3.44783e-06
2.37395e-05
-1.88176e-06
-2.92469e-06
2.28103e-05
-9.24412e-07
-2.5019e-06
2.20075e-05
-2.22813e-07
-2.18145e-06
2.12653e-05
3.46015e-07
-1.95706e-06
2.05339e-05
8.74571e-07
-1.82275e-06
1.97611e-05
1.44116e-06
-1.77363e-06
1.8893e-05
2.12454e-06
-1.80444e-06
1.78699e-05
3.01298e-06
-1.90633e-06
1.66281e-05
4.21178e-06
-2.06045e-06
1.51166e-05
5.82467e-06
-2.22097e-06
1.33801e-05
7.78624e-06
-2.24256e-06
8.70635e-06
-1.5488e-06
3.41055e-05
-4.47243e-06
-3.31773e-06
3.06859e-05
-5.02086e-06
-4.52557e-06
2.79928e-05
-3.64281e-06
-4.16261e-06
2.59984e-05
-2.28859e-06
-3.54084e-06
2.45125e-05
-1.26149e-06
-2.97609e-06
2.3371e-05
-5.0779e-07
-2.52231e-06
2.24565e-05
7.17471e-08
-2.17775e-06
2.16754e-05
5.7966e-07
-1.93215e-06
2.0968e-05
1.07722e-06
-1.77628e-06
2.02806e-05
1.63754e-06
-1.70235e-06
1.95671e-05
2.33098e-06
-1.70259e-06
1.87851e-05
3.24095e-06
-1.76628e-06
1.78945e-05
4.47041e-06
-1.87406e-06
1.68638e-05
6.12395e-06
-1.98301e-06
1.57192e-05
8.13372e-06
-1.96209e-06
9.06615e-06
-1.30179e-06
3.63379e-05
-2.21216e-06
-3.40113e-06
3.23599e-05
-2.46892e-06
-4.6552e-06
2.9176e-05
-1.73946e-06
-4.26575e-06
2.68248e-05
-1.00259e-06
-3.60539e-06
2.51036e-05
-4.16533e-07
-3.0082e-06
2.38267e-05
4.15118e-08
-2.52916e-06
2.284e-05
4.4223e-07
-2.16346e-06
2.20541e-05
8.28014e-07
-1.89817e-06
2.13935e-05
1.24998e-06
-1.72089e-06
2.08085e-05
1.75752e-06
-1.62132e-06
2.02642e-05
2.40671e-06
-1.58944e-06
1.97384e-05
3.26886e-06
-1.61284e-06
1.92181e-05
4.43905e-06
-1.67186e-06
1.86931e-05
6.0284e-06
-1.72712e-06
1.81494e-05
8.01943e-06
-1.6644e-06
9.12959e-06
-1.04874e-06
3.74634e-05
-3.44611e-06
1.9137e-07
3.32179e-05
-4.7223e-06
3.2807e-07
2.97989e-05
-4.31614e-06
3.82408e-07
2.72805e-05
-3.63271e-06
4.4152e-07
2.54568e-05
-3.01545e-06
5.281e-07
2.41213e-05
-2.51937e-06
6.51668e-07
2.31289e-05
-2.13819e-06
8.25484e-07
2.23714e-05
-1.8563e-06
1.06024e-06
2.17779e-05
-1.65945e-06
1.3743e-06
2.13046e-05
-1.53535e-06
1.79306e-06
2.09307e-05
-1.47209e-06
2.35169e-06
2.06584e-05
-1.4557e-06
3.1002e-06
2.05146e-05
-1.46609e-06
4.11204e-06
2.05441e-05
-1.46723e-06
5.49023e-06
2.0739e-05
-1.36518e-06
7.30668e-06
-8.23955e-07
9.09259e-06
9.1017e-06
-4.66677e-06
-1.40587e-06
1.19727e-05
-3.67964e-06
-1.70793e-06
1.34123e-05
-2.18674e-06
-1.59012e-06
1.40083e-05
-1.25292e-06
-1.40722e-06
1.41403e-05
-7.04893e-07
-1.23369e-06
1.40118e-05
-3.74673e-07
-1.08845e-06
1.37235e-05
-1.62288e-07
-9.77575e-07
1.33179e-05
-1.09591e-08
-9.03623e-07
1.27998e-05
1.15926e-07
-8.67865e-07
1.21502e-05
2.4066e-07
-8.71109e-07
1.13267e-05
3.85013e-07
-9.13081e-07
1.02616e-05
5.72995e-07
-9.91179e-07
8.85419e-06
8.38307e-07
-1.09773e-06
6.95561e-06
1.23711e-06
-1.21392e-06
4.39024e-06
1.83312e-06
-1.28182e-06
2.34833e-06
-1.04065e-06
1.64756e-05
-7.71243e-06
-1.86692e-06
1.86085e-05
-6.96183e-06
-2.42934e-06
1.98397e-05
-4.49229e-06
-2.28704e-06
2.0342e-05
-2.69928e-06
-2.02205e-06
2.03735e-05
-1.55688e-06
-1.76641e-06
2.01158e-05
-8.34561e-07
-1.55179e-06
1.96699e-05
-3.55886e-07
-1.38691e-06
1.90799e-05
-8.95466e-09
-1.27489e-06
1.83447e-05
2.86987e-07
-1.21692e-06
1.74356e-05
5.79998e-07
-1.21374e-06
1.62932e-05
9.20353e-07
-1.26449e-06
1.48273e-05
1.36158e-06
-1.36499e-06
1.29138e-05
1.97279e-06
-1.50353e-06
1.04074e-05
2.84442e-06
-1.65083e-06
7.23834e-06
4.02314e-06
-1.71401e-06
4.85452e-06
-1.29371e-06
2.21436e-05
-8.58911e-06
-1.98268e-06
2.24456e-05
-8.52111e-06
-2.64861e-06
2.25851e-05
-5.80395e-06
-2.4887e-06
2.24622e-05
-3.59844e-06
-2.18459e-06
2.21315e-05
-2.1075e-06
-1.8947e-06
2.16568e-05
-1.12536e-06
-1.65383e-06
2.1076e-05
-4.53111e-07
-1.46933e-06
2.0401e-05
4.65287e-08
-1.3425e-06
1.96124e-05
4.85163e-07
-1.27389e-06
1.86745e-05
9.25699e-07
-1.26245e-06
1.75269e-05
1.44167e-06
-1.30639e-06
1.6087e-05
2.10817e-06
-1.40032e-06
1.42519e-05
3.01705e-06
-1.53083e-06
1.1921e-05
4.27138e-06
-1.66574e-06
9.10196e-06
5.87189e-06
-1.70547e-06
6.79835e-06
-1.2393e-06
2.72363e-05
-8.02427e-06
-2.07131e-06
2.58685e-05
-8.48709e-06
-2.80197e-06
2.48242e-05
-5.99425e-06
-2.61526e-06
2.395e-05
-3.78921e-06
-2.27203e-06
2.31619e-05
-2.22831e-06
-1.95123e-06
2.24166e-05
-1.16236e-06
-1.68831e-06
2.16847e-05
-4.08114e-07
-1.4879e-06
2.09331e-05
1.76081e-07
-1.34872e-06
2.01302e-05
7.00471e-07
-1.26872e-06
1.9228e-05
1.24433e-06
-1.24573e-06
1.81704e-05
1.8889e-06
-1.27644e-06
1.68893e-05
2.72124e-06
-1.35418e-06
1.53095e-05
3.84372e-06
-1.46468e-06
1.33718e-05
5.35877e-06
-1.57564e-06
1.11274e-05
7.21652e-06
-1.59031e-06
8.12084e-06
-1.11915e-06
3.15663e-05
-6.56912e-06
-2.15738e-06
2.89168e-05
-7.24137e-06
-2.94256e-06
2.68603e-05
-5.22792e-06
-2.72844e-06
2.52972e-05
-3.32771e-06
-2.34629e-06
2.40701e-05
-1.93135e-06
-1.99451e-06
2.30596e-05
-9.44499e-07
-1.70923e-06
2.21816e-05
-2.19398e-07
-1.4922e-06
2.13689e-05
3.70973e-07
-1.33928e-06
2.05708e-05
9.21957e-07
-1.24607e-06
1.97353e-05
1.51479e-06
-1.20863e-06
1.88114e-05
2.23048e-06
-1.2221e-06
1.77462e-05
3.1588e-06
-1.27872e-06
1.64887e-05
4.40463e-06
-1.36385e-06
1.50063e-05
6.06659e-06
-1.44641e-06
1.33568e-05
8.05953e-06
-1.436e-06
8.92102e-06
-9.75988e-07
3.49346e-05
-4.57192e-06
-2.2319e-06
3.13816e-05
-5.15163e-06
-3.06232e-06
2.85587e-05
-3.74269e-06
-2.82492e-06
2.64501e-05
-2.35129e-06
-2.40863e-06
2.48652e-05
-1.29372e-06
-2.0289e-06
2.36372e-05
-5.15975e-07
-1.72275e-06
2.26455e-05
8.39886e-08
-1.48946e-06
2.17944e-05
6.12166e-07
-1.3223e-06
2.1023e-05
1.13192e-06
-1.21476e-06
2.02774e-05
1.71908e-06
-1.16104e-06
1.9514e-05
2.4461e-06
-1.15485e-06
1.86961e-05
3.39786e-06
-1.18747e-06
1.77939e-05
4.67707e-06
-1.24428e-06
1.67902e-05
6.38343e-06
-1.29619e-06
1.57198e-05
8.42889e-06
-1.261e-06
9.30159e-06
-8.2103e-07
3.72262e-05
-2.26186e-06
-2.28651e-06
3.3102e-05
-2.53375e-06
-3.14891e-06
2.97751e-05
-1.78749e-06
-2.89406e-06
2.73e-05
-1.02971e-06
-2.45186e-06
2.54738e-05
-4.25348e-07
-2.0503e-06
2.41073e-05
4.84545e-08
-1.72713e-06
2.30427e-05
4.64764e-07
-1.47963e-06
2.21885e-05
8.67433e-07
-1.2992e-06
2.14673e-05
1.30962e-06
-1.17742e-06
2.08293e-05
1.84263e-06
-1.10689e-06
2.02417e-05
2.5243e-06
-1.08005e-06
1.96869e-05
3.42726e-06
-1.08737e-06
1.91599e-05
4.64661e-06
-1.1144e-06
1.86608e-05
6.28985e-06
-1.13446e-06
1.81783e-05
8.32217e-06
-1.07516e-06
9.38443e-06
-6.62671e-07
3.83815e-05
-2.316e-06
1.94017e-07
3.39838e-05
-3.19371e-06
3.35339e-07
3.04158e-05
-2.92779e-06
3.92223e-07
2.77691e-05
-2.47006e-06
4.54309e-07
2.5838e-05
-2.05496e-06
5.45244e-07
2.44123e-05
-1.72027e-06
6.75118e-07
2.33432e-05
-1.4623e-06
8.57971e-07
2.25198e-05
-1.27074e-06
1.10518e-06
2.18699e-05