/*--------------------------------*- C++ -*----------------------------------*\
| =========                 |                                                 |
| \\      /  F ield         | foam-extend: Open Source CFD                    |
|  \\    /   O peration     | Version:     3.1                                |
|   \\  /    A nd           | Web:         http://www.extend-project.de       |
|    \\/     M anipulation  |                                                 |
\*---------------------------------------------------------------------------*/
FoamFile
{
    version     2.0;
    format      ascii;
    class       pointVectorField;
    location    "0.4";
    object      pointMotionU;
}
// * * * * * * * * * * * * * * * * * * * * * * * * * * * * * * * * * * * * * //

dimensions      [0 1 -1 0 0 0 0];

internalField   nonuniform List<vector> 
16859
(
(0 0 0)
(0 0 0)
(0 0 0)
(0 0 0)
(0 0 0)
(0 0 0)
(0 0 0)
(0 0 0)
(0 0 0)
(0 0 0)
(0 0 0)
(0 0 0)
(0 0 0)
(0 0 0)
(0 0 0)
(0 0 0)
(0 0 0)
(0 0 0)
(3.8895e-10 -1.5319e-09 2.2781e-10)
(7.55614e-10 -3.00507e-09 4.52442e-10)
(1.10364e-09 -4.45695e-09 6.84388e-10)
(1.44938e-09 -5.96781e-09 9.40022e-10)
(1.81063e-09 -7.61646e-09 1.23529e-09)
(2.20879e-09 -9.48719e-09 1.5867e-09)
(2.67148e-09 -1.16773e-08 2.01201e-09)
(3.23621e-09 -1.43061e-08 2.53071e-09)
(3.95523e-09 -1.7525e-08 3.16437e-09)
(4.90187e-09 -2.153e-08 3.93752e-09)
(6.17874e-09 -2.65716e-08 4.8808e-09)
(7.92664e-09 -3.29541e-08 6.0412e-09)
(1.03295e-08 -4.09894e-08 7.5078e-09)
(1.35919e-08 -5.078e-08 9.45048e-09)
(1.7854e-08 -6.13069e-08 1.2074e-08)
(3.07451e-08 -1.02029e-07 2.07137e-08)
(0 0 0)
(7.68272e-10 -2.99429e-09 4.48206e-10)
(1.49185e-09 -5.87152e-09 8.89815e-10)
(2.17733e-09 -8.70268e-09 1.34515e-09)
(2.8563e-09 -1.16417e-08 1.846e-09)
(3.56289e-09 -1.4838e-08 2.42316e-09)
(4.33789e-09 -1.84492e-08 3.10817e-09)
(5.23384e-09 -2.26547e-08 3.93449e-09)
(6.322e-09 -2.767e-08 4.9378e-09)
(7.70172e-09 -3.37642e-08 6.15528e-09)
(9.51302e-09 -4.12759e-08 7.62348e-09)
(1.19521e-08 -5.0622e-08 9.37439e-09)
(1.5288e-08 -6.22745e-08 1.14291e-08)
(1.9869e-08 -7.66344e-08 1.37858e-08)
(2.60764e-08 -9.35796e-08 1.63909e-08)
(3.4127e-08 -1.10931e-07 1.91323e-08)
(7.15536e-08 -1.65377e-07 1.75848e-08)
(0 0 0)
(1.12935e-09 -4.32412e-09 6.54599e-10)
(2.1914e-09 -8.47399e-09 1.29874e-09)
(3.19439e-09 -1.2547e-08 1.96131e-09)
(4.18299e-09 -1.67587e-08 2.68778e-09)
(5.20495e-09 -2.13147e-08 3.52179e-09)
(6.31669e-09 -2.64269e-08 4.50741e-09)
(7.59031e-09 -3.23298e-08 5.69047e-09)
(9.12314e-09 -3.92974e-08 7.11812e-09)
(1.10508e-08 -4.76594e-08 8.83586e-09)
(1.35642e-08 -5.7814e-08 1.08801e-08)
(1.69302e-08 -7.02212e-08 1.32613e-08)
(2.15055e-08 -8.5343e-08 1.59309e-08)
(2.77161e-08 -1.03437e-07 1.8715e-08)
(3.59115e-08 -1.23946e-07 2.12182e-08)
(4.60033e-08 -1.43754e-07 2.2939e-08)
(7.70938e-08 -2.02058e-07 1.2071e-08)
(0 0 0)
(1.46457e-09 -5.46655e-09 8.41333e-10)
(2.83912e-09 -1.07044e-08 1.66778e-09)
(4.13179e-09 -1.58284e-08 2.51511e-09)
(5.39745e-09 -2.10999e-08 3.44015e-09)
(6.69373e-09 -2.67624e-08 4.49673e-09)
(8.0875e-09 -3.30591e-08 5.73845e-09)
(9.66289e-09 -4.02482e-08 7.21979e-09)
(1.15321e-08 -4.86183e-08 8.99494e-09)
(1.38503e-08 -5.84993e-08 1.1113e-08)
(1.68355e-08 -7.02643e-08 1.36066e-08)
(2.07911e-08 -8.43049e-08 1.64683e-08)
(2.61178e-08 -1.00941e-07 1.96058e-08)
(3.32669e-08 -1.20172e-07 2.27651e-08)
(4.25008e-08 -1.41043e-07 2.54448e-08)
(5.33978e-08 -1.59996e-07 2.70796e-08)
(8.10664e-08 -2.13765e-07 1.85538e-08)
(0 0 0)
(1.76799e-09 -6.3789e-09 1.00412e-09)
(3.42341e-09 -1.24798e-08 1.98838e-09)
(4.9723e-09 -1.84254e-08 2.99342e-09)
(6.47644e-09 -2.45058e-08 4.0847e-09)
(7.99914e-09 -3.09836e-08 5.32341e-09)
(9.61182e-09 -3.811e-08 6.7694e-09)
(1.14019e-08 -4.61375e-08 8.48216e-09)
(1.3483e-08 -5.53305e-08 1.05192e-08)
(1.60094e-08 -6.59675e-08 1.29308e-08)
(1.91947e-08 -7.83326e-08 1.57476e-08)
(2.33351e-08 -9.26763e-08 1.89593e-08)
(2.88278e-08 -1.09114e-07 2.24775e-08)
(3.61421e-08 -1.2739e-07 2.60868e-08)
(4.56129e-08 -1.46322e-07 2.94069e-08)
(5.69267e-08 -1.62405e-07 3.20221e-08)
(8.11224e-08 -2.08523e-07 3.19444e-08)
(0 0 0)
(2.03554e-09 -7.03176e-09 1.14021e-09)
(3.9365e-09 -1.37443e-08 2.2551e-09)
(5.70498e-09 -2.02592e-08 3.38809e-09)
(7.40634e-09 -2.68795e-08 4.61045e-09)
(9.10548e-09 -3.38695e-08 5.98773e-09)
(1.08727e-08 -4.14689e-08 7.58279e-09)
(1.27904e-08 -4.9902e-08 9.45666e-09)
(1.49608e-08 -5.93807e-08 1.16668e-08)
(1.75164e-08 -7.00999e-08 1.42617e-08)
(2.06323e-08 -8.22181e-08 1.72708e-08)
(2.4542e-08 -9.58137e-08 2.06866e-08)
(2.95521e-08 -1.10794e-07 2.44418e-08)
(3.60414e-08 -1.26713e-07 2.83859e-08)
(4.43854e-08 -1.42378e-07 3.2279e-08)
(5.47379e-08 -1.54746e-07 3.58319e-08)
(7.91213e-08 -1.93034e-07 4.37522e-08)
(0 0 0)
(2.26502e-09 -7.40895e-09 1.24847e-09)
(4.37454e-09 -1.44685e-08 2.46579e-09)
(6.3252e-09 -2.12928e-08 3.69616e-09)
(8.18304e-09 -2.81832e-08 5.01384e-09)
(1.00112e-08 -3.53923e-08 6.48596e-09)
(1.18744e-08 -4.31353e-08 8.17533e-09)
(1.38441e-08 -5.15942e-08 1.01412e-08)
(1.6002e-08 -6.09152e-08 1.24374e-08)
(1.84448e-08 -7.1197e-08 1.51074e-08)
(2.12851e-08 -8.24647e-08 1.81748e-08)
(2.46485e-08 -9.46263e-08 2.16292e-08)
(2.8655e-08 -1.07402e-07 2.54068e-08)
(3.33685e-08 -1.20224e-07 2.9369e-08)
(3.86861e-08 -1.32061e-07 3.32766e-08)
(4.44067e-08 -1.40703e-07 3.6757e-08)
(6.4528e-08 -1.7407e-07 4.46133e-08)
(0 0 0)
(2.45583e-09 -7.50617e-09 1.32916e-09)
(4.73701e-09 -1.4647e-08 2.62126e-09)
(6.83374e-09 -2.15251e-08 3.91941e-09)
(8.81049e-09 -2.84286e-08 5.29833e-09)
(1.07263e-08 -3.55896e-08 6.8241e-09)
(1.26381e-08 -4.31916e-08 8.55682e-09)
(1.46036e-08 -5.13704e-08 1.0551e-08)
(1.66818e-08 -6.02066e-08 1.28539e-08)
(1.89312e-08 -6.97084e-08 1.55e-08)
(2.14028e-08 -7.97826e-08 1.85024e-08)
(2.41199e-08 -9.01886e-08 2.18383e-08)
(2.70339e-08 -1.00473e-07 2.54286e-08)
(2.99319e-08 -1.09875e-07 2.91081e-08)
(3.22849e-08 -1.17169e-07 3.2579e-08)
(3.33294e-08 -1.1996e-07 3.538e-08)
(-2.07544e-08 -1.44503e-07 3.29055e-08)
(0 0 0)
(0 0 0)
(0 0 0)
(0 0 0)
(0 0 0)
(0 0 0)
(0 0 0)
(0 0 0)
(0 0 0)
(0 0 0)
(0 0 0)
(0 0 0)
(0 0 0)
(0 0 0)
(0 0 0)
(0 0 0)
(0 0 0)
(0 0 0)
(3.62218e-10 -1.58042e-09 2.23203e-10)
(7.01615e-10 -3.10173e-09 4.43447e-10)
(1.01971e-09 -4.6043e-09 6.71239e-10)
(1.32976e-09 -6.17297e-09 9.22971e-10)
(1.64591e-09 -7.89146e-09 1.21482e-09)
(1.98463e-09 -9.84981e-09 1.56385e-09)
(2.36653e-09 -1.21525e-08 1.98877e-09)
(2.81847e-09 -1.49278e-08 2.5106e-09)
(3.37577e-09 -1.83393e-08 3.15313e-09)
(4.08405e-09 -2.25972e-08 3.94387e-09)
(4.99854e-09 -2.79683e-08 4.91705e-09)
(6.17647e-09 -3.47684e-08 6.12342e-09)
(7.64966e-09 -4.32977e-08 7.65474e-09)
(9.34214e-09 -5.35542e-08 9.66955e-09)
(1.08543e-08 -6.39473e-08 1.21593e-08)
(4.7759e-09 -8.24057e-08 2.79832e-08)
(0 0 0)
(7.15921e-10 -3.08868e-09 4.39103e-10)
(1.38618e-09 -6.05941e-09 8.72036e-10)
(2.01331e-09 -8.98872e-09 1.31913e-09)
(2.623e-09 -1.20392e-08 1.81221e-09)
(3.24246e-09 -1.53695e-08 2.38251e-09)
(3.90336e-09 -1.9148e-08 3.0626e-09)
(4.6454e-09 -2.35669e-08 3.88776e-09)
(5.52066e-09 -2.88585e-08 4.89645e-09)
(6.59889e-09 -3.5313e-08 6.12977e-09)
(7.97267e-09 -4.32947e-08 7.62891e-09)
(9.76033e-09 -5.32486e-08 9.4294e-09)
(1.21002e-08 -6.56673e-08 1.15493e-08)
(1.51209e-08 -8.09346e-08 1.39622e-08)
(1.88398e-08 -9.87718e-08 1.65205e-08)
(2.27576e-08 -1.16198e-07 1.87282e-08)
(3.28221e-08 -1.42801e-07 2.04365e-08)
(0 0 0)
(1.05345e-09 -4.45938e-09 6.41212e-10)
(2.0384e-09 -8.7429e-09 1.27257e-09)
(2.9574e-09 -1.29556e-08 1.92296e-09)
(3.84694e-09 -1.73248e-08 2.63789e-09)
(4.7453e-09 -2.20686e-08 3.46158e-09)
(5.69673e-09 -2.74132e-08 4.43953e-09)
(6.75658e-09 -3.36098e-08 5.62004e-09)
(7.99794e-09 -4.09534e-08 7.05402e-09)
(9.52013e-09 -4.98002e-08 8.79199e-09)
(1.14584e-08 -6.05803e-08 1.08755e-08)
(1.39918e-08 -7.37885e-08 1.33168e-08)
(1.73367e-08 -8.99153e-08 1.60537e-08)
(2.16925e-08 -1.09212e-07 1.88566e-08)
(2.70383e-08 -1.30997e-07 2.11691e-08)
(3.24855e-08 -1.51475e-07 2.20932e-08)
(3.81525e-08 -1.80412e-07 1.72445e-08)
(0 0 0)
(1.36796e-09 -5.63579e-09 8.23954e-10)
(2.64469e-09 -1.10404e-08 1.63378e-09)
(3.83145e-09 -1.63373e-08 2.46523e-09)
(4.97325e-09 -2.18024e-08 3.37511e-09)
(6.11657e-09 -2.76933e-08 4.41796e-09)
(7.31434e-09 -3.42689e-08 5.64908e-09)
(8.63208e-09 -4.18059e-08 7.12587e-09)
(1.0156e-08 -5.06149e-08 8.90696e-09)
(1.20042e-08 -6.10529e-08 1.10473e-08)
(1.434e-08 -7.35259e-08 1.35853e-08)
(1.73859e-08 -8.8463e-08 1.65142e-08)
(2.14193e-08 -1.06222e-07 1.97244e-08)
(2.66948e-08 -1.26827e-07 2.28972e-08)
(3.31274e-08 -1.493e-07 2.53651e-08)
(3.94013e-08 -1.69739e-07 2.62307e-08)
(4.57556e-08 -1.98404e-07 2.19421e-08)
(0 0 0)
(1.654e-09 -6.57396e-09 9.83124e-10)
(3.19443e-09 -1.28663e-08 1.94727e-09)
(4.61975e-09 -1.9009e-08 2.93303e-09)
(5.9808e-09 -2.53077e-08 4.00581e-09)
(7.32886e-09 -3.20398e-08 5.22753e-09)
(8.7208e-09 -3.94721e-08 6.65986e-09)
(1.02252e-08 -4.78748e-08 8.36549e-09)
(1.19305e-08 -5.75319e-08 1.04069e-08)
(1.39564e-08 -6.87463e-08 1.28407e-08)
(1.64685e-08 -8.18311e-08 1.57045e-08)
(1.96969e-08 -9.70729e-08 1.89897e-08)
(2.39465e-08 -1.14634e-07 2.25938e-08)
(2.9553e-08 -1.34325e-07 2.62444e-08)
(3.66068e-08 -1.55056e-07 2.94207e-08)
(4.39187e-08 -1.73336e-07 3.14017e-08)
(5.50516e-08 -1.97966e-07 3.24667e-08)
(0 0 0)
(1.90773e-09 -7.24387e-09 1.11604e-09)
(3.6803e-09 -1.41636e-08 2.20775e-09)
(5.31192e-09 -2.08904e-08 3.31845e-09)
(6.85653e-09 -2.77424e-08 4.51926e-09)
(8.3668e-09 -3.49985e-08 5.8765e-09)
(9.89873e-09 -4.29126e-08 7.45483e-09)
(1.15167e-08 -5.17237e-08 9.31854e-09)
(1.32998e-08 -6.16594e-08 1.15302e-08)
(1.53495e-08 -7.29324e-08 1.41454e-08)
(1.77999e-08 -8.57233e-08 1.72009e-08)
(2.08301e-08 -1.00141e-07 2.06934e-08)
(2.46769e-08 -1.16143e-07 2.45458e-08)
(2.96345e-08 -1.33389e-07 2.85627e-08)
(3.59557e-08 -1.5089e-07 3.23851e-08)
(4.31371e-08 -1.65912e-07 3.54189e-08)
(6.35164e-08 -1.83292e-07 4.15176e-08)
(0 0 0)
(2.12691e-09 -7.62927e-09 1.22159e-09)
(4.09834e-09 -1.49032e-08 2.41311e-09)
(5.90305e-09 -2.19448e-08 3.61862e-09)
(7.59566e-09 -2.90701e-08 4.91214e-09)
(9.22736e-09 -3.65448e-08 6.36145e-09)
(1.08495e-08 -4.4596e-08 8.03105e-09)
(1.25169e-08 -5.34167e-08 9.98336e-09)
(1.42905e-08 -6.31634e-08 1.22773e-08)
(1.62395e-08 -7.39449e-08 1.49633e-08)
(1.84397e-08 -8.57984e-08 1.80729e-08)
(2.09655e-08 -9.86509e-08 2.16008e-08)
(2.38634e-08 -1.12268e-07 2.54764e-08)
(2.70838e-08 -1.26202e-07 2.95223e-08)
(3.03224e-08 -1.39728e-07 3.33851e-08)
(3.27979e-08 -1.51277e-07 3.63845e-08)
(5.63424e-08 -1.63355e-07 4.13323e-08)
(0 0 0)
(2.31074e-09 -7.72623e-09 1.30008e-09)
(4.4475e-09 -1.50804e-08 2.56425e-09)
(6.39297e-09 -2.2173e-08 3.83544e-09)
(8.20052e-09 -2.93058e-08 5.18802e-09)
(9.91798e-09 -3.67219e-08 6.68856e-09)
(1.159e-08 -4.46145e-08 8.39867e-09)
(1.32596e-08 -5.31263e-08 1.03758e-08)
(1.49673e-08 -6.23428e-08 1.26719e-08)
(1.67481e-08 -7.22745e-08 1.5328e-08)
(1.86198e-08 -8.2829e-08 1.83645e-08)
(2.05572e-08 -9.3768e-08 2.17641e-08)
(2.24349e-08 -1.04652e-07 2.54428e-08)
(2.39064e-08 -1.14774e-07 2.92035e-08)
(2.41952e-08 -1.23041e-07 3.2657e-08)
(2.20696e-08 -1.27261e-07 3.51391e-08)
(-2.82788e-08 -1.34869e-07 3.17611e-08)
(0 0 0)
(0 0 0)
(0 0 0)
(0 0 0)
(0 0 0)
(0 0 0)
(0 0 0)
(0 0 0)
(0 0 0)
(0 0 0)
(0 0 0)
(0 0 0)
(0 0 0)
(0 0 0)
(0 0 0)
(0 0 0)
(0 0 0)
(0 0 0)
(3.33962e-10 -1.62288e-09 2.10307e-10)
(6.44329e-10 -3.18606e-09 4.18028e-10)
(9.30043e-10 -4.73196e-09 6.33305e-10)
(1.20064e-09 -6.34872e-09 8.71958e-10)
(1.46558e-09 -8.12326e-09 1.14984e-09)
(1.7349e-09 -1.01488e-08 1.484e-09)
(2.0196e-09 -1.25331e-08 1.89361e-09)
(2.33152e-09 -1.54071e-08 2.40085e-09)
(2.68161e-09 -1.89347e-08 3.03171e-09)
(3.0747e-09 -2.33209e-08 3.81753e-09)
(3.4962e-09 -2.88103e-08 4.79869e-09)
(3.88305e-09 -3.56565e-08 6.03573e-09)
(4.06747e-09 -4.40037e-08 7.63577e-09)
(3.70368e-09 -5.35284e-08 9.7796e-09)
(2.42005e-09 -6.23836e-08 1.24733e-08)
(-1.1979e-08 -7.96789e-08 2.70252e-08)
(0 0 0)
(6.6066e-10 -3.17135e-09 4.13709e-10)
(1.27425e-09 -6.22346e-09 8.21983e-10)
(1.83839e-09 -9.23679e-09 1.24445e-09)
(2.37165e-09 -1.23801e-08 1.71182e-09)
(2.89249e-09 -1.58181e-08 2.25467e-09)
(3.4206e-09 -1.97251e-08 2.90558e-09)
(3.97808e-09 -2.42989e-08 3.70069e-09)
(4.58996e-09 -2.97766e-08 4.68072e-09)
(5.28282e-09 -3.6449e-08 5.89105e-09)
(6.07867e-09 -4.46702e-08 7.38033e-09)
(6.97841e-09 -5.48464e-08 9.19658e-09)
(7.92611e-09 -6.73606e-08 1.13797e-08)
(8.74791e-09 -8.23291e-08 1.39458e-08)
(9.09873e-09 -9.89322e-08 1.68376e-08)
(8.64467e-09 -1.13773e-07 1.96763e-08)
(8.96856e-09 -1.36015e-07 2.55017e-08)
(0 0 0)
(9.73497e-10 -4.57794e-09 6.0405e-10)
(1.87668e-09 -8.97787e-09 1.19934e-09)
(2.7053e-09 -1.33102e-08 1.81375e-09)
(3.48597e-09 -1.78108e-08 2.49116e-09)
(4.24509e-09 -2.27058e-08 3.27484e-09)
(5.01093e-09 -2.82289e-08 4.21031e-09)
(5.81594e-09 -3.46387e-08 5.34708e-09)
(6.69881e-09 -4.22355e-08 6.7392e-09)
(7.70549e-09 -5.13755e-08 8.44324e-09)
(8.88669e-09 -6.24749e-08 1.05112e-08)
(1.02858e-08 -7.59798e-08 1.29725e-08)
(1.19052e-08 -9.22473e-08 1.57963e-08)
(1.36315e-08 -1.11209e-07 1.88171e-08)
(1.51189e-08 -1.31546e-07 2.16231e-08)
(1.57979e-08 -1.48973e-07 2.35132e-08)
(1.17922e-08 -1.71174e-07 2.4202e-08)
(0 0 0)
(1.26643e-09 -5.78419e-09 7.76049e-10)
(2.43974e-09 -1.1334e-08 1.53943e-09)
(3.513e-09 -1.67794e-08 2.32459e-09)
(4.51939e-09 -2.24059e-08 3.18629e-09)
(5.49147e-09 -2.84806e-08 4.1779e-09)
(6.46402e-09 -3.52707e-08 5.35463e-09)
(7.4772e-09 -4.30599e-08 6.77539e-09)
(8.5804e-09 -5.21635e-08 8.50259e-09)
(9.83637e-09 -6.29368e-08 1.05984e-08)
(1.13244e-08 -7.57693e-08 1.31133e-08)
(1.31376e-08 -9.10383e-08 1.60598e-08)
(1.53588e-08 -1.08966e-07 1.93592e-08)
(1.79753e-08 -1.29262e-07 2.27496e-08)
(2.06603e-08 -1.50318e-07 2.568e-08)
(2.24908e-08 -1.67737e-07 2.7395e-08)
(1.95761e-08 -1.89202e-07 2.72295e-08)
(0 0 0)
(1.53456e-09 -6.74506e-09 9.25737e-10)
(2.95387e-09 -1.32043e-08 1.8343e-09)
(4.24739e-09 -1.95161e-08 2.76477e-09)
(5.45298e-09 -2.59971e-08 3.78014e-09)
(6.60707e-09 -3.29339e-08 4.94095e-09)
(7.74776e-09 -4.06013e-08 6.30873e-09)
(8.91832e-09 -4.92751e-08 7.94777e-09)
(1.01717e-08 -5.92421e-08 9.92468e-09)
(1.15764e-08 -7.08006e-08 1.23039e-08)
(1.32235e-08 -8.42448e-08 1.51355e-08)
(1.52345e-08 -9.98115e-08 1.84291e-08)
(1.77609e-08 -1.17543e-07 2.21048e-08)
(2.09469e-08 -1.36973e-07 2.59166e-08)
(2.47539e-08 -1.56462e-07 2.93694e-08)
(2.84147e-08 -1.72054e-07 3.17424e-08)
(3.1978e-08 -1.9013e-07 3.37505e-08)
(0 0 0)
(1.77425e-09 -7.42996e-09 1.05059e-09)
(3.41215e-09 -1.45305e-08 2.07897e-09)
(4.8986e-09 -2.14391e-08 3.12684e-09)
(6.27413e-09 -2.84848e-08 4.26265e-09)
(7.57656e-09 -3.59551e-08 5.5511e-09)
(8.84371e-09 -4.41106e-08 7.05662e-09)
(1.01164e-08 -5.31939e-08 8.84512e-09)
(1.14417e-08 -6.34321e-08 1.09834e-08)
(1.28771e-08 -7.50298e-08 1.35349e-08)
(1.44949e-08 -8.81463e-08 1.65485e-08)
(1.6389e-08 -1.02844e-07 2.00367e-08)
(1.86845e-08 -1.18983e-07 2.39371e-08)
(2.15585e-08 -1.36005e-07 2.80527e-08)
(2.52502e-08 -1.5248e-07 3.19762e-08)
(2.97192e-08 -1.65259e-07 3.50046e-08)
(4.46671e-08 -1.77865e-07 3.93176e-08)
(0 0 0)
(1.98322e-09 -7.82259e-09 1.14956e-09)
(3.81042e-09 -1.52836e-08 2.27151e-09)
(5.46124e-09 -2.25119e-08 3.40821e-09)
(6.97704e-09 -2.98336e-08 4.6308e-09)
(8.39477e-09 -3.75221e-08 6.00529e-09)
(9.74904e-09 -4.58094e-08 7.59585e-09)
(1.10737e-08 -5.48896e-08 9.46639e-09)
(1.24023e-08 -6.49152e-08 1.168e-08)
(1.37675e-08 -7.59829e-08 1.42945e-08)
(1.51955e-08 -8.81061e-08 1.73528e-08)
(1.66939e-08 -1.01169e-07 2.08635e-08)
(1.8224e-08 -1.14857e-07 2.47666e-08)
(1.96546e-08 -1.28569e-07 2.88761e-08)
(2.07112e-08 -1.41269e-07 3.27831e-08)
(2.10797e-08 -1.51061e-07 3.57141e-08)
(4.05405e-08 -1.61346e-07 3.90362e-08)
(0 0 0)
(2.16036e-09 -7.91937e-09 1.22298e-09)
(4.14701e-09 -1.54597e-08 2.41283e-09)
(5.93398e-09 -2.27368e-08 3.61077e-09)
(7.56197e-09 -3.00613e-08 4.88814e-09)
(9.06563e-09 -3.7683e-08 6.30966e-09)
(1.04748e-08 -4.57979e-08 7.93648e-09)
(1.18144e-08 -5.45475e-08 9.82742e-09)
(1.31025e-08 -6.40102e-08 1.20381e-08)
(1.43448e-08 -7.41816e-08 1.46164e-08)
(1.55201e-08 -8.49427e-08 1.75931e-08)
(1.65522e-08 -9.60133e-08 2.09625e-08)
(1.72513e-08 -1.06887e-07 2.46496e-08)
(1.72141e-08 -1.16745e-07 2.84501e-08)
(1.57131e-08 -1.24291e-07 3.19354e-08)
(1.19451e-08 -1.27096e-07 3.43782e-08)
(-4.5502e-08 -1.35881e-07 3.23913e-08)
(0 0 0)
(0 0 0)
(0 0 0)
(0 0 0)
(0 0 0)
(0 0 0)
(0 0 0)
(0 0 0)
(0 0 0)
(0 0 0)
(0 0 0)
(0 0 0)
(0 0 0)
(0 0 0)
(0 0 0)
(0 0 0)
(0 0 0)
(0 0 0)
(3.05879e-10 -1.65877e-09 1.895e-10)
(5.87224e-10 -3.25697e-09 3.76867e-10)
(8.40206e-10 -4.8384e-09 5.71479e-10)
(1.07033e-09 -6.49329e-09 7.87951e-10)
(1.28197e-09 -8.31025e-09 1.04116e-09)
(1.47805e-09 -1.03837e-08 1.34744e-09)
(1.65896e-09 -1.28212e-08 1.72569e-09)
(1.82012e-09 -1.5752e-08 2.19842e-09)
(1.94646e-09 -1.93337e-08 2.79317e-09)
(2.00093e-09 -2.37566e-08 3.54458e-09)
(1.90194e-09 -2.92344e-08 4.49863e-09)
(1.48327e-09 -3.59617e-08 5.72264e-09)
(4.38224e-10 -4.39907e-08 7.32363e-09)
(-1.68553e-09 -5.2923e-08 9.44716e-09)
(-4.99879e-09 -6.10854e-08 1.19952e-08)
(-2.4999e-08 -7.78147e-08 2.26773e-08)
(0 0 0)
(6.05782e-10 -3.24122e-09 3.72751e-10)
(1.16277e-09 -6.36147e-09 7.40985e-10)
(1.66331e-09 -9.44369e-09 1.12285e-09)
(2.11832e-09 -1.26607e-08 1.5467e-09)
(2.53668e-09 -1.61803e-08 2.04123e-09)
(2.9249e-09 -2.01786e-08 2.63766e-09)
(3.28566e-09 -2.48536e-08 3.37163e-09)
(3.61441e-09 -3.04382e-08 4.28472e-09)
(3.89158e-09 -3.72114e-08 5.42568e-09)
(4.06654e-09 -4.55007e-08 6.8508e-09)
(4.02729e-09 -5.56563e-08 8.62289e-09)
(3.55209e-09 -6.79582e-08 1.08077e-08)
(2.26387e-09 -8.23648e-08 1.34607e-08)
(-2.80542e-10 -9.7937e-08 1.65634e-08)
(-3.87241e-09 -1.11592e-07 1.9697e-08)
(-8.43548e-09 -1.34667e-07 2.59147e-08)
(0 0 0)
(8.94205e-10 -4.67816e-09 5.44183e-10)
(1.71587e-09 -9.17562e-09 1.081e-09)
(2.45343e-09 -1.36061e-08 1.63622e-09)
(3.12293e-09 -1.8211e-08 2.25034e-09)
(3.73779e-09 -2.32205e-08 2.96397e-09)
(4.30876e-09 -2.88707e-08 3.82071e-09)
(4.84306e-09 -3.54193e-08 4.86944e-09)
(5.34182e-09 -4.31605e-08 6.16566e-09)
(5.79389e-09 -5.24342e-08 7.7712e-09)
(6.16287e-09 -6.36208e-08 9.75022e-09)
(6.36177e-09 -7.70949e-08 1.2157e-08)
(6.2114e-09 -9.30849e-08 1.5008e-08)
(5.3978e-09 -1.11329e-07 1.82238e-08)
(3.53713e-09 -1.30357e-07 2.15203e-08)
(7.60492e-10 -1.46245e-07 2.42249e-08)
(-8.43176e-09 -1.67518e-07 2.7649e-08)
(0 0 0)
(1.16595e-09 -5.9097e-09 6.99007e-10)
(2.23638e-09 -1.15813e-08 1.38724e-09)
(3.19562e-09 -1.71485e-08 2.09652e-09)
(4.06422e-09 -2.29033e-08 2.87736e-09)
(4.85968e-09 -2.91173e-08 3.77978e-09)
(5.59688e-09 -3.60597e-08 4.85671e-09)
(6.28824e-09 -4.40123e-08 6.16628e-09)
(6.94308e-09 -5.32819e-08 7.77287e-09)
(7.56529e-09 -6.42035e-08 9.74532e-09)
(8.1477e-09 -7.71249e-08 1.21493e-08)
(8.65937e-09 -9.23448e-08 1.50276e-08)
(9.01917e-09 -1.09948e-07 1.83582e-08)
(9.04792e-09 -1.29442e-07 2.1977e-08)
(8.42274e-09 -1.49055e-07 2.54666e-08)
(6.90835e-09 -1.64743e-07 2.8074e-08)
(-1.37811e-09 -1.84487e-07 3.06307e-08)
(0 0 0)
(1.41663e-09 -6.88982e-09 8.33637e-10)
(2.7158e-09 -1.3489e-08 1.65251e-09)
(3.8774e-09 -1.99399e-08 2.4927e-09)
(4.92552e-09 -2.65657e-08 3.41228e-09)
(5.88064e-09 -3.36576e-08 4.46792e-09)
(6.76046e-09 -4.14915e-08 5.71852e-09)
(7.58084e-09 -5.03398e-08 7.22756e-09)
(8.35657e-09 -6.0478e-08 9.06384e-09)
(9.10233e-09 -7.21807e-08 1.12992e-08)
(9.83387e-09 -8.56974e-08 1.39997e-08)
(1.05697e-08 -1.01184e-07 1.72053e-08)
(1.13331e-08 -1.18551e-07 2.08888e-08)
(1.21491e-08 -1.37144e-07 2.48822e-08)
(1.30083e-08 -1.5518e-07 2.87711e-08)
(1.37248e-08 -1.69051e-07 3.17785e-08)
(1.19357e-08 -1.85217e-07 3.53273e-08)
(0 0 0)
(1.64282e-09 -7.58746e-09 9.45803e-10)
(3.14757e-09 -1.48397e-08 1.87235e-09)
(4.48933e-09 -2.18979e-08 2.8181e-09)
(5.69451e-09 -2.90975e-08 3.84607e-09)
(6.78509e-09 -3.67301e-08 5.01676e-09)
(7.77945e-09 -4.50561e-08 6.39177e-09)
(8.69325e-09 -5.43129e-08 8.03609e-09)
(9.54011e-09 -6.47138e-08 1.00188e-08)
(1.03325e-08 -7.64369e-08 1.24106e-08)
(1.10829e-08 -8.95949e-08 1.52761e-08)
(1.18084e-08 -1.04172e-07 1.86556e-08)
(1.25454e-08 -1.19908e-07 2.25311e-08)
(1.33988e-08 -1.36083e-07 2.67636e-08)
(1.46542e-08 -1.51166e-07 3.09876e-08)
(1.67197e-08 -1.62366e-07 3.44247e-08)
(2.66776e-08 -1.73616e-07 3.94352e-08)
(0 0 0)
(1.84215e-09 -7.98629e-09 1.03457e-09)
(3.52727e-09 -1.56044e-08 2.04503e-09)
(5.02541e-09 -2.29863e-08 3.07042e-09)
(6.36409e-09 -3.04643e-08 4.17613e-09)
(7.56529e-09 -3.83148e-08 5.42376e-09)
(8.646e-09 -4.67684e-08 6.87454e-09)
(9.61817e-09 -5.60121e-08 8.59146e-09)
(1.04878e-08 -6.61828e-08 1.06397e-08)
(1.12522e-08 -7.73488e-08 1.30841e-08)
(1.18934e-08 -8.94768e-08 1.59818e-08)
(1.23658e-08 -1.02377e-07 1.93665e-08)
(1.25739e-08 -1.15631e-07 2.32173e-08)
(1.23464e-08 -1.28506e-07 2.74008e-08)
(1.14481e-08 -1.39906e-07 3.15625e-08)
(9.8676e-09 -1.48293e-07 3.49162e-08)
(2.48695e-08 -1.58101e-07 3.99766e-08)
(0 0 0)
(2.01319e-09 -8.08297e-09 1.10028e-09)
(3.85251e-09 -1.57798e-08 2.17144e-09)
(5.48298e-09 -2.32087e-08 3.25146e-09)
(6.93219e-09 -3.0686e-08 4.4058e-09)
(8.22114e-09 -3.84635e-08 5.69472e-09)
(9.36425e-09 -4.67346e-08 7.17641e-09)
(1.03683e-08 -5.56327e-08 8.90878e-09)
(1.12297e-08 -6.52192e-08 1.09494e-08)
(1.19277e-08 -7.5461e-08 1.33524e-08)
(1.24105e-08 -8.61945e-08 1.6161e-08)
(1.25679e-08 -9.70742e-08 1.93911e-08)
(1.21794e-08 -1.07506e-07 2.29996e-08)
(1.08304e-08 -1.16573e-07 2.68246e-08)
(7.84826e-09 -1.22954e-07 3.04804e-08)
(2.65607e-09 -1.24488e-07 3.32261e-08)
(-5.98121e-08 -1.32883e-07 3.38394e-08)
(0 0 0)
(0 0 0)
(0 0 0)
(0 0 0)
(0 0 0)
(0 0 0)
(0 0 0)
(0 0 0)
(0 0 0)
(0 0 0)
(0 0 0)
(0 0 0)
(0 0 0)
(0 0 0)
(0 0 0)
(0 0 0)
(0 0 0)
(0 0 0)
(2.79769e-10 -1.68781e-09 1.61436e-10)
(5.3402e-10 -3.31406e-09 3.21222e-10)
(7.56226e-10 -4.92324e-09 4.87547e-10)
(9.47984e-10 -6.60678e-09 6.73165e-10)
(1.10875e-09 -8.45387e-09 8.91263e-10)
(1.23461e-09 -1.05585e-08 1.1566e-09)
(1.316e-09 -1.30265e-08 1.48669e-09)
(1.33347e-09 -1.59826e-08 1.90306e-09)
(1.24945e-09 -1.95761e-08 2.43293e-09)
(9.93332e-10 -2.39821e-08 3.11161e-09)
(4.35303e-10 -2.93901e-08 3.98633e-09)
(-6.53682e-10 -3.59609e-08 5.12249e-09)
(-2.64249e-09 -4.37158e-08 6.60906e-09)
(-5.98477e-09 -5.2271e-08 8.52929e-09)
(-1.05572e-08 -6.00802e-08 1.0695e-08)
(-3.40636e-08 -7.53992e-08 1.82418e-08)
(0 0 0)
(5.54789e-10 -3.29777e-09 3.1753e-10)
(1.05898e-09 -6.47256e-09 6.31531e-10)
(1.49977e-09 -9.60863e-09 9.57846e-10)
(1.88066e-09 -1.2881e-08 1.32122e-09)
(2.20132e-09 -1.64585e-08 1.74708e-09)
(2.45558e-09 -2.05164e-08 2.26364e-09)
(2.62796e-09 -2.5249e-08 2.90401e-09)
(2.68708e-09 -3.08807e-08 3.70811e-09)
(2.5737e-09 -3.76745e-08 4.72486e-09)
(2.17931e-09 -4.59301e-08 6.01395e-09)
(1.31178e-09 -5.59544e-08 7.64645e-09)
(-3.47829e-10 -6.79708e-08 9.70127e-09)
(-3.25337e-09 -8.18975e-08 1.22448e-08)
(-7.78369e-09 -9.68597e-08 1.52432e-08)
(-1.32597e-08 -1.10062e-07 1.82192e-08)
(-2.03818e-08 -1.3424e-07 2.3646e-08)
(0 0 0)
(8.20605e-10 -4.7593e-09 4.63515e-10)
(1.56632e-09 -9.33486e-09 9.21202e-10)
(2.21845e-09 -1.38421e-08 1.39555e-09)
(2.78286e-09 -1.85254e-08 1.9219e-09)
(3.26045e-09 -2.36162e-08 2.53619e-09)
(3.64523e-09 -2.9349e-08 3.27787e-09)
(3.92085e-09 -3.59759e-08 4.19241e-09)
(4.05458e-09 -4.3779e-08 5.33342e-09)
(3.98656e-09 -5.30758e-08 6.76407e-09)
(3.61189e-09 -6.42093e-08 8.55603e-09)
(2.75339e-09 -7.74979e-08 1.07824e-08)
(1.13182e-09 -9.31008e-08 1.34966e-08)
(-1.62308e-09 -1.10715e-07 1.66796e-08)
(-5.76004e-09 -1.28973e-07 2.01149e-08)
(-1.05575e-08 -1.44325e-07 2.31173e-08)
(-2.20721e-08 -1.66465e-07 2.75673e-08)
(0 0 0)
(1.07282e-09 -6.01134e-09 5.95291e-10)
(2.04757e-09 -1.17805e-08 1.18194e-09)
(2.90008e-09 -1.7443e-08 1.78773e-09)
(3.63877e-09 -2.32944e-08 2.45669e-09)
(4.26663e-09 -2.96072e-08 3.23309e-09)
(4.77969e-09 -3.66482e-08 4.16477e-09)
(5.16461e-09 -4.46917e-08 5.30589e-09)
(5.39494e-09 -5.40289e-08 6.71895e-09)
(5.42515e-09 -6.49674e-08 8.47528e-09)
(5.18183e-09 -7.78104e-08 1.06515e-08)
(4.552e-09 -9.27916e-08 1.33172e-08)
(3.37233e-09 -1.09919e-07 1.65031e-08)
(1.4355e-09 -1.28656e-07 2.01333e-08)
(-1.42159e-09 -1.47339e-07 2.38938e-08)
(-4.86954e-09 -1.62325e-07 2.70152e-08)
(-1.53835e-08 -1.8248e-07 3.13134e-08)
(0 0 0)
(1.30753e-09 -7.0071e-09 7.09797e-10)
(2.49521e-09 -1.37185e-08 1.40762e-09)
(3.53365e-09 -2.02783e-08 2.12496e-09)
(4.43378e-09 -2.70132e-08 2.91236e-09)
(5.20081e-09 -3.4215e-08 3.81995e-09)
(5.83327e-09 -4.21561e-08 4.90095e-09)
(6.32184e-09 -5.10994e-08 6.2145e-09)
(6.6479e-09 -6.13019e-08 7.82758e-09)
(6.78235e-09 -7.30066e-08 9.81514e-09)
(6.68601e-09 -8.64129e-08 1.22559e-08)
(6.31513e-09 -1.01606e-07 1.52196e-08)
(5.6396e-09 -1.18413e-07 1.87355e-08)
(4.68452e-09 -1.36128e-07 2.27268e-08)
(3.59078e-09 -1.53074e-07 2.6878e-08)
(2.62753e-09 -1.66059e-07 3.03838e-08)
(-1.34921e-09 -1.8209e-07 3.55995e-08)
(0 0 0)
(1.52149e-09 -7.71514e-09 8.05098e-10)
(2.90297e-09 -1.50891e-08 1.59443e-09)
(4.11007e-09 -2.22645e-08 2.40154e-09)
(5.15577e-09 -2.95802e-08 3.28123e-09)
(6.04701e-09 -3.73276e-08 4.28692e-09)
(6.78408e-09 -4.57627e-08 5.47419e-09)
(7.35998e-09 -5.51115e-08 6.90359e-09)
(7.75992e-09 -6.55666e-08 8.64243e-09)
(7.96168e-09 -7.72711e-08 1.07648e-08)
(7.93849e-09 -9.02841e-08 1.3348e-08)
(7.66942e-09 -1.04515e-07 1.64618e-08)
(7.17014e-09 -1.19612e-07 2.01434e-08)
(6.57448e-09 -1.34795e-07 2.43422e-08)
(6.30374e-09 -1.48617e-07 2.8793e-08)
(7.08757e-09 -1.58703e-07 3.27042e-08)
(1.5131e-08 -1.69152e-07 3.9378e-08)
(0 0 0)
(1.71222e-09 -8.11905e-09 8.80409e-10)
(3.26616e-09 -1.58633e-08 1.74094e-09)
(4.62271e-09 -2.33658e-08 2.61558e-09)
(5.79626e-09 -3.09616e-08 3.56116e-09)
(6.79474e-09 -3.89266e-08 4.63194e-09)
(7.61897e-09 -4.74859e-08 5.88308e-09)
(8.26175e-09 -5.68139e-08 7.3732e-09)
(8.70668e-09 -6.70252e-08 9.16581e-09)
(8.9262e-09 -7.81518e-08 1.13291e-08)
(8.87847e-09 -9.01056e-08 1.39325e-08)
(8.50225e-09 -1.02621e-07 1.70371e-08)
(7.70992e-09 -1.15187e-07 2.0675e-08)
(6.38515e-09 -1.26993e-07 2.48022e-08)
(4.4245e-09 -1.36983e-07 2.91886e-08)
(2.04095e-09 -1.43978e-07 3.30993e-08)
(1.60672e-08 -1.51625e-07 4.07088e-08)
(0 0 0)
(1.87798e-09 -8.21573e-09 9.36039e-10)
(3.58168e-09 -1.60383e-08 1.84793e-09)
(5.06752e-09 -2.35866e-08 2.7687e-09)
(6.35077e-09 -3.11792e-08 3.75513e-09)
(7.43977e-09 -3.90667e-08 4.86019e-09)
(8.33504e-09 -4.74366e-08 6.13619e-09)
(9.02797e-09 -5.64092e-08 7.63696e-09)
(9.49824e-09 -6.60233e-08 9.41858e-09)
(9.70892e-09 -7.62104e-08 1.15384e-08)
(9.5967e-09 -8.67548e-08 1.40507e-08)
(9.05212e-09 -9.72404e-08 1.69953e-08)
(7.8813e-09 -1.0699e-07 2.03745e-08)
(5.74201e-09 -1.15019e-07 2.4101e-08)
(2.09728e-09 -1.20034e-07 2.78899e-08)
(-3.42769e-09 -1.20146e-07 3.1036e-08)
(-6.45324e-08 -1.24208e-07 3.5157e-08)
(0 0 0)
(0 0 0)
(0 0 0)
(0 0 0)
(0 0 0)
(0 0 0)
(0 0 0)
(0 0 0)
(0 0 0)
(0 0 0)
(0 0 0)
(0 0 0)
(0 0 0)
(0 0 0)
(0 0 0)
(0 0 0)
(0 0 0)
(0 0 0)
(2.5736e-10 -1.71003e-09 1.27085e-10)
(4.883e-10 -3.3575e-09 2.52983e-10)
(6.83913e-10 -4.98717e-09 3.84284e-10)
(8.42396e-10 -6.691e-09 5.31252e-10)
(9.58949e-10 -8.55804e-09 7.04626e-10)
(1.02389e-09 -1.06812e-08 9.16642e-10)
(1.01952e-09 -1.31636e-08 1.18213e-09)
(9.14766e-10 -1.61253e-08 1.51975e-09)
(6.55823e-10 -1.97078e-08 1.95374e-09)
(1.50228e-10 -2.40746e-08 2.51605e-09)
(-7.58458e-10 -2.94002e-08 3.24915e-09)
(-2.32502e-09 -3.58305e-08 4.2085e-09)
(-4.92685e-09 -4.33799e-08 5.45846e-09)
(-8.97463e-09 -5.16761e-08 7.0323e-09)
(-1.41898e-08 -5.92076e-08 8.72107e-09)
(-3.92261e-08 -7.25703e-08 1.3939e-08)
(0 0 0)
(5.11045e-10 -3.34105e-09 2.4995e-10)
(9.69827e-10 -6.55712e-09 4.97337e-10)
(1.35902e-09 -9.73294e-09 7.54911e-10)
(1.67568e-09 -1.30445e-08 1.04258e-09)
(1.9115e-09 -1.66603e-08 1.38104e-09)
(2.04963e-09 -2.07535e-08 1.79372e-09)
(2.05976e-09 -2.55129e-08 2.30867e-09)
(1.88976e-09 -3.1154e-08 2.96068e-09)
(1.45187e-09 -3.79251e-08 3.79383e-09)
(6.00625e-10 -4.61042e-08 4.86369e-09)
(-8.98419e-10 -5.59726e-08 6.23842e-09)
(-3.39841e-09 -6.77333e-08 7.99379e-09)
(-7.34388e-09 -8.13142e-08 1.01874e-08)
(-1.29937e-08 -9.5919e-08 1.2766e-08)
(-1.93664e-08 -1.08895e-07 1.52701e-08)
(-2.70795e-08 -1.33491e-07 1.95712e-08)
(0 0 0)
(7.57517e-10 -4.82141e-09 3.64828e-10)
(1.43797e-09 -9.45609e-09 7.25372e-10)
(2.01643e-09 -1.402e-08 1.09973e-09)
(2.48985e-09 -1.87589e-08 1.51631e-09)
(2.8484e-09 -2.39034e-08 2.00439e-09)
(3.072e-09 -2.96847e-08 2.5967e-09)
(3.12518e-09 -3.63473e-08 3.33184e-09)
(2.94921e-09 -4.41602e-08 4.25683e-09)
(2.44991e-09 -5.342e-08 5.42944e-09)
(1.48023e-09 -6.44405e-08 6.91898e-09)
(-1.8065e-10 -7.7507e-08 8.80272e-09)
(-2.8366e-09 -9.27579e-08 1.11493e-08)
(-6.81644e-09 -1.09922e-07 1.39696e-08)
(-1.21832e-08 -1.27776e-07 1.70914e-08)
(-1.78462e-08 -1.42999e-07 1.98808e-08)
(-2.94822e-08 -1.65986e-07 2.41838e-08)
(0 0 0)
(9.93074e-10 -6.08917e-09 4.68485e-10)
(1.88572e-09 -1.19322e-08 9.3054e-10)
(2.64631e-09 -1.76652e-08 1.40851e-09)
(3.27273e-09 -2.3585e-08 1.93777e-09)
(3.75555e-09 -2.9963e-08 2.55438e-09)
(4.075e-09 -3.70613e-08 3.29801e-09)
(4.19704e-09 -4.51447e-08 4.21473e-09)
(4.06827e-09 -5.44874e-08 5.35963e-09)
(3.60951e-09 -6.53709e-08 6.79874e-09)
(2.70937e-09 -7.80627e-08 8.60873e-09)
(1.22189e-09 -9.27558e-08 1.08701e-08)
(-1.02094e-09 -1.09434e-07 1.36443e-08)
(-4.15665e-09 -1.27598e-07 1.69141e-08)
(-8.14121e-09 -1.45759e-07 2.04481e-08)
(-1.23064e-08 -1.6054e-07 2.35303e-08)
(-2.26117e-08 -1.81561e-07 2.82165e-08)
(0 0 0)
(1.21424e-09 -7.09695e-09 5.58502e-10)
(2.30639e-09 -1.38933e-08 1.108e-09)
(3.23898e-09 -2.05337e-08 1.67379e-09)
(4.01151e-09 -2.73459e-08 2.2965e-09)
(4.61618e-09 -3.46201e-08 3.01687e-09)
(5.03561e-09 -4.26228e-08 3.87904e-09)
(5.24056e-09 -5.16053e-08 4.93335e-09)
(5.18796e-09 -6.18047e-08 6.23905e-09)
(4.82076e-09 -7.34333e-08 7.86609e-09)
(4.07271e-09 -8.66479e-08 9.89475e-09)
(2.88537e-09 -1.01485e-07 1.24093e-08)
(1.24945e-09 -1.17733e-07 1.54769e-08)
(-7.1674e-10 -1.34714e-07 1.90904e-08)
(-2.67366e-09 -1.50917e-07 2.30295e-08)
(-4.10277e-09 -1.63459e-07 2.65392e-08)
(-7.56493e-09 -1.7992e-07 3.22397e-08)
(0 0 0)
(1.41791e-09 -7.813e-09 6.33352e-10)