/*--------------------------------*- C++ -*----------------------------------*\
| =========                 |                                                 |
| \\      /  F ield         | foam-extend: Open Source CFD                    |
|  \\    /   O peration     | Version:     3.1                                |
|   \\  /    A nd           | Web:         http://www.extend-project.de       |
|    \\/     M anipulation  |                                                 |
\*---------------------------------------------------------------------------*/
FoamFile
{
    version     2.0;
    format      ascii;
    class       surfaceVectorField;
    location    "0.4";
    object      Sf;
}
// * * * * * * * * * * * * * * * * * * * * * * * * * * * * * * * * * * * * * //

dimensions      [0 2 0 0 0 0 0];

internalField   nonuniform List<vector> 
41600
(
(0.000625186 -2.12089e-06 -1.76504e-08)
(-1.87191e-07 0.000705245 -5.95197e-09)
(-3.97913e-08 -4.47653e-08 0.000704303)
(4.08984e-08 4.60107e-08 -0.000704279)
(0.000625366 -4.08747e-06 -3.424e-08)
(-1.81049e-07 0.000705088 -1.78782e-08)
(-3.91724e-08 -1.33592e-07 0.000704438)
(4.02854e-08 1.37334e-07 -0.000704403)
(0.000625545 -5.88488e-06 -5.00615e-08)
(-1.80438e-07 0.000704916 -3.02443e-08)
(-4.0333e-08 -2.23005e-07 0.000704562)
(4.15142e-08 2.29328e-07 -0.000704516)
(0.000625735 -7.56042e-06 -6.59755e-08)
(-1.90714e-07 0.000704791 -4.40407e-08)
(-4.43402e-08 -3.18197e-07 0.000704717)
(4.56758e-08 3.27349e-07 -0.000704657)
(0.000625945 -9.15373e-06 -8.27139e-08)
(-2.12083e-07 0.000704706 -6.05165e-08)
(-5.11931e-08 -4.25559e-07 0.000704911)
(5.27685e-08 4.37982e-07 -0.000704834)
(0.000626189 -1.06975e-05 -1.00851e-07)
(-2.45833e-07 0.000704652 -8.11297e-08)
(-6.11283e-08 -5.51743e-07 0.000705155)
(6.30351e-08 5.68077e-07 -0.000705055)
(0.000626481 -1.2217e-05 -1.20757e-07)
(-2.94399e-07 0.000704623 -1.07748e-07)
(-7.46416e-08 -7.04218e-07 0.00070546)
(7.69848e-08 7.25325e-07 -0.000705333)
(0.00062684 -1.37287e-05 -1.42534e-07)
(-3.61729e-07 0.00070461 -1.42878e-07)
(-9.25657e-08 -8.91938e-07 0.000705843)
(9.54724e-08 9.18936e-07 -0.000705679)
(0.00062729 -1.5237e-05 -1.65929e-07)
(-4.53487e-07 0.000704599 -1.90079e-07)
(-1.16251e-07 -1.12629e-06 0.000706324)
(1.19887e-07 1.16063e-06 -0.00070611)
(0.000627863 -1.67287e-05 -1.90323e-07)
(-5.77725e-07 0.000704573 -2.54674e-07)
(-1.47946e-07 -1.42267e-06 0.000706927)
(1.52544e-07 1.46623e-06 -0.000706648)
(0.000628603 -1.81669e-05 -2.15066e-07)
(-7.45755e-07 0.000704508 -3.45023e-07)
(-1.91564e-07 -1.80332e-06 0.000707688)
(1.97469e-07 1.85864e-06 -0.000707318)
(0.000629568 -1.94857e-05 -2.40866e-07)
(-9.72845e-07 0.000704373 -4.75121e-07)
(-2.54086e-07 -2.30259e-06 0.000708657)
(2.6184e-07 2.37316e-06 -0.000708156)
(0.000630833 -2.05932e-05 -2.7399e-07)
(-1.27601e-06 0.000704141 -6.69666e-07)
(-3.4711e-07 -2.97541e-06 0.000709913)
(3.57723e-07 3.06639e-06 -0.00070921)
(0.000632463 -2.13975e-05 -3.36006e-07)
(-1.64722e-06 0.000703808 -9.70567e-07)
(-4.81415e-07 -3.9017e-06 0.000711565)
(4.98596e-07 4.02324e-06 -0.000710532)
(0.00063427 -2.18306e-05 -4.79249e-07)
(-1.86196e-06 0.000703359 -1.41649e-06)
(-6.00633e-07 -5.11227e-06 0.000713614)
(6.55516e-07 5.31182e-06 -0.000712055)
(-8.57795e-06 0.000702176 1.12469e-06)
(-2.07571e-06 -8.06806e-06 0.000719135)
(4.57628e-06 1.10512e-05 -0.00071981)
(0.000625175 -2.08445e-06 -5.24994e-08)
(-3.65202e-07 0.000707328 -1.16137e-08)
(-1.18139e-07 -4.33738e-08 0.000706417)
(1.21427e-07 4.45823e-08 -0.000706359)
(0.000625343 -4.01652e-06 -1.01834e-07)
(-3.52883e-07 0.000707016 -3.48635e-08)
(-1.16238e-07 -1.29354e-07 0.000706388)
(1.19542e-07 1.32983e-07 -0.000706321)
(0.00062551 -5.78114e-06 -1.48868e-07)
(-3.50985e-07 0.000706675 -5.8922e-08)
(-1.19555e-07 -2.15646e-07 0.000706332)
(1.23059e-07 2.21772e-07 -0.000706256)
(0.000625685 -7.42453e-06 -1.96162e-07)
(-3.69865e-07 0.000706426 -8.56828e-08)
(-1.31237e-07 -3.07091e-07 0.000706353)
(1.35195e-07 3.15944e-07 -0.000706264)
(0.000625878 -8.98554e-06 -2.45902e-07)
(-4.09739e-07 0.000706255 -1.1751e-07)
(-1.51237e-07 -4.09615e-07 0.00070645)
(1.559e-07 4.21609e-07 -0.000706343)
(0.0006261 -1.04966e-05 -2.99809e-07)
(-4.72672e-07 0.000706148 -1.57169e-07)
(-1.80175e-07 -5.29251e-07 0.000706625)
(1.8581e-07 5.44981e-07 -0.000706495)
(0.000626361 -1.19837e-05 -3.59022e-07)
(-5.62922e-07 0.00070609 -2.08132e-07)
(-2.19371e-07 -6.72547e-07 0.000706881)
(2.26282e-07 6.92809e-07 -0.000706721)
(0.000626678 -1.34653e-05 -4.23875e-07)
(-6.87091e-07 0.000706065 -2.74986e-07)
(-2.71001e-07 -8.46965e-07 0.000707221)
(2.79553e-07 8.72785e-07 -0.000707024)
(0.000627068 -1.49492e-05 -4.9361e-07)
(-8.54396e-07 0.00070605 -3.64128e-07)
(-3.3847e-07 -1.06128e-06 0.000707648)
(3.49138e-07 1.09397e-06 -0.000707405)
(0.000627554 -1.64282e-05 -5.66178e-07)
(-1.0771e-06 0.000706011 -4.84825e-07)
(-4.27159e-07 -1.32596e-06 0.000708161)
(4.40603e-07 1.36719e-06 -0.000707859)
(0.000628161 -1.7872e-05 -6.38703e-07)
(-1.36987e-06 0.0007059 -6.51041e-07)
(-5.45788e-07 -1.65327e-06 0.000708754)
(5.62995e-07 1.70529e-06 -0.000708376)
(0.000628912 -1.92173e-05 -7.10202e-07)
(-1.74669e-06 0.000705653 -8.84781e-07)
(-7.08389e-07 -2.05628e-06 0.000709415)
(7.30925e-07 2.12215e-06 -0.000708934)
(0.000629812 -2.03568e-05 -7.90263e-07)
(-2.20635e-06 0.000705197 -1.22193e-06)
(-9.34281e-07 -2.54342e-06 0.000710123)
(9.65006e-07 2.62759e-06 -0.00070949)
(0.000630789 -2.11358e-05 -9.19529e-07)
(-2.67187e-06 0.000704477 -1.71822e-06)
(-1.22716e-06 -3.09917e-06 0.000710847)
(1.27535e-06 3.20873e-06 -0.00070997)
(0.00063151 -2.13949e-05 -1.20997e-06)
(-2.71774e-06 0.000703469 -2.42863e-06)
(-1.42238e-06 -3.63597e-06 0.000711484)
(1.55688e-06 3.78496e-06 -0.000710181)
(-6.69001e-06 0.000700106 -8.18697e-07)
(-3.63357e-06 -3.23945e-06 0.00071148)
(7.45015e-06 1.96726e-06 -0.000708605)
(0.000625155 -2.01286e-06 -8.60106e-08)
(-5.25607e-07 0.00070934 -1.66974e-08)
(-1.92881e-07 -4.07014e-08 0.000708473)
(1.98255e-07 4.18389e-08 -0.000708381)
(0.000625304 -3.87709e-06 -1.66801e-07)
(-5.0708e-07 0.000708877 -5.00873e-08)
(-1.89574e-07 -1.21237e-07 0.000708271)
(1.9497e-07 1.2465e-07 -0.000708175)
(0.00062545 -5.57716e-06 -2.43767e-07)
(-5.02697e-07 0.000708369 -8.45309e-08)
(-1.94578e-07 -2.01621e-07 0.000708027)
(2.00291e-07 2.0737e-07 -0.000707925)
(0.000625601 -7.15702e-06 -3.21105e-07)
(-5.27197e-07 0.000707997 -1.22651e-07)
(-2.12971e-07 -2.86063e-07 0.000707903)
(2.1941e-07 2.94347e-07 -0.000707789)
(0.000625764 -8.65394e-06 -4.02414e-07)
(-5.80352e-07 0.000707741 -1.67722e-07)
(-2.44541e-07 -3.79669e-07 0.00070789)
(2.52106e-07 3.90848e-07 -0.000707758)
(0.000625946 -1.00997e-05 -4.90574e-07)
(-6.64356e-07 0.000707579 -2.23514e-07)
(-2.90062e-07 -4.87408e-07 0.000707979)
(2.99177e-07 5.01999e-07 -0.000707824)
(0.000626156 -1.15212e-05 -5.87553e-07)
(-7.84126e-07 0.000707493 -2.94659e-07)
(-3.51253e-07 -6.14316e-07 0.000708164)
(3.62388e-07 6.32995e-07 -0.00070798)
(0.000626403 -1.29399e-05 -6.94051e-07)
(-9.47052e-07 0.000707461 -3.87148e-07)
(-4.30853e-07 -7.65525e-07 0.000708435)
(4.44567e-07 7.89146e-07 -0.000708216)
(0.000626694 -1.43706e-05 -8.08924e-07)
(-1.16308e-06 0.000707451 -5.09103e-07)
(-5.32831e-07 -9.46003e-07 0.000708776)
(5.49834e-07 9.7561e-07 -0.000708516)
(0.00062704 -1.58177e-05 -9.2851e-07)
(-1.444e-06 0.000707421 -6.7189e-07)
(-6.62729e-07 -1.15963e-06 0.000709161)
(6.83995e-07 1.19651e-06 -0.000708854)
(0.000627443 -1.72682e-05 -1.04627e-06)
(-1.80036e-06 0.000707305 -8.91861e-07)
(-8.27974e-07 -1.40683e-06 0.00070954)
(8.54958e-07 1.45258e-06 -0.000709182)
(0.000627895 -1.86797e-05 -1.15426e-06)
(-2.23316e-06 0.000707007 -1.19333e-06)
(-1.0371e-06 -1.67909e-06 0.000709835)
(1.07211e-06 1.73577e-06 -0.000709419)
(0.000628351 -1.99619e-05 -1.25003e-06)
(-2.70943e-06 0.000706409 -1.61366e-06)
(-1.29291e-06 -1.94741e-06 0.00070993)
(1.34001e-06 2.01769e-06 -0.000709442)
(0.000628699 -2.0962e-05 -1.35592e-06)
(-3.09025e-06 0.000705391 -2.20961e-06)
(-1.55818e-06 -2.14421e-06 0.000709681)
(1.62844e-06 2.23066e-06 -0.000709084)
(0.000628696 -2.15078e-05 -1.57283e-06)
(-2.87643e-06 0.00070392 -3.05545e-06)
(-1.60525e-06 -2.17123e-06 0.000709014)
(1.76669e-06 2.26583e-06 -0.00070817)
(-7.17287e-06 0.000700923 -1.22804e-06)
(-2.75196e-06 -1.67623e-06 0.000707671)
(5.24249e-06 1.5447e-06 -0.000706546)
(0.000625128 -1.90786e-06 -1.17344e-07)
(-6.61301e-07 0.000711246 -2.09747e-08)
(-2.61912e-07 -3.69294e-08 0.000710434)
(2.6922e-07 3.79662e-08 -0.000710313)
(0.000625251 -3.67268e-06 -2.27489e-07)
(-6.36646e-07 0.000710639 -6.28536e-08)
(-2.57024e-07 -1.09806e-07 0.000710057)
(2.64353e-07 1.12912e-07 -0.000709934)
(0.000625369 -5.27813e-06 -3.32291e-07)
(-6.28396e-07 0.000709969 -1.05862e-07)
(-2.63013e-07 -1.81957e-07 0.000709621)
(2.70754e-07 1.87173e-07 -0.000709495)
(0.000625487 -6.76463e-06 -4.37467e-07)
(-6.54747e-07 0.000709477 -1.53157e-07)
(-2.86669e-07 -2.56759e-07 0.000709345)
(2.95367e-07 2.64244e-07 -0.00070921)
(0.000625611 -8.16677e-06 -5.47958e-07)
(-7.14574e-07 0.000709133 -2.08667e-07)
(-3.27474e-07 -3.38274e-07 0.00070921)
(3.37654e-07 3.48315e-07 -0.000709058)
(0.000625744 -9.51474e-06 -6.67797e-07)
(-8.09569e-07 0.000708914 -2.76786e-07)
(-3.86066e-07 -4.3018e-07 0.000709199)
(3.98274e-07 4.43188e-07 -0.000709026)
(0.000625889 -1.08356e-05 -7.99886e-07)
(-9.43922e-07 0.000708797 -3.62771e-07)
(-4.64069e-07 -5.3579e-07 0.000709296)
(4.78899e-07 5.52286e-07 -0.000709096)
(0.000626048 -1.2154e-05 -9.45537e-07)
(-1.12417e-06 0.000708758 -4.73271e-07)
(-5.63945e-07 -6.57819e-07 0.000709481)
(5.82078e-07 6.78426e-07 -0.000709249)
(0.000626222 -1.34926e-05 -1.10365e-06)
(-1.35866e-06 0.000708764 -6.17034e-07)
(-6.88783e-07 -7.97719e-07 0.000709724)
(7.11051e-07 8.23139e-07 -0.000709458)
(0.000626406 -1.48711e-05 -1.26947e-06)
(-1.65581e-06 0.000708769 -8.05969e-07)
(-8.41787e-07 -9.54207e-07 0.000709979)
(8.693e-07 9.85193e-07 -0.000709679)
(0.000626591 -1.63031e-05 -1.43293e-06)
(-2.01971e-06 0.000708699 -1.0567e-06)
(-1.02486e-06 -1.12031e-06 0.000710168)
(1.05924e-06 1.15762e-06 -0.000709839)
(0.000626753 -1.7786e-05 -1.5775e-06)
(-2.43915e-06 0.000708446 -1.39332e-06)
(-1.23455e-06 -1.27803e-06 0.00071017)
(1.27833e-06 1.32234e-06 -0.000709826)
(0.000626848 -1.92801e-05 -1.68242e-06)
(-2.86208e-06 0.000707851 -1.85275e-06)
(-1.4505e-06 -1.39067e-06 0.000709814)
(1.50798e-06 1.44241e-06 -0.00070947)
(0.000626809 -2.06732e-05 -1.73619e-06)
(-3.13202e-06 0.000706726 -2.4946e-06)
(-1.60214e-06 -1.40014e-06 0.000708909)
(1.6835e-06 1.45835e-06 -0.00070857)
(0.000626546 -2.17542e-05 -1.78806e-06)
(-2.7726e-06 0.000704948 -3.42006e-06)
(-1.47096e-06 -1.26646e-06 0.00070742)
(1.62967e-06 1.31945e-06 -0.000707004)
(-6.83168e-06 0.000702485 -1.61459e-06)
(-2.04875e-06 -7.56887e-07 0.000705558)
(4.09331e-06 3.81812e-07 -0.000705061)
(0.000625097 -1.77288e-06 -1.45752e-07)
(-7.66996e-07 0.000713018 -2.42728e-08)
(-3.23522e-07 -3.23173e-08 0.000712271)
(3.32563e-07 3.32298e-08 -0.000712122)
(0.000625187 -3.41005e-06 -2.82423e-07)
(-7.36537e-07 0.000712273 -7.26458e-08)
(-3.16861e-07 -9.58628e-08 0.000711719)
(3.25913e-07 9.85911e-08 -0.000711573)
(0.000625273 -4.89399e-06 -4.12226e-07)
(-7.23172e-07 0.000711448 -1.22069e-07)
(-3.23001e-07 -1.58077e-07 0.000711091)
(3.32535e-07 1.6264e-07 -0.000710945)
(0.000625355 -6.26032e-06 -5.42226e-07)
(-7.47489e-07 0.000710836 -1.76027e-07)
(-3.50188e-07 -2.21408e-07 0.000710658)
(3.60856e-07 2.27916e-07 -0.000710506)
(0.000625435 -7.53958e-06 -6.78582e-07)
(-8.07232e-07 0.000710403 -2.38799e-07)
(-3.97464e-07 -2.88776e-07 0.000710393)
(4.0989e-07 2.97436e-07 -0.000710227)
(0.000625513 -8.7589e-06 -8.26435e-07)
(-9.0279e-07 0.000710122 -3.15028e-07)
(-4.65083e-07 -3.6254e-07 0.000710271)
(4.79898e-07 3.73642e-07 -0.000710085)
(0.000625588 -9.94375e-06 -9.897e-07)
(-1.03675e-06 0.000709968 -4.10083e-07)
(-5.54177e-07 -4.44399e-07 0.000710269)
(5.72043e-07 4.58291e-07 -0.000710058)
(0.000625656 -1.11198e-05 -1.17061e-06)
(-1.21349e-06 0.000709917 -5.30555e-07)
(-6.66349e-07 -5.35062e-07 0.000710359)
(6.8799e-07 5.52119e-07 -0.000710121)
(0.00062571 -1.23151e-05 -1.36882e-06)
(-1.43834e-06 0.000709939 -6.84944e-07)
(-8.03025e-07 -6.33563e-07 0.000710504)
(8.29272e-07 6.54126e-07 -0.000710238)
(0.000625738 -1.35631e-05 -1.57978e-06)
(-1.71569e-06 0.000709992 -8.84637e-07)
(-9.6418e-07 -7.36025e-07 0.000710649)
(9.96064e-07 7.60298e-07 -0.00071036)
(0.000625724 -1.4904e-05 -1.79219e-06)
(-2.0447e-06 0.000710012 -1.14553e-06)
(-1.14564e-06 -8.33635e-07 0.000710708)
(1.1846e-06 8.61519e-07 -0.000710407)
(0.000625646 -1.63826e-05 -1.98427e-06)
(-2.40962e-06 0.000709894 -1.49115e-06)
(-1.33334e-06 -9.09849e-07 0.00071055)
(1.38158e-06 9.40693e-07 -0.00071026)
(0.00062548 -1.80266e-05 -2.12042e-06)
(-2.75762e-06 0.000709463 -1.95919e-06)
(-1.49127e-06 -9.38156e-07 0.000709983)
(1.55256e-06 9.70455e-07 -0.00070974)
(0.000625208 -1.97779e-05 -2.15321e-06)
(-2.94284e-06 0.000708446 -2.61445e-06)
(-1.537e-06 -8.86431e-07 0.000708766)
(1.62021e-06 9.17374e-07 -0.000708614)
(0.000624812 -2.13425e-05 -2.04334e-06)
(-2.52534e-06 0.000706491 -3.5793e-06)
(-1.29215e-06 -7.48198e-07 0.000706732)
(1.44039e-06 7.69423e-07 -0.000706683)
(-6.34518e-06 0.000704647 -1.73775e-06)
(-1.50093e-06 -4.06793e-07 0.000704748)
(3.05065e-06 1.71924e-07 -0.000705145)
(0.000625062 -1.61217e-06 -1.70619e-07)
(-8.39424e-07 0.00071463 -2.64848e-08)
(-3.76488e-07 -2.71584e-08 0.000713957)
(3.87028e-07 2.793e-08 -0.000713784)
(0.000625119 -3.09759e-06 -3.30392e-07)
(-8.0382e-07 0.000713756 -7.91655e-08)
(-3.67883e-07 -8.03056e-08 0.000713234)
(3.78417e-07 8.26066e-08 -0.000713068)
(0.000625169 -4.43728e-06 -4.81749e-07)
(-7.84563e-07 0.000712784 -1.32698e-07)
(-3.73313e-07 -1.31563e-07 0.000712418)
(3.84367e-07 1.35391e-07 -0.000712256)
(0.000625213 -5.66079e-06 -6.32867e-07)
(-8.03555e-07 0.000712054 -1.90685e-07)
(-4.02208e-07 -1.82434e-07 0.000711827)
(4.14518e-07 1.87847e-07 -0.000711661)
(0.000625249 -6.79313e-06 -7.90934e-07)
(-8.57265e-07 0.000711529 -2.57483e-07)
(-4.53085e-07 -2.34712e-07 0.000711426)
(4.67341e-07 2.41836e-07 -0.00071125)
(0.000625273 -7.85649e-06 -9.6206e-07)
(-9.44307e-07 0.000711176 -3.37617e-07)
(-5.2565e-07 -2.89538e-07 0.000711185)
(5.42527e-07 2.98541e-07 -0.000710992)
(0.000625281 -8.8721e-06 -1.15116e-06)
(-1.06502e-06 0.000710973 -4.36134e-07)
(-6.20312e-07 -3.47257e-07 0.000711075)
(6.40493e-07 3.58319e-07 -0.00071086)
(0.000625264 -9.86252e-06 -1.36157e-06)
(-1.22082e-06 0.000710894 -5.59029e-07)
(-7.37589e-07 -4.07127e-07 0.000711064)
(7.61769e-07 4.20393e-07 -0.000710825)
(0.000625211 -1.08552e-05 -1.59433e-06)
(-1.41338e-06 0.000710916 -7.1387e-07)
(-8.77186e-07 -4.66859e-07 0.000711113)
(9.06082e-07 4.82353e-07 -0.000710851)
(0.000625104 -1.18875e-05 -1.84665e-06)
(-1.64323e-06 0.000711007 -9.10792e-07)
(-1.03635e-06 -5.22002e-07 0.000711168)
(1.07075e-06 5.3948e-07 -0.000710889)
(0.000624925 -1.30147e-05 -2.10931e-06)
(-1.90721e-06 0.000711121 -1.16434e-06)
(-1.20686e-06 -5.65384e-07 0.000711152)
(1.2477e-06 5.84077e-07 -0.00071087)
(0.00062466 -1.43177e-05 -2.36207e-06)
(-2.19337e-06 0.000711179 -1.49752e-06)
(-1.36935e-06 -5.87228e-07 0.00071095)
(1.41802e-06 6.05438e-07 -0.000710691)
(0.00062431 -1.58995e-05 -2.56576e-06)
(-2.46685e-06 0.00071103 -1.95092e-06)
(-1.48302e-06 -5.77406e-07 0.000710389)
(1.5422e-06 5.92012e-07 -0.000710194)
(0.000623911 -1.78189e-05 -2.64689e-06)
(-2.62105e-06 0.000710359 -2.59937e-06)
(-1.46769e-06 -5.31955e-07 0.000709198)
(1.54531e-06 5.3833e-07 -0.000709132)
(0.000623503 -1.98261e-05 -2.44e-06)
(-2.254e-06 0.000708505 -3.58396e-06)
(-1.1739e-06 -4.65286e-07 0.000706946)
(1.31106e-06 4.58332e-07 -0.000707148)
(-5.81605e-06 0.000707758 -1.74557e-06)
(-1.20641e-06 -3.25689e-07 0.000705333)
(2.47178e-06 1.53531e-07 -0.00070658)
(0.000625026 -1.43061e-06 -1.91495e-07)
(-8.77278e-07 0.00071606 -2.75844e-08)
(-4.20113e-07 -2.17528e-08 0.000715469)
(4.31896e-07 2.23751e-08 -0.000715276)
(0.000625048 -2.74516e-06 -3.70511e-07)
(-8.37615e-07 0.000715069 -8.23472e-08)
(-4.09447e-07 -6.40507e-08 0.000714584)
(4.21197e-07 6.58997e-08 -0.000714402)
(0.000625064 -3.92307e-06 -5.39528e-07)
(-8.12423e-07 0.000713959 -1.37693e-07)
(-4.1337e-07 -1.04009e-07 0.000713586)
(4.2565e-07 1.07061e-07 -0.000713412)
(0.00062507 -4.98663e-06 -7.07547e-07)
(-8.23946e-07 0.000713114 -1.97144e-07)
(-4.42227e-07 -1.42235e-07 0.00071284)
(4.55828e-07 1.46502e-07 -0.000712665)
(0.000625065 -5.95402e-06 -8.82506e-07)
(-8.673e-07 0.00071249 -2.64885e-07)
(-4.93982e-07 -1.79483e-07 0.000712301)
(5.09627e-07 1.85011e-07 -0.000712119)
(0.000625041 -6.84063e-06 -1.07125e-06)
(-9.39232e-07 0.000712056 -3.45083e-07)
(-5.6771e-07 -2.15838e-07 0.000711935)
(5.8609e-07 2.22683e-07 -0.000711739)
(0.000624992 -7.6606e-06 -1.27946e-06)
(-1.03749e-06 0.000711785 -4.42143e-07)
(-6.63027e-07 -2.50571e-07 0.000711709)
(6.84803e-07 2.58765e-07 -0.000711495)
(0.000624906 -8.4286e-06 -1.51151e-06)
(-1.16021e-06 0.000711653 -5.61074e-07)
(-7.79398e-07 -2.81938e-07 0.000711588)
(8.05186e-07 2.91442e-07 -0.000711354)
(0.000624767 -9.16285e-06 -1.7699e-06)
(-1.30504e-06 0.00071164 -7.08019e-07)
(-9.15138e-07 -3.06974e-07 0.000711534)
(9.4548e-07 3.17588e-07 -0.000711282)
(0.000624557 -9.89014e-06 -2.05435e-06)
(-1.4684e-06 0.000711723 -8.91139e-07)
(-1.06584e-06 -3.21436e-07 0.0007115)
(1.10117e-06 3.32653e-07 -0.000711235)
(0.000624254 -1.06546e-05 -2.36008e-06)
(-1.64513e-06 0.000711875 -1.12253e-06)
(-1.2218e-06 -3.20333e-07 0.000711422)
(1.26243e-06 3.3107e-07 -0.000711158)
(0.000623843 -1.15331e-05 -2.67466e-06)
(-1.82884e-06 0.000712049 -1.42307e-06)
(-1.36376e-06 -2.99977e-07 0.000711213)
(1.40994e-06 3.08089e-07 -0.000710972)
(0.000623337 -1.26593e-05 -2.9711e-06)
(-2.01283e-06 0.000712155 -1.83479e-06)
(-1.45566e-06 -2.63318e-07 0.000710744)
(1.50827e-06 2.6472e-07 -0.000710564)
(0.000622822 -1.42349e-05 -3.1824e-06)
(-2.17151e-06 0.000711947 -2.44785e-06)
(-1.43065e-06 -2.29922e-07 0.000709789)
(1.49555e-06 2.17323e-07 -0.000709729)
(0.000622475 -1.63375e-05 -3.03324e-06)
(-2.02761e-06 0.000710643 -3.44424e-06)
(-1.15457e-06 -2.3967e-07 0.000707756)
(1.27546e-06 2.04532e-07 -0.000708045)
(-5.65058e-06 0.000713496 -1.67227e-06)
(-1.2023e-06 -3.41976e-07 0.000708252)
(2.33286e-06 2.32238e-07 -0.000710383)
(0.000624991 -1.23406e-06 -2.08122e-07)
(-4.54214e-07 -1.63869e-08 0.000716789)
(4.66975e-07 1.68592e-08 -0.000716581)
(-8.80988e-07 0.000717293 -2.76032e-08)
(0.000624979 -2.36504e-06 -4.02288e-07)
(-4.41454e-07 -4.79741e-08 0.000715756)
(4.5415e-07 4.937e-08 -0.000715561)
(-8.38814e-07 0.000716199 -8.2306e-08)
(0.000624962 -3.37077e-06 -5.84847e-07)
(-4.43213e-07 -7.69324e-08 0.000714589)
(4.56421e-07 7.92119e-08 -0.000714407)
(-8.08527e-07 0.000714963 -1.37304e-07)
(0.000624936 -4.26539e-06 -7.65287e-07)
(-4.70493e-07 -1.03068e-07 0.000713691)
(4.85031e-07 1.062e-07 -0.000713512)
(-8.11832e-07 0.000714005 -1.95876e-07)
(0.000624894 -5.05938e-06 -9.51973e-07)
(-5.20718e-07 -1.26219e-07 0.000713015)
(5.37322e-07 1.30179e-07 -0.000712831)
(-8.42637e-07 0.00071328 -2.61865e-07)
(0.000624832 -5.76031e-06 -1.15212e-06)
(-5.9233e-07 -1.45592e-07 0.00071252)
(6.11676e-07 1.5034e-07 -0.000712326)
(-8.95912e-07 0.000712752 -3.38914e-07)
(0.000624739 -6.37348e-06 -1.37183e-06)
(-6.84169e-07 -1.59625e-07 0.000712168)
(7.0687e-07 1.65076e-07 -0.00071196)
(-9.66989e-07 0.000712392 -4.30609e-07)
(0.000624602 -6.90254e-06 -1.61597e-06)
(-7.94764e-07 -1.65852e-07 0.000711926)
(8.21338e-07 1.71833e-07 -0.000711702)
(-1.05065e-06 0.000712176 -5.40769e-07)
(0.000624407 -7.35046e-06 -1.88796e-06)
(-9.214e-07 -1.60827e-07 0.000711754)
(9.5221e-07 1.67018e-07 -0.000711517)
(-1.14038e-06 0.000712082 -6.73797e-07)
(0.000624131 -7.72103e-06 -2.18927e-06)
(-1.0588e-06 -1.40275e-07 0.000711608)
(1.09396e-06 1.4611e-07 -0.000711363)
(-1.22759e-06 0.000712088 -8.35197e-07)
(0.000623748 -8.02143e-06 -2.51876e-06)
(-1.19722e-06 -9.97404e-08 0.000711429)
(1.23648e-06 1.04263e-07 -0.00071119)
(-1.30097e-06 0.00071217 -1.03282e-06)
(0.000623222 -8.26723e-06 -2.87164e-06)
(-1.31969e-06 -3.62479e-08 0.000711136)
(1.36237e-06 3.78854e-08 -0.000710927)
(-1.34596e-06 0.000712293 -1.27986e-06)
(0.000622506 -8.49588e-06 -3.23724e-06)
(-1.39752e-06 4.82961e-08 0.000710588)
(1.44286e-06 -5.21027e-08 -0.000710455)
(-1.34195e-06 0.000712387 -1.60193e-06)
(0.000621519 -8.81949e-06 -3.58172e-06)
(-1.38009e-06 1.40279e-07 0.000709477)
(1.43107e-06 -1.54248e-07 -0.00070953)
(-1.2354e-06 0.000712285 -2.05036e-06)
(0.000620101 -9.72383e-06 -3.68526e-06)
(-1.16171e-06 1.915e-07 0.000706986)
(1.25468e-06 -2.32427e-07 -0.000707616)
(-7.0302e-07 0.000711588 -2.71095e-06)
(-1.64262e-06 -1.94697e-07 0.000714853)
(2.75625e-06 1.19772e-07 -0.000718129)
(-7.8545e-06 0.00072509 -1.18595e-06)
(0.000625195 -2.15418e-06 -1.56193e-08)
(-1.97287e-07 0.000705276 -5.43121e-09)
(-3.722e-08 -4.18725e-08 0.000704324)
(0.000625383 -4.15216e-06 -3.03664e-08)
(-1.91165e-07 0.000705114 -1.62887e-08)
(-3.66232e-08 -1.24939e-07 0.000704469)
(0.000625572 -5.97957e-06 -4.44551e-08)
(-1.91208e-07 0.000704938 -2.74582e-08)
(-3.76756e-08 -2.08496e-07 0.000704604)
(0.000625772 -7.68526e-06 -5.85543e-08)
(-2.03093e-07 0.00070481 -3.97408e-08)
(-4.13733e-08 -2.97366e-07 0.000704771)
(0.000625996 -9.31017e-06 -7.32225e-08)
(-2.27093e-07 0.000704722 -5.4116e-08)
(-4.77048e-08 -3.97474e-07 0.00070498)
(0.000626256 -1.0888e-05 -8.88742e-08)
(-2.64682e-07 0.000704666 -7.16396e-08)
(-5.68667e-08 -5.14952e-07 0.000705242)
(0.000626569 -1.24447e-05 -1.0574e-07)
(-3.18624e-07 0.000704634 -9.35337e-08)
(-6.92702e-08 -6.56612e-07 0.000705571)
(0.000626956 -1.39968e-05 -1.23824e-07)
(-3.93283e-07 0.000704616 -1.2122e-07)
(-8.55826e-08 -8.30469e-07 0.000705983)
(0.000627441 -1.55484e-05 -1.42883e-07)
(-4.95018e-07 0.000704597 -1.56315e-07)
(-1.0682e-07 -1.04642e-06 0.000706499)
(0.000628061 -1.70852e-05 -1.6253e-07)
(-6.32805e-07 0.000704556 -2.00483e-07)
(-1.34528e-07 -1.3172e-06 0.000707147)
(0.000628859 -1.85699e-05 -1.82688e-07)
(-8.19078e-07 0.000704466 -2.54639e-07)
(-1.71052e-07 -1.65992e-06 0.000707963)
(0.000629895 -1.99383e-05 -2.04796e-07)
(-1.07006e-06 0.000704289 -3.16361e-07)
(-2.19692e-07 -2.09792e-06 0.000708996)
(0.000631232 -2.11096e-05 -2.3407e-07)
(-1.4013e-06 0.000703982 -3.71849e-07)
(-2.83356e-07 -2.66155e-06 0.000710314)
(0.0006329 -2.20218e-05 -2.80741e-07)
(-1.79347e-06 0.000703513 -3.75588e-07)
(-3.55239e-07 -3.37709e-06 0.000711987)
(0.000634669 -2.26614e-05 -3.49785e-07)
(-1.99247e-06 0.000702852 -2.39194e-07)
(-3.7732e-07 -4.19985e-06 0.000713923)
(-5.98745e-06 0.000703404 2.18148e-08)
(-9.39711e-07 -5.67256e-06 0.000719372)
(0.00062518 -2.11689e-06 -4.647e-08)
(-3.84864e-07 0.00070739 -1.06025e-08)
(-1.10504e-07 -4.05708e-08 0.000706469)
(0.000625354 -4.07952e-06 -9.0339e-08)
(-3.72559e-07 0.000707069 -3.17801e-08)
(-1.08673e-07 -1.20975e-07 0.000706447)
(0.000625527 -5.87329e-06 -1.32238e-07)
(-3.71891e-07 0.000706718 -5.35209e-08)
(-1.11678e-07 -2.01617e-07 0.0007064)
(0.000625709 -7.54593e-06 -1.74155e-07)
(-3.93815e-07 0.000706462 -7.73621e-08)
(-1.22457e-07 -2.8699e-07 0.000706432)
(0.00062591 -9.13757e-06 -2.17757e-07)
(-4.38655e-07 0.000706286 -1.05157e-07)
(-1.40936e-07 -3.82592e-07 0.000706544)
(0.000626141 -1.06816e-05 -2.64281e-07)
(-5.0885e-07 0.000706175 -1.38902e-07)
(-1.67625e-07 -4.93991e-07 0.000706738)
(0.000626416 -1.22048e-05 -3.14421e-07)
(-6.09154e-07 0.000706112 -1.80858e-07)
(-2.03612e-07 -6.27166e-07 0.000707018)
(0.000626749 -1.37255e-05 -3.68177e-07)
(-7.46925e-07 0.000706078 -2.3358e-07)
(-2.50626e-07 -7.88818e-07 0.000707387)
(0.00062716 -1.52512e-05 -4.24728e-07)
(-9.32482e-07 0.000706048 -2.99891e-07)
(-3.11186e-07 -9.86592e-07 0.000707849)
(0.000627668 -1.6773e-05 -4.82568e-07)
(-1.17938e-06 0.000705981 -3.82427e-07)
(-3.88853e-07 -1.22915e-06 0.000708401)
(0.000628295 -1.82579e-05 -5.40426e-07)
(-1.5036e-06 0.000705824 -4.81985e-07)
(-4.88431e-07 -1.52569e-06 0.00070904)
(0.000629051 -1.96385e-05 -5.99951e-07)
(-1.91899e-06 0.000705497 -5.92515e-07)
(-6.15232e-07 -1.88401e-06 0.00070975)
(0.000629903 -2.08029e-05 -6.71035e-07)
(-2.4184e-06 0.000704907 -6.87013e-07)
(-7.69366e-07 -2.30409e-06 0.000710509)
(0.000630705 -2.15933e-05 -7.7568e-07)
(-2.90229e-06 0.000703965 -6.86171e-07)
(-9.2001e-07 -2.7613e-06 0.000711262)
(0.000631122 -2.18642e-05 -9.28874e-07)
(-2.91651e-06 0.000702664 -4.53944e-07)
(-9.15689e-07 -3.17645e-06 0.000711852)
(-4.38001e-06 0.000700255 3.4674e-07)
(-1.67774e-06 -3.1066e-06 0.000711829)
(0.000625156 -2.04362e-06 -7.61559e-08)
(-5.53826e-07 0.000709431 -1.52519e-08)
(-1.80416e-07 -3.80701e-08 0.000708553)
(0.000625307 -3.93677e-06 -1.48025e-07)
(-5.35266e-07 0.000708954 -4.56819e-08)
(-1.77237e-07 -1.13381e-07 0.000708357)
(0.000625455 -5.66435e-06 -2.1662e-07)
(-5.32543e-07 0.000708432 -7.68303e-08)
(-1.81759e-07 -1.885e-07 0.000708119)
(0.000625608 -7.27172e-06 -2.85198e-07)
(-5.61198e-07 0.000708051 -1.1083e-07)
(-1.98725e-07 -2.67336e-07 0.000708005)
(0.000625774 -8.79737e-06 -3.56495e-07)
(-6.21164e-07 0.000707787 -1.50237e-07)
(-2.27894e-07 -3.54628e-07 0.000708006)
(0.00062596 -1.02741e-05 -4.32563e-07)
(-7.15068e-07 0.000707619 -1.9777e-07)
(-2.69886e-07 -4.54973e-07 0.000708114)
(0.000626174 -1.17294e-05 -5.14572e-07)
(-8.48393e-07 0.000707526 -2.56413e-07)
(-3.26099e-07 -5.72986e-07 0.000708321)
(0.000626424 -1.3185e-05 -6.02513e-07)
(-1.02942e-06 0.000707482 -3.29422e-07)
(-3.98661e-07 -7.13305e-07 0.000708618)
(0.000626718 -1.46552e-05 -6.94839e-07)
(-1.26925e-06 0.000707452 -4.2021e-07)
(-4.9037e-07 -8.80298e-07 0.000708989)
(0.000627062 -1.61425e-05 -7.88262e-07)
(-1.58084e-06 0.000707386 -5.31526e-07)
(-6.04478e-07 -1.07714e-06 0.000709403)
(0.000627449 -1.76293e-05 -8.78206e-07)
(-1.97535e-06 0.000707207 -6.63047e-07)
(-7.43789e-07 -1.30366e-06 0.000709811)
(0.000627852 -1.90642e-05 -9.61072e-07)
(-2.45168e-06 0.000706805 -8.04609e-07)
(-9.07401e-07 -1.55174e-06 0.00071013)
(0.000628187 -2.03403e-05 -1.03979e-06)
(-2.96667e-06 0.000706033 -9.18762e-07)
(-1.07983e-06 -1.79697e-06 0.00071024)
(0.000628279 -2.12801e-05 -1.1309e-06)
(-3.35415e-06 0.00070475 -9.06063e-07)
(-1.19832e-06 -1.9891e-06 0.000709992)
(0.000627941 -2.16997e-05 -1.25901e-06)
(-3.10801e-06 0.000702978 -6.11719e-07)
(-1.07559e-06 -2.06614e-06 0.000709299)
(-4.45256e-06 0.00070069 4.00329e-07)
(-1.33457e-06 -1.89328e-06 0.000708302)
(0.000625126 -1.93618e-06 -1.03923e-07)
(-6.96684e-07 0.000711365 -1.91659e-08)
(-2.44983e-07 -3.45398e-08 0.000710542)
(0.000625246 -3.72754e-06 -2.01938e-07)
(-6.719e-07 0.000710738 -5.73514e-08)
(-2.40294e-07 -1.02685e-07 0.000710167)
(0.000625361 -5.35809e-06 -2.95382e-07)
(-6.65535e-07 0.000710051 -9.62846e-08)
(-2.45683e-07 -1.70107e-07 0.000709734)
(0.000625478 -6.86956e-06 -3.88686e-07)
(-6.9677e-07 0.000709546 -1.38521e-07)
(-2.67496e-07 -2.39941e-07 0.000709466)
(0.000625599 -8.29764e-06 -4.85591e-07)
(-7.64648e-07 0.000709193 -1.87124e-07)
(-3.05195e-07 -3.15963e-07 0.000709344)
(0.000625728 -9.6735e-06 -5.88946e-07)
(-8.71195e-07 0.000708966 -2.4525e-07)
(-3.5926e-07 -4.01585e-07 0.00070935)
(0.000625868 -1.10249e-05 -7.00428e-07)
(-1.0212e-06 0.000708841 -3.16233e-07)
(-4.30969e-07 -4.99867e-07 0.000709467)
(0.000626019 -1.23769e-05 -8.20094e-07)
(-1.222e-06 0.000708789 -4.03594e-07)
(-5.22145e-07 -6.13306e-07 0.000709675)
(0.000626178 -1.37521e-05 -9.45715e-07)
(-1.48291e-06 0.000708773 -5.10731e-07)
(-6.34701e-07 -7.43238e-07 0.00070994)
(0.000626339 -1.51687e-05 -1.07194e-06)
(-1.81323e-06 0.000708737 -6.39925e-07)
(-7.69672e-07 -8.88567e-07 0.000710213)
(0.00062648 -1.66362e-05 -1.18955e-06)
(-2.21689e-06 0.000708598 -7.89461e-07)
(-9.24901e-07 -1.04334e-06 0.000710412)
(0.000626563 -1.81422e-05 -1.28573e-06)
(-2.67942e-06 0.000708225 -9.46084e-07)
(-1.08947e-06 -1.19277e-06 0.000710408)
(0.000626514 -1.96276e-05 -1.34753e-06)
(-3.13721e-06 0.000707436 -1.06655e-06)
(-1.23063e-06 -1.30865e-06 0.000710024)
(0.000626232 -2.09485e-05 -1.37222e-06)
(-3.40837e-06 0.000706022 -1.04271e-06)
(-1.2662e-06 -1.35129e-06 0.00070907)
(0.000625712 -2.18666e-05 -1.39176e-06)
(-3.03148e-06 0.000703931 -7.13591e-07)
(-1.02735e-06 -1.30134e-06 0.000707542)
(-4.04667e-06 0.000701852 3.61384e-07)
(-1.0538e-06 -1.0891e-06 0.000705999)
(0.00062509 -1.79811e-06 -1.29106e-07)
(-8.07876e-07 0.000713161 -2.21884e-08)
(-3.02604e-07 -3.0224e-08 0.000712403)
(0.000625175 -3.45882e-06 -2.50765e-07)
(-7.77139e-07 0.000712393 -6.63243e-08)
(-2.9623e-07 -8.96394e-08 0.00071185)
(0.000625254 -4.96483e-06 -3.66558e-07)
(-7.65691e-07 0.000711547 -1.11113e-07)
(-3.01714e-07 -1.47772e-07 0.000711222)
(0.000625329 -6.35289e-06 -4.8195e-07)
(-7.95238e-07 0.000710919 -1.59368e-07)
(-3.26767e-07 -2.06895e-07 0.000710795)
(0.000625401 -7.65449e-06 -6.01587e-07)
(-8.63596e-07 0.000710475 -2.14421e-07)
(-3.70439e-07 -2.69727e-07 0.00071054)
(0.000625469 -8.89767e-06 -7.29073e-07)
(-9.714e-07 0.000710185 -2.79588e-07)
(-4.32851e-07 -3.38467e-07 0.000710433)
(0.00062553 -1.01087e-05 -8.66635e-07)
(-1.12168e-06 0.000710023 -3.58223e-07)
(-5.14823e-07 -4.14715e-07 0.000710448)
(0.000625578 -1.13137e-05 -1.01457e-06)
(-1.31943e-06 0.000709958 -4.53677e-07)
(-6.17395e-07 -4.99184e-07 0.000710557)
(0.000625604 -1.25415e-05 -1.17029e-06)
(-1.57075e-06 0.000709958 -5.68936e-07)
(-7.41002e-07 -5.9113e-07 0.000710718)
(0.000625591 -1.3825e-05 -1.32686e-06)
(-1.88058e-06 0.000709972 -7.05545e-07)
(-8.83885e-07 -6.8736e-07 0.000710871)
(0.000625515 -1.52029e-05 -1.47081e-06)
(-2.24776e-06 0.000709923 -8.60752e-07)
(-1.03887e-06 -7.80719e-07 0.000710924)
(0.000625343 -1.67134e-05 -1.57963e-06)
(-2.65343e-06 0.000709684 -1.02012e-06)
(-1.18689e-06 -8.58352e-07 0.000710733)
(0.000625034 -1.83685e-05 -1.62113e-06)
(-3.03451e-06 0.000709055 -1.1395e-06)
(-1.2848e-06 -9.01271e-07 0.000710098)
(0.000624559 -2.00757e-05 -1.56455e-06)
(-3.22334e-06 0.000707733 -1.11069e-06)
(-1.2469e-06 -8.90271e-07 0.000708778)
(0.000623981 -2.14856e-05 -1.44243e-06)
(-2.80674e-06 0.000705421 -7.73292e-07)
(-9.39002e-07 -8.28597e-07 0.000706669)
(-3.50705e-06 0.000703599 3.00169e-07)