/*--------------------------------*- C++ -*----------------------------------*\
| =========                 |                                                 |
| \\      /  F ield         | foam-extend: Open Source CFD                    |
|  \\    /   O peration     | Version:     3.1                                |
|   \\  /    A nd           | Web:         http://www.extend-project.de       |
|    \\/     M anipulation  |                                                 |
\*---------------------------------------------------------------------------*/
FoamFile
{
    version     2.0;
    format      ascii;
    class       volVectorField;
    location    "0.4";
    object      U;
}
// * * * * * * * * * * * * * * * * * * * * * * * * * * * * * * * * * * * * * //

dimensions      [0 1 -1 0 0 0 0];

internalField   nonuniform List<vector> 
14592
(
(0.011035 -0.00430684 -0.00611681)
(0.014279 -0.0029628 -0.00729586)
(0.0174607 -0.0016274 -0.0066448)
(0.0192625 -0.000895947 -0.00575371)
(0.020184 -0.000493895 -0.00494129)
(0.0206467 -0.000259946 -0.00427876)
(0.020838 -0.000113016 -0.00378489)
(0.0208506 -1.09815e-05 -0.00346775)
(0.0207288 6.99892e-05 -0.00333818)
(0.0204859 0.000145135 -0.00341927)
(0.0201111 0.000225865 -0.0037571)
(0.0195649 0.000323605 -0.00444061)
(0.0187533 0.000453446 -0.0056404)
(0.0173718 0.000650649 -0.00767757)
(0.0147356 0.000995459 -0.0110125)
(0.0112856 0.00147656 -0.0137774)
(0.0207153 -0.00735922 -0.00825937)
(0.0233757 -0.00617985 -0.0104397)
(0.0262446 -0.00381569 -0.00958857)
(0.0280871 -0.00223858 -0.00828741)
(0.0291031 -0.00127891 -0.00708866)
(0.0296218 -0.000689685 -0.00610968)
(0.0298235 -0.000309643 -0.00537556)
(0.0298067 -4.28344e-05 -0.00489416)
(0.0296196 0.000169701 -0.00467722)
(0.0292742 0.000366427 -0.00475385)
(0.0287518 0.000578798 -0.0051843)
(0.0279958 0.000838845 -0.0060862)
(0.0268785 0.00118873 -0.00768366)
(0.0250107 0.00170315 -0.0103791)
(0.0215273 0.00251329 -0.01461)
(0.0167965 0.00355287 -0.0170968)
(0.0285777 -0.00950367 -0.00894547)
(0.0293058 -0.00891167 -0.0114862)
(0.0303875 -0.0058888 -0.0104882)
(0.0312128 -0.00359495 -0.00898165)
(0.0316897 -0.00209783 -0.0076167)
(0.0319059 -0.00113731 -0.00651588)
(0.0319337 -0.000498975 -0.00569375)
(0.0318177 -4.0706e-05 -0.00514846)
(0.0315762 0.000331171 -0.00488463)
(0.0312061 0.000680209 -0.00492619)
(0.0306833 0.00106075 -0.00532854)
(0.029952 0.00152841 -0.00620334)
(0.0288951 0.00215422 -0.00776369)
(0.0271586 0.00304502 -0.0103827)
(0.0239493 0.00434666 -0.014404)
(0.0195919 0.00577693 -0.0164406)
(0.0356019 -0.00964361 -0.00950044)
(0.0346115 -0.00972683 -0.0122567)
(0.033872 -0.00671532 -0.0110805)
(0.0334917 -0.00420574 -0.00937348)
(0.0332535 -0.00248112 -0.00786015)
(0.0330428 -0.00133221 -0.00665789)
(0.0328213 -0.000544085 -0.00576455)
(0.0325698 3.97284e-05 -0.00516373)
(0.0322689 0.000523386 -0.00485049)
(0.0318961 0.000988844 -0.00483734)
(0.0314227 0.00150334 -0.00516835)
(0.0307988 0.00213678 -0.00593808)
(0.0299301 0.00297605 -0.00732981)
(0.0285275 0.00414023 -0.00966007)
(0.025933 0.00576345 -0.0131791)
(0.0224206 0.00737991 -0.0147661)
(0.0415004 -0.00841835 -0.0100158)
(0.0392307 -0.00891707 -0.0129607)
(0.0370089 -0.0063325 -0.0116128)
(0.035552 -0.00402058 -0.00971092)
(0.0346314 -0.00236613 -0.00805172)
(0.0339961 -0.00122623 -0.00674837)
(0.033523 -0.000417819 -0.00578225)
(0.0331344 0.0002029 -0.00512195)
(0.0327795 0.000736234 -0.00474951)
(0.0324217 0.00126532 -0.00466611)
(0.0320245 0.00186077 -0.00490083)
(0.0315471 0.00259703 -0.00552617)
(0.0309195 0.00356508 -0.00668825)
(0.0299197 0.00488219 -0.00863853)
(0.0280221 0.00665823 -0.0115415)
(0.025423 0.00829773 -0.0126762)
(0.0460493 -0.00638991 -0.0104464)
(0.0428956 -0.0069759 -0.0135541)
(0.0395916 -0.00502338 -0.012064)
(0.0372981 -0.00318456 -0.00999431)
(0.0358239 -0.00182405 -0.00820588)
(0.0348356 -0.000854771 -0.00681002)
(0.0341519 -0.000138468 -0.00577413)
(0.033655 0.000435409 -0.00505269)
(0.0332682 0.000957057 -0.00461624)
(0.0329421 0.00149558 -0.00445337)
(0.0326397 0.00211655 -0.00457701)
(0.0323295 0.00289096 -0.00503537)
(0.0319661 0.00390644 -0.00593397)
(0.0313929 0.00527405 -0.00745585)
(0.0302053 0.00708741 -0.00968697)
(0.0285075 0.00869521 -0.0103584)
(0.0491298 -0.00388377 -0.0107519)
(0.0454236 -0.00428754 -0.0139768)
(0.041423 -0.00306589 -0.012384)
(0.0385716 -0.00187527 -0.0101901)
(0.0367207 -0.0009638 -0.00830327)
(0.035493 -0.000283314 -0.00683383)
(0.0346693 0.000250484 -0.00573729)
(0.0341083 0.000712922 -0.00496071)
(0.0337197 0.00116707 -0.0044615)
(0.033445 0.00166469 -0.00421689)
(0.0332497 0.00225808 -0.00422406)
(0.0331144 0.00300769 -0.00450634)
(0.0330201 0.00399225 -0.00512693)
(0.0328782 0.00531754 -0.00619822)
(0.0323982 0.00708372 -0.00773279)
(0.0315919 0.00869141 -0.00793237)
(0.0506823 -0.00112325 -0.0109078)
(0.0467128 -0.00117897 -0.0141876)
(0.0423796 -0.000733846 -0.0125358)
(0.0392618 -0.000289523 -0.0102715)
(0.0372352 8.05214e-05 -0.00832683)
(0.0359 0.000396784 -0.00680985)
(0.0350239 0.000690754 -0.00567185)
(0.034457 0.000996922 -0.00484946)
(0.0340998 0.0013438 -0.00429357)
(0.0338936 0.00176064 -0.00397153)
(0.0338095 0.00228096 -0.00386615)
(0.033842 0.00294785 -0.00397698)
(0.034003 0.0038233 -0.00432483)
(0.0342828 0.0050021 -0.00494886)
(0.0345382 0.00661249 -0.00578917)
(0.0347627 0.00834908 -0.00551681)
(0.0117019 -0.00461557 -0.00562615)
(0.0150472 -0.00318164 -0.00675099)
(0.0182674 -0.0017482 -0.00618709)
(0.0200094 -0.000961552 -0.0053907)
(0.0208168 -0.000528815 -0.004657)
(0.0211428 -0.000276808 -0.00405479)
(0.021187 -0.000118026 -0.00360441)
(0.0210434 -6.7913e-06 -0.00331572)
(0.0207503 8.32021e-05 -0.00319993)
(0.0203068 0.000168944 -0.00327749)
(0.0196773 0.000264269 -0.00358492)
(0.0187794 0.000384527 -0.00418437)
(0.0174487 0.000552858 -0.00517386)
(0.0152832 0.000822432 -0.00667298)
(0.0116135 0.00129504 -0.00857062)
(0.00771436 0.00182612 -0.00858054)
(0.0220357 -0.00786544 -0.00755321)
(0.0246949 -0.0066349 -0.00963416)
(0.0274994 -0.00410171 -0.00891313)
(0.0292049 -0.00240504 -0.00775451)
(0.0300383 -0.00137104 -0.00667338)
(0.0303542 -0.000735401 -0.00578398)
(0.0303436 -0.000324058 -0.00511437)
(0.0301053 -3.273e-05 -0.00467555)
(0.0296781 0.000203492 -0.00448016)
(0.0290545 0.000428112 -0.00455418)
(0.0281823 0.000678804 -0.00494503)
(0.0269481 0.000997071 -0.00573401)
(0.0251339 0.00144162 -0.00704657)
(0.0222355 0.00211505 -0.00901574)
(0.0174458 0.00316402 -0.0113622)
(0.0123003 0.00429165 -0.0106294)
(0.0304684 -0.0101355 -0.00812949)
(0.0310462 -0.00956264 -0.0105645)
(0.0319167 -0.00632982 -0.0097291)
(0.0325105 -0.00386271 -0.00839197)
(0.0327484 -0.00224921 -0.00716286)
(0.0327255 -0.0012123 -0.00616348)
(0.0325165 -0.000520507 -0.0054136)
(0.0321618 -1.87764e-05 -0.00491604)
(0.0316682 0.000394885 -0.00467713)
(0.0310121 0.000794104 -0.00471834)
(0.0301361 0.0012437 -0.00508259)
(0.0289297 0.00181495 -0.00584551)
(0.0271912 0.00260374 -0.00712251)
(0.0244652 0.00375096 -0.00902362)
(0.0200307 0.00540109 -0.0112118)
(0.0153308 0.00692272 -0.0101823)
(0.0380115 -0.010268 -0.00858688)
(0.0367502 -0.0104317 -0.0112363)
(0.0356629 -0.00721711 -0.010256)
(0.0349535 -0.00451871 -0.00874428)
(0.0344176 -0.00265965 -0.00738315)
(0.0339331 -0.0014186 -0.00629223)
(0.033456 -0.000563579 -0.00547716)
(0.0329572 7.62498e-05 -0.00492756)
(0.0324043 0.000616547 -0.00464303)
(0.0317556 0.00115051 -0.00463329)
(0.0309503 0.00175936 -0.00493192)
(0.0298904 0.0025331 -0.00560146)
(0.028408 0.00358909 -0.00673767)
(0.0261295 0.00508448 -0.00842365)
(0.022465 0.00714109 -0.010316)
(0.0186419 0.00885258 -0.00918407)
(0.0443476 -0.00895326 -0.00901456)
(0.0417212 -0.00956 -0.0118493)
(0.039043 -0.0068054 -0.0107277)
(0.0371711 -0.00431974 -0.0090456)
(0.0358984 -0.00253562 -0.00755431)
(0.034957 -0.00130325 -0.00637196)
(0.0342114 -0.00042481 -0.00549028)
(0.0335711 0.000257319 -0.00488604)
(0.03297 0.000855799 -0.00454536)
(0.0323522 0.00146514 -0.00446993)
(0.0316546 0.00217178 -0.00468042)
(0.030795 0.00307271 -0.00522269)
(0.0296423 0.00429259 -0.00616955)
(0.0279062 0.00598951 -0.00757743)
(0.0251168 0.00825499 -0.00911918)
(0.022233 0.00999259 -0.00795389)
(0.0492345 -0.00679127 -0.00937383)
(0.0456665 -0.00747819 -0.0123663)
(0.0418274 -0.00539943 -0.0111274)
(0.0390521 -0.00342209 -0.00929807)
(0.0371823 -0.00195386 -0.00769111)
(0.0358621 -0.000904312 -0.00642478)
(0.0348937 -0.000122847 -0.00547889)
(0.0341437 0.000510856 -0.00481726)
(0.0335192 0.00109877 -0.00441659)
(0.032954 0.00172215 -0.00426699)
(0.0323882 0.00246217 -0.00437585)
(0.0317576 0.00341316 -0.00477108)
(0.0309688 0.00469806 -0.00550086)
(0.0298123 0.00647152 -0.00659524)
(0.0279205 0.00880858 -0.00775552)
(0.0259659 0.0105232 -0.00658431)
(0.0525438 -0.00412749 -0.00962928)
(0.0483881 -0.0045983 -0.0127345)
(0.0438022 -0.00329794 -0.0114104)
(0.0404247 -0.00201668 -0.00947169)
(0.038149 -0.00103134 -0.0077763)
(0.0365736 -0.000291702 -0.0064428)
(0.0354583 0.000293631 -0.00544014)
(0.0346459 0.000808202 -0.00472702)
(0.034032 0.00132462 -0.00426731)
(0.0335416 0.00190507 -0.00404123)
(0.0331228 0.00261646 -0.00404331)
(0.0327328 0.00354191 -0.00428307)
(0.0323193 0.0047961 -0.00478294)
(0.031757 0.00653308 -0.00554566)
(0.0307733 0.00884739 -0.00630703)
(0.0297537 0.0106116 -0.00513822)
(0.0542117 -0.00119716 -0.00975934)
(0.0497759 -0.00126989 -0.0129175)
(0.0448336 -0.000794751 -0.0115436)
(0.0411688 -0.000314841 -0.00954243)
(0.038705 8.78181e-05 -0.0077945)
(0.0370156 0.000435403 -0.00641678)
(0.0358483 0.000762208 -0.0053756)
(0.0350375 0.00110916 -0.00461898)
(0.034469 0.00150973 -0.0041055)
(0.0340714 0.0020014 -0.00380668)
(0.0338036 0.00263 -0.00370514)
(0.0336469 0.00345866 -0.00379276)
(0.0335973 0.00458331 -0.00406577)
(0.0336331 0.00615111 -0.00449718)
(0.0336303 0.00831602 -0.00486044)
(0.0337648 0.0103641 -0.00371935)
(0.0122768 -0.00488085 -0.00499204)
(0.0157144 -0.00337153 -0.00601857)
(0.0189748 -0.00185383 -0.00554347)
(0.02067 -0.00101921 -0.00485422)
(0.0213802 -0.000559577 -0.00421375)
(0.0215867 -0.000291598 -0.00368505)
(0.0215002 -0.000122214 -0.00328785)
(0.0212171 -2.67838e-06 -0.00303185)
(0.020772 9.56431e-05 -0.00292636)
(0.0201556 0.000191119 -0.00298611)
(0.0193202 0.000299668 -0.00323384)
(0.018169 0.000439665 -0.00370177)
(0.0165308 0.000639346 -0.00442594)
(0.01405 0.000958353 -0.00540959)
(0.0102751 0.00149606 -0.00640213)
(0.00665369 0.00206083 -0.00570041)
(0.0231727 -0.00829923 -0.00667019)
(0.0258389 -0.00702982 -0.00857009)
(0.0285982 -0.00435188 -0.00797493)
(0.0301923 -0.00255134 -0.00697529)
(0.0308703 -0.00145216 -0.0060326)
(0.0310091 -0.000775442 -0.00525211)
(0.0308104 -0.000336095 -0.00466161)
(0.0303744 -2.26758e-05 -0.00427247)
(0.0297342 0.000235199 -0.00409519)
(0.0288706 0.000485018 -0.0041484)
(0.0277151 0.000769439 -0.00446121)
(0.0261357 0.00113654 -0.00507493)
(0.0239082 0.00165413 -0.00603295)
(0.0205965 0.00243276 -0.00732033)
(0.0156987 0.00360007 -0.0085171)
(0.0110024 0.00472282 -0.0070927)
(0.0320963 -0.0106758 -0.00714229)
(0.0325541 -0.0101275 -0.00937199)
(0.0332542 -0.00671557 -0.0086902)
(0.0336556 -0.00409799 -0.00753974)
(0.0336895 -0.00238239 -0.00646938)
(0.0334581 -0.00127779 -0.00559294)
(0.0330394 -0.000538061 -0.0049318)
(0.032472 3.16043e-06 -0.00449063)
(0.0317548 0.000454545 -0.00427448)
(0.0308517 0.000898656 -0.00429822)
(0.0296894 0.00140817 -0.00458706)
(0.0281401 0.00206447 -0.00517761)
(0.0259985 0.00297565 -0.00610576)
(0.0228815 0.00428902 -0.00734149)
(0.0183702 0.00610754 -0.00842908)
(0.0141428 0.00755668 -0.00679464)
(0.0400862 -0.0108011 -0.00751036)
(0.0386027 -0.0110433 -0.00994133)
(0.0372284 -0.00765605 -0.00914446)
(0.0362424 -0.00479364 -0.00784612)
(0.0354516 -0.00281648 -0.00666189)
(0.0347286 -0.00149367 -0.00570563)
(0.0340258 -0.000578599 -0.00498709)
(0.0333065 0.000112152 -0.00449966)
(0.0325298 0.000703623 -0.00424319)
(0.0316424 0.00129875 -0.00422233)
(0.0305672 0.00198919 -0.00445531)
(0.0291916 0.00287766 -0.00497)
(0.0273462 0.00409574 -0.0057915)
(0.0247256 0.00580578 -0.00687972)
(0.021009 0.00807171 -0.00779304)
(0.0176178 0.00966554 -0.00613901)
(0.0467994 -0.00940945 -0.0078569)
(0.0438783 -0.0101177 -0.0104601)
(0.0408203 -0.00721899 -0.00954972)
(0.0385978 -0.00458232 -0.00810655)
(0.0370233 -0.0026841 -0.00680979)
(0.0358155 -0.00136949 -0.00577363)
(0.0348293 -0.000428103 -0.00499631)
(0.0339649 0.000309711 -0.00446032)
(0.033145 0.00096742 -0.0041542)
(0.0323015 0.00164853 -0.0040761)
(0.0313578 0.00245138 -0.00423457)
(0.0302194 0.00348725 -0.00464673)
(0.028755 0.00489646 -0.00532611)
(0.0267338 0.00684212 -0.00622606)
(0.0239103 0.00934864 -0.00694067)
(0.0213935 0.0109459 -0.00534113)
(0.0519773 -0.00713309 -0.0081495)
(0.0480664 -0.00791355 -0.0108979)
(0.0437809 -0.005728 -0.00989288)
(0.0405975 -0.00363008 -0.00832425)
(0.0383881 -0.00206683 -0.00692726)
(0.0367792 -0.000945658 -0.00581747)
(0.0355599 -0.000105204 -0.00498329)
(0.0345847 0.000582884 -0.00439641)
(0.0337488 0.00123111 -0.00403708)
(0.0329748 0.00193048 -0.00389436)
(0.0321912 0.0027738 -0.00396705)
(0.0313243 0.00387015 -0.00426089)
(0.0302812 0.00535923 -0.00477755)
(0.0289008 0.0074023 -0.00546573)
(0.0269899 0.0100053 -0.00596666)
(0.0253268 0.0115775 -0.0044546)
(0.0554839 -0.00433453 -0.00835796)
(0.0509558 -0.00486701 -0.0112095)
(0.0458811 -0.00349995 -0.0101355)
(0.0420573 -0.00213957 -0.00847336)
(0.0394169 -0.00108876 -0.00699946)
(0.0375393 -0.000295895 -0.00583052)
(0.0361674 0.000336318 -0.00494615)
(0.0351314 0.000898553 -0.00431314)
(0.0343167 0.0014718 -0.00390134)
(0.033637 0.00212665 -0.00369195)
(0.0330312 0.00294081 -0.0036744)
(0.0324502 0.00401187 -0.00384299)
(0.0318441 0.0054722 -0.00418702)
(0.0311251 0.00748675 -0.00465085)
(0.0301436 0.01009 -0.00492885)
(0.0293413 0.0117441 -0.00351768)
(0.0572511 -0.00125911 -0.00846388)
(0.0524292 -0.00134726 -0.0113638)
(0.0469781 -0.000846309 -0.0102488)
(0.0428494 -0.000334968 -0.00853296)
(0.0400103 9.70323e-05 -0.00701302)
(0.0380132 0.000473282 -0.00580494)
(0.0365897 0.000830274 -0.00488583)
(0.0355623 0.00121497 -0.00421381)
(0.0348055 0.00166481 -0.00375415)
(0.0342388 0.00222397 -0.00348121)
(0.033815 0.0029474 -0.00337587)
(0.0335129 0.003911 -0.0034215)
(0.033335 0.00522794 -0.00359468)
(0.0332916 0.00706128 -0.0038343)
(0.0333434 0.00952795 -0.00389367)
(0.0336639 0.0115613 -0.00261847)
(0.0127577 -0.00510223 -0.00423995)
(0.0162758 -0.00353122 -0.00513073)
(0.0195744 -0.00194318 -0.00474434)
(0.0212338 -0.00106815 -0.00417098)
(0.0218637 -0.000585725 -0.00363446)
(0.0219695 -0.000304115 -0.00318931)
(0.021772 -0.000125611 -0.00285309)
(0.0213705 1.09981e-06 -0.00263416)
(0.0207983 0.000106641 -0.00253924)
(0.0200427 0.000210412 -0.00257724)
(0.0190523 0.000329841 -0.00275946)
(0.0177307 0.000485116 -0.00309756)
(0.0159207 0.000706802 -0.00359435)
(0.0133236 0.00105569 -0.00421303)
(0.00962603 0.00162612 -0.00473234)
(0.0062415 0.00220732 -0.00400291)
(0.0241234 -0.00866024 -0.00564364)
(0.0268004 -0.00736187 -0.007293)
(0.0295285 -0.00456348 -0.00681772)
(0.0310341 -0.00267551 -0.00598832)
(0.0315838 -0.00152108 -0.00519933)
(0.0315737 -0.000809292 -0.00454245)
(0.0312151 -0.000345865 -0.00404274)
(0.0306114 -1.3338e-05 -0.00371026)
(0.0297931 0.000263135 -0.00355245)
(0.0287358 0.000534222 -0.00358038)
(0.0273664 0.000846108 -0.00380804)
(0.0255539 0.00125077 -0.00424948)
(0.0230943 0.00182005 -0.00490471)
(0.0196315 0.00266472 -0.00571091)
(0.014856 0.00389439 -0.00631356)
(0.0105199 0.0049984 -0.0049983)
(0.0334573 -0.0111246 -0.0060181)
(0.0338207 -0.0106022 -0.00795795)
(0.0343857 -0.00704177 -0.00741907)
(0.034631 -0.0042976 -0.00646669)
(0.0344959 -0.00249542 -0.00557179)
(0.0340892 -0.00133301 -0.00483459)
(0.0334926 -0.000552081 -0.00427532)
(0.0327446 2.31429e-05 -0.00389857)
(0.0318403 0.000506937 -0.00370777)
(0.0307375 0.000988763 -0.00371051)
(0.0293585 0.00154678 -0.00391769)
(0.0275771 0.00226826 -0.00433975)
(0.0252097 0.00326633 -0.0049714)
(0.0219542 0.004686 -0.00573973)
(0.0175812 0.00659547 -0.00626512)
(0.0137266 0.00796914 -0.0047914)
(0.0418211 -0.0112433 -0.00630536)
(0.0401585 -0.0115572 -0.00842333)
(0.0385521 -0.00802719 -0.00779572)
(0.0373395 -0.0050268 -0.00672248)
(0.0363371 -0.00294942 -0.00573313)
(0.0354135 -0.00155669 -0.00492917)
(0.0345192 -0.000589898 -0.00432163)
(0.0336128 0.000144816 -0.00390616)
(0.0326485 0.00078008 -0.00368118)
(0.0315674 0.00142651 -0.00364702)
(0.030287 0.00218291 -0.00380946)
(0.0286968 0.00315934 -0.0041734)
(0.0266484 0.00449292 -0.00472802)
(0.023911 0.00634128 -0.0053972)
(0.0203318 0.00871999 -0.00581416)
(0.0172852 0.0101942 -0.0043304)
(0.0488495 -0.00978726 -0.00657762)
(0.0456899 -0.010586 -0.00884683)
(0.042323 -0.0075686 -0.00813073)
(0.0398118 -0.00480484 -0.00693876)
(0.0379862 -0.00280965 -0.00585589)
(0.0365544 -0.00142456 -0.00498497)
(0.0353644 -0.000428744 -0.00432785)
(0.0343094 0.000357135 -0.00387122)
(0.0333054 0.0010655 -0.00360489)
(0.032278 0.0018068 -0.00352376)
(0.0311459 0.00268752 -0.00362697)
(0.0298167 0.00382715 -0.00391295)
(0.0281777 0.0053719 -0.00436567)
(0.0260627 0.00747898 -0.00490968)
(0.0233653 0.0101158 -0.00520746)
(0.0211467 0.0115676 -0.00377333)
(0.054271 -0.00741579 -0.00680859)
(0.050082 -0.00827888 -0.00920436)
(0.0454325 -0.00600546 -0.0084142)
(0.0419124 -0.00380596 -0.00711921)
(0.0394202 -0.0021618 -0.00595286)
(0.0375686 -0.000979044 -0.00502008)
(0.0361366 -8.7902e-05 -0.00431482)
(0.0349698 0.000647382 -0.0038154)
(0.0339555 0.00134746 -0.00350454)
(0.0330101 0.00211068 -0.00337046)
(0.0320581 0.00303779 -0.00340558)
(0.0310277 0.00424632 -0.00360172)
(0.0298417 0.00588244 -0.00393795)
(0.0283915 0.00810203 -0.00434164)
(0.026591 0.0108514 -0.00451338)
(0.0251708 0.0122714 -0.00315769)
(0.0579425 -0.00450535 -0.00697344)
(0.0531125 -0.00509199 -0.00945873)
(0.0476388 -0.00366999 -0.0086143)
(0.0434464 -0.00224279 -0.00724235)
(0.0405023 -0.00113607 -0.00601178)
(0.0383704 -0.000297478 -0.00502915)
(0.0367811 0.000375391 -0.00428189)
(0.0355551 0.000979236 -0.00374309)
(0.0345703 0.00160141 -0.00338822)
(0.0337338 0.00231888 -0.00319948)
(0.0329815 0.00321665 -0.00316298)
(0.0322663 0.00440056 -0.00326398)
(0.0315517 0.00601027 -0.00347659)
(0.0307901 0.00820827 -0.0037317)
(0.029907 0.0109748 -0.00377309)
(0.0292917 0.0124972 -0.00251026)
(0.059793 -0.00130959 -0.00705703)
(0.0546579 -0.00141111 -0.00958426)
(0.0487914 -0.000888603 -0.00870719)
(0.0442793 -0.000350465 -0.00729074)
(0.0411276 0.000106869 -0.00602154)
(0.0388722 0.000508015 -0.005006)
(0.0372319 0.000891777 -0.00422874)
(0.03602 0.00130931 -0.00365692)
(0.0351031 0.00180163 -0.00326194)
(0.0343952 0.00241777 -0.00302107)
(0.0338469 0.00321865 -0.00291478)
(0.0334404 0.0042874 -0.00292222)
(0.0331906 0.00574459 -0.00301233)
(0.0331396 0.00775493 -0.00311924)
(0.0332995 0.0103967 -0.00303618)
(0.0337791 0.0123649 -0.00190165)
(0.0131437 -0.00527955 -0.00339364)
(0.0167282 -0.00365995 -0.00411789)
(0.0200602 -0.00201551 -0.0038194)
(0.0216928 -0.00110785 -0.00336811)
(0.0222592 -0.000606947 -0.00294339)
(0.0222842 -0.000314228 -0.00258944)
(0.0219971 -0.000128253 -0.00232066)
(0.0215006 4.35216e-06 -0.00214357)
(0.0208282 0.000115762 -0.00206243)
(0.0199666 0.00022614 -0.00208179)
(0.0188653 0.000353915 -0.00220557)
(0.0174338 0.000520266 -0.00243435)
(0.0155312 0.000756707 -0.00275767)
(0.0128999 0.00112388 -0.00313348)
(0.00929506 0.00171303 -0.0033998)
(0.00606285 0.00230258 -0.00279913)
(0.0248858 -0.00894857 -0.00450392)
(0.0275745 -0.00762928 -0.00584569)
(0.0302815 -0.00473464 -0.00548404)
(0.0317191 -0.00277617 -0.00483246)
(0.0321671 -0.00157696 -0.00420828)
(0.0320375 -0.000836622 -0.00368616)
(0.0315502 -0.000353489 -0.00328683)
(0.0308117 -5.20334e-06 -0.00301824)
(0.0298526 0.000286222 -0.00288495)
(0.0286476 0.00057415 -0.00289237)
(0.0271247 0.000907042 -0.00304482)
(0.0251611 0.00133901 -0.00334182)
(0.0225758 0.00194344 -0.0037665)
(0.0190701 0.00282956 -0.00425296)
(0.0144308 0.00409508 -0.00454379)
(0.0103236 0.00518249 -0.00350239)
(0.0345489 -0.0114823 -0.00478708)
(0.03484 -0.0109843 -0.00636783)
(0.035301 -0.00730546 -0.00596134)
(0.0354242 -0.00445931 -0.00521453)
(0.0351548 -0.00258699 -0.00450719)
(0.0346074 -0.00137753 -0.00392155)
(0.0338675 -0.000562943 -0.00347484)
(0.0329743 3.99465e-05 -0.00317071)
(0.0319218 0.000550051 -0.00301115)
(0.0306664 0.00106172 -0.00299835)
(0.0291315 0.00165678 -0.00313436)
(0.0271993 0.00242572 -0.00341609)
(0.0247099 0.00348338 -0.00382299)
(0.0214191 0.00497078 -0.00428228)
(0.0171919 0.00693265 -0.00451849)
(0.0135744 0.00824975 -0.00335946)
(0.0432124 -0.0115951 -0.00500129)
(0.0414104 -0.0119705 -0.00672906)
(0.0396227 -0.00832719 -0.00625701)
(0.0382313 -0.00521565 -0.00541636)
(0.0370602 -0.00305702 -0.00463487)
(0.0359756 -0.00160733 -0.00399651)
(0.0349268 -0.000598259 -0.00351157)
(0.0338699 0.000172189 -0.00317702)
(0.0327568 0.000842991 -0.00299023)
(0.031527 0.00152999 -0.00294878)
(0.0300982 0.00233679 -0.00305108)
(0.0283681 0.00337741 -0.00329066)
(0.0262103 0.00479055 -0.00364421)
(0.0234473 0.00672751 -0.00403826)
(0.0200094 0.00917053 -0.00420573)
(0.0171842 0.0105542 -0.00303654)
(0.0504938 -0.0100876 -0.00520561)
(0.0471477 -0.0109626 -0.00705749)
(0.0435383 -0.00785113 -0.00651937)
(0.0407984 -0.00498494 -0.00558631)
(0.0387724 -0.00291107 -0.00473126)
(0.0371606 -0.00146845 -0.00403993)
(0.035806 -0.000428049 -0.00351563)
(0.0345975 0.00039717 -0.0031484)
(0.0334471 0.00114637 -0.00292923)
(0.0322776 0.00193523 -0.00285163)
(0.0310083 0.00287549 -0.00290964)
(0.0295538 0.00409101 -0.00309304)
(0.0278209 0.00572951 -0.00337648)
(0.025689 0.00794043 -0.00368897)
(0.0231203 0.0106511 -0.00378324)
(0.0210961 0.01199 -0.00264718)
(0.0561106 -0.00764026 -0.00537969)
(0.051704 -0.00857242 -0.00733483)
(0.0467681 -0.00622948 -0.00674126)
(0.0429807 -0.00394806 -0.00572788)
(0.0402627 -0.00223815 -0.00480707)
(0.038216 -0.00100505 -0.00406672)
(0.0366122 -7.24022e-05 -0.00350415)
(0.0352908 0.000701559 -0.003103)
(0.034134 0.00144354 -0.00284896)
(0.0330555 0.00225725 -0.00273068)
(0.0319797 0.00324852 -0.00273785)
(0.0308406 0.00453934 -0.00285663)
(0.0295778 0.00627759 -0.00306007)
(0.0281193 0.00861138 -0.00328147)
(0.0264308 0.0114442 -0.00329962)
(0.0251719 0.0127431 -0.00221899)
(0.0599145 -0.00464071 -0.00550414)
(0.054848 -0.0052724 -0.00753207)
(0.0490603 -0.00380689 -0.0068977)
(0.0445752 -0.00232571 -0.00582421)
(0.0413882 -0.00117345 -0.00485271)
(0.0390519 -0.000297416 -0.00407279)
(0.0372871 0.00040887 -0.00347689)
(0.0359076 0.00104687 -0.00304443)
(0.0347863 0.00170865 -0.00275588)
(0.0338271 0.00247569 -0.00259563)
(0.0329655 0.00343762 -0.00254934)
(0.0321598 0.00470457 -0.00259968)
(0.031387 0.00641847 -0.00271823)
(0.0306276 0.00873598 -0.00284335)
(0.029842 0.0115976 -0.00278377)
(0.0293538 0.013011 -0.00177159)
(0.0618316 -0.00134917 -0.00556713)
(0.0564514 -0.00146167 -0.00762911)
(0.050258 -0.0009219 -0.00696993)
(0.0454414 -0.000361955 -0.00586153)
(0.0420397 0.000116188 -0.00485942)
(0.0395767 0.00053789 -0.0040533)
(0.0377613 0.000943862 -0.00343336)
(0.0364001 0.00138836 -0.00297468)
(0.0353543 0.0019151 -0.0026547)
(0.0345348 0.00257643 -0.00245441)
(0.0338923 0.00343692 -0.002356)
(0.0334138 0.00458336 -0.00233898)
(0.033126 0.00613886 -0.00237339)
(0.0330932 0.00826532 -0.00240273)
(0.0333513 0.0110119 -0.00227137)
(0.0339421 0.0129168 -0.001359)
(0.0134341 -0.00541317 -0.00247509)
(0.0170693 -0.00375783 -0.00300772)
(0.0204276 -0.00207074 -0.00279695)
(0.0220415 -0.00113826 -0.00247224)
(0.0225609 -0.000623246 -0.00216498)
(0.0225253 -0.00032202 -0.00190803)
(0.0221708 -0.000130307 -0.00171199)
(0.0216033 6.80485e-06 -0.00158142)
(0.0208572 0.000122684 -0.00151873)
(0.0199202 0.000237968 -0.00152576)
(0.0187439 0.000371736 -0.00160274)
(0.0172442 0.000545686 -0.00174608)
(0.0152931 0.000791706 -0.00194323)
(0.0126578 0.00117014 -0.00216086)
(0.00912446 0.0017706 -0.00229321)
(0.00598332 0.00236438 -0.0018588)
(0.0254591 -0.00916463 -0.0032793)
(0.0281579 -0.00783132 -0.00426811)
(0.0308511 -0.00486434 -0.00401482)
(0.0322393 -0.00285255 -0.00354611)
(0.0326119 -0.0016194 -0.00309453)
(0.0323927 -0.000857353 -0.00271542)
(0.0318086 -0.000359186 -0.00242415)
(0.0309693 1.14872e-06 -0.00222629)
(0.0299066 0.000303775 -0.00212426)
(0.028596 0.000604112 -0.00212002)
(0.0269691 0.000952023 -0.00221318)
(0.0249113 0.00140274 -0.00239796)
(0.0222598 0.00203014 -0.00265555)
(0.0187508 0.002942 -0.00293478)
(0.0142149 0.00422888 -0.00306721)
(0.010244 0.00530417 -0.00232788)
(0.0353691 -0.0117494 -0.00347571)
(0.0356078 -0.011272 -0.00464332)
(0.0359931 -0.00750465 -0.00436029)
(0.0360263 -0.00458161 -0.00382392)
(0.0356569 -0.00265623 -0.00331275)
(0.035004 -0.00141107 -0.00288785)
(0.0341564 -0.000570919 -0.00256223)
(0.0331545 5.29337e-05 -0.00233838)
(0.0319926 0.000582803 -0.00221734)
(0.0306281 0.00111643 -0.00219837)
(0.0289871 0.00173794 -0.00227955)
(0.0269607 0.00253953 -0.00245337)
(0.0244073 0.00363637 -0.00269857)
(0.0211177 0.00516615 -0.00295945)
(0.0169999 0.00715904 -0.00305517)
(0.0135242 0.00843783 -0.00223456)
(0.0442575 -0.0118577 -0.00362291)
(0.0423531 -0.0122818 -0.00490102)
(0.0404321 -0.00855382 -0.00457264)
(0.038908 -0.00535846 -0.00396931)
(0.037611 -0.00313833 -0.00340493)
(0.0364055 -0.00164539 -0.00294203)
(0.0352404 -0.000604182 -0.00258883)
(0.0340708 0.000193292 -0.00234327)
(0.0328478 0.000890821 -0.00220246)
(0.0315111 0.00160768 -0.00216317)
(0.0299809 0.00245049 -0.00222105)
(0.028163 0.00353537 -0.00236656)
(0.0259482 0.00500104 -0.00257713)
(0.0231908 0.00699369 -0.00279704)
(0.0198586 0.00947442 -0.00285007)
(0.017167 0.0107963 -0.00202033)
(0.0517288 -0.0103116 -0.00376442)
(0.0482453 -0.0112462 -0.00513535)
(0.044457 -0.00806454 -0.00476093)
(0.0415469 -0.00512109 -0.00409144)
(0.0393709 -0.0029876 -0.00347414)
(0.037624 -0.00150125 -0.00297299)
(0.0361455 -0.000426899 -0.00259131)
(0.0348218 0.000428177 -0.00232209)
(0.0335628 0.00120798 -0.00215819)
(0.0322908 0.00203181 -0.00209349)
(0.0309271 0.00301467 -0.00212091)
(0.0293934 0.00428262 -0.0022289)
(0.0276116 0.00598321 -0.00239417)
(0.0254885 0.00825957 -0.00256323)
(0.0230164 0.0110133 -0.00257174)
(0.021111 0.0122738 -0.00176164)
(0.0574922 -0.00780749 -0.00388548)
(0.0529252 -0.00879327 -0.00533323)
(0.047778 -0.00639858 -0.00492014)
(0.0437913 -0.00405534 -0.00419309)
(0.0409041 -0.00229555 -0.00352841)
(0.0387108 -0.00102414 -0.00299181)
(0.0369776 -5.98787e-05 -0.0025824)
(0.0355399 0.000743455 -0.00228872)
(0.0342771 0.00151687 -0.00209993)
(0.0331018 0.0023677 -0.00200667)
(0.03194 0.00340493 -0.00199919)
(0.0307317 0.00475271 -0.00206405)
(0.0294289 0.0065588 -0.0021777)
(0.0279819 0.00896481 -0.00229014)
(0.0263782 0.0118464 -0.002253)
(0.0252194 0.0130596 -0.00147794)
(0.0613954 -0.00474139 -0.00397216)
(0.0561547 -0.00540793 -0.0054739)
(0.0501352 -0.00391001 -0.0050323)
(0.0454315 -0.00238803 -0.00426211)
(0.0420626 -0.00120117 -0.00356085)
(0.0395727 -0.000296589 -0.0029956)
(0.0376755 0.000435195 -0.0025621)
(0.0361804 0.00109915 -0.00224577)
(0.0349572 0.00179065 -0.00203234)
(0.0339081 0.00259418 -0.00190962)
(0.0329699 0.00360211 -0.00186546)
(0.0321057 0.00492666 -0.00188466)
(0.0313028 0.00670998 -0.00194358)
(0.0305587 0.0091034 -0.00199626)
(0.0298472 0.0120213 -0.00191307)
(0.0294395 0.0133558 -0.00118285)
(0.0633626 -0.00137834 -0.00401598)
(0.0578018 -0.00149927 -0.00554295)
(0.051367 -0.000946533 -0.00508388)
(0.0463231 -0.000370019 -0.00428856)
(0.0427341 0.000124029 -0.00356515)
(0.0401149 0.000561492 -0.00298087)
(0.0381676 0.000984488 -0.00252989)
(0.0366938 0.00144949 -0.00219464)
(0.0355512 0.00200207 -0.00195879)
(0.0346494 0.00269668 -0.00180797)
(0.0339399 0.0036 -0.00172804)
(0.033414 0.00480048 -0.00170232)
(0.0331072 0.00642167 -0.00170702)
(0.0330971 0.00862221 -0.00170052)
(0.0334289 0.0114318 -0.00157622)
(0.0340924 0.0132881 -0.000914585)
(0.0136304 -0.00550563 -0.00150036)
(0.0172979 -0.00382808 -0.0018183)
(0.0206728 -0.00211071 -0.00169763)
(0.0222758 -0.00116054 -0.00150377)
(0.0227644 -0.00063548 -0.00131862)
(0.0226884 -0.000328134 -0.00116348)
(0.0222892 -0.000132272 -0.00104474)
(0.0216746 8.07428e-06 -0.000965042)
(0.0208803 0.000127109 -0.000925552)
(0.0198949 0.000245766 -0.000926807)
(0.0186726 0.000383531 -0.00096797)
(0.0171336 0.000562384 -0.00104551)
(0.0151582 0.000814394 -0.00115038)
(0.0125264 0.0011998 -0.00126288)
(0.00903979 0.00180736 -0.00132573)
(0.00595053 0.00240311 -0.00106184)
(0.0258441 -0.00930912 -0.00199126)
(0.0285492 -0.00796929 -0.00258887)
(0.0312328 -0.00495277 -0.00244066)
(0.0325894 -0.00290469 -0.00215883)
(0.0329121 -0.00164856 -0.00188579)
(0.0326333 -0.000871758 -0.00165621)
(0.0319846 -0.000363331 -0.00147932)
(0.0310785 5.2808e-06 -0.00135827)
(0.0299479 0.000315359 -0.00129411)
(0.0285697 0.000623875 -0.00128716)
(0.0268787 0.000981469 -0.00133581)
(0.0247665 0.00144392 -0.0014347)
(0.0220817 0.00208525 -0.00157046)
(0.018579 0.00301236 -0.00171273)
(0.01411 0.00431184 -0.00176923)
(0.0102162 0.00537909 -0.00132626)
(0.0359163 -0.0119251 -0.00210082)
(0.0361208 -0.0114646 -0.00281273)
(0.0364568 -0.00763767 -0.00264669)
(0.036431 -0.00466318 -0.00232506)
(0.0359955 -0.00270246 -0.00201707)
(0.0352724 -0.00143345 -0.00176036)
(0.034353 -0.000576193 -0.00156298)
(0.0332789 6.15985e-05 -0.00142626)
(0.0320451 0.000604631 -0.00135084)
(0.0306107 0.0011526 -0.00133508)
(0.0289042 0.001791 -0.00137661)
(0.0268232 0.00261287 -0.00146907)
(0.0242377 0.0037333 -0.00159776)
(0.0209571 0.00528791 -0.00172963)
(0.0169097 0.0072986 -0.00176492)
(0.0135141 0.00855351 -0.00127526)
(0.044953 -0.0120312 -0.00218402)
(0.042982 -0.0124904 -0.00296745)
(0.0409745 -0.00870554 -0.00277335)
(0.0393627 -0.00545392 -0.00241149)
(0.0379821 -0.00319264 -0.00207194)
(0.0366961 -0.0016707 -0.00179262)
(0.0354534 -0.000607946 -0.00157883)
(0.034209 0.000207501 -0.00142942)
(0.0329138 0.000922851 -0.00134199)
(0.0315083 0.00165924 -0.00131422)