/*--------------------------------*- C++ -*----------------------------------*\
| =========                 |                                                 |
| \\      /  F ield         | foam-extend: Open Source CFD                    |
|  \\    /   O peration     | Version:     3.1                                |
|   \\  /    A nd           | Web:         http://www.extend-project.de       |
|    \\/     M anipulation  |                                                 |
\*---------------------------------------------------------------------------*/
FoamFile
{
    version     2.0;
    format      ascii;
    class       volVectorField;
    location    "0.0005";
    object      D;
}
// * * * * * * * * * * * * * * * * * * * * * * * * * * * * * * * * * * * * * //

dimensions      [0 1 0 0 0 0 0];

internalField   nonuniform List<vector> 
6400
(
(5.86025e-06 2.12819e-07 3.12174e-06)
(4.88011e-06 1.79589e-07 9.29632e-07)
(4.43814e-06 1.62351e-07 -5.23793e-07)
(4.46504e-06 1.59602e-07 -2.50804e-06)
(5.81855e-06 6.78265e-07 3.1219e-06)
(4.84686e-06 5.6554e-07 9.31246e-07)
(4.40799e-06 5.14604e-07 -5.21796e-07)
(4.43727e-06 5.17997e-07 -2.50564e-06)
(5.74536e-06 1.1362e-06 3.1203e-06)
(4.78605e-06 9.46738e-07 9.30686e-07)
(4.35277e-06 8.61812e-07 -5.21882e-07)
(4.3819e-06 8.68448e-07 -2.5053e-06)
(5.63734e-06 1.58503e-06 3.11929e-06)
(4.69608e-06 1.32087e-06 9.3029e-07)
(4.27085e-06 1.20236e-06 -5.21826e-07)
(4.29926e-06 1.21158e-06 -2.50473e-06)
(5.49473e-06 2.02294e-06 3.11864e-06)
(4.57714e-06 1.68593e-06 9.30169e-07)
(4.16245e-06 1.53453e-06 -5.21503e-07)
(4.18987e-06 1.54605e-06 -2.50381e-06)
(5.31831e-06 2.44782e-06 3.11822e-06)
(4.42992e-06 2.04e-06 9.30229e-07)
(4.02829e-06 1.85656e-06 -5.21002e-07)
(4.05453e-06 1.87018e-06 -2.50266e-06)
(5.10914e-06 2.85741e-06 3.11801e-06)
(4.25539e-06 2.38119e-06 9.30421e-07)
(3.86932e-06 2.16671e-06 -5.20408e-07)
(3.89425e-06 2.18219e-06 -2.50144e-06)
(4.86846e-06 3.24942e-06 3.11807e-06)
(4.05464e-06 2.70756e-06 9.30721e-07)
(3.68659e-06 2.46323e-06 -5.19796e-07)
(3.71017e-06 2.48033e-06 -2.50028e-06)
(4.59767e-06 3.62156e-06 3.11845e-06)
(3.8289e-06 3.01723e-06 9.31114e-07)
(3.4813e-06 2.74442e-06 -5.19244e-07)
(3.50357e-06 2.76295e-06 -2.49933e-06)
(4.2982e-06 3.97164e-06 3.1192e-06)
(3.57955e-06 3.30837e-06 9.31531e-07)
(3.25479e-06 3.00869e-06 -5.18864e-07)
(3.27583e-06 3.02852e-06 -2.49877e-06)
(3.97164e-06 4.2982e-06 3.1192e-06)
(3.30838e-06 3.57955e-06 9.31531e-07)
(3.00869e-06 3.25479e-06 -5.18864e-07)
(3.02852e-06 3.27583e-06 -2.49877e-06)
(3.62156e-06 4.59766e-06 3.11845e-06)
(3.01723e-06 3.8289e-06 9.31114e-07)
(2.74442e-06 3.4813e-06 -5.19244e-07)
(2.76295e-06 3.50357e-06 -2.49933e-06)
(3.24942e-06 4.86846e-06 3.11806e-06)
(2.70756e-06 4.05464e-06 9.30721e-07)
(2.46323e-06 3.68659e-06 -5.19796e-07)
(2.48033e-06 3.71017e-06 -2.50027e-06)
(2.85741e-06 5.10913e-06 3.11801e-06)
(2.38119e-06 4.25539e-06 9.30421e-07)
(2.16671e-06 3.86931e-06 -5.20408e-07)
(2.18219e-06 3.89425e-06 -2.50144e-06)
(2.44782e-06 5.31831e-06 3.11822e-06)
(2.04e-06 4.42992e-06 9.30229e-07)
(1.85656e-06 4.02829e-06 -5.21002e-07)
(1.87018e-06 4.05453e-06 -2.50266e-06)
(2.02294e-06 5.49473e-06 3.11864e-06)
(1.68593e-06 4.57714e-06 9.30168e-07)
(1.53453e-06 4.16245e-06 -5.21503e-07)
(1.54605e-06 4.18987e-06 -2.50381e-06)
(1.58503e-06 5.63734e-06 3.11929e-06)
(1.32087e-06 4.69608e-06 9.3029e-07)
(1.20236e-06 4.27085e-06 -5.21826e-07)
(1.21158e-06 4.29926e-06 -2.50473e-06)
(1.1362e-06 5.74536e-06 3.1203e-06)
(9.46738e-07 4.78605e-06 9.30685e-07)
(8.61811e-07 4.35277e-06 -5.21882e-07)
(8.68448e-07 4.3819e-06 -2.5053e-06)
(6.78266e-07 5.81855e-06 3.1219e-06)
(5.6554e-07 4.84686e-06 9.31246e-07)
(5.14604e-07 4.40799e-06 -5.21796e-07)
(5.17997e-07 4.43727e-06 -2.50564e-06)
(2.12819e-07 5.86025e-06 3.12174e-06)
(1.79589e-07 4.88011e-06 9.29631e-07)
(1.62351e-07 4.43814e-06 -5.23793e-07)
(1.59602e-07 4.46503e-06 -2.50804e-06)
(1.96036e-05 7.67422e-07 5.1921e-06)
(1.86261e-05 7.31481e-07 2.01495e-06)
(1.79155e-05 7.0532e-07 -6.77986e-07)
(1.74574e-05 6.91224e-07 -3.76253e-06)
(1.94741e-05 2.29961e-06 5.18267e-06)
(1.85044e-05 2.18743e-06 2.00632e-06)
(1.78008e-05 2.10666e-06 -6.8652e-07)
(1.73476e-05 2.05576e-06 -3.77111e-06)
(1.92297e-05 3.8184e-06 5.17917e-06)
(1.8272e-05 3.63039e-06 2.00367e-06)
(1.75775e-05 3.49499e-06 -6.88408e-07)
(1.71301e-05 3.40872e-06 -3.772e-06)
(1.88671e-05 5.31287e-06 5.1775e-06)
(1.79272e-05 5.0507e-06 2.00304e-06)
(1.72454e-05 4.86153e-06 -6.88051e-07)
(1.68062e-05 4.74072e-06 -3.77044e-06)
(1.83882e-05 6.77405e-06 5.17644e-06)
(1.74716e-05 6.43935e-06 2.00318e-06)
(1.68066e-05 6.19755e-06 -6.86795e-07)
(1.6378e-05 6.04293e-06 -3.76784e-06)
(1.77957e-05 8.19323e-06 5.17568e-06)
(1.6908e-05 7.78786e-06 2.00368e-06)
(1.62638e-05 7.49474e-06 -6.85117e-07)
(1.58486e-05 7.30705e-06 -3.76472e-06)
(1.70937e-05 9.56201e-06 5.17524e-06)
(1.62403e-05 9.08814e-06 2.00441e-06)
(1.5621e-05 8.74521e-06 -6.83258e-07)
(1.52217e-05 8.52533e-06 -3.76144e-06)
(1.62867e-05 1.08724e-05 5.17523e-06)
(1.5473e-05 1.03325e-05 2.00531e-06)
(1.48826e-05 9.94158e-06 -6.81423e-07)
(1.45019e-05 9.69055e-06 -3.75836e-06)
(1.53796e-05 1.21166e-05 5.17572e-06)
(1.46109e-05 1.15138e-05 2.00627e-06)
(1.40534e-05 1.10769e-05 -6.79863e-07)
(1.3694e-05 1.0796e-05 -3.75591e-06)
(1.43778e-05 1.32872e-05 5.17649e-06)
(1.36594e-05 1.26248e-05 2.00702e-06)
(1.31387e-05 1.21446e-05 -6.78905e-07)
(1.28033e-05 1.18354e-05 -3.7545e-06)
(1.32872e-05 1.43778e-05 5.17649e-06)
(1.26248e-05 1.36594e-05 2.00702e-06)
(1.21446e-05 1.31387e-05 -6.78905e-07)
(1.18354e-05 1.28033e-05 -3.7545e-06)
(1.21166e-05 1.53796e-05 5.17571e-06)
(1.15138e-05 1.46109e-05 2.00627e-06)
(1.10769e-05 1.40534e-05 -6.79863e-07)
(1.0796e-05 1.3694e-05 -3.75591e-06)
(1.08724e-05 1.62867e-05 5.17523e-06)
(1.03325e-05 1.5473e-05 2.00531e-06)
(9.94158e-06 1.48826e-05 -6.81423e-07)
(9.69054e-06 1.45019e-05 -3.75836e-06)
(9.56201e-06 1.70937e-05 5.17524e-06)
(9.08814e-06 1.62403e-05 2.00441e-06)
(8.74521e-06 1.5621e-05 -6.83258e-07)
(8.52533e-06 1.52217e-05 -3.76144e-06)
(8.19323e-06 1.77957e-05 5.17568e-06)
(7.78786e-06 1.6908e-05 2.00368e-06)
(7.49474e-06 1.62638e-05 -6.85117e-07)
(7.30705e-06 1.58486e-05 -3.76472e-06)
(6.77405e-06 1.83882e-05 5.17644e-06)
(6.43935e-06 1.74716e-05 2.00318e-06)
(6.19755e-06 1.68066e-05 -6.86795e-07)
(6.04293e-06 1.6378e-05 -3.76784e-06)
(5.31287e-06 1.88671e-05 5.1775e-06)
(5.0507e-06 1.79272e-05 2.00304e-06)
(4.86153e-06 1.72454e-05 -6.88051e-07)
(4.74072e-06 1.68062e-05 -3.77044e-06)
(3.8184e-06 1.92297e-05 5.17916e-06)
(3.63039e-06 1.8272e-05 2.00367e-06)
(3.49499e-06 1.75775e-05 -6.88408e-07)
(3.40872e-06 1.71301e-05 -3.772e-06)
(2.29961e-06 1.94741e-05 5.18267e-06)
(2.18743e-06 1.85043e-05 2.00632e-06)
(2.10666e-06 1.78008e-05 -6.8652e-07)
(2.05576e-06 1.73476e-05 -3.77111e-06)
(7.67422e-07 1.96036e-05 5.1921e-06)
(7.31481e-07 1.86261e-05 2.01495e-06)
(7.0532e-07 1.79155e-05 -6.77986e-07)
(6.91224e-07 1.74574e-05 -3.76253e-06)
(2.90955e-05 1.14463e-06 3.55697e-06)
(2.83183e-05 1.11757e-06 1.56477e-06)
(2.75355e-05 1.0896e-06 -2.93332e-07)
(2.67418e-05 1.06393e-06 -2.28172e-06)
(2.89109e-05 3.41861e-06 3.55149e-06)
(2.81372e-05 3.3309e-06 1.55876e-06)
(2.73589e-05 3.24256e-06 -2.99317e-07)
(2.65691e-05 3.15333e-06 -2.28674e-06)
(2.8549e-05 5.67105e-06 3.54883e-06)
(2.7784e-05 5.52297e-06 1.5564e-06)
(2.70148e-05 5.37424e-06 -3.01037e-07)
(2.62344e-05 5.22344e-06 -2.28733e-06)
(2.80096e-05 7.88728e-06 3.54732e-06)
(2.72583e-05 7.68031e-06 1.55585e-06)
(2.65029e-05 7.47219e-06 -3.00613e-07)
(2.57365e-05 7.26115e-06 -2.28571e-06)
(2.72965e-05 1.00541e-05 3.54628e-06)
(2.65633e-05 9.78949e-06 1.55612e-06)
(2.58263e-05 9.52324e-06 -2.99139e-07)
(2.50787e-05 9.25326e-06 -2.28283e-06)
(2.64142e-05 1.21586e-05 3.54551e-06)
(2.57037e-05 1.18376e-05 1.55683e-06)
(2.49897e-05 1.15145e-05 -2.97094e-07)
(2.42654e-05 1.1187e-05 -2.2792e-06)
(2.5369e-05 1.41882e-05 3.54504e-06)
(2.46857e-05 1.38122e-05 1.55783e-06)
(2.39991e-05 1.3434e-05 -2.94758e-07)
(2.3303e-05 1.30505e-05 -2.27523e-06)
(2.41679e-05 1.61311e-05 3.54499e-06)
(2.35163e-05 1.57019e-05 1.55903e-06)
(2.28619e-05 1.52702e-05 -2.9241e-07)
(2.21985e-05 1.48326e-05 -2.27141e-06)
(2.28191e-05 1.79762e-05 3.54542e-06)
(2.22037e-05 1.74958e-05 1.56024e-06)
(2.15859e-05 1.70129e-05 -2.90411e-07)
(2.09599e-05 1.65235e-05 -2.26831e-06)
(2.1331e-05 1.97128e-05 3.54609e-06)
(2.07564e-05 1.91839e-05 1.5611e-06)
(2.01798e-05 1.86525e-05 -2.89208e-07)
(1.95955e-05 1.81139e-05 -2.26654e-06)
(1.97128e-05 2.1331e-05 3.54609e-06)
(1.91839e-05 2.07564e-05 1.5611e-06)
(1.86525e-05 2.01798e-05 -2.89208e-07)
(1.81139e-05 1.95955e-05 -2.26654e-06)
(1.79762e-05 2.28191e-05 3.54542e-06)
(1.74958e-05 2.22037e-05 1.56024e-06)
(1.70129e-05 2.15859e-05 -2.90411e-07)
(1.65235e-05 2.09599e-05 -2.26831e-06)
(1.61311e-05 2.41679e-05 3.54498e-06)
(1.57019e-05 2.35163e-05 1.55902e-06)
(1.52702e-05 2.28619e-05 -2.9241e-07)
(1.48326e-05 2.21985e-05 -2.27141e-06)
(1.41882e-05 2.5369e-05 3.54504e-06)
(1.38122e-05 2.46856e-05 1.55783e-06)
(1.34339e-05 2.39991e-05 -2.94758e-07)
(1.30505e-05 2.3303e-05 -2.27523e-06)
(1.21586e-05 2.64142e-05 3.54551e-06)
(1.18376e-05 2.57037e-05 1.55682e-06)
(1.15145e-05 2.49897e-05 -2.97094e-07)
(1.1187e-05 2.42654e-05 -2.27919e-06)
(1.00541e-05 2.72965e-05 3.54628e-06)
(9.78949e-06 2.65633e-05 1.55612e-06)
(9.52324e-06 2.58263e-05 -2.99139e-07)
(9.25325e-06 2.50786e-05 -2.28283e-06)
(7.88728e-06 2.80096e-05 3.54731e-06)
(7.68031e-06 2.72583e-05 1.55585e-06)
(7.47219e-06 2.65029e-05 -3.00613e-07)
(7.26115e-06 2.57365e-05 -2.28571e-06)
(5.67105e-06 2.8549e-05 3.54883e-06)
(5.52297e-06 2.7784e-05 1.5564e-06)
(5.37424e-06 2.70148e-05 -3.01037e-07)
(5.22343e-06 2.62344e-05 -2.28732e-06)
(3.41861e-06 2.89109e-05 3.55149e-06)
(3.3309e-06 2.81372e-05 1.55876e-06)
(3.24256e-06 2.73589e-05 -2.99316e-07)
(3.15333e-06 2.65691e-05 -2.28673e-06)
(1.14463e-06 2.90955e-05 3.55697e-06)
(1.11757e-06 2.83183e-05 1.56477e-06)
(1.0896e-06 2.75354e-05 -2.93331e-07)
(1.06393e-06 2.67418e-05 -2.28172e-06)
(3.17882e-05 1.25016e-06 5.47943e-07)
(3.11281e-05 1.22739e-06 4.04414e-07)
(3.03806e-05 1.20097e-06 1.70787e-07)
(2.95419e-05 1.17419e-06 -1.99577e-08)
(3.15879e-05 3.73378e-06 5.48385e-07)
(3.09296e-05 3.66003e-06 4.04545e-07)
(3.0185e-05 3.5763e-06 1.71058e-07)
(2.93495e-05 3.48273e-06 -1.91171e-08)
(3.11915e-05 6.19347e-06 5.48231e-07)
(3.05402e-05 6.06905e-06 4.04601e-07)
(2.9804e-05 5.92793e-06 1.71432e-07)
(2.89783e-05 5.76933e-06 -1.82484e-08)
(3.06003e-05 8.61318e-06 5.47953e-07)
(2.99603e-05 8.43918e-06 4.0491e-07)
(2.92372e-05 8.24157e-06 1.72285e-07)
(2.84263e-05 8.01948e-06 -1.67596e-08)
(2.98182e-05 1.09784e-05 5.4771e-07)
(2.91934e-05 1.07557e-05 4.05494e-07)
(2.84877e-05 1.05027e-05 1.73598e-07)
(2.76966e-05 1.02186e-05 -1.46066e-08)
(2.88505e-05 1.32747e-05 5.47559e-07)
(2.82447e-05 1.30042e-05 4.06338e-07)
(2.7561e-05 1.26971e-05 1.753e-07)
(2.67946e-05 1.23524e-05 -1.1882e-08)
(2.77042e-05 1.54887e-05 5.47586e-07)
(2.71214e-05 1.51715e-05 4.07417e-07)
(2.6464e-05 1.48116e-05 1.77275e-07)
(2.57275e-05 1.44077e-05 -8.7933e-09)
(2.63876e-05 1.76078e-05 5.47894e-07)
(2.5832e-05 1.72449e-05 4.0866e-07)
(2.52055e-05 1.68338e-05 1.79313e-07)
(2.45038e-05 1.63726e-05 -5.70119e-09)
(2.49104e-05 1.96204e-05 5.48513e-07)
(2.43861e-05 1.92133e-05 4.09881e-07)
(2.37951e-05 1.87528e-05 1.81083e-07)
(2.31333e-05 1.82366e-05 -3.11688e-09)
(2.32828e-05 2.15155e-05 5.492e-07)
(2.2794e-05 2.10663e-05 4.10723e-07)
(2.22429e-05 2.05589e-05 1.82156e-07)
(2.16256e-05 1.99904e-05 -1.61281e-09)
(2.15155e-05 2.32828e-05 5.492e-07)
(2.10663e-05 2.2794e-05 4.10723e-07)
(2.05589e-05 2.22428e-05 1.82156e-07)
(1.99904e-05 2.16256e-05 -1.61266e-09)
(1.96204e-05 2.49104e-05 5.48513e-07)
(1.92133e-05 2.43861e-05 4.09881e-07)
(1.87528e-05 2.37951e-05 1.81083e-07)
(1.82366e-05 2.31333e-05 -3.11641e-09)
(1.76078e-05 2.63876e-05 5.47893e-07)
(1.72449e-05 2.58319e-05 4.08659e-07)
(1.68338e-05 2.52055e-05 1.79313e-07)
(1.63726e-05 2.45038e-05 -5.70043e-09)
(1.54887e-05 2.77042e-05 5.47585e-07)
(1.51715e-05 2.71214e-05 4.07417e-07)
(1.48116e-05 2.6464e-05 1.77275e-07)
(1.44077e-05 2.57274e-05 -8.79227e-09)
(1.32747e-05 2.88505e-05 5.47558e-07)
(1.30042e-05 2.82447e-05 4.06337e-07)
(1.26971e-05 2.7561e-05 1.75301e-07)
(1.23524e-05 2.67946e-05 -1.18807e-08)
(1.09784e-05 2.98182e-05 5.47708e-07)
(1.07557e-05 2.91934e-05 4.05493e-07)
(1.05027e-05 2.84877e-05 1.73598e-07)
(1.02185e-05 2.76965e-05 -1.46051e-08)
(8.61318e-06 3.06003e-05 5.47951e-07)
(8.43918e-06 2.99603e-05 4.04909e-07)
(8.24156e-06 2.92372e-05 1.72286e-07)
(8.01948e-06 2.84262e-05 -1.67579e-08)
(6.19347e-06 3.11915e-05 5.48229e-07)
(6.06905e-06 3.05402e-05 4.046e-07)
(5.92793e-06 2.9804e-05 1.71432e-07)
(5.76932e-06 2.89783e-05 -1.82465e-08)
(3.73378e-06 3.15879e-05 5.48383e-07)
(3.66003e-06 3.09296e-05 4.04544e-07)
(3.5763e-06 3.0185e-05 1.71058e-07)
(3.48272e-06 2.93495e-05 -1.91151e-08)
(1.25016e-06 3.17882e-05 5.47941e-07)
(1.22739e-06 3.11281e-05 4.04413e-07)
(1.20097e-06 3.03806e-05 1.70787e-07)
(1.17419e-06 2.95419e-05 -1.99556e-08)
(2.85148e-05 1.11812e-06 -2.03873e-06)
(2.79394e-05 1.0987e-06 -6.98734e-07)
(2.7312e-05 1.07668e-06 4.49295e-07)
(2.6628e-05 1.05494e-06 1.70906e-06)
(2.83343e-05 3.34515e-06 -2.03416e-06)
(2.77605e-05 3.28149e-06 -6.94363e-07)
(2.71353e-05 3.21185e-06 4.53738e-07)
(2.64539e-05 3.13641e-06 1.71353e-06)
(2.79775e-05 5.55079e-06 -2.03185e-06)
(2.74098e-05 5.44335e-06 -6.92146e-07)
(2.67915e-05 5.32591e-06 4.55819e-07)
(2.61182e-05 5.19779e-06 1.71537e-06)
(2.74454e-05 7.72017e-06 -2.03046e-06)
(2.68875e-05 7.56988e-06 -6.90846e-07)
(2.62801e-05 7.40535e-06 4.56992e-07)
(2.56187e-05 7.22587e-06 1.71638e-06)
(2.67413e-05 9.83995e-06 -2.02937e-06)
(2.61965e-05 9.64758e-06 -6.89839e-07)
(2.56037e-05 9.43689e-06 4.57903e-07)
(2.49583e-05 9.20719e-06 1.71718e-06)
(2.58698e-05 1.18972e-05 -2.02834e-06)
(2.53415e-05 1.16635e-05 -6.88852e-07)
(2.4767e-05 1.14076e-05 4.58832e-07)
(2.41418e-05 1.11288e-05 1.71808e-06)
(2.48375e-05 1.388e-05 -2.02726e-06)
(2.43292e-05 1.36056e-05 -6.87785e-07)
(2.3777e-05 1.33055e-05 4.59872e-07)
(2.31761e-05 1.29786e-05 1.71915e-06)
(2.36524e-05 1.57773e-05 -2.02612e-06)
(2.31679e-05 1.54631e-05 -6.86655e-07)
(2.26419e-05 1.51198e-05 4.60979e-07)
(2.20696e-05 1.47462e-05 1.72034e-06)
(2.23238e-05 1.75793e-05 -2.02498e-06)
(2.18671e-05 1.72263e-05 -6.856e-07)
(2.13712e-05 1.68414e-05 4.61981e-07)
(2.08319e-05 1.64225e-05 1.72142e-06)
(2.08619e-05 1.9277e-05 -2.02411e-06)
(2.04367e-05 1.88868e-05 -6.84899e-07)
(1.99748e-05 1.84622e-05 4.62608e-07)
(1.94724e-05 1.80001e-05 1.72208e-06)
(1.9277e-05 2.08619e-05 -2.02411e-06)
(1.88868e-05 2.04367e-05 -6.84899e-07)
(1.84622e-05 1.99748e-05 4.62608e-07)
(1.80001e-05 1.94724e-05 1.72208e-06)
(1.75793e-05 2.23238e-05 -2.02498e-06)
(1.72263e-05 2.18671e-05 -6.856e-07)
(1.68414e-05 2.13712e-05 4.61981e-07)
(1.64225e-05 2.08319e-05 1.72142e-06)
(1.57773e-05 2.36524e-05 -2.02612e-06)
(1.54631e-05 2.31679e-05 -6.86656e-07)
(1.51198e-05 2.26419e-05 4.60979e-07)
(1.47462e-05 2.20696e-05 1.72034e-06)
(1.388e-05 2.48375e-05 -2.02726e-06)
(1.36056e-05 2.43292e-05 -6.87785e-07)
(1.33055e-05 2.3777e-05 4.59873e-07)
(1.29786e-05 2.31761e-05 1.71915e-06)
(1.18972e-05 2.58698e-05 -2.02834e-06)
(1.16635e-05 2.53415e-05 -6.88852e-07)
(1.14076e-05 2.4767e-05 4.58832e-07)
(1.11288e-05 2.41418e-05 1.71808e-06)
(9.83995e-06 2.67413e-05 -2.02937e-06)
(9.64758e-06 2.61964e-05 -6.8984e-07)
(9.43689e-06 2.56037e-05 4.57903e-07)
(9.20718e-06 2.49583e-05 1.71718e-06)
(7.72017e-06 2.74454e-05 -2.03046e-06)
(7.56988e-06 2.68875e-05 -6.90847e-07)
(7.40535e-06 2.62801e-05 4.56992e-07)
(7.22586e-06 2.56187e-05 1.71638e-06)
(5.55079e-06 2.79775e-05 -2.03185e-06)
(5.44334e-06 2.74098e-05 -6.92147e-07)
(5.32591e-06 2.67915e-05 4.55819e-07)
(5.19779e-06 2.61182e-05 1.71537e-06)
(3.34515e-06 2.83342e-05 -2.03416e-06)
(3.28149e-06 2.77605e-05 -6.94364e-07)
(3.21185e-06 2.71352e-05 4.53738e-07)
(3.13641e-06 2.64539e-05 1.71353e-06)
(1.11812e-06 2.85148e-05 -2.03873e-06)
(1.0987e-06 2.79394e-05 -6.98735e-07)
(1.07668e-06 2.7312e-05 4.49295e-07)
(1.05494e-06 2.6628e-05 1.70906e-06)
(2.22547e-05 8.68778e-07 -3.35833e-06)
(2.17545e-05 8.52301e-07 -1.34959e-06)
(2.12777e-05 8.35648e-07 4.75748e-07)
(2.08177e-05 8.21024e-07 2.39571e-06)
(2.21123e-05 2.60631e-06 -3.35277e-06)
(2.16142e-05 2.5513e-06 -1.34426e-06)
(2.11394e-05 2.49889e-06 4.80971e-07)
(2.06815e-05 2.44896e-06 2.40052e-06)
(2.18332e-05 4.32747e-06 -3.34923e-06)
(2.13404e-05 4.23443e-06 -1.3412e-06)
(2.0871e-05 4.14598e-06 4.83474e-07)
(2.04185e-05 4.06102e-06 2.40226e-06)
(2.14172e-05 6.02018e-06 -3.34662e-06)
(2.09329e-05 5.89002e-06 -1.33936e-06)
(2.04717e-05 5.76605e-06 4.8458e-07)
(2.00272e-05 5.64692e-06 2.40253e-06)
(2.08665e-05 7.67379e-06 -3.34436e-06)
(2.03936e-05 7.50724e-06 -1.33807e-06)
(1.99434e-05 7.34845e-06 4.85e-07)
(1.95095e-05 7.19593e-06 2.40198e-06)
(2.01846e-05 9.27815e-06 -3.34219e-06)
(1.97261e-05 9.07586e-06 -1.337e-06)
(1.92897e-05 8.88291e-06 4.85115e-07)
(1.88692e-05 8.69766e-06 2.40105e-06)
(1.93768e-05 1.08239e-05 -3.34008e-06)
(1.89357e-05 1.05865e-05 -1.33601e-06)
(1.85162e-05 1.036e-05 4.85145e-07)
(1.81119e-05 1.01426e-05 2.40003e-06)
(1.84494e-05 1.23028e-05 -3.33809e-06)
(1.80291e-05 1.20308e-05 -1.33507e-06)
(1.76296e-05 1.17715e-05 4.85203e-07)
(1.72447e-05 1.15225e-05 2.39916e-06)
(1.74104e-05 1.37073e-05 -3.3364e-06)
(1.70143e-05 1.34017e-05 -1.33427e-06)
(1.66379e-05 1.31106e-05 4.85314e-07)
(1.62755e-05 1.28308e-05 2.39856e-06)
(1.62681e-05 1.50311e-05 -3.33532e-06)
(1.58996e-05 1.46932e-05 -1.33376e-06)
(1.55494e-05 1.43716e-05 4.85416e-07)
(1.52123e-05 1.40623e-05 2.39827e-06)
(1.50311e-05 1.62681e-05 -3.33532e-06)
(1.46932e-05 1.58996e-05 -1.33376e-06)
(1.43716e-05 1.55494e-05 4.85416e-07)
(1.40623e-05 1.52123e-05 2.39827e-06)
(1.37073e-05 1.74104e-05 -3.3364e-06)
(1.34017e-05 1.70143e-05 -1.33427e-06)
(1.31106e-05 1.66379e-05 4.85314e-07)
(1.28308e-05 1.62754e-05 2.39856e-06)
(1.23028e-05 1.84494e-05 -3.33809e-06)
(1.20308e-05 1.80291e-05 -1.33507e-06)
(1.17715e-05 1.76295e-05 4.85204e-07)
(1.15225e-05 1.72447e-05 2.39916e-06)
(1.08239e-05 1.93768e-05 -3.34008e-06)
(1.05865e-05 1.89357e-05 -1.33601e-06)
(1.036e-05 1.85161e-05 4.85145e-07)
(1.01426e-05 1.81119e-05 2.40004e-06)
(9.27815e-06 2.01846e-05 -3.34219e-06)
(9.07586e-06 1.97261e-05 -1.337e-06)
(8.88291e-06 1.92897e-05 4.85115e-07)
(8.69766e-06 1.88692e-05 2.40105e-06)
(7.67379e-06 2.08665e-05 -3.34436e-06)
(7.50724e-06 2.03936e-05 -1.33807e-06)
(7.34844e-06 1.99434e-05 4.85e-07)
(7.19592e-06 1.95095e-05 2.40198e-06)
(6.02018e-06 2.14172e-05 -3.34662e-06)
(5.89002e-06 2.09329e-05 -1.33936e-06)
(5.76605e-06 2.04717e-05 4.84581e-07)
(5.64692e-06 2.00271e-05 2.40253e-06)
(4.32747e-06 2.18332e-05 -3.34923e-06)
(4.23443e-06 2.13404e-05 -1.3412e-06)
(4.14598e-06 2.08709e-05 4.83475e-07)
(4.06102e-06 2.04185e-05 2.40226e-06)
(2.60631e-06 2.21123e-05 -3.35277e-06)
(2.5513e-06 2.16142e-05 -1.34426e-06)
(2.49889e-06 2.11394e-05 4.80972e-07)
(2.44896e-06 2.06815e-05 2.40053e-06)
(8.68778e-07 2.22547e-05 -3.35833e-06)
(8.52301e-07 2.17545e-05 -1.3496e-06)
(8.35647e-07 2.12777e-05 4.75748e-07)
(8.21023e-07 2.08177e-05 2.39571e-06)
(1.5904e-05 6.17793e-07 -3.47259e-06)
(1.54743e-05 6.03823e-07 -1.51397e-06)
(1.51288e-05 5.9175e-07 3.27781e-07)
(1.48588e-05 5.83095e-07 2.20974e-06)
(1.58009e-05 1.85936e-06 -3.46835e-06)
(1.53738e-05 1.81208e-06 -1.51e-06)
(1.50302e-05 1.77431e-06 3.31479e-07)
(1.47619e-05 1.74559e-06 2.21283e-06)
(1.56015e-05 3.08961e-06 -3.46497e-06)
(1.51791e-05 3.00945e-06 -1.50735e-06)
(1.48394e-05 2.94566e-06 3.33371e-07)
(1.45743e-05 2.89667e-06 2.21377e-06)
(1.53045e-05 4.29964e-06 -3.46208e-06)
(1.48896e-05 4.18747e-06 -1.50557e-06)
(1.45558e-05 4.09803e-06 3.34117e-07)
(1.42953e-05 4.02923e-06 2.21339e-06)
(1.49115e-05 5.48169e-06 -3.45938e-06)
(1.45064e-05 5.33825e-06 -1.50428e-06)
(1.41805e-05 5.22369e-06 3.3414e-07)
(1.39261e-05 5.13554e-06 2.21204e-06)
(1.44245e-05 6.62846e-06 -3.45673e-06)
(1.40317e-05 6.45439e-06 -1.50327e-06)
(1.37158e-05 6.31518e-06 3.33727e-07)
(1.34691e-05 6.20804e-06 2.21008e-06)
(1.38472e-05 7.73326e-06 -3.45417e-06)
(1.34694e-05 7.52911e-06 -1.50243e-06)
(1.31656e-05 7.36567e-06 3.33108e-07)
(1.29283e-05 7.23975e-06 2.20786e-06)
(1.31842e-05 8.79015e-06 -3.45184e-06)
(1.28241e-05 8.55651e-06 -1.50171e-06)
(1.25348e-05 8.36929e-06 3.32476e-07)
(1.23089e-05 8.22475e-06 2.20576e-06)
(1.24412e-05 9.79397e-06 -3.44996e-06)
(1.21018e-05 9.53161e-06 -1.50115e-06)
(1.18293e-05 9.32123e-06 3.31986e-07)
(1.16167e-05 9.15834e-06 2.20412e-06)
(1.16245e-05 1.07402e-05 -3.44882e-06)
(1.13086e-05 1.04502e-05 -1.5008e-06)
(1.10551e-05 1.02176e-05 3.3173e-07)
(1.08577e-05 1.0037e-05 2.20323e-06)
(1.07402e-05 1.16245e-05 -3.44882e-06)
(1.04502e-05 1.13085e-05 -1.5008e-06)
(1.02176e-05 1.10551e-05 3.3173e-07)
(1.0037e-05 1.08577e-05 2.20323e-06)
(9.79398e-06 1.24412e-05 -3.44996e-06)
(9.53161e-06 1.21018e-05 -1.50115e-06)
(9.32123e-06 1.18293e-05 3.31986e-07)
(9.15834e-06 1.16167e-05 2.20412e-06)
(8.79015e-06 1.31842e-05 -3.45184e-06)
(8.55651e-06 1.28241e-05 -1.50171e-06)
(8.36929e-06 1.25348e-05 3.32476e-07)
(8.22474e-06 1.23089e-05 2.20576e-06)
(7.73326e-06 1.38472e-05 -3.45417e-06)
(7.52911e-06 1.34694e-05 -1.50243e-06)
(7.36567e-06 1.31656e-05 3.33108e-07)
(7.23975e-06 1.29283e-05 2.20786e-06)
(6.62846e-06 1.44245e-05 -3.45673e-06)
(6.45439e-06 1.40317e-05 -1.50327e-06)
(6.31517e-06 1.37158e-05 3.33727e-07)
(6.20803e-06 1.34691e-05 2.21008e-06)
(5.48169e-06 1.49114e-05 -3.45938e-06)
(5.33825e-06 1.45063e-05 -1.50428e-06)
(5.22368e-06 1.41805e-05 3.3414e-07)
(5.13554e-06 1.39261e-05 2.21205e-06)
(4.29964e-06 1.53045e-05 -3.46208e-06)
(4.18747e-06 1.48896e-05 -1.50557e-06)
(4.09803e-06 1.45558e-05 3.34118e-07)
(4.02923e-06 1.42953e-05 2.21339e-06)
(3.08961e-06 1.56015e-05 -3.46497e-06)
(3.00944e-06 1.51791e-05 -1.50735e-06)
(2.94566e-06 1.48393e-05 3.33372e-07)
(2.89667e-06 1.45743e-05 2.21377e-06)
(1.85936e-06 1.58009e-05 -3.46835e-06)
(1.81208e-06 1.53738e-05 -1.51e-06)
(1.77431e-06 1.50301e-05 3.31479e-07)
(1.74559e-06 1.47619e-05 2.21283e-06)
(6.17793e-07 1.59039e-05 -3.47259e-06)
(6.03823e-07 1.54743e-05 -1.51397e-06)
(5.91749e-07 1.51288e-05 3.27782e-07)
(5.83094e-07 1.48587e-05 2.20974e-06)
(1.1016e-05 4.26253e-07 -2.89782e-06)
(1.06536e-05 4.14442e-07 -1.35995e-06)
(1.03997e-05 4.05498e-07 1.29326e-07)
(1.02456e-05 4.00441e-07 1.61046e-06)
(1.09439e-05 1.28651e-06 -2.89563e-06)
(1.0584e-05 1.24636e-06 -1.35806e-06)
(1.0332e-05 1.21854e-06 1.3089e-07)
(1.01793e-05 1.20237e-06 1.61145e-06)
(1.08062e-05 2.13925e-06 -2.89325e-06)
(1.04505e-05 2.07104e-06 -1.35642e-06)
(1.02014e-05 2.02402e-06 1.3181e-07)
(1.00506e-05 1.99639e-06 1.61154e-06)
(1.06016e-05 2.9782e-06 -2.89091e-06)
(1.02522e-05 2.88276e-06 -1.35511e-06)
(1.00075e-05 2.81682e-06 1.32132e-07)
(9.85925e-06 2.77793e-06 1.61084e-06)
(1.03307e-05 3.798e-06 -2.88855e-06)
(9.98983e-06 3.67602e-06 -1.35409e-06)
(9.75094e-06 3.59158e-06 1.31947e-07)
(9.606e-06 3.54173e-06 1.60938e-06)
(9.99503e-06 4.59353e-06 -2.8862e-06)
(9.66459e-06 4.44565e-06 -1.35328e-06)
(9.43297e-06 4.34311e-06 1.3138e-07)
(9.29227e-06 4.28249e-06 1.60735e-06)
(9.59664e-06 5.36009e-06 -2.88391e-06)
(9.2788e-06 5.1869e-06 -1.35264e-06)
(9.05601e-06 5.0666e-06 1.30595e-07)
(8.92056e-06 4.99529e-06 1.60504e-06)
(9.13865e-06 6.09349e-06 -2.88185e-06)
(8.83564e-06 5.89559e-06 -1.35213e-06)
(8.62334e-06 5.75785e-06 1.29779e-07)
(8.49428e-06 5.67588e-06 1.60279e-06)
(8.62479e-06 6.79002e-06 -2.88021e-06)
(8.33897e-06 6.56814e-06 -1.35176e-06)
(8.13888e-06 6.41344e-06 1.29118e-07)
(8.01744e-06 6.32086e-06 1.60101e-06)
(8.05927e-06 7.44634e-06 -2.87924e-06)
(7.79293e-06 7.20153e-06 -1.35153e-06)
(7.6067e-06 7.03055e-06 1.28755e-07)
(7.49406e-06 6.92765e-06 1.60002e-06)
(7.44635e-06 8.05926e-06 -2.87924e-06)
(7.20153e-06 7.79292e-06 -1.35153e-06)
(7.03056e-06 7.60669e-06 1.28755e-07)
(6.92765e-06 7.49405e-06 1.60003e-06)
(6.79002e-06 8.62479e-06 -2.88021e-06)
(6.56814e-06 8.33896e-06 -1.35176e-06)
(6.41344e-06 8.13887e-06 1.29118e-07)
(6.32086e-06 8.01743e-06 1.60101e-06)
(6.09349e-06 9.13864e-06 -2.88185e-06)
(5.89559e-06 8.83563e-06 -1.35213e-06)
(5.75785e-06 8.62333e-06 1.29779e-07)
(5.67587e-06 8.49428e-06 1.60279e-06)
(5.36009e-06 9.59663e-06 -2.88391e-06)
(5.1869e-06 9.27879e-06 -1.35264e-06)
(5.0666e-06 9.056e-06 1.30596e-07)
(4.99529e-06 8.92055e-06 1.60504e-06)
(4.59353e-06 9.99502e-06 -2.8862e-06)
(4.44565e-06 9.66457e-06 -1.35328e-06)
(4.34311e-06 9.43296e-06 1.31381e-07)
(4.28249e-06 9.29226e-06 1.60735e-06)
(3.798e-06 1.03307e-05 -2.88855e-06)
(3.67602e-06 9.98982e-06 -1.35409e-06)
(3.59158e-06 9.75093e-06 1.31948e-07)
(3.54172e-06 9.60598e-06 1.60938e-06)
(2.9782e-06 1.06016e-05 -2.89091e-06)
(2.88276e-06 1.02522e-05 -1.35511e-06)
(2.81681e-06 1.00075e-05 1.32133e-07)
(2.77792e-06 9.85923e-06 1.61084e-06)
(2.13925e-06 1.08062e-05 -2.89325e-06)
(2.07103e-06 1.04504e-05 -1.35642e-06)
(2.02402e-06 1.02014e-05 1.31811e-07)
(1.99638e-06 1.00505e-05 1.61154e-06)
(1.28651e-06 1.09439e-05 -2.89564e-06)
(1.24636e-06 1.0584e-05 -1.35806e-06)
(1.21854e-06 1.0332e-05 1.3089e-07)
(1.20236e-06 1.01793e-05 1.61145e-06)
(4.26253e-07 1.1016e-05 -2.89782e-06)
(4.14442e-07 1.06536e-05 -1.35995e-06)
(4.05498e-07 1.03997e-05 1.29327e-07)
(4.0044e-07 1.02455e-05 1.61046e-06)
(7.82844e-06 3.02548e-07 -2.14765e-06)
(7.52961e-06 2.92696e-07 -1.08483e-06)
(7.33302e-06 2.85676e-07 -2.92005e-08)
(7.23087e-06 2.82208e-07 9.94176e-07)
(7.77688e-06 9.14373e-07 -2.14712e-06)
(7.48033e-06 8.80952e-07 -1.08458e-06)
(7.28549e-06 8.59171e-07 -2.9228e-08)
(7.1846e-06 8.48327e-07 9.93742e-07)
(7.67962e-06 1.521e-06 -2.14588e-06)
(7.38659e-06 1.46418e-06 -1.08391e-06)
(7.19404e-06 1.42736e-06 -2.91115e-08)
(7.09438e-06 1.40885e-06 9.93296e-07)
(7.53531e-06 2.11804e-06 -2.14442e-06)
(7.24764e-06 2.03853e-06 -1.0832e-06)
(7.05851e-06 1.98691e-06 -2.91118e-08)
(6.96052e-06 1.96083e-06 9.92583e-07)
(7.34433e-06 2.70172e-06 -2.14284e-06)
(7.06372e-06 2.60017e-06 -1.08255e-06)
(6.87912e-06 2.53411e-06 -2.93439e-08)
(6.78333e-06 2.50067e-06 9.91467e-07)
(7.10749e-06 3.26838e-06 -2.14122e-06)
(6.83559e-06 3.1454e-06 -1.08202e-06)
(6.65663e-06 3.06527e-06 -2.98099e-08)
(6.56361e-06 3.02467e-06 9.89975e-07)
(6.82615e-06 3.81463e-06 -2.13964e-06)
(6.56465e-06 3.6708e-06 -1.08159e-06)
(6.3925e-06 3.57693e-06 -3.04323e-08)
(6.30287e-06 3.52924e-06 9.88264e-07)
(6.50225e-06 4.33733e-06 -2.1382e-06)
(6.25292e-06 4.17326e-06 -1.08127e-06)
(6.08878e-06 4.06598e-06 -3.10816e-08)
(6.0033e-06 4.01125e-06 9.8659e-07)
(6.13825e-06 4.83367e-06 -2.13706e-06)
(5.90288e-06 4.65007e-06 -1.08102e-06)
(5.74803e-06 4.52979e-06 -3.16112e-08)
(5.66749e-06 4.46809e-06 9.85251e-07)
(5.73689e-06 5.30104e-06 -2.13637e-06)
(5.51727e-06 5.09883e-06 -1.08088e-06)
(5.37295e-06 4.96612e-06 -3.19018e-08)
(5.29812e-06 4.89765e-06 9.84508e-07)
(5.30104e-06 5.73688e-06 -2.13637e-06)
(5.09884e-06 5.51727e-06 -1.08088e-06)
(4.96612e-06 5.37295e-06 -3.19018e-08)
(4.89765e-06 5.29812e-06 9.84508e-07)
(4.83367e-06 6.13824e-06 -2.13706e-06)
(4.65008e-06 5.90287e-06 -1.08102e-06)
(4.52979e-06 5.74803e-06 -3.16111e-08)
(4.46809e-06 5.66748e-06 9.85251e-07)
(4.33733e-06 6.50224e-06 -2.1382e-06)
(4.17326e-06 6.25291e-06 -1.08127e-06)
(4.06598e-06 6.08877e-06 -3.10813e-08)
(4.01125e-06 6.00329e-06 9.86591e-07)
(3.81463e-06 6.82614e-06 -2.13964e-06)
(3.6708e-06 6.56464e-06 -1.08159e-06)
(3.57693e-06 6.39248e-06 -3.04319e-08)
(3.52924e-06 6.30286e-06 9.88265e-07)
(3.26839e-06 7.10748e-06 -2.14122e-06)
(3.1454e-06 6.83558e-06 -1.08202e-06)
(3.06527e-06 6.65662e-06 -2.98095e-08)
(3.02466e-06 6.56359e-06 9.89976e-07)
(2.70172e-06 7.34432e-06 -2.14284e-06)
(2.60017e-06 7.0637e-06 -1.08255e-06)
(2.5341e-06 6.8791e-06 -2.93434e-08)
(2.50067e-06 6.78331e-06 9.91469e-07)
(2.11804e-06 7.5353e-06 -2.14442e-06)
(2.03853e-06 7.24762e-06 -1.0832e-06)
(1.98691e-06 7.05849e-06 -2.91113e-08)
(1.96082e-06 6.9605e-06 9.92585e-07)
(1.521e-06 7.6796e-06 -2.14588e-06)
(1.46417e-06 7.38657e-06 -1.08391e-06)
(1.42736e-06 7.19402e-06 -2.9111e-08)
(1.40885e-06 7.09435e-06 9.93297e-07)
(9.14373e-07 7.77686e-06 -2.14712e-06)
(8.80951e-07 7.48031e-06 -1.08458e-06)
(8.5917e-07 7.28546e-06 -2.92274e-08)
(8.48324e-07 7.18457e-06 9.93744e-07)
(3.02548e-07 7.82843e-06 -2.14765e-06)
(2.92695e-07 7.52959e-06 -1.08483e-06)
(2.85675e-07 7.33299e-06 -2.91999e-08)
(2.82207e-07 7.23084e-06 9.94178e-07)
(5.90023e-06 2.28406e-07 -1.51593e-06)
(5.65942e-06 2.2036e-07 -8.19359e-07)
(5.49957e-06 2.14582e-07 -1.1597e-07)
(5.41447e-06 2.11633e-07 5.52374e-07)
(5.8614e-06 6.89984e-07 -1.51626e-06)
(5.62247e-06 6.62822e-07 -8.19918e-07)
(5.46411e-06 6.4488e-07 -1.16732e-07)
(5.38006e-06 6.35567e-07 5.51383e-07)
(5.78849e-06 1.14765e-06 -1.51588e-06)
(5.55243e-06 1.10146e-06 -8.19902e-07)
(5.39597e-06 1.07114e-06 -1.17053e-07)
(5.31294e-06 1.05529e-06 5.50756e-07)
(5.68038e-06 1.59817e-06 -1.51522e-06)
(5.4487e-06 1.53356e-06 -8.19658e-07)
(5.29506e-06 1.49106e-06 -1.17226e-07)
(5.21346e-06 1.46875e-06 5.50199e-07)
(5.53735e-06 2.03879e-06 -1.51442e-06)
(5.31142e-06 1.95629e-06 -8.19358e-07)
(5.16152e-06 1.90195e-06 -1.17423e-07)
(5.08181e-06 1.87338e-06 5.49531e-07)
(5.35993e-06 2.46672e-06 -1.51356e-06)
(5.1411e-06 2.3669e-06 -8.19077e-07)
(4.99582e-06 2.30106e-06 -1.17708e-07)
(4.91847e-06 2.26643e-06 5.48696e-07)
(5.14905e-06 2.87936e-06 -1.5127e-06)
(4.93864e-06 2.76275e-06 -8.1884e-07)
(4.7989e-06 2.68576e-06 -1.18069e-07)
(4.7244e-06 2.64522e-06 5.47744e-07)
(4.90602e-06 3.27426e-06 -1.5119e-06)
(4.70539e-06 3.14144e-06 -8.18646e-07)
(4.57213e-06 3.05362e-06 -1.18441e-07)
(4.50103e-06 3.00729e-06 5.46809e-07)
(4.63253e-06 3.64915e-06 -1.51124e-06)
(4.44304e-06 3.50077e-06 -8.18492e-07)
(4.31723e-06 3.40252e-06 -1.1874e-07)
(4.25012e-06 3.35053e-06 5.46059e-07)
(4.33049e-06 4.00192e-06 -1.51082e-06)
(4.1535e-06 3.83875e-06 -8.1839e-07)
(4.03608e-06 3.73058e-06 -1.189e-07)
(3.97356e-06 3.67315e-06 5.45643e-07)
(4.00193e-06 4.33048e-06 -1.51082e-06)
(3.83875e-06 4.15349e-06 -8.1839e-07)
(3.73058e-06 4.03608e-06 -1.189e-07)