/*--------------------------------*- C++ -*----------------------------------*\
| =========                 |                                                 |
| \\      /  F ield         | foam-extend: Open Source CFD                    |
|  \\    /   O peration     | Version:     3.1                                |
|   \\  /    A nd           | Web:         http://www.extend-project.de       |
|    \\/     M anipulation  |                                                 |
\*---------------------------------------------------------------------------*/
FoamFile
{
    version     2.0;
    format      ascii;
    class       volVectorField;
    location    "0.0005";
    object      D_0_0;
}
// * * * * * * * * * * * * * * * * * * * * * * * * * * * * * * * * * * * * * //

dimensions      [0 1 0 0 0 0 0];

internalField   nonuniform List<vector> 
6400
(
(4.62022e-06 1.72305e-07 1.77377e-06)
(3.89411e-06 1.47246e-07 4.68792e-07)
(3.51819e-06 1.32693e-07 -3.12699e-07)
(3.43467e-06 1.27234e-07 -1.45603e-06)
(4.58891e-06 5.38098e-07 1.77326e-06)
(3.8684e-06 4.54111e-07 4.6932e-07)
(3.49464e-06 4.10482e-07 -3.11954e-07)
(3.41274e-06 4.00768e-07 -1.45505e-06)
(4.53155e-06 8.98296e-07 1.77225e-06)
(3.82015e-06 7.5748e-07 4.68968e-07)
(3.45105e-06 6.848e-07 -3.12012e-07)
(3.37024e-06 6.69245e-07 -1.45485e-06)
(4.44662e-06 1.25151e-06 1.77164e-06)
(3.74855e-06 1.05542e-06 4.68729e-07)
(3.38628e-06 9.54171e-07 -3.11977e-07)
(3.30685e-06 9.32576e-07 -1.4545e-06)
(4.33437e-06 1.59623e-06 1.77116e-06)
(3.65376e-06 1.34628e-06 4.68617e-07)
(3.30045e-06 1.21713e-06 -3.11794e-07)
(3.22278e-06 1.18956e-06 -1.4539e-06)
(4.19531e-06 1.93073e-06 1.77072e-06)
(3.53624e-06 1.62845e-06 4.68591e-07)
(3.19399e-06 1.47215e-06 -3.11484e-07)
(3.11853e-06 1.43872e-06 -1.45307e-06)
(4.03022e-06 2.25324e-06 1.77035e-06)
(3.3967e-06 1.90035e-06 4.68644e-07)
(3.06762e-06 1.71774e-06 -3.1108e-07)
(2.99485e-06 1.67851e-06 -1.45208e-06)
(3.84011e-06 2.56202e-06 1.77013e-06)
(3.23608e-06 2.16046e-06 4.68786e-07)
(2.92229e-06 1.95245e-06 -3.10627e-07)
(2.85277e-06 1.90748e-06 -1.45104e-06)
(3.6262e-06 2.85536e-06 1.77019e-06)
(3.05552e-06 2.40735e-06 4.69024e-07)
(2.75914e-06 2.17502e-06 -3.10196e-07)
(2.69349e-06 2.1244e-06 -1.45014e-06)
(3.38966e-06 3.13165e-06 1.77066e-06)
(2.85624e-06 2.63966e-06 4.69319e-07)
(2.57938e-06 2.38431e-06 -3.09891e-07)
(2.51825e-06 2.32825e-06 -1.4496e-06)
(3.13165e-06 3.38966e-06 1.77066e-06)
(2.63966e-06 2.85624e-06 4.69319e-07)
(2.38431e-06 2.57938e-06 -3.09891e-07)
(2.32825e-06 2.51825e-06 -1.4496e-06)
(2.85536e-06 3.6262e-06 1.77019e-06)
(2.40735e-06 3.05552e-06 4.69024e-07)
(2.17502e-06 2.75914e-06 -3.10196e-07)
(2.1244e-06 2.69349e-06 -1.45014e-06)
(2.56202e-06 3.84011e-06 1.77013e-06)
(2.16046e-06 3.23608e-06 4.68786e-07)
(1.95245e-06 2.92229e-06 -3.10627e-07)
(1.90748e-06 2.85277e-06 -1.45104e-06)
(2.25324e-06 4.03022e-06 1.77035e-06)
(1.90035e-06 3.3967e-06 4.68644e-07)
(1.71774e-06 3.06762e-06 -3.1108e-07)
(1.67851e-06 2.99485e-06 -1.45208e-06)
(1.93073e-06 4.19531e-06 1.77072e-06)
(1.62845e-06 3.53624e-06 4.68591e-07)
(1.47215e-06 3.19399e-06 -3.11484e-07)
(1.43872e-06 3.11853e-06 -1.45307e-06)
(1.59623e-06 4.33437e-06 1.77116e-06)
(1.34628e-06 3.65376e-06 4.68617e-07)
(1.21713e-06 3.30045e-06 -3.11794e-07)
(1.18956e-06 3.22278e-06 -1.4539e-06)
(1.25151e-06 4.44662e-06 1.77164e-06)
(1.05542e-06 3.74855e-06 4.68729e-07)
(9.54171e-07 3.38628e-06 -3.11977e-07)
(9.32576e-07 3.30685e-06 -1.4545e-06)
(8.98296e-07 4.53155e-06 1.77225e-06)
(7.5748e-07 3.82015e-06 4.68968e-07)
(6.848e-07 3.45105e-06 -3.12012e-07)
(6.69245e-07 3.37024e-06 -1.45485e-06)
(5.38098e-07 4.58891e-06 1.77326e-06)
(4.54111e-07 3.8684e-06 4.6932e-07)
(4.10482e-07 3.49464e-06 -3.11954e-07)
(4.00768e-07 3.41274e-06 -1.45505e-06)
(1.72305e-07 4.62022e-06 1.77377e-06)
(1.47246e-07 3.89411e-06 4.68792e-07)
(1.32693e-07 3.51819e-06 -3.12699e-07)
(1.27234e-07 3.43467e-06 -1.45603e-06)
(1.23413e-05 4.85932e-07 2.31375e-06)
(1.16529e-05 4.60128e-07 9.35266e-07)
(1.11261e-05 4.40596e-07 -1.97896e-07)
(1.07539e-05 4.28993e-07 -1.53991e-06)
(1.22599e-05 1.45032e-06 2.3091e-06)
(1.15767e-05 1.37076e-06 9.31025e-07)
(1.10549e-05 1.31042e-06 -2.02126e-07)
(1.06862e-05 1.26845e-06 -1.54435e-06)
(1.21063e-05 2.40595e-06 2.30756e-06)
(1.14316e-05 2.273e-06 9.29894e-07)
(1.09165e-05 2.17205e-06 -2.02933e-07)
(1.05525e-05 2.10117e-06 -1.54475e-06)
(1.18784e-05 3.34596e-06 2.3068e-06)
(1.12162e-05 3.16095e-06 9.29637e-07)
(1.07105e-05 3.02022e-06 -2.02738e-07)
(1.03531e-05 2.9213e-06 -1.544e-06)
(1.15767e-05 4.26463e-06 2.30616e-06)
(1.09308e-05 4.02886e-06 9.29669e-07)
(1.04376e-05 3.84934e-06 -2.02139e-07)
(1.00889e-05 3.72315e-06 -1.54268e-06)
(1.12028e-05 5.15637e-06 2.3055e-06)
(1.05771e-05 4.87121e-06 9.29846e-07)
(1.00992e-05 4.65395e-06 -2.01283e-07)
(9.76127e-06 4.50121e-06 -1.54093e-06)
(1.0759e-05 6.01595e-06 2.30491e-06)
(1.01573e-05 5.68283e-06 9.30158e-07)
(9.69782e-06 5.42892e-06 -2.00242e-07)
(9.37282e-06 5.25035e-06 -1.53889e-06)
(1.02486e-05 6.83855e-06 2.30454e-06)
(9.67477e-06 6.45909e-06 9.30616e-07)
(9.23664e-06 6.1697e-06 -1.99119e-07)
(8.9268e-06 5.96601e-06 -1.53679e-06)
(9.67526e-06 7.61985e-06 2.30456e-06)
(9.13319e-06 7.19587e-06 9.31176e-07)
(8.7195e-06 6.87238e-06 -1.98094e-07)
(8.4271e-06 6.64443e-06 -1.53499e-06)
(9.04295e-06 8.35588e-06 2.3049e-06)
(8.53665e-06 7.88951e-06 9.31647e-07)
(8.15047e-06 7.53362e-06 -1.97436e-07)
(7.87775e-06 7.28253e-06 -1.53393e-06)
(8.35588e-06 9.04295e-06 2.3049e-06)
(7.88951e-06 8.53665e-06 9.31647e-07)
(7.53362e-06 8.15047e-06 -1.97436e-07)
(7.28253e-06 7.87775e-06 -1.53393e-06)
(7.61985e-06 9.67526e-06 2.30456e-06)
(7.19587e-06 9.13319e-06 9.31176e-07)
(6.87238e-06 8.7195e-06 -1.98094e-07)
(6.64443e-06 8.4271e-06 -1.53499e-06)
(6.83855e-06 1.02486e-05 2.30454e-06)
(6.45909e-06 9.67477e-06 9.30616e-07)
(6.1697e-06 9.23664e-06 -1.99119e-07)
(5.96601e-06 8.9268e-06 -1.53679e-06)
(6.01595e-06 1.0759e-05 2.30491e-06)
(5.68283e-06 1.01573e-05 9.30158e-07)
(5.42892e-06 9.69782e-06 -2.00242e-07)
(5.25035e-06 9.37282e-06 -1.53889e-06)
(5.15637e-06 1.12028e-05 2.3055e-06)
(4.87121e-06 1.05771e-05 9.29846e-07)
(4.65395e-06 1.00992e-05 -2.01283e-07)
(4.50121e-06 9.76127e-06 -1.54093e-06)
(4.26463e-06 1.15767e-05 2.30616e-06)
(4.02886e-06 1.09308e-05 9.29669e-07)
(3.84934e-06 1.04376e-05 -2.02139e-07)
(3.72315e-06 1.00889e-05 -1.54268e-06)
(3.34596e-06 1.18784e-05 2.3068e-06)
(3.16095e-06 1.12162e-05 9.29637e-07)
(3.02022e-06 1.07105e-05 -2.02738e-07)
(2.9213e-06 1.03531e-05 -1.544e-06)
(2.40595e-06 1.21063e-05 2.30756e-06)
(2.273e-06 1.14316e-05 9.29894e-07)
(2.17205e-06 1.09165e-05 -2.02933e-07)
(2.10117e-06 1.05525e-05 -1.54475e-06)
(1.45032e-06 1.22599e-05 2.3091e-06)
(1.37076e-06 1.15767e-05 9.31025e-07)
(1.31042e-06 1.10549e-05 -2.02126e-07)
(1.26845e-06 1.06862e-05 -1.54435e-06)
(4.85932e-07 1.23413e-05 2.31375e-06)
(4.60128e-07 1.16529e-05 9.35266e-07)
(4.40596e-07 1.11261e-05 -1.97896e-07)
(4.28992e-07 1.07539e-05 -1.53991e-06)
(1.51064e-05 5.9523e-07 9.70248e-07)
(1.46132e-05 5.77971e-07 5.91449e-07)
(1.41334e-05 5.60706e-07 1.80845e-07)
(1.36652e-05 5.45347e-07 -2.42412e-07)
(1.50104e-05 1.77626e-06 9.6945e-07)
(1.45197e-05 1.72016e-06 5.89968e-07)
(1.40428e-05 1.66563e-06 1.79247e-07)
(1.35771e-05 1.61257e-06 -2.4356e-07)
(1.4823e-05 2.94568e-06 9.69014e-07)
(1.43379e-05 2.85117e-06 5.8939e-07)
(1.38667e-05 2.75957e-06 1.78746e-07)
(1.34066e-05 2.67016e-06 -2.43757e-07)
(1.45432e-05 4.09565e-06 9.68699e-07)
(1.40668e-05 3.96399e-06 5.89294e-07)
(1.36042e-05 3.83617e-06 1.78878e-07)
(1.31523e-05 3.71142e-06 -2.43317e-07)
(1.41721e-05 5.21913e-06 9.68437e-07)
(1.37073e-05 5.05137e-06 5.89435e-07)
(1.3256e-05 4.88831e-06 1.79359e-07)
(1.28151e-05 4.72922e-06 -2.42411e-07)
(1.37118e-05 6.30917e-06 9.68201e-07)
(1.32613e-05 6.10627e-06 5.89736e-07)
(1.2824e-05 5.90891e-06 1.80088e-07)
(1.23969e-05 5.71642e-06 -2.41133e-07)
(1.31654e-05 7.35932e-06 9.6805e-07)
(1.27322e-05 7.12215e-06 5.90186e-07)
(1.23117e-05 6.89142e-06 1.81001e-07)
(1.19011e-05 6.66643e-06 -2.39593e-07)
(1.25374e-05 8.36385e-06 9.68086e-07)
(1.21242e-05 8.09329e-06 5.90769e-07)
(1.17236e-05 7.83014e-06 1.82002e-07)
(1.13323e-05 7.57354e-06 -2.37979e-07)
(1.18328e-05 9.3178e-06 9.68376e-07)
(1.14428e-05 9.01487e-06 5.91406e-07)
(1.10649e-05 8.72042e-06 1.82918e-07)
(1.06959e-05 8.43322e-06 -2.36579e-07)
(1.10573e-05 1.02169e-05 9.68778e-07)
(1.06938e-05 9.88289e-06 5.91878e-07)
(1.03414e-05 9.55856e-06 1.83497e-07)
(9.99749e-06 9.2421e-06 -2.35743e-07)
(1.02169e-05 1.10573e-05 9.68778e-07)
(9.88289e-06 1.06938e-05 5.91878e-07)
(9.55856e-06 1.03414e-05 1.83497e-07)
(9.2421e-06 9.99749e-06 -2.35743e-07)
(9.3178e-06 1.18328e-05 9.68376e-07)
(9.01487e-06 1.14428e-05 5.91406e-07)
(8.72042e-06 1.10649e-05 1.82918e-07)
(8.43322e-06 1.06959e-05 -2.36579e-07)
(8.36385e-06 1.25374e-05 9.68086e-07)
(8.09329e-06 1.21242e-05 5.90769e-07)
(7.83014e-06 1.17236e-05 1.82002e-07)
(7.57354e-06 1.13323e-05 -2.37979e-07)
(7.35932e-06 1.31654e-05 9.6805e-07)
(7.12215e-06 1.27322e-05 5.90186e-07)
(6.89142e-06 1.23117e-05 1.81001e-07)
(6.66643e-06 1.19011e-05 -2.39593e-07)
(6.30917e-06 1.37118e-05 9.68201e-07)
(6.10627e-06 1.32613e-05 5.89737e-07)
(5.90891e-06 1.2824e-05 1.80088e-07)
(5.71642e-06 1.23969e-05 -2.41134e-07)
(5.21913e-06 1.41721e-05 9.68437e-07)
(5.05137e-06 1.37073e-05 5.89435e-07)
(4.88831e-06 1.3256e-05 1.79359e-07)
(4.72922e-06 1.28151e-05 -2.42412e-07)
(4.09565e-06 1.45432e-05 9.68699e-07)
(3.96399e-06 1.40668e-05 5.89294e-07)
(3.83617e-06 1.36042e-05 1.78878e-07)
(3.71142e-06 1.31523e-05 -2.43317e-07)
(2.94568e-06 1.4823e-05 9.69014e-07)
(2.85117e-06 1.43379e-05 5.8939e-07)
(2.75957e-06 1.38667e-05 1.78746e-07)
(2.67016e-06 1.34066e-05 -2.43757e-07)
(1.77626e-06 1.50104e-05 9.6945e-07)
(1.72016e-06 1.45197e-05 5.89969e-07)
(1.66563e-06 1.40428e-05 1.79247e-07)
(1.61257e-06 1.35771e-05 -2.4356e-07)
(5.9523e-07 1.51064e-05 9.70249e-07)
(5.77971e-07 1.46132e-05 5.91449e-07)
(5.60706e-07 1.41334e-05 1.80845e-07)
(5.45347e-07 1.36652e-05 -2.42412e-07)
(1.38428e-05 5.43871e-07 -4.31345e-07)
(1.34733e-05 5.31232e-07 7.52978e-08)
(1.30979e-05 5.1785e-07 4.55422e-07)
(1.2713e-05 5.05249e-07 8.96617e-07)
(1.37555e-05 1.62621e-06 -4.29334e-07)
(1.33874e-05 1.58449e-06 7.68643e-08)
(1.30138e-05 1.54213e-06 4.56919e-07)
(1.26305e-05 1.49888e-06 8.98254e-07)
(1.35838e-05 2.69784e-06 -4.28453e-07)
(1.32198e-05 2.62756e-06 7.75058e-08)
(1.28504e-05 2.55631e-06 4.57409e-07)
(1.24717e-05 2.48322e-06 8.98636e-07)
(1.33269e-05 3.75138e-06 -4.27948e-07)
(1.29694e-05 3.65353e-06 7.78645e-08)
(1.26066e-05 3.55409e-06 4.5764e-07)
(1.22347e-05 3.45209e-06 8.98746e-07)
(1.29858e-05 4.78023e-06 -4.27488e-07)
(1.26369e-05 4.65563e-06 7.8183e-08)
(1.22829e-05 4.5288e-06 4.57838e-07)
(1.19199e-05 4.39878e-06 8.98824e-07)
(1.25623e-05 5.77796e-06 -4.26969e-07)
(1.22241e-05 5.62732e-06 7.855e-08)
(1.18811e-05 5.47382e-06 4.58078e-07)
(1.15294e-05 5.31656e-06 8.98948e-07)
(1.20596e-05 6.73874e-06 -4.26355e-07)
(1.17342e-05 6.56258e-06 7.89933e-08)
(1.14044e-05 6.38306e-06 4.58383e-07)
(1.10664e-05 6.1992e-06 8.99138e-07)
(1.14818e-05 7.65745e-06 -4.25647e-07)
(1.11716e-05 7.45624e-06 7.95014e-08)
(1.08575e-05 7.25133e-06 4.58737e-07)
(1.05355e-05 7.04147e-06 8.99384e-07)
(1.08341e-05 8.52985e-06 -4.24903e-07)
(1.05417e-05 8.30416e-06 8.00074e-08)
(1.02457e-05 8.07457e-06 4.59084e-07)
(9.94222e-06 7.8394e-06 8.99632e-07)
(1.01223e-05 9.35248e-06 -4.24331e-07)
(9.85029e-06 9.10308e-06 8.03564e-08)
(9.57471e-06 8.84983e-06 4.59312e-07)
(9.29223e-06 8.5903e-06 8.99796e-07)
(9.35248e-06 1.01223e-05 -4.24331e-07)
(9.10308e-06 9.8503e-06 8.03564e-08)
(8.84983e-06 9.57471e-06 4.59312e-07)
(8.5903e-06 9.29223e-06 8.99796e-07)
(8.52985e-06 1.08341e-05 -4.24903e-07)
(8.30416e-06 1.05417e-05 8.00074e-08)
(8.07457e-06 1.02457e-05 4.59084e-07)
(7.8394e-06 9.94222e-06 8.99632e-07)
(7.65745e-06 1.14818e-05 -4.25647e-07)
(7.45624e-06 1.11716e-05 7.95014e-08)
(7.25133e-06 1.08575e-05 4.58737e-07)
(7.04147e-06 1.05355e-05 8.99384e-07)
(6.73874e-06 1.20596e-05 -4.26355e-07)
(6.56258e-06 1.17342e-05 7.89933e-08)
(6.38306e-06 1.14044e-05 4.58383e-07)
(6.1992e-06 1.10664e-05 8.99138e-07)
(5.77796e-06 1.25623e-05 -4.26969e-07)
(5.62732e-06 1.22241e-05 7.855e-08)
(5.47382e-06 1.18811e-05 4.58078e-07)
(5.31656e-06 1.15294e-05 8.98947e-07)
(4.78023e-06 1.29858e-05 -4.27488e-07)
(4.65563e-06 1.26369e-05 7.8183e-08)
(4.5288e-06 1.22829e-05 4.57838e-07)
(4.39878e-06 1.19199e-05 8.98824e-07)
(3.75138e-06 1.33269e-05 -4.27948e-07)
(3.65353e-06 1.29694e-05 7.78646e-08)
(3.55409e-06 1.26066e-05 4.5764e-07)
(3.45209e-06 1.22347e-05 8.98746e-07)
(2.69784e-06 1.35838e-05 -4.28453e-07)
(2.62756e-06 1.32198e-05 7.75059e-08)
(2.55631e-06 1.28504e-05 4.57409e-07)
(2.48322e-06 1.24717e-05 8.98636e-07)
(1.62621e-06 1.37555e-05 -4.29333e-07)
(1.58449e-06 1.33874e-05 7.68644e-08)
(1.54213e-06 1.30138e-05 4.56919e-07)
(1.49888e-06 1.26305e-05 8.98254e-07)
(5.43871e-07 1.38428e-05 -4.31345e-07)
(5.31232e-07 1.34733e-05 7.5298e-08)
(5.1785e-07 1.30979e-05 4.55422e-07)
(5.05249e-07 1.2713e-05 8.96617e-07)
(1.08087e-05 4.22695e-07 -1.16647e-06)
(1.05151e-05 4.12836e-07 -2.60808e-07)
(1.02448e-05 4.03216e-07 5.29269e-07)
(9.99268e-06 3.94928e-07 1.37427e-06)
(1.07402e-05 1.26789e-06 -1.16378e-06)
(1.04479e-05 1.23486e-06 -2.58322e-07)
(1.01788e-05 1.20455e-06 5.31681e-07)
(9.92802e-06 1.17654e-06 1.37653e-06)
(1.06061e-05 2.10489e-06 -1.16222e-06)
(1.03172e-05 2.04923e-06 -2.57056e-07)
(1.00511e-05 1.99823e-06 5.32649e-07)
(9.80331e-06 1.95079e-06 1.37713e-06)
(1.04056e-05 2.92768e-06 -1.16111e-06)
(1.01218e-05 2.85022e-06 -2.56363e-07)
(9.86051e-06 2.77904e-06 5.32955e-07)
(9.61703e-06 2.71286e-06 1.37702e-06)
(1.01392e-05 3.73099e-06 -1.16008e-06)
(9.86217e-06 3.63241e-06 -2.55894e-07)
(9.60716e-06 3.54166e-06 5.32937e-07)
(9.36947e-06 3.45736e-06 1.37648e-06)
(9.80825e-06 4.50982e-06 -1.15897e-06)
(9.53964e-06 4.39066e-06 -2.55499e-07)
(9.29248e-06 4.28085e-06 5.32748e-07)
(9.06206e-06 4.17892e-06 1.37565e-06)
(9.41515e-06 5.25963e-06 -1.15779e-06)
(9.15671e-06 5.12027e-06 -2.55122e-07)
(8.91906e-06 4.99179e-06 5.32484e-07)
(8.69747e-06 4.87257e-06 1.37468e-06)
(8.96327e-06 5.97652e-06 -1.1566e-06)
(8.71694e-06 5.81726e-06 -2.54756e-07)
(8.49057e-06 5.67046e-06 5.32218e-07)
(8.27952e-06 5.53419e-06 1.37373e-06)
(8.45683e-06 6.6573e-06 -1.15555e-06)
(8.22469e-06 6.4785e-06 -2.54432e-07)
(8.01147e-06 6.31379e-06 5.32013e-07)
(7.81274e-06 6.16075e-06 1.37296e-06)
(7.90057e-06 7.2994e-06 -1.15487e-06)
(7.68474e-06 7.10164e-06 -2.54223e-07)
(7.48644e-06 6.91967e-06 5.31907e-07)
(7.30175e-06 6.75036e-06 1.37253e-06)
(7.2994e-06 7.90057e-06 -1.15487e-06)
(7.10164e-06 7.68474e-06 -2.54223e-07)
(6.91967e-06 7.48644e-06 5.31907e-07)
(6.75036e-06 7.30175e-06 1.37253e-06)
(6.6573e-06 8.45683e-06 -1.15555e-06)
(6.4785e-06 8.22469e-06 -2.54432e-07)
(6.31379e-06 8.01147e-06 5.32013e-07)
(6.16075e-06 7.81274e-06 1.37296e-06)
(5.97652e-06 8.96327e-06 -1.1566e-06)
(5.81726e-06 8.71694e-06 -2.54756e-07)
(5.67046e-06 8.49057e-06 5.32218e-07)
(5.53419e-06 8.27952e-06 1.37373e-06)
(5.25963e-06 9.41515e-06 -1.15779e-06)
(5.12027e-06 9.15671e-06 -2.55122e-07)
(4.99179e-06 8.91906e-06 5.32484e-07)
(4.87257e-06 8.69747e-06 1.37468e-06)
(4.50982e-06 9.80825e-06 -1.15897e-06)
(4.39066e-06 9.53964e-06 -2.55499e-07)
(4.28085e-06 9.29248e-06 5.32748e-07)
(4.17892e-06 9.06206e-06 1.37565e-06)
(3.73099e-06 1.01392e-05 -1.16008e-06)
(3.63241e-06 9.86217e-06 -2.55894e-07)
(3.54166e-06 9.60716e-06 5.32937e-07)
(3.45736e-06 9.36947e-06 1.37648e-06)
(2.92768e-06 1.04056e-05 -1.16111e-06)
(2.85022e-06 1.01218e-05 -2.56363e-07)
(2.77904e-06 9.86051e-06 5.32955e-07)
(2.71286e-06 9.61703e-06 1.37702e-06)
(2.10489e-06 1.06061e-05 -1.16222e-06)
(2.04923e-06 1.03172e-05 -2.57056e-07)
(1.99823e-06 1.00511e-05 5.32649e-07)
(1.95079e-06 9.80331e-06 1.37713e-06)
(1.26789e-06 1.07402e-05 -1.16378e-06)
(1.23486e-06 1.04479e-05 -2.58321e-07)
(1.20455e-06 1.01788e-05 5.31681e-07)
(1.17654e-06 9.92802e-06 1.37653e-06)
(4.22695e-07 1.08087e-05 -1.16647e-06)
(4.12836e-07 1.05151e-05 -2.60807e-07)
(4.03216e-07 1.02448e-05 5.29269e-07)
(3.94928e-07 9.99268e-06 1.37427e-06)
(7.77006e-06 3.0243e-07 -1.27247e-06)
(7.52812e-06 2.94371e-07 -3.69851e-07)
(7.33708e-06 2.87544e-07 4.63151e-07)
(7.19128e-06 2.82678e-07 1.31942e-06)
(7.7203e-06 9.10153e-07 -1.27047e-06)
(7.47982e-06 8.82923e-07 -3.67967e-07)
(7.28988e-06 8.61556e-07 4.64934e-07)
(7.14507e-06 8.45528e-07 1.32094e-06)
(7.62407e-06 1.51219e-06 -1.26899e-06)
(7.38639e-06 1.46622e-06 -3.6679e-07)
(7.19866e-06 1.43027e-06 4.65778e-07)
(7.0556e-06 1.40309e-06 1.32138e-06)
(7.48038e-06 2.10408e-06 -1.26776e-06)
(7.24699e-06 2.04009e-06 -3.66055e-07)
(7.06259e-06 1.98991e-06 4.66048e-07)
(6.922e-06 1.95199e-06 1.32116e-06)
(7.28948e-06 2.68201e-06 -1.26657e-06)
(7.0617e-06 2.60057e-06 -3.65556e-07)
(6.8817e-06 2.53661e-06 4.65942e-07)
(6.74437e-06 2.48836e-06 1.32042e-06)
(7.05223e-06 3.24238e-06 -1.26533e-06)
(6.83138e-06 3.14395e-06 -3.65181e-07)
(6.65686e-06 3.06656e-06 4.65578e-07)
(6.52361e-06 3.00826e-06 1.31926e-06)
(6.77024e-06 3.78192e-06 -1.26403e-06)
(6.55773e-06 3.66684e-06 -3.64881e-07)
(6.38985e-06 3.57629e-06 4.65062e-07)
(6.2616e-06 3.50806e-06 1.31785e-06)
(6.44586e-06 4.29783e-06 -1.26278e-06)
(6.24324e-06 4.16637e-06 -3.64635e-07)
(6.08326e-06 4.06284e-06 4.6451e-07)
(5.96107e-06 3.98473e-06 1.31643e-06)
(6.08206e-06 4.78777e-06 -1.26174e-06)
(5.89101e-06 4.64026e-06 -3.64445e-07)
(5.74029e-06 4.524e-06 4.64047e-07)
(5.62529e-06 4.43605e-06 1.31525e-06)
(5.68222e-06 5.24983e-06 -1.2611e-06)
(5.50444e-06 5.08677e-06 -3.6433e-07)
(5.36429e-06 4.95822e-06 4.63784e-07)
(5.25757e-06 4.86064e-06 1.31458e-06)
(5.24983e-06 5.68222e-06 -1.2611e-06)
(5.08677e-06 5.50444e-06 -3.6433e-07)
(4.95822e-06 5.36429e-06 4.63784e-07)
(4.86064e-06 5.25757e-06 1.31458e-06)
(4.78777e-06 6.08206e-06 -1.26174e-06)
(4.64026e-06 5.89101e-06 -3.64445e-07)
(4.524e-06 5.74029e-06 4.64047e-07)
(4.43605e-06 5.62529e-06 1.31525e-06)
(4.29783e-06 6.44586e-06 -1.26278e-06)
(4.16637e-06 6.24324e-06 -3.64635e-07)
(4.06284e-06 6.08326e-06 4.6451e-07)
(3.98473e-06 5.96107e-06 1.31643e-06)
(3.78192e-06 6.77025e-06 -1.26403e-06)
(3.66684e-06 6.55773e-06 -3.64881e-07)
(3.57629e-06 6.38985e-06 4.65062e-07)
(3.50806e-06 6.2616e-06 1.31785e-06)
(3.24238e-06 7.05223e-06 -1.26533e-06)
(3.14395e-06 6.83138e-06 -3.65181e-07)
(3.06656e-06 6.65686e-06 4.65578e-07)
(3.00826e-06 6.52361e-06 1.31926e-06)
(2.68201e-06 7.28948e-06 -1.26657e-06)
(2.60057e-06 7.0617e-06 -3.65556e-07)
(2.53661e-06 6.8817e-06 4.65942e-07)
(2.48836e-06 6.74437e-06 1.32042e-06)
(2.10408e-06 7.48038e-06 -1.26776e-06)
(2.04009e-06 7.24699e-06 -3.66055e-07)
(1.98991e-06 7.06259e-06 4.66048e-07)
(1.95199e-06 6.922e-06 1.32116e-06)
(1.51219e-06 7.62407e-06 -1.26899e-06)
(1.46622e-06 7.38639e-06 -3.6679e-07)
(1.43027e-06 7.19866e-06 4.65778e-07)
(1.40309e-06 7.0556e-06 1.32138e-06)
(9.10153e-07 7.7203e-06 -1.27047e-06)
(8.82923e-07 7.47982e-06 -3.67967e-07)
(8.61556e-07 7.28988e-06 4.64934e-07)
(8.45528e-07 7.14507e-06 1.32094e-06)
(3.0243e-07 7.77006e-06 -1.27247e-06)
(2.94371e-07 7.52812e-06 -3.69851e-07)
(2.87544e-07 7.33708e-06 4.63151e-07)
(2.82678e-07 7.19128e-06 1.31942e-06)
(5.47137e-06 2.12267e-07 -1.0511e-06)
(5.27135e-06 2.05588e-07 -3.36357e-07)
(5.13184e-06 2.0056e-07 3.48146e-07)
(5.04751e-06 1.97667e-07 1.03056e-06)
(5.43594e-06 6.40386e-07 -1.05013e-06)
(5.23734e-06 6.17786e-07 -3.35473e-07)
(5.09889e-06 6.02132e-07 3.48919e-07)
(5.01538e-06 5.92893e-07 1.0311e-06)
(5.36839e-06 1.06465e-06 -1.04911e-06)
(5.17218e-06 1.02642e-06 -3.34726e-07)
(5.03537e-06 1.00007e-06 3.49385e-07)
(4.95289e-06 9.84399e-07 1.03125e-06)
(5.26776e-06 1.48189e-06 -1.04815e-06)
(5.07514e-06 1.42863e-06 -3.34166e-07)
(4.94077e-06 1.39185e-06 3.49553e-07)
(4.8597e-06 1.36998e-06 1.03103e-06)
(5.13414e-06 1.88945e-06 -1.04717e-06)
(4.94621e-06 1.82165e-06 -3.33753e-07)
(4.81504e-06 1.77477e-06 3.49451e-07)
(4.7358e-06 1.74696e-06 1.0304e-06)
(4.96804e-06 2.28477e-06 -1.04615e-06)
(4.78587e-06 2.20284e-06 -3.3345e-07)
(4.65867e-06 2.14614e-06 3.49121e-07)
(4.58171e-06 2.11258e-06 1.02941e-06)
(4.77047e-06 2.66553e-06 -1.04511e-06)
(4.59519e-06 2.56981e-06 -3.33227e-07)
(4.47278e-06 2.50349e-06 3.48638e-07)
(4.39863e-06 2.46423e-06 1.02818e-06)
(4.54296e-06 3.02971e-06 -1.04411e-06)
(4.37578e-06 2.92048e-06 -3.33066e-07)
(4.25908e-06 2.84469e-06 3.48109e-07)
(4.18836e-06 2.79971e-06 1.02691e-06)
(4.28746e-06 3.37554e-06 -1.0433e-06)
(4.1297e-06 3.25315e-06 -3.32952e-07)
(4.01966e-06 3.16809e-06 3.47659e-07)
(3.95308e-06 3.11736e-06 1.02585e-06)
(4.00621e-06 3.70153e-06 -1.0428e-06)
(3.8592e-06 3.56646e-06 -3.32884e-07)
(3.75679e-06 3.47246e-06 3.47401e-07)
(3.69503e-06 3.41607e-06 1.02525e-06)
(3.70153e-06 4.00621e-06 -1.0428e-06)
(3.56646e-06 3.8592e-06 -3.32884e-07)
(3.47246e-06 3.75679e-06 3.47401e-07)
(3.41607e-06 3.69503e-06 1.02525e-06)
(3.37554e-06 4.28746e-06 -1.0433e-06)
(3.25315e-06 4.1297e-06 -3.32952e-07)
(3.16809e-06 4.01966e-06 3.47659e-07)
(3.11736e-06 3.95308e-06 1.02585e-06)
(3.02971e-06 4.54296e-06 -1.04412e-06)
(2.92048e-06 4.37578e-06 -3.33066e-07)
(2.84469e-06 4.25908e-06 3.48109e-07)
(2.79971e-06 4.18836e-06 1.02691e-06)
(2.66553e-06 4.77047e-06 -1.04511e-06)
(2.56981e-06 4.59519e-06 -3.33227e-07)
(2.50349e-06 4.47278e-06 3.48638e-07)
(2.46423e-06 4.39863e-06 1.02818e-06)
(2.28477e-06 4.96804e-06 -1.04615e-06)
(2.20284e-06 4.78587e-06 -3.3345e-07)
(2.14614e-06 4.65867e-06 3.49121e-07)
(2.11258e-06 4.58171e-06 1.02941e-06)
(1.88945e-06 5.13414e-06 -1.04717e-06)
(1.82165e-06 4.94621e-06 -3.33753e-07)
(1.77477e-06 4.81504e-06 3.49451e-07)
(1.74696e-06 4.7358e-06 1.0304e-06)
(1.48189e-06 5.26776e-06 -1.04815e-06)
(1.42863e-06 5.07514e-06 -3.34166e-07)
(1.39185e-06 4.94077e-06 3.49554e-07)
(1.36998e-06 4.8597e-06 1.03103e-06)
(1.06465e-06 5.36839e-06 -1.04911e-06)
(1.02642e-06 5.17218e-06 -3.34726e-07)
(1.00007e-06 5.03537e-06 3.49385e-07)
(9.84399e-07 4.95289e-06 1.03125e-06)
(6.40387e-07 5.43594e-06 -1.05013e-06)
(6.17786e-07 5.23734e-06 -3.35473e-07)
(6.02132e-07 5.09889e-06 3.4892e-07)
(5.92893e-07 5.01538e-06 1.0311e-06)
(2.12267e-07 5.47137e-06 -1.0511e-06)
(2.05588e-07 5.27135e-06 -3.36357e-07)
(2.0056e-07 5.13184e-06 3.48146e-07)
(1.97667e-07 5.04751e-06 1.03056e-06)
(3.95049e-06 1.53135e-07 -7.58034e-07)
(3.78803e-06 1.47672e-07 -2.52834e-07)
(3.68098e-06 1.43778e-07 2.43212e-07)
(3.6249e-06 1.41798e-07 7.2601e-07)
(3.92472e-06 4.62435e-07 -7.57808e-07)
(3.76351e-06 4.43986e-07 -2.52695e-07)
(3.65741e-06 4.31888e-07 2.43256e-07)
(3.60201e-06 4.25678e-07 7.25901e-07)
(3.87613e-06 7.69007e-07 -7.57291e-07)
(3.71688e-06 7.37757e-07 -2.52376e-07)
(3.61207e-06 7.17382e-07 2.43381e-07)
(3.55735e-06 7.06862e-07 7.25837e-07)
(3.80386e-06 1.07061e-06 -7.56709e-07)
(3.64757e-06 1.02704e-06 -2.52052e-07)
(3.54465e-06 9.98589e-07 2.43446e-07)
(3.49088e-06 9.83894e-07 7.25661e-07)
(3.70798e-06 1.36535e-06 -7.56084e-07)
(3.55555e-06 1.30987e-06 -2.5178e-07)
(3.4551e-06 1.2736e-06 2.43378e-07)
(3.40254e-06 1.25492e-06 7.25266e-07)
(3.5888e-06 1.65137e-06 -7.55424e-07)
(3.44109e-06 1.58435e-06 -2.51572e-07)
(3.3437e-06 1.54051e-06 2.43165e-07)
(3.29264e-06 1.51798e-06 7.24633e-07)
(3.44697e-06 1.92698e-06 -7.54752e-07)
(3.30488e-06 1.84873e-06 -2.51424e-07)
(3.21115e-06 1.79751e-06 2.4284e-07)
(3.16193e-06 1.77119e-06 7.23825e-07)
(3.28348e-06 2.19063e-06 -7.54115e-07)
(3.14794e-06 2.10146e-06 -2.5132e-07)
(3.05855e-06 2.04301e-06 2.42476e-07)
(3.01157e-06 2.0129e-06 7.22976e-07)
(3.09962e-06 2.44098e-06 -7.53587e-07)
(2.97164e-06 2.34122e-06 -2.51247e-07)
(2.88728e-06 2.27572e-06 2.42164e-07)
(2.84299e-06 2.24182e-06 7.22265e-07)
(2.89688e-06 2.6768e-06 -7.53257e-07)
(2.77746e-06 2.5669e-06 -2.51201e-07)
(2.69884e-06 2.49463e-06 2.41987e-07)
(2.6577e-06 2.457e-06 7.21858e-07)
(2.6768e-06 2.89688e-06 -7.53257e-07)
(2.5669e-06 2.77746e-06 -2.51201e-07)
(2.49463e-06 2.69884e-06 2.41987e-07)
(2.457e-06 2.6577e-06 7.21858e-07)
(2.44098e-06 3.09962e-06 -7.53587e-07)
(2.34122e-06 2.97164e-06 -2.51247e-07)
(2.27572e-06 2.88728e-06 2.42164e-07)
(2.24182e-06 2.84299e-06 7.22265e-07)
(2.19063e-06 3.28348e-06 -7.54115e-07)
(2.10146e-06 3.14794e-06 -2.5132e-07)
(2.04301e-06 3.05855e-06 2.42476e-07)
(2.0129e-06 3.01157e-06 7.22977e-07)
(1.92698e-06 3.44697e-06 -7.54752e-07)
(1.84873e-06 3.30488e-06 -2.51424e-07)
(1.79751e-06 3.21115e-06 2.4284e-07)
(1.77119e-06 3.16193e-06 7.23825e-07)
(1.65137e-06 3.5888e-06 -7.55424e-07)
(1.58435e-06 3.44109e-06 -2.51572e-07)
(1.54051e-06 3.3437e-06 2.43165e-07)
(1.51798e-06 3.29264e-06 7.24633e-07)
(1.36535e-06 3.70798e-06 -7.56084e-07)
(1.30987e-06 3.55555e-06 -2.5178e-07)
(1.2736e-06 3.4551e-06 2.43378e-07)
(1.25492e-06 3.40254e-06 7.25266e-07)
(1.07061e-06 3.80386e-06 -7.56709e-07)
(1.02704e-06 3.64757e-06 -2.52052e-07)
(9.98589e-07 3.54465e-06 2.43446e-07)
(9.83894e-07 3.49088e-06 7.25661e-07)
(7.69007e-07 3.87613e-06 -7.57291e-07)
(7.37757e-07 3.71688e-06 -2.52376e-07)
(7.17382e-07 3.61206e-06 2.43381e-07)
(7.06862e-07 3.55735e-06 7.25837e-07)
(4.62435e-07 3.92472e-06 -7.57808e-07)
(4.43986e-07 3.76351e-06 -2.52695e-07)
(4.31888e-07 3.65741e-06 2.43256e-07)
(4.25678e-07 3.60201e-06 7.25901e-07)
(1.53135e-07 3.95049e-06 -7.58034e-07)
(1.47672e-07 3.78803e-06 -2.52834e-07)
(1.43778e-07 3.68098e-06 2.43212e-07)
(1.41798e-07 3.6249e-06 7.2601e-07)
(2.97954e-06 1.15631e-07 -5.17832e-07)
(2.85047e-06 1.11262e-07 -1.73611e-07)
(2.76546e-06 1.0815e-07 1.68497e-07)
(2.72105e-06 1.06563e-07 4.96403e-07)
(2.96006e-06 3.49046e-07 -5.17964e-07)
(2.83201e-06 3.34327e-07 -1.73825e-07)
(2.74779e-06 3.24651e-07 1.68215e-07)
(2.70393e-06 3.19655e-07 4.96041e-07)
(2.92349e-06 5.804e-07 -5.17793e-07)
(2.79701e-06 5.55448e-07 -1.73781e-07)
(2.71382e-06 5.39145e-07 1.68145e-07)
(2.67051e-06 5.30692e-07 4.95877e-07)
(2.86916e-06 8.08051e-07 -5.1753e-07)
(2.74505e-06 7.73242e-07 -1.73648e-07)
(2.66339e-06 7.50469e-07 1.68138e-07)
(2.62083e-06 7.38649e-07 4.95754e-07)
(2.79713e-06 1.03059e-06 -5.17215e-07)
(2.67611e-06 9.86253e-07 -1.73506e-07)
(2.59644e-06 9.57228e-07 1.68101e-07)
(2.55487e-06 9.4219e-07 4.95558e-07)
(2.70761e-06 1.24661e-06 -5.16871e-07)
(2.59038e-06 1.19307e-06 -1.73387e-07)
(2.51316e-06 1.158e-06 1.67995e-07)
(2.47281e-06 1.13987e-06 4.95242e-07)
(2.60107e-06 1.45483e-06 -5.16514e-07)
(2.48832e-06 1.39237e-06 -1.73299e-07)
(2.41403e-06 1.35143e-06 1.67826e-07)
(2.37514e-06 1.33028e-06 4.94823e-07)
(2.47819e-06 1.65403e-06 -5.16169e-07)
(2.37065e-06 1.58293e-06 -1.73234e-07)
(2.29979e-06 1.53628e-06 1.6763e-07)
(2.26266e-06 1.51216e-06 4.9437e-07)
(2.33987e-06 1.84315e-06 -5.15873e-07)
(2.2383e-06 1.76371e-06 -1.73184e-07)
(2.17139e-06 1.71153e-06 1.67461e-07)
(2.13636e-06 1.68447e-06 4.93985e-07)
(2.18717e-06 2.02119e-06 -5.15678e-07)
(2.09232e-06 1.9338e-06 -1.73149e-07)
(2.02989e-06 1.87632e-06 1.67366e-07)
(1.99728e-06 1.8464e-06 4.93765e-07)
(2.02119e-06 2.18717e-06 -5.15678e-07)
(1.9338e-06 2.09232e-06 -1.73149e-07)
(1.87632e-06 2.02989e-06 1.67366e-07)
(1.8464e-06 1.99728e-06 4.93765e-07)
(1.84315e-06 2.33987e-06 -5.15873e-07)
(1.76371e-06 2.2383e-06 -1.73184e-07)
(1.71153e-06 2.17139e-06 1.67461e-07)
(1.68447e-06 2.13636e-06 4.93986e-07)
(1.65403e-06 2.47819e-06 -5.16169e-07)
(1.58293e-06 2.37065e-06 -1.73234e-07)
(1.53628e-06 2.29979e-06 1.6763e-07)
(1.51216e-06 2.26266e-06 4.9437e-07)
(1.45483e-06 2.60107e-06 -5.16514e-07)
(1.39237e-06 2.48832e-06 -1.73299e-07)
(1.35143e-06 2.41403e-06 1.67826e-07)
(1.33028e-06 2.37514e-06 4.94823e-07)
(1.24661e-06 2.70761e-06 -5.16871e-07)
(1.19307e-06 2.59038e-06 -1.73388e-07)
(1.158e-06 2.51316e-06 1.67995e-07)
(1.13987e-06 2.47281e-06 4.95242e-07)
(1.03059e-06 2.79713e-06 -5.17215e-07)
(9.86253e-07 2.67611e-06 -1.73506e-07)
(9.57228e-07 2.59644e-06 1.68101e-07)
(9.4219e-07 2.55487e-06 4.95558e-07)
(8.08051e-07 2.86916e-06 -5.1753e-07)
(7.73242e-07 2.74505e-06 -1.73648e-07)
(7.50469e-07 2.66339e-06 1.68138e-07)
(7.38649e-07 2.62083e-06 4.95754e-07)
(5.804e-07 2.92349e-06 -5.17793e-07)
(5.55448e-07 2.79701e-06 -1.73781e-07)
(5.39145e-07 2.71382e-06 1.68145e-07)
(5.30691e-07 2.67051e-06 4.95877e-07)
(3.49046e-07 2.96006e-06 -5.17964e-07)
(3.34327e-07 2.832e-06 -1.73825e-07)
(3.24651e-07 2.74779e-06 1.68215e-07)
(3.19655e-07 2.70393e-06 4.96041e-07)
(1.15631e-07 2.97954e-06 -5.17831e-07)
(1.11262e-07 2.85047e-06 -1.73611e-07)
(1.08149e-07 2.76546e-06 1.68497e-07)
(1.06563e-07 2.72105e-06 4.96403e-07)
(2.32924e-06 9.05581e-08 -3.56726e-07)
(2.22833e-06 8.71273e-08 -1.1682e-07)
(2.16006e-06 8.46209e-08 1.2141e-07)
(2.12181e-06 8.32584e-08 3.48714e-07)
(2.31404e-06 2.73101e-07 -3.56947e-07)
(2.2139e-06 2.61562e-07 -1.17108e-07)
(2.14626e-06 2.53755e-07 1.21078e-07)
(2.10845e-06 2.49411e-07 3.48347e-07)
(2.28546e-06 4.54007e-07 -3.56949e-07)
(2.18655e-06 4.3444e-07 -1.17186e-07)
(2.11974e-06 4.21284e-07 1.2094e-07)
(2.0824e-06 4.13936e-07 3.48171e-07)
(2.24301e-06 6.32018e-07 -3.56877e-07)
(2.14596e-06 6.04715e-07 -1.17166e-07)
(2.08038e-06 5.86332e-07 1.20899e-07)
(2.04371e-06 5.76053e-07 3.48088e-07)
(2.18674e-06 8.06045e-07 -3.56759e-07)
(2.09213e-06 7.71269e-07 -1.17112e-07)
(2.02816e-06 7.47836e-07 1.20878e-07)
(1.99237e-06 7.34749e-07 3.4801e-07)
(2.11684e-06 9.75003e-07 -3.56615e-07)
(2.02521e-06 9.33008e-07 -1.17055e-07)
(1.96324e-06 9.04701e-07 1.20838e-07)
(1.92853e-06 8.88921e-07 3.47888e-07)
(2.03367e-06 1.13786e-06 -3.56454e-07)
(1.94557e-06 1.08889e-06 -1.17007e-07)
(1.88596e-06 1.05587e-06 1.20769e-07)
(1.85253e-06 1.03748e-06 3.47715e-07)
(1.93774e-06 1.29367e-06 -3.56287e-07)
(1.85372e-06 1.23796e-06 -1.16967e-07)
(1.79687e-06 1.20038e-06 1.20685e-07)
(1.76497e-06 1.17944e-06 3.47519e-07)
(1.82974e-06 1.44156e-06 -3.56132e-07)
(1.75037e-06 1.37938e-06 -1.1693e-07)
(1.69669e-06 1.33739e-06 1.20613e-07)
(1.66657e-06 1.31397e-06 3.47348e-07)
(1.71046e-06 1.58075e-06 -3.56022e-07)
(1.63632e-06 1.5124e-06 -1.16902e-07)
(1.5862e-06 1.46621e-06 1.20574e-07)
(1.55812e-06 1.44038e-06 3.47249e-07)
(1.58075e-06 1.71046e-06 -3.56022e-07)
(1.5124e-06 1.63632e-06 -1.16902e-07)
(1.46621e-06 1.5862e-06 1.20574e-07)