/*--------------------------------*- C++ -*----------------------------------*\
| =========                 |                                                 |
| \\      /  F ield         | foam-extend: Open Source CFD                    |
|  \\    /   O peration     | Version:     3.1                                |
|   \\  /    A nd           | Web:         http://www.extend-project.de       |
|    \\/     M anipulation  |                                                 |
\*---------------------------------------------------------------------------*/
FoamFile
{
    version     2.0;
    format      ascii;
    class       volVectorField;
    location    "0.0005";
    object      D_0_0_0;
}
// * * * * * * * * * * * * * * * * * * * * * * * * * * * * * * * * * * * * * //

dimensions      [0 1 0 0 0 0 0];

internalField   nonuniform List<vector> 
6400
(
(3.67818e-06 1.39366e-07 1.01677e-06)
(3.04342e-06 1.16907e-07 2.05568e-07)
(2.6851e-06 1.03106e-07 -2.24697e-07)
(2.55659e-06 9.68069e-08 -8.87653e-07)
(3.65382e-06 4.30155e-07 1.01627e-06)
(3.02371e-06 3.56284e-07 2.05943e-07)
(2.66746e-06 3.14472e-07 -2.24157e-07)
(2.54032e-06 2.99379e-07 -8.87004e-07)
(3.60848e-06 7.1657e-07 1.01559e-06)
(2.98628e-06 5.93043e-07 2.05743e-07)
(2.63444e-06 5.2343e-07 -2.24153e-07)
(2.50889e-06 4.98721e-07 -8.86861e-07)
(3.54099e-06 9.97464e-07 1.01522e-06)
(2.93043e-06 8.25664e-07 2.05605e-07)
(2.5851e-06 7.28797e-07 -2.24124e-07)
(2.46179e-06 6.94503e-07 -8.86655e-07)
(3.45155e-06 1.2716e-06 1.01491e-06)
(2.85625e-06 1.05278e-06 2.05544e-07)
(2.51949e-06 9.29334e-07 -2.24005e-07)
(2.39914e-06 8.8567e-07 -8.86271e-07)
(3.34061e-06 1.53755e-06 1.01457e-06)
(2.76414e-06 1.27306e-06 2.05537e-07)
(2.43798e-06 1.1238e-06 -2.23795e-07)
(2.32128e-06 1.071e-06 -8.85695e-07)
(3.20883e-06 1.79387e-06 1.01425e-06)
(2.65469e-06 1.48523e-06 2.05584e-07)
(2.34114e-06 1.31097e-06 -2.23507e-07)
(2.22884e-06 1.24928e-06 -8.84961e-07)
(3.05703e-06 2.03917e-06 1.01402e-06)
(2.52867e-06 1.68808e-06 2.05702e-07)
(2.22974e-06 1.48974e-06 -2.23168e-07)
(2.12261e-06 1.41939e-06 -8.84162e-07)
(2.88622e-06 2.27218e-06 1.01401e-06)
(2.38705e-06 1.88054e-06 2.05909e-07)
(2.10474e-06 1.65915e-06 -2.22829e-07)
(2.0036e-06 1.58039e-06 -8.83443e-07)
(2.69746e-06 2.49182e-06 1.01438e-06)
(2.23095e-06 2.0617e-06 2.06173e-07)
(1.96725e-06 1.81847e-06 -2.22576e-07)
(1.87293e-06 1.73168e-06 -8.82994e-07)
(2.49182e-06 2.69746e-06 1.01438e-06)
(2.0617e-06 2.23095e-06 2.06173e-07)
(1.81846e-06 1.96725e-06 -2.22576e-07)
(1.73168e-06 1.87293e-06 -8.82994e-07)
(2.27218e-06 2.88622e-06 1.01401e-06)
(1.88054e-06 2.38705e-06 2.05909e-07)
(1.65915e-06 2.10474e-06 -2.22829e-07)
(1.58039e-06 2.0036e-06 -8.83443e-07)
(2.03917e-06 3.05703e-06 1.01402e-06)
(1.68808e-06 2.52867e-06 2.05702e-07)
(1.48974e-06 2.22974e-06 -2.23168e-07)
(1.41939e-06 2.12261e-06 -8.84162e-07)
(1.79387e-06 3.20883e-06 1.01425e-06)
(1.48523e-06 2.65469e-06 2.05584e-07)
(1.31097e-06 2.34114e-06 -2.23507e-07)
(1.24928e-06 2.22884e-06 -8.84962e-07)
(1.53755e-06 3.34061e-06 1.01457e-06)
(1.27306e-06 2.76414e-06 2.05537e-07)
(1.1238e-06 2.43798e-06 -2.23795e-07)
(1.071e-06 2.32128e-06 -8.85695e-07)
(1.2716e-06 3.45155e-06 1.01491e-06)
(1.05278e-06 2.85625e-06 2.05544e-07)
(9.29334e-07 2.51949e-06 -2.24005e-07)
(8.8567e-07 2.39914e-06 -8.86271e-07)
(9.97464e-07 3.54099e-06 1.01522e-06)
(8.25664e-07 2.93043e-06 2.05605e-07)
(7.28797e-07 2.5851e-06 -2.24124e-07)
(6.94503e-07 2.46179e-06 -8.86655e-07)
(7.1657e-07 3.60848e-06 1.01559e-06)
(5.93043e-07 2.98628e-06 2.05743e-07)
(5.2343e-07 2.63444e-06 -2.24153e-07)
(4.98721e-07 2.50889e-06 -8.86861e-07)
(4.30155e-07 3.65382e-06 1.01627e-06)
(3.56284e-07 3.02371e-06 2.05943e-07)
(3.14472e-07 2.66746e-06 -2.24157e-07)
(2.99379e-07 2.54032e-06 -8.87004e-07)
(1.39366e-07 3.67818e-06 1.01677e-06)
(1.16907e-07 3.04342e-06 2.05568e-07)
(1.03106e-07 2.6851e-06 -2.24697e-07)
(9.68069e-08 2.55659e-06 -8.87653e-07)
(7.84966e-06 3.09888e-07 1.11766e-06)
(7.26205e-06 2.87818e-07 4.76526e-07)
(6.82231e-06 2.7134e-07 -5.26919e-08)
(6.52814e-06 2.61828e-07 -6.85339e-07)
(7.79733e-06 9.23535e-07 1.11532e-06)
(7.21426e-06 8.55192e-07 4.74314e-07)
(6.77876e-06 8.04421e-07 -5.49348e-08)
(6.48737e-06 7.70848e-07 -6.8777e-07)
(7.70012e-06 1.53138e-06 1.11458e-06)
(7.12432e-06 1.41735e-06 4.73766e-07)
(6.69431e-06 1.33258e-06 -5.5343e-08)
(6.40661e-06 1.27612e-06 -6.88022e-07)
(7.55534e-06 2.12901e-06 1.11423e-06)
(6.99025e-06 1.97059e-06 4.7365e-07)
(6.56819e-06 1.85259e-06 -5.52622e-08)
(6.28574e-06 1.77398e-06 -6.87693e-07)
(7.36318e-06 2.7128e-06 1.11393e-06)
(6.81214e-06 2.51116e-06 4.73677e-07)
(6.40054e-06 2.36084e-06 -5.49782e-08)
(6.12501e-06 2.26072e-06 -6.87064e-07)
(7.12459e-06 3.27912e-06 1.1136e-06)
(6.59089e-06 3.0355e-06 4.73782e-07)
(6.19226e-06 2.85379e-06 -5.45507e-08)
(5.92533e-06 2.73279e-06 -6.86179e-07)
(6.84116e-06 3.82459e-06 1.11328e-06)
(6.32809e-06 3.54032e-06 4.73967e-07)
(5.94493e-06 3.32819e-06 -5.40075e-08)
(5.68829e-06 3.18692e-06 -6.85097e-07)
(6.51504e-06 4.34621e-06 1.11308e-06)
(6.02588e-06 4.0227e-06 4.74244e-07)
(5.6607e-06 3.78122e-06 -5.33991e-08)
(5.41611e-06 3.62029e-06 -6.83945e-07)
(6.14885e-06 4.84145e-06 1.11313e-06)
(5.68692e-06 4.48028e-06 4.74596e-07)
(5.34224e-06 4.21061e-06 -5.28244e-08)
(5.1115e-06 4.03069e-06 -6.82934e-07)
(5.74551e-06 5.30835e-06 1.11336e-06)
(5.31425e-06 4.91121e-06 4.74897e-07)
(4.99258e-06 4.61474e-06 -5.2446e-08)
(4.77743e-06 4.41667e-06 -6.82321e-07)
(5.30835e-06 5.74551e-06 1.11336e-06)
(4.91121e-06 5.31425e-06 4.74897e-07)
(4.61474e-06 4.99258e-06 -5.2446e-08)
(4.41667e-06 4.77743e-06 -6.82321e-07)
(4.84145e-06 6.14885e-06 1.11313e-06)
(4.48028e-06 5.68692e-06 4.74596e-07)
(4.21061e-06 5.34224e-06 -5.28244e-08)
(4.03069e-06 5.1115e-06 -6.82934e-07)
(4.34621e-06 6.51504e-06 1.11308e-06)
(4.0227e-06 6.02588e-06 4.74244e-07)
(3.78122e-06 5.6607e-06 -5.33992e-08)
(3.62029e-06 5.41611e-06 -6.83945e-07)
(3.82459e-06 6.84116e-06 1.11328e-06)
(3.54032e-06 6.32809e-06 4.73967e-07)
(3.32819e-06 5.94493e-06 -5.40075e-08)
(3.18692e-06 5.68829e-06 -6.85097e-07)
(3.27912e-06 7.12459e-06 1.1136e-06)
(3.0355e-06 6.59089e-06 4.73782e-07)
(2.85379e-06 6.19226e-06 -5.45507e-08)
(2.73279e-06 5.92533e-06 -6.86179e-07)
(2.7128e-06 7.36318e-06 1.11393e-06)
(2.51116e-06 6.81214e-06 4.73677e-07)
(2.36084e-06 6.40054e-06 -5.49782e-08)
(2.26072e-06 6.12501e-06 -6.87064e-07)
(2.12901e-06 7.55534e-06 1.11423e-06)
(1.97059e-06 6.99025e-06 4.7365e-07)
(1.85259e-06 6.56819e-06 -5.52622e-08)
(1.77398e-06 6.28574e-06 -6.87693e-07)
(1.53138e-06 7.70012e-06 1.11458e-06)
(1.41735e-06 7.12432e-06 4.73766e-07)
(1.33258e-06 6.69431e-06 -5.5343e-08)
(1.27612e-06 6.40662e-06 -6.88022e-07)
(9.23535e-07 7.79733e-06 1.11532e-06)
(8.55192e-07 7.21426e-06 4.74314e-07)
(8.04421e-07 6.77876e-06 -5.49347e-08)
(7.70848e-07 6.48737e-06 -6.8777e-07)
(3.09888e-07 7.84966e-06 1.11766e-06)
(2.87818e-07 7.26205e-06 4.76526e-07)
(2.7134e-07 6.82231e-06 -5.26918e-08)
(2.61828e-07 6.52814e-06 -6.85339e-07)
(8.37563e-06 3.29862e-07 3.15123e-07)
(7.98645e-06 3.16335e-07 2.98999e-07)
(7.64458e-06 3.03926e-07 2.11607e-07)
(7.34928e-06 2.93956e-07 1.36346e-07)
(8.32213e-06 9.85302e-07 3.15345e-07)
(7.93519e-06 9.40657e-07 2.98556e-07)
(7.5957e-06 9.01503e-07 2.10992e-07)
(7.30221e-06 8.67753e-07 1.35973e-07)
(8.21886e-06 1.63407e-06 3.15379e-07)
(7.8365e-06 1.55892e-06 2.9835e-07)
(7.50105e-06 1.49323e-06 2.10724e-07)
(7.21106e-06 1.43654e-06 1.35788e-07)
(8.06405e-06 2.27165e-06 3.15355e-07)
(7.68872e-06 2.16719e-06 2.98317e-07)
(7.35939e-06 2.07568e-06 2.10708e-07)
(7.07463e-06 1.99674e-06 1.35828e-07)
(7.85808e-06 2.89417e-06 3.15361e-07)
(7.49203e-06 2.76132e-06 2.98381e-07)
(7.17084e-06 2.64477e-06 2.10826e-07)
(6.89304e-06 2.54429e-06 1.36033e-07)
(7.60205e-06 3.49771e-06 3.15408e-07)
(7.24749e-06 3.33734e-06 2.98518e-07)
(6.93644e-06 3.1965e-06 2.11037e-07)
(6.66734e-06 3.07511e-06 1.36366e-07)
(7.29783e-06 4.0787e-06 3.1552e-07)
(6.957e-06 3.89159e-06 2.98723e-07)
(6.65809e-06 3.7272e-06 2.11319e-07)
(6.39944e-06 3.58549e-06 1.36789e-07)
(6.94794e-06 4.63399e-06 3.15731e-07)
(6.62315e-06 4.42095e-06 2.98992e-07)
(6.33843e-06 4.23374e-06 2.11641e-07)
(6.09205e-06 4.07228e-06 1.37245e-07)
(6.55554e-06 5.16109e-06 3.16047e-07)
(6.24919e-06 4.92297e-06 2.99286e-07)
(5.98074e-06 4.71375e-06 2.11943e-07)
(5.74848e-06 4.53315e-06 1.37645e-07)
(6.12425e-06 5.65821e-06 3.16341e-07)
(5.83882e-06 5.39594e-06 2.99497e-07)
(5.58865e-06 5.16567e-06 2.12134e-07)
(5.3723e-06 4.96669e-06 1.37884e-07)
(5.65821e-06 6.12425e-06 3.16341e-07)
(5.39594e-06 5.83882e-06 2.99497e-07)
(5.16567e-06 5.58865e-06 2.12134e-07)
(4.96669e-06 5.3723e-06 1.37884e-07)
(5.16109e-06 6.55554e-06 3.16047e-07)
(4.92297e-06 6.24919e-06 2.99286e-07)
(4.71375e-06 5.98074e-06 2.11943e-07)
(4.53315e-06 5.74848e-06 1.37645e-07)
(4.63399e-06 6.94794e-06 3.15731e-07)
(4.42095e-06 6.62315e-06 2.98992e-07)
(4.23374e-06 6.33843e-06 2.11641e-07)
(4.07228e-06 6.09205e-06 1.37245e-07)
(4.0787e-06 7.29783e-06 3.1552e-07)
(3.89159e-06 6.957e-06 2.98723e-07)
(3.7272e-06 6.65809e-06 2.11319e-07)
(3.58549e-06 6.39944e-06 1.36789e-07)
(3.49771e-06 7.60206e-06 3.15408e-07)
(3.33734e-06 7.24749e-06 2.98518e-07)
(3.1965e-06 6.93644e-06 2.11037e-07)
(3.07511e-06 6.66734e-06 1.36366e-07)
(2.89417e-06 7.85808e-06 3.15361e-07)
(2.76132e-06 7.49203e-06 2.98381e-07)
(2.64477e-06 7.17084e-06 2.10826e-07)
(2.54429e-06 6.89304e-06 1.36033e-07)
(2.27165e-06 8.06405e-06 3.15355e-07)
(2.16719e-06 7.68872e-06 2.98317e-07)
(2.07568e-06 7.35939e-06 2.10708e-07)
(1.99674e-06 7.07463e-06 1.35828e-07)
(1.63407e-06 8.21886e-06 3.15379e-07)
(1.55892e-06 7.8365e-06 2.9835e-07)
(1.49323e-06 7.50105e-06 2.10724e-07)
(1.43654e-06 7.21106e-06 1.35788e-07)
(9.85302e-07 8.32213e-06 3.15345e-07)
(9.40657e-07 7.93519e-06 2.98557e-07)
(9.01503e-07 7.5957e-06 2.10992e-07)
(8.67753e-07 7.30221e-06 1.35973e-07)
(3.29862e-07 8.37563e-06 3.15123e-07)
(3.16335e-07 7.98645e-06 2.99e-07)
(3.03926e-07 7.64458e-06 2.11607e-07)
(2.93956e-07 7.34928e-06 1.36347e-07)
(7.02007e-06 2.75399e-07 -3.26184e-07)
(6.75014e-06 2.66222e-07 5.76779e-08)
(6.51095e-06 2.57626e-07 3.44537e-07)
(6.29923e-06 2.50489e-07 6.6956e-07)
(6.97563e-06 8.2494e-07 -3.24861e-07)
(6.70713e-06 7.94114e-07 5.86484e-08)
(6.46926e-06 7.66883e-07 3.4541e-07)
(6.25869e-06 7.42891e-07 6.70468e-07)
(6.88921e-06 1.3689e-06 -3.24238e-07)
(6.62382e-06 1.31699e-06 5.9035e-08)
(6.3887e-06 1.27123e-06 3.45631e-07)
(6.18063e-06 1.23079e-06 6.70567e-07)
(6.75947e-06 1.90338e-06 -3.23867e-07)
(6.49892e-06 1.83128e-06 5.92177e-08)
(6.26804e-06 1.76751e-06 3.45655e-07)
(6.06367e-06 1.71121e-06 6.7044e-07)
(6.58664e-06 2.42507e-06 -3.23498e-07)
(6.33247e-06 2.33346e-06 5.93478e-08)
(6.10725e-06 2.25227e-06 3.45599e-07)
(5.90782e-06 2.18065e-06 6.7019e-07)
(6.37165e-06 2.9307e-06 -3.23054e-07)
(6.12539e-06 2.82015e-06 5.94812e-08)
(5.90722e-06 2.72208e-06 3.45505e-07)
(5.71397e-06 2.63559e-06 6.69852e-07)
(6.11608e-06 3.4173e-06 -3.22527e-07)
(5.87931e-06 3.2883e-06 5.96336e-08)
(5.66963e-06 3.1738e-06 3.45393e-07)
(5.48385e-06 3.07283e-06 6.69458e-07)
(5.82214e-06 3.88232e-06 -3.2195e-07)
(5.59653e-06 3.73532e-06 5.98006e-08)
(5.39685e-06 3.60481e-06 3.45283e-07)
(5.2199e-06 3.48966e-06 6.69058e-07)
(5.49261e-06 4.32374e-06 -3.21399e-07)
(5.27995e-06 4.1592e-06 5.99573e-08)
(5.0918e-06 4.01316e-06 3.45193e-07)
(4.92511e-06 3.88417e-06 6.68719e-07)
(5.13073e-06 4.74016e-06 -3.21028e-07)
(4.93286e-06 4.55863e-06 6.00544e-08)
(4.75774e-06 4.39768e-06 3.4514e-07)
(4.60267e-06 4.2553e-06 6.68519e-07)
(4.74016e-06 5.13073e-06 -3.21028e-07)
(4.55863e-06 4.93286e-06 6.00544e-08)
(4.39768e-06 4.75774e-06 3.4514e-07)
(4.2553e-06 4.60267e-06 6.68519e-07)
(4.32374e-06 5.49261e-06 -3.21399e-07)
(4.1592e-06 5.27995e-06 5.99573e-08)
(4.01316e-06 5.0918e-06 3.45193e-07)
(3.88417e-06 4.92511e-06 6.68719e-07)
(3.88232e-06 5.82214e-06 -3.2195e-07)
(3.73532e-06 5.59653e-06 5.98006e-08)
(3.60481e-06 5.39685e-06 3.45283e-07)
(3.48966e-06 5.2199e-06 6.69058e-07)
(3.4173e-06 6.11608e-06 -3.22527e-07)
(3.2883e-06 5.87931e-06 5.96336e-08)
(3.1738e-06 5.66963e-06 3.45393e-07)
(3.07283e-06 5.48385e-06 6.69458e-07)
(2.9307e-06 6.37165e-06 -3.23054e-07)
(2.82015e-06 6.12539e-06 5.94812e-08)
(2.72208e-06 5.90722e-06 3.45505e-07)
(2.63559e-06 5.71397e-06 6.69852e-07)
(2.42507e-06 6.58664e-06 -3.23498e-07)
(2.33346e-06 6.33247e-06 5.93478e-08)
(2.25227e-06 6.10725e-06 3.45599e-07)
(2.18065e-06 5.90782e-06 6.7019e-07)
(1.90338e-06 6.75947e-06 -3.23867e-07)
(1.83128e-06 6.49892e-06 5.92177e-08)
(1.76751e-06 6.26804e-06 3.45655e-07)
(1.71121e-06 6.06367e-06 6.7044e-07)
(1.3689e-06 6.88921e-06 -3.24238e-07)
(1.31699e-06 6.62382e-06 5.9035e-08)
(1.27123e-06 6.38871e-06 3.45631e-07)
(1.23079e-06 6.18063e-06 6.70567e-07)
(8.2494e-07 6.97563e-06 -3.24861e-07)
(7.94115e-07 6.70713e-06 5.86485e-08)
(7.66883e-07 6.46926e-06 3.4541e-07)
(7.42891e-07 6.25869e-06 6.70468e-07)
(2.75399e-07 7.02007e-06 -3.26184e-07)
(2.66222e-07 6.75014e-06 5.7678e-08)
(2.57626e-07 6.51095e-06 3.44537e-07)
(2.50489e-07 6.29923e-06 6.6956e-07)
(5.22962e-06 2.04205e-07 -5.74991e-07)
(5.02561e-06 1.97323e-07 -7.90936e-08)
(4.86071e-06 1.91389e-07 3.48048e-07)
(4.73111e-06 1.86986e-07 8.00661e-07)
(5.19631e-06 6.13697e-07 -5.73721e-07)
(4.99352e-06 5.90428e-07 -7.79527e-08)
(4.82957e-06 5.71713e-07 3.49129e-07)
(4.70079e-06 5.57143e-07 8.01635e-07)
(5.132e-06 1.01914e-06 -5.72933e-07)
(4.9316e-06 9.79948e-07 -7.73568e-08)
(4.76955e-06 9.48494e-07 3.49538e-07)
(4.64231e-06 9.23892e-07 8.01843e-07)
(5.03558e-06 1.41753e-06 -5.72367e-07)
(4.83883e-06 1.3631e-06 -7.70431e-08)
(4.67969e-06 1.31928e-06 3.49616e-07)
(4.55468e-06 1.28504e-06 8.01682e-07)
(4.90714e-06 1.80637e-06 -5.7181e-07)
(4.71518e-06 1.73722e-06 -7.68548e-08)
(4.5599e-06 1.68145e-06 3.49498e-07)
(4.43784e-06 1.63794e-06 8.0124e-07)
(4.74729e-06 2.18326e-06 -5.71184e-07)
(4.56125e-06 2.09981e-06 -7.67187e-08)
(4.41077e-06 2.03245e-06 3.49248e-07)
(4.29242e-06 1.97994e-06 8.00572e-07)
(4.55718e-06 2.54599e-06 -5.70488e-07)
(4.37824e-06 2.44859e-06 -7.66072e-08)
(4.23354e-06 2.36991e-06 3.48916e-07)
(4.11969e-06 2.3086e-06 7.99755e-07)
(4.33841e-06 2.89269e-06 -5.69783e-07)
(4.16783e-06 2.78164e-06 -7.65154e-08)
(4.02998e-06 2.69188e-06 3.4856e-07)
(3.92152e-06 2.62188e-06 7.98906e-07)
(4.09304e-06 3.22185e-06 -5.69171e-07)
(3.9322e-06 3.09746e-06 -7.64492e-08)
(3.80231e-06 2.9969e-06 3.48251e-07)
(3.70017e-06 2.91832e-06 7.98184e-07)
(3.82346e-06 3.53236e-06 -5.68793e-07)
(3.67378e-06 3.39505e-06 -7.6417e-08)
(3.55293e-06 3.28408e-06 3.48065e-07)
(3.45804e-06 3.19714e-06 7.9776e-07)
(3.53236e-06 3.82346e-06 -5.68793e-07)
(3.39505e-06 3.67378e-06 -7.6417e-08)
(3.28408e-06 3.55293e-06 3.48065e-07)
(3.19714e-06 3.45804e-06 7.9776e-07)
(3.22185e-06 4.09304e-06 -5.69171e-07)
(3.09746e-06 3.9322e-06 -7.64492e-08)
(2.9969e-06 3.80231e-06 3.48251e-07)
(2.91832e-06 3.70017e-06 7.98184e-07)
(2.89269e-06 4.33841e-06 -5.69783e-07)
(2.78164e-06 4.16783e-06 -7.65154e-08)
(2.69188e-06 4.02998e-06 3.4856e-07)
(2.62188e-06 3.92152e-06 7.98906e-07)
(2.54599e-06 4.55718e-06 -5.70488e-07)
(2.44859e-06 4.37824e-06 -7.66072e-08)
(2.36991e-06 4.23354e-06 3.48916e-07)
(2.3086e-06 4.11969e-06 7.99755e-07)
(2.18326e-06 4.74729e-06 -5.71184e-07)
(2.09981e-06 4.56125e-06 -7.67187e-08)
(2.03245e-06 4.41077e-06 3.49248e-07)
(1.97994e-06 4.29242e-06 8.00572e-07)
(1.80637e-06 4.90714e-06 -5.7181e-07)
(1.73722e-06 4.71518e-06 -7.68548e-08)
(1.68145e-06 4.5599e-06 3.49498e-07)
(1.63794e-06 4.43784e-06 8.0124e-07)
(1.41753e-06 5.03558e-06 -5.72367e-07)
(1.3631e-06 4.83883e-06 -7.70431e-08)
(1.31928e-06 4.67969e-06 3.49616e-07)
(1.28504e-06 4.55468e-06 8.01683e-07)
(1.01914e-06 5.132e-06 -5.72933e-07)
(9.79948e-07 4.9316e-06 -7.73568e-08)
(9.48494e-07 4.76955e-06 3.49538e-07)
(9.23892e-07 4.64231e-06 8.01843e-07)
(6.13697e-07 5.19631e-06 -5.73721e-07)
(5.90428e-07 4.99352e-06 -7.79527e-08)
(5.71713e-07 4.82957e-06 3.49129e-07)
(5.57143e-07 4.70079e-06 8.01635e-07)
(2.04205e-07 5.22962e-06 -5.74991e-07)
(1.97323e-07 5.02561e-06 -7.90935e-08)
(1.91389e-07 4.86071e-06 3.48048e-07)
(1.86986e-07 4.73111e-06 8.00661e-07)
(3.72266e-06 1.44801e-07 -5.52327e-07)
(3.56005e-06 1.39313e-07 -1.13883e-07)
(3.44242e-06 1.35051e-07 2.87615e-07)
(3.36618e-06 1.32407e-07 6.96939e-07)
(3.69866e-06 4.36391e-07 -5.51567e-07)
(3.53718e-06 4.17823e-07 -1.13178e-07)
(3.42038e-06 4.04464e-07 2.88267e-07)
(3.34479e-06 3.95923e-07 6.97459e-07)
(3.65298e-06 7.25193e-07 -5.50931e-07)
(3.49344e-06 6.93887e-07 -1.12696e-07)
(3.37802e-06 6.71438e-07 2.88585e-07)
(3.30334e-06 6.57012e-07 6.97601e-07)
(3.58464e-06 1.00905e-06 -5.50401e-07)
(3.42803e-06 9.65533e-07 -1.12392e-07)
(3.31468e-06 9.34258e-07 2.88669e-07)
(3.2413e-06 9.14189e-07 6.97468e-07)
(3.49367e-06 1.28617e-06 -5.49871e-07)
(3.34089e-06 1.23086e-06 -1.12198e-07)
(3.23027e-06 1.19106e-06 2.88567e-07)
(3.15858e-06 1.16559e-06 6.97063e-07)
(3.38045e-06 1.55486e-06 -5.49291e-07)
(3.23237e-06 1.4881e-06 -1.12068e-07)
(3.12513e-06 1.44003e-06 2.8832e-07)
(3.05556e-06 1.40932e-06 6.96419e-07)
(3.24571e-06 1.81356e-06 -5.48668e-07)
(3.10325e-06 1.73564e-06 -1.11981e-07)
(3.00008e-06 1.67949e-06 2.87974e-07)
(2.9331e-06 1.64362e-06 6.95609e-07)
(3.09053e-06 2.0609e-06 -5.48054e-07)
(2.95467e-06 1.97207e-06 -1.11925e-07)
(2.85633e-06 1.908e-06 2.87595e-07)
(2.79247e-06 1.86702e-06 6.94759e-07)
(2.91629e-06 2.29575e-06 -5.47538e-07)
(2.78808e-06 2.1963e-06 -1.11895e-07)
(2.69537e-06 2.12449e-06 2.87264e-07)
(2.63522e-06 2.07841e-06 6.94034e-07)
(2.72459e-06 2.51722e-06 -5.47225e-07)
(2.60514e-06 2.40752e-06 -1.11884e-07)
(2.51884e-06 2.32826e-06 2.87067e-07)
(2.463e-06 2.27717e-06 6.93611e-07)
(2.51722e-06 2.72459e-06 -5.47225e-07)
(2.40752e-06 2.60514e-06 -1.11884e-07)
(2.32826e-06 2.51884e-06 2.87067e-07)
(2.27717e-06 2.463e-06 6.93611e-07)
(2.29575e-06 2.91629e-06 -5.47538e-07)
(2.1963e-06 2.78808e-06 -1.11895e-07)
(2.12449e-06 2.69537e-06 2.87264e-07)
(2.07841e-06 2.63522e-06 6.94034e-07)
(2.0609e-06 3.09053e-06 -5.48054e-07)
(1.97207e-06 2.95467e-06 -1.11925e-07)
(1.908e-06 2.85633e-06 2.87595e-07)
(1.86702e-06 2.79247e-06 6.94759e-07)
(1.81356e-06 3.24571e-06 -5.48668e-07)
(1.73564e-06 3.10325e-06 -1.11981e-07)
(1.67949e-06 3.00009e-06 2.87974e-07)
(1.64362e-06 2.9331e-06 6.95609e-07)
(1.55486e-06 3.38045e-06 -5.49291e-07)
(1.4881e-06 3.23237e-06 -1.12068e-07)
(1.44003e-06 3.12513e-06 2.8832e-07)
(1.40932e-06 3.05556e-06 6.96419e-07)
(1.28617e-06 3.49367e-06 -5.49871e-07)
(1.23086e-06 3.34089e-06 -1.12198e-07)
(1.19106e-06 3.23027e-06 2.88567e-07)
(1.16559e-06 3.15858e-06 6.97063e-07)
(1.00905e-06 3.58464e-06 -5.50401e-07)
(9.65533e-07 3.42803e-06 -1.12392e-07)
(9.34258e-07 3.31468e-06 2.88669e-07)
(9.14189e-07 3.2413e-06 6.97468e-07)
(7.25193e-07 3.65298e-06 -5.50931e-07)
(6.93887e-07 3.49344e-06 -1.12696e-07)
(6.71438e-07 3.37802e-06 2.88585e-07)
(6.57012e-07 3.30334e-06 6.97601e-07)
(4.36391e-07 3.69866e-06 -5.51567e-07)
(4.17823e-07 3.53718e-06 -1.13178e-07)
(4.04464e-07 3.42038e-06 2.88267e-07)
(3.95923e-07 3.34479e-06 6.97459e-07)
(1.44801e-07 3.72266e-06 -5.52327e-07)
(1.39313e-07 3.56005e-06 -1.13883e-07)
(1.35051e-07 3.44242e-06 2.87615e-07)
(1.32407e-07 3.36618e-06 6.96939e-07)
(2.66319e-06 1.03389e-07 -4.25108e-07)
(2.53215e-06 9.8947e-08 -9.62441e-08)
(2.44394e-06 9.57276e-08 2.15717e-07)
(2.39552e-06 9.40034e-08 5.24976e-07)
(2.64583e-06 3.12081e-07 -4.24824e-07)
(2.51579e-06 2.97083e-07 -9.60053e-08)
(2.42832e-06 2.87029e-07 2.15906e-07)
(2.38043e-06 2.81579e-07 5.25066e-07)
(2.61323e-06 5.18831e-07 -4.24441e-07)
(2.48477e-06 4.93508e-07 -9.57394e-08)
(2.39836e-06 4.7661e-07 2.16053e-07)
(2.35106e-06 4.67415e-07 5.25097e-07)
(2.56457e-06 7.22106e-07 -4.24072e-07)
(2.4385e-06 6.86877e-07 -9.55264e-08)
(2.35366e-06 6.63327e-07 2.16107e-07)
(2.30717e-06 6.50533e-07 5.25004e-07)
(2.49987e-06 9.20645e-07 -4.23688e-07)
(2.37691e-06 8.75845e-07 -9.53731e-08)
(2.29411e-06 8.45874e-07 2.16045e-07)
(2.24869e-06 8.29643e-07 5.24733e-07)
(2.41936e-06 1.11323e-06 -4.23274e-07)
(2.3002e-06 1.05915e-06 -9.52689e-08)
(2.21993e-06 1.02296e-06 2.15874e-07)
(2.17583e-06 1.0034e-06 5.24281e-07)
(2.3235e-06 1.29874e-06 -4.22836e-07)
(2.20887e-06 1.23564e-06 -9.52021e-08)
(2.13164e-06 1.19338e-06 2.1562e-07)
(2.08915e-06 1.17056e-06 5.23697e-07)
(2.21301e-06 1.47617e-06 -4.22409e-07)
(2.10367e-06 1.40428e-06 -9.51632e-08)
(2.03001e-06 1.35609e-06 2.15337e-07)
(1.98947e-06 1.33002e-06 5.23074e-07)
(2.08877e-06 1.64464e-06 -4.22051e-07)
(1.98553e-06 1.56424e-06 -9.51435e-08)
(1.91603e-06 1.51026e-06 2.15088e-07)
(1.87782e-06 1.48095e-06 5.2254e-07)
(1.95185e-06 1.80341e-06 -4.21831e-07)
(1.85554e-06 1.71484e-06 -9.51348e-08)
(1.79079e-06 1.65531e-06 2.1494e-07)
(1.75529e-06 1.62282e-06 5.22229e-07)
(1.80341e-06 1.95185e-06 -4.21831e-07)
(1.71484e-06 1.85554e-06 -9.51348e-08)
(1.65531e-06 1.79079e-06 2.1494e-07)
(1.62282e-06 1.75529e-06 5.22229e-07)
(1.64464e-06 2.08877e-06 -4.22051e-07)
(1.56424e-06 1.98553e-06 -9.51435e-08)
(1.51026e-06 1.91603e-06 2.15088e-07)
(1.48095e-06 1.87782e-06 5.2254e-07)
(1.47617e-06 2.21301e-06 -4.22409e-07)
(1.40428e-06 2.10367e-06 -9.51632e-08)
(1.35609e-06 2.03001e-06 2.15337e-07)
(1.33002e-06 1.98947e-06 5.23074e-07)
(1.29874e-06 2.3235e-06 -4.22836e-07)
(1.23564e-06 2.20887e-06 -9.52021e-08)
(1.19338e-06 2.13164e-06 2.15621e-07)
(1.17056e-06 2.08915e-06 5.23697e-07)
(1.11323e-06 2.41936e-06 -4.23274e-07)
(1.05915e-06 2.3002e-06 -9.52689e-08)
(1.02296e-06 2.21993e-06 2.15874e-07)
(1.0034e-06 2.17583e-06 5.24281e-07)
(9.20645e-07 2.49987e-06 -4.23688e-07)
(8.75845e-07 2.37691e-06 -9.53731e-08)
(8.45874e-07 2.29411e-06 2.16045e-07)
(8.29643e-07 2.24869e-06 5.24733e-07)
(7.22106e-07 2.56457e-06 -4.24072e-07)
(6.86877e-07 2.4385e-06 -9.55264e-08)
(6.63327e-07 2.35366e-06 2.16107e-07)
(6.50533e-07 2.30717e-06 5.25004e-07)
(5.18831e-07 2.61322e-06 -4.24441e-07)
(4.93508e-07 2.48477e-06 -9.57394e-08)
(4.7661e-07 2.39836e-06 2.16053e-07)
(4.67415e-07 2.35106e-06 5.25097e-07)
(3.12081e-07 2.64583e-06 -4.24824e-07)
(2.97083e-07 2.51579e-06 -9.60053e-08)
(2.87029e-07 2.42832e-06 2.15906e-07)
(2.81579e-07 2.38043e-06 5.25067e-07)
(1.03389e-07 2.66319e-06 -4.25108e-07)
(9.8947e-08 2.53215e-06 -9.62441e-08)
(9.57275e-08 2.44394e-06 2.15717e-07)
(9.40034e-08 2.39552e-06 5.24976e-07)
(1.96739e-06 7.63822e-08 -2.9549e-07)
(1.86297e-06 7.28269e-08 -6.55793e-08)
(1.79432e-06 7.03073e-08 1.56503e-07)
(1.75902e-06 6.90286e-08 3.72517e-07)
(1.95449e-06 2.30619e-07 -2.95483e-07)
(1.85089e-06 2.18639e-07 -6.56195e-08)
(1.78287e-06 2.10778e-07 1.56422e-07)
(1.74799e-06 2.06765e-07 3.7238e-07)
(1.93044e-06 3.83435e-07 -2.95312e-07)
(1.82812e-06 3.63184e-07 -6.55294e-08)
(1.76093e-06 3.49967e-07 1.56437e-07)
(1.72649e-06 3.43205e-07 3.72333e-07)
(1.89463e-06 5.3372e-07 -2.95112e-07)
(1.79422e-06 5.05527e-07 -6.54167e-08)
(1.72826e-06 4.871e-07 1.56456e-07)
(1.69442e-06 4.77681e-07 3.72273e-07)
(1.84704e-06 6.80559e-07 -2.9489e-07)
(1.74913e-06 6.44694e-07 -6.53206e-08)
(1.68477e-06 6.21237e-07 1.56427e-07)
(1.65172e-06 6.09281e-07 3.72129e-07)
(1.78784e-06 8.23055e-07 -2.94648e-07)
(1.69298e-06 7.79761e-07 -6.52506e-08)
(1.63061e-06 7.51436e-07 1.56333e-07)
(1.59852e-06 7.37039e-07 3.71878e-07)
(1.71735e-06 9.60364e-07 -2.94392e-07)
(1.62612e-06 9.09867e-07 -6.52049e-08)
(1.56611e-06 8.76813e-07 1.56186e-07)
(1.5352e-06 8.60029e-07 3.71539e-07)
(1.63605e-06 1.09171e-06 -2.9414e-07)
(1.54903e-06 1.03424e-06 -6.51773e-08)
(1.49179e-06 9.96582e-07 1.56016e-07)
(1.46228e-06 9.77438e-07 3.71169e-07)
(1.54454e-06 1.21642e-06 -2.93924e-07)
(1.46234e-06 1.1522e-06 -6.51608e-08)
(1.40831e-06 1.11009e-06 1.55865e-07)
(1.38047e-06 1.08861e-06 3.70849e-07)
(1.44355e-06 1.33388e-06 -2.93788e-07)
(1.36681e-06 1.26322e-06 -6.5151e-08)
(1.31642e-06 1.21683e-06 1.55777e-07)
(1.29051e-06 1.19308e-06 3.70662e-07)
(1.33388e-06 1.44355e-06 -2.93788e-07)
(1.26322e-06 1.36681e-06 -6.5151e-08)
(1.21683e-06 1.31642e-06 1.55777e-07)
(1.19308e-06 1.29051e-06 3.70662e-07)
(1.21642e-06 1.54454e-06 -2.93924e-07)
(1.1522e-06 1.46234e-06 -6.51608e-08)
(1.11009e-06 1.40831e-06 1.55865e-07)
(1.08861e-06 1.38047e-06 3.70849e-07)
(1.09171e-06 1.63605e-06 -2.9414e-07)
(1.03424e-06 1.54903e-06 -6.51773e-08)
(9.96582e-07 1.49179e-06 1.56016e-07)
(9.77438e-07 1.46228e-06 3.71169e-07)
(9.60364e-07 1.71735e-06 -2.94392e-07)
(9.09867e-07 1.62612e-06 -6.52049e-08)
(8.76813e-07 1.56611e-06 1.56186e-07)
(8.60029e-07 1.5352e-06 3.71539e-07)
(8.23055e-07 1.78784e-06 -2.94648e-07)
(7.79761e-07 1.69298e-06 -6.52506e-08)
(7.51436e-07 1.63061e-06 1.56333e-07)
(7.37039e-07 1.59852e-06 3.71878e-07)
(6.80559e-07 1.84704e-06 -2.9489e-07)
(6.44694e-07 1.74913e-06 -6.53206e-08)
(6.21237e-07 1.68477e-06 1.56427e-07)
(6.09281e-07 1.65172e-06 3.72129e-07)
(5.3372e-07 1.89463e-06 -2.95112e-07)
(5.05527e-07 1.79422e-06 -6.54167e-08)
(4.871e-07 1.72826e-06 1.56456e-07)
(4.77681e-07 1.69442e-06 3.72273e-07)
(3.83435e-07 1.93044e-06 -2.95312e-07)
(3.63184e-07 1.82812e-06 -6.55294e-08)
(3.49967e-07 1.76093e-06 1.56437e-07)
(3.43205e-07 1.72649e-06 3.72333e-07)
(2.3062e-07 1.95449e-06 -2.95483e-07)
(2.18639e-07 1.85089e-06 -6.56195e-08)
(2.10778e-07 1.78287e-06 1.56423e-07)
(2.06765e-07 1.74799e-06 3.7238e-07)
(7.63822e-08 1.96739e-06 -2.9549e-07)
(7.28269e-08 1.86297e-06 -6.55793e-08)
(7.03073e-08 1.79432e-06 1.56503e-07)
(6.90285e-08 1.75902e-06 3.72517e-07)
(1.50498e-06 5.85005e-08 -1.99836e-07)
(1.42299e-06 5.57001e-08 -4.02197e-08)
(1.36869e-06 5.37014e-08 1.14535e-07)
(1.3402e-06 5.26668e-08 2.63696e-07)
(1.49509e-06 1.76528e-07 -1.99933e-07)
(1.41375e-06 1.67103e-07 -4.03612e-08)
(1.35995e-06 1.60863e-07 1.14365e-07)
(1.3318e-06 1.576e-07 2.63498e-07)
(1.47671e-06 2.93459e-07 -1.99888e-07)
(1.39637e-06 2.7752e-07 -4.03682e-08)
(1.34323e-06 2.67024e-07 1.14314e-07)
(1.31544e-06 2.61527e-07 2.6342e-07)
(1.44935e-06 4.08467e-07 -1.99807e-07)
(1.37052e-06 3.86267e-07 -4.03275e-08)
(1.31836e-06 3.71627e-07 1.14309e-07)
(1.29106e-06 3.63962e-07 2.63382e-07)
(1.41301e-06 5.20862e-07 -1.99704e-07)
(1.33616e-06 4.92613e-07 -4.02798e-08)
(1.28528e-06 4.73972e-07 1.14296e-07)
(1.25863e-06 4.64235e-07 2.63321e-07)
(1.36783e-06 6.29955e-07 -1.99586e-07)
(1.29339e-06 5.95857e-07 -4.02404e-08)
(1.2441e-06 5.73351e-07 1.14255e-07)
(1.21824e-06 5.61623e-07 2.63207e-07)
(1.31403e-06 7.35095e-07 -1.99456e-07)
(1.24245e-06 6.95338e-07 -4.02125e-08)
(1.19504e-06 6.69089e-07 1.14184e-07)
(1.17015e-06 6.55428e-07 2.63043e-07)
(1.25198e-06 8.35678e-07 -1.99323e-07)
(1.18371e-06 7.90454e-07 -4.01935e-08)
(1.13849e-06 7.60579e-07 1.14098e-07)
(1.11473e-06 7.45023e-07 2.62857e-07)
(1.1821e-06 9.31157e-07 -1.99204e-07)
(1.11761e-06 8.80676e-07 -4.01793e-08)
(1.07492e-06 8.47301e-07 1.14021e-07)
(1.05248e-06 8.29889e-07 2.62692e-07)
(1.10493e-06 1.02105e-06 -1.99124e-07)
(1.0447e-06 9.65554e-07 -4.01694e-08)
(1.00485e-06 9.28837e-07 1.13976e-07)
(9.83947e-07 9.09628e-07 2.62595e-07)
(1.02105e-06 1.10493e-06 -1.99124e-07)
(9.65554e-07 1.0447e-06 -4.01694e-08)
(9.28837e-07 1.00485e-06 1.13976e-07)
(9.09628e-07 9.83947e-07 2.62595e-07)
(9.31157e-07 1.1821e-06 -1.99204e-07)
(8.80676e-07 1.11761e-06 -4.01793e-08)
(8.47301e-07 1.07492e-06 1.14021e-07)
(8.29889e-07 1.05248e-06 2.62692e-07)
(8.35678e-07 1.25198e-06 -1.99323e-07)
(7.90454e-07 1.18371e-06 -4.01935e-08)
(7.60579e-07 1.13849e-06 1.14098e-07)
(7.45023e-07 1.11473e-06 2.62857e-07)
(7.35095e-07 1.31403e-06 -1.99456e-07)
(6.95338e-07 1.24245e-06 -4.02125e-08)
(6.69089e-07 1.19504e-06 1.14184e-07)
(6.55428e-07 1.17015e-06 2.63043e-07)
(6.29955e-07 1.36783e-06 -1.99586e-07)
(5.95856e-07 1.29339e-06 -4.02404e-08)
(5.73351e-07 1.2441e-06 1.14255e-07)
(5.61623e-07 1.21824e-06 2.63207e-07)
(5.20862e-07 1.41301e-06 -1.99704e-07)
(4.92613e-07 1.33616e-06 -4.02798e-08)
(4.73972e-07 1.28528e-06 1.14296e-07)
(4.64235e-07 1.25863e-06 2.63321e-07)
(4.08467e-07 1.44935e-06 -1.99807e-07)
(3.86267e-07 1.37052e-06 -4.03275e-08)
(3.71627e-07 1.31836e-06 1.14309e-07)
(3.63962e-07 1.29106e-06 2.63382e-07)
(2.93459e-07 1.47671e-06 -1.99888e-07)
(2.7752e-07 1.39637e-06 -4.03682e-08)
(2.67024e-07 1.34323e-06 1.14314e-07)
(2.61527e-07 1.31544e-06 2.6342e-07)
(1.76528e-07 1.49509e-06 -1.99933e-07)
(1.67103e-07 1.41375e-06 -4.03611e-08)
(1.60863e-07 1.35995e-06 1.14365e-07)
(1.576e-07 1.3318e-06 2.63498e-07)
(5.85005e-08 1.50498e-06 -1.99836e-07)
(5.57001e-08 1.42299e-06 -4.02197e-08)
(5.37014e-08 1.36869e-06 1.14535e-07)
(5.26668e-08 1.3402e-06 2.63696e-07)
(1.17816e-06 4.58577e-08 -1.38657e-07)
(1.11439e-06 4.3676e-08 -2.41296e-08)
(1.07136e-06 4.20912e-08 8.62155e-08)
(1.04764e-06 4.12342e-08 1.92576e-07)
(1.17043e-06 1.38272e-07 -1.38763e-07)
(1.10715e-06 1.30934e-07 -2.42722e-08)
(1.06452e-06 1.2598e-07 8.60535e-08)
(1.04106e-06 1.23255e-07 1.92401e-07)
(1.15603e-06 2.29819e-07 -1.38772e-07)
(1.09353e-06 2.17406e-07 -2.43143e-08)
(1.05142e-06 2.0907e-07 8.59872e-08)
(1.02826e-06 2.04478e-07 1.92325e-07)
(1.1346e-06 3.19857e-07 -1.38754e-07)
(1.07328e-06 3.02565e-07 -2.43118e-08)
(1.03194e-06 2.90935e-07 8.597e-08)
(1.0092e-06 2.84527e-07 1.92298e-07)
(1.10615e-06 4.07854e-07 -1.38718e-07)
(1.04637e-06 3.85847e-07 -2.42944e-08)
(1.00606e-06 3.71035e-07 8.59637e-08)
(9.83867e-07 3.62888e-07 1.92276e-07)
(1.07079e-06 4.9327e-07 -1.38668e-07)
(1.0129e-06 4.66706e-07 -2.42755e-08)
(9.73846e-07 4.48824e-07 8.59484e-08)
(9.52331e-07 4.39008e-07 1.92234e-07)
(1.0287e-06 5.75593e-07 -1.38607e-07)
(9.73037e-07 5.44627e-07 -2.42595e-08)
(9.35488e-07 5.23778e-07 8.59192e-08)
(9.14781e-07 5.12347e-07 1.92166e-07)
(9.80147e-07 6.54344e-07 -1.38539e-07)
(9.2707e-07 6.19134e-07 -2.42463e-08)
(8.91263e-07 5.95419e-07 8.58815e-08)
(8.71507e-07 5.82417e-07 1.92082e-07)
(9.25482e-07 7.29092e-07 -1.38473e-07)
(8.75341e-07 6.89807e-07 -2.42343e-08)
(8.41528e-07 6.63333e-07 8.58468e-08)
(8.22876e-07 6.48801e-07 1.92006e-07)
(8.65099e-07 7.99457e-07 -1.38425e-07)
(8.18262e-07 7.56286e-07 -2.42254e-08)
(7.86693e-07 7.27183e-07 8.58264e-08)
(7.693e-07 7.11178e-07 1.9196e-07)
(7.99457e-07 8.65099e-07 -1.38425e-07)
(7.56286e-07 8.18262e-07 -2.42254e-08)
(7.27183e-07 7.86693e-07 8.58264e-08)
(7.11178e-07 7.693e-07 1.9196e-07)