/*--------------------------------*- C++ -*----------------------------------*\
| =========                 |                                                 |
| \\      /  F ield         | foam-extend: Open Source CFD                    |
|  \\    /   O peration     | Version:     3.1                                |
|   \\  /    A nd           | Web:         http://www.extend-project.de       |
|    \\/     M anipulation  |                                                 |
\*---------------------------------------------------------------------------*/
FoamFile
{
    version     2.0;
    format      ascii;
    class       volSymmTensorField;
    location    "0.0005";
    object      epsilon;
}
// * * * * * * * * * * * * * * * * * * * * * * * * * * * * * * * * * * * * * //

dimensions      [0 0 0 0 0 0 0];

internalField   nonuniform List<symmTensor> 
6400
(
(-0.00249651 -0.000167196 0.00650138 0.00123355 0.000185398 0.00742712)
(-0.00153855 -0.000116954 0.00708572 0.00108881 0.00023378 0.00252845)
(-0.000777079 -7.67015e-05 0.00668178 0.000992249 0.000219418 -0.0012183)
(1.0688e-05 -3.57549e-05 0.00537189 0.000936514 0.000148396 -0.00585112)
(-0.00243579 -0.000435614 0.00647063 0.00120462 0.000757388 0.00733883)
(-0.0014946 -0.000307043 0.00703641 0.00106518 0.000827129 0.00246925)
(-0.000743077 -0.000206422 0.00662371 0.000977294 0.000780036 -0.00127873)
(3.97704e-05 -0.000106264 0.00530497 0.000931383 0.000625704 -0.00594362)
(-0.0023436 -0.000714721 0.00638888 0.00111006 0.00126506 0.00733416)
(-0.00142985 -0.000502318 0.0069477 0.00100079 0.00137793 0.00246623)
(-0.000699048 -0.000337273 0.00654035 0.000933853 0.00129888 -0.00128069)
(6.39862e-05 -0.00017432 0.00523901 0.000908317 0.00104204 -0.00594415)
(-0.00221011 -0.000975405 0.00626865 0.000976029 0.00176273 0.00733162)
(-0.00133612 -0.000685963 0.00681682 0.000906576 0.00191922 0.00246515)
(-0.000636113 -0.000460576 0.00641698 0.000870506 0.00180865 -0.0012805)
(9.63452e-05 -0.000238044 0.00514006 0.000875229 0.00145086 -0.00594245)
(-0.00203795 -0.00121222 0.00610996 0.000803582 0.00224873 0.00733004)
(-0.00121506 -0.00085279 0.0066439 0.000785084 0.00244796 0.00246508)
(-0.000554922 -0.000572673 0.00625394 0.000788732 0.00230655 -0.00127923)
(0.000138065 -0.000296 0.00500922 0.000832646 0.00184996 -0.00593948)
(-0.00183107 -0.00141941 0.00591357 0.000596641 0.00272061 0.00732899)
(-0.00106952 -0.000998723 0.00642994 0.000639227 0.0029612 0.00246551)
(-0.000457287 -0.000670722 0.00605226 0.000690526 0.00278973 -0.00127741)
(0.000188247 -0.000346684 0.00484744 0.000781539 0.00223707 -0.00593584)
(-0.00159442 -0.00159196 0.00568061 0.000360025 0.00317579 0.00732842)
(-0.000902992 -0.00112022 0.0061763 0.000472447 0.00345602 0.00246626)
(-0.000345527 -0.000752313 0.0058133 0.000578238 0.00325536 -0.00127536)
(0.000245727 -0.00038884 0.00465589 0.000723141 0.00260989 -0.005932)
(-0.00133368 -0.00172562 0.00541241 9.93232e-05 0.00361158 0.00732846)
(-0.00071942 -0.00121429 0.00588459 0.000288689 0.00392951 0.00246725)
(-0.000222294 -0.000815435 0.00553869 0.00045455 0.00370071 -0.00127332)
(0.000309161 -0.000421423 0.00443595 0.000658874 0.00296626 -0.00592842)
(-0.00105508 -0.00181712 0.00511053 -0.000179234 0.00402531 0.00732919)
(-0.000523108 -0.00127857 0.00555664 9.23385e-05 0.00437883 0.00246834)
(-9.05096e-05 -0.000858479 0.00523022 0.000322458 0.00412316 -0.00127159)
(0.000377049 -0.000443599 0.00418913 0.00059033 0.0033041 -0.00592556)
(-0.000763996 -0.00186447 0.00477702 -0.000468972 0.00441448 0.00733009)
(-0.000318729 -0.00131131 0.0051947 -0.00011177 0.00480133 0.00246914)
(4.65335e-05 -0.000880292 0.00489001 0.000185316 0.00452029 -0.00127054)
(0.000447685 -0.000454798 0.00391711 0.000519328 0.00362158 -0.00592395)
(-0.000468972 -0.00186447 0.00441448 -0.000763996 0.00477702 0.00733008)
(-0.000111771 -0.00131131 0.00480133 -0.000318729 0.0051947 0.00246914)
(0.000185316 -0.000880292 0.00452029 4.65337e-05 0.00489001 -0.00127054)
(0.000519328 -0.000454798 0.00362158 0.000447685 0.00391711 -0.00592395)
(-0.000179234 -0.00181712 0.00402531 -0.00105508 0.00511053 0.00732919)
(9.23382e-05 -0.00127857 0.00437884 -0.000523108 0.00555664 0.00246833)
(0.000322457 -0.000858479 0.00412316 -9.05095e-05 0.00523022 -0.00127159)
(0.00059033 -0.000443599 0.0033041 0.000377049 0.00418913 -0.00592556)
(9.9323e-05 -0.00172562 0.00361158 -0.00133368 0.0054124 0.00732846)
(0.000288689 -0.00121429 0.00392951 -0.00071942 0.00588459 0.00246725)
(0.00045455 -0.000815436 0.00370071 -0.000222294 0.00553869 -0.00127332)
(0.000658874 -0.000421423 0.00296626 0.000309161 0.00443595 -0.00592841)
(0.000360024 -0.00159196 0.00317579 -0.00159442 0.00568061 0.00732842)
(0.000472446 -0.00112022 0.00345602 -0.000902992 0.0061763 0.00246626)
(0.000578238 -0.000752313 0.00325536 -0.000345527 0.0058133 -0.00127536)
(0.00072314 -0.00038884 0.00260989 0.000245727 0.00465589 -0.005932)
(0.00059664 -0.00141941 0.00272061 -0.00183107 0.00591357 0.00732898)
(0.000639226 -0.000998723 0.0029612 -0.00106952 0.00642994 0.00246551)
(0.000690526 -0.000670722 0.00278973 -0.000457287 0.00605226 -0.00127741)
(0.000781539 -0.000346684 0.00223706 0.000188247 0.00484744 -0.00593584)
(0.000803581 -0.00121222 0.00224873 -0.00203795 0.00610995 0.00733004)
(0.000785084 -0.000852791 0.00244796 -0.00121506 0.0066439 0.00246508)
(0.000788732 -0.000572673 0.00230655 -0.000554922 0.00625394 -0.00127923)
(0.000832646 -0.000296 0.00184996 0.000138065 0.00500922 -0.00593948)
(0.000976029 -0.000975405 0.00176273 -0.00221011 0.00626865 0.00733162)
(0.000906576 -0.000685964 0.00191922 -0.00133612 0.00681682 0.00246515)
(0.000870506 -0.000460576 0.00180865 -0.000636114 0.00641698 -0.0012805)
(0.000875229 -0.000238044 0.00145086 9.63449e-05 0.00514006 -0.00594245)
(0.00111006 -0.000714722 0.00126506 -0.0023436 0.00638887 0.00733416)
(0.00100079 -0.000502318 0.00137793 -0.00142985 0.0069477 0.00246623)
(0.000933853 -0.000337273 0.00129888 -0.000699049 0.00654034 -0.00128069)
(0.000908317 -0.00017432 0.00104204 6.39858e-05 0.00523901 -0.00594415)
(0.00120462 -0.000435614 0.000757388 -0.00243579 0.00647063 0.00733883)
(0.00106518 -0.000307043 0.000827129 -0.0014946 0.00703641 0.00246925)
(0.000977294 -0.000206422 0.000780036 -0.000743077 0.00662371 -0.00127873)
(0.000931383 -0.000106264 0.000625704 3.977e-05 0.00530496 -0.00594361)
(0.00123355 -0.000167196 0.000185398 -0.00249651 0.00650138 0.00742712)
(0.00108881 -0.000116954 0.00023378 -0.00153855 0.00708572 0.00252845)
(0.000992248 -7.67015e-05 0.000219418 -0.000777079 0.00668178 -0.00121829)
(0.000936514 -3.5755e-05 0.000148396 1.06876e-05 0.00537189 -0.00585112)
(-0.0041978 -0.000340416 0.0024132 0.00359421 -2.03877e-05 -0.000183753)
(-0.00315276 -0.000280499 0.00450953 0.00326749 9.44538e-05 0.000384092)
(-0.00214043 -0.000221448 0.00445018 0.0030118 9.31649e-05 0.00025987)
(-0.00129121 -0.000170983 0.00238771 0.00281833 -1.58041e-05 0.000611799)
(-0.00409295 -0.000910786 0.0024362 0.00351797 0.000287797 -0.00016824)
(-0.00305967 -0.000750445 0.00448728 0.00319282 0.000531463 0.00037954)
(-0.00206193 -0.000600741 0.00440002 0.00294783 0.000523022 0.000254021)
(-0.00122683 -0.000476229 0.00231358 0.00276091 0.000279859 0.000622992)
(-0.00390285 -0.0014956 0.00240641 0.00332186 0.000477123 -0.000169349)
(-0.00290257 -0.00122838 0.00443101 0.00303653 0.000881623 0.000377437)
(-0.00193533 -0.00098383 0.00434434 0.00282265 0.000866567 0.000251963)
(-0.0011258 -0.000783332 0.00228443 0.00266216 0.000459711 0.000621579)
(-0.00362392 -0.00204145 0.00236122 0.00304234 0.000662731 -0.000169782)
(-0.00267361 -0.00167769 0.0043472 0.00280706 0.00122523 0.000377164)
(-0.00175183 -0.00134388 0.00426194 0.00263897 0.0012037 0.000252076)
(-0.000980085 -0.00107013 0.00224084 0.0025159 0.000636788 0.000622215)
(-0.0032638 -0.00253741 0.0023013 0.00268207 0.000844252 -0.000170086)
(-0.00237749 -0.00208579 0.00423635 0.00251056 0.00156101 0.00037744)
(-0.00151465 -0.00167091 0.00415307 0.00240118 0.00153315 0.000252955)
(-0.000791438 -0.00133046 0.00218332 0.00232628 0.000809921 0.000623706)
(-0.00283089 -0.00297142 0.00222689 0.00224942 0.00102095 -0.000170371)
(-0.00202143 -0.00244268 0.00409914 0.00215425 0.00188721 0.000377945)
(-0.0012294 -0.00195674 0.00401843 0.00211521 0.00185308 0.000254186)
(-0.000564499 -0.00155785 0.00211233 0.00209806 0.000978032 0.000625651)
(-0.00233558 -0.00333294 0.00213831 0.00175457 0.00119187 -0.000170625)
(-0.00161406 -0.00273968 0.00393647 0.00174671 0.00220192 0.000378577)
(-0.000903035 -0.00219439 0.003859 0.00178811 0.00216152 0.000255578)
(-0.000304859 -0.00174672 0.00202845 0.00183701 0.00113998 0.000627797)
(-0.00178977 -0.00361307 0.00203601 0.00120923 0.00135586 -0.0001708)
(-0.00116516 -0.00296955 0.00374946 0.00129773 0.00250317 0.000379254)
(-0.00054347 -0.00237806 0.00367595 0.00142787 0.00245658 0.000256949)
(-1.88627e-05 -0.00189248 0.00193237 0.00154965 0.00129467 0.000629869)
(-0.00120651 -0.00380493 0.00192066 0.000626412 0.00151165 -0.000170914)
(-0.000685337 -0.00312655 0.00353947 0.00081806 0.00278909 0.000379839)
(-0.000159334 -0.00250319 0.00347067 0.00104329 0.00273646 0.000258071)
(0.000286552 -0.00199159 0.00182488 0.00124313 0.00144118 0.000631532)
(-0.000597355 -0.00390414 0.00179401 2.00003e-05 0.00165776 -0.000170999)
(-0.00018606 -0.00320648 0.00330835 0.000319456 0.00305787 0.00038017)
(0.000239852 -0.00256658 0.00324472 0.000644007 0.00299959 0.000258705)
(0.000603828 -0.00204168 0.00170679 0.000925219 0.00157873 0.000632463)
(1.99999e-05 -0.00390414 0.00165776 -0.000597355 0.00179401 -0.000170999)
(0.000319455 -0.00320648 0.00305787 -0.000186059 0.00330835 0.00038017)
(0.000644006 -0.00256658 0.00299959 0.000239853 0.00324472 0.000258705)
(0.000925219 -0.00204168 0.00157873 0.000603828 0.00170679 0.000632463)
(0.000626411 -0.00380494 0.00151165 -0.00120651 0.00192065 -0.000170915)
(0.00081806 -0.00312655 0.00278909 -0.000685337 0.00353947 0.000379839)
(0.00104329 -0.00250319 0.00273646 -0.000159334 0.00347067 0.000258071)
(0.00124313 -0.00199159 0.00144118 0.000286552 0.00182488 0.000631532)
(0.00120923 -0.00361307 0.00135586 -0.00178977 0.00203601 -0.000170801)
(0.00129773 -0.00296955 0.00250318 -0.00116516 0.00374946 0.000379254)
(0.00142787 -0.00237806 0.00245658 -0.00054347 0.00367595 0.000256949)
(0.00154965 -0.00189248 0.00129467 -1.88628e-05 0.00193237 0.000629869)
(0.00175457 -0.00333294 0.00119187 -0.00233558 0.00213831 -0.000170625)
(0.00174671 -0.00273968 0.00220192 -0.00161406 0.00393647 0.000378576)
(0.0017881 -0.00219439 0.00216152 -0.000903036 0.003859 0.000255578)
(0.00183701 -0.00174672 0.00113998 -0.000304859 0.00202845 0.000627798)
(0.00224942 -0.00297142 0.00102095 -0.00283089 0.00222689 -0.000170372)
(0.00215425 -0.00244268 0.00188721 -0.00202143 0.00409914 0.000377945)
(0.00211521 -0.00195674 0.00185308 -0.0012294 0.00401843 0.000254187)
(0.00209806 -0.00155785 0.000978032 -0.0005645 0.00211233 0.000625652)
(0.00268207 -0.00253741 0.000844253 -0.0032638 0.0023013 -0.000170087)
(0.00251056 -0.00208579 0.00156101 -0.00237749 0.00423635 0.000377439)
(0.00240118 -0.00167091 0.00153315 -0.00151465 0.00415307 0.000252955)
(0.00232627 -0.00133046 0.000809921 -0.000791438 0.00218332 0.000623707)
(0.00304234 -0.00204145 0.000662731 -0.00362393 0.00236122 -0.000169783)
(0.00280706 -0.00167769 0.00122523 -0.00267361 0.0043472 0.000377163)
(0.00263897 -0.00134388 0.0012037 -0.00175183 0.00426194 0.000252076)
(0.0025159 -0.00107013 0.000636788 -0.000980085 0.00224084 0.000622216)
(0.00332186 -0.0014956 0.000477123 -0.00390285 0.00240641 -0.00016935)
(0.00303653 -0.00122838 0.000881624 -0.00290257 0.004431 0.000377437)
(0.00282265 -0.000983831 0.000866567 -0.00193533 0.00434434 0.000251963)
(0.00266216 -0.000783332 0.000459711 -0.0011258 0.00228443 0.00062158)
(0.00351797 -0.000910786 0.000287797 -0.00409296 0.0024362 -0.000168241)
(0.00319282 -0.000750446 0.000531463 -0.00305968 0.00448728 0.00037954)
(0.00294783 -0.000600741 0.000523022 -0.00206193 0.00440002 0.000254021)
(0.00276091 -0.000476229 0.000279859 -0.00122683 0.00231358 0.000622993)
(0.00359421 -0.000340416 -2.03876e-05 -0.0041978 0.0024132 -0.000183754)
(0.00326749 -0.000280499 9.44539e-05 -0.00315276 0.00450953 0.000384092)
(0.00301179 -0.000221448 9.31649e-05 -0.00214043 0.00445018 0.00025987)
(0.00281833 -0.000170983 -1.58041e-05 -0.00129121 0.00238771 0.0006118)
(-0.00297451 -0.000349381 0.000762718 0.00531561 -4.11525e-05 -0.00396981)
(-0.0030937 -0.00034315 0.00147599 0.00493626 -3.93692e-06 -0.00136087)
(-0.00294063 -0.000321637 0.00146318 0.00459058 -4.70572e-06 0.000808974)
(-0.00310287 -0.000314117 0.000731834 0.004278 -4.274e-05 0.00332772)
(-0.00288799 -0.000969676 0.000766597 0.00521305 8.79086e-05 -0.00392384)
(-0.00299715 -0.000938965 0.00146728 0.00482469 0.000171111 -0.0013246)
(-0.00284993 -0.000878841 0.00144244 0.0044786 0.000169494 0.000846346)
(-0.00302491 -0.000857763 0.000705005 0.00415396 8.49295e-05 0.00337796)
(-0.00268894 -0.00159363 0.000756785 0.00500639 0.000147474 -0.00392058)
(-0.00280284 -0.00153853 0.00144846 0.00462939 0.000286867 -0.00132151)
(-0.00266737 -0.00144116 0.00142365 0.00429586 0.000283883 0.000849122)
(-0.0028473 -0.0014124 0.000696025 0.00397816 0.000141574 0.00337997)
(-0.00239238 -0.002176 0.000742404 0.00470946 0.000205187 -0.00391923)
(-0.00251636 -0.00210172 0.00142041 0.00434255 0.000399102 -0.00132051)
(-0.00239868 -0.00196896 0.00139592 0.00402739 0.000394691 0.000849752)
(-0.00258437 -0.0019298 0.000682117 0.00371554 0.00019621 0.0033801)
(-0.00200869 -0.00270522 0.000723223 0.00432614 0.000261355 -0.0039185)
(-0.00214515 -0.0026131 0.00138324 0.00397157 0.000508209 -0.00132008)
(-0.00205064 -0.00244802 0.00135918 0.0036795 0.000502307 0.000849845)
(-0.00224323 -0.00239905 0.000663705 0.00337449 0.000249074 0.00337977)
(-0.0015471 -0.00316843 0.000699166 0.00386557 0.000316062 -0.00391802)
(-0.00169861 -0.00306011 0.0013371 0.00352553 0.000613929 -0.00131981)
(-0.00163199 -0.00286638 0.00131371 0.00326089 0.000606417 0.000849861)
(-0.0018328 -0.0028086 0.000641022 0.00296376 0.000300021 0.00337945)
(-0.00101881 -0.00355432 0.000670223 0.00333868 0.000369162 -0.00391769)
(-0.00118785 -0.0034318 0.00128234 0.00301539 0.000715732 -0.00131956)
(-0.00115326 -0.00321381 0.00125994 0.00278213 0.000706436 0.000849931)
(-0.00136352 -0.00314838 0.000614401 0.00249385 0.00034868 0.00337929)
(-0.000436599 -0.00385338 0.00063652 0.00275804 0.000420316 -0.00391751)
(-0.000625422 -0.00371915 0.00121952 0.00245367 0.000813015 -0.00131933)
(-0.000626378 -0.00348191 0.00119854 0.00225518 0.000801764 0.000850063)
(-0.000847175 -0.00341027 0.000584322 0.00197673 0.000394683 0.0033793)
(0.00018547 -0.00405819 0.000598458 0.00213745 0.000468983 -0.0039175)
(-2.48847e-05 -0.00391515 0.00114946 0.00185398 0.000905212 -0.00131917)
(-6.42531e-05 -0.00366429 0.00113033 0.00169308 0.000891938 0.000850201)
(-0.000296509 -0.00358812 0.000551334 0.00142534 0.000437821 0.00337939)
(0.000834356 -0.00416382 0.0005574 0.0014916 0.000514503 -0.00391757)
(0.000599252 -0.00401475 0.00107333 0.00123087 0.000991938 -0.0013191)
(0.000519247 -0.00375657 0.00105621 0.00110973 0.000976733 0.000850284)
(0.000274948 -0.00367796 0.000515896 0.00085344 0.000478136 0.00337947)
(0.0014916 -0.00416382 0.000514504 0.000834356 0.0005574 -0.00391757)
(0.00123087 -0.00401475 0.000991939 0.000599252 0.00107333 -0.0013191)
(0.00110973 -0.00375657 0.000976733 0.000519247 0.00105621 0.000850284)
(0.00085344 -0.00367796 0.000478135 0.000274948 0.000515896 0.00337947)
(0.00213745 -0.0040582 0.000468984 0.000185469 0.000598457 -0.0039175)
(0.00185397 -0.00391515 0.000905213 -2.48849e-05 0.00114946 -0.00131917)
(0.00169308 -0.00366429 0.000891938 -6.42531e-05 0.00113033 0.000850201)
(0.00142534 -0.00358812 0.000437821 -0.000296509 0.000551335 0.00337939)
(0.00275803 -0.00385338 0.000420317 -0.000436601 0.00063652 -0.00391751)
(0.00245367 -0.00371915 0.000813016 -0.000625423 0.00121952 -0.00131933)
(0.00225518 -0.00348191 0.000801764 -0.000626378 0.00119854 0.000850063)
(0.00197673 -0.00341027 0.000394683 -0.000847175 0.000584323 0.0033793)
(0.00333868 -0.00355432 0.000369163 -0.00101882 0.000670223 -0.00391769)
(0.00301539 -0.0034318 0.000715732 -0.00118785 0.00128234 -0.00131956)
(0.00278212 -0.00321381 0.000706436 -0.00115326 0.00125994 0.000849931)
(0.00249385 -0.00314838 0.00034868 -0.00136352 0.000614401 0.00337929)
(0.00386557 -0.00316843 0.000316063 -0.00154711 0.000699165 -0.00391802)
(0.00352553 -0.00306011 0.000613929 -0.00169861 0.0013371 -0.00131981)
(0.00326089 -0.00286638 0.000606417 -0.00163199 0.00131371 0.000849861)
(0.00296375 -0.0028086 0.000300021 -0.0018328 0.000641022 0.00337945)
(0.00432614 -0.00270522 0.000261356 -0.00200869 0.000723223 -0.0039185)
(0.00397157 -0.0026131 0.00050821 -0.00214515 0.00138324 -0.00132008)
(0.0036795 -0.00244802 0.000502307 -0.00205065 0.00135918 0.000849845)
(0.00337449 -0.00239905 0.000249073 -0.00224323 0.000663705 0.00337977)
(0.00470946 -0.002176 0.000205187 -0.00239239 0.000742404 -0.00391923)
(0.00434255 -0.00210172 0.000399102 -0.00251636 0.00142041 -0.00132051)
(0.00402739 -0.00196896 0.000394691 -0.00239868 0.00139592 0.000849752)
(0.00371554 -0.0019298 0.00019621 -0.00258437 0.000682117 0.0033801)
(0.00500639 -0.00159363 0.000147475 -0.00268894 0.000756785 -0.00392058)
(0.00462939 -0.00153853 0.000286867 -0.00280284 0.00144846 -0.00132151)
(0.00429586 -0.00144116 0.000283883 -0.00266737 0.00142365 0.000849122)
(0.00397816 -0.0014124 0.000141573 -0.0028473 0.000696025 0.00337997)
(0.00521305 -0.000969677 8.79089e-05 -0.00288799 0.000766598 -0.00392384)
(0.00482469 -0.000938965 0.000171111 -0.00299716 0.00146728 -0.0013246)
(0.00447859 -0.000878841 0.000169494 -0.00284993 0.00144244 0.000846347)
(0.00415396 -0.000857763 8.49295e-05 -0.00302491 0.000705006 0.00337796)
(0.00531561 -0.000349382 -4.11524e-05 -0.00297452 0.000762718 -0.00396981)
(0.00493626 -0.000343151 -3.93679e-06 -0.00309371 0.00147599 -0.00136087)
(0.00459058 -0.000321637 -4.70564e-06 -0.00294063 0.00146318 0.000808974)
(0.004278 -0.000314117 -4.274e-05 -0.00310287 0.000731834 0.00332772)
(-0.00238596 -0.00034359 -0.000522326 0.00588042 -2.64586e-05 -0.00460416)
(-0.00278157 -0.000350001 -0.000685731 0.00549496 -3.70116e-05 -0.00182701)
(-0.00302313 -0.00034717 -0.000664229 0.00512964 -3.68994e-05 0.000692693)
(-0.00345229 -0.000350526 -0.000475843 0.00478659 -2.70897e-05 0.003409)
(-0.00230171 -0.000966892 -0.000523829 0.00577383 -6.41806e-05 -0.00455748)
(-0.00269001 -0.000968516 -0.000683316 0.00537839 -8.27617e-05 -0.00178487)
(-0.00293337 -0.000952803 -0.000659702 0.00500777 -7.95048e-05 0.000736381)
(-0.00336683 -0.00095764 -0.000469029 0.00464771 -5.63261e-05 0.0034605)
(-0.00210386 -0.0015891 -0.000517621 0.00556834 -0.000105899 -0.00455298)
(-0.00249093 -0.00158789 -0.000675359 0.00517621 -0.000136142 -0.00178066)
(-0.00273689 -0.00156244 -0.00065185 0.00480901 -0.000130486 0.00073999)
(-0.00316859 -0.00157702 -0.000463487 0.00445089 -9.1947e-05 0.00346292)
(-0.00180831 -0.00217024 -0.000508175 0.00527195 -0.000146821 -0.00455038)
(-0.00219515 -0.00216938 -0.00066342 0.0048796 -0.000188839 -0.0017789)
(-0.00244535 -0.00213477 -0.000640371 0.00451732 -0.000180892 0.000740839)
(-0.00287471 -0.00215478 -0.000455385 0.00415723 -0.000127212 0.00346262)
(-0.00142534 -0.00269837 -0.000495834 0.00488943 -0.000186945 -0.00454854)
(-0.00181137 -0.0026973 -0.000647744 0.0044962 -0.000240688 -0.0017782)
(-0.0020673 -0.00265408 -0.000625372 0.00413963 -0.00023058 0.000740458)
(-0.00249309 -0.00267854 -0.000444829 0.00377608 -0.000161991 0.00346097)
(-0.000964367 -0.00316058 -0.000480847 0.00443006 -0.000225995 -0.00454702)
(-0.00134958 -0.0031585 -0.000628557 0.00403545 -0.000291391 -0.00177794)
(-0.00161249 -0.00310726 -0.000606951 0.00368536 -0.000279284 0.000739555)
(-0.00203394 -0.00313528 -0.000431815 0.00331715 -0.000196165 0.00345872)
(-0.000436679 -0.00354556 -0.000463418 0.00390485 -0.000263646 -0.00454574)
(-0.000821537 -0.00354159 -0.000605933 0.00350888 -0.000340655 -0.00177789)
(-0.00109269 -0.00348311 -0.000585086 0.00316614 -0.000326773 0.000738481)
(-0.00150923 -0.00351373 -0.000416245 0.00279233 -0.000229666 0.00345632)
(0.000144778 -0.00384373 -0.000443659 0.00332643 -0.000299655 -0.00454476)
(-0.000240593 -0.00383725 -0.000579772 0.00292966 -0.000388181 -0.00177795)
(-0.000521227 -0.00377259 -0.000559588 0.00259526 -0.000372775 0.00073745)
(-0.000932449 -0.00380489 -0.000397892 0.00221517 -0.000262388 0.00345414)
(0.000765644 -0.00404765 -0.000421464 0.00270858 -0.000333911 -0.00454417)
(0.000378796 -0.00403844 -0.000549747 0.00231206 -0.000433598 -0.00177807)
(8.7532e-05 -0.00396906 -0.000530121 0.00198707 -0.000416867 0.000736627)
(-0.00031809 -0.00400223 -0.000376469 0.00160035 -0.000294053 0.00345247)
(0.00141201 -0.00415237 -0.000395918 0.00206584 -0.000366353 -0.00454395)
(0.00102138 -0.00414041 -0.000515307 0.001671 -0.000476314 -0.00177818)
(0.000718501 -0.00406828 -0.000496354 0.00135655 -0.000458365 0.000736163)
(0.000318772 -0.00410174 -0.000351805 0.000963159 -0.000324114 0.00345157)
(0.00206584 -0.00415237 -0.000366353 0.00141201 -0.000395919 -0.00454395)
(0.001671 -0.00414041 -0.000476313 0.00102138 -0.000515307 -0.00177818)
(0.00135655 -0.00406828 -0.000458365 0.000718501 -0.000496354 0.000736163)
(0.000963159 -0.00410174 -0.000324114 0.000318773 -0.000351805 0.00345157)
(0.00270858 -0.00404766 -0.00033391 0.000765643 -0.000421465 -0.00454417)
(0.00231205 -0.00403844 -0.000433597 0.000378796 -0.000549747 -0.00177807)
(0.00198707 -0.00396906 -0.000416867 8.7532e-05 -0.000530121 0.000736627)
(0.00160035 -0.00400223 -0.000294053 -0.000318089 -0.000376469 0.00345247)
(0.00332642 -0.00384373 -0.000299654 0.000144776 -0.00044366 -0.00454476)
(0.00292966 -0.00383725 -0.00038818 -0.000240594 -0.000579772 -0.00177795)
(0.00259526 -0.00377259 -0.000372775 -0.000521227 -0.000559588 0.00073745)
(0.00221517 -0.00380489 -0.000262388 -0.000932449 -0.000397892 0.00345414)
(0.00390485 -0.00354556 -0.000263645 -0.000436683 -0.000463419 -0.00454574)
(0.00350887 -0.00354159 -0.000340654 -0.000821539 -0.000605933 -0.00177789)
(0.00316614 -0.00348311 -0.000326773 -0.00109269 -0.000585086 0.000738481)
(0.00279233 -0.00351373 -0.000229666 -0.00150923 -0.000416245 0.00345632)
(0.00443006 -0.00316059 -0.000225994 -0.000964372 -0.000480847 -0.00454702)
(0.00403545 -0.00315851 -0.00029139 -0.00134959 -0.000628556 -0.00177794)
(0.00368536 -0.00310726 -0.000279284 -0.00161249 -0.000606951 0.000739556)
(0.00331715 -0.00313528 -0.000196165 -0.00203394 -0.000431815 0.00345872)
(0.00488943 -0.00269837 -0.000186944 -0.00142535 -0.000495834 -0.00454854)
(0.0044962 -0.0026973 -0.000240687 -0.00181138 -0.000647743 -0.0017782)
(0.00413963 -0.00265408 -0.000230579 -0.0020673 -0.000625371 0.000740458)
(0.00377607 -0.00267854 -0.000161991 -0.00249309 -0.000444828 0.00346097)
(0.00527195 -0.00217024 -0.00014682 -0.00180832 -0.000508175 -0.00455038)
(0.0048796 -0.00216939 -0.000188839 -0.00219516 -0.000663419 -0.0017789)
(0.00451732 -0.00213477 -0.000180892 -0.00244535 -0.000640371 0.00074084)
(0.00415723 -0.00215478 -0.000127212 -0.00287471 -0.000455385 0.00346262)
(0.00556833 -0.0015891 -0.000105899 -0.00210386 -0.00051762 -0.00455298)
(0.00517621 -0.00158789 -0.000136142 -0.00249094 -0.000675359 -0.00178066)
(0.00480901 -0.00156244 -0.000130486 -0.00273689 -0.00065185 0.000739991)
(0.00445089 -0.00157702 -9.19471e-05 -0.00316859 -0.000463487 0.00346292)
(0.00577383 -0.000966893 -6.41803e-05 -0.00230172 -0.000523828 -0.00455748)
(0.00537839 -0.000968517 -8.27615e-05 -0.00269001 -0.000683316 -0.00178487)
(0.00500777 -0.000952803 -7.95048e-05 -0.00293337 -0.000659702 0.000736381)
(0.0046477 -0.00095764 -5.63262e-05 -0.00336683 -0.000469029 0.0034605)
(0.00588042 -0.00034359 -2.64584e-05 -0.00238597 -0.000522325 -0.00460416)
(0.00549496 -0.000350002 -3.70114e-05 -0.00278158 -0.000685731 -0.00182701)
(0.00512963 -0.00034717 -3.68993e-05 -0.00302313 -0.000664228 0.000692693)
(0.00478659 -0.000350526 -2.70897e-05 -0.00345229 -0.000475842 0.003409)
(-0.00217715 -0.000314266 -0.00106276 0.00538537 5.25076e-06 -0.00313742)
(-0.00238795 -0.00031331 -0.00162723 0.00503745 -2.70369e-05 -0.00138963)
(-0.00256616 -0.000309124 -0.00158487 0.00471117 -2.63062e-05 0.000287347)
(-0.00281635 -0.000305827 -0.000972067 0.00440835 5.11828e-06 0.00200313)
(-0.00209539 -0.00088461 -0.00106511 0.005294 -0.000125703 -0.00310955)
(-0.00230517 -0.00086971 -0.00161774 0.00493804 -0.000191109 -0.0013623)
(-0.0024853 -0.000851389 -0.00156707 0.00460749 -0.000185557 0.000315555)
(-0.00273625 -0.000840012 -0.00094849 0.00429179 -0.000113546 0.00203348)
(-0.00191381 -0.00145391 -0.00105194 0.00510593 -0.000209681 -0.00310644)
(-0.0021264 -0.00142575 -0.00159769 0.00475659 -0.000318278 -0.00135981)
(-0.00230964 -0.0013957 -0.00154745 0.00442989 -0.000308613 0.000317335)
(-0.0025615 -0.0013827 -0.000936884 0.00411881 -0.000187725 0.00203423)
(-0.00164311 -0.00198567 -0.00103229 0.00483422 -0.000291487 -0.00310398)
(-0.00186044 -0.00194787 -0.00156783 0.00448973 -0.000442553 -0.00135847)
(-0.00204873 -0.00190694 -0.00151849 0.00416878 -0.000428847 0.000317597)
(-0.00230334 -0.00188923 -0.000919331 0.00386091 -0.000260233 0.00203326)
(-0.00129218 -0.00246894 -0.00100647 0.00448365 -0.000371339 -0.00310185)
(-0.00151514 -0.00242191 -0.00152848 0.0041448 -0.000563864 -0.00135785)
(-0.0017103 -0.00237079 -0.00148034 0.0038307 -0.000546208 0.000316884)
(-0.00196812 -0.00234829 -0.000896254 0.00352616 -0.000330925 0.00203102)
(-0.000869643 -0.00289184 -0.000974685 0.00406299 -0.000449047 -0.00309987)
(-0.00109956 -0.00283586 -0.00147999 0.00373048 -0.000681818 -0.00135763)
(-0.00130315 -0.00277531 -0.00143332 0.0034242 -0.000660298 0.000315578)
(-0.00156483 -0.00274825 -0.000867857 0.00312313 -0.000399621 0.00202797)
(-0.000385924 -0.00324394 -0.00093716 0.00358249 -0.000524233 -0.00309809)
(-0.000624475 -0.00317934 -0.00142265 0.00325738 -0.000795865 -0.00135767)
(-0.000838023 -0.00311034 -0.0013777 0.00295991 -0.000770608 0.000313975)
(-0.00110418 -0.00307912 -0.00083426 0.00266244 -0.0004661 0.00202456)
(0.000146954 -0.00351645 -0.000894097 0.00305377 -0.000596486 -0.00309663)
(-0.000102253 -0.00344394 -0.00135671 0.0027376 -0.000905401 -0.00135788)
(-0.000327215 -0.00336784 -0.00131367 0.00245003 -0.000876571 0.000312353)
(-0.000598314 -0.0033331 -0.00079551 0.00215625 -0.000530095 0.00202126)
(0.00071555 -0.00370253 -0.000845601 0.00248949 -0.000665446 -0.00309565)
(0.000453681 -0.00362353 -0.00128227 0.00218417 -0.00100977 -0.00135816)
(0.000216057 -0.00354213 -0.00124134 0.00190764 -0.000977521 0.000311009)
(-6.02256e-05 -0.00350476 -0.000751617 0.0016177 -0.000591241 0.00201863)
(0.00130627 -0.00379767 -0.000791217 0.00190284 -0.00073075 -0.00309522)
(0.00102929 -0.00371428 -0.0011993 0.00161047 -0.00110812 -0.00135838)
(0.000778195 -0.00362991 -0.00116085 0.00134614 -0.00107262 0.000310236)
(0.000496868 -0.00359112 -0.000702666 0.00106027 -0.000648996 0.00201715)
(0.00190284 -0.00379767 -0.000730749 0.00130627 -0.000791218 -0.00309522)
(0.00161047 -0.00371428 -0.00110812 0.00102929 -0.0011993 -0.00135838)
(0.00134614 -0.00362991 -0.00107262 0.000778196 -0.00116085 0.000310236)
(0.00106027 -0.00359112 -0.000648997 0.000496869 -0.000702666 0.00201715)
(0.00248949 -0.00370253 -0.000665445 0.000715549 -0.000845601 -0.00309565)
(0.00218417 -0.00362353 -0.00100976 0.000453681 -0.00128227 -0.00135816)
(0.00190764 -0.00354213 -0.00097752 0.000216057 -0.00124134 0.000311009)
(0.0016177 -0.00350476 -0.000591241 -6.02255e-05 -0.000751617 0.00201863)
(0.00305377 -0.00351645 -0.000596485 0.000146951 -0.000894097 -0.00309663)
(0.0027376 -0.00344394 -0.000905401 -0.000102255 -0.00135671 -0.00135788)
(0.00245003 -0.00336784 -0.00087657 -0.000327215 -0.00131367 0.000312353)
(0.00215625 -0.0033331 -0.000530095 -0.000598314 -0.000795509 0.00202126)
(0.00358249 -0.00324394 -0.000524232 -0.000385929 -0.00093716 -0.00309809)
(0.00325738 -0.00317934 -0.000795864 -0.000624478 -0.00142265 -0.00135767)
(0.00295991 -0.00311035 -0.000770608 -0.000838024 -0.0013777 0.000313975)
(0.00266244 -0.00307912 -0.0004661 -0.00110418 -0.000834259 0.00202456)
(0.00406299 -0.00289185 -0.000449046 -0.00086965 -0.000974685 -0.00309987)
(0.00373048 -0.00283586 -0.000681817 -0.00109956 -0.00147999 -0.00135763)
(0.0034242 -0.00277532 -0.000660298 -0.00130315 -0.00143332 0.000315578)
(0.00312313 -0.00274825 -0.000399622 -0.00156483 -0.000867857 0.00202797)
(0.00448365 -0.00246895 -0.000371339 -0.00129219 -0.00100647 -0.00310184)
(0.0041448 -0.00242191 -0.000563864 -0.00151514 -0.00152848 -0.00135785)
(0.00383069 -0.00237079 -0.000546208 -0.0017103 -0.00148034 0.000316884)
(0.00352615 -0.00234829 -0.000330925 -0.00196812 -0.000896254 0.00203102)
(0.00483422 -0.00198568 -0.000291487 -0.00164312 -0.00103229 -0.00310398)
(0.00448973 -0.00194787 -0.000442552 -0.00186044 -0.00156783 -0.00135847)
(0.00416878 -0.00190694 -0.000428847 -0.00204873 -0.00151849 0.000317597)
(0.00386091 -0.00188923 -0.000260233 -0.00230334 -0.000919331 0.00203326)
(0.00510593 -0.00145391 -0.00020968 -0.00191382 -0.00105194 -0.00310644)
(0.00475659 -0.00142576 -0.000318277 -0.00212641 -0.00159769 -0.00135981)
(0.00442989 -0.0013957 -0.000308613 -0.00230964 -0.00154745 0.000317335)
(0.00411881 -0.0013827 -0.000187725 -0.0025615 -0.000936884 0.00203423)
(0.005294 -0.000884612 -0.000125702 -0.0020954 -0.00106511 -0.00310955)
(0.00493804 -0.000869711 -0.000191109 -0.00230517 -0.00161774 -0.0013623)
(0.00460749 -0.000851389 -0.000185557 -0.0024853 -0.00156707 0.000315555)
(0.00429179 -0.000840012 -0.000113546 -0.00273625 -0.000948489 0.00203348)
(0.00538537 -0.000314266 5.25091e-06 -0.00217716 -0.00106276 -0.00313742)
(0.00503745 -0.00031331 -2.70368e-05 -0.00238795 -0.00162723 -0.00138963)
(0.00471117 -0.000309124 -2.63061e-05 -0.00256616 -0.00158487 0.000287347)
(0.00440834 -0.000305826 5.1183e-06 -0.00281635 -0.000972066 0.00200313)