/*--------------------------------*- C++ -*----------------------------------*\
| =========                 |                                                 |
| \\      /  F ield         | foam-extend: Open Source CFD                    |
|  \\    /   O peration     | Version:     3.1                                |
|   \\  /    A nd           | Web:         http://www.extend-project.de       |
|    \\/     M anipulation  |                                                 |
\*---------------------------------------------------------------------------*/
FoamFile
{
    version     2.0;
    format      ascii;
    class       pointVectorField;
    location    "0.0005";
    object      pointD;
}
// * * * * * * * * * * * * * * * * * * * * * * * * * * * * * * * * * * * * * //

dimensions      [0 1 0 0 0 0 0];

internalField   nonuniform List<vector> 
8505
(
(0 0 0)
(0 0 0)
(0 0 0)
(0 0 0)
(0 0 0)
(0 0 0)
(0 0 0)
(0 0 0)
(0 0 0)
(0 0 0)
(0 0 0)
(0 0 0)
(0 0 0)
(0 0 0)
(0 0 0)
(0 0 0)
(0 0 0)
(0 0 0)
(0 0 0)
(0 0 0)
(0 0 0)
(0 0 0)
(0 0 0)
(0 0 0)
(0 0 0)
(0 0 0)
(0 0 0)
(0 0 0)
(0 0 0)
(0 0 0)
(0 0 0)
(0 0 0)
(0 0 0)
(0 0 0)
(0 0 0)
(0 0 0)
(0 0 0)
(0 0 0)
(0 0 0)
(0 0 0)
(0 0 0)
(0 0 0)
(0 0 0)
(0 0 0)
(0 0 0)
(0 0 0)
(0 0 0)
(0 0 0)
(0 0 0)
(0 0 0)
(0 0 0)
(0 0 0)
(0 0 0)
(0 0 0)
(0 0 0)
(0 0 0)
(0 0 0)
(0 0 0)
(0 0 0)
(0 0 0)
(0 0 0)
(0 0 0)
(0 0 0)
(0 0 0)
(0 0 0)
(0 0 0)
(0 0 0)
(0 0 0)
(0 0 0)
(0 0 0)
(0 0 0)
(0 0 0)
(0 0 0)
(0 0 0)
(0 0 0)
(0 0 0)
(0 0 0)
(0 0 0)
(0 0 0)
(0 0 0)
(0 0 0)
(0 0 0)
(0 0 0)
(0 0 0)
(0 0 0)
(0 0 0)
(0 0 0)
(0 0 0)
(0 0 0)
(0 0 0)
(0 0 0)
(0 0 0)
(0 0 0)
(0 0 0)
(0 0 0)
(0 0 0)
(0 0 0)
(0 0 0)
(0 0 0)
(0 0 0)
(0 0 0)
(0 0 0)
(0 0 0)
(0 0 0)
(0 0 0)
(1.35019e-05 0 6.60662e-06)
(1.22425e-05 0 2.81461e-06)
(1.1465e-05 0 4.35705e-07)
(1.1069e-05 0 -1.86808e-06)
(1.10658e-05 0 -5.30704e-06)
(1.34149e-05 1.04237e-06 6.47159e-06)
(1.2174e-05 9.50675e-07 2.73616e-06)
(1.14102e-05 8.928e-07 3.71417e-07)
(1.10269e-05 8.63677e-07 -1.95052e-06)
(1.10394e-05 8.6568e-07 -5.45295e-06)
(1.32851e-05 2.09638e-06 6.46694e-06)
(1.20572e-05 1.90353e-06 2.73311e-06)
(1.13014e-05 1.78586e-06 3.69086e-07)
(1.09228e-05 1.72761e-06 -1.95241e-06)
(1.09371e-05 1.73122e-06 -5.4535e-06)
(1.30766e-05 3.13224e-06 6.46441e-06)
(1.18681e-05 2.84372e-06 2.73163e-06)
(1.11241e-05 2.66719e-06 3.68379e-07)
(1.07514e-05 2.57974e-06 -1.95239e-06)
(1.07653e-05 2.58485e-06 -5.45244e-06)
(1.27881e-05 4.14749e-06 6.46271e-06)
(1.1606e-05 3.76544e-06 2.73098e-06)
(1.08782e-05 3.53131e-06 3.68523e-07)
(1.05134e-05 3.41512e-06 -1.95141e-06)
(1.05266e-05 3.42154e-06 -5.45027e-06)
(1.24208e-05 5.13657e-06 6.46137e-06)
(1.12722e-05 4.66333e-06 2.73071e-06)
(1.05649e-05 4.373e-06 3.69089e-07)
(1.02102e-05 4.22867e-06 -1.94993e-06)
(1.02227e-05 4.23621e-06 -5.44747e-06)
(1.19771e-05 6.09387e-06 6.46034e-06)
(1.0869e-05 5.53215e-06 2.73069e-06)
(1.01865e-05 5.18725e-06 3.69876e-07)
(9.8441e-06 5.01548e-06 -1.94823e-06)
(9.85575e-06 5.02388e-06 -5.44438e-06)
(1.14597e-05 7.01384e-06 6.45974e-06)
(1.03989e-05 6.36687e-06 2.7309e-06)
(9.74553e-06 5.96927e-06 3.70775e-07)
(9.4176e-06 5.77089e-06 -1.94649e-06)
(9.42847e-06 5.77989e-06 -5.44134e-06)
(1.08718e-05 7.89108e-06 6.45977e-06)
(9.86494e-06 7.16258e-06 2.73135e-06)
(9.24483e-06 6.7145e-06 3.71678e-07)
(8.93364e-06 6.49053e-06 -1.94494e-06)
(8.94387e-06 6.49988e-06 -5.43871e-06)
(1.0217e-05 8.72043e-06 6.46051e-06)
(9.27033e-06 7.91462e-06 2.73196e-06)
(8.68765e-06 7.4186e-06 3.72431e-07)
(8.3954e-06 7.17028e-06 -1.94382e-06)
(8.40522e-06 7.1798e-06 -5.43689e-06)
(9.49787e-06 9.49787e-06 6.46106e-06)
(8.61871e-06 8.61871e-06 2.73229e-06)
(8.0776e-06 8.0776e-06 3.72745e-07)
(7.80641e-06 7.80641e-06 -1.94341e-06)
(7.81603e-06 7.81603e-06 -5.43622e-06)
(8.72043e-06 1.0217e-05 6.46051e-06)
(7.91462e-06 9.27032e-06 2.73196e-06)
(7.4186e-06 8.68765e-06 3.72431e-07)
(7.17028e-06 8.3954e-06 -1.94382e-06)
(7.1798e-06 8.40522e-06 -5.43688e-06)
(7.89108e-06 1.08718e-05 6.45977e-06)
(7.16258e-06 9.86494e-06 2.73134e-06)
(6.7145e-06 9.24483e-06 3.71678e-07)
(6.49053e-06 8.93364e-06 -1.94494e-06)
(6.49988e-06 8.94387e-06 -5.43871e-06)
(7.01384e-06 1.14597e-05 6.45974e-06)
(6.36687e-06 1.03989e-05 2.7309e-06)
(5.96927e-06 9.74553e-06 3.70774e-07)
(5.77089e-06 9.4176e-06 -1.94649e-06)
(5.77989e-06 9.42847e-06 -5.44134e-06)
(6.09387e-06 1.19771e-05 6.46033e-06)
(5.53215e-06 1.0869e-05 2.73069e-06)
(5.18725e-06 1.01865e-05 3.69876e-07)
(5.01548e-06 9.8441e-06 -1.94823e-06)
(5.02388e-06 9.85575e-06 -5.44438e-06)
(5.13657e-06 1.24208e-05 6.46136e-06)
(4.66333e-06 1.12722e-05 2.73071e-06)
(4.373e-06 1.05649e-05 3.69088e-07)
(4.22867e-06 1.02102e-05 -1.94993e-06)
(4.23621e-06 1.02227e-05 -5.44747e-06)
(4.14749e-06 1.27881e-05 6.46271e-06)
(3.76544e-06 1.1606e-05 2.73098e-06)
(3.53131e-06 1.08782e-05 3.68523e-07)
(3.41512e-06 1.05134e-05 -1.9514e-06)
(3.42154e-06 1.05266e-05 -5.45027e-06)
(3.13224e-06 1.30766e-05 6.46441e-06)
(2.84372e-06 1.18681e-05 2.73163e-06)
(2.66719e-06 1.11241e-05 3.68379e-07)
(2.57974e-06 1.07514e-05 -1.95239e-06)
(2.58485e-06 1.07653e-05 -5.45244e-06)
(2.09638e-06 1.32851e-05 6.46694e-06)
(1.90353e-06 1.20572e-05 2.73311e-06)
(1.78586e-06 1.13014e-05 3.69086e-07)
(1.72761e-06 1.09228e-05 -1.95241e-06)
(1.73122e-06 1.09371e-05 -5.4535e-06)
(1.04237e-06 1.34149e-05 6.47159e-06)
(9.50675e-07 1.2174e-05 2.73616e-06)
(8.928e-07 1.14102e-05 3.71417e-07)
(8.63677e-07 1.10269e-05 -1.95052e-06)
(8.6568e-07 1.10394e-05 -5.45295e-06)
(0 1.35019e-05 6.60662e-06)
(0 1.22425e-05 2.81461e-06)
(0 1.1465e-05 4.35705e-07)
(0 1.1069e-05 -1.86808e-06)
(0 1.10658e-05 -5.30704e-06)
(2.47633e-05 0 6.08247e-06)
(2.39109e-05 0 3.0822e-06)
(2.30989e-05 0 6.52106e-07)
(2.24125e-05 0 -1.75389e-06)
(2.17601e-05 0 -4.67595e-06)
(2.46627e-05 1.9341e-06 5.98745e-06)
(2.38089e-05 1.87283e-06 3.00492e-06)
(2.30021e-05 1.81225e-06 5.79755e-07)
(2.23209e-05 1.76211e-06 -1.83831e-06)
(2.16676e-05 1.71642e-06 -4.78852e-06)
(2.44302e-05 3.86246e-06 5.98276e-06)
(2.3583e-05 3.7311e-06 2.99984e-06)
(2.2784e-05 3.60785e-06 5.75042e-07)
(2.21094e-05 3.50445e-06 -1.84244e-06)
(2.14617e-05 3.40531e-06 -4.79047e-06)
(2.4047e-05 5.76287e-06 5.97999e-06)
(2.32128e-05 5.56601e-06 2.99792e-06)
(2.24259e-05 5.38077e-06 5.73938e-07)
(2.17616e-05 5.22508e-06 -1.84255e-06)
(2.11234e-05 5.0757e-06 -4.78918e-06)
(2.35154e-05 7.62694e-06 5.97796e-06)
(2.26989e-05 7.36592e-06 2.99719e-06)
(2.19288e-05 7.11996e-06 5.7431e-07)
(2.12786e-05 6.91304e-06 -1.84099e-06)
(2.06539e-05 6.71452e-06 -4.7861e-06)
(2.28383e-05 9.44362e-06 5.9762e-06)
(2.20445e-05 9.11985e-06 2.99698e-06)
(2.12958e-05 8.81455e-06 5.75354e-07)
(2.06637e-05 8.55754e-06 -1.83861e-06)
(2.00563e-05 8.31097e-06 -4.78198e-06)
(2.20203e-05 1.12022e-05 5.9747e-06)
(2.1254e-05 1.08173e-05 2.99708e-06)
(2.05313e-05 1.04542e-05 5.76749e-07)
(1.99212e-05 1.01484e-05 -1.83582e-06)
(1.93351e-05 9.85495e-06 -4.77734e-06)
(2.10667e-05 1.28923e-05 5.97364e-06)
(2.03327e-05 1.24481e-05 2.99747e-06)
(1.96407e-05 1.20291e-05 5.78309e-07)
(1.90566e-05 1.16759e-05 -1.83296e-06)
(1.84956e-05 1.13371e-05 -4.77269e-06)
(1.99837e-05 1.45042e-05 5.97328e-06)
(1.92868e-05 1.40029e-05 2.99813e-06)
(1.86302e-05 1.35301e-05 5.79836e-07)
(1.80761e-05 1.31314e-05 -1.8304e-06)
(1.75439e-05 1.27488e-05 -4.76863e-06)
(1.87781e-05 1.60284e-05 5.97373e-06)
(1.81232e-05 1.54727e-05 2.99891e-06)
(1.75064e-05 1.49486e-05 5.81038e-07)
(1.69861e-05 1.45066e-05 -1.82857e-06)
(1.64866e-05 1.40823e-05 -4.76581e-06)
(1.74565e-05 1.74565e-05 5.97414e-06)
(1.6849e-05 1.6849e-05 2.9993e-06)
(1.62766e-05 1.62766e-05 5.81514e-07)
(1.57938e-05 1.57938e-05 -1.82789e-06)
(1.53305e-05 1.53305e-05 -4.76479e-06)
(1.60284e-05 1.87781e-05 5.97373e-06)
(1.54727e-05 1.81232e-05 2.99891e-06)
(1.49486e-05 1.75064e-05 5.81038e-07)
(1.45066e-05 1.69861e-05 -1.82857e-06)
(1.40823e-05 1.64866e-05 -4.76581e-06)
(1.45042e-05 1.99837e-05 5.97328e-06)
(1.40029e-05 1.92868e-05 2.99813e-06)
(1.35301e-05 1.86302e-05 5.79835e-07)
(1.31314e-05 1.80761e-05 -1.8304e-06)
(1.27488e-05 1.75439e-05 -4.76863e-06)
(1.28923e-05 2.10667e-05 5.97364e-06)
(1.24481e-05 2.03327e-05 2.99747e-06)
(1.20291e-05 1.96407e-05 5.78308e-07)
(1.16759e-05 1.90566e-05 -1.83296e-06)
(1.13371e-05 1.84956e-05 -4.77269e-06)
(1.12022e-05 2.20203e-05 5.97469e-06)
(1.08173e-05 2.1254e-05 2.99708e-06)
(1.04542e-05 2.05313e-05 5.76748e-07)
(1.01484e-05 1.99212e-05 -1.83582e-06)
(9.85494e-06 1.93351e-05 -4.77734e-06)
(9.44362e-06 2.28383e-05 5.9762e-06)
(9.11985e-06 2.20445e-05 2.99698e-06)
(8.81455e-06 2.12958e-05 5.75354e-07)
(8.55754e-06 2.06637e-05 -1.83861e-06)
(8.31097e-06 2.00563e-05 -4.78198e-06)
(7.62694e-06 2.35154e-05 5.97796e-06)
(7.36592e-06 2.26989e-05 2.99719e-06)
(7.11996e-06 2.19288e-05 5.7431e-07)
(6.91304e-06 2.12786e-05 -1.84099e-06)
(6.71452e-06 2.06539e-05 -4.7861e-06)
(5.76288e-06 2.4047e-05 5.97999e-06)
(5.56601e-06 2.32128e-05 2.99792e-06)
(5.38077e-06 2.24259e-05 5.73938e-07)
(5.22508e-06 2.17616e-05 -1.84255e-06)
(5.0757e-06 2.11234e-05 -4.78918e-06)
(3.86246e-06 2.44302e-05 5.98276e-06)
(3.7311e-06 2.3583e-05 2.99984e-06)
(3.60785e-06 2.27839e-05 5.75042e-07)
(3.50445e-06 2.21094e-05 -1.84244e-06)
(3.40531e-06 2.14617e-05 -4.79046e-06)
(1.9341e-06 2.46627e-05 5.98745e-06)
(1.87283e-06 2.38089e-05 3.00492e-06)
(1.81225e-06 2.30021e-05 5.79755e-07)
(1.76211e-06 2.23209e-05 -1.83831e-06)
(1.71642e-06 2.16676e-05 -4.78852e-06)
(0 2.47633e-05 6.08247e-06)
(0 2.39109e-05 3.0822e-06)
(0 2.30989e-05 6.52106e-07)
(0 2.24125e-05 -1.75389e-06)
(0 2.17601e-05 -4.67595e-06)
(3.07192e-05 0 2.61387e-06)
(3.00825e-05 0 1.51853e-06)
(2.93406e-05 0 4.61663e-07)
(2.85499e-05 0 -6.06053e-07)
(2.76492e-05 0 -1.73747e-06)
(3.06086e-05 2.4045e-06 2.58255e-06)
(2.99665e-05 2.35888e-06 1.48675e-06)
(2.92236e-05 2.30396e-06 4.28635e-07)
(2.84318e-05 2.24607e-06 -6.42036e-07)
(2.75265e-05 2.18358e-06 -1.77738e-06)
(3.03217e-05 4.79415e-06 2.58065e-06)
(2.96835e-05 4.69689e-06 1.48475e-06)
(2.89464e-05 4.58451e-06 4.26737e-07)
(2.8161e-05 4.46481e-06 -6.43382e-07)
(2.7263e-05 4.32768e-06 -1.77776e-06)
(2.98457e-05 7.15075e-06 2.57912e-06)
(2.92167e-05 7.00491e-06 1.48387e-06)
(2.84902e-05 6.83568e-06 4.26429e-07)
(2.77164e-05 6.65524e-06 -6.42941e-07)
(2.68315e-05 6.44846e-06 -1.77635e-06)
(2.91841e-05 9.46216e-06 2.57775e-06)
(2.85679e-05 9.26852e-06 1.48358e-06)
(2.78566e-05 9.04356e-06 4.27038e-07)
(2.70992e-05 8.80364e-06 -6.41383e-07)
(2.6233e-05 8.5289e-06 -1.7736e-06)
(2.83412e-05 1.17145e-05 2.57643e-06)
(2.77415e-05 1.14739e-05 1.48364e-06)
(2.70498e-05 1.11944e-05 4.28186e-07)
(2.63133e-05 1.08963e-05 -6.39105e-07)
(2.54714e-05 1.05552e-05 -1.76986e-06)
(2.73227e-05 1.38945e-05 2.57521e-06)
(2.67433e-05 1.36078e-05 1.48396e-06)
(2.60755e-05 1.3275e-05 4.2968e-07)
(2.53647e-05 1.29202e-05 -6.36379e-07)
(2.45523e-05 1.25143e-05 -1.76548e-06)
(2.61356e-05 1.59895e-05 2.57428e-06)
(2.55804e-05 1.56577e-05 1.48453e-06)
(2.49409e-05 1.52731e-05 4.31364e-07)
(2.42606e-05 1.48632e-05 -6.33505e-07)
(2.34832e-05 1.43945e-05 -1.76093e-06)
(2.47883e-05 1.79876e-05 2.57392e-06)
(2.42612e-05 1.7612e-05 1.48533e-06)
(2.36545e-05 1.71772e-05 4.33017e-07)
(2.30093e-05 1.67142e-05 -6.30876e-07)
(2.22722e-05 1.6185e-05 -1.75684e-06)
(2.32897e-05 1.98775e-05 2.57423e-06)
(2.27947e-05 1.94597e-05 1.48616e-06)
(2.22253e-05 1.89771e-05 4.34304e-07)
(2.16199e-05 1.84634e-05 -6.28977e-07)
(2.09282e-05 1.78764e-05 -1.75394e-06)
(2.16489e-05 2.16489e-05 2.57455e-06)
(2.11908e-05 2.11908e-05 1.48655e-06)
(2.0663e-05 2.0663e-05 4.34807e-07)
(2.01015e-05 2.01015e-05 -6.28275e-07)
(1.94601e-05 1.94601e-05 -1.75289e-06)
(1.98775e-05 2.32897e-05 2.57423e-06)
(1.94597e-05 2.27947e-05 1.48616e-06)
(1.89771e-05 2.22253e-05 4.34304e-07)
(1.84634e-05 2.16199e-05 -6.28977e-07)
(1.78764e-05 2.09282e-05 -1.75394e-06)
(1.79876e-05 2.47882e-05 2.57392e-06)
(1.7612e-05 2.42612e-05 1.48533e-06)
(1.71772e-05 2.36545e-05 4.33017e-07)
(1.67142e-05 2.30093e-05 -6.30876e-07)
(1.6185e-05 2.22722e-05 -1.75684e-06)
(1.59895e-05 2.61356e-05 2.57428e-06)
(1.56577e-05 2.55804e-05 1.48453e-06)
(1.52731e-05 2.49409e-05 4.31364e-07)
(1.48632e-05 2.42606e-05 -6.33505e-07)
(1.43945e-05 2.34832e-05 -1.76093e-06)
(1.38945e-05 2.73227e-05 2.57521e-06)
(1.36078e-05 2.67433e-05 1.48396e-06)
(1.3275e-05 2.60755e-05 4.2968e-07)
(1.29202e-05 2.53647e-05 -6.36379e-07)
(1.25143e-05 2.45523e-05 -1.76548e-06)
(1.17145e-05 2.83412e-05 2.57643e-06)
(1.14739e-05 2.77415e-05 1.48364e-06)
(1.11944e-05 2.70498e-05 4.28186e-07)
(1.08963e-05 2.63133e-05 -6.39104e-07)
(1.05552e-05 2.54714e-05 -1.76986e-06)
(9.46216e-06 2.91841e-05 2.57775e-06)
(9.26852e-06 2.85679e-05 1.48358e-06)
(9.04356e-06 2.78566e-05 4.27038e-07)
(8.80364e-06 2.70992e-05 -6.41382e-07)
(8.5289e-06 2.6233e-05 -1.7736e-06)
(7.15075e-06 2.98457e-05 2.57912e-06)
(7.00491e-06 2.92167e-05 1.48386e-06)
(6.83568e-06 2.84902e-05 4.26428e-07)
(6.65524e-06 2.77164e-05 -6.4294e-07)
(6.44846e-06 2.68315e-05 -1.77635e-06)
(4.79415e-06 3.03217e-05 2.58064e-06)
(4.69689e-06 2.96835e-05 1.48474e-06)
(4.58451e-06 2.89463e-05 4.26737e-07)
(4.4648e-06 2.8161e-05 -6.43381e-07)
(4.32768e-06 2.7263e-05 -1.77776e-06)
(2.4045e-06 3.06086e-05 2.58255e-06)
(2.35888e-06 2.99665e-05 1.48675e-06)
(2.30395e-06 2.92236e-05 4.28635e-07)
(2.24607e-06 2.84318e-05 -6.42035e-07)
(2.18358e-06 2.75264e-05 -1.77738e-06)
(0 3.07192e-05 2.61387e-06)
(0 3.00825e-05 1.51853e-06)
(0 2.93406e-05 4.61662e-07)
(0 2.85499e-05 -6.06052e-07)
(0 2.76492e-05 -1.73747e-06)
(3.03996e-05 0 -1.24664e-06)
(2.98426e-05 0 -4.46278e-07)
(2.919e-05 0 8.14393e-08)
(2.84656e-05 0 5.77294e-07)
(2.76391e-05 0 1.26581e-06)
(3.02914e-05 2.37741e-06 -1.21846e-06)
(2.97303e-05 2.33807e-06 -4.2806e-07)
(2.90756e-05 2.29015e-06 9.63977e-08)
(2.8349e-05 2.23752e-06 5.95604e-07)
(2.75192e-05 2.18102e-06 1.29495e-06)
(3.00069e-05 4.74093e-06 -1.21682e-06)
(2.9449e-05 4.65701e-06 -4.2632e-07)
(2.87989e-05 4.55888e-06 9.81441e-08)
(2.80779e-05 4.4499e-06 5.9751e-07)
(2.7255e-05 4.32527e-06 1.29662e-06)
(2.95345e-05 7.07176e-06 -1.21618e-06)
(2.89844e-05 6.94592e-06 -4.25421e-07)
(2.83436e-05 6.79809e-06 9.91945e-08)
(2.76331e-05 6.63366e-06 5.98728e-07)
(2.68221e-05 6.44553e-06 1.29801e-06)
(2.88777e-05 9.35735e-06 -1.21591e-06)
(2.83385e-05 9.19023e-06 -4.24766e-07)
(2.7711e-05 8.99362e-06 1.00134e-07)
(2.70154e-05 8.7749e-06 5.99951e-07)
(2.62215e-05 8.52489e-06 1.29959e-06)
(2.80406e-05 1.15839e-05 -1.21579e-06)
(2.75156e-05 1.13761e-05 -4.2411e-07)
(2.69051e-05 1.11317e-05 1.0118e-07)
(2.62288e-05 1.08598e-05 6.01393e-07)
(2.5457e-05 1.05494e-05 1.30156e-06)
(2.70291e-05 1.37383e-05 -1.21569e-06)
(2.65215e-05 1.34904e-05 -4.23351e-07)
(2.59321e-05 1.31991e-05 1.02396e-07)
(2.52794e-05 1.28754e-05 6.03089e-07)
(2.45346e-05 1.25059e-05 1.30396e-06)
(2.58504e-05 1.58082e-05 -1.21548e-06)
(2.53638e-05 1.55209e-05 -4.22454e-07)
(2.47995e-05 1.51838e-05 1.03743e-07)
(2.41749e-05 1.48095e-05 6.04933e-07)
(2.34623e-05 1.43825e-05 1.30659e-06)
(2.45131e-05 1.77825e-05 -1.21504e-06)
(2.40515e-05 1.74563e-05 -4.21461e-07)
(2.35164e-05 1.70749e-05 1.05073e-07)
(2.29243e-05 1.66516e-05 6.06681e-07)
(2.2249e-05 1.6169e-05 1.30907e-06)
(2.30272e-05 1.96504e-05 -1.21432e-06)
(2.25944e-05 1.92867e-05 -4.20565e-07)
(2.20926e-05 1.88626e-05 1.06115e-07)
(2.15374e-05 1.83925e-05 6.0798e-07)
(2.09042e-05 1.78564e-05 1.31089e-06)
(2.14024e-05 2.14024e-05 -1.21391e-06)
(2.10026e-05 2.10026e-05 -4.20177e-07)
(2.05381e-05 2.05381e-05 1.06521e-07)
(2.00238e-05 2.00238e-05 6.08467e-07)
(1.94373e-05 1.94373e-05 1.31157e-06)
(1.96504e-05 2.30272e-05 -1.21432e-06)
(1.92867e-05 2.25944e-05 -4.20565e-07)
(1.88626e-05 2.20926e-05 1.06115e-07)
(1.83925e-05 2.15374e-05 6.0798e-07)
(1.78564e-05 2.09042e-05 1.31089e-06)
(1.77825e-05 2.45131e-05 -1.21504e-06)
(1.74563e-05 2.40515e-05 -4.21462e-07)
(1.70749e-05 2.35164e-05 1.05073e-07)
(1.66516e-05 2.29243e-05 6.06682e-07)
(1.6169e-05 2.2249e-05 1.30907e-06)
(1.58082e-05 2.58504e-05 -1.21549e-06)
(1.55209e-05 2.53638e-05 -4.22454e-07)
(1.51838e-05 2.47995e-05 1.03743e-07)
(1.48095e-05 2.41749e-05 6.04934e-07)
(1.43825e-05 2.34623e-05 1.30659e-06)
(1.37383e-05 2.70291e-05 -1.21569e-06)
(1.34904e-05 2.65215e-05 -4.23352e-07)
(1.31991e-05 2.59321e-05 1.02396e-07)
(1.28754e-05 2.52794e-05 6.0309e-07)
(1.25059e-05 2.45346e-05 1.30396e-06)
(1.15839e-05 2.80406e-05 -1.21579e-06)
(1.13761e-05 2.75156e-05 -4.24111e-07)
(1.11317e-05 2.69051e-05 1.0118e-07)
(1.08598e-05 2.62288e-05 6.01394e-07)
(1.05494e-05 2.5457e-05 1.30157e-06)
(9.35736e-06 2.88777e-05 -1.21591e-06)
(9.19023e-06 2.83385e-05 -4.24768e-07)
(8.99362e-06 2.77109e-05 1.00134e-07)
(8.7749e-06 2.70154e-05 5.99952e-07)
(8.52489e-06 2.62215e-05 1.29959e-06)
(7.07176e-06 2.95345e-05 -1.21618e-06)
(6.94592e-06 2.89844e-05 -4.25422e-07)
(6.79809e-06 2.83436e-05 9.91944e-08)
(6.63366e-06 2.76331e-05 5.98729e-07)
(6.44552e-06 2.68221e-05 1.29801e-06)
(4.74093e-06 3.00069e-05 -1.21683e-06)
(4.65701e-06 2.94489e-05 -4.26321e-07)
(4.55888e-06 2.87989e-05 9.8144e-08)
(4.44989e-06 2.80779e-05 5.97511e-07)
(4.32527e-06 2.7255e-05 1.29662e-06)
(2.37741e-06 3.02914e-05 -1.21846e-06)
(2.33807e-06 2.97303e-05 -4.28061e-07)
(2.29015e-06 2.90756e-05 9.63976e-08)
(2.23752e-06 2.8349e-05 5.95605e-07)
(2.18102e-06 2.75192e-05 1.29495e-06)
(0 3.03996e-05 -1.24664e-06)
(0 2.98426e-05 -4.4628e-07)
(0 2.919e-05 8.14392e-08)
(0 2.84656e-05 5.77296e-07)
(0 2.76391e-05 1.26581e-06)
(2.56501e-05 0 -3.79518e-06)
(2.51159e-05 0 -1.86135e-06)
(2.45709e-05 0 -2.80825e-07)
(2.40088e-05 0 1.25745e-06)
(2.34242e-05 0 3.04492e-06)
(2.55551e-05 2.00112e-06 -3.73367e-06)
(2.50203e-05 1.96417e-06 -1.8112e-06)
(2.4475e-05 1.92464e-06 -2.33514e-07)
(2.39125e-05 1.88426e-06 1.31053e-06)
(2.3328e-05 1.84518e-06 3.11294e-06)
(2.53138e-05 3.99487e-06 -3.72973e-06)
(2.47826e-05 3.91526e-06 -1.80734e-06)
(2.42412e-05 3.83417e-06 -2.29865e-07)
(2.36831e-05 3.75065e-06 1.31391e-06)
(2.31038e-05 3.66411e-06 3.11534e-06)
(2.49142e-05 5.96062e-06 -3.7271e-06)
(2.43905e-05 5.84111e-06 -1.80506e-06)
(2.38568e-05 5.71889e-06 -2.27965e-07)
(2.33068e-05 5.59278e-06 1.31536e-06)
(2.27359e-05 5.46196e-06 3.11621e-06)
(2.43587e-05 7.8877e-06 -3.72497e-06)
(2.38455e-05 7.72905e-06 -1.80348e-06)
(2.33227e-05 7.56646e-06 -2.26847e-07)
(2.27841e-05 7.39865e-06 1.31599e-06)
(2.22251e-05 7.22475e-06 3.11624e-06)
(2.36505e-05 9.76438e-06 -3.72298e-06)
(2.31507e-05 9.56726e-06 -1.80213e-06)
(2.26422e-05 9.36508e-06 -2.26019e-07)
(2.21184e-05 9.15643e-06 1.3163e-06)
(2.15747e-05 8.94043e-06 3.11592e-06)
(2.27945e-05 1.15797e-05 -3.72103e-06)
(2.23114e-05 1.13446e-05 -1.80083e-06)
(2.18203e-05 1.11036e-05 -2.25255e-07)
(2.13148e-05 1.08549e-05 1.31655e-06)
(2.079e-05 1.05977e-05 3.11559e-06)
(2.1797e-05 1.33235e-05 -3.71912e-06)
(2.1334e-05 1.30509e-05 -1.79954e-06)
(2.0864e-05 1.27718e-05 -2.24474e-07)
(2.03802e-05 1.2484e-05 1.31686e-06)
(1.98781e-05 1.21864e-05 3.1154e-06)
(2.06659e-05 1.49866e-05 -3.71732e-06)
(2.02268e-05 1.46772e-05 -1.79832e-06)
(1.97813e-05 1.4361e-05 -2.23711e-07)
(1.93229e-05 1.40351e-05 1.31723e-06)
(1.88474e-05 1.3698e-05 3.11539e-06)
(1.94099e-05 1.65607e-05 -3.71582e-06)
(1.89985e-05 1.62155e-05 -1.79735e-06)
(1.85812e-05 1.58635e-05 -2.23106e-07)
(1.81518e-05 1.5501e-05 1.31756e-06)
(1.77065e-05 1.51256e-05 3.11548e-06)
(1.80382e-05 1.80382e-05 -3.71517e-06)
(1.76585e-05 1.76585e-05 -1.79696e-06)
(1.72725e-05 1.72725e-05 -2.22867e-07)
(1.68753e-05 1.68753e-05 1.3177e-06)
(1.64636e-05 1.64636e-05 3.11553e-06)
(1.65607e-05 1.94099e-05 -3.71582e-06)
(1.62155e-05 1.89985e-05 -1.79735e-06)
(1.58635e-05 1.85812e-05 -2.23106e-07)
(1.5501e-05 1.81518e-05 1.31756e-06)
(1.51256e-05 1.77065e-05 3.11548e-06)
(1.49866e-05 2.06659e-05 -3.71732e-06)
(1.46772e-05 2.02268e-05 -1.79832e-06)
(1.4361e-05 1.97813e-05 -2.23711e-07)
(1.40351e-05 1.93229e-05 1.31723e-06)
(1.3698e-05 1.88474e-05 3.11539e-06)
(1.33235e-05 2.1797e-05 -3.71912e-06)
(1.30509e-05 2.1334e-05 -1.79954e-06)
(1.27718e-05 2.0864e-05 -2.24474e-07)
(1.2484e-05 2.03802e-05 1.31686e-06)
(1.21864e-05 1.98781e-05 3.1154e-06)
(1.15797e-05 2.27945e-05 -3.72103e-06)
(1.13446e-05 2.23114e-05 -1.80083e-06)
(1.11036e-05 2.18203e-05 -2.25255e-07)
(1.08549e-05 2.13148e-05 1.31655e-06)
(1.05977e-05 2.079e-05 3.11559e-06)
(9.76438e-06 2.36505e-05 -3.72298e-06)
(9.56726e-06 2.31507e-05 -1.80213e-06)
(9.36508e-06 2.26422e-05 -2.26019e-07)
(9.15642e-06 2.21184e-05 1.3163e-06)
(8.94042e-06 2.15746e-05 3.11593e-06)
(7.8877e-06 2.43587e-05 -3.72497e-06)
(7.72905e-06 2.38454e-05 -1.80348e-06)
(7.56646e-06 2.33227e-05 -2.26847e-07)
(7.39865e-06 2.27841e-05 1.31599e-06)
(7.22475e-06 2.2225e-05 3.11624e-06)
(5.96062e-06 2.49142e-05 -3.7271e-06)
(5.84111e-06 2.43905e-05 -1.80507e-06)
(5.71889e-06 2.38568e-05 -2.27965e-07)
(5.59278e-06 2.33068e-05 1.31537e-06)
(5.46195e-06 2.27359e-05 3.11621e-06)
(3.99487e-06 2.53138e-05 -3.72973e-06)
(3.91526e-06 2.47826e-05 -1.80734e-06)
(3.83417e-06 2.42412e-05 -2.29865e-07)
(3.75065e-06 2.36831e-05 1.31391e-06)
(3.66411e-06 2.31038e-05 3.11534e-06)
(2.00113e-06 2.55551e-05 -3.73367e-06)
(1.96417e-06 2.50203e-05 -1.8112e-06)
(1.92464e-06 2.4475e-05 -2.33514e-07)
(1.88426e-06 2.39125e-05 1.31054e-06)
(1.84518e-06 2.3328e-05 3.11295e-06)
(0 2.56501e-05 -3.79519e-06)
(0 2.51158e-05 -1.86135e-06)
(0 2.45709e-05 -2.80825e-07)
(0 2.40088e-05 1.25745e-06)
(0 2.34242e-05 3.04492e-06)
(1.93588e-05 0 -4.60176e-06)
(1.88469e-05 0 -2.42363e-06)
(1.84088e-05 0 -5.15013e-07)
(1.80207e-05 0 1.35224e-06)
(1.76892e-05 0 3.39258e-06)
(1.9282e-05 1.50546e-06 -4.53538e-06)
(1.87729e-05 1.47052e-06 -2.36476e-06)
(1.83367e-05 1.43911e-06 -4.57375e-07)
(1.79504e-05 1.4116e-06 1.41498e-06)
(1.7622e-05 1.39023e-06 3.4668e-06)
(1.9099e-05 3.01035e-06 -4.53103e-06)
(1.85938e-05 2.93429e-06 -2.36081e-06)
(1.81611e-05 2.86968e-06 -4.53846e-07)
(1.7778e-05 2.81294e-06 1.41795e-06)
(1.74529e-05 2.76547e-06 3.46858e-06)
(1.87972e-05 4.49367e-06 -4.52749e-06)
(1.82994e-05 4.37932e-06 -2.35811e-06)
(1.78729e-05 4.28188e-06 -4.5192e-07)
(1.74953e-05 4.19613e-06 1.41902e-06)
(1.71748e-05 4.12416e-06 3.46863e-06)
(1.83778e-05 5.94759e-06 -4.52422e-06)
(1.78901e-05 5.79585e-06 -2.35606e-06)
(1.74724e-05 5.66622e-06 -4.50886e-07)
(1.71026e-05 5.55206e-06 1.41902e-06)
(1.67885e-05 5.45631e-06 3.46742e-06)
(1.78429e-05 7.36318e-06 -4.52094e-06)
(1.73683e-05 7.17484e-06 -2.35429e-06)
(1.69619e-05 7.01367e-06 -4.50319e-07)
(1.66021e-05 6.87167e-06 1.4184e-06)
(1.62964e-05 6.75268e-06 3.46537e-06)
(1.71963e-05 8.73219e-06 -4.51763e-06)
(1.67376e-05 8.50788e-06 -2.35265e-06)
(1.63451e-05 8.31575e-06 -4.49976e-07)
(1.59978e-05 8.14641e-06 1.41749e-06)
(1.57026e-05 8.00452e-06 3.46291e-06)
(1.64426e-05 1.00471e-05 -4.51444e-06)
(1.60031e-05 9.78738e-06 -2.35113e-06)
(1.56274e-05 9.56486e-06 -4.4972e-07)
(1.5295e-05 9.36864e-06 1.41653e-06)
(1.50125e-05 9.20406e-06 3.46047e-06)
(1.55878e-05 1.13012e-05 -4.5116e-06)
(1.5171e-05 1.10067e-05 -2.3498e-06)
(1.4815e-05 1.07545e-05 -4.49491e-07)
(1.45002e-05 1.0532e-05 1.41572e-06)
(1.42328e-05 1.03449e-05 3.4584e-06)
(1.4639e-05 1.24885e-05 -4.50948e-06)
(1.42484e-05 1.21602e-05 -2.34882e-06)
(1.3915e-05 1.18793e-05 -4.493e-07)
(1.36204e-05 1.16312e-05 1.4152e-06)
(1.33705e-05 1.14221e-05 3.45703e-06)
(1.36033e-05 1.36033e-05 -4.50864e-06)
(1.32426e-05 1.32426e-05 -2.34845e-06)
(1.29344e-05 1.29344e-05 -4.4922e-07)
(1.26622e-05 1.26622e-05 1.41503e-06)
(1.24319e-05 1.24319e-05 3.45655e-06)
(1.24885e-05 1.4639e-05 -4.50948e-06)
(1.21602e-05 1.42484e-05 -2.34882e-06)
(1.18793e-05 1.3915e-05 -4.493e-07)
(1.16312e-05 1.36204e-05 1.4152e-06)
(1.14221e-05 1.33705e-05 3.45703e-06)
(1.13012e-05 1.55878e-05 -4.51161e-06)
(1.10067e-05 1.5171e-05 -2.3498e-06)
(1.07545e-05 1.4815e-05 -4.49491e-07)
(1.0532e-05 1.45002e-05 1.41572e-06)
(1.03449e-05 1.42328e-05 3.4584e-06)
(1.00471e-05 1.64426e-05 -4.51444e-06)
(9.78738e-06 1.60031e-05 -2.35113e-06)
(9.56486e-06 1.56274e-05 -4.4972e-07)
(9.36864e-06 1.5295e-05 1.41653e-06)
(9.20405e-06 1.50125e-05 3.46047e-06)
(8.73219e-06 1.71963e-05 -4.51763e-06)
(8.50788e-06 1.67376e-05 -2.35265e-06)
(8.31575e-06 1.63451e-05 -4.49976e-07)
(8.1464e-06 1.59978e-05 1.41749e-06)
(8.00451e-06 1.57026e-05 3.46292e-06)
(7.36318e-06 1.78429e-05 -4.52094e-06)
(7.17484e-06 1.73683e-05 -2.35429e-06)
(7.01367e-06 1.69619e-05 -4.50319e-07)
(6.87167e-06 1.66021e-05 1.41841e-06)
(6.75267e-06 1.62964e-05 3.46537e-06)
(5.94759e-06 1.83778e-05 -4.52422e-06)
(5.79585e-06 1.78901e-05 -2.35606e-06)
(5.66622e-06 1.74724e-05 -4.50886e-07)
(5.55206e-06 1.71026e-05 1.41903e-06)
(5.45631e-06 1.67885e-05 3.46742e-06)
(4.49367e-06 1.87972e-05 -4.5275e-06)
(4.37932e-06 1.82994e-05 -2.35811e-06)
(4.28187e-06 1.78729e-05 -4.5192e-07)
(4.19613e-06 1.74953e-05 1.41902e-06)
(4.12416e-06 1.71747e-05 3.46863e-06)
(3.01035e-06 1.9099e-05 -4.53103e-06)
(2.93429e-06 1.85938e-05 -2.36081e-06)
(2.86968e-06 1.81611e-05 -4.53846e-07)
(2.81294e-06 1.7778e-05 1.41795e-06)
(2.76546e-06 1.74529e-05 3.46858e-06)
(1.50546e-06 1.9282e-05 -4.53539e-06)
(1.47052e-06 1.87729e-05 -2.36476e-06)
(1.43911e-06 1.83367e-05 -4.57375e-07)
(1.41159e-06 1.79504e-05 1.41498e-06)
(1.39023e-06 1.7622e-05 3.46681e-06)
(0 1.93588e-05 -4.60176e-06)
(0 1.88469e-05 -2.42363e-06)
(0 1.84088e-05 -5.15013e-07)
(0 1.80207e-05 1.35224e-06)
(0 1.76892e-05 3.39259e-06)
(1.37281e-05 0 -4.15149e-06)
(1.3262e-05 0 -2.31109e-06)
(1.29141e-05 0 -6.04207e-07)
(1.26582e-05 0 1.06932e-06)
(1.25012e-05 0 2.80438e-06)
(1.36694e-05 1.06425e-06 -4.0977e-06)
(1.32076e-05 1.03252e-06 -2.25978e-06)
(1.2863e-05 1.0077e-06 -5.52533e-07)
(1.26103e-05 9.89731e-07 1.12412e-06)
(1.24577e-05 9.80198e-07 2.86478e-06)
(1.35391e-05 2.13208e-06 -4.09431e-06)
(1.30813e-05 2.06253e-06 -2.257e-06)
(1.27398e-05 2.01135e-06 -5.50269e-07)
(1.24895e-05 1.97447e-06 1.12575e-06)
(1.23387e-05 1.95326e-06 2.8654e-06)
(1.33256e-05 3.18433e-06 -4.09106e-06)
(1.28747e-05 3.07964e-06 -2.25473e-06)
(1.25381e-05 3.0024e-06 -5.48886e-07)
(1.22914e-05 2.94662e-06 1.1262e-06)
(1.21427e-05 2.91426e-06 2.8648e-06)
(1.3029e-05 4.21576e-06 -4.08776e-06)
(1.25875e-05 4.07689e-06 -2.2528e-06)
(1.2258e-05 3.97415e-06 -5.48131e-07)
(1.20162e-05 3.89986e-06 1.12579e-06)
(1.18704e-05 3.8567e-06 2.86307e-06)
(1.26507e-05 5.22003e-06 -4.08431e-06)
(1.22213e-05 5.04782e-06 -2.25107e-06)
(1.19007e-05 4.92016e-06 -5.47796e-07)
(1.16654e-05 4.82773e-06 1.12475e-06)
(1.15232e-05 4.77404e-06 2.86043e-06)
(1.21932e-05 6.19127e-06 -4.08078e-06)
(1.17784e-05 5.98645e-06 -2.24947e-06)
(1.14688e-05 5.83436e-06 -5.47724e-07)
(1.12415e-05 5.72411e-06 1.12334e-06)
(1.11039e-05 5.65996e-06 2.85725e-06)
(1.16595e-05 7.12414e-06 -4.07737e-06)
(1.12622e-05 6.88738e-06 -2.24802e-06)
(1.09657e-05 6.71135e-06 -5.47783e-07)
(1.07482e-05 6.58351e-06 1.12183e-06)
(1.06164e-05 6.50881e-06 2.85397e-06)
(1.1054e-05 8.01388e-06 -4.07438e-06)
(1.0677e-05 7.74592e-06 -2.2468e-06)
(1.0396e-05 7.5465e-06 -5.47873e-07)
(1.019e-05 7.40136e-06 1.12049e-06)
(1.00653e-05 7.31597e-06 2.85111e-06)
(1.03814e-05 8.85615e-06 -4.0722e-06)
(1.00279e-05 8.558e-06 -2.24594e-06)
(9.76464e-06 8.33599e-06 -5.4793e-07)
(9.57184e-06 8.17404e-06 1.11958e-06)
(9.45566e-06 8.07793e-06 2.84915e-06)
(9.64693e-06 9.64692e-06 -4.07137e-06)
(9.31999e-06 9.31998e-06 -2.24562e-06)
(9.07653e-06 9.07653e-06 -5.47946e-07)
(8.89856e-06 8.89855e-06 1.11926e-06)
(8.79203e-06 8.79203e-06 2.84845e-06)
(8.85616e-06 1.03813e-05 -4.0722e-06)
(8.558e-06 1.00279e-05 -2.24594e-06)
(8.336e-06 9.76463e-06 -5.4793e-07)
(8.17404e-06 9.57183e-06 1.11958e-06)
(8.07793e-06 9.45566e-06 2.84915e-06)
(8.01388e-06 1.10539e-05 -4.07438e-06)
(7.74592e-06 1.0677e-05 -2.2468e-06)
(7.5465e-06 1.0396e-05 -5.47873e-07)
(7.40136e-06 1.01899e-05 1.12049e-06)
(7.31596e-06 1.00653e-05 2.85111e-06)
(7.12414e-06 1.16595e-05 -4.07737e-06)
(6.88738e-06 1.12622e-05 -2.24802e-06)
(6.71134e-06 1.09657e-05 -5.47783e-07)
(6.5835e-06 1.07482e-05 1.12183e-06)
(6.5088e-06 1.06164e-05 2.85397e-06)
(6.19127e-06 1.21932e-05 -4.08078e-06)
(5.98645e-06 1.17784e-05 -2.24947e-06)
(5.83436e-06 1.14687e-05 -5.47723e-07)
(5.7241e-06 1.12415e-05 1.12334e-06)
(5.65995e-06 1.11039e-05 2.85725e-06)
(5.22003e-06 1.26507e-05 -4.08431e-06)
(5.04782e-06 1.22213e-05 -2.25107e-06)
(4.92015e-06 1.19007e-05 -5.47796e-07)
(4.82773e-06 1.16654e-05 1.12476e-06)
(4.77404e-06 1.15232e-05 2.86043e-06)
(4.21577e-06 1.3029e-05 -4.08776e-06)
(4.07689e-06 1.25875e-05 -2.2528e-06)
(3.97415e-06 1.2258e-05 -5.48131e-07)
(3.89985e-06 1.20162e-05 1.12579e-06)
(3.8567e-06 1.18703e-05 2.86307e-06)
(3.18433e-06 1.33255e-05 -4.09106e-06)
(3.07964e-06 1.28747e-05 -2.25473e-06)
(3.00239e-06 1.25381e-05 -5.48886e-07)
(2.94662e-06 1.22913e-05 1.1262e-06)
(2.91426e-06 1.21426e-05 2.8648e-06)
(2.13209e-06 1.35391e-05 -4.09432e-06)
(2.06253e-06 1.30813e-05 -2.257e-06)
(2.01135e-06 1.27398e-05 -5.50269e-07)
(1.97447e-06 1.24894e-05 1.12575e-06)
(1.95326e-06 1.23387e-05 2.8654e-06)
(1.06425e-06 1.36693e-05 -4.0977e-06)
(1.03252e-06 1.32076e-05 -2.25978e-06)
(1.00769e-06 1.2863e-05 -5.52533e-07)
(9.8973e-07 1.26103e-05 1.12413e-06)
(9.80196e-07 1.24577e-05 2.86478e-06)
(0 1.37281e-05 -4.15149e-06)
(0 1.3262e-05 -2.31109e-06)
(0 1.29141e-05 -6.04207e-07)
(0 1.26582e-05 1.06932e-06)
(0 1.25012e-05 2.80438e-06)
(9.65552e-06 0 -3.18757e-06)
(9.25692e-06 0 -1.87257e-06)
(8.97899e-06 0 -5.86167e-07)
(8.80229e-06 0 6.76187e-07)
(8.72851e-06 0 1.91955e-06)
(9.61157e-06 7.47118e-07 -3.15088e-06)
(9.21721e-06 7.19838e-07 -1.83494e-06)
(8.94294e-06 6.99921e-07 -5.47291e-07)
(8.76976e-06 6.87495e-07 7.1639e-07)
(8.70012e-06 6.83265e-07 1.96075e-06)
(9.51996e-06 1.49902e-06 -3.14894e-06)
(9.1292e-06 1.43904e-06 -1.8336e-06)
(8.85758e-06 1.39794e-06 -5.46426e-07)
(8.6862e-06 1.37254e-06 7.16719e-07)
(8.61766e-06 1.36322e-06 1.96043e-06)
(9.3705e-06 2.23982e-06 -3.14667e-06)
(8.9858e-06 2.14949e-06 -1.83215e-06)
(8.7182e-06 2.08743e-06 -5.45736e-07)
(8.54931e-06 2.049e-06 7.16644e-07)
(8.48166e-06 2.03463e-06 1.95956e-06)
(9.16317e-06 2.96615e-06 -3.14418e-06)
(8.78672e-06 2.84634e-06 -1.83075e-06)
(8.52472e-06 2.76384e-06 -5.45314e-07)
(8.35927e-06 2.71264e-06 7.16103e-07)
(8.29278e-06 2.69339e-06 1.95799e-06)
(8.89872e-06 3.67354e-06 -3.14149e-06)