/*--------------------------------*- C++ -*----------------------------------*\
| =========                 |                                                 |
| \\      /  F ield         | foam-extend: Open Source CFD                    |
|  \\    /   O peration     | Version:     3.1                                |
|   \\  /    A nd           | Web:         http://www.extend-project.de       |
|    \\/     M anipulation  |                                                 |
\*---------------------------------------------------------------------------*/
FoamFile
{
    version     2.0;
    format      ascii;
    class       volSymmTensorField;
    location    "0.0005";
    object      sigma;
}
// * * * * * * * * * * * * * * * * * * * * * * * * * * * * * * * * * * * * * //

dimensions      [1 -1 -2 0 0 0 0];

internalField   nonuniform List<symmTensor> 
6400
(
(490.758 -38.5837 1500.32 1351.54 42.7842 2780.83)
(4.72675 -26.9895 1635.17 611.042 53.9493 943.266)
(-352.944 -17.7003 1541.95 55.3625 50.6348 -454.763)
(-846.289 -8.25114 1239.67 -632.637 34.2453 -2199.01)
(494.991 -100.526 1493.22 1335.09 174.782 2750.67)
(8.13754 -70.856 1623.79 598.856 190.876 922.873)
(-352.26 -47.6358 1528.55 44.7488 180.008 -475.872)
(-851.441 -24.5225 1224.22 -645.684 144.393 -2232.22)
(515.046 -164.936 1474.36 1312.04 291.936 2748.38)
(22.623 -115.919 1603.31 583.539 317.984 921.717)
(-342.337 -77.8322 1509.31 34.4868 299.741 -476.561)
(-845.747 -40.2277 1209 -650.901 240.472 -2232.24)
(545.318 -225.093 1446.61 1280.58 406.784 2747.26)
(43.9811 -158.299 1573.11 561.527 442.898 921.199)
(-327.853 -106.287 1480.84 19.8283 417.382 -476.559)
(-838.111 -54.9332 1186.17 -658.369 334.813 -2231.68)
(584.726 -279.742 1409.99 1240.46 518.937 2746.57)
(71.8309 -196.798 1533.21 533.402 564.913 921.093)
(-308.998 -132.155 1443.22 1.0765 532.281 -476.146)
(-828.117 -68.3077 1155.97 -667.83 426.913 -2230.63)
(632.274 -327.557 1364.67 1192.51 627.833 2746.13)
(105.435 -230.475 1483.83 499.762 683.353 921.211)
(-286.25 -154.782 1396.68 -21.3704 643.783 -475.511)
(-816.068 -80.0039 1118.64 -679.154 516.246 -2229.32)
(686.792 -367.375 1310.91 1137.82 732.874 2745.91)
(143.953 -258.511 1425.3 461.362 797.543 921.473)
(-260.195 -173.611 1341.53 -47.0187 751.236 -474.772)
(-802.298 -89.7322 1074.44 -692.126 602.283 -2227.93)
(746.976 -398.22 1249.02 1077.67 833.442 2745.93)
(186.454 -280.22 1357.98 419.095 906.81 921.839)
(-231.482 -188.177 1278.16 -75.2877 854.01 -474.027)
(-787.183 -97.2515 1023.68 -706.48 684.521 -2226.62)
(811.404 -419.335 1179.35 1013.52 928.917 2746.23)
(231.938 -295.054 1282.3 373.965 1010.5 922.271)
(-200.824 -198.111 1206.97 -105.524 951.497 -473.381)
(-771.136 -102.369 966.723 -721.917 762.485 -2225.58)
(878.964 -430.261 1102.39 947.046 1018.73 2746.83)
(279.289 -302.611 1198.78 327.049 1108 922.644)
(-169.036 -203.144 1128.46 -137.009 1043.14 -472.977)
(-754.62 -104.953 903.948 -738.086 835.749 -2225)
(947.046 -430.261 1018.73 878.964 1102.39 2746.83)
(327.049 -302.611 1108 279.289 1198.78 922.644)
(-137.009 -203.144 1043.14 -169.036 1128.46 -472.977)
(-738.086 -104.953 835.749 -754.619 903.948 -2225)
(1013.52 -419.335 928.917 811.404 1179.35 2746.23)
(373.964 -295.054 1010.5 231.938 1282.3 922.271)
(-105.524 -198.111 951.497 -200.824 1206.97 -473.381)
(-721.917 -102.369 762.485 -771.136 966.722 -2225.58)
(1077.67 -398.22 833.443 746.976 1249.02 2745.93)
(419.094 -280.22 906.81 186.454 1357.98 921.838)
(-75.2878 -188.177 854.01 -231.483 1278.16 -474.027)
(-706.479 -97.2515 684.521 -787.182 1023.68 -2226.62)
(1137.82 -367.375 732.874 686.792 1310.91 2745.91)
(461.362 -258.511 797.543 143.953 1425.3 921.473)
(-47.0187 -173.611 751.236 -260.195 1341.53 -474.772)
(-692.126 -89.7322 602.283 -802.298 1074.44 -2227.93)
(1192.51 -327.557 627.833 632.274 1364.67 2746.13)
(499.761 -230.475 683.354 105.434 1483.83 921.211)
(-21.3705 -154.782 643.783 -286.25 1396.68 -475.511)
(-679.154 -80.0039 516.246 -816.068 1118.64 -2229.32)
(1240.46 -279.742 518.937 584.726 1409.99 2746.57)
(533.402 -196.798 564.913 71.8305 1533.21 921.092)
(1.07643 -132.155 532.281 -308.998 1443.22 -476.146)
(-667.829 -68.3077 426.913 -828.117 1155.97 -2230.63)
(1280.58 -225.094 406.785 545.317 1446.61 2747.26)
(561.526 -158.299 442.898 43.9808 1573.11 921.198)
(19.8283 -106.287 417.382 -327.853 1480.84 -476.559)
(-658.368 -54.9332 334.813 -838.111 1186.17 -2231.68)
(1312.04 -164.936 291.936 515.045 1474.36 2748.37)
(583.539 -115.919 317.984 22.6226 1603.31 921.716)
(34.4867 -77.8322 299.741 -342.337 1509.31 -476.561)
(-650.901 -40.2277 240.472 -845.746 1209 -2232.24)
(1335.09 -100.526 174.782 494.99 1493.22 2750.67)
(598.856 -70.8561 190.876 8.1371 1623.79 922.872)
(44.7487 -47.6358 180.008 -352.26 1528.55 -475.871)
(-645.684 -24.5226 144.393 -851.441 1224.22 -2232.22)
(1351.54 -38.5837 42.7843 490.757 1500.32 2780.82)
(611.042 -26.9895 53.9493 4.72629 1635.17 943.266)
(55.3625 -17.7003 50.6348 -352.944 1541.95 -454.763)
(-632.637 -8.25115 34.2453 -846.289 1239.67 -2199.01)
(-1104.99 -78.5575 556.893 693.164 -4.70485 -178.675)
(-641.226 -64.7305 1040.66 840.371 21.797 174.971)
(-298.156 -51.1033 1026.97 890.82 21.4996 255.76)
(72.2247 -39.4577 551.01 1020.58 -3.6471 511.382)
(-1073.16 -210.181 562.2 683.204 66.4146 -167.46)
(-617.344 -173.18 1035.53 825.54 122.645 176.321)
(-278.536 -138.633 1015.39 877.563 120.697 255.914)
(90.2239 -109.899 533.904 1010.47 64.5828 517.106)
(-1030.52 -345.137 555.325 636.716 110.105 -168.947)
(-581.313 -283.473 1022.54 789.248 203.452 175.612)
(-249.43 -227.038 1002.54 848.565 199.977 255.329)
(113.688 -180.769 527.175 987.833 106.087 516.93)
(-966.334 -471.104 544.898 572.034 152.938 -169.225)
(-528.611 -387.159 1003.2 736.159 282.745 175.413)
(-207.098 -310.126 983.525 806.164 277.778 255.343)
(147.331 -246.952 517.117 954.096 146.951 517.093)
(-883.305 -585.556 531.07 488.817 194.827 -169.372)
(-460.295 -481.335 977.619 667.718 360.232 175.459)
(-152.318 -385.594 958.4 751.335 353.804 255.592)
(190.955 -307.029 503.844 910.427 186.905 517.526)
(-783.406 -685.713 513.899 388.973 235.605 -169.441)
(-378.083 -563.694 945.956 585.537 435.51 175.62)
(-86.4006 -451.556 927.33 685.431 427.634 255.965)
(243.441 -359.504 487.462 857.878 225.7 518.091)
(-669.071 -769.139 493.457 274.81 275.046 -169.465)
(-283.992 -632.234 908.416 491.57 508.134 175.846)
(-10.973 -506.397 890.537 610.059 498.813 256.399)
(303.485 -403.088 468.103 797.762 263.071 518.713)
(-543.064 -833.786 469.848 149.014 312.892 -169.455)
(-180.299 -685.28 865.259 388.059 577.656 176.104)
(72.1252 -548.782 848.296 527.05 566.903 256.837)
(369.607 -436.725 445.931 731.571 298.771 519.314)
(-408.407 -878.062 443.228 14.5742 348.843 -169.424)
(-69.4421 -721.511 816.801 277.496 643.635 176.368)
(160.889 -577.66 800.924 438.419 631.492 257.214)
(440.183 -459.598 421.127 660.931 332.58 519.794)
(-267.374 -900.956 414.002 -124.907 382.56 -168.984)
(45.9496 -739.956 763.465 162.607 705.663 176.618)
(253.102 -592.289 748.781 346.368 692.213 257.453)
(513.452 -471.157 393.874 587.62 364.322 520.061)
(-124.907 -900.956 382.56 -267.374 414.002 -168.984)
(162.607 -739.956 705.663 45.9496 763.465 176.618)
(346.368 -592.289 692.213 253.102 748.781 257.453)
(587.62 -471.157 364.322 513.452 393.874 520.061)
(14.5738 -878.062 348.843 -408.407 443.228 -169.424)
(277.496 -721.511 643.636 -69.4422 816.801 176.368)
(438.418 -577.66 631.492 160.889 800.924 257.214)
(660.931 -459.598 332.58 440.183 421.127 519.794)
(149.014 -833.786 312.892 -543.064 469.848 -169.455)
(388.059 -685.28 577.656 -180.299 865.259 176.104)
(527.049 -548.782 566.903 72.125 848.296 256.837)
(731.571 -436.725 298.77 369.607 445.931 519.314)
(274.81 -769.139 275.047 -669.071 493.457 -169.466)
(491.569 -632.234 508.134 -283.992 908.416 175.846)
(610.059 -506.397 498.813 -10.9732 890.537 256.399)
(797.762 -403.088 263.071 303.485 468.103 518.713)
(388.972 -685.713 235.605 -783.407 513.899 -169.442)
(585.536 -563.695 435.51 -378.083 945.956 175.619)
(685.431 -451.556 427.634 -86.4009 927.33 255.965)
(857.877 -359.504 225.7 243.441 487.462 518.091)
(488.816 -585.556 194.828 -883.307 531.07 -169.373)
(667.717 -481.335 360.232 -460.296 977.619 175.458)
(751.335 -385.594 353.804 -152.318 958.4 255.592)
(910.427 -307.029 186.905 190.954 503.844 517.526)
(572.033 -471.104 152.938 -966.336 544.898 -169.226)
(736.158 -387.16 282.745 -528.612 1003.2 175.413)
(806.163 -310.126 277.778 -207.098 983.525 255.342)
(954.096 -246.952 146.951 147.331 517.116 517.093)
(636.716 -345.138 110.105 -1030.52 555.325 -168.948)
(789.247 -283.473 203.452 -581.314 1022.54 175.611)
(848.565 -227.038 199.977 -249.431 1002.54 255.329)
(987.833 -180.769 106.087 113.688 527.175 516.93)
(683.203 -210.181 66.4147 -1073.16 562.2 -167.461)
(825.54 -173.18 122.645 -617.345 1035.53 176.32)
(877.562 -138.633 120.697 -278.536 1015.39 255.914)
(1010.47 -109.899 64.5828 90.2237 533.904 517.106)
(693.163 -78.5576 -4.70482 -1104.99 556.893 -178.676)
(840.37 -64.7305 21.7971 -641.227 1040.66 174.971)
(890.819 -51.1033 21.4996 -298.157 1026.97 255.76)
(1020.58 -39.4577 -3.64709 72.2245 551.01 511.382)
(-968.317 -80.6264 176.012 944.789 -9.49674 -1198)
(-630.562 -79.1886 340.614 1222.51 -0.908519 -230.677)
(-253.024 -74.2239 337.657 1484.95 -1.08594 612.27)
(63.2916 -72.4884 168.885 1766.57 -9.86308 1547.27)
(-943.17 -223.771 176.907 926.3 20.2866 -1182.21)
(-604.604 -216.684 338.602 1200.44 39.4872 -218.631)
(-229.31 -202.809 332.871 1461.89 39.114 623.678)
(82.0059 -197.945 162.694 1738.67 19.5991 1559.59)
(-897.99 -367.76 174.643 877.854 34.0326 -1182.22)
(-559.398 -355.044 334.26 1155.73 66.2001 -217.554)
(-186.728 -332.575 328.534 1420.17 65.5114 624.77)
(123.652 -325.939 160.621 1698.76 32.6708 1560.71)
(-829.384 -502.153 171.324 809.502 47.3508 -1181.73)
(-493.176 -485.012 327.787 1089.65 92.1004 -217.209)
(-124.576 -454.376 322.135 1358.36 91.0826 625.061)
(184.405 -445.338 157.412 1638.23 45.2792 1560.82)
(-740.647 -624.282 166.898 721.236 60.3127 -1181.37)
(-407.397 -603.024 319.209 1004.15 117.279 -216.998)
(-44.2205 -564.927 313.658 1278.12 115.917 625.123)
(263.088 -553.628 153.163 1559.49 57.4785 1560.7)
(-633.869 -731.176 161.346 615.208 72.9374 -1181)
(-304.218 -706.178 308.562 901.352 141.676 -216.802)
(52.404 -661.473 303.163 1181.53 139.942 625.139)
(357.694 -648.138 147.928 1464.59 69.2355 1560.52)
(-511.657 -820.228 154.667 493.918 85.1912 -1180.63)
(-186.198 -791.954 295.925 783.781 165.169 -216.592)
(162.886 -741.648 290.756 1071.05 163.024 625.16)
(465.853 -726.55 141.785 1356.02 80.4647 1560.35)
(-376.998 -889.242 146.889 360.226 96.996 -1180.29)
(-56.2458 -858.265 281.427 654.314 187.619 -216.378)
(284.486 -803.518 276.586 949.46 185.022 625.203)
(584.876 -786.984 134.844 1236.55 91.0807 1560.22)
(-233.183 -936.506 138.106 217.275 108.227 -1180.02)
(82.5126 -903.495 265.261 516.096 208.895 -216.169)
(414.234 -845.605 260.846 819.772 205.832 625.262)
(711.845 -828.028 127.231 1109.19 101.036 1560.13)
(-82.9273 -960.881 128.631 68.7448 118.731 -1179.52)
(226.734 -926.482 247.691 372.492 228.909 -215.964)
(548.929 -866.902 243.74 685.194 225.4 625.322)
(843.657 -848.76 119.053 977.155 110.339 1560.09)
(68.7446 -960.881 118.732 -82.9274 128.631 -1179.52)
(372.492 -926.482 228.909 226.734 247.691 -215.964)
(685.194 -866.902 225.4 548.929 243.74 625.322)
(977.155 -848.76 110.339 843.657 119.053 1560.09)
(217.274 -936.507 108.227 -233.183 138.105 -1180.02)
(516.095 -903.495 208.895 82.5124 265.261 -216.169)
(819.772 -845.605 205.832 414.234 260.846 625.262)
(1109.19 -828.028 101.036 711.845 127.231 1560.13)
(360.225 -889.243 96.9962 -376.998 146.889 -1180.29)
(654.314 -858.265 187.619 -56.2463 281.427 -216.379)
(949.46 -803.518 185.022 284.485 276.586 625.203)
(1236.55 -786.984 91.0807 584.876 134.844 1560.22)
(493.917 -820.228 85.1915 -511.659 154.667 -1180.63)
(783.78 -791.954 165.169 -186.199 295.925 -216.592)
(1071.05 -741.648 163.024 162.885 290.756 625.16)
(1356.02 -726.55 80.4647 465.853 141.785 1560.35)
(615.207 -731.176 72.9376 -633.871 161.346 -1181)
(901.351 -706.179 141.676 -304.219 308.562 -216.802)
(1181.53 -661.473 139.942 52.4034 303.163 625.138)
(1464.59 -648.138 69.2355 357.694 147.928 1560.52)
(721.235 -624.282 60.3129 -740.649 166.898 -1181.38)
(1004.15 -603.024 117.279 -407.399 319.209 -216.999)
(1278.12 -564.927 115.917 -44.2212 313.658 625.123)
(1559.48 -553.627 57.4785 263.088 153.163 1560.7)
(809.5 -502.153 47.3509 -829.387 171.324 -1181.73)
(1089.65 -485.012 92.1005 -493.178 327.787 -217.21)
(1358.36 -454.376 91.0826 -124.577 322.135 625.061)
(1638.23 -445.338 45.2792 184.405 157.412 1560.82)
(877.853 -367.76 34.0327 -897.992 174.643 -1182.22)
(1155.73 -355.045 66.2001 -559.4 334.26 -217.554)
(1420.17 -332.575 65.5114 -186.729 328.534 624.769)
(1698.76 -325.939 32.6708 123.652 160.621 1560.71)
(926.299 -223.772 20.2867 -943.173 176.907 -1182.21)
(1200.43 -216.684 39.4873 -604.606 338.602 -218.632)
(1461.89 -202.81 39.114 -229.311 332.871 623.677)
(1738.67 -197.945 19.5991 82.0056 162.694 1559.59)
(944.788 -80.6265 -9.4967 -968.319 176.012 -1198)
(1222.51 -79.1886 -0.90849 -630.563 340.614 -230.678)
(1484.95 -74.224 -1.08592 -253.025 337.657 612.269)
(1766.57 -72.4884 -9.86307 63.2913 168.885 1547.27)
(-742.669 -79.2899 -120.537 1164.96 -6.10583 -1254.56)
(-488.491 -80.7696 -158.246 1421.48 -8.54113 -268.208)
(-213.167 -80.1162 -153.284 1668.24 -8.51525 644.33)
(24.2734 -80.8907 -109.81 1925.55 -6.25147 1607.65)
(-719.015 -223.129 -120.884 1144.57 -14.8109 -1239.58)
(-464.394 -223.504 -157.688 1397.54 -19.0989 -255.516)
(-190.448 -219.878 -152.239 1642.12 -18.3473 656.416)
(43.6632 -220.994 -108.237 1893.17 -12.9983 1619.2)
(-673.9 -366.716 -119.451 1096.61 -24.4383 -1239.08)
(-418.261 -366.436 -155.852 1351.08 -31.4174 -254.352)
(-144.877 -360.563 -150.427 1596.48 -30.1123 657.479)
(90.0753 -363.928 -106.959 1848.42 -21.2185 1620.42)
(-605.391 -500.824 -117.271 1028.52 -33.8817 -1238.18)
(-349.845 -500.627 -153.097 1282.79 -43.5783 -253.787)
(-77.4786 -492.639 -147.778 1529.29 -41.7442 657.796)
(157.881 -497.256 -105.089 1780.64 -29.3566 1620.34)
(-516.617 -622.7 -114.423 940.639 -43.1412 -1237.35)
(-261.093 -622.455 -149.479 1194.5 -55.5433 -253.438)
(9.75942 -612.479 -144.317 1442.13 -53.2107 657.704)
(245.742 -618.124 -102.653 1692.47 -37.3825 1619.75)
(-409.699 -729.366 -110.965 835.167 -52.1526 -1236.47)
(-154.302 -728.886 -145.052 1088.4 -67.244 -253.154)
(114.652 -717.061 -140.066 1337.23 -64.4501 657.432)
(351.346 -723.527 -99.6497 1586.21 -45.2689 1618.88)
(-287.274 -818.205 -106.943 714.618 -60.8415 -1235.52)
(-32.1803 -817.29 -139.831 967.146 -78.6127 -252.876)
(234.521 -803.794 -135.02 1217.33 -75.4092 657.099)
(471.999 -810.862 -96.0566 1464.67 -52.9999 1617.9)
(-152.397 -887.015 -102.383 581.829 -69.1511 -1234.6)
(102.172 -885.518 -133.793 833.768 -89.5802 -252.602)
(366.32 -870.598 -129.136 1085.51 -86.0251 656.784)
(604.661 -878.052 -91.8213 1331.04 -60.551 1616.95)
(-8.49605 -934.074 -97.2609 439.874 -77.0564 -1233.84)
(245.395 -931.947 -126.865 691.532 -100.061 -252.344)
(506.759 -915.938 -122.336 945.114 -96.2001 656.55)
(746.068 -923.591 -86.8776 1188.78 -67.8583 1616.2)
(141.329 -958.239 -91.3657 292.213 -84.5431 -1233.12)
(393.929 -955.48 -118.917 543.843 -109.919 -252.124)
(652.364 -938.833 -114.543 799.607 -105.777 656.44)
(892.822 -946.556 -81.1858 1041.53 -74.7955 1615.77)
(292.213 -958.239 -84.5429 141.329 -91.3658 -1233.12)
(543.842 -955.48 -109.918 393.928 -118.917 -252.124)
(799.607 -938.833 -105.777 652.364 -114.543 656.44)
(1041.53 -946.556 -74.7955 892.822 -81.1858 1615.77)
(439.874 -934.074 -77.0561 -8.49674 -97.2611 -1233.84)
(691.531 -931.947 -100.061 245.395 -126.865 -252.344)
(945.113 -915.938 -96.2 506.759 -122.336 656.55)
(1188.78 -923.591 -67.8584 746.068 -86.8775 1616.2)
(581.828 -887.015 -69.1509 -152.399 -102.383 -1234.6)
(833.768 -885.519 -89.58 102.171 -133.793 -252.602)
(1085.51 -870.598 -86.025 366.32 -129.136 656.784)
(1331.04 -878.052 -60.5511 604.661 -91.8213 1616.95)
(714.616 -818.206 -60.8413 -287.276 -106.943 -1235.52)
(967.145 -817.291 -78.6126 -32.1814 -139.831 -252.877)
(1217.33 -803.794 -75.4091 234.52 -135.02 657.099)
(1464.67 -810.862 -52.9999 471.999 -96.0565 1617.9)
(835.166 -729.366 -52.1524 -409.702 -110.965 -1236.47)
(1088.4 -728.886 -67.2439 -154.304 -145.051 -253.155)
(1337.23 -717.061 -64.4501 114.651 -140.066 657.432)
(1586.21 -723.527 -45.2689 351.346 -99.6496 1618.88)
(940.638 -622.7 -43.141 -516.62 -114.423 -1237.36)
(1194.5 -622.455 -55.5431 -261.095 -149.479 -253.438)
(1442.13 -612.479 -53.2106 9.75845 -144.316 657.703)
(1692.47 -618.124 -37.3825 245.742 -102.653 1619.75)
(1028.51 -500.824 -33.8815 -605.394 -117.271 -1238.18)
(1282.79 -500.627 -43.5782 -349.847 -153.097 -253.788)
(1529.29 -492.639 -41.7442 -77.4797 -147.778 657.795)
(1780.64 -497.256 -29.3566 157.881 -105.089 1620.34)
(1096.6 -366.717 -24.4381 -673.903 -119.451 -1239.08)
(1351.08 -366.436 -31.4173 -418.263 -155.852 -254.353)
(1596.48 -360.563 -30.1122 -144.878 -150.427 657.478)
(1848.42 -363.928 -21.2186 90.075 -106.958 1620.42)
(1144.57 -223.129 -14.8108 -719.018 -120.883 -1239.58)
(1397.54 -223.504 -19.0988 -464.396 -157.688 -255.517)
(1642.12 -219.878 -18.3473 -190.45 -152.239 656.416)
(1893.17 -220.994 -12.9983 43.6628 -108.237 1619.2)
(1164.96 -79.29 -6.1058 -742.673 -120.537 -1254.56)
(1421.48 -80.7696 -8.5411 -488.493 -158.246 -268.209)
(1668.24 -80.1162 -8.51523 -213.168 -153.283 644.329)
(1925.55 -80.8907 -6.25147 24.273 -109.81 1607.65)
(-490.164 -72.5228 -245.252 1255.03 1.21171 -711.766)
(-333.01 -72.3023 -375.514 1380.54 -6.23929 -102.628)
(-171.206 -71.3364 -365.739 1508.18 -6.07065 487.296)
(-27.6937 -70.5754 -224.323 1639.54 1.18114 1084.49)
(-468.137 -204.141 -245.796 1237.11 -29.0083 -702.174)
(-312.055 -200.702 -373.325 1359.46 -44.1021 -94.471)
(-151.612 -196.474 -361.632 1485.19 -42.8208 494.739)
(-10.2679 -193.849 -218.882 1611.59 -26.203 1090.44)
(-426.817 -335.517 -242.756 1193.12 -48.3879 -702.039)
(-270.836 -329.02 -368.698 1317.55 -73.4487 -93.9279)
(-111.105 -322.084 -357.103 1444.17 -71.2185 495.12)
(30.4979 -319.084 -216.204 1572.11 -43.3211 1091.05)
(-364.1 -458.233 -238.22 1130.67 -67.2663 -701.223)
(-209.382 -449.509 -361.808 1256.04 -102.128 -93.5443)
(-50.8836 -440.064 -350.421 1383.93 -98.9648 495.192)
(89.9516 -435.976 -212.153 1512.47 -60.0539 1090.7)
(-282.683 -569.756 -232.262 1050.2 -85.6937 -700.298)
(-129.525 -558.903 -352.727 1176.62 -130.123 -93.2267)
(27.1514 -547.106 -341.617 1305.84 -126.048 494.964)
(167.003 -541.912 -206.828 1434.91 -76.3673 1089.88)
(-184.508 -667.348 -224.927 953.792 -103.626 -699.177)
(-33.3657 -654.43 -341.536 1081.26 -157.343 -92.9204)
(120.998 -640.457 -330.766 1211.92 -152.377 494.55)
(259.588 -634.211 -200.275 1341.42 -92.2203 1088.7)
(-72.0144 -748.602 -216.268 843.774 -120.977 -697.898)
(76.6041 -733.693 -328.304 972.417 -183.661 -92.5944)
(228.202 -717.772 -317.93 1104.65 -177.833 494.048)
(365.293 -710.567 -192.521 1234.51 -107.562 1087.31)
(51.9302 -811.489 -206.33 722.735 -137.651 -696.588)
(197.503 -794.755 -313.087 852.853 -208.939 -92.257)
(345.96 -777.195 -303.154 986.863 -202.286 493.553)
(481.405 -769.176 -183.579 1117.07 -122.33 1085.92)
(184.059 -854.429 -195.139 593.429 -153.564 -695.45)
(326.18 -836.199 -295.908 725.523 -233.023 -91.9384)
(471.252 -817.415 -286.464 861.618 -225.582 493.164)
(605.043 -808.791 -173.45 992.258 -136.44 1084.78)
(321.158 -876.384 -182.589 458.83 -168.635 -694.568)
(459.305 -857.14 -276.762 593.425 -255.721 -91.694)
(600.951 -837.672 -267.889 732.015 -247.527 492.961)
(733.289 -828.72 -162.154 863.304 -149.768 1084.12)
(458.83 -876.384 -168.634 321.158 -182.589 -694.568)
(593.424 -857.141 -255.721 459.305 -276.762 -91.6941)
(732.014 -837.672 -247.527 600.951 -267.889 492.96)
(863.304 -828.72 -149.768 733.289 -162.154 1084.12)
(593.428 -854.43 -153.564 184.058 -195.139 -695.45)
(725.522 -836.199 -233.023 326.179 -295.908 -91.9388)
(861.617 -817.415 -225.582 471.251 -286.464 493.163)
(992.258 -808.791 -136.44 605.043 -173.45 1084.78)
(722.733 -811.489 -137.65 51.9286 -206.33 -696.589)
(852.852 -794.756 -208.939 197.502 -313.087 -92.2576)
(986.862 -777.195 -202.285 345.96 -303.154 493.552)
(1117.07 -769.176 -122.33 481.404 -183.579 1085.92)
(843.772 -748.603 -120.977 -72.0169 -216.268 -697.899)
(972.415 -733.693 -183.661 76.6026 -328.304 -92.5952)
(1104.65 -717.772 -177.833 228.202 -317.93 494.047)
(1234.51 -710.567 -107.562 365.293 -192.521 1087.31)
(953.79 -667.349 -103.626 -184.512 -224.927 -699.179)
(1081.26 -654.43 -157.342 -33.3676 -341.536 -92.9213)
(1211.92 -640.457 -152.376 120.997 -330.766 494.55)
(1341.42 -634.211 -92.2204 259.588 -200.275 1088.7)
(1050.2 -569.757 -85.6935 -282.687 -232.262 -700.3)
(1176.61 -558.903 -130.122 -129.527 -352.727 -93.2278)
(1305.84 -547.106 -126.048 27.1502 -341.617 494.963)
(1434.91 -541.912 -76.3673 167.003 -206.828 1089.88)
(1130.67 -458.233 -67.2661 -364.104 -238.22 -701.225)
(1256.04 -449.509 -102.127 -209.385 -361.808 -93.5455)
(1383.93 -440.064 -98.9647 -50.885 -350.421 495.192)
(1512.47 -435.976 -60.0539 89.9512 -212.153 1090.7)
(1193.12 -335.518 -48.3878 -426.821 -242.755 -702.041)
(1317.55 -329.021 -73.4486 -270.838 -368.698 -93.9292)
(1444.17 -322.084 -71.2185 -111.107 -357.103 495.119)
(1572.11 -319.084 -43.3211 30.4974 -216.204 1091.05)
(1237.1 -204.141 -29.0083 -468.142 -245.796 -702.176)
(1359.45 -200.703 -44.102 -312.058 -373.325 -94.4723)
(1485.19 -196.474 -42.8207 -151.614 -361.632 494.738)
(1611.59 -193.849 -26.203 -10.2684 -218.882 1090.44)
(1255.03 -72.5229 1.21175 -490.169 -245.252 -711.768)
(1380.54 -72.3024 -6.23926 -333.013 -375.514 -102.629)
(1508.18 -71.3364 -6.07064 -171.208 -365.739 487.295)
(1639.54 -70.5753 1.18115 -27.6942 -224.323 1084.49)
(-283.81 -61.6828 -211.464 1190.25 8.23405 -54.4812)
(-202.883 -58.3243 -341.148 1176.57 0.833029 103.852)
(-130.082 -55.312 -332.538 1175 0.933368 283.001)
(-61.5108 -51.8812 -193.652 1174.56 7.96178 442.433)
(-263.999 -172.376 -211.71 1177.01 -24.3616 -50.8171)
(-185.707 -161.658 -338.675 1160.6 -39.5429 106.498)
(-114.526 -152.801 -328.13 1158 -38.5582 284.902)
(-47.3977 -143.783 -188.035 1154.95 -22.4616 442.559)
(-229.105 -283.359 -209.082 1139.62 -40.9309 -51.3468)
(-152.559 -264.921 -334.398 1126.82 -66.1596 106.358)
(-83.0538 -250.337 -323.943 1126.06 -64.4182 284.653)
(-17.0443 -236.455 -185.693 1125.53 -37.3266 442.572)
(-176.198 -387.01 -205.16 1086.64 -57.0386 -51.0162)
(-103.12 -361.944 -328.03 1077.16 -92.1189 106.39)
(-36.2557 -342.029 -317.743 1079.13 -89.6216 284.487)
(27.0327 -323.065 -182.094 1081.26 -51.8192 442.146)
(-107.423 -481.202 -199.987 1018.49 -72.7357 -50.4325)
(-38.7663 -450.057 -319.615 1013.06 -117.393 106.529)
(24.4571 -425.247 -309.542 1018.3 -114.141 284.224)
(84.1672 -401.564 -177.341 1023.67 -65.8796 441.463)
(-24.3991 -563.624 -193.582 936.967 -88.0188 -49.5753)
(38.8034 -526.994 -309.22 936.156 -141.911 106.738)
(97.5126 -497.801 -299.423 945.145 -137.894 283.86)
(152.814 -469.908 -171.5 954.196 -79.4592 440.501)
(70.8101 -632.241 -185.971 844.075 -102.847 -48.497)
(127.552 -590.797 -296.923 848.462 -165.577 107.008)
(180.961 -557.831 -287.475 861.626 -160.78 283.431)
(231.143 -526.359 -164.629 874.733 -92.5057 439.341)
(175.754 -685.332 -177.19 741.992 -117.162 -47.3209)
(225.101 -639.892 -282.809 752.23 -188.282 107.315)
(272.564 -603.887 -273.787 770.006 -182.695 283.003)
(317.101 -569.585 -156.786 787.496 -104.97 438.144)
(287.611 -721.553 -167.274 633.015 -130.898 -46.2464)
(328.825 -673.15 -266.96 649.856 -209.92 107.619)
(369.91 -634.986 -258.45 672.712 -203.538 282.661)
(408.53 -598.715 -148.024 694.905 -116.808 437.13)
(403.431 -740.015 -156.195 519.538 -143.984 -45.4488)
(435.949 -689.916 -249.443 543.723 -230.367 107.846)
(470.544 -650.611 -241.551 572.166 -223.201 282.48)
(503.302 -613.328 -138.399 599.422 -127.97 436.538)
(519.538 -740.015 -143.984 403.431 -156.195 -45.4491)
(543.722 -689.916 -230.367 435.949 -249.443 107.846)
(572.166 -650.611 -223.201 470.544 -241.551 282.479)
(599.421 -613.328 -127.97 503.302 -138.399 436.538)
(633.014 -721.554 -130.898 287.61 -167.274 -46.247)
(649.855 -673.15 -209.92 328.825 -266.96 107.619)
(672.712 -634.986 -203.538 369.91 -258.45 282.661)
(694.904 -598.715 -116.808 408.53 -148.024 437.13)
(741.991 -685.333 -117.161 175.752 -177.19 -47.3219)
(752.229 -639.892 -188.282 225.1 -282.809 107.315)
(770.005 -603.888 -182.695 272.563 -273.787 283.002)
(787.496 -569.585 -104.97 317.1 -156.786 438.144)
(844.073 -632.242 -102.847 70.8071 -185.971 -48.4985)
(848.46 -590.797 -165.576 127.55 -296.923 107.007)
(861.625 -557.831 -160.78 180.96 -287.475 283.43)
(874.732 -526.359 -92.5057 231.143 -164.629 439.341)
(936.965 -563.625 -88.0186 -24.403 -193.582 -49.5772)
(936.155 -526.995 -141.911 38.8011 -309.22 106.737)
(945.144 -497.801 -137.894 97.5114 -299.423 283.859)
(954.195 -469.908 -79.4592 152.814 -171.5 440.5)
(1018.49 -481.203 -72.7355 -107.427 -199.987 -50.4346)
(1013.06 -450.058 -117.392 -38.769 -319.615 106.527)
(1018.3 -425.247 -114.141 24.4556 -309.542 284.223)
(1023.67 -401.564 -65.8796 84.1667 -177.341 441.462)
(1086.64 -387.011 -57.0385 -176.203 -205.16 -51.0184)
(1077.16 -361.945 -92.1188 -103.123 -328.03 106.389)
(1079.13 -342.029 -89.6215 -36.2573 -317.742 284.486)
(1081.26 -323.065 -51.8192 27.0322 -182.094 442.146)
(1139.62 -283.36 -40.9308 -229.11 -209.082 -51.3492)
(1126.82 -264.921 -66.1595 -152.562 -334.397 106.356)
(1126.05 -250.337 -64.4181 -83.0556 -323.943 284.652)
(1125.53 -236.455 -37.3266 -17.0448 -185.693 442.572)
(1177.01 -172.376 -24.3616 -264.005 -211.71 -50.8195)
(1160.6 -161.658 -39.5428 -185.711 -338.674 106.496)
(1158 -152.801 -38.5582 -114.527 -328.13 284.901)
(1154.95 -143.783 -22.4616 -47.3982 -188.035 442.559)
(1190.25 -61.683 8.23408 -283.816 -211.463 -54.4836)
(1176.57 -58.3244 0.833055 -202.887 -341.148 103.85)
(1174.99 -55.3121 0.933384 -130.084 -332.537 283)
(1174.56 -51.8812 7.96179 -61.5114 -193.652 442.433)
(-163.807 -49.6373 -107.94 1010.51 12.045 386.016)
(-121.581 -44.0044 -187.118 914.162 7.42763 241.381)
(-94.4424 -39.2171 -182.62 832.754 7.37825 130.172)
(-65.003 -33.9602 -99.0341 753.613 11.4933 -5.62221)
(-146.741 -137.245 -107.733 1001.92 -11.749 385.887)
(-107.957 -121.371 -185.213 903.244 -21.2003 240.278)
(-82.6229 -108.585 -179.518 821.639 -20.8545 128.401)
(-54.2794 -95.2749 -95.2877 741.908 -11.3732 -8.83151)
(-118.987 -225.664 -106.433 971.911 -20.027 384.868)
(-83.0443 -198.8 -182.84 877.957 -35.6978 239.757)
(-60.2007 -177.75 -177.18 799.018 -35.0369 127.889)
(-34.0472 -156.463 -94.0733 722.371 -19.0161 -9.07564)
(-76.9745 -308.219 -104.47 929.525 -28.069 384.658)
(-46.0418 -271.624 -179.3 840.641 -49.8324 239.498)
(-27.0123 -242.854 -173.699 765.722 -48.8418 127.633)
(-4.85913 -213.769 -92.1571 693.144 -26.4672 -9.35254)
(-22.3417 -383.242 -101.854 875.026 -35.9049 384.702)
(2.18498 -337.799 -174.592 792.445 -63.5613 239.426)
(16.0955 -301.995 -169.063 722.516 -62.226 127.442)
(32.9882 -265.751 -89.6052 655.077 -33.655 -9.65042)
(43.6533 -448.9 -98.5759 809.886 -43.5619 384.995)
(60.3822 -395.611 -168.747 734.628 -76.8497 239.47)
(68.0186 -353.581 -163.327 670.521 -75.1334 127.251)
(78.4783 -311.006 -86.4728 609.09 -40.5282 -10.0671)
(119.388 -503.581 -94.6296 735.717 -51.0514 385.504)
(127.024 -443.573 -161.819 668.704 -89.6549 239.601)
(127.36 -396.262 -156.566 611.136 -87.5068 127.041)
(130.378 -348.352 -82.8221 556.43 -47.0454 -10.6084)
(202.926 -545.908 -90.0195 654.256 -58.3663 386.151)
(200.316 -480.485 -153.878 596.376 -101.937 239.792)
(192.503 -428.989 -148.868 545.99 -99.3024 126.833)
(187.299 -376.899 -78.7239 498.597 -53.1826 -11.208)
(292.026 -574.793 -84.7649 567.325 -65.4855 386.799)
(278.261 -505.486 -145.007 519.448 -113.663 240.002)
(261.707 -451.065 -140.331 476.831 -110.497 126.667)
(247.794 -396.091 -74.2484 437.242 -58.9422 -11.744)
(384.28 -589.501 -78.8628 476.812 -72.3693 387.308)
(358.745 -518.083 -135.285 439.708 -124.802 240.163)
(333.209 -462.144 -131.044 405.394 -121.083 126.581)
(310.464 -405.698 -69.4498 374.034 -64.3524 -12.0671)
(476.812 -589.501 -72.3691 384.28 -78.863 387.307)
(439.708 -518.083 -124.802 358.745 -135.285 240.163)
(405.394 -462.144 -121.083 333.209 -131.044 126.581)
(374.034 -405.698 -64.3524 310.464 -69.4498 -12.0672)
(567.324 -574.794 -65.4853 292.025 -84.765 386.799)
(519.447 -505.487 -113.663 278.26 -145.007 240.001)
(476.831 -451.065 -110.497 261.706 -140.331 126.667)
(437.242 -396.091 -58.9422 247.794 -74.2483 -11.7441)
(654.254 -545.909 -58.3661 202.924 -90.0196 386.149)
(596.375 -480.486 -101.937 200.315 -153.878 239.791)
(545.989 -428.989 -99.3023 192.503 -148.868 126.833)
(498.597 -376.899 -53.1827 187.299 -78.7239 -11.2083)
(735.714 -503.582 -51.0512 119.384 -94.6296 385.503)
(668.703 -443.574 -89.6547 127.022 -161.819 239.6)
(611.135 -396.262 -87.5067 127.359 -156.566 127.041)
(556.429 -348.352 -47.0454 130.378 -82.822 -10.6087)
(809.884 -448.902 -43.5618 43.6489 -98.5759 384.993)
(734.626 -395.612 -76.8496 60.3795 -168.747 239.468)
(670.52 -353.582 -75.1333 68.0172 -163.327 127.25)
(609.089 -311.006 -40.5282 78.4779 -86.4727 -10.0675)
(875.023 -383.243 -35.9047 -22.3469 -101.854 384.699)
(792.443 -337.799 -63.5612 2.1818 -174.591 239.424)
(722.515 -301.996 -62.2259 16.0938 -169.063 127.441)
(655.076 -265.751 -33.655 32.9877 -89.6051 -9.65086)
(929.522 -308.22 -28.0688 -76.9803 -104.469 384.656)
(840.639 -271.624 -49.8323 -46.0454 -179.3 239.497)
(765.72 -242.854 -48.8417 -27.0142 -173.699 127.632)
(693.143 -213.769 -26.4672 -4.85971 -92.157 -9.35303)
(971.908 -225.664 -20.0269 -118.993 -106.433 384.865)
(877.955 -198.8 -35.6977 -83.0482 -182.84 239.755)
(799.016 -177.75 -35.0368 -60.2027 -177.18 127.887)
(722.369 -156.463 -19.0161 -34.0478 -94.0732 -9.07618)
(1001.91 -137.246 -11.749 -146.748 -107.733 385.884)
(903.242 -121.372 -21.2003 -107.961 -185.213 240.277)
(821.637 -108.585 -20.8545 -82.6251 -179.518 128.4)