/*--------------------------------*- C++ -*----------------------------------*\
| =========                 |                                                 |
| \\      /  F ield         | foam-extend: Open Source CFD                    |
|  \\    /   O peration     | Version:     3.1                                |
|   \\  /    A nd           | Web:         http://www.extend-project.de       |
|    \\/     M anipulation  |                                                 |
\*---------------------------------------------------------------------------*/
FoamFile
{
    version     2.0;
    format      ascii;
    class       volScalarField;
    location    "0.0005";
    object      sigmaEq;
}
// * * * * * * * * * * * * * * * * * * * * * * * * * * * * * * * * * * * * * //

dimensions      [1 -1 -2 0 0 0 0];

internalField   nonuniform List<scalar> 
6400
(
3282.82
2951.55
2712.95
2603.57
3272.61
2946.14
2708.39
2606.44
3271.31
2945.2
2707.83
2606.51
3270.57
2944.67
2707.38
2605.98
3269.99
2944.15
2706.83
2605.21
3269.46
2943.61
2706.19
2604.29
3268.99
2943.07
2705.52
2603.32
3268.62
2942.56
2704.89
2602.41
3268.36
2942.12
2704.35
2601.67
3268.17
2941.83
2704.01
2601.24
3268.17
2941.83
2704.01
2601.24
3268.36
2942.12
2704.35
2601.67
3268.62
2942.56
2704.88
2602.41
3268.99
2943.07
2705.52
2603.32
3269.46
2943.61
2706.19
2604.29
3269.99
2944.15
2706.83
2605.21
3270.57
2944.67
2707.38
2605.98
3271.31
2945.2
2707.83
2606.51
3272.61
2946.14
2708.39
2606.44
3282.82
2951.55
2712.95
2603.57
1837.05
2216.97
2057.93
1261.47
1846.17
2217.81
2049.08
1241.03
1845.11
2217.2
2048.42
1240.88
1844.57
2216.67
2047.92
1240.67
1844.29
2216.08
2047.33
1240.37
1844.19
2215.48
2046.66
1240.01
1844.21
2214.89
2045.98
1239.63
1844.33
2214.36
2045.36
1239.27
1844.55
2213.94
2044.85
1238.97
1845.1
2213.72
2044.56
1238.8
1845.1
2213.72
2044.56
1238.8
1844.55
2213.94
2044.85
1238.97
1844.33
2214.36
2045.36
1239.27
1844.21
2214.89
2045.98
1239.63
1844.19
2215.48
2046.66
1240.01
1844.3
2216.08
2047.33
1240.37
1844.57
2216.67
2047.92
1240.67
1845.11
2217.2
2048.42
1240.88
1846.17
2217.81
2049.08
1241.03
1837.05
2216.97
2057.93
1261.47
2065.15
1794.33
1619.87
1636.26
2060.17
1788.84
1614.18
1636.47
2059.09
1788.5
1614.05
1637.65
2058.84
1788.35
1613.99
1637.84
2058.95
1788.25
1613.81
1637.69
2059.34
1788.17
1613.5
1637.34
2059.92
1788.13
1613.11
1636.88
2060.63
1788.12
1612.71
1636.41
2061.41
1788.19
1612.38
1636
2062.44
1788.33
1612.2
1635.75
2062.44
1788.33
1612.2
1635.75
2061.41
1788.19
1612.38
1636
2060.63
1788.12
1612.71
1636.41
2059.92
1788.13
1613.11
1636.88
2059.34
1788.17
1613.5
1637.34
2058.96
1788.25
1613.81
1637.69
2058.84
1788.35
1613.99
1637.84
2059.09
1788.5
1614.05
1637.65
2060.17
1788.84
1614.18
1636.47
2065.15
1794.33
1619.87
1636.26
2222.64
1835.94
1658.81
1779.73
2215.38
1829.5
1655.03
1780.78
2214.23
1829.23
1655.16
1782.09
2213.85
1829.15
1655.22
1782.25
2213.93
1829.29
1655.23
1781.9
2214.38
1829.6
1655.16
1781.21
2215.13
1830.03
1655.05
1780.33
2216.08
1830.53
1654.92
1779.4
2217.11
1831.05
1654.82
1778.6
2218.2
1831.45
1654.76
1778.13
2218.2
1831.45
1654.76
1778.13
2217.11
1831.05
1654.82
1778.6
2216.08
1830.53
1654.92
1779.4
2215.13
1830.03
1655.05
1780.33
2214.38
1829.6
1655.16
1781.21
2213.93
1829.29
1655.23
1781.89
2213.86
1829.15
1655.22
1782.25
2214.23
1829.23
1655.16
1782.09
2215.38
1829.5
1655.03
1780.78
2222.64
1835.94
1658.81
1779.73
1917.76
1741.67
1601.48
1525.87
1915.86
1738.5
1597.68
1521.61
1915.03
1738.4
1597.67
1522.39
1914.59
1738.19
1597.53
1522.35
1914.51
1738.12
1597.33
1521.84
1914.81
1738.21
1597.05
1520.97
1915.47
1738.43
1596.73
1519.83
1916.37
1738.76
1596.4
1518.6
1917.37
1739.12
1596.14
1517.52
1918.32
1739.4
1595.99
1516.86
1918.32
1739.4
1595.99
1516.86
1917.37
1739.12
1596.14
1517.52
1916.37
1738.76
1596.4
1518.6
1915.47
1738.43
1596.73
1519.83
1914.81
1738.21
1597.05
1520.97
1914.51
1738.12
1597.33
1521.84
1914.59
1738.19
1597.53
1522.35
1915.03
1738.4
1597.67
1522.39
1915.86
1738.5
1597.68
1521.61
1917.76
1741.67
1601.48
1525.87
1425.89
1390.4
1294.48
1131.23
1428.34
1389.87
1291.55
1125.26
1427.85
1389.87
1291.44
1125.58
1427.49
1389.59
1291.18
1125.49
1427.33
1389.27
1290.76
1125.06
1427.49
1389
1290.22
1124.3
1427.97
1388.81
1289.6
1123.26
1428.67
1388.71
1288.96
1122.08
1429.46
1388.67
1288.42
1121.02
1430.15
1388.69
1288.09
1120.37
1430.16
1388.69
1288.09
1120.37
1429.46
1388.67
1288.42
1121.02
1428.68
1388.71
1288.96
1122.08
1427.97
1388.81
1289.6
1123.25
1427.5
1389
1290.22
1124.3
1427.34
1389.27
1290.76
1125.06
1427.49
1389.59
1291.18
1125.49
1427.85
1389.87
1291.44
1125.58
1428.34
1389.87
1291.55
1125.26
1425.9
1390.4
1294.48
1131.23
1038.48
969.321
898.171
811.374
1040.69
969.594
897.082
809.107
1040.3
969.634
897.034
809.307
1040.01
969.428
896.858
809.343
1039.85
969.125
896.514
809.131
1039.93
968.813
896.02
808.645
1040.25
968.531
895.419
807.918
1040.75
968.294
894.786
807.058
1041.28
968.117
894.231
806.254
1041.73
968.029
893.898
805.752
1041.73
968.029
893.898
805.752
1041.28
968.118
894.231
806.254
1040.75
968.295
894.786
807.058
1040.26
968.531
895.419
807.917
1039.93
968.814
896.02
808.645
1039.86
969.126
896.514
809.131
1040.01
969.429
896.858
809.343
1040.31
969.635
897.034
809.307
1040.7
969.595
897.082
809.107
1038.49
969.322
898.171
811.373
812.828
663.388
592.594
602.754
813.022
663.306
593.025
604.228
812.591
663.313
593.063
604.395
812.293
663.259
593.085
604.505
812.114
663.151
592.987
604.422
812.099
663.054
592.78
604.118
812.263
662.99
592.488
603.626
812.556
662.957
592.156
603.031
812.886
662.94
591.854
602.473
813.161
662.94
591.669
602.125
813.161
662.941
591.669
602.125
812.887
662.941
591.854
602.472
812.558
662.958
592.157
603.031
812.266
662.992
592.488
603.626
812.103
663.055
592.78
604.118
812.118
663.152
592.988
604.421
812.297
663.261
593.085
604.504
812.595
663.315
593.063
604.394
813.027
663.308
593.025
604.227
812.832
663.39
592.594
602.753
651.748
497.228
422.576
447.02
651.303
496.785
423.198
449.046
650.905
496.736
423.217
449.111
650.62
496.751
423.327
449.199
650.42
496.753
423.378
449.153
650.331
496.788
423.369
448.936
650.371
496.866
423.311
448.574
650.516
496.975
423.224
448.137
650.712
497.085
423.135
447.734
650.893
497.161
423.08
447.487
650.893
497.161
423.08
447.487
650.713
497.085
423.135
447.733
650.519
496.976
423.224
448.137
650.374
496.868
423.312
448.574
650.334
496.789
423.37
448.936
650.424
496.755
423.379
449.153
650.624
496.753
423.327
449.199
650.91
496.739
423.218
449.111
651.307
496.787
423.199
449.045
651.753
497.23
422.576
447.019
507.152
394.367
326.739
321.764
507.054
393.911
326.839
322.728
506.761
393.84
326.79
322.695
506.541
393.852
326.875
322.761
506.374
393.855
326.936
322.762
506.277
393.879
326.96
322.647
506.27
393.937
326.952
322.423
506.345
394.022
326.925
322.139
506.47
394.113
326.895
321.874
506.606
394.18
326.876
321.711
506.606
394.18
326.876
321.711
506.472
394.114
326.895
321.873
506.347
394.024
326.925
322.139
506.273
393.939
326.952
322.422
506.281
393.881
326.96
322.646
506.378
393.857
326.936
322.762
506.545
393.854
326.875
322.761
506.766
393.842
326.79
322.695
507.059
393.914
326.839
322.727
507.157
394.369
326.739
321.763
386.989
312.481
258.235
234.365
387.251
312.117
257.962
234.362
387.055
312.054
257.882
234.296
386.912
312.064
257.939
234.364
386.804
312.06
257.986
234.422
386.739
312.063
258.008
234.411
386.736
312.084
258.005
234.325
386.791
312.124
257.987
234.187
386.886
312.172
257.965
234.047
386.999
312.213
257.952
233.958
386.999
312.213
257.952
233.958
386.888
312.173
257.965
234.047
386.794
312.125
257.987
234.187
386.74
312.086
258.006
234.324
386.744
312.065
258.008
234.411
386.808
312.062
257.987
234.421
386.917
312.066
257.939
234.363
387.06
312.057
257.883
234.295
387.257
312.12
257.962
234.361
386.994
312.484
258.235
234.364
298.14
247.269
206.335
180.951
298.514
246.983
205.962
180.539
298.376
246.938
205.887
180.484
298.285
246.948
205.928
180.548
298.22
246.947
205.968
180.624
298.187
246.948
205.991
180.662
298.195
246.958
205.995
180.647
298.245
246.979
205.985
180.591
298.323
247.007
205.971
180.522
298.418
247.033
205.961
180.474
298.419
247.034
205.961
180.474
298.325
247.008
205.971
180.522
298.247
246.981
205.986
180.591
298.199
246.96
205.996
180.647
298.191
246.95
205.992
180.661
298.225
246.95
205.969
180.623
298.29
246.95
205.928
180.547
298.381
246.941
205.888
180.483
298.52
246.986
205.963
180.538
298.146
247.272
206.336
180.95
234.249
197.152
166.598
145.78
234.591
196.931
166.258
145.307
234.484
196.899
166.196
145.267
234.418
196.904
166.221
145.314
234.374
196.903
166.249
145.372
234.356
196.902
166.266
145.406
234.369
196.908
166.268
145.402
234.412
196.922
166.259
145.366
234.477
196.939
166.245
145.317
234.556
196.957
166.236
145.282
234.557
196.957
166.236
145.282
234.479
196.94
166.245
145.317
234.415
196.923
166.259
145.366
234.373
196.91
166.268
145.401
234.36
196.905
166.266
145.405
234.379
196.905
166.25
145.371
234.423
196.907
166.221
145.313
234.49
196.901
166.197
145.267
234.597
196.934
166.259
145.306
234.255
197.155
166.599
145.779
186.375
157.713
134.365
118.058
186.648
157.546
134.091
117.646
186.562
157.52
134.041
117.614
186.509
157.52
134.052
117.642
186.475
157.514
134.066
117.678
186.463
157.51
134.072
117.694
186.476
157.512
134.067
117.682
186.513
157.519
134.053
117.646
186.567
157.53
134.037
117.6
186.63
157.541
134.026
117.568
186.631
157.542
134.026
117.568
186.568
157.53
134.037
117.6
186.516
157.52
134.054
117.645
186.48
157.514
134.067
117.681
186.467
157.512
134.072
117.693
186.48
157.516
134.067
117.677
186.514
157.522
134.053
117.642
186.568
157.523
134.041
117.613
186.654
157.549
134.092
117.645
186.381
157.716
134.365
118.057
148.945
125.823
107.409
94.6834
149.151
125.695
107.199
94.3615
149.082
125.675
107.158
94.3355
149.038
125.671
107.162
94.3522
149.011
125.663
107.167
94.3724
149.002
125.658
107.166
94.377
149.014
125.657
107.157
94.3595
149.046
125.661
107.142
94.3235
149.09
125.669
107.125
94.2815
149.142
125.677
107.114
94.2524
149.142
125.677
107.114
94.2523
149.092
125.669
107.125
94.2812
149.049
125.663
107.142
94.3231
149.018
125.659
107.157
94.359
149.006
125.66
107.167
94.3765
149.016
125.666
107.168
94.3718
149.044
125.674
107.163
94.3516
149.088
125.678
107.159
94.3347
149.157
125.698
107.2
94.3607
148.951
125.826
107.41
94.6826
119.065
100.046
85.217
75.2894
119.218
99.9442
85.0579
75.0504
119.162
99.9283
85.0255
75.0292
119.126
99.9239
85.0269
75.0403
119.104
99.9167
85.0289
75.0528
119.097
99.9119
85.0258
75.0525
119.108
99.9115
85.0167
75.0346
119.134
99.9153
85.0033
75.0026
119.17
99.9217
84.9891
74.9664
119.212
99.9288
84.9799
74.9416
119.213
99.9291
84.98
74.9415
119.172
99.9226
84.9893
74.9661
119.137
99.9168
85.0036
75.0022
119.111
99.9134
85.0172
75.0342
119.101
99.9142
85.0264
75.052
119.109
99.9193
85.0296
75.0523
119.131
99.9267
85.0276
75.0397
119.168
99.9313
85.0263
75.0285
119.224
99.9473
85.0587
75.0496
119.071
100.049
85.2179
75.2886
95.0327
79.4324
67.4175
59.618
95.1464
79.35
67.2948
59.4407
95.1016
79.3374
67.2695
59.4238
95.0726
79.334
67.2708
59.4324
95.0547
79.3285
67.2723
59.4415
95.049
79.3251
67.2699
59.4401
95.0578
79.3256
67.2629
59.4247
95.0791
79.3296
67.2526
59.3983
95.1085
79.3357
67.2418
59.3689
95.1418
79.342
67.2349
59.3489
95.1424
79.3423
67.235
59.3488
95.1103
79.3366
67.2421
59.3687
95.0819
79.331
67.253
59.398
95.0615
79.3275
67.2635
59.4243
95.0534
79.3274
67.2705
59.4396
95.0596
79.331
67.2731
59.441
95.078
79.3368
67.2716
59.4318
95.1074
79.3404
67.2703
59.4232
95.1525
79.3531
67.2957
59.44
95.039
79.4356
67.4184
59.6173
75.6933
63.0587
53.357
47.1619
75.7805
62.9913
53.2601
47.0263
75.7446
62.9813
53.2402
47.013
75.7212
62.9789
53.2419
47.0203
75.7067
62.9749
53.2437
47.0278
75.7018
62.9727
53.2424
47.0268
75.7086
62.9736
53.2375
47.0148
75.7255
62.9774
53.23
46.994
75.7489
62.9829
53.2221
46.9709
75.7755
62.9885
53.217
46.9552
75.7761
62.9888
53.2171
46.9551
75.7506
62.9838
53.2223
46.9707
75.7282
62.9788
53.2304
46.9937
75.7122
62.9755
53.238
47.0144
75.7061
62.9749
53.243
47.0264
75.7115
62.9774
53.2445
47.0273
75.7265
62.9817
53.2427
47.0197
75.7503
62.9842
53.2411
47.0124
75.7865
62.9944
53.261
47.0256
75.6996
63.0619
53.3579
47.1612
60.1864
50.0732
42.2902
37.3346
60.2549
50.0181
42.2124
37.2274
60.2262
50.0101
42.1968
37.217
60.2074
50.0086
42.1986
37.2233
60.1956
50.0056
42.2005
37.2298
60.1915
50.004
42.1999
37.2296
60.1966
50.0049
42.1965
37.2206
60.2097
50.0082
42.1911
37.2046
60.2283
50.0129
42.1852
37.1867
60.2496
50.0175
42.1815
37.1745
60.2501
50.0178
42.1816
37.1744
60.2299
50.0137
42.1855
37.1865
60.2124
50.0096
42.1915
37.2043
60.2001
50.0067
42.1971
37.2202
60.1957
50.0062
42.2006
37.2292
60.2003
50.008
42.2013
37.2294
60.2126
50.0113
42.1994
37.2228
60.2317
50.013
42.1976
37.2165
60.2608
50.0212
42.2133
37.2269
60.1924
50.0763
42.2912
37.334
47.8111
39.7702
33.561
29.5924
47.8656
39.7256
33.4981
29.5062
47.8426
39.7193
33.4858
29.498
47.8277
39.7181
33.4875
29.5034
47.8181
39.7158
33.4893
29.509
47.8147
39.7146
33.4891
29.5093
47.8184
39.7153
33.4867
29.5026
47.8287
39.718
33.4826
29.4904
47.8433
39.7217
33.4782
29.4765
47.8604
39.7254
33.4753
29.467
47.8609
39.7257
33.4754
29.467
47.8449
39.7225
33.4784
29.4763
47.8312
39.7193
33.483
29.4901
47.8218
39.7171
33.4873
29.5023
47.8186
39.7167
33.4898
29.509
47.8226
39.7182
33.4901
29.5087
47.8326
39.7207
33.4884
29.503
47.8479
39.722
33.4867
29.4976
47.8713
39.7286
33.499
29.5057
47.8169
39.7733
33.562
29.5919
37.9699
31.5902
26.6521
23.4809
38.0134
31.5543
26.6013
23.4114
37.995
31.5492
26.5916
23.405
37.983
31.5484
26.593
23.4094
37.9753
31.5465
26.5946
23.4142
37.9724
31.5455
26.5946
23.4147
37.9753
31.5461
26.5928
23.4097
37.9833
31.5481
26.5896
23.4002
37.9949
31.551
26.5862
23.3894
38.0085
31.554
26.5839
23.382
38.009
31.5543
26.584
23.382
37.9964
31.5518
26.5864
23.3893
37.9857
31.5494
26.59
23.4
37.9784
31.5477
26.5933
23.4095
37.9762
31.5475
26.5953
23.4145
37.9796
31.5488
26.5954
23.4139
37.9876
31.5508
26.5939
23.4091
38
31.5519
26.5924
23.4046
38.0187
31.5571
26.6022
23.411
37.9754
31.5932
26.6531
23.4805
30.1569
25.0927
21.1694
18.6426
30.1915
25.0639
21.1286
18.5868
30.1767
25.0598
21.1209
18.5817
30.1672
25.0591
21.1221
18.5854
30.161
25.0576
21.1234
18.5893
30.1587
25.0568
21.1234
18.5898
30.1608
25.0572
21.122
18.586
30.1672
25.0588
21.1196
18.5786
30.1764
25.0611
21.1168
18.5702
30.1873
25.0635
21.1151
18.5643
30.1878
25.0638
21.1152
18.5643
30.1778
25.0619
21.1171
18.57
30.1694
25.06
21.12
18.5785
30.1638
25.0588
21.1226
18.5858
30.1621
25.0587
21.1241
18.5897
30.1649
25.0598
21.1242
18.5891
30.1715
25.0614
21.123
18.5852
30.1814
25.0623
21.1218
18.5815
30.1964
25.0665
21.1295
18.5865
30.162
25.0954
21.1704
18.6423
23.9559
19.9304
16.8128
14.8037
23.9833
19.9073
16.7802
14.759
23.9714
19.9041
16.774
14.7551
23.9638
19.9035
16.775
14.758
23.9589
19.9023
16.7761
14.7612
23.957
19.9017
16.7761
14.7617
23.9587
19.902
16.7751
14.7587
23.9638
19.9032
16.7731
14.7529
23.9711
19.9051
16.771
14.7463
23.98
19.907
16.7696
14.7416
23.9804
19.9073
16.7697
14.7416
23.9724
19.9058
16.7712
14.7462
23.9658
19.9043
16.7735
14.7528
23.9614
19.9034
16.7756
14.7586
23.9602
19.9034
16.7768
14.7616
23.9625
19.9043
16.7769
14.7611
23.9677
19.9057
16.7759
14.7579
23.9757
19.9064
16.7749
14.7549
23.9878
19.9098
16.7811
14.7588
23.9606
19.9329
16.8138
14.8035
19.0324
15.8289
13.3501
11.7543
19.0541
15.8104
13.324
11.7187
19.0446
15.8078
13.3192
11.7156
19.0386
15.8074
13.32
11.718
19.0347
15.8065
13.3209
11.7205
19.0332
15.806
13.3209
11.721
19.0346
15.8063
13.3201
11.7187
19.0387
15.8073
13.3186
11.7141
19.0446
15.8088
13.3169
11.7088
19.0517
15.8104
13.3158
11.7051
19.0521
15.8106
13.3159
11.7051
19.0457
15.8095
13.3171
11.7088
19.0405
15.8083
13.319
11.714
19.037
15.8076
13.3206
11.7186
19.0361
15.8076
13.3216
11.7209
19.0379
15.8083
13.3216
11.7205
19.0421
15.8094
13.3208
11.718
19.0484
15.81
13.32
11.7156
19.0581
15.8127
13.3249
11.7187
19.0366
15.8312
13.351
11.7542
15.1215
12.5705
10.5987
9.33147
15.1387
12.5557
10.5779
9.30328
15.1312
12.5537
10.574
9.3008
15.1264
12.5534
10.5747
9.30269
15.1234
12.5528
10.5754
9.30473
15.1223
12.5524
10.5755
9.30512
15.1235
12.5527
10.5749
9.30332
15.1268
12.5536
10.5737
9.29973
15.1316
12.5548
10.5724
9.29554
15.1373
12.5561
10.5716
9.29261
15.1377
12.5563
10.5717
9.29259
15.1326
12.5554
10.5727
9.29549
15.1284
12.5545
10.5741
9.29969
15.1256
12.5539
10.5754
9.30332
15.1248
12.5539
10.5762
9.30515
15.1262
12.5544
10.5762
9.30479
15.1295
12.5552
10.5755
9.30276
15.1345
12.5557
10.5749
9.30085
15.1422
12.5578
10.5787
9.3033
15.1253
12.5727
10.5996
9.33149
12.0141
9.98238
8.4133
7.4069
12.0277
9.97054
8.39669
7.38452
12.0218
9.96899
8.39367
7.38255
12.0181
9.96881
8.39424
7.38406
12.0158
9.96833
8.39484
7.38568
12.015
9.96811
8.39495
7.38601
12.016
9.96839
8.39449
7.38461
12.0187
9.96916
8.3936
7.38178
12.0226
9.97022
8.39259
7.37846
12.0273
9.9713
8.39195
7.37614
12.0276
9.97147
8.39202
7.37613
12.0235
9.97072
8.39281
7.37844
12.0201
9.96997
8.39396
7.38178
12.0179
9.96947
8.39498
7.38466
12.0172
9.9694
8.39555
7.38611
12.0182
9.96979
8.39554
7.38583
12.0207
9.97041
8.39501
7.38421
12.0247
9.97072
8.39449
7.3827
12.0308
9.97239
8.39754
7.38464
12.0174
9.9843
8.41419
7.40702
9.54486
7.92674
6.67799
5.87848
9.55559
7.91727
6.66473
5.8607
9.55095
7.91607
6.66235
5.85913
9.54811
7.91599
6.66282
5.86032
9.5464
7.91567
6.66333
5.86162
9.54589
7.91556
6.66344
5.86188
9.54682
7.91585
6.6631
5.86078
9.54907
7.91652
6.66243
5.85854
9.55227
7.91742
6.66166
5.85592
9.55604
7.91832
6.66117
5.85408
9.5563
7.91847
6.66124
5.85408
9.55303
7.91786
6.66186
5.85593
9.55028
7.91724
6.66277
5.85859
9.54838
7.9168
6.66357
5.86088
9.54773
7.91669
6.66402
5.86205
9.54847
7.91695
6.664
5.86183
9.55039
7.9174
6.66356
5.86056
9.55344
7.91761
6.66314
5.85936
9.55827
7.9189
6.66556
5.86092
9.54765
7.92844
6.67885
5.87869
7.58273
6.29409
5.3002
4.66487
7.59124
6.28651
5.28961
4.65074
7.58761
6.2856
5.28773
4.64948
7.58546
6.28559
5.28812
4.65042
7.58421
6.28539
5.28854
4.65143
7.5839
6.28536
5.28865
4.65164
7.58474
6.28565
5.28841
4.65077
7.58663
6.28624
5.2879
4.64901
7.58925
6.287
5.28731
4.64693
7.59232
6.28775
5.28694
4.64548
7.59254
6.28788
5.287
4.64548
7.58989
6.28739
5.28751
4.64696
7.58764
6.28687
5.28823
4.64909
7.58605
6.28648
5.28886
4.65093
7.58543
6.28635
5.28921
4.65188
7.58592
6.28651
5.28918
4.65172
7.58735
6.28682
5.28883
4.65073
7.58969
6.28694
5.28849
4.64979
7.59349
6.28795
5.29041
4.65104
7.58508
6.29559
5.30103
4.66518
6.02368
4.9974
4.20628
3.70131
6.03043
4.99133
4.19781
3.69008
6.0276
4.99064
4.19632
3.68906
6.02597
4.99067
4.19665
3.68979
6.02507
4.99056
4.19699
3.69058
6.02491
4.99058
4.19709
3.69074
6.02566
4.99085
4.19691
3.69005
6.02723
4.99136
4.19652
3.68865
6.02938
4.992
4.19607
3.68701
6.03187
4.99263
4.19579
3.68586
6.03206
4.99274
4.19585
3.68588
6.02991
4.99234
4.19626
3.68707
6.02807
4.9919
4.19684
3.68878
6.02673
4.99156
4.19734
3.69026
6.02615
4.99143
4.19762
3.69104
6.02645
4.99151
4.19761
3.69094
6.0275
4.99173
4.19733
3.69018
6.02929
4.99179
4.19706
3.68945
6.03227
4.99257
4.19858
3.69047
6.02561
4.9987
4.20708
3.70171
4.78498
3.96752
3.33773
2.93634
4.79032
3.96266
3.33095
2.9274
4.78811
3.96213
3.32977
2.92657
4.78688
3.96219
3.33003
2.92714
4.78623
3.96212
3.33031
2.92775
4.78616
3.96217
3.33039
2.92786
4.78681
3.96241
3.33026
2.92731
4.78811
3.96285
3.32996
2.92621
4.78985
3.96338
3.32961
2.9249
4.79187
3.9639
3.3294
2.924
4.79201
3.964
3.32946
2.92402
4.79028
3.96367
3.32979
2.92499
4.78876
3.96331
3.33026
2.92637
4.78764
3.96302
3.33067
2.92757
4.78712
3.96288
3.3309
2.92822
4.78728
3.96293
3.3309
2.92817
4.78805
3.96307
3.33069
2.92759
4.78942
3.96311
3.33048
2.92704
4.79176
3.96371
3.33169
2.92787
4.78649
3.96862
3.33849
2.93681
3.80084
3.1496
2.64815
2.32908
3.80507
3.1457
2.64273
2.32196
3.80334
3.14529
2.6418
2.32129
3.80239
3.14535
2.642
2.32172
3.80191
3.14532
2.64221
2.3222
3.80188
3.14536
2.64228
2.32228
3.80241
3.14557
2.64217
2.32184
3.80346
3.14592
2.64195
2.32097
3.80487
3.14636
2.64168
2.31994
3.80648
3.14678
2.64152
2.31923
3.80659
3.14686
2.64158
2.31926
3.80519
3.1466
2.64185
2.32004
3.80395
3.1463
2.64224
2.32116
3.80302
3.14606
2.64258
2.32215
3.80256
3.14595
2.64277
2.32269
3.80265
3.14597
2.64279
2.32269
3.80322
3.14608
2.64263
2.32225
3.80427
3.14609
2.64247
2.32184
3.8061
3.14656
2.64345
2.32251
3.80194
3.15051
2.64889
2.32963
3.01901
2.5001
2.10079
1.84712
3.02235
2.49697
2.09645
1.84146
3.02098
2.49665
2.0957
1.84091
3.02025
2.4967
2.09586
1.84124
3.01986
2.49667
2.09602
1.84161
3.01984
2.4967
2.09607
1.84167
3.02025
2.49686
2.09599
1.84132
3.02107
2.49714
2.09581
1.84064
3.02218
2.49749
2.0956
1.83983
3.02346
2.49783
2.09549
1.83928
3.02354
2.49789
2.09554
1.83932
3.0224
2.49768
2.09577
1.83996
3.0214
2.49744
2.09609
1.84087
3.02064
2.49725
2.09637
1.84167
3.02025
2.49716
2.09654
1.84213
3.0203
2.49718
2.09657
1.84216
3.02073
2.49726
2.09646
1.84184
3.02154
2.49727
2.09635
1.84153
3.02299
2.49765
2.09713
1.84209
3.0197
2.50081
2.10149
1.84776
2.398
1.98447
1.66644
1.46473
2.40063
1.98195
1.66297
1.46023
2.39954
1.9817
1.66237
1.45978
2.39894
1.98173
1.66249
1.46004
2.39862
1.9817
1.66261
1.46032
2.39857
1.98171
1.66265
1.46037
2.39886
1.98182
1.66258
1.4601
2.39947
1.98203
1.66244
1.45957
2.40033
1.9823
1.66228
1.45895
2.40133
1.98256
1.6622
1.45852
2.40137
1.98261
1.66225
1.45857
2.40045
1.98244
1.66245
1.45909
2.39964
1.98226
1.66271
1.45984
2.39903
1.98211
1.66295
1.4605
2.39872
1.98204
1.6631
1.46089
2.39875
1.98207
1.66314
1.46093
2.39908
1.98214
1.66307
1.4607
2.39972
1.98215
1.66299
1.46047
2.40087
1.98245
1.66362
1.46093
2.39827
1.98499
1.66711
1.46544
1.90483
1.57525
1.32192
1.16146
1.90689
1.57323
1.31914
1.15788
1.90602
1.57302
1.31866
1.15752
1.90553
1.57304
1.31876
1.15772
1.90523
1.57299
1.31885
1.15794
1.90514
1.57298
1.31887
1.15799
1.90532
1.57304
1.31882
1.15779
1.90576
1.57319
1.31871
1.15739
1.90639
1.57339
1.3186
1.15691
1.90716
1.57359
1.31854
1.15659
1.90717
1.57363
1.31859
1.15665
1.90642
1.57349
1.31875
1.15708
1.90577
1.57335
1.31897
1.15769
1.90528
1.57324
1.31918
1.15823
1.90503
1.57319
1.31931
1.15856
1.90506
1.57322
1.31936
1.15861
1.90532
1.57329
1.31931
1.15844
1.90583
1.5733
1.31926
1.15828
1.90674
1.57354
1.31977
1.15866
1.9047
1.57558
1.32256
1.16225
1.51329
1.25061
1.04877
0.921037
1.51491
1.24897
1.04655
0.918185
1.5142
1.24881
1.04616
0.917895
1.51379
1.24881
1.04623
0.91805
1.51351
1.24875
1.04631
0.918235
1.51338
1.24871
1.04632
0.918286
1.51345
1.24874
1.04628
0.918152
1.51374
1.24884
1.04621
0.917856
1.5142
1.24898
1.04612
0.9175
1.51478
1.24913
1.04608
0.917267
1.51476
1.24915
1.04613
0.917328
1.51413
1.24904
1.04627
0.917687
1.5136
1.24892
1.04646
0.918183
1.51321
1.24884
1.04663
0.918629
1.51301
1.24881
1.04675
0.918905
1.51304
1.24884
1.0468
0.918962
1.51325
1.2489
1.04677
0.918843
1.51365
1.24891
1.04674
0.918724
1.51438
1.24911
1.04715
0.919036
1.51276
1.25074
1.04938
0.921901
1.20252
0.993118
0.832269
0.730493
1.20379
0.991805
0.830486
0.728218
1.20321
0.991665
0.830181
0.727985
1.20285
0.991654
0.830236
0.728111
1.20258
0.991588
0.830292
0.728268
1.20242
0.991535
0.830308
0.728327
1.20242
0.991531
0.830284
0.728246
1.20259
0.991588
0.830232
0.728039
1.2029
0.991687
0.830174
0.727783
1.20332
0.991793
0.830154
0.72762
1.20327
0.9918
0.830202
0.727686
1.20274
0.991703
0.830318
0.727986
1.2023
0.991607
0.830471
0.728392
1.20198
0.991541
0.830615
0.728758
1.20181
0.991521
0.830717
0.728989
1.20183
0.991549
0.830762
0.729046
1.202
0.991599
0.830749
0.728962
1.20231
0.991611
0.830727
0.728877
1.20288
0.991763
0.831056
0.729133
1.2016
0.993071
0.832844
0.731421
0.955887
0.788913
0.660674
0.579493
0.956885
0.787855
0.659243
0.577674
0.95641
0.78774
0.659002
0.577489
0.956097
0.78772
0.659045
0.577592
0.955838
0.787649
0.659092
0.57773
0.955649
0.787585
0.65911
0.577798
0.955583
0.78756
0.659098
0.577762
0.95566
0.787587
0.659068
0.577628
0.955858
0.787651
0.659034
0.577452
0.956147
0.787723
0.659028
0.577347
0.956068
0.787716
0.659073
0.577418
0.955616
0.787628
0.659171
0.57767
0.955237
0.787543
0.659296
0.578003
0.95496
0.787484
0.659414
0.578304
0.954817
0.787466
0.6595
0.578497
0.954818
0.787487
0.659541
0.578552
0.954943
0.787525
0.659535
0.578494
0.955184
0.787532
0.659521
0.578433
0.955629
0.787649
0.659784
0.578644
0.954609
0.788694
0.661215
0.580474
0.760138
0.626932
0.524633
0.459806
0.760922
0.626079
0.523485
0.458349
0.760532
0.625984
0.523294
0.458202
0.760261
0.62596
0.52333
0.458289
0.760015
0.625888
0.52337
0.458412
0.759812
0.625818
0.523391
0.458489
0.759704
0.625781
0.523392
0.458489
0.759711
0.625787
0.52338
0.458413
0.759821
0.625825
0.523365
0.458303
0.76001
0.62587
0.52337
0.458242
0.759905
0.625851
0.523413
0.458317
0.759504
0.625766
0.523494
0.458531
0.759168
0.625684
0.523595
0.458806
0.758918
0.625627
0.52369
0.459053
0.75878
0.625604
0.523761
0.459215
0.75876
0.625613
0.523795
0.459267
0.758841
0.625638
0.523793
0.459228
0.759015
0.625637
0.523783
0.459187
0.759354
0.625723
0.523993
0.459361
0.758536
0.626556
0.525138
0.460828
0.604733
0.498383
0.416714
0.36489
0.605349
0.497693
0.41579
0.363722
0.605032
0.497617
0.41564
0.363605
0.604798
0.497592
0.415671
0.36368
0.60457
0.497523
0.415708
0.363791
0.604365
0.497453
0.415732
0.363874
0.60423
0.497409
0.415743
0.363902
0.604189
0.497402
0.415746
0.363872
0.604234
0.497422
0.415747
0.363811
0.604343
0.497445
0.41576
0.363786
0.604217
0.497415
0.4158
0.363863
0.603853
0.497331
0.415867
0.364046
0.603544
0.497248
0.415948
0.364274
0.603308
0.497187
0.416023
0.364479
0.603164
0.497155
0.416079
0.364616
0.603118
0.49715
0.416106
0.364665
0.603154
0.497158
0.416105
0.364642
0.603267
0.497147
0.416097
0.364617
0.603516
0.497206
0.416263
0.364762
0.602855
0.497866
0.41718
0.36594
0.481302
0.396293
0.331027
0.289561
0.481786
0.395735
0.330283
0.288623
0.48153
0.395675
0.330166
0.28853
0.481332
0.395652
0.330194
0.288595
0.481126
0.395589
0.330228
0.288696
0.480927
0.395524
0.330255
0.288783
0.480781
0.395479
0.330275
0.288831
0.48071
0.395465
0.33029
0.288835
0.480708
0.395472
0.330303
0.288813
0.480757
0.39548
0.330323
0.288814
0.480615
0.39544
0.330359
0.288892
0.480278
0.395354
0.330413
0.28905
0.479986
0.395268
0.330476
0.289241
0.479754
0.3952
0.330534
0.289412
0.479598
0.395156
0.330577
0.289528
0.479522
0.395136
0.330597
0.289575
0.479514
0.395127
0.330595
0.289565
0.479571
0.395103
0.330587
0.289553
0.479742
0.395137
0.330718
0.289675
0.479204
0.395659
0.331451
0.290623
0.383206
0.31515
0.262924
0.229723
0.383587
0.314697
0.262323
0.228969
0.383383
0.314652
0.262233
0.228895
0.383221
0.314633
0.262259
0.228952
0.38304
0.314579
0.262292
0.229044
0.382856
0.314522
0.262322
0.229131
0.38271
0.31448
0.262348
0.229193
0.382623
0.314463
0.262373
0.229222
0.382589
0.314462
0.262394
0.229228
0.382595
0.314459
0.262419
0.229249
0.38244
0.314413
0.262452
0.229326
0.382125
0.314324
0.262495
0.229464
0.381844
0.314235
0.262543
0.229625
0.381611
0.314158
0.262586
0.229769
0.38144
0.314102
0.262617
0.229869
0.381334
0.314065
0.26263
0.229914
0.381284
0.314038
0.262625
0.229914
0.381289
0.314001
0.262617
0.229913
0.381395
0.314012
0.262719
0.230018
0.380951
0.314423
0.263305
0.230781
0.305188
0.250599
0.208743
0.182149
0.305488
0.250231
0.208259
0.181543
0.30533
0.250199
0.20819
0.181485
0.3052
0.250187
0.208215
0.181535
0.305047
0.250143
0.208247
0.181618
0.304884
0.250096
0.208279
0.181704
0.304746
0.25006
0.208311
0.181774
0.304653
0.250045
0.208343
0.181819
0.304601
0.25004
0.208371
0.181846
0.304576
0.250029
0.208398
0.181881
0.304415
0.249978
0.208428
0.181957
0.304119
0.249889
0.208462
0.182077
0.303847
0.249795
0.208497
0.182214
0.303611
0.24971
0.208528
0.182336
0.303425
0.249642
0.208548
0.182423
0.303291
0.249589
0.208554
0.182467
0.303203
0.249545
0.208546
0.182475
0.303163
0.249495
0.208536
0.182483
0.303212
0.249487
0.208614
0.182574
0.302843
0.249808
0.209083
0.183188
0.243084
0.199207
0.165608
0.144303
0.24332
0.198908
0.165217
0.143817
0.2432
0.198887
0.165166
0.143772
0.243101
0.198882
0.16519
0.143816
0.242975
0.198849
0.165222
0.143891
0.242835
0.198813
0.165257
0.143973
0.242711
0.198785
0.165293
0.144048
0.242621
0.198774
0.165329
0.144105
0.242559
0.198768
0.165362
0.144145
0.242514
0.198752
0.165391
0.144189
0.242352
0.198699
0.165418
0.144263
0.242074
0.19861
0.165444
0.144368
0.241812
0.198513
0.16547
0.144486
0.241575
0.198423
0.16549
0.144591
0.241375
0.198344
0.165501
0.144668
0.241217
0.198277
0.165501
0.14471
0.241098
0.198217
0.165488
0.144723
0.241021
0.198156
0.165477
0.144738
0.241023
0.198131
0.165536
0.144818
0.240713
0.198381
0.16591
0.145312
0.193597
0.158266
0.131258
0.114195
0.193783
0.158022
0.130942
0.113807
0.193695
0.158011
0.130905
0.113771
0.193622
0.158013
0.13093
0.11381
0.193521
0.15799
0.130961
0.113878
0.193404
0.157964
0.130997
0.113957
0.193296
0.157946
0.131037
0.114034
0.193212
0.157939
0.131078
0.114098
0.193149
0.157934
0.131114
0.114147
0.193092
0.157917
0.131144
0.114197
0.192934
0.157864
0.131168
0.114266
0.192676
0.157777
0.131189
0.11436
0.192425
0.15768
0.131206
0.114461
0.19219
0.157586
0.131218
0.114553
0.191982
0.1575
0.131222
0.114621
0.191808
0.157422
0.131216
0.11466
0.191665
0.15735
0.1312
0.114677
0.191559
0.15728
0.131186
0.114695
0.191526
0.157242
0.131229
0.114766
0.191263
0.157434
0.131527
0.115163
0.154131
0.125645
0.103916
0.0902582
0.154278
0.125446
0.103661
0.0899489
0.154214
0.125443
0.103634
0.0899215
0.154161
0.125449
0.103659
0.0899564
0.154081
0.125435
0.10369
0.0900185
0.153984
0.125418
0.103728
0.0900937
0.153891
0.125407
0.10377
0.0901709
0.153817
0.125406
0.103814
0.0902393
0.153755
0.125404
0.103853
0.0902945
0.153694
0.125388
0.103884
0.090347
0.153544
0.125337
0.103906
0.0904129
0.153307
0.125254
0.103923
0.0904956
0.15307
0.12516
0.103934
0.0905839
0.152843
0.125065
0.10394
0.0906641
0.152635
0.124975
0.103938
0.0907249
0.152452
0.124891
0.103928
0.0907618
0.152296
0.124812
0.103909
0.0907797
0.152172
0.124736
0.103893