/*--------------------------------*- C++ -*----------------------------------*\
| =========                 |                                                 |
| \\      /  F ield         | foam-extend: Open Source CFD                    |
|  \\    /   O peration     | Version:     3.1                                |
|   \\  /    A nd           | Web:         http://www.extend-project.de       |
|    \\/     M anipulation  |                                                 |
\*---------------------------------------------------------------------------*/
FoamFile
{
    version     2.0;
    format      ascii;
    class       volVectorField;
    location    "0.0005";
    object      U;
}
// * * * * * * * * * * * * * * * * * * * * * * * * * * * * * * * * * * * * * //

dimensions      [0 1 -1 0 0 0 0];

internalField   nonuniform List<vector> 
6400
(
(0.00485765 0.000152568 0.00587129)
(0.00362342 0.000112433 0.00194203)
(0.00333609 0.00010122 -0.00113557)
(0.00395636 0.000118867 -0.00478815)
(0.00481153 0.000545138 0.00587645)
(0.00359225 0.000405727 0.00194969)
(0.0033112 0.000374356 -0.0011269)
(0.0039356 0.000447859 -0.00477887)
(0.00474854 0.000929621 0.00587378)
(0.00354551 0.000693121 0.00194912)
(0.00326886 0.000640007 -0.00112666)
(0.00388635 0.000763763 -0.00477818)
(0.00465797 0.00130526 0.0058721)
(0.00347798 0.000974142 0.00194842)
(0.00320673 0.000899062 -0.00112667)
(0.00381271 0.00107094 -0.00477758)
(0.00453889 0.00167088 0.00587175)
(0.00338898 0.00124737 0.00194848)
(0.00312469 0.00115051 -0.00112622)
(0.00371536 0.00136881 -0.00477669)
(0.00439232 0.00202494 0.00587242)
(0.00327955 0.00151165 0.00194902)
(0.0030239 0.00139352 -0.0011256)
(0.00359575 0.00165662 -0.00477605)
(0.00421947 0.00236548 0.00587379)
(0.0031507 0.00176581 0.00194977)
(0.00290532 0.0016273 -0.0011251)
(0.00345489 0.00193371 -0.00477597)
(0.00402115 0.00269019 0.00587552)
(0.00300283 0.00200832 0.00195055)
(0.00276914 0.00185072 -0.00112477)
(0.00329296 0.002199 -0.00477636)
(0.00379813 0.0029969 0.00587725)
(0.00283628 0.00223749 0.00195128)
(0.00261549 0.00206223 -0.00112457)
(0.0031101 0.00245074 -0.00477689)
(0.00355182 0.00328425 0.00587865)
(0.00265215 0.00245222 0.00195186)
(0.0024454 0.00226063 -0.00112442)
(0.0029075 0.00268724 -0.0047772)
(0.00328425 0.00355182 0.00587865)
(0.00245222 0.00265215 0.00195186)
(0.00226063 0.0024454 -0.00112442)
(0.00268724 0.0029075 -0.0047772)
(0.0029969 0.00379813 0.00587725)
(0.0022375 0.00283628 0.00195128)
(0.00206223 0.0026155 -0.00112457)
(0.00245074 0.0031101 -0.00477689)
(0.0026902 0.00402116 0.00587551)
(0.00200832 0.00300284 0.00195054)
(0.00185072 0.00276914 -0.00112478)
(0.002199 0.00329296 -0.00477637)
(0.00236549 0.00421948 0.00587379)
(0.00176582 0.00315071 0.00194976)
(0.00162731 0.00290532 -0.0011251)
(0.00193372 0.00345489 -0.00477597)
(0.00202495 0.00439233 0.00587242)
(0.00151166 0.00327956 0.00194902)
(0.00139352 0.00302391 -0.00112561)
(0.00165663 0.00359575 -0.00477605)
(0.00167089 0.00453891 0.00587175)
(0.00124737 0.00338899 0.00194848)
(0.00115052 0.0031247 -0.00112622)
(0.00136882 0.00371537 -0.00477669)
(0.00130526 0.00465798 0.0058721)
(0.000974148 0.00347799 0.00194842)
(0.000899067 0.00320674 -0.00112668)
(0.00107094 0.00381272 -0.00477758)
(0.000929626 0.00474856 0.00587377)
(0.000693126 0.00354553 0.00194911)
(0.000640011 0.00326887 -0.00112666)
(0.000763767 0.00388637 -0.00477819)
(0.000545142 0.00481155 0.00587644)
(0.00040573 0.00359227 0.00194969)
(0.000374359 0.00331122 -0.0011269)
(0.000447861 0.00393562 -0.00477888)
(0.000152569 0.00485767 0.00587128)
(0.000112434 0.00362344 0.00194202)
(0.000101221 0.00333611 -0.00113557)
(0.000118868 0.00395638 -0.00478815)
(0.0294017 0.00112832 0.0144658)
(0.0277972 0.00107368 0.00531064)
(0.0268859 0.00104077 -0.00286031)
(0.0266861 0.00103452 -0.011699)
(0.0291973 0.00343019 0.0144445)
(0.0276087 0.00324921 0.00529086)
(0.0267097 0.00314758 -0.0028796)
(0.0265181 0.00312876 -0.0117169)
(0.0288272 0.0057139 0.0144345)
(0.0272595 0.00540716 0.00528299)
(0.0263731 0.00523549 -0.0028854)
(0.0261854 0.00520227 -0.01172)
(0.0282828 0.00796209 0.0144304)
(0.026745 0.00753209 0.00528097)
(0.0258753 0.0072906 -0.00288519)
(0.0256912 0.00724224 -0.0117172)
(0.0275665 0.0101617 0.0144299)
(0.0260678 0.00961073 0.00528194)
(0.0252202 0.00930027 -0.00288241)
(0.0250407 0.00923602 -0.0117125)
(0.0266841 0.0123002 0.0144317)
(0.0252342 0.0116313 0.0052843)
(0.024414 0.0112535 -0.002879)
(0.0242406 0.0111731 -0.0117081)
(0.025642 0.0143646 0.0144353)
(0.0242499 0.0135823 0.00528712)
(0.0234625 0.0131396 -0.00287601)
(0.0232962 0.0130437 -0.0117054)
(0.0244448 0.0163406 0.0144397)
(0.0231188 0.0154509 0.00528982)
(0.0223687 0.014947 -0.0028739)
(0.0222103 0.0148372 -0.0117044)
(0.0230965 0.0182138 0.014444)
(0.0218439 0.0172234 0.00529203)
(0.0211353 0.0166624 -0.00287264)
(0.0209852 0.0165407 -0.0117046)
(0.0216025 0.0199712 0.0144471)
(0.0204304 0.0188869 0.00529346)
(0.019767 0.0182727 -0.00287201)
(0.0196256 0.0181406 -0.011705)
(0.0199712 0.0216025 0.0144471)
(0.0188869 0.0204304 0.00529346)
(0.0182727 0.019767 -0.00287201)
(0.0181406 0.0196256 -0.011705)
(0.0182138 0.0230965 0.014444)
(0.0172235 0.0218439 0.00529203)
(0.0166624 0.0211353 -0.00287264)
(0.0165407 0.0209852 -0.0117046)
(0.0163406 0.0244448 0.0144397)
(0.0154509 0.0231188 0.00528981)
(0.014947 0.0223687 -0.00287391)
(0.0148372 0.0222104 -0.0117044)
(0.0143646 0.025642 0.0144353)
(0.0135823 0.0242499 0.00528711)
(0.0131396 0.0234625 -0.00287602)
(0.0130438 0.0232962 -0.0117054)
(0.0123003 0.0266841 0.0144317)
(0.0116314 0.0252342 0.00528429)
(0.0112535 0.0244141 -0.002879)
(0.0111731 0.0242406 -0.0117081)
(0.0101617 0.0275665 0.0144298)
(0.00961074 0.0260678 0.00528192)
(0.00930028 0.0252202 -0.00288242)
(0.00923603 0.0250407 -0.0117125)
(0.00796211 0.0282829 0.0144304)
(0.00753211 0.026745 0.00528095)
(0.00729061 0.0258753 -0.0028852)
(0.00724225 0.0256912 -0.0117172)
(0.00571391 0.0288272 0.0144345)
(0.00540718 0.0272596 0.00528298)
(0.00523549 0.0263731 -0.00288541)
(0.00520228 0.0261854 -0.01172)
(0.00343019 0.0291973 0.0144445)
(0.00324921 0.0276088 0.00529085)
(0.00314759 0.0267097 -0.00287961)
(0.00312877 0.0265181 -0.0117169)
(0.00112833 0.0294018 0.0144658)
(0.00107369 0.0277972 0.00531063)
(0.00104077 0.026886 -0.00286031)
(0.00103453 0.0266861 -0.011699)
(0.0652597 0.00255323 0.0161877)
(0.0636383 0.00249908 0.00584391)
(0.0621248 0.00244573 -0.00353604)
(0.0607341 0.00240085 -0.0136139)
(0.0648399 0.00765589 0.0161586)
(0.0632272 0.0074753 0.00581541)
(0.0617231 0.0073063 -0.00356401)
(0.0603406 0.00715253 -0.0136392)
(0.0640254 0.0127135 0.0161442)
(0.0624315 0.012406 0.00580341)
(0.0609454 0.0121198 -0.00357286)
(0.0595796 0.011858 -0.0136433)
(0.0628175 0.0176938 0.0161369)
(0.0612526 0.0172609 0.00580002)
(0.0597934 0.016858 -0.00357217)
(0.0584524 0.0164889 -0.0136378)
(0.0612268 0.022569 0.0161336)
(0.059701 0.0220119 0.00580077)
(0.058278 0.0214936 -0.00356717)
(0.0569704 0.0210179 -0.0136281)
(0.0592674 0.0273112 0.0161327)
(0.0577907 0.0266325 0.00580344)
(0.0564132 0.026001 -0.00356062)
(0.0551475 0.0254204 -0.0136173)
(0.0569527 0.031892 0.0161337)
(0.0555346 0.031096 0.00580686)
(0.0542113 0.0303552 -0.00355413)
(0.0529957 0.0296732 -0.0136076)
(0.054294 0.0362809 0.016136)
(0.0529427 0.0353739 0.00581026)
(0.0516815 0.0345293 -0.00354865)
(0.0505229 0.0337513 -0.0136001)
(0.0513005 0.0404462 0.0161388)
(0.0500232 0.0394354 0.00581308)
(0.0488312 0.0384935 -0.00354476)
(0.047736 0.0376262 -0.0135952)
(0.0479828 0.0443563 0.0161412)
(0.0467865 0.0432492 0.00581485)
(0.0456706 0.0422168 -0.0035427)
(0.0446449 0.041267 -0.0135929)
(0.0443563 0.0479828 0.0161412)
(0.0432492 0.0467864 0.00581485)
(0.0422168 0.0456706 -0.0035427)
(0.041267 0.0446449 -0.0135929)
(0.0404462 0.0513005 0.0161388)
(0.0394354 0.0500232 0.00581307)
(0.0384935 0.0488312 -0.00354476)
(0.0376262 0.047736 -0.0135952)
(0.036281 0.054294 0.016136)
(0.0353739 0.0529428 0.00581025)
(0.0345293 0.0516815 -0.00354866)
(0.0337514 0.0505229 -0.0136001)
(0.031892 0.0569527 0.0161337)
(0.031096 0.0555347 0.00580685)
(0.0303552 0.0542114 -0.00355413)
(0.0296732 0.0529957 -0.0136076)
(0.0273112 0.0592674 0.0161327)
(0.0266325 0.0577907 0.00580343)
(0.026001 0.0564132 -0.00356063)
(0.0254204 0.0551475 -0.0136173)
(0.022569 0.0612269 0.0161335)
(0.0220119 0.059701 0.00580075)
(0.0214936 0.058278 -0.00356718)
(0.0210179 0.0569704 -0.0136281)
(0.0176939 0.0628175 0.0161369)
(0.0172609 0.0612526 0.0058)
(0.016858 0.0597934 -0.00357218)
(0.0164889 0.0584524 -0.0136378)
(0.0127135 0.0640254 0.0161441)
(0.012406 0.0624316 0.00580339)
(0.0121198 0.0609454 -0.00357286)
(0.011858 0.0595797 -0.0136433)
(0.0076559 0.06484 0.0161585)
(0.00747531 0.0632273 0.00581539)
(0.00730631 0.0617232 -0.00356402)
(0.00715253 0.0603406 -0.0136392)
(0.00255323 0.0652598 0.0161877)
(0.00249909 0.0636383 0.00584389)
(0.00244574 0.0621249 -0.00353605)
(0.00240085 0.0607341 -0.0136139)
(0.0969781 0.00381443 0.00967958)
(0.0952903 0.00375644 0.00298112)
(0.0932465 0.0036852 -0.00318109)
(0.090858 0.00361072 -0.00970938)
(0.0963636 0.0113899 0.00966)
(0.0946796 0.0112037 0.00296299)
(0.0926436 0.0109765 -0.00319798)
(0.0902639 0.0107121 -0.00972361)
(0.0951495 0.0188951 0.00964848)
(0.0934832 0.018579 0.00295498)
(0.0914702 0.0181944 -0.00320229)
(0.0891184 0.017744 -0.00972301)
(0.0933464 0.0262842 0.00964064)
(0.0917087 0.0258384 0.00295264)
(0.0897313 0.0252968 -0.00319943)
(0.0874219 0.024663 -0.00971416)
(0.0909715 0.0335155 0.0096345)
(0.089373 0.0329401 0.00295329)
(0.0874439 0.0322431 -0.00319257)
(0.0851916 0.0314278 -0.00970024)
(0.0880454 0.0405479 0.00962941)
(0.0864969 0.0398445 0.00295558)
(0.0846284 0.0389947 -0.00318353)
(0.0824479 0.0380011 -0.0096835)
(0.084589 0.0473395 0.00962537)
(0.0831005 0.0465116 0.00295879)
(0.0813047 0.0455136 -0.00317368)
(0.07921 0.0443472 -0.00966594)
(0.0806212 0.0538471 0.0096227)
(0.079202 0.0529006 0.00296236)
(0.07749 0.0517608 -0.00316434)
(0.0754938 0.0504295 -0.00964976)
(0.0761597 0.0600264 0.00962163)
(0.0748176 0.0589684 0.00296563)
(0.0731998 0.0576949 -0.00315691)
(0.071314 0.0562084 -0.00963725)
(0.0712225 0.0658323 0.00962192)
(0.0699657 0.0646708 0.00296778)
(0.0684522 0.0632724 -0.00315271)
(0.0666882 0.0616416 -0.00963038)
(0.0658324 0.0712225 0.00962192)
(0.0646709 0.0699657 0.00296778)
(0.0632724 0.0684522 -0.00315271)
(0.0616416 0.0666882 -0.00963038)
(0.0600264 0.0761597 0.00962162)
(0.0589685 0.0748176 0.00296562)
(0.0576949 0.0731998 -0.00315691)
(0.0562084 0.071314 -0.00963725)
(0.0538472 0.0806212 0.00962269)
(0.0529006 0.079202 0.00296235)
(0.0517608 0.07749 -0.00316434)
(0.0504296 0.0754938 -0.00964976)
(0.0473395 0.084589 0.00962536)
(0.0465116 0.0831005 0.00295878)
(0.0455136 0.0813047 -0.00317368)
(0.0443472 0.07921 -0.00966594)
(0.0405479 0.0880455 0.00962939)
(0.0398445 0.0864969 0.00295556)
(0.0389947 0.0846284 -0.00318354)
(0.0380011 0.0824479 -0.00968349)
(0.0335156 0.0909715 0.00963449)
(0.0329402 0.0893731 0.00295327)
(0.0322431 0.0874439 -0.00319257)
(0.0314278 0.0851916 -0.00970024)
(0.0262842 0.0933465 0.00964062)
(0.0258384 0.0917087 0.00295263)
(0.0252968 0.0897314 -0.00319944)
(0.024663 0.0874219 -0.00971416)
(0.0188951 0.0951496 0.00964846)
(0.0185791 0.0934832 0.00295496)
(0.0181944 0.0914702 -0.0032023)
(0.017744 0.0891184 -0.00972301)
(0.0113899 0.0963637 0.00965997)
(0.0112037 0.0946796 0.00296297)
(0.0109765 0.0926436 -0.00319799)
(0.0107121 0.0902639 -0.00972361)
(0.00381444 0.0969782 0.00967956)
(0.00375644 0.0952904 0.0029811)
(0.0036852 0.0932465 -0.0031811)
(0.00361072 0.090858 -0.00970937)
(0.107445 0.00422495 -0.00152354)
(0.10575 0.00416719 -0.00178824)
(0.103556 0.00409145 -0.00223613)
(0.100878 0.00400883 -0.00252176)
(0.106763 0.0126104 -0.00152251)
(0.105069 0.0124264 -0.00178624)
(0.102882 0.0121849 -0.00223275)
(0.100213 0.0118908 -0.00251641)
(0.105409 0.0209162 -0.00152443)
(0.103732 0.0206042 -0.00178529)
(0.10157 0.0201953 -0.00222918)
(0.0989314 0.0196943 -0.00250993)
(0.103397 0.0290904 -0.00152781)
(0.101748 0.02865 -0.00178415)
(0.0996237 0.0280744 -0.00222411)
(0.0970328 0.0273695 -0.00250055)
(0.100746 0.0370857 -0.00153223)
(0.0991358 0.0365166 -0.00178241)
(0.0970626 0.0357757 -0.00221712)
(0.0945357 0.0348693 -0.0024877)
(0.0974791 0.0448556 -0.00153728)
(0.0959176 0.0441588 -0.00177988)
(0.0939095 0.0432551 -0.00220824)
(0.091463 0.0421507 -0.00247154)
(0.0936199 0.0523544 -0.00154235)
(0.0921185 0.0515325 -0.00177655)
(0.0901887 0.0504702 -0.00219803)
(0.0878387 0.0491733 -0.00245316)
(0.089194 0.059537 -0.00154658)
(0.0877629 0.0585947 -0.0017727)
(0.085924 0.0573798 -0.00218766)
(0.0836857 0.055898 -0.00243485)
(0.0842267 0.0663584 -0.00154911)
(0.0828753 0.0653019 -0.00176898)
(0.0811393 0.0639422 -0.00217892)
(0.0790267 0.0622851 -0.00241973)
(0.0787438 0.0727746 -0.00154974)
(0.0774813 0.0716112 -0.00176648)
(0.0758598 0.0701155 -0.00217379)
(0.0738865 0.0682943 -0.00241107)
(0.0727746 0.0787438 -0.00154974)
(0.0716112 0.0774812 -0.00176648)
(0.0701155 0.0758598 -0.00217379)
(0.0682943 0.0738865 -0.00241107)
(0.0663584 0.0842267 -0.00154911)
(0.065302 0.0828753 -0.00176898)
(0.0639422 0.0811393 -0.00217892)
(0.0622852 0.0790267 -0.00241973)
(0.059537 0.0891941 -0.00154658)
(0.0585947 0.087763 -0.00177271)
(0.0573799 0.085924 -0.00218766)
(0.055898 0.0836857 -0.00243485)
(0.0523545 0.09362 -0.00154236)
(0.0515326 0.0921186 -0.00177656)
(0.0504703 0.0901887 -0.00219803)
(0.0491733 0.0878387 -0.00245316)
(0.0448556 0.0974792 -0.00153729)
(0.0441588 0.0959177 -0.00177989)
(0.0432551 0.0939095 -0.00220825)
(0.0421507 0.091463 -0.00247153)
(0.0370858 0.100747 -0.00153224)
(0.0365167 0.0991358 -0.00178242)
(0.0357757 0.0970627 -0.00221713)
(0.0348693 0.0945357 -0.0024877)
(0.0290905 0.103397 -0.00152783)
(0.02865 0.101748 -0.00178417)
(0.0280744 0.0996237 -0.00222412)
(0.0273695 0.0970329 -0.00250055)
(0.0209163 0.105409 -0.00152444)
(0.0206042 0.103732 -0.0017853)
(0.0201954 0.10157 -0.00222919)
(0.0196943 0.0989314 -0.00250993)
(0.0126104 0.106763 -0.00152253)
(0.0124264 0.105069 -0.00178625)
(0.0121849 0.102882 -0.00223276)
(0.0118908 0.100213 -0.0025164)
(0.00422496 0.107445 -0.00152356)
(0.00416719 0.10575 -0.00178826)
(0.00409145 0.103556 -0.00223614)
(0.00400883 0.100878 -0.00252176)
(0.0950052 0.00372228 -0.0112703)
(0.0934133 0.00367024 -0.00606634)
(0.0915105 0.00360531 -0.00151848)
(0.0893037 0.00353762 0.00348197)
(0.0943961 0.0111304 -0.0112525)
(0.0928067 0.0109605 -0.00604874)
(0.0909093 0.0107541 -0.00150033)
(0.0887102 0.0105158 0.00350029)
(0.0931914 0.0184678 -0.011244)
(0.0916175 0.0181793 -0.00603976)
(0.0897409 0.0178296 -0.00149123)
(0.0875675 0.017423 0.00350889)
(0.0914004 0.0256862 -0.0112397)
(0.0898523 0.0252791 -0.00603472)
(0.0880083 0.0247866 -0.00148567)
(0.0858736 0.0242141 0.00351469)
(0.0890385 0.0327421 -0.0112377)
(0.087526 0.0322164 -0.00603113)
(0.0857265 0.0315821 -0.0014808)
(0.0836441 0.0308458 0.00352076)
(0.0861257 0.0395937 -0.0112371)
(0.0846592 0.0389501 -0.00602774)
(0.082916 0.0381759 -0.00147524)
(0.0808998 0.0372781 0.0035287)
(0.0826854 0.0462011 -0.0112373)
(0.0812755 0.0454415 -0.00602406)
(0.0796008 0.0445305 -0.00146865)
(0.0776645 0.0434748 0.00353871)
(0.0787436 0.0525266 -0.0112375)
(0.0774008 0.0516542 -0.00602013)
(0.0758064 0.0506108 -0.00146158)
(0.0739633 0.0494026 0.00354966)
(0.0743279 0.0585345 -0.0112373)
(0.0730624 0.0575541 -0.00601648)
(0.0715593 0.056384 -0.00145533)
(0.069822 0.0550301 0.0035593)
(0.069467 0.0641916 -0.0112367)
(0.0682883 0.0631088 -0.00601411)
(0.0668873 0.0618192 -0.00145157)
(0.0652676 0.0603277 0.00356504)
(0.0641917 0.069467 -0.0112367)
(0.0631088 0.0682883 -0.00601412)
(0.0618193 0.0668873 -0.00145157)
(0.0603277 0.0652676 0.00356504)
(0.0585346 0.0743279 -0.0112373)
(0.0575541 0.0730623 -0.00601648)
(0.0563841 0.0715593 -0.00145533)
(0.0550301 0.069822 0.0035593)
(0.0525267 0.0787437 -0.0112375)
(0.0516543 0.0774009 -0.00602013)
(0.0506108 0.0758064 -0.00146158)
(0.0494026 0.0739633 0.00354966)
(0.0462012 0.0826855 -0.0112373)
(0.0454416 0.0812755 -0.00602407)
(0.0445305 0.0796008 -0.00146865)
(0.0434749 0.0776645 0.00353871)
(0.0395938 0.0861258 -0.0112371)
(0.0389502 0.0846592 -0.00602775)
(0.038176 0.082916 -0.00147525)
(0.0372781 0.0808998 0.0035287)
(0.0327422 0.0890387 -0.0112377)
(0.0322165 0.0875261 -0.00603114)
(0.0315822 0.0857265 -0.00148081)
(0.0308458 0.0836441 0.00352076)
(0.0256863 0.0914006 -0.0112397)
(0.0252791 0.0898524 -0.00603473)
(0.0247866 0.0880084 -0.00148568)
(0.0242141 0.0858736 0.00351469)
(0.0184679 0.0931916 -0.011244)
(0.0181793 0.0916176 -0.00603977)
(0.0178297 0.089741 -0.00149124)
(0.017423 0.0875675 0.00350889)
(0.0111304 0.0943963 -0.0112525)
(0.0109605 0.0928068 -0.00604876)
(0.0107541 0.0909094 -0.00150034)
(0.0105158 0.0887102 0.0035003)
(0.0037223 0.0950054 -0.0112704)
(0.00367024 0.0934134 -0.00606636)
(0.00360532 0.0915105 -0.00151849)
(0.00353762 0.0893038 0.00348197)
(0.0710131 0.00276568 -0.0158179)
(0.0695795 0.00272066 -0.00831781)
(0.0681606 0.00267282 -0.00147694)
(0.0667497 0.00262983 0.00575183)
(0.0705515 0.00829871 -0.0157958)
(0.0691228 0.0081469 -0.00829684)
(0.0677089 0.00799566 -0.00145661)
(0.0663044 0.00784767 0.00577037)
(0.0696469 0.0137799 -0.0157816)
(0.0682326 0.0135214 -0.00828487)
(0.0668341 0.0132648 -0.00144699)
(0.0654459 0.0130115 0.00577658)
(0.0683024 0.0191711 -0.0157711)
(0.0669115 0.0188067 -0.00827771)
(0.065537 0.0184449 -0.00144282)
(0.0641731 0.0180874 0.0057771)
(0.0665282 0.0244384 -0.0157626)
(0.0651693 0.0239687 -0.00827276)
(0.0638276 0.0235025 -0.00144102)
(0.0624966 0.0230419 0.00577515)
(0.0643385 0.0295501 -0.0157552)
(0.0630208 0.0289759 -0.00826869)
(0.0617209 0.0284064 -0.00143984)
(0.0604318 0.0278438 0.00577292)
(0.0617516 0.0344767 -0.0157487)
(0.0604848 0.0337994 -0.00826491)
(0.0592361 0.0331284 -0.00143838)
(0.0579981 0.0324653 0.00577167)
(0.058789 0.0391912 -0.0157431)
(0.0575829 0.0384132 -0.00826133)
(0.0563947 0.0376432 -0.00143649)
(0.055217 0.0368821 0.00577169)
(0.0554742 0.0436694 -0.0157388)
(0.0543387 0.042794 -0.00825831)
(0.05322 0.0419288 -0.00143455)
(0.0521117 0.0410729 0.00577253)
(0.0518324 0.0478896 -0.0157361)
(0.0507766 0.0469214 -0.00825647)
(0.049736 0.0459656 -0.00143329)
(0.0487052 0.0450194 0.00577329)
(0.0478897 0.0518323 -0.0157361)
(0.0469214 0.0507766 -0.00825647)
(0.0459656 0.0497359 -0.00143329)
(0.0450194 0.0487051 0.00577329)
(0.0436695 0.0554742 -0.0157388)
(0.0427941 0.0543387 -0.00825831)
(0.0419288 0.05322 -0.00143455)
(0.0410729 0.0521117 0.00577253)
(0.0391913 0.058789 -0.0157431)
(0.0384133 0.057583 -0.00826134)
(0.0376433 0.0563947 -0.00143649)
(0.0368821 0.055217 0.0057717)
(0.0344768 0.0617517 -0.0157487)
(0.0337995 0.0604849 -0.00826491)
(0.0331284 0.0592361 -0.00143839)
(0.0324653 0.0579981 0.00577167)
(0.0295502 0.0643386 -0.0157552)
(0.028976 0.0630209 -0.0082687)
(0.0284064 0.061721 -0.00143984)
(0.0278438 0.0604318 0.00577292)
(0.0244385 0.0665283 -0.0157626)
(0.0239687 0.0651693 -0.00827277)
(0.0235025 0.0638276 -0.00144103)
(0.0230419 0.0624966 0.00577515)
(0.0191712 0.0683026 -0.0157712)
(0.0188067 0.0669115 -0.00827772)
(0.0184449 0.065537 -0.00144283)
(0.0180874 0.0641731 0.00577711)
(0.01378 0.0696471 -0.0157816)
(0.0135214 0.0682327 -0.00828488)
(0.0132649 0.0668341 -0.001447)
(0.0130115 0.0654459 0.00577659)
(0.00829875 0.0705517 -0.0157958)
(0.00814692 0.0691229 -0.00829685)
(0.00799568 0.067709 -0.00145662)
(0.00784767 0.0663044 0.00577037)
(0.00276569 0.0710133 -0.0158179)
(0.00272066 0.0695796 -0.00831783)
(0.00267283 0.0681607 -0.00147695)
(0.00262984 0.0667498 0.00575183)
(0.0478156 0.00184917 -0.0153993)
(0.0465467 0.00180978 -0.00847621)
(0.0455478 0.00177619 -0.00193616)
(0.0448009 0.0017535 0.00475382)
(0.0474997 0.00557329 -0.015383)
(0.046238 0.00543795 -0.00846149)
(0.0452445 0.00533262 -0.00192291)
(0.0445028 0.00525763 0.00476431)
(0.0468906 0.00926418 -0.0153695)
(0.0456423 0.00903323 -0.00845158)
(0.0446597 0.00885428 -0.00191655)
(0.0439267 0.00872514 0.0047662)
(0.0459865 0.0128948 -0.0153575)
(0.0447594 0.0125697 -0.00844484)
(0.0437935 0.0123172 -0.00191458)
(0.0430728 0.0121342 0.0047628)
(0.0447928 0.0164418 -0.0153462)
(0.0435944 0.0160238 -0.00843991)
(0.0426513 0.0156983 -0.00191516)
(0.0419473 0.0154617 0.00475603)
(0.0433183 0.0198836 -0.0153355)
(0.0421565 0.0193738 -0.00843595)
(0.0412424 0.0189761 -0.00191701)
(0.0405598 0.0186861 0.00474766)
(0.0415749 0.0232001 -0.0153255)
(0.0404577 0.0226001 -0.00843259)
(0.0395793 0.0221311 -0.00191917)
(0.0389234 0.021788 0.00473925)
(0.0395771 0.0263736 -0.0153168)
(0.0385131 0.0256853 -0.00842973)
(0.0376771 0.0251466 -0.00192107)
(0.0370534 0.0247508 0.00473199)
(0.0373416 0.0293882 -0.0153102)
(0.0363394 0.0286144 -0.00842753)
(0.0355526 0.028008 -0.00192238)
(0.0349664 0.0275608 0.00472673)
(0.0348863 0.0322299 -0.0153064)
(0.0339541 0.0313745 -0.00842627)
(0.0332228 0.0307037 -0.00192303)
(0.0326792 0.0302068 0.00472398)
(0.03223 0.0348863 -0.0153065)
(0.0313745 0.0339541 -0.00842627)
(0.0307037 0.0332227 -0.00192303)
(0.0302069 0.0326792 0.00472398)
(0.0293882 0.0373416 -0.0153102)
(0.0286144 0.0363394 -0.00842753)
(0.0280081 0.0355526 -0.00192238)
(0.0275608 0.0349664 0.00472673)
(0.0263737 0.0395772 -0.0153168)
(0.0256854 0.0385132 -0.00842973)
(0.0251466 0.0376771 -0.00192107)
(0.0247509 0.0370534 0.00473199)
(0.0232003 0.041575 -0.0153255)
(0.0226002 0.0404578 -0.00843259)
(0.0221312 0.0395793 -0.00191918)
(0.021788 0.0389234 0.00473925)
(0.0198837 0.0433185 -0.0153355)
(0.0193739 0.0421565 -0.00843596)
(0.0189762 0.0412424 -0.00191701)
(0.0186861 0.0405598 0.00474767)
(0.0164419 0.044793 -0.0153462)
(0.0160239 0.0435945 -0.00843991)
(0.0156984 0.0426514 -0.00191517)
(0.0154617 0.0419473 0.00475603)
(0.0128949 0.0459867 -0.0153575)
(0.0125698 0.0447595 -0.00844485)
(0.0123172 0.0437936 -0.00191458)
(0.0121342 0.0430728 0.00476281)
(0.00926425 0.0468908 -0.0153695)
(0.00903327 0.0456424 -0.00845159)
(0.00885431 0.0446598 -0.00191656)
(0.00872515 0.0439267 0.0047662)
(0.00557334 0.0474999 -0.015383)
(0.00543798 0.0462381 -0.0084615)
(0.00533264 0.0452446 -0.00192291)
(0.00525764 0.0445029 0.00476432)
(0.00184918 0.0478158 -0.0153993)
(0.00180979 0.0465468 -0.00847623)
(0.0017762 0.0455479 -0.00193617)
(0.0017535 0.0448009 0.00475382)
(0.0315186 0.0012125 -0.0123898)
(0.0304154 0.00117767 -0.00736729)
(0.0296781 0.00115248 -0.00244985)
(0.0292846 0.00114024 0.00241293)
(0.0313076 0.00366846 -0.0123825)
(0.0302124 0.00354874 -0.00736145)
(0.0294809 0.00347032 -0.00244563)
(0.029092 0.00343207 0.0024146)
(0.0309088 0.00610389 -0.0123734)
(0.029826 0.00589947 -0.00735592)
(0.0291027 0.00576623 -0.00244347)
(0.0287183 0.00570001 0.00241294)
(0.0303182 0.00850067 -0.012364)
(0.0292544 0.00821341 -0.00735135)
(0.0285434 0.00802546 -0.00244339)
(0.0281652 0.00793106 0.00240821)
(0.0295383 0.0108435 -0.0123543)
(0.0284999 0.0104749 -0.00734764)
(0.0278057 0.0102329 -0.00244502)
(0.0274357 0.0101104 0.00240085)
(0.0285739 0.0131178 -0.0123447)
(0.0275674 0.0126695 -0.00734461)
(0.0268943 0.0123742 -0.00244777)
(0.0265351 0.0122237 0.00239184)
(0.0274317 0.0153103 -0.0123356)
(0.0264639 0.014784 -0.00734211)
(0.0258166 0.0144362 -0.002451)
(0.0254709 0.0142576 0.00238237)
(0.0261205 0.0174086 -0.0123276)
(0.0251982 0.0168064 -0.00734012)
(0.0245817 0.0164073 -0.00245407)
(0.0242526 0.0162006 0.00237374)
(0.0246504 0.0194018 -0.0123215)
(0.0237807 0.0187263 -0.00733868)
(0.0231998 0.0182775 -0.00245645)
(0.0228905 0.018043 0.00236714)
(0.0230329 0.0212796 -0.012318)
(0.0222224 0.0205344 -0.00733788)
(0.0216819 0.0200382 -0.00245774)
(0.0213954 0.019777 0.00236357)
(0.0212797 0.0230328 -0.012318)
(0.0205345 0.0222224 -0.00733788)
(0.0200383 0.0216819 -0.00245774)
(0.019777 0.0213954 0.00236357)
(0.0194019 0.0246504 -0.0123215)
(0.0187263 0.0237807 -0.00733868)
(0.0182775 0.0231998 -0.00245645)
(0.0180431 0.0228905 0.00236714)
(0.0174088 0.0261205 -0.0123276)
(0.0168065 0.0251982 -0.00734013)
(0.0164074 0.0245817 -0.00245407)
(0.0162006 0.0242526 0.00237374)
(0.0153104 0.0274318 -0.0123356)
(0.0147841 0.0264639 -0.00734212)
(0.0144363 0.0258166 -0.002451)
(0.0142576 0.0254709 0.00238238)
(0.013118 0.028574 -0.0123447)
(0.0126696 0.0275675 -0.00734461)
(0.0123743 0.0268943 -0.00244777)
(0.0122237 0.0265351 0.00239184)
(0.0108436 0.0295385 -0.0123543)
(0.010475 0.0285 -0.00734765)
(0.0102329 0.0278057 -0.00244502)
(0.0101104 0.0274357 0.00240085)
(0.00850077 0.0303184 -0.012364)
(0.00821347 0.0292545 -0.00735136)
(0.0080255 0.0285435 -0.0024434)
(0.00793108 0.0281652 0.00240821)
(0.00610396 0.0309091 -0.0123735)
(0.00589952 0.0298261 -0.00735593)
(0.00576626 0.0291027 -0.00244347)
(0.00570003 0.0287183 0.00241295)
(0.00366851 0.0313079 -0.0123825)
(0.00354877 0.0302126 -0.00736146)
(0.00347034 0.029481 -0.00244563)
(0.00343208 0.029092 0.0024146)
(0.00121252 0.0315189 -0.0123898)
(0.00117768 0.0304156 -0.0073673)
(0.00115248 0.0296781 -0.00244985)
(0.00114025 0.0292846 0.00241293)
(0.0222132 0.000854346 -0.00903523)
(0.0212805 0.000824078 -0.00588772)
(0.0206804 0.000803021 -0.00269976)
(0.0203931 0.000793586 0.00034505)
(0.0220641 0.00258772 -0.00903456)
(0.0211388 0.00248459 -0.00588828)
(0.0205443 0.00241921 -0.00270163)
(0.020261 0.00239002 0.000341491)
(0.0217863 0.00430719 -0.00903052)
(0.0208717 0.0041312 -0.00588676)
(0.0202842 0.00402026 -0.00270248)
(0.0200042 0.00396997 0.000338209)
(0.0213754 0.00600035 -0.0090252)
(0.0204775 0.00575333 -0.0058847)
(0.0199002 0.00559709 -0.00270351)
(0.0196248 0.00552549 0.000334055)
(0.020833 0.00765665 -0.00901928)
(0.0199571 0.00734024 -0.00588268)
(0.0193935 0.00713949 -0.00270516)
(0.0191241 0.00704682 0.000328665)
(0.0201616 0.00926583 -0.00901317)
(0.019313 0.00888178 -0.0058809)
(0.0187666 0.00863745 -0.00270739)
(0.018505 0.00852398 0.000322296)
(0.0193651 0.0108181 -0.00900727)
(0.0185491 0.0103683 -0.00587942)
(0.0180236 0.0100815 -0.00270992)
(0.0177716 0.00994742 0.000315591)
(0.0184485 0.0123042 -0.00900204)
(0.0176707 0.0117909 -0.00587824)
(0.0171697 0.0114627 -0.00271233)
(0.0169293 0.0113084 0.000309399)
(0.017418 0.0137154 -0.00899799)
(0.0166836 0.0131412 -0.00587737)
(0.0162109 0.0127732 -0.00271421)
(0.0159843 0.0125991 0.000304623)
(0.0162805 0.0150435 -0.00899564)
(0.0155949 0.0144116 -0.00587686)
(0.015154 0.0140059 -0.00271523)
(0.0149433 0.0138128 0.000302022)
(0.0150436 0.0162805 -0.00899564)
(0.0144117 0.0155948 -0.00587686)
(0.0140059 0.015154 -0.00271523)
(0.0138128 0.0149432 0.000302022)
(0.0137155 0.017418 -0.00899799)
(0.0131413 0.0166836 -0.00587737)
(0.0127733 0.0162109 -0.00271421)
(0.0125992 0.0159843 0.000304624)
(0.0123043 0.0184486 -0.00900205)
(0.011791 0.0176707 -0.00587824)
(0.0114628 0.0171697 -0.00271233)
(0.0113084 0.0169293 0.000309402)
(0.0108182 0.0193652 -0.00900728)
(0.0103684 0.0185492 -0.00587943)
(0.0100815 0.0180237 -0.00270992)
(0.00994746 0.0177716 0.000315593)
(0.00926597 0.0201618 -0.00901318)
(0.00888188 0.0193131 -0.00588091)
(0.00863752 0.0187667 -0.00270739)
(0.00852402 0.018505 0.0003223)
(0.00765678 0.0208332 -0.00901929)
(0.00734033 0.0199572 -0.00588268)
(0.00713955 0.0193935 -0.00270516)
(0.00704685 0.0191241 0.000328669)
(0.00600046 0.0213757 -0.00902521)
(0.0057534 0.0204776 -0.0058847)
(0.00559713 0.0199002 -0.00270351)
(0.00552552 0.0196248 0.000334059)
(0.00430728 0.0217865 -0.00903054)
(0.00413126 0.0208719 -0.00588677)
(0.00402029 0.0202842 -0.00270248)
(0.00396999 0.0200043 0.000338214)
(0.00258777 0.0220644 -0.00903458)
(0.00248463 0.0211389 -0.00588829)
(0.00241923 0.0205443 -0.00270163)
(0.00239003 0.0202611 0.000341495)
(0.000854364 0.0222135 -0.00903524)
(0.00082409 0.0212807 -0.00588773)
(0.000803029 0.0206804 -0.00269976)
(0.00079359 0.0203931 0.000345054)
(0.0173608 0.000670583 -0.0064569)
(0.0165957 0.000645162 -0.00457195)
(0.0160756 0.000626537 -0.00262183)
(0.0157855 0.000616722 -0.000810263)
(0.0172452 0.00202755 -0.0064592)
(0.016486 0.00194176 -0.00457515)
(0.0159708 0.0018838 -0.00262586)
(0.0156842 0.00185238 -0.000815137)
(0.0170299 0.0033735 -0.00645859)
(0.0162797 0.00322722 -0.00457598)
(0.0157707 0.00312905 -0.00262801)
(0.0154875 0.00307536 -0.000818451)
(0.0167116 0.00469914 -0.00645679)
(0.0159753 0.00449399 -0.00457576)
(0.0154754 0.00435597 -0.0026294)
(0.015197 0.00428001 -0.000821333)
(0.0162914 0.00599647 -0.00645439)
(0.0155735 0.00573399 -0.00457517)
(0.0150857 0.00555699 -0.00263065)
(0.0148138 0.00545919 -0.000824326)
(0.0157711 0.00725748 -0.00645175)
(0.0150758 0.00693935 -0.0045745)
(0.0146032 0.00672444 -0.00263197)
(0.0143395 0.00660536 -0.000827547)
(0.0151532 0.00847434 -0.0064491)
(0.014485 0.00810243 -0.00457385)
(0.0140305 0.00785079 -0.00263332)
(0.0137766 0.00771105 -0.00083082)
(0.0144413 0.00963944 -0.00644667)
(0.0138041 0.00921587 -0.00457327)
(0.0133707 0.00892884 -0.00263455)
(0.0131284 0.00876914 -0.000833792)
(0.0136394 0.0107455 -0.00644469)
(0.0130375 0.0102726 -0.00457278)
(0.0126281 0.00995178 -0.00263546)
(0.0123992 0.00977293 -0.000836054)
(0.0127523 0.0117853 -0.00644346)
(0.0121897 0.011266 -0.00457245)
(0.0118072 0.0109132 -0.00263592)
(0.0115935 0.0107163 -0.000837269)
(0.0117854 0.0127522 -0.00644346)
(0.0112661 0.0121896 -0.00457245)
(0.0109133 0.0118072 -0.00263592)
(0.0107163 0.0115935 -0.000837268)
(0.0107456 0.0136394 -0.00644469)
(0.0102727 0.0130375 -0.00457278)
(0.00995184 0.0126281 -0.00263546)
(0.00977297 0.0123992 -0.000836053)
(0.00963959 0.0144413 -0.00644667)
(0.00921598 0.0138042 -0.00457327)
(0.00892891 0.0133707 -0.00263455)
(0.00876918 0.0131284 -0.000833791)
(0.00847449 0.0151534 -0.00644911)
(0.00810254 0.014485 -0.00457385)
(0.00785086 0.0140305 -0.00263332)
(0.0077111 0.0137766 -0.000830818)
(0.00725763 0.0157713 -0.00645176)
(0.00693946 0.0150759 -0.0045745)
(0.0067245 0.0146033 -0.00263197)
(0.0066054 0.0143395 -0.000827545)
(0.00599661 0.0162916 -0.0064544)
(0.00573408 0.0155736 -0.00457518)
(0.00555705 0.0150858 -0.00263066)
(0.00545923 0.0148138 -0.000824324)