/*--------------------------------*- C++ -*----------------------------------*\
| =========                 |                                                 |
| \\      /  F ield         | foam-extend: Open Source CFD                    |
|  \\    /   O peration     | Version:     3.1                                |
|   \\  /    A nd           | Web:         http://www.extend-project.de       |
|    \\/     M anipulation  |                                                 |
\*---------------------------------------------------------------------------*/
FoamFile
{
    version     2.0;
    format      ascii;
    class       regIOobject;
    location    "2.4/uniform";
    object      profilingInfo;
}
// * * * * * * * * * * * * * * * * * * * * * * * * * * * * * * * * * * * * * //

profilingInfo
(

    {
        id              23;
        parentId        22;
        description     "Foam::Time::writeObject - outputTime";
        calls           24;
        totalTime       6.57808;
        childTime       0;
        onStack         1;
    }

    {
        id              22;
        parentId        1;
        description     "Foam::Time::writeObject";
        calls           24;
        totalTime       6.57824;
        childTime       6.57808;
        onStack         1;
    }

    {
        id              1;
        description     "application::main";
        calls           1;
        totalTime       234.373;
        childTime       52.7436;
        onStack         1;
    }

    {
        id              25;
        parentId        24;
        description     "FO::beamReport::execute";
        calls           23;
        totalTime       0.00048;
        childTime       0;
        onStack         0;
    }

    {
        id              27;
        parentId        24;
        description     "FO::forces::execute";
        calls           23;
        totalTime       0.06403;
        childTime       0;
        onStack         0;
    }

    {
        id              26;
        parentId        24;
        description     "FO::setInletVelocity::execute";
        calls           23;
        totalTime       0.000425;
        childTime       0;
        onStack         0;
    }

    {
        id              3;
        parentId        2;
        description     "functionObjectList::read";
        calls           1;
        totalTime       0.233355;
        childTime       0;
        onStack         0;
    }

    {
        id              24;
        parentId        1;
        description     "functionObjects_.execute()";
        calls           23;
        totalTime       0.065115;
        childTime       0.064935;
        onStack         0;
    }

    {
        id              2;
        parentId        1;
        description     "functionObjects_.start()";
        calls           1;
        totalTime       0.233375;
        childTime       0.233355;
        onStack         0;
    }

    {
        id              18;
        parentId        1;
        description     "fvMatrix::solve_D";
        calls           73605;
        totalTime       14.0102;
        childTime       9.11983;
        onStack         0;
    }

    {
        id              11;
        parentId        1;
        description     "fvMatrix::solve_U";
        calls           281;
        totalTime       2.25787;
        childTime       2.08944;
        onStack         0;
    }

    {
        id              4;
        parentId        1;
        description     "fvMatrix::solve_cellMotionU";
        calls           562;
        totalTime       15.7562;
        childTime       15.3526;
        onStack         0;
    }

    {
        id              15;
        parentId        1;
        description     "fvMatrix::solve_p";
        calls           1686;
        totalTime       13.8427;
        childTime       13.4922;
        onStack         0;
    }

    {
        id              19;
        parentId        18;
        description     "lduMatrix::solver_Dx";
        calls           73605;
        totalTime       4.4608;
        childTime       0;
        onStack         0;
    }

    {
        id              20;
        parentId        18;
        description     "lduMatrix::solver_Dy";
        calls           73605;
        totalTime       2.33392;
        childTime       0;
        onStack         0;
    }

    {
        id              21;
        parentId        18;
        description     "lduMatrix::solver_Dz";
        calls           73605;
        totalTime       2.32511;
        childTime       0;
        onStack         0;
    }

    {
        id              12;
        parentId        11;
        description     "lduMatrix::solver_Ux";
        calls           281;
        totalTime       0.683439;
        childTime       0;
        onStack         0;
    }

    {
        id              13;
        parentId        11;
        description     "lduMatrix::solver_Uy";
        calls           281;
        totalTime       0.720282;
        childTime       0;
        onStack         0;
    }

    {
        id              14;
        parentId        11;
        description     "lduMatrix::solver_Uz";
        calls           281;
        totalTime       0.685715;
        childTime       0;
        onStack         0;
    }

    {
        id              5;
        parentId        4;
        description     "lduMatrix::solver_cellMotionUx";
        calls           562;
        totalTime       5.5782;
        childTime       0.039835;
        onStack         0;
    }

    {
        id              7;
        parentId        4;
        description     "lduMatrix::solver_cellMotionUy";
        calls           562;
        totalTime       4.55411;
        childTime       0.029228;
        onStack         0;
    }

    {
        id              9;
        parentId        4;
        description     "lduMatrix::solver_cellMotionUz";
        calls           562;
        totalTime       5.22024;
        childTime       0.032647;
        onStack         0;
    }

    {
        id              6;
        parentId        5;
        description     "lduMatrix::solver_coarsestLevelCorr";
        calls           2414;
        totalTime       0.039835;
        childTime       0;
        onStack         0;
    }

    {
        id              8;
        parentId        7;
        description     "lduMatrix::solver_coarsestLevelCorr";
        calls           1966;
        totalTime       0.029228;
        childTime       0;
        onStack         0;
    }

    {
        id              10;
        parentId        9;
        description     "lduMatrix::solver_coarsestLevelCorr";
        calls           2285;
        totalTime       0.032647;
        childTime       0;
        onStack         0;
    }

    {
        id              17;
        parentId        16;
        description     "lduMatrix::solver_coarsestLevelCorr";
        calls           5735;
        totalTime       0.129495;
        childTime       0;
        onStack         0;
    }

    {
        id              16;
        parentId        15;
        description     "lduMatrix::solver_p";
        calls           1686;
        totalTime       13.4922;
        childTime       0.129495;
        onStack         0;
    }
);


// ************************************************************************* //
