/*--------------------------------*- C++ -*----------------------------------*\
| =========                 |                                                 |
| \\      /  F ield         | foam-extend: Open Source CFD                    |
|  \\    /   O peration     | Version:     3.1                                |
|   \\  /    A nd           | Web:         http://www.extend-project.de       |
|    \\/     M anipulation  |                                                 |
\*---------------------------------------------------------------------------*/
FoamFile
{
    version     2.0;
    format      ascii;
    class       volVectorField;
    location    "0.0006";
    object      cellMotionU;
}
// * * * * * * * * * * * * * * * * * * * * * * * * * * * * * * * * * * * * * //

dimensions      [0 1 -1 0 0 0 0];

internalField   nonuniform List<vector> 
16000
(
(2.15064e-09 1.54846e-09 1.49943e-08)
(6.42316e-09 1.47546e-09 1.57818e-08)
(1.05796e-08 1.38667e-09 1.73561e-08)
(1.46872e-08 1.29958e-09 1.97646e-08)
(1.87912e-08 1.21391e-09 2.31078e-08)
(2.28791e-08 1.13531e-09 2.75287e-08)
(2.6857e-08 1.06065e-09 3.31937e-08)
(3.05192e-08 9.83093e-10 4.0274e-08)
(3.34828e-08 8.92975e-10 4.88885e-08)
(3.5105e-08 7.68156e-10 5.90478e-08)
(2.03644e-09 4.60492e-09 1.57865e-08)
(6.15627e-09 4.44776e-09 1.65443e-08)
(1.02566e-08 4.20214e-09 1.80699e-08)
(1.43192e-08 3.94199e-09 2.0414e-08)
(1.83738e-08 3.69051e-09 2.36776e-08)
(2.24135e-08 3.45317e-09 2.79921e-08)
(2.63434e-08 3.2308e-09 3.3505e-08)
(2.99808e-08 3.00901e-09 4.037e-08)
(3.29949e-08 2.74607e-09 4.86395e-08)
(3.48846e-08 2.38169e-09 5.81952e-08)
(1.89931e-09 7.55765e-09 1.73756e-08)
(5.75361e-09 7.36455e-09 1.80788e-08)
(9.66199e-09 7.02062e-09 1.95161e-08)
(1.36144e-08 6.59691e-09 2.17375e-08)
(1.75635e-08 6.17852e-09 2.48402e-08)
(2.14902e-08 5.78969e-09 2.89485e-08)
(2.53232e-08 5.42993e-09 3.42018e-08)
(2.88823e-08 5.07831e-09 4.0686e-08)
(3.18851e-08 4.67382e-09 4.83849e-08)
(3.39725e-08 4.11624e-09 5.7105e-08)
(1.73245e-09 1.0471e-08 1.98036e-08)
(5.27852e-09 1.02254e-08 2.04389e-08)
(8.90254e-09 9.79234e-09 2.17464e-08)
(1.26205e-08 9.22993e-09 2.37912e-08)
(1.64057e-08 8.63279e-09 2.66735e-08)
(2.01716e-08 8.07975e-09 3.05018e-08)
(2.38276e-08 7.5882e-09 3.53931e-08)
(2.72205e-08 7.12324e-09 4.14131e-08)
(3.00852e-08 6.61264e-09 4.84821e-08)
(3.21046e-08 5.92794e-09 5.6358e-08)
(1.54849e-09 1.3379e-08 2.31665e-08)
(4.73929e-09 1.30656e-08 2.37189e-08)
(8.04188e-09 1.24942e-08 2.48552e-08)
(1.14498e-08 1.17694e-08 2.66673e-08)
(1.49598e-08 1.09882e-08 2.92606e-08)
(1.85079e-08 1.02435e-08 3.27475e-08)
(2.19458e-08 9.6005e-09 3.72325e-08)
(2.50813e-08 9.03832e-09 4.27472e-08)
(2.76671e-08 8.45752e-09 4.91974e-08)
(2.93699e-08 7.71126e-09 5.63109e-08)
(1.35195e-09 1.62928e-08 2.7602e-08)
(4.14902e-09 1.58766e-08 2.80389e-08)
(7.08274e-09 1.51119e-08 2.89539e-08)
(1.01515e-08 1.41456e-08 3.04685e-08)
(1.33252e-08 1.31297e-08 3.27065e-08)
(1.65631e-08 1.21752e-08 3.58005e-08)
(1.97457e-08 1.13499e-08 3.98395e-08)
(2.26032e-08 1.06717e-08 4.48315e-08)
(2.48185e-08 1.00489e-08 5.06859e-08)
(2.60696e-08 9.29267e-09 5.71069e-08)
(1.13982e-09 1.91861e-08 3.3278e-08)
(3.51224e-09 1.86123e-08 3.35449e-08)
(6.03978e-09 1.75757e-08 3.41722e-08)
(8.73393e-09 1.62701e-08 3.52984e-08)
(1.15587e-08 1.49197e-08 3.7107e-08)
(1.44427e-08 1.36939e-08 3.97318e-08)
(1.72849e-08 1.26682e-08 4.32721e-08)
(1.98683e-08 1.1849e-08 4.77327e-08)
(2.17468e-08 1.11756e-08 5.2982e-08)
(2.25487e-08 1.0433e-08 5.87078e-08)
(9.0796e-10 2.19832e-08 4.03785e-08)
(2.8219e-09 2.11757e-08 4.03942e-08)
(4.90539e-09 1.97429e-08 4.05872e-08)
(7.18488e-09 1.79721e-08 4.11986e-08)
(9.64099e-09 1.61689e-08 4.24639e-08)
(1.21952e-08 1.45665e-08 4.45478e-08)
(1.47022e-08 1.32866e-08 4.75226e-08)
(1.69686e-08 1.23187e-08 5.13974e-08)
(1.86029e-08 1.15845e-08 5.59398e-08)
(1.90848e-08 1.08456e-08 6.09217e-08)
(6.5093e-10 2.45326e-08 4.90606e-08)
(2.0501e-09 2.33764e-08 4.86555e-08)
(3.64361e-09 2.13729e-08 4.81759e-08)
(5.46748e-09 1.89786e-08 4.80731e-08)
(7.51913e-09 1.65982e-08 4.86661e-08)
(9.73651e-09 1.45218e-08 5.01238e-08)
(1.19805e-08 1.29069e-08 5.24765e-08)
(1.40036e-08 1.17739e-08 5.56456e-08)
(1.5463e-08 1.10044e-08 5.93616e-08)
(1.5805e-08 1.02745e-08 6.34751e-08)
(3.50337e-10 2.65966e-08 5.94292e-08)
(1.1556e-09 2.48938e-08 5.82454e-08)
(2.18698e-09 2.20969e-08 5.67317e-08)
(3.49832e-09 1.89017e-08 5.5651e-08)
(5.09948e-09 1.5827e-08 5.54162e-08)
(6.95131e-09 1.31982e-08 5.61623e-08)
(8.9401e-09 1.11995e-08 5.78335e-08)
(1.08319e-08 9.891e-09 6.02458e-08)
(1.22664e-08 9.15769e-09 6.30917e-08)
(1.27604e-08 8.6307e-09 6.60323e-08)
(6.26911e-09 4.49779e-09 3.91547e-08)
(1.87401e-08 4.28903e-09 4.12436e-08)
(3.09262e-08 4.03751e-09 4.54232e-08)
(4.30688e-08 3.79504e-09 5.18281e-08)
(5.53681e-08 3.5625e-09 6.07441e-08)
(6.78947e-08 3.35925e-09 7.2592e-08)
(8.05473e-08 3.18064e-09 8.78978e-08)
(9.30021e-08 3.01371e-09 1.07283e-07)
(1.04584e-07 2.84176e-09 1.31387e-07)
(1.14123e-07 2.61917e-09 1.60854e-07)
(5.93939e-09 1.33925e-08 4.12679e-08)
(1.79712e-08 1.29451e-08 4.32776e-08)
(2.99986e-08 1.22503e-08 4.73284e-08)
(4.20137e-08 1.15257e-08 5.35636e-08)
(5.41706e-08 1.08445e-08 6.22714e-08)
(6.65516e-08 1.02311e-08 7.38412e-08)
(7.90426e-08 9.70172e-09 8.8746e-08)
(9.13656e-08 9.23628e-09 1.07552e-07)
(1.02934e-07 8.74471e-09 1.30687e-07)
(1.12828e-07 8.10069e-09 1.58347e-07)
(5.54585e-09 2.20372e-08 4.55088e-08)
(1.68155e-08 2.14901e-08 4.73743e-08)
(2.82938e-08 2.05206e-08 5.11922e-08)
(3.99967e-08 1.93395e-08 5.71059e-08)
(5.18498e-08 1.82048e-08 6.53936e-08)
(6.38954e-08 1.72022e-08 7.64269e-08)
(7.6076e-08 1.63539e-08 9.06547e-08)
(8.80849e-08 1.56337e-08 1.08451e-07)
(9.94073e-08 1.4915e-08 1.30028e-07)
(1.09403e-07 1.39808e-08 1.55296e-07)
(5.0694e-09 3.06629e-08 5.19963e-08)
(1.54604e-08 2.99663e-08 5.36831e-08)
(2.6128e-08 2.87458e-08 5.71614e-08)
(3.71636e-08 2.71779e-08 6.26145e-08)
(4.85521e-08 2.55523e-08 7.0331e-08)
(6.01307e-08 2.41212e-08 8.06416e-08)
(7.17734e-08 2.29692e-08 9.39368e-08)
(8.3232e-08 2.2043e-08 1.10533e-07)
(9.39926e-08 2.12005e-08 1.30458e-07)
(1.03468e-07 2.01669e-08 1.5346e-07)
(4.54852e-09 3.94325e-08 6.10022e-08)
(1.39352e-08 3.85395e-08 6.24728e-08)
(2.36967e-08 3.69184e-08 6.55044e-08)
(3.38568e-08 3.48891e-08 7.03542e-08)
(4.44674e-08 3.27535e-08 7.73273e-08)
(5.54307e-08 3.08104e-08 8.67675e-08)
(6.64428e-08 2.92948e-08 9.90365e-08)
(7.71262e-08 2.82094e-08 1.14366e-07)
(8.70061e-08 2.73501e-08 1.3275e-07)
(9.54217e-08 2.64092e-08 1.53861e-07)
(3.99944e-09 4.84764e-08 7.29301e-08)
(1.22872e-08 4.72784e-08 7.40997e-08)
(2.10227e-08 4.50874e-08 7.65561e-08)
(3.02426e-08 4.23556e-08 8.06393e-08)
(3.99174e-08 3.9555e-08 8.67066e-08)
(5.00185e-08 3.70463e-08 9.51615e-08)
(6.03264e-08 3.5075e-08 1.06331e-07)
(7.02264e-08 3.37704e-08 1.20393e-07)
(7.9041e-08 3.2981e-08 1.37379e-07)
(8.61462e-08 3.22884e-08 1.56921e-07)
(3.41798e-09 5.78746e-08 8.83001e-08)
(1.05437e-08 5.61963e-08 8.90246e-08)
(1.81736e-08 5.31862e-08 9.07348e-08)
(2.638e-08 4.94458e-08 9.38207e-08)
(3.51151e-08 4.56765e-08 9.88055e-08)
(4.42558e-08 4.24165e-08 1.06101e-07)
(5.36422e-08 3.99415e-08 1.16072e-07)
(6.28262e-08 3.8348e-08 1.28903e-07)
(7.07325e-08 3.75949e-08 1.44533e-07)
(7.6607e-08 3.72186e-08 1.62598e-07)
(2.79916e-09 6.76563e-08 1.07747e-07)
(8.70659e-09 6.5241e-08 1.07807e-07)
(1.51629e-08 6.09961e-08 1.0838e-07)
(2.22831e-08 5.58413e-08 1.10146e-07)
(3.00668e-08 5.07352e-08 1.13774e-07)
(3.83688e-08 4.64096e-08 1.19764e-07)
(4.68891e-08 4.32707e-08 1.28409e-07)
(5.52648e-08 4.13742e-08 1.3993e-07)
(6.2548e-08 4.05901e-08 1.53973e-07)
(6.75841e-08 4.04794e-08 1.70491e-07)
(2.13864e-09 7.7778e-08 1.31966e-07)
(6.72616e-09 7.41964e-08 1.30885e-07)
(1.19377e-08 6.80922e-08 1.29667e-07)
(1.79152e-08 6.09808e-08 1.2959e-07)
(2.47081e-08 5.41442e-08 1.3156e-07)
(3.22194e-08 4.84691e-08 1.36086e-07)
(4.01609e-08 4.44366e-08 1.43344e-07)
(4.79695e-08 4.21578e-08 1.53288e-07)
(5.48215e-08 4.13653e-08 1.6545e-07)
(5.94782e-08 4.14415e-08 1.80054e-07)
(1.40138e-09 8.81894e-08 1.61761e-07)
(4.531e-09 8.26146e-08 1.58487e-07)
(8.37639e-09 7.37618e-08 1.54444e-07)
(1.3134e-08 6.40362e-08 1.51816e-07)
(1.88913e-08 5.50806e-08 1.51769e-07)
(2.56206e-08 4.78386e-08 1.54709e-07)
(3.31033e-08 4.28011e-08 1.60555e-07)
(4.07812e-08 4.01146e-08 1.68927e-07)
(4.77034e-08 3.94569e-08 1.79154e-07)
(5.25604e-08 3.99069e-08 1.9063e-07)
(9.83874e-09 6.9887e-09 4.8262e-08)
(2.9447e-08 6.67092e-09 5.0933e-08)
(4.87235e-08 6.29335e-09 5.62806e-08)
(6.8147e-08 5.93859e-09 6.44847e-08)
(8.81763e-08 5.61186e-09 7.59312e-08)
(1.09146e-07 5.34952e-09 9.12031e-08)
(1.31244e-07 5.15327e-09 1.11066e-07)
(1.54507e-07 5.01629e-09 1.36497e-07)
(1.78719e-07 4.93349e-09 1.68659e-07)
(2.03364e-07 4.86646e-09 2.09013e-07)
(9.32681e-09 2.0846e-08 5.10034e-08)
(2.82563e-08 2.01697e-08 5.3573e-08)
(4.72934e-08 1.91282e-08 5.87554e-08)
(6.65237e-08 1.80666e-08 6.67435e-08)
(8.63318e-08 1.71114e-08 7.79269e-08)
(1.07061e-07 1.6319e-08 9.28482e-08)
(1.28859e-07 1.57425e-08 1.12202e-07)
(1.5179e-07 1.53927e-08 1.36887e-07)
(1.75646e-07 1.51862e-08 1.67755e-07)
(1.99959e-07 1.50111e-08 2.05571e-07)
(8.72021e-09 3.4431e-08 5.65045e-08)
(2.64745e-08 3.36082e-08 5.88901e-08)
(4.46689e-08 3.21601e-08 6.37762e-08)
(6.34252e-08 3.04246e-08 7.13559e-08)
(8.27617e-08 2.88264e-08 8.20085e-08)
(1.02947e-07 2.75322e-08 9.62551e-08)
(1.24195e-07 2.66236e-08 1.14759e-07)
(1.46448e-07 2.61268e-08 1.38156e-07)
(1.69469e-07 2.59381e-08 1.6699e-07)
(1.9296e-07 2.58492e-08 2.01565e-07)
(7.99044e-09 4.82006e-08 6.49232e-08)
(2.44016e-08 4.71488e-08 6.70815e-08)
(4.13554e-08 4.53208e-08 7.15369e-08)
(5.90917e-08 4.30097e-08 7.85347e-08)
(7.77183e-08 4.06986e-08 8.84693e-08)
(9.71656e-08 3.88284e-08 1.01812e-07)
(1.17511e-07 3.75997e-08 1.19154e-07)
(1.38749e-07 3.70226e-08 1.41054e-07)
(1.60546e-07 3.70009e-08 1.67802e-07)
(1.82552e-07 3.7281e-08 1.99464e-07)
(7.2015e-09 6.25476e-08 7.66247e-08)
(2.20942e-08 6.11859e-08 7.85095e-08)
(3.76809e-08 5.87277e-08 8.23996e-08)
(5.40902e-08 5.57055e-08 8.86385e-08)
(7.15325e-08 5.26343e-08 9.76441e-08)
(9.00364e-08 5.00396e-08 1.09908e-07)
(1.0938e-07 4.83784e-08 1.25989e-07)
(1.2932e-07 4.77762e-08 1.46347e-07)
(1.49563e-07 4.8072e-08 1.71235e-07)
(1.69604e-07 4.89988e-08 2.00628e-07)
(6.38498e-09 7.78852e-08 9.21667e-08)
(1.96445e-08 7.60263e-08 9.36708e-08)
(3.37112e-08 7.26454e-08 9.68352e-08)
(4.87288e-08 6.85035e-08 1.02114e-07)
(6.47711e-08 6.44032e-08 1.09995e-07)
(8.19776e-08 6.09842e-08 1.21054e-07)
(1.00259e-07 5.87243e-08 1.35809e-07)
(1.18976e-07 5.79709e-08 1.54662e-07)
(1.37516e-07 5.86984e-08 1.77941e-07)
(1.55452e-07 6.04867e-08 2.05597e-07)
(5.54363e-09 9.46589e-08 1.12298e-07)
(1.71245e-08 9.19906e-08 1.13237e-07)
(2.96019e-08 8.72462e-08 1.15462e-07)
(4.31679e-08 8.14503e-08 1.19495e-07)
(5.78628e-08 7.58052e-08 1.26045e-07)
(7.36624e-08 7.12418e-08 1.35701e-07)
(9.05805e-08 6.82962e-08 1.49039e-07)
(1.08266e-07 6.72603e-08 1.66482e-07)
(1.25434e-07 6.83151e-08 1.88255e-07)
(1.41483e-07 7.10208e-08 2.14354e-07)
(4.68354e-09 1.13409e-07 1.3799e-07)
(1.45808e-08 1.09447e-07 1.38078e-07)
(2.54446e-08 1.02566e-07 1.3886e-07)
(3.75284e-08 9.43881e-08 1.41248e-07)
(5.09387e-08 8.656e-08 1.46144e-07)
(6.56105e-08 8.03288e-08 1.54251e-07)
(8.13106e-08 7.64191e-08 1.66053e-07)
(9.78498e-08 7.50647e-08 1.82034e-07)
(1.14089e-07 7.62337e-08 2.02013e-07)
(1.28843e-07 7.96857e-08 2.26484e-07)
(3.81924e-09 1.3482e-07 1.70426e-07)
(1.19946e-08 1.28689e-07 1.69021e-07)
(2.12546e-08 1.1844e-07 1.67498e-07)
(3.18864e-08 1.06852e-07 1.6758e-07)
(4.40694e-08 9.61522e-08 1.70481e-07)
(5.78061e-08 8.77962e-08 1.76909e-07)
(7.28646e-08 8.25543e-08 1.87172e-07)
(8.86588e-08 8.06722e-08 2.01378e-07)
(1.04217e-07 8.18612e-08 2.1918e-07)
(1.18236e-07 8.57273e-08 2.41472e-07)
(2.92781e-09 1.59988e-07 2.11153e-07)
(9.33845e-09 1.49861e-07 2.06794e-07)
(1.69738e-08 1.34343e-07 2.01559e-07)
(2.62021e-08 1.18029e-07 1.98425e-07)
(3.72523e-08 1.03761e-07 1.9894e-07)
(5.02274e-08 9.29654e-08 2.03641e-07)
(6.499e-08 8.62642e-08 2.12461e-07)
(8.08975e-08 8.37939e-08 2.2501e-07)
(9.66531e-08 8.50722e-08 2.40583e-07)
(1.10371e-07 8.89621e-08 2.5871e-07)
(1.24017e-08 8.61594e-09 3.81078e-08)
(3.71522e-08 8.2293e-09 4.04357e-08)
(6.1595e-08 7.77485e-09 4.50906e-08)
(8.64281e-08 7.35741e-09 5.22181e-08)
(1.12366e-07 6.98819e-09 6.21378e-08)
(1.40034e-07 6.71882e-09 7.53385e-08)
(1.69972e-07 6.5603e-09 9.24661e-08)
(2.02683e-07 6.51602e-09 1.14353e-07)
(2.38563e-07 6.59685e-09 1.41997e-07)
(2.77957e-07 6.77922e-09 1.76659e-07)
(1.17577e-08 2.57391e-08 4.05793e-08)
(3.56554e-08 2.49191e-08 4.28165e-08)
(5.97994e-08 2.36648e-08 4.73227e-08)
(8.43914e-08 2.24115e-08 5.42569e-08)
(1.10051e-07 2.13312e-08 6.39443e-08)
(1.37407e-07 2.05135e-08 7.684e-08)
(1.66932e-07 2.00513e-08 9.35326e-08)
(1.99124e-07 1.99956e-08 1.14789e-07)
(2.34283e-07 2.02897e-08 1.41342e-07)
(2.72527e-07 2.08568e-08 1.73851e-07)
(1.0996e-08 4.26519e-08 4.5527e-08)
(3.34174e-08 4.16536e-08 4.76003e-08)
(5.65036e-08 3.99069e-08 5.18417e-08)
(8.05026e-08 3.78443e-08 5.84106e-08)
(1.05565e-07 3.60189e-08 6.76281e-08)
(1.32217e-07 3.46724e-08 7.99353e-08)
(1.60997e-07 3.39518e-08 9.58971e-08)
(1.92186e-07 3.39499e-08 1.16062e-07)
(2.2593e-07 3.46145e-08 1.40902e-07)
(2.62339e-07 3.57842e-08 1.70683e-07)
(1.00821e-08 6.00245e-08 5.30745e-08)
(3.08218e-08 5.87363e-08 5.49443e-08)
(5.23518e-08 5.65114e-08 5.88015e-08)
(7.50695e-08 5.37382e-08 6.48514e-08)
(9.92374e-08 5.10534e-08 7.34298e-08)
(1.2494e-07 4.90551e-08 8.49418e-08)
(1.5252e-07 4.80577e-08 9.98958e-08)
(1.82295e-07 4.81561e-08 1.18782e-07)
(2.14208e-07 4.93337e-08 1.41861e-07)
(2.48206e-07 5.14087e-08 1.69206e-07)
(9.10007e-09 7.84919e-08 6.35261e-08)
(2.79499e-08 7.67991e-08 6.51509e-08)
(4.77764e-08 7.37558e-08 6.85019e-08)
(6.8831e-08 7.00669e-08 7.38741e-08)
(9.15035e-08 6.64254e-08 8.16239e-08)
(1.16001e-07 6.35471e-08 9.21758e-08)
(1.42269e-07 6.20839e-08 1.0602e-07)
(1.70298e-07 6.22946e-08 1.23567e-07)
(2.00069e-07 6.41069e-08 1.45055e-07)
(2.31309e-07 6.73511e-08 1.70492e-07)
(8.09585e-09 9.87844e-08 7.73561e-08)
(2.49359e-08 9.64275e-08 7.86407e-08)
(4.28885e-08 9.21573e-08 8.13429e-08)
(6.22174e-08 8.69903e-08 8.58552e-08)
(8.31298e-08 8.20031e-08 9.25985e-08)
(1.05973e-07 7.80709e-08 1.02069e-07)
(1.30863e-07 7.58729e-08 1.14723e-07)
(1.57265e-07 7.59605e-08 1.3093e-07)
(1.84755e-07 7.84626e-08 1.51002e-07)
(2.13185e-07 8.30311e-08 1.74929e-07)
(7.08242e-09 1.21774e-07 9.52092e-08)
(2.18993e-08 1.18313e-07 9.59914e-08)
(3.79327e-08 1.12193e-07 9.78574e-08)
(5.5495e-08 1.048e-07 1.01257e-07)
(7.47417e-08 9.77526e-08 1.06806e-07)
(9.57956e-08 9.23016e-08 1.15011e-07)
(1.18908e-07 8.92006e-08 1.26377e-07)
(1.43935e-07 8.89199e-08 1.41286e-07)
(1.69552e-07 9.18625e-08 1.59974e-07)
(1.95409e-07 9.76794e-08 1.8247e-07)
(6.08115e-09 1.48597e-07 1.17931e-07)
(1.89419e-08 1.43328e-07 1.1796e-07)
(3.30935e-08 1.34244e-07 1.1855e-07)
(4.89114e-08 1.23591e-07 1.20492e-07)
(6.66184e-08 1.13594e-07 1.24563e-07)
(8.62733e-08 1.05903e-07 1.31364e-07)
(1.07788e-07 1.01481e-07 1.41317e-07)
(1.31241e-07 1.00709e-07 1.54854e-07)
(1.55464e-07 1.03667e-07 1.71855e-07)
(1.79371e-07 1.10349e-07 1.92783e-07)
(5.12952e-09 1.80771e-07 1.46557e-07)
(1.60944e-08 1.72369e-07 1.4527e-07)
(2.84824e-08 1.58495e-07 1.43831e-07)
(4.2689e-08 1.43095e-07 1.43748e-07)
(5.9008e-08 1.29191e-07 1.46055e-07)
(7.75648e-08 1.18645e-07 1.51341e-07)
(9.8256e-08 1.12387e-07 1.5986e-07)
(1.20599e-07 1.10741e-07 1.71719e-07)
(1.43631e-07 1.13435e-07 1.86662e-07)
(1.66108e-07 1.20352e-07 2.05498e-07)
(4.22386e-09 2.20634e-07 1.82444e-07)
(1.33916e-08 2.06246e-07 1.78547e-07)
(2.41403e-08 1.84663e-07 1.73853e-07)
(3.69392e-08 1.62571e-07 1.70974e-07)
(5.21094e-08 1.43803e-07 1.71208e-07)
(6.98756e-08 1.30024e-07 1.74956e-07)
(9.02373e-08 1.21777e-07 1.82113e-07)
(1.12614e-07 1.191e-07 1.92354e-07)
(1.35587e-07 1.21432e-07 2.0514e-07)
(1.56906e-07 1.27643e-07 2.20167e-07)
(1.35698e-08 9.02161e-09 1.09718e-08)
(4.0659e-08 8.61637e-09 1.21832e-08)
(6.74372e-08 8.14192e-09 1.4589e-08)
(9.46966e-08 7.71196e-09 1.82283e-08)
(1.23262e-07 7.34324e-09 2.3208e-08)
(1.5388e-07 7.09563e-09 2.96928e-08)
(1.87225e-07 6.98674e-09 3.78866e-08)
(2.23953e-07 7.02676e-09 4.80261e-08)
(2.64607e-07 7.2351e-09 6.03397e-08)
(3.09669e-07 7.59595e-09 7.5044e-08)
(1.28559e-08 2.69713e-08 1.24059e-08)
(3.89947e-08 2.61091e-08 1.3566e-08)
(6.54336e-08 2.47948e-08 1.58852e-08)
(9.24234e-08 2.34971e-08 1.94146e-08)
(1.20687e-07 2.24125e-08 2.42674e-08)
(1.50979e-07 2.16523e-08 3.05968e-08)
(1.83901e-07 2.13325e-08 3.85888e-08)
(2.2011e-07 2.15278e-08 4.84683e-08)
(2.60046e-07 2.22002e-08 6.03787e-08)
(3.03928e-07 2.32909e-08 7.43506e-08)
(1.20047e-08 4.47684e-08 1.52497e-08)
(3.64935e-08 4.37083e-08 1.63173e-08)
(6.1746e-08 4.1861e-08 1.84858e-08)
(8.80695e-08 3.97019e-08 2.1806e-08)
(1.15677e-07 3.78407e-08 2.63995e-08)
(1.45213e-07 3.65612e-08 3.2422e-08)
(1.77361e-07 3.60499e-08 4.00623e-08)
(2.12543e-07 3.64372e-08 4.9468e-08)
(2.51035e-07 3.77033e-08 6.07081e-08)
(2.93054e-07 3.9716e-08 7.37171e-08)
(1.09789e-08 6.31821e-08 1.95267e-08)
(3.35765e-08 6.17926e-08 2.04771e-08)
(5.70784e-08 5.94001e-08 2.24262e-08)
(8.19603e-08 5.64467e-08 2.54495e-08)
(1.08565e-07 5.36452e-08 2.96786e-08)
(1.37056e-07 5.1669e-08 3.52654e-08)
(1.67909e-07 5.08916e-08 4.23877e-08)
(2.0159e-07 5.14575e-08 5.11861e-08)
(2.38161e-07 5.33954e-08 6.16674e-08)
(2.77671e-07 5.65661e-08 7.37243e-08)
(9.87238e-09 8.29788e-08 2.53423e-08)
(3.03366e-08 8.1118e-08 2.61497e-08)
(5.1908e-08 7.77806e-08 2.78047e-08)
(7.49032e-08 7.37632e-08 3.04341e-08)
(9.98086e-08 6.9857e-08 3.41809e-08)
(1.26932e-07 6.68748e-08 3.92101e-08)
(1.56311e-07 6.55551e-08 4.57067e-08)
(1.88054e-07 6.62195e-08 5.37901e-08)
(2.22273e-07 6.88468e-08 6.3471e-08)
(2.58785e-07 7.33188e-08 7.46326e-08)
(8.73894e-09 1.05073e-07 3.28741e-08)
(2.69307e-08 1.02434e-07 3.34847e-08)
(4.637e-08 9.76617e-08 3.47617e-08)
(6.73832e-08 9.19128e-08 3.68834e-08)
(9.0254e-08 8.64112e-08 4.00283e-08)
(1.15446e-07 8.21522e-08 4.43962e-08)
(1.43196e-07 7.99087e-08 5.01556e-08)
(1.73027e-07 8.03094e-08 5.7421e-08)
(2.0459e-07 8.35381e-08 6.62446e-08)
(2.37858e-07 8.92936e-08 7.64987e-08)
(7.59951e-09 1.30594e-07 4.23652e-08)
(2.35095e-08 1.26655e-07 4.26923e-08)
(4.07616e-08 1.19702e-07 4.34882e-08)
(5.97265e-08 1.11329e-07 4.49559e-08)
(8.06231e-08 1.03377e-07 4.73698e-08)
(1.03661e-07 9.72512e-08 5.0937e-08)
(1.29225e-07 9.37939e-08 5.58431e-08)
(1.57288e-07 9.35401e-08 6.22045e-08)
(1.86476e-07 9.69467e-08 7.00537e-08)
(2.16518e-07 1.03695e-07 7.92677e-08)
(6.48761e-09 1.61029e-07 5.41273e-08)
(2.02135e-08 1.54945e-07 5.40447e-08)
(3.53334e-08 1.44483e-07 5.41351e-08)
(5.22684e-08 1.32257e-07 5.47645e-08)
(7.1294e-08 1.20799e-07 5.6279e-08)
(9.25403e-08 1.11941e-07 5.89248e-08)
(1.16009e-07 1.06719e-07 6.28522e-08)
(1.4192e-07 1.05542e-07 6.81896e-08)
(1.69099e-07 1.0852e-07 7.48286e-08)
(1.96382e-07 1.15663e-07 8.28292e-08)
(5.45697e-09 1.98364e-07 6.85158e-08)
(1.71176e-08 1.88532e-07 6.775e-08)
(3.02765e-08 1.72371e-07 6.67693e-08)
(4.53451e-08 1.54526e-07 6.6284e-08)
(6.26481e-08 1.38437e-07 6.67465e-08)
(8.23712e-08 1.26115e-07 6.83772e-08)
(1.04503e-07 1.1849e-07 7.12406e-08)
(1.28654e-07 1.15869e-07 7.53498e-08)
(1.53911e-07 1.17988e-07 8.05648e-08)
(1.78882e-07 1.2473e-07 8.71075e-08)
(4.51829e-09 2.45591e-07 8.59721e-08)
(1.4306e-08 2.2853e-07 8.39056e-08)
(2.57185e-08 2.03139e-07 8.12823e-08)
(3.91961e-08 1.77372e-07 7.93353e-08)
(5.50426e-08 1.55565e-07 7.86092e-08)
(7.35261e-08 1.3936e-07 7.91912e-08)
(9.47589e-08 1.29115e-07 8.09613e-08)
(1.18304e-07 1.24766e-07 8.37725e-08)
(1.42828e-07 1.25796e-07 8.74681e-08)
(1.65927e-07 1.31169e-07 9.19921e-08)
(1.32168e-08 8.07556e-09 -2.54573e-08)
(3.95681e-08 7.70725e-09 -2.56845e-08)
(6.55199e-08 7.27553e-09 -2.61709e-08)
(9.17808e-08 6.88777e-09 -2.6999e-08)
(1.19081e-07 6.56502e-09 -2.83114e-08)
(1.48046e-07 6.36629e-09 -3.03201e-08)
(1.79188e-07 6.31155e-09 -3.33273e-08)
(2.12908e-07 6.41274e-09 -3.77603e-08)
(2.49355e-07 6.6893e-09 -4.42141e-08)
(2.88339e-07 7.12823e-09 -5.35444e-08)
(1.24999e-08 2.41308e-08 -2.54098e-08)
(3.78864e-08 2.33393e-08 -2.5633e-08)
(6.34805e-08 2.21354e-08 -2.61161e-08)
(8.94703e-08 2.09569e-08 -2.69343e-08)
(1.16495e-07 1.99984e-08 -2.82228e-08)
(1.45206e-07 1.93772e-08 -3.01792e-08)
(1.76071e-07 1.92099e-08 -3.30743e-08)
(2.09552e-07 1.95722e-08 -3.72819e-08)
(2.45825e-07 2.0435e-08 -4.32651e-08)
(2.8476e-07 2.17462e-08 -5.15619e-08)
(1.1629e-08 4.00214e-08 -2.53695e-08)
(3.53297e-08 3.90287e-08 -2.55843e-08)
(5.97068e-08 3.73074e-08 -2.60546e-08)
(8.50181e-08 3.53171e-08 -2.68561e-08)
(1.11423e-07 3.36385e-08 -2.81039e-08)
(1.3949e-07 3.25556e-08 -2.99732e-08)
(1.69808e-07 3.22586e-08 -3.2701e-08)
(2.02694e-07 3.28781e-08 -3.6567e-08)
(2.38311e-07 3.44026e-08 -4.18821e-08)
(2.76791e-07 3.67168e-08 -4.89331e-08)
(1.05671e-08 5.64416e-08 -2.54299e-08)
(3.23039e-08 5.51113e-08 -2.56385e-08)
(5.48719e-08 5.28266e-08 -2.60922e-08)
(7.8708e-08 5.00361e-08 -2.68703e-08)
(1.04119e-07 4.74363e-08 -2.80842e-08)
(1.31233e-07 4.5676e-08 -2.98762e-08)
(1.60476e-07 4.51184e-08 -3.24405e-08)
(1.92268e-07 4.59118e-08 -3.6002e-08)
(2.26659e-07 4.80887e-08 -4.07602e-08)
(2.63744e-07 5.15265e-08 -4.68708e-08)
(9.40509e-09 7.41116e-08 -2.57261e-08)
(2.88952e-08 7.22878e-08 -2.59304e-08)
(4.94261e-08 6.90287e-08 -2.63739e-08)
(7.1293e-08 6.5127e-08 -2.71351e-08)
(9.49602e-08 6.13781e-08 -2.83273e-08)
(1.20722e-07 5.85802e-08 -3.00877e-08)
(1.48605e-07 5.74276e-08 -3.2575e-08)
(1.78709e-07 5.82188e-08 -3.59664e-08)
(2.11168e-07 6.09413e-08 -4.04293e-08)
(2.4587e-07 6.54869e-08 -4.60746e-08)
(8.19564e-09 9.39209e-08 -2.64375e-08)
(2.52578e-08 9.12859e-08 -2.66353e-08)
(4.34968e-08 8.65377e-08 -2.707e-08)
(6.32258e-08 8.08331e-08 -2.78295e-08)
(8.47251e-08 7.53933e-08 -2.90291e-08)
(1.08453e-07 7.12009e-08 -3.08168e-08)
(1.34655e-07 6.89992e-08 -3.33448e-08)
(1.62871e-07 6.93461e-08 -3.67545e-08)
(1.92757e-07 7.23734e-08 -4.12117e-08)
(2.24332e-07 7.78184e-08 -4.68374e-08)
(6.96305e-09 1.16995e-07 -2.77984e-08)
(2.15473e-08 1.13015e-07 -2.79766e-08)
(3.73824e-08 1.06e-07 -2.83923e-08)
(5.48284e-08 9.75686e-08 -2.915e-08)
(7.41057e-08 8.95505e-08 -3.03924e-08)
(9.5435e-08 8.33139e-08 -3.22666e-08)
(1.1921e-07 7.96593e-08 -3.49406e-08)
(1.45428e-07 7.90684e-08 -3.85636e-08)
(1.72709e-07 8.18652e-08 -4.3258e-08)
(2.0077e-07 8.7734e-08 -4.91759e-08)
(5.74721e-09 1.44833e-07 -3.01171e-08)
(1.79188e-08 1.3864e-07 -3.02414e-08)
(3.13589e-08 1.28005e-07 -3.05841e-08)
(4.64651e-08 1.15587e-07 -3.13103e-08)
(6.35085e-08 1.03909e-07 -3.26025e-08)
(8.26382e-08 9.47372e-08 -3.46323e-08)
(1.03887e-07 8.90165e-08 -3.75436e-08)
(1.27485e-07 8.70802e-08 -4.15088e-08)
(1.52309e-07 8.8981e-08 -4.65451e-08)
(1.77046e-07 9.45587e-08 -5.29091e-08)
(4.60875e-09 1.79439e-07 -3.37966e-08)
(1.44791e-08 1.69396e-07 -3.37733e-08)
(2.56671e-08 1.5292e-07 -3.39188e-08)
(3.8535e-08 1.34736e-07 -3.45206e-08)
(5.33832e-08 1.18264e-07 -3.58369e-08)
(7.0417e-08 1.05404e-07 -3.80662e-08)
(8.96907e-08 9.69521e-08 -4.13297e-08)
(1.10898e-07 9.312e-08 -4.56774e-08)
(1.33224e-07 9.36484e-08 -5.10462e-08)
(1.55016e-07 9.81678e-08 -5.77554e-08)
(3.56802e-09 2.2381e-07 -3.93745e-08)
(1.13489e-08 2.06378e-07 -3.89745e-08)
(2.05051e-08 1.80483e-07 -3.86801e-08)
(3.13701e-08 1.54243e-07 -3.89832e-08)
(4.41857e-08 1.31931e-07 -4.02445e-08)
(5.92384e-08 1.14974e-07 -4.26975e-08)
(7.67581e-08 1.03528e-07 -4.6417e-08)
(9.65219e-08 9.74626e-08 -5.12948e-08)
(1.17446e-07 9.63803e-08 -5.70352e-08)
(1.37163e-07 9.932e-08 -6.33986e-08)
(1.15674e-08 5.97546e-09 -6.11864e-08)
(3.45578e-08 5.69594e-09 -6.26388e-08)
(5.69824e-08 5.36894e-09 -6.55756e-08)
(7.93156e-08 5.08217e-09 -7.01572e-08)
(1.02025e-07 4.85963e-09 -7.66941e-08)
(1.25438e-07 4.75161e-09 -8.56478e-08)
(1.49704e-07 4.77674e-09 -9.7639e-08)
(1.74751e-07 4.94479e-09 -1.13485e-07)
(2.00098e-07 5.27009e-09 -1.34216e-07)
(2.24623e-07 5.74291e-09 -1.61196e-07)
(1.09094e-08 1.78052e-08 -6.23632e-08)
(3.30009e-08 1.71944e-08 -6.37569e-08)
(5.50784e-08 1.62738e-08 -6.65994e-08)
(7.71735e-08 1.53932e-08 -7.10491e-08)
(9.96904e-08 1.4723e-08 -7.74101e-08)
(1.23007e-07 1.43719e-08 -8.61098e-08)
(1.47286e-07 1.44381e-08 -9.7701e-08)
(1.72604e-07 1.49811e-08 -1.12904e-07)
(1.9872e-07 1.59769e-08 -1.32461e-07)
(2.2509e-07 1.73809e-08 -1.57076e-07)
(1.00872e-08 2.93737e-08 -6.47857e-08)
(3.05932e-08 2.85837e-08 -6.60713e-08)
(5.15281e-08 2.72318e-08 -6.87348e-08)
(7.30094e-08 2.57115e-08 -7.29365e-08)
(9.50533e-08 2.44989e-08 -7.89544e-08)
(1.1801e-07 2.38427e-08 -8.71804e-08)
(1.42216e-07 2.39072e-08 -9.81144e-08)
(1.67765e-07 2.47943e-08 -1.12255e-07)
(1.9465e-07 2.64868e-08 -1.30038e-07)
(2.22981e-07 2.88896e-08 -1.51687e-07)
(9.06625e-09 4.11352e-08 -6.86264e-08)
(2.76791e-08 4.00406e-08 -6.97809e-08)
(4.68953e-08 3.81786e-08 -7.21884e-08)
(6.70166e-08 3.59649e-08 -7.6038e-08)
(8.82243e-08 3.40003e-08 -8.16112e-08)
(1.10538e-07 3.28226e-08 -8.92429e-08)
(1.34221e-07 3.2729e-08 -9.93511e-08)
(1.59555e-07 3.3838e-08 -1.1234e-07)
(1.86594e-07 3.61598e-08 -1.28416e-07)
(2.156e-07 3.95839e-08 -1.47563e-07)
(7.92299e-09 5.35967e-08 -7.41929e-08)
(2.4322e-08 5.20431e-08 -7.51923e-08)
(4.15404e-08 4.92999e-08 -7.72805e-08)
(5.97875e-08 4.6076e-08 -8.06911e-08)
(7.9418e-08 4.30931e-08 -8.57193e-08)
(1.00638e-07 4.10412e-08 -9.27046e-08)
(1.23417e-07 4.04635e-08 -1.02013e-07)
(1.47814e-07 4.15734e-08 -1.13952e-07)
(1.73998e-07 4.43459e-08 -1.28682e-07)
(2.02066e-07 4.86715e-08 -1.46117e-07)
(6.70108e-09 6.74319e-08 -8.19181e-08)
(2.06489e-08 6.51283e-08 -8.27082e-08)
(3.55542e-08 6.10243e-08 -8.43986e-08)
(5.16684e-08 5.6163e-08 -8.7284e-08)
(6.92199e-08 5.16394e-08 -9.16967e-08)
(8.85859e-08 4.83184e-08 -9.80237e-08)
(1.0997e-07 4.68179e-08 -1.06609e-07)
(1.32964e-07 4.75119e-08 -1.17699e-07)
(1.57284e-07 5.04195e-08 -1.31484e-07)
(1.83085e-07 5.53411e-08 -1.47895e-07)
(5.42316e-09 8.3544e-08 -9.23649e-08)
(1.67968e-08 8.0009e-08 -9.28454e-08)
(2.91901e-08 7.38229e-08 -9.40243e-08)
(4.29208e-08 6.64874e-08 -9.62459e-08)
(5.81872e-08 5.96284e-08 -9.99734e-08)
(7.51918e-08 5.44297e-08 -1.05603e-07)
(9.42821e-08 5.15542e-08 -1.13519e-07)
(1.15472e-07 5.1352e-08 -1.23982e-07)
(1.37527e-07 5.38853e-08 -1.37105e-07)
(1.60238e-07 5.88712e-08 -1.52872e-07)
(4.1294e-09 1.03184e-07 -1.06247e-07)
(1.29111e-08 9.76268e-08 -1.06251e-07)
(2.27095e-08 8.81473e-08 -1.0663e-07)
(3.38838e-08 7.7206e-08 -1.0797e-07)
(4.66946e-08 6.7064e-08 -1.10862e-07)
(6.13108e-08 5.92276e-08 -1.15781e-07)
(7.7795e-08 5.44237e-08 -1.23052e-07)
(9.63596e-08 5.28582e-08 -1.32981e-07)
(1.16053e-07 5.4454e-08 -1.45418e-07)
(1.3556e-07 5.88239e-08 -1.60651e-07)
(2.87876e-09 1.28085e-07 -1.24429e-07)
(9.11669e-09 1.19028e-07 -1.23571e-07)
(1.6373e-08 1.04277e-07 -1.22633e-07)
(2.49703e-08 8.81667e-08 -1.22693e-07)
(3.52027e-08 7.37644e-08 -1.24558e-07)
(4.73203e-08 6.26571e-08 -1.28732e-07)
(6.14678e-08 5.54042e-08 -1.3544e-07)
(7.74561e-08 5.20462e-08 -1.44725e-07)
(9.46378e-08 5.22921e-08 -1.56303e-07)
(1.1123e-07 5.54374e-08 -1.70687e-07)
(1.69734e-09 1.60899e-07 -1.48001e-07)
(5.55843e-09 1.45162e-07 -1.45401e-07)
(1.04292e-08 1.21935e-07 -1.42277e-07)
(1.65681e-08 9.86771e-08 -1.40473e-07)
(2.42144e-08 7.91809e-08 -1.41046e-07)
(3.37339e-08 6.45211e-08 -1.44454e-07)
(4.55217e-08 5.46231e-08 -1.50704e-07)
(5.96145e-08 4.92593e-08 -1.59483e-07)
(7.52292e-08 4.80635e-08 -1.7018e-07)
(9.01346e-08 5.00162e-08 -1.82337e-07)
(9.14032e-09 3.21652e-09 -8.75584e-08)
(2.72016e-08 3.06209e-09 -8.96333e-08)
(4.45024e-08 2.88758e-09 -9.38005e-08)
(6.12053e-08 2.75261e-09 -1.00227e-07)
(7.74347e-08 2.6823e-09 -1.09256e-07)
(9.31445e-08 2.71279e-09 -1.21394e-07)
(1.08061e-07 2.85778e-09 -1.37299e-07)
(1.21611e-07 3.12112e-09 -1.57808e-07)
(1.3273e-07 3.50758e-09 -1.83917e-07)
(1.3954e-07 4.00935e-09 -2.16889e-07)
(8.5864e-09 9.48808e-09 -8.94065e-08)
(2.58787e-08 9.14125e-09 -9.13845e-08)
(4.28747e-08 8.64119e-09 -9.53906e-08)
(5.94063e-08 8.21497e-09 -1.01596e-07)
(7.55692e-08 7.993e-09 -1.1034e-07)
(9.13947e-08 8.06376e-09 -1.22088e-07)
(1.06686e-07 8.49229e-09 -1.37421e-07)
(1.21099e-07 9.30822e-09 -1.57067e-07)
(1.34015e-07 1.0484e-08 -1.81696e-07)
(1.44622e-07 1.19768e-08 -2.11826e-07)
(7.86883e-09 1.53476e-08 -9.31636e-08)
(2.37884e-08 1.48723e-08 -9.49634e-08)
(3.98096e-08 1.40971e-08 -9.86683e-08)
(5.58663e-08 1.33165e-08 -1.04455e-07)
(7.17943e-08 1.28549e-08 -1.12639e-07)
(8.76611e-08 1.28997e-08 -1.23649e-07)
(1.03491e-07 1.35673e-08 -1.38014e-07)
(1.19133e-07 1.49069e-08 -1.562e-07)
(1.3444e-07 1.68783e-08 -1.78533e-07)
(1.49596e-07 1.93959e-08 -2.05008e-07)
(6.95654e-09 2.09079e-08 -9.90151e-08)
(2.11844e-08 2.02012e-08 -1.00592e-07)
(3.57127e-08 1.90439e-08 -1.03867e-07)
(5.06615e-08 1.7794e-08 -1.09058e-07)
(6.60467e-08 1.69059e-08 -1.16493e-07)
(8.17486e-08 1.67497e-08 -1.26542e-07)
(9.78282e-08 1.75186e-08 -1.39642e-07)
(1.14399e-07 1.92733e-08 -1.56163e-07)
(1.31547e-07 2.19737e-08 -1.7617e-07)
(1.49782e-07 2.55041e-08 -1.99407e-07)
(5.90398e-09 2.6358e-08 -1.07314e-07)
(1.80958e-08 2.52788e-08 -1.08625e-07)
(3.08157e-08 2.34447e-08 -1.11355e-07)
(4.41607e-08 2.14339e-08 -1.15795e-07)
(5.83354e-08 1.98466e-08 -1.22296e-07)
(7.3426e-08 1.92046e-08 -1.31243e-07)
(8.93336e-08 1.98308e-08 -1.43025e-07)
(1.06078e-07 2.18098e-08 -1.57901e-07)
(1.23877e-07 2.50778e-08 -1.759e-07)
(1.43113e-07 2.95026e-08 -1.96701e-07)
(4.73984e-09 3.20373e-08 -1.1856e-07)
(1.46052e-08 3.03445e-08 -1.19518e-07)
(2.5152e-08 2.74295e-08 -1.21573e-07)
(3.65571e-08 2.41599e-08 -1.25105e-07)
(4.8981e-08 2.14324e-08 -1.30524e-07)
(6.26893e-08 1.99315e-08 -1.38286e-07)
(7.78241e-08 2.00861e-08 -1.48755e-07)
(9.40702e-08 2.20088e-08 -1.62134e-07)
(1.11259e-07 2.55683e-08 -1.78491e-07)
(1.2973e-07 3.06231e-08 -1.97543e-07)
(3.48049e-09 3.84942e-08 -1.33391e-07)
(1.08118e-08 3.5795e-08 -1.33851e-07)
(1.88962e-08 3.11879e-08 -1.35056e-07)
(2.80118e-08 2.59905e-08 -1.37456e-07)
(3.83394e-08 2.15199e-08 -1.41645e-07)
(5.00608e-08 1.86854e-08 -1.48103e-07)