/*--------------------------------*- C++ -*----------------------------------*\
| =========                 |                                                 |
| \\      /  F ield         | foam-extend: Open Source CFD                    |
|  \\    /   O peration     | Version:     3.1                                |
|   \\  /    A nd           | Web:         http://www.extend-project.de       |
|    \\/     M anipulation  |                                                 |
\*---------------------------------------------------------------------------*/
FoamFile
{
    version     2.0;
    format      ascii;
    class       surfaceScalarField;
    location    "0.0006";
    object      meshPhi;
}
// * * * * * * * * * * * * * * * * * * * * * * * * * * * * * * * * * * * * * //

dimensions      [0 3 -1 0 0 0 0];

internalField   nonuniform List<scalar> 
45800
(
2.45192e-10
2.45506e-10
9.52432e-11
4.75316e-10
2.43914e-10
1.02172e-10
6.87394e-10
2.39109e-10
1.17332e-10
8.83152e-10
2.33808e-10
1.40713e-10
1.0643e-09
2.28829e-10
1.72788e-10
1.23133e-09
2.24279e-10
2.14442e-10
1.38338e-09
2.20299e-10
2.66871e-10
1.51797e-09
2.17059e-10
3.31413e-10
1.63064e-09
2.14696e-10
4.09254e-10
2.11334e-10
5.01457e-10
1.7157e-09
2.43596e-10
4.75047e-10
1.02154e-10
4.74926e-10
4.75014e-10
1.08663e-10
6.90398e-10
4.69123e-10
1.23177e-10
8.89756e-10
4.60803e-10
1.45711e-10
1.074e-09
4.52287e-10
1.76715e-10
1.24364e-09
4.44375e-10
2.17025e-10
1.39788e-09
4.37401e-10
2.67756e-10
1.53421e-09
4.31677e-10
3.30092e-10
1.6483e-09
4.27242e-10
4.04948e-10
4.19988e-10
4.92502e-10
1.73379e-09
2.39128e-10
6.86375e-10
1.17312e-10
4.68998e-10
6.89728e-10
1.23158e-10
6.86227e-10
6.8604e-10
1.36725e-10
8.8881e-10
6.77768e-10
1.58068e-10
1.07612e-09
6.67654e-10
1.8761e-10
1.24819e-09
6.57712e-10
2.26138e-10
1.40425e-09
6.48818e-10
2.74672e-10
1.54172e-09
6.41286e-10
3.34193e-10
1.65648e-09
6.35108e-10
4.05335e-10
6.24052e-10
4.87693e-10
1.74279e-09
2.34136e-10
8.81801e-10
1.40716e-10
4.61087e-10
8.88528e-10
1.45698e-10
6.77899e-10
8.87983e-10
1.58053e-10
8.82158e-10
8.81812e-10
1.77894e-10
1.07197e-09
8.72029e-10
2.05634e-10
1.24613e-09
8.61005e-10
2.42e-10
1.40345e-09
8.50654e-10
2.87937e-10
1.54138e-09
8.41689e-10
3.44286e-10
1.65611e-09
8.33908e-10
4.115e-10
8.19198e-10
4.88637e-10
1.74299e-09
2.292e-10
1.06285e-09
1.72825e-10
4.52901e-10
1.07261e-09
1.76734e-10
6.68173e-10
1.07488e-09
1.87604e-10
8.72311e-10
1.07111e-09
2.05616e-10
1.06318e-09
1.06282e-09
2.3121e-10
1.23876e-09
1.05171e-09
2.65081e-10
1.39679e-09
1.03993e-09
3.08095e-10
1.53438e-09
1.02916e-09
3.6102e-10
1.64807e-09
1.01952e-09
4.2425e-10
1.00128e-09
4.96235e-10
1.73469e-09
2.24622e-10
1.22987e-09
2.1451e-10
4.45037e-10
1.24224e-09
2.17076e-10
6.58535e-10
1.24686e-09
2.26157e-10
8.61684e-10
1.24495e-09
2.41988e-10
1.052e-09
1.23801e-09
2.65059e-10
1.22755e-09
1.2274e-09
2.96075e-10
1.38549e-09
1.21446e-09
3.35839e-10
1.52192e-09
1.20113e-09
3.8506e-10
1.63319e-09
1.18851e-09
4.44096e-10
1.1665e-09
5.10787e-10
1.71814e-09
2.20622e-10
1.382e-09
2.66964e-10
4.38025e-10
1.39654e-09
2.67831e-10
6.49704e-10
1.40296e-09
2.74716e-10
8.51703e-10
1.4022e-09
2.87945e-10
1.04072e-09
1.39565e-09
3.08064e-10
1.21452e-09
1.3848e-09
3.35776e-10
1.37075e-09
1.37068e-09
3.71856e-10
1.5049e-09
1.35444e-09
4.16899e-10
1.61223e-09
1.33738e-09
4.71125e-10
1.31097e-09
5.31966e-10
1.69364e-09
2.17361e-10
1.51676e-09
3.31529e-10
4.32261e-10
1.53303e-09
3.30187e-10
6.42121e-10
1.54055e-09
3.34252e-10
8.42763e-10
1.54019e-09
3.44297e-10
1.03033e-09
1.53313e-09
3.60971e-10
1.20169e-09
1.52068e-09
3.84908e-10
1.35443e-09
1.50403e-09
4.16727e-10
1.4843e-09
1.48394e-09
4.56714e-10
1.58599e-09
1.46145e-09
5.0492e-10
1.43055e-09
5.58752e-10
1.66171e-09
2.14971e-10
1.62968e-09
4.0939e-10
4.27767e-10
1.64735e-09
4.05062e-10
6.35841e-10
1.65552e-09
4.05406e-10
8.34807e-10
1.6551e-09
4.11512e-10
1.02054e-09
1.64698e-09
4.24185e-10
1.1893e-09
1.63202e-09
4.43907e-10
1.33774e-09
1.61115e-09
4.70876e-10
1.4617e-09
1.58529e-09
5.04783e-10
1.55635e-09
1.55602e-09
5.45252e-10
1.52096e-09
5.8949e-10
1.62387e-09
2.1157e-10
5.01602e-10
1.71499e-09
4.2043e-10
4.92625e-10
1.73309e-09
6.24655e-10
4.87774e-10
1.74207e-09
8.19907e-10
4.88661e-10
1.74222e-09
1.00203e-09
4.96191e-10
1.73387e-09
1.16717e-09
5.10659e-10
1.71731e-09
1.31153e-09
5.31802e-10
1.69286e-09
1.43096e-09
5.58621e-10
1.66108e-09
1.52118e-09
5.89394e-10
1.62346e-09
6.20944e-10
1.58291e-09
1.5827e-09
7.18265e-10
7.19188e-10
1.25712e-10
1.39277e-09
7.14682e-10
1.37453e-10
2.01534e-09
7.00866e-10
1.62487e-10
2.59174e-09
6.85774e-10
2.00744e-10
3.12794e-09
6.71873e-10
2.52883e-10
3.62672e-09
6.59574e-10
3.20188e-10
4.08755e-09
6.49423e-10
4.04403e-10
4.5058e-09
6.42129e-10
5.07453e-10
4.872e-09
6.38404e-10
6.3096e-10
6.33301e-10
7.7626e-10
5.17391e-09
7.13747e-10
1.392e-09
1.37425e-10
1.39199e-09
1.39225e-09
1.48484e-10
2.02471e-09
1.37558e-09
1.7246e-10
2.61188e-09
1.35211e-09
2.09326e-10
3.15742e-09
1.32855e-09
2.59712e-10
3.66419e-09
1.30745e-09
3.24829e-10
4.13178e-09
1.29006e-09
4.06301e-10
4.55553e-09
1.2777e-09
5.05817e-10
4.92605e-09
1.27106e-09
6.24591e-10
1.25907e-09
7.62592e-10
5.22826e-09
7.00911e-10
2.01239e-09
1.62458e-10
1.37519e-09
2.02276e-09
1.7243e-10
2.01344e-09
2.01289e-09
1.94846e-10
2.61045e-09
1.99012e-09
2.29747e-10
3.16537e-09
1.96264e-09
2.7772e-10
3.67976e-09
1.93668e-09
3.39909e-10
4.1532e-09
1.91524e-09
4.17797e-10
4.58067e-09
1.89984e-09
5.12763e-10
4.95323e-09
1.89124e-09
6.25595e-10
1.87247e-09
7.55388e-10
5.25694e-09
6.86737e-10
2.58783e-09
2.00753e-10
1.35294e-09
2.60831e-09
2.09308e-10
1.9905e-09
2.60802e-09
2.29722e-10
2.59304e-09
2.59201e-09
2.62139e-10
3.15594e-09
2.56637e-09
3.07133e-10
3.67709e-09
2.5384e-09
3.65757e-10
4.15493e-09
2.51432e-09
4.39382e-10
4.5844e-09
2.49702e-09
5.2918e-10
4.95729e-09
2.48694e-09
6.35673e-10
2.46174e-09
7.57154e-10
5.26221e-09
6.72972e-10
3.12374e-09
2.52948e-10
1.33036e-09
3.1534e-09
2.59747e-10
1.96416e-09
3.16176e-09
2.77712e-10
2.5672e-09
3.1534e-09
3.07104e-10
3.13416e-09
3.13305e-09
3.48549e-10
3.66045e-09
3.10616e-09
4.03051e-10
4.14132e-09
3.07962e-09
4.7186e-10
4.57077e-09
3.05938e-09
5.56045e-10
4.94153e-09
3.04713e-09
6.56046e-10
3.01584e-09
7.69261e-10
5.24584e-09
6.60594e-10
3.62251e-09
3.20305e-10
1.30942e-09
3.66013e-09
3.24918e-10
1.93912e-09
3.67587e-09
3.39944e-10
2.5404e-09
3.67362e-09
3.65738e-10
3.10704e-09
3.65818e-09
4.03014e-10
3.63464e-09
3.6341e-09
4.52803e-10
4.11667e-09
3.60609e-09
5.16255e-10
4.54412e-09
3.5808e-09
5.94343e-10
4.90917e-09
3.56304e-09
6.87466e-10
3.52478e-09
7.92131e-10
5.20927e-09
6.50383e-10
4.08358e-09
4.0456e-10
1.29191e-09
4.12793e-09
4.06429e-10
1.91788e-09
4.14944e-09
4.17873e-10
2.51744e-09
4.15125e-09
4.39398e-10
3.08195e-09
4.13791e-09
4.7181e-10
3.60627e-09
4.11445e-09
5.1615e-10
4.08528e-09
4.08489e-09
5.73539e-10
4.50786e-09
4.05357e-09
6.44765e-10
4.86297e-09
4.0258e-09
7.30003e-10
3.9782e-09
8.25196e-10
5.15371e-09
6.4303e-10
4.50236e-09
5.07645e-10
1.27944e-09
4.55215e-09
5.05976e-10
1.90233e-09
4.57726e-09
5.12864e-10
2.50024e-09
4.58087e-09
5.29205e-10
3.06286e-09
4.56701e-09
5.55971e-10
3.58237e-09
4.54028e-09
5.94099e-10
4.05353e-09
4.505e-09
6.44485e-10
4.46561e-09
4.46437e-09
7.07451e-10
4.80574e-09
4.42292e-09
7.82898e-10
4.36448e-09
8.66773e-10
5.08058e-09
6.39227e-10
4.86926e-09
6.31183e-10
1.27263e-09
4.92333e-09
6.24777e-10
1.89344e-09
4.95042e-09
6.25714e-10
2.48964e-09
4.95426e-09
6.35696e-10
3.05022e-09
4.93821e-09
6.55948e-10
3.56538e-09
4.90555e-09
6.87169e-10
4.02683e-09
4.85956e-09
7.29605e-10
4.4237e-09
4.80347e-09
7.82676e-10
4.74377e-09
4.74269e-09
8.45637e-10
4.67057e-09
9.14179e-10
4.99302e-09
6.3401e-10
7.76493e-10
5.17187e-09
1.2604e-09
7.62789e-10
5.22623e-09
1.87428e-09
7.55519e-10
5.2548e-09
2.46388e-09
7.57195e-10
5.25989e-09
3.01809e-09
7.69193e-10
5.24333e-09
3.52679e-09
7.91933e-10
5.20669e-09
3.97989e-09
8.24939e-10
5.15128e-09
4.36569e-09
8.66566e-10
5.07857e-09
4.67118e-09
9.14028e-10
4.99163e-09
9.62431e-10
4.89741e-09
4.89669e-09
1.13602e-09
1.13751e-09
5.02595e-11
2.2037e-09
1.13069e-09
6.35884e-11
3.19127e-09
1.10938e-09
9.03884e-11
4.10942e-09
1.08645e-09
1.30454e-10
4.96978e-09
1.06595e-09
1.84264e-10
5.77992e-09
1.04878e-09
2.52871e-10
6.54353e-09
1.03614e-09
3.37723e-10
7.25945e-09
1.02965e-09
4.40382e-10
7.92068e-09
1.03114e-09
5.62059e-10
1.03383e-09
7.03643e-10
8.51796e-09
1.12918e-09
2.20255e-09
6.35622e-11
2.20316e-09
2.20361e-09
7.61709e-11
3.20721e-09
2.17844e-09
1.01855e-10
4.14286e-09
2.14328e-09
1.40464e-10
5.01858e-09
2.10904e-09
1.92452e-10
5.84207e-09
2.08029e-09
2.58808e-10
6.6172e-09
2.05968e-09
3.40871e-10
7.3426e-09
2.05025e-09
4.3999e-10
8.01099e-09
2.05442e-09
5.57001e-10
2.05638e-09
6.91498e-10
8.60663e-09
1.10943e-09
3.18671e-09
9.03601e-11
2.1778e-09
3.20417e-09
1.01826e-10
3.19136e-09
3.1905e-09
1.25856e-10
4.14342e-09
3.15763e-09
1.62385e-10
5.03491e-09
3.11889e-09
2.11836e-10
5.87152e-09
3.0849e-09
2.75138e-10
6.65701e-09
3.06151e-09
3.53511e-10
7.38915e-09
3.05245e-09
4.48018e-10
8.06094e-09
3.06079e-09
5.59108e-10
3.0618e-09
6.85574e-10
8.65692e-09
1.08797e-09
4.10337e-09
1.30464e-10
2.14456e-09
4.13731e-09
1.40447e-10
3.1582e-09
4.13959e-09
1.6236e-10
4.12036e-09
4.1187e-09
1.96256e-10
5.02591e-09
4.08479e-09
2.42559e-10
5.87474e-09
4.05031e-09
3.02122e-10
6.66878e-09
4.02649e-09
3.76071e-10
7.40553e-09
4.01978e-09
4.65288e-10
8.07874e-09
4.03317e-09
5.69992e-10
4.03357e-09
6.88243e-10
8.67563e-09
1.06772e-09
4.96331e-09
1.84333e-10
2.11194e-09
5.01234e-09
1.92489e-10
3.1213e-09
5.02925e-09
2.11828e-10
4.08612e-09
5.02185e-09
2.42529e-10
5.00024e-09
4.99839e-09
2.85086e-10
5.85946e-09
4.96858e-09
3.40317e-10
6.66055e-09
4.94487e-09
4.09243e-10
7.39954e-09
4.93896e-09
4.92672e-10
8.07147e-09
4.95651e-09
5.9077e-10
4.95678e-09
7.00774e-10
8.66763e-09
1.05043e-09
5.77345e-09
2.52994e-10
2.08347e-09
5.83579e-09
2.58901e-10
3.08882e-09
5.86544e-09
2.75174e-10
4.05352e-09
5.86923e-09
3.02103e-10
4.97002e-09
5.8557e-09
3.40278e-10
5.83453e-09
5.83349e-09
3.90566e-10
6.64073e-09
5.81179e-09
4.53906e-10
7.3798e-09
5.80355e-09
5.31029e-10
8.04584e-09
5.81989e-09
6.2209e-10
5.8183e-09
7.23514e-10
8.63672e-09
1.03769e-09
6.53746e-09
3.37887e-10
2.06268e-09
6.61126e-09
3.41004e-10
3.06577e-09
6.65113e-09
3.53589e-10
4.03152e-09
6.66293e-09
3.76087e-10
4.9486e-09
6.65498e-09
4.09192e-10
5.81208e-09
6.63686e-09
4.53801e-10
6.61798e-09
6.61708e-09
5.10847e-10
7.35354e-09
6.60492e-09
5.809e-10
8.00753e-09
6.6123e-09
6.63921e-10
6.60403e-09
7.55842e-10
8.58567e-09
1.0311e-09
7.25419e-09
4.4058e-10
2.05307e-09
7.33738e-09
4.40154e-10
3.05648e-09
7.3838e-09
4.48121e-10
4.025e-09
7.39987e-09
4.65314e-10
4.9446e-09
7.39338e-09
4.926e-10
5.80595e-09
7.37326e-09
5.30789e-10
6.60483e-09
7.3484e-09
5.80625e-10
7.32838e-09
7.32607e-09
6.42255e-10
7.96206e-09
7.31682e-09
7.15404e-10
7.29673e-09
7.96057e-10
8.51642e-09
1.03248e-09
7.9165e-09
5.62286e-10
2.05698e-09
8.0068e-09
5.5719e-10
3.06436e-09
8.0565e-09
5.5923e-10
4.03758e-09
8.07382e-09
5.70019e-10
4.96156e-09
8.06596e-09
5.90678e-10
5.82359e-09
8.03968e-09
6.21803e-10
6.61388e-09
8.00162e-09
6.63535e-10
7.31812e-09
7.95802e-09
7.15188e-10
7.92131e-09
7.91935e-09
7.75903e-10
7.87465e-09
8.41457e-10
8.43115e-09
1.03499e-09
7.03878e-10
8.51483e-09
2.05856e-09
6.91696e-10
8.60347e-09
3.06476e-09
6.85706e-10
8.65351e-09
4.03708e-09
6.88287e-10
8.67183e-09
4.96045e-09
7.00711e-10
8.66344e-09
5.82156e-09
7.23324e-10
8.63234e-09
6.60678e-09
7.55596e-10
8.5815e-09
7.29863e-09
7.95857e-10
8.51288e-09
7.87556e-09
8.4131e-10
8.4285e-09
8.87242e-10
8.3357e-09
8.33429e-09
1.45989e-09
1.46187e-09
-1.33161e-10
2.83254e-09
1.45328e-09
-1.21176e-10
4.10371e-09
1.42623e-09
-1.00143e-10
5.28861e-09
1.3974e-09
-7.04246e-11
6.40447e-09
1.37223e-09
-3.19714e-11
7.46449e-09
1.35213e-09
1.55607e-11
8.47832e-09
1.33903e-09
7.26672e-11
9.45122e-09
1.33557e-09
1.39802e-10
1.03828e-08
1.34488e-09
2.17086e-10
1.35925e-09
3.04358e-10
1.12717e-08
1.45129e-09
2.83117e-09
-1.2119e-10
2.83227e-09
2.83295e-09
-1.0975e-10
4.12495e-09
2.80139e-09
-8.95465e-11
5.33275e-09
2.75762e-09
-6.088e-11
6.46891e-09
2.71606e-09
-2.37168e-11
7.54677e-09
2.68316e-09
2.22514e-11
8.57623e-09
2.66308e-09
7.7468e-11
9.5621e-09
2.66082e-09
1.4228e-10
1.05032e-08
2.68088e-09
2.16611e-10
2.70459e-09
2.99573e-10
1.13879e-08
1.42625e-09
4.098e-09
-1.00157e-10
2.80049e-09
4.12116e-09
-8.95606e-11
4.10601e-09
4.10499e-09
-7.05919e-11
5.33568e-09
4.06515e-09
-4.34612e-11
6.49304e-09
4.01931e-09
-8.13832e-12
7.58887e-09
3.98197e-09
3.56556e-11
8.63283e-09
3.96182e-09
8.83064e-11
9.62831e-09
3.96518e-09
1.50014e-10
1.0574e-08
3.99795e-09
2.20512e-10
4.03036e-09
2.98487e-10
1.14572e-08
1.39935e-09
5.28105e-09
-7.04112e-11
2.75922e-09
5.32579e-09
-6.08838e-11
4.06582e-09
5.33086e-09
-4.34718e-11
5.30972e-09
5.30763e-09
-1.82869e-11
6.4866e-09
5.26984e-09
1.47287e-11
7.59978e-09
5.23448e-09
5.58287e-11
8.65646e-09
5.21754e-09
1.05358e-10
9.65945e-09
5.22934e-09
1.63435e-10
1.0608e-08
5.27618e-09
2.29698e-10
5.31755e-09
3.02443e-10
1.14914e-08
1.37451e-09
6.39643e-09
-3.19158e-11
2.71979e-09
6.46112e-09
-2.36842e-11
4.02238e-09
6.48591e-09
-8.13654e-12
5.2715e-09
6.48143e-09
1.47146e-11
6.46156e-09
6.45917e-09
4.49884e-11
7.59046e-09
6.43284e-09
8.29471e-11
8.65869e-09
6.42018e-09
1.28902e-10
9.6671e-09
6.43867e-09
1.82949e-10
1.06163e-08
6.49871e-09
2.44734e-10
6.54962e-09
3.12105e-10
1.1499e-08
1.35426e-09
7.45646e-09
1.5655e-11
2.68726e-09
7.53896e-09
2.23226e-11
3.98704e-09
7.58124e-09
3.5686e-11
5.23859e-09
7.59276e-09
5.58215e-11
6.43467e-09
7.58557e-09
8.29271e-11
7.57374e-09
7.57232e-09
1.17313e-10
8.65209e-09
7.5668e-09
1.59277e-10
9.66416e-09
7.58825e-09
2.08906e-10
1.06092e-08
7.65461e-09
2.65872e-10
7.71261e-09
3.27571e-10
1.14867e-08
1.34104e-09
8.47082e-09
7.279e-11
2.66698e-09
8.56886e-09
7.75674e-11
3.96736e-09
8.62545e-09
8.83649e-11
5.22406e-09
8.64901e-09
1.05373e-10
6.42495e-09
8.65146e-09
1.28874e-10
7.5671e-09
8.64687e-09
1.59217e-10
8.64981e-09
8.64847e-09
1.96721e-10
9.6619e-09
8.67086e-09
2.4142e-10
1.05955e-08
8.73297e-09
2.92915e-10
8.79081e-09
3.48348e-10
1.14587e-08
1.33746e-09
9.44476e-09
1.39947e-10
2.66447e-09
9.55565e-09
1.42399e-10
3.97043e-09
9.62158e-09
1.5009e-10
5.23613e-09
9.65221e-09
1.63457e-10
6.44598e-09
9.65907e-09
1.82908e-10
7.59118e-09
9.6554e-09
2.08765e-10
8.67064e-09
9.65482e-09
2.4126e-10
9.67223e-09
9.66903e-09
2.80212e-10
1.05833e-08
9.71509e-09
3.25148e-10
9.76335e-09
3.73295e-10
1.14173e-08
1.34662e-09
1.03776e-08
2.17246e-10
2.6842e-09
1.0498e-08
2.16745e-10
4.00261e-09
1.05684e-08
2.20599e-10
5.28192e-09
1.06017e-08
2.29721e-10
6.50527e-09
1.06091e-08
2.44681e-10
7.6593e-09
1.0601e-08
2.65701e-10
8.73488e-09
1.05875e-08
2.92689e-10
9.71675e-09
1.05778e-08
3.25024e-10
1.05901e-08
1.05874e-08
3.61954e-10
1.06012e-08
4.00657e-10
1.13626e-08
1.36077e-09
3.04519e-10
1.12679e-08
2.70744e-09
2.99709e-10
1.1384e-08
4.03424e-09
2.98579e-10
1.14528e-08
5.32213e-09
3.02477e-10
1.14865e-08
6.55441e-09
3.1207e-10
1.14936e-08
7.71681e-09
3.27459e-10
1.14809e-08
8.79435e-09
3.48204e-10
1.14531e-08
9.76571e-09
3.73178e-10
1.14125e-08
1.06023e-08
4.00572e-10
1.13588e-08
4.27501e-10
1.12975e-08
1.12955e-08
1.65886e-09
1.66124e-09
-3.88989e-10
3.21772e-09
1.65117e-09
-3.79873e-10
4.65974e-09
1.61983e-09
-3.68738e-10
6.00217e-09
1.58628e-09
-3.56015e-10
7.26535e-09
1.55688e-09
-3.42088e-10
8.46581e-09
1.53339e-09
-3.27408e-10
9.61702e-09
1.51825e-09
-3.1258e-10
1.07286e-08
1.51475e-09
-2.98429e-10
1.18046e-08
1.52681e-09
-2.86054e-10
1.54622e-09
-2.76795e-10
1.28494e-08
1.64878e-09
3.21633e-09
-3.79867e-10
3.21686e-09
3.21781e-09
-3.70981e-10
4.68315e-09
3.18086e-09
-3.60166e-10
6.05156e-09
3.12972e-09
-3.47787e-10
7.33786e-09
3.08108e-09
-3.34239e-10
8.55876e-09
3.0426e-09
-3.1998e-10
9.728e-09
3.01947e-09
-3.05595e-10
1.08546e-08
3.0179e-09
-2.91882e-10
1.19416e-08
3.04377e-09
-2.79891e-10
3.07678e-09
-2.70897e-10
1.29809e-08
1.61974e-09
4.65346e-09
-3.68729e-10
3.17967e-09
4.67905e-09
-3.60155e-10
4.66029e-09
4.65933e-09
-3.49811e-10
6.05351e-09
4.61234e-09
-3.37983e-10
7.36409e-09
4.55854e-09
-3.25039e-10
8.60583e-09
4.51492e-09
-3.11438e-10
9.79211e-09
4.49199e-09
-2.9775e-10
1.09302e-08
4.49774e-09
-2.84735e-10
1.20227e-08
4.5399e-09
-2.73385e-10
4.58582e-09
-2.64887e-10
1.30598e-08
1.58843e-09
5.99387e-09
-3.55999e-10
3.13141e-09
6.04392e-09
-3.47771e-10
4.61292e-09
6.04827e-09
-3.37971e-10
6.02232e-09
6.02017e-09
-3.26838e-10
7.35545e-09
5.97566e-09
-3.1469e-10
8.61756e-09
5.93466e-09
-3.0195e-10
9.81922e-09
5.91613e-09
-2.89173e-10
1.09668e-08
5.93286e-09
-2.77085e-10
1.20635e-08
5.99327e-09
-2.66609e-10
6.05261e-09
-2.5886e-10
1.3101e-08
1.55941e-09
7.25655e-09
-3.42058e-10
3.08521e-09
7.32934e-09
-3.34217e-10
4.56186e-09
7.35629e-09
-3.25024e-10
5.97734e-09
7.34983e-09
-3.14681e-10
7.32602e-09
7.32355e-09
-3.03473e-10
8.607e-09
7.2937e-09
-2.91775e-10
9.82309e-09
7.28135e-09
-2.80093e-10
1.09784e-08
7.3076e-09
-2.6912e-10
1.20774e-08
7.38577e-09
-2.59726e-10
7.45953e-09
-2.52971e-10
1.3115e-08
1.53577e-09
8.45707e-09
-3.27365e-10
3.04717e-09
8.55025e-09
-3.19947e-10
4.52053e-09
8.59749e-09
-3.1142e-10
5.93912e-09
8.60988e-09
-3.0194e-10
7.29554e-09
8.6017e-09
-2.91766e-10
8.58946e-09
8.58808e-09
-2.81243e-10
9.81886e-09
8.58573e-09
-2.70821e-10
1.09804e-08
8.61782e-09
-2.61127e-10
1.20769e-08
8.70643e-09
-2.52985e-10
8.79209e-09
-2.47425e-10
1.31099e-08
1.52049e-09
9.6089e-09
-3.12529e-10
3.0238e-09
9.72e-09
-3.05554e-10
4.49814e-09
9.78407e-09
-2.97726e-10
5.92335e-09
9.81107e-09
-2.89164e-10
7.28653e-09
9.81516e-09
-2.80086e-10
8.5858e-09
9.81316e-09
-2.70811e-10
9.8225e-09
9.8212e-09
-2.6176e-10
1.09866e-08
9.85721e-09
-2.53483e-10
1.20727e-08
9.94446e-09
-2.46725e-10
1.00338e-08
-2.42479e-10
1.30913e-08
1.51685e-09
1.07216e-08
-2.98374e-10
3.02197e-09
1.08476e-08
-2.91837e-10
4.50358e-09
1.09229e-08
-2.84707e-10
5.94041e-09
1.09589e-08
-2.77074e-10
7.31569e-09
1.09696e-08
-2.6912e-10
8.62086e-09
1.09707e-08
-2.61124e-10
9.8567e-09
1.09788e-08
-2.53475e-10
1.10118e-08
1.10083e-08
-2.46678e-10
1.20749e-08
1.10804e-08
-2.41361e-10
1.1162e-08
-2.3842e-10
1.30619e-08
1.52875e-09
1.17991e-08
-2.86e-10
3.04747e-09
1.1936e-08
-2.79846e-10
4.54506e-09
1.20167e-08
-2.73356e-10
5.99963e-09
1.20567e-08
-2.66596e-10
7.39305e-09
1.20695e-08
-2.59728e-10
8.71152e-09
1.20678e-08
-2.52991e-10
9.94639e-09
1.20638e-08
-2.46723e-10
1.10821e-08
1.20688e-08
-2.41354e-10
1.21042e-08
1.21013e-08
-2.37385e-10
1.2144e-08
-2.35558e-10
1.30208e-08
1.54791e-09
-2.76747e-10
1.28453e-08
3.07994e-09
-2.70857e-10
1.29767e-08
4.59012e-09
-2.64859e-10
1.30552e-08
6.05767e-09
-2.58847e-10
1.30957e-08
7.46482e-09
-2.52969e-10
1.3109e-08
8.79669e-09
-2.4743e-10
1.31035e-08
1.00377e-08
-2.42483e-10
1.30851e-08
1.11645e-08
-2.38418e-10
1.30565e-08
1.2145e-08
-2.35553e-10
1.30166e-08
-2.3415e-10
1.29701e-08
1.29679e-08
1.72013e-09
1.72281e-09
-6.60144e-10
3.33346e-09
1.71136e-09
-6.53633e-10
4.81956e-09
1.67683e-09
-6.52023e-10
6.19403e-09
1.63912e-09
-6.55621e-10
7.47621e-09
1.60488e-09
-6.64972e-10
8.68186e-09
1.57594e-09
-6.80952e-10
9.82373e-09
1.55479e-09
-7.04778e-10
1.09108e-08
1.54476e-09
-7.37933e-10
1.19468e-08
1.54977e-09
-7.81998e-10
1.56127e-09
-8.38633e-10
1.29353e-08
1.70867e-09
3.33225e-09
-6.53601e-10
3.33057e-09
3.33182e-09
-6.4697e-10
4.84095e-09
3.28965e-09
-6.45117e-10
6.2416e-09
3.23104e-09
-6.48291e-10
7.5471e-09
3.17337e-09
-6.57055e-10
8.77335e-09
3.1246e-09
-6.72271e-10
9.93336e-09
3.09e-09
-6.95087e-10
1.10356e-08
3.07588e-09
-7.26859e-10
1.20829e-08
3.0881e-09
-7.68937e-10
3.10579e-09
-8.22283e-10
1.30672e-08
1.67658e-09
4.81333e-09
-6.51983e-10
3.28816e-09
4.83703e-09
-6.45079e-10
4.8118e-09
4.81115e-09
-6.42841e-10
6.2369e-09
4.75455e-09
-6.45467e-10
7.56665e-09
4.68855e-09
-6.5348e-10
8.81387e-09
4.63069e-09
-6.67729e-10
9.99124e-09
4.59169e-09
-6.89301e-10
1.11055e-08
4.57963e-09
-7.19379e-10
1.21592e-08
4.60223e-09
-7.59071e-10
4.6262e-09
-8.08873e-10
1.31432e-08
1.64122e-09
6.18577e-09
-6.55598e-10
3.23255e-09
6.23407e-09
-6.48253e-10
4.75481e-09
6.2319e-09
-6.45433e-10
6.19488e-09
6.19308e-09
-6.47354e-10
7.54669e-09
6.1343e-09
-6.5448e-10
8.81427e-09
6.07612e-09
-6.67592e-10
1.00073e-08
6.03788e-09
-6.87734e-10
1.11318e-08
6.03248e-09
-7.15977e-10
1.21906e-08
6.0683e-09
-7.53259e-10
6.09997e-09
-7.99659e-10
1.3177e-08
1.60738e-09
7.4675e-09
-6.64965e-10
3.1774e-09
7.5387e-09
-6.57041e-10
4.69164e-09
7.55905e-09
-6.5345e-10
6.13561e-09
7.5414e-09
-6.54447e-10
7.5018e-09
7.49978e-09
-6.60512e-10
8.78784e-09
7.45086e-09
-6.72359e-10
9.9955e-09
7.41611e-09
-6.90935e-10
1.11282e-08
7.4169e-09
-7.17259e-10
1.21902e-08
7.46644e-09
-7.52205e-10
7.50785e-09
-7.95416e-10
1.31787e-08
1.57827e-09
8.67324e-09
-6.80958e-10
3.12908e-09
8.76499e-09
-6.72274e-10
4.63612e-09
8.80575e-09
-6.67721e-10
6.08027e-09
8.80691e-09
-6.67565e-10
7.45224e-09
8.78301e-09
-6.72326e-10
8.7502e-09
8.74942e-09
-6.82726e-10
9.97098e-09
8.72303e-09
-6.99616e-10
1.11103e-08
8.72727e-09
-7.23914e-10
1.21704e-08
8.78423e-09
-7.56465e-10
8.83405e-09
-7.96509e-10
1.31561e-08
1.55699e-09
9.81576e-09
-7.04796e-10
3.09423e-09
9.92555e-09
-6.95103e-10
4.59768e-09
9.98347e-09
-6.8931e-10
6.04485e-09
9.99955e-09
-6.87729e-10
7.42094e-09
9.98805e-09
-6.90897e-10
8.72258e-09
9.96592e-09
-6.99546e-10
9.94987e-09
9.94927e-09
-7.14508e-10
1.10919e-08
9.95618e-09
-7.36548e-10
1.21423e-08
1.001e-08
-7.66341e-10
1.00614e-08
-8.02878e-10
1.31154e-08
1.54682e-09
1.0904e-08
-7.37965e-10
3.07984e-09
1.10288e-08
-7.26887e-10
4.58529e-09
1.10985e-08
-7.19397e-10
6.03979e-09
1.11243e-08
-7.15978e-10
7.42471e-09
1.11199e-08
-7.17223e-10
8.72999e-09
1.11012e-08
-7.23787e-10
9.95516e-09
1.10848e-08
-7.36398e-10
1.10881e-08
1.10853e-08
-7.55584e-10
1.21167e-08
1.11239e-08
-7.8179e-10
1.11675e-08
-8.13958e-10
1.306e-08
1.55165e-09
1.19415e-08
-7.82045e-10
3.09166e-09
1.20775e-08
-7.68978e-10
4.60722e-09
1.21534e-08
-7.59097e-10
6.07444e-09
1.21842e-08
-7.53259e-10
7.47346e-09
1.21828e-08
-7.52163e-10
8.78907e-09
1.2162e-08
-7.56331e-10
1.00116e-08
1.21342e-08
-7.66145e-10
1.11252e-08
1.21112e-08
-7.81674e-10
1.21147e-08
1.21123e-08
-8.0297e-10
1.21208e-08
-8.28728e-10
1.29914e-08
1.56289e-09
-8.3869e-10
1.29315e-08
3.10882e-09
-8.22333e-10
1.30633e-08
4.63031e-09
-8.08906e-10
1.31389e-08
6.10481e-09
-7.99667e-10
1.31721e-08
7.51289e-09
-7.95385e-10
1.31732e-08
8.83841e-09
-7.96422e-10
1.31504e-08
1.0065e-08
-8.0276e-10
1.31098e-08
1.11698e-08
-8.13857e-10
1.30552e-08
1.21216e-08
-8.2865e-10
1.29877e-08
-8.4512e-10
1.29138e-08
1.29119e-08
1.65495e-09
1.65774e-09
-8.90126e-10
3.20173e-09
1.645e-09
-8.846e-10
4.6158e-09
1.60845e-09
-8.88574e-10
5.90795e-09
1.5673e-09
-9.02023e-10
7.093e-09
1.52792e-09
-9.25259e-10
8.18235e-09
1.492e-09
-9.58971e-10
9.18443e-09
1.46169e-09
-1.00416e-09
1.0104e-08
1.43984e-09
-1.06197e-09
1.0941e-08
1.42973e-09
-1.13331e-09
1.4229e-09
-1.21892e-09
1.16949e-08
1.6422e-09
3.20088e-09
-8.84548e-10
3.19559e-09
3.19713e-09
-8.78625e-10
4.63154e-09
3.15014e-09
-8.81906e-10
5.94753e-09
3.08436e-09
-8.94334e-10
7.15373e-09
3.01645e-09
-9.16252e-10
8.2617e-09
2.95377e-09
-9.48337e-10
9.28008e-09
2.90096e-09
-9.91521e-10
1.02133e-08
2.86344e-09
-1.04678e-09
1.10609e-08
2.84601e-09
-1.11478e-09
2.8287e-09
-1.19531e-09
1.18141e-08
1.60801e-09
4.61019e-09
-8.8851e-10
3.14836e-09
4.6282e-09
-8.81849e-10
4.59431e-09
4.59416e-09
-8.84048e-10
5.93152e-09
4.52631e-09
-8.95036e-10
7.15922e-09
4.44503e-09
-9.15126e-10
8.28595e-09
4.36671e-09
-9.44998e-10
9.32014e-09
4.3009e-09
-9.85523e-10
1.02649e-08
4.25449e-09
-1.03747e-09
1.11198e-08
4.23385e-09
-1.10123e-09
4.20761e-09
-1.17606e-09
1.18766e-08
1.56911e-09
5.90046e-09
-9.0199e-10
3.08545e-09
5.94078e-09
-8.94279e-10
4.52608e-09
5.92729e-09
-8.94987e-10
5.87429e-09
5.87321e-09
-9.04124e-10
7.12058e-09
5.79432e-09
-9.21965e-10
8.26506e-09
5.70981e-09
-9.49131e-10
9.31336e-09
5.63717e-09
-9.86459e-10
1.0268e-08
5.58754e-09
-1.03461e-09
1.11291e-08
5.56769e-09
-1.09382e-09
5.53557e-09
-1.16284e-09
1.1892e-08
1.53011e-09
7.08511e-09
-9.25262e-10
3.01992e-09
7.14619e-09
-9.16239e-10
4.44747e-09
7.15257e-09
-9.15084e-10
5.79493e-09
7.11628e-09
-9.21919e-10
7.05143e-09
7.05031e-09
-9.37081e-10
8.21106e-09
6.96988e-09
-9.61144e-10
9.27197e-09
6.89443e-09
-9.94858e-10
1.02342e-08
6.84277e-09
-1.03886e-09
1.10992e-08
6.82579e-09
-1.09336e-09
6.79156e-09
-1.15658e-09
1.18676e-08
1.49403e-09
8.17457e-09
-9.59005e-10
2.95765e-09
8.25423e-09
-9.48361e-10
4.37133e-09
8.27885e-09
-9.44995e-10
5.7131e-09
8.25887e-09
-9.49093e-10
6.97042e-09
8.20744e-09
-9.61098e-10
8.13794e-09
8.13817e-09
-9.81635e-10
9.2092e-09
8.06594e-09
-1.01137e-09
1.01769e-08
8.01142e-09
-1.05088e-09
1.10407e-08
7.99351e-09
-1.10037e-09
7.95824e-09
-1.15759e-09
1.18099e-08
1.46358e-09
9.17727e-09
-1.00422e-09
2.9046e-09
9.27316e-09
-9.91571e-10
4.30602e-09
9.31342e-09
-9.85551e-10
5.64308e-09
9.30684e-09
-9.86457e-10
6.89825e-09
9.26601e-09
-9.94806e-10
8.06476e-09
9.20571e-09
-1.01128e-09
9.13911e-09
9.1397e-09
-1.03656e-09
1.01082e-08
9.08368e-09
-1.07107e-09
1.09637e-08
9.05786e-09
-1.11488e-09
9.01839e-09
-1.16545e-09
1.17246e-08
1.4416e-09
1.0098e-08
-1.06205e-09
2.86682e-09
1.02074e-08
-1.04685e-09
4.25932e-09
1.02589e-08
-1.03752e-09
5.59378e-09
1.02618e-08
-1.03462e-09
6.84938e-09
1.02276e-08
-1.03881e-09
8.01342e-09
1.01699e-08
-1.05069e-09
9.08202e-09
1.01032e-08
-1.07086e-09
1.00417e-08
1.00403e-08
-1.09946e-09
1.08788e-08
9.99946e-09
-1.13634e-09
9.95168e-09
-1.17904e-09
1.16167e-08
1.43131e-09
1.09363e-08
-1.13342e-09
2.84903e-09
1.10563e-08
-1.11487e-09
4.23806e-09
1.11151e-08
-1.10129e-09
5.57287e-09
1.1124e-08
-1.09383e-09
6.83172e-09
1.10935e-08
-1.0933e-09
7.99755e-09
1.10342e-08
-1.10017e-09
9.05886e-09
1.09576e-08
-1.1146e-09
9.99991e-09
1.08749e-08
-1.13618e-09
1.08052e-08
1.08038e-08
-1.16437e-09
1.07322e-08
-1.19657e-09
1.14919e-08
1.42424e-09
-1.21904e-09
1.16916e-08
2.83121e-09
-1.19542e-09
1.18109e-08
4.21103e-09
-1.17613e-09
1.18732e-08
5.5396e-09
-1.16286e-09
1.18883e-08
6.79575e-09
-1.15654e-09
1.18636e-08
7.96184e-09
-1.15746e-09
1.18056e-08
9.02125e-09
-1.16528e-09
1.17205e-08
9.95334e-09
-1.1789e-09
1.16133e-08
1.07326e-08
-1.19647e-09
1.14893e-08
-1.21489e-09
1.13593e-08
1.13581e-08
1.49517e-09
1.49791e-09
-1.04091e-09
2.8859e-09
1.48429e-09
-1.0344e-09
4.14418e-09
1.44722e-09
-1.03876e-09
5.27471e-09
1.40417e-09
-1.05355e-09
6.2863e-09
1.36085e-09
-1.07857e-09
7.18494e-09
1.31866e-09
-1.11387e-09
7.97399e-09
1.27932e-09
-1.15964e-09
8.65389e-09
1.24504e-09
-1.21596e-09
9.22156e-09
1.21828e-09
-1.28247e-09
1.19135e-09
-1.35836e-09
9.67401e-09
1.48155e-09
2.88551e-09
-1.03434e-09
2.87628e-09
2.87807e-09
-1.02729e-09
4.15254e-09
2.82784e-09
-1.03073e-09
5.30299e-09
2.75708e-09
-1.04421e-09
6.33221e-09
2.68075e-09
-1.06758e-09
7.24628e-09
2.60519e-09
-1.10091e-09
8.0488e-09
2.5341e-09
-1.14433e-09
8.74013e-09
2.47172e-09
-1.19784e-09
9.31732e-09
2.4216e-09
-1.26087e-09
2.36617e-09
-1.33188e-09
9.77287e-09
1.4466e-09
4.13959e-09
-1.03869e-09
2.82583e-09
4.15006e-09
-1.03067e-09
4.10784e-09
4.10828e-09
-1.03265e-09
5.27471e-09
4.03085e-09
-1.04421e-09
6.32121e-09
3.93604e-09
-1.06522e-09
7.25065e-09
3.8381e-09
-1.09576e-09
8.06657e-09
3.74486e-09
-1.13595e-09
8.76847e-09
3.66163e-09
-1.18565e-09
9.35396e-09
3.59316e-09
-1.24411e-09
3.51254e-09
-1.30942e-09
9.81754e-09
1.40555e-09
5.26848e-09
-1.05351e-09
2.75763e-09
5.29751e-09
-1.04414e-09
4.03004e-09
5.27162e-09
-1.04416e-09
5.20285e-09
5.20264e-09
-1.05326e-09
6.26306e-09
5.10462e-09
-1.07131e-09
7.20652e-09
4.99416e-09
-1.09838e-09
8.03428e-09
4.88587e-09
-1.13461e-09
8.7455e-09
4.7885e-09
-1.1798e-09
9.33848e-09
4.707e-09
-1.23314e-09
4.60608e-09
-1.29239e-09
9.8125e-09
1.36255e-09
6.27974e-09
-1.07857e-09
2.68338e-09
6.32604e-09
-1.06756e-09
3.93758e-09
6.316e-09
-1.06517e-09
5.10438e-09
6.26014e-09
-1.07126e-09
6.16962e-09
6.1696e-09
-1.0858e-09
7.12389e-09
6.05728e-09
-1.10885e-09
7.9617e-09
5.93938e-09
-1.14053e-09
8.67994e-09
5.83108e-09
-1.18067e-09
9.27799e-09
5.74054e-09
-1.22853e-09
5.62511e-09
-1.28149e-09
9.76179e-09
1.32022e-09
7.17851e-09
-1.11391e-09
2.60815e-09
7.24021e-09
-1.10093e-09
3.84153e-09
7.2451e-09
-1.09575e-09
4.99625e-09
7.202e-09
-1.09834e-09
6.05682e-09
7.12184e-09
-1.1088e-09
7.01429e-09
7.01565e-09
-1.12731e-09
7.85923e-09
6.89539e-09
-1.15396e-09
8.58211e-09
6.77781e-09
-1.18857e-09
9.18067e-09
6.67771e-09
-1.23049e-09
6.55177e-09
-1.27675e-09
9.67009e-09
1.28076e-09
7.96813e-09
-1.15971e-09
2.53685e-09
8.04325e-09
-1.14439e-09
3.74871e-09
8.0614e-09
-1.13599e-09
4.89022e-09
8.02955e-09
-1.13461e-09
5.94183e-09
7.95773e-09
-1.14048e-09
6.89344e-09
7.85768e-09
-1.15387e-09
7.73809e-09
7.73995e-09
-1.17495e-09
8.46168e-09
7.61705e-09
-1.20346e-09
9.05511e-09
7.50511e-09
-1.2387e-09
7.36997e-09
-1.27758e-09
9.54272e-09
1.24637e-09
8.64899e-09
-1.21606e-09
2.47425e-09
8.73546e-09
-1.19792e-09
3.66523e-09
8.76403e-09
-1.18571e-09
4.79317e-09
8.74118e-09
-1.17982e-09
5.83599e-09
8.67553e-09
-1.18063e-09
6.7789e-09
8.5778e-09
-1.1884e-09
7.61478e-09
8.4592e-09
-1.20327e-09
8.3301e-09
8.33027e-09
-1.22482e-09
8.91112e-09
8.20548e-09
-1.25225e-09
8.06329e-09
-1.28267e-09
9.38621e-09
1.21945e-09
9.21787e-09
-1.2826e-09
2.4238e-09
9.3138e-09
-1.26098e-09
3.59625e-09
9.35055e-09
-1.24419e-09
4.71081e-09
9.33507e-09
-1.23316e-09
5.74495e-09
9.27441e-09
-1.22848e-09
6.68066e-09
9.17675e-09
-1.2303e-09
7.50541e-09
9.05152e-09
-1.23844e-09
8.20506e-09
8.90922e-09
-1.25211e-09
8.76548e-09
8.76521e-09
-1.2703e-09
8.61374e-09
-1.29021e-09
9.21021e-09
1.19231e-09
-1.3585e-09
9.6715e-09
2.36797e-09
-1.332e-09
9.77049e-09
3.51499e-09
-1.3095e-09
9.81523e-09
4.60897e-09
-1.29243e-09
9.81018e-09
5.62813e-09
-1.28146e-09
9.7594e-09
6.55437e-09
-1.27663e-09
9.66765e-09
7.3719e-09
-1.27742e-09
9.54043e-09
8.06424e-09
-1.28254e-09
9.38436e-09
8.61366e-09
-1.29012e-09
9.20905e-09
-1.2973e-09
9.02871e-09
9.02838e-09
1.28293e-09
1.28549e-09
-1.1004e-09
2.46964e-09
1.27174e-09
-1.09154e-09
3.53045e-09
1.236e-09
-1.09216e-09
4.46474e-09
1.19336e-09
-1.1015e-09
5.27613e-09
1.14877e-09
-1.11884e-09
5.96645e-09
1.1034e-09