/*--------------------------------*- C++ -*----------------------------------*\
| =========                 |                                                 |
| \\      /  F ield         | foam-extend: Open Source CFD                    |
|  \\    /   O peration     | Version:     3.1                                |
|   \\  /    A nd           | Web:         http://www.extend-project.de       |
|    \\/     M anipulation  |                                                 |
\*---------------------------------------------------------------------------*/
FoamFile
{
    version     2.0;
    format      ascii;
    class       surfaceScalarField;
    location    "0.0006";
    object      phi_0;
}
// * * * * * * * * * * * * * * * * * * * * * * * * * * * * * * * * * * * * * //

dimensions      [0 3 -1 0 0 0 0];

internalField   nonuniform List<scalar> 
45800
(
7.04131e-11
7.03111e-11
1.48772e-08
1.40294e-10
7.11865e-11
1.46756e-08
2.11233e-10
7.31154e-11
1.45319e-08
2.84009e-10
7.57475e-11
1.4446e-08
3.59246e-10
7.89782e-11
1.4418e-08
4.37514e-10
8.27981e-11
1.44491e-08
5.19232e-10
8.71721e-11
1.45414e-08
6.04581e-10
9.20154e-11
1.46981e-08
6.93362e-10
9.71865e-11
1.49231e-08
1.02817e-10
1.5221e-08
7.84583e-10
7.12856e-11
1.40232e-10
1.46755e-08
1.4146e-10
1.41349e-10
1.44691e-08
2.122e-10
1.44359e-10
1.43178e-08
2.84542e-10
1.48836e-10
1.4221e-08
3.59176e-10
1.54462e-10
1.4179e-08
4.36637e-10
1.6111e-10
1.41928e-08
5.1732e-10
1.68669e-10
1.42641e-08
6.01447e-10
1.76938e-10
1.43956e-08
6.88957e-10
1.85627e-10
1.45905e-08
1.94995e-10
1.48521e-08
7.79749e-10
7.31588e-11
2.11243e-10
1.45318e-08
1.44467e-10
2.12164e-10
1.43177e-08
2.15632e-10
2.15531e-10
1.41567e-08
2.87928e-10
2.2108e-10
1.40476e-08
3.62259e-10
2.28396e-10
1.39902e-08
4.3919e-10
2.37132e-10
1.39857e-08
5.19081e-10
2.47032e-10
1.40353e-08
6.02168e-10
2.57783e-10
1.41412e-08
6.88379e-10
2.6892e-10
1.43062e-08
2.80879e-10
1.45324e-08
7.77798e-10
7.57391e-11
2.84034e-10
1.4446e-08
1.48872e-10
2.84557e-10
1.42209e-08
2.2118e-10
2.87891e-10
1.40474e-08
2.94013e-10
2.9391e-10
1.3924e-08
3.68437e-10
3.02276e-10
1.385e-08
4.45171e-10
3.12538e-10
1.38259e-08
5.24592e-10
3.24206e-10
1.38531e-08
6.06872e-10
3.36779e-10
1.3933e-08
6.91786e-10
3.49649e-10
1.40681e-08
3.63491e-10
1.42598e-08
7.79329e-10
7.89581e-11
3.59262e-10
1.4418e-08
1.54441e-10
3.59192e-10
1.4179e-08
2.28425e-10
3.62263e-10
1.39902e-08
3.02377e-10
3.68391e-10
1.38499e-08
3.77391e-10
3.7727e-10
1.37574e-08
4.54256e-10
3.88514e-10
1.37126e-08
5.33465e-10
4.01525e-10
1.37161e-08
6.15144e-10
4.15518e-10
1.37694e-08
6.98817e-10
4.29647e-10
1.38743e-08
4.4486e-10
1.40317e-08
7.84299e-10
8.27785e-11
4.37518e-10
1.44491e-08
1.61074e-10
4.36641e-10
1.41928e-08
2.37103e-10
4.39195e-10
1.39857e-08
3.12562e-10
4.45163e-10
1.38259e-08
3.88635e-10
4.54183e-10
1.37125e-08
4.66061e-10
4.65886e-10
1.36451e-08
5.45334e-10
4.7978e-10
1.36239e-08
6.26617e-10
4.94947e-10
1.36493e-08
7.09231e-10
5.10213e-10
1.37232e-08
5.26567e-10
1.38461e-08
7.92688e-10
8.71533e-11
5.19224e-10
1.45414e-08
1.68634e-10
5.17312e-10
1.42641e-08
2.46983e-10
5.19077e-10
1.40354e-08
3.24154e-10
5.24594e-10
1.38531e-08
4.0154e-10
5.33464e-10
1.3716e-08
4.7996e-10
5.45263e-10
1.36236e-08
5.59748e-10
5.59571e-10
1.35757e-08
6.41039e-10
5.75674e-10
1.3572e-08
7.23017e-10
5.92368e-10
1.36134e-08
6.10208e-10
1.37008e-08
8.04685e-10
9.19981e-11
6.04559e-10
1.46981e-08
1.76905e-10
6.01427e-10
1.43956e-08
2.57735e-10
6.02156e-10
1.41413e-08
3.36713e-10
6.06876e-10
1.39331e-08
4.15452e-10
6.15179e-10
1.37693e-08
4.95026e-10
6.26682e-10
1.36491e-08
5.75862e-10
6.41058e-10
1.35717e-08
6.58073e-10
6.57991e-10
1.35365e-08
7.40452e-10
6.7677e-10
1.35436e-08
6.97671e-10
1.35941e-08
8.20919e-10
9.71718e-11
6.93325e-10
1.49231e-08
1.85599e-10
6.88924e-10
1.45905e-08
2.68883e-10
6.88355e-10
1.43062e-08
3.49604e-10
6.91781e-10
1.40681e-08
4.29599e-10
6.98843e-10
1.38743e-08
5.10237e-10
7.09304e-10
1.37231e-08
5.92464e-10
7.23097e-10
1.36132e-08
6.76862e-10
7.40463e-10
1.35435e-08
7.62104e-10
7.62049e-10
1.35133e-08
7.90589e-10
1.35232e-08
8.43671e-10
1.02806e-10
1.5221e-08
7.8454e-10
1.94974e-10
1.48521e-08
7.79709e-10
2.80853e-10
1.45324e-08
7.77767e-10
3.63466e-10
1.42598e-08
7.79313e-10
4.44843e-10
1.40317e-08
7.84303e-10
5.26577e-10
1.38461e-08
7.92713e-10
6.10225e-10
1.37009e-08
8.04721e-10
6.97706e-10
1.3594e-08
8.20954e-10
7.90658e-10
1.35231e-08
8.43696e-10
1.34885e-08
8.83088e-10
8.83082e-10
2.80614e-10
2.80525e-10
1.4316e-08
5.57252e-10
2.82725e-10
1.41163e-08
8.35668e-10
2.87036e-10
1.39665e-08
1.12071e-09
2.93351e-10
1.38676e-08
1.41706e-09
3.01665e-10
1.38199e-08
1.72943e-09
3.1204e-10
1.38246e-08
2.06242e-09
3.24523e-10
1.38839e-08
2.42037e-09
3.39144e-10
1.4001e-08
2.80682e-09
3.55968e-10
1.41807e-08
3.75441e-10
1.4429e-08
3.22329e-09
2.82805e-10
5.57195e-10
1.4116e-08
5.60971e-10
5.60875e-10
1.39128e-08
8.4014e-10
5.68562e-10
1.37571e-08
1.12522e-09
5.80233e-10
1.3649e-08
1.42084e-09
5.95773e-10
1.35893e-08
1.73151e-09
6.15227e-10
1.35789e-08
2.06168e-09
6.38649e-10
1.36198e-08
2.41562e-09
6.66049e-10
1.37147e-08
2.79703e-09
6.97474e-10
1.38676e-08
7.34319e-10
1.40825e-08
3.20769e-09
2.87064e-10
8.35677e-10
1.39663e-08
5.68644e-10
8.40101e-10
1.37569e-08
8.50203e-10
8.50112e-10
1.35936e-08
1.13667e-09
8.65985e-10
1.34753e-08
1.43272e-09
8.87537e-10
1.34024e-08
1.74276e-09
9.14689e-10
1.33762e-08
2.07106e-09
9.47454e-10
1.33982e-08
2.42175e-09
9.85805e-10
1.34708e-08
2.79852e-09
1.02969e-09
1.35972e-08
1.08168e-09
1.37805e-08
3.2031e-09
2.93341e-10
1.12073e-09
1.38676e-08
5.8025e-10
1.12523e-09
1.36489e-08
8.66056e-10
1.13663e-09
1.34751e-08
1.1556e-09
1.15551e-09
1.33449e-08
1.45351e-09
1.18178e-09
1.32579e-08
1.7642e-09
1.21526e-09
1.32147e-08
2.09183e-09
1.25581e-09
1.32171e-08
2.44033e-09
1.30333e-09
1.3267e-08
2.8132e-09
1.35768e-09
1.33672e-08
1.42286e-09
1.352e-08
3.21182e-09
3.01649e-10
1.41708e-09
1.382e-08
5.95751e-10
1.42085e-09
1.35893e-08
8.87544e-10
1.43272e-09
1.34023e-08
1.18185e-09
1.45346e-09
1.32576e-08
1.48318e-09
1.48306e-09
1.31548e-08
1.79582e-09
1.52142e-09
1.30938e-08
2.12389e-09
1.56824e-09
1.30756e-08
2.47121e-09
1.6232e-09
1.31022e-08
2.84104e-09
1.68603e-09
1.31761e-08
1.7625e-09
1.32989e-08
3.23426e-09
3.12024e-10
1.72944e-09
1.38247e-08
6.15199e-10
1.73151e-09
1.3579e-08
9.14658e-10
1.74276e-09
1.33762e-08
1.21525e-09
1.76419e-09
1.32145e-08
1.5215e-09
1.79573e-09
1.30935e-08
1.83751e-09
1.83733e-09
1.30132e-08
2.16717e-09
1.88877e-09
1.29737e-08
2.51426e-09
1.94946e-09
1.2976e-08
2.88195e-09
2.01881e-09
1.30227e-08
2.10458e-09
1.31154e-08
3.27057e-09
3.24508e-10
2.06242e-09
1.38839e-08
6.38621e-10
2.06168e-09
1.36199e-08
9.47413e-10
2.07106e-09
1.33983e-08
1.25575e-09
2.09183e-09
1.32171e-08
1.5682e-09
2.12388e-09
1.30754e-08
1.88887e-09
2.16705e-09
1.29732e-08
2.22139e-09
2.22121e-09
1.29107e-08
2.56928e-09
2.28574e-09
1.28878e-08
2.93577e-09
2.35964e-09
1.29061e-08
2.45248e-09
1.29679e-08
3.32083e-09
3.39131e-10
2.42036e-09
1.4001e-08
6.66024e-10
2.41561e-09
1.37148e-08
9.85769e-10
2.42175e-09
1.34708e-08
1.30328e-09
2.44034e-09
1.32671e-08
1.62313e-09
2.47125e-09
1.31021e-08
1.94945e-09
2.51429e-09
1.29755e-08
2.28583e-09
2.56923e-09
1.28873e-08
2.63561e-09
2.63553e-09
1.28369e-08
3.0019e-09
2.71175e-09
1.28252e-08
2.8088e-09
1.28549e-08
3.38477e-09
3.55957e-10
2.80679e-09
1.41807e-08
6.97455e-10
2.79701e-09
1.38676e-08
1.02967e-09
2.7985e-09
1.35972e-08
1.35765e-09
2.8132e-09
1.33673e-08
1.686e-09
2.84106e-09
1.31761e-08
2.01882e-09
2.882e-09
1.30226e-08
2.35966e-09
2.93581e-09
1.29058e-08
2.71178e-09
3.00188e-09
1.2825e-08
3.07825e-09
3.07819e-09
1.27804e-08
3.17465e-09
1.27741e-08
3.46154e-09
3.75433e-10
1.44291e-08
3.22326e-09
7.34305e-10
1.40826e-08
3.20766e-09
1.08166e-09
1.37805e-08
3.20308e-09
1.42285e-09
1.352e-08
3.21181e-09
1.76249e-09
1.32989e-08
3.23426e-09
2.10459e-09
1.31154e-08
3.27059e-09
2.45249e-09
1.29679e-08
3.32086e-09
2.8088e-09
1.28548e-08
3.38479e-09
3.17468e-09
1.27739e-08
3.46153e-09
1.27276e-08
3.55512e-09
3.5551e-09
4.72884e-10
4.72821e-10
1.33703e-08
9.38537e-10
4.7641e-10
1.31742e-08
1.40653e-09
4.83198e-10
1.30153e-08
1.88569e-09
4.93387e-10
1.2895e-08
2.3849e-09
5.0715e-10
1.28136e-08
2.91345e-09
5.24727e-10
1.27714e-08
3.48119e-09
5.46416e-10
1.27697e-08
4.09859e-09
5.72615e-10
1.28109e-08
4.77652e-09
6.0396e-10
1.28988e-08
6.41893e-10
1.30385e-08
5.52516e-09
4.76456e-10
9.38492e-10
1.31739e-08
9.44927e-10
9.44858e-10
1.29758e-08
1.41474e-09
9.5733e-10
1.28132e-08
1.8946e-09
9.76365e-10
1.26862e-08
2.39319e-09
1.00219e-09
1.25957e-08
2.91944e-09
1.03523e-09
1.25422e-08
3.48286e-09
1.07599e-09
1.25268e-08
4.09356e-09
1.12511e-09
1.25515e-08
4.76222e-09
1.18357e-09
1.26193e-08
1.2547e-09
1.27335e-08
5.49841e-09
4.83199e-10
1.40654e-09
1.3015e-08
9.57365e-10
1.4147e-09
1.28129e-08
1.43163e-09
1.43156e-09
1.26451e-08
1.91451e-09
1.45797e-09
1.25108e-08
2.41456e-09
1.49415e-09
1.24104e-08
2.9405e-09
1.54057e-09
1.23449e-08
3.50145e-09
1.59791e-09
1.23154e-08
4.10711e-09
1.66698e-09
1.23233e-08
4.76776e-09
1.74888e-09
1.23712e-08
1.84911e-09
1.24617e-08
5.49216e-09
4.93374e-10
1.88572e-09
1.2895e-08
9.76349e-10
1.89461e-09
1.2686e-08
1.45799e-09
1.91445e-09
1.25106e-08
1.94667e-09
1.94659e-09
1.23676e-08
2.45071e-09
1.99135e-09
1.22566e-08
2.97867e-09
2.04913e-09
1.21782e-08
3.53941e-09
2.12065e-09
1.21336e-08
4.14217e-09
2.20686e-09
1.21244e-08
4.79668e-09
2.30895e-09
1.21527e-08
2.435e-09
1.22203e-08
5.51046e-09
5.07141e-10
2.38492e-09
1.28137e-08
1.00217e-09
2.3932e-09
1.25957e-08
1.49412e-09
2.41455e-09
1.24102e-08
1.99137e-09
2.45064e-09
1.22563e-08
2.50208e-09
2.50197e-09
1.21335e-08
3.03446e-09
2.56904e-09
1.20415e-08
3.59714e-09
2.65243e-09
1.19812e-08
4.1991e-09
2.75301e-09
1.19541e-08
4.84949e-09
2.87214e-09
1.19625e-08
3.02097e-09
1.20078e-08
5.55454e-09
5.24718e-10
2.91346e-09
1.27714e-08
1.03522e-09
2.91946e-09
1.25422e-08
1.54054e-09
2.94051e-09
1.23449e-08
2.04908e-09
2.97865e-09
1.2178e-08
2.56906e-09
3.03434e-09
1.20412e-08
3.10846e-09
3.10827e-09
1.19346e-08
3.6754e-09
3.20113e-09
1.1858e-08
4.27859e-09
3.31343e-09
1.18124e-08
4.92691e-09
3.44638e-09
1.18001e-08
3.61486e-09
1.1823e-08
5.62535e-09
5.46409e-10
3.4812e-09
1.27698e-08
1.07598e-09
3.48287e-09
1.25269e-08
1.59789e-09
3.50146e-09
1.23154e-08
2.12059e-09
3.53942e-09
1.21336e-08
2.65231e-09
3.59712e-09
1.19809e-08
3.20112e-09
3.67521e-09
1.18575e-08
3.7748e-09
3.77462e-09
1.17636e-08
4.38144e-09
3.89583e-09
1.16988e-08
5.02973e-09
4.03936e-09
1.16648e-08
4.22391e-09
1.16647e-08
5.7239e-09
5.7261e-10
4.0986e-09
1.2811e-08
1.1251e-09
4.09356e-09
1.25516e-08
1.66697e-09
4.10711e-09
1.23233e-08
2.20683e-09
4.14218e-09
1.21244e-08
2.75294e-09
4.19913e-09
1.1954e-08
3.31329e-09
4.27855e-09
1.18118e-08
3.89575e-09
4.38128e-09
1.16982e-08
4.50804e-09
4.50796e-09
1.16125e-08
5.15842e-09
4.65843e-09
1.15557e-08
4.85459e-09
1.15316e-08
5.85104e-09
6.03956e-10
4.77652e-09
1.28989e-08
1.18356e-09
4.76222e-09
1.26194e-08
1.74888e-09
4.76776e-09
1.23713e-08
2.30895e-09
4.79668e-09
1.21527e-08
2.87215e-09
4.8495e-09
1.19626e-08
3.44636e-09
4.92693e-09
1.18e-08
4.03924e-09
5.02971e-09
1.16645e-08
4.65835e-09
5.15833e-09
1.15555e-08
5.3118e-09
5.31174e-09
1.14736e-08
5.51133e-09
1.14219e-08
6.00726e-09
6.41891e-10
1.30385e-08
5.52516e-09
1.25469e-09
1.27336e-08
5.4984e-09
1.84911e-09
1.24617e-08
5.49215e-09
2.435e-09
1.22203e-08
5.51046e-09
3.02097e-09
1.20079e-08
5.55454e-09
3.61488e-09
1.18231e-08
5.62535e-09
4.22389e-09
1.16647e-08
5.7239e-09
4.8545e-09
1.15315e-08
5.85103e-09
5.51128e-09
1.14216e-08
6.00719e-09
1.13386e-08
6.20581e-09
6.20578e-09
6.21395e-10
6.21362e-10
1.21276e-08
1.23248e-09
6.25796e-10
1.19373e-08
1.84527e-09
6.34031e-10
1.17685e-08
2.47128e-09
6.46547e-10
1.16225e-08
3.12236e-09
6.63676e-10
1.14988e-08
3.81124e-09
6.85811e-10
1.13967e-08
4.55203e-09
7.13496e-10
1.13154e-08
5.36073e-09
7.47513e-10
1.12547e-08
6.25576e-09
7.89143e-10
1.12146e-08
8.40972e-10
1.11954e-08
7.25787e-09
6.25804e-10
1.23245e-09
1.1937e-08
1.24056e-09
1.24053e-09
1.17463e-08
1.85593e-09
1.2559e-09
1.15759e-08
2.48314e-09
1.27944e-09
1.14261e-08
3.13373e-09
1.31168e-09
1.12971e-08
3.81995e-09
1.3534e-09
1.11883e-08
4.55537e-09
1.40554e-09
1.10993e-08
5.35536e-09
1.46941e-09
1.10296e-08
6.23776e-09
1.54705e-09
1.0979e-08
1.64375e-09
1.09467e-08
7.22186e-09
6.34004e-10
1.84527e-09
1.17682e-08
1.25589e-09
1.85589e-09
1.15756e-08
1.87707e-09
1.87702e-09
1.14028e-08
2.50844e-09
1.91002e-09
1.12489e-08
3.16127e-09
1.95543e-09
1.11139e-08
3.84752e-09
2.01426e-09
1.09978e-08
4.58021e-09
2.08786e-09
1.09004e-08
5.37405e-09
2.1779e-09
1.08209e-08
6.24615e-09
2.28684e-09
1.07593e-08
2.42296e-09
1.07145e-08
7.21414e-09
6.46532e-10
2.4713e-09
1.16224e-08
1.27939e-09
2.48313e-09
1.14259e-08
1.90999e-09
2.50838e-09
1.12486e-08
2.54902e-09
2.54896e-09
1.10896e-08
3.20737e-09
2.60556e-09
1.09481e-08
3.89671e-09
2.67916e-09
1.08239e-08
4.62973e-09
2.77132e-09
1.07171e-08
5.4205e-09
2.88414e-09
1.06274e-08
6.28524e-09
3.02038e-09
1.05544e-08
3.19182e-09
1.04971e-08
7.23959e-09
6.63673e-10
3.12238e-09
1.14989e-08
1.31166e-09
3.13374e-09
1.12971e-08
1.95536e-09
3.16125e-09
1.11137e-08
2.60552e-09
3.20728e-09
1.09478e-08
3.27285e-09
3.27275e-09
1.07989e-08
3.96851e-09
3.35879e-09
1.06662e-08
4.70483e-09
3.46683e-09
1.05493e-08
5.49554e-09
3.59912e-09
1.04484e-08
6.35605e-09
3.75891e-09
1.03635e-08
3.96207e-09
1.02936e-08
7.30003e-09
6.8581e-10
3.81126e-09
1.13968e-08
1.3534e-09
3.81997e-09
1.11884e-08
2.01423e-09
3.84754e-09
1.09978e-08
2.67906e-09
3.89668e-09
1.08237e-08
3.35874e-09
3.96837e-09
1.06659e-08
4.06421e-09
4.06403e-09
1.05239e-08
4.8071e-09
4.18529e-09
1.03967e-08
5.60072e-09
4.33402e-09
1.02839e-08
6.46013e-09
4.51354e-09
1.01861e-08
4.74486e-09
1.01031e-08
7.39722e-09
7.13495e-10
4.55205e-09
1.13155e-08
1.40554e-09
4.55539e-09
1.10994e-08
2.08785e-09
4.58023e-09
1.09004e-08
2.77126e-09
4.62976e-09
1.07171e-08
3.46665e-09
4.7048e-09
1.05491e-08
4.18516e-09
4.80684e-09
1.03961e-08
4.93815e-09
4.93798e-09
1.02579e-08
5.73801e-09
5.10005e-09
1.01329e-08
6.59941e-09
5.29561e-09
1.00213e-08
5.55108e-09
9.92456e-09
7.53331e-09
7.47514e-10
5.36075e-09
1.12548e-08
1.46941e-09
5.35538e-09
1.10297e-08
2.1779e-09
5.37407e-09
1.0821e-08
2.88415e-09
5.42053e-09
1.06274e-08
3.59905e-09
5.49558e-09
1.04483e-08
4.33375e-09
5.60062e-09
1.02833e-08
5.09982e-09
5.73775e-09
1.01323e-08
5.90924e-09
5.90916e-09
9.99396e-09
6.77599e-09
6.11668e-09
9.86789e-09
6.39151e-09
9.75649e-09
7.71066e-09
7.89147e-10
6.25577e-09
1.12147e-08
1.54706e-09
6.23778e-09
1.09791e-08
2.28685e-09
6.24617e-09
1.07594e-08
3.02041e-09
6.28525e-09
1.05544e-08
3.75896e-09
6.35606e-09
1.03635e-08
4.51349e-09
6.46011e-09
1.0186e-08
5.29537e-09
6.59934e-09
1.0021e-08
6.11651e-09
6.77585e-09
9.8677e-09
6.99064e-09
6.99058e-09
9.72559e-09
7.2753e-09
9.59676e-09
7.93194e-09
8.40976e-10
1.11955e-08
7.25788e-09
1.64376e-09
1.09467e-08
7.22187e-09
2.42297e-09
1.07145e-08
7.21415e-09
3.19183e-09
1.04971e-08
7.2396e-09
3.96209e-09
1.02936e-08
7.30003e-09
4.74488e-09
1.01032e-08
7.39721e-09
5.55104e-09
9.92461e-09
7.5333e-09
6.39136e-09
9.75641e-09
7.71062e-09
7.27518e-09
9.59657e-09
7.93183e-09
9.44754e-09
8.22079e-09
8.22075e-09
7.1251e-10
7.12502e-10
1.07025e-08
1.41174e-09
7.17056e-10
1.0521e-08
2.11011e-09
7.25365e-10
1.03447e-08
2.81971e-09
7.38073e-10
1.01748e-08
3.553e-09
7.55569e-10
1.001e-08
4.32341e-09
7.78281e-10
9.84799e-09
5.14592e-09
8.06814e-10
9.6861e-09
6.03777e-09
8.42078e-10
9.52079e-09
7.01922e-09
8.85579e-10
9.34759e-09
9.40287e-10
9.16052e-09
8.11384e-09
7.17034e-10
1.41172e-09
1.05207e-08
1.42015e-09
1.42014e-09
1.03401e-08
2.12135e-09
1.4358e-09
1.01643e-08
2.83234e-09
1.45978e-09
9.99342e-09
3.56524e-09
1.49275e-09
9.82697e-09
4.33299e-09
1.5356e-09
9.66327e-09
5.14998e-09
1.58938e-09
9.4998e-09
6.03275e-09
1.65561e-09
9.33333e-09
7.00094e-09
1.73668e-09
9.15972e-09
1.83841e-09
8.97295e-09
8.07654e-09
7.25318e-10
2.11011e-09
1.03445e-08
1.43574e-09
2.12131e-09
1.0164e-08
2.14304e-09
2.14301e-09
9.98827e-09
2.85846e-09
2.17678e-09
9.81648e-09
3.59379e-09
2.2233e-09
9.64798e-09
4.36165e-09
2.28377e-09
9.48176e-09
5.17589e-09
2.35972e-09
9.31578e-09
6.05237e-09
2.4531e-09
9.14697e-09
7.00991e-09
2.56679e-09
8.97167e-09
2.7097e-09
8.78434e-09
8.06874e-09
7.38057e-10
2.81972e-09
1.01748e-08
1.4597e-09
2.83233e-09
9.99322e-09
2.17671e-09
2.85839e-09
9.81623e-09
2.90013e-09
2.90009e-09
9.64291e-09
3.64126e-09
2.95821e-09
9.47209e-09
4.41239e-09
3.03391e-09
9.30266e-09
5.22706e-09
3.12902e-09
9.13317e-09
6.10044e-09
3.24604e-09
8.96105e-09
7.05046e-09
3.38817e-09
8.783e-09
3.56794e-09
8.5941e-09
8.09521e-09
7.55572e-10
3.55302e-09
1.001e-08
1.49273e-09
3.56526e-09
9.82697e-09
2.22321e-09
3.59376e-09
9.6478e-09
2.95813e-09
3.64117e-09
9.47185e-09
3.7086e-09
3.70852e-09
9.29815e-09
4.48634e-09
3.79712e-09
9.12527e-09
5.30448e-09
3.90866e-09
8.95158e-09
6.1779e-09
4.04585e-09
8.77516e-09
7.12369e-09
4.21249e-09
8.59339e-09
4.42539e-09
8.40198e-09
8.15787e-09
7.78285e-10
4.32343e-09
9.84805e-09
1.53561e-09
4.33301e-09
9.66332e-09
2.28374e-09
4.36166e-09
9.48175e-09
3.03378e-09
4.41236e-09
9.30249e-09
3.79701e-09
4.48619e-09
9.12501e-09
4.58497e-09
4.5848e-09
8.94824e-09
5.40999e-09
4.71009e-09
8.77022e-09
6.28651e-09
4.86434e-09
8.58886e-09
7.23132e-09
5.05152e-09
8.40226e-09
5.29383e-09
8.20738e-09
8.25865e-09
8.06819e-10
5.14595e-09
9.68616e-09
1.58938e-09
5.15e-09
9.49985e-09
2.35972e-09
5.17592e-09
9.31582e-09
3.12897e-09
5.22709e-09
9.13316e-09
3.90844e-09
5.30445e-09
8.95134e-09
4.70989e-09
5.40971e-09
8.76979e-09
5.54547e-09
5.54531e-09
8.58709e-09
6.42856e-09
5.71351e-09
8.40064e-09
7.37558e-09
5.91743e-09
8.2084e-09
6.18497e-09
8.00912e-09
8.39988e-09
8.42085e-10
6.0378e-09
9.52085e-09
1.65562e-09
6.03278e-09
9.33338e-09
2.45312e-09
6.05239e-09
9.14702e-09
3.24606e-09
6.10047e-09
8.96109e-09
4.04578e-09
6.17793e-09
8.77511e-09
4.86401e-09
6.28638e-09
8.58843e-09
5.7132e-09
6.42827e-09
8.40018e-09
6.60635e-09
6.60629e-09
8.20803e-09
7.55902e-09
6.82281e-09
8.00984e-09
7.11079e-09
7.80548e-09
8.58422e-09
8.85586e-10
7.01925e-09
9.34765e-09
1.7367e-09
7.00097e-09
9.15977e-09
2.56681e-09
7.00994e-09
8.97171e-09
3.3882e-09
7.05047e-09
8.78303e-09
4.21256e-09
7.12369e-09
8.59342e-09
5.05147e-09
7.23128e-09
8.40215e-09
5.91714e-09
7.37547e-09
8.20818e-09
6.82259e-09
7.55886e-09
8.00968e-09
7.78309e-09
7.78304e-09
7.80486e-09
8.08197e-09
7.59378e-09
8.81489e-09
9.40295e-10
9.16055e-09
8.11386e-09
1.83842e-09
8.97298e-09
8.07656e-09
2.70972e-09
8.78437e-09
8.06876e-09
3.56797e-09
8.59411e-09
8.09522e-09
4.42543e-09
8.402e-09
8.15787e-09
5.29385e-09
8.2074e-09
8.25864e-09
6.18492e-09
8.00915e-09
8.39986e-09
7.11061e-09
7.80541e-09
8.58416e-09
8.08182e-09
7.59364e-09
8.81476e-09
7.37423e-09
9.11857e-09
9.11853e-09
7.43362e-10
7.4337e-10
9.21581e-09
1.47069e-09
7.47343e-10
9.04637e-09
2.19276e-09
7.54404e-10
8.86828e-09
2.91997e-09
7.65219e-10
8.68237e-09
3.66288e-09
7.80111e-10
8.48695e-09
4.43249e-09
7.99387e-10
8.279e-09
5.24067e-09
8.23486e-10
8.05443e-09
6.10058e-09
8.53086e-10
7.8078e-09
7.02691e-09
8.89337e-10
7.53192e-09
9.3456e-10
7.21714e-09
8.03573e-09
7.47305e-10
1.47068e-09
9.04613e-09
1.47809e-09
1.4781e-09
8.87861e-09
2.20271e-09
1.49147e-09
8.70261e-09
2.9312e-09
1.5119e-09
8.51825e-09
3.67381e-09
1.53994e-09
8.32453e-09
4.44115e-09
1.57628e-09
8.11903e-09
5.24467e-09
1.62167e-09
7.8981e-09
6.09706e-09
1.67722e-09
7.65681e-09
7.01273e-09
1.74469e-09
7.38869e-09
1.82861e-09
7.08478e-09
8.00686e-09
7.54349e-10
2.19275e-09
8.86808e-09
1.4914e-09
2.20267e-09
8.70238e-09
2.22129e-09
2.22128e-09
8.52859e-09
2.95356e-09
2.25005e-09
8.34606e-09
3.69814e-09
2.28955e-09
8.15379e-09
4.46541e-09
2.3407e-09
7.95007e-09
5.26641e-09
2.40464e-09
7.7318e-09
6.11333e-09
2.48278e-09
7.4945e-09
7.02015e-09
2.57712e-09
7.23242e-09
2.69463e-09
6.93758e-09
8.00089e-09
7.65203e-10
2.91998e-09
8.68235e-09
1.51182e-09
2.93119e-09
8.51809e-09
2.24997e-09
2.9535e-09
8.34585e-09
2.98899e-09
2.98897e-09
8.16497e-09
3.73833e-09
3.03818e-09
7.97412e-09
4.50806e-09
3.10197e-09
7.77166e-09
5.30901e-09
3.18171e-09
7.55515e-09
6.15286e-09
3.27922e-09
7.32076e-09
7.053e-09
3.39666e-09
7.06332e-09
3.54389e-09
6.7759e-09
8.02193e-09
7.80117e-10
3.66289e-09
8.48699e-09
1.53992e-09
3.67382e-09
8.32453e-09
2.28945e-09
3.69812e-09
8.15365e-09
3.03809e-09
3.73824e-09
7.97394e-09
3.79506e-09
3.795e-09
7.78435e-09
4.56993e-09
3.86928e-09
7.5831e-09
5.37314e-09
3.96226e-09
7.36781e-09
6.21625e-09
4.07589e-09
7.13538e-09
7.11203e-09
4.2128e-09
6.88147e-09
4.38624e-09
6.60013e-09
8.07154e-09
7.99394e-10
4.43251e-09
8.27905e-09
1.57629e-09
4.44117e-09
8.11908e-09
2.34067e-09
4.46542e-09
7.95006e-09
3.10184e-09
4.50803e-09
7.77153e-09
3.86917e-09
4.56979e-09
7.5829e-09
4.65202e-09
4.65188e-09
7.3828e-09
5.46015e-09
4.75558e-09
7.16876e-09
6.30473e-09
4.88238e-09
6.93779e-09
7.19841e-09
5.03496e-09
6.68641e-09
5.23098e-09
6.41e-09
8.15104e-09
8.23493e-10
5.2407e-09
8.05448e-09
1.62168e-09
5.2447e-09
7.89814e-09
2.40465e-09
5.26644e-09
7.73183e-09
3.18167e-09
5.30903e-09
7.55515e-09
3.96205e-09
5.37311e-09
7.36764e-09
4.75537e-09
5.45989e-09
7.16845e-09
5.57122e-09
5.5711e-09
6.95573e-09
6.41983e-09
5.70811e-09
6.7263e-09
7.31358e-09
5.87272e-09
6.47689e-09
6.08721e-09
6.20455e-09
8.26192e-09
8.53095e-10
6.10061e-09
7.80785e-09
1.67724e-09
6.09709e-09
7.65685e-09
2.4828e-09
6.11336e-09
7.49454e-09
3.27925e-09
6.15289e-09
7.32078e-09
4.07584e-09
6.21628e-09
7.13534e-09
4.88207e-09
6.3046e-09
6.9375e-09
5.7078e-09
6.41956e-09
6.72598e-09
6.56294e-09
6.5629e-09
6.49811e-09
7.45911e-09
6.73565e-09
6.25073e-09
6.96402e-09
5.98207e-09
8.40571e-09
8.89347e-10
7.02694e-09
7.53196e-09
1.74471e-09
7.01276e-09
7.38873e-09
2.57715e-09
7.02017e-09
7.23245e-09
3.39671e-09
7.05301e-09
7.06335e-09
4.21287e-09
7.11203e-09
6.8815e-09
5.03491e-09
7.19837e-09
6.68633e-09
5.87245e-09
7.31348e-09
6.47672e-09
6.73544e-09
7.45897e-09
6.25062e-09
7.63528e-09
7.63524e-09
6.00544e-09
7.86892e-09
5.7399e-09
8.58425e-09
9.34569e-10
7.21717e-09
8.03576e-09
1.82863e-09
7.0848e-09
8.00688e-09
2.69466e-09
6.9376e-09
8.00091e-09
3.54392e-09
6.77592e-09
8.02195e-09
4.38627e-09
6.60014e-09
8.07154e-09
5.23101e-09
6.41001e-09
8.15103e-09
6.08717e-09
6.20456e-09
8.2619e-09
6.96386e-09
5.98202e-09
8.40566e-09
7.86879e-09
5.73981e-09
8.58414e-09
5.47689e-09
8.81754e-09
8.81751e-09
7.21623e-10
7.21638e-10
7.77255e-09
1.42502e-09
7.24561e-10
7.61841e-09
2.11791e-09
7.29515e-10
7.44588e-09
2.80754e-09
7.37073e-10
7.25566e-09
3.50087e-09
7.47421e-10
7.04621e-09
4.20456e-09
7.60659e-10
6.81465e-09
4.92508e-09
7.76935e-10
6.55697e-09
5.66855e-09
7.96503e-10
6.26783e-09
6.44041e-09
8.1985e-10
5.94022e-09
8.48114e-10
5.56498e-09
7.24446e-09
7.24521e-10
1.42502e-09
7.61823e-09
1.4305e-09
1.43052e-09
7.46667e-09
2.12533e-09
1.43994e-09
7.29737e-09
2.81592e-09
1.45419e-09
7.11053e-09
3.50906e-09
1.47362e-09
6.9052e-09
4.21121e-09
1.4985e-09
6.67905e-09
4.92865e-09
1.52907e-09
6.42851e-09
5.66743e-09
1.56571e-09
6.14882e-09
6.43322e-09
1.60906e-09
5.8337e-09
1.66144e-09
5.47486e-09
7.22981e-09
7.29464e-10
2.1179e-09
7.44573e-09
1.43987e-09
2.12529e-09
7.2972e-09
2.13838e-09
2.13838e-09
7.13163e-09
2.83153e-09
2.1584e-09
6.9487e-09
3.52583e-09
2.1856e-09
6.74751e-09
4.22763e-09
2.22039e-09
6.52638e-09
4.94303e-09
2.2632e-09
6.28227e-09
5.67792e-09
2.31441e-09
6.01091e-09
6.43802e-09
2.37462e-09
5.70676e-09
2.44753e-09
5.36252e-09
7.22698e-09
7.37061e-10
2.80755e-09
7.25564e-09
1.45412e-09
2.81591e-09
7.11042e-09
2.15832e-09
2.83149e-09
6.94855e-09
2.85599e-09
2.85597e-09
6.76974e-09
3.5532e-09
2.88957e-09
6.57294e-09
4.25614e-09
2.93253e-09
6.3566e-09
4.97081e-09
2.98535e-09
6.11832e-09
5.70292e-09
3.04862e-09
5.85443e-09
6.45802e-09
3.12281e-09
5.56003e-09
3.21337e-09
5.22885e-09
7.23924e-09
7.47428e-10
3.50088e-09
7.04624e-09
1.4736e-09
3.50907e-09
6.9052e-09
2.18552e-09
3.52581e-09
6.74742e-09
2.88948e-09
3.55313e-09
6.57281e-09
3.59142e-09
3.59137e-09
6.38061e-09
4.29704e-09
3.64073e-09
6.16926e-09
5.01218e-09
3.70146e-09
5.93657e-09
5.74253e-09
3.77413e-09
5.67952e-09
6.49345e-09
3.85937e-09
5.39399e-09
3.96474e-09
5.07467e-09
7.26754e-09
7.60666e-10
4.20458e-09
6.81468e-09
1.49851e-09
4.21122e-09
6.67908e-09
2.22037e-09
4.22764e-09
6.52637e-09
2.93242e-09
4.25611e-09
6.35651e-09
3.64064e-09
4.29693e-09
6.16913e-09
4.35059e-09
4.35049e-09
5.96308e-09
5.06757e-09
4.41701e-09
5.73623e-09
5.79709e-09
4.49657e-09
5.48583e-09
6.54463e-09
4.58972e-09
5.20852e-09
4.7068e-09
4.9002e-09
7.31237e-09
7.76943e-10
4.9251e-09
6.557e-09
1.52909e-09
4.92867e-09
6.42854e-09
2.26321e-09
4.94305e-09
6.2823e-09
2.98532e-09
4.97083e-09
6.11832e-09
3.70129e-09
5.01215e-09
5.93645e-09
4.41683e-09
5.06737e-09
5.73603e-09
5.1371e-09
5.13701e-09
5.51546e-09
5.86694e-09
5.22097e-09
5.27206e-09
6.61176e-09
5.31897e-09
5.00282e-09
5.44417e-09
4.70496e-09
7.37399e-09
7.96512e-10
5.66858e-09
6.26786e-09
1.56573e-09
5.66745e-09
6.14885e-09
2.31444e-09
5.67794e-09
6.01094e-09
3.04865e-09
5.70294e-09
5.85445e-09
3.7741e-09
5.74255e-09
5.6795e-09
4.49633e-09
5.797e-09
5.48565e-09
5.22073e-09
5.86673e-09
5.27186e-09
5.95193e-09
5.9519e-09
5.03597e-09
6.69485e-09
6.05154e-09
4.77525e-09
6.18092e-09
4.48783e-09
7.45233e-09
8.1986e-10
6.44044e-09
5.94025e-09
1.60907e-09
6.43324e-09
5.83373e-09
2.37465e-09
6.43804e-09
5.70678e-09
3.12285e-09
6.45803e-09
5.56005e-09
3.85943e-09
6.49345e-09
5.39401e-09
4.58969e-09
6.5446e-09
5.20848e-09
5.31876e-09
6.61168e-09
5.00271e-09
6.05137e-09
6.69474e-09
4.77517e-09
6.79234e-09
6.79232e-09
4.52369e-09
6.91904e-09
4.24697e-09
7.54714e-09
8.48123e-10
5.565e-09
7.24448e-09
1.66145e-09
5.47488e-09
7.22983e-09
2.44756e-09
5.36254e-09
7.227e-09
3.2134e-09
5.22886e-09
7.23925e-09
3.96477e-09
5.07468e-09
7.26754e-09
4.70682e-09
4.9002e-09
7.31236e-09
5.44413e-09
4.70496e-09
7.37397e-09
6.1808e-09
4.4878e-09
7.4523e-09
6.91894e-09
4.24693e-09
7.54706e-09
3.98117e-09
7.66686e-09
7.66684e-09
6.62025e-10
6.62041e-10
6.44849e-09
1.30459e-09
6.6378e-10
6.31206e-09
1.93197e-09
6.66412e-10
6.15208e-09
2.54789e-09
6.70382e-10
5.96935e-09
3.15542e-09
6.75731e-10
5.76295e-09
3.7568e-09
6.82378e-10
5.53088e-09
4.35322e-09
6.9021e-10
5.27034e-09
4.94432e-09
6.99103e-10
4.97762e-09
5.52755e-09
7.08969e-10
4.64802e-09
7.19915e-10
4.27575e-09
6.09686e-09
6.63744e-10
1.30459e-09
6.31194e-09
1.30789e-09
1.3079e-09
6.1784e-09
1.93647e-09
1.31294e-09
6.02226e-09
2.553e-09
1.3204e-09
5.84399e-09
3.1605e-09
1.33036e-09
5.64308e-09
3.76117e-09
1.34276e-09
5.41799e-09
4.35628e-09
1.35736e-09
5.16625e-09
4.94571e-09
1.3739e-09
4.88459e-09
5.52749e-09
1.39206e-09
4.56883e-09
1.4123e-09
4.21378e-09
6.09618e-09
6.66371e-10
1.93197e-09
6.15198e-09
1.31288e-09
1.93645e-09
6.02214e-09
1.94341e-09
1.94341e-09
5.87062e-09
2.56117e-09
1.9538e-09
5.69754e-09
3.16901e-09
1.96756e-09
5.50248e-09
3.76917e-09
1.98461e-09
5.28436e-09
4.36293e-09
2.00473e-09
5.04115e-09
4.95033e-09
2.02746e-09
4.76996e-09
5.52981e-09
2.05219e-09
4.46715e-09
2.07985e-09
4.12822e-09
6.09656e-09
6.70373e-10
2.54789e-09
5.96935e-09
1.32034e-09
2.55299e-09
5.84391e-09
1.95374e-09
2.56113e-09
5.69744e-09
2.5736e-09
2.57359e-09
5.53009e-09
3.1825e-09
2.59023e-09
5.34137e-09
3.78259e-09
2.61078e-09
5.13035e-09
4.37521e-09
2.63494e-09
4.89548e-09
4.96049e-09
2.66226e-09
4.63436e-09
5.53708e-09
2.69181e-09
4.34382e-09
2.72523e-09
4.02008e-09
6.10047e-09
6.75738e-10
3.15542e-09
5.76297e-09
1.33035e-09
3.1605e-09
5.64308e-09
1.96749e-09
3.16899e-09
5.50241e-09
2.59017e-09
3.18245e-09
5.34128e-09
3.20081e-09
3.20078e-09
5.15942e-09
3.80129e-09
3.22361e-09
4.95596e-09
4.39288e-09
3.25036e-09
4.72955e-09
4.9759e-09
3.28045e-09
4.47831e-09
5.54917e-09
3.31291e-09
4.19962e-09
3.35029e-09
3.89042e-09
6.10837e-09
6.82385e-10
3.75681e-09
5.53091e-09
1.34277e-09
3.76118e-09
5.41801e-09
1.9846e-09
3.76918e-09
5.28435e-09
2.6107e-09
3.78257e-09
5.13029e-09
3.22353e-09
3.80121e-09
4.95587e-09
3.82487e-09
3.8248e-09
4.76056e-09
4.41567e-09
3.85267e-09
4.54312e-09
4.99623e-09
3.88381e-09
4.30191e-09
5.56572e-09
3.91705e-09
4.0349e-09
3.95623e-09
3.73987e-09
6.12011e-09
6.90216e-10
4.35323e-09
5.27037e-09
1.35738e-09
4.35629e-09
5.16627e-09
2.00474e-09
4.36294e-09
5.04116e-09
2.63492e-09
4.37522e-09
4.89548e-09
3.25024e-09
4.39286e-09
4.72948e-09
3.85255e-09
4.41552e-09
4.543e-09
4.44276e-09
4.4427e-09
4.33522e-09
5.02082e-09
4.47317e-09
4.10464e-09
5.58603e-09
4.50511e-09
3.84955e-09
4.54354e-09
3.56861e-09
6.13506e-09
6.99111e-10
4.94434e-09
4.97765e-09
1.37392e-09
4.94573e-09
4.88461e-09
2.02748e-09
4.95034e-09
4.76998e-09
2.66228e-09
4.9605e-09
4.63438e-09
3.28043e-09
4.97592e-09
4.47829e-09
3.88364e-09
4.99617e-09
4.3018e-09
4.473e-09
5.02068e-09
4.10451e-09
5.04839e-09
5.04838e-09
3.88538e-09
5.60893e-09
5.07692e-09
3.64291e-09
5.11183e-09
3.37639e-09
6.15207e-09
7.08977e-10
5.52756e-09
4.64804e-09
1.39208e-09
5.5275e-09
4.56885e-09
2.05221e-09
5.52982e-09
4.46717e-09
2.69184e-09
5.53709e-09
4.34383e-09
3.31296e-09
5.54917e-09
4.19963e-09
3.91703e-09
5.56569e-09
4.03488e-09
4.50497e-09
5.58597e-09
3.84948e-09
5.07681e-09
5.60886e-09
3.64286e-09
5.63171e-09
5.63169e-09
3.41401e-09
5.65846e-09
3.16257e-09
6.16949e-09
7.19923e-10
4.27576e-09
6.09688e-09
1.41232e-09
4.21379e-09
6.09619e-09
2.07987e-09
4.12823e-09
6.09657e-09
2.72526e-09
4.02009e-09
6.10047e-09
3.35032e-09
3.89043e-09
6.10837e-09
3.95625e-09
3.73987e-09
6.1201e-09
4.54352e-09
3.5686e-09
6.13505e-09
5.11176e-09
3.37637e-09
6.15205e-09
5.65839e-09
3.16255e-09
6.16944e-09
2.92682e-09
6.18561e-09
6.18559e-09
5.81358e-10
5.81371e-10
5.28576e-09
1.1432e-09
5.82073e-10
5.16815e-09
1.68683e-09
5.82721e-10
5.02573e-09
2.21303e-09
5.8364e-10
4.85952e-09
2.7218e-09
5.8478e-10
4.66939e-09
3.21219e-09
5.85962e-10
4.45454e-09
3.68186e-09
5.86939e-10
4.21374e-09
4.12666e-09
5.87399e-10
3.94541e-09
4.53997e-09
5.8697e-10
3.64775e-09
5.85234e-10
3.3188e-09
4.91169e-09
5.82046e-10
1.14319e-09
5.16807e-09
1.14458e-09
1.14459e-09
5.05335e-09
1.68878e-09
1.14588e-09
4.9149e-09
2.2153e-09
1.14758e-09
4.75352e-09
2.72422e-09
1.1496e-09
4.56935e-09
3.21464e-09
1.15168e-09
4.36184e-09
3.68446e-09
1.15337e-09
4.13e-09