/*--------------------------------*- C++ -*----------------------------------*\
| =========                 |                                                 |
| \\      /  F ield         | foam-extend: Open Source CFD                    |
|  \\    /   O peration     | Version:     3.1                                |
|   \\  /    A nd           | Web:         http://www.extend-project.de       |
|    \\/     M anipulation  |                                                 |
\*---------------------------------------------------------------------------*/
FoamFile
{
    version     2.0;
    format      ascii;
    class       pointVectorField;
    location    "0.0006";
    object      pointMotionU;
}
// * * * * * * * * * * * * * * * * * * * * * * * * * * * * * * * * * * * * * //

dimensions      [0 1 -1 0 0 0 0];

internalField   nonuniform List<vector> 
18306
(
(0 0 0)
(0 0 0)
(0 0 0)
(0 0 0)
(0 0 0)
(0 0 0)
(0 0 0)
(0 0 0)
(0 0 0)
(0 0 0)
(0 0 0)
(0 0 0)
(0 0 0)
(0 0 0)
(0 0 0)
(0 0 0)
(0 0 0)
(0 0 0)
(0 0 0)
(0 0 0)
(0 0 0)
(0 0 0)
(0 0 0)
(0 0 0)
(0 0 0)
(0 0 0)
(0 0 0)
(0 0 0)
(0 0 0)
(0 0 0)
(0 0 0)
(0 0 0)
(0 0 0)
(0 0 0)
(0 0 0)
(0 0 0)
(0 0 0)
(0 0 0)
(0 0 0)
(0 0 0)
(0 0 0)
(0 0 0)
(0 0 0)
(0 0 0)
(0 0 0)
(0 0 0)
(0 0 0)
(0 0 0)
(0 0 0)
(0 0 0)
(0 0 0)
(0 0 0)
(0 0 0)
(0 0 0)
(0 0 0)
(0 0 0)
(0 0 0)
(0 0 0)
(0 0 0)
(0 0 0)
(0 0 0)
(0 0 0)
(0 0 0)
(0 0 0)
(0 0 0)
(0 0 0)
(0 0 0)
(0 0 0)
(0 0 0)
(0 0 0)
(0 0 0)
(0 0 0)
(0 0 0)
(0 0 0)
(0 0 0)
(0 0 0)
(0 0 0)
(0 0 0)
(0 0 0)
(0 0 0)
(0 0 0)
(0 0 0)
(0 0 0)
(0 0 0)
(0 0 0)
(0 0 0)
(0 0 0)
(0 0 0)
(0 0 0)
(0 0 0)
(0 0 0)
(0 0 0)
(0 0 0)
(0 0 0)
(0 0 0)
(0 0 0)
(0 0 0)
(0 0 0)
(0 0 0)
(0 0 0)
(0 0 0)
(0 0 0)
(0 0 0)
(0 0 0)
(0 0 0)
(0 0 0)
(0 0 0)
(0 0 0)
(0 0 0)
(0 0 0)
(0 0 0)
(0 0 0)
(0 0 0)
(0 0 0)
(0 0 0)
(0 0 0)
(0 0 0)
(0 0 0)
(0 0 0)
(0 0 0)
(0 0 0)
(0 0 2.70764e-08)
(8.39546e-09 0 2.77897e-08)
(1.66666e-08 0 2.99477e-08)
(2.48146e-08 0 3.35902e-08)
(3.29781e-08 0 3.88594e-08)
(4.12332e-08 0 4.5993e-08)
(4.95459e-08 0 5.53056e-08)
(5.77353e-08 0 6.71694e-08)
(6.54051e-08 0 8.19736e-08)
(7.18379e-08 0 1.00074e-07)
(7.58599e-08 0 1.22056e-07)
(0 6.01071e-09 2.77969e-08)
(8.22006e-09 5.90686e-09 2.85005e-08)
(1.63883e-08 5.63561e-09 3.06244e-08)
(2.4486e-08 5.31096e-09 3.4217e-08)
(3.26023e-08 4.99012e-09 3.94224e-08)
(4.08075e-08 4.69206e-09 4.64737e-08)
(4.90678e-08 4.42479e-09 5.56708e-08)
(5.7209e-08 4.18267e-09 6.73678e-08)
(6.48605e-08 3.93907e-09 8.19096e-08)
(7.13716e-08 3.64233e-09 9.95443e-08)
(7.57474e-08 3.13405e-09 1.20408e-07)
(0 1.18976e-08 2.99813e-08)
(7.77331e-09 1.17349e-08 3.0648e-08)
(1.56195e-08 1.12847e-08 3.26708e-08)
(2.35233e-08 1.0679e-08 3.6116e-08)
(3.14899e-08 1.00445e-08 4.11279e-08)
(3.95395e-08 9.45361e-09 4.79294e-08)
(4.76422e-08 8.92857e-09 5.67991e-08)
(5.56373e-08 8.46399e-09 6.80361e-08)
(6.31925e-08 8.00963e-09 8.18733e-08)
(6.97913e-08 7.46256e-09 9.83705e-08)
(7.48573e-08 6.50597e-09 1.17365e-07)
(0 1.76815e-08 3.36683e-08)
(7.20234e-09 1.74753e-08 3.42809e-08)
(1.45422e-08 1.68936e-08 3.6149e-08)
(2.20508e-08 1.60555e-08 3.936e-08)
(2.97221e-08 1.51166e-08 4.40649e-08)
(3.75073e-08 1.42229e-08 5.04764e-08)
(4.53349e-08 1.3445e-08 5.88488e-08)
(5.30508e-08 1.27813e-08 6.94247e-08)
(6.03472e-08 1.21645e-08 8.23278e-08)
(6.67897e-08 1.14545e-08 9.74804e-08)
(7.21656e-08 1.01717e-08 1.14539e-07)
(0 2.34858e-08 3.89904e-08)
(6.54629e-09 2.322e-08 3.95363e-08)
(1.32776e-08 2.24699e-08 4.12001e-08)
(2.0235e-08 2.1378e-08 4.40908e-08)
(2.74351e-08 2.01249e-08 4.83834e-08)
(3.48273e-08 1.88987e-08 5.42899e-08)
(4.22767e-08 1.78401e-08 6.20446e-08)
(4.95782e-08 1.69861e-08 7.185e-08)
(5.64229e-08 1.62583e-08 8.37683e-08)
(6.23862e-08 1.5485e-08 9.76454e-08)
(6.75107e-08 1.40398e-08 1.12983e-07)
(0 2.93952e-08 4.6175e-08)
(5.82632e-09 2.9044e-08 4.66331e-08)
(1.18735e-08 2.80466e-08 4.80303e-08)
(1.81951e-08 2.65957e-08 5.05065e-08)
(2.47964e-08 2.49471e-08 5.42748e-08)
(3.16472e-08 2.33368e-08 5.95709e-08)
(3.86199e-08 2.19494e-08 6.66297e-08)
(4.54334e-08 2.08777e-08 7.5618e-08)
(5.16914e-08 2.00693e-08 8.65724e-08)
(5.69368e-08 1.93233e-08 9.93172e-08)
(6.13894e-08 1.7907e-08 1.13161e-07)
(0 3.54585e-08 5.55301e-08)
(5.05565e-09 3.4975e-08 5.58609e-08)
(1.03547e-08 3.36145e-08 5.68999e-08)
(1.59797e-08 3.16447e-08 5.88407e-08)
(2.19277e-08 2.94339e-08 6.19561e-08)
(2.81477e-08 2.73234e-08 6.653e-08)
(3.45318e-08 2.55437e-08 7.28079e-08)
(4.08114e-08 2.4209e-08 8.09475e-08)
(4.64777e-08 2.33074e-08 9.09648e-08)
(5.09572e-08 2.26352e-08 1.02663e-07)
(5.45674e-08 2.14349e-08 1.15151e-07)
(0 4.16781e-08 6.74332e-08)
(4.23557e-09 4.09915e-08 6.75741e-08)
(8.73566e-09 3.90885e-08 6.80954e-08)
(1.36086e-08 3.6374e-08 6.93075e-08)
(1.88697e-08 3.33726e-08 7.15937e-08)
(2.44536e-08 3.05673e-08 7.5307e-08)
(3.02198e-08 2.82769e-08 8.07027e-08)
(3.59274e-08 2.66297e-08 8.79377e-08)
(4.10656e-08 2.56055e-08 9.69671e-08)
(4.49263e-08 2.49958e-08 1.07578e-07)
(4.77717e-08 2.41436e-08 1.18752e-07)
(0 4.79942e-08 8.23037e-08)
(3.35328e-09 4.69938e-08 8.21358e-08)
(6.99548e-09 4.42707e-08 8.18415e-08)
(1.10622e-08 4.04896e-08 8.19994e-08)
(1.55967e-08 3.64177e-08 8.32076e-08)
(2.05548e-08 3.26917e-08 8.59006e-08)
(2.57793e-08 2.9725e-08 9.03179e-08)
(3.09904e-08 2.76852e-08 9.65443e-08)
(3.57035e-08 2.65201e-08 1.04427e-07)
(3.91712e-08 2.59525e-08 1.13781e-07)
(4.14976e-08 2.54844e-08 1.23537e-07)
(0 5.42867e-08 1.00584e-07)
(2.37698e-09 5.27749e-08 9.98492e-08)
(5.07553e-09 4.87954e-08 9.8195e-08)
(8.26821e-09 4.35162e-08 9.68003e-08)
(1.20267e-08 3.80536e-08 9.6601e-08)
(1.6341e-08 3.31943e-08 9.81001e-08)
(2.10878e-08 2.94079e-08 1.01458e-07)
(2.59719e-08 2.69007e-08 1.06598e-07)
(3.04827e-08 2.56117e-08 1.13218e-07)
(3.38615e-08 2.5158e-08 1.20998e-07)
(3.59915e-08 2.50839e-08 1.28775e-07)
(0 6.05098e-08 1.2308e-07)
(1.2128e-09 5.81329e-08 1.20996e-07)
(2.79804e-09 5.23747e-08 1.17027e-07)
(4.93849e-09 4.52539e-08 1.13345e-07)
(7.72444e-09 3.82257e-08 1.11244e-07)
(1.11991e-08 3.20904e-08 1.11185e-07)
(1.53309e-08 2.72943e-08 1.13177e-07)
(1.99267e-08 2.41038e-08 1.16986e-07)
(2.45424e-08 2.25758e-08 1.22177e-07)
(2.85025e-08 2.24265e-08 1.28012e-07)
(3.11814e-08 2.2971e-08 1.33794e-07)
(0 0 4.37094e-08)
(1.60766e-08 0 4.4898e-08)
(3.19643e-08 0 4.84712e-08)
(4.77238e-08 0 5.45075e-08)
(6.37005e-08 0 6.32537e-08)
(8.01608e-08 0 7.51293e-08)
(9.72282e-08 0 9.07091e-08)
(1.14854e-07 0 1.10717e-07)
(1.32743e-07 0 1.36005e-07)
(1.50251e-07 0 1.67552e-07)
(1.66415e-07 0 2.071e-07)
(0 1.14333e-08 4.49217e-08)
(1.57471e-08 1.12419e-08 4.60946e-08)
(3.14439e-08 1.07388e-08 4.96118e-08)
(4.71126e-08 1.01443e-08 5.55667e-08)
(6.30031e-08 9.57132e-09 6.42098e-08)
(7.93694e-08 9.0626e-09 7.59528e-08)
(9.63304e-08 8.64348e-09 9.13458e-08)
(1.13839e-07 8.31865e-09 1.11081e-07)
(1.31622e-07 8.05992e-09 1.35928e-07)
(1.49085e-07 7.80271e-09 1.66656e-07)
(1.65309e-07 7.26653e-09 2.04126e-07)
(0 2.26803e-08 4.85723e-08)
(1.49027e-08 2.23825e-08 4.9685e-08)
(2.99935e-08 2.15503e-08 5.30352e-08)
(4.53001e-08 2.0442e-08 5.87474e-08)
(6.09097e-08 1.93074e-08 6.7073e-08)
(7.69751e-08 1.82983e-08 7.84076e-08)
(9.36122e-08 1.74779e-08 9.32654e-08)
(1.10773e-07 1.68668e-08 1.12242e-07)
(1.28191e-07 1.64131e-08 1.35901e-07)
(1.45384e-07 1.59837e-08 1.64645e-07)
(1.61923e-07 1.49981e-08 1.98677e-07)
(0 3.38381e-08 5.47366e-08)
(1.38293e-08 3.34615e-08 5.57611e-08)
(2.79693e-08 3.23871e-08 5.88568e-08)
(4.25358e-08 3.0853e-08 6.41844e-08)
(5.75924e-08 2.91689e-08 7.2008e-08)
(7.31531e-08 2.76354e-08 8.27074e-08)
(8.92414e-08 2.64193e-08 9.67569e-08)
(1.05794e-07 2.55636e-08 1.14655e-07)
(1.22533e-07 2.50042e-08 1.36771e-07)
(1.39024e-07 2.45639e-08 1.63244e-07)
(1.55343e-07 2.33423e-08 1.93873e-07)
(0 4.52183e-08 6.36434e-08)
(1.26053e-08 4.47305e-08 6.456e-08)
(2.56113e-08 4.33372e-08 6.73205e-08)
(3.91505e-08 4.13281e-08 7.21243e-08)
(5.33282e-08 3.90676e-08 7.92765e-08)
(6.8151e-08 3.69445e-08 8.91581e-08)
(8.35091e-08 3.52711e-08 1.02212e-07)
(9.92212e-08 3.41801e-08 1.18874e-07)
(1.14976e-07 3.36063e-08 1.39408e-07)
(1.30308e-07 3.33374e-08 1.6382e-07)
(1.45683e-07 3.2171e-08 1.91598e-07)
(0 5.70961e-08 7.56928e-08)
(1.12775e-08 5.64442e-08 7.64677e-08)
(2.30239e-08 5.45708e-08 7.87921e-08)
(3.53936e-08 5.18709e-08 8.292e-08)
(4.84667e-08 4.88649e-08 8.92226e-08)
(6.22869e-08 4.60428e-08 9.81234e-08)
(7.6755e-08 4.38099e-08 1.10071e-07)
(9.15316e-08 4.24191e-08 1.25445e-07)
(1.06124e-07 4.1878e-08 1.44481e-07)
(1.19997e-07 4.19434e-08 1.67159e-07)
(1.33902e-07 4.11723e-08 1.9261e-07)
(0 6.97391e-08 9.14434e-08)
(9.88152e-09 6.88251e-08 9.20122e-08)
(2.02759e-08 6.62291e-08 9.37509e-08)
(3.13909e-08 6.25074e-08 9.70084e-08)
(4.32863e-08 5.84135e-08 1.02259e-07)
(5.59623e-08 5.46543e-08 1.10009e-07)
(6.93576e-08 5.17305e-08 1.20732e-07)
(8.31585e-08 4.99423e-08 1.348e-07)
(9.665e-08 4.93936e-08 1.52426e-07)
(1.09073e-07 4.98628e-08 1.73581e-07)
(1.21337e-07 4.98112e-08 1.97026e-07)
(0 8.3422e-08 1.11615e-07)
(8.43586e-09 8.20918e-08 1.11875e-07)
(1.7427e-08 7.83837e-08 1.12763e-07)
(2.72273e-08 7.31574e-08 1.14835e-07)
(3.79283e-08 6.74998e-08 1.18755e-07)
(4.94976e-08 6.24067e-08 1.2515e-07)
(6.18052e-08 5.85523e-08 1.34511e-07)
(7.45975e-08 5.6264e-08 1.47218e-07)
(8.71476e-08 5.56237e-08 1.63388e-07)
(9.84352e-08 5.64318e-08 1.82987e-07)
(1.09244e-07 5.73049e-08 2.04542e-07)
(0 9.8449e-08 1.37081e-07)
(6.93931e-09 9.64456e-08 1.36829e-07)
(1.44827e-08 9.09866e-08 1.3636e-07)
(2.29331e-08 8.35355e-08 1.36706e-07)
(3.24323e-08 7.57143e-08 1.38902e-07)
(4.29842e-08 6.88287e-08 1.43715e-07)
(5.44187e-08 6.37166e-08 1.51604e-07)
(6.63911e-08 6.07564e-08 1.62822e-07)
(7.82013e-08 5.99383e-08 1.77295e-07)
(8.87513e-08 6.09617e-08 1.95056e-07)
(9.84789e-08 6.27265e-08 2.14508e-07)
(0 1.15244e-07 1.68901e-07)
(5.36496e-09 1.12069e-07 1.67683e-07)
(1.13951e-08 1.0378e-07 1.64906e-07)
(1.84637e-08 9.30775e-08 1.62679e-07)
(2.67633e-08 8.23779e-08 1.62628e-07)
(3.63601e-08 7.32699e-08 1.65628e-07)
(4.71421e-08 6.66375e-08 1.71989e-07)
(5.87051e-08 6.28555e-08 1.81664e-07)
(7.02477e-08 6.18322e-08 1.94287e-07)
(8.05432e-08 6.30118e-08 2.09592e-07)
(8.94064e-08 6.53346e-08 2.25692e-07)
(0 1.34874e-07 2.09041e-07)
(3.5545e-09 1.29457e-07 2.05429e-07)
(7.84834e-09 1.16797e-07 1.98599e-07)
(1.32827e-08 1.01809e-07 1.92491e-07)
(2.00826e-08 8.77094e-08 1.89358e-07)
(2.84089e-08 7.60386e-08 1.89971e-07)
(3.83148e-08 6.75051e-08 1.94348e-07)
(4.95742e-08 6.24688e-08 2.02131e-07)
(6.14634e-08 6.09333e-08 2.12643e-07)
(7.26605e-08 6.22488e-08 2.24637e-07)
(8.18428e-08 6.50628e-08 2.36914e-07)
(0 0 4.31839e-08)
(2.22158e-08 0 4.44357e-08)
(4.424e-08 0 4.81877e-08)
(6.62383e-08 0 5.45238e-08)
(8.87997e-08 0 6.3702e-08)
(1.12458e-07 0 7.61673e-08)
(1.37636e-07 0 9.25413e-08)
(1.64651e-07 0 1.1363e-07)
(1.93684e-07 0 1.40429e-07)
(2.24738e-07 0 1.74159e-07)
(2.58024e-07 0 2.17029e-07)
(0 1.55517e-08 4.44893e-08)
(2.17652e-08 1.52978e-08 4.57245e-08)
(4.35304e-08 1.46297e-08 4.94169e-08)
(6.54076e-08 1.38514e-08 5.56668e-08)
(8.78532e-08 1.31232e-08 6.47368e-08)
(1.11382e-07 1.25136e-08 7.70641e-08)
(1.36403e-07 1.20718e-08 9.32452e-08)
(1.63225e-07 1.1825e-08 1.14053e-07)
(1.9202e-07 1.17635e-08 1.40391e-07)
(2.22757e-07 1.18397e-08 1.73248e-07)
(2.55328e-07 1.16867e-08 2.13836e-07)
(0 3.09244e-08 4.84064e-08)
(2.06079e-08 3.05308e-08 4.9578e-08)
(4.15446e-08 2.94277e-08 5.30931e-08)
(6.29295e-08 2.79751e-08 5.90852e-08)
(8.49914e-08 2.65275e-08 6.78199e-08)
(1.08098e-07 2.53136e-08 7.97198e-08)
(1.32643e-07 2.44495e-08 9.53446e-08)
(1.58896e-07 2.40048e-08 1.15366e-07)
(1.86956e-07 2.39647e-08 1.40465e-07)
(2.16757e-07 2.42235e-08 1.71216e-07)
(2.48457e-07 2.40007e-08 2.08055e-07)
(0 4.63374e-08 5.50128e-08)
(1.91423e-08 4.58387e-08 5.60913e-08)
(3.87811e-08 4.44104e-08 5.93367e-08)
(5.9157e-08 4.23917e-08 6.49219e-08)
(8.04634e-08 4.02273e-08 7.31269e-08)
(1.02869e-07 3.8361e-08 8.43611e-08)
(1.26621e-07 3.70669e-08 9.91457e-08)
(1.51934e-07 3.64659e-08 1.18052e-07)
(1.78814e-07 3.65522e-08 1.41554e-07)
(2.07127e-07 3.7193e-08 1.69938e-07)
(2.37491e-07 3.71602e-08 2.03159e-07)
(0 6.23306e-08 6.45465e-08)
(1.74814e-08 6.16784e-08 6.55114e-08)
(3.55818e-08 5.98067e-08 6.84018e-08)
(5.45618e-08 5.71349e-08 7.34333e-08)
(7.46702e-08 5.41946e-08 8.0931e-08)
(9.60598e-08 5.15627e-08 9.13076e-08)
(1.1878e-07 4.97281e-08 1.05057e-07)
(1.42854e-07 4.89552e-08 1.22687e-07)
(1.68204e-07 4.92612e-08 1.44569e-07)
(1.94589e-07 5.04963e-08 1.70847e-07)
(2.23071e-07 5.10038e-08 2.01132e-07)
(0 7.94472e-08 7.74336e-08)
(1.56989e-08 7.85617e-08 7.82494e-08)
(3.21091e-08 7.60041e-08 8.06783e-08)
(4.95168e-08 7.23527e-08 8.49962e-08)
(6.81307e-08 6.83718e-08 9.15998e-08)
(8.81516e-08 6.47927e-08 1.00949e-07)
(1.09639e-07 6.22439e-08 1.13546e-07)
(1.32382e-07 6.11698e-08 1.29849e-07)
(1.56031e-07 6.17146e-08 1.50205e-07)
(1.80246e-07 6.37136e-08 1.74747e-07)
(2.06454e-07 6.51552e-08 2.027e-07)
(0 9.83036e-08 9.42812e-08)
(1.38586e-08 9.70351e-08 9.48804e-08)
(2.84872e-08 9.342e-08 9.6691e-08)
(4.42398e-08 8.82855e-08 1.00092e-07)
(6.12896e-08 8.27451e-08 1.0559e-07)
(7.97694e-08 7.78501e-08 1.13737e-07)
(9.97895e-08 7.43687e-08 1.25061e-07)
(1.21177e-07 7.28147e-08 1.40017e-07)
(1.43264e-07 7.34827e-08 1.5894e-07)
(1.654e-07 7.6266e-08 1.81964e-07)
(1.89239e-07 7.89849e-08 2.0793e-07)
(0 1.19649e-07 1.15893e-07)
(1.20086e-08 1.17756e-07 1.16167e-07)
(2.48436e-08 1.1247e-07 1.1708e-07)
(3.89147e-08 1.05101e-07 1.19234e-07)
(5.44294e-08 9.72742e-08 1.23341e-07)
(7.14646e-08 9.04636e-08 1.30077e-07)
(9.00243e-08 8.56766e-08 1.39991e-07)
(1.10026e-07 8.34574e-08 1.53548e-07)
(1.30777e-07 8.40572e-08 1.70981e-07)
(1.51252e-07 8.74277e-08 1.92437e-07)
(1.72947e-07 9.15734e-08 2.16503e-07)
(0 1.44457e-07 1.4328e-07)
(1.01788e-08 1.41513e-07 1.43012e-07)
(2.12483e-08 1.33511e-07 1.42487e-07)
(3.36753e-08 1.22752e-07 1.42827e-07)
(4.77242e-08 1.11706e-07 1.45142e-07)
(6.35108e-08 1.02294e-07 1.50248e-07)
(8.09675e-08 9.57137e-08 1.58654e-07)
(9.98641e-08 9.25379e-08 1.70684e-07)
(1.19519e-07 9.28485e-08 1.86364e-07)
(1.38794e-07 9.64887e-08 2.05921e-07)
(1.58662e-07 1.01826e-07 2.27794e-07)
(0 1.74138e-07 1.77724e-07)
(8.37513e-09 1.69282e-07 1.76419e-07)
(1.77183e-08 1.5671e-07 1.73428e-07)
(2.8583e-08 1.40849e-07 1.71058e-07)
(4.12874e-08 1.25449e-07 1.71051e-07)
(5.60167e-08 1.12802e-07 1.74324e-07)
(7.27686e-08 1.04065e-07 1.81202e-07)
(9.11956e-08 9.96883e-08 1.9167e-07)
(1.10425e-07 9.95607e-08 2.0543e-07)
(1.29032e-07 1.03131e-07 2.22368e-07)
(1.46876e-07 1.08786e-07 2.40567e-07)
(0 2.11594e-07 2.21611e-07)
(6.40103e-09 2.02791e-07 2.17688e-07)
(1.38443e-08 1.82755e-07 2.10301e-07)
(2.29227e-08 1.59842e-07 2.03808e-07)
(3.39763e-08 1.39137e-07 2.00622e-07)
(4.72914e-08 1.22729e-07 2.01508e-07)
(6.30668e-08 1.11316e-07 2.06431e-07)
(8.11763e-08 1.0512e-07 2.15e-07)
(1.00818e-07 1.03996e-07 2.26548e-07)
(1.20209e-07 1.06996e-07 2.39821e-07)
(1.37461e-07 1.12344e-07 2.53637e-07)
(0 0 2.45386e-08)
(2.59531e-08 0 2.54256e-08)
(5.1724e-08 0 2.80767e-08)
(7.75574e-08 0 3.25352e-08)
(1.04213e-07 0 3.89541e-08)
(1.32417e-07 0 4.76038e-08)
(1.6282e-07 0 5.88604e-08)
(1.96014e-07 0 7.32045e-08)
(2.32525e-07 0 9.12107e-08)
(2.72793e-07 0 1.13556e-07)
(3.17781e-07 0 1.41482e-07)
(0 1.75922e-08 2.55173e-08)
(2.54238e-08 1.73075e-08 2.6392e-08)
(5.08902e-08 1.65585e-08 2.89985e-08)
(7.65816e-08 1.56947e-08 3.33927e-08)
(1.03103e-07 1.49061e-08 3.97322e-08)
(1.31159e-07 1.4281e-08 4.82834e-08)
(1.61381e-07 1.38883e-08 5.94076e-08)
(1.94346e-07 1.37752e-08 7.35663e-08)
(2.30553e-07 1.3951e-08 9.12807e-08)
(2.70358e-07 1.43865e-08 1.13085e-07)
(3.1415e-07 1.4663e-08 1.39592e-07)
(0 3.50416e-08 2.84428e-08)
(2.40606e-08 3.45992e-08 2.92706e-08)
(4.85494e-08 3.33585e-08 3.17456e-08)
(7.36596e-08 3.1739e-08 3.59483e-08)
(9.97302e-08 3.01596e-08 4.20417e-08)
(1.27294e-07 2.89025e-08 5.02869e-08)
(1.56959e-07 2.81264e-08 6.10262e-08)
(1.89245e-07 2.79428e-08 7.4662e-08)
(2.24529e-07 2.83743e-08 9.15827e-08)
(2.63038e-07 2.93478e-08 1.12077e-07)
(3.05277e-07 2.99677e-08 1.36282e-07)
(0 5.26691e-08 3.33486e-08)
(2.23311e-08 5.21033e-08 3.41075e-08)
(4.52871e-08 5.04821e-08 3.63826e-08)
(6.92045e-08 4.82091e-08 4.02836e-08)
(9.43831e-08 4.58168e-08 4.59861e-08)
(1.21121e-07 4.38448e-08 5.37484e-08)
(1.49851e-07 4.26459e-08 6.3895e-08)
(1.81015e-07 4.24053e-08 7.67723e-08)
(2.14851e-07 4.31732e-08 9.2647e-08)
(2.51451e-07 4.48676e-08 1.11641e-07)
(2.91752e-07 4.60891e-08 1.33605e-07)
(0 7.11863e-08 4.03741e-08)
(2.03707e-08 7.04353e-08 4.1048e-08)
(4.15083e-08 6.82778e-08 4.30587e-08)
(6.37725e-08 6.522e-08 4.65477e-08)
(8.75292e-08 6.19086e-08 5.17242e-08)
(1.13059e-07 5.90491e-08 5.88529e-08)
(1.40557e-07 5.72523e-08 6.82477e-08)
(1.70233e-07 5.68807e-08 8.02239e-08)
(2.0221e-07 5.80261e-08 9.49912e-08)
(2.36438e-07 6.06053e-08 1.12597e-07)
(2.74364e-07 6.27532e-08 1.32689e-07)
(0 9.13553e-08 4.97851e-08)
(1.8272e-08 9.03171e-08 5.03476e-08)
(3.74154e-08 8.73146e-08 5.20136e-08)
(5.78163e-08 8.30527e-08 5.49687e-08)
(7.97905e-08 7.84659e-08 5.94746e-08)
(1.03675e-07 7.44532e-08 6.58301e-08)
(1.29679e-07 7.17959e-08 7.43588e-08)
(1.57726e-07 7.10701e-08 8.53501e-08)
(1.87617e-07 7.25234e-08 9.90074e-08)
(2.19183e-07 7.6069e-08 1.15378e-07)
(2.54361e-07 7.94725e-08 1.33893e-07)
(0 1.14089e-07 6.1967e-08)
(1.6122e-08 1.12573e-07 6.2369e-08)
(3.3177e-08 1.0825e-07 6.35758e-08)
(5.1623e-08 1.0214e-07 6.58451e-08)
(7.17267e-08 9.56113e-08 6.95167e-08)
(9.37394e-08 8.99515e-08 7.49536e-08)
(1.17928e-07 8.61077e-08 8.24968e-08)
(1.44269e-07 8.47345e-08 9.24341e-08)
(1.72174e-07 8.62529e-08 1.04968e-07)
(2.01106e-07 9.06471e-08 1.20148e-07)
(2.33364e-07 9.55289e-08 1.37197e-07)
(0 1.40544e-07 7.74317e-08)
(1.39961e-08 1.38238e-07 7.75959e-08)
(2.89798e-08 1.31801e-07 7.81454e-08)
(4.54615e-08 1.22877e-07 7.94931e-08)
(6.37352e-08 1.13477e-07 8.21178e-08)
(8.39749e-08 1.054e-07 8.64671e-08)
(1.06314e-07 9.98605e-08 9.28942e-08)
(1.30838e-07 9.75336e-08 1.0169e-07)
(1.56927e-07 9.87745e-08 1.12991e-07)
(1.83586e-07 1.03634e-07 1.26858e-07)
(2.13004e-07 1.09956e-07 1.42384e-07)
(0 1.72256e-07 9.68176e-08)
(1.19561e-08 1.686e-07 9.65927e-08)
(2.49594e-08 1.58677e-07 9.6109e-08)
(3.95671e-08 1.45438e-07 9.61397e-08)
(5.61195e-08 1.31974e-07 9.74344e-08)
(7.48186e-08 1.20607e-07 1.00527e-07)
(9.57013e-08 1.12741e-07 1.05736e-07)
(1.1867e-07 1.09033e-07 1.13257e-07)
(1.4312e-07 1.09616e-07 1.23095e-07)
(1.67907e-07 1.1442e-07 1.35373e-07)
(1.94601e-07 1.21692e-07 1.49107e-07)
(0 2.11437e-07 1.20923e-07)
(1.00428e-08 2.0527e-07 1.19966e-07)
(2.12039e-08 1.89385e-07 1.17738e-07)
(3.41147e-08 1.6958e-07 1.15841e-07)
(4.91451e-08 1.50595e-07 1.15451e-07)
(6.65514e-08 1.35158e-07 1.17145e-07)
(8.64336e-08 1.24508e-07 1.21096e-07)
(1.08553e-07 1.19063e-07 1.2727e-07)
(1.3209e-07 1.18692e-07 1.35485e-07)
(1.55541e-07 1.22892e-07 1.4569e-07)
(1.79015e-07 1.29907e-07 1.56708e-07)
(0 2.62403e-07 1.51265e-07)
(8.05192e-09 2.50913e-07 1.48484e-07)
(1.72861e-08 2.25063e-07 1.43193e-07)
(2.83554e-08 1.96014e-07 1.38436e-07)
(4.16059e-08 1.70262e-07 1.35833e-07)
(5.73603e-08 1.50152e-07 1.35816e-07)
(7.59199e-08 1.36156e-07 1.38264e-07)
(9.73032e-08 1.2824e-07 1.42868e-07)
(1.20813e-07 1.26142e-07 1.49225e-07)
(1.44587e-07 1.28902e-07 1.56663e-07)
(1.66559e-07 1.34767e-07 1.64599e-07)
(0 -0 -7.24199e-09)
(2.67605e-08 0 -6.99615e-09)
(5.33083e-08 0 -6.27001e-09)
(7.9875e-08 0 -5.08703e-09)
(1.07226e-07 0 -3.46697e-09)
(1.36094e-07 0 -1.43054e-09)
(1.67119e-07 0 9.85951e-10)
(2.00863e-07 0 3.71037e-09)
(2.37762e-07 0 6.60378e-09)
(2.78062e-07 0 9.41507e-09)
(3.22297e-07 0 1.17459e-08)
(0 1.70545e-08 -6.87172e-09)
(2.62002e-08 1.67749e-08 -6.63004e-09)
(5.24223e-08 1.6041e-08 -5.91963e-09)
(7.8836e-08 1.51994e-08 -4.75902e-09)
(1.0605e-07 1.44449e-08 -3.16387e-09)
(1.34777e-07 1.38744e-08 -1.15287e-09)
(1.65646e-07 1.3565e-08 1.23962e-09)
(1.99213e-07 1.35724e-08 3.9483e-09)
(2.35912e-07 1.39144e-08 6.84506e-09)
(2.75955e-07 1.45708e-08 9.70111e-09)
(3.19412e-07 1.51214e-08 1.21348e-08)
(0 3.39808e-08 -5.77989e-09)
(2.4751e-08 3.3542e-08 -5.55364e-09)
(4.9928e-08 3.23151e-08 -4.88747e-09)
(7.57188e-08 3.07234e-08 -3.79121e-09)
(1.02465e-07 2.9196e-08 -2.27294e-09)
(1.30713e-07 2.80301e-08 -3.42612e-10)
(1.61082e-07 2.74014e-08 1.97518e-09)
(1.94097e-07 2.74376e-08 4.62877e-09)
(2.30123e-07 2.81776e-08 7.51296e-09)
(2.69346e-07 2.95657e-08 1.04507e-08)
(3.12126e-07 3.07147e-08 1.31327e-08)
(0 5.1114e-08 -4.00419e-09)
(2.28954e-08 5.05431e-08 -3.80141e-09)
(4.64264e-08 4.89129e-08 -3.20233e-09)
(7.0938e-08 4.66424e-08 -2.20708e-09)
(9.67426e-08 4.42859e-08 -8.15892e-10)
(1.24156e-07 4.24056e-08 9.73362e-10)
(1.53637e-07 4.13772e-08 3.15143e-09)
(1.85663e-07 4.14088e-08 5.68325e-09)
(2.20504e-07 4.25734e-08 8.48761e-09)
(2.58289e-07 4.48129e-08 1.14342e-08)
(2.99943e-07 4.67758e-08 1.42619e-08)
(0 6.91928e-08 -1.56948e-09)
(2.07728e-08 6.84197e-08 -1.3971e-09)
(4.23321e-08 6.62059e-08 -8.90218e-10)
(6.50546e-08 6.30847e-08 -3.73291e-11)
(8.93312e-08 5.97416e-08 1.1734e-09)
(1.15474e-07 5.69189e-08 2.75296e-09)
(1.43714e-07 5.52554e-08 4.70739e-09)
(1.74309e-07 5.51364e-08 7.02022e-09)
(2.07441e-07 5.6679e-08 9.63015e-09)
(2.43131e-07 5.98282e-08 1.24332e-08)
(2.8293e-07 6.28428e-08 1.52016e-08)
(0 8.90404e-08 1.51641e-09)
(1.84805e-08 8.79507e-08 1.64838e-09)
(3.78547e-08 8.481e-08 2.03225e-09)
(5.85301e-08 8.03673e-08 2.69284e-09)
(8.08523e-08 7.56165e-08 3.65917e-09)
(1.05202e-07 7.1511e-08 4.95285e-09)
(1.31838e-07 6.88689e-08 6.58929e-09)
(1.60736e-07 6.82853e-08 8.56334e-09)
(1.91746e-07 7.00212e-08 1.08308e-08)
(2.24771e-07 7.40151e-08 1.32994e-08)
(2.62005e-07 7.82712e-08 1.57809e-08)
(0 1.11672e-07 5.25537e-09)
(1.6115e-08 1.10057e-07 5.33105e-09)
(3.31787e-08 1.05462e-07 5.55394e-09)
(5.16699e-08 9.89832e-08 5.96549e-09)
(7.18849e-08 9.20794e-08 6.61381e-09)
(9.4118e-08 8.61104e-08 7.53728e-09)
(1.18697e-07 8.20652e-08 8.75417e-09)
(1.45658e-07 8.06143e-08 1.02614e-08)
(1.74443e-07 8.21708e-08 1.20265e-08)
(2.04547e-07 8.67233e-08 1.39593e-08)
(2.38708e-07 9.22509e-08 1.59263e-08)
(0 1.384e-07 9.65068e-09)
(1.37664e-08 1.35914e-07 9.64912e-09)
(2.852e-08 1.2899e-07 9.6573e-09)
(4.47831e-08 1.1941e-07 9.74921e-09)
(6.28724e-08 1.09328e-07 9.99935e-09)
(8.29994e-08 1.00635e-07 1.04615e-08)
(1.05354e-07 9.45801e-08 1.11556e-08)
(1.30091e-07 9.18349e-08 1.20751e-08)
(1.56628e-07 9.2737e-08 1.31838e-08)
(1.83945e-07 9.73076e-08 1.4397e-08)
(2.1479e-07 1.03838e-07 1.56425e-08)
(0 1.70969e-07 1.46918e-08)
(1.1518e-08 1.66993e-07 1.45785e-08)
(2.40584e-08 1.56231e-07 1.42862e-08)
(3.81693e-08 1.41905e-07 1.39646e-08)
(5.41963e-08 1.27341e-07 1.37365e-08)
(7.23695e-08 1.14969e-07 1.36587e-08)
(9.27819e-08 1.06191e-07 1.37368e-08)
(1.15412e-07 1.01624e-07 1.3955e-08)
(1.39721e-07 1.0138e-07 1.42778e-08)
(1.64508e-07 1.05336e-07 1.46452e-08)
(1.91899e-07 1.1218e-07 1.50276e-08)
(0 2.11877e-07 2.03432e-08)
(9.43704e-09 2.05128e-07 2.00464e-08)
(1.99379e-08 1.87794e-07 1.93111e-08)
(3.20886e-08 1.66261e-07 1.84601e-08)
(4.62288e-08 1.45648e-07 1.76864e-08)
(6.26231e-08 1.28761e-07 1.70213e-08)
(8.1438e-08 1.16748e-07 1.64178e-08)
(1.02551e-07 1.09928e-07 1.58352e-08)
(1.25269e-07 1.08157e-07 1.52729e-08)
(1.48088e-07 1.10945e-07 1.47518e-08)
(1.71539e-07 1.16931e-07 1.42971e-08)
(0 2.65892e-07 2.66435e-08)
(7.3607e-09 2.53272e-07 2.59512e-08)
(1.58331e-08 2.24929e-07 2.454e-08)
(2.59737e-08 1.93255e-07 2.30452e-08)
(3.80333e-08 1.65297e-07 2.17226e-08)
(5.22939e-08 1.43347e-07 2.0511e-08)
(6.91162e-08 1.27588e-07 1.92485e-08)
(8.86896e-08 1.17757e-07 1.7832e-08)
(1.10579e-07 1.13594e-07 1.62993e-08)
(1.33229e-07 1.14419e-07 1.48472e-08)
(1.54781e-07 1.18852e-07 1.37315e-08)
(0 -0 -4.33193e-08)
(2.47328e-08 0 -4.37417e-08)
(4.91659e-08 0 -4.50177e-08)
(7.3411e-08 0 -4.72264e-08)
(9.80646e-08 0 -5.05418e-08)
(1.23665e-07 0 -5.52457e-08)
(1.50614e-07 0 -6.17371e-08)
(1.79162e-07 0 -7.0558e-08)
(2.09307e-07 0 -8.24254e-08)
(2.40638e-07 0 -9.82999e-08)
(2.72428e-07 0 -1.19848e-07)
(0 1.39999e-08 -4.3604e-08)
(2.41899e-08 1.3763e-08 -4.40207e-08)
(4.83022e-08 1.31443e-08 -4.52782e-08)
(7.23964e-08 1.24408e-08 -4.74588e-08)
(9.69292e-08 1.18267e-08 -5.07338e-08)
(1.22429e-07 1.1395e-08 -5.53774e-08)
(1.49305e-07 1.12193e-08 -6.17705e-08)
(1.77827e-07 1.13511e-08 -7.04238e-08)
(2.08054e-07 1.18075e-08 -8.19835e-08)
(2.39687e-07 1.25715e-08 -9.72352e-08)
(2.71972e-07 1.32779e-08 -1.17242e-07)
(0 2.78378e-08 -4.44821e-08)
(2.27767e-08 2.74592e-08 -4.48774e-08)
(4.5863e-08 2.64091e-08 -4.60761e-08)
(6.93493e-08 2.50611e-08 -4.81696e-08)
(9.34619e-08 2.37989e-08 -5.13207e-08)
(1.18597e-07 2.28951e-08 -5.57827e-08)
(1.45193e-07 2.25156e-08 -6.18998e-08)
(1.73564e-07 2.27776e-08 -7.0101e-08)
(2.03837e-07 2.37166e-08 -8.0864e-08)
(2.35973e-07 2.52849e-08 -9.46502e-08)
(2.69953e-07 2.67273e-08 -1.1197e-07)
(0 4.17495e-08 -4.60533e-08)
(2.09377e-08 4.12435e-08 -4.64182e-08)
(4.23954e-08 3.98126e-08 -4.75271e-08)
(6.46289e-08 3.78432e-08 -4.94822e-08)
(8.78601e-08 3.58452e-08 -5.24453e-08)
(1.12305e-07 3.43285e-08 -5.66451e-08)
(1.38298e-07 3.3635e-08 -6.23808e-08)
(1.66182e-07 3.39537e-08 -6.9997e-08)
(1.96126e-07 3.53486e-08 -7.98129e-08)
(2.28239e-07 3.77671e-08 -9.2052e-08)
(2.63291e-07 4.01032e-08 -1.06902e-07)
(0 5.63298e-08 -4.84947e-08)
(1.87968e-08 5.56253e-08 -4.88245e-08)
(3.82684e-08 5.36278e-08 -4.98208e-08)
(5.87203e-08 5.08394e-08 -5.15966e-08)
(8.04716e-08 4.79087e-08 -5.43248e-08)
(1.03767e-07 4.55224e-08 -5.82249e-08)
(1.28772e-07 4.42528e-08 -6.35583e-08)
(1.55679e-07 4.44343e-08 -7.06062e-08)
(1.84648e-07 4.61644e-08 -7.95988e-08)
(2.15769e-07 4.93888e-08 -9.06468e-08)
(2.50539e-07 5.27642e-08 -1.03727e-07)
(0 7.22765e-08 -5.20702e-08)
(1.64409e-08 7.12593e-08 -5.23557e-08)
(3.3664e-08 6.83574e-08 -5.32129e-08)
(5.20205e-08 6.42837e-08 -5.47736e-08)
(7.18101e-08 5.99815e-08 -5.72318e-08)
(9.33662e-08 5.63476e-08 -6.08212e-08)
(1.16912e-07 5.41243e-08 -6.57959e-08)
(1.42411e-07 5.3817e-08 -7.23924e-08)
(1.69735e-07 5.56199e-08 -8.08046e-08)
(1.98858e-07 5.94631e-08 -9.11265e-08)
(2.32021e-07 6.39419e-08 -1.03102e-07)
(0 9.0488e-08 -5.71321e-08)
(1.39596e-08 8.89559e-08 -5.73531e-08)
(2.87502e-08 8.46339e-08 -5.80248e-08)
(4.47987e-08 7.8577e-08 -5.93189e-08)
(6.23759e-08 7.21741e-08 -6.14715e-08)
(8.17549e-08 6.66978e-08 -6.47492e-08)
(1.03243e-07 6.30509e-08 -6.94178e-08)
(1.26881e-07 6.18067e-08 -7.57081e-08)
(1.52152e-07 6.32527e-08 -8.37931e-08)
(1.78607e-07 6.73235e-08 -9.37691e-08)
(2.09167e-07 7.27832e-08 -1.05119e-07)
(0 1.12159e-07 -6.41353e-08)
(1.14432e-08 1.09779e-07 -6.42534e-08)
(2.37378e-08 1.03193e-07 -6.46416e-08)
(3.73519e-08 9.41244e-08 -6.55625e-08)
(5.25836e-08 8.4637e-08 -6.73388e-08)
(6.96439e-08 7.64901e-08 -7.02923e-08)
(8.87297e-08 7.08031e-08 -7.46989e-08)
(1.10003e-07 6.81383e-08 -8.07971e-08)
(1.32932e-07 6.87117e-08 -8.87099e-08)
(1.56531e-07 7.24247e-08 -9.85348e-08)
(1.83864e-07 7.84384e-08 -1.09546e-07)
(0 1.38914e-07 -7.36516e-08)
(8.98338e-09 1.35089e-07 -7.3583e-08)
(1.88233e-08 1.24793e-07 -7.34793e-08)
(3e-08 1.11149e-07 -7.38113e-08)
(4.28344e-08 9.73423e-08 -7.50739e-08)
(5.75638e-08 8.56279e-08 -7.76662e-08)
(7.43214e-08 7.72273e-08 -8.18583e-08)
(9.31371e-08 7.26163e-08 -8.78223e-08)
(1.1356e-07 7.18205e-08 -9.55685e-08)
(1.34382e-07 7.45643e-08 -1.05209e-07)
(1.58113e-07 8.03572e-08 -1.15884e-07)
(0 1.73098e-07 -8.64042e-08)
(6.66342e-09 1.66598e-07 -8.59517e-08)
(1.41885e-08 1.49984e-07 -8.49374e-08)
(2.30546e-08 1.29437e-07 -8.43048e-08)
(3.35558e-08 1.09862e-07 -8.48277e-08)
(4.59652e-08 9.38236e-08 -8.69906e-08)
(6.05247e-08 8.22461e-08 -9.10204e-08)
(7.72512e-08 7.52936e-08 -9.69281e-08)
(9.56415e-08 7.27873e-08 -1.04514e-07)
(1.14266e-07 7.41781e-08 -1.13636e-07)
(1.34078e-07 7.88139e-08 -1.23207e-07)
(0 2.19149e-07 -1.0359e-07)
(4.4133e-09 2.07086e-07 -1.02117e-07)
(9.72107e-09 1.79929e-07 -9.93879e-08)
(1.63098e-08 1.49729e-07 -9.71423e-08)
(2.43347e-08 1.23246e-07 -9.6461e-08)
(3.40585e-08 1.02477e-07 -9.785e-08)
(4.59305e-08 8.73241e-08 -1.0146e-07)
(6.03556e-08 7.73588e-08 -1.07159e-07)
(7.72437e-08 7.23663e-08 -1.14504e-07)
(9.55092e-08 7.19792e-08 -1.22597e-07)
(1.13613e-07 7.52265e-08 -1.30547e-07)
(0 -0 -7.43699e-08)
(2.06199e-08 0 -7.52545e-08)
(4.0816e-08 0 -7.79128e-08)
(6.05072e-08 0 -8.24415e-08)
(8.00018e-08 0 -8.90858e-08)
(9.95179e-08 0 -9.82509e-08)
(1.19095e-07 0 -1.10499e-07)
(1.3854e-07 0 -1.26562e-07)
(1.57307e-07 0 -1.47361e-07)
(1.74258e-07 0 -1.74057e-07)
(1.87328e-07 0 -2.08722e-07)
(0 9.12276e-09 -7.51289e-08)
(2.01362e-08 8.96102e-09 -7.59989e-08)
(4.00417e-08 8.54561e-09 -7.86086e-08)
(5.96e-08 8.08852e-09 -8.30644e-08)
(7.90108e-08 7.7241e-09 -8.96107e-08)
(9.8497e-08 7.53148e-09 -9.86423e-08)
(1.18125e-07 7.57058e-09 -1.10694e-07)
(1.37761e-07 7.87874e-09 -1.26454e-07)
(1.56989e-07 8.46469e-09 -1.46741e-07)
(1.74966e-07 9.31151e-09 -1.72464e-07)
(1.90135e-07 1.0143e-08 -2.04799e-07)
(0 1.80058e-08 -7.74304e-08)
(1.88665e-08 1.77395e-08 -7.82476e-08)
(3.78467e-08 1.70168e-08 -8.07097e-08)
(5.68718e-08 1.61212e-08 -8.49456e-08)
(7.59747e-08 1.53492e-08 -9.11934e-08)
(9.53028e-08 1.49174e-08 -9.98221e-08)
(1.15001e-07 1.49604e-08 -1.11316e-07)
(1.35069e-07 1.55638e-08 -1.26247e-07)
(1.55339e-07 1.67439e-08 -1.45188e-07)
(1.75554e-07 1.84538e-08 -1.68587e-07)
(1.95364e-07 2.01365e-08 -1.96861e-07)
(0 2.66937e-08 -8.13988e-08)
(1.71769e-08 2.63213e-08 -8.21388e-08)
(3.4672e-08 2.5293e-08 -8.43747e-08)
(5.25857e-08 2.39276e-08 -8.82624e-08)
(7.09833e-08 2.26405e-08 -9.40457e-08)
(8.991e-08 2.18319e-08 -1.02066e-07)
(1.09491e-07 2.17662e-08 -1.12749e-07)
(1.29856e-07 2.25808e-08 -1.26547e-07)
(1.51043e-07 2.43059e-08 -1.43805e-07)
(1.73186e-07 2.68802e-08 -1.64645e-07)
(1.96889e-07 2.9532e-08 -1.89065e-07)
(0 3.55027e-08 -8.72889e-08)
(1.51616e-08 3.49587e-08 -8.79355e-08)
(3.07993e-08 3.34523e-08 -8.98802e-08)
(4.70916e-08 3.14132e-08 -9.33064e-08)
(6.42244e-08 2.93967e-08 -9.84877e-08)
(8.23162e-08 2.79655e-08 -1.0576e-07)
(1.01415e-07 2.75541e-08 -1.15503e-07)
(1.21604e-07 2.83915e-08 -1.28085e-07)
(1.43009e-07 3.0522e-08 -1.43731e-07)
(1.6585e-07 3.38728e-08 -1.62411e-07)