/*--------------------------------*- C++ -*----------------------------------*\
| =========                 |                                                 |
| \\      /  F ield         | foam-extend: Open Source CFD                    |
|  \\    /   O peration     | Version:     3.1                                |
|   \\  /    A nd           | Web:         http://www.extend-project.de       |
|    \\/     M anipulation  |                                                 |
\*---------------------------------------------------------------------------*/
FoamFile
{
    version     2.0;
    format      ascii;
    class       volScalarField::DimensionedInternalField;
    location    "0.0006";
    object      V0;
}
// * * * * * * * * * * * * * * * * * * * * * * * * * * * * * * * * * * * * * //

dimensions      [0 3 0 0 0 0 0];

value           nonuniform List<scalar> 
16000
(
7.1771e-11
7.05183e-11
6.92668e-11
6.80191e-11
6.6776e-11
6.5538e-11
6.43055e-11
6.30797e-11
6.18612e-11
6.0651e-11
7.0518e-11
6.92672e-11
6.80175e-11
6.67704e-11
6.55274e-11
6.42893e-11
6.30566e-11
6.18301e-11
6.06104e-11
5.93967e-11
6.92665e-11
6.80172e-11
6.67694e-11
6.55236e-11
6.42808e-11
6.30424e-11
6.18092e-11
6.05817e-11
5.93604e-11
5.8144e-11
6.80191e-11
6.67702e-11
6.55233e-11
6.42785e-11
6.30362e-11
6.17973e-11
6.05632e-11
5.93345e-11
5.81116e-11
5.68928e-11
6.67761e-11
6.55274e-11
6.42806e-11
6.30359e-11
6.17938e-11
6.05547e-11
5.93194e-11
5.80891e-11
5.68645e-11
5.56436e-11
6.5538e-11
6.42893e-11
6.30424e-11
6.17971e-11
6.05544e-11
5.93149e-11
5.80787e-11
5.68466e-11
5.56197e-11
5.43964e-11
6.43056e-11
6.30567e-11
6.18093e-11
6.05632e-11
5.93191e-11
5.80782e-11
5.68409e-11
5.56069e-11
5.43769e-11
5.31507e-11
6.30797e-11
6.18302e-11
6.05818e-11
5.93346e-11
5.8089e-11
5.6846e-11
5.56063e-11
5.43693e-11
5.31352e-11
5.1905e-11
6.18613e-11
6.06105e-11
5.93605e-11
5.81116e-11
5.68645e-11
5.56195e-11
5.43766e-11
5.3135e-11
5.18949e-11
5.06565e-11
6.0651e-11
5.93968e-11
5.8144e-11
5.68928e-11
5.56436e-11
5.43964e-11
5.31507e-11
5.19049e-11
5.06562e-11
4.94054e-11
7.20679e-11
7.08062e-11
6.95427e-11
6.82848e-11
6.70336e-11
6.57888e-11
6.45503e-11
6.33177e-11
6.209e-11
6.0865e-11
7.08053e-11
6.95492e-11
6.82913e-11
6.70355e-11
6.5785e-11
6.45407e-11
6.33024e-11
6.20695e-11
6.08405e-11
5.961e-11
6.9542e-11
6.82903e-11
6.70384e-11
6.57867e-11
6.45374e-11
6.32932e-11
6.20545e-11
6.08204e-11
5.95895e-11
5.83557e-11
6.82848e-11
6.70349e-11
6.57859e-11
6.45377e-11
6.32904e-11
6.20457e-11
6.08056e-11
5.95696e-11
5.83364e-11
5.70998e-11
6.70338e-11
6.5785e-11
6.45369e-11
6.32896e-11
6.20437e-11
6.07993e-11
5.9557e-11
5.83179e-11
5.70819e-11
5.58425e-11
6.5789e-11
6.45409e-11
6.32931e-11
6.20451e-11
6.07984e-11
5.95538e-11
5.83103e-11
5.70673e-11
5.58264e-11
5.45832e-11
6.45505e-11
6.33026e-11
6.20547e-11
6.08055e-11
5.95562e-11
5.83087e-11
5.70632e-11
5.58165e-11
5.45686e-11
5.33199e-11
6.33179e-11
6.20696e-11
6.08206e-11
5.95697e-11
5.83177e-11
5.70656e-11
5.58147e-11
5.45616e-11
5.33053e-11
5.20492e-11
6.20902e-11
6.08407e-11
5.95896e-11
5.83365e-11
5.7082e-11
5.5826e-11
5.45678e-11
5.33048e-11
5.20359e-11
5.07636e-11
6.08651e-11
5.96101e-11
5.83557e-11
5.70998e-11
5.58425e-11
5.45833e-11
5.33201e-11
5.2049e-11
5.0763e-11
4.94675e-11
7.22939e-11
7.10236e-11
6.9748e-11
6.84778e-11
6.72148e-11
6.5958e-11
6.47064e-11
6.34589e-11
6.22133e-11
6.0966e-11
7.10222e-11
6.97607e-11
6.84936e-11
6.7227e-11
6.59653e-11
6.47095e-11
6.34587e-11
6.22114e-11
6.0965e-11
5.97113e-11
6.97468e-11
6.84922e-11
6.72345e-11
6.59744e-11
6.47149e-11
6.34597e-11
6.2209e-11
6.09608e-11
5.97128e-11
5.8456e-11
6.84778e-11
6.72261e-11
6.59731e-11
6.47187e-11
6.34628e-11
6.22076e-11
6.09555e-11
5.97054e-11
5.84553e-11
5.71964e-11
6.72151e-11
6.59653e-11
6.4714e-11
6.34616e-11
6.22084e-11
6.09544e-11
5.97e-11
5.84464e-11
5.71933e-11
5.59321e-11
6.59583e-11
6.47097e-11
6.34596e-11
6.22067e-11
6.09531e-11
5.96996e-11
5.84442e-11
5.71861e-11
5.59272e-11
5.46624e-11
6.47067e-11
6.34589e-11
6.22093e-11
6.09554e-11
5.96988e-11
5.84419e-11
5.71849e-11
5.59226e-11
5.46551e-11
5.33846e-11
6.34591e-11
6.22116e-11
6.0961e-11
5.97056e-11
5.84461e-11
5.71837e-11
5.59201e-11
5.46502e-11
5.33726e-11
5.2094e-11
6.22136e-11
6.09652e-11
5.97129e-11
5.84555e-11
5.71935e-11
5.59266e-11
5.4654e-11
5.33719e-11
5.20789e-11
5.07809e-11
6.09661e-11
5.97114e-11
5.84561e-11
5.71964e-11
5.59323e-11
5.46626e-11
5.33849e-11
5.20937e-11
5.078e-11
4.94533e-11
7.2434e-11
7.11569e-11
6.98707e-11
6.8589e-11
6.73138e-11
6.60438e-11
6.47779e-11
6.35148e-11
6.22527e-11
6.09877e-11
7.11552e-11
6.98888e-11
6.86133e-11
6.73361e-11
6.60627e-11
6.47941e-11
6.35295e-11
6.22672e-11
6.10046e-11
5.97334e-11
6.98693e-11
6.86116e-11
6.73478e-11
6.60788e-11
6.48086e-11
6.35413e-11
6.22775e-11
6.10148e-11
5.97511e-11
5.84777e-11
6.8589e-11
6.7335e-11
6.60773e-11
6.48158e-11
6.35504e-11
6.22839e-11
6.10192e-11
5.97553e-11
5.84904e-11
5.72158e-11
6.73142e-11
6.60627e-11
6.48075e-11
6.3549e-11
6.22878e-11
6.10236e-11
5.97572e-11
5.84902e-11
5.7223e-11
5.59476e-11
6.60441e-11
6.47944e-11
6.35412e-11
6.22829e-11
6.1022e-11
5.97596e-11
5.84932e-11
5.72222e-11
5.59496e-11
5.46722e-11
6.47782e-11
6.35298e-11
6.22777e-11
6.10191e-11
5.97557e-11
5.84905e-11
5.72236e-11
5.59495e-11
5.46688e-11
5.3387e-11
6.35152e-11
6.22675e-11
6.1015e-11
5.97555e-11
5.84898e-11
5.72195e-11
5.59466e-11
5.46658e-11
5.33759e-11
5.20876e-11
6.2253e-11
6.10048e-11
5.97513e-11
5.84906e-11
5.72232e-11
5.5949e-11
5.46675e-11
5.33751e-11
5.20709e-11
5.07643e-11
6.09879e-11
5.97335e-11
5.84778e-11
5.72159e-11
5.59477e-11
5.46724e-11
5.33873e-11
5.20872e-11
5.07633e-11
4.94281e-11
7.24896e-11
7.12081e-11
6.99146e-11
6.8624e-11
6.73384e-11
6.6057e-11
6.47787e-11
6.35025e-11
6.22271e-11
6.09495e-11
7.12062e-11
6.99363e-11
6.86544e-11
6.73688e-11
6.60854e-11
6.48057e-11
6.35289e-11
6.22537e-11
6.09783e-11
5.96955e-11
6.99131e-11
6.86526e-11
6.73834e-11
6.6107e-11
6.48275e-11
6.35496e-11
6.22743e-11
6.09994e-11
5.97236e-11
5.84396e-11
6.86239e-11
6.73675e-11
6.61054e-11
6.48374e-11
6.35638e-11
6.22875e-11
6.1012e-11
5.97368e-11
5.84606e-11
5.71768e-11
6.73388e-11
6.60854e-11
6.48264e-11
6.35622e-11
6.22938e-11
6.1021e-11
5.97448e-11
5.84675e-11
5.71901e-11
5.5907e-11
6.60574e-11
6.4806e-11
6.35495e-11
6.22865e-11
6.10193e-11
5.97495e-11
5.84746e-11
5.71945e-11
5.59129e-11
5.46296e-11
6.4779e-11
6.35292e-11
6.22745e-11
6.1012e-11
5.97433e-11
5.84719e-11
5.71979e-11
5.59162e-11
5.46282e-11
5.33427e-11
6.35028e-11
6.22541e-11
6.09996e-11
5.9737e-11
5.84672e-11
5.71918e-11
5.59133e-11
5.46271e-11
5.33324e-11
5.20429e-11
6.22274e-11
6.09786e-11
5.97238e-11
5.84608e-11
5.71902e-11
5.59122e-11
5.46269e-11
5.33315e-11
5.20258e-11
5.07227e-11
6.09497e-11
5.96956e-11
5.84397e-11
5.71769e-11
5.59071e-11
5.46298e-11
5.3343e-11
5.20426e-11
5.07218e-11
4.93947e-11
7.24742e-11
7.11909e-11
6.98937e-11
6.85976e-11
6.73051e-11
6.60154e-11
6.47279e-11
6.34421e-11
6.21573e-11
6.08711e-11
7.11891e-11
6.99171e-11
6.86314e-11
6.73404e-11
6.60502e-11
6.47623e-11
6.34765e-11
6.21918e-11
6.09072e-11
5.96173e-11
6.98922e-11
6.86296e-11
6.73567e-11
6.6075e-11
6.4789e-11
6.35035e-11
6.22195e-11
6.09356e-11
5.96513e-11
5.83615e-11
6.85975e-11
6.73392e-11
6.60735e-11
6.48006e-11
6.35209e-11
6.22377e-11
6.09544e-11
5.96711e-11
5.83872e-11
5.70988e-11
6.73055e-11
6.60501e-11
6.47879e-11
6.35195e-11
6.22457e-11
6.09666e-11
5.96838e-11
5.83995e-11
5.71154e-11
5.58292e-11
6.60158e-11
6.47626e-11
6.35034e-11
6.22367e-11
6.09651e-11
5.969e-11
5.84095e-11
5.71238e-11
5.58372e-11
5.45525e-11
6.47283e-11
6.34768e-11
6.22197e-11
6.09543e-11
5.96824e-11
5.8407e-11
5.71287e-11
5.58432e-11
5.45524e-11
5.32677e-11
6.34424e-11
6.21921e-11
6.09359e-11
5.96713e-11
5.83992e-11
5.71215e-11
5.58406e-11
5.45531e-11
5.32586e-11
5.19727e-11
6.21576e-11
6.09075e-11
5.96516e-11
5.83874e-11
5.71156e-11
5.58366e-11
5.45511e-11
5.32577e-11
5.19565e-11
5.06629e-11
6.08713e-11
5.96175e-11
5.83616e-11
5.70989e-11
5.58293e-11
5.45526e-11
5.32678e-11
5.19723e-11
5.06622e-11
4.93518e-11
7.24079e-11
7.1125e-11
6.98276e-11
6.85297e-11
6.7234e-11
6.59399e-11
6.46472e-11
6.33559e-11
6.20659e-11
6.07756e-11
7.11233e-11
6.98509e-11
6.85641e-11
6.7271e-11
6.59775e-11
6.46853e-11
6.33942e-11
6.21041e-11
6.08145e-11
5.9522e-11
6.98263e-11
6.85625e-11
6.72877e-11
6.60034e-11
6.47141e-11
6.34244e-11
6.21355e-11
6.08467e-11
5.9558e-11
5.82664e-11
6.85296e-11
6.72699e-11
6.6002e-11
6.47263e-11
6.34434e-11
6.21566e-11
6.0869e-11
5.95814e-11
5.82938e-11
5.70046e-11
6.72343e-11
6.59775e-11
6.47132e-11
6.34421e-11
6.21653e-11
6.08831e-11
5.95969e-11
5.83095e-11
5.70226e-11
5.57366e-11
6.59402e-11
6.46856e-11
6.34244e-11
6.21557e-11
6.08817e-11
5.9604e-11
5.8321e-11
5.70335e-11
5.57455e-11
5.44624e-11
6.46476e-11
6.33945e-11
6.21358e-11
6.0869e-11
5.95957e-11
5.83189e-11
5.70391e-11
5.57532e-11
5.44632e-11
5.31819e-11
6.33563e-11
6.21044e-11
6.08469e-11
5.95817e-11
5.83093e-11
5.70315e-11
5.5751e-11
5.44654e-11
5.31745e-11
5.18943e-11
6.20662e-11
6.08148e-11
5.95582e-11
5.8294e-11
5.70228e-11
5.5745e-11
5.44621e-11
5.31736e-11
5.18801e-11
5.05974e-11
6.07758e-11
5.95222e-11
5.82666e-11
5.70047e-11
5.57367e-11
5.44625e-11
5.31819e-11
5.18939e-11
5.05968e-11
4.9304e-11
7.23119e-11
7.10312e-11
6.97365e-11
6.844e-11
6.71446e-11
6.58499e-11
6.45562e-11
6.32637e-11
6.19729e-11
6.06827e-11
7.10298e-11
6.97583e-11
6.84728e-11
6.71806e-11
6.58872e-11
6.45943e-11
6.33021e-11
6.20108e-11
6.07206e-11
5.94294e-11
6.97353e-11
6.84714e-11
6.71965e-11
6.59123e-11
6.4623e-11
6.33326e-11
6.20427e-11
6.07529e-11
5.9464e-11
5.81744e-11
6.844e-11
6.71797e-11
6.59111e-11
6.46347e-11
6.33515e-11
6.20643e-11
6.07762e-11
5.94882e-11
5.82008e-11
5.6914e-11
6.71448e-11
6.58872e-11
6.46222e-11
6.33504e-11
6.2073e-11
6.07905e-11
5.95045e-11
5.82174e-11
5.69314e-11
5.56484e-11
6.58502e-11
6.45946e-11
6.33326e-11
6.20635e-11
6.07894e-11
5.95116e-11
5.82292e-11
5.69431e-11
5.56572e-11
5.43778e-11
6.45565e-11
6.33024e-11
6.20429e-11
6.07761e-11
5.95035e-11
5.82275e-11
5.69488e-11
5.56653e-11
5.43791e-11
5.31026e-11
6.3264e-11
6.20111e-11
6.07532e-11
5.94884e-11
5.82173e-11
5.69416e-11
5.56635e-11
5.43819e-11
5.30967e-11
5.18226e-11
6.19732e-11
6.07208e-11
5.94642e-11
5.82009e-11
5.69316e-11
5.56568e-11
5.43781e-11
5.3096e-11
5.1811e-11
5.05377e-11
6.06829e-11
5.94296e-11
5.81745e-11
5.69141e-11
5.56485e-11
5.43778e-11
5.31025e-11
5.18223e-11
5.05372e-11
4.92585e-11
7.22049e-11
7.09276e-11
6.96374e-11
6.83448e-11
6.70523e-11
6.57603e-11
6.4469e-11
6.31789e-11
6.18909e-11
6.06042e-11
7.09264e-11
6.96567e-11
6.83743e-11
6.70854e-11
6.57949e-11
6.45044e-11
6.32144e-11
6.19255e-11
6.06382e-11
5.93514e-11
6.96364e-11
6.83731e-11
6.70997e-11
6.58177e-11
6.45309e-11
6.32429e-11
6.19552e-11
6.06679e-11
5.9382e-11
5.8097e-11
6.83447e-11
6.70846e-11
6.58167e-11
6.45416e-11
6.32604e-11
6.19755e-11
6.06898e-11
5.94046e-11
5.81204e-11
5.68383e-11
6.70526e-11
6.57949e-11
6.45302e-11
6.32595e-11
6.19836e-11
6.07032e-11
5.942e-11
5.81362e-11
5.68538e-11
5.55753e-11
6.57605e-11
6.45046e-11
6.32429e-11
6.19749e-11
6.07024e-11
5.94265e-11
5.8147e-11
5.68648e-11
5.55833e-11
5.43086e-11
6.44692e-11
6.32147e-11
6.19554e-11
6.06898e-11
5.94192e-11
5.81457e-11
5.687e-11
5.55908e-11
5.431e-11
5.30385e-11
6.31792e-11
6.19258e-11
6.06681e-11
5.94047e-11
5.81361e-11
5.68637e-11
5.55894e-11
5.43128e-11
5.3034e-11
5.17654e-11
6.18911e-11
6.06384e-11
5.93822e-11
5.81205e-11
5.68539e-11
5.5583e-11
5.43092e-11
5.30334e-11
5.17561e-11
5.04897e-11
6.06044e-11
5.93515e-11
5.80971e-11
5.68384e-11
5.55754e-11
5.43086e-11
5.30384e-11
5.17652e-11
5.04894e-11
4.92199e-11
7.21004e-11
7.0827e-11
6.95421e-11
6.82548e-11
6.69672e-11
6.56799e-11
6.43932e-11
6.31079e-11
6.18248e-11
6.05435e-11
7.0826e-11
6.95587e-11
6.82803e-11
6.69961e-11
6.57102e-11
6.44242e-11
6.31388e-11
6.18545e-11
6.05721e-11
5.92911e-11
6.95414e-11
6.82794e-11
6.70084e-11
6.573e-11
6.44474e-11
6.31637e-11
6.18803e-11
6.05977e-11
5.93167e-11
5.80374e-11
6.82548e-11
6.69955e-11
6.57293e-11
6.44568e-11
6.31789e-11
6.18982e-11
6.06169e-11
5.93362e-11
5.80569e-11
5.67803e-11
6.69674e-11
6.57102e-11
6.44469e-11
6.31783e-11
6.19053e-11
6.06286e-11
5.93497e-11
5.80707e-11
5.67932e-11
5.55199e-11
6.56801e-11
6.44244e-11
6.31637e-11
6.18977e-11
6.06279e-11
5.93553e-11
5.808e-11
5.68028e-11
5.55266e-11
5.42567e-11
6.43934e-11
6.3139e-11
6.18805e-11
6.06169e-11
5.93491e-11
5.8079e-11
5.68072e-11
5.55329e-11
5.4258e-11
5.2991e-11
6.31081e-11
6.18547e-11
6.05978e-11
5.93363e-11
5.80706e-11
5.68019e-11
5.55319e-11
5.42604e-11
5.29876e-11
5.17234e-11
6.18249e-11
6.05723e-11
5.93168e-11
5.80571e-11
5.67934e-11
5.55264e-11
5.42573e-11
5.29871e-11
5.17161e-11
5.04541e-11
6.05437e-11
5.92912e-11
5.80375e-11
5.67804e-11
5.552e-11
5.42567e-11
5.29909e-11
5.17232e-11
5.04539e-11
4.91898e-11
7.20064e-11
7.07367e-11
6.94575e-11
6.8176e-11
6.6894e-11
6.56122e-11
6.43311e-11
6.30514e-11
6.1774e-11
6.04986e-11
7.0736e-11
6.94713e-11
6.81973e-11
6.69183e-11
6.56378e-11
6.43572e-11
6.30771e-11
6.17984e-11
6.05216e-11
5.92465e-11
6.94569e-11
6.81966e-11
6.69286e-11
6.56544e-11
6.43766e-11
6.30981e-11
6.18199e-11
6.05426e-11
5.92671e-11
5.79934e-11
6.81759e-11
6.69178e-11
6.56538e-11
6.43844e-11
6.31108e-11
6.18348e-11
6.05586e-11
5.92831e-11
5.80091e-11
5.67378e-11
6.68942e-11
6.56378e-11
6.43762e-11
6.31103e-11
6.18407e-11
6.05683e-11
5.92943e-11
5.80204e-11
5.67481e-11
5.54796e-11
6.56124e-11
6.43573e-11
6.30981e-11
6.18344e-11
6.05677e-11
5.92989e-11
5.8028e-11
5.67559e-11
5.54849e-11
5.42192e-11
6.43313e-11
6.30773e-11
6.182e-11
6.05585e-11
5.92938e-11
5.80273e-11
5.67595e-11
5.549e-11
5.42203e-11
5.2957e-11
6.30516e-11
6.17986e-11
6.05427e-11
5.92832e-11
5.80204e-11
5.67553e-11
5.54892e-11
5.42222e-11
5.29544e-11
5.16934e-11
6.17741e-11
6.05218e-11
5.92672e-11
5.80092e-11
5.67482e-11
5.54848e-11
5.42198e-11
5.2954e-11
5.16878e-11
5.04286e-11
6.04987e-11
5.92466e-11
5.79935e-11
5.67379e-11
5.54796e-11
5.42192e-11
5.2957e-11
5.16932e-11
5.04284e-11
4.91674e-11
7.19261e-11
7.066e-11
6.9386e-11
6.811e-11
6.68336e-11
6.55574e-11
6.42818e-11
6.30077e-11
6.17356e-11
6.04654e-11
7.06594e-11
6.93973e-11
6.81274e-11
6.68535e-11
6.55783e-11
6.43031e-11
6.30285e-11
6.17551e-11
6.04836e-11
5.92137e-11
6.93855e-11
6.81268e-11
6.68619e-11
6.55918e-11
6.43189e-11
6.30455e-11
6.17724e-11
6.05003e-11
5.92298e-11
5.79612e-11
6.811e-11
6.68531e-11
6.55913e-11
6.43253e-11
6.30558e-11
6.17845e-11
6.05131e-11
5.92426e-11
5.79735e-11
5.67066e-11
6.68337e-11
6.55783e-11
6.43186e-11
6.30554e-11
6.17893e-11
6.0521e-11
5.92515e-11
5.79824e-11
5.67148e-11
5.54501e-11
6.55575e-11
6.43032e-11
6.30454e-11
6.17842e-11
6.05206e-11
5.92553e-11
5.79885e-11
5.67209e-11
5.54543e-11
5.4192e-11
6.4282e-11
6.30286e-11
6.17725e-11
6.05131e-11
5.92512e-11
5.79879e-11
5.67237e-11
5.54583e-11
5.41928e-11
5.29325e-11
6.30078e-11
6.17552e-11
6.05004e-11
5.92427e-11
5.79824e-11
5.67204e-11
5.54577e-11
5.41943e-11
5.29304e-11
5.16718e-11
6.17357e-11
6.04837e-11
5.92299e-11
5.79736e-11
5.67148e-11
5.54542e-11
5.41924e-11
5.29301e-11
5.16674e-11
5.04099e-11
6.04655e-11
5.92138e-11
5.79612e-11
5.67067e-11
5.54502e-11
5.4192e-11
5.29324e-11
5.16716e-11
5.04098e-11
4.91507e-11
7.18598e-11
7.05968e-11
6.93274e-11
6.80563e-11
6.67849e-11
6.55137e-11
6.42431e-11
6.29738e-11
6.17062e-11
6.04404e-11
7.05963e-11
6.93364e-11
6.80703e-11
6.68009e-11
6.55305e-11
6.42601e-11
6.29903e-11
6.17217e-11
6.04546e-11
5.91889e-11
6.9327e-11
6.80699e-11
6.68077e-11
6.55414e-11
6.42729e-11
6.30039e-11
6.17354e-11
6.04678e-11
5.92015e-11
5.79368e-11
6.80563e-11
6.68006e-11
6.5541e-11
6.42779e-11
6.30122e-11
6.1745e-11
6.04779e-11
5.92116e-11
5.79465e-11
5.66832e-11
6.6785e-11
6.55305e-11
6.42726e-11
6.30118e-11
6.17488e-11
6.04841e-11
5.92186e-11
5.79534e-11
5.66895e-11
5.5428e-11
6.55138e-11
6.42602e-11
6.30039e-11
6.17448e-11
6.04838e-11
5.92216e-11
5.79582e-11
5.66943e-11
5.54313e-11
5.41715e-11
6.42432e-11
6.29904e-11
6.17355e-11
6.04779e-11
5.92183e-11
5.79577e-11
5.66965e-11
5.54343e-11
5.41722e-11
5.29139e-11
6.29739e-11
6.17217e-11
6.04678e-11
5.92116e-11
5.79534e-11
5.66939e-11
5.54338e-11
5.41733e-11
5.29123e-11
5.16554e-11
6.17063e-11
6.04547e-11
5.92016e-11
5.79465e-11
5.66896e-11
5.54312e-11
5.41719e-11
5.29121e-11
5.1652e-11
5.03958e-11
6.04404e-11
5.9189e-11
5.79369e-11
5.66832e-11
5.5428e-11
5.41715e-11
5.29139e-11
5.16553e-11
5.03957e-11
4.91381e-11
7.18063e-11
7.05458e-11
6.92802e-11
6.80133e-11
6.67461e-11
6.54791e-11
6.42127e-11
6.29473e-11
6.16834e-11
6.04208e-11
7.05454e-11
6.92874e-11
6.80245e-11
6.67589e-11
6.54925e-11
6.42262e-11
6.29604e-11
6.16955e-11
6.0432e-11
5.91696e-11
6.92799e-11
6.80241e-11
6.67642e-11
6.55011e-11
6.42363e-11
6.29711e-11
6.17064e-11
6.04423e-11
5.91795e-11
5.79178e-11
6.80133e-11
6.67586e-11
6.55008e-11
6.42403e-11
6.29777e-11
6.1714e-11
6.04504e-11
5.91874e-11
5.79254e-11
5.66649e-11
6.67462e-11
6.54925e-11
6.42361e-11
6.29774e-11
6.1717e-11
6.04553e-11
5.91929e-11
5.79309e-11
5.66699e-11
5.54107e-11
6.54792e-11
6.42262e-11
6.29711e-11
6.17138e-11
6.0455e-11
5.91952e-11
5.79346e-11
5.66736e-11
5.54133e-11
5.41555e-11
6.42128e-11
6.29604e-11
6.17064e-11
6.04503e-11
5.91927e-11
5.79342e-11
5.66753e-11
5.54156e-11
5.4156e-11
5.28994e-11
6.29474e-11
6.16956e-11
6.04424e-11
5.91874e-11
5.79309e-11
5.66733e-11
5.54153e-11
5.41568e-11
5.28981e-11
5.16425e-11
6.16834e-11
6.0432e-11
5.91796e-11
5.79255e-11
5.66699e-11
5.54132e-11
5.41558e-11
5.28979e-11
5.16398e-11
5.03847e-11
6.04209e-11
5.91696e-11
5.79179e-11
5.66649e-11
5.54107e-11
5.41555e-11
5.28994e-11
5.16424e-11
5.03846e-11
4.91283e-11
7.17634e-11
7.0505e-11
6.92425e-11
6.7979e-11
6.67152e-11
6.54516e-11
6.41885e-11
6.29263e-11
6.16652e-11
6.04052e-11
7.05047e-11
6.92482e-11
6.79878e-11
6.67254e-11
6.54623e-11
6.41992e-11
6.29366e-11
6.16748e-11
6.0414e-11
5.91541e-11
6.92423e-11
6.79876e-11
6.67296e-11
6.54691e-11
6.42073e-11
6.29451e-11
6.16834e-11
6.04222e-11
5.9162e-11
5.79027e-11
6.79789e-11
6.67252e-11
6.54689e-11
6.42105e-11
6.29503e-11
6.16894e-11
6.04285e-11
5.91682e-11
5.79087e-11
5.66502e-11
6.67153e-11
6.54623e-11
6.42071e-11
6.29501e-11
6.16918e-11
6.04324e-11
5.91726e-11
5.7913e-11
5.66542e-11
5.53968e-11
6.54517e-11
6.41993e-11
6.29451e-11
6.16893e-11
6.04322e-11
5.91744e-11
5.79159e-11
5.66571e-11
5.53989e-11
5.41426e-11
6.41886e-11
6.29367e-11
6.16834e-11
6.04285e-11
5.91724e-11
5.79156e-11
5.66584e-11
5.54007e-11
5.4143e-11
5.28876e-11
6.29263e-11
6.16749e-11
6.04223e-11
5.91682e-11
5.79129e-11
5.66568e-11
5.54004e-11
5.41437e-11
5.28866e-11
5.1632e-11
6.16652e-11
6.04141e-11
5.9162e-11
5.79087e-11
5.66542e-11
5.53988e-11
5.41428e-11
5.28865e-11
5.16299e-11
5.03757e-11
6.04052e-11
5.91542e-11
5.79027e-11
5.66502e-11
5.53968e-11
5.41426e-11
5.28876e-11
5.1632e-11
5.03756e-11
4.91204e-11
7.17292e-11
7.04724e-11
6.92125e-11
6.79516e-11
6.66906e-11
6.54298e-11
6.41693e-11
6.29095e-11
6.16506e-11
6.03926e-11
7.04722e-11
6.9217e-11
6.79587e-11
6.66987e-11
6.54382e-11
6.41778e-11
6.29177e-11
6.16582e-11
6.03996e-11
5.91416e-11
6.92123e-11
6.79584e-11
6.67021e-11
6.54436e-11
6.41841e-11
6.29245e-11
6.1665e-11
6.04061e-11
5.91479e-11
5.78904e-11
6.79516e-11
6.66985e-11
6.54435e-11
6.41867e-11
6.29286e-11
6.16698e-11
6.04111e-11
5.91528e-11
5.78952e-11
5.66384e-11
6.66907e-11
6.54382e-11
6.4184e-11
6.29284e-11
6.16717e-11
6.04142e-11
5.91563e-11
5.78986e-11
5.66415e-11
5.53856e-11
6.54298e-11
6.41778e-11
6.29244e-11
6.16697e-11
6.0414e-11
5.91577e-11
5.79009e-11
5.66438e-11
5.53872e-11
5.41321e-11
6.41693e-11
6.29177e-11
6.16651e-11
6.04111e-11
5.91562e-11
5.79007e-11
5.66449e-11
5.53887e-11
5.41325e-11
5.28781e-11
6.29095e-11
6.16583e-11
6.04061e-11
5.91528e-11
5.78986e-11
5.66436e-11
5.53885e-11
5.4133e-11
5.28773e-11
5.16235e-11
6.16506e-11
6.03996e-11
5.91479e-11
5.78952e-11
5.66415e-11
5.53872e-11
5.41323e-11
5.28772e-11
5.16219e-11
5.03684e-11
6.03926e-11
5.91417e-11
5.78904e-11
5.66384e-11
5.53856e-11
5.41321e-11
5.28781e-11
5.16235e-11
5.03684e-11
4.91141e-11
7.17019e-11
7.04465e-11
6.91885e-11
6.79298e-11
6.6671e-11
6.54123e-11
6.41539e-11
6.2896e-11
6.16389e-11
6.03824e-11
7.04463e-11
6.91921e-11
6.79354e-11
6.66774e-11
6.5419e-11
6.41606e-11
6.29026e-11
6.16449e-11
6.0388e-11
5.91316e-11
6.91884e-11
6.79352e-11
6.66801e-11
6.54233e-11
6.41657e-11
6.29079e-11
6.16504e-11
6.03932e-11
5.91366e-11
5.78805e-11
6.79298e-11
6.66773e-11
6.54232e-11
6.41677e-11
6.29112e-11
6.16541e-11
6.03972e-11
5.91405e-11
5.78843e-11
5.66288e-11
6.6671e-11
6.5419e-11
6.41656e-11
6.29111e-11
6.16557e-11
6.03996e-11
5.91432e-11
5.7887e-11
5.66313e-11
5.53765e-11
6.54123e-11
6.41607e-11
6.29079e-11
6.16541e-11
6.03995e-11
5.91444e-11
5.78889e-11
5.66332e-11
5.53778e-11
5.41237e-11
6.41539e-11
6.29026e-11
6.16504e-11
6.03971e-11
5.91431e-11
5.78887e-11
5.6634e-11
5.5379e-11
5.41239e-11
5.28704e-11
6.28961e-11
6.1645e-11
6.03932e-11
5.91405e-11
5.7887e-11
5.6633e-11
5.53788e-11
5.41244e-11
5.28697e-11
5.16167e-11
6.16389e-11
6.0388e-11
5.91366e-11
5.78843e-11
5.66313e-11
5.53778e-11
5.41238e-11
5.28696e-11
5.16153e-11
5.03625e-11
6.03824e-11
5.91316e-11
5.78805e-11
5.66288e-11
5.53765e-11
5.41237e-11
5.28704e-11
5.16166e-11
5.03625e-11
4.9109e-11
7.16802e-11
7.04258e-11
6.91694e-11
6.79124e-11
6.66553e-11
6.53983e-11
6.41416e-11
6.28852e-11
6.16295e-11
6.03742e-11
7.04257e-11
6.91723e-11
6.79169e-11
6.66604e-11
6.54037e-11
6.41469e-11
6.28904e-11
6.16343e-11
6.03787e-11
5.91235e-11
6.91693e-11
6.79167e-11
6.66626e-11
6.54071e-11
6.4151e-11
6.28947e-11
6.16386e-11
6.03828e-11
5.91275e-11
5.78725e-11
6.79124e-11
6.66603e-11
6.5407e-11
6.41526e-11
6.28973e-11
6.16416e-11
6.0386e-11
5.91306e-11
5.78756e-11
5.66211e-11
6.66554e-11
6.54037e-11
6.41509e-11
6.28972e-11
6.16428e-11
6.03879e-11
5.91328e-11
5.78778e-11
5.66231e-11
5.53692e-11
6.53984e-11
6.4147e-11
6.28947e-11
6.16415e-11
6.03878e-11
5.91337e-11
5.78792e-11
5.66246e-11
5.53702e-11
5.41169e-11
6.41416e-11
6.28905e-11
6.16386e-11
6.0386e-11
5.91327e-11
5.78791e-11
5.66253e-11
5.53712e-11
5.41171e-11
5.28642e-11
6.28853e-11
6.16343e-11
6.03828e-11
5.91306e-11
5.78777e-11
5.66245e-11
5.5371e-11
5.41174e-11
5.28637e-11
5.16111e-11
6.16295e-11
6.03787e-11
5.91275e-11
5.78756e-11
5.66231e-11
5.53702e-11
5.4117e-11
5.28636e-11
5.16101e-11
5.03578e-11
6.03742e-11
5.91235e-11
5.78725e-11
5.66211e-11
5.53692e-11
5.41169e-11
5.28641e-11
5.16111e-11
5.03577e-11
4.91049e-11
7.16629e-11
7.04094e-11
6.91542e-11
6.78986e-11
6.66428e-11
6.53872e-11
6.41317e-11
6.28766e-11
6.16219e-11
6.03677e-11
7.04093e-11
6.91565e-11
6.79021e-11
6.66469e-11
6.53914e-11
6.4136e-11
6.28807e-11
6.16258e-11
6.03712e-11
5.9117e-11
6.91541e-11
6.7902e-11
6.66486e-11
6.53942e-11
6.41392e-11
6.28841e-11
6.16292e-11
6.03745e-11
5.91202e-11
5.78662e-11
6.78985e-11
6.66468e-11
6.53941e-11
6.41405e-11
6.28862e-11
6.16316e-11
6.0377e-11
5.91227e-11
5.78686e-11
5.6615e-11
6.66429e-11
6.53914e-11
6.41391e-11
6.28861e-11
6.16326e-11
6.03786e-11
5.91244e-11
5.78703e-11
5.66166e-11
5.53634e-11
6.53872e-11
6.4136e-11
6.28841e-11
6.16316e-11
6.03785e-11
5.91252e-11
5.78715e-11
5.66178e-11
5.53642e-11
5.41114e-11
6.41318e-11
6.28808e-11
6.16292e-11
6.0377e-11
5.91243e-11
5.78714e-11
5.66183e-11
5.5365e-11
5.41116e-11
5.28592e-11
6.28766e-11
6.16258e-11
6.03745e-11
5.91227e-11
5.78703e-11
5.66176e-11
5.53648e-11
5.41119e-11
5.28588e-11
5.16067e-11
6.16219e-11
6.03712e-11
5.91202e-11
5.78686e-11
5.66166e-11
5.53642e-11
5.41115e-11
5.28588e-11
5.16059e-11
5.0354e-11
6.03677e-11
5.9117e-11
5.78662e-11
5.6615e-11
5.53634e-11
5.41114e-11
5.28592e-11
5.16067e-11
5.03539e-11
4.91016e-11
7.16492e-11
7.03963e-11
6.91421e-11
6.78875e-11
6.66329e-11
6.53783e-11
6.41239e-11
6.28697e-11
6.16159e-11
6.03625e-11
7.03962e-11
6.91439e-11
6.78903e-11
6.66361e-11
6.53817e-11
6.41273e-11
6.2873e-11
6.1619e-11
6.03653e-11
5.91118e-11
6.9142e-11
6.78902e-11
6.66374e-11
6.53839e-11
6.41298e-11
6.28757e-11
6.16217e-11
6.03679e-11
5.91144e-11
5.78611e-11
6.78875e-11
6.6636e-11
6.53838e-11
6.41308e-11
6.28774e-11
6.16236e-11
6.03699e-11
5.91164e-11
5.78631e-11
5.66101e-11
6.66329e-11
6.53817e-11
6.41298e-11
6.28773e-11
6.16244e-11
6.03712e-11
5.91178e-11
5.78644e-11
5.66114e-11
5.53587e-11
6.53783e-11
6.41273e-11
6.28757e-11
6.16236e-11
6.03711e-11
5.91183e-11
5.78654e-11
5.66123e-11
5.53594e-11
5.41071e-11
6.41239e-11
6.2873e-11
6.16217e-11
6.03699e-11
5.91177e-11
5.78653e-11
5.66127e-11
5.536e-11
5.41073e-11
5.28553e-11
6.28697e-11
6.1619e-11
6.03679e-11
5.91164e-11
5.78644e-11
5.66122e-11
5.53599e-11
5.41075e-11
5.2855e-11
5.16032e-11
6.16159e-11
6.03653e-11
5.91144e-11
5.78631e-11
5.66114e-11
5.53594e-11
5.41072e-11
5.28549e-11
5.16026e-11
5.0351e-11
6.03625e-11
5.91118e-11
5.78611e-11
5.66101e-11
5.53587e-11
5.41071e-11
5.28553e-11
5.16032e-11
5.03509e-11
4.9099e-11
7.16382e-11
7.03858e-11
6.91324e-11
6.78787e-11
6.66249e-11
6.53712e-11
6.41176e-11
6.28643e-11
6.16112e-11
6.03583e-11
7.03857e-11
6.91338e-11
6.78809e-11
6.66275e-11
6.53739e-11
6.41203e-11
6.28669e-11
6.16136e-11
6.03606e-11
5.91078e-11
6.91323e-11
6.78809e-11
6.66286e-11
6.53756e-11
6.41224e-11
6.2869e-11
6.16158e-11
6.03627e-11
5.91098e-11
5.78571e-11
6.78787e-11
6.66275e-11
6.53756e-11
6.41232e-11
6.28703e-11
6.16173e-11
6.03643e-11
5.91113e-11
5.78586e-11
5.66062e-11
6.6625e-11
6.53739e-11
6.41223e-11
6.28703e-11
6.16179e-11
6.03652e-11
5.91125e-11
5.78597e-11
5.66072e-11
5.53551e-11
6.53713e-11
6.41204e-11
6.2869e-11
6.16172e-11
6.03652e-11
5.91129e-11
5.78605e-11
5.6608e-11
5.53556e-11
5.41037e-11
6.41177e-11
6.28669e-11
6.16158e-11
6.03642e-11
5.91124e-11
5.78604e-11
5.66083e-11
5.53561e-11
5.41038e-11
5.28522e-11
6.28643e-11
6.16136e-11
6.03627e-11
5.91114e-11
5.78597e-11
5.66079e-11
5.5356e-11
5.4104e-11
5.28519e-11
5.16004e-11
6.16112e-11
6.03606e-11
5.91098e-11
5.78586e-11
5.66072e-11
5.53556e-11
5.41038e-11
5.28519e-11
5.15999e-11
5.03486e-11
6.03583e-11
5.91078e-11
5.78571e-11
5.66062e-11
5.5355e-11
5.41037e-11
5.28521e-11
5.16004e-11
5.03485e-11
4.9097e-11
7.16295e-11
7.03775e-11
6.91247e-11
6.78717e-11
6.66186e-11
6.53656e-11
6.41127e-11
6.28599e-11
6.16074e-11
6.0355e-11
7.03774e-11
6.91258e-11
6.78735e-11
6.66207e-11
6.53677e-11
6.41148e-11
6.2862e-11
6.16093e-11
6.03568e-11
5.91045e-11
6.91247e-11
6.78734e-11
6.66215e-11
6.53691e-11
6.41164e-11
6.28637e-11
6.1611e-11
6.03585e-11
5.91061e-11
5.78539e-11
6.78717e-11
6.66206e-11
6.53691e-11
6.41171e-11
6.28647e-11
6.16122e-11
6.03598e-11
5.91074e-11
5.78551e-11
5.66031e-11
6.66187e-11
6.53677e-11
6.41164e-11
6.28647e-11
6.16127e-11
6.03605e-11
5.91082e-11
5.7856e-11
5.66039e-11
5.53521e-11
6.53656e-11
6.41148e-11
6.28637e-11
6.16122e-11
6.03605e-11
5.91086e-11
5.78566e-11
5.66045e-11
5.53526e-11
5.4101e-11
6.41127e-11
6.2862e-11
6.1611e-11
6.03597e-11
5.91082e-11
5.78565e-11
5.66048e-11
5.53529e-11
5.41011e-11
5.28497e-11
6.28599e-11
6.16093e-11
6.03585e-11
5.91074e-11
5.7856e-11
5.66045e-11
5.53529e-11
5.41012e-11
5.28495e-11
5.15982e-11
6.16074e-11
6.03568e-11
5.91061e-11
5.78551e-11
5.66039e-11
5.53525e-11
5.4101e-11
5.28494e-11
5.15978e-11
5.03467e-11
6.0355e-11
5.91045e-11
5.78539e-11
5.66031e-11
5.53521e-11
5.4101e-11
5.28497e-11
5.15982e-11
5.03467e-11
4.90953e-11
7.16225e-11
7.03709e-11
6.91186e-11
6.78661e-11
6.66136e-11
6.53611e-11
6.41087e-11
6.28565e-11
6.16044e-11
6.03524e-11
7.03708e-11
6.91195e-11
6.78675e-11
6.66152e-11
6.53628e-11
6.41104e-11
6.28581e-11
6.16059e-11
6.03539e-11
5.91019e-11
6.91186e-11
6.78675e-11
6.66159e-11
6.53639e-11
6.41117e-11
6.28595e-11
6.16073e-11
6.03552e-11
5.91032e-11
5.78514e-11
6.78661e-11
6.66152e-11
6.53639e-11
6.41122e-11
6.28603e-11
6.16082e-11
6.03562e-11
5.91042e-11
5.78524e-11
5.66007e-11
6.66136e-11
6.53628e-11
6.41117e-11
6.28603e-11
6.16086e-11
6.03568e-11
5.91049e-11
5.78531e-11
5.66013e-11
5.53498e-11
6.53611e-11
6.41104e-11
6.28595e-11
6.16082e-11
6.03568e-11
5.91052e-11
5.78535e-11
5.66018e-11
5.53502e-11
5.40988e-11
6.41087e-11
6.28581e-11
6.16073e-11
6.03562e-11
5.91049e-11
5.78535e-11
5.6602e-11
5.53505e-11
5.40989e-11
5.28477e-11
6.28565e-11
6.16059e-11
6.03552e-11
5.91042e-11
5.7853e-11
5.66017e-11
5.53504e-11
5.4099e-11
5.28476e-11
5.15965e-11
6.16044e-11
6.03539e-11
5.91032e-11
5.78524e-11
5.66013e-11
5.53501e-11
5.40989e-11
5.28475e-11
5.15962e-11
5.03452e-11
6.03524e-11
5.91019e-11
5.78514e-11
5.66007e-11
5.53498e-11
5.40988e-11
5.28477e-11
5.15965e-11
5.03452e-11
4.9094e-11
7.1617e-11
7.03656e-11
6.91137e-11
6.78617e-11
6.66096e-11
6.53576e-11
6.41056e-11
6.28537e-11
6.1602e-11
6.03504e-11
7.03656e-11
6.91145e-11
6.78628e-11
6.66109e-11
6.53589e-11
6.4107e-11
6.2855e-11
6.16032e-11
6.03515e-11
5.90999e-11
6.91137e-11
6.78628e-11
6.66114e-11
6.53598e-11
6.4108e-11
6.28561e-11
6.16043e-11
6.03525e-11
5.91009e-11
5.78494e-11
6.78617e-11
6.66109e-11
6.53598e-11
6.41084e-11
6.28568e-11
6.1605e-11
6.03533e-11
5.91017e-11
5.78502e-11
5.65987e-11
6.66096e-11
6.53589e-11
6.41079e-11
6.28567e-11
6.16053e-11
6.03538e-11
5.91023e-11
5.78507e-11
5.65993e-11
5.5348e-11
6.53576e-11
6.4107e-11
6.28561e-11
6.1605e-11
6.03538e-11
5.91025e-11
5.78511e-11
5.65996e-11
5.53482e-11
5.40971e-11
6.41056e-11
6.2855e-11
6.16043e-11
6.03533e-11
5.91022e-11
5.7851e-11
5.65998e-11
5.53485e-11
5.40972e-11
5.28462e-11
6.28537e-11
6.16032e-11
6.03525e-11
5.91017e-11
5.78507e-11
5.65996e-11
5.53484e-11
5.40973e-11
5.2846e-11
5.15951e-11
6.1602e-11
6.03515e-11
5.91009e-11
5.78501e-11
5.65992e-11
5.53482e-11
5.40971e-11
5.2846e-11
5.15948e-11
5.0344e-11
6.03504e-11
5.90999e-11
5.78494e-11
5.65987e-11
5.5348e-11
5.40971e-11
5.28461e-11
5.15951e-11
5.0344e-11
4.9093e-11
7.16126e-11
7.03615e-11
6.91099e-11
6.78582e-11
6.66065e-11
6.53548e-11
6.41031e-11
6.28515e-11
6.16001e-11
6.03487e-11
7.03614e-11
6.91105e-11
6.78591e-11
6.66075e-11
6.53558e-11
6.41042e-11
6.28526e-11
6.16011e-11
6.03496e-11
5.90983e-11
6.91099e-11
6.7859e-11
6.66079e-11
6.53565e-11
6.4105e-11
6.28534e-11
6.16019e-11
6.03505e-11
5.90991e-11
5.78478e-11
6.78582e-11
6.66075e-11
6.53565e-11
6.41053e-11
6.2854e-11
6.16025e-11
6.03511e-11
5.90997e-11
5.78484e-11
5.65972e-11
6.66065e-11
6.53558e-11
6.4105e-11
6.28539e-11
6.16028e-11
6.03515e-11
5.91001e-11