/*--------------------------------*- C++ -*----------------------------------*\
| =========                 |                                                 |
| \\      /  F ield         | foam-extend: Open Source CFD                    |
|  \\    /   O peration     | Version:     3.1                                |
|   \\  /    A nd           | Web:         http://www.extend-project.de       |
|    \\/     M anipulation  |                                                 |
\*---------------------------------------------------------------------------*/
FoamFile
{
    version     2.0;
    format      ascii;
    class       volVectorField;
    location    "0.0001";
    object      cellMotionU;
}
// * * * * * * * * * * * * * * * * * * * * * * * * * * * * * * * * * * * * * //

dimensions      [0 1 -1 0 0 0 0];

internalField   nonuniform List<vector> 
16000
(
(-2.38333e-10 -2.31352e-10 -1.1237e-08)
(-7.45845e-10 -2.28861e-10 -1.13699e-08)
(-1.34176e-09 -2.30959e-10 -1.16429e-08)
(-2.10028e-09 -2.39415e-10 -1.20791e-08)
(-3.0966e-09 -2.53511e-10 -1.27239e-08)
(-4.39869e-09 -2.73634e-10 -1.36499e-08)
(-6.04749e-09 -2.97864e-10 -1.49654e-08)
(-8.01569e-09 -3.21928e-10 -1.68273e-08)
(-1.01232e-08 -3.37723e-10 -1.94515e-08)
(-1.19028e-08 -3.2711e-10 -2.31313e-08)
(-2.35138e-10 -7.22316e-10 -1.13934e-08)
(-7.43267e-10 -7.23041e-10 -1.15218e-08)
(-1.34612e-09 -7.30621e-10 -1.1787e-08)
(-2.10538e-09 -7.54163e-10 -1.22131e-08)
(-3.09117e-09 -7.96155e-10 -1.28448e-08)
(-4.36541e-09 -8.55246e-10 -1.37503e-08)
(-5.95906e-09 -9.27987e-10 -1.50289e-08)
(-7.83722e-09 -1.00395e-09 -1.68216e-08)
(-9.81067e-09 -1.05561e-09 -1.92995e-08)
(-1.14224e-08 -1.03266e-09 -2.2651e-08)
(-2.37815e-10 -1.29978e-09 -1.17122e-08)
(-7.49615e-10 -1.30676e-09 -1.18323e-08)
(-1.35713e-09 -1.32352e-09 -1.20842e-08)
(-2.11793e-09 -1.35625e-09 -1.24912e-08)
(-3.0847e-09 -1.41803e-09 -1.30969e-08)
(-4.30859e-09 -1.51071e-09 -1.39653e-08)
(-5.81246e-09 -1.62859e-09 -1.51868e-08)
(-7.53937e-09 -1.75482e-09 -1.68709e-08)
(-9.29009e-09 -1.84922e-09 -1.91399e-08)
(-1.06331e-08 -1.83592e-09 -2.21002e-08)
(-2.44926e-10 -2.03903e-09 -1.2215e-08)
(-7.71679e-10 -2.04466e-09 -1.23245e-08)
(-1.38658e-09 -2.06206e-09 -1.25564e-08)
(-2.14462e-09 -2.09693e-09 -1.29371e-08)
(-3.09324e-09 -2.16245e-09 -1.35097e-08)
(-4.26128e-09 -2.27044e-09 -1.43334e-08)
(-5.6543e-09 -2.41837e-09 -1.5488e-08)
(-7.20798e-09 -2.58231e-09 -1.70669e-08)
(-8.71622e-09 -2.71247e-09 -1.91557e-08)
(-9.7712e-09 -2.71742e-09 -2.18196e-08)
(-2.57724e-10 -3.01289e-09 -1.29457e-08)
(-8.09861e-10 -3.00784e-09 -1.30414e-08)
(-1.44422e-09 -3.00275e-09 -1.32448e-08)
(-2.20376e-09 -3.01682e-09 -1.35898e-08)
(-3.13002e-09 -3.06442e-09 -1.41215e-08)
(-4.24568e-09 -3.15707e-09 -1.48986e-08)
(-5.53508e-09 -3.30129e-09 -1.59957e-08)
(-6.91706e-09 -3.47295e-09 -1.74932e-08)
(-8.19384e-09 -3.60702e-09 -1.94659e-08)
(-8.98382e-09 -3.59848e-09 -2.19652e-08)
(-2.76472e-10 -4.28712e-09 -1.39764e-08)
(-8.6435e-10 -4.25401e-09 -1.40492e-08)
(-1.52827e-09 -4.1973e-09 -1.42108e-08)
(-2.30194e-09 -4.1496e-09 -1.45055e-08)
(-3.21094e-09 -4.13965e-09 -1.49863e-08)
(-4.27321e-09 -4.18192e-09 -1.57178e-08)
(-5.46799e-09 -4.27206e-09 -1.67689e-08)
(-6.69311e-09 -4.3892e-09 -1.82128e-08)
(-7.74627e-09 -4.46442e-09 -2.01287e-08)
(-8.27595e-09 -4.35826e-09 -2.25641e-08)
(-2.99671e-10 -5.90029e-09 -1.54155e-08)
(-9.32765e-10 -5.81295e-09 -1.54465e-08)
(-1.63586e-09 -5.66609e-09 -1.55427e-08)
(-2.43234e-09 -5.50377e-09 -1.57603e-08)
(-3.33539e-09 -5.37758e-09 -1.61736e-08)
(-4.3427e-09 -5.31147e-09 -1.68501e-08)
(-5.4283e-09 -5.29316e-09 -1.78615e-08)
(-6.49599e-09 -5.2771e-09 -1.92773e-08)
(-7.31861e-09 -5.19233e-09 -2.1165e-08)
(-7.54715e-09 -4.86067e-09 -2.35767e-08)
(-3.24317e-10 -7.82127e-09 -1.74196e-08)
(-1.00753e-09 -7.64797e-09 -1.73736e-08)
(-1.75219e-09 -7.35347e-09 -1.73471e-08)
(-2.5716e-09 -7.01459e-09 -1.74416e-08)
(-3.46749e-09 -6.70299e-09 -1.77547e-08)
(-4.42064e-09 -6.45249e-09 -1.83641e-08)
(-5.37981e-09 -6.24937e-09 -1.933e-08)
(-6.24616e-09 -6.0219e-09 -2.07215e-08)
(-6.79892e-09 -5.66345e-09 -2.25576e-08)
(-6.66304e-09 -4.97025e-09 -2.49328e-08)
(-3.45386e-10 -9.86304e-09 -2.02025e-08)
(-1.06845e-09 -9.56798e-09 -1.99986e-08)
(-1.84404e-09 -9.06439e-09 -1.9742e-08)
(-2.67268e-09 -8.48484e-09 -1.96298e-08)
(-3.54165e-09 -7.92534e-09 -1.97982e-08)
(-4.41416e-09 -7.41988e-09 -2.03237e-08)
(-5.21871e-09 -6.93974e-09 -2.1242e-08)
(-5.83196e-09 -6.40755e-09 -2.25752e-08)
(-6.05048e-09 -5.69226e-09 -2.43112e-08)
(-5.50627e-09 -4.55833e-09 -2.65676e-08)
(-3.51535e-10 -1.15464e-08 -2.40512e-08)
(-1.08068e-09 -1.11144e-08 -2.35025e-08)
(-1.85097e-09 -1.03774e-08 -2.2827e-08)
(-2.65175e-09 -9.52308e-09 -2.23822e-08)
(-3.45078e-09 -8.67809e-09 -2.23464e-08)
(-4.18526e-09 -7.86639e-09 -2.27723e-08)
(-4.75742e-09 -7.03235e-09 -2.36458e-08)
(-5.03302e-09 -6.08757e-09 -2.4921e-08)
(-4.8506e-09 -4.9431e-09 -2.65264e-08)
(-3.99148e-09 -3.47802e-09 -2.84193e-08)
(-5.39332e-10 -5.2044e-10 -3.26593e-08)
(-1.70114e-09 -5.18392e-10 -3.2986e-08)
(-3.10678e-09 -5.30009e-10 -3.36507e-08)
(-4.9691e-09 -5.59998e-10 -3.46998e-08)
(-7.53398e-09 -6.08149e-10 -3.62277e-08)
(-1.10859e-08 -6.77902e-10 -3.8391e-08)
(-1.59437e-08 -7.69105e-10 -4.14316e-08)
(-2.24348e-08 -8.78803e-10 -4.57157e-08)
(-3.08143e-08 -1.00038e-09 -5.17793e-08)
(-4.11584e-08 -1.11275e-09 -6.04182e-08)
(-5.3544e-10 -1.6389e-09 -3.30534e-08)
(-1.70517e-09 -1.65087e-09 -3.33677e-08)
(-3.13261e-09 -1.68856e-09 -3.40114e-08)
(-5.0013e-09 -1.77468e-09 -3.50333e-08)
(-7.54347e-09 -1.9198e-09 -3.65272e-08)
(-1.10234e-08 -2.12881e-09 -3.86397e-08)
(-1.57207e-08 -2.40705e-09 -4.15912e-08)
(-2.19101e-08 -2.75302e-09 -4.57097e-08)
(-2.97252e-08 -3.13755e-09 -5.14188e-08)
(-3.89947e-08 -3.50155e-09 -5.92405e-08)
(-5.48035e-10 -2.99693e-09 -3.38501e-08)
(-1.73906e-09 -3.02905e-09 -3.41421e-08)
(-3.18957e-09 -3.10056e-09 -3.475e-08)
(-5.07274e-09 -3.22925e-09 -3.57211e-08)
(-7.5762e-09 -3.45437e-09 -3.71478e-08)
(-1.09304e-08 -3.79521e-09 -3.9168e-08)
(-1.53769e-08 -4.26286e-09 -4.19816e-08)
(-2.10832e-08 -4.85626e-09 -4.58416e-08)
(-2.80474e-08 -5.5419e-09 -5.10502e-08)
(-3.59282e-08 -6.23689e-09 -5.79134e-08)
(-5.74437e-10 -4.81024e-09 -3.50907e-08)
(-1.82037e-09 -4.84361e-09 -3.53545e-08)
(-3.30848e-09 -4.92696e-09 -3.59097e-08)
(-5.20559e-09 -5.08113e-09 -3.68113e-08)
(-7.68435e-09 -5.35064e-09 -3.81523e-08)
(-1.09134e-08 -5.78629e-09 -4.00606e-08)
(-1.50742e-08 -6.41971e-09 -4.2713e-08)
(-2.02819e-08 -7.25196e-09 -4.63242e-08)
(-2.64388e-08 -8.25277e-09 -5.11077e-08)
(-3.31383e-08 -9.34264e-09 -5.72632e-08)
(-6.18796e-10 -7.31913e-09 -3.68675e-08)
(-1.95445e-09 -7.32924e-09 -3.70949e-08)
(-3.52072e-09 -7.36464e-09 -3.75761e-08)
(-5.45605e-09 -7.48592e-09 -3.83854e-08)
(-7.91834e-09 -7.74907e-09 -3.96214e-08)
(-1.10584e-08 -8.21307e-09 -4.14125e-08)
(-1.49955e-08 -8.94564e-09 -4.39256e-08)
(-1.97825e-08 -9.9697e-09 -4.73471e-08)
(-2.53155e-08 -1.12488e-08 -5.18659e-08)
(-3.12054e-08 -1.27115e-08 -5.76488e-08)
(-6.84386e-10 -1.08034e-08 -3.93377e-08)
(-2.14965e-09 -1.07405e-08 -3.9507e-08)
(-3.83608e-09 -1.06458e-08 -3.98821e-08)
(-5.86207e-09 -1.0625e-08 -4.0564e-08)
(-8.34748e-09 -1.07824e-08 -4.16712e-08)
(-1.14344e-08 -1.11987e-08 -4.3348e-08)
(-1.52291e-08 -1.19256e-08 -4.57504e-08)
(-1.97237e-08 -1.3015e-08 -4.90514e-08)
(-2.48063e-08 -1.44667e-08 -5.34547e-08)
(-3.0163e-08 -1.61627e-08 -5.91223e-08)
(-7.72218e-10 -1.55756e-08 -4.27474e-08)
(-2.41428e-09 -1.5354e-08 -4.28132e-08)
(-4.27243e-09 -1.50063e-08 -4.30258e-08)
(-6.44313e-09 -1.46873e-08 -4.35164e-08)
(-9.02097e-09 -1.45835e-08 -4.44565e-08)
(-1.2099e-08 -1.48124e-08 -4.59995e-08)
(-1.578e-08 -1.54243e-08 -4.83105e-08)
(-2.00841e-08 -1.64235e-08 -5.15577e-08)
(-2.48248e-08 -1.7837e-08 -5.59244e-08)
(-2.97241e-08 -1.95148e-08 -6.15933e-08)
(-8.82898e-10 -2.19509e-08 -4.74701e-08)
(-2.75486e-09 -2.14385e-08 -4.73463e-08)
(-4.83426e-09 -2.06162e-08 -4.72578e-08)
(-7.20073e-09 -1.97862e-08 -4.74473e-08)
(-9.92766e-09 -1.92188e-08 -4.81443e-08)
(-1.30738e-08 -1.90738e-08 -4.95294e-08)
(-1.66763e-08 -1.93986e-08 -5.17442e-08)
(-2.07716e-08 -2.01567e-08 -5.49596e-08)
(-2.51468e-08 -2.1253e-08 -5.9252e-08)
(-2.9526e-08 -2.26092e-08 -6.49164e-08)
(-1.0185e-09 -3.01592e-08 -5.40501e-08)
(-3.1626e-09 -2.91171e-08 -5.35338e-08)
(-5.50742e-09 -2.74811e-08 -5.2878e-08)
(-8.11182e-09 -2.58459e-08 -5.25628e-08)
(-1.10281e-08 -2.46024e-08 -5.29137e-08)
(-1.42842e-08 -2.39097e-08 -5.41101e-08)
(-1.78686e-08 -2.37523e-08 -5.62378e-08)
(-2.171e-08 -2.40357e-08 -5.93615e-08)
(-2.56056e-08 -2.45814e-08 -6.34875e-08)
(-2.93161e-08 -2.53332e-08 -6.89763e-08)
(-1.1769e-09 -4.02268e-08 -6.32895e-08)
(-3.62162e-09 -3.82005e-08 -6.18956e-08)
(-6.25165e-09 -3.52778e-08 -6.01863e-08)
(-9.11719e-09 -3.24972e-08 -5.90509e-08)
(-1.2245e-08 -3.03809e-08 -5.89161e-08)
(-1.56216e-08 -2.90171e-08 -5.99012e-08)
(-1.91785e-08 -2.82484e-08 -6.19736e-08)
(-2.27706e-08 -2.78522e-08 -6.50385e-08)
(-2.6165e-08 -2.76324e-08 -6.89555e-08)
(-2.90429e-08 -2.7503e-08 -7.36806e-08)
(-3.83693e-10 -3.57804e-10 -5.14752e-08)
(-1.24285e-09 -3.67155e-10 -5.18425e-08)
(-2.38197e-09 -3.95714e-10 -5.25716e-08)
(-4.05743e-09 -4.47404e-10 -5.36772e-08)
(-6.61424e-09 -5.24046e-10 -5.52048e-08)
(-1.05376e-08 -6.32102e-10 -5.72428e-08)
(-1.65228e-08 -7.77464e-10 -5.994e-08)
(-2.5575e-08 -9.67158e-10 -6.35448e-08)
(-3.91304e-08 -1.2111e-09 -6.84588e-08)
(-5.93003e-08 -1.5159e-09 -7.53508e-08)
(-3.90781e-10 -1.16162e-09 -5.19449e-08)
(-1.27482e-09 -1.20138e-09 -5.22951e-08)
(-2.44663e-09 -1.28823e-09 -5.29948e-08)
(-4.13869e-09 -1.44063e-09 -5.40633e-08)
(-6.68029e-09 -1.67372e-09 -5.55478e-08)
(-1.05248e-08 -2.00311e-09 -5.75289e-08)
(-1.62997e-08 -2.45276e-09 -6.01393e-08)
(-2.48893e-08 -3.05353e-09 -6.35957e-08)
(-3.7421e-08 -3.82613e-09 -6.82015e-08)
(-5.52527e-08 -4.78998e-09 -7.43756e-08)
(-4.18662e-10 -2.24322e-09 -5.28733e-08)
(-1.35486e-09 -2.314e-09 -5.31932e-08)
(-2.57765e-09 -2.4611e-09 -5.38434e-08)
(-4.30767e-09 -2.70153e-09 -5.48436e-08)
(-6.82839e-09 -3.0794e-09 -5.6244e-08)
(-1.05442e-08 -3.63357e-09 -5.81213e-08)
(-1.60058e-08 -4.41034e-09 -6.05939e-08)
(-2.38884e-08 -5.46487e-09 -6.38173e-08)
(-3.49714e-08 -6.85272e-09 -6.79908e-08)
(-5.00054e-08 -8.62564e-09 -7.33363e-08)
(-4.65627e-10 -3.86103e-09 -5.42676e-08)
(-1.49805e-09 -3.94393e-09 -5.45493e-08)
(-2.80209e-09 -4.12521e-09 -5.51296e-08)
(-4.59081e-09 -4.43362e-09 -5.60379e-08)
(-7.12666e-09 -4.92667e-09 -5.73285e-08)
(-1.07398e-08 -5.68269e-09 -5.9075e-08)
(-1.58849e-08 -6.78737e-09 -6.13812e-08)
(-2.31137e-08 -8.32929e-09 -6.43738e-08)
(-3.29596e-08 -1.04096e-08 -6.818e-08)
(-4.58762e-08 -1.31501e-08 -7.29289e-08)
(-5.3656e-10 -6.35693e-09 -5.61719e-08)
(-1.71435e-09 -6.42296e-09 -5.64066e-08)
(-3.15726e-09 -6.57259e-09 -5.68932e-08)
(-5.05314e-09 -6.88351e-09 -5.76838e-08)
(-7.64684e-09 -7.4403e-09 -5.88408e-08)
(-1.12414e-08 -8.34421e-09 -6.04427e-08)
(-1.62094e-08 -9.73611e-09 -6.25922e-08)
(-2.29979e-08 -1.17605e-08 -6.5398e-08)
(-3.20761e-08 -1.45631e-08 -6.89697e-08)
(-4.38307e-08 -1.83419e-08 -7.34143e-08)
(-6.37917e-10 -1.02145e-08 -5.86787e-08)
(-2.02176e-09 -1.01989e-08 -5.88451e-08)
(-3.67152e-09 -1.02114e-08 -5.92068e-08)
(-5.75943e-09 -1.03959e-08 -5.98437e-08)
(-8.4944e-09 -1.09057e-08 -6.08411e-08)
(-1.21717e-08 -1.18879e-08 -6.22956e-08)
(-1.71433e-08 -1.3485e-08 -6.43044e-08)
(-2.37766e-08 -1.58986e-08 -6.69731e-08)
(-3.25321e-08 -1.9378e-08 -7.04311e-08)
(-4.38699e-08 -2.41332e-08 -7.47855e-08)
(-7.77331e-10 -1.61262e-08 -6.19497e-08)
(-2.44829e-09 -1.5901e-08 -6.20064e-08)
(-4.39676e-09 -1.5593e-08 -6.21916e-08)
(-6.77913e-09 -1.54368e-08 -6.26156e-08)
(-9.7868e-09 -1.57127e-08 -6.34157e-08)
(-1.36654e-08 -1.66235e-08 -6.47024e-08)
(-1.8773e-08 -1.83358e-08 -6.65839e-08)
(-2.55162e-08 -2.10223e-08 -6.91657e-08)
(-3.4258e-08 -2.49961e-08 -7.25712e-08)
(-4.55364e-08 -3.05202e-08 -7.69301e-08)
(-9.67202e-10 -2.50879e-08 -6.62573e-08)
(-3.03678e-09 -2.44124e-08 -6.61261e-08)
(-5.39645e-09 -2.3403e-08 -6.60098e-08)
(-8.19846e-09 -2.25661e-08 -6.61221e-08)
(-1.16223e-08 -2.23283e-08 -6.66568e-08)
(-1.58884e-08 -2.29603e-08 -6.77528e-08)
(-2.1279e-08 -2.4617e-08 -6.9505e-08)
(-2.82435e-08 -2.74557e-08 -7.20223e-08)
(-3.70456e-08 -3.16075e-08 -7.53474e-08)
(-4.83156e-08 -3.75823e-08 -7.97113e-08)
(-1.23048e-09 -3.85092e-08 -7.20395e-08)
(-3.83844e-09 -3.68543e-08 -7.15335e-08)
(-6.75483e-09 -3.44395e-08 -7.08724e-08)
(-1.01281e-08 -3.23548e-08 -7.04905e-08)
(-1.41369e-08 -3.12564e-08 -7.06704e-08)
(-1.89841e-08 -3.14031e-08 -7.15531e-08)
(-2.48976e-08 -3.28291e-08 -7.31882e-08)
(-3.2141e-08 -3.55471e-08 -7.56046e-08)
(-4.0928e-08 -3.95566e-08 -7.87904e-08)
(-5.19415e-08 -4.55159e-08 -8.30372e-08)
(-1.60234e-09 -5.84367e-08 -8.00182e-08)
(-4.93769e-09 -5.45641e-08 -7.86781e-08)
(-8.5869e-09 -4.94847e-08 -7.70153e-08)
(-1.27185e-08 -4.53159e-08 -7.58494e-08)
(-1.75165e-08 -4.29411e-08 -7.55548e-08)
(-2.31683e-08 -4.24453e-08 -7.62153e-08)
(-2.98437e-08 -4.35666e-08 -7.7777e-08)
(-3.76489e-08 -4.60092e-08 -8.01378e-08)
(-4.65677e-08 -4.9565e-08 -8.31714e-08)
(-5.65625e-08 -5.44146e-08 -8.68524e-08)
(2.4992e-10 2.78782e-10 -6.72593e-08)
(7.30021e-10 2.51178e-10 -6.75742e-08)
(1.1344e-09 2.078e-10 -6.81674e-08)
(1.38242e-09 1.52303e-10 -6.89842e-08)
(1.30853e-09 8.44673e-11 -6.99514e-08)
(6.00336e-10 3.7003e-12 -7.09705e-08)
(-1.29443e-09 -9.25719e-11 -7.1905e-08)
(-5.31523e-09 -2.07919e-10 -7.25746e-08)
(-1.30141e-08 -3.46069e-10 -7.27486e-08)
(-2.69469e-08 -5.06941e-10 -7.21554e-08)
(2.24075e-10 8.13444e-10 -6.76964e-08)
(6.60955e-10 7.42384e-10 -6.79915e-08)
(1.03418e-09 6.15784e-10 -6.85504e-08)
(1.25573e-09 4.4796e-10 -6.93258e-08)
(1.16608e-09 2.40328e-10 -7.02498e-08)
(4.76362e-10 -1.15931e-11 -7.12263e-08)
(-1.31243e-09 -3.1745e-10 -7.2124e-08)
(-5.02156e-09 -6.9434e-10 -7.27717e-08)
(-1.18978e-08 -1.15885e-09 -7.29476e-08)
(-2.371e-08 -1.72236e-09 -7.23978e-08)
(1.85006e-10 1.26909e-09 -6.85256e-08)
(5.43868e-10 1.1669e-09 -6.87863e-08)
(8.46397e-10 9.71042e-10 -6.92884e-08)
(1.01075e-09 6.93573e-10 -6.99883e-08)
(8.84189e-10 3.41076e-10 -7.08295e-08)
(2.09839e-10 -9.83347e-11 -7.17257e-08)
(-1.43776e-09 -6.50409e-10 -7.25571e-08)
(-4.70297e-09 -1.35364e-09 -7.31608e-08)
(-1.04849e-08 -2.26081e-09 -7.33326e-08)
(-1.98682e-08 -3.43216e-09 -7.28411e-08)
(1.33855e-10 1.56751e-09 -6.96817e-08)
(3.90182e-10 1.43845e-09 -6.99e-08)
(5.89303e-10 1.18855e-09 -7.03259e-08)
(6.55228e-10 8.16749e-10 -7.09264e-08)
(4.5173e-10 3.19895e-10 -7.16549e-08)
(-2.48693e-10 -3.20363e-10 -7.24385e-08)
(-1.80229e-09 -1.15228e-09 -7.31713e-08)
(-4.72628e-09 -2.25274e-09 -7.37059e-08)
(-9.67576e-09 -3.72856e-09 -7.38564e-08)
(-1.73847e-08 -5.73112e-09 -7.34138e-08)
(7.25824e-11 1.53918e-09 -7.10883e-08)
(2.02279e-10 1.39774e-09 -7.12583e-08)
(2.69281e-10 1.11686e-09 -7.15908e-08)
(1.97103e-10 6.80865e-10 -7.20715e-08)
(-1.38545e-10 6.33697e-11 -7.2663e-08)
(-9.4064e-10 -7.73711e-10 -7.33049e-08)
(-2.52224e-09 -1.90129e-09 -7.39103e-08)
(-5.32368e-09 -3.4402e-09 -7.43475e-08)
(-9.90529e-09 -5.56576e-09 -7.4445e-08)
(-1.68977e-08 -8.53229e-09 -7.40157e-08)
(2.07207e-13 8.65207e-10 -7.26501e-08)
(-2.23461e-11 7.46912e-10 -7.27638e-08)
(-1.212e-10 4.9384e-10 -7.29905e-08)
(-3.74802e-10 5.43418e-11 -7.33322e-08)
(-9.03089e-10 -6.29678e-10 -7.37672e-08)
(-1.89971e-09 -1.62949e-09 -7.42489e-08)
(-3.65345e-09 -3.03646e-09 -7.46981e-08)
(-6.56742e-09 -5.00093e-09 -7.50015e-08)
(-1.11984e-08 -7.77959e-09 -7.50069e-08)
(-1.81991e-08 -1.17021e-08 -7.45314e-08)
(-8.80217e-11 -1.01571e-09 -7.42458e-08)
(-2.97531e-10 -1.02563e-09 -7.42946e-08)
(-6.06079e-10 -1.12383e-09 -7.44078e-08)
(-1.09613e-09 -1.43349e-09 -7.45954e-08)
(-1.89026e-09 -2.08348e-09 -7.48572e-08)
(-3.1699e-09 -3.16793e-09 -7.51604e-08)
(-5.22228e-09 -4.8018e-09 -7.54343e-08)
(-8.45421e-09 -7.1483e-09 -7.55723e-08)
(-1.33918e-08 -1.04868e-08 -7.54403e-08)
(-2.07528e-08 -1.52197e-08 -7.4856e-08)
(-2.02199e-10 -5.05121e-09 -7.57248e-08)
(-6.54959e-10 -4.75827e-09 -7.57022e-08)
(-1.2346e-09 -4.40906e-09 -7.56875e-08)
(-2.03599e-09 -4.3345e-09 -7.57101e-08)
(-3.18576e-09 -4.76584e-09 -7.57863e-08)
(-4.86182e-09 -5.82601e-09 -7.58974e-08)
(-7.32184e-09 -7.59577e-09 -7.59842e-08)
(-1.09889e-08 -1.02411e-08 -7.59402e-08)
(-1.62956e-08 -1.39443e-08 -7.56383e-08)
(-2.40586e-08 -1.92516e-08 -7.49022e-08)
(-3.61828e-10 -1.27936e-08 -7.69058e-08)
(-1.14809e-09 -1.17173e-08 -7.67999e-08)
(-2.09355e-09 -1.03054e-08 -7.66403e-08)
(-3.31036e-09 -9.36495e-09 -7.64886e-08)
(-4.9394e-09 -9.29969e-09 -7.63767e-08)
(-7.15642e-09 -1.01995e-08 -7.62947e-08)
(-1.0187e-08 -1.20325e-08 -7.61861e-08)
(-1.43393e-08 -1.48178e-08 -7.59575e-08)
(-1.99701e-08 -1.86535e-08 -7.54874e-08)
(-2.79064e-08 -2.41762e-08 -7.46064e-08)
(-6.01666e-10 -2.6773e-08 -7.75954e-08)
(-1.86729e-09 -2.36883e-08 -7.73791e-08)
(-3.31865e-09 -1.99658e-08 -7.70525e-08)
(-5.10159e-09 -1.73543e-08 -7.67186e-08)
(-7.38161e-09 -1.64076e-08 -7.64271e-08)
(-1.03356e-08 -1.70214e-08 -7.61648e-08)
(-1.41491e-08 -1.88921e-08 -7.58705e-08)
(-1.90053e-08 -2.17708e-08 -7.54561e-08)
(-2.5051e-08 -2.55391e-08 -7.48353e-08)
(-3.24788e-08 -3.04034e-08 -7.39248e-08)
(9.69473e-10 1.0005e-09 -8.03209e-08)
(3.02153e-09 9.57355e-10 -8.06405e-08)
(5.39531e-09 9.07968e-10 -8.12227e-08)
(8.3679e-09 8.67678e-10 -8.19683e-08)
(1.22306e-08 8.43524e-10 -8.27256e-08)
(1.72828e-08 8.50023e-10 -8.3264e-08)
(2.3819e-08 9.00496e-10 -8.32329e-08)
(3.20947e-08 1.01343e-09 -8.21084e-08)
(4.22308e-08 1.22063e-09 -7.91205e-08)
(5.40902e-08 1.57515e-09 -7.31429e-08)
(9.26923e-10 3.1045e-09 -8.07665e-08)
(2.92303e-09 3.01225e-09 -8.10622e-08)
(5.27208e-09 2.87059e-09 -8.16035e-08)
(8.20291e-09 2.74194e-09 -8.23009e-08)
(1.19912e-08 2.66502e-09 -8.30115e-08)
(1.69246e-08 2.67356e-09 -8.35162e-08)
(2.3274e-08 2.81243e-09 -8.34891e-08)
(3.12853e-08 3.13761e-09 -8.24562e-08)
(4.10529e-08 3.71647e-09 -7.97614e-08)
(5.24127e-08 4.66696e-09 -7.45656e-08)
(8.85167e-10 5.5227e-09 -8.15901e-08)
(2.79138e-09 5.40344e-09 -8.18451e-08)
(5.05858e-09 5.19562e-09 -8.23186e-08)
(7.90867e-09 4.96202e-09 -8.29283e-08)
(1.15568e-08 4.80371e-09 -8.35499e-08)
(1.6264e-08 4.7876e-09 -8.39873e-08)
(2.22964e-08 4.97813e-09 -8.39518e-08)
(2.98422e-08 5.44957e-09 -8.30417e-08)
(3.89702e-08 6.2853e-09 -8.07387e-08)
(4.95762e-08 7.60189e-09 -7.64556e-08)
(8.47677e-10 8.54213e-09 -8.26781e-08)
(2.67978e-09 8.37429e-09 -8.28837e-08)
(4.8453e-09 8.08694e-09 -8.32691e-08)
(7.56416e-09 7.7445e-09 -8.37648e-08)
(1.10471e-08 7.46035e-09 -8.42625e-08)
(1.54857e-08 7.36167e-09 -8.45935e-08)
(2.11019e-08 7.54449e-09 -8.45103e-08)
(2.80852e-08 8.07977e-09 -8.36718e-08)
(3.64804e-08 9.03595e-09 -8.16649e-08)
(4.62256e-08 1.0484e-08 -7.80459e-08)
(8.29681e-10 1.24447e-08 -8.38695e-08)
(2.62174e-09 1.22076e-08 -8.40228e-08)
(4.72474e-09 1.17774e-08 -8.43085e-08)
(7.31901e-09 1.12785e-08 -8.46739e-08)
(1.06085e-08 1.08364e-08 -8.50214e-08)
(1.47842e-08 1.05887e-08 -8.5204e-08)
(2.00047e-08 1.06874e-08 -8.50119e-08)
(2.64079e-08 1.12212e-08 -8.41514e-08)
(3.40728e-08 1.22133e-08 -8.22603e-08)
(4.29537e-08 1.36624e-08 -7.89594e-08)
(8.44743e-10 1.7519e-08 -8.49295e-08)
(2.65803e-09 1.7169e-08 -8.50347e-08)
(4.75804e-09 1.65273e-08 -8.52268e-08)
(7.2982e-09 1.57741e-08 -8.54594e-08)
(1.04365e-08 1.51041e-08 -8.56451e-08)
(1.43684e-08 1.46811e-08 -8.56501e-08)
(1.92624e-08 1.46312e-08 -8.52849e-08)
(2.5183e-08 1.50899e-08 -8.42935e-08)
(3.21811e-08 1.61127e-08 -8.23387e-08)
(4.026e-08 1.75807e-08 -7.90501e-08)
(9.03785e-10 2.40459e-08 -8.55123e-08)
(2.82963e-09 2.35131e-08 -8.55924e-08)
(5.02048e-09 2.25717e-08 -8.57277e-08)
(7.60087e-09 2.14446e-08 -8.58569e-08)
(1.07012e-08 2.04314e-08 -8.58898e-08)
(1.44643e-08 1.97619e-08 -8.57053e-08)
(1.90753e-08 1.95712e-08 -8.51244e-08)
(2.46563e-08 1.99294e-08 -8.39076e-08)
(3.11348e-08 2.09697e-08 -8.17525e-08)
(3.85116e-08 2.25593e-08 -7.8273e-08)
(1.01817e-09 3.22653e-08 -8.511e-08)
(3.17648e-09 3.14614e-08 -8.52308e-08)
(5.57367e-09 3.00626e-08 -8.54036e-08)
(8.31049e-09 2.8423e-08 -8.55094e-08)
(1.1497e-08 2.69324e-08 -8.54375e-08)
(1.52528e-08 2.59013e-08 -8.50706e-08)
(1.96992e-08 2.55134e-08 -8.42605e-08)
(2.50076e-08 2.58231e-08 -8.27728e-08)
(3.10813e-08 2.68199e-08 -8.03695e-08)
(3.79088e-08 2.8601e-08 -7.66125e-08)
(1.20294e-09 4.22871e-08 -8.29827e-08)
(3.72684e-09 4.10779e-08 -8.33095e-08)
(6.46511e-09 3.90141e-08 -8.37315e-08)
(9.48795e-09 3.66862e-08 -8.39832e-08)
(1.28906e-08 3.4609e-08 -8.39024e-08)
(1.67826e-08 3.31386e-08 -8.33898e-08)
(2.12671e-08 3.24524e-08 -8.23417e-08)
(2.64034e-08 3.26064e-08 -8.06042e-08)
(3.21212e-08 3.35059e-08 -7.79908e-08)
(3.84689e-08 3.53871e-08 -7.40425e-08)
(1.47406e-09 5.39848e-08 -7.80566e-08)
(4.51471e-09 5.21674e-08 -7.901e-08)
(7.73296e-09 4.92403e-08 -8.01162e-08)
(1.11761e-08 4.60646e-08 -8.0804e-08)
(1.4919e-08 4.33102e-08 -8.08665e-08)
(1.9071e-08 4.1364e-08 -8.02632e-08)
(2.37345e-08 4.03531e-08 -7.89793e-08)
(2.89194e-08 4.02375e-08 -7.69722e-08)
(3.44666e-08 4.08701e-08 -7.41963e-08)
(4.01059e-08 4.22517e-08 -7.05328e-08)
(1.1287e-09 1.1611e-09 -9.06162e-08)
(3.60023e-09 1.11458e-09 -9.10846e-08)
(6.70846e-09 1.06515e-09 -9.19767e-08)
(1.10123e-08 1.0352e-09 -9.32257e-08)
(1.72083e-08 1.03999e-09 -9.47324e-08)
(2.62036e-08 1.10629e-09 -9.63375e-08)
(3.92174e-08 1.26247e-09 -9.77777e-08)
(5.79169e-08 1.54725e-09 -9.86309e-08)
(8.4555e-08 2.02273e-09 -9.82325e-08)
(1.22286e-07 2.78798e-09 -9.5554e-08)
(1.08167e-09 3.68666e-09 -9.12046e-08)
(3.49003e-09 3.58705e-09 -9.16409e-08)
(6.56357e-09 3.44025e-09 -9.24779e-08)
(1.07937e-08 3.33499e-09 -9.36594e-08)
(1.68399e-08 3.34084e-09 -9.50959e-08)
(2.55532e-08 3.52731e-09 -9.66378e-08)
(3.8033e-08 3.98706e-09 -9.80431e-08)
(5.57527e-08 4.84048e-09 -9.8938e-08)
(8.04789e-08 6.23503e-09 -9.87615e-08)
(1.14181e-07 8.40543e-09 -9.67553e-08)
(1.0394e-09 6.84208e-09 -9.23261e-08)
(3.3498e-09 6.70465e-09 -9.27061e-08)
(6.31855e-09 6.47531e-09 -9.34486e-08)
(1.04155e-08 6.25427e-09 -9.45059e-08)
(1.61889e-08 6.20998e-09 -9.58072e-08)
(2.4393e-08 6.47839e-09 -9.72258e-08)
(3.60051e-08 7.20558e-09 -9.8558e-08)
(5.21447e-08 8.56845e-09 -9.94899e-08)
(7.40286e-08 1.07809e-08 -9.95904e-08)
(1.02739e-07 1.413e-08 -9.83558e-08)
(1.01054e-09 1.12006e-08 -9.38956e-08)
(3.25864e-09 1.09801e-08 -9.42064e-08)
(6.11098e-09 1.06179e-08 -9.48231e-08)
(1.00195e-08 1.02405e-08 -9.57153e-08)
(1.54972e-08 1.00574e-08 -9.68317e-08)
(2.3138e-08 1.0314e-08 -9.8072e-08)
(3.37366e-08 1.12327e-08 -9.92713e-08)
(4.8222e-08 1.30248e-08 -1.00179e-07)
(6.7418e-08 1.59299e-08 -1.00462e-07)
(9.19758e-08 2.02409e-08 -9.97659e-08)
(1.0198e-09 1.74506e-08 -9.5799e-08)
(3.2785e-09 1.70864e-08 -9.60346e-08)
(6.09887e-09 1.64439e-08 -9.65047e-08)
(9.86447e-09 1.57766e-08 -9.72041e-08)
(1.50537e-08 1.53541e-08 -9.80971e-08)
(2.22175e-08 1.54706e-08 -9.91097e-08)
(3.19762e-08 1.64626e-08 -1.00116e-07)
(4.50517e-08 1.86087e-08 -1.0091e-07)
(6.21808e-08 2.21363e-08 -1.01219e-07)
(8.38941e-08 2.73039e-08 -1.00756e-07)
(1.09289e-09 2.64933e-08 -9.78642e-08)
(3.48712e-09 2.5853e-08 -9.80228e-08)
(6.40711e-09 2.47161e-08 -9.83446e-08)
(1.01899e-08 2.34926e-08 -9.88401e-08)
(1.52296e-08 2.26254e-08 -9.94916e-08)
(2.20604e-08 2.24988e-08 -1.00248e-07)
(3.12775e-08 2.34334e-08 -1.01006e-07)
(4.34254e-08 2.5806e-08 -1.01596e-07)
(5.91637e-08 2.99583e-08 -1.01781e-07)
(7.91367e-08 3.60204e-08 -1.01286e-07)
(1.2556e-09 3.95425e-08 -9.98204e-08)
(3.97333e-09 3.83713e-08 -9.99166e-08)
(7.19557e-09 3.63827e-08 -1.0012e-07)
(1.12139e-08 3.41874e-08 -1.00432e-07)
(1.63764e-08 3.25203e-08 -1.00851e-07)
(2.31149e-08 3.19202e-08 -1.01342e-07)
(3.20376e-08 3.27449e-08 -1.0182e-07)
(4.37738e-08 3.52664e-08 -1.02137e-07)
(5.87488e-08 3.99578e-08 -1.02084e-07)
(7.76783e-08 4.69822e-08 -1.01377e-07)
(1.53942e-09 5.82644e-08 -1.01245e-07)
(4.84101e-09 5.61037e-08 -1.01335e-07)
(8.62711e-09 5.25386e-08 -1.01496e-07)
(1.31611e-08 4.87338e-08 -1.01698e-07)
(1.87584e-08 4.57536e-08 -1.01931e-07)
(2.58074e-08 4.43243e-08 -1.02178e-07)
(3.47822e-08 4.48387e-08 -1.02376e-07)
(4.63988e-08 4.75185e-08 -1.02392e-07)
(6.09584e-08 5.24888e-08 -1.0204e-07)
(7.92511e-08 6.04014e-08 -1.01035e-07)
(1.98995e-09 8.49259e-08 -1.0148e-07)
(6.19879e-09 8.0808e-08 -1.01711e-07)
(1.08797e-08 7.43631e-08 -1.02018e-07)
(1.62631e-08 6.79048e-08 -1.02268e-07)
(2.26518e-08 6.29924e-08 -1.02423e-07)
(3.04133e-08 6.0394e-08 -1.02486e-07)
(3.99604e-08 6.03357e-08 -1.02427e-07)
(5.17205e-08 6.28487e-08 -1.02155e-07)
(6.59627e-08 6.77976e-08 -1.01514e-07)
(8.35759e-08 7.61156e-08 -1.00234e-07)
(2.66979e-09 1.22736e-07 -9.95181e-08)
(8.19897e-09 1.14456e-07 -1.00281e-07)
(1.41638e-08 1.02884e-07 -1.0115e-07)
(2.07858e-08 9.22668e-08 -1.01736e-07)
(2.83571e-08 8.46804e-08 -1.01983e-07)
(3.72452e-08 8.06586e-08 -1.01952e-07)
(4.78214e-08 7.99473e-08 -1.01684e-07)
(6.03125e-08 8.20633e-08 -1.01147e-07)
(7.46382e-08 8.6509e-08 -1.00265e-07)
(9.05734e-08 9.33838e-08 -9.89213e-08)
(3.2965e-10 3.60888e-10 -9.70968e-08)
(1.17289e-09 3.2899e-10 -9.77729e-08)
(2.58214e-09 2.82955e-10 -9.9123e-08)
(5.04344e-09 2.39289e-10 -1.0118e-07)
(9.22422e-09 2.15448e-10 -1.0401e-07)
(1.60808e-08 2.34685e-10 -1.07703e-07)
(2.70087e-08 3.24319e-10 -1.12352e-07)
(4.40581e-08 5.2029e-10 -1.18043e-07)
(7.02147e-08 8.76515e-10 -1.24824e-07)
(1.09968e-07 1.48156e-09 -1.32689e-07)
(2.96935e-10 1.26423e-09 -9.78862e-08)
(1.07764e-09 1.17509e-09 -9.85178e-08)
(2.41899e-09 1.02485e-09 -9.97901e-08)
(4.76742e-09 8.73952e-10 -1.01745e-07)
(8.74897e-09 7.85823e-10 -1.04456e-07)
(1.52442e-08 8.2822e-10 -1.08009e-07)
(2.54889e-08 1.08492e-09 -1.12486e-07)
(4.12392e-08 1.66285e-09 -1.17967e-07)
(6.47722e-08 2.70187e-09 -1.24457e-07)
(9.88152e-08 4.41699e-09 -1.31866e-07)
(2.52125e-10 2.73095e-09 -9.94541e-08)
(9.26895e-10 2.57319e-09 -1.00005e-07)
(2.12741e-09 2.29485e-09 -1.01138e-07)
(4.27291e-09 1.98223e-09 -1.02902e-07)
(7.89321e-09 1.77216e-09 -1.05382e-07)
(1.3744e-08 1.79081e-09 -1.08668e-07)
(2.28674e-08 2.17308e-09 -1.12849e-07)
(3.65472e-08 3.07905e-09 -1.17968e-07)
(5.62498e-08 4.71066e-09 -1.23997e-07)
(8.3288e-08 7.34149e-09 -1.30824e-07)
(2.08875e-10 5.25467e-09 -1.01813e-07)
(7.80546e-10 4.98055e-09 -1.0226e-07)
(1.81613e-09 4.50215e-09 -1.03199e-07)
(3.70038e-09 3.95048e-09 -1.04701e-07)
(6.90717e-09 3.51735e-09 -1.06869e-07)
(1.20288e-08 3.41898e-09 -1.09801e-07)
(1.98702e-08 3.85377e-09 -1.13588e-07)
(3.14104e-08 5.01906e-09 -1.18279e-07)
(4.7552e-08 7.14158e-09 -1.23832e-07)
(6.89176e-08 1.05052e-08 -1.30148e-07)
(1.87431e-10 9.50057e-09 -1.05015e-07)
(6.99831e-10 9.03312e-09 -1.05338e-07)
(1.62133e-09 8.19233e-09 -1.06033e-07)
(3.27678e-09 7.23617e-09 -1.07212e-07)
(6.08503e-09 6.44291e-09 -1.09001e-07)
(1.05635e-08 6.09359e-09 -1.11522e-07)
(1.73203e-08 6.47552e-09 -1.14882e-07)
(2.70735e-08 7.83488e-09 -1.19131e-07)
(4.05491e-08 1.03966e-08 -1.24256e-07)
(5.81897e-08 1.44166e-08 -1.30188e-07)
(2.10549e-10 1.6425e-08 -1.09131e-07)
(7.55454e-10 1.56018e-08 -1.093e-07)
(1.66539e-09 1.41313e-08 -1.09705e-07)
(3.22054e-09 1.24577e-08 -1.10505e-07)
(5.76605e-09 1.10536e-08 -1.11867e-07)
(9.77115e-09 1.03048e-08 -1.1395e-07)
(1.57865e-08 1.05062e-08 -1.16873e-07)
(2.43533e-08 1.19675e-08 -1.20697e-07)
(3.60967e-08 1.49779e-08 -1.2545e-07)
(5.15977e-08 1.9708e-08 -1.31084e-07)
(3.0287e-10 2.7427e-08 -1.14244e-07)
(1.02671e-09 2.59224e-08 -1.14215e-07)
(2.08809e-09 2.33442e-08 -1.14282e-07)
(3.73014e-09 2.04265e-08 -1.14642e-07)
(6.25579e-09 1.79793e-08 -1.15539e-07)
(1.00474e-08 1.65576e-08 -1.17161e-07)
(1.5637e-08 1.64868e-08 -1.19651e-07)
(2.36089e-08 1.79838e-08 -1.23089e-07)
(3.44211e-08 2.14036e-08 -1.27495e-07)
(4.87687e-08 2.69288e-08 -1.32846e-07)
(4.9333e-10 4.45704e-08 -1.20435e-07)
(1.60411e-09 4.17536e-08 -1.20151e-07)
(3.03577e-09 3.71028e-08 -1.19782e-07)
(5.01092e-09 3.20831e-08 -1.19636e-07)
(7.80134e-09 2.79392e-08 -1.20026e-07)
(1.17512e-08 2.54287e-08 -1.21191e-07)
(1.72883e-08 2.48737e-08 -1.23266e-07)
(2.50464e-08 2.63979e-08 -1.26341e-07)
(3.5405e-08 3.00535e-08 -1.30356e-07)
(4.91476e-08 3.63441e-08 -1.35393e-07)
(8.19984e-10 7.08779e-08 -1.27757e-07)
(2.58994e-09 6.53842e-08 -1.27107e-07)
(4.67443e-09 5.68527e-08 -1.26153e-07)
(7.27785e-09 4.82918e-08 -1.25408e-07)
(1.06605e-08 4.15999e-08 -1.2528e-07)
(1.51438e-08 3.75634e-08 -1.26025e-07)
(2.11041e-08 3.62705e-08 -1.27742e-07)
(2.89606e-08 3.75754e-08 -1.30441e-07)
(3.90631e-08 4.12443e-08 -1.34014e-07)
(5.22659e-08 4.79267e-08 -1.3862e-07)
(1.33704e-09 1.1093e-07 -1.36231e-07)
(4.12115e-09 9.95712e-08 -1.34987e-07)
(7.20302e-09 8.38763e-08 -1.33251e-07)
(1.07832e-08 6.96114e-08 -1.31809e-07)
(1.51176e-08 5.93337e-08 -1.31177e-07)
(2.05234e-08 5.3438e-08 -1.3159e-07)
(2.73322e-08 5.13437e-08 -1.33062e-07)
(3.58018e-08 5.22898e-08 -1.35475e-07)
(4.59957e-08 5.56055e-08 -1.38628e-07)
(5.78978e-08 6.12005e-08 -1.42386e-07)
(-1.11763e-09 -1.08996e-09 -9.82884e-08)
(-3.34827e-09 -1.09129e-09 -9.90204e-08)
(-5.53231e-09 -1.12537e-09 -1.00531e-07)
(-7.65316e-09 -1.19423e-09 -1.02954e-07)
(-9.58809e-09 -1.28757e-09 -1.06523e-07)
(-1.10394e-08 -1.40262e-09 -1.11579e-07)
(-1.14375e-08 -1.53118e-09 -1.18583e-07)
(-9.79412e-09 -1.66393e-09 -1.28162e-07)
(-4.45981e-09 -1.79182e-09 -1.41152e-07)
(7.33264e-09 -1.88986e-09 -1.58742e-07)
(-1.11886e-09 -3.25467e-09 -9.91324e-08)
(-3.39416e-09 -3.30696e-09 -9.9809e-08)
(-5.67616e-09 -3.43463e-09 -1.01219e-07)
(-7.91836e-09 -3.65611e-09 -1.03505e-07)
(-1.00177e-08 -3.95729e-09 -1.069e-07)
(-1.17253e-08 -4.31686e-09 -1.11721e-07)
(-1.25704e-08 -4.72033e-09 -1.18381e-07)
(-1.17805e-08 -5.15273e-09 -1.27422e-07)
(-8.18196e-09 -5.56967e-09 -1.3945e-07)
(-2.19746e-10 -5.90497e-09 -1.55092e-07)
(-1.16042e-09 -5.37239e-09 -1.00859e-07)
(-3.52944e-09 -5.5181e-09 -1.01432e-07)
(-5.96112e-09 -5.80555e-09 -1.02657e-07)
(-8.42521e-09 -6.22009e-09 -1.0468e-07)
(-1.08247e-08 -6.76102e-09 -1.07734e-07)
(-1.29874e-08 -7.40201e-09 -1.12117e-07)
(-1.45971e-08 -8.12001e-09 -1.18198e-07)
(-1.51632e-08 -8.89301e-09 -1.26359e-07)
(-1.40699e-08 -9.67269e-09 -1.36959e-07)
(-1.08114e-08 -1.03753e-08 -1.50214e-07)
(-1.22797e-09 -7.43654e-09 -1.03585e-07)
(-3.75825e-09 -7.69421e-09 -1.04017e-07)