/*--------------------------------*- C++ -*----------------------------------*\
| =========                 |                                                 |
| \\      /  F ield         | foam-extend: Open Source CFD                    |
|  \\    /   O peration     | Version:     3.1                                |
|   \\  /    A nd           | Web:         http://www.extend-project.de       |
|    \\/     M anipulation  |                                                 |
\*---------------------------------------------------------------------------*/
FoamFile
{
    version     2.0;
    format      ascii;
    class       surfaceScalarField;
    location    "0.0001";
    object      meshPhi;
}
// * * * * * * * * * * * * * * * * * * * * * * * * * * * * * * * * * * * * * //

dimensions      [0 3 -1 0 0 0 0];

internalField   nonuniform List<scalar> 
45800
(
8.57054e-11
8.59184e-11
-1.27664e-11
1.68411e-10
8.60276e-11
-1.17687e-11
2.49149e-10
8.56502e-11
-9.94737e-12
3.3064e-10
8.57758e-11
-7.13261e-12
4.1595e-10
8.67997e-11
-3.00572e-12
5.08291e-10
8.89515e-11
2.93666e-12
6.11261e-10
9.25784e-11
1.14414e-11
7.28883e-10
9.81748e-11
2.35764e-11
8.65552e-10
1.06404e-10
4.08182e-11
1.17019e-10
6.52644e-11
1.02718e-09
8.58158e-11
1.68494e-10
-1.17716e-11
1.69575e-10
1.69779e-10
-1.07901e-11
2.52117e-10
1.7025e-10
-8.98798e-12
3.35499e-10
1.71211e-10
-6.19833e-12
4.22552e-10
1.73674e-10
-2.11212e-12
5.16509e-10
1.78313e-10
3.75739e-12
6.20962e-10
1.85837e-10
1.21271e-11
7.39797e-10
1.97175e-10
2.40038e-11
8.77098e-10
2.13438e-10
4.07427e-11
2.33586e-10
6.40747e-11
1.03659e-09
8.55647e-11
2.49028e-10
-9.95297e-12
1.70041e-10
2.52105e-10
-8.99233e-12
2.54351e-10
2.545e-10
-7.20238e-12
3.39963e-10
2.57261e-10
-4.41944e-12
4.29123e-10
2.61706e-10
-3.46118e-13
5.24893e-10
2.69152e-10
5.48638e-12
6.30791e-10
2.80794e-10
1.37605e-11
7.50416e-10
2.97909e-10
2.54083e-11
8.87541e-10
3.21993e-10
4.16527e-11
3.50962e-10
6.39263e-11
1.04482e-09
8.58109e-11
3.30454e-10
-7.13903e-12
1.71161e-10
3.35332e-10
-6.20539e-12
2.57099e-10
3.39912e-10
-4.42486e-12
3.44967e-10
3.4508e-10
-1.63489e-12
4.36557e-10
3.52024e-10
2.45251e-12
5.34448e-10
3.62388e-10
8.28787e-12
6.41934e-10
3.78053e-10
1.65244e-11
7.62449e-10
4.00809e-10
2.80375e-11
8.99629e-10
4.32446e-10
4.39538e-11
4.69647e-10
6.54348e-11
1.05529e-09
8.68606e-11
4.15759e-10
-3.01193e-12
1.73758e-10
4.22355e-10
-2.11964e-12
2.61698e-10
4.28938e-10
-3.55041e-13
3.51889e-10
4.36483e-10
2.4453e-12
4.46056e-10
4.46172e-10
6.56667e-12
5.46478e-10
4.59596e-10
1.24479e-11
6.55961e-10
4.78968e-10
2.07179e-11
7.77749e-10
5.06855e-10
3.22195e-11
9.15512e-10
5.45615e-10
4.80278e-11
5.90541e-10
6.90275e-11
1.07018e-09
8.9009e-11
5.081e-10
2.93045e-12
1.78427e-10
5.16309e-10
3.74972e-12
2.69276e-10
5.24674e-10
5.47615e-12
3.62422e-10
5.34247e-10
8.27647e-12
4.59442e-10
5.46425e-10
1.24391e-11
5.62676e-10
5.62889e-10
1.84006e-11
6.74708e-10
5.85755e-10
2.67731e-11
7.98314e-10
6.18023e-10
3.83781e-11
9.36997e-10
6.62895e-10
5.4263e-11
7.14732e-10
7.50331e-11
1.09094e-09
9.2632e-11
6.11074e-10
1.14346e-11
1.85945e-10
6.20763e-10
1.21188e-11
2.80958e-10
6.30568e-10
1.37497e-11
3.78259e-10
6.41683e-10
1.65117e-11
4.79034e-10
6.55705e-10
2.07028e-11
5.85453e-10
6.74587e-10
2.67553e-11
7.00368e-10
7.00542e-10
3.52719e-11
8.26071e-10
7.36327e-10
4.70355e-11
9.65466e-10
7.85486e-10
6.30502e-11
8.42691e-10
8.36902e-11
1.11831e-09
9.82228e-11
7.28705e-10
2.35684e-11
1.97273e-10
7.39605e-10
2.39943e-11
2.98062e-10
7.50192e-10
2.53962e-11
4.01032e-10
7.62173e-10
2.80222e-11
5.07092e-10
7.77384e-10
3.21981e-11
6.1787e-10
7.97818e-10
3.8338e-11
7.35984e-10
8.25663e-10
4.69938e-11
8.63202e-10
8.63155e-10
5.88367e-11
1.00211e-09
9.13836e-10
7.47977e-11
9.7363e-10
9.51042e-11
1.15209e-09
1.06445e-10
8.65393e-10
4.08088e-11
2.13518e-10
8.76925e-10
4.07319e-11
3.22112e-10
8.87336e-10
4.16393e-11
4.32601e-10
8.99373e-10
4.39365e-11
5.45789e-10
9.15177e-10
4.80026e-11
6.62851e-10
9.36525e-10
5.42156e-11
7.85295e-10
9.64977e-10
6.29931e-11
9.13716e-10
1.00185e-09
7.47662e-11
1.04962e-09
1.04959e-09
9.01959e-11
1.10461e-09
1.09177e-10
1.19038e-09
1.17051e-10
6.52545e-11
1.02705e-09
2.33648e-10
6.40638e-11
1.03645e-09
3.51049e-10
6.39137e-11
1.04466e-09
4.69748e-10
6.54195e-11
1.05509e-09
5.9063e-10
6.9007e-11
1.06995e-09
7.14745e-10
7.50014e-11
1.09067e-09
8.42704e-10
8.36546e-11
1.11802e-09
9.73575e-10
9.50719e-11
1.15181e-09
1.10446e-09
1.09145e-10
1.19009e-09
1.25118e-10
1.23012e-09
1.22999e-09
2.3991e-10
2.40514e-10
-3.14093e-11
4.70671e-10
2.40599e-10
-3.00104e-11
6.94426e-10
2.39099e-10
-2.77138e-11
9.17952e-10
2.3876e-10
-2.43546e-11
1.14874e-09
2.40625e-10
-1.96331e-11
1.39426e-09
2.4523e-10
-1.31043e-11
1.66241e-09
2.53376e-10
-4.16259e-12
1.96132e-09
2.66181e-10
7.96148e-12
2.29888e-09
2.85092e-10
2.41695e-11
3.08986e-10
4.55064e-11
2.685e-09
2.4e-10
4.70916e-10
-3.00136e-11
4.73493e-10
4.74075e-10
-2.86333e-11
7.02076e-10
4.7452e-10
-2.63598e-11
9.30651e-10
4.75839e-10
-2.30325e-11
1.16604e-09
4.8074e-10
-1.83631e-11
1.41577e-09
4.9089e-10
-1.19245e-11
1.68772e-09
5.07929e-10
-3.13952e-12
1.98971e-09
5.33951e-10
8.71052e-12
2.32896e-09
5.7131e-10
2.44381e-11
6.16467e-10
4.48313e-11
2.71039e-09
2.38857e-10
6.94104e-10
-2.772e-11
4.73929e-10
7.02058e-10
-2.63647e-11
7.07032e-10
7.07459e-10
-2.41097e-11
9.41408e-10
7.13142e-10
-2.08002e-11
1.18224e-09
7.226e-10
-1.61634e-11
1.43657e-09
7.39182e-10
-9.79364e-12
1.71209e-09
7.65716e-10
-1.14859e-12
2.01597e-09
8.05041e-10
1.04244e-11
2.35477e-09
8.60288e-10
2.56384e-11
9.24953e-10
4.50811e-11
2.73126e-09
2.38856e-10
9.17449e-10
-2.4362e-11
4.75697e-10
9.30201e-10
-2.30405e-11
7.12686e-10
9.41284e-10
-2.08064e-11
9.52695e-10
9.5302e-10
-1.75093e-11
1.19962e-09
9.68472e-10
-1.28914e-11
1.45917e-09
9.91789e-10
-6.57137e-12
1.73843e-09
1.02754e-09
1.95899e-12
2.04416e-09
1.07974e-09
1.32973e-11
2.38272e-09
1.15206e-09
2.80783e-11
1.23467e-09
4.66958e-11
2.75526e-09
2.40794e-10
1.14822e-09
-1.96408e-11
4.80974e-10
1.16551e-09
-1.83722e-11
7.22577e-10
1.18174e-09
-1.61739e-11
9.68095e-10
1.19944e-09
-1.28995e-11
1.22121e-09
1.22154e-09
-8.30132e-12
1.48676e-09
1.25195e-09
-2.01892e-12
1.77051e-09
1.29598e-09
6.422e-12
2.07867e-09
1.35958e-09
1.75783e-11
2.41774e-09
1.44764e-09
3.20324e-11
1.5467e-09
4.99643e-11
2.78721e-09
2.4539e-10
1.39374e-09
-1.31126e-11
4.91206e-10
1.41523e-09
-1.19344e-11
7.39525e-10
1.43598e-09
-9.80618e-12
9.91882e-10
1.45864e-09
-6.5846e-12
1.25152e-09
1.48664e-09
-2.02843e-12
1.52341e-09
1.52401e-09
4.2077e-12
1.81265e-09
1.57565e-09
1.25669e-11
2.12415e-09
1.64845e-09
2.35685e-11
2.46391e-09
1.74933e-09
3.77508e-11
1.86247e-09
5.50692e-11
2.83023e-09
2.53526e-10
1.66191e-09
-4.1724e-12
5.0823e-10
1.68718e-09
-3.15101e-12
7.66171e-10
1.7115e-09
-1.16258e-12
1.0281e-09
1.73776e-09
1.9437e-12
1.29617e-09
1.76985e-09
6.40579e-12
1.57484e-09
1.81238e-09
1.25502e-11
1.86987e-09
1.87039e-09
2.07918e-11
2.1849e-09
1.94998e-09
3.15949e-11
2.52424e-09
2.05875e-09
4.54318e-11
2.18181e-09
6.20716e-11
2.8857e-09
2.66314e-10
1.96084e-09
7.94934e-12
5.34223e-10
1.9892e-09
8.69678e-12
8.05463e-10
2.01537e-09
1.04082e-11
1.08035e-09
2.04344e-09
1.32787e-11
1.36023e-09
2.07773e-09
1.75555e-11
1.64809e-09
2.12291e-09
2.35313e-11
1.94908e-09
2.18392e-09
3.15578e-11
2.26561e-09
2.26555e-09
4.19857e-11
2.60113e-09
2.37525e-09
5.52023e-11
2.50142e-09
7.08718e-11
2.95293e-09
2.85204e-10
2.29845e-09
2.41549e-11
5.71533e-10
2.3285e-09
2.44221e-11
8.60618e-10
2.35424e-09
2.562e-11
1.15249e-09
2.38206e-09
2.80571e-11
1.44813e-09
2.41688e-09
3.20055e-11
1.74927e-09
2.46272e-09
3.77062e-11
2.05828e-09
2.52302e-09
4.53802e-11
2.37493e-09
2.60049e-09
5.51754e-11
2.70035e-09
2.70031e-09
6.72812e-11
2.81302e-09
8.11788e-11
3.02766e-09
3.09074e-10
4.54908e-11
2.68466e-09
6.16636e-10
4.48147e-11
2.71002e-09
9.25191e-10
4.50632e-11
2.73083e-09
1.23495e-09
4.66763e-11
2.75475e-09
1.54695e-09
4.99415e-11
2.78662e-09
1.86254e-09
5.5038e-11
2.82954e-09
2.18186e-09
6.20388e-11
2.885e-09
2.50131e-09
7.08459e-11
2.95226e-09
2.81267e-09
8.11565e-11
3.02702e-09
9.21829e-11
3.10366e-09
3.10339e-09
3.49515e-10
3.50418e-10
-5.65347e-11
6.83722e-10
3.49958e-10
-5.53586e-11
1.00384e-09
3.46611e-10
-5.39731e-11
1.31766e-09
3.44321e-10
-5.23302e-11
1.63355e-09
3.44481e-10
-5.03671e-11
1.95904e-09
3.47644e-10
-4.80292e-11
2.30103e-09
3.5462e-10
-4.53085e-11
2.6652e-09
3.66504e-10
-4.2305e-11
3.05492e-09
3.84626e-10
-3.93223e-11
4.06651e-10
-3.69965e-11
3.47326e-09
3.49069e-10
6.84123e-10
-5.53592e-11
6.86692e-10
6.87576e-10
-5.41826e-11
1.01327e-09
6.8594e-10
-5.27945e-11
1.33384e-09
6.84323e-10
-5.11508e-11
1.65577e-09
6.86395e-10
-4.91944e-11
1.98665e-09
6.9412e-10
-4.68769e-11
2.33339e-09
7.09183e-10
-4.41954e-11
2.70137e-09
7.33617e-10
-4.1251e-11
3.09339e-09
7.69432e-10
-3.8337e-11
8.10558e-10
-3.60513e-11
3.50755e-09
3.46246e-10
1.00342e-09
-5.39744e-11
6.85055e-10
1.01329e-09
-5.27956e-11
1.01713e-09
1.01779e-09
-5.1399e-11
1.34507e-09
1.02083e-09
-4.9747e-11
1.67385e-09
1.02709e-09
-4.77916e-11
2.01035e-09
1.04073e-09
-4.54942e-11
2.36133e-09
1.0648e-09
-4.28607e-11
2.73145e-09
1.10198e-09
-3.99975e-11
3.1231e-09
1.15488e-09
-3.71884e-11
1.2132e-09
-3.49901e-11
3.53279e-09
3.44452e-10
1.31698e-09
-5.23324e-11
6.841e-10
1.33325e-09
-5.11532e-11
1.02015e-09
1.34494e-09
-4.9749e-11
1.35463e-09
1.35514e-09
-4.80898e-11
1.69066e-09
1.36773e-09
-4.61388e-11
2.03318e-09
1.3878e-09
-4.38708e-11
2.38815e-09
1.42057e-09
-4.1304e-11
2.75985e-09
1.46996e-09
-3.85543e-11
3.15065e-09
1.53884e-09
-3.5903e-11
1.61252e-09
-3.38798e-11
3.55625e-09
3.44718e-10
1.63285e-09
-5.03704e-11
6.86719e-10
1.65506e-09
-4.91983e-11
1.02704e-09
1.6732e-09
-4.7796e-11
1.36717e-09
1.69046e-09
-4.6142e-11
1.70986e-09
1.71037e-09
-4.42123e-11
2.05881e-09
1.73743e-09
-4.19966e-11
2.41808e-09
1.77766e-09
-3.95299e-11
2.79128e-09
1.83721e-09
-3.6942e-11
3.18105e-09
1.92016e-09
-3.4521e-11
2.00726e-09
-3.27819e-11
3.58243e-09
3.47869e-10
1.95834e-09
-4.80344e-11
6.94565e-10
1.98593e-09
-4.68829e-11
1.0412e-09
2.00958e-09
-4.5501e-11
1.38792e-09
2.03251e-09
-4.38771e-11
1.73682e-09
2.05871e-09
-4.20003e-11
2.09172e-09
2.0926e-09
-3.98773e-11
2.45573e-09
2.13933e-09
-3.75628e-11
2.83062e-09
2.20604e-09
-3.5205e-11
3.21839e-09
2.29903e-09
-3.31074e-11
2.39642e-09
-3.17762e-11
3.61408e-09
3.54831e-10
2.30035e-09
-4.53164e-11
7.09606e-10
2.33268e-09
-4.4204e-11
1.06543e-09
2.36055e-09
-4.287e-11
1.42135e-09
2.38729e-09
-4.13127e-11
1.77791e-09
2.41727e-09
-3.95364e-11
2.13824e-09
2.45551e-09
-3.75662e-11
2.50624e-09
2.50705e-09
-3.54776e-11
2.88207e-09
2.57779e-09
-3.34397e-11
3.26548e-09
2.67463e-09
-3.17767e-11
2.77722e-09
-3.09828e-11
3.65226e-09
3.66693e-10
2.66457e-09
-4.23162e-11
7.33999e-10
2.70069e-09
-4.12628e-11
1.10257e-09
2.73068e-09
-4.00097e-11
1.47082e-09
2.75893e-09
-3.85656e-11
1.83813e-09
2.79011e-09
-3.69512e-11
2.20566e-09
2.82916e-09
-3.5212e-11
2.5766e-09
2.88103e-09
-3.34438e-11
2.95001e-09
2.95008e-09
-3.18338e-11
3.32444e-09
3.04284e-09
-3.07199e-11
3.14343e-09
-3.05672e-11
3.69606e-09
3.84782e-10
3.05436e-09
-3.9337e-11
7.69744e-10
3.09279e-09
-3.83521e-11
1.15534e-09
3.12241e-09
-3.72034e-11
1.53945e-09
3.14981e-09
-3.59168e-11
1.92087e-09
3.17999e-09
-3.45323e-11
2.29909e-09
3.21697e-09
-3.31166e-11
2.67408e-09
3.26407e-09
-3.17834e-11
3.04242e-09
3.32375e-09
-3.07218e-11
3.40082e-09
3.40085e-09
-3.02409e-11
3.48388e-09
-3.0714e-11
3.74194e-09
4.06771e-10
-3.70127e-11
3.47281e-09
8.1079e-10
-3.60676e-11
3.50707e-09
1.21353e-09
-3.50059e-11
3.53224e-09
1.61292e-09
-3.38938e-11
3.55562e-09
2.00763e-09
-3.27933e-11
3.58169e-09
2.39659e-09
-3.17849e-11
3.61325e-09
2.77734e-09
-3.09884e-11
3.65143e-09
3.14336e-09
-3.05676e-11
3.69532e-09
3.4835e-09
-3.0711e-11
3.74132e-09
-3.15664e-11
3.78557e-09
3.78535e-09
4.03644e-10
4.0473e-10
-8.31377e-11
7.86696e-10
4.03333e-10
-8.23808e-11
1.14784e-09
3.97755e-10
-8.2298e-11
1.49332e-09
3.92513e-10
-8.29147e-11
1.82967e-09
3.89082e-10
-8.43284e-11
2.16183e-09
3.87875e-10
-8.67289e-11
2.49308e-09
3.89476e-10
-9.04247e-11
2.82441e-09
3.94653e-10
-9.58704e-11
3.15341e-09
4.04266e-10
-1.03681e-10
4.15265e-10
-1.14677e-10
3.47603e-09
4.02272e-10
7.87237e-10
-8.23779e-11
7.88446e-10
7.89533e-10
-8.15867e-11
1.15624e-09
7.84307e-10
-8.14512e-11
1.5087e-09
7.77358e-10
-8.20008e-11
1.85118e-09
7.72645e-10
-8.33323e-11
2.18867e-09
7.71961e-10
-8.56304e-11
2.52451e-09
7.76559e-10
-8.9191e-11
2.85951e-09
7.87854e-10
-9.44397e-11
3.19104e-09
8.06982e-10
-1.01932e-10
8.2672e-10
-1.12319e-10
3.51159e-09
3.97309e-10
1.14746e-09
-8.22927e-11
7.8324e-10
1.15637e-09
-8.14474e-11
1.15586e-09
1.1567e-09
-8.12362e-11
1.51539e-09
1.15279e-09
-8.1695e-11
1.86444e-09
1.14961e-09
-8.29213e-11
2.20721e-09
1.15122e-09
-8.50962e-11
2.54697e-09
1.16011e-09
-8.85023e-11
2.88403e-09
1.17806e-09
-9.35291e-11
3.21576e-09
1.20647e-09
-1.00669e-10
1.23374e-09
-1.10436e-10
3.53431e-09
3.92644e-10
1.49265e-09
-8.29095e-11
7.77067e-10
1.50813e-09
-8.19957e-11
1.15196e-09
1.51536e-09
-8.16917e-11
1.51686e-09
1.51753e-09
-8.20428e-11
1.8723e-09
1.51858e-09
-8.31503e-11
2.22029e-09
1.52342e-09
-8.51929e-11
2.56329e-09
1.53663e-09
-8.84431e-11
2.90145e-09
1.56103e-09
-9.32644e-11
3.23239e-09
1.59797e-09
-1.00103e-10
1.63157e-09
-1.09348e-10
3.54877e-09
3.89338e-10
1.82898e-09
-8.43254e-11
7.72984e-10
1.85048e-09
-8.33291e-11
1.14951e-09
1.86383e-09
-8.29178e-11
1.51789e-09
1.8722e-09
-8.31477e-11
1.87821e-09
1.87888e-09
-8.41284e-11
2.23111e-09
1.8879e-09
-8.60402e-11
2.57706e-09
1.90451e-09
-8.91485e-11
2.91549e-09
1.93362e-09
-9.38021e-11
3.24454e-09
1.97748e-09
-1.00421e-10
2.0161e-09
-1.09264e-10
3.55775e-09
3.88119e-10
2.16113e-09
-8.6729e-11
7.7244e-10
2.18796e-09
-8.56304e-11
1.15172e-09
2.20646e-09
-8.50953e-11
1.5235e-09
2.21966e-09
-8.51908e-11
1.88718e-09
2.23114e-09
-8.60379e-11
2.2435e-09
2.24455e-09
-8.78236e-11
2.59193e-09
2.26398e-09
-9.08086e-11
2.92999e-09
2.29512e-09
-9.53314e-11
3.25526e-09
2.34231e-09
-1.01793e-10
2.38357e-09
-1.10317e-10
3.56302e-09
3.89705e-10
2.49241e-09
-9.04285e-11
7.77016e-10
2.52381e-09
-8.91946e-11
1.16079e-09
2.54621e-09
-8.8505e-11
1.53745e-09
2.56248e-09
-8.84438e-11
1.90476e-09
2.57633e-09
-8.91457e-11
2.2628e-09
2.59189e-09
-9.08017e-11
2.61187e-09
2.6129e-09
-9.36704e-11
2.94807e-09
2.64364e-09
-9.8069e-11
3.26674e-09
2.68897e-09
-1.04368e-10
2.72904e-09
-1.12575e-10
3.56534e-09
3.94858e-10
2.82378e-09
-9.58783e-11
7.88267e-10
2.85885e-09
-9.44471e-11
1.1787e-09
2.88329e-09
-9.35351e-11
1.56195e-09
2.90058e-09
-9.32672e-11
1.93462e-09
2.91442e-09
-9.37987e-11
2.29483e-09
2.92874e-09
-9.53149e-11
2.6424e-09
2.94733e-09
-9.8049e-11
2.97297e-09
2.97323e-09
-1.0226e-10
3.28074e-09
3.01089e-09
-1.08272e-10
3.04521e-09
-1.16021e-10
3.56452e-09
4.04434e-10
3.15287e-09
-1.03692e-10
8.07317e-10
3.19046e-09
-1.01943e-10
1.20696e-09
3.2151e-09
-1.00678e-10
1.59863e-09
3.23161e-09
-1.00107e-10
1.97828e-09
3.24358e-09
-1.00418e-10
2.34253e-09
3.25402e-09
-1.01774e-10
2.6885e-09
3.26554e-09
-1.0434e-10
3.01043e-09
3.28022e-09
-1.08257e-10
3.30189e-09
3.30202e-09
-1.13723e-10
3.32167e-09
-1.20535e-10
3.55969e-09
4.15392e-10
-1.14691e-10
3.4756e-09
8.26966e-10
-1.12332e-10
3.51114e-09
1.23409e-09
-1.10447e-10
3.5338e-09
1.632e-09
-1.09355e-10
3.54818e-09
2.01652e-09
-1.09264e-10
3.55707e-09
2.38382e-09
-1.10307e-10
3.56227e-09
2.72921e-09
-1.12559e-10
3.56461e-09
3.04519e-09
-1.16006e-10
3.56392e-09
3.32136e-09
-1.2052e-10
3.55928e-09
-1.25678e-10
3.55065e-09
3.55057e-09
4.07775e-10
4.0893e-10
-1.04507e-10
7.91569e-10
4.06566e-10
-1.03965e-10
1.1472e-09
3.99065e-10
-1.04651e-10
1.47833e-09
3.90993e-10
-1.06571e-10
1.78885e-09
3.8377e-10
-1.09811e-10
2.08092e-09
3.77676e-10
-1.14539e-10
2.35487e-09
3.73096e-10
-1.20993e-10
2.60882e-09
3.70529e-10
-1.29459e-10
2.83816e-09
3.70512e-10
-1.40211e-10
3.70072e-10
-1.53495e-10
3.03719e-09
4.05447e-10
7.92221e-10
-1.03959e-10
7.91506e-10
7.92696e-10
-1.03352e-10
1.15302e-09
7.83816e-10
-1.03937e-10
1.49039e-09
7.71418e-10
-1.05726e-10
1.80633e-09
7.59338e-10
-1.08803e-10
2.10303e-09
7.49097e-10
-1.13328e-10
2.38093e-09
7.41552e-10
-1.19524e-10
2.63808e-09
7.37633e-10
-1.27649e-10
2.86994e-09
7.3795e-10
-1.37928e-10
7.35783e-10
-1.50458e-10
3.06896e-09
3.98579e-10
1.14695e-09
-1.04641e-10
7.82672e-10
1.15329e-09
-1.03931e-10
1.1475e-09
1.14845e-09
-1.04367e-10
1.49062e-09
1.13677e-09
-1.05971e-10
1.81203e-09
1.12299e-09
-1.08824e-10
2.11315e-09
1.11077e-09
-1.13078e-10
2.39442e-09
1.10199e-09
-1.18943e-10
2.65367e-09
1.09776e-09
-1.26637e-10
2.88661e-09
1.09882e-09
-1.36332e-10
1.09474e-09
-1.48024e-10
3.08623e-09
3.91096e-10
1.4778e-09
-1.0656e-10
7.71071e-10
1.48997e-09
-1.05716e-10
1.13586e-09
1.49074e-09
-1.05964e-10
1.48237e-09
1.48315e-09
-1.07336e-10
1.80852e-09
1.47081e-09
-1.09915e-10
2.11366e-09
1.4581e-09
-1.13846e-10
2.39751e-09
1.44876e-09
-1.19324e-10
2.65791e-09
1.44474e-09
-1.2654e-10
2.89098e-09
1.44663e-09
-1.35631e-10
1.4406e-09
-1.46493e-10
3.0911e-09
3.84002e-10
1.78831e-09
-1.09803e-10
7.59629e-10
1.80578e-09
-1.08795e-10
1.12284e-09
1.8116e-09
-1.08815e-10
1.47006e-09
1.80858e-09
-1.09909e-10
1.79882e-09
1.79959e-09
-1.12166e-10
2.10714e-09
1.78795e-09
-1.15729e-10
2.39291e-09
1.77797e-09
-1.20779e-10
2.65339e-09
1.77341e-09
-1.27491e-10
2.88526e-09
1.77558e-09
-1.35981e-10
1.76755e-09
-1.46037e-10
3.08482e-09
3.779e-10
2.08038e-09
-1.14535e-10
7.49533e-10
2.10249e-09
-1.13323e-10
1.11122e-09
2.11258e-09
-1.13072e-10
1.45812e-09
2.11322e-09
-1.13839e-10
1.78718e-09
2.10732e-09
-1.15724e-10
2.09658e-09
2.09769e-09
-1.18872e-10
2.38331e-09
2.0874e-09
-1.23451e-10
2.64288e-09
2.08084e-09
-1.29623e-10
2.87161e-09
2.08119e-09
-1.37489e-10
2.07047e-09
-1.4672e-10
3.06851e-09
3.73306e-10
2.35436e-09
-1.20993e-10
7.4197e-10
2.38039e-09
-1.19523e-10
1.10261e-09
2.39384e-09
-1.18941e-10
1.44949e-09
2.3969e-09
-1.1932e-10
1.77816e-09
2.39241e-09
-1.20772e-10
2.08625e-09
2.38349e-09
-1.23441e-10
2.37162e-09
2.37274e-09
-1.27487e-10
2.6287e-09
2.36331e-09
-1.33047e-10
2.8519e-09
2.35889e-09
-1.4019e-10
2.34398e-09
-1.48499e-10
3.04305e-09
3.70718e-10
2.60835e-09
-1.29463e-10
7.38012e-10
2.63758e-09
-1.27652e-10
1.09834e-09
2.65311e-09
-1.26638e-10
1.44558e-09
2.65725e-09
-1.26538e-10
1.77432e-09
2.65258e-09
-1.27482e-10
2.08064e-09
2.64202e-09
-1.29601e-10
2.36216e-09
2.62835e-09
-1.33022e-10
2.61349e-09
2.61392e-09
-1.37823e-10
2.82809e-09
2.6021e-09
-1.44036e-10
2.58175e-09
-1.51218e-10
3.00941e-09
3.70666e-10
2.83776e-09
-1.40219e-10
7.38255e-10
2.86951e-09
-1.37935e-10
1.09927e-09
2.88612e-09
-1.36337e-10
1.44724e-09
2.8904e-09
-1.35631e-10
1.77633e-09
2.88456e-09
-1.35972e-10
2.08149e-09
2.87072e-09
-1.37462e-10
2.35853e-09
2.85108e-09
-1.40155e-10
2.60164e-09
2.82782e-09
-1.44018e-10
2.80445e-09
2.80466e-09
-1.48999e-10
2.77628e-09
-1.54606e-10
2.96927e-09
3.70185e-10
-1.53505e-10
3.03688e-09
7.36002e-10
-1.50467e-10
3.06863e-09
1.09505e-09
-1.4803e-10
3.08586e-09
1.44098e-09
-1.46495e-10
3.09066e-09
1.76795e-09
-1.46032e-10
3.08433e-09
2.07076e-09
-1.46704e-10
3.06797e-09
2.34416e-09
-1.48478e-10
3.04255e-09
2.58175e-09
-1.51201e-10
3.00903e-09
2.77603e-09
-1.54593e-10
2.96908e-09
-1.58114e-10
2.92564e-09
2.92568e-09
3.76791e-10
3.77925e-10
-1.16163e-10
7.28575e-10
3.74878e-10
-1.1552e-10
1.04904e-09
3.66277e-10
-1.16174e-10
1.33951e-09
3.56386e-10
-1.18064e-10
1.60176e-09
3.4651e-10
-1.2118e-10
1.83624e-09
3.36879e-10
-1.25543e-10
2.04207e-09
3.27786e-10
-1.31179e-10
2.21699e-09
3.19619e-10
-1.38082e-10
2.35732e-09
3.12803e-10
-1.46144e-10
3.04904e-10
-1.55146e-10
2.45945e-09
3.73788e-10
7.293e-10
-1.15514e-10
7.2688e-10
7.28088e-10
-1.14794e-10
1.05208e-09
7.16694e-10
-1.15325e-10
1.34767e-09
7.00569e-10
-1.17056e-10
1.61436e-09
6.83234e-10
-1.19976e-10
1.85263e-09
6.66006e-10
-1.24103e-10
2.06169e-09
6.49556e-10
-1.29458e-10
2.23933e-09
6.34626e-10
-1.3602e-10
2.38204e-09
6.21718e-10
-1.43662e-10
6.05464e-10
-1.52085e-10
2.48544e-09
3.65785e-10
1.04898e-09
-1.16163e-10
7.15555e-10
1.05248e-09
-1.15317e-10
1.04251e-09
1.04351e-09
-1.15662e-10
1.34234e-09
1.02611e-09
-1.17157e-10
1.61328e-09
1.00462e-09
-1.19794e-10
1.85512e-09
9.82238e-10
-1.23588e-10
2.06713e-09
9.60514e-10
-1.28553e-10
2.24701e-09
9.40331e-10
-1.34651e-10
2.3916e-09
9.22344e-10
-1.41734e-10
8.98413e-10
-1.49467e-10
2.49737e-09
3.56445e-10
1.3392e-09
-1.18052e-10
7.00184e-10
1.34747e-09
-1.17045e-10
1.02518e-09
1.34262e-09
-1.1715e-10
1.32659e-09
1.32744e-09
-1.18344e-10
1.60078e-09
1.30517e-09
-1.20623e-10
1.84569e-09
1.27965e-09
-1.24001e-10
2.06001e-09
1.25401e-09
-1.28487e-10
2.24151e-09
1.22984e-09
-1.34033e-10
2.38741e-09
1.20773e-09
-1.40484e-10
1.17711e-09
-1.47469e-10
2.4958e-09
3.46694e-10
1.60145e-09
-1.21171e-10
6.83442e-10
1.61405e-09
-1.19967e-10
1.00441e-09
1.61308e-09
-1.19785e-10
1.30439e-09
1.60102e-09
-1.20617e-10
1.57948e-09
1.58031e-09
-1.2247e-10
1.82644e-09
1.55379e-09
-1.25359e-10
2.0424e-09
1.52506e-09
-1.29291e-10
2.2246e-09
1.49727e-09
-1.34215e-10
2.37079e-09
1.47161e-09
-1.3998e-10
1.43549e-09
-1.46169e-10
2.48116e-09
3.37059e-10
1.83594e-09
-1.25537e-10
6.66354e-10
1.85232e-09
-1.24097e-10
9.82572e-10
1.8548e-09
-1.23581e-10
1.27958e-09
1.84549e-09
-1.23994e-10
1.55301e-09
1.82678e-09
-1.25355e-10
1.79981e-09
1.80092e-09
-1.27687e-10
2.01636e-09
1.77039e-09
-1.30994e-10
2.19839e-09
1.73888e-09
-1.35226e-10
2.34334e-09
1.70919e-09
-1.40235e-10
1.6684e-09
-1.45559e-10
2.45425e-09
3.27957e-10
2.0418e-09
-1.31178e-10
6.49893e-10
2.0614e-09
-1.29456e-10
9.61008e-10
2.06681e-09
-1.28549e-10
1.25457e-09
2.05967e-09
-1.28482e-10
1.52515e-09
2.04216e-09
-1.29285e-10
1.76934e-09
2.01672e-09
-1.30987e-10
1.98424e-09
1.98536e-09
-1.33592e-10
2.16482e-09
1.95074e-09
-1.37045e-10
2.30692e-09
1.9162e-09
-1.41193e-10
1.87118e-09
-1.45548e-10
2.41622e-09
3.19772e-10
2.21674e-09
-1.38083e-10
6.34933e-10
2.23906e-09
-1.36021e-10
9.40801e-10
2.24669e-09
-1.3465e-10
1.23052e-09
2.24112e-09
-1.3403e-10
1.49801e-09
2.22411e-09
-1.34208e-10
1.73872e-09
2.19792e-09
-1.35209e-10
1.94972e-09
2.16481e-09
-1.37027e-10
2.12641e-09
2.12695e-09
-1.39581e-10
2.2638e-09
2.08743e-09
-1.42713e-10
2.03928e-09
-1.45961e-10
2.36884e-09
3.12927e-10
2.35711e-09
-1.46149e-10
6.21964e-10
2.38181e-09
-1.43665e-10
9.22712e-10
2.39132e-09
-1.41736e-10
1.20822e-09
2.38707e-09
-1.40482e-10
1.47224e-09
2.37036e-09
-1.39972e-10
1.7095e-09
2.34282e-09
-1.40215e-10
1.91591e-09
2.30647e-09
-1.41167e-10
2.08699e-09
2.26374e-09
-1.427e-10
2.21808e-09
2.21833e-09
-1.44642e-10
2.16819e-09
-1.46558e-10
2.31522e-09
3.04993e-10
-1.55152e-10
2.45929e-09
6.05637e-10
-1.5209e-10
2.48526e-09
8.98662e-10
-1.49471e-10
2.49716e-09
1.17742e-09
-1.4747e-10
2.49554e-09
1.43582e-09
-1.46164e-10
2.48087e-09
1.66866e-09
-1.45547e-10
2.45393e-09
1.87133e-09
-1.45533e-10
2.41593e-09
2.03927e-09
-1.45949e-10
2.36865e-09
2.16798e-09
-1.46551e-10
2.31519e-09
-1.46963e-10
2.25974e-09
2.25985e-09
3.272e-10
3.28253e-10
-1.17303e-10
6.30483e-10
3.24932e-10
-1.16368e-10
9.02562e-10
3.16175e-10
-1.16445e-10
1.1432e-09
3.05743e-10
-1.17428e-10
1.35296e-09
2.94813e-10
-1.19223e-10
1.5317e-09
2.83616e-10
-1.21731e-10
1.6786e-09
2.72432e-10
-1.24825e-10
1.79235e-09
2.61632e-10
-1.28327e-10
1.87136e-09
2.51635e-10
-1.31968e-10
2.40635e-10
-1.35399e-10
1.91479e-09
3.23929e-10
6.31238e-10
-1.16363e-10
6.27748e-10
6.28908e-10
-1.15358e-10
9.03414e-10
6.16576e-10
-1.15323e-10
1.14807e-09
5.99074e-10
-1.16161e-10
1.36134e-09
5.79526e-10
-1.17782e-10
1.54311e-09
5.59118e-10
-1.20088e-10
1.69263e-09
5.38482e-10
-1.22957e-10
1.80867e-09
5.18342e-10
-1.26208e-10
1.88984e-09
4.99273e-10
-1.29575e-10
4.77342e-10
-1.3269e-10
1.93506e-09
3.15702e-10
9.0267e-10
-1.16436e-10
6.155e-10
9.03918e-10
-1.15316e-10
8.91753e-10
8.92755e-10
-1.15106e-10
1.13938e-09
8.72776e-10
-1.15723e-10
1.35589e-09
8.47836e-10
-1.1708e-10
1.54057e-09
8.20749e-10
-1.19088e-10
1.69274e-09
7.92905e-10
-1.21625e-10
1.81113e-09
7.65202e-10
-1.24515e-10
1.89461e-09
7.38446e-10
-1.27494e-10
7.06756e-10
-1.30199e-10
1.94299e-09
3.05758e-10
1.14312e-09
-1.17419e-10
5.98671e-10
1.14808e-09
-1.16152e-10
8.71872e-10
1.13979e-09
-1.15717e-10
1.11986e-09
1.12073e-09
-1.16048e-10
1.33858e-09
1.0938e-09
-1.17069e-10
1.52574e-09
1.06234e-09
-1.18695e-10
1.68017e-09
1.0291e-09
-1.20814e-10
1.80065e-09
9.95605e-10
-1.23253e-10
1.88633e-09
9.6268e-10
-1.25763e-10
9.22832e-10
-1.27986e-10
1.93843e-09
2.94942e-10
1.3529e-09
-1.19216e-10
5.79646e-10
1.36128e-09
-1.17774e-10
8.47571e-10
1.35592e-09
-1.17073e-10
1.09302e-09
1.33896e-09
-1.17065e-10
1.31174e-09
1.31257e-09
-1.17687e-10
1.50042e-09
1.27924e-09
-1.18864e-10
1.6566e-09
1.2421e-09
-1.20492e-10
1.77858e-09
1.20397e-09
-1.22409e-10
1.86584e-09
1.16625e-09
-1.24384e-10
1.12013e-09
-1.26062e-10
1.92149e-09
2.83746e-10
1.53166e-09
-1.21726e-10
5.59366e-10
1.54305e-09
-1.20083e-10
8.20963e-10
1.5405e-09
-1.19082e-10
1.06219e-09
1.52576e-09
-1.1869e-10
1.27848e-09
1.50086e-09
-1.18861e-10
1.46671e-09
1.46775e-09
-1.19532e-10
1.62375e-09
1.42862e-09
-1.20608e-10
1.74663e-09
1.38675e-09
-1.21942e-10
1.8345e-09
1.34485e-09
-1.23318e-10
1.29421e-09
-1.24388e-10
1.89287e-09
2.72558e-10
1.67857e-09
-1.24823e-10
5.38728e-10
1.69258e-09
-1.22954e-10
7.93262e-10
1.69266e-09
-1.21622e-10
1.02949e-09
1.68007e-09
-1.2081e-10
1.24208e-09
1.65658e-09
-1.20488e-10
1.42767e-09
1.62422e-09
-1.20605e-10
1.58372e-09
1.58476e-09
-1.21077e-10
1.70659e-09
1.54067e-09
-1.2177e-10
1.79411e-09
1.49516e-09
-1.22482e-10
1.44153e-09
-1.22882e-10
1.85385e-09
2.61746e-10
1.79233e-09
-1.28327e-10
5.18568e-10
1.80863e-09
-1.26208e-10
7.65549e-10
1.81104e-09
-1.24513e-10
9.96104e-10
1.80051e-09
-1.23251e-10
1.20451e-09
1.77837e-09
-1.22405e-10
1.38658e-09
1.74647e-09
-1.21934e-10
1.53979e-09
1.7068e-09
-1.21761e-10
1.66095e-09
1.66151e-09
-1.21759e-10
1.74706e-09
1.61361e-09
-1.21744e-10
1.55914e-09
-1.21425e-10
1.80649e-09
2.51726e-10
1.87134e-09
-1.3197e-10
4.99453e-10
1.8898e-09
-1.29577e-10
7.38716e-10
1.89453e-09
-1.27494e-10
9.63045e-10
1.8862e-09
-1.25762e-10
1.16671e-09
1.86566e-09
-1.24379e-10
1.3451e-09
1.83426e-09
-1.23308e-10
1.49491e-09
1.79392e-09
-1.2247e-10
1.6132e-09
1.74713e-09
-1.21738e-10
1.69716e-09
1.69744e-09
-1.20956e-10
1.64464e-09
-1.19883e-10
1.75421e-09
2.40698e-10
-1.35402e-10
1.91479e-09
4.77465e-10
-1.32693e-10
1.93504e-09
7.06934e-10
-1.302e-10
1.94293e-09
9.23054e-10
-1.27986e-10
1.93833e-09
1.12037e-09
-1.2606e-10
1.92137e-09
1.29441e-09
-1.24382e-10
1.89273e-09
1.44163e-09
-1.22874e-10
1.85372e-09
1.5591e-09
-1.2142e-10
1.80643e-09
1.64446e-09
-1.19881e-10
1.75427e-09
-1.18099e-10
1.70145e-09
1.70159e-09
2.72189e-10
2.73126e-10
-1.09978e-10
5.22975e-10
2.69898e-10
-1.08743e-10
7.45111e-10
2.61731e-10
-1.08106e-10
9.37601e-10
2.51817e-10
-1.07957e-10
1.10051e-09
2.41191e-10
-1.08174e-10
1.23371e-09
2.30099e-10
-1.0862e-10
1.33695e-09
2.18833e-10
-1.09126e-10
1.4101e-09
2.07762e-10
-1.09492e-10
1.45334e-09
1.97312e-10
-1.09475e-10
1.86201e-10
-1.08811e-10
1.46783e-09
2.6901e-10
5.23718e-10
-1.0874e-10
5.19838e-10
5.20905e-10
-1.07454e-10
7.44625e-10
5.08995e-10
-1.06736e-10
9.40202e-10
4.92114e-10
-1.06484e-10
1.10585e-09
4.72953e-10
-1.06582e-10
1.24145e-09
4.52595e-10
-1.06895e-10
1.34683e-09
4.31673e-10
-1.07264e-10
1.42191e-09
4.1092e-10
-1.07494e-10
1.46702e-09
3.90983e-10
-1.07352e-10
3.69077e-10
-1.06586e-10
1.48332e-09
2.61296e-10
7.45356e-10
-1.081e-10
5.0802e-10
7.45189e-10
-1.06732e-10
7.32699e-10
7.33652e-10
-1.05886e-10
9.30339e-10
7.13856e-10
-1.05471e-10
1.09848e-09
6.8913e-10
-1.0538e-10
1.2365e-09
6.61928e-10
-1.05488e-10
1.34424e-09
6.33546e-10
-1.05644e-10
1.42162e-09
6.04925e-10
-1.05663e-10
1.46913e-09
5.7699e-10
-1.05327e-10
5.45614e-10
-1.04402e-10
1.48862e-09
2.51797e-10
9.37725e-10
-1.07951e-10
4.91715e-10
9.40389e-10
-1.06479e-10
7.13014e-10
9.30839e-10
-1.05468e-10
9.10391e-10
9.11235e-10
-1.04844e-10
1.08011e-09
8.84129e-10
-1.04511e-10
1.22024e-09
8.52428e-10
-1.04354e-10
1.3302e-09
8.18563e-10
-1.04235e-10
1.4099e-09
7.84015e-10
-1.03981e-10
1.45999e-09
7.49809e-10
-1.03392e-10
7.10744e-10
-1.02257e-10
1.48341e-09
2.41271e-10
1.10067e-09
-1.08169e-10
4.72999e-10
1.10599e-09
-1.06577e-10
6.88837e-10
1.09868e-09
-1.05376e-10
8.83395e-10
1.08058e-09
-1.04508e-10
1.05278e-09
1.05359e-09
-1.03892e-10
1.19424e-09
1.01992e-09
-1.03425e-10
1.30611e-09
9.82355e-10
-1.02983e-10
1.38784e-09
9.43431e-10
-1.02409e-10
1.44023e-09
9.04651e-10
-1.01521e-10
8.5999e-10
-1.0013e-10
1.46771e-09
2.30186e-10
1.23388e-09
-1.08616e-10
4.52756e-10
1.24161e-09
-1.06891e-10
6.62041e-10
1.23663e-09
-1.05485e-10
8.52226e-10
1.22042e-09
-1.04351e-10
1.01922e-09
1.19475e-09
-1.03424e-10
1.16038e-09
1.16133e-09
-1.02616e-10
1.27349e-09
1.12219e-09
-1.01818e-10
1.35689e-09
1.08024e-09
-1.00888e-10
1.41102e-09
1.03807e-09
-9.9665e-11
9.89844e-10
-9.79837e-11
1.44216e-09
2.18919e-10
1.33713e-09
-1.09124e-10
4.3184e-10
1.34699e-09
-1.07262e-10
6.33784e-10
1.34436e-09
-1.05642e-10
8.18807e-10
1.33029e-09
-1.04233e-10
9.82262e-10
1.30626e-09
-1.02982e-10
1.12135e-09
1.27401e-09
-1.01817e-10
1.23425e-09
1.23518e-09
-1.00643e-10
1.31871e-09
1.19207e-09
-9.9339e-11
1.37405e-09
1.14767e-09
-9.77604e-11
1.09776e-09
-9.57703e-11
1.40803e-09
2.07841e-10
1.41026e-09
-1.09491e-10
4.11076e-10
1.42205e-09
-1.07493e-10
6.05163e-10
1.42171e-09
-1.05662e-10
7.8436e-10
1.40995e-09
-1.0398e-10
9.43796e-10
1.38782e-09
-1.02408e-10
1.08006e-09
1.35691e-09
-1.00887e-10
1.19132e-09
1.31902e-09
-9.93375e-11
1.27565e-09
1.27619e-09
-9.76586e-11
1.3316e-09
1.23122e-09
-9.57276e-11
1.18192e-09
-9.34395e-11
1.36726e-09
1.97374e-10
1.45348e-09
-1.09475e-10
3.91106e-10
1.46714e-09
-1.07352e-10
5.77175e-10
1.46921e-09
-1.05327e-10
7.5006e-10
1.46002e-09
-1.03392e-10
9.04979e-10
1.44021e-09
-1.0152e-10
1.03823e-09
1.41097e-09
-9.96628e-11
1.14744e-09
1.37404e-09
-9.77578e-11
1.23084e-09
1.33174e-09
-9.57265e-11
1.28698e-09
1.28725e-09
-9.34794e-11
1.24115e-09
-9.09528e-11
1.32298e-09
1.86242e-10
-1.08812e-10
1.46794e-09
3.69158e-10
-1.06587e-10
1.48341e-09
5.4573e-10
-1.04403e-10
1.48868e-09
7.1089e-10
-1.02258e-10
1.48343e-09
8.6015e-10
-1.0013e-10
1.4677e-09
9.89974e-10
-9.79824e-11
1.44214e-09
1.0978e-09
-9.57686e-11
1.408e-09
1.18185e-09