/*--------------------------------*- C++ -*----------------------------------*\
| =========                 |                                                 |
| \\      /  F ield         | foam-extend: Open Source CFD                    |
|  \\    /   O peration     | Version:     3.1                                |
|   \\  /    A nd           | Web:         http://www.extend-project.de       |
|    \\/     M anipulation  |                                                 |
\*---------------------------------------------------------------------------*/
FoamFile
{
    version     2.0;
    format      ascii;
    class       surfaceVectorField;
    location    "0.0001";
    object      Sf;
}
// * * * * * * * * * * * * * * * * * * * * * * * * * * * * * * * * * * * * * //

dimensions      [0 2 0 0 0 0 0];

internalField   nonuniform List<vector> 
45800
(
(2.09734e-07 3.66269e-09 -2.74268e-11)
(3.66267e-09 2.09734e-07 -2.7495e-11)
(-1.15175e-13 -1.14527e-13 1.14608e-07)
(2.06071e-07 7.32518e-09 -5.38936e-11)
(3.66302e-09 2.09734e-07 -2.75299e-11)
(-3.47498e-13 -1.24732e-13 1.12607e-07)
(2.02409e-07 1.09876e-08 -7.97308e-11)
(3.66298e-09 2.09735e-07 -2.74092e-11)
(-6.14732e-13 -1.47071e-13 1.10605e-07)
(1.98747e-07 1.465e-08 -1.05809e-10)
(3.66278e-09 2.09737e-07 -2.74494e-11)
(-9.57742e-13 -1.87252e-13 1.08605e-07)
(1.95086e-07 1.83125e-08 -1.33109e-10)
(3.66254e-09 2.09741e-07 -2.77771e-11)
(-1.42699e-12 -2.5445e-13 1.06606e-07)
(1.91426e-07 2.19753e-08 -1.6266e-10)
(3.66226e-09 2.09746e-07 -2.84657e-11)
(-2.08668e-12 -3.62476e-13 1.04608e-07)
(1.87767e-07 2.56382e-08 -1.95612e-10)
(3.66188e-09 2.09754e-07 -2.96264e-11)
(-3.02499e-12 -5.33325e-13 1.02612e-07)
(1.8411e-07 2.93017e-08 -2.33253e-10)
(3.6614e-09 2.09764e-07 -3.14173e-11)
(-4.35589e-12 -7.97499e-13 1.00618e-07)
(1.80456e-07 3.29659e-08 -2.76991e-10)
(3.66075e-09 2.09778e-07 -3.40509e-11)
(-6.22511e-12 -1.18808e-12 9.86263e-08)
(3.66055e-09 2.09797e-07 -3.74477e-11)
(-8.87822e-12 -1.66783e-12 9.66371e-08)
(1.76804e-07 3.66322e-08 -3.28716e-10)
(2.09734e-07 3.663e-09 -2.74622e-11)
(7.32514e-09 2.06071e-07 -5.39202e-11)
(-1.25125e-13 -3.46415e-13 1.12607e-07)
(2.06072e-07 7.32566e-09 -5.42661e-11)
(7.32562e-09 2.06072e-07 -5.43314e-11)
(-3.6084e-13 -3.59559e-13 1.10606e-07)
(2.0241e-07 1.0988e-08 -8.06808e-11)
(7.32571e-09 2.06073e-07 -5.44823e-11)
(-6.32748e-13 -3.89053e-13 1.08605e-07)
(1.98748e-07 1.46503e-08 -1.07364e-10)
(7.32544e-09 2.06075e-07 -5.47898e-11)
(-9.80202e-13 -4.4039e-13 1.06605e-07)
(1.95087e-07 1.83128e-08 -1.35222e-10)
(7.32499e-09 2.06079e-07 -5.55781e-11)
(-1.45305e-12 -5.21846e-13 1.04606e-07)
(1.91427e-07 2.19755e-08 -1.6529e-10)
(7.32443e-09 2.06084e-07 -5.70628e-11)
(-2.11422e-12 -6.46833e-13 1.02608e-07)
(1.87768e-07 2.56386e-08 -1.98717e-10)
(7.32368e-09 2.06091e-07 -5.94705e-11)
(-3.04823e-12 -8.33095e-13 1.00612e-07)
(1.84112e-07 2.93023e-08 -2.36746e-10)
(7.32273e-09 2.06101e-07 -6.3099e-11)
(-4.35783e-12 -1.09732e-12 9.86182e-08)
(1.80457e-07 3.29671e-08 -2.80686e-10)
(7.32153e-09 2.06115e-07 -6.8303e-11)
(-6.16739e-12 -1.44896e-12 9.66261e-08)
(7.32148e-09 2.06132e-07 -7.47511e-11)
(-8.60082e-12 -1.84981e-12 9.46357e-08)
(1.76805e-07 3.66336e-08 -3.31729e-10)
(2.09735e-07 3.66292e-09 -2.73818e-11)
(1.09875e-08 2.02409e-07 -7.96921e-11)
(-1.46958e-13 -6.14182e-13 1.10605e-07)
(2.06073e-07 7.32567e-09 -5.44153e-11)
(1.09879e-08 2.0241e-07 -8.06768e-11)
(-3.8978e-13 -6.31433e-13 1.08605e-07)
(2.02411e-07 1.09881e-08 -8.13957e-11)
(1.09881e-08 2.02411e-07 -8.14433e-11)
(-6.70689e-13 -6.68919e-13 1.06605e-07)
(1.9875e-07 1.46504e-08 -1.08793e-10)
(1.09879e-08 2.02414e-07 -8.2327e-11)
(-1.0267e-12 -7.32637e-13 1.04605e-07)
(1.95089e-07 1.83128e-08 -1.37325e-10)
(1.09874e-08 2.02417e-07 -8.37495e-11)
(-1.50662e-12 -8.30694e-13 1.02606e-07)
(1.91429e-07 2.19755e-08 -1.67973e-10)
(1.09865e-08 2.02422e-07 -8.61325e-11)
(-2.17293e-12 -9.76121e-13 1.00609e-07)
(1.87771e-07 2.56386e-08 -2.01863e-10)
(1.09854e-08 2.02429e-07 -8.98581e-11)
(-3.10359e-12 -1.18662e-12 9.86128e-08)
(1.84114e-07 2.93025e-08 -2.40145e-10)
(1.09841e-08 2.02439e-07 -9.53351e-11)
(-4.38671e-12 -1.47811e-12 9.66184e-08)
(1.80459e-07 3.29673e-08 -2.84029e-10)
(1.09824e-08 2.02452e-07 -1.03042e-10)
(-6.12995e-12 -1.86523e-12 9.46259e-08)
(1.09827e-08 2.02468e-07 -1.12314e-10)
(-8.37425e-12 -2.30768e-12 9.26346e-08)
(1.76806e-07 3.66336e-08 -3.34362e-10)
(2.09737e-07 3.66276e-09 -2.74606e-11)
(1.465e-08 1.98747e-07 -1.0575e-10)
(-1.86885e-13 -9.57732e-13 1.08605e-07)
(2.06075e-07 7.32538e-09 -5.47739e-11)
(1.46503e-08 1.98748e-07 -1.07311e-10)
(-4.40257e-13 -9.79835e-13 1.06605e-07)
(2.02414e-07 1.09879e-08 -8.22753e-11)
(1.46504e-08 1.9875e-07 -1.08776e-10)
(-7.33588e-13 -1.02523e-12 1.04605e-07)
(1.98753e-07 1.46503e-08 -1.10394e-10)
(1.46502e-08 1.98752e-07 -1.1043e-10)
(-1.1033e-12 -1.10114e-12 1.02606e-07)
(1.95092e-07 1.83127e-08 -1.39705e-10)
(1.46497e-08 1.98756e-07 -1.12653e-10)
(-1.59567e-12 -1.21747e-12 1.00607e-07)
(1.91432e-07 2.19753e-08 -1.71031e-10)
(1.46487e-08 1.98761e-07 -1.1597e-10)
(-2.27272e-12 -1.38768e-12 9.86097e-08)
(1.87773e-07 2.56383e-08 -2.05429e-10)
(1.46473e-08 1.98768e-07 -1.20983e-10)
(-3.20926e-12 -1.63192e-12 9.66134e-08)
(1.84116e-07 2.93021e-08 -2.43996e-10)
(1.46454e-08 1.98777e-07 -1.28265e-10)
(-4.48356e-12 -1.97483e-12 9.46188e-08)
(1.80462e-07 3.29668e-08 -2.87898e-10)
(1.46433e-08 1.9879e-07 -1.38389e-10)
(-6.19339e-12 -2.44381e-12 9.2626e-08)
(1.4644e-08 1.98805e-07 -1.50295e-10)
(-8.28046e-12 -2.97863e-12 9.06339e-08)
(1.76809e-07 3.66328e-08 -3.37713e-10)
(2.09741e-07 3.66254e-09 -2.77966e-11)
(1.83125e-08 1.95086e-07 -1.33048e-10)
(-2.54129e-13 -1.42706e-12 1.06606e-07)
(2.06079e-07 7.32497e-09 -5.56051e-11)
(1.83128e-08 1.95087e-07 -1.35159e-10)
(-5.21255e-13 -1.45303e-12 1.04606e-07)
(2.02417e-07 1.09873e-08 -8.37471e-11)
(1.83128e-08 1.95089e-07 -1.37266e-10)
(-8.30223e-13 -1.50586e-12 1.02606e-07)
(1.98756e-07 1.46497e-08 -1.1261e-10)
(1.83126e-08 1.95092e-07 -1.39681e-10)
(-1.21867e-12 -1.5935e-12 1.00607e-07)
(1.95095e-07 1.83121e-08 -1.42745e-10)
(1.8312e-08 1.95095e-07 -1.42782e-10)
(-1.73165e-12 -1.72876e-12 9.86088e-08)
(1.91436e-07 2.19746e-08 -1.74881e-10)
(1.8311e-08 1.951e-07 -1.47078e-10)
(-2.42987e-12 -1.92952e-12 9.66112e-08)
(1.87777e-07 2.56376e-08 -2.09918e-10)
(1.83093e-08 1.95107e-07 -1.53277e-10)
(-3.38495e-12 -2.21675e-12 9.46146e-08)
(1.8412e-07 2.93012e-08 -2.48893e-10)
(1.8307e-08 1.95116e-07 -1.62201e-10)
(-4.67749e-12 -2.6222e-12 9.26196e-08)
(1.80465e-07 3.29658e-08 -2.92981e-10)
(1.83043e-08 1.95128e-07 -1.74605e-10)
(-6.39685e-12 -3.18871e-12 9.06264e-08)
(1.83057e-08 1.95143e-07 -1.88983e-10)
(-8.3475e-12 -3.82403e-12 8.86337e-08)
(1.76812e-07 3.66316e-08 -3.4248e-10)
(2.09746e-07 3.66226e-09 -2.84841e-11)
(2.19753e-08 1.91426e-07 -1.62599e-10)
(-3.62167e-13 -2.08654e-12 1.04608e-07)
(2.06084e-07 7.32443e-09 -5.70993e-11)
(2.19755e-08 1.91427e-07 -1.65226e-10)
(-6.46079e-13 -2.11402e-12 1.02608e-07)
(2.02422e-07 1.09865e-08 -8.61722e-11)
(2.19755e-08 1.91429e-07 -1.67903e-10)
(-9.75062e-13 -2.17269e-12 1.00609e-07)
(1.98761e-07 1.46486e-08 -1.15981e-10)
(2.19752e-08 1.91432e-07 -1.70967e-10)
(-1.38775e-12 -2.27223e-12 9.86096e-08)
(1.951e-07 1.8311e-08 -1.47028e-10)
(2.19745e-08 1.91435e-07 -1.74864e-10)
(-1.93066e-12 -2.42745e-12 9.66111e-08)
(1.91441e-07 2.19735e-08 -1.80065e-10)
(2.19734e-08 1.9144e-07 -1.80133e-10)
(-2.66268e-12 -2.65887e-12 9.46134e-08)
(1.87782e-07 2.56364e-08 -2.15918e-10)
(2.19717e-08 1.91447e-07 -1.87451e-10)
(-3.65233e-12 -2.99259e-12 9.26167e-08)
(1.84125e-07 2.92999e-08 -2.55474e-10)
(2.19691e-08 1.91456e-07 -1.97777e-10)
(-4.98493e-12 -3.46335e-12 9.06212e-08)
(1.8047e-07 3.29645e-08 -2.99857e-10)
(2.19658e-08 1.91468e-07 -2.12136e-10)
(-6.7462e-12 -4.11551e-12 8.86274e-08)
(2.19676e-08 1.91482e-07 -2.28727e-10)
(-8.5745e-12 -4.8267e-12 8.66339e-08)
(1.76817e-07 3.66303e-08 -3.49124e-10)
(2.09754e-07 3.66189e-09 -2.96436e-11)
(2.56382e-08 1.87767e-07 -1.95552e-10)
(-5.32973e-13 -3.02468e-12 1.02612e-07)
(2.06091e-07 7.32368e-09 -5.95052e-11)
(2.56386e-08 1.87769e-07 -1.98653e-10)
(-8.32274e-13 -3.04788e-12 1.00612e-07)
(2.02429e-07 1.09854e-08 -8.99108e-11)
(2.56387e-08 1.87771e-07 -2.01791e-10)
(-1.18559e-12 -3.10323e-12 9.86128e-08)
(1.98768e-07 1.46472e-08 -1.21049e-10)
(2.56384e-08 1.87773e-07 -2.05349e-10)
(-1.63143e-12 -3.20874e-12 9.66134e-08)
(1.95107e-07 1.83092e-08 -1.53298e-10)
(2.56376e-08 1.87777e-07 -2.09836e-10)
(-2.21515e-12 -3.38313e-12 9.46145e-08)
(1.91447e-07 2.19717e-08 -1.87354e-10)
(2.56363e-08 1.87782e-07 -2.15879e-10)
(-2.991e-12 -3.64475e-12 9.26165e-08)
(1.87788e-07 2.56346e-08 -2.24129e-10)
(2.56344e-08 1.87788e-07 -2.24185e-10)
(-4.03179e-12 -4.02102e-12 9.06196e-08)
(1.84131e-07 2.92981e-08 -2.64357e-10)
(2.56318e-08 1.87797e-07 -2.35637e-10)
(-5.40239e-12 -4.53214e-12 8.86236e-08)
(1.80476e-07 3.29629e-08 -3.08967e-10)
(2.56282e-08 1.87808e-07 -2.51368e-10)
(-7.2071e-12 -5.21357e-12 8.66287e-08)
(2.56299e-08 1.87822e-07 -2.69676e-10)
(-8.93305e-12 -5.94214e-12 8.46342e-08)
(1.76823e-07 3.66292e-08 -3.57881e-10)
(2.09764e-07 3.6614e-09 -3.14327e-11)
(2.93017e-08 1.8411e-07 -2.33196e-10)
(-7.97107e-13 -4.35542e-12 1.00618e-07)
(2.06101e-07 7.32274e-09 -6.31303e-11)
(2.93023e-08 1.84112e-07 -2.36685e-10)
(-1.09643e-12 -4.35731e-12 9.86183e-08)
(2.02439e-07 1.09841e-08 -9.5384e-11)
(2.93025e-08 1.84114e-07 -2.40074e-10)
(-1.47692e-12 -4.38601e-12 9.66185e-08)
(1.98777e-07 1.46455e-08 -1.28336e-10)
(2.93021e-08 1.84116e-07 -2.43908e-10)
(-1.97338e-12 -4.48215e-12 9.46188e-08)
(1.95116e-07 1.8307e-08 -1.62277e-10)
(2.93013e-08 1.8412e-07 -2.48776e-10)
(-2.61868e-12 -4.67466e-12 9.26196e-08)
(1.91456e-07 2.1969e-08 -1.97728e-10)
(2.92999e-08 1.84125e-07 -2.55316e-10)
(-3.45211e-12 -4.97623e-12 9.0621e-08)
(1.87797e-07 2.56318e-08 -2.35527e-10)
(2.9298e-08 1.84131e-07 -2.64227e-10)
(-4.53805e-12 -5.38743e-12 8.86233e-08)
(1.84139e-07 2.92958e-08 -2.7624e-10)
(2.92956e-08 1.84139e-07 -2.76224e-10)
(-5.90086e-12 -5.88388e-12 8.66262e-08)
(1.80483e-07 3.29612e-08 -3.20695e-10)
(2.9292e-08 1.84149e-07 -2.92442e-10)
(-7.70739e-12 -6.49628e-12 8.46298e-08)
(2.92931e-08 1.84162e-07 -3.11578e-10)
(-9.32205e-12 -7.10261e-12 8.26336e-08)
(1.76829e-07 3.66284e-08 -3.68693e-10)
(2.09778e-07 3.66075e-09 -3.40638e-11)
(3.29659e-08 1.80456e-07 -2.7694e-10)
(-1.18769e-12 -6.22466e-12 9.86263e-08)
(2.06115e-07 7.32154e-09 -6.83287e-11)
(3.29671e-08 1.80457e-07 -2.80631e-10)
(-1.4481e-12 -6.16697e-12 9.66261e-08)
(2.02452e-07 1.09824e-08 -1.0308e-10)
(3.29673e-08 1.80459e-07 -2.83963e-10)
(-1.86404e-12 -6.12962e-12 9.4626e-08)
(1.9879e-07 1.46433e-08 -1.38438e-10)
(3.29668e-08 1.80462e-07 -2.87816e-10)
(-2.44195e-12 -6.19311e-12 9.2626e-08)
(1.95128e-07 1.83044e-08 -1.7466e-10)
(3.29658e-08 1.80465e-07 -2.92874e-10)
(-3.18478e-12 -6.39634e-12 9.06264e-08)
(1.91468e-07 2.19658e-08 -2.12122e-10)
(3.29645e-08 1.8047e-07 -2.99706e-10)
(-4.10373e-12 -6.74708e-12 8.86274e-08)
(1.87808e-07 2.56281e-08 -2.51306e-10)
(3.29629e-08 1.80476e-07 -3.08811e-10)
(-5.21885e-12 -7.2124e-12 8.66287e-08)
(1.84149e-07 2.92919e-08 -2.92404e-10)
(3.2961e-08 1.80483e-07 -3.20609e-10)
(-6.50865e-12 -7.70716e-12 8.46298e-08)
(1.80491e-07 3.29582e-08 -3.35895e-10)
(3.29581e-08 1.80491e-07 -3.35887e-10)
(-8.13075e-12 -8.12316e-12 8.26306e-08)
(3.29591e-08 1.805e-07 -3.53493e-10)
(-9.34142e-12 -8.13779e-12 8.06301e-08)
(1.76835e-07 3.66285e-08 -3.80944e-10)
(2.09797e-07 3.66056e-09 -3.7458e-11)
(-1.66758e-12 -8.87824e-12 9.66371e-08)
(3.66322e-08 1.76804e-07 -3.28674e-10)
(2.06132e-07 7.32149e-09 -7.47709e-11)
(-1.84925e-12 -8.60099e-12 9.46357e-08)
(3.66336e-08 1.76805e-07 -3.31684e-10)
(2.02468e-07 1.09827e-08 -1.12341e-10)
(-2.307e-12 -8.37476e-12 9.26346e-08)
(3.66336e-08 1.76806e-07 -3.3431e-10)
(1.98805e-07 1.46441e-08 -1.50327e-10)
(-2.97759e-12 -8.28161e-12 9.06339e-08)
(3.66328e-08 1.76809e-07 -3.3765e-10)
(1.95143e-07 1.83057e-08 -1.89012e-10)
(-3.82194e-12 -8.35014e-12 8.86337e-08)
(3.66317e-08 1.76812e-07 -3.42405e-10)
(1.91482e-07 2.19675e-08 -2.28731e-10)
(-4.82242e-12 -8.58151e-12 8.66339e-08)
(3.66304e-08 1.76817e-07 -3.49036e-10)
(1.87822e-07 2.56299e-08 -2.6968e-10)
(-5.94636e-12 -8.94242e-12 8.46342e-08)
(3.66292e-08 1.76823e-07 -3.57791e-10)
(1.84162e-07 2.92931e-08 -3.11561e-10)
(-7.10204e-12 -9.32285e-12 8.26336e-08)
(3.66284e-08 1.76829e-07 -3.68603e-10)
(1.805e-07 3.29591e-08 -3.53446e-10)
(-8.13545e-12 -9.3277e-12 8.06299e-08)
(3.66284e-08 1.76834e-07 -3.80853e-10)
(-8.59236e-12 -8.57434e-12 7.86228e-08)
(1.76838e-07 3.66292e-08 -3.93661e-10)
(3.66291e-08 1.76838e-07 -3.93619e-10)
(2.09778e-07 3.66314e-09 -2.19187e-11)
(3.66309e-09 2.09778e-07 -2.19756e-11)
(-1.26443e-13 -1.25729e-13 1.14652e-07)
(2.06114e-07 7.3257e-09 -4.28294e-11)
(3.66414e-09 2.09778e-07 -2.19327e-11)
(-3.81455e-13 -1.36844e-13 1.1265e-07)
(2.0245e-07 1.09879e-08 -6.27579e-11)
(3.66405e-09 2.09778e-07 -2.16946e-11)
(-6.71134e-13 -1.60903e-13 1.10647e-07)
(1.98786e-07 1.46501e-08 -8.2131e-11)
(3.6635e-09 2.09781e-07 -2.15055e-11)
(-1.03487e-12 -2.03357e-13 1.08646e-07)
(1.95123e-07 1.83123e-08 -1.01384e-10)
(3.66287e-09 2.09786e-07 -2.14471e-11)
(-1.51622e-12 -2.72378e-13 1.06647e-07)
(1.91461e-07 2.19747e-08 -1.20853e-10)
(3.66209e-09 2.09794e-07 -2.15438e-11)
(-2.16267e-12 -3.79101e-13 1.04649e-07)
(1.878e-07 2.56373e-08 -1.40761e-10)
(3.66108e-09 2.09805e-07 -2.18295e-11)
(-3.02897e-12 -5.39485e-13 1.02654e-07)
(1.8414e-07 2.93001e-08 -1.61136e-10)
(3.65975e-09 2.09819e-07 -2.23455e-11)
(-4.16717e-12 -7.71796e-13 1.00661e-07)
(1.80482e-07 3.29634e-08 -1.81689e-10)
(3.65798e-09 2.09836e-07 -2.3131e-11)
(-5.61581e-12 -1.08713e-12 9.867e-08)
(3.65743e-09 2.09855e-07 -2.39847e-11)
(-7.43511e-12 -1.42563e-12 9.66812e-08)
(1.76823e-07 3.66295e-08 -2.01816e-10)
(2.09778e-07 3.66408e-09 -2.18769e-11)
(7.3256e-09 2.06114e-07 -4.28549e-11)
(-1.37278e-13 -3.80251e-13 1.12649e-07)
(2.06115e-07 7.32715e-09 -4.29877e-11)
(7.32704e-09 2.06115e-07 -4.30433e-11)
(-3.95767e-13 -3.94349e-13 1.10648e-07)
(2.02451e-07 1.09893e-08 -6.33061e-11)
(7.32735e-09 2.06116e-07 -4.28842e-11)
(-6.89959e-13 -4.25553e-13 1.08647e-07)
(1.98788e-07 1.46511e-08 -8.30846e-11)
(7.32667e-09 2.06119e-07 -4.26915e-11)
(-1.0574e-12 -4.7861e-13 1.06646e-07)
(1.95126e-07 1.83133e-08 -1.02695e-10)
(7.32545e-09 2.06124e-07 -4.26835e-11)
(-1.5408e-12 -5.60063e-13 1.04647e-07)
(1.91464e-07 2.19756e-08 -1.22475e-10)
(7.32393e-09 2.06132e-07 -4.29624e-11)
(-2.18643e-12 -6.7988e-13 1.0265e-07)
(1.87803e-07 2.56384e-08 -1.4265e-10)
(7.3219e-09 2.06142e-07 -4.36002e-11)
(-3.04599e-12 -8.49316e-13 1.00654e-07)
(1.84144e-07 2.9302e-08 -1.63234e-10)
(7.31931e-09 2.06155e-07 -4.46713e-11)
(-4.16278e-12 -1.0739e-12 9.86611e-08)
(1.80485e-07 3.29667e-08 -1.83924e-10)
(7.31605e-09 2.06171e-07 -4.62197e-11)
(-5.5617e-12 -1.34676e-12 9.66699e-08)
(7.31578e-09 2.06188e-07 -4.77766e-11)
(-7.21473e-12 -1.61524e-12 9.46794e-08)
(1.76825e-07 3.66332e-08 -2.03915e-10)
(2.09778e-07 3.66389e-09 -2.16717e-11)
(1.09878e-08 2.0245e-07 -6.27322e-11)
(-1.60781e-13 -6.70487e-13 1.10647e-07)
(2.06116e-07 7.32724e-09 -4.28288e-11)
(1.09891e-08 2.02451e-07 -6.33082e-11)
(-4.26366e-13 -6.88475e-13 1.08646e-07)
(2.02454e-07 1.09898e-08 -6.34624e-11)
(1.09896e-08 2.02454e-07 -6.35038e-11)
(-7.29009e-13 -7.2703e-13 1.06646e-07)
(1.98791e-07 1.46517e-08 -8.36701e-11)
(1.09892e-08 2.02457e-07 -6.35553e-11)
(-1.10328e-12 -7.90944e-13 1.04646e-07)
(1.95129e-07 1.83136e-08 -1.03673e-10)
(1.09878e-08 2.02462e-07 -6.37372e-11)
(-1.59049e-12 -8.85844e-13 1.02647e-07)
(1.91468e-07 2.19759e-08 -1.23764e-10)
(1.09855e-08 2.02469e-07 -6.42783e-11)
(-2.23634e-12 -1.02028e-12 1.0065e-07)
(1.87807e-07 2.56388e-08 -1.44159e-10)
(1.09825e-08 2.02479e-07 -6.53192e-11)
(-3.0866e-12 -1.20418e-12 9.86549e-08)
(1.84147e-07 2.93026e-08 -1.6484e-10)
(1.09788e-08 2.02491e-07 -6.69504e-11)
(-4.17298e-12 -1.4408e-12 9.66614e-08)
(1.80489e-07 3.29676e-08 -1.85502e-10)
(1.09741e-08 2.02506e-07 -6.92177e-11)
(-5.51177e-12 -1.7258e-12 9.46696e-08)
(1.09747e-08 2.02522e-07 -7.13719e-11)
(-7.0191e-12 -2.00243e-12 9.2678e-08)
(1.76828e-07 3.66338e-08 -2.05324e-10)
(2.09781e-07 3.66345e-09 -2.15139e-11)
(1.46501e-08 1.98786e-07 -8.20889e-11)
(-2.02945e-13 -1.03476e-12 1.08646e-07)
(2.06119e-07 7.32649e-09 -4.26779e-11)
(1.46511e-08 1.98788e-07 -8.30479e-11)
(-4.78472e-13 -1.05688e-12 1.06646e-07)
(2.02457e-07 1.09891e-08 -6.3513e-11)
(1.46515e-08 1.98791e-07 -8.36629e-11)
(-7.92045e-13 -1.10159e-12 1.04646e-07)
(1.98795e-07 1.46513e-08 -8.40793e-11)
(1.46512e-08 1.98795e-07 -8.41112e-11)
(-1.17684e-12 -1.17442e-12 1.02647e-07)
(1.95133e-07 1.83132e-08 -1.04478e-10)
(1.46498e-08 1.988e-07 -8.46116e-11)
(-1.67085e-12 -1.28196e-12 1.00649e-07)
(1.91472e-07 2.19753e-08 -1.24882e-10)
(1.46471e-08 1.98807e-07 -8.54406e-11)
(-2.31889e-12 -1.43189e-12 9.86513e-08)
(1.87811e-07 2.56382e-08 -1.45454e-10)
(1.46432e-08 1.98816e-07 -8.68547e-11)
(-3.16349e-12 -1.6345e-12 9.66555e-08)
(1.84151e-07 2.93019e-08 -1.66161e-10)
(1.46383e-08 1.98827e-07 -8.89969e-11)
(-4.22806e-12 -1.89821e-12 9.46616e-08)
(1.80492e-07 3.29666e-08 -1.86708e-10)
(1.46323e-08 1.98841e-07 -9.18961e-11)
(-5.52363e-12 -2.2254e-12 9.26692e-08)
(1.46339e-08 1.98856e-07 -9.45237e-11)
(-6.89455e-12 -2.53771e-12 9.06767e-08)
(1.76832e-07 3.66324e-08 -2.06304e-10)
(2.09786e-07 3.66287e-09 -2.14622e-11)
(1.83123e-08 1.95124e-07 -1.0134e-10)
(-2.71997e-13 -1.51612e-12 1.06647e-07)
(2.06124e-07 7.32539e-09 -4.27041e-11)
(1.83133e-08 1.95126e-07 -1.0265e-10)
(-5.594e-13 -1.54059e-12 1.04647e-07)
(2.02462e-07 1.09876e-08 -6.37349e-11)
(1.83135e-08 1.95129e-07 -1.03633e-10)
(-8.85417e-13 -1.58948e-12 1.02647e-07)
(1.988e-07 1.46497e-08 -8.45773e-11)
(1.8313e-08 1.95133e-07 -1.04467e-10)
(-1.28341e-12 -1.66838e-12 1.00648e-07)
(1.95138e-07 1.83118e-08 -1.05307e-10)
(1.83116e-08 1.95138e-07 -1.05339e-10)
(-1.78894e-12 -1.78574e-12 9.86502e-08)
(1.91477e-07 2.19737e-08 -1.26014e-10)
(1.83088e-08 1.95145e-07 -1.06478e-10)
(-2.44451e-12 -1.95199e-12 9.66529e-08)
(1.87816e-07 2.56362e-08 -1.46743e-10)
(1.83043e-08 1.95154e-07 -1.08172e-10)
(-3.28853e-12 -2.17588e-12 9.46567e-08)
(1.84155e-07 2.92996e-08 -1.67413e-10)
(1.8298e-08 1.95164e-07 -1.10676e-10)
(-4.34559e-12 -2.46848e-12 9.2662e-08)
(1.80496e-07 3.29641e-08 -1.8775e-10)
(1.82907e-08 1.95176e-07 -1.14054e-10)
(-5.61964e-12 -2.84008e-12 9.06689e-08)
(1.82934e-08 1.95189e-07 -1.17003e-10)
(-6.8519e-12 -3.18232e-12 8.86754e-08)
(1.76835e-07 3.66296e-08 -2.07001e-10)
(2.09794e-07 3.6621e-09 -2.15582e-11)
(2.19747e-08 1.91461e-07 -1.20809e-10)
(-3.78712e-13 -2.16229e-12 1.04649e-07)
(2.06131e-07 7.32393e-09 -4.29906e-11)
(2.19757e-08 1.91464e-07 -1.22431e-10)
(-6.79011e-13 -2.18598e-12 1.0265e-07)
(2.02469e-07 1.09854e-08 -6.43087e-11)
(2.19759e-08 1.91468e-07 -1.23717e-10)
(-1.01921e-12 -2.23584e-12 1.0065e-07)
(1.98807e-07 1.46469e-08 -8.54485e-11)
(2.19753e-08 1.91472e-07 -1.24841e-10)
(-1.43221e-12 -2.31815e-12 9.86511e-08)
(1.95145e-07 1.83087e-08 -1.06441e-10)
(2.19735e-08 1.91477e-07 -1.2601e-10)
(-1.95358e-12 -2.44199e-12 9.66527e-08)
(1.91483e-07 2.19708e-08 -1.27375e-10)
(2.19705e-08 1.91483e-07 -1.2743e-10)
(-2.62231e-12 -2.61849e-12 9.46553e-08)
(1.87822e-07 2.56329e-08 -1.48231e-10)
(2.19658e-08 1.91491e-07 -1.29321e-10)
(-3.47193e-12 -2.85858e-12 9.26587e-08)
(1.84161e-07 2.92959e-08 -1.68806e-10)
(2.19586e-08 1.915e-07 -1.3197e-10)
(-4.52924e-12 -3.17279e-12 9.06631e-08)
(1.80501e-07 3.29603e-08 -1.88777e-10)
(2.19498e-08 1.91511e-07 -1.35537e-10)
(-5.79171e-12 -3.56642e-12 8.86689e-08)
(2.19532e-08 1.91523e-07 -1.3857e-10)
(-6.87879e-12 -3.90546e-12 8.66742e-08)
(1.76839e-07 3.66261e-08 -2.07482e-10)
(2.09805e-07 3.66108e-09 -2.18429e-11)
(2.56373e-08 1.878e-07 -1.40718e-10)
(-5.39032e-13 -3.02834e-12 1.02654e-07)
(2.06142e-07 7.32191e-09 -4.3627e-11)
(2.56385e-08 1.87803e-07 -1.42606e-10)
(-8.48363e-13 -3.04532e-12 1.00654e-07)
(2.02479e-07 1.09825e-08 -6.53593e-11)
(2.56389e-08 1.87807e-07 -1.44111e-10)
(-1.20315e-12 -3.08596e-12 9.86549e-08)
(1.98816e-07 1.46431e-08 -8.69032e-11)
(2.56382e-08 1.87811e-07 -1.45403e-10)
(-1.63429e-12 -3.16276e-12 9.66555e-08)
(1.95153e-07 1.8304e-08 -1.08189e-10)
(2.56361e-08 1.87816e-07 -1.46696e-10)
(-2.17495e-12 -3.28666e-12 9.46565e-08)
(1.91491e-07 2.19657e-08 -1.29257e-10)
(2.56326e-08 1.87821e-07 -1.48222e-10)
(-2.8578e-12 -3.4651e-12 9.26584e-08)
(1.87829e-07 2.56279e-08 -1.50122e-10)
(2.56276e-08 1.87829e-07 -1.50175e-10)
(-3.71766e-12 -3.7081e-12 9.06613e-08)
(1.84166e-07 2.9291e-08 -1.70483e-10)
(2.56204e-08 1.87837e-07 -1.52747e-10)
(-4.76157e-12 -4.0115e-12 8.86647e-08)
(1.80505e-07 3.29558e-08 -1.89864e-10)
(2.56105e-08 1.87845e-07 -1.56098e-10)
(-5.99621e-12 -4.36849e-12 8.66687e-08)
(2.56134e-08 1.87855e-07 -1.5887e-10)
(-6.9399e-12 -4.64769e-12 8.46723e-08)
(1.76842e-07 3.66223e-08 -2.07724e-10)
(2.09819e-07 3.65976e-09 -2.23575e-11)
(2.93001e-08 1.8414e-07 -1.61096e-10)
(-7.71294e-13 -4.1663e-12 1.00661e-07)
(2.06155e-07 7.31933e-09 -4.46955e-11)
(2.9302e-08 1.84144e-07 -1.63192e-10)
(-1.07289e-12 -4.16189e-12 9.86612e-08)
(2.02491e-07 1.09788e-08 -6.69877e-11)
(2.93027e-08 1.84147e-07 -1.64793e-10)
(-1.43965e-12 -4.17197e-12 9.66614e-08)
(1.98827e-07 1.46383e-08 -8.90506e-11)
(2.93019e-08 1.84151e-07 -1.66106e-10)
(-1.89713e-12 -4.22643e-12 9.46616e-08)
(1.95164e-07 1.8298e-08 -1.10735e-10)
(2.92997e-08 1.84156e-07 -1.67346e-10)
(-2.46581e-12 -4.34273e-12 9.26619e-08)
(1.915e-07 2.19584e-08 -1.31953e-10)
(2.9296e-08 1.8416e-07 -1.68726e-10)
(-3.16366e-12 -4.52132e-12 9.06627e-08)
(1.87836e-07 2.56203e-08 -1.52677e-10)
(2.92907e-08 1.84166e-07 -1.70432e-10)
(-4.01693e-12 -4.74829e-12 8.86643e-08)
(1.84172e-07 2.92842e-08 -1.72554e-10)
(2.92839e-08 1.84172e-07 -1.72564e-10)
(-4.99819e-12 -4.98326e-12 8.66659e-08)
(1.80507e-07 3.29501e-08 -1.91021e-10)
(2.92735e-08 1.84178e-07 -1.75239e-10)
(-6.16088e-12 -5.21841e-12 8.46674e-08)
(2.92747e-08 1.84185e-07 -1.77353e-10)
(-6.95161e-12 -5.33445e-12 8.26687e-08)
(1.76844e-07 3.66187e-08 -2.07623e-10)
(2.09836e-07 3.65799e-09 -2.31409e-11)
(3.29634e-08 1.80482e-07 -1.81654e-10)
(-1.08664e-12 -5.61502e-12 9.867e-08)
(2.06171e-07 7.31607e-09 -4.62394e-11)
(3.29667e-08 1.80485e-07 -1.83888e-10)
(-1.34581e-12 -5.56095e-12 9.66699e-08)
(2.02506e-07 1.09742e-08 -6.92469e-11)
(3.29676e-08 1.80489e-07 -1.8546e-10)
(-1.72473e-12 -5.51116e-12 9.46696e-08)
(1.98841e-07 1.46324e-08 -9.19344e-11)
(3.29666e-08 1.80492e-07 -1.86659e-10)
(-2.224e-12 -5.52315e-12 9.26692e-08)
(1.95176e-07 1.82908e-08 -1.14099e-10)
(3.29642e-08 1.80496e-07 -1.87689e-10)
(-2.83706e-12 -5.619e-12 9.06689e-08)
(1.91511e-07 2.19497e-08 -1.35548e-10)
(3.29605e-08 1.805e-07 -1.88699e-10)
(-3.55674e-12 -5.79221e-12 8.86688e-08)
(1.87845e-07 2.56102e-08 -1.5607e-10)
(3.29557e-08 1.80505e-07 -1.89788e-10)
(-4.3735e-12 -6.00047e-12 8.66685e-08)
(1.84178e-07 2.92734e-08 -1.75214e-10)
(3.29498e-08 1.80507e-07 -1.90988e-10)
(-5.23036e-12 -6.16138e-12 8.46673e-08)
(1.80509e-07 3.2941e-08 -1.9238e-10)
(3.29409e-08 1.80509e-07 -1.92387e-10)
(-6.18807e-12 -6.18266e-12 8.26649e-08)
(3.29408e-08 1.80507e-07 -1.93253e-10)
(-6.64664e-12 -5.83594e-12 8.06606e-08)
(1.7684e-07 3.66164e-08 -2.07044e-10)
(2.09855e-07 3.65743e-09 -2.39922e-11)
(-1.42535e-12 -7.43513e-12 9.66812e-08)
(3.66295e-08 1.76823e-07 -2.01789e-10)
(2.06188e-07 7.3158e-09 -4.77911e-11)
(-1.61469e-12 -7.21493e-12 9.46795e-08)
(3.66333e-08 1.76825e-07 -2.03886e-10)
(2.02522e-07 1.09747e-08 -7.13924e-11)
(-2.00194e-12 -7.01966e-12 9.26781e-08)
(3.66339e-08 1.76828e-07 -2.05292e-10)
(1.98856e-07 1.46339e-08 -9.45483e-11)
(-2.53713e-12 -6.89572e-12 9.06767e-08)
(3.66324e-08 1.76832e-07 -2.06268e-10)
(1.9519e-07 1.82935e-08 -1.17027e-10)
(-3.18098e-12 -6.85441e-12 8.86755e-08)
(3.66297e-08 1.76835e-07 -2.06959e-10)
(1.91523e-07 2.19532e-08 -1.38584e-10)
(-3.90231e-12 -6.88513e-12 8.66742e-08)
(3.66261e-08 1.76839e-07 -2.07436e-10)
(1.87855e-07 2.56133e-08 -1.58879e-10)
(-4.65207e-12 -6.94845e-12 8.46724e-08)
(3.66223e-08 1.76842e-07 -2.07679e-10)
(1.84184e-07 2.92746e-08 -1.77354e-10)
(-5.33639e-12 -6.95334e-12 8.26686e-08)
(3.66187e-08 1.76844e-07 -2.07588e-10)
(1.80507e-07 3.29409e-08 -1.93236e-10)
(-5.83458e-12 -6.63729e-12 8.06605e-08)
(3.66164e-08 1.7684e-07 -2.07021e-10)
(-5.83604e-12 -5.82369e-12 7.86482e-08)
(1.7683e-07 3.66149e-08 -2.05942e-10)
(3.66147e-08 1.7683e-07 -2.05938e-10)
(2.09808e-07 3.66353e-09 -1.31552e-11)
(3.66345e-09 2.09808e-07 -1.31942e-11)
(-2.75274e-14 -2.7395e-14 1.14679e-07)
(2.06143e-07 7.3262e-09 -2.53481e-11)
(3.66514e-09 2.09807e-07 -1.30628e-11)
(-8.50502e-14 -3.07189e-14 1.12675e-07)
(2.02477e-07 1.09883e-08 -3.6255e-11)
(3.66515e-09 2.09806e-07 -1.27097e-11)
(-1.54493e-13 -3.77166e-14 1.10671e-07)
(1.98812e-07 1.46503e-08 -4.57777e-11)
(3.66451e-09 2.09807e-07 -1.22749e-11)
(-2.43193e-13 -4.93108e-14 1.08668e-07)
(1.95147e-07 1.83124e-08 -5.37598e-11)
(3.66377e-09 2.09811e-07 -1.17877e-11)
(-3.53417e-13 -6.63505e-14 1.06666e-07)
(1.91482e-07 2.19746e-08 -5.98825e-11)
(3.66288e-09 2.09817e-07 -1.12298e-11)
(-4.78629e-13 -8.87397e-14 1.04667e-07)
(1.87818e-07 2.56367e-08 -6.36089e-11)
(3.66173e-09 2.09824e-07 -1.05703e-11)
(-5.98601e-13 -1.14335e-13 1.02668e-07)
(1.84154e-07 2.92989e-08 -6.41233e-11)
(3.66024e-09 2.09833e-07 -9.76062e-12)
(-6.69424e-13 -1.3625e-13 1.00671e-07)
(1.80491e-07 3.29613e-08 -6.0271e-11)
(3.65832e-09 2.09842e-07 -8.7232e-12)
(-6.12185e-13 -1.38886e-13 9.86749e-08)
(3.65822e-09 2.0985e-07 -7.27244e-12)
(-3.03378e-13 -9.46777e-14 9.66787e-08)
(1.76826e-07 3.66261e-08 -5.04675e-11)
(2.09807e-07 3.66505e-09 -1.30255e-11)
(7.32605e-09 2.06142e-07 -2.53722e-11)
(-3.07865e-14 -8.48005e-14 1.12675e-07)
(2.06143e-07 7.32861e-09 -2.52371e-11)
(7.32845e-09 2.06143e-07 -2.5278e-11)
(-9.05162e-14 -9.0216e-14 1.10672e-07)
(2.02479e-07 1.09907e-08 -3.62769e-11)
(7.32919e-09 2.06144e-07 -2.47714e-11)
(-1.6167e-13 -1.01172e-13 1.0867e-07)
(1.98814e-07 1.46525e-08 -4.59382e-11)
(7.32852e-09 2.06145e-07 -2.40248e-11)
(-2.50983e-13 -1.176e-13 1.06667e-07)
(1.95149e-07 1.83144e-08 -5.40237e-11)
(7.32712e-09 2.06149e-07 -2.31282e-11)
(-3.60436e-13 -1.38979e-13 1.04666e-07)
(1.91485e-07 2.19766e-08 -6.02139e-11)
(7.32539e-09 2.06154e-07 -2.20742e-11)
(-4.83361e-13 -1.63968e-13 1.02667e-07)
(1.87821e-07 2.56392e-08 -6.39772e-11)
(7.32311e-09 2.06161e-07 -2.08049e-11)
(-5.99643e-13 -1.88891e-13 1.00668e-07)
(1.84158e-07 2.93023e-08 -6.45149e-11)
(7.32024e-09 2.06169e-07 -1.92268e-11)
(-6.66025e-13 -2.05306e-13 9.86711e-08)
(1.80494e-07 3.29663e-08 -6.07221e-11)
(7.31677e-09 2.06177e-07 -1.71864e-11)
(-6.07526e-13 -1.9914e-13 9.66746e-08)
(7.31755e-09 2.06183e-07 -1.43414e-11)
(-3.09368e-13 -1.51049e-13 9.4677e-08)
(1.76828e-07 3.66315e-08 -5.12174e-11)
(2.09806e-07 3.66491e-09 -1.26933e-11)
(1.09882e-08 2.02477e-07 -3.62508e-11)
(-3.76472e-14 -1.54285e-13 1.1067e-07)
(2.06144e-07 7.32903e-09 -2.4733e-11)
(1.09905e-08 2.02479e-07 -3.62893e-11)
(-1.01314e-13 -1.6125e-13 1.08669e-07)
(2.02481e-07 1.09919e-08 -3.57704e-11)
(1.09917e-08 2.0248e-07 -3.58038e-11)
(-1.7544e-13 -1.74898e-13 1.06668e-07)
(1.98817e-07 1.46538e-08 -4.55036e-11)
(1.09916e-08 2.02483e-07 -3.49073e-11)
(-2.65599e-13 -1.94511e-13 1.04667e-07)
(1.95153e-07 1.83156e-08 -5.36472e-11)
(1.099e-08 2.02486e-07 -3.37024e-11)
(-3.73223e-13 -2.18385e-13 1.02666e-07)
(1.91489e-07 2.19779e-08 -5.98563e-11)
(1.09875e-08 2.02491e-07 -3.22202e-11)
(-4.91648e-13 -2.43713e-13 1.00667e-07)
(1.87825e-07 2.56407e-08 -6.36093e-11)
(1.09842e-08 2.02497e-07 -3.0393e-11)
(-6.00458e-13 -2.65275e-13 9.86683e-08)
(1.84162e-07 2.93043e-08 -6.41337e-11)
(1.09801e-08 2.02504e-07 -2.8079e-11)
(-6.57191e-13 -2.72975e-13 9.66708e-08)
(1.80498e-07 3.29687e-08 -6.03919e-11)
(1.09752e-08 2.02511e-07 -2.50608e-11)
(-5.92437e-13 -2.5141e-13 9.46737e-08)
(1.09775e-08 2.02516e-07 -2.08812e-11)
(-3.0129e-13 -1.79118e-13 9.26754e-08)
(1.76832e-07 3.66338e-08 -5.12081e-11)
(2.09807e-07 3.66444e-09 -1.22776e-11)
(1.46503e-08 1.98812e-07 -4.57643e-11)
(-4.91469e-14 -2.42951e-13 1.08668e-07)
(2.06145e-07 7.32826e-09 -2.40126e-11)
(1.46524e-08 1.98814e-07 -4.59291e-11)
(-1.17469e-13 -2.50607e-13 1.06667e-07)
(2.02483e-07 1.09915e-08 -3.4877e-11)
(1.46536e-08 1.98816e-07 -4.5512e-11)
(-1.94813e-13 -2.64907e-13 1.04667e-07)
(1.9882e-07 1.46539e-08 -4.45435e-11)
(1.46537e-08 1.98819e-07 -4.45714e-11)
(-2.85601e-13 -2.84736e-13 1.02666e-07)
(1.95156e-07 1.83158e-08 -5.26586e-11)
(1.46525e-08 1.98823e-07 -4.31555e-11)
(-3.89994e-13 -3.0765e-13 1.00666e-07)
(1.91492e-07 2.1978e-08 -5.88128e-11)
(1.46496e-08 1.98828e-07 -4.12906e-11)
(-5.01021e-13 -3.29311e-13 9.86665e-08)
(1.87828e-07 2.56409e-08 -6.24701e-11)
(1.46453e-08 1.98833e-07 -3.89246e-11)
(-5.98059e-13 -3.42741e-13 9.66677e-08)
(1.84165e-07 2.93046e-08 -6.28809e-11)
(1.464e-08 1.98839e-07 -3.58853e-11)
(-6.39052e-13 -3.36021e-13 9.46698e-08)
(1.80501e-07 3.29691e-08 -5.90605e-11)
(1.46339e-08 1.98845e-07 -3.1888e-11)
(-5.58347e-13 -2.90593e-13 9.26722e-08)
(1.46378e-08 1.98849e-07 -2.64084e-11)
(-2.5851e-13 -1.80184e-13 9.06732e-08)
(1.76834e-07 3.6634e-08 -5.00589e-11)
(2.09811e-07 3.66377e-09 -1.17946e-11)
(1.83124e-08 1.95147e-07 -5.37459e-11)
(-6.61435e-14 -3.52959e-13 1.06667e-07)
(2.06148e-07 7.32704e-09 -2.31363e-11)
(1.83144e-08 1.95149e-07 -5.40106e-11)
(-1.38644e-13 -3.59906e-13 1.04666e-07)
(2.02486e-07 1.09898e-08 -3.36969e-11)
(1.83156e-08 1.95152e-07 -5.36392e-11)
(-2.18264e-13 -3.72461e-13 1.02666e-07)
(1.98823e-07 1.46524e-08 -4.31307e-11)
(1.83156e-08 1.95156e-07 -5.26668e-11)
(-3.08277e-13 -3.88905e-13 1.00666e-07)
(1.9516e-07 1.83147e-08 -5.10665e-11)
(1.83145e-08 1.95159e-07 -5.10937e-11)
(-4.07375e-13 -4.06154e-13 9.86661e-08)
(1.91496e-07 2.19768e-08 -5.70502e-11)
(1.83118e-08 1.95164e-07 -4.88873e-11)
(-5.07566e-13 -4.18982e-13 9.66665e-08)
(1.87831e-07 2.56394e-08 -6.04966e-11)
(1.83069e-08 1.95169e-07 -4.59751e-11)
(-5.87295e-13 -4.18162e-13 9.46672e-08)
(1.84167e-07 2.93031e-08 -6.06441e-11)
(1.83003e-08 1.95173e-07 -4.21815e-11)
(-6.04856e-13 -3.88988e-13 9.26684e-08)
(1.80503e-07 3.29677e-08 -5.6544e-11)
(1.82928e-08 1.95177e-07 -3.71713e-11)