/*--------------------------------*- C++ -*----------------------------------*\
| =========                 |                                                 |
| \\      /  F ield         | foam-extend: Open Source CFD                    |
|  \\    /   O peration     | Version:     3.1                                |
|   \\  /    A nd           | Web:         http://www.extend-project.de       |
|    \\/     M anipulation  |                                                 |
\*---------------------------------------------------------------------------*/
FoamFile
{
    version     2.0;
    format      ascii;
    class       volVectorField;
    location    "0.0001";
    object      U;
}
// * * * * * * * * * * * * * * * * * * * * * * * * * * * * * * * * * * * * * //

dimensions      [0 1 -1 0 0 0 0];

internalField   nonuniform List<vector> 
16000
(
(8.06884e-05 8.0689e-05 0.0290133)
(0.000245155 8.05797e-05 0.0291792)
(0.000419036 8.10859e-05 0.0295178)
(0.000609587 8.26268e-05 0.0300417)
(0.000825714 8.53397e-05 0.0307711)
(0.00107897 8.94586e-05 0.0317354)
(0.00138511 9.53651e-05 0.0329765)
(0.00176645 0.000103681 0.0345529)
(0.00225554 0.000115457 0.0365464)
(0.0029012 0.000136633 0.0390718)
(8.05791e-05 0.000245156 0.0291792)
(0.000244729 0.00024473 0.0293355)
(0.000417802 0.000246152 0.0296601)
(0.000606814 0.000250661 0.0301648)
(0.000820258 0.000258608 0.0308682)
(0.00106907 0.000270586 0.0317979)
(0.00136807 0.000287542 0.0329928)
(0.00173809 0.000310973 0.0345069)
(0.0022092 0.000343268 0.0364157)
(0.00282826 0.000398585 0.0388239)
(8.10853e-05 0.000419036 0.0295178)
(0.000246151 0.000417802 0.0296601)
(0.000419595 0.000419595 0.0299682)
(0.0006083 0.000426479 0.0304528)
(0.000820436 0.000438974 0.0311316)
(0.00106646 0.000457985 0.0320301)
(0.0013604 0.000484941 0.0331847)
(0.00172189 0.000522047 0.0346459)
(0.00217861 0.000572632 0.0364834)
(0.00277622 0.000657968 0.0387935)
(8.26267e-05 0.000609585 0.0300417)
(0.000250661 0.000606813 0.0301647)
(0.000426478 0.000608299 0.0304528)
(0.000616964 0.000616963 0.0309159)
(0.000830079 0.000633452 0.0315703)
(0.00107595 0.000658916 0.03244)
(0.00136804 0.000695184 0.0335592)
(0.001725 0.000745036 0.0349751)
(0.00217248 0.000812524 0.0367529)
(0.00275707 0.000925857 0.0389811)
(8.53399e-05 0.000825711 0.0307711)
(0.000258608 0.000820255 0.0308682)
(0.000438974 0.000820433 0.0311315)
(0.000633451 0.000830077 0.0315703)
(0.000849906 0.000849905 0.0321994)
(0.00109827 0.000881266 0.0330414)
(0.00139161 0.000926325 0.0341285)
(0.00174783 0.00098836 0.0355051)
(0.00219085 0.00107204 0.0372325)
(0.00277069 0.00121269 0.0393924)
(8.94589e-05 0.00107897 0.0317354)
(0.000270586 0.00106907 0.0317979)
(0.000457986 0.00106645 0.0320301)
(0.000658916 0.00107595 0.03244)
(0.000881265 0.00109826 0.0330414)
(0.00113491 0.00113491 0.0338555)
(0.0014327 0.00118836 0.0349124)
(0.001792 0.00126235 0.0362541)
(0.0022352 0.0013621 0.0379384)
(0.0028185 0.00153046 0.0400412)
(9.53653e-05 0.0013851 0.0329765)
(0.000287543 0.00136806 0.0329928)
(0.000484943 0.0013604 0.0331847)
(0.000695186 0.00136803 0.0335592)
(0.000926325 0.0013916 0.0341285)
(0.00118836 0.0014327 0.0349124)
(0.00149408 0.00149408 0.0359392)
(0.00186051 0.00157997 0.0372487)
(0.00230863 0.00169617 0.0388954)
(0.00290377 0.00189366 0.04095)
(0.000103681 0.00176645 0.0345529)
(0.000310974 0.00173809 0.0345069)
(0.000522049 0.00172189 0.0346459)
(0.000745038 0.00172499 0.0349751)
(0.000988361 0.00174783 0.0355051)
(0.00126234 0.00179199 0.0362541)
(0.00157996 0.0018605 0.0372486)
(0.00195813 0.00195813 0.0385263)
(0.00241645 0.00209151 0.0401389)
(0.0030323 0.00232089 0.0421522)
(0.000115458 0.00225554 0.0365464)
(0.000343269 0.00220919 0.0364157)
(0.000572634 0.00217861 0.0364834)
(0.000812526 0.00217247 0.0367529)
(0.00107204 0.00219084 0.0372325)
(0.0013621 0.00223518 0.0379384)
(0.00169616 0.00230862 0.0388953)
(0.0020915 0.00241644 0.0401389)
(0.00256654 0.00256654 0.0417184)
(0.00321486 0.00283311 0.0436948)
(0.000136633 0.0029012 0.0390718)
(0.000398585 0.00282826 0.0388239)
(0.000657969 0.00277622 0.0387935)
(0.000925859 0.00275706 0.0389811)
(0.00121269 0.00277069 0.0393924)
(0.00153046 0.00281849 0.0400412)
(0.00189366 0.00290376 0.04095)
(0.00232089 0.00303229 0.0421522)
(0.00283311 0.00321485 0.0436947)
(0.00352128 0.00352128 0.0456387)
(0.000225674 0.000225671 0.027886)
(0.000685119 0.000225118 0.0280251)
(0.00116911 0.000226031 0.0283079)
(0.0016962 0.000229527 0.0287428)
(0.00228873 0.00023589 0.0293426)
(0.00297489 0.000245612 0.0301253)
(0.00379195 0.000259485 0.0311153)
(0.00479075 0.000278776 0.0323442)
(0.00604187 0.000305584 0.0338525)
(0.0076455 0.000354607 0.03569)
(0.00022512 0.000685115 0.0280251)
(0.000683208 0.000683202 0.028156)
(0.00116453 0.000685709 0.0284267)
(0.00168701 0.000695953 0.0288449)
(0.00227193 0.000714637 0.0294226)
(0.002946 0.000742981 0.0301765)
(0.00374431 0.000782913 0.0311294)
(0.00471449 0.000837431 0.0323105)
(0.00592189 0.000911215 0.0337574)
(0.00746421 0.00103985 0.0355158)
(0.000226032 0.0011691 0.0283079)
(0.000685712 0.00116453 0.0284266)
(0.00116717 0.00116717 0.0286826)
(0.00168792 0.00118259 0.0290826)
(0.00226836 0.00121184 0.0296378)
(0.002934 0.00125674 0.0303638)
(0.00371808 0.00132019 0.0312816)
(0.00466542 0.00140658 0.0324186)
(0.00583619 0.00152236 0.0338093)
(0.00732692 0.00172185 0.0354957)
(0.000229526 0.0016962 0.0287428)
(0.000695952 0.00168701 0.0288449)
(0.00118259 0.00168791 0.0290825)
(0.00170682 0.00170681 0.0294622)
(0.00228841 0.00174499 0.0299939)
(0.00295197 0.00180473 0.0306921)
(0.0037293 0.0018897 0.0315763)
(0.00466294 0.00200537 0.0326718)
(0.00580831 0.00215951 0.0340107)
(0.00726559 0.00242494 0.035631)
(0.000235889 0.00228873 0.0293426)
(0.000714635 0.00227193 0.0294226)
(0.00121183 0.00226836 0.0296377)
(0.00174499 0.00228841 0.0299939)
(0.00233346 0.00233345 0.0305001)
(0.00300123 0.00240613 0.0311696)
(0.003779 0.00251069 0.0320205)
(0.00470748 0.00265351 0.033076)
(0.00583782 0.00284336 0.034366)
(0.00727949 0.00317208 0.0359246)
(0.000245611 0.0029749 0.0301253)
(0.000742979 0.002946 0.0301765)
(0.00125674 0.002934 0.0303638)
(0.00180473 0.00295197 0.030692)
(0.00240613 0.00300122 0.0311696)
(0.0030846 0.00308459 0.0318084)
(0.00387007 0.00320682 0.032625)
(0.00480176 0.00337501 0.0336407)
(0.00592697 0.00359878 0.034883)
(0.00737049 0.00398984 0.0363825)
(0.000259485 0.00379195 0.0311153)
(0.000782911 0.00374431 0.0311294)
(0.00132019 0.00371808 0.0312816)
(0.00188969 0.0037293 0.0315763)
(0.00251069 0.00377899 0.0320204)
(0.00320682 0.00387005 0.0326249)
(0.00400759 0.00400759 0.0334047)
(0.0049511 0.00419936 0.0343792)
(0.00608091 0.00445569 0.0355733)
(0.00754358 0.00490948 0.0370144)
(0.000278776 0.00479075 0.0323442)
(0.000837431 0.00471449 0.0323105)
(0.00140658 0.00466542 0.0324186)
(0.00200537 0.00466294 0.0326718)
(0.0026535 0.00470748 0.033076)
(0.003375 0.00480175 0.0336406)
(0.00419935 0.00495108 0.0343791)
(0.0051639 0.0051639 0.0353088)
(0.00630845 0.00545141 0.036452)
(0.00780766 0.00596954 0.0378332)
(0.000305584 0.00604187 0.0338525)
(0.000911215 0.00592189 0.0337574)
(0.00152236 0.00583619 0.0338093)
(0.00215951 0.00580831 0.0340107)
(0.00284336 0.00583783 0.034366)
(0.00359877 0.00592696 0.034883)
(0.00445568 0.0060809 0.0355732)
(0.0054514 0.00630844 0.036452)
(0.00662198 0.00662198 0.0375391)
(0.00817856 0.00720897 0.0388549)
(0.000354608 0.00764549 0.03569)
(0.00103985 0.00746421 0.0355158)
(0.00172185 0.00732692 0.0354957)
(0.00242494 0.00726559 0.035631)
(0.00317208 0.00727949 0.0359246)
(0.00398984 0.00737049 0.0363826)
(0.00490948 0.00754359 0.0370144)
(0.00596954 0.00780765 0.0378332)
(0.00720896 0.00817854 0.0388549)
(0.00881352 0.00881352 0.0400984)
(0.000336217 0.000336216 0.0258013)
(0.00101911 0.000334911 0.0258957)
(0.00173345 0.000335264 0.0260861)
(0.00250243 0.000338862 0.0263747)
(0.00335302 0.000345962 0.0267642)
(0.00431763 0.000357009 0.0272571)
(0.00543672 0.000372711 0.0278552)
(0.00676169 0.000394155 0.0285575)
(0.00835792 0.000423066 0.0293571)
(0.0103086 0.000475476 0.0302361)
(0.000334911 0.00101911 0.0258957)
(0.00101488 0.00101487 0.0259842)
(0.00172454 0.00101563 0.0261657)
(0.00248629 0.00102609 0.026442)
(0.00332578 0.00104685 0.0268158)
(0.00427381 0.00107897 0.0272893)
(0.00536854 0.0011241 0.0278642)
(0.00665842 0.00118472 0.0285397)
(0.00820433 0.00126451 0.0293098)
(0.0100893 0.00140241 0.0301583)
(0.000335264 0.00173344 0.0260861)
(0.00101563 0.00172453 0.0261656)
(0.00172366 0.00172366 0.0263355)
(0.00248118 0.00173872 0.0265973)
(0.00331271 0.00177057 0.026953)
(0.00424754 0.00182074 0.0274049)
(0.00532182 0.00189166 0.0279544)
(0.00658117 0.00198685 0.0286003)
(0.00808152 0.00211112 0.0293373)
(0.00990641 0.00232425 0.0301501)
(0.000338862 0.00250244 0.0263747)
(0.00102609 0.00248628 0.026442)
(0.00173872 0.00248118 0.0265972)
(0.00249834 0.00249833 0.0268417)
(0.00332852 0.00253872 0.027177)
(0.00425737 0.00260419 0.0276049)
(0.00531931 0.00269771 0.0281262)
(0.00655743 0.00282354 0.0287398)
(0.00802281 0.00298718 0.02944)
(0.00980381 0.00326893 0.0302124)
(0.000345962 0.00335302 0.0267642)
(0.00104685 0.00332578 0.0268158)
(0.00177056 0.0033127 0.026953)
(0.00253871 0.00332851 0.027177)
(0.00337415 0.00337415 0.0274889)
(0.00430402 0.00345162 0.0278898)
(0.00536124 0.00356421 0.0283801)
(0.00658671 0.00371669 0.0289579)
(0.00802683 0.00391499 0.0296175)
(0.00978 0.00426012 0.0303446)
(0.000357009 0.00431763 0.0272571)
(0.00107897 0.00427381 0.0272893)
(0.00182074 0.00424754 0.0274049)
(0.00260419 0.00425737 0.0276048)
(0.00345161 0.004304 0.0278897)
(0.00438946 0.00438946 0.0282603)
(0.00544943 0.00451717 0.0287159)
(0.00667041 0.0046922 0.0292541)
(0.00809421 0.00492066 0.0298685)
(0.0098349 0.00532468 0.0305449)
(0.000372711 0.00543672 0.0278552)
(0.0011241 0.00536854 0.0278642)
(0.00189166 0.00532183 0.0279544)
(0.00269771 0.00531931 0.0281262)
(0.00356421 0.00536123 0.02838)
(0.00451716 0.0054494 0.0287158)
(0.00558731 0.00558731 0.0291323)
(0.00681177 0.00578015 0.0296262)
(0.0082277 0.00603397 0.03019)
(0.00997021 0.00649254 0.0308095)
(0.000394155 0.00676169 0.0285575)
(0.00118472 0.00665842 0.0285397)
(0.00198685 0.00658117 0.0286004)
(0.00282354 0.00655743 0.0287398)
(0.00371669 0.00658671 0.0289579)
(0.00469219 0.00667038 0.029254)
(0.00578012 0.00681175 0.029626)
(0.00701608 0.00701609 0.0300696)
(0.00843234 0.00728952 0.0305765)
(0.0101897 0.00779812 0.0311319)
(0.000423066 0.00835791 0.0293571)
(0.00126451 0.00820433 0.0293099)
(0.00211112 0.00808152 0.0293373)
(0.00298718 0.00802281 0.02944)
(0.003915 0.00802683 0.0296175)
(0.00492066 0.0080942 0.0298685)
(0.00603395 0.00822768 0.0301899)
(0.0072895 0.00843233 0.0305764)
(0.00871458 0.00871459 0.0310185)
(0.0105014 0.00926989 0.0315008)
(0.000475476 0.0103086 0.0302361)
(0.00140241 0.0100893 0.0301583)
(0.00232425 0.00990641 0.0301501)
(0.00326894 0.0098038 0.0302124)
(0.00426013 0.00978 0.0303446)
(0.00532468 0.0098349 0.0305449)
(0.00649254 0.00997021 0.0308095)
(0.00779812 0.0101897 0.0311319)
(0.00926987 0.0105013 0.0315007)
(0.0110611 0.0110611 0.0318997)
(0.000400446 0.000400447 0.0230682)
(0.00121139 0.000398171 0.0231134)
(0.00205221 0.000397095 0.0232027)
(0.00294425 0.000399013 0.0233333)
(0.00391112 0.000404042 0.0234999)
(0.00497949 0.000412403 0.0236934)
(0.00617998 0.000424448 0.0239001)
(0.00754784 0.000440709 0.0240985)
(0.00912238 0.00046201 0.0242559)
(0.0109457 0.000501791 0.0243229)
(0.000398169 0.00121139 0.0231134)
(0.00120427 0.00120428 0.0231554)
(0.00203849 0.00120077 0.0232396)
(0.0029214 0.00120621 0.0233633)
(0.0038755 0.00122082 0.0235215)
(0.00492611 0.00124503 0.023706)
(0.00610231 0.00127958 0.0239039)
(0.00743758 0.00132553 0.0240953)
(0.00896891 0.00138444 0.0242503)
(0.0107403 0.00148897 0.0243238)
(0.000397094 0.00205221 0.0232027)
(0.00120076 0.00203849 0.0232396)
(0.0020304 0.0020304 0.0233165)
(0.00290601 0.0020369 0.0234307)
(0.00384899 0.00205824 0.0235774)
(0.00488341 0.00209501 0.0237489)
(0.00603677 0.00214817 0.023933)
(0.00734072 0.00221912 0.0241111)
(0.00882912 0.00230951 0.0242555)
(0.010548 0.00246984 0.0243248)
(0.000399012 0.00294424 0.0233333)
(0.0012062 0.0029214 0.0233633)
(0.00203689 0.00290601 0.0234307)
(0.00291081 0.00291081 0.0235328)
(0.00384833 0.00293597 0.023665)
(0.00487239 0.00298209 0.0238197)
(0.00600906 0.00305025 0.0239854)
(0.00728819 0.00314194 0.0241445)
(0.00874024 0.00325867 0.0242711)
(0.010416 0.00346847 0.0243267)
(0.000404042 0.00391112 0.0234999)
(0.00122082 0.00387549 0.0235215)
(0.00205824 0.00384899 0.0235774)
(0.00293596 0.00384832 0.0236649)
(0.00387348 0.00387348 0.0237796)
(0.00489271 0.00392495 0.023914)
(0.00601839 0.00400374 0.024057)
(0.0072786 0.00411132 0.0241917)
(0.00870028 0.0042489 0.0242936)
(0.0103426 0.00450194 0.0243271)
(0.000412403 0.00497949 0.0236934)
(0.00124504 0.00492611 0.023706)
(0.00209501 0.00488341 0.0237489)
(0.00298209 0.00487238 0.0238196)
(0.00392494 0.0048927 0.023914)
(0.00494463 0.00494464 0.0240247)
(0.00606466 0.00502901 0.0241408)
(0.00731138 0.00514708 0.0242459)
(0.0087081 0.00529966 0.0243168)
(0.0103261 0.00558952 0.0243202)
(0.000424448 0.00617998 0.0239001)
(0.00127958 0.00610231 0.0239039)
(0.00214817 0.00603677 0.023933)
(0.00305025 0.00600906 0.0239854)
(0.00400374 0.00601837 0.0240569)
(0.00502899 0.00606464 0.0241406)
(0.00614842 0.00614842 0.0242259)
(0.00738671 0.00627071 0.0242968)
(0.00876331 0.00643171 0.0243306)
(0.0103648 0.00675131 0.0242966)
(0.00044071 0.00754783 0.0240985)
(0.00132554 0.00743758 0.0240953)
(0.00221912 0.00734072 0.0241111)
(0.00314194 0.00728819 0.0241445)
(0.00411132 0.00727859 0.0241917)
(0.00514706 0.00731135 0.0242458)
(0.00627067 0.00738668 0.0242967)
(0.00750531 0.00750531 0.0243287)
(0.00886623 0.00766704 0.02432)
(0.0104574 0.00800846 0.0242419)
(0.00046201 0.00912238 0.0242559)
(0.00138444 0.00896891 0.0242503)
(0.00230951 0.00882912 0.0242556)
(0.00325868 0.00874024 0.0242711)
(0.00424891 0.00870028 0.0242936)
(0.00529966 0.00870809 0.0243168)
(0.00643169 0.00876329 0.0243306)
(0.00766702 0.00886622 0.02432)
(0.00901666 0.00901667 0.0242639)
(0.0106043 0.00937245 0.0241355)
(0.000501791 0.0109457 0.0243229)
(0.00148897 0.0107403 0.0243238)
(0.00246984 0.010548 0.0243248)
(0.00346847 0.010416 0.0243267)
(0.00450195 0.0103426 0.0243271)
(0.00558953 0.0103261 0.0243202)
(0.00675131 0.0103648 0.0242966)
(0.00800845 0.0104574 0.0242419)
(0.00937244 0.0106043 0.0241354)
(0.0109273 0.0109273 0.0239509)
(0.000420279 0.00042028 0.0200235)
(0.00126869 0.000417083 0.020026)
(0.00214008 0.00041429 0.0200283)
(0.00305018 0.000413711 0.0200252)
(0.00401544 0.000415325 0.0200076)
(0.00505278 0.000419133 0.0199617)
(0.00617945 0.00042516 0.0198682)
(0.00741227 0.000433461 0.0197002)
(0.00876547 0.000444154 0.0194212)
(0.0102476 0.000467159 0.0189821)
(0.00041708 0.00126869 0.0200259)
(0.00125891 0.00125891 0.0200277)
(0.00212224 0.00125035 0.0200287)
(0.00302228 0.00124842 0.0200239)
(0.00397465 0.00125299 0.0200047)
(0.00499552 0.00126391 0.0199586)
(0.0061014 0.00128111 0.0198676)
(0.00730856 0.00130451 0.0197069)
(0.00863067 0.00133406 0.0194425)
(0.010079 0.00139383 0.0190294)
(0.000414288 0.00214008 0.0200283)
(0.00125035 0.00212224 0.0200287)
(0.00210603 0.00210603 0.020027)
(0.00299613 0.00210054 0.0200183)
(0.00393541 0.00210547 0.0199947)
(0.00493921 0.00212055 0.0199444)
(0.0060232 0.00214551 0.0198508)
(0.00720289 0.00218005 0.0196907)
(0.0084907 0.00222358 0.0194329)
(0.00990011 0.00231361 0.0190358)
(0.000413711 0.00305018 0.0200252)
(0.00124842 0.00302227 0.0200238)
(0.00210053 0.00299612 0.0200182)
(0.00298463 0.00298463 0.0200039)
(0.00391461 0.00298729 0.0199733)
(0.00490499 0.00300362 0.0199155)
(0.00597059 0.00303315 0.0198148)
(0.00712607 0.00307525 0.0196497)
(0.00838211 0.0031287 0.0193912)
(0.009756 0.00324418 0.0190012)
(0.000415325 0.00401544 0.0200076)
(0.00125299 0.00397465 0.0200047)
(0.00210546 0.0039354 0.0199946)
(0.00298728 0.0039146 0.0199732)
(0.00391149 0.00391149 0.0199336)
(0.00489183 0.00392534 0.0198654)
(0.00594221 0.00395536 0.0197539)
(0.00707636 0.0040006 0.019579)
(0.00830299 0.00405919 0.0193137)
(0.00964523 0.00419473 0.0189232)
(0.000419133 0.00505277 0.0199617)
(0.00126391 0.00499552 0.0199586)
(0.00212055 0.0049392 0.0199444)
(0.00300362 0.00490498 0.0199154)
(0.00392533 0.00489182 0.0198654)
(0.00489868 0.00489868 0.0197846)
(0.00593671 0.00492447 0.0196592)
(0.00705209 0.00496781 0.0194705)
(0.00825139 0.00502621 0.0191933)
(0.00956551 0.0051758 0.0187959)
(0.00042516 0.00617945 0.0198682)
(0.00128111 0.0061014 0.0198676)
(0.00214551 0.0060232 0.0198508)
(0.00303315 0.00597059 0.0198148)
(0.00395536 0.0059422 0.0197538)
(0.00492445 0.00593669 0.0196592)
(0.00595264 0.00595265 0.0195179)
(0.00705155 0.00598832 0.0193124)
(0.00822527 0.00604055 0.0190193)
(0.00951395 0.0061974 0.01861)
(0.000433462 0.00741227 0.0197002)
(0.00130451 0.00730856 0.0197069)
(0.00218006 0.00720289 0.0196908)
(0.00307525 0.00712607 0.0196497)
(0.0040006 0.00707635 0.0195789)
(0.00496779 0.00705207 0.0194704)
(0.00598829 0.00705152 0.0193123)
(0.00707269 0.0070727 0.0190883)
(0.00822241 0.00711204 0.0187768)
(0.00948708 0.00726866 0.0183518)
(0.000444155 0.00876547 0.0194212)
(0.00133406 0.00863067 0.0194425)
(0.00222358 0.00849069 0.0194329)
(0.00312871 0.00838211 0.0193912)
(0.0040592 0.00830299 0.0193137)
(0.00502621 0.00825138 0.0191933)
(0.00604054 0.00822525 0.0190193)
(0.00711203 0.0082224 0.0187768)
(0.00823932 0.00823933 0.0184457)
(0.00948171 0.00838874 0.0180031)
(0.00046716 0.0102476 0.0189821)
(0.00139383 0.010079 0.0190295)
(0.00231361 0.00990011 0.0190358)
(0.00324418 0.009756 0.0190012)
(0.00419474 0.00964523 0.0189232)
(0.00517581 0.00956551 0.0187959)
(0.0061974 0.00951394 0.01861)
(0.00726865 0.00948707 0.0183518)
(0.00838873 0.0094817 0.0180031)
(0.00958393 0.00958393 0.017542)
(0.000405626 0.000405628 0.0169599)
(0.00122194 0.000401786 0.0169318)
(0.0020527 0.000397548 0.0168728)
(0.00290726 0.000394624 0.0167772)
(0.00379458 0.000392916 0.0166359)
(0.00472263 0.000392298 0.0164357)
(0.00569767 0.000392619 0.0161592)
(0.00672314 0.000393689 0.0157836)
(0.00779758 0.000395288 0.0152803)
(0.00891186 0.000404333 0.0146142)
(0.000401783 0.00122195 0.0169318)
(0.00121035 0.00121036 0.016905)
(0.00203232 0.0011976 0.0168477)
(0.00287677 0.0011888 0.0167544)
(0.00375222 0.00118365 0.0166168)
(0.00466633 0.00118171 0.0164227)
(0.00562525 0.0011825 0.0161559)
(0.00663264 0.0011854 0.0157953)
(0.00768742 0.00118966 0.0153144)
(0.00878266 0.00121201 0.0146806)
(0.000397546 0.0020527 0.0168728)
(0.00119759 0.00203232 0.0168476)
(0.00200964 0.00200965 0.0167915)
(0.00284259 0.00199329 0.0166994)
(0.0037044 0.00198271 0.0165636)
(0.00460233 0.00197719 0.0163728)
(0.0055423 0.0019759 0.016112)
(0.006528 0.00197776 0.0157616)
(0.00755824 0.00198131 0.0152972)
(0.00862788 0.00201281 0.0146889)
(0.000394624 0.00290725 0.0167772)
(0.0011888 0.00287676 0.0167544)
(0.00199329 0.00284258 0.0166994)
(0.00281691 0.00281691 0.0166078)
(0.00366703 0.00279895 0.0164722)
(0.00455047 0.00278775 0.0162824)
(0.00547282 0.00278212 0.0160245)
(0.00643765 0.00278053 0.0156805)
(0.00744324 0.00278082 0.0152277)
(0.00848689 0.00281854 0.0146388)
(0.000392916 0.00379458 0.0166359)
(0.00118365 0.00375222 0.0166168)
(0.0019827 0.00370439 0.0165635)
(0.00279895 0.00366702 0.0164722)
(0.00363911 0.00363912 0.0163361)
(0.00450954 0.00361942 0.0161459)
(0.00541542 0.00360642 0.0158886)
(0.00636007 0.0035982 0.0155478)
(0.00734102 0.00359194 0.0151027)
(0.00835892 0.00363222 0.0145286)
(0.000392299 0.00472263 0.0164357)
(0.00118172 0.00466633 0.0164227)
(0.00197719 0.00460233 0.0163728)
(0.00278775 0.00455046 0.0162824)
(0.00361941 0.00450954 0.0161458)
(0.00447806 0.00447806 0.0159545)
(0.00536843 0.00445422 0.0156966)
(0.00629348 0.00443572 0.015357)
(0.00724976 0.00441918 0.0149168)
(0.00824211 0.00445774 0.0143538)
(0.000392619 0.00569767 0.0161592)
(0.0011825 0.00562525 0.0161559)
(0.0019759 0.0055423 0.016112)
(0.00278212 0.00547281 0.0160245)
(0.00360641 0.00541541 0.0158886)
(0.00445421 0.00536842 0.0156965)
(0.00532979 0.0053298 0.0154379)
(0.00623568 0.00529698 0.0150987)
(0.00716723 0.00526606 0.0146618)
(0.00813383 0.00529806 0.0141077)
(0.000393689 0.00672314 0.0157836)
(0.0011854 0.00663263 0.0157953)
(0.00197776 0.006528 0.0157616)
(0.00278053 0.00643765 0.0156805)
(0.0035982 0.00636007 0.0155478)
(0.00443571 0.00629346 0.015357)
(0.00529695 0.00623567 0.0150987)
(0.00618401 0.00618402 0.0147605)
(0.00709079 0.00613438 0.0143269)
(0.00803073 0.00615471 0.0137809)
(0.000395289 0.00779758 0.0152803)
(0.00118967 0.00768741 0.0153144)
(0.00198131 0.00755824 0.0152972)
(0.00278083 0.00744324 0.0152277)
(0.00359194 0.00734102 0.0151027)
(0.00441919 0.00724975 0.0149168)
(0.00526605 0.00716722 0.0146618)
(0.00613437 0.00709078 0.0143269)
(0.00701658 0.00701659 0.0138983)
(0.00792936 0.00702084 0.0133613)
(0.000404333 0.00891187 0.0146142)
(0.00121201 0.00878266 0.0146806)
(0.00201281 0.00862788 0.0146889)
(0.00281855 0.00848689 0.0146389)
(0.00363222 0.00835892 0.0145286)
(0.00445774 0.00824211 0.0143538)
(0.00529806 0.00813383 0.0141077)
(0.0061547 0.00803073 0.0137809)
(0.00702083 0.00792935 0.0133613)
(0.00788843 0.00788843 0.0128353)
(0.000369017 0.000369019 0.0140867)
(0.0011096 0.000364902 0.014041)
(0.00185705 0.000359791 0.0139471)
(0.00261536 0.000355234 0.0138006)
(0.00338774 0.000351117 0.0135942)
(0.00417582 0.000347283 0.013318)
(0.00497908 0.000343539 0.0129594)
(0.00579383 0.000339642 0.0125032)
(0.00661181 0.000335308 0.0119314)
(0.00741843 0.000335311 0.0112243)
(0.0003649 0.0011096 0.014041)
(0.00109729 0.0010973 0.0139979)
(0.00183594 0.00108205 0.0139077)
(0.00258479 0.00106851 0.0137662)
(0.00334688 0.00105636 0.0135667)
(0.00412384 0.00104512 0.0133002)
(0.00491537 0.00103424 0.0129548)
(0.00571832 0.00102306 0.0125165)
(0.00652511 0.00101077 0.0119685)
(0.00732252 0.00100883 0.0112923)
(0.000359789 0.00185705 0.0139471)
(0.00108204 0.00183594 0.0139077)
(0.00180968 0.00180968 0.0138216)
(0.00254666 0.00178608 0.013685)
(0.00329573 0.00176458 0.0134917)
(0.00405847 0.00174445 0.0132334)
(0.00483469 0.0017248 0.0128993)
(0.00562167 0.00170452 0.0124764)
(0.00641219 0.00168219 0.0119491)
(0.00719406 0.00167597 0.0113006)
(0.000355234 0.00261536 0.0138006)
(0.00106851 0.00258479 0.0137662)
(0.00178607 0.00254666 0.013685)
(0.00251197 0.00251198 0.0135534)
(0.00324862 0.00248002 0.013366)
(0.00399746 0.00244982 0.0131151)
(0.00475833 0.00242016 0.0127909)
(0.00552878 0.00238956 0.0123814)
(0.00630171 0.00235603 0.0118724)
(0.00706604 0.00234418 0.0112487)
(0.000351117 0.00338774 0.0135942)
(0.00105636 0.00334687 0.0135667)
(0.00176457 0.00329572 0.0134917)
(0.00248002 0.00324862 0.013366)
(0.00320468 0.00320468 0.0131847)
(0.00393983 0.00316273 0.012941)
(0.00468525 0.00312131 0.0126259)
(0.00543866 0.00307859 0.0122287)
(0.00619287 0.00303212 0.0117364)
(0.00693829 0.0030127 0.0111353)
(0.000347284 0.00417582 0.013318)
(0.00104512 0.00412384 0.0133002)
(0.00174446 0.00405847 0.0132334)
(0.00244982 0.00399746 0.013115)
(0.00316273 0.00393983 0.0129409)
(0.00388425 0.00388425 0.012705)
(0.00461406 0.00382907 0.0123993)
(0.00534995 0.00377222 0.0120139)
(0.00608445 0.00371083 0.0115376)
(0.00680971 0.0036815 0.0109581)
(0.000343539 0.00497908 0.0129594)
(0.00103424 0.00491537 0.0129548)
(0.00172481 0.00483469 0.0128993)
(0.00242017 0.00475833 0.0127909)
(0.0031213 0.00468525 0.0126259)
(0.00382906 0.00461406 0.0123992)
(0.004543 0.004543 0.0121039)
(0.00526088 0.00446988 0.0117312)
(0.0059748 0.00439152 0.011271)
(0.00667853 0.00434968 0.0107129)
(0.000339642 0.00579383 0.0125032)
(0.00102306 0.00571832 0.0125165)
(0.00170452 0.00562167 0.0124764)
(0.00238957 0.00552878 0.0123814)
(0.0030786 0.00543866 0.0122286)
(0.00377221 0.00534994 0.0120139)
(0.00446987 0.00526087 0.0117312)
(0.0051693 0.0051693 0.011373)
(0.00586194 0.00507199 0.0109304)
(0.00654251 0.0050151 0.0103947)
(0.000335308 0.00661181 0.0119314)
(0.00101077 0.00652511 0.0119685)
(0.00168219 0.00641219 0.0119491)
(0.00235603 0.00630171 0.0118724)
(0.00303212 0.00619287 0.0117364)
(0.00371083 0.00608444 0.0115376)
(0.00439151 0.00597479 0.011271)
(0.00507198 0.00586194 0.0109304)
(0.00574303 0.00574303 0.0105081)
(0.00639929 0.00566933 0.00999698)
(0.000335312 0.00741843 0.0112243)
(0.00100883 0.00732252 0.0112924)
(0.00167597 0.00719406 0.0113006)
(0.00234418 0.00706604 0.0112487)
(0.0030127 0.00693829 0.0111353)
(0.00368151 0.0068097 0.0109581)
(0.00434968 0.00667853 0.0107129)
(0.0050151 0.0065425 0.0103947)
(0.00566932 0.00639929 0.00999697)
(0.00628945 0.00628945 0.00951329)
(0.000321731 0.000321733 0.0115247)
(0.000965888 0.000317682 0.0114721)
(0.00161142 0.000312299 0.0113649)
(0.00225866 0.000306947 0.0112002)
(0.00290714 0.000301532 0.0109732)
(0.00355495 0.000295923 0.0106778)
(0.00419834 0.000289959 0.0103065)
(0.00483108 0.000283444 0.00985078)
(0.00544364 0.000276155 0.00930174)
(0.0060224 0.000271462 0.0086509)
(0.00031768 0.000965889 0.011472)
(0.000953856 0.00095386 0.0114226)
(0.00159115 0.000937889 0.0113201)
(0.00222998 0.000922085 0.0111618)
(0.00286988 0.000906192 0.0109433)
(0.00350913 0.000889852 0.0106588)
(0.00414429 0.00087263 0.0103016)
(0.0047697 0.000854026 0.00986358)
(0.00537647 0.000833467 0.00933644)
(0.00595157 0.000818973 0.00871214)
(0.000312298 0.00161142 0.0113649)
(0.000937885 0.00159115 0.0113201)
(0.00156416 0.00156416 0.0112234)
(0.0021917 0.00153733 0.011072)
(0.00281996 0.00151024 0.0108622)
(0.00344733 0.00148236 0.0105886)
(0.00407065 0.00145298 0.010245)
(0.00468477 0.0014213 0.00982405)
(0.00528128 0.00138633 0.00931801)
(0.00584746 0.00136086 0.00871946)
(0.000306947 0.00225866 0.0112001)
(0.000922083 0.00222997 0.0111618)
(0.00153732 0.0021917 0.011072)
(0.00215348 0.00215348 0.0109286)
(0.00276986 0.00211481 0.010728)
(0.0033849 0.00207496 0.0104655)
(0.00399566 0.00203305 0.0101354)
(0.00459739 0.001988 0.00973117)
(0.00518199 0.00193844 0.00924569)
(0.00573696 0.00190173 0.00867231)
(0.000301532 0.00290714 0.0109732)
(0.000906192 0.00286988 0.0109432)
(0.00151024 0.00281996 0.0108622)
(0.0021148 0.00276986 0.010728)
(0.00271898 0.00271898 0.0105376)
(0.00332122 0.0026665 0.0102869)
(0.00391872 0.00261136 0.00997076)
(0.00450708 0.00255228 0.00958341)
(0.00507834 0.00248761 0.00911848)
(0.0056203 0.00243904 0.00857012)
(0.000295923 0.00355495 0.0106778)
(0.000889852 0.00350913 0.0106588)
(0.00148236 0.00344733 0.0105886)
(0.00207496 0.0033849 0.0104655)
(0.00266649 0.00332122 0.0102869)
(0.0032554 0.0032554 0.0100492)
(0.00383897 0.0031863 0.00974813)
(0.00441304 0.00311251 0.00937843)
(0.00496972 0.00303214 0.00893461)
(0.00549707 0.00297088 0.00841169)
(0.00028996 0.00419834 0.0103065)
(0.000872631 0.00414429 0.0103016)
(0.00145298 0.00407065 0.010245)
(0.00203305 0.00399566 0.0101354)
(0.00261135 0.00391872 0.00997075)
(0.00318629 0.00383896 0.00974811)
(0.00375524 0.00375524 0.00946372)
(0.00431423 0.00366613 0.00911316)
(0.00485524 0.00356957 0.00869167)
(0.00536643 0.00349476 0.0081952)
(0.000283444 0.00483108 0.00985078)
(0.000854027 0.0047697 0.00986358)
(0.0014213 0.00468477 0.00982405)
(0.001988 0.00459739 0.00973117)
(0.00255229 0.00450707 0.0095834)
(0.00311251 0.00441303 0.00937842)
(0.00366612 0.00431422 0.00911314)
(0.00420931 0.00420931 0.00878389)
(0.00473383 0.00409632 0.00838671)
(0.00522723 0.00400735 0.00791841)
(0.000276155 0.00544364 0.00930174)
(0.000833467 0.00537647 0.00933644)
(0.00138633 0.00528128 0.00931801)
(0.00193844 0.00518199 0.00924569)
(0.00248761 0.00507834 0.00911848)
(0.00303214 0.00496972 0.0089346)
(0.00356956 0.00485524 0.00869166)
(0.00409631 0.00473383 0.0083867)
(0.00460388 0.00460388 0.00801653)
(0.00507842 0.00450086 0.00757875)
(0.000271462 0.0060224 0.0086509)
(0.000818974 0.00595157 0.00871214)
(0.00136086 0.00584746 0.00871946)
(0.00190173 0.00573696 0.00867231)
(0.00243904 0.0056203 0.00857012)
(0.00297088 0.00549707 0.00841169)
(0.00349476 0.00536642 0.0081952)
(0.00400735 0.00522723 0.0079184)
(0.00450085 0.00507842 0.00757874)
(0.00494911 0.00494911 0.00717416)
(0.000272043 0.000272045 0.00932255)
(0.000815672 0.000268302 0.00927008)
(0.00135734 0.000263121 0.00916399)
(0.00189528 0.000257668 0.00900262)
(0.00242711 0.000251886 0.0087834)
(0.00294942 0.000245688 0.00850315)
(0.0034575 0.000238969 0.00815828)
(0.00394505 0.000231604 0.0077452)
(0.00440381 0.000223461 0.0072608)
(0.00482322 0.000217002 0.00670317)
(0.000268301 0.000815673 0.00927006)
(0.000804609 0.000804611 0.00922098)
(0.00133893 0.000789295 0.00911989)
(0.00186966 0.000773255 0.00896521)
(0.00239454 0.00075634 0.00875463)
(0.00291036 0.000738334 0.00848521)
(0.00341274 0.000718975 0.00815364)
(0.00389586 0.000697972 0.00775652)
(0.00435191 0.000675014 0.00729089)
(0.00477043 0.000655915 0.00675484)
(0.00026312 0.00135734 0.00916398)
(0.000789293 0.00133893 0.00911988)
(0.00131336 0.00131336 0.00902512)
(0.00183397 0.00128653 0.00887826)
(0.00234889 0.00125821 0.00867721)
(0.00285511 0.00122806 0.00841934)
(0.00334854 0.00119567 0.00810164)
(0.00382382 0.0011606 0.00772102)
(0.00427355 0.00112228 0.0072747)
(0.00468712 0.00109005 0.00676093)
(0.000257668 0.00189528 0.00900261)
(0.000773253 0.00186966 0.0089652)
(0.00128653 0.00183397 0.00887825)
(0.00179645 0.00179645 0.00874047)
(0.00230076 0.00175681 0.00855003)
(0.00279659 0.00171465 0.00830461)
(0.00328012 0.00166944 0.00800154)
(0.0037464 0.00162058 0.00763807)
(0.00418829 0.00156733 0.00721171)
(0.00459487 0.0015223 0.00672092)
(0.000251886 0.00242711 0.0087834)
(0.00075634 0.00239454 0.00875463)
(0.0012582 0.00234889 0.0086772)
(0.00175681 0.00230076 0.00855003)
(0.00224984 0.00224984 0.00837155)
(0.00273453 0.00219568 0.00813977)
(0.00320729 0.00213768 0.00785239)
(0.00366349 0.00207516 0.00750702)
(0.00409622 0.00200719 0.00710151)
(0.00449416 0.00194956 0.00663461)
(0.000245688 0.00294942 0.00850315)
(0.000738334 0.00291036 0.00848521)
(0.00122806 0.0028551 0.00841934)
(0.00171464 0.00279658 0.0083046)