/*--------------------------------*- C++ -*----------------------------------*\
| =========                 |                                                 |
| \\      /  F ield         | foam-extend: Open Source CFD                    |
|  \\    /   O peration     | Version:     3.1                                |
|   \\  /    A nd           | Web:         http://www.extend-project.de       |
|    \\/     M anipulation  |                                                 |
\*---------------------------------------------------------------------------*/
FoamFile
{
    version     2.0;
    format      ascii;
    class       volVectorField;
    location    "2.7";
    object      cellMotionU;
}
// * * * * * * * * * * * * * * * * * * * * * * * * * * * * * * * * * * * * * //

dimensions      [0 1 -1 0 0 0 0];

internalField   nonuniform List<vector> 
14592
(
(-1.98696e-12 -1.62064e-13 4.62333e-13)
(-5.77522e-12 -5.01108e-13 1.36825e-12)
(-9.28357e-12 -9.06827e-13 2.27762e-12)
(-1.26679e-11 -1.45564e-12 3.26357e-12)
(-1.60856e-11 -2.24254e-12 4.39499e-12)
(-1.97075e-11 -3.39637e-12 5.74004e-12)
(-2.37268e-11 -5.09729e-12 7.36651e-12)
(-2.83572e-11 -7.59999e-12 9.33639e-12)
(-3.38147e-11 -1.12535e-11 1.16895e-11)
(-4.02522e-11 -1.65167e-11 1.44075e-11)
(-4.76158e-11 -2.39375e-11 1.73376e-11)
(-5.53667e-11 -3.40432e-11 2.00427e-11)
(-6.20337e-11 -4.70488e-11 2.15142e-11)
(-6.47221e-11 -6.22507e-11 1.96654e-11)
(-5.93726e-11 -7.70765e-11 1.08272e-11)
(-4.56473e-11 -8.61567e-11 -6.82759e-12)
(-5.91074e-12 -4.58286e-13 1.36724e-12)
(-1.71788e-11 -1.41781e-12 4.04585e-12)
(-2.7612e-11 -2.56554e-12 6.73339e-12)
(-3.76704e-11 -4.11832e-12 9.64507e-12)
(-4.78208e-11 -6.34408e-12 1.29836e-11)
(-5.85741e-11 -9.60489e-12 1.69504e-11)
(-7.05146e-11 -1.44098e-11 2.17483e-11)
(-8.43091e-11 -2.14776e-11 2.75677e-11)
(-1.00672e-10 -3.18011e-11 3.45476e-11)
(-1.20211e-10 -4.67082e-11 4.26838e-11)
(-1.4308e-10 -6.78316e-11 5.16396e-11)
(-1.68251e-10 -9.68929e-11 6.03839e-11)
(-1.92302e-10 -1.35009e-10 6.65312e-11)
(-2.07943e-10 -1.81161e-10 6.53206e-11)
(-2.04225e-10 -2.29362e-10 4.9041e-11)
(-1.78006e-10 -2.63518e-10 1.53725e-11)
(-9.71872e-12 -6.79504e-13 2.22222e-12)
(-2.8241e-11 -2.10173e-12 6.57354e-12)
(-4.53733e-11 -3.80361e-12 1.09336e-11)
(-6.18658e-11 -6.10532e-12 1.56483e-11)
(-7.84823e-11 -9.40134e-12 2.10442e-11)
(-9.60674e-11 -1.42231e-11 2.74476e-11)
(-1.15605e-10 -2.13205e-11 3.51921e-11)
(-1.38272e-10 -3.17457e-11 4.4605e-11)
(-1.6542e-10 -4.69792e-11 5.59644e-11)
(-1.98464e-10 -6.90255e-11 6.93877e-11)
(-2.38487e-10 -1.00482e-10 8.46151e-11)
(-2.85377e-10 -1.44386e-10 1.0059e-10)
(-3.36186e-10 -2.03588e-10 1.14746e-10)
(-3.82683e-10 -2.79032e-10 1.21978e-10)
(-4.0975e-10 -3.65592e-10 1.14242e-10)
(-4.04399e-10 -4.3874e-10 8.85427e-11)
(-1.33423e-11 -7.90689e-13 2.99903e-12)
(-3.87588e-11 -2.44637e-12 8.86745e-12)
(-6.2233e-11 -4.42901e-12 1.47349e-11)
(-8.47787e-11 -7.1099e-12 2.10607e-11)
(-1.07432e-10 -1.09433e-11 2.82784e-11)
(-1.31349e-10 -1.65407e-11 3.68231e-11)
(-1.57909e-10 -2.47559e-11 4.71457e-11)
(-1.88818e-10 -3.67933e-11 5.97103e-11)
(-2.26188e-10 -5.43463e-11 7.49575e-11)
(-2.72533e-10 -7.97549e-11 9.32182e-11)
(-3.30566e-10 -1.16158e-10 1.14526e-10)
(-4.02508e-10 -1.67563e-10 1.38269e-10)
(-4.88483e-10 -2.38588e-10 1.62577e-10)
(-5.83218e-10 -3.33271e-10 1.83329e-10)
(-6.70594e-10 -4.50531e-10 1.9309e-10)
(-7.19574e-10 -5.62195e-10 1.84689e-10)
(-1.67213e-11 -7.76432e-13 3.6759e-12)
(-4.85569e-11 -2.40423e-12 1.08611e-11)
(-7.79027e-11 -4.35683e-12 1.80242e-11)
(-1.05998e-10 -6.99912e-12 2.57144e-11)
(-1.34114e-10 -1.07723e-11 3.44486e-11)
(-1.63669e-10 -1.62683e-11 4.47466e-11)
(-1.96392e-10 -2.42961e-11 5.71504e-11)
(-2.34469e-10 -3.59999e-11 7.2236e-11)
(-2.80745e-10 -5.29627e-11 9.05915e-11)
(-3.38872e-10 -7.73813e-11 1.12768e-10)
(-4.1338e-10 -1.12238e-10 1.39155e-10)
(-5.09394e-10 -1.61498e-10 1.69753e-10)
(-6.31408e-10 -2.30209e-10 2.03734e-10)
(-7.79671e-10 -3.24073e-10 2.38625e-10)
(-9.40622e-10 -4.4582e-10 2.68761e-10)
(-1.06396e-09 -5.70422e-10 2.83701e-10)
(-1.98066e-11 -6.41765e-13 4.23679e-12)
(-5.74916e-11 -1.99064e-12 1.25092e-11)
(-9.21468e-11 -3.6181e-12 2.07243e-11)
(-1.25192e-10 -5.82792e-12 2.94946e-11)
(-1.58074e-10 -8.98587e-12 3.93931e-11)
(-1.92415e-10 -1.35683e-11 5.09898e-11)
(-2.30189e-10 -2.02246e-11 6.48824e-11)
(-2.7394e-10 -2.98339e-11 8.17061e-11)
(-3.27032e-10 -4.35951e-11 1.02137e-10)
(-3.93951e-10 -6.31009e-11 1.2686e-10)
(-4.80567e-10 -9.044e-11 1.56499e-10)
(-5.94166e-10 -1.28291e-10 1.91478e-10)
(-7.42635e-10 -1.80017e-10 2.31741e-10)
(-9.30935e-10 -2.49677e-10 2.76191e-10)
(-1.1493e-09 -3.40431e-10 3.21313e-10)
(-1.33649e-09 -4.37257e-10 3.56564e-10)
(-2.25609e-11 -4.10437e-13 4.67512e-12)
(-6.54555e-11 -1.28014e-12 1.37895e-11)
(-1.04794e-10 -2.34853e-12 2.27986e-11)
(-1.42125e-10 -3.81938e-12 3.23489e-11)
(-1.79008e-10 -5.93642e-12 4.30387e-11)
(-2.17185e-10 -9.00411e-12 5.54534e-11)
(-2.5876e-10 -1.34234e-11 7.01981e-11)
(-3.06436e-10 -1.97085e-11 8.79089e-11)
(-3.63798e-10 -2.85e-11 1.09256e-10)
(-4.3564e-10 -4.05487e-11 1.34916e-10)
(-5.28261e-10 -5.66514e-11 1.65516e-10)
(-6.49535e-10 -7.74854e-11 2.01484e-10)
(-8.0799e-10 -1.03356e-10 2.42778e-10)
(-1.00889e-09 -1.3394e-10 2.88261e-10)
(-1.2411e-09 -1.68291e-10 3.34205e-10)
(-1.43901e-09 -2.01848e-10 3.69894e-10)
(-2.49603e-11 -1.20079e-13 4.99059e-12)
(-7.23792e-11 -3.901e-13 1.47041e-11)
(-1.15742e-10 -7.59909e-13 2.42518e-11)
(-1.56666e-10 -1.31671e-12 3.42881e-11)
(-1.96771e-10 -2.15642e-12 4.54049e-11)
(-2.37828e-10 -3.39497e-12 5.81722e-11)
(-2.8195e-10 -5.16301e-12 7.31559e-11)
(-3.31814e-10 -7.59244e-12 9.0933e-11)
(-3.90921e-10 -1.07738e-11 1.12081e-10)
(-4.6387e-10 -1.4666e-11 1.37138e-10)
(-5.56586e-10 -1.89141e-11 1.66512e-10)
(-6.76191e-10 -2.25344e-11 2.00285e-10)
(-8.29819e-10 -2.3422e-11 2.37811e-10)
(-1.02023e-09 -1.78794e-11 2.76843e-10)
(-1.2322e-09 -1.42445e-12 3.11605e-10)
(-1.39882e-09 2.46155e-11 3.29602e-10)
(-1.72559e-12 -1.74566e-13 4.46915e-13)
(-5.00071e-12 -5.39428e-13 1.32324e-12)
(-7.99202e-12 -9.74675e-13 2.20513e-12)
(-1.08132e-11 -1.5624e-12 3.16531e-12)
(-1.35827e-11 -2.40433e-12 4.27335e-12)
(-1.64326e-11 -3.63889e-12 5.59989e-12)
(-1.95175e-11 -5.46142e-12 7.21751e-12)
(-2.30161e-11 -8.14795e-12 9.19639e-12)
(-2.71177e-11 -1.20811e-11 1.15898e-11)
(-3.19735e-11 -1.77657e-11 1.43993e-11)
(-3.75808e-11 -2.58084e-11 1.7503e-11)
(-4.35668e-11 -3.67979e-11 2.05159e-11)
(-4.88907e-11 -5.09708e-11 2.2548e-11)
(-5.17169e-11 -6.75194e-11 2.18818e-11)
(-5.03518e-11 -8.35364e-11 1.60393e-11)
(-4.6787e-11 -9.34606e-11 5.10531e-12)
(-5.13453e-12 -4.9416e-13 1.32151e-12)
(-1.48795e-11 -1.52677e-12 3.91234e-12)
(-2.37771e-11 -2.75889e-12 6.51854e-12)
(-3.2164e-11 -4.42182e-12 9.3537e-12)
(-4.03908e-11 -6.80245e-12 1.26228e-11)
(-4.88533e-11 -1.02908e-11 1.65346e-11)
(-5.80223e-11 -1.54371e-11 2.13057e-11)
(-6.84608e-11 -2.30212e-11 2.71511e-11)
(-8.0805e-11 -3.41329e-11 3.42489e-11)
(-9.56648e-11 -5.02339e-11 4.26536e-11)
(-1.13349e-10 -7.31467e-11 5.21185e-11)
(-1.33326e-10 -1.04805e-10 6.17554e-11)
(-1.53381e-10 -1.46463e-10 6.94826e-11)
(-1.68981e-10 -1.96852e-10 7.14133e-11)
(-1.74771e-10 -2.48719e-10 6.24788e-11)
(-1.71976e-10 -2.8433e-10 4.39768e-11)
(-8.44726e-12 -7.33557e-13 2.1475e-12)
(-2.44737e-11 -2.26676e-12 6.35594e-12)
(-3.90921e-11 -4.09495e-12 1.0583e-11)
(-5.28497e-11 -6.56011e-12 1.51726e-11)
(-6.63203e-11 -1.00844e-11 2.0455e-11)
(-8.01599e-11 -1.52401e-11 2.67677e-11)
(-9.51697e-11 -2.28325e-11 3.44663e-11)
(-1.1235e-10 -3.40108e-11 4.39189e-11)
(-1.32936e-10 -5.03903e-11 5.54641e-11)
(-1.58343e-10 -7.41956e-11 6.93163e-11)
(-1.8993e-10 -1.0833e-10 8.53509e-11)
(-2.28404e-10 -1.56238e-10 1.02718e-10)
(-2.72687e-10 -2.21115e-10 1.19224e-10)
(-3.18365e-10 -3.03584e-10 1.30728e-10)
(-3.57081e-10 -3.95803e-10 1.31962e-10)
(-3.79725e-10 -4.68169e-10 1.23466e-10)
(-1.16054e-11 -8.56269e-13 2.89768e-12)
(-3.36139e-11 -2.64559e-12 8.57183e-12)
(-5.36579e-11 -4.77829e-12 1.42584e-11)
(-7.24755e-11 -7.65042e-12 2.0414e-11)
(-9.08437e-11 -1.1748e-11 2.74767e-11)
(-1.09662e-10 -1.77248e-11 3.58959e-11)
(-1.30055e-10 -2.65003e-11 4.61532e-11)
(-1.53489e-10 -3.93793e-11 5.87631e-11)
(-1.81902e-10 -5.82153e-11 7.42501e-11)
(-2.17808e-10 -8.55957e-11 9.30673e-11)
(-2.6428e-10 -1.25046e-10 1.15425e-10)
(-3.24648e-10 -1.81101e-10 1.40943e-10)
(-4.01464e-10 -2.58899e-10 1.68081e-10)
(-4.94056e-10 -3.62053e-10 1.93374e-10)
(-5.93456e-10 -4.85168e-10 2.11261e-10)
(-6.71805e-10 -5.90995e-10 2.17284e-10)
(-1.45591e-11 -8.45441e-13 3.55042e-12)
(-4.21537e-11 -2.61238e-12 1.04955e-11)
(-6.72349e-11 -4.71893e-12 1.74349e-11)
(-9.07022e-11 -7.55245e-12 2.49141e-11)
(-1.13503e-10 -1.15842e-11 3.34557e-11)
(-1.36741e-10 -1.74407e-11 4.3595e-11)
(-1.61817e-10 -2.59939e-11 5.59115e-11)
(-1.9061e-10 -3.84695e-11 7.1039e-11)
(-2.25716e-10 -5.65955e-11 8.96659e-11)
(-2.70726e-10 -8.27879e-11 1.12489e-10)
(-3.30535e-10 -1.20375e-10 1.40101e-10)
(-4.11471e-10 -1.7381e-10 1.72745e-10)
(-5.20771e-10 -2.48591e-10 2.09819e-10)
(-6.6379e-10 -3.4977e-10 2.48945e-10)
(-8.34407e-10 -4.74807e-10 2.84456e-10)
(-9.85305e-10 -5.87619e-10 3.061e-10)
(-1.72671e-11 -7.06291e-13 4.09078e-12)
(-4.99723e-11 -2.18478e-12 1.20835e-11)
(-7.96282e-11 -3.95053e-12 2.00376e-11)
(-1.07257e-10 -6.32675e-12 2.85621e-11)
(-1.33932e-10 -9.69866e-12 3.82338e-11)
(-1.609e-10 -1.45711e-11 4.96427e-11)
(-1.89749e-10 -2.16281e-11 6.34217e-11)
(-2.22632e-10 -3.18105e-11 8.02751e-11)
(-2.62572e-10 -4.64003e-11 1.00984e-10)
(-3.13864e-10 -6.71265e-11 1.26395e-10)
(-3.82563e-10 -9.62751e-11 1.57357e-10)
(-4.76927e-10 -1.36766e-10 1.94558e-10)
(-6.0727e-10 -1.92041e-10 2.38132e-10)
(-7.83341e-10 -2.65058e-10 2.86688e-10)
(-1.00282e-09 -3.53571e-10 3.34984e-10)
(-1.20924e-09 -4.32433e-10 3.69133e-10)
(-1.96975e-11 -4.64561e-13 4.51204e-12)
(-5.69805e-11 -1.44115e-12 1.33141e-11)
(-9.06963e-11 -2.61822e-12 2.20319e-11)
(-1.2195e-10 -4.21205e-12 3.13073e-11)
(-1.51891e-10 -6.47332e-12 4.17415e-11)
(-1.81835e-10 -9.72184e-12 5.39411e-11)
(-2.13448e-10 -1.43701e-11 6.85465e-11)
(-2.48971e-10 -2.09509e-11 8.62618e-11)
(-2.91533e-10 -3.01275e-11 1.07866e-10)
(-3.45558e-10 -4.2676e-11 1.34201e-10)
(-4.17219e-10 -5.93991e-11 1.66125e-10)
(-5.14756e-10 -8.09051e-11 2.04368e-10)
(-6.48024e-10 -1.07091e-10 2.49167e-10)
(-8.25217e-10 -1.36067e-10 2.9932e-10)
(-1.04077e-09 -1.62112e-10 3.4969e-10)
(-1.2377e-09 -1.74009e-10 3.85711e-10)
(-2.18297e-11 -1.60086e-13 4.81438e-12)
(-6.31202e-11 -5.05555e-13 1.41894e-11)
(-1.00354e-10 -9.46984e-13 2.34226e-11)
(-1.34682e-10 -1.57167e-12 3.31603e-11)
(-1.67276e-10 -2.47809e-12 4.40011e-11)
(-1.9946e-10 -3.77578e-12 5.65284e-11)
(-2.32868e-10 -5.58875e-12 7.13461e-11)
(-2.69661e-10 -8.03277e-12 8.90942e-11)
(-3.12794e-10 -1.11686e-11 1.10452e-10)
(-3.66342e-10 -1.48963e-11 1.36111e-10)
(-4.35777e-10 -1.87492e-11 1.66699e-10)
(-5.27975e-10 -2.14972e-11 2.02587e-10)
(-6.50102e-10 -2.0467e-11 2.43476e-10)
(-8.05252e-10 -1.05708e-11 2.87498e-10)
(-9.79377e-10 1.58539e-11 3.29303e-10)
(-1.11293e-09 6.07127e-11 3.56759e-10)
(-1.45707e-12 -1.83398e-13 4.14353e-13)
(-4.2027e-12 -5.6607e-13 1.2275e-12)
(-6.6523e-12 -1.02107e-12 2.04807e-12)
(-8.86982e-12 -1.63311e-12 2.94535e-12)
(-1.09232e-11 -2.50729e-12 3.98699e-12)
(-1.28899e-11 -3.7863e-12 5.24333e-12)
(-1.48625e-11 -5.67072e-12 6.78938e-12)
(-1.69491e-11 -8.44342e-12 8.70299e-12)
(-1.92624e-11 -1.24931e-11 1.10539e-11)
(-2.18784e-11 -1.83256e-11 1.38785e-11)
(-2.47407e-11 -2.65275e-11 1.71269e-11)
(-2.74846e-11 -3.76096e-11 2.05673e-11)
(-2.92147e-11 -5.15984e-11 2.36439e-11)
(-2.84921e-11 -6.72304e-11 2.5348e-11)
(-2.4303e-11 -8.09066e-11 2.44011e-11)
(-1.90871e-11 -8.71582e-11 2.08568e-11)
(-4.33768e-12 -5.19117e-13 1.2251e-12)
(-1.25107e-11 -1.60252e-12 3.62919e-12)
(-1.98011e-11 -2.88999e-12 6.05368e-12)
(-2.63969e-11 -4.62089e-12 8.70281e-12)
(-3.24998e-11 -7.09114e-12 1.17756e-11)
(-3.83439e-11 -1.07019e-11 1.54794e-11)
(-4.42158e-11 -1.60178e-11 2.00381e-11)
(-5.04685e-11 -2.3838e-11 2.56879e-11)
(-5.75112e-11 -3.52705e-11 3.26528e-11)
(-6.57289e-11 -5.17865e-11 4.10832e-11)
(-7.52739e-11 -7.51695e-11 5.09234e-11)
(-8.5632e-11 -1.07182e-10 6.16821e-11)
(-9.49931e-11 -1.48591e-10 7.21063e-11)
(-9.98711e-11 -1.97057e-10 7.99596e-11)
(-9.65837e-11 -2.43771e-10 8.26409e-11)
(-8.74925e-11 -2.71526e-10 8.02791e-11)
(-7.14249e-12 -7.7106e-13 1.99074e-12)
(-2.05968e-11 -2.37933e-12 5.89482e-12)
(-3.25861e-11 -4.28889e-12 9.82653e-12)
(-4.34164e-11 -6.85223e-12 1.4114e-11)
(-5.34186e-11 -1.05035e-11 1.90773e-11)
(-6.29845e-11 -1.58294e-11 2.50517e-11)
(-7.26121e-11 -2.36562e-11 3.24042e-11)
(-8.29608e-11 -3.51551e-11 4.15315e-11)
(-9.4886e-11 -5.19735e-11 5.28419e-11)
(-1.09437e-10 -7.63536e-11 6.66809e-11)
(-1.2771e-10 -1.1118e-10 8.31857e-11)
(-1.50442e-10 -1.59733e-10 1.02012e-10)
(-1.77172e-10 -2.24688e-10 1.21967e-10)
(-2.05025e-10 -3.05437e-10 1.40766e-10)
(-2.27915e-10 -3.92301e-10 1.55625e-10)
(-2.38583e-10 -4.56547e-10 1.64921e-10)
(-9.82576e-12 -9.00377e-13 2.68539e-12)
(-2.83266e-11 -2.77765e-12 7.94795e-12)
(-4.47889e-11 -5.00356e-12 1.32355e-11)
(-5.96236e-11 -7.98474e-12 1.89835e-11)
(-7.32783e-11 -1.22182e-11 2.56159e-11)
(-8.62921e-11 -1.83718e-11 3.35794e-11)
(-9.93769e-11 -2.73805e-11 4.33661e-11)
(-1.13525e-10 -4.05712e-11 5.55279e-11)
(-1.30147e-10 -5.98203e-11 7.06661e-11)
(-1.51228e-10 -8.77387e-11 8.93856e-11)
(-1.79452e-10 -1.27839e-10 1.1217e-10)
(-2.18133e-10 -1.84534e-10 1.39143e-10)
(-2.70618e-10 -2.62497e-10 1.69678e-10)
(-3.38283e-10 -3.64139e-10 2.01905e-10)
(-4.15395e-10 -4.82093e-10 2.32348e-10)
(-4.77515e-10 -5.80007e-10 2.54774e-10)
(-1.23474e-11 -8.89876e-13 3.28924e-12)
(-3.5584e-11 -2.74482e-12 9.72881e-12)
(-5.62223e-11 -4.94058e-12 1.61783e-11)
(-7.47574e-11 -7.87302e-12 2.31582e-11)
(-9.17312e-11 -1.20194e-11 3.11736e-11)
(-1.078e-10 -1.80141e-11 4.07564e-11)
(-1.23851e-10 -2.6732e-11 5.24947e-11)
(-1.4116e-10 -3.94053e-11 6.70638e-11)
(-1.61637e-10 -5.77598e-11 8.5231e-11)
(-1.88153e-10 -8.41981e-11 1.07844e-10)
(-2.24981e-10 -1.21998e-10 1.3576e-10)
(-2.78239e-10 -1.75448e-10 1.6966e-10)
(-3.55893e-10 -2.49568e-10 2.09651e-10)
(-4.65772e-10 -3.48252e-10 2.54431e-10)
(-6.06582e-10 -4.67205e-10 2.99561e-10)
(-7.37683e-10 -5.71916e-10 3.33421e-10)
(-1.4674e-11 -7.45469e-13 3.78874e-12)
(-4.22743e-11 -2.29898e-12 1.1196e-11)
(-6.6734e-11 -4.13649e-12 1.85853e-11)
(-8.86098e-11 -6.58275e-12 2.65348e-11)
(-1.08504e-10 -1.00234e-11 3.56037e-11)
(-1.27145e-10 -1.49572e-11 4.63736e-11)
(-1.45515e-10 -2.2058e-11 5.94906e-11)
(-1.65048e-10 -3.22412e-11 7.56937e-11)
(-1.87912e-10 -4.67466e-11 9.58467e-11)
(-2.17444e-10 -6.72219e-11 1.20941e-10)
(-2.58731e-10 -9.57968e-11 1.52071e-10)
(-3.19311e-10 -1.35073e-10 1.90313e-10)
(-4.09601e-10 -1.87828e-10 2.36366e-10)
(-5.41475e-10 -2.55784e-10 2.89565e-10)
(-7.18905e-10 -3.35471e-10 3.45218e-10)
(-8.981e-10 -4.05179e-10 3.88033e-10)
(-1.67808e-11 -4.93472e-13 4.17694e-12)
(-4.8325e-11 -1.52342e-12 1.23308e-11)
(-7.62142e-11 -2.74407e-12 2.04243e-11)
(-1.01039e-10 -4.36687e-12 2.9067e-11)
(-1.23427e-10 -6.6355e-12 3.88419e-11)
(-1.44126e-10 -9.84932e-12 5.03437e-11)
(-1.64124e-10 -1.43922e-11 6.42252e-11)
(-1.84844e-10 -2.07441e-11 8.1226e-11)
(-2.08417e-10 -2.94793e-11 1.02201e-10)
(-2.38064e-10 -4.12206e-11 1.28131e-10)
(-2.78562e-10 -5.65009e-11 1.60107e-10)
(-3.36676e-10 -7.54265e-11 1.99228e-10)
(-4.21025e-10 -9.69732e-11 2.46319e-10)
(-5.3992e-10 -1.17749e-10 3.01088e-10)
(-6.92869e-10 -1.30924e-10 3.59604e-10)
(-8.42098e-10 -1.30261e-10 4.06834e-10)
(-1.86497e-11 -1.75973e-13 4.45449e-12)
(-5.36877e-11 -5.48161e-13 1.31352e-11)
(-8.4595e-11 -9.99708e-13 2.17009e-11)
(-1.11971e-10 -1.60934e-12 3.07679e-11)
(-1.36442e-10 -2.45567e-12 4.09095e-11)
(-1.58725e-10 -3.62268e-12 5.27042e-11)
(-1.79741e-10 -5.18786e-12 6.67624e-11)
(-2.00776e-10 -7.19438e-12 8.37579e-11)
(-2.23698e-10 -9.58572e-12 1.0444e-10)
(-2.5121e-10 -1.2073e-11 1.29626e-10)
(-2.87082e-10 -1.38733e-11 1.60147e-10)
(-3.36062e-10 -1.32266e-11 1.96717e-10)
(-4.02731e-10 -6.55563e-12 2.39614e-10)
(-4.87395e-10 1.26498e-11 2.88082e-10)
(-5.75421e-10 5.34606e-11 3.39035e-10)
(-6.22628e-10 1.148e-10 3.82294e-10)
(-1.19709e-12 -1.88815e-13 3.65455e-13)
(-3.42785e-12 -5.82134e-13 1.08326e-12)
(-5.34439e-12 -1.04762e-12 1.8094e-12)
(-6.9563e-12 -1.67067e-12 2.60688e-12)
(-8.27446e-12 -2.55641e-12 3.53798e-12)
(-9.31059e-12 -3.84652e-12 4.66907e-12)
(-1.00767e-11 -5.73886e-12 6.0739e-12)
(-1.05814e-11 -8.50901e-12 7.83317e-12)
(-1.08141e-11 -1.25294e-11 1.00298e-11)
(-1.07028e-11 -1.82695e-11 1.27331e-11)
(-1.00195e-11 -2.62369e-11 1.5966e-11)
(-8.20686e-12 -3.67755e-11 1.96494e-11)
(-4.15477e-12 -4.95762e-11 2.3523e-11)
(3.82621e-12 -6.27656e-11 2.70773e-11)
(1.69311e-11 -7.19059e-11 2.95857e-11)
(3.13709e-11 -7.18531e-11 3.0448e-11)
(-3.56622e-12 -5.34361e-13 1.0805e-12)
(-1.02121e-11 -1.64715e-12 3.20213e-12)
(-1.59209e-11 -2.96365e-12 5.34765e-12)
(-2.07208e-11 -4.72415e-12 7.70177e-12)
(-2.46446e-11 -7.22414e-12 1.04478e-11)
(-2.77308e-11 -1.08616e-11 1.37818e-11)
(-3.00279e-11 -1.61926e-11 1.79224e-11)
(-3.15936e-11 -2.39949e-11 2.3113e-11)
(-3.24704e-11 -3.53322e-11 2.96123e-11)
(-3.26058e-11 -5.1579e-11 3.76557e-11)
(-3.16455e-11 -7.43186e-11 4.7379e-11)
(-2.85271e-11 -1.04906e-10 5.86765e-11)
(-2.08706e-11 -1.43337e-10 7.10133e-11)
(-4.6396e-12 -1.85997e-10 8.32637e-11)
(2.39106e-11 -2.22727e-10 9.3733e-11)
(5.77639e-11 -2.3817e-10 1.00214e-10)
(-5.8807e-12 -7.92989e-13 1.75525e-12)
(-1.68369e-11 -2.44374e-12 5.2006e-12)
(-2.62415e-11 -4.39358e-12 8.67894e-12)
(-3.41396e-11 -6.99561e-12 1.24878e-11)
(-4.05869e-11 -1.06818e-11 1.69217e-11)
(-4.56559e-11 -1.60319e-11 2.22972e-11)
(-4.94578e-11 -2.38551e-11 2.89693e-11)
(-5.21638e-11 -3.52904e-11 3.73454e-11)
(-5.40333e-11 -5.19161e-11 4.78739e-11)
(-5.53938e-11 -7.58449e-11 6.1015e-11)
(-5.65294e-11 -1.09707e-10 7.7146e-11)
(-5.73316e-11 -1.5631e-10 9.64011e-11)
(-5.65775e-11 -2.17517e-10 1.18424e-10)
(-5.08966e-11 -2.91592e-10 1.42101e-10)
(-3.48529e-11 -3.68249e-10 1.6525e-10)
(-9.09099e-12 -4.21983e-10 1.82926e-10)
(-8.10618e-12 -9.25011e-13 2.36742e-12)
(-2.32041e-11 -2.849e-12 7.01041e-12)
(-3.615e-11 -5.11628e-12 1.16867e-11)
(-4.70014e-11 -8.13188e-12 1.67907e-11)
(-5.58328e-11 -1.23871e-11 2.27128e-11)
(-6.2752e-11 -1.8536e-11 2.9872e-11)
(-6.79406e-11 -2.74871e-11 3.87453e-11)
(-7.1727e-11 -4.05186e-11 4.9887e-11)
(-7.46953e-11 -5.94185e-11 6.39404e-11)
(-7.78358e-11 -8.66409e-11 8.16185e-11)
(-8.2704e-11 -1.2543e-10 1.03643e-10)
(-9.14938e-11 -1.79751e-10 1.30582e-10)
(-1.06691e-10 -2.53618e-10 1.62557e-10)
(-1.29563e-10 -3.48745e-10 1.98683e-10)
(-1.56344e-10 -4.57984e-10 2.35895e-10)
(-1.73457e-10 -5.48499e-10 2.65098e-10)
(-1.0213e-11 -9.1261e-13 2.89904e-12)
(-2.9229e-11 -2.80861e-12 8.57826e-12)
(-4.5512e-11 -5.03613e-12 1.428e-11)
(-5.91245e-11 -7.9848e-12 2.04747e-11)
(-7.01489e-11 -1.2121e-11 2.7627e-11)
(-7.87122e-11 -1.80551e-11 3.62332e-11)
(-8.50418e-11 -2.66245e-11 4.68634e-11)
(-8.9587e-11 -3.89901e-11 6.01857e-11)
(-9.32054e-11 -5.67635e-11 7.70023e-11)
(-9.74826e-11 -8.2156e-11 9.82534e-11)
(-1.05205e-10 -1.18143e-10 1.24992e-10)
(-1.20977e-10 -1.68562e-10 1.58262e-10)
(-1.51684e-10 -2.37874e-10 1.98747e-10)
(-2.0548e-10 -3.29636e-10 2.45863e-10)
(-2.85041e-10 -4.40566e-10 2.95455e-10)
(-3.64514e-10 -5.40205e-10 3.33923e-10)
(-1.21764e-11 -7.61759e-13 3.33787e-12)
(-3.48398e-11 -2.34273e-12 9.86875e-12)
(-5.42177e-11 -4.19248e-12 1.63976e-11)
(-7.03654e-11 -6.62566e-12 2.34487e-11)
(-8.33581e-11 -1.00086e-11 3.15332e-11)
(-9.33096e-11 -1.4808e-11 4.11967e-11)
(-1.00442e-10 -2.16417e-11 5.30562e-11)
(-1.0521e-10 -3.13349e-11 6.78459e-11)
(-1.08529e-10 -4.49765e-11 8.6449e-11)
(-1.12146e-10 -6.39748e-11 1.09933e-10)
(-1.1922e-10 -9.0085e-11 1.39553e-10)
(-1.35171e-10 -1.25362e-10 1.76673e-10)
(-1.68647e-10 -1.71911e-10 2.22452e-10)
(-2.31628e-10 -2.31098e-10 2.76801e-10)
(-3.33993e-10 -3.00901e-10 3.35345e-10)
(-4.52974e-10 -3.65002e-10 3.81497e-10)
(-1.39762e-11 -5.00475e-13 3.67861e-12)
(-3.99824e-11 -1.5377e-12 1.08644e-11)
(-6.21869e-11 -2.7453e-12 1.80117e-11)
(-8.06288e-11 -4.3192e-12 2.56723e-11)
(-9.53608e-11 -6.47561e-12 3.43765e-11)
(-1.06453e-10 -9.47419e-12 4.46837e-11)
(-1.14056e-10 -1.36288e-11 5.72153e-11)
(-1.18511e-10 -1.93087e-11 7.27005e-11)
(-1.20529e-10 -2.691e-11 9.20105e-11)
(-1.21474e-10 -3.67715e-11 1.1619e-10)
(-1.23753e-10 -4.89777e-11 1.46464e-10)
(-1.31244e-10 -6.29543e-11 1.84194e-10)
(-1.49524e-10 -7.67279e-11 2.30646e-10)
(-1.85268e-10 -8.59662e-11 2.86218e-10)
(-2.43241e-10 -8.43414e-11 3.47766e-10)
(-3.13495e-10 -7.14521e-11 3.99616e-10)
(-1.55977e-11 -1.7224e-13 3.92171e-12)
(-4.46175e-11 -5.28487e-13 1.15673e-11)
(-6.93669e-11 -9.40217e-13 1.91278e-11)
(-8.98671e-11 -1.4635e-12 2.71558e-11)
(-1.06134e-10 -2.14765e-12 3.61792e-11)
(-1.18182e-10 -3.02669e-12 4.67326e-11)
(-1.26055e-10 -4.10236e-12 5.94011e-11)
(-1.29905e-10 -5.29801e-12 7.4847e-11)
(-1.30098e-10 -6.37011e-12 9.3834e-11)
(-1.27342e-10 -6.73866e-12 1.17233e-10)
(-1.22765e-10 -5.17373e-12 1.46e-10)
(-1.17691e-10 7.67771e-13 1.81072e-10)
(-1.12499e-10 1.56733e-11 2.2314e-10)
(-1.0327e-10 4.74521e-11 2.72161e-10)
(-7.53373e-11 1.06703e-10 3.26103e-10)
(-8.17119e-12 1.908e-10 3.74729e-10)
(-9.62373e-13 -1.91459e-13 3.01667e-13)
(-2.72689e-12 -5.89469e-13 8.94521e-13)
(-4.15557e-12 -1.05829e-12 1.49581e-12)
(-5.20503e-12 -1.68212e-12 2.15862e-12)
(-5.82821e-12 -2.56383e-12 2.93646e-12)
(-5.96726e-12 -3.84066e-12 3.88767e-12)
(-5.54626e-12 -5.70184e-12 5.07859e-12)
(-4.45926e-12 -8.40689e-12 6.58596e-12)
(-2.54692e-12 -1.22981e-11 8.49477e-12)
(4.54273e-13 -1.77882e-11 1.08911e-11)
(5.01465e-12 -2.52792e-11 1.38438e-11)
(1.19918e-11 -3.49185e-11 1.73691e-11)
(2.28611e-11 -4.60408e-11 2.13773e-11)
(3.97028e-11 -5.61677e-11 2.55981e-11)
(6.37688e-11 -6.00662e-11 2.94834e-11)
(8.89197e-11 -5.30461e-11 3.20481e-11)
(-2.87015e-12 -5.41474e-13 8.91691e-13)
(-8.13279e-12 -1.667e-12 2.64433e-12)
(-1.23951e-11 -2.99166e-12 4.42044e-12)
(-1.55277e-11 -4.75237e-12 6.37672e-12)
(-1.73921e-11 -7.23766e-12 8.67049e-12)
(-1.78215e-11 -1.08321e-11 1.14732e-11)
(-1.66035e-11 -1.60664e-11 1.49818e-11)
(-1.34558e-11 -2.36728e-11 1.9426e-11)
(-7.9808e-12 -3.46304e-11 2.50658e-11)
(4.41103e-13 -5.01617e-11 3.21775e-11)
(1.28694e-11 -7.15761e-11 4.10062e-11)
(3.12177e-11 -9.97496e-11 5.16793e-11)
(5.88239e-11 -1.3388e-10 6.40553e-11)
(1.00561e-10 -1.69201e-10 7.74924e-11)
(1.59667e-10 -1.9454e-10 9.04384e-11)
(2.2164e-10 -1.9687e-10 9.94604e-11)
(-4.74233e-12 -8.02672e-13 1.44866e-12)
(-1.34377e-11 -2.46979e-12 4.29387e-12)
(-2.04798e-11 -4.42802e-12 7.17297e-12)
(-2.56577e-11 -7.02391e-12 1.03373e-11)
(-2.87483e-11 -1.06773e-11 1.40397e-11)
(-2.94904e-11 -1.59453e-11 1.85558e-11)
(-2.75677e-11 -2.35973e-11 2.42063e-11)
(-2.26002e-11 -3.47e-11 3.13675e-11)
(-1.41243e-11 -5.0708e-11 4.04837e-11)
(-1.55201e-12 -7.35201e-11 5.20499e-11)
(1.59597e-11 -1.05413e-10 6.65678e-11)
(3.98068e-11 -1.48637e-10 8.44282e-11)
(7.24938e-11 -2.04278e-10 1.05689e-10)
(1.18104e-10 -2.69813e-10 1.29652e-10)
(1.80185e-10 -3.35096e-10 1.53965e-10)
(2.45907e-10 -3.78424e-10 1.72182e-10)
(-6.55627e-12 -9.34253e-13 1.95337e-12)
(-1.85774e-11 -2.8724e-12 5.78686e-12)
(-2.8312e-11 -5.14174e-12 9.6565e-12)
(-3.54721e-11 -8.13687e-12 1.38955e-11)
(-3.9756e-11 -1.2331e-11 1.88376e-11)
(-4.08185e-11 -1.83464e-11 2.48485e-11)
(-3.82643e-11 -2.70372e-11 3.23541e-11)
(-3.16676e-11 -3.95877e-11 4.18652e-11)
(-2.06292e-11 -5.76314e-11 5.39985e-11)
(-4.88552e-12 -8.33738e-11 6.94825e-11)
(1.55228e-11 -1.19681e-10 8.91219e-11)
(4.0065e-11 -1.70005e-10 1.13685e-10)
(6.76808e-11 -2.37814e-10 1.43599e-10)
(9.72879e-11 -3.2466e-10 1.78246e-10)
(1.28852e-10 -4.24598e-10 2.14326e-10)
(1.59826e-10 -5.08556e-10 2.4186e-10)
(-8.29163e-12 -9.1818e-13 2.39133e-12)
(-2.34947e-11 -2.82005e-12 7.07956e-12)
(-3.58063e-11 -5.03625e-12 1.17958e-11)
(-4.48642e-11 -7.94199e-12 1.69381e-11)
(-5.02909e-11 -1.19787e-11 2.29022e-11)
(-5.16554e-11 -1.77167e-11 3.01227e-11)
(-4.84779e-11 -2.59231e-11 3.91022e-11)
(-4.02693e-11 -3.76465e-11 5.04549e-11)
(-2.66605e-11 -5.43153e-11 6.49334e-11)
(-7.6564e-12 -7.78616e-11 8.34599e-11)
(1.58828e-11 -1.10861e-10 1.07119e-10)
(4.14414e-11 -1.56662e-10 1.37056e-10)
(6.37824e-11 -2.19343e-10 1.74125e-10)
(7.43975e-11 -3.02756e-10 2.17877e-10)
(6.46098e-11 -4.05629e-10 2.64038e-10)
(4.00938e-11 -5.0137e-10 2.99001e-10)
(-9.93039e-12 -7.61133e-13 2.75283e-12)
(-2.81414e-11 -2.33373e-12 8.1417e-12)
(-4.2892e-11 -4.15357e-12 1.35403e-11)
(-5.37512e-11 -6.51525e-12 1.93895e-11)
(-6.0264e-11 -9.75475e-12 2.61267e-11)
(-6.19068e-11 -1.42887e-11 3.4224e-11)
(-5.80802e-11 -2.06536e-11 4.42302e-11)
(-4.81556e-11 -2.95421e-11 5.68081e-11)
(-3.16022e-11 -4.18357e-11 7.27821e-11)
(-8.27356e-12 -5.86267e-11 9.31743e-11)
(2.10387e-11 -8.12203e-11 1.19226e-10)
(5.35885e-11 -1.11111e-10 1.52332e-10)
(8.29776e-11 -1.49931e-10 1.93721e-10)
(9.69493e-11 -1.99284e-10 2.43366e-10)
(7.77059e-11 -2.59399e-10 2.96914e-10)
(2.22902e-11 -3.18843e-10 3.38407e-10)
(-1.14583e-11 -4.91615e-13 3.03269e-12)
(-3.24779e-11 -1.50305e-12 8.95981e-12)
(-4.95161e-11 -2.65904e-12 1.48668e-11)
(-6.20801e-11 -4.13087e-12 2.12169e-11)
(-6.96408e-11 -6.10011e-12 2.84652e-11)
(-7.15768e-11 -8.76817e-12 3.70916e-11)
(-6.71429e-11 -1.23591e-11 4.76481e-11)
(-5.5487e-11 -1.7098e-11 6.07923e-11)
(-3.57165e-11 -2.31561e-11 7.733e-11)
(-7.0542e-12 -3.05294e-11 9.82519e-11)
(3.08709e-11 -3.88007e-11 1.24756e-10)
(7.75276e-11 -4.67099e-11 1.58207e-10)
(1.30662e-10 -5.1491e-11 1.99917e-10)
(1.84723e-10 -4.83017e-11 2.50358e-10)
(2.27363e-10 -3.1833e-11 3.06504e-10)
(2.3679e-10 -7.08709e-12 3.53437e-10)
(-1.2863e-11 -1.5447e-13 3.23144e-12)
(-3.64719e-11 -4.6699e-13 9.5362e-12)
(-5.56393e-11 -8.05473e-13 1.57804e-11)
(-6.98217e-11 -1.19965e-12 2.24321e-11)
(-7.84329e-11 -1.65849e-12 2.99364e-11)
(-8.07618e-11 -2.15699e-12 3.87583e-11)
(-7.5927e-11 -2.60318e-12 4.94125e-11)
(-6.28448e-11 -2.77578e-12 6.2496e-11)
(-4.02119e-11 -2.20953e-12 7.87135e-11)
(-6.48552e-12 9.05543e-15 9.88924e-11)
(4.01867e-11 5.60076e-12 1.23965e-10)
(1.02247e-10 1.77049e-11 1.54891e-10)
(1.83568e-10 4.18558e-11 1.92428e-10)
(2.91343e-10 8.71854e-11 2.36643e-10)
(4.37225e-10 1.65621e-10 2.85616e-10)
(6.13714e-10 2.72837e-10 3.2961e-10)
(-7.69158e-13 -1.9223e-13 2.2525e-13)
(-2.14873e-12 -5.91144e-13 6.68297e-13)
(-3.1717e-12 -1.05878e-12 1.11835e-12)
(-3.74805e-12 -1.67749e-12 1.61604e-12)
(-3.77898e-12 -2.54676e-12 2.20259e-12)
(-3.14312e-12 -3.79784e-12 2.92354e-12)
(-1.68185e-12 -5.60924e-12 3.83222e-12)
(8.20491e-13 -8.22146e-12 4.99189e-12)
(4.66919e-12 -1.19431e-11 6.47642e-12)
(1.03186e-11 -1.71278e-11 8.3672e-12)
(1.84809e-11 -2.40741e-11 1.07423e-11)
(3.03048e-11 -3.27495e-11 1.36529e-11)
(4.75769e-11 -4.21804e-11 1.7078e-11)
(7.2593e-11 -4.93869e-11 2.08446e-11)
(1.0628e-10 -4.85065e-11 2.44952e-11)
(1.40018e-10 -3.53457e-11 2.70644e-11)
(-2.2971e-12 -5.43346e-13 6.65918e-13)
(-6.41852e-12 -1.67051e-12 1.97518e-12)
(-9.47791e-12 -2.99069e-12 3.30465e-12)
(-1.12086e-11 -4.73491e-12 4.77343e-12)
(-1.13189e-11 -7.18172e-12 6.50265e-12)
(-9.45393e-12 -1.0698e-11 8.62652e-12)
(-5.15657e-12 -1.57837e-11 1.13028e-11)
(2.17977e-12 -2.31163e-11 1.47196e-11)
(1.33855e-11 -3.35812e-11 1.91013e-11)
(2.96414e-11 -4.82407e-11 2.47005e-11)
(5.27117e-11 -6.8136e-11 3.17741e-11)
(8.53286e-11 -9.37059e-11 4.0517e-11)
(1.31632e-10 -1.23475e-10 5.09268e-11)
(1.9684e-10 -1.51771e-10 6.25384e-11)
(2.82705e-10 -1.66744e-10 7.39179e-11)
(3.67201e-10 -1.57613e-10 8.17603e-11)
(-3.80587e-12 -8.04273e-13 1.08152e-12)
(-1.06365e-11 -2.47124e-12 3.20702e-12)
(-1.5715e-11 -4.41887e-12 5.36165e-12)
(-1.86069e-11 -6.98382e-12 7.7369e-12)
(-1.88404e-11 -1.05693e-11 1.05271e-11)
(-1.58481e-11 -1.57044e-11 1.39483e-11)
(-8.91666e-12 -2.31089e-11 1.82545e-11)
(2.86461e-12 -3.37666e-11 2.3755e-11)
(2.06599e-11 -4.89931e-11 3.08234e-11)
(4.59669e-11 -7.04627e-11 3.98998e-11)
(8.07417e-11 -1.00103e-10 5.14595e-11)
(1.27612e-10 -1.39665e-10 6.59246e-11)
(1.90113e-10 -1.89612e-10 8.34444e-11)
(2.72305e-10 -2.46922e-10 1.03423e-10)
(3.74459e-10 -3.01874e-10 1.23557e-10)
(4.71791e-10 -3.36242e-10 1.37966e-10)
(-5.28205e-12 -9.33743e-13 1.45821e-12)
(-1.47668e-11 -2.86633e-12 4.32152e-12)
(-2.18347e-11 -5.1151e-12 7.21666e-12)
(-2.58957e-11 -8.06063e-12 1.03974e-11)
(-2.63126e-11 -1.21533e-11 1.41204e-11)
(-2.23272e-11 -1.79773e-11 1.86709e-11)
(-1.30063e-11 -2.63219e-11 2.43863e-11)
(2.79395e-12 -3.82659e-11 3.1681e-11)
(2.64252e-11 -5.52724e-11 4.10682e-11)
(5.93796e-11 -7.92871e-11 5.31717e-11)
(1.03104e-10 -1.12807e-10 6.8708e-11)
(1.58634e-10 -1.58831e-10 8.83848e-11)
(2.26005e-10 -2.20443e-10 1.12608e-10)
(3.0342e-10 -2.99301e-10 1.40765e-10)
(3.85431e-10 -3.90811e-10 1.69716e-10)
(4.53776e-10 -4.69174e-10 1.90909e-10)
(-6.71297e-12 -9.13701e-13 1.78496e-12)
(-1.87766e-11 -2.80055e-12 5.28546e-12)
(-2.77932e-11 -4.98251e-12 8.81328e-12)
(-3.3032e-11 -7.81619e-12 1.26701e-11)
(-3.37042e-11 -1.17146e-11 1.71612e-11)
(-2.88754e-11 -1.72004e-11 2.26223e-11)
(-1.74031e-11 -2.49642e-11 2.94536e-11)
(2.08354e-12 -3.59296e-11 3.81468e-11)
(3.11357e-11 -5.13319e-11 4.93221e-11)
(7.12791e-11 -7.28172e-11 6.37518e-11)
(1.2351e-10 -1.02578e-10 8.23612e-11)
(1.87245e-10 -1.43547e-10 1.06136e-10)
(2.58476e-10 -1.99579e-10 1.3578e-10)
(3.27361e-10 -2.75043e-10 1.70779e-10)
(3.77685e-10 -3.70655e-10 2.07243e-10)
(3.95884e-10 -4.63014e-10 2.33949e-10)
(-8.08734e-12 -7.50938e-13 2.05402e-12)
(-2.26354e-11 -2.2962e-12 6.07716e-12)
(-3.35523e-11 -4.0653e-12 1.01135e-11)
(-3.9983e-11 -6.33058e-12 1.44989e-11)
(-4.10027e-11 -9.39403e-12 1.95683e-11)
(-3.55095e-11 -1.36181e-11 2.56882e-11)
(-2.21468e-11 -1.94519e-11 3.32904e-11)
(7.35045e-13 -2.745e-11 4.29072e-11)
(3.50399e-11 -3.82814e-11 5.52089e-11)
(8.2721e-11 -5.27267e-11 7.10411e-11)
(1.45223e-10 -7.16722e-11 9.14401e-11)
(2.22208e-10 -9.61416e-11 1.17569e-10)
(3.08954e-10 -1.27471e-10 1.50406e-10)
(3.91821e-10 -1.67715e-10 1.89774e-10)
(4.43789e-10 -2.19269e-10 2.31785e-10)
(4.38223e-10 -2.7472e-10 2.63499e-10)
(-9.39442e-12 -4.74847e-13 2.26229e-12)