/*--------------------------------*- C++ -*----------------------------------*\
| =========                 |                                                 |
| \\      /  F ield         | foam-extend: Open Source CFD                    |
|  \\    /   O peration     | Version:     3.1                                |
|   \\  /    A nd           | Web:         http://www.extend-project.de       |
|    \\/     M anipulation  |                                                 |
\*---------------------------------------------------------------------------*/
FoamFile
{
    version     2.0;
    format      ascii;
    class       volScalarField;
    location    "2.7";
    object      p;
}
// * * * * * * * * * * * * * * * * * * * * * * * * * * * * * * * * * * * * * //

dimensions      [0 2 -2 0 0 0 0];

internalField   nonuniform List<scalar> 
14592
(
0.0261536
0.0259606
0.0257721
0.0256145
0.0255039
0.0254488
0.0254493
0.0254955
0.0255696
0.0256457
0.0256928
0.0256713
0.0255251
0.0251594
0.0244357
0.0234389
0.0261746
0.0259634
0.0257717
0.0256124
0.0254973
0.0254368
0.0254336
0.0254803
0.0255595
0.0256458
0.0257072
0.0257041
0.0255826
0.0252508
0.0245073
0.0232722
0.0261633
0.0259359
0.0257341
0.025565
0.025439
0.0253694
0.0253625
0.0254136
0.0255067
0.0256165
0.0257122
0.0257565
0.0256998
0.0254392
0.0246966
0.0231689
0.0261243
0.0258828
0.0256694
0.0254882
0.0253488
0.0252667
0.0252521
0.0253037
0.0254077
0.0255397
0.0256706
0.0257661
0.0257817
0.0256214
0.0249449
0.0232322
0.0260596
0.0258073
0.0255843
0.0253926
0.0252396
0.0251418
0.0251126
0.0251546
0.0252571
0.0253981
0.0255504
0.0256839
0.0257626
0.0257073
0.0251561
0.0233895
0.0259709
0.0257103
0.0254794
0.0252783
0.0251118
0.0249957
0.024945
0.024965
0.0250486
0.0251758
0.0253221
0.0254608
0.0255674
0.0255912
0.0251984
0.0234884
0.0258619
0.0255948
0.0253566
0.0251457
0.0249646
0.0248272
0.0247484
0.0247348
0.0247808
0.0248668
0.0249684
0.025058
0.025122
0.0251395
0.0248916
0.0232232
0.0257381
0.0254664
0.0252211
0.024999
0.0248009
0.0246391
0.0245273
0.0244712
0.0244643
0.0244842
0.024501
0.0244732
0.0243795
0.0241567
0.0238805
0.0213336
0.0263778
0.0261767
0.0259875
0.0258377
0.0257443
0.025718
0.0257617
0.0258685
0.0260251
0.0262092
0.0263967
0.0265609
0.0266687
0.0266635
0.0265035
0.0263907
0.0264013
0.0261805
0.0259872
0.0258356
0.0257375
0.0257053
0.0257452
0.0258535
0.0260156
0.0262117
0.0264162
0.0266022
0.0267406
0.0267666
0.0266282
0.0266303
0.0263926
0.0261547
0.0259513
0.0257907
0.0256823
0.0256412
0.0256775
0.0257914
0.0259711
0.0261972
0.0264471
0.0266958
0.0269138
0.0270409
0.0269831
0.0271121
0.0263535
0.0261016
0.025887
0.0257159
0.0255957
0.0255435
0.0255734
0.0256894
0.0258835
0.0261382
0.0264336
0.026751
0.0270734
0.0273417
0.0274139
0.0276802
0.0262854
0.0260227
0.0257989
0.0256187
0.025487
0.025421
0.0254376
0.0255449
0.025739
0.0260063
0.0263309
0.026701
0.0271119
0.02752
0.0277371
0.0281465
0.02619
0.0259188
0.0256869
0.0254979
0.0253541
0.0252709
0.025266
0.0253501
0.0255231
0.0257744
0.0260923
0.0264703
0.0269174
0.0274192
0.0277542
0.0282639
0.0260709
0.0257931
0.0255532
0.0253539
0.0251951
0.0250896
0.0250543
0.0251001
0.0252281
0.0254277
0.0256874
0.0259997
0.026382
0.0268531
0.0271891
0.0274878
0.0259345
0.0256516
0.0254035
0.0251913
0.0250133
0.0248802
0.0248065
0.0248014
0.0248636
0.0249783
0.0251258
0.0252798
0.0254384
0.0255784
0.0256054
0.0239514
0.0265954
0.026388
0.0262001
0.0260603
0.025986
0.02599
0.0260777
0.0262458
0.0264818
0.0267675
0.0270825
0.0274056
0.0277117
0.0279602
0.0281252
0.0282766
0.0266216
0.026393
0.0262001
0.0260584
0.0259792
0.0259771
0.0260617
0.0262296
0.0264731
0.0267736
0.0271093
0.0274576
0.0277933
0.0280706
0.0282758
0.028572
0.0266152
0.0263691
0.0261661
0.0260163
0.0259276
0.025917
0.0259976
0.0261748
0.0264391
0.0267746
0.0271618
0.0275806
0.0280084
0.028395
0.0287129
0.0292011
0.0265762
0.0263162
0.0261025
0.0259435
0.025845
0.0258251
0.0259015
0.0260828
0.0263654
0.0267363
0.0271793
0.0276798
0.0282256
0.0287641
0.0292381
0.0299165
0.0265053
0.0262345
0.0260116
0.0258447
0.0257368
0.0257053
0.0257702
0.0259443
0.0262292
0.0266163
0.0270951
0.0276581
0.0283042
0.0289867
0.0296029
0.0304483
0.0264036
0.0261242
0.025893
0.0257176
0.0255986
0.025551
0.0255949
0.0257453
0.0260076
0.0263772
0.0268483
0.0274195
0.0281018
0.0288662
0.0295558
0.0304678
0.026275
0.0259887
0.0257488
0.0255624
0.0254278
0.0253571
0.0253686
0.0254766
0.0256872
0.0259958
0.0263968
0.0268874
0.0274844
0.0281794
0.0287533
0.0292936
0.0261264
0.0258346
0.0255855
0.0253845
0.0252283
0.0251265
0.0250945
0.0251437
0.0252767
0.0254833
0.0257482
0.0260474
0.0263733
0.0266696
0.0267474
0.0248732
0.026796
0.0265838
0.0263985
0.0262693
0.0262142
0.0262477
0.0263772
0.0266013
0.0269093
0.0272844
0.0277067
0.0281556
0.0286063
0.0290217
0.0293671
0.0296125
0.0268247
0.0265902
0.0263988
0.0262677
0.0262077
0.0262347
0.0263599
0.026585
0.0269021
0.027294
0.0277394
0.0282156
0.0286956
0.0291371
0.0295247
0.029902
0.0268204
0.0265681
0.0263668
0.0262284
0.0261597
0.026179
0.0263028
0.0265378
0.0268787
0.0273103
0.0278119
0.0283647
0.0289399
0.0294876
0.0299901
0.0305585
0.0267817
0.0265156
0.0263038
0.0261575
0.0260808
0.0260927
0.0262137
0.0264559
0.0268188
0.0272914
0.0278582
0.0284983
0.0291957
0.0298914
0.0305453
0.0313051
0.0267084
0.0264315
0.0262107
0.0260573
0.0259729
0.0259752
0.0260867
0.0263236
0.026691
0.0271831
0.0277891
0.0284976
0.0292984
0.0301307
0.0309103
0.0318262
0.0266012
0.0263157
0.0260861
0.0259245
0.0258297
0.0258169
0.0259081
0.0261211
0.0264649
0.0269379
0.0275347
0.0282498
0.0290827
0.0299799
0.0307936
0.0317398
0.026464
0.0261714
0.0259325
0.025759
0.0256479
0.025611
0.0256679
0.0258352
0.0261219
0.0265261
0.0270427
0.0276644
0.0283951
0.0291911
0.0298116
0.0302916
0.0263041
0.0260057
0.0257567
0.0255668
0.025432
0.0253609
0.0253697
0.0254711
0.02567
0.0259577
0.0263189
0.0267242
0.0271513
0.0275042
0.0275232
0.0253374
0.0269699
0.0267541
0.0265718
0.0264527
0.0264152
0.0264747
0.0266408
0.0269131
0.0272819
0.0277302
0.028237
0.0287794
0.0293295
0.0298478
0.0302883
0.0305679
0.0270008
0.026762
0.0265726
0.0264516
0.0264091
0.0264623
0.0266233
0.0268971
0.0272759
0.0277426
0.0282745
0.0288454
0.0294244
0.0299663
0.030446
0.0308465
0.0269984
0.0267414
0.0265423
0.0264147
0.0263643
0.0264101
0.0265715
0.0268566
0.0272619
0.0277723
0.0283649
0.0290146
0.0296881
0.0303296
0.0309171
0.031499
0.02696
0.0266893
0.0264801
0.0263455
0.0262886
0.0263288
0.0264891
0.0267837
0.0272142
0.0277695
0.0284309
0.0291734
0.0299682
0.0307488
0.0314749
0.0322415
0.0268847
0.0266034
0.026385
0.0262441
0.0261809
0.0262133
0.0263658
0.0266569
0.0270939
0.0276711
0.028375
0.0291871
0.030084
0.0309909
0.0318251
0.0327334
0.0267728
0.0264829
0.0262555
0.0261063
0.0260333
0.0260514
0.0261842
0.0264515
0.0268641
0.027421
0.028114
0.02893
0.0298538
0.0308104
0.0316493
0.0325614
0.0266283
0.0263311
0.0260939
0.0259319
0.0258418
0.0258351
0.0259321
0.0261509
0.026502
0.0269838
0.0275887
0.0283015
0.0291104
0.0299432
0.0305397
0.0309265
0.0264587
0.0261553
0.0259071
0.0257275
0.0256116
0.0255679
0.0256129
0.0257601
0.0260151
0.0263691
0.0268039
0.0272824
0.0277663
0.0281279
0.0280617
0.0256166
0.0271086
0.0268904
0.0267109
0.0266003
0.0265771
0.0266576
0.0268532
0.0271635
0.0275795
0.0280831
0.0286517
0.0292591
0.0298737
0.0304524
0.0309421
0.0312298
0.0271413
0.0268994
0.0267121
0.0265996
0.0265715
0.0266459
0.0268359
0.0271478
0.0275744
0.0280977
0.0286926
0.0293295
0.0299725
0.0305728
0.0310975
0.0315015
0.0271404
0.0268802
0.0266833
0.0265647
0.0265295
0.0265971
0.0267882
0.0271128
0.027568
0.0281377
0.0287965
0.0295129
0.0302487
0.0309419
0.0315665
0.0321439
0.0271023
0.0268286
0.0266217
0.0264969
0.0264563
0.0265196
0.0267112
0.0270471
0.0275299
0.0281473
0.0288776
0.0296896
0.0305438
0.0313671
0.0321181
0.032874
0.0270254
0.0267412
0.0265252
0.0263945
0.0263487
0.0264055
0.0265908
0.0269248
0.0274155
0.0280568
0.0288309
0.0297123
0.0306661
0.0316066
0.0324516
0.0333381
0.0269099
0.026617
0.0263918
0.0262528
0.0261974
0.0262406
0.0264067
0.026717
0.0271829
0.0278026
0.0285644
0.0294472
0.0304232
0.0314021
0.0322315
0.0331042
0.0267595
0.0264593
0.0262237
0.0260714
0.0259983
0.0260158
0.0261451
0.0264048
0.0268059
0.0273459
0.0280136
0.0287862
0.0296386
0.0304789
0.0310353
0.031345
0.0265823
0.0262755
0.0260284
0.0258571
0.0257566
0.025735
0.0258092
0.025993
0.0262918
0.0266956
0.027183
0.027709
0.0282225
0.0285739
0.0284314
0.0257967
0.0272052
0.0269859
0.0268087
0.0267043
0.0266916
0.0267876
0.0270033
0.02734
0.0277882
0.028329
0.0289379
0.0295863
0.0302392
0.030851
0.0313655
0.0316491
0.0272391
0.0269957
0.0268105
0.0267045
0.026687
0.0267762
0.0269873
0.027326
0.0277855
0.028347
0.0289835
0.029662
0.0303434
0.0309753
0.0315201
0.0319198
0.0272392
0.0269775
0.0267827
0.0266711
0.0266471
0.0267306
0.026943
0.0272954
0.0277851
0.028395
0.0290973
0.0298558
0.0306284
0.0313483
0.0319868
0.032554
0.0272012
0.026926
0.0267213
0.026604
0.0265754
0.0266555
0.0268696
0.0272347
0.0277536
0.0284128
0.0291888
0.0300445
0.0309327
0.0317762
0.0325329
0.0332751
0.0271233
0.0268376
0.0266236
0.0265007
0.0264675
0.0265419
0.0267507
0.0271149
0.0276431
0.0283281
0.0291479
0.0300724
0.0310582
0.0320125
0.0328536
0.0337188
0.0270052
0.0267109
0.0264875
0.026356
0.0263134
0.0263745
0.0265644
0.0269049
0.0274079
0.0280703
0.0288769
0.0298011
0.0308059
0.0317914
0.0326045
0.0334451
0.0268509
0.026549
0.026315
0.0261696
0.0261087
0.0261436
0.0262957
0.0265844
0.0270203
0.0275998
0.0283087
0.0291181
0.0299937
0.0308317
0.0313536
0.0316081
0.0266682
0.0263597
0.0261136
0.0259484
0.025859
0.0258532
0.0259481
0.0261578
0.0264873
0.0269253
0.0274472
0.0280025
0.0285308
0.0288689
0.0286698
0.0259112
0.0272533
0.0270333
0.0268565
0.0267548
0.0267468
0.0268498
0.0270751
0.0274242
0.0278875
0.0284458
0.0290735
0.0297404
0.0304101
0.0310358
0.0315599
0.0318452
0.0272875
0.0270428
0.0268578
0.0267541
0.026741
0.0268368
0.0270572
0.0274083
0.027883
0.0284622
0.0291177
0.0298149
0.0305129
0.0311582
0.0317123
0.0321136
0.0272882
0.0270253
0.0268305
0.0267213
0.026702
0.0267922
0.0270139
0.0273786
0.0278838
0.0285118
0.0292336
0.0300105
0.0307986
0.0315294
0.0321748
0.0327395
0.0272505
0.0269743
0.0267696
0.026655
0.0266314
0.0267186
0.0269424
0.0273202
0.0278551
0.0285324
0.0293294
0.0302042
0.0311059
0.0319568
0.0327174
0.0334557
0.0271722
0.0268855
0.0266717
0.0265516
0.0265238
0.026606
0.026825
0.0272024
0.0277471
0.0284521
0.0292912
0.0302341
0.0312322
0.0321905
0.0330317
0.0338886
0.027053
0.0267577
0.0265344
0.0264058
0.0263689
0.0264379
0.0266382
0.0269921
0.0275113
0.0281924
0.0290183
0.0299598
0.0309752
0.0319609
0.0327686
0.0335958
0.0268966
0.0265938
0.0263598
0.0262172
0.0261618
0.0262045
0.0263667
0.026668
0.0271191
0.0277157
0.0284421
0.0292665
0.0301498
0.0309828
0.0314882
0.0317125
0.0267113
0.0264018
0.0261555
0.0259927
0.0259083
0.0259096
0.0260137
0.0262347
0.0265775
0.0270302
0.0275666
0.0281336
0.0286656
0.0289929
0.0287491
0.025929
0.0250941
0.0250406
0.0249596
0.0248663
0.0247681
0.0246596
0.0245302
0.0243627
0.0241349
0.023821
0.0233924
0.0228193
0.022072
0.0211266
0.0199675
0.0186127
0.0251014
0.0250471
0.0249684
0.0248784
0.0247822
0.0246762
0.0245511
0.0243879
0.0241643
0.0238547
0.0234303
0.0228611
0.0221173
0.0211756
0.0200169
0.0186617
0.0250935
0.0250336
0.0249535
0.024865
0.0247742
0.0246775
0.0245611
0.0244081
0.0241954
0.0238968
0.0234834
0.022926
0.0221949
0.0212689
0.0201248
0.018787
0.0250688
0.0249995
0.0249124
0.0248203
0.0247304
0.0246386
0.0245318
0.0243907
0.0241911
0.0239051
0.0235045
0.0229604
0.0222437
0.0213358
0.0202095
0.0188941
0.0250295
0.02495
0.0248523
0.0247517
0.024657
0.0245652
0.0244631
0.0243302
0.0241406
0.0238657
0.0234762
0.0229439
0.0222399
0.0213485
0.0202409
0.0189492
0.0249783
0.0248899
0.0247811
0.0246697
0.0245666
0.0244699
0.0243672
0.0242371
0.0240528
0.0237847
0.0234027
0.0228792
0.022186
0.0213098
0.0202226
0.0189575
0.0249181
0.0248231
0.024705
0.0245833
0.0244706
0.0243663
0.0242587
0.0241263
0.0239419
0.0236752
0.0232962
0.0227777
0.0220933
0.0212313
0.0201672
0.0189332
0.0248522
0.0247532
0.0246287
0.024499
0.0243778
0.0242654
0.0241505
0.0240118
0.0238223
0.0235518
0.0231711
0.022654
0.0219762
0.0211281
0.0200899
0.0188917
0.0251122
0.0250414
0.0249477
0.024845
0.0247392
0.0246259
0.024494
0.0243259
0.0240985
0.0237853
0.0233568
0.0227824
0.022031
0.021078
0.019905
0.0185342
0.0251188
0.025044
0.0249503
0.0248471
0.0247406
0.0246271
0.0244949
0.0243284
0.0241026
0.0237913
0.0233646
0.0227918
0.0220415
0.0210911
0.0199188
0.0185522
0.0251102
0.0250271
0.0249289
0.0248232
0.024717
0.0246074
0.0244829
0.0243235
0.024107
0.0238053
0.0233885
0.0228263
0.022087
0.0211508
0.0199918
0.0186438
0.0250864
0.0249925
0.0248855
0.0247732
0.0246641
0.024556
0.0244371
0.0242877
0.0240827
0.0237933
0.023389
0.0228401
0.0221148
0.0211975
0.0200529
0.0187261
0.025049
0.024945
0.0248273
0.0247051
0.0245888
0.0244777
0.0243607
0.0242175
0.0240215
0.0237427
0.0233497
0.022813
0.0221007
0.0211998
0.0200739
0.0187709
0.0249995
0.0248874
0.0247596
0.0246266
0.0245005
0.0243827
0.024263
0.0241211
0.0239296
0.0236574
0.0232725
0.0227454
0.0220451
0.0211607
0.0200565
0.0187816
0.0249401
0.0248225
0.0246867
0.0245441
0.0244082
0.0242819
0.0241562
0.0240111
0.023819
0.0235484
0.023167
0.0226463
0.0219563
0.0210882
0.0200098
0.0187685
0.0248741
0.0247535
0.0246125
0.0244627
0.0243188
0.0241843
0.024051
0.0238994
0.0237023
0.0234283
0.0230461
0.022528
0.0218466
0.0209947
0.019946
0.0187432
0.0251657
0.0250729
0.0249603
0.0248428
0.0247272
0.0246096
0.0244782
0.0243165
0.0240986
0.0237967
0.0233786
0.0228094
0.0220515
0.0210719
0.0198389
0.0183743
0.0251732
0.0250744
0.024961
0.0248417
0.0247238
0.0246047
0.0244736
0.0243113
0.0240944
0.0237946
0.0233786
0.0228116
0.0220555
0.0210799
0.0198477
0.0183917
0.0251624
0.0250532
0.024933
0.0248082
0.0246875
0.0245695
0.0244431
0.024289
0.0240824
0.0237927
0.0233875
0.0228322
0.0220878
0.0211279
0.0199058
0.0184682
0.0251365
0.0250152
0.0248841
0.0247494
0.0246222
0.0245027
0.0243801
0.0242345
0.024039
0.0237623
0.0233703
0.0228288
0.0220983
0.0211557
0.0199457
0.018528
0.0250977
0.024966
0.0248233
0.0246763
0.0245386
0.0244127
0.0242893
0.0241482
0.0239611
0.0236952
0.023315
0.0227864
0.0220691
0.0211436
0.0199499
0.0185567
0.0250469
0.0249074
0.0247547
0.0245956
0.0244457
0.0243101
0.0241813
0.0240395
0.0238558
0.0235961
0.0232242
0.0227057
0.0220008
0.0210933
0.0199226
0.0185619
0.024986
0.0248413
0.0246811
0.024512
0.0243507
0.0242045
0.0240675
0.0239207
0.0237351
0.0234764
0.0231077
0.0225957
0.021902
0.0210131
0.0198732
0.0185541
0.0249178
0.0247704
0.0246055
0.0244294
0.0242595
0.024104
0.023958
0.0238034
0.0236117
0.0233487
0.0229786
0.0224691
0.0217849
0.0209149
0.0198125
0.0185432
0.0252562
0.0251411
0.0250085
0.0248756
0.0247508
0.0246315
0.0245066
0.0243575
0.024159
0.0238806
0.0234854
0.0229318
0.0221702
0.021149
0.0198095
0.0181589
0.0252653
0.0251424
0.0250092
0.0248746
0.0247472
0.0246258
0.0245003
0.0243521
0.0241558
0.02388
0.0234884
0.0229387
0.0221808
0.0211662
0.0198276
0.0181883
0.0252522
0.0251175
0.0249761
0.0248339
0.0247015
0.0245794
0.0244575
0.0243169
0.0241309
0.0238669
0.0234878
0.0229516
0.0222073
0.0212093
0.0198756
0.0182468
0.0252227
0.0250751
0.0249212
0.0247666
0.0246245
0.0244979
0.0243778
0.0242445
0.0240697
0.023819
0.0234539
0.0229319
0.0222008
0.0212179
0.0198891
0.018273
0.0251801
0.0250218
0.0248557
0.0246868
0.0245311
0.0243947
0.0242708
0.0241397
0.0239722
0.0237319
0.0233784
0.0228691
0.0221505
0.0211833
0.0198669
0.0182751
0.0251254
0.0249592
0.0247831
0.024601
0.0244306
0.0242812
0.0241485
0.024014
0.0238478
0.0236124
0.0232662
0.0227662
0.0220595
0.0211108
0.0198191
0.0182684
0.0250601
0.0248888
0.0247055
0.0245128
0.0243294
0.0241668
0.0240228
0.0238802
0.0237096
0.0234729
0.0231282
0.0226332
0.0219373
0.0210097
0.019756
0.0182642
0.0249873
0.0248131
0.0246253
0.0244253
0.0242322
0.0240585
0.0239032
0.0237503
0.0235709
0.0233273
0.0229785
0.0224838
0.0217966
0.0208913
0.0196874
0.0182694
0.0253814
0.0252456
0.0250946
0.024948
0.0248163
0.0246985
0.0245847
0.0244565
0.0242877
0.0240452
0.0236879
0.0231661
0.0224124
0.0213447
0.0198588
0.0179143
0.0253928
0.025247
0.0250953
0.0249471
0.0248124
0.024692
0.024577
0.0244496
0.0242836
0.0240453
0.0236938
0.0231767
0.0224284
0.021369
0.019884
0.017947
0.0253782
0.0252194
0.0250584
0.0249011
0.0247592
0.0246357
0.0245227
0.0244019
0.0242461
0.0240203
0.0236822
0.0231796
0.0224445
0.0213964
0.0199039
0.0179483
0.0253452
0.0251729
0.0249988
0.0248274
0.024673
0.0245418
0.0244276
0.0243121
0.0241665
0.0239538
0.0236298
0.0231409
0.0224167
0.0213761
0.0198758
0.01791
0.0252978
0.0251148
0.0249286
0.0247419
0.0245716
0.0244273
0.0243056
0.0241892
0.0240486
0.0238447
0.0235313
0.0230533
0.0223393
0.0213091
0.019815
0.017868
0.0252372
0.0250465
0.0248508
0.0246507
0.0244641
0.0243038
0.0241694
0.0240455
0.0239027
0.0237009
0.0233923
0.0229213
0.0222176
0.0212048
0.0197382
0.0178461
0.0251655
0.0249695
0.0247669
0.0245563
0.0243556
0.0241794
0.0240301
0.023894
0.0237425
0.0235352
0.0232244
0.0227548
0.0220602
0.0210713
0.0196544
0.0178542
0.0250857
0.0248867
0.0246796
0.0244613
0.0242496
0.0240603
0.0238966
0.0237463
0.0235815
0.0233623
0.0230422
0.0225683
0.02188
0.020918
0.0195686
0.0178915
0.025539
0.0253851
0.0252187
0.0250622
0.0249275
0.0248161
0.0247197
0.0246208
0.0244934
0.0243031
0.0240053
0.0235401
0.0228211
0.0217204
0.0200547
0.017679
0.0255532
0.0253866
0.0252192
0.025061
0.024923
0.0248082
0.0247099
0.0246117
0.0244875
0.0243023
0.0240109
0.0235523
0.022838
0.0217376
0.0200529
0.0176256
0.025538
0.0253575
0.0251803
0.025012
0.0248647
0.0247444
0.024646
0.0245531
0.0244389
0.0242669
0.0239905
0.0235463
0.0228415
0.0217332
0.0199993
0.0174505
0.0255022
0.025308
0.0251177
0.0249345
0.0247729
0.024642
0.0245394
0.0244493
0.0243439
0.0241846
0.0239227
0.0234915
0.0227934
0.0216731
0.019898
0.0172542
0.0254498
0.025245
0.0250432
0.0248451
0.0246665
0.0245199
0.0244062
0.0243116
0.0242082
0.0240558
0.0238034
0.0233814
0.0226904
0.0215679
0.0197841
0.0171142
0.0253826
0.02517
0.0249594
0.0247486
0.0245533
0.0243885
0.0242584
0.0241517
0.0240416
0.0238872
0.0236363
0.0232178
0.0225349
0.0214252
0.0196736
0.0170588
0.0253028
0.0250848
0.0248676
0.0246465
0.0244365
0.0242539
0.0241051
0.0239811
0.0238564
0.0236902
0.0234307
0.0230074
0.0223307
0.0212474
0.019569
0.0170986
0.025214
0.0249927
0.0247706
0.0245414
0.0243194
0.0241212
0.0239542
0.0238106
0.023666
0.0234799
0.023202
0.0227642
0.0220879
0.0210383
0.0194696
0.0172389
0.025725
0.0255555
0.0253779
0.0252161
0.0250838
0.0249849
0.0249134
0.0248538
0.0247812
0.0246621
0.0244513
0.0240843
0.0234584
0.0223923
0.0205646
0.0175844
0.0257416
0.0255572
0.025378
0.0252146
0.0250785
0.0249754
0.0249014
0.0248421
0.0247732
0.0246603
0.0244575
0.0240988
0.0234762
0.0223913
0.0204563
0.0171766
0.0257269
0.0255278
0.0253385
0.0251645
0.025018
0.0249075
0.0248314
0.0247764
0.0247176
0.0246196
0.0244351
0.0240948
0.0234822
0.0223654
0.0202842
0.0165811
0.0256893
0.0254764
0.0252743
0.0250858
0.0249242
0.0248012
0.0247185
0.0246642
0.0246135
0.0245292
0.0243622
0.0240395
0.0234365
0.0222915
0.0201049
0.0160644
0.0256324
0.0254088
0.025196
0.0249938
0.0248154
0.0246754
0.024579
0.0245172
0.0244659
0.0243874
0.0242308
0.02392
0.0233282
0.0221744
0.0199552
0.0157298
0.025558
0.0253265
0.0251055
0.0248917
0.0246972
0.0245381
0.0244224
0.0243443
0.0242816
0.0241966
0.0240381
0.0237288
0.0231463
0.0220039
0.0198274
0.0155832
0.0254691
0.0252318
0.0250042
0.0247806
0.0245714
0.0243929
0.024255
0.024154
0.0240696
0.0239644
0.023788
0.0234635
0.0228807
0.0217625
0.0197041
0.0156342
0.0253695
0.0251287
0.0248958
0.0246633
0.0244407
0.0242439
0.0240834
0.0239561
0.0238427
0.0237057
0.0234954
0.0231353
0.0225318
0.0214328
0.0195723
0.0159558
0.0259328
0.0257502
0.0255653
0.0254033
0.0252794
0.0251995
0.0251607
0.0251501
0.0251458
0.0251173
0.0250246
0.0248102
0.0243794
0.0235452
0.0218947
0.0186077
0.0259513
0.0257523
0.0255652
0.0254015
0.0252733
0.0251885
0.0251465
0.0251362
0.0251362
0.0251158
0.0250339
0.0248323
0.0244128
0.0235682
0.0217439
0.017761
0.0259382
0.0257236
0.0255262
0.0253522
0.025213
0.0251196
0.0250743
0.0250679
0.0250793
0.0250771
0.0250202
0.0248494
0.0244604
0.0236099
0.021595
0.0168204
0.0258996
0.025671
0.0254615
0.025274
0.0251201
0.0250136
0.0249605
0.024954
0.024974
0.0249889
0.0249569
0.0248178
0.0244632
0.0236232
0.021502
0.0161231
0.0258385
0.0255992
0.0253796
0.02518
0.0250106
0.0248873
0.0248194
0.0248035
0.0248218
0.024843
0.0248257
0.0247094
0.0243869
0.0235768
0.0214523
0.0157149
0.0257569
0.0255095
0.025282
0.025072
0.0248878
0.0247453
0.0246564
0.0246209
0.0246236
0.0246343
0.0246125
0.0244988
0.0241938
0.0234192
0.0213801
0.0155216
0.025658
0.0254045
0.0251702
0.0249506
0.0247518
0.0245889
0.0244747
0.0244107
0.0243837
0.0243641
0.024312
0.0241677
0.0238466
0.023084
0.021207
0.015464
0.0255468
0.0252891
0.0250487
0.0248192
0.0246053
0.0244212
0.0242793
0.0241813
0.0241141
0.0240468
0.0239377
0.0237213
0.0233243
0.0224825
0.0208188
0.015473
0.0256072
0.0253329
0.0250809
0.024846
0.0246291
0.0244413
0.0242947
0.0241928
0.024126
0.0240664
0.0239751
0.0237861
0.0234334
0.0226481
0.0211128
0.0159112
0.0254784
0.0252035
0.0249457
0.0246981
0.0244624
0.02425
0.0240713
0.0239269
0.0238034
0.0236677
0.0234731
0.0231407
0.0225771
0.0215221
0.0196919
0.0161141
0.0253609
0.025088
0.0248263
0.0245678
0.0243168
0.024085
0.0238814
0.0237038
0.0235348
0.0233392
0.0230673
0.0226483
0.0219938
0.0209696
0.0193797
0.0171993
0.0252623
0.0249948
0.0247324
0.0244676
0.0242079
0.0239654
0.0237471
0.0235478
0.0233473
0.0231105
0.0227897
0.0223299
0.0216572
0.0207205
0.0193614
0.0177265
0.025189
0.0249298
0.024671
0.024407
0.0241474
0.0239039
0.0236806
0.0234695
0.0232486
0.0229844
0.0226335
0.0221536
0.0214852
0.0206107
0.0194181
0.0180341
0.0251406
0.0248939
0.0246439
0.0243882
0.0241373
0.0239006
0.0236791
0.0234624
0.0232282
0.0229449
0.0225741
0.0220816
0.0214208
0.020585
0.0195078
0.0182712
0.0251114
0.0248819
0.0246436
0.0244007
0.0241638
0.0239394
0.0237259
0.0235109
0.0232719
0.0229795
0.0225989
0.0221
0.0214456
0.0206293
0.0196122
0.0184426
0.025088
0.0248801
0.024651
0.0244172
0.0241925
0.0239822
0.023782
0.0235778
0.0233466
0.023059
0.0226823
0.0221865
0.0215386
0.0207274
0.0197233
0.0185581
0.0257893
0.0255031
0.025247
0.0250197
0.0248189
0.0246542
0.0245377
0.0244753
0.0244613
0.0244727
0.024476
0.0244099
0.0242051
0.0235716
0.021968
0.0161598
0.0256455
0.0253582
0.025095
0.0248517
0.0246272
0.0244307
0.0242726
0.0241553
0.0240679
0.0239797
0.0238446
0.0235793
0.0230753
0.0220201
0.0200078
0.0158322
0.0255138
0.0252279
0.0249595
0.0247019
0.0244564
0.0242329
0.0240407
0.0238789
0.0237321
0.0235655
0.0233275
0.0229402
0.0223008
0.0212425
0.0195219
0.0170662
0.025403
0.0251219
0.0248515
0.0245843
0.0243246
0.0240837
0.0238693
0.0236777
0.02349
0.0232708
0.0229694
0.0225252
0.0218532
0.0208905
0.0194458
0.017682
0.0253196
0.0250468
0.0247789
0.0245094
0.0242457
0.0239991
0.0237751
0.0235674
0.0233546
0.0231025
0.0227643
0.0222941
0.0216229
0.0207302
0.0194778
0.0180162
0.025264
0.0250038
0.0247438
0.0244807
0.0242233
0.0239816
0.0237581
0.0235437
0.0233162
0.023043
0.0226825
0.0221973
0.0215335
0.0206841
0.0195653
0.0182762
0.0252301
0.0249877
0.0247394
0.0244885
0.0242449
0.0240161
0.0238016
0.0235899
0.0233584
0.023076
0.0227054
0.0222133
0.0215571
0.0207299
0.0196822
0.0184714
0.0252043
0.0249853
0.0247468
0.0245056
0.0242752
0.0240618
0.0238624
0.0236634
0.0234412
0.023165
0.0227994
0.0223114
0.0216633
0.0208427
0.0198117
0.0186072
0.0259671
0.0256715
0.0254131
0.0251945
0.0250118
0.0248729
0.0247903
0.0247711
0.0248124
0.0248935
0.0249826
0.0250153
0.0249079
0.0243239
0.0226033
0.0162496
0.0258087
0.0255112
0.0252443
0.0250068
0.0247956
0.024618
0.0244845
0.0243982
0.0243496
0.0243088
0.0242286
0.0240182
0.0235519
0.0224698
0.0202963
0.0156919
0.0256627
0.0253661
0.0250927
0.0248379
0.0246003
0.0243885
0.0242114
0.0240692
0.0239471
0.02381
0.0236038
0.0232426
0.0226099
0.0215107
0.0196697
0.0169869
0.0255394
0.0252472
0.0249706
0.0247031
0.0244463
0.0242104
0.0240033
0.0238225
0.0236496
0.0234485
0.0231654
0.0227341
0.0220591
0.0210666
0.0195409
0.0176591
0.0254459
0.0251618
0.0248868
0.0246144
0.0243494
0.0241029
0.0238812
0.023679
0.0234757
0.0232359
0.0229099
0.0224477
0.0217723
0.0208597
0.0195513
0.0180175
0.025383
0.0251116
0.0248439
0.0245759
0.0243148
0.0240708
0.0238475
0.0236369
0.023417
0.0231541
0.0228034
0.0223247
0.0216575
0.0207939
0.0196362
0.0182975
0.0253445
0.0250914
0.0248354
0.0245789
0.0243311
0.0241002
0.0238865
0.0236793
0.0234558
0.0231836
0.0228225
0.0223368
0.0216784
0.0208403
0.0197635
0.0185135
0.0253165
0.0250886
0.0248431
0.0245967
0.024363
0.0241486
0.0239516
0.0237588
0.0235461
0.0232814
0.0229264
0.0224457
0.0217971
0.0209671
0.0199103
0.0186684
0.0261319
0.025829
0.0255695
0.0253598
0.0251949
0.0250817
0.0250328
0.0250561
0.0251494
0.025293
0.0254531
0.0255582
0.0255072
0.024921
0.0230597
0.0162436
0.0259596
0.0256543
0.025385
0.0251538
0.024956
0.024798
0.0246897
0.0246346
0.0246235
0.024626
0.0245919
0.0244217
0.0239738
0.0228506
0.0205304
0.0155963
0.0258003
0.0254952
0.0252183
0.024967
0.0247383
0.0245393
0.0243789
0.0242572
0.0241596
0.02405
0.023871
0.0235289
0.022895
0.0217523
0.0198039
0.0169395
0.0256652
0.025364
0.0250829
0.0248163
0.0245639
0.0243347
0.0241368
0.0239681
0.0238104
0.0236265
0.0233594
0.0229374
0.0222561
0.0212329
0.0196344
0.017652
0.0255621
0.0252688
0.0249886
0.0247148
0.0244505
0.024206
0.0239884
0.0237932
0.0235997
0.0233718
0.0230566
0.0226007
0.0219195
0.0209869
0.0196286
0.0180313
0.0254923
0.0252117
0.0249383
0.0246673
0.0244045
0.0241601
0.0239387
0.023733
0.0235209
0.0232677
0.022926
0.0224529
0.0217817
0.0209043
0.0197118
0.0183287
0.0254496
0.0251878
0.024926
0.0246658
0.0244158
0.0241844
0.0239727
0.0237707
0.0235552
0.0232927
0.0229405
0.0224604
0.0217998
0.0209511
0.019848
0.0185623
0.0254196
0.0251844
0.0249338
0.0246842
0.0244489
0.0242352
0.0240416
0.0238554
0.0236522
0.0233983
0.0230532
0.022579
0.0219295
0.0210902
0.0200099
0.0187339
0.0262751
0.0259668
0.0257071
0.0255055
0.0253566
0.0252666
0.0252479
0.0253088
0.0254472
0.0256423
0.0258571
0.0260116
0.0259894
0.0253769
0.0233829
0.0161975
0.0260908
0.0257795
0.0255089
0.0252836
0.0250982
0.024958
0.0248728
0.0248459
0.0248678
0.0249065
0.0249083
0.0247652
0.0243223
0.023153
0.0207073
0.0155203
0.0259198
0.0256082
0.0253288
0.0250812
0.0248609
0.0246742
0.0245296
0.024427
0.0243516
0.0242654
0.0241078
0.0237781
0.0231378
0.0219533
0.0199145
0.0169103
0.0257743
0.0254661
0.0251817
0.0249167
0.024669
0.0244468
0.0242583
0.0241014
0.0239578
0.0237888
0.0235345
0.0231185
0.0224291
0.0213771
0.0197172
0.0176541
0.0256626
0.0253623
0.0250781
0.024804
0.0245413
0.0242999
0.0240871
0.0238989
0.0237148
0.0234973
0.0231911
0.0227395
0.0220522
0.0211009
0.0197004
0.0180507
0.0255868
0.0252991
0.0250214
0.0247487
0.0244855
0.0242419
0.0240231
0.0238224
0.0236177
0.0233733
0.0230393
0.0225704
0.0218953
0.0210054
0.0197834
0.0183627
0.0255404
0.0252718
0.0250057
0.0247433
0.0244923
0.0242615
0.0240525
0.0238557
0.0236476
0.0233938
0.0230493
0.0225739
0.021911
0.0210527
0.0199271
0.018611
0.0255087
0.0252679
0.0250137
0.0247623
0.0245266
0.0243142
0.0241244
0.0239447
0.0237502
0.0235059
0.0231693
0.0227005
0.0220499
0.0212022
0.0201015
0.0187964
0.0263896
0.0260776
0.0258181
0.0256233
0.0254874
0.0254161
0.0254221
0.0255133
0.0256871
0.0259213
0.0261753
0.0263617
0.0263516
0.0257075
0.0236069
0.0161505
0.0261956
0.0258801
0.0256088
0.0253886
0.0252133
0.0250878
0.0250217
0.0250178
0.0250661
0.0251326
0.0251604
0.0250342
0.024589
0.0233777
0.0208345
0.0154647
0.0260151
0.0256989
0.025418
0.0251737
0.0249606
0.0247842
0.0246529
0.0245663
0.0245089
0.0244411
0.0242991
0.0239767
0.0233278
0.0221076
0.0199991
0.0168941
0.0258612
0.025548
0.0252614
0.024998
0.0247547
0.0245388
0.0243586
0.0242118
0.0240799
0.0239228
0.0236781
0.0232654
0.0225678
0.0214916
0.0197843
0.0176614
0.0257427
0.0254372
0.0251504
0.0248765
0.0246157
0.0243774
0.0241692
0.0239874
0.0238111
0.0236021
0.0233028
0.0228539
0.0221609
0.0211941
0.0197609
0.018071
0.025662
0.0253691
0.0250884
0.0248149
0.024552
0.0243098
0.0240937
0.0238976
0.0236992
0.0234619
0.023134
0.0226682
0.0219896
0.0210893
0.0198442
0.0183942
0.0256127
0.0253391
0.02507
0.0248064
0.0245553
0.0243255
0.0241191
0.0239269
0.0237252
0.0234784
0.0231401
0.0226682
0.0220033
0.0211371
0.0199938
0.0186537
0.0255797
0.0253348
0.0250782
0.0248258
0.0245903
0.0243797
0.0241935
0.0240193
0.023832
0.0235956
0.0232659
0.0228012
0.0221495
0.0212946
0.0201778
0.0188495
0.0264693
0.0261551
0.0258961
0.0257063
0.0255799
0.025522
0.0255456
0.0256584
0.0258574
0.0261187
0.026399
0.0266051
0.0266001
0.0259312
0.0237586
0.0161283
0.0262685
0.0259506
0.0256791
0.0254627
0.0252949
0.0251801
0.0251278
0.0251406
0.0252079
0.0252942
0.0253396
0.025224
0.0247752
0.0235326
0.0209225
0.0154342
0.0260815
0.0257624
0.0254808
0.025239
0.0250314
0.0248628
0.0247414
0.0246668
0.0246227
0.0245683
0.0244372
0.0241191
0.023463
0.0222164
0.0200602
0.0168905
0.0259217
0.0256054
0.0253176
0.0250558
0.0248159
0.0246051
0.0244314
0.0242926
0.0241695
0.0240213
0.0237835
0.0233728
0.0226688
0.0215752
0.0198361
0.0176746
0.0257984
0.0254897
0.0252014
0.0249281
0.0246692
0.0244338
0.0242296
0.024053
0.0238829
0.0236803
0.0233861
0.022939
0.0222418
0.021264
0.0198088
0.018092
0.0257144
0.0254182
0.0251359
0.0248623
0.0246003
0.0243597
0.0241462
0.0239539
0.0237605
0.0235286
0.0232051
0.0227415
0.0220604
0.0211525
0.0198917
0.0184215
0.025663
0.0253864
0.0251156
0.0248516
0.024601
0.0243724
0.0241685
0.02398
0.023783
0.0235415
0.0232075
0.0227381
0.0220718
0.0211998
0.0200443
0.0186873
0.025629
0.0253816
0.0251237
0.0248709
0.0246361
0.024427
0.0242436
0.0240737
0.0238916
0.0236608
0.0233359
0.022874
0.0222213
0.0213613
0.0202333
0.0188889