/*--------------------------------*- C++ -*----------------------------------*\
| =========                 |                                                 |
| \\      /  F ield         | foam-extend: Open Source CFD                    |
|  \\    /   O peration     | Version:     3.1                                |
|   \\  /    A nd           | Web:         http://www.extend-project.de       |
|    \\/     M anipulation  |                                                 |
\*---------------------------------------------------------------------------*/
FoamFile
{
    version     2.0;
    format      ascii;
    class       pointVectorField;
    location    "2.7";
    object      pointMotionU;
}
// * * * * * * * * * * * * * * * * * * * * * * * * * * * * * * * * * * * * * //

dimensions      [0 1 -1 0 0 0 0];

internalField   nonuniform List<vector> 
16859
(
(0 0 0)
(0 0 0)
(0 0 0)
(0 0 0)
(0 0 0)
(0 0 0)
(0 0 0)
(0 0 0)
(0 0 0)
(0 0 0)
(0 0 0)
(0 0 0)
(0 0 0)
(0 0 0)
(0 0 0)
(0 0 0)
(0 0 0)
(0 0 0)
(-8.18372e-12 -6.0331e-13 1.80666e-12)
(-1.58973e-11 -1.28144e-12 3.59676e-12)
(-2.32195e-11 -2.151e-12 5.46223e-12)
(-3.04891e-11 -3.36749e-12 7.54045e-12)
(-3.80564e-11 -5.13239e-12 9.96313e-12)
(-4.6304e-11 -7.72276e-12 1.28603e-11)
(-5.56563e-11 -1.15261e-11 1.6356e-11)
(-6.65609e-11 -1.70773e-11 2.05509e-11)
(-7.94122e-11 -2.50895e-11 2.54795e-11)
(-9.4361e-11 -3.64472e-11 3.10229e-11)
(-1.10927e-10 -5.20911e-11 3.67457e-11)
(-1.27326e-10 -7.26497e-11 4.16179e-11)
(-1.3958e-10 -9.75642e-11 4.36375e-11)
(-1.41133e-10 -1.23412e-10 3.97328e-11)
(-1.25346e-10 -1.4096e-10 2.83197e-11)
(2.21598e-11 -1.44021e-10 -1.06821e-10)
(0 0 0)
(-1.61968e-11 -1.10566e-12 3.54506e-12)
(-3.1455e-11 -2.34868e-12 7.05505e-12)
(-4.59261e-11 -3.94286e-12 1.07084e-11)
(-6.02778e-11 -6.17245e-12 1.47727e-11)
(-7.52033e-11 -9.40476e-12 1.95055e-11)
(-9.14695e-11 -1.4145e-11 2.51625e-11)
(-1.09947e-10 -2.10995e-11 3.19941e-11)
(-1.31603e-10 -3.12482e-11 4.02178e-11)
(-1.57394e-10 -4.59129e-11 4.9953e-11)
(-1.87989e-10 -6.6777e-11 6.10847e-11)
(-2.23149e-10 -9.57503e-11 7.30146e-11)
(-2.60588e-10 -1.34442e-10 8.42543e-11)
(-2.94325e-10 -1.82777e-10 9.19212e-11)
(-3.13533e-10 -2.35988e-10 9.17659e-11)
(-3.05528e-10 -2.78132e-10 8.19374e-11)
(-1.25828e-10 -3.33673e-10 -4.01081e-11)
(0 0 0)
(-2.38935e-11 -1.426e-12 5.15653e-12)
(-4.63833e-11 -3.03016e-12 1.02557e-11)
(-6.76799e-11 -5.08852e-12 1.55517e-11)
(-8.87598e-11 -7.96617e-12 2.14292e-11)
(-1.10642e-10 -1.21334e-11 2.82583e-11)
(-1.3447e-10 -1.82347e-11 3.64109e-11)
(-1.61582e-10 -2.71698e-11 4.62605e-11)
(-1.93545e-10 -4.01916e-11 5.81585e-11)
(-2.32102e-10 -5.90093e-11 7.23693e-11)
(-2.78942e-10 -8.58619e-11 8.89353e-11)
(-3.35082e-10 -1.23465e-10 1.07433e-10)
(-3.99599e-10 -1.7458e-10 1.26582e-10)
(-4.67434e-10 -2.40635e-10 1.43762e-10)
(-5.26763e-10 -3.18035e-10 1.54956e-10)
(-5.58919e-10 -3.88062e-10 1.57703e-10)
(-4.41157e-10 -5.74923e-10 5.79413e-11)
(0 0 0)
(-3.11379e-11 -1.51508e-12 6.59108e-12)
(-6.04134e-11 -3.22206e-12 1.30974e-11)
(-8.80757e-11 -5.41555e-12 1.98338e-11)
(-1.15376e-10 -8.48234e-12 2.7282e-11)
(-1.43626e-10 -1.29176e-11 3.59054e-11)
(-1.74315e-10 -1.93943e-11 4.61723e-11)
(-2.0923e-10 -2.88468e-11 5.85641e-11)
(-2.50558e-10 -4.25716e-11 7.35616e-11)
(-3.00944e-10 -6.23422e-11 9.1598e-11)
(-3.63408e-10 -9.05187e-11 1.12958e-10)
(-4.40945e-10 -1.30087e-10 1.37594e-10)
(-5.3543e-10 -1.8444e-10 1.64825e-10)
(-6.45194e-10 -2.56346e-10 1.92922e-10)
(-7.60544e-10 -3.44405e-10 2.1874e-10)
(-8.57766e-10 -4.31029e-10 2.38747e-10)
(-8.652e-10 -7.20212e-10 1.9877e-10)
(0 0 0)
(-3.78147e-11 -1.36259e-12 7.81136e-12)
(-7.33184e-11 -2.90358e-12 1.55047e-11)
(-1.06772e-10 -4.89205e-12 2.34368e-11)
(-1.39655e-10 -7.6774e-12 3.21616e-11)
(-1.73517e-10 -1.17018e-11 4.22092e-11)
(-2.10131e-10 -1.7558e-11 5.41153e-11)
(-2.51656e-10 -2.60566e-11 6.8436e-11)
(-3.00809e-10 -3.83035e-11 8.57454e-11)
(-3.6103e-10 -5.57861e-11 1.06609e-10)
(-4.3658e-10 -8.04561e-11 1.31518e-10)
(-5.32398e-10 -1.14771e-10 1.60775e-10)
(-6.53324e-10 -1.61578e-10 1.94287e-10)
(-8.01752e-10 -2.23466e-10 2.31243e-10)
(-9.71788e-10 -3.00133e-10 2.69576e-10)
(-1.13782e-09 -3.78144e-10 3.05346e-10)
(-1.3304e-09 -6.96661e-10 3.57065e-10)
(0 0 0)
(-4.38328e-11 -9.97157e-13 8.79475e-12)
(-8.49206e-11 -2.13658e-12 1.74323e-11)
(-1.23505e-10 -3.62486e-12 2.62904e-11)
(-1.61236e-10 -5.72558e-12 3.59675e-11)
(-1.99834e-10 -8.76597e-12 4.70296e-11)
(-2.41264e-10 -1.31746e-11 6.0043e-11)
(-2.87925e-10 -1.95187e-11 7.55921e-11)
(-3.42869e-10 -2.8539e-11 9.42818e-11)
(-4.10029e-10 -4.11747e-11 1.1672e-10)
(-4.94419e-10 -5.85578e-11 1.43472e-10)
(-6.02143e-10 -8.19422e-11 1.74961e-10)
(-7.39788e-10 -1.12492e-10 2.11302e-10)
(-9.12118e-10 -1.50753e-10 2.51968e-10)
(-1.11556e-09 -1.9516e-10 2.95098e-10)
(-1.32479e-09 -2.36881e-10 3.36074e-10)
(-1.66596e-09 -4.7993e-10 4.62706e-10)
(0 0 0)
(-4.91281e-11 -4.79993e-13 9.5343e-12)
(-9.50982e-11 -1.05125e-12 1.88668e-11)
(-1.381e-10 -1.83406e-12 2.83758e-11)
(-1.79894e-10 -2.97562e-12 3.86754e-11)
(-2.22296e-10 -4.65314e-12 5.03364e-11)
(-2.67356e-10 -7.08719e-12 6.39173e-11)
(-3.17563e-10 -1.05472e-11 7.998e-11)
(-3.76062e-10 -1.53414e-11 9.90899e-11)
(-4.46894e-10 -2.1777e-11 1.21793e-10)
(-5.35193e-10 -3.00616e-11 1.4856e-10)
(-6.47186e-10 -4.01006e-11 1.79663e-10)
(-7.89529e-10 -5.11316e-11 2.14949e-10)
(-9.6687e-10 -6.11517e-11 2.53364e-10)
(-1.17511e-09 -6.62396e-11 2.91958e-10)
(-1.3889e-09 -6.04121e-11 3.24203e-10)
(-1.6817e-09 -1.20838e-10 3.84513e-10)
(0 0 0)
(-5.36581e-11 1.06128e-13 1.00372e-11)
(-1.03775e-10 1.77402e-13 1.98246e-11)
(-1.50461e-10 1.88205e-13 2.97223e-11)
(-1.95527e-10 1.16608e-13 4.03339e-11)
(-2.40809e-10 -5.88519e-14 5.22066e-11)
(-2.8835e-10 -3.51034e-13 6.58569e-11)
(-3.40582e-10 -7.44784e-13 8.17812e-11)
(-4.0053e-10 -1.15774e-12 1.00448e-10)
(-4.72008e-10 -1.36355e-12 1.2226e-10)
(-5.59762e-10 -8.53181e-13 1.47474e-10)
(-6.69372e-10 1.39966e-12 1.76045e-10)
(-8.06522e-10 7.3019e-12 2.07315e-10)
(-9.74713e-10 2.01025e-11 2.39438e-10)
(-1.16987e-09 4.47161e-11 2.68311e-10)
(-1.37486e-09 8.80807e-11 2.86161e-10)
(-1.55632e-09 1.93119e-10 2.21892e-10)
(0 0 0)
(0 0 0)
(0 0 0)
(0 0 0)
(0 0 0)
(0 0 0)
(0 0 0)
(0 0 0)
(0 0 0)
(0 0 0)
(0 0 0)
(0 0 0)
(0 0 0)
(0 0 0)
(0 0 0)
(0 0 0)
(0 0 0)
(0 0 0)
(-7.19688e-12 -6.59087e-13 1.78044e-12)
(-1.39337e-11 -1.39854e-12 3.54712e-12)
(-2.02425e-11 -2.34497e-12 5.39397e-12)
(-2.63934e-11 -3.66815e-12 7.46109e-12)
(-3.26739e-11 -5.58939e-12 9.88534e-12)
(-3.94107e-11 -8.41542e-12 1.28053e-11)
(-4.6982e-11 -1.25792e-11 1.63581e-11)
(-5.58101e-11 -1.86863e-11 2.06624e-11)
(-6.63054e-11 -2.75578e-11 2.57739e-11)
(-7.87101e-11 -4.02398e-11 3.15901e-11)
(-9.27684e-11 -5.79069e-11 3.7662e-11)
(-1.07158e-10 -8.15136e-11 4.28533e-11)
(-1.18801e-10 -1.10952e-10 4.48159e-11)
(-1.22897e-10 -1.43448e-10 3.9636e-11)
(-1.16474e-10 -1.70857e-10 2.45233e-11)
(-9.79916e-11 -2.05831e-10 -6.65689e-11)
(0 0 0)
(-1.42477e-11 -1.20983e-12 3.4932e-12)
(-2.75773e-11 -2.56701e-12 6.95679e-12)
(-4.00481e-11 -4.3035e-12 1.0573e-11)
(-5.21922e-11 -6.7296e-12 1.46149e-11)
(-6.45797e-11 -1.02487e-11 1.93497e-11)
(-7.78667e-11 -1.54196e-11 2.50504e-11)
(-9.28342e-11 -2.30318e-11 3.19932e-11)
(-1.10401e-10 -3.41951e-11 4.04326e-11)
(-1.31565e-10 -5.04349e-11 5.05335e-11)
(-1.57199e-10 -7.37488e-11 6.22231e-11)
(-1.87547e-10 -1.06526e-10 7.49037e-11)
(-2.21289e-10 -1.5109e-10 8.69466e-11)
(-2.54179e-10 -2.08419e-10 9.49696e-11)
(-2.78248e-10 -2.75195e-10 9.3503e-11)
(-2.85187e-10 -3.3693e-10 7.86939e-11)
(-2.79856e-10 -4.30088e-10 1.3122e-11)
(0 0 0)
(-2.1028e-11 -1.56535e-12 5.08012e-12)
(-4.06834e-11 -3.32125e-12 1.01107e-11)
(-5.90423e-11 -5.56701e-12 1.53514e-11)
(-7.68819e-11 -8.70109e-12 2.11943e-11)
(-9.50405e-11 -1.32393e-11 2.80243e-11)
(-1.14499e-10 -1.9894e-11 3.62376e-11)
(-1.36462e-10 -2.96701e-11 4.62462e-11)
(-1.62429e-10 -4.39873e-11 5.84574e-11)
(-1.94213e-10 -6.48211e-11 7.32087e-11)
(-2.33828e-10 -9.48379e-11 9.06229e-11)
(-2.83075e-10 -1.37439e-10 1.10322e-10)
(-3.42563e-10 -1.9648e-10 1.30924e-10)
(-4.09826e-10 -2.75096e-10 1.49314e-10)
(-4.76562e-10 -3.7203e-10 1.60133e-10)
(-5.26117e-10 -4.69795e-10 1.58159e-10)
(-6.05527e-10 -6.54804e-10 1.17117e-10)
(0 0 0)
(-2.74211e-11 -1.67272e-12 6.49162e-12)
(-5.30223e-11 -3.54983e-12 1.29083e-11)
(-7.68797e-11 -5.95049e-12 1.95716e-11)
(-9.99872e-11 -9.29652e-12 2.69727e-11)
(-1.23421e-10 -1.41301e-11 3.55929e-11)
(-1.48458e-10 -2.11935e-11 4.59315e-11)
(-1.76707e-10 -3.15288e-11 5.85191e-11)
(-2.10261e-10 -4.66036e-11 7.39097e-11)
(-2.51842e-10 -6.84686e-11 9.2638e-11)
(-3.04888e-10 -9.99394e-11 1.15112e-10)
(-3.73435e-10 -1.4476e-10 1.41394e-10)
(-4.61421e-10 -2.0759e-10 1.70787e-10)
(-5.70635e-10 -2.93262e-10 2.01139e-10)
(-6.95531e-10 -4.03269e-10 2.27883e-10)
(-8.10384e-10 -5.21028e-10 2.43773e-10)
(-1.02792e-09 -7.6629e-10 2.32961e-10)
(0 0 0)
(-3.33285e-11 -1.52094e-12 7.69084e-12)
(-6.44006e-11 -3.23065e-12 1.52751e-11)
(-9.32707e-11 -5.42026e-12 2.31171e-11)
(-1.21109e-10 -8.4704e-12 3.17813e-11)
(-1.49182e-10 -1.2864e-11 4.18183e-11)
(-1.79e-10 -1.9253e-11 5.37991e-11)
(-2.12496e-10 -2.85383e-11 6.83368e-11)
(-2.52246e-10 -4.19681e-11 8.60922e-11)
(-3.01733e-10 -6.1259e-11 1.07755e-10)
(-3.65635e-10 -8.87396e-11 1.33981e-10)
(-4.50006e-10 -1.27499e-10 1.65249e-10)
(-5.61981e-10 -1.81457e-10 2.01561e-10)
(-7.07875e-10 -2.54992e-10 2.41836e-10)
(-8.86324e-10 -3.50395e-10 2.82662e-10)
(-1.06575e-09 -4.55285e-10 3.15735e-10)
(-1.45412e-09 -6.84493e-10 3.44731e-10)
(0 0 0)
(-3.86723e-11 -1.14063e-12 8.65554e-12)
(-7.46673e-11 -2.43004e-12 1.71664e-11)
(-1.07993e-10 -4.09154e-12 2.59186e-11)
(-1.39947e-10 -6.4119e-12 3.5521e-11)
(-1.71925e-10 -9.74755e-12 4.65615e-11)
(-2.05584e-10 -1.45677e-11 5.96436e-11)
(-2.43046e-10 -2.14992e-11 7.54124e-11)
(-2.87157e-10 -3.13738e-11 9.45664e-11)
(-3.41808e-10 -4.5271e-11 1.17851e-10)
(-4.12305e-10 -6.4544e-11 1.4602e-10)
(-5.05669e-10 -9.07996e-11 1.79728e-10)
(-6.30458e-10 -1.2577e-10 2.19296e-10)
(-7.94807e-10 -1.70911e-10 2.64159e-10)
(-9.98678e-10 -2.2601e-10 3.1151e-10)
(-1.20751e-09 -2.83627e-10 3.52777e-10)
(-1.70074e-09 -3.86453e-10 4.0806e-10)
(0 0 0)
(-4.33972e-11 -5.96944e-13 9.37899e-12)
(-8.37187e-11 -1.28699e-12 1.85695e-11)
(-1.20902e-10 -2.20007e-12 2.7958e-11)
(-1.56321e-10 -3.49671e-12 3.81689e-11)
(-1.91433e-10 -5.36925e-12 4.97941e-11)
(-2.27947e-10 -8.05742e-12 6.34289e-11)
(-2.68026e-10 -1.18566e-11 7.96952e-11)
(-3.14542e-10 -1.71102e-11 9.92513e-11)
(-3.71381e-10 -2.41732e-11 1.2278e-10)
(-4.43771e-10 -3.33148e-11 1.50942e-10)
(-5.38475e-10 -4.4513e-11 1.84254e-10)
(-6.63373e-10 -5.70693e-11 2.2283e-10)
(-8.25015e-10 -6.90006e-11 2.65769e-10)
(-1.0201e-09 -7.64414e-11 3.09746e-10)
(-1.21037e-09 -7.55775e-11 3.45866e-10)
(-1.57995e-09 8.93985e-12 3.67741e-10)
(0 0 0)
(-4.74661e-11 2.21815e-14 9.86867e-12)
(-9.14895e-11 1.22939e-14 1.95013e-11)
(-1.31917e-10 -5.7641e-14 2.92657e-11)
(-1.70151e-10 -2.13153e-13 3.97748e-11)
(-2.07651e-10 -4.77448e-13 5.15953e-11)
(-2.46094e-10 -8.63662e-13 6.52778e-11)
(-2.87556e-10 -1.35454e-12 8.13742e-11)
(-3.34738e-10 -1.86034e-12 1.00437e-10)
(-3.9121e-10 -2.13787e-12 1.22993e-10)
(-4.61633e-10 -1.64297e-12 1.49466e-10)
(-5.51796e-10 7.22223e-13 1.80019e-10)
(-6.67995e-10 7.00409e-12 2.1421e-10)
(-8.14624e-10 2.06925e-11 2.50301e-10)
(-9.87382e-10 4.69195e-11 2.83877e-10)
(-1.16037e-09 9.11804e-11 3.05739e-10)
(-1.30708e-09 2.8742e-10 2.71166e-10)
(0 0 0)
(0 0 0)
(0 0 0)
(0 0 0)
(0 0 0)
(0 0 0)
(0 0 0)
(0 0 0)
(0 0 0)
(0 0 0)
(0 0 0)
(0 0 0)
(0 0 0)
(0 0 0)
(0 0 0)
(0 0 0)
(0 0 0)
(0 0 0)
(-6.15421e-12 -7.00551e-13 1.68701e-12)
(-1.18489e-11 -1.48455e-12 3.36383e-12)
(-1.7054e-11 -2.48477e-12 5.1228e-12)
(-2.19499e-11 -3.87957e-12 7.1016e-12)
(-2.67337e-11 -5.90165e-12 9.43745e-12)
(-3.16358e-11 -8.87384e-12 1.22735e-11)
(-3.69323e-11 -1.32522e-11 1.57581e-11)
(-4.2942e-11 -1.96752e-11 2.00321e-11)
(-4.99866e-11 -2.90071e-11 2.51915e-11)
(-5.827e-11 -4.23416e-11 3.12081e-11)
(-6.76211e-11 -6.088e-11 3.77741e-11)
(-7.70752e-11 -8.5513e-11 4.40445e-11)
(-8.4481e-11 -1.15828e-10 4.83193e-11)
(-8.69676e-11 -1.48323e-10 4.80711e-11)
(-8.39665e-11 -1.74246e-10 4.19961e-11)
(-8.49244e-11 -1.97152e-10 4.10812e-12)
(0 0 0)
(-1.219e-11 -1.28667e-12 3.30958e-12)
(-2.34636e-11 -2.72601e-12 6.59653e-12)
(-3.37583e-11 -4.5609e-12 1.00401e-11)
(-4.34291e-11 -7.11693e-12 1.39085e-11)
(-5.2868e-11 -1.08177e-11 1.84696e-11)
(-6.25417e-11 -1.62505e-11 2.40049e-11)
(-7.30294e-11 -2.4246e-11 3.08119e-11)
(-8.50455e-11 -3.59743e-11 3.91864e-11)
(-9.94149e-11 -5.30437e-11 4.9368e-11)
(-1.16936e-10 -7.75544e-11 6.14168e-11)
(-1.38026e-10 -1.11986e-10 7.49761e-11)
(-1.62043e-10 -1.58632e-10 8.88869e-11)
(-1.86392e-10 -2.18041e-10 1.00747e-10)
(-2.0625e-10 -2.85596e-10 1.07039e-10)
(-2.16888e-10 -3.45266e-10 1.05723e-10)
(-2.21526e-10 -4.22017e-10 9.80722e-11)
(0 0 0)
(-1.80064e-11 -1.66663e-12 4.81216e-12)
(-3.46444e-11 -3.52987e-12 9.58508e-12)
(-4.98124e-11 -5.90224e-12 1.45741e-11)
(-6.40287e-11 -9.201e-12 2.01642e-11)
(-7.78703e-11 -1.39662e-11 2.67407e-11)
(-9.20399e-11 -2.09438e-11 3.47117e-11)
(-1.07445e-10 -3.11887e-11 4.45183e-11)
(-1.2528e-10 -4.61945e-11 5.66238e-11)
(-1.47096e-10 -6.80441e-11 7.14648e-11)
(-1.74794e-10 -9.95501e-11 8.93328e-11)
(-2.10413e-10 -1.44277e-10 1.10136e-10)
(-2.55518e-10 -2.06147e-10 1.33002e-10)
(-3.09847e-10 -2.87878e-10 1.55773e-10)
(-3.68973e-10 -3.86443e-10 1.74858e-10)
(-4.20379e-10 -4.8149e-10 1.86524e-10)
(-5.08005e-10 -6.48715e-10 2.08837e-10)
(0 0 0)
(-2.35082e-11 -1.78464e-12 6.14752e-12)
(-4.52048e-11 -3.77866e-12 1.22336e-11)
(-6.49383e-11 -6.31394e-12 1.85742e-11)
(-8.33691e-11 -9.83046e-12 2.56512e-11)
(-1.01236e-10 -1.48926e-11 3.39464e-11)
(-1.19455e-10 -2.22734e-11 4.39729e-11)
(-1.39244e-10 -3.30596e-11 5.62954e-11)
(-1.62287e-10 -4.87859e-11 7.1534e-11)
(-1.90937e-10 -7.16033e-11 9.03373e-11)
(-2.28433e-10 -1.04471e-10 1.13299e-10)
(-2.79033e-10 -1.51306e-10 1.40774e-10)
(-3.47773e-10 -2.16862e-10 1.72513e-10)
(-4.39043e-10 -3.05545e-10 2.07062e-10)
(-5.51846e-10 -4.16746e-10 2.40909e-10)
(-6.65531e-10 -5.30034e-10 2.67474e-10)
(-8.97954e-10 -7.54164e-10 3.12212e-10)
(0 0 0)
(-2.86147e-11 -1.62925e-12 7.28068e-12)
(-5.49879e-11 -3.44961e-12 1.44711e-11)
(-7.89037e-11 -5.76171e-12 2.19294e-11)
(-1.01134e-10 -8.95968e-12 3.02086e-11)
(-1.22542e-10 -1.35416e-11 3.98594e-11)
(-1.44201e-10 -2.01788e-11 5.14674e-11)
(-1.67563e-10 -2.97989e-11 6.56828e-11)
(-1.94683e-10 -4.36887e-11 8.32379e-11)
(-2.28537e-10 -6.36203e-11 1.04944e-10)
(-2.73431e-10 -9.19969e-11 1.31649e-10)
(-3.35441e-10 -1.3198e-10 1.64115e-10)
(-4.22606e-10 -1.87442e-10 2.02723e-10)
(-5.43788e-10 -2.62165e-10 2.468e-10)
(-7.0263e-10 -3.56231e-10 2.93123e-10)
(-8.74458e-10 -4.53524e-10 3.32693e-10)
(-1.28444e-09 -6.60965e-10 3.9645e-10)
(0 0 0)
(-3.32622e-11 -1.23298e-12 8.1906e-12)
(-6.38715e-11 -2.61331e-12 1.62556e-11)
(-9.15319e-11 -4.36865e-12 2.4574e-11)
(-1.17091e-10 -6.79187e-12 3.37424e-11)
(-1.41485e-10 -1.0244e-11 4.43473e-11)
(-1.65872e-10 -1.51973e-11 5.70072e-11)
(-1.91812e-10 -2.22799e-11 7.24048e-11)
(-2.2152e-10 -3.23206e-11 9.13114e-11)
(-2.58215e-10 -4.63863e-11 1.14596e-10)
(-3.06572e-10 -6.57931e-11 1.43203e-10)
(-3.73213e-10 -9.20383e-11 1.78072e-10)
(-4.6691e-10 -1.26532e-10 2.19892e-10)
(-5.97355e-10 -1.69817e-10 2.68457e-10)
(-7.68765e-10 -2.19471e-10 3.20941e-10)
(-9.55643e-10 -2.65425e-10 3.67482e-10)
(-1.46375e-09 -3.52389e-10 4.45583e-10)
(0 0 0)
(-3.7405e-11 -6.64525e-13 8.87103e-12)
(-7.1771e-11 -1.41663e-12 1.75752e-11)
(-1.02709e-10 -2.38455e-12 2.64919e-11)
(-1.31104e-10 -3.72656e-12 3.62319e-11)
(-1.57917e-10 -5.62818e-12 4.73851e-11)
(-1.84312e-10 -8.31572e-12 6.05606e-11)
(-2.1183e-10 -1.20603e-11 7.64169e-11)
(-2.42621e-10 -1.71635e-11 9.5682e-11)
(-2.79751e-10 -2.39061e-11 1.19156e-10)
(-3.27553e-10 -3.24237e-11 1.47683e-10)
(-3.91889e-10 -4.24386e-11 1.82056e-10)
(-4.79884e-10 -5.27324e-11 2.22773e-10)
(-5.97831e-10 -6.02384e-11 2.69451e-10)
(-7.43852e-10 -5.90756e-11 3.19377e-10)
(-8.88012e-10 -4.38867e-11 3.63685e-10)
(-1.2046e-09 5.46862e-11 4.42709e-10)
(0 0 0)
(-4.10101e-11 -1.63667e-14 9.32945e-12)
(-7.86302e-11 -5.56096e-14 1.84467e-11)
(-1.12369e-10 -1.38222e-13 2.77129e-11)
(-1.43119e-10 -2.79883e-13 3.77267e-11)
(-1.71822e-10 -4.87328e-13 4.90515e-11)
(-1.99588e-10 -7.47314e-13 6.22508e-11)
(-2.27846e-10 -1.00091e-12 7.79096e-11)
(-2.5853e-10 -1.09245e-12 9.6644e-11)
(-2.94313e-10 -6.74854e-13 1.19084e-10)
(-3.3881e-10 9.60596e-13 1.45813e-10)
(-3.96618e-10 5.17529e-12 1.77223e-10)
(-4.72706e-10 1.44364e-11 2.13182e-10)
(-5.70105e-10 3.28585e-11 2.52352e-10)
(-6.838e-10 6.61928e-11 2.90775e-10)
(-7.90688e-10 1.18876e-10 3.19176e-10)
(-7.0076e-10 3.20397e-10 3.73467e-10)
(0 0 0)
(0 0 0)
(0 0 0)
(0 0 0)
(0 0 0)
(0 0 0)
(0 0 0)
(0 0 0)
(0 0 0)
(0 0 0)
(0 0 0)
(0 0 0)
(0 0 0)
(0 0 0)
(0 0 0)
(0 0 0)
(0 0 0)
(0 0 0)
(-5.11237e-12 -7.27732e-13 1.52797e-12)
(-9.75638e-12 -1.53963e-12 3.0493e-12)
(-1.38293e-11 -2.57078e-12 4.65079e-12)
(-1.74066e-11 -4.00258e-12 6.46163e-12)
(-2.05726e-11 -6.07062e-12 8.61334e-12)
(-2.34275e-11 -9.1002e-12 1.12473e-11)
(-2.60922e-11 -1.35481e-11 1.45173e-11)
(-2.87019e-11 -2.00479e-11 1.85826e-11)
(-3.13682e-11 -2.94441e-11 2.35842e-11)
(-3.40727e-11 -4.27728e-11 2.95908e-11)
(-3.64431e-11 -6.10902e-11 3.64965e-11)
(-3.73937e-11 -8.49578e-11 4.38644e-11)
(-3.48199e-11 -1.1331e-10 5.07627e-11)
(-2.61843e-11 -1.4166e-10 5.58017e-11)
(-1.22017e-11 -1.61057e-10 5.77922e-11)
(2.57863e-11 -1.51723e-10 5.07761e-11)
(0 0 0)
(-1.01352e-11 -1.33629e-12 2.99723e-12)
(-1.93374e-11 -2.8261e-12 5.97899e-12)
(-2.74011e-11 -4.71604e-12 9.11367e-12)
(-3.44754e-11 -7.33653e-12 1.26529e-11)
(-4.07303e-11 -1.11154e-11 1.68532e-11)
(-4.63757e-11 -1.66431e-11 2.1992e-11)
(-5.16851e-11 -2.47499e-11 2.83755e-11)
(-5.70095e-11 -3.65966e-11 3.63317e-11)
(-6.27588e-11 -5.37587e-11 4.61774e-11)
(-6.92945e-11 -7.82473e-11 5.81364e-11)
(-7.66467e-11 -1.12326e-10 7.21836e-11)
(-8.39658e-11 -1.57812e-10 8.78035e-11)
(-8.88035e-11 -2.14342e-10 1.03739e-10)
(-8.70864e-11 -2.7604e-10 1.18001e-10)
(-7.66702e-11 -3.27023e-10 1.28253e-10)
(-1.75493e-11 -3.77714e-10 1.47009e-10)
(0 0 0)
(-1.49919e-11 -1.73022e-12 4.35719e-12)
(-2.85933e-11 -3.65701e-12 8.68596e-12)
(-4.04942e-11 -6.09646e-12 1.32261e-11)
(-5.09122e-11 -9.4702e-12 1.83385e-11)
(-6.00998e-11 -1.43212e-11 2.43917e-11)
(-6.83838e-11 -2.13954e-11 3.17867e-11)
(-7.62211e-11 -3.17423e-11 4.09739e-11)
(-8.42695e-11 -4.68381e-11 5.2455e-11)
(-9.34625e-11 -6.8722e-11 6.67585e-11)
(-1.05047e-10 -1.00107e-10 8.43655e-11)
(-1.20496e-10 -1.44337e-10 1.05553e-10)
(-1.41101e-10 -2.04875e-10 1.30127e-10)
(-1.6694e-10 -2.83601e-10 1.57065e-10)
(-1.94967e-10 -3.76428e-10 1.8417e-10)
(-2.16776e-10 -4.63554e-10 2.0717e-10)
(-2.18881e-10 -6.12762e-10 2.55251e-10)
(0 0 0)
(-1.96097e-11 -1.85161e-12 5.56484e-12)
(-3.73828e-11 -3.91055e-12 1.10827e-11)
(-5.29016e-11 -6.5101e-12 1.68504e-11)
(-6.64404e-11 -1.00917e-11 2.33192e-11)
(-7.83212e-11 -1.52178e-11 3.0949e-11)
(-8.89739e-11 -2.26538e-11 4.02425e-11)
(-9.90303e-11 -3.34694e-11 5.1772e-11)
(-1.09467e-10 -4.91649e-11 6.61959e-11)
(-1.21809e-10 -7.18261e-11 8.42548e-11)
(-1.384e-10 -1.0429e-10 1.06727e-10)
(-1.62685e-10 -1.50248e-10 1.34307e-10)
(-1.99286e-10 -2.14033e-10 1.67333e-10)
(-2.53132e-10 -2.99355e-10 2.05263e-10)
(-3.25558e-10 -4.04873e-10 2.45628e-10)
(-4.02252e-10 -5.11104e-10 2.81378e-10)
(-5.37605e-10 -7.25251e-10 3.48818e-10)
(0 0 0)
(-2.39262e-11 -1.68889e-12 6.58841e-12)
(-4.55868e-11 -3.56382e-12 1.3105e-11)
(-6.44509e-11 -5.92305e-12 1.98856e-11)
(-8.08316e-11 -9.15695e-12 2.74481e-11)
(-9.50947e-11 -1.37539e-11 3.63169e-11)
(-1.07733e-10 -2.03658e-11 4.70643e-11)
(-1.19489e-10 -2.9885e-11 6.03454e-11)
(-1.31546e-10 -4.35372e-11 7.69273e-11)
(-1.4583e-10 -6.29897e-11 9.77063e-11)
(-1.65448e-10 -9.04695e-11 1.23697e-10)
(-1.95279e-10 -1.28841e-10 1.55954e-10)
(-2.42535e-10 -1.81495e-10 1.95332e-10)
(-3.1645e-10 -2.51531e-10 2.41833e-10)
(-4.23915e-10 -3.38585e-10 2.92915e-10)
(-5.49948e-10 -4.28288e-10 3.39134e-10)
(-8.59328e-10 -6.329e-10 4.20016e-10)
(0 0 0)
(-2.78919e-11 -1.27625e-12 7.40891e-12)
(-5.31118e-11 -2.69128e-12 1.47146e-11)
(-7.50118e-11 -4.46556e-12 2.22726e-11)
(-9.39222e-11 -6.88165e-12 3.06402e-11)
(-1.1022e-10 -1.02817e-11 4.03757e-11)
(-1.24406e-10 -1.51049e-11 5.20816e-11)
(-1.37229e-10 -2.1924e-11 6.64432e-11)
(-1.49888e-10 -3.1475e-11 8.4263e-11)
(-1.64333e-10 -4.46728e-11 1.06487e-10)
(-1.83705e-10 -6.25817e-11 1.3421e-10)
(-2.12887e-10 -8.6286e-11 1.6863e-10)
(-2.59e-10 -1.16538e-10 2.10858e-10)
(-3.31071e-10 -1.52974e-10 2.61308e-10)
(-4.36218e-10 -1.92628e-10 3.17875e-10)
(-5.62152e-10 -2.27855e-10 3.70576e-10)
(-9.60701e-10 -3.12349e-10 4.66456e-10)
(0 0 0)
(-3.14699e-11 -6.85485e-13 8.02085e-12)
(-5.98919e-11 -1.44661e-12 1.59013e-11)
(-8.45001e-11 -2.39945e-12 2.39971e-11)
(-1.05623e-10 -3.68537e-12 3.28781e-11)
(-1.23619e-10 -5.46245e-12 4.31045e-11)
(-1.38944e-10 -7.9124e-12 5.52687e-11)
(-1.52264e-10 -1.12342e-11 7.00305e-11)
(-1.64611e-10 -1.56133e-11 8.81458e-11)
(-1.77622e-10 -2.11442e-11 1.10485e-10)
(-1.93808e-10 -2.76622e-11 1.38026e-10)
(-2.16772e-10 -3.4404e-11 1.71799e-10)
(-2.51004e-10 -3.93768e-11 2.12704e-10)
(-3.0032e-10 -3.8381e-11 2.61042e-10)
(-3.62947e-10 -2.44371e-11 3.15196e-10)
(-4.21581e-10 6.27351e-12 3.67032e-10)
(-5.76026e-10 1.34024e-10 4.8062e-10)
(0 0 0)
(-3.46313e-11 -1.29107e-14 8.43127e-12)
(-6.58788e-11 -3.4081e-14 1.66809e-11)
(-9.28631e-11 -6.76125e-14 2.50874e-11)
(-1.15898e-10 -1.06928e-13 3.42085e-11)
(-1.35306e-10 -1.25401e-13 4.45782e-11)
(-1.51472e-10 -5.82562e-14 5.67435e-11)
(-1.64927e-10 2.33143e-13 7.12907e-11)
(-1.76462e-10 1.02689e-12 8.88611e-11)
(-1.87267e-10 2.85697e-12 1.10146e-10)
(-1.99042e-10 6.71479e-12 1.35845e-10)
(-2.1393e-10 1.43806e-11 1.66543e-10)
(-2.33872e-10 2.89084e-11 2.0242e-10)
(-2.58615e-10 5.50956e-11 2.4262e-10)
(-2.81416e-10 9.89313e-11 2.83828e-10)
(-2.85236e-10 1.62384e-10 3.16673e-10)
(1.35827e-10 4.42862e-10 3.94224e-10)
(0 0 0)
(0 0 0)
(0 0 0)
(0 0 0)
(0 0 0)
(0 0 0)
(0 0 0)
(0 0 0)
(0 0 0)
(0 0 0)
(0 0 0)
(0 0 0)
(0 0 0)
(0 0 0)
(0 0 0)
(0 0 0)
(0 0 0)
(0 0 0)
(-4.13565e-12 -7.42512e-13 1.30754e-12)
(-7.78733e-12 -1.56797e-12 2.61149e-12)
(-1.07755e-11 -2.61069e-12 3.98866e-12)
(-1.30655e-11 -4.0505e-12 5.55328e-12)
(-1.46179e-11 -6.11905e-12 7.42391e-12)
(-1.53824e-11 -9.13322e-12 9.73152e-12)
(-1.52903e-11 -1.35328e-11 1.26244e-11)
(-1.42358e-11 -1.99183e-11 1.62673e-11)
(-1.20272e-11 -2.90695e-11 2.08297e-11)
(-8.2746e-12 -4.18974e-11 2.64544e-11)
(-2.16479e-12 -5.92196e-11 3.31963e-11)
(7.89007e-12 -8.11581e-11 4.09238e-11)
(2.45164e-11 -1.05908e-10 4.91937e-11)
(5.04905e-11 -1.28025e-10 5.71306e-11)
(8.30037e-11 -1.38691e-10 6.3194e-11)
(1.74179e-10 -8.89569e-11 6.97126e-11)
(0 0 0)
(-8.20961e-12 -1.3624e-12 2.56457e-12)
(-1.54563e-11 -2.87557e-12 5.11994e-12)
(-2.13838e-11 -4.78403e-12 7.81504e-12)
(-2.59251e-11 -7.41444e-12 1.08723e-11)
(-2.90065e-11 -1.11862e-11 1.45227e-11)
(-3.05422e-11 -1.66725e-11 1.90226e-11)
(-3.04319e-11 -2.4671e-11 2.46656e-11)
(-2.85515e-11 -3.62808e-11 3.17855e-11)
(-2.47146e-11 -5.29631e-11 4.07422e-11)
(-1.85578e-11 -7.65197e-11 5.18773e-11)
(-9.27459e-12 -1.08839e-10 6.54177e-11)
(4.87537e-12 -1.51104e-10 8.13123e-11)
(2.71152e-11 -2.02012e-10 9.89961e-11)
(6.14774e-11 -2.54791e-10 1.17059e-10)
(1.05632e-10 -2.94612e-10 1.32318e-10)
(2.44416e-10 -3.18128e-10 1.56984e-10)
(0 0 0)
(-1.21693e-11 -1.76156e-12 3.72759e-12)
(-2.29063e-11 -3.71484e-12 7.43652e-12)
(-3.1682e-11 -6.1716e-12 1.13388e-11)
(-3.83988e-11 -9.54649e-12 1.57534e-11)
(-4.29541e-11 -1.43683e-11 2.10113e-11)
(-4.52422e-11 -2.13564e-11 2.74821e-11)
(-4.51724e-11 -3.15122e-11 3.55942e-11)
(-4.27041e-11 -4.62263e-11 4.58482e-11)
(-3.78931e-11 -6.73901e-11 5.88131e-11)
(-3.09277e-11 -9.74655e-11 7.50898e-11)
(-2.20906e-11 -1.39391e-10 9.52132e-11)
(-1.15148e-11 -1.96031e-10 1.19449e-10)
(1.45023e-12 -2.68569e-10 1.47418e-10)
(1.90038e-11 -3.52694e-10 1.77347e-10)
(4.25612e-11 -4.30514e-10 2.03993e-10)
(1.42008e-10 -5.63927e-10 2.53278e-10)
(0 0 0)
(-1.59632e-11 -1.88064e-12 4.7596e-12)
(-3.004e-11 -3.96104e-12 9.486e-12)
(-4.1533e-11 -6.56698e-12 1.44414e-11)
(-5.03128e-11 -1.01284e-11 2.00242e-11)
(-5.62464e-11 -1.51864e-11 2.66469e-11)
(-5.92077e-11 -2.24694e-11 3.47709e-11)
(-5.91212e-11 -3.29824e-11 4.49369e-11)
(-5.60539e-11 -4.81176e-11 5.77906e-11)
(-5.03798e-11 -6.97834e-11 7.40971e-11)
(-4.30444e-11 -1.00539e-10 9.47284e-11)
(-3.59355e-11 -1.43668e-10 1.20585e-10)
(-3.22477e-11 -2.02998e-10 1.5237e-10)
(-3.6329e-11 -2.81859e-10 1.90029e-10)
(-5.15336e-11 -3.79355e-10 2.31392e-10)
(-7.33491e-11 -4.78464e-10 2.68758e-10)
(-9.41795e-11 -6.86835e-10 3.33802e-10)
(0 0 0)
(-1.95468e-11 -1.70815e-12 5.63338e-12)
(-3.67745e-11 -3.59167e-12 1.12132e-11)
(-5.08223e-11 -5.93733e-12 1.70361e-11)
(-6.15247e-11 -9.11845e-12 2.35584e-11)
(-6.8708e-11 -1.35944e-11 3.12499e-11)
(-7.2204e-11 -1.99682e-11 4.06341e-11)
(-7.19072e-11 -2.90508e-11 5.2326e-11)
(-6.79e-11 -4.19348e-11 6.70689e-11)
(-6.06903e-11 -6.00774e-11 8.57652e-11)
(-5.16273e-11 -8.53857e-11 1.09489e-10)
(-4.35738e-11 -1.20277e-10 1.39441e-10)
(-4.18432e-11 -1.67625e-10 1.76732e-10)
(-5.49571e-11 -2.30249e-10 2.21709e-10)
(-9.29201e-11 -3.08612e-10 2.72077e-10)
(-1.54086e-10 -3.91466e-10 3.18141e-10)
(-3.39356e-10 -5.96764e-10 3.93968e-10)
(0 0 0)
(-2.28837e-11 -1.27978e-12 6.33272e-12)
(-4.30435e-11 -2.68458e-12 1.25855e-11)
(-5.94635e-11 -4.41911e-12 1.90722e-11)
(-7.19373e-11 -6.74315e-12 2.62834e-11)
(-8.02375e-11 -9.96234e-12 3.4718e-11)
(-8.41224e-11 -1.44563e-11 4.49257e-11)
(-8.33844e-11 -2.07006e-11 5.75473e-11)
(-7.79629e-11 -2.92765e-11 7.33544e-11)
(-6.81564e-11 -4.08555e-11 9.32867e-11)
(-5.49865e-11 -5.6132e-11 1.18476e-10)
(-4.07739e-11 -7.56582e-11 1.50226e-10)
(-2.99534e-11 -9.95155e-11 1.89845e-10)
(-2.99492e-11 -1.26783e-10 2.38051e-10)
(-5.09176e-11 -1.54959e-10 2.93071e-10)
(-9.74842e-11 -1.79763e-10 3.45017e-10)
(-3.61579e-10 -2.60564e-10 4.35762e-10)
(0 0 0)
(-2.59453e-11 -6.69866e-13 6.85303e-12)
(-4.87981e-11 -1.39899e-12 1.35945e-11)
(-6.74003e-11 -2.28377e-12 2.05383e-11)
(-8.15043e-11 -3.43797e-12 2.81852e-11)
(-9.0823e-11 -4.9773e-12 3.7035e-11)
(-9.50212e-11 -7.01641e-12 4.76269e-11)
(-9.37392e-11 -9.64812e-12 6.05761e-11)
(-8.66554e-11 -1.28913e-11 7.66071e-11)
(-7.35983e-11 -1.65824e-11 9.65808e-11)
(-5.46994e-11 -2.01637e-11 1.21504e-10)
(-3.05297e-11 -2.22916e-11 1.52496e-10)
(-2.03517e-12 -2.01664e-11 1.90643e-10)
(3.01265e-11 -8.61518e-12 2.36562e-10)
(6.70706e-11 2.002e-11 2.89101e-10)
(1.09538e-10 6.7832e-11 3.40454e-10)
(1.3221e-10 2.32739e-10 4.52336e-10)
(0 0 0)
(-2.87056e-11 2.22216e-14 7.20062e-12)
(-5.39961e-11 5.43267e-14 1.42542e-11)
(-7.45899e-11 1.14727e-13 2.14595e-11)
(-9.02059e-11 2.40774e-13 2.93056e-11)
(-1.00506e-10 5.044e-13 3.8268e-11)
(-1.0507e-10 1.03949e-12 4.88437e-11)
(-1.03393e-10 2.09038e-12 6.15789e-11)
(-9.48979e-11 4.09576e-12 7.70881e-11)
(-7.89486e-11 7.82999e-12 9.60575e-11)
(-5.48259e-11 1.4636e-11 1.19215e-10)
(-2.15505e-11 2.67888e-11 1.47229e-10)
(2.26855e-11 4.79869e-11 1.80438e-10)
(8.1792e-11 8.37211e-11 2.18231e-10)
(1.63251e-10 1.40262e-10 2.57566e-10)
(2.73989e-10 2.17581e-10 2.88934e-10)
(1.01789e-09 5.91222e-10 3.62972e-10)
(0 0 0)
(0 0 0)
(0 0 0)
(0 0 0)
(0 0 0)
(0 0 0)
(0 0 0)
(0 0 0)
(0 0 0)
(0 0 0)
(0 0 0)
(0 0 0)
(0 0 0)
(0 0 0)
(0 0 0)
(0 0 0)
(0 0 0)
(0 0 0)
(-3.28968e-12 -7.48105e-13 1.03304e-12)
(-6.07672e-12 -1.57678e-12 2.06464e-12)
(-8.10909e-12 -2.61765e-12 3.15721e-12)
(-9.24869e-12 -4.04618e-12 4.40358e-12)
(-9.33588e-12 -6.08601e-12 5.90158e-12)
(-8.17008e-12 -9.03937e-12 7.76166e-12)
(-5.487e-12 -1.33198e-11 1.01129e-11)
(-9.23695e-13 -1.94804e-11 1.31055e-11)
(6.04637e-12 -2.82174e-11 1.6907e-11)
(1.62392e-11 -4.02944e-11 2.16861e-11)
(3.09884e-11 -5.6273e-11 2.75731e-11)
(5.2471e-11 -7.58467e-11 3.45866e-11)
(8.38459e-11 -9.65467e-11 4.2504e-11)
(1.27842e-10 -1.1214e-10 5.06399e-11)
(1.78796e-10 -1.14128e-10 5.73464e-11)
(3.14073e-10 -2.59475e-11 6.74075e-11)
(0 0 0)
(-6.5424e-12 -1.37129e-12 2.02598e-12)
(-1.2086e-11 -2.88847e-12 4.04737e-12)
(-1.61322e-11 -4.79044e-12 6.18519e-12)
(-1.84109e-11 -7.39496e-12 8.62007e-12)
(-1.86124e-11 -1.11055e-11 1.15424e-11)
(-1.63556e-11 -1.64667e-11 1.5168e-11)
(-1.11556e-11 -2.42263e-11 1.9751e-11)
(-2.38282e-12 -3.53963e-11 2.55924e-11)
(1.08059e-11 -5.12887e-11 3.30382e-11)
(2.95999e-11 -7.34561e-11 4.24567e-11)
(5.57867e-11 -1.03384e-10 5.41756e-11)
(9.21418e-11 -1.4165e-10 6.83466e-11)
(1.42635e-10 -1.86175e-10 8.46808e-11)
(2.10645e-10 -2.29627e-10 1.01931e-10)
(2.87982e-10 -2.58522e-10 1.16693e-10)
(4.92902e-10 -2.57658e-10 1.37583e-10)
(0 0 0)
(-9.72685e-12 -1.76967e-12 2.9443e-12)
(-1.79709e-11 -3.72346e-12 5.87766e-12)
(-2.39966e-11 -6.16424e-12 8.97228e-12)
(-2.74102e-11 -9.49283e-12 1.24869e-11)
(-2.77661e-11 -1.42142e-11 1.66941e-11)
(-2.45277e-11 -2.10066e-11 2.19039e-11)
(-1.70425e-11 -3.08011e-11 2.84852e-11)
(-4.53049e-12 -4.48704e-11 3.68828e-11)
(1.39114e-11 -6.49139e-11 4.76266e-11)
(3.92898e-11 -9.3094e-11 6.13154e-11)
(7.2697e-11 -1.31914e-10 7.85487e-11)
(1.15325e-10 -1.83696e-10 9.97441e-11)
(1.6845e-10 -2.49162e-10 1.24718e-10)
(2.32493e-10 -3.24229e-10 1.51771e-10)
(3.00015e-10 -3.93182e-10 1.75603e-10)
(4.76837e-10 -5.13305e-10 2.14867e-10)
(0 0 0)
(-1.28106e-11 -1.88303e-12 3.7587e-12)
(-2.36734e-11 -3.95535e-12 7.49583e-12)
(-3.16277e-11 -6.53014e-12 1.14243e-11)
(-3.61659e-11 -1.00183e-11 1.58668e-11)
(-3.6716e-11 -1.49297e-11 2.11626e-11)
(-3.26003e-11 -2.19394e-11 2.76977e-11)
(-2.30209e-11 -3.19648e-11 3.59344e-11)
(-7.08976e-12 -4.62556e-11 4.64396e-11)
(1.60622e-11 -6.64985e-11 5.99076e-11)
(4.70382e-11 -9.49267e-11 7.71613e-11)
(8.5707e-11 -1.34399e-10 9.90943e-11)
(1.30457e-10 -1.88315e-10 1.26458e-10)
(1.77339e-10 -2.5991e-10 1.59277e-10)
(2.19869e-10 -3.49206e-10 1.95448e-10)
(2.50736e-10 -4.41759e-10 2.27675e-10)
(3.12038e-10 -6.45225e-10 2.78801e-10)
(0 0 0)
(-1.57646e-11 -1.70011e-12 4.44763e-12)
(-2.91423e-11 -3.56224e-12 8.85817e-12)
(-3.89627e-11 -5.85674e-12 1.34723e-11)