/*--------------------------------*- C++ -*----------------------------------*\
| =========                 |                                                 |
| \\      /  F ield         | foam-extend: Open Source CFD                    |
|  \\    /   O peration     | Version:     3.1                                |
|   \\  /    A nd           | Web:         http://www.extend-project.de       |
|    \\/     M anipulation  |                                                 |
\*---------------------------------------------------------------------------*/
FoamFile
{
    version     2.0;
    format      ascii;
    class       volVectorField;
    location    "3.9";
    object      cellMotionU;
}
// * * * * * * * * * * * * * * * * * * * * * * * * * * * * * * * * * * * * * //

dimensions      [0 1 -1 0 0 0 0];

internalField   nonuniform List<vector> 
14592
(
(-3.93553e-12 1.58922e-12 7.12302e-13)
(-1.14852e-11 4.6283e-12 2.11082e-12)
(-1.8613e-11 7.46267e-12 3.52423e-12)
(-2.57073e-11 1.01994e-11 5.07393e-12)
(-3.31677e-11 1.29105e-11 6.8811e-12)
(-4.14472e-11 1.56247e-11 9.07755e-12)
(-5.11014e-11 1.83076e-11 1.18149e-11)
(-6.28409e-11 2.08374e-11 1.52752e-11)
(-7.76003e-11 2.29365e-11 1.96764e-11)
(-9.65967e-11 2.40835e-11 2.52758e-11)
(-1.21371e-10 2.33477e-11 3.23588e-11)
(-1.5374e-10 1.91213e-11 4.11941e-11)
(-1.95556e-10 8.71381e-12 5.19159e-11)
(-2.48031e-10 -1.22404e-11 6.42065e-11)
(-3.09727e-10 -4.97315e-11 7.64383e-11)
(-3.67099e-10 -1.01525e-10 8.37513e-11)
(-1.16438e-11 4.70601e-12 2.10433e-12)
(-3.39714e-11 1.37108e-11 6.23549e-12)
(-5.50224e-11 2.21133e-11 1.04067e-11)
(-7.59203e-11 3.0241e-11 1.49739e-11)
(-9.78149e-11 3.83163e-11 2.0291e-11)
(-1.22003e-10 4.64364e-11 2.67409e-11)
(-1.5006e-10 5.4538e-11 3.47649e-11)
(-1.83997e-10 6.23165e-11 4.48917e-11)
(-2.26443e-10 6.90644e-11 5.77562e-11)
(-2.80813e-10 7.34608e-11 7.41174e-11)
(-3.51414e-10 7.3142e-11 9.48321e-11)
(-4.4326e-10 6.4179e-11 1.20774e-10)
(-5.61181e-10 4.03435e-11 1.52605e-10)
(-7.07208e-10 -7.25144e-12 1.90252e-10)
(-8.73266e-10 -8.74496e-11 2.31551e-10)
(-1.01581e-09 -1.85824e-10 2.66521e-10)
(-1.89416e-11 7.6663e-12 3.41369e-12)
(-5.52285e-11 2.23374e-11 1.01104e-11)
(-8.93337e-11 3.60474e-11 1.6858e-11)
(-1.23012e-10 4.93447e-11 2.4224e-11)
(-1.5804e-10 6.26189e-11 3.27693e-11)
(-1.96388e-10 7.60781e-11 4.3096e-11)
(-2.40415e-10 8.97254e-11 5.58985e-11)
(-2.93104e-10 1.03212e-10 7.19989e-11)
(-3.58294e-10 1.15737e-10 9.2397e-11)
(-4.40949e-10 1.25695e-10 1.18288e-10)
(-5.4727e-10 1.30334e-10 1.51064e-10)
(-6.84401e-10 1.2519e-10 1.92236e-10)
(-8.58927e-10 1.03756e-10 2.43239e-10)
(-1.0724e-09 5.82512e-11 3.05011e-10)
(-1.30921e-09 -1.50134e-11 3.76642e-10)
(-1.50146e-09 -9.34147e-11 4.44945e-10)
(-2.56058e-11 1.03668e-11 4.59426e-12)
(-7.45927e-11 3.02166e-11 1.35976e-11)
(-1.20429e-10 4.8799e-11 2.26418e-11)
(-1.6535e-10 6.6885e-11 3.24706e-11)
(-2.11576e-10 8.50462e-11 4.3812e-11)
(-2.61515e-10 1.03661e-10 5.74428e-11)
(-3.17989e-10 1.22871e-10 7.42465e-11)
(-3.84473e-10 1.42509e-10 9.52679e-11)
(-4.65367e-10 1.61975e-10 1.21771e-10)
(-5.6626e-10 1.80025e-10 1.55278e-10)
(-6.94081e-10 1.94479e-10 1.97595e-10)
(-8.56797e-10 2.01941e-10 2.50761e-10)
(-1.06189e-09 1.97711e-10 3.16876e-10)
(-1.31149e-09 1.76778e-10 3.9762e-10)
(-1.58855e-09 1.37998e-10 4.92204e-10)
(-1.81548e-09 9.67463e-11 5.82466e-10)
(-3.14724e-11 1.27119e-11 5.61097e-12)
(-9.15812e-11 3.70691e-11 1.65933e-11)
(-1.47515e-10 5.99131e-11 2.75808e-11)
(-2.01811e-10 8.22308e-11 3.94505e-11)
(-2.56933e-10 1.04784e-10 5.305e-11)
(-3.15468e-10 1.28153e-10 6.92734e-11)
(-3.80347e-10 1.5268e-10 8.91175e-11)
(-4.55042e-10 1.78524e-10 1.13757e-10)
(-5.43817e-10 2.05516e-10 1.44591e-10)
(-6.51906e-10 2.33168e-10 1.83312e-10)
(-7.85649e-10 2.60538e-10 2.31939e-10)
(-9.52284e-10 2.86199e-10 2.92813e-10)
(-1.15889e-09 3.08302e-10 3.68458e-10)
(-1.40874e-09 3.24946e-10 4.61053e-10)
(-1.68922e-09 3.35319e-10 5.69927e-10)
(-1.92817e-09 3.41143e-10 6.74208e-10)
(-3.64423e-11 1.46128e-11 6.44222e-12)
(-1.05915e-10 4.26284e-11 1.90309e-11)
(-1.70152e-10 6.89573e-11 3.15645e-11)
(-2.31825e-10 9.47695e-11 4.5004e-11)
(-2.93445e-10 1.21015e-10 6.02671e-11)
(-3.57552e-10 1.48445e-10 7.82983e-11)
(-4.26869e-10 1.7767e-10 1.00137e-10)
(-5.04467e-10 2.09136e-10 1.26973e-10)
(-5.93871e-10 2.43227e-10 1.60209e-10)
(-6.99146e-10 2.80263e-10 2.01512e-10)
(-8.24849e-10 3.20669e-10 2.52868e-10)
(-9.75785e-10 3.65186e-10 3.16597e-10)
(-1.15632e-09 4.15118e-10 3.95294e-10)
(-1.36845e-09 4.7224e-10 4.91382e-10)
(-1.60474e-09 5.36672e-10 6.04539e-10)
(-1.81414e-09 5.95268e-10 7.13696e-10)
(-4.04844e-11 1.59908e-11 7.0783e-12)
(-1.17509e-10 4.66683e-11 2.08852e-11)
(-1.88247e-10 7.55512e-11 3.4553e-11)
(-2.55349e-10 1.03956e-10 4.90803e-11)
(-3.21222e-10 1.32981e-10 6.54042e-11)
(-3.88185e-10 1.63525e-10 8.44626e-11)
(-4.58555e-10 1.9638e-10 1.07258e-10)
(-5.34736e-10 2.32269e-10 1.34903e-10)
(-6.19208e-10 2.71942e-10 1.68665e-10)
(-7.14417e-10 3.16325e-10 2.1e-10)
(-8.22495e-10 3.66798e-10 2.6059e-10)
(-9.44693e-10 4.25615e-10 3.22361e-10)
(-1.08038e-09 4.96586e-10 3.97487e-10)
(-1.22547e-09 5.85501e-10 4.8819e-10)
(-1.36972e-09 6.97223e-10 5.9456e-10)
(-1.48706e-09 8.1117e-10 6.97354e-10)
(-4.36229e-11 1.67845e-11 7.52333e-12)
(-1.26451e-10 4.90105e-11 2.21691e-11)
(-2.01998e-10 7.93951e-11 3.65734e-11)
(-2.72772e-10 1.09362e-10 5.17317e-11)
(-3.40986e-10 1.40084e-10 6.85534e-11)
(-4.08628e-10 1.72564e-10 8.79215e-11)
(-4.77538e-10 2.07687e-10 1.10741e-10)
(-5.49395e-10 2.46294e-10 1.37969e-10)
(-6.25622e-10 2.89275e-10 1.70632e-10)
(-7.07146e-10 3.37715e-10 2.0983e-10)
(-7.93933e-10 3.93131e-10 2.56711e-10)
(-8.84139e-10 4.5789e-10 3.12433e-10)
(-9.72623e-10 5.35959e-10 3.78147e-10)
(-1.04839e-09 6.34324e-10 4.55142e-10)
(-1.09091e-09 7.64308e-10 5.44724e-10)
(-1.07548e-09 9.21709e-10 6.37343e-10)
(-3.87108e-12 1.66757e-12 6.84836e-13)
(-1.12946e-11 4.85921e-12 2.02981e-12)
(-1.82981e-11 7.84225e-12 3.39003e-12)
(-2.52626e-11 1.07355e-11 4.88368e-12)
(-3.25836e-11 1.36178e-11 6.62911e-12)
(-4.0712e-11 1.65214e-11 8.75529e-12)
(-5.0202e-11 1.9413e-11 1.14119e-11)
(-6.17686e-11 2.21567e-11 1.4778e-11)
(-7.63476e-11 2.44506e-11 1.90689e-11)
(-9.51551e-11 2.57123e-11 2.45371e-11)
(-1.19703e-10 2.48925e-11 3.14574e-11)
(-1.51702e-10 2.01796e-11 4.00784e-11)
(-1.92683e-10 8.55779e-12 5.04882e-11)
(-2.43051e-10 -1.46411e-11 6.22742e-11)
(-2.99657e-10 -5.48543e-11 7.3722e-11)
(-3.4818e-10 -1.06906e-10 8.06483e-11)
(-1.14491e-11 4.9388e-12 2.02327e-12)
(-3.3396e-11 1.43929e-11 5.9957e-12)
(-5.40692e-11 2.32391e-11 1.00099e-11)
(-7.4571e-11 3.18322e-11 1.44117e-11)
(-9.60363e-11 4.04171e-11 1.95465e-11)
(-1.1975e-10 4.91089e-11 2.579e-11)
(-1.47283e-10 5.78442e-11 3.35772e-11)
(-1.80648e-10 6.6289e-11 4.34283e-11)
(-2.22471e-10 7.36795e-11 5.5972e-11)
(-2.7615e-10 7.8529e-11 7.19492e-11)
(-3.45887e-10 7.82039e-11 9.21852e-11)
(-4.36347e-10 6.82628e-11 1.17468e-10)
(-5.51345e-10 4.17445e-11 1.48224e-10)
(-6.90313e-10 -1.08352e-11 1.83681e-10)
(-8.39798e-10 -9.69203e-11 2.19812e-10)
(-9.54212e-10 -1.96331e-10 2.45027e-10)
(-1.86129e-11 8.04413e-12 3.28175e-12)
(-5.42542e-11 2.34514e-11 9.72065e-12)
(-8.77158e-11 3.78849e-11 1.62136e-11)
(-1.20712e-10 5.19448e-11 2.33121e-11)
(-1.54986e-10 6.60616e-11 3.15632e-11)
(-1.92482e-10 8.04795e-11 4.15593e-11)
(-2.35539e-10 9.51952e-11 5.39815e-11)
(-2.87109e-10 1.09869e-10 6.96454e-11)
(-3.51011e-10 1.23601e-10 8.95346e-11)
(-4.32126e-10 1.34646e-10 1.14822e-10)
(-5.36449e-10 1.39906e-10 1.46839e-10)
(-6.7051e-10 1.3437e-10 1.86927e-10)
(-8.3924e-10 1.10722e-10 2.36006e-10)
(-1.04006e-09 6.05562e-11 2.93399e-10)
(-1.24917e-09 -1.86185e-11 3.53665e-10)
(-1.39673e-09 -9.95985e-11 3.98469e-10)
(-2.51365e-11 1.08789e-11 4.41602e-12)
(-7.32002e-11 3.1725e-11 1.30715e-11)
(-1.18109e-10 5.12887e-11 2.17728e-11)
(-1.62034e-10 7.04135e-11 3.12424e-11)
(-2.07137e-10 8.9737e-11 4.21918e-11)
(-2.55775e-10 1.0968e-10 5.53826e-11)
(-3.10707e-10 1.30422e-10 7.16858e-11)
(-3.75341e-10 1.51802e-10 9.21358e-11)
(-4.53974e-10 1.73194e-10 1.17982e-10)
(-5.5203e-10 1.93233e-10 1.5072e-10)
(-6.76073e-10 2.09521e-10 1.92079e-10)
(-8.33251e-10 2.18216e-10 2.43869e-10)
(-1.02904e-09 2.13934e-10 3.07471e-10)
(-1.26083e-09 1.9082e-10 3.82304e-10)
(-1.5025e-09 1.47369e-10 4.61415e-10)
(-1.67517e-09 1.00473e-10 5.2023e-10)
(-3.08572e-11 1.33401e-11 5.39246e-12)
(-8.9755e-11 3.89173e-11 1.59481e-11)
(-1.44461e-10 6.29701e-11 2.65167e-11)
(-1.97421e-10 8.65734e-11 3.79495e-11)
(-2.5101e-10 1.10577e-10 5.10755e-11)
(-3.07727e-10 1.35615e-10 6.67698e-11)
(-3.70385e-10 1.62119e-10 8.60201e-11)
(-4.42324e-10 1.9027e-10 1.09988e-10)
(-5.27593e-10 2.19957e-10 1.40065e-10)
(-6.31119e-10 2.50681e-10 1.77922e-10)
(-7.58698e-10 2.81435e-10 2.2551e-10)
(-9.16549e-10 3.10608e-10 2.84938e-10)
(-1.10966e-09 3.35862e-10 3.57952e-10)
(-1.33683e-09 3.54112e-10 4.44191e-10)
(-1.57712e-09 3.61822e-10 5.35903e-10)
(-1.7577e-09 3.57909e-10 6.0454e-10)
(-3.56798e-11 1.53331e-11 6.18975e-12)
(-1.03645e-10 4.47547e-11 1.82869e-11)
(-1.66347e-10 7.24743e-11 3.03391e-11)
(-2.2633e-10 9.97778e-11 4.32802e-11)
(-2.85987e-10 1.27706e-10 5.80057e-11)
(-3.47718e-10 1.57112e-10 7.54438e-11)
(-4.1408e-10 1.88679e-10 9.66218e-11)
(-4.87909e-10 2.22977e-10 1.22725e-10)
(-5.7241e-10 2.6047e-10 1.55155e-10)
(-6.71152e-10 3.01608e-10 1.95572e-10)
(-7.87919e-10 3.46944e-10 2.45924e-10)
(-9.26247e-10 3.97307e-10 3.08363e-10)
(-1.08831e-09 4.53844e-10 3.84812e-10)
(-1.27222e-09 5.17002e-10 4.75298e-10)
(-1.46435e-09 5.81948e-10 5.72322e-10)
(-1.61499e-09 6.2774e-10 6.46014e-10)
(-3.95754e-11 1.67788e-11 6.79937e-12)
(-1.14801e-10 4.89941e-11 2.00639e-11)
(-1.837e-10 7.94021e-11 3.32026e-11)
(-2.48761e-10 1.09449e-10 4.71865e-11)
(-3.12248e-10 1.40328e-10 6.29283e-11)
(-3.76285e-10 1.73066e-10 8.13517e-11)
(-4.42972e-10 2.08556e-10 1.0345e-10)
(-5.14397e-10 2.47655e-10 1.30337e-10)
(-5.92596e-10 2.91269e-10 1.63287e-10)
(-6.79355e-10 3.40527e-10 2.03773e-10)
(-7.75798e-10 3.97061e-10 2.53478e-10)
(-8.81588e-10 4.63469e-10 3.14257e-10)
(-9.93606e-10 5.43737e-10 3.87852e-10)
(-1.10405e-09 6.4261e-10 4.74649e-10)
(-1.19867e-09 7.58945e-10 5.68621e-10)
(-1.2575e-09 8.59473e-10 6.41687e-10)
(-4.2574e-11 1.76122e-11 7.22525e-12)
(-1.2333e-10 5.14471e-11 2.12918e-11)
(-1.96748e-10 8.34383e-11 3.51346e-11)
(-2.65162e-10 1.15126e-10 4.97193e-11)
(-3.3059e-10 1.47815e-10 6.59337e-11)
(-3.94815e-10 1.82611e-10 8.46472e-11)
(-4.59401e-10 2.20532e-10 1.0676e-10)
(-5.25656e-10 2.62562e-10 1.33234e-10)
(-5.94481e-10 3.09763e-10 1.65116e-10)
(-6.6604e-10 3.63434e-10 2.03535e-10)
(-7.39148e-10 4.25385e-10 2.4968e-10)
(-8.10209e-10 4.98338e-10 3.04721e-10)
(-8.71385e-10 5.86543e-10 3.69623e-10)
(-9.07785e-10 6.96291e-10 4.44574e-10)
(-8.9533e-10 8.33646e-10 5.26634e-10)
(-8.17666e-10 9.79977e-10 5.98266e-10)
(-3.79671e-12 1.74027e-12 6.31267e-13)
(-1.10737e-11 5.07321e-12 1.87115e-12)
(-1.79278e-11 8.1962e-12 3.1258e-12)
(-2.47281e-11 1.12365e-11 4.50475e-12)
(-3.18575e-11 1.42813e-11 6.11763e-12)
(-3.97531e-11 1.73686e-11 8.08373e-12)
(-4.89534e-11 2.04666e-11 1.05403e-11)
(-6.01491e-11 2.3438e-11 1.3649e-11)
(-7.42422e-11 2.59694e-11 1.75995e-11)
(-9.23878e-11 2.74573e-11 2.26027e-11)
(-1.15989e-10 2.68244e-11 2.8867e-11)
(-1.46551e-10 2.2244e-11 3.65361e-11)
(-1.85256e-10 1.07953e-11 4.55555e-11)
(-2.32038e-10 -1.1728e-11 5.54201e-11)
(-2.837e-10 -4.94966e-11 6.4775e-11)
(-3.28178e-10 -9.62125e-11 7.10277e-11)
(-1.12257e-11 5.15371e-12 1.86486e-12)
(-3.2731e-11 1.50285e-11 5.52682e-12)
(-5.29549e-11 2.42881e-11 9.22937e-12)
(-7.29603e-11 3.33185e-11 1.3293e-11)
(-9.3844e-11 4.23885e-11 1.80379e-11)
(-1.1685e-10 5.16292e-11 2.38115e-11)
(-1.43495e-10 6.09868e-11 3.10124e-11)
(-1.75719e-10 7.0127e-11 4.01116e-11)
(-2.16039e-10 7.82566e-11 5.16611e-11)
(-2.67668e-10 8.38462e-11 6.62807e-11)
(-3.34479e-10 8.418e-11 8.45911e-11)
(-4.20522e-10 7.47828e-11 1.07039e-10)
(-5.2855e-10 4.89038e-11 1.33503e-10)
(-6.56535e-10 -1.89633e-12 1.62519e-10)
(-7.90655e-10 -8.23759e-11 1.89937e-10)
(-8.91716e-10 -1.70548e-10 2.0746e-10)
(-1.8238e-11 8.39579e-12 3.02462e-12)
(-5.31396e-11 2.4486e-11 8.95995e-12)
(-8.58446e-11 3.95957e-11 1.49484e-11)
(-1.18001e-10 5.4372e-11 2.15011e-11)
(-1.51285e-10 6.92865e-11 2.91256e-11)
(-1.87566e-10 8.46124e-11 3.8369e-11)
(-2.29083e-10 1.00378e-10 4.98572e-11)
(-2.78663e-10 1.16236e-10 6.43275e-11)
(-3.3992e-10 1.31284e-10 8.26455e-11)
(-4.17422e-10 1.43709e-10 1.05789e-10)
(-5.1661e-10 1.50338e-10 1.34754e-10)
(-6.43036e-10 1.46082e-10 1.70286e-10)
(-7.99969e-10 1.23791e-10 2.12259e-10)
(-9.82599e-10 7.59878e-11 2.58371e-10)
(-1.16664e-09 2.49273e-12 3.01795e-10)
(-1.29232e-09 -6.84088e-11 3.28666e-10)
(-2.46084e-11 1.13532e-11 4.0696e-12)
(-7.16277e-11 3.31238e-11 1.20472e-11)
(-1.15464e-10 5.36039e-11 2.00715e-11)
(-1.58191e-10 7.37039e-11 2.88121e-11)
(-2.01873e-10 9.41167e-11 3.89288e-11)
(-2.48747e-10 1.15318e-10 5.11263e-11)
(-3.01428e-10 1.37522e-10 6.62049e-11)
(-3.63114e-10 1.60604e-10 8.51012e-11)
(-4.3781e-10 1.83937e-10 1.08916e-10)
(-5.30465e-10 2.0614e-10 1.38898e-10)
(-6.46895e-10 2.24734e-10 1.76339e-10)
(-7.92985e-10 2.35781e-10 2.22256e-10)
(-9.7221e-10 2.33837e-10 2.76585e-10)
(-1.17948e-09 2.13316e-10 3.36424e-10)
(-1.38861e-09 1.73723e-10 3.92768e-10)
(-1.53363e-09 1.32729e-10 4.27257e-10)
(-3.01745e-11 1.39208e-11 4.96871e-12)
(-8.77191e-11 4.06335e-11 1.46961e-11)
(-1.41033e-10 6.58107e-11 2.44408e-11)
(-1.92428e-10 9.06156e-11 3.4992e-11)
(-2.44147e-10 1.15969e-10 4.71181e-11)
(-2.98524e-10 1.42582e-10 6.16297e-11)
(-3.5817e-10 1.70937e-10 7.94356e-11)
(-4.26131e-10 2.01286e-10 1.0159e-10)
(-5.06048e-10 2.33556e-10 1.29322e-10)
(-6.02228e-10 2.67268e-10 1.64032e-10)
(-7.19514e-10 3.01394e-10 2.07189e-10)
(-8.62669e-10 3.34184e-10 2.6001e-10)
(-1.03457e-09 3.62968e-10 3.22596e-10)
(-1.23175e-09 3.84019e-10 3.9189e-10)
(-1.43414e-09 3.93083e-10 4.57709e-10)
(-1.58365e-09 3.89758e-10 4.98559e-10)
(-3.48435e-11 1.60012e-11 5.70234e-12)
(-1.01153e-10 4.67239e-11 1.68485e-11)
(-1.62144e-10 7.57394e-11 2.79589e-11)
(-2.20198e-10 1.04427e-10 3.98996e-11)
(-2.77536e-10 1.33925e-10 5.35011e-11)
(-3.36354e-10 1.65163e-10 6.96242e-11)
(-3.98937e-10 1.9892e-10 8.92151e-11)
(-4.67757e-10 2.35839e-10 1.13354e-10)
(-5.45485e-10 2.7648e-10 1.43282e-10)
(-6.34924e-10 3.21359e-10 1.804e-10)
(-7.38723e-10 3.71052e-10 2.26189e-10)
(-8.58773e-10 4.26264e-10 2.81931e-10)
(-9.95094e-10 4.87591e-10 3.47927e-10)
(-1.14391e-09 5.54035e-10 4.21492e-10)
(-1.29363e-09 6.1831e-10 4.92571e-10)
(-1.41086e-09 6.59587e-10 5.38161e-10)
(-3.85928e-11 1.75075e-11 6.26288e-12)
(-1.11871e-10 5.11457e-11 1.84821e-11)
(-1.78755e-10 8.29707e-11 3.05918e-11)
(-2.41544e-10 1.14535e-10 4.34915e-11)
(-3.02286e-10 1.47144e-10 5.80288e-11)
(-3.62874e-10 1.81905e-10 7.5061e-11)
(-4.25079e-10 2.19825e-10 9.5506e-11)
(-4.90555e-10 2.6186e-10 1.20381e-10)
(-5.60713e-10 3.09028e-10 1.50822e-10)
(-6.36449e-10 3.62559e-10 1.88075e-10)
(-7.17591e-10 4.24152e-10 2.33426e-10)
(-8.01995e-10 4.96284e-10 2.87988e-10)
(-8.84238e-10 5.82328e-10 3.52113e-10)
(-9.54649e-10 6.85192e-10 4.23823e-10)
(-1.00157e-09 8.00199e-10 4.94807e-10)
(-1.02263e-09 8.93238e-10 5.43072e-10)
(-4.14565e-11 1.8374e-11 6.65384e-12)
(-1.19994e-10 5.37023e-11 1.96092e-11)
(-1.91122e-10 8.71766e-11 3.23648e-11)
(-2.56948e-10 1.20465e-10 4.58153e-11)
(-3.19268e-10 1.54963e-10 6.07859e-11)
(-3.79584e-10 1.91895e-10 7.80838e-11)
(-4.39107e-10 2.32378e-10 9.85437e-11)
(-4.98668e-10 2.77506e-10 1.23049e-10)
(-5.58497e-10 3.28455e-10 1.52535e-10)
(-6.17806e-10 3.86631e-10 1.87959e-10)
(-6.74075e-10 4.53883e-10 2.30212e-10)
(-7.21838e-10 5.32805e-10 2.79917e-10)
(-7.50882e-10 6.27001e-10 3.37011e-10)
(-7.44137e-10 7.40934e-10 3.99889e-10)
(-6.78881e-10 8.77176e-10 4.63591e-10)
(-5.54311e-10 1.01588e-09 5.1426e-10)
(-3.71917e-12 1.80527e-12 5.53414e-13)
(-1.08422e-11 5.26509e-12 1.64049e-12)
(-1.75371e-11 8.51301e-12 2.74085e-12)
(-2.41564e-11 1.16861e-11 3.95053e-12)
(-3.10661e-11 1.48789e-11 5.36544e-12)
(-3.86836e-11 1.81353e-11 7.08895e-12)
(-4.75201e-11 2.14299e-11 9.23792e-12)
(-5.82316e-11 2.46285e-11 1.19466e-11)
(-7.16678e-11 2.74227e-11 1.53644e-11)
(-8.89093e-11 2.92175e-11 1.96432e-11)
(-1.11249e-10 2.89623e-11 2.49057e-11)
(-1.40041e-10 2.49165e-11 3.11814e-11)
(-1.76297e-10 1.43885e-11 3.83041e-11)
(-2.19899e-10 -6.31769e-12 4.57923e-11)
(-2.68093e-10 -4.06034e-11 5.27954e-11)
(-3.10246e-10 -8.25139e-11 5.80004e-11)
(-1.0993e-11 5.34649e-12 1.63483e-12)
(-3.20378e-11 1.5595e-11 4.84552e-12)
(-5.17829e-11 2.52264e-11 8.09249e-12)
(-7.12442e-11 3.4651e-11 1.16573e-11)
(-9.14671e-11 4.41601e-11 1.58199e-11)
(-1.13633e-10 5.39061e-11 2.08811e-11)
(-1.3918e-10 6.3852e-11 2.71812e-11)
(-1.69938e-10 7.36753e-11 3.51103e-11)
(-2.08269e-10 8.26004e-11 4.5104e-11)
(-2.57161e-10 8.91174e-11 5.76079e-11)
(-3.20156e-10 9.05846e-11 7.29835e-11)
(-4.0085e-10 8.27313e-11 9.13168e-11)
(-5.01478e-10 5.93507e-11 1.1208e-10)
(-6.19832e-10 1.31587e-11 1.33666e-10)
(-7.43387e-10 -5.90379e-11 1.5297e-10)
(-8.3738e-10 -1.36601e-10 1.65291e-10)
(-1.78508e-11 8.70823e-12 2.65152e-12)
(-5.19829e-11 2.54093e-11 7.85485e-12)
(-8.38885e-11 4.11242e-11 1.31064e-11)
(-1.15134e-10 5.6544e-11 1.88547e-11)
(-1.47308e-10 7.21783e-11 2.55435e-11)
(-1.82173e-10 8.83375e-11 3.36471e-11)
(-2.21837e-10 1.05074e-10 4.37003e-11)
(-2.68933e-10 1.22076e-10 5.6313e-11)
(-3.26817e-10 1.3846e-10 7.21693e-11)
(-3.99677e-10 1.52455e-10 9.19689e-11)
(-4.92417e-10 1.60964e-10 1.16287e-10)
(-6.09858e-10 1.59122e-10 1.45258e-10)
(-7.5447e-10 1.40329e-10 1.77991e-10)
(-9.21191e-10 9.82192e-11 2.11681e-10)
(-1.08785e-09 3.39301e-11 2.40709e-10)
(-1.20178e-09 -2.62135e-11 2.56999e-10)
(-2.4066e-11 1.17761e-11 3.56716e-12)
(-7.00078e-11 3.43719e-11 1.05605e-11)
(-1.12723e-10 5.56703e-11 1.75968e-11)
(-1.54169e-10 7.66421e-11 2.52641e-11)
(-1.96285e-10 9.80364e-11 3.41392e-11)
(-2.41157e-10 1.20375e-10 4.48342e-11)
(-2.91203e-10 1.43921e-10 5.80314e-11)
(-3.49354e-10 1.68593e-10 7.45099e-11)
(-4.19237e-10 1.93803e-10 9.51365e-11)
(-5.0528e-10 2.18217e-10 1.20807e-10)
(-6.12564e-10 2.3942e-10 1.52268e-10)
(-7.46038e-10 2.53603e-10 1.89716e-10)
(-9.08208e-10 2.5563e-10 2.32027e-10)
(-1.09383e-09 2.4051e-10 2.75506e-10)
(-1.27959e-09 2.08417e-10 3.12584e-10)
(-1.4086e-09 1.75521e-10 3.32667e-10)
(-2.9479e-11 1.44389e-11 4.35481e-12)
(-8.56431e-11 4.21603e-11 1.28813e-11)
(-1.37516e-10 6.83416e-11 2.14253e-11)
(-1.87263e-10 9.42183e-11 3.068e-11)
(-2.36961e-10 1.20784e-10 4.13179e-11)
(-2.88751e-10 1.48805e-10 5.40437e-11)
(-3.4498e-10 1.78838e-10 6.96331e-11)
(-4.0835e-10 2.11183e-10 8.89642e-11)
(-4.82014e-10 2.45833e-10 1.13008e-10)
(-5.69608e-10 2.82359e-10 1.42769e-10)
(-6.7508e-10 3.19762e-10 1.79104e-10)
(-8.02094e-10 3.56291e-10 2.22295e-10)
(-9.52513e-10 3.89217e-10 2.712e-10)
(-1.12299e-09 4.14693e-10 3.21778e-10)
(-1.29724e-09 4.28337e-10 3.65394e-10)
(-1.42777e-09 4.29158e-10 3.89449e-10)
(-3.40009e-11 1.6594e-11 4.99728e-12)
(-9.86341e-11 4.84763e-11 1.47658e-11)
(-1.57879e-10 7.8643e-11 2.45064e-11)
(-2.1393e-10 1.08567e-10 3.49789e-11)
(-2.68814e-10 1.3946e-10 4.69114e-11)
(-3.24482e-10 1.72334e-10 6.10514e-11)
(-3.82911e-10 2.08037e-10 7.82116e-11)
(-4.46142e-10 2.47295e-10 9.92901e-11)
(-5.16266e-10 2.90731e-10 1.25271e-10)
(-5.95285e-10 3.38919e-10 1.57163e-10)
(-6.84801e-10 3.92437e-10 1.9583e-10)
(-7.85469e-10 4.51862e-10 2.41614e-10)
(-8.96258e-10 5.1741e-10 2.93531e-10)
(-1.01378e-09 5.87324e-10 3.47821e-10)
(-1.13113e-09 6.5344e-10 3.95897e-10)
(-1.22721e-09 6.95072e-10 4.23856e-10)
(-3.76109e-11 1.81549e-11 5.48764e-12)
(-1.08938e-10 5.30579e-11 1.61953e-11)
(-1.73789e-10 8.61412e-11 2.68103e-11)
(-2.34248e-10 1.19058e-10 3.81227e-11)
(-2.92144e-10 1.53194e-10 5.08762e-11)
(-3.49082e-10 1.89752e-10 6.58162e-11)
(-4.06484e-10 2.29814e-10 8.3732e-11)
(-4.65517e-10 2.74421e-10 1.05473e-10)
(-5.26935e-10 3.24666e-10 1.3194e-10)
(-5.90741e-10 3.81829e-10 1.64027e-10)
(-6.55606e-10 4.47578e-10 2.02472e-10)
(-7.18007e-10 5.24189e-10 2.47538e-10)
(-7.71335e-10 6.1447e-10 2.98401e-10)
(-8.06193e-10 7.20253e-10 3.52016e-10)
(-8.15811e-10 8.35677e-10 4.01224e-10)
(-8.11625e-10 9.27275e-10 4.32486e-10)
(-4.03476e-11 1.90523e-11 5.82924e-12)
(-1.16687e-10 5.57016e-11 1.71807e-11)
(-1.85526e-10 9.04963e-11 2.83599e-11)
(-2.48743e-10 1.25197e-10 4.01544e-11)
(-3.07878e-10 1.61302e-10 5.32866e-11)
(-3.64139e-10 2.00115e-10 6.84628e-11)
(-4.18352e-10 2.42839e-10 8.64003e-11)
(-4.70835e-10 2.90652e-10 1.07839e-10)
(-5.21128e-10 3.44795e-10 1.3352e-10)
(-5.67525e-10 4.06701e-10 1.64118e-10)
(-6.06308e-10 4.78161e-10 2.0009e-10)
(-6.30602e-10 5.61499e-10 2.41397e-10)
(-6.28864e-10 6.59676e-10 2.87044e-10)
(-5.83803e-10 7.76051e-10 3.34468e-10)
(-4.76241e-10 9.12268e-10 3.79027e-10)
(-3.17984e-10 1.05001e-09 4.1249e-10)
(-3.64573e-12 1.86015e-12 4.54244e-13)
(-1.06228e-11 5.42671e-12 1.34659e-12)
(-1.71642e-11 8.78107e-12 2.24974e-12)
(-2.36061e-11 1.20673e-11 3.24256e-12)
(-3.02961e-11 1.53871e-11 4.40302e-12)
(-3.7629e-11 1.87916e-11 5.81413e-12)
(-4.60882e-11 2.22614e-11 7.5681e-12)
(-5.62915e-11 2.56713e-11 9.76636e-12)
(-6.90406e-11 2.8725e-11 1.25151e-11)
(-8.5355e-11 3.08509e-11 1.59079e-11)
(-1.0646e-10 3.10478e-11 1.99926e-11)
(-1.33653e-10 2.76789e-11 2.47164e-11)
(-1.67957e-10 1.82549e-11 2.98564e-11)
(-2.09429e-10 -5.96873e-13 3.49903e-11)
(-2.55749e-10 -3.20016e-11 3.95947e-11)
(-2.96847e-10 -7.06892e-11 4.30809e-11)
(-1.07737e-11 5.50839e-12 1.34192e-12)
(-3.13804e-11 1.60745e-11 3.97703e-12)
(-5.06666e-11 2.602e-11 6.64233e-12)
(-6.95964e-11 3.57799e-11 9.56807e-12)
(-8.91598e-11 4.56666e-11 1.2982e-11)
(-1.10472e-10 5.58516e-11 1.71264e-11)
(-1.34886e-10 6.63184e-11 2.2269e-11)
(-1.64118e-10 7.67704e-11 2.8705e-11)
(-2.00384e-10 8.64651e-11 3.67439e-11)
(-2.46487e-10 9.39571e-11 4.66587e-11)
(-3.05763e-10 9.67299e-11 5.85902e-11)
(-3.81637e-10 9.07726e-11 7.23689e-11)
(-4.76357e-10 7.03656e-11 8.72768e-11)
(-5.88213e-10 2.89546e-11 1.01839e-10)
(-7.06002e-10 -3.6195e-11 1.13908e-10)
(-7.96826e-10 -1.06479e-10 1.21123e-10)
(-1.74855e-11 8.97269e-12 2.17612e-12)
(-5.08909e-11 2.61889e-11 6.44692e-12)
(-8.20326e-11 4.24158e-11 1.07574e-11)
(-1.12393e-10 5.83825e-11 1.54751e-11)
(-1.43469e-10 7.46333e-11 2.09612e-11)
(-1.76911e-10 9.15095e-11 2.75982e-11)
(-2.14681e-10 1.09102e-10 3.58051e-11)
(-2.59227e-10 1.27133e-10 4.60471e-11)
(-3.13654e-10 1.44773e-10 5.88057e-11)
(-3.81848e-10 1.60335e-10 7.45126e-11)
(-4.68363e-10 1.70877e-10 9.33831e-11)
(-5.77739e-10 1.7183e-10 1.1513e-10)
(-7.12453e-10 1.57119e-10 1.38521e-10)
(-8.68236e-10 1.21097e-10 1.6091e-10)
(-1.02502e-09 6.51417e-11 1.78215e-10)
(-1.13328e-09 1.29367e-11 1.8635e-10)
(-2.35577e-11 1.21325e-11 2.92757e-12)
(-6.84868e-11 3.54238e-11 8.66716e-12)
(-1.10138e-10 5.74142e-11 1.44424e-11)
(-1.50349e-10 7.91265e-11 2.07349e-11)
(-1.9093e-10 1.01355e-10 2.80151e-11)
(-2.33813e-10 1.24669e-10 3.67751e-11)
(-2.81211e-10 1.49378e-10 4.75534e-11)
(-3.35791e-10 1.7545e-10 6.09403e-11)
(-4.00832e-10 2.02361e-10 7.75506e-11)
(-4.80334e-10 2.2886e-10 9.79317e-11)
(-5.78905e-10 2.52667e-10 1.22367e-10)
(-7.01099e-10 2.70197e-10 1.50494e-10)
(-8.49452e-10 2.76668e-10 1.80712e-10)
(-1.01978e-09 2.67522e-10 2.09496e-10)
(-1.19155e-09 2.42917e-10 2.31316e-10)
(-1.31202e-09 2.16769e-10 2.4091e-10)
(-2.88314e-11 1.48743e-11 3.57376e-12)
(-8.3704e-11 4.34481e-11 1.05709e-11)
(-1.3422e-10 7.04758e-11 1.75834e-11)
(-1.82394e-10 9.726e-11 2.51788e-11)
(-2.30138e-10 1.24849e-10 3.39061e-11)
(-2.79389e-10 1.54073e-10 4.43313e-11)
(-3.32244e-10 1.85535e-10 5.70695e-11)
(-3.91058e-10 2.19605e-10 7.27849e-11)
(-4.58547e-10 2.56335e-10 9.21674e-11)
(-5.37802e-10 2.9537e-10 1.15833e-10)
(-6.32173e-10 3.35795e-10 1.44111e-10)
(-7.44837e-10 3.7595e-10 1.76637e-10)
(-8.77715e-10 4.13197e-10 2.11691e-10)
(-1.02883e-09 4.43725e-10 2.45379e-10)
(-1.18543e-09 4.6288e-10 2.71389e-10)
(-1.30531e-09 4.68208e-10 2.8333e-10)
(-3.322e-11 1.70938e-11 4.10045e-12)
(-9.62983e-11 4.99513e-11 1.21167e-11)
(-1.53909e-10 8.10899e-11 2.01104e-11)
(-2.08069e-10 1.12054e-10 2.87055e-11)
(-2.60604e-10 1.44126e-10 3.84951e-11)
(-3.13232e-10 1.78379e-10 5.00837e-11)
(-3.67617e-10 2.1573e-10 6.41115e-11)
(-4.25402e-10 2.56964e-10 8.12645e-11)
(-4.88151e-10 3.02771e-10 1.02239e-10)
(-5.5722e-10 3.53776e-10 1.27651e-10)
(-6.33497e-10 4.10583e-10 1.57835e-10)
(-7.1705e-10 4.73734e-10 1.92459e-10)
(-8.06886e-10 5.43302e-10 2.2991e-10)
(-9.01226e-10 6.17245e-10 2.66485e-10)
(-9.9754e-10 6.86983e-10 2.95916e-10)
(-1.08145e-09 7.31102e-10 3.10878e-10)
(-3.67072e-11 1.86994e-11 4.5025e-12)
(-1.06236e-10 5.46658e-11 1.32885e-11)
(-1.692e-10 8.88092e-11 2.19993e-11)
(-2.27482e-10 1.22861e-10 3.12838e-11)
(-2.82681e-10 1.58285e-10 4.17476e-11)
(-3.36143e-10 1.96348e-10 5.39956e-11)
(-3.88939e-10 2.38202e-10 6.86512e-11)
(-4.41788e-10 2.84952e-10 8.63622e-11)
(-4.94862e-10 3.37746e-10 1.07766e-10)
(-5.47442e-10 3.97892e-10 1.33401e-10)
(-5.9739e-10 4.67036e-10 1.63522e-10)
(-6.40482e-10 5.47324e-10 1.97777e-10)
(-6.70004e-10 6.41295e-10 2.34722e-10)
(-6.78072e-10 7.50414e-10 2.71228e-10)
(-6.6255e-10 8.68614e-10 3.02049e-10)
(-6.43208e-10 9.62396e-10 3.19966e-10)
(-3.93354e-11 1.96205e-11 4.78252e-12)
(-1.13658e-10 5.73836e-11 1.40953e-11)
(-1.80391e-10 9.32852e-11 2.32689e-11)
(-2.41184e-10 1.29176e-10 3.29479e-11)
(-2.97342e-10 1.66624e-10 4.37249e-11)
(-3.49782e-10 2.07007e-10 5.61702e-11)
(-3.98967e-10 2.51593e-10 7.08538e-11)
(-4.44743e-10 3.01617e-10 8.83401e-11)
(-4.86046e-10 3.58362e-10 1.0915e-10)
(-5.20423e-10 4.23263e-10 1.33668e-10)
(-5.43315e-10 4.98038e-10 1.61973e-10)
(-5.47068e-10 5.84816e-10 1.93546e-10)
(-5.19857e-10 6.86222e-10 2.26896e-10)
(-4.45438e-10 8.05295e-10 2.59282e-10)
(-3.08342e-10 9.43969e-10 2.8705e-10)
(-1.2837e-10 1.08514e-09 3.06184e-10)
(-3.58344e-12 1.90309e-12 3.37552e-13)
(-1.04359e-11 5.55373e-12 1.00054e-12)
(-1.68458e-11 8.99127e-12 1.67163e-12)
(-2.31339e-11 1.23667e-11 2.409e-12)
(-2.9631e-11 1.57874e-11 3.26999e-12)
(-3.67122e-11 1.93103e-11 4.31501e-12)
(-4.48356e-11 2.29233e-11 5.60928e-12)
(-5.45883e-11 2.65104e-11 7.2221e-12)
(-6.67353e-11 2.97898e-11 9.22027e-12)
(-8.22601e-11 3.22154e-11 1.16519e-11)
(-1.02367e-10 3.28329e-11 1.45182e-11)
(-1.28381e-10 3.00869e-11 1.77295e-11)
(-1.61457e-10 2.16143e-11 2.10629e-11)
(-2.01946e-10 4.17996e-12 2.41663e-11)
(-2.47962e-10 -2.53507e-11 2.66869e-11)
(-2.89567e-10 -6.23048e-11 2.84205e-11)
(-1.0587e-11 5.63579e-12 9.97029e-13)
(-3.08222e-11 1.64495e-11 2.95518e-12)
(-4.97147e-11 2.66419e-11 4.93541e-12)
(-6.81842e-11 3.66659e-11 7.10836e-12)
(-8.7171e-11 4.68513e-11 9.64157e-12)
(-1.0773e-10 5.73875e-11 1.27108e-11)
(-1.31139e-10 6.82786e-11 1.65058e-11)
(-1.59022e-10 7.92535e-11 2.12287e-11)
(-1.93484e-10 8.9611e-11 2.70731e-11)
(-2.37217e-10 9.79739e-11 3.41808e-11)
(-2.9349e-10 1.01948e-10 4.25517e-11)
(-3.65796e-10 9.77295e-11 5.19101e-11)
(-4.56751e-10 7.99074e-11 6.15431e-11)
(-5.65499e-10 4.22309e-11 7.02278e-11)
(-6.82114e-10 -1.81819e-11 7.64716e-11)
(-7.74208e-10 -8.44001e-11 7.92744e-11)
(-1.71767e-11 9.17921e-12 1.61699e-12)
(-4.99651e-11 2.67988e-11 4.79026e-12)
(-8.04543e-11 4.34271e-11 7.99291e-12)
(-1.10052e-10 5.98236e-11 1.14969e-11)
(-1.4017e-10 7.65605e-11 1.5568e-11)
(-1.72362e-10 9.40092e-11 2.04833e-11)
(-2.08465e-10 1.1229e-10 2.65419e-11)
(-2.50769e-10 1.31168e-10 3.4059e-11)
(-3.02196e-10 1.4987e-10 4.33396e-11)
(-3.6644e-10 1.66801e-10 5.46028e-11)
(-4.47934e-10 1.79173e-10 6.78451e-11)
(-5.51301e-10 1.82665e-10 8.26068e-11)
(-6.79575e-10 1.71549e-10 9.76757e-11)
(-8.29799e-10 1.40468e-10 1.10869e-10)
(-9.83892e-10 9.04787e-11 1.19332e-10)
(-1.09325e-09 4.31208e-11 1.21326e-10)
(-2.31287e-11 1.24111e-11 2.17518e-12)
(-6.72013e-11 3.6247e-11 6.43967e-12)
(-1.07946e-10 5.87786e-11 1.07306e-11)
(-1.47099e-10 8.10706e-11 1.54045e-11)
(-1.86353e-10 1.03957e-10 2.08072e-11)
(-2.27501e-10 1.28043e-10 2.72966e-11)
(-2.72585e-10 1.5368e-10 3.52555e-11)
(-3.24051e-10 1.80887e-10 4.50864e-11)
(-3.84921e-10 2.09202e-10 5.71759e-11)
(-4.58923e-10 2.37469e-10 7.18046e-11)
(-5.5047e-10 2.63548e-10 8.8968e-11)
(-6.64198e-10 2.8406e-10 1.08079e-10)
(-8.03324e-10 2.94486e-10 1.27559e-10)
(-9.6532e-10 2.90431e-10 1.44515e-10)
(-1.13217e-09 2.71644e-10 1.55117e-10)
(-1.25252e-09 2.50086e-10 1.57209e-10)
(-2.8287e-11 1.5215e-11 2.65507e-12)
(-8.20725e-11 4.44538e-11 7.85406e-12)
(-1.3144e-10 7.21434e-11 1.3064e-11)
(-1.78272e-10 9.96365e-11 1.87059e-11)
(-2.24335e-10 1.28031e-10 2.51829e-11)
(-2.71395e-10 1.58196e-10 3.29086e-11)
(-3.21324e-10 1.90792e-10 4.23182e-11)
(-3.76205e-10 2.26234e-10 5.38677e-11)
(-4.3842e-10 2.64642e-10 6.79896e-11)
(-5.10707e-10 3.05736e-10 8.49989e-11)
(-5.96145e-10 3.48701e-10 1.04899e-10)
(-6.97958e-10 3.91997e-10 1.27057e-10)
(-8.18823e-10 4.33101e-10 1.49753e-10)
(-9.58705e-10 4.68191e-10 1.69793e-10)
(-1.10793e-09 4.92156e-10 1.82855e-10)
(-1.22631e-09 5.01001e-10 1.86229e-10)
(-3.25665e-11 1.74837e-11 3.04644e-12)
(-9.43418e-11 5.11027e-11 9.00192e-12)
(-1.50577e-10 8.2999e-11 1.49411e-11)
(-2.03133e-10 1.14776e-10 2.13254e-11)
(-2.53666e-10 1.47768e-10 2.85924e-11)
(-3.03685e-10 1.831e-10 3.71821e-11)
(-3.546e-10 2.21739e-10 4.75515e-11)
(-4.07723e-10 2.64525e-10 6.0168e-11)
(-4.64225e-10 3.12202e-10 7.54702e-11)
(-5.25033e-10 3.6545e-10 9.37704e-11)
(-5.9068e-10 4.24919e-10 1.15069e-10)
(-6.61209e-10 4.91187e-10 1.38747e-10)
(-7.36383e-10 5.64318e-10 1.63147e-10)
(-8.16559e-10 6.42158e-10 1.85207e-10)
(-9.02889e-10 7.15726e-10 2.00672e-10)
(-9.84092e-10 7.62448e-10 2.06257e-10)
(-3.59546e-11 1.91239e-11 3.34488e-12)
(-1.03982e-10 5.59204e-11 9.87195e-12)
(-1.65367e-10 9.08891e-11 1.63436e-11)
(-2.21813e-10 1.25827e-10 2.32399e-11)
(-2.74732e-10 1.62251e-10 3.10094e-11)
(-3.25235e-10 2.01485e-10 4.00912e-11)
(-3.74108e-10 2.4473e-10 5.09315e-11)
(-4.21708e-10 2.93142e-10 6.39727e-11)
(-4.67766e-10 3.47909e-10 7.96139e-11)
(-5.11075e-10 4.1037e-10 9.81175e-11)
(-5.49065e-10 4.82171e-10 1.19441e-10)
(-5.77381e-10 5.65429e-10 1.42969e-10)
(-5.89939e-10 6.62621e-10 1.67184e-10)
(-5.809e-10 7.75165e-10 1.89432e-10)
(-5.52054e-10 8.96932e-10 2.0615e-10)
(-5.27559e-10 9.93695e-10 2.14091e-10)