/*--------------------------------*- C++ -*----------------------------------*\
| =========                 |                                                 |
| \\      /  F ield         | foam-extend: Open Source CFD                    |
|  \\    /   O peration     | Version:     3.1                                |
|   \\  /    A nd           | Web:         http://www.extend-project.de       |
|    \\/     M anipulation  |                                                 |
\*---------------------------------------------------------------------------*/
FoamFile
{
    version     2.0;
    format      ascii;
    class       surfaceScalarField;
    location    "3.9";
    object      meshPhi;
}
// * * * * * * * * * * * * * * * * * * * * * * * * * * * * * * * * * * * * * //

dimensions      [0 3 -1 0 0 0 0];

internalField   nonuniform List<scalar> 
41600
(
3.17907e-09
5.91628e-10
1.40756e-11
-1.42079e-11
6.11916e-09
1.75025e-09
4.25997e-11
-4.2973e-11
8.79406e-09
2.87223e-09
7.30793e-11
-7.36269e-11
1.1271e-08
3.99865e-09
1.08534e-10
-1.09138e-10
1.36031e-08
5.1843e-09
1.52868e-10
-1.53329e-10
1.58295e-08
6.48155e-09
2.10985e-10
-2.10962e-10
1.7972e-08
7.94341e-09
2.89532e-10
-2.88456e-10
2.00302e-08
9.62609e-09
3.97972e-10
-3.94911e-10
2.19721e-08
1.15908e-08
5.50224e-10
-5.4367e-10
2.37207e-08
1.39038e-08
7.67258e-10
-7.54799e-10
2.51386e-08
1.6634e-08
1.08134e-09
-1.05909e-09
2.60184e-08
1.9847e-08
1.54284e-09
-1.50427e-09
2.61021e-08
2.35887e-08
2.2293e-09
-2.16284e-09
2.51875e-08
2.7834e-08
3.24594e-09
-3.13153e-09
2.33982e-08
3.22066e-08
4.62539e-09
-4.45053e-09
4.13956e-08
7.8728e-09
-1.03459e-08
9.48341e-09
1.15646e-09
4.16219e-11
-4.20113e-11
1.82524e-08
3.42043e-09
1.25843e-10
-1.26942e-10
2.6229e-08
5.61028e-09
2.15569e-10
-2.1718e-10
3.3614e-08
7.80455e-09
3.19589e-10
-3.21363e-10
4.05673e-08
1.01083e-08
4.49157e-10
-4.50499e-10
4.72073e-08
1.26209e-08
6.18234e-10
-6.18134e-10
5.36046e-08
1.5442e-08
8.4552e-10
-8.42297e-10
5.97667e-08
1.86757e-08
1.15728e-09
-1.14817e-09
6.56135e-08
2.24338e-08
1.59143e-09
-1.57201e-09
7.09392e-08
2.68337e-08
2.20388e-09
-2.16712e-09
7.53676e-08
3.19917e-08
3.07817e-09
-3.0129e-09
7.832e-08
3.80016e-08
4.33934e-09
-4.22735e-09
7.90587e-08
4.48877e-08
6.16854e-09
-5.97856e-09
7.6969e-08
5.24859e-08
8.78642e-09
-8.46522e-09
7.23164e-08
5.99864e-08
1.21989e-08
-1.16999e-08
7.06335e-08
1.87232e-08
-2.27584e-08
1.56338e-08
1.67129e-09
6.70366e-11
-6.76616e-11
3.00853e-08
4.94145e-09
2.02369e-10
-2.04133e-10
4.32258e-08
8.09936e-09
3.45799e-10
-3.4838e-10
5.53877e-08
1.1255e-08
5.11016e-10
-5.13843e-10
6.68376e-08
1.4556e-08
7.15278e-10
-7.17382e-10
7.77777e-08
1.81398e-08
9.7956e-10
-9.79303e-10
8.83388e-08
2.21417e-08
1.33138e-09
-1.32603e-09
9.85605e-08
2.67011e-08
1.80841e-09
-1.7935e-09
1.08356e-07
3.19631e-08
2.46342e-09
-2.43183e-09
1.17461e-07
3.80763e-08
3.37134e-09
-3.31188e-09
1.25359e-07
4.5178e-08
4.63853e-09
-4.53366e-09
1.3123e-07
5.33592e-08
6.41297e-09
-6.23493e-09
1.33979e-07
6.25856e-08
8.88583e-09
-8.58903e-09
1.32608e-07
7.25305e-08
1.22407e-08
-1.17498e-08
1.27282e-07
8.20663e-08
1.63423e-08
-1.55687e-08
9.51787e-08
2.25489e-08
-2.53211e-08
2.15382e-08
2.11566e-09
8.89427e-11
-8.97701e-11
4.14393e-08
6.25272e-09
2.67959e-10
-2.70292e-10
5.95247e-08
1.02399e-08
4.56347e-10
-4.59749e-10
7.62538e-08
1.4211e-08
6.71363e-10
-6.7506e-10
9.19987e-08
1.83458e-08
9.3434e-10
-9.37025e-10
1.0705e-07
2.28088e-08
1.2705e-09
-1.26997e-09
1.21614e-07
2.77587e-08
1.71193e-09
-1.7045e-09
1.35791e-07
3.33537e-08
2.30103e-09
-2.28074e-09
1.49543e-07
3.97548e-08
3.09492e-09
-3.05225e-09
1.62637e-07
4.71206e-08
4.17054e-09
-4.09057e-09
1.74563e-07
5.55907e-08
5.62992e-09
-5.4894e-09
1.84449e-07
6.52431e-08
7.60183e-09
-7.36447e-09
1.91048e-07
7.60004e-08
1.02268e-08
-9.8347e-09
1.93047e-07
8.74324e-08
1.35864e-08
-1.29461e-08
1.90115e-07
9.82417e-08
1.7424e-08
-1.64062e-08
1.12411e-07
2.26641e-08
-2.45724e-08
2.71094e-08
2.47314e-09
1.06376e-10
-1.07364e-10
5.21456e-08
7.30597e-09
3.19722e-10
-3.22502e-10
7.48801e-08
1.19536e-08
5.42282e-10
-5.46319e-10
9.58915e-08
1.65649e-08
7.9333e-10
-7.97674e-10
1.15653e-07
2.13408e-08
1.09617e-09
-1.09922e-09
1.34545e-07
2.64612e-08
1.47738e-09
-1.47645e-09
1.52858e-07
3.20939e-08
1.96943e-09
-1.96004e-09
1.70779e-07
3.84012e-08
2.61339e-09
-2.58834e-09
1.8837e-07
4.55413e-08
3.46183e-09
-3.40958e-09
2.05514e-07
5.36648e-08
4.58106e-09
-4.48345e-09
2.21852e-07
6.28992e-08
6.05151e-09
-5.88012e-09
2.36673e-07
7.33124e-08
7.96268e-09
-7.67291e-09
2.48829e-07
8.48239e-08
1.03881e-08
-9.90941e-09
2.568e-07
9.6992e-08
1.33146e-08
-1.25343e-08
2.5925e-07
1.08464e-07
1.64275e-08
-1.51805e-08
1.22873e-07
2.04011e-08
-2.12481e-08
3.22684e-08
2.73187e-09
1.18863e-10
-1.19964e-10
6.20519e-08
8.06658e-09
3.56288e-10
-3.59383e-10
8.90705e-08
1.31852e-08
6.01444e-10
-6.05913e-10
1.1401e-07
1.82434e-08
8.74116e-10
-8.78864e-10
1.37434e-07
2.34522e-08
1.19764e-09
-1.20083e-09
1.59809e-07
2.89952e-08
1.59745e-09
-1.59602e-09
1.81509e-07
3.50369e-08
2.10307e-09
-2.09196e-09
2.02819e-07
4.17285e-08
2.74983e-09
-2.72091e-09
2.23923e-07
4.92093e-08
3.58002e-09
-3.52025e-09
2.44877e-07
5.76036e-08
4.6424e-09
-4.5312e-09
2.65563e-07
6.70106e-08
5.989e-09
-5.79386e-09
2.85605e-07
7.74844e-08
7.66695e-09
-7.33621e-09
3.04224e-07
8.8976e-08
9.69294e-09
-9.14393e-09
3.19981e-07
1.01158e-07
1.1991e-08
-1.10908e-08
3.30354e-07
1.12845e-07
1.42309e-08
-1.27824e-08
1.27317e-07
1.69945e-08
-1.69303e-08
3.69474e-08
2.88462e-09
1.264e-10
-1.27569e-10
7.10272e-08
8.51394e-09
3.77749e-10
-3.81025e-10
1.01906e-07
1.39033e-08
6.34298e-10
-6.38999e-10
1.30358e-07
1.92079e-08
9.15069e-10
-9.19989e-10
1.57026e-07
2.46383e-08
1.24188e-09
-1.24502e-09
1.82445e-07
3.03721e-08
1.63724e-09
-1.63528e-09
2.07063e-07
3.65601e-08
2.1256e-09
-2.11313e-09
2.3125e-07
4.33304e-08
2.73412e-09
-2.70248e-09
2.55303e-07
5.07885e-08
3.49225e-09
-3.42764e-09
2.79441e-07
5.90139e-08
4.42928e-09
-4.30994e-09
3.03794e-07
6.80531e-08
5.56906e-09
-5.36062e-09
3.2836e-07
7.79128e-08
6.92155e-09
-6.56906e-09
3.52882e-07
8.85472e-08
8.46317e-09
-7.87735e-09
3.76459e-07
9.98033e-08
1.00928e-08
-9.12581e-09
3.96143e-07
1.11046e-07
1.15218e-08
-9.94502e-09
1.2653e-07
1.34807e-08
-1.27327e-08
4.10893e-08
1.29391e-10
-1.30586e-10
2.92863e-09
7.89628e-08
3.85445e-10
-3.88782e-10
8.6407e-09
1.13229e-07
6.43495e-10
-6.48248e-10
1.40987e-08
1.44734e-07
9.20866e-10
-9.25759e-10
1.9451e-08
1.74174e-07
1.23681e-09
-1.23975e-09
2.48996e-08
2.02137e-07
1.60988e-09
-1.60742e-09
3.06082e-08
2.29119e-07
2.05858e-09
-2.04521e-09
3.67071e-08
2.55545e-07
2.60125e-09
-2.56824e-09
4.32938e-08
2.81781e-07
3.25457e-09
-3.18818e-09
5.04305e-08
3.08146e-07
4.02998e-09
-3.90881e-09
5.81367e-08
3.34908e-07
4.92725e-09
-4.71815e-09
6.63785e-08
3.6227e-07
5.9254e-09
-5.57662e-09
7.50517e-08
3.90256e-07
6.96582e-09
-6.39574e-09
8.39586e-08
4.18305e-07
7.9174e-09
-6.99636e-09
9.27376e-08
4.43814e-07
8.50361e-09
-7.03787e-09
1.00583e-07
1.03333e-08
-9.30169e-09
1.16128e-07
3.23421e-09
6.20211e-10
1.33879e-11
6.22638e-09
1.83584e-09
4.05394e-11
8.95131e-09
3.01615e-09
6.96143e-11
1.14788e-08
4.20633e-09
1.03534e-10
1.38643e-08
5.46614e-09
1.46074e-10
1.61482e-08
6.85318e-09
2.01969e-10
1.83533e-08
8.42639e-09
2.77597e-10
2.04788e-08
1.02489e-08
3.8192e-10
2.24908e-08
1.239e-08
5.27816e-10
2.43095e-08
1.49257e-08
7.33999e-10
2.57949e-08
1.79364e-08
1.02759e-09
2.67431e-08
2.14995e-08
1.44686e-09
2.69201e-08
2.567e-08
2.04069e-09
2.61944e-08
3.04172e-08
2.8503e-09
2.48478e-08
3.5336e-08
3.81769e-09
4.26959e-08
5.53743e-09
9.64745e-09
1.21221e-09
3.95909e-11
1.85714e-08
3.58729e-09
1.19764e-10
2.66967e-08
5.89063e-09
2.0536e-10
3.42322e-08
8.20863e-09
3.04889e-10
4.13442e-08
1.06558e-08
4.29244e-10
4.81559e-08
1.33415e-08
5.91929e-10
5.47402e-08
1.63764e-08
8.1093e-10
6.11041e-08
1.98774e-08
1.11118e-09
6.71628e-08
2.39711e-08
1.52794e-09
7.27016e-08
2.87923e-08
2.11127e-09
7.73348e-08
3.44757e-08
2.93158e-09
8.04867e-08
4.11321e-08
4.08373e-09
8.14696e-08
4.87914e-08
5.67919e-09
7.98325e-08
5.72626e-08
7.78929e-09
7.62405e-08
6.56881e-08
1.02211e-08
7.43906e-08
1.36698e-08
1.59027e-08
1.75156e-09
6.37702e-11
3.06081e-08
5.18158e-09
1.92607e-10
4.39922e-08
8.50238e-09
3.29451e-10
5.64006e-08
1.1835e-08
4.87574e-10
6.81106e-08
1.53401e-08
6.83713e-10
7.93328e-08
1.9169e-08
9.38221e-10
9.02028e-08
2.34723e-08
1.27768e-09
1.00761e-07
2.84061e-08
1.73809e-09
1.10913e-07
3.41353e-08
2.3689e-09
1.20382e-07
4.08302e-08
3.23778e-09
1.28634e-07
4.86503e-08
4.43506e-09
1.34836e-07
5.77032e-08
6.07271e-09
1.37932e-07
6.79522e-08
8.2618e-09
1.37092e-07
7.90239e-08
1.10236e-08
1.32971e-07
8.97414e-08
1.4028e-08
1.00508e-07
1.73983e-08
2.19055e-08
2.21678e-09
8.46155e-11
4.21529e-08
6.55505e-09
2.55054e-10
6.05704e-08
1.07466e-08
4.3482e-10
7.76353e-08
1.49387e-08
6.40674e-10
9.37351e-08
1.93272e-08
8.93362e-10
1.09173e-07
2.40931e-08
1.21747e-09
1.24162e-07
2.94126e-08
1.64422e-09
1.38806e-07
3.54641e-08
2.21453e-09
1.53062e-07
4.24302e-08
2.98259e-09
1.66683e-07
5.04939e-08
4.01902e-09
1.79132e-07
5.98185e-08
5.41193e-09
1.89507e-07
7.04992e-08
7.25889e-09
1.96557e-07
8.24527e-08
9.63203e-09
1.99073e-07
9.51963e-08
1.24788e-08
1.97157e-07
1.07386e-07
1.53936e-08
1.19249e-07
1.84016e-08
2.75661e-08
2.5907e-09
1.0121e-10
5.30326e-08
7.65718e-09
3.04351e-10
7.6179e-08
1.25413e-08
5.16762e-10
9.76066e-08
1.74072e-08
7.5721e-10
1.17808e-07
2.24735e-08
1.04844e-09
1.3718e-07
2.79383e-08
1.41652e-09
1.56025e-07
3.39884e-08
1.89337e-09
1.74537e-07
4.08065e-08
2.51921e-09
1.92776e-07
4.85739e-08
3.34491e-09
2.10617e-07
5.74659e-08
4.43301e-09
2.27669e-07
6.7635e-08
5.85536e-09
2.43181e-07
7.91695e-08
7.68107e-09
2.55951e-07
9.19899e-08
9.93716e-09
2.64447e-07
1.0561e-07
1.25168e-08
2.6756e-07
1.18622e-07
1.50029e-08
1.30977e-07
1.74953e-08
3.28041e-08
2.86095e-09
1.13099e-10
6.30914e-08
8.45193e-09
3.3919e-10
9.05913e-08
1.38291e-08
5.73214e-10
1.16016e-07
1.91641e-08
8.34495e-10
1.39953e-07
2.46868e-08
1.14591e-09
1.62888e-07
3.05991e-08
1.53261e-09
1.85212e-07
3.70847e-08
2.02405e-09
2.0722e-07
4.43147e-08
2.65552e-09
2.29104e-07
5.24503e-08
3.46925e-09
2.50914e-07
6.16394e-08
4.51342e-09
2.72514e-07
7.20066e-08
5.83774e-09
2.93485e-07
8.36313e-08
7.48156e-09
3.12964e-07
9.64815e-08
9.43869e-09
3.29383e-07
1.10215e-07
1.15808e-08
3.40095e-07
1.23587e-07
1.35166e-08
1.36456e-07
1.55238e-08
3.75501e-08
3.02008e-09
1.20281e-10
7.21957e-08
8.91805e-09
3.59657e-10
1.03613e-07
1.45777e-08
6.04609e-10
1.32608e-07
2.01699e-08
8.73788e-10
1.59847e-07
2.59245e-08
1.18869e-09
1.85889e-07
3.20368e-08
1.57184e-09
2.11201e-07
3.86756e-08
2.04807e-09
2.36171e-07
4.59871e-08
2.64534e-09
2.61106e-07
5.40958e-08
3.39456e-09
2.86232e-07
6.31018e-08
4.32734e-09
3.1167e-07
7.3074e-08
5.47059e-09
3.37388e-07
8.40443e-08
6.83697e-09
3.63056e-07
9.59975e-08
8.40009e-09
3.87598e-07
1.0881e-07
1.00414e-08
4.07603e-07
1.2185e-07
1.14448e-08
1.36406e-07
1.32369e-08
4.17463e-08
1.2314e-10
3.06534e-09
8.02354e-08
3.67022e-10
9.04829e-09
1.15086e-07
6.13461e-10
1.4778e-08
1.47175e-07
8.7952e-10
2.04181e-08
1.77229e-07
1.18429e-09
2.6189e-08
2.05859e-07
1.5466e-09
3.22711e-08
2.33582e-07
1.98573e-09
3.88105e-08
2.60844e-07
2.52148e-09
4.59202e-08
2.88027e-07
3.17309e-09
5.36776e-08
3.15458e-07
3.95616e-09
6.2117e-08
3.43407e-07
4.87679e-09
7.12189e-08
3.72058e-07
5.92262e-09
8.08924e-08
4.01372e-07
7.0441e-09
9.09512e-08
4.30601e-07
8.11483e-09
1.01031e-07
4.56542e-07
8.85493e-09
1.10275e-07
1.08528e-08
1.251e-07
3.28357e-09
6.46245e-10
1.21549e-11
6.32262e-09
1.91375e-09
3.682e-11
9.09285e-09
3.14695e-09
6.32711e-11
1.16663e-08
4.3945e-09
9.41844e-11
1.41005e-08
5.72027e-09
1.33002e-10
1.64372e-08
7.18594e-09
1.84006e-10
1.87002e-08
8.85459e-09
2.52874e-10
2.08894e-08
1.07935e-08
3.47374e-10
2.2971e-08
1.3076e-08
4.78224e-10
2.4866e-08
1.57803e-08
6.6003e-10
2.64386e-08
1.89855e-08
9.11926e-10
2.74982e-08
2.27588e-08
1.25668e-09
2.78431e-08
2.71258e-08
1.71484e-09
2.73954e-08
3.19918e-08
2.28557e-09
2.64481e-08
3.68687e-08
2.89497e-09
4.47512e-08
3.83087e-09
9.79433e-09
1.263e-09
3.59472e-11
1.88577e-08
3.73923e-09
1.08783e-10
2.71178e-08
6.14551e-09
1.86662e-10
3.47901e-08
8.57491e-09
2.77388e-10
4.20468e-08
1.11498e-08
3.90904e-10
4.90156e-08
1.39871e-08
5.39444e-10
5.57727e-08
1.72055e-08
7.39062e-10
6.23269e-08
2.09296e-08
1.01145e-09
6.85937e-08
2.52927e-08
1.38606e-09
7.43601e-08
3.0433e-08
1.90217e-09
7.92495e-08
3.64808e-08
2.60946e-09
8.27174e-08
4.3523e-08
3.56356e-09
8.41549e-08
5.15252e-08
4.80659e-09
8.32429e-08
6.01608e-08
6.31259e-09
8.06774e-08
6.84006e-08
7.86317e-09
7.65917e-08
9.68794e-09
1.61435e-08
1.8247e-09
5.79067e-11
3.10774e-08
5.40028e-09
1.74965e-10
4.46822e-08
8.86889e-09
2.99496e-10
5.73145e-08
1.23609e-08
4.43686e-10
6.92615e-08
1.60479e-08
6.22848e-10
8.07415e-08
2.0092e-08
8.55489e-10
9.18957e-08
2.46542e-08
1.16545e-09
1.02767e-07
2.9901e-08
1.58425e-09
1.13264e-07
3.60057e-08
2.15361e-09
1.23108e-07
4.31419e-08
2.92705e-09
1.31772e-07
5.14597e-08
3.96856e-09
1.38456e-07
6.10284e-08
5.34212e-09
1.42188e-07
7.17128e-08
7.07817e-09
1.42287e-07
8.29403e-08
9.09531e-09
1.39451e-07
9.3287e-08
1.1061e-08
1.02857e-07
1.28397e-08
2.22343e-08
2.30894e-09
7.68446e-11
4.27935e-08
6.83044e-09
2.31724e-10
6.15115e-08
1.12076e-08
3.95356e-10
7.88814e-08
1.55989e-08
5.83163e-10
9.53041e-08
2.02137e-08
8.14187e-10
1.11093e-07
2.52457e-08
1.1109e-09
1.26471e-07
3.08836e-08
1.5015e-09
1.41546e-07
3.73173e-08
2.02225e-09
1.56278e-07
4.47385e-08
2.71944e-09
1.70415e-07
5.33327e-08
3.6498e-09
1.83422e-07
6.32497e-08
4.87653e-09
1.94411e-07
7.4536e-08
6.45347e-09
2.02184e-07
8.69866e-08
8.38306e-09
2.05642e-07
9.98776e-08
1.05332e-08
2.04937e-07
1.11567e-07
1.25214e-08
1.21797e-07
1.42048e-08
2.79749e-08
2.69785e-09
9.19273e-11
5.38285e-08
7.97714e-09
2.76553e-10
7.73476e-08
1.30762e-08
4.69956e-10
9.91528e-08
1.81716e-08
6.89452e-10
1.19754e-07
2.34974e-08
9.56002e-10
1.39561e-07
2.92652e-08
1.29359e-09
1.58889e-07
3.56753e-08
1.73136e-09
1.77939e-07
4.29226e-08
2.30548e-09
1.96774e-07
5.1197e-08
3.06026e-09
2.15265e-07
6.06754e-08
4.04726e-09
2.33014e-07
7.14949e-08
5.31942e-09
2.49257e-07
8.36922e-08
6.91376e-09
2.62791e-07
9.70588e-08
8.80843e-09
2.72109e-07
1.1085e-07
1.08473e-08
2.76137e-07
1.23325e-07
1.26509e-08
1.33858e-07
1.42069e-08
3.32833e-08
2.97861e-09
1.02741e-10
6.40237e-08
8.80306e-09
3.0826e-10
9.19589e-08
1.44152e-08
5.2141e-10
1.17824e-07
2.00002e-08
7.6008e-10
1.42226e-07
2.58034e-08
1.04545e-09
1.65667e-07
3.20413e-08
1.40087e-09
1.88553e-07
3.89109e-08
1.85359e-09
2.11191e-07
4.65949e-08
2.436e-09
2.33775e-07
5.52624e-08
3.18591e-09
2.56355e-07
6.50619e-08
4.14466e-09
2.78778e-07
7.61032e-08
5.35081e-09
3.00594e-07
8.84171e-08
6.82545e-09
3.20879e-07
1.01852e-07
8.53559e-09
3.37977e-07
1.15817e-07
1.03315e-08
3.49219e-07
1.28717e-07
1.18682e-08
1.39809e-07
1.33418e-08
3.80891e-08
3.1436e-09
1.09281e-10
7.32434e-08
9.28641e-09
3.26916e-10
1.05148e-07
1.51917e-08
5.50094e-10
1.34633e-07
2.1044e-08
7.96151e-10
1.62389e-07
2.70887e-08
1.0851e-09
1.88994e-07
3.35355e-08
1.43806e-09
2.14931e-07
4.05654e-08
1.87844e-09
2.40599e-07
4.83353e-08
2.43256e-09
2.66316e-07
5.69763e-08
3.12925e-09
2.92304e-07
6.65879e-08
3.99735e-09
3.1867e-07
7.72248e-08
5.05991e-09
3.45335e-07
8.88762e-08
6.32355e-09
3.71869e-07
1.01427e-07
7.75339e-09
3.97012e-07
1.14539e-07
9.23098e-09
4.17219e-07
1.27249e-07
1.04876e-08
1.40298e-07
1.2077e-08
4.23339e-08
1.11894e-10
3.19004e-09
8.13763e-08
3.33667e-10
9.41996e-09
1.16755e-07
5.58276e-10
1.53968e-08
1.49374e-07
8.01652e-10
2.12974e-08
1.79983e-07
1.08169e-09
2.73572e-08
2.09213e-07
1.41626e-09
3.377e-08
2.37602e-07
1.82395e-09
4.06931e-08
2.65608e-07
2.3241e-09
4.82483e-08
2.93622e-07
2.93585e-09
5.65176e-08
3.21972e-07
3.67525e-09
6.55333e-08
3.50911e-07
4.54982e-09
7.52613e-08
3.80575e-07
5.54955e-09
8.55713e-08
4.10813e-07
6.6292e-09
9.61936e-08
4.40656e-07
7.67682e-09
1.06595e-07
4.6667e-07
8.45878e-09
1.15645e-07
1.04309e-08
1.29291e-07
3.32636e-09
6.69006e-10
1.04143e-11
6.40616e-09
1.98181e-09
3.15554e-11
9.21592e-09
3.26097e-09
5.42475e-11
1.18297e-08
4.55796e-09
8.07889e-11
1.43065e-08
5.93983e-09
1.14116e-10
1.66899e-08
7.47118e-09
1.57835e-10
1.90047e-08
9.21765e-09
2.16628e-10
2.12517e-08
1.12485e-08
2.9669e-10
2.33985e-08
1.36374e-08
4.06135e-10
2.53687e-08
1.64608e-08
5.55164e-10
2.70318e-08
1.9791e-08
7.5546e-10
2.82093e-08
2.36817e-08
1.01775e-09
2.87184e-08
2.81386e-08
1.34557e-09
2.84977e-08
3.30515e-08
1.72286e-09
2.78016e-08
3.79563e-08
2.09164e-09
4.64169e-08
2.62373e-09
9.92162e-09
1.3074e-09
3.08017e-11
1.91062e-08
3.87195e-09
9.32363e-11
2.74838e-08
6.36771e-09
1.60056e-10
3.52758e-08
8.89312e-09
2.37968e-10
4.26596e-08
1.15766e-08
3.35469e-10
4.97671e-08
1.45408e-08
4.62879e-10
5.6678e-08
1.7909e-08
6.33473e-10
6.34042e-08
2.18093e-08
8.6461e-10
6.98648e-08
2.63755e-08
1.1787e-09
7.58529e-08
3.17412e-08
1.60326e-09
8.10056e-08
3.8022e-08
2.16856e-09
8.48074e-08
4.52747e-08
2.89965e-09
8.66969e-08
5.34158e-08
3.7975e-09
8.63917e-08
6.20658e-08
4.80383e-09
8.4483e-08
7.0203e-08
5.74943e-09
7.84226e-08
6.74702e-09
1.63521e-08
1.88866e-09
4.96234e-11
3.14845e-08
5.59135e-09
1.49978e-10
4.52816e-08
9.18847e-09
2.56847e-10
5.81098e-08
1.28179e-08
3.80726e-10
7.02646e-08
1.66599e-08
5.34724e-10
8.19715e-08
2.08841e-08
7.34511e-10
9.33774e-08
2.5658e-08
9.99899e-10
1.0453e-07
3.11525e-08
1.35631e-09
1.15344e-07
3.75409e-08
1.83575e-09
1.25545e-07
4.49884e-08
2.47606e-09
1.34624e-07
5.36222e-08
3.31612e-09
1.4181e-07
6.34636e-08
4.38228e-09
1.46186e-07
7.42955e-08
5.65832e-09
1.47106e-07
8.54483e-08
7.03552e-09
1.4513e-07
9.54787e-08
8.25996e-09
1.04619e-07
9.2109e-09
2.2519e-08
2.38954e-09
6.58617e-11
4.33489e-08
7.07108e-09
1.98662e-10
6.23289e-08
1.16096e-08
3.3913e-10
7.99653e-08
1.61729e-08
5.00573e-10
9.66705e-08
2.09807e-08
6.99345e-10
1.12768e-07
2.62358e-08
9.54575e-10
1.28488e-07
3.21345e-08
1.28988e-09
1.43946e-07
3.88713e-08
1.7348e-09
1.59106e-07
4.6637e-08
2.32536e-09
1.73723e-07
5.56059e-08
3.10227e-09
1.8727e-07
6.58973e-08
4.10421e-09
1.9888e-07
7.74952e-08
5.35036e-09
2.07391e-07
9.0088e-08
6.80439e-09
2.11725e-07
1.0282e-07
8.32171e-09
2.11901e-07
1.14014e-07
9.61107e-09
1.23465e-07
1.05579e-08
2.83289e-08
2.79157e-09
7.88016e-11
5.45185e-08
8.25681e-09
2.3714e-10
7.83621e-08
1.35428e-08
4.03222e-10
1.00497e-07
1.88367e-08
5.92031e-10
1.21447e-07
2.43839e-08
8.21643e-10
1.41636e-07
3.04062e-08
1.11262e-09
1.61386e-07
3.7112e-08
1.4896e-09
1.80908e-07
4.47006e-08
1.98248e-09
2.00271e-07
5.33601e-08
2.6264e-09
2.19347e-07
6.32539e-08
3.45933e-09
2.37739e-07
7.44848e-08
4.51445e-09
2.54685e-07
8.70196e-08
5.8026e-09
2.68983e-07
1.00531e-07
7.27619e-09
2.7912e-07
1.14122e-07
8.78074e-09
2.83923e-07
1.26002e-07
1.0025e-08
1.35566e-07
1.09996e-08
3.36982e-08
3.08157e-09
8.80867e-11
6.48318e-08
9.11008e-09
2.64382e-10
9.31459e-08
1.49269e-08
4.47491e-10
1.19395e-07
2.0728e-08
6.52947e-10
1.44202e-07
2.67711e-08
8.99103e-10
1.68086e-07
3.3283e-08
1.20613e-09
1.91462e-07
4.04688e-08
1.59737e-09
2.14647e-07
4.85153e-08
2.1001e-09
2.37841e-07
5.75891e-08
2.74507e-09
2.61093e-07
6.78241e-08
3.56385e-09
2.84243e-07
7.92949e-08
4.58183e-09
3.0682e-07
9.19632e-08
5.80387e-09
3.27867e-07
1.0556e-07
7.184e-09
3.4568e-07
1.19338e-07
8.58398e-09
3.57526e-07
1.3164e-07
9.73635e-09
1.41736e-07
1.08003e-08
3.85556e-08
3.25171e-09
9.37113e-11
7.41513e-08
9.60861e-09
2.80441e-10
1.0648e-07
1.5728e-08
4.72243e-10
1.36393e-07
2.18054e-08
6.84225e-10
1.646e-07
2.80986e-08
9.33825e-10
1.91694e-07
3.48274e-08
1.23945e-09
2.18173e-07
4.21807e-08
1.62148e-09
2.44445e-07
5.03185e-08
2.10259e-09
2.70834e-07
5.93692e-08
2.70704e-09
2.9756e-07
6.94176e-08
3.45797e-09
3.24713e-07
8.04849e-08
4.3717e-09
3.52183e-07
9.24967e-08
5.44777e-09
3.79475e-07
1.05231e-07
6.64833e-09
4.05243e-07
1.18209e-07
7.87064e-09
4.2589e-07
1.30396e-07
8.90691e-09
1.42567e-07
1.02191e-08
4.28424e-08
9.59692e-11
3.29923e-09
8.23649e-08
2.86291e-10
9.7452e-09
1.18203e-07
4.794e-10
1.59375e-08
1.51284e-07
6.89237e-10
2.20638e-08
1.82376e-07
9.31485e-10
2.83714e-08
2.1213e-07
1.2219e-09
3.50639e-08
2.41095e-07
1.57697e-09
4.23054e-08
2.69741e-07
2.01386e-09
5.02205e-08
2.98464e-07
2.54943e-09
5.88876e-08
3.2759e-07
3.19761e-09
6.83253e-08
3.57353e-07
3.96436e-09
7.84687e-08
3.87848e-07
4.83984e-09
8.91309e-08
4.18845e-07
5.78383e-09
9.9953e-08
4.49268e-07
6.70425e-09
1.10283e-07
4.7561e-07
7.4182e-09
1.18915e-07
9.15393e-09
1.31834e-07
3.36173e-09
6.87885e-10
8.23129e-12
6.47528e-09
2.0382e-09
2.49444e-11
9.31786e-09
3.35524e-09
4.28914e-11
1.19652e-08
4.69262e-09
6.38861e-11
1.44777e-08
6.11971e-09
9.02281e-11
1.69001e-08
7.70302e-09
1.24703e-10
1.92586e-08
9.50953e-09
1.70845e-10
2.1555e-08
1.16089e-08
2.33174e-10
2.37586e-08
1.40736e-08
3.17296e-10
2.57951e-08
1.69763e-08
4.29656e-10
2.75385e-08
2.03828e-08
5.76522e-10
2.88164e-08
2.43377e-08
7.61542e-10
2.94525e-08
2.88405e-08
9.81267e-10
2.93808e-08
3.37913e-08
1.21895e-09
2.88187e-08
3.87611e-08
1.43701e-09
4.76652e-08
1.74821e-09
1.00268e-08
1.34423e-09
2.43467e-11
1.93117e-08
3.98192e-09
7.37078e-11
2.77869e-08
6.55143e-09
1.26562e-10
3.56785e-08
9.15528e-09
1.88205e-10
4.31682e-08
1.19264e-08
2.653e-10
5.03918e-08
1.4991e-08
3.65834e-10
5.74324e-08
1.84749e-08
4.99852e-10
6.43052e-08
2.25066e-08
6.80063e-10
7.09333e-08
2.72175e-08
9.22012e-10
7.71163e-08
3.27332e-08
1.24316e-09
8.25017e-08
3.91548e-08
1.65957e-09
8.65897e-08
4.65176e-08
2.17857e-09
8.88329e-08
5.47168e-08
2.78525e-09
8.8933e-08
6.3372e-08
3.42462e-09
8.73779e-08
7.15063e-08
3.98603e-09
7.99044e-08
4.54692e-09
1.65244e-08
1.94171e-09
3.9228e-11
3.18211e-08
5.74969e-09
1.18579e-10
4.57777e-08
9.45276e-09
2.03131e-10
5.87687e-08
1.31946e-08
3.01183e-10
7.10966e-08
1.71616e-08
4.23036e-10
8.2993e-08
2.15286e-08
5.80856e-10
9.46104e-08
2.64663e-08
7.89714e-10
1.06002e-07
3.21458e-08
1.06834e-09
1.17086e-07
3.87362e-08
1.43912e-09
1.27599e-07
4.63905e-08
1.92626e-09
1.37042e-07
5.52127e-08
2.55019e-09
1.44661e-07
6.51879e-08
3.31576e-09
1.49551e-07
7.60565e-08
4.19121e-09
1.51039e-07
8.71272e-08
5.08223e-09
1.49541e-07
9.70015e-08
5.82086e-09
1.06068e-07
6.33886e-09
2.27542e-08
2.45641e-09
5.20718e-11
4.38079e-08
7.27055e-09
1.57096e-10
6.30051e-08
1.19422e-08
2.68263e-10
8.08629e-08
1.66462e-08
3.96118e-10
9.78031e-08
2.16099e-08
5.53549e-10
1.14158e-07
2.70421e-08
7.55476e-10
1.30164e-07
3.31429e-08
1.02e-09
1.45944e-07
4.01066e-08
1.36908e-09
1.61468e-07
4.81181e-08
1.82826e-09
1.76496e-07
5.73355e-08
2.42394e-09
1.90512e-07
6.78473e-08
3.17647e-09
2.02656e-07
7.95886e-08
4.08559e-09
2.11772e-07
9.21864e-08
5.10525e-09
2.16743e-07
1.04745e-07
6.11575e-09
2.17445e-07
1.15635e-07
6.92101e-09
1.24785e-07
7.45802e-09
2.86211e-08
2.86935e-09
6.23127e-11
5.50886e-08
8.48869e-09
1.87559e-10
7.92013e-08
1.3929e-08
3.19042e-10
1.0161e-07
1.93853e-08
4.68667e-10
1.2285e-07
2.51117e-08
6.50732e-10
1.43355e-07
3.13365e-08
8.81369e-10
1.63457e-07
3.8272e-08
1.17963e-09
1.83374e-07
4.61169e-08
1.56803e-09
2.03179e-07
5.5052e-08
2.07194e-09
2.22749e-07
6.52218e-08
2.71655e-09
2.41689e-07
7.66936e-08
3.5198e-09
2.59234e-07
8.93771e-08
4.4779e-09
2.74173e-07
1.02872e-07
5.54005e-09
2.84948e-07
1.1623e-07
6.58173e-09
2.90268e-07
1.27708e-07
7.40187e-09
1.36823e-07
8.00795e-09
3.40407e-08
3.16703e-09
6.96674e-11
6.54994e-08
9.36473e-09
2.09148e-10
9.41275e-08
1.53505e-08
3.54168e-10
1.20694e-07
2.13288e-08
5.17103e-10
1.45839e-07
2.75663e-08
7.12535e-10
1.70088e-07
3.42967e-08
9.56404e-10
1.93871e-07
4.17288e-08
1.26695e-09
2.17509e-07
5.00488e-08
1.66505e-09
2.41209e-07
5.94148e-08
2.17341e-09
2.6502e-07
6.99407e-08
2.81371e-09
2.88776e-07
8.16641e-08
3.60037e-09
3.11992e-07
9.44878e-08
4.52902e-09
3.33684e-07
1.08067e-07
5.555e-09
3.521e-07
1.21596e-07
6.56915e-09
3.6442e-07
1.33465e-07
7.38183e-09
1.4306e-07
8.11972e-09
3.89408e-08
3.34149e-09
7.41296e-11
7.49014e-08
9.87597e-09
2.21901e-10
1.07581e-07
1.61722e-08
3.73865e-10
1.3785e-07
2.24344e-08
5.42103e-10
1.6643e-07
2.89293e-08
7.40535e-10
1.93929e-07
3.58835e-08
9.83819e-10
2.20855e-07
4.34895e-08
1.28809e-09
2.47626e-07
5.19065e-08
1.67106e-09
2.74566e-07
6.12541e-08
2.15112e-09
3.01896e-07
7.15974e-08
2.74485e-09
3.29694e-07
8.29215e-08
3.46208e-09
3.57826e-07
9.50961e-08
4.29809e-09
3.85756e-07
1.07828e-07
5.21904e-09
4.12086e-07
1.20582e-07
6.14543e-09
4.33162e-07
1.3236e-07
6.92768e-09
1.44065e-07
7.92266e-09
4.32622e-08
7.59297e-11
3.38992e-09
8.31817e-08
2.26578e-10
1.00152e-08
1.19401e-07
3.79639e-10
1.63857e-08
1.52864e-07
5.463e-10
2.26973e-08
1.84358e-07
7.39144e-10
2.92065e-08
2.14544e-07
9.70836e-10
3.61231e-08
2.43983e-07
1.25463e-09
4.36147e-08
2.73155e-07
1.60424e-09
5.18045e-08
3.02458e-07
2.03292e-09
6.07627e-08
3.32213e-07
2.55115e-09
7.04894e-08
3.62641e-07
3.16254e-09
8.08867e-08
3.93805e-07
3.85777e-09
9.17176e-08
4.2543e-07
4.60403e-09
1.02561e-07
4.56381e-07
5.33111e-09
1.12712e-07
4.83105e-07
5.90388e-09
1.20985e-07
7.27308e-09
1.33485e-07
3.38896e-09
7.02415e-10
5.69431e-12
6.52851e-09
2.08156e-09
1.72573e-11
9.3964e-09
3.4276e-09
2.9676e-11
1.20696e-08
4.79562e-09
4.42009e-11
1.46098e-08
6.25662e-09
6.24071e-11
1.70626e-08
7.87822e-09
8.61793e-11
1.94551e-08
9.72796e-09
1.17862e-10
2.17904e-08
1.18751e-08
1.60364e-10
2.40388e-08
1.43905e-08
2.17124e-10
2.61278e-08
1.73434e-08
2.91773e-10
2.79335e-08
2.07948e-08
3.87242e-10
2.92859e-08
2.47853e-08
5.04034e-10
3.00078e-08
2.93164e-08
6.37633e-10
3.0024e-08
3.43035e-08
7.76032e-10
2.95281e-08
3.93422e-08
8.97962e-10
4.85558e-08
1.07427e-09
1.01077e-08
1.37257e-09
1.68436e-11
1.94699e-08
4.06648e-09
5.09964e-11
2.80203e-08
6.69245e-09
8.75728e-11
3.59889e-08
9.35585e-09
1.30229e-10
4.35606e-08
1.21927e-08
1.83529e-10
5.08744e-08
1.53314e-08
2.52888e-10
5.8016e-08
1.88986e-08
3.44985e-10
6.50037e-08
2.30221e-08
4.68018e-10
7.1764e-08
2.78298e-08
6.31558e-10
7.81008e-08
3.344e-08
8.45463e-10
8.36673e-08
3.99435e-08
1.11714e-09
8.79686e-08
4.73644e-08
1.44636e-09
9.04536e-08
5.55942e-08
1.81751e-09
9.07957e-08
6.42694e-08
2.19208e-09
8.94165e-08
7.24486e-08
2.50646e-09
8.10304e-08
2.81423e-09
1.6657e-08
1.98255e-09
2.71412e-11
3.20801e-08
5.87146e-09
8.20496e-11
4.61597e-08
9.65564e-09
1.40573e-10
5.92764e-08
1.34828e-08
2.08444e-10
7.17382e-08
1.75437e-08
2.92736e-10
8.37814e-08
2.2016e-08
4.01719e-10
9.55632e-08
2.70719e-08
5.45451e-10
1.07141e-07
3.28808e-08
7.36077e-10
1.18438e-07
3.96063e-08
9.87487e-10
1.29196e-07
4.73905e-08
1.31343e-09
1.38922e-07
5.632e-08
1.72312e-09
1.46867e-07
6.63595e-08
2.2131e-09
1.52116e-07
7.72348e-08
2.75497e-09
1.53952e-07
8.82642e-08
3.28409e-09
1.527e-07
9.80929e-08
3.70218e-09
1.07214e-07
3.97769e-09
2.2935e-08
2.50789e-09
3.60318e-11
4.41611e-08
7.42399e-09
1.08716e-10
6.35256e-08
1.21976e-08
1.85679e-10
8.15542e-08
1.70085e-08
2.74221e-10
9.8676e-08
2.20893e-08
3.83211e-10
1.1523e-07
2.76525e-08
5.22828e-10
1.31458e-07
3.38993e-08
7.05214e-10
1.47488e-07
4.1022e-08
9.44736e-10
1.63295e-07
4.9198e-08
1.2574e-09
1.78646e-07
5.85709e-08
1.65842e-09
1.93025e-07
6.92059e-08
2.15688e-09
2.05576e-07
8.10081e-08
2.74591e-09
2.15126e-07
9.35791e-08
3.3878e-09
2.20507e-07
1.06026e-07
4.00135e-09
2.21499e-07
1.16771e-07
4.46929e-09
1.25841e-07
4.76313e-09
2.88458e-08
2.92924e-09
4.3124e-11
5.55271e-08
8.66712e-09
1.29817e-10
7.9847e-08
1.42257e-08
2.20874e-10
1.02467e-07
1.98056e-08
3.24548e-10
1.2393e-07
2.56667e-08
4.50711e-10
1.4468e-07
3.20415e-08
6.10419e-10
1.65053e-07
3.91433e-08
8.16541e-10
1.85276e-07
4.71682e-08
1.08397e-09
2.05423e-07
5.62881e-08
1.42883e-09
2.25377e-07
6.66306e-08
1.86595e-09
2.44741e-07
7.82351e-08
2.40356e-09
2.62745e-07
9.09753e-08
3.03357e-09
2.78158e-07
1.04417e-07
3.71635e-09
2.89371e-07
1.17609e-07
4.36776e-09
2.95003e-07
1.28867e-07
4.86417e-09
1.37802e-07
5.21941e-09
3.43039e-08
3.23286e-09
4.82212e-11
6.60129e-08
9.56077e-09
1.44786e-10
9.48827e-08
1.56761e-08
2.4525e-10
1.21695e-07
2.17892e-08
3.58214e-10
1.47099e-07
2.81731e-08
4.9378e-10
1.71631e-07
3.50657e-08
6.62933e-10
1.95726e-07
4.26767e-08
8.78095e-10
2.19714e-07
5.11894e-08
1.15325e-09
2.43803e-07
6.07523e-08
1.50311e-09
2.68043e-07
7.14609e-08
1.9408e-09
2.92266e-07
8.33232e-08
2.47331e-09
3.15972e-07
9.62034e-08
3.09385e-09
3.38154e-07
1.09719e-07
3.76863e-09
3.57014e-07
1.23057e-07
4.42408e-09
3.69659e-07
1.3467e-07
4.94028e-09
1.44037e-07
5.40614e-09
3.92368e-08
3.41067e-09
5.1318e-11
7.54783e-08
1.00819e-08
1.53643e-10
1.08429e-07
1.65138e-08
2.58954e-10
1.38971e-07
2.29167e-08
3.75667e-10
1.67839e-07
2.95638e-08
5.13463e-10
1.9565e-07
3.66856e-08
6.82504e-10
2.2292e-07
4.44759e-08
8.93895e-10
2.50072e-07
5.30906e-08
1.15966e-09
2.77435e-07
6.26395e-08
1.49198e-09
3.05226e-07
7.31694e-08
1.90123e-09
3.33517e-07
8.46365e-08
2.39243e-09
3.62155e-07
9.68718e-08
2.96014e-09
3.90578e-07
1.09546e-07
3.5795e-09
4.17349e-07
1.22113e-07
4.19713e-09
4.38759e-07
1.33634e-07
4.71659e-09
1.4511e-07
5.38083e-09
4.35849e-08
5.25725e-11
3.45984e-09
8.38099e-08
1.5691e-10
1.02231e-08
1.20322e-07
2.63017e-10
1.67304e-08
1.54081e-07
3.78707e-10
2.31835e-08
1.85883e-07
5.12767e-10
2.98449e-08
2.16401e-07
6.74038e-10
3.69286e-08
2.46206e-07
8.71748e-10
4.46032e-08
2.75779e-07
1.11536e-09
5.29887e-08
3.05524e-07
1.41387e-09
6.2146e-08
3.35757e-07
1.77405e-09
7.2058e-08
3.66689e-07
2.19762e-09
8.25999e-08
3.98363e-07
2.67711e-09
9.3499e-08
4.30473e-07
3.1894e-09
1.043e-07
4.61852e-07
3.68715e-09
1.14286e-07
4.88905e-07
4.08102e-09
1.22317e-07
5.01734e-09
1.34592e-07
3.40745e-09
7.12274e-10
2.91053e-12
6.56466e-09
2.11097e-09
8.82089e-12
9.44978e-09
3.47658e-09
1.51686e-11
1.21406e-08
4.86515e-09
2.25913e-11
1.46997e-08
6.34865e-09
3.18881e-11
1.71732e-08
7.99534e-09
4.40071e-11
1.95891e-08
9.87287e-09
6.01123e-11
2.1951e-08
1.205e-08
8.16175e-11
2.42302e-08
1.45961e-08
1.1014e-10
2.63551e-08
1.75782e-08
1.47282e-10
2.82026e-08
2.10545e-08
1.94136e-10
2.96028e-08
2.50647e-08
2.50425e-10
3.03759e-08
2.96141e-08
3.13376e-10
3.04391e-08
3.46306e-08
3.76973e-10
2.99739e-08
3.97227e-08
4.31795e-10
4.91305e-08
5.12392e-10
1.01627e-08
1.39181e-09
8.60954e-12
1.95774e-08
4.12382e-09
2.60672e-11
2.81789e-08
6.7879e-09