/*--------------------------------*- C++ -*----------------------------------*\
| =========                 |                                                 |
| \\      /  F ield         | foam-extend: Open Source CFD                    |
|  \\    /   O peration     | Version:     3.1                                |
|   \\  /    A nd           | Web:         http://www.extend-project.de       |
|    \\/     M anipulation  |                                                 |
\*---------------------------------------------------------------------------*/
FoamFile
{
    version     2.0;
    format      ascii;
    class       surfaceScalarField;
    location    "3.9";
    object      phi;
}
// * * * * * * * * * * * * * * * * * * * * * * * * * * * * * * * * * * * * * //

dimensions      [0 3 -1 0 0 0 0];

internalField   nonuniform List<scalar> 
41600
(
1.1864e-05
-6.91085e-08
-1.21053e-06
1.22646e-06
1.17746e-05
7.63482e-08
-2.18242e-06
2.19544e-06
1.15598e-05
2.15525e-07
-2.75539e-06
2.75461e-06
1.12526e-05
3.24751e-07
-3.2517e-06
3.23421e-06
1.08678e-05
4.19451e-07
-3.79958e-06
3.76491e-06
1.04162e-05
5.04136e-07
-4.46989e-06
4.41739e-06
9.91462e-06
5.73765e-07
-5.31408e-06
5.24187e-06
9.39214e-06
6.17328e-07
-6.37967e-06
6.28481e-06
8.8946e-06
6.17356e-07
-7.72137e-06
7.60156e-06
8.49057e-06
5.46864e-07
-9.4119e-06
9.26906e-06
8.28027e-06
3.61364e-07
-1.15539e-05
1.14028e-05
8.39767e-06
-9.82141e-09
-1.42862e-05
1.41786e-05
8.95682e-06
-6.5552e-07
-1.77432e-05
1.78395e-05
9.72137e-06
-1.54486e-06
-2.17948e-05
2.25751e-05
8.73686e-06
-1.8807e-06
-2.49928e-05
2.7858e-05
-2.77422e-07
-1.99965e-05
2.89922e-05
3.30447e-05
-2.31958e-08
-1.43021e-06
1.48594e-06
3.27901e-05
2.47112e-07
-3.34279e-06
3.42663e-06
3.23737e-05
5.54124e-07
-4.74331e-06
4.8211e-06
3.17921e-05
8.44257e-07
-5.96455e-06
6.02668e-06
3.10449e-05
1.11869e-06
-7.22621e-06
7.27419e-06
3.01352e-05
1.37553e-06
-8.68605e-06
8.72433e-06
2.90772e-05
1.60046e-06
-1.04665e-05
1.04979e-05
2.79013e-05
1.7685e-06
-1.26734e-05
1.26981e-05
2.6657e-05
1.84264e-06
-1.5415e-05
1.5434e-05
2.54117e-05
1.76869e-06
-1.88231e-05
1.88465e-05
2.42467e-05
1.45942e-06
-2.30757e-05
2.31427e-05
2.32293e-05
7.75998e-07
-2.84066e-05
2.86381e-05
2.22935e-05
-4.84645e-07
-3.50095e-05
3.57744e-05
2.07626e-05
-2.42383e-06
-4.24158e-05
4.48256e-05
1.58135e-05
-3.90821e-06
-4.72133e-05
5.419e-05
-1.86886e-06
-3.47781e-05
5.2126e-05
5.13435e-05
-3.08509e-10
-1.14671e-06
1.21431e-06
5.10648e-05
3.9633e-07
-3.09709e-06
3.22658e-06
5.06243e-05
8.46889e-07
-4.75904e-06
4.90683e-06
5.00141e-05
1.30614e-06
-6.29697e-06
6.44525e-06
4.92196e-05
1.76417e-06
-7.87996e-06
8.02904e-06
4.82224e-05
2.21323e-06
-9.67136e-06
9.83085e-06
4.7008e-05
2.63395e-06
-1.1823e-05
1.20039e-05
4.55714e-05
2.99471e-06
-1.44752e-05
1.46855e-05
4.39193e-05
3.24909e-06
-1.7768e-05
1.80138e-05
4.20623e-05
3.33169e-06
-2.18607e-05
2.21547e-05
3.99988e-05
3.13822e-06
-2.69595e-05
2.73442e-05
3.76635e-05
2.50215e-06
-3.33458e-05
3.39549e-05
3.47743e-05
1.14244e-06
-4.13175e-05
4.25797e-05
3.02887e-05
-1.27874e-06
-5.05072e-05
5.38476e-05
2.10534e-05
-3.97228e-06
-5.68129e-05
6.61123e-05
-3.18474e-06
-4.18795e-05
6.41415e-05
6.6617e-05
-3.99924e-09
-8.99732e-07
9.60224e-07
6.63743e-05
5.04548e-07
-2.58066e-06
2.71511e-06
6.59858e-05
1.06493e-06
-4.13907e-06
4.30955e-06
6.54546e-05
1.65179e-06
-5.66023e-06
5.84575e-06
6.47648e-05
2.25646e-06
-7.25372e-06
7.45123e-06
6.38844e-05
2.87295e-06
-9.05285e-06
9.27354e-06
6.27701e-05
3.48639e-06
-1.12075e-05
1.14693e-05
6.13731e-05
4.0714e-06
-1.3875e-05
1.41954e-05
5.9642e-05
4.58812e-06
-1.72215e-05
1.76135e-05
5.75143e-05
4.98182e-06
-2.1434e-05
2.19115e-05
5.48949e-05
5.16029e-06
-2.67468e-05
2.73442e-05
5.15833e-05
4.98167e-06
-3.34849e-05
3.4317e-05
4.71089e-05
4.17085e-06
-4.2095e-05
4.35409e-05
3.99941e-05
2.24916e-06
-5.25987e-05
5.61855e-05
2.64685e-05
-7.491e-07
-6.09677e-05
7.12701e-05
-2.33833e-06
-4.61673e-05
7.1616e-05
7.88297e-05
-1.87236e-08
-7.43519e-07
7.9411e-07
7.86295e-05
5.84463e-07
-2.16148e-06
2.28178e-06
7.83062e-05
1.22789e-06
-3.5151e-06
3.67539e-06
7.78738e-05
1.90402e-06
-4.87391e-06
5.05412e-06
7.73232e-05
2.61297e-06
-6.31881e-06
6.51284e-06
7.66216e-05
3.35713e-06
-7.95545e-06
8.17286e-06
7.57115e-05
4.13444e-06
-9.9194e-06
1.01815e-05
7.45127e-05
4.93806e-06
-1.23715e-05
1.27037e-05
7.29252e-05
5.75095e-06
-1.54968e-05
1.59215e-05
7.08182e-05
6.55306e-06
-1.95128e-05
2.00485e-05
6.80118e-05
7.29315e-06
-2.4692e-05
2.53655e-05
6.41756e-05
7.91147e-06
-3.14087e-05
3.23152e-05
5.86855e-05
8.21537e-06
-4.02203e-05
4.16658e-05
4.96129e-05
7.88012e-06
-5.16966e-05
5.51382e-05
3.22136e-05
6.088e-06
-6.23022e-05
7.28645e-05
1.77906e-06
-4.87535e-05
7.65994e-05
8.79805e-05
-3.32574e-08
-6.42055e-07
6.85403e-07
8.78157e-05
6.45196e-07
-1.86683e-06
1.97099e-06
8.75537e-05
1.34958e-06
-3.03611e-06
3.17636e-06
8.72145e-05
2.08558e-06
-4.21663e-06
4.37427e-06
8.67971e-05
2.86389e-06
-5.47728e-06
5.64374e-06
8.6275e-05
3.69799e-06
-6.90479e-06
7.08607e-06
8.55906e-05
4.60214e-06
-8.61753e-06
8.83425e-06
8.46524e-05
5.5942e-06
-1.07685e-05
1.10506e-05
8.33354e-05
6.68979e-06
-1.35482e-05
1.39264e-05
8.14658e-05
7.92209e-06
-1.71932e-05
1.76937e-05
7.8808e-05
9.30287e-06
-2.20059e-05
2.2654e-05
7.49256e-05
1.09171e-05
-2.841e-05
2.92868e-05
6.90923e-05
1.26949e-05
-3.70043e-05
3.8358e-05
5.90384e-05
1.48265e-05
-4.88723e-05
5.19798e-05
3.85337e-05
1.63371e-05
-6.1526e-05
7.17815e-05
1.03028e-05
-4.97212e-05
7.93972e-05
9.40734e-05
-4.03978e-08
-5.70195e-07
6.09149e-07
9.39375e-05
6.89501e-07
-1.65603e-06
1.74763e-06
9.37339e-05
1.43129e-06
-2.68272e-06
2.80467e-06
9.3485e-05
2.20014e-06
-3.71266e-06
3.84697e-06
9.31962e-05
3.01655e-06
-4.80728e-06
4.94343e-06
9.28493e-05
3.90469e-06
-6.03981e-06
6.17998e-06
9.23952e-05
4.89444e-06
-7.51182e-06
7.67364e-06
9.17481e-05
6.02751e-06
-9.36082e-06
9.57461e-06
9.07843e-05
7.35228e-06
-1.17672e-05
1.20685e-05
8.93271e-05
8.95766e-06
-1.4964e-05
1.53856e-05
8.71366e-05
1.09238e-05
-1.92525e-05
1.9822e-05
8.37521e-05
1.35203e-05
-2.50725e-05
2.58538e-05
7.83887e-05
1.68467e-05
-3.29845e-05
3.41962e-05
6.87309e-05
2.18564e-05
-4.43348e-05
4.69626e-05
4.67387e-05
2.89924e-05
-5.8447e-05
6.7784e-05
2.58023e-05
-4.84126e-05
7.92317e-05
9.71126e-05
-5.16665e-07
5.52849e-07
-3.60207e-08
9.70021e-05
-1.49924e-06
1.58234e-06
7.16964e-07
9.68569e-05
-2.41724e-06
2.52565e-06
1.46808e-06
9.67015e-05
-3.32715e-06
3.44302e-06
2.23962e-06
9.65464e-05
-4.28398e-06
4.3956e-06
3.06007e-06
9.63818e-05
-5.35079e-06
5.45772e-06
3.9623e-06
9.61704e-05
-6.6146e-06
6.73155e-06
4.9889e-06
9.58431e-05
-8.19441e-06
8.34997e-06
6.19929e-06
9.52974e-05
-1.02497e-05
1.04804e-05
7.6673e-06
9.43975e-05
-1.29863e-05
1.33265e-05
9.51721e-06
9.29597e-05
-1.66694e-05
1.71498e-05
1.18813e-05
9.06863e-05
-2.16749e-05
2.23301e-05
1.51385e-05
8.691e-05
-2.84723e-05
2.94983e-05
1.95969e-05
7.97779e-05
-3.79948e-05
3.9939e-05
2.70444e-05
6.08095e-05
-5.23714e-05
5.95376e-05
4.07946e-05
-4.31922e-05
7.21158e-05
5.7182e-05
1.26621e-05
-8.74737e-08
-1.14659e-06
1.2507e-05
5.03994e-08
-2.07776e-06
1.21986e-05
1.88249e-07
-2.63522e-06
1.17728e-05
2.95319e-07
-3.12116e-06
1.12432e-05
3.86002e-07
-3.65606e-06
1.06153e-05
4.65144e-07
-4.30708e-06
9.8972e-06
5.27042e-07
-5.12305e-06
9.10612e-06
5.59162e-07
-6.14775e-06
8.27163e-06
5.41366e-07
-7.42824e-06
7.43851e-06
4.42385e-07
-9.02117e-06
6.66959e-06
2.11119e-07
-1.09961e-05
6.0385e-06
-2.31947e-07
-1.34231e-05
5.58018e-06
-9.88384e-07
-1.62965e-05
5.06247e-06
-2.02983e-06
-1.92473e-05
3.45028e-06
-2.788e-06
-2.05926e-05
-2.00212e-06
-1.45667e-05
3.53238e-05
-4.58547e-08
-1.32614e-06
3.49583e-05
2.05303e-07
-3.13217e-06
3.43732e-05
5.03361e-07
-4.47329e-06
3.35674e-05
7.8647e-07
-5.64994e-06
3.25373e-05
1.05302e-06
-6.86307e-06
3.1276e-05
1.30022e-06
-8.2598e-06
2.97812e-05
1.51138e-06
-9.95617e-06
2.80614e-05
1.65691e-06
-1.20513e-05
2.61365e-05
1.69208e-06
-1.46408e-05
2.40344e-05
1.55044e-06
-1.7829e-05
2.17799e-05
1.12511e-06
-2.17352e-05
1.9358e-05
2.5237e-07
-2.6469e-05
1.66284e-05
-1.31297e-06
-3.19553e-05
1.30768e-05
-3.62552e-06
-3.72684e-05
7.38305e-06
-5.63299e-06
-3.86746e-05
-4.41084e-06
-2.50536e-05
5.49172e-05
-2.36413e-08
-1.04724e-06
5.45328e-05
3.5545e-07
-2.86283e-06
5.39168e-05
7.94666e-07
-4.43428e-06
5.30614e-05
1.24553e-06
-5.90063e-06
5.19478e-05
1.69608e-06
-7.40946e-06
5.05473e-05
2.1375e-06
-9.10816e-06
4.88264e-05
2.54727e-06
-1.11379e-05
4.67516e-05
2.88735e-06
-1.36308e-05
4.42898e-05
3.10049e-06
-1.67147e-05
4.13975e-05
3.1042e-06
-2.05222e-05
3.79954e-05
2.76697e-06
-2.51992e-05
3.39118e-05
1.88077e-06
-3.08906e-05
2.87339e-05
1.33532e-07
-3.75861e-05
2.16518e-05
-2.78891e-06
-4.42616e-05
1.12963e-05
-5.83572e-06
-4.62547e-05
-5.42456e-06
-2.96896e-05
7.12693e-05
-2.92303e-08
-8.16665e-07
7.09387e-05
4.72045e-07
-2.36665e-06
7.03928e-05
1.02695e-06
-3.82549e-06
6.96317e-05
1.61064e-06
-5.26425e-06
6.86346e-05
2.21441e-06
-6.77489e-06
6.73599e-05
2.83224e-06
-8.4729e-06
6.57459e-05
3.44705e-06
-1.04932e-05
6.37121e-05
4.02807e-06
-1.2982e-05
6.11584e-05
4.52562e-06
-1.60929e-05
5.79499e-05
4.86945e-06
-1.99907e-05
5.3884e-05
4.9426e-06
-2.48565e-05
4.86028e-05
4.56463e-06
-3.08875e-05
4.14404e-05
3.41111e-06
-3.82102e-05
3.10724e-05
1.04814e-06
-4.60677e-05
1.58157e-05
-2.11843e-06
-4.94282e-05
-3.69992e-06
-3.22631e-05
8.43419e-05
-4.72305e-08
-6.74372e-07
8.40687e-05
5.61132e-07
-1.97741e-06
8.36091e-05
1.20932e-06
-3.23789e-06
8.2971e-05
1.89235e-06
-4.51749e-06
8.21391e-05
2.61206e-06
-5.88459e-06
8.10721e-05
3.37223e-06
-7.42836e-06
7.9696e-05
4.17064e-06
-9.26695e-06
7.78999e-05
4.99828e-06
-1.15456e-05
7.553e-05
5.8332e-06
-1.44346e-05
7.23693e-05
6.6478e-06
-1.81304e-05
6.81014e-05
7.3785e-06
-2.28599e-05
6.21948e-05
7.94363e-06
-2.88811e-05
5.37291e-05
8.12775e-06
-3.64712e-05
4.08227e-05
7.58065e-06
-4.53228e-05
2.09458e-05
5.8646e-06
-5.04083e-05
1.89852e-06
-3.36693e-05
9.41357e-05
-6.4623e-08
-5.82616e-07
9.39083e-05
6.29748e-07
-1.70808e-06
9.35277e-05
1.34955e-06
-2.7957e-06
9.30061e-05
2.10388e-06
-3.90658e-06
9.23351e-05
2.90659e-06
-5.10083e-06
9.14799e-05
3.774e-06
-6.45141e-06
9.03696e-05
4.72249e-06
-8.05901e-06
8.8885e-05
5.7722e-06
-1.00578e-05
8.68493e-05
6.94062e-06
-1.262e-05
8.39974e-05
8.2657e-06
-1.59593e-05
7.9942e-05
9.76614e-06
-2.0338e-05
7.40101e-05
1.15354e-05
-2.60699e-05
6.5119e-05
1.35389e-05
-3.35243e-05
5.08131e-05
1.59389e-05
-4.29246e-05
2.69789e-05
1.79525e-05
-4.97798e-05
1.27776e-05
-3.3967e-05
0.000100656
-7.30478e-08
-5.17243e-07
0.000100465
6.80888e-07
-1.51588e-06
0.000100157
1.44708e-06
-2.47175e-06
9.97456e-05
2.24455e-06
-3.44236e-06
9.92294e-05
3.09807e-06
-4.4826e-06
9.85823e-05
4.03594e-06
-5.65461e-06
9.77441e-05
5.09237e-06
-7.04356e-06
9.6607e-05
6.31566e-06
-8.76718e-06
9.5003e-05
7.76263e-06
-1.09851e-05
9.26701e-05
9.54067e-06
-1.39061e-05
8.92239e-05
1.17557e-05
-1.77959e-05
8.39469e-05
1.47336e-05
-2.29937e-05
7.57104e-05
1.86629e-05
-2.98721e-05
6.17316e-05
2.46711e-05
-3.90882e-05
3.55552e-05
3.32043e-05
-4.75223e-05
3.23712e-05
-3.28817e-05
0.000103909
-4.68139e-07
-6.79315e-08
0.000103748
-1.37222e-06
7.14674e-07
0.000103509
-2.22804e-06
1.49692e-06
0.000103209
-3.08756e-06
2.3051e-06
0.000102851
-4.00037e-06
3.17272e-06
0.000102418
-5.02024e-06
4.13771e-06
0.000101867
-6.21954e-06
5.24866e-06
0.000101112
-7.69834e-06
6.57486e-06
0.000100017
-9.59555e-06
8.20328e-06
9.83779e-05
-1.20942e-05
1.02875e-05
9.58997e-05
-1.54296e-05
1.29941e-05
9.20482e-05
-1.99025e-05
1.68127e-05
8.59043e-05
-2.58191e-05
2.21536e-05
7.49326e-05
-3.37764e-05
3.14245e-05
5.14359e-05
-4.34172e-05
4.77468e-05
-2.97667e-05
6.98656e-05
1.33429e-05
-1.04697e-07
-1.03672e-06
1.31252e-05
2.56907e-08
-1.88576e-06
1.27287e-05
1.60779e-07
-2.39943e-06
1.21913e-05
2.65212e-07
-2.84897e-06
1.15262e-05
3.51273e-07
-3.34227e-06
1.07344e-05
4.2405e-07
-3.93934e-06
9.81761e-06
4.77152e-07
-4.68339e-06
8.78455e-06
4.96702e-07
-5.61139e-06
7.65521e-06
4.60525e-07
-6.75943e-06
6.46412e-06
3.34796e-07
-8.16487e-06
5.26546e-06
6.57328e-08
-9.86316e-06
4.13448e-06
-4.25988e-07
-1.18662e-05
3.15301e-06
-1.23555e-06
-1.40794e-05
2.29748e-06
-2.332e-06
-1.60598e-05
1.26865e-06
-3.24065e-06
-1.63231e-05
-2.55101e-06
-1.07724e-05
3.72746e-05
-6.65733e-08
-1.17808e-06
3.68068e-05
1.66418e-07
-2.80507e-06
3.60651e-05
4.55125e-07
-4.02593e-06
3.50512e-05
7.3072e-07
-5.10162e-06
3.37589e-05
9.88563e-07
-6.20806e-06
3.21738e-05
1.22484e-06
-7.47543e-06
3.02811e-05
1.42049e-06
-9.00685e-06
2.80733e-05
1.54163e-06
-1.08884e-05
2.55527e-05
1.53704e-06
-1.31968e-05
2.27307e-05
1.33144e-06
-1.60036e-05
1.96228e-05
8.08144e-07
-1.93698e-05
1.62363e-05
-2.06289e-07
-2.33021e-05
1.25492e-05
-1.93535e-06
-2.75684e-05
8.44846e-06
-4.36983e-06
-3.11299e-05
3.79018e-06
-6.52106e-06
-3.07359e-05
-5.33822e-06
-1.85506e-05
5.79791e-05
-4.51048e-08
-9.19003e-07
5.74989e-05
3.19368e-07
-2.53557e-06
5.67228e-05
7.4835e-07
-3.95138e-06
5.56425e-05
1.19122e-06
-5.28087e-06
5.42358e-05
1.63404e-06
-6.64823e-06
5.24657e-05
2.06692e-06
-8.18014e-06
5.02841e-05
2.46434e-06
-1.00002e-05
4.76367e-05
2.78225e-06
-1.2224e-05
4.4464e-05
2.9538e-06
-1.49588e-05
4.06939e-05
2.88312e-06
-1.83038e-05
3.62241e-05
2.4224e-06
-2.23437e-05
3.08837e-05
1.35195e-06
-2.71084e-05
2.43891e-05
-6.36729e-07
-3.23901e-05
1.64149e-05
-3.68585e-06
-3.69714e-05
7.09724e-06
-6.76822e-06
-3.66899e-05
-6.28245e-06
-2.17779e-05
7.52561e-05
-5.22606e-08
-7.13421e-07
7.48466e-05
4.45303e-07
-2.08305e-06
7.41591e-05
9.96922e-07
-3.38656e-06
7.31896e-05
1.57883e-06
-4.68238e-06
7.19121e-05
2.18227e-06
-6.0456e-06
7.0277e-05
2.80127e-06
-7.57215e-06
6.82082e-05
3.41681e-06
-9.37692e-06
6.56015e-05
3.99303e-06
-1.15861e-05
6.23224e-05
4.47121e-06
-1.43312e-05
5.8191e-05
4.76831e-06
-1.77445e-05
5.29554e-05
4.75098e-06
-2.19495e-05
4.62264e-05
4.22543e-06
-2.70319e-05
3.74005e-05
2.87759e-06
-3.28987e-05
2.56824e-05
4.41954e-07
-3.84774e-05
1.12376e-05
-2.64342e-06
-3.91082e-05
-4.08412e-06
-2.34213e-05
8.90657e-05
-7.25488e-08
-5.88907e-07
8.8727e-05
5.4397e-07
-1.73742e-06
8.81455e-05
1.19947e-06
-2.85891e-06
8.73225e-05
1.89127e-06
-4.00693e-06
8.62357e-05
2.62276e-06
-5.23828e-06
8.48353e-05
3.39919e-06
-6.62582e-06
8.30342e-05
4.21838e-06
-8.26739e-06
8.06978e-05
5.06934e-06
-1.02855e-05
7.76344e-05
5.92507e-06
-1.2825e-05
7.35698e-05
6.7512e-06
-1.60487e-05
6.81135e-05
7.47504e-06
-2.01276e-05
6.06621e-05
8.01023e-06
-2.52146e-05
5.02862e-05
8.15302e-06
-3.13707e-05
3.56014e-05
7.67817e-06
-3.78742e-05
1.6176e-05
6.20719e-06
-3.98335e-05
2.40292e-06
-2.42546e-05
9.94106e-05
-9.1961e-08
-5.08909e-07
9.91267e-05
6.20873e-07
-1.50113e-06
9.864e-05
1.35852e-06
-2.46801e-06
9.79553e-05
2.13304e-06
-3.4637e-06
9.70559e-05
2.96115e-06
-4.53975e-06
9.58978e-05
3.86198e-06
-5.75618e-06
9.43981e-05
4.85418e-06
-7.19507e-06
9.24167e-05
5.95992e-06
-8.96699e-06
8.97399e-05
7.19754e-06
-1.12156e-05
8.6042e-05
8.60801e-06
-1.41183e-05
8.08477e-05
1.02136e-05
-1.78823e-05
7.33884e-05
1.21204e-05
-2.27207e-05
6.25059e-05
1.43227e-05
-2.88114e-05
4.60886e-05
1.7082e-05
-3.59111e-05
2.22568e-05
1.96273e-05
-3.93681e-05
1.47022e-05
-2.43659e-05
0.000106298
-1.01166e-07
-4.51667e-07
0.000106056
6.7929e-07
-1.33273e-06
0.000105654
1.47209e-06
-2.18312e-06
0.000105099
2.29983e-06
-3.05383e-06
0.000104379
3.1912e-06
-3.9928e-06
0.00010346
4.17851e-06
-5.05191e-06
0.00010227
5.30021e-06
-6.30029e-06
0.000100686
6.61055e-06
-7.83319e-06
9.85067e-05
8.17295e-06
-9.78142e-06
9.54158e-05
1.01089e-05
-1.23161e-05
9.09432e-05
1.25414e-05
-1.5651e-05
8.4265e-05
1.58355e-05
-2.00307e-05
7.41568e-05
2.02309e-05
-2.5672e-05
5.79625e-05
2.69935e-05
-3.28055e-05
3.13021e-05
3.6558e-05
-3.77926e-05
3.63657e-05
-2.36841e-05
0.000109733
-4.08398e-07
-9.50665e-08
0.000109527
-1.20632e-06
7.19741e-07
0.000109204
-1.96845e-06
1.53515e-06
0.000108776
-2.74071e-06
2.38137e-06
0.000108237
-3.56667e-06
3.29661e-06
0.000107563
-4.49163e-06
4.32369e-06
0.000106701
-5.57429e-06
5.51683e-06
0.000105554
-6.89462e-06
6.95415e-06
0.000103963
-8.56496e-06
8.73339e-06
0.00010168
-1.07337e-05
1.10312e-05
9.83443e-05
-1.35914e-05
1.40387e-05
9.33229e-05
-1.73615e-05
1.8316e-05
8.56368e-05
-2.22308e-05
2.43286e-05
7.26564e-05
-2.85426e-05
3.47401e-05
4.82565e-05
-3.5053e-05
5.25936e-05
-2.17281e-05
7.60573e-05
1.39077e-05
-1.19983e-07
-8.85085e-07
1.36332e-05
3.82594e-09
-1.61509e-06
1.31573e-05
1.35086e-07
-2.05863e-06
1.25199e-05
2.36698e-07
-2.44826e-06
1.17341e-05
3.18152e-07
-2.87458e-06
1.07979e-05
3.84668e-07
-3.38784e-06
9.70891e-06
4.29255e-07
-4.02362e-06
8.4713e-06
4.36971e-07
-4.81075e-06
7.1019e-06
3.84275e-07
-5.77431e-06
5.63581e-06
2.3622e-07
-6.93501e-06
4.13596e-06
-6.03078e-08
-8.303e-06
2.70588e-06
-5.80789e-07
-9.8553e-06
1.4979e-06
-1.40662e-06
-1.14648e-05
6.57166e-07
-2.49723e-06
-1.27218e-05
2.21895e-07
-3.40771e-06
-1.24801e-05
-2.67382e-06
-7.9039e-06
3.88982e-05
-8.46935e-08
-9.91364e-07
3.83395e-05
1.31953e-07
-2.37454e-06
3.74587e-05
4.11725e-07
-3.4217e-06
3.626e-05
6.80071e-07
-4.34635e-06
3.47357e-05
9.29497e-07
-5.29508e-06
3.28663e-05
1.15522e-06
-6.37653e-06
3.0629e-05
1.33605e-06
-7.67636e-06
2.80071e-05
1.43455e-06
-9.26406e-06
2.49965e-05
1.3945e-06
-1.11964e-05
2.16099e-05
1.13531e-06
-1.35162e-05
1.78821e-05
5.38765e-07
-1.6241e-05
1.38836e-05
-5.65521e-07
-1.93189e-05
9.73856e-06
-2.36289e-06
-2.2467e-05
5.64516e-06
-4.78845e-06
-2.47453e-05
2.01407e-06
-6.89164e-06
-2.36209e-05
-5.62065e-06
-1.36688e-05
6.05297e-05
-6.3608e-08
-7.66036e-07
5.99657e-05
2.88558e-07
-2.1282e-06
5.90492e-05
7.08738e-07
-3.33191e-06
5.77713e-05
1.14452e-06
-4.46735e-06
5.61068e-05
1.58024e-06
-5.63444e-06
5.4013e-05
2.00514e-06
-6.93627e-06
5.14321e-05
2.3911e-06
-8.47431e-06
4.82965e-05
2.68901e-06
-1.03429e-05
4.45336e-05
2.82429e-06
-1.26257e-05
4.00633e-05
2.69194e-06
-1.53901e-05
3.47957e-05
2.13722e-06
-1.86745e-05
2.86122e-05
9.47622e-07
-2.24381e-05
2.14092e-05
-1.15012e-06
-2.63999e-05
1.32519e-05
-4.17939e-06
-2.94231e-05
5.02127e-06
-7.14485e-06
-2.82061e-05
-6.53682e-06
-1.5977e-05
7.85778e-05
-7.20175e-08
-5.92717e-07
7.80997e-05
4.23655e-07
-1.74011e-06
7.72893e-05
9.7356e-07
-2.84092e-06
7.61383e-05
1.55478e-06
-3.94168e-06
7.46159e-05
2.15851e-06
-5.10144e-06
7.2666e-05
2.77895e-06
-6.39612e-06
7.02025e-05
3.3956e-06
-7.91785e-06
6.71055e-05
3.96836e-06
-9.7685e-06
6.32202e-05
4.43105e-06
-1.20526e-05
5.83453e-05
4.69113e-06
-1.48689e-05
5.22194e-05
4.6066e-06
-1.8293e-05
4.4487e-05
3.98583e-06
-2.23376e-05
3.46949e-05
2.54991e-06
-2.68066e-05
2.24969e-05
1.76275e-07
-3.06351e-05
9.02305e-06
-2.74187e-06
-3.00373e-05
-4.05954e-06
-1.70813e-05
9.30015e-05
-9.41841e-08
-4.89182e-07
9.2606e-05
5.31413e-07
-1.4496e-06
9.1919e-05
1.19521e-06
-2.39355e-06
9.0936e-05
1.89639e-06
-3.36561e-06
8.9628e-05
2.63964e-06
-4.41137e-06
8.79374e-05
3.43166e-06
-5.58793e-06
8.57671e-05
4.2706e-06
-6.97213e-06
8.29669e-05
5.14393e-06
-8.66091e-06
7.93214e-05
6.02028e-06
-1.07688e-05
7.45252e-05
6.85983e-06
-1.34212e-05
6.81587e-05
7.58409e-06
-1.67385e-05
5.96184e-05
8.11012e-06
-2.07986e-05
4.80819e-05
8.25983e-06
-2.55441e-05
3.26379e-05
7.91371e-06
-3.01676e-05
1.39585e-05
6.69276e-06
-3.05888e-05
2.98285e-06
-1.76217e-05
0.000103806
-1.15134e-07
-4.22788e-07
0.000103473
6.1623e-07
-1.25275e-06
0.000102894
1.37188e-06
-2.06611e-06
0.000102069
2.16636e-06
-2.90841e-06
0.000100972
3.01882e-06
-3.82216e-06
9.95513e-05
3.951e-06
-4.85496e-06
9.77138e-05
4.98377e-06
-6.07068e-06
9.53047e-05
6.14121e-06
-7.55516e-06
9.20876e-05
7.44195e-06
-9.42022e-06
8.77033e-05
8.9286e-06
-1.18027e-05
8.16365e-05
1.06246e-05
-1.4856e-05
7.30964e-05
1.26461e-05
-1.87166e-05
6.09812e-05
1.50087e-05
-2.34451e-05
4.35691e-05
1.80476e-05
-2.8633e-05
2.01951e-05
2.09765e-05
-3.02778e-05
1.61458e-05
-1.76994e-05
0.000110998
-1.24783e-07
-3.75116e-07
0.000110713
6.81669e-07
-1.11255e-06
0.000110229
1.50052e-06
-1.82836e-06
0.00010955
2.35743e-06
-2.56534e-06
0.000108655
3.28452e-06
-3.36348e-06
0.000107501
4.31777e-06
-4.26458e-06
0.000106007
5.4994e-06
-5.32255e-06
0.000104037
6.88886e-06
-6.6104e-06
0.000101371
8.55435e-06
-8.22827e-06
9.76635e-05
1.06273e-05
-1.03068e-05
9.24039e-05
1.32396e-05
-1.30065e-05
8.47362e-05
1.678e-05
-1.64969e-05
7.3457e-05
2.15087e-05
-2.08926e-05
5.61636e-05
2.87593e-05
-2.62238e-05
2.96288e-05
3.8931e-05
-2.92123e-05
3.89555e-05
-1.73155e-05
0.000114586
-3.38915e-07
-1.17622e-07
0.00011434
-1.00693e-06
7.28539e-07
0.000113945
-1.64894e-06
1.57601e-06
0.000113406
-2.30332e-06
2.45847e-06
0.000112712
-3.0065e-06
3.41833e-06
0.000111831
-3.79533e-06
4.50282e-06
0.000110701
-4.71577e-06
5.77105e-06
0.000109215
-5.82868e-06
7.30861e-06
0.000107202
-7.21915e-06
9.22129e-06
0.000104393
-8.99918e-06
1.17025e-05
0.000100396
-1.13122e-05
1.49568e-05
9.4547e-05
-1.4318e-05
1.95855e-05
8.58811e-05
-1.81242e-05
2.60681e-05
7.18504e-05
-2.29318e-05
3.71792e-05
4.72366e-05
-2.7378e-05
5.58699e-05
-1.60395e-05
7.99675e-05
1.43573e-05
-1.32521e-07
-6.97442e-07
1.40355e-05
-1.7858e-08
-1.2754e-06
1.34915e-05
1.13124e-07
-1.62782e-06
1.27695e-05
2.11745e-07
-1.93796e-06
1.18822e-05
2.89047e-07
-2.2764e-06
1.08263e-05
3.50044e-07
-2.68192e-06
9.59688e-06
3.87276e-07
-3.18149e-06
8.19688e-06
3.85042e-07
-3.79579e-06
6.64424e-06
3.18979e-07
-4.54065e-06
4.9805e-06
1.54001e-07
-5.42526e-06
3.28411e-06
-1.6086e-07
-6.44576e-06
1.69142e-06
-6.96134e-07
-7.56647e-06
4.13597e-07
-1.52007e-06
-8.66695e-06
-2.95646e-07
-2.57867e-06
-9.4339e-06
-3.16866e-07
-3.44027e-06
-9.01862e-06
-2.66616e-06
-5.58301e-06
4.01962e-05
-9.97735e-08
-7.72645e-07
3.95601e-05
1.0259e-07
-1.85887e-06
3.85626e-05
3.75031e-07
-2.68611e-06
3.72087e-05
6.36947e-07
-3.41765e-06
3.54904e-05
8.78959e-07
-4.16663e-06
3.33852e-05
1.09549e-06
-5.01678e-06
3.08661e-05
1.26367e-06
-6.03367e-06
2.79128e-05
1.34327e-06
-7.26896e-06
2.45221e-05
1.2746e-06
-8.76128e-06
2.07184e-05
9.7432e-07
-1.05328e-05
1.6565e-05
3.28632e-07
-1.25771e-05
1.22011e-05
-8.28505e-07
-1.48227e-05
7.8673e-06
-2.64227e-06
-1.7011e-05
3.95177e-06
-5.00667e-06
-1.84018e-05
1.07065e-06
-7.00523e-06
-1.71748e-05
-5.65539e-06
-9.69132e-06
6.25695e-05
-7.88316e-08
-5.92804e-07
6.19358e-05
2.63389e-07
-1.65525e-06
6.09025e-05
6.76412e-07
-2.59998e-06
5.94597e-05
1.10633e-06
-3.49398e-06
5.75805e-05
1.53608e-06
-4.41237e-06
5.52186e-05
1.95425e-06
-5.43311e-06
5.23103e-05
2.33076e-06
-6.63313e-06
4.87815e-05
2.61253e-06
-8.08334e-06
4.45551e-05
2.71922e-06
-9.84387e-06
3.95561e-05
2.54018e-06
-1.19571e-05
3.37232e-05
1.91958e-06
-1.44325e-05
2.69986e-05
6.60478e-07
-1.72025e-05
1.94356e-05
-1.47809e-06
-2.0001e-05
1.13495e-05
-4.43094e-06
-2.19128e-05
3.91823e-06
-7.24464e-06
-2.05354e-05
-6.54313e-06
-1.13123e-05
8.12346e-05
-8.81943e-08
-4.57596e-07
8.06999e-05
4.06682e-07
-1.34868e-06
7.97877e-05
9.55915e-07
-2.2083e-06
7.84866e-05
1.5372e-06
-3.07142e-06
7.67614e-05
2.14164e-06
-3.98183e-06
7.45515e-05
2.76373e-06
-4.99568e-06
7.1764e-05
3.38198e-06
-6.18152e-06
6.82702e-05
3.95309e-06
-7.61528e-06
6.39054e-05
4.40511e-06
-9.3737e-06
5.84626e-05
4.63902e-06
-1.1525e-05
5.16915e-05
4.50895e-06
-1.41112e-05
4.32926e-05
3.83168e-06
-1.71099e-05
3.29535e-05
2.36501e-06
-2.03106e-05
2.06321e-05
8.77486e-08
-2.28324e-05
7.8789e-06
-2.65739e-06
-2.18714e-05
-3.8965e-06
-1.20608e-05
9.61497e-05
-1.11841e-07
-3.77613e-07
9.5707e-05
5.22414e-07
-1.12257e-06
9.4933e-05
1.19428e-06
-1.85791e-06
9.38184e-05
1.90438e-06
-2.61817e-06
9.23281e-05
2.6584e-06
-3.43788e-06
9.03987e-05
3.46432e-06
-4.35908e-06
8.79257e-05
4.32084e-06
-5.43802e-06
8.47493e-05
5.21441e-06
-6.74583e-06
8.06416e-05
6.11022e-06
-8.36618e-06
7.52839e-05
6.96428e-06
-1.03888e-05
6.82529e-05
7.69421e-06
-1.28928e-05
5.89749e-05
8.22231e-06
-1.59113e-05
4.67461e-05
8.39568e-06
-1.9346e-05
3.09891e-05
8.16958e-06
-2.24924e-05
1.28708e-05
7.15466e-06
-2.22825e-05
3.48869e-06
-1.24261e-05
0.000107321
-1.33949e-07
-3.26369e-07
0.000106947
6.14209e-07
-9.70323e-07
0.000106293
1.38627e-06
-1.60371e-06
0.000105352
2.19879e-06
-2.26199e-06
0.000104093
3.07284e-06
-2.97799e-06
0.000102457
4.0324e-06
-3.7872e-06
0.000100343
5.10034e-06
-4.73619e-06
9.75873e-05
6.30244e-06
-5.88707e-06
9.39405e-05
7.65732e-06
-7.32045e-06
8.90281e-05
9.20822e-06
-9.13431e-06
8.23233e-05
1.09777e-05
-1.14346e-05
7.3046e-05
1.30879e-05
-1.43049e-05
6.0179e-05
1.55665e-05
-1.77489e-05
4.22863e-05
1.8797e-05
-2.13677e-05
1.92683e-05
2.19886e-05
-2.20937e-05
1.71845e-05
-1.25001e-05
0.000114759
-1.43833e-07
-2.89482e-07
0.000114436
6.85886e-07
-8.61913e-07
0.000113886
1.52806e-06
-1.41962e-06
0.000113104
2.41087e-06
-1.9958e-06
0.000112066
3.36926e-06
-2.62156e-06
0.00011072
4.44229e-06
-3.32845e-06
0.000108978
5.67532e-06
-4.15599e-06
0.000106695
7.13201e-06
-5.15662e-06
0.000103642
8.88384e-06
-6.40155e-06
9.94579e-05
1.10686e-05
-7.98343e-06
9.36221e-05
1.38213e-05
-1.00144e-05
8.52777e-05
1.75428e-05
-1.26074e-05
7.3275e-05
2.24955e-05
-1.58189e-05
5.54103e-05
3.00447e-05
-1.96068e-05
2.90009e-05
4.0584e-05
-2.13984e-05
4.07131e-05
-1.23016e-05
0.000118468
-2.61386e-07
-1.35658e-07
0.000118188
-7.80028e-07
7.3846e-07
0.000117734
-1.28051e-06
1.61441e-06
0.000117105
-1.79252e-06
2.52878e-06
0.000116285
-2.3444e-06
3.52752e-06
0.000115234
-2.96418e-06
4.66152e-06
0.000113886
-3.68572e-06
5.99384e-06
0.000112126
-4.55262e-06
7.61599e-06
0.000109776
-5.62486e-06
9.63932e-06
0.000106558
-6.98109e-06
1.22687e-05
0.000102074
-8.72138e-06
1.57137e-05
9.56562e-05
-1.09555e-05
2.05986e-05
8.63758e-05
-1.37424e-05
2.7394e-05
7.17634e-05
-1.72055e-05
3.89308e-05
4.70564e-05
-2.01892e-05
5.81022e-05
-1.14705e-05
8.26563e-05
1.4693e-05
-1.42159e-07
-4.81097e-07
1.43343e-05
-3.55295e-08
-8.81177e-07
1.37368e-05
9.5601e-08
-1.12592e-06
1.29487e-05
1.91464e-07
-1.3413e-06
1.19828e-05
2.6527e-07
-1.57582e-06
1.0835e-05
3.21731e-07
-1.8558e-06
9.49962e-06
3.53055e-07
-2.1992e-06
7.97998e-06
3.43041e-07
-2.61919e-06
6.29713e-06
2.66872e-07
-3.12467e-06
4.50067e-06
8.9741e-08
-3.71855e-06
2.68418e-06
-2.36512e-07
-4.39275e-06
1.01264e-06
-7.79255e-07
-5.11568e-06
-2.58424e-07
-1.59504e-06
-5.80085e-06
-8.6254e-07
-2.61172e-06
-6.21807e-06
-5.87256e-07
-3.43553e-06
-5.85838e-06
-2.62441e-06
-3.57508e-06
4.11688e-05
-1.11396e-07
-5.28874e-07
4.04719e-05
7.97498e-08
-1.27723e-06
3.93838e-05
3.46352e-07
-1.84877e-06
3.79093e-05
6.03031e-07
-2.35467e-06
3.60407e-05
8.39032e-07
-2.87189e-06
3.37546e-05
1.04821e-06
-3.45707e-06
3.10218e-05
1.20648e-06
-4.15434e-06
2.78219e-05
1.27165e-06
-4.99763e-06
2.41563e-05
1.18163e-06
-6.01049e-06
2.00637e-05
8.52129e-07
-7.20263e-06
1.56347e-05
1.75953e-07
-8.56051e-06
1.10646e-05
-1.01096e-06
-1.00209e-05
6.67193e-06
-2.81877e-06
-1.13946e-05
2.94956e-06
-5.11432e-06
-1.21768e-05
5.58752e-07
-7.01332e-06
-1.12062e-05
-5.61259e-06
-6.2289e-06
6.40986e-05
-9.04419e-08
-4.03674e-07
6.34108e-05
2.4433e-07
-1.13205e-06
6.22872e-05
6.51952e-07
-1.78198e-06
6.0717e-05
1.07741e-06
-2.39822e-06
5.86723e-05
1.50256e-06
-3.03113e-06
5.61045e-05
1.91556e-06
-3.73268e-06
5.29471e-05
2.285e-06
-4.5543e-06
4.91236e-05
2.55492e-06
-5.54302e-06
4.45577e-05
2.64096e-06
-6.73734e-06
3.91846e-05
2.42914e-06
-8.16092e-06
3.29735e-05
1.76521e-06
-9.8107e-06
2.59158e-05
4.69922e-07
-1.16257e-05
1.81817e-05
-1.67969e-06
-1.3406e-05
1.02266e-05
-4.55108e-06
-1.45209e-05
3.32614e-06
-7.23173e-06
-1.34166e-05
-6.47175e-06
-7.27154e-06
8.32265e-05
-1.00507e-07
-3.11016e-07
8.2648e-05
3.9426e-07
-9.20115e-07
8.16577e-05
9.43461e-07
-1.50944e-06
8.02411e-05
1.52525e-06
-2.10265e-06
7.83602e-05
2.13062e-06
-2.72898e-06
7.5951e-05
2.75434e-06
-3.42527e-06
7.29167e-05
3.37443e-06
-4.23668e-06
6.91243e-05
3.94529e-06
-5.21329e-06
6.44057e-05
4.39089e-06
-6.40503e-06
5.85562e-05
4.60789e-06
-7.85426e-06
5.13427e-05
4.44907e-06
-9.58158e-06
4.25206e-05
3.74047e-06
-1.15584e-05
3.18785e-05
2.26832e-06
-1.36164e-05
1.95622e-05
7.45784e-08
-1.51418e-05
7.28257e-06
-2.52663e-06
-1.42969e-05
-3.72124e-06
-7.74469e-06
9.85103e-05
-1.25269e-07
-2.56579e-07
9.80311e-05
5.16343e-07
-7.65406e-07
9.71902e-05
1.19514e-06
-1.26869e-06
9.59746e-05
1.91285e-06
-1.79021e-06
9.4345e-05
2.67584e-06
-2.35347e-06
9.22331e-05
3.49315e-06
-2.986e-06
8.95299e-05
4.36405e-06
-3.72442e-06
8.607e-05
5.2744e-06
-4.61513e-06
8.16202e-05
6.1869e-06
-5.71237e-06
7.58583e-05
7.05442e-06
-7.07344e-06
6.83684e-05
7.79183e-06
-8.74557e-06
5.86114e-05
8.32585e-06
-1.07397e-05
4.59779e-05
8.52283e-06
-1.2967e-05
3.0095e-05
8.38707e-06
-1.4922e-05
1.23375e-05
7.52419e-06
-1.45759e-05
3.87364e-06
-7.97848e-06
0.000109958
-1.48216e-07
-2.21735e-07
0.000109552
6.13701e-07
-6.61682e-07
0.000108839
1.39927e-06
-1.0951e-06
0.000107809
2.22658e-06
-1.54638e-06
0.000106427
3.11816e-06
-2.03818e-06
0.000104628
4.09966e-06
-2.59398e-06
0.000102304
5.19561e-06
-3.24404e-06
9.92865e-05
6.43318e-06
-4.02849e-06
9.53212e-05
7.8308e-06
-4.99906e-06
9.00281e-05
9.43169e-06
-6.21841e-06
8.28812e-05
1.12565e-05
-7.75252e-06
7.31213e-05
1.34299e-05
-9.64904e-06
5.98025e-05
1.59858e-05
-1.1893e-05
4.16691e-05
1.93378e-05
-1.41851e-05
1.88669e-05
2.27042e-05
-1.44715e-05
1.7901e-05
-8.03915e-06
0.000117578
-1.58219e-07
-1.96625e-07
0.000117227
6.90388e-07
-5.87842e-07
0.000116625
1.55151e-06
-9.6962e-07
0.000115765
2.45527e-06
-1.3647e-06
0.000114618
3.43879e-06
-1.79461e-06
0.000113126
4.54341e-06
-2.28048e-06
0.000111197
5.81696e-06
-2.84805e-06
0.000108678
7.32625e-06
-3.53109e-06
0.000105338
9.14472e-06
-4.37485e-06
0.00010081
1.1414e-05
-5.43816e-06
9.45743e-05
1.4269e-05
-6.79118e-06
8.57849e-05
1.81155e-05
-8.50356e-06
7.33412e-05
2.32109e-05
-1.06003e-05
5.51669e-05
3.0936e-05
-1.30307e-05
2.88181e-05
4.17023e-05
-1.40477e-05
4.18938e-05
-7.94062e-06
0.000121379
-1.77471e-07
-1.49198e-07
0.000121074
-5.31975e-07
7.47551e-07
0.000120573
-8.74718e-07
1.64651e-06
0.000119875
-1.22598e-06
2.58653e-06
0.000118959
-1.60539e-06
3.61628e-06
0.00011778
-2.03179e-06
4.78946e-06
0.000116267
-2.52736e-06
6.17206e-06
0.000114301
-3.12018e-06
7.85994e-06
0.000111701
-3.84808e-06
9.96794e-06
0.000108186
-4.76077e-06
1.27081e-05
0.000103364
-5.92045e-06
1.62907e-05
9.65687e-05
-7.39692e-06
2.13517e-05
8.69094e-05