/*--------------------------------*- C++ -*----------------------------------*\
| =========                 |                                                 |
| \\      /  F ield         | foam-extend: Open Source CFD                    |
|  \\    /   O peration     | Version:     3.1                                |
|   \\  /    A nd           | Web:         http://www.extend-project.de       |
|    \\/     M anipulation  |                                                 |
\*---------------------------------------------------------------------------*/
FoamFile
{
    version     2.0;
    format      ascii;
    class       pointVectorField;
    location    "3.9";
    object      pointMotionU;
}
// * * * * * * * * * * * * * * * * * * * * * * * * * * * * * * * * * * * * * //

dimensions      [0 1 -1 0 0 0 0];

internalField   nonuniform List<vector> 
16859
(
(0 0 0)
(0 0 0)
(0 0 0)
(0 0 0)
(0 0 0)
(0 0 0)
(0 0 0)
(0 0 0)
(0 0 0)
(0 0 0)
(0 0 0)
(0 0 0)
(0 0 0)
(0 0 0)
(0 0 0)
(0 0 0)
(0 0 0)
(0 0 0)
(-1.53514e-11 5.9981e-12 2.79093e-12)
(-2.99552e-11 1.16626e-11 5.5692e-12)
(-4.40828e-11 1.70308e-11 8.49218e-12)
(-5.84971e-11 2.2276e-11 1.17957e-11)
(-7.40155e-11 2.74974e-11 1.57233e-11)
(-9.15929e-11 3.27021e-11 2.05459e-11)
(-1.12417e-10 3.7767e-11 2.65791e-11)
(-1.38015e-10 4.23653e-11 3.41969e-11)
(-1.70369e-10 4.58493e-11 4.3838e-11)
(-2.11994e-10 4.70606e-11 5.59927e-11)
(-2.6591e-10 4.40552e-11 7.1142e-11)
(-3.35273e-10 3.37824e-11 8.95913e-11)
(-4.22244e-10 1.19492e-11 1.11056e-10)
(-5.2507e-10 -2.58198e-11 1.33696e-10)
(-6.30633e-10 -7.66211e-11 1.51603e-10)
(-9.26999e-10 -3.41769e-10 1.55592e-10)
(0 0 0)
(-3.01441e-11 1.17925e-11 5.46804e-12)
(-5.87772e-11 2.29348e-11 1.09053e-11)
(-8.6392e-11 3.35102e-11 1.66148e-11)
(-1.14439e-10 4.38722e-11 2.30518e-11)
(-1.44454e-10 5.42378e-11 3.06842e-11)
(-1.78216e-10 6.4664e-11 4.00304e-11)
(-2.17913e-10 7.49826e-11 5.16926e-11)
(-2.66339e-10 8.469e-11 6.63845e-11)
(-3.27089e-10 9.27658e-11 8.49479e-11)
(-4.0471e-10 9.73874e-11 1.08338e-10)
(-5.04616e-10 9.55612e-11 1.37534e-10)
(-6.32359e-10 8.27825e-11 1.73296e-10)
(-7.91308e-10 5.32783e-11 2.15549e-10)
(-9.76779e-10 2.65644e-12 2.61926e-10)
(-1.16351e-09 -6.16998e-11 3.03259e-10)
(-1.56319e-09 -2.27926e-10 4.71953e-10)
(0 0 0)
(-4.39067e-11 1.71932e-11 7.93377e-12)
(-8.55124e-11 3.34523e-11 1.5809e-11)
(-1.25441e-10 4.8918e-11 2.40518e-11)
(-1.65694e-10 6.41329e-11 3.33067e-11)
(-2.08358e-10 7.94628e-11 4.42311e-11)
(-2.55799e-10 9.50765e-11 5.75475e-11)
(-3.10882e-10 1.10884e-10 7.40899e-11)
(-3.77203e-10 1.26431e-10 9.48448e-11)
(-4.59335e-10 1.40731e-10 1.20979e-10)
(-5.63e-10 1.52002e-10 1.53836e-10)
(-6.94973e-10 1.57374e-10 1.94846e-10)
(-8.62166e-10 1.52705e-10 2.45258e-10)
(-1.06866e-09 1.33121e-10 3.05417e-10)
(-1.30806e-09 9.58768e-11 3.72861e-10)
(-1.5484e-09 4.83193e-11 4.35837e-10)
(-2.05255e-09 -5.09052e-11 6.71306e-10)
(0 0 0)
(-5.62566e-11 2.20128e-11 1.01074e-11)
(-1.09399e-10 4.28515e-11 2.01162e-11)
(-1.60068e-10 6.27245e-11 3.05456e-11)
(-2.10645e-10 8.2368e-11 4.21887e-11)
(-2.6355e-10 1.02322e-10 5.5845e-11)
(-3.21459e-10 1.22921e-10 7.23826e-11)
(-3.87517e-10 1.44267e-10 9.27931e-11)
(-4.65571e-10 1.66164e-10 1.18241e-10)
(-5.60395e-10 1.88012e-10 1.501e-10)
(-6.77854e-10 2.08668e-10 1.89961e-10)
(-8.24816e-10 2.26293e-10 2.39561e-10)
(-1.00836e-09 2.38297e-10 3.00502e-10)
(-1.23304e-09 2.41653e-10 3.73436e-10)
(-1.49351e-09 2.34261e-10 4.55677e-10)
(-1.75901e-09 2.17324e-10 5.33075e-10)
(-2.33901e-09 2.11631e-10 8.19365e-10)
(0 0 0)
(-6.69357e-11 2.6073e-11 1.19319e-11)
(-1.29935e-10 5.07836e-11 2.37121e-11)
(-1.89536e-10 7.44122e-11 3.59184e-11)
(-2.48317e-10 9.78806e-11 4.94453e-11)
(-3.08821e-10 1.21905e-10 6.51804e-11)
(-3.73752e-10 1.47015e-10 8.40706e-11)
(-4.46159e-10 1.73562e-10 1.07179e-10)
(-5.29614e-10 2.0171e-10 1.35735e-10)
(-6.28359e-10 2.3143e-10 1.71173e-10)
(-7.4738e-10 2.62498e-10 2.15145e-10)
(-8.92293e-10 2.94524e-10 2.69462e-10)
(-1.06875e-09 3.26984e-10 3.35841e-10)
(-1.28053e-09 3.59108e-10 4.15056e-10)
(-1.52425e-09 3.89045e-10 5.04316e-10)
(-1.77718e-09 4.09517e-10 5.88306e-10)
(-2.39085e-09 5.06676e-10 9.0287e-10)
(0 0 0)
(-7.5816e-11 2.9213e-11 1.33762e-11)
(-1.46886e-10 5.69309e-11 2.65359e-11)
(-2.13542e-10 8.35026e-11 4.00794e-11)
(-2.78395e-10 1.10009e-10 5.49543e-11)
(-3.43925e-10 1.3732e-10 7.20814e-11)
(-4.1264e-10 1.66145e-10 9.2419e-11)
(-4.87209e-10 1.97066e-10 1.17015e-10)
(-5.70545e-10 2.30585e-10 1.47049e-10)
(-6.65836e-10 2.67196e-10 1.8386e-10)
(-7.76458e-10 3.07501e-10 2.28952e-10)
(-9.05696e-10 3.52397e-10 2.83937e-10)
(-1.05611e-09 4.03251e-10 3.50315e-10)
(-1.22823e-09 4.61666e-10 4.28711e-10)
(-1.41773e-09 5.27122e-10 5.16332e-10)
(-1.61121e-09 5.86063e-10 5.97888e-10)
(-2.14666e-09 7.89521e-10 9.10124e-10)
(0 0 0)
(-8.28908e-11 3.12997e-11 1.44356e-11)
(-1.60267e-10 6.10293e-11 2.85806e-11)
(-2.32179e-10 8.9594e-11 4.30249e-11)
(-3.0114e-10 1.18189e-10 5.87232e-11)
(-3.69435e-10 1.47796e-10 7.65793e-11)
(-4.39239e-10 1.79247e-10 9.75031e-11)
(-5.12687e-10 2.13277e-10 1.22452e-10)
(-5.91876e-10 2.50593e-10 1.52456e-10)
(-6.78763e-10 2.91976e-10 1.88623e-10)
(-7.74925e-10 3.38434e-10 2.3212e-10)
(-8.81066e-10 3.91439e-10 2.84085e-10)
(-9.96127e-10 4.53198e-10 3.4542e-10)
(-1.11587e-09 5.26665e-10 4.16206e-10)
(-1.23106e-09 6.13641e-10 4.93818e-10)
(-1.33034e-09 7.02106e-10 5.65308e-10)
(-1.58647e-09 1.03404e-09 8.1866e-10)
(0 0 0)
(-8.82474e-11 3.22348e-11 1.51285e-11)
(-1.70286e-10 6.28842e-11 2.98875e-11)
(-2.45838e-10 9.23909e-11 4.48283e-11)
(-3.17232e-10 1.22008e-10 6.08734e-11)
(-3.86488e-10 1.52773e-10 7.88687e-11)
(-4.55402e-10 1.85566e-10 9.963e-11)
(-5.25565e-10 2.21165e-10 1.23969e-10)
(-5.98309e-10 2.60304e-10 1.52699e-10)
(-6.7454e-10 3.03742e-10 1.8661e-10)
(-7.54431e-10 3.52345e-10 2.264e-10)
(-8.36871e-10 4.07177e-10 2.72527e-10)
(-9.18589e-10 4.69486e-10 3.24888e-10)
(-9.92907e-10 5.40208e-10 3.82099e-10)
(-1.04861e-09 6.1758e-10 4.39622e-10)
(-1.07315e-09 6.86814e-10 4.83898e-10)
(-7.91745e-10 1.17029e-09 7.04356e-10)
(0 0 0)
(0 0 0)
(0 0 0)
(0 0 0)
(0 0 0)
(0 0 0)
(0 0 0)
(0 0 0)
(0 0 0)
(0 0 0)
(0 0 0)
(0 0 0)
(0 0 0)
(0 0 0)
(0 0 0)
(0 0 0)
(0 0 0)
(0 0 0)
(-1.51266e-11 6.30983e-12 2.73631e-12)
(-2.95115e-11 1.2278e-11 5.4615e-12)
(-4.34229e-11 1.7954e-11 8.33233e-12)
(-5.76204e-11 2.35286e-11 1.15839e-11)
(-7.29245e-11 2.91131e-11 1.54608e-11)
(-9.03027e-11 3.47175e-11 2.02377e-11)
(-1.10968e-10 4.02055e-11 2.62381e-11)
(-1.36493e-10 4.52089e-11 3.38505e-11)
(-1.68925e-10 4.8983e-11 4.35385e-11)
(-2.10869e-10 5.01672e-11 5.58345e-11)
(-2.65426e-10 4.64165e-11 7.12932e-11)
(-3.35768e-10 3.38954e-11 9.0355e-11)
(-4.23824e-10 6.81391e-12 1.12998e-10)
(-5.26828e-10 -4.17345e-11 1.37866e-10)
(-6.26264e-10 -1.09954e-10 1.59767e-10)
(-8.38458e-10 -4.17522e-10 1.71275e-10)
(0 0 0)
(-2.96866e-11 1.24057e-11 5.36056e-12)
(-5.78718e-11 2.41462e-11 1.06935e-11)
(-8.504e-11 3.53289e-11 1.63005e-11)
(-1.1263e-10 4.63442e-11 2.26353e-11)
(-1.4218e-10 5.7436e-11 3.01681e-11)
(-1.75481e-10 6.86717e-11 3.94244e-11)
(-2.14762e-10 7.98695e-11 5.10217e-11)
(-2.62879e-10 9.04673e-11 6.5702e-11)
(-3.23533e-10 9.92993e-11 8.43553e-11)
(-4.01398e-10 1.0424e-10 1.08017e-10)
(-5.01988e-10 1.01705e-10 1.37804e-10)
(-6.30758e-10 8.60898e-11 1.74717e-10)
(-7.90318e-10 4.97093e-11 2.19124e-10)
(-9.73198e-10 -1.45259e-11 2.69422e-10)
(-1.14287e-09 -9.90822e-11 3.1722e-10)
(-1.37142e-09 -3.17682e-10 4.02676e-10)
(0 0 0)
(-4.32021e-11 1.80881e-11 7.77677e-12)
(-8.4114e-11 3.52213e-11 1.54996e-11)
(-1.23341e-10 5.15774e-11 2.35929e-11)
(-1.62858e-10 6.77571e-11 3.26991e-11)
(-2.0474e-10 8.41706e-11 4.34783e-11)
(-2.51355e-10 1.01014e-10 5.66635e-11)
(-3.05593e-10 1.18202e-10 7.31106e-11)
(-3.711e-10 1.35239e-10 9.3847e-11)
(-4.52531e-10 1.51018e-10 1.20109e-10)
(-5.55708e-10 1.63488e-10 1.53353e-10)
(-6.87449e-10 1.69261e-10 1.95202e-10)
(-8.54419e-10 1.63265e-10 2.47228e-10)
(-1.0595e-09 1.39153e-10 3.10338e-10)
(-1.29222e-09 9.2519e-11 3.82963e-10)
(-1.50513e-09 3.21556e-11 4.53901e-10)
(-1.78553e-09 -1.17937e-10 5.73521e-10)
(0 0 0)
(-5.52889e-11 2.3159e-11 9.90555e-12)
(-1.07472e-10 4.51192e-11 1.97186e-11)
(-1.57155e-10 6.614e-11 2.99563e-11)
(-2.06672e-10 8.70361e-11 4.14088e-11)
(-2.58407e-10 1.08412e-10 5.48791e-11)
(-3.15008e-10 1.30656e-10 7.12482e-11)
(-3.79601e-10 1.53907e-10 9.15357e-11)
(-4.56029e-10 1.77979e-10 1.16957e-10)
(-5.49065e-10 2.02233e-10 1.48975e-10)
(-6.64566e-10 2.25406e-10 1.89326e-10)
(-8.0931e-10 2.45401e-10 2.39988e-10)
(-9.90001e-10 2.59158e-10 3.02972e-10)
(-1.20996e-09 2.62938e-10 3.79618e-10)
(-1.45977e-09 2.53982e-10 4.6828e-10)
(-1.69198e-09 2.35084e-10 5.55258e-10)
(-2.02122e-09 1.6428e-10 6.99389e-10)
(0 0 0)
(-6.56917e-11 2.74307e-11 1.1691e-11)
(-1.27449e-10 5.34724e-11 2.3238e-11)
(-1.85758e-10 7.8469e-11 3.52162e-11)
(-2.4312e-10 1.0344e-10 4.85166e-11)
(-3.02006e-10 1.29187e-10 6.40306e-11)
(-3.65049e-10 1.56322e-10 8.27201e-11)
(-4.35218e-10 1.85272e-10 1.05681e-10)
(-5.15984e-10 2.1628e-10 1.34202e-10)
(-6.11454e-10 2.49389e-10 1.69822e-10)
(-7.26417e-10 2.84453e-10 2.14365e-10)
(-8.66161e-10 3.21172e-10 2.69939e-10)
(-1.03574e-09 3.59155e-10 3.38762e-10)
(-1.23773e-09 3.9787e-10 4.22472e-10)
(-1.46549e-09 4.35928e-10 5.19574e-10)
(-1.68142e-09 4.67529e-10 6.15299e-10)
(-2.02983e-09 4.86997e-10 7.76358e-10)
(0 0 0)
(-7.42896e-11 3.07339e-11 1.3103e-11)
(-1.43829e-10 5.99456e-11 2.59985e-11)
(-2.08875e-10 8.80577e-11 3.92841e-11)
(-2.71931e-10 1.16263e-10 5.39033e-11)
(-3.35367e-10 1.45539e-10 7.07807e-11)
(-4.01569e-10 1.76698e-10 9.08914e-11)
(-4.73049e-10 2.10439e-10 1.15319e-10)
(-5.52515e-10 2.47399e-10 1.45307e-10)
(-6.42856e-10 2.88246e-10 1.82309e-10)
(-7.4701e-10 3.33834e-10 2.2802e-10)
(-8.67583e-10 3.85473e-10 2.84389e-10)
(-1.00608e-09 4.4526e-10 3.53509e-10)
(-1.16135e-09 5.16106e-10 4.37076e-10)
(-1.32609e-09 5.99567e-10 5.34002e-10)
(-1.47634e-09 6.83914e-10 6.3001e-10)
(-1.75251e-09 8.07786e-10 7.93768e-10)
(0 0 0)
(-8.10862e-11 3.29283e-11 1.41371e-11)
(-1.56648e-10 6.42596e-11 2.79939e-11)
(-2.26637e-10 9.448e-11 4.21575e-11)
(-2.9343e-10 1.24908e-10 5.7578e-11)
(-3.59164e-10 1.56643e-10 7.51631e-11)
(-4.25846e-10 1.9064e-10 9.584e-11)
(-4.95388e-10 2.27773e-10 1.20602e-10)
(-5.69579e-10 2.68918e-10 1.50546e-10)
(-6.49942e-10 3.15083e-10 1.86895e-10)
(-7.37396e-10 3.67621e-10 2.31007e-10)
(-8.31628e-10 4.28573e-10 2.84364e-10)
(-9.29969e-10 5.01202e-10 3.48492e-10)
(-1.02555e-09 5.9053e-10 4.24666e-10)
(-1.10478e-09 7.02289e-10 5.12456e-10)
(-1.14864e-09 8.28605e-10 6.01209e-10)
(-1.16186e-09 1.08125e-09 7.42894e-10)
(0 0 0)
(-8.61806e-11 3.39103e-11 1.48118e-11)
(-1.66138e-10 6.62092e-11 2.92654e-11)
(-2.39478e-10 9.74238e-11 4.39096e-11)
(-3.08364e-10 1.28936e-10 5.9662e-11)
(-3.74644e-10 1.61905e-10 7.73723e-11)
(-4.39905e-10 1.9734e-10 9.78734e-11)
(-5.05472e-10 2.36163e-10 1.22012e-10)
(-5.7231e-10 2.7928e-10 1.50665e-10)
(-6.40812e-10 3.27674e-10 1.84727e-10)
(-7.10393e-10 3.82527e-10 2.25072e-10)
(-7.78807e-10 4.4539e-10 2.72453e-10)
(-8.41022e-10 5.18324e-10 3.27272e-10)
(-8.8757e-10 6.03694e-10 3.89027e-10)
(-9.02797e-10 7.02086e-10 4.54624e-10)
(-8.67266e-10 8.00466e-10 5.1189e-10)
(-3.38083e-10 1.22363e-09 6.68637e-10)
(0 0 0)
(0 0 0)
(0 0 0)
(0 0 0)
(0 0 0)
(0 0 0)
(0 0 0)
(0 0 0)
(0 0 0)
(0 0 0)
(0 0 0)
(0 0 0)
(0 0 0)
(0 0 0)
(0 0 0)
(0 0 0)
(0 0 0)
(0 0 0)
(-1.48505e-11 6.60489e-12 2.57773e-12)
(-2.89609e-11 1.28617e-11 5.14604e-12)
(-4.25865e-11 1.88316e-11 7.8542e-12)
(-5.6468e-11 2.47229e-11 1.09257e-11)
(-7.14085e-11 3.06602e-11 1.45935e-11)
(-8.83577e-11 3.66601e-11 1.91191e-11)
(-1.08508e-10 4.25823e-11 2.48091e-11)
(-1.33402e-10 4.8038e-11 3.20284e-11)
(-1.65036e-10 5.22307e-11 4.12036e-11)
(-2.05911e-10 5.37014e-11 5.28046e-11)
(-2.58897e-10 4.99471e-11 6.72777e-11)
(-3.26661e-10 3.69425e-11 8.48728e-11)
(-4.10113e-10 8.87885e-12 1.05246e-10)
(-5.04842e-10 -4.03336e-11 1.26615e-10)
(-5.92208e-10 -1.06706e-10 1.44104e-10)
(-7.93012e-10 -3.71124e-10 1.63261e-10)
(0 0 0)
(-2.91302e-11 1.29861e-11 5.0496e-12)
(-5.6761e-11 2.52948e-11 1.00752e-11)
(-8.3349e-11 3.70573e-11 1.53642e-11)
(-1.10293e-10 4.86996e-11 2.13478e-11)
(-1.39092e-10 6.04941e-11 2.8474e-11)
(-1.71497e-10 7.2525e-11 3.72432e-11)
(-2.09685e-10 8.46113e-11 4.82412e-11)
(-2.56442e-10 9.6164e-11 6.21648e-11)
(-3.15352e-10 1.05942e-10 7.98327e-11)
(-3.90864e-10 1.11671e-10 1.02156e-10)
(-4.88024e-10 1.09524e-10 1.30024e-10)
(-6.11291e-10 9.36037e-11 1.63994e-10)
(-7.61285e-10 5.61726e-11 2.03558e-10)
(-9.27382e-10 -8.82475e-12 2.45525e-10)
(-1.07293e-09 -9.12302e-11 2.80691e-10)
(-1.26229e-09 -2.70217e-10 3.2075e-10)
(0 0 0)
(-4.23577e-11 1.89347e-11 7.3249e-12)
(-8.24254e-11 3.68975e-11 1.46019e-11)
(-1.20763e-10 5.41024e-11 2.22352e-11)
(-1.5928e-10 7.12052e-11 3.08355e-11)
(-1.99984e-10 8.86617e-11 4.1032e-11)
(-2.4517e-10 1.06701e-10 5.35226e-11)
(-2.97631e-10 1.25255e-10 6.91204e-11)
(-3.60883e-10 1.43818e-10 8.87913e-11)
(-4.39373e-10 1.61223e-10 1.13673e-10)
(-5.3856e-10 1.75288e-10 1.45047e-10)
(-6.64566e-10 1.82388e-10 1.84198e-10)
(-8.22678e-10 1.77131e-10 2.32007e-10)
(-1.01316e-09 1.52959e-10 2.87935e-10)
(-1.22156e-09 1.05928e-10 3.47647e-10)
(-1.40081e-09 4.63923e-11 3.98118e-10)
(-1.62941e-09 -7.85419e-11 4.51688e-10)
(0 0 0)
(-5.41484e-11 2.42427e-11 9.32861e-12)
(-1.05187e-10 4.72664e-11 1.85737e-11)
(-1.53656e-10 6.93786e-11 2.82278e-11)
(-2.01793e-10 9.14689e-11 3.90421e-11)
(-2.51882e-10 1.14205e-10 5.1782e-11)
(-3.06451e-10 1.38031e-10 6.72876e-11)
(-3.68475e-10 1.63129e-10 8.65283e-11)
(-4.41578e-10 1.89337e-10 1.1065e-10)
(-5.30213e-10 2.16012e-10 1.41001e-10)
(-6.39711e-10 2.41825e-10 1.79116e-10)
(-7.75955e-10 2.64523e-10 2.2657e-10)
(-9.44047e-10 2.80741e-10 2.84532e-10)
(-1.14453e-09 2.86239e-10 3.52533e-10)
(-1.36414e-09 2.77567e-10 4.25468e-10)
(-1.5567e-09 2.57269e-10 4.87381e-10)
(-1.83094e-09 1.96893e-10 5.53541e-10)
(0 0 0)
(-6.42512e-11 2.87133e-11 1.10081e-11)
(-1.24559e-10 5.60155e-11 2.18846e-11)
(-1.8132e-10 8.231e-11 3.31774e-11)
(-2.36906e-10 1.08708e-10 4.57337e-11)
(-2.93651e-10 1.36093e-10 6.04033e-11)
(-3.54017e-10 1.65155e-10 7.81046e-11)
(-4.2075e-10 1.96395e-10 9.98819e-11)
(-4.97009e-10 2.30127e-10 1.26954e-10)
(-5.86443e-10 2.66453e-10 1.60747e-10)
(-6.93137e-10 3.05262e-10 2.02885e-10)
(-8.2128e-10 3.46216e-10 2.55071e-10)
(-9.74173e-10 3.88689e-10 3.18663e-10)
(-1.15176e-09 4.3137e-10 3.93409e-10)
(-1.34439e-09 4.70891e-10 4.74099e-10)
(-1.51713e-09 4.98965e-10 5.43316e-10)
(-1.8067e-09 5.12116e-10 6.2099e-10)
(0 0 0)
(-7.25528e-11 3.21694e-11 1.23351e-11)
(-1.40341e-10 6.27934e-11 2.44791e-11)
(-2.03508e-10 9.23637e-11 3.70013e-11)
(-2.64395e-10 1.22178e-10 5.07986e-11)
(-3.25196e-10 1.53312e-10 6.67532e-11)
(-3.88077e-10 1.86674e-10 8.57971e-11)
(-4.55259e-10 2.23065e-10 1.08966e-10)
(-5.29038e-10 2.63231e-10 1.37442e-10)
(-6.11714e-10 3.07959e-10 1.72581e-10)
(-7.05342e-10 3.58225e-10 2.15907e-10)
(-8.11211e-10 4.15418e-10 2.69023e-10)
(-9.28887e-10 4.81517e-10 3.33274e-10)
(-1.05465e-09 5.58569e-10 4.08669e-10)
(-1.17912e-09 6.45251e-10 4.90678e-10)
(-1.28299e-09 7.25164e-10 5.62261e-10)
(-1.49883e-09 8.26516e-10 6.47877e-10)
(0 0 0)
(-7.90665e-11 3.44637e-11 1.33058e-11)
(-1.5259e-10 6.73072e-11 2.63518e-11)
(-2.20387e-10 9.90917e-11 3.96977e-11)
(-2.84643e-10 1.3125e-10 5.42465e-11)
(-3.47286e-10 1.64989e-10 7.08648e-11)
(-4.1006e-10 2.01373e-10 9.04408e-11)
(-4.74531e-10 2.41393e-10 1.13928e-10)
(-5.42006e-10 2.86055e-10 1.42372e-10)
(-6.13314e-10 3.36516e-10 1.76926e-10)
(-6.88367e-10 3.94286e-10 2.18822e-10)
(-7.6537e-10 4.61546e-10 2.6929e-10)
(-8.39538e-10 5.41513e-10 3.29305e-10)
(-9.01303e-10 6.38423e-10 3.98871e-10)
(-9.35198e-10 7.54999e-10 4.74826e-10)
(-9.2803e-10 8.77514e-10 5.43907e-10)
(-8.63663e-10 1.10048e-09 6.30278e-10)
(0 0 0)
(-8.39016e-11 3.54882e-11 1.39377e-11)
(-1.61559e-10 6.93423e-11 2.75422e-11)
(-2.32427e-10 1.02168e-10 4.13365e-11)
(-2.98456e-10 1.35464e-10 5.61932e-11)
(-3.61259e-10 1.70501e-10 7.29239e-11)
(-4.22134e-10 2.08401e-10 9.23282e-11)
(-4.8203e-10 2.50204e-10 1.15222e-10)
(-5.41397e-10 2.96947e-10 1.42448e-10)
(-5.99905e-10 3.49748e-10 1.74858e-10)
(-6.55945e-10 4.09924e-10 2.13249e-10)
(-7.05813e-10 4.79112e-10 2.58226e-10)
(-7.42476e-10 5.59235e-10 3.0986e-10)
(-7.5404e-10 6.51793e-10 3.66903e-10)
(-7.23249e-10 7.54554e-10 4.24743e-10)
(-6.34075e-10 8.48694e-10 4.69835e-10)
(1.58918e-11 1.24557e-09 5.86855e-10)
(0 0 0)
(0 0 0)
(0 0 0)
(0 0 0)
(0 0 0)
(0 0 0)
(0 0 0)
(0 0 0)
(0 0 0)
(0 0 0)
(0 0 0)
(0 0 0)
(0 0 0)
(0 0 0)
(0 0 0)
(0 0 0)
(0 0 0)
(0 0 0)
(-1.45482e-11 6.87396e-12 2.32038e-12)
(-2.83537e-11 1.33948e-11 4.6329e-12)
(-4.16515e-11 1.96348e-11 7.0726e-12)
(-5.51531e-11 2.58193e-11 9.84115e-12)
(-6.96296e-11 3.20867e-11 1.3148e-11)
(-8.59915e-11 3.84641e-11 1.72263e-11)
(-1.05379e-10 4.48172e-11 2.23446e-11)
(-1.29261e-10 5.07564e-11 2.88137e-11)
(-1.59523e-10 5.54787e-11 3.69782e-11)
(-1.98484e-10 5.75193e-11 4.71816e-11)
(-2.48729e-10 5.44044e-11 5.96777e-11)
(-3.12482e-10 4.22737e-11 7.44495e-11)
(-3.90116e-10 1.58502e-11 9.0887e-11)
(-4.77105e-10 -2.97719e-11 1.07314e-10)
(-5.56812e-10 -8.96651e-11 1.20316e-10)
(-7.5085e-10 -3.23121e-10 1.44552e-10)
(0 0 0)
(-2.85242e-11 1.3515e-11 4.54527e-12)
(-5.55431e-11 2.63431e-11 9.07019e-12)
(-8.14717e-11 3.86377e-11 1.38347e-11)
(-1.07649e-10 5.08591e-11 1.92281e-11)
(-1.35508e-10 6.33083e-11 2.56532e-11)
(-1.66719e-10 7.60924e-11 3.35561e-11)
(-2.03348e-10 8.90461e-11 4.34503e-11)
(-2.48032e-10 1.01586e-10 5.59295e-11)
(-3.04123e-10 1.12464e-10 7.16542e-11)
(-3.75714e-10 1.19401e-10 9.12871e-11)
(-4.67283e-10 1.18608e-10 1.15326e-10)
(-5.82436e-10 1.04411e-10 1.43743e-10)
(-7.20768e-10 6.97848e-11 1.75312e-10)
(-8.7145e-10 1.01856e-11 2.06558e-10)
(-1.0017e-09 -6.32811e-11 2.30542e-10)
(-1.18012e-09 -2.0954e-10 2.57177e-10)
(0 0 0)
(-4.14455e-11 1.97056e-11 6.59281e-12)
(-8.05907e-11 3.84259e-11 1.31443e-11)
(-1.17931e-10 5.64085e-11 2.00202e-11)
(-1.55283e-10 7.43607e-11 2.77719e-11)
(-1.94551e-10 9.2783e-11 3.69652e-11)
(-2.37903e-10 1.11943e-10 4.82229e-11)
(-2.8796e-10 1.31802e-10 6.22584e-11)
(-3.47996e-10 1.51877e-10 7.98947e-11)
(-4.22106e-10 1.71007e-10 1.0205e-10)
(-5.15214e-10 1.87009e-10 1.29653e-10)
(-6.32633e-10 1.96278e-10 1.63421e-10)
(-7.7848e-10 1.93565e-10 2.03339e-10)
(-9.51692e-10 1.72796e-10 2.47673e-10)
(-1.13774e-09 1.3104e-10 2.91332e-10)
(-1.29505e-09 7.91496e-11 3.24243e-10)
(-1.50397e-09 -1.97817e-11 3.55631e-10)
(0 0 0)
(-5.2929e-11 2.52287e-11 8.39535e-12)
(-1.02733e-10 4.92222e-11 1.67178e-11)
(-1.49862e-10 7.23323e-11 2.54131e-11)
(-1.96427e-10 9.55168e-11 3.51596e-11)
(-2.44569e-10 1.19505e-10 4.66461e-11)
(-2.96637e-10 1.44795e-10 6.06226e-11)
(-3.55365e-10 1.7162e-10 7.79413e-11)
(-4.24041e-10 1.99862e-10 9.95797e-11)
(-5.06637e-10 2.28907e-10 1.26628e-10)
(-6.0778e-10 2.57439e-10 1.60202e-10)
(-7.32341e-10 2.83189e-10 2.01187e-10)
(-8.84065e-10 3.02762e-10 2.49646e-10)
(-1.06213e-09 3.11909e-10 3.03585e-10)
(-1.25361e-09 3.07283e-10 3.56864e-10)
(-1.41925e-09 2.91499e-10 3.97108e-10)
(-1.66705e-09 2.46847e-10 4.35267e-10)
(0 0 0)
(-6.27284e-11 2.98794e-11 9.9055e-12)
(-1.21492e-10 5.83293e-11 1.96952e-11)
(-1.76573e-10 8.58074e-11 2.98651e-11)
(-2.30183e-10 1.13508e-10 4.11804e-11)
(-2.84471e-10 1.42391e-10 5.44064e-11)
(-3.41668e-10 1.73217e-10 7.03643e-11)
(-4.04209e-10 2.06561e-10 8.99738e-11)
(-4.74822e-10 2.428e-10 1.14277e-10)
(-5.56548e-10 2.82097e-10 1.44431e-10)
(-6.52611e-10 3.24368e-10 1.81622e-10)
(-7.6601e-10 3.69229e-10 2.26826e-10)
(-8.98578e-10 4.1584e-10 2.80218e-10)
(-1.049e-09 4.62351e-10 3.39887e-10)
(-1.20862e-09 5.04484e-10 3.99446e-10)
(-1.35072e-09 5.33528e-10 4.45263e-10)
(-1.61067e-09 5.50027e-10 4.91146e-10)
(0 0 0)
(-7.07375e-11 3.34729e-11 1.10979e-11)
(-1.36683e-10 6.5381e-11 2.20266e-11)
(-1.97845e-10 9.62779e-11 3.33019e-11)
(-2.5637e-10 1.27557e-10 4.5734e-11)
(-3.1423e-10 1.60379e-10 6.0118e-11)
(-3.73313e-10 1.95741e-10 7.7289e-11)
(-4.35467e-10 2.34529e-10 9.81612e-11)
(-5.02476e-10 2.77577e-10 1.23749e-10)
(-5.75918e-10 3.25747e-10 1.55154e-10)
(-6.5685e-10 3.80058e-10 1.93494e-10)
(-7.4522e-10 4.41836e-10 2.3969e-10)
(-8.38994e-10 5.12722e-10 2.93977e-10)
(-9.33226e-10 5.93853e-10 3.54774e-10)
(-1.01995e-09 6.82246e-10 4.16371e-10)
(-1.08922e-09 7.60561e-10 4.65328e-10)
(-1.27336e-09 8.53998e-10 5.19426e-10)
(0 0 0)
(-7.69786e-11 3.58564e-11 1.19692e-11)
(-1.48384e-10 7.00728e-11 2.37076e-11)
(-2.13877e-10 1.03278e-10 3.57224e-11)
(-2.75423e-10 1.37005e-10 4.88296e-11)
(-3.34697e-10 1.72559e-10 6.38113e-11)
(-3.9313e-10 2.11095e-10 8.14647e-11)
(-4.51872e-10 2.53698e-10 1.02634e-10)
(-5.11659e-10 3.01469e-10 1.2822e-10)
(-5.72533e-10 3.55645e-10 1.59159e-10)
(-6.33324e-10 4.17775e-10 1.96346e-10)
(-6.90803e-10 4.89951e-10 2.40449e-10)
(-7.38471e-10 5.74989e-10 2.91525e-10)
(-7.65356e-10 6.76082e-10 3.48235e-10)
(-7.57047e-10 7.94062e-10 4.06284e-10)
(-7.09586e-10 9.14133e-10 4.55145e-10)
(-5.99196e-10 1.12683e-09 5.16301e-10)
(0 0 0)
(-8.15696e-11 3.69179e-11 1.25354e-11)
(-1.56864e-10 7.21824e-11 2.47741e-11)
(-2.2517e-10 1.06468e-10 3.71902e-11)
(-2.88196e-10 1.41379e-10 5.05724e-11)
(-3.47285e-10 1.78282e-10 6.56544e-11)
(-4.03403e-10 2.18392e-10 8.31554e-11)
(-4.57063e-10 2.62844e-10 1.038e-10)
(-5.08132e-10 3.12759e-10 1.28316e-10)
(-5.55488e-10 3.69321e-10 1.57393e-10)
(-5.96458e-10 4.33855e-10 1.91581e-10)
(-6.25959e-10 5.0786e-10 2.31089e-10)
(-6.3535e-10 5.9279e-10 2.7537e-10)
(-6.11394e-10 6.89037e-10 3.22336e-10)
(-5.37422e-10 7.92419e-10 3.66852e-10)
(-4.03405e-10 8.82352e-10 3.97609e-10)
(3.32211e-10 1.27624e-09 4.78651e-10)
(0 0 0)
(0 0 0)
(0 0 0)
(0 0 0)
(0 0 0)
(0 0 0)
(0 0 0)
(0 0 0)
(0 0 0)
(0 0 0)
(0 0 0)
(0 0 0)
(0 0 0)
(0 0 0)
(0 0 0)
(0 0 0)
(0 0 0)
(0 0 0)
(-1.42477e-11 7.10812e-12 1.97368e-12)
(-2.77471e-11 1.38592e-11 3.94088e-12)
(-4.07094e-11 2.03357e-11 6.01655e-12)
(-5.38119e-11 2.67785e-11 8.37174e-12)
(-6.77865e-11 3.334e-11 1.11828e-11)
(-8.34949e-11 4.00602e-11 1.4643e-11)
(-1.02013e-10 4.68172e-11 1.89696e-11)
(-1.24723e-10 5.32361e-11 2.44031e-11)
(-1.5339e-10 5.85369e-11 3.11892e-11)
(-1.90177e-10 6.13039e-11 3.95332e-11)
(-2.37475e-10 5.91792e-11 4.95071e-11)
(-2.97319e-10 4.85676e-11 6.08956e-11)
(-3.70051e-10 2.47152e-11 7.30005e-11)
(-4.51631e-10 -1.65577e-11 8.45047e-11)
(-5.26922e-10 -7.05011e-11 9.33668e-11)
(-7.13218e-10 -2.84315e-10 1.13953e-10)
(0 0 0)
(-2.79236e-11 1.39751e-11 3.866e-12)
(-5.43307e-11 2.72556e-11 7.71512e-12)
(-7.95877e-11 4.00156e-11 1.17687e-11)
(-1.04965e-10 5.2746e-11 1.63569e-11)
(-1.31816e-10 6.57761e-11 2.18188e-11)
(-1.61713e-10 7.9239e-11 2.85248e-11)
(-1.96592e-10 9.29952e-11 3.68902e-11)
(-2.38913e-10 1.0649e-10 4.73741e-11)
(-2.91788e-10 1.18519e-10 6.04471e-11)
(-3.58998e-10 1.2688e-10 7.65026e-11)
(-4.44637e-10 1.27962e-10 9.56742e-11)
(-5.51941e-10 1.16479e-10 1.17514e-10)
(-6.80449e-10 8.61314e-11 1.40537e-10)
(-8.20289e-10 3.32853e-11 1.61815e-10)
(-9.41642e-10 -3.14992e-11 1.76991e-10)
(-1.10753e-09 -1.57077e-10 1.93439e-10)
(0 0 0)
(-4.05463e-11 2.03755e-11 5.60723e-12)
(-7.87745e-11 3.97551e-11 1.118e-11)
(-1.15107e-10 5.84165e-11 1.70297e-11)
(-1.51257e-10 7.71131e-11 2.36242e-11)
(-1.89008e-10 9.63874e-11 3.14401e-11)
(-2.30377e-10 1.16547e-10 4.09945e-11)
(-2.77787e-10 1.37592e-10 5.28649e-11)
(-3.34245e-10 1.59085e-10 6.76881e-11)
(-4.03485e-10 1.79915e-10 8.61174e-11)
(-4.89968e-10 1.97988e-10 1.08703e-10)
(-5.98447e-10 2.0986e-10 1.35633e-10)
(-7.32533e-10 2.10609e-10 1.66264e-10)
(-8.91122e-10 1.94733e-10 1.98407e-10)
(-1.0611e-09 1.59928e-10 2.27629e-10)
(-1.2051e-09 1.16299e-10 2.47513e-10)
(-1.39267e-09 3.61168e-11 2.64517e-10)
(0 0 0)
(-5.17351e-11 2.60848e-11 7.13975e-12)
(-1.0032e-10 5.09212e-11 1.42184e-11)
(-1.4611e-10 7.49004e-11 2.16156e-11)
(-1.91073e-10 9.90404e-11 2.99071e-11)
(-2.37191e-10 1.24125e-10 3.96736e-11)
(-2.8661e-10 1.50707e-10 5.15385e-11)
(-3.41796e-10 1.79073e-10 6.61923e-11)
(-4.0568e-10 2.09159e-10 8.43922e-11)
(-4.81753e-10 2.40412e-10 1.06915e-10)
(-5.74036e-10 2.71586e-10 1.3442e-10)
(-6.86696e-10 3.00507e-10 1.67156e-10)
(-8.22874e-10 3.23921e-10 2.04393e-10)
(-9.8181e-10 3.37783e-10 2.43536e-10)
(-1.15251e-09 3.38885e-10 2.79182e-10)
(-1.301e-09 3.29176e-10 3.0342e-10)
(-1.52107e-09 2.97703e-10 3.23654e-10)
(0 0 0)
(-6.12484e-11 3.08908e-11 8.42324e-12)
(-1.18502e-10 6.0337e-11 1.67491e-11)
(-1.71921e-10 8.88438e-11 2.54003e-11)
(-2.23544e-10 1.17677e-10 3.50264e-11)
(-2.7532e-10 1.47865e-10 4.62734e-11)
(-3.29228e-10 1.80233e-10 5.98245e-11)
(-3.87372e-10 2.15418e-10 7.64265e-11)
(-4.52035e-10 2.53866e-10 9.68882e-11)
(-5.2567e-10 2.95798e-10 1.22034e-10)
(-6.1076e-10 3.41178e-10 1.52567e-10)
(-7.09473e-10 3.8963e-10 1.88779e-10)
(-8.22964e-10 4.40242e-10 2.29978e-10)
(-9.50117e-10 4.90959e-10 2.73552e-10)
(-1.08476e-09 5.37143e-10 3.13845e-10)
(-1.20662e-09 5.69569e-10 3.42055e-10)
(-1.43728e-09 5.92331e-10 3.67472e-10)
(0 0 0)
(-6.89871e-11 3.46025e-11 9.43617e-12)
(-1.33148e-10 6.76239e-11 1.87298e-11)
(-1.92347e-10 9.96714e-11 2.83205e-11)
(-2.48528e-10 1.32219e-10 3.88967e-11)
(-3.0343e-10 1.66505e-10 5.11301e-11)
(-3.58646e-10 2.03599e-10 6.57168e-11)
(-4.1564e-10 2.44457e-10 8.34006e-11)
(-4.75681e-10 2.89982e-10 1.0497e-10)
(-5.39671e-10 3.41095e-10 1.31209e-10)
(-6.07815e-10 3.98833e-10 1.62775e-10)
(-6.79107e-10 4.64457e-10 1.99934e-10)
(-7.50735e-10 5.39375e-10 2.42067e-10)
(-8.1794e-10 6.24241e-10 2.8686e-10)
(-8.75565e-10 7.1542e-10 3.29189e-10)
(-9.21202e-10 7.95265e-10 3.60327e-10)
(-1.07688e-09 8.90009e-10 3.93008e-10)
(0 0 0)
(-7.49805e-11 3.70622e-11 1.01758e-11)
(-1.4435e-10 7.24674e-11 2.01569e-11)
(-2.07612e-10 1.06902e-10 3.03757e-11)
(-2.66502e-10 1.41987e-10 4.15261e-11)
(-3.22437e-10 1.79105e-10 5.42696e-11)
(-3.76525e-10 2.1949e-10 6.92722e-11)
(-4.29495e-10 2.64299e-10 8.72221e-11)
(-4.81527e-10 3.14701e-10 1.0882e-10)
(-5.31934e-10 3.71973e-10 1.34728e-10)
(-5.78634e-10 4.37655e-10 1.65448e-10)
(-6.17362e-10 5.13717e-10 2.01094e-10)
(-6.40719e-10 6.02649e-10 2.4099e-10)
(-6.37699e-10 7.07051e-10 2.83106e-10)
(-5.96319e-10 8.27143e-10 3.23409e-10)
(-5.20226e-10 9.48317e-10 3.55073e-10)
(-3.74207e-10 1.1659e-09 3.95215e-10)
(0 0 0)
(-7.9354e-11 3.81547e-11 1.06559e-11)
(-1.52397e-10 7.46391e-11 2.10611e-11)
(-2.18243e-10 1.10187e-10 3.16201e-11)
(-2.78359e-10 1.4649e-10 4.30043e-11)
(-3.33814e-10 1.84997e-10 5.58349e-11)
(-3.85238e-10 2.26997e-10 7.07142e-11)
(-4.32713e-10 2.73693e-10 8.82349e-11)
(-4.75541e-10 3.26261e-10 1.08961e-10)
(-5.11878e-10 3.85909e-10 1.3337e-10)
(-5.38154e-10 4.53916e-10 1.61722e-10)
(-5.48283e-10 5.31601e-10 1.93829e-10)
(-5.32735e-10 6.20016e-10 2.28658e-10)
(-4.78126e-10 7.18865e-10 2.63742e-10)
(-3.6966e-10 8.2321e-10 2.94407e-10)
(-2.02841e-10 9.1224e-10 3.12467e-10)
(6.0065e-10 1.32109e-09 3.5947e-10)
(0 0 0)
(0 0 0)
(0 0 0)
(0 0 0)
(0 0 0)
(0 0 0)
(0 0 0)
(0 0 0)
(0 0 0)
(0 0 0)
(0 0 0)
(0 0 0)
(0 0 0)
(0 0 0)
(0 0 0)
(0 0 0)
(0 0 0)
(0 0 0)
(-1.39773e-11 7.29932e-12 1.5508e-12)
(-2.71996e-11 1.42386e-11 3.09652e-12)
(-3.98543e-11 2.09091e-11 4.72725e-12)
(-5.25854e-11 2.75652e-11 6.57659e-12)
(-6.60861e-11 3.43717e-11 8.78101e-12)
(-8.11703e-11 4.13819e-11 1.14875e-11)
(-9.88529e-11 4.84893e-11 1.48566e-11)
(-1.20438e-10 5.53404e-11 1.90562e-11)
(-1.47601e-10 6.11906e-11 2.42409e-11)
(-1.8241e-10 6.46897e-11 3.05042e-11)
(-2.27192e-10 6.36045e-11 3.77973e-11)
(-2.84031e-10 5.45619e-11 4.58138e-11)
(-3.53558e-10 3.31361e-11 5.38881e-11)
(-4.32395e-10 -4.5914e-12 6.10281e-11)
(-5.06242e-10 -5.44331e-11 6.60832e-11)
(-6.92659e-10 -2.57599e-10 7.74106e-11)
(0 0 0)
(-2.73844e-11 1.43505e-11 3.03761e-12)
(-5.32387e-11 2.80009e-11 6.06198e-12)
(-7.78821e-11 4.11421e-11 9.2466e-12)
(-1.02518e-10 5.42919e-11 1.28495e-11)
(-1.28423e-10 6.78043e-11 1.71331e-11)
(-1.57072e-10 8.18384e-11 2.23791e-11)
(-1.90281e-10 9.62842e-11 2.88943e-11)
(-2.30351e-10 1.10626e-10 3.69997e-11)
(-2.80215e-10 1.23722e-10 4.69902e-11)
(-3.43456e-10 1.33477e-10 5.90433e-11)
(-4.24039e-10 1.36477e-10 7.30553e-11)
(-5.2528e-10 1.2777e-10 8.83942e-11)
(-6.47264e-10 1.01521e-10 1.03637e-10)
(-7.81387e-10 5.43787e-11 1.16527e-10)
(-8.99502e-10 -4.13058e-12 1.2453e-10)
(-1.06648e-09 -1.18178e-10 1.27779e-10)
(0 0 0)
(-3.97417e-11 2.09219e-11 4.40557e-12)
(-7.7145e-11 4.08397e-11 8.78416e-12)
(-1.12561e-10 6.00565e-11 1.33799e-11)
(-1.47604e-10 7.93645e-11 1.85584e-11)
(-1.83941e-10 9.93427e-11 2.46888e-11)
(-2.23444e-10 1.20336e-10 3.21647e-11)
(-2.68354e-10 1.42388e-10 4.14129e-11)
(-3.21443e-10 1.65109e-10 5.28787e-11)
(-3.86167e-10 1.87467e-10 6.69708e-11)
(-4.66693e-10 2.07481e-10 8.39358e-11)
(-5.67569e-10 2.21904e-10 1.03624e-10)
(-6.92498e-10 2.26121e-10 1.25121e-10)
(-8.41141e-10 2.15016e-10 1.46318e-10)
(-1.00215e-09 1.86419e-10 1.63775e-10)
(-1.14058e-09 1.49255e-10 1.73751e-10)
(-1.32568e-09 8.08648e-11 1.74327e-10)
(0 0 0)
(-5.06715e-11 2.67825e-11 5.60939e-12)
(-9.81664e-11 5.23063e-11 1.11709e-11)
(-1.42745e-10 7.69952e-11 1.69824e-11)
(-1.86245e-10 1.01917e-10 2.3494e-11)
(-2.30494e-10 1.27904e-10 3.11555e-11)
(-2.77448e-10 1.55554e-10 4.04421e-11)
(-3.29329e-10 1.85206e-10 5.18645e-11)
(-3.88758e-10 2.16854e-10 6.59527e-11)
(-4.58853e-10 2.50018e-10 8.31922e-11)
(-5.43243e-10 2.8355e-10 1.0388e-10)
(-6.45808e-10 3.15414e-10 1.2785e-10)
(-7.69786e-10 3.42538e-10 1.5403e-10)
(-9.15361e-10 3.61055e-10 1.79905e-10)
(-1.07378e-09 3.67687e-10 2.01285e-10)
(-1.2142e-09 3.63351e-10 2.1357e-10)
(-1.42816e-09 3.41182e-10 2.14934e-10)
(0 0 0)
(-5.99369e-11 3.17144e-11 6.61736e-12)
(-1.15846e-10 6.19722e-11 1.31585e-11)
(-1.67775e-10 9.13174e-11 1.99551e-11)
(-2.17598e-10 1.21076e-10 2.75152e-11)
(-2.67078e-10 1.5233e-10 3.63398e-11)
(-3.17962e-10 1.8596e-10 4.69505e-11)
(-3.72053e-10 2.22662e-10 5.99e-11)
(-4.31256e-10 2.62938e-10 7.57552e-11)
(-4.97565e-10 3.07074e-10 9.50309e-11)
(-5.72973e-10 3.55096e-10 1.18044e-10)
(-6.59273e-10 4.0669e-10 1.44633e-10)
(-7.57692e-10 4.60974e-10 1.73717e-10)
(-8.68196e-10 5.15851e-10 2.02722e-10)
(-9.87336e-10 5.6644e-10 2.27268e-10)
(-1.09884e-09 6.02727e-10 2.42215e-10)
(-1.32258e-09 6.31201e-10 2.47225e-10)
(0 0 0)
(-6.74442e-11 3.55215e-11 7.41263e-12)
(-1.30025e-10 6.94487e-11 1.47137e-11)