/*--------------------------------*- C++ -*----------------------------------*\
| =========                 |                                                 |
| \\      /  F ield         | foam-extend: Open Source CFD                    |
|  \\    /   O peration     | Version:     3.1                                |
|   \\  /    A nd           | Web:         http://www.extend-project.de       |
|    \\/     M anipulation  |                                                 |
\*---------------------------------------------------------------------------*/
FoamFile
{
    version     2.0;
    format      ascii;
    class       pointVectorField;
    location    "0.0001";
    object      pointD;
}
// * * * * * * * * * * * * * * * * * * * * * * * * * * * * * * * * * * * * * //

dimensions      [0 1 0 0 0 0 0];

internalField   nonuniform List<vector> 
8505
(
(0 0 0)
(0 0 0)
(0 0 0)
(0 0 0)
(0 0 0)
(0 0 0)
(0 0 0)
(0 0 0)
(0 0 0)
(0 0 0)
(0 0 0)
(0 0 0)
(0 0 0)
(0 0 0)
(0 0 0)
(0 0 0)
(0 0 0)
(0 0 0)
(0 0 0)
(0 0 0)
(0 0 0)
(0 0 0)
(0 0 0)
(0 0 0)
(0 0 0)
(0 0 0)
(0 0 0)
(0 0 0)
(0 0 0)
(0 0 0)
(0 0 0)
(0 0 0)
(0 0 0)
(0 0 0)
(0 0 0)
(0 0 0)
(0 0 0)
(0 0 0)
(0 0 0)
(0 0 0)
(0 0 0)
(0 0 0)
(0 0 0)
(0 0 0)
(0 0 0)
(0 0 0)
(0 0 0)
(0 0 0)
(0 0 0)
(0 0 0)
(0 0 0)
(0 0 0)
(0 0 0)
(0 0 0)
(0 0 0)
(0 0 0)
(0 0 0)
(0 0 0)
(0 0 0)
(0 0 0)
(0 0 0)
(0 0 0)
(0 0 0)
(0 0 0)
(0 0 0)
(0 0 0)
(0 0 0)
(0 0 0)
(0 0 0)
(0 0 0)
(0 0 0)
(0 0 0)
(0 0 0)
(0 0 0)
(0 0 0)
(0 0 0)
(0 0 0)
(0 0 0)
(0 0 0)
(0 0 0)
(0 0 0)
(0 0 0)
(0 0 0)
(0 0 0)
(0 0 0)
(0 0 0)
(0 0 0)
(0 0 0)
(0 0 0)
(0 0 0)
(0 0 0)
(0 0 0)
(0 0 0)
(0 0 0)
(0 0 0)
(0 0 0)
(0 0 0)
(0 0 0)
(0 0 0)
(0 0 0)
(0 0 0)
(0 0 0)
(0 0 0)
(0 0 0)
(0 0 0)
(3.13278e-06 0 7.26657e-07)
(2.61171e-06 0 2.40831e-07)
(2.26461e-06 0 2.43909e-08)
(2.06044e-06 0 -1.69946e-07)
(1.97898e-06 0 -5.45948e-07)
(3.10615e-06 2.43293e-07 7.07305e-07)
(2.5912e-06 2.04064e-07 2.32895e-07)
(2.24929e-06 1.77534e-07 1.93846e-08)
(2.04961e-06 1.62014e-07 -1.77342e-07)
(1.97226e-06 1.56204e-07 -5.63526e-07)
(3.07703e-06 4.87937e-07 7.0665e-07)
(2.56693e-06 4.06753e-07 2.32588e-07)
(2.22832e-06 3.53238e-07 1.9197e-08)
(2.03065e-06 3.22085e-07 -1.77505e-07)
(1.95422e-06 3.10076e-07 -5.6357e-07)
(3.02927e-06 7.27326e-07 7.06407e-07)
(2.52715e-06 6.06655e-07 2.32442e-07)
(2.19377e-06 5.26764e-07 1.9141e-08)
(1.99912e-06 4.80248e-07 -1.77501e-07)
(1.92381e-06 4.62374e-07 -5.63497e-07)
(2.96244e-06 9.61644e-07 7.06199e-07)
(2.47133e-06 8.02464e-07 2.32379e-07)
(2.14524e-06 6.96892e-07 1.91548e-08)
(1.95483e-06 6.35398e-07 -1.7741e-07)
(1.88108e-06 6.11844e-07 -5.63265e-07)
(2.87684e-06 1.18958e-06 7.05911e-07)
(2.39973e-06 9.92944e-07 2.32335e-07)
(2.08296e-06 8.62424e-07 1.92153e-08)
(1.89796e-06 7.86386e-07 -1.77242e-07)
(1.82623e-06 7.57325e-07 -5.62859e-07)
(2.77302e-06 1.40978e-06 7.05539e-07)
(2.31286e-06 1.1769e-06 2.32302e-07)
(2.00738e-06 1.02225e-06 1.93147e-08)
(1.82895e-06 9.32137e-07 -1.77005e-07)
(1.75969e-06 8.97725e-07 -5.62286e-07)
(2.65175e-06 1.621e-06 7.05148e-07)
(2.21138e-06 1.35325e-06 2.32299e-07)
(1.91912e-06 1.17538e-06 1.94505e-08)
(1.74843e-06 1.07169e-06 -1.76717e-07)
(1.68209e-06 1.03207e-06 -5.616e-07)
(2.51393e-06 1.82216e-06 7.04852e-07)
(2.09615e-06 1.52105e-06 2.32356e-07)
(1.81901e-06 1.32095e-06 1.96149e-08)
(1.65718e-06 1.20425e-06 -1.76421e-07)
(1.59428e-06 1.15955e-06 -5.60905e-07)
(2.36064e-06 2.01254e-06 7.04807e-07)
(1.96819e-06 1.67962e-06 2.32489e-07)
(1.70804e-06 1.45838e-06 1.97776e-08)
(1.5562e-06 1.32928e-06 -1.76182e-07)
(1.49729e-06 1.27963e-06 -5.60361e-07)
(2.19262e-06 2.19262e-06 7.04868e-07)
(1.82885e-06 1.82885e-06 2.32574e-07)
(1.58749e-06 1.58749e-06 1.98526e-08)
(1.44664e-06 1.44664e-06 -1.76086e-07)
(1.3922e-06 1.3922e-06 -5.60151e-07)
(2.01254e-06 2.36064e-06 7.04807e-07)
(1.67962e-06 1.96819e-06 2.32489e-07)
(1.45838e-06 1.70804e-06 1.97776e-08)
(1.32928e-06 1.5562e-06 -1.76182e-07)
(1.27963e-06 1.49729e-06 -5.60361e-07)
(1.82216e-06 2.51393e-06 7.04852e-07)
(1.52105e-06 2.09615e-06 2.32356e-07)
(1.32095e-06 1.81901e-06 1.96149e-08)
(1.20425e-06 1.65718e-06 -1.76421e-07)
(1.15955e-06 1.59428e-06 -5.60905e-07)
(1.621e-06 2.65175e-06 7.05148e-07)
(1.35325e-06 2.21138e-06 2.32299e-07)
(1.17538e-06 1.91912e-06 1.94504e-08)
(1.07169e-06 1.74843e-06 -1.76717e-07)
(1.03207e-06 1.68209e-06 -5.616e-07)
(1.40978e-06 2.77302e-06 7.05539e-07)
(1.1769e-06 2.31286e-06 2.32302e-07)
(1.02225e-06 2.00738e-06 1.93147e-08)
(9.32137e-07 1.82895e-06 -1.77005e-07)
(8.97726e-07 1.75969e-06 -5.62286e-07)
(1.18958e-06 2.87684e-06 7.05911e-07)
(9.92944e-07 2.39973e-06 2.32335e-07)
(8.62424e-07 2.08296e-06 1.92153e-08)
(7.86386e-07 1.89796e-06 -1.77242e-07)
(7.57325e-07 1.82623e-06 -5.62859e-07)
(9.61644e-07 2.96244e-06 7.06199e-07)
(8.02464e-07 2.47133e-06 2.32379e-07)
(6.96892e-07 2.14524e-06 1.91548e-08)
(6.35398e-07 1.95483e-06 -1.7741e-07)
(6.11844e-07 1.88108e-06 -5.63265e-07)
(7.27326e-07 3.02927e-06 7.06407e-07)
(6.06655e-07 2.52715e-06 2.32442e-07)
(5.26764e-07 2.19377e-06 1.9141e-08)
(4.80248e-07 1.99912e-06 -1.77501e-07)
(4.62374e-07 1.92381e-06 -5.63497e-07)
(4.87937e-07 3.07703e-06 7.0665e-07)
(4.06753e-07 2.56693e-06 2.32588e-07)
(3.53238e-07 2.22832e-06 1.9197e-08)
(3.22085e-07 2.03065e-06 -1.77505e-07)
(3.10076e-07 1.95422e-06 -5.6357e-07)
(2.43293e-07 3.10615e-06 7.07305e-07)
(2.04064e-07 2.5912e-06 2.32895e-07)
(1.77534e-07 2.24929e-06 1.93846e-08)
(1.62014e-07 2.04961e-06 -1.77342e-07)
(1.56204e-07 1.97226e-06 -5.63526e-07)
(0 3.13278e-06 7.26657e-07)
(0 2.61171e-06 2.40831e-07)
(0 2.26461e-06 2.43909e-08)
(0 2.06044e-06 -1.69946e-07)
(0 1.97898e-06 -5.45948e-07)
(3.53008e-06 0 2.02327e-07)
(3.20922e-06 0 1.80805e-07)
(2.94682e-06 0 1.07038e-07)
(2.76097e-06 0 2.02132e-08)
(2.62841e-06 0 -6.64891e-08)
(3.50992e-06 2.75584e-07 2.03066e-07)
(3.19028e-06 2.51926e-07 1.78757e-07)
(2.93072e-06 2.31968e-07 1.04309e-07)
(2.7476e-06 2.18009e-07 1.70147e-08)
(2.61632e-06 2.08367e-07 -6.94244e-08)
(3.47735e-06 5.51398e-07 2.03173e-07)
(3.1604e-06 5.01061e-07 1.78531e-07)
(2.90335e-06 4.60603e-07 1.03989e-07)
(2.7221e-06 4.32184e-07 1.66796e-08)
(2.59199e-06 4.11792e-07 -6.9674e-08)
(3.42337e-06 8.21694e-07 2.03135e-07)
(3.11138e-06 7.46927e-07 1.7847e-07)
(2.85825e-06 6.86454e-07 1.03912e-07)
(2.67975e-06 6.43939e-07 1.66147e-08)
(2.55155e-06 6.13497e-07 -6.97043e-08)
(3.34769e-06 1.08628e-06 2.03111e-07)
(3.04249e-06 9.87811e-07 1.78451e-07)
(2.79489e-06 9.07929e-07 1.03906e-07)
(2.62024e-06 8.51728e-07 1.66354e-08)
(2.49475e-06 8.11576e-07 -6.96396e-08)
(3.25057e-06 1.34358e-06 2.0309e-07)
(2.95403e-06 1.22211e-06 1.78448e-07)
(2.7135e-06 1.12341e-06 1.03928e-07)
(2.54381e-06 1.05395e-06 1.66989e-08)
(2.4218e-06 1.00439e-06 -6.95059e-08)
(3.13268e-06 1.59207e-06 2.03078e-07)
(2.84663e-06 1.44832e-06 1.78459e-07)
(2.61469e-06 1.33142e-06 1.0397e-07)
(2.45104e-06 1.24912e-06 1.67934e-08)
(2.3333e-06 1.19044e-06 -6.93151e-08)
(2.99495e-06 1.83034e-06 2.03106e-07)
(2.7212e-06 1.66508e-06 1.78494e-07)
(2.49934e-06 1.53063e-06 1.04028e-07)
(2.34282e-06 1.43594e-06 1.69075e-08)
(2.23013e-06 1.36841e-06 -6.90909e-08)
(2.8385e-06 2.05722e-06 2.03209e-07)
(2.57888e-06 1.87128e-06 1.78562e-07)
(2.3686e-06 1.72e-06 1.04098e-07)
(2.22027e-06 1.61338e-06 1.70213e-08)
(2.11348e-06 1.53725e-06 -6.88748e-08)
(2.6647e-06 2.27202e-06 2.03392e-07)
(2.42107e-06 2.06617e-06 1.78643e-07)
(2.22387e-06 1.8988e-06 1.04159e-07)
(2.08482e-06 1.78078e-06 1.71071e-08)
(1.98476e-06 1.69629e-06 -6.87174e-08)
(2.475e-06 2.475e-06 2.035e-07)
(2.24961e-06 2.24961e-06 1.78681e-07)
(2.06685e-06 2.06685e-06 1.04184e-07)
(1.93798e-06 1.93798e-06 1.71392e-08)
(1.84544e-06 1.84544e-06 -6.86599e-08)
(2.27202e-06 2.6647e-06 2.03392e-07)
(2.06617e-06 2.42107e-06 1.78643e-07)
(1.8988e-06 2.22387e-06 1.04159e-07)
(1.78078e-06 2.08482e-06 1.71071e-08)
(1.69629e-06 1.98476e-06 -6.87174e-08)
(2.05722e-06 2.8385e-06 2.03209e-07)
(1.87128e-06 2.57888e-06 1.78562e-07)
(1.72e-06 2.3686e-06 1.04098e-07)
(1.61338e-06 2.22027e-06 1.70213e-08)
(1.53725e-06 2.11348e-06 -6.88748e-08)
(1.83034e-06 2.99495e-06 2.03106e-07)
(1.66508e-06 2.7212e-06 1.78494e-07)
(1.53063e-06 2.49934e-06 1.04028e-07)
(1.43594e-06 2.34282e-06 1.69075e-08)
(1.36841e-06 2.23013e-06 -6.90909e-08)
(1.59207e-06 3.13268e-06 2.03078e-07)
(1.44832e-06 2.84663e-06 1.78459e-07)
(1.33142e-06 2.61469e-06 1.0397e-07)
(1.24912e-06 2.45104e-06 1.67934e-08)
(1.19044e-06 2.3333e-06 -6.93151e-08)
(1.34358e-06 3.25057e-06 2.0309e-07)
(1.22211e-06 2.95403e-06 1.78448e-07)
(1.12341e-06 2.7135e-06 1.03928e-07)
(1.05395e-06 2.54381e-06 1.66989e-08)
(1.00439e-06 2.4218e-06 -6.9506e-08)
(1.08628e-06 3.34769e-06 2.03111e-07)
(9.87811e-07 3.04249e-06 1.78451e-07)
(9.07929e-07 2.79489e-06 1.03906e-07)
(8.51728e-07 2.62024e-06 1.66354e-08)
(8.11576e-07 2.49475e-06 -6.96396e-08)
(8.21694e-07 3.42337e-06 2.03135e-07)
(7.46927e-07 3.11138e-06 1.7847e-07)
(6.86454e-07 2.85825e-06 1.03912e-07)
(6.43939e-07 2.67975e-06 1.66147e-08)
(6.13497e-07 2.55155e-06 -6.97043e-08)
(5.51398e-07 3.47735e-06 2.03173e-07)
(5.01061e-07 3.1604e-06 1.78531e-07)
(4.60603e-07 2.90335e-06 1.03989e-07)
(4.32184e-07 2.7221e-06 1.66796e-08)
(4.11792e-07 2.59199e-06 -6.9674e-08)
(2.75584e-07 3.50992e-06 2.03066e-07)
(2.51926e-07 3.19028e-06 1.78757e-07)
(2.31968e-07 2.93072e-06 1.04309e-07)
(2.18009e-07 2.7476e-06 1.70147e-08)
(2.08367e-07 2.61632e-06 -6.94245e-08)
(0 3.53008e-06 2.02327e-07)
(0 3.20922e-06 1.80805e-07)
(0 2.94682e-06 1.07038e-07)
(0 2.76097e-06 2.02132e-08)
(0 2.62841e-06 -6.64892e-08)
(3.00702e-06 0 -1.5941e-07)
(2.78958e-06 0 2.10629e-08)
(2.61713e-06 0 1.09525e-07)
(2.48603e-06 0 1.79168e-07)
(2.38906e-06 0 2.94352e-07)
(2.99122e-06 2.34631e-07 -1.52454e-07)
(2.77522e-06 2.18766e-07 2.44333e-08)
(2.6043e-06 2.05822e-07 1.11472e-07)
(2.47463e-06 1.95993e-07 1.8163e-07)
(2.37883e-06 1.89071e-07 2.99483e-07)
(2.96358e-06 4.69582e-07 -1.52056e-07)
(2.74945e-06 4.35656e-07 2.46222e-08)
(2.58006e-06 4.09132e-07 1.11516e-07)
(2.45158e-06 3.8908e-07 1.81641e-07)
(2.35667e-06 3.74263e-07 2.99424e-07)
(2.91768e-06 7.00032e-07 -1.51889e-07)
(2.70689e-06 6.49631e-07 2.47068e-08)
(2.54003e-06 6.09914e-07 1.11513e-07)
(2.41345e-06 5.79883e-07 1.81588e-07)
(2.3199e-06 5.57752e-07 2.99331e-07)
(2.85325e-06 9.25543e-07 -1.51724e-07)
(2.64701e-06 8.59225e-07 2.47602e-08)
(2.48375e-06 8.06767e-07 1.11495e-07)
(2.35987e-06 7.67076e-07 1.81514e-07)
(2.26826e-06 7.3792e-07 2.99189e-07)
(2.77052e-06 1.14483e-06 -1.51489e-07)
(2.57006e-06 1.06306e-06 2.48211e-08)
(2.41142e-06 9.98271e-07 1.11464e-07)
(2.29102e-06 9.49232e-07 1.81412e-07)
(2.20191e-06 9.13287e-07 2.98986e-07)
(2.67005e-06 1.3566e-06 -1.51173e-07)
(2.4766e-06 1.25985e-06 2.48993e-08)
(2.32358e-06 1.18311e-06 1.11423e-07)
(2.20743e-06 1.12501e-06 1.81282e-07)
(2.12139e-06 1.08247e-06 2.98725e-07)
(2.55264e-06 1.5597e-06 -1.50785e-07)
(2.36743e-06 1.44843e-06 2.49936e-08)
(2.22102e-06 1.36013e-06 1.11377e-07)
(2.1099e-06 1.29326e-06 1.81135e-07)
(2.02754e-06 1.24428e-06 2.98424e-07)
(2.41926e-06 1.75318e-06 -1.50361e-07)
(2.24357e-06 1.62786e-06 2.50916e-08)
(2.10481e-06 1.52841e-06 1.11329e-07)
(1.99952e-06 1.45304e-06 1.80988e-07)
(1.92147e-06 1.39777e-06 2.98122e-07)
(2.27109e-06 1.93643e-06 -1.49984e-07)
(2.10628e-06 1.79749e-06 2.51656e-08)
(1.9762e-06 1.68733e-06 1.11286e-07)
(1.87755e-06 1.60379e-06 1.80871e-07)
(1.8045e-06 1.54233e-06 2.97885e-07)
(2.10946e-06 2.10946e-06 -1.4982e-07)
(1.95712e-06 1.95712e-06 2.5192e-08)
(1.83669e-06 1.83669e-06 1.11266e-07)
(1.74534e-06 1.74534e-06 1.80825e-07)
(1.6779e-06 1.6779e-06 2.97792e-07)
(1.93643e-06 2.27109e-06 -1.49984e-07)
(1.79749e-06 2.10628e-06 2.51656e-08)
(1.68733e-06 1.9762e-06 1.11286e-07)
(1.60379e-06 1.87755e-06 1.80871e-07)
(1.54233e-06 1.8045e-06 2.97885e-07)
(1.75318e-06 2.41926e-06 -1.50361e-07)
(1.62786e-06 2.24357e-06 2.50916e-08)
(1.52841e-06 2.10481e-06 1.11329e-07)
(1.45304e-06 1.99952e-06 1.80988e-07)
(1.39777e-06 1.92147e-06 2.98122e-07)
(1.5597e-06 2.55264e-06 -1.50785e-07)
(1.44843e-06 2.36743e-06 2.49936e-08)
(1.36013e-06 2.22102e-06 1.11377e-07)
(1.29326e-06 2.1099e-06 1.81135e-07)
(1.24428e-06 2.02754e-06 2.98424e-07)
(1.3566e-06 2.67005e-06 -1.51172e-07)
(1.25985e-06 2.4766e-06 2.48993e-08)
(1.18311e-06 2.32358e-06 1.11423e-07)
(1.12501e-06 2.20743e-06 1.81282e-07)
(1.08247e-06 2.12139e-06 2.98725e-07)
(1.14483e-06 2.77052e-06 -1.51489e-07)
(1.06306e-06 2.57006e-06 2.48211e-08)
(9.98271e-07 2.41142e-06 1.11464e-07)
(9.49232e-07 2.29102e-06 1.81412e-07)
(9.13287e-07 2.20191e-06 2.98986e-07)
(9.25543e-07 2.85325e-06 -1.51724e-07)
(8.59225e-07 2.64701e-06 2.47602e-08)
(8.06767e-07 2.48375e-06 1.11495e-07)
(7.67076e-07 2.35987e-06 1.81514e-07)
(7.3792e-07 2.26826e-06 2.99189e-07)
(7.00032e-07 2.91768e-06 -1.51889e-07)
(6.49631e-07 2.70689e-06 2.47068e-08)
(6.09914e-07 2.54003e-06 1.11513e-07)
(5.79883e-07 2.41345e-06 1.81588e-07)
(5.57752e-07 2.3199e-06 2.99331e-07)
(4.69582e-07 2.96359e-06 -1.52056e-07)
(4.35656e-07 2.74945e-06 2.46222e-08)
(4.09132e-07 2.58006e-06 1.11516e-07)
(3.8908e-07 2.45158e-06 1.81641e-07)
(3.74263e-07 2.35667e-06 2.99424e-07)
(2.34631e-07 2.99122e-06 -1.52454e-07)
(2.18766e-07 2.77522e-06 2.44333e-08)
(2.05822e-07 2.6043e-06 1.11472e-07)
(1.95993e-07 2.47463e-06 1.8163e-07)
(1.89071e-07 2.37883e-06 2.99483e-07)
(0 3.00702e-06 -1.5941e-07)
(0 2.78958e-06 2.10629e-08)
(0 2.61713e-06 1.09525e-07)
(0 2.48603e-06 1.79168e-07)
(0 2.38906e-06 2.94352e-07)
(2.28129e-06 0 -2.91736e-07)
(2.11868e-06 0 -7.02283e-08)
(1.99792e-06 0 8.47259e-08)
(1.91059e-06 0 2.2608e-07)
(1.85494e-06 0 4.03411e-07)
(2.26913e-06 1.77644e-07 -2.8423e-07)
(2.10802e-06 1.65851e-07 -6.50735e-08)
(1.98848e-06 1.56812e-07 8.89746e-08)
(1.90226e-06 1.5029e-07 2.30914e-07)
(1.84785e-06 1.46374e-07 4.10417e-07)
(2.24811e-06 3.55971e-07 -2.83829e-07)
(2.08845e-06 3.30683e-07 -6.47762e-08)
(1.96999e-06 3.12151e-07 8.91906e-08)
(1.88455e-06 2.98851e-07 2.31079e-07)
(1.83072e-06 2.9047e-07 4.10485e-07)
(2.21335e-06 5.30905e-07 -2.83593e-07)
(2.0562e-06 4.93318e-07 -6.46114e-08)
(1.9395e-06 4.6557e-07 8.92662e-08)
(1.85532e-06 4.45643e-07 2.31078e-07)
(1.80224e-06 4.33128e-07 4.10416e-07)
(2.16461e-06 7.02089e-07 -2.83351e-07)
(2.01085e-06 6.52626e-07 -6.45034e-08)
(1.89665e-06 6.15984e-07 8.92691e-08)
(1.81424e-06 5.89655e-07 2.30986e-07)
(1.76222e-06 5.73203e-07 4.10216e-07)
(2.10203e-06 8.68562e-07 -2.83031e-07)
(1.95257e-06 8.07573e-07 -6.44007e-08)
(1.84156e-06 7.62319e-07 8.92277e-08)
(1.76144e-06 7.298e-07 2.30816e-07)
(1.7108e-06 7.09557e-07 4.09885e-07)
(2.02604e-06 1.02938e-06 -2.8262e-07)
(1.88176e-06 9.57189e-07 -6.4287e-08)
(1.77464e-06 9.03582e-07 8.91568e-08)
(1.6973e-06 8.65055e-07 2.30585e-07)
(1.64836e-06 8.41119e-07 4.0944e-07)
(1.93718e-06 1.18366e-06 -2.82144e-07)
(1.799e-06 1.10061e-06 -6.41663e-08)
(1.69647e-06 1.03889e-06 8.90678e-08)
(1.62245e-06 9.94524e-07 2.30318e-07)
(1.57557e-06 9.66952e-07 4.08927e-07)
(1.83619e-06 1.3307e-06 -2.81662e-07)
(1.70507e-06 1.23711e-06 -6.40558e-08)
(1.60785e-06 1.16755e-06 8.89735e-08)
(1.5377e-06 1.11749e-06 2.30055e-07)
(1.49327e-06 1.08632e-06 4.08423e-07)
(1.72393e-06 1.46998e-06 -2.8127e-07)
(1.60089e-06 1.36618e-06 -6.39807e-08)
(1.50974e-06 1.28905e-06 8.88938e-08)
(1.44402e-06 1.2335e-06 2.29853e-07)
(1.40248e-06 1.19874e-06 4.0804e-07)
(1.60138e-06 1.60138e-06 -2.81111e-07)
(1.48758e-06 1.48758e-06 -6.39554e-08)
(1.40321e-06 1.40321e-06 8.88609e-08)
(1.3424e-06 1.3424e-06 2.29776e-07)
(1.30414e-06 1.30414e-06 4.07894e-07)
(1.46998e-06 1.72394e-06 -2.8127e-07)
(1.36618e-06 1.60089e-06 -6.39807e-08)
(1.28905e-06 1.50974e-06 8.88938e-08)
(1.2335e-06 1.44402e-06 2.29853e-07)
(1.19874e-06 1.40248e-06 4.0804e-07)
(1.3307e-06 1.83619e-06 -2.81662e-07)
(1.23711e-06 1.70507e-06 -6.40558e-08)
(1.16755e-06 1.60785e-06 8.89735e-08)
(1.11749e-06 1.5377e-06 2.30055e-07)
(1.08632e-06 1.49327e-06 4.08423e-07)
(1.18366e-06 1.93718e-06 -2.82144e-07)
(1.10061e-06 1.799e-06 -6.41663e-08)
(1.03889e-06 1.69647e-06 8.90678e-08)
(9.94524e-07 1.62245e-06 2.30318e-07)
(9.66953e-07 1.57557e-06 4.08927e-07)
(1.02938e-06 2.02604e-06 -2.8262e-07)
(9.57189e-07 1.88176e-06 -6.4287e-08)
(9.03582e-07 1.77464e-06 8.91568e-08)
(8.65055e-07 1.6973e-06 2.30585e-07)
(8.41119e-07 1.64836e-06 4.0944e-07)
(8.68562e-07 2.10204e-06 -2.83031e-07)
(8.07573e-07 1.95257e-06 -6.44007e-08)
(7.62319e-07 1.84156e-06 8.92277e-08)
(7.298e-07 1.76144e-06 2.30816e-07)
(7.09557e-07 1.7108e-06 4.09885e-07)
(7.02089e-07 2.16461e-06 -2.83351e-07)
(6.52626e-07 2.01085e-06 -6.45034e-08)
(6.15984e-07 1.89665e-06 8.92691e-08)
(5.89655e-07 1.81424e-06 2.30986e-07)
(5.73203e-07 1.76222e-06 4.10216e-07)
(5.30905e-07 2.21335e-06 -2.83593e-07)
(4.93318e-07 2.0562e-06 -6.46114e-08)
(4.6557e-07 1.9395e-06 8.92662e-08)
(4.45643e-07 1.85532e-06 2.31078e-07)
(4.33128e-07 1.80224e-06 4.10416e-07)
(3.55971e-07 2.24811e-06 -2.83829e-07)
(3.30683e-07 2.08845e-06 -6.47762e-08)
(3.12151e-07 1.96999e-06 8.91906e-08)
(2.98851e-07 1.88455e-06 2.31079e-07)
(2.9047e-07 1.83072e-06 4.10485e-07)
(1.77644e-07 2.26913e-06 -2.8423e-07)
(1.65851e-07 2.10802e-06 -6.50735e-08)
(1.56812e-07 1.98848e-06 8.89746e-08)
(1.5029e-07 1.90226e-06 2.30914e-07)
(1.46374e-07 1.84785e-06 4.10417e-07)
(0 2.28129e-06 -2.91736e-07)
(0 2.11868e-06 -7.02283e-08)
(0 1.99792e-06 8.47259e-08)
(0 1.91059e-06 2.2608e-07)
(0 1.85494e-06 4.03411e-07)
(1.65405e-06 0 -2.79568e-07)
(1.52687e-06 0 -9.0255e-08)
(1.43734e-06 0 6.12106e-08)
(1.37826e-06 0 2.03738e-07)
(1.34882e-06 0 3.64636e-07)
(1.64481e-06 1.2851e-07 -2.73583e-07)
(1.51898e-06 1.19325e-07 -8.54871e-08)
(1.43056e-06 1.1263e-07 6.5548e-08)
(1.37248e-06 1.08223e-07 2.08463e-07)
(1.34419e-06 1.06163e-07 3.70592e-07)
(1.62951e-06 2.579e-07 -2.73293e-07)
(1.50485e-06 2.38149e-07 -8.52655e-08)
(1.41726e-06 2.2443e-07 6.57219e-08)
(1.35974e-06 2.15467e-07 2.0859e-07)
(1.3318e-06 2.11109e-07 3.70652e-07)
(1.60436e-06 3.84816e-07 -2.73083e-07)
(1.48167e-06 3.55419e-07 -8.51091e-08)
(1.3954e-06 3.34875e-07 6.58071e-08)
(1.33873e-06 3.21448e-07 2.08607e-07)
(1.31117e-06 3.14951e-07 3.70613e-07)
(1.56916e-06 5.09034e-07 -2.72864e-07)
(1.44913e-06 4.70317e-07 -8.49951e-08)
(1.36471e-06 4.43185e-07 6.58267e-08)
(1.30923e-06 4.2545e-07 2.08537e-07)
(1.2822e-06 4.16933e-07 3.70453e-07)
(1.524e-06 6.29866e-07 -2.72584e-07)
(1.40733e-06 5.82103e-07 -8.48907e-08)
(1.32526e-06 5.48591e-07 6.57984e-08)
(1.27131e-06 5.26691e-07 2.08387e-07)
(1.24496e-06 5.16241e-07 3.70161e-07)
(1.46916e-06 7.46632e-07 -2.72237e-07)
(1.35654e-06 6.90086e-07 -8.47831e-08)
(1.27732e-06 6.50382e-07 6.57361e-08)
(1.22522e-06 6.24437e-07 2.0817e-07)
(1.19972e-06 6.12098e-07 3.69755e-07)
(1.40501e-06 8.58703e-07 -2.71843e-07)
(1.29714e-06 7.93639e-07 -8.4675e-08)
(1.22128e-06 7.47923e-07 6.56528e-08)
(1.17139e-06 7.18036e-07 2.07915e-07)
(1.14694e-06 7.03819e-07 3.69283e-07)
(1.33204e-06 9.65539e-07 -2.71455e-07)
(1.22965e-06 8.9223e-07 -8.45797e-08)
(1.1577e-06 8.40691e-07 6.55638e-08)
(1.11039e-06 8.06959e-07 2.07665e-07)
(1.08721e-06 7.90853e-07 3.68822e-07)
(1.25085e-06 1.06673e-06 -2.71147e-07)
(1.15471e-06 9.85454e-07 -8.45156e-08)
(1.08721e-06 9.28304e-07 6.54907e-08)
(1.04288e-06 8.90849e-07 2.07475e-07)
(1.02123e-06 8.72837e-07 3.68474e-07)
(1.16208e-06 1.16208e-06 -2.71025e-07)
(1.07307e-06 1.07307e-06 -8.44937e-08)
(1.01056e-06 1.01056e-06 6.54612e-08)
(9.69545e-07 9.69545e-07 2.07404e-07)
(9.49651e-07 9.49651e-07 3.68343e-07)
(1.06673e-06 1.25085e-06 -2.71147e-07)
(9.85454e-07 1.15471e-06 -8.45156e-08)
(9.28304e-07 1.08721e-06 6.54907e-08)
(8.90849e-07 1.04288e-06 2.07475e-07)
(8.72837e-07 1.02123e-06 3.68474e-07)
(9.65539e-07 1.33204e-06 -2.71455e-07)
(8.9223e-07 1.22965e-06 -8.45797e-08)
(8.40691e-07 1.1577e-06 6.55638e-08)
(8.06959e-07 1.11039e-06 2.07665e-07)
(7.90853e-07 1.08721e-06 3.68822e-07)
(8.58703e-07 1.40501e-06 -2.71843e-07)
(7.93639e-07 1.29714e-06 -8.4675e-08)
(7.47923e-07 1.22128e-06 6.56528e-08)
(7.18036e-07 1.17139e-06 2.07915e-07)
(7.03819e-07 1.14694e-06 3.69283e-07)
(7.46632e-07 1.46916e-06 -2.72237e-07)
(6.90086e-07 1.35654e-06 -8.47831e-08)
(6.50382e-07 1.27732e-06 6.57361e-08)
(6.24437e-07 1.22522e-06 2.0817e-07)
(6.12098e-07 1.19972e-06 3.69755e-07)
(6.29866e-07 1.524e-06 -2.72584e-07)
(5.82103e-07 1.40733e-06 -8.48907e-08)
(5.48591e-07 1.32526e-06 6.57984e-08)
(5.26691e-07 1.27131e-06 2.08387e-07)
(5.16241e-07 1.24496e-06 3.70161e-07)
(5.09034e-07 1.56916e-06 -2.72864e-07)
(4.70317e-07 1.44913e-06 -8.49951e-08)
(4.43185e-07 1.36471e-06 6.58267e-08)
(4.2545e-07 1.30923e-06 2.08537e-07)
(4.16933e-07 1.2822e-06 3.70453e-07)
(3.84816e-07 1.60436e-06 -2.73083e-07)
(3.55419e-07 1.48167e-06 -8.51091e-08)
(3.34875e-07 1.3954e-06 6.58071e-08)
(3.21448e-07 1.33873e-06 2.08607e-07)
(3.14951e-07 1.31117e-06 3.70613e-07)
(2.579e-07 1.62951e-06 -2.73293e-07)
(2.38149e-07 1.50485e-06 -8.52656e-08)
(2.2443e-07 1.41726e-06 6.57219e-08)
(2.15467e-07 1.35974e-06 2.0859e-07)
(2.11109e-07 1.3318e-06 3.70652e-07)
(1.2851e-07 1.64481e-06 -2.73583e-07)
(1.19325e-07 1.51898e-06 -8.54871e-08)
(1.1263e-07 1.43056e-06 6.5548e-08)
(1.08223e-07 1.37248e-06 2.08463e-07)
(1.06163e-07 1.34419e-06 3.70592e-07)
(0 1.65405e-06 -2.79568e-07)
(0 1.52687e-06 -9.0255e-08)
(0 1.43734e-06 6.12106e-08)
(0 1.37826e-06 2.03738e-07)
(0 1.34882e-06 3.64636e-07)
(1.19659e-06 0 -2.1534e-07)
(1.09673e-06 0 -7.54734e-08)
(1.02834e-06 0 4.47559e-08)
(9.86352e-07 0 1.58982e-07)
(9.69719e-07 0 2.79986e-07)
(1.1896e-06 9.28268e-08 -2.11124e-07)
(1.09085e-06 8.56295e-08 -7.18205e-08)
(1.02341e-06 8.05141e-08 4.82322e-08)
(9.82312e-07 7.73789e-08 1.62662e-07)
(9.66627e-07 7.62074e-08 2.84249e-07)
(1.17849e-06 1.86502e-07 -2.1096e-07)
(1.08068e-06 1.70992e-07 -7.17127e-08)
(1.0139e-06 1.60511e-07 4.83065e-08)
(9.73225e-07 1.5415e-07 1.62702e-07)
(9.57761e-07 1.51718e-07 2.84255e-07)
(1.16034e-06 2.78376e-07 -2.10819e-07)
(1.06408e-06 2.55259e-07 -7.1607e-08)
(9.98317e-07 2.39556e-07 4.83621e-08)
(9.58248e-07 2.30029e-07 1.6271e-07)
(9.42996e-07 2.26407e-07 2.84232e-07)
(1.13498e-06 3.68321e-07 -2.10666e-07)
(1.04082e-06 3.37851e-07 -7.15198e-08)
(9.76473e-07 3.17106e-07 4.83831e-08)
(9.37246e-07 3.0452e-07 1.62668e-07)
(9.22279e-07 2.99782e-07 2.84133e-07)
(1.10247e-06 4.55845e-07 -2.10475e-07)
(1.01096e-06 4.1824e-07 -7.14394e-08)
(9.48404e-07 3.92611e-07 4.83697e-08)
(9.1025e-07 3.77071e-07 1.62567e-07)
(8.95648e-07 3.71272e-07 2.8394e-07)
(1.06299e-06 5.40456e-07 -2.10241e-07)
(9.74659e-07 4.9593e-07 -7.13595e-08)
(9.1428e-07 4.65565e-07 4.83286e-08)
(8.77433e-07 4.47157e-07 1.62414e-07)
(8.63286e-07 4.40322e-07 2.8366e-07)
(1.01679e-06 6.21691e-07 -2.09978e-07)
(9.32193e-07 5.70466e-07 -7.12815e-08)
(8.7437e-07 5.35509e-07 4.82696e-08)
(8.39076e-07 5.14308e-07 1.62229e-07)
(8.25492e-07 5.06437e-07 2.83328e-07)
(9.64212e-07 6.99141e-07 -2.09721e-07)
(8.83898e-07 6.4145e-07 -7.12137e-08)
(8.2903e-07 6.02053e-07 4.82058e-08)
(7.95551e-07 5.78132e-07 1.62047e-07)
(7.82662e-07 5.6921e-07 2.83002e-07)
(9.05647e-07 7.72472e-07 -2.09516e-07)
(8.30192e-07 7.0856e-07 -7.11673e-08)
(7.78693e-07 6.64896e-07 4.81539e-08)
(7.47299e-07 6.38343e-07 1.61909e-07)
(7.3526e-07 6.28353e-07 2.82757e-07)
(8.41498e-07 8.41498e-07 -2.09434e-07)
(7.71578e-07 7.71578e-07 -7.11511e-08)
(7.23847e-07 7.23847e-07 4.81334e-08)
(6.94784e-07 6.94784e-07 1.61858e-07)
(6.83733e-07 6.83733e-07 2.82665e-07)
(7.72472e-07 9.05647e-07 -2.09516e-07)
(7.0856e-07 8.30192e-07 -7.11673e-08)
(6.64896e-07 7.78693e-07 4.81539e-08)
(6.38343e-07 7.47299e-07 1.61909e-07)
(6.28353e-07 7.3526e-07 2.82757e-07)
(6.99141e-07 9.64212e-07 -2.09721e-07)
(6.4145e-07 8.83898e-07 -7.12137e-08)
(6.02053e-07 8.2903e-07 4.82058e-08)
(5.78132e-07 7.95551e-07 1.62047e-07)
(5.6921e-07 7.82662e-07 2.83002e-07)
(6.21691e-07 1.01679e-06 -2.09978e-07)
(5.70466e-07 9.32193e-07 -7.12815e-08)
(5.35509e-07 8.7437e-07 4.82696e-08)
(5.14308e-07 8.39076e-07 1.62229e-07)
(5.06437e-07 8.25492e-07 2.83328e-07)
(5.40456e-07 1.06299e-06 -2.10241e-07)
(4.9593e-07 9.74659e-07 -7.13595e-08)
(4.65565e-07 9.1428e-07 4.83286e-08)
(4.47157e-07 8.77433e-07 1.62414e-07)
(4.40322e-07 8.63287e-07 2.8366e-07)
(4.55845e-07 1.10247e-06 -2.10475e-07)
(4.1824e-07 1.01096e-06 -7.14394e-08)
(3.92612e-07 9.48404e-07 4.83697e-08)
(3.77071e-07 9.1025e-07 1.62567e-07)
(3.71272e-07 8.95649e-07 2.8394e-07)
(3.68321e-07 1.13498e-06 -2.10666e-07)
(3.37851e-07 1.04082e-06 -7.15198e-08)
(3.17106e-07 9.76473e-07 4.83831e-08)
(3.0452e-07 9.37246e-07 1.62668e-07)
(2.99782e-07 9.22279e-07 2.84133e-07)
(2.78376e-07 1.16034e-06 -2.10819e-07)
(2.55259e-07 1.06408e-06 -7.1607e-08)
(2.39557e-07 9.98317e-07 4.83621e-08)
(2.30029e-07 9.58249e-07 1.6271e-07)
(2.26407e-07 9.42996e-07 2.84232e-07)
(1.86502e-07 1.17849e-06 -2.1096e-07)
(1.70992e-07 1.08068e-06 -7.17127e-08)
(1.60511e-07 1.0139e-06 4.83065e-08)
(1.5415e-07 9.73225e-07 1.62702e-07)
(1.51719e-07 9.57761e-07 2.84255e-07)
(9.28268e-08 1.1896e-06 -2.11124e-07)
(8.56295e-08 1.09085e-06 -7.18205e-08)
(8.05141e-08 1.02341e-06 4.82322e-08)
(7.73789e-08 9.82312e-07 1.62662e-07)
(7.62074e-08 9.66627e-07 2.84249e-07)
(0 1.19659e-06 -2.15341e-07)
(0 1.09673e-06 -7.54734e-08)
(0 1.02834e-06 4.47559e-08)
(0 9.86352e-07 1.58982e-07)
(0 9.69719e-07 2.79986e-07)
(8.83884e-07 0 -1.50783e-07)
(8.06185e-07 0 -5.30862e-08)
(7.53294e-07 0 3.39552e-08)
(7.21875e-07 0 1.16764e-07)
(7.10617e-07 0 2.01224e-07)
(8.78584e-07 6.85371e-08 -1.47927e-07)
(8.0174e-07 6.29382e-08 -5.05044e-08)
(7.4963e-07 5.89791e-08 3.64616e-08)
(7.18935e-07 5.66268e-08 1.19368e-07)
(7.08408e-07 5.58232e-08 2.04094e-07)
(8.70366e-07 1.37772e-07 -1.47853e-07)
(7.94253e-07 1.25694e-07 -5.04786e-08)
(7.42664e-07 1.17579e-07 3.64624e-08)
(7.12299e-07 1.12812e-07 1.19347e-07)
(7.01929e-07 1.11165e-07 2.04061e-07)
(8.56977e-07 2.05672e-07 -1.47779e-07)
(7.82082e-07 1.87653e-07 -5.04245e-08)
(7.31282e-07 1.7549e-07 3.64849e-08)
(7.01372e-07 1.68348e-07 1.19342e-07)
(6.91147e-07 1.65892e-07 2.04043e-07)
(8.383e-07 2.72165e-07 -1.47694e-07)
(7.65047e-07 2.48399e-07 -5.03718e-08)
(7.15345e-07 2.32325e-07 3.64989e-08)
(6.86068e-07 2.22887e-07 1.1932e-07)
(6.76037e-07 2.19671e-07 2.03993e-07)
(8.14374e-07 3.36888e-07 -1.47585e-07)
(7.43188e-07 3.07549e-07 -5.03212e-08)
(6.94879e-07 2.87687e-07 3.64944e-08)
(6.66407e-07 2.76032e-07 1.19264e-07)
(6.56622e-07 2.72097e-07 2.03889e-07)
(7.85322e-07 3.99476e-07 -1.47451e-07)
(7.16623e-07 3.64736e-07 -5.02712e-08)
(6.69997e-07 3.41206e-07 3.6472e-08)
(6.42503e-07 3.27403e-07 1.19174e-07)
(6.33022e-07 3.22769e-07 2.03729e-07)
(7.51326e-07 4.59579e-07 -1.47299e-07)
(6.85532e-07 4.19621e-07 -5.02229e-08)
(6.40881e-07 3.92541e-07 3.6437e-08)
(6.14543e-07 3.76651e-07 1.19062e-07)
(6.05436e-07 3.71324e-07 2.03533e-07)
(7.12611e-07 5.16882e-07 -1.47148e-07)
(6.50146e-07 4.719e-07 -5.01804e-08)
(6.07769e-07 4.41397e-07 3.63984e-08)
(5.82778e-07 4.23481e-07 1.1895e-07)
(5.74131e-07 4.17454e-07 2.03338e-07)
(6.69456e-07 5.71116e-07 -1.47026e-07)
(6.10749e-07 5.21318e-07 -5.01505e-08)
(5.70956e-07 4.87532e-07 3.63671e-08)
(5.47507e-07 4.67664e-07 1.18865e-07)
(5.3942e-07 4.60928e-07 2.0319e-07)
(6.22121e-07 6.22121e-07 -1.46976e-07)
(5.67684e-07 5.67684e-07 -5.01398e-08)
(5.30779e-07 5.30779e-07 3.63547e-08)
(5.09053e-07 5.09053e-07 1.18833e-07)
(5.01616e-07 5.01616e-07 2.03135e-07)
(5.71116e-07 6.69456e-07 -1.47026e-07)
(5.21317e-07 6.10749e-07 -5.01505e-08)
(4.87532e-07 5.70956e-07 3.63671e-08)
(4.67664e-07 5.47507e-07 1.18865e-07)
(4.60928e-07 5.3942e-07 2.0319e-07)
(5.16882e-07 7.12611e-07 -1.47148e-07)
(4.719e-07 6.50146e-07 -5.01804e-08)
(4.41397e-07 6.07769e-07 3.63984e-08)
(4.23481e-07 5.82778e-07 1.1895e-07)
(4.17454e-07 5.74131e-07 2.03338e-07)
(4.59579e-07 7.51326e-07 -1.47299e-07)
(4.19621e-07 6.85532e-07 -5.02229e-08)
(3.92541e-07 6.40881e-07 3.6437e-08)
(3.76651e-07 6.14543e-07 1.19062e-07)
(3.71324e-07 6.05436e-07 2.03533e-07)
(3.99476e-07 7.85322e-07 -1.47451e-07)
(3.64736e-07 7.16623e-07 -5.02712e-08)
(3.41206e-07 6.69997e-07 3.6472e-08)
(3.27403e-07 6.42503e-07 1.19174e-07)
(3.22769e-07 6.33022e-07 2.03729e-07)
(3.36888e-07 8.14374e-07 -1.47585e-07)
(3.07549e-07 7.43188e-07 -5.03212e-08)
(2.87688e-07 6.94879e-07 3.64944e-08)
(2.76032e-07 6.66407e-07 1.19264e-07)
(2.72097e-07 6.56622e-07 2.03889e-07)
(2.72165e-07 8.383e-07 -1.47694e-07)
(2.48399e-07 7.65047e-07 -5.03718e-08)
(2.32325e-07 7.15345e-07 3.64989e-08)
(2.22887e-07 6.86068e-07 1.1932e-07)
(2.19671e-07 6.76037e-07 2.03993e-07)
(2.05672e-07 8.56977e-07 -1.47779e-07)
(1.87653e-07 7.82082e-07 -5.04245e-08)
(1.7549e-07 7.31282e-07 3.64849e-08)
(1.68348e-07 7.01372e-07 1.19342e-07)
(1.65892e-07 6.91147e-07 2.04043e-07)
(1.37772e-07 8.70366e-07 -1.47853e-07)
(1.25694e-07 7.94253e-07 -5.04786e-08)
(1.17579e-07 7.42664e-07 3.64624e-08)
(1.12812e-07 7.12299e-07 1.19347e-07)
(1.11165e-07 7.01929e-07 2.04061e-07)
(6.85371e-08 8.78584e-07 -1.47927e-07)
(6.29382e-08 8.0174e-07 -5.05044e-08)
(5.89791e-08 7.4963e-07 3.64616e-08)
(5.66269e-08 7.18935e-07 1.19368e-07)
(5.58232e-08 7.08408e-07 2.04094e-07)
(0 8.83884e-07 -1.50783e-07)
(0 8.06185e-07 -5.30862e-08)
(0 7.53294e-07 3.39552e-08)
(0 7.21875e-07 1.16764e-07)
(0 7.10617e-07 2.01224e-07)
(6.70142e-07 0 -1.03041e-07)
(6.10138e-07 0 -3.48076e-08)
(5.69081e-07 0 2.65547e-08)
(5.44726e-07 0 8.47953e-08)
(5.35785e-07 0 1.4325e-07)
(6.66093e-07 5.19801e-08 -1.01073e-07)
(6.06732e-07 4.76531e-08 -3.30122e-08)
(5.66284e-07 4.45763e-08 2.83043e-08)
(5.42495e-07 4.27487e-08 8.65968e-08)
(5.34102e-07 4.21047e-08 1.45197e-07)
(6.59859e-07 1.04489e-07 -1.0105e-07)
(6.01061e-07 9.5152e-08 -3.30264e-08)
(5.61021e-07 8.88448e-08 2.82719e-08)
(5.3749e-07 8.51401e-08 8.6552e-08)
(5.29219e-07 8.38194e-08 1.45151e-07)
(6.49714e-07 1.55986e-07 -1.01021e-07)
(5.91859e-07 1.4205e-07 -3.30071e-08)
(5.52432e-07 1.32592e-07 2.82728e-08)
(5.29256e-07 1.2704e-07 8.65389e-08)
(5.21104e-07 1.25067e-07 1.45134e-07)
(6.35574e-07 2.06425e-07 -1.00983e-07)
(5.7899e-07 1.88038e-07 -3.29818e-08)
(5.40419e-07 1.75535e-07 2.82789e-08)
(5.17737e-07 1.68195e-07 8.65275e-08)
(5.09746e-07 1.65605e-07 1.45114e-07)
(6.17468e-07 2.55533e-07 -1.0093e-07)
(5.62486e-07 2.3283e-07 -3.29549e-08)
(5.25001e-07 2.17378e-07 2.8278e-08)
(5.02948e-07 2.08312e-07 8.65008e-08)