/*--------------------------------*- C++ -*----------------------------------*\
| =========                 |                                                 |
| \\      /  F ield         | foam-extend: Open Source CFD                    |
|  \\    /   O peration     | Version:     3.1                                |
|   \\  /    A nd           | Web:         http://www.extend-project.de       |
|    \\/     M anipulation  |                                                 |
\*---------------------------------------------------------------------------*/
FoamFile
{
    version     2.0;
    format      ascii;
    class       volSymmTensorField;
    location    "0.0001";
    object      sigma;
}
// * * * * * * * * * * * * * * * * * * * * * * * * * * * * * * * * * * * * * //

dimensions      [1 -1 -2 0 0 0 0];

internalField   nonuniform List<symmTensor> 
6400
(
(-238.611 -13.824 416.974 63.9383 14.3564 175.584)
(-203.421 -9.63482 398.646 7.27547 14.7823 2.85674)
(-150.945 -6.18771 352.798 -13.7046 13.0942 -86.164)
(-135.425 -3.26424 284.122 -59.1516 9.6873 -233.833)
(-234.968 -35.2608 414.297 59.6615 48.9811 172.016)
(-200.315 -24.5082 395.53 4.23896 46.8433 1.26804)
(-148.801 -15.9031 349.727 -15.9872 41.4707 -87.738)
(-134.868 -8.73221 280.931 -61.6358 33.3794 -237.442)
(-227.994 -57.9388 409.186 51.5372 81.4245 171.508)
(-195.271 -40.1959 390.64 -0.965734 77.7236 1.13636)
(-145.46 -26.0865 345.4 -19.2767 68.7626 -87.7709)
(-132.946 -14.3861 277.477 -63.3478 55.2974 -237.394)
(-217.247 -79.0481 401.523 40.5941 113.175 171.371)
(-187.793 -54.9262 383.317 -8.537 108.081 1.07821)
(-140.573 -35.6692 338.912 -24.139 95.6184 -87.7569)
(-130.225 -19.682 272.253 -65.9734 76.8934 -237.317)
(-203.252 -98.1888 391.314 26.6099 144.144 171.302)
(-178.021 -68.2727 373.54 -18.2537 137.715 1.09099)
(-134.197 -44.3572 330.25 -30.432 121.852 -87.692)
(-126.668 -24.4837 265.277 -69.3985 98.0028 -237.17)
(-186.37 -114.893 378.62 9.89242 174.165 171.264)
(-166.221 -79.9077 361.372 -29.8819 166.437 1.15275)
(-126.497 -51.9246 319.467 -37.9844 147.278 -87.5796)
(-122.368 -28.6607 256.593 -73.5252 118.464 -236.951)
(-167.022 -128.758 363.525 -9.1478 203.068 171.261)
(-152.695 -89.5488 346.905 -43.1296 194.068 1.26053)
(-117.674 -58.1835 306.65 -46.6 171.726 -87.4258)
(-117.441 -32.1054 246.279 -78.2433 138.126 -236.674)
(-145.671 -139.456 346.13 -30.0187 230.698 171.33)
(-137.78 -96.9638 330.257 -57.6565 220.448 1.41964)
(-107.963 -62.9801 291.917 -56.0559 195.046 -87.2428)
(-112.035 -34.7305 234.44 -83.4361 156.859 -236.373)
(-122.815 -146.751 326.562 -52.174 256.926 171.522)
(-121.854 -101.978 311.578 -73.0836 245.447 1.63148)
(-97.6366 -66.2013 275.419 -66.1021 217.119 -87.0552)
(-106.323 -36.4753 221.21 -88.9753 174.56 -236.108)
(-98.7965 -150.567 304.996 -75.0016 281.708 171.908)
(-105.398 -104.503 291.082 -89.0394 268.999 1.83629)
(-87.0368 -67.8015 257.35 -76.4782 237.891 -86.9193)
(-100.502 -37.3292 206.75 -94.7014 191.188 -235.948)
(-75.0016 -150.567 281.708 -98.7965 304.996 171.908)
(-89.0394 -104.503 268.999 -105.398 291.082 1.83629)
(-76.4782 -67.8015 237.891 -87.0368 257.35 -86.9193)
(-94.7014 -37.3292 191.188 -100.502 206.75 -235.948)
(-52.174 -146.751 256.926 -122.815 326.562 171.522)
(-73.0836 -101.978 245.447 -121.854 311.578 1.63148)
(-66.1021 -66.2013 217.119 -97.6366 275.419 -87.0552)
(-88.9753 -36.4753 174.56 -106.323 221.21 -236.108)
(-30.0187 -139.456 230.698 -145.671 346.13 171.33)
(-57.6565 -96.9638 220.448 -137.78 330.257 1.41964)
(-56.0559 -62.9801 195.046 -107.963 291.917 -87.2428)
(-83.4361 -34.7305 156.859 -112.035 234.44 -236.373)
(-9.1478 -128.758 203.068 -167.022 363.525 171.261)
(-43.1296 -89.5488 194.068 -152.695 346.905 1.26053)
(-46.6 -58.1835 171.726 -117.674 306.65 -87.4258)
(-78.2433 -32.1054 138.126 -117.441 246.279 -236.674)
(9.89242 -114.893 174.165 -186.37 378.62 171.264)
(-29.8819 -79.9077 166.437 -166.221 361.372 1.15275)
(-37.9844 -51.9246 147.278 -126.497 319.467 -87.5796)
(-73.5252 -28.6608 118.464 -122.368 256.593 -236.951)
(26.61 -98.1888 144.144 -203.252 391.314 171.302)
(-18.2537 -68.2727 137.715 -178.021 373.54 1.09099)
(-30.432 -44.3572 121.852 -134.197 330.25 -87.692)
(-69.3985 -24.4837 98.0028 -126.668 265.277 -237.17)
(40.5941 -79.0481 113.175 -217.247 401.523 171.371)
(-8.537 -54.9262 108.081 -187.793 383.317 1.07821)
(-24.139 -35.6692 95.6184 -140.573 338.912 -87.7569)
(-65.9734 -19.682 76.8934 -130.225 272.253 -237.317)
(51.5372 -57.9388 81.4245 -227.994 409.186 171.508)
(-0.965732 -40.1959 77.7236 -195.271 390.64 1.13637)
(-19.2767 -26.0865 68.7626 -145.46 345.4 -87.7709)
(-63.3478 -14.3861 55.2974 -132.946 277.477 -237.394)
(59.6615 -35.2608 48.9811 -234.968 414.297 172.016)
(4.23896 -24.5082 46.8433 -200.315 395.53 1.26804)
(-15.9872 -15.9031 41.4707 -148.801 349.727 -87.738)
(-61.6358 -8.73221 33.3794 -134.868 280.931 -237.442)
(63.9383 -13.824 14.3564 -238.611 416.974 175.584)
(7.27547 -9.63482 14.7823 -203.421 398.646 2.85674)
(-13.7046 -6.18771 13.0942 -150.945 352.798 -86.164)
(-59.1516 -3.26424 9.6873 -135.425 284.122 -233.833)
(-650.508 -23.7215 -23.6597 -125.02 -2.87078 -368.895)
(-396.204 -17.9805 51.5584 0.671873 0.909635 -111.989)
(-196.194 -12.5379 62.3285 84.6463 1.3538 32.9789)
(-6.32577 -8.20318 16.3642 183.902 -1.17116 216.743)
(-640.429 -61.2359 -22.0791 -128.114 -2.58727 -363.595)
(-388.909 -46.1578 51.6689 -3.5703 6.16422 -110.103)
(-190.556 -32.527 61.6108 81.3044 7.37323 34.4097)
(-1.6488 -21.882 14.8833 181.851 1.90766 219.755)
(-628.245 -100.721 -21.7939 -142.173 -4.33785 -364.022)
(-379.314 -75.7082 51.0228 -13.2533 10.1823 -110.128)
(-183.671 -53.3957 60.8345 74.6463 12.1681 34.4306)
(3.04577 -36.0797 14.6948 177.562 3.03122 219.811)
(-609.428 -137.445 -21.39 -161.118 -6.08004 -363.999)
(-365.171 -103.49 50.0524 -27.4741 14.1174 -110.141)
(-173.661 -73.038 59.6759 64.7007 16.8725 34.4282)
(9.79435 -49.365 14.4027 170.921 4.15704 219.794)
(-584.933 -170.737 -20.8765 -185.332 -7.80292 -363.85)
(-346.705 -128.656 48.7359 -45.7803 17.9495 -110.09)
(-160.634 -90.8429 58.1156 51.7586 21.466 34.4257)
(18.5487 -61.4057 14.0017 162.166 5.26904 219.72)
(-555.358 -199.78 -20.2611 -214.246 -9.48505 -363.567)
(-324.414 -150.581 47.0788 -67.7065 21.6514 -109.982)
(-144.926 -106.34 56.1602 36.1849 25.9099 34.4247)
(29.0714 -71.8753 13.4942 151.546 6.34485 219.582)
(-521.454 -223.874 -19.5525 -247.147 -11.1099 -363.164)
(-298.879 -168.729 45.0976 -92.6891 25.197 -109.823)
(-126.954 -119.14 53.8313 18.3997 30.168 34.4263)
(41.079 -80.5033 12.8919 139.361 7.36378 219.389)
(-484.065 -242.452 -18.7584 -283.206 -12.664 -362.661)
(-270.757 -182.664 42.819 -120.079 28.5651 -109.618)
(-107.199 -128.931 51.1622 -1.116 34.2117 34.4345)
(54.245 -87.0738 12.2146 125.951 8.31053 219.16)
(-444.127 -255.113 -17.8792 -321.526 -14.1402 -362.106)
(-240.789 -192.062 40.2859 -149.156 31.7427 -109.38)
(-86.2143 -135.489 48.2 -21.8151 38.0257 34.4563)
(68.2039 -91.4413 11.4886 111.713 9.17875 218.931)
(-402.352 -261.719 -16.8333 -361.085 -15.5536 -361.421)
(-209.898 -196.776 37.5718 -179.187 34.732 -109.152)
(-64.661 -138.735 45.0038 -43.1108 41.6147 34.4893)
(82.58 -93.582 10.741 97.1328 9.97901 218.779)
(-361.085 -261.719 -15.5536 -402.352 -16.8333 -361.421)
(-179.187 -196.776 34.732 -209.898 37.5718 -109.152)
(-43.1108 -138.735 41.6147 -64.661 45.0038 34.4893)
(97.1328 -93.582 9.97902 82.58 10.741 218.779)
(-321.526 -255.113 -14.1402 -444.127 -17.8792 -362.106)
(-149.156 -192.062 31.7427 -240.789 40.2859 -109.38)
(-21.8151 -135.489 38.0257 -86.2142 48.2 34.4563)
(111.713 -91.4413 9.17875 68.2039 11.4886 218.931)
(-283.206 -242.452 -12.664 -484.065 -18.7584 -362.661)
(-120.079 -182.664 28.5651 -270.757 42.819 -109.618)
(-1.116 -128.931 34.2117 -107.199 51.1622 34.4345)
(125.951 -87.0738 8.31053 54.245 12.2146 219.16)
(-247.147 -223.874 -11.1099 -521.454 -19.5525 -363.164)
(-92.6891 -168.729 25.197 -298.879 45.0976 -109.823)
(18.3997 -119.14 30.168 -126.954 53.8313 34.4263)
(139.361 -80.5033 7.36378 41.079 12.8919 219.389)
(-214.246 -199.78 -9.48505 -555.358 -20.2611 -363.567)
(-67.7065 -150.581 21.6515 -324.414 47.0788 -109.982)
(36.1849 -106.34 25.9099 -144.926 56.1602 34.4247)
(151.546 -71.8753 6.34486 29.0714 13.4942 219.582)
(-185.332 -170.737 -7.80291 -584.933 -20.8765 -363.85)
(-45.7803 -128.656 17.9495 -346.705 48.7359 -110.09)
(51.7586 -90.8429 21.466 -160.634 58.1156 34.4257)
(162.166 -61.4057 5.26904 18.5487 14.0017 219.72)
(-161.118 -137.445 -6.08004 -609.428 -21.39 -363.999)
(-27.4741 -103.49 14.1174 -365.171 50.0525 -110.141)
(64.7007 -73.038 16.8725 -173.662 59.6759 34.4282)
(170.921 -49.365 4.15704 9.79435 14.4027 219.794)
(-142.173 -100.721 -4.33785 -628.245 -21.7939 -364.022)
(-13.2533 -75.7082 10.1823 -379.314 51.0228 -110.128)
(74.6463 -53.3957 12.1681 -183.671 60.8345 34.4306)
(177.562 -36.0797 3.03122 3.04577 14.6948 219.811)
(-128.114 -61.2359 -2.58727 -640.429 -22.0791 -363.595)
(-3.5703 -46.1578 6.16422 -388.909 51.669 -110.103)
(81.3044 -32.527 7.37323 -190.556 61.6108 34.4097)
(181.851 -21.882 1.90766 -1.6488 14.8833 219.755)
(-125.02 -23.7215 -2.87078 -650.508 -23.6597 -368.895)
(0.671874 -17.9805 0.909635 -396.204 51.5584 -111.989)
(84.6463 -12.5379 1.3538 -196.194 62.3285 32.9789)
(183.902 -8.20318 -1.17115 -6.32577 16.3642 216.743)
(-399.088 -17.1146 -50.6068 -11.489 -1.36978 -246.538)
(-276.948 -14.382 -65.5961 46.2016 -2.57481 -105.453)
(-147.394 -11.2714 -59.489 108.613 -2.47518 28.6313)
(-34.9426 -8.90414 -40.366 171.449 -1.54451 167.696)
(-393.292 -45.1184 -50.7682 -14.8741 -6.04739 -244.335)
(-271.697 -37.5552 -65.1843 42.3082 -7.80728 -103.741)
(-143.011 -29.6578 -58.9665 105.127 -7.08746 30.2269)
(-31.8291 -23.814 -39.6726 167.903 -4.81318 169.28)
(-384.448 -74.329 -50.1834 -25.4286 -10.0341 -244.722)
(-263.892 -61.6487 -64.3948 34.454 -12.8551 -103.636)
(-136.717 -48.7176 -58.2437 99.1145 -11.6339 30.4068)
(-26.7301 -39.2795 -39.184 163.296 -7.84612 169.485)
(-370.546 -101.475 -49.2465 -39.4825 -13.9105 -244.694)
(-252.364 -84.3308 -63.1917 22.8494 -17.8435 -103.626)
(-127.571 -66.6779 -57.1501 90.0512 -16.1401 30.4289)
(-19.3758 -53.752 -38.4447 156.093 -10.869 169.488)
(-352.41 -126.077 -48 -57.3844 -17.6965 -244.554)
(-237.275 -104.873 -61.5839 7.90589 -22.7237 -103.574)
(-115.66 -82.9567 -55.6925 78.2194 -20.555 30.4131)
(-9.83498 -66.866 -37.461 146.569 -13.8345 169.397)
(-330.488 -147.533 -46.4562 -78.7145 -21.371 -244.291)
(-219.047 -122.755 -59.589 -9.9856 -27.4602 -103.474)
(-101.296 -97.1138 -53.8836 63.9665 -24.8408 30.3832)
(1.63505 -78.2624 -36.2399 135.006 -16.7139 169.227)
(-305.34 -165.329 -44.6288 -102.948 -24.9111 -243.919)
(-198.165 -137.539 -57.2233 -30.3543 -32.0212 -103.328)
(-84.8698 -108.791 -51.7372 47.6894 -28.9675 30.347)
(14.7218 -87.6454 -34.79 121.736 -19.4864 168.996)
(-277.592 -179.05 -42.5316 -129.469 -28.3003 -243.46)
(-175.181 -148.87 -54.5034 -52.6587 -36.3803 -103.14)
(-66.831 -117.702 -49.2685 29.842 -32.9093 30.3148)
(29.0649 -94.7822 -33.1224 107.138 -22.134 168.731)
(-247.949 -188.402 -40.1722 -157.618 -31.5344 -242.947)
(-150.723 -156.489 -51.4449 -76.2973 -40.5165 -102.918)
(-47.6994 -123.652 -46.496 10.94 -36.6441 30.3012)
(44.2634 -99.5214 -31.2521 91.6427 -24.6405 168.477)
(-217.076 -193.263 -37.5319 -186.703 -34.6248 -242.383)
(-125.596 -160.291 -48.0701 -100.676 -44.4171 -102.714)
(-28.083 -126.587 -43.4481 -8.47127 -40.1586 30.3112)
(59.9171 -101.845 -29.2025 75.7693 -26.9965 168.311)
(-186.703 -193.263 -34.6248 -217.076 -37.5319 -242.383)
(-100.676 -160.291 -44.4171 -125.596 -48.0701 -102.714)
(-8.47128 -126.587 -40.1586 -28.083 -43.4481 30.3112)
(75.7693 -101.845 -26.9965 59.9171 -29.2025 168.311)
(-157.618 -188.402 -31.5344 -247.949 -40.1722 -242.947)
(-76.2973 -156.489 -40.5165 -150.723 -51.4449 -102.918)
(10.94 -123.652 -36.6441 -47.6994 -46.496 30.3012)
(91.6427 -99.5214 -24.6405 44.2634 -31.2521 168.477)
(-129.469 -179.05 -28.3003 -277.592 -42.5316 -243.46)
(-52.6587 -148.87 -36.3803 -175.181 -54.5034 -103.14)
(29.842 -117.702 -32.9092 -66.831 -49.2685 30.3148)
(107.138 -94.7822 -22.134 29.0649 -33.1224 168.731)
(-102.948 -165.329 -24.9111 -305.34 -44.6288 -243.919)
(-30.3543 -137.539 -32.0212 -198.165 -57.2233 -103.328)
(47.6894 -108.791 -28.9675 -84.8698 -51.7372 30.347)
(121.736 -87.6455 -19.4864 14.7218 -34.79 168.996)
(-78.7145 -147.533 -21.371 -330.488 -46.4562 -244.291)
(-9.98561 -122.755 -27.4602 -219.047 -59.589 -103.474)
(63.9665 -97.1138 -24.8408 -101.296 -53.8836 30.3832)
(135.006 -78.2624 -16.7139 1.63505 -36.2399 169.227)
(-57.3844 -126.077 -17.6965 -352.41 -48 -244.554)
(7.90589 -104.873 -22.7237 -237.275 -61.5839 -103.574)
(78.2194 -82.9567 -20.555 -115.66 -55.6925 30.4131)
(146.569 -66.866 -13.8345 -9.83498 -37.461 169.397)
(-39.4825 -101.475 -13.9105 -370.546 -49.2465 -244.694)
(22.8494 -84.3308 -17.8435 -252.364 -63.1917 -103.626)
(90.0512 -66.6779 -16.1401 -127.571 -57.1501 30.4289)
(156.093 -53.752 -10.869 -19.3758 -38.4447 169.488)
(-25.4286 -74.329 -10.0341 -384.448 -50.1834 -244.722)
(34.454 -61.6487 -12.8551 -263.892 -64.3948 -103.636)
(99.1145 -48.7176 -11.6339 -136.717 -58.2437 30.4068)
(163.296 -39.2795 -7.84612 -26.7301 -39.184 169.485)
(-14.8741 -45.1184 -6.04739 -393.292 -50.7682 -244.335)
(42.3082 -37.5552 -7.80728 -271.697 -65.1843 -103.741)
(105.127 -29.6578 -7.08746 -143.011 -58.9665 30.2269)
(167.903 -23.814 -4.81318 -31.8291 -39.6726 169.28)
(-11.489 -17.1146 -1.36978 -399.088 -50.6068 -246.538)
(46.2016 -14.382 -2.57481 -276.948 -65.5961 -105.453)
(108.613 -11.2714 -2.47518 -147.394 -59.489 28.6313)
(171.449 -8.90414 -1.54451 -34.9426 -40.3659 167.696)
(-250.588 -12.6353 -36.5225 37.7469 0.167022 -117.159)
(-174.598 -10.3997 -62.8572 61.7086 -1.51529 -61.114)
(-102.285 -8.4029 -61.1625 90.1052 -1.58286 2.34168)
(-36.2098 -6.60513 -34.091 118.584 -0.204572 62.7601)
(-246.096 -33.5198 -36.8183 35.3727 -4.34106 -116.229)
(-171.057 -27.4463 -62.58 58.8542 -7.44147 -60.3836)
(-99.3557 -22.3129 -60.5034 87.4329 -7.23366 3.01854)
(-33.8649 -17.8553 -33.1605 115.924 -4.04006 63.2087)
(-239.517 -55.2298 -36.4082 27.4884 -7.24749 -116.589)
(-165.449 -45.0908 -61.8383 53.0278 -12.3309 -60.3963)
(-94.7175 -36.6398 -59.7617 82.8439 -11.9497 3.08799)
(-30.0368 -29.4297 -32.7578 112.444 -6.60979 63.3558)
(-229.226 -75.4144 -35.743 16.9698 -10.0433 -116.624)
(-157.049 -61.7049 -60.6881 44.4915 -17.1231 -60.4091)
(-87.8578 -50.1636 -58.638 76.0073 -16.5833 3.11089)
(-24.5302 -40.2831 -32.133 107.053 -9.15152 63.3905)
(-215.795 -93.7125 -34.8471 3.61171 -12.7544 -116.571)
(-146.032 -76.7561 -59.1326 33.5237 -21.7945 -60.3814)
(-78.9055 -62.4273 -57.1246 67.0932 -21.1099 3.1134)
(-17.3744 -50.1206 -31.2921 99.9263 -11.6421 63.3666)
(-199.559 -109.684 -33.7299 -12.2858 -15.3837 -116.439)
(-132.715 -89.865 -57.19 20.4025 -26.3187 -60.3184)
(-68.103 -73.0947 -55.2355 56.3555 -25.4942 3.10765)
(-8.76749 -58.6674 -30.2429 91.2653 -14.0549 63.2926)
(-180.927 -122.951 -32.3982 -30.3424 -17.9255 -116.237)
(-117.454 -100.711 -54.8789 5.46747 -30.669 -60.222)
(-55.7468 -81.8947 -52.9902 44.0902 -29.7041 3.09944)
(1.05331 -65.6995 -28.9989 81.3192 -16.366 63.1807)
(-160.355 -133.202 -30.8569 -50.1099 -20.3751 -115.973)
(-100.649 -109.033 -52.2201 -10.8886 -34.822 -60.0936)
(-42.1771 -88.6118 -50.4134 30.6381 -33.712 3.09556)
(11.8142 -71.0419 -27.5786 70.3714 -18.5547 63.0464)
(-138.358 -140.208 -29.1079 -71.1052 -22.7321 -115.663)
(-82.7632 -114.636 -49.2396 -28.2273 -38.7604 -59.9379)
(-27.7866 -93.0973 -47.5376 16.3881 -37.4982 3.10356)
(23.2113 -74.5838 -26.0073 58.7482 -20.6057 62.9126)
(-115.446 -143.846 -27.1472 -92.8291 -25.0004 -115.305)
(-64.3784 -117.435 -45.9772 -46.1146 -42.478 -59.7947)
(-13.0252 -95.3116 -44.4067 1.75182 -41.0589 3.12117)
(34.9485 -76.3177 -24.3152 46.8394 -22.5191 62.8233)
(-92.8291 -143.846 -25.0004 -115.446 -27.1472 -115.305)
(-46.1146 -117.435 -42.478 -64.3784 -45.9772 -59.7947)
(1.75182 -95.3116 -41.0589 -13.0252 -44.4067 3.12117)
(46.8395 -76.3177 -22.5191 34.9485 -24.3152 62.8233)
(-71.1052 -140.208 -22.7321 -138.358 -29.1079 -115.663)
(-28.2273 -114.636 -38.7604 -82.7632 -49.2396 -59.9379)
(16.3881 -93.0973 -37.4982 -27.7866 -47.5376 3.10357)
(58.7482 -74.5838 -20.6057 23.2113 -26.0073 62.9126)
(-50.1099 -133.202 -20.3751 -160.355 -30.8569 -115.973)
(-10.8886 -109.033 -34.822 -100.649 -52.2201 -60.0936)
(30.6381 -88.6118 -33.712 -42.1771 -50.4134 3.09556)
(70.3714 -71.0419 -18.5547 11.8142 -27.5786 63.0464)
(-30.3425 -122.951 -17.9255 -180.927 -32.3982 -116.237)
(5.46746 -100.711 -30.669 -117.454 -54.8789 -60.222)
(44.0902 -81.8947 -29.7041 -55.7468 -52.9902 3.09944)
(81.3192 -65.6995 -16.366 1.05331 -28.9989 63.1807)
(-12.2858 -109.684 -15.3837 -199.559 -33.7299 -116.439)
(20.4025 -89.865 -26.3187 -132.715 -57.19 -60.3184)
(56.3555 -73.0948 -25.4942 -68.103 -55.2355 3.10765)
(91.2654 -58.6674 -14.055 -8.76749 -30.2429 63.2926)
(3.61171 -93.7125 -12.7544 -215.795 -34.8471 -116.571)
(33.5237 -76.7561 -21.7945 -146.032 -59.1326 -60.3814)
(67.0932 -62.4273 -21.1099 -78.9055 -57.1246 3.11341)
(99.9263 -50.1206 -11.6421 -17.3744 -31.2921 63.3666)
(16.9698 -75.4144 -10.0433 -229.226 -35.743 -116.624)
(44.4915 -61.7049 -17.1231 -157.049 -60.6881 -60.4091)
(76.0073 -50.1636 -16.5833 -87.8578 -58.638 3.11089)
(107.053 -40.2831 -9.15152 -24.5302 -32.133 63.3905)
(27.4884 -55.2298 -7.24749 -239.517 -36.4082 -116.589)
(53.0279 -45.0908 -12.3309 -165.449 -61.8383 -60.3963)
(82.8439 -36.6398 -11.9497 -94.7176 -59.7617 3.08799)
(112.444 -29.4297 -6.60979 -30.0368 -32.7578 63.3558)
(35.3727 -33.5198 -4.34106 -246.096 -36.8183 -116.229)
(58.8542 -27.4463 -7.44147 -171.057 -62.58 -60.3836)
(87.4329 -22.3129 -7.23366 -99.3557 -60.5034 3.01854)
(115.924 -17.8553 -4.04006 -33.8649 -33.1605 63.2087)
(37.7469 -12.6353 0.167022 -250.588 -36.5225 -117.159)
(61.7086 -10.3997 -1.51529 -174.598 -62.8572 -61.114)
(90.1052 -8.4029 -1.58286 -102.285 -61.1625 2.34168)
(118.584 -6.60513 -0.204573 -36.2098 -34.091 62.7601)
(-170.395 -9.54092 -17.9088 46.9923 0.944562 -39.1976)
(-117.929 -7.5617 -35.5911 54.0133 -0.167554 -29.6667)
(-71.8817 -5.90416 -35.0453 63.8599 -0.232637 -13.4129)
(-28.2356 -4.31414 -17.2166 74.1607 0.676345 -1.05843)
(-166.832 -25.2735 -18.0828 45.4146 -2.09409 -38.8521)
(-115.32 -19.98 -35.4081 52.0518 -4.17784 -29.5218)
(-69.7868 -15.7484 -34.5964 62.0744 -4.11369 -13.3322)
(-26.47 -11.8086 -16.5937 72.5592 -2.02356 -1.15462)
(-161.856 -41.6278 -17.8915 39.4712 -3.52647 -39.169)
(-111.256 -32.8031 -34.9953 47.8007 -6.95642 -29.5919)
(-66.5338 -25.8407 -34.1803 58.8219 -6.8306 -13.3384)
(-23.9304 -19.4354 -16.3984 70.2456 -3.32933 -1.0865)
(-154.127 -56.8349 -17.5762 31.5191 -4.88903 -39.242)
(-105.173 -44.8835 -34.3526 41.5741 -9.67372 -29.632)
(-61.713 -35.3783 -33.5427 53.993 -9.49417 -13.3327)
(-20.296 -26.6078 -16.0842 66.6957 -4.62121 -1.04778)
(-144.055 -70.629 -17.149 21.4186 -6.20039 -39.2571)
(-97.1937 -55.8374 -33.4745 33.5807 -12.3145 -29.6318)
(-55.4156 -44.0354 -32.6732 47.7045 -12.0902 -13.3215)
(-15.5696 -33.1143 -15.6531 62.0014 -5.88593 -1.02369)
(-131.888 -82.6824 -16.6125 9.39569 -7.47203 -39.2267)
(-87.5489 -65.39 -32.3706 24.0194 -14.8675 -29.6046)
(-47.8125 -51.5734 -31.5807 40.1304 -14.5986 -13.3063)
(-9.88032 -38.7694 -15.1115 56.2908 -7.1059 -1.01668)
(-117.924 -92.7106 -15.9661 -4.2683 -8.70963 -39.1565)
(-76.4905 -73.3083 -31.0517 13.1305 -17.3202 -29.5543)
(-39.1101 -57.8006 -30.2793 31.4738 -17.0002 -13.2876)
(-3.38511 -43.4236 -14.4706 49.7256 -8.26438 -1.0248)
(-102.499 -100.477 -15.2072 -19.2422 -9.91636 -39.0454)
(-64.3026 -79.3994 -29.5308 1.19314 -19.6611 -29.4811)
(-29.5445 -62.563 -28.7872 21.9699 -19.2784 -13.2647)
(3.73438 -46.9598 -13.7458 42.4915 -9.34696 -1.04617)
(-85.9909 -105.797 -14.3325 -35.1673 -11.0943 -38.8948)
(-51.3113 -83.5158 -27.8259 -11.4793 -21.8817 -29.3871)
(-19.3878 -65.752 -27.1291 11.8891 -21.4228 -13.2375)
(11.2767 -49.3041 -12.9578 34.8037 -10.3448 -1.07737)
(-68.7621 -108.563 -13.3383 -51.6612 -12.2436 -38.6904)
(-37.9202 -85.5819 -25.9659 -24.5697 -23.9814 -29.2974)
(-8.94875 -67.3317 -25.3376 1.52047 -23.4369 -13.213)
(19.0468 -50.4518 -12.1283 26.9208 -11.2638 -1.10294)
(-51.6612 -108.563 -12.2436 -68.7621 -13.3383 -38.6904)
(-24.5697 -85.5819 -23.9814 -37.9202 -25.9659 -29.2974)
(1.52047 -67.3317 -23.4369 -8.94875 -25.3376 -13.213)
(26.9208 -50.4518 -11.2638 19.0468 -12.1283 -1.10294)
(-35.1673 -105.797 -11.0943 -85.9909 -14.3325 -38.8948)
(-11.4793 -83.5158 -21.8817 -51.3113 -27.8259 -29.3871)
(11.8891 -65.752 -21.4228 -19.3878 -27.1291 -13.2375)
(34.8037 -49.3041 -10.3448 11.2767 -12.9578 -1.07737)
(-19.2422 -100.477 -9.91636 -102.499 -15.2072 -39.0454)
(1.19314 -79.3994 -19.6611 -64.3026 -29.5308 -29.4811)
(21.9699 -62.563 -19.2784 -29.5445 -28.7872 -13.2647)
(42.4915 -46.9598 -9.34696 3.73438 -13.7458 -1.04616)
(-4.26831 -92.7106 -8.70963 -117.924 -15.9661 -39.1565)
(13.1305 -73.3083 -17.3202 -76.4905 -31.0517 -29.5543)
(31.4738 -57.8006 -17.0002 -39.1101 -30.2793 -13.2876)
(49.7256 -43.4236 -8.26438 -3.38511 -14.4706 -1.02479)
(9.39567 -82.6824 -7.47203 -131.888 -16.6125 -39.2267)
(24.0194 -65.39 -14.8675 -87.5489 -32.3706 -29.6046)
(40.1304 -51.5734 -14.5986 -47.8125 -31.5807 -13.3063)
(56.2908 -38.7694 -7.1059 -9.88032 -15.1115 -1.01668)
(21.4185 -70.629 -6.20039 -144.055 -17.149 -39.2571)
(33.5807 -55.8374 -12.3145 -97.1937 -33.4745 -29.6318)
(47.7045 -44.0354 -12.0902 -55.4156 -32.6732 -13.3215)
(62.0014 -33.1143 -5.88593 -15.5696 -15.6531 -1.02369)
(31.5191 -56.8349 -4.88904 -154.127 -17.5762 -39.242)
(41.5741 -44.8835 -9.67372 -105.173 -34.3526 -29.632)
(53.993 -35.3783 -9.49417 -61.713 -33.5427 -13.3327)
(66.6957 -26.6078 -4.62121 -20.296 -16.0842 -1.04778)
(39.4712 -41.6278 -3.52647 -161.856 -17.8915 -39.169)
(47.8007 -32.8031 -6.95642 -111.256 -34.9953 -29.5919)
(58.8219 -25.8407 -6.8306 -66.5338 -34.1803 -13.3384)
(70.2456 -19.4354 -3.32933 -23.9304 -16.3984 -1.08649)
(45.4146 -25.2735 -2.09409 -166.832 -18.0828 -38.8521)
(52.0518 -19.98 -4.17784 -115.32 -35.4081 -29.5218)
(62.0744 -15.7484 -4.11369 -69.7868 -34.5964 -13.3322)
(72.5592 -11.8086 -2.02356 -26.47 -16.5937 -1.15461)
(46.9923 -9.54092 0.944561 -170.395 -17.9088 -39.1976)
(54.0133 -7.5617 -0.167554 -117.929 -35.5911 -29.6667)
(63.8599 -5.90416 -0.232637 -71.8817 -35.0453 -13.4129)
(74.1607 -4.31414 0.676345 -28.2356 -17.2166 -1.05843)
(-125.728 -7.27099 -6.00692 39.2451 1.08734 -7.42472)
(-86.1805 -5.58405 -14.6795 40.3599 0.516448 -14.4427)
(-52.2932 -4.14854 -14.4741 43.1723 0.470084 -17.7061)
(-19.8941 -2.77779 -5.79123 46.7509 0.908713 -23.3976)
(-122.912 -19.1862 -6.07054 38.1981 -0.672194 -7.26806)
(-84.1648 -14.7103 -14.5671 39.0062 -1.70258 -14.5066)
(-50.7089 -11.0757 -14.2313 42.0014 -1.68508 -17.8334)
(-18.5649 -7.6867 -5.46846 45.8345 -0.673422 -23.6196)
(-119.124 -31.5935 -6.01957 33.6972 -1.15545 -7.52472)
(-81.1619 -24.1318 -14.4065 35.89 -2.8458 -14.5758)
(-48.4119 -18.1575 -14.069 39.7232 -2.80714 -17.8546)
(-16.9048 -12.6294 -5.40993 44.3262 -1.11085 -23.59)
(-113.27 -43.1309 -5.92553 27.6612 -1.6057 -7.60509)
(-76.7005 -33.0109 -14.1526 31.3126 -3.96774 -14.6233)
(-45.0347 -24.8543 -13.8141 36.3361 -3.9126 -17.8586)
(-14.545 -17.2902 -5.30692 42.0315 -1.55249 -23.5589)
(-105.657 -53.5998 -5.79534 19.983 -2.03253 -7.64905)
(-70.8562 -41.0676 -13.7977 25.4324 -5.05574 -14.6381)
(-40.6242 -30.9389 -13.4576 31.9244 -4.98984 -17.8477)
(-11.4763 -21.5241 -5.15844 38.9945 -1.9876 -23.5208)
(-96.4667 -62.7541 -5.62876 10.8351 -2.44679 -7.66665)
(-63.7938 -48.1021 -13.3454 18.3949 -6.10546 -14.6324)
(-35.2974 -36.2443 -13.0036 26.6089 -6.02772 -17.8264)
(-7.7793 -25.2082 -4.9684 35.2955 -2.40407 -23.4808)
(-85.9226 -70.3783 -5.42236 0.428851 -2.85695 -7.66141)
(-55.6937 -53.9437 -12.8001 10.3731 -7.11323 -14.6103)
(-29.1955 -40.6356 -12.4596 20.5286 -7.0166 -17.7983)
(-3.55462 -28.2444 -4.74402 31.0378 -2.79127 -23.4427)
(-74.2729 -76.2906 -5.17076 -10.9873 -3.26874 -7.62942)
(-46.7583 -58.4489 -12.1669 1.56751 -8.07526 -14.5723)
(-22.48 -44.0032 -11.8355 13.8443 -7.94851 -17.7664)
(1.0808 -30.5552 -4.49553 26.3396 -3.1406 -23.4117)
(-61.7988 -80.3481 -4.86846 -23.1425 -3.68508 -7.56706)
(-37.218 -61.5055 -11.4546 -7.7956 -8.98876 -14.5188)
(-15.3362 -46.2673 -11.1456 6.74135 -8.81948 -17.7341)
(5.9968 -32.0905 -4.23587 21.339 -3.44799 -23.3941)
(-48.7515 -82.4604 -4.50998 -35.7374 -4.10525 -7.45137)
(-27.3525 -63.0472 -10.6785 -17.482 -9.85502 -14.4642)
(-7.97508 -47.3941 -10.408 -0.579093 -9.6347 -17.7097)
(11.0659 -32.8441 -3.97725 16.2028 -3.72031 -23.3886)
(-35.7374 -82.4604 -4.10525 -48.7515 -4.50999 -7.45137)
(-17.482 -63.0472 -9.85502 -27.3525 -10.6785 -14.4642)
(-0.57909 -47.3941 -9.6347 -7.97508 -10.408 -17.7097)
(16.2028 -32.8441 -3.72031 11.0659 -3.97725 -23.3886)
(-23.1425 -80.3481 -3.68508 -61.7988 -4.86846 -7.56706)
(-7.7956 -61.5055 -8.98876 -37.218 -11.4546 -14.5188)
(6.74135 -46.2673 -8.81948 -15.3362 -11.1456 -17.7341)
(21.339 -32.0905 -3.44799 5.9968 -4.23587 -23.3941)
(-10.9873 -76.2906 -3.26874 -74.2729 -5.17076 -7.62942)
(1.56751 -58.4489 -8.07526 -46.7583 -12.1669 -14.5723)
(13.8443 -44.0033 -7.94851 -22.48 -11.8355 -17.7664)
(26.3396 -30.5552 -3.1406 1.0808 -4.49553 -23.4117)
(0.428841 -70.3783 -2.85695 -85.9226 -5.42236 -7.66141)
(10.3731 -53.9437 -7.11323 -55.6937 -12.8001 -14.6103)
(20.5286 -40.6356 -7.0166 -29.1955 -12.4596 -17.7983)
(31.0378 -28.2444 -2.79127 -3.55462 -4.74402 -23.4427)
(10.8351 -62.7541 -2.44679 -96.4667 -5.62876 -7.66666)
(18.3949 -48.1021 -6.10547 -63.7938 -13.3454 -14.6324)
(26.6089 -36.2443 -6.02772 -35.2974 -13.0036 -17.8264)
(35.2956 -25.2082 -2.40407 -7.7793 -4.9684 -23.4808)
(19.983 -53.5998 -2.03253 -105.657 -5.79534 -7.64905)
(25.4324 -41.0676 -5.05574 -70.8563 -13.7977 -14.6381)
(31.9244 -30.9389 -4.98984 -40.6242 -13.4576 -17.8477)
(38.9945 -21.5241 -1.9876 -11.4763 -5.15844 -23.5208)
(27.6612 -43.1309 -1.6057 -113.27 -5.92553 -7.60509)
(31.3126 -33.0109 -3.96774 -76.7005 -14.1526 -14.6233)
(36.3361 -24.8543 -3.9126 -45.0347 -13.8141 -17.8586)
(42.0315 -17.2902 -1.55249 -14.545 -5.30692 -23.5589)
(33.6972 -31.5935 -1.15545 -119.124 -6.01957 -7.52472)
(35.89 -24.1319 -2.8458 -81.1619 -14.4065 -14.5758)
(39.7232 -18.1575 -2.80714 -48.4119 -14.069 -17.8546)
(44.3262 -12.6294 -1.11085 -16.9048 -5.40993 -23.59)
(38.1981 -19.1862 -0.672193 -122.912 -6.07055 -7.26806)
(39.0062 -14.7103 -1.70258 -84.1648 -14.5671 -14.5066)
(42.0014 -11.0757 -1.68508 -50.7089 -14.2313 -17.8333)
(45.8345 -7.68671 -0.673423 -18.5649 -5.46846 -23.6196)
(39.2451 -7.271 1.08734 -125.728 -6.00692 -7.42473)
(40.3599 -5.58405 0.516448 -86.1805 -14.6795 -14.4427)
(43.1723 -4.14854 0.470084 -52.2932 -14.4741 -17.7061)
(46.7509 -2.77779 0.908713 -19.8941 -5.79123 -23.3976)
(-97.369 -5.55769 -0.834191 28.2843 0.919882 -0.23237)
(-66.2088 -4.19636 -4.30137 28.5294 0.659455 -8.82961)
(-39.2794 -3.00477 -4.2117 29.7941 0.626518 -15.8714)
(-13.7824 -1.89232 -0.754603 31.8688 0.796929 -23.9679)
(-95.1741 -14.6178 -0.841548 27.5558 -0.0689573 -0.104746)
(-64.6319 -11.0158 -4.23284 27.5566 -0.489905 -8.91185)
(-38.0526 -8.01329 -4.09199 28.9861 -0.487325 -16.0075)
(-12.7786 -5.2674 -0.605803 31.3004 -0.0870096 -24.1459)
(-92.2808 -24.0683 -0.84985 24.1362 -0.137627 -0.297587)
(-62.3699 -18.0611 -4.1964 25.2361 -0.817317 -8.95824)
(-36.3789 -13.1281 -4.05401 27.3474 -0.807096 -16.0186)
(-11.6376 -8.64242 -0.605354 30.2656 -0.135671 -24.127)
(-87.8244 -32.8561 -0.849397 19.5451 -0.194018 -0.36438)
(-59.0355 -24.7019 -4.13399 21.8182 -1.14565 -8.99839)
(-33.9419 -17.9655 -3.98919 24.9064 -1.13075 -16.0239)
(-10.0243 -11.8302 -0.59602 28.7034 -0.19707 -24.1044)
(-82.0362 -40.8313 -0.845004 13.6951 -0.242381 -0.408527)
(-54.6737 -30.7297 -4.03891 17.4224 -1.46449 -9.01601)
(-30.7619 -22.3641 -3.89059 21.7248 -1.44891 -16.0164)
(-7.92721 -14.7301 -0.575236 26.635 -0.262923 -24.0714)
(-75.0545 -47.8067 -0.836082 6.71739 -0.289974 -0.436259)
(-49.405 -35.9965 -3.91214 12.1571 -1.77168 -9.01875)
(-26.9208 -26.2036 -3.75943 17.889 -1.75462 -15.9983)
(-5.39922 -17.257 -0.544754 24.1137 -0.324465 -24.0312)
(-67.0474 -53.6184 -0.819368 -1.2272 -0.343624 -0.449787)
(-43.3618 -40.3752 -3.75467 6.15023 -2.06659 -9.00976)
(-22.5184 -29.3871 -3.59898 13.498 -2.04289 -15.9734)
(-2.50764 -19.3436 -0.508729 21.2089 -0.374724 -23.988)
(-58.2022 -58.1275 -0.789926 -9.94988 -0.408402 -0.445569)
(-36.692 -43.7583 -3.56772 -0.450508 -2.34859 -8.98965)
(-17.668 -31.8348 -3.41386 8.66515 -2.31003 -15.945)
(0.669169 -20.9362 -0.47302 17.9997 -0.408594 -23.9484)
(-48.7299 -61.2242 -0.742578 -19.2442 -0.487063 -0.419741)
(-29.5619 -46.0601 -3.35409 -7.47817 -2.61724 -8.95837)
(-12.4993 -33.4864 -3.21068 3.5212 -2.55475 -15.9173)
(4.04342 -21.9986 -0.444713 14.5782 -0.424267 -23.9204)
(-38.8059 -62.8383 -0.671086 -28.8752 -0.579198 -0.348085)
(-22.1706 -47.2253 -3.12018 -14.757 -2.87372 -8.92379)
(-7.16125 -34.312 -2.99808 -1.79048 -2.78109 -15.8973)
(7.52694 -22.5223 -0.429822 11.0561 -0.426957 -23.9072)
(-28.8752 -62.8383 -0.579196 -38.8059 -0.671088 -0.348083)
(-14.757 -47.2253 -2.87372 -22.1707 -3.12018 -8.92379)
(-1.79048 -34.312 -2.78109 -7.16125 -2.99808 -15.8973)
(11.0561 -22.5223 -0.426958 7.52693 -0.429821 -23.9072)
(-19.2442 -61.2242 -0.487061 -48.7299 -0.74258 -0.419737)
(-7.47816 -46.0601 -2.61723 -29.5619 -3.35409 -8.95837)
(3.5212 -33.4864 -2.55476 -12.4993 -3.21068 -15.9173)
(14.5782 -21.9986 -0.424268 4.04342 -0.444712 -23.9204)
(-9.94988 -58.1275 -0.408401 -58.2022 -0.789928 -0.445566)
(-0.450508 -43.7583 -2.34859 -36.692 -3.56772 -8.98965)
(8.66515 -31.8348 -2.31003 -17.668 -3.41386 -15.945)
(17.9997 -20.9362 -0.408595 0.66917 -0.47302 -23.9484)
(-1.22721 -53.6184 -0.343623 -67.0474 -0.819369 -0.449789)
(6.15023 -40.3753 -2.06659 -43.3618 -3.75467 -9.00977)
(13.498 -29.3871 -2.04289 -22.5183 -3.59899 -15.9734)
(21.2089 -19.3436 -0.374725 -2.50764 -0.508729 -23.988)
(6.71738 -47.8067 -0.289974 -75.0545 -0.836084 -0.436265)
(12.1571 -35.9965 -1.77168 -49.405 -3.91214 -9.01875)
(17.889 -26.2036 -1.75462 -26.9208 -3.75944 -15.9983)
(24.1137 -17.257 -0.324465 -5.39922 -0.544755 -24.0312)