/*--------------------------------*- C++ -*----------------------------------*\
| =========                 |                                                 |
| \\      /  F ield         | foam-extend: Open Source CFD                    |
|  \\    /   O peration     | Version:     3.1                                |
|   \\  /    A nd           | Web:         http://www.extend-project.de       |
|    \\/     M anipulation  |                                                 |
\*---------------------------------------------------------------------------*/
FoamFile
{
    version     2.0;
    format      ascii;
    class       volScalarField;
    location    "0.0001";
    object      sigmaEq;
}
// * * * * * * * * * * * * * * * * * * * * * * * * * * * * * * * * * * * * * //

dimensions      [1 -1 -2 0 0 0 0];

internalField   nonuniform List<scalar> 
6400
(
812.757
721.922
623.033
515.265
811.41
720.389
621.372
513.551
811.374
720.373
621.37
513.611
811.256
720.305
621.311
513.559
810.967
720.047
621.085
513.367
810.489
719.592
620.679
513.027
809.846
718.966
620.117
512.558
809.092
718.227
619.454
512.009
808.333
717.481
618.797
511.472
807.814
716.969
618.357
511.117
807.814
716.969
618.357
511.117
808.333
717.481
618.797
511.472
809.092
718.227
619.454
512.009
809.846
718.966
620.117
512.558
810.489
719.592
620.679
513.027
810.967
720.047
621.085
513.367
811.256
720.305
621.311
513.559
811.374
720.373
621.37
513.611
811.41
720.389
621.372
513.551
812.757
721.922
623.033
515.265
459.186
366.657
281.358
211.002
458.268
365.101
279.434
210.181
457.781
365.02
279.386
210.225
457.543
364.967
279.389
210.262
457.337
364.813
279.288
210.209
457.118
364.573
279.08
210.064
456.898
364.266
278.785
209.84
456.71
363.918
278.429
209.556
456.627
363.564
278.059
209.254
456.899
363.339
277.799
209.04
456.899
363.339
277.799
209.04
456.627
363.564
278.059
209.254
456.71
363.918
278.429
209.556
456.898
364.266
278.785
209.84
457.118
364.573
279.08
210.064
457.337
364.813
279.288
210.209
457.543
364.967
279.39
210.262
457.781
365.02
279.386
210.225
458.268
365.101
279.434
210.181
459.186
366.657
281.358
211.002
350.633
303.26
249.954
216.726
350.67
302.044
248.631
216.014
350.265
302.023
248.67
216.203
350.035
301.994
248.71
216.276
349.844
301.878
248.645
216.22
349.658
301.7
248.484
216.046
349.488
301.48
248.249
215.774
349.365
301.237
247.961
215.43
349.347
300.994
247.654
215.067
349.579
300.84
247.434
214.812
349.579
300.84
247.434
214.812
349.347
300.994
247.654
215.067
349.365
301.237
247.961
215.43
349.488
301.48
248.249
215.774
349.658
301.7
248.484
216.046
349.844
301.878
248.645
216.22
350.035
301.994
248.71
216.276
350.265
302.023
248.67
216.203
350.67
302.044
248.631
216.014
350.633
303.26
249.954
216.726
258.745
232.566
198.175
148.505
258.903
232.029
197.182
147.05
258.585
232.044
197.225
147.19
258.393
232.018
197.256
147.283
258.246
231.919
197.196
147.269
258.126
231.772
197.052
147.149
258.036
231.593
196.841
146.94
257.995
231.397
196.584
146.66
258.028
231.204
196.316
146.354
258.204
231.082
196.129
146.134
258.204
231.082
196.129
146.134
258.028
231.204
196.316
146.354
257.995
231.397
196.584
146.66
258.036
231.593
196.841
146.94
258.126
231.772
197.052
147.149
258.246
231.919
197.196
147.269
258.393
232.018
197.256
147.283
258.585
232.044
197.225
147.19
258.903
232.029
197.182
147.05
258.745
232.566
198.175
148.505
192.84
161.71
133.03
96.8876
192.807
161.325
132.348
95.9029
192.564
161.326
132.376
95.9834
192.417
161.308
132.406
96.0609
192.317
161.249
132.376
96.0685
192.25
161.166
132.291
96.0022
192.218
161.069
132.161
95.8691
192.225
160.967
131.998
95.681
192.282
160.866
131.827
95.4685
192.416
160.805
131.708
95.3139
192.416
160.805
131.708
95.3139
192.282
160.866
131.827
95.4685
192.225
160.967
131.998
95.681
192.218
161.07
132.161
95.8691
192.25
161.166
132.291
96.0022
192.317
161.249
132.376
96.0685
192.417
161.308
132.406
96.0609
192.564
161.326
132.376
95.9834
192.807
161.325
132.348
95.9029
192.84
161.71
133.03
96.8876
148.207
113.234
87.6861
69.3798
148.037
112.863
87.248
69.0412
147.855
112.849
87.2635
69.0889
147.747
112.839
87.2927
69.1427
147.679
112.811
87.2888
69.1506
147.641
112.778
87.2541
69.1092
147.633
112.745
87.1943
69.0237
147.655
112.714
87.1154
68.9029
147.71
112.685
87.0294
68.7679
147.812
112.67
86.9685
68.6708
147.812
112.67
86.9685
68.6708
147.71
112.685
87.0294
68.7679
147.655
112.714
87.1154
68.9029
147.633
112.745
87.1943
69.0237
147.641
112.778
87.2541
69.1092
147.679
112.811
87.2888
69.1507
147.747
112.839
87.2927
69.1427
147.855
112.849
87.2635
69.0889
148.037
112.863
87.2481
69.0412
148.207
113.234
87.6861
69.3798
114.525
83.3147
61.5117
51.6442
114.351
82.9772
61.2036
51.5518
114.217
82.9571
61.2078
51.5794
114.139
82.9524
61.234
51.618
114.093
82.94
61.2413
51.6264
114.069
82.9292
61.2316
51.6011
114.067
82.9231
61.2084
51.5465
114.088
82.9216
61.1748
51.47
114.133
82.9221
61.1361
51.3857
114.21
82.9271
61.1081
51.326
114.21
82.9271
61.1081
51.326
114.133
82.9221
61.1361
51.3858
114.088
82.9216
61.1748
51.47
114.067
82.9231
61.2084
51.5465
114.069
82.9292
61.2316
51.6011
114.093
82.94
61.2413
51.6264
114.139
82.9524
61.234
51.618
114.217
82.9571
61.2078
51.5794
114.351
82.9772
61.2036
51.5518
114.525
83.3147
61.5117
51.6442
87.8546
63.3543
45.786
38.241
87.7272
63.0748
45.538
38.1691
87.6285
63.0562
45.5356
38.1832
87.5736
63.055
45.557
38.2133
87.5417
63.049
45.567
38.2247
87.5259
63.045
45.5664
38.2133
87.5261
63.0454
45.5577
38.1821
87.5426
63.0503
45.5429
38.1363
87.5778
63.0572
45.5244
38.085
87.6375
63.0659
45.5107
38.0482
87.6375
63.0659
45.5107
38.0482
87.5778
63.0572
45.5244
38.085
87.5426
63.0503
45.5429
38.1363
87.5261
63.0454
45.5577
38.1821
87.5259
63.045
45.5664
38.2133
87.5417
63.049
45.567
38.2247
87.5736
63.055
45.5571
38.2133
87.6285
63.0562
45.5356
38.1832
87.7272
63.0748
45.538
38.1691
87.8546
63.3543
45.786
38.241
67.2104
48.8594
35.2023
28.4749
67.1268
48.6393
34.9943
28.3783
67.0531
48.6246
34.9895
28.3847
67.014
48.6252
35.0064
28.4085
66.9922
48.6221
35.0158
28.4216
66.9819
48.6202
35.018
28.4195
66.9828
48.6214
35.0148
28.404
66.9955
48.626
35.0075
28.3781
67.0223
48.6323
34.9974
28.3472
67.069
48.64
34.9896
28.3244
67.069
48.64
34.9896
28.3244
67.0223
48.6323
34.9974
28.3472
66.9955
48.626
35.0075
28.3781
66.9828
48.6214
35.0148
28.404
66.9819
48.6202
35.018
28.4195
66.9922
48.6222
35.0158
28.4216
67.014
48.6252
35.0064
28.4086
67.0531
48.6246
34.9895
28.3847
67.1268
48.6393
34.9943
28.3783
67.2104
48.8594
35.2023
28.4749
51.6311
37.9676
27.5137
21.6427
51.5762
37.7977
27.3425
21.5352
51.52
37.7867
27.3375
21.538
51.4915
37.7878
27.3504
21.5565
51.4763
37.786
27.3581
21.5686
51.4693
37.7848
27.3606
21.5706
51.4704
37.7857
27.3594
21.5634
51.4802
37.7889
27.3551
21.5485
51.5007
37.7936
27.3487
21.5293
51.5374
37.7995
27.3435
21.5143
51.5374
37.7995
27.3435
21.5143
51.5007
37.7936
27.3487
21.5293
51.4802
37.7889
27.3551
21.5485
51.4704
37.7857
27.3594
21.5634
51.4693
37.7848
27.3606
21.5706
51.4763
37.786
27.3581
21.5686
51.4915
37.7878
27.3504
21.5565
51.5201
37.7867
27.3375
21.538
51.5762
37.7977
27.3425
21.5352
51.6311
37.9676
27.5137
21.6427
39.9341
29.6495
21.6581
16.7701
39.8961
29.519
21.5208
16.6693
39.8527
29.5107
21.5165
16.6706
39.8312
29.5117
21.5259
16.6846
39.82
29.5103
21.5316
16.6944
39.8152
29.5093
21.5336
16.6972
39.8163
29.5097
21.5328
16.6934
39.8238
29.5119
21.5298
16.6841
39.8397
29.5152
21.5251
16.671
39.8686
29.5196
21.5212
16.6605
39.8686
29.5196
21.5212
16.6605
39.8397
29.5152
21.5251
16.671
39.8238
29.5119
21.5298
16.6841
39.8163
29.5097
21.5328
16.6934
39.8152
29.5093
21.5336
16.6972
39.82
29.5103
21.5317
16.6944
39.8312
29.5117
21.5259
16.6846
39.8527
29.5107
21.5165
16.6706
39.8961
29.519
21.5208
16.6693
39.9341
29.6495
21.6581
16.7701
31.0732
23.2126
17.0655
13.1278
31.0455
23.1123
16.9573
13.0423
31.0116
23.1059
16.9537
13.043
30.995
23.1065
16.9605
13.0535
30.9866
23.1053
16.9646
13.0609
30.983
23.1043
16.9659
13.0633
30.984
23.1045
16.9651
13.0609
30.99
23.106
16.9628
13.0543
31.0024
23.1084
16.959
13.0447
31.0251
23.1117
16.956
13.0369
31.0251
23.1117
16.956
13.0369
31.0024
23.1084
16.959
13.0447
30.99
23.106
16.9628
13.0543
30.984
23.1045
16.9652
13.0609
30.983
23.1043
16.9659
13.0633
30.9866
23.1053
16.9646
13.0609
30.995
23.1065
16.9606
13.0535
31.0116
23.1059
16.9537
13.043
31.0455
23.1123
16.9573
13.0422
31.0732
23.2126
17.0655
13.1278
24.2779
18.1901
13.4234
10.3096
24.2567
18.1124
13.3387
10.2408
24.2301
18.1075
13.3359
10.2413
24.2172
18.1077
13.3409
10.2492
24.2107
18.1067
13.3438
10.2547
24.208
18.1058
13.3446
10.2565
24.2089
18.1059
13.3439
10.2546
24.2136
18.107
13.3419
10.2496
24.2234
18.1088
13.339
10.2423
24.2413
18.1114
13.3366
10.2363
24.2413
18.1114
13.3366
10.2363
24.2234
18.1088
13.339
10.2424
24.2136
18.107
13.342
10.2496
24.2089
18.1059
13.3439
10.2546
24.208
18.1059
13.3446
10.2565
24.2107
18.1067
13.3438
10.2547
24.2172
18.1077
13.3409
10.2492
24.2301
18.1075
13.3359
10.2413
24.2567
18.1124
13.3387
10.2408
24.2779
18.1901
13.4234
10.3096
19.0141
14.2588
10.5387
8.09742
18.9975
14.1983
10.4726
8.04334
18.9767
14.1944
10.4703
8.04376
18.9666
14.1946
10.4742
8.04977
18.9615
14.1937
10.4763
8.05395
18.9595
14.193
10.4768
8.05519
18.9602
14.193
10.4762
8.05373
18.9639
14.1939
10.4746
8.04984
18.9716
14.1953
10.4723
8.04419
18.9857
14.1973
10.4705
8.03953
18.9857
14.1973
10.4705
8.03953
18.9716
14.1953
10.4723
8.04419
18.9639
14.1939
10.4747
8.04985
18.9602
14.193
10.4762
8.05373
18.9595
14.193
10.4768
8.0552
18.9615
14.1937
10.4763
8.05395
18.9666
14.1946
10.4742
8.04977
18.9767
14.1944
10.4703
8.04376
18.9975
14.1983
10.4726
8.04333
19.0141
14.2588
10.5387
8.09741
14.9101
11.1803
8.26573
6.3559
14.897
11.1329
8.21402
6.31376
14.8808
11.1299
8.21227
6.31411
14.8728
11.13
8.21521
6.31875
14.8688
11.1293
8.21685
6.32195
14.8672
11.1287
8.21723
6.32287
14.8678
11.1288
8.21673
6.3217
14.8708
11.1295
8.21553
6.31866
14.8769
11.1306
8.21375
6.31426
14.8879
11.1322
8.21231
6.31064
14.8879
11.1322
8.21231
6.31064
14.8769
11.1306
8.21375
6.31427
14.8708
11.1295
8.21554
6.31867
14.8678
11.1288
8.21673
6.3217
14.8672
11.1287
8.21723
6.32287
14.8688
11.1293
8.21685
6.32195
14.8728
11.13
8.21522
6.31875
14.8808
11.1299
8.21227
6.3141
14.897
11.1329
8.21401
6.31375
14.9101
11.1803
8.26572
6.35588
11.6991
8.76978
6.48217
4.98665
11.6888
8.73267
6.44168
4.95378
11.676
8.73032
6.44032
4.95406
11.6698
8.73037
6.44262
4.95769
11.6667
8.7298
6.44389
4.96017
11.6654
8.72939
6.4442
4.96088
11.6659
8.72944
6.44382
4.95996
11.6682
8.73002
6.44291
4.9576
11.673
8.73095
6.44154
4.95418
11.6816
8.73223
6.44044
4.95136
11.6816
8.73223
6.44044
4.95136
11.673
8.73095
6.44155
4.95419
11.6682
8.73002
6.44292
4.95761
11.6659
8.72944
6.44383
4.95997
11.6654
8.72939
6.4442
4.96088
11.6667
8.7298
6.44389
4.96018
11.6698
8.73036
6.44262
4.95769
11.676
8.73032
6.44031
4.95406
11.6888
8.73267
6.44167
4.95377
11.6991
8.76977
6.48216
4.98663
9.1826
6.88203
5.0854
3.91205
9.17452
6.8529
5.05363
3.88631
9.16451
6.85106
5.05257
3.88654
9.15964
6.8511
5.05438
3.88939
9.15718
6.85066
5.05539
3.89134
9.15621
6.85035
5.05565
3.8919
9.15659
6.85041
5.05538
3.8912
9.15844
6.85089
5.05469
3.88937
9.16219
6.85164
5.05364
3.88671
9.16896
6.85266
5.05279
3.88452
9.16896
6.85266
5.05279
3.88452
9.16218
6.85164
5.05364
3.88672
9.15843
6.85089
5.05469
3.88938
9.15659
6.85041
5.05538
3.8912
9.1562
6.85035
5.05565
3.89191
9.15718
6.85066
5.05539
3.89135
9.15963
6.85109
5.05438
3.88939
9.16451
6.85105
5.05257
3.88654
9.17451
6.85289
5.05362
3.8863
9.18259
6.88202
5.08539
3.91204
7.20923
5.40294
3.99176
3.06967
7.20289
5.38006
3.96681
3.04944
7.19505
5.37862
3.96598
3.04962
7.19123
5.37866
3.96741
3.05187
7.18931
5.37833
3.96822
3.05341
7.18855
5.3781
3.96843
3.05386
7.18886
5.37816
3.96824
3.05333
7.19032
5.37855
3.96772
3.05192
7.19327
5.37916
3.96692
3.04985
7.19859
5.37997
3.96627
3.04814
7.19859
5.37997
3.96627
3.04814
7.19327
5.37916
3.96692
3.04985
7.19031
5.37855
3.96772
3.05192
7.18886
5.37816
3.96824
3.05333
7.18855
5.3781
3.96844
3.05387
7.18931
5.37833
3.96822
3.05341
7.19123
5.37866
3.96741
3.05187
7.19504
5.37862
3.96598
3.04962
7.20289
5.38005
3.9668
3.04943
7.20922
5.40293
3.99174
3.06966
5.66129
4.24331
3.13487
2.40951
5.65633
4.22534
3.11526
2.39357
5.65018
4.22421
3.11462
2.39372
5.64719
4.22425
3.11575
2.39549
5.64569
4.224
3.11639
2.39671
5.6451
4.22383
3.11658
2.39708
5.64535
4.2239
3.11644
2.39668
5.6465
4.22422
3.11605
2.39559
5.64883
4.2247
3.11544
2.39398
5.65301
4.22534
3.11493
2.39265
5.65301
4.22534
3.11493
2.39265
5.64882
4.2247
3.11544
2.39399
5.6465
4.22421
3.11605
2.39559
5.64535
4.22389
3.11644
2.39668
5.6451
4.22383
3.11658
2.39709
5.64569
4.224
3.1164
2.39672
5.64718
4.22425
3.11575
2.39549
5.65017
4.22421
3.11462
2.39372
5.65633
4.22533
3.11526
2.39357
5.66129
4.2433
3.13486
2.4095
4.44671
3.33351
2.46283
1.89198
4.44282
3.3194
2.44742
1.87941
4.438
3.31852
2.44692
1.87953
4.43565
3.31855
2.44781
1.88092
4.43448
3.31837
2.44833
1.88189
4.43403
3.31825
2.44848
1.8822
4.43423
3.3183
2.44839
1.8819
4.43514
3.31856
2.44809
1.88105
4.43697
3.31895
2.44762
1.8798
4.44026
3.31946
2.44723
1.87876
4.44025
3.31946
2.44723
1.87876
4.43696
3.31895
2.44762
1.8798
4.43513
3.31856
2.44809
1.88105
4.43423
3.3183
2.44839
1.8819
4.43402
3.31824
2.44848
1.8822
4.43448
3.31837
2.44833
1.8819
4.43565
3.31856
2.44781
1.88093
4.43799
3.31852
2.44692
1.87953
4.44282
3.3194
2.44742
1.87941
4.44671
3.33351
2.46282
1.89197
3.49329
2.61925
1.93527
1.48601
3.49024
2.60816
1.92316
1.4761
3.48646
2.60747
1.92276
1.47619
3.48462
2.6075
1.92347
1.47729
3.4837
2.60736
1.92388
1.47806
3.48335
2.60727
1.92401
1.4783
3.48351
2.60732
1.92394
1.47808
3.48423
2.60753
1.92371
1.47742
3.48566
2.60784
1.92335
1.47644
3.48825
2.60824
1.92304
1.47563
3.48825
2.60824
1.92304
1.47563
3.48566
2.60783
1.92335
1.47644
3.48422
2.60753
1.92371
1.47742
3.48351
2.60732
1.92394
1.47807
3.48335
2.60727
1.92401
1.47831
3.4837
2.60736
1.92388
1.47806
3.48462
2.60751
1.92347
1.4773
3.48645
2.60747
1.92276
1.47619
3.49024
2.60816
1.92315
1.47609
3.49329
2.61924
1.93526
1.48599
2.7445
2.05813
1.5208
1.16732
2.74212
2.04942
1.51127
1.15951
2.73914
2.04887
1.51096
1.15958
2.7377
2.0489
1.51152
1.16044
2.73698
2.04879
1.51184
1.16105
2.7367
2.04872
1.51195
1.16125
2.73683
2.04876
1.5119
1.16108
2.73739
2.04893
1.51172
1.16057
2.73852
2.04917
1.51143
1.1598
2.74055
2.04948
1.51119
1.15916
2.74055
2.04948
1.51119
1.15916
2.73851
2.04917
1.51143
1.1598
2.73739
2.04892
1.51172
1.16056
2.73683
2.04876
1.5119
1.16108
2.7367
2.04872
1.51195
1.16125
2.73698
2.04879
1.51185
1.16106
2.7377
2.04891
1.51152
1.16045
2.73914
2.04888
1.51096
1.15958
2.74212
2.04941
1.51127
1.1595
2.74451
2.05812
1.52079
1.1673
2.15615
1.61708
1.19496
0.917
2.15428
1.61024
1.18748
0.910852
2.15194
1.60981
1.18723
0.910904
2.15081
1.60983
1.18767
0.911582
2.15024
1.60974
1.18792
0.912063
2.15002
1.60969
1.188
0.912225
2.15011
1.60972
1.18796
0.91209
2.15055
1.60984
1.18782
0.911687
2.15143
1.61002
1.1876
0.911084
2.15302
1.61027
1.18741
0.910582
2.15302
1.61027
1.18741
0.910582
2.15143
1.61002
1.18759
0.911083
2.15055
1.60984
1.18782
0.911685
2.15011
1.60971
1.18796
0.912088
2.15002
1.60969
1.18801
0.912227
2.15024
1.60975
1.18793
0.912073
2.15081
1.60983
1.18767
0.911596
2.15194
1.60981
1.18723
0.910911
2.15428
1.61024
1.18747
0.910844
2.15616
1.61707
1.19495
0.91698
1.69371
1.2703
0.938725
0.720306
1.69225
1.26492
0.932842
0.715472
1.69041
1.26458
0.932645
0.715509
1.68952
1.2646
0.932984
0.716041
1.68907
1.26452
0.933183
0.71642
1.68889
1.26448
0.933247
0.716548
1.68896
1.2645
0.933213
0.716442
1.68929
1.26459
0.933098
0.716123
1.68998
1.26473
0.932914
0.715645
1.69123
1.26492
0.932762
0.715248
1.69123
1.26492
0.932762
0.715248
1.68998
1.26473
0.932913
0.715644
1.68929
1.26459
0.933097
0.71612
1.68896
1.2645
0.933212
0.716439
1.68889
1.26448
0.93325
0.71655
1.68907
1.26453
0.933191
0.71643
1.68952
1.2646
0.932995
0.716056
1.69041
1.26459
0.932651
0.715517
1.69225
1.26492
0.932838
0.715463
1.69372
1.27029
0.938715
0.720284
1.33024
0.997636
0.737218
0.56573
1.32908
0.993413
0.732597
0.561933
1.32764
0.993145
0.732439
0.561959
1.32693
0.993151
0.732702
0.562375
1.32658
0.993092
0.732856
0.562673
1.32643
0.993052
0.732904
0.562774
1.32648
0.993062
0.732873
0.562689
1.32674
0.993128
0.732777
0.562435
1.32728
0.993232
0.732627
0.562055
1.32825
0.993377
0.732504
0.561739
1.32825
0.993377
0.732504
0.561739
1.32728
0.993232
0.732626
0.562053
1.32674
0.993127
0.732776
0.562431
1.32648
0.993061
0.732872
0.562686
1.32643
0.993055
0.732907
0.562776
1.32658
0.993099
0.732865
0.562684
1.32694
0.993161
0.732713
0.562391
1.32764
0.993151
0.732445
0.561967
1.32909
0.993413
0.732593
0.561924
1.33024
0.997632
0.737207
0.565707
1.04463
0.783345
0.578825
0.444276
1.04373
0.780027
0.575195
0.441298
1.04259
0.779814
0.575069
0.441315
1.04204
0.779816
0.575273
0.44164
1.04175
0.779767
0.575391
0.441874
1.04164
0.779733
0.575427
0.441953
1.04167
0.779737
0.575399
0.441885
1.04187
0.779785
0.57532
0.441682
1.04229
0.779862
0.575197
0.441379
1.04306
0.779972
0.575097
0.441128
1.04306
0.779972
0.575097
0.441127
1.04229
0.779862
0.575196
0.441377
1.04187
0.779784
0.575318
0.441678
1.04167
0.779737
0.575398
0.441882
1.04164
0.779736
0.57543
0.441956
1.04176
0.779775
0.575401
0.441886
1.04204
0.779826
0.575284
0.441656
1.04259
0.77982
0.575075
0.441323
1.04373
0.780027
0.575191
0.441288
1.04464
0.78334
0.578814
0.444254
0.82038
0.615073
0.454437
0.348898
0.819664
0.612466
0.451587
0.346563
0.818773
0.612297
0.451485
0.346573
0.818336
0.612297
0.451643
0.346827
0.818112
0.612257
0.451736
0.347011
0.818018
0.612229
0.451763
0.347075
0.818046
0.612231
0.45174
0.347021
0.818204
0.612267
0.451675
0.346859
0.818532
0.612325
0.451575
0.346618
0.819133
0.61241
0.451495
0.346418
0.819133
0.612411
0.451495
0.346417
0.818533
0.612325
0.451574
0.346615
0.818205
0.612266
0.451672
0.346854
0.818048
0.612231
0.451738
0.347018
0.818021
0.612232
0.451766
0.347078
0.818114
0.612264
0.451745
0.347024
0.818337
0.612306
0.451655
0.346844
0.818774
0.612302
0.451491
0.346582
0.819666
0.612465
0.451583
0.346554
0.820384
0.615067
0.454426
0.348876
0.644461
0.483093
0.35688
0.274056
0.643897
0.481045
0.35464
0.272223
0.643197
0.48091
0.354559
0.27223
0.642854
0.48091
0.354683
0.272428
0.642679
0.480879
0.354756
0.272574
0.642607
0.480859
0.354778
0.272625
0.642631
0.480862
0.354761
0.272584
0.642756
0.480891
0.35471
0.272457
0.643016
0.480937
0.354632
0.272266
0.643489
0.481004
0.354568
0.272108
0.64349
0.481004
0.354567
0.272107
0.643017
0.480936
0.35463
0.272262
0.642757
0.480889
0.354707
0.272452
0.642632
0.480861
0.35476
0.272581
0.642608
0.480861
0.354782
0.272629
0.64268
0.480886
0.354765
0.272587
0.642854
0.480918
0.354694
0.272445
0.643197
0.480915
0.354565
0.272238
0.643898
0.481042
0.354636
0.272216
0.644464
0.483086
0.356868
0.274035
0.506594
0.379707
0.280472
0.215379
0.50615
0.378096
0.278711
0.213938
0.5056
0.377989
0.278646
0.213941
0.505332
0.37799
0.278744
0.214097
0.505197
0.377968
0.278803
0.214213
0.505144
0.377956
0.278824
0.214257
0.505166
0.377962
0.278814
0.214227
0.505269
0.377988
0.278776
0.214129
0.505477
0.378027
0.278716
0.21398
0.505852
0.378082
0.278667
0.213855
0.505853
0.378082
0.278666
0.213854
0.505479
0.378026
0.278714
0.213975
0.50527
0.377986
0.278772
0.214123
0.505166
0.37796
0.278811
0.214224
0.505144
0.377957
0.278827
0.214261
0.505196
0.377974
0.278812
0.214227
0.50533
0.377997
0.278754
0.214114
0.505598
0.377993
0.278651
0.21395
0.506149
0.378092
0.278706
0.213931
0.506595
0.379698
0.280459
0.21536
0.398621
0.298793
0.220692
0.169407
0.398272
0.297524
0.219305
0.16827
0.39784
0.297441
0.219253
0.168271
0.397631
0.297443
0.219331
0.168395
0.397528
0.297429
0.219381
0.168488
0.397492
0.297425
0.219402
0.168526
0.397515
0.297436
0.219399
0.168507
0.397601
0.297461
0.219374
0.168433
0.39777
0.297496
0.219331
0.168318
0.398068
0.297542
0.219294
0.168221
0.398069
0.297542
0.219293
0.168219
0.397771
0.297495
0.219327
0.168312
0.397602
0.297458
0.21937
0.168426
0.397514
0.297433
0.219397
0.168503
0.39749
0.297425
0.219405
0.168531
0.397527
0.297434
0.21939
0.168502
0.397628
0.297448
0.219341
0.168411
0.397837
0.297443
0.219257
0.16828
0.39827
0.29752
0.2193
0.168264
0.39862
0.298783
0.220679
0.169389
0.31406
0.235474
0.173932
0.133398
0.313786
0.234473
0.172837
0.132495
0.313447
0.234408
0.172797
0.132495
0.313285
0.234412
0.17286
0.132592
0.313208
0.234405
0.172903
0.132669
0.313185
0.234408
0.172925
0.132704
0.313209
0.234422
0.172928
0.132693
0.313282
0.234449
0.172914
0.13264
0.31342
0.234481
0.172884
0.132553
0.313658
0.234521
0.172858
0.132478
0.313659
0.23452
0.172856
0.132476
0.313421
0.234479
0.17288
0.132546
0.313282
0.234445
0.172909
0.132632
0.313207
0.234419
0.172925
0.132689
0.313182
0.234408
0.172927
0.132708
0.313206
0.23441
0.172911
0.132683
0.313282
0.234416
0.172869
0.132609
0.313443
0.234409
0.1728
0.132504
0.313783
0.234468
0.172832
0.13249
0.314058
0.235463
0.173919
0.13338
0.247766
0.185868
0.137317
0.105174
0.247552
0.185078
0.136451
0.104453
0.247285
0.185026
0.136419
0.104451
0.24716
0.185031
0.13647
0.104529
0.247103
0.18503
0.136508
0.104592
0.247089
0.185038
0.13653
0.104624
0.247113
0.185055
0.136539
0.104621
0.247176
0.185082
0.136533
0.104583
0.247289
0.185112
0.136514
0.104518
0.24748
0.185146
0.136496
0.104462
0.24748
0.185146
0.136494
0.104459
0.24729
0.18511
0.13651
0.104511
0.247176
0.185077
0.136528
0.104575
0.247111
0.185052
0.136535
0.104617
0.247086
0.185038
0.136533
0.104629
0.2471
0.185035
0.136516
0.104606
0.247156
0.185036
0.136479
0.104545
0.247281
0.185027
0.136422
0.10446
0.247549
0.185072
0.136445
0.104448
0.247764
0.185857
0.137303
0.105156
0.195674
0.146902
0.108567
0.0830135
0.195507
0.146278
0.10788
0.0824347
0.195298
0.146237
0.107854
0.0824316
0.1952
0.146242
0.107896
0.0824927
0.195158
0.146245
0.107929
0.0825457
0.19515
0.146255
0.107951
0.0825756
0.195172
0.146274
0.107963
0.082578
0.195225
0.146299
0.107963
0.0825521
0.195317
0.146326
0.107952
0.082504
0.19547
0.146355
0.107939
0.0824606
0.195471
0.146355
0.107937
0.0824578
0.195318
0.146324
0.107947
0.0824964
0.195225
0.146294
0.107957
0.0825431
0.19517
0.14627
0.10796
0.0825731
0.195147
0.146255
0.107954
0.0825802
0.195155
0.146249
0.107937
0.08256
0.195196
0.146247
0.107905
0.0825097
0.195293
0.146237
0.107858
0.0824406
0.195503
0.146272
0.107874
0.0824287
0.195671
0.146891
0.108553
0.0829945
0.154597
0.116168
0.0858946
0.0655635
0.154468
0.115674
0.0853492
0.0650975
0.154303
0.115642
0.0853276
0.0650926
0.154227
0.115646
0.0853605
0.0651404
0.154195
0.11565
0.0853886
0.0651847
0.154189
0.115661
0.0854097
0.0652121
0.154209
0.115679
0.0854226
0.0652176
0.154252
0.115701
0.0854256
0.0652001
0.154326
0.115725
0.0854186
0.0651641
0.154448
0.115749
0.0854096
0.0651308
0.154448
0.115748
0.0854078
0.0651279
0.154327
0.115722
0.0854136
0.0651563
0.154252
0.115696
0.0854193
0.0651908
0.154208
0.115675
0.0854189
0.0652125
0.154188
0.115661
0.0854123
0.0652166
0.154192
0.115655
0.0853973
0.0651991
0.154223
0.115651
0.0853699
0.0651577
0.154298
0.115642
0.0853307
0.0651014
0.154464
0.115668
0.0853426
0.0650902
0.154595
0.116157
0.0858801
0.0655426
0.122069
0.0918044
0.0679162
0.0517698
0.121969
0.0914139
0.0674831
0.0513948
0.12184
0.0913873
0.0674645
0.0513879
0.12178
0.0913903
0.0674898
0.0514246
0.121753
0.0913936
0.0675129
0.0514613
0.121748
0.0914032
0.0675313
0.0514858
0.121763
0.0914181
0.0675432
0.0514925
0.121797
0.0914361
0.0675467
0.0514799
0.121855
0.091455
0.0675417
0.0514521
0.121951
0.0914738
0.0675346
0.0514258
0.121951
0.0914727
0.0675327
0.0514229
0.121855
0.0914519
0.0675366
0.0514444
0.121797
0.0914317
0.0675405
0.0514707
0.121762
0.0914149
0.0675397
0.0514872
0.121747
0.0914043
0.0675342
0.0514901
0.121751
0.091399
0.067522
0.0514759
0.121775
0.0913957
0.0674995
0.0514423
0.121834
0.0913876
0.0674675
0.0513964
0.121965
0.0914078
0.0674759
0.0513858
0.122068
0.0917935
0.0679012
0.0517465
0.0962035
0.0723942
0.0535823
0.0408224
0.0961261
0.0720858
0.053239
0.0405222
0.0960252
0.0720636
0.0532222
0.0405132
0.0959767
0.0720645
0.0532407
0.0405405
0.0959531
0.0720661
0.0532586
0.0405705
0.0959469
0.072073
0.0532734
0.0405916
0.0959567
0.0720838
0.0532828
0.0405977
0.0959817
0.0720967
0.0532849
0.0405875
0.0960256
0.0721099
0.0532798
0.0405647
0.0960998
0.0721234
0.0532731
0.040543
0.0961
0.0721223
0.0532713
0.0405403
0.0960259
0.0721068
0.0532748
0.0405573
0.0959819
0.0720925
0.0532789
0.0405786
0.095957
0.0720812
0.0532797
0.0405925
0.0959473
0.0720748
0.0532767
0.0405957
0.095952
0.0720722
0.0532681
0.0405851
0.0959723
0.0720703
0.0532507
0.0405585
0.0960195
0.072064
0.0532251
0.0405212
0.0961233
0.0720797
0.0532311
0.0405113
0.0962041
0.0723836
0.0535665
0.0407966
0.0755809
0.0568778
0.0421093
0.0321083
0.0755209
0.0566349
0.0418383
0.0318703
0.0754419
0.0566157
0.0418227
0.0318595
0.0754019
0.0566143
0.0418351
0.0318789
0.07538
0.0566136
0.0418478
0.0319028
0.0753715
0.056617
0.0418585
0.0319201
0.0753761
0.0566231
0.0418645
0.0319246
0.0753929
0.0566305
0.0418641
0.031915
0.0754245
0.056638
0.0418576
0.031895
0.0754808
0.0566464
0.0418506
0.0318762
0.075481
0.0566454
0.0418488
0.0318736
0.0754247
0.056635
0.0418529
0.031888
0.0753931
0.0566267
0.0418585
0.0319067
0.0753771
0.0566211
0.0418619
0.0319198
0.0753731
0.0566195
0.0418624
0.0319243
0.0753797
0.0566202
0.0418577
0.0319174
0.0753976
0.0566204
0.0418453
0.031897
0.075436
0.0566161
0.0418252
0.0318668
0.0755185
0.0566287
0.0418296
0.0318575
0.0755826
0.0568675
0.0420929
0.0320802
0.0591409
0.0444715
0.0329213
0.0251697
0.0590941
0.0442808
0.0327085
0.0249837
0.0590324
0.0442639
0.0326937
0.0249714
0.0589988
0.0442602
0.0327009
0.0249844
0.0589776
0.0442569
0.0327089
0.0250028
0.0589669
0.0442568
0.0327155
0.0250165
0.0589669
0.0442586
0.0327179
0.0250188
0.0589767
0.0442608
0.0327146
0.0250089
0.0589983
0.0442631
0.0327064
0.0249904
0.0590401
0.0442671
0.0326986
0.0249736
0.0590402
0.0442662
0.0326969
0.0249712
0.0589985
0.0442603
0.032702
0.0249841
0.0589771
0.0442574
0.0327096
0.0250014
0.0589685
0.0442572
0.032716
0.0250146
0.0589694
0.0442601
0.0327199
0.0250208
0.0589781
0.044264
0.0327191
0.0250174
0.0589945
0.0442664
0.0327111
0.0250022
0.0590263
0.0442641
0.0326958
0.0249778
0.0590921
0.0442744
0.032699
0.0249692
0.0591434
0.0444614
0.0329042
0.0251398
0.0460935
0.0345972
0.0255962
0.0196655
0.0460565
0.0344479
0.0254301
0.0195227
0.0460082
0.0344329
0.025416
0.0195096
0.0459797
0.0344274
0.025419
0.0195175
0.0459594
0.0344219
0.0254231
0.0195313
0.0459472
0.0344189
0.0254261
0.0195416
0.0459438
0.0344171
0.0254254
0.019542
0.0459483
0.0344153
0.0254196
0.0195317
0.0459622
0.0344135
0.0254099
0.0195143
0.0459927
0.0344141
0.0254014
0.019499
0.0459927
0.0344132
0.0253999
0.0194968
0.0459623
0.0344109
0.0254059
0.0195086
0.0459487
0.0344123
0.0254153
0.0195252
0.0459457
0.0344163
0.0254242
0.0195387
0.0459503
0.0344227
0.0254311
0.0195464
0.0459603
0.0344292
0.0254335
0.0195458
0.0459754
0.0344334
0.025429
0.0195348
0.0460021
0.0344328
0.0254175
0.019515
0.0460546
0.0344412
0.0254199
0.0195069
0.0460963
0.0345871
0.0255785
0.0196345
0.0358399
0.026822
0.01982
0.0153371
0.0358103
0.0267053
0.019691
0.0152294
0.0357724
0.0266918
0.0196778
0.0152163
0.0357482
0.0266851
0.0196777
0.0152205
0.0357293
0.0266782
0.0196788
0.0152306
0.0357167
0.0266734
0.0196793
0.0152382
0.0357115
0.0266694
0.0196765
0.0152373
0.0357127
0.0266651
0.0196693
0.0152272
0.0357214
0.0266608
0.0196588
0.0152112
0.0357435
0.0266592
0.0196503
0.0151974
0.0357436
0.0266584
0.0196489
0.0151954
0.0357216
0.0266585
0.0196554
0.0152062
0.0357132
0.0266626
0.0196656
0.0152217
0.0357136
0.0266692
0.019676
0.0152352
0.0357201
0.0266777
0.0196848
0.0152436
0.0357304
0.0266857
0.0196893
0.015245
0.035744
0.0266908
0.0196873
0.0152369
0.0357664
0.0266912
0.0196787
0.0152206
0.0358084
0.0266982
0.0196803
0.015213
0.0358426
0.0268118
0.0198019
0.0153061
0.0279093
0.0208081
0.0153492
0.0119797
0.0278852
0.0207167
0.0152492
0.0118994
0.0278553
0.0207048
0.015237
0.0118869
0.027835
0.0206977
0.0152351
0.0118886
0.0278183
0.0206905
0.0152344
0.0118959
0.0278069
0.0206852
0.0152335
0.0119016
0.0278016
0.0206807
0.01523
0.0119004
0.0278016
0.0206757
0.0152227
0.0118915
0.0278075
0.0206707
0.0152128
0.0118775
0.027824
0.0206683
0.0152049
0.0118656
0.0278242
0.0206676
0.0152037
0.0118638
0.0278077
0.0206688
0.0152099
0.0118732
0.0278021
0.0206736
0.0152198
0.0118871
0.0278036
0.0206809
0.0152303
0.0118995
0.0278101
0.0206898
0.0152395
0.011908
0.0278194
0.0206979
0.0152448
0.0119102
0.027831
0.0207029
0.015244
0.0119041
0.0278494
0.0207036
0.0152373
0.0118902
0.027883
0.0207093
0.0152382
0.011883
0.0279113
0.0207978
0.0153311
0.0119497
0.0219095
0.016275
0.0119815
0.0094213
0.0218898
0.0162028
0.0119034
0.00936075
0.021866
0.0161925
0.0118926
0.00934949
0.0218495
0.0161858
0.0118899
0.00934973
0.0218359
0.0161794
0.0118885
0.00935503
0.0218269
0.0161751
0.0118877
0.00935976
0.0218233
0.0161718
0.0118849
0.00935923
0.0218239
0.0161681
0.0118791
0.00935239
0.0218292
0.0161642
0.0118711
0.00934129
0.0218425
0.0161622
0.0118646
0.00933162
0.0218427
0.0161616
0.0118637
0.00933004
0.0218296
0.0161625
0.0118687
0.00933755
0.0218245
0.0161664
0.011877
0.00934903
0.0218249
0.0161724
0.011886
0.00935971
0.0218297
0.0161799
0.0118941
0.00936717
0.0218367
0.0161866
0.0118989
0.00936941
0.0218456
0.0161904
0.0118981
0.00936413
0.0218602
0.0161907
0.0118922
0.009352
0.0218871
0.016195
0.0118924
0.00934518
0.0219105
0.0162644
0.0119637
0.00939319
0.017494
0.0129709
0.0095345
0.00751212
0.0174779
0.0129131
0.00947224
0.00746427
0.0174589
0.0129045
0.00946306
0.00745453
0.017446
0.0128989
0.00946049
0.00745411
0.0174361
0.0128942
0.00945957
0.00745819
0.0174308
0.0128923
0.00945993
0.00746268
0.0174301
0.0128916
0.00945939
0.00746366
0.017433
0.0128908
0.00945651
0.00745979
0.0174393
0.0128896
0.00945167
0.00745224
0.0174514
0.0128893
0.00944743
0.00744519
0.0174517
0.0128888
0.0094466
0.00744377
0.0174399
0.0128883