/*--------------------------------*- C++ -*----------------------------------*\
| =========                 |                                                 |
| \\      /  F ield         | foam-extend: Open Source CFD                    |
|  \\    /   O peration     | Version:     3.1                                |
|   \\  /    A nd           | Web:         http://www.extend-project.de       |
|    \\/     M anipulation  |                                                 |
\*---------------------------------------------------------------------------*/
FoamFile
{
    version     2.0;
    format      ascii;
    class       volVectorField;
    location    "0.0001";
    object      U;
}
// * * * * * * * * * * * * * * * * * * * * * * * * * * * * * * * * * * * * * //

dimensions      [0 1 -1 0 0 0 0];

internalField   nonuniform List<vector> 
6400
(
(0.0216755 0.000832863 0.00386016)
(0.0169123 0.000658165 0.000323349)
(0.0141833 0.000552569 -0.00121388)
(0.0130338 0.00050236 -0.00376849)
(0.0215383 0.00254455 0.00385739)
(0.0168067 0.00198595 0.00032612)
(0.0140934 0.00166589 -0.00121029)
(0.0129529 0.00153039 -0.00376469)
(0.0212745 0.00423107 0.0038539)
(0.0166013 0.00330053 0.000325262)
(0.0139209 0.00276823 -0.00121005)
(0.0127942 0.00254485 -0.00376399)
(0.0208768 0.00588518 0.00385248)
(0.016291 0.00459263 0.000324781)
(0.0136604 0.0038525 -0.00120985)
(0.0125543 0.00354239 -0.00376313)
(0.0203474 0.00749914 0.00385124)
(0.0158771 0.00585394 0.000324799)
(0.0133126 0.00491132 -0.00120916)
(0.0122338 0.00451661 -0.00376132)
(0.0196898 0.00906405 0.0038498)
(0.0153624 0.00707671 0.000325185)
(0.0128798 0.00593764 -0.00120794)
(0.011835 0.00546079 -0.00375844)
(0.0189085 0.010571 0.00384831)
(0.0147506 0.0082535 0.000325939)
(0.0123654 0.00692481 -0.00120625)
(0.0113612 0.00636844 -0.00375465)
(0.0180087 0.0120115 0.00384727)
(0.0140463 0.00937745 0.000327162)
(0.0117737 0.00786675 -0.0012042)
(0.0108168 0.00723371 -0.00375038)
(0.0169967 0.0133783 0.00384754)
(0.0132552 0.0104426 0.000328968)
(0.0111101 0.00875838 -0.00120205)
(0.0102072 0.0080518 -0.00374638)
(0.0158795 0.0146667 0.00385028)
(0.0123845 0.0114448 0.00033108)
(0.0103816 0.00959653 -0.00120038)
(0.00953918 0.00882005 -0.0037438)
(0.0146667 0.0158795 0.00385028)
(0.0114448 0.0123845 0.00033108)
(0.00959653 0.0103816 -0.00120038)
(0.00882005 0.00953918 -0.0037438)
(0.0133783 0.0169967 0.00384754)
(0.0104426 0.0132552 0.000328968)
(0.00875838 0.0111101 -0.00120205)
(0.0080518 0.0102072 -0.00374638)
(0.0120115 0.0180087 0.00384727)
(0.00937745 0.0140463 0.000327162)
(0.00786675 0.0117737 -0.0012042)
(0.00723371 0.0108168 -0.00375038)
(0.010571 0.0189085 0.00384831)
(0.0082535 0.0147506 0.000325939)
(0.00692481 0.0123654 -0.00120625)
(0.00636844 0.0113612 -0.00375465)
(0.00906405 0.0196898 0.0038498)
(0.00707671 0.0153624 0.000325185)
(0.00593764 0.0128798 -0.00120794)
(0.00546079 0.011835 -0.00375844)
(0.00749914 0.0203474 0.00385124)
(0.00585394 0.0158771 0.000324799)
(0.00491132 0.0133126 -0.00120916)
(0.00451661 0.0122338 -0.00376132)
(0.00588518 0.0208768 0.00385248)
(0.00459263 0.016291 0.000324781)
(0.0038525 0.0136604 -0.00120985)
(0.00354239 0.0125543 -0.00376313)
(0.00423107 0.0212745 0.0038539)
(0.00330053 0.0166013 0.000325262)
(0.00276823 0.0139209 -0.00121005)
(0.00254485 0.0127942 -0.00376399)
(0.00254455 0.0215383 0.00385739)
(0.00198595 0.0168067 0.00032612)
(0.00166589 0.0140934 -0.00121029)
(0.00153039 0.0129529 -0.00376469)
(0.000832863 0.0216755 0.00386016)
(0.000658165 0.0169123 0.000323349)
(0.000552569 0.0141833 -0.00121388)
(0.00050236 0.0130338 -0.00376849)
(0.0348085 0.00137754 0.00367286)
(0.0310722 0.00123712 0.00177684)
(0.0284165 0.00113612 8.93173e-05)
(0.0267839 0.00108095 -0.0019048)
(0.0345783 0.0041005 0.00366503)
(0.0308691 0.0036631 0.00176827)
(0.0282377 0.00335426 8.04683e-05)
(0.0266206 0.00316598 -0.00191456)
(0.034153 0.00679715 0.00366265)
(0.0304888 0.00606858 0.00176636)
(0.0278896 0.00555373 7.89265e-05)
(0.0262925 0.00523846 -0.00191575)
(0.0335117 0.00944689 0.0036617)
(0.029916 0.00843599 0.00176596)
(0.027365 0.00772009 7.90445e-05)
(0.0257972 0.00728171 -0.00191496)
(0.0326558 0.0120334 0.00366085)
(0.0291509 0.010748 0.00176601)
(0.0266643 0.00983675 7.98114e-05)
(0.0251354 0.00927899 -0.00191315)
(0.0315906 0.0145401 0.00365983)
(0.0281984 0.0129886 0.0017663)
(0.0257918 0.0118882 8.10443e-05)
(0.0243115 0.0112147 -0.00191043)
(0.0303243 0.0169515 0.00365884)
(0.027066 0.0151434 0.00176683)
(0.0247548 0.0138603 8.267e-05)
(0.0233327 0.013075 -0.00190699)
(0.0288671 0.0192541 0.00365831)
(0.0257638 0.0171996 0.00176771)
(0.023563 0.0157412 8.45458e-05)
(0.0222087 0.014848 -0.00190325)
(0.0272319 0.0214373 0.00365872)
(0.0243044 0.0191475 0.0017689)
(0.022229 0.0175217 8.63622e-05)
(0.0209521 0.0165246 -0.0018999)
(0.0254336 0.0234955 0.00365969)
(0.0227033 0.0209814 0.00176993)
(0.0207678 0.0191967 8.75709e-05)
(0.0195778 0.0181006 -0.00189787)
(0.0234955 0.0254336 0.00365969)
(0.0209814 0.0227033 0.00176993)
(0.0191967 0.0207678 8.75709e-05)
(0.0181006 0.0195778 -0.00189787)
(0.0214373 0.0272319 0.00365872)
(0.0191475 0.0243044 0.0017689)
(0.0175217 0.022229 8.63622e-05)
(0.0165246 0.0209521 -0.0018999)
(0.0192541 0.0288671 0.00365831)
(0.0171996 0.0257638 0.00176771)
(0.0157412 0.023563 8.45457e-05)
(0.014848 0.0222087 -0.00190325)
(0.0169515 0.0303243 0.00365884)
(0.0151434 0.027066 0.00176683)
(0.0138603 0.0247548 8.26699e-05)
(0.013075 0.0233327 -0.00190699)
(0.0145401 0.0315906 0.00365983)
(0.0129886 0.0281984 0.0017663)
(0.0118882 0.0257918 8.10442e-05)
(0.0112147 0.0243115 -0.00191043)
(0.0120334 0.0326558 0.00366085)
(0.010748 0.0291509 0.00176601)
(0.00983675 0.0266643 7.98113e-05)
(0.00927899 0.0251354 -0.00191315)
(0.00944689 0.0335117 0.0036617)
(0.00843599 0.029916 0.00176596)
(0.00772009 0.027365 7.90444e-05)
(0.00728171 0.0257972 -0.00191496)
(0.00679715 0.034153 0.00366265)
(0.00606858 0.0304888 0.00176636)
(0.00555373 0.0278896 7.89264e-05)
(0.00523846 0.0262925 -0.00191575)
(0.0041005 0.0345783 0.00366503)
(0.0036631 0.0308691 0.00176827)
(0.00335426 0.0282377 8.04682e-05)
(0.00316598 0.0266206 -0.00191456)
(0.00137754 0.0348085 0.00367286)
(0.00123712 0.0310722 0.00177684)
(0.00113612 0.0284165 8.93172e-05)
(0.00108095 0.0267839 -0.0019048)
(0.0323951 0.00127411 0.000599326)
(0.0300931 0.00119441 0.00118317)
(0.0282911 0.00112825 0.00123219)
(0.0269471 0.00108114 0.00139182)
(0.0321898 0.00381317 0.000602481)
(0.0299015 0.00354673 0.0011823)
(0.0281122 0.00333876 0.00123012)
(0.0267774 0.00318372 0.0013907)
(0.0317959 0.00632525 0.00060365)
(0.0295343 0.00587746 0.0011818)
(0.0277659 0.00552892 0.00122893)
(0.0264467 0.00526942 0.00138959)
(0.0311994 0.00879211 0.000604007)
(0.0289796 0.00817065 0.00118161)
(0.0272435 0.00768558 0.00122844)
(0.0259481 0.00732483 0.00138895)
(0.030402 0.0111993 0.00060451)
(0.0282377 0.0104097 0.00118154)
(0.0265451 0.00979243 0.00122814)
(0.0252815 0.0093337 0.00138846)
(0.0294087 0.0135316 0.000605304)
(0.0273134 0.0125791 0.00118155)
(0.0256748 0.0118339 0.00122787)
(0.0244511 0.0112803 0.00138795)
(0.0282275 0.015775 0.000606443)
(0.0262143 0.014665 0.00118164)
(0.0246405 0.0137961 0.00122759)
(0.0234646 0.0131505 0.00138739)
(0.0268684 0.0179174 0.000607929)
(0.0249508 0.0166554 0.00118181)
(0.0234522 0.0156672 0.00122731)
(0.0223325 0.0149324 0.00138676)
(0.0253439 0.0199494 0.000609582)
(0.0235356 0.0185412 0.00118199)
(0.0221232 0.0174384 0.00122701)
(0.0210679 0.0166173 0.00138612)
(0.0236694 0.021866 0.000610692)
(0.0219848 0.0203173 0.00118201)
(0.0206688 0.0191053 0.00122675)
(0.0196861 0.0182013 0.00138566)
(0.021866 0.0236694 0.000610692)
(0.0203173 0.0219848 0.00118201)
(0.0191053 0.0206688 0.00122675)
(0.0182013 0.0196861 0.00138566)
(0.0199494 0.0253439 0.000609582)
(0.0185412 0.0235356 0.00118199)
(0.0174384 0.0221232 0.00122701)
(0.0166173 0.0210679 0.00138612)
(0.0179174 0.0268684 0.000607929)
(0.0166554 0.0249508 0.00118181)
(0.0156672 0.0234522 0.00122731)
(0.0149324 0.0223325 0.00138676)
(0.015775 0.0282275 0.000606443)
(0.014665 0.0262143 0.00118164)
(0.0137961 0.0246405 0.00122759)
(0.0131505 0.0234646 0.00138739)
(0.0135316 0.0294087 0.000605305)
(0.0125791 0.0273134 0.00118155)
(0.0118339 0.0256748 0.00122787)
(0.0112803 0.0244511 0.00138795)
(0.0111993 0.030402 0.00060451)
(0.0104097 0.0282377 0.00118154)
(0.00979243 0.0265451 0.00122814)
(0.0093337 0.0252815 0.00138846)
(0.00879211 0.0311994 0.000604007)
(0.00817065 0.0289796 0.00118161)
(0.00768558 0.0272435 0.00122844)
(0.00732483 0.0259481 0.00138895)
(0.00632525 0.0317959 0.00060365)
(0.00587746 0.0295343 0.0011818)
(0.00552892 0.0277659 0.00122893)
(0.00526942 0.0264467 0.00138959)
(0.00381317 0.0321898 0.000602481)
(0.00354673 0.0299015 0.0011823)
(0.00333876 0.0281122 0.00123012)
(0.00318372 0.0267774 0.0013907)
(0.00127411 0.0323951 0.000599326)
(0.00119441 0.0300931 0.00118317)
(0.00112825 0.0282911 0.00123219)
(0.00108114 0.0269471 0.00139182)
(0.0253393 0.000992497 -0.00131585)
(0.0237556 0.000938093 0.000375879)
(0.0225454 0.000893918 0.00158975)
(0.0216577 0.000862796 0.00295298)
(0.0251793 0.00297934 -0.00131077)
(0.0236051 0.00279621 0.000379323)
(0.0224024 0.00265699 0.00159263)
(0.0215205 0.00255526 0.00295587)
(0.0248716 0.00494528 -0.00130811)
(0.0233158 0.00463763 0.000380774)
(0.0221268 0.00440401 0.0015932)
(0.0212553 0.00423319 0.00295585)
(0.0244061 0.0068758 -0.0013066)
(0.0228789 0.00644904 0.000381333)
(0.0217115 0.00612388 0.00159294)
(0.0208553 0.00588642 0.00295485)
(0.0237838 0.00875946 -0.00130501)
(0.0222944 0.00821747 0.00038154)
(0.0211558 0.00780383 0.00159215)
(0.0203203 0.00750211 0.00295301)
(0.0230084 0.0105847 -0.001303)
(0.0215658 0.00993098 0.000381623)
(0.0204631 0.00943163 0.00159095)
(0.0196536 0.00906766 0.00295041)
(0.0220859 0.0123409 -0.00130055)
(0.0206992 0.0115787 0.000381651)
(0.0196395 0.0109962 0.00158944)
(0.0188613 0.0105717 0.00294721)
(0.0210241 0.0140185 -0.00129792)
(0.0197026 0.0131512 0.000381613)
(0.0186933 0.0124882 0.00158779)
(0.0179519 0.0120046 0.00294378)
(0.0198327 0.0156103 -0.00129556)
(0.0185862 0.0146415 0.000381462)
(0.0176348 0.0139007 0.00158626)
(0.0169363 0.0133595 0.00294073)
(0.0185235 0.017112 -0.00129419)
(0.0173624 0.0160454 0.000381225)
(0.0164763 0.0152301 0.00158525)
(0.0158264 0.0146332 0.00293884)
(0.017112 0.0185235 -0.00129419)
(0.0160454 0.0173624 0.000381225)
(0.0152301 0.0164763 0.00158525)
(0.0146332 0.0158264 0.00293884)
(0.0156103 0.0198327 -0.00129556)
(0.0146415 0.0185862 0.000381462)
(0.0139007 0.0176348 0.00158626)
(0.0133595 0.0169363 0.00294073)
(0.0140185 0.0210241 -0.00129792)
(0.0131512 0.0197026 0.000381613)
(0.0124882 0.0186933 0.00158779)
(0.0120046 0.0179519 0.00294378)
(0.0123409 0.0220859 -0.00130055)
(0.0115787 0.0206992 0.000381651)
(0.0109962 0.0196395 0.00158944)
(0.0105717 0.0188613 0.00294721)
(0.0105847 0.0230084 -0.001303)
(0.00993098 0.0215658 0.000381623)
(0.00943163 0.0204631 0.00159095)
(0.00906766 0.0196536 0.00295041)
(0.00875946 0.0237838 -0.00130501)
(0.00821747 0.0222944 0.00038154)
(0.00780383 0.0211558 0.00159215)
(0.00750212 0.0203203 0.00295301)
(0.0068758 0.0244061 -0.0013066)
(0.00644904 0.0228789 0.000381333)
(0.00612388 0.0217115 0.00159294)
(0.00588642 0.0208553 0.00295485)
(0.00494528 0.0248716 -0.00130811)
(0.00463763 0.0233158 0.000380774)
(0.00440401 0.0221268 0.0015932)
(0.00423319 0.0212553 0.00295585)
(0.00297934 0.0251793 -0.00131077)
(0.00279621 0.0236051 0.000379323)
(0.00265699 0.0224024 0.00159263)
(0.00255526 0.0215205 0.00295587)
(0.000992497 0.0253393 -0.00131585)
(0.000938093 0.0237556 0.000375879)
(0.000893918 0.0225454 0.00158975)
(0.000862796 0.0216577 0.00295298)
(0.0184207 0.000718644 -0.00183205)
(0.0172314 0.000677712 -3.7094e-05)
(0.0163842 0.000646614 0.00146051)
(0.0158362 0.000627157 0.00303998)
(0.0183031 0.00216344 -0.00182834)
(0.0171217 0.00202587 -3.38977e-05)
(0.0162802 0.00192841 0.00146345)
(0.0157364 0.00186579 0.0030425)
(0.0180796 0.00359343 -0.00182572)
(0.0169122 0.00336237 -3.20541e-05)
(0.0160804 0.0031989 0.00146455)
(0.015543 0.00309367 0.00304291)
(0.0177424 0.00499787 -0.0018239)
(0.0165965 0.0046773 -3.11259e-05)
(0.0157797 0.00444983 0.00146461)
(0.0152517 0.00430362 0.00304216)
(0.0172919 0.00636848 -0.00182206)
(0.0161743 0.00596127 -3.06759e-05)
(0.0153775 0.00567195 0.00146391)
(0.0148621 0.00548634 0.00304027)
(0.0167307 0.00769699 -0.00181988)
(0.015648 0.00720569 -3.04568e-05)
(0.0148761 0.00685642 0.00146262)
(0.0143763 0.00663265 0.00303737)
(0.0160627 0.0089757 -0.00181736)
(0.0150217 0.00840275 -3.03725e-05)
(0.0142795 0.00799522 0.0014609)
(0.0137987 0.00773419 0.00303372)
(0.0152933 0.0101978 -0.00181476)
(0.0143008 0.00954565 -3.04081e-05)
(0.0135936 0.00908149 0.00145902)
(0.0131354 0.00878391 0.00302981)
(0.0144293 0.0113578 -0.00181255)
(0.0134926 0.010629 -3.05676e-05)
(0.0128257 0.01011 0.0014573)
(0.0123939 0.00977659 0.00302639)
(0.0134787 0.0124519 -0.00181128)
(0.0126056 0.0116494 -3.07759e-05)
(0.0119843 0.0110779 0.00145622)
(0.0115829 0.0107096 0.00302432)
(0.0124519 0.0134787 -0.00181128)
(0.0116494 0.0126056 -3.07759e-05)
(0.0110779 0.0119843 0.00145622)
(0.0107096 0.0115829 0.00302432)
(0.0113578 0.0144293 -0.00181255)
(0.010629 0.0134926 -3.05676e-05)
(0.01011 0.0128257 0.0014573)
(0.00977659 0.0123939 0.00302639)
(0.0101978 0.0152933 -0.00181476)
(0.00954565 0.0143008 -3.04081e-05)
(0.00908149 0.0135936 0.00145902)
(0.00878391 0.0131354 0.00302982)
(0.0089757 0.0160627 -0.00181736)
(0.00840275 0.0150217 -3.03725e-05)
(0.00799522 0.0142795 0.00146091)
(0.00773419 0.0137987 0.00303372)
(0.00769699 0.0167307 -0.00181988)
(0.00720569 0.015648 -3.04568e-05)
(0.00685642 0.0148761 0.00146262)
(0.00663265 0.0143763 0.00303737)
(0.00636848 0.0172919 -0.00182206)
(0.00596127 0.0161744 -3.06759e-05)
(0.00567195 0.0153775 0.00146391)
(0.00548634 0.0148621 0.00304027)
(0.00499787 0.0177424 -0.0018239)
(0.0046773 0.0165965 -3.1126e-05)
(0.00444983 0.0157797 0.00146461)
(0.00430362 0.0152518 0.00304216)
(0.00359343 0.0180796 -0.00182572)
(0.00336237 0.0169122 -3.20541e-05)
(0.0031989 0.0160804 0.00146455)
(0.00309367 0.015543 0.00304291)
(0.00216344 0.0183031 -0.00182834)
(0.00202587 0.0171217 -3.38978e-05)
(0.00192841 0.0162802 0.00146345)
(0.00186579 0.0157364 0.0030425)
(0.000718644 0.0184207 -0.00183205)
(0.000677712 0.0172314 -3.70941e-05)
(0.000646614 0.0163842 0.00146051)
(0.000627157 0.0158362 0.00303998)
(0.0131735 0.000512541 -0.00160299)
(0.012249 0.000480651 -0.000138043)
(0.0116292 0.000457765 0.00116306)
(0.0112807 0.000445135 0.00248597)
(0.0130883 0.00154611 -0.00160121)
(0.0121704 0.00143912 -0.000136515)
(0.0115553 0.00136771 0.0011644)
(0.0112102 0.00132781 0.00248689)
(0.0129286 0.00256936 -0.00159936)
(0.0120217 0.00238952 -0.000135213)
(0.0114139 0.00226978 0.00116516)
(0.0110729 0.00220279 0.00248715)
(0.0126884 0.0035746 -0.00159788)
(0.0117983 0.00332492 -0.000134379)
(0.0112016 0.00315828 0.00116532)
(0.0108665 0.00306524 0.0024867)
(0.0123679 0.00455596 -0.00159638)
(0.0114999 0.00423865 -0.000133898)
(0.0109177 0.0040267 0.00116488)
(0.0105905 0.00390865 0.00248535)
(0.0119687 0.00550758 -0.00159465)
(0.0111278 0.00512466 -0.000133636)
(0.0105637 0.00486878 0.00116392)
(0.0102463 0.00472654 0.00248313)
(0.0114934 0.00642396 -0.00159272)
(0.0106848 0.00597738 -0.000133519)
(0.0101423 0.00567882 0.00116258)
(0.00983678 0.00551293 0.00248026)
(0.0109455 0.00730013 -0.00159078)
(0.0101744 0.00679189 -0.000133519)
(0.00965726 0.00645186 0.00116107)
(0.00936597 0.00626271 0.00247717)
(0.0103296 0.00813188 -0.00158913)
(0.00960154 0.00756415 -0.000133614)
(0.00911357 0.00718399 0.00115972)
(0.00883896 0.00697196 0.00247446)
(0.00965084 0.00891604 -0.00158817)
(0.00897168 0.00829125 -0.000133739)
(0.00851682 0.00787268 0.00115888)
(0.00826142 0.0076384 0.00247284)
(0.00891604 0.00965084 -0.00158817)
(0.00829125 0.00897168 -0.000133739)
(0.00787268 0.00851682 0.00115888)
(0.0076384 0.00826142 0.00247284)
(0.00813188 0.0103296 -0.00158913)
(0.00756415 0.00960154 -0.000133614)
(0.00718399 0.00911357 0.00115972)
(0.00697197 0.00883896 0.00247446)
(0.00730013 0.0109455 -0.00159078)
(0.00679189 0.0101745 -0.000133519)
(0.00645186 0.00965726 0.00116107)
(0.00626271 0.00936597 0.00247717)
(0.00642396 0.0114934 -0.00159272)
(0.00597738 0.0106848 -0.000133519)
(0.00567882 0.0101423 0.00116258)
(0.00551293 0.00983678 0.00248026)
(0.00550759 0.0119687 -0.00159465)
(0.00512466 0.0111278 -0.000133636)
(0.00486878 0.0105637 0.00116392)
(0.00472654 0.0102463 0.00248313)
(0.00455596 0.0123679 -0.00159638)
(0.00423865 0.0114999 -0.000133898)
(0.0040267 0.0109177 0.00116488)
(0.00390865 0.0105905 0.00248535)
(0.0035746 0.0126884 -0.00159788)
(0.00332492 0.0117983 -0.000134379)
(0.00315828 0.0112016 0.00116532)
(0.00306524 0.0108665 0.0024867)
(0.00256936 0.0129286 -0.00159937)
(0.00238952 0.0120217 -0.000135213)
(0.00226978 0.0114139 0.00116516)
(0.00220279 0.0110729 0.00248715)
(0.00154611 0.0130883 -0.00160121)
(0.00143912 0.0121704 -0.000136515)
(0.00136771 0.0115553 0.0011644)
(0.00132782 0.0112102 0.00248689)
(0.000512541 0.0131735 -0.00160299)
(0.000480651 0.012249 -0.000138043)
(0.000457765 0.0116292 0.00116306)
(0.000445135 0.0112807 0.00248597)
(0.00958442 0.000372545 -0.00117241)
(0.00886222 0.00034759 -0.000105476)
(0.00839304 0.000330197 0.000870702)
(0.00815118 0.000321281 0.00183953)
(0.00952179 0.00112476 -0.00117199)
(0.00880499 0.00104114 -0.000105288)
(0.00833977 0.000986971 0.000870726)
(0.00810053 0.000959134 0.00183928)
(0.00940573 0.00186958 -0.00117098)
(0.00869763 0.00172888 -0.000104671)
(0.00823795 0.00163803 0.00087098)
(0.0080016 0.00159134 0.00183925)
(0.00923155 0.00260149 -0.00117005)
(0.00853666 0.00240601 -0.000104131)
(0.00808536 0.00227954 0.000871089)
(0.00785316 0.00221466 0.001839)
(0.00899938 0.00331628 -0.00116907)
(0.00832179 0.00306775 -0.000103764)
(0.00788158 0.00290685 0.000870868)
(0.00765486 0.00282454 0.00183823)
(0.0087103 0.0040097 -0.00116796)
(0.00805398 0.00370973 -0.000103544)
(0.00762746 0.00351549 0.000870293)
(0.00740754 0.00341633 0.00183688)
(0.00836609 0.0046777 -0.00116673)
(0.00773499 0.00432792 -0.000103438)
(0.00732481 0.00410132 0.000869441)
(0.0071131 0.00398574 0.00183506)
(0.00796912 0.00531658 -0.0011655)
(0.00736729 0.00491865 -0.000103417)
(0.00697618 0.0046607 0.000868466)
(0.00677421 0.004529 0.00183306)
(0.00752237 0.00592308 -0.00116445)
(0.00695396 0.00547883 -0.000103457)
(0.00658478 0.00519061 0.000867582)
(0.00639426 0.0050431 0.0018313)
(0.00702935 0.00649457 -0.00116382)
(0.00649874 0.00600603 -0.000103518)
(0.00615438 0.00568891 0.000867036)
(0.00597703 0.00552607 0.00183025)
(0.00649457 0.00702935 -0.00116382)
(0.00600603 0.00649874 -0.000103518)
(0.00568891 0.00615438 0.000867036)
(0.00552607 0.00597703 0.00183025)
(0.00592308 0.00752237 -0.00116445)
(0.00547883 0.00695396 -0.000103457)
(0.00519061 0.00658478 0.000867582)
(0.0050431 0.00639426 0.0018313)
(0.00531658 0.00796912 -0.0011655)
(0.00491865 0.00736729 -0.000103417)
(0.0046607 0.00697618 0.000868466)
(0.004529 0.00677421 0.00183306)
(0.0046777 0.00836609 -0.00116673)
(0.00432792 0.00773499 -0.000103438)
(0.00410132 0.00732482 0.000869441)
(0.00398574 0.0071131 0.00183506)
(0.0040097 0.0087103 -0.00116796)
(0.00370973 0.00805398 -0.000103544)
(0.00351549 0.00762746 0.000870294)
(0.00341633 0.00740754 0.00183688)
(0.00331628 0.00899938 -0.00116907)
(0.00306775 0.00832179 -0.000103764)
(0.00290685 0.00788158 0.000870868)
(0.00282454 0.00765486 0.00183823)
(0.00260149 0.00923155 -0.00117005)
(0.00240601 0.00853666 -0.000104131)
(0.00227954 0.00808536 0.000871089)
(0.00221466 0.00785316 0.001839)
(0.00186958 0.00940573 -0.00117098)
(0.00172888 0.00869763 -0.000104671)
(0.00163803 0.00823795 0.00087098)
(0.00159134 0.0080016 0.00183925)
(0.00112476 0.00952179 -0.00117199)
(0.00104114 0.00880499 -0.000105288)
(0.000986972 0.00833977 0.000870727)
(0.000959134 0.00810053 0.00183928)
(0.000372545 0.00958442 -0.00117241)
(0.00034759 0.00886222 -0.000105477)
(0.000330197 0.00839304 0.000870702)
(0.000321281 0.00815118 0.00183953)
(0.00718121 0.000279254 -0.00079656)
(0.00661954 0.000259817 -4.899e-05)
(0.00625697 0.000246347 0.00064198)
(0.00607381 0.00023955 0.00131834)
(0.00713405 0.00084301 -0.000796788)
(0.00657663 0.000777936 -4.94441e-05)
(0.00621725 0.000735992 0.000641395)
(0.00603617 0.000714808 0.0013176)
(0.00704713 0.00140124 -0.000796367)
(0.0064965 0.00129165 -4.92984e-05)
(0.00614143 0.00122129 0.000641315)
(0.00596254 0.00118577 0.00131739)
(0.00691686 0.00194988 -0.000795903)
(0.00637654 0.00179756 -4.90361e-05)
(0.00602797 0.00169956 0.000641342)
(0.00585226 0.00165018 0.00131725)
(0.00674336 0.00248584 -0.000795377)
(0.00621656 0.00229213 -4.88166e-05)
(0.0058766 0.00216743 0.000641246)
(0.00570509 0.00210473 0.00131688)
(0.00652743 0.00300594 -0.000794769)
(0.00601723 0.00277212 -4.86712e-05)
(0.00568791 0.00262157 0.000640955)
(0.00552159 0.00254604 0.00131618)
(0.00627033 0.0035071 -0.000794088)
(0.0057798 0.00323449 -4.85937e-05)
(0.00546313 0.00305893 0.00064049)
(0.00530305 0.00297093 0.00131519)
(0.00597375 0.00398649 -0.000793388)
(0.00550598 0.00367648 -4.85677e-05)
(0.00520402 0.00347673 0.00063994)
(0.0050513 0.00337655 0.00131408)
(0.00563978 0.00444155 -0.000792771)
(0.00519791 0.00409564 -4.85757e-05)
(0.0049128 0.00387261 0.000639435)
(0.00476867 0.00376057 0.00131308)
(0.00527086 0.00487016 -0.000792391)
(0.0048582 0.00449 -4.85997e-05)
(0.00459212 0.00424478 0.000639121)
(0.0044578 0.00412129 0.00131248)
(0.00487016 0.00527086 -0.000792391)
(0.00449 0.0048582 -4.85997e-05)
(0.00424478 0.00459212 0.000639121)
(0.00412129 0.0044578 0.00131248)
(0.00444155 0.00563978 -0.000792771)
(0.00409564 0.00519791 -4.85757e-05)
(0.00387261 0.00491281 0.000639435)
(0.00376057 0.00476867 0.00131308)
(0.00398649 0.00597375 -0.000793388)
(0.00367648 0.00550598 -4.85677e-05)
(0.00347673 0.00520402 0.00063994)
(0.00337655 0.0050513 0.00131408)
(0.0035071 0.00627033 -0.000794088)
(0.00323449 0.0057798 -4.85937e-05)
(0.00305893 0.00546313 0.00064049)
(0.00297093 0.00530305 0.00131519)
(0.00300594 0.00652743 -0.000794769)
(0.00277212 0.00601723 -4.86712e-05)
(0.00262157 0.00568791 0.000640955)
(0.00254604 0.00552159 0.00131618)
(0.00248584 0.00674337 -0.000795377)
(0.00229213 0.00621656 -4.88166e-05)
(0.00216743 0.0058766 0.000641246)
(0.00210473 0.00570509 0.00131688)
(0.00194988 0.00691686 -0.000795903)
(0.00179756 0.00637654 -4.90361e-05)
(0.00169956 0.00602797 0.000641342)
(0.00165018 0.00585226 0.00131725)
(0.00140124 0.00704713 -0.000796367)
(0.00129165 0.0064965 -4.92984e-05)
(0.00122129 0.00614143 0.000641315)
(0.00118577 0.00596254 0.00131739)
(0.00084301 0.00713405 -0.000796788)
(0.000777936 0.00657663 -4.9444e-05)
(0.000735992 0.00621725 0.000641395)
(0.000714808 0.00603617 0.0013176)
(0.000279254 0.00718121 -0.00079656)
(0.000259817 0.00661954 -4.899e-05)
(0.000246348 0.00625697 0.00064198)
(0.00023955 0.00607381 0.00131834)
(0.00551998 0.000214867 -0.000537675)
(0.00508479 0.000199792 -9.07423e-06)
(0.00480193 0.000189275 0.000478278)
(0.00465632 0.000183878 0.000953221)
(0.00548369 0.000648284 -0.000538074)
(0.00505179 0.000597836 -9.67348e-06)
(0.00477142 0.00056507 0.000477582)
(0.00462743 0.000548186 0.000952454)
(0.00541686 0.00107742 -0.000537965)
(0.00499022 0.000992439 -9.75262e-06)
(0.00471321 0.000937453 0.000477367)
(0.00457098 0.000909142 0.000952184)
(0.00531675 0.00149923 -0.000537794)
(0.00489811 0.00138106 -9.66928e-06)
(0.0046262 0.00130446 0.000477337)
(0.00448652 0.00126506 0.000952092)
(0.00518351 0.00191134 -0.000537561)
(0.00477537 0.00176104 -9.56529e-06)
(0.00451021 0.00166354 0.000477298)
(0.0043739 0.00161348 0.000951947)
(0.00501773 0.00231131 -0.000537267)
(0.0046225 0.00212989 -9.48442e-06)
(0.00436568 0.00201218 0.000477168)
(0.00423355 0.00195186 0.000951637)
(0.0048204 0.00269678 -0.000536917)
(0.00444045 0.00248528 -9.43452e-06)
(0.00419352 0.00234804 0.000476942)
(0.00406639 0.00227779 0.000951159)
(0.00459276 0.00306552 -0.000536539)
(0.00423046 0.00282506 -9.40952e-06)
(0.00399502 0.00266898 0.000476661)
(0.00387375 0.00258907 0.00095059)
(0.00433637 0.00341551 -0.000536187)
(0.00399411 0.00314731 -9.40146e-06)
(0.00377178 0.00297315 0.000476397)
(0.0036573 0.00288387 0.000950068)
(0.00405302 0.00374507 -0.000535961)
(0.00373331 0.00345044 -9.40684e-06)
(0.00352575 0.00325906 0.00047623)
(0.00341899 0.00316079 0.000949749)
(0.00374507 0.00405302 -0.000535961)
(0.00345044 0.00373331 -9.40684e-06)
(0.00325906 0.00352575 0.00047623)
(0.00316079 0.00341899 0.000949749)
(0.00341551 0.00433637 -0.000536187)
(0.00314731 0.00399411 -9.40148e-06)
(0.00297315 0.00377178 0.000476397)
(0.00288387 0.0036573 0.000950068)
(0.00306552 0.00459276 -0.00053654)
(0.00282506 0.00423046 -9.40955e-06)
(0.00266898 0.00399502 0.000476661)
(0.00258908 0.00387375 0.00095059)
(0.00269678 0.0048204 -0.000536917)
(0.00248528 0.00444045 -9.43454e-06)
(0.00234804 0.00419352 0.000476942)
(0.00227779 0.00406639 0.000951159)
(0.00231131 0.00501773 -0.000537267)
(0.00212989 0.0046225 -9.48445e-06)
(0.00201218 0.00436568 0.000477168)
(0.00195186 0.00423355 0.000951637)
(0.00191134 0.00518351 -0.000537561)
(0.00176104 0.00477537 -9.56531e-06)
(0.00166354 0.00451021 0.000477298)
(0.00161348 0.00437391 0.000951947)
(0.00149923 0.00531675 -0.000537794)
(0.00138106 0.00489811 -9.66931e-06)
(0.00130446 0.0046262 0.000477337)
(0.00126506 0.00448652 0.000952093)
(0.00107742 0.00541686 -0.000537965)
(0.000992439 0.00499022 -9.75264e-06)
(0.000937453 0.00471321 0.000477367)
(0.000909142 0.00457098 0.000952184)
(0.000648284 0.00548369 -0.000538074)
(0.000597836 0.00505179 -9.67346e-06)
(0.00056507 0.00477142 0.000477582)
(0.000548186 0.00462743 0.000952454)
(0.000214867 0.00551998 -0.000537675)
(0.000199792 0.00508479 -9.07426e-06)
(0.000189275 0.00480193 0.000478278)
(0.000183878 0.00465632 0.000953221)
(0.0043088 0.000167874 -0.00037639)
(0.00397179 0.000156192 9.94335e-06)
(0.00375043 0.000147963 0.000363171)
(0.00363319 0.000143636 0.000708199)
(0.00428049 0.000506214 -0.000376747)
(0.003946 0.000467134 9.42581e-06)
(0.00372657 0.000441479 0.000362586)
(0.00361059 0.000427878 0.000707578)
(0.00422828 0.000841192 -0.000376759)
(0.00389785 0.00077535 9.28406e-06)
(0.00368106 0.000732289 0.00036236)
(0.00356649 0.00070947 0.000707331)
(0.00415009 0.00117044 -0.000376727)
(0.00382586 0.00107888 9.28181e-06)
(0.00361307 0.00101888 0.000362307)
(0.00350057 0.000987103 0.000707263)
(0.00404605 0.00149214 -0.000376645)
(0.00372997 0.00137566 9.31876e-06)
(0.00352248 0.00129928 0.000362287)
(0.00341272 0.00125889 0.000707213)
(0.00391666 0.00180438 -0.000376511)
(0.00361059 0.00166377 9.35875e-06)
(0.00340965 0.00157155 0.000362233)
(0.00330329 0.00152287 0.000707089)
(0.00376267 0.0021053 -0.000376331)
(0.00346846 0.0019414 9.3906e-06)
(0.00327528 0.00183389 0.000362131)
(0.00317297 0.00177719 0.000706871)
(0.00358506 0.00239316 -0.000376118)
(0.00330453 0.00220685 9.41384e-06)
(0.00312035 0.00208461 0.000361995)
(0.00302277 0.00202015 0.000706592)
(0.00338503 0.00266638 -0.000375905)
(0.00312001 0.00245862 9.4292e-06)
(0.00294608 0.00232225 0.000361861)
(0.00285396 0.00225028 0.000706325)
(0.00316394 0.00292361 -0.000375762)
(0.00291636 0.00269542 9.43235e-06)
(0.00275396 0.00254564 0.000361774)
(0.00266802 0.00246647 0.000706156)
(0.00292361 0.00316394 -0.000375762)
(0.00269542 0.00291636 9.43234e-06)
(0.00254564 0.00275396 0.000361774)
(0.00246647 0.00266802 0.000706156)
(0.00266638 0.00338503 -0.000375905)
(0.00245862 0.00312001 9.42918e-06)
(0.00232225 0.00294608 0.000361861)
(0.00225028 0.00285396 0.000706325)
(0.00239316 0.00358506 -0.000376118)
(0.00220685 0.00330453 9.41382e-06)
(0.00208461 0.00312035 0.000361995)
(0.00202015 0.00302277 0.000706592)
(0.0021053 0.00376267 -0.000376331)
(0.0019414 0.00346846 9.39057e-06)
(0.00183389 0.00327528 0.000362131)
(0.00177719 0.00317297 0.000706871)
(0.00180438 0.00391666 -0.000376511)
(0.00166377 0.00361059 9.35872e-06)
(0.00157155 0.00340965 0.000362233)
(0.00152287 0.00330329 0.000707089)
(0.00149214 0.00404605 -0.000376645)
(0.00137566 0.00372997 9.31873e-06)
(0.00129928 0.00352248 0.000362287)
(0.00125889 0.00341272 0.000707213)
(0.00117044 0.00415009 -0.000376727)
(0.00107888 0.00382586 9.28178e-06)
(0.00101888 0.00361307 0.000362307)
(0.000987103 0.00350057 0.000707263)
(0.000841192 0.00422828 -0.000376759)
(0.00077535 0.00389785 9.28401e-06)
(0.000732289 0.00368106 0.00036236)
(0.00070947 0.0035665 0.000707331)
(0.000506214 0.00428049 -0.000376747)
(0.000467134 0.003946 9.42574e-06)
(0.000441479 0.00372657 0.000362586)
(0.000427878 0.00361059 0.000707578)
(0.000167874 0.0043088 -0.00037639)
(0.000156192 0.00397179 9.94331e-06)
(0.000147963 0.00375043 0.000363171)
(0.000143636 0.00363319 0.000708199)
(0.00338472 0.000131946 -0.000277092)
(0.00312318 0.000122878 1.52621e-05)
(0.00294989 0.000116439 0.000280379)
(0.00285596 0.000112987 0.000540629)
(0.00336251 0.000397722 -0.000277351)
(0.0031029 0.000367392 1.48804e-05)
(0.0029311 0.000347308 0.00027995)
(0.00283815 0.00033642 0.000540177)
(0.00332145 0.000660844 -0.000277387)
(0.00306499 0.000609746 1.4751e-05)
(0.00289526 0.000576031 0.000279763)
(0.00280345 0.000557753 0.000539979)
(0.00325997 0.00091946 -0.000277402)
(0.00300833 0.000848394 1.4722e-05)
(0.00284173 0.000801409 0.000279709)
(0.00275158 0.000775949 0.000539926)
(0.00317819 0.00117214 -0.000277378)
(0.00293287 0.00108173 1.47296e-05)
(0.00277043 0.00102191 0.000279694)
(0.00268249 0.000989533 0.000539906)
(0.0030765 0.00141739 -0.000277312)
(0.00283896 0.00130825 1.47496e-05)
(0.00268165 0.00123602 0.000279671)
(0.00259645 0.00119698 0.000539855)
(0.00295551 0.00165375 -0.000277206)
(0.00272718 0.00152652 1.47724e-05)
(0.00257596 0.00144232 0.000279624)
(0.00249402 0.00139685 0.00053975)
(0.00281599 0.00187985 -0.000277069)
(0.00259828 0.00173523 1.47945e-05)
(0.00245411 0.0016395 0.000279556)
(0.00237597 0.00158782 0.000539605)