/*--------------------------------*- C++ -*----------------------------------*\
| =========                 |                                                 |
| \\      /  F ield         | foam-extend: Open Source CFD                    |
|  \\    /   O peration     | Version:     3.1                                |
|   \\  /    A nd           | Web:         http://www.extend-project.de       |
|    \\/     M anipulation  |                                                 |
\*---------------------------------------------------------------------------*/
FoamFile
{
    version     2.0;
    format      ascii;
    class       surfaceScalarField;
    location    "2.6";
    object      meshPhi;
}
// * * * * * * * * * * * * * * * * * * * * * * * * * * * * * * * * * * * * * //

dimensions      [0 3 -1 0 0 0 0];

internalField   nonuniform List<scalar> 
41600
(
9.58225e-09
1.92422e-09
-1.73937e-11
1.81387e-11
1.84441e-08
5.69105e-09
-5.05138e-11
5.276e-11
2.65087e-08
9.3345e-09
-7.95752e-11
8.33972e-11
3.39811e-08
1.29855e-08
-1.03085e-10
1.08689e-10
4.10251e-08
1.68185e-08
-1.18469e-10
1.26227e-10
4.77629e-08
2.0999e-08
-1.20398e-10
1.30896e-10
5.42676e-08
2.56918e-08
-9.90294e-11
1.13136e-10
6.05482e-08
3.10694e-08
-3.70162e-11
5.6023e-11
6.6523e-08
3.73166e-08
9.55224e-11
-6.9668e-11
7.19815e-08
4.46293e-08
3.49557e-10
-3.1383e-10
7.65398e-08
5.32077e-08
8.11565e-10
-7.61008e-10
7.96143e-08
6.32373e-08
1.62702e-09
-1.55282e-09
8.04785e-08
7.48447e-08
3.03294e-09
-2.91814e-09
7.8567e-08
8.79543e-08
5.36897e-09
-5.18371e-09
7.41813e-08
1.01435e-07
8.81175e-09
-8.56924e-09
1.29947e-07
1.77546e-08
-2.51988e-08
2.85846e-08
3.76401e-09
-5.26665e-11
5.48983e-11
5.50156e-08
1.11297e-08
-1.53165e-10
1.59892e-10
7.90642e-08
1.8246e-08
-2.42017e-10
2.53457e-10
1.01343e-07
2.53641e-08
-3.15315e-10
3.32083e-10
1.22343e-07
3.28194e-08
-3.66338e-10
3.8955e-10
1.42436e-07
4.09265e-08
-3.80901e-10
4.12292e-10
1.61854e-07
4.99962e-08
-3.32649e-10
3.74801e-10
1.8065e-07
6.03495e-08
-1.75352e-10
2.32092e-10
1.98624e-07
7.23241e-08
1.69735e-10
-9.2708e-11
2.15216e-07
8.62693e-08
8.34967e-10
-7.28966e-10
2.29376e-07
1.0252e-07
2.04028e-09
-1.89148e-09
2.39468e-07
1.21336e-07
4.1444e-09
-3.92915e-09
2.43399e-07
1.42759e-07
7.70441e-09
-7.37901e-09
2.39407e-07
1.66265e-07
1.34555e-08
-1.29437e-08
2.28071e-07
1.89387e-07
2.16477e-08
-2.09456e-08
2.21669e-07
3.89009e-08
-5.08306e-08
4.71232e-08
5.4447e-09
-8.93996e-11
9.31033e-11
9.06823e-08
1.60937e-08
-2.60681e-10
2.71838e-10
1.30299e-07
2.63661e-08
-4.14291e-10
4.33261e-10
1.66987e-07
3.66151e-08
-5.45553e-10
5.73349e-10
2.01565e-07
4.73134e-08
-6.46355e-10
6.84805e-10
2.34664e-07
5.8898e-08
-6.98262e-10
7.502e-10
2.66709e-07
7.17939e-08
-6.66425e-10
7.36075e-10
2.97864e-07
8.64324e-08
-4.90109e-10
5.83654e-10
3.27934e-07
1.03256e-07
-6.74745e-11
1.93966e-10
3.56205e-07
1.2271e-07
7.68554e-10
-5.95596e-10
3.81246e-07
1.45192e-07
2.28614e-09
-2.04583e-09
4.00728e-07
1.70944e-07
4.9006e-09
-4.5589e-09
4.11508e-07
1.99817e-07
9.20684e-09
-8.70442e-09
4.10651e-07
2.3076e-07
1.5877e-08
-1.51123e-08
3.98301e-07
2.60302e-07
2.48797e-08
-2.37825e-08
2.99945e-07
3.96465e-08
-4.7382e-08
6.49212e-08
6.89986e-09
-1.28188e-10
1.33334e-10
1.24907e-07
2.03868e-08
-3.75016e-10
3.90516e-10
1.79431e-07
3.33726e-08
-6.00321e-10
6.26667e-10
2.29893e-07
4.62889e-08
-8.00937e-10
8.39513e-10
2.77436e-07
5.97149e-08
-9.70948e-10
1.02424e-09
3.22964e-07
7.41763e-08
-1.09349e-09
1.16537e-09
3.67132e-07
9.01746e-08
-1.13521e-09
1.23139e-09
4.10304e-07
1.08205e-07
-1.03786e-09
1.16658e-09
4.52445e-07
1.28764e-07
-7.05175e-10
8.78402e-10
4.92957e-07
1.52334e-07
1.5668e-11
2.19686e-10
5.30439e-07
1.79325e-07
1.35907e-09
-1.03484e-09
5.62425e-07
2.09948e-07
3.66629e-09
-3.21089e-09
5.85299e-07
2.43918e-07
7.3794e-09
-6.72201e-09
5.95129e-07
2.7985e-07
1.2904e-08
-1.19245e-08
5.90474e-07
3.137e-07
1.99818e-08
-1.85325e-08
3.56888e-07
3.04989e-08
-3.54776e-08
8.17154e-08
8.07561e-09
-1.6896e-10
1.75504e-10
1.5718e-07
2.38504e-08
-4.95946e-10
5.15644e-10
2.2572e-07
3.90082e-08
-7.99775e-10
8.33237e-10
2.89096e-07
5.40327e-08
-1.08108e-09
1.13002e-09
3.4876e-07
6.95748e-08
-1.33952e-09
1.40703e-09
4.05888e-07
8.62132e-08
-1.56522e-09
1.65609e-09
4.614e-07
1.04484e-07
-1.73509e-09
1.85631e-09
5.15926e-07
1.24902e-07
-1.8072e-09
1.96876e-09
5.69737e-07
1.47961e-07
-1.71305e-09
1.92937e-09
6.22606e-07
1.74131e-07
-1.34851e-09
1.64062e-09
6.73589e-07
2.03799e-07
-5.64028e-10
9.63663e-10
7.20714e-07
2.37163e-07
8.40967e-10
-2.83816e-10
7.60649e-07
2.73945e-07
3.09031e-09
-2.29355e-09
7.88789e-07
3.12719e-07
6.32313e-09
-5.1467e-09
8.00586e-07
3.49202e-07
1.02438e-08
-8.46662e-09
3.93853e-07
1.57991e-08
-1.75387e-08
9.72683e-08
8.93216e-09
-2.10962e-10
2.1883e-10
1.87044e-07
2.63687e-08
-6.21087e-10
6.44765e-10
2.68498e-07
4.3088e-08
-1.00822e-09
1.04841e-09
3.43719e-07
5.95999e-08
-1.37853e-09
1.43723e-09
4.14433e-07
7.65922e-08
-1.73965e-09
1.82048e-09
4.82075e-07
9.46607e-08
-2.09228e-09
2.2008e-09
5.47824e-07
1.14338e-07
-2.42885e-09
2.5731e-09
6.12607e-07
1.36109e-07
-2.73144e-09
2.92277e-09
6.77073e-07
1.6042e-07
-2.97013e-09
3.22479e-09
7.41517e-07
1.87669e-07
-3.10347e-09
3.44497e-09
8.05745e-07
2.18175e-07
-3.08261e-09
3.54615e-09
8.68805e-07
2.52114e-07
-2.8591e-09
3.50008e-09
9.28494e-07
2.89331e-07
-2.41697e-09
3.3256e-09
9.80447e-07
3.28778e-07
-1.83487e-09
3.16795e-09
1.01647e-06
3.66618e-07
-1.36333e-09
3.40571e-09
4.12585e-07
-5.22795e-10
1.45293e-09
1.11375e-07
9.44443e-09
-2.529e-10
2.61996e-10
2.14103e-07
2.78696e-08
-7.46383e-10
7.73741e-10
3.07194e-07
4.55014e-08
-1.21814e-09
1.26453e-09
3.93007e-07
6.28519e-08
-1.68067e-09
1.74832e-09
4.73504e-07
8.0613e-08
-2.15059e-09
2.24354e-09
5.50332e-07
9.93661e-08
-2.64031e-09
2.76471e-09
6.24892e-07
1.19606e-07
-3.15894e-09
3.3236e-09
6.9837e-07
1.41752e-07
-3.71344e-09
3.93063e-09
7.71759e-07
1.66153e-07
-4.31174e-09
4.59876e-09
8.45858e-07
1.93075e-07
-4.9702e-09
5.35178e-09
9.21228e-07
2.22684e-07
-5.72702e-09
6.23928e-09
9.98075e-07
2.55022e-07
-6.65762e-09
7.35605e-09
1.07584e-06
2.89967e-07
-7.90487e-09
8.87811e-09
1.15188e-06
3.27035e-07
-9.71024e-09
1.11138e-08
1.21674e-06
3.64096e-07
-1.22762e-08
1.44333e-08
4.14952e-07
-1.53995e-08
1.83299e-08
1.23864e-07
-2.93165e-10
3.03361e-10
9.60153e-09
2.38031e-07
-8.66806e-10
8.97462e-10
2.83238e-08
3.41337e-07
-1.42029e-09
1.47221e-09
4.62087e-08
4.36352e-07
-1.97231e-09
2.04789e-09
6.37505e-08
5.25208e-07
-2.54798e-09
2.65153e-09
8.16175e-08
6.09708e-07
-3.17038e-09
3.30844e-09
1.00352e-07
6.91398e-07
-3.863e-09
4.04484e-09
1.20387e-07
7.71631e-07
-4.65299e-09
4.89132e-09
1.42051e-07
8.51613e-07
-5.57678e-09
5.88922e-09
1.65562e-07
9.32435e-07
-6.69036e-09
7.10137e-09
1.91001e-07
1.01509e-06
-8.08491e-09
8.62883e-09
2.18284e-07
1.10043e-06
-9.90363e-09
1.06304e-08
2.471e-07
1.1888e-06
-1.23657e-08
1.335e-08
2.76839e-07
1.27865e-06
-1.57792e-08
1.71426e-08
3.0634e-07
1.36173e-06
-2.03343e-08
2.23388e-08
3.32954e-07
-2.68234e-08
3.08806e-08
3.85764e-07
9.72937e-09
2.01399e-09
-1.6064e-11
1.87292e-08
5.95968e-09
-4.6595e-11
2.69244e-08
9.78563e-09
-7.32075e-11
3.45263e-08
1.36353e-08
-9.44021e-11
4.17037e-08
1.76983e-08
-1.07656e-10
4.85813e-08
2.21556e-08
-1.07876e-10
5.52324e-08
2.71895e-08
-8.58092e-11
6.1662e-08
3.29923e-08
-2.54424e-11
6.77801e-08
3.97714e-08
1.00187e-10
7.33632e-08
4.77494e-08
3.35618e-10
7.80153e-08
5.71566e-08
7.52744e-10
8.11574e-08
6.82102e-08
1.46303e-09
8.21263e-08
8.10623e-08
2.62306e-09
8.0554e-08
9.5627e-08
4.3928e-09
7.71958e-08
1.10717e-07
6.69094e-09
1.34076e-07
1.11584e-08
2.90224e-08
3.93927e-09
-4.86583e-11
5.58638e-08
1.16539e-08
-1.41345e-10
8.03008e-08
1.91257e-08
-2.22781e-10
1.02965e-07
2.66298e-08
-2.89003e-10
1.24363e-07
3.45305e-08
-3.33384e-10
1.44873e-07
4.31722e-08
-3.42311e-10
1.64729e-07
5.28984e-08
-2.90947e-10
1.83974e-07
6.40665e-08
-1.36514e-10
2.02385e-07
7.70564e-08
1.9226e-10
2.19362e-07
9.2264e-08
8.11348e-10
2.33811e-07
1.10074e-07
1.90401e-09
2.44089e-07
1.30788e-07
3.74568e-09
2.48222e-07
1.5446e-07
6.70301e-09
2.44895e-07
1.80492e-07
1.11046e-08
2.35832e-07
2.06315e-07
1.66529e-08
2.33233e-07
2.53318e-08
4.78412e-08
5.69738e-09
-8.26593e-11
9.20729e-08
1.68492e-08
-2.40777e-10
1.32326e-07
2.76325e-08
-3.81796e-10
1.69646e-07
3.84344e-08
-5.00843e-10
2.04876e-07
4.9768e-08
-5.89775e-10
2.38662e-07
6.2112e-08
-6.30754e-10
2.71435e-07
7.5936e-08
-5.90752e-10
3.03344e-07
9.17208e-08
-4.1325e-10
3.34161e-07
1.09965e-07
-5.55176e-12
3.6311e-07
1.31172e-07
7.79441e-10
3.88678e-07
1.558e-07
2.16642e-09
4.0847e-07
1.84133e-07
4.47556e-09
4.19406e-07
2.16002e-07
8.09438e-09
4.18983e-07
2.50219e-07
1.32822e-08
4.08753e-07
2.83191e-07
1.95136e-08
3.16284e-07
2.71409e-08
6.59022e-08
7.21872e-09
-1.18645e-10
1.26806e-07
2.13395e-08
-3.46786e-10
1.82198e-07
3.49675e-08
-5.54044e-10
2.33523e-07
4.85761e-08
-7.36804e-10
2.81957e-07
6.27937e-08
-8.88796e-10
3.28429e-07
7.81964e-08
-9.93399e-10
3.73605e-07
9.53386e-08
-1.01862e-09
4.17838e-07
1.14774e-07
-9.0967e-10
4.61056e-07
1.37062e-07
-5.78142e-10
5.02586e-07
1.62753e-07
1.11852e-10
5.40915e-07
1.92323e-07
1.35902e-09
5.73433e-07
2.26025e-07
3.4283e-09
5.96445e-07
2.63544e-07
6.60197e-09
6.06235e-07
3.03326e-07
1.09856e-08
6.02616e-07
3.41184e-07
1.59965e-08
3.77839e-07
2.16224e-08
8.29362e-08
8.44696e-09
-1.56563e-10
1.59542e-07
2.49591e-08
-4.59207e-10
2.2916e-07
4.08618e-08
-7.39303e-10
2.93607e-07
5.66857e-08
-9.96676e-10
3.54378e-07
7.31371e-08
-1.23013e-09
4.12686e-07
9.08502e-08
-1.42935e-09
4.69466e-07
1.10419e-07
-1.5715e-09
5.25351e-07
1.32419e-07
-1.61633e-09
5.80578e-07
1.57413e-07
-1.49962e-09
6.34852e-07
1.85941e-07
-1.1267e-09
6.871e-07
2.18464e-07
-3.67612e-10
7.35153e-07
2.55233e-07
9.36457e-10
7.75433e-07
2.95961e-07
2.92281e-09
8.03188e-07
3.39065e-07
5.57186e-09
8.14529e-07
3.80045e-07
8.4244e-09
4.18781e-07
1.15846e-08
9.8701e-08
9.34068e-09
-1.95712e-10
1.89814e-07
2.75875e-08
-5.75823e-10
2.72529e-07
4.51229e-08
-9.33454e-10
3.49e-07
6.25066e-08
-1.27351e-09
4.21009e-07
8.04849e-08
-1.60219e-09
4.90034e-07
9.97115e-08
-1.91888e-09
5.57282e-07
1.20776e-07
-2.21489e-09
6.23691e-07
1.44227e-07
-2.47167e-09
6.89896e-07
1.70574e-07
-2.65918e-09
7.56141e-07
2.00289e-07
-2.73663e-09
8.22119e-07
2.33764e-07
-2.65703e-09
8.8667e-07
2.7125e-07
-2.37677e-09
9.47238e-07
3.12637e-07
-1.89344e-09
9.98934e-07
3.56795e-07
-1.31011e-09
1.03317e-06
3.99626e-07
-8.96624e-10
4.40918e-07
-1.84925e-10
1.12988e-07
9.87401e-09
-2.3488e-10
2.17219e-07
2.91504e-08
-6.92824e-10
3.11724e-07
4.76371e-08
-1.12942e-09
3.98936e-07
6.58964e-08
-1.55546e-09
4.80878e-07
8.46798e-08
-1.9855e-09
5.59251e-07
1.04625e-07
-2.42979e-09
6.35493e-07
1.26283e-07
-2.895e-09
7.10813e-07
1.50129e-07
-3.38528e-09
7.8621e-07
1.76571e-07
-3.90452e-09
8.62454e-07
2.05938e-07
-4.46234e-09
9.40029e-07
2.38467e-07
-5.08464e-09
1.01897e-06
2.74278e-07
-5.82362e-09
1.09838e-06
3.13334e-07
-6.77992e-09
1.17493e-06
3.55212e-07
-8.11347e-09
1.2377e-06
3.97688e-07
-9.9244e-09
4.45873e-07
-1.13654e-08
1.25624e-07
-2.72549e-10
1.00359e-08
2.41427e-07
-8.05472e-10
2.96183e-08
3.46268e-07
-1.3185e-09
4.83647e-08
4.42795e-07
-1.82821e-09
6.68184e-08
5.33208e-07
-2.35714e-09
8.57056e-08
6.19367e-07
-2.92546e-09
1.05622e-07
7.02864e-07
-3.55327e-09
1.2705e-07
7.85085e-07
-4.26329e-09
1.50369e-07
8.6725e-07
-5.0853e-09
1.75842e-07
9.50446e-07
-6.06429e-09
2.03601e-07
1.03562e-06
-7.272e-09
2.33604e-07
1.12349e-06
-8.81587e-09
2.65586e-07
1.2141e-06
-1.08491e-08
2.98964e-07
1.30521e-06
-1.35563e-08
3.32542e-07
1.3866e-06
-1.69723e-08
3.63443e-07
-2.06633e-08
4.14325e-07
9.859e-09
2.09557e-09
-1.42184e-11
1.89807e-08
6.20366e-09
-4.12044e-11
2.72917e-08
1.01947e-08
-6.46158e-11
3.50082e-08
1.42225e-08
-8.3064e-11
4.23027e-08
1.84891e-08
-9.42751e-11
4.93022e-08
2.31872e-08
-9.37643e-11
5.60798e-08
2.85108e-08
-7.35564e-11
6.26384e-08
3.46631e-08
-2.02388e-11
6.88835e-08
4.18602e-08
8.79298e-11
7.45879e-08
5.03269e-08
2.84994e-10
7.93598e-08
6.0282e-08
6.2163e-10
8.26494e-08
7.19002e-08
1.167e-09
8.38771e-08
8.52274e-08
1.99834e-09
8.28265e-08
9.99607e-08
3.15347e-09
8.03229e-08
1.14652e-07
4.49104e-09
1.38405e-07
6.6765e-09
2.94082e-08
4.09861e-09
-4.30798e-11
5.66125e-08
1.21302e-08
-1.25034e-10
8.1394e-08
1.99236e-08
-1.96717e-10
1.04399e-07
2.77741e-08
-2.54432e-10
1.26146e-07
3.60695e-08
-2.9218e-10
1.47019e-07
4.51767e-08
-2.97934e-10
1.67254e-07
5.54614e-08
-2.50243e-10
1.86886e-07
6.73012e-08
-1.13201e-10
2.05679e-07
8.10911e-08
1.70862e-10
2.23019e-07
9.72294e-08
6.909e-10
2.37816e-07
1.16074e-07
1.57632e-09
2.48487e-07
1.37837e-07
2.99786e-09
2.53258e-07
1.6235e-07
5.13232e-09
2.51184e-07
1.88582e-07
8.03145e-09
2.44196e-07
2.13444e-07
1.12901e-08
2.37747e-07
1.54463e-08
4.84741e-08
5.92719e-09
-7.32266e-11
9.33008e-08
1.75358e-08
-2.13136e-10
1.34118e-07
2.87816e-08
-3.37404e-10
1.71997e-07
4.008e-08
-4.4141e-10
2.07799e-07
5.19774e-08
-5.177e-10
2.42184e-07
6.49837e-08
-5.50419e-10
2.75581e-07
7.95992e-08
-5.10929e-10
3.08134e-07
9.63315e-08
-3.51529e-10
3.39591e-07
1.15699e-07
3.27951e-12
3.69146e-07
1.38205e-07
6.6687e-10
3.95268e-07
1.64265e-07
1.7986e-09
4.15601e-07
1.94027e-07
3.5966e-09
4.27261e-07
2.26997e-07
6.23862e-09
4.28166e-07
2.61367e-07
9.70576e-09
4.20186e-07
2.92812e-07
1.34222e-08
3.2143e-07
1.70244e-08
6.67669e-08
7.50876e-09
-1.05191e-10
1.28483e-07
2.22055e-08
-3.07249e-10
1.84645e-07
3.64152e-08
-4.90149e-10
2.36732e-07
5.0646e-08
-6.50287e-10
2.85948e-07
6.55671e-08
-7.81744e-10
3.33239e-07
8.17925e-08
-8.69576e-10
3.79276e-07
9.99126e-08
-8.85788e-10
4.24403e-07
1.20513e-07
-7.83699e-10
4.68519e-07
1.44175e-07
-4.90672e-10
5.10904e-07
1.71446e-07
9.88829e-11
5.49986e-07
2.0275e-07
1.12729e-09
5.83126e-07
2.38172e-07
2.75823e-09
6.06714e-07
2.77007e-07
5.10957e-09
6.17336e-07
3.16954e-07
8.09115e-09
6.1523e-07
3.52941e-07
1.11352e-08
3.8403e-07
1.38471e-08
8.40122e-08
8.78479e-09
-1.38936e-10
1.61628e-07
2.59673e-08
-4.07264e-10
2.32201e-07
4.25449e-08
-6.54832e-10
2.97593e-07
5.9088e-08
-8.81003e-10
3.59335e-07
7.63486e-08
-1.08424e-09
4.18662e-07
9.5003e-08
-1.25497e-09
4.76522e-07
1.15685e-07
-1.3728e-09
5.33536e-07
1.39003e-07
-1.40284e-09
5.89914e-07
1.65543e-07
-1.29153e-09
6.45297e-07
1.95842e-07
-9.63994e-10
6.98516e-07
2.30306e-07
-3.25444e-10
7.47282e-07
2.69013e-07
7.22436e-10
7.87916e-07
3.11265e-07
2.22467e-09
8.15717e-07
3.54678e-07
4.06632e-09
8.27271e-07
3.93747e-07
5.83425e-09
4.26545e-07
7.45175e-09
9.99635e-08
9.71243e-09
-1.73842e-10
1.92259e-07
2.86962e-08
-5.11215e-10
2.76093e-07
4.69716e-08
-8.27798e-10
3.53668e-07
6.51404e-08
-1.12741e-09
4.2681e-07
8.39975e-08
-1.41496e-09
4.97028e-07
1.0424e-07
-1.68928e-09
5.65543e-07
1.265e-07
-1.94192e-09
6.33293e-07
1.51356e-07
-2.15599e-09
7.00883e-07
1.79344e-07
-2.30531e-09
7.68487e-07
2.10929e-07
-2.35596e-09
8.35677e-07
2.46455e-07
-2.27166e-09
9.01092e-07
2.86014e-07
-2.02495e-09
9.61881e-07
3.29117e-07
-1.63309e-09
1.01286e-06
3.73856e-07
-1.20134e-09
1.04581e-06
4.15057e-07
-9.36844e-10
4.5072e-07
-4.36996e-10
1.1441e-07
1.02651e-08
-2.08823e-10
2.19971e-07
3.03159e-08
-6.15688e-10
3.15729e-07
4.95782e-08
-1.00271e-09
4.04176e-07
6.86571e-08
-1.3789e-09
4.87384e-07
8.83529e-08
-1.75655e-09
5.67088e-07
1.09348e-07
-2.14393e-09
6.44749e-07
1.3223e-07
-2.54576e-09
7.2158e-07
1.57508e-07
-2.96418e-09
7.98556e-07
1.85608e-07
-3.4006e-09
8.7638e-07
2.16858e-07
-3.86012e-09
9.55405e-07
2.51446e-07
-4.35901e-09
1.03542e-06
2.89356e-07
-4.9301e-09
1.1151e-06
3.30238e-07
-5.63751e-09
1.19048e-06
3.72993e-07
-6.57006e-09
1.25068e-06
4.14356e-07
-7.74772e-09
4.57934e-07
-8.2851e-09
1.27176e-07
-2.42515e-10
1.04316e-08
2.44427e-07
-7.16431e-10
3.07968e-08
3.50628e-07
-1.17177e-09
5.03254e-08
4.48491e-07
-1.62268e-09
6.96025e-08
5.40269e-07
-2.08851e-09
8.9402e-08
6.27859e-07
-2.58628e-09
1.10361e-07
7.12883e-07
-3.13231e-09
1.32999e-07
7.96732e-07
-3.74457e-09
1.5772e-07
8.80611e-07
-4.44588e-09
1.84805e-07
9.65547e-07
-5.2694e-09
2.14376e-07
1.05236e-06
-6.26561e-09
2.46349e-07
1.14151e-06
-7.50448e-09
2.80333e-07
1.23259e-06
-9.07581e-09
3.15482e-07
1.32262e-06
-1.10627e-08
3.50066e-07
1.40098e-06
-1.3414e-08
3.80334e-07
-1.54038e-08
4.27969e-07
9.96973e-09
2.16677e-09
-1.19305e-11
1.91958e-08
6.41635e-09
-3.4553e-11
2.76058e-08
1.05504e-08
-5.41196e-11
3.54199e-08
1.47312e-08
-6.94466e-11
4.28137e-08
1.91701e-08
-7.86463e-11
4.99157e-08
2.40679e-08
-7.80786e-11
5.67993e-08
2.96253e-08
-6.14312e-11
6.34662e-08
3.60488e-08
-1.84394e-11
6.98204e-08
4.35527e-08
6.67752e-11
7.56351e-08
5.23493e-08
2.17459e-10
8.0528e-08
6.26274e-08
4.64908e-10
8.39775e-08
7.45052e-08
8.45303e-10
8.54601e-08
8.79436e-08
1.38665e-09
8.48227e-08
1.02561e-07
2.07676e-09
8.28391e-08
1.16968e-07
2.80222e-09
1.41445e-07
3.88074e-09
2.97377e-08
4.23767e-09
-3.61544e-11
5.72524e-08
1.25455e-08
-1.04873e-10
8.23282e-08
2.06177e-08
-1.64802e-10
1.05624e-07
2.87657e-08
-2.12776e-10
1.27666e-07
3.73954e-08
-2.43797e-10
1.48845e-07
4.68893e-08
-2.48086e-10
1.69396e-07
5.76251e-08
-2.08628e-10
1.89351e-07
6.99875e-08
-9.78774e-11
2.08468e-07
8.43665e-08
1.26409e-10
2.26133e-07
1.01135e-07
5.25179e-10
2.41273e-07
1.20591e-07
1.17836e-09
2.52373e-07
1.4283e-07
2.1745e-09
2.57795e-07
1.675e-07
3.57262e-09
2.56754e-07
1.93372e-07
5.31547e-09
2.51051e-07
2.17381e-07
7.08753e-09
2.40713e-07
9.06067e-09
4.90144e-08
6.12778e-09
-6.14812e-11
9.43497e-08
1.81345e-08
-1.78851e-10
1.3565e-07
2.97814e-08
-2.82811e-10
1.74004e-07
4.15067e-08
-3.6936e-10
2.10291e-07
5.38822e-08
-4.32251e-10
2.45176e-07
6.74396e-08
-4.58546e-10
2.79094e-07
8.2696e-08
-4.25433e-10
3.12179e-07
1.00168e-07
-2.96137e-10
3.44168e-07
1.20365e-07
-1.50435e-11
3.74244e-07
1.43755e-07
4.95888e-10
4.00884e-07
1.70665e-07
1.33517e-09
4.21793e-07
2.01068e-07
2.60405e-09
4.34241e-07
2.34192e-07
4.35057e-09
4.36333e-07
2.67905e-07
6.45609e-09
4.29823e-07
2.97845e-07
8.48905e-09
3.24241e-07
1.01197e-08
6.75051e-08
7.76198e-09
-8.83706e-11
1.29915e-07
2.29609e-08
-2.57989e-10
1.86735e-07
3.76754e-08
-4.11137e-10
2.39471e-07
5.24417e-08
-5.44599e-10
2.89348e-07
6.79601e-08
-6.5334e-10
3.37323e-07
8.48714e-08
-7.25073e-10
3.84072e-07
1.03786e-07
-7.37348e-10
4.29929e-07
1.25299e-07
-6.53896e-10
4.74773e-07
1.49982e-07
-4.2079e-10
5.17856e-07
1.78336e-07
3.51064e-11
5.57583e-07
2.10677e-07
8.02235e-10
5.91333e-07
2.46876e-07
1.96274e-09
6.15591e-07
2.85879e-07
3.53374e-09
6.27118e-07
3.24965e-07
5.36583e-09
6.26163e-07
3.58981e-07
7.04359e-09
3.87015e-07
8.2679e-09
8.49307e-08
9.07982e-09
-1.16799e-10
1.63409e-07
2.68469e-08
-3.42221e-10
2.34798e-07
4.40108e-08
-5.49731e-10
3.00996e-07
6.11735e-08
-7.38534e-10
3.63557e-07
7.91224e-08
-9.07166e-10
4.23734e-07
9.85636e-08
-1.0476e-09
4.82479e-07
1.20153e-07
-1.14331e-09
5.40405e-07
1.44508e-07
-1.16681e-09
5.97693e-07
1.72206e-07
-1.07789e-09
6.53935e-07
2.03732e-07
-8.24034e-10
7.07903e-07
2.39373e-07
-3.45695e-10
7.57249e-07
2.7898e-07
4.05208e-10
7.9829e-07
3.21473e-07
1.41803e-09
8.26436e-07
3.63996e-07
2.55972e-09
8.38478e-07
4.00911e-07
3.53354e-09
4.30317e-07
4.30415e-09
1.01041e-07
1.00372e-08
-1.46249e-10
1.94348e-07
2.96639e-08
-4.29899e-10
2.79136e-07
4.85826e-08
-6.95534e-10
3.57651e-07
6.74286e-08
-9.46032e-10
4.3175e-07
8.70346e-08
-1.18523e-09
5.02959e-07
1.08129e-07
-1.41189e-09
5.72512e-07
1.31367e-07
-1.61888e-09
6.41333e-07
1.57337e-07
-1.79247e-09
7.09993e-07
1.86564e-07
-1.91244e-09
7.78607e-07
2.19461e-07
-1.95431e-09
8.46644e-07
2.56258e-07
-1.89486e-09
9.12611e-07
2.96826e-07
-1.72241e-09
9.7353e-07
3.40303e-07
-1.46481e-09
1.02422e-06
3.84302e-07
-1.21122e-09
1.05682e-06
4.23468e-07
-1.10153e-09
4.55888e-07
-7.89882e-10
1.15624e-07
1.06068e-08
-1.758e-10
2.22321e-07
3.13338e-08
-5.18139e-10
3.1915e-07
5.12708e-08
-8.43203e-10
4.08649e-07
7.10574e-08
-1.15818e-09
4.92924e-07
9.15325e-08
-1.47301e-09
5.73735e-07
1.13409e-07
-1.79415e-09
6.52554e-07
1.373e-07
-2.12495e-09
7.30585e-07
1.6372e-07
-2.46641e-09
8.08767e-07
1.93087e-07
-2.81877e-09
8.87731e-07
2.25679e-07
-3.18484e-09
9.67705e-07
2.61579e-07
-3.57493e-09
1.04829e-06
3.00571e-07
-4.00919e-09
1.12792e-06
3.41974e-07
-4.52707e-09
1.2025e-06
3.84254e-07
-5.17546e-09
1.26157e-06
4.23929e-07
-5.94611e-09
4.64891e-07
-6.08944e-09
1.285e-07
-2.04299e-10
1.07775e-08
2.4699e-07
-6.03339e-10
3.18265e-08
3.54355e-07
-9.86132e-10
5.20361e-08
4.53356e-07
-1.36416e-09
7.20251e-08
5.46285e-07
-1.75323e-09
9.26053e-08
6.35068e-07
-2.167e-09
1.14444e-07
7.21336e-07
-2.61815e-09
1.38082e-07
8.06477e-07
-3.12013e-09
1.63932e-07
8.91659e-07
-3.68939e-09
1.92262e-07
9.77837e-07
-4.34883e-09
2.23152e-07
1.0657e-06
-5.1314e-09
2.56422e-07
1.15549e-06
-6.07849e-09
2.91506e-07
1.24652e-06
-7.23769e-09
3.27282e-07
1.33555e-06
-8.63958e-09
3.61655e-07
1.41229e-06
-1.02226e-08
3.90642e-07
-1.12998e-08
4.36528e-07
1.00601e-08
2.22572e-09
-9.27831e-12
1.93713e-08
6.59227e-09
-2.68621e-11
2.78621e-08
1.0844e-08
-4.2045e-11
3.57556e-08
1.51493e-08
-5.39089e-11
4.32297e-08
1.97264e-08
-6.10268e-11
5.0414e-08
2.47811e-08
-6.0699e-11
5.73824e-08
3.05166e-08
-4.83653e-11
6.41359e-08
3.71386e-08
-1.68588e-11
7.05781e-08
4.48535e-08
4.43713e-11
7.64843e-08
5.38565e-08
1.49682e-10
8.148e-08
6.4306e-08
3.16325e-10
8.50616e-08
7.62771e-08
5.60401e-10
8.67321e-08
8.96909e-08
8.8709e-10
8.63505e-08
1.04172e-07
1.27412e-09
8.46293e-08
1.18443e-07
1.65076e-09
1.43513e-07
2.19155e-09
3.00066e-08
4.3528e-09
-2.81204e-11
5.77745e-08
1.28889e-08
-8.15397e-11
8.30903e-08
2.11905e-08
-1.28047e-10
1.06622e-07
2.95808e-08
-1.65179e-10
1.28903e-07
3.84788e-08
-1.89151e-10
1.50327e-07
4.82766e-08
-1.92699e-10
1.7113e-07
5.93572e-08
-1.63507e-10
1.91342e-07
7.21025e-08
-8.22972e-11
2.10719e-07
8.68881e-08
7.90701e-11
2.2865e-07
1.04052e-07
3.58331e-10
2.4408e-07
1.23832e-07
7.99454e-10
2.55537e-07
1.46234e-07
1.44093e-09
2.61449e-07
1.7081e-07
2.28819e-09
2.61058e-07
1.963e-07
3.26867e-09
2.56007e-07
2.19801e-07
4.18561e-09
2.42878e-07
5.12736e-09
4.94552e-08
6.29388e-09
-4.78324e-11
9.52053e-08
1.86298e-08
-1.39099e-10
1.36898e-07
3.06067e-08
-2.19801e-10
1.75639e-07
4.26798e-08
-2.86804e-10
2.12316e-07
5.54395e-08
-3.35365e-10
2.47603e-07
6.94309e-08
-3.55848e-10
2.81933e-07
8.51781e-08
-3.31684e-10
3.15438e-07
1.03194e-07
-2.37038e-10
3.47848e-07
1.23967e-07
-3.46832e-11
3.78342e-07
1.47914e-07
3.23869e-10
4.0541e-07
1.75274e-07
8.92602e-10
4.26802e-07
2.05886e-07
1.71368e-09
4.39862e-07
2.38817e-07
2.77847e-09
4.42734e-07
2.71852e-07
3.96882e-09
4.36991e-07
3.00807e-07
5.01653e-09
3.26255e-07
5.73759e-09
6.81071e-08
7.97172e-09
-6.87798e-11
1.31083e-07
2.3586e-08
-2.0073e-10
1.88439e-07
3.8716e-08
-3.19671e-10
2.41701e-07
5.39191e-08
-4.23042e-10
2.9211e-07
6.99184e-08
-5.06996e-10
3.40631e-07
8.73711e-08
-5.62352e-10
3.87942e-07
1.06896e-07
-5.72713e-10
4.3437e-07
1.29083e-07
-5.12462e-10
4.79779e-07
1.54478e-07
-3.4526e-10
5.23404e-07
1.83521e-07
-2.54956e-11
5.63644e-07
2.16417e-07
4.95252e-10
5.97896e-07
2.52867e-07
1.24921e-09
6.22706e-07
2.91607e-07
2.21236e-09
6.34886e-07
3.29788e-07
3.25272e-09
6.34585e-07
3.62444e-07
4.11203e-09
3.89003e-07
4.6379e-09
8.56798e-08
9.32429e-09
-9.09492e-11
1.64862e-07
2.75751e-08
-2.66397e-10
2.36916e-07
4.52219e-08
-4.27653e-10
3.03765e-07
6.28906e-08
-5.73985e-10
3.66986e-07
8.13945e-08
-7.04239e-10
4.2784e-07
1.01458e-07
-8.12374e-10
4.87281e-07
1.23747e-07
-8.86226e-10
5.45912e-07
1.48874e-07
-9.06233e-10
6.0389e-07
1.77385e-07
-8.45044e-10
6.60777e-07
2.097e-07
-6.6972e-10
7.15304e-07
2.45984e-07
-3.47615e-10
7.65102e-07
2.85899e-07
1.38317e-10
8.06506e-07
3.28131e-07
7.57589e-10
8.34997e-07
3.69659e-07
1.40135e-09
8.47415e-07
4.05033e-07
1.88468e-09
4.32713e-07
2.2297e-09
1.0192e-07
1.03064e-08
-1.13938e-10
1.96052e-07
3.04655e-08
-3.34825e-10
2.81618e-07
4.99143e-08
-5.41383e-10
3.60895e-07
6.93141e-08
-7.35681e-10
4.35761e-07
8.95253e-08
-9.20589e-10
5.0776e-07
1.11296e-07
-1.09511e-09
5.78124e-07
1.35291e-07
-1.25393e-09
6.47765e-07
1.62095e-07
-1.38707e-09
7.17225e-07
1.922e-07
-1.48058e-09
7.86567e-07
2.25956e-07
-1.51899e-09
8.55195e-07
2.63467e-07
-1.48991e-09
9.21543e-07
3.04418e-07
-1.39174e-09
9.82596e-07
3.47709e-07
-1.25235e-09
1.03324e-06
3.90781e-07
-1.13724e-09
1.06585e-06
4.2844e-07
-1.13224e-09
4.59179e-07
-9.58094e-10
1.16614e-07
1.08903e-08
-1.37031e-10
2.24238e-07
3.21774e-08
-4.03764e-10
3.2194e-07
5.26709e-08
-6.56697e-10
4.12292e-07
7.30371e-08
-9.01208e-10
4.97425e-07
9.41431e-08
-1.14482e-09
5.79117e-07
1.16722e-07
-1.39231e-09
6.58839e-07
1.41397e-07
-1.64603e-09
7.37784e-07
1.68679e-07
-1.90649e-09
8.16854e-07
1.98955e-07
-2.17362e-09
8.9662e-07
2.32441e-07
-2.44928e-09
9.77217e-07
2.69105e-07
-2.7404e-09
1.05814e-06
3.08557e-07
-3.05951e-09
1.13771e-06
3.49897e-07
-3.4306e-09
1.2119e-06
3.91427e-07
-3.87922e-09
1.27058e-06
4.29794e-07
-4.39317e-09
4.69417e-07
-4.40316e-09
1.29581e-07
-1.59322e-10
1.10645e-08
2.49082e-07
-4.70395e-10
3.26802e-08
3.57396e-07
-7.68434e-10
5.34521e-08
4.57321e-07
-1.06213e-09
7.40248e-08
5.51177e-07
-1.36351e-09
9.52383e-08
6.40907e-07
-1.68279e-09
1.1778e-07
7.28146e-07
-2.02925e-09
1.42201e-07
8.14269e-07
-2.41234e-09
1.68908e-07
9.00408e-07
-2.84321e-09
1.98144e-07
9.87447e-07
-3.33682e-09
2.29932e-07
1.07597e-06
-3.91353e-09
2.63987e-07
1.1661e-06
-4.59652e-09
2.99591e-07
1.257e-06
-5.40983e-09
3.35432e-07
1.34545e-06
-6.36417e-09
3.69266e-07
1.42148e-06
-7.41587e-09
3.97182e-07
-8.02573e-09
4.42233e-07
1.0129e-08
2.27103e-09
-6.3455e-12
1.9505e-08
6.72735e-09
-1.83677e-11
2.80571e-08
1.10689e-08
-2.87404e-11
3.60108e-08
1.54685e-08
-3.68421e-11
4.35454e-08
2.01487e-08
-4.17289e-11
5.07915e-08
2.53182e-08
-4.1641e-11
5.78231e-08
3.11805e-08
-3.3672e-11
6.46412e-08
3.79382e-08
-1.33927e-11
7.11491e-08
4.5789e-08
2.54335e-11
7.7124e-08
5.49126e-08
9.07234e-11
8.21961e-08
6.54443e-08
1.90935e-10
8.58709e-08
7.74351e-08
3.32038e-10
8.76603e-08
9.07961e-08
5.11864e-10
8.74184e-08
1.05186e-07
7.13167e-10
8.5818e-08
1.19413e-07
8.98389e-10
1.44906e-07
1.16706e-09
3.02113e-08
4.44129e-09
-1.92328e-11
5.81719e-08
1.31527e-08
-5.57581e-11
8.36701e-08
2.16293e-08
-8.75304e-11
1.07381e-07
3.02031e-08
-1.12879e-10
1.29841e-07
3.93015e-08
-1.29302e-10
1.51449e-07
4.9322e-08
-1.32052e-10
1.72439e-07
6.06483e-08
-1.13269e-10
1.92843e-07
7.36561e-08
-6.102e-11
2.12413e-07
8.87042e-08
4.13637e-11
2.30543e-07
1.061e-07
2.14722e-10
2.46188e-07
1.26035e-07
4.80503e-10
2.57898e-07
1.48462e-07
8.52253e-10
2.64125e-07
1.72901e-07
1.31978e-09
2.64094e-07
1.98129e-07
1.82998e-09
2.59342e-07
2.21382e-07
2.27746e-09
2.44473e-07
2.72276e-09
4.97906e-08
6.42157e-09
-3.27199e-11
9.58563e-08
1.90102e-08
-9.5133e-11
1.37848e-07
3.12392e-08
-1.50271e-10
1.76881e-07
4.35759e-08
-1.96002e-10
2.13852e-07
5.66227e-08
-2.29184e-10
2.49439e-07
7.09325e-08
-2.43509e-10
2.84075e-07
8.70305e-08
-2.28376e-10
3.17891e-07
1.0542e-07
-1.67755e-10
3.5061e-07
1.26566e-07
-3.95105e-11
3.81413e-07
1.50842e-07
1.83189e-10
4.08797e-07
1.78417e-07
5.26447e-10
4.30536e-07
2.09048e-07
1.00355e-09
4.44001e-07
2.41739e-07
1.59286e-09
4.47318e-07
2.74296e-07
2.21247e-09
4.41934e-07
3.02715e-07
2.71771e-09
3.27824e-07
3.02855e-09
6.85653e-08
8.13301e-09
-4.70605e-11
1.31972e-07
2.40662e-08
-1.37317e-10
1.89734e-07
3.95139e-08
-2.18597e-10
2.43395e-07
5.50482e-08
-2.89142e-10
2.94204e-07
7.14074e-08
-3.46402e-10
3.43133e-07
8.92581e-08
-3.84358e-10
3.90859e-07
1.0922e-07
-3.92489e-10
4.37705e-07
1.31873e-07
-3.54839e-10
4.83524e-07
1.57732e-07
-2.49682e-10
5.27543e-07
1.87185e-07
-5.17573e-11
5.68156e-07
2.20348e-07
2.62155e-10
6.02773e-07
2.56817e-07
7.00446e-10
6.27965e-07
2.95235e-07
1.234e-09
6.40545e-07
3.32759e-07
1.77425e-09
6.40576e-07
3.64633e-07
2.18083e-09
3.90551e-07
2.39514e-09
8.62498e-08
9.51234e-09
-6.22481e-11
1.65967e-07
2.81348e-08
-1.82293e-10
2.38526e-07
4.6151e-08
-2.92521e-10
3.05869e-07
6.42038e-08
-3.92393e-10
3.69584e-07
8.31238e-08
-4.81152e-10
4.30942e-07
1.03647e-07
-5.54835e-10
4.90896e-07
1.26438e-07
-6.05613e-10
5.50039e-07
1.52101e-07
-6.21233e-10
6.08513e-07
1.81146e-07
-5.85245e-10
6.65856e-07
2.13935e-07
-4.79407e-10
7.20779e-07
2.50538e-07
-2.88248e-10
7.70903e-07
2.90493e-07
-9.06285e-12
8.12584e-07
3.32375e-07
3.29801e-10
8.41331e-07
3.7316e-07
6.56895e-10
8.53982e-07
4.07616e-07
8.70843e-10
4.34491e-07
1.01394e-09
1.0259e-07
1.05136e-08
-7.8008e-11
1.97348e-07
3.10818e-08
-2.29193e-10
2.83505e-07
5.09365e-08
-3.70436e-10
3.63358e-07
7.07571e-08
-5.03081e-10
4.38802e-07
9.14228e-08
-6.2906e-10
5.11388e-07
1.13694e-07
-7.47724e-10
5.82346e-07
1.38235e-07
-8.55652e-10
6.5258e-07
1.65622e-07
-9.46545e-10
7.22605e-07
1.96311e-07
-1.01196e-09
7.92452e-07
2.3059e-07
-1.0434e-09
8.6148e-07
2.68468e-07
-1.03551e-09
9.28094e-07
3.09504e-07
-9.90776e-10
9.89279e-07
3.52483e-07
-9.30212e-10
1.03998e-06
3.94831e-07
-8.95239e-10
1.07267e-06
4.31569e-07
-9.3299e-10
4.61504e-07
-8.46928e-10
1.17367e-07
1.11085e-08
-9.385e-11
2.25698e-07
3.28262e-08
-2.76479e-10
3.24063e-07
5.37462e-08
-4.49497e-10
4.15059e-07
7.45533e-08
-6.16487e-10
5.00837e-07
9.61341e-08
-7.82498e-10
5.83183e-07
1.19234e-07
-9.50713e-10
6.63567e-07
1.44478e-07
-1.12266e-09
7.43169e-07
1.72366e-07
-1.29864e-09
8.22862e-07
2.03253e-07
-1.47861e-09
9.0317e-07
2.37296e-07
-1.66394e-09
9.84172e-07
2.7437e-07
-1.85921e-09
1.0653e-06
3.13966e-07
-2.07208e-09
1.14488e-06
3.55076e-07
-2.31645e-09
1.21894e-06
3.95983e-07
-2.60631e-09
1.27753e-06
4.33526e-07
-2.93275e-09
4.72525e-07
-2.91449e-09
1.30405e-07
-1.09153e-10
1.12855e-08
2.50675e-07
-3.22214e-10
3.33373e-08
3.5971e-07
-5.26167e-10
5.45401e-08
4.60334e-07
-7.26839e-10
7.55575e-08
5.54887e-07
-9.32322e-10
9.72487e-08
6.45321e-07
-1.14942e-09
1.20313e-07
7.33272e-07
-1.38416e-09
1.45304e-07
8.20099e-07
-1.64256e-09
1.7262e-07
9.06904e-07
-1.9315e-09
2.02473e-07
9.9452e-07
-2.25989e-09
2.34831e-07
1.08346e-06
-2.63946e-09
2.69327e-07
1.17378e-06
-3.08255e-09
3.05135e-07
1.2646e-06
-3.60095e-09
3.40843e-07
1.35278e-06
-4.19924e-09
3.74183e-07
1.42856e-06
-4.85347e-09
4.01393e-07
-5.19856e-09
4.46111e-07
1.01754e-08
2.30174e-09
-3.22134e-12
1.95951e-08
6.81884e-09
-9.32371e-12
2.81884e-08
1.12209e-08
-1.45873e-11
3.61824e-08
1.56836e-08
-1.87e-11
4.37575e-08
2.0432e-08
-2.11944e-11
5.10448e-08