/*--------------------------------*- C++ -*----------------------------------*\
| =========                 |                                                 |
| \\      /  F ield         | foam-extend: Open Source CFD                    |
|  \\    /   O peration     | Version:     3.1                                |
|   \\  /    A nd           | Web:         http://www.extend-project.de       |
|    \\/     M anipulation  |                                                 |
\*---------------------------------------------------------------------------*/
FoamFile
{
    version     2.0;
    format      ascii;
    class       volScalarField;
    location    "2.6";
    object      p;
}
// * * * * * * * * * * * * * * * * * * * * * * * * * * * * * * * * * * * * * //

dimensions      [0 2 -2 0 0 0 0];

internalField   nonuniform List<scalar> 
14592
(
0.0262995
0.0261058
0.0259182
0.025766
0.0256657
0.0256247
0.0256394
0.0256964
0.0257743
0.0258481
0.0258873
0.0258549
0.0256995
0.025332
0.0246196
0.0236471
0.0263205
0.0261081
0.0259159
0.0257598
0.0256533
0.025606
0.0256179
0.0256776
0.0257635
0.0258486
0.0259024
0.0258897
0.0257612
0.0254296
0.0247039
0.023508
0.0263083
0.0260791
0.0258752
0.0257071
0.0255883
0.0255319
0.0255416
0.0256081
0.02571
0.0258203
0.0259091
0.0259428
0.025878
0.0256196
0.0248991
0.0234251
0.0262689
0.0260254
0.0258091
0.0256274
0.0254938
0.0254248
0.0254279
0.0254964
0.0256118
0.0257453
0.0258682
0.0259506
0.0259548
0.0257918
0.0251357
0.0234894
0.0262042
0.0259507
0.0257249
0.0255318
0.0253836
0.0252982
0.0252871
0.0253475
0.0254627
0.0256053
0.025748
0.0258643
0.0259253
0.025859
0.0253205
0.0236305
0.0261174
0.0258559
0.0256225
0.02542
0.0252575
0.0251529
0.0251199
0.0251592
0.0252564
0.0253858
0.0255212
0.0256386
0.0257205
0.0257228
0.0253286
0.0237015
0.0260108
0.0257431
0.025503
0.0252909
0.0251133
0.0249868
0.0249254
0.0249314
0.024992
0.0250813
0.0251723
0.025239
0.0252736
0.0252612
0.0249935
0.0234107
0.0258898
0.0256176
0.0253707
0.0251475
0.0249529
0.0248018
0.0247074
0.0246715
0.0246806
0.0247057
0.0247139
0.0246651
0.0245426
0.0242929
0.0239786
0.0215489
0.0265206
0.0263188
0.0261302
0.0259853
0.0259017
0.0258891
0.0259468
0.0260654
0.0262257
0.0264059
0.026583
0.0267339
0.0268288
0.0268176
0.0266622
0.0265627
0.0265441
0.026322
0.026128
0.025979
0.0258887
0.0258695
0.0259244
0.0260444
0.0262133
0.026408
0.0266035
0.0267787
0.026903
0.0269275
0.0267983
0.0268207
0.0265345
0.026295
0.0260893
0.0259291
0.0258268
0.0257981
0.0258511
0.02598
0.0261686
0.0263945
0.026636
0.0268705
0.0270805
0.0272011
0.0271534
0.0273053
0.0264949
0.0262416
0.0260242
0.0258521
0.0257368
0.0256966
0.0257436
0.0258768
0.0260815
0.0263364
0.0266214
0.0269218
0.0272275
0.0274841
0.0275604
0.0278499
0.0264279
0.0261641
0.0259377
0.025756
0.0256283
0.0255735
0.025607
0.0257319
0.0259377
0.026205
0.0265165
0.0268638
0.0272488
0.0276341
0.0278447
0.0282705
0.0263345
0.0260627
0.0258289
0.0256388
0.0254985
0.0254256
0.025437
0.0255388
0.0257238
0.0259748
0.0262774
0.0266272
0.0270389
0.0275036
0.0278159
0.0283336
0.0262183
0.0259401
0.025699
0.0254991
0.0253438
0.0252481
0.0252286
0.0252921
0.0254325
0.0256325
0.0258767
0.0261585
0.0264997
0.0269229
0.027218
0.0275241
0.026085
0.0258019
0.025553
0.0253406
0.0251662
0.0250427
0.0249847
0.0249976
0.0250735
0.0251906
0.0253251
0.0254513
0.025571
0.0256677
0.0256405
0.0240614
0.0267355
0.0265274
0.0263401
0.0262046
0.0261398
0.0261574
0.0262594
0.0264382
0.0266777
0.0269583
0.0272609
0.0275674
0.0278571
0.0280942
0.0282572
0.0284165
0.0267615
0.0265318
0.026338
0.0261984
0.0261267
0.0261377
0.0262351
0.0264163
0.0266661
0.026964
0.0272891
0.0276222
0.0279432
0.0282117
0.0284179
0.0287267
0.0267544
0.0265069
0.0263016
0.0261516
0.0260683
0.026069
0.026167
0.0263587
0.0266318
0.0269662
0.027343
0.0277454
0.0281572
0.0285324
0.0288513
0.0293506
0.0267154
0.026454
0.0262376
0.0260774
0.025983
0.0259743
0.0260678
0.0262657
0.0265589
0.0269279
0.0273577
0.027837
0.0283593
0.0288779
0.0293426
0.030032
0.0266458
0.026374
0.026149
0.0259807
0.0258763
0.0258551
0.0259361
0.0261271
0.0264219
0.0268075
0.0272696
0.0278041
0.028416
0.0290654
0.0296605
0.0305055
0.0265466
0.0262668
0.0260342
0.0258582
0.0257425
0.0257046
0.0257637
0.0259305
0.026203
0.0265696
0.0270207
0.0275567
0.0281938
0.0289093
0.0295603
0.0304612
0.0264213
0.0261348
0.0258944
0.0257082
0.0255772
0.0255157
0.0255418
0.0256658
0.0258867
0.0261925
0.0265729
0.0270254
0.027571
0.0282057
0.0287238
0.0292552
0.0262761
0.0259843
0.0257351
0.0255348
0.0253826
0.0252901
0.0252725
0.0253379
0.0254822
0.025688
0.0259351
0.0261998
0.0264778
0.0267203
0.0267326
0.0249359
0.0269339
0.0267211
0.0265362
0.0264111
0.0263652
0.0264115
0.0265556
0.0267903
0.0271014
0.0274701
0.0278777
0.028307
0.0287376
0.0291366
0.0294749
0.0297254
0.0269623
0.0267268
0.0265345
0.0264052
0.0263521
0.0263916
0.0265305
0.0267682
0.0270911
0.0274794
0.0279124
0.0283705
0.0288319
0.0292592
0.029642
0.0300282
0.0269575
0.0267038
0.0265003
0.0263614
0.0262976
0.0263284
0.0264679
0.0267179
0.0270673
0.027497
0.0279868
0.0285192
0.0290734
0.029604
0.0301005
0.0306752
0.026919
0.0266516
0.0264374
0.0262897
0.0262166
0.026239
0.0263767
0.0266352
0.0270078
0.0274777
0.0280277
0.028643
0.0293112
0.0299803
0.0306179
0.0313839
0.0268473
0.0265696
0.0263469
0.0261924
0.0261113
0.0261234
0.0262504
0.0265037
0.0268805
0.0273685
0.0279541
0.0286288
0.0293885
0.03018
0.0309305
0.0318403
0.0267429
0.0264571
0.0262267
0.0260649
0.0259736
0.0259702
0.0260758
0.0263043
0.0266568
0.0271242
0.0276968
0.0283703
0.0291499
0.0299896
0.0307563
0.0316859
0.0266094
0.0263168
0.0260779
0.0259052
0.0257983
0.0257706
0.0258413
0.0260233
0.0263183
0.0267166
0.0272081
0.0277851
0.028456
0.0291828
0.0297401
0.0302082
0.0264533
0.0261551
0.0259065
0.0257182
0.0255878
0.0255261
0.0255486
0.0256647
0.0258728
0.0261567
0.0264957
0.0268606
0.0272324
0.0275243
0.0274721
0.0253721
0.027106
0.0268897
0.0267078
0.0265926
0.0265641
0.0266368
0.0268168
0.0270996
0.0274709
0.0279116
0.0284017
0.0289218
0.0294483
0.0299463
0.0303756
0.0306595
0.0271366
0.0268969
0.0267066
0.026587
0.026551
0.0266155
0.0267912
0.0270775
0.0274617
0.0279239
0.0284415
0.0289918
0.0295486
0.030072
0.0305426
0.0309495
0.0271337
0.0268756
0.0266742
0.0265459
0.0264998
0.026557
0.0267337
0.0270338
0.0274475
0.027955
0.0285333
0.0291603
0.0298087
0.0304285
0.0310045
0.0315877
0.0270958
0.026824
0.0266124
0.0264763
0.0264227
0.0264733
0.0266496
0.0269604
0.0274002
0.0279518
0.0285947
0.0293078
0.0300689
0.0308181
0.0315242
0.0322979
0.0270223
0.0267404
0.0265204
0.0263785
0.0263185
0.0263605
0.0265281
0.0268352
0.0272808
0.0278522
0.0285328
0.0293065
0.0301569
0.0310174
0.0318181
0.032719
0.0269137
0.0266235
0.0263956
0.0262466
0.0261774
0.0262047
0.0263516
0.0266336
0.0270538
0.0276029
0.0282681
0.0290373
0.0299017
0.0307946
0.0315817
0.0324758
0.0267731
0.026476
0.0262392
0.0260787
0.0259931
0.0259956
0.0261061
0.0263388
0.0266967
0.0271701
0.0277459
0.0284087
0.0291515
0.0299089
0.0304378
0.0308128
0.0266076
0.0263046
0.0260572
0.0258797
0.025769
0.0257347
0.0257931
0.0259541
0.0262167
0.0265641
0.0269731
0.0274062
0.0278292
0.0281246
0.027984
0.0256321
0.0272433
0.0270244
0.0268456
0.0267389
0.0267247
0.0268184
0.0270276
0.0273483
0.0277663
0.0282613
0.0288115
0.0293943
0.0299826
0.030538
0.0310126
0.0313066
0.0272758
0.0270332
0.0268448
0.0267337
0.0267121
0.026797
0.0270017
0.0273262
0.0277579
0.0282759
0.028855
0.029469
0.0300871
0.0306656
0.031178
0.0315866
0.0272745
0.0270132
0.026814
0.0266945
0.026663
0.0267418
0.0269483
0.027288
0.0277514
0.0283175
0.0289602
0.029652
0.0303594
0.0310274
0.0316363
0.0322082
0.0272369
0.0269622
0.026753
0.0266268
0.0265892
0.0266626
0.0268701
0.0272222
0.027714
0.028327
0.0290368
0.029816
0.0306332
0.0314218
0.0321513
0.0329192
0.0271621
0.0268773
0.0266599
0.0265285
0.0264858
0.026552
0.0267524
0.0271019
0.0276008
0.0282348
0.0289833
0.0298229
0.0307262
0.0316166
0.0324257
0.0333054
0.0270501
0.0267571
0.0265316
0.0263931
0.0263417
0.0263942
0.0265743
0.0268988
0.0273714
0.0279815
0.0287127
0.0295449
0.030457
0.031368
0.032143
0.0329972
0.0269039
0.0266039
0.026369
0.0262185
0.0261504
0.0261774
0.02632
0.026593
0.0269998
0.0275294
0.0281651
0.0288837
0.0296651
0.0304258
0.0309121
0.0312104
0.026731
0.0264247
0.0261787
0.02601
0.0259152
0.0259034
0.0259908
0.0261878
0.0264929
0.0268883
0.0273469
0.0278238
0.0282722
0.0285538
0.0283347
0.0257987
0.0273391
0.0271192
0.0269426
0.0268422
0.0268384
0.0269471
0.0271767
0.0275236
0.0279735
0.028505
0.0290943
0.0297165
0.0303413
0.0309276
0.0314234
0.0317181
0.0273728
0.0271286
0.0269424
0.0268378
0.0268273
0.0269267
0.0271519
0.0275031
0.0279676
0.0285231
0.0291426
0.0297968
0.0304513
0.0310593
0.0315898
0.0319941
0.0273724
0.0271096
0.0269126
0.0267999
0.0267789
0.0268741
0.0271019
0.0274694
0.0279672
0.0285731
0.029258
0.0299903
0.0307322
0.0314244
0.0320454
0.0326063
0.0273351
0.0270589
0.026852
0.0267332
0.0267074
0.0267976
0.0270275
0.0274088
0.0279367
0.0285913
0.0293449
0.0301655
0.0310144
0.031821
0.0325549
0.0333091
0.0272594
0.0269732
0.0267579
0.0266343
0.0266042
0.0266881
0.026912
0.0272916
0.0278274
0.0285039
0.0292969
0.0301772
0.0311097
0.0320115
0.0328153
0.0336737
0.027145
0.0268505
0.026627
0.0264963
0.0264579
0.0265284
0.0267322
0.0270868
0.0275959
0.0282476
0.0290218
0.0298926
0.0308303
0.0317453
0.0325023
0.0333243
0.026995
0.0266934
0.0264602
0.026317
0.0262614
0.026306
0.0264714
0.0267731
0.0272141
0.027782
0.0284568
0.0292093
0.0300108
0.0307662
0.0312165
0.03146
0.0268169
0.0265089
0.0262641
0.0261019
0.0260184
0.0260227
0.026131
0.0263535
0.0266885
0.0271167
0.027608
0.0281115
0.0285717
0.0288378
0.0285607
0.0259043
0.0273868
0.0271661
0.02699
0.0268923
0.0268932
0.0270087
0.0272478
0.0276072
0.0280721
0.0286208
0.0292283
0.0298683
0.0305091
0.0311083
0.0316129
0.0319096
0.0274207
0.0271753
0.0269892
0.0268869
0.0268811
0.0269867
0.0272212
0.0275847
0.0280644
0.0286374
0.0292754
0.0299476
0.0306177
0.0312382
0.0317772
0.0321828
0.0274211
0.0271571
0.02696
0.0268496
0.0268328
0.0269348
0.0271719
0.0275518
0.0280652
0.0286891
0.029393
0.0301432
0.0308994
0.0316016
0.0322286
0.0327875
0.0273841
0.0271068
0.0269
0.0267838
0.0267628
0.0268601
0.0270996
0.0274937
0.0280376
0.0287109
0.0294841
0.0303225
0.031184
0.0319971
0.0327342
0.0334834
0.0273081
0.0270208
0.0268058
0.026685
0.0266603
0.0267519
0.0269858
0.0273785
0.0279306
0.0286259
0.0294384
0.0303361
0.0312798
0.0321845
0.0329878
0.0338375
0.0271925
0.0268972
0.0266739
0.0265461
0.0265133
0.0265918
0.0268059
0.0271736
0.0276987
0.0283685
0.0291614
0.0300484
0.0309954
0.0319093
0.0326604
0.0334689
0.0270407
0.0267382
0.0265051
0.0263647
0.0263147
0.0263671
0.0265426
0.0268567
0.0273125
0.0278969
0.0285883
0.0293547
0.0301625
0.0309118
0.0313453
0.0315589
0.0268599
0.026551
0.0263061
0.0261464
0.0260681
0.0260795
0.0261969
0.0264305
0.0267785
0.0272207
0.0277256
0.0282397
0.0287025
0.0289567
0.0286358
0.025919
0.02527
0.0252182
0.0251435
0.02506
0.0249735
0.0248762
0.024755
0.0245913
0.0243622
0.0240422
0.023604
0.0230192
0.0222603
0.0213054
0.0201403
0.0187839
0.0252769
0.025224
0.0251517
0.025072
0.0249877
0.0248936
0.0247766
0.0246171
0.0243923
0.0240762
0.0236415
0.0230602
0.0223044
0.021353
0.0201881
0.0188315
0.0252681
0.0252094
0.0251357
0.0250582
0.0249804
0.0248956
0.024789
0.0246404
0.0244265
0.0241207
0.0236958
0.0231248
0.0223803
0.0214434
0.020292
0.0189524
0.0252426
0.0251741
0.0250932
0.0250127
0.0249372
0.0248596
0.0247639
0.0246283
0.0244269
0.0241332
0.0237197
0.0231602
0.0224281
0.0215075
0.0203731
0.0190545
0.0252029
0.0251237
0.0250318
0.0249431
0.0248642
0.0247884
0.0246992
0.024573
0.0243825
0.0240993
0.0236958
0.0231463
0.0224252
0.0215193
0.020402
0.0191058
0.0251518
0.0250632
0.0249599
0.0248605
0.024774
0.024695
0.0246069
0.0244851
0.0243007
0.0240243
0.0236276
0.0230857
0.0223738
0.0214815
0.020383
0.019112
0.0250922
0.0249968
0.0248838
0.0247741
0.0246786
0.0245933
0.0245018
0.024379
0.0241954
0.0239207
0.0235267
0.0229891
0.0222848
0.0214054
0.0203286
0.0190872
0.0250274
0.0249278
0.0248082
0.0246907
0.0245872
0.0244944
0.0243965
0.0242683
0.0240804
0.0238024
0.0234067
0.0228702
0.022172
0.0213055
0.0202534
0.0190464
0.0252873
0.0252178
0.02513
0.0250369
0.0249422
0.0248413
0.0247185
0.0245548
0.0243268
0.024008
0.0235701
0.0229842
0.0222211
0.0212587
0.0200797
0.0187073
0.0252936
0.0252197
0.0251313
0.0250377
0.0249433
0.024841
0.024719
0.024557
0.024331
0.0240141
0.0235778
0.0229933
0.0222312
0.0212712
0.0200926
0.0187246
0.025284
0.0252012
0.025108
0.0250119
0.0249185
0.0248219
0.0247074
0.0245545
0.024338
0.0240306
0.0236033
0.0230282
0.0222759
0.0213293
0.020162
0.0188125
0.0252594
0.0251653
0.0250627
0.0249602
0.0248649
0.0247716
0.0246651
0.0245231
0.0243187
0.0240231
0.0236072
0.0230437
0.0223034
0.0213732
0.0202217
0.018891
0.0252217
0.025117
0.025003
0.0248906
0.0247889
0.0246943
0.0245918
0.0244575
0.024263
0.023978
0.0235725
0.0230197
0.0222908
0.0213757
0.0202404
0.0189325
0.0251724
0.0250593
0.0249346
0.0248111
0.0247002
0.0246003
0.0244969
0.0243656
0.0241767
0.0238986
0.0235006
0.0229565
0.0222381
0.0213378
0.0202226
0.0189415
0.0251138
0.0249949
0.0248618
0.0247284
0.0246081
0.0245006
0.0243926
0.0242596
0.0240712
0.0237951
0.0234007
0.0228622
0.022153
0.0212678
0.020177
0.0189279
0.0250491
0.024927
0.0247884
0.0246478
0.0245196
0.0244045
0.0242898
0.0241513
0.0239587
0.0236798
0.0232846
0.0227485
0.0220474
0.0211773
0.020115
0.0189032
0.0253379
0.0252459
0.0251386
0.0250305
0.0249269
0.0248217
0.0247014
0.0245449
0.0243275
0.0240207
0.0235937
0.0230132
0.022244
0.0212553
0.020017
0.0185518
0.0253449
0.0252463
0.0251373
0.0250269
0.024921
0.0248147
0.0246938
0.0245386
0.0243232
0.0240187
0.0235937
0.0230153
0.0222476
0.0212628
0.020025
0.0185684
0.0253329
0.0252232
0.0251065
0.0249903
0.0248824
0.0247786
0.0246646
0.0245185
0.0243133
0.0240193
0.0236045
0.0230367
0.0222797
0.0213093
0.0200807
0.0186419
0.025306
0.0251836
0.0250549
0.0249287
0.0248152
0.0247118
0.0246038
0.024468
0.0242752
0.0239939
0.0235913
0.0230359
0.0222907
0.021336
0.0201186
0.0186983
0.0252669
0.0251335
0.0249922
0.0248531
0.0247296
0.0246215
0.0245151
0.0243858
0.0242028
0.0239326
0.0235412
0.0229972
0.0222636
0.0213243
0.0201217
0.0187244
0.0252165
0.0250749
0.0249227
0.0247708
0.0246353
0.0245187
0.0244088
0.024281
0.024103
0.0238397
0.0234562
0.0229213
0.0221987
0.0212756
0.0200946
0.0187281
0.0251564
0.0250095
0.0248492
0.0246868
0.0245399
0.0244135
0.0242969
0.0241657
0.0239872
0.0237256
0.0233455
0.0228165
0.022104
0.021198
0.0200463
0.0187197
0.0250896
0.0249398
0.0247746
0.0246048
0.0244493
0.0243141
0.0241893
0.0240515
0.0238678
0.0236027
0.0232213
0.0226945
0.0219909
0.0211028
0.0199873
0.0187089
0.0254241
0.0253093
0.0251812
0.0250574
0.024945
0.024839
0.0247256
0.0245838
0.0243872
0.0241046
0.0237012
0.023137
0.0223649
0.0213357
0.0199926
0.0183438
0.0254328
0.0253096
0.0251798
0.0250533
0.024938
0.0248302
0.0247169
0.0245768
0.0243827
0.0241038
0.023704
0.0231436
0.0223751
0.0213523
0.0200099
0.0183725
0.0254183
0.0252824
0.0251431
0.0250086
0.0248888
0.0247818
0.0246741
0.0245433
0.0243609
0.0240937
0.0237059
0.023158
0.0224016
0.0213942
0.020056
0.0184286
0.0253876
0.0252381
0.0250851
0.0249374
0.0248086
0.0246991
0.0245956
0.0244744
0.0243045
0.024051
0.0236764
0.0231413
0.0223966
0.0214027
0.0200684
0.0184526
0.0253446
0.025184
0.0250174
0.0248545
0.0247122
0.0245945
0.0244896
0.0243733
0.0242124
0.0239699
0.0236066
0.0230828
0.022349
0.0213692
0.0200461
0.0184529
0.0252902
0.0251215
0.024944
0.0247668
0.0246097
0.0244799
0.0243683
0.0242508
0.0240933
0.0238567
0.0235006
0.0229852
0.0222618
0.0212987
0.0199989
0.0184448
0.025226
0.025052
0.0248666
0.0246781
0.0245076
0.0243652
0.0242438
0.0241202
0.02396
0.0237232
0.0233688
0.0228578
0.022144
0.0212003
0.0199369
0.0184395
0.0251545
0.0249778
0.0247875
0.0245913
0.0244109
0.0242577
0.0241259
0.0239931
0.0238253
0.0235825
0.0232243
0.0227134
0.0220076
0.0210848
0.0198694
0.0184437
0.0255447
0.0254087
0.0252612
0.0251231
0.0250038
0.0249
0.0247988
0.0246791
0.0245128
0.0242672
0.0239031
0.0233714
0.0226084
0.0215346
0.0200482
0.0181094
0.0255557
0.0254091
0.0252597
0.0251187
0.0249958
0.0248895
0.0247879
0.0246701
0.0245081
0.0242678
0.0239086
0.0233818
0.0226241
0.0215584
0.020073
0.0181423
0.0255396
0.0253791
0.0252189
0.0250678
0.0249379
0.02483
0.0247324
0.0246233
0.0244729
0.0242454
0.0238997
0.0233866
0.0226411
0.0215859
0.0200927
0.0181436
0.0255053
0.0253308
0.025156
0.0249896
0.0248474
0.0247335
0.0246374
0.0245362
0.0243977
0.0241839
0.023852
0.0233514
0.0226156
0.0215667
0.0200651
0.0181054
0.0254575
0.025272
0.0250838
0.0249009
0.0247425
0.0246166
0.0245154
0.024416
0.0242847
0.0240808
0.0237593
0.0232685
0.0225415
0.0215017
0.0200054
0.0180632
0.0253974
0.0252041
0.0250056
0.024808
0.0246327
0.0244914
0.0243794
0.024275
0.0241438
0.0239432
0.0236268
0.0231421
0.0224239
0.0213997
0.0199296
0.0180401
0.0253267
0.0251283
0.0249224
0.0247134
0.0245233
0.0243665
0.0242407
0.024126
0.0239881
0.0237835
0.0234652
0.0229815
0.022271
0.0212689
0.0198464
0.0180458
0.0252485
0.0250471
0.0248364
0.0246193
0.0244181
0.0242481
0.0241087
0.023981
0.0238312
0.0236158
0.0232888
0.0228003
0.0220952
0.0211183
0.019761
0.0180798
0.0256976
0.025543
0.0253794
0.0252304
0.0251078
0.0250107
0.0249278
0.0248386
0.0247151
0.0245225
0.0242179
0.0237436
0.0230168
0.0219125
0.020251
0.0178874
0.0257113
0.0255437
0.0253776
0.0252256
0.0250987
0.0249981
0.0249141
0.0248267
0.0247076
0.0245211
0.0242234
0.0237559
0.023034
0.0219303
0.0202507
0.0178369
0.0256948
0.0255124
0.0253348
0.0251711
0.0250348
0.02493
0.0248479
0.0247681
0.0246608
0.0244884
0.0242057
0.0237522
0.0230393
0.0219279
0.0202003
0.0176677
0.0256577
0.0254612
0.025269
0.025089
0.0249381
0.0248239
0.0247401
0.0246658
0.0245695
0.0244108
0.0241424
0.0237009
0.0229941
0.0218704
0.0201025
0.0174777
0.0256051
0.0253979
0.0251932
0.0249968
0.024828
0.0246988
0.0246059
0.0245298
0.0244379
0.0242874
0.0240285
0.0235952
0.0228943
0.0217679
0.0199915
0.0173424
0.0255385
0.0253236
0.0251095
0.0248992
0.0247128
0.0245655
0.0244576
0.0243719
0.0242756
0.0241245
0.0238674
0.0234369
0.0227424
0.0216275
0.0198821
0.017288
0.0254599
0.0252398
0.025019
0.0247977
0.0245958
0.0244305
0.0243047
0.0242034
0.0240945
0.0239334
0.0236682
0.0232323
0.0225424
0.0214519
0.019777
0.0173242
0.0253729
0.0251496
0.0249239
0.024694
0.0244797
0.0242987
0.0241554
0.0240356
0.0239083
0.0237286
0.0234458
0.0229953
0.0223044
0.0212452
0.0196759
0.0174558
0.0258787
0.0257086
0.0255329
0.0253779
0.0252572
0.0251727
0.0251152
0.025066
0.024998
0.024877
0.0246595
0.0242838
0.023651
0.0225841
0.0207667
0.0178083
0.0258954
0.0257097
0.025531
0.0253726
0.0252468
0.0251578
0.0250985
0.0250509
0.024988
0.0248744
0.0246658
0.0242988
0.0236701
0.0225857
0.0206642
0.0174118
0.0258794
0.0256783
0.0254877
0.025317
0.0251801
0.0250844
0.0250251
0.0249842
0.0249335
0.024836
0.0246458
0.0242971
0.0236786
0.0225638
0.0205005
0.0168348
0.0258407
0.0256255
0.0254209
0.0252339
0.0250812
0.0249739
0.02491
0.0248726
0.0248322
0.0247496
0.0245768
0.0242445
0.023635
0.0224926
0.0203276
0.0163371
0.0257837
0.0255579
0.0253419
0.0251398
0.0249692
0.024845
0.0247689
0.0247263
0.0246878
0.0246121
0.0244496
0.0241279
0.0235277
0.0223764
0.0201807
0.0160186
0.0257103
0.0254768
0.0252524
0.0250378
0.02485
0.0247062
0.0246117
0.0245547
0.0245069
0.0244262
0.0242619
0.0239404
0.0233471
0.0222057
0.0200519
0.0158814
0.0256228
0.0253839
0.0251531
0.0249282
0.0247248
0.0245612
0.0244448
0.0243663
0.0242987
0.0241995
0.0240179
0.0236805
0.0230846
0.0219649
0.0199247
0.0159307
0.0255253
0.025283
0.0250469
0.0248129
0.0245958
0.0244137
0.024275
0.0241713
0.0240762
0.0239468
0.0237324
0.0233596
0.0227417
0.0216386
0.0197875
0.0162345
0.0260822
0.0258991
0.0257156
0.0255596
0.0254465
0.0253809
0.0253564
0.0253566
0.0253569
0.0253265
0.0252266
0.0250028
0.024565
0.0237311
0.0220952
0.0188415
0.0261012
0.0259007
0.0257134
0.0255538
0.025435
0.0253639
0.0253369
0.0253389
0.0253453
0.0253243
0.0252363
0.0250263
0.0246009
0.0237589
0.0219552
0.0180192
0.0260867
0.0258702
0.025671
0.025499
0.0253681
0.0252888
0.0252602
0.0252686
0.0252888
0.0252875
0.0252247
0.0250451
0.0246505
0.0238044
0.0218168
0.0171096
0.0260473
0.0258166
0.0256042
0.025417
0.0252703
0.0251783
0.0251436
0.0251542
0.0251854
0.0252021
0.0251638
0.0250143
0.0246523
0.0238161
0.0217263
0.01644
0.0259866
0.0257452
0.0255225
0.025322
0.0251587
0.0250493
0.0250007
0.025004
0.0250353
0.0250593
0.0250349
0.0249056
0.0245721
0.0237628
0.0216701
0.0160537
0.0259057
0.0256571
0.0254267
0.0252153
0.025036
0.0249068
0.0248375
0.0248224
0.0248397
0.0248543
0.0248251
0.0246959
0.0243755
0.0235969
0.0215852
0.0158727
0.025809
0.0255545
0.0253175
0.0250964
0.0249018
0.0247515
0.0246568
0.0246142
0.0246034
0.0245892
0.0245301
0.0243693
0.0240292
0.0232581
0.0213984
0.0158149
0.0257002
0.0254416
0.0251987
0.0249676
0.0247578
0.0245861
0.0244639
0.024388
0.0243385
0.0242784
0.0241638
0.0239319
0.0235153
0.0226647
0.0210031
0.0158095
0.0257617
0.0254868
0.0252331
0.0249973
0.0247839
0.0246071
0.0244786
0.0243979
0.0243488
0.0242968
0.0242002
0.0239945
0.0236189
0.022821
0.0212773
0.0162134
0.0256354
0.0253597
0.0251
0.0248511
0.0246195
0.024419
0.0242597
0.0241379
0.0240337
0.0239079
0.023711
0.0233662
0.0227865
0.0217243
0.0199
0.0163744
0.0255203
0.0252462
0.024982
0.0247222
0.024476
0.0242578
0.0240753
0.0239217
0.0237731
0.0235886
0.0233161
0.0228868
0.0222185
0.0211827
0.0195929
0.0174114
0.0254238
0.0251549
0.0248894
0.0246237
0.0243703
0.0241434
0.0239477
0.0237732
0.023593
0.0233669
0.0230454
0.0225751
0.0218874
0.0209342
0.019567
0.017919
0.0253529
0.0250919
0.0248301
0.0245664
0.0243152
0.0240888
0.0238889
0.0237019
0.0234998
0.0232446
0.0228915
0.0224
0.0217149
0.0208214
0.0196159
0.0182174
0.0253071
0.0250584
0.0248063
0.0245531
0.0243124
0.0240936
0.0238947
0.0237001
0.023482
0.0232053
0.0228306
0.0223254
0.0216469
0.0207916
0.019699
0.018448
0.0252796
0.0250487
0.0248102
0.0245721
0.024347
0.0241409
0.0239484
0.0237528
0.0235268
0.0232382
0.0228519
0.0223395
0.0216671
0.0208315
0.0197984
0.018615
0.0252561
0.0250468
0.0248187
0.0245923
0.0243815
0.0241901
0.0240105
0.023824
0.0236035
0.0233176
0.0229333
0.0224228
0.0217562
0.0209258
0.0199053
0.0187269
0.0259428
0.0256564
0.0253995
0.0251719
0.0249748
0.0248201
0.02472
0.0246767
0.0246784
0.0246952
0.0246898
0.0246023
0.0243682
0.0237147
0.022099
0.016453
0.0258018
0.025514
0.0252495
0.0250057
0.0247851
0.0245995
0.0244592
0.0243629
0.0242935
0.0242138
0.0240747
0.0237947
0.0232721
0.0222095
0.0202067
0.0161033
0.0256725
0.0253858
0.0251154
0.0248569
0.0246157
0.0244047
0.0242323
0.0240936
0.0239668
0.023811
0.0235721
0.0231739
0.0225204
0.0214518
0.0197346
0.0172826
0.0255639
0.0252816
0.0250085
0.0247403
0.0244862
0.0242597
0.0240672
0.0239002
0.0237334
0.0235255
0.0232238
0.0227692
0.0220823
0.0211033
0.0196525
0.0178756
0.0254826
0.0252084
0.0249375
0.024668
0.0244116
0.0241813
0.0239806
0.0237976
0.0236047
0.0233627
0.023023
0.0225412
0.0218532
0.020941
0.0196765
0.0182
0.0254294
0.0251675
0.0249054
0.0246441
0.024396
0.0241718
0.0239713
0.02378
0.02357
0.0233045
0.0229405
0.0224425
0.0217606
0.0208909
0.0197569
0.0184528
0.0253971
0.0251533
0.0249046
0.0246579
0.0244258
0.0242152
0.0240224
0.0238313
0.023614
0.0233363
0.0229601
0.0224542
0.0217791
0.0209318
0.0198677
0.0186427
0.0253712
0.0251509
0.0249134
0.0246789
0.0244621
0.0242679
0.0240899
0.0239096
0.0236992
0.0234252
0.023052
0.0225487
0.021881
0.0210403
0.0199924
0.0187742
0.0261201
0.0258245
0.025566
0.025348
0.0251694
0.0250401
0.0249727
0.0249709
0.0250256
0.0251095
0.0251862
0.0251926
0.0250499
0.0244409
0.0227056
0.0165369
0.0259645
0.0256669
0.0253994
0.0251622
0.024955
0.0247879
0.024671
0.0246042
0.024572
0.0245379
0.0244514
0.0242235
0.023736
0.0226465
0.0204849
0.0159676
0.0258211
0.025524
0.0252492
0.0249939
0.0247606
0.0245605
0.0244024
0.0242823
0.0241794
0.0240523
0.0238441
0.023471
0.0228236
0.021715
0.0198804
0.0172055
0.0257001
0.0254069
0.025128
0.0248596
0.024608
0.0243857
0.0241999
0.0240434
0.0238915
0.0237018
0.0234184
0.0229762
0.0222863
0.0212777
0.0197475
0.0178531
0.0256084
0.0253232
0.0250455
0.0247728
0.0245145
0.0242836
0.0240849
0.0239079
0.0237253
0.0234963
0.023169
0.022695
0.0220024
0.0210699
0.0197501
0.0182014
0.0255479
0.025275
0.0250052
0.0247385
0.0244862
0.0242593
0.0240592
0.0238725
0.0236712
0.0234167
0.0230628
0.022571
0.0218849
0.0210003
0.0198274
0.0184734
0.0255109
0.0252565
0.0249999
0.0247473
0.0245106
0.0242978
0.0241063
0.0239206
0.0237123
0.0234454
0.0230788
0.0225786
0.0219006
0.0210415
0.0199479
0.0186833
0.0254827
0.0252535
0.0250089
0.0247689
0.0245486
0.0243537
0.0241787
0.0240055
0.0238055
0.0235432
0.0231804
0.0226836
0.0220144
0.0211633
0.0200891
0.0188331
0.0262846
0.0259819
0.0257229
0.0255146
0.0253544
0.0252509
0.0252164
0.0252557
0.0253605
0.0255041
0.0256483
0.0257225
0.0256312
0.0250167
0.02314
0.0165277
0.0261153
0.0258101
0.0255408
0.0253105
0.0251173
0.0249695
0.0248771
0.0248404
0.0248441
0.0248513
0.0248085
0.0246182
0.0241466
0.0230159
0.0207101
0.0158744
0.0259586
0.0256532
0.0253754
0.0251242
0.0248999
0.0247124
0.0245702
0.0244698
0.0243906
0.0242899
0.0241077
0.0237522
0.0231029
0.0219515
0.020012
0.0171591
0.0258259
0.0255239
0.0252409
0.0249737
0.0247262
0.0245102
0.0243331
0.0241885
0.0240516
0.0238789
0.023611
0.0231775
0.0224811
0.0214419
0.0198404
0.0178461
0.0257244
0.0254303
0.0251476
0.0248734
0.0246154
0.0243862
0.0241914
0.0240216
0.0238493
0.0236325
0.0233161
0.0228478
0.0221491
0.0211962
0.0198269
0.0182149
0.025657
0.0253751
0.0250995
0.0248296
0.0245752
0.0243477
0.0241495
0.0239684
0.0237756
0.0235315
0.0231866
0.0226998
0.0220091
0.0211099
0.0199022
0.0185036
0.0256156
0.0253526
0.0250901
0.0248336
0.0245945
0.0243811
0.0241921
0.0240123
0.0238128
0.023556
0.0231982
0.022703
0.0220218
0.0211512
0.020031
0.0187304
0.0255854
0.0253491
0.0250993
0.0248559
0.0246339
0.0244398
0.0242687
0.0241029
0.0239129
0.0236617
0.0233084
0.0228173
0.0221462
0.0212848
0.0201866
0.0188963
0.0264277
0.0261198
0.025861
0.0256616
0.0255179
0.0254377
0.0254331
0.025509
0.0256573
0.02585
0.0260457
0.0261657
0.0260991
0.025456
0.0234465
0.01648
0.0262466
0.0259355
0.0256653
0.0254416
0.0252612
0.0251313
0.0250617
0.0250523
0.0250877
0.0251293
0.0251201
0.0249544
0.0244857
0.0233089
0.0208797
0.0157999
0.0260782
0.0257665
0.0254866
0.0252395
0.025024
0.0248487
0.0247218
0.0246399
0.024582
0.0245038
0.0243416
0.0239973
0.0233407
0.0221479
0.0201201
0.0171303
0.025935
0.0256262
0.0253403
0.0250749
0.0248322
0.0246229
0.0244549
0.0243218
0.0241987
0.0240406
0.023785
0.0233568
0.0226518
0.0215839
0.0199222
0.017848
0.025825
0.0255239
0.0252376
0.0249631
0.0247064
0.02448
0.0242899
0.0241273
0.0239646
0.0237584
0.0234508
0.0229864
0.0222811
0.021309
0.0198981
0.0182338
0.0257514
0.0254625
0.0251828
0.024911
0.0246559
0.024429
0.0242336
0.0240579
0.0238732
0.0236381
0.0233009
0.0228178
0.0221225
0.0212101
0.0199727
0.0185366
0.0257063
0.0254366
0.0251698
0.0249109
0.0246706
0.0244578
0.0242718
0.0240977
0.0239062
0.0236584
0.0233081
0.0228169
0.0221326
0.0212517
0.0201086
0.0187774
0.0256744
0.0254325
0.0251792
0.0249338
0.0247113
0.0245187
0.0243519
0.0241931
0.0240122
0.0237708
0.0234257
0.0229391
0.0222659
0.0213952
0.0202762
0.0189564
0.0265422
0.0262307
0.0259724
0.0257803
0.0256502
0.025589
0.0256089
0.0257144
0.025897
0.0261269
0.0263594
0.0265082
0.0264507
0.0257744
0.0236585
0.0164319
0.0263515
0.0260363
0.0257657
0.0255475
0.0253778
0.0252628
0.0252121
0.0252251
0.0252858
0.0253539
0.0253688
0.025218
0.0247453
0.0235265
0.0210015
0.0157452
0.0261737
0.0258574
0.0255763
0.0253329
0.0251249
0.02496
0.0248462
0.0247799
0.0247393
0.0246785
0.0245309
0.0241926
0.0235267
0.0222986
0.0202027
0.0171141
0.0260221
0.0257084
0.0254205
0.025157
0.0249187
0.0247157
0.0245557
0.0244326
0.024321
0.0241744
0.0239278
0.0235022
0.0227887
0.0216965
0.0199884
0.0178549
0.0259052
0.0255991
0.0253102
0.0250361
0.0247812
0.0245577
0.0243721
0.0242159
0.0240613
0.0238636
0.0235627
0.0231005
0.022389
0.0214011
0.0199578
0.0182535
0.0258267
0.0255327
0.0252501
0.0249775
0.0247224
0.0244967
0.0243042
0.0241334
0.0239553
0.0237276
0.0233963
0.0229158
0.0222165
0.021293
0.0200326
0.0185671
0.0257786
0.025504
0.0252343
0.0249741
0.0247334
0.0245217
0.0243385
0.0241695
0.0239847
0.0237442
0.0233998
0.0229116
0.0222246
0.021335
0.0201739
0.0188185
0.0257454
0.0254995
0.0252437
0.0249973
0.024775
0.0245843
0.0244213
0.0242686
0.0240952
0.0238617
0.023523
0.02304
0.0223648
0.0214863
0.0203507
0.0190076
0.0266219
0.0263084
0.0260507
0.025864
0.0257436
0.0256962
0.0257337
0.0258606
0.0260676
0.0263234
0.0265804
0.0267468
0.0266922
0.02599
0.023802
0.0164083
0.0264245
0.026107
0.0258364
0.0256224
0.0254604
0.0253563
0.0253194
0.0253489
0.0254281
0.0255148
0.0255461
0.0254044
0.0249267
0.0236766
0.0210858
0.015715
0.0262402
0.0259212
0.0256395
0.025399
0.0251966
0.0250396
0.0249357
0.0248812
0.0248535
0.0248054
0.0246679
0.024333
0.0236592
0.0224049
0.0202623
0.0171104
0.0260828
0.025766
0.0254771
0.0252153
0.0249806
0.0247827
0.0246291
0.0245139
0.0244111
0.0242731
0.0240329
0.0236088
0.0228885
0.0217787
0.0200393
0.0178677
0.0259609
0.0256518
0.0253616
0.0250881
0.0248352
0.0246145
0.0244329
0.024282
0.0241337
0.0239424
0.0236463
0.0231855
0.0224694
0.0214701
0.020005
0.0182738
0.0258791
0.025582
0.0252978
0.0250252
0.0247709
0.0245467
0.0243569
0.0241902
0.0240173
0.0237951
0.023468
0.0229893
0.022287
0.0213555
0.0200792
0.0185935
0.025829
0.0255514
0.0252801
0.0250194
0.0247792
0.0245687
0.0243882
0.0242231
0.0240433
0.0238081
0.0234679
0.0229817
0.0222927
0.0213968
0.0202233
0.0188509
0.0257948
0.0255464
0.0252893
0.0250426
0.0248209
0.0246318
0.0244719
0.0243236
0.0241557
0.0239278
0.0235936
0.0231128
0.0224361
0.0215519
0.0204048
0.0190455
0.0266619
0.0263472
0.0260893
0.0259046
0.0257886
0.0257472