/*--------------------------------*- C++ -*----------------------------------*\
| =========                 |                                                 |
| \\      /  F ield         | foam-extend: Open Source CFD                    |
|  \\    /   O peration     | Version:     3.1                                |
|   \\  /    A nd           | Web:         http://www.extend-project.de       |
|    \\/     M anipulation  |                                                 |
\*---------------------------------------------------------------------------*/
FoamFile
{
    version     2.0;
    format      ascii;
    class       surfaceScalarField;
    location    "2.6";
    object      phi;
}
// * * * * * * * * * * * * * * * * * * * * * * * * * * * * * * * * * * * * * //

dimensions      [0 3 -1 0 0 0 0];

internalField   nonuniform List<scalar> 
41600
(
1.1859e-05
-4.73318e-08
-1.12042e-06
1.11958e-06
1.17202e-05
1.45352e-07
-2.10523e-06
2.0986e-06
1.14246e-05
3.03672e-07
-2.8349e-06
2.82682e-06
1.10628e-05
3.73952e-07
-3.55833e-06
3.54624e-06
1.07245e-05
3.63311e-07
-4.31912e-06
4.2941e-06
1.04775e-05
2.95987e-07
-5.11564e-06
5.06662e-06
1.03535e-05
2.05797e-07
-5.95132e-06
5.86958e-06
1.03485e-05
1.23207e-07
-6.8519e-06
6.73367e-06
1.04304e-05
6.94954e-08
-7.87105e-06
7.71961e-06
1.05665e-05
3.36877e-08
-9.09848e-06
8.92877e-06
1.07436e-05
-1.94219e-08
-1.06705e-05
1.05128e-05
1.0979e-05
-1.53778e-07
-1.27786e-05
1.2697e-05
1.12742e-05
-4.60996e-07
-1.56401e-05
1.58059e-05
1.13143e-05
-9.62448e-07
-1.92897e-05
2.0212e-05
9.33591e-06
-1.1913e-06
-2.25765e-05
2.57462e-05
-2.51937e-07
-1.86786e-05
2.82033e-05
3.30581e-05
8.41531e-09
-1.31095e-06
1.34352e-06
3.27875e-05
3.52034e-07
-3.21129e-06
3.27522e-06
3.23325e-05
6.53025e-07
-4.93552e-06
5.04116e-06
3.17605e-05
7.95306e-07
-6.74231e-06
6.8929e-06
3.1188e-05
7.59344e-07
-8.66313e-06
8.83959e-06
3.07223e-05
5.90102e-07
-1.06394e-05
1.0811e-05
3.04168e-05
3.75688e-07
-1.26185e-05
1.27542e-05
3.02543e-05
2.04299e-07
-1.45978e-05
1.46792e-05
3.01555e-05
1.41661e-07
-1.66531e-05
1.66797e-05
3.00042e-05
1.89168e-07
-1.89504e-05
1.89462e-05
2.9673e-05
2.87333e-07
-2.176e-05
2.17844e-05
2.90228e-05
3.16417e-07
-2.54712e-05
2.56512e-05
2.77758e-05
1.01534e-07
-3.05169e-05
3.12013e-05
2.50248e-05
-4.84672e-07
-3.68888e-05
3.91621e-05
1.79387e-05
-1.06114e-06
-4.18808e-05
4.88367e-05
-4.05122e-07
-3.18961e-05
4.97977e-05
5.13828e-05
1.67577e-08
-1.0426e-06
1.08546e-06
5.117e-05
4.63147e-07
-2.89083e-06
2.99256e-06
5.0771e-05
8.64616e-07
-4.79808e-06
4.98547e-06
5.01836e-05
1.08473e-06
-6.99247e-06
7.29047e-06
4.94717e-05
1.07058e-06
-9.50751e-06
9.90819e-06
4.87338e-05
8.67026e-07
-1.22455e-05
1.27065e-05
4.80508e-05
5.94612e-07
-1.50687e-05
1.55327e-05
4.74422e-05
3.93222e-07
-1.7876e-05
1.82958e-05
4.68413e-05
3.89843e-07
-2.06617e-05
2.10144e-05
4.61035e-05
6.24542e-07
-2.35523e-05
2.38547e-05
4.50146e-05
1.05929e-06
-2.684e-05
2.7157e-05
4.32741e-05
1.57064e-06
-3.09964e-05
3.14827e-05
4.03687e-05
1.9528e-06
-3.66476e-05
3.77017e-05
3.49525e-05
1.93381e-06
-4.39986e-05
4.69964e-05
2.36223e-05
1.34296e-06
-4.99826e-05
5.89086e-05
3.2347e-07
-3.78643e-05
6.04096e-05
6.66646e-05
-1.29e-08
-8.24922e-07
8.63693e-07
6.65386e-05
5.00523e-07
-2.34781e-06
2.43648e-06
6.62506e-05
9.72256e-07
-3.97926e-06
4.15965e-06
6.57242e-05
1.28101e-06
-5.99602e-06
6.32616e-06
6.49313e-05
1.35994e-06
-8.52478e-06
9.0283e-06
6.39149e-05
1.23642e-06
-1.15232e-05
1.21702e-05
6.27599e-05
1.02841e-06
-1.48302e-05
1.55514e-05
6.15333e-05
9.06915e-07
-1.82562e-05
1.89691e-05
6.02361e-05
1.04029e-06
-2.16675e-05
2.23143e-05
5.87604e-05
1.52754e-06
-2.50722e-05
2.56449e-05
5.68788e-05
2.38488e-06
-2.86897e-05
2.92457e-05
5.42018e-05
3.54675e-06
-3.29924e-05
3.36932e-05
5.00569e-05
4.85236e-06
-3.8726e-05
3.99714e-05
4.27231e-05
6.01327e-06
-4.64716e-05
4.97259e-05
2.81872e-05
6.10084e-06
-5.3356e-05
6.3134e-05
2.73911e-06
-4.10445e-05
6.62647e-05
7.88682e-05
-4.58662e-08
-6.96781e-07
7.27049e-07
7.87931e-05
5.1477e-07
-1.95899e-06
2.01986e-06
7.85966e-05
1.0419e-06
-3.264e-06
3.39088e-06
7.81572e-05
1.44752e-06
-4.9099e-06
5.18278e-06
7.73603e-05
1.6731e-06
-7.12773e-06
7.61142e-06
7.6166e-05
1.73295e-06
-9.99307e-06
1.06908e-05
7.46199e-05
1.72825e-06
-1.34111e-05
1.42574e-05
7.28144e-05
1.81796e-06
-1.71654e-05
1.80599e-05
7.08183e-05
2.18719e-06
-2.10251e-05
2.18743e-05
6.86049e-05
2.98281e-06
-2.48689e-05
2.5627e-05
6.59952e-05
4.29159e-06
-2.87916e-05
2.94946e-05
6.25852e-05
6.14979e-06
-3.32005e-05
3.40075e-05
5.76294e-05
8.51242e-06
-3.88722e-05
4.01679e-05
4.90982e-05
1.12941e-05
-4.67335e-05
4.99839e-05
3.21836e-05
1.29883e-05
-5.43348e-05
6.43619e-05
7.24638e-06
-4.24857e-05
6.93767e-05
8.80068e-05
-7.18634e-08
-6.13019e-07
6.41588e-07
8.79486e-05
5.31654e-07
-1.71373e-06
1.75499e-06
8.78099e-05
1.10572e-06
-2.79072e-06
2.86562e-06
8.74576e-05
1.60672e-06
-4.11438e-06
4.30749e-06
8.67209e-05
2.004e-06
-5.96773e-06
6.37356e-06
8.5482e-05
2.31144e-06
-8.53108e-06
9.19142e-06
8.373e-05
2.60599e-06
-1.18054e-05
1.26798e-05
8.15472e-05
3.02081e-06
-1.56141e-05
1.6594e-05
7.905e-05
3.71963e-06
-1.96821e-05
2.06469e-05
7.62888e-05
4.87515e-06
-2.37854e-05
2.46542e-05
7.31706e-05
6.63142e-06
-2.78979e-05
2.86763e-05
6.93314e-05
9.15628e-06
-3.23295e-05
3.31622e-05
6.40319e-05
1.25636e-05
-3.78025e-05
3.90509e-05
5.50351e-05
1.72332e-05
-4.5511e-05
4.85687e-05
3.64135e-05
2.17691e-05
-5.35794e-05
6.34202e-05
1.47015e-05
-4.24014e-05
7.03208e-05
9.40904e-05
-8.37138e-08
-5.51402e-07
5.78072e-07
9.40372e-05
5.54314e-07
-1.5451e-06
1.57571e-06
9.39383e-05
1.16384e-06
-2.48086e-06
2.5216e-06
9.36666e-05
1.74876e-06
-3.58745e-06
3.71709e-06
9.30268e-05
2.31621e-06
-5.15345e-06
5.48102e-06
9.18522e-05
2.88996e-06
-7.41616e-06
8.01228e-06
9.00833e-05
3.52613e-06
-1.04527e-05
1.13015e-05
8.77843e-05
4.31903e-06
-1.41359e-05
1.51367e-05
8.50938e-05
5.39385e-06
-1.81882e-05
1.92045e-05
8.21307e-05
6.91461e-06
-2.23236e-05
2.32472e-05
7.88975e-05
9.0585e-06
-2.64184e-05
2.72245e-05
7.51216e-05
1.21289e-05
-3.06804e-05
3.14837e-05
7.01403e-05
1.64194e-05
-3.57065e-05
3.6832e-05
6.17441e-05
2.2975e-05
-4.28254e-05
4.54797e-05
4.24898e-05
3.1914e-05
-5.10092e-05
6.01185e-05
2.7587e-05
-4.04222e-05
6.87246e-05
9.71242e-05
-5.04365e-07
5.2941e-07
-7.97494e-08
9.70795e-05
-1.41654e-06
1.44097e-06
5.74553e-07
9.70213e-05
-2.25784e-06
2.27985e-06
1.20003e-06
9.683e-05
-3.22855e-06
3.32106e-06
1.84758e-06
9.63059e-05
-4.60639e-06
4.88278e-06
2.56389e-06
9.52648e-05
-6.64489e-06
7.18997e-06
3.386e-06
9.36268e-05
-9.45434e-06
1.02681e-05
4.35036e-06
9.14496e-05
-1.29355e-05
1.39257e-05
5.50605e-06
8.88916e-05
-1.68145e-05
1.78403e-05
6.92606e-06
8.61319e-05
-2.07729e-05
2.17105e-05
8.7366e-06
8.32763e-05
-2.46178e-05
2.54195e-05
1.11126e-05
8.02361e-05
-2.8455e-05
2.91924e-05
1.44316e-05
7.65746e-05
-3.26999e-05
3.36407e-05
1.91402e-05
7.06404e-05
-3.84976e-05
4.04545e-05
2.69522e-05
5.43522e-05
-4.61932e-05
5.34008e-05
4.09947e-05
-3.55329e-05
6.15743e-05
5.43297e-05
1.26593e-05
-6.86768e-08
-1.07245e-06
1.24615e-05
1.10209e-07
-2.01764e-06
1.20782e-05
2.627e-07
-2.71432e-06
1.15978e-05
3.28014e-07
-3.40592e-06
1.1108e-05
3.10129e-07
-4.1395e-06
1.06761e-05
2.31906e-07
-4.91563e-06
1.03318e-05
1.28367e-07
-5.73543e-06
1.00666e-05
2.83041e-08
-6.61496e-06
9.83407e-06
-4.19749e-08
-7.59655e-06
9.57285e-06
-8.77605e-08
-8.7495e-06
9.22283e-06
-1.46845e-07
-1.01736e-05
8.72946e-06
-2.97426e-07
-1.19878e-05
7.99023e-06
-6.31635e-07
-1.42693e-05
6.67913e-06
-1.18269e-06
-1.67959e-05
3.98547e-06
-1.71968e-06
-1.81631e-05
-1.61912e-06
-1.31462e-05
3.534e-05
-2.18467e-08
-1.22825e-06
3.49686e-05
2.91661e-07
-3.02138e-06
3.43563e-05
5.7511e-07
-4.63559e-06
3.35619e-05
7.02886e-07
-6.32282e-06
3.26955e-05
6.41802e-07
-8.1284e-06
3.18585e-05
4.40955e-07
-1.00114e-05
3.11017e-05
1.84387e-07
-1.19177e-05
3.03966e-05
-2.66168e-08
-1.38377e-05
2.96417e-05
-1.2252e-07
-1.58177e-05
2.86765e-05
-8.99004e-08
-1.79831e-05
2.72954e-05
1.48201e-08
-2.05405e-05
2.52535e-05
2.10284e-08
-2.37478e-05
2.21329e-05
-2.37578e-07
-2.77903e-05
1.71883e-05
-9.8664e-07
-3.21403e-05
9.24525e-06
-1.98856e-06
-3.36689e-05
-2.2517e-06
-2.22303e-05
5.49553e-05
-1.63999e-08
-9.64446e-07
5.46438e-05
4.00356e-07
-2.68804e-06
5.40859e-05
7.82049e-07
-4.44707e-06
5.32677e-05
9.85034e-07
-6.45646e-06
5.22338e-05
9.39792e-07
-8.77152e-06
5.10651e-05
6.89318e-07
-1.13251e-05
4.98312e-05
3.50854e-07
-1.40013e-05
4.85369e-05
8.81489e-08
-1.66965e-05
4.70946e-05
3.62145e-08
-1.93782e-05
4.53115e-05
2.63871e-07
-2.2123e-05
4.28947e-05
7.31916e-07
-2.51403e-05
3.94038e-05
1.28406e-06
-2.87685e-05
3.41688e-05
1.66785e-06
-3.3318e-05
2.60022e-05
1.52928e-06
-3.83479e-05
1.35069e-05
5.7139e-07
-4.00472e-05
-9.93065e-07
-2.59891e-05
7.13106e-05
-4.40052e-08
-7.61139e-07
7.10954e-05
4.46673e-07
-2.17896e-06
7.06661e-05
9.06386e-07
-3.67429e-06
6.99396e-05
1.20674e-06
-5.49126e-06
6.88598e-05
1.26497e-06
-7.77012e-06
6.74353e-05
1.09815e-06
-1.05075e-05
6.57162e-05
8.25627e-07
-1.35858e-05
6.3747e-05
6.36016e-07
-1.68348e-05
6.15058e-05
7.17964e-07
-2.01081e-05
5.88417e-05
1.21983e-06
-2.3364e-05
5.54492e-05
2.16286e-06
-2.67282e-05
5.07921e-05
3.47127e-06
-3.05225e-05
4.3975e-05
4.94125e-06
-3.51823e-05
3.33985e-05
6.1513e-06
-4.05171e-05
1.72295e-05
5.99679e-06
-4.26124e-05
2.3967e-06
-2.77785e-05
8.43731e-05
-7.94341e-08
-6.41383e-07
8.42125e-05
4.73459e-07
-1.82525e-06
8.38857e-05
9.99656e-07
-3.03044e-06
8.32765e-05
1.40922e-06
-4.50322e-06
8.22461e-05
1.63221e-06
-6.4645e-06
8.07044e-05
1.67127e-06
-9.02451e-06
7.86432e-05
1.62192e-06
-1.21462e-05
7.61058e-05
1.66871e-06
-1.56607e-05
7.31247e-05
2.01652e-06
-1.93426e-05
6.96399e-05
2.86282e-06
-2.30271e-05
6.53996e-05
4.32699e-06
-2.67155e-05
5.98582e-05
6.46182e-06
-3.06497e-05
5.20085e-05
9.22416e-06
-3.53053e-05
3.98383e-05
1.23672e-05
-4.07793e-05
2.07741e-05
1.40277e-05
-4.33014e-05
8.29543e-06
-2.8413e-05
9.41553e-05
-1.06731e-07
-5.63289e-07
9.4014e-05
5.03294e-07
-1.6023e-06
9.37483e-05
1.08758e-06
-2.61294e-06
9.32431e-05
1.60387e-06
-3.80386e-06
9.23161e-05
2.01604e-06
-5.42447e-06
9.07997e-05
2.32996e-06
-7.67342e-06
8.86073e-05
2.62107e-06
-1.06122e-05
8.57515e-05
3.03702e-06
-1.41265e-05
8.22932e-05
3.7696e-06
-1.79769e-05
7.82446e-05
5.0363e-06
-2.19103e-05
7.34513e-05
7.03229e-06
-2.58098e-05
6.74217e-05
9.97394e-06
-2.9812e-05
5.91498e-05
1.40485e-05
-3.4355e-05
4.62595e-05
1.95464e-05
-3.97998e-05
2.49102e-05
2.44936e-05
-4.2696e-05
1.77892e-05
-2.80354e-05
0.000100667
-1.18688e-07
-5.06051e-07
0.000100534
5.38751e-07
-1.44703e-06
0.00010031
1.16881e-06
-2.33796e-06
9.98941e-05
1.77743e-06
-3.34527e-06
9.90933e-05
2.37243e-06
-4.70911e-06
9.76976e-05
2.97743e-06
-6.66795e-06
9.5567e-05
3.65205e-06
-9.35306e-06
9.26773e-05
4.5031e-06
-1.27123e-05
8.90981e-05
5.67995e-06
-1.65194e-05
8.49031e-05
7.38719e-06
-2.04795e-05
8.00471e-05
9.85933e-06
-2.43895e-05
7.41483e-05
1.34803e-05
-2.8288e-05
6.63223e-05
1.86841e-05
-3.25161e-05
5.40347e-05
2.66615e-05
-3.76528e-05
3.14667e-05
3.69192e-05
-4.08669e-05
3.40647e-05
-2.65391e-05
0.000103915
-4.6249e-07
-1.12915e-07
0.000103793
-1.32787e-06
5.71787e-07
0.000103614
-2.13621e-06
1.22655e-06
0.000103287
-3.02763e-06
1.90319e-06
0.000102624
-4.22552e-06
2.6548e-06
0.000101404
-5.9748e-06
3.52717e-06
9.94691e-05
-8.43427e-06
4.56688e-06
9.6784e-05
-1.15831e-05
5.83576e-06
9.3434e-05
-1.52089e-05
7.42434e-06
8.95561e-05
-1.8999e-05
9.4913e-06
8.52323e-05
-2.26974e-05
1.22626e-05
8.02989e-05
-2.62633e-05
1.6222e-05
7.41981e-05
-2.99004e-05
2.19854e-05
6.48342e-05
-3.42436e-05
3.17714e-05
4.50255e-05
-3.78e-05
4.83346e-05
-2.36836e-05
6.56697e-05
1.33408e-05
-8.76144e-08
-9.7748e-07
1.3086e-05
7.71128e-08
-1.83997e-06
1.26212e-05
2.22742e-07
-2.47226e-06
1.20333e-05
2.81542e-07
-3.0996e-06
1.14081e-05
2.54751e-07
-3.76904e-06
1.08115e-05
1.62701e-07
-4.48177e-06
1.02738e-05
4.06433e-08
-5.23833e-06
9.78086e-06
-7.56293e-08
-6.0464e-06
9.27959e-06
-1.62159e-07
-6.93311e-06
8.69484e-06
-2.20423e-07
-7.94433e-06
7.95033e-06
-2.87203e-07
-9.14192e-06
6.97928e-06
-4.33185e-07
-1.05836e-05
5.70947e-06
-7.47158e-07
-1.22523e-05
4.01122e-06
-1.26003e-06
-1.38377e-05
1.83174e-06
-1.87718e-06
-1.41065e-05
-1.92494e-06
-9.46766e-06
3.72918e-05
-4.64289e-08
-1.10041e-06
3.68262e-05
2.36502e-07
-2.71516e-06
3.607e-05
5.01893e-07
-4.15861e-06
3.50784e-05
6.11843e-07
-5.66153e-06
3.3953e-05
5.30171e-07
-7.27841e-06
3.27943e-05
2.86687e-07
-8.97669e-06
3.16428e-05
-1.13634e-08
-1.07142e-05
3.04678e-05
-2.7127e-07
-1.2467e-05
2.9151e-05
-4.0449e-07
-1.42586e-05
2.75083e-05
-3.90174e-07
-1.61707e-05
2.53138e-05
-2.93127e-07
-1.83401e-05
2.2304e-05
-2.53594e-07
-2.09176e-05
1.81646e-05
-4.9446e-07
-2.39036e-05
1.25574e-05
-1.17959e-06
-2.66135e-05
5.59891e-06
-2.27534e-06
-2.63122e-05
-2.73613e-06
-1.60469e-05
5.80154e-05
-4.25313e-08
-8.54914e-07
5.76124e-05
3.44695e-07
-2.39325e-06
5.69093e-05
7.07326e-07
-3.94936e-06
5.58861e-05
8.91636e-07
-5.71303e-06
5.4573e-05
8.20954e-07
-7.7492e-06
5.30343e-05
5.18845e-07
-1.00186e-05
5.13278e-05
1.15129e-07
-1.24213e-05
4.94446e-05
-2.20462e-07
-1.48641e-05
4.72821e-05
-3.25963e-07
-1.72943e-05
4.4624e-05
-1.12562e-07
-1.97425e-05
4.1144e-05
3.83869e-07
-2.23373e-05
3.63995e-05
1.00682e-06
-2.52844e-05
2.97943e-05
1.48073e-06
-2.8688e-05
2.06619e-05
1.44385e-06
-3.18389e-05
9.21213e-06
4.42028e-07
-3.13149e-05
-1.29795e-06
-1.86062e-05
7.52929e-05
-7.20226e-08
-6.72306e-07
7.49947e-05
4.00455e-07
-1.9366e-06
7.44339e-05
8.49009e-07
-3.25513e-06
7.35252e-05
1.14154e-06
-4.83249e-06
7.21964e-05
1.18259e-06
-6.80297e-06
7.04257e-05
9.71681e-07
-9.18968e-06
6.82312e-05
6.38288e-07
-1.19145e-05
6.56321e-05
3.74644e-07
-1.48308e-05
6.2587e-05
4.01802e-07
-1.77908e-05
5.89252e-05
9.02411e-07
-2.07172e-05
5.43145e-05
1.91898e-06
-2.36526e-05
4.82e-05
3.37892e-06
-2.67801e-05
3.97412e-05
5.0595e-06
-3.03022e-05
2.78608e-05
6.48789e-06
-3.36808e-05
1.25876e-05
6.37358e-06
-3.32707e-05
2.61163e-06
-1.9692e-05
8.9092e-05
-1.08937e-07
-5.65571e-07
8.88535e-05
4.39384e-07
-1.62569e-06
8.84029e-05
9.65411e-07
-2.69622e-06
8.7633e-05
1.37996e-06
-3.97178e-06
8.63935e-05
1.6037e-06
-5.64614e-06
8.45572e-05
1.62633e-06
-7.84277e-06
8.20674e-05
1.54157e-06
-1.05598e-05
7.89214e-05
1.53597e-06
-1.36759e-05
7.51145e-05
1.85652e-06
-1.69904e-05
7.05666e-05
2.73339e-06
-2.03102e-05
6.5008e-05
4.32645e-06
-2.35643e-05
5.78793e-05
6.7121e-06
-2.68542e-05
4.81996e-05
9.84999e-06
-3.04161e-05
3.44321e-05
1.34116e-05
-3.39355e-05
1.60137e-05
1.52613e-05
-3.37708e-05
9.36026e-06
-1.99664e-05
9.9426e-05
-1.37292e-07
-4.96063e-07
9.92107e-05
4.81688e-07
-1.42932e-06
9.88241e-05
1.07704e-06
-2.33793e-06
9.81682e-05
1.60965e-06
-3.3776e-06
9.7061e-05
2.03965e-06
-4.75327e-06
9.53039e-05
2.36472e-06
-6.65475e-06
9.27527e-05
2.65591e-06
-9.17526e-06
8.93481e-05
3.06983e-06
-1.22558e-05
8.50984e-05
3.82433e-06
-1.56951e-05
7.99842e-05
5.177e-06
-1.92397e-05
7.38378e-05
7.3712e-06
-2.27081e-05
6.6169e-05
1.06689e-05
-2.61001e-05
5.59842e-05
1.53047e-05
-2.96249e-05
4.12861e-05
2.15067e-05
-3.31968e-05
2.02593e-05
2.69284e-05
-3.33363e-05
2.0114e-05
-1.9593e-05
0.000106305
-1.49207e-07
-4.45321e-07
0.000106102
5.29495e-07
-1.29136e-06
0.00010576
1.18138e-06
-2.09997e-06
0.000105198
1.81528e-06
-2.98954e-06
0.000104236
2.44005e-06
-4.14775e-06
0.000102643
3.07828e-06
-5.78848e-06
0.00010022
3.79091e-06
-8.06417e-06
9.68604e-05
4.69393e-06
-1.09772e-05
9.25642e-05
5.95692e-06
-1.43558e-05
8.73624e-05
7.81996e-06
-1.79206e-05
8.11981e-05
1.05665e-05
-2.14206e-05
7.37051e-05
1.46426e-05
-2.47686e-05
6.4025e-05
2.0573e-05
-2.81043e-05
4.98637e-05
2.95864e-05
-3.15712e-05
2.72493e-05
4.07926e-05
-3.21166e-05
3.80977e-05
-1.85914e-05
0.000109736
-4.06792e-07
-1.41635e-07
0.000109548
-1.18527e-06
5.74771e-07
0.000109255
-1.92301e-06
1.26083e-06
0.00010879
-2.71656e-06
1.96918e-06
0.000107982
-3.73518e-06
2.75773e-06
0.000106598
-5.19188e-06
3.67915e-06
0.000104426
-7.25923e-06
4.78866e-06
0.000101347
-9.96999e-06
6.15916e-06
9.73721e-05
-1.31731e-05
7.89626e-06
9.25915e-05
-1.65841e-05
1.01856e-05
8.70834e-05
-1.99163e-05
1.32935e-05
8.07114e-05
-2.30249e-05
1.77762e-05
7.29845e-05
-2.59561e-05
2.43556e-05
6.19032e-05
-2.9008e-05
3.54321e-05
4.16971e-05
-3.02237e-05
5.34224e-05
-1.68225e-05
7.13545e-05
1.39055e-05
-1.04201e-07
-8.39385e-07
1.35981e-05
4.77212e-08
-1.58028e-06
1.306e-05
1.86609e-07
-2.12084e-06
1.23778e-05
2.38914e-07
-2.6563e-06
1.16362e-05
2.02329e-07
-3.22975e-06
1.08985e-05
1.00489e-07
-3.84459e-06
1.01982e-05
-4.18587e-08
-4.49611e-06
9.51854e-06
-1.77578e-07
-5.18918e-06
8.80468e-06
-2.81753e-07
-5.93751e-06
7.97886e-06
-3.517e-07
-6.76681e-06
6.96648e-06
-4.20334e-07
-7.70921e-06
5.71672e-06
-5.51341e-07
-8.78247e-06
4.21294e-06
-8.19827e-07
-9.92871e-06
2.48887e-06
-1.26115e-06
-1.08524e-05
8.43942e-07
-1.84789e-06
-1.06136e-05
-1.89134e-06
-6.81424e-06
3.89155e-05
-6.78122e-08
-9.32139e-07
3.8365e-05
1.88809e-07
-2.30572e-06
3.74814e-05
4.37808e-07
-3.52618e-06
3.63177e-05
5.32931e-07
-4.79188e-06
3.49737e-05
4.23174e-07
-6.15523e-06
3.35413e-05
1.54298e-07
-7.59809e-06
3.20622e-05
-1.93962e-07
-9.08301e-06
3.05005e-05
-5.01651e-07
-1.05812e-05
2.87316e-05
-6.73322e-07
-1.20982e-05
2.6566e-05
-6.77288e-07
-1.36794e-05
2.37827e-05
-5.71994e-07
-1.54051e-05
2.01587e-05
-4.96833e-07
-1.73482e-05
1.55093e-05
-6.45908e-07
-1.94281e-05
9.8294e-06
-1.19729e-06
-2.09975e-05
3.84509e-06
-2.22569e-06
-1.99501e-05
-2.72281e-06
-1.16061e-05
6.05643e-05
-6.52227e-08
-7.18037e-07
6.00798e-05
2.976e-07
-2.01752e-06
5.92478e-05
6.43419e-07
-3.32303e-06
5.80468e-05
8.13305e-07
-4.79235e-06
5.6495e-05
7.15822e-07
-6.49008e-06
5.46495e-05
3.71039e-07
-8.38986e-06
5.2551e-05
-9.53766e-08
-1.04214e-05
5.01844e-05
-5.00519e-07
-1.24986e-05
4.74383e-05
-6.60024e-07
-1.45615e-05
4.40916e-05
-4.6582e-07
-1.66072e-05
3.98204e-05
6.42634e-08
-1.87024e-05
3.42267e-05
7.70318e-07
-2.09579e-05
2.6869e-05
1.38442e-06
-2.33606e-05
1.75078e-05
1.52894e-06
-2.5204e-05
7.14163e-06
6.26456e-07
-2.38008e-05
-1.17481e-06
-1.34154e-05
7.86113e-05
-9.5868e-08
-5.62931e-07
7.82401e-05
3.62203e-07
-1.63e-06
7.75615e-05
8.01353e-07
-2.73446e-06
7.64927e-05
1.08804e-06
-4.03846e-06
7.49508e-05
1.1137e-06
-5.65892e-06
7.28899e-05
8.75678e-07
-7.63335e-06
7.03061e-05
4.81301e-07
-9.90746e-06
6.71946e-05
1.48174e-07
-1.23679e-05
6.34987e-05
1.233e-07
-1.48782e-05
5.90472e-05
6.09954e-07
-1.73415e-05
5.35145e-05
1.69076e-06
-1.97463e-05
4.6386e-05
3.29592e-06
-2.21773e-05
3.69692e-05
5.19675e-06
-2.46978e-05
2.46463e-05
6.87921e-06
-2.67081e-05
1.03841e-05
6.90675e-06
-2.52888e-05
3.0304e-06
-1.41176e-05
9.30246e-05
-1.3408e-07
-4.72902e-07
9.27188e-05
4.12009e-07
-1.36971e-06
9.21574e-05
9.38533e-07
-2.272e-06
9.12421e-05
1.35871e-06
-3.32709e-06
8.98167e-05
1.58614e-06
-4.6932e-06
8.77344e-05
1.59957e-06
-6.48433e-06
8.48954e-05
1.48438e-06
-8.72389e-06
8.1258e-05
1.43667e-06
-1.13271e-05
7.67932e-05
1.72168e-06
-1.41239e-05
7.14049e-05
2.61537e-06
-1.69273e-05
6.48426e-05
4.31142e-06
-1.96228e-05
5.65928e-05
6.91093e-06
-2.22193e-05
4.58055e-05
1.03736e-05
-2.48057e-05
3.13926e-05
1.4304e-05
-2.69474e-05
1.38282e-05
1.63721e-05
-2.56718e-05
1.03076e-05
-1.42465e-05
0.000103818
-1.63355e-07
-4.14411e-07
0.000103541
4.65517e-07
-1.20492e-06
0.000103047
1.07173e-06
-1.97722e-06
0.000102252
1.62024e-06
-2.84402e-06
0.000100979
2.06908e-06
-3.96371e-06
9.90141e-05
2.40863e-06
-5.49891e-06
9.617e-05
2.70446e-06
-7.55121e-06
9.23321e-05
3.11689e-06
-1.00981e-05
8.74586e-05
3.88447e-06
-1.29843e-05
8.15107e-05
5.30057e-06
-1.59771e-05
7.43349e-05
7.64997e-06
-1.88708e-05
6.54979e-05
1.12326e-05
-2.15848e-05
5.41249e-05
1.63074e-05
-2.41858e-05
3.86182e-05
2.30362e-05
-2.64223e-05
1.82243e-05
2.88222e-05
-2.53925e-05
2.18248e-05
-1.39606e-05
0.000111004
-1.75134e-07
-3.71878e-07
0.000110742
5.24449e-07
-1.08852e-06
0.000110296
1.19737e-06
-1.77979e-06
0.0001096
1.85566e-06
-2.52858e-06
0.000108485
2.5098e-06
-3.47391e-06
0.000106715
3.18126e-06
-4.79107e-06
0.000104052
3.93057e-06
-6.62668e-06
0.000100326
4.87941e-06
-9.01461e-06
9.54753e-05
6.21299e-06
-1.18332e-05
8.94948e-05
8.19973e-06
-1.48393e-05
8.23376e-05
1.11618e-05
-1.77752e-05
7.37e-05
1.55897e-05
-2.04881e-05
6.28402e-05
2.2057e-05
-2.29941e-05
4.77783e-05
3.17711e-05
-2.52442e-05
2.55291e-05
4.35676e-05
-2.46128e-05
4.07513e-05
-1.33171e-05
0.000114586
-3.39624e-07
-1.65862e-07
0.000114344
-9.99022e-07
5.80695e-07
0.000113953
-1.63171e-06
1.29689e-06
0.00011336
-2.30388e-06
2.03627e-06
0.000112411
-3.13759e-06
2.86056e-06
0.000110876
-4.30312e-06
3.82776e-06
0.000108508
-5.96031e-06
4.99979e-06
0.000105128
-8.16907e-06
6.45839e-06
0.000100678
-1.08306e-05
8.32067e-06
9.52069e-05
-1.37059e-05
1.07924e-05
8.88e-05
-1.65162e-05
1.41686e-05
8.13827e-05
-1.90684e-05
1.90506e-05
7.25841e-05
-2.13168e-05
2.62163e-05
6.06088e-05
-2.33814e-05
3.81198e-05
4.04769e-05
-2.34543e-05
5.69301e-05
-1.21791e-05
7.49959e-05
1.43553e-05
-1.18097e-07
-6.64208e-07
1.4002e-05
2.34033e-08
-1.25035e-06
1.34018e-05
1.56002e-07
-1.67661e-06
1.26407e-05
2.02689e-07
-2.0979e-06
1.18023e-05
1.58775e-07
-2.55015e-06
1.09521e-05
4.15233e-08
-3.03587e-06
1.01216e-05
-1.13827e-07
-3.55181e-06
9.29758e-06
-2.67792e-07
-4.0974e-06
8.42624e-06
-3.87996e-07
-4.67817e-06
7.43312e-06
-4.67699e-07
-5.30599e-06
6.25268e-06
-5.3474e-07
-5.99403e-06
4.85572e-06
-6.45682e-07
-6.73983e-06
3.27167e-06
-8.64617e-07
-7.48005e-06
1.63074e-06
-1.2302e-06
-7.98131e-06
3.63039e-07
-1.75574e-06
-7.5902e-06
-1.78726e-06
-4.7481e-06
4.02128e-05
-8.52862e-08
-7.29994e-07
3.959e-05
1.49776e-07
-1.80936e-06
3.85987e-05
3.84479e-07
-2.76334e-06
3.72931e-05
4.65913e-07
-3.74951e-06
3.5769e-05
3.40719e-07
-4.81309e-06
3.41163e-05
3.91287e-08
-5.94297e-06
3.2378e-05
-3.49313e-07
-7.10919e-06
3.0515e-05
-7.00087e-07
-8.28599e-06
2.84033e-05
-9.0689e-07
-9.46757e-06
2.58574e-05
-9.26772e-07
-1.06745e-05
2.26744e-05
-8.08667e-07
-1.19482e-05
1.86808e-05
-6.8444e-07
-1.33158e-05
1.38015e-05
-7.35078e-07
-1.46784e-05
8.23632e-06
-1.1397e-06
-1.55227e-05
2.94373e-06
-2.05256e-06
-1.43607e-05
-2.56675e-06
-8.12443e-06
6.26027e-05
-8.36172e-08
-5.58702e-07
6.20497e-05
2.59693e-07
-1.57447e-06
6.11094e-05
5.91582e-07
-2.58981e-06
5.9759e-05
7.49366e-07
-3.72541e-06
5.80152e-05
6.29642e-07
-5.03521e-06
5.59212e-05
2.52981e-07
-6.50968e-06
5.35131e-05
-2.69008e-07
-8.09368e-06
5.07691e-05
-7.3519e-07
-9.71939e-06
4.75755e-05
-9.44238e-07
-1.13305e-05
4.37162e-05
-7.67781e-07
-1.2907e-05
3.88851e-05
-2.0342e-07
-1.44765e-05
3.27447e-05
5.84508e-07
-1.60864e-05
2.49904e-05
1.3437e-06
-1.76851e-05
1.56609e-05
1.67841e-06
-1.86927e-05
6.07385e-06
9.1521e-07
-1.71815e-05
-9.35485e-07
-9.38356e-06
8.1266e-05
-1.15231e-07
-4.36958e-07
8.08341e-05
3.31903e-07
-1.27033e-06
8.00564e-05
7.63487e-07
-2.12867e-06
7.88535e-05
1.04585e-06
-3.13207e-06
7.7134e-05
1.06391e-06
-4.37361e-06
7.48416e-05
7.99472e-07
-5.88744e-06
7.19501e-05
3.59134e-07
-7.64411e-06
6.844e-05
-3.46774e-08
-9.55836e-06
6.42454e-05
-1.10259e-07
-1.15176e-05
5.92003e-05
3.63132e-07
-1.34273e-05
5.30035e-05
1.49746e-06
-1.52504e-05
4.51981e-05
3.22861e-06
-1.70159e-05
3.52345e-05
5.3272e-06
-1.87177e-05
2.28043e-05
7.2444e-06
-1.98439e-05
9.27018e-06
7.43441e-06
-1.82739e-05
3.46263e-06
-9.85922e-06
9.61708e-05
-1.5458e-07
-3.66679e-07
9.58101e-05
3.90833e-07
-1.06792e-06
9.51557e-05
9.18261e-07
-1.77242e-06
9.41158e-05
1.344e-06
-2.58529e-06
9.25348e-05
1.57718e-06
-3.62545e-06
9.02515e-05
1.58519e-06
-4.98675e-06
8.71379e-05
1.44811e-06
-6.69929e-06
8.31225e-05
1.3633e-06
-8.70969e-06
7.81554e-05
1.61724e-06
-1.08843e-05
7.21371e-05
2.51889e-06
-1.30647e-05
6.48469e-05
4.2928e-06
-1.51279e-05
5.58341e-05
7.06189e-06
-1.70398e-05
4.43851e-05
1.07838e-05
-1.88133e-05
2.97219e-05
1.50107e-05
-2.00506e-05
1.27709e-05
1.72797e-05
-1.8566e-05
1.10725e-05
-9.92604e-06
0.000107332
-1.84629e-07
-3.21131e-07
0.000107004
4.53793e-07
-9.39504e-07
0.000106421
1.06981e-06
-1.54583e-06
0.000105507
1.63239e-06
-2.21812e-06
0.000104092
2.09903e-06
-3.07057e-06
0.000101953
2.45396e-06
-4.22909e-06
9.88778e-05
2.75685e-06
-5.78449e-06
9.47082e-05
3.16936e-06
-7.73458e-06
8.93651e-05
3.94526e-06
-9.96928e-06
8.27971e-05
5.40595e-06
-1.22961e-05
7.48743e-05
7.86997e-06
-1.45252e-05
6.52334e-05
1.16664e-05
-1.65483e-05
5.31281e-05
1.70647e-05
-1.83613e-05
3.7246e-05
2.41714e-05
-1.97008e-05
1.73047e-05
3.02326e-05
-1.84041e-05
2.30657e-05
-9.73319e-06
0.000114762
-1.96237e-07
-2.88118e-07
0.000114454
5.22116e-07
-8.48542e-07
0.000113923
1.21369e-06
-1.39307e-06
0.000113112
1.89352e-06
-1.97798e-06
0.000111863
2.57416e-06
-2.70025e-06
0.000109941
3.27604e-06
-3.69112e-06
0.000107085
4.05855e-06
-5.07271e-06
0.000103082
5.04636e-06
-6.88903e-06
9.78197e-05
6.43554e-06
-9.06064e-06
9.12659e-05
8.5157e-06
-1.13953e-05
8.33898e-05
1.16374e-05
-1.36665e-05
7.39573e-05
1.63217e-05
-1.57109e-05
6.23501e-05
2.31656e-05
-1.74878e-05
4.68242e-05
3.33438e-05
-1.88908e-05
2.48395e-05
4.55307e-05
-1.79261e-05
4.25856e-05
-9.33495e-06
0.000118466
-2.63101e-07
-1.85464e-07
0.000118181
-7.78675e-07
5.87583e-07
0.00011771
-1.27791e-06
1.33041e-06
0.000117007
-1.80531e-06
2.09749e-06
0.000115935
-2.4442e-06
2.95366e-06
0.000114266
-3.31961e-06
3.96088e-06
0.00011174
-4.56138e-06
5.18605e-06
0.000108133
-6.23373e-06
6.71736e-06
0.000103336
-8.27764e-06
8.67999e-06
9.7362e-05
-1.05097e-05
1.12936e-05
9.03046e-05
-1.26927e-05
1.48712e-05
8.21524e-05
-1.46366e-05
2.00421e-05
7.26513e-05
-1.62597e-05
2.76097e-05
6.01718e-05
-1.75995e-05
4.00414e-05
4.01164e-05
-1.72285e-05
5.93602e-05
-8.60243e-06
7.75272e-05
1.46915e-05
-1.28964e-07
-4.59525e-07
1.43011e-05
5.88847e-09
-8.65839e-07
1.36521e-05
1.3184e-07
-1.1595e-06
1.28298e-05
1.7401e-07
-1.44956e-06
1.19178e-05
1.23268e-07
-1.76151e-06
1.0982e-05
-3.12444e-09
-2.09692e-06
1.00556e-05
-1.72156e-07
-2.45324e-06
9.12777e-06
-3.41099e-07
-2.82845e-06
8.14776e-06
-4.74562e-07
-3.2236e-06
7.04639e-06
-5.6189e-07
-3.64273e-06
5.7681e-06
-6.26404e-07
-4.08934e-06
4.30159e-06
-7.18374e-07
-4.55494e-06
2.70581e-06
-8.94154e-07
-4.99011e-06
1.15864e-06
-1.19558e-06
-5.23856e-06
1.2651e-07
-1.66397e-06
-4.89411e-06
-1.69103e-06
-3.01613e-06
4.11841e-05
-9.85438e-08
-5.01141e-07
4.05049e-05
1.20151e-07
-1.24444e-06
3.9429e-05
3.43915e-07
-1.89957e-06
3.80137e-05
4.14077e-07
-2.57424e-06
3.63524e-05
2.75078e-07
-3.30354e-06
3.45346e-05
-5.00827e-08
-4.07825e-06
3.2604e-05
-4.70741e-07
-4.87999e-06
3.05221e-05
-8.56617e-07
-5.68859e-06
2.81675e-05
-1.0923e-06
-6.49522e-06
2.53626e-05
-1.12491e-06
-7.30653e-06
2.19241e-05
-9.95188e-07
-8.14091e-06
1.77207e-05
-8.26529e-07
-9.00425e-06
1.27514e-05
-7.87058e-07
-9.81612e-06
7.32757e-06
-1.06563e-06
-1.02289e-05
2.47985e-06
-1.8715e-06
-9.30547e-06
-2.39924e-06
-5.18147e-06
6.41307e-05
-9.74759e-08
-3.81788e-07
6.35242e-05
2.31321e-07
-1.07916e-06
6.24995e-05
5.52606e-07
-1.77383e-06
6.10344e-05
7.01019e-07
-2.54727e-06
5.91417e-05
5.69991e-07
-3.43737e-06
5.68619e-05
1.62859e-07
-4.44287e-06
5.42246e-05
-4.00681e-07
-5.52642e-06
5.12051e-05
-9.15541e-07
-6.64092e-06
4.76905e-05
-1.16495e-06
-7.74332e-06
4.34725e-05
-1.00283e-06
-8.81115e-06
3.827e-05
-4.18093e-07
-9.85106e-06
3.17913e-05
4.46787e-07
-1.0881e-05
2.38367e-05
1.32949e-06
-1.18471e-05
1.46044e-05
1.82576e-06
-1.23518e-05
5.52484e-06
1.18861e-06
-1.1162e-05
-6.82491e-07
-5.99127e-06
8.32565e-05
-1.29875e-07
-2.98035e-07
8.27779e-05
3.09486e-07
-8.69827e-07
8.19229e-05
7.35626e-07
-1.45672e-06
8.06145e-05
1.01524e-06
-2.13789e-06
7.87597e-05
1.02826e-06
-2.97704e-06
7.62918e-05
7.45362e-07
-4.00206e-06
7.31725e-05
2.70446e-07
-5.19597e-06
6.93719e-05
-1.70473e-07
-6.50287e-06
6.48191e-05
-2.86595e-07
-7.84313e-06
5.93562e-05
1.76131e-07
-9.14333e-06
5.2706e-05
1.34625e-06
-1.03646e-05
4.44684e-05
3.17693e-06
-1.15084e-05
3.41988e-05
5.4322e-06
-1.25508e-05
2.17741e-05
7.53793e-06
-1.31314e-05
8.70369e-06
7.86952e-06
-1.18844e-05
3.82424e-06
-6.28214e-06
9.85301e-05
-1.70164e-07
-2.49874e-07
9.81274e-05
3.75494e-07
-7.31277e-07
9.74011e-05
9.03989e-07
-1.21442e-06
9.62634e-05
1.33456e-06
-1.76696e-06
9.45607e-05
1.57355e-06
-2.46804e-06
9.21239e-05
1.57866e-06
-3.3833e-06
8.88061e-05
1.42828e-06
-4.53925e-06
8.45175e-05
1.31287e-06
-5.90446e-06
7.91898e-05
1.54554e-06
-7.38876e-06
7.27289e-05
2.448e-06
-8.87563e-06
6.4939e-05
4.27578e-06
-1.02676e-05
5.54289e-05
7.16857e-06
-1.15214e-05
4.35898e-05
1.10812e-05
-1.26231e-05
2.88329e-05
1.55283e-05
-1.32842e-05
1.22646e-05
1.79588e-05
-1.20869e-05
1.16402e-05
-6.32491e-06
0.000109967
-2.00827e-07
-2.18731e-07
0.000109601
4.45775e-07
-6.43292e-07
0.00010895
1.06987e-06
-1.06049e-06
0.000107942
1.64382e-06
-1.51965e-06
0.000106414
2.12543e-06
-2.09463e-06
0.00010414
2.49425e-06
-2.87061e-06
0.000100892
2.80512e-06
-3.91344e-06
9.64817e-05
3.21862e-06
-5.22978e-06
9.08065e-05
4.00028e-06
-6.74878e-06
8.38046e-05
5.4902e-06
-8.33637e-06
7.53693e-05
8.03292e-06
-9.84708e-06
6.51981e-05
1.19784e-05
-1.11869e-05
5.26466e-05
1.76008e-05
-1.23294e-05
3.65797e-05
2.49672e-05
-1.30729e-05
1.69073e-05
3.12299e-05
-1.2003e-05
2.3933e-05
-6.20989e-06
0.000117581
-2.1228e-07
-1.96216e-07
0.000117237
5.21383e-07
-5.80891e-07
0.000116642
1.22803e-06
-9.56264e-07
0.000115741
1.92519e-06
-1.35761e-06
0.000114385
2.62743e-06
-1.84622e-06
0.000112342
3.35449e-06
-2.50861e-06
0.000109341
4.16444e-06
-3.4308e-06
0.000105138
5.18313e-06
-4.65101e-06
9.95866e-05
6.61355e-06
-6.12247e-06
9.26352e-05
8.75988e-06
-7.71361e-06
8.42669e-05
1.19921e-05
-9.25744e-06
7.43056e-05
1.68513e-05
-1.06225e-05
6.22305e-05
2.39456e-05
-1.17576e-05
4.64494e-05
3.44239e-05
-1.25663e-05
2.46066e-05
4.68748e-05
-1.17282e-05
4.38367e-05
-5.97675e-06
0.000121376
-1.79169e-07
-2.00305e-07
0.000121058
-5.33009e-07
5.9399e-07
0.000120527
-8.77467e-07
1.35824e-06
0.00011974
-1.24037e-06
2.14773e-06
0.000118567
-1.6736e-06
3.02971e-06
0.000116791
-2.25841e-06
4.06896e-06
0.000114143
-3.08493e-06
5.33595e-06
0.000110374
-4.20483e-06
6.92311e-06
0.000105336
-5.58659e-06
8.96082e-06
9.90157e-05
-7.10719e-06
1.16775e-05
9.15137e-05
-8.59533e-06
1.53967e-05
8.28681e-05