/*--------------------------------*- C++ -*----------------------------------*\
| =========                 |                                                 |
| \\      /  F ield         | foam-extend: Open Source CFD                    |
|  \\    /   O peration     | Version:     3.1                                |
|   \\  /    A nd           | Web:         http://www.extend-project.de       |
|    \\/     M anipulation  |                                                 |
\*---------------------------------------------------------------------------*/
FoamFile
{
    version     2.0;
    format      ascii;
    class       pointVectorField;
    location    "2.6";
    object      pointMotionU;
}
// * * * * * * * * * * * * * * * * * * * * * * * * * * * * * * * * * * * * * //

dimensions      [0 1 -1 0 0 0 0];

internalField   nonuniform List<vector> 
16859
(
(0 0 0)
(0 0 0)
(0 0 0)
(0 0 0)
(0 0 0)
(0 0 0)
(0 0 0)
(0 0 0)
(0 0 0)
(0 0 0)
(0 0 0)
(0 0 0)
(0 0 0)
(0 0 0)
(0 0 0)
(0 0 0)
(0 0 0)
(0 0 0)
(-1.18991e-10 -4.58057e-11 -2.40224e-12)
(-2.28108e-10 -8.93552e-11 -4.90487e-12)
(-3.25483e-10 -1.31276e-10 -7.76576e-12)
(-4.1264e-10 -1.73327e-10 -1.1351e-11)
(-4.90307e-10 -2.16915e-10 -1.61175e-11)
(-5.5818e-10 -2.63077e-10 -2.26908e-11)
(-6.14553e-10 -3.12375e-10 -3.19728e-11)
(-6.55737e-10 -3.64713e-10 -4.53016e-11)
(-6.75236e-10 -4.18873e-10 -6.46847e-11)
(-6.62726e-10 -4.71798e-10 -9.31235e-11)
(-6.03203e-10 -5.17482e-10 -1.34996e-10)
(-4.77393e-10 -5.45459e-10 -1.96273e-10)
(-2.66256e-10 -5.39832e-10 -2.83743e-10)
(3.44665e-11 -4.82061e-10 -4.00532e-10)
(3.8338e-10 -3.68439e-10 -5.28411e-10)
(1.17719e-09 1.33744e-10 -1.0034e-09)
(0 0 0)
(-2.36717e-10 -8.98555e-11 -4.61545e-12)
(-4.53868e-10 -1.75286e-10 -9.41053e-12)
(-6.47868e-10 -2.57533e-10 -1.48654e-11)
(-8.21935e-10 -3.40076e-10 -2.166e-11)
(-9.77782e-10 -4.25733e-10 -3.06332e-11)
(-1.11526e-09 -5.1662e-10 -4.29195e-11)
(-1.23171e-09 -6.1408e-10 -6.01369e-11)
(-1.32099e-09 -7.18339e-10 -8.46606e-11)
(-1.372e-09 -8.27821e-10 -1.20024e-10)
(-1.36683e-09 -9.38063e-10 -1.71474e-10)
(-1.27894e-09 -1.03996e-09 -2.46651e-10)
(-1.07318e-09 -1.11766e-09 -3.56055e-10)
(-7.12224e-10 -1.14754e-09 -5.11992e-10)
(-1.80532e-10 -1.10322e-09 -7.21449e-10)
(4.60802e-10 -9.76886e-10 -9.55862e-10)
(2.15276e-09 -6.27413e-10 -1.98606e-09)
(0 0 0)
(-3.52074e-10 -1.30556e-10 -6.48333e-12)
(-6.75225e-10 -2.54677e-10 -1.31885e-11)
(-9.64406e-10 -3.74191e-10 -2.07546e-11)
(-1.2248e-09 -4.94229e-10 -3.00843e-11)
(-1.45956e-09 -6.18969e-10 -4.22682e-11)
(-1.66947e-09 -7.51696e-10 -5.87507e-11)
(-1.8522e-09 -8.94805e-10 -8.15494e-11)
(-2.00126e-09 -1.04946e-09 -1.13567e-10)
(-2.10425e-09 -1.21498e-09 -1.59038e-10)
(-2.14058e-09 -1.38782e-09 -2.24148e-10)
(-2.0789e-09 -1.55982e-09 -3.17782e-10)
(-1.87593e-09 -1.71618e-09 -4.52083e-10)
(-1.48172e-09 -1.83433e-09 -6.41419e-10)
(-8.65351e-10 -1.88748e-09 -8.94533e-10)
(-8.09361e-11 -1.85266e-09 -1.17939e-09)
(2.13905e-09 -1.9108e-09 -2.46841e-09)
(0 0 0)
(-4.63758e-10 -1.66395e-10 -7.89501e-12)
(-8.89717e-10 -3.24587e-10 -1.60097e-11)
(-1.27166e-09 -4.76945e-10 -2.50637e-11)
(-1.61702e-09 -6.30085e-10 -3.60709e-11)
(-1.93089e-09 -7.89431e-10 -5.02203e-11)
(-2.21582e-09 -9.59481e-10 -6.90349e-11)
(-2.47127e-09 -1.14383e-09 -9.45725e-11)
(-2.69274e-09 -1.34508e-09 -1.29693e-10)
(-2.87033e-09 -1.56449e-09 -1.78418e-10)
(-2.98667e-09 -1.80128e-09 -2.46405e-10)
(-3.01432e-09 -2.0515e-09 -3.41467e-10)
(-2.91351e-09 -2.3061e-09 -4.73847e-10)
(-2.63393e-09 -2.54853e-09 -6.55045e-10)
(-2.13359e-09 -2.75183e-09 -8.90602e-10)
(-1.43515e-09 -2.8627e-09 -1.14866e-09)
(6.83985e-10 -3.44366e-09 -2.34994e-09)
(0 0 0)
(-5.70339e-10 -1.96046e-10 -8.79646e-12)
(-1.09459e-09 -3.8243e-10 -1.77673e-11)
(-1.56562e-09 -5.61981e-10 -2.76338e-11)
(-1.99331e-09 -7.42533e-10 -3.94117e-11)
(-2.38507e-09 -9.30601e-10 -5.42422e-11)
(-2.74587e-09 -1.13173e-09 -7.35193e-11)
(-3.0781e-09 -1.35069e-09 -9.90296e-11)
(-3.38117e-09 -1.5916e-09 -1.33115e-10)
(-3.65077e-09 -1.85796e-09 -1.78852e-10)
(-3.87785e-09 -2.1525e-09 -2.40224e-10)
(-4.04698e-09 -2.47674e-09 -3.22182e-10)
(-4.13424e-09 -2.82957e-09 -4.3029e-10)
(-4.10535e-09 -3.20289e-09 -5.69097e-10)
(-3.92001e-09 -3.5693e-09 -7.36328e-10)
(-3.55157e-09 -3.83747e-09 -9.02085e-10)
(-2.18007e-09 -4.89104e-09 -1.67727e-09)
(0 0 0)
(-6.70295e-10 -2.18414e-10 -9.19003e-12)
(-1.28685e-09 -4.26068e-10 -1.8475e-11)
(-1.84181e-09 -6.26131e-10 -2.85106e-11)
(-2.34754e-09 -8.27334e-10 -4.02235e-11)
(-2.81386e-09 -1.037e-09 -5.45966e-11)
(-3.24846e-09 -1.26143e-09 -7.27487e-11)
(-3.65715e-09 -1.50625e-09 -9.59981e-11)
(-4.04407e-09 -1.77669e-09 -1.25899e-10)
(-4.41195e-09 -2.07789e-09 -1.64221e-10)
(-4.76238e-09 -2.41533e-09 -2.12795e-10)
(-5.09615e-09 -2.79509e-09 -2.73088e-10)
(-5.4131e-09 -3.2234e-09 -3.45204e-10)
(-5.70957e-09 -3.70238e-09 -4.25766e-10)
(-5.96817e-09 -4.21166e-09 -5.037e-10)
(-6.11936e-09 -4.63497e-09 -5.51629e-10)
(-6.03358e-09 -6.07766e-09 -7.70948e-10)
(0 0 0)
(-7.62105e-10 -2.32667e-10 -9.12649e-12)
(-1.46351e-09 -4.53887e-10 -1.82479e-11)
(-2.0957e-09 -6.67026e-10 -2.79065e-11)
(-2.67334e-09 -8.81353e-10 -3.88787e-11)
(-3.2085e-09 -1.10462e-09 -5.19252e-11)
(-3.71139e-09 -1.34348e-09 -6.78233e-11)
(-4.19098e-09 -1.60389e-09 -8.73608e-11)
(-4.65572e-09 -1.89138e-09 -1.11269e-10)
(-5.11455e-09 -2.21151e-09 -1.4005e-10)
(-5.5783e-09 -2.57038e-09 -1.7361e-10)
(-6.06176e-09 -2.97537e-09 -2.10565e-10)
(-6.58613e-09 -3.43559e-09 -2.46987e-10)
(-7.17983e-09 -3.96047e-09 -2.7444e-10)
(-7.86757e-09 -4.54744e-09 -2.7777e-10)
(-8.59586e-09 -5.1056e-09 -2.35563e-10)
(-1.02096e-08 -7.26352e-09 -1.04755e-11)
(0 0 0)
(-8.44252e-10 -2.38277e-10 -8.69209e-12)
(-1.62158e-09 -4.64874e-10 -1.72734e-11)
(-2.32281e-09 -6.83209e-10 -2.61471e-11)
(-2.96447e-09 -9.02707e-10 -3.59097e-11)
(-3.56047e-09 -1.13115e-09 -4.70831e-11)
(-4.12295e-09 -1.37511e-09 -6.01087e-11)
(-4.66317e-09 -1.64028e-09 -7.52953e-11)
(-5.19244e-09 -1.93163e-09 -9.26943e-11)
(-5.7234e-09 -2.25363e-09 -1.11863e-10)
(-6.2717e-09 -2.61051e-09 -1.3145e-10)
(-6.8582e-09 -3.0062e-09 -1.48513e-10)
(-7.51129e-09 -3.44368e-09 -1.57501e-10)
(-8.26723e-09 -3.92153e-09 -1.49002e-10)
(-9.16001e-09 -4.41993e-09 -1.09111e-10)
(-1.01772e-08 -4.83819e-09 -1.99136e-11)
(-1.52731e-08 -8.26836e-09 1.97426e-10)
(0 0 0)
(0 0 0)
(0 0 0)
(0 0 0)
(0 0 0)
(0 0 0)
(0 0 0)
(0 0 0)
(0 0 0)
(0 0 0)
(0 0 0)
(0 0 0)
(0 0 0)
(0 0 0)
(0 0 0)
(0 0 0)
(0 0 0)
(0 0 0)
(-1.21145e-10 -4.78373e-11 -2.36947e-12)
(-2.32259e-10 -9.33848e-11 -4.8401e-12)
(-3.31482e-10 -1.37358e-10 -7.66949e-12)
(-4.20411e-10 -1.81656e-10 -1.12237e-11)
(-4.99808e-10 -2.27802e-10 -1.59613e-11)
(-5.6936e-10 -2.76936e-10 -2.25123e-11)
(-6.27285e-10 -3.29689e-10 -3.17885e-11)
(-6.69735e-10 -3.85946e-10 -4.51477e-11)
(-6.89958e-10 -4.44338e-10 -6.46374e-11)
(-6.77308e-10 -5.01368e-10 -9.3341e-11)
(-6.1657e-10 -5.50032e-10 -1.35808e-10)
(-4.88945e-10 -5.77888e-10 -1.98385e-10)
(-2.78048e-10 -5.65366e-10 -2.8865e-10)
(1.17953e-11 -4.8835e-10 -4.11074e-10)
(3.11047e-10 -3.44377e-10 -5.47021e-10)
(6.86916e-10 3.85876e-10 -7.79155e-10)
(0 0 0)
(-2.41e-10 -9.38387e-11 -4.55259e-12)
(-4.62124e-10 -1.83186e-10 -9.28649e-12)
(-6.59817e-10 -2.69463e-10 -1.46815e-11)
(-8.37444e-10 -3.56421e-10 -2.14178e-11)
(-9.96812e-10 -4.47114e-10 -3.03376e-11)
(-1.13778e-09 -5.43889e-10 -4.25843e-11)
(-1.25759e-09 -6.48251e-10 -5.97945e-11)
(-1.34988e-09 -7.60478e-10 -8.43815e-11)
(-1.40314e-09 -8.78847e-10 -1.19953e-10)
(-1.39898e-09 -9.98338e-10 -1.71909e-10)
(-1.31051e-09 -1.10856e-09 -2.48207e-10)
(-1.10334e-09 -1.19114e-09 -3.60029e-10)
(-7.44424e-10 -1.21823e-09 -5.21119e-10)
(-2.32606e-10 -1.15849e-09 -7.40899e-10)
(3.19621e-10 -1.01171e-09 -9.89945e-10)
(1.2277e-09 -3.85936e-10 -1.50719e-09)
(0 0 0)
(-3.58433e-10 -1.36338e-10 -6.39542e-12)
(-6.87494e-10 -2.6615e-10 -1.30155e-11)
(-9.82193e-10 -3.91525e-10 -2.04995e-11)
(-1.24796e-09 -5.17988e-10 -2.97506e-11)
(-1.48813e-09 -6.50094e-10 -4.18651e-11)
(-1.70355e-09 -7.91491e-10 -5.83004e-11)
(-1.89189e-09 -9.44889e-10 -8.11009e-11)
(-2.04647e-09 -1.11168e-09 -1.13223e-10)
(-2.15459e-09 -1.29127e-09 -1.59004e-10)
(-2.19526e-09 -1.4799e-09 -2.24835e-10)
(-2.13695e-09 -1.66871e-09 -3.20029e-10)
(-1.93734e-09 -1.84156e-09 -4.57641e-10)
(-1.55125e-09 -1.97415e-09 -6.53966e-10)
(-9.6424e-10 -2.03999e-09 -9.21069e-10)
(-2.94661e-10 -2.03148e-09 -1.22635e-09)
(9.58693e-10 -1.79227e-09 -1.87319e-09)
(0 0 0)
(-4.72105e-10 -1.73762e-10 -7.78888e-12)
(-9.0584e-10 -3.39206e-10 -1.58017e-11)
(-1.29508e-09 -4.99036e-10 -2.47592e-11)
(-1.64762e-09 -6.60386e-10 -3.56773e-11)
(-1.96884e-09 -8.29198e-10 -4.97527e-11)
(-2.26151e-09 -1.01047e-09 -6.85264e-11)
(-2.52521e-09 -1.20829e-09 -9.40907e-11)
(-2.75551e-09 -1.42576e-09 -1.29372e-10)
(-2.94252e-09 -1.66462e-09 -1.78518e-10)
(-3.06893e-09 -1.9246e-09 -2.47434e-10)
(-3.1077e-09 -2.20225e-09 -3.4444e-10)
(-3.02054e-09 -2.4894e-09 -4.80861e-10)
(-2.76185e-09 -2.77159e-09 -6.70487e-10)
(-2.30448e-09 -3.02805e-09 -9.23001e-10)
(-1.73219e-09 -3.22565e-09 -1.20818e-09)
(-5.26337e-10 -3.454e-09 -1.80804e-09)
(0 0 0)
(-5.80547e-10 -2.04724e-10 -8.67998e-12)
(-1.11432e-09 -3.9965e-10 -1.75404e-11)
(-1.59434e-09 -5.88006e-10 -2.73053e-11)
(-2.03096e-09 -7.78267e-10 -3.89943e-11)
(-2.43201e-09 -9.77574e-10 -5.37596e-11)
(-2.80285e-09 -1.19211e-09 -7.30181e-11)
(-3.14621e-09 -1.42731e-09 -9.85993e-11)
(-3.46189e-09 -1.68807e-09 -1.32924e-10)
(-3.74612e-09 -1.97882e-09 -1.79214e-10)
(-3.99065e-09 -2.30362e-09 -2.41733e-10)
(-4.1815e-09 -2.66599e-09 -3.25997e-10)
(-4.29736e-09 -3.06816e-09 -4.38762e-10)
(-4.30879e-09 -3.50814e-09 -5.87089e-10)
(-4.18581e-09 -3.96942e-09 -7.73489e-10)
(-3.94116e-09 -4.38123e-09 -9.73478e-10)
(-3.18848e-09 -4.97707e-09 -1.35131e-09)
(0 0 0)
(-6.82197e-10 -2.28075e-10 -9.07134e-12)
(-1.30988e-09 -4.45239e-10 -1.82458e-11)
(-1.87537e-09 -6.55116e-10 -2.81838e-11)
(-2.39164e-09 -8.67173e-10 -3.98187e-11)
(-2.86906e-09 -1.08944e-09 -5.41481e-11)
(-3.31587e-09 -1.32895e-09 -7.23195e-11)
(-3.73847e-09 -1.59213e-09 -9.57026e-11)
(-4.14173e-09 -1.88517e-09 -1.25942e-10)
(-4.52944e-09 -2.21456e-09 -1.6497e-10)
(-4.90485e-09 -2.58774e-09 -2.14922e-10)
(-5.27144e-09 -3.01402e-09 -2.77868e-10)
(-5.63335e-09 -3.50532e-09 -3.5515e-10)
(-5.99305e-09 -4.07392e-09 -4.45989e-10)
(-6.33938e-09 -4.71588e-09 -5.44455e-10)
(-6.60542e-09 -5.33395e-09 -6.32651e-10)
(-6.65732e-09 -6.13716e-09 -7.11976e-10)
(0 0 0)
(-7.75493e-10 -2.4295e-10 -9.01313e-12)
(-1.48942e-09 -4.74294e-10 -1.80315e-11)
(-2.1335e-09 -6.97892e-10 -2.76047e-11)
(-2.72307e-09 -9.23804e-10 -3.85187e-11)
(-3.27089e-09 -1.16054e-09 -5.15534e-11)
(-3.78785e-09 -1.41553e-09 -6.75205e-11)
(-4.28368e-09 -1.69558e-09 -8.72668e-11)
(-4.76783e-09 -2.00729e-09 -1.11624e-10)
(-5.25068e-09 -2.3577e-09 -1.4127e-10)
(-5.74529e-09 -2.75514e-09 -1.76429e-10)
(-6.27005e-09 -3.21076e-09 -2.16322e-10)
(-6.85196e-09 -3.74053e-09 -2.58243e-10)
(-7.52811e-09 -4.36721e-09 -2.96296e-10)
(-8.33221e-09 -5.1134e-09 -3.20679e-10)
(-9.18747e-09 -5.91836e-09 -3.229e-10)
(-1.03608e-08 -7.21038e-09 -1.65427e-10)
(0 0 0)
(-8.58885e-10 -2.48799e-10 -8.59019e-12)
(-1.6499e-09 -4.85759e-10 -1.70819e-11)
(-2.36412e-09 -7.14812e-10 -2.58883e-11)
(-3.01884e-09 -9.4618e-10 -3.5619e-11)
(-3.62872e-09 -1.18842e-09 -4.68187e-11)
(-4.20664e-09 -1.44888e-09 -5.99682e-11)
(-4.76474e-09 -1.73408e-09 -7.5441e-11)
(-5.31541e-09 -2.05e-09 -9.33952e-11)
(-5.87284e-09 -2.40251e-09 -1.13567e-10)
(-6.45497e-09 -2.79779e-09 -1.34914e-10)
(-7.08619e-09 -3.24296e-09 -1.55051e-10)
(-7.80035e-09 -3.74636e-09 -1.69459e-10)
(-8.64179e-09 -4.31618e-09 -1.70682e-10)
(-9.65364e-09 -4.94884e-09 -1.48468e-10)
(-1.08138e-08 -5.55943e-09 -9.26471e-11)
(-1.51157e-08 -8.1836e-09 1.06491e-11)
(0 0 0)
(0 0 0)
(0 0 0)
(0 0 0)
(0 0 0)
(0 0 0)
(0 0 0)
(0 0 0)
(0 0 0)
(0 0 0)
(0 0 0)
(0 0 0)
(0 0 0)
(0 0 0)
(0 0 0)
(0 0 0)
(0 0 0)
(0 0 0)
(-1.23112e-10 -4.97056e-11 -2.24209e-12)
(-2.36066e-10 -9.7087e-11 -4.58052e-12)
(-3.37018e-10 -1.42933e-10 -7.25963e-12)
(-4.27634e-10 -1.89261e-10 -1.06255e-11)
(-5.08726e-10 -2.37687e-10 -1.51095e-11)
(-5.8001e-10 -2.89418e-10 -2.12992e-11)
(-6.3972e-10 -3.45122e-10 -3.00349e-11)
(-6.84025e-10 -4.04633e-10 -4.2547e-11)
(-7.06256e-10 -4.66414e-10 -6.06462e-11)
(-6.96092e-10 -5.26591e-10 -8.69611e-11)
(-6.39284e-10 -5.77457e-10 -1.25144e-10)
(-5.1947e-10 -6.05503e-10 -1.79735e-10)
(-3.2555e-10 -5.90005e-10 -2.5472e-10)
(-7.05187e-11 -5.07035e-10 -3.48321e-10)
(1.7402e-10 -3.5858e-10 -4.39032e-10)
(4.62969e-10 2.63789e-10 -5.66974e-10)
(0 0 0)
(-2.44909e-10 -9.7503e-11 -4.30817e-12)
(-4.69696e-10 -1.90448e-10 -8.78924e-12)
(-6.70838e-10 -2.80403e-10 -1.38985e-11)
(-8.51845e-10 -3.71352e-10 -2.02793e-11)
(-1.01464e-09 -4.66535e-10 -2.87245e-11)
(-1.15915e-09 -5.68459e-10 -4.03007e-11)
(-1.28268e-09 -6.78712e-10 -5.65173e-11)
(-1.37893e-09 -7.97531e-10 -7.95606e-11)
(-1.4366e-09 -9.22964e-10 -1.12619e-10)
(-1.43792e-09 -1.04941e-09 -1.60284e-10)
(-1.35779e-09 -1.16536e-09 -2.2891e-10)
(-1.16618e-09 -1.25071e-09 -3.26394e-10)
(-8.39537e-10 -1.2754e-09 -4.59764e-10)
(-3.9246e-10 -1.20692e-09 -6.26182e-10)
(5.76759e-11 -1.04921e-09 -7.8862e-10)
(7.74033e-10 -5.01101e-10 -1.01491e-09)
(0 0 0)
(-3.64234e-10 -1.41658e-10 -6.05286e-12)
(-6.98737e-10 -2.76694e-10 -1.23205e-11)
(-9.98576e-10 -4.0742e-10 -1.94099e-11)
(-1.26941e-09 -5.39697e-10 -2.81763e-11)
(-1.51478e-09 -6.78367e-10 -3.96527e-11)
(-1.73567e-09 -8.27345e-10 -5.52004e-11)
(-1.92988e-09 -9.89505e-10 -7.67062e-11)
(-2.09093e-09 -1.16629e-09 -1.06849e-10)
(-2.20646e-09 -1.35696e-09 -1.4946e-10)
(-2.25641e-09 -1.55721e-09 -2.09956e-10)
(-2.21157e-09 -1.75705e-09 -2.95718e-10)
(-2.03508e-09 -1.93829e-09 -4.15815e-10)
(-1.6934e-09 -2.07329e-09 -5.78248e-10)
(-1.19142e-09 -2.13089e-09 -7.79558e-10)
(-6.5428e-10 -2.10211e-09 -9.76261e-10)
(3.20159e-10 -1.87108e-09 -1.25e-09)
(0 0 0)
(-4.7971e-10 -1.80536e-10 -7.37314e-12)
(-9.20587e-10 -3.52635e-10 -1.49613e-11)
(-1.3166e-09 -5.19291e-10 -2.34499e-11)
(-1.67587e-09 -6.88068e-10 -3.38024e-11)
(-2.00407e-09 -8.65314e-10 -4.71482e-11)
(-2.3042e-09 -1.05638e-09 -6.49298e-11)
(-2.57612e-09 -1.26565e-09 -8.90821e-11)
(-2.81573e-09 -1.49642e-09 -1.22261e-10)
(-3.01369e-09 -1.75046e-09 -1.68129e-10)
(-3.15389e-09 -2.02722e-09 -2.31676e-10)
(-3.21186e-09 -2.32237e-09 -3.19434e-10)
(-3.15484e-09 -2.62562e-09 -4.3908e-10)
(-2.94838e-09 -2.91772e-09 -5.96835e-10)
(-2.58314e-09 -3.1678e-09 -7.88176e-10)
(-2.14864e-09 -3.33282e-09 -9.72665e-10)
(-1.27207e-09 -3.48518e-09 -1.23803e-09)
(0 0 0)
(-5.89834e-10 -2.12698e-10 -8.21908e-12)
(-1.13234e-09 -4.15461e-10 -1.66132e-11)
(-1.62066e-09 -6.11863e-10 -2.58724e-11)
(-2.06559e-09 -8.10904e-10 -3.69657e-11)
(-2.47533e-09 -1.02022e-09 -5.09839e-11)
(-2.85561e-09 -1.24644e-09 -6.92586e-11)
(-3.20956e-09 -1.49543e-09 -9.34888e-11)
(-3.5375e-09 -1.77241e-09 -1.25879e-10)
(-3.83643e-09 -2.0821e-09 -1.69281e-10)
(-4.09949e-09 -2.4286e-09 -2.27289e-10)
(-4.31524e-09 -2.81495e-09 -3.04165e-10)
(-4.46703e-09 -3.24135e-09 -4.04217e-10)
(-4.53346e-09 -3.69948e-09 -5.29603e-10)
(-4.4952e-09 -4.15662e-09 -6.73838e-10)
(-4.36546e-09 -4.52204e-09 -8.06257e-10)
(-3.9455e-09 -4.96775e-09 -9.94198e-10)
(0 0 0)
(-6.93007e-10 -2.3695e-10 -8.59331e-12)
(-1.33086e-09 -4.62842e-10 -1.72896e-11)
(-1.90605e-09 -6.81686e-10 -2.67208e-11)
(-2.43205e-09 -9.03555e-10 -3.77767e-11)
(-2.91973e-09 -1.13704e-09 -5.14067e-11)
(-3.3778e-09 -1.38969e-09 -6.86969e-11)
(-3.81318e-09 -1.66844e-09 -9.09303e-11)
(-4.23141e-09 -1.97996e-09 -1.1962e-10)
(-4.63723e-09 -2.3312e-09 -1.5649e-10)
(-5.03533e-09 -2.72994e-09 -2.03338e-10)
(-5.43148e-09 -3.18543e-09 -2.61683e-10)
(-5.833e-09 -3.70783e-09 -3.31948e-10)
(-6.24561e-09 -4.30228e-09 -4.11792e-10)
(-6.65719e-09 -4.94384e-09 -4.92828e-10)
(-6.98999e-09 -5.50477e-09 -5.56235e-10)
(-7.31223e-09 -6.11316e-09 -6.27081e-10)
(0 0 0)
(-7.87633e-10 -2.52397e-10 -8.54321e-12)
(-1.51298e-09 -4.93036e-10 -1.7098e-11)
(-2.16796e-09 -7.2619e-10 -2.61931e-11)
(-2.7685e-09 -9.62573e-10 -3.65821e-11)
(-3.32791e-09 -1.2113e-09 -4.90135e-11)
(-3.85764e-09 -1.48036e-09 -6.42661e-11)
(-4.36803e-09 -1.77709e-09 -8.31492e-11)
(-4.86928e-09 -2.10865e-09 -1.06451e-10)
(-5.37275e-09 -2.4826e-09 -1.34801e-10)
(-5.89288e-09 -2.9078e-09 -1.68397e-10)
(-6.44984e-09 -3.39552e-09 -2.06516e-10)
(-7.07222e-09 -3.96038e-09 -2.46779e-10)
(-7.79589e-09 -4.6185e-09 -2.84289e-10)
(-8.64238e-09 -5.37086e-09 -3.11534e-10)
(-9.50789e-09 -6.11879e-09 -3.22417e-10)
(-1.07747e-08 -7.22232e-09 -2.88935e-10)
(0 0 0)
(-8.72138e-10 -2.58471e-10 -8.14866e-12)
(-1.67562e-09 -5.04948e-10 -1.62119e-11)
(-2.40173e-09 -7.43793e-10 -2.4591e-11)
(-3.0684e-09 -9.85897e-10 -3.38755e-11)
(-3.69089e-09 -1.24044e-09 -4.45963e-11)
(-4.28269e-09 -1.51532e-09 -5.72283e-11)
(-4.85656e-09 -1.81758e-09 -7.21511e-11)
(-5.42565e-09 -2.15373e-09 -8.95508e-11)
(-6.00503e-09 -2.53016e-09 -1.09239e-10)
(-6.61374e-09 -2.95347e-09 -1.30351e-10)
(-7.2773e-09 -3.43082e-09 -1.50916e-10)
(-8.02984e-09 -3.96922e-09 -1.67346e-10)
(-8.91205e-09 -4.57123e-09 -1.74159e-10)
(-9.95163e-09 -5.21615e-09 -1.64756e-10)
(-1.10938e-08 -5.78699e-09 -1.3325e-10)
(-1.52441e-08 -8.29125e-09 -1.53011e-10)
(0 0 0)
(0 0 0)
(0 0 0)
(0 0 0)
(0 0 0)
(0 0 0)
(0 0 0)
(0 0 0)
(0 0 0)
(0 0 0)
(0 0 0)
(0 0 0)
(0 0 0)
(0 0 0)
(0 0 0)
(0 0 0)
(0 0 0)
(0 0 0)
(-1.24857e-10 -5.13666e-11 -2.02414e-12)
(-2.39455e-10 -1.00371e-10 -4.1346e-12)
(-3.41965e-10 -1.47865e-10 -6.55044e-12)
(-4.34121e-10 -1.95955e-10 -9.57999e-12)
(-5.16792e-10 -2.4633e-10 -1.36026e-11)
(-5.89745e-10 -3.00235e-10 -1.91251e-11)
(-6.51271e-10 -3.58332e-10 -2.68539e-11)
(-6.97643e-10 -4.20385e-10 -3.77871e-11)
(-7.22414e-10 -4.84685e-10 -5.33219e-11)
(-7.15766e-10 -5.4706e-10 -7.5342e-11)
(-6.64508e-10 -5.99403e-10 -1.06174e-10)
(-5.54255e-10 -6.2788e-10 -1.48115e-10)
(-3.7675e-10 -6.1214e-10 -2.01889e-10)
(-1.46599e-10 -5.30569e-10 -2.63077e-10)
(7.14697e-11 -3.89291e-10 -3.16131e-10)
(3.40881e-10 1.74892e-10 -3.96672e-10)
(0 0 0)
(-2.48377e-10 -1.0076e-10 -3.8898e-12)
(-4.76429e-10 -1.96889e-10 -7.9346e-12)
(-6.80672e-10 -2.90077e-10 -1.25428e-11)
(-8.64754e-10 -3.84492e-10 -1.82881e-11)
(-1.03071e-09 -4.83517e-10 -2.58676e-11)
(-1.17859e-09 -5.8974e-10 -3.62023e-11)
(-1.30581e-09 -7.0476e-10 -5.05603e-11)
(-1.40628e-09 -8.28697e-10 -7.0713e-11)
(-1.46912e-09 -9.59302e-10 -9.91104e-11)
(-1.47747e-09 -1.09043e-09 -1.39016e-10)
(-1.40819e-09 -1.20981e-09 -1.94405e-10)
(-1.23484e-09 -1.29648e-09 -2.69094e-10)
(-9.39133e-10 -1.32039e-09 -3.63983e-10)
(-5.38972e-10 -1.25157e-09 -4.70657e-10)
(-1.39785e-10 -1.09975e-09 -5.6137e-10)
(5.41705e-10 -6.10567e-10 -6.61236e-10)
(0 0 0)
(-3.69373e-10 -1.46386e-10 -5.46603e-12)
(-7.08718e-10 -2.86047e-10 -1.11248e-11)
(-1.01317e-09 -4.21473e-10 -1.75214e-11)
(-1.28859e-09 -5.58801e-10 -2.5419e-11)
(-1.5387e-09 -7.03085e-10 -3.57273e-11)
(-1.76468e-09 -8.58384e-10 -4.96221e-11)
(-1.96452e-09 -1.02761e-09 -6.86886e-11)
(-2.13203e-09 -1.21209e-09 -9.5092e-11)
(-2.25544e-09 -1.41073e-09 -1.31757e-10)
(-2.31587e-09 -1.6185e-09 -1.82478e-10)
(-2.28658e-09 -1.82428e-09 -2.51732e-10)
(-2.13522e-09 -2.00828e-09 -3.43572e-10)
(-1.83504e-09 -2.14142e-09 -4.58325e-10)
(-1.3957e-09 -2.19298e-09 -5.85116e-10)
(-9.28345e-10 -2.15953e-09 -6.90856e-10)
(-2.53571e-11 -1.95483e-09 -7.91544e-10)
(0 0 0)
(-4.86438e-10 -1.86555e-10 -6.66003e-12)
(-9.33658e-10 -3.64544e-10 -1.35135e-11)
(-1.33572e-09 -5.37194e-10 -2.11767e-11)
(-1.70103e-09 -7.12428e-10 -3.05109e-11)
(-2.03553e-09 -8.96874e-10 -4.25123e-11)
(-2.34246e-09 -1.09609e-09 -5.84289e-11)
(-2.62196e-09 -1.31456e-09 -7.98864e-11)
(-2.87029e-09 -1.55549e-09 -1.09024e-10)
(-3.0788e-09 -1.82027e-09 -1.48611e-10)
(-3.23263e-09 -2.10756e-09 -2.02061e-10)
(-3.30979e-09 -2.41149e-09 -2.73122e-10)
(-3.28201e-09 -2.71922e-09 -3.64709e-10)
(-3.12162e-09 -3.00779e-09 -4.7581e-10)
(-2.82465e-09 -3.24321e-09 -5.94999e-10)
(-2.4681e-09 -3.3873e-09 -6.91881e-10)
(-1.70079e-09 -3.51863e-09 -7.84617e-10)
(0 0 0)
(-5.98036e-10 -2.1978e-10 -7.42684e-12)
(-1.14828e-09 -4.29478e-10 -1.50119e-11)
(-1.64399e-09 -6.32948e-10 -2.3377e-11)
(-2.09633e-09 -8.39616e-10 -3.33904e-11)
(-2.51383e-09 -1.05747e-09 -4.60175e-11)
(-2.90253e-09 -1.2934e-09 -6.24128e-11)
(-3.26591e-09 -1.55341e-09 -8.40055e-11)
(-3.6047e-09 -1.84271e-09 -1.12564e-10)
(-3.91658e-09 -2.16566e-09 -1.5021e-10)
(-4.1958e-09 -2.5255e-09 -1.99292e-10)
(-4.43289e-09 -2.92341e-09 -2.61946e-10)
(-4.61457e-09 -3.35602e-09 -3.38982e-10)
(-4.7243e-09 -3.8088e-09 -4.27495e-10)
(-4.74675e-09 -4.24184e-09 -5.1672e-10)
(-4.68702e-09 -4.56872e-09 -5.84508e-10)
(-4.39948e-09 -4.94838e-09 -6.43928e-10)
(0 0 0)
(-7.02538e-10 -2.44832e-10 -7.76876e-12)
(-1.34938e-09 -4.78448e-10 -1.5632e-11)
(-1.93317e-09 -7.05172e-10 -2.41609e-11)
(-2.46781e-09 -9.35555e-10 -3.41557e-11)
(-2.96455e-09 -1.17859e-09 -4.64604e-11)
(-3.43248e-09 -1.44214e-09 -6.20216e-11)
(-3.8789e-09 -1.73334e-09 -8.19214e-11)
(-4.30979e-09 -2.05886e-09 -1.07367e-10)
(-4.73044e-09 -2.42534e-09 -1.39597e-10)
(-5.14634e-09 -2.83969e-09 -1.7964e-10)
(-5.5643e-09 -3.30907e-09 -2.27794e-10)
(-5.99297e-09 -3.83932e-09 -2.8268e-10)
(-6.43916e-09 -4.42747e-09 -3.39743e-10)
(-6.89041e-09 -5.03784e-09 -3.89665e-10)
(-7.26521e-09 -5.54604e-09 -4.19897e-10)
(-7.70286e-09 -6.05624e-09 -4.24137e-10)
(0 0 0)
(-7.98324e-10 -2.6079e-10 -7.72837e-12)
(-1.53376e-09 -5.09655e-10 -1.54701e-11)
(-2.19838e-09 -7.51206e-10 -2.37056e-11)
(-2.8086e-09 -9.96675e-10 -3.3116e-11)
(-3.37816e-09 -1.25561e-09 -4.43718e-11)
(-3.91892e-09 -1.53634e-09 -5.81583e-11)
(-4.44161e-09 -1.84642e-09 -7.5163e-11)
(-4.95684e-09 -2.19304e-09 -9.60072e-11)
(-5.47634e-09 -2.5835e-09 -1.21089e-10)
(-6.0149e-09 -3.02575e-09 -1.50291e-10)
(-6.5927e-09 -3.52898e-09 -1.82508e-10)
(-7.23742e-09 -4.10326e-09 -2.15017e-10)
(-7.98162e-09 -4.75605e-09 -2.43016e-10)
(-8.84004e-09 -5.47594e-09 -2.60432e-10)
(-9.70491e-09 -6.16541e-09 -2.647e-10)
(-1.09898e-08 -7.15765e-09 -2.14162e-10)
(0 0 0)
(-8.83797e-10 -2.67064e-10 -7.37742e-12)
(-1.69827e-09 -5.21967e-10 -1.4682e-11)
(-2.43487e-09 -7.69416e-10 -2.22814e-11)
(-3.11206e-09 -1.02084e-09 -3.07126e-11)
(-3.74553e-09 -1.28586e-09 -4.04574e-11)
(-4.34922e-09 -1.57271e-09 -5.19417e-11)
(-4.93624e-09 -1.88868e-09 -6.5495e-11)
(-5.52006e-09 -2.24031e-09 -8.12557e-11)
(-6.11596e-09 -2.6337e-09 -9.90016e-11)
(-6.74288e-09 -3.07462e-09 -1.1789e-10)
(-7.42556e-09 -3.56823e-09 -1.36118e-10)
(-8.19569e-09 -4.11748e-09 -1.5064e-10)
(-9.08816e-09 -4.71743e-09 -1.57313e-10)
(-1.01204e-08 -5.33733e-09 -1.52248e-10)
(-1.12294e-08 -5.8601e-09 -1.33748e-10)
(-1.5215e-08 -8.2566e-09 -1.80116e-10)
(0 0 0)
(0 0 0)
(0 0 0)
(0 0 0)
(0 0 0)
(0 0 0)
(0 0 0)
(0 0 0)
(0 0 0)
(0 0 0)
(0 0 0)
(0 0 0)
(0 0 0)
(0 0 0)
(0 0 0)
(0 0 0)
(0 0 0)
(0 0 0)
(-1.26344e-10 -5.27766e-11 -1.72452e-12)
(-2.42346e-10 -1.03154e-10 -3.5212e-12)
(-3.46195e-10 -1.52029e-10 -5.5742e-12)
(-4.39684e-10 -2.0158e-10 -8.14048e-12)
(-5.23735e-10 -2.5354e-10 -1.15302e-11)
(-5.98166e-10 -3.09166e-10 -1.6147e-11)
(-6.61332e-10 -3.69092e-10 -2.25326e-11)
(-7.09605e-10 -4.32992e-10 -3.14144e-11)
(-7.36727e-10 -4.98997e-10 -4.3737e-11)
(-7.33224e-10 -5.62716e-10 -6.06371e-11)
(-6.86491e-10 -6.15832e-10 -8.32628e-11)
(-5.82893e-10 -6.44538e-10 -1.12256e-10)
(-4.14518e-10 -6.29158e-10 -1.46669e-10)
(-1.94335e-10 -5.4975e-10 -1.82332e-10)
(1.79316e-11 -4.13666e-10 -2.10449e-10)
(3.02288e-10 1.35039e-10 -2.57436e-10)
(0 0 0)
(-2.51327e-10 -1.03525e-10 -3.31439e-12)
(-4.82165e-10 -2.02346e-10 -6.75839e-12)
(-6.89067e-10 -2.98244e-10 -1.06755e-11)
(-8.758e-10 -3.9553e-10 -1.5544e-11)
(-1.04451e-09 -4.97675e-10 -2.19345e-11)
(-1.19533e-09 -6.07299e-10 -3.058e-11)
(-1.32583e-09 -7.25946e-10 -4.24525e-11)
(-1.43007e-09 -8.5357e-10 -5.88377e-11)
(-1.49754e-09 -9.87614e-10 -8.13784e-11)
(-1.51198e-09 -1.12147e-09 -1.12006e-10)
(-1.45129e-09 -1.24237e-09 -1.52584e-10)
(-1.29041e-09 -1.32915e-09 -2.03939e-10)
(-1.01183e-09 -1.35256e-09 -2.63844e-10)
(-6.30735e-10 -1.2852e-09 -3.24022e-10)
(-2.43644e-10 -1.13942e-09 -3.68488e-10)
(4.63477e-10 -6.77382e-10 -4.04735e-10)
(0 0 0)
(-3.73739e-10 -1.50399e-10 -4.65835e-12)
(-7.17208e-10 -2.93967e-10 -9.47796e-12)
(-1.0256e-09 -4.33335e-10 -1.49175e-11)
(-1.30495e-09 -5.74844e-10 -2.16143e-11)
(-1.55916e-09 -7.23685e-10 -3.03132e-11)
(-1.78953e-09 -8.83971e-10 -4.19505e-11)
(-1.99424e-09 -1.05855e-09 -5.7739e-11)
(-2.16734e-09 -1.24851e-09 -7.92406e-11)
(-2.29746e-09 -1.45231e-09 -1.08386e-10)
(-2.36647e-09 -1.66422e-09 -1.4734e-10)
(-2.34887e-09 -1.87215e-09 -1.97998e-10)
(-2.21404e-09 -2.05552e-09 -2.60731e-10)
(-1.93633e-09 -2.18533e-09 -3.31932e-10)
(-1.52259e-09 -2.23325e-09 -4.00604e-10)
(-1.0732e-09 -2.20028e-09 -4.47749e-10)
(-1.45852e-10 -2.01818e-09 -4.64614e-10)
(0 0 0)
(-4.92146e-10 -1.91661e-10 -5.67754e-12)
(-9.44758e-10 -3.74629e-10 -1.1517e-11)
(-1.35197e-09 -5.52306e-10 -1.80377e-11)
(-1.72244e-09 -7.32879e-10 -2.59598e-11)
(-2.06231e-09 -9.23166e-10 -3.61008e-11)
(-2.37502e-09 -1.1288e-09 -4.94546e-11)
(-2.6609e-09 -1.35419e-09 -6.72622e-11)
(-2.91647e-09 -1.60228e-09 -9.10522e-11)
(-3.13345e-09 -1.87387e-09 -1.22606e-10)
(-3.29766e-09 -2.16661e-09 -1.63739e-10)
(-3.38818e-09 -2.47316e-09 -2.15701e-10)
(-3.37825e-09 -2.7788e-09 -2.77863e-10)
(-3.24136e-09 -3.05925e-09 -3.45435e-10)
(-2.97146e-09 -3.28183e-09 -4.06834e-10)
(-2.63607e-09 -3.41513e-09 -4.45162e-10)
(-1.85734e-09 -3.55211e-09 -4.48373e-10)
(0 0 0)
(-6.04985e-10 -2.25789e-10 -6.33366e-12)
(-1.1618e-09 -4.41349e-10 -1.27998e-11)
(-1.66378e-09 -6.50744e-10 -1.99236e-11)
(-2.12241e-09 -8.63716e-10 -2.84328e-11)
(-2.54645e-09 -1.08848e-09 -3.91213e-11)
(-2.94219e-09 -1.33203e-09 -5.29103e-11)
(-3.3133e-09 -1.60032e-09 -7.08871e-11)
(-3.66073e-09 -1.89823e-09 -9.42966e-11)
(-3.98241e-09 -2.22945e-09 -1.24438e-10)
(-4.27292e-09 -2.59591e-09 -1.62372e-10)
(-4.52329e-09 -2.9967e-09 -2.08276e-10)
(-4.7208e-09 -3.42538e-09 -2.60262e-10)
(-4.84926e-09 -3.86417e-09 -3.12662e-10)
(-4.89209e-09 -4.27279e-09 -3.5484e-10)
(-4.84949e-09 -4.57411e-09 -3.75191e-10)
(-4.5706e-09 -4.93276e-09 -3.55686e-10)
(0 0 0)
(-7.10604e-10 -2.5152e-10 -6.62855e-12)
(-1.36507e-09 -4.91664e-10 -1.33364e-11)
(-1.95614e-09 -7.24989e-10 -2.06072e-11)
(-2.49806e-09 -9.62411e-10 -2.91142e-11)
(-3.00239e-09 -1.21317e-09 -3.95541e-11)
(-3.47844e-09 -1.48528e-09 -5.26845e-11)
(-3.93371e-09 -1.78579e-09 -6.9325e-11)
(-4.37431e-09 -2.12107e-09 -9.03022e-11)
(-4.80556e-09 -2.49699e-09 -1.16291e-10)
(-5.23279e-09 -2.91892e-09 -1.4748e-10)
(-5.66235e-09 -3.39143e-09 -1.82971e-10)
(-6.10181e-09 -3.91624e-09 -2.19852e-10)
(-6.55614e-09 -4.48518e-09 -2.52185e-10)
(-7.01088e-09 -5.06004e-09 -2.71133e-10)
(-7.38529e-09 -5.52719e-09 -2.70595e-10)
(-7.828e-09 -5.98133e-09 -2.17024e-10)
(0 0 0)
(-8.07361e-10 -2.67911e-10 -6.59826e-12)
(-1.55133e-09 -5.23728e-10 -1.3208e-11)
(-2.22409e-09 -7.72316e-10 -2.02378e-11)
(-2.84245e-09 -1.0253e-09 -2.82635e-11)
(-3.42045e-09 -1.29248e-09 -3.78422e-11)
(-3.97019e-09 -1.58237e-09 -4.95251e-11)
(-4.50257e-09 -1.90246e-09 -6.38297e-11)
(-5.02822e-09 -2.25963e-09 -8.11537e-11)
(-5.55865e-09 -2.66034e-09 -1.01596e-10)
(-6.10796e-09 -3.11095e-09 -1.24645e-10)
(-6.69485e-09 -3.61779e-09 -1.48715e-10)
(-7.34407e-09 -4.1863e-09 -1.70601e-10)
(-8.08341e-09 -4.81761e-09 -1.85273e-10)
(-8.92238e-09 -5.4957e-09 -1.87188e-10)
(-9.75588e-09 -6.13236e-09 -1.76041e-10)
(-1.09807e-08 -7.02244e-09 -8.72093e-11)
(0 0 0)
(-8.93645e-10 -2.74356e-10 -6.30353e-12)
(-1.71741e-09 -5.36379e-10 -1.25465e-11)
(-2.46286e-09 -7.91041e-10 -1.90437e-11)
(-3.14885e-09 -1.05017e-09 -2.62522e-11)
(-3.79142e-09 -1.32367e-09 -3.45766e-11)
(-4.40472e-09 -1.61995e-09 -4.43631e-11)
(-5.00199e-09 -1.94624e-09 -5.58562e-11)
(-5.59661e-09 -2.30879e-09 -6.91054e-11)
(-6.20342e-09 -2.7129e-09 -8.38037e-11)
(-6.84032e-09 -3.16278e-09 -9.90514e-11)
(-7.52985e-09 -3.66088e-09 -1.13079e-10)
(-8.29971e-09 -4.20581e-09 -1.23075e-10)
(-9.17848e-09 -4.78697e-09 -1.25534e-10)
(-1.01766e-08 -5.36972e-09 -1.17807e-10)
(-1.12309e-08 -5.84464e-09 -1.00766e-10)
(-1.49852e-08 -8.09481e-09 -1.24785e-10)
(0 0 0)
(0 0 0)
(0 0 0)
(0 0 0)
(0 0 0)
(0 0 0)
(0 0 0)
(0 0 0)
(0 0 0)
(0 0 0)
(0 0 0)
(0 0 0)
(0 0 0)
(0 0 0)
(0 0 0)
(0 0 0)
(0 0 0)
(0 0 0)
(-1.27538e-10 -5.39038e-11 -1.35597e-12)
(-2.44668e-10 -1.05375e-10 -2.76732e-12)
(-3.49597e-10 -1.55341e-10 -4.37648e-12)
(-4.44162e-10 -2.06031e-10 -6.38031e-12)
(-5.2933e-10 -2.59203e-10 -9.0115e-12)
(-6.04957e-10 -3.1611e-10 -1.25635e-11)
(-6.6944e-10 -3.77341e-10 -1.74137e-11)
(-7.19206e-10 -4.42483e-10 -2.40368e-11)
(-7.48074e-10 -5.0953e-10 -3.29917e-11)
(-7.46671e-10 -5.73928e-10 -4.48436e-11)
(-7.02451e-10 -6.27254e-10 -5.99625e-11)
(-6.01585e-10 -6.55799e-10 -7.81299e-11)
(-4.35232e-10 -6.40348e-10 -9.7973e-11)
(-2.14215e-10 -5.61634e-10 -1.16555e-10)
(3.56356e-12 -4.26833e-10 -1.29755e-10)
(3.19727e-10 1.30197e-10 -1.54183e-10)
(0 0 0)
(-2.53692e-10 -1.05734e-10 -2.60635e-12)
(-4.86768e-10 -2.06698e-10 -5.31217e-12)
(-6.95809e-10 -3.04738e-10 -8.3832e-12)
(-8.84678e-10 -4.04261e-10 -1.21861e-11)
(-1.0556e-09 -5.08791e-10 -1.71491e-11)
(-1.20879e-09 -6.20939e-10 -2.38051e-11)
(-1.34189e-09 -7.42164e-10 -3.28294e-11)
(-1.44905e-09 -8.72245e-10 -4.50567e-11)
(-1.51988e-09 -1.00834e-09 -6.14441e-11)
(-1.53829e-09 -1.14349e-09 -8.2911e-11)
(-1.48223e-09 -1.26461e-09 -1.09946e-10)
(-1.3263e-09 -1.3506e-09 -1.41857e-10)
(-1.05137e-09 -1.37299e-09 -1.75681e-10)
(-6.68975e-10 -1.30593e-09 -2.05419e-10)
(-2.72548e-10 -1.16253e-09 -2.23557e-10)
(4.77278e-10 -7.06868e-10 -2.29859e-10)
(0 0 0)
(-3.77236e-10 -1.53605e-10 -3.66391e-12)
(-7.24012e-10 -3.00285e-10 -7.45151e-12)
(-1.03556e-09 -4.42764e-10 -1.1718e-11)
(-1.31808e-09 -5.87529e-10 -1.69522e-11)
(-1.57555e-09 -7.39849e-10 -2.37138e-11)
(-1.80942e-09 -9.03825e-10 -3.26831e-11)
(-2.01793e-09 -1.08218e-09 -4.46999e-11)
(-2.19524e-09 -1.27575e-09 -6.07676e-11)
(-2.33008e-09 -1.48254e-09 -8.19779e-11)
(-2.40445e-09 -1.69619e-09 -1.0927e-10)
(-2.39279e-09 -1.90401e-09 -1.42887e-10)
(-2.26394e-09 -2.08508e-09 -1.81386e-10)
(-1.99031e-09 -2.21115e-09 -2.20302e-10)
(-1.57439e-09 -2.25625e-09 -2.51466e-10)
(-1.11301e-09 -2.22409e-09 -2.6627e-10)
(-1.21823e-10 -2.05525e-09 -2.48862e-10)
(0 0 0)