/*--------------------------------*- C++ -*----------------------------------*\
| =========                 |                                                 |
| \\      /  F ield         | foam-extend: Open Source CFD                    |
|  \\    /   O peration     | Version:     3.1                                |
|   \\  /    A nd           | Web:         http://www.extend-project.de       |
|    \\/     M anipulation  |                                                 |
\*---------------------------------------------------------------------------*/
FoamFile
{
    version     2.0;
    format      ascii;
    class       surfaceVectorField;
    location    "2.6";
    object      Sf;
}
// * * * * * * * * * * * * * * * * * * * * * * * * * * * * * * * * * * * * * //

dimensions      [0 2 0 0 0 0 0];

internalField   nonuniform List<vector> 
41600
(
(0.000625541 -2.97835e-06 -2.10523e-08)
(-5.40411e-07 0.000706104 -1.35532e-08)
(6.69204e-09 7.52855e-09 0.000704935)
(-6.85236e-09 -7.70891e-09 -0.000704901)
(0.000626058 -5.73809e-06 -4.05766e-08)
(-5.1751e-07 0.000705885 -4.05567e-08)
(6.5801e-09 2.24577e-08 0.000705434)
(-6.73816e-09 -2.29962e-08 -0.000705374)
(0.000626564 -8.25341e-06 -5.85832e-08)
(-5.05449e-07 0.000705641 -6.80967e-08)
(6.85245e-09 3.75605e-08 0.0007059)
(-7.01009e-09 -3.84541e-08 -0.000705814)
(0.000627083 -1.05845e-05 -7.5645e-08)
(-5.18516e-07 0.000705457 -9.80596e-08)
(7.63169e-09 5.38352e-08 0.000706398)
(-7.78732e-09 -5.50813e-08 -0.000706283)
(0.000627637 -1.27799e-05 -9.23541e-08)
(-5.5477e-07 0.000705322 -1.32788e-07)
(8.78869e-09 7.22745e-08 0.000706951)
(-8.93056e-09 -7.38557e-08 -0.000706801)
(0.000628252 -1.48818e-05 -1.09225e-07)
(-6.14064e-07 0.000705229 -1.74875e-07)
(1.0027e-08 9.33991e-08 0.000707582)
(-1.01352e-08 -9.52626e-08 -0.00070739)
(0.000628948 -1.69204e-05 -1.25948e-07)
(-6.96777e-07 0.000705166 -2.27315e-07)
(1.08241e-08 1.16821e-07 0.000708312)
(-1.08774e-08 -1.18868e-07 -0.000708068)
(0.000629753 -1.89074e-05 -1.41615e-07)
(-8.0463e-07 0.000705114 -2.93701e-07)
(1.03415e-08 1.40647e-07 0.000709162)
(-1.0297e-08 -1.42705e-07 -0.000708853)
(0.000630693 -2.08346e-05 -1.54875e-07)
(-9.40492e-07 0.000705054 -3.78856e-07)
(6.90499e-09 1.60215e-07 0.000710153)
(-6.67221e-09 -1.61961e-07 -0.000709761)
(0.0006318 -2.26567e-05 -1.62812e-07)
(-1.10683e-06 0.000704948 -4.89519e-07)
(-2.74847e-09 1.65441e-07 0.000711301)
(3.24813e-09 -1.66354e-07 -0.000710804)
(0.000633107 -2.42871e-05 -1.6169e-07)
(-1.30846e-06 0.000704755 -6.3589e-07)
(-2.47433e-08 1.35954e-07 0.000712628)
(2.54921e-08 -1.35421e-07 -0.000711993)
(0.000634657 -2.55829e-05 -1.48729e-07)
(-1.55048e-06 0.000704418 -8.35388e-07)
(-6.99039e-08 3.28674e-08 0.000714156)
(7.06352e-08 -3.05292e-08 -0.000713334)
(0.000636491 -2.63486e-05 -1.27408e-07)
(-1.83355e-06 0.000703887 -1.12015e-06)
(-1.57253e-07 -2.15204e-07 0.000715923)
(1.57167e-07 2.18653e-07 -0.000714824)
(0.000638619 -2.64144e-05 -1.23499e-07)
(-2.12731e-06 0.000703188 -1.54959e-06)
(-3.09763e-07 -7.25457e-07 0.000718013)
(3.08354e-07 7.28059e-07 -0.000716467)
(0.000640757 -2.58313e-05 -2.33173e-07)
(-2.15653e-06 0.00070252 -2.20316e-06)
(-4.94333e-07 -1.60569e-06 0.000720477)
(5.13179e-07 1.62784e-06 -0.000718165)
(-8.49283e-06 0.000699352 -5.13497e-07)
(-2.13524e-06 -4.4343e-06 0.000725508)
(4.36648e-06 6.85658e-06 -0.000724209)
(0.000625518 -2.93606e-06 -6.2921e-08)
(-1.05823e-06 0.00070904 -2.65609e-08)
(1.96932e-08 7.09622e-09 0.000707901)
(-2.01752e-08 -7.27788e-09 -0.000707825)
(0.000626014 -5.65829e-06 -1.21417e-07)
(-1.01286e-06 0.000708608 -7.94347e-08)
(1.92914e-08 2.10833e-08 0.000708156)
(-1.97749e-08 -2.16349e-08 -0.000708058)
(0.000626497 -8.13961e-06 -1.75594e-07)
(-9.88191e-07 0.000708123 -1.33263e-07)
(2.00376e-08 3.50787e-08 0.000708351)
(-2.0533e-08 -3.60212e-08 -0.000708232)
(0.000626992 -1.0439e-05 -2.27008e-07)
(-1.01234e-06 0.000707758 -1.91687e-07)
(2.23311e-08 5.00995e-08 0.000708637)
(-2.28287e-08 -5.14548e-08 -0.000708492)
(0.000627519 -1.26091e-05 -2.77672e-07)
(-1.08165e-06 0.000707494 -2.59274e-07)
(2.57425e-08 6.715e-08 0.000709026)
(-2.62102e-08 -6.89234e-08 -0.000708848)
(0.0006281 -1.46922e-05 -3.29077e-07)
(-1.19475e-06 0.000707314 -3.41058e-07)
(2.94617e-08 8.68111e-08 0.000709529)
(-2.98663e-08 -8.90062e-08 -0.000709312)
(0.000628756 -1.67172e-05 -3.80227e-07)
(-1.35247e-06 0.000707193 -4.42698e-07)
(3.22995e-08 1.09277e-07 0.000710153)
(-3.25465e-08 -1.11848e-07 -0.000709887)
(0.000629509 -1.87016e-05 -4.28811e-07)
(-1.55775e-06 0.000707101 -5.71159e-07)
(3.21126e-08 1.34101e-07 0.000710899)
(-3.20163e-08 -1.36832e-07 -0.000710573)
(0.000630382 -2.06462e-05 -4.70458e-07)
(-1.81408e-06 0.000707001 -7.35425e-07)
(2.44196e-08 1.59142e-07 0.000711764)
(-2.37344e-08 -1.61634e-07 -0.000711366)
(0.000631399 -2.25286e-05 -4.97149e-07)
(-2.1249e-06 0.000706832 -9.47575e-07)
(9.22692e-10 1.79204e-07 0.000712726)
(5.96213e-10 -1.80877e-07 -0.000712241)
(0.000632581 -2.42858e-05 -4.98232e-07)
(-2.49291e-06 0.000706512 -1.22554e-06)
(-5.32734e-08 1.84517e-07 0.00071375)
(5.56644e-08 -1.84585e-07 -0.000713159)
(0.000633941 -2.58051e-05 -4.63131e-07)
(-2.91392e-06 0.000705935 -1.59802e-06)
(-1.63605e-07 1.58788e-07 0.000714779)
(1.66368e-07 -1.56272e-07 -0.000714051)
(0.000635468 -2.69136e-05 -3.94551e-07)
(-3.36167e-06 0.00070499 -2.1148e-06)
(-3.70528e-07 7.98152e-08 0.000715743)
(3.72059e-07 -7.35627e-08 -0.000714817)
(0.000637062 -2.74133e-05 -3.45909e-07)
(-3.72089e-06 0.000703676 -2.86268e-06)
(-7.12528e-07 -6.87265e-08 0.000716633)
(7.1234e-07 8.05707e-08 -0.000715369)
(0.000638316 -2.72391e-05 -5.4067e-07)
(-3.45651e-06 0.000702323 -3.96215e-06)
(-1.08404e-06 -2.58205e-07 0.00071761)
(1.12943e-06 2.80934e-07 -0.000715656)
(-8.04601e-06 0.000697042 -2.84511e-06)
(-3.55275e-06 5.2772e-07 0.000716407)
(6.90151e-06 -1.86689e-06 -0.000712588)
(0.000625475 -2.84997e-06 -1.03936e-07)
(-1.53225e-06 0.00071189 -3.84408e-08)
(3.17389e-08 6.44873e-09 0.000710789)
(-3.25416e-08 -6.62796e-09 -0.000710673)
(0.000625928 -5.49202e-06 -2.00827e-07)
(-1.46532e-06 0.000711251 -1.14919e-07)
(3.09416e-08 1.90949e-08 0.000710781)
(-3.17555e-08 -1.96367e-08 -0.000710649)
(0.000626368 -7.8984e-06 -2.90641e-07)
(-1.42731e-06 0.000710531 -1.92638e-07)
(3.20629e-08 3.16654e-08 0.000710687)
(-3.28986e-08 -3.25707e-08 -0.000710538)
(0.000626816 -1.01299e-05 -3.76199e-07)
(-1.45948e-06 0.000709991 -2.76755e-07)
(3.58124e-08 4.52009e-08 0.000710741)
(-3.66586e-08 -4.64691e-08 -0.00071057)
(0.000627291 -1.22407e-05 -4.6163e-07)
(-1.55565e-06 0.000709606 -3.73827e-07)
(4.14261e-08 6.0746e-08 0.000710946)
(-4.22697e-08 -6.24134e-08 -0.000710746)
(0.000627809 -1.42695e-05 -5.48859e-07)
(-1.71238e-06 0.000709345 -4.90934e-07)
(4.79049e-08 7.92078e-08 0.000711297)
(-4.86953e-08 -8.13153e-08 -0.00071106)
(0.000628388 -1.62491e-05 -6.36408e-07)
(-1.93034e-06 0.000709175 -6.3587e-07)
(5.39506e-08 1.01585e-07 0.000711783)
(-5.44966e-08 -1.041e-07 -0.000711503)
(0.000629042 -1.82087e-05 -7.21638e-07)
(-2.21245e-06 0.000709064 -8.18149e-07)
(5.68875e-08 1.28896e-07 0.000712393)
(-5.68738e-08 -1.31705e-07 -0.000712061)
(0.000629789 -2.01649e-05 -7.97454e-07)
(-2.56156e-06 0.00070896 -1.04981e-06)
(5.12616e-08 1.62382e-07 0.000713099)
(-5.03065e-08 -1.65259e-07 -0.000712709)
(0.000630642 -2.21268e-05 -8.52276e-07)
(-2.97992e-06 0.000708797 -1.34674e-06)
(2.73074e-08 2.04018e-07 0.000713853)
(-2.49613e-08 -2.06523e-07 -0.000713399)
(0.000631607 -2.4078e-05 -8.69179e-07)
(-3.46234e-06 0.000708464 -1.73152e-06)
(-3.14556e-08 2.57675e-07 0.000714572)
(3.55438e-08 -2.58954e-07 -0.000714049)
(0.000632672 -2.59647e-05 -8.27075e-07)
(-3.98484e-06 0.00070782 -2.23812e-06)
(-1.51216e-07 3.32367e-07 0.000715124)
(1.56883e-07 -3.30912e-07 -0.000714526)
(0.000633785 -2.76776e-05 -7.13973e-07)
(-4.48048e-06 0.000706696 -2.9223e-06)
(-3.66887e-07 4.49878e-07 0.00071534)
(3.73016e-07 -4.43217e-07 -0.000714645)
(0.00063481 -2.90338e-05 -5.67539e-07)
(-4.75287e-06 0.000705017 -3.87863e-06)
(-6.94781e-07 6.56091e-07 0.000715108)
(7.01849e-07 -6.40741e-07 -0.000714239)
(0.000635424 -2.98491e-05 -6.20636e-07)
(-4.12128e-06 0.000703121 -5.2582e-06)
(-9.90898e-07 1.0035e-06 0.000714703)
(1.04185e-06 -9.8651e-07 -0.000713354)
(-9.57504e-06 0.000698761 -3.65598e-06)
(-2.22119e-06 1.93815e-06 0.000712026)
(4.12501e-06 -2.35798e-06 -0.000710356)
(0.000625412 -2.71915e-06 -1.42812e-07)
(-1.94349e-06 0.000714609 -4.86717e-08)
(4.25229e-08 5.66769e-09 0.000713556)
(-4.36284e-08 -5.8292e-09 -0.000713403)
(0.000625805 -5.23639e-06 -2.76412e-07)
(-1.85677e-06 0.000713768 -1.45466e-07)
(4.13679e-08 1.684e-08 0.000713271)
(-4.24863e-08 -1.73218e-08 -0.000713107)
(0.000626184 -7.52752e-06 -4.00075e-07)
(-1.80541e-06 0.000712823 -2.43637e-07)
(4.29004e-08 2.80933e-08 0.000712874)
(-4.40366e-08 -2.88913e-08 -0.000712699)
(0.000626567 -9.65068e-06 -5.18949e-07)
(-1.8414e-06 0.000712115 -3.49608e-07)
(4.81057e-08 4.0391e-08 0.000712682)
(-4.92784e-08 -4.15313e-08 -0.00071249)
(0.000626968 -1.16523e-05 -6.39201e-07)
(-1.95524e-06 0.00071161 -4.71513e-07)
(5.60397e-08 5.48283e-08 0.000712685)
(-5.72715e-08 -5.63746e-08 -0.000712467)
(0.000627399 -1.35744e-05 -7.62412e-07)
(-2.14202e-06 0.000711269 -6.17816e-07)
(6.58553e-08 7.26332e-08 0.00071286)
(-6.70499e-08 -7.46361e-08 -0.00071261)
(0.00062787 -1.54601e-05 -8.87745e-07)
(-2.40097e-06 0.000711063 -7.97788e-07)
(7.64109e-08 9.53289e-08 0.000713189)
(-7.73321e-08 -9.78177e-08 -0.000712902)
(0.000628392 -1.73497e-05 -1.01354e-06)
(-2.73347e-06 0.000710956 -1.02261e-06)
(8.54223e-08 1.25135e-07 0.000713649)
(-8.57277e-08 -1.28146e-07 -0.000713318)
(0.00062897 -1.92808e-05 -1.13174e-06)
(-3.14077e-06 0.000710895 -1.3062e-06)
(8.87094e-08 1.66126e-07 0.000714194)
(-8.78726e-08 -1.69621e-07 -0.00071382)
(0.000629609 -2.12882e-05 -1.22905e-06)
(-3.62161e-06 0.000710808 -1.6667e-06)
(7.86897e-08 2.25903e-07 0.000714761)
(-7.60054e-08 -2.2961e-07 -0.000714344)
(0.000630306 -2.34095e-05 -1.28426e-06)
(-4.16449e-06 0.000710589 -2.12925e-06)
(4.32774e-08 3.18155e-07 0.000715239)
(-3.788e-08 -3.21342e-07 -0.000714787)
(0.000631042 -2.56695e-05 -1.26629e-06)
(-4.72972e-06 0.000710082 -2.73069e-06)
(-3.42909e-08 4.67728e-07 0.000715464)
(4.30167e-08 -4.68814e-07 -0.000714989)
(0.000631766 -2.80508e-05 -1.1398e-06)
(-5.21637e-06 0.000709073 -3.5292e-06)
(-1.73798e-07 7.14654e-07 0.000715204)
(1.858e-07 -7.10882e-07 -0.000714723)
(0.000632379 -3.04112e-05 -8.97886e-07)
(-5.38221e-06 0.000707365 -4.62369e-06)
(-3.75474e-07 1.10691e-06 0.000714263)
(3.91437e-07 -1.09524e-06 -0.00071376)
(0.000632703 -3.23835e-05 -6.90005e-07)
(-4.48941e-06 0.000705084 -6.19675e-06)
(-5.37823e-07 1.64151e-06 0.000712881)
(5.81792e-07 -1.63163e-06 -0.000712151)
(-1.0143e-05 0.000702123 -4.31341e-06)
(-1.03254e-06 2.59472e-06 0.000709756)
(2.11448e-06 -3.21626e-06 -0.000709499)
(0.000625335 -2.54174e-06 -1.78668e-07)
(-2.27701e-06 0.000717151 -5.69165e-08)
(5.21297e-08 5.11788e-09 0.00071616)
(-5.35121e-08 -5.26789e-09 -0.000715973)
(0.000625652 -4.8905e-06 -3.46118e-07)
(-2.17288e-06 0.000716118 -1.69975e-07)
(5.07621e-08 1.52691e-08 0.000715587)
(-5.21552e-08 -1.57187e-08 -0.000715395)
(0.000625957 -7.02391e-06 -5.01475e-07)
(-2.10842e-06 0.000714957 -2.84349e-07)
(5.28053e-08 2.56175e-08 0.00071488)
(-5.42337e-08 -2.63875e-08 -0.000714684)
(0.00062626 -8.99187e-06 -6.52356e-07)
(-2.14324e-06 0.000714084 -4.07455e-07)
(5.95013e-08 3.70703e-08 0.000714432)
(-6.10207e-08 -3.82165e-08 -0.000714223)
(0.000626572 -1.08383e-05 -8.05302e-07)
(-2.26511e-06 0.000713457 -5.48396e-07)
(6.9931e-08 5.07542e-08 0.000714214)
(-7.15695e-08 -5.23427e-08 -0.000713984)
(0.000626899 -1.26092e-05 -9.62449e-07)
(-2.46724e-06 0.000713042 -7.16414e-07)
(8.34887e-08 6.79838e-08 0.000714199)
(-8.51415e-08 -7.00948e-08 -0.000713943)
(0.000627245 -1.43484e-05 -1.12539e-06)
(-2.74634e-06 0.000712805 -9.21635e-07)
(9.94332e-08 9.05347e-08 0.00071436)
(-1.00873e-07 -9.32778e-08 -0.000714073)
(0.000627613 -1.60997e-05 -1.29402e-06)
(-3.10065e-06 0.000712711 -1.17604e-06)
(1.16689e-07 1.21368e-07 0.000714665)
(-1.17576e-07 -1.24867e-07 -0.000714343)
(0.000628001 -1.79156e-05 -1.4617e-06)
(-3.52823e-06 0.000712715 -1.49421e-06)
(1.33559e-07 1.65871e-07 0.000715063)
(-1.33259e-07 -1.7022e-07 -0.000714707)
(0.000628401 -1.98592e-05 -1.61617e-06)
(-4.0247e-06 0.000712756 -1.89509e-06)
(1.46721e-07 2.33732e-07 0.00071548)
(-1.44304e-07 -2.38901e-07 -0.000715097)
(0.000628808 -2.20166e-05 -1.73672e-06)
(-4.57747e-06 0.000712752 -2.40543e-06)
(1.51265e-07 3.41714e-07 0.000715813)
(-1.4535e-07 -3.47336e-07 -0.000715416)
(0.000629212 -2.44972e-05 -1.78573e-06)
(-5.14441e-06 0.000712567 -3.06482e-06)
(1.4306e-07 5.17844e-07 0.000715901)
(-1.31936e-07 -5.22631e-07 -0.000715518)
(0.000629593 -2.73868e-05 -1.70588e-06)
(-5.61459e-06 0.000711964 -3.93551e-06)
(1.15306e-07 8.03425e-07 0.000715498)
(-9.7887e-08 -8.04834e-07 -0.000715172)
(0.000629913 -3.06111e-05 -1.43322e-06)
(-5.72681e-06 0.000710585 -5.12354e-06)
(6.26014e-08 1.23789e-06 0.000714305)
(-3.84509e-08 -1.23293e-06 -0.000714078)
(0.000630079 -3.36198e-05 -9.47069e-07)
(-4.69073e-06 0.000708088 -6.83167e-06)
(-6.89185e-09 1.7934e-06 0.000712222)
(4.27695e-08 -1.78916e-06 -0.000712073)
(-1.03625e-05 0.000706792 -4.65186e-06)
(2.47143e-08 2.61405e-06 0.000709183)
(1.44713e-07 -3.07405e-06 -0.000710774)
(0.000625246 -2.32146e-06 -2.11303e-07)
(-2.52129e-06 0.000719473 -6.28777e-08)
(6.09507e-08 4.78643e-09 0.000718556)
(-6.25963e-08 -4.93273e-09 -0.000718338)
(0.000625478 -4.46238e-06 -4.09051e-07)
(-2.40306e-06 0.000718259 -1.87614e-07)
(5.94423e-08 1.42784e-08 0.000717693)
(-6.11038e-08 -1.47228e-08 -0.000717478)
(0.000625697 -6.39809e-06 -5.93255e-07)
(-2.32624e-06 0.000716893 -3.13424e-07)
(6.20115e-08 2.39473e-08 0.000716676)
(-6.37422e-08 -2.47124e-08 -0.000716463)
(0.000625912 -8.17415e-06 -7.72572e-07)
(-2.356e-06 0.000715861 -4.4827e-07)
(7.01753e-08 3.46455e-08 0.000715963)
(-7.20495e-08 -3.57724e-08 -0.000715743)
(0.000626126 -9.83282e-06 -9.53126e-07)
(-2.47746e-06 0.000715118 -6.01702e-07)
(8.30943e-08 4.74386e-08 0.000715517)
(-8.51606e-08 -4.90023e-08 -0.000715283)
(0.000626342 -1.14108e-05 -1.14025e-06)
(-2.68063e-06 0.000714622 -7.83319e-07)
(1.00433e-07 6.36143e-08 0.000715302)
(-1.02612e-07 -6.57319e-08 -0.000715048)
(0.000626556 -1.29424e-05 -1.33841e-06)
(-2.9588e-06 0.00071434 -1.00343e-06)
(1.22032e-07 8.49821e-08 0.000715283)
(-1.24116e-07 -8.77988e-08 -0.000715003)
(0.000626764 -1.44678e-05 -1.54874e-06)
(-3.30653e-06 0.00071424 -1.27381e-06)
(1.48213e-07 1.14423e-07 0.000715422)
(-1.49899e-07 -1.18143e-07 -0.000715114)
(0.000626954 -1.60413e-05 -1.76833e-06)
(-3.71779e-06 0.000714293 -1.60859e-06)
(1.79806e-07 1.56851e-07 0.000715669)
(-1.8044e-07 -1.61751e-07 -0.000715335)
(0.000627113 -1.77424e-05 -1.98874e-06)
(-4.18494e-06 0.000714464 -2.02619e-06)
(2.17772e-07 2.20626e-07 0.000715962)
(-2.16284e-07 -2.26955e-07 -0.00071561)
(0.000627228 -1.96897e-05 -2.19455e-06)
(-4.69778e-06 0.000714707 -2.55351e-06)
(2.63819e-07 3.19327e-07 0.000716218)
(-2.58449e-07 -3.27155e-07 -0.000715864)
(0.000627297 -2.205e-05 -2.35154e-06)
(-5.22582e-06 0.000714936 -3.23274e-06)
(3.24429e-07 4.74306e-07 0.000716316)
(-3.1245e-07 -4.83192e-07 -0.000715991)
(0.000627348 -2.50207e-05 -2.39708e-06)
(-5.68608e-06 0.000714943 -4.13508e-06)
(4.04185e-07 7.17744e-07 0.000716042)
(-3.83147e-07 -7.26038e-07 -0.000715797)
(0.000627442 -2.87166e-05 -2.21889e-06)
(-5.85279e-06 0.000714285 -5.38624e-06)
(4.86839e-07 1.08298e-06 0.000715044)
(-4.55164e-07 -1.08712e-06 -0.000714959)
(0.000627606 -3.26433e-05 -1.54718e-06)
(-4.88686e-06 0.000712017 -7.20814e-06)
(4.88166e-07 1.55426e-06 0.000712694)
(-4.55637e-07 -1.55642e-06 -0.00071299)
(-1.057e-05 0.000713392 -4.81547e-06)
(9.18898e-07 2.24618e-06 0.000710643)
(-1.46204e-06 -2.57964e-06 -0.00071423)
(0.000625149 -2.06599e-06 -2.3961e-07)
(-2.66875e-06 0.000721539 -6.63352e-08)
(6.92461e-08 4.53892e-09 0.000720707)
(-7.11439e-08 -4.67648e-09 -0.000720464)
(0.000625289 -3.96653e-06 -4.63352e-07)
(-2.54076e-06 0.00072016 -1.97766e-07)
(6.75704e-08 1.35001e-08 0.00071956)
(-6.94913e-08 -1.39144e-08 -0.000719326)
(0.000625419 -5.67626e-06 -6.7214e-07)
(-2.45384e-06 0.000718604 -3.29954e-07)
(7.05855e-08 2.25339e-08 0.000718238)
(-7.26061e-08 -2.32437e-08 -0.000718013)
(0.000625541 -7.23338e-06 -8.7424e-07)
(-2.47612e-06 0.00071742 -4.70981e-07)
(8.00736e-08 3.24167e-08 0.000717262)
(-8.22853e-08 -3.34678e-08 -0.000717037)
(0.000625656 -8.66793e-06 -1.07684e-06)
(-2.58988e-06 0.000716554 -6.30362e-07)
(9.52497e-08 4.41021e-08 0.000716583)
(-9.77431e-08 -4.5573e-08 -0.000716352)
(0.00062576 -1.00034e-05 -1.28922e-06)
(-2.78165e-06 0.00071596 -8.17647e-07)
(1.1605e-07 5.86997e-08 0.000716156)
(-1.18771e-07 -6.07084e-08 -0.000715909)
(0.000625845 -1.12642e-05 -1.51719e-06)
(-3.04092e-06 0.000715603 -1.04262e-06)
(1.42833e-07 7.77003e-08 0.000715938)
(-1.45611e-07 -8.04114e-08 -0.00071567)
(0.000625899 -1.24798e-05 -1.76347e-06)
(-3.358e-06 0.00071546 -1.31591e-06)
(1.76937e-07 1.03248e-07 0.000715887)
(-1.79546e-07 -1.06901e-07 -0.000715599)
(0.000625904 -1.36905e-05 -2.02911e-06)
(-3.72168e-06 0.000715509 -1.65009e-06)
(2.20949e-07 1.38551e-07 0.000715962)
(-2.22785e-07 -1.43483e-07 -0.000715655)
(0.000625838 -1.49567e-05 -2.31082e-06)
(-4.11891e-06 0.000715737 -2.06126e-06)
(2.7858e-07 1.88412e-07 0.000716112)
(-2.78524e-07 -1.95028e-07 -0.000715795)
(0.000625675 -1.63795e-05 -2.60212e-06)
(-4.53815e-06 0.000716139 -2.57354e-06)
(3.55372e-07 2.59691e-07 0.000716284)
(-3.51595e-07 -2.68523e-07 -0.000715973)
(0.000625401 -1.81105e-05 -2.88474e-06)
(-4.96213e-06 0.000716679 -3.22783e-06)
(4.63332e-07 3.61413e-07 0.000716393)
(-4.52748e-07 -3.73209e-07 -0.000716115)
(0.000625054 -2.03952e-05 -3.11814e-06)
(-5.36077e-06 0.000717243 -4.10222e-06)
(6.15029e-07 5.06162e-07 0.00071629)
(-5.9387e-07 -5.21312e-07 -0.000716089)
(0.000624808 -2.35962e-05 -3.19332e-06)
(-5.64245e-06 0.000717503 -5.35707e-06)
(7.92609e-07 7.12304e-07 0.000715705)
(-7.56613e-07 -7.29294e-07 -0.000715659)
(0.000625008 -2.7784e-05 -2.61534e-06)
(-5.12073e-06 0.000716221 -7.28731e-06)
(8.67551e-07 9.99998e-07 0.000713707)
(-8.3353e-07 -1.0168e-06 -0.000714206)
(-1.18355e-05 0.000724835 -4.81665e-06)
(1.75153e-06 1.59331e-06 0.000715886)
(-2.84455e-06 -1.83189e-06 -0.000721714)
(0.000625049 -1.7806e-06 -2.6266e-07)
(7.71048e-08 4.3142e-09 0.000722583)
(-7.92392e-08 -4.44305e-09 -0.000722319)
(-2.71567e-06 0.00072332 -6.72705e-08)
(0.000625094 -3.41798e-06 -5.0729e-07)
(7.5205e-08 1.27937e-08 0.000721167)
(-7.73598e-08 -1.31743e-08 -0.000720919)
(-2.58347e-06 0.000721798 -2.00385e-07)
(0.000625133 -4.884e-06 -7.3516e-07)
(7.85098e-08 2.12056e-08 0.000719554)
(-8.07934e-08 -2.18469e-08 -0.000719323)
(-2.49034e-06 0.00072007 -3.3386e-07)
(0.000625163 -6.20066e-06 -9.54528e-07)
(8.90792e-08 3.01976e-08 0.00071832)
(-9.16086e-08 -3.11469e-08 -0.000718096)
(-2.50424e-06 0.000718737 -4.75649e-07)
(0.000625182 -7.38308e-06 -1.17476e-06)
(1.06102e-07 4.05525e-08 0.000717403)
(-1.08989e-07 -4.18765e-08 -0.000717178)
(-2.60521e-06 0.000717737 -6.34979e-07)
(0.00062518 -8.44454e-06 -1.40636e-06)
(1.29657e-07 5.30346e-08 0.000716749)
(-1.32885e-07 -5.48293e-08 -0.000716515)
(-2.77702e-06 0.000717023 -8.2075e-07)
(0.000625148 -9.39788e-06 -1.65548e-06)
(1.60438e-07 6.85673e-08 0.000716311)
(-1.6389e-07 -7.09922e-08 -0.000716063)
(-3.00534e-06 0.000716559 -1.0416e-06)
(0.000625069 -1.02547e-05 -1.92695e-06)
(2.00245e-07 8.82997e-08 0.000716045)
(-2.03738e-07 -9.15535e-08 -0.000715783)
(-3.27519e-06 0.00071632 -1.30646e-06)
(0.000624919 -1.10285e-05 -2.22367e-06)
(2.52243e-07 1.13443e-07 0.00071591)
(-2.55243e-07 -1.17771e-07 -0.000715638)
(-3.56872e-06 0.000716287 -1.62531e-06)
(0.000624665 -1.17377e-05 -2.54718e-06)
(3.2089e-07 1.45031e-07 0.000715859)
(-3.22376e-07 -1.50836e-07 -0.000715586)
(-3.86407e-06 0.000716452 -2.01008e-06)
(0.000624261 -1.24068e-05 -2.89923e-06)
(4.12324e-07 1.83395e-07 0.000715845)
(-4.10688e-07 -1.91382e-07 -0.000715589)
(-4.13526e-06 0.000716816 -2.4775e-06)
(0.000623638 -1.30683e-05 -3.27766e-06)
(5.37252e-07 2.25401e-07 0.000715766)
(-5.29769e-07 -2.36866e-07 -0.000715561)
(-4.34637e-06 0.000717352 -3.05427e-06)
(0.000622696 -1.37934e-05 -3.6735e-06)
(7.05953e-07 2.59646e-07 0.000715421)
(-6.8881e-07 -2.76869e-07 -0.000715339)
(-4.4361e-06 0.000717985 -3.78829e-06)
(0.000621276 -1.47661e-05 -4.03624e-06)
(8.99423e-07 2.65547e-07 0.000714347)
(-8.67909e-07 -2.92676e-07 -0.00071457)
(-4.25418e-06 0.000718503 -4.77103e-06)
(0.000619205 -1.67572e-05 -3.95955e-06)
(1.00571e-06 2.43846e-07 0.000711166)
(-9.73355e-07 -2.81289e-07 -0.000712388)
(-3.08231e-06 0.00071825 -6.14178e-06)
(2.58835e-06 6.47146e-07 0.000727209)
(-4.07033e-06 -8.0681e-07 -0.000735811)
(-1.8053e-05 0.000747295 -4.03876e-06)
(0.000625564 -3.01745e-06 -1.79719e-08)
(-5.63391e-07 0.000706143 -1.23746e-08)
(6.2893e-09 7.07546e-09 0.000704966)
(0.000626105 -5.81376e-06 -3.47978e-08)
(-5.40314e-07 0.000705923 -3.70099e-08)
(6.18634e-09 2.11087e-08 0.000705488)
(0.000626634 -8.36281e-06 -5.01658e-08)
(-5.29246e-07 0.000705676 -6.20005e-08)
(6.45235e-09 3.53187e-08 0.000705977)
(0.00062718 -1.07257e-05 -6.43803e-08)
(-5.45168e-07 0.000705491 -8.88858e-08)
(7.217e-09 5.06772e-08 0.000706501)
(0.000627766 -1.29522e-05 -7.80474e-08)
(-5.86188e-07 0.000705356 -1.19579e-07)
(8.35134e-09 6.81585e-08 0.000707084)
(0.000628419 -1.50852e-05 -9.11621e-08)
(-6.52318e-07 0.000705263 -1.55977e-07)
(9.59867e-09 8.83088e-08 0.000707751)
(0.000629164 -1.71538e-05 -1.03177e-07)
(-7.44261e-07 0.0007052 -2.00116e-07)
(1.05127e-08 1.10895e-07 0.000708524)
(0.000630028 -1.91687e-05 -1.1333e-07)
(-8.64082e-07 0.000705146 -2.54179e-07)
(1.03303e-08 1.34346e-07 0.000709426)
(0.000631042 -2.11189e-05 -1.20344e-07)
(-1.01533e-06 0.000705081 -3.20268e-07)
(7.59587e-09 1.54649e-07 0.00071048)
(0.000632241 -2.29545e-05 -1.22218e-07)
(-1.20137e-06 0.000704963 -4.00318e-07)
(-3.36689e-10 1.63283e-07 0.000711704)
(0.000633664 -2.45844e-05 -1.1781e-07)
(-1.42858e-06 0.000704747 -4.95523e-07)
(-1.83396e-08 1.43501e-07 0.000713119)
(0.000635352 -2.58644e-05 -1.0868e-07)
(-1.70384e-06 0.000704373 -6.03529e-07)
(-5.41332e-08 6.47907e-08 0.00071475)
(0.000637342 -2.66122e-05 -1.0519e-07)
(-2.02864e-06 0.000703781 -7.09998e-07)
(-1.18539e-07 -1.23566e-07 0.00071663)
(0.000639615 -2.67076e-05 -1.34209e-07)
(-2.36675e-06 0.000702984 -7.67404e-07)
(-2.16189e-07 -4.89307e-07 0.000718809)
(0.000641849 -2.63199e-05 -2.22964e-07)
(-2.4262e-06 0.00070219 -6.82698e-07)
(-3.02704e-07 -1.05814e-06 0.000721249)
(-6.52987e-06 0.000700975 -4.28368e-07)
(-9.92482e-07 -2.45714e-06 0.000726412)
(0.000625541 -2.97491e-06 -5.39059e-08)
(-1.10316e-06 0.000709118 -2.42755e-08)
(1.84962e-08 6.65585e-09 0.000707966)
(0.000626059 -5.73371e-06 -1.04462e-07)
(-1.05736e-06 0.000708683 -7.25234e-08)
(1.81077e-08 1.9757e-08 0.000708242)
(0.000626566 -8.24914e-06 -1.50808e-07)
(-1.03456e-06 0.000708194 -1.21329e-07)
(1.88236e-08 3.28419e-08 0.000708457)
(0.000627086 -1.0581e-05 -1.93995e-07)
(-1.06416e-06 0.000707826 -1.73723e-07)
(2.10511e-08 4.68913e-08 0.000708765)
(0.000627644 -1.27834e-05 -2.35564e-07)
(-1.14266e-06 0.000707562 -2.3343e-07)
(2.43901e-08 6.28981e-08 0.000709181)
(0.000628262 -1.48989e-05 -2.75634e-07)
(-1.26903e-06 0.000707384 -3.0425e-07)
(2.81388e-08 8.14954e-08 0.000709718)
(0.000628963 -1.69561e-05 -3.12727e-07)
(-1.44439e-06 0.000707263 -3.90051e-07)
(3.12598e-08 1.02958e-07 0.000710381)
(0.000629772 -1.8971e-05 -3.44519e-07)
(-1.67259e-06 0.000707168 -4.94759e-07)
(3.18479e-08 1.27014e-07 0.000711171)
(0.000630713 -2.09414e-05 -3.66732e-07)
(-1.95815e-06 0.000707058 -6.22427e-07)
(2.61117e-08 1.52062e-07 0.000712088)
(0.000631811 -2.28408e-05 -3.73226e-07)
(-2.30581e-06 0.000706868 -7.76564e-07)
(7.18072e-09 1.73914e-07 0.000713108)
(0.000633086 -2.46019e-05 -3.60551e-07)
(-2.72013e-06 0.000706508 -9.58236e-07)
(-3.69777e-08 1.84358e-07 0.0007142)
(0.000634541 -2.61043e-05 -3.29311e-07)
(-3.19773e-06 0.000705864 -1.16042e-06)
(-1.24431e-07 1.7013e-07 0.000715305)
(0.00063613 -2.71714e-05 -3.01711e-07)
(-3.70978e-06 0.000704814 -1.35241e-06)
(-2.7781e-07 1.14402e-07 0.000716358)
(0.000637672 -2.76142e-05 -3.42476e-07)
(-4.12328e-06 0.000703352 -1.44296e-06)
(-4.98988e-07 6.70741e-09 0.000717349)
(0.000638721 -2.7411e-05 -5.19559e-07)
(-3.88807e-06 0.000701858 -1.27086e-06)
(-6.70437e-07 -1.29241e-07 0.000718375)
(-5.90354e-06 0.000697663 -4.07296e-07)
(-1.6559e-06 2.03398e-07 0.000717347)
(0.000625496 -2.88783e-06 -8.94561e-08)
(-1.59711e-06 0.000712006 -3.51543e-08)
(2.97789e-08 6.03063e-09 0.000710889)
(0.00062597 -5.56523e-06 -1.73138e-07)
(-1.52952e-06 0.000711361 -1.0496e-07)
(2.90042e-08 1.78572e-08 0.000710897)
(0.000626432 -8.00442e-06 -2.50129e-07)
(-1.49413e-06 0.000710635 -1.75492e-07)
(3.00782e-08 2.96261e-08 0.000710818)
(0.000626903 -1.02678e-05 -3.22611e-07)
(-1.53399e-06 0.000710092 -2.51125e-07)
(3.36967e-08 4.23302e-08 0.000710891)
(0.000627406 -1.24112e-05 -3.92946e-07)
(-1.64321e-06 0.000709709 -3.37142e-07)
(3.91642e-08 5.69602e-08 0.00071112)
(0.000627958 -1.44735e-05 -4.6137e-07)
(-1.81859e-06 0.000709451 -4.38866e-07)
(4.56319e-08 7.43927e-08 0.0007115)
(0.000628577 -1.6487e-05 -5.25623e-07)
(-2.06113e-06 0.000709282 -5.6155e-07)
(5.19688e-08 9.56273e-08 0.000712019)
(0.00062928 -1.84805e-05 -5.81827e-07)
(-2.37497e-06 0.000709169 -7.10468e-07)
(5.5878e-08 1.21754e-07 0.000712665)
(0.000630085 -2.04683e-05 -6.22683e-07)
(-2.76408e-06 0.000709054 -8.90963e-07)
(5.28263e-08 1.54099e-07 0.000713408)
(0.000631004 -2.24568e-05 -6.38433e-07)
(-3.23212e-06 0.000708866 -1.1073e-06)
(3.45291e-08 1.94513e-07 0.0007142)
(0.000632039 -2.44227e-05 -6.20441e-07)
(-3.77479e-06 0.000708486 -1.35937e-06)
(-1.23648e-08 2.46403e-07 0.000714955)
(0.000633163 -2.63011e-05 -5.61267e-07)
(-4.36636e-06 0.000707758 -1.63421e-06)
(-1.06592e-07 3.16799e-07 0.000715539)
(0.000634286 -2.79632e-05 -4.7631e-07)
(-4.93172e-06 0.000706506 -1.88491e-06)
(-2.6738e-07 4.19897e-07 0.000715787)
(0.000635197 -2.91975e-05 -4.32702e-07)
(-5.24634e-06 0.000704662 -1.98377e-06)
(-4.83228e-07 5.79735e-07 0.000715605)
(0.000635571 -2.98062e-05 -5.19573e-07)
(-4.63566e-06 0.00070266 -1.72371e-06)
(-6.16913e-07 8.10171e-07 0.000715243)
(-6.63084e-06 0.000698813 -5.42517e-07)
(-1.03359e-06 1.28068e-06 0.000712915)
(0.000625431 -2.75415e-06 -1.23307e-07)
(-2.02544e-06 0.000714761 -4.45493e-08)
(3.98744e-08 5.31184e-09 0.000713689)
(0.000625842 -5.30462e-06 -2.38528e-07)
(-1.93789e-06 0.000713913 -1.33006e-07)
(3.87615e-08 1.57789e-08 0.000713414)
(0.00062624 -7.6266e-06 -3.44783e-07)
(-1.88966e-06 0.000712959 -2.22294e-07)
(4.02419e-08 2.63278e-08 0.000713027)
(0.000626644 -9.78068e-06 -4.45905e-07)
(-1.93513e-06 0.000712249 -3.17816e-07)
(4.52522e-08 3.7876e-08 0.00071285)
(0.000627069 -1.18146e-05 -5.45367e-07)
(-2.06504e-06 0.000711747 -4.26142e-07)
(5.29215e-08 5.14428e-08 0.000712873)
(0.000627528 -1.37699e-05 -6.42981e-07)
(-2.27434e-06 0.000711411 -5.53609e-07)
(6.25703e-08 6.81761e-08 0.000713072)
(0.000628033 -1.56901e-05 -7.35971e-07)
(-2.56293e-06 0.000711209 -7.06361e-07)
(7.32609e-08 8.95443e-08 0.000713427)
(0.000628594 -1.76162e-05 -8.19372e-07)
(-2.93326e-06 0.000711102 -8.90581e-07)
(8.30948e-08 1.17677e-07 0.000713912)
(0.000629217 -1.95854e-05 -8.83894e-07)
(-3.3877e-06 0.000711033 -1.11216e-06)
(8.86049e-08 1.5628e-07 0.00071448)
(0.000629907 -2.16305e-05 -9.16779e-07)
(-3.92629e-06 0.000710924 -1.37542e-06)
(8.33344e-08 2.12114e-07 0.000715062)
(0.000630655 -2.37838e-05 -9.00856e-07)
(-4.53758e-06 0.00071066 -1.67902e-06)
(5.77293e-08 2.97151e-07 0.000715543)
(0.000631433 -2.6059e-05 -8.1663e-07)
(-5.17804e-06 0.00071007 -2.00509e-06)
(-6.71086e-10 4.31514e-07 0.000715751)
(0.000632165 -2.84089e-05 -6.54371e-07)
(-5.73329e-06 0.000708927 -2.29376e-06)
(-1.03937e-07 6.43062e-07 0.00071545)
(0.000632712 -3.06414e-05 -4.50229e-07)
(-5.92809e-06 0.000707047 -2.39051e-06)
(-2.40629e-07 9.54267e-07 0.000714466)
(0.000632916 -3.2335e-05 -3.07125e-07)
(-5.05676e-06 0.000704661 -2.05727e-06)
(-3.20737e-07 1.33383e-06 0.000713072)
(-6.71219e-06 0.000701392 -6.86774e-07)
(-4.67494e-07 1.83749e-06 0.000710175)
(0.00062535 -2.57376e-06 -1.54378e-07)
(-2.37262e-06 0.000717335 -5.21212e-08)
(4.88746e-08 4.79229e-09 0.000716322)
(0.000625683 -4.95304e-06 -2.9923e-07)
(-2.26744e-06 0.000716293 -1.55577e-07)
(4.75468e-08 1.42841e-08 0.000715754)
(0.000626003 -7.11542e-06 -4.33191e-07)
(-2.20639e-06 0.000715123 -2.5981e-07)
(4.95109e-08 2.39409e-08 0.000715052)
(0.000626324 -9.11254e-06 -5.6181e-07)
(-2.25193e-06 0.000714249 -3.70965e-07)
(5.59243e-08 3.46211e-08 0.000714614)
(0.000626654 -1.09878e-05 -6.89057e-07)
(-2.39167e-06 0.000713625 -4.96434e-07)
(6.5933e-08 4.73801e-08 0.000714412)
(0.000627003 -1.27881e-05 -8.14259e-07)
(-2.6187e-06 0.000713216 -6.43134e-07)
(7.90905e-08 6.34415e-08 0.000714413)
(0.000627375 -1.456e-05 -9.35526e-07)
(-2.93039e-06 0.000712986 -8.17715e-07)
(9.48815e-08 8.44744e-08 0.000714593)
(0.000627772 -1.63484e-05 -1.04804e-06)
(-3.32586e-06 0.000712899 -1.0267e-06)
(1.12463e-07 1.13209e-07 0.000714914)
(0.000628191 -1.82069e-05 -1.14163e-06)
(-3.80405e-06 0.000712903 -1.27604e-06)
(1.30509e-07 1.54502e-07 0.00071532)
(0.000628627 -2.01988e-05 -1.20063e-06)
(-4.36191e-06 0.000712933 -1.56984e-06)
(1.46316e-07 2.16986e-07 0.000715733)
(0.000629072 -2.24093e-05 -1.2008e-06)
(-4.98714e-06 0.000712897 -1.90615e-06)
(1.56206e-07 3.15111e-07 0.00071604)
(0.000629513 -2.49367e-05 -1.10667e-06)
(-5.63262e-06 0.000712643 -2.26458e-06)
(1.56664e-07 4.71863e-07 0.000716066)
(0.000629927 -2.78387e-05 -8.72124e-07)
(-6.17183e-06 0.000711915 -2.57784e-06)
(1.40192e-07 7.17241e-07 0.000715548)
(0.00063027 -3.09814e-05 -4.80272e-07)
(-6.30848e-06 0.000710359 -2.67528e-06)
(9.99349e-08 1.06869e-06 0.000714198)
(0.00063046 -3.37018e-05 -3.41531e-08)
(-5.29628e-06 0.000707697 -2.29733e-06)
(4.18068e-08 1.47729e-06 0.000712015)
(-6.52913e-06 0.000705119 -8.31099e-07)
(4.23105e-08 1.9396e-06 0.000709051)
(0.000625258 -2.35036e-06 -1.82605e-07)