/*--------------------------------*- C++ -*----------------------------------*\
| =========                 |                                                 |
| \\      /  F ield         | foam-extend: Open Source CFD                    |
|  \\    /   O peration     | Version:     3.1                                |
|   \\  /    A nd           | Web:         http://www.extend-project.de       |
|    \\/     M anipulation  |                                                 |
\*---------------------------------------------------------------------------*/
FoamFile
{
    version     2.0;
    format      ascii;
    class       volVectorField;
    location    "2.6";
    object      U;
}
// * * * * * * * * * * * * * * * * * * * * * * * * * * * * * * * * * * * * * //

dimensions      [0 1 -1 0 0 0 0];

internalField   nonuniform List<vector> 
14592
(
(0.0190062 -6.84722e-05 -0.00159833)
(0.0188859 0.000117861 -0.0030041)
(0.0185079 0.000261557 -0.00404692)
(0.0179433 0.00033221 -0.00507778)
(0.0173481 0.000347263 -0.0061544)
(0.0168556 0.000319084 -0.00727216)
(0.0165449 0.000261397 -0.00843683)
(0.0164342 0.000189139 -0.00968799)
(0.0164877 0.000109035 -0.0111071)
(0.0166454 1.72333e-05 -0.0128312)
(0.0168642 -0.00011617 -0.0150682)
(0.0171487 -0.000350625 -0.0181229)
(0.0175657 -0.000754461 -0.0224013)
(0.0180128 -0.00129495 -0.028222)
(0.0171886 -0.00137863 -0.0344766)
(0.0118318 0.000175609 -0.0311075)
(0.0529566 3.38042e-05 -0.001886)
(0.052672 0.000421942 -0.00461738)
(0.0520554 0.000752855 -0.00710559)
(0.0511625 0.000897307 -0.00971278)
(0.050172 0.000853721 -0.012468)
(0.0492777 0.000680884 -0.0152778)
(0.0486142 0.000465633 -0.0180646)
(0.0482104 0.000290463 -0.020832)
(0.0479817 0.000200628 -0.0237001)
(0.0477627 0.000185898 -0.0269246)
(0.0473552 0.000163311 -0.030922)
(0.0465581 -2.14568e-05 -0.0363116)
(0.0451567 -0.000583755 -0.0439161)
(0.0425509 -0.0016298 -0.0543235)
(0.0360294 -0.00241585 -0.0646609)
(0.020294 -0.000693144 -0.0531026)
(0.0822266 0.000177608 -0.00150555)
(0.0820064 0.000736179 -0.00416987)
(0.0814873 0.00123269 -0.00693881)
(0.0806374 0.00147903 -0.0101336)
(0.0795191 0.00142131 -0.0137799)
(0.0782717 0.00113306 -0.0177134)
(0.0770532 0.00077049 -0.0217244)
(0.0759567 0.00050611 -0.0256725)
(0.0749505 0.000460715 -0.0295652)
(0.0738669 0.000664016 -0.0336126)
(0.0724267 0.00102368 -0.0382728)
(0.0702377 0.0013363 -0.0443031)
(0.0668003 0.00127943 -0.0528344)
(0.0611549 0.000492528 -0.065)
(0.0495224 -0.00083567 -0.0777786)
(0.0250886 -0.000546354 -0.0631497)
(0.106631 0.000266098 -0.00119193)
(0.106501 0.000928984 -0.0033798)
(0.10615 0.00154315 -0.00575182)
(0.105468 0.00191301 -0.0087096)
(0.104361 0.00194244 -0.0124131)
(0.102833 0.00168441 -0.0167657)
(0.100998 0.00131835 -0.0215089)
(0.099001 0.00107803 -0.0263592)
(0.0969214 0.00116537 -0.0311409)
(0.0946925 0.00168948 -0.0359019)
(0.0920724 0.00261809 -0.0410093)
(0.0885965 0.00378251 -0.0472328)
(0.083575 0.0048657 -0.0558769)
(0.0758324 0.00533811 -0.0687358)
(0.0606232 0.00429112 -0.0835009)
(0.0290811 0.00164154 -0.0687053)
(0.126141 0.000327735 -0.00100469)
(0.126056 0.00105367 -0.00280615)
(0.125826 0.0017486 -0.00469316)
(0.125318 0.00225543 -0.00711385)
(0.124321 0.00247097 -0.010391)
(0.122683 0.00241842 -0.0145942)
(0.120408 0.00225456 -0.0195411)
(0.117631 0.00222093 -0.0248958)
(0.114517 0.00256703 -0.0303306)
(0.111136 0.00348249 -0.0357067)
(0.107374 0.005034 -0.0412249)
(0.102807 0.00717107 -0.0475736)
(0.0966698 0.00969496 -0.0560869)
(0.0877199 0.0121855 -0.069102)
(0.0704145 0.012628 -0.0853738)
(0.0329926 0.0064523 -0.0715126)
(0.140768 0.000378543 -0.000885742)
(0.140697 0.00115875 -0.00244505)
(0.140534 0.00191873 -0.0039863)
(0.140166 0.00256353 -0.00592751)
(0.139329 0.00301782 -0.00868186)
(0.137752 0.00329107 -0.0124767)
(0.135316 0.00350167 -0.01726)
(0.132093 0.00385931 -0.0227314)
(0.128283 0.0046111 -0.0284873)
(0.124062 0.00599582 -0.0342349)
(0.119471 0.00817672 -0.0400035)
(0.114196 0.0112799 -0.0463504)
(0.107503 0.0153179 -0.0545102)
(0.0981924 0.0203521 -0.0671668)
(0.0803272 0.0237786 -0.0843821)
(0.0378245 0.0146867 -0.0718959)
(0.150518 0.000421568 -0.000798497)
(0.150454 0.00125032 -0.00219941)
(0.150337 0.00206369 -0.00352555)
(0.150084 0.00283434 -0.00513874)
(0.149423 0.00353566 -0.00747221)
(0.14802 0.00418405 -0.0108456)
(0.145667 0.00486467 -0.0153157)
(0.14237 0.0057344 -0.0206434)
(0.138331 0.00699792 -0.0264048)
(0.133794 0.00889707 -0.0322099)
(0.12895 0.0116626 -0.0379433)
(0.123619 0.0156246 -0.0440133)
(0.117244 0.0210646 -0.0514511)
(0.108595 0.0289973 -0.0629756)
(0.0927502 0.0376413 -0.0803745)
(0.0458734 0.0290924 -0.0691809)
(0.15539 0.000452532 -0.000732208)
(0.155341 0.00131419 -0.00201375)
(0.155277 0.00216195 -0.00319832)
(0.155138 0.00303402 -0.0046071)
(0.15466 0.00396028 -0.00666358)
(0.153489 0.00497606 -0.00971794)
(0.151382 0.00613941 -0.0138774)
(0.148314 0.0075456 -0.0189395)
(0.144498 0.00933028 -0.0244779)
(0.140222 0.0116971 -0.030048)
(0.135833 0.014895 -0.0354287)
(0.131282 0.0194101 -0.0408678)
(0.126572 0.0257719 -0.0471217)
(0.119942 0.0359775 -0.0563211)
(0.112358 0.0535805 -0.0725877)
(0.0634424 0.0520243 -0.0610767)
(0.0203084 -8.92056e-05 -0.00156438)
(0.0201256 8.61505e-05 -0.00294542)
(0.0196308 0.000229298 -0.00396478)
(0.0188996 0.000299206 -0.00497458)
(0.0180877 0.00031309 -0.00603986)
(0.0173258 0.000282765 -0.00715924)
(0.0166922 0.00022007 -0.00833497)
(0.0162013 0.000140723 -0.00959573)
(0.0158033 4.90545e-05 -0.0110087)
(0.0154061 -5.93108e-05 -0.0126857)
(0.014909 -0.000212492 -0.0147925)
(0.0142289 -0.000471574 -0.0175444)
(0.0132881 -0.000900749 -0.0211327)
(0.0117598 -0.00148772 -0.025364)
(0.0086514 -0.00195896 -0.0283128)
(0.00397536 -0.0017789 -0.0217823)
(0.0566427 3.80256e-06 -0.00180306)
(0.0562526 0.000353384 -0.00443431)
(0.0554324 0.000665504 -0.00681217)
(0.0542327 0.000793851 -0.00929875)
(0.0528271 0.000728265 -0.0119495)
(0.0513985 0.0005243 -0.0146925)
(0.050077 0.000271452 -0.0174499)
(0.0488827 6.06931e-05 -0.0202102)
(0.047708 -5.68414e-05 -0.0230582)
(0.0463379 -9.10191e-05 -0.0261994)
(0.0444809 -0.000134978 -0.0299715)
(0.0417977 -0.000358166 -0.0348308)
(0.0378614 -0.000995245 -0.041193)
(0.0317135 -0.00214435 -0.048555)
(0.0213716 -0.00338919 -0.0525035)
(0.00843215 -0.00318615 -0.0373116)
(0.0879717 0.000151941 -0.00141896)
(0.0876514 0.00066165 -0.00395172)
(0.0869288 0.00112804 -0.00655246)
(0.0857642 0.00134802 -0.00953275)
(0.0842042 0.00125025 -0.0129577)
(0.0823544 0.000898533 -0.0167103)
(0.0803502 0.000456417 -0.0206079)
(0.0782662 0.000115351 -0.0245021)
(0.0760489 2.04809e-05 -0.0283623)
(0.0734822 0.000213628 -0.0323312)
(0.0701916 0.000589928 -0.0367661)
(0.0656222 0.000912192 -0.0422463)
(0.0590321 0.000800366 -0.0494305)
(0.0489052 -0.000129958 -0.0580201)
(0.0321628 -0.0018539 -0.0627112)
(0.011839 -0.00285045 -0.0443016)
(0.114087 0.000250123 -0.00111885)
(0.113867 0.000873807 -0.00319619)
(0.113332 0.00146363 -0.00540645)
(0.112374 0.00181468 -0.00811345)
(0.110882 0.00180856 -0.0115096)
(0.108805 0.00148188 -0.0155658)
(0.106197 0.00101725 -0.0200845)
(0.103158 0.000676182 -0.0248065)
(0.0997373 0.000702278 -0.0295296)
(0.0958259 0.00123558 -0.0342282)
(0.0910986 0.00225412 -0.0391496)
(0.0849239 0.00355803 -0.0448667)
(0.0763451 0.00476425 -0.0522311)
(0.063444 0.00522682 -0.0614054)
(0.0418051 0.00397119 -0.067015)
(0.0150317 0.000451442 -0.0479689)
(0.134968 0.000321848 -0.000943499)
(0.134798 0.00102687 -0.00266743)
(0.134393 0.00171185 -0.00443849)
(0.133639 0.00221782 -0.00663319)
(0.132325 0.00242154 -0.00957439)
(0.130238 0.00232671 -0.0133995)
(0.127291 0.00208697 -0.0180183)
(0.123527 0.00196904 -0.0231574)
(0.119051 0.00227026 -0.0284893)
(0.113887 0.00323209 -0.0338082)
(0.107856 0.00496134 -0.039185)
(0.10038 0.00741102 -0.0450896)
(0.0904359 0.0103551 -0.052436)
(0.0759477 0.0131859 -0.0618647)
(0.0509982 0.0136827 -0.0683077)
(0.0185184 0.00699184 -0.0495203)
(0.150624 0.000382555 -0.000830024)
(0.150473 0.00116063 -0.00233532)
(0.150139 0.00192595 -0.00380814)
(0.149536 0.0025875 -0.00557472)
(0.148429 0.00305743 -0.00801204)
(0.146499 0.00332864 -0.0113953)
(0.143519 0.00351563 -0.0157758)
(0.13943 0.00384558 -0.0209499)
(0.134332 0.00460963 -0.0265507)
(0.128337 0.0061106 -0.0322369)
(0.121425 0.00857709 -0.0379072)
(0.113163 0.0121855 -0.0438849)
(0.102573 0.0170112 -0.0510203)
(0.0877165 0.0229392 -0.0603653)
(0.0611604 0.0268676 -0.0674244)
(0.0232529 0.0177285 -0.0491503)
(0.161058 0.000432779 -0.000747308)
(0.160921 0.0012776 -0.00210606)
(0.160639 0.00211097 -0.00339558)
(0.160157 0.00291169 -0.0048804)
(0.159254 0.00364976 -0.00693198)
(0.157569 0.00433467 -0.00989366)
(0.154787 0.0050509 -0.0139225)
(0.150765 0.00597134 -0.0188971)
(0.145573 0.00733706 -0.0244606)
(0.139368 0.00945076 -0.0301977)
(0.132284 0.0126241 -0.0358745)
(0.124063 0.0172841 -0.0416689)
(0.113909 0.0238894 -0.048267)
(0.100251 0.033486 -0.0570175)
(0.0750853 0.0434494 -0.0644199)
(0.0316544 0.0359764 -0.0464618)
(0.166273 0.000468782 -0.000684754)
(0.166156 0.00136256 -0.00193121)
(0.165935 0.00224366 -0.00309615)
(0.165577 0.00315497 -0.00440451)
(0.16488 0.00413109 -0.00620653)
(0.163479 0.00521286 -0.00886102)
(0.161033 0.00646659 -0.0125694)
(0.157365 0.00800391 -0.0172547)
(0.152544 0.00998816 -0.0225745)
(0.146769 0.0126739 -0.0280782)
(0.140342 0.0163887 -0.0334443)
(0.133204 0.0217556 -0.0387229)
(0.125114 0.0295435 -0.044369)
(0.114666 0.0423339 -0.0517262)
(0.0988704 0.0627767 -0.0593469)
(0.0495312 0.062735 -0.0404922)
(0.0214198 -0.000108733 -0.00146209)
(0.0211758 5.49378e-05 -0.00275526)
(0.0205704 0.000196419 -0.00370436)
(0.0196867 0.000263785 -0.0046446)
(0.0186799 0.000274552 -0.00564359)
(0.0176779 0.000238611 -0.00670219)
(0.016759 0.000169824 -0.00782034)
(0.0159342 7.65908e-05 -0.00901355)
(0.015145 -3.11197e-05 -0.0103291)
(0.0142828 -0.000156431 -0.011846)
(0.0132236 -0.000325048 -0.0136741)
(0.0118581 -0.000585707 -0.0159283)
(0.0100984 -0.000997189 -0.0186295)
(0.00774071 -0.00155108 -0.0213592)
(0.0045195 -0.00214757 -0.02224)
(0.00119784 -0.00220152 -0.0153242)
(0.059798 -2.30816e-05 -0.00165282)
(0.0593085 0.000289543 -0.00407969)
(0.0582999 0.000581552 -0.00625627)
(0.056824 0.000690932 -0.00852417)
(0.0550512 0.000599601 -0.0109555)
(0.0531574 0.000359974 -0.0134975)
(0.051263 6.35554e-05 -0.0160797)
(0.0493807 -0.000191918 -0.0186754)
(0.0473894 -0.00034577 -0.0213307)
(0.0450433 -0.000402828 -0.0241886)
(0.0420143 -0.000455962 -0.0274867)
(0.0379235 -0.000677273 -0.0315022)
(0.0323555 -0.00127913 -0.036334)
(0.024611 -0.00236481 -0.0410495)
(0.0141785 -0.00373272 -0.041471)
(0.00389303 -0.00381414 -0.0262163)
(0.0928938 0.000129533 -0.00128561)
(0.092481 0.000595124 -0.00359769)
(0.0915706 0.00103168 -0.00594833)
(0.0901221 0.00122412 -0.0086207)
(0.0881731 0.00108383 -0.0117017)
(0.0858056 0.00066666 -0.0151161)
(0.0831279 0.000139029 -0.01871)
(0.080197 -0.000287132 -0.0223402)
(0.0769395 -0.000444331 -0.0259424)
(0.0731123 -0.00027316 -0.0295888)
(0.068297 0.000124205 -0.0335151)
(0.0618995 0.000494381 -0.0381007)
(0.0531689 0.000456433 -0.043617)
(0.0408011 -0.000379925 -0.049166)
(0.0236758 -0.00219044 -0.0495475)
(0.00651148 -0.00349042 -0.0307114)
(0.120479 0.000237563 -0.00101063)
(0.120176 0.000827053 -0.00290466)
(0.119469 0.00139381 -0.00489367)
(0.118255 0.00172697 -0.00728885)
(0.116419 0.00168764 -0.0102863)
(0.113873 0.00129531 -0.0139034)
(0.110614 0.000732156 -0.0180018)
(0.106696 0.000282487 -0.0223555)
(0.102134 0.00023016 -0.0267525)
(0.0967953 0.000752248 -0.0311043)
(0.0903217 0.00184449 -0.0355282)
(0.0820424 0.00330111 -0.0403809)
(0.0709737 0.00470377 -0.0461029)
(0.0552656 0.00536921 -0.0520955)
(0.0327214 0.00411629 -0.0528671)
(0.0092294 0.000304227 -0.0328093)
(0.142535 0.000319315 -0.000850689)
(0.142289 0.0010074 -0.00243105)
(0.141721 0.00168347 -0.00403755)
(0.140731 0.0021898 -0.00597215)
(0.139122 0.00238668 -0.00852814)
(0.136645 0.00225641 -0.0118751)
(0.133135 0.00194447 -0.01599)
(0.128556 0.00173774 -0.0206678)
(0.122943 0.0019768 -0.0256055)
(0.116283 0.00295677 -0.0305459)
(0.108371 0.00482804 -0.0354371)
(0.0986105 0.00755991 -0.0405226)
(0.0859653 0.0109062 -0.0463017)
(0.0682666 0.0141591 -0.0525414)
(0.0418191 0.0148165 -0.0538226)
(0.0125183 0.00783223 -0.0334959)
(0.159071 0.000388581 -0.000747316)
(0.158852 0.00116834 -0.00213313)
(0.158362 0.00193997 -0.00348811)
(0.15753 0.0026191 -0.00505734)
(0.156156 0.0031085 -0.00715902)
(0.153905 0.00338402 -0.0100717)
(0.150469 0.00355164 -0.0139114)
(0.145681 0.00385085 -0.0185602)
(0.139533 0.00460984 -0.0237064)
(0.13207 0.00619027 -0.0289885)
(0.123248 0.00888456 -0.0341923)
(0.112628 0.0129185 -0.0394116)
(0.0992698 0.0183991 -0.0451017)
(0.0810326 0.0250872 -0.0513821)
(0.0523692 0.029469 -0.0531623)
(0.0173514 0.0200999 -0.0329567)
(0.170092 0.00044528 -0.000672405)
(0.169893 0.0013093 -0.00192532)
(0.169463 0.00216418 -0.00312559)
(0.168758 0.00299616 -0.00446105)
(0.167604 0.00377349 -0.00622857)
(0.165647 0.00449829 -0.00875033)
(0.162504 0.00525159 -0.0122347)
(0.157908 0.0062153 -0.016654)
(0.151798 0.00766125 -0.0217295)
(0.144238 0.00994531 -0.0270533)
(0.135327 0.0134496 -0.0322993)
(0.124816 0.0186783 -0.0374282)
(0.111988 0.0261956 -0.042776)
(0.0951342 0.0369898 -0.0487857)
(0.0672996 0.0478548 -0.0510772)
(0.0262276 0.0404687 -0.031066)
(0.1756 0.000486086 -0.000615949)
(0.175426 0.00141424 -0.00176633)
(0.175067 0.00233108 -0.00285827)
(0.174497 0.00328416 -0.00404556)
(0.173567 0.00431193 -0.00559887)
(0.171932 0.00545905 -0.00784331)
(0.169198 0.00679772 -0.0110214)
(0.165066 0.00845189 -0.0151511)
(0.159469 0.010608 -0.0199804)
(0.152499 0.0135627 -0.0250863)
(0.144421 0.017707 -0.0300803)
(0.135215 0.0237593 -0.0348266)
(0.124716 0.0326394 -0.0395035)
(0.111693 0.0471305 -0.0447479)
(0.0931423 0.0691458 -0.0479017)
(0.0445265 0.068617 -0.0274692)
(0.0223428 -0.000126647 -0.00129566)
(0.0220419 2.58291e-05 -0.00244239)
(0.0213359 0.000165686 -0.00327955)
(0.0203165 0.000230056 -0.00410773)
(0.0191407 0.000235973 -0.00499177)
(0.0179326 0.00019409 -0.00593451)
(0.0167716 0.000115844 -0.00693204)
(0.0156692 8.40911e-06 -0.00799148)
(0.0145639 -0.00011537 -0.00913956)
(0.0133432 -0.000255949 -0.0104238)
(0.0118812 -0.00043389 -0.0119056)
(0.0100781 -0.000687773 -0.0136294)
(0.00788525 -0.00106017 -0.0155277)
(0.005263 -0.00154993 -0.0171572)
(0.00239999 -0.00213149 -0.0170154)
(6.26674e-05 -0.0021788 -0.0110507)
(0.0624252 -4.6206e-05 -0.00144214)
(0.0618458 0.00023327 -0.00356968)
(0.0606686 0.00050659 -0.00546514)
(0.058949 0.000597601 -0.00743186)
(0.0568621 0.000480894 -0.00954663)
(0.0545729 0.000204282 -0.0117734)
(0.0521982 -0.000135499 -0.0140538)
(0.0497467 -0.000436946 -0.0163478)
(0.0470896 -0.000628983 -0.0186717)
(0.0439709 -0.000708431 -0.0211114)
(0.040059 -0.000760752 -0.0238131)
(0.0350006 -0.000949452 -0.0269237)
(0.0284737 -0.00146283 -0.0303649)
(0.020123 -0.00240356 -0.0331693)
(0.010339 -0.00369046 -0.0319714)
(0.00195652 -0.00379518 -0.018973)
(0.0969946 0.000111293 -0.00111105)
(0.0964998 0.000538847 -0.00312191)
(0.0954224 0.000948614 -0.00515049)
(0.0937231 0.00111566 -0.00743884)
(0.0914401 0.000937445 -0.0100798)
(0.0886361 0.000458979 -0.0130275)
(0.0854003 -0.000149978 -0.0161607)
(0.0817708 -0.000661229 -0.0193494)
(0.0776635 -0.000883933 -0.0225101)
(0.0728261 -0.000739254 -0.0256579)
(0.0668348 -0.000317168 -0.0289254)
(0.059122 0.000132625 -0.0325296)
(0.0490365 0.000238453 -0.0365186)
(0.0356674 -0.000388958 -0.0398597)
(0.0191224 -0.00206853 -0.0382641)
(0.00423581 -0.00345343 -0.022082)
(0.125805 0.000228175 -0.000870605)
(0.12543 0.000789225 -0.00251628)
(0.124571 0.00133592 -0.00422911)
(0.123128 0.001654 -0.00626196)
(0.120993 0.0015872 -0.00879293)
(0.118048 0.00113775 -0.0118669)
(0.114253 0.000484433 -0.0153918)
(0.109617 -6.94922e-05 -0.0191828)
(0.104129 -0.00020535 -0.0230358)
(0.0976435 0.000295634 -0.026823)
(0.0898082 0.00145069 -0.0305627)
(0.0799824 0.00306139 -0.0344412)
(0.0672707 0.00469955 -0.0386356)
(0.0501643 0.0056521 -0.0423045)
(0.0279139 0.00457415 -0.0408003)
(0.00678174 0.000616794 -0.0233922)
(0.14884 0.00031863 -0.000731772)
(0.14853 0.000994004 -0.00210902)
(0.147821 0.00166271 -0.00350213)
(0.146616 0.00217092 -0.00514353)
(0.14474 0.0023652 -0.00728018)
(0.141926 0.0022074 -0.0100827)
(0.137953 0.00183378 -0.01357)
(0.132715 0.00154339 -0.0175984)
(0.126192 0.00171457 -0.0219047)
(0.118338 0.00269431 -0.0262172)
(0.108958 0.00467616 -0.0304006)
(0.0975001 0.00765119 -0.0345301)
(0.0830288 0.0113628 -0.0388277)
(0.0636175 0.0150282 -0.0427244)
(0.0370986 0.0159373 -0.0415183)
(0.0100696 0.00874855 -0.0237114)
(0.166109 0.000395172 -0.000642317)
(0.165833 0.00117908 -0.00185223)
(0.16521 0.00195729 -0.00303909)
(0.164171 0.00265347 -0.00438195)
(0.162548 0.00316389 -0.00613312)
(0.160006 0.00345015 -0.00854283)
(0.15619 0.00360458 -0.0117536)
(0.150844 0.00387405 -0.015713)
(0.14387 0.0046186 -0.0201713)
(0.135252 0.00624799 -0.0247824)
(0.124945 0.00911445 -0.0292686)
(0.112566 0.0134877 -0.0335675)
(0.0973067 0.0194894 -0.0378652)
(0.0771724 0.0267788 -0.041882)
(0.0480315 0.0315642 -0.0410767)
(0.0150672 0.021956 -0.0232485)
(0.177619 0.000457577 -0.000577811)
(0.177369 0.0013414 -0.00167193)
(0.176815 0.00221715 -0.00273089)
(0.175909 0.00307881 -0.00388622)
(0.174518 0.00389452 -0.00536251)
(0.172304 0.00465997 -0.00743405)
(0.168849 0.00545001 -0.0103171)
(0.1638 0.00645135 -0.0140448)
(0.156983 0.00795801 -0.0184143)
(0.148374 0.0103695 -0.0230562)
(0.138053 0.0141257 -0.027606)
(0.125827 0.0197901 -0.0318868)
(0.111142 0.0279835 -0.0359981)
(0.0924044 0.0396122 -0.0399622)
(0.0636663 0.0510935 -0.0397165)
(0.0242965 0.043579 -0.0220109)
(0.183371 0.000502766 -0.000529293)
(0.183151 0.00146415 -0.00153396)
(0.182677 0.00241547 -0.00250125)
(0.181918 0.00340874 -0.00353589)
(0.180765 0.00448595 -0.00483669)
(0.178902 0.00569439 -0.00667274)
(0.175914 0.0071099 -0.00928385)
(0.171419 0.00886487 -0.012744)
(0.165235 0.0111624 -0.0168835)
(0.157355 0.0143314 -0.0213336)
(0.148014 0.018809 -0.0256906)
(0.137246 0.0253779 -0.029709)
(0.125048 0.0350413 -0.0333833)
(0.110398 0.0506307 -0.0369878)
(0.0907151 0.0735811 -0.0377969)
(0.0427869 0.072374 -0.019755)
(0.0230793 -0.000142207 -0.00107223)
(0.0227286 -8.72248e-08 -0.00202133)
(0.0219361 0.000138866 -0.00271124)
(0.0208024 0.000200528 -0.00339236)
(0.0194855 0.000203137 -0.00412135)
(0.0181099 0.000156677 -0.00490225)
(0.0167549 6.67229e-05 -0.00572846)
(0.0154342 -5.39767e-05 -0.00660142)
(0.0140889 -0.000192204 -0.00753267)
(0.0126099 -0.000345413 -0.00854591)
(0.0108799 -0.000528404 -0.00966895)
(0.0088209 -0.00077075 -0.0109064)
(0.00642867 -0.00110179 -0.0121648)
(0.0037819 -0.00152399 -0.0130686)
(0.00128486 -0.00205064 -0.0125301)
(-0.000432916 -0.002074 -0.00787001)
(0.0645255 -6.51433e-05 -0.00117916)
(0.0638693 0.000186228 -0.00292546)
(0.0625495 0.000443944 -0.00447252)
(0.0606264 0.000519135 -0.00607152)
(0.0582795 0.000379414 -0.00779272)
(0.0556695 7.21221e-05 -0.00961487)
(0.0529107 -0.000308072 -0.0114892)
(0.050012 -0.000652053 -0.0133745)
(0.046842 -0.000879529 -0.0152668)
(0.0431472 -0.000978147 -0.0172088)
(0.0386102 -0.00102361 -0.0192806)
(0.0329244 -0.00116752 -0.0215444)
(0.0258729 -0.00157708 -0.0238624)
(0.0173619 -0.00235705 -0.0254117)
(0.00822662 -0.00350743 -0.0237182)
(0.00107442 -0.00360966 -0.0135845)
(0.100275 9.71281e-05 -0.000901647)
(0.0997112 0.000493721 -0.00254214)
(0.0984934 0.000881192 -0.00418747)
(0.0965832 0.00102741 -0.00603091)
(0.0940244 0.000817144 -0.00815679)
(0.0908681 0.000285888 -0.0105408)
(0.0871866 -0.000393062 -0.0130929)
(0.0830081 -0.000980959 -0.0157026)
(0.0782423 -0.00126479 -0.0182841)
(0.0726387 -0.00114499 -0.020817)
(0.0657882 -0.000696977 -0.0233632)
(0.0571761 -0.000159247 -0.0260293)
(0.0462743 0.000109326 -0.0287614)
(0.0324999 -0.000285178 -0.0306441)
(0.0166011 -0.00177202 -0.0284663)
(0.00320711 -0.00320352 -0.0157821)
(0.130065 0.000221389 -0.000704615)
(0.129632 0.000759977 -0.00204588)
(0.128646 0.00129026 -0.00343377)
(0.12701 0.00159668 -0.00506195)
(0.124623 0.00150934 -0.00707848)
(0.121355 0.00101306 -0.00953534)
(0.117132 0.00028416 -0.012375)
(0.111935 -0.000361127 -0.0154564)
(0.10573 -0.00057359 -0.0186014)
(0.0983719 -9.7549e-05 -0.0216709)
(0.0895277 0.00110891 -0.0246269)
(0.0786164 0.00286033 -0.0275467)
(0.0648621 0.00472665 -0.0304655)
(0.0470777 0.00596858 -0.0325857)
(0.0252971 0.00511231 -0.0303719)
(0.00570483 0.0010521 -0.0166563)
(0.153883 0.000318918 -0.0005916)
(0.153522 0.000985269 -0.00171582)
(0.152696 0.00164819 -0.00285078)
(0.15131 0.00215891 -0.0041672)
(0.149206 0.00235338 -0.0058586)
(0.14611 0.00217755 -0.00807301)
(0.141768 0.00175473 -0.0108508)
(0.136018 0.00139319 -0.0140969)
(0.128797 0.00150054 -0.0175968)
(0.120039 0.00246851 -0.0211035)
(0.109567 0.00453201 -0.024446)
(0.0969035 0.00770396 -0.0276033)
(0.0812376 0.0117216 -0.0306421)
(0.0609157 0.0157454 -0.0329588)
(0.0346208 0.0169128 -0.0309229)
(0.00905404 0.00956458 -0.016825)
(0.171739 0.000401399 -0.000519026)
(0.171417 0.00119054 -0.00150724)
(0.170686 0.00197491 -0.00248069)
(0.169473 0.00268606 -0.00356594)
(0.167635 0.00321693 -0.00495131)
(0.164844 0.00351657 -0.00683991)
(0.160717 0.00366407 -0.00937081)
(0.154939 0.00390915 -0.0125313)
(0.147339 0.00463455 -0.0161365)
(0.137856 0.00629097 -0.0198855)
(0.12645 0.00928054 -0.0234948)
(0.112814 0.0139094 -0.026826)
(0.0962848 0.0203056 -0.0299161)
(0.0750801 0.0280522 -0.0323823)
(0.045878 0.0331731 -0.0306606)
(0.0142076 0.0233595 -0.0164948)
(0.18364 0.000468589 -0.000466906)
(0.183349 0.00137076 -0.00136029)
(0.182695 0.00226511 -0.0022325)
(0.181624 0.00315263 -0.00317405)
(0.180025 0.00400269 -0.00434628)
(0.177584 0.00480543 -0.00596347)
(0.173869 0.00562952 -0.00821815)
(0.168468 0.00666232 -0.0111711)
(0.161123 0.00821347 -0.0146855)
(0.151739 0.0107156 -0.0184548)
(0.140382 0.0146531 -0.0221329)
(0.126927 0.0206331 -0.0254901)
(0.110978 0.0293064 -0.0284992)
(0.0911238 0.0415094 -0.031026)
(0.0620155 0.0534295 -0.0298108)
(0.0236958 0.0457802 -0.0157121)
(0.189588 0.000517545 -0.000427747)
(0.189329 0.00150846 -0.00124794)
(0.188765 0.00249025 -0.0020464)
(0.187851 0.00351896 -0.00289409)
(0.186503 0.00463971 -0.00393034)
(0.184435 0.00590173 -0.00536076)
(0.181228 0.00738288 -0.00739224)
(0.176451 0.00922055 -0.0101189)
(0.169836 0.011629 -0.013436)
(0.161293 0.0149597 -0.0170477)
(0.15103 0.019682 -0.0205865)
(0.139135 0.0266201 -0.0237758)
(0.125759 0.0368209 -0.0265189)
(0.110083 0.0531173 -0.0289149)
(0.0898508 0.0766765 -0.0286696)
(0.0422983 0.074956 -0.0142508)
(0.0236306 -0.000154732 -0.000801304)
(0.0232395 -2.19106e-05 -0.00151121)
(0.0223784 0.000117034 -0.00202499)
(0.0211554 0.000176344 -0.00253134)
(0.0197302 0.000175562 -0.00307436)
(0.0182271 0.000123792 -0.00365677)
(0.0167269 2.50626e-05 -0.00427363)
(0.0152467 -0.000106633 -0.00492199)
(0.013732 -0.000256781 -0.00560477)
(0.0120796 -0.000419844 -0.00633105)
(0.0101836 -0.000605781 -0.00710968)
(0.00798695 -0.000836514 -0.0079292)
(0.00551927 -0.00113209 -0.00870641)
(0.00292732 -0.00149751 -0.00916865)
(0.000704543 -0.00197075 -0.00859648)
(-0.000647702 -0.00197913 -0.0052942)
(0.0660992 -7.96132e-05 -0.000873196)
(0.0653825 0.000149415 -0.00217081)
(0.0639508 0.000395175 -0.00331578)
(0.0618692 0.000458136 -0.00449501)
(0.0593225 0.000300988 -0.00576603)
(0.0564699 -3.24129e-05 -0.00711454)
(0.0534247 -0.000445738 -0.00850511)
(0.0501974 -0.000824992 -0.00990328)
(0.0466586 -0.00108199 -0.011296)
(0.042562 -0.0011958 -0.0126993)
(0.03761 -0.0012335 -0.0141514)
(0.0315409 -0.00133358 -0.0156702)
(0.0242207 -0.00165036 -0.0171247)
(0.0157206 -0.00229177 -0.0179118)
(0.00707727 -0.00331584 -0.0163683)
(0.000673822 -0.00341926 -0.00918234)
(0.102734 8.68229e-05 -0.000663951)
(0.102117 0.000460123 -0.00187773)
(0.10079 0.000830391 -0.00309022)
(0.0987162 0.000960892 -0.00444136)
(0.0959438 0.000725817 -0.00599624)
(0.0925195 0.000154098 -0.00774736)
(0.0885061 -0.000580817 -0.00962946)
(0.0839239 -0.00123116 -0.0115595)
(0.0786809 -0.00156564 -0.0134648)
(0.0725327 -0.00146641 -0.0153121)
(0.0650935 -0.000994799 -0.0171222)
(0.055899 -0.000379395 -0.0189381)
(0.0445239 3.33727e-05 -0.0206821)
(0.0306109 -0.000158322 -0.021667)
(0.015223 -0.00146892 -0.0197015)
(0.00274981 -0.00294252 -0.0106716)
(0.13326 0.000216773 -0.000517736)
(0.132781 0.00073891 -0.00150923)
(0.131697 0.00125686 -0.00253144)
(0.12991 0.00155507 -0.00372043)
(0.127328 0.00145232 -0.00518638)
(0.123812 0.000922161 -0.00697421)
(0.11927 0.000135344 -0.00905166)
(0.113661 -0.000583066 -0.0113193)
(0.106938 -0.000858514 -0.0136398)
(0.098956 -0.000406343 -0.0158918)
(0.0894089 0.000840041 -0.0180185)
(0.0777733 0.00270472 -0.0200398)
(0.0633812 0.00476082 -0.0219327)
(0.0452744 0.00624664 -0.0230799)
(0.0238878 0.00558842 -0.0210446)
(0.00523594 0.00144414 -0.0112465)
(0.157665 0.000319641 -0.000434302)
(0.157264 0.000980061 -0.0012659)
(0.156349 0.00163886 -0.00210494)
(0.154822 0.00215217 -0.00306776)
(0.152538 0.00234924 -0.00429224)
(0.149225 0.00216226 -0.00589104)
(0.144603 0.00170353 -0.00790624)
(0.138479 0.00128716 -0.0102799)
(0.130755 0.00134074 -0.0128545)
(0.121353 0.00229213 -0.0154338)
(0.110119 0.00441126 -0.0178598)
(0.0966408 0.00773093 -0.0200753)
(0.0802203 0.0119832 -0.0220771)
(0.0594111 0.0162877 -0.0233765)
(0.0333459 0.0176731 -0.021448)
(0.00865656 0.0102042 -0.0113484)
(0.175961 0.000406631 -0.000380888)
(0.175604 0.0012009 -0.00111194)
(0.174791 0.00199055 -0.00183458)
(0.173443 0.00271373 -0.00263293)
(0.171435 0.00326207 -0.00363645)
(0.168447 0.00357495 -0.00499305)
(0.164083 0.00372003 -0.00681517)
(0.157987 0.00394773 -0.0091094)
(0.149939 0.00465435 -0.0117505)
(0.139846 0.00632341 -0.014508)
(0.127675 0.00939483 -0.0171421)
(0.113185 0.0142037 -0.0195064)
(0.0958363 0.020881 -0.0215744)
(0.0740213 0.0289572 -0.0230105)
(0.0448528 0.0343367 -0.0213099)
(0.0139349 0.0243659 -0.0111392)
(0.188155 0.000477527 -0.000342654)
(0.187832 0.00139496 -0.00100329)
(0.187104 0.00230442 -0.00165229)
(0.185906 0.00321251 -0.00234896)
(0.184144 0.00409035 -0.00320115)
(0.181519 0.00492395 -0.00436031)
(0.1776 0.00577672 -0.00597458)
(0.171939 0.00683409 -0.00810602)
(0.16422 0.00841652 -0.01067)
(0.154295 0.0109794 -0.0134393)
(0.142221 0.0150389 -0.0161334)
(0.127929 0.0212339 -0.0185392)
(0.11115 0.0302316 -0.0205847)
(0.0906301 0.0428198 -0.0221143)
(0.0613435 0.0550524 -0.0208041)
(0.0236087 0.0473017 -0.010662)
(0.19425 0.00052945 -0.000313953)
(0.193962 0.00154422 -0.000920346)
(0.19333 0.00255055 -0.00151515)
(0.192298 0.00360763 -0.00214459)
(0.190796 0.00476329 -0.00290009)
(0.188561 0.0060681 -0.00392453)
(0.185179 0.00760102 -0.00537392)
(0.180193 0.00950187 -0.00733447)
(0.173275 0.011992 -0.00974767)
(0.164275 0.0154373 -0.0123999)
(0.153377 0.0203277 -0.0150008)
(0.140712 0.0275148 -0.0173078)
(0.12655 0.0380674 -0.019203)
(0.110231 0.0548103 -0.0207096)
(0.0897057 0.0787786 -0.0201386)
(0.0422884 0.0767155 -0.00972859)
(0.0239961 -0.00016304 -0.000492064)
(0.0235774 -3.62564e-05 -0.000928931)
(0.0226695 0.000101363 -0.00124309)
(0.0213849 0.000158297 -0.00155211)
(0.0198862 0.000152855 -0.00188406)
(0.0182977 9.68134e-05 -0.00224024)
(0.0167013 -8.84152e-06 -0.00261762)
(0.0151174 -0.000149326 -0.00301297)
(0.0134956 -0.000308782 -0.00342577)
(0.0117383 -0.000479339 -0.00385814)
(0.00974891 -0.00066748 -0.00431095)
(0.00748529 -0.000890127 -0.004772)
(0.00499778 -0.00116122 -0.00518685)
(0.00246672 -0.00148697 -0.00539467)
(0.000418202 -0.001922 -0.00499065)
(-0.000734011 -0.0019213 -0.00304002)
(0.0671467 -8.90754e-05 -0.000532333)
(0.0663876 0.00012479 -0.00132701)
(0.0648794 0.000361782 -0.00202554)
(0.0626886 0.000415831 -0.00274254)
(0.0600072 0.000246692 -0.0035165)
(0.0569925 -0.000106141 -0.00433805)
(0.0537574 -0.000543636 -0.00518671)
(0.050315 -0.000948738 -0.0060397)
(0.0465394 -0.00122752 -0.00688494)
(0.0421913 -0.0013525 -0.00772595)
(0.0369894 -0.0013841 -0.0085777)
(0.0307051 -0.0014519 -0.00944132)
(0.0232588 -0.0017021 -0.0102282)
(0.0148112 -0.00224617 -0.0105796)
(0.00648533 -0.00317968 -0.00954788)
(0.000503215 -0.00328694 -0.00529429)
(0.104371 8.02477e-05 -0.000403126)
(0.103717 0.000437899 -0.00114446)
(0.102315 0.000796937 -0.00188209)
(0.100131 0.000916993 -0.00270075)
(0.0972137 0.000666327 -0.00364147)
(0.0936085 6.6565e-05 -0.00470348)
(0.089375 -0.000707576 -0.0058476)
(0.0845283 -0.00140215 -0.00702289)
(0.0789766 -0.00177321 -0.00818136)
(0.0724818 -0.00168929 -0.00929558)
(0.0646774 -0.00120117 -0.0103681)
(0.0551373 -0.000529204 -0.0114131)
(0.0435065 -1.20034e-05 -0.0123703)
(0.0295606 -5.92469e-05 -0.0128245)
(0.01451 -0.00124241 -0.0115172)
(0.00255984 -0.00274334 -0.0061566)
(0.135388 0.000214012 -0.000313907)
(0.134878 0.000725578 -0.000919097)
(0.133728 0.00123572 -0.0015406)
(0.131838 0.00152937 -0.00225906)
(0.129122 0.00141687 -0.00314198)
(0.125439 0.000865259 -0.00421981)
(0.120684 3.9443e-05 -0.0054761)
(0.114804 -0.000729726 -0.00685232)
(0.107745 -0.00105037 -0.00826312)
(0.0993651 -0.000616867 -0.00962733)
(0.0893764 0.000655316 -0.0108991)
(0.0773011 0.00259849 -0.012076)
(0.0625457 0.00478822 -0.0131279)
(0.0442922 0.00644667 -0.0136765)
(0.0231771 0.00593005 -0.0123146)
(0.00505983 0.00172914 -0.0064791)
(0.160185 0.000320401 -0.000263205)
(0.159757 0.00097742 -0.000771035)
(0.158782 0.0016338 -0.00128228)
(0.157159 0.00214957 -0.00186447)
(0.154752 0.00234958 -0.0026001)
(0.151289 0.00215687 -0.0035587)
(0.14648 0.00167554 -0.00477038)
(0.14011 0.00122224 -0.00620446)
(0.132062 0.00123786 -0.00776665)
(0.122249 0.00217419 -0.00933165)
(0.110535 0.00432711 -0.0107911)
(0.0965557 0.00774368 -0.0120943)
(0.0796932 0.0121532 -0.013221)
(0.0586308 0.016649 -0.0138653)
(0.0327327 0.0181871 -0.0125633)
(0.0085325 0.0106336 -0.00653917)
(0.178775 0.000410386 -0.000230802)
(0.178393 0.00120872 -0.00067733)
(0.177526 0.00200227 -0.00111879)
(0.176088 0.00273399 -0.00160325)