/*--------------------------------*- C++ -*----------------------------------*\
| =========                 |                                                 |
| \\      /  F ield         | foam-extend: Open Source CFD                    |
|  \\    /   O peration     | Version:     3.1                                |
|   \\  /    A nd           | Web:         http://www.extend-project.de       |
|    \\/     M anipulation  |                                                 |
\*---------------------------------------------------------------------------*/
FoamFile
{
    version     2.0;
    format      ascii;
    class       volVectorField;
    location    "3.5";
    object      cellMotionU;
}
// * * * * * * * * * * * * * * * * * * * * * * * * * * * * * * * * * * * * * //

dimensions      [0 1 -1 0 0 0 0];

internalField   nonuniform List<vector> 
14592
(
(-2.08207e-13 -2.42434e-13 4.56286e-13)
(-6.07177e-13 -7.10232e-13 1.34275e-12)
(-9.82588e-13 -1.16095e-12 2.20995e-12)
(-1.35347e-12 -1.61773e-12 3.11364e-12)
(-1.73879e-12 -2.10422e-12 4.10102e-12)
(-2.15891e-12 -2.64377e-12 5.21144e-12)
(-2.6366e-12 -3.25665e-12 6.47433e-12)
(-3.19941e-12 -3.97188e-12 7.90291e-12)
(-3.87954e-12 -4.80864e-12 9.48152e-12)
(-4.71603e-12 -5.78634e-12 1.11434e-11)
(-5.75604e-12 -6.90424e-12 1.27352e-11)
(-7.05912e-12 -8.11016e-12 1.39648e-11)
(-8.71692e-12 -9.26036e-12 1.43416e-11)
(-1.09062e-11 -1.00379e-11 1.31493e-11)
(-1.39654e-11 -9.9522e-12 9.64191e-12)
(-1.78461e-11 -8.81819e-12 4.46417e-12)
(-6.16037e-13 -7.13106e-13 1.35579e-12)
(-1.79645e-12 -2.09375e-12 3.99002e-12)
(-2.90536e-12 -3.41625e-12 6.56778e-12)
(-3.99858e-12 -4.75809e-12 9.2552e-12)
(-5.13082e-12 -6.1859e-12 1.21939e-11)
(-6.35991e-12 -7.75985e-12 1.55041e-11)
(-7.75142e-12 -9.54832e-12 1.92798e-11)
(-9.38272e-12 -1.16264e-11 2.35735e-11)
(-1.13437e-11 -1.4052e-11 2.83637e-11)
(-1.3743e-11 -1.68963e-11 3.34981e-11)
(-1.67028e-11 -2.01544e-11 3.86022e-11)
(-2.03678e-11 -2.37419e-11 4.29506e-11)
(-2.49217e-11 -2.73226e-11 4.53281e-11)
(-3.06582e-11 -3.01513e-11 4.40235e-11)
(-3.80367e-11 -3.09616e-11 3.74876e-11)
(-4.64146e-11 -2.88822e-11 2.77242e-11)
(-1.00247e-12 -1.15062e-12 2.22358e-12)
(-2.92117e-12 -3.36908e-12 6.54386e-12)
(-4.71892e-12 -5.49616e-12 1.07719e-11)
(-6.48291e-12 -7.647e-12 1.5182e-11)
(-8.29801e-12 -9.92387e-12 2.00106e-11)
(-1.02524e-11 -1.24174e-11 2.54645e-11)
(-1.24468e-11 -1.52494e-11 3.17173e-11)
(-1.49929e-11 -1.84934e-11 3.88927e-11)
(-1.80256e-11 -2.2286e-11 4.70272e-11)
(-2.1694e-11 -2.66942e-11 5.60015e-11)
(-2.61646e-11 -3.17964e-11 6.54332e-11)
(-3.16024e-11 -3.75338e-11 7.45258e-11)
(-3.81643e-11 -4.36433e-11 8.19228e-11)
(-4.60093e-11 -4.94097e-11 8.57629e-11)
(-5.52981e-11 -5.34315e-11 8.45502e-11)
(-6.49325e-11 -5.38784e-11 8.02409e-11)
(-1.35542e-12 -1.53073e-12 3.04035e-12)
(-3.94652e-12 -4.48182e-12 8.94747e-12)
(-6.36474e-12 -7.30614e-12 1.47281e-11)
(-8.72163e-12 -1.01495e-11 2.07598e-11)
(-1.11237e-11 -1.31334e-11 2.7373e-11)
(-1.36814e-11 -1.63873e-11 3.48657e-11)
(-1.65147e-11 -2.00258e-11 4.35074e-11)
(-1.97581e-11 -2.4171e-11 5.35304e-11)
(-2.35653e-11 -2.89431e-11 6.51031e-11)
(-2.81067e-11 -3.44635e-11 7.82806e-11)
(-3.35589e-11 -4.08149e-11 9.29229e-11)
(-4.00882e-11 -4.80624e-11 1.08584e-10)
(-4.78219e-11 -5.61431e-11 1.24402e-10)
(-5.68604e-11 -6.4771e-11 1.39128e-10)
(-6.73436e-11 -7.30716e-11 1.51606e-10)
(-7.83463e-11 -7.85014e-11 1.61203e-10)
(-1.66634e-12 -1.84173e-12 3.78893e-12)
(-4.8472e-12 -5.39224e-12 1.11494e-11)
(-7.80081e-12 -8.77525e-12 1.835e-11)
(-1.06552e-11 -1.21615e-11 2.58626e-11)
(-1.35294e-11 -1.56831e-11 3.41063e-11)
(-1.65464e-11 -1.94963e-11 4.34702e-11)
(-1.98302e-11 -2.36789e-11 5.43276e-11)
(-2.35242e-11 -2.83906e-11 6.70437e-11)
(-2.77793e-11 -3.36921e-11 8.19718e-11)
(-3.27657e-11 -3.96935e-11 9.94457e-11)
(-3.86592e-11 -4.64622e-11 1.19763e-10)
(-4.56367e-11 -5.40581e-11 1.43166e-10)
(-5.38787e-11 -6.25496e-11 1.69822e-10)
(-6.36352e-11 -7.20209e-11 1.99785e-10)
(-7.5361e-11 -8.23418e-11 2.32616e-10)
(-8.83637e-11 -9.11429e-11 2.63316e-10)
(-1.92988e-12 -2.07349e-12 4.4542e-12)
(-5.60729e-12 -6.06216e-12 1.31055e-11)
(-9.00288e-12 -9.85455e-12 2.15618e-11)
(-1.22514e-11 -1.3618e-11 3.03769e-11)
(-1.54781e-11 -1.7508e-11 4.00473e-11)
(-1.88036e-11 -2.16356e-11 5.10433e-11)
(-2.2353e-11 -2.61267e-11 6.38361e-11)
(-2.62537e-11 -3.10243e-11 7.89204e-11)
(-3.06479e-11 -3.64041e-11 9.68423e-11)
(-3.56845e-11 -4.22488e-11 1.18237e-10)
(-4.1531e-11 -4.85067e-11 1.43898e-10)
(-4.83922e-11 -5.50604e-11 1.74886e-10)
(-5.65764e-11 -6.17335e-11 2.12685e-10)
(-6.66848e-11 -6.84217e-11 2.59224e-10)
(-7.98232e-11 -7.52706e-11 3.15588e-10)
(-9.55917e-11 -8.16662e-11 3.72139e-10)
(-2.1441e-12 -2.21911e-12 5.02522e-12)
(-6.2221e-12 -6.48249e-12 1.47816e-11)
(-9.96435e-12 -1.05197e-11 2.43047e-11)
(-1.35052e-11 -1.44937e-11 3.42126e-11)
(-1.6969e-11 -1.85675e-11 4.50619e-11)
(-2.04674e-11 -2.28219e-11 5.73853e-11)
(-2.4113e-11 -2.73437e-11 7.17277e-11)
(-2.80164e-11 -3.21515e-11 8.86823e-11)
(-3.22918e-11 -3.7209e-11 1.08939e-10)
(-3.70607e-11 -4.23866e-11 1.33361e-10)
(-4.24712e-11 -4.74343e-11 1.63114e-10)
(-4.87401e-11 -5.18546e-11 1.999e-10)
(-5.63079e-11 -5.4862e-11 2.46335e-10)
(-6.61957e-11 -5.5285e-11 3.06319e-10)
(-8.04861e-11 -5.19335e-11 3.83578e-10)
(-9.97956e-11 -4.5889e-11 4.66185e-10)
(-2.30982e-12 -2.27524e-12 5.49476e-12)
(-6.69605e-12 -6.65382e-12 1.61568e-11)
(-1.06941e-11 -1.07698e-11 2.65422e-11)
(-1.44356e-11 -1.48079e-11 3.7313e-11)
(-1.80333e-11 -1.88785e-11 4.90637e-11)
(-2.15909e-11 -2.30838e-11 6.23634e-11)
(-2.52012e-11 -2.74463e-11 7.7794e-11)
(-2.89522e-11 -3.19353e-11 9.59924e-11)
(-3.29283e-11 -3.64332e-11 1.17705e-10)
(-3.72177e-11 -4.06972e-11 1.43868e-10)
(-4.19281e-11 -4.4257e-11 1.75748e-10)
(-4.72495e-11 -4.6309e-11 2.15186e-10)
(-5.3622e-11 -4.54445e-11 2.65053e-10)
(-6.21872e-11 -3.92263e-11 3.30015e-10)
(-7.56565e-11 -2.38462e-11 4.16653e-10)
(-9.66579e-11 2.16214e-12 5.19753e-10)
(-2.05055e-13 -2.68028e-13 4.32801e-13)
(-5.98036e-13 -7.86766e-13 1.27283e-12)
(-9.67755e-13 -1.28741e-12 2.09238e-12)
(-1.33346e-12 -1.80182e-12 2.94267e-12)
(-1.71422e-12 -2.35686e-12 3.86615e-12)
(-2.13072e-12 -2.98086e-12 4.89658e-12)
(-2.60682e-12 -3.70484e-12 6.05616e-12)
(-3.17067e-12 -4.56064e-12 7.34842e-12)
(-3.85609e-12 -5.58423e-12 8.74455e-12)
(-4.70235e-12 -6.80461e-12 1.01601e-11)
(-5.75324e-12 -8.23229e-12 1.14194e-11)
(-7.05522e-12 -9.83051e-12 1.2207e-11)
(-8.65628e-12 -1.14526e-11 1.20215e-11)
(-1.0608e-11 -1.2765e-11 1.01918e-11)
(-1.29247e-11 -1.32245e-11 6.18159e-12)
(-1.51673e-11 -1.25383e-11 1.0414e-12)
(-6.06499e-13 -7.89891e-13 1.28609e-12)
(-1.76812e-12 -2.3146e-12 3.78258e-12)
(-2.85966e-12 -3.78973e-12 6.21903e-12)
(-3.93636e-12 -5.3001e-12 8.74815e-12)
(-5.05314e-12 -6.92705e-12 1.14976e-11)
(-6.26906e-12 -8.75396e-12 1.4571e-11)
(-7.65125e-12 -1.08667e-11 1.8041e-11)
(-9.27831e-12 -1.33586e-11 2.19313e-11)
(-1.12432e-11 -1.63353e-11 2.61806e-11)
(-1.36499e-11 -1.98831e-11 3.05823e-11)
(-1.66078e-11 -2.4069e-11 3.4691e-11)
(-2.02087e-11 -2.88345e-11 3.76974e-11)
(-2.44859e-11 -3.38891e-11 3.83175e-11)
(-2.93183e-11 -3.84921e-11 3.4869e-11)
(-3.41654e-11 -4.13735e-11 2.61251e-11)
(-3.73799e-11 -4.15536e-11 1.48274e-11)
(-9.85713e-13 -1.27089e-12 2.10958e-12)
(-2.87217e-12 -3.73053e-12 6.20478e-12)
(-4.63888e-12 -6.09952e-12 1.0202e-11)
(-6.37226e-12 -8.51952e-12 1.43538e-11)
(-8.15678e-12 -1.11175e-11 1.88742e-11)
(-1.00818e-11 -1.40218e-11 2.39429e-11)
(-1.22458e-11 -1.73531e-11 2.96987e-11)
(-1.47639e-11 -2.12761e-11 3.62182e-11)
(-1.77637e-11 -2.59253e-11 4.34712e-11)
(-2.13846e-11 -3.14856e-11 5.12449e-11)
(-2.57489e-11 -3.80779e-11 5.90255e-11)
(-3.09124e-11 -4.57754e-11 6.5841e-11)
(-3.67388e-11 -5.44191e-11 7.01184e-11)
(-4.26495e-11 -6.34359e-11 6.97748e-11)
(-4.71579e-11 -7.15776e-11 6.32024e-11)
(-4.779e-11 -7.68496e-11 5.29957e-11)
(-1.33092e-12 -1.69436e-12 2.8851e-12)
(-3.87424e-12 -4.9662e-12 8.48568e-12)
(-6.2454e-12 -8.11115e-12 1.39524e-11)
(-8.55383e-12 -1.13092e-11 1.96337e-11)
(-1.09048e-11 -1.47246e-11 2.58297e-11)
(-1.34059e-11 -1.85052e-11 3.2802e-11)
(-1.61743e-11 -2.28234e-11 4.07737e-11)
(-1.93376e-11 -2.78353e-11 4.99122e-11)
(-2.30354e-11 -3.37491e-11 6.02941e-11)
(-2.74013e-11 -4.07511e-11 7.18387e-11)
(-3.25328e-11 -4.90895e-11 8.4205e-11)
(-3.84021e-11 -5.8974e-11 9.66421e-11)
(-4.46851e-11 -7.05906e-11 1.0782e-10)
(-5.04251e-11 -8.39208e-11 1.15754e-10)
(-5.35586e-11 -9.82854e-11 1.18212e-10)
(-5.15749e-11 -1.10483e-10 1.1492e-10)
(-1.6332e-12 -2.03967e-12 3.59625e-12)
(-4.74857e-12 -5.97114e-12 1.05767e-11)
(-7.63705e-12 -9.74326e-12 1.73888e-11)
(-1.04217e-11 -1.35563e-11 2.44692e-11)
(-1.32188e-11 -1.75959e-11 3.22001e-11)
(-1.61422e-11 -2.20201e-11 4.09264e-11)
(-1.93117e-11 -2.70131e-11 5.09655e-11)
(-2.28494e-11 -3.27268e-11 6.26027e-11)
(-2.68786e-11 -3.93564e-11 7.60775e-11)
(-3.15037e-11 -4.7104e-11 9.15496e-11)
(-3.67651e-11 -5.61926e-11 1.09042e-10)
(-4.25504e-11 -6.69307e-11 1.28343e-10)
(-4.84019e-11 -7.97098e-11 1.48821e-10)
(-5.31679e-11 -9.5025e-11 1.69041e-10)
(-5.45297e-11 -1.12935e-10 1.85957e-10)
(-5.00656e-11 -1.29824e-10 1.94189e-10)
(-1.88725e-12 -2.29381e-12 4.22892e-12)
(-5.48097e-12 -6.72006e-12 1.24361e-11)
(-8.79089e-12 -1.09427e-11 2.04396e-11)
(-1.19464e-11 -1.51896e-11 2.87531e-11)
(-1.50643e-11 -1.96382e-11 3.7831e-11)
(-1.8256e-11 -2.44652e-11 4.80947e-11)
(-2.16284e-11 -2.98047e-11 5.9951e-11)
(-2.52857e-11 -3.58176e-11 7.38067e-11)
(-2.93163e-11 -4.26188e-11 9.00766e-11)
(-3.37754e-11 -5.0336e-11 1.09194e-10)
(-3.86386e-11 -5.9089e-11 1.31619e-10)
(-4.37135e-11 -6.90186e-11 1.57824e-10)
(-4.84686e-11 -8.03666e-11 1.88161e-10)
(-5.16915e-11 -9.35689e-11 2.2221e-10)
(-5.09825e-11 -1.09101e-10 2.56489e-10)
(-4.39529e-11 -1.24759e-10 2.79458e-10)
(-2.09198e-12 -2.45693e-12 4.77249e-12)
(-6.06713e-12 -7.18778e-12 1.40312e-11)
(-9.70307e-12 -1.16866e-11 2.30488e-11)
(-1.31269e-11 -1.6178e-11 3.23995e-11)
(-1.64487e-11 -2.0827e-11 4.25946e-11)
(-1.97699e-11 -2.58064e-11 5.41153e-11)
(-2.31783e-11 -3.12186e-11 6.74386e-11)
(-2.67483e-11 -3.71545e-11 8.30653e-11)
(-3.05291e-11 -4.36626e-11 1.01549e-10)
(-3.45217e-11 -5.07293e-11 1.23538e-10)
(-3.86363e-11 -5.82497e-11 1.49841e-10)
(-4.26202e-11 -6.60256e-11 1.81501e-10)
(-4.59059e-11 -7.36942e-11 2.1979e-10)
(-4.73116e-11 -8.07907e-11 2.65586e-10)
(-4.45265e-11 -8.70019e-11 3.16142e-10)
(-3.52783e-11 -9.24217e-11 3.55105e-10)
(-2.2488e-12 -2.52432e-12 5.22013e-12)
(-6.51252e-12 -7.37266e-12 1.53418e-11)
(-1.03852e-11 -1.19712e-11 2.51808e-11)
(-1.39843e-11 -1.65153e-11 3.53531e-11)
(-1.74125e-11 -2.11949e-11 4.64076e-11)
(-2.07521e-11 -2.61086e-11 5.88596e-11)
(-2.40713e-11 -3.13509e-11 7.32249e-11)
(-2.74153e-11 -3.69463e-11 9.00503e-11)
(-3.07957e-11 -4.28508e-11 1.09951e-10)
(-3.41681e-11 -4.89054e-11 1.33659e-10)
(-3.73995e-11 -5.48041e-11 1.62103e-10)
(-4.02004e-11 -5.99522e-11 1.96503e-10)
(-4.20113e-11 -6.33613e-11 2.3844e-10)
(-4.17456e-11 -6.34093e-11 2.89532e-10)
(-3.72955e-11 -5.79179e-11 3.49032e-10)
(-2.63673e-11 -4.68384e-11 4.02958e-10)
(-2.01657e-13 -2.92373e-13 3.93869e-13)
(-5.88073e-13 -8.58616e-13 1.15764e-12)
(-9.51806e-13 -1.40981e-12 1.90072e-12)
(-1.3119e-12 -1.97955e-12 2.66807e-12)
(-1.68778e-12 -2.60199e-12 3.49589e-12)
(-2.10085e-12 -3.31145e-12 4.41104e-12)
(-2.57614e-12 -4.14351e-12 5.42751e-12)
(-3.14427e-12 -5.14231e-12 6.53869e-12)
(-3.84232e-12 -6.35024e-12 7.70305e-12)
(-4.71436e-12 -7.81132e-12 8.82146e-12)
(-5.80952e-12 -9.54958e-12 9.7041e-12)
(-7.1766e-12 -1.15336e-11 1.00311e-11)
(-8.85751e-12 -1.36114e-11 9.32827e-12)
(-1.08848e-11 -1.5404e-11 7.0284e-12)
(-1.3278e-11 -1.62489e-11 2.82797e-12)
(-1.57598e-11 -1.56464e-11 -2.00333e-12)
(-5.96044e-13 -8.60607e-13 1.17049e-12)
(-1.73789e-12 -2.53136e-12 3.44062e-12)
(-2.81065e-12 -4.15052e-12 5.64997e-12)
(-3.8696e-12 -5.82486e-12 7.93284e-12)
(-4.97021e-12 -7.65152e-12 1.03983e-11)
(-6.17288e-12 -9.72548e-12 1.31293e-11)
(-7.54786e-12 -1.21556e-11 1.61738e-11)
(-9.17966e-12 -1.50652e-11 1.95241e-11)
(-1.11686e-11 -1.85821e-11 2.30789e-11)
(-1.36308e-11 -2.28469e-11 2.65819e-11)
(-1.66845e-11 -2.79476e-11 2.95321e-11)
(-2.04218e-11 -3.38717e-11 3.10774e-11)
(-2.48427e-11 -4.03127e-11 2.99517e-11)
(-2.97396e-11 -4.64256e-11 2.46567e-11)
(-3.45136e-11 -5.06051e-11 1.44621e-11)
(-3.78959e-11 -5.12105e-11 2.80218e-12)
(-9.67939e-13 -1.38961e-12 1.92032e-12)
(-2.81972e-12 -4.07696e-12 5.64474e-12)
(-4.55345e-12 -6.68214e-12 9.27031e-12)
(-6.25435e-12 -9.36721e-12 1.30193e-11)
(-8.00688e-12 -1.22835e-11 1.70752e-11)
(-9.90093e-12 -1.55785e-11 2.15835e-11)
(-1.20394e-11 -1.9431e-11 2.66416e-11)
(-1.454e-11 -2.40057e-11 3.22716e-11)
(-1.75403e-11 -2.95349e-11 3.83708e-11)
(-2.11845e-11 -3.6224e-11 4.46281e-11)
(-2.55996e-11 -4.43072e-11 5.04019e-11)
(-3.08187e-11 -5.39023e-11 5.45674e-11)
(-3.66292e-11 -6.48865e-11 5.54127e-11)
(-4.22897e-11 -7.65508e-11 5.08458e-11)
(-4.62085e-11 -8.71402e-11 3.96804e-11)
(-4.6556e-11 -9.35151e-11 2.6018e-11)
(-1.3048e-12 -1.85014e-12 2.62676e-12)
(-3.79724e-12 -5.42844e-12 7.72147e-12)
(-6.11887e-12 -8.88845e-12 1.26816e-11)
(-8.37653e-12 -1.244e-11 1.78143e-11)
(-1.06734e-11 -1.62712e-11 2.3378e-11)
(-1.31167e-11 -2.0579e-11 2.95876e-11)
(-1.58223e-11 -2.5558e-11 3.66073e-11)
(-1.89187e-11 -3.14429e-11 4.45267e-11)
(-2.25426e-11 -3.84861e-11 5.33116e-11)
(-2.68227e-11 -4.69994e-11 6.27219e-11)
(-3.18301e-11 -5.73029e-11 7.21806e-11)
(-3.74773e-11 -6.9757e-11 8.05966e-11)
(-4.33059e-11 -8.46101e-11 8.61784e-11)
(-4.81604e-11 -1.01732e-10 8.64559e-11)
(-4.99997e-11 -1.1976e-10 7.92748e-11)
(-4.75314e-11 -1.33812e-10 6.72568e-11)
(-1.59801e-12 -2.22678e-12 3.27501e-12)
(-4.64502e-12 -6.53478e-12 9.62692e-12)
(-7.46489e-12 -1.06821e-11 1.58101e-11)
(-1.01768e-11 -1.49166e-11 2.22107e-11)
(-1.28918e-11 -1.9448e-11 2.91593e-11)
(-1.57207e-11 -2.45028e-11 3.69429e-11)
(-1.87743e-11 -3.02697e-11 4.58042e-11)
(-2.21681e-11 -3.70125e-11 5.5928e-11)
(-2.60062e-11 -4.49778e-11 6.74049e-11)
(-3.0359e-11 -5.44821e-11 8.01668e-11)
(-3.5201e-11 -6.5912e-11 9.38755e-11)
(-4.02887e-11 -7.97357e-11 1.07737e-10)
(-4.49452e-11 -9.65187e-11 1.2021e-10)
(-4.77729e-11 -1.16697e-10 1.28646e-10)
(-4.67054e-11 -1.39518e-10 1.29449e-10)
(-4.14392e-11 -1.59089e-10 1.21883e-10)
(-1.84285e-12 -2.50966e-12 3.85236e-12)
(-5.34865e-12 -7.35141e-12 1.13227e-11)
(-8.57001e-12 -1.20029e-11 1.85908e-11)
(-1.1628e-11 -1.67141e-11 2.61112e-11)
(-1.46326e-11 -2.17202e-11 3.42796e-11)
(-1.7685e-11 -2.72207e-11 4.34492e-11)
(-2.08801e-11 -3.34355e-11 5.39419e-11)
(-2.42983e-11 -4.05521e-11 6.60432e-11)
(-2.7993e-11 -4.88096e-11 7.99892e-11)
(-3.19514e-11 -5.84417e-11 9.59266e-11)
(-3.60256e-11 -6.97433e-11 1.13838e-10)
(-3.98028e-11 -8.30988e-11 1.33378e-10)
(-4.23909e-11 -9.90199e-11 1.5351e-10)
(-4.21846e-11 -1.18086e-10 1.71735e-10)
(-3.71478e-11 -1.40099e-10 1.83073e-10)
(-2.81076e-11 -1.60004e-10 1.82267e-10)
(-2.03783e-12 -2.68601e-12 4.34881e-12)
(-5.90585e-12 -7.86572e-12 1.27794e-11)
(-9.43221e-12 -1.28185e-11 2.09724e-11)
(-1.2733e-11 -1.77994e-11 2.94374e-11)
(-1.59099e-11 -2.30485e-11 3.8622e-11)
(-1.90465e-11 -2.87322e-11 4.89326e-11)
(-2.22123e-11 -3.50407e-11 6.0754e-11)
(-2.54488e-11 -4.2126e-11 7.44563e-11)
(-2.87495e-11 -5.01223e-11 9.03958e-11)
(-3.20182e-11 -5.9141e-11 1.08902e-10)
(-3.49936e-11 -6.92779e-11 1.30239e-10)
(-3.71106e-11 -8.05884e-11 1.54481e-10)
(-3.72905e-11 -9.31498e-11 1.81162e-10)
(-3.3711e-11 -1.07017e-10 2.08324e-10)
(-2.42189e-11 -1.21922e-10 2.30526e-10)
(-1.05463e-11 -1.35174e-10 2.38413e-10)
(-2.18505e-12 -2.75642e-12 4.75822e-12)
(-6.32367e-12 -8.07369e-12 1.39784e-11)
(-1.00661e-11 -1.31284e-11 2.29222e-11)
(-1.352e-11 -1.81915e-11 3.21388e-11)
(-1.67707e-11 -2.34469e-11 4.21087e-11)
(-1.98855e-11 -2.90801e-11 5.3273e-11)
(-2.29055e-11 -3.5214e-11 6.60523e-11)
(-2.58356e-11 -4.19414e-11 8.08628e-11)
(-2.8621e-11 -4.93007e-11 9.81235e-11)
(-3.11062e-11 -5.72599e-11 1.18254e-10)
(-3.29601e-11 -6.56645e-11 1.41645e-10)
(-3.35561e-11 -7.42363e-11 1.68563e-10)
(-3.17721e-11 -8.24879e-11 1.98844e-10)
(-2.57651e-11 -8.96823e-11 2.31059e-10)
(-1.33121e-11 -9.4859e-11 2.60647e-10)
(3.90188e-12 -9.69673e-11 2.77959e-10)
(-1.98339e-13 -3.15252e-13 3.4137e-13)
(-5.78472e-13 -9.27446e-13 1.00276e-12)
(-9.3635e-13 -1.52371e-12 1.64443e-12)
(-1.29122e-12 -2.14564e-12 2.30393e-12)
(-1.66293e-12 -2.83072e-12 3.01041e-12)
(-2.07392e-12 -3.6175e-12 3.78357e-12)
(-2.55167e-12 -4.55155e-12 4.62991e-12)
(-3.13076e-12 -5.68016e-12 5.53465e-12)
(-3.85577e-12 -7.06012e-12 6.44849e-12)
(-4.78299e-12 -8.74188e-12 7.26694e-12)
(-5.98137e-12 -1.07572e-11 7.80361e-12)
(-7.53156e-12 -1.30787e-11 7.76458e-12)
(-9.52514e-12 -1.55392e-11 6.74962e-12)
(-1.20742e-11 -1.77203e-11 4.34814e-12)
(-1.5308e-11 -1.88881e-11 4.91133e-13)
(-1.8884e-11 -1.84826e-11 -3.53088e-12)
(-5.86008e-13 -9.29509e-13 1.01456e-12)
(-1.70829e-12 -2.72919e-12 2.98042e-12)
(-2.76314e-12 -4.48614e-12 4.88856e-12)
(-3.8055e-12 -6.31375e-12 6.85095e-12)
(-4.89182e-12 -8.32197e-12 8.95561e-12)
(-6.08558e-12 -1.06274e-11 1.12641e-11)
(-7.46305e-12 -1.33561e-11 1.3801e-11)
(-9.1193e-12 -1.66486e-11 1.6533e-11)
(-1.11751e-11 -2.06706e-11 1.93316e-11)
(-1.37789e-11 -2.55764e-11 2.19167e-11)
(-1.71053e-11 -3.14995e-11 2.37822e-11)
(-2.13346e-11 -3.84209e-11 2.41225e-11)
(-2.66082e-11 -4.60027e-11 2.18385e-11)
(-3.29372e-11 -5.32614e-11 1.5817e-11)
(-3.99947e-11 -5.83236e-11 5.94879e-12)
(-4.62343e-11 -5.92561e-11 -4.13034e-12)
(-9.50449e-13 -1.49646e-12 1.66466e-12)
(-2.76876e-12 -4.39987e-12 4.89059e-12)
(-4.47074e-12 -7.22385e-12 8.02251e-12)
(-6.141e-12 -1.0154e-11 1.12463e-11)
(-7.86473e-12 -1.3363e-11 1.47106e-11)
(-9.73562e-12 -1.70336e-11 1.8525e-11)
(-1.18624e-11 -2.13473e-11 2.27459e-11)
(-1.4379e-11 -2.65468e-11 2.73491e-11)
(-1.74464e-11 -3.28654e-11 3.21761e-11)
(-2.12564e-11 -4.06003e-11 3.68558e-11)
(-2.60118e-11 -4.99968e-11 4.06929e-11)
(-3.18794e-11 -6.12154e-11 4.25573e-11)
(-3.88696e-11 -7.40651e-11 4.0869e-11)
(-4.66081e-11 -8.76153e-11 3.39748e-11)
(-5.39656e-11 -9.96082e-11 2.15942e-11)
(-5.86674e-11 -1.06313e-10 8.66798e-12)
(-1.27945e-12 -1.9957e-12 2.27756e-12)
(-3.72278e-12 -5.86171e-12 6.69134e-12)
(-5.99666e-12 -9.61198e-12 1.09774e-11)
(-8.206e-12 -1.34861e-11 1.53932e-11)
(-1.04538e-11 -1.77095e-11 2.01491e-11)
(-1.28485e-11 -2.24996e-11 2.54091e-11)
(-1.55117e-11 -2.81042e-11 3.12791e-11)
(-1.85836e-11 -3.4792e-11 3.77762e-11)
(-2.22243e-11 -4.28899e-11 4.47743e-11)
(-2.66047e-11 -5.2754e-11 5.19141e-11)
(-3.18791e-11 -6.4806e-11 5.84758e-11)
(-3.8112e-11 -7.94232e-11 6.32254e-11)
(-4.51433e-11 -9.68153e-11 6.43308e-11)
(-5.23731e-11 -1.16555e-10 5.96466e-11)
(-5.85693e-11 -1.36578e-10 4.82009e-11)
(-6.20517e-11 -1.51131e-10 3.47223e-11)
(-1.56419e-12 -2.40467e-12 2.84036e-12)
(-4.5446e-12 -7.05332e-12 8.34467e-12)
(-7.29887e-12 -1.15529e-11 1.36898e-11)
(-9.94146e-12 -1.61746e-11 1.91997e-11)
(-1.25814e-11 -2.11784e-11 2.51452e-11)
(-1.5326e-11 -2.67954e-11 3.17481e-11)
(-1.82894e-11 -3.33113e-11 3.91758e-11)
(-2.1588e-11 -4.09911e-11 4.75136e-11)
(-2.53398e-11 -5.019e-11 5.6719e-11)
(-2.96411e-11 -6.13006e-11 6.65353e-11)
(-3.45258e-11 -7.47915e-11 7.63609e-11)
(-3.98901e-11 -9.12179e-11 8.50631e-11)
(-4.53842e-11 -1.11117e-10 9.07764e-11)
(-5.034e-11 -1.34633e-10 9.09231e-11)
(-5.39451e-11 -1.60174e-10 8.33523e-11)
(-5.5864e-11 -1.80637e-10 7.12099e-11)
(-1.79978e-12 -2.70644e-12 3.34191e-12)
(-5.22131e-12 -7.94117e-12 9.81775e-12)
(-8.35718e-12 -1.29817e-11 1.61034e-11)
(-1.13228e-11 -1.81329e-11 2.2582e-11)
(-1.42215e-11 -2.36522e-11 2.95785e-11)
(-1.71487e-11 -2.97974e-11 3.73708e-11)
(-2.01915e-11 -3.68077e-11 4.61881e-11)
(-2.34253e-11 -4.49704e-11 5.61963e-11)
(-2.68954e-11 -5.45685e-11 6.7459e-11)
(-3.05873e-11 -6.59494e-11 7.98696e-11)
(-3.4369e-11 -7.95171e-11 9.30297e-11)
(-3.79055e-11 -9.57617e-11 1.06048e-10)
(-4.05785e-11 -1.15257e-10 1.17235e-10)
(-4.15516e-11 -1.38385e-10 1.238e-10)
(-4.03903e-11 -1.64125e-10 1.22362e-10)
(-3.85837e-11 -1.85803e-10 1.13512e-10)
(-1.98575e-12 -2.89912e-12 3.77381e-12)
(-5.75112e-12 -8.49732e-12 1.10846e-11)
(-9.1722e-12 -1.38682e-11 1.81737e-11)
(-1.23571e-11 -1.93216e-11 2.54718e-11)
(-1.53955e-11 -2.51002e-11 3.33477e-11)
(-1.83632e-11 -3.14597e-11 4.21255e-11)
(-2.13138e-11 -3.86092e-11 5.20872e-11)
(-2.42704e-11 -4.67684e-11 6.34675e-11)
(-2.7201e-11 -5.61526e-11 7.64276e-11)
(-2.99755e-11 -6.69733e-11 9.10013e-11)
(-3.22936e-11 -7.94346e-11 1.06992e-10)
(-3.3585e-11 -9.37691e-11 1.23781e-10)
(-3.29096e-11 -1.10197e-10 1.39979e-10)
(-2.90564e-11 -1.28811e-10 1.52935e-10)
(-2.14709e-11 -1.48853e-10 1.58652e-10)
(-1.32711e-11 -1.65761e-10 1.55224e-10)
(-2.12453e-12 -2.97906e-12 4.13057e-12)
(-6.14223e-12 -8.71729e-12 1.21287e-11)
(-9.76122e-12 -1.42096e-11 1.9872e-11)
(-1.30752e-11 -1.97341e-11 2.7824e-11)
(-1.61596e-11 -2.55521e-11 3.6385e-11)
(-1.90646e-11 -3.18535e-11 4.59071e-11)
(-2.18123e-11 -3.88264e-11 5.67068e-11)
(-2.43795e-11 -4.66203e-11 6.90611e-11)
(-2.66715e-11 -5.53475e-11 8.31899e-11)
(-2.84744e-11 -6.50601e-11 9.92107e-11)
(-2.93841e-11 -7.57478e-11 1.17048e-10)
(-2.87006e-11 -8.72865e-11 1.36252e-10)
(-2.5326e-11 -9.94339e-11 1.55664e-10)
(-1.78223e-11 -1.11745e-10 1.72903e-10)
(-5.28849e-12 -1.23335e-10 1.84108e-10)
(8.90979e-12 -1.31767e-10 1.86329e-10)
(-1.9537e-13 -3.35126e-13 2.77487e-13)
(-5.69787e-13 -9.85119e-13 8.14637e-13)
(-9.2261e-13 -1.62226e-12 1.3345e-12)
(-1.27312e-12 -2.289e-12 1.86639e-12)
(-1.64184e-12 -3.02805e-12 2.43231e-12)
(-2.05287e-12 -3.88441e-12 3.04558e-12)
(-2.53658e-12 -4.90533e-12 3.70701e-12)
(-3.13348e-12 -6.14843e-12 4.398e-12)
(-3.89835e-12 -7.67269e-12 5.06879e-12)
(-4.90538e-12 -9.53738e-12 5.62239e-12)
(-6.25327e-12 -1.17803e-11 5.89587e-12)
(-8.06898e-12 -1.43702e-11 5.64859e-12)
(-1.05109e-11 -1.71315e-11 4.58259e-12)
(-1.37696e-11 -1.9625e-11 2.44706e-12)
(-1.80049e-11 -2.11036e-11 -6.74251e-13)
(-2.26087e-11 -2.10005e-11 -3.68757e-12)
(-5.76854e-13 -9.86152e-13 8.24698e-13)
(-1.68194e-12 -2.9037e-12 2.42156e-12)
(-2.72093e-12 -4.77686e-12 3.96751e-12)
(-3.7493e-12 -6.73648e-12 5.55043e-12)
(-4.82526e-12 -8.90635e-12 7.23687e-12)
(-6.01626e-12 -1.14128e-11 9.06862e-12)
(-7.40676e-12 -1.43958e-11 1.10527e-11)
(-9.10822e-12 -1.80224e-11 1.31421e-11)
(-1.12695e-11 -2.24649e-11 1.52027e-11)
(-1.40905e-11 -2.79154e-11 1.6969e-11)
(-1.78299e-11 -3.45008e-11 1.79897e-11)
(-2.28042e-11 -4.22108e-11 1.75946e-11)
(-2.93518e-11 -5.06622e-11 1.49528e-11)
(-3.77148e-11 -5.87931e-11 9.38372e-12)
(-4.76363e-11 -6.46204e-11 1.20821e-12)
(-5.67308e-11 -6.61111e-11 -6.41602e-12)
(-9.34899e-13 -1.59203e-12 1.35343e-12)
(-2.72318e-12 -4.67962e-12 3.97403e-12)
(-4.39722e-12 -7.69349e-12 6.51206e-12)
(-6.04151e-12 -1.08371e-11 9.11331e-12)
(-7.74326e-12 -1.43053e-11 1.18906e-11)
(-9.6009e-12 -1.82907e-11 1.49195e-11)
(-1.17356e-11 -2.30251e-11 1.82254e-11)
(-1.43018e-11 -2.87427e-11 2.17541e-11)
(-1.75033e-11 -3.57476e-11 2.53276e-11)
(-2.16045e-11 -4.43319e-11 2.85744e-11)
(-2.69386e-11 -5.47924e-11 3.08507e-11)
(-3.3886e-11 -6.726e-11 3.11813e-11)
(-4.2786e-11 -8.14829e-11 2.83351e-11)
(-5.36711e-11 -9.6359e-11 2.12766e-11)
(-6.55762e-11 -1.09374e-10 1.04402e-11)
(-7.48728e-11 -1.16576e-10 3.66225e-13)
(-1.25674e-12 -2.12177e-12 1.852e-12)
(-3.65605e-12 -6.23419e-12 5.43832e-12)
(-5.88795e-12 -1.02384e-11 8.91264e-12)
(-8.05616e-12 -1.43987e-11 1.24773e-11)
(-1.02644e-11 -1.89599e-11 1.62926e-11)
(-1.2626e-11 -2.41749e-11 2.04744e-11)
(-1.52734e-11 -3.0316e-11 2.50799e-11)
(-1.83695e-11 -3.76955e-11 3.00769e-11)
(-2.21189e-11 -4.66734e-11 3.52912e-11)
(-2.67771e-11 -5.76672e-11 4.03278e-11)
(-3.26506e-11 -7.10991e-11 4.4469e-11)
(-4.00774e-11 -8.73536e-11 4.6588e-11)
(-4.93479e-11 -1.0653e-10 4.51879e-11)
(-6.04871e-11 -1.27965e-10 3.88592e-11)
(-7.26563e-11 -1.49216e-10 2.77279e-11)
(-8.24844e-11 -1.6424e-10 1.66743e-11)
(-1.53371e-12 -2.55514e-12 2.31012e-12)
(-4.45517e-12 -7.50751e-12 6.78382e-12)
(-7.15131e-12 -1.23097e-11 1.11181e-11)
(-9.73434e-12 -1.72742e-11 1.55684e-11)
(-1.23113e-11 -2.2675e-11 2.0342e-11)
(-1.49933e-11 -2.8806e-11 2.55989e-11)
(-1.78993e-11 -3.59445e-11 3.1439e-11)
(-2.11662e-11 -4.44462e-11 3.7876e-11)
(-2.49478e-11 -5.46835e-11 4.47831e-11)
(-2.94173e-11 -6.71051e-11 5.18139e-11)
(-3.47593e-11 -8.22188e-11 5.82902e-11)
(-4.11588e-11 -1.00555e-10 6.30806e-11)
(-4.87934e-11 -1.22541e-10 6.45651e-11)
(-5.78195e-11 -1.48028e-10 6.09647e-11)
(-6.81457e-11 -1.7497e-10 5.17131e-11)
(-7.77086e-11 -1.95941e-10 4.10624e-11)
(-1.76147e-12 -2.88e-12 2.71886e-12)
(-5.10762e-12 -8.45097e-12 7.9835e-12)
(-8.16835e-12 -1.38373e-11 1.30827e-11)
(-1.10534e-11 -1.93659e-11 1.83187e-11)
(-1.38626e-11 -2.53379e-11 2.3942e-11)
(-1.6689e-11 -3.20322e-11 3.0155e-11)
(-1.96221e-11 -3.97505e-11 3.71057e-11)
(-2.2744e-11 -4.87978e-11 4.4863e-11)
(-2.6124e-11 -5.95327e-11 5.33733e-11)
(-2.98002e-11 -7.2342e-11 6.23834e-11)
(-3.37576e-11 -8.76634e-11 7.13293e-11)
(-3.79116e-11 -1.05977e-10 7.91926e-11)
(-4.21475e-11 -1.27723e-10 8.43878e-11)
(-4.6519e-11 -1.52962e-10 8.49167e-11)
(-5.15899e-11 -1.80145e-10 7.9475e-11)
(-5.7544e-11 -2.02255e-10 7.09799e-11)
(-1.93934e-12 -3.0842e-12 3.07105e-12)
(-5.61306e-12 -9.04339e-12 9.01646e-12)
(-8.94146e-12 -1.47835e-11 1.47702e-11)
(-1.20239e-11 -2.06335e-11 2.06726e-11)
(-1.49453e-11 -2.69006e-11 2.70103e-11)
(-1.77724e-11 -3.38362e-11 3.4021e-11)
(-2.05547e-11 -4.17155e-11 4.18945e-11)
(-2.33121e-11 -5.08009e-11 5.07529e-11)
(-2.60166e-11 -6.13566e-11 6.06138e-11)
(-2.85598e-11 -7.3641e-11 7.13234e-11)
(-3.07077e-11 -8.7903e-11 8.24512e-11)
(-3.2053e-11 -1.04339e-10 9.31407e-11)
(-3.20297e-11 -1.23045e-10 1.01959e-10)
(-3.01532e-11 -1.43753e-10 1.06935e-10)
(-2.68124e-11 -1.65042e-10 1.06418e-10)
(-2.44585e-11 -1.81863e-10 1.02058e-10)
(-2.07013e-12 -3.16575e-12 3.36222e-12)
(-5.98131e-12 -9.28251e-12 9.86927e-12)
(-9.49027e-12 -1.51449e-11 1.61568e-11)
(-1.26826e-11 -2.10914e-11 2.25938e-11)
(-1.5622e-11 -2.73836e-11 2.94901e-11)
(-1.83497e-11 -3.42728e-11 3.71097e-11)
(-2.08754e-11 -4.19761e-11 4.56697e-11)
(-2.31634e-11 -5.06905e-11 5.53284e-11)
(-2.51063e-11 -6.05743e-11 6.6153e-11)
(-2.64857e-11 -7.17324e-11 7.80603e-11)
(-2.69139e-11 -8.41686e-11 9.07162e-11)
(-2.57724e-11 -9.77549e-11 1.0339e-10)
(-2.2184e-11 -1.12116e-10 1.14784e-10)
(-1.51643e-11 -1.2643e-10 1.23003e-10)
(-4.32797e-12 -1.38992e-10 1.26212e-10)
(7.71383e-12 -1.46347e-10 1.2516e-10)
(-1.92957e-13 -3.5098e-13 2.0464e-13)
(-5.6287e-13 -1.0335e-12 6.00549e-13)
(-9.11654e-13 -1.70206e-12 9.82838e-13)
(-1.25894e-12 -2.40498e-12 1.3725e-12)
(-1.62599e-12 -3.18787e-12 1.78468e-12)
(-2.03851e-12 -4.09801e-12 2.22744e-12)
(-2.53028e-12 -5.18859e-12 2.69876e-12)
(-3.1479e-12 -6.51942e-12 3.18086e-12)
(-3.95717e-12 -8.15588e-12 3.63166e-12)
(-5.05091e-12 -1.01612e-11 3.97357e-12)
(-6.55714e-12 -1.25718e-11 4.08243e-12)
(-8.64495e-12 -1.5358e-11 3.78591e-12)
(-1.15214e-11 -1.83372e-11 2.89003e-12)
(-1.54055e-11 -2.10674e-11 1.26782e-12)
(-2.03922e-11 -2.28071e-11 -9.43897e-13)
(-2.55845e-11 -2.2973e-11 -2.95748e-12)
(-5.69576e-13 -1.03469e-12 6.0828e-13)
(-1.66065e-12 -3.04326e-12 1.78516e-12)
(-2.68721e-12 -5.01178e-12 2.92217e-12)
(-3.70515e-12 -7.07795e-12 4.08197e-12)
(-4.77469e-12 -9.37505e-12 5.31047e-12)
(-5.96785e-12 -1.20405e-11 6.63343e-12)
(-7.37845e-12 -1.52296e-11 8.04816e-12)
(-9.13475e-12 -1.9112e-11 9.50755e-12)
(-1.14172e-11 -2.38869e-11 1.08965e-11)
(-1.44783e-11 -2.97402e-11 1.19994e-11)
(-1.86627e-11 -3.68182e-11 1.2469e-11)
(-2.44111e-11 -4.50929e-11 1.18206e-11)
(-3.22104e-11 -5.41631e-11 9.51073e-12)
(-4.23954e-11 -6.29331e-11 5.20324e-12)
(-5.45232e-11 -6.93968e-11 -6.37681e-13)
(-6.5339e-11 -7.14478e-11 -5.70683e-12)
(-9.22263e-13 -1.66791e-12 9.98274e-13)
(-2.68644e-12 -4.90582e-12 2.93e-12)
(-4.33835e-12 -8.0724e-12 4.79691e-12)
(-5.96297e-12 -1.13873e-11 6.70331e-12)
(-7.6499e-12 -1.50587e-11 8.72723e-12)
(-9.50419e-12 -1.93049e-11 1.09164e-11)
(-1.16592e-11 -2.43571e-11 1.3276e-11)
(-1.42952e-11 -3.04929e-11 1.57464e-11)
(-1.76607e-11 -3.8012e-11 1.81668e-11)
(-2.21011e-11 -4.7246e-11 2.02284e-11)
(-2.80814e-11 -5.84745e-11 2.14238e-11)
(-3.61831e-11 -7.18211e-11 2.10353e-11)
(-4.70004e-11 -8.69747e-11 1.82475e-11)
(-6.07594e-11 -1.02754e-10 1.25511e-11)
(-7.62636e-11 -1.1656e-10 4.65176e-12)
(-8.84911e-11 -1.24331e-10 -2.05513e-12)
(-1.23837e-12 -2.2235e-12 1.36626e-12)
(-3.60236e-12 -6.53793e-12 4.01028e-12)
(-5.8008e-12 -1.07445e-11 6.56647e-12)
(-7.9372e-12 -1.51303e-11 9.17984e-12)
(-1.01175e-11 -1.99635e-11 1.19619e-11)
(-1.2461e-11 -2.55164e-11 1.4987e-11)
(-1.51139e-11 -3.20823e-11 1.82794e-11)
(-1.82668e-11 -4.00013e-11 2.17874e-11)
(-2.21763e-11 -4.96598e-11 2.53412e-11)
(-2.7192e-11 -6.14832e-11 2.85948e-11)
(-3.37835e-11 -7.5906e-11 3.09628e-11)
(-4.25478e-11 -9.32636e-11 3.15922e-11)
(-5.41342e-11 -1.1357e-10 2.94736e-11)
(-6.89048e-11 -1.36026e-10 2.38919e-11)
(-8.58653e-11 -1.58067e-10 1.54961e-11)
(-9.98648e-11 -1.7359e-10 8.07905e-12)
(-1.50921e-12 -2.67915e-12 1.70459e-12)
(-4.38288e-12 -7.87257e-12 5.00336e-12)
(-7.03274e-12 -1.29197e-11 8.19329e-12)
(-9.56905e-12 -1.81529e-11 1.14574e-11)
(-1.21002e-11 -2.38837e-11 1.4941e-11)
(-1.47403e-11 -3.04068e-11 1.87479e-11)
(-1.76215e-11 -3.80562e-11 2.29311e-11)
(-2.09036e-11 -4.71859e-11 2.74646e-11)
(-2.47906e-11 -5.82152e-11 3.22026e-11)
(-2.95479e-11 -7.16046e-11 3.68158e-11)
(-3.55264e-11 -8.78467e-11 4.07195e-11)
(-4.31923e-11 -1.07412e-10 4.30255e-11)
(-5.31444e-11 -1.30582e-10 4.26195e-11)
(-6.60109e-11 -1.57013e-10 3.8575e-11)
(-8.17234e-11 -1.84529e-10 3.12265e-11)
(-9.63351e-11 -2.05829e-10 2.41096e-11)
(-1.73042e-12 -3.01925e-12 2.00651e-12)
(-5.01585e-12 -8.86319e-12 5.88965e-12)
(-8.01616e-12 -1.45226e-11 9.64374e-12)
(-1.08379e-11 -2.03572e-11 1.34864e-11)
(-1.35792e-11 -2.66894e-11 1.75933e-11)
(-1.63343e-11 -3.38286e-11 2.2099e-11)
(-1.9199e-11 -4.20951e-11 2.70878e-11)
(-2.22734e-11 -5.1838e-11 3.2571e-11)
(-2.56635e-11 -6.34323e-11 3.84464e-11)
(-2.94826e-11 -7.72811e-11 4.44381e-11)
(-3.3856e-11 -9.37947e-11 5.00198e-11)
(-3.89469e-11 -1.13348e-10 5.43529e-11)
(-4.50339e-11 -1.36168e-10 5.63273e-11)
(-5.26615e-11 -1.61993e-10 5.49079e-11)