/*--------------------------------*- C++ -*----------------------------------*\
| =========                 |                                                 |
| \\      /  F ield         | foam-extend: Open Source CFD                    |
|  \\    /   O peration     | Version:     3.1                                |
|   \\  /    A nd           | Web:         http://www.extend-project.de       |
|    \\/     M anipulation  |                                                 |
\*---------------------------------------------------------------------------*/
FoamFile
{
    version     2.0;
    format      ascii;
    class       surfaceScalarField;
    location    "3.5";
    object      meshPhi;
}
// * * * * * * * * * * * * * * * * * * * * * * * * * * * * * * * * * * * * * //

dimensions      [0 3 -1 0 0 0 0];

internalField   nonuniform List<scalar> 
41600
(
-7.95781e-11
-2.03025e-11
-4.15049e-12
4.52947e-12
-1.54852e-10
-6.04088e-11
-1.19944e-11
1.3162e-11
-2.26937e-10
-1.00334e-10
-1.86911e-11
2.07638e-11
-2.99643e-10
-1.4237e-10
-2.38009e-11
2.70271e-11
-3.77245e-10
-1.89635e-10
-2.6695e-11
3.15028e-11
-4.64999e-10
-2.45801e-10
-2.6237e-11
3.33023e-11
-5.69779e-10
-3.15578e-10
-2.0553e-11
3.09092e-11
-7.0087e-10
-4.05359e-10
-6.73064e-12
2.19324e-11
-8.70949e-10
-5.24097e-10
1.95533e-11
2.81148e-12
-1.09715e-09
-6.84535e-10
6.44136e-11
-3.14525e-11
-1.40193e-09
-9.04936e-10
1.35954e-10
-8.73287e-11
-1.81271e-09
-1.2114e-09
2.43762e-10
-1.71959e-10
-2.35757e-09
-1.64021e-09
3.96508e-10
-2.90159e-10
-3.04691e-09
-2.23463e-09
5.94797e-10
-4.36177e-10
-3.79948e-09
-2.99467e-09
8.11203e-10
-5.7245e-10
-5.23746e-09
1.04605e-09
-5.66422e-10
-2.36559e-10
-3.96215e-11
-1.26694e-11
1.38e-11
-4.60141e-10
-1.17833e-10
-3.66574e-11
4.01386e-11
-6.73904e-10
-1.95527e-10
-5.73028e-11
6.34765e-11
-8.88974e-10
-2.77064e-10
-7.34165e-11
8.30161e-11
-1.11776e-09
-3.68354e-10
-8.32855e-11
9.75742e-11
-1.37546e-09
-4.7628e-10
-8.37453e-11
1.04717e-10
-1.68179e-09
-6.09564e-10
-6.95331e-11
1.00234e-10
-2.06331e-09
-7.79876e-10
-3.24321e-11
7.74386e-11
-2.556e-09
-1.00329e-09
3.97977e-11
2.63283e-11
-3.20809e-09
-1.3021e-09
1.64561e-10
-6.72467e-11
-4.0819e-09
-1.70693e-09
3.65144e-10
-2.2185e-10
-5.25153e-09
-2.2583e-09
6.697e-10
-4.58714e-10
-6.78734e-09
-3.00472e-09
1.1054e-09
-7.94548e-10
-8.69937e-09
-3.98574e-09
1.68e-09
-1.22092e-09
-1.07401e-08
-5.15063e-09
2.32499e-09
-1.64626e-09
-7.10838e-09
3.1834e-09
-2.37124e-09
-3.87354e-10
-5.7071e-11
-2.17425e-11
2.36009e-11
-7.52896e-10
-1.6961e-10
-6.30594e-11
6.87762e-11
-1.10129e-09
-2.81066e-10
-9.91472e-11
1.0927e-10
-1.45015e-09
-3.97467e-10
-1.28424e-10
1.44133e-10
-1.81888e-09
-5.26957e-10
-1.48576e-10
1.71905e-10
-2.23099e-09
-6.78855e-10
-1.55102e-10
1.8926e-10
-2.71671e-09
-8.64752e-10
-1.40374e-10
1.90253e-10
-3.31627e-09
-1.09985e-09
-9.23735e-11
1.65311e-10
-4.08353e-09
-1.40461e-09
6.91482e-12
9.99873e-11
-5.08966e-09
-1.80649e-09
1.83319e-10
-2.63724e-11
-6.42447e-09
-2.34135e-09
4.71888e-10
-2.41368e-10
-8.1903e-09
-3.0527e-09
9.16251e-10
-5.77942e-10
-1.04739e-08
-3.98369e-09
1.56174e-09
-1.06601e-09
-1.32575e-08
-5.14935e-09
2.43083e-09
-1.70606e-09
-1.61565e-08
-6.45357e-09
3.438e-09
-2.38529e-09
-8.40006e-09
4.95231e-09
-4.17318e-09
-5.28579e-10
-7.19067e-11
-3.15841e-11
3.4129e-11
-1.02633e-09
-2.13521e-10
-9.18905e-11
9.97096e-11
-1.49866e-09
-3.53245e-10
-1.45551e-10
1.59366e-10
-1.96842e-09
-4.98277e-10
-1.91103e-10
2.12483e-10
-2.46043e-09
-6.58304e-10
-2.26331e-10
2.57982e-10
-3.00428e-09
-8.44158e-10
-2.46403e-10
2.92582e-10
-3.63742e-09
-1.069e-09
-2.4282e-10
3.1e-10
-4.40894e-09
-1.3497e-09
-2.01987e-10
2.99854e-10
-5.38356e-09
-1.70829e-09
-1.0335e-10
2.46273e-10
-6.64512e-09
-2.17349e-09
8.28077e-11
1.26355e-10
-8.29674e-09
-2.78122e-09
3.97372e-10
-9.09605e-11
-1.04508e-08
-3.57214e-09
8.92634e-10
-4.43885e-10
-1.31921e-08
-4.58113e-09
1.6263e-09
-9.70116e-10
-1.64725e-08
-5.80737e-09
2.63517e-09
-1.67898e-09
-1.98359e-08
-7.14354e-09
3.83399e-09
-2.45286e-09
-9.02529e-09
5.67413e-09
-4.58878e-09
-6.57544e-10
-8.35734e-11
-4.22577e-11
4.54326e-11
-1.27517e-09
-2.47932e-10
-1.23365e-10
1.33105e-10
-1.85811e-09
-4.09408e-10
-1.96953e-10
2.14119e-10
-2.43306e-09
-5.75848e-10
-2.62255e-10
2.88729e-10
-3.02847e-09
-7.57765e-10
-3.17935e-10
3.56963e-10
-3.67753e-09
-9.66607e-10
-3.59951e-10
4.16627e-10
-4.42154e-09
-1.21589e-09
-3.8061e-10
4.62641e-10
-5.31355e-09
-1.52244e-09
-3.67251e-10
4.86127e-10
-6.42227e-09
-1.90768e-09
-3.00519e-10
4.73255e-10
-7.83488e-09
-2.39872e-09
-1.52262e-10
4.03954e-10
-9.65595e-09
-3.0285e-09
1.16602e-10
2.50959e-10
-1.19952e-08
-3.83317e-09
5.57123e-10
-1.94792e-11
-1.49271e-08
-4.84229e-09
1.22863e-09
-4.41424e-10
-1.83828e-08
-6.05197e-09
2.17635e-09
-1.02456e-09
-2.18882e-08
-7.36354e-09
3.33307e-09
-1.65736e-09
-9.2423e-09
5.16092e-09
-3.60961e-09
-7.72395e-10
-9.17183e-11
-5.36593e-11
5.73946e-11
-1.49585e-09
-2.71829e-10
-1.57166e-10
1.68607e-10
-2.17461e-09
-4.47989e-10
-2.5281e-10
2.72912e-10
-2.83775e-09
-6.28212e-10
-3.41051e-10
3.71926e-10
-3.51563e-09
-8.23195e-10
-4.22147e-10
4.67437e-10
-4.24287e-09
-1.04423e-09
-4.93871e-10
5.59254e-10
-5.06155e-09
-1.30419e-09
-5.50846e-10
6.44858e-10
-6.02468e-09
-1.61864e-09
-5.83621e-10
7.18916e-10
-7.19957e-09
-2.00679e-09
-5.77485e-10
7.7272e-10
-8.67001e-09
-2.49239e-09
-5.11052e-10
7.93711e-10
-1.05345e-08
-3.10381e-09
-3.54798e-10
7.65477e-10
-1.2894e-08
-3.87226e-09
-7.00358e-11
6.69157e-10
-1.58128e-08
-4.82494e-09
3.90028e-10
4.88486e-10
-1.92156e-08
-5.96466e-09
1.06817e-09
2.27143e-10
-2.26463e-08
-7.21589e-09
1.9335e-09
-1.67434e-11
-9.15049e-09
3.40798e-09
-1.23087e-09
-8.72098e-10
-9.61845e-11
-6.55261e-11
6.97423e-11
-1.68655e-09
-2.84793e-10
-1.92485e-10
2.05375e-10
-2.44586e-09
-4.68447e-10
-3.11664e-10
3.34238e-10
-3.18025e-09
-6.54932e-10
-4.2516e-10
4.5967e-10
-3.92055e-09
-8.54606e-10
-5.35346e-10
5.8567e-10
-4.70101e-09
-1.07802e-09
-6.42528e-10
7.14665e-10
-5.56229e-09
-1.33679e-09
-7.44691e-10
8.47578e-10
-6.55453e-09
-1.6444e-09
-8.3714e-10
9.83902e-10
-7.74024e-09
-2.017e-09
-9.1213e-10
1.12194e-09
-9.19615e-09
-2.474e-09
-9.58617e-10
1.25952e-09
-1.10116e-08
-3.0383e-09
-9.62316e-10
1.39556e-09
-1.3278e-08
-3.73541e-09
-9.06136e-10
1.5333e-09
-1.60564e-08
-4.59024e-09
-7.70511e-10
1.68602e-09
-1.92872e-08
-5.61532e-09
-5.33949e-10
1.88756e-09
-2.25696e-08
-6.76996e-09
-1.89699e-10
2.23189e-09
-8.85675e-09
5.21934e-10
2.34608e-09
-9.56303e-10
-7.74657e-11
8.20769e-11
-9.69823e-11
-1.84682e-09
-2.28108e-10
2.4218e-10
-2.86907e-10
-2.67181e-09
-3.71337e-10
3.95892e-10
-4.71088e-10
-3.46159e-09
-5.11096e-10
5.48441e-10
-6.56791e-10
-4.24637e-09
-6.5212e-10
7.0621e-10
-8.53657e-10
-5.05882e-09
-7.97556e-10
8.74453e-10
-1.07116e-09
-5.93678e-09
-9.49141e-10
1.05777e-09
-1.3193e-09
-6.92593e-09
-1.10743e-09
1.26073e-09
-1.60918e-09
-8.08231e-09
-1.27228e-09
1.48884e-09
-1.95358e-09
-9.47401e-09
-1.44381e-09
1.75035e-09
-2.36729e-09
-1.11803e-08
-1.62442e-09
2.05939e-09
-2.86714e-09
-1.32836e-08
-1.8219e-09
2.44127e-09
-3.47132e-09
-1.58442e-08
-2.05321e-09
2.94026e-09
-4.19704e-09
-1.88254e-08
-2.34595e-09
3.6292e-09
-5.05203e-09
-2.19242e-08
-2.74008e-09
4.63642e-09
-6.01131e-09
-3.6327e-09
7.07529e-09
-8.12721e-09
-7.04424e-11
-1.86704e-11
-3.65114e-12
-1.36585e-10
-5.54732e-11
-1.04886e-11
-1.99005e-10
-9.18832e-11
-1.61255e-11
-2.6073e-10
-1.29879e-10
-2.00249e-11
-3.25231e-10
-1.72208e-10
-2.14293e-11
-3.96884e-10
-2.22126e-10
-1.90399e-11
-4.81559e-10
-2.83863e-10
-1.07674e-11
-5.87381e-10
-3.63247e-10
6.58507e-12
-7.25681e-10
-4.68583e-10
3.77035e-11
-9.12026e-10
-6.11916e-10
8.91276e-11
-1.16693e-09
-8.10838e-10
1.69362e-10
-1.51511e-09
-1.09095e-09
2.88155e-10
-1.97988e-09
-1.48835e-09
4.5365e-10
-2.56252e-09
-2.04589e-09
6.64657e-10
-3.16569e-09
-2.7617e-09
8.91751e-10
-4.58382e-09
1.23213e-09
-2.09405e-10
-3.64222e-11
-1.1168e-11
-4.05854e-10
-1.08159e-10
-3.21314e-11
-5.90911e-10
-1.78966e-10
-4.95939e-11
-7.73378e-10
-2.52589e-10
-6.20737e-11
-9.63286e-10
-3.34211e-10
-6.74706e-11
-1.17319e-09
-4.29903e-10
-6.21314e-11
-1.41985e-09
-5.4744e-10
-4.01443e-11
-1.72629e-09
-6.97376e-10
7.5653e-12
-2.12444e-09
-8.94482e-10
9.43319e-11
-2.65772e-09
-1.1596e-09
2.38825e-10
-3.38245e-09
-1.52186e-09
4.6544e-10
-4.36424e-09
-2.02034e-09
8.02337e-10
-5.65898e-09
-2.70214e-09
1.27332e-09
-7.24938e-09
-3.60433e-09
1.87516e-09
-8.84316e-09
-4.67173e-09
2.52209e-09
-6.25926e-09
3.38648e-09
-3.42909e-10
-5.24284e-11
-1.92372e-11
-6.64066e-10
-1.55573e-10
-5.55106e-11
-9.65545e-10
-2.57037e-10
-8.62955e-11
-1.26116e-09
-3.61961e-10
-1.09522e-10
-1.56644e-09
-4.77433e-10
-1.2223e-10
-1.9006e-09
-6.1159e-10
-1.19103e-10
-2.28893e-09
-7.74639e-10
-9.14243e-11
-2.76583e-09
-9.80135e-10
-2.57317e-11
-3.37832e-09
-1.24656e-09
9.78553e-11
-4.18929e-09
-1.59911e-09
3.07337e-10
-5.27825e-09
-2.07111e-09
6.3963e-10
-6.7331e-09
-2.70327e-09
1.13799e-09
-8.61721e-09
-3.53531e-09
1.84004e-09
-1.08716e-08
-4.57681e-09
2.74288e-09
-1.305e-08
-5.72295e-09
3.71724e-09
-7.16697e-09
4.95804e-09
-4.67988e-10
-6.59971e-11
-2.80797e-11
-9.05286e-10
-1.95655e-10
-8.13362e-11
-1.3138e-09
-3.22668e-10
-1.27592e-10
-1.71125e-09
-4.53104e-10
-1.64705e-10
-2.11721e-09
-5.95307e-10
-1.89559e-10
-2.55541e-09
-7.586e-10
-1.96179e-10
-3.05656e-09
-9.54368e-10
-1.74547e-10
-3.6617e-09
-1.19731e-09
-1.09014e-10
-4.42591e-09
-1.50687e-09
2.36858e-11
-5.42132e-09
-1.90858e-09
2.56565e-10
-6.73637e-09
-2.43457e-09
6.33681e-10
-8.46364e-09
-3.12092e-09
1.20782e-09
-1.06582e-08
-3.9964e-09
2.02734e-09
-1.32257e-08
-5.05109e-09
3.09457e-09
-1.56475e-08
-6.16361e-09
4.26049e-09
-7.39241e-09
5.7735e-09
-5.82318e-10
-7.6621e-11
-3.777e-11
-1.12497e-09
-2.26917e-10
-1.09856e-10
-1.62894e-09
-3.73449e-10
-1.73985e-10
-2.11462e-09
-5.22737e-10
-2.28522e-10
-2.60401e-09
-6.83715e-10
-2.70987e-10
-3.12316e-09
-8.66054e-10
-2.95892e-10
-3.70499e-09
-1.08117e-09
-2.93606e-10
-4.39256e-09
-1.34329e-09
-2.48812e-10
-5.24244e-09
-1.67061e-09
-1.38535e-10
-6.32691e-09
-2.08616e-09
7.007e-11
-7.73187e-09
-2.61766e-09
4.21405e-10
-9.54273e-09
-3.29431e-09
9.70195e-10
-1.18007e-08
-4.13584e-09
1.77034e-09
-1.43926e-08
-5.12408e-09
2.83483e-09
-1.67946e-08
-6.14077e-09
4.02431e-09
-7.16664e-09
5.65383e-09
-6.84336e-10
-8.39867e-11
-4.822e-11
-1.32017e-09
-2.48463e-10
-1.40803e-10
-1.90688e-09
-4.08018e-10
-2.25015e-10
-2.46633e-09
-5.69195e-10
-3.00277e-10
-3.02149e-09
-7.40938e-10
-3.65483e-10
-3.59879e-09
-9.32577e-10
-4.16694e-10
-4.23075e-09
-1.15466e-09
-4.46233e-10
-4.95888e-09
-1.41982e-09
-4.41452e-10
-5.83643e-09
-1.74358e-09
-3.83155e-10
-6.92986e-09
-2.1448e-09
-2.43784e-10
-8.31599e-09
-2.64523e-09
1.42051e-11
-1.00679e-08
-3.26652e-09
4.38287e-10
-1.22142e-08
-4.02126e-09
1.07931e-09
-1.46382e-08
-4.89003e-09
1.96216e-09
-1.68497e-08
-5.76936e-09
2.98818e-09
-6.60357e-09
4.5585e-09
-7.73211e-10
-8.79653e-11
-5.91865e-11
-1.48946e-09
-2.59958e-10
-1.73426e-10
-2.14599e-09
-4.25978e-10
-2.79329e-10
-2.76512e-09
-5.92257e-10
-3.77804e-10
-3.36966e-09
-7.67305e-10
-4.6968e-10
-3.98503e-09
-9.59624e-10
-5.53349e-10
-4.64163e-09
-1.17837e-09
-6.24228e-10
-5.37728e-09
-1.43398e-09
-6.74033e-10
-6.23948e-09
-1.73864e-09
-6.89896e-10
-7.28645e-09
-2.1065e-09
-6.5344e-10
-8.58448e-09
-2.553e-09
-5.40011e-10
-1.01959e-08
-3.09241e-09
-3.18584e-10
-1.21443e-08
-3.73126e-09
4.6047e-11
-1.43272e-08
-4.45173e-09
5.81072e-10
-1.63087e-08
-5.17176e-09
1.24955e-09
-5.7476e-09
2.52123e-09
-8.48698e-10
-7.02985e-11
-8.85844e-11
-1.63261e-09
-2.06578e-10
-2.61538e-10
-2.34651e-09
-3.34863e-10
-4.27722e-10
-3.01246e-09
-4.57795e-10
-5.92831e-10
-3.65231e-09
-5.78439e-10
-7.64646e-10
-4.28972e-09
-6.97902e-10
-9.5059e-10
-4.95212e-09
-8.15218e-10
-1.15823e-09
-5.67285e-09
-9.27185e-10
-1.39567e-09
-6.49316e-09
-1.02829e-09
-1.67184e-09
-7.46326e-09
-1.11091e-09
-1.99643e-09
-8.64071e-09
-1.16617e-09
-2.37919e-09
-1.00817e-08
-1.18558e-09
-2.82781e-09
-1.18145e-08
-1.16417e-09
-3.34305e-09
-1.37674e-08
-1.10734e-09
-3.90663e-09
-1.56042e-08
-1.06622e-09
-4.45696e-09
-7.08668e-10
-4.70785e-09
-6.10547e-11
-1.6898e-11
-3.07471e-12
-1.1773e-10
-5.00882e-11
-8.77825e-12
-1.69948e-10
-8.25723e-11
-1.33039e-11
-2.19788e-10
-1.15908e-10
-1.6069e-11
-2.69686e-10
-1.52314e-10
-1.62597e-11
-3.22787e-10
-1.94394e-10
-1.25285e-11
-3.83427e-10
-2.45518e-10
-2.75242e-12
-4.57765e-10
-3.10321e-10
1.62643e-11
-5.54573e-10
-3.95411e-10
4.91224e-11
-6.8602e-10
-5.10299e-10
1.02089e-10
-8.68002e-10
-6.686e-10
1.83026e-10
-1.11873e-09
-8.89215e-10
3.00408e-10
-1.45253e-09
-1.19628e-09
4.60376e-10
-1.86149e-09
-1.61228e-09
6.60008e-10
-2.26484e-09
-2.11826e-09
8.72348e-10
-3.25111e-09
1.2251e-09
-1.81519e-10
-3.29533e-11
-9.42491e-12
-3.49856e-10
-9.76219e-11
-2.69588e-11
-5.04637e-10
-1.60754e-10
-4.10553e-11
-6.51857e-10
-2.25277e-10
-5.00878e-11
-7.98481e-10
-2.9535e-10
-5.17758e-11
-9.53427e-10
-3.75787e-10
-4.23037e-11
-1.12889e-09
-4.72713e-10
-1.56329e-11
-1.3421e-09
-5.94424e-10
3.73489e-11
-1.61737e-09
-7.52513e-10
1.29782e-10
-1.98807e-09
-9.63213e-10
2.79595e-10
-2.49701e-09
-1.2487e-09
5.09284e-10
-3.1912e-09
-1.63716e-09
8.42945e-10
-4.10194e-09
-2.15813e-09
1.29719e-09
-5.19036e-09
-2.8233e-09
1.86018e-09
-6.21955e-09
-3.56616e-09
2.44826e-09
-4.46008e-09
3.23953e-09
-2.97316e-10
-4.74056e-11
-1.62971e-11
-5.72545e-10
-1.4032e-10
-4.67822e-11
-8.24621e-10
-2.30687e-10
-7.18697e-11
-1.0628e-09
-3.22474e-10
-8.92243e-11
-1.29764e-09
-4.21308e-10
-9.55534e-11
-1.54244e-09
-5.33539e-10
-8.52208e-11
-1.8151e-09
-6.67051e-10
-4.9219e-11
-2.14056e-09
-8.32255e-10
2.61128e-11
-2.55346e-09
-1.04328e-09
1.6055e-10
-3.10044e-09
-1.31921e-09
3.81193e-10
-3.83941e-09
-1.68461e-09
7.22204e-10
-4.82972e-09
-2.16748e-09
1.22021e-09
-6.0996e-09
-2.78962e-09
1.8997e-09
-7.56617e-09
-3.53974e-09
2.73867e-09
-8.88137e-09
-4.31541e-09
3.60237e-09
-5.11752e-09
4.61463e-09
-4.05929e-10
-5.96225e-11
-2.39059e-11
-7.80785e-10
-1.76302e-10
-6.89372e-11
-1.12226e-09
-2.89255e-10
-1.07066e-10
-1.44194e-09
-4.03081e-10
-1.35736e-10
-1.7527e-09
-5.24294e-10
-1.51306e-10
-2.07035e-09
-6.60004e-10
-1.47272e-10
-2.41568e-09
-8.18734e-10
-1.13054e-10
-2.81694e-09
-1.01135e-09
-3.24699e-11
-3.31258e-09
-1.25206e-09
1.18054e-10
-3.9529e-09
-1.55922e-09
3.71067e-10
-4.79781e-09
-1.95501e-09
7.68057e-10
-5.90353e-09
-2.46203e-09
1.35439e-09
-7.28412e-09
-3.09189e-09
2.16188e-09
-8.82606e-09
-3.81884e-09
3.16586e-09
-1.015e-08
-4.5343e-09
4.20294e-09
-5.19106e-09
5.41977e-09
-5.0542e-10
-6.91463e-11
-3.23307e-11
-9.70818e-10
-2.04233e-10
-9.36856e-11
-1.39206e-09
-3.34312e-10
-1.47165e-10
-1.78207e-09
-4.64207e-10
-1.90547e-10
-2.15473e-09
-6.00742e-10
-2.20601e-10
-2.52645e-09
-7.51059e-10
-2.31035e-10
-2.91814e-09
-9.23321e-10
-2.11295e-10
-3.35735e-09
-1.12744e-09
-1.45013e-10
-3.88043e-09
-1.37575e-09
-8.12536e-12
-4.53317e-09
-1.68326e-09
2.32906e-10
-5.36724e-09
-2.06674e-09
6.21585e-10
-6.42549e-09
-2.54073e-09
1.20735e-09
-7.70468e-09
-3.10698e-09
2.0293e-09
-9.0807e-09
-3.73273e-09
3.07223e-09
-1.02085e-08
-4.31968e-09
4.17356e-09
-4.80336e-09
5.53367e-09
-5.94527e-10
-7.57025e-11
-4.15001e-11
-1.14032e-09
-2.23333e-10
-1.20812e-10
-1.63093e-09
-3.64696e-10
-1.918e-10
-2.07972e-09
-5.04481e-10
-2.53108e-10
-2.50044e-09
-6.49345e-10
-3.0263e-10
-2.90866e-09
-8.05889e-10
-3.35315e-10
-3.32332e-09
-9.81195e-10
-3.42143e-10
-3.7685e-09
-1.18329e-09
-3.08773e-10
-4.27467e-09
-1.42147e-09
-2.13894e-10
-4.87844e-09
-1.706e-09
-2.75248e-11
-5.61803e-09
-2.04673e-09
2.89939e-10
-6.51894e-09
-2.44878e-09
7.85653e-10
-7.56122e-09
-2.90318e-09
1.50309e-09
-8.62176e-09
-3.37026e-09
2.44603e-09
-9.42204e-09
-3.7651e-09
3.48501e-09
-4.00998e-09
4.91065e-09
-6.72619e-10
-7.91887e-11
-5.11988e-11
-1.28825e-09
-2.33346e-10
-1.49651e-10
-1.83787e-09
-3.80142e-10
-2.39771e-10
-2.33456e-09
-5.23876e-10
-3.21495e-10
-2.79123e-09
-6.70691e-10
-3.94406e-10
-3.22168e-09
-8.26299e-10
-4.5548e-10
-3.64195e-09
-9.96334e-10
-4.98375e-10
-4.07142e-09
-1.18659e-09
-5.12475e-10
-4.53363e-09
-1.403e-09
-4.81751e-10
-5.05544e-09
-1.65102e-09
-3.83574e-10
-5.66241e-09
-1.93381e-09
-1.87874e-10
-6.366e-09
-2.24786e-09
1.42293e-10
-7.13573e-09
-2.57415e-09
6.45751e-10
-7.85367e-09
-2.86387e-09
1.34369e-09
-8.29689e-09
-3.03584e-09
2.16972e-09
-2.80736e-09
3.53844e-09
-7.3954e-10
-6.10919e-11
-7.96463e-11
-1.41458e-09
-1.79165e-10
-2.34449e-10
-2.0134e-09
-2.89211e-10
-3.81106e-10
-2.54846e-09
-3.92717e-10
-5.23382e-10
-3.03142e-09
-4.9128e-10
-6.66712e-10
-3.47414e-09
-5.84334e-10
-8.15788e-10
-3.88963e-09
-6.6881e-10
-9.74773e-10
-4.29296e-09
-7.38684e-10
-1.14736e-09
-4.70185e-09
-7.84497e-10
-1.33658e-09
-5.13607e-09
-7.9304e-10
-1.54407e-09
-5.61401e-09
-7.47521e-10
-1.7683e-09
-6.14324e-09
-6.28782e-10
-2.00081e-09
-6.69929e-09
-4.19168e-10
-2.21928e-09
-7.18984e-09
-1.14904e-10
-2.37661e-09
-7.44732e-09
2.19025e-10
-2.3983e-09
1.08466e-09
-1.57646e-09
-5.19732e-11
-1.51112e-11
-2.45921e-12
-9.94223e-11
-4.46399e-11
-6.97819e-12
-1.41557e-10
-7.30838e-11
-1.04242e-11
-1.79434e-10
-1.01518e-10
-1.22296e-11
-2.14332e-10
-1.31539e-10
-1.16073e-11
-2.47974e-10
-1.64948e-10
-7.28768e-12
-2.82874e-10
-2.04013e-10
2.6956e-12
-3.22812e-10
-2.5179e-10
2.1255e-11
-3.7346e-10
-3.12558e-10
5.25015e-11
-4.43016e-10
-3.92308e-10
1.01886e-10
-5.42486e-10
-4.99181e-10
1.75967e-10
-6.84641e-10
-6.43421e-10
2.81338e-10
-8.7967e-10
-8.35754e-10
4.21983e-10
-1.12363e-09
-1.08134e-09
5.94047e-10
-1.36898e-09
-1.35911e-09
7.7473e-10
-1.93577e-09
1.0834e-09
-1.54553e-10
-2.94596e-11
-7.55376e-12
-2.95507e-10
-8.6972e-11
-2.1483e-11
-4.20381e-10
-1.42217e-10
-3.22797e-11
-5.32149e-10
-1.97188e-10
-3.83463e-11
-6.34351e-10
-2.54844e-10
-3.74633e-11
-7.31707e-10
-3.18464e-10
-2.60187e-11
-8.31029e-10
-3.92082e-10
1.60237e-12
-9.42507e-10
-4.81038e-10
5.37322e-11
-1.08131e-09
-5.92644e-10
1.42147e-10
-1.26914e-09
-7.36857e-10
2.82463e-10
-1.53459e-09
-9.26566e-10
4.93415e-10
-1.90941e-09
-1.17634e-09
7.93494e-10
-2.41487e-09
-1.49715e-09
1.19248e-09
-3.0283e-09
-1.88228e-09
1.67465e-09
-3.61396e-09
-2.27758e-09
2.16732e-09
-2.62558e-09
2.82238e-09
-2.53263e-10
-4.2355e-11
-1.31104e-11
-4.83798e-10
-1.2493e-10
-3.74435e-11
-6.8713e-10
-2.0392e-10
-5.68512e-11
-8.67618e-10
-2.81961e-10
-6.90012e-11
-1.03028e-09
-3.62978e-10
-7.06409e-11
-1.18163e-09
-4.51168e-10
-5.63797e-11
-1.33086e-09
-5.51512e-10
-1.77718e-11
-1.49153e-09
-6.70385e-10
5.77709e-11
-1.68352e-09
-8.16222e-10
1.88102e-10
-1.93471e-09
-1.00005e-09
3.96972e-10
-2.28056e-09
-1.23527e-09
7.12916e-10
-2.75741e-09
-1.53508e-09
1.16378e-09
-3.38153e-09
-1.90453e-09
1.7625e-09
-4.10374e-09
-2.32317e-09
2.47867e-09
-4.74074e-09
-2.71936e-09
3.1918e-09
-3.02897e-09
3.97955e-09
-3.4604e-10
-5.3226e-11
-1.93234e-11
-6.60214e-10
-1.5682e-10
-5.54828e-11
-9.35651e-10
-2.55401e-10
-8.53294e-11
-1.17737e-09
-3.51914e-10
-1.06228e-10
-1.39084e-09
-4.50765e-10
-1.1448e-10
-1.58278e-09
-5.56431e-10
-1.03747e-10
-1.76234e-09
-6.73927e-10
-6.39643e-11
-1.9426e-09
-8.09314e-10
1.99883e-11
-2.14222e-09
-9.70174e-10
1.69693e-10
-2.38654e-09
-1.16582e-09
4.14088e-10
-2.7059e-09
-1.40657e-09
7.88332e-10
-3.12736e-09
-1.70072e-09
1.32736e-09
-3.65292e-09
-2.04698e-09
2.04822e-09
-4.22023e-09
-2.42035e-09
2.91337e-09
-4.66767e-09
-2.75669e-09
3.77238e-09
-3.01118e-09
4.71062e-09
-4.31327e-10
-6.1664e-11
-2.62696e-11
-8.21783e-10
-1.81456e-10
-7.58519e-11
-1.16172e-09
-2.94775e-10
-1.18211e-10
-1.45608e-09
-4.04543e-10
-1.50903e-10
-1.70977e-09
-5.1519e-10
-1.70454e-10
-1.92828e-09
-6.30886e-10
-1.70538e-10
-2.11847e-09
-7.55887e-10
-1.40864e-10
-2.28958e-09
-8.94823e-10
-6.57772e-11
-2.45409e-09
-1.05285e-09
7.72781e-11
-2.62761e-09
-1.23539e-09
3.18915e-10
-2.82609e-09
-1.44696e-09
6.97157e-10
-3.05749e-09
-1.68815e-09
1.25173e-09
-3.30539e-09
-1.94987e-09
2.00673e-09
-3.51061e-09
-2.20613e-09
2.93103e-09
-3.59099e-09
-2.41346e-09
3.86839e-09
-2.5689e-09
4.94282e-09
-5.08154e-10
-6.7431e-11
-3.38943e-11
-9.66772e-10
-1.98169e-10
-9.8387e-11
-1.36318e-09
-3.21066e-10
-1.55217e-10
-1.70167e-09
-4.38755e-10
-2.02613e-10
-1.98586e-09
-5.55321e-10
-2.37969e-10
-2.21903e-09
-6.74211e-10
-2.55893e-10
-2.40439e-09
-7.98402e-10
-2.47203e-10
-2.54547e-09
-9.30436e-10
-1.97653e-10
-2.64596e-09
-1.07219e-09
-8.64699e-11
-2.70836e-09
-1.2241e-09
1.14926e-10
-2.7301e-09
-1.38338e-09
4.43002e-10
-2.69567e-09
-1.5405e-09
9.38497e-10
-2.56695e-09
-1.67432e-09
1.63326e-09
-2.28988e-09
-1.75045e-09
2.51517e-09
-1.88486e-09
-1.74216e-09
3.44989e-09
-1.6721e-09
4.63671e-09
-5.76073e-10
-7.0448e-11
-4.20174e-11
-1.09453e-09
-2.06772e-10
-1.2253e-10
-1.53964e-09
-3.34124e-10
-1.95343e-10
-1.91471e-09
-4.5468e-10
-2.59748e-10
-2.22178e-09
-5.71949e-10
-3.14527e-10
-2.4616e-09
-6.88453e-10
-3.55948e-10
-2.63357e-09
-8.05729e-10
-3.76994e-10
-2.73545e-09
-9.24134e-10
-3.66378e-10
-2.76256e-09
-1.04233e-09
-3.07394e-10
-2.7056e-09
-1.15609e-09
-1.76839e-10
-2.54621e-09
-1.25599e-09
5.54437e-11
-2.24934e-09
-1.32312e-09
4.2501e-10
-1.75652e-09
-1.32311e-09
9.65748e-10
-1.00497e-09
-1.20397e-09
1.68767e-09
-7.67899e-11
-9.31035e-10
2.50875e-09
-2.6312e-10
3.75741e-09
-6.35007e-10
-5.03529e-11
-7.07672e-11
-1.20516e-09
-1.47396e-10
-2.07471e-10
-1.69186e-09
-2.36996e-10
-3.34447e-10
-2.09737e-09
-3.19754e-10
-4.53354e-10
-2.42227e-09
-3.96161e-10
-5.67039e-10
-2.6652e-09
-4.64572e-10
-6.7711e-10
-2.82252e-09
-5.2074e-10
-7.83818e-10
-2.88782e-09
-5.57224e-10
-8.85751e-10
-2.85098e-09
-5.62743e-10
-9.792e-10
-2.69623e-09
-5.21664e-10
-1.05694e-09
-2.39851e-09
-4.14038e-10
-1.10602e-09
-1.91816e-09
-2.17068e-10
-1.10406e-09
-1.1974e-09
8.96981e-11
-1.0144e-09
-1.81785e-10
5.08269e-10
-7.84857e-10
1.03585e-09
9.62295e-10
-3.71674e-10
1.96139e-09
1.08602e-09
-4.37877e-11
-1.34508e-11
-1.83224e-12
-8.2873e-11
-3.95633e-11
-5.17023e-12
-1.1577e-10
-6.41965e-11
-7.62044e-12
-1.42545e-10
-8.79397e-11
-8.69101e-12
-1.63332e-10
-1.11752e-10
-7.70482e-12
-1.78433e-10
-1.36606e-10
-3.59008e-12
-1.88531e-10
-1.63605e-10
5.29007e-12
-1.95045e-10
-1.94142e-10
2.13254e-11
-2.00665e-10
-2.30059e-10
4.78288e-11
-2.10052e-10
-2.73762e-10
8.90821e-11
-2.30507e-10
-3.28116e-10
1.5004e-10
-2.72107e-10
-3.95745e-10
2.35354e-10
-3.46127e-10
-4.77215e-10
3.47267e-10
-4.59137e-10
-5.678e-10
4.8189e-10
-5.93591e-10
-6.53447e-10
6.21459e-10
-8.10817e-10
8.61327e-10
-1.30255e-10
-2.62154e-11
-5.63857e-12
-2.46394e-10
-7.70568e-11
-1.5953e-11
-3.43882e-10
-1.24871e-10
-2.36744e-11
-4.22762e-10
-1.70712e-10
-2.74118e-11
-4.83198e-10
-2.16318e-10
-2.5247e-11
-5.25712e-10
-2.6338e-10
-1.4121e-11
-5.51713e-10
-3.13744e-10
1.0653e-11
-5.6441e-10
-3.69645e-10
5.59289e-11
-5.70182e-10
-4.33961e-10
1.31219e-10
-5.80337e-10
-5.10323e-10
2.48808e-10
-6.12729e-10
-6.028e-10
4.22831e-10
-6.91794e-10
-7.14342e-10
6.6618e-10
-8.43715e-10
-8.42882e-10
9.8365e-10
-1.08031e-09
-9.74589e-10
1.35971e-09
-1.35633e-09
-1.0793e-09
1.73713e-09
-1.03617e-09
2.23098e-09
-2.13594e-10
-3.76705e-11
-9.81965e-12
-4.03654e-10
-1.10619e-10
-2.79171e-11
-5.62386e-10
-1.78908e-10
-4.19328e-11
-6.89407e-10
-2.43838e-10
-4.98149e-11
-7.84281e-10
-3.07612e-10
-4.87247e-11
-8.46739e-10
-3.72212e-10
-3.40645e-11
-8.77259e-10
-4.39606e-10
1.25697e-12
-8.78121e-10
-5.11976e-10
6.76543e-11
-8.55021e-10
-5.91927e-10
1.79629e-10
-8.19114e-10
-6.82538e-10
3.55959e-10
-7.8889e-10
-7.86894e-10
6.1823e-10
-7.90064e-10
-9.06298e-10
9.85696e-10
-8.49817e-10
-1.0361e-09
1.46351e-09
-9.79747e-10
-1.15915e-09
2.0216e-09
-1.14325e-09
-1.244e-09
2.56378e-09
-1.20847e-09
3.13653e-09
-2.92159e-10
-4.7302e-11
-1.45356e-11
-5.51437e-10
-1.38734e-10
-4.15754e-11
-7.66528e-10
-2.23826e-10
-6.33753e-11
-9.36094e-10
-3.03869e-10
-7.75714e-11
-1.05832e-09
-3.81155e-10
-8.0876e-11
-1.13088e-09
-4.57467e-10
-6.782e-11
-1.15129e-09
-5.34215e-10
-2.98641e-11
-1.11756e-09
-6.12539e-10
4.56281e-11
-1.02941e-09
-6.93359e-10
1.76369e-10
-8.89793e-10
-7.77288e-10
3.85491e-10
-7.06481e-10
-8.64147e-10
6.99906e-10
-4.92973e-10
-9.51844e-10
1.14406e-09
-2.677e-10
-1.03446e-09
1.7249e-09
-5.24277e-11
-1.10064e-09
2.40409e-09
1.20121e-10
-1.1368e-09
3.05948e-09
-1.12197e-09
3.73875e-09
-3.64746e-10
-5.47466e-11
-1.98529e-11
-6.87497e-10
-1.60351e-10
-5.71443e-11
-9.53243e-10
-2.57976e-10
-8.84263e-11
-1.15923e-09
-3.4866e-10
-1.11426e-10
-1.30158e-09
-4.34436e-10
-1.22951e-10
-1.37488e-09
-5.16469e-10
-1.17433e-10
-1.372e-09
-5.95039e-10
-8.59914e-11
-1.28402e-09
-6.69444e-10
-1.5331e-11
-1.10049e-09
-7.37768e-10
1.1338e-10
-8.09766e-10
-7.96478e-10
3.25087e-10
-3.9993e-10
-8.39801e-10
6.49595e-10
1.38498e-10
-8.59241e-10
1.11573e-09
8.03314e-10
-8.44631e-10
1.73606e-09
1.55233e-09
-7.90515e-10
2.47585e-09
2.23099e-09
-7.1144e-10
3.20457e-09
-6.68241e-10
3.99686e-09
-4.30646e-10
-5.97984e-11
-2.57326e-11
-8.10637e-10
-1.74898e-10
-7.45077e-11
-1.12125e-09
-2.80549e-10
-1.16891e-10
-1.35804e-09
-3.77356e-10
-1.51092e-10
-1.51474e-09
-4.66847e-10
-1.74547e-10
-1.58239e-09
-5.49303e-10
-1.82333e-10
-1.54852e-09
-6.23573e-10
-1.66312e-10
-1.39632e-09
-6.86729e-10
-1.14069e-10
-1.10358e-09
-7.3349e-10
-7.79425e-12
-6.41689e-10
-7.55335e-10
1.76511e-10
2.47148e-11
-7.3931e-10
4.68506e-10
9.34156e-10
-6.67049e-10
8.99425e-10
2.10994e-09
-5.1654e-10
1.48978e-09
3.49819e-09
-2.74613e-10
2.22025e-09
4.80514e-09
2.47747e-11
2.97304e-09
2.67387e-10
3.88006e-09
-4.89575e-10
-6.23982e-11
-3.2035e-11
-9.20542e-10
-1.82248e-10
-9.3232e-11
-1.27067e-09
-2.91488e-10
-1.47988e-10
-1.53387e-09
-3.90211e-10
-1.95322e-10
-1.70159e-09
-4.79325e-10
-2.3373e-10
-1.76164e-09
-5.58173e-10
-2.59545e-10
-1.6968e-09
-6.24206e-10
-2.66238e-10
-1.48337e-09
-6.7243e-10
-2.43556e-10
-1.08923e-09
-6.94571e-10
-1.76569e-10
-4.71662e-10
-6.77766e-10
-4.48797e-11
4.24236e-10
-6.02696e-10
1.77393e-10
1.66285e-09
-4.41328e-10
5.19472e-10
3.29806e-09
-1.56366e-10
1.00651e-09
5.29605e-09
2.88729e-10
1.63939e-09
7.28733e-09
8.75701e-10
2.33888e-09
1.78915e-09
3.34813e-09
-5.41516e-10
-3.85345e-11
-6.26056e-11
-1.01743e-09
-1.12621e-10
-1.82625e-10
-1.40244e-09
-1.80462e-10
-2.91315e-10
-1.68912e-09
-2.42106e-10
-3.88279e-10
-1.86722e-09
-2.97382e-10
-4.73822e-10
-1.92227e-09
-3.44251e-10
-5.46497e-10
-1.83399e-09
-3.78334e-10
-6.02684e-10
-1.57461e-09
-3.92333e-10
-6.35983e-10
-1.10672e-09
-3.75414e-10
-6.36312e-10
-3.81144e-10
-3.12748e-10
-5.8861e-10
6.64451e-10
-1.85659e-10
-4.71058e-10
2.10225e-09
2.66229e-11
-2.53098e-10
3.99426e-09
3.41294e-10
1.0484e-10
6.31653e-09
7.5604e-10
6.4242e-10
8.71704e-09
1.19683e-09
1.36037e-09
2.0987e-09
3.1759e-09
-3.70624e-11
-1.20562e-11
-1.21074e-12
-6.92472e-11
-3.52916e-11
-3.40134e-12
-9.44654e-11
-5.66913e-11
-4.95829e-12
-1.11928e-10
-7.64148e-11
-5.5194e-12
-1.20776e-10
-9.48575e-11
-4.589e-12
-1.20071e-10
-1.12246e-10
-1.39285e-12
-1.08912e-10
-1.28649e-10
5.23817e-12
-8.67081e-11
-1.4398e-10
1.69924e-11
-5.37313e-11
-1.57968e-10
3.61776e-11
-1.2011e-11
-1.70023e-10
6.57154e-11
3.33786e-11
-1.78855e-10
1.08881e-10
7.28517e-11
-1.81617e-10
1.68574e-10
9.15369e-11
-1.72517e-10
2.45874e-10
7.20152e-11
-1.42243e-10
3.37677e-10
1.0598e-11
-8.51928e-11
4.31862e-10
5.77754e-11
5.93652e-10
-1.10296e-10
-2.34922e-11
-3.73184e-12
-2.05967e-10
-6.87184e-11
-1.05146e-11
-2.80695e-10
-1.10231e-10
-1.54459e-11
-3.31999e-10
-1.48257e-10
-1.74983e-11
-3.57108e-10
-1.83451e-10
-1.52632e-11
-3.52886e-10
-2.16089e-10
-6.52677e-12
-3.1606e-10
-2.46063e-10
1.20645e-11
-2.43913e-10
-2.7287e-10
4.53619e-11
-1.35674e-10
-2.95553e-10
1.00002e-10
5.0946e-12
-3.12497e-10
1.84378e-10
1.66987e-10
-3.20923e-10
3.07829e-10
3.26571e-10
-3.15715e-10
4.78314e-10
4.45855e-10
-2.87541e-10
6.97674e-10
4.78537e-10
-2.22257e-10
9.53767e-10
4.05736e-10
-1.12618e-10
1.20734e-09
1.98749e-10
1.5346e-09
-1.81023e-10
-3.37414e-11
-6.51716e-12
-3.37715e-10
-9.85954e-11
-1.84609e-11
-4.59403e-10
-1.5782e-10
-2.74877e-11
-5.4162e-10
-2.11544e-10
-3.20718e-11
-5.79193e-10
-2.60447e-10
-3.0115e-11
-5.65949e-10
-3.04541e-10
-1.82764e-11
-4.94809e-10
-3.4312e-10
8.53834e-12
-3.58476e-10
-3.74687e-10
5.77309e-11
-1.51083e-10
-3.96853e-10
1.3946e-10
1.28715e-10
-4.06188e-10
2.66601e-10
4.72687e-10
-3.97981e-10
4.5345e-10
8.56044e-10
-3.65858e-10
7.11817e-10
1.23061e-09
-3.01562e-10
1.04278e-09
1.52559e-09
-1.96708e-10
1.42294e-09
1.67326e-09
-5.49088e-11
1.78588e-09
2.11095e-10
2.15732e-09
-2.4795e-10
-4.23387e-11
-9.68089e-12
-4.62004e-10
-1.23555e-10
-2.76056e-11
-6.27013e-10
-1.97239e-10
-4.17809e-11
-7.36175e-10
-2.63232e-10
-5.04271e-11
-7.81344e-10
-3.2196e-10
-5.10885e-11
-7.52333e-10
-3.72827e-10
-3.9761e-11
-6.36558e-10
-4.14061e-10
-1.02668e-11
-4.19243e-10
-4.42516e-10
4.64366e-11
-8.45983e-11
-4.53478e-10
1.42848e-10
3.81285e-10
-4.4057e-10
2.94956e-10
9.84537e-10
-3.95999e-10
5.20739e-10
1.71293e-09
-3.11797e-10
8.35337e-10
2.51926e-09
-1.83264e-10
1.24036e-09
3.30089e-09
-1.62431e-11
1.70554e-09
3.88568e-09
1.61288e-10
2.14568e-09
3.48849e-10
2.58551e-09
-3.10164e-10
-4.89582e-11
-1.32718e-11
-5.77191e-10
-1.42661e-10
-3.81074e-11
-7.81435e-10
-2.27037e-10
-5.86354e-11
-9.13528e-10
-3.01473e-10
-7.31069e-11
-9.61964e-10
-3.65903e-10
-7.90933e-11
-9.11859e-10
-4.18846e-10
-7.24658e-11
-7.43933e-10
-4.57098e-10
-4.6729e-11
-4.33833e-10
-4.75359e-10
7.73593e-12
4.77607e-11
-4.65813e-10
1.04373e-10
7.33263e-10
-4.17891e-10
2.60657e-10
1.65236e-09
-3.18716e-10
4.96836e-10
2.81774e-09
-1.55554e-10
8.31292e-10
4.19448e-09
7.70248e-11
1.26941e-09
5.64322e-09
3.6167e-10
1.78258e-09
6.83677e-09
6.38202e-10
2.27817e-09
7.99184e-10
2.79804e-09
-3.67172e-10
-5.34201e-11
-1.72651e-11
-6.82524e-10
-1.55422e-10
-4.98923e-11
-9.22101e-10
-2.46538e-10
-7.79281e-11
-1.07398e-09
-3.25607e-10
-9.9935e-11
-1.12329e-09
-3.91924e-10
-1.13887e-10
-1.05046e-09
-4.42996e-10
-1.16057e-10
-8.29417e-10
-4.74081e-10
-1.00386e-10
-4.25941e-10
-4.77574e-10
-5.77439e-11
2.03556e-10
-4.423e-10
2.48069e-11
1.11176e-09
-3.52859e-10
1.64415e-10
2.35585e-09
-1.89576e-10
3.81738e-10
3.98178e-09
6.94987e-11
6.97506e-10
5.98209e-09
4.40767e-10
1.12324e-09
8.19835e-09
9.13553e-10
1.64087e-09
1.01332e-08
1.40731e-09
2.16431e-09
1.7447e-09
2.77415e-09
-4.18822e-10
-5.56807e-11
-2.15651e-11
-7.77956e-10
-1.61753e-10
-6.26641e-11
-1.04957e-09
-2.55757e-10
-9.91269e-11
-1.21951e-09
-3.35977e-10