/*--------------------------------*- C++ -*----------------------------------*\
| =========                 |                                                 |
| \\      /  F ield         | foam-extend: Open Source CFD                    |
|  \\    /   O peration     | Version:     3.1                                |
|   \\  /    A nd           | Web:         http://www.extend-project.de       |
|    \\/     M anipulation  |                                                 |
\*---------------------------------------------------------------------------*/
FoamFile
{
    version     2.0;
    format      ascii;
    class       volScalarField;
    location    "3.5";
    object      p;
}
// * * * * * * * * * * * * * * * * * * * * * * * * * * * * * * * * * * * * * //

dimensions      [0 2 -2 0 0 0 0];

internalField   nonuniform List<scalar> 
14592
(
0.0242757
0.0240856
0.0238979
0.0237287
0.023585
0.0234721
0.0233945
0.0233543
0.0233491
0.0233688
0.023391
0.0233741
0.0232468
0.0228845
0.0221059
0.0209955
0.024296
0.0240882
0.023901
0.0237374
0.0235985
0.0234887
0.0234126
0.0233728
0.0233677
0.0233879
0.0234122
0.0233996
0.0232809
0.0229282
0.0220901
0.0206788
0.024288
0.0240648
0.0238728
0.0237091
0.0235695
0.0234577
0.0233792
0.0233381
0.0233355
0.0233655
0.023411
0.0234354
0.0233708
0.023081
0.0222171
0.0204475
0.0242517
0.0240151
0.0238143
0.023645
0.0234999
0.0233817
0.0232966
0.0232512
0.0232501
0.0232924
0.0233676
0.0234467
0.0234683
0.0232975
0.0225083
0.0205011
0.024187
0.0239393
0.0237286
0.0235512
0.0233975
0.0232694
0.0231738
0.0231187
0.0231125
0.0231601
0.0232595
0.0233922
0.023511
0.023499
0.0228925
0.0207907
0.0240952
0.0238384
0.0236181
0.0234306
0.0232657
0.023124
0.0230122
0.0229392
0.0229157
0.0229509
0.0230512
0.0232097
0.0234016
0.0235432
0.0231955
0.0211348
0.0239806
0.0237167
0.0234874
0.0232885
0.0231094
0.0229498
0.0228151
0.0227137
0.0226564
0.0226529
0.0227137
0.0228369
0.0230237
0.0232255
0.0231624
0.0211734
0.0238499
0.023581
0.0233437
0.0231328
0.0229373
0.0227555
0.0225916
0.0224517
0.0223443
0.0222749
0.0222504
0.0222535
0.0222936
0.0222591
0.0223194
0.019471
0.0245087
0.0243099
0.0241214
0.0239608
0.0238358
0.0237526
0.0237174
0.0237353
0.0238077
0.0239301
0.0240882
0.0242534
0.0243773
0.0243744
0.0241604
0.0239263
0.024532
0.0243137
0.0241245
0.0239697
0.0238497
0.0237701
0.023737
0.0237558
0.0238285
0.0239517
0.024112
0.0242813
0.0244133
0.0244178
0.0242004
0.0240399
0.024526
0.0242917
0.0240972
0.0239425
0.0238227
0.0237422
0.0237082
0.0237277
0.023806
0.0239437
0.0241331
0.0243526
0.024558
0.0246595
0.024514
0.0244478
0.0244889
0.0242412
0.0240376
0.0238777
0.0237533
0.0236677
0.0236292
0.0236475
0.0237321
0.0238902
0.024123
0.0244198
0.0247505
0.0250188
0.0250242
0.0250963
0.0244199
0.024161
0.0239472
0.0237789
0.0236463
0.0235517
0.0235042
0.0235155
0.0235997
0.0237708
0.0240416
0.0244156
0.0248812
0.0253627
0.0255917
0.0258251
0.0243202
0.0240521
0.023828
0.0236487
0.023504
0.0233953
0.0233315
0.0233253
0.0233935
0.0235552
0.0238334
0.0242467
0.0248089
0.0254806
0.0259415
0.0263399
0.0241943
0.0239188
0.0236846
0.0234924
0.0233317
0.0232027
0.0231134
0.0230754
0.0231053
0.0232224
0.0234534
0.0238227
0.0243687
0.0250968
0.0257092
0.0259883
0.0240499
0.0237688
0.0235254
0.023319
0.0231388
0.0229837
0.0228597
0.0227758
0.0227449
0.0227801
0.0229008
0.023111
0.0234448
0.023848
0.0242981
0.0225773
0.0247334
0.0245276
0.02434
0.0241896
0.0240844
0.0240318
0.0240396
0.0241152
0.0242631
0.0244831
0.0247659
0.0250903
0.025417
0.0256775
0.0257996
0.0258313
0.0247596
0.0245331
0.0243435
0.0241989
0.0240992
0.0240506
0.024061
0.0241378
0.0242865
0.0245074
0.0247923
0.0251208
0.0254539
0.0257218
0.0258684
0.0260126
0.0247556
0.0245126
0.0243175
0.0241734
0.0240747
0.0240265
0.0240375
0.0241173
0.0242745
0.0245144
0.0248352
0.0252213
0.0256401
0.0260182
0.0262817
0.0265965
0.0247181
0.0244617
0.0242573
0.0241084
0.0240059
0.023954
0.0239627
0.0240445
0.024213
0.0244809
0.0248564
0.0253366
0.0258992
0.0264625
0.0269077
0.0274344
0.0246453
0.0243778
0.0241629
0.0240053
0.0238948
0.0238347
0.023836
0.0239136
0.0240862
0.0243745
0.0247994
0.0253736
0.0260937
0.0268862
0.0275783
0.0282909
0.0245382
0.0242613
0.0240354
0.023866
0.0237428
0.023668
0.0236528
0.0237133
0.0238712
0.0241528
0.0245905
0.0252125
0.0260401
0.0270209
0.0279089
0.0287765
0.0244015
0.0241168
0.02388
0.0236962
0.023555
0.0234575
0.0234141
0.0234395
0.0235551
0.0237869
0.0241707
0.0247398
0.0255382
0.0265448
0.0274749
0.0280726
0.0242436
0.0239529
0.0237057
0.0235056
0.0233419
0.0232144
0.023131
0.0231033
0.0231481
0.0232834
0.0235358
0.0239144
0.0244533
0.0250641
0.02564
0.0237357
0.0249395
0.0247283
0.0245428
0.0244029
0.0243171
0.0242937
0.0243418
0.0244705
0.0246868
0.0249926
0.0253812
0.0258342
0.0263131
0.0267524
0.0270672
0.0271934
0.0249685
0.0247356
0.024547
0.0244129
0.0243329
0.0243139
0.024365
0.0244954
0.0247126
0.0250194
0.0254092
0.0258667
0.0263507
0.0267969
0.0271426
0.0273744
0.0249665
0.0247167
0.0245223
0.0243893
0.0243112
0.0242937
0.024347
0.0244823
0.0247108
0.0250405
0.0254729
0.0259899
0.0265645
0.0271221
0.027594
0.0280026
0.0249287
0.0246657
0.024462
0.0243243
0.0242433
0.0242234
0.0242765
0.0244168
0.0246609
0.0250246
0.0255194
0.0261425
0.0268678
0.0276127
0.0282684
0.0288956
0.0248526
0.0245785
0.024364
0.0242175
0.0241287
0.0241014
0.0241484
0.024287
0.0245391
0.0249291
0.0254813
0.0262085
0.0271021
0.0280757
0.0289705
0.0297757
0.0247388
0.0244552
0.0242291
0.0240702
0.0239679
0.0239252
0.0239555
0.0240774
0.0243159
0.0247013
0.0252697
0.026049
0.027053
0.0282045
0.0292618
0.0301916
0.0245923
0.0243007
0.0240628
0.0238879
0.0237659
0.0236985
0.023698
0.0237818
0.0239744
0.0243054
0.0248141
0.0255325
0.0264953
0.0276451
0.0286713
0.0292374
0.0244221
0.024124
0.0238746
0.0236814
0.0235341
0.0234329
0.0233876
0.0234118
0.023525
0.0237476
0.024108
0.0246122
0.0252831
0.0259896
0.0265558
0.0243442
0.0251176
0.0249027
0.0247194
0.0245892
0.0245208
0.0245231
0.0246062
0.0247804
0.0250541
0.0254304
0.0259032
0.0264528
0.0270389
0.0275919
0.0280141
0.0281728
0.0251489
0.024911
0.0247241
0.0245999
0.0245377
0.0245447
0.0246312
0.0248073
0.0250821
0.0254594
0.025934
0.0264865
0.0270769
0.0276362
0.0280866
0.0283458
0.0251486
0.0248939
0.024701
0.0245781
0.0245185
0.0245281
0.0246181
0.0248008
0.0250889
0.0254915
0.0260093
0.0266243
0.0273077
0.0279753
0.0285493
0.0289795
0.0251108
0.024843
0.0246406
0.0245135
0.0244516
0.02446
0.0245514
0.0247417
0.0250488
0.0254901
0.0260773
0.0268067
0.0276388
0.0284889
0.0292417
0.0298817
0.0250319
0.0247531
0.0245397
0.0244037
0.0243342
0.0243357
0.0244222
0.0246128
0.0249311
0.025403
0.0260529
0.0268903
0.0278957
0.028968
0.0299405
0.0307529
0.0249124
0.024624
0.0243986
0.0242494
0.0241659
0.0241515
0.0242211
0.0243951
0.0247006
0.0251693
0.0258374
0.0267283
0.027844
0.0290836
0.0301958
0.0311058
0.0247575
0.0244607
0.0242228
0.0240565
0.0239517
0.0239107
0.0239473
0.0240808
0.0243374
0.024748
0.0253517
0.0261754
0.0272405
0.028459
0.0294948
0.0299824
0.0245766
0.0242729
0.0240226
0.0238363
0.0237038
0.0236258
0.0236135
0.023682
0.0238522
0.0241449
0.0245879
0.0251807
0.0259326
0.0266772
0.0271938
0.0247222
0.0252592
0.025042
0.0248606
0.0247387
0.0246845
0.0247074
0.0248183
0.0250283
0.0253463
0.0257758
0.0263105
0.0269283
0.0275854
0.0282085
0.0286846
0.028857
0.0252923
0.0250509
0.024866
0.0247501
0.0247023
0.0247303
0.0248449
0.0250569
0.025376
0.0258065
0.0263429
0.026963
0.0276237
0.0282514
0.0287554
0.0290212
0.0252936
0.0250355
0.0248442
0.0247299
0.0246853
0.0247167
0.0248358
0.0250558
0.0253898
0.0258473
0.026428
0.0271127
0.0278649
0.0285964
0.0292191
0.0296498
0.0252557
0.0249846
0.0247838
0.0246655
0.0246193
0.0246504
0.0247723
0.0250016
0.0253572
0.0258565
0.0265102
0.0273105
0.0282123
0.0291207
0.0299153
0.0305473
0.0251747
0.0248927
0.0246807
0.0245534
0.0244998
0.0245244
0.0246423
0.0248734
0.0252423
0.0257751
0.0264951
0.0274069
0.0284816
0.0296051
0.0306034
0.0314033
0.0250507
0.024759
0.0245347
0.0243937
0.0243255
0.0243338
0.0244346
0.0246493
0.0250059
0.0255364
0.0262755
0.0272413
0.0284246
0.0297074
0.03083
0.0317094
0.024889
0.0245889
0.0243514
0.0241924
0.0241016
0.0240819
0.0241479
0.0243201
0.0246256
0.0250952
0.0257665
0.0266604
0.0277866
0.029036
0.0300549
0.0304749
0.0246996
0.0243922
0.0241415
0.0239612
0.0238408
0.0237816
0.0237954
0.0238985
0.0241123
0.0244573
0.0249592
0.025611
0.0264105
0.0271666
0.0276324
0.0249706
0.0253578
0.0251392
0.0249597
0.0248437
0.0247997
0.0248373
0.0249677
0.0252024
0.0255506
0.0260159
0.0265913
0.0272524
0.0279516
0.0286168
0.0291178
0.0292935
0.0253921
0.025149
0.0249659
0.0248562
0.0248189
0.0248619
0.0249963
0.0252335
0.0255831
0.0260492
0.026627
0.0272908
0.0279943
0.0286609
0.0291902
0.0294538
0.0253944
0.0251346
0.0249449
0.0248372
0.0248036
0.0248507
0.0249905
0.0252365
0.0256024
0.0260977
0.0267198
0.0274495
0.028243
0.0290096
0.0296535
0.0300771
0.0253564
0.0250837
0.0248845
0.0247729
0.0247381
0.0247855
0.0249289
0.0251856
0.0255746
0.0261133
0.0268108
0.0276559
0.0285998
0.029539
0.0303493
0.0309684
0.0252739
0.0249902
0.0247797
0.024659
0.0246169
0.024658
0.024798
0.0250574
0.025461
0.0260349
0.0268007
0.0277594
0.0288753
0.0300246
0.0310289
0.0318125
0.0251468
0.0248534
0.0246302
0.0244954
0.0244383
0.0244628
0.0245854
0.0248283
0.0252198
0.0257918
0.0265772
0.02759
0.0288128
0.0301168
0.031236
0.0320883
0.0249805
0.0246784
0.0244416
0.0242881
0.0242076
0.0242029
0.0242895
0.0244884
0.0248272
0.0253364
0.0260516
0.0269893
0.0281509
0.0294142
0.030414
0.030785
0.0247851
0.0244755
0.024225
0.0240492
0.0239377
0.0238918
0.023924
0.024051
0.0242946
0.0246745
0.0252149
0.0259036
0.0267303
0.0274881
0.0279142
0.0251298
0.0254068
0.0251872
0.0250082
0.0248948
0.0248556
0.0249
0.0250395
0.0252857
0.025648
0.0261296
0.0267236
0.0274038
0.0281199
0.0288065
0.0293161
0.0294963
0.0254415
0.025197
0.025014
0.0249066
0.0248738
0.0249236
0.0250669
0.0253154
0.0256788
0.0261603
0.0267571
0.0274401
0.0281621
0.028846
0.0293865
0.0296537
0.0254443
0.0251834
0.0249935
0.024888
0.0248592
0.0249131
0.0250621
0.0253197
0.0256998
0.0262123
0.0268518
0.0276003
0.0284111
0.0291921
0.0298456
0.0302706
0.0254065
0.0251328
0.0249333
0.0248241
0.0247943
0.0248488
0.0250018
0.0252707
0.0256744
0.0262305
0.0269466
0.0278106
0.0287711
0.0297219
0.0305391
0.031156
0.0253233
0.0250387
0.0248279
0.0247097
0.0246726
0.0247211
0.024871
0.0251431
0.0255622
0.026154
0.0269394
0.0279176
0.0290494
0.0302078
0.0312157
0.0319941
0.0251948
0.0249004
0.024677
0.0245445
0.0244923
0.0245241
0.0246566
0.0249122
0.0253194
0.0259095
0.0267147
0.0277468
0.0289846
0.0302947
0.0314126
0.0322557
0.0250262
0.0247231
0.024486
0.0243345
0.0242585
0.0242607
0.0243567
0.0245678
0.0249216
0.0254481
0.026182
0.0271374
0.0283115
0.0295765
0.0305642
0.0309094
0.0248279
0.0245171
0.0242661
0.0240919
0.0239844
0.0239446
0.0239852
0.0241231
0.0243801
0.0247756
0.0253322
0.026036
0.0268711
0.0276248
0.0280064
0.0251645
0.0231251
0.0230683
0.0229664
0.0228335
0.0226802
0.0225099
0.0223214
0.0221095
0.0218611
0.021558
0.0211751
0.0206807
0.0200387
0.0192147
0.0181809
0.0169441
0.0231335
0.0230775
0.0229786
0.0228484
0.0226976
0.0225299
0.0223446
0.0221349
0.0218902
0.0215918
0.0212155
0.0207283
0.0200937
0.0192772
0.0182468
0.0170117
0.0231292
0.0230695
0.0229708
0.0228416
0.0226921
0.0225267
0.0223448
0.0221413
0.0219051
0.0216187
0.0212563
0.0207877
0.0201756
0.019386
0.0183808
0.0171728
0.0231087
0.0230416
0.0229385
0.022806
0.0226539
0.0224868
0.0223051
0.0221041
0.0218736
0.0215967
0.0212492
0.0208007
0.0202138
0.019456
0.0184833
0.0173127
0.0230725
0.0229971
0.0228868
0.0227474
0.0225886
0.0224153
0.0222286
0.0220249
0.0217948
0.0215224
0.0211842
0.0207508
0.020185
0.0194559
0.0185156
0.0173843
0.0230225
0.0229398
0.0228216
0.0226738
0.0225059
0.0223231
0.0221274
0.0219162
0.021681
0.0214069
0.0210717
0.020647
0.0200965
0.0193914
0.0184824
0.0173913
0.0229616
0.0228732
0.0227481
0.0225922
0.0224147
0.0222215
0.0220148
0.021793
0.0215486
0.0212678
0.0209297
0.0205075
0.0199667
0.0192808
0.0184025
0.0173525
0.0228933
0.0228014
0.022671
0.0225082
0.0223225
0.0221194
0.0219019
0.0216686
0.021413
0.0211224
0.0207772
0.0203527
0.019817
0.019146
0.0182976
0.0172894
0.0231443
0.0230713
0.0229588
0.0228185
0.0226592
0.0224835
0.0222902
0.0220733
0.0218207
0.0215139
0.0211276
0.0206292
0.0199819
0.0191504
0.0181039
0.0168543
0.0231511
0.0230761
0.0229664
0.0228281
0.0226699
0.0224947
0.0223014
0.0220843
0.0218318
0.0215256
0.0211404
0.0206441
0.0200001
0.0191735
0.0181296
0.0168854
0.0231458
0.0230647
0.022954
0.0228152
0.0226564
0.0224807
0.0222878
0.0220727
0.0218245
0.0215257
0.0211517
0.0206714
0.0200458
0.0192437
0.0182223
0.0170065
0.0231259
0.023036
0.0229203
0.0227774
0.0226144
0.022435
0.0222397
0.0220242
0.0217789
0.021487
0.0211247
0.0206615
0.0200588
0.0192869
0.0182946
0.0171149
0.023091
0.0229924
0.02287
0.0227205
0.0225505
0.022364
0.0221622
0.0219422
0.0216953
0.0214059
0.021051
0.0206015
0.0200183
0.0192743
0.0183124
0.0171715
0.0230421
0.0229364
0.0228072
0.0226503
0.0224719
0.0222761
0.022065
0.0218366
0.0215835
0.0212914
0.0209385
0.020497
0.0199288
0.0192092
0.0182788
0.0171789
0.0229815
0.0228709
0.022736
0.0225722
0.0223853
0.0221798
0.0219581
0.0217192
0.0214568
0.0211578
0.020802
0.0203634
0.0198055
0.0191064
0.0182086
0.0171518
0.0229129
0.0227995
0.0226604
0.022491
0.0222969
0.0220825
0.0218508
0.0216011
0.0213281
0.0210199
0.0206578
0.0202179
0.0196666
0.0189844
0.0181199
0.0171072
0.0232068
0.0231134
0.0229857
0.0228339
0.022666
0.0224842
0.0222874
0.0220694
0.0218182
0.0215146
0.0211313
0.0206326
0.0199746
0.0191136
0.0180055
0.0166608
0.0232141
0.0231169
0.0229925
0.0228434
0.0226766
0.0224949
0.0222973
0.0220782
0.0218261
0.0215221
0.0211393
0.0206423
0.0199872
0.0191324
0.0180273
0.0166933
0.023207
0.0231021
0.0229764
0.0228261
0.0226575
0.0224737
0.0222744
0.0220552
0.0218054
0.0215071
0.0211341
0.0206522
0.0200164
0.0191876
0.0181029
0.0167982
0.0231852
0.0230704
0.0229391
0.0227839
0.0226098
0.0224202
0.0222162
0.0219941
0.0217448
0.0214514
0.0210885
0.0206228
0.0200083
0.0192087
0.0181495
0.0168814
0.0231486
0.0230247
0.0228866
0.0227246
0.0225426
0.0223445
0.0221319
0.0219028
0.0216494
0.0213561
0.0209988
0.0205453
0.0199491
0.0191772
0.0181461
0.0169191
0.0230979
0.0229669
0.0228223
0.0226533
0.0224627
0.0222544
0.0220309
0.0217915
0.0215296
0.0212315
0.0208742
0.0204275
0.0198455
0.019099
0.0181004
0.0169203
0.0230352
0.0228992
0.0227495
0.0225742
0.0223755
0.0221573
0.0219224
0.0216711
0.0213981
0.0210913
0.0207295
0.0202845
0.0197128
0.018989
0.0180278
0.0169002
0.0229639
0.0228253
0.0226721
0.0224917
0.0222862
0.0220593
0.021814
0.0215512
0.0212667
0.0209494
0.0205801
0.0201331
0.0195686
0.0188646
0.0179449
0.0168732
0.0233107
0.023197
0.0230536
0.0228907
0.0227157
0.0225309
0.0223353
0.022123
0.0218818
0.0215914
0.0212214
0.0207294
0.0200599
0.0191501
0.0179281
0.0163893
0.0233197
0.0231999
0.0230605
0.0229013
0.0227284
0.0225442
0.0223482
0.0221351
0.0218934
0.0216031
0.0212345
0.0207458
0.0200813
0.0191807
0.0179621
0.0164382
0.0233106
0.0231818
0.0230408
0.0228805
0.0227053
0.0225182
0.0223195
0.0221051
0.0218646
0.0215793
0.0212202
0.0207466
0.0201018
0.0192278
0.0180269
0.0165226
0.0232855
0.0231459
0.0229988
0.0228331
0.0226513
0.0224571
0.0222516
0.0220322
0.0217901
0.0215078
0.0211573
0.0206985
0.0200733
0.0192255
0.0180416
0.0165689
0.0232453
0.023096
0.0229416
0.0227687
0.0225784
0.022374
0.0221579
0.021929
0.0216801
0.0213954
0.021048
0.0205993
0.0199902
0.0191681
0.0180081
0.0165791
0.0231904
0.0230335
0.0228726
0.0226926
0.0224931
0.0222775
0.0220487
0.021807
0.0215467
0.0212541
0.020904
0.0204596
0.0198634
0.0190674
0.0179416
0.0165718
0.0231229
0.0229609
0.0227948
0.0226084
0.0224006
0.0221742
0.0219326
0.0216767
0.0214027
0.0210982
0.0207405
0.0202954
0.0197088
0.0189387
0.0178584
0.0165623
0.0230466
0.0228817
0.022712
0.0225206
0.0223057
0.02207
0.0218167
0.0215476
0.0212594
0.0209415
0.0205733
0.0201238
0.0195438
0.0187979
0.0177725
0.0165601
0.0234512
0.0233182
0.0231605
0.0229889
0.0228104
0.0226274
0.0224393
0.0222408
0.0220198
0.0217549
0.0214119
0.0209397
0.020265
0.0192966
0.0179134
0.0160625
0.0234622
0.0233203
0.0231667
0.0229996
0.0228239
0.0226422
0.0224542
0.0222552
0.0220339
0.0217694
0.0214283
0.0209604
0.0202936
0.0193339
0.0179551
0.0161128
0.0234515
0.0232993
0.0231436
0.0229756
0.0227975
0.0226122
0.0224206
0.0222192
0.0219981
0.0217375
0.0214049
0.0209505
0.0203
0.01936
0.0179837
0.0161298
0.0234232
0.0232593
0.0230968
0.022923
0.0227378
0.0225443
0.0223444
0.0221361
0.0219112
0.0216515
0.0213254
0.0208827
0.0202472
0.0193233
0.0179506
0.016102
0.0233782
0.0232041
0.023034
0.0228527
0.0226584
0.0224539
0.0222417
0.0220217
0.0217874
0.0215225
0.0211969
0.0207608
0.0201376
0.0192321
0.0178769
0.016067
0.0233174
0.0231354
0.0229583
0.0227696
0.0225658
0.0223492
0.0221228
0.0218876
0.0216391
0.0213629
0.0210312
0.0205962
0.0199841
0.0191031
0.0177863
0.0160534
0.0232432
0.0230556
0.0228729
0.0226776
0.0224649
0.0222365
0.0219956
0.0217439
0.0214781
0.021186
0.0208425
0.0204031
0.0197999
0.018949
0.0176915
0.0160733
0.0231595
0.0229688
0.022782
0.0225811
0.0223606
0.0221217
0.0218672
0.0215993
0.0213157
0.0210055
0.0206463
0.0201978
0.0196
0.0187806
0.0175987
0.0161237
0.0236243
0.0234736
0.0233042
0.0231273
0.0229499
0.0227748
0.022602
0.0224272
0.0222391
0.0220159
0.0217204
0.0212924
0.0206372
0.0196155
0.0180276
0.0157156
0.0236372
0.0234752
0.0233092
0.0231375
0.0229635
0.0227902
0.0226179
0.0224428
0.0222544
0.0220315
0.0217375
0.0213127
0.0206618
0.0196394
0.0180325
0.0156661
0.023626
0.0234521
0.0232834
0.0231108
0.0229345
0.0227575
0.022581
0.0224027
0.0222135
0.0219935
0.0217072
0.0212933
0.0206517
0.0196241
0.0179723
0.0154777
0.0235948
0.0234085
0.0232324
0.0230539
0.0228705
0.0226847
0.022499
0.0223126
0.0221183
0.021898
0.0216169
0.0212122
0.0205787
0.0195425
0.017857
0.015267
0.0235447
0.0233479
0.0231636
0.0229774
0.0227847
0.0225876
0.0223889
0.0221894
0.021984
0.0217569
0.021475
0.021075
0.0204509
0.0194173
0.0177335
0.0151223
0.0234769
0.0232718
0.0230799
0.0228859
0.0226835
0.0224737
0.0222598
0.0220434
0.0218214
0.0215802
0.0212899
0.0208887
0.0202758
0.0192616
0.0176236
0.0150803
0.0233942
0.0231831
0.0229849
0.0227836
0.0225715
0.0223489
0.0221187
0.021883
0.0216401
0.0213782
0.021071
0.0206602
0.0200567
0.0190769
0.0175286
0.0151557
0.023301
0.0230864
0.0228835
0.0226755
0.0224542
0.0222191
0.0219727
0.0217171
0.0214509
0.0211637
0.0208323
0.0204029
0.0198015
0.0188637
0.0174426
0.015352
0.0238245
0.0236583
0.0234798
0.0233017
0.0231308
0.0229703
0.0228215
0.0226816
0.0225411
0.0223797
0.0221602
0.0218173
0.0212375
0.0202251
0.0184368
0.0154856
0.0238394
0.0236597
0.0234838
0.0233112
0.0231442
0.022986
0.022838
0.022698
0.0225571
0.0223958
0.0221775
0.0218364
0.0212555
0.0202169
0.0183146
0.0150512
0.0238286
0.0236356
0.0234563
0.023283
0.023114
0.0229522
0.0228
0.0226566
0.0225148
0.0223569
0.0221473
0.0218185
0.021243
0.0201681
0.0181093
0.0143931
0.0237952
0.0235892
0.023402
0.0232228
0.0230469
0.0228767
0.0227153
0.0225637
0.0224171
0.0222601
0.0220587
0.0217436
0.0211788
0.0200758
0.01791
0.013817
0.02374
0.0235232
0.0233272
0.0231401
0.0229552
0.0227737
0.0225995
0.0224348
0.0222773
0.0221145
0.0219156
0.0216113
0.0210646
0.0199594
0.0177701
0.0134447
0.0236645
0.0234391
0.0232348
0.0230393
0.0228442
0.0226499
0.0224599
0.0222773
0.0221019
0.0219238
0.0217169
0.0214142
0.0208883
0.0198064
0.0176814
0.0132966
0.0235719
0.0233402
0.0231287
0.0229248
0.0227189
0.0225104
0.0223022
0.0220975
0.0218972
0.0216929
0.0214629
0.0211441
0.0206291
0.0195852
0.0176132
0.0133936
0.0234674
0.0232317
0.0230146
0.0228025
0.0225854
0.0223619
0.022134
0.0219042
0.0216734
0.0214332
0.0211647
0.0208064
0.0202766
0.0192614
0.0175326
0.0138277
0.0240444
0.0238652
0.0236807
0.0235053
0.0233459
0.0232065
0.0230901
0.0229959
0.0229176
0.0228391
0.0227284
0.0225265
0.0221258
0.0213168
0.0196581
0.0163551
0.0240619
0.0238669
0.023684
0.0235142
0.0233592
0.0232225
0.0231072
0.0230131
0.0229346
0.0228562
0.022747
0.0225479
0.0221472
0.0213124
0.0194565
0.0154359
0.0240522
0.0238428
0.0236558
0.0234855
0.023329
0.0231894
0.0230705
0.0229737
0.0228954
0.0228228
0.0227273
0.0225504
0.0221728
0.0213217
0.019251
0.0143853
0.0240171
0.0237944
0.0235989
0.0234229
0.0232601
0.0231129
0.0229858
0.0228821
0.0228013
0.0227341
0.0226556
0.0225095
0.0221716
0.0213376
0.0191554
0.0136038
0.023957
0.0237233
0.0235185
0.0233344
0.0231629
0.023005
0.0228659
0.0227504
0.0226608
0.0225921
0.022525
0.0224079
0.0221211
0.0213419
0.0191771
0.0131576
0.0238735
0.0236308
0.023417
0.0232238
0.0230416
0.0228706
0.0227154
0.0225817
0.0224742
0.0223909
0.0223192
0.022214
0.0219719
0.0212648
0.0192347
0.0129817
0.0237701
0.0235207
0.0232989
0.0230958
0.0229013
0.0227143
0.0225388
0.02238
0.0222431
0.0221275
0.022025
0.021895
0.0216608
0.0209994
0.0192097
0.0129992
0.0236529
0.023399
0.0231704
0.0229574
0.0227493
0.022544
0.0223443
0.0221542
0.0219776
0.0218122
0.0216499
0.0214441
0.0211436
0.0204085
0.0189306
0.0131517
0.0237118
0.0234402
0.0231966
0.0229738
0.0227607
0.0225544
0.0223571
0.0221723
0.0220048
0.0218529
0.0217136
0.0215403
0.0213015
0.0206434
0.0193636
0.0139726
0.0235761
0.0233044
0.0230567
0.0228234
0.0225931
0.0223623
0.0221314
0.0219015
0.0216735
0.02144
0.0211871
0.020854
0.0203702
0.0194177
0.0177507
0.0142584
0.023452
0.0231832
0.0229342
0.0226928
0.0224478
0.0221953
0.0219348
0.0216659
0.0213869
0.0210885
0.0207504
0.020323
0.0197272
0.0188194
0.0173704
0.015413
0.0233478
0.0230849
0.0228378
0.0225915
0.0223358
0.022067
0.0217845
0.0214874
0.0211729
0.0208323
0.0204451
0.0199795
0.0193641
0.0185616
0.0173571
0.0159591
0.0232684
0.023015
0.0227725
0.0225248
0.0222633
0.0219853
0.0216904
0.0213775
0.0210437
0.0206815
0.0202726
0.0197965
0.0191943
0.0184626
0.0174389
0.0162773
0.0232152
0.0229747
0.0227388
0.0224925
0.0222301
0.0219501
0.0216521
0.021335
0.0209955
0.0206266
0.020212
0.0197358
0.0191521
0.0184613
0.0175597
0.0165327
0.023184
0.0229604
0.0227316
0.0224884
0.0222288
0.0219525
0.021659
0.0213472
0.0210133
0.0206495
0.0202409
0.0197714
0.0192048
0.018535
0.0176956
0.0167273
0.0231626
0.022962
0.0227395
0.0224989
0.0222425
0.0219712
0.0216851
0.0213831
0.0210611
0.0207105
0.0203166
0.0198606
0.0193103
0.0186506
0.0178285
0.0168651
0.0238966
0.0236122
0.0233611
0.0231403
0.0229387
0.0227538
0.0225889
0.0224495
0.022343
0.0222722
0.0222411
0.0222109
0.022152
0.021687
0.020385
0.0143703
0.0237454
0.0234602
0.0232037
0.0229698
0.022747
0.0225316
0.0223247
0.022128
0.0219438
0.0217658
0.021582
0.0213275
0.0209201
0.0199764
0.0181381
0.0140111
0.0236069
0.023324
0.023065
0.0228208
0.0225794
0.0223365
0.0220917
0.0218445
0.0215931
0.021328
0.0210275
0.0206355
0.0200591
0.0191172
0.0175345
0.0152988
0.0234902
0.0232129
0.022955
0.022704
0.0224486
0.0221845
0.0219106
0.0216257
0.0213263
0.0210032
0.0206338
0.0201825
0.0195661
0.0187392
0.0174463
0.0159274
0.0234011
0.0231331
0.0228795
0.0226258
0.0223622
0.0220853
0.0217938
0.0214866
0.0211599
0.0208061
0.0204049
0.0199349
0.0193271
0.0185805
0.0174976
0.0162659
0.023341
0.023086
0.0228392
0.0225863
0.0223204
0.0220393
0.021742
0.0214272
0.0210911
0.0207267
0.0203163
0.0198436
0.0192552
0.0185551
0.0176156
0.0165435
0.0233054
0.0230682
0.0228292
0.0225793
0.0223158
0.0220377
0.0217444
0.0214343
0.0211034
0.020744
0.02034
0.0198745
0.0193061
0.0186305
0.0177663
0.0167647
0.0232815
0.0230693
0.0228377
0.0225908
0.0223309
0.0220583
0.021773
0.0214736
0.021156
0.0208115
0.0204243
0.0199747
0.0194258
0.0187627
0.0179206
0.0169266
0.0240754
0.0237808
0.0235245
0.0233074
0.0231186
0.022956
0.0228245
0.022731
0.0226857
0.0226937
0.0227623
0.0228509
0.0229195
0.0225339
0.0211549
0.0145549
0.023909
0.0236128
0.0233498
0.023117
0.022903
0.0227041
0.0225223
0.02236
0.0222205
0.0220979
0.0219797
0.0217932
0.0214417
0.02048
0.0184911
0.0139068
0.0237562
0.0234616
0.0231949
0.0229494
0.0227129
0.022481
0.0222532
0.0220292
0.0218073
0.0215766
0.0213137
0.0209543
0.0203919
0.0194111
0.017707
0.0152404
0.0236269
0.0233376
0.023071
0.0228169
0.0225632
0.0223053
0.0220416
0.0217706
0.0214883
0.0211847
0.0208343
0.0203975
0.0197795
0.0189257
0.0175503
0.0159183
0.0235279
0.0232477
0.0229851
0.022727
0.0224627
0.0221884
0.0219021
0.0216023
0.0212848
0.0209412
0.0205494
0.0200862
0.0194737
0.0187116
0.0175742
0.0162761
0.0234608
0.0231937
0.0229379
0.02268
0.0224121
0.0221314
0.0218364
0.0215256
0.0211947
0.0208364
0.0204316
0.0199634
0.0193714
0.0186624
0.0176884
0.0165732
0.0234209
0.0231723
0.0229248
0.02267
0.022404
0.0221257
0.021834
0.0215271
0.0212008
0.020847
0.0204487
0.0199883
0.019419
0.0187383
0.0178513
0.0168178
0.0233945
0.0231727
0.0229338
0.0226825
0.0224206
0.0221482
0.021865
0.0215697
0.0212579
0.0209207
0.0205412
0.0200987
0.0195521
0.0188861
0.0180255
0.0170023
0.02424
0.0239373
0.0236776
0.0234652
0.0232893
0.0231481
0.0230481
0.0229975
0.0230079
0.0230853
0.0232371
0.0234154
0.0235662
0.0232024
0.0217104
0.0146135
0.0240593
0.0237544
0.0234867
0.0232562
0.0230512
0.0228685
0.0227107
0.022581
0.0224829
0.02241
0.0223481
0.0222145
0.0218985
0.0209049
0.018777
0.0138427
0.023893
0.0235891
0.0233165
0.023071
0.0228401
0.0226192
0.0224082
0.0222067
0.0220126
0.0218141
0.0215846
0.0212517
0.0206967
0.0196763
0.0178643
0.0152131
0.0237517
0.0234528
0.0231795
0.0229236
0.0226725
0.0224213
0.0221681
0.0219112
0.021646
0.0213612
0.0210288
0.0206045
0.0199835
0.0191032
0.0176543
0.0159247
0.0236434
0.0233533
0.0230835
0.0228225
0.0225586
0.0222876
0.0220074
0.0217157
0.0214079
0.0210751
0.0206927
0.0202363
0.0196193
0.0188422
0.0176569
0.0162997
0.0235697
0.0232928
0.0230298
0.0227683
0.0224994
0.0222202
0.0219285
0.0216225
0.0212977
0.0209462
0.0205476
0.0200843
0.0194895
0.0187723
0.0177681
0.0166141
0.0235256
0.0232678
0.0230137
0.0227552
0.022488
0.0222105
0.0219213
0.0216185
0.0212975
0.02095
0.0205578
0.0201028
0.0195334
0.0188482
0.0179412
0.0168788
0.0234972
0.0232676
0.023023
0.0227685
0.0225058
0.0222346
0.0219546
0.0216642
0.0213587
0.0210293
0.0206577
0.0202224
0.0196784
0.0190098
0.018133
0.0170832
0.0243824
0.0240736
0.0238119
0.0236043
0.0234401
0.0233181
0.0232454
0.0232316
0.0232888
0.0234227
0.0236388
0.0238807
0.0240813
0.0237099
0.0221063
0.0146126
0.0241891
0.0238777
0.0236067
0.0233789
0.0231825
0.0230143
0.0228776
0.022776
0.0227132
0.0226814
0.0226639
0.0225685
0.0222723
0.021241
0.018994
0.0137918
0.0240109
0.0236999
0.0234231
0.0231783
0.0229529
0.0227421
0.022546
0.0223643
0.0221946
0.0220232
0.021821
0.0215076
0.0209546
0.0198967
0.0179946
0.0152014
0.0238593
0.0235528
0.0232746
0.0230178
0.0227696
0.0225247
0.0222812
0.0220371
0.0217872
0.021519
0.0212019
0.0207873
0.0201622
0.0192575
0.0177475
0.0159391
0.0237427
0.0234448
0.0231696
0.0229066
0.0226438
0.0223763
0.0221019
0.021818
0.0215193
0.0211964
0.0208227
0.020372
0.0197509
0.0189603
0.0177351
0.0163286
0.0236631
0.0233784
0.02311
0.022846
0.022577
0.0222996
0.0220115
0.0217104
0.0213915
0.0210468
0.020654
0.0201954
0.0195984
0.0188739
0.0178448
0.0166579
0.0236154
0.0233503
0.0230912
0.0228301
0.0225625
0.0222863
0.022
0.0217014
0.0213857
0.0210444
0.0206581
0.0202082
0.019639
0.01895
0.0180263
0.0169392
0.0235852
0.0233495
0.0231007
0.0228441
0.0225813
0.0223119
0.0220352
0.0217497
0.0214505
0.0211283
0.0207642
0.0203355
0.0197939
0.0191232
0.0182326
0.0171601
0.0244958
0.0241828
0.0239198
0.0237166
0.0235622
0.0234556
0.0234048
0.0234197
0.023513
0.0236892
0.0239517
0.0242362
0.0244651
0.0240761
0.0223818
0.0145974
0.0242925
0.0239764
0.0237033
0.0234781
0.0232889
0.0231325
0.0230127
0.0229334
0.022898
0.0228975
0.0229125
0.0228428
0.0225563
0.0214898
0.0191506
0.0137555
0.0241046
0.0237885
0.0235088
0.023265
0.0230444
0.0228419
0.022658
0.0224922
0.0223417
0.0221914
0.0220094
0.0217095
0.0211552
0.020066
0.0180947
0.0151996
0.0239447
0.0236327
0.0233509
0.0230939
0.0228483
0.0226088
0.0223735
0.0221398
0.0219023
0.0216474
0.0213421
0.0209345
0.020305
0.0193804
0.0178238
0.015957
0.0238213
0.0235177
0.0232388
0.0229746
0.0227129
0.0224487
0.0221793
0.021902
0.021611
0.0212963
0.0209296
0.0204834
0.0198588
0.0190572
0.0178017
0.0163573
0.023737
0.0234466
0.0231744
0.0229087
0.02264
0.0223644
0.0220796
0.021783
0.0214693
0.0211302
0.0207424
0.0202877
0.0196892
0.0189589
0.0179106
0.016698
0.0236865
0.0234159
0.0231532
0.0228905
0.0226229
0.0223482
0.0220646
0.0217698
0.0214588
0.0211227
0.0207415
0.0202959
0.0197271
0.0190351
0.0180986
0.0169919
0.0236548
0.0234146
0.0231629
0.022905
0.0226425
0.0223749
0.0221013
0.0218201
0.0215263
0.0212102
0.0208524
0.0204291
0.0198896
0.0192172
0.0183159
0.0172255
0.0245745
0.024259
0.0239956
0.0237958
0.0236486
0.0235531
0.0235175
0.0235525
0.0236705
0.0238753
0.0241684
0.0244801
0.0247253
0.0243219
0.0225668
0.0145987
0.0243642
0.0240453
0.0237711
0.0235481
0.0233643
0.0232165
0.0231087
0.0230449
0.0230287
0.0230496
0.0230864
0.0230333
0.0227519
0.0216597
0.0192576
0.0137393
0.0241696
0.0238504
0.0235691
0.0233264
0.0231094
0.0229131
0.0227379
0.0225834
0.0224464
0.0223109
0.0221429
0.0218518
0.0212958
0.0201837
0.0181657
0.0152064
0.0240038
0.0236884
0.0234047
0.0231478
0.0229045
0.0226691
0.0224397
0.0222138
0.0219852
0.0217399
0.0214429
0.0210401
0.0204076
0.019469
0.0178818
0.0159781
0.0238758
0.0235687
0.0232875
0.0230229
0.0227624
0.0225007
0.0222353
0.021963
0.0216779
0.0213693
0.0210078
0.020565
0.0199384
0.0191293
0.0178543
0.0163849
0.0237882
0.0234943
0.0232197
0.0229533
0.0226852
0.0224113
0.0221291
0.021836
0.0215264
0.0211917
0.0208079
0.0203562
0.0197571
0.0190229
0.0179622
0.016732
0.0237357
0.0234618
0.0231969
0.0229334
0.0226662
0.0223929
0.0221115
0.0218197
0.0215123
0.0211803
0.020803
0.0203607
0.0197924
0.0190983
0.0181535
0.0170332
0.0237031
0.02346
0.0232065
0.022948
0.022686
0.0224198
0.0221487
0.0218707
0.0215809
0.0212694
0.0209161
0.0204968
0.0199588
0.0192852
0.0183768
0.0172738
0.024614
0.0242971
0.0240329