/*--------------------------------*- C++ -*----------------------------------*\
| =========                 |                                                 |
| \\      /  F ield         | foam-extend: Open Source CFD                    |
|  \\    /   O peration     | Version:     3.1                                |
|   \\  /    A nd           | Web:         http://www.extend-project.de       |
|    \\/     M anipulation  |                                                 |
\*---------------------------------------------------------------------------*/
FoamFile
{
    version     2.0;
    format      ascii;
    class       surfaceScalarField;
    location    "3.5";
    object      phi;
}
// * * * * * * * * * * * * * * * * * * * * * * * * * * * * * * * * * * * * * //

dimensions      [0 3 -1 0 0 0 0];

internalField   nonuniform List<scalar> 
41600
(
1.18665e-05
-6.91674e-08
-1.19144e-06
1.20486e-06
1.17773e-05
8.05161e-08
-2.15155e-06
2.16028e-06
1.1554e-05
2.27571e-07
-2.73183e-06
2.72757e-06
1.12278e-05
3.44796e-07
-3.25384e-06
3.23517e-06
1.08199e-05
4.41619e-07
-3.84022e-06
3.80653e-06
1.03538e-05
5.17105e-07
-4.55124e-06
4.50029e-06
9.86217e-06
5.63977e-07
-5.42589e-06
5.35351e-06
9.38738e-06
5.73439e-07
-6.50011e-06
6.40146e-06
8.98058e-06
5.34885e-07
-7.81921e-06
7.69112e-06
8.70323e-06
4.3228e-07
-9.44894e-06
9.29401e-06
8.63234e-06
2.35742e-07
-1.14882e-05
1.13234e-05
8.86064e-06
-1.07963e-07
-1.40795e-05
1.39591e-05
9.44359e-06
-6.70075e-07
-1.73766e-05
1.74637e-05
1.00865e-05
-1.4244e-06
-2.13036e-05
2.20851e-05
8.86306e-06
-1.6819e-06
-2.4514e-05
2.74194e-05
-2.42635e-07
-1.97602e-05
2.8872e-05
3.30476e-05
-2.23156e-08
-1.40662e-06
1.45857e-06
3.27973e-05
2.54984e-07
-3.29017e-06
3.366e-06
3.23782e-05
5.74326e-07
-4.6945e-06
4.76687e-06
3.17824e-05
8.74649e-07
-5.96662e-06
6.03249e-06
3.10168e-05
1.14366e-06
-7.3248e-06
7.38842e-06
3.01044e-05
1.36615e-06
-8.9064e-06
8.96978e-06
2.90868e-05
1.52196e-06
-1.08007e-05
1.08603e-05
2.80195e-05
1.59214e-06
-1.30761e-05
1.31247e-05
2.69629e-05
1.55892e-06
-1.58068e-05
1.58394e-05
2.5972e-05
1.39913e-06
-1.90977e-05
1.91217e-05
2.50862e-05
1.06685e-06
-2.31118e-05
2.31665e-05
2.42985e-05
4.74228e-07
-2.80899e-05
2.82954e-05
2.34385e-05
-5.27752e-07
-3.428e-05
3.49976e-05
2.17067e-05
-2.02639e-06
-4.13565e-05
4.36903e-05
1.62471e-05
-3.14516e-06
-4.61626e-05
5.30854e-05
-1.47829e-06
-3.42823e-05
5.17809e-05
5.13463e-05
1.78612e-09
-1.12757e-06
1.19125e-06
5.10798e-05
4.01834e-07
-3.04196e-06
3.16153e-06
5.06546e-05
8.60691e-07
-4.68869e-06
4.82762e-06
5.00542e-05
1.32342e-06
-6.26007e-06
6.41169e-06
4.92601e-05
1.76408e-06
-7.94256e-06
8.11619e-06
4.82624e-05
2.15681e-06
-9.89329e-06
1.01003e-05
4.70677e-05
2.47176e-06
-1.22329e-05
1.24777e-05
4.5699e-05
2.68263e-06
-1.50531e-05
1.53313e-05
4.41854e-05
2.76872e-06
-1.8438e-05
1.87418e-05
4.25424e-05
2.71059e-06
-2.24919e-05
2.28235e-05
4.07431e-05
2.46962e-06
-2.73769e-05
2.77735e-05
3.86614e-05
1.96262e-06
-3.33549e-05
3.39482e-05
3.59136e-05
1.01141e-06
-4.07635e-05
4.19721e-05
3.13023e-05
-6.42355e-07
-4.94055e-05
5.26327e-05
2.15617e-05
-2.5722e-06
-5.55399e-05
6.47075e-05
-2.2695e-06
-4.12014e-05
6.35771e-05
6.66193e-05
-1.54055e-09
-8.84973e-07
9.42727e-07
6.63926e-05
5.04372e-07
-2.53344e-06
2.65759e-06
6.6032e-05
1.06458e-06
-4.06349e-06
4.22025e-06
6.55313e-05
1.64377e-06
-5.58625e-06
5.76661e-06
6.48599e-05
2.21958e-06
-7.2418e-06
7.45768e-06
6.39752e-05
2.76874e-06
-9.18124e-06
9.45404e-06
6.28357e-05
3.26387e-06
-1.15473e-05
1.18946e-05
6.14102e-05
3.68109e-06
-1.44628e-05
1.48899e-05
5.96751e-05
4.00371e-06
-1.80351e-05
1.85352e-05
5.75951e-05
4.22458e-06
-2.23767e-05
2.29428e-05
5.50858e-05
4.32707e-06
-2.76411e-05
2.82929e-05
5.19299e-05
4.26998e-06
-3.40818e-05
3.49304e-05
4.75976e-05
3.91733e-06
-4.21187e-05
4.3545e-05
4.04979e-05
2.93979e-06
-5.18748e-05
5.53923e-05
2.67207e-05
1.03343e-06
-5.97172e-05
6.98888e-05
-9.90906e-07
-4.53355e-05
7.0805e-05
7.88317e-05
-1.67239e-08
-7.31201e-07
7.80258e-07
7.86463e-05
5.787e-07
-2.1239e-06
2.23495e-06
7.83533e-05
1.2139e-06
-3.4484e-06
3.59206e-06
7.79599e-05
1.87223e-06
-4.78886e-06
4.95384e-06
7.74382e-05
2.54419e-06
-6.25528e-06
6.45236e-06
7.67302e-05
3.2199e-06
-7.98574e-06
8.24254e-06
7.57591e-05
3.8872e-06
-1.01358e-05
1.04836e-05
7.44428e-05
4.53812e-06
-1.28609e-05
1.33202e-05
7.27009e-05
5.17225e-06
-1.63074e-05
1.68807e-05
7.04416e-05
5.80708e-06
-2.06196e-05
2.12964e-05
6.75278e-05
6.45993e-06
-2.59657e-05
2.67466e-05
6.36657e-05
7.16371e-06
-3.25968e-05
3.35652e-05
5.82371e-05
7.8735e-06
-4.09605e-05
4.24329e-05
4.92752e-05
8.4561e-06
-5.15824e-05
5.5028e-05
3.19326e-05
7.92818e-06
-6.12572e-05
7.17051e-05
3.24863e-06
-4.77855e-05
7.55082e-05
8.79821e-05
-3.16043e-08
-6.312e-07
6.73347e-07
8.78292e-05
6.35238e-07
-1.83638e-06
1.93269e-06
8.75937e-05
1.32602e-06
-2.98204e-06
3.10542e-06
8.7292e-05
2.03793e-06
-4.13974e-06
4.27582e-06
8.69052e-05
2.77603e-06
-5.39863e-06
5.5536e-06
8.63755e-05
3.54777e-06
-6.87914e-06
7.08089e-06
8.56117e-05
4.36257e-06
-8.73541e-06
9.02391e-06
8.45011e-05
5.2377e-06
-1.11419e-05
1.15529e-05
8.29231e-05
6.19976e-06
-1.42792e-05
1.48297e-05
8.07403e-05
7.30487e-06
-1.83302e-05
1.90152e-05
7.7776e-05
8.61628e-06
-2.34932e-05
2.43012e-05
7.36715e-05
1.02806e-05
-3.00379e-05
3.10255e-05
6.77647e-05
1.23595e-05
-3.83921e-05
3.98129e-05
5.78263e-05
1.52151e-05
-4.94438e-05
5.26232e-05
3.76577e-05
1.78696e-05
-6.07707e-05
7.09979e-05
1.15494e-05
-4.86346e-05
7.80216e-05
9.40749e-05
-3.8774e-08
-5.60205e-07
5.97719e-07
9.39483e-05
6.77005e-07
-1.62998e-06
1.71478e-06
9.37659e-05
1.40232e-06
-2.63886e-06
2.74498e-06
9.35488e-05
2.14459e-06
-3.64935e-06
3.7598e-06
9.3287e-05
2.92215e-06
-4.73518e-06
4.85087e-06
9.29305e-05
3.75901e-06
-5.99818e-06
6.1434e-06
9.23896e-05
4.68617e-06
-7.57981e-06
7.79712e-06
9.15451e-05
5.7473e-06
-9.65445e-06
9.98935e-06
9.02638e-05
6.99835e-06
-1.24157e-05
1.28985e-05
8.83959e-05
8.53763e-06
-1.60666e-05
1.67017e-05
8.57624e-05
1.04772e-05
-2.082e-05
2.15926e-05
8.19976e-05
1.31074e-05
-2.69587e-05
2.78968e-05
7.64248e-05
1.66236e-05
-3.48452e-05
3.61539e-05
6.68259e-05
2.20797e-05
-4.55649e-05
4.82993e-05
4.52872e-05
3.00112e-05
-5.80906e-05
6.74878e-05
2.64917e-05
-4.72882e-05
7.76626e-05
9.71141e-05
-5.07395e-07
5.42001e-07
-3.42808e-08
9.70111e-05
-1.47601e-06
1.55279e-06
7.03202e-07
9.68835e-05
-2.38015e-06
2.47363e-06
1.4365e-06
9.6755e-05
-3.27523e-06
3.367e-06
2.18127e-06
9.66225e-05
-4.22446e-06
4.312e-06
2.96716e-06
9.64453e-05
-5.31493e-06
5.41889e-06
3.8322e-06
9.61439e-05
-6.67225e-06
6.83431e-06
4.82554e-06
9.56104e-05
-8.45733e-06
8.7265e-06
6.01156e-06
9.4726e-05
-1.0854e-05
1.12679e-05
7.46885e-06
9.33726e-05
-1.40545e-05
1.46243e-05
9.32119e-06
9.14251e-05
-1.82511e-05
1.89636e-05
1.17123e-05
8.86729e-05
-2.36829e-05
2.45316e-05
1.50109e-05
8.45741e-05
-3.06092e-05
3.17571e-05
1.95744e-05
7.74242e-05
-3.97936e-05
4.184e-05
2.71832e-05
5.88473e-05
-5.25678e-05
5.98843e-05
4.12717e-05
-4.21969e-05
7.06259e-05
5.69388e-05
1.26647e-05
-8.74212e-08
-1.13014e-06
1.25106e-05
5.38836e-08
-2.05136e-06
1.21955e-05
1.98326e-07
-2.61505e-06
1.17529e-05
3.12219e-07
-3.12348e-06
1.12014e-05
4.04395e-07
-3.69306e-06
1.05581e-05
4.74093e-07
-4.38209e-06
9.84766e-06
5.12822e-07
-5.22823e-06
9.10193e-06
5.09809e-07
-6.26419e-06
8.35805e-06
4.51955e-07
-7.52728e-06
7.65526e-06
3.20173e-07
-9.06632e-06
7.0326e-06
8.0825e-08
-1.09464e-05
6.5183e-06
-3.24683e-07
-1.32405e-05
6.07918e-06
-9.76799e-07
-1.59606e-05
5.41602e-06
-1.85278e-06
-1.87877e-05
3.5369e-06
-2.50632e-06
-2.01285e-05
-1.90809e-06
-1.43106e-05
3.53268e-05
-4.50245e-08
-1.30627e-06
3.49667e-05
2.11578e-07
-3.08778e-06
3.43818e-05
5.19507e-07
-4.43078e-06
3.3566e-05
8.10392e-07
-5.64903e-06
3.25206e-05
1.06967e-06
-6.94464e-06
3.12569e-05
1.28068e-06
-8.44924e-06
2.98001e-05
1.41951e-06
-1.02506e-05
2.81857e-05
1.4619e-06
-1.24138e-05
2.64481e-05
1.38375e-06
-1.50011e-05
2.46052e-05
1.15433e-06
-1.8089e-05
2.2638e-05
7.16679e-07
-2.17805e-05
2.0447e-05
-2.94407e-08
-2.61941e-05
1.77707e-05
-1.27548e-06
-3.1305e-05
1.39609e-05
-3.07737e-06
-3.6322e-05
7.7148e-06
-4.70245e-06
-3.77204e-05
-3.90237e-06
-2.45615e-05
5.49199e-05
-2.22954e-08
-1.03123e-06
5.45476e-05
3.59186e-07
-2.81727e-06
5.39484e-05
8.04053e-07
-4.37412e-06
5.31072e-05
1.25564e-06
-5.86409e-06
5.20002e-05
1.68627e-06
-7.45212e-06
5.06039e-05
2.06803e-06
-9.28439e-06
4.89034e-05
2.36598e-06
-1.14788e-05
4.68925e-05
2.54631e-06
-1.41266e-05
4.45628e-05
2.57965e-06
-1.73041e-05
4.18788e-05
2.43692e-06
-2.10905e-05
3.87378e-05
2.06619e-06
-2.55855e-05
3.49025e-05
1.36223e-06
-3.09112e-05
2.98417e-05
1.24393e-07
-3.71025e-05
2.25779e-05
-1.92053e-06
-4.32985e-05
1.16776e-05
-4.20756e-06
-4.51345e-05
-4.35088e-06
-2.9059e-05
7.12714e-05
-2.76287e-08
-8.04266e-07
7.09552e-05
4.70468e-07
-2.32854e-06
7.04362e-05
1.02311e-06
-3.7635e-06
6.97078e-05
1.59692e-06
-5.19916e-06
6.8736e-05
2.16944e-06
-6.75323e-06
6.74667e-05
2.71628e-06
-8.56011e-06
6.58346e-05
3.20579e-06
-1.07551e-05
6.37713e-05
3.60717e-06
-1.34603e-05
6.12016e-05
3.89581e-06
-1.67815e-05
5.80198e-05
4.05674e-06
-2.08147e-05
5.40404e-05
4.06453e-06
-2.56601e-05
4.88967e-05
3.86368e-06
-3.14396e-05
4.18617e-05
3.29311e-06
-3.82524e-05
3.14903e-05
2.01851e-06
-4.54424e-05
1.59564e-05
-5.09823e-08
-4.83398e-05
-2.17765e-06
-3.15332e-05
8.43436e-05
-4.54794e-08
-6.63938e-07
8.40832e-05
5.54417e-07
-1.94743e-06
8.36503e-05
1.19312e-06
-3.18557e-06
8.30497e-05
1.85709e-06
-4.44842e-06
8.22514e-05
2.53816e-06
-5.8257e-06
8.11898e-05
3.22675e-06
-7.43454e-06
7.97669e-05
3.90874e-06
-9.41588e-06
7.78603e-05
4.57266e-06
-1.19198e-05
7.5327e-05
5.21438e-06
-1.50927e-05
7.1985e-05
5.84983e-06
-1.90706e-05
6.75674e-05
6.49798e-06
-2.39816e-05
6.15969e-05
7.1934e-06
-2.9956e-05
5.31787e-05
7.9013e-06
-3.71505e-05
4.03891e-05
8.44648e-06
-4.52208e-05
2.06152e-05
7.97313e-06
-4.95075e-05
3.54261e-06
-3.28703e-05
9.41372e-05
-6.28547e-08
-5.7331e-07
9.39198e-05
6.19265e-07
-1.68378e-06
9.35606e-05
1.32496e-06
-2.75475e-06
9.30715e-05
2.05492e-06
-3.84843e-06
9.24317e-05
2.81662e-06
-5.03725e-06
9.15794e-05
3.61925e-06
-6.41942e-06
9.04079e-05
4.47314e-06
-8.12831e-06
8.87676e-05
5.39697e-06
-1.03259e-05
8.6472e-05
6.42029e-06
-1.31895e-05
8.32817e-05
7.60788e-06
-1.6898e-05
7.88687e-05
9.04013e-06
-2.16224e-05
7.26585e-05
1.08895e-05
-2.75237e-05
6.36673e-05
1.32845e-05
-3.47841e-05
4.95165e-05
1.65774e-05
-4.34238e-05
2.61156e-05
1.97271e-05
-4.91238e-05
1.41595e-05
-3.31159e-05
0.000100658
-7.12333e-08
-5.08777e-07
0.000100474
6.68215e-07
-1.49514e-06
0.000100181
1.4181e-06
-2.43939e-06
9.9795e-05
2.18959e-06
-3.39761e-06
9.93026e-05
3.00419e-06
-4.43032e-06
9.86531e-05
3.8889e-06
-5.6184e-06
9.77475e-05
4.87845e-06
-7.07949e-06
9.64367e-05
6.02297e-06
-8.96968e-06
9.45275e-05
7.38842e-06
-1.14747e-05
9.17691e-05
9.09368e-06
-1.4794e-05
8.78301e-05
1.12839e-05
-1.91248e-05
8.21059e-05
1.43131e-05
-2.4658e-05
7.36122e-05
1.84904e-05
-3.15574e-05
5.97297e-05
2.50738e-05
-4.01789e-05
3.41577e-05
3.44146e-05
-4.72061e-05
3.30839e-05
-3.2036e-05
0.00010391
-4.60401e-07
-6.60578e-08
0.000103755
-1.35392e-06
7.01076e-07
0.000103528
-2.20139e-06
1.46635e-06
0.000103247
-3.0532e-06
2.2491e-06
0.000102906
-3.96171e-06
3.0826e-06
0.000102466
-4.9948e-06
4.00878e-06
0.000101843
-6.25406e-06
5.08279e-06
0.000100909
-7.87976e-06
6.37965e-06
9.94953e-05
-1.00454e-05
7.99334e-06
9.73974e-05
-1.29407e-05
1.00777e-05
9.43648e-05
-1.67515e-05
1.28169e-05
8.9963e-05
-2.16546e-05
1.66866e-05
8.34251e-05
-2.77498e-05
2.21688e-05
7.2443e-05
-3.53979e-05
3.16603e-05
4.94983e-05
-4.35699e-05
4.83614e-05
-2.902e-05
6.94233e-05
1.33454e-05
-1.04476e-07
-1.02299e-06
1.31292e-05
2.86139e-08
-1.86374e-06
1.27274e-05
1.69369e-07
-2.38261e-06
1.21754e-05
2.79513e-07
-2.85099e-06
1.14901e-05
3.66267e-07
-3.37401e-06
1.06836e-05
4.29001e-07
-4.00466e-06
9.77402e-06
4.58034e-07
-4.77666e-06
8.78608e-06
4.40787e-07
-5.71704e-06
7.74917e-06
3.62257e-07
-6.85262e-06
6.69364e-06
2.02119e-07
-8.21291e-06
5.64934e-06
-7.34901e-08
-9.82863e-06
4.64276e-06
-5.20257e-07
-1.17136e-05
3.67938e-06
-1.20693e-06
-1.37903e-05
2.66401e-06
-2.11361e-06
-1.56587e-05
1.35023e-06
-2.90244e-06
-1.59123e-05
-2.41309e-06
-1.05441e-05
3.72775e-05
-6.55972e-08
-1.16182e-06
3.68156e-05
1.71595e-07
-2.76892e-06
3.60764e-05
4.68111e-07
-3.9903e-06
3.50566e-05
7.49198e-07
-5.09885e-06
3.37535e-05
9.97723e-07
-6.27301e-06
3.21694e-05
1.19544e-06
-7.63165e-06
3.03169e-05
1.31486e-06
-9.25487e-06
2.82166e-05
1.32671e-06
-1.11994e-05
2.58878e-05
1.20162e-06
-1.35117e-05
2.33332e-05
9.04481e-07
-1.62367e-05
2.05199e-05
3.78439e-07
-1.94191e-05
1.7367e-05
-4.87307e-07
-2.30743e-05
1.37141e-05
-1.84214e-06
-2.70168e-05
9.31904e-06
-3.7181e-06
-3.03225e-05
4.08989e-06
-5.47732e-06
-2.99164e-05
-4.75502e-06
-1.81217e-05
5.79816e-05
-4.36296e-08
-9.05975e-07
5.75131e-05
3.21783e-07
-2.49899e-06
5.67549e-05
7.54129e-07
-3.90186e-06
5.56924e-05
1.19515e-06
-5.2476e-06
5.42986e-05
1.61545e-06
-6.676e-06
5.254e-05
1.98513e-06
-8.31556e-06
5.0385e-05
2.26442e-06
-1.02733e-05
4.7805e-05
2.41222e-06
-1.26321e-05
4.47658e-05
2.39137e-06
-1.54547e-05
4.12049e-05
2.16641e-06
-1.87915e-05
3.69989e-05
1.68224e-06
-2.26834e-05
3.19015e-05
8.36277e-07
-2.71373e-05
2.55015e-05
-5.53491e-07
-3.19912e-05
1.73139e-05
-2.66528e-06
-3.61638e-05
7.43509e-06
-4.98388e-06
-3.57491e-05
-5.11986e-06
-2.12486e-05
7.52581e-05
-5.05261e-08
-7.03236e-07
7.48617e-05
4.42513e-07
-2.05293e-06
7.41997e-05
9.89933e-07
-3.33727e-06
7.32639e-05
1.55983e-06
-4.62805e-06
7.20173e-05
2.12973e-06
-6.02087e-06
7.03972e-05
2.67432e-06
-7.62919e-06
6.83209e-05
3.15794e-06
-9.57236e-06
6.56914e-05
3.54288e-06
-1.19615e-05
6.23953e-05
3.79676e-06
-1.48908e-05
5.82816e-05
3.8988e-06
-1.84335e-05
5.31197e-05
3.82202e-06
-2.2638e-05
4.65159e-05
3.51815e-06
-2.75176e-05
3.78093e-05
2.84887e-06
-3.29482e-05
2.6086e-05
1.57758e-06
-3.7962e-05
1.13427e-05
-3.67645e-07
-3.82127e-05
-2.47018e-06
-2.28286e-05
8.90673e-05
-7.0651e-08
-5.80255e-07
8.874e-05
5.36268e-07
-1.71383e-06
8.81821e-05
1.18089e-06
-2.81864e-06
8.73941e-05
1.8522e-06
-3.95283e-06
8.63428e-05
2.54346e-06
-5.18811e-06
8.49565e-05
3.24568e-06
-6.61957e-06
8.31224e-05
3.94297e-06
-8.36679e-06
8.06883e-05
4.61996e-06
-1.05628e-05
7.74644e-05
5.26792e-06
-1.334e-05
7.32064e-05
5.90105e-06
-1.68149e-05
6.75762e-05
6.542e-06
-2.10714e-05
6.00386e-05
7.24084e-06
-2.6141e-05
4.97061e-05
7.99632e-06
-3.19654e-05
3.51388e-05
8.71675e-06
-3.77926e-05
1.585e-05
8.49257e-06
-3.90789e-05
4.14124e-06
-2.36204e-05
9.94121e-05
-8.99446e-08
-5.01196e-07
9.91368e-05
6.0966e-07
-1.48195e-06
9.86678e-05
1.33235e-06
-2.43721e-06
9.80105e-05
2.08184e-06
-3.42074e-06
9.71397e-05
2.8681e-06
-4.49111e-06
9.59897e-05
3.7023e-06
-5.72599e-06
9.44429e-05
4.59572e-06
-7.23426e-06
9.2324e-05
5.56761e-06
-9.15465e-06
8.93989e-05
6.64859e-06
-1.16451e-05
8.53565e-05
7.90926e-06
-1.48638e-05
7.97776e-05
9.44279e-06
-1.89443e-05
7.20052e-05
1.14491e-05
-2.39596e-05
6.1009e-05
1.41116e-05
-2.99032e-05
4.47786e-05
1.7865e-05
-3.63417e-05
2.1422e-05
2.15541e-05
-3.88287e-05
1.61644e-05
-2.37073e-05
0.000106299
-9.90291e-08
-4.4473e-07
0.000106064
6.66151e-07
-1.31641e-06
0.000105674
1.44235e-06
-2.15921e-06
0.000105137
2.24421e-06
-3.02265e-06
0.000104435
3.09649e-06
-3.9568e-06
0.000103514
4.02932e-06
-5.02482e-06
0.000102269
5.08081e-06
-6.31985e-06
0.000100532
6.30633e-06
-7.9713e-06
9.8068e-05
7.77914e-06
-1.0141e-05
9.45558e-05
9.63344e-06
-1.3006e-05
8.9568e-05
1.20378e-05
-1.6732e-05
8.24013e-05
1.5392e-05
-2.14341e-05
7.20044e-05
2.00787e-05
-2.71275e-05
5.59371e-05
2.74985e-05
-3.37451e-05
2.99403e-05
3.78857e-05
-3.75409e-05
3.7114e-05
-2.30373e-05
0.000109734
-4.02145e-07
-9.28473e-08
0.000109533
-1.19211e-06
7.05972e-07
0.000109218
-1.94922e-06
1.50469e-06
0.000108801
-2.71835e-06
2.32633e-06
0.000108272
-3.54345e-06
3.20787e-06
0.000107588
-4.47726e-06
4.19506e-06
0.000106665
-5.59845e-06
5.34829e-06
0.000105361
-7.02064e-06
6.75154e-06
0.000103476
-8.89265e-06
8.51112e-06
0.000100747
-1.13827e-05
1.08043e-05
9.68422e-05
-1.46532e-05
1.38446e-05
9.12275e-05
-1.88245e-05
1.81765e-05
8.30943e-05
-2.38929e-05
2.4355e-05
7.0107e-05
-2.99475e-05
3.50355e-05
4.63212e-05
-3.51928e-05
5.32944e-05
-2.11537e-05
7.5575e-05
1.39101e-05
-1.19648e-07
-8.74115e-07
1.36371e-05
6.79633e-09
-1.59748e-06
1.31571e-05
1.42549e-07
-2.04518e-06
1.25069e-05
2.49033e-07
-2.4498e-06
1.17027e-05
3.30457e-07
-2.90024e-06
1.07531e-05
3.86279e-07
-3.4414e-06
9.67199e-06
4.05754e-07
-4.10127e-06
8.48053e-06
3.74786e-07
-4.90036e-06
7.20642e-06
2.7715e-07
-5.85566e-06
5.88173e-06
9.26775e-08
-6.9809e-06
4.54433e-06
-2.09278e-07
-8.28196e-06
3.24588e-06
-6.79458e-07
-9.73572e-06
2.05591e-06
-1.36865e-06
-1.12317e-05
1.04584e-06
-2.25273e-06
-1.23959e-05
3.16405e-07
-3.03697e-06
-1.21459e-05
-2.50822e-06
-7.7174e-06
3.89008e-05
-8.35148e-08
-9.78582e-07
3.83485e-05
1.36479e-07
-2.34632e-06
3.74716e-05
4.22367e-07
-3.39322e-06
3.62703e-05
6.94355e-07
-4.34283e-06
3.47398e-05
9.32644e-07
-5.34466e-06
3.28762e-05
1.1176e-06
-6.49941e-06
3.06836e-05
1.21845e-06
-7.87495e-06
2.81744e-05
1.20149e-06
-9.5169e-06
2.53625e-05
1.03359e-06
-1.14562e-05
2.2253e-05
6.78198e-07
-1.37128e-05
1.88269e-05
9.10699e-08
-1.62932e-05
1.50639e-05
-8.49699e-07
-1.91411e-05
1.09401e-05
-2.23763e-06
-2.2024e-05
6.52864e-06
-4.07078e-06
-2.4093e-05
2.30974e-06
-5.77625e-06
-2.29582e-05
-4.99102e-06
-1.33245e-05
6.0532e-05
-6.19691e-08
-7.55811e-07
5.99794e-05
2.90013e-07
-2.09991e-06
5.90812e-05
7.11713e-07
-3.29297e-06
5.78237e-05
1.14353e-06
-4.43928e-06
5.61776e-05
1.55453e-06
-5.65176e-06
5.4103e-05
1.91319e-06
-7.03659e-06
5.15568e-05
2.17537e-06
-8.68406e-06
4.8496e-05
2.29354e-06
-1.06634e-05
4.48729e-05
2.22421e-06
-1.30222e-05
4.06169e-05
1.92901e-06
-1.57863e-05
3.5619e-05
1.35732e-06
-1.89517e-05
2.96715e-05
4.27506e-07
-2.2467e-05
2.25498e-05
-1.02178e-06
-2.60854e-05
1.41581e-05
-3.06451e-06
-2.87783e-05
5.35356e-06
-5.26457e-06
-2.74562e-05
-5.31917e-06
-1.55613e-05
7.85796e-05
-7.01339e-08
-5.84653e-07
7.81139e-05
4.19859e-07
-1.71704e-06
7.73276e-05
9.63901e-07
-2.80318e-06
7.62105e-05
1.53125e-06
-3.89869e-06
7.47228e-05
2.09952e-06
-5.07815e-06
7.27961e-05
2.64285e-06
-6.43215e-06
7.03359e-05
3.1221e-06
-8.05884e-06
6.72259e-05
3.49341e-06
-1.00514e-05
6.33287e-05
3.71751e-06
-1.24868e-05
5.84705e-05
3.77006e-06
-1.54164e-05
5.24128e-05
3.62815e-06
-1.88511e-05
4.48026e-05
3.26248e-06
-2.27424e-05
3.51185e-05
2.57218e-06
-2.6858e-05
2.2915e-05
1.40717e-06
-3.02302e-05
9.13218e-06
-3.58446e-07
-2.9336e-05
-2.38553e-06
-1.6625e-05
9.30031e-05
-9.21118e-08
-4.82288e-07
9.26179e-05
5.22781e-07
-1.43154e-06
9.19522e-05
1.17437e-06
-2.36342e-06
9.10018e-05
1.85366e-06
-3.32485e-06
8.97294e-05
2.55528e-06
-4.37148e-06
8.80586e-05
3.27111e-06
-5.57703e-06
8.58666e-05
3.984e-06
-7.03668e-06
8.29818e-05
4.67492e-06
-8.85954e-06
7.91844e-05
5.33046e-06
-1.11555e-05
7.41933e-05
5.9632e-06
-1.40169e-05
6.7642e-05
6.60066e-06
-1.74926e-05
5.90051e-05
7.31296e-06
-2.15546e-05
4.75121e-05
8.13748e-06
-2.60377e-05
3.21842e-05
9.05286e-06
-3.01104e-05
1.36473e-05
9.08687e-06
-2.99874e-05
4.782e-06
-1.71373e-05
0.000103807
-1.12873e-07
-4.16663e-07
0.000103482
6.04244e-07
-1.23802e-06
0.000102918
1.34399e-06
-2.04338e-06
0.000102116
2.11258e-06
-2.87747e-06
0.000101045
2.92233e-06
-3.78665e-06
9.96334e-05
3.78652e-06
-4.83024e-06
9.77579e-05
4.71756e-06
-6.09233e-06
9.52267e-05
5.73493e-06
-7.68342e-06
9.17759e-05
6.86899e-06
-9.73284e-06
8.70515e-05
8.19364e-06
-1.23698e-05
8.05895e-05
9.81059e-06
-1.56922e-05
7.17182e-05
1.19424e-05
-1.97177e-05
5.94823e-05
1.48121e-05
-2.43421e-05
4.22727e-05
1.89124e-05
-2.89916e-05
1.9385e-05
2.30026e-05
-2.98568e-05
1.76629e-05
-1.72024e-05
0.000111
-1.22326e-07
-3.69666e-07
0.00011072
6.67966e-07
-1.10009e-06
0.000110246
1.46969e-06
-1.81094e-06
0.000109579
2.30048e-06
-2.54394e-06
0.000108696
3.18819e-06
-3.33968e-06
0.000107538
4.16599e-06
-4.24635e-06
0.000105995
5.2751e-06
-5.33431e-06
0.000103888
6.57505e-06
-6.70387e-06
0.000100957
8.14393e-06
-8.48495e-06
9.68403e-05
1.01262e-05
-1.08222e-05
9.10606e-05
1.27041e-05
-1.38459e-05
8.28825e-05
1.63069e-05
-1.76207e-05
7.12951e-05
2.13557e-05
-2.20837e-05
5.4142e-05
2.93189e-05
-2.69986e-05
2.82885e-05
4.03412e-05
-2.9026e-05
3.97414e-05
-1.68293e-05
0.000114587
-3.3406e-07
-1.15028e-07
0.000114345
-9.96238e-07
7.14463e-07
0.000113955
-1.63523e-06
1.54517e-06
0.000113423
-2.28895e-06
2.40348e-06
0.000112731
-2.99355e-06
3.32993e-06
0.000111836
-3.78938e-06
4.37381e-06
0.000110647
-4.73505e-06
5.59994e-06
0.000109019
-5.91689e-06
7.09954e-06
0.000106735
-7.45259e-06
8.98795e-06
0.000103499
-9.47911e-06
1.14591e-05
9.89339e-05
-1.21279e-05
1.47436e-05
9.247e-05
-1.54796e-05
1.9426e-05
8.33223e-05
-1.94793e-05
2.60898e-05
6.92794e-05
-2.40903e-05
3.75046e-05
4.52988e-05
-2.75074e-05
5.66364e-05
-1.5607e-05
7.94886e-05
1.43597e-05
-1.32113e-07
-6.89273e-07
1.4039e-05
-1.41452e-08
-1.26265e-06
1.34919e-05
1.1975e-07
-1.61782e-06
1.27584e-05
2.22677e-07
-1.93903e-06
1.18544e-05
2.99396e-07
-2.29565e-06
1.07865e-05
3.49153e-07
-2.7226e-06
9.56606e-06
3.60328e-07
-3.24117e-06
8.2137e-06
3.17657e-07
-3.86565e-06
6.75926e-06
2.04162e-07
-4.60539e-06
5.24224e-06
1.41495e-11
-5.46389e-06
3.71638e-06
-3.22252e-07
-6.43384e-06
2.26079e-06
-8.00685e-07
-7.47945e-06
9.99865e-07
-1.4771e-06
-8.49372e-06
1.05843e-07
-2.31931e-06
-9.18258e-06
-2.17601e-07
-3.05027e-06
-8.7722e-06
-2.48725e-06
-5.44669e-06
4.01986e-05
-9.84022e-08
-7.63136e-07
3.95691e-05
1.06773e-07
-1.83776e-06
3.85764e-05
3.83986e-07
-2.66481e-06
3.72224e-05
6.48163e-07
-3.41429e-06
3.55018e-05
8.77663e-07
-4.20229e-06
3.34072e-05
1.05162e-06
-5.10729e-06
3.09379e-05
1.13663e-06
-6.18198e-06
2.81033e-05
1.09539e-06
-7.45999e-06
2.49189e-05
8.92339e-07
-8.96008e-06
2.13986e-05
4.93191e-07
-1.06856e-05
1.75598e-05
-1.55432e-07
-1.26213e-05
1.34301e-05
-1.11746e-06
-1.46946e-05
9.10846e-06
-2.49966e-06
-1.66799e-05
4.85673e-06
-4.24952e-06
-1.79111e-05
1.37189e-06
-5.84624e-06
-1.66774e-05
-4.99951e-06
-9.4382e-06
6.25717e-05
-7.70415e-08
-5.85227e-07
6.1949e-05
2.64148e-07
-1.63456e-06
6.0934e-05
6.7728e-07
-2.57128e-06
5.95136e-05
1.10161e-06
-3.47228e-06
5.76572e-05
1.50496e-06
-4.42266e-06
5.53212e-05
1.85457e-06
-5.50356e-06
5.24557e-05
2.10277e-06
-6.7847e-06
4.901e-05
2.19675e-06
-8.319e-06
4.49315e-05
2.0882e-06
-1.01396e-05
4.01571e-05
1.73813e-06
-1.22568e-05
3.45957e-05
1.10096e-06
-1.46468e-05
2.81013e-05
1.48708e-07
-1.72388e-05
2.06124e-05
-1.32543e-06
-1.97706e-05
1.22754e-05
-3.25908e-06
-2.14319e-05
4.25837e-06
-5.30839e-06
-1.9977e-05
-5.29239e-06
-1.10086e-05
8.12364e-05
-8.61827e-08
-4.5159e-07
8.07134e-05
4.02079e-07
-1.33195e-06
7.98244e-05
9.44105e-07
-2.18102e-06
7.8557e-05
1.51e-06
-3.03968e-06
7.68691e-05
2.0775e-06
-3.96273e-06
7.46885e-05
2.62048e-06
-5.01751e-06
7.19135e-05
3.09724e-06
-6.27832e-06
6.84166e-05
3.45876e-06
-7.81647e-06
6.40477e-05
3.66016e-06
-9.68988e-06
5.86255e-05
3.67512e-06
-1.19311e-05
5.19193e-05
3.4869e-06
-1.45308e-05
4.36463e-05
3.09017e-06
-1.74109e-05
3.34041e-05
2.41379e-06
-2.0355e-05
2.1072e-05
1.37607e-06
-2.25332e-05
8.00652e-06
-2.26388e-07
-2.13526e-05
-2.1809e-06
-1.17304e-05
9.61513e-05
-1.09623e-07
-3.7246e-07
9.57183e-05
5.12976e-07
-1.10946e-06
9.4964e-05
1.17148e-06
-1.83645e-06
9.38798e-05
1.85844e-06
-2.58913e-06
9.24247e-05
2.56963e-06
-3.4085e-06
9.05184e-05
3.29794e-06
-4.34821e-06
8.80319e-05
4.02551e-06
-5.47846e-06
8.47822e-05
4.7303e-06
-6.8814e-06
8.05325e-05
5.39471e-06
-8.64038e-06
7.49839e-05
6.02967e-06
-1.08228e-05
6.77652e-05
6.66713e-06
-1.34541e-05
5.83874e-05
7.39561e-06
-1.64822e-05
4.62037e-05
8.28585e-06
-1.9726e-05
3.05613e-05
9.36621e-06
-2.24581e-05
1.25723e-05
9.61494e-06
-2.18397e-05
5.3291e-06
-1.20783e-05
0.000107323
-1.31484e-07
-3.21809e-07
0.000106956
6.01507e-07
-9.59611e-07
0.000106315
1.35678e-06
-1.58766e-06
0.000105394
2.14253e-06
-2.24065e-06
0.000104157
2.97302e-06
-2.95348e-06
0.00010253
3.86358e-06
-3.76902e-06
0.000100384
4.82782e-06
-4.74796e-06
9.75167e-05
5.88539e-06
-5.97154e-06
9.36496e-05
7.06571e-06
-7.53673e-06
8.8406e-05
8.44398e-06
-9.54047e-06
8.13048e-05
1.01265e-05
-1.20504e-05
7.16888e-05
1.23515e-05
-1.50577e-05
5.8698e-05
1.5368e-05
-1.84334e-05
4.10136e-05
1.97062e-05
-2.16471e-05
1.84783e-05
2.40807e-05
-2.17874e-05
1.87425e-05
-1.21444e-05
0.00011476
-1.411e-07
-2.85459e-07
0.000114442
6.71626e-07
-8.52909e-07
0.0001139
1.4961e-06
-1.40744e-06
0.000113127
2.35238e-06
-1.98158e-06
0.000112096
3.27101e-06
-2.6065e-06
0.000110743
4.28785e-06
-3.31724e-06
0.000108953
5.4468e-06
-4.16381e-06
0.000106543
6.81066e-06
-5.21843e-06
0.00010324
8.46043e-06
-6.57685e-06
9.86625e-05
1.05466e-05
-8.34752e-06
9.23108e-05
1.32581e-05
-1.06258e-05
8.34474e-05
1.70405e-05
-1.34462e-05
7.11253e-05
2.23306e-05
-1.67243e-05
5.34041e-05
3.06311e-05
-2.02022e-05
2.76772e-05
4.20521e-05
-2.12705e-05
4.15341e-05
-1.19542e-05
0.000118469
-2.57836e-07
-1.32732e-07
0.000118193
-7.72406e-07
7.24038e-07
0.000117742
-1.27112e-06
1.583e-06
0.000117115
-1.78355e-06
2.47337e-06
0.000116292
-2.33771e-06
3.43882e-06
0.000115222
-2.96319e-06
4.5317e-06
0.000113814
-3.70133e-06
5.82036e-06
0.00011192
-4.6133e-06
7.40162e-06
0.000109316
-5.78473e-06
9.39693e-06
0.00010569
-7.31779e-06
1.2011e-05
0.000100648
-9.31056e-06
1.54826e-05
9.36076e-05
-1.18166e-05
2.04179e-05
8.38245e-05
-1.47689e-05
2.74033e-05
6.91914e-05
-1.80938e-05
3.92676e-05
4.51194e-05
-2.03003e-05
5.89171e-05
-1.11618e-05
8.21938e-05
1.46951e-05
-1.41588e-07
-4.75662e-07
1.43378e-05
-3.25964e-08
-8.72678e-07
1.37374e-05
1.01794e-07
-1.11926e-06
1.29389e-05
2.01468e-07
-1.34195e-06
1.19575e-05
2.74294e-07
-1.58861e-06
1.07989e-05
3.19105e-07
-1.88307e-06
9.47366e-06
3.23617e-07
-2.23955e-06
8.00318e-06
2.71694e-07
-2.66686e-06
6.42118e-06
1.45947e-07
-3.16934e-06
4.77564e-06
-7.21385e-08
-3.7462e-06
3.13626e-06
-4.08119e-07
-4.38635e-06
1.60501e-06
-8.90338e-07
-5.05786e-06
3.41102e-07
-1.55023e-06
-5.67958e-06
-4.32051e-07
-2.3494e-06
-6.06003e-06
-4.79491e-07
-3.03058e-06
-5.69418e-06
-2.43881e-06
-3.48702e-06
4.11711e-05
-1.09888e-07
-5.22591e-07
4.04806e-05
8.35403e-08
-1.26336e-06
3.9398e-05
3.54178e-07
-1.8346e-06
3.79251e-05
6.12148e-07
-2.35209e-06
3.60573e-05
8.34661e-07
-2.89489e-06
3.37857e-05
9.99978e-07
-3.5165e-06
3.11074e-05
1.07263e-06
-4.2527e-06
2.80316e-05
1.01288e-06
-5.12543e-06
2.45794e-05
7.82583e-07
-6.14452e-06
2.07757e-05
3.53338e-07
-7.30737e-06
1.66704e-05
-3.32054e-07
-8.59208e-06
1.23365e-05
-1.31343e-06
-9.93753e-06
7.94928e-06
-2.66906e-06
-1.11738e-05
3.8756e-06
-4.33513e-06
-1.18517e-05
8.71536e-07
-5.82888e-06
-1.0875e-05
-4.94072e-06
-6.06463e-06
6.41007e-05
-8.85414e-08
-3.98675e-07
6.34237e-05
2.44581e-07
-1.11853e-06
6.23184e-05
6.5131e-07
-1.76311e-06
6.07717e-05
1.07003e-06
-2.38353e-06
5.87529e-05
1.46762e-06
-3.03678e-06
5.62163e-05
1.81043e-06
-3.77739e-06
5.31085e-05
2.04825e-06
-4.6525e-06
4.93756e-05
2.12431e-06
-5.69762e-06
4.49652e-05
1.98681e-06
-6.93342e-06
3.98254e-05
1.59732e-06
-8.36092e-06
3.38837e-05
9.19218e-07
-9.95633e-06
2.70654e-05
-8.05241e-08
-1.16535e-05
1.93939e-05
-1.51342e-06
-1.32548e-05
1.11744e-05
-3.34513e-06
-1.42023e-05
3.67664e-06
-5.26126e-06
-1.30469e-05
-5.20051e-06
-7.07377e-06
8.32284e-05
-9.83993e-08
-3.07037e-07
8.26612e-05
3.89038e-07
-9.0923e-07
8.16932e-05
9.30025e-07
-1.49175e-06
8.03101e-05
1.49529e-06
-2.08179e-06
7.84679e-05
2.06263e-06
-2.71561e-06
7.60925e-05
2.60592e-06
-3.43754e-06
7.30778e-05
3.08168e-06
-4.29706e-06
6.92907e-05
3.43704e-06
-5.34209e-06
6.45757e-05
3.62284e-06
-6.61093e-06
5.87526e-05
3.61153e-06
-8.12224e-06
5.1611e-05
3.39169e-06
-9.86168e-06
4.29063e-05
2.97411e-06
-1.17609e-05
3.23585e-05
2.32805e-06
-1.36488e-05
2.00243e-05
1.40045e-06
-1.49445e-05
7.42903e-06
-6.36037e-08
-1.3955e-05
-1.97592e-06
-7.53044e-06
9.85118e-05
-1.2294e-07
-2.53157e-07
9.8042e-05
5.0626e-07
-7.56857e-07
9.72197e-05
1.1708e-06
-1.2549e-06
9.6033e-05
1.86436e-06
-1.77157e-06
9.44378e-05
2.58358e-06
-2.33423e-06
9.2351e-05
3.32228e-06
-2.97771e-06
8.96398e-05
4.06235e-06
-3.74791e-06
8.61152e-05
4.77951e-06
-4.6993e-06
8.15323e-05
5.45276e-06
-5.88745e-06
7.55859e-05
6.09132e-06
-7.35617e-06
6.79101e-05
6.73034e-06
-9.11696e-06
5.80516e-05
7.47194e-06
-1.11216e-05
4.54645e-05
8.41361e-06
-1.32245e-05
2.96943e-05
9.61626e-06
-1.49037e-05
1.20504e-05
1.00265e-05
-1.42859e-05
5.74235e-06
-7.75461e-06
0.000109959
-1.45596e-07
-2.18715e-07
0.00010956
6.00406e-07
-6.54691e-07
0.000108859
1.36846e-06
-1.08483e-06
0.000107848
2.16825e-06
-1.53298e-06
0.000106485
3.01552e-06
-2.02284e-06
0.000104693
3.92725e-06
-2.58222e-06
0.00010234
4.91827e-06
-3.25017e-06
9.92189e-05
6.00836e-06
-4.07967e-06
9.50439e-05
7.22579e-06
-5.13475e-06
8.94286e-05
8.64573e-06
-6.47964e-06
8.18887e-05
1.03765e-05
-8.15657e-06
7.17883e-05
1.26651e-05
-1.01504e-05
5.83448e-05
1.57779e-05
-1.23542e-05
4.04207e-05
2.02698e-05
-1.43765e-05
1.80934e-05
2.48393e-05
-1.42729e-05
1.94887e-05
-7.81009e-06
0.000117579
-1.55273e-07
-1.93974e-07
0.000117233
6.75654e-07
-5.81998e-07
0.000116637
1.51856e-06
-9.61882e-07
0.000115785
2.39539e-06
-1.356e-06
0.000114641
3.33873e-06
-1.78582e-06
0.000113138
4.38659e-06
-2.27424e-06
0.000111161
5.58504e-06
-2.85316e-06
0.000108521
6.9993e-06
-3.56895e-06
0.000104942
8.7119e-06
-4.484e-06
0.000100033
1.08765e-05
-5.67005e-06
9.32891e-05
1.36842e-05
-7.18926e-06
8.39793e-05
1.75881e-05
-9.05948e-06
7.12106e-05
2.30309e-05
-1.12085e-05
5.31793e-05
3.15333e-05
-1.34345e-05
2.75084e-05
4.32091e-05
-1.39694e-05
4.27429e-05
-7.71728e-06
0.00012138
-1.75148e-07
-1.46013e-07
0.000121077
-5.27083e-07
7.32814e-07
0.000120579
-8.68845e-07
1.61453e-06
0.000119881
-1.22076e-06
2.53055e-06
0.000118957
-1.60224e-06
3.52703e-06
0.000117755
-2.03279e-06
4.65869e-06
0.000116181
-2.53863e-06
5.99657e-06
0.000114084
-3.15867e-06
7.64148e-06
0.00011124
-3.94808e-06
9.71874e-06
0.000107334
-4.97427e-06
1.24396e-05
0.000101964
-6.30178e-06
1.60453e-05
9.45473e-05
-7.96463e-06
2.11528e-05
8.43741e-05