/*--------------------------------*- C++ -*----------------------------------*\
| =========                 |                                                 |
| \\      /  F ield         | foam-extend: Open Source CFD                    |
|  \\    /   O peration     | Version:     3.1                                |
|   \\  /    A nd           | Web:         http://www.extend-project.de       |
|    \\/     M anipulation  |                                                 |
\*---------------------------------------------------------------------------*/
FoamFile
{
    version     2.0;
    format      ascii;
    class       surfaceVectorField;
    location    "3.5";
    object      Sf;
}
// * * * * * * * * * * * * * * * * * * * * * * * * * * * * * * * * * * * * * //

dimensions      [0 2 0 0 0 0 0];

internalField   nonuniform List<vector> 
41600
(
(0.000625511 -2.74932e-06 -1.92702e-08)
(-5.10599e-07 0.000705875 -1.27905e-08)
(1.03219e-08 1.16121e-08 0.000704803)
(-1.05824e-08 -1.19052e-08 -0.000704771)
(0.000626 -5.29705e-06 -3.71367e-08)
(-4.88784e-07 0.000705674 -3.82694e-08)
(1.01455e-08 3.46352e-08 0.000705276)
(-1.04043e-08 -3.55124e-08 -0.00070522)
(0.000626477 -7.61897e-06 -5.35819e-08)
(-4.77004e-07 0.000705448 -6.42361e-08)
(1.05105e-08 5.78611e-08 0.000705719)
(-1.07748e-08 -5.93266e-08 -0.000705638)
(0.000626966 -9.77011e-06 -6.9095e-08)
(-4.88719e-07 0.000705278 -9.24509e-08)
(1.16331e-08 8.27454e-08 0.00070619)
(-1.19092e-08 -8.48187e-08 -0.000706082)
(0.000627488 -1.17949e-05 -8.42032e-08)
(-5.22013e-07 0.000705152 -1.25099e-07)
(1.33765e-08 1.10834e-07 0.000706711)
(-1.36603e-08 -1.13537e-07 -0.000706571)
(0.000628065 -1.3732e-05 -9.938e-08)
(-5.76626e-07 0.000705065 -1.64592e-07)
(1.5453e-08 1.43202e-07 0.000707304)
(-1.57328e-08 -1.46539e-07 -0.000707124)
(0.000628718 -1.56091e-05 -1.14306e-07)
(-6.52693e-07 0.000705006 -2.13699e-07)
(1.73646e-08 1.80051e-07 0.000707989)
(-1.76285e-08 -1.84e-07 -0.00070776)
(0.00062947 -1.74371e-05 -1.28112e-07)
(-7.51531e-07 0.000704957 -2.75714e-07)
(1.83159e-08 2.20148e-07 0.000708783)
(-1.85323e-08 -2.24636e-07 -0.000708494)
(0.000630346 -1.9208e-05 -1.39544e-07)
(-8.75459e-07 0.000704901 -3.55046e-07)
(1.6705e-08 2.59617e-07 0.000709707)
(-1.67965e-08 -2.64449e-07 -0.00070934)
(0.000631372 -2.08796e-05 -1.45867e-07)
(-1.02626e-06 0.000704801 -4.57833e-07)
(9.39898e-09 2.8937e-07 0.000710773)
(-9.30211e-09 -2.94183e-07 -0.000710309)
(0.000632579 -2.2372e-05 -1.4358e-07)
(-1.20794e-06 0.000704622 -5.93376e-07)
(-9.46689e-09 2.9044e-07 0.000711999)
(9.72217e-09 -2.94812e-07 -0.000711408)
(0.000634004 -2.35532e-05 -1.30061e-07)
(-1.42492e-06 0.00070431 -7.77655e-07)
(-5.01784e-08 2.26176e-07 0.000713406)
(5.03323e-08 -2.29947e-07 -0.000712641)
(0.000635683 -2.42429e-05 -1.08413e-07)
(-1.67794e-06 0.000703819 -1.04039e-06)
(-1.30716e-07 2.90748e-08 0.000715024)
(1.30034e-07 -3.30674e-08 -0.000714006)
(0.000637625 -2.42856e-05 -1.02255e-07)
(-1.94067e-06 0.000703174 -1.43703e-06)
(-2.72765e-07 -4.11721e-07 0.000716933)
(2.70837e-07 4.05602e-07 -0.000715502)
(0.000639574 -2.37373e-05 -2.00274e-07)
(-1.96528e-06 0.000702566 -2.04314e-06)
(-4.47244e-07 -1.20037e-06 0.000719186)
(4.6433e-07 1.21144e-06 -0.000717044)
(-7.77016e-06 0.000699698 -5.56774e-07)
(-1.96869e-06 -3.80589e-06 0.000723805)
(3.97936e-06 5.98877e-06 -0.000722563)
(0.00062549 -2.71108e-06 -5.76229e-08)
(-1.00004e-06 0.000708586 -2.50683e-08)
(3.04723e-08 1.10555e-08 0.00070754)
(-3.12521e-08 -1.13465e-08 -0.00070747)
(0.000625959 -5.22516e-06 -1.11192e-07)
(-9.5683e-07 0.000708189 -7.49632e-08)
(2.98743e-08 3.28831e-08 0.000707789)
(-3.06568e-08 -3.37633e-08 -0.000707698)
(0.000626416 -7.51676e-06 -1.6073e-07)
(-9.32809e-07 0.000707741 -1.25728e-07)
(3.08864e-08 5.47278e-08 0.000707981)
(-3.16985e-08 -5.62247e-08 -0.00070787)
(0.000626882 -9.6398e-06 -2.07544e-07)
(-9.54477e-07 0.000707403 -1.80759e-07)
(3.41854e-08 7.80376e-08 0.000708256)
(-3.50402e-08 -8.01936e-08 -0.000708121)
(0.000627379 -1.16428e-05 -2.53449e-07)
(-1.01824e-06 0.000707158 -2.44328e-07)
(3.93155e-08 1.04336e-07 0.000708624)
(-4.02036e-08 -1.07193e-07 -0.000708459)
(0.000627926 -1.35646e-05 -2.99811e-07)
(-1.12259e-06 0.000706991 -3.21127e-07)
(4.54889e-08 1.34715e-07 0.000709099)
(-4.64011e-08 -1.38331e-07 -0.000708896)
(0.000628542 -1.54316e-05 -3.45596e-07)
(-1.26791e-06 0.000706877 -4.16394e-07)
(5.15808e-08 1.69898e-07 0.000709684)
(-5.24496e-08 -1.74297e-07 -0.000709436)
(0.000629248 -1.72595e-05 -3.88586e-07)
(-1.45646e-06 0.00070679 -5.36547e-07)
(5.55579e-08 2.10006e-07 0.000710382)
(-5.62298e-08 -2.15064e-07 -0.000710078)
(0.000630064 -1.9049e-05 -4.24686e-07)
(-1.69084e-06 0.000706696 -6.89825e-07)
(5.31132e-08 2.53512e-07 0.000711189)
(-5.33812e-08 -2.58947e-07 -0.000710818)
(0.00063101 -2.07795e-05 -4.46385e-07)
(-1.97341e-06 0.000706537 -8.87256e-07)
(3.6241e-08 2.95877e-07 0.000712083)
(-3.59045e-08 -3.01253e-07 -0.000711632)
(0.000632107 -2.23923e-05 -4.43754e-07)
(-2.30588e-06 0.000706239 -1.14524e-06)
(-9.41585e-09 3.27995e-07 0.000713033)
(1.03551e-08 -3.32707e-07 -0.000712484)
(0.000633365 -2.37835e-05 -4.06878e-07)
(-2.68381e-06 0.000705704 -1.49015e-06)
(-1.08259e-07 3.34116e-07 0.000713984)
(1.09305e-07 -3.37402e-07 -0.000713309)
(0.000634771 -2.47933e-05 -3.38024e-07)
(-3.08344e-06 0.000704829 -1.96813e-06)
(-2.98957e-07 2.92071e-07 0.00071487)
(2.98653e-07 -2.92996e-07 -0.000714011)
(0.000636233 -2.52391e-05 -2.8622e-07)
(-3.40119e-06 0.000703616 -2.66042e-06)
(-6.18624e-07 1.83902e-07 0.000715684)
(6.16757e-07 -1.80711e-07 -0.000714512)
(0.000637378 -2.50664e-05 -4.57817e-07)
(-3.15145e-06 0.00070238 -3.68157e-06)
(-9.73273e-07 3.25897e-08 0.000716583)
(1.01469e-06 -1.94663e-08 -0.000714773)
(-7.32205e-06 0.00069759 -2.73861e-06)
(-3.26296e-06 7.75237e-07 0.000715439)
(6.24908e-06 -2.01423e-06 -0.000711989)
(0.00062545 -2.6325e-06 -9.52613e-08)
(-1.44835e-06 0.000711219 -3.62888e-08)
(4.93522e-08 1.01771e-08 0.000710207)
(-5.06417e-08 -1.04596e-08 -0.0007101)
(0.000625879 -5.07354e-06 -1.8409e-07)
(-1.38466e-06 0.00071063 -1.0848e-07)
(4.82188e-08 3.01953e-08 0.000710213)
(-4.95213e-08 -3.10469e-08 -0.000710091)
(0.000626295 -7.29703e-06 -2.66318e-07)
(-1.3478e-06 0.000709966 -1.81808e-07)
(4.97453e-08 5.0113e-08 0.000710137)
(-5.10978e-08 -5.15402e-08 -0.000709999)
(0.000626719 -9.35893e-06 -3.44354e-07)
(-1.37674e-06 0.000709467 -2.61094e-07)
(5.50919e-08 7.13546e-08 0.000710196)
(-5.652e-08 -7.33748e-08 -0.000710038)
(0.000627168 -1.13093e-05 -4.21998e-07)
(-1.46547e-06 0.000709111 -3.5248e-07)
(6.34443e-08 9.5426e-08 0.000710395)
(-6.4971e-08 -9.81076e-08 -0.000710209)
(0.000627657 -1.31835e-05 -5.00952e-07)
(-1.61042e-06 0.000708868 -4.62584e-07)
(7.38268e-08 1.23675e-07 0.000710728)
(-7.54394e-08 -1.27105e-07 -0.000710507)
(0.000628202 -1.50113e-05 -5.79646e-07)
(-1.81178e-06 0.00070871 -5.9864e-07)
(8.50237e-08 1.57536e-07 0.000711186)
(-8.65734e-08 -1.61743e-07 -0.000710925)
(0.000628819 -1.68199e-05 -6.55541e-07)
(-2.07172e-06 0.000708604 -7.69454e-07)
(9.44931e-08 1.98459e-07 0.000711757)
(-9.57139e-08 -2.03406e-07 -0.000711448)
(0.000629521 -1.86242e-05 -7.21918e-07)
(-2.39209e-06 0.000708505 -9.86114e-07)
(9.6966e-08 2.48079e-07 0.000712418)
(-9.75351e-08 -2.53635e-07 -0.000712055)
(0.000630321 -2.04328e-05 -7.67946e-07)
(-2.77409e-06 0.000708352 -1.26321e-06)
(8.29265e-08 3.08635e-07 0.000713124)
(-8.24633e-08 -3.14475e-07 -0.000712702)
(0.000631225 -2.22303e-05 -7.77886e-07)
(-3.2119e-06 0.000708042 -1.6215e-06)
(3.62454e-08 3.839e-07 0.000713797)
(-3.44682e-08 -3.89313e-07 -0.000713311)
(0.000632221 -2.39669e-05 -7.32076e-07)
(-3.68249e-06 0.000707445 -2.09231e-06)
(-6.87793e-08 4.81923e-07 0.000714317)
(7.16834e-08 -4.85587e-07 -0.00071376)
(0.000633259 -2.55411e-05 -6.19207e-07)
(-4.12439e-06 0.000706403 -2.72739e-06)
(-2.66668e-07 6.21687e-07 0.000714523)
(2.69734e-07 -6.21353e-07 -0.000713877)
(0.000634213 -2.67828e-05 -4.73838e-07)
(-4.35902e-06 0.00070485 -3.61532e-06)
(-5.75451e-07 8.43183e-07 0.000714317)
(5.79575e-07 -8.3552e-07 -0.000713507)
(0.000634779 -2.75236e-05 -5.11686e-07)
(-3.76484e-06 0.000703112 -4.89931e-06)
(-8.66883e-07 1.19173e-06 0.000713958)
(9.13561e-07 -1.18272e-06 -0.000712702)
(-8.7185e-06 0.00069917 -3.51846e-06)
(-2.00757e-06 2.07928e-06 0.000711449)
(3.64049e-06 -2.47797e-06 -0.00071004)
(0.000625391 -2.51256e-06 -1.30983e-07)
(-1.83765e-06 0.000713732 -4.59617e-08)
(6.64791e-08 9.07245e-09 0.000712763)
(-6.82474e-08 -9.32865e-09 -0.000712622)
(0.000625763 -4.83909e-06 -2.53597e-07)
(-1.75519e-06 0.000712958 -1.37369e-07)
(6.48368e-08 2.69622e-08 0.000712512)
(-6.66197e-08 -2.77277e-08 -0.00071236)
(0.000626123 -6.95713e-06 -3.66936e-07)
(-1.70563e-06 0.000712086 -2.30052e-07)
(6.68633e-08 4.48672e-08 0.000712155)
(-6.87011e-08 -4.61419e-08 -0.000711994)
(0.000626486 -8.92028e-06 -4.75578e-07)
(-1.73812e-06 0.000711432 -3.30029e-07)
(7.41516e-08 6.40723e-08 0.000711987)
(-7.6112e-08 -6.58966e-08 -0.00071181)
(0.000626867 -1.07711e-05 -5.85228e-07)
(-1.84348e-06 0.000710965 -4.44939e-07)
(8.56772e-08 8.60583e-08 0.000711998)
(-8.78301e-08 -8.85222e-08 -0.000711796)
(0.000627275 -1.25484e-05 -6.97133e-07)
(-2.01676e-06 0.000710649 -5.82708e-07)
(1.00604e-07 1.12408e-07 0.000712168)
(-1.02903e-07 -1.156e-07 -0.000711936)
(0.000627722 -1.4292e-05 -8.10279e-07)
(-2.25682e-06 0.000710457 -7.51977e-07)
(1.17869e-07 1.44977e-07 0.00071248)
(-1.2013e-07 -1.48973e-07 -0.000712214)
(0.000628217 -1.60396e-05 -9.23042e-07)
(-2.5644e-06 0.000710356 -9.63147e-07)
(1.35305e-07 1.86287e-07 0.000712914)
(-1.37247e-07 -1.91179e-07 -0.000712607)
(0.000628766 -1.78258e-05 -1.02773e-06)
(-2.93992e-06 0.000710297 -1.22912e-06)
(1.48856e-07 2.40633e-07 0.000713428)
(-1.50024e-07 -2.46448e-07 -0.00071308)
(0.000629373 -1.96822e-05 -1.11188e-06)
(-3.38136e-06 0.000710215 -1.56669e-06)
(1.5101e-07 3.15655e-07 0.000713963)
(-1.50779e-07 -3.22191e-07 -0.000713576)
(0.000630036 -2.16438e-05 -1.15575e-06)
(-3.87712e-06 0.00071001 -1.99911e-06)
(1.29578e-07 4.24654e-07 0.00071442)
(-1.27169e-07 -4.31254e-07 -0.000713998)
(0.000630738 -2.37333e-05 -1.13039e-06)
(-4.38947e-06 0.000709539 -2.56057e-06)
(6.72531e-08 5.91196e-07 0.000714645)
(-6.20994e-08 -5.9637e-07 -0.000714202)
(0.00063143 -2.59342e-05 -1.00282e-06)
(-4.82454e-06 0.000708605 -3.30517e-06)
(-5.74082e-08 8.52409e-07 0.000714425)
(6.53766e-08 -8.53519e-07 -0.000713974)
(0.000632019 -2.81141e-05 -7.6639e-07)
(-4.96002e-06 0.000707024 -4.32536e-06)
(-2.4939e-07 1.25133e-06 0.000713577)
(2.61346e-07 -1.24545e-06 -0.000713103)
(0.000632332 -2.99329e-05 -5.60559e-07)
(-4.11793e-06 0.000704927 -5.7935e-06)
(-4.22505e-07 1.78116e-06 0.000712331)
(4.62291e-07 -1.77744e-06 -0.000711642)
(-9.25344e-06 0.000702294 -4.15737e-06)
(-8.7688e-07 2.69688e-06 0.000709395)
(1.72265e-06 -3.28283e-06 -0.000709342)
(0.000625318 -2.34905e-06 -1.6398e-07)
(-2.1538e-06 0.000716081 -5.37724e-08)
(8.17922e-08 8.12675e-09 0.000715168)
(-8.39963e-08 -8.3608e-09 -0.000714996)
(0.00062562 -4.52023e-06 -3.17804e-07)
(-2.05488e-06 0.00071513 -1.60596e-07)
(7.97747e-08 2.41974e-08 0.00071465)
(-8.19906e-08 -2.48983e-08 -0.000714473)
(0.00062591 -6.493e-06 -4.60373e-07)
(-1.99299e-06 0.00071406 -2.68657e-07)
(8.23395e-08 4.03561e-08 0.000714007)
(-8.46343e-08 -4.15467e-08 -0.000713826)
(0.000626199 -8.31319e-06 -5.98595e-07)
(-2.02452e-06 0.000713254 -3.84924e-07)
(9.14752e-08 5.77589e-08 0.000713601)
(-9.39636e-08 -5.95055e-08 -0.000713408)
(0.000626496 -1.00212e-05 -7.38421e-07)
(-2.13772e-06 0.000712675 -5.17961e-07)
(1.06146e-07 7.78328e-08 0.000713407)
(-1.08913e-07 -8.02207e-08 -0.000713194)
(0.000626808 -1.16601e-05 -8.81537e-07)
(-2.32598e-06 0.000712291 -6.76446e-07)
(1.25736e-07 1.02155e-07 0.0007134)
(-1.28733e-07 -1.05291e-07 -0.000713163)
(0.00062714 -1.32707e-05 -1.02924e-06)
(-2.58583e-06 0.000712072 -8.69869e-07)
(1.49561e-07 1.32732e-07 0.000713557)
(-1.52622e-07 -1.36759e-07 -0.000713292)
(0.000627494 -1.48935e-05 -1.18135e-06)
(-2.91515e-06 0.000711984 -1.10944e-06)
(1.76632e-07 1.72717e-07 0.000713849)
(-1.7948e-07 -1.77792e-07 -0.000713551)
(0.000627867 -1.65773e-05 -1.33144e-06)
(-3.31149e-06 0.000711988 -1.4088e-06)
(2.053e-07 2.27626e-07 0.000714228)
(-2.07371e-07 -2.33873e-07 -0.000713898)
(0.000628257 -1.83806e-05 -1.46795e-06)
(-3.77016e-06 0.000712025 -1.78559e-06)
(2.3214e-07 3.07152e-07 0.000714627)
(-2.32582e-07 -3.1456e-07 -0.000714272)
(0.000628656 -2.03831e-05 -1.5716e-06)
(-4.27888e-06 0.000712021 -2.26484e-06)
(2.51766e-07 4.2784e-07 0.000714953)
(-2.49271e-07 -4.36035e-07 -0.000714584)
(0.000629057 -2.26867e-05 -1.60722e-06)
(-4.79775e-06 0.000711851 -2.88355e-06)
(2.58732e-07 6.17092e-07 0.000715059)
(-2.51633e-07 -6.24746e-07 -0.000714701)
(0.000629442 -2.53712e-05 -1.52119e-06)
(-5.22271e-06 0.000711294 -3.69985e-06)
(2.4319e-07 9.14899e-07 0.000714718)
(-2.30305e-07 -9.19424e-07 -0.000714409)
(0.000629774 -2.83673e-05 -1.25412e-06)
(-5.31156e-06 0.000710019 -4.81279e-06)
(1.93219e-07 1.35848e-06 0.000713651)
(-1.73717e-07 -1.35695e-06 -0.00071343)
(0.000629957 -3.11635e-05 -7.88202e-07)
(-4.33137e-06 0.000707723 -6.41318e-06)
(1.02745e-07 1.91784e-06 0.000711771)
(-7.1641e-08 -1.91771e-06 -0.000711617)
(-9.49228e-06 0.000706667 -4.5034e-06)
(1.44595e-07 2.72643e-06 0.000708915)
(-1.74246e-07 -3.16822e-06 -0.000710629)
(0.000625235 -2.1453e-06 -1.94109e-07)
(-2.38584e-06 0.000718226 -5.94375e-08)
(9.55765e-08 7.35026e-09 0.000717381)
(-9.81827e-08 -7.56843e-09 -0.000717181)
(0.000625456 -4.12419e-06 -3.75924e-07)
(-2.27361e-06 0.000717109 -1.77368e-07)
(9.32454e-08 2.18671e-08 0.000716594)
(-9.58671e-08 -2.25259e-08 -0.000716396)
(0.000625666 -5.914e-06 -5.45208e-07)
(-2.2002e-06 0.000715851 -2.96331e-07)
(9.62982e-08 3.64101e-08 0.000715663)
(-9.90366e-08 -3.75322e-08 -0.000715466)
(0.000625872 -7.55681e-06 -7.09787e-07)
(-2.22726e-06 0.000714899 -4.23824e-07)
(1.07116e-07 5.20028e-08 0.000715012)
(-1.10112e-07 -5.36354e-08 -0.000714808)
(0.000626078 -9.09199e-06 -8.75081e-07)
(-2.34064e-06 0.000714213 -5.68848e-07)
(1.24705e-07 6.99207e-08 0.000714606)
(-1.2807e-07 -7.21511e-08 -0.00071439)
(0.000626286 -1.05537e-05 -1.04586e-06)
(-2.53072e-06 0.000713756 -7.40456e-07)
(1.48688e-07 9.16203e-08 0.000714414)
(-1.52404e-07 -9.45815e-08 -0.000714179)
(0.000626495 -1.19734e-05 -1.22618e-06)
(-2.79095e-06 0.000713495 -9.48369e-07)
(1.78937e-07 1.19043e-07 0.000714405)
(-1.82858e-07 -1.22898e-07 -0.000714146)
(0.0006267 -1.33889e-05 -1.41692e-06)
(-3.11588e-06 0.000713405 -1.20368e-06)
(2.15826e-07 1.55168e-07 0.000714542)
(-2.19711e-07 -1.60132e-07 -0.000714257)
(0.000626891 -1.48504e-05 -1.61518e-06)
(-3.49944e-06 0.000713455 -1.51969e-06)
(2.60192e-07 2.04972e-07 0.000714783)
(-2.63444e-07 -2.11324e-07 -0.000714474)
(0.000627057 -1.64325e-05 -1.81293e-06)
(-3.93414e-06 0.000713615 -1.91374e-06)
(3.12823e-07 2.76862e-07 0.000715069)
(-3.14425e-07 -2.84822e-07 -0.000714743)
(0.000627187 -1.82465e-05 -1.99573e-06)
(-4.41037e-06 0.000713845 -2.41123e-06)
(3.74862e-07 3.84507e-07 0.000715327)
(-3.73086e-07 -3.94065e-07 -0.000714998)
(0.00062728 -2.04482e-05 -2.13144e-06)
(-4.89941e-06 0.000714063 -3.05196e-06)
(4.51359e-07 5.49563e-07 0.000715446)
(-4.43459e-07 -5.60107e-07 -0.000715142)
(0.000627364 -2.32217e-05 -2.16145e-06)
(-5.32314e-06 0.000714077 -3.90288e-06)
(5.43669e-07 8.05019e-07 0.000715232)
(-5.27062e-07 -8.14624e-07 -0.000714999)
(0.000627496 -2.66752e-05 -1.98148e-06)
(-5.47024e-06 0.000713477 -5.08186e-06)
(6.28527e-07 1.18563e-06 0.000714359)
(-6.01439e-07 -1.19049e-06 -0.00071427)
(0.000627692 -3.03464e-05 -1.34191e-06)
(-4.55407e-06 0.000711397 -6.7974e-06)
(6.05884e-07 1.67587e-06 0.000712249)
(-5.79352e-07 -1.67905e-06 -0.000712504)
(-9.7497e-06 0.000712882 -4.69094e-06)
(1.03734e-06 2.38848e-06 0.000710323)
(-1.76583e-06 -2.7158e-06 -0.000713952)
(0.000625144 -1.90849e-06 -2.203e-07)
(-2.52647e-06 0.000720135 -6.27412e-08)
(1.08028e-07 6.63302e-09 0.000719368)
(-1.11003e-07 -6.82949e-09 -0.000719144)
(0.000625278 -3.6645e-06 -4.26176e-07)
(-2.40507e-06 0.000718866 -1.87078e-07)
(1.05349e-07 1.96776e-08 0.000718317)
(-1.08345e-07 -2.0267e-08 -0.000718101)
(0.000625403 -5.24485e-06 -6.18284e-07)
(-2.32233e-06 0.000717432 -3.12174e-07)
(1.08745e-07 3.26074e-08 0.000717102)
(-1.11889e-07 -3.36068e-08 -0.000716894)
(0.000625522 -6.68499e-06 -8.0396e-07)
(-2.34277e-06 0.00071634 -4.45653e-07)
(1.20957e-07 4.62921e-08 0.000716206)
(-1.24413e-07 -4.77488e-08 -0.000715999)
(0.000625635 -8.01279e-06 -9.89603e-07)
(-2.44958e-06 0.000715542 -5.96503e-07)
(1.41004e-07 6.18042e-08 0.000715584)
(-1.44929e-07 -6.38019e-08 -0.000715371)
(0.000625739 -9.24982e-06 -1.18384e-06)
(-2.62992e-06 0.000714995 -7.73772e-07)
(1.68747e-07 8.03286e-08 0.000715196)
(-1.7315e-07 -8.29913e-08 -0.000714968)
(0.000625826 -1.04186e-05 -1.39195e-06)
(-2.87375e-06 0.000714668 -9.86735e-07)
(2.04544e-07 1.03389e-07 0.000715001)
(-2.09311e-07 -1.06885e-07 -0.000714754)
(0.000625887 -1.15469e-05 -1.61627e-06)
(-3.17182e-06 0.000714537 -1.24547e-06)
(2.49755e-07 1.33127e-07 0.000714962)
(-2.54715e-07 -1.37691e-07 -0.000714696)
(0.000625906 -1.26722e-05 -1.85764e-06)
(-3.5134e-06 0.000714587 -1.56192e-06)
(3.06953e-07 1.72723e-07 0.000715043)
(-3.11543e-07 -1.78671e-07 -0.000714759)
(0.000625861 -1.38516e-05 -2.1128e-06)
(-3.88612e-06 0.000714803 -1.95138e-06)
(3.7971e-07 2.26982e-07 0.000715196)
(-3.82827e-07 -2.34666e-07 -0.000714903)
(0.00062573 -1.51804e-05 -2.37567e-06)
(-4.27942e-06 0.000715183 -2.43681e-06)
(4.73149e-07 3.02933e-07 0.000715377)
(-4.72929e-07 -3.12764e-07 -0.000715088)
(0.000625501 -1.68014e-05 -2.62908e-06)
(-4.67736e-06 0.000715696 -3.05716e-06)
(5.98294e-07 4.10287e-07 0.000715507)
(-5.91517e-07 -4.22776e-07 -0.000715249)
(0.000625212 -1.89449e-05 -2.83518e-06)
(-5.05174e-06 0.000716236 -3.88638e-06)
(7.65511e-07 5.63606e-07 0.000715454)
(-7.48101e-07 -5.7868e-07 -0.000715265)
(0.000625025 -2.1953e-05 -2.89284e-06)
(-5.3161e-06 0.000716501 -5.0758e-06)
(9.5146e-07 7.85801e-07 0.000714973)
(-9.18862e-07 -8.01104e-07 -0.000714921)
(0.000625262 -2.58912e-05 -2.34222e-06)
(-4.81857e-06 0.000715349 -6.90278e-06)
(1.01002e-06 1.10321e-06 0.000713202)
(-9.82123e-07 -1.1165e-06 -0.000713647)
(-1.10443e-05 0.000723677 -4.73088e-06)
(1.92362e-06 1.76703e-06 0.000715259)
(-3.21192e-06 -2.0109e-06 -0.00072105)
(0.000625049 -1.64351e-06 -2.4165e-07)
(1.19211e-07 5.93577e-09 0.000721099)
(-1.22516e-07 -6.11028e-09 -0.000720857)
(-2.57198e-06 0.000721779 -6.36621e-08)
(0.000625094 -3.15542e-06 -4.66874e-07)
(1.16125e-07 1.75549e-08 0.000719797)
(-1.19445e-07 -1.80706e-08 -0.000719569)
(-2.4467e-06 0.000720378 -1.89669e-07)
(0.000625133 -4.50988e-06 -6.76691e-07)
(1.19648e-07 2.8891e-08 0.000718313)
(-1.23145e-07 -2.97535e-08 -0.000718099)
(-2.35836e-06 0.000718787 -3.1608e-07)
(0.000625166 -5.72706e-06 -8.78371e-07)
(1.32873e-07 4.06109e-08 0.000717177)
(-1.36738e-07 -4.18651e-08 -0.000716971)
(-2.37136e-06 0.000717559 -4.50417e-07)
(0.000625187 -6.82063e-06 -1.08044e-06)
(1.54751e-07 5.35292e-08 0.000716334)
(-1.59163e-07 -5.52404e-08 -0.000716127)
(-2.4668e-06 0.000716638 -6.01421e-07)
(0.000625192 -7.80284e-06 -1.29266e-06)
(1.85244e-07 6.83951e-08 0.000715734)
(-1.90248e-07 -7.06565e-08 -0.000715518)
(-2.6293e-06 0.00071598 -7.77553e-07)
(0.000625169 -8.68567e-06 -1.52062e-06)
(2.25002e-07 8.60667e-08 0.000715333)
(-2.30536e-07 -8.90302e-08 -0.000715105)
(-2.84533e-06 0.000715553 -9.87045e-07)
(0.000625104 -9.48e-06 -1.76867e-06)
(2.7581e-07 1.07576e-07 0.000715094)
(-2.81734e-07 -1.11424e-07 -0.000714853)
(-3.10074e-06 0.000715336 -1.23842e-06)
(0.000624975 -1.01987e-05 -2.03935e-06)
(3.40797e-07 1.3397e-07 0.000714977)
(-3.46596e-07 -1.38915e-07 -0.000714727)
(-3.37873e-06 0.00071531 -1.54122e-06)
(0.000624752 -1.08594e-05 -2.33398e-06)
(4.24299e-07 1.66094e-07 0.000714941)
(-4.28937e-07 -1.72478e-07 -0.000714691)
(-3.65877e-06 0.00071547 -1.90693e-06)
(0.000624391 -1.14855e-05 -2.65425e-06)
(5.3218e-07 2.04123e-07 0.000714946)
(-5.33954e-07 -2.12551e-07 -0.000714711)
(-3.91663e-06 0.000715818 -2.35162e-06)
(0.000623829 -1.21078e-05 -2.99821e-06)
(6.74579e-07 2.44926e-07 0.000714898)
(-6.7053e-07 -2.56534e-07 -0.000714711)
(-4.11878e-06 0.00071633 -2.90091e-06)
(0.00062297 -1.27935e-05 -3.35775e-06)
(8.60549e-07 2.77491e-07 0.00071461)
(-8.46383e-07 -2.94314e-07 -0.000714537)
(-4.20738e-06 0.000716939 -3.60047e-06)
(0.000621664 -1.37152e-05 -3.68644e-06)
(1.06749e-06 2.82476e-07 0.000713656)
(-1.03793e-06 -3.08262e-07 -0.000713866)
(-4.03998e-06 0.000717448 -4.537e-06)
(0.00061975 -1.55861e-05 -3.60649e-06)
(1.16868e-06 2.66e-07 0.000710752)
(-1.14023e-06 -2.99569e-07 -0.000711893)
(-2.93301e-06 0.000717253 -5.84159e-06)
(2.93209e-06 8.18511e-07 0.000725901)
(-4.64029e-06 -9.91887e-07 -0.000734362)
(-1.70141e-05 0.00074495 -4.02279e-06)
(0.000625533 -2.78506e-06 -1.63963e-08)
(-5.32297e-07 0.000705911 -1.16848e-08)
(9.6852e-09 1.08959e-08 0.000704831)
(0.000626044 -5.3662e-06 -3.17501e-08)
(-5.10307e-07 0.000705708 -3.49448e-08)
(9.52015e-09 3.24992e-08 0.000705327)
(0.000626544 -7.71886e-06 -4.57306e-08)
(-4.99445e-07 0.000705481 -5.85278e-08)
(9.86939e-09 5.43009e-08 0.000705791)
(0.000627058 -9.89882e-06 -5.85789e-08)
(-5.13817e-07 0.00070531 -8.38732e-08)
(1.095e-08 7.76965e-08 0.000706287)
(0.000627611 -1.19516e-05 -7.08537e-08)
(-5.51553e-07 0.000705184 -1.12773e-07)
(1.26244e-08 1.04173e-07 0.000706836)
(0.000628224 -1.39165e-05 -8.25245e-08)
(-6.12533e-07 0.000705098 -1.46997e-07)
(1.46413e-08 1.34783e-07 0.000707463)
(0.000628922 -1.58203e-05 -9.3046e-08)
(-6.97178e-07 0.000705039 -1.88437e-07)
(1.65718e-08 1.69826e-07 0.000708188)
(0.00062973 -1.76725e-05 -1.01695e-07)
(-8.07103e-07 0.000704989 -2.3911e-07)
(1.76815e-08 2.08312e-07 0.000709031)
(0.000630675 -1.94627e-05 -1.07271e-07)
(-9.4524e-07 0.000704928 -3.00943e-07)
(1.65583e-08 2.46884e-07 0.000710013)
(0.000631788 -2.11446e-05 -1.07873e-07)
(-1.11417e-06 0.000704818 -3.75693e-07)
(1.06256e-08 2.77793e-07 0.000711149)
(0.000633103 -2.26335e-05 -1.02415e-07)
(-1.31938e-06 0.000704619 -4.6449e-07)
(-4.86536e-09 2.85257e-07 0.000712458)
(0.000634657 -2.37966e-05 -9.22679e-08)
(-1.56703e-06 0.000704274 -5.65304e-07)
(-3.74215e-08 2.40069e-07 0.000713961)
(0.000636483 -2.44654e-05 -8.69258e-08)
(-1.85891e-06 0.00070373 -6.6535e-07)
(-9.76092e-08 9.32797e-08 0.000715684)
(0.000638565 -2.45305e-05 -1.11241e-07)
(-2.164e-06 0.000703 -7.2181e-07)
(-1.90413e-07 -2.21189e-07 0.000717679)
(0.000640613 -2.41573e-05 -1.90404e-07)
(-2.21978e-06 0.000702284 -6.49898e-07)
(-2.75696e-07 -7.3213e-07 0.000719915)
(-6.01561e-06 0.000701168 -4.1605e-07)
(-9.27328e-07 -2.03353e-06 0.000724665)
(0.000625512 -2.74666e-06 -4.92185e-08)
(-1.04247e-06 0.000708658 -2.29248e-08)
(2.85807e-08 1.036e-08 0.000707601)
(0.000626002 -5.29423e-06 -9.53963e-08)
(-9.98848e-07 0.000708258 -6.84836e-08)
(2.80032e-08 3.07946e-08 0.000707868)
(0.000626482 -7.61704e-06 -1.37616e-07)
(-9.7655e-07 0.000707808 -1.14546e-07)
(2.89579e-08 5.12156e-08 0.000708079)
(0.000626973 -9.76974e-06 -1.7674e-07)
(-1.0033e-06 0.000707468 -1.6395e-07)
(3.21105e-08 7.30033e-08 0.000708375)
(0.000627499 -1.1802e-05 -2.14166e-07)
(-1.07565e-06 0.000707223 -2.20192e-07)
(3.70328e-08 9.76317e-08 0.000708769)
(0.000628082 -1.3753e-05 -2.49933e-07)
(-1.19238e-06 0.000707058 -2.8683e-07)
(4.30355e-08 1.26203e-07 0.000709274)
(0.000628741 -1.56487e-05 -2.82566e-07)
(-1.35412e-06 0.000706945 -3.67469e-07)
(4.91259e-08 1.59473e-07 0.000709896)
(0.0006295 -1.75036e-05 -3.0984e-07)
(-1.56398e-06 0.000706856 -4.6574e-07)
(5.34695e-08 1.97666e-07 0.000710636)
(0.000630381 -1.93154e-05 -3.27704e-07)
(-1.82543e-06 0.000706754 -5.85389e-07)
(5.23721e-08 2.39701e-07 0.000711491)
(0.000631406 -2.10593e-05 -3.30333e-07)
(-2.14204e-06 0.000706576 -7.29658e-07)
(3.90968e-08 2.81888e-07 0.00071244)
(0.000632593 -2.26731e-05 -3.14523e-07)
(-2.51726e-06 0.000706245 -8.99596e-07)
(1.80576e-09 3.16417e-07 0.000713453)
(0.000633942 -2.40457e-05 -2.80567e-07)
(-2.94758e-06 0.000705651 -1.08899e-06)
(-7.73145e-08 3.30124e-07 0.000714474)
(0.000635413 -2.50135e-05 -2.48736e-07)
(-3.4074e-06 0.000704684 -1.27031e-06)
(-2.2088e-07 3.05491e-07 0.000715443)
(0.000636841 -2.54031e-05 -2.78949e-07)
(-3.77782e-06 0.000703344 -1.36104e-06)
(-4.3274e-07 2.29567e-07 0.000716353)
(0.000637814 -2.51999e-05 -4.3378e-07)
(-3.56004e-06 0.000701992 -1.2138e-06)
(-6.06136e-07 1.20588e-07 0.000717302)
(-5.41919e-06 0.000698128 -4.28839e-07)
(-1.54942e-06 4.33298e-07 0.000716335)
(0.00062547 -2.66725e-06 -8.17759e-08)
(-1.50964e-06 0.000711326 -3.3206e-08)
(4.62571e-08 9.51877e-09 0.000710299)
(0.00062592 -5.14075e-06 -1.58288e-07)
(-1.4453e-06 0.000710733 -9.91394e-08)
(4.51592e-08 2.82404e-08 0.00071032)
(0.000626357 -7.39432e-06 -2.28526e-07)
(-1.41088e-06 0.000710064 -1.65739e-07)
(4.65962e-08 4.68762e-08 0.000710259)
(0.000626804 -9.48533e-06 -2.94358e-07)
(-1.447e-06 0.000709563 -2.37111e-07)
(5.16844e-08 6.67752e-08 0.000710335)
(0.00062728 -1.14655e-05 -3.57907e-07)
(-1.54796e-06 0.00070921 -3.18222e-07)
(5.96754e-08 8.93557e-08 0.000710556)
(0.000627803 -1.33702e-05 -4.19266e-07)
(-1.71036e-06 0.00070897 -4.14071e-07)
(6.97305e-08 1.15901e-07 0.000710916)
(0.000628387 -1.52287e-05 -4.76159e-07)
(-1.93468e-06 0.000708813 -5.29566e-07)
(8.07726e-08 1.47807e-07 0.000711405)
(0.000629051 -1.70678e-05 -5.24848e-07)
(-2.22421e-06 0.000708707 -6.69616e-07)
(9.05836e-08 1.86549e-07 0.00071201)
(0.00062981 -1.88999e-05 -5.58379e-07)
(-2.5818e-06 0.0007086 -8.39203e-07)
(9.47104e-08 2.33791e-07 0.000712705)
(0.000630676 -2.07314e-05 -5.67539e-07)
(-3.00995e-06 0.000708425 -1.04233e-06)
(8.49127e-08 2.91573e-07 0.000713446)
(0.000631651 -2.25405e-05 -5.44284e-07)
(-3.50371e-06 0.000708074 -1.27907e-06)
(4.77732e-08 3.63137e-07 0.000714153)
(0.000632709 -2.42668e-05 -4.81296e-07)
(-4.03863e-06 0.000707404 -1.5378e-06)
(-3.58288e-08 4.54561e-07 0.000714702)
(0.000633768 -2.5791e-05 -3.92349e-07)
(-4.54627e-06 0.000706252 -1.77621e-06)
(-1.86495e-07 5.776e-07 0.00071494)
(0.000634635 -2.69168e-05 -3.39471e-07)
(-4.82303e-06 0.000704561 -1.87819e-06)
(-3.97203e-07 7.51811e-07 0.000714781)
(0.000635005 -2.74635e-05 -4.04298e-07)
(-4.25384e-06 0.000702744 -1.6537e-06)
(-5.43477e-07 9.86593e-07 0.000714463)
(-6.08715e-06 0.000699174 -5.83669e-07)
(-9.66784e-07 1.43739e-06 0.000712278)
(0.00062541 -2.5447e-06 -1.12831e-07)
(-1.91512e-06 0.000713871 -4.20953e-08)
(6.22866e-08 8.49702e-09 0.000712885)
(0.0006258 -4.90181e-06 -2.18281e-07)
(-1.83187e-06 0.000713092 -1.25685e-07)
(6.0706e-08 2.52467e-08 0.000712644)
(0.000626179 -7.04822e-06 -3.15341e-07)
(-1.78524e-06 0.000712214 -2.10057e-07)
(6.26271e-08 4.20124e-08 0.000712297)
(0.000626563 -9.03982e-06 -4.07412e-07)
(-1.82662e-06 0.000711559 -3.0029e-07)
(6.95541e-08 6.001e-08 0.000712143)
(0.000626967 -1.09205e-05 -4.97633e-07)
(-1.94708e-06 0.000711096 -4.02578e-07)
(8.05338e-08 8.06177e-08 0.000712173)
(0.000627404 -1.27281e-05 -5.85599e-07)
(-2.1415e-06 0.000710785 -5.22887e-07)
(9.48833e-08 1.05312e-07 0.000712365)
(0.000627885 -1.45034e-05 -6.68476e-07)
(-2.40936e-06 0.000710598 -6.66982e-07)
(1.1171e-07 1.35868e-07 0.0007127)
(0.000628419 -1.62841e-05 -7.41444e-07)
(-2.75238e-06 0.000710499 -8.40668e-07)
(1.29174e-07 1.74689e-07 0.000713158)
(0.000629015 -1.81047e-05 -7.95632e-07)
(-3.17201e-06 0.000710436 -1.0495e-06)
(1.43819e-07 2.25682e-07 0.000713692)
(0.000629674 -1.9995e-05 -8.1902e-07)
(-3.66746e-06 0.000710335 -1.29765e-06)
(1.49049e-07 2.95637e-07 0.000714242)
(0.000630392 -2.19847e-05 -7.95466e-07)
(-4.22727e-06 0.000710092 -1.58414e-06)
(1.34816e-07 3.96184e-07 0.000714701)
(0.000631144 -2.40864e-05 -7.06444e-07)
(-4.81029e-06 0.000709551 -1.89295e-06)
(8.73726e-08 5.46372e-07 0.000714911)
(0.000631859 -2.62559e-05 -5.42088e-07)
(-5.31069e-06 0.000708502 -2.16976e-06)
(-8.34201e-09 7.71764e-07 0.000714654)
(0.000632411 -2.83143e-05 -3.35264e-07)
(-5.47626e-06 0.000706779 -2.27328e-06)
(-1.47263e-07 1.09133e-06 0.000713765)
(0.000632644 -2.9872e-05 -1.8022e-07)
(-4.65968e-06 0.000704611 -1.98417e-06)
(-2.50655e-07 1.47163e-06 0.000712506)
(-6.17628e-06 0.00070156 -7.43681e-07)
(-4.26562e-07 1.96224e-06 0.000709773)
(0.000625334 -2.37853e-06 -1.41371e-07)
(-2.24425e-06 0.00071625 -4.92739e-08)
(7.66249e-08 7.60699e-09 0.000715316)
(0.000625652 -4.57788e-06 -2.741e-07)
(-2.14434e-06 0.000715293 -1.47096e-07)
(7.46746e-08 2.26348e-08 0.000714804)
(0.000625958 -6.57743e-06 -3.96673e-07)
(-2.08565e-06 0.000714216 -2.4567e-07)
(7.71008e-08 3.7722e-08 0.000714165)
(0.000626264 -8.42465e-06 -5.14094e-07)
(-2.12728e-06 0.00071341 -3.50788e-07)
(8.57588e-08 5.39585e-08 0.000713769)
(0.000626581 -1.01594e-05 -6.29904e-07)
(-2.25733e-06 0.000712836 -4.69434e-07)
(9.96782e-08 7.26796e-08 0.00071359)
(0.000626916 -1.18253e-05 -7.43139e-07)
(-2.46905e-06 0.000712458 -6.08141e-07)
(1.18388e-07 9.53543e-08 0.000713599)
(0.000627274 -1.34659e-05 -8.51789e-07)
(-2.7596e-06 0.000712247 -7.7319e-07)
(1.41399e-07 1.23868e-07 0.000713772)
(0.000627658 -1.51228e-05 -9.51139e-07)
(-3.12768e-06 0.000712168 -9.70769e-07)
(1.67894e-07 1.61135e-07 0.000714079)
(0.000628066 -1.68459e-05 -1.03145e-06)
(-3.5717e-06 0.000712174 -1.20657e-06)
(1.96491e-07 2.1214e-07 0.000714465)
(0.000628495 -1.86935e-05 -1.0779e-06)
(-4.08825e-06 0.000712205 -1.48469e-06)
(2.24195e-07 2.85549e-07 0.000714861)
(0.000628939 -2.07447e-05 -1.06763e-06)
(-4.66549e-06 0.000712176 -1.80376e-06)
(2.46511e-07 3.95671e-07 0.000715163)
(0.000629388 -2.30909e-05 -9.67089e-07)
(-5.25898e-06 0.000711949 -2.14555e-06)
(2.58014e-07 5.65062e-07 0.000715211)
(0.000629824 -2.57852e-05 -7.32086e-07)
(-5.75051e-06 0.000711289 -2.44874e-06)
(2.47177e-07 8.22818e-07 0.000714762)
(0.000630207 -2.87033e-05 -3.45692e-07)
(-5.86563e-06 0.000709871 -2.55652e-06)
(1.99682e-07 1.18493e-06 0.000713548)
(0.000630451 -3.1229e-05 9.77434e-08)
(-4.91289e-06 0.000707454 -2.22876e-06)
(1.11319e-07 1.60098e-06 0.000711572)
(-6.04064e-06 0.000705041 -9.02656e-07)
(7.06327e-08 2.06446e-06 0.000708769)
(0.000625247 -2.17201e-06 -1.67379e-07)
(-2.48563e-06 0.000718423 -5.44928e-08)