/*--------------------------------*- C++ -*----------------------------------*\
| =========                 |                                                 |
| \\      /  F ield         | foam-extend: Open Source CFD                    |
|  \\    /   O peration     | Version:     3.1                                |
|   \\  /    A nd           | Web:         http://www.extend-project.de       |
|    \\/     M anipulation  |                                                 |
\*---------------------------------------------------------------------------*/
FoamFile
{
    version     2.0;
    format      ascii;
    class       volVectorField;
    location    "3.5";
    object      U;
}
// * * * * * * * * * * * * * * * * * * * * * * * * * * * * * * * * * * * * * //

dimensions      [0 1 -1 0 0 0 0];

internalField   nonuniform List<vector> 
14592
(
(0.0189993 -8.99914e-05 -0.00170921)
(0.0189338 4.55956e-05 -0.00308022)
(0.0186662 0.000155363 -0.00390151)
(0.0182091 0.000220966 -0.00463708)
(0.0176033 0.000270156 -0.00546287)
(0.0168836 0.000308675 -0.00646353)
(0.0160945 0.000331573 -0.00769281)
(0.0152959 0.000330032 -0.00920076)
(0.0145621 0.00029152 -0.0110526)
(0.013981 0.000197492 -0.0133463)
(0.0136595 1.78093e-05 -0.0162356)
(0.0137346 -0.00029273 -0.019958)
(0.0143745 -0.000784622 -0.0248299)
(0.0155454 -0.00137019 -0.0309975)
(0.0158303 -0.0012865 -0.0370294)
(0.0115722 0.000682209 -0.0323147)
(0.0529335 -1.07744e-05 -0.00203584)
(0.0526713 0.000289734 -0.00473908)
(0.0521167 0.000627204 -0.00674199)
(0.0512686 0.000923105 -0.00855212)
(0.0501434 0.00117486 -0.0104853)
(0.0487596 0.00137264 -0.0127352)
(0.0471667 0.00149803 -0.015424)
(0.0454443 0.00153165 -0.0186456)
(0.0436874 0.00145181 -0.0225057)
(0.0419901 0.00122555 -0.0271634)
(0.0404318 0.000788374 -0.0328788)
(0.0390522 2.24766e-05 -0.0400713)
(0.0378177 -0.0012473 -0.0493109)
(0.0362913 -0.00304626 -0.0607162)
(0.0317786 -0.00413219 -0.0705897)
(0.0187724 -0.00132777 -0.0559396)
(0.0821906 0.000136626 -0.00164177)
(0.081912 0.000613212 -0.00440012)
(0.0813288 0.00116777 -0.00675869)
(0.0804616 0.00171918 -0.00900436)
(0.0793085 0.00223238 -0.0114117)
(0.0778355 0.00267302 -0.014205)
(0.0760327 0.00300229 -0.0175502)
(0.0739241 0.00318604 -0.0215702)
(0.0715559 0.00319491 -0.0263809)
(0.0689711 0.00299407 -0.0321385)
(0.066177 0.00251206 -0.0391056)
(0.0630825 0.00160024 -0.0477454)
(0.0594205 -2.31674e-05 -0.0588105)
(0.0544475 -0.00267523 -0.072835)
(0.0444914 -0.00533145 -0.0856245)
(0.0228365 -0.00329131 -0.0672131)
(0.106595 0.00025226 -0.00129228)
(0.106363 0.000884354 -0.00367064)
(0.105856 0.00160305 -0.00586679)
(0.105114 0.00235359 -0.00804673)
(0.104142 0.00309536 -0.0104209)
(0.102871 0.00378648 -0.0132094)
(0.101221 0.00437991 -0.0166121)
(0.0991313 0.00483422 -0.0207939)
(0.0965614 0.00511779 -0.0258986)
(0.0934738 0.00520567 -0.0320863)
(0.0898009 0.0050482 -0.0396014)
(0.0853498 0.00453133 -0.0488933)
(0.0796779 0.00337269 -0.060828)
(0.0718883 0.00100436 -0.0765799)
(0.0572156 -0.00253863 -0.0925934)
(0.0267745 -0.00320524 -0.0741055)
(0.126116 0.000340843 -0.0010699)
(0.125931 0.00110154 -0.00307621)
(0.125512 0.00193575 -0.00497682)
(0.12491 0.00281877 -0.00689412)
(0.124148 0.00372448 -0.00899534)
(0.123154 0.00462434 -0.0114862)
(0.121806 0.00548444 -0.0145899)
(0.119972 0.00627529 -0.01852)
(0.117525 0.00697734 -0.0234722)
(0.114334 0.00758894 -0.0296433)
(0.110253 0.00809926 -0.0372866)
(0.105002 0.0084757 -0.0468376)
(0.0979893 0.0085425 -0.0591671)
(0.0883033 0.00778954 -0.0760993)
(0.0702255 0.00500253 -0.0953656)
(0.0311328 0.000529249 -0.0784351)
(0.140752 0.000410035 -0.000926182)
(0.140606 0.00127621 -0.00265747)
(0.140268 0.00219618 -0.00429865)
(0.139793 0.00316838 -0.00595046)
(0.139221 0.00418681 -0.00774855)
(0.138492 0.00524627 -0.00987582)
(0.137479 0.00634049 -0.0125589)
(0.136011 0.00747021 -0.0160439)
(0.133905 0.00864659 -0.0205757)
(0.13096 0.00991202 -0.0264006)
(0.126965 0.0113134 -0.0337999)
(0.121568 0.0129521 -0.0432204)
(0.114063 0.0148086 -0.055455)
(0.103565 0.0168864 -0.0727951)
(0.0840709 0.01714 -0.094868)
(0.0367731 0.00923945 -0.0802981)
(0.150507 0.000461068 -0.000825416)
(0.150393 0.00140586 -0.00235773)
(0.150133 0.00238561 -0.00380007)
(0.149782 0.00341513 -0.00523802)
(0.149391 0.00450727 -0.00678304)
(0.148916 0.00568077 -0.00859201)
(0.148242 0.00696044 -0.0108773)
(0.147194 0.00838467 -0.0138904)
(0.145578 0.0100054 -0.0178982)
(0.143159 0.0119236 -0.0231742)
(0.139734 0.014255 -0.0300096)
(0.134902 0.0172973 -0.0388488)
(0.128044 0.0212163 -0.0503524)
(0.117925 0.0270834 -0.0668597)
(0.100494 0.0334993 -0.0908014)
(0.0459199 0.0259564 -0.0786712)
(0.155382 0.000493528 -0.000751327)
(0.155298 0.00148398 -0.00213541)
(0.155117 0.00249179 -0.00342566)
(0.154898 0.0035439 -0.00469667)
(0.154697 0.00466944 -0.00604346)
(0.154484 0.00590803 -0.0076015)
(0.154163 0.00731217 -0.00956236)
(0.153573 0.00895384 -0.0121615)
(0.152547 0.0109219 -0.0156559)
(0.150865 0.0133673 -0.0203046)
(0.148437 0.0164608 -0.0263664)
(0.144838 0.0206665 -0.0341982)
(0.14021 0.0263753 -0.0443092)
(0.131738 0.0355114 -0.0581392)
(0.124087 0.0530046 -0.0820734)
(0.0648886 0.0522913 -0.0705007)
(0.0203008 -0.000109903 -0.0016556)
(0.0201653 1.97848e-05 -0.00300176)
(0.0197717 0.000132506 -0.00382001)
(0.0191463 0.000196778 -0.00455558)
(0.018333 0.000242255 -0.00537931)
(0.0173586 0.000276063 -0.00637554)
(0.0162557 0.00029286 -0.00759829)
(0.0150699 0.000282672 -0.00909544)
(0.0138575 0.000231224 -0.0109243)
(0.0126794 0.000117813 -0.0131644)
(0.0115982 -8.99739e-05 -0.0159294)
(0.0106739 -0.000440036 -0.0193659)
(0.00994618 -0.000989542 -0.0235726)
(0.00917971 -0.00167811 -0.0282088)
(0.00729431 -0.00210308 -0.0310858)
(0.00377205 -0.00156673 -0.0234011)
(0.0566193 -3.4272e-05 -0.00192661)
(0.0562404 0.000240273 -0.00453865)
(0.0554663 0.000567535 -0.00649901)
(0.0543048 0.000854296 -0.00827387)
(0.0527792 0.00109536 -0.010162)
(0.050893 0.00127981 -0.0123544)
(0.0486724 0.00138566 -0.0149759)
(0.0461682 0.00138829 -0.0181201)
(0.0434413 0.00125963 -0.0218814)
(0.0405386 0.000958636 -0.0263858)
(0.0374674 0.000409247 -0.0318192)
(0.0341527 -0.000522107 -0.0384305)
(0.0303909 -0.0020233 -0.0463485)
(0.0254382 -0.00410195 -0.054654)
(0.0173934 -0.00578342 -0.0583693)
(0.00715162 -0.00445361 -0.0407004)
(0.0879389 0.000120714 -0.00152764)
(0.0875549 0.000565876 -0.00415294)
(0.0867497 0.00109901 -0.00643193)
(0.0855439 0.00163413 -0.00860883)
(0.0839445 0.00213268 -0.010931)
(0.0819038 0.00255692 -0.0136127)
(0.0793827 0.002861 -0.0168227)
(0.0763646 0.00300097 -0.0206896)
(0.0728443 0.00293624 -0.025325)
(0.0687977 0.0026189 -0.0308572)
(0.0641372 0.00195859 -0.0374717)
(0.0586266 0.000776838 -0.0454416)
(0.0517807 -0.00124247 -0.0550185)
(0.0423677 -0.00433081 -0.0653067)
(0.0275636 -0.00742211 -0.0701794)
(0.00992063 -0.00652442 -0.0489079)
(0.114059 0.00024632 -0.00119416)
(0.113742 0.000857692 -0.00343534)
(0.113039 0.00155839 -0.00553881)
(0.111981 0.00229597 -0.00763843)
(0.110581 0.00302868 -0.00991344)
(0.108762 0.00371192 -0.0125644)
(0.106416 0.00429123 -0.0157878)
(0.103434 0.00471404 -0.0197567)
(0.0997059 0.00493599 -0.0246213)
(0.0950999 0.0049189 -0.0305289)
(0.0894193 0.00459676 -0.0376612)
(0.0822762 0.00382902 -0.0462918)
(0.0729767 0.00229061 -0.0567979)
(0.0598994 -0.00050529 -0.0686726)
(0.0387691 -0.0041877 -0.0754818)
(0.0130671 -0.00551048 -0.0537555)
(0.134949 0.000343381 -0.000987977)
(0.134695 0.0011005 -0.00287133)
(0.134108 0.00193069 -0.00468556)
(0.133222 0.00281431 -0.00653119)
(0.132067 0.00372636 -0.0085454)
(0.130567 0.00463763 -0.0109061)
(0.128581 0.00550952 -0.0138222)
(0.125928 0.00630457 -0.0175102)
(0.122402 0.00699409 -0.022178)
(0.117753 0.00756896 -0.0280254)
(0.111669 0.00801293 -0.0352657)
(0.103622 0.00828625 -0.0441782)
(0.0927211 0.00820618 -0.055217)
(0.0771829 0.00726197 -0.0684184)
(0.0509724 0.00466119 -0.0775017)
(0.0169869 -5.16882e-05 -0.0565405)
(0.150612 0.000419072 -0.000856102)
(0.150406 0.00129777 -0.00248063)
(0.149924 0.00223031 -0.00404763)
(0.149196 0.00322096 -0.00564351)
(0.148266 0.00426633 -0.00737811)
(0.147075 0.00536257 -0.00940247)
(0.145483 0.00650266 -0.0119182)
(0.143282 0.00768559 -0.0151639)
(0.14021 0.00892155 -0.0193947)
(0.135936 0.0102574 -0.0248691)
(0.130057 0.0117537 -0.0318531)
(0.121937 0.0135335 -0.0406592)
(0.110504 0.0156437 -0.0517486)
(0.0940897 0.0180551 -0.0657291)
(0.0648594 0.0189741 -0.0769749)
(0.0224928 0.0114589 -0.057285)
(0.16105 0.000474977 -0.000763417)
(0.160884 0.0014451 -0.0022021)
(0.160499 0.0024522 -0.00358143)
(0.159923 0.00351722 -0.0049775)
(0.159208 0.00465674 -0.00648089)
(0.158313 0.00589264 -0.00821673)
(0.157118 0.00725291 -0.0103659)
(0.155422 0.00878131 -0.0131624)
(0.152964 0.0105387 -0.0168773)
(0.149387 0.0126465 -0.0217992)
(0.14429 0.0152578 -0.028223)
(0.137 0.0187345 -0.0364913)
(0.126418 0.0234 -0.046997)
(0.111026 0.0304583 -0.0608029)
(0.0827519 0.0383546 -0.0738625)
(0.031989 0.0327333 -0.0553255)
(0.166268 0.000510865 -0.000694691)
(0.166136 0.0015361 -0.00199483)
(0.165845 0.00258288 -0.00323096)
(0.165425 0.0036844 -0.0044706)
(0.164933 0.00487421 -0.00579122)
(0.164342 0.00619651 -0.0072983)
(0.163559 0.00771035 -0.00914987)
(0.162408 0.00949955 -0.0115592)
(0.160671 0.0116707 -0.0147821)
(0.158024 0.0144101 -0.0190942)
(0.154207 0.0179415 -0.0247683)
(0.14859 0.0228517 -0.0321102)
(0.140763 0.0297117 -0.0413847)
(0.128387 0.0411498 -0.0535442)
(0.111012 0.0616955 -0.0679774)
(0.0509642 0.0637155 -0.0490078)
(0.0214131 -0.000129229 -0.00153522)
(0.0212105 -7.11983e-06 -0.00279571)
(0.0206974 0.000108255 -0.00356963)
(0.0199132 0.000170813 -0.00426641)
(0.0189057 0.000211856 -0.00504422)
(0.0176955 0.000239845 -0.00598211)
(0.0163052 0.000249049 -0.0071302)
(0.01477 0.000228505 -0.00852963)
(0.0131348 0.000162746 -0.0102238)
(0.011448 3.04228e-05 -0.0122647)
(0.00975744 -0.000199709 -0.0147144)
(0.00811061 -0.000574483 -0.0176231)
(0.00655135 -0.00113962 -0.0209216)
(0.00499111 -0.00186065 -0.0240612)
(0.00307904 -0.00249381 -0.0249131)
(0.000936131 -0.00218454 -0.0169189)
(0.0597761 -5.5928e-05 -0.00175207)
(0.0592894 0.000192852 -0.004166)
(0.0583117 0.000509515 -0.00599497)
(0.0568588 0.000786306 -0.00765212)
(0.0549626 0.00101504 -0.00940767)
(0.052616 0.00118358 -0.0114391)
(0.0498264 0.00126645 -0.0138647)
(0.0466227 0.00123412 -0.0167688)
(0.0430423 0.00105337 -0.0202252)
(0.0391086 0.000678896 -0.0243148)
(0.0348044 3.32437e-05 -0.0291343)
(0.0300488 -0.00100948 -0.0347627)
(0.0246765 -0.00261971 -0.0410179)
(0.018244 -0.00477355 -0.0466161)
(0.0102632 -0.00665753 -0.0468744)
(0.00257135 -0.00549854 -0.0293508)
(0.0928646 0.000106941 -0.00137031)
(0.0923853 0.000523807 -0.00376607)
(0.0913784 0.00103668 -0.00587029)
(0.0898617 0.00155549 -0.00788546)
(0.0878522 0.00203809 -0.0100255)
(0.0852931 0.00244336 -0.0124839)
(0.0821225 0.00271859 -0.0154193)
(0.0782925 0.0028103 -0.0189533)
(0.0737597 0.00266796 -0.0231821)
(0.0684581 0.00223511 -0.0281931)
(0.0622604 0.00141587 -0.0340807)
(0.054897 3.72261e-05 -0.0409278)
(0.0459022 -0.0021857 -0.0486193)
(0.0343249 -0.00538133 -0.0557041)
(0.0192475 -0.0085721 -0.056262)
(0.00453442 -0.00775778 -0.0347637)
(0.120455 0.000242046 -0.00106566)
(0.120062 0.000836994 -0.00309415)
(0.119185 0.00152275 -0.00502185)
(0.11784 0.0022489 -0.00695562)
(0.116048 0.0029726 -0.00904317)
(0.113728 0.00364674 -0.0114579)
(0.11075 0.00420971 -0.0143787)
(0.106969 0.0045978 -0.01797)
(0.102222 0.00475436 -0.0223719)
(0.0963101 0.0046314 -0.0277024)
(0.0889637 0.00415787 -0.034065)
(0.079728 0.0031959 -0.0415534)
(0.0678863 0.0014583 -0.0501363)
(0.0519278 -0.00140547 -0.058587)
(0.0298603 -0.00504998 -0.0603935)
(0.00712856 -0.00635413 -0.0376881)
(0.142519 0.000347144 -0.000881522)
(0.142201 0.00110474 -0.00258099)
(0.141467 0.00193454 -0.00423819)
(0.140327 0.00282109 -0.00593637)
(0.138813 0.0037405 -0.00778613)
(0.136849 0.00466318 -0.00993462)
(0.134278 0.00554605 -0.0125642)
(0.130886 0.00634316 -0.0158745)
(0.126406 0.00701581 -0.0200627)
(0.120502 0.00754799 -0.0253079)
(0.112755 0.007923 -0.0317606)
(0.102522 0.00811517 -0.0395364)
(0.088858 0.00797678 -0.0487011)
(0.0698521 0.00712598 -0.0584041)
(0.0419226 0.00474925 -0.0619579)
(0.0107685 8.95702e-05 -0.0392377)
(0.159061 0.00042922 -0.000764543)
(0.1588 0.00132392 -0.0022302)
(0.158192 0.00227233 -0.00366109)
(0.157239 0.0032836 -0.00513218)
(0.155986 0.00435693 -0.00673264)
(0.154369 0.00549012 -0.00858336)
(0.152243 0.00667544 -0.010853)
(0.14937 0.00790899 -0.0137534)
(0.145437 0.0091976 -0.0175222)
(0.140016 0.0105894 -0.0223996)
(0.132579 0.0121551 -0.0286035)
(0.12233 0.014045 -0.0363005)
(0.108131 0.0163665 -0.0456151)
(0.0879888 0.0191903 -0.0561849)
(0.0562044 0.0206558 -0.061608)
(0.0162809 0.013287 -0.0394711)
(0.170087 0.000490129 -0.000682127)
(0.169871 0.00148872 -0.00198089)
(0.169375 0.00252593 -0.00324142)
(0.168601 0.00362813 -0.00453173)
(0.167595 0.00481558 -0.00592686)
(0.166315 0.00611351 -0.00752514)
(0.164635 0.00755273 -0.00947258)
(0.162338 0.00918067 -0.0119698)
(0.159121 0.0110635 -0.0152634)
(0.154539 0.0133363 -0.0196225)
(0.148066 0.016177 -0.0253071)
(0.138851 0.0199959 -0.032535)
(0.125712 0.0252143 -0.0414344)
(0.106817 0.0331602 -0.052151)
(0.0752598 0.0420647 -0.0594428)
(0.0262636 0.0370356 -0.0381038)
(0.175597 0.000529708 -0.000620606)
(0.175421 0.00159278 -0.00179478)
(0.175032 0.00268087 -0.00292568)
(0.174437 0.00383304 -0.00407437)
(0.173685 0.0050873 -0.005306)
(0.17275 0.00649237 -0.00670256)
(0.171535 0.00811291 -0.0083885)
(0.169859 0.0100423 -0.0105419)
(0.167473 0.0124004 -0.013392)
(0.163984 0.0153999 -0.0171953)
(0.159025 0.019301 -0.022203)
(0.151819 0.024769 -0.0286301)
(0.141837 0.0324816 -0.0365521)
(0.126713 0.045394 -0.0462845)
(0.106027 0.06773 -0.0556003)
(0.0456411 0.069796 -0.0342433)
(0.0223377 -0.000146876 -0.00135251)
(0.0220737 -3.29125e-05 -0.00247124)
(0.0214524 8.46674e-05 -0.00316195)
(0.0205252 0.000145445 -0.00378425)
(0.0193442 0.000182034 -0.00447659)
(0.0179256 0.000204123 -0.0053084)
(0.0162854 0.000205658 -0.00632279)
(0.0144525 0.000174906 -0.00755207)
(0.0124677 9.57437e-05 -0.00902486)
(0.0103791 -5.2817e-05 -0.0107679)
(0.00824132 -0.000298735 -0.012801)
(0.00612334 -0.000685584 -0.0151072)
(0.00412315 -0.00124483 -0.0175386)
(0.00233356 -0.00195015 -0.0195339)
(0.000854705 -0.00261098 -0.0193698)
(-0.000259781 -0.00228234 -0.0124448)
(0.062405 -7.49697e-05 -0.001519)
(0.0618225 0.000149916 -0.0036374)
(0.0606638 0.000456506 -0.00525455)
(0.0589512 0.000723762 -0.00671958)
(0.0567263 0.000940474 -0.00826507)
(0.0539753 0.00109331 -0.0100463)
(0.0506925 0.0011536 -0.0121673)
(0.046893 0.00108761 -0.0146983)
(0.0426033 0.000858438 -0.0176906)
(0.037843 0.000419864 -0.0211842)
(0.0326053 -0.000299956 -0.0252063)
(0.026857 -0.00140641 -0.0297142)
(0.0205559 -0.00304289 -0.0343908)
(0.0136157 -0.00514852 -0.0379612)
(0.00637527 -0.00698821 -0.0366264)
(0.000552886 -0.00575772 -0.0216524)
(0.0969682 9.53716e-05 -0.00117519)
(0.0964058 0.000487777 -0.00325656)
(0.0952224 0.000982636 -0.00510125)
(0.093432 0.00148664 -0.00687131)
(0.091061 0.0019543 -0.00874374)
(0.0880471 0.0023414 -0.0108835)
(0.0843131 0.00258902 -0.0134291)
(0.07979 0.00263515 -0.0164864)
(0.0744113 0.00242122 -0.020131)
(0.0680923 0.00188672 -0.0244121)
(0.0607069 0.000940588 -0.0293494)
(0.0520131 -0.000565185 -0.0349028)
(0.0416783 -0.00285445 -0.0407655)
(0.0291687 -0.00598056 -0.045421)
(0.0147081 -0.00903686 -0.04396)
(0.00215767 -0.00811893 -0.0254639)
(0.125784 0.000239008 -0.000910472)
(0.125325 0.000821188 -0.00266131)
(0.124297 0.00149499 -0.00434073)
(0.122702 0.00221175 -0.00603237)
(0.120568 0.0029277 -0.00785372)
(0.117808 0.00359366 -0.00994699)
(0.11428 0.00414173 -0.0124644)
(0.109814 0.00449792 -0.0155493)
(0.104211 0.00459487 -0.0193212)
(0.0972343 0.0043785 -0.0238657)
(0.0885841 0.00378195 -0.0292219)
(0.0778175 0.00268769 -0.0353612)
(0.0643111 0.000881472 -0.0420222)
(0.0469164 -0.0018828 -0.0478009)
(0.0250893 -0.00531149 -0.0471321)
(0.00455636 -0.00650859 -0.0273764)
(0.148826 0.000351315 -0.000753211)
(0.148454 0.00111164 -0.00221671)
(0.147592 0.00194327 -0.00365629)
(0.146232 0.00283411 -0.00514002)
(0.144407 0.00376129 -0.00675508)
(0.142036 0.00469524 -0.0086181)
(0.138954 0.00558911 -0.0108787)
(0.134922 0.00638896 -0.0137066)
(0.129637 0.0070464 -0.0172727)
(0.122707 0.00753977 -0.0217239)
(0.113657 0.00785649 -0.0271541)
(0.101812 0.0079965 -0.0335648)
(0.0862889 0.00786351 -0.040791)
(0.0654211 0.00719366 -0.047677)
(0.0372409 0.00512354 -0.0483067)
(0.00815336 0.000539993 -0.0283322)
(0.166102 0.000439263 -0.000653746)
(0.165793 0.00135076 -0.00191591)
(0.165074 0.00231584 -0.00315827)
(0.16393 0.00334761 -0.00444452)
(0.162396 0.0044476 -0.00584629)
(0.160409 0.00561548 -0.00745756)
(0.157812 0.00684311 -0.009412)
(0.154354 0.00812353 -0.011884)
(0.149687 0.00945883 -0.0150763)
(0.143326 0.0108964 -0.0191928)
(0.13467 0.0125136 -0.024398)
(0.122854 0.0144882 -0.0307557)
(0.106775 0.0169809 -0.0381823)
(0.0845343 0.0201524 -0.0459273)
(0.0519689 0.0220768 -0.0481143)
(0.0138188 0.014781 -0.0284438)
(0.177616 0.000504898 -0.000583504)
(0.177357 0.00153171 -0.00170258)
(0.176765 0.0025985 -0.00279757)
(0.175822 0.00373621 -0.00392729)
(0.174567 0.00496846 -0.00515361)
(0.172951 0.00632372 -0.00655263)
(0.170845 0.00783547 -0.00823707)
(0.16802 0.00955363 -0.0103673)
(0.16415 0.0115467 -0.013149)
(0.158739 0.0139575 -0.0168108)
(0.151191 0.016978 -0.0215638)
(0.140563 0.0210514 -0.0275349)
(0.125694 0.0266579 -0.0346859)
(0.104749 0.0352011 -0.0427635)
(0.0719064 0.0447693 -0.0466887)
(0.0242099 0.0399999 -0.0276175)
(0.183371 0.000548054 -0.000530803)
(0.183155 0.00164805 -0.00154289)
(0.182682 0.00277592 -0.002526)
(0.181938 0.00397581 -0.00353323)
(0.180965 0.00528992 -0.00461918)
(0.17973 0.00677113 -0.00584734)
(0.178137 0.0084889 -0.00731216)
(0.175995 0.010544 -0.00915293)
(0.173047 0.0130652 -0.0115577)
(0.168859 0.0162828 -0.0147438)
(0.163007 0.0204776 -0.0189219)
(0.15463 0.0263608 -0.0242369)
(0.143199 0.0346602 -0.0306491)
(0.126373 0.0484798 -0.0381882)
(0.104253 0.0718718 -0.0442348)
(0.0437817 0.0736361 -0.0251642)
(0.0230748 -0.000161509 -0.0011146)
(0.0227592 -5.31399e-05 -0.00204204)
(0.0220458 6.41173e-05 -0.00261574)
(0.0209966 0.000122783 -0.00313292)
(0.0196692 0.000155365 -0.00370657)
(0.0180769 0.000172202 -0.00439319)
(0.0162317 0.000166992 -0.00522709)
(0.0141599 0.000127483 -0.00623158)
(0.0119033 3.72931e-05 -0.00742309)
(0.00951698 -0.000123734 -0.00881039)
(0.00707369 -0.000383637 -0.0103873)
(0.00467343 -0.000771061 -0.0121049)
(0.00247129 -0.00131532 -0.0138011)
(0.000686962 -0.00198662 -0.015003)
(-0.000357056 -0.00260896 -0.0144382)
(-0.000796619 -0.00225216 -0.008992)
(0.0645074 -9.06749e-05 -0.00123592)
(0.0638441 0.0001146 -0.002975)
(0.0625323 0.00041153 -0.00431072)
(0.060601 0.000670152 -0.00551992)
(0.0581003 0.000876283 -0.00679061)
(0.0550128 0.00101533 -0.00824939)
(0.0513252 0.00105595 -0.0099807)
(0.0470457 0.000961024 -0.0120387)
(0.0421989 0.000691317 -0.0144551)
(0.0368113 0.000202107 -0.0172415)
(0.0309102 -0.000567662 -0.0203839)
(0.02452 -0.00170691 -0.0237817)
(0.0177229 -0.00332837 -0.0270999)
(0.0106981 -0.00534034 -0.0292688)
(0.00417893 -0.00705658 -0.0274603)
(-0.000403404 -0.00575371 -0.0157186)
(0.10025 8.60053e-05 -0.000948306)
(0.099619 0.000457894 -0.00264399)
(0.0982887 0.000938035 -0.00415714)
(0.0962699 0.00142964 -0.00561105)
(0.0935969 0.00188456 -0.00714415)
(0.0902049 0.00225612 -0.00888783)
(0.0860074 0.00248018 -0.0109542)
(0.0809232 0.00248768 -0.0134279)
(0.0748748 0.00221398 -0.0163637)
(0.0677771 0.00159772 -0.019783)
(0.0595211 0.000560641 -0.0236612)
(0.0499156 -0.00102272 -0.0279048)
(0.0387869 -0.00330576 -0.032147)
(0.0259287 -0.00629758 -0.0350858)
(0.0121444 -0.00915636 -0.0330046)
(0.001041 -0.00813445 -0.0184387)
(0.130046 0.000236883 -0.000732705)
(0.129532 0.000809322 -0.00215207)
(0.128381 0.00147404 -0.00352275)
(0.12658 0.00218352 -0.00490776)
(0.124161 0.00289332 -0.00639627)
(0.121036 0.00355278 -0.00809803)
(0.117054 0.00408886 -0.0101334)
(0.11203 0.00441898 -0.0126172)
(0.105745 0.004467 -0.0156437)
(0.097945 0.00417552 -0.0192696)
(0.0883244 0.00348406 -0.0234935)
(0.0764879 0.00230776 -0.0282234)
(0.0619355 0.000503187 -0.033138)
(0.0438421 -0.00210614 -0.0369581)
(0.0224591 -0.00528276 -0.0353888)
(0.00339351 -0.00639381 -0.0197415)
(0.153871 0.000355301 -0.000606228)
(0.153453 0.00111925 -0.00179071)
(0.152487 0.00195377 -0.00296285)
(0.150946 0.00284928 -0.00417611)
(0.148865 0.00378378 -0.00549665)
(0.146157 0.00472804 -0.00701227)
(0.142652 0.00563237 -0.00883776)
(0.138097 0.00643605 -0.0111067)
(0.132166 0.00708221 -0.0139549)
(0.12444 0.00754471 -0.0174943)
(0.114416 0.00781659 -0.0217771)
(0.101435 0.00792712 -0.0267461)
(0.0847064 0.00782691 -0.0321535)
(0.0628438 0.00734348 -0.036885)
(0.0347697 0.00556464 -0.0362733)
(0.00702102 0.00102845 -0.0203799)
(0.171733 0.0004483 -0.000526455)
(0.171384 0.00137539 -0.00154809)
(0.170576 0.00235603 -0.00255919)
(0.169273 0.00340635 -0.00361111)
(0.16751 0.00452975 -0.00475947)
(0.165217 0.00572776 -0.00607435)
(0.162232 0.00699223 -0.00765574)
(0.158293 0.0083135 -0.00963722)
(0.153035 0.00968874 -0.0121777)
(0.14594 0.0111631 -0.0154371)
(0.136374 0.0128183 -0.0195327)
(0.123451 0.0148545 -0.0244707)
(0.106138 0.0174747 -0.0300832)
(0.0827133 0.020908 -0.0355731)
(0.0498951 0.0231845 -0.0362023)
(0.0128602 0.0159185 -0.0204811)
(0.183639 0.000518068 -0.000470008)
(0.183343 0.00157028 -0.00137626)
(0.182672 0.00266361 -0.00226775)
(0.181591 0.00383261 -0.00319229)
(0.180131 0.00510366 -0.00419906)
(0.178241 0.00650815 -0.00534507)
(0.175783 0.00808187 -0.00671315)
(0.172523 0.00987656 -0.00842315)
(0.168123 0.0119611 -0.0106334)
(0.162062 0.0144819 -0.0135228)
(0.15371 0.0176371 -0.0172517)
(0.142088 0.0218901 -0.0218903)
(0.126074 0.0277547 -0.0273311)
(0.103935 0.036684 -0.0332043)
(0.0704885 0.0466947 -0.0353005)
(0.0235688 0.0420741 -0.0200251)
(0.189589 0.000564406 -0.000427505)
(0.189341 0.00169737 -0.00124735)
(0.188798 0.00286046 -0.00204818)
(0.187931 0.00410201 -0.00287325)
(0.186778 0.00546775 -0.00376645)
(0.1853 0.00701412 -0.00477571)
(0.183394 0.00881445 -0.00596975)
(0.180868 0.0109751 -0.00745086)
(0.17746 0.0136301 -0.00936166)
(0.172718 0.0170207 -0.0118713)
(0.166199 0.0214368 -0.0151437)
(0.156993 0.0276147 -0.0192758)
(0.144605 0.0362985 -0.0241828)
(0.12674 0.0506655 -0.0297843)
(0.103911 0.0747232 -0.0337433)
(0.0432644 0.076248 -0.0184227)
(0.0236257 -0.000172676 -0.000830503)
(0.02327 -6.74909e-05 -0.00152464)
(0.0224844 4.7528e-05 -0.00195469)
(0.0213393 0.000103889 -0.00234224)
(0.0198977 0.000133035 -0.00277095)
(0.0181714 0.000145467 -0.00328238)
(0.0161704 0.0001347 -0.00390115)
(0.0139208 8.81187e-05 -0.00464257)
(0.0114678 -1.07946e-05 -0.00551457)
(0.00887587 -0.000180896 -0.00651649)
(0.00623681 -0.000449834 -0.00763166)
(0.00368033 -0.00083738 -0.00880775)
(0.00140274 -0.00136513 -0.00990776)
(-0.000298291 -0.00200008 -0.0105919)
(-0.00101787 -0.00258263 -0.00998749)
(-0.00105198 -0.00219696 -0.00611091)
(0.0660835 -0.000102683 -0.000912178)
(0.0653569 8.78245e-05 -0.0022048)
(0.063925 0.000376243 -0.00320153)
(0.0618237 0.000627579 -0.00410322)
(0.0591088 0.000825071 -0.0050479)
(0.0557619 0.000952987 -0.00612873)
(0.0517658 0.0009779 -0.00740753)
(0.0471267 0.000860201 -0.00892207)
(0.0418724 0.000559172 -0.01069)
(0.0360413 3.21454e-05 -0.0127079)
(0.0296936 -0.000771938 -0.0149447)
(0.0229131 -0.00192918 -0.0172995)
(0.0158727 -0.00351826 -0.0194882)
(0.00891555 -0.00543417 -0.0207307)
(0.00294464 -0.00703367 -0.0190963)
(-0.000865209 -0.00567638 -0.010726)
(0.102711 7.89515e-05 -0.000695595)
(0.102026 0.000434801 -0.00194886)
(0.100582 0.000903872 -0.00307234)
(0.0983868 0.00138593 -0.00415283)
(0.09548 0.00183087 -0.00528954)
(0.0917967 0.00219028 -0.00657745)
(0.0872451 0.00239608 -0.00809825)
(0.0817381 0.00237377 -0.00991316)
(0.0751949 0.00205449 -0.0120583)
(0.0675375 0.00137762 -0.0145387)
(0.058677 0.00027839 -0.0173168)
(0.04849 -0.00134125 -0.0202922)
(0.0369123 -0.00359705 -0.0231388)
(0.023955 -0.00645551 -0.0248941)
(0.0107057 -0.00913465 -0.0229917)
(0.000511241 -0.00804162 -0.0125768)
(0.133242 0.000235519 -0.000536331)
(0.132686 0.000800979 -0.00158158)
(0.131439 0.00145929 -0.00259548)
(0.129479 0.00216358 -0.00362225)
(0.126841 0.00286889 -0.00472456)
(0.123435 0.00352368 -0.00597981)
(0.119106 0.0040511 -0.00747418)
(0.113659 0.00436196 -0.00929079)
(0.106868 0.00437348 -0.0114965)
(0.0984717 0.00402687 -0.0141257)
(0.0881761 0.00326942 -0.0171602)
(0.0756295 0.00205095 -0.0204952)
(0.0604348 0.000268627 -0.0238553)
(0.0420146 -0.00219562 -0.0262472)
(0.0210212 -0.00515789 -0.0246682)
(0.00286954 -0.00621667 -0.0134432)
(0.157654 0.000358708 -0.000443741)
(0.1572 0.00112626 -0.00131498)
(0.156154 0.00196386 -0.00218047)
(0.154476 0.00286373 -0.00307887)
(0.152197 0.00380448 -0.00405698)
(0.149232 0.00475735 -0.00517567)
(0.145402 0.00567072 -0.00651535)
(0.140449 0.00647876 -0.00817114)
(0.134037 0.00711782 -0.0102404)
(0.12573 0.00755826 -0.0128009)
(0.115024 0.00779821 -0.0158784)
(0.10128 0.00788805 -0.0194023)
(0.0837948 0.00782813 -0.0231418)
(0.0613999 0.00749941 -0.0262123)
(0.0334854 0.00595063 -0.0253041)
(0.00654479 0.00143533 -0.0138722)
(0.175957 0.000455675 -0.000385459)
(0.175575 0.00139575 -0.00113699)
(0.174698 0.00238939 -0.0018833)
(0.173275 0.00345495 -0.00266209)
(0.171337 0.0045972 -0.00351356)
(0.16881 0.0058192 -0.00448617)
(0.165527 0.00711307 -0.00564865)
(0.161222 0.00846711 -0.0070942)
(0.15552 0.00987423 -0.00893554)
(0.14789 0.0113768 -0.0112862)
(0.137683 0.0130587 -0.014224)
(0.124017 0.0151352 -0.0177326)
(0.105918 0.0178443 -0.0216445)
(0.0818243 0.0214605 -0.025303)
(0.0489235 0.0239909 -0.0252989)
(0.0125293 0.0167308 -0.0139668)
(0.188155 0.000528728 -0.000344175)
(0.187831 0.00160165 -0.00101105)
(0.187099 0.00271656 -0.00166925)
(0.185912 0.00391074 -0.00235396)
(0.184298 0.00521264 -0.00310133)
(0.182198 0.00665589 -0.0039511)
(0.179471 0.00827824 -0.0049596)
(0.175879 0.0101327 -0.00620892)
(0.17108 0.0122876 -0.00780957)
(0.164543 0.0148904 -0.00988844)
(0.155623 0.018141 -0.0125572)
(0.143332 0.0225136 -0.0158535)
(0.126587 0.0285417 -0.019665)
(0.103751 0.0377121 -0.0236576)
(0.0699883 0.0480185 -0.024752)
(0.0234719 0.0434919 -0.0137274)
(0.194253 0.00057762 -0.000313027)
(0.193978 0.00173731 -0.000916443)
(0.193381 0.00292878 -0.00150795)
(0.192422 0.00420358 -0.00211932)
(0.191132 0.00561017 -0.00278313)
(0.189469 0.00720771 -0.00353306)
(0.187325 0.00907246 -0.00441559)
(0.184506 0.0113146 -0.00549992)
(0.18075 0.0140715 -0.00688434)
(0.175599 0.0175901 -0.00868835)
(0.168605 0.0221629 -0.0110276)
(0.158842 0.0285387 -0.0139659)
(0.145841 0.0374633 -0.0174171)
(0.127348 0.0521515 -0.0212847)
(0.10415 0.0766386 -0.0237826)
(0.0432584 0.0780116 -0.0126961)
(0.0239916 -0.000180251 -0.000509123)
(0.0236081 -7.82416e-05 -0.000936125)
(0.0227731 3.49695e-05 -0.0012006)
(0.0215624 8.93116e-05 -0.00143847)
(0.0200428 0.000115496 -0.00170119)
(0.0182256 0.000124228 -0.0020139)
(0.0161202 0.000108865 -0.00239121)
(0.0137533 5.6473e-05 -0.00284158)
(0.0111736 -4.96328e-05 -0.00336812)
(0.00845429 -0.000227262 -0.00396729)
(0.00570161 -0.000502838 -0.00462471)
(0.00306693 -0.000892011 -0.00530232)
(0.000767736 -0.00140993 -0.00591103)
(-0.000848944 -0.00201285 -0.00625845)
(-0.00135765 -0.00257054 -0.00582649)
(-0.00116746 -0.00216075 -0.00352937)
(0.0671322 -0.000110622 -0.000555198)
(0.066362 6.92518e-05 -0.00134765)
(0.0648488 0.000351628 -0.00195867)
(0.0626314 0.000597646 -0.00251078)
(0.0597704 0.000788708 -0.00308827)
(0.0562476 0.000908442 -0.00374749)
(0.052044 0.000922035 -0.00452571)
(0.0471661 0.000788133 -0.00544498)
(0.0416457 0.00046508 -0.00651346)
(0.0355341 -8.73841e-05 -0.0077244)
(0.0289146 -0.000913962 -0.00905153)
(0.0219151 -0.00208089 -0.0104229)
(0.0147658 -0.0036433 -0.0116556)
(0.00790154 -0.0054834 -0.0122842)
(0.0022898 -0.00700203 -0.0111926)
(-0.001076 -0.00560865 -0.00622022)
(0.10435 7.44681e-05 -0.00042136)
(0.103628 0.000419622 -0.00118672)
(0.102108 0.000881257 -0.00187334)
(0.0997918 0.00135685 -0.0025336)
(0.0967261 0.00179487 -0.00322748)
(0.0928451 0.00214591 -0.00401169)
(0.0880548 0.00233929 -0.00493528)
(0.0822657 0.00229687 -0.00603489)
(0.0753972 0.00194692 -0.00733073)
(0.0673802 0.00123041 -0.00882191)
(0.0581421 9.1837e-05 -0.0104765)
(0.0476113 -0.00154537 -0.0122227)
(0.035797 -0.00377335 -0.0138474)
(0.0228353 -0.00653073 -0.0147674)
(0.00994408 -0.00908245 -0.0134928)
(0.0002761 -0.00794705 -0.00729171)
(0.135371 0.00023485 -0.000324352)
(0.134786 0.000796091 -0.000961146)
(0.133475 0.00145049 -0.00157928)
(0.131408 0.00215163 -0.00220558)
(0.128621 0.00285419 -0.00287786)
(0.125025 0.00350612 -0.00364156)
(0.120461 0.00402821 -0.00454773)
(0.114731 0.00432682 -0.00564611)
(0.107606 0.00431471 -0.00697624)
(0.0988226 0.00393208 -0.00855636)
(0.0881017 0.00313323 -0.0103687)
(0.0751238 0.00189258 -0.0123375)
(0.0595657 0.000133888 -0.0142784)
(0.0410014 -0.00222428 -0.0155802)
(0.0202802 -0.00503924 -0.0144864)
(0.00265405 -0.00606999 -0.007788)
(0.160175 0.000361212 -0.000268368)
(0.159696 0.00113175 -0.000798808)
(0.158596 0.001972 -0.00132585)
(0.156825 0.00287538 -0.00187322)
(0.154413 0.00382085 -0.00246965)
(0.151273 0.00478004 -0.00315047)
(0.147225 0.0057003 -0.00396258)
(0.142006 0.00651237 -0.00496226)
(0.135273 0.00714803 -0.0062074)
(0.12659 0.00757492 -0.00774352)
(0.11545 0.00779515 -0.00958166)
(0.101238 0.00787308 -0.0116691)
(0.083314 0.00784419 -0.0138486)
(0.0606442 0.00762152 -0.0155669)
(0.0328586 0.00622644 -0.0148743)
(0.00637101 0.00171719 -0.00804004)
(0.178771 0.000460856 -0.000233206)
(0.178367 0.00141027 -0.000690856)
(0.177443 0.00241329 -0.00114527)
(0.175939 0.00348977 -0.00161959)
(0.173883 0.00464532 -0.00213897)
(0.171199 0.00588406 -0.0027316)
(0.167717 0.0071985 -0.00343701)