/*--------------------------------*- C++ -*----------------------------------*\
| =========                 |                                                 |
| \\      /  F ield         | foam-extend: Open Source CFD                    |
|  \\    /   O peration     | Version:     3.1                                |
|   \\  /    A nd           | Web:         http://www.extend-project.de       |
|    \\/     M anipulation  |                                                 |
\*---------------------------------------------------------------------------*/
FoamFile
{
    version     2.0;
    format      ascii;
    class       volVectorField;
    location    "0.0014";
    object      cellMotionU;
}
// * * * * * * * * * * * * * * * * * * * * * * * * * * * * * * * * * * * * * //

dimensions      [0 1 -1 0 0 0 0];

internalField   nonuniform List<vector> 
16000
(
(2.58117e-09 2.59357e-09 8.21626e-09)
(7.66061e-09 2.55376e-09 8.50432e-09)
(1.2467e-08 2.55693e-09 9.07644e-09)
(1.70184e-08 2.61792e-09 9.94608e-09)
(2.13332e-08 2.72048e-09 1.11499e-08)
(2.54118e-08 2.86358e-09 1.27511e-08)
(2.92352e-08 3.0344e-09 1.48442e-08)
(3.27789e-08 3.22361e-09 1.75684e-08)
(3.6019e-08 3.43653e-09 2.11187e-08)
(3.89592e-08 3.677e-09 2.57772e-08)
(2.55183e-09 7.68804e-09 8.45751e-09)
(7.66804e-09 7.67555e-09 8.73955e-09)
(1.26274e-08 7.73363e-09 9.30442e-09)
(1.73539e-08 7.9381e-09 1.01668e-08)
(2.18592e-08 8.28278e-09 1.1365e-08)
(2.61493e-08 8.73713e-09 1.29598e-08)
(3.02047e-08 9.28136e-09 1.50403e-08)
(3.40099e-08 9.90379e-09 1.77377e-08)
(3.75107e-08 1.05708e-08 2.12071e-08)
(4.06431e-08 1.12766e-08 2.5628e-08)
(2.58667e-09 1.25442e-08 8.94802e-09)
(7.79616e-09 1.26433e-08 9.21893e-09)
(1.29604e-08 1.28743e-08 9.77058e-09)
(1.80063e-08 1.32785e-08 1.06201e-08)
(2.28726e-08 1.3912e-08 1.1806e-08)
(2.75684e-08 1.47469e-08 1.33906e-08)
(3.20973e-08 1.57426e-08 1.54641e-08)
(3.64237e-08 1.68642e-08 1.81333e-08)
(4.04846e-08 1.80599e-08 2.15192e-08)
(4.41835e-08 1.92847e-08 2.57395e-08)
(2.65652e-09 1.72486e-08 9.71376e-09)
(8.06118e-09 1.74473e-08 9.97265e-09)
(1.34914e-08 1.78909e-08 1.05037e-08)
(1.89143e-08 1.85836e-08 1.13341e-08)
(2.42883e-08 1.95589e-08 1.25083e-08)
(2.9564e-08 2.08276e-08 1.40874e-08)
(3.47509e-08 2.23511e-08 1.61607e-08)
(3.9836e-08 2.40514e-08 1.88358e-08)
(4.47516e-08 2.58541e-08 2.22147e-08)
(4.94171e-08 2.76896e-08 2.64029e-08)
(2.75766e-09 2.18767e-08 1.0809e-08)
(8.41346e-09 2.21673e-08 1.10534e-08)
(1.41901e-08 2.2785e-08 1.15568e-08)
(2.00469e-08 2.37841e-08 1.23602e-08)
(2.59753e-08 2.51685e-08 1.35178e-08)
(3.19463e-08 2.69192e-08 1.50995e-08)
(3.79415e-08 2.90225e-08 1.71985e-08)
(4.39518e-08 3.13974e-08 1.99235e-08)
(4.99297e-08 3.3901e-08 2.33897e-08)
(5.58292e-08 3.64393e-08 2.77169e-08)
(2.87937e-09 2.65257e-08 1.23206e-08)
(8.81242e-09 2.68657e-08 1.25402e-08)
(1.49641e-08 2.76094e-08 1.30031e-08)
(2.13162e-08 2.88646e-08 1.37691e-08)
(2.78355e-08 3.06703e-08 1.4906e-08)
(3.45393e-08 3.29933e-08 1.65019e-08)
(4.14214e-08 3.57389e-08 1.86532e-08)
(4.84241e-08 3.88167e-08 2.14695e-08)
(5.55472e-08 4.21241e-08 2.50992e-08)
(6.27398e-08 4.54388e-08 2.96799e-08)
(3.00319e-09 3.13284e-08 1.43784e-08)
(9.22289e-09 3.16329e-08 1.45502e-08)
(1.57657e-08 3.24064e-08 1.49483e-08)
(2.26322e-08 3.38372e-08 1.56541e-08)
(2.97905e-08 3.60394e-08 1.67687e-08)
(3.72165e-08 3.89661e-08 1.8383e-08)
(4.49441e-08 4.24621e-08 2.06081e-08)
(5.29579e-08 4.63208e-08 2.35645e-08)
(6.11484e-08 5.04285e-08 2.73895e-08)
(6.94592e-08 5.4526e-08 3.22537e-08)
(3.11659e-09 3.64956e-08 1.71755e-08)
(9.62393e-09 3.66041e-08 1.72522e-08)
(1.65457e-08 3.71801e-08 1.7515e-08)
(2.39119e-08 3.86391e-08 1.81186e-08)
(3.17122e-08 4.11906e-08 1.91983e-08)
(3.98948e-08 4.47574e-08 2.08561e-08)
(4.84081e-08 4.90674e-08 2.31777e-08)
(5.72874e-08 5.38108e-08 2.62973e-08)
(6.62759e-08 5.86065e-08 3.02729e-08)
(7.53607e-08 6.3389e-08 3.53774e-08)
(3.2229e-09 4.23743e-08 2.09948e-08)
(9.97937e-09 4.19202e-08 2.08529e-08)
(1.72558e-08 4.18644e-08 2.08347e-08)
(2.50995e-08 4.30947e-08 2.12498e-08)
(3.3516e-08 4.59581e-08 2.22867e-08)
(4.24464e-08 5.02666e-08 2.40322e-08)
(5.177e-08 5.55085e-08 2.65205e-08)
(6.13079e-08 6.11025e-08 2.97876e-08)
(7.07342e-08 6.64667e-08 3.38395e-08)
(8.00924e-08 7.16765e-08 3.90168e-08)
(3.32223e-09 4.95992e-08 2.62753e-08)
(1.02817e-08 4.77166e-08 2.55957e-08)
(1.78602e-08 4.62162e-08 2.50077e-08)
(2.61577e-08 4.68525e-08 2.50989e-08)
(3.51783e-08 5.00662e-08 2.60974e-08)
(4.48351e-08 5.53461e-08 2.80182e-08)
(5.49417e-08 6.17563e-08 3.07906e-08)
(6.51456e-08 6.82959e-08 3.43125e-08)
(7.49222e-08 7.4137e-08 3.84508e-08)
(8.3751e-08 7.8993e-08 4.3168e-08)
(7.26245e-09 7.28015e-09 2.25349e-08)
(2.15403e-08 7.16578e-09 2.32916e-08)
(3.50124e-08 7.17019e-09 2.47852e-08)
(4.77023e-08 7.33537e-09 2.70314e-08)
(5.96285e-08 7.61597e-09 3.00959e-08)
(7.07495e-08 8.00926e-09 3.40969e-08)
(8.09588e-08 8.47981e-09 3.92115e-08)
(9.0127e-08 9.00244e-09 4.57e-08)
(9.81298e-08 9.59454e-09 5.39256e-08)
(1.04948e-07 1.02716e-08 6.44253e-08)
(7.17753e-09 2.15663e-08 2.31414e-08)
(2.15546e-08 2.15234e-08 2.38788e-08)
(3.54542e-08 2.16732e-08 2.53475e-08)
(4.86374e-08 2.22294e-08 2.75667e-08)
(6.11056e-08 2.31753e-08 3.0606e-08)
(7.28382e-08 2.44256e-08 3.45792e-08)
(8.37356e-08 2.59264e-08 3.96517e-08)
(9.37075e-08 2.76479e-08 4.60697e-08)
(1.02573e-07 2.95033e-08 5.41132e-08)
(1.10184e-07 3.14902e-08 6.41044e-08)
(7.271e-09 3.51447e-08 2.43694e-08)
(2.19022e-08 3.54109e-08 2.50715e-08)
(3.63725e-08 3.60381e-08 2.64938e-08)
(5.04542e-08 3.71446e-08 2.86631e-08)
(6.3949e-08 3.88885e-08 3.16494e-08)
(7.68519e-08 4.1192e-08 3.55709e-08)
(8.91388e-08 4.39437e-08 4.05992e-08)
(1.00686e-07 4.70507e-08 4.69265e-08)
(1.1132e-07 5.03791e-08 5.47629e-08)
(1.20849e-07 5.3826e-08 6.43046e-08)
(7.45993e-09 4.82334e-08 2.62715e-08)
(2.26261e-08 4.87756e-08 2.69342e-08)
(3.78349e-08 4.99936e-08 2.82865e-08)
(5.29745e-08 5.19019e-08 3.03807e-08)
(6.79072e-08 5.4596e-08 3.33031e-08)
(8.2472e-08 5.81067e-08 3.71678e-08)
(9.66747e-08 6.23282e-08 4.21454e-08)
(1.10469e-07 6.70487e-08 4.8433e-08)
(1.23693e-07 7.20752e-08 5.61984e-08)
(1.36218e-07 7.72437e-08 6.56089e-08)
(7.73294e-09 6.10139e-08 2.8963e-08)
(2.35836e-08 6.18124e-08 2.95786e-08)
(3.97493e-08 6.3518e-08 3.08398e-08)
(5.61006e-08 6.62839e-08 3.28315e-08)
(7.25974e-08 7.01233e-08 3.56632e-08)
(8.91424e-08 7.49844e-08 3.94713e-08)
(1.05673e-07 8.08312e-08 4.4434e-08)
(1.22168e-07 8.74446e-08 5.07484e-08)
(1.38527e-07 9.44449e-08 5.86086e-08)
(1.54722e-07 1.01607e-07 6.82039e-08)
(8.05909e-09 7.37248e-08 3.26271e-08)
(2.46579e-08 7.4665e-08 3.31704e-08)
(4.18511e-08 7.67302e-08 3.43068e-08)
(5.95769e-08 8.02233e-08 3.61644e-08)
(7.77308e-08 8.52536e-08 3.88821e-08)
(9.63517e-08 9.17296e-08 4.26387e-08)
(1.15418e-07 9.93932e-08 4.76207e-08)
(1.34778e-07 1.07999e-07 5.40226e-08)
(1.5447e-07 1.17284e-07 6.21026e-08)
(1.74445e-07 1.26675e-07 7.20762e-08)
(8.3856e-09 8.67021e-08 3.75338e-08)
(2.57476e-08 8.75533e-08 3.7952e-08)
(4.40017e-08 8.97206e-08 3.89072e-08)
(6.31439e-08 9.37312e-08 4.05716e-08)
(8.30795e-08 9.99015e-08 4.31586e-08)
(1.03737e-07 1.08101e-07 4.68523e-08)
(1.25211e-07 1.17905e-07 5.1872e-08)
(1.47476e-07 1.28753e-07 5.84375e-08)
(1.70265e-07 1.40349e-07 6.67722e-08)
(1.93509e-07 1.5203e-07 7.71438e-08)
(8.67683e-09 1.00508e-07 4.40786e-08)
(2.67923e-08 1.00832e-07 4.42698e-08)
(4.60609e-08 1.02483e-07 4.48865e-08)
(6.65675e-08 1.06622e-07 4.62579e-08)
(8.82833e-08 1.13826e-07 4.8671e-08)
(1.11066e-07 1.23883e-07 5.23356e-08)
(1.34777e-07 1.36039e-07 5.74163e-08)
(1.59539e-07 1.49455e-07 6.41628e-08)
(1.84671e-07 1.63095e-07 7.263e-08)
(2.10228e-07 1.76846e-07 8.32824e-08)
(8.94181e-09 1.1612e-07 5.28352e-08)
(2.76906e-08 1.14903e-07 5.25367e-08)
(4.78948e-08 1.14848e-07 5.24999e-08)
(6.96945e-08 1.18425e-07 5.3383e-08)
(9.3113e-08 1.26592e-07 5.55863e-08)
(1.17996e-07 1.38826e-07 5.92901e-08)
(1.4402e-07 1.53713e-07 6.45521e-08)
(1.7071e-07 1.69652e-07 7.14177e-08)
(1.97194e-07 1.8505e-07 7.9841e-08)
(2.23683e-07 2.00197e-07 9.04255e-08)
(9.18099e-09 1.35405e-07 6.46932e-08)
(2.84242e-08 1.3023e-07 6.32359e-08)
(4.94094e-08 1.26214e-07 6.19356e-08)
(7.2433e-08 1.28238e-07 6.20305e-08)
(9.75232e-08 1.37511e-07 6.40065e-08)
(1.24456e-07 1.5261e-07 6.7897e-08)
(1.52736e-07 1.70945e-07 7.35439e-08)
(1.81408e-07 1.89743e-07 8.07128e-08)
(2.09037e-07 2.06706e-07 8.90955e-08)
(2.34201e-07 2.21051e-07 9.85565e-08)
(1.08123e-08 1.07872e-08 3.19483e-08)
(3.20299e-08 1.06081e-08 3.29476e-08)
(5.1937e-08 1.05971e-08 3.48976e-08)
(7.04908e-08 1.08177e-08 3.77738e-08)
(8.76214e-08 1.12034e-08 4.15893e-08)
(1.03135e-07 1.17501e-08 4.63854e-08)
(1.16691e-07 1.24057e-08 5.22192e-08)
(1.27835e-07 1.31336e-08 5.9164e-08)
(1.36017e-07 1.39606e-08 6.72918e-08)
(1.40676e-07 1.49129e-08 7.6694e-08)
(1.0677e-08 3.19151e-08 3.26658e-08)
(3.20266e-08 3.18232e-08 3.36329e-08)
(5.25594e-08 3.19938e-08 3.55382e-08)
(7.18459e-08 3.27463e-08 3.8361e-08)
(8.97968e-08 3.40567e-08 4.21202e-08)
(1.06262e-07 3.58002e-08 4.68554e-08)
(1.20936e-07 3.78966e-08 5.2618e-08)
(1.33472e-07 4.03022e-08 5.94843e-08)
(1.43352e-07 4.2894e-08 6.74827e-08)
(1.50098e-07 4.56798e-08 7.65955e-08)
(1.07985e-08 5.18793e-08 3.41081e-08)
(3.24943e-08 5.22297e-08 3.50156e-08)
(5.38533e-08 5.30762e-08 3.68339e-08)
(7.4469e-08 5.46e-08 3.95552e-08)
(9.39677e-08 5.7035e-08 4.31976e-08)
(1.12242e-07 6.02658e-08 4.78096e-08)
(1.29129e-07 6.41267e-08 5.3461e-08)
(1.44306e-07 6.84806e-08 6.01917e-08)
(1.57394e-07 7.31357e-08 6.80022e-08)
(1.68073e-07 7.79561e-08 7.68376e-08)
(1.10518e-08 7.09269e-08 3.631e-08)
(3.34907e-08 7.16733e-08 3.71478e-08)
(5.59075e-08 7.33693e-08 3.88376e-08)
(7.80753e-08 7.60411e-08 4.14028e-08)
(9.97211e-08 7.98321e-08 4.48842e-08)
(1.20528e-07 8.47841e-08 4.93257e-08)
(1.40412e-07 9.07355e-08 5.48019e-08)
(1.59213e-07 9.73724e-08 6.13733e-08)
(1.76646e-07 1.04415e-07 6.90219e-08)
(1.92582e-07 1.11637e-07 7.76945e-08)
(1.14177e-08 8.92357e-08 3.93589e-08)
(3.47962e-08 9.03536e-08 4.01144e-08)
(5.85679e-08 9.27572e-08 4.16424e-08)
(8.24903e-08 9.66717e-08 4.39995e-08)
(1.06446e-07 1.02117e-07 4.72524e-08)
(1.30226e-07 1.09014e-07 5.14742e-08)
(1.5367e-07 1.17297e-07 5.6747e-08)
(1.76682e-07 1.26636e-07 6.31312e-08)
(1.99092e-07 1.36474e-07 7.06404e-08)
(2.20919e-07 1.46495e-07 7.92378e-08)
(1.18473e-08 1.07042e-07 4.33879e-08)
(3.62281e-08 1.08374e-07 4.4033e-08)
(6.14254e-08 1.11315e-07 4.53571e-08)
(8.73069e-08 1.16303e-07 4.74563e-08)
(1.13672e-07 1.23491e-07 5.04226e-08)
(1.40521e-07 1.32738e-07 5.43735e-08)
(1.67764e-07 1.43659e-07 5.94063e-08)
(1.95131e-07 1.55875e-07 6.55741e-08)
(2.22646e-07 1.68983e-07 7.29319e-08)
(2.50266e-07 1.82168e-07 8.14561e-08)
(1.22593e-08 1.24691e-07 4.85756e-08)
(3.76268e-08 1.25922e-07 4.90625e-08)
(6.42575e-08 1.29055e-07 5.01293e-08)
(9.21162e-08 1.34848e-07 5.19007e-08)
(1.21026e-07 1.43742e-07 5.45347e-08)
(1.50836e-07 1.55533e-07 5.81527e-08)
(1.81634e-07 1.69593e-07 6.28863e-08)
(2.13329e-07 1.85091e-07 6.88228e-08)
(2.45495e-07 2.01562e-07 7.59695e-08)
(2.78027e-07 2.18052e-07 8.43167e-08)
(1.25978e-08 1.42813e-07 5.51581e-08)
(3.88922e-08 1.43343e-07 5.54095e-08)
(6.6842e-08 1.45834e-07 5.60876e-08)
(9.65529e-08 1.51927e-07 5.7436e-08)
(1.27956e-07 1.62431e-07 5.96703e-08)
(1.60806e-07 1.77015e-07 6.29392e-08)
(1.94857e-07 1.94573e-07 6.7334e-08)
(2.30232e-07 2.13879e-07 7.29732e-08)
(2.6591e-07 2.33408e-07 7.97493e-08)
(3.01923e-07 2.52965e-07 8.77673e-08)
(1.28722e-08 1.62597e-07 6.34383e-08)
(3.98664e-08 1.61041e-07 6.32657e-08)
(6.89688e-08 1.61278e-07 6.33194e-08)
(1.00378e-07 1.6677e-07 6.40847e-08)
(1.3411e-07 1.78853e-07 6.5862e-08)
(1.69915e-07 1.96761e-07 6.8787e-08)
(2.07288e-07 2.18447e-07 7.28825e-08)
(2.45497e-07 2.4158e-07 7.81243e-08)
(2.83245e-07 2.63847e-07 8.43584e-08)
(3.20761e-07 2.85598e-07 9.17939e-08)
(1.30772e-08 1.86486e-07 7.38527e-08)
(4.05123e-08 1.79532e-07 7.28e-08)
(7.04878e-08 1.74443e-07 7.18123e-08)
(1.03444e-07 1.78039e-07 7.17712e-08)
(1.39417e-07 1.92004e-07 7.30473e-08)
(1.78064e-07 2.14303e-07 7.56839e-08)
(2.18645e-07 2.41225e-07 7.95642e-08)
(2.59752e-07 2.68781e-07 8.44892e-08)
(2.99281e-07 2.93623e-07 9.01758e-08)
(3.35132e-07 3.14547e-07 9.6401e-08)
(1.28781e-08 1.27556e-08 3.53357e-08)
(3.80942e-08 1.25236e-08 3.63878e-08)
(6.15895e-08 1.24742e-08 3.84144e-08)
(8.32e-08 1.26845e-08 4.13398e-08)
(1.02701e-07 1.30783e-08 4.50976e-08)
(1.19667e-07 1.36516e-08 4.96068e-08)
(1.33401e-07 1.43434e-08 5.47371e-08)
(1.4293e-07 1.51107e-08 6.02724e-08)
(1.46919e-07 1.5984e-08 6.58402e-08)
(1.43586e-07 1.6994e-08 7.08373e-08)
(1.2699e-08 3.76808e-08 3.5939e-08)
(3.80394e-08 3.75126e-08 3.69495e-08)
(6.22547e-08 3.76048e-08 3.89159e-08)
(8.4726e-08 3.83422e-08 4.17652e-08)
(1.05214e-07 3.97014e-08 4.54368e-08)
(1.23364e-07 4.15384e-08 4.98542e-08)
(1.38564e-07 4.37591e-08 5.48943e-08)
(1.50045e-07 4.63089e-08 6.03724e-08)
(1.56716e-07 4.9044e-08 6.59556e-08)
(1.57418e-07 5.19744e-08 7.11464e-08)
(1.28084e-08 6.10626e-08 3.71437e-08)
(3.84947e-08 6.13814e-08 3.80761e-08)
(6.36393e-08 6.22005e-08 3.99208e-08)
(8.76613e-08 6.37492e-08 4.26217e-08)
(1.10001e-07 6.63087e-08 4.61155e-08)
(1.3038e-07 6.97454e-08 5.03392e-08)
(1.48407e-07 7.38626e-08 5.52038e-08)
(1.63464e-07 7.84936e-08 6.05327e-08)
(1.74845e-07 8.34076e-08 6.60486e-08)
(1.81989e-07 8.84416e-08 7.13867e-08)
(1.30556e-08 8.3081e-08 3.89522e-08)
(3.95204e-08 8.38342e-08 3.97911e-08)
(6.58338e-08 8.5591e-08 4.14579e-08)
(9.16379e-08 8.83962e-08 4.3927e-08)
(1.16509e-07 9.24292e-08 4.7161e-08)
(1.39953e-07 9.77394e-08 5.10928e-08)
(1.61721e-07 1.04127e-07 5.56481e-08)
(1.81458e-07 1.11212e-07 6.06956e-08)
(1.98708e-07 1.18651e-07 6.5992e-08)
(2.13302e-07 1.26156e-07 7.12373e-08)
(1.34146e-08 1.03812e-07 4.13887e-08)
(4.08449e-08 1.04976e-07 4.21187e-08)
(6.86302e-08 1.07513e-07 4.35686e-08)
(9.64077e-08 1.11696e-07 4.57337e-08)
(1.23952e-07 1.17558e-07 4.85986e-08)
(1.50917e-07 1.25008e-07 5.21293e-08)
(1.76992e-07 1.33952e-07 5.62583e-08)
(2.01942e-07 1.43971e-07 6.08593e-08)
(2.2547e-07 1.54385e-07 6.57309e-08)
(2.47583e-07 1.64783e-07 7.05906e-08)
(1.38231e-08 1.23359e-07 4.44752e-08)
(4.22393e-08 1.24762e-07 4.50756e-08)
(7.15205e-08 1.27901e-07 4.62719e-08)
(1.01447e-07 1.33286e-07 4.80764e-08)
(1.31711e-07 1.41097e-07 5.04828e-08)
(1.6222e-07 1.51167e-07 5.34923e-08)
(1.92765e-07 1.63035e-07 5.70654e-08)
(2.22913e-07 1.76212e-07 6.10689e-08)
(2.52571e-07 1.90152e-07 6.5305e-08)
(2.81602e-07 2.03859e-07 6.95027e-08)
(1.41805e-08 1.41878e-07 4.8205e-08)
(4.35004e-08 1.43183e-07 4.86566e-08)
(7.42154e-08 1.46562e-07 4.95754e-08)
(1.06236e-07 1.52883e-07 5.0965e-08)
(1.39291e-07 1.62637e-07 5.28474e-08)
(1.73128e-07 1.75582e-07 5.52249e-08)
(2.07742e-07 1.90972e-07 5.80904e-08)
(2.429e-07 2.07809e-07 6.13624e-08)
(2.77967e-07 2.25432e-07 6.47991e-08)
(3.1266e-07 2.42655e-07 6.81053e-08)
(1.44159e-08 1.59743e-07 5.25102e-08)
(4.44927e-08 1.60324e-07 5.28069e-08)
(7.64282e-08 1.63079e-07 5.34138e-08)
(1.1031e-07 1.69832e-07 5.43472e-08)
(1.46006e-07 1.81483e-07 5.56395e-08)
(1.83163e-07 1.97643e-07 5.73163e-08)
(2.214e-07 2.17023e-07 5.93719e-08)
(2.60715e-07 2.3816e-07 6.17614e-08)
(2.99805e-07 2.59235e-07 6.42602e-08)
(3.38444e-07 2.79792e-07 6.65521e-08)
(1.45322e-08 1.77802e-07 5.72037e-08)
(4.50136e-08 1.7623e-07 5.73446e-08)
(7.78861e-08 1.76715e-07 5.76231e-08)
(1.13357e-07 1.8302e-07 5.80699e-08)
(1.51408e-07 1.96623e-07 5.87266e-08)
(1.91685e-07 2.16665e-07 5.96406e-08)
(2.3353e-07 2.40824e-07 6.08281e-08)
(2.75983e-07 2.66403e-07 6.22458e-08)
(3.17435e-07 2.90691e-07 6.37258e-08)
(3.5782e-07 3.13759e-07 6.49867e-08)
(1.45109e-08 1.98059e-07 6.19166e-08)
(4.49941e-08 1.90961e-07 6.19342e-08)
(7.838e-08 1.86062e-07 6.19239e-08)
(1.15167e-07 1.90689e-07 6.18836e-08)
(1.55365e-07 2.06709e-07 6.18719e-08)
(1.98533e-07 2.3191e-07 6.1968e-08)
(2.43754e-07 2.6217e-07 6.22251e-08)
(2.89345e-07 2.92972e-07 6.26435e-08)
(3.3282e-07 3.20455e-07 6.31444e-08)
(3.71626e-07 3.43027e-07 6.35236e-08)
(1.34499e-08 1.31963e-08 3.30207e-08)
(3.9737e-08 1.29224e-08 3.40453e-08)
(6.40781e-08 1.28124e-08 3.60041e-08)
(8.62006e-08 1.29487e-08 3.88039e-08)
(1.05754e-07 1.32578e-08 4.23518e-08)
(1.22134e-07 1.37398e-08 4.65262e-08)
(1.34381e-07 1.43356e-08 5.11386e-08)
(1.41113e-07 1.50044e-08 5.58863e-08)
(1.40362e-07 1.57799e-08 6.02663e-08)
(1.29284e-07 1.66984e-08 6.34693e-08)
(1.32339e-08 3.89307e-08 3.34015e-08)
(3.95991e-08 3.86581e-08 3.43836e-08)
(6.46482e-08 3.85707e-08 3.62761e-08)
(8.7637e-08 3.90835e-08 3.89909e-08)
(1.0821e-07 4.01858e-08 4.24382e-08)
(1.25856e-07 4.17423e-08 4.6505e-08)
(1.3974e-07 4.36656e-08 5.10169e-08)
(1.48775e-07 4.59048e-08 5.57182e-08)
(1.51451e-07 4.83248e-08 6.0192e-08)
(1.46096e-07 5.09503e-08 6.38468e-08)
(1.32938e-08 6.29135e-08 3.41672e-08)
(3.99132e-08 6.30826e-08 3.50635e-08)
(6.58368e-08 6.36185e-08 3.68205e-08)
(9.03723e-08 6.47934e-08 3.93679e-08)
(1.12843e-07 6.69197e-08 4.26076e-08)
(1.32843e-07 6.98773e-08 4.64408e-08)
(1.49814e-07 7.34767e-08 5.07367e-08)
(1.62942e-07 7.75563e-08 5.52723e-08)
(1.71331e-07 8.18893e-08 5.97295e-08)
(1.7434e-07 8.63236e-08 6.37362e-08)
(1.34706e-08 8.52315e-08 3.53175e-08)
(4.07371e-08 8.57831e-08 3.61107e-08)
(6.77282e-08 8.71615e-08 3.76704e-08)
(9.39947e-08 8.94479e-08 3.99502e-08)
(1.19016e-07 9.28633e-08 4.2879e-08)
(1.42187e-07 9.74841e-08 4.635e-08)
(1.6314e-07 1.03115e-07 5.02492e-08)
(1.81399e-07 1.09374e-07 5.44129e-08)
(1.96449e-07 1.15911e-07 5.85811e-08)
(2.08198e-07 1.22429e-07 6.24692e-08)
(1.37337e-08 1.0586e-07 3.68587e-08)
(4.17808e-08 1.06767e-07 3.75355e-08)
(7.0088e-08 1.08822e-07 3.88614e-08)
(9.82131e-08 1.12338e-07 4.07934e-08)
(1.25853e-07 1.17391e-07 4.32777e-08)
(1.52575e-07 1.2393e-07 4.62418e-08)
(1.77966e-07 1.31863e-07 4.95727e-08)
(2.01701e-07 1.40756e-07 5.31096e-08)
(2.23437e-07 1.49907e-07 5.66397e-08)
(2.43234e-07 1.58864e-07 5.98839e-08)
(1.40157e-08 1.24775e-07 3.87726e-08)
(4.27977e-08 1.25865e-07 3.93237e-08)
(7.2371e-08 1.28411e-07 4.0391e-08)
(1.02452e-07 1.32969e-07 4.19252e-08)
(1.32666e-07 1.39774e-07 4.38628e-08)
(1.62845e-07 1.48696e-07 4.6158e-08)
(1.92696e-07 1.59297e-07 4.87376e-08)
(2.21686e-07 1.71057e-07 5.14304e-08)
(2.49622e-07 1.83357e-07 5.39974e-08)
(2.76341e-07 1.95161e-07 5.61737e-08)
(1.42099e-08 1.41958e-07 4.09811e-08)
(4.35679e-08 1.429e-07 4.1416e-08)
(7.42585e-08 1.45576e-07 4.22336e-08)
(1.06148e-07 1.50909e-07 4.33406e-08)
(1.38906e-07 1.59451e-07 4.4666e-08)
(1.72213e-07 1.71018e-07 4.61595e-08)
(2.05977e-07 1.84881e-07 4.77835e-08)
(2.39864e-07 2.00028e-07 4.94393e-08)
(2.73088e-07 2.15693e-07 5.08416e-08)
(3.05245e-07 2.30609e-07 5.16868e-08)
(1.42402e-08 1.57524e-07 4.32975e-08)
(4.39392e-08 1.57718e-07 4.36705e-08)
(7.54415e-08 1.59699e-07 4.42887e-08)
(1.08804e-07 1.65323e-07 4.49815e-08)
(1.43853e-07 1.75567e-07 4.56448e-08)
(1.80173e-07 1.90123e-07 4.62484e-08)
(2.17303e-07 2.07751e-07 4.67874e-08)
(2.55118e-07 2.26961e-07 4.72169e-08)
(2.9221e-07 2.45899e-07 4.73621e-08)
(3.2809e-07 2.63882e-07 4.68211e-08)
(1.41036e-08 1.71927e-07 4.53436e-08)
(4.36955e-08 1.70048e-07 4.5796e-08)
(7.56279e-08 1.69803e-07 4.63688e-08)
(1.10091e-07 1.74906e-07 4.67216e-08)
(1.47035e-07 1.86924e-07 4.66976e-08)
(1.86063e-07 2.05148e-07 4.63165e-08)
(2.26459e-07 2.2737e-07 4.56685e-08)
(2.67175e-07 2.50918e-07 4.48096e-08)
(3.06518e-07 2.73065e-07 4.36959e-08)
(3.44082e-07 2.93527e-07 4.1922e-08)
(1.37709e-08 1.86544e-07 4.64292e-08)
(4.27497e-08 1.79533e-07 4.73358e-08)
(7.45876e-08 1.74222e-07 4.82258e-08)
(1.09774e-07 1.77705e-07 4.83948e-08)
(1.48302e-07 1.92001e-07 4.7657e-08)
(1.89706e-07 2.15172e-07 4.61655e-08)
(2.33051e-07 2.43338e-07 4.41896e-08)
(2.76638e-07 2.72117e-07 4.1981e-08)
(3.17956e-07 2.97664e-07 3.97021e-08)
(3.54313e-07 3.18167e-07 3.72633e-08)
(1.27377e-08 1.236e-08 2.5937e-08)
(3.76262e-08 1.20358e-08 2.69131e-08)
(6.05895e-08 1.18731e-08 2.87819e-08)
(8.13046e-08 1.18922e-08 3.14767e-08)
(9.9422e-08 1.20497e-08 3.49523e-08)
(1.14331e-07 1.23571e-08 3.91597e-08)
(1.25075e-07 1.27695e-08 4.40235e-08)
(1.30266e-07 1.32587e-08 4.94109e-08)
(1.27893e-07 1.38664e-08 5.50647e-08)
(1.14957e-07 1.46426e-08 6.05223e-08)
(1.24741e-08 3.64529e-08 2.6066e-08)
(3.73888e-08 3.60449e-08 2.70051e-08)
(6.09836e-08 3.57185e-08 2.88179e-08)
(8.24432e-08 3.58521e-08 3.14359e-08)
(1.01481e-07 3.64711e-08 3.48183e-08)
(1.17572e-07 3.74793e-08 3.89232e-08)
(1.29894e-07 3.88216e-08 4.36867e-08)
(1.37388e-07 4.04747e-08 4.90194e-08)
(1.38599e-07 4.23499e-08 5.47417e-08)
(1.31948e-07 4.45152e-08 6.05789e-08)
(1.247e-08 5.88291e-08 2.63553e-08)
(3.74743e-08 5.87751e-08 2.72143e-08)
(6.17512e-08 5.88087e-08 2.89024e-08)
(8.45644e-08 5.9296e-08 3.13709e-08)
(1.05303e-07 6.05634e-08 3.45593e-08)
(1.23558e-07 6.25394e-08 3.84361e-08)
(1.38797e-07 6.50871e-08 4.29791e-08)
(1.50277e-07 6.80963e-08 4.81235e-08)
(1.57241e-07 7.14037e-08 5.37726e-08)
(1.59311e-07 7.49286e-08 5.98448e-08)
(1.25496e-08 7.95099e-08 2.68417e-08)
(3.79364e-08 7.97033e-08 2.76068e-08)
(6.29949e-08 8.03324e-08 2.91127e-08)
(8.72625e-08 8.1573e-08 3.13326e-08)
(1.10239e-07 8.36956e-08 3.42278e-08)
(1.31344e-07 8.68366e-08 3.77487e-08)
(1.50238e-07 9.08636e-08 4.18814e-08)
(1.66525e-07 9.54688e-08 4.66154e-08)
(1.79845e-07 1.00379e-07 5.18932e-08)
(1.90368e-07 1.05369e-07 5.76901e-08)
(1.26629e-08 9.84681e-08 2.75791e-08)
(3.85011e-08 9.88637e-08 2.8243e-08)
(6.45137e-08 9.99098e-08 2.9543e-08)
(9.02562e-08 1.01979e-07 3.14404e-08)
(1.15431e-07 1.05233e-07 3.39093e-08)
(1.39628e-07 1.09721e-07 3.69317e-08)
(1.62461e-07 1.1542e-07 4.04811e-08)
(1.83652e-07 1.21973e-07 4.45361e-08)
(2.02982e-07 1.28779e-07 4.90789e-08)
(2.20668e-07 1.35448e-07 5.40583e-08)
(1.27582e-08 1.15703e-07 2.86141e-08)
(3.89372e-08 1.1613e-07 2.9179e-08)
(6.578e-08 1.17368e-07 3.02643e-08)
(9.29957e-08 1.20028e-07 3.18074e-08)
(1.20221e-07 1.24459e-07 3.37565e-08)
(1.47291e-07 1.30655e-07 3.61155e-08)
(1.73933e-07 1.38307e-07 3.89018e-08)
(1.99644e-07 1.46991e-07 4.20685e-08)
(2.24241e-07 1.56133e-07 4.55521e-08)
(2.47655e-07 1.64818e-07 4.93096e-08)
(1.27385e-08 1.31235e-07 2.99601e-08)
(3.90408e-08 1.31356e-07 3.04543e-08)
(6.64934e-08 1.32384e-07 3.1358e-08)
(9.49543e-08 1.35307e-07 3.25421e-08)
(1.24102e-07 1.40809e-07 3.39246e-08)
(1.53631e-07 1.4889e-07 3.54944e-08)
(1.8344e-07 1.58991e-07 3.73096e-08)
(2.13208e-07 1.70253e-07 3.94094e-08)
(2.42127e-07 1.81963e-07 4.16606e-08)
(2.6981e-07 1.92964e-07 4.39782e-08)
(1.25356e-08 1.45237e-07 3.15607e-08)
(3.86728e-08 1.44448e-07 3.20676e-08)
(6.63781e-08 1.4442e-07 3.2882e-08)
(9.56895e-08 1.47048e-07 3.37529e-08)
(1.26437e-07 1.53478e-07 3.45386e-08)
(1.58231e-07 1.63668e-07 3.52438e-08)
(1.90633e-07 1.76646e-07 3.59628e-08)
(2.23491e-07 1.9111e-07 3.68077e-08)
(2.55494e-07 2.05435e-07 3.77629e-08)
(2.86008e-07 2.18857e-07 3.86396e-08)
(1.21475e-08 1.58235e-07 3.32235e-08)
(3.76459e-08 1.5525e-07 3.39352e-08)
(6.51858e-08 1.52631e-07 3.48765e-08)
(9.49311e-08 1.54067e-07 3.55455e-08)
(1.26833e-07 1.61349e-07 3.57194e-08)
(1.60536e-07 1.74157e-07 3.5462e-08)
(1.954e-07 1.90724e-07 3.49875e-08)
(2.30465e-07 2.0874e-07 3.45172e-08)
(2.64203e-07 2.25797e-07 3.41799e-08)
(2.95963e-07 2.41352e-07 3.37847e-08)
(1.15466e-08 1.71647e-07 3.45075e-08)
(3.58916e-08 1.63557e-07 3.58934e-08)
(6.27325e-08 1.55567e-07 3.74122e-08)
(9.25018e-08 1.54595e-07 3.80649e-08)
(1.25202e-07 1.62995e-07 3.75778e-08)
(1.60444e-07 1.79465e-07 3.61945e-08)
(1.9744e-07 2.0081e-07 3.43631e-08)
(2.34729e-07 2.23261e-07 3.25261e-08)
(2.70098e-07 2.43403e-07 3.0998e-08)
(3.01009e-07 2.59429e-07 2.97972e-08)
(1.10389e-08 1.05986e-08 1.51593e-08)
(3.26244e-08 1.02711e-08 1.60239e-08)
(5.25387e-08 1.00302e-08 1.76952e-08)
(7.04879e-08 9.90743e-09 2.01503e-08)
(8.622e-08 9.88058e-09 2.34162e-08)
(9.92896e-08 9.97267e-09 2.7553e-08)
(1.08999e-07 1.01607e-08 3.26496e-08)
(1.14336e-07 1.04378e-08 3.88131e-08)
(1.1381e-07 1.08577e-08 4.61253e-08)
(1.05108e-07 1.14912e-08 5.45864e-08)
(1.07784e-08 3.12732e-08 1.50002e-08)
(3.23082e-08 3.07577e-08 1.58362e-08)
(5.26887e-08 3.01584e-08 1.74742e-08)
(7.12123e-08 2.98395e-08 1.9878e-08)
(8.76787e-08 2.98626e-08 2.30766e-08)
(1.0172e-07 3.01887e-08 2.71362e-08)
(1.12762e-07 3.08138e-08 3.2151e-08)
(1.20097e-07 3.17618e-08 3.82612e-08)
(1.22767e-07 3.30194e-08 4.56004e-08)
(1.19814e-07 3.47209e-08 5.42893e-08)
(1.0699e-08 5.04787e-08 1.47501e-08)
(3.21485e-08 5.01396e-08 1.55247e-08)
(5.29601e-08 4.96087e-08 1.70706e-08)
(7.2508e-08 4.92636e-08 1.93716e-08)
(9.03069e-08 4.9454e-08 2.24273e-08)
(1.06087e-07 5.01872e-08 2.63076e-08)
(1.19534e-07 5.14143e-08 3.11417e-08)
(1.30223e-07 5.31138e-08 3.70764e-08)
(1.37825e-07 5.52322e-08 4.42948e-08)
(1.42493e-07 5.78061e-08 5.30549e-08)
(1.06545e-08 6.824e-08 1.44985e-08)
(3.21993e-08 6.79758e-08 1.52072e-08)
(5.3445e-08 6.76916e-08 1.66154e-08)
(7.4008e-08 6.76162e-08 1.87304e-08)
(9.35022e-08 6.80839e-08 2.1569e-08)
(1.11503e-07 6.93175e-08 2.51705e-08)
(1.27841e-07 7.12926e-08 2.96607e-08)
(1.42384e-07 7.38383e-08 3.52286e-08)
(1.55114e-07 7.68198e-08 4.20668e-08)
(1.6658e-07 8.01439e-08 5.0451e-08)
(1.0603e-08 8.46206e-08 1.43671e-08)
(3.22273e-08 8.43677e-08 1.50094e-08)
(5.39735e-08 8.41254e-08 1.62767e-08)
(7.54716e-08 8.43183e-08 1.81532e-08)
(9.6507e-08 8.52196e-08 2.06652e-08)
(1.16802e-07 8.70146e-08 2.38786e-08)
(1.36113e-07 8.98045e-08 2.7891e-08)
(1.5435e-07 9.3382e-08 3.28651e-08)
(1.71547e-07 9.73402e-08 3.90223e-08)
(1.8815e-07 1.01426e-07 4.6582e-08)
(1.05024e-08 9.97746e-08 1.44974e-08)
(3.20414e-08 9.93463e-08 1.50869e-08)
(5.41011e-08 9.88738e-08 1.62255e-08)
(7.64388e-08 9.9023e-08 1.78615e-08)
(9.87769e-08 1.00285e-07 1.99826e-08)
(1.2103e-07 1.02834e-07 2.26727e-08)
(1.43051e-07 1.0657e-07 2.60721e-08)
(1.64484e-07 1.11257e-07 3.02985e-08)
(1.85256e-07 1.16467e-07 3.55179e-08)
(2.05473e-07 1.21516e-07 4.19467e-08)
(1.0275e-08 1.1397e-07 1.50393e-08)
(3.14807e-08 1.13007e-07 1.56192e-08)
(5.35895e-08 1.11833e-07 1.6685e-08)
(7.64862e-08 1.11497e-07 1.81066e-08)
(9.99194e-08 1.12857e-07 1.98265e-08)
(1.23671e-07 1.16178e-07 2.19003e-08)
(1.47714e-07 1.21173e-07 2.45119e-08)
(1.71843e-07 1.27263e-07 2.787e-08)
(1.95339e-07 1.3391e-07 3.20377e-08)
(2.17926e-07 1.40202e-07 3.71908e-08)
(9.87007e-09 1.27746e-07 1.61316e-08)
(3.04449e-08 1.25603e-07 1.68015e-08)
(5.22417e-08 1.22796e-07 1.79134e-08)
(7.52915e-08 1.2126e-07 1.91965e-08)
(9.94684e-08 1.22366e-07 2.05169e-08)
(1.24484e-07 1.26448e-07 2.19383e-08)
(1.50009e-07 1.3296e-07 2.36653e-08)
(1.75957e-07 1.40932e-07 2.59923e-08)
(2.01261e-07 1.49152e-07 2.90599e-08)
(2.25237e-07 1.56897e-07 3.29624e-08)
(9.29334e-09 1.42129e-07 1.7857e-08)
(2.88084e-08 1.37479e-07 1.88247e-08)
(4.99022e-08 1.3137e-07 2.02231e-08)
(7.27041e-08 1.27508e-07 2.14984e-08)
(9.7189e-08 1.27983e-07 2.24241e-08)
(1.23108e-07 1.33016e-07 2.31184e-08)
(1.49996e-07 1.41486e-07 2.38987e-08)
(1.77117e-07 1.51674e-07 2.51245e-08)
(2.03279e-07 1.61712e-07 2.70567e-08)
(2.27677e-07 1.70902e-07 2.98013e-08)
(8.53019e-09 1.59194e-07 2.0142e-08)
(2.65507e-08 1.49068e-07 2.18864e-08)
(4.64841e-08 1.36693e-07 2.40305e-08)
(6.86639e-08 1.28922e-07 2.54826e-08)
(9.31116e-08 1.28565e-07 2.59538e-08)
(1.19578e-07 1.35148e-07 2.57543e-08)
(1.47533e-07 1.46428e-07 2.54361e-08)
(1.75926e-07 1.59553e-07 2.55338e-08)
(2.03064e-07 1.71826e-07 2.6406e-08)
(2.26773e-07 1.81629e-07 2.81211e-08)
(8.66676e-09 8.27837e-09 2.0428e-09)
(2.56125e-08 7.95752e-09 2.66403e-09)
(4.12471e-08 7.65003e-09 3.87298e-09)
(5.53652e-08 7.39409e-09 5.67552e-09)
(6.78358e-08 7.18799e-09 8.13163e-09)
(7.84268e-08 7.06519e-09 1.13474e-08)
(8.67738e-08 7.02727e-09 1.54793e-08)
(9.23446e-08 7.09159e-09 2.07319e-08)
(9.43036e-08 7.32489e-09 2.73252e-08)
(9.12019e-08 7.82165e-09 3.54405e-08)
(8.42525e-09 2.44283e-08 1.52254e-09)
(2.52531e-08 2.38272e-08 2.12877e-09)
(4.11846e-08 2.29902e-08 3.32892e-09)
(5.56914e-08 2.22445e-08 5.1098e-09)
(6.86838e-08 2.16824e-08 7.52989e-09)
(7.99968e-08 2.13249e-08 1.07013e-08)
(8.93743e-08 2.12241e-08 1.47833e-08)
(9.65496e-08 2.1457e-08 2.00059e-08)
(1.01175e-07 2.20976e-08 2.66336e-08)
(1.03034e-07 2.3355e-08 3.49503e-08)
(8.28962e-09 3.94445e-08 5.79972e-10)
(2.49054e-08 3.88446e-08 1.14829e-09)
(4.10274e-08 3.77929e-08 2.29737e-09)
(5.61994e-08 3.66525e-08 4.03116e-09)
(7.0107e-08 3.57766e-08 6.37322e-09)
(8.26635e-08 3.52539e-08 9.43415e-09)
(9.38269e-08 3.51326e-08 1.34015e-08)
(1.03571e-07 3.54929e-08 1.85087e-08)
(1.1208e-07 3.64101e-08 2.50574e-08)
(1.2011e-07 3.80571e-08 3.34493e-08)
(8.1453e-09 5.33999e-08 -6.64035e-10)
(2.46111e-08 5.27064e-08 -1.29155e-10)
(4.08423e-08 5.15514e-08 9.3984e-10)
(5.65737e-08 5.01952e-08 2.56709e-09)
(7.15748e-08 4.90139e-08 4.79069e-09)
(8.56292e-08 4.83083e-08 7.68384e-09)
(9.87924e-08 4.81722e-08 1.14241e-08)
(1.11253e-07 4.85956e-08 1.62797e-08)
(1.23403e-07 4.96081e-08 2.25542e-08)
(1.36228e-07 5.12778e-08 3.0658e-08)
(7.96002e-09 6.64576e-08 -2.06057e-09)
(2.41869e-08 6.55949e-08 -1.55177e-09)
(4.0493e-08 6.41192e-08 -5.43704e-10)
(5.66181e-08 6.24733e-08 9.54272e-10)
(7.2462e-08 6.1017e-08 2.98886e-09)
(8.79219e-08 6.00641e-08 5.65503e-09)
(1.02955e-07 5.98439e-08 9.09238e-09)
(1.17711e-07 6.03302e-08 1.35387e-08)
(1.32543e-07 6.13524e-08 1.93238e-08)
(1.48168e-07 6.28307e-08 2.67985e-08)
(7.7029e-09 7.89382e-08 -3.43827e-09)
(2.34911e-08 7.77178e-08 -2.92899e-09)
(3.96421e-08 7.5625e-08 -1.94545e-09)
(5.59864e-08 7.33255e-08 -5.41004e-10)
(7.23634e-08 7.14115e-08 1.28396e-09)
(8.87985e-08 7.02233e-08 3.63781e-09)
(1.05315e-07 6.98866e-08 6.70255e-09)
(1.21773e-07 7.03892e-08 1.06624e-08)
(1.38269e-07 7.15017e-08 1.57885e-08)
(1.55131e-07 7.28262e-08 2.24335e-08)
(7.31973e-09 9.13708e-08 -4.60722e-09)
(2.24159e-08 8.94366e-08 -4.03626e-09)
(3.81299e-08 8.62235e-08 -2.99534e-09)
(5.43856e-08 8.27474e-08 -1.6166e-09)
(7.10278e-08 7.99711e-08 3.89235e-11)
(8.79606e-08 7.84016e-08 2.04336e-09)
(1.05263e-07 7.8054e-08 4.62123e-09)
(1.22903e-07 7.86807e-08 8.04589e-09)
(1.40335e-07 7.99925e-08 1.24725e-08)
(1.57453e-07 8.13886e-08 1.82215e-08)
(6.78138e-09 1.04659e-07 -5.37343e-09)
(2.09094e-08 1.01376e-07 -4.6203e-09)