/*--------------------------------*- C++ -*----------------------------------*\
| =========                 |                                                 |
| \\      /  F ield         | foam-extend: Open Source CFD                    |
|  \\    /   O peration     | Version:     3.1                                |
|   \\  /    A nd           | Web:         http://www.extend-project.de       |
|    \\/     M anipulation  |                                                 |
\*---------------------------------------------------------------------------*/
FoamFile
{
    version     2.0;
    format      ascii;
    class       surfaceScalarField;
    location    "0.0014";
    object      meshPhi;
}
// * * * * * * * * * * * * * * * * * * * * * * * * * * * * * * * * * * * * * //

dimensions      [0 3 -1 0 0 0 0];

internalField   nonuniform List<scalar> 
45800
(
1.23375e-10
1.23832e-10
1.7352e-10
2.35575e-10
1.21895e-10
1.74186e-10
3.32185e-10
1.17352e-10
1.782e-10
4.11954e-10
1.1167e-10
1.85004e-10
4.74361e-10
1.05357e-10
1.94067e-10
5.19013e-10
9.85418e-11
2.04853e-10
5.4566e-10
9.13586e-11
2.16808e-10
5.54296e-10
8.39626e-11
2.29345e-10
5.45276e-10
7.65139e-11
2.41818e-10
6.8572e-11
2.5358e-10
5.19366e-10
1.21439e-10
2.3596e-10
1.74164e-10
2.3324e-10
2.33807e-10
1.74596e-10
3.30711e-10
2.26852e-10
1.78217e-10
4.11598e-10
2.16968e-10
1.84501e-10
4.75023e-10
2.05433e-10
1.92953e-10
5.20592e-10
1.92774e-10
2.03063e-10
5.48075e-10
1.79274e-10
2.14301e-10
5.57507e-10
1.6525e-10
2.2609e-10
5.49356e-10
1.50964e-10
2.37788e-10
1.35527e-10
2.48682e-10
5.24745e-10
1.17071e-10
3.32346e-10
1.78164e-10
2.26274e-10
3.31055e-10
1.78191e-10
3.2312e-10
3.23705e-10
1.81186e-10
4.04519e-10
3.11672e-10
1.86672e-10
4.68804e-10
2.96512e-10
1.94193e-10
5.15343e-10
2.79362e-10
2.03287e-10
5.43912e-10
2.60803e-10
2.13462e-10
5.54556e-10
2.4124e-10
2.24159e-10
5.47834e-10
2.21069e-10
2.34753e-10
1.99075e-10
2.4453e-10
5.25331e-10
1.11559e-10
4.12048e-10
1.84972e-10
2.16606e-10
4.11766e-10
1.84469e-10
3.1107e-10
4.04904e-10
1.86651e-10
3.91743e-10
3.9236e-10
1.91118e-10
4.56363e-10
3.7532e-10
1.97463e-10
5.0371e-10
3.55094e-10
2.0527e-10
5.33363e-10
3.32736e-10
2.14099e-10
5.45352e-10
3.08881e-10
2.23437e-10
5.40264e-10
2.83975e-10
2.32698e-10
2.56635e-10
2.4118e-10
5.20312e-10
1.05282e-10
4.74452e-10
1.9405e-10
2.0525e-10
4.7516e-10
1.92935e-10
2.96111e-10
4.69057e-10
1.94174e-10
3.74689e-10
4.56828e-10
1.97449e-10
4.38657e-10
4.39337e-10
2.02433e-10
4.86386e-10
4.17555e-10
2.08759e-10
5.16966e-10
3.9264e-10
2.16038e-10
5.30199e-10
3.65643e-10
2.23818e-10
5.26686e-10
3.37207e-10
2.31578e-10
3.05906e-10
2.38633e-10
5.09454e-10
9.84712e-11
5.19102e-10
2.04857e-10
1.92639e-10
5.20728e-10
2.03066e-10
2.79127e-10
5.15567e-10
2.03285e-10
3.54663e-10
5.04069e-10
2.05261e-10
4.16878e-10
4.8696e-10
2.0875e-10
4.64171e-10
4.64964e-10
2.13464e-10
4.95324e-10
4.38889e-10
2.19063e-10
5.09627e-10
4.09866e-10
2.2515e-10
5.07513e-10
3.78965e-10
2.31275e-10
3.45114e-10
2.36787e-10
4.92951e-10
9.12965e-11
5.45747e-10
2.16838e-10
1.79153e-10
5.48211e-10
2.14326e-10
2.60632e-10
5.44139e-10
2.1348e-10
3.32501e-10
5.33698e-10
2.14108e-10
3.92217e-10
5.17424e-10
2.16034e-10
4.38146e-10
4.95984e-10
2.19049e-10
4.69171e-10
4.69995e-10
2.22886e-10
4.84307e-10
4.40316e-10
2.27199e-10
4.83499e-10
4.0814e-10
2.31579e-10
3.73153e-10
2.35445e-10
4.71415e-10
8.3908e-11
5.54383e-10
2.29402e-10
1.65144e-10
5.57645e-10
2.26141e-10
2.41095e-10
5.54786e-10
2.24199e-10
3.08723e-10
5.45687e-10
2.23462e-10
3.65453e-10
5.30624e-10
2.23822e-10
4.0945e-10
5.10151e-10
2.25125e-10
4.39638e-10
4.84952e-10
2.27165e-10
4.55222e-10
4.55871e-10
2.29643e-10
4.55731e-10
4.2396e-10
2.32188e-10
3.8958e-10
2.34334e-10
4.45952e-10
7.6462e-11
5.45369e-10
2.41902e-10
1.50864e-10
5.49496e-10
2.37864e-10
2.20932e-10
5.48063e-10
2.34813e-10
2.83822e-10
5.40598e-10
2.32735e-10
3.37065e-10
5.27111e-10
2.31588e-10
3.78772e-10
5.07998e-10
2.3125e-10
4.07768e-10
4.83999e-10
2.31532e-10
4.23497e-10
4.56211e-10
2.32159e-10
4.25561e-10
4.25968e-10
2.32825e-10
3.94653e-10
2.33169e-10
4.1845e-10
6.8522e-11
2.53679e-10
5.19471e-10
1.35432e-10
2.48772e-10
5.24889e-10
1.98948e-10
2.44603e-10
5.25551e-10
2.56488e-10
2.41226e-10
5.20617e-10
3.05755e-10
2.3865e-10
5.09826e-10
3.44965e-10
2.36775e-10
4.93355e-10
3.72969e-10
2.35416e-10
4.71807e-10
3.89353e-10
2.34309e-10
4.46309e-10
3.9441e-10
2.33154e-10
4.18773e-10
2.31648e-10
3.91273e-10
3.91518e-10
3.79409e-10
3.80767e-10
3.21059e-10
7.24985e-10
3.75049e-10
3.22761e-10
1.02369e-09
3.61418e-10
3.30982e-10
1.27217e-09
3.44447e-10
3.44773e-10
1.46924e-09
3.25706e-10
3.63131e-10
1.61401e-09
3.05586e-10
3.8503e-10
1.70601e-09
2.84499e-10
4.09417e-10
1.74546e-09
2.62935e-10
4.35163e-10
1.73361e-09
2.41418e-10
4.61006e-10
2.18778e-10
4.85622e-10
1.67287e-09
3.73681e-10
7.26081e-10
3.22712e-10
7.18287e-10
7.1994e-10
3.23996e-10
1.01985e-09
6.99272e-10
3.31494e-10
1.27195e-09
6.69865e-10
3.44285e-10
1.4723e-09
6.35681e-10
3.61448e-10
1.62004e-09
5.98369e-10
3.82024e-10
1.71474e-09
5.58803e-10
4.04998e-10
1.75672e-09
5.17977e-10
4.29263e-10
1.74754e-09
4.76761e-10
4.53559e-10
4.32744e-10
4.76417e-10
1.69039e-09
3.60584e-10
1.02408e-09
3.3091e-10
6.97559e-10
1.02078e-09
3.31438e-10
9.97574e-10
9.99247e-10
3.37762e-10
1.25153e-09
9.63719e-10
3.4903e-10
1.45472e-09
9.18945e-10
3.64385e-10
1.60558e-09
8.68494e-10
3.82972e-10
1.7037e-09
8.14209e-10
4.03857e-10
1.74939e-09
7.57366e-10
4.2596e-10
1.74446e-09
6.99256e-10
4.48052e-10
6.36608e-10
4.6867e-10
1.69337e-09
3.44143e-10
1.27234e-09
3.44719e-10
6.6881e-10
1.27234e-09
3.44222e-10
9.61959e-10
1.25255e-09
3.48984e-10
1.2141e-09
1.21584e-09
3.58295e-10
1.4186e-09
1.1658e-09
3.71376e-10
1.5721e-09
1.10646e-09
3.87441e-10
1.6736e-09
1.04117e-09
4.05671e-10
1.72336e-09
9.71982e-10
4.25078e-10
1.72327e-09
9.00368e-10
4.44502e-10
8.2261e-10
4.62528e-10
1.67961e-09
3.2552e-10
1.4694e-09
3.63109e-10
6.35193e-10
1.4726e-09
3.61421e-10
9.17797e-10
1.45534e-09
3.64347e-10
1.16398e-09
1.41984e-09
3.71343e-10
1.36688e-09
1.36879e-09
3.81779e-10
1.52177e-09
1.30516e-09
3.94953e-10
1.62615e-09
1.23254e-09
4.10119e-10
1.67968e-09
1.15432e-09
4.26418e-10
1.68426e-09
1.0727e-09
4.42832e-10
9.8386e-10
4.58001e-10
1.64858e-09
3.0541e-10
1.61417e-09
3.85051e-10
5.98037e-10
1.62034e-09
3.8204e-10
8.67877e-10
1.60613e-09
3.82974e-10
1.10524e-09
1.57302e-09
3.87423e-10
1.30321e-09
1.52331e-09
3.94928e-10
1.45712e-09
1.45933e-09
4.04942e-10
1.56339e-09
1.38359e-09
4.16796e-10
1.62012e-09
1.29959e-09
4.29708e-10
1.62881e-09
1.21095e-09
4.42817e-10
1.11504e-09
4.54887e-10
1.60098e-09
2.84346e-10
1.70617e-09
4.09488e-10
5.58506e-10
1.71504e-09
4.0506e-10
8.13794e-10
1.70426e-09
4.03903e-10
1.04057e-09
1.67446e-09
4.05694e-10
1.23134e-09
1.62735e-09
4.10106e-10
1.38142e-09
1.56513e-09
4.16752e-10
1.48757e-09
1.48986e-09
4.25118e-10
1.54683e-09
1.40416e-09
4.34488e-10
1.55926e-09
1.31186e-09
4.44052e-10
1.21276e-09
4.52785e-10
1.53867e-09
2.62803e-10
1.74563e-09
4.35288e-10
5.17723e-10
1.75704e-09
4.29376e-10
7.57026e-10
1.74996e-09
4.26048e-10
9.71635e-10
1.72422e-09
4.25133e-10
1.15388e-09
1.68078e-09
4.26429e-10
1.29839e-09
1.62145e-09
4.29645e-10
1.40217e-09
1.5485e-09
4.344e-10
1.46278e-09
1.46456e-09
4.40079e-10
1.47889e-09
1.37296e-09
4.45911e-10
1.27549e-09
4.51125e-10
1.46486e-09
2.41294e-10
1.73383e-09
4.61184e-10
4.76524e-10
1.74788e-09
4.5372e-10
6.98941e-10
1.74504e-09
4.48179e-10
9.00031e-10
1.72413e-09
4.44581e-10
1.07242e-09
1.68536e-09
4.42855e-10
1.21048e-09
1.63005e-09
4.42763e-10
1.3108e-09
1.56053e-09
4.43944e-10
1.37165e-09
1.48013e-09
4.45841e-10
1.39186e-09
1.39295e-09
4.47809e-10
1.30356e-09
4.49291e-10
1.38497e-09
2.1866e-10
4.85828e-10
1.67314e-09
4.32523e-10
4.76604e-10
1.69076e-09
6.36313e-10
4.68819e-10
1.69394e-09
8.22277e-10
4.62624e-10
1.6804e-09
9.83525e-10
4.58037e-10
1.64955e-09
1.1147e-09
4.54863e-10
1.60203e-09
1.21231e-09
4.52725e-10
1.53968e-09
1.27487e-09
4.51069e-10
1.46578e-09
1.30288e-09
4.49257e-10
1.3858e-09
4.46779e-10
1.30587e-09
1.30651e-09
6.58043e-10
6.60251e-10
4.13488e-10
1.25915e-09
6.50989e-10
4.16998e-10
1.78233e-09
6.28437e-10
4.30057e-10
2.22322e-09
6.00583e-10
4.51439e-10
2.58087e-09
5.70168e-10
4.79786e-10
2.85465e-09
5.37849e-10
5.13722e-10
3.04441e-09
5.04336e-10
5.51832e-10
3.15095e-09
4.70513e-10
5.92577e-10
3.17659e-09
4.37349e-10
6.34183e-10
4.03105e-10
6.74692e-10
3.12509e-09
6.48746e-10
1.26078e-09
4.16923e-10
1.24884e-09
1.25143e-09
4.19868e-10
1.77758e-09
1.21778e-09
4.31924e-10
2.22521e-09
1.16986e-09
4.51878e-10
2.58899e-09
1.11457e-09
4.78502e-10
2.86829e-09
1.05483e-09
5.10517e-10
3.06306e-09
9.92146e-10
5.46557e-10
3.17423e-09
9.28305e-10
5.85107e-10
3.20445e-09
8.64918e-10
6.24376e-10
7.98251e-10
6.62141e-10
3.15817e-09
6.27104e-10
1.78267e-09
4.29956e-10
1.21505e-09
1.77881e-09
4.31841e-10
1.74211e-09
1.74463e-09
4.42253e-10
2.19375e-09
1.68749e-09
4.60049e-10
2.563e-09
1.61552e-09
4.84078e-10
2.84809e-09
1.53505e-09
5.13214e-10
3.04897e-09
1.44939e-09
5.46205e-10
3.16644e-09
1.36082e-09
5.81558e-10
3.20356e-09
1.27168e-09
6.17515e-10
1.17689e-09
6.51841e-10
3.16658e-09
6.00193e-10
2.22316e-09
4.51373e-10
1.16825e-09
2.22549e-09
4.51793e-10
1.68475e-09
2.19506e-09
4.59981e-10
2.13441e-09
2.13697e-09
4.74993e-10
2.50671e-09
2.05734e-09
4.95765e-10
2.79675e-09
1.96314e-09
5.2125e-10
3.00356e-09
1.86043e-09
5.50361e-10
3.12784e-09
1.75298e-09
5.81731e-10
3.1727e-09
1.64347e-09
6.13691e-10
1.52606e-09
6.44071e-10
3.14735e-09
5.6999e-10
2.58078e-09
4.79776e-10
1.11398e-09
2.58911e-09
4.78479e-10
1.61384e-09
2.56362e-09
4.84028e-10
2.05456e-09
2.50831e-09
4.95713e-10
2.42517e-09
2.42793e-09
5.12685e-10
2.71821e-09
2.32767e-09
5.33986e-10
2.93006e-09
2.2138e-09
5.58611e-10
3.06053e-09
2.0925e-09
5.85381e-10
3.11285e-09
1.96804e-09
6.12834e-10
1.83427e-09
6.38879e-10
3.10007e-09
5.37677e-10
2.85455e-09
5.13776e-10
1.05451e-09
2.8684e-09
5.10562e-10
1.53433e-09
2.84859e-09
5.1323e-10
1.9614e-09
2.79781e-09
5.21225e-10
2.32472e-09
2.72023e-09
5.33942e-10
2.61693e-09
2.62016e-09
5.50654e-10
2.83231e-09
2.502e-09
5.70429e-10
2.96798e-09
2.37191e-09
5.92167e-10
3.02665e-09
2.23676e-09
6.14646e-10
2.09264e-09
6.35976e-10
3.02613e-09
5.04196e-10
3.04434e-09
5.51959e-10
9.9188e-10
3.0632e-09
5.4667e-10
1.44903e-09
3.04949e-09
5.46289e-10
1.85981e-09
3.00453e-09
5.50404e-10
2.2121e-09
2.93151e-09
5.58587e-10
2.49862e-09
2.83457e-09
5.70346e-10
2.71429e-09
2.71763e-09
5.84981e-10
2.85406e-09
2.5852e-09
6.01438e-10
2.91813e-09
2.44421e-09
6.18534e-10
2.29521e-09
6.34741e-10
2.92863e-09
4.70403e-10
3.15097e-09
5.92784e-10
9.28099e-10
3.17445e-09
5.85292e-10
1.36057e-09
3.16702e-09
5.81703e-10
1.75281e-09
3.12881e-09
5.81823e-10
2.09219e-09
3.06183e-09
5.85398e-10
2.37011e-09
2.96951e-09
5.92053e-10
2.58207e-09
2.85612e-09
6.01282e-10
2.72374e-09
2.72623e-09
6.1216e-10
2.79273e-09
2.58576e-09
6.23525e-10
2.43864e-09
6.34251e-10
2.81262e-09
4.37249e-10
3.17673e-09
6.34467e-10
8.64729e-10
3.20477e-09
6.24631e-10
1.27145e-09
3.2042e-09
6.17716e-10
1.64328e-09
3.17372e-09
6.13817e-10
1.968e-09
3.11416e-09
6.12872e-10
2.23631e-09
3.02809e-09
6.1456e-10
2.44264e-09
2.9196e-09
6.18357e-10
2.58382e-09
2.79424e-09
6.23409e-10
2.65759e-09
2.65905e-09
6.28709e-10
2.52209e-09
6.33438e-10
2.68627e-09
4.03007e-10
6.75016e-10
3.12538e-09
7.9807e-10
6.62433e-10
3.1586e-09
1.17666e-09
6.52072e-10
3.16727e-09
1.52582e-09
6.4422e-10
3.14832e-09
1.83406e-09
6.38936e-10
3.10126e-09
2.09241e-09
6.3594e-10
3.0274e-09
2.29473e-09
6.34649e-10
2.92984e-09
2.43783e-09
6.34161e-10
2.81372e-09
2.52112e-09
6.33376e-10
2.68727e-09
6.31511e-10
2.56049e-09
2.56133e-09
9.64412e-10
9.6736e-10
4.22681e-10
1.84866e-09
9.54906e-10
4.2906e-10
2.62485e-09
9.23869e-10
4.47709e-10
3.28907e-09
8.85956e-10
4.77229e-10
3.84185e-09
8.45169e-10
5.16093e-10
4.28369e-09
8.02439e-10
5.62789e-10
4.61533e-09
7.58795e-10
6.1577e-10
4.83828e-09
7.15556e-10
6.73319e-10
4.9554e-09
6.74192e-10
7.33354e-10
6.32448e-10
7.93458e-10
4.97067e-09
9.51886e-10
1.85054e-09
4.28973e-10
1.83579e-09
1.83907e-09
4.3465e-10
2.6211e-09
1.79371e-09
4.52052e-10
3.29599e-09
1.72906e-09
4.79793e-10
3.85848e-09
1.65527e-09
5.16502e-10
4.30904e-09
1.57665e-09
5.60776e-10
4.64855e-09
1.4954e-09
6.11117e-10
4.87864e-09
1.41415e-09
6.65816e-10
5.00246e-09
1.33532e-09
7.22737e-10
1.25384e-09
7.79019e-10
5.02375e-09
9.22152e-10
2.62475e-09
4.476e-10
1.79016e-09
2.62225e-09
4.51959e-10
2.57477e-09
2.57779e-09
4.67327e-10
3.25691e-09
2.50205e-09
4.92394e-10
3.82832e-09
2.40682e-09
5.2587e-10
4.28798e-09
2.30151e-09
5.66532e-10
4.63668e-09
2.1911e-09
6.13005e-10
4.87572e-09
2.07893e-09
6.63577e-10
5.00875e-09
1.96847e-09
7.1612e-10
1.8527e-09
7.677e-10
5.04163e-09
8.85641e-10
3.28832e-09
4.77175e-10
1.72715e-09
3.29569e-09
4.79707e-10
2.49865e-09
3.25802e-09
4.92317e-10
3.17986e-09
3.1828e-09
5.13937e-10
3.75707e-09
3.07885e-09
5.43362e-10
4.22458e-09
2.95639e-09
5.79445e-10
4.58201e-09
2.82454e-09
6.20999e-10
4.8304e-09
2.68907e-09
6.66448e-10
4.97354e-09
2.5539e-09
7.13754e-10
2.4108e-09
7.60006e-10
5.02118e-09
8.45172e-10
3.84101e-09
5.16115e-10
1.65488e-09
3.85792e-09
5.16501e-10
2.40495e-09
3.8284e-09
5.25824e-10
3.0755e-09
3.75847e-09
5.43301e-10
3.65204e-09
3.65515e-09
5.67985e-10
4.12485e-09
3.52605e-09
5.98816e-10
4.4896e-09
3.38045e-09
6.34678e-10
4.74632e-09
3.22776e-09
6.74212e-10
4.89897e-09
3.07456e-09
7.15636e-10
2.912e-09
7.56075e-10
4.96256e-09
8.02436e-10
4.28285e-09
5.62894e-10
1.57667e-09
4.30847e-09
5.60864e-10
2.30109e-09
4.28789e-09
5.66575e-10
2.95453e-09
4.2252e-09
5.79423e-10
3.52252e-09
4.12675e-09
5.9876e-10
3.99547e-09
3.99915e-09
6.23801e-10
4.36559e-09
3.84899e-09
6.53492e-10
4.62901e-09
3.68524e-09
6.86539e-10
4.78923e-09
3.51862e-09
7.21451e-10
3.34367e-09
7.55559e-10
4.86804e-09
7.58821e-10
4.6146e-09
6.15968e-10
1.49546e-09
4.64808e-09
6.11292e-10
2.19121e-09
4.63666e-09
6.13137e-10
2.8244e-09
4.58252e-09
6.21068e-10
3.37868e-09
4.49066e-09
6.34647e-10
3.84473e-09
4.36764e-09
6.53372e-10
4.21581e-09
4.21967e-09
6.76471e-10
4.48433e-09
4.05311e-09
7.02656e-10
4.65008e-09
3.87832e-09
7.30442e-10
3.69668e-09
7.57619e-10
4.74182e-09
7.15611e-10
4.83775e-09
6.73617e-10
1.41427e-09
4.87835e-09
6.66082e-10
2.07916e-09
4.87583e-09
6.63785e-10
2.68958e-09
4.83094e-09
6.66579e-10
3.22809e-09
4.74716e-09
6.74237e-10
3.68315e-09
4.62995e-09
6.86373e-10
4.0491e-09
4.48596e-09
7.02431e-10
4.31907e-09
4.32174e-09
7.21236e-10
4.4889e-09
4.14587e-09
7.41298e-10
3.96478e-09
7.6094e-10
4.59025e-09
6.74248e-10
4.95516e-09
7.33748e-10
1.33544e-09
5.00243e-09
7.2309e-10
1.96868e-09
5.00905e-09
7.16397e-10
2.5543e-09
4.9742e-09
7.13926e-10
3.07528e-09
4.89987e-09
7.15688e-10
3.5186e-09
4.79017e-09
7.21328e-10
3.87649e-09
4.65102e-09
7.30195e-10
4.1436e-09
4.49007e-09
7.41137e-10
4.31573e-09
4.31717e-09
7.52808e-10
4.14399e-09
7.63888e-10
4.42328e-09
6.32489e-10
7.939e-10
4.97078e-09
1.25393e-09
7.79416e-10
5.024e-09
1.85285e-09
7.68014e-10
5.04212e-09
2.41103e-09
7.60208e-10
5.02192e-09
2.91231e-09
7.56152e-10
4.96347e-09
3.34391e-09
7.55511e-10
4.869e-09
3.69653e-09
7.57497e-10
4.74272e-09
3.96402e-09
7.60815e-10
4.59106e-09
4.1429e-09
7.63795e-10
4.42404e-09
7.65203e-10
4.25517e-09
4.25594e-09
1.29247e-09
1.29598e-09
3.25078e-10
2.48227e-09
1.28084e-09
3.35358e-10
3.53595e-09
1.24212e-09
3.59915e-10
4.45164e-09
1.19545e-09
3.97269e-10
5.23275e-09
1.14613e-09
4.45956e-10
5.88183e-09
1.09539e-09
5.04588e-10
6.40103e-09
1.04457e-09
5.71778e-10
6.79253e-09
9.95472e-10
6.45935e-10
7.05895e-09
9.5008e-10
7.24985e-10
9.05593e-10
8.06382e-10
7.20279e-09
1.2772e-09
2.48405e-09
3.35285e-10
2.46808e-09
2.47171e-09
3.44721e-10
3.53532e-09
2.41647e-09
3.67824e-10
4.46641e-09
2.33773e-09
4.03166e-10
5.26149e-09
2.24903e-09
4.49427e-10
5.9231e-09
2.15623e-09
5.05313e-10
6.45358e-09
2.06222e-09
5.69469e-10
6.85514e-09
1.97053e-09
6.40279e-10
7.13053e-09
1.88438e-09
7.1556e-10
1.79716e-09
7.92113e-10
7.2803e-09
1.24018e-09
3.53497e-09
3.59835e-10
2.41241e-09
3.53592e-09
3.67751e-10
3.4811e-09
3.48418e-09
3.88533e-10
4.42376e-09
3.39388e-09
4.20863e-10
5.23208e-09
3.28065e-09
4.63502e-10
5.90668e-09
3.15725e-09
5.15319e-10
6.44972e-09
3.03048e-09
5.7506e-10
6.86282e-09
2.90474e-09
6.41063e-10
7.14929e-09
2.7846e-09
7.11106e-10
2.66074e-09
7.818e-10
7.31183e-09
1.1954e-09
4.44972e-09
3.97256e-10
2.33581e-09
4.46502e-09
4.03112e-10
3.39019e-09
4.42414e-09
4.20802e-10
4.33433e-09
4.33714e-09
4.49275e-10
5.1522e-09
4.21566e-09
4.87376e-10
5.83815e-09
4.07339e-09
5.3404e-10
6.39286e-09
3.92285e-09
5.88187e-10
6.81756e-09
3.77193e-09
6.48265e-10
7.11574e-09
3.6257e-09
7.12115e-10
3.47293e-09
7.76268e-10
7.29485e-09
1.14651e-09
5.23066e-09
4.46028e-10
2.24919e-09
5.25972e-09
4.49467e-10
3.27899e-09
5.23104e-09
4.63481e-10
4.21218e-09
5.15278e-09
4.87322e-10
5.0316e-09
5.0345e-09
5.20101e-10
5.72585e-09
4.88639e-09
5.60841e-10
6.29022e-09
4.72094e-09
6.08514e-10
6.72487e-09
4.55112e-09
6.61777e-10
7.03366e-09
4.38595e-09
7.18726e-10
4.21296e-09
7.75802e-10
7.23054e-09
1.09573e-09
5.87974e-09
5.04757e-10
2.15694e-09
5.92133e-09
5.05456e-10
3.15759e-09
5.90542e-09
5.154e-10
4.07189e-09
5.83769e-09
5.34035e-10
4.88274e-09
5.72694e-09
5.60787e-10
5.57889e-09
5.58245e-09
5.94967e-10
6.15061e-09
5.41308e-09
6.35589e-10
6.59281e-09
5.23082e-09
6.81361e-10
6.90905e-09
5.0505e-09
7.30667e-10
4.86432e-09
7.80052e-10
7.1222e-09
1.04493e-09
6.39915e-09
5.72051e-10
2.06293e-09
6.45199e-09
5.6971e-10
3.03151e-09
6.4486e-09
5.75241e-10
3.92371e-09
6.3923e-09
5.88285e-10
4.71958e-09
6.29019e-09
6.08488e-10
5.40833e-09
6.15169e-09
6.35452e-10
5.98183e-09
5.9856e-09
6.6848e-10
6.42931e-09
5.80012e-09
7.06243e-10
6.74934e-09
5.60902e-09
7.47093e-10
5.41411e-09
7.88007e-10
6.97488e-09
9.95846e-10
6.79105e-09
6.46321e-10
1.97127e-09
6.85391e-09
6.40621e-10
2.90588e-09
6.86196e-09
6.41328e-10
3.77364e-09
6.81706e-09
6.4843e-10
4.55266e-09
6.72457e-09
6.61808e-10
5.22877e-09
6.59233e-09
6.81155e-10
5.7955e-09
6.42966e-09
7.05966e-10
6.24273e-09
6.245e-09
7.34952e-10
6.56341e-09
6.04946e-09
7.66438e-10
5.85181e-09
7.97998e-10
6.79561e-09
9.50433e-10
7.05803e-09
7.25476e-10
1.88507e-09
7.12979e-09
7.15998e-10
2.78564e-09
7.14882e-09
7.11446e-10
3.62715e-09
7.11551e-09
7.12324e-10
4.38795e-09
7.03352e-09
7.18785e-10
5.05131e-09
6.90875e-09
7.30509e-10
5.6072e-09
6.74899e-09
7.4679e-10
6.04716e-09
6.56362e-09
7.66245e-10
6.364e-09
6.36501e-09
7.8728e-10
6.16816e-09
8.07828e-10
6.59484e-09
9.059e-10
8.06924e-10
7.2025e-09
1.79775e-09
7.92598e-10
7.2801e-09
2.66159e-09
7.82181e-10
7.31178e-09
3.47402e-09
7.76511e-10
7.29493e-09
4.21421e-09
7.75893e-10
7.23068e-09
4.86541e-09
7.79991e-10
7.1223e-09
5.41462e-09
7.8786e-10
6.97494e-09
5.85136e-09
7.97846e-10
6.79564e-09
6.16715e-09
8.07707e-10
6.59494e-09
8.15567e-10
6.38946e-09
6.3899e-09
1.62441e-09
1.6282e-09
1.06149e-10
3.12598e-09
1.61095e-09
1.2097e-10
4.46677e-09
1.56586e-09
1.50764e-10
5.64848e-09
1.51232e-09
1.9403e-10
6.67895e-09
1.45681e-09
2.49583e-10
7.56373e-09
1.40092e-09
3.16422e-10
8.30703e-09
1.34639e-09
3.93601e-10
8.9119e-09
1.29551e-09
4.79984e-10
9.38023e-09
1.25081e-09
5.739e-10
1.20885e-09
6.73173e-10
9.71191e-09
1.60696e-09
3.1272e-09
1.20934e-10
3.11183e-09
3.11528e-09
1.34774e-10
4.47123e-09
3.05246e-09
1.62972e-10
5.67352e-09
2.96296e-09
2.04167e-10
6.72268e-09
2.86379e-09
2.5727e-10
7.62422e-09
2.76238e-09
3.21319e-10
8.38257e-09
2.66234e-09
3.95368e-10
9.00066e-09
2.56815e-09
4.78218e-10
9.48028e-09
2.48386e-09
5.6803e-10
2.40096e-09
6.61782e-10
9.81689e-09
1.56388e-09
4.46452e-09
1.50741e-10
3.04839e-09
4.47085e-09
1.6295e-10
4.41238e-09
4.41504e-09
1.88688e-10
5.63144e-09
4.31482e-09
2.26794e-10
6.6988e-09
4.18985e-09
2.76249e-10
7.61763e-09
4.05626e-09
3.36192e-10
8.39209e-09
3.92278e-09
4.05729e-10
9.02415e-09
3.79491e-09
4.83561e-10
9.51618e-09
3.67825e-09
5.67741e-10
3.56058e-09
6.54917e-10
9.86551e-09
1.51268e-09
5.64504e-09
1.94075e-10
2.96143e-09
5.67069e-09
2.04178e-10
4.3113e-09
5.63068e-09
2.26775e-10
5.53554e-09
5.53777e-09
2.60973e-10
6.6171e-09
5.40656e-09
3.05853e-10
7.55125e-09
5.25428e-09
3.60614e-10
8.34039e-09
5.09705e-09
4.24473e-10
8.98593e-09
4.94498e-09
4.96181e-10
9.49048e-09
4.80422e-09
5.73808e-10
4.65958e-09
6.53757e-10
9.85676e-09
1.45772e-09
6.6752e-09
2.49715e-10
2.86483e-09
6.71929e-09
2.57365e-10
4.18881e-09
6.69617e-09
2.76274e-10
5.4034e-09
6.61635e-09
3.05829e-10
6.48983e-09
6.49201e-09
3.45348e-10
7.43591e-09
6.33611e-09
3.9413e-10
8.23713e-09
6.16453e-09
4.51428e-10
8.89381e-09
5.99397e-09
5.16145e-10
9.40914e-09
5.83594e-09
5.86553e-10
5.67299e-09
6.58771e-10
9.79336e-09
1.40177e-09
7.55998e-09
3.16653e-10
2.76406e-09
7.62081e-09
3.21515e-10
4.05777e-09
7.61474e-09
3.36314e-10
5.25359e-09
7.54918e-09
3.60643e-10
6.3328e-09
7.43564e-09
3.94098e-10
7.28338e-09
7.28631e-09
4.36231e-10
8.09411e-09
7.11249e-09
4.86342e-10
8.75867e-09
6.92933e-09
5.43373e-10
9.2802e-09
6.75595e-09
6.05821e-10
6.58063e-09
6.69679e-10
9.67978e-09
1.34723e-09
8.30362e-09
3.93937e-10
2.66398e-09
8.37946e-09
3.95663e-10
3.92513e-09
8.38941e-09
4.05949e-10
5.09939e-09
8.33822e-09
4.24597e-10
6.16403e-09
8.23542e-09
4.51422e-10
7.10764e-09
8.09357e-09
4.86218e-10
7.92123e-09
7.92441e-09
5.2853e-10
8.59066e-09
7.73792e-09
5.77245e-10
9.11264e-09
7.55135e-09
6.30793e-10
7.36553e-09
6.8542e-10
9.52168e-09
1.29633e-09
8.90914e-09
4.80431e-10
2.56977e-09
8.99813e-09
4.78613e-10
3.79732e-09
9.02189e-09
4.83863e-10
4.94834e-09
8.98388e-09
4.96366e-10
5.99718e-09
8.89176e-09
5.16179e-10
6.92765e-09
8.75606e-09
5.43161e-10
7.73302e-09
8.58902e-09
5.76959e-10
8.39949e-09
8.40087e-09
6.16388e-10
8.91647e-09
8.20514e-09
6.5985e-10
8.01189e-09
7.04137e-10
9.32608e-09
1.25158e-09
9.37836e-09
5.7445e-10
2.48535e-09
9.47855e-09
5.68517e-10
3.68043e-09
9.51458e-09
5.68116e-10
4.80711e-09
9.48891e-09
5.74032e-10
5.83964e-09
9.40741e-09
5.86608e-10
6.75793e-09
9.27802e-09
6.05639e-10
7.54981e-09
9.11034e-09
6.30468e-10
8.20313e-09
8.91518e-09
6.59651e-10
8.70686e-09
8.70709e-09
6.91552e-10
8.50327e-09
7.23255e-10
9.1027e-09
1.20953e-09
6.73768e-10
9.71102e-09
2.40226e-09
6.62311e-10
9.81603e-09
3.5624e-09
6.55328e-10
9.86464e-09
4.66185e-09
6.54015e-10
9.85582e-09
5.67551e-09
6.58862e-10
9.79229e-09
6.58289e-09
6.69605e-10
9.67855e-09
7.36698e-09
6.85259e-10
9.52043e-09
8.01197e-09
7.03973e-10
9.32492e-09
8.5025e-09
7.23119e-10
9.10178e-09
7.40093e-10
8.86986e-09
8.86974e-09
1.93208e-09
1.9359e-09
-2.34371e-10
3.72532e-09
1.91732e-09
-2.15077e-10
5.33815e-09
1.86763e-09
-1.82054e-10
6.77681e-09
1.80945e-09
-1.3678e-10
8.05488e-09
1.75032e-09
-8.00413e-11
9.18177e-09
1.69231e-09
-1.22911e-11
1.01646e-08
1.6376e-09
6.61333e-11
1.1008e-08
1.58901e-09
1.54782e-10
1.17134e-08
1.54971e-09
2.52736e-10
1.51548e-09
3.58711e-10
1.22783e-08
1.91327e-09
3.72568e-09
-2.15065e-10
3.71249e-09
3.71534e-09
-1.96851e-10
5.34897e-09
3.64754e-09
-1.65429e-10
6.81331e-09
3.55102e-09
-1.22031e-10
8.11481e-09
3.44618e-09
-6.74446e-11
9.26271e-09
3.34191e-09
-2.15563e-12
1.02644e-08
3.24266e-09
7.34689e-11
1.11241e-08
3.15389e-09
1.5888e-10
1.1843e-08
3.08057e-09
2.5295e-10
3.01189e-09
3.53467e-10
1.2411e-08
1.86579e-09
5.3345e-09
-1.8202e-10
3.64392e-09
5.34742e-09
-1.65398e-10
5.28866e-09
5.29054e-09
-1.36346e-10
6.77532e-09
5.18519e-09
-9.57766e-11
8.10014e-09
5.05502e-09
-4.43969e-11
9.26971e-09
4.91935e-09
1.73005e-11
1.0291e-08
4.78883e-09
8.89288e-11
1.11668e-08
4.67017e-09
1.69802e-10
1.18988e-08
4.57009e-09
2.58623e-10
4.47266e-09
3.52714e-10
1.24784e-08
1.81032e-09
6.77178e-09
-1.36692e-10
3.55024e-09
6.80895e-09
-1.2196e-10
5.18225e-09
6.77319e-09
-9.57423e-11
6.67863e-09
6.67997e-09
-5.8683e-11
8.02278e-09
6.54681e-09
-1.1342e-11
9.21187e-09
6.39445e-09
4.58419e-11
1.02508e-08
6.24259e-09
1.12499e-10
1.11416e-08
6.10364e-09
1.87911e-10
1.18863e-08
5.9849e-09
2.7074e-10
5.86596e-09
3.57897e-10
1.24819e-08
1.75187e-09
8.04934e-09
-7.98707e-11
3.44831e-09
8.10963e-09
-6.73087e-11
5.05492e-09
8.0957e-09
-4.43203e-11
6.54431e-09
8.02043e-09
-1.13208e-11
7.8975e-09
7.89864e-09
3.13076e-11
9.1026e-09
7.74609e-09
8.32557e-11
1.01561e-08
7.58223e-09
1.44191e-10
1.10591e-08
7.42756e-09
2.13448e-10
1.18141e-08
7.29606e-09
2.89789e-10
7.16357e-09
3.69631e-10
1.24263e-08
1.69376e-09
9.17621e-09
-1.20287e-11
3.34475e-09
9.25749e-09
-1.93296e-12
4.92226e-09
9.26494e-09
1.74491e-11
6.3949e-09
9.20789e-09
4.59088e-11
7.7435e-09
9.10065e-09
8.32637e-11
8.95642e-09
8.95837e-09
1.29381e-10
1.00219e-08
8.79508e-09
1.84001e-10
1.0933e-08
8.6293e-09
2.4651e-10
1.16924e-08
8.48439e-09
3.15772e-10
8.34243e-09
3.87776e-10
1.23175e-08
1.63899e-09
1.01595e-08
6.6489e-11
3.24537e-09
1.02596e-08
7.37788e-11
4.79271e-09
1.02865e-08
8.91573e-11
6.24667e-09
1.02467e-08
1.12631e-10
7.58295e-09
1.01524e-08
1.44216e-10
8.7905e-09
1.00194e-08
1.83929e-10
9.86046e-09
9.86268e-09
2.31656e-10
1.07759e-08
9.69426e-09
2.8676e-10
1.15318e-08
9.53488e-09
3.48037e-10
9.38182e-09
4.11405e-10
1.21617e-08
1.59036e-09
1.10038e-08
1.55232e-10
3.15652e-09
1.11201e-08
1.59273e-10
4.67403e-09
1.11629e-08
1.70098e-10
6.10887e-09
1.11377e-08
1.88083e-10
7.43271e-09
1.10549e-08
2.13478e-10
8.62829e-09
1.09278e-08
2.46335e-10
9.68939e-09
1.07719e-08
2.86525e-10
1.0599e-08
1.05991e-08
3.33215e-10
1.13431e-08
1.04256e-08
3.85202e-10
1.02604e-08
4.3877e-10
1.19652e-08
1.55097e-09
1.17104e-08
2.5327e-10
3.08299e-09
1.18401e-08
2.53419e-10
4.57359e-09
1.18959e-08
2.58976e-10
5.98942e-09
1.18831e-08
2.70942e-10
7.30166e-09
1.18104e-08
2.89823e-10
8.48771e-09
1.1688e-08
3.15588e-10
9.53383e-09
1.15272e-08
3.47745e-10
1.04241e-08
1.134e-08
3.85034e-10
1.11438e-08
1.1143e-08
4.26084e-10
1.09534e-08
4.67323e-10
1.17359e-08
1.51658e-09
3.59275e-10
1.22767e-08
3.014e-09
3.53964e-10
1.24094e-08
4.47561e-09
3.53093e-10
1.24765e-08
5.86958e-09
3.58126e-10
1.24797e-08
7.16753e-09
3.697e-10
1.24238e-08
8.34599e-09
3.87691e-10
1.23147e-08
9.38436e-09
4.11247e-10
1.21588e-08
1.02611e-08
4.38619e-10
1.19626e-08
1.0953e-08
4.67194e-10
1.17338e-08
4.93812e-10
1.14921e-08
1.14912e-08
2.1815e-09
2.18531e-09
-6.78219e-10
4.213e-09
2.16628e-09
-6.55252e-10
6.05106e-09
2.11373e-09
-6.22152e-10
7.70649e-09
2.05297e-09
-5.80306e-10
9.19865e-09
1.99254e-09
-5.30105e-10
1.05413e-08
1.93494e-09
-4.71498e-10
1.17453e-08
1.88282e-09
-4.04275e-10
1.28177e-08
1.83959e-09
-3.28234e-10
1.37609e-08
1.80909e-09
-2.43452e-10
1.78617e-09
-1.50075e-10
1.45717e-08
2.16223e-09
4.21261e-09
-6.55181e-10
4.20212e-09
4.20444e-09
-6.33293e-10
6.06811e-09
4.13416e-09
-6.01603e-10
7.75365e-09
4.03426e-09
-5.61153e-10
9.27335e-09
3.92799e-09
-5.12458e-10
1.06408e-08
3.82558e-09
-4.55571e-10
1.18669e-08
3.73236e-09
-3.90328e-10
1.29584e-08
3.65486e-09
-3.16636e-10
1.39168e-08
3.59904e-09
-2.3477e-10
3.55151e-09
-1.45689e-10
1.47285e-08
2.11213e-09
6.04614e-09
-6.22059e-10
4.13104e-09
6.0655e-09
-6.01519e-10
6.00878e-09
6.00988e-09
-5.71811e-10
7.72162e-09
5.90361e-09
-5.33536e-10
9.26926e-09
5.77378e-09
-4.87114e-10
1.06622e-08
5.64249e-09
-4.32719e-10
1.19109e-08
5.52223e-09
-3.70277e-10
1.30202e-08
5.42107e-09
-2.99827e-10
1.3992e-08
5.34698e-09
-2.21838e-10
5.27962e-09
-1.37777e-10
1.4813e-08
2.05439e-09
7.69996e-09
-5.80193e-10
4.03426e-09
7.74784e-09
-5.61033e-10
5.90135e-09
7.71819e-09
-5.33447e-10
7.62836e-09
7.62874e-09
-4.97794e-10
9.20015e-09
7.49967e-09
-4.54271e-10
1.06165e-08
7.35493e-09
-4.0299e-10
1.18856e-08
7.21751e-09
-3.43966e-10
1.30112e-08
7.1021e-09
-2.77343e-10
1.39954e-08
7.01731e-09
-2.03666e-10
6.93645e-09
-1.24918e-10
1.48305e-08
1.99471e-09
9.19146e-09
-5.29927e-10
3.9312e-09
9.26651e-09
-5.12306e-10
5.7747e-09
9.2631e-09
-4.86991e-10
7.498e-09
9.19624e-09
-4.54196e-10
9.0831e-09
9.08313e-09
-4.14013e-10
1.05196e-08
8.94227e-09
-3.66384e-10
1.18058e-08
8.79657e-09
-3.11264e-10
1.29444e-08
8.67018e-09
-2.48855e-10
1.39384e-08
8.57946e-09
-1.79728e-10
8.49199e-09
-1.06488e-10
1.47882e-08
1.93696e-09
1.05341e-08
-4.71247e-10
3.82954e-09
1.06339e-08
-4.55359e-10
5.64679e-09
1.06557e-08
-4.32567e-10
7.35662e-09
1.06107e-08
-4.02888e-10
8.94057e-09
1.0516e-08
-3.66326e-10
1.03885e-08
1.03894e-08
-3.22753e-10
1.16895e-08
1.02479e-08
-2.71999e-10
1.28368e-08
1.01136e-08
-2.14175e-10
1.38337e-08
1.00136e-08
-1.49902e-10
9.92161e-09
-8.24731e-11
1.46932e-08
1.88475e-09
1.17386e-08
-4.03958e-10
3.73612e-09
1.18605e-08
-3.90056e-10
5.52759e-09
1.19047e-08
-3.70081e-10
7.22331e-09
1.18796e-08
-3.43849e-10
8.79863e-09
1.18001e-08
-3.11204e-10
1.02438e-08
1.16851e-08
-2.71988e-10
1.15515e-08
1.15526e-08
-2.26009e-10
1.27033e-08
1.14174e-08
-1.73323e-10
1.36932e-08
1.13036e-08
-1.14571e-10
1.12019e-08
-5.34839e-11
1.45523e-08
1.84144e-09
1.28122e-08
-3.27857e-10
3.65847e-09
1.2953e-08
-3.16312e-10
5.42634e-09
1.30148e-08
-2.99593e-10
7.10911e-09
1.30055e-08
-2.77218e-10
8.6772e-09
1.29381e-08
-2.48837e-10
1.01134e-08
1.28291e-08
-2.14264e-10
1.14128e-08
1.26969e-08
-1.73442e-10
1.25566e-08
1.25555e-08
-1.26702e-10
1.35286e-08
1.24239e-08
-7.46028e-11
1.23067e-08
-2.07878e-11
1.43712e-08
1.81081e-09
1.37569e-08
-2.43026e-10
3.60236e-09
1.39128e-08
-2.34403e-10
5.35173e-09
1.39877e-08
-2.21574e-10
7.02337e-09
1.39906e-08
-2.0353e-10
8.58682e-09
1.39328e-08
-1.79728e-10
1.00182e-08
1.38269e-08
-1.50052e-10
1.13032e-08
1.36862e-08
-1.14763e-10
1.2423e-08
1.35237e-08
-7.46961e-11
1.33599e-08
1.33581e-08
-3.06725e-11
1.32036e-08
1.36334e-11
1.41553e-08
1.78769e-09
-1.49645e-10
1.45694e-08
3.5544e-09
-1.45317e-10
1.4726e-08
5.28364e-09
-1.37505e-10
1.48102e-08
6.94133e-09
-1.24769e-10
1.48271e-08
8.49729e-09
-1.06462e-10
1.47841e-08
9.92636e-09
-8.25584e-11
1.46887e-08
1.12055e-08
-5.36088e-11
1.45479e-08
1.23082e-08
-2.0894e-11
1.43672e-08
1.32036e-08
1.35417e-11
1.41519e-08
4.65232e-11
1.39209e-08
1.39194e-08
2.33934e-09
2.34316e-09
-1.1879e-09
4.52247e-09
2.32409e-09
-1.1624e-09
6.50591e-09
2.27017e-09
-1.13252e-09
8.30403e-09
2.20847e-09
-1.0995e-09
9.94063e-09
2.14825e-09
-1.06345e-09
1.14334e-08
2.09233e-09
-1.02403e-09
1.27967e-08
2.04381e-09
-9.80812e-10
1.40409e-08
2.00662e-09
-9.33272e-10
1.51704e-08
1.98526e-09
-8.80947e-10
1.9736e-09
-8.2312e-10
1.61841e-08
2.32005e-09
4.5216e-09
-1.16226e-09
4.51315e-09
4.51516e-09
-1.1377e-09
6.52735e-09
4.44418e-09
-1.10885e-09