/*--------------------------------*- C++ -*----------------------------------*\
| =========                 |                                                 |
| \\      /  F ield         | foam-extend: Open Source CFD                    |
|  \\    /   O peration     | Version:     3.1                                |
|   \\  /    A nd           | Web:         http://www.extend-project.de       |
|    \\/     M anipulation  |                                                 |
\*---------------------------------------------------------------------------*/
FoamFile
{
    version     2.0;
    format      ascii;
    class       volScalarField;
    location    "0.0014";
    object      p;
}
// * * * * * * * * * * * * * * * * * * * * * * * * * * * * * * * * * * * * * //

dimensions      [0 2 -2 0 0 0 0];

internalField   nonuniform List<scalar> 
16000
(
1.31274
1.31285
1.31308
1.31342
1.31387
1.31444
1.31512
1.31591
1.31681
1.31781
1.31285
1.31296
1.31317
1.3135
1.31394
1.31448
1.31514
1.31591
1.31678
1.31774
1.31308
1.31317
1.31337
1.31368
1.3141
1.31462
1.31525
1.31599
1.31682
1.31775
1.31342
1.3135
1.31368
1.31397
1.31436
1.31485
1.31545
1.31615
1.31695
1.31783
1.31387
1.31394
1.3141
1.31436
1.31472
1.31518
1.31574
1.31639
1.31715
1.31798
1.31444
1.31448
1.31462
1.31485
1.31518
1.3156
1.31611
1.31672
1.31743
1.3182
1.31512
1.31514
1.31525
1.31545
1.31574
1.31611
1.31658
1.31714
1.31778
1.31849
1.31591
1.31591
1.31599
1.31615
1.31639
1.31672
1.31714
1.31763
1.3182
1.31883
1.31681
1.31678
1.31682
1.31695
1.31715
1.31743
1.31778
1.3182
1.31869
1.31923
1.31781
1.31774
1.31775
1.31783
1.31798
1.3182
1.31849
1.31883
1.31923
1.31967
1.27137
1.27172
1.27241
1.27346
1.27487
1.27664
1.27877
1.28126
1.28409
1.28724
1.27172
1.27204
1.2727
1.27371
1.27505
1.27675
1.2788
1.28119
1.28392
1.28695
1.27241
1.2727
1.27332
1.27427
1.27555
1.27716
1.27911
1.2814
1.28401
1.28692
1.27346
1.27371
1.27427
1.27515
1.27635
1.27787
1.27972
1.28189
1.28437
1.28714
1.27487
1.27505
1.27555
1.27635
1.27746
1.27889
1.28062
1.28266
1.285
1.28762
1.27664
1.27675
1.27716
1.27787
1.27889
1.2802
1.28181
1.28371
1.2859
1.28835
1.27877
1.2788
1.27911
1.27972
1.28062
1.28181
1.28328
1.28503
1.28705
1.28932
1.28126
1.28119
1.2814
1.28189
1.28266
1.28371
1.28503
1.28662
1.28846
1.29054
1.28409
1.28392
1.28401
1.28437
1.285
1.2859
1.28705
1.28846
1.29011
1.29198
1.28724
1.28695
1.28692
1.28714
1.28762
1.28835
1.28932
1.29053
1.29198
1.29364
1.22777
1.22835
1.22951
1.23126
1.23362
1.2366
1.24022
1.2445
1.24944
1.25504
1.22835
1.22888
1.22999
1.23166
1.23393
1.23679
1.24027
1.24439
1.24914
1.25453
1.22951
1.22999
1.23102
1.2326
1.23476
1.23749
1.24082
1.24476
1.24931
1.25447
1.23126
1.23166
1.2326
1.23408
1.23611
1.2387
1.24187
1.24562
1.24996
1.25488
1.23362
1.23393
1.23476
1.23611
1.238
1.24043
1.24342
1.24697
1.25108
1.25575
1.2366
1.23679
1.23749
1.2387
1.24043
1.24269
1.24548
1.24881
1.25268
1.25709
1.24022
1.24027
1.24082
1.24187
1.24342
1.24548
1.24805
1.25115
1.25476
1.25888
1.2445
1.24439
1.24476
1.24562
1.24697
1.24881
1.25115
1.25398
1.25732
1.26114
1.24944
1.24914
1.24931
1.24995
1.25108
1.25268
1.25476
1.25732
1.26035
1.26385
1.25504
1.25453
1.25447
1.25488
1.25575
1.25709
1.25888
1.26114
1.26385
1.26701
1.18024
1.18102
1.1826
1.18499
1.18823
1.19236
1.19741
1.20345
1.21053
1.21869
1.18102
1.18176
1.18326
1.18555
1.18866
1.19263
1.19749
1.2033
1.2101
1.21795
1.1826
1.18326
1.18466
1.18684
1.18981
1.1936
1.19826
1.20383
1.21035
1.21787
1.18499
1.18555
1.18684
1.18888
1.19169
1.1953
1.19974
1.20506
1.2113
1.21849
1.18823
1.18866
1.18981
1.19169
1.19432
1.19772
1.20194
1.207
1.21294
1.21978
1.19236
1.19263
1.1936
1.19529
1.19772
1.20091
1.20488
1.20966
1.21528
1.22177
1.19741
1.19749
1.19826
1.19974
1.20194
1.20488
1.20857
1.21305
1.21835
1.22446
1.20345
1.2033
1.20383
1.20506
1.207
1.20966
1.21305
1.21721
1.22214
1.22787
1.21053
1.2101
1.21035
1.2113
1.21294
1.21528
1.21835
1.22214
1.22669
1.232
1.21869
1.21794
1.21787
1.21849
1.21978
1.22177
1.22446
1.22787
1.232
1.23686
1.12744
1.12838
1.13028
1.13316
1.13709
1.14213
1.14838
1.15593
1.1649
1.17542
1.12838
1.12926
1.13107
1.13384
1.13762
1.14247
1.14847
1.15573
1.16436
1.17446
1.13028
1.13107
1.13277
1.1354
1.13902
1.14367
1.14944
1.15641
1.16469
1.17437
1.13316
1.13384
1.1354
1.13788
1.14132
1.14576
1.15129
1.15797
1.1659
1.17518
1.13709
1.13761
1.13901
1.14132
1.14455
1.14878
1.15404
1.16043
1.16801
1.17687
1.14213
1.14247
1.14367
1.14576
1.14878
1.15275
1.15774
1.16382
1.17104
1.17949
1.14838
1.14847
1.14944
1.15129
1.15404
1.15774
1.16244
1.16818
1.17503
1.18304
1.15593
1.15573
1.15641
1.15797
1.16043
1.16382
1.16818
1.17356
1.18
1.18756
1.1649
1.16435
1.16468
1.1659
1.16801
1.17104
1.17503
1.18
1.18602
1.19309
1.17542
1.17445
1.17437
1.17517
1.17687
1.17949
1.18304
1.18756
1.19309
1.19967
1.06836
1.06937
1.07141
1.07453
1.07881
1.08434
1.09127
1.09976
1.10999
1.12219
1.06937
1.07032
1.07227
1.07526
1.07938
1.08471
1.09138
1.09954
1.10937
1.12107
1.07141
1.07227
1.0741
1.07696
1.08092
1.08604
1.09246
1.10031
1.10975
1.12097
1.07453
1.07526
1.07696
1.07967
1.08345
1.08836
1.09453
1.10208
1.11115
1.12191
1.07881
1.07938
1.08092
1.08345
1.08702
1.09172
1.09763
1.10488
1.11359
1.12391
1.08434
1.08471
1.08604
1.08836
1.09172
1.09618
1.10182
1.10876
1.1171
1.12698
1.09127
1.09138
1.09246
1.09453
1.09763
1.10182
1.10718
1.11378
1.12175
1.13119
1.09975
1.09954
1.10031
1.10207
1.10488
1.10876
1.11378
1.12004
1.12761
1.13658
1.10999
1.10937
1.10975
1.11115
1.11358
1.1171
1.12175
1.12761
1.13475
1.14323
1.12219
1.12107
1.12097
1.12191
1.12391
1.12698
1.13119
1.13658
1.14323
1.1512
1.00252
1.00348
1.00542
1.00841
1.01254
1.01794
1.02477
1.03325
1.04365
1.05629
1.00348
1.00438
1.00624
1.00912
1.0131
1.0183
1.02488
1.03303
1.04301
1.05512
1.00542
1.00624
1.008
1.01076
1.01459
1.0196
1.02594
1.0338
1.0434
1.05501
1.00841
1.00912
1.01076
1.01338
1.01705
1.02188
1.028
1.03558
1.04483
1.05599
1.01254
1.0131
1.01459
1.01705
1.02056
1.0252
1.0311
1.03841
1.04733
1.05806
1.01793
1.0183
1.0196
1.02188
1.0252
1.02964
1.03531
1.04236
1.05096
1.06128
1.02477
1.02487
1.02594
1.028
1.0311
1.03531
1.04074
1.04752
1.05579
1.06572
1.03325
1.03303
1.0338
1.03558
1.03841
1.04236
1.04752
1.054
1.06193
1.07145
1.04365
1.04301
1.0434
1.04483
1.04733
1.05095
1.05579
1.06193
1.0695
1.0786
1.05629
1.05511
1.05501
1.05598
1.05806
1.06128
1.06572
1.07145
1.0786
1.08727
0.930177
0.930947
0.932514
0.934939
0.938316
0.942777
0.948504
0.955735
0.964777
0.976021
0.930947
0.931673
0.933176
0.935514
0.938773
0.943076
0.948593
0.955544
0.964213
0.974959
0.932514
0.933175
0.934603
0.936849
0.939996
0.944157
0.949488
0.956195
0.96454
0.97485
0.934939
0.935513
0.936849
0.938997
0.942031
0.946058
0.951222
0.957714
0.965775
0.975702
0.938315
0.938772
0.939995
0.942031
0.944947
0.948842
0.95385
0.960147
0.967955
0.977542
0.942776
0.943075
0.944156
0.946057
0.948841
0.952599
0.957454
0.963568
0.971145
0.980423
0.948502
0.948592
0.949487
0.951221
0.953849
0.957454
0.962149
0.968082
0.975438
0.984426
0.955732
0.955542
0.956193
0.957712
0.960146
0.963567
0.968081
0.973822
0.980956
0.989665
0.964774
0.964211
0.964537
0.965772
0.967953
0.971143
0.975436
0.980956
0.987854
0.996284
0.976018
0.974956
0.974847
0.975699
0.977539
0.98042
0.984425
0.989664
0.996284
1.00444
0.852486
0.852933
0.853847
0.855277
0.857293
0.860001
0.86355
0.868141
0.87405
0.881647
0.852933
0.853357
0.854236
0.855616
0.857565
0.860181
0.8636
0.868011
0.873668
0.880908
0.853847
0.854236
0.855075
0.856408
0.858297
0.860834
0.864147
0.868412
0.873861
0.880807
0.855276
0.855616
0.856407
0.857691
0.859524
0.861993
0.86522
0.869365
0.874647
0.88135
0.857292
0.857564
0.858296
0.859524
0.861301
0.86371
0.866862
0.870911
0.876057
0.882562
0.86
0.860179
0.860833
0.861993
0.86371
0.866059
0.869146
0.873114
0.87815
0.884491
0.863548
0.863599
0.864146
0.865218
0.866862
0.869146
0.87217
0.876067
0.881011
0.887216
0.868139
0.868009
0.86841
0.869363
0.870909
0.873113
0.876066
0.879894
0.884757
0.890846
0.874048
0.873665
0.873859
0.874645
0.876055
0.878148
0.881009
0.884756
0.88954
0.895535
0.881644
0.880905
0.880804
0.881348
0.88256
0.884489
0.887214
0.890845
0.895534
0.901466
0.771471
0.771499
0.77156
0.771674
0.771868
0.772185
0.772685
0.773464
0.774657
0.776467
0.771499
0.771528
0.771589
0.771703
0.771894
0.772202
0.772685
0.773429
0.77456
0.776264
0.77156
0.771589
0.771653
0.771769
0.771961
0.772268
0.772745
0.773471
0.774564
0.776195
0.771674
0.771702
0.771768
0.771889
0.772088
0.772401
0.77288
0.773602
0.774677
0.776263
0.771868
0.771893
0.771961
0.772088
0.772296
0.772621
0.773111
0.773841
0.774915
0.776482
0.772184
0.772201
0.772268
0.7724
0.77262
0.772961
0.773471
0.774221
0.775309
0.776877
0.772684
0.772683
0.772744
0.772879
0.773111
0.773471
0.774007
0.774787
0.775903
0.777491
0.773462
0.773427
0.773469
0.773601
0.77384
0.77422
0.774786
0.775604
0.776763
0.77839
0.774654
0.774558
0.774562
0.774675
0.774913
0.775307
0.775902
0.776763
0.77798
0.779673
0.776464
0.776262
0.776193
0.776261
0.77648
0.776875
0.777489
0.778389
0.779672
0.781481
0.68983
0.68941
0.688557
0.687254
0.68547
0.68316
0.680268
0.676721
0.672435
0.667314
0.68941
0.689017
0.688201
0.686947
0.685228
0.683001
0.680215
0.676803
0.672686
0.667777
0.688556
0.6882
0.687429
0.686229
0.684574
0.682426
0.679737
0.676447
0.672483
0.667767
0.687254
0.686947
0.686229
0.685087
0.683498
0.681427
0.67883
0.675652
0.671828
0.667289
0.685469
0.685227
0.684573
0.683498
0.681978
0.679985
0.677477
0.674406
0.670712
0.666338
0.683159
0.683
0.682425
0.681426
0.679985
0.678073
0.675657
0.67269
0.669119
0.664901
0.680266
0.680214
0.679736
0.678829
0.677477
0.675656
0.673336
0.670476
0.667029
0.662962
0.676719
0.676801
0.676446
0.675651
0.674405
0.672688
0.670475
0.667731
0.664413
0.660499
0.672432
0.672684
0.672481
0.671826
0.67071
0.669118
0.667028
0.664412
0.661239
0.657497
0.667311
0.667774
0.667765
0.667287
0.666336
0.664899
0.66296
0.660497
0.657496
0.653969
0.610516
0.609703
0.608045
0.605495
0.601967
0.597338
0.59144
0.584042
0.574838
0.563424
0.609702
0.608938
0.60735
0.604894
0.601492
0.597028
0.591347
0.584236
0.575413
0.564508
0.608045
0.60735
0.605845
0.603488
0.600206
0.595893
0.590403
0.58354
0.575043
0.564575
0.605494
0.604894
0.603488
0.601237
0.598075
0.593903
0.588584
0.581938
0.573722
0.563631
0.601966
0.601491
0.600205
0.598075
0.595037
0.591002
0.585843
0.57939
0.571419
0.561654
0.597337
0.597027
0.595892
0.593902
0.591002
0.587107
0.582102
0.575826
0.568074
0.558596
0.591438
0.591346
0.590402
0.588583
0.585842
0.582101
0.577252
0.571149
0.563597
0.554378
0.58404
0.584234
0.583538
0.581937
0.579388
0.575825
0.571148
0.565222
0.557866
0.548887
0.574836
0.575411
0.575041
0.57372
0.571417
0.568072
0.563596
0.557865
0.550717
0.541981
0.563421
0.564505
0.564572
0.563628
0.561652
0.558594
0.554375
0.548885
0.54198
0.533518
0.536196
0.535113
0.532908
0.529515
0.524823
0.518668
0.510822
0.500977
0.488713
0.473462
0.535113
0.534096
0.531985
0.528719
0.524196
0.518263
0.51071
0.50125
0.489497
0.474932
0.532908
0.531985
0.529986
0.526856
0.522497
0.51677
0.509478
0.500355
0.489043
0.475068
0.529515
0.528719
0.526856
0.523873
0.519681
0.514148
0.507093
0.498269
0.48734
0.473877
0.524822
0.524195
0.522497
0.51968
0.515663
0.510324
0.503492
0.494936
0.484346
0.471329
0.518666
0.518261
0.516769
0.514147
0.510323
0.505184
0.49857
0.490265
0.47998
0.467358
0.510821
0.510708
0.509476
0.507092
0.503491
0.498569
0.492179
0.484119
0.474118
0.461854
0.500975
0.501248
0.500353
0.498267
0.494934
0.490263
0.484118
0.47631
0.466588
0.454658
0.48871
0.489494
0.48904
0.487338
0.484344
0.479978
0.474116
0.466587
0.457154
0.445558
0.473458
0.474929
0.475065
0.473873
0.471326
0.467355
0.461851
0.454656
0.445557
0.43432
0.468755
0.467562
0.465137
0.461419
0.456304
0.449643
0.441229
0.430781
0.417926
0.402169
0.467561
0.466442
0.464124
0.460551
0.455627
0.449213
0.441116
0.431079
0.418756
0.403693
0.465136
0.464124
0.461937
0.458524
0.453794
0.447618
0.439819
0.430157
0.418311
0.403866
0.461418
0.46055
0.458523
0.455287
0.45076
0.444822
0.437308
0.427993
0.416582
0.402693
0.456303
0.455626
0.453793
0.45076
0.446452
0.440757
0.433522
0.424539
0.413532
0.400152
0.449642
0.449211
0.447617
0.444821
0.440757
0.435321
0.42837
0.419712
0.409088
0.396183
0.441226
0.441114
0.439817
0.437306
0.433521
0.428369
0.421719
0.41339
0.403144
0.390692
0.430778
0.431076
0.430154
0.427991
0.424537
0.41971
0.413389
0.405409
0.395546
0.383543
0.417923
0.418753
0.418308
0.416579
0.413529
0.409086
0.403142
0.395545
0.38609
0.374547
0.402164
0.403688
0.403862
0.40269
0.400148
0.39618
0.39069
0.383541
0.374546
0.363495
0.409038
0.407879
0.405533
0.401961
0.397094
0.390838
0.383067
0.373617
0.362285
0.348817
0.407878
0.406794
0.404558
0.401132
0.396456
0.390441
0.382969
0.37389
0.363015
0.35011
0.405532
0.404557
0.402459
0.399204
0.394733
0.388966
0.381796
0.373081
0.362647
0.350279
0.40196
0.401132
0.399203
0.396142
0.391897
0.386392
0.379529
0.371177
0.361176
0.349328
0.397093
0.396455
0.394732
0.391896
0.3879
0.382676
0.376132
0.36815
0.35858
0.347244
0.390836
0.390439
0.388965
0.386391
0.382676
0.377757
0.371553
0.363954
0.354822
0.343999
0.383064
0.382966
0.381794
0.379527
0.376131
0.371552
0.365716
0.358522
0.349846
0.339546
0.373614
0.373887
0.373079
0.371175
0.368148
0.363952
0.358521
0.351767
0.343574
0.333818
0.362281
0.363011
0.362644
0.361172
0.358577
0.35482
0.349845
0.343573
0.335903
0.326725
0.348812
0.350105
0.350275
0.349324
0.34724
0.343996
0.339543
0.333816
0.326724
0.318174
0.356901
0.355873
0.353802
0.350677
0.346475
0.341169
0.334731
0.327137
0.318375
0.308466
0.355873
0.354913
0.352946
0.349958
0.34593
0.340837
0.334653
0.327355
0.318932
0.309398
0.353802
0.352945
0.351112
0.34829
0.344463
0.339608
0.333702
0.326725
0.318664
0.309535
0.350676
0.349957
0.34829
0.345665
0.342067
0.337477
0.331874
0.325242
0.317571
0.308874
0.346474
0.345929
0.344462
0.342067
0.338729
0.334433
0.329163
0.322904
0.31565
0.307418
0.341167
0.340835
0.339607
0.337476
0.334432
0.330464
0.325558
0.319705
0.312902
0.305167
0.334729
0.334651
0.3337
0.331873
0.329161
0.325557
0.321053
0.315642
0.309327
0.302128
0.327133
0.327352
0.326722
0.325239
0.322902
0.319703
0.315642
0.310715
0.30493
0.298309
0.318371
0.318928
0.318661
0.317567
0.315647
0.3129
0.309325
0.304929
0.299721
0.29373
0.308461
0.309393
0.30953
0.30887
0.307414
0.305164
0.302125
0.298308
0.293729
0.288422
0.311538
0.310675
0.308947
0.306363
0.302938
0.298698
0.293685
0.287974
0.281684
0.275003
0.310674
0.309872
0.308235
0.305773
0.302498
0.298435
0.293625
0.288135
0.282073
0.275611
0.308946
0.308235
0.306721
0.304411
0.301319
0.297469
0.292899
0.287672
0.281889
0.275706
0.306362
0.305772
0.30441
0.302285
0.299409
0.295806
0.291513
0.28659
0.281132
0.275283
0.302937
0.302497
0.301318
0.299409
0.296781
0.293459
0.28948
0.284902
0.279814
0.274352
0.298696
0.298434
0.297467
0.295805
0.293459
0.290453
0.286825
0.282631
0.277958
0.272933
0.293683
0.293622
0.292897
0.291511
0.289479
0.286824
0.283585
0.279816
0.275602
0.271063
0.287971
0.288131
0.287669
0.286587
0.284899
0.28263
0.279815
0.276512
0.272802
0.268797
0.281679
0.282068
0.281885
0.281128
0.279811
0.277955
0.2756
0.272801
0.269637
0.266215
0.274997
0.275605
0.275701
0.275279
0.274348
0.272929
0.27106
0.268795
0.266214
0.263425
0.271886
0.271174
0.269754
0.267647
0.264883
0.26151
0.2576
0.253256
0.24863
0.243938
0.271174
0.270513
0.269172
0.267167
0.264529
0.261302
0.257551
0.253374
0.248909
0.244352
0.269754
0.269171
0.267936
0.266065
0.263586
0.26054
0.256989
0.253024
0.248772
0.244414
0.267646
0.267166
0.266065
0.264356
0.262067
0.259237
0.255924
0.252212
0.248222
0.244118
0.264881
0.264528
0.263585
0.262067
0.259997
0.257415
0.254376
0.250957
0.247273
0.243476
0.261508
0.2613
0.260538
0.259236
0.257415
0.255111
0.252378
0.249291
0.245954
0.242511
0.257597
0.257549
0.256987
0.255922
0.254374
0.252378
0.249982
0.24726
0.244309
0.241262
0.253253
0.253371
0.253021
0.25221
0.250955
0.249289
0.247259
0.244933
0.242403
0.239791
0.248626
0.248904
0.248768
0.248218
0.24727
0.245951
0.244307
0.242402
0.240322
0.238181
0.243932
0.244346
0.244408
0.244114
0.243472
0.242507
0.24126
0.239789
0.23818
0.236541
0.236969
0.236369
0.235175
0.233405
0.231091
0.228274
0.225016
0.221397
0.217527
0.213547
0.236369
0.235813
0.234685
0.233003
0.230794
0.228099
0.224974
0.221493
0.217757
0.213898
0.235174
0.234685
0.233647
0.232079
0.230004
0.227461
0.224502
0.221195
0.217635
0.213942
0.233405
0.233002
0.232078
0.230647
0.228733
0.226371
0.223608
0.22051
0.217162
0.213675
0.23109
0.230793
0.230003
0.228733
0.227004
0.224848
0.22231
0.21945
0.216348
0.213105
0.228272
0.228097
0.22746
0.22637
0.224847
0.222922
0.220634
0.21804
0.215213
0.212246
0.225013
0.224971
0.224499
0.223606
0.222309
0.220633
0.218618
0.216314
0.213787
0.211123
0.221393
0.221489
0.221192
0.220507
0.219448
0.218039
0.216313
0.214317
0.212113
0.209776
0.217522
0.217753
0.217631
0.217158
0.216345
0.21521
0.213785
0.212112
0.210245
0.208253
0.213541
0.213892
0.213937
0.213671
0.213101
0.212242
0.211121
0.209774
0.208252
0.20662
0.206062
0.205535
0.204485
0.202924
0.200871
0.19835
0.195393
0.192039
0.188328
0.184304
0.205535
0.205047
0.204053
0.202567
0.200606
0.198191
0.195353
0.192127
0.188552
0.184669
0.204485
0.204053
0.203137
0.201747
0.199899
0.197614
0.194918
0.191844
0.188428
0.184708
0.202923
0.202567
0.201747
0.200473
0.198758
0.196623
0.194091
0.191191
0.187955
0.184421
0.200869
0.200604
0.199898
0.198758
0.197196
0.19523
0.19288
0.190173
0.187139
0.183809
0.198348
0.198189
0.197612
0.196622
0.195229
0.193448
0.191298
0.188802
0.185985
0.182877
0.19539
0.195351
0.194916
0.194089
0.192879
0.191298
0.189362
0.18709
0.184505
0.181631
0.192035
0.192124
0.191841
0.191188
0.190171
0.188801
0.18709
0.185054
0.182711
0.180082
0.188323
0.188547
0.188424
0.187952
0.187136
0.185983
0.184504
0.18271
0.180617
0.178241
0.184298
0.184663
0.184703
0.184416
0.183804
0.182873
0.181629
0.180081
0.17824
0.176123
0.178693
0.178215
0.177256
0.175825
0.173926
0.171566
0.168751
0.165482
0.161751
0.157532
0.178214
0.177769
0.176861
0.175496
0.173679
0.171416
0.168713
0.16557
0.16198
0.157922
0.177256
0.176861
0.17602
0.174738
0.17302
0.17087
0.168293
0.165289
0.161852
0.157963
0.175824
0.175495
0.174738
0.173555
0.17195
0.169927
0.167491
0.164639
0.161366
0.157654
0.173924
0.173678
0.173019
0.171949
0.170473
0.168591
0.166308
0.16362
0.160521
0.156993
0.171564
0.171415
0.170868
0.169926
0.168591
0.166863
0.164744
0.162231
0.159314
0.155979
0.168749
0.168711
0.16829
0.167489
0.166306
0.164743
0.162799
0.160469
0.157743
0.154605
0.165479
0.165567
0.165286
0.164637
0.163618
0.162229
0.160468
0.158328
0.155799
0.152863
0.161746
0.161976
0.161848
0.161362
0.160518
0.159312
0.157741
0.155798
0.153469
0.15074
0.157526
0.157917
0.157958
0.157649
0.156989
0.155975
0.154602
0.152861
0.150739
0.148223
0.154557
0.154116
0.153231
0.151904
0.150132
0.147912
0.145236
0.142088
0.13844
0.134247
0.154116
0.153705
0.152866
0.151598
0.149901
0.147771
0.1452
0.142174
0.138667
0.134639
0.153231
0.152865
0.152086
0.150892
0.149282
0.147253
0.144798
0.141902
0.138542
0.134681
0.151903
0.151597
0.150891
0.149785
0.148275
0.146359
0.144029
0.141271
0.138064
0.134373
0.15013
0.1499
0.149281
0.148275
0.146877
0.145085
0.14289
0.140279
0.137231
0.133714
0.14791
0.147769
0.147252
0.146358
0.145084
0.143426
0.141376
0.138919
0.136036
0.132699
0.145233
0.145197
0.144796
0.144027
0.142888
0.141375
0.139478
0.137184
0.134472
0.131318
0.142084
0.14217
0.141899
0.141269
0.140277
0.138918
0.137183
0.135059
0.132526
0.129559
0.138435
0.138662
0.138538
0.13806
0.137227
0.136034
0.134471
0.132525
0.130176
0.127403
0.134241
0.134633
0.134675
0.134368
0.13371
0.132695
0.131315
0.129557
0.127402
0.124831
0.133408
0.133005
0.132196
0.130979
0.129353
0.12731
0.124841
0.121931
0.118558
0.114689
0.133005
0.132629
0.131861
0.130699
0.129141
0.12718
0.124808
0.122011
0.118768
0.11505
0.132195
0.131861
0.131147
0.130051
0.128572
0.126704
0.124438
0.121761
0.118654
0.115091
0.130979
0.130699
0.130051
0.129034
0.127646
0.125879
0.123728
0.121179
0.118215
0.11481
0.129352
0.12914
0.128571
0.127645
0.126358
0.124704
0.122677
0.120264
0.117448
0.114208
0.127308
0.127178
0.126702
0.125878
0.124704
0.123173
0.121279
0.119009
0.116349
0.113279
0.124838
0.124806
0.124436
0.123726
0.122676
0.121278
0.119526
0.11741
0.114913
0.112019
0.121928
0.122008
0.121758
0.121177
0.120262
0.119008
0.117409
0.115454
0.113129
0.110418
0.118554
0.118764
0.11865
0.118211
0.117445
0.116347
0.114911
0.113128
0.110983
0.108466
0.114683
0.115045
0.115086
0.114806
0.114204
0.113276
0.112016
0.110416
0.108465
0.106151
0.114994
0.114633
0.113908
0.112818
0.111363
0.109539
0.107341
0.104766
0.101803
0.0984467
0.114633
0.114296
0.113608
0.112568
0.111173
0.109423
0.107312
0.104836
0.101987
0.0987584
0.113907
0.113608
0.112968
0.111988
0.110666
0.108999
0.106984
0.104616
0.101889
0.0987947
0.112818
0.112567
0.111988
0.111079
0.109839
0.108266
0.106356
0.104105
0.101506
0.0985549
0.111362
0.111172
0.110665
0.109838
0.108691
0.107222
0.105427
0.103301
0.10084
0.0980389
0.109537
0.109421
0.108998
0.108265
0.107221
0.105866
0.104194
0.102204
0.0998886
0.0972457
0.107339
0.10731
0.106982
0.106354
0.105425
0.104194
0.102656
0.10081
0.09865
0.0961741
0.104762
0.104833
0.104613
0.104102
0.103299
0.102202
0.100809
0.099117
0.0971217
0.0948221
0.101799
0.101983
0.101885
0.101503
0.100837
0.0998864
0.0986484
0.0971209
0.0953008
0.0931879
0.0984411
0.0987531
0.0987898
0.0985505
0.098035
0.0972425
0.0961715
0.0948204
0.093187
0.0912733
0.0990361
0.0987185
0.0980817
0.0971269
0.095855
0.0942673
0.0923662
0.090155
0.0876396
0.0848303
0.0987184
0.0984227
0.0978188
0.0969076
0.0956899
0.0941671
0.0923412
0.0902154
0.0877951
0.0850894
0.0980814
0.0978186
0.0972581
0.0964008
0.0952475
0.0937995
0.0920586
0.0900279
0.0877122
0.0851202
0.0971262
0.096907
0.0964005
0.0956074
0.0945284
0.0931649
0.0915185
0.0895922
0.0873906
0.0849219
0.0958538
0.0956888
0.0952467
0.094528
0.0935333
0.092264
0.0907217
0.0889092
0.086831
0.0844952
0.0942656
0.0941655
0.0937981
0.0931639
0.0922634
0.0910979
0.0896692
0.08798
0.0860346
0.0838411
0.0923637
0.0923389
0.0920566
0.0915169
0.0907205
0.0896686
0.088363
0.0868066
0.0850034
0.0829617
0.0901516
0.0902123
0.0900251
0.0895898
0.0889073
0.0879787
0.0868059
0.0853918
0.0837404
0.0818602
0.0876353
0.087791
0.0877085
0.0873873
0.0868282
0.0860324
0.0850019
0.0837396
0.0822499
0.0805411
0.0848249
0.0850843
0.0851155
0.0849177
0.0844915
0.083838
0.0829593
0.0818585
0.0805403
0.0790139
0.0852377
0.0849626
0.0844116
0.0835872
0.0824921
0.0811309
0.0795096
0.0776372
0.075526
0.0731939
0.0849624
0.0847066
0.0841844
0.083398
0.0823502
0.0810451
0.0794883
0.0776881
0.0756558
0.0734078
0.0844113
0.0841842
0.0837003
0.0829615
0.0819705
0.0807309
0.0792483
0.07753
0.0755866
0.0734334
0.0835865
0.0833975
0.0829612
0.0822793
0.0813542
0.0801895
0.0787901
0.0771631
0.0753183
0.0732698
0.082491
0.0823492
0.0819697
0.0813538
0.0805037
0.0794227
0.0781156
0.076589
0.074852
0.0729179
0.0811292
0.0810435
0.0807296
0.0801885
0.0794222
0.0784338
0.0772278
0.0758105
0.0741902
0.0723799
0.0795072
0.0794861
0.0792463
0.0787885
0.0781145
0.0772272
0.0761309
0.0748314
0.0733367
0.0716589
0.077634
0.0776851
0.0775273
0.0771608
0.0765872
0.0758092
0.0748307
0.0736574
0.0722966
0.0707599
0.0755219
0.075652
0.0755831
0.0753151
0.0748493
0.0741881
0.0733352
0.0722959
0.0710771
0.0696899
0.0731888
0.0734029
0.0734288
0.0732657
0.0729144
0.0723769
0.0716566
0.0707583
0.0696891
0.0684599
0.0733116
0.0730749
0.0726014
0.0718937
0.0709558
0.069793
0.0684126
0.0668246
0.0650419
0.0630814
0.0730748
0.0728548
0.0724062
0.0717316
0.0708344
0.0697198
0.0683945
0.0668677
0.0651512
0.0632608
0.0726011
0.072406
0.0719907
0.0713575
0.0705097
0.0694519
0.0681904
0.0667337
0.0650928
0.0632821
0.0718931
0.071731
0.0713572
0.0707737
0.0699834
0.0689906
0.0678013
0.0664232
0.0648664
0.0631445
0.0709547
0.0708335
0.070509
0.069983
0.0692581
0.0683384
0.0672293
0.0659379
0.0644736
0.062849
0.0697914
0.0697183
0.0694507
0.0689897
0.0683379
0.0674989
0.0664776
0.0652806
0.0639166
0.0623974
0.0684104
0.0683924
0.0681886
0.0677998
0.0672282
0.066477
0.0655507
0.0644555
0.0631992
0.0617928
0.0668216
0.0668649
0.0667312
0.066421
0.0659362
0.0652794
0.0644549
0.0634682
0.0623264
0.0610397
0.065038
0.0651475
0.0650894
0.0648635
0.0644711
0.0639146
0.0631978
0.0623257
0.0613046
0.0601442
0.0630765
0.0632561
0.0632778
0.0631407
0.0628457
0.0623946
0.0617906
0.0610382
0.0601434
0.0591156
0.0629973
0.0627938
0.0623866
0.0617786
0.0609734
0.0599759
0.0587928
0.0574325
0.0559052
0.0542233
0.0627937
0.0626045
0.0622189
0.0616393
0.0608692
0.0599131
0.0587773
0.0574693
0.0559988
0.0543773
0.0623863
0.0622187
0.0618619
0.0613181
0.0605905
0.0596834
0.0586023
0.0573545
0.0559486
0.0543954
0.061778
0.0616388
0.0613178
0.060817
0.060139
0.0592879
0.0582688
0.0570883
0.0557543
0.054277
0.0609724
0.0608683
0.0605899
0.0601386
0.0595171
0.0587289
0.0577786
0.0566723
0.0554172
0.0540226
0.0599744
0.0599118
0.0596822
0.0592871
0.0587284
0.0580095
0.0571345
0.0561088
0.054939
0.0536338
0.0587908
0.0587753
0.0586006
0.0582675
0.0577776
0.0571339
0.0563401
0.055401
0.0543226
0.0531127
0.0574297
0.0574667
0.0573521
0.0570863
0.0566707
0.0561076
0.0554004
0.0545534
0.0535717
0.0524626
0.0559016
0.0559954
0.0559455
0.0557516
0.0554149
0.0549372
0.0543213
0.053571
0.0526909
0.0516875
0.0542187
0.054373
0.0543914
0.0542734
0.0540195
0.0536312
0.0531107
0.0524612
0.0516868
0.0507941
0.0540702
0.0538945
0.0535431
0.0530182
0.0523229
0.0514611
0.0504381
0.04926
0.0479337
0.0464673
0.0538944
0.0537311
0.0533983
0.0528979
0.0522328
0.0514068
0.0504246
0.0492919
0.0480151
0.0466019
0.0535428
0.0533981
0.0530901
0.0526206
0.0519921
0.0512082
0.0502732
0.0491922
0.0479713
0.0466175
0.0530177
0.0528975
0.0526203
0.0521877
0.051602
0.0508662
0.0499844
0.0489612
0.0478022
0.0465139
0.0523219
0.052232
0.0519915
0.0516016
0.0510644
0.0503825
0.0495596
0.0485999
0.0475084
0.0462912
0.0514597
0.0514056
0.0512072
0.0508654
0.0503821
0.0497596
0.049001
0.0481101
0.0470914
0.0459505
0.0504362
0.0504228
0.0502716
0.0499831
0.0495587
0.0490005
0.0483112
0.047494
0.046553
0.0454932
0.0492574
0.0492894
0.04919
0.0489593
0.0485985
0.0481091
0.0474935
0.0467546
0.0458956
0.0449212
0.0479303
0.048012
0.0479685
0.0477997
0.0475063
0.0470898
0.0465518
0.045895
0.0451219
0.0442371
0.046463
0.0465979
0.0466139
0.0465106
0.0462884
0.0459482
0.0454914
0.04492
0.0442365
0.043445
0.0463414
0.046189
0.0458842
0.0454287
0.0448249
0.0440758
0.0431852
0.0421573
0.0409969
0.0397089
0.0461889
0.0460473
0.0457585
0.0453243
0.0447467
0.0440286
0.0431734
0.0421852
0.0410683
0.0398274
0.045884
0.0457584
0.0454911
0.0450835
0.0445375
0.0438558
0.0430414
0.0420981
0.0410299
0.0398411
0.0454282
0.0453239
0.0450832
0.0447074
0.0441983
0.043558
0.0427896
0.0418962
0.0408815
0.0397498
0.0448241
0.044746
0.0445369
0.044198
0.0437305
0.0431367
0.0424189
0.0415802
0.0406238
0.0395537
0.0440746
0.0440274
0.0438548
0.0435573
0.0431363
0.0425934
0.0419309
0.0411513
0.0402576
0.0392534
0.0431834
0.0431718
0.04304
0.0427884
0.0424181
0.0419304
0.0413274
0.0406111
0.0397841
0.0388498
0.0421549
0.042183
0.0420961
0.0418945
0.0415789
0.0411504
0.0406106
0.0399614
0.0392048
0.038344
0.0409938
0.0410654
0.0410272
0.0408792
0.0406219
0.0402561
0.039783
0.0392043
0.0385215
0.0377377
0.039705
0.0398237
0.0398378
0.0397469
0.0395512
0.0392513
0.0388482
0.0383429
0.0377372
0.0370337
0.0396521
0.0395195
0.0392542
0.0388576
0.0383314
0.0376779
0.0369
0.0360008
0.0349838
0.0338523
0.0395194
0.0393962
0.0391448
0.0387666
0.0382632
0.0376367
0.0368898
0.0360253
0.0350464
0.0339565
0.039254
0.0391446
0.0389119
0.0385567
0.0380807
0.0374858
0.0367744
0.035949
0.0350127
0.0339686
0.0388571
0.0387662
0.0385565
0.0382289
0.0377848
0.0372258
0.0365541
0.0357722
0.0348825
0.0338883
0.0383306
0.0382625
0.0380802
0.0377845
0.0373765
0.0368576
0.0362298
0.0354953
0.0346563
0.0337159
0.0376768
0.0376356
0.0374849
0.0372252
0.0368573
0.0363825
0.0358025
0.0351192
0.0343347
0.0334516
0.0368984
0.0368883
0.0367731
0.0365531
0.0362291
0.0358021
0.0352736
0.0346451
0.0339185
0.0330963
0.0359987
0.0360232
0.0359472
0.0357706
0.0354941
0.0351184
0.0346447
0.0340744
0.0334089
0.0326507
0.034981
0.0350437
0.0350103
0.0348805
0.0346546
0.0343333
0.0339175
0.0334084
0.0328071
0.032116
0.0338488
0.0339532
0.0339656
0.0338856
0.0337136
0.0334497
0.0330948
0.0326497
0.0321155
0.0314945
0.0338678
0.0337522
0.0335209
0.033175
0.0327158
0.0321453
0.0314656
0.0306794
0.0297893
0.0287985
0.0337522
0.0336447
0.0334255
0.0330956
0.0326563
0.0321093
0.0314566
0.0307007
0.0298441
0.0288898
0.0335207
0.0334254
0.0332223
0.0329125
0.032497
0.0319775
0.0313558
0.030634
0.0298146
0.0289004
0.0331746
0.0330953
0.0329123
0.0326264
0.0322386
0.0317503
0.0311633
0.0304793
0.0297007
0.0288301
0.0327151
0.0326557
0.0324966
0.0322384
0.031882
0.0314285
0.0308797
0.0302371
0.0295027
0.0286791
0.0321442
0.0321083
0.0319767
0.0317498
0.0314282
0.0310132
0.0305059
0.0299079
0.029221
0.0284477
0.0314641
0.0314553
0.0313546
0.0311623
0.030879
0.0305055
0.0300431
0.0294929
0.0288566
0.0281364
0.0306774
0.0306989
0.0306324
0.0304779
0.030236
0.0299072
0.0294925
0.0289931
0.0284102
0.0277461
0.0297868
0.0298417
0.0298125
0.0296988
0.0295011
0.0292198
0.0288558
0.0284098
0.0278831
0.0272778
0.0287953
0.0288868
0.0288976
0.0288277
0.028677
0.028446
0.0281351
0.0277453
0.0272774
0.0267337
0.0288727
0.0287719
0.0285702
0.0282685
0.0278679
0.0273701
0.0267769
0.0260905
0.0253136
0.0244489
0.0287719
0.0286782
0.028487
0.0281992
0.027816
0.0273387
0.026769
0.0261092
0.0253614
0.0245285
0.02857
0.0284869
0.0283098
0.0280395
0.027677
0.0272237
0.026681
0.026051
0.0253357
0.0245378
0.0282681
0.0281989
0.0280393
0.0277899
0.0274515
0.0270254
0.0265129
0.0259159
0.0252363
0.0244765
0.0278673
0.0278154
0.0276766
0.0274513
0.0271402
0.0267445
0.0262654
0.0257044
0.0250634
0.0243448
0.0273691
0.0273378
0.0272229
0.0270248
0.0267442
0.0263819