/*--------------------------------*- C++ -*----------------------------------*\
| =========                 |                                                 |
| \\      /  F ield         | foam-extend: Open Source CFD                    |
|  \\    /   O peration     | Version:     3.1                                |
|   \\  /    A nd           | Web:         http://www.extend-project.de       |
|    \\/     M anipulation  |                                                 |
\*---------------------------------------------------------------------------*/
FoamFile
{
    version     2.0;
    format      ascii;
    class       surfaceScalarField;
    location    "0.0014";
    object      phi_0;
}
// * * * * * * * * * * * * * * * * * * * * * * * * * * * * * * * * * * * * * //

dimensions      [0 3 -1 0 0 0 0];

internalField   nonuniform List<scalar> 
45800
(
-1.2893e-10
-1.29404e-10
2.84007e-08
-2.48726e-10
-1.27069e-10
2.79443e-08
-3.57043e-10
-1.21505e-10
2.75288e-08
-4.55591e-10
-1.14845e-10
2.71577e-08
-5.46288e-10
-1.0782e-10
2.68299e-08
-6.30301e-10
-1.00584e-10
2.65433e-08
-7.07966e-10
-9.33518e-11
2.62957e-08
-7.78475e-10
-8.64737e-11
2.60853e-08
-8.39218e-10
-8.05486e-11
2.59107e-08
-7.54917e-11
2.57697e-08
-8.84724e-10
-1.26596e-10
-2.48891e-10
2.79435e-08
-2.46597e-10
-2.47047e-10
2.74872e-08
-3.5691e-10
-2.39593e-10
2.70696e-08
-4.57544e-10
-2.29149e-10
2.66917e-08
-5.49779e-10
-2.17624e-10
2.63538e-08
-6.34762e-10
-2.05773e-10
2.60548e-08
-7.12883e-10
-1.94047e-10
2.57927e-08
-7.83441e-10
-1.83085e-10
2.55657e-08
-8.44253e-10
-1.73747e-10
2.53721e-08
-1.66123e-10
2.52083e-08
-8.88741e-10
-1.21312e-10
-3.5672e-10
2.75281e-08
-2.39121e-10
-3.56867e-10
2.70689e-08
-3.50073e-10
-3.50417e-10
2.66474e-08
-4.5261e-10
-3.39093e-10
2.62621e-08
-5.46626e-10
-3.25249e-10
2.59127e-08
-6.32883e-10
-3.10645e-10
2.55995e-08
-7.11834e-10
-2.9623e-10
2.5321e-08
-7.82853e-10
-2.82802e-10
2.50753e-08
-8.44264e-10
-2.71481e-10
2.48608e-08
-2.62817e-10
2.46742e-08
-8.89777e-10
-1.14913e-10
-4.55084e-10
2.71575e-08
-2.29015e-10
-4.57134e-10
2.66911e-08
-3.38707e-10
-4.52526e-10
2.62614e-08
-4.41852e-10
-4.42161e-10
2.58666e-08
-5.37225e-10
-4.27825e-10
2.55049e-08
-6.24575e-10
-4.1158e-10
2.51759e-08
-7.04099e-10
-3.95242e-10
2.48792e-08
-7.7538e-10
-3.80051e-10
2.46134e-08
-8.37373e-10
-3.67237e-10
2.43771e-08
-3.58169e-10
2.41677e-08
-8.84587e-10
-1.07934e-10
-5.45743e-10
2.683e-08
-2.17767e-10
-5.49282e-10
2.63537e-08
-3.2518e-10
-5.46264e-10
2.59122e-08
-4.27463e-10
-5.3719e-10
2.55043e-08
-5.23052e-10
-5.23423e-10
2.51284e-08
-6.10997e-10
-5.06467e-10
2.47829e-08
-6.90711e-10
-4.88287e-10
2.44665e-08
-7.61746e-10
-4.70963e-10
2.41789e-08
-8.23837e-10
-4.56177e-10
2.39195e-08
-4.46583e-10
2.3687e-08
-8.7259e-10
-1.00686e-10
-6.29754e-10
2.65434e-08
-2.0597e-10
-6.34263e-10
2.60549e-08
-3.10835e-10
-6.32461e-10
2.55994e-08
-4.11547e-10
-6.24311e-10
2.51754e-08
-5.06043e-10
-6.11103e-10
2.47822e-08
-5.93352e-10
-5.93948e-10
2.44186e-08
-6.72494e-10
-5.74022e-10
2.40821e-08
-7.42495e-10
-5.53462e-10
2.37713e-08
-8.03606e-10
-5.34758e-10
2.34868e-08
-5.23183e-10
2.32302e-08
-8.53057e-10
-9.34478e-11
-7.07457e-10
2.62958e-08
-1.94231e-10
-7.12419e-10
2.57929e-08
-2.96493e-10
-7.11438e-10
2.53211e-08
-3.95531e-10
-7.03781e-10
2.48792e-08
-4.88296e-10
-6.90521e-10
2.44659e-08
-5.7338e-10
-6.72679e-10
2.4081e-08
-6.50159e-10
-6.5082e-10
2.3723e-08
-7.17467e-10
-6.25901e-10
2.33885e-08
-7.7569e-10
-6.00002e-10
2.30772e-08
-5.82677e-10
2.27952e-08
-8.24417e-10
-8.65624e-11
-7.78046e-10
2.60855e-08
-1.83256e-10
-7.83051e-10
2.55659e-08
-2.83053e-10
-7.82514e-10
2.50755e-08
-3.80405e-10
-7.75083e-10
2.46136e-08
-4.71334e-10
-7.61451e-10
2.41788e-08
-5.53289e-10
-7.42231e-10
2.37703e-08
-6.25244e-10
-7.17477e-10
2.33873e-08
-6.86259e-10
-6.86612e-10
2.30271e-08
-7.37663e-10
-6.49517e-10
2.26881e-08
-6.18886e-10
2.23792e-08
-7.83263e-10
-8.06235e-11
-8.38903e-10
2.59109e-08
-1.73888e-10
-8.4397e-10
2.53722e-08
-2.71683e-10
-8.4402e-10
2.4861e-08
-3.67498e-10
-8.37157e-10
2.43772e-08
-4.56498e-10
-8.23618e-10
2.39196e-08
-5.3487e-10
-8.03343e-10
2.34866e-08
-5.99767e-10
-7.75474e-10
2.30766e-08
-6.49204e-10
-7.37676e-10
2.26877e-08
-6.85452e-10
-6.85654e-10
2.23186e-08
-6.268e-10
2.19792e-08
-7.21595e-10
-7.55482e-11
2.57699e-08
-8.84524e-10
-1.66227e-10
2.52084e-08
-8.88566e-10
-2.62959e-10
2.46744e-08
-8.89633e-10
-3.58336e-10
2.41678e-08
-8.84465e-10
-4.4675e-10
2.36871e-08
-8.72474e-10
-5.23295e-10
2.32303e-08
-8.5294e-10
-5.82729e-10
2.27952e-08
-8.24314e-10
-6.1884e-10
2.23791e-08
-7.83205e-10
-6.26626e-10
2.19789e-08
-7.21608e-10
2.16037e-08
-6.2627e-10
-6.26353e-10
1.75882e-11
1.71585e-11
2.8366e-08
3.85023e-11
1.85937e-11
2.79048e-08
6.50162e-11
2.19384e-11
2.74803e-08
9.54377e-11
2.54803e-11
2.71018e-08
1.27843e-10
2.86288e-11
2.67689e-08
1.61034e-10
3.12602e-11
2.64788e-08
1.94678e-10
3.32196e-11
2.62288e-08
2.29705e-10
3.43332e-11
2.60159e-08
2.68857e-10
3.45893e-11
2.58369e-08
3.54583e-11
2.5686e-08
3.17075e-10
1.90149e-11
3.83752e-11
2.79033e-08
3.93997e-11
3.90117e-11
2.74464e-08
6.3839e-11
4.30884e-11
2.7024e-08
9.20998e-11
4.86591e-11
2.66402e-08
1.22804e-10
5.40809e-11
2.62976e-08
1.54742e-10
5.86798e-11
2.59954e-08
1.87533e-10
6.20872e-11
2.57311e-08
2.22064e-10
6.39498e-11
2.55016e-08
2.6087e-10
6.44322e-11
2.53034e-08
6.71712e-11
2.51285e-08
3.08907e-10
2.20926e-11
6.5362e-11
2.7479e-08
4.34855e-11
6.39223e-11
2.70226e-08
6.66128e-11
6.63425e-11
2.6601e-08
9.24815e-11
7.17239e-11
2.62131e-08
1.20927e-10
7.80324e-11
2.58603e-08
1.51109e-10
8.3647e-11
2.55443e-08
1.8265e-10
8.77507e-11
2.52638e-08
2.16531e-10
8.99133e-11
2.50155e-08
2.55174e-10
9.03964e-11
2.47962e-08
9.48648e-11
2.45985e-08
3.03249e-10
2.53926e-11
9.59668e-11
2.71015e-08
4.8732e-11
9.25397e-11
2.66391e-08
7.20167e-11
9.26185e-11
2.62118e-08
9.64976e-11
9.62802e-11
2.58175e-08
1.22925e-10
1.02046e-10
2.54545e-08
1.51413e-10
1.07971e-10
2.51231e-08
1.81946e-10
1.12416e-10
2.4824e-08
2.15547e-10
1.14609e-10
2.45551e-08
2.54481e-10
1.15018e-10
2.43135e-08
1.21194e-10
2.40931e-08
3.02752e-10
2.85e-11
1.28414e-10
2.67691e-08
5.38987e-11
1.23333e-10
2.62975e-08
7.80194e-11
1.21338e-10
2.58594e-08
1.02291e-10
1.23038e-10
2.54533e-08
1.27625e-10
1.27372e-10
2.50778e-08
1.5475e-10
1.32867e-10
2.47309e-08
1.84525e-10
1.37653e-10
2.44115e-08
2.18332e-10
1.40166e-10
2.41195e-08
2.58226e-10
1.40733e-10
2.38539e-08
1.48731e-10
2.36104e-08
3.07293e-10
3.11435e-11
1.61611e-10
2.6479e-08
5.84505e-11
1.55279e-10
2.59956e-08
8.33952e-11
1.51588e-10
2.55442e-08
1.07894e-10
1.51759e-10
2.51222e-08
1.3314e-10
1.54756e-10
2.47296e-08
1.59832e-10
1.59389e-10
2.43654e-08
1.89277e-10
1.64365e-10
2.40259e-08
2.23758e-10
1.6784e-10
2.37091e-08
2.65599e-10
1.69497e-10
2.34162e-08
1.79823e-10
2.31481e-08
3.16632e-10
3.31105e-11
1.95222e-10
2.62291e-08
6.18718e-11
1.88043e-10
2.57313e-08
8.74343e-11
1.83114e-10
2.52641e-08
1.1204e-10
1.82361e-10
2.4824e-08
1.37503e-10
1.8484e-10
2.44104e-08
1.64816e-10
1.89242e-10
2.40239e-08
1.94992e-10
1.94525e-10
2.36626e-08
2.30924e-10
1.99404e-10
2.3321e-08
2.75985e-10
2.03448e-10
2.29982e-08
2.1697e-10
2.27032e-08
3.30825e-10
3.42319e-11
2.30174e-10
2.60163e-08
6.37493e-11
2.22508e-10
2.55019e-08
8.96122e-11
2.16949e-10
2.50158e-08
1.14187e-10
2.15955e-10
2.45554e-08
1.39697e-10
2.1877e-10
2.41194e-08
1.67857e-10
2.2419e-10
2.37072e-08
1.99856e-10
2.31103e-10
2.33188e-08
2.3869e-10
2.38534e-10
2.29491e-08
2.88601e-10
2.46078e-10
2.25956e-08
2.63023e-10
2.22716e-08
3.50212e-10
3.44995e-11
2.69222e-10
2.58373e-08
6.42578e-11
2.61216e-10
2.53038e-08
9.01435e-11
2.55508e-10
2.47965e-08
1.1469e-10
2.5482e-10
2.43138e-08
1.40336e-10
2.58597e-10
2.38542e-08
1.6929e-10
2.66038e-10
2.34158e-08
2.03535e-10
2.76387e-10
2.29971e-08
2.46227e-10
2.88762e-10
2.25948e-08
3.02122e-10
3.02066e-10
2.22067e-08
3.21627e-10
2.1847e-08
3.75705e-10
3.53842e-11
2.56864e-08
3.17334e-10
6.70305e-11
2.51289e-08
3.09153e-10
9.46689e-11
2.45987e-08
3.03489e-10
1.20958e-10
2.40933e-08
3.02996e-10
1.48483e-10
2.36106e-08
3.07552e-10
1.79628e-10
2.31483e-08
3.16904e-10
2.16824e-10
2.27033e-08
3.31087e-10
2.62969e-10
2.22713e-08
3.50423e-10
3.21704e-10
2.18464e-08
3.75828e-10
2.14416e-08
4.0271e-10
4.02727e-10
2.11176e-10
2.10833e-10
2.79439e-08
4.18223e-10
2.12705e-10
2.7485e-08
6.23811e-10
2.15852e-10
2.70589e-08
8.2673e-10
2.19202e-10
2.66796e-08
1.02524e-09
2.22264e-10
2.63481e-08
1.21781e-09
2.24833e-10
2.60614e-08
1.40309e-09
2.26631e-10
2.58169e-08
1.57995e-09
2.27319e-10
2.56117e-08
1.74735e-09
2.26781e-10
2.54428e-08
2.27512e-10
2.53034e-08
1.90245e-09
2.1302e-10
4.1816e-10
2.74829e-08
4.20233e-10
4.19955e-10
2.7032e-08
6.24611e-10
4.23976e-10
2.66115e-08
8.26168e-10
4.29254e-10
2.62286e-08
1.02369e-09
4.34391e-10
2.5888e-08
1.21566e-09
4.38699e-10
2.55896e-08
1.40078e-09
4.41588e-10
2.5331e-08
1.578e-09
4.42435e-10
2.51092e-08
1.7463e-09
4.41325e-10
2.49206e-08
4.44638e-10
2.4755e-08
1.90267e-09
2.15916e-10
6.24189e-10
2.7057e-08
4.24213e-10
6.24743e-10
2.66095e-08
6.27663e-10
6.27511e-10
2.6194e-08
8.27214e-10
6.3278e-10
2.58101e-08
1.02268e-09
6.38685e-10
2.54606e-08
1.21296e-09
6.43677e-10
2.51491e-08
1.39678e-09
6.46766e-10
2.48748e-08
1.5733e-09
6.47142e-10
2.46342e-08
1.7417e-09
6.45015e-10
2.44241e-08
6.50644e-10
2.42349e-08
1.89922e-09
2.19073e-10
8.27289e-10
2.66794e-08
4.29191e-10
8.26644e-10
2.62271e-08
6.3288e-10
8.2741e-10
2.58082e-08
8.31264e-10
8.31185e-10
2.54208e-08
1.02477e-09
8.36538e-10
2.50631e-08
1.21315e-09
8.41421e-10
2.47369e-08
1.39559e-09
8.44058e-10
2.44443e-08
1.57138e-09
8.43362e-10
2.41831e-08
1.73975e-09
8.39782e-10
2.39504e-08
8.47343e-10
2.37382e-08
1.89789e-09
2.2211e-10
1.02584e-09
2.63484e-08
4.34134e-10
1.02427e-09
2.58879e-08
6.38497e-10
1.02315e-09
2.54593e-08
8.36554e-10
1.02497e-09
2.50614e-08
1.02883e-09
1.02874e-09
2.46933e-08
1.2154e-09
1.0327e-09
2.4353e-08
1.39628e-09
1.0346e-09
2.40401e-08
1.57134e-09
1.03253e-09
2.37553e-08
1.73983e-09
1.02709e-09
2.34981e-08
1.0361e-09
2.32629e-08
1.89858e-09
2.2469e-10
1.21843e-09
2.60618e-08
4.38417e-10
1.21626e-09
2.55899e-08
6.43314e-10
1.21352e-09
2.51489e-08
8.41123e-10
1.21361e-09
2.47358e-08
1.0327e-09
1.21552e-09
2.43512e-08
1.21808e-09
1.2178e-09
2.39949e-08
1.39742e-09
1.21857e-09
2.36626e-08
1.57159e-09
1.21519e-09
2.33523e-08
1.74055e-09
1.2078e-09
2.30665e-08
1.21771e-09
2.28064e-08
1.90058e-09
2.26495e-10
1.40369e-09
2.58173e-08
4.41319e-10
1.40136e-09
2.53314e-08
6.46367e-10
1.39734e-09
2.48752e-08
8.4354e-10
1.39615e-09
2.44442e-08
1.03416e-09
1.39675e-09
2.40385e-08
1.21866e-09
1.39749e-09
2.36597e-08
1.39696e-09
1.3967e-09
2.33062e-08
1.57035e-09
1.39197e-09
2.29708e-08
1.74032e-09
1.38281e-09
2.26532e-08
1.39272e-09
2.23653e-08
1.90317e-09
2.27192e-10
1.58049e-09
2.56123e-08
4.42184e-10
1.57853e-09
2.51097e-08
6.46768e-10
1.57384e-09
2.46347e-08
8.42852e-10
1.57194e-09
2.41835e-08
1.03191e-09
1.57197e-09
2.37551e-08
1.21486e-09
1.57218e-09
2.33495e-08
1.39203e-09
1.57064e-09
2.29677e-08
1.565e-09
1.56506e-09
2.26031e-08
1.73668e-09
1.55405e-09
2.22526e-08
1.56127e-09
2.19342e-08
1.90548e-09
2.26666e-10
1.7478e-09
2.54433e-08
4.41102e-10
1.74674e-09
2.49211e-08
6.44693e-10
1.74216e-09
2.44246e-08
8.39373e-10
1.74025e-09
2.39508e-08
1.02662e-09
1.74039e-09
2.34985e-08
1.20744e-09
1.74119e-09
2.30659e-08
1.3826e-09
1.74089e-09
2.26517e-08
1.55391e-09
1.73697e-09
2.22515e-08
1.72578e-09
1.72587e-09
2.1863e-08
1.72349e-09
2.1504e-08
1.90656e-09
2.27413e-10
2.5304e-08
1.90279e-09
4.44451e-10
2.47556e-08
1.90301e-09
6.50381e-10
2.42354e-08
1.89959e-09
8.47027e-10
2.37387e-08
1.89829e-09
1.03576e-09
2.32632e-08
1.89901e-09
1.21743e-09
2.28068e-08
1.90102e-09
1.39244e-09
2.23656e-08
1.9036e-09
1.56103e-09
2.19338e-08
1.90583e-09
1.72341e-09
2.15031e-08
1.90678e-09
2.10902e-08
1.89911e-09
1.89922e-09
4.20764e-10
4.20525e-10
2.71027e-08
8.29323e-10
4.22937e-10
2.66535e-08
1.22904e-09
4.26002e-10
2.62331e-08
1.61974e-09
4.29449e-10
2.58595e-08
2.00039e-09
4.32957e-10
2.55345e-08
2.36963e-09
4.36249e-10
2.52559e-08
2.72558e-09
4.3893e-10
2.5022e-08
3.0657e-09
4.40523e-10
2.48311e-08
3.38625e-09
4.40827e-10
2.46814e-08
4.42898e-10
2.45676e-08
3.67916e-09
4.23114e-10
8.29314e-10
2.6651e-08
8.32812e-10
8.3265e-10
2.62126e-08
1.23253e-09
8.37108e-10
2.58007e-08
1.62298e-09
8.42832e-10
2.54248e-08
2.00361e-09
8.48813e-10
2.50915e-08
2.37312e-09
8.54441e-10
2.48019e-08
2.72977e-09
8.58925e-10
2.45544e-08
3.0712e-09
8.61415e-10
2.43469e-08
3.39373e-09
8.61975e-10
2.41769e-08
8.68738e-10
2.40345e-08
3.68842e-09
4.25953e-10
1.22941e-09
2.6231e-08
8.37155e-10
1.23267e-09
2.57982e-08
1.23684e-09
1.23679e-09
2.53947e-08
1.62616e-09
1.24329e-09
2.50203e-08
2.00535e-09
1.25056e-09
2.46796e-08
2.37356e-09
1.25733e-09
2.4378e-08
2.72911e-09
1.26254e-09
2.41157e-08
3.06988e-09
1.26507e-09
2.38898e-08
3.39257e-09
1.26517e-09
2.36982e-08
1.27621e-09
2.35313e-08
3.68876e-09
4.2929e-10
1.62028e-09
2.58592e-08
8.42619e-10
1.62343e-09
2.5423e-08
1.24318e-09
1.62635e-09
2.50181e-08
1.63219e-09
1.6322e-09
2.46428e-08
2.01004e-09
1.63964e-09
2.42962e-08
2.37655e-09
1.64666e-09
2.39811e-08
2.73063e-09
1.65156e-09
2.37012e-08
3.07035e-09
1.65315e-09
2.34553e-08
3.39258e-09
1.65199e-09
2.32414e-08
1.66656e-09
2.30512e-08
3.68928e-09
4.32802e-10
2.00098e-09
2.55349e-08
8.4851e-10
2.00418e-09
2.50914e-08
1.2502e-09
2.00583e-09
2.46781e-08
1.63943e-09
2.01023e-09
2.42941e-08
2.0166e-09
2.0166e-09
2.39392e-08
2.38144e-09
2.02306e-09
2.36118e-08
2.73353e-09
2.02708e-09
2.33125e-08
3.07184e-09
2.02672e-09
2.30434e-08
3.3934e-09
2.02327e-09
2.28053e-08
2.04037e-09
2.25922e-08
3.69028e-09
4.36103e-10
2.37024e-09
2.52564e-08
8.54153e-10
2.37372e-09
2.48023e-08
1.2569e-09
2.37415e-09
2.43779e-08
1.64615e-09
2.37704e-09
2.39797e-08
2.02279e-09
2.38155e-09
2.36097e-08
2.38647e-09
2.38626e-09
2.3268e-08
2.73647e-09
2.38887e-09
2.29508e-08
3.07273e-09
2.38613e-09
2.26566e-08
3.39351e-09
2.37926e-09
2.23897e-08
2.39734e-09
2.2152e-08
3.69102e-09
4.38792e-10
2.72618e-09
2.50226e-08
8.58649e-10
2.73036e-09
2.45549e-08
1.26212e-09
2.72972e-09
2.41161e-08
1.65096e-09
2.73127e-09
2.37012e-08
2.02635e-09
2.73407e-09
2.33106e-08
2.38856e-09
2.73644e-09
2.29473e-08
2.73675e-09
2.73659e-09
2.26103e-08
3.07078e-09
2.7311e-09
2.22918e-08
3.39076e-09
2.71997e-09
2.19925e-08
2.73634e-09
2.17266e-08
3.69044e-09
4.40396e-10
3.06626e-09
2.48318e-08
8.61162e-10
3.07176e-09
2.43476e-08
1.2647e-09
3.07047e-09
2.38904e-08
1.65264e-09
3.071e-09
2.34558e-08
2.02603e-09
3.07259e-09
2.30432e-08
2.3854e-09
3.0733e-09
2.26533e-08
2.73069e-09
3.07096e-09
2.2288e-08
3.06216e-09
3.06234e-09
2.19404e-08
3.38151e-09
3.04575e-09
2.16075e-08
3.05493e-09
2.13103e-08
3.68678e-09
4.40712e-10
3.38674e-09
2.46821e-08
8.61751e-10
3.39422e-09
2.41776e-08
1.26485e-09
3.39311e-09
2.36989e-08
1.65159e-09
3.39317e-09
2.32419e-08
2.02285e-09
3.39405e-09
2.28058e-08
2.37882e-09
3.3942e-09
2.23891e-08
2.71942e-09
3.39133e-09
2.19907e-08
3.04532e-09
3.38177e-09
2.16062e-08
3.36033e-09
3.36047e-09
2.12333e-08
3.34954e-09
2.08922e-08
3.67757e-09
4.42799e-10
2.45684e-08
3.67956e-09
8.68551e-10
2.40352e-08
3.68883e-09
1.27595e-09
2.35319e-08
3.6892e-09
1.66625e-09
2.30518e-08
3.68976e-09
2.04005e-09
2.25927e-08
3.69079e-09
2.39705e-09
2.21525e-08
3.69153e-09
2.736e-09
2.17271e-08
3.69092e-09
3.05453e-09
2.13099e-08
3.68714e-09
3.34929e-09
2.08911e-08
3.67774e-09
2.04898e-08
3.64953e-09
3.64965e-09
6.3081e-10
6.30671e-10
2.58412e-08
1.24181e-09
6.33725e-10
2.54088e-08
1.83756e-09
6.36988e-10
2.50004e-08
2.41968e-09
6.41052e-10
2.46363e-08
2.98874e-09
6.45831e-10
2.43196e-08
3.54461e-09
6.51025e-10
2.4049e-08
4.08621e-09
6.56196e-10
2.38242e-08
4.61127e-09
6.6083e-10
2.36452e-08
5.11552e-09
6.64772e-10
2.35124e-08
6.71866e-10
2.34229e-08
5.58841e-09
6.33763e-10
1.24183e-09
2.54061e-08
1.24706e-09
1.24699e-09
2.4986e-08
1.84422e-09
1.25257e-09
2.4588e-08
2.42733e-09
1.25983e-09
2.42229e-08
2.9974e-09
1.26829e-09
2.3899e-08
3.55435e-09
1.27756e-09
2.36184e-08
4.09726e-09
1.28677e-09
2.33809e-08
4.62407e-09
1.29503e-09
2.31859e-08
5.13049e-09
1.30258e-09
2.30327e-08
1.31955e-09
2.29132e-08
5.60417e-09
6.36831e-10
1.83787e-09
2.49981e-08
1.25243e-09
1.8443e-09
2.45853e-08
1.85092e-09
1.85092e-09
2.41978e-08
2.43425e-09
1.8604e-09
2.38364e-08
3.00385e-09
1.87152e-09
2.35068e-08
3.56015e-09
1.88348e-09
2.32158e-08
4.10225e-09
1.89542e-09
2.29649e-08
4.62829e-09
1.90612e-09
2.27527e-08
5.13441e-09
1.91611e-09
2.25786e-08
1.94215e-09
2.24344e-08
5.60872e-09
6.40887e-10
2.42013e-09
2.46361e-08
1.25949e-09
2.42769e-09
2.4221e-08
1.86012e-09
2.43434e-09
2.38341e-08
2.44464e-09
2.44468e-09
2.3474e-08
3.01413e-09
2.45757e-09
2.31406e-08
3.56941e-09
2.47124e-09
2.28381e-08
4.11029e-09
2.4844e-09
2.25713e-08
4.63505e-09
2.49607e-09
2.23406e-08
5.14001e-09
2.50721e-09
2.21453e-08
2.54109e-09
2.19784e-08
5.61383e-09
6.45706e-10
2.98925e-09
2.43201e-08
1.26799e-09
2.9979e-09
2.38989e-08
1.87103e-09
3.00423e-09
2.35052e-08
2.45718e-09
3.0142e-09
2.31385e-08
3.0274e-09
3.02738e-09
2.27991e-08
3.58187e-09
3.04197e-09
2.24866e-08
4.12088e-09
3.05546e-09
2.22024e-08
4.64387e-09
3.06631e-09
2.19502e-08
5.14738e-09
3.0768e-09
2.17322e-08
3.11684e-09
2.15434e-08
5.6204e-09
6.50907e-10
3.54514e-09
2.40496e-08
1.27732e-09
3.55488e-09
2.36189e-08
1.88306e-09
3.56068e-09
2.32157e-08
2.47057e-09
3.56981e-09
2.28366e-08
3.0415e-09
3.58181e-09
2.24843e-08
3.59591e-09
3.59562e-09
2.216e-08
4.13313e-09
3.6088e-09
2.18603e-08
4.65347e-09
3.6178e-09
2.15848e-08
5.15519e-09
3.62532e-09
2.13395e-08
3.66881e-09
2.11273e-08
5.6279e-09
6.56086e-10
4.08675e-09
2.38249e-08
1.28655e-09
4.0978e-09
2.33815e-08
1.89508e-09
4.10281e-09
2.29655e-08
2.48381e-09
4.1109e-09
2.25714e-08
3.0545e-09
4.12132e-09
2.22004e-08
3.60815e-09
4.1328e-09
2.18565e-08
4.14404e-09
4.14381e-09
2.15394e-08
4.66161e-09
4.15023e-09
2.12418e-08
5.16112e-09
4.15279e-09
2.09655e-08
4.19501e-09
2.07264e-08
5.63518e-09
6.60733e-10
4.61179e-09
2.3646e-08
1.29484e-09
4.62459e-09
2.31867e-08
1.90584e-09
4.62884e-09
2.27534e-08
2.4957e-09
4.63566e-09
2.23412e-08
3.06566e-09
4.64458e-09
2.195e-08
3.61672e-09
4.65382e-09
2.15812e-08
4.1494e-09
4.66142e-09
2.12377e-08
4.66353e-09
4.66365e-09
2.09128e-08
5.1607e-09
4.65873e-09
2.06044e-08
4.69127e-09
2.0335e-08
5.63981e-09
6.64688e-10
5.11599e-09
2.35133e-08
1.30241e-09
5.13097e-09
2.30335e-08
1.91588e-09
5.13492e-09
2.25793e-08
2.50695e-09
5.14056e-09
2.2146e-08
3.07658e-09
5.14797e-09
2.17328e-08
3.6249e-09
5.15574e-09
2.13388e-08
4.15195e-09
5.16146e-09
2.09636e-08
4.65808e-09
5.16071e-09
2.0603e-08
5.14733e-09
5.14738e-09
2.02554e-08
5.15099e-09
1.99419e-08
5.63791e-09
6.71801e-10
2.34238e-08
5.58881e-09
1.31943e-09
2.2914e-08
5.60457e-09
1.94199e-09
2.24351e-08
5.60915e-09
2.5409e-09
2.19791e-08
5.61428e-09
3.11667e-09
2.15441e-08
5.62086e-09
3.66865e-09
2.11279e-08
5.62833e-09
4.19473e-09
2.07269e-08
5.63555e-09
4.69078e-09
2.03345e-08
5.64003e-09
5.15064e-09
1.99407e-08
5.63788e-09
1.95657e-08
5.61287e-09
5.61289e-09
8.27073e-10
8.27019e-10
2.41871e-08
1.62797e-09
8.30825e-10
2.37771e-08
2.409e-09
8.34702e-10
2.33847e-08
3.17438e-09
8.40064e-10
2.30309e-08
3.92724e-09
8.4711e-10
2.27197e-08
4.66986e-09
8.55587e-10
2.24508e-08
5.4035e-09
8.65112e-10
2.22254e-08
6.12806e-09
8.75262e-10
2.20454e-08
6.84114e-09
8.86052e-10
2.19132e-08
9.02254e-10
2.18292e-08
7.53256e-09
8.30743e-10
1.62797e-09
2.37744e-08
1.63517e-09
1.63516e-09
2.33772e-08
2.41909e-09
1.64267e-09
2.29961e-08
3.18669e-09
1.65279e-09
2.26426e-08
3.94146e-09
1.66566e-09
2.23256e-08
4.68568e-09
1.68124e-09
2.20486e-08
5.4207e-09
1.69877e-09
2.18122e-08
6.14657e-09
1.7175e-09
2.16178e-08
6.86068e-09
1.73803e-09
2.14666e-08
1.77253e-09
2.13535e-08
7.5501e-09
8.34459e-10
2.40919e-09
2.33824e-08
1.6424e-09
2.41905e-09
2.29935e-08
2.42936e-09
2.42935e-09
2.26242e-08
3.19884e-09
2.44376e-09
2.22759e-08
3.95437e-09
2.46155e-09
2.19554e-08
4.69873e-09
2.4826e-09
2.167e-08
5.43319e-09
2.50647e-09
2.14228e-08
6.1578e-09
2.53212e-09
2.12135e-08
6.87035e-09
2.5605e-09
2.10436e-08
2.61172e-09
2.09075e-08
7.55804e-09
8.39918e-10
3.17468e-09
2.30307e-08
1.65237e-09
3.18688e-09
2.26407e-08
2.44336e-09
3.19876e-09
2.22737e-08
3.21614e-09
3.21611e-09
2.19289e-08
3.97331e-09
3.23814e-09
2.16069e-08
4.71775e-09
3.26354e-09
2.13127e-08
5.4515e-09
3.29171e-09
2.10523e-08
6.1746e-09
3.32221e-09
2.08274e-08
6.88485e-09
3.35649e-09
2.06391e-08
3.42249e-09
2.04826e-08
7.56991e-09
8.47041e-10
3.92758e-09
2.27201e-08
1.66542e-09
3.9418e-09
2.23257e-08
2.461e-09
3.95456e-09
2.19538e-08
3.23767e-09
3.97316e-09
2.16048e-08
3.99779e-09
3.99765e-09
2.12795e-08
4.74304e-09
4.02659e-09
2.09783e-08
5.47561e-09
4.0578e-09
2.07037e-08
6.1969e-09
4.09045e-09
2.04607e-08
6.90482e-09
4.12795e-09
2.02528e-08
4.20628e-09
2.00772e-08
7.58725e-09
8.55524e-10
4.67023e-09
2.24514e-08
1.68112e-09
4.68604e-09
2.20491e-08
2.48227e-09
4.69909e-09
2.167e-08
3.26282e-09
4.71795e-09
2.13112e-08
4.02603e-09
4.74269e-09
2.0976e-08
4.77338e-09
4.77288e-09
2.06663e-08
5.50539e-09
4.80631e-09
2.03797e-08
6.22407e-09
4.83947e-09
2.01171e-08
6.92937e-09
4.87655e-09
1.98856e-08
4.96324e-09
1.96897e-08
7.61001e-09
8.65058e-10
5.40388e-09
2.22262e-08
1.69865e-09
5.42109e-09
2.18129e-08
2.50628e-09
5.43359e-09
2.14233e-08
3.29124e-09
5.45195e-09
2.10524e-08
4.05672e-09
5.47582e-09
2.07018e-08
4.80545e-09
5.50459e-09
2.0376e-08
5.53789e-09
5.53744e-09
2.00758e-08
6.25428e-09
5.56991e-09
1.9795e-08
6.95643e-09
5.6034e-09
1.95365e-08
5.6917e-09
1.93171e-08
7.6372e-09
8.75223e-10
6.12844e-09
2.20463e-08
1.71743e-09
6.14696e-09
2.16186e-08
2.53201e-09
6.15821e-09
2.12142e-08
3.32207e-09
6.17505e-09
2.0828e-08
4.08996e-09
6.19742e-09
2.04605e-08
4.83813e-09
6.22403e-09
2.01136e-08
5.56878e-09
6.25354e-09
1.9791e-08
6.28229e-09
6.28221e-09
1.9487e-08
6.98124e-09
6.30817e-09
1.92007e-08
6.38698e-09
1.89548e-08
7.66615e-09
8.86027e-10
6.84151e-09
2.19142e-08
1.73799e-09
6.86104e-09
2.14675e-08
2.56045e-09
6.87072e-09
2.10444e-08
3.35646e-09
6.88524e-09
2.06398e-08
4.12804e-09
6.90519e-09
2.02534e-08
4.87628e-09
6.92963e-09
1.9885e-08
5.60239e-09
6.95639e-09
1.95347e-08
6.30741e-09
6.98086e-09
1.91993e-08
6.9964e-09
6.99622e-09
1.88783e-08
7.0406e-09
1.85926e-08
7.69205e-09
9.0225e-10
2.18301e-08
7.53288e-09
1.77253e-09
2.13543e-08
7.55042e-09
2.61173e-09
2.09083e-08
7.55836e-09
3.42253e-09
2.04834e-08
7.57022e-09
4.20636e-09
2.00779e-08
7.58754e-09
4.96333e-09
1.96903e-08
7.61022e-09
5.6916e-09
1.93177e-08
7.63734e-09
6.3865e-09
1.89544e-08
7.66611e-09
7.04024e-09
1.85915e-08
7.69171e-09
1.8249e-08
7.69887e-09
7.69872e-09
9.93254e-10
9.93271e-10
2.22006e-08
1.95562e-09
9.97847e-10
2.18169e-08
2.8956e-09
1.00263e-09
2.14421e-08
3.8204e-09
1.00975e-09
2.10963e-08
4.73629e-09
1.01971e-09
2.07841e-08
5.6489e-09
1.03238e-09
2.05059e-08
6.56314e-09
1.04752e-09
2.02637e-08
7.48291e-09
1.06495e-09
2.00607e-08
8.41016e-09
1.085e-09
1.9901e-08
1.11338e-09
1.97875e-08
9.33851e-09
9.97667e-10
1.95558e-09
2.18144e-08
1.9647e-09
1.96472e-09
2.14433e-08
2.90886e-09
1.97465e-09
2.10799e-08
3.83692e-09
1.9885e-09
2.07357e-08
4.75535e-09
2.00704e-09
2.04199e-08
5.66966e-09
2.03067e-09
2.0136e-08
6.58473e-09
2.05892e-09
1.98857e-08
7.50441e-09
2.09147e-09
1.96716e-08
8.43017e-09
2.1294e-09
1.94964e-08
2.18665e-09
1.93581e-08
9.35221e-09
1.00234e-09
2.89563e-09
2.144e-08
1.97428e-09
2.90868e-09
2.10776e-08
2.92331e-09
2.92324e-09
2.07266e-08
3.85494e-09
2.94372e-09
2.03891e-08
4.7754e-09
2.96999e-09
2.0072e-08
5.69061e-09
3.00268e-09
1.97828e-08
6.60521e-09
3.04199e-09
1.95251e-08
7.52279e-09
3.08737e-09
1.93e-08
8.44502e-09
3.14038e-09
1.91104e-08
3.22387e-09
1.89536e-08
9.36169e-09
1.00965e-09
3.82048e-09
2.10961e-08
1.98806e-09
3.83689e-09
2.07341e-08
2.9433e-09
3.85464e-09
2.0387e-08
3.88057e-09
3.8804e-09
2.00549e-08
4.80465e-09
3.91383e-09
1.9739e-08
5.72132e-09
3.95429e-09
1.94444e-08
6.63588e-09
4.00209e-09
1.91776e-08
7.55173e-09
4.05762e-09
1.89413e-08
8.47024e-09
4.123e-09
1.87379e-08
4.22995e-09
1.85655e-08
9.38125e-09
1.01972e-09
4.73641e-09
2.07845e-08
2.0069e-09
4.75546e-09
2.04199e-08
2.96947e-09
4.77533e-09
2.00706e-08
3.91338e-09
4.80422e-09
1.9737e-08
4.84311e-09
4.84277e-09
1.94208e-08
5.76269e-09
4.89013e-09
1.91229e-08
6.67729e-09
4.9448e-09
1.88464e-08
7.59164e-09
5.00697e-09
1.8597e-08
8.50701e-09
5.08117e-09
1.83792e-08
5.20834e-09
1.81927e-08
9.41308e-09
1.03239e-09
5.64904e-09
2.05064e-08
2.03069e-09
5.66979e-09
2.01365e-08
3.0025e-09
5.69073e-09
1.97828e-08
3.95363e-09
5.72124e-09
1.94431e-08
4.88959e-09
5.762e-09
1.91209e-08
5.8142e-09
5.81342e-09
1.88184e-08
6.73025e-09
5.87392e-09
1.85346e-08
7.64279e-09
5.9405e-09
1.8271e-08
8.55517e-09
6.01876e-09
1.80356e-08
6.16113e-09
1.78344e-08
9.45772e-09
1.04754e-09
6.5633e-09
2.02644e-08
2.05896e-09
6.58489e-09
1.98864e-08
3.042e-09
6.60538e-09
1.95257e-08
4.00182e-09
6.63609e-09
1.91777e-08
4.94374e-09
6.67719e-09
1.88447e-08
5.87299e-09
6.72897e-09
1.85312e-08
6.79236e-09
6.79162e-09
1.82387e-08
7.70417e-09
6.86097e-09
1.79627e-08
8.61331e-09
6.93907e-09
1.77071e-08
7.08832e-09
1.74885e-08
9.51477e-09
1.06499e-09
7.48309e-09
2.00615e-08
2.09154e-09
7.50459e-09
1.96723e-08
3.08747e-09
7.52297e-09
1.93007e-08
4.05776e-09
7.55192e-09
1.89419e-08
5.00672e-09
7.59189e-09
1.85968e-08
5.93908e-09
7.6423e-09
1.82679e-08
6.85968e-09
7.70287e-09
1.79591e-08
7.77076e-09
7.77041e-09
1.76665e-08
8.67712e-09
7.84325e-09
1.73902e-08
7.98646e-09
1.71518e-08
9.58193e-09
1.08505e-09
8.41035e-09
1.99018e-08
2.1295e-09
8.43036e-09
1.94972e-08
3.14054e-09
8.4452e-09
1.91111e-08
4.12324e-09
8.4704e-09
1.87386e-08
5.08161e-09
8.5071e-09
1.83798e-08
6.01871e-09
8.55508e-09
1.80351e-08
6.938e-09
8.61284e-09
1.77054e-08
7.84249e-09
8.67633e-09
1.73889e-08
8.73916e-09
8.73873e-09
1.70862e-08
8.84699e-09
1.68169e-08
9.65437e-09
1.11345e-09
1.97883e-08
9.33869e-09
2.18679e-09
1.93589e-08
9.35239e-09
3.22408e-09
1.89543e-08
9.36184e-09
4.23024e-09
1.85662e-08
9.38137e-09
5.20872e-09
1.81934e-08
9.41312e-09
6.16152e-09
1.78349e-08
9.45766e-09
7.08844e-09
1.7489e-08
9.51463e-09
7.98605e-09
1.71515e-08
9.5816e-09
8.84667e-09
1.68159e-08
9.65372e-09
1.65006e-08
9.72121e-09
9.72087e-09
1.11349e-09
1.11354e-09
1.99735e-08
2.19321e-09
1.11868e-09
1.96185e-08
3.24962e-09
1.12435e-09
1.92613e-08
4.29266e-09
1.13315e-09
1.89201e-08
5.3317e-09
1.14585e-09
1.85992e-08
6.37592e-09
1.16248e-09
1.82992e-08
7.43443e-09
1.18307e-09
1.80221e-08
8.51628e-09
1.20777e-09
1.7771e-08
9.62966e-09
1.23739e-09
1.75502e-08
1.27839e-09
1.73633e-08
1.07755e-08
1.11846e-09
2.19311e-09
1.96164e-08
2.20366e-09
2.20367e-09
1.92731e-08
3.26515e-09
2.21576e-09
1.8927e-08
4.31212e-09
2.23308e-09
1.85888e-08
5.35395e-09
2.25696e-09
1.8267e-08
6.39957e-09
2.28823e-09
1.79646e-08
7.45788e-09
2.32689e-09
1.76836e-08
8.53759e-09
2.37322e-09
1.74264e-08
9.64615e-09
2.42899e-09
1.71962e-08
2.50928e-09
1.69927e-08
1.07807e-08
1.12405e-09
3.24948e-09
1.92596e-08
2.21538e-09
3.26484e-09
1.89251e-08
3.28321e-09
3.28306e-09
1.85914e-08
4.33513e-09
3.30904e-09
1.82612e-08
5.38004e-09
3.34324e-09
1.79408e-08
6.42715e-09
3.38705e-09
1.76369e-08
7.48492e-09
3.44138e-09
1.73528e-08
8.56154e-09
3.50648e-09
1.70901e-08
9.66435e-09
3.5847e-09
1.68518e-08
3.70048e-09
1.66373e-08
1.07894e-08
1.1331e-09
4.29254e-09
1.892e-08
2.23268e-09
4.31188e-09
1.85875e-08
3.30865e-09
4.33464e-09
1.82595e-08
4.36823e-09
4.36794e-09
1.79365e-08
5.41856e-09
4.41197e-09
1.76199e-08
6.46845e-09
4.46688e-09
1.73147e-08
7.52693e-09
4.53398e-09
1.70266e-08
8.60169e-09
4.6147e-09
1.67584e-08
9.69947e-09
4.71199e-09
1.65128e-08
4.85974e-09
1.629e-08
1.08157e-08
1.14592e-09
5.3316e-09
1.85995e-08
2.25691e-09
5.35384e-09
1.82669e-08
3.3428e-09
5.37974e-09
1.79396e-08
4.41159e-09
5.4179e-09
1.76183e-08
5.47008e-09
5.46957e-09
1.73047e-08
6.52503e-09
5.53466e-09
1.70001e-08
7.58502e-09
5.61264e-09
1.67078e-08
8.65899e-09
5.70496e-09
1.64327e-08
9.7532e-09
5.81722e-09
1.61798e-08
5.99315e-09
1.59501e-08
1.08624e-08
1.16255e-09
6.37583e-09
1.82996e-08
2.28837e-09
6.39947e-09
1.7965e-08
3.38701e-09
6.42703e-09
1.76369e-08
4.46632e-09
6.46813e-09
1.73136e-08
5.53421e-09
6.52407e-09
1.69985e-08
6.59717e-09
6.59619e-09
1.6694e-08
7.66104e-09
6.68386e-09
1.63995e-08
8.73467e-09
6.78519e-09
1.61172e-08
9.82623e-09
6.90696e-09
1.58543e-08
7.10554e-09
1.56176e-08
1.09307e-08
1.18315e-09
7.43437e-09
1.80227e-08
2.32704e-09
7.45782e-09
1.76841e-08
3.44156e-09
7.48486e-09
1.73533e-08
4.53389e-09
7.52689e-09
1.70266e-08
5.61168e-09
7.58466e-09
1.67063e-08
6.68295e-09
7.65941e-09
1.63967e-08
7.7535e-09
7.75256e-09
1.60995e-08
8.82886e-09
7.86095e-09
1.58116e-08
9.91825e-09
7.98751e-09
1.55371e-08
8.19977e-09
1.52915e-08
1.1021e-08
1.20787e-09
8.51626e-09
1.77717e-08
2.3734e-09
8.53756e-09
1.74271e-08
3.50675e-09
8.5615e-09
1.70907e-08
4.61506e-09
8.60165e-09
1.67589e-08
5.70493e-09
8.65897e-09
1.64326e-08
6.78379e-09
8.73383e-09
1.61146e-08
7.85965e-09
8.82718e-09
1.58086e-08
8.9377e-09
8.93715e-09
1.55122e-08
1.00263e-08
9.06278e-09
1.52263e-08
9.27542e-09
1.49701e-08
1.11324e-08
1.23749e-09
9.62967e-09
1.75509e-08
2.4292e-09
9.64615e-09
1.71969e-08
3.58502e-09
9.66432e-09
1.68525e-08
4.71245e-09
9.6994e-09
1.65134e-08
5.81792e-09
9.75303e-09
1.61803e-08
6.90711e-09
9.82584e-09
1.58539e-08
7.98648e-09
9.91746e-09
1.55358e-08
9.06207e-09
1.00252e-08
1.52253e-08
1.01439e-08
1.01433e-08
1.49238e-08
1.03263e-08
1.46488e-08
1.12611e-08
1.27851e-09
1.7364e-08
1.07755e-08
2.50952e-09
1.69934e-08
1.07807e-08
3.70083e-09
1.6638e-08
1.07894e-08
4.86021e-09
1.62906e-08
1.08157e-08
5.99374e-09
1.59507e-08
1.08622e-08
7.10613e-09
1.5618e-08
1.09304e-08
8.20005e-09
1.52918e-08
1.10207e-08
9.27509e-09
1.49698e-08
1.11318e-08
1.0326e-08
1.4648e-08
1.12602e-08
1.43423e-08
1.14056e-08
1.14051e-08
1.17588e-09
1.17592e-09
1.76217e-08
2.31678e-09
1.18121e-09
1.72964e-08
3.43406e-09
1.1873e-09
1.69567e-08
4.53934e-09
1.197e-09
1.66179e-08
5.64411e-09
1.2112e-09
1.62832e-08
6.76016e-09
1.23011e-09
1.5953e-08
7.90007e-09
1.25404e-09
1.56282e-08
9.07745e-09
1.28351e-09
1.53101e-08
1.03067e-08
1.3198e-09
1.50011e-08
1.36977e-09
1.47026e-08
1.15976e-08
1.18101e-09
2.31661e-09
1.72947e-08
2.32769e-09
2.32765e-09