/*--------------------------------*- C++ -*----------------------------------*\
| =========                 |                                                 |
| \\      /  F ield         | foam-extend: Open Source CFD                    |
|  \\    /   O peration     | Version:     3.1                                |
|   \\  /    A nd           | Web:         http://www.extend-project.de       |
|    \\/     M anipulation  |                                                 |
\*---------------------------------------------------------------------------*/
FoamFile
{
    version     2.0;
    format      ascii;
    class       surfaceVectorField;
    location    "0.0014";
    object      Sf_0;
}
// * * * * * * * * * * * * * * * * * * * * * * * * * * * * * * * * * * * * * //

dimensions      [0 2 0 0 0 0 0];

internalField   nonuniform List<vector> 
45800
(
(2.10836e-07 3.68023e-09 -7.94114e-10)
(3.67965e-09 2.10834e-07 -7.96053e-10)
(-1.22303e-11 -1.21673e-11 1.16144e-07)
(2.07176e-07 7.3554e-09 -1.53645e-09)
(3.69622e-09 2.10838e-07 -7.89903e-10)
(-3.59202e-11 -1.27911e-11 1.14085e-07)
(2.03533e-07 1.10286e-08 -2.21497e-09)
(3.70102e-09 2.10853e-07 -7.72493e-10)
(-5.86158e-11 -1.40605e-11 1.12003e-07)
(1.99913e-07 1.47054e-08 -2.83402e-09)
(3.70154e-09 2.10892e-07 -7.5279e-10)
(-8.15707e-11 -1.6149e-11 1.09923e-07)
(1.96317e-07 1.83879e-08 -3.39935e-09)
(3.70198e-09 2.1096e-07 -7.33679e-10)
(-1.05937e-10 -1.92312e-11 1.0785e-07)
(1.92748e-07 2.20779e-08 -3.91427e-09)
(3.70237e-09 2.11059e-07 -7.15784e-10)
(-1.3264e-10 -2.34786e-11 1.05781e-07)
(1.89208e-07 2.57778e-08 -4.37977e-09)
(3.70239e-09 2.11191e-07 -6.99908e-10)
(-1.62533e-10 -2.91386e-11 1.03715e-07)
(1.85702e-07 2.94901e-08 -4.79405e-09)
(3.70198e-09 2.11356e-07 -6.87098e-10)
(-1.96034e-10 -3.64173e-11 1.01651e-07)
(1.82234e-07 3.32183e-08 -5.15201e-09)
(3.70104e-09 2.11557e-07 -6.78499e-10)
(-2.33047e-10 -4.51318e-11 9.9585e-08)
(3.71163e-09 2.11795e-07 -6.69267e-10)
(-2.75024e-10 -5.26742e-11 9.75128e-08)
(1.78797e-07 3.69705e-08 -5.44766e-09)
(2.10837e-07 3.69562e-09 -7.8797e-10)
(7.3543e-09 2.07174e-07 -1.53712e-09)
(-1.28305e-11 -3.58331e-11 1.14082e-07)
(2.0719e-07 7.38137e-09 -1.53336e-09)
(7.38021e-09 2.07189e-07 -1.53518e-09)
(-3.60891e-11 -3.59845e-11 1.12043e-07)
(2.03554e-07 1.10586e-08 -2.2222e-09)
(7.39478e-09 2.07212e-07 -1.51272e-09)
(-5.8577e-11 -3.65153e-11 1.09981e-07)
(1.99937e-07 1.4736e-08 -2.85248e-09)
(7.39999e-09 2.07252e-07 -1.4811e-09)
(-8.13619e-11 -3.76588e-11 1.0791e-07)
(1.96343e-07 1.84194e-08 -3.42764e-09)
(7.40158e-09 2.07317e-07 -1.44799e-09)
(-1.05536e-10 -3.95815e-11 1.0584e-07)
(1.92775e-07 2.21105e-08 -3.95107e-09)
(7.4029e-09 2.07411e-07 -1.4165e-09)
(-1.31987e-10 -4.24935e-11 1.03774e-07)
(1.89235e-07 2.58117e-08 -4.42392e-09)
(7.40323e-09 2.07536e-07 -1.3884e-09)
(-1.61489e-10 -4.6551e-11 1.0171e-07)
(1.85728e-07 2.95264e-08 -4.84432e-09)
(7.403e-09 2.07693e-07 -1.36569e-09)
(-1.9417e-10 -5.15631e-11 9.96475e-08)
(1.82256e-07 3.32575e-08 -5.20725e-09)
(7.40277e-09 2.07882e-07 -1.34985e-09)
(-2.29561e-10 -5.68839e-11 9.75822e-08)
(7.42722e-09 2.08108e-07 -1.32992e-09)
(-2.66169e-10 -6.04982e-11 9.55045e-08)
(1.78807e-07 3.70056e-08 -5.50382e-09)
(2.10851e-07 3.69942e-09 -7.71692e-10)
(1.10281e-08 2.03533e-07 -2.21365e-09)
(-1.40547e-11 -5.86053e-11 1.12e-07)
(2.07211e-07 7.39372e-09 -1.51079e-09)
(1.10568e-08 2.03553e-07 -2.22201e-09)
(-3.65749e-11 -5.85006e-11 1.09977e-07)
(2.03585e-07 1.10805e-08 -2.2042e-09)
(1.10792e-08 2.03584e-07 -2.20559e-09)
(-5.86344e-11 -5.85207e-11 1.07937e-07)
(1.99973e-07 1.47627e-08 -2.8443e-09)
(1.10931e-08 2.03629e-07 -2.17263e-09)
(-8.10579e-11 -5.89448e-11 1.05882e-07)
(1.9638e-07 1.84478e-08 -3.42929e-09)
(1.1099e-08 2.03691e-07 -2.13255e-09)
(-1.0484e-10 -5.99616e-11 1.03819e-07)
(1.92813e-07 2.21409e-08 -3.9611e-09)
(1.11014e-08 2.03779e-07 -2.09262e-09)
(-1.30878e-10 -6.17791e-11 1.01757e-07)
(1.89273e-07 2.58442e-08 -4.44084e-09)
(1.11029e-08 2.03897e-07 -2.05667e-09)
(-1.59749e-10 -6.45664e-11 9.96965e-08)
(1.85763e-07 2.9561e-08 -4.86622e-09)
(1.11038e-08 2.04044e-07 -2.02714e-09)
(-1.91202e-10 -6.81343e-11 9.76347e-08)
(1.82286e-07 3.32935e-08 -5.23259e-09)
(1.11048e-08 2.04222e-07 -2.00597e-09)
(-2.24674e-10 -7.20656e-11 9.55698e-08)
(1.11443e-08 2.04436e-07 -1.97628e-09)
(-2.5692e-10 -7.43663e-11 9.34926e-08)
(1.78825e-07 3.70393e-08 -5.53208e-09)
(2.10891e-07 3.70113e-09 -7.53051e-10)
(1.47054e-08 1.99914e-07 -2.83197e-09)
(-1.61229e-11 -8.16291e-11 1.09923e-07)
(2.0725e-07 7.3983e-09 -1.48054e-09)
(1.47353e-08 1.99937e-07 -2.85082e-09)
(-3.76538e-11 -8.1394e-11 1.07907e-07)
(2.03627e-07 1.10921e-08 -2.17105e-09)
(1.47608e-08 1.99971e-07 -2.84396e-09)
(-5.9006e-11 -8.10143e-11 1.05879e-07)
(2.0002e-07 1.47825e-08 -2.81581e-09)
(1.47813e-08 2.00019e-07 -2.81705e-09)
(-8.09111e-11 -8.08205e-11 1.03839e-07)
(1.96429e-07 1.84721e-08 -3.40895e-09)
(1.47948e-08 2.00083e-07 -2.77725e-09)
(-1.04156e-10 -8.10898e-11 1.01787e-07)
(1.92859e-07 2.21672e-08 -3.94837e-09)
(1.4801e-08 2.00166e-07 -2.73309e-09)
(-1.29627e-10 -8.20312e-11 9.97284e-08)
(1.89316e-07 2.58731e-08 -4.43387e-09)
(1.48033e-08 2.00275e-07 -2.69203e-09)
(-1.57826e-10 -8.38811e-11 9.76688e-08)
(1.85803e-07 2.95921e-08 -4.86306e-09)
(1.48055e-08 2.00412e-07 -2.65818e-09)
(-1.88268e-10 -8.67262e-11 9.56076e-08)
(1.82319e-07 3.33263e-08 -5.23185e-09)
(1.48083e-08 2.00578e-07 -2.63344e-09)
(-2.2039e-10 -9.04802e-11 9.3543e-08)
(1.48625e-08 2.00783e-07 -2.59553e-09)
(-2.48663e-10 -9.24977e-11 9.14684e-08)
(1.7885e-07 3.70717e-08 -5.53492e-09)
(2.1096e-07 3.70203e-09 -7.34126e-10)
(1.83878e-08 1.96318e-07 -3.39715e-09)
(-1.9215e-11 -1.0602e-10 1.0785e-07)
(2.07316e-07 7.40109e-09 -1.44854e-09)
(1.84191e-08 1.96344e-07 -3.42564e-09)
(-3.95487e-11 -1.05617e-10 1.0584e-07)
(2.0369e-07 1.10974e-08 -2.13224e-09)
(1.84469e-08 1.9638e-07 -3.42785e-09)
(-5.99313e-11 -1.0487e-10 1.03817e-07)
(2.00082e-07 1.47938e-08 -2.77578e-09)
(1.84701e-08 1.96427e-07 -3.4088e-09)
(-8.11303e-11 -1.04099e-10 1.01784e-07)
(1.96491e-07 1.84908e-08 -3.37262e-09)
(1.84893e-08 1.9649e-07 -3.37408e-09)
(-1.03771e-10 -1.03674e-10 9.97422e-08)
(1.92918e-07 2.21898e-08 -3.91797e-09)
(1.85025e-08 1.96571e-07 -3.33025e-09)
(-1.28679e-10 -1.03969e-10 9.76904e-08)
(1.89369e-07 2.58972e-08 -4.40812e-09)
(1.85084e-08 1.96673e-07 -3.28566e-09)
(-1.56216e-10 -1.05193e-10 9.56311e-08)
(1.8585e-07 2.96188e-08 -4.83954e-09)
(1.85105e-08 1.96798e-07 -3.24789e-09)
(-1.86043e-10 -1.07564e-10 9.35678e-08)
(1.82361e-07 3.33563e-08 -5.20894e-09)
(1.85149e-08 1.96952e-07 -3.22037e-09)
(-2.17475e-10 -1.11336e-10 9.15024e-08)
(1.85818e-08 1.97149e-07 -3.1761e-09)
(-2.41737e-10 -1.13005e-10 8.94318e-08)
(1.78884e-07 3.71037e-08 -5.51463e-09)
(2.11059e-07 3.70241e-09 -7.16179e-10)
(2.20779e-08 1.92748e-07 -3.91208e-09)
(-2.34696e-11 -1.32714e-10 1.05781e-07)
(2.07411e-07 7.40298e-09 -1.41727e-09)
(2.21103e-08 1.92775e-07 -3.94909e-09)
(-4.2454e-11 -1.32059e-10 1.03774e-07)
(2.03779e-07 1.11009e-08 -2.09335e-09)
(2.21405e-08 1.92813e-07 -3.95944e-09)
(-6.17078e-11 -1.30944e-10 1.01757e-07)
(2.00165e-07 1.47992e-08 -2.73293e-09)
(2.21662e-08 1.92858e-07 -3.94734e-09)
(-8.20122e-11 -1.29671e-10 9.97266e-08)
(1.96571e-07 1.85013e-08 -3.32857e-09)
(2.21875e-08 1.92916e-07 -3.91836e-09)
(-1.03998e-10 -1.28638e-10 9.76878e-08)
(1.92996e-07 2.22078e-08 -3.87578e-09)
(2.22057e-08 1.92993e-07 -3.87806e-09)
(-1.28354e-10 -1.28256e-10 9.56423e-08)
(1.8944e-07 2.59191e-08 -4.36889e-09)
(2.2219e-08 1.9309e-07 -3.83244e-09)
(-1.55294e-10 -1.28843e-10 9.35866e-08)
(1.85912e-07 2.96424e-08 -4.80098e-09)
(2.22236e-08 1.93205e-07 -3.79008e-09)
(-1.84685e-10 -1.30702e-10 9.15204e-08)
(1.82414e-07 3.33837e-08 -5.16802e-09)
(2.2228e-08 1.93345e-07 -3.75794e-09)
(-2.15651e-10 -1.33946e-10 8.94501e-08)
(2.23029e-08 1.93531e-07 -3.70802e-09)
(-2.35804e-10 -1.34437e-10 8.73822e-08)
(1.78929e-07 3.71357e-08 -5.4734e-09)
(2.11191e-07 3.70241e-09 -7.00271e-10)
(2.57778e-08 1.89208e-07 -4.37776e-09)
(-2.91301e-11 -1.62602e-10 1.03716e-07)
(2.07536e-07 7.40327e-09 -1.38911e-09)
(2.58115e-08 1.89236e-07 -4.42209e-09)
(-4.65075e-11 -1.61553e-10 1.01711e-07)
(2.03897e-07 1.11029e-08 -2.05768e-09)
(2.5844e-08 1.89273e-07 -4.43929e-09)
(-6.44921e-11 -1.59807e-10 9.96969e-08)
(2.00274e-07 1.48025e-08 -2.69314e-09)
(2.58728e-08 1.89316e-07 -4.43264e-09)
(-8.38257e-11 -1.57865e-10 9.76687e-08)
(1.9667e-07 1.85058e-08 -3.28566e-09)
(2.58964e-08 1.89369e-07 -4.40739e-09)
(-1.05103e-10 -1.56183e-10 9.56289e-08)
(1.93089e-07 2.22171e-08 -3.82995e-09)
(2.59163e-08 1.89437e-07 -4.36953e-09)
(-1.28767e-10 -1.55065e-10 9.35825e-08)
(1.89528e-07 2.5936e-08 -4.32182e-09)
(2.59343e-08 1.89526e-07 -4.32428e-09)
(-1.55178e-10 -1.54857e-10 9.15298e-08)
(1.8599e-07 2.96639e-08 -4.75208e-09)
(2.5946e-08 1.89633e-07 -4.27786e-09)
(-1.83632e-10 -1.55422e-10 8.94635e-08)
(1.82479e-07 3.34091e-08 -5.11309e-09)
(2.59523e-08 1.89756e-07 -4.23802e-09)
(-2.13579e-10 -1.56558e-10 8.7386e-08)
(2.60263e-08 1.89928e-07 -4.18165e-09)
(-2.29985e-10 -1.54607e-10 8.53182e-08)
(1.78986e-07 3.71675e-08 -5.4134e-09)
(2.11356e-07 3.70203e-09 -6.87427e-10)
(2.94901e-08 1.85702e-07 -4.79239e-09)
(-3.6407e-11 -1.96104e-10 1.01651e-07)
(2.07693e-07 7.40311e-09 -1.36633e-09)
(2.95263e-08 1.85729e-07 -4.84281e-09)
(-5.15099e-11 -1.9423e-10 9.96481e-08)
(2.04044e-07 1.1104e-08 -2.02809e-09)
(2.95608e-08 1.85763e-07 -4.86492e-09)
(-6.80414e-11 -1.91238e-10 9.76353e-08)
(2.00412e-07 1.48058e-08 -2.65953e-09)
(2.9592e-08 1.85803e-07 -4.86192e-09)
(-8.6607e-11 -1.88251e-10 9.5608e-08)
(1.96797e-07 1.85101e-08 -3.24928e-09)
(2.9619e-08 1.85851e-07 -4.83841e-09)
(-1.07376e-10 -1.85942e-10 9.35675e-08)
(1.93201e-07 2.22212e-08 -3.78934e-09)
(2.96417e-08 1.8591e-07 -4.79992e-09)
(-1.30302e-10 -1.84363e-10 9.15166e-08)
(1.8963e-07 2.59441e-08 -4.27531e-09)
(2.96616e-08 1.85987e-07 -4.752e-09)
(-1.5558e-10 -1.83107e-10 8.94592e-08)
(1.86079e-07 2.96797e-08 -4.69831e-09)
(2.96787e-08 1.86078e-07 -4.69959e-09)
(-1.81514e-10 -1.80947e-10 8.73896e-08)
(1.82552e-07 3.34303e-08 -5.04851e-09)
(2.9688e-08 1.86183e-07 -4.64964e-09)
(-2.0931e-10 -1.77948e-10 8.53061e-08)
(2.97521e-08 1.86332e-07 -4.58652e-09)
(-2.22267e-10 -1.71291e-10 8.32372e-08)
(1.79049e-07 3.71972e-08 -5.33715e-09)
(2.11557e-07 3.70111e-09 -6.78774e-10)
(3.32183e-08 1.82234e-07 -5.15082e-09)
(-4.51186e-11 -2.33111e-10 9.95857e-08)
(2.07883e-07 7.40293e-09 -1.35037e-09)
(3.32574e-08 1.82257e-07 -5.20618e-09)
(-5.68216e-11 -2.2962e-10 9.75829e-08)
(2.04222e-07 1.11051e-08 -2.00672e-09)
(3.32934e-08 1.82286e-07 -5.23167e-09)
(-7.1951e-11 -2.24719e-10 9.55704e-08)
(2.00578e-07 1.48088e-08 -2.6344e-09)
(3.33263e-08 1.8232e-07 -5.23104e-09)
(-9.03149e-11 -2.2041e-10 9.35435e-08)
(1.96952e-07 1.85157e-08 -3.22155e-09)
(3.33564e-08 1.82361e-07 -5.20811e-09)
(-1.11105e-10 -2.17459e-10 9.1503e-08)
(1.93343e-07 2.22279e-08 -3.75828e-09)
(3.33838e-08 1.82414e-07 -5.167e-09)
(-1.33498e-10 -2.15643e-10 8.94493e-08)
(1.89754e-07 2.59503e-08 -4.23702e-09)
(3.34082e-08 1.82478e-07 -5.11219e-09)
(-1.56697e-10 -2.13686e-10 8.73838e-08)
(1.86182e-07 2.96865e-08 -4.6484e-09)
(3.34288e-08 1.82551e-07 -5.04848e-09)
(-1.78422e-10 -2.09302e-10 8.53046e-08)
(1.82631e-07 3.34395e-08 -4.98266e-09)
(3.34391e-08 1.82631e-07 -4.98338e-09)
(-2.00595e-10 -2.0039e-10 8.32117e-08)
(3.34812e-08 1.82733e-07 -4.91083e-09)
(-2.05474e-10 -1.81174e-10 8.11336e-08)
(1.79108e-07 3.72193e-08 -5.24883e-09)
(2.11796e-07 3.71171e-09 -6.69473e-10)
(-5.26536e-11 -2.75035e-10 9.75135e-08)
(3.69705e-08 1.78798e-07 -5.44693e-09)
(2.08108e-07 7.42738e-09 -1.3303e-09)
(-6.04296e-11 -2.66183e-10 9.55052e-08)
(3.70055e-08 1.78807e-07 -5.50319e-09)
(2.04437e-07 1.11445e-08 -1.9768e-09)
(-7.42487e-11 -2.56941e-10 9.34931e-08)
(3.70392e-08 1.78826e-07 -5.53156e-09)
(2.00784e-07 1.48628e-08 -2.59614e-09)
(-9.23451e-11 -2.48706e-10 9.14689e-08)
(3.70717e-08 1.7885e-07 -5.53448e-09)
(1.97149e-07 1.85821e-08 -3.1767e-09)
(-1.12827e-10 -2.41835e-10 8.94322e-08)
(3.71037e-08 1.78884e-07 -5.5142e-09)
(1.93532e-07 2.23029e-08 -3.70839e-09)
(-1.34225e-10 -2.36053e-10 8.73825e-08)
(3.71357e-08 1.78929e-07 -5.47295e-09)
(1.89927e-07 2.60258e-08 -4.18177e-09)
(-1.54731e-10 -2.30324e-10 8.53185e-08)
(3.71674e-08 1.78985e-07 -5.41297e-09)
(1.86331e-07 2.9751e-08 -4.58626e-09)
(-1.71423e-10 -2.2236e-10 8.32366e-08)
(3.71968e-08 1.79048e-07 -5.33688e-09)
(1.82732e-07 3.34805e-08 -4.91014e-09)
(-1.8117e-10 -2.05183e-10 8.11324e-08)
(3.72187e-08 1.79106e-07 -5.24881e-09)
(-1.75547e-10 -1.75157e-10 7.90321e-08)
(1.79158e-07 3.7231e-08 -5.15516e-09)
(3.72306e-08 1.79158e-07 -5.15546e-09)
(2.12068e-07 3.69776e-09 -7.52243e-10)
(3.69608e-09 2.12062e-07 -7.53998e-10)
(-2.1051e-11 -2.09461e-11 1.1765e-07)
(2.0835e-07 7.37786e-09 -1.45573e-09)
(3.74391e-09 2.12022e-07 -7.48445e-10)
(-6.11773e-11 -2.19756e-11 1.15537e-07)
(2.04634e-07 1.10465e-08 -2.09965e-09)
(3.75595e-09 2.11959e-07 -7.32197e-10)
(-9.94587e-11 -2.40587e-11 1.13379e-07)
(2.00936e-07 1.47172e-08 -2.689e-09)
(3.7544e-09 2.11913e-07 -7.13958e-10)
(-1.37617e-10 -2.74603e-11 1.11227e-07)
(1.97256e-07 1.83923e-08 -3.23031e-09)
(3.7515e-09 2.11895e-07 -6.96576e-10)
(-1.7732e-10 -3.24231e-11 1.09088e-07)
(1.93596e-07 2.20732e-08 -3.72824e-09)
(3.74721e-09 2.119e-07 -6.80718e-10)
(-2.19722e-10 -3.91471e-11 1.0696e-07)
(1.89959e-07 2.5761e-08 -4.18589e-09)
(3.74025e-09 2.11923e-07 -6.67275e-10)
(-2.65656e-10 -4.79043e-11 1.0484e-07)
(1.86347e-07 2.94569e-08 -4.60458e-09)
(3.7302e-09 2.11957e-07 -6.57452e-10)
(-3.14975e-10 -5.88278e-11 1.02727e-07)
(1.82764e-07 3.31632e-08 -4.98354e-09)
(3.71633e-09 2.11991e-07 -6.52669e-10)
(-3.66343e-10 -7.13367e-11 1.00617e-07)
(3.73392e-09 2.12017e-07 -6.49357e-10)
(-4.20312e-10 -8.1084e-11 9.85007e-08)
(1.79176e-07 3.68946e-08 -5.32209e-09)
(2.1202e-07 3.74215e-09 -7.46677e-10)
(7.37463e-09 2.08345e-07 -1.45622e-09)
(-2.20397e-11 -6.10324e-11 1.15531e-07)
(2.0834e-07 7.45247e-09 -1.45342e-09)
(7.44906e-09 2.08337e-07 -1.45499e-09)
(-6.13765e-11 -6.1203e-11 1.13456e-07)
(2.04648e-07 1.11322e-08 -2.10747e-09)
(7.48785e-09 2.08305e-07 -1.43437e-09)
(-9.92659e-11 -6.19105e-11 1.11337e-07)
(2.00961e-07 1.48039e-08 -2.70777e-09)
(7.49712e-09 2.08267e-07 -1.40536e-09)
(-1.371e-10 -6.35337e-11 1.09201e-07)
(1.9729e-07 1.84809e-08 -3.25877e-09)
(7.49353e-09 2.08244e-07 -1.37543e-09)
(-1.76445e-10 -6.631e-11 1.0707e-07)
(1.93637e-07 2.21643e-08 -3.76521e-09)
(7.48661e-09 2.08244e-07 -1.3478e-09)
(-2.184e-10 -7.0512e-11 1.04947e-07)
(1.90006e-07 2.58558e-08 -4.23033e-09)
(7.47376e-09 2.08261e-07 -1.32439e-09)
(-2.63687e-10 -7.62803e-11 1.02833e-07)
(1.86398e-07 2.9559e-08 -4.65531e-09)
(7.45562e-09 2.08286e-07 -1.3075e-09)
(-3.11729e-10 -8.31482e-11 1.00723e-07)
(1.82812e-07 3.32754e-08 -5.03921e-09)
(7.43323e-09 2.08308e-07 -1.29921e-09)
(-3.60697e-10 -8.98993e-11 9.86126e-08)
(7.47911e-09 2.08326e-07 -1.29101e-09)
(-4.06852e-10 -9.32499e-11 9.64845e-08)
(1.79208e-07 3.69992e-08 -5.37748e-09)
(2.11952e-07 3.75123e-09 -7.31488e-10)
(1.10451e-08 2.04635e-07 -2.09823e-09)
(-2.40462e-11 -9.94445e-11 1.13374e-07)
(2.083e-07 7.4847e-09 -1.43266e-09)
(1.11269e-08 2.04644e-07 -2.10705e-09)
(-6.20062e-11 -9.91398e-11 1.11331e-07)
(2.04641e-07 1.11906e-08 -2.09157e-09)
(1.11867e-08 2.04639e-07 -2.09262e-09)
(-9.9078e-11 -9.88912e-11 1.09254e-07)
(2.00975e-07 1.48747e-08 -2.70168e-09)
(1.1219e-08 2.04623e-07 -2.06305e-09)
(-1.3622e-10 -9.91545e-11 1.0715e-07)
(1.97314e-07 1.85553e-08 -3.26248e-09)
(1.1224e-08 2.04604e-07 -2.02736e-09)
(-1.74825e-10 -1.00205e-10 1.05032e-07)
(1.93671e-07 2.22431e-08 -3.77744e-09)
(1.12153e-08 2.04597e-07 -1.99285e-09)
(-2.16014e-10 -1.02318e-10 1.02917e-07)
(1.90046e-07 2.59401e-08 -4.2497e-09)
(1.11992e-08 2.04605e-07 -1.96366e-09)
(-2.60214e-10 -1.05659e-10 1.00808e-07)
(1.8644e-07 2.96492e-08 -4.6799e-09)
(1.11763e-08 2.04618e-07 -1.94268e-09)
(-3.06284e-10 -1.09767e-10 9.87001e-08)
(1.82854e-07 3.33708e-08 -5.06724e-09)
(1.11473e-08 2.04628e-07 -1.93268e-09)
(-3.52365e-10 -1.13788e-10 9.65906e-08)
(1.12261e-08 2.04646e-07 -1.92034e-09)
(-3.9226e-10 -1.14476e-10 9.4462e-08)
(1.79242e-07 3.70911e-08 -5.4073e-09)
(2.1191e-07 3.75319e-09 -7.1429e-10)
(1.47172e-08 2.00938e-07 -2.68686e-09)
(-2.74146e-11 -1.37722e-10 1.11226e-07)
(2.08261e-07 7.49215e-09 -1.40495e-09)
(1.48017e-08 2.00961e-07 -2.70596e-09)
(-6.35209e-11 -1.37159e-10 1.09197e-07)
(2.04619e-07 1.12158e-08 -2.06176e-09)
(1.4869e-08 2.00971e-07 -2.70101e-09)
(-9.9251e-11 -1.36151e-10 1.07144e-07)
(2.00974e-07 1.49215e-08 -2.6771e-09)
(1.49178e-08 2.00972e-07 -2.6779e-09)
(-1.35383e-10 -1.35238e-10 1.05069e-07)
(1.97325e-07 1.86129e-08 -3.24638e-09)
(1.49418e-08 2.00966e-07 -2.64353e-09)
(-1.7295e-10 -1.34834e-10 1.02972e-07)
(1.93685e-07 2.23048e-08 -3.76927e-09)
(1.49395e-08 2.00958e-07 -2.60629e-09)
(-2.13054e-10 -1.35209e-10 1.00865e-07)
(1.90063e-07 2.60075e-08 -4.24779e-09)
(1.49196e-08 2.00955e-07 -2.57392e-09)
(-2.56012e-10 -1.36633e-10 9.87576e-08)
(1.86458e-07 2.97223e-08 -4.68235e-09)
(1.48925e-08 2.00956e-07 -2.55128e-09)
(-3.00348e-10 -1.39064e-10 9.66507e-08)
(1.8287e-07 3.34485e-08 -5.0725e-09)
(1.48595e-08 2.00953e-07 -2.5413e-09)
(-3.44277e-10 -1.42127e-10 9.45417e-08)
(1.49706e-08 2.00974e-07 -2.52621e-09)
(-3.78332e-10 -1.41558e-10 9.24174e-08)
(1.79255e-07 3.71699e-08 -5.41557e-09)
(2.11894e-07 3.75167e-09 -6.97102e-10)
(1.83921e-08 1.97257e-07 -3.22802e-09)
(-3.23949e-11 -1.77466e-10 1.09089e-07)
(2.08242e-07 7.49209e-09 -1.37613e-09)
(1.84802e-08 1.97292e-07 -3.25664e-09)
(-6.62517e-11 -1.76587e-10 1.07069e-07)
(2.04599e-07 1.12194e-08 -2.02728e-09)
(1.85528e-08 1.97313e-07 -3.26079e-09)
(-1.00149e-10 -1.7488e-10 1.05028e-07)
(2.00963e-07 1.4939e-08 -2.64244e-09)
(1.86072e-08 1.97321e-07 -3.24578e-09)
(-1.34893e-10 -1.72859e-10 1.02967e-07)
(1.97328e-07 1.8649e-08 -3.2164e-09)
(1.86445e-08 1.97324e-07 -3.21729e-09)
(-1.71242e-10 -1.71089e-10 1.0089e-07)
(1.93691e-07 2.23494e-08 -3.74601e-09)
(1.86582e-08 1.97324e-07 -3.1819e-09)
(-2.10188e-10 -1.70091e-10 9.87957e-08)
(1.90063e-07 2.60541e-08 -4.22995e-09)
(1.86432e-08 1.97315e-07 -3.14807e-09)
(-2.51815e-10 -1.7007e-10 9.66892e-08)
(1.86455e-07 2.97745e-08 -4.66774e-09)
(1.86086e-08 1.97299e-07 -3.12411e-09)
(-2.94892e-10 -1.71165e-10 9.45784e-08)
(1.82864e-07 3.35086e-08 -5.05957e-09)
(1.85704e-08 1.97281e-07 -3.11498e-09)
(-3.37486e-10 -1.73481e-10 9.2468e-08)
(1.87094e-08 1.97304e-07 -3.09882e-09)
(-3.65441e-10 -1.71466e-10 9.03502e-08)
(1.79249e-07 3.72368e-08 -5.40545e-09)
(2.119e-07 3.74732e-09 -6.81193e-10)
(2.20729e-08 1.93597e-07 -3.72595e-09)
(-3.91313e-11 -2.19852e-10 1.06961e-07)
(2.08244e-07 7.48685e-09 -1.34873e-09)
(2.21636e-08 1.93639e-07 -3.76309e-09)
(-7.04429e-11 -2.18527e-10 1.04948e-07)
(2.04595e-07 1.12138e-08 -1.99381e-09)
(2.22422e-08 1.93672e-07 -3.77554e-09)
(-1.02195e-10 -2.16129e-10 1.02917e-07)
(2.00954e-07 1.4934e-08 -2.60642e-09)
(2.2302e-08 1.93684e-07 -3.76785e-09)
(-1.35172e-10 -2.1313e-10 1.00861e-07)
(1.97322e-07 1.86547e-08 -3.18069e-09)
(2.23426e-08 1.93685e-07 -3.74577e-09)
(-1.70131e-10 -2.10126e-10 9.87906e-08)
(1.93692e-07 2.23731e-08 -3.71375e-09)
(2.23669e-08 1.93685e-07 -3.71526e-09)
(-2.07841e-10 -2.07691e-10 9.67087e-08)
(1.9006e-07 2.60858e-08 -4.20207e-09)
(2.23684e-08 1.9368e-07 -3.68268e-09)
(-2.48131e-10 -2.06178e-10 9.46095e-08)
(1.8644e-07 2.98077e-08 -4.64198e-09)
(2.23341e-08 1.93652e-07 -3.657e-09)
(-2.90082e-10 -2.05838e-10 9.24932e-08)
(1.82839e-07 3.35505e-08 -5.03318e-09)
(2.22872e-08 1.93611e-07 -3.64688e-09)
(-3.31452e-10 -2.0651e-10 9.03732e-08)
(2.24405e-08 1.9363e-07 -3.63008e-09)
(-3.5299e-10 -2.01756e-10 8.82601e-08)
(1.79225e-07 3.72919e-08 -5.37978e-09)
(2.11923e-07 3.74033e-09 -6.67716e-10)
(2.57608e-08 1.8996e-07 -4.18377e-09)
(-4.78895e-11 -2.65776e-10 1.04841e-07)
(2.08262e-07 7.47388e-09 -1.32526e-09)
(2.58553e-08 1.90007e-07 -4.22834e-09)
(-7.62045e-11 -2.63799e-10 1.02834e-07)
(2.04605e-07 1.11992e-08 -1.96492e-09)
(2.59394e-08 1.90047e-07 -4.2479e-09)
(-1.05532e-10 -2.60315e-10 1.00809e-07)
(2.00953e-07 1.49173e-08 -2.57533e-09)
(2.60069e-08 1.90064e-07 -4.24619e-09)
(-1.36537e-10 -2.5608e-10 9.87574e-08)
(1.97309e-07 1.86356e-08 -3.14837e-09)
(2.6052e-08 1.90062e-07 -4.22867e-09)
(-1.69921e-10 -2.51765e-10 9.66848e-08)
(1.93675e-07 2.2363e-08 -3.68069e-09)
(2.60776e-08 1.9005e-07 -4.20185e-09)
(-2.06051e-10 -2.4777e-10 9.46014e-08)
(1.90045e-07 2.60929e-08 -4.17017e-09)
(2.60881e-08 1.9004e-07 -4.17177e-09)
(-2.4499e-10 -2.445e-10 9.25084e-08)
(1.86412e-07 2.98248e-08 -4.61041e-09)
(2.60683e-08 1.90006e-07 -4.1451e-09)
(-2.84935e-10 -2.41516e-10 9.03919e-08)
(1.82791e-07 3.35757e-08 -4.9977e-09)
(2.60194e-08 1.89942e-07 -4.13093e-09)
(-3.24058e-10 -2.38159e-10 8.82573e-08)
(2.61619e-08 1.89945e-07 -4.11196e-09)
(-3.39631e-10 -2.28859e-10 8.61435e-08)
(1.79179e-07 3.73349e-08 -5.34105e-09)
(2.11958e-07 3.73034e-09 -6.57861e-10)
(2.94567e-08 1.86349e-07 -4.60279e-09)
(-5.88095e-11 -3.15095e-10 1.02728e-07)
(2.08286e-07 7.45593e-09 -1.30831e-09)
(2.95587e-08 1.86399e-07 -4.65361e-09)
(-8.30565e-11 -3.11832e-10 1.00724e-07)
(2.04619e-07 1.11769e-08 -1.94389e-09)
(2.96488e-08 1.86441e-07 -4.6783e-09)
(-1.0961e-10 -3.06348e-10 9.87013e-08)
(2.00956e-07 1.48935e-08 -2.55296e-09)
(2.97222e-08 1.8646e-07 -4.6808e-09)
(-1.38866e-10 -3.00325e-10 9.66517e-08)
(1.97296e-07 1.86073e-08 -3.12585e-09)
(2.97751e-08 1.86457e-07 -4.66609e-09)
(-1.70863e-10 -2.94734e-10 9.45778e-08)
(1.93642e-07 2.2327e-08 -3.65654e-09)
(2.98061e-08 1.86436e-07 -4.64017e-09)
(-2.05211e-10 -2.89571e-10 9.24856e-08)
(1.89998e-07 2.60629e-08 -4.14302e-09)
(2.98181e-08 1.86405e-07 -4.60937e-09)
(-2.41746e-10 -2.8411e-10 9.03833e-08)
(1.86353e-07 2.98129e-08 -4.57881e-09)
(2.98099e-08 1.86352e-07 -4.57933e-09)
(-2.77208e-10 -2.76336e-10 8.82596e-08)
(1.82711e-07 3.35773e-08 -4.95775e-09)
(2.9764e-08 1.86265e-07 -4.55813e-09)
(-3.12382e-10 -2.66089e-10 8.61123e-08)
(2.98717e-08 1.86239e-07 -4.53514e-09)
(-3.22555e-10 -2.49299e-10 8.39941e-08)
(1.79102e-07 3.73614e-08 -5.29148e-09)
(2.11993e-07 3.71653e-09 -6.53031e-10)
(3.31631e-08 1.82765e-07 -4.98219e-09)
(-7.13132e-11 -3.66447e-10 1.00618e-07)
(2.08309e-07 7.43367e-09 -1.29991e-09)
(3.32751e-08 1.82813e-07 -5.03793e-09)
(-8.97927e-11 -3.60794e-10 9.86141e-08)
(2.04629e-07 1.11481e-08 -1.93369e-09)
(3.33706e-08 1.82854e-07 -5.06599e-09)
(-1.13595e-10 -3.52438e-10 9.65919e-08)
(2.00954e-07 1.48608e-08 -2.54262e-09)
(3.34485e-08 1.82871e-07 -5.07122e-09)
(-1.41855e-10 -3.4431e-10 9.45429e-08)
(1.97282e-07 1.85731e-08 -3.11659e-09)
(3.3509e-08 1.82865e-07 -5.05816e-09)
(-1.73112e-10 -3.37461e-10 9.2469e-08)
(1.93609e-07 2.2287e-08 -3.64761e-09)
(3.35513e-08 1.82838e-07 -5.03147e-09)
(-2.05813e-10 -3.31432e-10 9.03716e-08)
(1.89936e-07 2.60135e-08 -4.13027e-09)
(3.35734e-08 1.82789e-07 -4.99606e-09)
(-2.38366e-10 -3.24209e-10 8.82532e-08)
(1.86261e-07 2.97599e-08 -4.55732e-09)
(3.3573e-08 1.82709e-07 -4.95697e-09)
(-2.66827e-10 -3.12374e-10 8.61093e-08)
(1.82588e-07 3.35307e-08 -4.92196e-09)
(3.35294e-08 1.82587e-07 -4.92211e-09)
(-2.93318e-10 -2.93017e-10 8.39403e-08)
(3.35746e-08 1.82487e-07 -4.88788e-09)
(-2.92148e-10 -2.58446e-10 8.17978e-08)
(1.78972e-07 3.73599e-08 -5.23341e-09)
(2.12019e-07 3.73415e-09 -6.49655e-10)
(-8.10477e-11 -4.20324e-10 9.85021e-08)
(3.68946e-08 1.79177e-07 -5.32117e-09)
(2.08328e-07 7.47957e-09 -1.29158e-09)
(-9.3132e-11 -4.06869e-10 9.64857e-08)
(3.69991e-08 1.79209e-07 -5.37659e-09)
(2.04647e-07 1.12268e-08 -1.92113e-09)
(-1.14278e-10 -3.92289e-10 9.44631e-08)
(3.7091e-08 1.79242e-07 -5.40644e-09)
(2.00975e-07 1.49715e-08 -2.52715e-09)
(-1.41307e-10 -3.78396e-10 9.24184e-08)
(3.71699e-08 1.79256e-07 -5.41468e-09)
(1.97305e-07 1.87104e-08 -3.09981e-09)
(-1.71179e-10 -3.65593e-10 9.03511e-08)
(3.72369e-08 1.79249e-07 -5.40449e-09)
(1.93632e-07 2.24407e-08 -3.63084e-09)
(-2.01423e-10 -3.53378e-10 8.82608e-08)
(3.7292e-08 1.79225e-07 -5.37875e-09)
(1.89945e-07 2.61606e-08 -4.11245e-09)
(-2.29051e-10 -3.4016e-10 8.61441e-08)
(3.73346e-08 1.79179e-07 -5.34005e-09)
(1.86236e-07 2.98688e-08 -4.53516e-09)
(-2.49533e-10 -3.22712e-10 8.3993e-08)
(3.73604e-08 1.79101e-07 -5.29065e-09)
(1.82484e-07 3.35728e-08 -4.88744e-09)
(-2.58451e-10 -2.91737e-10 8.17954e-08)
(3.73583e-08 1.7897e-07 -5.23283e-09)
(-2.44511e-10 -2.43963e-10 7.95993e-08)
(1.78802e-07 3.73268e-08 -5.17128e-09)
(3.73256e-08 1.78802e-07 -5.17119e-09)
(2.13049e-07 3.71086e-09 -6.64968e-10)
(3.70818e-09 2.1304e-07 -6.66377e-10)
(-2.40747e-11 -2.39565e-11 1.18981e-07)
(2.09274e-07 7.39236e-09 -1.28712e-09)
(3.78428e-09 2.12956e-07 -6.61625e-10)
(-6.95159e-11 -2.50722e-11 1.16821e-07)
(2.05484e-07 1.10534e-08 -1.85745e-09)
(3.80233e-09 2.12815e-07 -6.47492e-10)
(-1.12432e-10 -2.73111e-11 1.14597e-07)
(2.01703e-07 1.47143e-08 -2.38126e-09)
(3.7982e-09 2.12682e-07 -6.31778e-10)
(-1.54346e-10 -3.09302e-11 1.12382e-07)
(1.97931e-07 1.83775e-08 -2.86541e-09)
(3.79137e-09 2.12572e-07 -6.17112e-10)
(-1.9675e-10 -3.61274e-11 1.10189e-07)
(1.9417e-07 2.20437e-08 -3.31554e-09)
(3.78165e-09 2.12478e-07 -6.04172e-10)
(-2.40426e-10 -4.30074e-11 1.08014e-07)
(1.90423e-07 2.57128e-08 -3.73638e-09)
(3.76681e-09 2.1239e-07 -5.93865e-10)
(-2.85618e-10 -5.16935e-11 1.05855e-07)
(1.86693e-07 2.93845e-08 -4.13162e-09)
(3.746e-09 2.12293e-07 -5.87437e-10)
(-3.31294e-10 -6.20917e-11 1.03709e-07)
(1.82984e-07 3.30608e-08 -4.50355e-09)
(3.71773e-09 2.12168e-07 -5.86385e-10)
(-3.74959e-10 -7.32936e-11 1.01575e-07)
(3.73876e-09 2.12006e-07 -5.88303e-10)
(-4.15792e-10 -8.06689e-11 9.944e-08)
(1.79241e-07 3.67656e-08 -4.85449e-09)
(2.12952e-07 3.78143e-09 -6.60193e-10)
(7.38721e-09 2.09267e-07 -1.28728e-09)
(-2.51436e-11 -6.93532e-11 1.16812e-07)
(2.09239e-07 7.51079e-09 -1.28546e-09)
(7.50539e-09 2.09235e-07 -1.28656e-09)
(-6.96004e-11 -6.94066e-11 1.14706e-07)
(2.05489e-07 1.11889e-08 -1.86501e-09)
(7.56509e-09 2.09145e-07 -1.26895e-09)
(-1.12004e-10 -6.99097e-11 1.12538e-07)
(2.01727e-07 1.4851e-08 -2.39875e-09)
(7.57665e-09 2.09027e-07 -1.24422e-09)
(-1.53495e-10 -7.12665e-11 1.10347e-07)
(1.9797e-07 1.85167e-08 -2.8918e-09)
(7.56654e-09 2.08914e-07 -1.21917e-09)
(-1.95448e-10 -7.3686e-11 1.08165e-07)
(1.94222e-07 2.21865e-08 -3.34985e-09)
(7.54978e-09 2.08815e-07 -1.19692e-09)
(-2.38594e-10 -7.73713e-11 1.05998e-07)
(1.90487e-07 2.58612e-08 -3.77773e-09)
(7.52186e-09 2.08721e-07 -1.1794e-09)
(-2.83085e-10 -8.23387e-11 1.03846e-07)
(1.86765e-07 2.95451e-08 -4.17894e-09)
(7.48349e-09 2.08614e-07 -1.16898e-09)
(-3.27481e-10 -8.79229e-11 1.01705e-07)
(1.83055e-07 3.32389e-08 -4.55543e-09)
(7.43582e-09 2.08477e-07 -1.16796e-09)
(-3.68884e-10 -9.26853e-11 9.95707e-08)
(7.496e-09 2.08311e-07 -1.17023e-09)
(-4.02451e-10 -9.32333e-11 9.74161e-08)
(1.79294e-07 3.69336e-08 -4.90513e-09)
(2.12804e-07 3.79475e-09 -6.46994e-10)
(1.10512e-08 2.05485e-07 -1.85585e-09)
(-2.72956e-11 -1.12419e-10 1.14589e-07)
(2.09137e-07 7.55999e-09 -1.26771e-09)
(1.11806e-08 2.05482e-07 -1.86424e-09)
(-7.00141e-11 -1.11865e-10 1.12529e-07)
(2.05442e-07 1.12789e-08 -1.85204e-09)
(1.12728e-08 2.05438e-07 -1.85254e-09)
(-1.11351e-10 -1.11145e-10 1.10422e-07)
(2.01714e-07 1.49597e-08 -2.39496e-09)
(1.13196e-08 2.05358e-07 -1.82798e-09)
(-1.51939e-10 -1.10751e-10 1.08276e-07)
(1.97978e-07 1.86302e-08 -2.89717e-09)
(1.13212e-08 2.05254e-07 -1.79868e-09)
(-1.92956e-10 -1.10942e-10 1.06114e-07)
(1.94248e-07 2.23061e-08 -3.36331e-09)
(1.12988e-08 2.05149e-07 -1.77146e-09)
(-2.35168e-10 -1.11938e-10 1.03958e-07)
(1.90526e-07 2.59889e-08 -3.79807e-09)
(1.12622e-08 2.05046e-07 -1.75046e-09)
(-2.78441e-10 -1.13797e-10 1.01814e-07)
(1.86812e-07 2.96817e-08 -4.20432e-09)
(1.12117e-08 2.04927e-07 -1.7387e-09)
(-3.20804e-10 -1.15877e-10 9.96761e-08)
(1.83107e-07 3.33837e-08 -4.58392e-09)
(1.1148e-08 2.04778e-07 -1.73925e-09)
(-3.59462e-10 -1.17131e-10 9.75415e-08)
(1.12556e-08 2.04621e-07 -1.74236e-09)
(-3.87366e-10 -1.14238e-10 9.53845e-08)
(1.79343e-07 3.70733e-08 -4.93434e-09)
(2.12677e-07 3.79625e-09 -6.32237e-10)
(1.47144e-08 2.01705e-07 -2.37897e-09)
(-3.08777e-11 -1.54472e-10 1.12381e-07)
(2.09018e-07 7.56864e-09 -1.24414e-09)
(1.48475e-08 2.01726e-07 -2.3967e-09)
(-7.1249e-11 -1.53566e-10 1.10341e-07)
(2.05351e-07 1.13144e-08 -1.82726e-09)
(1.49506e-08 2.01708e-07 -2.39382e-09)
(-1.10854e-10 -1.51867e-10 1.08269e-07)
(2.01663e-07 1.50282e-08 -2.37558e-09)
(1.50224e-08 2.01659e-07 -2.37569e-09)
(-1.50111e-10 -1.49957e-10 1.06165e-07)
(1.97949e-07 1.87145e-08 -2.88604e-09)
(1.50523e-08 2.01581e-07 -2.34856e-09)
(-1.89793e-10 -1.48244e-10 1.04033e-07)
(1.94228e-07 2.23957e-08 -3.3599e-09)
(1.50375e-08 2.0148e-07 -2.32019e-09)
(-2.30645e-10 -1.46945e-10 1.01887e-07)
(1.90515e-07 2.60866e-08 -3.80091e-09)
(1.49914e-08 2.01365e-07 -2.298e-09)
(-2.72442e-10 -1.46229e-10 9.97461e-08)
(1.86809e-07 2.97874e-08 -4.21162e-09)
(1.49299e-08 2.01233e-07 -2.28703e-09)
(-3.12915e-10 -1.45886e-10 9.76098e-08)
(1.83108e-07 3.34958e-08 -4.59401e-09)
(1.48545e-08 2.01073e-07 -2.29069e-09)
(-3.4944e-10 -1.45333e-10 9.54756e-08)
(1.50095e-08 2.00929e-07 -2.29566e-09)
(-3.71964e-10 -1.40247e-10 9.33232e-08)
(1.79348e-07 3.71868e-08 -4.94652e-09)
(2.12572e-07 3.79165e-09 -6.17762e-10)
(1.83773e-08 1.97933e-07 -2.86296e-09)
(-3.6095e-11 -1.96925e-10 1.1019e-07)
(2.08911e-07 7.56423e-09 -1.22013e-09)
(1.85157e-08 1.97973e-07 -2.88945e-09)
(-7.36177e-11 -1.95617e-10 1.08164e-07)
(2.05246e-07 1.13137e-08 -1.79904e-09)
(1.86264e-08 1.97977e-07 -2.8951e-09)
(-1.10875e-10 -1.93023e-10 1.06108e-07)
(2.01576e-07 1.50477e-08 -2.34817e-09)
(1.87055e-08 1.97942e-07 -2.88479e-09)
(-1.48302e-10 -1.89698e-10 1.04026e-07)
(1.97888e-07 1.8762e-08 -2.86389e-09)
(1.87549e-08 1.97882e-07 -2.86389e-09)
(-1.86363e-10 -1.86203e-10 1.01921e-07)
(1.94178e-07 2.24549e-08 -3.34473e-09)
(1.87633e-08 1.978e-07 -2.83861e-09)
(-2.25688e-10 -1.83016e-10 9.97949e-08)
(1.90462e-07 2.61473e-08 -3.79143e-09)
(1.87217e-08 1.97683e-07 -2.81687e-09)
(-2.65806e-10 -1.80229e-10 9.76548e-08)
(1.86758e-07 2.98556e-08 -4.20585e-09)
(1.8644e-08 1.97531e-07 -2.8069e-09)
(-3.04733e-10 -1.77802e-10 9.55127e-08)
(1.83059e-07 3.35752e-08 -4.59041e-09)
(1.85553e-08 1.97356e-07 -2.81431e-09)