/*--------------------------------*- C++ -*----------------------------------*\
| =========                 |                                                 |
| \\      /  F ield         | foam-extend: Open Source CFD                    |
|  \\    /   O peration     | Version:     3.1                                |
|   \\  /    A nd           | Web:         http://www.extend-project.de       |
|    \\/     M anipulation  |                                                 |
\*---------------------------------------------------------------------------*/
FoamFile
{
    version     2.0;
    format      ascii;
    class       volVectorField;
    location    "0.0014";
    object      U;
}
// * * * * * * * * * * * * * * * * * * * * * * * * * * * * * * * * * * * * * //

dimensions      [0 1 -1 0 0 0 0];

internalField   nonuniform List<vector> 
16000
(
(0.000216354 0.000216565 0.25281)
(0.000646576 0.000215635 0.253202)
(0.00106903 0.000215203 0.253989)
(0.00148318 0.000216702 0.255174)
(0.00189105 0.000220344 0.256762)
(0.00229467 0.000226113 0.258762)
(0.00269639 0.000234014 0.261184)
(0.00309979 0.000243939 0.264046)
(0.00351236 0.000255122 0.267374)
(0.00394374 0.000247829 0.271205)
(0.00021543 0.000646896 0.253202)
(0.000644096 0.000644487 0.253566)
(0.00106536 0.000643011 0.254312)
(0.00147908 0.000646261 0.255444)
(0.00188675 0.000655096 0.256965)
(0.00229012 0.000669878 0.258884)
(0.00269133 0.000690781 0.261211)
(0.00309317 0.000717589 0.263961)
(0.00350401 0.000748484 0.267159)
(0.00392113 0.000726516 0.270839)
(0.000215109 0.00106901 0.253989)
(0.000642729 0.00106555 0.254312)
(0.0010623 0.00106263 0.255006)
(0.00147503 0.00106544 0.256072)
(0.00188193 0.00107535 0.257515)
(0.00228415 0.00109349 0.259342)
(0.00268316 0.00112053 0.261563)
(0.00308057 0.00115621 0.264191)
(0.00348589 0.00119781 0.267247)
(0.00388104 0.00114875 0.270768)
(0.000216728 0.00148282 0.255174)
(0.000646227 0.00147892 0.255444)
(0.00106522 0.00147515 0.256072)
(0.00147752 0.0014778 0.257062)
(0.00188447 0.00148825 0.258418)
(0.00228666 0.00150831 0.260145)
(0.00268457 0.00153948 0.262253)
(0.00307828 0.00158183 0.264753)
(0.00347858 0.00163169 0.267666)
(0.00384877 0.00155122 0.271028)
(0.000220399 0.00189059 0.256762)
(0.000655217 0.00188637 0.256965)
(0.00107538 0.00188176 0.257515)
(0.00148807 0.0018846 0.258418)
(0.00189569 0.00189599 0.259676)
(0.00229889 0.00191808 0.261295)
(0.00269715 0.00195326 0.263282)
(0.00308866 0.00200251 0.26565)
(0.00348528 0.00206156 0.268416)
(0.00382856 0.00195004 0.271619)
(0.00022616 0.00229421 0.258762)
(0.000670024 0.0022897 0.258884)
(0.00109369 0.00228382 0.259342)
(0.00150839 0.00228656 0.260145)
(0.00191789 0.00229911 0.261295)
(0.00232348 0.00232391 0.262796)
(0.00272424 0.00236425 0.264656)
(0.00311629 0.00242258 0.266885)
(0.00351179 0.00249492 0.2695)
(0.00382651 0.00235752 0.272545)
(0.000234054 0.00269597 0.261184)
(0.00069091 0.00269094 0.261211)
(0.00112075 0.00268281 0.261563)
(0.00153976 0.00268431 0.262253)
(0.00195342 0.00269712 0.263282)
(0.00236396 0.00272456 0.264656)
(0.00277091 0.00277144 0.26638)
(0.00316864 0.00284263 0.268465)
(0.00356843 0.00293621 0.270925)
(0.00385396 0.00278569 0.273815)
(0.000243972 0.00309944 0.264046)
(0.0007177 0.00309284 0.263961)
(0.0011564 0.00308026 0.264191)
(0.00158212 0.00307797 0.264753)
(0.00200285 0.00308837 0.26565)
(0.00242259 0.00311614 0.266885)
(0.00284217 0.00316878 0.268465)
(0.0032555 0.00325589 0.2704)
(0.00367227 0.00338258 0.272704)
(0.00393415 0.00324578 0.275443)
(0.00025515 0.00351213 0.267374)
(0.000748573 0.00350378 0.267159)
(0.00119795 0.00348566 0.267247)
(0.00163189 0.00347832 0.267666)
(0.00206181 0.00348493 0.268416)
(0.00249503 0.00351136 0.2695)
(0.00293599 0.0035681 0.270925)
(0.00338223 0.00367226 0.272704)
(0.00384497 0.00384518 0.274851)
(0.00411457 0.00376164 0.277449)
(0.000247853 0.00394362 0.271205)
(0.00072659 0.00392101 0.270839)
(0.00114886 0.00388091 0.270768)
(0.00155137 0.00384861 0.271028)
(0.0019502 0.00382834 0.271619)
(0.00235765 0.00382619 0.272546)
(0.00278572 0.00385362 0.273815)
(0.00324569 0.00393396 0.275443)
(0.00376144 0.00411455 0.277449)
(0.00426879 0.00426891 0.279917)
(0.000403663 0.000403688 0.251069)
(0.00121349 0.000398287 0.251465)
(0.00202146 0.000390875 0.252264)
(0.00282542 0.000383386 0.253465)
(0.00362722 0.000375996 0.255072)
(0.00442843 0.000368832 0.257092)
(0.00523299 0.000362142 0.259529)
(0.00604915 0.00035637 0.262393)
(0.00689199 0.000352568 0.265693)
(0.00778588 0.000353839 0.269438)
(0.000398263 0.00121353 0.251465)
(0.00119781 0.00119786 0.251838)
(0.00199587 0.00117632 0.252599)
(0.0027903 0.00115467 0.25375)
(0.00358284 0.00113348 0.255296)
(0.004375 0.00111311 0.257242)
(0.00517052 0.00109425 0.259593)
(0.00597695 0.00107801 0.262358)
(0.00680835 0.00106717 0.265547)
(0.00768645 0.00106983 0.269166)
(0.000390869 0.00202145 0.252264)
(0.00117629 0.00199589 0.252599)
(0.00196061 0.00196066 0.253308)
(0.00274181 0.00192524 0.254396)
(0.00352147 0.00189056 0.255864)
(0.00430105 0.00185731 0.25772)
(0.00508417 0.0018265 0.259968)
(0.00587784 0.00179985 0.262617)
(0.00669534 0.00178177 0.265676)
(0.00755619 0.00178501 0.26915)
(0.000383393 0.00282538 0.253465)
(0.00115467 0.00279028 0.25375)
(0.00192521 0.00274183 0.254395)
(0.00269321 0.00269325 0.255406)
(0.00346017 0.00264579 0.256786)
(0.00422756 0.00260042 0.25854)
(0.00499894 0.00255858 0.260674)
(0.00578098 0.00252251 0.263196)
(0.00658636 0.00249803 0.266115)
(0.00743239 0.0025017 0.269438)
(0.000376001 0.00362719 0.255072)
(0.00113349 0.00358281 0.255296)
(0.00189056 0.00352146 0.255864)
(0.00264576 0.00346019 0.256786)
(0.00340055 0.00340059 0.258065)
(0.00415651 0.00334387 0.259706)
(0.00491731 0.00329187 0.261715)
(0.00568933 0.00324743 0.2641)
(0.00648474 0.00321776 0.266869)
(0.00731915 0.00322291 0.270033)
(0.000368835 0.00442841 0.257092)
(0.00111312 0.00437498 0.257242)
(0.00185732 0.00430103 0.25772)
(0.00260042 0.00422755 0.25854)
(0.00334384 0.00415655 0.259706)
(0.00408938 0.00408945 0.261223)
(0.00484096 0.00402843 0.263096)
(0.00560485 0.00397688 0.265331)
(0.00639272 0.00394353 0.267941)
(0.00721897 0.00395217 0.270937)
(0.000362145 0.00523297 0.259529)
(0.00109426 0.00517051 0.259593)
(0.00182651 0.00508415 0.259968)
(0.0025586 0.00499893 0.260674)
(0.00329189 0.00491732 0.261715)
(0.00402838 0.00484102 0.263096)
(0.00477235 0.00477245 0.26482)
(0.00553016 0.00471531 0.266894)
(0.00631325 0.00467972 0.26933)
(0.00713533 0.00469405 0.272148)
(0.000356373 0.00604915 0.262393)
(0.00107802 0.00597694 0.262358)
(0.00179986 0.00587783 0.262617)
(0.00252253 0.00578097 0.263196)
(0.00324746 0.00568932 0.2641)
(0.00397688 0.00560484 0.265331)
(0.00471523 0.00553019 0.266894)
(0.00546892 0.00546899 0.268794)
(0.00624982 0.00543169 0.271041)
(0.00707287 0.00545225 0.273664)
(0.000352571 0.006892 0.265693)
(0.00106718 0.00680836 0.265547)
(0.00178178 0.00669535 0.265676)
(0.00249804 0.00658636 0.266115)
(0.00321777 0.00648472 0.266869)
(0.00394352 0.00639267 0.267941)
(0.00467966 0.00631321 0.26933)
(0.00543161 0.00624983 0.271041)
(0.00621207 0.00621213 0.273079)
(0.00704333 0.00623338 0.275484)
(0.000353841 0.00778591 0.269438)
(0.00106984 0.00768648 0.269166)
(0.00178502 0.00755622 0.26915)
(0.00250171 0.00743242 0.269438)
(0.00322291 0.00731916 0.270033)
(0.00395216 0.00721896 0.270937)
(0.00469403 0.00713532 0.272148)
(0.00545222 0.00707288 0.273664)
(0.00623332 0.00704335 0.275484)
(0.00707721 0.00707727 0.277637)
(0.000756341 0.000756388 0.246753)
(0.00227462 0.000746655 0.247156)
(0.00379309 0.000733328 0.247964)
(0.00530975 0.000719926 0.24918)
(0.00682815 0.000706596 0.250806)
(0.0083492 0.000693328 0.252844)
(0.00987426 0.000680195 0.255298)
(0.0114056 0.000667405 0.258167)
(0.0129454 0.000656131 0.261447)
(0.0144917 0.000652334 0.265123)
(0.000746608 0.00227468 0.247156)
(0.00224612 0.00224621 0.247532)
(0.00374608 0.0022071 0.248302)
(0.00524448 0.00216785 0.249466)
(0.00674468 0.00212901 0.251027)
(0.00824769 0.00209064 0.252988)
(0.00975497 0.00205295 0.255351)
(0.0112688 0.00201655 0.258117)
(0.0127907 0.00198478 0.261282)
(0.0143189 0.00197518 0.264833)
(0.000733316 0.00379308 0.247964)
(0.00220704 0.00374613 0.248302)
(0.00368123 0.00368132 0.249019)
(0.00515419 0.00361598 0.250117)
(0.00662897 0.00355111 0.251599)
(0.0081065 0.00348693 0.253468)
(0.00958838 0.0034238 0.255725)
(0.0110769 0.00336271 0.258371)
(0.0125731 0.00330934 0.261403)
(0.0140749 0.00329438 0.264808)
(0.000719939 0.00530969 0.24918)
(0.00216785 0.00524445 0.249466)
(0.00361593 0.00515423 0.250117)
(0.00506307 0.00506315 0.251137)
(0.0065121 0.0049725 0.252528)
(0.00796389 0.00488265 0.254293)
(0.00942012 0.00479418 0.256433)
(0.0108833 0.0047084 0.258948)
(0.0123533 0.00463317 0.261836)
(0.0138271 0.00461126 0.265085)
(0.000706605 0.00682809 0.250806)
(0.00212904 0.00674463 0.251027)
(0.00355112 0.00662895 0.251599)
(0.00497246 0.00651215 0.252528)
(0.00639566 0.00639574 0.253817)
(0.00782168 0.00628006 0.255466)
(0.00925242 0.00616583 0.257476)
(0.0106906 0.00605479 0.259849)
(0.0121348 0.00595695 0.26258)
(0.0135807 0.00592701 0.265663)
(0.000693334 0.00834916 0.252844)
(0.00209066 0.00824765 0.252988)
(0.00348696 0.00810646 0.253468)
(0.00488267 0.00796387 0.254293)
(0.00628001 0.00782175 0.255466)
(0.00768009 0.00768021 0.256986)
(0.00908518 0.00753979 0.258855)
(0.0104985 0.00740246 0.261073)
(0.0119175 0.00728057 0.263635)
(0.0133361 0.00724125 0.266541)
(0.0006802 0.00987423 0.255298)
(0.00205297 0.00975493 0.255351)
(0.00342383 0.00958835 0.255725)
(0.00479422 0.00942009 0.256433)
(0.00616587 0.00925243 0.257476)
(0.00753971 0.00908528 0.258855)
(0.00891846 0.00891863 0.26057)
(0.0103062 0.00875387 0.262619)
(0.0116999 0.008605 0.264999)
(0.0130928 0.00855299 0.267716)
(0.00066741 0.0114056 0.258167)
(0.00201657 0.0112688 0.258117)
(0.00336273 0.0110769 0.258371)
(0.00470844 0.0108833 0.258948)
(0.00605486 0.0106905 0.259849)
(0.00740247 0.0104985 0.261073)
(0.00875374 0.0103063 0.262619)
(0.0101134 0.0101135 0.264484)
(0.0114794 0.00993255 0.266667)
(0.0128489 0.00985776 0.269181)
(0.000656136 0.0129454 0.261447)
(0.0019848 0.0127907 0.261282)
(0.00330936 0.0125731 0.261403)
(0.00463319 0.0123533 0.261836)
(0.00595699 0.0121348 0.26258)
(0.00728058 0.0119174 0.263635)
(0.00860494 0.0116999 0.264999)
(0.00993245 0.0114794 0.266667)
(0.0112616 0.0112617 0.268635)
(0.0126093 0.0111431 0.270927)
(0.000652338 0.0144918 0.265123)
(0.0019752 0.0143189 0.264833)
(0.00329439 0.0140749 0.264808)
(0.00461127 0.0138272 0.265085)
(0.00592702 0.0135807 0.265663)
(0.00724125 0.013336 0.266541)
(0.00855298 0.0130928 0.267716)
(0.00985774 0.0128489 0.269181)
(0.011143 0.0126093 0.270927)
(0.0124452 0.0124453 0.272978)
(0.00112734 0.00112743 0.239818)
(0.00339026 0.00111335 0.24022)
(0.00565566 0.00109426 0.241026)
(0.00792264 0.0010754 0.24224)
(0.0101968 0.00105687 0.243865)
(0.0124781 0.00103845 0.245908)
(0.0147643 0.00101997 0.248372)
(0.01705 0.00100131 0.251263)
(0.0193226 0.000983524 0.254578)
(0.0215544 0.000973461 0.258311)
(0.00111326 0.00339037 0.24022)
(0.00334898 0.00334916 0.240595)
(0.00558735 0.00329301 0.241362)
(0.00782738 0.00323756 0.242524)
(0.0100742 0.00318325 0.244085)
(0.0123281 0.00312965 0.24605)
(0.0145873 0.00307633 0.248423)
(0.016847 0.00302309 0.251208)
(0.019095 0.00297324 0.254405)
(0.0213045 0.00294793 0.258006)
(0.00109423 0.00565562 0.241026)
(0.0032929 0.00558743 0.241362)
(0.00549385 0.005494 0.242078)
(0.00769649 0.00540097 0.243175)
(0.00990533 0.00530923 0.244658)
(0.0121205 0.00521837 0.246531)
(0.0143406 0.00512781 0.248799)
(0.0165613 0.00503732 0.251464)
(0.0187704 0.00495305 0.254526)
(0.020942 0.00491359 0.257979)
(0.00107543 0.00792251 0.24224)
(0.00323757 0.0078273 0.242524)
(0.00540089 0.00769655 0.243175)
(0.00756569 0.00756582 0.244196)
(0.00973598 0.0074362 0.24559)
(0.0119117 0.00730729 0.247361)
(0.0140916 0.00717853 0.249513)
(0.0162719 0.00704978 0.252048)
(0.0184397 0.0069299 0.254966)
(0.0205675 0.00687364 0.258262)
(0.00105689 0.0101966 0.243865)
(0.00318331 0.0100741 0.244085)
(0.00530927 0.00990526 0.244658)
(0.00743613 0.00973603 0.24559)
(0.00956744 0.00956757 0.246883)
(0.0117031 0.00939916 0.248541)
(0.0138422 0.00923019 0.250566)
(0.0159815 0.00906086 0.252961)
(0.0181067 0.00890295 0.255725)
(0.0201876 0.00882708 0.258854)
(0.00103847 0.012478 0.245907)
(0.0031297 0.012328 0.24605)
(0.00521846 0.0121204 0.246531)
(0.00730735 0.0119116 0.247361)
(0.0093991 0.0117032 0.248541)
(0.0114937 0.0114939 0.250073)
(0.0135908 0.0112825 0.251961)
(0.0156879 0.0110693 0.254204)
(0.0177697 0.0108694 0.256802)
(0.0198017 0.01077 0.259756)
(0.00101999 0.0147642 0.248372)
(0.00307638 0.0145872 0.248422)
(0.00512788 0.0143405 0.248799)
(0.00717865 0.0140915 0.249513)
(0.0092303 0.0138422 0.250566)
(0.0112824 0.0135909 0.251961)
(0.0133351 0.0133354 0.253697)
(0.0153876 0.0130747 0.255776)
(0.0174243 0.0128262 0.258196)
(0.0194071 0.0126959 0.260964)
(0.00100132 0.0170499 0.251262)
(0.00302313 0.0168469 0.251207)
(0.00503739 0.0165612 0.251464)
(0.00704989 0.0162718 0.252048)
(0.00906104 0.0159814 0.252961)
(0.0110694 0.0156879 0.254204)
(0.0130745 0.0153877 0.255776)
(0.0150767 0.0150769 0.257677)
(0.0170627 0.0147702 0.259905)
(0.018997 0.0145911 0.262475)
(0.000983536 0.0193226 0.254578)
(0.00297328 0.0190949 0.254404)
(0.00495311 0.0187703 0.254526)
(0.00692997 0.0184396 0.254966)
(0.00890305 0.0181066 0.255725)
(0.0108695 0.0177695 0.256802)
(0.0128262 0.0174241 0.258196)
(0.0147701 0.0170628 0.259905)
(0.0166897 0.0166898 0.261925)
(0.0185737 0.0164277 0.264281)
(0.000973473 0.0215544 0.258311)
(0.00294796 0.0213045 0.258006)
(0.00491364 0.020942 0.257979)
(0.0068737 0.0205675 0.258262)
(0.00882714 0.0201875 0.258854)
(0.0107701 0.0198016 0.259756)
(0.0126959 0.019407 0.260964)
(0.0145911 0.018997 0.262475)
(0.0164277 0.0185738 0.264281)
(0.018223 0.0182231 0.266407)
(0.00149311 0.00149324 0.230223)
(0.00449068 0.00147514 0.230612)
(0.00749574 0.00145094 0.231396)
(0.0105107 0.00142763 0.232578)
(0.0135452 0.00140523 0.23417)
(0.0166012 0.00138338 0.23618)
(0.0196764 0.00136171 0.238625)
(0.0227624 0.00133987 0.241519)
(0.0258391 0.00131895 0.244879)
(0.0288637 0.00130808 0.248719)
(0.001475 0.00449084 0.230612)
(0.00443757 0.00443783 0.230977)
(0.00740761 0.00436662 0.231723)
(0.0103872 0.00429795 0.232856)
(0.0133852 0.00423217 0.234385)
(0.0164038 0.00416844 0.236319)
(0.0194414 0.00410581 0.238673)
(0.0224904 0.00404347 0.24146)
(0.0255315 0.00398492 0.244696)
(0.0285241 0.00395795 0.248393)
(0.0014509 0.00749567 0.231395)
(0.00436646 0.00740771 0.231723)
(0.00728865 0.00728886 0.23242)
(0.0102199 0.007173 0.233493)
(0.013168 0.00706095 0.234948)
(0.0161347 0.00695179 0.236796)
(0.0191188 0.00684414 0.239048)
(0.0221137 0.00673689 0.241719)
(0.0250999 0.00663677 0.244821)
(0.0280385 0.00659437 0.248366)
(0.00142767 0.0105105 0.232578)
(0.00429798 0.010387 0.232856)
(0.0071729 0.01022 0.233493)
(0.010056 0.0100561 0.234494)
(0.0129541 0.00989647 0.235866)
(0.0158686 0.00973998 0.237619)
(0.0187983 0.00958519 0.239763)
(0.0217371 0.00943083 0.242309)
(0.024665 0.00928683 0.245272)
(0.0275413 0.00922503 0.248661)
(0.00140527 0.0135449 0.234169)
(0.00423228 0.013385 0.234385)
(0.00706103 0.0131678 0.234948)
(0.00989641 0.0129541 0.235866)
(0.0127445 0.0127446 0.237145)
(0.0156064 0.0125378 0.238793)
(0.0184811 0.0123321 0.24082)
(0.0213632 0.0121264 0.243235)
(0.0242309 0.0119343 0.246051)
(0.0270407 0.0118486 0.249278)
(0.00138341 0.016601 0.23618)
(0.00416854 0.0164036 0.236319)
(0.00695194 0.0161345 0.236796)
(0.00974011 0.0158685 0.237619)
(0.0125378 0.0156065 0.238793)
(0.015346 0.0153463 0.240326)
(0.0181644 0.0150853 0.242225)
(0.0209884 0.0148228 0.2445)
(0.0237947 0.0145761 0.247161)
(0.0265354 0.0144601 0.25022)
(0.00136174 0.0196761 0.238625)
(0.00410589 0.0194411 0.238672)
(0.00684429 0.0191186 0.239048)
(0.00958541 0.018798 0.239762)
(0.0123323 0.018481 0.24082)
(0.0150853 0.0181646 0.242225)
(0.0178444 0.0178447 0.243986)
(0.0206071 0.017519 0.246111)
(0.02335 0.017208 0.248606)
(0.0260209 0.0170507 0.251489)
(0.0013399 0.0227622 0.241519)
(0.00404355 0.0224902 0.241459)
(0.00673702 0.0221135 0.241718)
(0.00943103 0.0217369 0.242309)
(0.0121267 0.021363 0.243235)
(0.0148229 0.0209883 0.2445)
(0.0175188 0.0206072 0.246111)
(0.0202132 0.0202134 0.248072)
(0.0228856 0.0198242 0.250391)
(0.0254877 0.0196013 0.253087)
(0.00131897 0.0258389 0.244879)
(0.00398499 0.0255314 0.244695)
(0.00663688 0.0250997 0.244821)
(0.00928697 0.0246648 0.245272)
(0.0119345 0.0242307 0.246051)
(0.0145763 0.0237944 0.247161)
(0.017208 0.0233498 0.248606)
(0.019824 0.0228856 0.250391)
(0.022406 0.0224062 0.25252)
(0.0249369 0.0220734 0.255017)
(0.00130811 0.0288636 0.248718)
(0.00395801 0.028524 0.248393)
(0.00659446 0.0280384 0.248366)
(0.00922515 0.0275412 0.24866)
(0.0118487 0.0270405 0.249277)
(0.0144602 0.0265351 0.250219)
(0.0170508 0.0260207 0.251489)
(0.0196013 0.0254876 0.253087)
(0.0220734 0.0249369 0.255016)
(0.024481 0.0244811 0.257302)
(0.00184013 0.0018403 0.218082)
(0.00553581 0.00181883 0.218443)
(0.00924847 0.00179075 0.219171)
(0.0129873 0.00176471 0.220275)
(0.0167699 0.00174073 0.22177)
(0.0206052 0.00171837 0.223675)
(0.0244974 0.00169723 0.226015)
(0.0284442 0.00167688 0.228823)
(0.0324292 0.00165862 0.232135)
(0.0364103 0.00165621 0.235996)
(0.00181866 0.00553602 0.218443)
(0.00547276 0.00547308 0.218781)
(0.00914339 0.00539043 0.219476)
(0.0128391 0.00531365 0.220535)
(0.0165761 0.00524313 0.221972)
(0.0203632 0.00517784 0.223805)
(0.0242052 0.00511664 0.226058)
(0.0281002 0.00505851 0.22876)
(0.0320323 0.00500737 0.231947)
(0.0359621 0.00500273 0.235656)
(0.00179071 0.00924834 0.219171)
(0.00539024 0.0091435 0.219476)
(0.00900474 0.009005 0.220127)
(0.012643 0.00887461 0.221133)
(0.0163195 0.00875324 0.222504)
(0.0200422 0.0086398 0.22426)
(0.0238159 0.00853257 0.226421)
(0.0276394 0.00843009 0.229014)
(0.0314959 0.00833978 0.232071)
(0.0353483 0.00833142 0.235629)
(0.00176478 0.012987 0.220275)
(0.00531372 0.0128388 0.220535)
(0.00887451 0.012643 0.221132)
(0.0124571 0.0124573 0.222075)
(0.0160747 0.0122826 0.223375)
(0.0197344 0.0121178 0.225047)
(0.0234404 0.0119609 0.227111)
(0.0271917 0.0118104 0.229593)
(0.0309701 0.011677 0.232521)
(0.0347377 0.011659 0.235928)
(0.00174079 0.0167695 0.22177)
(0.00524329 0.0165757 0.221972)
(0.00875339 0.0163192 0.222504)
(0.0122826 0.0160747 0.223375)
(0.0158427 0.0158429 0.224594)
(0.0194404 0.0156218 0.226176)
(0.0230797 0.0154095 0.228138)
(0.0267595 0.0152046 0.230504)
(0.030459 0.0150218 0.2333)
(0.0341392 0.0149874 0.236556)
(0.00171842 0.0206048 0.223675)
(0.00517799 0.0203628 0.223805)
(0.00864004 0.0200418 0.22426)
(0.012118 0.0197341 0.225047)
(0.0156218 0.0194405 0.226176)
(0.0191577 0.019158 0.227659)
(0.0227301 0.0188837 0.229512)
(0.0263385 0.0186162 0.231757)
(0.0299591 0.018375 0.234416)
(0.0335512 0.0183155 0.237518)
(0.00169727 0.024497 0.226015)
(0.00511677 0.0242048 0.226058)
(0.0085328 0.0238155 0.22642)
(0.0119613 0.02344 0.227111)
(0.0154098 0.0230794 0.228138)
(0.0188836 0.0227303 0.229512)
(0.0223873 0.0223877 0.231248)
(0.0259222 0.0220486 0.233364)
(0.029463 0.0217358 0.23588)
(0.032969 0.0216368 0.238824)
(0.00167692 0.0284438 0.228822)
(0.00505863 0.0280998 0.22876)
(0.0084303 0.027639 0.229013)
(0.0118107 0.0271913 0.229593)
(0.015205 0.0267591 0.230504)
(0.0186165 0.0263382 0.231756)
(0.0220484 0.0259222 0.233363)
(0.0255032 0.0255035 0.23534)
(0.028958 0.025101 0.237705)
(0.0323811 0.024933 0.240484)
(0.00165866 0.0324289 0.232135)
(0.00500748 0.032032 0.231946)
(0.00833995 0.0314956 0.232071)
(0.0116772 0.0309697 0.232521)
(0.0150221 0.0304586 0.2333)
(0.0183753 0.0299586 0.234416)
(0.0217359 0.0294626 0.23588)
(0.025101 0.028958 0.237705)
(0.0284489 0.028449 0.239906)
(0.0317896 0.0281602 0.24251)
(0.00165625 0.0364101 0.235996)
(0.00500283 0.0359619 0.235656)
(0.00833157 0.0353481 0.235629)
(0.0116592 0.0347375 0.235928)
(0.0149876 0.0341388 0.236555)
(0.0183157 0.0335509 0.237518)
(0.021637 0.0329686 0.238824)
(0.0249332 0.0323809 0.240484)
(0.0281602 0.0317896 0.242509)
(0.0313523 0.0313524 0.24493)
(0.00214969 0.00214989 0.203605)
(0.00646952 0.00212591 0.203915)
(0.0108203 0.00209547 0.204542)
(0.0152215 0.00206868 0.205498)
(0.0197025 0.00204562 0.2068)
(0.0242851 0.00202594 0.208477)
(0.0289877 0.00200935 0.210561)
(0.0338236 0.00199562 0.213098)
(0.0387939 0.00198643 0.216147)
(0.0438747 0.00200267 0.219778)
(0.00212572 0.00646974 0.203915)
(0.00639902 0.00639938 0.204206)
(0.0107021 0.00630969 0.204805)
(0.0150534 0.00623063 0.205723)
(0.0194802 0.00616278 0.206977)
(0.0240036 0.00610524 0.20859)
(0.0286415 0.00605711 0.210597)
(0.0334072 0.00601772 0.213038)
(0.038301 0.00599168 0.215966)
(0.0433017 0.00603579 0.219447)
(0.00209542 0.0108201 0.204542)
(0.00630948 0.0107022 0.204805)
(0.0105508 0.0105511 0.205369)
(0.014838 0.0104157 0.206243)
(0.0191957 0.0102972 0.207443)
(0.0236434 0.0101948 0.208993)
(0.0281984 0.010107 0.210921)
(0.0328737 0.0100328 0.213268)
(0.0376669 0.00998049 0.216081)
(0.0425599 0.0100468 0.21942)
(0.00206876 0.015221 0.205497)
(0.00623072 0.0150531 0.205723)
(0.0104156 0.014838 0.206243)
(0.0146432 0.0146433 0.207067)
(0.0189362 0.0144704 0.20821)
(0.0233126 0.0143182 0.209692)
(0.0277883 0.0141856 0.211542)
(0.0323757 0.014071 0.213796)
(0.0370688 0.0139863 0.216498)
(0.041851 0.0140662 0.219701)
(0.0020457 0.019702 0.2068)
(0.00616298 0.0194797 0.206976)
(0.0102974 0.0191953 0.207443)
(0.0144704 0.0189362 0.20821)
(0.0187029 0.0187031 0.209289)
(0.0230119 0.0184945 0.210701)
(0.0274123 0.0183089 0.21247)
(0.0319154 0.0181454 0.21463)
(0.0365107 0.0180196 0.217223)
(0.0411842 0.0181038 0.220295)
(0.002026 0.0242846 0.208476)
(0.00610544 0.024003 0.20859)
(0.0101951 0.0236428 0.208993)
(0.0143185 0.0233122 0.209692)
(0.0184945 0.0230119 0.2107)
(0.022739 0.0227392 0.212035)
(0.0270668 0.0224917 0.21372)
(0.0314887 0.0222685 0.215785)
(0.035989 0.0220899 0.218268)
(0.0405583 0.0221671 0.221211)
(0.00200941 0.0289871 0.21056)
(0.00605729 0.0286409 0.210596)
(0.0101073 0.0281979 0.210921)
(0.014186 0.0277878 0.211542)
(0.0183093 0.027412 0.21247)
(0.0224917 0.0270669 0.21372)
(0.0267477 0.0267481 0.215314)
(0.0310891 0.026453 0.21728)
(0.0354966 0.0262053 0.21965)
(0.0399685 0.0262581 0.222464)
(0.00199568 0.0338231 0.213098)
(0.00601789 0.0334067 0.213037)
(0.0100331 0.0328731 0.213268)
(0.0140714 0.0323751 0.213796)
(0.018146 0.0319148 0.21463)
(0.0222689 0.0314883 0.215785)
(0.0264529 0.0310891 0.217279)
(0.03071 0.0307102 0.219138)
(0.0350211 0.0303713 0.221391)
(0.0394039 0.0303661 0.224072)
(0.00198648 0.0387935 0.216147)
(0.00599183 0.0383005 0.215966)
(0.00998073 0.0376664 0.216081)
(0.0139866 0.0370682 0.216497)
(0.01802 0.03651 0.217222)
(0.0220903 0.0359882 0.218268)
(0.0262055 0.0354961 0.21965)
(0.0303713 0.035021 0.221391)
(0.0345677 0.0345678 0.223518)
(0.038868 0.0344483 0.226057)
(0.00200272 0.0438743 0.219778)
(0.00603592 0.0433013 0.219447)
(0.010047 0.0425595 0.21942)
(0.0140665 0.0418506 0.219701)
(0.0181041 0.0411837 0.220294)
(0.0221674 0.0405577 0.221211)
(0.0262583 0.039968 0.222464)
(0.0303664 0.0394036 0.224072)
(0.0344484 0.0388679 0.226057)
(0.038585 0.0385851 0.228453)
(0.00239804 0.00239825 0.187139)
(0.00721987 0.00237268 0.187371)
(0.0120888 0.00234126 0.187842)
(0.0170365 0.0023153 0.188563)
(0.0221065 0.002295 0.189555)
(0.027337 0.00228021 0.190844)
(0.0327664 0.00227096 0.192467)
(0.0384324 0.00226747 0.194475)
(0.0443658 0.00227202 0.196935)
(0.050578 0.00231461 0.199932)
(0.00237248 0.00722009 0.187371)
(0.00714455 0.00714492 0.18759)
(0.0119617 0.00705225 0.18804)
(0.0168542 0.00697558 0.188734)
(0.0218625 0.00691579 0.189689)
(0.0270233 0.00687252 0.19093)
(0.0323735 0.00684552 0.192492)
(0.0379494 0.00683508 0.194422)
(0.0437787 0.00684692 0.196781)
(0.0498759 0.00695945 0.199647)
(0.00234122 0.0120886 0.187842)
(0.00705204 0.0119618 0.18804)
(0.0118045 0.0118048 0.188466)
(0.0166285 0.0116721 0.189129)
(0.0215614 0.0115656 0.190046)
(0.0266375 0.0114851 0.191241)
(0.0318919 0.0114302 0.192746)
(0.0373589 0.0114011 0.194604)
(0.0430615 0.0114072 0.196872)
(0.0490174 0.0115784 0.199622)
(0.00231538 0.017036 0.188563)
(0.00697568 0.0168538 0.188734)
(0.0116721 0.0166285 0.189129)
(0.0164356 0.0164358 0.189757)
(0.0213012 0.0162774 0.190635)
(0.0263007 0.0161534 0.191783)
(0.031467 0.0160638 0.193232)
(0.0368324 0.0160085 0.195023)
(0.0424135 0.0160004 0.197208)
(0.0482327 0.0162186 0.19985)
(0.00229508 0.0221059 0.189555)
(0.00691602 0.0218619 0.189689)
(0.0115658 0.021561 0.190046)
(0.0162774 0.0213012 0.190634)
(0.0210834 0.0210835 0.191469)
(0.026014 0.0209075 0.192569)
(0.0311001 0.0207732 0.193963)
(0.0363718 0.0206812 0.195689)
(0.0418382 0.0206478 0.197795)
(0.0475305 0.0209012 0.200339)
(0.00228028 0.0273363 0.190844)
(0.00687274 0.0270226 0.19093)
(0.0114854 0.0266369 0.191241)
(0.0161538 0.0263003 0.191783)
(0.0209076 0.026014 0.192569)
(0.0257759 0.0257762 0.193618)
(0.0307886 0.0255859 0.194956)
(0.0359738 0.0254442 0.196618)
(0.0413329 0.0253718 0.198649)
(0.0469102 0.0256467 0.201099)
(0.00227103 0.0327657 0.192467)
(0.00684572 0.0323729 0.192492)
(0.0114305 0.0318912 0.192746)
(0.0160643 0.0314664 0.193232)
(0.0207737 0.0310997 0.193963)
(0.025586 0.0307887 0.194956)
(0.03053 0.0305303 0.196236)
(0.0356338 0.0303241 0.197833)
(0.040892 0.0301938 0.199788)
(0.0463684 0.030471 0.202148)
(0.00226753 0.0384318 0.194475)
(0.00683527 0.0379488 0.194422)
(0.0114014 0.0373583 0.194604)
(0.016009 0.0368317 0.195023)
(0.0206819 0.0363711 0.195689)
(0.0254447 0.0359733 0.196618)
(0.030324 0.0356338 0.197832)
(0.0353472 0.0353474 0.199361)
(0.0405056 0.0351343 0.20124)
(0.0458966 0.0353784 0.203509)
(0.00227208 0.0443652 0.196934)
(0.00684708 0.0437781 0.196781)
(0.0114075 0.0430609 0.196872)
(0.0160008 0.0424128 0.197207)
(0.0206483 0.0418375 0.197795)
(0.0253723 0.041332 0.198648)
(0.0301941 0.0408913 0.199788)
(0.0351343 0.0405054 0.20124)
(0.0401802 0.0401802 0.203038)
(0.0455018 0.0403346 0.205212)
(0.00231466 0.0505776 0.199932)
(0.0069596 0.0498754 0.199647)
(0.0115786 0.0490169 0.199621)
(0.0162189 0.0482321 0.19985)
(0.0209015 0.0475299 0.200339)
(0.025647 0.0469095 0.201099)
(0.0304713 0.0463678 0.202147)
(0.0353787 0.0458962 0.203508)
(0.0403346 0.0455017 0.205212)
(0.0454915 0.0454916 0.207291)
(0.0025604 0.00256061 0.169194)
(0.0077112 0.00253425 0.169323)
(0.0129233 0.00250275 0.169585)
(0.0182392 0.00247822 0.169991)
(0.0237152 0.00246101 0.170554)
(0.0294058 0.00245128 0.171295)
(0.0353701 0.00244948 0.172242)
(0.0416732 0.00245643 0.173437)
(0.0483816 0.00247522 0.174936)
(0.0555537 0.00254539 0.176816)
(0.00253405 0.00771141 0.169323)
(0.00763337 0.00763373 0.169445)
(0.0127912 0.00754074 0.169697)
(0.0180482 0.00746827 0.170087)
(0.0234571 0.00741762 0.17063)
(0.0290699 0.00738911 0.171343)
(0.034943 0.00738353 0.172254)
(0.0411384 0.00740257 0.1734)
(0.047717 0.00745337 0.174834)
(0.0547401 0.0076368 0.176626)
(0.00250271 0.012923 0.169585)
(0.00754053 0.0127913 0.169697)
(0.0126326 0.0126329 0.169936)
(0.0178191 0.0125063 0.170311)
(0.0231489 0.012414 0.170833)
(0.028671 0.0123567 0.171521)
(0.0344388 0.0123357 0.172401)
(0.0405108 0.0123531 0.173506)
(0.0469405 0.0124198 0.174886)
(0.0537925 0.0126993 0.176605)
(0.00247829 0.0182387 0.169991)
(0.00746837 0.0180479 0.170087)
(0.0125062 0.0178191 0.170311)
(0.0176333 0.0176335 0.170668)
(0.0228955 0.0174934 0.17117)
(0.0283386 0.0174004 0.171834)
(0.0340131 0.017356 0.172684)
(0.039974 0.0173628 0.173753)
(0.0462658 0.0174348 0.175086)
(0.0529607 0.017796 0.176741)
(0.00246109 0.0237146 0.170554)
(0.00741784 0.0234565 0.17063)
(0.0124142 0.0231485 0.170833)
(0.0174935 0.0228954 0.171169)
(0.022699 0.0226991 0.17165)
(0.0280746 0.0225606 0.17229)
(0.0336677 0.0224818 0.173113)
(0.0395299 0.0224661 0.174149)
(0.0456956 0.0225308 0.175441)
(0.0522525 0.0229601 0.17704)
(0.00245135 0.0294051 0.171295)
(0.00738932 0.0290692 0.171343)
(0.0123571 0.0286703 0.171521)
(0.0174007 0.0283382 0.171834)
(0.0225606 0.0280745 0.17229)
(0.027879 0.0278792 0.172906)
(0.0334016 0.0277536 0.173703)
(0.0391768 0.0277014 0.174708)
(0.0452284 0.0277439 0.175962)
(0.0516679 0.0282268 0.177511)
(0.00244954 0.0353694 0.172242)
(0.00738373 0.0349423 0.172254)
(0.0123361 0.0344381 0.1724)
(0.0173565 0.0340125 0.172684)
(0.0224823 0.0336673 0.173113)
(0.0277536 0.0334017 0.173702)
(0.0332148 0.0332152 0.174472)
(0.0389129 0.0331104 0.175448)
(0.0448619 0.0331112 0.176667)
(0.0512062 0.0336281 0.178171)
(0.0024565 0.0416725 0.173437)
(0.00740275 0.0411377 0.1734)
(0.0123534 0.0405101 0.173506)
(0.0173633 0.0399733 0.173753)
(0.0224668 0.0395292 0.174149)
(0.0277019 0.0391763 0.174708)
(0.0331103 0.0389129 0.175448)
(0.0387373 0.0387375 0.176394)
(0.0445904 0.0386709 0.17758)
(0.0508633 0.039188 0.17904)
(0.00247528 0.048381 0.174936)
(0.00745353 0.0477164 0.174834)
(0.01242 0.0469399 0.174886)
(0.0174351 0.0462651 0.175086)
(0.0225313 0.0456948 0.175441)
(0.0277444 0.0452276 0.175962)
(0.0331114 0.0448612 0.176667)
(0.0386709 0.0445902 0.17758)
(0.0444229 0.044423 0.178731)
(0.0506516 0.0448881 0.180147)
(0.00254544 0.0555532 0.176816)
(0.00763694 0.0547395 0.176626)
(0.0126995 0.053792 0.176605)
(0.0177963 0.0529601 0.176741)
(0.0229605 0.0522519 0.17704)
(0.0282271 0.0516672 0.177511)
(0.0336284 0.0512056 0.17817)
(0.0391882 0.0508629 0.17904)
(0.0448882 0.0506514 0.180147)
(0.0509666 0.0509667 0.181522)
(0.00261725 0.00261744 0.150437)
(0.00788339 0.00259084 0.150448)
(0.0132181 0.00255951 0.150469)
(0.0186697 0.00253579 0.150505)
(0.0243013 0.00252019 0.150559)
(0.0301774 0.00251313 0.150637)
(0.0363715 0.00251544 0.150749)
(0.0429688 0.00252854 0.15091)
(0.0500653 0.00255612 0.151144)
(0.0577612 0.00264521 0.151487)
(0.00259065 0.0078836 0.150448)
(0.00780471 0.00780505 0.150458)
(0.0130841 0.00771248 0.150479)
(0.0184751 0.00764246 0.150513)
(0.0240371 0.00759663 0.150565)
(0.0298313 0.00757596 0.150639)
(0.0359277 0.00758218 0.150745)