/*--------------------------------*- C++ -*----------------------------------*\
| =========                 |                                                 |
| \\      /  F ield         | foam-extend: Open Source CFD                    |
|  \\    /   O peration     | Version:     3.1                                |
|   \\  /    A nd           | Web:         http://www.extend-project.de       |
|    \\/     M anipulation  |                                                 |
\*---------------------------------------------------------------------------*/
FoamFile
{
    version     2.0;
    format      ascii;
    class       volVectorField;
    location    "0.0014";
    object      U_0;
}
// * * * * * * * * * * * * * * * * * * * * * * * * * * * * * * * * * * * * * //

dimensions      [0 1 -1 0 0 0 0];

internalField   nonuniform List<vector> 
16000
(
(0.000229964 0.00023016 0.245539)
(0.000688009 0.000228982 0.245967)
(0.00113975 0.000228201 0.246828)
(0.00158496 0.000229278 0.248124)
(0.00202586 0.000232418 0.249862)
(0.00246447 0.000237619 0.25205)
(0.00290294 0.000244906 0.2547)
(0.00334427 0.000254209 0.257828)
(0.0037947 0.000264921 0.261458)
(0.00426153 0.000258769 0.265626)
(0.000228792 0.000688306 0.245967)
(0.000684758 0.00068512 0.246366)
(0.0011347 0.000682603 0.247183)
(0.00157877 0.00068466 0.248421)
(0.00201867 0.000692105 0.250086)
(0.0024562 0.0007053 0.252185)
(0.00289335 0.000724456 0.25473)
(0.00333246 0.000749457 0.257737)
(0.00378066 0.000778888 0.261226)
(0.00423373 0.00075991 0.265231)
(0.000228115 0.00113972 0.246828)
(0.000682342 0.00113487 0.247183)
(0.00112985 0.00113016 0.247942)
(0.00157207 0.00113103 0.249109)
(0.00201024 0.00113878 0.250689)
(0.00244562 0.00115448 0.252688)
(0.00287959 0.00117877 0.255118)
(0.00331348 0.00121153 0.257991)
(0.00375544 0.00125058 0.261327)
(0.00418676 0.00120609 0.265159)
(0.000229303 0.00158463 0.248124)
(0.000684631 0.00157862 0.248421)
(0.00113083 0.00157218 0.249109)
(0.00157178 0.00157204 0.250193)
(0.00200903 0.00157947 0.251677)
(0.00244331 0.00159615 0.253568)
(0.00287511 0.00162352 0.255874)
(0.00330438 0.0016617 0.258607)
(0.00374044 0.00170773 0.261787)
(0.00414684 0.00163312 0.265445)
(0.000232471 0.00202543 0.249862)
(0.000692221 0.00201832 0.250086)
(0.00113881 0.00201009 0.250689)
(0.00157931 0.00200915 0.251677)
(0.00201623 0.00201651 0.253055)
(0.00245035 0.00203412 0.254826)
(0.00288128 0.00206422 0.257)
(0.00330722 0.00210775 0.259588)
(0.00373844 0.00216128 0.262605)
(0.00411775 0.00205634 0.266089)
(0.000237664 0.00246405 0.25205)
(0.00070544 0.00245582 0.252185)
(0.00115466 0.00244532 0.252688)
(0.00159624 0.00244321 0.253568)
(0.00203395 0.00245056 0.254826)
(0.00246916 0.00246955 0.256468)
(0.00290111 0.00250322 0.258501)
(0.0033261 0.00255385 0.260935)
(0.00375465 0.00261832 0.263784)
(0.00410494 0.00248724 0.267092)
(0.000244944 0.00290255 0.2547)
(0.00072458 0.00289299 0.25473)
(0.00117898 0.00287927 0.255118)
(0.00162379 0.00287487 0.255874)
(0.00206437 0.00288125 0.257)
(0.00250296 0.0029014 0.258501)
(0.0029392 0.0029397 0.260383)
(0.00336779 0.00300061 0.262656)
(0.00379839 0.00308302 0.265333)
(0.0041186 0.002937 0.268464)
(0.000254241 0.00334396 0.257828)
(0.000749563 0.00333216 0.257737)
(0.00121171 0.00331319 0.257991)
(0.00166198 0.00330409 0.258607)
(0.00210808 0.00330694 0.259588)
(0.00255386 0.00332595 0.260935)
(0.00300017 0.00336791 0.262656)
(0.00344127 0.00344163 0.26476)
(0.00388534 0.00355266 0.26726)
(0.00417999 0.00341615 0.270217)
(0.000264949 0.00379449 0.261458)
(0.000778974 0.00378045 0.261226)
(0.00125072 0.00375523 0.261327)
(0.00170792 0.00374019 0.261787)
(0.00216152 0.0037381 0.262605)
(0.00261842 0.00375422 0.263784)
(0.00308281 0.00379806 0.265333)
(0.00355233 0.00388532 0.26726)
(0.00403672 0.00403691 0.269581)
(0.00433473 0.00394723 0.27237)
(0.000258793 0.00426142 0.265626)
(0.000759981 0.00423362 0.265231)
(0.0012062 0.00418664 0.265159)
(0.00163326 0.00414668 0.265445)
(0.00205649 0.00411754 0.266089)
(0.00248736 0.00410462 0.267092)
(0.00293702 0.00411826 0.268464)
(0.00341606 0.0041798 0.270217)
(0.00394704 0.00433471 0.27237)
(0.00446864 0.00446875 0.275001)
(0.000465801 0.000465824 0.243483)
(0.00140028 0.000459741 0.243916)
(0.0023343 0.000451488 0.244786)
(0.00326657 0.000443235 0.246096)
(0.0041993 0.000435106 0.247852)
(0.00513393 0.000427167 0.250059)
(0.00607355 0.000419589 0.252726)
(0.00702444 0.00041272 0.255864)
(0.00799811 0.000407532 0.259483)
(0.00901318 0.000408087 0.263592)
(0.000459718 0.00140031 0.243916)
(0.00138255 0.00138259 0.244322)
(0.00230514 0.00135852 0.245151)
(0.00322619 0.00133461 0.246407)
(0.0041478 0.00131125 0.248095)
(0.00507138 0.00128865 0.25022)
(0.00599992 0.00126726 0.252792)
(0.00693923 0.00124797 0.25582)
(0.00790005 0.00123335 0.259314)
(0.00889907 0.00123402 0.263282)
(0.000451482 0.0023343 0.244786)
(0.0013585 0.00230516 0.245151)
(0.00226548 0.00226552 0.245924)
(0.00317119 0.00222609 0.247111)
(0.00407752 0.00218757 0.248715)
(0.00498587 0.00215036 0.250743)
(0.00589917 0.00211516 0.253202)
(0.00682294 0.0020833 0.256102)
(0.00776729 0.00205883 0.259454)
(0.00874733 0.00205876 0.263263)
(0.000443242 0.00326654 0.246096)
(0.00133461 0.00322618 0.246407)
(0.00222606 0.0031712 0.247111)
(0.00311656 0.00311659 0.248214)
(0.00400783 0.0030633 0.249722)
(0.00490127 0.00301193 0.25164)
(0.00579983 0.00296349 0.253975)
(0.00670886 0.00291971 0.256737)
(0.00763795 0.00288596 0.259935)
(0.00860069 0.00288474 0.263578)
(0.000435111 0.00419926 0.247852)
(0.00131126 0.00414776 0.248094)
(0.00218757 0.0040775 0.248715)
(0.00306328 0.00400784 0.249722)
(0.00393997 0.00394002 0.251121)
(0.00481916 0.00387478 0.252916)
(0.00570392 0.00381347 0.255116)
(0.00659949 0.00375831 0.257728)
(0.007515 0.00371595 0.260763)
(0.00846296 0.00371411 0.26423)
(0.000427171 0.0051339 0.250059)
(0.00128866 0.00507135 0.25022)
(0.00215038 0.00498584 0.250743)
(0.00301194 0.00490126 0.25164)
(0.00387476 0.00481919 0.252916)
(0.00474051 0.00474058 0.254577)
(0.00561257 0.00466697 0.256629)
(0.00649619 0.00460107 0.259079)
(0.00740006 0.00455097 0.261939)
(0.0083361 0.00454975 0.265222)
(0.000419593 0.00607352 0.252726)
(0.00126727 0.00599989 0.252792)
(0.00211518 0.00589915 0.253202)
(0.00296351 0.00579981 0.253975)
(0.00381349 0.00570392 0.255116)
(0.00466693 0.00561262 0.256629)
(0.00552754 0.00552763 0.258519)
(0.00640083 0.00545188 0.260794)
(0.00729526 0.00539473 0.263465)
(0.0082227 0.00539532 0.266552)
(0.000412723 0.00702443 0.255864)
(0.00124798 0.00693922 0.25582)
(0.00208331 0.00682293 0.256102)
(0.00291973 0.00670884 0.256737)
(0.00375834 0.00659946 0.257728)
(0.00460107 0.00649617 0.259079)
(0.0054518 0.00640085 0.260794)
(0.00631616 0.00631623 0.262879)
(0.00720303 0.00625183 0.265345)
(0.00812603 0.00625349 0.268219)
(0.000407535 0.00799811 0.259483)
(0.00123336 0.00790005 0.259314)
(0.00205884 0.00776728 0.259454)
(0.00288597 0.00763794 0.259935)
(0.00371597 0.00751497 0.260763)
(0.00455097 0.0074 0.261939)
(0.00539468 0.00729521 0.263465)
(0.00625177 0.00720303 0.265345)
(0.00713176 0.0071318 0.267584)
(0.00805609 0.00712796 0.270219)
(0.000408089 0.0090132 0.263592)
(0.00123402 0.00889909 0.263282)
(0.00205877 0.00874734 0.263263)
(0.00288475 0.0086007 0.263578)
(0.00371412 0.00846296 0.26423)
(0.00454974 0.00833608 0.265222)
(0.0053953 0.00822266 0.266552)
(0.00625346 0.00812602 0.268219)
(0.00712791 0.0080561 0.270219)
(0.00805311 0.00805314 0.272584)
(0.000853933 0.000853979 0.238573)
(0.00256815 0.000843349 0.239007)
(0.00428569 0.00082905 0.239879)
(0.00600669 0.000814985 0.241193)
(0.00773623 0.000801235 0.242953)
(0.00947624 0.000787721 0.245166)
(0.0112282 0.00077442 0.247839)
(0.0129933 0.000761423 0.250975)
(0.0147707 0.000749758 0.254578)
(0.0165534 0.000746685 0.25864)
(0.000843303 0.00256821 0.239007)
(0.00253693 0.00253702 0.239413)
(0.00423385 0.00249495 0.240244)
(0.00593416 0.00245367 0.241502)
(0.00764268 0.00241355 0.243192)
(0.00936139 0.00237441 0.245321)
(0.011092 0.00233622 0.247894)
(0.0128358 0.00229926 0.250917)
(0.0145917 0.00226645 0.254392)
(0.0163532 0.00225852 0.258311)
(0.000829039 0.00428567 0.239879)
(0.00249489 0.00423389 0.240244)
(0.00416365 0.00416373 0.241018)
(0.00583571 0.00409451 0.242206)
(0.00751543 0.00402689 0.243813)
(0.00920469 0.00396077 0.245843)
(0.0109053 0.00389611 0.248302)
(0.0126189 0.00383336 0.251195)
(0.0143437 0.00377755 0.254524)
(0.0160738 0.00376445 0.258283)
(0.000814999 0.00600662 0.241193)
(0.00245368 0.00593412 0.241502)
(0.00409446 0.00583574 0.242206)
(0.00573833 0.0057384 0.243311)
(0.00738927 0.00564298 0.244821)
(0.00904905 0.00554941 0.246741)
(0.0107196 0.00545773 0.249075)
(0.0124026 0.00536859 0.251828)
(0.0140956 0.00528892 0.255001)
(0.015792 0.00526848 0.258589)
(0.000801247 0.00773616 0.242953)
(0.00241358 0.0076426 0.243192)
(0.00402691 0.00751539 0.243812)
(0.00564295 0.0073893 0.244821)
(0.00726529 0.00726537 0.246222)
(0.00889573 0.00714337 0.248019)
(0.0105363 0.00702341 0.250217)
(0.0121892 0.00690641 0.252817)
(0.0138504 0.00680129 0.255823)
(0.0155126 0.00677152 0.259231)
(0.000787728 0.00947617 0.245166)
(0.00237444 0.00936133 0.245321)
(0.00396081 0.00920463 0.245842)
(0.00554943 0.00904901 0.246741)
(0.00714334 0.00889578 0.248019)
(0.00874432 0.00874443 0.249681)
(0.0103548 0.00859477 0.251728)
(0.0119775 0.00844788 0.254164)
(0.0136072 0.00831482 0.25699)
(0.0152355 0.00827323 0.260207)
(0.000774427 0.0112281 0.247838)
(0.00233624 0.0110919 0.247894)
(0.00389614 0.0109053 0.248302)
(0.00545779 0.0107195 0.249075)
(0.00702346 0.0105363 0.250217)
(0.00859471 0.0103549 0.251728)
(0.0101744 0.0101745 0.253612)
(0.0117659 0.00999548 0.255869)
(0.0133638 0.00983041 0.258501)
(0.0149593 0.00977227 0.261515)
(0.00076143 0.0129933 0.250975)
(0.00229928 0.0128357 0.250917)
(0.00383339 0.0126188 0.251195)
(0.00536864 0.0124026 0.251828)
(0.0069065 0.0121891 0.252817)
(0.00844791 0.0119775 0.254164)
(0.00999537 0.011766 0.255869)
(0.011553 0.0115531 0.257932)
(0.0131161 0.0113498 0.260354)
(0.0146802 0.0112635 0.26315)
(0.000749763 0.0147707 0.254578)
(0.00226647 0.0145917 0.254392)
(0.00377758 0.0143437 0.254524)
(0.00528895 0.0140956 0.255001)
(0.00680134 0.0138504 0.255823)
(0.00831485 0.0136071 0.25699)
(0.00983036 0.0133637 0.258501)
(0.0113497 0.0131161 0.260354)
(0.0128685 0.0128686 0.262548)
(0.0144015 0.0127319 0.265107)
(0.00074669 0.0165534 0.25864)
(0.00225854 0.0163533 0.258311)
(0.00376447 0.0160738 0.258283)
(0.0052685 0.015792 0.258589)
(0.00677154 0.0155126 0.259231)
(0.00827324 0.0152355 0.260207)
(0.00977227 0.0149592 0.261515)
(0.0112635 0.0146802 0.26315)
(0.0127319 0.0144015 0.265107)
(0.0142064 0.0142064 0.26741)
(0.00125185 0.00125194 0.230814)
(0.00376529 0.0012369 0.231238)
(0.00628705 0.00121696 0.232092)
(0.00882034 0.00119786 0.23338)
(0.0113742 0.00117962 0.235111)
(0.0139519 0.00116198 0.237293)
(0.0165537 0.00114468 0.239939)
(0.0191758 0.00112749 0.24306)
(0.0218057 0.00111138 0.246666)
(0.0244136 0.00110547 0.250761)
(0.00123681 0.0037654 0.231238)
(0.00372107 0.00372124 0.231635)
(0.00621336 0.00366246 0.232449)
(0.00871671 0.0036062 0.233683)
(0.0112396 0.00355268 0.235345)
(0.0137853 0.00350128 0.237444)
(0.0163546 0.00345134 0.239991)
(0.0189443 0.00340235 0.242997)
(0.0215423 0.00335722 0.246472)
(0.0241209 0.0033426 0.250418)
(0.00121694 0.006287 0.232092)
(0.00366236 0.00621343 0.232449)
(0.00611483 0.00611498 0.233208)
(0.00857771 0.00601981 0.234375)
(0.0110586 0.0059285 0.235956)
(0.0135604 0.00584031 0.23796)
(0.0160844 0.00575425 0.240396)
(0.0186277 0.00566962 0.243275)
(0.021178 0.00559181 0.246604)
(0.0237092 0.00556803 0.250389)
(0.00119789 0.00882019 0.23338)
(0.00360622 0.00871661 0.233683)
(0.00601974 0.00857775 0.234375)
(0.00844268 0.0084428 0.235462)
(0.0108819 0.00831238 0.236952)
(0.01334 0.00818567 0.23885)
(0.0158181 0.00806158 0.241166)
(0.018314 0.00793932 0.243908)
(0.0208144 0.00782665 0.247085)
(0.0232922 0.00779001 0.2507)
(0.00117965 0.011374 0.235111)
(0.00355275 0.0112394 0.235344)
(0.00592855 0.0110585 0.235956)
(0.00831233 0.0108819 0.236952)
(0.0107102 0.0107103 0.238337)
(0.0131247 0.0105424 0.240119)
(0.0155569 0.010377 0.242304)
(0.0180052 0.0102135 0.244901)
(0.0204546 0.0100623 0.247916)
(0.0228762 0.0100086 0.251354)
(0.001162 0.0139517 0.237293)
(0.00350135 0.0137851 0.237444)
(0.0058404 0.0135603 0.237959)
(0.00818574 0.0133399 0.23885)
(0.0105424 0.0131247 0.240119)
(0.0129128 0.0129129 0.241772)
(0.0152984 0.0127026 0.243815)
(0.0176983 0.012493 0.246255)
(0.0200959 0.0122978 0.249097)
(0.02246 0.0122215 0.25235)
(0.00114469 0.0165535 0.239939)
(0.00345139 0.0163544 0.239991)
(0.00575434 0.0160842 0.240396)
(0.00806172 0.015818 0.241166)
(0.0103772 0.0155569 0.242304)
(0.0127025 0.0152985 0.243815)
(0.0150396 0.0150399 0.245703)
(0.0173889 0.014779 0.247974)
(0.0197335 0.0145316 0.250632)
(0.0220397 0.0144234 0.25369)
(0.00112751 0.0191756 0.24306)
(0.00340241 0.0189442 0.242997)
(0.00566971 0.0186276 0.243274)
(0.00793945 0.0183139 0.243908)
(0.0102137 0.018005 0.244901)
(0.0124931 0.0176982 0.246255)
(0.0147789 0.017389 0.247974)
(0.0170723 0.0170724 0.250062)
(0.0193582 0.0167614 0.252522)
(0.0216071 0.0166016 0.255372)
(0.00111139 0.0218056 0.246666)
(0.00335726 0.0215423 0.246471)
(0.00559188 0.0211779 0.246604)
(0.00782674 0.0208143 0.247085)
(0.0100624 0.0204544 0.247915)
(0.0122979 0.0200957 0.249097)
(0.0145315 0.0197333 0.250632)
(0.0167613 0.0193582 0.252522)
(0.0189731 0.0189732 0.254767)
(0.0211625 0.0187264 0.257394)
(0.00110548 0.0244136 0.250761)
(0.00334264 0.0241209 0.250418)
(0.00556809 0.0237091 0.250389)
(0.00779007 0.0232921 0.2507)
(0.0100087 0.0228761 0.251353)
(0.0122216 0.0224599 0.25235)
(0.0144235 0.0220396 0.25369)
(0.0166016 0.0216071 0.255372)
(0.0187263 0.0211625 0.257394)
(0.0208129 0.0208129 0.259783)
(0.00163459 0.00163472 0.220233)
(0.00491755 0.00161576 0.220632)
(0.00821711 0.0015911 0.221437)
(0.0115422 0.00156829 0.222656)
(0.0149085 0.0015473 0.2243)
(0.0183243 0.00152774 0.226387)
(0.0217934 0.00150922 0.228937)
(0.0253134 0.00149134 0.231977)
(0.0288693 0.00147515 0.235535)
(0.0324223 0.00147335 0.239641)
(0.00161564 0.0049177 0.220632)
(0.00486177 0.00486202 0.221007)
(0.00812385 0.00478929 0.221774)
(0.0114103 0.00472197 0.222942)
(0.0147357 0.00466022 0.224522)
(0.0181083 0.00460311 0.22653)
(0.0215323 0.00454953 0.228985)
(0.0250061 0.00449852 0.231912)
(0.0285149 0.00445323 0.235337)
(0.032023 0.00444993 0.239287)
(0.00159107 0.00821701 0.221437)
(0.00478915 0.00812393 0.221774)
(0.00800147 0.00800167 0.222492)
(0.0112367 0.00788702 0.223599)
(0.014508 0.00778052 0.225106)
(0.0178229 0.00768102 0.227026)
(0.0211858 0.00758691 0.229378)
(0.0245954 0.00749673 0.232185)
(0.0280366 0.00741647 0.235469)
(0.0314757 0.00740981 0.239257)
(0.00156834 0.0115419 0.222656)
(0.00472201 0.0114101 0.222942)
(0.00788694 0.0112367 0.223599)
(0.0110728 0.0110729 0.224635)
(0.0142916 0.0109192 0.226059)
(0.0175499 0.0107742 0.227884)
(0.020852 0.0106361 0.230127)
(0.024197 0.0105032 0.232808)
(0.027568 0.0103842 0.235949)
(0.0309315 0.0103686 0.239573)
(0.00154734 0.0149082 0.2243)
(0.00466034 0.0147354 0.224522)
(0.00778062 0.0145078 0.225105)
(0.0109192 0.0142916 0.226059)
(0.0140867 0.0140869 0.22739)
(0.0172896 0.0138918 0.229111)
(0.0205318 0.0137043 0.231238)
(0.0238124 0.0135227 0.233787)
(0.0271126 0.0133591 0.236779)
(0.0303974 0.013328 0.240236)
(0.00152777 0.018324 0.226387)
(0.00460322 0.018108 0.22653)
(0.00768119 0.0178226 0.227026)
(0.0107743 0.0175498 0.227884)
(0.0138918 0.0172897 0.229111)
(0.0170394 0.0170396 0.230719)
(0.0202214 0.0167965 0.232719)
(0.0234376 0.0165588 0.235129)
(0.0266666 0.016342 0.237965)
(0.0298718 0.0162872 0.241251)
(0.00150925 0.0217931 0.228937)
(0.00454963 0.021532 0.228985)
(0.00758708 0.0211855 0.229378)
(0.0106363 0.0208518 0.230127)
(0.0137045 0.0205316 0.231238)
(0.0167965 0.0202215 0.232719)
(0.0199166 0.0199169 0.234583)
(0.0230663 0.0196145 0.236844)
(0.026223 0.0193327 0.239516)
(0.0293494 0.0192407 0.242623)
(0.00149137 0.0253132 0.231977)
(0.00449861 0.0250058 0.231912)
(0.00749688 0.0245951 0.232184)
(0.0105034 0.0241967 0.232808)
(0.0135231 0.0238121 0.233787)
(0.016559 0.0234374 0.235129)
(0.0196144 0.0230664 0.236843)
(0.0226916 0.0226918 0.238942)
(0.0257699 0.0223287 0.24144)
(0.0288191 0.0221729 0.244359)
(0.00147517 0.0288691 0.235535)
(0.00445331 0.0285147 0.235336)
(0.00741659 0.0280363 0.235469)
(0.0103844 0.0275678 0.235949)
(0.0133593 0.0271123 0.236779)
(0.0163423 0.0266662 0.237965)
(0.0193328 0.0262227 0.239516)
(0.0223286 0.0257698 0.241439)
(0.02531 0.0253101 0.243747)
(0.0282804 0.0250451 0.246467)
(0.00147338 0.0324222 0.239641)
(0.00445 0.0320228 0.239287)
(0.00740991 0.0314756 0.239257)
(0.0103687 0.0309313 0.239573)
(0.0133282 0.0303972 0.240236)
(0.0162874 0.0298715 0.24125)
(0.0192409 0.0293491 0.242623)
(0.022173 0.0288189 0.244359)
(0.0250451 0.0282804 0.246467)
(0.0278785 0.0278786 0.248975)
(0.00198408 0.00198425 0.207032)
(0.00597094 0.00196217 0.207385)
(0.0099869 0.00193419 0.208099)
(0.01405 0.00190951 0.209183)
(0.0181864 0.00188815 0.210656)
(0.0224147 0.00186972 0.212541)
(0.0267497 0.00185385 0.21487)
(0.0312001 0.00184022 0.217683)
(0.0357616 0.00183017 0.22103)
(0.0404043 0.00184238 0.224971)
(0.00196201 0.00597113 0.207385)
(0.00590592 0.00590623 0.207717)
(0.00987767 0.00582365 0.208398)
(0.0138944 0.00575076 0.209439)
(0.0179805 0.00568787 0.210855)
(0.022154 0.00563396 0.21267)
(0.0264296 0.00558797 0.214912)
(0.0308162 0.00554895 0.217618)
(0.035309 0.00552071 0.220836)
(0.0398816 0.00555436 0.224619)
(0.00193415 0.00998676 0.208099)
(0.00582347 0.00987775 0.208398)
(0.00973808 0.00973831 0.209037)
(0.0136951 0.0096132 0.210027)
(0.0177168 0.00950317 0.211381)
(0.02182 0.00940708 0.213121)
(0.0260188 0.0093233 0.215273)
(0.0303219 0.00925036 0.217872)
(0.0347229 0.00919514 0.220961)
(0.0391982 0.00924517 0.22459)
(0.00190958 0.0140496 0.209183)
(0.00575084 0.0138941 0.209439)
(0.00961312 0.0136951 0.210027)
(0.0135147 0.0135148 0.210957)
(0.017476 0.0133538 0.212243)
(0.0215124 0.0132109 0.213903)
(0.0256371 0.0130842 0.215963)
(0.0298585 0.0129719 0.218454)
(0.0341672 0.0128839 0.221416)
(0.0385408 0.0129422 0.224894)
(0.00188821 0.0181859 0.210656)
(0.00568804 0.01798 0.210855)
(0.00950333 0.0177165 0.211381)
(0.0133538 0.0174759 0.212242)
(0.0172583 0.0172584 0.213452)
(0.0212312 0.017062 0.215027)
(0.025285 0.0168847 0.216991)
(0.0294275 0.0167248 0.219372)
(0.0336451 0.0165957 0.222207)
(0.0379174 0.0166533 0.225536)
(0.00186977 0.0224142 0.212541)
(0.00563412 0.0221535 0.21267)
(0.00940733 0.0218196 0.21312)
(0.0132111 0.0215121 0.213903)
(0.017062 0.0212312 0.215027)
(0.0209738 0.020974 0.21651)
(0.0249586 0.0207373 0.218371)
(0.0290242 0.0205195 0.220638)
(0.0331527 0.020338 0.223343)
(0.0373261 0.0203837 0.226524)
(0.0018539 0.0267492 0.21487)
(0.00558811 0.0264291 0.214911)
(0.00932355 0.0260183 0.215273)
(0.0130845 0.0256366 0.215963)
(0.016885 0.0252848 0.216991)
(0.0207373 0.0249588 0.218371)
(0.0246534 0.0246537 0.220123)
(0.028642 0.0243663 0.222269)
(0.0326823 0.0241168 0.22484)
(0.0367615 0.0241338 0.227869)
(0.00184027 0.0311997 0.217683)
(0.00554909 0.0308158 0.217618)
(0.00925059 0.0303215 0.217872)
(0.0129723 0.0298581 0.218454)
(0.0167253 0.029427 0.219372)
(0.0205199 0.0290238 0.220638)
(0.0243662 0.028642 0.222269)
(0.0282734 0.0282736 0.224286)
(0.0322213 0.0279354 0.226715)
(0.0362115 0.0278918 0.229588)
(0.00183021 0.0357612 0.221029)
(0.00552082 0.0353087 0.220835)
(0.00919533 0.0347225 0.220961)
(0.0128842 0.0341668 0.221416)
(0.016596 0.0336446 0.222207)
(0.0203384 0.033152 0.223343)
(0.024117 0.0326818 0.22484)
(0.0279354 0.0322212 0.226715)
(0.0317729 0.0317729 0.228991)
(0.0356772 0.0316162 0.231699)
(0.00184242 0.040404 0.224971)
(0.00555446 0.0398813 0.224619)
(0.00924533 0.0391979 0.224589)
(0.0129424 0.0385405 0.224894)
(0.0166535 0.037917 0.225536)
(0.0203839 0.0373257 0.226523)
(0.024134 0.036761 0.227869)
(0.0278919 0.0362113 0.229588)
(0.0316162 0.0356771 0.231698)
(0.0353611 0.0353612 0.234234)
(0.00227764 0.00227782 0.191538)
(0.00685703 0.00225357 0.191819)
(0.0114811 0.00222374 0.192388)
(0.0161795 0.00219901 0.193258)
(0.0209919 0.00217946 0.194447)
(0.0259523 0.00216487 0.195983)
(0.0310933 0.00215511 0.197903)
(0.0364448 0.00215019 0.200256)
(0.0420272 0.00215203 0.203108)
(0.0478393 0.00218762 0.20654)
(0.00225338 0.00685723 0.191819)
(0.00678547 0.00678581 0.192084)
(0.0113602 0.00669775 0.192628)
(0.0160058 0.00662463 0.193463)
(0.0207596 0.00656703 0.194608)
(0.0256539 0.00652429 0.196087)
(0.0307205 0.00649585 0.197935)
(0.0359882 0.00648149 0.200198)
(0.0414753 0.00648609 0.202935)
(0.0471838 0.00658078 0.206222)
(0.00222371 0.0114809 0.192388)
(0.00669757 0.0113603 0.192628)
(0.0112105 0.0112108 0.19314)
(0.0157907 0.011084 0.193937)
(0.0204722 0.0109812 0.195034)
(0.0252856 0.0109018 0.196456)
(0.0302609 0.0108449 0.198234)
(0.0354257 0.0108099 0.20041)
(0.0407942 0.010805 0.203041)
(0.0463719 0.0109488 0.206194)
(0.00219908 0.016179 0.193258)
(0.00662473 0.0160055 0.193463)
(0.011084 0.0157906 0.193937)
(0.015606 0.0156061 0.194689)
(0.0202226 0.015453 0.195736)
(0.0249621 0.0153307 0.197098)
(0.0298528 0.0152385 0.198806)
(0.0349205 0.0151755 0.2009)
(0.0401742 0.015153 0.20343)
(0.0456229 0.0153347 0.206458)
(0.00217954 0.0209914 0.194447)
(0.00656724 0.020759 0.194607)
(0.0109815 0.0204718 0.195034)
(0.015453 0.0202225 0.195736)
(0.0200116 0.0200117 0.196727)
(0.024684 0.0198381 0.198027)
(0.0294967 0.0197007 0.199665)
(0.0344739 0.0195993 0.201676)
(0.039618 0.0195484 0.204109)
(0.0449448 0.0197564 0.207018)
(0.00216493 0.0259517 0.195983)
(0.00652449 0.0256533 0.196086)
(0.0109022 0.025285 0.196455)
(0.0153311 0.0249617 0.197098)
(0.0198381 0.024684 0.198027)
(0.0244491 0.0244493 0.199261)
(0.0291895 0.0242558 0.200826)
(0.034082 0.0241031 0.202755)
(0.0391222 0.0240101 0.205091)
(0.044336 0.0242308 0.207886)
(0.00215517 0.0310926 0.197902)
(0.00649603 0.0307199 0.197934)
(0.0108452 0.0302603 0.198233)
(0.015239 0.0298522 0.198806)
(0.0197012 0.0294963 0.199664)
(0.0242558 0.0291895 0.200825)
(0.0289275 0.0289279 0.202313)
(0.0337392 0.0287094 0.204157)
(0.0386804 0.0285557 0.206397)
(0.0437921 0.0287698 0.209078)
(0.00215025 0.0364442 0.200256)
(0.00648167 0.0359876 0.200197)
(0.0108102 0.035425 0.20041)
(0.015176 0.0349198 0.2009)
(0.0196 0.0344732 0.201676)
(0.0241036 0.0340815 0.202754)
(0.0287093 0.0337391 0.204156)
(0.0334394 0.0334396 0.20591)
(0.0382813 0.0332009 0.20805)
(0.0433029 0.0333733 0.210617)
(0.00215208 0.0420267 0.203108)
(0.00648624 0.0414747 0.202935)
(0.0108053 0.0407936 0.203041)
(0.0151533 0.0401736 0.20343)
(0.0195489 0.0396173 0.204108)
(0.0240105 0.0391214 0.205091)
(0.0285559 0.0386798 0.206397)
(0.0332009 0.0382811 0.20805)
(0.0379296 0.0379295 0.210084)
(0.0428724 0.0380049 0.21253)
(0.00218767 0.0478388 0.20654)
(0.00658091 0.0471834 0.206222)
(0.010949 0.0463714 0.206194)
(0.015335 0.0456224 0.206457)
(0.0197567 0.0449442 0.207017)
(0.0242311 0.0443354 0.207885)
(0.02877 0.0437915 0.209078)
(0.0333736 0.0433025 0.210617)
(0.038005 0.0428722 0.21253)
(0.0427804 0.0427804 0.214854)
(0.00249001 0.0024902 0.174234)
(0.00749901 0.00246465 0.174417)
(0.0125679 0.00243416 0.174787)
(0.0177379 0.00241042 0.175356)
(0.0230625 0.00239369 0.176141)
(0.0285925 0.00238402 0.177163)
(0.0343818 0.00238169 0.178458)
(0.0404877 0.0023873 0.18007)
(0.0469655 0.00240356 0.182062)
(0.0538586 0.00246709 0.18452)
(0.00246447 0.00749921 0.174417)
(0.00742351 0.00742384 0.174589)
(0.0124396 0.00733374 0.174944)
(0.0175522 0.00726354 0.175491)
(0.0228115 0.00721425 0.176246)
(0.0282661 0.00718588 0.177231)
(0.0339674 0.00717882 0.178476)
(0.0399702 0.00719417 0.180025)
(0.0463252 0.00723836 0.181934)
(0.0530788 0.00740524 0.184281)
(0.00243412 0.0125676 0.174787)
(0.00733355 0.0124396 0.174944)
(0.0122856 0.0122859 0.175279)
(0.0173294 0.012163 0.175803)
(0.0225114 0.0120728 0.176528)
(0.0278773 0.0120159 0.177477)
(0.0334759 0.0119925 0.178677)
(0.0393591 0.0120041 0.180169)
(0.0455707 0.0120606 0.182005)
(0.0521608 0.0123149 0.184256)
(0.0024105 0.0177374 0.175356)
(0.00726364 0.0175518 0.175491)
(0.0121629 0.0173294 0.175803)
(0.0171485 0.0171486 0.176299)
(0.022264 0.0170115 0.176994)
(0.0275522 0.0169186 0.177907)
(0.0330591 0.0168708 0.179064)
(0.0388335 0.0168697 0.180503)
(0.0449111 0.0169281 0.182274)
(0.0513485 0.0172559 0.184439)
(0.00239377 0.0230619 0.176141)
(0.00721447 0.0228109 0.176246)
(0.0120731 0.022511 0.176528)
(0.0170115 0.0222639 0.176994)
(0.0220709 0.0220709 0.177656)
(0.0272919 0.0219323 0.178532)
(0.0327181 0.021849 0.179647)
(0.0383949 0.0218232 0.181037)
(0.0443489 0.0218709 0.182747)
(0.0506496 0.0222584 0.184835)
(0.00238409 0.0285918 0.177163)
(0.0071861 0.0282654 0.177231)
(0.0120162 0.0278766 0.177477)
(0.0169189 0.0275517 0.177907)
(0.0219324 0.0272918 0.178532)
(0.0270958 0.027096 0.179369)
(0.032451 0.0269645 0.180443)
(0.0380408 0.0268996 0.181785)
(0.0438816 0.0269215 0.183438)
(0.0500633 0.0273538 0.185455)
(0.00238176 0.034381 0.178457)
(0.00717902 0.0339667 0.178476)
(0.0119928 0.0334752 0.178677)
(0.0168713 0.0330585 0.179064)
(0.0218495 0.0327177 0.179647)
(0.0269645 0.0324511 0.180443)
(0.0322568 0.0322571 0.181473)
(0.0377679 0.0321369 0.182768)
(0.0435056 0.032113 0.184367)
(0.0495876 0.0325698 0.186315)
(0.00238736 0.0404869 0.180069)
(0.00719436 0.0399695 0.180025)
(0.0120044 0.0393583 0.180169)
(0.0168702 0.0388328 0.180503)
(0.0218238 0.0383942 0.181037)
(0.0269001 0.0380402 0.181785)
(0.0321368 0.0377678 0.182767)
(0.037574 0.0375741 0.184013)
(0.0432136 0.0374784 0.185558)
(0.0492162 0.037925 0.18744)
(0.00240362 0.0469648 0.182062)
(0.00723852 0.0463245 0.181934)
(0.0120608 0.04557 0.182005)
(0.0169285 0.0449104 0.182274)
(0.0218714 0.0443481 0.182747)
(0.026922 0.0438807 0.183438)
(0.0321132 0.0435049 0.184366)
(0.0374784 0.0432133 0.185557)
(0.0430129 0.0430129 0.187045)
(0.0489586 0.0433959 0.18886)
(0.00246714 0.0538581 0.184519)
(0.00740539 0.0530782 0.18428)
(0.0123151 0.0521602 0.184256)
(0.0172562 0.0513479 0.184439)
(0.0222588 0.0506489 0.184835)
(0.0273541 0.0500626 0.185455)
(0.0325702 0.0495869 0.186315)
(0.0379253 0.0492157 0.18744)
(0.0433961 0.0489584 0.18886)
(0.0491839 0.0491838 0.190609)
(0.00259892 0.0025991 0.155767)
(0.00782854 0.00257295 0.155831)
(0.013128 0.00254233 0.155962)
(0.0185464 0.00251946 0.156164)
(0.0241467 0.00250478 0.156446)
(0.0299927 0.00249862 0.156819)
(0.0361559 0.00250169 0.157301)
(0.0427182 0.00251525 0.157916)
(0.0497688 0.00254281 0.158703)
(0.0573987 0.00262962 0.159717)
(0.00257277 0.00782873 0.155831)
(0.00775114 0.00775145 0.155892)
(0.012996 0.00766091 0.156017)
(0.0183544 0.00759332 0.156212)
(0.0238855 0.0075501 0.156483)
(0.0296501 0.00753201 0.156842)
(0.0357163 0.00754047 0.157304)
(0.0421618 0.00757813 0.157893)
(0.0490689 0.00765294 0.158644)
(0.0565309 0.00787886 0.159606)
(0.00254229 0.0131278 0.155961)
(0.00766073 0.012996 0.156017)
(0.0128407 0.012841 0.156137)
(0.0181288 0.0127219 0.156323)
(0.0235802 0.0126414 0.156584)
(0.0292521 0.0126008 0.15693)
(0.0352092 0.0126023 0.157376)
(0.0415247 0.0126492 0.157945)
(0.0482719 0.0127532 0.158667)
(0.0555475 0.0130973 0.159589)
(0.00251953 0.0185459 0.156164)
(0.00759341 0.018354 0.156212)
(0.0127219 0.0181288 0.156323)
(0.0179526 0.0179527 0.156501)
(0.0233375 0.0178283 0.156752)
(0.0289306 0.0177576 0.157086)
(0.034793 0.0177434 0.157517)
(0.0409938 0.0177899 0.158067)
(0.0475956 0.0179114 0.158766)
(0.0547047 0.0183576 0.159655)
(0.00250485 0.0241461 0.156446)
(0.00755031 0.0238849 0.156483)
(0.0126416 0.0235797 0.156584)
(0.0178283 0.0233373 0.156752)
(0.0231596 0.0231597 0.156992)
(0.0286875 0.0230486 0.157314)
(0.0344695 0.0230073 0.157732)
(0.0405705 0.0230409 0.158266)
(0.0470418 0.0231666 0.158944)
(0.0540091 0.0237003 0.159805)
(0.00249868 0.029992 0.156819)
(0.00753222 0.0296494 0.156842)
(0.0126011 0.0292515 0.15693)
(0.0177579 0.0289302 0.157085)
(0.0230487 0.0286874 0.157314)
(0.0285237 0.0285239 0.157624)
(0.0342384 0.0284424 0.15803)
(0.0402541 0.0284486 0.15855)
(0.0466099 0.0285633 0.159211)
(0.0534612 0.0291698 0.160048)
(0.00250175 0.0361552 0.157301)
(0.00754066 0.0357156 0.157304)
(0.0126026 0.0352085 0.157376)
(0.0177439 0.0347924 0.157517)
(0.0230078 0.034469 0.157732)
(0.0284425 0.0342384 0.158029)
(0.0341017 0.034102 0.158423)
(0.0400446 0.0340644 0.158931)
(0.0462993 0.0341487 0.159578)
(0.0530617 0.034809 0.160394)
(0.0025153 0.0427174 0.157916)
(0.00757831 0.0421611 0.157893)
(0.0126495 0.041524 0.157945)
(0.0177903 0.0409931 0.158067)
(0.0230415 0.0405698 0.158266)
(0.0284491 0.0402535 0.158549)
(0.0340643 0.0400445 0.158931)
(0.0399442 0.0399443 0.159426)
(0.046108 0.0399733 0.160061)
(0.0528098 0.0406562 0.160859)
(0.00254286 0.0497681 0.158703)
(0.00765309 0.0490682 0.158644)
(0.0127535 0.0482712 0.158667)
(0.0179118 0.0475949 0.158766)
(0.0231671 0.0470411 0.158944)
(0.0285638 0.0466091 0.159211)
(0.0341489 0.0462986 0.159577)
(0.0399733 0.0461078 0.16006)
(0.0460468 0.0460468 0.160683)
(0.0527214 0.0467063 0.161464)
(0.00262967 0.0573982 0.159717)
(0.00787899 0.0565303 0.159606)
(0.0130975 0.0555469 0.159589)
(0.0183579 0.054704 0.159654)
(0.0237007 0.0540084 0.159805)
(0.0291701 0.0534605 0.160048)
(0.0348093 0.053061 0.160394)
(0.0406564 0.0528093 0.160858)
(0.0467064 0.0527212 0.161464)
(0.0532457 0.0532457 0.162229)
(0.00259197 0.00259213 0.13691)
(0.00780704 0.00256583 0.13685)
(0.0130922 0.00253497 0.136727)
(0.0184973 0.00251173 0.136539)
(0.0240859 0.00249663 0.136283)
(0.0299248 0.00249017 0.13595)
(0.0360913 0.00249332 0.135532)
(0.0426771 0.00250772 0.135022)
(0.0497882 0.00253725 0.134412)
(0.0575424 0.00263169 0.133698)
(0.00256566 0.00780722 0.13685)
(0.0077291 0.00772939 0.136794)
(0.0129592 0.00763814 0.136676)
(0.0183037 0.00756955 0.136495)
(0.0238225 0.00752521 0.136246)
(0.0295792 0.00750631 0.135924)
(0.0356472 0.00751492 0.13552)
(0.0421134 0.00755465 0.135027)