/*--------------------------------*- C++ -*----------------------------------*\
| =========                 |                                                 |
| \\      /  F ield         | foam-extend: Open Source CFD                    |
|  \\    /   O peration     | Version:     3.1                                |
|   \\  /    A nd           | Web:         http://www.extend-project.de       |
|    \\/     M anipulation  |                                                 |
\*---------------------------------------------------------------------------*/
FoamFile
{
    version     2.0;
    format      ascii;
    class       volScalarField::DimensionedInternalField;
    location    "0.0014";
    object      V0;
}
// * * * * * * * * * * * * * * * * * * * * * * * * * * * * * * * * * * * * * //

dimensions      [0 3 0 0 0 0 0];

value           nonuniform List<scalar> 
16000
(
7.22259e-11
7.09631e-11
6.97006e-11
6.8446e-11
6.72009e-11
6.59651e-11
6.47388e-11
6.35225e-11
6.23164e-11
6.11198e-11
7.0962e-11
6.97049e-11
6.84479e-11
6.71952e-11
6.59502e-11
6.4714e-11
6.34869e-11
6.22692e-11
6.10605e-11
5.98583e-11
6.96997e-11
6.84469e-11
6.71957e-11
6.59467e-11
6.47024e-11
6.34656e-11
6.22374e-11
6.10174e-11
5.98057e-11
5.85992e-11
6.84458e-11
6.71944e-11
6.59458e-11
6.46999e-11
6.34571e-11
6.22193e-11
6.09889e-11
5.97663e-11
5.85512e-11
5.73411e-11
6.7201e-11
6.59501e-11
6.47017e-11
6.34563e-11
6.22143e-11
6.09762e-11
5.97431e-11
5.85167e-11
5.72979e-11
5.60847e-11
6.59652e-11
6.47141e-11
6.34655e-11
6.22188e-11
6.09754e-11
5.97365e-11
5.85014e-11
5.72708e-11
5.60468e-11
5.48301e-11
6.4739e-11
6.34871e-11
6.22375e-11
6.09889e-11
5.97424e-11
5.85001e-11
5.72627e-11
5.60283e-11
5.4798e-11
5.35766e-11
6.35228e-11
6.22694e-11
6.10176e-11
5.97664e-11
5.85165e-11
5.72694e-11
5.60268e-11
5.47871e-11
5.355e-11
5.23226e-11
6.23167e-11
6.10608e-11
5.98059e-11
5.85514e-11
5.7298e-11
5.60464e-11
5.47971e-11
5.35494e-11
5.23032e-11
5.10652e-11
6.11201e-11
5.98586e-11
5.85994e-11
5.73413e-11
5.60848e-11
5.48301e-11
5.35765e-11
5.23223e-11
5.10648e-11
4.98095e-11
7.3133e-11
7.18337e-11
7.05183e-11
6.92099e-11
6.79124e-11
6.66243e-11
6.53444e-11
6.40713e-11
6.2803e-11
6.15341e-11
7.18308e-11
7.05492e-11
6.92514e-11
6.79504e-11
6.66556e-11
6.53693e-11
6.40906e-11
6.28178e-11
6.15481e-11
6.02716e-11
7.05157e-11
6.92485e-11
6.79702e-11
6.66829e-11
6.53934e-11
6.41093e-11
6.28318e-11
6.15583e-11
6.02868e-11
5.90077e-11
6.92094e-11
6.79482e-11
6.66803e-11
6.54056e-11
6.41247e-11
6.28424e-11
6.15639e-11
6.02888e-11
5.90151e-11
5.77355e-11
6.79127e-11
6.66554e-11
6.53916e-11
6.41224e-11
6.28488e-11
6.15709e-11
6.02905e-11
5.90112e-11
5.77342e-11
5.6455e-11
6.66247e-11
6.53697e-11
6.41091e-11
6.28407e-11
6.15685e-11
6.02942e-11
5.90149e-11
5.77302e-11
5.64459e-11
5.51658e-11
6.53449e-11
6.40912e-11
6.28322e-11
6.15638e-11
6.02884e-11
5.9011e-11
5.77319e-11
5.64442e-11
5.51498e-11
5.3866e-11
6.4072e-11
6.28185e-11
6.15589e-11
6.02892e-11
5.90108e-11
5.77265e-11
5.64401e-11
5.51458e-11
5.38418e-11
5.25523e-11
6.28038e-11
6.15488e-11
6.02874e-11
5.90157e-11
5.77347e-11
5.64451e-11
5.51477e-11
5.38403e-11
5.25223e-11
5.12176e-11
6.15348e-11
6.02722e-11
5.90083e-11
5.7736e-11
5.64554e-11
5.51661e-11
5.38662e-11
5.25517e-11
5.12164e-11
4.98825e-11
7.39156e-11
7.25825e-11
7.1217e-11
6.98571e-11
6.8509e-11
6.71702e-11
6.58388e-11
6.45125e-11
6.31884e-11
6.18585e-11
7.25777e-11
7.12736e-11
6.99372e-11
6.85899e-11
6.7247e-11
6.59124e-11
6.45844e-11
6.32603e-11
6.19359e-11
6.05961e-11
7.1213e-11
6.99325e-11
6.86284e-11
6.73044e-11
6.59716e-11
6.4642e-11
6.33178e-11
6.19948e-11
6.06702e-11
5.93294e-11
6.98565e-11
6.85865e-11
6.73003e-11
6.5998e-11
6.46807e-11
6.33561e-11
6.20325e-11
6.07095e-11
5.93846e-11
5.80461e-11
6.85096e-11
6.72468e-11
6.59688e-11
6.46769e-11
6.33735e-11
6.20583e-11
6.07344e-11
5.94075e-11
5.80805e-11
5.6746e-11
6.7171e-11
6.59131e-11
6.46418e-11
6.33535e-11
6.20544e-11
6.07477e-11
5.94284e-11
5.80962e-11
5.67607e-11
5.54283e-11
6.58397e-11
6.45853e-11
6.33186e-11
6.20325e-11
6.07311e-11
5.94222e-11
5.81065e-11
5.67728e-11
5.54247e-11
5.40902e-11
6.45137e-11
6.32613e-11
6.19958e-11
6.07104e-11
5.94071e-11
5.80903e-11
5.67662e-11
5.54255e-11
5.40658e-11
5.27261e-11
6.31897e-11
6.19371e-11
6.06712e-11
5.93855e-11
5.80813e-11
5.67595e-11
5.54216e-11
5.40636e-11
5.26851e-11
5.13239e-11
6.18597e-11
6.05972e-11
5.93303e-11
5.8047e-11
5.67467e-11
5.5429e-11
5.40907e-11
5.27253e-11
5.13221e-11
4.99167e-11
7.45464e-11
7.31848e-11
7.17769e-11
7.03733e-11
6.89828e-11
6.76028e-11
6.62311e-11
6.48659e-11
6.35048e-11
6.21389e-11
7.31785e-11
7.18554e-11
7.04863e-11
6.91e-11
6.77172e-11
6.63434e-11
6.49772e-11
6.36158e-11
6.22553e-11
6.08768e-11
7.17716e-11
7.04802e-11
6.91545e-11
6.77997e-11
6.64312e-11
6.50652e-11
6.37053e-11
6.23467e-11
6.09871e-11
5.96082e-11
7.03726e-11
6.90957e-11
6.77944e-11
6.64695e-11
6.51226e-11
6.37646e-11
6.2407e-11
6.10502e-11
5.96918e-11
5.83173e-11
6.89838e-11
6.7717e-11
6.64275e-11
6.51177e-11
6.37907e-11
6.24467e-11
6.10906e-11
5.97306e-11
5.83714e-11
5.70036e-11
6.76039e-11
6.63445e-11
6.5065e-11
6.37612e-11
6.24417e-11
6.11109e-11
5.97629e-11
5.83979e-11
5.70298e-11
5.56665e-11
6.62325e-11
6.49785e-11
6.37064e-11
6.24071e-11
6.10863e-11
5.97546e-11
5.84136e-11
5.70489e-11
5.56663e-11
5.4302e-11
6.48676e-11
6.36174e-11
6.23481e-11
6.10514e-11
5.973e-11
5.83902e-11
5.70402e-11
5.56683e-11
5.42722e-11
5.29026e-11
6.35066e-11
6.2257e-11
6.09886e-11
5.96931e-11
5.83726e-11
5.70283e-11
5.56623e-11
5.42693e-11
5.28495e-11
5.14509e-11
6.21406e-11
6.08783e-11
5.96096e-11
5.83186e-11
5.70048e-11
5.56676e-11
5.4303e-11
5.29017e-11
5.14485e-11
4.99897e-11
7.50058e-11
7.36225e-11
7.21824e-11
7.07458e-11
6.93237e-11
6.79137e-11
6.65142e-11
6.51238e-11
6.37409e-11
6.23562e-11
7.36151e-11
7.22777e-11
7.08838e-11
6.9468e-11
6.80555e-11
6.66534e-11
6.52609e-11
6.38755e-11
6.24937e-11
6.10941e-11
7.21762e-11
7.08766e-11
6.95346e-11
6.81567e-11
6.67619e-11
6.53699e-11
6.39856e-11
6.26044e-11
6.12243e-11
5.98243e-11
7.07451e-11
6.9463e-11
6.81505e-11
6.68089e-11
6.54406e-11
6.4059e-11
6.26787e-11
6.13005e-11
5.99227e-11
5.85284e-11
6.93249e-11
6.80554e-11
6.67577e-11
6.54348e-11
6.40912e-11
6.27275e-11
6.13501e-11
5.99694e-11
5.85917e-11
5.7206e-11
6.79152e-11
6.66548e-11
6.53697e-11
6.40552e-11
6.27216e-11
6.13749e-11
6.00084e-11
5.86231e-11
5.72361e-11
5.58563e-11
6.6516e-11
6.52626e-11
6.39871e-11
6.26788e-11
6.1345e-11
5.99986e-11
5.86418e-11
5.72583e-11
5.58552e-11
5.44748e-11
6.5126e-11
6.38776e-11
6.26062e-11
6.1302e-11
5.99688e-11
5.8614e-11
5.7248e-11
5.58568e-11
5.44387e-11
5.30524e-11
6.37432e-11
6.24959e-11
6.12262e-11
5.99244e-11
5.85933e-11
5.72344e-11
5.58505e-11
5.44353e-11
5.29891e-11
5.15676e-11
6.23583e-11
6.10961e-11
5.98261e-11
5.85301e-11
5.72076e-11
5.58578e-11
5.44761e-11
5.30514e-11
5.15648e-11
5.00702e-11
7.52818e-11
7.38844e-11
7.24231e-11
7.09645e-11
6.95214e-11
6.80914e-11
6.66738e-11
6.52676e-11
6.38716e-11
6.24764e-11
7.38764e-11
7.25295e-11
7.1119e-11
6.96835e-11
6.82511e-11
6.68302e-11
6.54205e-11
6.40201e-11
6.26256e-11
6.12142e-11
7.24164e-11
7.11113e-11
6.9758e-11
6.83646e-11
6.69521e-11
6.55429e-11
6.41428e-11
6.27474e-11
6.13551e-11
5.99438e-11
7.09639e-11
6.96782e-11
6.83579e-11
6.70048e-11
6.56222e-11
6.42253e-11
6.28303e-11
6.1439e-11
6.00499e-11
5.86451e-11
6.95228e-11
6.82511e-11
6.69476e-11
6.5616e-11
6.42613e-11
6.28849e-11
6.14942e-11
6.01009e-11
5.87127e-11
5.73178e-11
6.80932e-11
6.68319e-11
6.55428e-11
6.42211e-11
6.28785e-11
6.15217e-11
6.01439e-11
5.87468e-11
5.73491e-11
5.59612e-11
6.66759e-11
6.54225e-11
6.41445e-11
6.28306e-11
6.14887e-11
6.01333e-11
5.87672e-11
5.7373e-11
5.59586e-11
5.45707e-11
6.52701e-11
6.40224e-11
6.27495e-11
6.14408e-11
6.01004e-11
5.87369e-11
5.73618e-11
5.59602e-11
5.45303e-11
5.31363e-11
6.38743e-11
6.26281e-11
6.13574e-11
6.00519e-11
5.87145e-11
5.73474e-11
5.59537e-11
5.45267e-11
5.30669e-11
5.16349e-11
6.24789e-11
6.12166e-11
5.9946e-11
5.86471e-11
5.73197e-11
5.5963e-11
5.45722e-11
5.31353e-11
5.1632e-11
5.01206e-11
7.53735e-11
7.39697e-11
7.2498e-11
7.10276e-11
6.95725e-11
6.81307e-11
6.67019e-11
6.52858e-11
6.38816e-11
6.248e-11
7.39615e-11
7.26099e-11
7.11905e-11
6.97441e-11
6.83003e-11
6.68681e-11
6.54477e-11
6.40377e-11
6.26352e-11
6.12178e-11
7.24912e-11
7.11827e-11
6.98227e-11
6.84201e-11
6.69974e-11
6.55779e-11
6.41679e-11
6.27636e-11
6.13639e-11
5.99472e-11
7.10271e-11
6.97387e-11
6.84133e-11
6.7053e-11
6.56619e-11
6.42558e-11
6.2852e-11
6.14527e-11
6.00569e-11
5.86477e-11
6.9574e-11
6.83004e-11
6.69928e-11
6.56555e-11
6.4294e-11
6.29101e-11
6.15116e-11
6.01114e-11
5.87173e-11
5.73191e-11
6.81326e-11
6.68699e-11
6.55778e-11
6.42516e-11
6.29035e-11
6.15408e-11
6.01568e-11
5.87537e-11
5.73509e-11
5.5961e-11
6.67042e-11
6.54498e-11
6.41697e-11
6.28523e-11
6.15061e-11
6.0146e-11
5.87752e-11
5.73763e-11
5.59579e-11
5.4569e-11
6.52885e-11
6.40402e-11
6.27658e-11
6.14546e-11
6.01109e-11
5.87437e-11
5.7365e-11
5.59602e-11
5.45275e-11
5.31337e-11
6.38845e-11
6.26379e-11
6.13663e-11
6.0059e-11
5.87192e-11
5.73493e-11
5.59529e-11
5.45238e-11
5.30626e-11
5.16325e-11
6.24827e-11
6.12204e-11
5.99496e-11
5.86499e-11
5.73212e-11
5.59629e-11
5.45706e-11
5.31326e-11
5.16295e-11
5.01208e-11
7.52939e-11
7.38907e-11
7.24182e-11
7.09453e-11
6.9486e-11
6.80391e-11
6.66046e-11
6.51829e-11
6.37737e-11
6.23685e-11
7.38828e-11
7.25308e-11
7.11094e-11
6.96597e-11
6.82118e-11
6.67745e-11
6.53484e-11
6.39327e-11
6.25256e-11
6.11065e-11
7.24117e-11
7.1102e-11
6.9739e-11
6.83328e-11
6.69062e-11
6.54818e-11
6.40665e-11
6.26571e-11
6.12534e-11
5.98362e-11
7.09447e-11
6.96546e-11
6.83263e-11
6.69624e-11
6.55674e-11
6.41572e-11
6.2749e-11
6.13455e-11
5.99465e-11
5.85378e-11
6.94875e-11
6.82119e-11
6.69017e-11
6.55613e-11
6.41962e-11
6.28088e-11
6.14072e-11
6.00041e-11
5.86079e-11
5.72113e-11
6.80409e-11
6.67762e-11
6.54818e-11
6.41532e-11
6.28025e-11
6.1437e-11
6.00509e-11
5.86465e-11
5.72435e-11
5.58567e-11
6.66069e-11
6.53504e-11
6.40683e-11
6.27493e-11
6.14018e-11
6.00406e-11
5.86687e-11
5.72703e-11
5.58541e-11
5.44703e-11
6.51855e-11
6.39352e-11
6.26593e-11
6.13474e-11
6.00037e-11
5.86371e-11
5.72595e-11
5.58578e-11
5.44304e-11
5.30441e-11
6.37765e-11
6.25282e-11
6.12558e-11
5.99486e-11
5.86098e-11
5.7242e-11
5.58492e-11
5.44268e-11
5.29756e-11
5.15586e-11
6.23711e-11
6.1109e-11
5.98385e-11
5.854e-11
5.72133e-11
5.58585e-11
5.44717e-11
5.30431e-11
5.15558e-11
5.00674e-11
7.50703e-11
7.36736e-11
7.22088e-11
7.07411e-11
6.92845e-11
6.78383e-11
6.64029e-11
6.49794e-11
6.35685e-11
6.21627e-11
7.36663e-11
7.23174e-11
7.09001e-11
6.94542e-11
6.80084e-11
6.65714e-11
6.51439e-11
6.37264e-11
6.23178e-11
6.09011e-11
7.22028e-11
7.08935e-11
6.9531e-11
6.81262e-11
6.67011e-11
6.52768e-11
6.38603e-11
6.24494e-11
6.10449e-11
5.96315e-11
7.07405e-11
6.94495e-11
6.81202e-11
6.67559e-11
6.53613e-11
6.39514e-11
6.25427e-11
6.11386e-11
5.97397e-11
5.8336e-11
6.92858e-11
6.80084e-11
6.66969e-11
6.53555e-11
6.399e-11
6.26028e-11
6.12019e-11
5.97998e-11
5.84049e-11
5.70144e-11
6.78398e-11
6.65728e-11
6.52767e-11
6.39476e-11
6.2597e-11
6.12317e-11
5.98469e-11
5.84457e-11
5.70465e-11
5.56673e-11
6.64049e-11
6.51458e-11
6.38618e-11
6.2543e-11
6.1197e-11
5.98376e-11
5.8468e-11
5.70746e-11
5.56662e-11
5.42924e-11
6.49817e-11
6.37286e-11
6.24513e-11
6.11403e-11
5.97995e-11
5.84373e-11
5.70648e-11
5.56717e-11
5.42565e-11
5.28836e-11
6.35709e-11
6.23201e-11
6.1047e-11
5.97416e-11
5.84067e-11
5.70452e-11
5.56616e-11
5.42531e-11
5.28209e-11
5.1426e-11
6.2165e-11
6.09033e-11
5.96336e-11
5.83379e-11
5.70161e-11
5.56688e-11
5.42934e-11
5.28826e-11
5.14235e-11
4.99694e-11
7.47416e-11
7.33557e-11
7.19053e-11
7.04494e-11
6.90014e-11
6.75611e-11
6.61297e-11
6.47088e-11
6.32998e-11
6.1897e-11
7.33492e-11
7.20061e-11
7.05981e-11
6.91619e-11
6.77238e-11
6.6292e-11
6.48679e-11
6.34525e-11
6.20462e-11
6.0636e-11
7.19e-11
7.05922e-11
6.92337e-11
6.78349e-11
6.64161e-11
6.49965e-11
6.3583e-11
6.21746e-11
6.0773e-11
5.93676e-11
7.04488e-11
6.91576e-11
6.78295e-11
6.64678e-11
6.50774e-11
6.36721e-11
6.22671e-11
6.08662e-11
5.94709e-11
5.80761e-11
6.90023e-11
6.77236e-11
6.64122e-11
6.50723e-11
6.37093e-11
6.23257e-11
6.09295e-11
5.95323e-11
5.81424e-11
5.67615e-11
6.75623e-11
6.62931e-11
6.49963e-11
6.36687e-11
6.23206e-11
6.09585e-11
5.95786e-11
5.81844e-11
5.6793e-11
5.5425e-11
6.61313e-11
6.48693e-11
6.35842e-11
6.22672e-11
6.09253e-11
5.95706e-11
5.82064e-11
5.68218e-11
5.54256e-11
5.40655e-11
6.47106e-11
6.34542e-11
6.21761e-11
6.08675e-11
5.9532e-11
5.81773e-11
5.68135e-11
5.5433e-11
5.40351e-11
5.26795e-11
6.33017e-11
6.2048e-11
6.07747e-11
5.94724e-11
5.81438e-11
5.67919e-11
5.54215e-11
5.4032e-11
5.26249e-11
5.12573e-11
6.18989e-11
6.06377e-11
5.93692e-11
5.80776e-11
5.67629e-11
5.54261e-11
5.40661e-11
5.26784e-11
5.12552e-11
4.98436e-11
7.43525e-11
7.29802e-11
7.15489e-11
7.011e-11
6.86755e-11
6.72462e-11
6.58236e-11
6.441e-11
6.30074e-11
6.16119e-11
7.29746e-11
7.1639e-11
7.02444e-11
6.88228e-11
6.73972e-11
6.59755e-11
6.45594e-11
6.31509e-11
6.17512e-11
6.03516e-11
7.15442e-11
7.02393e-11
6.88877e-11
6.74988e-11
6.60906e-11
6.46804e-11
6.32743e-11
6.18728e-11
6.04783e-11
5.90848e-11
7.01093e-11
6.8819e-11
6.74941e-11
6.61381e-11
6.47556e-11
6.3359e-11
6.19618e-11
6.05682e-11
5.91806e-11
5.77981e-11
6.86761e-11
6.73969e-11
6.60873e-11
6.47512e-11
6.33937e-11
6.20174e-11
6.06298e-11
5.92414e-11
5.78601e-11
5.64919e-11
6.7247e-11
6.59762e-11
6.468e-11
6.3356e-11
6.20131e-11
6.0657e-11
5.92854e-11
5.7902e-11
5.6522e-11
5.51675e-11
6.58247e-11
6.45604e-11
6.32752e-11
6.19617e-11
6.06262e-11
5.92789e-11
5.79229e-11
5.65505e-11
5.51698e-11
5.38253e-11
6.44113e-11
6.31521e-11
6.18739e-11
6.05692e-11
5.92411e-11
5.78963e-11
5.65437e-11
5.51787e-11
5.38008e-11
5.2464e-11
6.30088e-11
6.17525e-11
6.04795e-11
5.91817e-11
5.78612e-11
5.6521e-11
5.51662e-11
5.37981e-11
5.24185e-11
5.10791e-11
6.16133e-11
6.03529e-11
5.90859e-11
5.77992e-11
5.64928e-11
5.51682e-11
5.38255e-11
5.2463e-11
5.10775e-11
4.97093e-11
7.39462e-11
7.25891e-11
7.11797e-11
6.97611e-11
6.83442e-11
6.69303e-11
6.55214e-11
6.41199e-11
6.27287e-11
6.13451e-11
7.25843e-11
7.12577e-11
6.98792e-11
6.84755e-11
6.70663e-11
6.5659e-11
6.42558e-11
6.28589e-11
6.14706e-11
6.00857e-11
7.11755e-11
6.98747e-11
6.85324e-11
6.71565e-11
6.57627e-11
6.43659e-11
6.29718e-11
6.15818e-11
6.01989e-11
5.88207e-11
6.97603e-11
6.84721e-11
6.71526e-11
6.58049e-11
6.44336e-11
6.30496e-11
6.16644e-11
6.02824e-11
5.89065e-11
5.75392e-11
6.83445e-11
6.70659e-11
6.57599e-11
6.443e-11
6.30809e-11
6.17153e-11
6.03399e-11
5.89641e-11
5.75951e-11
5.62418e-11
6.69307e-11
6.56595e-11
6.43654e-11
6.3047e-11
6.17118e-11
6.03647e-11
5.90045e-11
5.76351e-11
5.62694e-11
5.49299e-11
6.5522e-11
6.42564e-11
6.29723e-11
6.16642e-11
6.0337e-11
5.89994e-11
5.76542e-11
5.62963e-11
5.49333e-11
5.36048e-11
6.41207e-11
6.28597e-11
6.15825e-11
6.0283e-11
5.89638e-11
5.76306e-11
5.62911e-11
5.49428e-11
5.35859e-11
5.22671e-11
6.27296e-11
6.14714e-11
6.01996e-11
5.89072e-11
5.75959e-11
5.62686e-11
5.49303e-11
5.35836e-11
5.22305e-11
5.09162e-11
6.13459e-11
6.00865e-11
5.88213e-11
5.75398e-11
5.62423e-11
5.49301e-11
5.36046e-11
5.22661e-11
5.09149e-11
4.95842e-11
7.35587e-11
7.22171e-11
7.08304e-11
6.9434e-11
6.80374e-11
6.66423e-11
6.5251e-11
6.38661e-11
6.24906e-11
6.1123e-11
7.22132e-11
7.08964e-11
6.9535e-11
6.81511e-11
6.67612e-11
6.53717e-11
6.39853e-11
6.26044e-11
6.12317e-11
5.98646e-11
7.08269e-11
6.95313e-11
6.81997e-11
6.6839e-11
6.54622e-11
6.40821e-11
6.27039e-11
6.13294e-11
5.9962e-11
5.86015e-11
6.94332e-11
6.81483e-11
6.68358e-11
6.54987e-11
6.41412e-11
6.27727e-11
6.14029e-11
6.00361e-11
5.86755e-11
5.73253e-11
6.80374e-11
6.67606e-11
6.54598e-11
6.41383e-11
6.28e-11
6.14478e-11
6.00876e-11
5.87274e-11
5.73737e-11
5.60363e-11
6.66425e-11
6.53719e-11
6.40816e-11
6.27705e-11
6.1445e-11
6.01093e-11
5.8763e-11
5.74097e-11
5.60605e-11
5.47361e-11
6.52513e-11
6.39856e-11
6.27041e-11
6.14026e-11
6.00852e-11
5.8759e-11
5.74265e-11
5.60846e-11
5.47399e-11
5.34265e-11
6.38665e-11
6.26048e-11
6.13298e-11
6.00365e-11
5.87271e-11
5.74064e-11
5.60806e-11
5.47491e-11
5.34122e-11
5.21089e-11
6.24911e-11
6.12322e-11
5.99624e-11
5.86759e-11
5.73742e-11
5.60598e-11
5.47375e-11
5.34103e-11
5.20802e-11
5.07849e-11
6.11234e-11
5.9865e-11
5.86018e-11
5.73255e-11
5.60364e-11
5.4736e-11
5.3426e-11
5.2108e-11
5.0784e-11
4.94804e-11
7.32143e-11
7.18876e-11
7.05228e-11
6.91488e-11
6.77736e-11
6.63992e-11
6.5028e-11
6.36624e-11
6.23056e-11
6.09565e-11
7.18844e-11
7.05775e-11
6.92332e-11
6.78695e-11
6.64999e-11
6.51304e-11
6.37633e-11
6.24013e-11
6.1047e-11
5.96992e-11
7.05199e-11
6.92302e-11
6.791e-11
6.65654e-11
6.5207e-11
6.38454e-11
6.24855e-11
6.11293e-11
5.97798e-11
5.8438e-11
6.9148e-11
6.78671e-11
6.65627e-11
6.52376e-11
6.38954e-11
6.25441e-11
6.11918e-11
5.98426e-11
5.84993e-11
5.71665e-11
6.77735e-11
6.64994e-11
6.5205e-11
6.38931e-11
6.25672e-11
6.12299e-11
5.98864e-11
5.85436e-11
5.72068e-11
5.58851e-11
6.63992e-11
6.51304e-11
6.38449e-11
6.25423e-11
6.12277e-11
5.99047e-11
5.85735e-11
5.72374e-11
5.59054e-11
5.4595e-11
6.5028e-11
6.37633e-11
6.24856e-11
6.11915e-11
5.98845e-11
5.85705e-11
5.72514e-11
5.59256e-11
5.45987e-11
5.32983e-11
6.36626e-11
6.24014e-11
6.11294e-11
5.98428e-11
5.85432e-11
5.72348e-11
5.59226e-11
5.46066e-11
5.32874e-11
5.19963e-11
6.23057e-11
6.10471e-11
5.97799e-11
5.84995e-11
5.7207e-11
5.59048e-11
5.45967e-11
5.32859e-11
5.1974e-11
5.06911e-11
6.09566e-11
5.96993e-11
5.84381e-11
5.71665e-11
5.5885e-11
5.45949e-11
5.32978e-11
5.19955e-11
5.06903e-11
4.94027e-11
7.29245e-11
7.16112e-11
7.02664e-11
6.89135e-11
6.75592e-11
6.62056e-11
6.48549e-11
6.35095e-11
6.21719e-11
6.08418e-11
7.16086e-11
7.03111e-11
6.89828e-11
6.76383e-11
6.62888e-11
6.49393e-11
6.35921e-11
6.22496e-11
6.09144e-11
5.95854e-11
7.0264e-11
6.89804e-11
6.76716e-11
6.63426e-11
6.50023e-11
6.36596e-11
6.23186e-11
6.09811e-11
5.965e-11
5.83261e-11
6.89128e-11
6.76364e-11
6.63405e-11
6.50274e-11
6.37007e-11
6.23666e-11
6.10322e-11
5.97009e-11
5.83751e-11
5.70587e-11
6.75591e-11
6.62883e-11
6.50007e-11
6.36988e-11
6.23856e-11
6.10634e-11
5.97366e-11
5.84109e-11
5.70908e-11
5.57835e-11
6.62055e-11
6.49392e-11
6.36592e-11
6.23652e-11
6.10617e-11
5.97515e-11
5.84351e-11
5.71154e-11
5.57997e-11
5.45017e-11
6.48549e-11
6.3592e-11
6.23185e-11
6.10319e-11
5.97351e-11
5.84327e-11
5.71267e-11
5.58158e-11
5.45046e-11
5.32148e-11
6.35095e-11
6.22496e-11
6.09811e-11
5.97009e-11
5.84106e-11
5.71134e-11
5.58134e-11
5.45108e-11
5.32063e-11
5.19239e-11
6.21719e-11
6.09144e-11
5.965e-11
5.83752e-11
5.70909e-11
5.57992e-11
5.45031e-11
5.32051e-11
5.19064e-11
5.06303e-11
6.08417e-11
5.95854e-11
5.8326e-11
5.70586e-11
5.57834e-11
5.45015e-11
5.32144e-11
5.19232e-11
5.06297e-11
4.93491e-11
7.26899e-11
7.1388e-11
7.00606e-11
6.87264e-11
6.73912e-11
6.60569e-11
6.47253e-11
6.33985e-11
6.20788e-11
6.07658e-11
7.1386e-11
7.00969e-11
6.87827e-11
6.74554e-11
6.61241e-11
6.47932e-11
6.34645e-11
6.21404e-11
6.08226e-11
5.95103e-11
7.00587e-11
6.87807e-11
6.74824e-11
6.61677e-11
6.48441e-11
6.35188e-11
6.21953e-11
6.08752e-11
5.95608e-11
5.82525e-11
6.87259e-11
6.74539e-11
6.6166e-11
6.48644e-11
6.35518e-11
6.22337e-11
6.09157e-11
5.96008e-11
5.82908e-11
5.69883e-11
6.73911e-11
6.61237e-11
6.48428e-11
6.35503e-11
6.22489e-11
6.09405e-11
5.96289e-11
5.83186e-11
5.70133e-11
5.5718e-11
6.60567e-11
6.47931e-11
6.35184e-11
6.22326e-11
6.09391e-11
5.96407e-11
5.83376e-11
5.70323e-11
5.57305e-11
5.44425e-11
6.47252e-11
6.34644e-11
6.21952e-11
6.09155e-11
5.96277e-11
5.83357e-11
5.70411e-11
5.57428e-11
5.44446e-11
5.31628e-11
6.33985e-11
6.21403e-11
6.08751e-11
5.96008e-11
5.83184e-11
5.70306e-11
5.57409e-11
5.44491e-11
5.31558e-11
5.18794e-11
6.20788e-11
6.08225e-11
5.95608e-11
5.82908e-11
5.70134e-11
5.57301e-11
5.44433e-11
5.31548e-11
5.18653e-11
5.05924e-11
6.07657e-11
5.95102e-11
5.82524e-11
5.69882e-11
5.57179e-11
5.44423e-11
5.31624e-11
5.18788e-11
5.0592e-11
4.93136e-11
7.25038e-11
7.12114e-11
6.98983e-11
6.858e-11
6.72611e-11
6.59432e-11
6.46279e-11
6.33171e-11
6.20123e-11
6.0713e-11
7.12098e-11
6.99277e-11
6.86255e-11
6.73128e-11
6.59971e-11
6.4682e-11
6.33692e-11
6.20605e-11
6.07572e-11
5.94583e-11
6.98968e-11
6.86239e-11
6.73345e-11
6.60321e-11
6.47227e-11
6.34123e-11
6.21037e-11
6.07982e-11
5.94976e-11
5.82017e-11
6.85796e-11
6.73115e-11
6.60307e-11
6.4739e-11
6.34386e-11
6.2134e-11
6.08299e-11
5.95285e-11
5.82314e-11
5.69399e-11
6.7261e-11
6.59968e-11
6.47216e-11
6.34373e-11
6.2146e-11
6.08494e-11
5.95504e-11
5.82527e-11
5.69593e-11
5.56733e-11
6.59431e-11
6.46819e-11
6.34119e-11
6.21331e-11
6.08482e-11
5.95596e-11
5.82674e-11
5.69736e-11
5.56829e-11
5.44023e-11
6.46279e-11
6.33692e-11
6.21036e-11
6.08297e-11
5.95493e-11
5.82658e-11
5.69804e-11
5.5692e-11
5.44037e-11
5.31277e-11
6.3317e-11
6.20604e-11
6.07982e-11
5.95285e-11
5.82525e-11
5.69722e-11
5.56904e-11
5.44068e-11
5.31217e-11
5.18494e-11
6.20122e-11
6.07571e-11
5.94976e-11
5.82314e-11
5.69593e-11
5.56825e-11
5.44027e-11
5.31209e-11
5.18379e-11
5.05668e-11
6.0713e-11
5.94582e-11
5.82016e-11
5.69398e-11
5.56732e-11
5.44022e-11
5.31275e-11
5.1849e-11
5.05664e-11
4.9289e-11
7.23564e-11
7.10716e-11
6.97701e-11
6.84646e-11
6.71589e-11
6.58543e-11
6.45521e-11
6.32536e-11
6.19602e-11
6.06712e-11
7.10703e-11
6.9794e-11
6.85014e-11
6.72005e-11
6.58975e-11
6.45952e-11
6.3295e-11
6.19983e-11
6.0706e-11
5.9417e-11
6.97689e-11
6.85001e-11
6.72181e-11
6.59257e-11
6.46277e-11
6.33292e-11
6.20324e-11
6.07383e-11
5.94482e-11
5.81613e-11
6.84643e-11
6.71995e-11
6.59246e-11
6.46408e-11
6.33502e-11
6.20564e-11
6.07632e-11
5.94723e-11
5.81848e-11
5.69014e-11
6.71589e-11
6.58972e-11
6.46269e-11
6.33492e-11
6.2066e-11
6.07785e-11
5.94893e-11
5.82013e-11
5.69166e-11
5.56374e-11
6.58543e-11
6.45951e-11
6.3329e-11
6.20556e-11
6.07776e-11
5.94966e-11
5.82128e-11
5.69276e-11
5.56449e-11
5.43698e-11
6.4552e-11
6.3295e-11
6.20324e-11
6.0763e-11
5.94884e-11
5.82114e-11
5.69329e-11
5.56519e-11
5.43707e-11
5.30989e-11
6.32536e-11
6.19983e-11
6.07383e-11
5.94723e-11
5.82011e-11
5.69264e-11
5.56505e-11
5.43728e-11
5.30937e-11
5.18244e-11
6.19602e-11
6.0706e-11
5.94482e-11
5.81848e-11
5.69167e-11
5.56446e-11
5.43698e-11
5.30931e-11
5.18148e-11
5.05454e-11
6.06712e-11
5.9417e-11
5.81613e-11
5.69014e-11
5.56374e-11
5.43698e-11
5.30988e-11
5.18241e-11
5.05451e-11
4.92693e-11
7.22379e-11
7.09592e-11
6.96669e-11
6.83715e-11
6.70762e-11
6.57818e-11
6.44895e-11
6.32003e-11
6.19151e-11
6.06334e-11
7.09581e-11
6.96864e-11
6.84015e-11
6.71099e-11
6.58167e-11
6.45243e-11
6.32336e-11
6.19458e-11
6.06616e-11
5.93796e-11
6.96659e-11
6.84004e-11
6.71242e-11
6.58396e-11
6.45506e-11
6.32612e-11
6.19733e-11
6.06875e-11
5.94049e-11
5.81246e-11
6.83713e-11
6.71091e-11
6.58387e-11
6.45612e-11
6.32781e-11
6.19925e-11
6.07074e-11
5.94242e-11
5.81437e-11
5.6866e-11
6.70761e-11
6.58165e-11
6.45499e-11
6.32773e-11
6.20002e-11
6.07198e-11
5.94378e-11
5.81567e-11
5.68784e-11
5.5604e-11
6.57818e-11
6.45243e-11
6.3261e-11
6.19919e-11
6.0719e-11
5.94436e-11
5.8166e-11
5.68871e-11
5.561e-11
5.43389e-11
6.44895e-11
6.32336e-11
6.19733e-11
6.07073e-11
5.94371e-11
5.81648e-11
5.68913e-11
5.56157e-11
5.43396e-11
5.30709e-11
6.32003e-11
6.19458e-11
6.06875e-11
5.94242e-11
5.81566e-11
5.68861e-11
5.56145e-11
5.43412e-11
5.30666e-11
5.17998e-11
6.19151e-11
6.06616e-11
5.94049e-11
5.81437e-11
5.68784e-11
5.56098e-11
5.43389e-11
5.3066e-11
5.17916e-11
5.05244e-11
6.06334e-11
5.93796e-11
5.81246e-11
5.6866e-11
5.5604e-11
5.4339e-11
5.30709e-11
5.17995e-11
5.05241e-11
4.92513e-11
7.21406e-11
7.08667e-11
6.95817e-11
6.82942e-11
6.70068e-11
6.57203e-11
6.44354e-11
6.3153e-11
6.18738e-11
6.05972e-11
7.08657e-11
6.95977e-11
6.83188e-11
6.70345e-11
6.57489e-11
6.44639e-11
6.31804e-11
6.18991e-11
6.06206e-11
5.93437e-11
6.95808e-11
6.83179e-11
6.70463e-11
6.57677e-11
6.44855e-11
6.3203e-11
6.19217e-11
6.0642e-11
5.93648e-11
5.80893e-11
6.8294e-11
6.70338e-11
6.57669e-11
6.44942e-11
6.32169e-11
6.19374e-11
6.06584e-11
5.93807e-11
5.81052e-11
5.68318e-11
6.70068e-11
6.57487e-11
6.44849e-11
6.32162e-11
6.19438e-11
6.06685e-11
5.93919e-11
5.8116e-11
5.68421e-11
5.55714e-11
6.57203e-11
6.44639e-11
6.32028e-11
6.19369e-11
6.06678e-11
5.93967e-11
5.81236e-11
5.68494e-11
5.55765e-11
5.43084e-11
6.44355e-11
6.31804e-11
6.19217e-11
6.06583e-11
5.93913e-11
5.81226e-11
5.68529e-11
5.55812e-11
5.4309e-11
5.3043e-11
6.31531e-11
6.18992e-11
6.06421e-11
5.93808e-11
5.81159e-11
5.68485e-11
5.55802e-11
5.43104e-11
5.30393e-11
5.17748e-11
6.18738e-11
6.06206e-11
5.93649e-11
5.81052e-11
5.68422e-11
5.55763e-11
5.43084e-11
5.30388e-11
5.17679e-11
5.05032e-11
6.05972e-11
5.93438e-11
5.80893e-11
5.68318e-11
5.55715e-11
5.43085e-11
5.30429e-11
5.17746e-11
5.05029e-11
4.92337e-11
7.20589e-11
7.07888e-11
6.95097e-11
6.82285e-11
6.69474e-11
6.56669e-11
6.43878e-11
6.31105e-11
6.18357e-11
6.0563e-11
7.07881e-11
6.95229e-11
6.82488e-11
6.69702e-11
6.56906e-11
6.44114e-11
6.31333e-11
6.1857e-11
6.05828e-11
5.93099e-11
6.9509e-11
6.82481e-11
6.698e-11
6.57061e-11
6.44293e-11
6.31521e-11
6.18758e-11
6.06008e-11
5.93277e-11
5.80559e-11
6.82283e-11
6.69697e-11
6.57055e-11
6.44365e-11
6.31636e-11
6.18889e-11
6.06145e-11
5.93411e-11
5.80694e-11
5.67994e-11
6.69474e-11
6.56905e-11
6.44288e-11
6.31631e-11
6.18942e-11
6.0623e-11
5.93505e-11
5.80785e-11
5.68081e-11
5.55404e-11
6.56669e-11
6.44114e-11
6.3152e-11
6.18885e-11
6.06224e-11
5.93546e-11
5.8085e-11
5.68143e-11
5.55447e-11
5.42793e-11
6.43878e-11
6.31334e-11
6.18758e-11
6.06144e-11
5.935e-11
5.80841e-11
5.68173e-11
5.55488e-11
5.42797e-11
5.3016e-11
6.31106e-11
6.1857e-11
6.06009e-11
5.93412e-11
5.80784e-11
5.68136e-11
5.55479e-11
5.4281e-11
5.3013e-11
5.17507e-11
6.18358e-11
6.05829e-11
5.93278e-11
5.80694e-11
5.68082e-11
5.55446e-11
5.42793e-11
5.30126e-11
5.17449e-11
5.04827e-11
6.05631e-11
5.931e-11
5.8056e-11
5.67995e-11
5.55405e-11
5.42793e-11
5.3016e-11
5.17505e-11
5.04825e-11
4.92168e-11
7.19894e-11
7.07226e-11
6.94482e-11
6.81721e-11
6.6896e-11
6.56204e-11
6.43458e-11
6.30727e-11
6.18016e-11
6.05321e-11
7.07219e-11
6.94591e-11
6.81889e-11
6.6915e-11
6.56401e-11
6.43655e-11
6.30918e-11
6.18195e-11
6.05489e-11
5.92793e-11
6.94476e-11
6.81883e-11
6.6923e-11
6.5653e-11
6.43804e-11
6.31075e-11
6.18353e-11
6.05641e-11
5.92943e-11
5.80257e-11
6.81719e-11
6.69145e-11
6.56525e-11
6.43864e-11
6.31171e-11
6.18463e-11
6.05756e-11
5.93057e-11
5.80371e-11
5.67701e-11
6.6896e-11
6.564e-11
6.438e-11
6.31167e-11
6.18507e-11
6.05827e-11
5.93136e-11
5.80449e-11
5.67775e-11
5.55124e-11
6.56204e-11
6.43655e-11
6.31074e-11
6.1846e-11
6.05822e-11
5.93171e-11
5.80504e-11
5.67828e-11
5.5516e-11
5.42528e-11
6.43458e-11
6.30919e-11
6.18353e-11
6.05755e-11
5.93133e-11
5.80497e-11
5.67853e-11
5.55195e-11
5.42533e-11
5.29916e-11
6.30728e-11
6.18195e-11
6.05641e-11
5.93058e-11
5.80448e-11
5.67822e-11
5.55188e-11
5.42544e-11
5.29891e-11
5.17287e-11
6.18017e-11
6.05489e-11
5.92944e-11
5.80372e-11
5.67775e-11
5.55159e-11
5.42529e-11
5.29889e-11
5.1724e-11
5.04639e-11
6.05322e-11
5.92794e-11
5.80258e-11
5.67701e-11
5.55124e-11
5.42528e-11
5.29916e-11
5.17286e-11
5.04638e-11
4.92012e-11
7.193e-11
7.06658e-11
6.93954e-11
6.81235e-11
6.68516e-11
6.55801e-11
6.43093e-11
6.30397e-11
6.17718e-11
6.05052e-11
7.06653e-11
6.94045e-11
6.81375e-11
6.68674e-11
6.55965e-11
6.43258e-11
6.30557e-11
6.17868e-11
6.05193e-11
5.92527e-11
6.93949e-11
6.8137e-11
6.68741e-11
6.56072e-11
6.43382e-11
6.30688e-11
6.18e-11
6.0532e-11
5.92653e-11
5.79995e-11
6.81234e-11
6.6867e-11
6.56068e-11
6.43432e-11
6.30769e-11
6.18093e-11
6.05417e-11
5.92748e-11
5.8009e-11
5.67446e-11
6.68516e-11
6.55964e-11
6.43378e-11
6.30765e-11
6.1813e-11
6.05477e-11
5.92815e-11
5.80156e-11
5.67508e-11
5.5488e-11
6.55801e-11
6.43258e-11
6.30688e-11
6.1809e-11
6.05473e-11
5.92844e-11
5.80202e-11
5.67553e-11
5.54911e-11
5.42299e-11
6.43093e-11
6.30558e-11
6.18001e-11
6.05417e-11
5.92812e-11
5.80197e-11
5.67574e-11
5.5494e-11
5.42303e-11
5.29705e-11
6.30398e-11
6.17868e-11
6.05321e-11
5.92749e-11
5.80156e-11
5.67548e-11
5.54935e-11
5.42313e-11
5.29685e-11
5.17097e-11
6.17719e-11
6.05193e-11
5.92653e-11
5.80091e-11
5.67508e-11
5.5491e-11
5.423e-11
5.29682e-11
5.17058e-11
5.04475e-11
6.05053e-11
5.92527e-11
5.79995e-11
5.67446e-11
5.5488e-11
5.42299e-11
5.29704e-11
5.17096e-11
5.04474e-11
4.91872e-11
7.18793e-11
7.06174e-11
6.93503e-11
6.80819e-11
6.68135e-11
6.55454e-11
6.42779e-11
6.30114e-11
6.17463e-11
6.04823e-11
7.06169e-11
6.93578e-11
6.80935e-11
6.68266e-11
6.5559e-11
6.42916e-11
6.30247e-11
6.17588e-11
6.0494e-11
5.923e-11
6.93499e-11
6.80931e-11
6.68322e-11
6.55679e-11
6.43019e-11
6.30357e-11
6.17698e-11
6.05046e-11
5.92404e-11
5.79772e-11
6.80818e-11
6.68263e-11
6.55676e-11
6.43061e-11
6.30423e-11
6.17775e-11
6.05127e-11
5.92484e-11
5.79851e-11
5.67229e-11
6.68135e-11
6.5559e-11
6.43017e-11
6.3042e-11
6.17806e-11
6.05177e-11
5.9254e-11
5.79906e-11
5.67281e-11
5.54673e-11
6.55454e-11
6.42916e-11
6.30356e-11
6.17773e-11
6.05173e-11
5.92564e-11
5.79944e-11
5.67319e-11
5.54699e-11
5.42105e-11
6.4278e-11
6.30248e-11
6.17698e-11
6.05126e-11
5.92538e-11
5.7994e-11
5.67336e-11
5.54723e-11
5.42108e-11
5.29525e-11
6.30115e-11
6.17588e-11
6.05046e-11
5.92485e-11
5.79906e-11
5.67315e-11
5.54719e-11
5.42117e-11
5.29509e-11
5.16936e-11
6.17463e-11
6.0494e-11
5.92405e-11
5.79851e-11
5.67281e-11
5.54698e-11
5.42106e-11
5.29507e-11
5.16904e-11
5.04335e-11
6.04824e-11
5.92301e-11
5.79772e-11
5.6723e-11
5.54673e-11
5.42105e-11
5.29525e-11
5.16935e-11
5.04334e-11
4.91749e-11
7.18361e-11
7.05761e-11
6.93118e-11
6.80464e-11
6.6781e-11
6.55158e-11
6.42512e-11
6.29873e-11
6.17246e-11
6.04629e-11
7.05757e-11
6.9318e-11
6.8056e-11
6.67918e-11
6.55271e-11
6.42625e-11
6.29983e-11
6.17349e-11
6.04725e-11
5.92108e-11
6.93115e-11
6.80556e-11
6.67964e-11
6.55345e-11
6.4271e-11
6.30074e-11
6.17441e-11
6.04813e-11
5.92194e-11
5.79583e-11
6.80464e-11
6.67916e-11
6.55342e-11
6.42745e-11
6.30129e-11
6.17504e-11
6.0488e-11
5.9226e-11
5.79648e-11
5.67046e-11
6.6781e-11
6.55271e-11
6.42708e-11
6.30126e-11
6.1753e-11
6.04921e-11
5.92307e-11
5.79694e-11
5.67089e-11