/*--------------------------------*- C++ -*----------------------------------*\
| =========                 |                                                 |
| \\      /  F ield         | foam-extend: Open Source CFD                    |
|  \\    /   O peration     | Version:     3.1                                |
|   \\  /    A nd           | Web:         http://www.extend-project.de       |
|    \\/     M anipulation  |                                                 |
\*---------------------------------------------------------------------------*/
FoamFile
{
    version     2.0;
    format      ascii;
    class       volVectorField;
    location    "0.0007";
    object      cellMotionU;
}
// * * * * * * * * * * * * * * * * * * * * * * * * * * * * * * * * * * * * * //

dimensions      [0 1 -1 0 0 0 0];

internalField   nonuniform List<vector> 
16000
(
(2.28707e-09 1.76252e-09 1.84749e-08)
(6.88179e-09 1.67976e-09 1.90308e-08)
(1.15081e-08 1.57883e-09 2.01622e-08)
(1.63481e-08 1.48119e-09 2.19467e-08)
(2.15818e-08 1.39138e-09 2.45325e-08)
(2.73556e-08 1.32573e-09 2.81451e-08)
(3.3758e-08 1.29747e-09 3.31014e-08)
(4.07813e-08 1.3244e-09 3.98373e-08)
(4.82336e-08 1.43265e-09 4.89262e-08)
(5.56502e-08 1.64963e-09 6.11412e-08)
(2.16786e-09 5.304e-09 1.89492e-08)
(6.60053e-09 5.12499e-09 1.94777e-08)
(1.11562e-08 4.84163e-09 2.05626e-08)
(1.59192e-08 4.54274e-09 2.2282e-08)
(2.10471e-08 4.26857e-09 2.47815e-08)
(2.66836e-08 4.05261e-09 2.8272e-08)
(3.28987e-08 3.94433e-09 3.30387e-08)
(3.96761e-08 4.002e-09 3.94656e-08)
(4.67877e-08 4.28122e-09 4.79805e-08)
(5.36754e-08 4.84916e-09 5.90045e-08)
(2.02958e-09 8.91265e-09 1.99304e-08)
(6.18609e-09 8.68871e-09 2.04067e-08)
(1.05201e-08 8.28301e-09 2.14018e-08)
(1.51135e-08 7.77529e-09 2.29951e-08)
(2.0028e-08 7.28313e-09 2.53238e-08)
(2.53828e-08 6.874e-09 2.85832e-08)
(3.12609e-08 6.61908e-09 3.30316e-08)
(3.76034e-08 6.60674e-09 3.89497e-08)
(4.41539e-08 6.92224e-09 4.66104e-08)
(5.0364e-08 7.64916e-09 5.61849e-08)
(1.87175e-09 1.27801e-08 2.15021e-08)
(5.72796e-09 1.24905e-08 2.191e-08)
(9.74937e-09 1.19663e-08 2.2772e-08)
(1.40283e-08 1.12627e-08 2.41811e-08)
(1.86374e-08 1.04967e-08 2.6278e-08)
(2.36098e-08 9.80354e-09 2.92365e-08)
(2.89971e-08 9.28809e-09 3.32771e-08)
(3.4771e-08 9.04489e-09 3.86352e-08)
(4.06831e-08 9.17833e-09 4.54775e-08)
(4.6246e-08 9.77498e-09 5.38705e-08)
(1.71813e-09 1.70673e-08 2.3817e-08)
(5.26593e-09 1.66982e-08 2.41374e-08)
(8.96635e-09 1.59961e-08 2.48232e-08)
(1.28585e-08 1.50588e-08 2.59915e-08)
(1.70235e-08 1.39818e-08 2.77932e-08)
(2.15178e-08 1.2894e-08 3.04053e-08)
(2.6334e-08 1.19584e-08 3.40261e-08)
(3.14178e-08 1.12946e-08 3.88458e-08)
(3.66097e-08 1.09886e-08 4.50163e-08)
(4.15214e-08 1.11122e-08 5.259e-08)
(1.58755e-09 2.19107e-08 2.71033e-08)
(4.85558e-09 2.14302e-08 2.72996e-08)
(8.24114e-09 2.05011e-08 2.7752e-08)
(1.17491e-08 1.92425e-08 2.86142e-08)
(1.54046e-08 1.77828e-08 3.0062e-08)
(1.92853e-08 1.62329e-08 3.22924e-08)
(2.34374e-08 1.47162e-08 3.54927e-08)
(2.77596e-08 1.34053e-08 3.98257e-08)
(3.2085e-08 1.2406e-08 4.54482e-08)
(3.61951e-08 1.17232e-08 5.24378e-08)
(1.49458e-09 2.73951e-08 3.16803e-08)
(4.55527e-09 2.67564e-08 3.16853e-08)
(7.67717e-09 2.55474e-08 3.18168e-08)
(1.08217e-08 2.38872e-08 3.22727e-08)
(1.39722e-08 2.19423e-08 3.32983e-08)
(1.71583e-08 1.98419e-08 3.5096e-08)
(2.04644e-08 1.76648e-08 3.78576e-08)
(2.39088e-08 1.55101e-08 4.1744e-08)
(2.7242e-08 1.35696e-08 4.68692e-08)
(3.02901e-08 1.18121e-08 5.33249e-08)
(1.45696e-09 3.35136e-08 3.79859e-08)
(4.42555e-09 3.26604e-08 3.7679e-08)
(7.37237e-09 3.10816e-08 3.7299e-08)
(1.02019e-08 2.89533e-08 3.71966e-08)
(1.28613e-08 2.64482e-08 3.76915e-08)
(1.53507e-08 2.36882e-08 3.90122e-08)
(1.77187e-08 2.07613e-08 4.13065e-08)
(2.00549e-08 1.76926e-08 4.47243e-08)
(2.22595e-08 1.46401e-08 4.92765e-08)
(2.40295e-08 1.16527e-08 5.51336e-08)
(1.49755e-09 4.00823e-08 4.65965e-08)
(4.51422e-09 3.8921e-08 4.5709e-08)
(7.4103e-09 3.68554e-08 4.44702e-08)
(1.00085e-08 3.4206e-08 4.35537e-08)
(1.22008e-08 3.11403e-08 4.33948e-08)
(1.39645e-08 2.77054e-08 4.41966e-08)
(1.53638e-08 2.39163e-08 4.60179e-08)
(1.64962e-08 1.98537e-08 4.88794e-08)
(1.74218e-08 1.56694e-08 5.27314e-08)
(1.78355e-08 1.14741e-08 5.78027e-08)
(1.63236e-09 4.66539e-08 5.82924e-08)
(4.86513e-09 4.49952e-08 5.61974e-08)
(7.85487e-09 4.23262e-08 5.34933e-08)
(1.03287e-08 3.91641e-08 5.14011e-08)
(1.209e-08 3.56377e-08 5.04574e-08)
(1.30806e-08 3.16238e-08 5.07361e-08)
(1.3398e-08 2.6986e-08 5.21067e-08)
(1.32565e-08 2.17847e-08 5.44058e-08)
(1.28947e-08 1.6358e-08 5.74807e-08)
(1.22989e-08 1.12227e-08 6.12821e-08)
(6.46806e-09 4.88909e-09 5.1505e-08)
(1.94683e-08 4.65875e-09 5.29296e-08)
(3.25794e-08 4.37767e-09 5.58194e-08)
(4.63448e-08 4.10709e-09 6.03531e-08)
(6.13293e-08 3.86215e-09 6.68792e-08)
(7.80534e-08 3.69211e-09 7.59327e-08)
(9.69689e-08 3.64008e-09 8.82724e-08)
(1.18426e-07 3.76578e-09 1.04963e-07)
(1.42557e-07 4.15941e-09 1.27463e-07)
(1.69273e-07 4.92844e-09 1.57873e-07)
(6.12839e-09 1.47219e-08 5.2697e-08)
(1.86649e-08 1.42223e-08 5.40469e-08)
(3.15715e-08 1.34325e-08 5.68101e-08)
(4.51147e-08 1.26036e-08 6.11677e-08)
(5.97961e-08 1.18552e-08 6.74619e-08)
(7.61257e-08 1.12924e-08 7.61924e-08)
(9.44922e-08 1.10716e-08 8.80383e-08)
(1.15196e-07 1.13861e-08 1.03933e-07)
(1.38185e-07 1.24406e-08 1.24961e-07)
(1.62864e-07 1.45058e-08 1.523e-07)
(5.73265e-09 2.47699e-08 5.51575e-08)
(1.7479e-08 2.41432e-08 5.63656e-08)
(2.97498e-08 2.30104e-08 5.88848e-08)
(4.28068e-08 2.16006e-08 6.2902e-08)
(5.68777e-08 2.02538e-08 6.87399e-08)
(7.23993e-08 1.91779e-08 7.68596e-08)
(8.97854e-08 1.86031e-08 8.78739e-08)
(1.09174e-07 1.88257e-08 1.02457e-07)
(1.30342e-07 2.01629e-08 1.21294e-07)
(1.52517e-07 2.29756e-08 1.449e-07)
(5.28111e-09 3.55988e-08 5.90831e-08)
(1.61678e-08 3.47862e-08 6.01063e-08)
(2.75452e-08 3.33197e-08 6.22665e-08)
(3.97052e-08 3.13629e-08 6.57879e-08)
(5.29073e-08 2.92601e-08 7.10061e-08)
(6.73393e-08 2.74167e-08 7.83305e-08)
(8.33128e-08 2.61702e-08 8.82809e-08)
(1.01027e-07 2.58538e-08 1.01418e-07)
(1.20211e-07 2.68655e-08 1.18158e-07)
(1.40152e-07 2.96144e-08 1.38731e-07)
(4.843e-09 4.77144e-08 6.48379e-08)
(1.48508e-08 4.66761e-08 6.56256e-08)
(2.53155e-08 4.47062e-08 6.73146e-08)
(3.63791e-08 4.20938e-08 7.01926e-08)
(4.8326e-08 3.91296e-08 7.46252e-08)
(6.14104e-08 3.62101e-08 8.10358e-08)
(7.57675e-08 3.3849e-08 8.98915e-08)
(9.15026e-08 3.24708e-08 1.01644e-07)
(1.08571e-07 3.2451e-08 1.16674e-07)
(1.26482e-07 3.41953e-08 1.35174e-07)
(4.4752e-09 6.16056e-08 7.29678e-08)
(1.36959e-08 6.02477e-08 7.34265e-08)
(2.3277e-08 5.76292e-08 7.44972e-08)
(3.32658e-08 5.41083e-08 7.65649e-08)
(4.37886e-08 5.00784e-08 8.00632e-08)
(5.5163e-08 4.58976e-08 8.54712e-08)
(6.76778e-08 4.19802e-08 9.32388e-08)
(8.1292e-08 3.89193e-08 1.03757e-07)
(9.5931e-08 3.71867e-08 1.17426e-07)
(1.11572e-07 3.70383e-08 1.34518e-07)
(4.22453e-09 7.77089e-08 8.42432e-08)
(1.28851e-08 7.58839e-08 8.42025e-08)
(2.17515e-08 7.24482e-08 8.44324e-08)
(3.07502e-08 6.77734e-08 8.5437e-08)
(3.98945e-08 6.23804e-08 8.78317e-08)
(4.93649e-08 5.66915e-08 9.21191e-08)
(5.95665e-08 5.10129e-08 9.87704e-08)
(7.08094e-08 4.57461e-08 1.08188e-07)
(8.27596e-08 4.16382e-08 1.20682e-07)
(9.55303e-08 3.89042e-08 1.36593e-07)
(4.15012e-09 9.6371e-08 9.97419e-08)
(1.26173e-08 9.38786e-08 9.88953e-08)
(2.10612e-08 8.93091e-08 9.78025e-08)
(2.92534e-08 8.32459e-08 9.73607e-08)
(3.71101e-08 7.62528e-08 9.83855e-08)
(4.47362e-08 6.87479e-08 1.01458e-07)
(5.24309e-08 6.10692e-08 1.06955e-07)
(6.07252e-08 5.34373e-08 1.15268e-07)
(6.96734e-08 4.64828e-08 1.26481e-07)
(7.90602e-08 4.07722e-08 1.41162e-07)
(4.33222e-09 1.17742e-07 1.20942e-07)
(1.30724e-08 1.1419e-07 1.18602e-07)
(2.15156e-08 1.08e-07 1.153e-07)
(2.92101e-08 1.00284e-07 1.12762e-07)
(3.59296e-08 9.16376e-08 1.12114e-07)
(4.17276e-08 8.22694e-08 1.13891e-07)
(4.69524e-08 7.22983e-08 1.1827e-07)
(5.21154e-08 6.20749e-08 1.25338e-07)
(5.76964e-08 5.22035e-08 1.35046e-07)
(6.34802e-08 4.35199e-08 1.48134e-07)
(4.84436e-09 1.41776e-07 1.49979e-07)
(1.44511e-08 1.36252e-07 1.4452e-07)
(2.34125e-08 1.27743e-07 1.37432e-07)
(3.10226e-08 1.18168e-07 1.31861e-07)
(3.68287e-08 1.08047e-07 1.29209e-07)
(4.08099e-08 9.70752e-08 1.29716e-07)
(4.34205e-08 8.48916e-08 1.33107e-07)
(4.54689e-08 7.17184e-08 1.39032e-07)
(4.78219e-08 5.85877e-08 1.47166e-07)
(5.06805e-08 4.72025e-08 1.5747e-07)
(9.60213e-09 6.94289e-09 7.51534e-08)
(2.89027e-08 6.61022e-09 7.68898e-08)
(4.83793e-08 6.20184e-09 8.03837e-08)
(6.88715e-08 5.80833e-09 8.57949e-08)
(9.1293e-08 5.45674e-09 9.34531e-08)
(1.16567e-07 5.2251e-09 1.03864e-07)
(1.45646e-07 5.1867e-09 1.17732e-07)
(1.79555e-07 5.44468e-09 1.36039e-07)
(2.19375e-07 6.15603e-09 1.60125e-07)
(2.66486e-07 7.52194e-09 1.9196e-07)
(9.08624e-09 2.09179e-08 7.65357e-08)
(2.76755e-08 2.01911e-08 7.81706e-08)
(4.68285e-08 1.90403e-08 8.14925e-08)
(6.69742e-08 1.78329e-08 8.66654e-08)
(8.8932e-08 1.67556e-08 9.40134e-08)
(1.13607e-07 1.5982e-08 1.04004e-07)
(1.41846e-07 1.57702e-08 1.17256e-07)
(1.74571e-07 1.64495e-08 1.34608e-07)
(2.12498e-07 1.83926e-08 1.56998e-07)
(2.55986e-07 2.21117e-08 1.85415e-07)
(8.47762e-09 3.52402e-08 7.9373e-08)
(2.58522e-08 3.43203e-08 8.08163e-08)
(4.40222e-08 3.26592e-08 8.38055e-08)
(6.34129e-08 3.05994e-08 8.85188e-08)
(8.44353e-08 2.86522e-08 9.52598e-08)
(1.07881e-07 2.71532e-08 1.04456e-07)
(1.3462e-07 2.64887e-08 1.16656e-07)
(1.65286e-07 2.7166e-08 1.32418e-07)
(2.00228e-07 2.97639e-08 1.52253e-07)
(2.39314e-07 3.49834e-08 1.76437e-07)
(7.78013e-09 5.07655e-08 8.38557e-08)
(2.3824e-08 4.95665e-08 8.50482e-08)
(4.06155e-08 4.74032e-08 8.75529e-08)
(5.86268e-08 4.45307e-08 9.15979e-08)
(7.83186e-08 4.14757e-08 9.75113e-08)
(1.00106e-07 3.8871e-08 1.05666e-07)
(1.24689e-07 3.72765e-08 1.1651e-07)
(1.52758e-07 3.72821e-08 1.30485e-07)
(1.84504e-07 3.96175e-08 1.47815e-07)
(2.19731e-07 4.51006e-08 1.68474e-07)
(7.10101e-09 6.83072e-08 9.03408e-08)
(2.17821e-08 6.67687e-08 9.12165e-08)
(3.71623e-08 6.38521e-08 9.3094e-08)
(5.3493e-08 5.99998e-08 9.62805e-08)
(7.12736e-08 5.56721e-08 1.01149e-07)
(9.10179e-08 5.15022e-08 1.081e-07)
(1.1315e-07 4.83215e-08 1.17528e-07)
(1.38187e-07 4.68766e-08 1.29757e-07)
(1.66611e-07 4.79014e-08 1.44982e-07)
(1.98462e-07 5.22456e-08 1.63152e-07)
(6.53093e-09 8.87305e-08 9.93566e-08)
(1.99951e-08 8.67093e-08 9.98029e-08)
(3.40163e-08 8.28159e-08 1.00874e-07)
(4.8707e-08 7.76029e-08 1.02997e-07)
(6.43334e-08 7.16921e-08 1.06634e-07)
(8.1505e-08 6.56763e-08 1.1226e-07)
(1.00875e-07 6.0259e-08 1.20266e-07)
(1.22715e-07 5.64539e-08 1.30916e-07)
(1.47429e-07 5.5175e-08 1.44423e-07)
(1.75715e-07 5.70919e-08 1.60854e-07)
(6.14865e-09 1.12956e-07 1.11636e-07)
(1.87608e-08 1.10217e-07 1.11456e-07)
(3.17012e-08 1.05072e-07 1.11458e-07)
(4.49058e-08 9.8108e-08 1.12222e-07)
(5.84764e-08 9.0158e-08 1.14427e-07)
(7.28177e-08 8.19227e-08 1.18591e-07)
(8.8759e-08 7.39692e-08 1.2514e-07)
(1.07104e-07 6.70516e-08 1.34369e-07)
(1.27817e-07 6.25147e-08 1.46408e-07)
(1.5178e-07 6.10275e-08 1.61406e-07)
(6.05555e-09 1.42002e-07 1.28192e-07)
(1.84149e-08 1.38196e-07 1.2704e-07)
(3.07629e-08 1.31251e-07 1.25431e-07)
(4.28101e-08 1.22123e-07 1.24398e-07)
(5.45195e-08 1.11738e-07 1.24869e-07)
(6.61904e-08 1.00812e-07 1.2747e-07)
(7.84855e-08 8.99668e-08 1.32543e-07)
(9.25498e-08 7.97203e-08 1.40378e-07)
(1.08879e-07 7.12278e-08 1.50921e-07)
(1.27867e-07 6.57941e-08 1.64534e-07)
(6.39152e-09 1.76978e-07 1.50416e-07)
(1.92866e-08 1.71369e-07 1.47533e-07)
(3.17608e-08 1.61704e-07 1.4333e-07)
(4.32002e-08 1.49862e-07 1.39778e-07)
(5.33699e-08 1.36872e-07 1.38177e-07)
(6.2506e-08 1.23148e-07 1.39134e-07)
(7.1348e-08 1.08976e-07 1.42803e-07)
(8.09608e-08 9.50405e-08 1.49178e-07)
(9.24364e-08 8.24488e-08 1.58096e-07)
(1.06146e-07 7.2994e-08 1.70082e-07)
(7.30162e-09 2.1935e-07 1.80366e-07)
(2.1771e-08 2.10137e-07 1.73983e-07)
(3.52849e-08 1.96261e-07 1.65453e-07)
(4.68662e-08 1.81083e-07 1.58344e-07)
(5.597e-08 1.65574e-07 1.54311e-07)
(6.27494e-08 1.49363e-07 1.53671e-07)
(6.81163e-08 1.31977e-07 1.56119e-07)
(7.35405e-08 1.13832e-07 1.61224e-07)
(8.05563e-08 9.65638e-08 1.68562e-07)
(8.9709e-08 8.29509e-08 1.77961e-07)
(1.12319e-08 7.46367e-09 8.77197e-08)
(3.37808e-08 7.09005e-09 8.92318e-08)
(5.64603e-08 6.62288e-09 9.223e-08)
(8.02192e-08 6.16499e-09 9.67618e-08)
(1.06112e-07 5.75316e-09 1.02964e-07)
(1.35229e-07 5.481e-09 1.11039e-07)
(1.68731e-07 5.44103e-09 1.21242e-07)
(2.07914e-07 5.76269e-09 1.33881e-07)
(2.54192e-07 6.64016e-09 1.49306e-07)
(3.09365e-07 8.32804e-09 1.67995e-07)
(1.06002e-08 2.24835e-08 8.87946e-08)
(3.22619e-08 2.16533e-08 9.02029e-08)
(5.45139e-08 2.03283e-08 9.3025e-08)
(7.78269e-08 1.892e-08 9.73139e-08)
(1.03147e-07 1.76507e-08 1.03204e-07)
(1.31549e-07 1.6737e-08 1.10875e-07)
(1.64081e-07 1.64959e-08 1.20523e-07)
(2.01931e-07 1.7334e-08 1.32366e-07)
(2.46125e-07 1.97254e-08 1.4651e-07)
(2.97359e-07 2.43183e-08 1.62861e-07)
(9.83608e-09 3.78722e-08 9.09774e-08)
(2.99739e-08 3.68002e-08 9.21901e-08)
(5.09787e-08 3.48603e-08 9.46693e-08)
(7.33244e-08 3.24459e-08 9.84909e-08)
(9.74845e-08 3.01414e-08 1.03777e-07)
(1.24407e-07 2.83539e-08 1.10682e-07)
(1.55178e-07 2.75602e-08 1.19363e-07)
(1.90669e-07 2.83875e-08 1.29854e-07)
(2.3151e-07 3.15645e-08 1.42003e-07)
(2.77879e-07 3.7982e-08 1.55319e-07)
(8.94924e-09 5.45657e-08 9.43566e-08)
(2.73875e-08 5.31556e-08 9.53129e-08)
(4.66418e-08 5.0601e-08 9.72993e-08)
(6.72452e-08 4.72039e-08 1.00443e-07)
(8.97376e-08 4.35754e-08 1.04901e-07)
(1.14635e-07 4.04555e-08 1.10794e-07)
(1.42829e-07 3.85222e-08 1.18211e-07)
(1.75265e-07 3.85119e-08 1.27122e-07)
(2.12396e-07 4.13357e-08 1.37211e-07)
(2.54313e-07 4.80244e-08 1.47833e-07)
(8.07038e-09 7.34779e-08 9.91065e-08)
(2.47419e-08 7.16609e-08 9.97425e-08)
(4.21731e-08 6.82099e-08 1.01104e-07)
(6.06433e-08 6.36307e-08 1.0339e-07)
(8.0743e-08 5.8466e-08 1.06807e-07)
(1.03111e-07 5.34644e-08 1.1152e-07)
(1.28315e-07 4.96057e-08 1.17582e-07)
(1.5709e-07 4.78019e-08 1.24888e-07)
(1.90209e-07 4.89815e-08 1.33125e-07)
(2.27985e-07 5.4205e-08 1.41675e-07)
(7.3113e-09 9.56148e-08 1.05465e-07)
(2.23701e-08 9.32325e-08 1.05686e-07)
(3.80164e-08 8.86339e-08 1.06269e-07)
(5.43696e-08 8.24415e-08 1.07519e-07)
(7.17528e-08 7.53741e-08 1.0973e-07)
(9.09151e-08 6.81359e-08 1.13133e-07)
(1.12697e-07 6.15756e-08 1.17807e-07)
(1.37533e-07 5.69001e-08 1.23611e-07)
(1.66051e-07 5.52204e-08 1.3023e-07)
(1.99285e-07 5.74066e-08 1.37173e-07)
(6.77139e-09 1.22094e-07 1.13726e-07)
(2.06408e-08 1.18886e-07 1.13382e-07)
(3.48163e-08 1.12831e-07 1.12978e-07)
(4.92138e-08 1.04583e-07 1.12959e-07)
(6.39649e-08 9.50882e-08 1.13798e-07)
(7.9583e-08 8.51694e-08 1.15783e-07)
(9.71068e-08 7.55239e-08 1.19025e-07)
(1.17587e-07 6.70806e-08 1.23425e-07)
(1.41098e-07 6.14202e-08 1.28619e-07)
(1.68828e-07 5.9402e-08 1.34169e-07)
(6.57722e-09 1.5421e-07 1.24247e-07)
(1.99679e-08 1.49786e-07 1.23088e-07)
(3.32511e-08 1.4166e-07 1.21309e-07)
(4.60761e-08 1.30886e-07 1.197e-07)
(5.84106e-08 1.18503e-07 1.18948e-07)
(7.0648e-08 1.05351e-07 1.19443e-07)
(8.36348e-08 9.21922e-08 1.21258e-07)
(9.88033e-08 7.96926e-08 1.24283e-07)
(1.16867e-07 6.9262e-08 1.28126e-07)
(1.38351e-07 6.24214e-08 1.32376e-07)
(6.89885e-09 1.93454e-07 1.37449e-07)
(2.07635e-08 1.86983e-07 1.3497e-07)
(3.40187e-08 1.7574e-07 1.31155e-07)
(4.59295e-08 1.61797e-07 1.27469e-07)
(5.62297e-08 1.46305e-07 1.24897e-07)
(6.5239e-08 1.29759e-07 1.23853e-07)
(7.39048e-08 1.1256e-07 1.24312e-07)
(8.35851e-08 9.55866e-08 1.26018e-07)
(9.56979e-08 8.02271e-08 1.2855e-07)
(1.10672e-07 6.85239e-08 1.31528e-07)
(7.91327e-09 2.41816e-07 1.53931e-07)
(2.35138e-08 2.31254e-07 1.49023e-07)
(3.78511e-08 2.1518e-07 1.42065e-07)
(4.97534e-08 1.97311e-07 1.35642e-07)
(5.85887e-08 1.78728e-07 1.31047e-07)
(6.45839e-08 1.59063e-07 1.28527e-07)
(6.89027e-08 1.37879e-07 1.27778e-07)
(7.34137e-08 1.15793e-07 1.28327e-07)
(8.00775e-08 9.48297e-08 1.29686e-07)
(8.96041e-08 7.82485e-08 1.31407e-07)
(1.13067e-08 6.41207e-09 9.11505e-08)
(3.3935e-08 6.06199e-09 9.21892e-08)
(5.64872e-08 5.60881e-09 9.41998e-08)
(7.97846e-08 5.14871e-09 9.71177e-08)
(1.0474e-07 4.72358e-09 1.00881e-07)
(1.32262e-07 4.42614e-09 1.05397e-07)
(1.63267e-07 4.35285e-09 1.10501e-07)
(1.98683e-07 4.63682e-09 1.15926e-07)
(2.39363e-07 5.47277e-09 1.21252e-07)
(2.86166e-07 7.11942e-09 1.25905e-07)
(1.06232e-08 1.92863e-08 9.17084e-08)
(3.2266e-08 1.84846e-08 9.26593e-08)
(5.43061e-08 1.71855e-08 9.45218e-08)
(7.70887e-08 1.57658e-08 9.72367e-08)
(1.01423e-07 1.44445e-08 1.00744e-07)
(1.28222e-07 1.34455e-08 1.04942e-07)
(1.58319e-07 1.30888e-08 1.09644e-07)
(1.92605e-07 1.37835e-08 1.14542e-07)
(2.31713e-07 1.60199e-08 1.19134e-07)
(2.75831e-07 2.04565e-08 1.22661e-07)
(9.76561e-09 3.23929e-08 9.28175e-08)
(2.97008e-08 3.1323e-08 9.36036e-08)
(5.03232e-08 2.93761e-08 9.5175e-08)
(7.1994e-08 2.69261e-08 9.7501e-08)
(9.50629e-08 2.45178e-08 1.00518e-07)
(1.20337e-07 2.25559e-08 1.04118e-07)
(1.48733e-07 2.15217e-08 1.08102e-07)
(1.80926e-07 2.20458e-08 1.12094e-07)
(2.17338e-07 2.48693e-08 1.15498e-07)
(2.57982e-07 3.08993e-08 1.17444e-07)
(8.75067e-09 4.64896e-08 9.44613e-08)
(2.67292e-08 4.5064e-08 9.50316e-08)
(4.53551e-08 4.24587e-08 9.61913e-08)
(6.50576e-08 3.89687e-08 9.79554e-08)
(8.62705e-08 3.51713e-08 1.00302e-07)
(1.09398e-07 3.17692e-08 1.03111e-07)
(1.352e-07 2.94248e-08 1.06159e-07)
(1.64492e-07 2.888e-08 1.09056e-07)
(1.97632e-07 3.10484e-08 1.11165e-07)
(2.34688e-07 3.69589e-08 1.11596e-07)
(7.71568e-09 6.23127e-08 9.66223e-08)
(2.36091e-08 6.04696e-08 9.69269e-08)
(4.0096e-08 5.6955e-08 9.75793e-08)
(5.73616e-08 5.22305e-08 9.86486e-08)
(7.59039e-08 4.681e-08 1.00164e-07)
(9.62706e-08 4.14075e-08 1.02057e-07)
(1.18924e-07 3.69439e-08 1.04092e-07)
(1.44499e-07 3.43033e-08 1.05853e-07)
(1.73707e-07 3.44199e-08 1.0674e-07)
(2.06836e-07 3.8328e-08 1.05924e-07)
(6.77799e-09 8.06638e-08 9.92476e-08)
(2.06925e-08 7.8274e-08 9.92264e-08)
(3.50181e-08 7.36384e-08 9.92712e-08)
(4.97868e-08 6.72994e-08 9.95328e-08)
(6.52441e-08 5.99078e-08 1.00112e-07)
(8.205e-08 5.21198e-08 1.00997e-07)
(1.00961e-07 4.47493e-08 1.02002e-07)
(1.22332e-07 3.89272e-08 1.02705e-07)
(1.46684e-07 3.56921e-08 1.02494e-07)
(1.74993e-07 3.5926e-08 1.00674e-07)
(6.04274e-09 1.02408e-07 1.02217e-07)
(1.83631e-08 9.92697e-08 1.01787e-07)
(3.07882e-08 9.3274e-08 1.01104e-07)
(4.31534e-08 8.49611e-08 1.00431e-07)
(5.55164e-08 7.51389e-08 9.99906e-08)
(6.83216e-08 6.455e-08 9.98316e-08)
(8.25167e-08 5.38529e-08 9.97992e-08)
(9.90693e-08 4.39459e-08 9.9526e-08)
(1.17955e-07 3.62608e-08 9.83913e-08)
(1.40245e-07 3.16385e-08 9.5744e-08)
(5.63993e-09 1.28496e-07 1.05311e-07)
(1.70405e-08 1.24322e-07 1.04347e-07)
(2.81041e-08 1.16518e-07 1.02751e-07)
(3.83937e-08 1.05893e-07 1.00991e-07)
(4.78022e-08 9.32827e-08 9.94463e-08)
(5.66631e-08 7.94125e-08 9.82482e-08)
(6.57651e-08 6.50008e-08 9.72509e-08)
(7.64307e-08 5.06948e-08 9.60775e-08)
(8.93804e-08 3.79013e-08 9.42176e-08)
(1.04887e-07 2.79009e-08 9.09151e-08)
(5.73466e-09 1.59928e-07 1.08179e-07)
(1.71389e-08 1.54124e-07 1.06462e-07)
(2.76704e-08 1.43772e-07 1.03667e-07)
(3.64994e-08 1.30421e-07 1.00626e-07)
(4.32732e-08 1.14918e-07 9.79139e-08)
(4.82527e-08 9.76618e-08 9.57153e-08)
(5.23637e-08 7.9074e-08 9.3876e-08)
(5.69649e-08 6.0081e-08 9.20054e-08)
(6.35442e-08 4.2165e-08 8.96302e-08)
(7.21989e-08 2.69942e-08 8.593e-08)
(6.48914e-09 1.97922e-07 1.10347e-07)
(1.91171e-08 1.89016e-07 1.07452e-07)
(3.01974e-08 1.74951e-07 1.03025e-07)
(3.84325e-08 1.58444e-07 9.84786e-08)
(4.30829e-08 1.40197e-07 9.46011e-08)
(4.43151e-08 1.19846e-07 9.15393e-08)
(4.33095e-08 9.71343e-08 8.90363e-08)
(4.20619e-08 7.29003e-08 8.66758e-08)
(4.27627e-08 4.93741e-08 8.40295e-08)
(4.62612e-08 2.97614e-08 8.06058e-08)
(1.02335e-08 4.21659e-09 8.89722e-08)
(3.06062e-08 3.9453e-09 8.95987e-08)
(5.05898e-08 3.57437e-09 9.07746e-08)
(7.07132e-08 3.17807e-09 9.23905e-08)
(9.15546e-08 2.79862e-09 9.43049e-08)
(1.13621e-07 2.51476e-09 9.63164e-08)
(1.37312e-07 2.4147e-09 9.81402e-08)
(1.62872e-07 2.61879e-09 9.93922e-08)
(1.90226e-07 3.29801e-09 9.95824e-08)
(2.18886e-07 4.6858e-09 9.81589e-08)
(9.55373e-09 1.26283e-08 8.91113e-08)
(2.89163e-08 1.1976e-08 8.96735e-08)
(4.83338e-08 1.08953e-08 9.07424e-08)
(6.79117e-08 9.66628e-09 9.22126e-08)
(8.81434e-08 8.47269e-09 9.39444e-08)
(1.09566e-07 7.51622e-09 9.57377e-08)
(1.32556e-07 7.07656e-09 9.72967e-08)
(1.57411e-07 7.51252e-09 9.82166e-08)
(1.84095e-07 9.27352e-09 9.7975e-08)
(2.12083e-07 1.29548e-08 9.59401e-08)
(8.66395e-09 2.10336e-08 8.93706e-08)
(2.62591e-08 2.01191e-08 8.9812e-08)
(4.41896e-08 1.84428e-08 9.06676e-08)
(6.25935e-08 1.63011e-08 9.18608e-08)
(8.15734e-08 1.41112e-08 9.32519e-08)
(1.01604e-07 1.22169e-08 9.46401e-08)
(1.23196e-07 1.10393e-08 9.57288e-08)
(1.46608e-07 1.11296e-08 9.60876e-08)
(1.71865e-07 1.31525e-08 9.51526e-08)
(1.98734e-07 1.79323e-08 9.22398e-08)
(7.58746e-09 2.98326e-08 8.9692e-08)
(2.30959e-08 2.8592e-08 8.99765e-08)
(3.89241e-08 2.62978e-08 9.05355e-08)
(5.52848e-08 2.31929e-08 9.13314e-08)
(7.23823e-08 1.97292e-08 9.22638e-08)
(9.03739e-08 1.64601e-08 9.31319e-08)
(1.09694e-07 1.39354e-08 9.363e-08)
(1.30819e-07 1.28056e-08 9.33291e-08)
(1.53885e-07 1.38746e-08 9.16596e-08)
(1.789e-07 1.80558e-08 8.79343e-08)
(6.45482e-09 3.93962e-08 8.99802e-08)
(1.96785e-08 3.77868e-08 9.00743e-08)
(3.31831e-08 3.4701e-08 9.02803e-08)
(4.69816e-08 3.04757e-08 9.05995e-08)
(6.13567e-08 2.55111e-08 9.09816e-08)
(7.66259e-08 2.03728e-08 9.12724e-08)
(9.30028e-08 1.57735e-08 9.11658e-08)
(1.10861e-07 1.24434e-08 9.02262e-08)
(1.30703e-07 1.12123e-08 8.79181e-08)
(1.52755e-07 1.29756e-08 8.36108e-08)
(5.3767e-09 5.01011e-08 9.00763e-08)
(1.63421e-08 4.80527e-08 8.99475e-08)
(2.74204e-08 4.40518e-08 8.97464e-08)
(3.85005e-08 3.84554e-08 8.95378e-08)
(4.9667e-08 3.17258e-08 8.93297e-08)
(6.13451e-08 2.43568e-08 8.90181e-08)
(7.40471e-08 1.69995e-08 8.83508e-08)
(8.79373e-08 1.05327e-08 8.68973e-08)
(1.03318e-07 5.77835e-09 8.4112e-08)
(1.21007e-07 3.56527e-09 7.94776e-08)
(4.45284e-09 6.22947e-08 8.97364e-08)
(1.34444e-08 5.97179e-08 8.93456e-08)
(2.22516e-08 5.47024e-08 8.86771e-08)
(3.06043e-08 4.75556e-08 8.7894e-08)
(3.84299e-08 3.8776e-08 8.70882e-08)
(4.5998e-08 2.8882e-08 8.62133e-08)
(5.39893e-08 1.83815e-08 8.50495e-08)
(6.31186e-08 8.0149e-09 8.32193e-08)
(7.32437e-08 -1.15246e-09 8.01831e-08)
(8.52213e-08 -8.34711e-09 7.54711e-08)
(3.80184e-09 7.62609e-08 8.86155e-08)
(1.13619e-08 7.30577e-08 8.79018e-08)
(1.83186e-08 6.68867e-08 8.66921e-08)
(2.41595e-08 5.81101e-08 8.52846e-08)
(2.86707e-08 4.71554e-08 8.38945e-08)
(3.20423e-08 3.44676e-08 8.25399e-08)
(3.48706e-08 2.05899e-08 8.10231e-08)
(3.81628e-08 6.06268e-09 7.89662e-08)
(4.2592e-08 -7.86877e-09 7.59569e-08)
(4.81664e-08 -2.03212e-08 7.14097e-08)
(3.56267e-09 9.21419e-08 8.62694e-08)
(1.04625e-08 8.81274e-08 8.51387e-08)
(1.62546e-08 8.06076e-08 8.32769e-08)
(2.00735e-08 7.02054e-08 8.11976e-08)
(2.14788e-08 5.72135e-08 7.9259e-08)
(2.06054e-08 4.17944e-08 7.75413e-08)
(1.82265e-08 2.43085e-08 7.58655e-08)
(1.55424e-08 5.61234e-09 7.38621e-08)
(1.39949e-08 -1.28523e-08 7.11491e-08)
(1.33555e-08 -3.00146e-08 6.70551e-08)
(3.85902e-09 1.09955e-07 8.21993e-08)
(1.11182e-08 1.0462e-07 8.04797e-08)
(1.66664e-08 9.55081e-08 7.77873e-08)
(1.91911e-08 8.36293e-08 7.49885e-08)
(1.78873e-08 6.90099e-08 7.26032e-08)
(1.28106e-08 5.12554e-08 7.072e-08)
(5.01851e-09 3.03192e-08 6.91234e-08)
(-3.55522e-09 7.19159e-09 6.74461e-08)
(-1.06475e-08 -1.59115e-08 6.53002e-08)
(-1.52406e-08 -3.62041e-08 6.2266e-08)
(8.71059e-09 1.59907e-09 8.41169e-08)
(2.59315e-08 1.44276e-09 8.45394e-08)
(4.24648e-08 1.20825e-09 8.53242e-08)
(5.85238e-08 9.39948e-10 8.63865e-08)
(7.43312e-08 6.76151e-10 8.76217e-08)
(8.99842e-08 4.74477e-10 8.88961e-08)
(1.05392e-07 4.07692e-10 9.0048e-08)
(1.20189e-07 5.74342e-10 9.09058e-08)
(1.33549e-07 1.11112e-09 9.13312e-08)
(1.43999e-07 2.21377e-09 9.13236e-08)
(8.07206e-09 4.71119e-09 8.40778e-08)
(2.43185e-08 4.30006e-09 8.44565e-08)
(4.0273e-08 3.59671e-09 8.51706e-08)
(5.57977e-08 2.75493e-09 8.61368e-08)
(7.10531e-08 1.90484e-09 8.72507e-08)
(8.61888e-08 1.20747e-09 8.83777e-08)
(1.01144e-07 8.79011e-10 8.93408e-08)
(1.15682e-07 1.20189e-09 8.99348e-08)
(1.29232e-07 2.55473e-09 8.99549e-08)
(1.40809e-07 5.43555e-09 8.9229e-08)
(7.20322e-09 7.59359e-09 8.39945e-08)
(2.17297e-08 6.96774e-09 8.42905e-08)
(3.62265e-08 5.81179e-09 8.48609e-08)
(5.06032e-08 4.31297e-09 8.56465e-08)
(6.47156e-08 2.71861e-09 8.654e-08)
(7.86947e-08 1.28021e-09 8.74022e-08)
(9.26497e-08 3.23604e-10 8.80449e-08)
(1.06461e-07 2.79071e-10 8.82207e-08)
(1.1984e-07 1.68896e-09 8.76414e-08)
(1.32442e-07 5.24634e-09 8.59916e-08)
(6.13142e-09 1.02616e-08 8.38336e-08)
(1.85737e-08 9.38503e-09 8.40239e-08)
(3.1002e-08 7.74036e-09 8.43964e-08)
(4.34063e-08 5.49353e-09 8.49247e-08)
(5.57557e-08 2.92539e-09 8.55338e-08)
(6.7962e-08 3.86935e-10 8.60791e-08)
(8.01327e-08 -1.73101e-09 8.63563e-08)
(9.24136e-08 -2.91924e-09 8.60993e-08)
(1.04765e-07 -2.54095e-09 8.49775e-08)
(1.172e-07 1.47089e-10 8.26135e-08)
(4.97324e-09 1.27043e-08 8.35377e-08)
(1.50805e-08 1.1555e-08 8.36004e-08)
(2.51619e-08 9.33804e-09 8.37437e-08)
(3.50638e-08 6.23254e-09 8.39726e-08)
(4.48462e-08 2.48679e-09 8.42563e-08)
(5.45867e-08 -1.53708e-09 8.44868e-08)
(6.42536e-08 -5.39794e-09 8.44508e-08)
(7.39648e-08 -8.57749e-09 8.38655e-08)
(8.40205e-08 -1.04099e-08 8.24066e-08)
(9.46185e-08 -1.01928e-08 7.97135e-08)
(3.82626e-09 1.48689e-08 8.30165e-08)
(1.15492e-08 1.34386e-08 8.29298e-08)
(1.91133e-08 1.06197e-08 8.28109e-08)
(2.62831e-08 6.5539e-09 8.27211e-08)
(3.29848e-08 1.47102e-09 8.26806e-08)
(3.93963e-08 -4.34354e-09 8.26255e-08)
(4.57678e-08 -1.0462e-08 8.23832e-08)
(5.2083e-08 -1.6335e-08 8.16629e-08)
(5.84434e-08 -2.14118e-08 8.013e-08)
(6.55006e-08 -2.49692e-08 7.75003e-08)
(2.77861e-09 1.66073e-08 8.21478e-08)
(8.29029e-09 1.49193e-08 8.18803e-08)
(1.33876e-08 1.15377e-08 8.14526e-08)
(1.7728e-08 6.52093e-09 8.10216e-08)
(2.11239e-08 1.72905e-11 8.06831e-08)
(2.36635e-08 -7.73213e-09 8.04208e-08)
(2.57365e-08 -1.64188e-08 8.00914e-08)
(2.77808e-08 -2.55283e-08 7.94401e-08)
(2.95739e-08 -3.44471e-08 7.81207e-08)
(3.17533e-08 -4.25128e-08 7.58935e-08)
(1.93064e-09 1.76076e-08 8.07936e-08)
(5.61707e-09 1.57414e-08 8.02823e-08)
(8.53506e-09 1.19493e-08 7.94722e-08)
(1.01525e-08 6.15215e-09 7.86587e-08)
(1.01779e-08 -1.65592e-09 7.80547e-08)
(8.65604e-09 -1.13604e-08 7.76996e-08)
(5.96256e-09 -2.2663e-08 7.74534e-08)
(2.75405e-09 -3.51832e-08 7.70621e-08)
(-3.81441e-10 -4.79669e-08 7.62304e-08)
(-3.6262e-09 -6.0552e-08 7.46595e-08)
(1.38851e-09 1.73085e-08 7.88467e-08)
(3.83128e-09 1.54496e-08 7.7967e-08)
(5.08467e-09 1.15529e-08 7.66305e-08)
(4.33411e-09 5.35934e-09 7.5364e-08)
(1.10157e-09 -3.38902e-09 7.45268e-08)
(-4.6019e-09 -1.48054e-08 7.42091e-08)
(-1.22031e-08 -2.86754e-08 7.42637e-08)
(-2.07386e-08 -4.43359e-08 7.43833e-08)
(-2.89162e-08 -6.05533e-08 7.42478e-08)
(-3.71861e-08 -7.68656e-08 7.34996e-08)
(1.23262e-09 1.48272e-08 7.63281e-08)
(3.20276e-09 1.33181e-08 7.48016e-08)
(3.51304e-09 9.87072e-09 7.26521e-08)
(9.64291e-10 3.92296e-09 7.08132e-08)
(-5.23413e-09 -5.13742e-09 6.98047e-08)
(-1.51291e-08 -1.77703e-08 6.97108e-08)
(-2.78624e-08 -3.39193e-08 7.03133e-08)
(-4.17242e-08 -5.26425e-08 7.12213e-08)
(-5.45883e-08 -7.20285e-08 7.19873e-08)
(-6.53724e-08 -8.99658e-08 7.22077e-08)
(7.43273e-09 -7.23697e-10 7.79259e-08)
(2.20342e-08 -7.51492e-10 7.83141e-08)
(3.57734e-08 -8.16267e-10 7.90572e-08)
(4.86538e-08 -9.03947e-10 8.01227e-08)
(6.06693e-08 -9.83997e-10 8.14894e-08)
(7.16728e-08 -1.02107e-09 8.31489e-08)
(8.13079e-08 -9.60892e-10 8.51225e-08)
(8.89165e-08 -7.29054e-10 8.74967e-08)
(9.33699e-08 -2.22466e-10 9.0482e-08)
(9.28492e-08 7.17877e-10 9.45338e-08)
(6.85148e-09 -2.28331e-09 7.79035e-08)
(2.05539e-08 -2.40158e-09 7.8261e-08)
(3.37475e-08 -2.62283e-09 7.89566e-08)
(4.6145e-08 -2.91689e-09 7.99569e-08)
(5.76956e-08 -3.21181e-09 8.12385e-08)
(6.83154e-08 -3.39521e-09 8.27864e-08)
(7.77075e-08 -3.31963e-09 8.45959e-08)
(8.53801e-08 -2.78146e-09 8.67025e-08)
(9.05647e-08 -1.48192e-09 8.9201e-08)
(9.22031e-08 9.77453e-10 9.22631e-08)
(6.04208e-09 -4.17559e-09 7.78767e-08)
(1.81491e-08 -4.41807e-09 7.81756e-08)
(2.99963e-08 -4.86744e-09 7.8772e-08)
(4.13529e-08 -5.45151e-09 7.96509e-08)
(5.19309e-08 -6.08958e-09 8.07809e-08)
(6.1655e-08 -6.62901e-09 8.21346e-08)
(7.04084e-08 -6.84679e-09 8.3682e-08)
(7.78948e-08 -6.44137e-09 8.53815e-08)
(8.37312e-08 -5.00357e-09 8.71897e-08)
(8.76445e-08 -1.98307e-09 8.90396e-08)
(5.03119e-09 -6.65925e-09 7.78626e-08)
(1.51743e-08 -7.03994e-09 7.80876e-08)
(2.51043e-08 -7.77184e-09 7.85464e-08)
(3.46768e-08 -8.77212e-09 7.92523e-08)
(4.37202e-08 -9.93121e-09 8.01969e-08)
(5.20077e-08 -1.10986e-08 8.13372e-08)
(5.94608e-08 -1.20442e-08 8.26116e-08)
(6.60521e-08 -1.24118e-08 8.39343e-08)
(7.16924e-08 -1.17465e-08 8.51704e-08)
(7.64751e-08 -9.48748e-09 8.61343e-08)
(3.92004e-09 -9.99743e-09 7.78872e-08)
(1.183e-08 -1.05259e-08 7.80214e-08)
(1.95493e-08 -1.15542e-08 7.832e-08)
(2.68376e-08 -1.30489e-08 7.88254e-08)
(3.36216e-08 -1.49113e-08 7.95665e-08)
(3.98327e-08 -1.69823e-08 8.05244e-08)
(4.53022e-08 -1.90805e-08 8.16154e-08)
(5.00066e-08 -2.09016e-08 8.27162e-08)
(5.41365e-08 -2.19691e-08 8.36704e-08)
(5.78977e-08 -2.17878e-08 8.42725e-08)
(2.79158e-09 -1.45032e-08 7.79877e-08)
(8.37315e-09 -1.51479e-08 7.80078e-08)
(1.36806e-08 -1.6441e-08 7.81131e-08)
(1.84311e-08 -1.84216e-08 7.84019e-08)
(2.2467e-08 -2.10683e-08 7.89499e-08)
(2.58111e-08 -2.42909e-08 7.97774e-08)
(2.8542e-08 -2.78885e-08 8.08213e-08)
(3.05361e-08 -3.16342e-08 8.19306e-08)
(3.17805e-08 -3.52391e-08 8.29366e-08)
(3.27882e-08 -3.81418e-08 8.36749e-08)
(1.71999e-09 -2.05904e-08 7.82288e-08)
(5.06346e-09 -2.12588e-08 7.80906e-08)
(7.9421e-09 -2.26981e-08 7.79418e-08)
(1.00164e-08 -2.50354e-08 7.79762e-08)
(1.1053e-08 -2.84036e-08 7.83513e-08)
(1.10256e-08 -3.28116e-08 7.91242e-08)
(1.01225e-08 -3.81485e-08 8.02543e-08)
(8.57791e-09 -4.41472e-08 8.1606e-08)
(6.11828e-09 -5.06249e-08 8.29717e-08)