/*--------------------------------*- C++ -*----------------------------------*\
| =========                 |                                                 |
| \\      /  F ield         | foam-extend: Open Source CFD                    |
|  \\    /   O peration     | Version:     3.1                                |
|   \\  /    A nd           | Web:         http://www.extend-project.de       |
|    \\/     M anipulation  |                                                 |
\*---------------------------------------------------------------------------*/
FoamFile
{
    version     2.0;
    format      ascii;
    class       surfaceScalarField;
    location    "0.0007";
    object      meshPhi;
}
// * * * * * * * * * * * * * * * * * * * * * * * * * * * * * * * * * * * * * //

dimensions      [0 3 -1 0 0 0 0];

internalField   nonuniform List<scalar> 
45800
(
2.43804e-10
2.44132e-10
1.23464e-10
4.71509e-10
2.42207e-10
1.30378e-10
6.79102e-10
2.3676e-10
1.45877e-10
8.67396e-10
2.30498e-10
1.6972e-10
1.03733e-09
2.24231e-10
2.02065e-10
1.1887e-09
2.18051e-10
2.4338e-10
1.32011e-09
2.12067e-10
2.9431e-10
1.4288e-09
2.06413e-10
3.5549e-10
1.51053e-09
2.01194e-10
4.27237e-10
1.94682e-10
5.09578e-10
1.56027e-09
2.41861e-10
4.712e-10
1.30353e-10
4.70423e-10
4.70502e-10
1.36797e-10
6.81078e-10
4.63361e-10
1.51562e-10
8.72672e-10
4.53183e-10
1.74442e-10
1.04543e-09
4.42176e-10
2.05589e-10
1.19918e-09
4.3109e-10
2.45435e-10
1.33258e-09
4.20201e-10
2.94569e-10
1.4429e-09
4.0976e-10
3.53507e-10
1.52607e-09
3.99776e-10
4.22362e-10
3.86533e-10
5.00441e-10
1.57681e-09
2.36733e-10
6.77961e-10
1.45842e-10
4.63201e-10
6.80328e-10
1.51533e-10
6.75038e-10
6.74834e-10
1.65201e-10
8.69373e-10
6.63905e-10
1.86697e-10
1.04482e-09
6.50234e-10
2.1616e-10
1.20076e-09
6.35745e-10
2.53996e-10
1.33588e-09
6.21212e-10
3.0073e-10
1.44744e-09
6.06876e-10
3.56723e-10
1.53164e-09
5.92711e-10
4.21882e-10
5.7318e-10
4.95078e-10
1.58399e-09
2.30761e-10
8.65846e-10
1.69702e-10
4.53382e-10
8.71289e-10
1.74413e-10
6.63978e-10
8.68467e-10
1.86673e-10
8.59305e-10
8.58968e-10
2.0641e-10
1.03674e-09
8.44742e-10
2.33774e-10
1.19444e-09
8.2804e-10
2.69133e-10
1.33075e-09
8.10614e-10
3.12968e-10
1.44298e-09
7.93071e-10
3.65547e-10
1.52764e-09
7.75215e-10
4.26667e-10
7.49972e-10
4.948e-10
1.5815e-09
2.2452e-10
1.0356e-09
2.02078e-10
4.42657e-10
1.04381e-09
2.05588e-10
6.50618e-10
1.04344e-09
2.1614e-10
8.44926e-10
1.03585e-09
2.3375e-10
1.02274e-09
1.02244e-09
2.58614e-10
1.18144e-09
1.0048e-09
2.91093e-10
1.31835e-09
9.84869e-10
3.31621e-10
1.43045e-09
9.64173e-10
3.80434e-10
1.51463e-09
9.42816e-10
4.3732e-10
9.12487e-10
5.00302e-10
1.56933e-09
2.18301e-10
1.18691e-09
2.43422e-10
4.31588e-10
1.19749e-09
2.45465e-10
6.36372e-10
1.19923e-09
2.54e-10
8.28533e-10
1.1932e-09
2.69112e-10
1.00495e-09
1.18075e-09
2.91069e-10
1.16308e-09
1.16305e-09
3.20265e-10
1.29971e-09
1.14129e-09
3.57102e-10
1.41089e-09
1.1172e-09
4.01793e-10
1.49334e-09
1.09182e-09
4.5414e-10
1.05676e-09
5.11715e-10
1.54766e-09
2.12288e-10
1.31837e-09
2.94376e-10
4.20642e-10
1.33094e-09
2.94621e-10
6.21865e-10
1.33438e-09
3.00758e-10
8.11411e-10
1.32943e-09
3.12968e-10
9.85436e-10
1.31729e-09
3.31589e-10
1.14119e-09
1.2992e-09
3.57043e-10
1.2759e-09
1.27603e-09
3.89736e-10
1.38511e-09
1.24879e-09
4.29814e-10
1.46454e-09
1.21873e-09
4.76996e-10
1.1791e-09
5.28595e-10
1.51692e-09
2.06609e-10
1.42724e-09
3.55576e-10
4.10149e-10
1.44142e-09
3.53578e-10
6.07459e-10
1.44607e-09
3.56765e-10
7.9387e-10
1.44174e-09
3.65552e-10
9.65074e-10
1.42932e-09
3.80388e-10
1.11756e-09
1.40993e-09
4.01655e-10
1.2486e-09
1.38457e-09
4.29658e-10
1.35409e-09
1.35401e-09
4.64321e-10
1.42926e-09
1.31929e-09
5.05262e-10
1.27595e-09
5.49874e-10
1.47802e-09
2.01358e-10
1.50923e-09
4.27341e-10
4.00098e-10
1.52484e-09
4.22449e-10
5.93185e-10
1.5305e-09
4.21935e-10
7.75836e-10
1.5266e-09
4.26671e-10
9.43575e-10
1.51368e-09
4.3726e-10
1.0924e-09
1.49245e-09
4.53969e-10
1.21892e-09
1.46382e-09
4.7677e-10
1.31934e-09
1.42887e-09
5.05138e-10
1.38942e-09
1.38933e-09
5.38416e-10
1.34412e-09
5.73972e-10
1.43315e-09
1.94806e-10
5.0969e-10
1.5593e-09
3.86776e-10
5.00536e-10
1.57588e-09
5.73532e-10
4.9514e-10
1.58314e-09
7.50414e-10
4.94815e-10
1.58073e-09
9.12984e-10
5.00258e-10
1.56863e-09
1.05723e-09
5.11598e-10
1.54704e-09
1.17949e-09
5.28447e-10
1.5164e-09
1.27621e-09
5.49758e-10
1.47766e-09
1.3442e-09
5.73891e-10
1.43298e-09
5.9807e-10
1.38582e-09
1.38577e-09
7.20105e-10
7.21055e-10
1.78809e-10
1.39332e-09
7.15627e-10
1.90965e-10
2.00852e-09
6.99958e-10
2.17522e-10
2.56898e-09
6.82115e-10
2.58072e-10
3.07854e-09
6.6457e-10
3.12841e-10
3.538e-09
6.47673e-10
3.82564e-10
3.94507e-09
6.31868e-10
4.6827e-10
4.29391e-09
6.17734e-10
5.70967e-10
4.5748e-09
6.05834e-10
6.91133e-10
5.91549e-10
8.2871e-10
4.77611e-09
7.14623e-10
1.39237e-09
1.90922e-10
1.39066e-09
1.39085e-09
2.02293e-10
2.01519e-09
1.37064e-09
2.27616e-10
2.58569e-09
1.3419e-09
2.66544e-10
3.10392e-09
1.3113e-09
3.19294e-10
3.57078e-09
1.28127e-09
3.8655e-10
3.98411e-09
1.25283e-09
4.69246e-10
4.33813e-09
1.2271e-09
5.68202e-10
4.6234e-09
1.20457e-09
6.83557e-10
1.17508e-09
8.14059e-10
4.82666e-09
6.99894e-10
2.00512e-09
2.17464e-10
1.37021e-09
2.01291e-09
2.27568e-10
1.99873e-09
1.99805e-09
2.51042e-10
2.57782e-09
1.96783e-09
2.87632e-10
3.10446e-09
1.93033e-09
3.37535e-10
3.57827e-09
1.89156e-09
4.01396e-10
3.99717e-09
1.85421e-09
4.80054e-10
4.35516e-09
1.81948e-09
5.74067e-10
4.64344e-09
1.78795e-09
6.83241e-10
1.74434e-09
8.05618e-10
4.85046e-09
6.82928e-10
2.56439e-09
2.58048e-10
1.34254e-09
2.58156e-09
2.66499e-10
1.96812e-09
2.57503e-09
2.87591e-10
2.55089e-09
2.54976e-09
3.21209e-10
3.08412e-09
2.51166e-09
3.67565e-10
3.56382e-09
2.46769e-09
4.2724e-10
3.98684e-09
2.42358e-09
5.01005e-10
4.34728e-09
2.38184e-09
5.89274e-10
4.63709e-09
2.3427e-09
6.91664e-10
2.28646e-09
8.05588e-10
4.84789e-09
6.65472e-10
3.07345e-09
3.12874e-10
1.31281e-09
3.09912e-09
3.19301e-10
1.93156e-09
3.10031e-09
3.37505e-10
2.51233e-09
3.08132e-09
3.67524e-10
3.04775e-09
3.04664e-09
4.09657e-10
3.53136e-09
3.0013e-09
4.6447e-10
3.95696e-09
2.95159e-09
5.32648e-10
4.31778e-09
2.90287e-09
6.14558e-10
4.60674e-09
2.85658e-09
7.09813e-10
2.78933e-09
8.15111e-10
4.81974e-09
6.48461e-10
3.53272e-09
3.82647e-10
1.28284e-09
3.56577e-09
3.86609e-10
1.89355e-09
3.57369e-09
4.01409e-10
2.46929e-09
3.55998e-09
4.27207e-10
3.00193e-09
3.52902e-09
4.64426e-10
3.48525e-09
3.48486e-09
5.13699e-10
3.9113e-09
3.43158e-09
5.75651e-10
4.27043e-09
3.3751e-09
6.50594e-10
4.55513e-09
3.31983e-09
7.38172e-10
3.24225e-09
8.34395e-10
4.76712e-09
6.32574e-10
3.93995e-09
4.68392e-10
1.25424e-09
3.97923e-09
4.69345e-10
1.8563e-09
3.99265e-09
4.80109e-10
2.42614e-09
3.98278e-09
5.0101e-10
2.95345e-09
3.95355e-09
5.32593e-10
3.43146e-09
3.90936e-09
5.75544e-10
3.85358e-09
3.85356e-09
6.30508e-10
4.20824e-09
3.7899e-09
6.97671e-10
4.485e-09
3.72328e-09
7.76511e-10
3.63502e-09
8.62672e-10
4.69149e-09
6.18366e-10
4.28929e-09
5.71123e-10
1.22836e-09
4.33371e-09
5.68331e-10
1.82138e-09
4.351e-09
5.74148e-10
2.38443e-09
4.34341e-09
5.8929e-10
2.90578e-09
4.31413e-09
6.14485e-10
3.37629e-09
4.26709e-09
6.50357e-10
3.78952e-09
4.20608e-09
6.97398e-10
4.13469e-09
4.13404e-09
7.55431e-10
4.39956e-09
4.05511e-09
8.23736e-10
3.95729e-09
8.98122e-10
4.59527e-09
6.06376e-10
4.57095e-09
6.91318e-10
1.20564e-09
4.6197e-09
6.83713e-10
1.78953e-09
4.63994e-09
6.8334e-10
2.34477e-09
4.63379e-09
6.91681e-10
2.8591e-09
4.6036e-09
7.0972e-10
3.32179e-09
4.55207e-09
7.37889e-10
3.72399e-09
4.48236e-09
7.76127e-10
4.05547e-09
4.39796e-09
8.23522e-10
4.30504e-09
4.30443e-09
8.78899e-10
4.1988e-09
9.38044e-10
4.48355e-09
5.91979e-10
8.28906e-10
4.77319e-09
1.17592e-09
8.14226e-10
4.82385e-09
1.74556e-09
8.05729e-10
4.8478e-09
2.28798e-09
8.05621e-10
4.84538e-09
2.79105e-09
8.15046e-10
4.81738e-09
3.24388e-09
8.34206e-10
4.76494e-09
3.63638e-09
8.62428e-10
4.68961e-09
3.9582e-09
8.97928e-10
4.59384e-09
4.19916e-09
9.37906e-10
4.48267e-09
9.77858e-10
4.36503e-09
4.36465e-09
1.15675e-09
1.15822e-09
1.1819e-10
2.23988e-09
1.15009e-09
1.3289e-10
3.23336e-09
1.12597e-09
1.63336e-10
4.14463e-09
1.09895e-09
2.09027e-10
4.9825e-09
1.07319e-09
2.70142e-10
5.75176e-09
1.04947e-09
3.47408e-10
6.45329e-09
1.02882e-09
4.41889e-10
7.08341e-09
1.01265e-09
5.54655e-10
7.6333e-09
1.00249e-09
6.86263e-10
9.91822e-10
8.36769e-10
8.09207e-09
1.14853e-09
2.23827e-09
1.32845e-10
2.23684e-09
2.23703e-09
1.46669e-10
3.24597e-09
2.20673e-09
1.75743e-10
4.17402e-09
2.16389e-09
2.1964e-10
5.0266e-09
2.11954e-09
2.78529e-10
5.8086e-09
2.07812e-09
3.53089e-10
6.52111e-09
2.04191e-09
4.44285e-10
7.16039e-09
2.01358e-09
5.52987e-10
7.71761e-09
1.99508e-09
6.79382e-10
1.97152e-09
8.22212e-10
8.17714e-09
1.12593e-09
3.22783e-09
1.63276e-10
2.20616e-09
3.24216e-09
1.75693e-10
3.2229e-09
3.22157e-09
2.02708e-10
4.16592e-09
3.1781e-09
2.44008e-10
5.03318e-09
3.12512e-09
2.99748e-10
5.82756e-09
3.07303e-09
3.70569e-10
6.55013e-09
3.0272e-09
4.57338e-10
7.19649e-09
2.9908e-09
5.6065e-10
7.75841e-09
2.96636e-09
6.80328e-10
2.93101e-09
8.14341e-10
8.22151e-09
1.10037e-09
4.1372e-09
2.09007e-10
2.16509e-09
4.16726e-09
2.19594e-10
3.17882e-09
4.16119e-09
2.43965e-10
4.12961e-09
4.12742e-09
2.81968e-10
5.00921e-09
4.07598e-09
3.33781e-10
5.8147e-09
4.01892e-09
3.99987e-10
6.54542e-09
3.96681e-09
4.81388e-10
7.19685e-09
3.9254e-09
5.78424e-10
7.76161e-09
3.89705e-09
6.90723e-10
3.85172e-09
8.15567e-10
8.22903e-09
1.07477e-09
4.97429e-09
2.70185e-10
2.12221e-09
5.01878e-09
2.78542e-10
3.12741e-09
5.02626e-09
2.99717e-10
4.07746e-09
5.00427e-09
3.33736e-10
4.96313e-09
4.96081e-09
3.80887e-10
5.77732e-09
4.90498e-09
4.41739e-10
6.5143e-09
4.84838e-09
5.17009e-10
7.16819e-09
4.80172e-09
6.07098e-10
7.73289e-09
4.76994e-09
7.11636e-10
4.7167e-09
8.2713e-10
8.20304e-09
1.05088e-09
5.74328e-09
3.47508e-10
2.08093e-09
5.80047e-09
3.53162e-10
3.07662e-09
5.81996e-09
3.70587e-10
4.02195e-09
5.80809e-09
3.99952e-10
4.90652e-09
5.77289e-09
4.41689e-10
5.72365e-09
5.72227e-09
4.96459e-10
6.46443e-09
5.66443e-09
5.64916e-10
7.11819e-09
5.61099e-09
6.47405e-10
7.67815e-09
5.57219e-09
7.436e-10
5.51119e-09
8.4927e-10
8.14664e-09
1.0301e-09
6.44506e-09
4.42033e-10
2.04448e-09
6.51319e-09
4.44402e-10
3.031e-09
6.54261e-09
4.57404e-10
3.97147e-09
6.53841e-09
4.81395e-10
4.85192e-09
6.50808e-09
5.16947e-10
5.66479e-09
6.46028e-09
5.64794e-10
6.40343e-09
6.40247e-09
6.2563e-10
7.05339e-09
6.34267e-09
6.9966e-10
7.60281e-09
6.2917e-09
7.86375e-10
6.22052e-09
8.81163e-10
8.06272e-09
1.01381e-09
7.07597e-09
5.54836e-10
2.01591e-09
7.15317e-09
5.53137e-10
2.9943e-09
7.18952e-09
5.60744e-10
3.93016e-09
7.19008e-09
5.78444e-10
4.80706e-09
7.1615e-09
6.0702e-10
5.61337e-09
7.11167e-09
6.47142e-10
6.34261e-09
7.04857e-09
6.99355e-10
6.98077e-09
6.97871e-09
7.63476e-10
7.51265e-09
6.91147e-09
8.38778e-10
6.82844e-09
9.2083e-10
7.9544e-09
1.00352e-09
7.62705e-09
6.86475e-10
1.99711e-09
7.71152e-09
6.7956e-10
2.96936e-09
7.75245e-09
6.80442e-10
3.90097e-09
7.75571e-09
6.90745e-10
4.77469e-09
7.72698e-09
7.11537e-10
5.57589e-09
7.67212e-09
7.43293e-10
6.29333e-09
7.59734e-09
7.85955e-10
6.91268e-09
7.509e-09
8.38542e-10
7.41901e-09
7.41726e-09
8.99814e-10
7.3163e-09
9.65266e-10
7.82665e-09
9.92676e-10
8.36991e-10
8.08726e-09
1.97319e-09
8.22401e-10
8.17243e-09
2.93341e-09
8.14468e-10
8.21687e-09
3.85473e-09
8.15606e-10
8.22443e-09
4.72006e-09
8.27063e-10
8.19851e-09
5.51437e-09
8.49068e-10
8.14229e-09
6.22326e-09
8.80901e-10
8.05883e-09
6.83034e-09
9.20617e-10
7.95124e-09
7.31722e-09
9.65111e-10
7.8244e-09
1.00951e-09
7.68914e-09
7.68795e-09
1.51903e-09
1.52091e-09
-6.97988e-11
2.94346e-09
1.5109e-09
-5.53234e-11
4.25449e-09
1.48046e-09
-2.84618e-11
5.46461e-09
1.44696e-09
1.02505e-11
6.58882e-09
1.41609e-09
6.08176e-11
7.63794e-09
1.38918e-09
1.23663e-10
8.61895e-09
1.36802e-09
1.9946e-10
9.53436e-09
1.35505e-09
2.88901e-10
1.03811e-08
1.3531e-09
3.92328e-10
1.35459e-09
5.09813e-10
1.11545e-08
1.50891e-09
2.94126e-09
-5.53505e-11
2.94087e-09
2.94099e-09
-4.16152e-11
4.2732e-09
2.90376e-09
-1.5894e-11
5.50618e-09
2.85151e-09
2.13614e-11
6.65064e-09
2.79919e-09
7.01452e-11
7.71752e-09
2.75326e-09
1.30842e-10
8.7141e-09
2.71762e-09
2.04058e-10
9.64253e-09
2.69688e-09
2.90338e-10
1.04992e-08
2.6951e-09
3.89748e-10
2.69415e-09
5.01339e-10
1.12707e-08
1.4805e-09
4.24716e-09
-2.84975e-11
2.90318e-09
4.26804e-09
-1.59245e-11
4.24694e-09
4.24495e-09
8.09066e-12
5.50103e-09
4.19401e-09
4.32172e-11
6.66624e-09
4.13335e-09
8.94526e-11
7.7509e-09
4.07766e-09
1.47155e-10
8.76208e-09
4.03532e-09
2.16863e-10
9.70071e-09
4.01211e-09
2.9892e-10
1.05634e-08
4.01333e-09
3.93123e-10
4.01056e-09
4.97923e-10
1.13365e-08
1.44896e-09
5.45483e-09
1.02463e-11
2.85332e-09
5.49717e-09
2.13375e-11
4.19528e-09
5.49452e-09
4.31916e-11
5.46181e-09
5.4585e-09
7.56231e-11
6.64545e-09
5.403e-09
1.18673e-10
7.74683e-09
5.34503e-09
1.7267e-10
8.77066e-09
5.30027e-09
2.38112e-10
9.71737e-09
5.27844e-09
3.15236e-10
1.05842e-08
5.28512e-09
4.037e-10
5.28215e-09
5.01419e-10
1.13608e-08
1.41836e-09
6.57805e-09
6.08654e-11
2.80302e-09
6.64028e-09
7.01669e-11
4.13677e-09
6.65685e-09
8.94389e-11
5.40545e-09
6.63843e-09
1.18645e-10
6.60027e-09
6.59653e-09
1.57923e-10
7.71614e-09
6.54454e-09
2.07623e-10
8.75092e-09
6.49961e-09
2.68193e-10
9.70319e-09
6.47851e-09
3.39856e-10
1.05716e-08
6.49093e-09
4.22281e-10
6.48978e-09
5.12769e-10
1.13506e-08
1.39122e-09
7.62682e-09
1.23758e-10
2.75734e-09
7.70677e-09
1.30912e-10
4.08291e-09
7.74062e-09
1.47179e-10
5.34962e-09
7.73759e-09
1.72649e-10
6.54726e-09
7.70948e-09
2.07588e-10
7.67125e-09
7.66852e-09
2.52426e-10
8.71496e-09
7.62764e-09
3.07595e-10
9.67042e-09
7.6049e-09
3.73297e-10
1.05352e-08
7.61752e-09
4.49247e-10
7.61719e-09
5.32148e-10
1.13118e-08
1.3699e-09
8.60817e-09
1.9959e-10
2.72138e-09
8.7036e-09
2.04162e-10
4.04089e-09
8.75189e-09
2.16922e-10
5.30711e-09
8.76085e-09
2.38121e-10
6.50499e-09
8.74183e-09
2.68149e-10
7.62884e-09
8.70828e-09
3.07505e-10
8.67499e-09
8.67257e-09
3.5667e-10
9.62967e-09
8.64796e-09
4.15762e-10
1.04834e-08
8.65228e-09
4.84385e-10
8.64734e-09
5.58921e-10
1.12487e-08
1.35678e-09
9.52458e-09
2.89057e-10
2.70035e-09
9.63292e-09
2.90467e-10
4.01729e-09
9.69118e-09
2.99001e-10
5.28547e-09
9.7078e-09
3.15254e-10
6.48638e-09
9.6934e-09
3.39795e-10
7.60864e-09
9.6604e-09
3.73096e-10
8.64861e-09
9.62169e-09
4.15533e-10
9.59208e-09
9.58813e-09
4.66935e-10
1.04245e-08
9.5754e-09
5.26777e-10
9.55925e-09
5.91564e-10
1.11646e-08
1.35466e-09
1.03728e-08
3.92505e-10
2.69818e-09
1.04911e-08
3.89896e-10
4.01786e-09
1.05551e-08
3.93218e-10
5.29102e-09
1.05757e-08
4.03719e-10
6.49803e-09
1.05628e-08
4.22205e-10
7.62307e-09
1.05259e-08
4.49012e-10
8.65505e-09
1.04747e-08
4.8407e-10
9.57776e-09
1.04184e-08
5.26601e-10
1.03753e-08
1.0372e-08
5.75681e-10
1.03257e-08
6.27715e-10
1.10619e-08
1.35592e-09
5.09993e-10
1.11481e-08
2.69674e-09
5.01491e-10
1.12643e-08
4.01428e-09
4.98024e-10
1.133e-08
5.28681e-09
5.0145e-10
1.13541e-08
6.49495e-09
5.12717e-10
1.13438e-08
7.62207e-09
5.31994e-10
1.1305e-08
8.65162e-09
5.58724e-10
1.12425e-08
9.56229e-09
5.91403e-10
1.11594e-08
1.03273e-08
6.27594e-10
1.10579e-08
6.6348e-10
1.09478e-08
1.09456e-08
1.77166e-09
1.77386e-09
-3.57339e-10
3.43403e-09
1.76248e-09
-3.44997e-10
4.96651e-09
1.72756e-09
-3.27054e-10
6.38549e-09
1.68953e-09
-3.04025e-10
7.71102e-09
1.6552e-09
-2.76161e-10
8.95914e-09
1.62639e-09
-2.43576e-10
1.01426e-08
1.60556e-09
-2.0635e-10
1.12702e-08
1.59604e-09
-1.64634e-10
1.23449e-08
1.60176e-09
-1.18784e-10
1.61452e-09
-6.92688e-11
1.33691e-08
1.76017e-09
3.43149e-09
-3.44992e-10
3.4317e-09
3.43182e-09
-3.33089e-10
4.98947e-09
3.38968e-09
-3.15781e-10
6.43562e-09
3.33088e-09
-2.93493e-10
7.78536e-09
3.27326e-09
-2.66494e-10
9.05493e-09
3.22494e-09
-2.3492e-10
1.02574e-08
3.19113e-09
-1.98865e-10
1.14008e-08
3.17815e-09
-1.58519e-10
1.24874e-08
3.19187e-09
-1.14318e-10
3.21209e-09
-6.70945e-11
1.35073e-08
1.72765e-09
4.95802e-09
-3.27048e-10
3.38907e-09
4.98343e-09
-3.15776e-10
4.961e-09
4.95857e-09
-2.99403e-10
6.43271e-09
4.90259e-09
-2.78236e-10
7.80769e-09
4.83713e-09
-2.52518e-10
9.09908e-09
4.78017e-09
-2.224e-10
1.03196e-08
4.74256e-09
-1.87995e-10
1.14757e-08
4.73233e-09
-1.49544e-10
1.25691e-08
4.75724e-09
-1.07558e-10
4.78508e-09
-6.30696e-11
1.35887e-08
1.69195e-09
6.3742e-09
-3.04007e-10
3.33313e-09
6.42514e-09
-2.93481e-10
4.90424e-09
6.42501e-09
-2.7823e-10
6.39193e-09
6.38784e-09
-2.58471e-10
7.78997e-09
6.33048e-09
-2.34379e-10
9.10246e-09
6.27377e-09
-2.06086e-10
1.03392e-08
6.2374e-09
-1.73715e-10
1.15059e-08
6.23446e-09
-1.3753e-10
1.26047e-08
6.27334e-09
-9.80586e-11
6.31021e-09
-5.65261e-11
1.36268e-08
1.65796e-09
7.69861e-09
-2.76118e-10
3.27796e-09
7.77335e-09
-2.66465e-10
4.84139e-09
7.79664e-09
-2.52505e-10
6.33366e-09
7.78149e-09
-2.34377e-10
7.74697e-09
7.74221e-09
-2.12196e-10
9.07866e-09
7.69555e-09
-1.8604e-10
1.03304e-08
7.66313e-09
-1.5601e-10
1.15054e-08
7.66663e-09
-1.22362e-10
1.26075e-08
7.71972e-09
-8.55963e-11
7.76753e-09
-4.71794e-11
1.36317e-08
1.62891e-09
8.94635e-09
-2.43509e-10
3.22996e-09
9.04247e-09
-2.3487e-10
4.78665e-09
9.08701e-09
-2.22376e-10
6.27954e-09
9.09137e-09
-2.06082e-10
7.69919e-09
9.07039e-09
-1.86043e-10
9.04351e-09
9.03973e-09
-1.62285e-10
1.03087e-08
9.01624e-09
-1.34866e-10
1.14902e-08
9.02325e-09
-1.03997e-10
1.25901e-08
9.08364e-09
-7.01495e-11
9.14055e-09
-3.50526e-11
1.36115e-08
1.6079e-09
1.01302e-08
-2.06268e-10
3.19579e-09
1.02452e-08
-1.988e-10
4.74946e-09
1.03076e-08
-1.87958e-10
6.24589e-09
1.03275e-08
-1.73706e-10
7.66993e-09
1.03192e-08
-1.5602e-10
9.01815e-09
1.03001e-08
-1.34887e-10
1.02902e-08
1.02866e-08
-1.10331e-10
1.14741e-08
1.02964e-08
-8.25347e-11
1.25635e-08
1.0353e-08
-5.19567e-11
1.04112e-08
-2.04863e-11
1.3572e-08
1.59821e-09
1.12589e-08
-1.64544e-10
3.18248e-09
1.13897e-08
-1.58446e-10
4.7388e-09
1.14644e-08
-1.49501e-10
6.24318e-09
1.14943e-08
-1.37522e-10
7.67639e-09
1.14933e-08
-1.22388e-10
9.02805e-09
1.14775e-08
-1.04067e-10
1.02976e-08
1.14637e-08
-8.26073e-11
1.14719e-08
1.14665e-08
-5.82878e-11
1.25382e-08
1.15068e-08
-3.15264e-11
1.15555e-08
-4.15849e-12
1.35164e-08
1.60373e-09
1.23353e-08
-1.18692e-10
3.19576e-09
1.24779e-08
-1.14243e-10
4.76295e-09
1.25593e-08
-1.07513e-10
6.28074e-09
1.25944e-08
-9.80516e-11
7.72858e-09
1.25965e-08
-8.56329e-11
9.09059e-09
1.25783e-08
-7.02431e-11
1.03567e-08
1.25524e-08
-5.20655e-11
1.15101e-08
1.25302e-08
-3.15809e-11
1.2535e-08
1.25306e-08
-9.31099e-12
1.25401e-08
1.28975e-11
1.34447e-08
1.61623e-09
-6.91833e-11
1.33616e-08
3.21541e-09
-6.70238e-11
1.34998e-08
4.78983e-09
-6.30252e-11
1.35809e-08
6.31613e-09
-5.65153e-11
1.36185e-08
7.77409e-09
-4.72049e-11
1.36232e-08
9.14671e-09
-3.51162e-11
1.3603e-08
1.04166e-08
-2.05606e-11
1.35641e-08
1.15594e-08
-4.21551e-12
1.35096e-08
1.25422e-08
1.28557e-11
1.34394e-08
2.90156e-11
1.33615e-08
1.33584e-08
1.89024e-09
1.8927e-09
-6.88183e-10
3.66262e-09
1.88011e-09
-6.78417e-10
5.29433e-09
1.84203e-09
-6.70921e-10
6.80253e-09
1.80037e-09
-6.66093e-10
8.20882e-09
1.76252e-09
-6.64367e-10
9.53104e-09
1.73053e-09
-6.66351e-10
1.07841e-08
1.70716e-09
-6.72868e-10
1.19792e-08
1.69613e-09
-6.84921e-10
1.31219e-08
1.70181e-09
-7.03604e-10
1.7156e-09
-7.30033e-10
1.42175e-08
1.87755e-09
3.66012e-09
-6.78376e-10
3.65935e-09
3.65966e-09
-6.68673e-10
5.31778e-09
3.61319e-09
-6.61192e-10
6.85479e-09
3.54846e-09
-6.56238e-10
8.28682e-09
3.48472e-09
-6.54279e-10
9.63189e-09
3.43083e-09
-6.55931e-10
1.09052e-08
3.39265e-09
-6.61975e-10
1.21173e-08
3.37721e-09
-6.73337e-10
1.32727e-08
3.39112e-09
-6.90974e-10
3.41307e-09
-7.15611e-10
1.43635e-08
1.84206e-09
5.28556e-09
-6.70868e-10
3.61241e-09
5.3116e-09
-6.61146e-10
5.28548e-09
5.28309e-09
-6.53649e-10
6.84951e-09
5.22072e-09
-6.48582e-10
8.30839e-09
5.14786e-09
-6.46369e-10
9.67686e-09
5.08401e-09
-6.47638e-10
1.09697e-08
5.04111e-09
-6.53143e-10
1.21955e-08
5.02818e-09
-6.63702e-10
1.33584e-08
5.05396e-09
-6.80128e-10
5.08435e-09
-7.02893e-10
1.44489e-08
1.80292e-09
6.79084e-09
-6.66052e-10
3.55079e-09
6.84394e-09
-6.56186e-10
5.22236e-09
6.84155e-09
-6.4854e-10
6.8031e-09
6.7989e-09
-6.43304e-10
8.28655e-09
6.73431e-09
-6.40823e-10
9.67777e-09
6.67038e-09
-6.41664e-10
1.09884e-08
6.62858e-09
-6.46565e-10
1.2226e-08
6.6234e-09
-6.56286e-10
1.33952e-08
6.66438e-09
-6.71528e-10
6.70495e-09
-6.92557e-10
1.44887e-08
1.76545e-09
8.19598e-09
-6.64331e-10
3.48969e-09
8.27437e-09
-6.54244e-10
5.15234e-09
8.2969e-09
-6.46327e-10
6.7376e-09
8.27773e-09
-6.40787e-10
8.23736e-09
8.23242e-09
-6.37969e-10
9.64943e-09
8.17929e-09
-6.3836e-10
1.09767e-08
8.14194e-09
-6.42615e-10
1.22241e-08
8.14409e-09
-6.51471e-10
1.33975e-08
8.20096e-09
-6.65596e-10
8.25407e-09
-6.85058e-10
1.4494e-08
1.73322e-09
9.51782e-09
-6.6632e-10
3.43619e-09
9.61899e-09
-6.55906e-10
5.0909e-09
9.66431e-09
-6.47615e-10
6.67649e-09
9.66618e-09
-6.41633e-10
8.1831e-09
9.64077e-09
-6.38327e-10
9.60912e-09
9.6052e-09
-6.38188e-10
1.09516e-08
9.57802e-09
-6.41773e-10
1.2207e-08
9.58483e-09
-6.49723e-10
1.33793e-08
9.6507e-09
-6.62704e-10
9.71475e-09
-6.8064e-10
1.44737e-08
1.70966e-09
1.07713e-08
-6.72845e-10
3.39764e-09
1.08926e-08
-6.61958e-10
5.04847e-09
1.09572e-08
-6.53134e-10
6.63762e-09
1.09761e-08
-6.46558e-10
8.14917e-09
1.09649e-08
-6.42585e-10
9.58002e-09
1.09426e-08
-6.41717e-10
1.09308e-08
1.09271e-08
-6.44505e-10
1.21902e-08
1.09381e-08
-6.51457e-10
1.33528e-08
1.10015e-08
-6.63104e-10
1.10685e-08
-6.7932e-10
1.44343e-08
1.69846e-09
1.19676e-08
-6.84912e-10
3.38184e-09
1.21058e-08
-6.73333e-10
5.03509e-09
1.21838e-08
-6.63704e-10
6.6327e-09
1.2214e-08
-6.5629e-10
8.15448e-09
1.22114e-08
-6.51458e-10
9.58995e-09
1.21936e-08
-6.49644e-10
1.09394e-08
1.21792e-08
-6.51356e-10
1.219e-08
1.21842e-08
-6.56977e-10
1.33295e-08
1.22319e-08
-6.66844e-10
1.22905e-08
-6.80832e-10
1.43796e-08
1.70394e-09
1.31121e-08
-7.03612e-10
3.3953e-09
1.32628e-08
-6.90985e-10
5.06007e-09
1.33482e-08
-6.8014e-10
6.67228e-09
1.33844e-08
-6.71535e-10
8.21039e-09
1.3386e-08
-6.65587e-10
9.65808e-09
1.33669e-08
-6.62638e-10
1.10054e-08
1.3341e-08
-6.62985e-10
1.22353e-08
1.3321e-08
-6.66766e-10
1.33323e-08
1.33277e-08
-6.74088e-10
1.33458e-08
-6.84701e-10
1.43099e-08
1.71745e-09
-7.3006e-10
1.42098e-08
3.41663e-09
-7.15637e-10
1.43558e-08
5.08944e-09
-7.02916e-10
1.44409e-08
6.71127e-09
-6.92571e-10
1.44802e-08
8.26105e-09
-6.85054e-10
1.44851e-08
9.72129e-09
-6.80603e-10
1.44647e-08
1.10742e-08
-6.79258e-10
1.4426e-08
1.22946e-08
-6.80774e-10
1.43724e-08
1.33481e-08
-6.84654e-10
1.43043e-08
-6.90015e-10
1.42295e-08
1.42263e-08
1.87144e-09
1.87414e-09
-9.97371e-10
3.62218e-09
1.86036e-09
-9.89141e-10
5.22623e-09
1.82017e-09
-9.89642e-10
6.69774e-09
1.77535e-09
-9.99001e-10
8.05558e-09
1.73323e-09
-1.01757e-09
9.31513e-09
1.69581e-09
-1.04607e-09
1.04889e-08
1.6657e-09
-1.08554e-09
1.15856e-08
1.64639e-09
-1.13721e-09
1.26089e-08
1.64194e-09
-1.20219e-09
1.64354e-09
-1.28149e-09
1.35618e-08
1.85758e-09
3.62017e-09
-9.8907e-10
3.61645e-09
3.61721e-09
-9.80558e-10
5.24588e-09
3.56644e-09
-9.80508e-10
6.74495e-09
3.49549e-09
-9.88965e-10
8.12738e-09
3.42343e-09
-1.00634e-09
9.4087e-09
3.3589e-09
-1.03335e-09
1.06016e-08
3.30747e-09
-1.07098e-09
1.17145e-08
3.27575e-09
-1.12029e-09
1.27501e-08
3.26983e-09
-1.18215e-09
3.2684e-09
-1.25664e-09
1.37005e-08
1.81998e-09
5.21816e-09
-9.8955e-10
3.56525e-09
5.24039e-09
-9.80429e-10
5.2072e-09
5.20544e-09
-9.79485e-10
6.73139e-09
5.13394e-09
-9.867e-10
8.13913e-09
5.04906e-09
-1.00244e-09
9.44265e-09
4.96984e-09
-1.02745e-09
1.06543e-08
4.90769e-09
-1.06266e-09
1.17807e-08
4.87107e-09
-1.10893e-09
1.28245e-08
4.86802e-09
-1.16686e-09
4.86482e-09
-1.23601e-09
1.37772e-08
1.77767e-09
6.68686e-09
-9.98937e-10
3.49741e-09
6.73493e-09
-9.8888e-10
5.13501e-09
6.72425e-09
-9.8663e-10
6.67335e-09
6.66993e-09
-9.9223e-10
8.1036e-09
6.59004e-09
-1.00598e-09
9.42843e-09
6.50668e-09
-1.02855e-09
1.06571e-08
6.4405e-09
-1.06086e-09
1.17953e-08
6.40507e-09
-1.10367e-09
1.28461e-08
6.40913e-09
-1.15741e-09
6.40701e-09
-1.22118e-09
1.38043e-08
1.73593e-09
8.04363e-09
-1.01754e-09
3.42796e-09
8.11584e-09
-1.0063e-09
5.05296e-09
8.12859e-09
-1.00238e-09
6.59262e-09
8.09577e-09
-1.00592e-09
8.03653e-09
8.0325e-09
-1.01729e-09
9.38028e-09
7.95657e-09
-1.03709e-09
1.06245e-08
7.89064e-09
-1.06612e-09
1.17723e-08
7.85723e-09
-1.10516e-09
1.2828e-08
7.87024e-09
-1.15459e-09
7.87281e-09
-1.21306e-09
1.37914e-08
1.69828e-09
9.30284e-09
-1.04607e-09
3.36381e-09
9.39675e-09
-1.03335e-09
4.97611e-09
9.4311e-09
-1.02743e-09
6.51206e-09
9.41793e-09
-1.0285e-09
7.95956e-09
9.37275e-09
-1.03703e-09
9.31474e-09
9.31183e-09
-1.05368e-09
1.05726e-08
9.2528e-09
-1.07915e-09
1.17279e-08
9.22002e-09
-1.11409e-09
1.2783e-08
9.23679e-09
-1.15896e-09
9.24416e-09
-1.21198e-09
1.37467e-08
1.668e-09
1.0477e-08
-1.08557e-09
3.31204e-09
1.059e-08
-1.071e-09
4.91443e-09
1.06429e-08
-1.06267e-09
6.44873e-09
1.06459e-08
-1.06085e-09
7.89705e-09
1.0614e-08
-1.06607e-09
9.25405e-09
1.0565e-08
-1.07904e-09
1.05182e-08
1.05156e-08
-1.1005e-09
1.16768e-08
1.04843e-08
-1.13095e-09
1.27231e-08
1.04957e-08
-1.17064e-09
1.05024e-08
-1.2176e-09
1.36767e-08
1.64852e-09
1.15749e-08
-1.13727e-09
3.27999e-09
1.1704e-08
-1.12035e-09
4.87739e-09
1.17701e-08
-1.10897e-09
6.41357e-09
1.17844e-08
-1.10369e-09
7.8667e-09
1.1761e-08
-1.10512e-09
9.22447e-09
1.17162e-08
-1.11391e-09
1.0485e-08
1.16674e-08
-1.13073e-09
1.16346e-08
1.16301e-08
-1.15582e-09
1.26601e-08
1.16259e-08
-1.18917e-09
1.16243e-08
-1.22891e-09
1.35863e-08
1.64387e-09
1.25999e-08
-1.20229e-09
3.27363e-09
1.27412e-08
-1.18223e-09
4.87357e-09
1.28153e-08
-1.16693e-09
6.4163e-09
1.28365e-08
-1.15743e-09
7.8788e-09
1.28178e-08
-1.15455e-09
9.24345e-09
1.27722e-08
-1.15879e-09
1.0499e-08
1.27129e-08
-1.17036e-09
1.16286e-08
1.2653e-08
-1.18901e-09
1.26162e-08
1.26125e-08
-1.21432e-09
1.25783e-08
-1.24426e-09
1.34792e-08
1.64521e-09
-1.28161e-09
1.3555e-08
3.27161e-09
-1.25675e-09
1.36936e-08
4.8694e-09
-1.23609e-09
1.37701e-08
6.41269e-09
-1.22122e-09
1.37968e-08
7.87908e-09
-1.21304e-09
1.37836e-08
9.25001e-09
-1.21187e-09
1.37389e-08
1.05075e-08
-1.21744e-09
1.36695e-08
1.16278e-08
-1.22877e-09
1.35803e-08
1.25801e-08
-1.24416e-09
1.34745e-08
-1.26086e-09
1.33628e-08
1.33602e-08
1.73608e-09
1.739e-09
-1.23173e-09
3.35399e-09
1.72423e-09
-1.22315e-09
4.82421e-09
1.68316e-09
-1.22667e-09
6.15517e-09
1.63608e-09
-1.24203e-09
7.36002e-09
1.58976e-09
-1.26917e-09
8.44883e-09
1.54592e-09
-1.30842e-09
9.42886e-09
1.50676e-09
-1.36034e-09
1.03041e-08
1.47513e-09
-1.4255e-09
1.10741e-08
1.45427e-09
-1.50416e-09
1.4357e-09
-1.59618e-09
1.17382e-08
1.72126e-09
3.35287e-09
-1.22306e-09
3.34485e-09
3.34631e-09
-1.21397e-09
4.83694e-09
3.29191e-09
-1.21656e-09
6.19194e-09
3.2155e-09
-1.23052e-09
7.41818e-09
3.13463e-09
-1.25588e-09
8.5258e-09
3.05701e-09
-1.29296e-09
9.52236e-09
2.9873e-09
-1.34228e-09
1.04115e-08
2.93097e-09
-1.40428e-09
1.11928e-08
2.89278e-09
-1.47893e-09
2.85296e-09
-1.56515e-09
1.18582e-08
1.6826e-09
4.81768e-09
-1.22656e-09
3.2901e-09
4.83286e-09
-1.21647e-09
4.7907e-09
4.79009e-09
-1.21757e-09
6.16639e-09
4.70862e-09
-1.22953e-09
7.41403e-09
4.60984e-09
-1.25235e-09
8.54065e-09
4.51082e-09
-1.28642e-09
9.55358e-09
4.42132e-09
-1.33222e-09
1.04553e-08
4.34825e-09
-1.38999e-09
1.12454e-08
4.29796e-09
-1.45946e-09
4.23974e-09
-1.53903e-09
1.19174e-08
1.63785e-09
6.14616e-09
-1.24195e-09
3.21657e-09
6.18379e-09
-1.23042e-09
4.70864e-09
6.16101e-09
-1.22944e-09
6.09361e-09
6.09171e-09
-1.23881e-09
7.35914e-09
5.99241e-09
-1.25849e-09
8.5035e-09
5.88294e-09
-1.28884e-09
9.53112e-09
5.78123e-09
-1.33033e-09
1.04439e-08
5.6985e-09
-1.38316e-09
1.1242e-08
5.64152e-09
-1.44692e-09
5.56949e-09
-1.51957e-09
1.19235e-08
1.59188e-09
7.3501e-09
-1.26914e-09
3.1381e-09
7.40869e-09
-1.25583e-09
4.61247e-09
7.40562e-09
-1.25228e-09
5.99358e-09
7.35339e-09
-1.25842e-09
7.26768e-09
7.26546e-09
-1.27438e-09
8.42667e-09
7.15745e-09
-1.30044e-09
9.46721e-09
7.04909e-09
-1.33703e-09
1.03886e-08
6.95938e-09
-1.38436e-09
1.11923e-08
6.89931e-09
-1.44209e-09
6.81893e-09
-1.50767e-09
1.18828e-08
1.54785e-09
8.43863e-09
-1.30843e-09
3.06082e-09
8.51599e-09
-1.29297e-09
4.51559e-09
8.53138e-09
-1.2864e-09
5.88668e-09
8.49539e-09
-1.28878e-09
7.15881e-09
8.42146e-09
-1.30038e-09
8.32439e-09
8.32339e-09
-1.3216e-09
9.37513e-09
8.21607e-09
-1.3528e-09
1.03028e-08
8.12018e-09
-1.39414e-09
1.11069e-08
8.05485e-09
-1.44537e-09
7.96901e-09
-1.50353e-09
1.18015e-08
1.50854e-09
9.41908e-09
-1.36039e-09
2.99083e-09
9.51288e-09
-1.34233e-09
4.42653e-09
9.54447e-09
-1.33225e-09
5.78754e-09
9.52246e-09
-1.33033e-09
7.05362e-09
9.45942e-09
-1.33697e-09
8.21586e-09
9.37017e-09
-1.35268e-09
9.26893e-09
9.26837e-09
-1.3779e-09
1.01985e-08
9.16959e-09
-1.41267e-09
1.09961e-08
9.09415e-09
-1.45659e-09
9.00174e-09
-1.50654e-09
1.16861e-08
1.47677e-09
1.02954e-08
-1.4256e-09
2.93423e-09
1.0403e-08
-1.40437e-09
4.35311e-09
1.04469e-08
-1.39006e-09
5.70508e-09
1.04355e-08
-1.38319e-09
6.9667e-09
1.03801e-08
-1.38432e-09
8.12315e-09
1.02943e-08
-1.39394e-09
9.16894e-09
1.01924e-08
-1.41242e-09
1.00897e-08
1.00874e-08
-1.43959e-09
1.08712e-08
9.99752e-09
-1.47486e-09
9.89719e-09
-1.5153e-09
1.15427e-08
1.45573e-09
1.1067e-08
-1.5043e-09
2.89566e-09
1.11858e-08
-1.47906e-09
4.30217e-09
1.12384e-08
-1.45956e-09
5.64698e-09
1.12349e-08
-1.44696e-09
6.90589e-09
1.11849e-08
-1.44205e-09
8.05986e-09
1.10991e-08
-1.44517e-09
9.09614e-09
1.09889e-08
-1.45628e-09
9.99882e-09
1.08666e-08
-1.47468e-09
1.07523e-08
1.07502e-08
-1.49946e-09
1.06313e-08
-1.52769e-09
1.13796e-08
1.43694e-09
-1.59636e-09
1.1733e-08
2.85534e-09
-1.56531e-09
1.1853e-08
4.24314e-09
-1.53915e-09
1.19121e-08
5.57372e-09
-1.51963e-09
1.19181e-08
6.82361e-09
-1.50766e-09
1.18773e-08
7.97336e-09
-1.50341e-09
1.17962e-08
9.00541e-09
-1.50637e-09
1.16811e-08
9.89959e-09
-1.51514e-09
1.15386e-08
1.06323e-08
-1.52758e-09
1.13767e-08
-1.54035e-09
1.12094e-08
1.12079e-08
1.52301e-09
1.52611e-09
-1.36325e-09
2.93524e-09
1.51089e-09
-1.35255e-09
4.20464e-09
1.47057e-09
-1.35394e-09
5.33331e-09
1.42303e-09
-1.36674e-09
6.32813e-09
1.37421e-09
-1.39037e-09
7.19362e-09