/*--------------------------------*- C++ -*----------------------------------*\
| =========                 |                                                 |
| \\      /  F ield         | foam-extend: Open Source CFD                    |
|  \\    /   O peration     | Version:     3.1                                |
|   \\  /    A nd           | Web:         http://www.extend-project.de       |
|    \\/     M anipulation  |                                                 |
\*---------------------------------------------------------------------------*/
FoamFile
{
    version     2.0;
    format      ascii;
    class       volScalarField;
    location    "0.0007";
    object      p;
}
// * * * * * * * * * * * * * * * * * * * * * * * * * * * * * * * * * * * * * //

dimensions      [0 2 -2 0 0 0 0];

internalField   nonuniform List<scalar> 
16000
(
1.27753
1.27754
1.27757
1.27762
1.27772
1.27789
1.27816
1.27856
1.27914
1.27994
1.27754
1.27755
1.27758
1.27764
1.27774
1.27791
1.27818
1.27857
1.27913
1.2799
1.27757
1.27758
1.27762
1.27768
1.27779
1.27797
1.27823
1.27862
1.27918
1.27992
1.27762
1.27764
1.27768
1.27776
1.27788
1.27806
1.27834
1.27873
1.27928
1.28001
1.27772
1.27774
1.27779
1.27788
1.27801
1.27821
1.27849
1.2789
1.27944
1.28017
1.27789
1.27791
1.27797
1.27806
1.27821
1.27842
1.27872
1.27913
1.27969
1.28041
1.27816
1.27818
1.27823
1.27834
1.27849
1.27872
1.27904
1.27946
1.28002
1.28073
1.27856
1.27857
1.27862
1.27873
1.2789
1.27914
1.27946
1.27989
1.28045
1.28115
1.27914
1.27913
1.27918
1.27928
1.27944
1.27969
1.28002
1.28045
1.281
1.28167
1.27994
1.2799
1.27992
1.28001
1.28017
1.28041
1.28073
1.28115
1.28167
1.28228
1.16623
1.16624
1.16627
1.16636
1.16656
1.16693
1.16758
1.16862
1.17019
1.17245
1.16624
1.16625
1.16629
1.16639
1.16659
1.16696
1.16759
1.16858
1.17008
1.17222
1.16627
1.16629
1.16634
1.16646
1.16668
1.16707
1.16771
1.16869
1.17014
1.1722
1.16636
1.16639
1.16646
1.1666
1.16686
1.16728
1.16795
1.16895
1.17039
1.17239
1.16656
1.16659
1.16668
1.16686
1.16716
1.16763
1.16834
1.16937
1.17083
1.17281
1.16693
1.16696
1.16707
1.16728
1.16763
1.16816
1.16893
1.17001
1.17149
1.17347
1.16758
1.16759
1.16771
1.16795
1.16834
1.16893
1.16975
1.17089
1.17242
1.17442
1.16862
1.16858
1.16869
1.16895
1.16937
1.17001
1.17089
1.17209
1.17367
1.17568
1.17019
1.17008
1.17014
1.17039
1.17083
1.17149
1.17242
1.17367
1.17529
1.17733
1.17245
1.17222
1.1722
1.17239
1.17281
1.17347
1.17442
1.17568
1.17733
1.1794
1.05493
1.05486
1.05474
1.05462
1.05457
1.0547
1.05517
1.05615
1.05793
1.06082
1.05486
1.0548
1.0547
1.0546
1.05457
1.05471
1.05517
1.05611
1.05778
1.06049
1.05474
1.0547
1.05462
1.05457
1.05458
1.05477
1.05526
1.05621
1.05785
1.06045
1.05462
1.0546
1.05457
1.05457
1.05465
1.05492
1.05547
1.05647
1.05813
1.06069
1.05457
1.05457
1.05458
1.05465
1.05483
1.05519
1.05584
1.05694
1.05865
1.06123
1.0547
1.05471
1.05477
1.05491
1.05519
1.05566
1.05644
1.05765
1.05948
1.06212
1.05516
1.05517
1.05526
1.05547
1.05584
1.05644
1.05736
1.05872
1.06067
1.06341
1.05615
1.05611
1.05621
1.05647
1.05694
1.05765
1.05872
1.06024
1.06235
1.06522
1.05793
1.05778
1.05785
1.05813
1.05865
1.05948
1.06067
1.06235
1.06463
1.06767
1.06081
1.06049
1.06045
1.06069
1.06123
1.06212
1.06341
1.06522
1.06767
1.07089
0.944049
0.943791
0.943293
0.942607
0.941807
0.941008
0.940369
0.940115
0.940561
0.94214
0.943791
0.943556
0.943095
0.942455
0.941707
0.940955
0.940349
0.940097
0.940488
0.941922
0.943293
0.943095
0.94269
0.942122
0.941457
0.940793
0.94027
0.94008
0.940493
0.941875
0.942607
0.942455
0.942122
0.941648
0.941095
0.940554
0.940157
0.940084
0.940585
0.941999
0.941807
0.941707
0.941457
0.941095
0.940677
0.940291
0.940059
0.94015
0.940798
0.942316
0.941008
0.940955
0.940793
0.940554
0.940291
0.940085
0.940051
0.940349
0.941196
0.942883
0.940369
0.940349
0.94027
0.940157
0.940059
0.940051
0.940242
0.940784
0.941877
0.94379
0.940115
0.940097
0.94008
0.940084
0.94015
0.940349
0.940784
0.941597
0.942977
0.94517
0.94056
0.940488
0.940493
0.940584
0.940798
0.941196
0.941877
0.942977
0.944679
0.947204
0.94214
0.941921
0.941875
0.941998
0.942316
0.942883
0.94379
0.94517
0.947204
0.950121
0.834789
0.834239
0.833148
0.831547
0.829483
0.827025
0.824278
0.821393
0.818596
0.816218
0.834239
0.83373
0.832701
0.83118
0.829212
0.826862
0.824225
0.821444
0.818725
0.816373
0.833148
0.832701
0.831757
0.830344
0.828503
0.826294
0.82381
0.821181
0.8186
0.81635
0.831547
0.83118
0.830344
0.829064
0.827377
0.825343
0.823048
0.820616
0.818227
0.816145
0.829483
0.829212
0.828503
0.827377
0.825872
0.824043
0.821972
0.819778
0.81763
0.815777
0.827025
0.826862
0.826294
0.825343
0.824043
0.822447
0.820633
0.818715
0.816853
0.815284
0.824277
0.824225
0.82381
0.823048
0.821972
0.820633
0.819107
0.817501
0.815969
0.814735
0.821393
0.821444
0.821181
0.820616
0.819778
0.818715
0.817501
0.816241
0.815081
0.814232
0.818595
0.818725
0.8186
0.818227
0.81763
0.816853
0.815969
0.815081
0.814334
0.813927
0.816218
0.816373
0.816349
0.816145
0.815776
0.815284
0.814734
0.814232
0.813927
0.814033
0.729035
0.728136
0.726328
0.72361
0.719973
0.715404
0.709892
0.703424
0.695994
0.68761
0.728136
0.727297
0.725579
0.722979
0.719491
0.715102
0.709802
0.70358
0.69643
0.68836
0.726328
0.725579
0.723977
0.721521
0.718204
0.714017
0.708948
0.702989
0.696134
0.688396
0.72361
0.722979
0.721521
0.719235
0.716112
0.712147
0.707328
0.70165
0.695108
0.687718
0.719973
0.719491
0.718204
0.716112
0.713209
0.709488
0.704941
0.699562
0.69335
0.686325
0.715404
0.715102
0.714017
0.712147
0.709488
0.706035
0.701781
0.696722
0.690859
0.684217
0.709892
0.709802
0.708948
0.707328
0.704941
0.701781
0.697844
0.693128
0.687634
0.681393
0.703424
0.70358
0.702989
0.70165
0.699562
0.696722
0.693128
0.68878
0.683679
0.677862
0.695994
0.69643
0.696134
0.695108
0.69335
0.690859
0.687634
0.683679
0.679001
0.673643
0.68761
0.68836
0.688396
0.687718
0.686325
0.684217
0.681393
0.677862
0.673643
0.668796
0.62908
0.627848
0.625357
0.62157
0.616421
0.609814
0.60161
0.591622
0.579588
0.565151
0.627848
0.626695
0.624319
0.620688
0.615738
0.609381
0.601489
0.591888
0.580338
0.566513
0.625357
0.624319
0.62209
0.618636
0.6139
0.607799
0.600215
0.590985
0.579888
0.566629
0.62157
0.620688
0.618636
0.615385
0.610881
0.605046
0.59777
0.588901
0.578234
0.565501
0.616421
0.615738
0.6139
0.610881
0.60663
0.601076
0.594113
0.585601
0.575348
0.563111
0.609814
0.609381
0.607799
0.605046
0.601075
0.59582
0.589182
0.581028
0.571178
0.559415
0.601611
0.601489
0.600215
0.59777
0.594113
0.589181
0.582884
0.575096
0.565647
0.554342
0.591622
0.591888
0.590986
0.588901
0.585601
0.581027
0.575096
0.567689
0.558645
0.547792
0.579588
0.580338
0.579889
0.578234
0.575348
0.571178
0.565647
0.558645
0.550025
0.539633
0.565151
0.566513
0.566629
0.565501
0.563111
0.559415
0.554342
0.547792
0.539633
0.529735
0.537136
0.535663
0.532679
0.528127
0.521906
0.513869
0.503809
0.491439
0.476362
0.458034
0.535663
0.534283
0.531436
0.527067
0.521083
0.513348
0.50367
0.491783
0.477322
0.459792
0.532679
0.531436
0.528758
0.524595
0.518861
0.511428
0.502118
0.490683
0.476787
0.459974
0.528127
0.527066
0.524595
0.520665
0.515198
0.508072
0.499123
0.488118
0.474744
0.458587
0.521906
0.521083
0.518861
0.515198
0.510019
0.503213
0.494624
0.484036
0.471154
0.455603
0.513869
0.513348
0.511428
0.508072
0.503213
0.496747
0.488527
0.47835
0.465941
0.450957
0.503809
0.50367
0.502118
0.499123
0.494624
0.488527
0.480693
0.470933
0.458986
0.444543
0.491439
0.491783
0.490684
0.488118
0.484036
0.47835
0.470933
0.461606
0.450126
0.436211
0.476362
0.477323
0.476787
0.474744
0.471154
0.465941
0.458986
0.450126
0.439132
0.425752
0.458034
0.459792
0.459975
0.458587
0.455603
0.450957
0.444543
0.436211
0.425752
0.412939
0.454839
0.453262
0.450069
0.445203
0.438562
0.430003
0.419327
0.406265
0.390457
0.371425
0.453262
0.451785
0.44874
0.444071
0.437687
0.429453
0.419186
0.406636
0.39147
0.373252
0.450069
0.44874
0.445879
0.441436
0.435325
0.427422
0.417556
0.405495
0.390931
0.373464
0.445203
0.444071
0.441436
0.43725
0.431435
0.423873
0.414407
0.402821
0.388829
0.372066
0.438562
0.437687
0.435325
0.431435
0.425942
0.418741
0.409683
0.398567
0.385128
0.369035
0.430003
0.429454
0.427422
0.423873
0.418741
0.411927
0.403293
0.392654
0.379761
0.364314
0.419328
0.419186
0.417556
0.414407
0.409683
0.403293
0.395112
0.384965
0.372622
0.357814
0.406266
0.406636
0.405495
0.402821
0.398567
0.392654
0.384965
0.375341
0.363567
0.349403
0.390457
0.39147
0.390931
0.388829
0.385129
0.379761
0.372622
0.363567
0.352399
0.338905
0.371426
0.373252
0.373464
0.372066
0.369035
0.364314
0.357814
0.349403
0.338905
0.326129
0.38294
0.381396
0.378275
0.373537
0.36711
0.358892
0.348753
0.336521
0.321988
0.304901
0.381395
0.379951
0.376979
0.37244
0.366268
0.35837
0.348622
0.336869
0.322915
0.306525
0.378275
0.376979
0.374196
0.36989
0.363998
0.356437
0.347092
0.335819
0.322435
0.306728
0.373537
0.37244
0.36989
0.365852
0.360272
0.35307
0.344143
0.333356
0.320542
0.305508
0.36711
0.366268
0.363999
0.360272
0.355037
0.348224
0.339737
0.329451
0.317215
0.302853
0.358892
0.35837
0.356437
0.35307
0.348224
0.341836
0.333817
0.324057
0.312414
0.298734
0.348753
0.348622
0.347093
0.344143
0.339737
0.333817
0.326307
0.317104
0.306081
0.293103
0.336522
0.336869
0.335819
0.333356
0.329451
0.324057
0.317104
0.308502
0.298138
0.285894
0.321989
0.322915
0.322436
0.320543
0.317215
0.312414
0.306081
0.298138
0.288483
0.277021
0.304901
0.306526
0.306728
0.305508
0.302853
0.298734
0.293103
0.285894
0.277021
0.266404
0.321283
0.319871
0.317028
0.312734
0.306956
0.29965
0.290766
0.28025
0.268056
0.254157
0.319871
0.318553
0.315851
0.311744
0.306203
0.299189
0.290653
0.280547
0.268824
0.255458
0.317028
0.315851
0.31333
0.309449
0.30418
0.297488
0.289328
0.279657
0.268431
0.255626
0.312734
0.311744
0.309449
0.305834
0.300873
0.294536
0.286783
0.277575
0.266874
0.254658
0.306956
0.306204
0.30418
0.300873
0.296261
0.290316
0.283005
0.274293
0.264146
0.252551
0.29965
0.299189
0.297488
0.294536
0.290316
0.284805
0.277974
0.269795
0.26024
0.249301
0.290766
0.290653
0.289329
0.286783
0.283005
0.277974
0.27167
0.264068
0.255146
0.244904
0.280251
0.280547
0.279657
0.277576
0.274293
0.269795
0.264068
0.257092
0.248852
0.239356
0.268057
0.268825
0.268432
0.266874
0.264146
0.26024
0.255146
0.248852
0.241352
0.232657
0.254157
0.255459
0.255627
0.254658
0.252551
0.249301
0.244904
0.239356
0.232657
0.22483
0.269029
0.2678
0.265333
0.261629
0.256686
0.250505
0.2431
0.234498
0.224759
0.213989
0.2678
0.266655
0.264315
0.260779
0.256045
0.250117
0.243006
0.234737
0.225363
0.21498
0.265333
0.264315
0.262142
0.258813
0.254328
0.248691
0.241912
0.234017
0.225053
0.215109
0.261629
0.260779
0.258813
0.255731
0.251534
0.246226
0.239819
0.232338
0.223827
0.214369
0.256686
0.256046
0.254328
0.251534
0.247665
0.242727
0.236732
0.229705
0.22169
0.212767
0.250506
0.250118
0.248691
0.246226
0.242727
0.238199
0.232658
0.226129
0.218655
0.210312
0.2431
0.243006
0.241912
0.239819
0.236732
0.232658
0.227614
0.221626
0.214738
0.207023
0.234499
0.234737
0.234017
0.232338
0.229705
0.226129
0.221626
0.216226
0.209971
0.202933
0.22476
0.225364
0.225054
0.223827
0.221691
0.218655
0.214738
0.209971
0.204397
0.198086
0.213989
0.214981
0.215109
0.21437
0.212767
0.210312
0.207024
0.202933
0.198086
0.192554
0.22499
0.223951
0.22187
0.21876
0.214637
0.209527
0.203472
0.196535
0.188808
0.180429
0.223951
0.222984
0.221013
0.218048
0.214105
0.209207
0.203394
0.196724
0.189282
0.181192
0.22187
0.221013
0.219189
0.216406
0.21268
0.208034
0.202505
0.196146
0.189035
0.181288
0.21876
0.218048
0.216406
0.213842
0.210371
0.206015
0.200809
0.194802
0.188068
0.180714
0.214637
0.214105
0.21268
0.210371
0.207191
0.203163
0.198317
0.192704
0.18639
0.179475
0.209527
0.209207
0.208034
0.206015
0.203163
0.199498
0.195052
0.18987
0.184018
0.177586
0.203472
0.203395
0.202505
0.200809
0.198318
0.195052
0.191042
0.186331
0.180979
0.175073
0.196535
0.196725
0.196146
0.194802
0.192704
0.189871
0.186331
0.182125
0.177312
0.17197
0.188809
0.189282
0.189036
0.188069
0.186391
0.184018
0.180979
0.177312
0.173071
0.16833
0.18043
0.181192
0.181289
0.180714
0.179475
0.177587
0.175073
0.17197
0.16833
0.164224
0.187923
0.187053
0.185315
0.182724
0.179301
0.175078
0.1701
0.164427
0.158141
0.151347
0.187053
0.186245
0.1846
0.182131
0.178859
0.174813
0.170035
0.164581
0.158524
0.151963
0.185315
0.1846
0.18308
0.180767
0.17768
0.173846
0.169304
0.164107
0.158321
0.152038
0.182724
0.182131
0.180767
0.178641
0.175771
0.172183
0.167913
0.163008
0.157532
0.151567
0.179301
0.178859
0.17768
0.175771
0.17315
0.16984
0.165874
0.161296
0.156165
0.150557
0.175078
0.174814
0.173846
0.172184
0.16984
0.166837
0.163206
0.158988
0.154235
0.149018
0.1701
0.170035
0.169305
0.167913
0.165874
0.163206
0.159938
0.156108
0.151763
0.146968
0.164428
0.164581
0.164107
0.163009
0.161297
0.158988
0.156108
0.152691
0.148781
0.144436
0.158142
0.158525
0.158322
0.157533
0.156166
0.154235
0.151763
0.148781
0.145329
0.141457
0.151348
0.151964
0.152039
0.151568
0.150558
0.149018
0.146969
0.144437
0.141457
0.138079
0.156706
0.155977
0.15452
0.15235
0.149485
0.145952
0.141785
0.137029
0.131734
0.125962
0.155977
0.155299
0.153921
0.151854
0.149115
0.14573
0.141731
0.137157
0.132057
0.126488
0.15452
0.153921
0.152648
0.150711
0.148128
0.14492
0.141118
0.136758
0.131884
0.126549
0.15235
0.151854
0.150711
0.148932
0.14653
0.143528
0.13995
0.135833
0.131215
0.126144
0.149485
0.149115
0.148128
0.146531
0.144336
0.141564
0.138238
0.134389
0.130054
0.125276
0.145952
0.145731
0.14492
0.143528
0.141564
0.139046
0.135995
0.132439
0.128411
0.123951
0.141786
0.141731
0.141118
0.139951
0.138238
0.135995
0.133241
0.13
0.126301
0.122179
0.13703
0.137158
0.136758
0.135833
0.13439
0.13244
0.13
0.127092
0.12374
0.119976
0.131735
0.132058
0.131885
0.131215
0.130054
0.128412
0.126301
0.12374
0.12075
0.117359
0.125963
0.126489
0.12655
0.126145
0.125277
0.123951
0.12218
0.119976
0.11736
0.114354
0.130407
0.129792
0.128561
0.126726
0.1243
0.121303
0.117757
0.113687
0.109123
0.104089
0.129792
0.129219
0.128055
0.126306
0.123987
0.121115
0.11771
0.113797
0.109402
0.104551
0.128561
0.128055
0.126978
0.125339
0.12315
0.120426
0.117187
0.113454
0.109252
0.104604
0.126726
0.126306
0.125339
0.123832
0.121794
0.119241
0.116189
0.112658
0.10867
0.104248
0.124301
0.123987
0.12315
0.121794
0.119929
0.117567
0.114723
0.111414
0.107661
0.103484
0.121304
0.121115
0.120426
0.119241
0.117567
0.115414
0.112797
0.10973
0.106229
0.102315
0.117757
0.117711
0.117187
0.116189
0.114723
0.112797
0.110423
0.107613
0.104382
0.100746
0.113688
0.113798
0.113455
0.112659
0.111415
0.10973
0.107613
0.105075
0.102127
0.0987827
0.109124
0.109403
0.109253
0.108671
0.107662
0.10623
0.104382
0.102127
0.0994731
0.096433
0.104091
0.104552
0.104605
0.104249
0.103484
0.102315
0.100746
0.0987831
0.0964332
0.0937073
0.108273
0.10775
0.106703
0.10514
0.103071
0.100508
0.097465
0.0939569
0.0899983
0.0856011
0.10775
0.107263
0.106272
0.104782
0.102804
0.100347
0.0974249
0.0940521
0.0902418
0.0860057
0.106703
0.106272
0.105355
0.103958
0.102088
0.0997564
0.0969746
0.0937552
0.0901108
0.0860525
0.10514
0.104782
0.103958
0.102671
0.100928
0.0987397
0.0961154
0.0930667
0.0896048
0.0857402
0.103071
0.102804
0.102088
0.100928
0.0993302
0.0973013
0.094851
0.0919892
0.0887255
0.0850698
0.100508
0.100347
0.0997567
0.0987399
0.0973014
0.0954478
0.0931867
0.0905266
0.0874755
0.0840427
0.0974655
0.0974254
0.096975
0.0961157
0.0948513
0.0931868
0.0911287
0.0886838
0.0858585
0.0826612
0.0939577
0.0940528
0.0937559
0.0930672
0.0919896
0.0905269
0.0886839
0.0864661
0.0838784
0.0809279
0.0899993
0.0902427
0.0901116
0.0896055
0.0887261
0.087476
0.0858589
0.0838786
0.0815386
0.0788455
0.0856024
0.0860069
0.0860536
0.0857412
0.0850706
0.0840434
0.0826618
0.0809284
0.0788457
0.0764198
0.0896856
0.0892395
0.0883471
0.0870138
0.0852463
0.0830532
0.0804443
0.0774299
0.0740199
0.0702234
0.0892395
0.0888248
0.0879795
0.0867083
0.0850176
0.0829151
0.08041
0.0775119
0.07423
0.0705731
0.0883472
0.0879795
0.0871971
0.0860039
0.0844057
0.0824095
0.0800235
0.0772566
0.0741172
0.0706137
0.0870139
0.0867084
0.086004
0.0849039
0.0834132
0.0815381
0.0792858
0.0766642
0.073681
0.0703443
0.0852465
0.0850178
0.0844058
0.0834133
0.0820443
0.0803042
0.0781994
0.0757366
0.0729227
0.0697654
0.0830535
0.0829154
0.0824097
0.0815382
0.0803043
0.0787124
0.0767679
0.0744766
0.0718443
0.0688783
0.0804448
0.0804104
0.0800239
0.0792861
0.0781996
0.076768
0.0749957
0.0728875
0.0704482
0.0676846
0.0774305
0.0775124
0.0772571
0.0766647
0.075737
0.0744768
0.0728876
0.0709733
0.0687375
0.0661866
0.0740207
0.0742308
0.0741179
0.0736817
0.0729233
0.0718447
0.0704485
0.0687376
0.066715
0.0643867
0.0702245
0.0705741
0.0706147
0.0703452
0.0697662
0.0688789
0.0676851
0.066187
0.0643869
0.0622907
0.0741252
0.0737457
0.0729866
0.0718519
0.0703471
0.0684793
0.0662565
0.0636881
0.0607839
0.0575547
0.0737457
0.0733929
0.0726737
0.0715919
0.0701524
0.0683617
0.0662274
0.063758
0.0609628
0.057852
0.0729866
0.0726738
0.0720079
0.0709922
0.0696313
0.067931
0.0658981
0.0635406
0.0608669
0.0578867
0.071852
0.071592
0.0709923
0.0700557
0.0687861
0.0671886
0.0652696
0.0630362
0.0604959
0.057658
0.0703473
0.0701525
0.0696314
0.0687861
0.06762
0.0661375
0.0643441
0.0622463
0.0598509
0.0571666
0.0684795
0.0683619
0.0679312
0.0671888
0.0661375
0.0647813
0.0631248
0.0611736
0.0589338
0.0564139
0.0662569
0.0662277
0.0658984
0.0652699
0.0643443
0.0631249
0.0616156
0.0598214
0.0577474
0.0554018
0.0636885
0.0637584
0.063541
0.0630365
0.0622466
0.0611738
0.0598215
0.0581938
0.0562952
0.0541332
0.0607845
0.0609634
0.0608675
0.0604964
0.0598513
0.0589342
0.0577477
0.0562953
0.0545809
0.0526115
0.0575556
0.0578528
0.0578874
0.0576587
0.0571672
0.0564144
0.0554022
0.0541335
0.0526117
0.0508439
0.0611426
0.0608213
0.0601785
0.0592178
0.0579441
0.0563638
0.0544846
0.052316
0.0498686
0.0471552
0.0608213
0.0605226
0.0599136
0.0589977
0.0577793
0.0562643
0.05446
0.052375
0.0500192
0.0474045
0.0601785
0.0599136
0.0593498
0.0584901
0.0573384
0.0559001
0.0541819
0.0521917
0.0499386
0.0474338
0.0592178
0.0589977
0.0584901
0.0576974
0.0566233
0.0552725
0.0536511
0.0517663
0.0496265
0.0472421
0.0579442
0.0577793
0.0573384
0.0566233
0.0556371
0.0543842
0.0528698
0.0511006
0.049084
0.0468301
0.0563639
0.0562644
0.0559002
0.0552726
0.0543842
0.0532388
0.0518411
0.0501971
0.0483134
0.0461995
0.0544848
0.0544602
0.054182
0.0536512
0.0528699
0.0518412
0.0505693
0.0490594
0.0473175
0.0453526
0.0523163
0.0523752
0.0521919
0.0517665
0.0511007
0.0501972
0.0490594
0.047692
0.0461003
0.0442927
0.049869
0.0500195
0.0499389
0.0496267
0.0490843
0.0483136
0.0473176
0.0461004
0.0446666
0.043024
0.0471556
0.047405
0.0474342
0.0472424
0.0468305
0.0461998
0.0453528
0.0442928
0.0430241
0.0415542
0.0503452
0.0500745
0.0495331
0.0487243
0.0476526
0.0463241
0.0447464
0.0429285
0.0408815
0.0386185
0.0500745
0.0498229
0.04931
0.048539
0.047514
0.0462405
0.0447257
0.0429779
0.0410073
0.0388261
0.0495331
0.04931
0.0488354
0.0481119
0.0471433
0.0459346
0.0444924
0.0428244
0.04094
0.0388505
0.0487243
0.048539
0.0481119
0.0474452
0.0465422
0.0454076
0.0440472
0.0424683
0.0406793
0.0386909
0.0476526
0.047514
0.0471432
0.0465422
0.0457137
0.044662
0.0433924
0.0419113
0.0402265
0.038348
0.0463241
0.0462405
0.0459346
0.0454076
0.044662
0.0437016
0.0425309
0.0411559
0.0395836
0.0378233
0.0447463
0.0447257
0.0444924
0.0440472
0.0433924
0.0425309
0.041467
0.0402058
0.0387537
0.0371194
0.0429285
0.0429779
0.0428244
0.0424683
0.0419113
0.0411559
0.0402058
0.0390656
0.0377408
0.0362396
0.0408815
0.0410073
0.04094
0.0406793
0.0402265
0.0395836
0.0387537
0.0377408
0.0365497
0.0351882
0.0386185
0.0388261
0.0388505
0.0386909
0.038348
0.0378233
0.0371194
0.0362396
0.0351882
0.0339725
0.0413898
0.0411629
0.0407092
0.0400317
0.0391345
0.0380234
0.0367053
0.035189
0.0334845
0.0316041
0.0411629
0.040952
0.0405223
0.0398765
0.0390185
0.0379535
0.0366881
0.0352301
0.0335891
0.0317764
0.0407091
0.0405223
0.0401247
0.0395189
0.0387083
0.0376978
0.0364933
0.0351021
0.0335331
0.0317966
0.0400316
0.0398764
0.0395189
0.0389609
0.0382056
0.0372574
0.0361218
0.0348054
0.0333162
0.0316641
0.0391344
0.0390184
0.0387083
0.0382056
0.0375132
0.0366348
0.0355755
0.0343414
0.0329396
0.0313795
0.0380232
0.0379534
0.0376977
0.0372573
0.0366348
0.0358334
0.0348575
0.0337126
0.0324053
0.0309442
0.0367051
0.0366878
0.0364931
0.0361216
0.0355754
0.0348574
0.0339714
0.0329223
0.031716
0.0303605
0.0351887
0.0352298
0.0351019
0.0348052
0.0343412
0.0337125
0.0329223
0.0319749
0.0308755
0.0296316
0.0334841
0.0335887
0.0335327
0.0333159
0.0329394
0.0324051
0.0317159
0.0308755
0.0298883
0.0287613
0.0316036
0.031776
0.0317962
0.0316637
0.0313791
0.0309439
0.0303603
0.0296314
0.0287612
0.0277561
0.0339796
0.0337901
0.0334114
0.0328461
0.0320979
0.031172
0.0300747
0.0288136
0.0273978
0.0258378
0.0337901
0.033614
0.0332554
0.0327166
0.0320012
0.0311138
0.0300603
0.0288478
0.0274847
0.0259807
0.0334113
0.0332553
0.0329236
0.0324184
0.0317427
0.0309008
0.0298982
0.0287414
0.0274381
0.0259975
0.0328459
0.0327165
0.0324183
0.0319531
0.0313238
0.0305342
0.0295892
0.0284948
0.027258
0.0258875
0.0320977
0.032001
0.0317425
0.0313237
0.030747
0.0300159
0.0291349
0.0281092
0.0269455
0.0256515
0.0311717
0.0311135
0.0309006
0.030534
0.0300158
0.0293492
0.0285379
0.027587
0.0265021
0.0252907
0.0300743
0.0300599
0.0298979
0.0295889
0.0291346
0.0285378
0.0278018
0.026931
0.0259304
0.0248069
0.028813
0.0288472
0.0287409
0.0284943
0.0281089
0.0275867
0.0269308
0.0261449
0.0252336
0.024203
0.027397
0.0274839
0.0274374
0.0272574
0.0269449
0.0265017
0.0259301
0.0252334
0.0244156
0.0234824
0.0258369
0.0259798
0.0259966
0.0258867
0.0256508
0.0252901
0.0248065
0.0242027
0.0234822
0.0226503
0.0278599
0.0277022
0.0273871
0.0269168
0.0262948
0.0255253
0.0246139
0.0235673
0.0223931
0.0211002
0.0277022
0.0275557
0.0272573
0.0268092
0.0262144
0.0254769
0.024602
0.0235956
0.022465
0.0212185
0.027387
0.0272572
0.0269813
0.0265611
0.0259994
0.0252999
0.0244674
0.0235073
0.0224264
0.0212324
0.0269167
0.026809
0.026561
0.0261743
0.0256513
0.0249953
0.0242108
0.0233027
0.0222771
0.0211413
0.0262945
0.0262141
0.0259992
0.0256512
0.0251721
0.024565
0.0238337
0.0229828
0.0220179
0.0209457
0.0255248
0.0254765
0.0252996
0.0249951
0.0245648
0.0240114
0.0233383
0.0225497
0.0216504
0.0206466
0.0246133
0.0246013
0.0244668
0.0242103
0.0238333
0.0233382
0.0227277
0.0220057
0.0211765
0.0202459
0.0235664
0.0235948
0.0235066
0.023302
0.0229823
0.0225493
0.0220055
0.0213542
0.0205992
0.0197456
0.0223919
0.0224639
0.0224254
0.0222762
0.0220171
0.0216497
0.0211761
0.0205989
0.0199215
0.0191488
0.0210987
0.0212171
0.0212311
0.0211401
0.0209446
0.0206457
0.0202452
0.0197451
0.0191485
0.0184597
0.0228149
0.022684
0.0224224
0.0220322
0.0215161
0.0208779
0.0201224
0.0192552
0.0182828
0.0172125
0.022684
0.0225623
0.0223147
0.0219428
0.0214493
0.0208378
0.0201125
0.0192787
0.0183423
0.0173104
0.0224223
0.0223146
0.0220856
0.021737
0.0212711
0.020691
0.0200009
0.0192055
0.0183103
0.0173219
0.0220319
0.0219426
0.0217369
0.0214161
0.0209823
0.0204385
0.0197882
0.0190359
0.0181866
0.0172464
0.0215157
0.021449
0.0212708
0.0209822
0.0205849
0.0200817
0.0194758
0.018771
0.017972
0.0170845
0.0208773
0.0208372
0.0206906
0.0204381
0.0200815
0.019623
0.0190654
0.0184122
0.0176677
0.0168369
0.0201216
0.0201117
0.0200002
0.0197877
0.0194753
0.0190651
0.0185596
0.0179618
0.0172754
0.0165052
0.0192541
0.0192776
0.0192045
0.0190351
0.0187703
0.0184117
0.0179615
0.0174223
0.0167974
0.0160912
0.0182813
0.0183409
0.018309
0.0181855
0.017971
0.0176669
0.0172748
0.0167971
0.0162366
0.0155972
0.0172106
0.0173086
0.0173202
0.0172449
0.0170831
0.0168358
0.0165043
0.0160905
0.0155969
0.015027
0.0186624
0.0185539
0.0183372
0.018014
0.0175867
0.0170584
0.0164333
0.0157159
0.0149118
0.0140272
0.0185539
0.0184531
0.018248
0.01794
0.0175314
0.0170252
0.016425
0.0157353
0.0149611
0.0141082
0.0183371
0.0182479
0.0180582
0.0177695
0.0173838
0.0169037
0.0163327
0.0156748
0.0149346
0.0141176
0.0180137
0.0179398
0.0177694
0.0175038
0.0171447
0.0166947
0.0161567
0.0155345
0.0148323
0.0140551
0.0175862
0.017531
0.0173835
0.0171446
0.0168158
0.0163995
0.0158982
0.0153153
0.0146548
0.0139213
0.0170577
0.0170246
0.0169032
0.0166943
0.0163992
0.0160199
0.0155587
0.0150186
0.0144032
0.0137167
0.0164323
0.0164241
0.0163319
0.016156
0.0158977
0.0155584
0.0151404
0.0146462
0.0140789
0.0134425
0.0157146
0.015734
0.0156736
0.0155335
0.0153145
0.0150181
0.0146459
0.0142002
0.0136839
0.0131004
0.0149101
0.0149594
0.014933
0.0148309
0.0146536
0.0144022
0.0140782
0.0136835
0.0132204
0.0126923
0.014025
0.014106
0.0141156
0.0140533
0.0139197
0.0137153
0.0134414
0.0130996
0.0126919
0.0122212
0.0152494
0.0151597
0.0149806
0.0147134
0.0143602
0.0139237
0.0134073
0.0128149
0.0121512
0.0114214
0.0151597
0.0150764
0.0149068
0.0146522
0.0143145
0.0138962
0.0134005
0.0128309
0.0121918
0.0114881
0.0149804
0.0149067
0.0147499
0.0145113
0.0141925
0.0137958
0.0133242
0.0127809
0.0121699
0.0114958
0.0147131
0.014652
0.0145111
0.0142916
0.0139949
0.0136231
0.0131788
0.0126651
0.0120855
0.0114443
0.0143597
0.0143141
0.0141922
0.0139947
0.0137232
0.0133792
0.0129653
0.0124841
0.011939
0.0113338
0.013923
0.0138956
0.0137953
0.0136227
0.013379
0.0130657
0.0126849
0.0122391
0.0117313
0.011165
0.0134062
0.0133995
0.0133233
0.0131781
0.0129647
0.0126846
0.0123396
0.0119317
0.0114637
0.0109388
0.0128135
0.0128295
0.0127797
0.012664
0.0124832
0.0122385
0.0119314
0.0115637
0.0111377
0.0106566
0.0121493
0.01219
0.0121683
0.012084
0.0119377
0.0117302
0.0114629
0.0111373
0.0107555
0.0103201
0.0114189
0.0114858
0.0114937
0.0114423
0.011332
0.0111635
0.0109376
0.0106558
0.0103196
0.00993176
0.0124482
0.0123742
0.0122263
0.0120058
0.0117144
0.0113544
0.0109285
0.0104402
0.00989334
0.00929228
0.0123742
0.0123054
0.0121654
0.0119553
0.0116767
0.0113317
0.0109229
0.0104534
0.00992678
0.00934721
0.0122262
0.0121653
0.012036
0.011839
0.011576
0.0112489
0.01086
0.0104121
0.00990871
0.00935353
0.0120055
0.0119551
0.0118389
0.0116578
0.011413
0.0111064
0.0107401
0.0103166
0.00983908
0.00931104
0.0117139
0.0116763
0.0115757
0.0114129
0.0111889
0.0109053
0.010564
0.0101674
0.00971834
0.00922
0.0113536
0.011331
0.0112483
0.011106
0.010905
0.0106467
0.0103329
0.00996555
0.00954722
0.00908095
0.0109274
0.0109219
0.0108591
0.0107393
0.0105635
0.0103326
0.0100482
0.00971222
0.00932677
0.0088947
0.0104387
0.010452
0.0104109
0.0103155
0.0101666
0.00996491
0.00971188
0.00940906
0.00905836
0.00866237
0.00989139
0.00992494
0.00990701
0.00983756
0.00971704
0.00954617
0.00932602
0.00905795
0.00874362
0.00838538
0.00928977
0.00934483
0.00935132
0.00930903
0.00921822
0.00907942
0.00889348
0.00866151
0.00838492
0.00806585
0.0101521
0.0100911
0.00996928
0.00978761
0.00954756
0.00925105
0.00890046
0.00849861
0.00804875
0.00755458
0.0100911
0.0100344
0.00991908
0.009746
0.00951651
0.00923238
0.00889581
0.00850942
0.00807624
0.00759971
0.00996914
0.00991899
0.0098124
0.00965019
0.00943357
0.00916417
0.00884399
0.00847546
0.00806135
0.00760487
0.00978733
0.00974577
0.00965005
0.00950088
0.00929932
0.00904685
0.00874529
0.00839684
0.00800404
0.0075699
0.00954708
0.00951609
0.00943325
0.00929914
0.0091147
0.00888122
0.00860035
0.00827408
0.0079047
0.00749501
0.00925032
0.00923171
0.00916361
0.00904643
0.00888099
0.0086684
0.00841013
0.00810796
0.00776393
0.00738065
0.00889942
0.00889485
0.00884314
0.00874459
0.00859984
0.00840986
0.00817591
0.00789956
0.00758264
0.00722752
0.0084972
0.0085081
0.00847426
0.0083958
0.00827323
0.00810735
0.00789923
0.00765023
0.00736195
0.00703656
0.00804689
0.00807448
0.00805973
0.0080026
0.00790346
0.00776293
0.00758192
0.00736156
0.00710324
0.00680895
0.00755219
0.00759744
0.00760276
0.00756798
0.0074933
0.0073792
0.00722636
0.00703574
0.00680851
0.00654648
0.00827233
0.00822214
0.00812189
0.00797245
0.00777502
0.00753121
0.00724302
0.00691282
0.00654332
0.00613763
0.0082221
0.00817548
0.0080806
0.00793822
0.00774948
0.00751585
0.00723919
0.00692169
0.00656588
0.00617465
0.00812177
0.00808051
0.00799283
0.00785941
0.00768127
0.00745977
0.00719659
0.00689377
0.00655363
0.00617886
0.0079722
0.00793802
0.00785929
0.00773661
0.00757087
0.00736331
0.00711546
0.00682916
0.00650654
0.00615012
0.0077746
0.00774911
0.00768099
0.00757071
0.00741907
0.00722715
0.00699633
0.00672828
0.00642493
0.0060886
0.00753057
0.00751527
0.00745927
0.00736294
0.00722694
0.00705223
0.00684002
0.00659181
0.00630931
0.0059947
0.00724211
0.00723835
0.00719584
0.00711484
0.00699588
0.00683978
0.00664759
0.00642063
0.00616043
0.00586899
0.00691157
0.00692053
0.00689271
0.00682824
0.00672753
0.00659127
0.00642034
0.00621589
0.00597926
0.00571226
0.00654168
0.00656433
0.0065522
0.00650526
0.00642383
0.00630843
0.0061598
0.00597892
0.00576693
0.0055255
0.00613551
0.00617265
0.006177
0.00614842
0.0060871
0.00599342
0.00586797
0.00571153
0.00552511
0.00531019
0.00673512
0.00669388
0.00661153
0.00648877
0.00632663
0.00612644
0.00588988
0.00561892
0.00531583
0.0049832
0.00669385
0.00665555
0.0065776
0.00646066
0.00630565
0.00611383
0.00588673
0.00562619
0.00533432
0.00501354
0.00661143
0.00657754
0.00650551
0.00639593
0.00624964
0.00606778
0.00585176
0.00560327
0.00532426
0.00501697
0.00648858
0.0064605
0.00639584
0.00629508
0.00615899
0.00598859
0.00578516
0.00555025
0.00528563
0.00499339
0.00632629
0.00630536
0.00624942
0.00615886
0.00603436
0.00587682
0.0056874
0.00546748
0.00521868
0.00494294
0.00612593
0.00611336
0.00606739
0.0059883
0.00587666
0.00573327
0.00555915
0.00535553
0.00512386
0.00486594
0.00588915
0.00588606
0.00585116
0.00578467
0.00568704
0.00555895
0.00540128
0.00521513
0.00500178
0.00476289
0.00561792
0.00562526
0.00560243
0.00554952
0.00546689
0.0053551
0.0052149
0.00504724
0.00485325
0.00463443
0.00531452
0.00533309
0.00532312
0.00528461
0.00521781
0.00512316
0.00500128
0.00485298
0.00467922
0.00448139
0.00498151
0.00501194
0.00501549
0.00499203
0.00494174
0.00486492
0.00476207
0.00463385
0.00448108
0.00430501
0.0054794
0.00544557
0.005378
0.0052773
0.00514431