/*--------------------------------*- C++ -*----------------------------------*\
| =========                 |                                                 |
| \\      /  F ield         | foam-extend: Open Source CFD                    |
|  \\    /   O peration     | Version:     3.1                                |
|   \\  /    A nd           | Web:         http://www.extend-project.de       |
|    \\/     M anipulation  |                                                 |
\*---------------------------------------------------------------------------*/
FoamFile
{
    version     2.0;
    format      ascii;
    class       pointVectorField;
    location    "0.0007";
    object      pointMotionU;
}
// * * * * * * * * * * * * * * * * * * * * * * * * * * * * * * * * * * * * * //

dimensions      [0 1 -1 0 0 0 0];

internalField   nonuniform List<vector> 
18306
(
(0 0 0)
(0 0 0)
(0 0 0)
(0 0 0)
(0 0 0)
(0 0 0)
(0 0 0)
(0 0 0)
(0 0 0)
(0 0 0)
(0 0 0)
(0 0 0)
(0 0 0)
(0 0 0)
(0 0 0)
(0 0 0)
(0 0 0)
(0 0 0)
(0 0 0)
(0 0 0)
(0 0 0)
(0 0 0)
(0 0 0)
(0 0 0)
(0 0 0)
(0 0 0)
(0 0 0)
(0 0 0)
(0 0 0)
(0 0 0)
(0 0 0)
(0 0 0)
(0 0 0)
(0 0 0)
(0 0 0)
(0 0 0)
(0 0 0)
(0 0 0)
(0 0 0)
(0 0 0)
(0 0 0)
(0 0 0)
(0 0 0)
(0 0 0)
(0 0 0)
(0 0 0)
(0 0 0)
(0 0 0)
(0 0 0)
(0 0 0)
(0 0 0)
(0 0 0)
(0 0 0)
(0 0 0)
(0 0 0)
(0 0 0)
(0 0 0)
(0 0 0)
(0 0 0)
(0 0 0)
(0 0 0)
(0 0 0)
(0 0 0)
(0 0 0)
(0 0 0)
(0 0 0)
(0 0 0)
(0 0 0)
(0 0 0)
(0 0 0)
(0 0 0)
(0 0 0)
(0 0 0)
(0 0 0)
(0 0 0)
(0 0 0)
(0 0 0)
(0 0 0)
(0 0 0)
(0 0 0)
(0 0 0)
(0 0 0)
(0 0 0)
(0 0 0)
(0 0 0)
(0 0 0)
(0 0 0)
(0 0 0)
(0 0 0)
(0 0 0)
(0 0 0)
(0 0 0)
(0 0 0)
(0 0 0)
(0 0 0)
(0 0 0)
(0 0 0)
(0 0 0)
(0 0 0)
(0 0 0)
(0 0 0)
(0 0 0)
(0 0 0)
(0 0 0)
(0 0 0)
(0 0 0)
(0 0 0)
(0 0 0)
(0 0 0)
(0 0 0)
(0 0 0)
(0 0 0)
(0 0 0)
(0 0 0)
(0 0 0)
(0 0 0)
(0 0 0)
(0 0 0)
(0 0 0)
(0 0 0)
(0 0 0)
(0 0 3.49934e-08)
(8.7759e-09 0 3.54786e-08)
(1.76085e-08 0 3.69797e-08)
(2.66941e-08 0 3.95655e-08)
(3.64004e-08 0 4.34242e-08)
(4.70808e-08 0 4.88707e-08)
(5.90375e-08 0 5.63644e-08)
(7.24921e-08 0 6.65506e-08)
(8.75169e-08 0 8.03141e-08)
(1.0396e-07 0 9.88836e-08)
(1.21648e-07 0 1.24427e-07)
(0 6.66911e-09 3.54e-08)
(8.59262e-09 6.55263e-09 3.5875e-08)
(1.73104e-08 6.24632e-09 3.73427e-08)
(2.63224e-08 5.87714e-09 3.98778e-08)
(3.59388e-08 5.52033e-09 4.36679e-08)
(4.65003e-08 5.2239e-09 4.90203e-08)
(5.82972e-08 5.04628e-09 5.63746e-08)
(7.15331e-08 5.06162e-09 6.63392e-08)
(8.62447e-08 5.35841e-09 7.97108e-08)
(1.02177e-07 6.04341e-09 9.74936e-08)
(1.18811e-07 7.08594e-09 1.21084e-07)
(0 1.34265e-08 3.66777e-08)
(8.13223e-09 1.32413e-08 3.71165e-08)
(1.64968e-08 1.27233e-08 3.84835e-08)
(2.52476e-08 1.20158e-08 4.08664e-08)
(3.45902e-08 1.12774e-08 4.44495e-08)
(4.47944e-08 1.0637e-08 4.95225e-08)
(5.61311e-08 1.02099e-08 5.64862e-08)
(6.87656e-08 1.01392e-08 6.5855e-08)
(8.26486e-08 1.05877e-08 7.82224e-08)
(9.73766e-08 1.17368e-08 9.41843e-08)
(1.12315e-07 1.35101e-08 1.14409e-07)
(0 2.05147e-08 3.89134e-08)
(7.56757e-09 2.02754e-08 3.92972e-08)
(1.53959e-08 1.95896e-08 4.05047e-08)
(2.36552e-08 1.85758e-08 4.26406e-08)
(3.25142e-08 1.74149e-08 4.58953e-08)
(4.21479e-08 1.63239e-08 5.05409e-08)
(5.27611e-08 1.5498e-08 5.69343e-08)
(6.44928e-08 1.51319e-08 6.54963e-08)
(7.72499e-08 1.54405e-08 7.66391e-08)
(9.05928e-08 1.66553e-08 9.06794e-08)
(1.04129e-07 1.86969e-08 1.07922e-07)
(0 2.82899e-08 4.23063e-08)
(6.97346e-09 2.79803e-08 4.26193e-08)
(1.42036e-08 2.70828e-08 4.3612e-08)
(2.1821e-08 2.5723e-08 4.54097e-08)
(2.99836e-08 2.40825e-08 4.82269e-08)
(3.88455e-08 2.24007e-08 5.23362e-08)
(4.85345e-08 2.09509e-08 5.80616e-08)
(5.914e-08 1.99946e-08 6.57591e-08)
(7.06e-08 1.9774e-08 7.57484e-08)
(8.25646e-08 2.05321e-08 8.82383e-08)
(9.51302e-08 2.22436e-08 1.03402e-07)
(0 3.70754e-08 4.71797e-08)
(6.4189e-09 3.66731e-08 4.7397e-08)
(1.30635e-08 3.54886e-08 4.81049e-08)
(2.00092e-08 3.36688e-08 4.94648e-08)
(2.73497e-08 3.14355e-08 5.17357e-08)
(3.52382e-08 2.90264e-08 5.52182e-08)
(4.38213e-08 2.67178e-08 6.02353e-08)
(5.31456e-08 2.48253e-08 6.70996e-08)
(6.31443e-08 2.36429e-08 7.60977e-08)
(7.36225e-08 2.33931e-08 8.74422e-08)
(8.52844e-08 2.41214e-08 1.01217e-07)
(0 4.71583e-08 5.39999e-08)
(5.97916e-09 4.66233e-08 5.4076e-08)
(1.21228e-08 4.50595e-08 5.43886e-08)
(1.8445e-08 4.26444e-08 5.51732e-08)
(2.49567e-08 3.96503e-08 5.6769e-08)
(3.17524e-08 3.6356e-08 5.95328e-08)
(3.90112e-08 3.30042e-08 6.38e-08)
(4.68601e-08 2.98685e-08 6.98735e-08)
(5.52194e-08 2.72974e-08 7.80166e-08)
(6.39488e-08 2.5536e-08 8.84521e-08)
(7.43376e-08 2.46657e-08 1.0115e-07)
(0 5.87547e-08 6.34193e-08)
(5.73422e-09 5.80301e-08 6.32713e-08)
(1.15499e-08 5.5952e-08 6.29824e-08)
(1.7366e-08 5.27845e-08 6.29576e-08)
(2.31105e-08 4.88623e-08 6.36907e-08)
(2.88056e-08 4.44996e-08 6.56209e-08)
(3.45956e-08 3.9934e-08 6.90861e-08)
(4.07048e-08 3.536e-08 7.43735e-08)
(4.71733e-08 3.10873e-08 8.1687e-08)
(5.38503e-08 2.74321e-08 9.12408e-08)
(6.23288e-08 2.44913e-08 1.02874e-07)
(0 7.19423e-08 7.63321e-08)
(5.7677e-09 7.09343e-08 7.57872e-08)
(1.15075e-08 6.8122e-08 7.44845e-08)
(1.70116e-08 6.39984e-08 7.32313e-08)
(2.21019e-08 5.90251e-08 7.28216e-08)
(2.67368e-08 5.34885e-08 7.37858e-08)
(3.10288e-08 4.75575e-08 7.64124e-08)
(3.52275e-08 4.13865e-08 8.08778e-08)
(3.95489e-08 3.52538e-08 8.72631e-08)
(4.39246e-08 2.9549e-08 9.57856e-08)
(4.98723e-08 2.4375e-08 1.06122e-07)
(0 8.65907e-08 9.39835e-08)
(6.16319e-09 8.5099e-08 9.26403e-08)
(1.21499e-08 8.1176e-08 8.94936e-08)
(1.76075e-08 7.58544e-08 8.63088e-08)
(2.2212e-08 6.9794e-08 8.43701e-08)
(2.58347e-08 6.31486e-08 8.42456e-08)
(2.85908e-08 5.58496e-08 8.60448e-08)
(3.08061e-08 4.79409e-08 8.96955e-08)
(3.28915e-08 3.97788e-08 9.50749e-08)
(3.50111e-08 3.2028e-08 1.02224e-07)
(3.82756e-08 2.50818e-08 1.10532e-07)
(0 1.02551e-07 1.18562e-07)
(6.83624e-09 1.00026e-07 1.15248e-07)
(1.33169e-08 9.44357e-08 1.08671e-07)
(1.89821e-08 8.78231e-08 1.02453e-07)
(2.33385e-08 8.10305e-08 9.84347e-08)
(2.61193e-08 7.38465e-08 9.69801e-08)
(2.73902e-08 6.57204e-08 9.78144e-08)
(2.75675e-08 5.634e-08 1.00519e-07)
(2.73571e-08 4.60001e-08 1.04705e-07)
(2.75994e-08 3.57888e-08 1.09907e-07)
(2.90093e-08 2.71268e-08 1.15794e-07)
(0 0 6.33329e-08)
(1.61136e-08 0 6.41174e-08)
(3.23386e-08 0 6.6505e-08)
(4.9053e-08 0 7.05894e-08)
(6.69734e-08 0 7.66249e-08)
(8.68311e-08 0 8.50418e-08)
(1.09339e-07 0 9.6467e-08)
(1.35194e-07 0 1.1178e-07)
(1.65045e-07 0 1.32192e-07)
(1.99521e-07 0 1.59424e-07)
(2.40004e-07 0 1.96628e-07)
(0 1.18706e-08 6.39706e-08)
(1.57735e-08 1.16624e-08 6.47373e-08)
(3.17847e-08 1.11085e-08 6.70677e-08)
(4.8362e-08 1.0441e-08 7.10654e-08)
(6.61161e-08 9.8e-09 7.69844e-08)
(8.57553e-08 9.27975e-09 8.52443e-08)
(1.07968e-07 8.99774e-09 9.64425e-08)
(1.33409e-07 9.10658e-09 1.11403e-07)
(1.62641e-07 9.79574e-09 1.31208e-07)
(1.9603e-07 1.13064e-08 1.5724e-07)
(2.34025e-07 1.36444e-08 1.9152e-07)
(0 2.39172e-08 6.594e-08)
(1.49088e-08 2.35859e-08 6.66447e-08)
(3.02535e-08 2.26458e-08 6.88014e-08)
(4.6336e-08 2.13641e-08 7.25373e-08)
(6.35742e-08 2.00348e-08 7.81031e-08)
(8.2544e-08 1.89058e-08 8.58929e-08)
(1.03892e-07 1.82089e-08 9.64471e-08)
(1.28183e-07 1.82397e-08 1.1045e-07)
(1.55766e-07 1.93489e-08 1.28679e-07)
(1.86596e-07 2.19538e-08 1.51907e-07)
(2.20583e-07 2.60169e-08 1.81075e-07)
(0 3.66008e-08 6.93685e-08)
(1.38442e-08 3.6172e-08 6.99792e-08)
(2.81774e-08 3.49224e-08 7.18616e-08)
(4.33329e-08 3.30799e-08 7.51736e-08)
(5.96623e-08 3.09843e-08 8.01793e-08)
(7.75645e-08 2.90492e-08 8.72491e-08)
(9.75562e-08 2.76621e-08 9.68588e-08)
(1.20133e-07 2.72287e-08 1.09555e-07)
(1.45508e-07 2.82189e-08 1.25845e-07)
(1.73459e-07 3.11744e-08 1.46083e-07)
(2.04135e-07 3.60783e-08 1.70688e-07)
(0 5.06074e-08 7.45335e-08)
(1.27221e-08 5.00512e-08 7.50234e-08)
(2.59264e-08 4.84106e-08 7.65389e-08)
(3.98747e-08 4.59315e-08 7.92741e-08)
(5.49003e-08 4.29608e-08 8.35357e-08)
(7.13629e-08 3.99603e-08 8.97005e-08)
(8.96307e-08 3.74697e-08 9.81986e-08)
(1.10089e-07 3.60321e-08 1.09481e-07)
(1.32973e-07 3.61895e-08 1.23922e-07)
(1.58156e-07 3.85344e-08 1.41716e-07)
(1.86572e-07 4.31595e-08 1.63112e-07)
(0 6.6606e-08 8.18843e-08)
(1.16765e-08 6.5881e-08 8.22138e-08)
(2.37791e-08 6.37082e-08 8.32491e-08)
(3.64696e-08 6.03794e-08 8.5246e-08)
(4.9964e-08 5.63215e-08 8.85852e-08)
(6.46223e-08 5.20031e-08 9.36939e-08)
(8.08448e-08 4.79801e-08 1.01008e-07)
(9.89258e-08 4.4909e-08 1.10919e-07)
(1.19068e-07 4.34498e-08 1.23755e-07)
(1.41395e-07 4.41886e-08 1.39724e-07)
(1.6788e-07 4.73369e-08 1.58972e-07)
(0 8.52754e-08 9.2066e-08)
(1.08565e-08 8.43047e-08 9.21645e-08)
(2.20277e-08 8.14202e-08 9.25462e-08)
(3.35643e-08 7.69811e-08 9.35879e-08)
(4.55322e-08 7.15183e-08 9.58013e-08)
(5.81843e-08 6.55874e-08 9.97078e-08)
(7.1983e-08 5.96965e-08 1.05772e-07)
(8.737e-08 5.44405e-08 1.14381e-07)
(1.04507e-07 5.06014e-08 1.25834e-07)
(1.23597e-07 4.88413e-08 1.40369e-07)
(1.47621e-07 4.94042e-08 1.5799e-07)
(0 1.07297e-07 1.05979e-07)
(1.04251e-08 1.05965e-07 1.0572e-07)
(2.10138e-08 1.02088e-07 1.05131e-07)
(3.16442e-08 9.6214e-08 1.04857e-07)
(4.22333e-08 8.9012e-08 1.05656e-07)
(5.29045e-08 8.11197e-08 1.08187e-07)
(6.40568e-08 7.30486e-08 1.1293e-07)
(7.63157e-08 6.52641e-08 1.2026e-07)
(9.00522e-08 5.84899e-08 1.30409e-07)
(1.05433e-07 5.35577e-08 1.43613e-07)
(1.25924e-07 5.0699e-08 1.59701e-07)
(0 1.3333e-07 1.24864e-07)
(1.05611e-08 1.31426e-07 1.23987e-07)
(2.10858e-08 1.2606e-07 1.21801e-07)
(3.12221e-08 1.18284e-07 1.19574e-07)
(4.06987e-08 1.09053e-07 1.18533e-07)
(4.95301e-08 9.89764e-08 1.19492e-07)
(5.80602e-08 8.84424e-08 1.22877e-07)
(6.69538e-08 7.78439e-08 1.28913e-07)
(7.68836e-08 6.78416e-08 1.37671e-07)
(8.81538e-08 5.9441e-08 1.49408e-07)
(1.03988e-07 5.28397e-08 1.6372e-07)
(0 1.64046e-07 1.5049e-07)
(1.14588e-08 1.61087e-07 1.4839e-07)
(2.26035e-08 1.53301e-07 1.4335e-07)
(3.28212e-08 1.42966e-07 1.38103e-07)
(4.15847e-08 1.31507e-07 1.34637e-07)
(4.87647e-08 1.19303e-07 1.33849e-07)
(5.47227e-08 1.06291e-07 1.35918e-07)
(6.02504e-08 9.26265e-08 1.40724e-07)
(6.63292e-08 7.90705e-08 1.48057e-07)
(7.35663e-08 6.70694e-08 1.57929e-07)
(8.41727e-08 5.72466e-08 1.69517e-07)
(0 2.00883e-07 1.86076e-07)
(1.30211e-08 1.95441e-07 1.81011e-07)
(2.53688e-08 1.83622e-07 1.70733e-07)
(3.62424e-08 1.70118e-07 1.6081e-07)
(4.48226e-08 1.56817e-07 1.54103e-07)
(5.07472e-08 1.43378e-07 1.5123e-07)
(5.43023e-08 1.28786e-07 1.51819e-07)
(5.64463e-08 1.12476e-07 1.55263e-07)
(5.86513e-08 9.50002e-08 1.60982e-07)
(6.24659e-08 7.8262e-08 1.68278e-07)
(6.90735e-08 6.47331e-08 1.76622e-07)
(0 0 8.14383e-08)
(2.08859e-08 0 8.22487e-08)
(4.18928e-08 0 8.46854e-08)
(6.34999e-08 0 8.87965e-08)
(8.66484e-08 0 9.47506e-08)
(1.12335e-07 0 1.02842e-07)
(1.41592e-07 0 1.13488e-07)
(1.75531e-07 0 1.27251e-07)
(2.15357e-07 0 1.44878e-07)
(2.62492e-07 0 1.67403e-07)
(3.19764e-07 0 1.96859e-07)
(0 1.44567e-08 8.20507e-08)
(2.04273e-08 1.41938e-08 8.28396e-08)
(4.11409e-08 1.34895e-08 8.52094e-08)
(6.25568e-08 1.26352e-08 8.92195e-08)
(8.54792e-08 1.18119e-08 9.50387e-08)
(1.10876e-07 1.11488e-08 1.02953e-07)
(1.39748e-07 1.08092e-08 1.13354e-07)
(1.73152e-07 1.10079e-08 1.26757e-07)
(2.12175e-07 1.20166e-08 1.43799e-07)
(2.57875e-07 1.41897e-08 1.65239e-07)
(3.11736e-07 1.76053e-08 1.92234e-07)
(0 2.9137e-08 8.39213e-08)
(1.92513e-08 2.87144e-08 8.46378e-08)
(3.90489e-08 2.75083e-08 8.68049e-08)
(5.97775e-08 2.58595e-08 9.05103e-08)
(8.19933e-08 2.41464e-08 9.59235e-08)
(1.06494e-07 2.26992e-08 1.03309e-07)
(1.34226e-07 2.18397e-08 1.13012e-07)
(1.66126e-07 2.19829e-08 1.25427e-07)
(2.02986e-07 2.36332e-08 1.40937e-07)
(2.45281e-07 2.74077e-08 1.59799e-07)
(2.93683e-07 3.3386e-08 1.82368e-07)
(0 4.46235e-08 8.71437e-08)
(1.77877e-08 4.40714e-08 8.77505e-08)
(3.61926e-08 4.24534e-08 8.95984e-08)
(5.56441e-08 4.00667e-08 9.28119e-08)
(7.66163e-08 3.73533e-08 9.75815e-08)
(9.96788e-08 3.48581e-08 1.04156e-07)
(1.2561e-07 3.31091e-08 1.12825e-07)
(1.55247e-07 3.26774e-08 1.23869e-07)
(1.89186e-07 3.4241e-08 1.37447e-07)
(2.27619e-07 3.86027e-08 1.53477e-07)
(2.71458e-07 4.59215e-08 1.71984e-07)
(0 6.17974e-08 9.19208e-08)
(1.62293e-08 6.1078e-08 9.23872e-08)
(3.30678e-08 5.89428e-08 9.38124e-08)
(5.08549e-08 5.57145e-08 9.63632e-08)
(7.00448e-08 5.18498e-08 1.00281e-07)
(9.116e-08 4.79615e-08 1.05831e-07)
(1.14784e-07 4.47769e-08 1.1327e-07)
(1.41602e-07 4.30515e-08 1.22799e-07)
(1.72212e-07 4.35726e-08 1.34469e-07)
(2.06879e-07 4.72269e-08 1.48083e-07)
(2.47495e-07 5.4362e-08 1.63628e-07)
(0 8.15592e-08 9.85772e-08)
(1.47605e-08 8.06199e-08 9.88617e-08)
(3.00562e-08 7.77871e-08 9.97458e-08)
(4.60983e-08 7.34432e-08 1.01464e-07)
(6.31921e-08 6.81476e-08 1.04337e-07)
(8.18628e-08 6.25287e-08 1.08694e-07)
(1.02736e-07 5.73429e-08 1.14806e-07)
(1.26368e-07 5.34977e-08 1.22832e-07)
(1.53288e-07 5.19406e-08 1.32785e-07)
(1.84039e-07 5.35659e-08 1.44499e-07)
(2.21838e-07 5.89097e-08 1.57969e-07)
(0 1.04888e-07 1.07562e-07)
(1.35879e-08 1.0363e-07 1.07596e-07)
(2.75628e-08 9.98672e-08 1.07769e-07)
(4.19923e-08 9.40688e-08 1.08438e-07)
(5.69893e-08 8.69286e-08 1.10064e-07)
(7.29417e-08 7.91899e-08 1.13075e-07)
(9.05564e-08 7.15575e-08 1.17784e-07)
(1.10576e-07 6.48725e-08 1.24358e-07)
(1.33452e-07 6.02453e-08 1.32794e-07)
(1.59787e-07 5.86793e-08 1.42958e-07)
(1.94075e-07 6.07633e-08 1.54807e-07)
(0 1.32872e-07 1.19474e-07)
(1.29401e-08 1.31143e-07 1.19141e-07)
(2.6065e-08 1.26076e-07 1.18309e-07)
(3.92183e-08 1.1839e-07 1.17594e-07)
(5.23214e-08 1.0896e-07 1.177e-07)
(6.55965e-08 9.86404e-08 1.19201e-07)
(7.96682e-08 8.81478e-08 1.22444e-07)
(9.5516e-08 7.81708e-08 1.27594e-07)
(1.13849e-07 6.97577e-08 1.34611e-07)
(1.35189e-07 6.41428e-08 1.43369e-07)
(1.64589e-07 6.18683e-08 1.5372e-07)
(0 1.66743e-07 1.35111e-07)
(1.30716e-08 1.64255e-07 1.34179e-07)
(2.60605e-08 1.57202e-07 1.31786e-07)
(3.85099e-08 1.46975e-07 1.29117e-07)
(5.00988e-08 1.3484e-07 1.2732e-07)
(6.09122e-08 1.21623e-07 1.27138e-07)
(7.15074e-08 1.07889e-07 1.28893e-07)
(8.29117e-08 9.42415e-08 1.32641e-07)
(9.62161e-08 8.16587e-08 1.38241e-07)
(1.12092e-07 7.16149e-08 1.45577e-07)
(1.35162e-07 6.45408e-08 1.54334e-07)
(0 2.08017e-07 1.55592e-07)
(1.42663e-08 2.04094e-07 1.53543e-07)
(2.80779e-08 1.93726e-07 1.48505e-07)
(4.06342e-08 1.79988e-07 1.42955e-07)
(5.12858e-08 1.64791e-07 1.38752e-07)
(5.99404e-08 1.4868e-07 1.36745e-07)
(6.71884e-08 1.31644e-07 1.3707e-07)
(7.42247e-08 1.13982e-07 1.39519e-07)
(8.25244e-08 9.67916e-08 1.43756e-07)
(9.30876e-08 8.20931e-08 1.49535e-07)
(1.09009e-07 7.07539e-08 1.56261e-07)
(0 2.59674e-07 1.83062e-07)
(1.64562e-08 2.52254e-07 1.78496e-07)
(3.19675e-08 2.36184e-07 1.6886e-07)
(4.5485e-08 2.17897e-07 1.59091e-07)
(5.59838e-08 1.99954e-07 1.51855e-07)
(6.3075e-08 1.81968e-07 1.47809e-07)
(6.72566e-08 1.62687e-07 1.46645e-07)
(6.99447e-08 1.41464e-07 1.4777e-07)
(7.32405e-08 1.19097e-07 1.50603e-07)
(7.92659e-08 9.80766e-08 1.5455e-07)
(8.95601e-08 8.15791e-08 1.59196e-07)
(0 0 8.94353e-08)
(2.25715e-08 0 9.00732e-08)
(4.518e-08 0 9.19643e-08)
(6.82577e-08 0 9.50805e-08)
(9.27409e-08 0 9.94364e-08)
(1.19623e-07 0 1.05078e-07)
(1.49923e-07 0 1.12056e-07)
(1.84718e-07 0 1.20403e-07)
(2.25133e-07 0 1.30112e-07)
(2.72401e-07 0 1.4114e-07)
(3.28903e-07 0 1.53675e-07)
(0 1.39164e-08 8.98435e-08)
(2.20393e-08 1.36415e-08 9.04604e-08)
(4.42973e-08 1.29011e-08 9.22888e-08)
(6.71396e-08 1.19875e-08 9.53105e-08)
(9.13565e-08 1.10892e-08 9.95415e-08)
(1.17914e-07 1.03498e-08 1.05024e-07)
(1.47805e-07 9.95122e-09 1.11794e-07)
(1.82065e-07 1.01326e-08 1.19858e-07)
(2.21725e-07 1.11991e-08 1.2915e-07)
(2.67717e-07 1.35503e-08 1.39493e-07)
(3.21242e-07 1.73359e-08 1.5073e-07)
(0 2.80177e-08 9.10755e-08)
(2.06622e-08 2.75668e-08 9.16244e-08)
(4.18299e-08 2.62778e-08 9.32632e-08)
(6.38413e-08 2.44987e-08 9.60018e-08)
(8.7225e-08 2.26215e-08 9.98614e-08)
(1.12772e-07 2.09996e-08 1.04875e-07)
(1.41439e-07 1.99895e-08 1.11052e-07)
(1.74163e-07 2.0051e-08 1.18336e-07)
(2.11739e-07 2.17495e-08 1.26527e-07)
(2.54636e-07 2.57811e-08 1.35204e-07)
(3.03538e-07 3.23759e-08 1.4394e-07)
(0 4.28429e-08 9.31553e-08)
(1.8916e-08 4.22439e-08 9.36013e-08)
(3.8419e-08 4.04871e-08 9.4943e-08)
(5.8903e-08 3.78826e-08 9.72262e-08)
(8.08177e-08 3.48918e-08 1.00499e-07)
(1.04722e-07 3.20877e-08 1.0479e-07)
(1.31408e-07 3.00404e-08 1.10085e-07)
(1.61748e-07 2.93804e-08 1.16264e-07)
(1.96388e-07 3.08634e-08 1.23019e-07)
(2.35599e-07 3.53878e-08 1.29771e-07)
(2.80557e-07 4.33693e-08 1.36083e-07)
(0 5.92297e-08 9.61403e-08)
(1.70198e-08 5.84441e-08 9.64553e-08)
(3.4619e-08 5.61117e-08 9.74093e-08)
(5.31015e-08 5.25661e-08 9.90876e-08)
(7.29045e-08 4.82843e-08 1.01588e-07)
(9.45495e-08 4.39114e-08 1.0497e-07)
(1.18635e-07 4.02175e-08 1.09205e-07)
(1.45889e-07 3.80186e-08 1.14134e-07)
(1.7699e-07 3.81862e-08 1.19406e-07)
(2.12314e-07 4.1704e-08 1.24411e-07)
(2.54225e-07 4.93101e-08 1.28848e-07)
(0 7.80432e-08 1.00116e-07)
(1.51836e-08 7.70202e-08 1.00267e-07)
(3.08626e-08 7.39347e-08 1.00739e-07)
(4.72066e-08 6.9172e-08 1.01677e-07)
(6.44996e-08 6.33031e-08 1.0325e-07)
(8.32748e-08 5.69848e-08 1.05577e-07)
(1.04186e-07 5.10167e-08 1.0866e-07)
(1.27832e-07 4.63632e-08 1.12327e-07)
(1.5481e-07 4.40443e-08 1.16212e-07)
(1.85771e-07 4.50436e-08 1.19751e-07)
(2.24606e-07 5.04345e-08 1.22793e-07)
(0 1.00232e-07 1.05172e-07)
(1.3642e-08 9.88793e-08 1.0511e-07)
(2.76089e-08 9.48202e-08 1.04979e-07)
(4.19152e-08 8.85117e-08 1.05021e-07)
(5.66426e-08 8.06407e-08 1.0552e-07)
(7.21823e-08 7.19644e-08 1.06681e-07)
(8.92803e-08 6.3226e-08 1.08555e-07)
(1.08738e-07 5.53247e-08 1.10993e-07)
(1.31052e-07 4.94299e-08 1.13626e-07)
(1.56899e-07 4.66185e-08 1.15928e-07)
(1.91613e-07 4.81354e-08 1.17848e-07)
(0 1.26855e-07 1.11387e-07)
(1.26517e-08 1.25031e-07 1.11035e-07)
(2.53935e-08 1.19654e-07 1.10111e-07)
(3.79949e-08 1.11396e-07 1.09041e-07)
(5.03317e-08 1.01095e-07 1.08293e-07)
(6.26209e-08 8.9598e-08 1.08193e-07)
(7.55272e-08 7.76504e-08 1.08834e-07)
(9.01033e-08 6.59988e-08 1.10082e-07)
(1.0713e-07 5.57684e-08 1.1158e-07)
(1.27165e-07 4.82531e-08 1.12807e-07)
(1.56138e-07 4.46749e-08 1.13723e-07)
(0 1.59097e-07 1.18811e-07)
(1.2495e-08 1.56541e-07 1.18033e-07)
(2.47725e-08 1.49224e-07 1.15988e-07)
(3.62697e-08 1.38426e-07 1.1347e-07)
(4.65965e-08 1.2532e-07 1.11255e-07)
(5.58219e-08 1.10697e-07 1.0981e-07)
(6.45496e-08 9.51505e-08 1.09244e-07)
(7.39052e-08 7.93597e-08 1.09381e-07)
(8.5117e-08 6.44286e-08 1.09855e-07)
(9.88804e-08 5.18893e-08 1.10141e-07)
(1.20589e-07 4.27788e-08 1.10143e-07)
(0 1.98386e-07 1.27496e-07)
(1.34801e-08 1.9448e-07 1.26006e-07)
(2.63263e-08 1.84016e-07 1.22243e-07)
(3.75877e-08 1.69813e-07 1.1777e-07)
(4.65087e-08 1.53601e-07 1.13831e-07)
(5.29624e-08 1.35869e-07 1.11004e-07)
(5.76015e-08 1.1665e-07 1.0932e-07)
(6.17814e-08 9.63697e-08 1.08491e-07)
(6.72123e-08 7.63326e-08 1.08099e-07)
(7.50275e-08 5.87174e-08 1.07647e-07)
(8.89408e-08 4.49273e-08 1.06993e-07)
(0 2.4745e-07 1.37744e-07)
(1.55735e-08 2.40303e-07 1.34912e-07)
(2.99997e-08 2.24575e-07 1.28494e-07)
(4.20324e-08 2.06143e-07 1.21458e-07)
(5.04871e-08 1.87295e-07 1.15585e-07)
(5.4896e-08 1.67591e-07 1.11402e-07)
(5.58052e-08 1.45843e-07 1.08713e-07)
(5.48342e-08 1.2157e-07 1.07054e-07)
(5.44469e-08 9.58611e-08 1.05952e-07)
(5.72652e-08 7.16629e-08 1.05075e-07)
(6.5239e-08 5.25895e-08 1.04254e-07)
(0 0 9.00613e-08)
(2.15275e-08 0 9.04779e-08)
(4.29171e-08 0 9.16915e-08)
(6.44106e-08 0 9.36224e-08)
(8.67202e-08 0 9.61763e-08)
(1.10573e-07 0 9.92287e-08)
(1.36653e-07 0 1.02593e-07)
(1.65583e-07 0 1.05995e-07)
(1.97851e-07 0 1.09043e-07)
(2.33743e-07 0 1.11229e-07)
(2.73882e-07 0 1.11979e-07)
(0 1.06395e-08 9.02357e-08)
(2.09663e-08 1.03947e-08 9.06349e-08)
(4.19722e-08 9.73228e-09 9.17986e-08)
(6.31997e-08 8.89148e-09 9.36549e-08)
(8.52245e-08 8.03681e-09 9.6111e-08)
(1.08755e-07 7.3039e-09 9.90417e-08)
(1.34467e-07 6.86587e-09 1.02256e-07)
(1.62971e-07 6.94928e-09 1.05466e-07)
(1.94734e-07 7.84608e-09 1.08258e-07)
(2.29931e-07 9.93997e-09 1.10076e-07)
(2.68613e-07 1.34535e-08 1.10323e-07)
(0 2.13417e-08 9.07524e-08)
(1.94995e-08 2.09272e-08 9.10971e-08)
(3.93219e-08 1.97438e-08 9.21106e-08)
(5.96328e-08 1.80849e-08 9.37447e-08)
(8.07699e-08 1.6288e-08 9.59146e-08)
(1.03295e-07 1.46709e-08 9.84935e-08)
(1.27881e-07 1.35687e-08 1.01282e-07)
(1.55122e-07 1.34139e-08 1.03968e-07)
(1.85415e-07 1.47448e-08 1.06088e-07)
(2.18817e-07 1.82308e-08 1.06997e-07)
(2.55539e-07 2.42828e-08 1.06106e-07)
(0 3.24461e-08 9.15861e-08)
(1.75953e-08 3.18811e-08 9.18487e-08)
(3.55999e-08 3.02309e-08 9.26278e-08)
(5.42459e-08 2.77627e-08 9.39063e-08)
(7.38123e-08 2.48775e-08 9.56274e-08)
(9.46656e-08 2.2076e-08 9.76712e-08)
(1.17364e-07 1.98739e-08 9.98305e-08)
(1.42516e-07 1.88583e-08 1.01773e-07)
(1.70516e-07 1.9743e-08 1.02999e-07)
(2.0146e-07 2.33801e-08 1.02819e-07)
(2.36439e-07 3.0509e-08 1.00765e-07)
(0 4.452e-08 9.26901e-08)
(1.54745e-08 4.37733e-08 9.28491e-08)
(3.13553e-08 4.15664e-08 9.33279e-08)
(4.78019e-08 3.81799e-08 9.41432e-08)
(6.50973e-08 3.40246e-08 9.52831e-08)
(8.35976e-08 2.96615e-08 9.66618e-08)
(1.03715e-07 2.57645e-08 9.80766e-08)
(1.2597e-07 2.30664e-08 9.91841e-08)
(1.50866e-07 2.23793e-08 9.94816e-08)
(1.78685e-07 2.46239e-08 9.82946e-08)
(2.11882e-07 3.10317e-08 9.53349e-08)
(0 5.81353e-08 9.39831e-08)
(1.33489e-08 5.71696e-08 9.40162e-08)
(2.70211e-08 5.42726e-08 9.41342e-08)
(4.10573e-08 4.97495e-08 9.44009e-08)
(5.56112e-08 4.40668e-08 9.48632e-08)
(7.10666e-08 3.77823e-08 9.54896e-08)
(8.79115e-08 3.15879e-08 9.61149e-08)
(1.06579e-07 2.63257e-08 9.64026e-08)
(1.27515e-07 2.29028e-08 9.58517e-08)
(1.51255e-07 2.22268e-08 9.38399e-08)
(1.81884e-07 2.60654e-08 9.02573e-08)
(0 7.38903e-08 9.5321e-08)
(1.14518e-08 7.2645e-08 9.5201e-08)
(2.30525e-08 6.89121e-08 9.48893e-08)
(3.46988e-08 6.30214e-08 9.45232e-08)
(4.63651e-08 5.54949e-08 9.42361e-08)
(5.83161e-08 4.69372e-08 9.40666e-08)
(7.11409e-08 3.79787e-08 9.38986e-08)
(8.54785e-08 2.94052e-08 9.343e-08)
(1.01683e-07 2.22202e-08 9.217e-08)
(1.20293e-07 1.73819e-08 8.95354e-08)
(1.46889e-07 1.70251e-08 8.55536e-08)
(0 9.23972e-08 9.64715e-08)
(1.00328e-08 9.07885e-08 9.61589e-08)
(1.99709e-08 8.60188e-08 9.53239e-08)
(2.94781e-08 7.85248e-08 9.42228e-08)
(3.83387e-08 6.88812e-08 9.3119e-08)
(4.66657e-08 5.77139e-08 9.21451e-08)
(5.49915e-08 4.56306e-08 9.12297e-08)
(6.41971e-08 3.32876e-08 9.00947e-08)
(7.49371e-08 2.16853e-08 8.82913e-08)
(8.76288e-08 1.19392e-08 8.52492e-08)
(1.0845e-07 6.23869e-09 8.10504e-08)
(0 1.14252e-07 9.70942e-08)
(9.35906e-09 1.12134e-07 9.65255e-08)
(1.83091e-08 1.0599e-07 9.50222e-08)
(2.61937e-08 9.65991e-08 9.30485e-08)
(3.25418e-08 8.46794e-08 9.10603e-08)
(3.73294e-08 7.07476e-08 8.93003e-08)
(4.10588e-08 5.52754e-08 8.77351e-08)
(4.47292e-08 3.88904e-08 8.60896e-08)
(4.94952e-08 2.26648e-08 8.39518e-08)
(5.59022e-08 7.91101e-09 8.07419e-08)
(6.95749e-08 -3.42012e-09 7.65466e-08)
(0 1.40049e-07 9.6747e-08)
(9.70761e-09 1.37077e-07 9.58063e-08)
(1.86031e-08 1.28918e-07 9.33938e-08)
(2.56435e-08 1.17249e-07 9.03567e-08)
(2.9996e-08 1.03041e-07 8.74297e-08)
(3.14463e-08 8.64987e-08 8.49552e-08)
(3.05674e-08 6.76565e-08 8.28938e-08)
(2.86681e-08 4.7028e-08 8.09505e-08)
(2.74889e-08 2.59931e-08 7.87231e-08)
(2.81613e-08 6.57574e-09 7.57001e-08)
(3.47801e-08 -9.06933e-09 7.20197e-08)
(0 1.70977e-07 9.49231e-08)
(1.10913e-08 1.66081e-07 9.348e-08)
(2.09412e-08 1.54875e-07 8.98695e-08)
(2.81913e-08 1.40842e-07 8.56241e-08)
(3.15664e-08 1.25172e-07 8.18035e-08)
(3.0497e-08 1.07305e-07 7.87815e-08)
(2.54501e-08 8.63231e-08 7.64484e-08)
(1.80334e-08 6.20779e-08 7.44612e-08)
(1.08301e-08 3.59325e-08 7.24387e-08)
(6.84133e-09 1.10681e-08 7.01583e-08)
(8.40747e-09 -8.8071e-09 6.75171e-08)
(0 0 8.65449e-08)
(1.88757e-08 0 8.6807e-08)
(3.7407e-08 0 8.75598e-08)
(5.55843e-08 0 8.87199e-08)
(7.37947e-08 0 9.01772e-08)
(9.23899e-08 0 9.17864e-08)
(1.11598e-07 0 9.3352e-08)
(1.31467e-07 0 9.46232e-08)
(1.51739e-07 0 9.5304e-08)
(1.717e-07 0 9.50989e-08)
(1.90187e-07 0 9.38056e-08)
(0 5.79053e-09 8.65696e-08)
(1.83231e-08 5.61152e-09 8.68189e-08)
(3.64627e-08 5.12474e-09 8.75365e-08)
(5.43617e-08 4.48258e-09 8.86446e-08)
(7.22917e-08 3.80355e-09 9.00338e-08)
(9.05964e-08 3.19948e-09 9.15591e-08)
(1.09515e-07 2.81524e-09 9.30216e-08)
(1.29119e-07 2.84103e-09 9.41602e-08)
(1.49211e-07 3.52712e-09 9.46595e-08)
(1.69166e-07 5.20718e-09 9.41801e-08)
(1.87936e-07 8.16621e-09 9.24995e-08)
(0 1.14946e-08 8.66387e-08)
(1.68649e-08 1.1176e-08 8.68489e-08)
(3.38076e-08 1.02712e-08 8.74603e-08)
(5.07697e-08 8.97781e-09 8.84138e-08)
(6.7829e-08 7.53337e-09 8.96072e-08)
(8.5224e-08 6.18026e-09 9.08944e-08)
(1.03234e-07 5.194e-09 9.20714e-08)
(1.22001e-07 4.93351e-09 9.28568e-08)
(1.4144e-07 5.85697e-09 9.2892e-08)
(1.61182e-07 8.54663e-09 9.17531e-08)
(1.80991e-07 1.35773e-08 8.91732e-08)
(0 1.71841e-08 8.67228e-08)
(1.49262e-08 1.67334e-08 8.68745e-08)
(3.00199e-08 1.54271e-08 8.73209e-08)
(4.52983e-08 1.34533e-08 8.80284e-08)
(6.08091e-08 1.10989e-08 8.89194e-08)
(7.66525e-08 8.72682e-09 8.98548e-08)
(9.30586e-08 6.73584e-09 9.06245e-08)
(1.10268e-07 5.60527e-09 9.0932e-08)
(1.28356e-07 5.93469e-09 9.03862e-08)
(1.47229e-07 8.45265e-09 8.85088e-08)
(1.67836e-07 1.41865e-08 8.50748e-08)
(0 2.30536e-08 8.6761e-08)
(1.27131e-08 2.24502e-08 8.68396e-08)
(2.56011e-08 2.06819e-08 8.70784e-08)
(3.86368e-08 1.7937e-08 8.74721e-08)
(5.1893e-08 1.4504e-08 8.79814e-08)
(6.54924e-08 1.07854e-08 8.84981e-08)
(7.95832e-08 7.27275e-09 8.88171e-08)
(9.43952e-08 4.52939e-09 8.86326e-08)
(1.10181e-07 3.22423e-09 8.75475e-08)
(1.27104e-07 4.1305e-09 8.50837e-08)
(1.4753e-07 8.90514e-09 8.11042e-08)
(0 2.92742e-08 8.66527e-08)
(1.04222e-08 2.85001e-08 8.66442e-08)
(2.09491e-08 2.62006e-08 8.66399e-08)
(3.14667e-08 2.25553e-08 8.66738e-08)
(4.1958e-08 1.78593e-08 8.67561e-08)
(5.25928e-08 1.24938e-08 8.68263e-08)
(6.36148e-08 6.95172e-09 8.67122e-08)
(7.52213e-08 1.8478e-09 8.61153e-08)
(8.76426e-08 -2.12448e-09 8.46377e-08)
(1.01261e-07 -4.21496e-09 8.18367e-08)
(1.2002e-07 -2.06542e-09 7.76623e-08)
(0 3.59766e-08 8.62439e-08)
(8.26617e-09 3.50138e-08 8.61324e-08)
(1.64785e-08 3.21382e-08 8.58449e-08)
(2.44083e-08 2.75007e-08 8.54775e-08)
(3.19039e-08 2.1377e-08 8.5113e-08)
(3.90548e-08 1.41273e-08 8.47495e-08)
(4.62115e-08 6.18093e-09 8.42594e-08)
(5.37669e-08 -1.88922e-09 8.33747e-08)
(6.18863e-08 -9.36531e-09 8.17046e-08)
(7.09377e-08 -1.54954e-08 7.88388e-08)
(8.6279e-08 -1.73787e-08 7.47857e-08)
(0 4.32039e-08 8.53223e-08)
(6.46626e-09 4.20415e-08 8.50828e-08)
(1.26522e-08 3.85733e-08 8.4456e-08)
(1.81357e-08 3.29277e-08 8.36352e-08)
(2.26135e-08 2.53196e-08 8.2812e-08)
(2.60643e-08 1.60475e-08 8.20627e-08)
(2.88184e-08 5.48392e-09 8.12986e-08)
(3.14852e-08 -5.8921e-09 8.02736e-08)
(3.4529e-08 -1.73216e-08 7.86301e-08)
(3.8217e-08 -2.79745e-08 7.59685e-08)
(4.84504e-08 -3.48185e-08 7.23083e-08)
(0 5.08449e-08 8.36292e-08)
(5.25091e-09 4.94798e-08 8.3218e-08)
(9.93499e-09 4.54322e-08 8.21585e-08)
(1.33574e-08 3.88544e-08 8.08079e-08)
(1.49987e-08 2.9884e-08 7.95142e-08)
(1.47292e-08 1.86536e-08 7.84492e-08)
(1.28878e-08 5.41678e-09 7.75578e-08)
(1.02449e-08 -9.34362e-09 7.65926e-08)
(7.7816e-09 -2.47098e-08 7.52137e-08)
(5.8795e-09 -3.9714e-08 7.30038e-08)
(9.92276e-09 -5.15992e-08 6.99801e-08)
(0 5.85781e-08 8.0907e-08)
(4.84102e-09 5.69882e-08 8.02395e-08)
(8.77271e-09 5.23932e-08 7.85729e-08)
(1.07577e-08 4.50836e-08 7.65666e-08)
(9.9563e-09 3.50909e-08 7.47963e-08)
(6.07444e-09 2.22442e-08 7.3524e-08)
(-4.57648e-10 6.51569e-09 7.26967e-08)
(-8.50142e-09 -1.15872e-08 7.20391e-08)
(-1.64349e-08 -3.07768e-08 7.1179e-08)
(-2.31959e-08 -4.93939e-08 6.96913e-08)
(-2.46426e-08 -6.46932e-08 6.76122e-08)
(0 6.59638e-08 7.69585e-08)
(5.29982e-09 6.40445e-08 7.59531e-08)
(9.40477e-09 5.90777e-08 7.34308e-08)
(1.09762e-08 5.1721e-08 7.06279e-08)
(8.76041e-09 4.18429e-08 6.83956e-08)
(2.12852e-09 2.87341e-08 6.70402e-08)
(-8.58085e-09 1.17712e-08 6.64686e-08)
(-2.192e-08 -8.90132e-09 6.63639e-08)
(-3.54177e-08 -3.1832e-08 6.63178e-08)
(-4.596e-08 -5.39813e-08 6.59706e-08)
(-5.10182e-08 -7.19464e-08 6.50591e-08)
(0 0 8.10221e-08)
(1.60306e-08 0 8.12242e-08)
(3.15563e-08 0 8.18091e-08)
(4.63602e-08 0 8.27232e-08)
(6.05515e-08 0 8.39059e-08)
(7.41721e-08 0 8.52901e-08)
(8.70975e-08 0 8.68051e-08)
(9.89601e-08 0 8.83945e-08)
(1.09015e-07 0 9.00552e-08)
(1.15951e-07 0 9.19187e-08)
(1.17559e-07 0 9.44472e-08)
(0 8.26005e-10 8.10061e-08)
(1.55124e-08 7.3702e-10 8.11993e-08)
(3.06622e-08 4.94168e-10 8.17606e-08)
(4.51971e-08 1.54001e-10 8.26402e-08)
(5.91325e-08 -2.19201e-10 8.37771e-08)
(7.25115e-08 -5.45609e-10 8.51033e-08)
(8.52351e-08 -7.17828e-10 8.65417e-08)
(9.69834e-08 -5.91796e-10 8.80204e-08)
(1.07125e-07 3.00084e-11 8.95028e-08)
(1.14581e-07 1.41934e-09 9.10407e-08)
(1.17724e-07 3.88612e-09 9.29333e-08)
(0 1.46175e-09 8.09632e-08)
(1.4135e-08 1.28602e-09 8.11293e-08)
(2.81437e-08 7.94029e-10 8.16182e-08)
(4.17863e-08 7.43382e-11 8.23946e-08)
(5.49288e-08 -7.5116e-10 8.34011e-08)
(6.75461e-08 -1.53131e-09 8.45649e-08)
(7.96081e-08 -2.06705e-09 8.57964e-08)
(9.09262e-08 -2.09168e-09 8.69881e-08)
(1.01106e-07 -1.24883e-09 8.80272e-08)
(1.09563e-07 9.33064e-10 8.88103e-08)
(1.15874e-07 5.10124e-09 8.94216e-08)
(0 1.75539e-09 8.08919e-08)
(1.22701e-08 1.48715e-09 8.10177e-08)
(2.45079e-08 7.22237e-10 8.1394e-08)
(3.65571e-08 -4.43437e-10 8.20062e-08)
(4.82788e-08 -1.85631e-09 8.28159e-08)
(5.95609e-08 -3.3131e-09 8.37506e-08)
(7.03737e-08 -4.55413e-09 8.47055e-08)
(8.06832e-08 -5.23313e-09 8.55399e-08)
(9.03525e-08 -4.89457e-09 8.60736e-08)
(9.92168e-08 -2.96497e-09 8.60883e-08)
(1.08134e-07 1.70186e-09 8.55654e-08)
(0 1.57762e-09 8.07804e-08)
(1.01009e-08 1.20629e-09 8.08561e-08)
(2.01924e-08 1.34698e-10 8.10918e-08)
(3.0104e-08 -1.55133e-09 8.1497e-08)
(3.97405e-08 -3.70175e-09 8.20653e-08)
(4.90367e-08 -6.09628e-09 8.27466e-08)
(5.79328e-08 -8.45141e-09 8.34312e-08)
(6.64339e-08 -1.04005e-08 8.39537e-08)
(7.46128e-08 -1.14528e-08 8.41009e-08)
(8.25759e-08 -1.10179e-08 8.36127e-08)
(9.24941e-08 -7.28411e-09 8.2433e-08)
(0 7.68496e-10 8.06074e-08)
(7.80058e-09 2.92596e-10 8.06226e-08)
(1.55451e-08 -1.09862e-09 8.06921e-08)
(2.30123e-08 -3.35217e-09 8.0862e-08)