/*--------------------------------*- C++ -*----------------------------------*\
| =========                 |                                                 |
| \\      /  F ield         | foam-extend: Open Source CFD                    |
|  \\    /   O peration     | Version:     3.1                                |
|   \\  /    A nd           | Web:         http://www.extend-project.de       |
|    \\/     M anipulation  |                                                 |
\*---------------------------------------------------------------------------*/
FoamFile
{
    version     2.0;
    format      ascii;
    class       surfaceVectorField;
    location    "0.0007";
    object      Sf;
}
// * * * * * * * * * * * * * * * * * * * * * * * * * * * * * * * * * * * * * //

dimensions      [0 2 0 0 0 0 0];

internalField   nonuniform List<vector> 
45800
(
(2.10191e-07 3.66908e-09 -4.24517e-10)
(3.66878e-09 2.1019e-07 -4.25492e-10)
(-5.73108e-12 -5.70699e-12 1.15403e-07)
(2.06532e-07 7.33547e-09 -8.2624e-10)
(3.67639e-09 2.10196e-07 -4.23698e-10)
(-1.68669e-11 -6.054e-12 1.13378e-07)
(2.02882e-07 1.10008e-08 -1.20288e-09)
(3.67783e-09 2.10209e-07 -4.17238e-10)
(-2.81231e-11 -6.7779e-12 1.11346e-07)
(1.99245e-07 1.46681e-08 -1.56027e-09)
(3.67706e-09 2.1024e-07 -4.10851e-10)
(-4.03671e-11 -8.0018e-12 1.0932e-07)
(1.95624e-07 1.83385e-08 -1.90457e-09)
(3.67629e-09 2.1029e-07 -4.06082e-10)
(-5.44952e-11 -9.88058e-12 1.07301e-07)
(1.92019e-07 2.20135e-08 -2.24034e-09)
(3.6755e-09 2.10363e-07 -4.03338e-10)
(-7.136e-11 -1.26007e-11 1.05289e-07)
(1.88437e-07 2.56946e-08 -2.57059e-09)
(3.67448e-09 2.1046e-07 -4.03192e-10)
(-9.18675e-11 -1.64282e-11 1.03283e-07)
(1.8488e-07 2.93841e-08 -2.89616e-09)
(3.67319e-09 2.10586e-07 -4.06404e-10)
(-1.16764e-10 -2.16422e-11 1.01281e-07)
(1.81355e-07 3.30852e-08 -3.215e-09)
(3.67158e-09 2.10742e-07 -4.13844e-10)
(-1.46542e-10 -2.83114e-11 9.92812e-08)
(3.67724e-09 2.10933e-07 -4.22538e-10)
(-1.82693e-10 -3.48593e-11 9.72794e-08)
(1.77861e-07 3.68066e-08 -3.5239e-09)
(2.10195e-07 3.67606e-09 -4.22738e-10)
(7.3349e-09 2.06531e-07 -8.26518e-10)
(-6.06721e-12 -1.68387e-11 1.13377e-07)
(2.06542e-07 7.34697e-09 -8.27455e-10)
(7.34637e-09 2.06542e-07 -8.28328e-10)
(-1.70958e-11 -1.70587e-11 1.11361e-07)
(2.02896e-07 1.10135e-08 -1.21084e-09)
(7.35195e-09 2.06561e-07 -8.21732e-10)
(-2.83311e-11 -1.76114e-11 1.09339e-07)
(1.99261e-07 1.46805e-08 -1.57532e-09)
(7.35268e-09 2.06591e-07 -8.12769e-10)
(-4.05544e-11 -1.86295e-11 1.07317e-07)
(1.95641e-07 1.83511e-08 -1.92585e-09)
(7.3515e-09 2.0664e-07 -8.05577e-10)
(-5.46326e-11 -2.02432e-11 1.053e-07)
(1.92037e-07 2.20267e-08 -2.26705e-09)
(7.35017e-09 2.0671e-07 -8.01997e-10)
(-7.13906e-11 -2.26363e-11 1.0329e-07)
(1.88455e-07 2.57091e-08 -2.60196e-09)
(7.34825e-09 2.06804e-07 -8.03266e-10)
(-9.1672e-11 -2.59869e-11 1.01284e-07)
(1.84899e-07 2.94011e-08 -2.93128e-09)
(7.34603e-09 2.06924e-07 -8.10795e-10)
(-1.16019e-10 -3.02859e-11 9.92822e-08)
(1.81371e-07 3.31059e-08 -3.25271e-09)
(7.34386e-09 2.07072e-07 -8.25745e-10)
(-1.44628e-10 -3.5226e-11 9.72813e-08)
(7.35769e-09 2.07252e-07 -8.41071e-10)
(-1.76903e-10 -3.95079e-11 9.52728e-08)
(1.77867e-07 3.68261e-08 -3.55965e-09)
(2.10208e-07 3.67696e-09 -4.16902e-10)
(1.10006e-08 2.02882e-07 -1.20212e-09)
(-6.7701e-12 -2.81318e-11 1.11345e-07)
(2.0656e-07 7.35136e-09 -8.20835e-10)
(1.10126e-08 2.02896e-07 -1.21064e-09)
(-1.76273e-11 -2.83082e-11 1.09338e-07)
(2.02919e-07 1.10221e-08 -1.20886e-09)
(1.10214e-08 2.02919e-07 -1.20947e-09)
(-2.88094e-11 -2.87678e-11 1.07327e-07)
(1.99287e-07 1.46909e-08 -1.58042e-09)
(1.10259e-08 2.02952e-07 -1.20305e-09)
(-4.09777e-11 -2.96584e-11 1.05312e-07)
(1.95667e-07 1.8362e-08 -1.93759e-09)
(1.10261e-08 2.03e-07 -1.19656e-09)
(-5.49506e-11 -3.11049e-11 1.03298e-07)
(1.92065e-07 2.20385e-08 -2.28419e-09)
(1.10243e-08 2.03067e-07 -1.19417e-09)
(-7.15505e-11 -3.32723e-11 1.01288e-07)
(1.88482e-07 2.57223e-08 -2.62317e-09)
(1.10219e-08 2.03156e-07 -1.19842e-09)
(-9.1485e-11 -3.63277e-11 9.92827e-08)
(1.84924e-07 2.94161e-08 -2.95477e-09)
(1.10193e-08 2.0327e-07 -1.21106e-09)
(-1.15029e-10 -4.02387e-11 9.72798e-08)
(1.81393e-07 3.31223e-08 -3.27666e-09)
(1.1017e-08 2.03411e-07 -1.23354e-09)
(-1.42241e-10 -4.48167e-11 9.5277e-08)
(1.10401e-08 2.03582e-07 -1.25461e-09)
(-1.71244e-10 -4.87441e-11 9.32655e-08)
(1.77882e-07 3.68414e-08 -3.58187e-09)
(2.10239e-07 3.67683e-09 -4.11098e-10)
(1.46681e-08 1.99246e-07 -1.55916e-09)
(-7.9852e-12 -4.04039e-11 1.0932e-07)
(2.0659e-07 7.35174e-09 -8.12639e-10)
(1.46802e-08 1.99261e-07 -1.57438e-09)
(-1.86149e-11 -4.05798e-11 1.07316e-07)
(2.02952e-07 1.10253e-08 -1.20239e-09)
(1.46899e-08 1.99286e-07 -1.58011e-09)
(-2.96734e-11 -4.09654e-11 1.05311e-07)
(1.99322e-07 1.46978e-08 -1.57909e-09)
(1.46971e-08 1.99322e-07 -1.57959e-09)
(-4.17717e-11 -4.1735e-11 1.03303e-07)
(1.95703e-07 1.83707e-08 -1.9426e-09)
(1.47006e-08 1.9937e-07 -1.57683e-09)
(-5.56188e-11 -4.30554e-11 1.01293e-07)
(1.92099e-07 2.2048e-08 -2.29447e-09)
(1.47e-08 1.99434e-07 -1.57689e-09)
(-7.20252e-11 -4.50813e-11 9.92831e-08)
(1.88516e-07 2.57332e-08 -2.63687e-09)
(1.46971e-08 1.99519e-07 -1.58442e-09)
(-9.16377e-11 -4.80098e-11 9.72763e-08)
(1.84956e-07 2.94283e-08 -2.96985e-09)
(1.46942e-08 1.99627e-07 -1.60228e-09)
(-1.14559e-10 -5.19715e-11 9.52715e-08)
(1.81421e-07 3.31356e-08 -3.29132e-09)
(1.4692e-08 1.99761e-07 -1.63192e-09)
(-1.40791e-10 -5.69886e-11 9.32666e-08)
(1.47247e-08 1.99924e-07 -1.65795e-09)
(-1.66821e-10 -6.12936e-11 9.1253e-08)
(1.77904e-07 3.68544e-08 -3.59487e-09)
(2.1029e-07 3.67631e-09 -4.06439e-10)
(1.83385e-08 1.95624e-07 -1.90345e-09)
(-9.86935e-12 -5.45372e-11 1.07302e-07)
(2.0664e-07 7.35122e-09 -8.06076e-10)
(1.83511e-08 1.95641e-07 -1.92479e-09)
(-2.02164e-11 -5.46748e-11 1.053e-07)
(2.02999e-07 1.10252e-08 -1.19662e-09)
(1.83616e-08 1.95667e-07 -1.93673e-09)
(-3.10737e-11 -5.49691e-11 1.03297e-07)
(1.99369e-07 1.47001e-08 -1.57626e-09)
(1.83697e-08 1.95702e-07 -1.94235e-09)
(-4.30647e-11 -5.55919e-11 1.01292e-07)
(1.95751e-07 1.83765e-08 -1.94441e-09)
(1.83756e-08 1.9575e-07 -1.94501e-09)
(-5.68146e-11 -5.67657e-11 9.92849e-08)
(1.92146e-07 2.20554e-08 -2.30117e-09)
(1.83781e-08 1.95814e-07 -1.9488e-09)
(-7.30896e-11 -5.87371e-11 9.72766e-08)
(1.88559e-07 2.57412e-08 -2.64666e-09)
(1.83764e-08 1.95895e-07 -1.95904e-09)
(-9.24459e-11 -6.16797e-11 9.52674e-08)
(1.84996e-07 2.94378e-08 -2.98024e-09)
(1.83725e-08 1.95996e-07 -1.98074e-09)
(-1.15063e-10 -6.58115e-11 9.32587e-08)
(1.81458e-07 3.31469e-08 -3.30031e-09)
(1.83704e-08 1.96123e-07 -2.01633e-09)
(-1.40829e-10 -7.1382e-11 9.12506e-08)
(1.8412e-08 1.9628e-07 -2.0465e-09)
(-1.63909e-10 -7.60027e-11 8.92352e-08)
(1.77935e-07 3.6867e-08 -3.60149e-09)
(2.10363e-07 3.67553e-09 -4.03668e-10)
(2.20135e-08 1.9202e-07 -2.23928e-09)
(-1.2593e-11 -7.13926e-11 1.0529e-07)
(2.0671e-07 7.35021e-09 -8.02623e-10)
(2.20267e-08 1.92038e-07 -2.26604e-09)
(-2.26075e-11 -7.14229e-11 1.0329e-07)
(2.03066e-07 1.1024e-08 -1.19484e-09)
(2.20384e-08 1.92065e-07 -2.28324e-09)
(-3.32222e-11 -7.15815e-11 1.01288e-07)
(1.99433e-07 1.46989e-08 -1.57708e-09)
(2.20476e-08 1.92099e-07 -2.29375e-09)
(-4.50583e-11 -7.20469e-11 9.92822e-08)
(1.95814e-07 1.83775e-08 -1.94811e-09)
(2.20542e-08 1.92145e-07 -2.30117e-09)
(-5.87435e-11 -7.30612e-11 9.72751e-08)
(1.92208e-07 2.20602e-08 -2.30815e-09)
(2.20589e-08 1.92206e-07 -2.30921e-09)
(-7.49597e-11 -7.48966e-11 9.52678e-08)
(1.88617e-07 2.57479e-08 -2.65625e-09)
(2.20609e-08 1.92285e-07 -2.32199e-09)
(-9.41649e-11 -7.77979e-11 9.32578e-08)
(1.85049e-07 2.94453e-08 -2.98981e-09)
(2.20577e-08 1.92381e-07 -2.34527e-09)
(-1.1665e-10 -8.20171e-11 9.12442e-08)
(1.81507e-07 3.3157e-08 -3.30676e-09)
(2.20549e-08 1.92499e-07 -2.38366e-09)
(-1.42185e-10 -8.77164e-11 8.92298e-08)
(2.21028e-08 1.92649e-07 -2.41616e-09)
(-1.62269e-10 -9.20132e-11 8.72114e-08)
(1.77978e-07 3.68804e-08 -3.60357e-09)
(2.1046e-07 3.6745e-09 -4.03498e-10)
(2.56946e-08 1.88437e-07 -2.56965e-09)
(-1.64205e-11 -9.18945e-11 1.03284e-07)
(2.06804e-07 7.34829e-09 -8.03854e-10)
(2.57091e-08 1.88456e-07 -2.60107e-09)
(-2.59563e-11 -9.16962e-11 1.01285e-07)
(2.03156e-07 1.10219e-08 -1.19925e-09)
(2.57223e-08 1.88483e-07 -2.62232e-09)
(-3.62772e-11 -9.1506e-11 9.9283e-08)
(1.99519e-07 1.46966e-08 -1.58535e-09)
(2.57332e-08 1.88516e-07 -2.63605e-09)
(-4.79674e-11 -9.16495e-11 9.72763e-08)
(1.95894e-07 1.83749e-08 -1.95933e-09)
(2.57409e-08 1.88559e-07 -2.64596e-09)
(-6.16146e-11 -9.2418e-11 9.52661e-08)
(1.92284e-07 2.20599e-08 -2.32077e-09)
(2.57463e-08 1.88615e-07 -2.65625e-09)
(-7.77457e-11 -9.40102e-11 9.32552e-08)
(1.88691e-07 2.57517e-08 -2.66961e-09)
(2.57506e-08 1.8869e-07 -2.67069e-09)
(-9.68961e-11 -9.66786e-11 9.12437e-08)
(1.85116e-07 2.94523e-08 -3.00178e-09)
(2.57515e-08 1.88781e-07 -2.69364e-09)
(-1.18947e-10 -1.00362e-10 8.9226e-08)
(1.81566e-07 3.31674e-08 -3.31296e-09)
(2.57496e-08 1.88889e-07 -2.7302e-09)
(-1.43921e-10 -1.04999e-10 8.72026e-08)
(2.57981e-08 1.89028e-07 -2.76177e-09)
(-1.61222e-10 -1.07923e-10 8.5179e-08)
(1.78032e-07 3.68956e-08 -3.60202e-09)
(2.10586e-07 3.67323e-09 -4.06684e-10)
(2.93841e-08 1.84881e-07 -2.89544e-09)
(-2.1633e-11 -1.16791e-10 1.01282e-07)
(2.06924e-07 7.3461e-09 -8.11334e-10)
(2.94012e-08 1.84899e-07 -2.93058e-09)
(-3.02498e-11 -1.1604e-10 9.92827e-08)
(2.0327e-07 1.10195e-08 -1.21184e-09)
(2.94161e-08 1.84924e-07 -2.95406e-09)
(-4.01783e-11 -1.15037e-10 9.72802e-08)
(1.99627e-07 1.46944e-08 -1.60332e-09)
(2.94285e-08 1.84956e-07 -2.96906e-09)
(-5.1894e-11 -1.14537e-10 9.52718e-08)
(1.95996e-07 1.83723e-08 -1.98181e-09)
(2.94381e-08 1.84996e-07 -2.97925e-09)
(-6.56895e-11 -1.14993e-10 9.32585e-08)
(1.92379e-07 2.20564e-08 -2.34496e-09)
(2.94451e-08 1.85048e-07 -2.98864e-09)
(-8.17525e-11 -1.16443e-10 9.12417e-08)
(1.88779e-07 2.57506e-08 -2.69233e-09)
(2.94508e-08 1.85114e-07 -3.0011e-09)
(-1.00472e-10 -1.18605e-10 8.92233e-08)
(1.85195e-07 2.94567e-08 -3.01946e-09)
(2.94558e-08 1.85195e-07 -3.01978e-09)
(-1.21007e-10 -1.20633e-10 8.71982e-08)
(1.81634e-07 3.31769e-08 -3.32086e-09)
(2.94559e-08 1.85291e-07 -3.04938e-09)
(-1.44574e-10 -1.22562e-10 8.51649e-08)
(2.94991e-08 1.85415e-07 -3.07609e-09)
(-1.59137e-10 -1.22158e-10 8.3134e-08)
(1.78092e-07 3.69123e-08 -3.59686e-09)
(2.10742e-07 3.67163e-09 -4.14085e-10)
(3.30852e-08 1.81356e-07 -3.21453e-09)
(-2.83006e-11 -1.46567e-10 9.92817e-08)
(2.07073e-07 7.34396e-09 -8.26202e-10)
(3.3106e-08 1.81371e-07 -3.25225e-09)
(-3.51852e-11 -1.4465e-10 9.72817e-08)
(2.03411e-07 1.10171e-08 -1.23418e-09)
(3.31224e-08 1.81393e-07 -3.27616e-09)
(-4.47455e-11 -1.42257e-10 9.52774e-08)
(1.99761e-07 1.46923e-08 -1.6327e-09)
(3.31357e-08 1.81422e-07 -3.2907e-09)
(-5.68872e-11 -1.40794e-10 9.32669e-08)
(1.96123e-07 1.83709e-08 -2.01721e-09)
(3.31471e-08 1.81458e-07 -3.2995e-09)
(-7.12381e-11 -1.40814e-10 9.12509e-08)
(1.92498e-07 2.20549e-08 -2.3839e-09)
(3.31574e-08 1.81506e-07 -3.30563e-09)
(-8.74256e-11 -1.42183e-10 8.92292e-08)
(1.88887e-07 2.57483e-08 -2.72969e-09)
(3.31668e-08 1.81565e-07 -3.31183e-09)
(-1.05095e-10 -1.44001e-10 8.72014e-08)
(1.8529e-07 2.94552e-08 -3.04886e-09)
(3.31758e-08 1.81633e-07 -3.32037e-09)
(-1.22865e-10 -1.44567e-10 8.51641e-08)
(1.81709e-07 3.31794e-08 -3.33532e-09)
(3.3179e-08 1.81709e-07 -3.33548e-09)
(-1.42288e-10 -1.42143e-10 8.31163e-08)
(3.32107e-08 1.81798e-07 -3.34898e-09)
(-1.50336e-10 -1.32079e-10 8.10682e-08)
(1.78148e-07 3.6929e-08 -3.58749e-09)
(2.10933e-07 3.6773e-09 -4.22732e-10)
(-3.48455e-11 -1.82694e-10 9.72798e-08)
(3.68066e-08 1.77861e-07 -3.52363e-09)
(2.07252e-07 7.3578e-09 -8.41429e-10)
(-3.94651e-11 -1.76907e-10 9.52732e-08)
(3.68262e-08 1.77868e-07 -3.55939e-09)
(2.03582e-07 1.10403e-08 -1.25508e-09)
(-4.86738e-11 -1.71253e-10 9.32658e-08)
(3.68415e-08 1.77882e-07 -3.58157e-09)
(1.99924e-07 1.47249e-08 -1.65848e-09)
(-6.12037e-11 -1.66844e-10 9.12533e-08)
(3.68546e-08 1.77904e-07 -3.59449e-09)
(1.9628e-07 1.84122e-08 -2.047e-09)
(-7.5896e-11 -1.63968e-10 8.92355e-08)
(3.68672e-08 1.77935e-07 -3.60098e-09)
(1.92649e-07 2.21028e-08 -2.41645e-09)
(-9.18805e-11 -1.62427e-10 8.72117e-08)
(3.68805e-08 1.77978e-07 -3.60294e-09)
(1.89028e-07 2.57978e-08 -2.76193e-09)
(-1.08004e-10 -1.61439e-10 8.51793e-08)
(3.68955e-08 1.78031e-07 -3.60136e-09)
(1.85414e-07 2.94986e-08 -3.07603e-09)
(-1.22222e-10 -1.59186e-10 8.31337e-08)
(3.69121e-08 1.78091e-07 -3.5963e-09)
(1.81797e-07 3.32105e-08 -3.34863e-09)
(-1.32069e-10 -1.50118e-10 8.10673e-08)
(3.69285e-08 1.78147e-07 -3.5871e-09)
(-1.30965e-10 -1.30675e-10 7.89929e-08)
(1.78196e-07 3.69426e-08 -3.57406e-09)
(3.69421e-08 1.78196e-07 -3.574e-09)
(2.10842e-07 3.67711e-09 -3.78148e-10)
(3.67624e-09 2.10839e-07 -3.78999e-10)
(-8.91009e-12 -8.87482e-12 1.16161e-07)
(2.07153e-07 7.34503e-09 -7.35397e-10)
(3.69793e-09 2.10828e-07 -3.77269e-10)
(-2.60853e-11 -9.39573e-12 1.14113e-07)
(2.03467e-07 1.1007e-08 -1.06932e-09)
(3.70124e-09 2.10813e-07 -3.71189e-10)
(-4.32906e-11 -1.04751e-11 1.12051e-07)
(1.99791e-07 1.46701e-08 -1.38492e-09)
(3.69763e-09 2.10816e-07 -3.65053e-10)
(-6.16956e-11 -1.22841e-11 1.1e-07)
(1.96125e-07 1.83355e-08 -1.68765e-09)
(3.69335e-09 2.10843e-07 -3.60276e-10)
(-8.24854e-11 -1.50253e-11 1.07964e-07)
(1.92473e-07 2.20041e-08 -1.98184e-09)
(3.68825e-09 2.1089e-07 -3.57252e-10)
(-1.06675e-10 -1.89241e-11 1.05941e-07)
(1.88834e-07 2.56766e-08 -2.27084e-09)
(3.68146e-09 2.10956e-07 -3.56538e-10)
(-1.35202e-10 -2.42859e-11 1.03929e-07)
(1.85214e-07 2.9354e-08 -2.55666e-09)
(3.67264e-09 2.11036e-07 -3.58901e-10)
(-1.68551e-10 -3.138e-11 1.01926e-07)
(1.81612e-07 3.30387e-08 -2.83955e-09)
(3.66122e-09 2.11123e-07 -3.65254e-10)
(-2.0654e-10 -4.00994e-11 9.99293e-08)
(3.66867e-09 2.11207e-07 -3.73438e-10)
(-2.49942e-10 -4.80188e-11 9.79328e-08)
(1.78011e-07 3.67464e-08 -3.11958e-09)
(2.10826e-07 3.69698e-09 -3.76428e-10)
(7.34339e-09 2.07151e-07 -7.35618e-10)
(-9.41424e-12 -2.60455e-11 1.1411e-07)
(2.07157e-07 7.37768e-09 -7.36258e-10)
(7.37596e-09 2.07156e-07 -7.37004e-10)
(-2.63932e-11 -2.63399e-11 1.12081e-07)
(2.03484e-07 1.10429e-08 -1.07612e-09)
(7.39038e-09 2.07158e-07 -7.30562e-10)
(-4.354e-11 -2.7092e-11 1.10039e-07)
(1.99813e-07 1.47047e-08 -1.39799e-09)
(7.38971e-09 2.07164e-07 -7.21762e-10)
(-6.18869e-11 -2.84904e-11 1.07996e-07)
(1.96152e-07 1.83702e-08 -1.70627e-09)
(7.38225e-09 2.07188e-07 -7.14358e-10)
(-8.2573e-11 -3.07004e-11 1.05963e-07)
(1.92503e-07 2.20402e-08 -2.00536e-09)
(7.37276e-09 2.07231e-07 -7.10077e-10)
(-1.06576e-10 -3.39437e-11 1.03941e-07)
(1.88867e-07 2.5716e-08 -2.29862e-09)
(7.35962e-09 2.07293e-07 -7.10115e-10)
(-1.34754e-10 -3.84028e-11 1.01931e-07)
(1.85248e-07 2.94007e-08 -2.58794e-09)
(7.34305e-09 2.07365e-07 -7.159e-10)
(-1.67322e-10 -4.39503e-11 9.99286e-08)
(1.81645e-07 3.30966e-08 -2.87329e-09)
(7.32349e-09 2.07442e-07 -7.28763e-10)
(-2.03741e-10 -5.00031e-11 9.79301e-08)
(7.34613e-09 2.07515e-07 -7.43387e-10)
(-2.42079e-10 -5.46162e-11 9.59209e-08)
(1.78033e-07 3.68036e-08 -3.15146e-09)
(2.1081e-07 3.69872e-09 -3.709e-10)
(1.10064e-08 2.03468e-07 -1.06861e-09)
(-1.04616e-11 -4.33078e-11 1.12049e-07)
(2.07155e-07 7.38867e-09 -7.29788e-10)
(1.10403e-08 2.03482e-07 -1.0759e-09)
(-2.71128e-11 -4.35089e-11 1.10036e-07)
(2.03498e-07 1.10651e-08 -1.07364e-09)
(1.10631e-08 2.03496e-07 -1.07412e-09)
(-4.41213e-11 -4.40622e-11 1.08014e-07)
(1.99837e-07 1.47313e-08 -1.40172e-09)
(1.1072e-08 2.03514e-07 -1.06735e-09)
(-6.23277e-11 -4.51777e-11 1.05986e-07)
(1.9618e-07 1.83973e-08 -1.71591e-09)
(1.10664e-08 2.03537e-07 -1.06024e-09)
(-8.27943e-11 -4.70115e-11 1.03958e-07)
(1.92535e-07 2.20692e-08 -2.0199e-09)
(1.1053e-08 2.03576e-07 -1.05664e-09)
(-1.06498e-10 -4.9755e-11 1.01938e-07)
(1.88902e-07 2.57484e-08 -2.31701e-09)
(1.10348e-08 2.03631e-07 -1.05897e-09)
(-1.34112e-10 -5.3571e-11 9.99286e-08)
(1.85284e-07 2.94376e-08 -2.60867e-09)
(1.10122e-08 2.03694e-07 -1.06905e-09)
(-1.65498e-10 -5.8296e-11 9.79246e-08)
(1.81679e-07 3.31379e-08 -2.89476e-09)
(1.09857e-08 2.0376e-07 -1.08861e-09)
(-2e-10 -6.35097e-11 9.59229e-08)
(1.10274e-08 2.03828e-07 -1.10904e-09)
(-2.34083e-10 -6.72411e-11 9.39079e-08)
(1.78061e-07 3.68439e-08 -3.17151e-09)
(2.10815e-07 3.69695e-09 -3.65293e-10)
(1.46702e-08 1.99792e-07 -1.3839e-09)
(-1.22574e-11 -6.17568e-11 1.1e-07)
(2.07161e-07 7.38699e-09 -7.21673e-10)
(1.47038e-08 1.99813e-07 -1.3971e-09)
(-2.84648e-11 -6.19299e-11 1.07994e-07)
(2.03511e-07 1.10702e-08 -1.06681e-09)
(1.47285e-08 1.99835e-07 -1.40137e-09)
(-4.51964e-11 -6.23135e-11 1.05983e-07)
(1.99861e-07 1.47457e-08 -1.39937e-09)
(1.47438e-08 1.9986e-07 -1.39973e-09)
(-6.3205e-11 -6.31544e-11 1.03968e-07)
(1.96209e-07 1.84156e-08 -1.71922e-09)
(1.47459e-08 1.99889e-07 -1.39581e-09)
(-8.33829e-11 -6.46652e-11 1.01948e-07)
(1.92564e-07 2.20885e-08 -2.02806e-09)
(1.47331e-08 1.99925e-07 -1.39422e-09)
(-1.06688e-10 -6.70156e-11 9.99295e-08)
(1.88931e-07 2.57704e-08 -2.32855e-09)
(1.47096e-08 1.99971e-07 -1.39932e-09)
(-1.33714e-10 -7.04015e-11 9.79172e-08)
(1.85312e-07 2.94626e-08 -2.62193e-09)
(1.46813e-08 2.00025e-07 -1.41405e-09)
(-1.64097e-10 -7.48739e-11 9.59099e-08)
(1.81705e-07 3.31651e-08 -2.90822e-09)
(1.46492e-08 2.00081e-07 -1.44023e-09)
(-1.97154e-10 -8.02769e-11 9.39045e-08)
(1.47108e-08 2.00144e-07 -1.46602e-09)
(-2.2725e-10 -8.40005e-11 9.18857e-08)
(1.78082e-07 3.68716e-08 -3.18394e-09)
(2.10843e-07 3.69343e-09 -3.60619e-10)
(1.83355e-08 1.96127e-07 -1.68661e-09)
(-1.50071e-11 -8.25537e-11 1.07965e-07)
(2.07187e-07 7.38142e-09 -7.14846e-10)
(1.83701e-08 1.96153e-07 -1.70528e-09)
(-3.06564e-11 -8.26414e-11 1.05963e-07)
(2.03535e-07 1.10638e-08 -1.06035e-09)
(1.83964e-08 1.9618e-07 -1.71507e-09)
(-4.69604e-11 -8.28257e-11 1.03956e-07)
(1.99887e-07 1.47443e-08 -1.39538e-09)
(1.84128e-08 1.96207e-07 -1.71888e-09)
(-6.46746e-11 -8.33461e-11 1.01946e-07)
(1.96241e-07 1.84223e-08 -1.71944e-09)
(1.84199e-08 1.96239e-07 -1.71984e-09)
(-8.45583e-11 -8.44897e-11 9.99329e-08)
(1.92595e-07 2.20979e-08 -2.03288e-09)
(1.84133e-08 1.96277e-07 -1.7217e-09)
(-1.07501e-10 -8.65497e-11 9.79175e-08)
(1.88957e-07 2.57797e-08 -2.33655e-09)
(1.83897e-08 1.96317e-07 -1.72939e-09)
(-1.3396e-10 -8.96732e-11 9.59012e-08)
(1.85333e-07 2.94741e-08 -2.63115e-09)
(1.83536e-08 1.96359e-07 -1.7478e-09)
(-1.63686e-10 -9.40086e-11 9.38871e-08)
(1.81722e-07 3.31804e-08 -2.9171e-09)
(1.83152e-08 1.96403e-07 -1.77988e-09)
(-1.95862e-10 -9.96771e-11 9.18762e-08)
(1.8395e-08 1.96461e-07 -1.81063e-09)
(-2.21849e-10 -1.03223e-10 8.98543e-08)
(1.78096e-07 3.68905e-08 -3.19154e-09)
(2.1089e-07 3.68832e-09 -3.57571e-10)
(2.2004e-08 1.92474e-07 -1.98086e-09)
(-1.89113e-11 -1.06727e-10 1.05942e-07)
(2.07231e-07 7.37289e-09 -7.10687e-10)
(2.20401e-08 1.92503e-07 -2.00441e-09)
(-3.38966e-11 -1.06627e-10 1.03942e-07)
(2.03575e-07 1.10521e-08 -1.0573e-09)
(2.20691e-08 1.92536e-07 -2.019e-09)
(-4.96751e-11 -1.06547e-10 1.01938e-07)
(1.99922e-07 1.473e-08 -1.39446e-09)
(2.20874e-08 1.92564e-07 -2.02732e-09)
(-6.69771e-11 -1.06723e-10 9.99278e-08)
(1.96276e-07 1.84113e-08 -1.72119e-09)
(2.20944e-08 1.92592e-07 -2.03272e-09)
(-8.65566e-11 -1.07463e-10 9.79147e-08)
(1.92632e-07 2.20951e-08 -2.03797e-09)
(2.20915e-08 1.92628e-07 -2.03872e-09)
(-1.09173e-10 -1.09086e-10 9.59016e-08)
(1.88988e-07 2.57795e-08 -2.3446e-09)
(2.20747e-08 1.92667e-07 -2.04924e-09)
(-1.35132e-10 -1.11822e-10 9.38842e-08)
(1.85353e-07 2.94737e-08 -2.64007e-09)
(2.20359e-08 1.92698e-07 -2.06976e-09)
(-1.6434e-10 -1.15852e-10 9.18616e-08)
(1.81733e-07 3.3185e-08 -2.92444e-09)
(2.19892e-08 1.92725e-07 -2.1053e-09)
(-1.95793e-10 -1.21133e-10 8.98396e-08)
(2.20799e-08 1.92775e-07 -2.13973e-09)
(-2.17473e-10 -1.23573e-10 8.78123e-08)
(1.78103e-07 3.6903e-08 -3.19629e-09)
(2.10956e-07 3.68153e-09 -3.56837e-10)
(2.56766e-08 1.88835e-07 -2.26997e-09)
(-2.42729e-11 -1.35244e-10 1.0393e-07)
(2.07293e-07 7.35971e-09 -7.10691e-10)
(2.5716e-08 1.88868e-07 -2.29778e-09)
(-3.83529e-11 -1.34791e-10 1.01932e-07)
(2.03631e-07 1.10347e-08 -1.05979e-09)
(2.57484e-08 1.88903e-07 -2.31618e-09)
(-5.3491e-11 -1.34144e-10 9.99293e-08)
(1.9997e-07 1.47083e-08 -1.40025e-09)
(2.57705e-08 1.88932e-07 -2.32771e-09)
(-7.03351e-11 -1.33733e-10 9.79172e-08)
(1.96313e-07 1.83853e-08 -1.72973e-09)
(2.57789e-08 1.88956e-07 -2.33578e-09)
(-8.95777e-11 -1.33921e-10 9.58986e-08)
(1.92664e-07 2.20719e-08 -2.04827e-09)
(2.57751e-08 1.88982e-07 -2.34436e-09)
(-1.11748e-10 -1.34916e-10 9.38794e-08)
(1.89018e-07 2.57645e-08 -2.35649e-09)
(2.57613e-08 1.89015e-07 -2.35723e-09)
(-1.37255e-10 -1.36956e-10 9.18599e-08)
(1.85371e-07 2.94642e-08 -2.65191e-09)
(2.57294e-08 1.89038e-07 -2.37864e-09)
(-1.65433e-10 -1.3978e-10 8.98304e-08)
(1.81732e-07 3.31816e-08 -2.93265e-09)
(2.56793e-08 1.89045e-07 -2.41397e-09)
(-1.95581e-10 -1.4302e-10 8.7792e-08)
(2.57649e-08 1.8908e-07 -2.4494e-09)
(-2.13156e-10 -1.42956e-10 8.57553e-08)
(1.78099e-07 3.69115e-08 -3.19932e-09)
(2.11037e-07 3.67275e-09 -3.59176e-10)
(2.9354e-08 1.85214e-07 -2.55597e-09)
(-3.13644e-11 -1.6859e-10 1.01927e-07)
(2.07366e-07 7.34327e-09 -7.16433e-10)
(2.94009e-08 1.85249e-07 -2.58725e-09)
(-4.38924e-11 -1.67353e-10 9.99294e-08)
(2.03694e-07 1.10126e-08 -1.06982e-09)
(2.94378e-08 1.85284e-07 -2.60795e-09)
(-5.8202e-11 -1.6551e-10 9.79253e-08)
(2.00025e-07 1.4682e-08 -1.41508e-09)
(2.94631e-08 1.85312e-07 -2.62111e-09)
(-7.4757e-11 -1.64066e-10 9.59105e-08)
(1.96357e-07 1.83531e-08 -1.74887e-09)
(2.9475e-08 1.85334e-07 -2.63014e-09)
(-9.38327e-11 -1.63587e-10 9.38866e-08)
(1.92692e-07 2.20321e-08 -2.06957e-09)
(2.94735e-08 1.8535e-07 -2.63883e-09)
(-1.15484e-10 -1.64045e-10 9.18568e-08)
(1.89033e-07 2.57269e-08 -2.37759e-09)
(2.94601e-08 1.85366e-07 -2.65105e-09)
(-1.39928e-10 -1.64954e-10 8.98251e-08)
(1.85371e-07 2.94384e-08 -2.67004e-09)
(2.94358e-08 1.85371e-07 -2.67012e-09)
(-1.65543e-10 -1.65025e-10 8.77821e-08)
(1.81712e-07 3.31669e-08 -2.94385e-09)
(2.93866e-08 1.85358e-07 -2.70098e-09)
(-1.93215e-10 -1.64083e-10 8.57257e-08)
(2.94515e-08 1.85368e-07 -2.73384e-09)
(-2.068e-10 -1.59134e-10 8.36755e-08)
(1.78073e-07 3.69158e-08 -3.20085e-09)
(2.11123e-07 3.66134e-09 -3.65496e-10)
(3.30388e-08 1.81613e-07 -2.83907e-09)
(-4.00813e-11 -2.06574e-10 9.99303e-08)
(2.07442e-07 7.32377e-09 -7.29225e-10)
(3.30967e-08 1.81646e-07 -2.8728e-09)
(-4.99386e-11 -2.03771e-10 9.7931e-08)
(2.03761e-07 1.09862e-08 -1.08926e-09)
(3.31383e-08 1.8168e-07 -2.89421e-09)
(-6.34001e-11 -2.00021e-10 9.59237e-08)
(2.00081e-07 1.46501e-08 -1.44103e-09)
(3.31657e-08 1.81705e-07 -2.90754e-09)
(-8.01257e-11 -1.97157e-10 9.39051e-08)
(1.96403e-07 1.83169e-08 -1.78081e-09)
(3.31812e-08 1.81722e-07 -2.91622e-09)
(-9.94701e-11 -1.95839e-10 9.18767e-08)
(1.92724e-07 2.19892e-08 -2.10566e-09)
(3.3186e-08 1.81732e-07 -2.92325e-09)
(-1.20729e-10 -1.95786e-10 8.98385e-08)
(1.89042e-07 2.56759e-08 -2.41363e-09)
(3.31802e-08 1.81731e-07 -2.93144e-09)
(-1.43151e-10 -1.95684e-10 8.77898e-08)
(1.85356e-07 2.93846e-08 -2.70064e-09)
(3.31639e-08 1.81711e-07 -2.9432e-09)
(-1.64511e-10 -1.93209e-10 8.57242e-08)
(1.81665e-07 3.31223e-08 -2.96282e-09)
(3.3121e-08 1.81665e-07 -2.96279e-09)
(-1.86316e-10 -1.86126e-10 8.36402e-08)
(3.3153e-08 1.81613e-07 -2.98447e-09)
(-1.915e-10 -1.68749e-10 8.15561e-08)
(1.78005e-07 3.69138e-08 -3.20008e-09)
(2.11208e-07 3.66883e-09 -3.73639e-10)
(-4.7996e-11 -2.4994e-10 9.79336e-08)
(3.67465e-08 1.78011e-07 -3.11928e-09)
(2.07516e-07 7.34644e-09 -7.43761e-10)
(-5.45484e-11 -2.42079e-10 9.59216e-08)
(3.68037e-08 1.78033e-07 -3.15116e-09)
(2.03828e-07 1.10279e-08 -1.10954e-09)
(-6.71331e-11 -2.34091e-10 9.39085e-08)
(3.68442e-08 1.78061e-07 -3.17114e-09)
(2.00145e-07 1.47114e-08 -1.46661e-09)
(-8.38664e-11 -2.2728e-10 9.18863e-08)
(3.6872e-08 1.78082e-07 -3.18346e-09)
(1.96462e-07 1.83957e-08 -1.81121e-09)
(-1.03069e-10 -2.21931e-10 8.98548e-08)
(3.68909e-08 1.78096e-07 -3.19094e-09)
(1.92776e-07 2.20799e-08 -2.14013e-09)
(-1.23387e-10 -2.17694e-10 8.78129e-08)
(3.69033e-08 1.78103e-07 -3.19558e-09)
(1.8908e-07 2.57642e-08 -2.44967e-09)
(-1.43072e-10 -2.13459e-10 8.5756e-08)
(3.69113e-08 1.78099e-07 -3.19858e-09)
(1.85366e-07 2.94501e-08 -2.73387e-09)
(-1.59246e-10 -2.06877e-10 8.36749e-08)
(3.69153e-08 1.78073e-07 -3.2002e-09)
(1.81611e-07 3.31526e-08 -2.98423e-09)
(-1.68743e-10 -1.91225e-10 8.15544e-08)
(3.69127e-08 1.78003e-07 -3.19956e-09)
(-1.63533e-10 -1.63169e-10 7.94174e-08)
(1.77897e-07 3.69008e-08 -3.19665e-09)
(3.68994e-08 1.77897e-07 -3.19648e-09)
(2.11323e-07 3.6829e-09 -2.91898e-10)
(3.68157e-09 2.11318e-07 -2.92529e-10)
(-8.33838e-12 -8.30737e-12 1.16745e-07)
(2.07606e-07 7.35103e-09 -5.66426e-10)
(3.71541e-09 2.11289e-07 -2.90827e-10)
(-2.42861e-11 -8.76689e-12 1.14678e-07)
(2.03882e-07 1.10088e-08 -8.20739e-10)
(3.72048e-09 2.11242e-07 -2.85412e-10)
(-3.99955e-11 -9.70904e-12 1.12591e-07)
(2.00162e-07 1.46664e-08 -1.058e-09)
(3.71459e-09 2.11209e-07 -2.79652e-10)
(-5.63373e-11 -1.12656e-11 1.10517e-07)
(1.96446e-07 1.83248e-08 -1.28196e-09)
(3.70736e-09 2.11197e-07 -2.74673e-10)
(-7.41435e-11 -1.35743e-11 1.08463e-07)
(1.92735e-07 2.19842e-08 -1.49579e-09)
(3.69848e-09 2.11202e-07 -2.70803e-10)
(-9.39795e-11 -1.67625e-11 1.06426e-07)
(1.89029e-07 2.56445e-08 -1.70221e-09)
(3.68653e-09 2.11216e-07 -2.68495e-10)
(-1.16187e-10 -2.09842e-11 1.04404e-07)
(1.85331e-07 2.93051e-08 -1.90347e-09)
(3.67087e-09 2.11231e-07 -2.68377e-10)
(-1.40528e-10 -2.63081e-11 1.02395e-07)
(1.8164e-07 3.29679e-08 -2.10111e-09)
(3.65043e-09 2.1123e-07 -2.71216e-10)
(-1.66e-10 -3.24314e-11 1.00398e-07)
(3.65787e-09 2.112e-07 -2.75695e-10)
(-1.92125e-10 -3.72401e-11 9.84045e-08)
(1.77924e-07 3.66545e-08 -2.29705e-09)
(2.11286e-07 3.71393e-09 -2.90204e-10)
(7.34851e-09 2.07602e-07 -5.66545e-10)
(-8.78242e-12 -2.42535e-11 1.14674e-07)
(2.076e-07 7.40207e-09 -5.66413e-10)
(7.39943e-09 2.07599e-07 -5.66932e-10)
(-2.45007e-11 -2.44557e-11 1.12633e-07)
(2.03896e-07 1.10651e-08 -8.25043e-10)
(7.42163e-09 2.07577e-07 -5.60622e-10)
(-4.01144e-11 -2.50019e-11 1.10572e-07)
(2.00185e-07 1.47207e-08 -1.06692e-09)
(7.41995e-09 2.07551e-07 -5.51898e-10)
(-5.63629e-11 -2.60445e-11 1.0851e-07)
(1.96477e-07 1.83792e-08 -1.295e-09)
(7.40718e-09 2.07536e-07 -5.43717e-10)
(-7.40363e-11 -2.76908e-11 1.0646e-07)
(1.92772e-07 2.20405e-08 -1.51248e-09)
(7.39055e-09 2.07537e-07 -5.37463e-10)
(-9.36725e-11 -3.00691e-11 1.04426e-07)
(1.89072e-07 2.57055e-08 -1.72215e-09)
(7.36736e-09 2.07546e-07 -5.34099e-10)
(-1.1556e-10 -3.32425e-11 1.02406e-07)
(1.85377e-07 2.93769e-08 -1.92613e-09)
(7.33773e-09 2.07552e-07 -5.34813e-10)
(-1.39269e-10 -3.69797e-11 1.00399e-07)
(1.81685e-07 3.30565e-08 -2.12576e-09)
(7.30199e-09 2.07541e-07 -5.40779e-10)
(-1.63577e-10 -4.0665e-11 9.83993e-08)
(7.32892e-09 2.07502e-07 -5.4865e-10)
(-1.8608e-10 -4.2672e-11 9.63887e-08)
(1.77958e-07 3.67427e-08 -2.32056e-09)
(2.11236e-07 3.71659e-09 -2.85217e-10)
(1.10078e-08 2.03883e-07 -8.20123e-10)
(-9.69502e-12 -4.00171e-11 1.12587e-07)
(2.07573e-07 7.41896e-09 -5.60084e-10)
(1.1061e-08 2.03893e-07 -8.24793e-10)
(-2.50168e-11 -4.00912e-11 1.10568e-07)
(2.03894e-07 1.10991e-08 -8.2131e-10)
(1.10961e-08 2.03893e-07 -8.21588e-10)
(-4.04184e-11 -4.03698e-11 1.08536e-07)
(2.002e-07 1.47615e-08 -1.06762e-09)
(1.11088e-08 2.03884e-07 -8.13715e-10)
(-5.64572e-11 -4.10238e-11 1.06494e-07)
(1.965e-07 1.84204e-08 -1.30004e-09)
(1.10983e-08 2.03872e-07 -8.04797e-10)
(-7.3852e-11 -4.2153e-11 1.04451e-07)
(1.92802e-07 2.20842e-08 -1.52125e-09)
(1.10746e-08 2.03867e-07 -7.97877e-10)
(-9.31468e-11 -4.38607e-11 1.0242e-07)
(1.89108e-07 2.57538e-08 -1.73399e-09)
(1.10422e-08 2.03869e-07 -7.94891e-10)
(-1.14493e-10 -4.61939e-11 1.00402e-07)
(1.85416e-07 2.94316e-08 -1.94006e-09)
(1.10014e-08 2.03865e-07 -7.97373e-10)
(-1.37207e-10 -4.88963e-11 9.83932e-08)
(1.81726e-07 3.31177e-08 -2.14069e-09)
(1.09523e-08 2.03843e-07 -8.06885e-10)
(-1.60064e-10 -5.14892e-11 9.63897e-08)
(1.10048e-08 2.03802e-07 -8.17982e-10)
(-1.79576e-10 -5.23423e-11 9.43715e-08)
(1.77995e-07 3.68026e-08 -2.33496e-09)
(2.11206e-07 3.71354e-09 -2.79872e-10)
(1.46666e-08 2.00164e-07 -1.05713e-09)
(-1.12394e-11 -5.63999e-11 1.10517e-07)
(2.07546e-07 7.41573e-09 -5.51895e-10)
(1.47193e-08 2.00185e-07 -1.06614e-09)
(-2.60168e-11 -5.6408e-11 1.08507e-07)
(2.03881e-07 1.1106e-08 -8.13395e-10)
(1.47571e-08 2.00197e-07 -1.06724e-09)
(-4.10356e-11 -5.64498e-11 1.0649e-07)
(2.00204e-07 1.47822e-08 -1.06266e-09)
(1.47793e-08 2.00201e-07 -1.06279e-09)
(-5.67661e-11 -5.67263e-11 1.04466e-07)
(1.96512e-07 1.84468e-08 -1.29915e-09)
(1.478e-08 2.002e-07 -1.05567e-09)
(-7.37722e-11 -5.73831e-11 1.02436e-07)
(1.92817e-07 2.21116e-08 -1.52404e-09)
(1.47563e-08 2.00194e-07 -1.04944e-09)
(-9.25859e-11 -5.85009e-11 1.00406e-07)
(1.89124e-07 2.57848e-08 -1.73959e-09)
(1.47143e-08 2.00186e-07 -1.04756e-09)
(-1.13305e-10 -6.01481e-11 9.83854e-08)
(1.85434e-07 2.94665e-08 -1.94744e-09)
(1.46627e-08 2.00171e-07 -1.05245e-09)
(-1.35093e-10 -6.2233e-11 9.63728e-08)
(1.81743e-07 3.31554e-08 -2.14889e-09)
(1.46024e-08 2.00138e-07 -1.06585e-09)
(-1.56768e-10 -6.4467e-11 9.43649e-08)
(1.46821e-08 2.00098e-07 -1.08024e-09)
(-1.73383e-10 -6.4726e-11 9.23423e-08)
(1.78012e-07 3.68409e-08 -2.34319e-09)
(2.11197e-07 3.70748e-09 -2.74977e-10)
(1.83248e-08 1.96448e-07 -1.28107e-09)
(-1.35558e-11 -7.42119e-11 1.08464e-07)
(2.07534e-07 7.4059e-09 -5.44169e-10)
(1.83791e-08 1.96478e-07 -1.29414e-09)
(-2.76455e-11 -7.41038e-11 1.0646e-07)
(2.03868e-07 1.10943e-08 -8.04987e-10)
(1.84189e-08 1.96499e-07 -1.29927e-09)
(-4.21016e-11 -7.38846e-11 1.04449e-07)
(2.00197e-07 1.47775e-08 -1.05548e-09)
(1.84424e-08 1.96509e-07 -1.29873e-09)
(-5.73863e-11 -7.37436e-11 1.02432e-07)
(1.96517e-07 1.84537e-08 -1.29486e-09)
(1.845e-08 1.96513e-07 -1.29497e-09)
(-7.39397e-11 -7.38839e-11 1.00412e-07)
(1.92823e-07 2.2122e-08 -1.52323e-09)
(1.84349e-08 1.96513e-07 -1.29094e-09)
(-9.22376e-11 -7.44838e-11 9.83874e-08)
(1.89124e-07 2.57941e-08 -1.74148e-09)
(1.83913e-08 1.965e-07 -1.29048e-09)
(-1.1227e-10 -7.55628e-11 9.63623e-08)
(1.85431e-07 2.94784e-08 -1.95086e-09)
(1.83259e-08 1.9647e-07 -1.29751e-09)
(-1.3331e-10 -7.70887e-11 9.43416e-08)
(1.81738e-07 3.31723e-08 -2.15291e-09)
(1.82533e-08 1.96423e-07 -1.31474e-09)
(-1.5411e-10 -7.89642e-11 9.23271e-08)