/*--------------------------------*- C++ -*----------------------------------*\
| =========                 |                                                 |
| \\      /  F ield         | foam-extend: Open Source CFD                    |
|  \\    /   O peration     | Version:     3.1                                |
|   \\  /    A nd           | Web:         http://www.extend-project.de       |
|    \\/     M anipulation  |                                                 |
\*---------------------------------------------------------------------------*/
FoamFile
{
    version     2.0;
    format      ascii;
    class       surfaceVectorField;
    location    "0.0007";
    object      Sf_0;
}
// * * * * * * * * * * * * * * * * * * * * * * * * * * * * * * * * * * * * * //

dimensions      [0 2 0 0 0 0 0];

internalField   nonuniform List<vector> 
45800
(
(2.10083e-07 3.66737e-09 -3.46371e-10)
(3.66713e-09 2.10082e-07 -3.47241e-10)
(-4.34348e-12 -4.32564e-12 1.15247e-07)
(2.06423e-07 7.33252e-09 -6.75107e-10)
(3.67309e-09 2.10087e-07 -3.46062e-10)
(-1.28107e-11 -4.60061e-12 1.13228e-07)
(2.0277e-07 1.09968e-08 -9.85202e-10)
(3.67402e-09 2.10099e-07 -3.41345e-10)
(-2.14901e-11 -5.1778e-12 1.11204e-07)
(1.99128e-07 1.46625e-08 -1.28222e-09)
(3.67315e-09 2.10124e-07 -3.36962e-10)
(-3.11162e-11 -6.16118e-12 1.09186e-07)
(1.95498e-07 1.83309e-08 -1.57201e-09)
(3.67225e-09 2.10167e-07 -3.34197e-10)
(-4.2467e-11 -7.6873e-12 1.07175e-07)
(1.91883e-07 2.20028e-08 -1.8592e-09)
(3.67131e-09 2.10229e-07 -3.33427e-10)
(-5.63185e-11 -9.92721e-12 1.05171e-07)
(1.88287e-07 2.56798e-08 -2.14723e-09)
(3.67012e-09 2.10313e-07 -3.35191e-10)
(-7.3532e-11 -1.31281e-11 1.03173e-07)
(1.84713e-07 2.93639e-08 -2.43782e-09)
(3.66866e-09 2.10422e-07 -3.40206e-10)
(-9.48905e-11 -1.75627e-11 1.0118e-07)
(1.81167e-07 3.3058e-08 -2.73027e-09)
(3.66684e-09 2.10559e-07 -3.49307e-10)
(-1.21024e-10 -2.33475e-11 9.91903e-08)
(3.67116e-09 2.10728e-07 -3.60063e-10)
(-1.53438e-10 -2.92216e-11 9.72007e-08)
(1.7765e-07 3.67703e-08 -3.02298e-09)
(2.10086e-07 3.67281e-09 -3.45214e-10)
(7.33206e-09 2.06422e-07 -6.75483e-10)
(-4.61015e-12 -1.27903e-11 1.13226e-07)
(2.06432e-07 7.34142e-09 -6.76665e-10)
(7.34095e-09 2.06431e-07 -6.77513e-10)
(-1.30163e-11 -1.2989e-11 1.11215e-07)
(2.02782e-07 1.10065e-08 -9.92515e-10)
(7.34502e-09 2.06447e-07 -6.73198e-10)
(-2.16975e-11 -1.34744e-11 1.09199e-07)
(1.99142e-07 1.46718e-08 -1.29556e-09)
(7.34513e-09 2.06473e-07 -6.67489e-10)
(-3.13231e-11 -1.4355e-11 1.07185e-07)
(1.95513e-07 1.83402e-08 -1.59068e-09)
(7.34363e-09 2.06515e-07 -6.63817e-10)
(-4.26487e-11 -1.57455e-11 1.05175e-07)
(1.91899e-07 2.20126e-08 -1.88253e-09)
(7.34192e-09 2.06575e-07 -6.63777e-10)
(-5.64265e-11 -1.7812e-11 1.03172e-07)
(1.88303e-07 2.56907e-08 -2.17458e-09)
(7.33965e-09 2.06656e-07 -6.6852e-10)
(-7.34632e-11 -2.07247e-11 1.01175e-07)
(1.84729e-07 2.93772e-08 -2.4684e-09)
(7.33701e-09 2.0676e-07 -6.79377e-10)
(-9.43675e-11 -2.45118e-11 9.91815e-08)
(1.81181e-07 3.30747e-08 -2.76298e-09)
(7.3343e-09 2.0689e-07 -6.97506e-10)
(-1.19503e-10 -2.89586e-11 9.71907e-08)
(7.34519e-09 2.0705e-07 -7.17023e-10)
(-1.48589e-10 -3.30052e-11 9.51947e-08)
(1.77655e-07 3.67864e-08 -3.05341e-09)
(2.10098e-07 3.6733e-09 -3.41019e-10)
(1.09966e-08 2.0277e-07 -9.84802e-10)
(-5.17128e-12 -2.14976e-11 1.11202e-07)
(2.06446e-07 7.34452e-09 -6.72354e-10)
(1.10057e-08 2.02782e-07 -9.92561e-10)
(-1.34854e-11 -2.16807e-11 1.09198e-07)
(2.02801e-07 1.10128e-08 -9.92463e-10)
(1.10122e-08 2.02801e-07 -9.93136e-10)
(-2.21604e-11 -2.21293e-11 1.07191e-07)
(1.99163e-07 1.46794e-08 -1.3017e-09)
(1.10152e-08 2.0283e-07 -9.90211e-10)
(-3.17743e-11 -2.29629e-11 1.05182e-07)
(1.95535e-07 1.8348e-08 -1.6026e-09)
(1.10145e-08 2.0287e-07 -9.8808e-10)
(-4.30449e-11 -2.42906e-11 1.03175e-07)
(1.91922e-07 2.20211e-08 -1.89914e-09)
(1.10122e-08 2.02928e-07 -9.90323e-10)
(-5.67208e-11 -2.62616e-11 1.01172e-07)
(1.88326e-07 2.57004e-08 -2.19471e-09)
(1.10092e-08 2.03005e-07 -9.99202e-10)
(-7.34932e-11 -2.90357e-11 9.91748e-08)
(1.84751e-07 2.93883e-08 -2.49041e-09)
(1.10058e-08 2.03105e-07 -1.01641e-09)
(-9.37418e-11 -3.2619e-11 9.71807e-08)
(1.812e-07 3.30872e-08 -2.78511e-09)
(1.10025e-08 2.03228e-07 -1.0434e-09)
(-1.17692e-10 -3.68915e-11 9.51879e-08)
(1.10211e-08 2.0338e-07 -1.07065e-09)
(-1.43948e-10 -4.07718e-11 9.31885e-08)
(1.77668e-07 3.67979e-08 -3.0733e-09)
(2.10124e-07 3.67294e-09 -3.37125e-10)
(1.46626e-08 1.99128e-07 -1.2816e-09)
(-6.14798e-12 -3.11449e-11 1.09185e-07)
(2.06473e-07 7.34433e-09 -6.67297e-10)
(1.46716e-08 1.99142e-07 -1.29506e-09)
(-1.43425e-11 -3.1343e-11 1.07184e-07)
(2.02829e-07 1.10146e-08 -9.89521e-10)
(1.46786e-08 1.99162e-07 -1.30169e-09)
(-2.29733e-11 -3.17648e-11 1.05181e-07)
(1.99193e-07 1.46841e-08 -1.30358e-09)
(1.46836e-08 1.99193e-07 -1.30419e-09)
(-3.25801e-11 -3.25514e-11 1.03178e-07)
(1.95566e-07 1.8354e-08 -1.61017e-09)
(1.46855e-08 1.99234e-07 -1.30597e-09)
(-4.37954e-11 -3.38449e-11 1.01174e-07)
(1.91952e-07 2.20277e-08 -1.91142e-09)
(1.46838e-08 1.9929e-07 -1.31135e-09)
(-5.7357e-11 -3.57863e-11 9.91708e-08)
(1.88355e-07 2.57081e-08 -2.21002e-09)
(1.468e-08 1.99363e-07 -1.32444e-09)
(-7.39028e-11 -3.85605e-11 9.71718e-08)
(1.84778e-07 2.9397e-08 -2.50688e-09)
(1.4676e-08 1.99458e-07 -1.34789e-09)
(-9.36625e-11 -4.23087e-11 9.51757e-08)
(1.81225e-07 3.30966e-08 -2.80102e-09)
(1.46725e-08 1.99576e-07 -1.38321e-09)
(-1.16798e-10 -4.70895e-11 9.31807e-08)
(1.46991e-08 1.99721e-07 -1.41723e-09)
(-1.405e-10 -5.14426e-11 9.11787e-08)
(1.77688e-07 3.6807e-08 -3.08707e-09)
(2.10167e-07 3.67226e-09 -3.34461e-10)
(1.83309e-08 1.95499e-07 -1.57143e-09)
(-7.6782e-12 -4.24993e-11 1.07175e-07)
(2.06514e-07 7.34337e-09 -6.64162e-10)
(1.83402e-08 1.95513e-07 -1.59013e-09)
(-1.57236e-11 -4.26811e-11 1.05175e-07)
(2.0287e-07 1.10137e-08 -9.88022e-10)
(1.83478e-08 1.95535e-07 -1.60217e-09)
(-2.42647e-11 -4.30587e-11 1.03174e-07)
(1.99234e-07 1.4685e-08 -1.30534e-09)
(1.83532e-08 1.95565e-07 -1.6102e-09)
(-3.38516e-11 -4.37733e-11 1.01172e-07)
(1.95607e-07 1.83575e-08 -1.61644e-09)
(1.83568e-08 1.95607e-07 -1.61714e-09)
(-4.5053e-11 -4.50132e-11 9.91708e-08)
(1.91992e-07 2.20324e-08 -1.92226e-09)
(1.83575e-08 1.95662e-07 -1.62655e-09)
(-5.85689e-11 -4.69945e-11 9.71689e-08)
(1.88393e-07 2.57131e-08 -2.22375e-09)
(1.83544e-08 1.95733e-07 -1.64314e-09)
(-7.49622e-11 -4.98841e-11 9.51675e-08)
(1.84814e-07 2.94031e-08 -2.52125e-09)
(1.83492e-08 1.95822e-07 -1.67143e-09)
(-9.45208e-11 -5.38995e-11 9.31677e-08)
(1.81259e-07 3.31041e-08 -2.81415e-09)
(1.83454e-08 1.95934e-07 -1.71382e-09)
(-1.17304e-10 -5.9295e-11 9.11696e-08)
(1.83796e-08 1.96073e-07 -1.75359e-09)
(-1.38498e-10 -6.40784e-11 8.91653e-08)
(1.77716e-07 3.68155e-08 -3.09756e-09)
(2.10229e-07 3.67132e-09 -3.33677e-10)
(2.20028e-08 1.91884e-07 -1.8587e-09)
(-9.92076e-12 -5.63434e-11 1.05171e-07)
(2.06575e-07 7.34195e-09 -6.64243e-10)
(2.20126e-08 1.91899e-07 -1.88206e-09)
(-1.77883e-11 -5.64511e-11 1.03172e-07)
(2.02928e-07 1.10119e-08 -9.90786e-10)
(2.20211e-08 1.91922e-07 -1.89868e-09)
(-2.62207e-11 -5.67442e-11 1.01172e-07)
(1.99289e-07 1.46828e-08 -1.31139e-09)
(2.20274e-08 1.91952e-07 -1.9111e-09)
(-3.57671e-11 -5.73731e-11 9.917e-08)
(1.95662e-07 1.83569e-08 -1.62581e-09)
(2.20314e-08 1.91991e-07 -1.92248e-09)
(-4.69993e-11 -5.8544e-11 9.71677e-08)
(1.92046e-07 2.20347e-08 -1.93508e-09)
(2.20336e-08 1.92045e-07 -1.93615e-09)
(-6.05495e-11 -6.04961e-11 9.51662e-08)
(1.88444e-07 2.57168e-08 -2.23928e-09)
(2.20333e-08 1.92114e-07 -1.95586e-09)
(-7.68991e-11 -6.34574e-11 9.31636e-08)
(1.84861e-07 2.94074e-08 -2.53705e-09)
(2.20285e-08 1.92199e-07 -1.98682e-09)
(-9.64245e-11 -6.76722e-11 9.11593e-08)
(1.81302e-07 3.31106e-08 -2.82738e-09)
(2.20238e-08 1.92304e-07 -2.03329e-09)
(-1.19083e-10 -7.33271e-11 8.91553e-08)
(2.20635e-08 1.92437e-07 -2.07688e-09)
(-1.37751e-10 -7.79976e-11 8.71474e-08)
(1.77756e-07 3.68247e-08 -3.10654e-09)
(2.10313e-07 3.67013e-09 -3.35426e-10)
(2.56799e-08 1.88287e-07 -2.14684e-09)
(-1.31216e-11 -7.35526e-11 1.03173e-07)
(2.06656e-07 7.33967e-09 -6.68967e-10)
(2.56908e-08 1.88303e-07 -2.17422e-09)
(-2.06994e-11 -7.34815e-11 1.01175e-07)
(2.03005e-07 1.10091e-08 -9.99823e-10)
(2.57005e-08 1.88326e-07 -2.19433e-09)
(-2.89944e-11 -7.35086e-11 9.9175e-08)
(1.99363e-07 1.46796e-08 -1.32512e-09)
(2.57081e-08 1.88355e-07 -2.20962e-09)
(-3.85256e-11 -7.39106e-11 9.71717e-08)
(1.95731e-07 1.83531e-08 -1.64325e-09)
(2.57129e-08 1.88393e-07 -2.22339e-09)
(-4.98301e-11 -7.49379e-11 9.51664e-08)
(1.92113e-07 2.20325e-08 -1.95468e-09)
(2.57155e-08 1.88442e-07 -2.23944e-09)
(-6.34142e-11 -7.67691e-11 9.31614e-08)
(1.88509e-07 2.57179e-08 -2.26022e-09)
(2.5717e-08 1.88508e-07 -2.26126e-09)
(-7.98202e-11 -7.9637e-11 9.1157e-08)
(1.84921e-07 2.94112e-08 -2.55723e-09)
(2.57154e-08 1.88589e-07 -2.29289e-09)
(-9.90737e-11 -8.35202e-11 8.91486e-08)
(1.81355e-07 3.31174e-08 -2.84276e-09)
(2.57113e-08 1.88686e-07 -2.33903e-09)
(-1.21356e-10 -8.84157e-11 8.71362e-08)
(2.57517e-08 1.88811e-07 -2.38315e-09)
(-1.37678e-10 -9.20528e-11 8.51226e-08)
(1.77805e-07 3.68358e-08 -3.11479e-09)
(2.10422e-07 3.66868e-09 -3.40422e-10)
(2.93639e-08 1.84713e-07 -2.4376e-09)
(-1.75548e-11 -9.49111e-11 1.0118e-07)
(2.0676e-07 7.33707e-09 -6.79791e-10)
(2.93772e-08 1.84729e-07 -2.46817e-09)
(-2.44818e-11 -9.43833e-11 9.91818e-08)
(2.03105e-07 1.10059e-08 -1.017e-09)
(2.93884e-08 1.84751e-07 -2.49013e-09)
(-3.25695e-11 -9.3747e-11 9.71809e-08)
(1.99458e-07 1.46762e-08 -1.34868e-09)
(2.93972e-08 1.84779e-07 -2.50649e-09)
(-4.22455e-11 -9.36435e-11 9.51759e-08)
(1.95821e-07 1.8349e-08 -1.67222e-09)
(2.94034e-08 1.84814e-07 -2.52063e-09)
(-5.37994e-11 -9.44637e-11 9.31675e-08)
(1.92197e-07 2.20274e-08 -1.9864e-09)
(2.94074e-08 1.8486e-07 -2.53619e-09)
(-6.74515e-11 -9.62528e-11 9.1157e-08)
(1.88587e-07 2.57146e-08 -2.29164e-09)
(2.941e-08 1.8492e-07 -2.55672e-09)
(-8.3614e-11 -9.87896e-11 8.91462e-08)
(1.84993e-07 2.94128e-08 -2.5848e-09)
(2.94119e-08 1.84992e-07 -2.58515e-09)
(-1.01689e-10 -1.01376e-10 8.71303e-08)
(1.81417e-07 3.31237e-08 -2.86192e-09)
(2.94095e-08 1.85079e-07 -2.62582e-09)
(-1.22864e-10 -1.04068e-10 8.51082e-08)
(2.94457e-08 1.85191e-07 -2.66629e-09)
(-1.36841e-10 -1.04917e-10 8.3087e-08)
(1.7786e-07 3.68488e-08 -3.12205e-09)
(2.10559e-07 3.66688e-09 -3.49496e-10)
(3.3058e-08 1.81168e-07 -2.73021e-09)
(-2.33383e-11 -1.21043e-10 9.91906e-08)
(2.06891e-07 7.33438e-09 -6.97859e-10)
(3.30748e-08 1.81181e-07 -2.76291e-09)
(-2.89249e-11 -1.19521e-10 9.7191e-08)
(2.03228e-07 1.10026e-08 -1.04388e-09)
(3.30873e-08 1.812e-07 -2.78497e-09)
(-3.68334e-11 -1.17704e-10 9.51882e-08)
(1.99576e-07 1.46727e-08 -1.38379e-09)
(3.30968e-08 1.81225e-07 -2.80074e-09)
(-4.70073e-11 -1.168e-10 9.31809e-08)
(1.95934e-07 1.83458e-08 -1.71446e-09)
(3.31044e-08 1.81258e-07 -2.81364e-09)
(-5.91774e-11 -1.17291e-10 9.11698e-08)
(1.92304e-07 2.20237e-08 -2.03335e-09)
(3.3111e-08 1.81301e-07 -2.82653e-09)
(-7.30856e-11 -1.19083e-10 8.91547e-08)
(1.88685e-07 2.57101e-08 -2.33846e-09)
(3.3117e-08 1.81355e-07 -2.84186e-09)
(-8.84969e-11 -1.21425e-10 8.71351e-08)
(1.85079e-07 2.94089e-08 -2.62529e-09)
(3.31228e-08 1.81417e-07 -2.86155e-09)
(-1.04319e-10 -1.22858e-10 8.51075e-08)
(1.81486e-07 3.3124e-08 -2.8891e-09)
(3.31236e-08 1.81486e-07 -2.88929e-09)
(-1.2197e-10 -1.21847e-10 8.3071e-08)
(3.31508e-08 1.81566e-07 -2.91719e-09)
(-1.30215e-10 -1.14267e-10 8.10319e-08)
(1.77912e-07 3.68629e-08 -3.12702e-09)
(2.10729e-07 3.6712e-09 -3.60217e-10)
(-2.92101e-11 -1.5344e-10 9.72009e-08)
(3.67704e-08 1.7765e-07 -3.02302e-09)
(2.0705e-07 7.34527e-09 -7.17303e-10)
(-3.29701e-11 -1.48592e-10 9.51949e-08)
(3.67865e-08 1.77655e-07 -3.05344e-09)
(2.0338e-07 1.10212e-08 -1.07101e-09)
(-4.07149e-11 -1.43955e-10 9.31887e-08)
(3.6798e-08 1.77668e-07 -3.07328e-09)
(1.99721e-07 1.46992e-08 -1.41762e-09)
(-5.13703e-11 -1.40519e-10 9.11789e-08)
(3.68071e-08 1.77688e-07 -3.08693e-09)
(1.96074e-07 1.83797e-08 -1.75393e-09)
(-6.39922e-11 -1.38547e-10 8.91654e-08)
(3.68157e-08 1.77716e-07 -3.09727e-09)
(1.92438e-07 2.20634e-08 -2.07702e-09)
(-7.78886e-11 -1.37883e-10 8.71476e-08)
(3.68249e-08 1.77755e-07 -3.10611e-09)
(1.88811e-07 2.57514e-08 -2.38319e-09)
(-9.21209e-11 -1.37858e-10 8.51229e-08)
(3.68358e-08 1.77805e-07 -3.1143e-09)
(1.8519e-07 2.94452e-08 -2.66615e-09)
(-1.04964e-10 -1.36879e-10 8.30867e-08)
(3.68487e-08 1.7786e-07 -3.1216e-09)
(1.81565e-07 3.31507e-08 -2.91682e-09)
(-1.14255e-10 -1.30026e-10 8.10311e-08)
(3.68626e-08 1.77911e-07 -3.12668e-09)
(-1.14194e-10 -1.13943e-10 7.89659e-08)
(1.77955e-07 3.68755e-08 -3.12873e-09)
(3.6875e-08 1.77955e-07 -3.12868e-09)
(2.10615e-07 3.67373e-09 -3.03783e-10)
(3.67303e-09 2.10612e-07 -3.0454e-10)
(-6.55424e-12 -6.52921e-12 1.15855e-07)
(2.06931e-07 7.33998e-09 -5.91353e-10)
(3.69002e-09 2.10605e-07 -3.03312e-10)
(-1.92393e-11 -6.92918e-12 1.13818e-07)
(2.0325e-07 1.10014e-08 -8.61266e-10)
(3.69212e-09 2.10596e-07 -2.98754e-10)
(-3.21042e-11 -7.76264e-12 1.11772e-07)
(1.99576e-07 1.46637e-08 -1.11798e-09)
(3.68859e-09 2.10604e-07 -2.94309e-10)
(-4.61108e-11 -9.16884e-12 1.09737e-07)
(1.95912e-07 1.83277e-08 -1.36632e-09)
(3.68447e-09 2.10632e-07 -2.91121e-10)
(-6.22473e-11 -1.13202e-11 1.07714e-07)
(1.92257e-07 2.19943e-08 -1.61021e-09)
(3.67959e-09 2.10679e-07 -2.89528e-10)
(-8.14021e-11 -1.44168e-11 1.05704e-07)
(1.88615e-07 2.56639e-08 -1.85282e-09)
(3.6732e-09 2.10744e-07 -2.90014e-10)
(-1.04441e-10 -1.87334e-11 1.03706e-07)
(1.84987e-07 2.93375e-08 -2.09623e-09)
(3.66495e-09 2.10823e-07 -2.93241e-10)
(-1.31914e-10 -2.45297e-11 1.01717e-07)
(1.81375e-07 3.30173e-08 -2.34106e-09)
(3.6543e-09 2.10909e-07 -3.00004e-10)
(-1.63871e-10 -3.17801e-11 9.97351e-08)
(3.65933e-09 2.10996e-07 -3.08528e-10)
(-2.01137e-10 -3.85874e-11 9.7756e-08)
(1.77764e-07 3.67178e-08 -2.58782e-09)
(2.10604e-07 3.68923e-09 -3.02571e-10)
(7.33867e-09 2.06929e-07 -5.91678e-10)
(-6.94186e-12 -1.92119e-11 1.13816e-07)
(2.06936e-07 7.36527e-09 -5.92367e-10)
(7.36391e-09 2.06935e-07 -5.93102e-10)
(-1.95098e-11 -1.94723e-11 1.11795e-07)
(2.03265e-07 1.10288e-08 -8.67191e-10)
(7.37446e-09 2.06939e-07 -5.88547e-10)
(-3.23543e-11 -2.01163e-11 1.09764e-07)
(1.99596e-07 1.46896e-08 -1.12907e-09)
(7.37273e-09 2.0695e-07 -5.82408e-10)
(-4.63366e-11 -2.1291e-11 1.07735e-07)
(1.95934e-07 1.83535e-08 -1.382e-09)
(7.36536e-09 2.06975e-07 -5.77724e-10)
(-6.24104e-11 -2.31358e-11 1.05715e-07)
(1.92283e-07 2.20211e-08 -1.62994e-09)
(7.35616e-09 2.07019e-07 -5.75921e-10)
(-8.14334e-11 -2.58428e-11 1.03706e-07)
(1.88643e-07 2.56936e-08 -1.87608e-09)
(7.34368e-09 2.0708e-07 -5.7803e-10)
(-1.04204e-10 -2.95823e-11 1.01709e-07)
(1.85017e-07 2.93738e-08 -2.12238e-09)
(7.32807e-09 2.07152e-07 -5.85287e-10)
(-1.31052e-10 -3.42896e-11 9.97199e-08)
(1.81404e-07 3.30638e-08 -2.36919e-09)
(7.30956e-09 2.0723e-07 -5.98859e-10)
(-1.61725e-10 -3.95369e-11 9.77364e-08)
(7.32645e-09 2.07306e-07 -6.14325e-10)
(-1.94831e-10 -4.37794e-11 9.57454e-08)
(1.77783e-07 3.67646e-08 -2.61411e-09)
(2.10594e-07 3.69004e-09 -2.98467e-10)
(1.10009e-08 2.0325e-07 -8.60911e-10)
(-7.75162e-12 -3.21188e-11 1.1177e-07)
(2.06938e-07 7.37301e-09 -5.87809e-10)
(1.10267e-08 2.03263e-07 -8.67217e-10)
(-2.01296e-11 -3.23329e-11 1.09761e-07)
(2.03279e-07 1.10451e-08 -8.66096e-10)
(1.10436e-08 2.03278e-07 -8.66666e-10)
(-3.29164e-11 -3.2874e-11 1.07747e-07)
(1.99618e-07 1.4709e-08 -1.13319e-09)
(1.10491e-08 2.03297e-07 -8.62553e-10)
(-4.68312e-11 -3.39036e-11 1.0573e-07)
(1.9596e-07 1.8373e-08 -1.39105e-09)
(1.10426e-08 2.03322e-07 -8.58647e-10)
(-6.27703e-11 -3.55506e-11 1.03714e-07)
(1.92312e-07 2.20419e-08 -1.64308e-09)
(1.10293e-08 2.03362e-07 -8.58122e-10)
(-8.15879e-11 -3.79799e-11 1.01706e-07)
(1.88674e-07 2.57171e-08 -1.89239e-09)
(1.10119e-08 2.03417e-07 -8.63014e-10)
(-1.03932e-10 -4.13424e-11 9.97091e-08)
(1.85048e-07 2.94011e-08 -2.14055e-09)
(1.09903e-08 2.03481e-07 -8.74913e-10)
(-1.29842e-10 -4.55392e-11 9.77184e-08)
(1.81434e-07 3.3095e-08 -2.3878e-09)
(1.0965e-08 2.03549e-07 -8.9533e-10)
(-1.58949e-10 -5.02653e-11 9.57316e-08)
(1.09972e-08 2.03619e-07 -9.17051e-10)
(-1.88532e-10 -5.39458e-11 9.37346e-08)
(1.77808e-07 3.67949e-08 -2.63113e-09)
(2.10603e-07 3.688e-09 -2.94456e-10)
(1.46638e-08 1.99577e-07 -1.11743e-09)
(-9.14816e-12 -4.61574e-11 1.09736e-07)
(2.06947e-07 7.37045e-09 -5.82242e-10)
(1.46889e-08 1.99595e-07 -1.12862e-09)
(-2.12697e-11 -4.63697e-11 1.07733e-07)
(2.03295e-07 1.10475e-08 -8.6196e-10)
(1.47068e-08 1.99616e-07 -1.13316e-09)
(-3.39154e-11 -4.68211e-11 1.05727e-07)
(1.99642e-07 1.47185e-08 -1.13299e-09)
(1.4717e-08 1.99641e-07 -1.13349e-09)
(-4.77394e-11 -4.77015e-11 1.0372e-07)
(1.95988e-07 1.83851e-08 -1.39566e-09)
(1.47162e-08 1.99671e-07 -1.13262e-09)
(-6.35089e-11 -4.91821e-11 1.0171e-07)
(1.9234e-07 2.20545e-08 -1.65178e-09)
(1.47028e-08 1.99708e-07 -1.13433e-09)
(-8.2062e-11 -5.14091e-11 9.97031e-08)
(1.88702e-07 2.57317e-08 -1.9039e-09)
(1.468e-08 1.99756e-07 -1.14228e-09)
(-1.03978e-10 -5.45575e-11 9.77032e-08)
(1.85075e-07 2.94179e-08 -2.15343e-09)
(1.46527e-08 1.99811e-07 -1.15897e-09)
(-1.29109e-10 -5.8697e-11 9.57092e-08)
(1.81458e-07 3.31132e-08 -2.40068e-09)
(1.46217e-08 1.9987e-07 -1.18604e-09)
(-1.57045e-10 -6.37338e-11 9.37186e-08)
(1.46703e-08 1.99935e-07 -1.21347e-09)
(-1.83338e-10 -6.75743e-11 9.17172e-08)
(1.77828e-07 3.68132e-08 -2.64275e-09)
(2.10632e-07 3.68451e-09 -2.91361e-10)
(1.83277e-08 1.95912e-07 -1.3658e-09)
(-1.13057e-11 -6.22987e-11 1.07715e-07)
(2.06974e-07 7.36464e-09 -5.78037e-10)
(1.83535e-08 1.95935e-07 -1.38151e-09)
(-2.31005e-11 -6.24616e-11 1.05715e-07)
(2.0332e-07 1.10404e-08 -8.58606e-10)
(1.83723e-08 1.9596e-07 -1.39066e-09)
(-3.55093e-11 -6.27935e-11 1.03712e-07)
(1.9967e-07 1.47148e-08 -1.13209e-09)
(1.83829e-08 1.95986e-07 -1.39566e-09)
(-4.91882e-11 -6.34798e-11 1.01708e-07)
(1.9602e-07 1.83875e-08 -1.39851e-09)
(1.83856e-08 1.96018e-07 -1.39907e-09)
(-6.48041e-11 -6.47503e-11 9.97037e-08)
(1.92371e-07 2.20586e-08 -1.6586e-09)
(1.83766e-08 1.96057e-07 -1.40406e-09)
(-8.3139e-11 -6.6847e-11 9.76987e-08)
(1.88728e-07 2.57352e-08 -1.91344e-09)
(1.8353e-08 1.96099e-07 -1.41476e-09)
(-1.04664e-10 -6.99061e-11 9.56948e-08)
(1.85097e-07 2.94228e-08 -2.16398e-09)
(1.83182e-08 1.96144e-07 -1.43532e-09)
(-1.29314e-10 -7.40761e-11 9.36946e-08)
(1.81477e-07 3.31209e-08 -2.41085e-09)
(1.82808e-08 1.96193e-07 -1.46828e-09)
(-1.5656e-10 -7.94874e-11 9.16987e-08)
(1.83449e-08 1.96252e-07 -1.50089e-09)
(-1.79482e-10 -8.33515e-11 8.96933e-08)
(1.77843e-07 3.68235e-08 -2.65148e-09)
(2.10679e-07 3.67964e-09 -2.89756e-10)
(2.19943e-08 1.92258e-07 -1.60977e-09)
(-1.44062e-11 -8.14408e-11 1.05705e-07)
(2.07019e-07 7.35623e-09 -5.76345e-10)
(2.20211e-08 1.92284e-07 -1.62951e-09)
(-2.58048e-11 -8.14715e-11 1.03707e-07)
(2.03361e-07 1.10285e-08 -8.58545e-10)
(2.20419e-08 1.92313e-07 -1.64266e-09)
(-3.79164e-11 -8.16238e-11 1.01706e-07)
(1.99706e-07 1.47001e-08 -1.13437e-09)
(2.20537e-08 1.92339e-07 -1.65147e-09)
(-5.1378e-11 -8.20867e-11 9.97017e-08)
(1.96056e-07 1.83749e-08 -1.40344e-09)
(2.20558e-08 1.92368e-07 -1.65873e-09)
(-6.68521e-11 -8.31067e-11 9.76964e-08)
(1.92408e-07 2.20521e-08 -1.66659e-09)
(2.20493e-08 1.92404e-07 -1.66744e-09)
(-8.50177e-11 -8.4947e-11 9.56927e-08)
(1.88759e-07 2.57304e-08 -1.92406e-09)
(2.20305e-08 1.92445e-07 -1.68092e-09)
(-1.06225e-10 -8.78105e-11 9.36873e-08)
(1.85119e-07 2.94173e-08 -2.1754e-09)
(2.19926e-08 1.92481e-07 -1.70387e-09)
(-1.30524e-10 -9.18669e-11 9.16792e-08)
(1.81491e-07 3.31192e-08 -2.42092e-09)
(2.19473e-08 1.92514e-07 -1.74054e-09)
(-1.57238e-10 -9.71176e-11 8.96731e-08)
(2.20206e-08 1.92565e-07 -1.77707e-09)
(-1.7664e-10 -1.00238e-10 8.76617e-08)
(1.77854e-07 3.68283e-08 -2.65905e-09)
(2.10744e-07 3.67324e-09 -2.90229e-10)
(2.5664e-08 1.88615e-07 -1.85247e-09)
(-1.87225e-11 -1.04472e-10 1.03706e-07)
(2.0708e-07 7.34374e-09 -5.78437e-10)
(2.56937e-08 1.88644e-07 -1.87574e-09)
(-2.95417e-11 -1.04231e-10 1.01709e-07)
(2.03417e-07 1.10118e-08 -8.63579e-10)
(2.57173e-08 1.88675e-07 -1.89204e-09)
(-4.12783e-11 -1.03955e-10 9.97096e-08)
(1.99755e-07 1.46789e-08 -1.1429e-09)
(2.5732e-08 1.88702e-07 -1.90352e-09)
(-5.45044e-11 -1.0399e-10 9.77031e-08)
(1.96096e-07 1.83493e-08 -1.41487e-09)
(2.57348e-08 1.88727e-07 -1.91309e-09)
(-6.98303e-11 -1.04631e-10 9.56927e-08)
(1.92443e-07 2.20282e-08 -1.67992e-09)
(2.57269e-08 1.88755e-07 -1.92411e-09)
(-8.77522e-11 -1.06051e-10 9.36832e-08)
(1.88792e-07 2.57126e-08 -1.939e-09)
(2.571e-08 1.8879e-07 -1.93983e-09)
(-1.08696e-10 -1.08454e-10 9.1675e-08)
(1.8514e-07 2.94039e-08 -2.19043e-09)
(2.56772e-08 1.88818e-07 -1.96392e-09)
(-1.32245e-10 -1.11651e-10 8.96601e-08)
(1.81496e-07 3.3111e-08 -2.43292e-09)
(2.56283e-08 1.88834e-07 -2.00098e-09)
(-1.5797e-10 -1.15375e-10 8.76391e-08)
(2.56975e-08 1.8887e-07 -2.03894e-09)
(-1.74006e-10 -1.16569e-10 8.56179e-08)
(1.77855e-07 3.68301e-08 -2.66638e-09)
(2.10823e-07 3.66502e-09 -2.93438e-10)
(2.93376e-08 1.84987e-07 -2.09602e-09)
(-2.45165e-11 -1.31943e-10 1.01717e-07)
(2.07153e-07 7.32822e-09 -5.85666e-10)
(2.9374e-08 1.85017e-07 -2.12216e-09)
(-3.42424e-11 -1.31074e-10 9.97205e-08)
(2.03481e-07 1.09906e-08 -8.75455e-10)
(2.94014e-08 1.85049e-07 -2.14028e-09)
(-4.54638e-11 -1.29849e-10 9.7719e-08)
(1.99811e-07 1.46532e-08 -1.15969e-09)
(2.94184e-08 1.85075e-07 -2.15305e-09)
(-5.86044e-11 -1.29082e-10 9.57096e-08)
(1.96142e-07 1.83177e-08 -1.43603e-09)
(2.94238e-08 1.85097e-07 -2.16341e-09)
(-7.39371e-11 -1.29235e-10 9.36941e-08)
(1.92476e-07 2.19894e-08 -1.70353e-09)
(2.94174e-08 1.85117e-07 -2.1746e-09)
(-9.1573e-11 -1.3029e-10 9.1675e-08)
(1.88814e-07 2.56752e-08 -1.96286e-09)
(2.94006e-08 1.85137e-07 -2.18992e-09)
(-1.11773e-10 -1.31862e-10 8.96556e-08)
(1.85148e-07 2.93764e-08 -2.21196e-09)
(2.93742e-08 1.85149e-07 -2.2122e-09)
(-1.33328e-10 -1.32913e-10 8.76277e-08)
(1.81485e-07 3.30935e-08 -2.44858e-09)
(2.93256e-08 1.85146e-07 -2.24572e-09)
(-1.57094e-10 -1.33305e-10 8.55896e-08)
(2.93775e-08 1.8516e-07 -2.28174e-09)
(-1.69809e-10 -1.30523e-10 8.35547e-08)
(1.77838e-07 3.68296e-08 -2.67352e-09)
(2.1091e-07 3.65439e-09 -3.00178e-10)
(3.30174e-08 1.81376e-07 -2.34098e-09)
(-3.17649e-11 -1.63896e-10 9.97358e-08)
(2.0723e-07 7.30977e-09 -5.99185e-10)
(3.3064e-08 1.81404e-07 -2.36909e-09)
(-3.94845e-11 -1.61747e-10 9.7737e-08)
(2.0355e-07 1.09653e-08 -8.95779e-10)
(3.30954e-08 1.81434e-07 -2.38764e-09)
(-5.01779e-11 -1.58963e-10 9.57321e-08)
(1.99871e-07 1.46224e-08 -1.18658e-09)
(3.31138e-08 1.81458e-07 -2.40039e-09)
(-6.36148e-11 -1.57046e-10 9.3719e-08)
(1.96193e-07 1.82822e-08 -1.46889e-09)
(3.31217e-08 1.81477e-07 -2.41036e-09)
(-7.93246e-11 -1.56542e-10 9.1699e-08)
(1.92514e-07 2.19471e-08 -1.74065e-09)
(3.31203e-08 1.8149e-07 -2.42015e-09)
(-9.67954e-11 -1.57234e-10 8.9672e-08)
(1.88831e-07 2.56253e-08 -2.00051e-09)
(3.31099e-08 1.81495e-07 -2.4321e-09)
(-1.15483e-10 -1.58056e-10 8.76372e-08)
(1.85144e-07 2.93239e-08 -2.24528e-09)
(3.3091e-08 1.81484e-07 -2.4482e-09)
(-1.33646e-10 -1.57089e-10 8.55883e-08)
(1.81451e-07 3.30501e-08 -2.4719e-09)
(3.30491e-08 1.81451e-07 -2.47201e-09)
(-1.52591e-10 -1.52437e-10 8.35239e-08)
(3.30749e-08 1.81409e-07 -2.49816e-09)
(-1.5822e-10 -1.39275e-10 8.14559e-08)
(1.77782e-07 3.68263e-08 -2.67943e-09)
(2.10996e-07 3.65944e-09 -3.0867e-10)
(-3.85687e-11 -2.01136e-10 9.77565e-08)
(3.67179e-08 1.77764e-07 -2.58783e-09)
(2.07306e-07 7.32668e-09 -6.14585e-10)
(-4.37247e-11 -1.94831e-10 9.57459e-08)
(3.67648e-08 1.77783e-07 -2.61411e-09)
(2.0362e-07 1.09976e-08 -9.17392e-10)
(-5.38602e-11 -1.88539e-10 9.3735e-08)
(3.67952e-08 1.77808e-07 -2.63107e-09)
(1.99936e-07 1.46708e-08 -1.21385e-09)
(-6.74694e-11 -1.83362e-10 9.17176e-08)
(3.68137e-08 1.77828e-07 -2.64258e-09)
(1.96253e-07 1.83453e-08 -1.50124e-09)
(-8.3231e-11 -1.79548e-10 8.96937e-08)
(3.6824e-08 1.77843e-07 -2.65119e-09)
(1.92567e-07 2.20205e-08 -1.77724e-09)
(-1.00092e-10 -1.76817e-10 8.76621e-08)
(3.68287e-08 1.77854e-07 -2.65863e-09)
(1.88871e-07 2.56968e-08 -2.03902e-09)
(-1.16663e-10 -1.74248e-10 8.56185e-08)
(3.68301e-08 1.77855e-07 -2.66592e-09)
(1.85158e-07 2.93762e-08 -2.28164e-09)
(-1.30607e-10 -1.69869e-10 8.35542e-08)
(3.68293e-08 1.77838e-07 -2.6731e-09)
(1.81407e-07 3.30745e-08 -2.49785e-09)
(-1.39267e-10 -1.57993e-10 8.14544e-08)
(3.68255e-08 1.7778e-07 -2.67908e-09)
(-1.35883e-10 -1.35581e-10 7.93363e-08)
(1.77689e-07 3.68159e-08 -2.68327e-09)
(3.68146e-08 1.77689e-07 -2.68319e-09)
(2.11003e-07 3.67837e-09 -2.26396e-10)
(3.67732e-09 2.10999e-07 -2.26952e-10)
(-5.74795e-12 -5.72791e-12 1.16309e-07)
(2.07297e-07 7.34485e-09 -4.39273e-10)
(3.7038e-09 2.10977e-07 -2.25606e-10)
(-1.67803e-11 -6.05648e-12 1.14257e-07)
(2.03585e-07 1.1003e-08 -6.36357e-10)
(3.70717e-09 2.10944e-07 -2.21365e-10)
(-2.77475e-11 -6.73283e-12 1.12191e-07)
(1.99877e-07 1.46609e-08 -8.19994e-10)
(3.70173e-09 2.10923e-07 -2.16831e-10)
(-3.93055e-11 -7.85465e-12 1.10137e-07)
(1.96171e-07 1.83194e-08 -9.92954e-10)
(3.69516e-09 2.10922e-07 -2.12866e-10)
(-5.20753e-11 -9.52776e-12 1.081e-07)
(1.92469e-07 2.19786e-08 -1.15749e-09)
(3.68716e-09 2.10936e-07 -2.09709e-10)
(-6.64872e-11 -1.18534e-11 1.06079e-07)
(1.88771e-07 2.56381e-08 -1.31547e-09)
(3.67652e-09 2.10959e-07 -2.07698e-10)
(-8.28032e-11 -1.49529e-11 1.04071e-07)
(1.85077e-07 2.92978e-08 -1.46831e-09)
(3.66265e-09 2.10985e-07 -2.07296e-10)
(-1.00848e-10 -1.88845e-11 1.02077e-07)
(1.81389e-07 3.29588e-08 -1.61685e-09)
(3.6446e-09 2.10998e-07 -2.09068e-10)
(-1.19858e-10 -2.34309e-11 1.00093e-07)
(3.64938e-09 2.10987e-07 -2.11925e-10)
(-1.39384e-10 -2.70426e-11 9.81133e-08)
(1.77678e-07 3.66408e-08 -1.76226e-09)
(2.10976e-07 3.70257e-09 -2.25062e-10)
(7.34285e-09 2.07294e-07 -4.39497e-10)
(-6.0659e-12 -1.67609e-11 1.14254e-07)
(2.07295e-07 7.38444e-09 -4.39214e-10)
(7.38237e-09 2.07293e-07 -4.39742e-10)
(-1.69583e-11 -1.69301e-11 1.12223e-07)
(2.03599e-07 1.10461e-08 -6.39616e-10)
(7.39885e-09 2.07279e-07 -4.34754e-10)
(-2.78729e-11 -1.73669e-11 1.10178e-07)
(1.99897e-07 1.47021e-08 -8.26799e-10)
(7.39611e-09 2.07264e-07 -4.27847e-10)
(-3.93752e-11 -1.81783e-11 1.08133e-07)
(1.96198e-07 1.83603e-08 -1.00291e-09)
(7.38431e-09 2.0726e-07 -4.21291e-10)
(-5.20571e-11 -1.94434e-11 1.06099e-07)
(1.92501e-07 2.20209e-08 -1.17023e-09)
(7.36919e-09 2.07271e-07 -4.16127e-10)
(-6.6328e-11 -2.12586e-11 1.0408e-07)
(1.88807e-07 2.56845e-08 -1.33067e-09)
(7.34844e-09 2.0729e-07 -4.13072e-10)
(-8.24102e-11 -2.36735e-11 1.02074e-07)
(1.85116e-07 2.93536e-08 -1.48556e-09)
(7.32207e-09 2.07308e-07 -4.13002e-10)
(-9.9989e-11 -2.65233e-11 1.0008e-07)
(1.81427e-07 3.30297e-08 -1.63562e-09)
(7.29024e-09 2.07312e-07 -4.16774e-10)
(-1.18141e-10 -2.93569e-11 9.80941e-08)
(7.31013e-09 2.07292e-07 -4.21667e-10)
(-1.35018e-10 -3.09743e-11 9.60998e-08)
(1.77707e-07 3.67123e-08 -1.78029e-09)
(2.1094e-07 3.70399e-09 -2.21159e-10)
(1.10022e-08 2.03586e-07 -6.36067e-10)
(-6.72189e-12 -2.77656e-11 1.12188e-07)
(2.07276e-07 7.39663e-09 -4.34224e-10)
(1.1043e-08 2.03596e-07 -6.39607e-10)
(-1.73744e-11 -2.78599e-11 1.10174e-07)
(2.03601e-07 1.10715e-08 -6.36576e-10)
(1.10692e-08 2.036e-07 -6.36967e-10)
(-2.81685e-11 -2.81375e-11 1.08152e-07)
(1.99913e-07 1.47322e-08 -8.27131e-10)
(1.10774e-08 2.03598e-07 -6.30627e-10)
(-3.95428e-11 -2.87161e-11 1.06123e-07)
(1.9622e-07 1.83905e-08 -1.00653e-09)
(1.10667e-08 2.03596e-07 -6.23379e-10)
(-5.20395e-11 -2.96653e-11 1.04095e-07)
(1.92528e-07 2.20528e-08 -1.17667e-09)
(1.10449e-08 2.03601e-07 -6.17535e-10)
(-6.60707e-11 -3.10585e-11 1.02078e-07)
(1.88839e-07 2.57202e-08 -1.33941e-09)
(1.10157e-08 2.03614e-07 -6.1454e-10)
(-8.1758e-11 -3.29289e-11 1.00073e-07)
(1.85151e-07 2.93946e-08 -1.49587e-09)
(1.09791e-08 2.03623e-07 -6.15524e-10)
(-9.86034e-11 -3.50881e-11 9.80774e-08)
(1.81463e-07 3.30763e-08 -1.6467e-09)
(1.09351e-08 2.03617e-07 -6.21624e-10)
(-1.15677e-10 -3.71781e-11 9.60873e-08)
(1.09755e-08 2.03594e-07 -6.28448e-10)
(-1.30349e-10 -3.79904e-11 9.40857e-08)
(1.77739e-07 3.67578e-08 -1.79108e-09)
(2.10922e-07 3.70083e-09 -2.16951e-10)
(1.46611e-08 1.99878e-07 -8.19553e-10)
(-7.83536e-12 -3.93514e-11 1.10137e-07)
(2.07261e-07 7.39262e-09 -4.27742e-10)
(1.4701e-08 1.99897e-07 -8.26429e-10)
(-1.81561e-11 -3.9409e-11 1.0813e-07)
(2.03596e-07 1.1075e-08 -6.30222e-10)
(1.47288e-08 1.9991e-07 -8.27062e-10)
(-2.87213e-11 -3.95396e-11 1.0612e-07)
(1.99921e-07 1.47463e-08 -8.22966e-10)
(1.47441e-08 1.99919e-07 -8.23286e-10)
(-3.99073e-11 -3.98809e-11 1.04105e-07)
(1.96235e-07 1.84085e-08 -1.00542e-09)
(1.47417e-08 1.99925e-07 -8.1729e-10)
(-5.21464e-11 -4.05327e-11 1.02087e-07)
(1.92544e-07 2.20713e-08 -1.1783e-09)
(1.47191e-08 1.99929e-07 -8.11801e-10)
(-6.58415e-11 -4.15486e-11 1.0007e-07)
(1.88856e-07 2.57413e-08 -1.34312e-09)
(1.46811e-08 1.99933e-07 -8.09427e-10)
(-8.1073e-11 -4.29728e-11 9.80629e-08)
(1.85169e-07 2.94186e-08 -1.50088e-09)
(1.46345e-08 1.99932e-07 -8.1196e-10)
(-9.72307e-11 -4.47305e-11 9.60634e-08)
(1.8148e-07 3.31022e-08 -1.65231e-09)
(1.45801e-08 1.99916e-07 -8.20656e-10)
(-1.13414e-10 -4.65964e-11 9.40691e-08)
(1.46426e-08 1.99892e-07 -8.29487e-10)
(-1.25933e-10 -4.69978e-11 9.20628e-08)
(1.77756e-07 3.6784e-08 -1.7968e-09)
(2.10922e-07 3.69522e-09 -2.13055e-10)
(1.83194e-08 1.96173e-07 -9.92533e-10)
(-9.51363e-12 -5.21245e-11 1.08101e-07)
(2.07259e-07 7.38321e-09 -4.21545e-10)
(1.83603e-08 1.96199e-07 -1.00251e-09)
(-1.94086e-11 -5.21054e-11 1.06099e-07)
(2.03593e-07 1.10633e-08 -6.23381e-10)
(1.83894e-08 1.96219e-07 -1.0062e-09)
(-2.96254e-11 -5.2063e-11 1.04093e-07)
(1.99923e-07 1.47396e-08 -8.16945e-10)
(1.84051e-08 1.96232e-07 -1.00536e-09)
(-4.0533e-11 -5.21263e-11 1.02084e-07)
(1.96245e-07 1.84106e-08 -1.00149e-09)
(1.84077e-08 1.96242e-07 -1.00183e-09)
(-5.24745e-11 -5.24346e-11 1.00073e-07)
(1.92555e-07 2.20756e-08 -1.17692e-09)
(1.83913e-08 1.9625e-07 -9.97843e-10)
(-6.58105e-11 -5.31093e-11 9.80602e-08)
(1.88861e-07 2.57441e-08 -1.34369e-09)
(1.8351e-08 1.96248e-07 -9.96319e-10)
(-8.05433e-11 -5.41554e-11 9.60485e-08)
(1.85171e-07 2.94231e-08 -1.50252e-09)
(1.82919e-08 1.96234e-07 -1.00021e-09)
(-9.61396e-11 -5.55373e-11 9.40417e-08)
(1.8148e-07 3.31102e-08 -1.65433e-09)
(1.82262e-08 1.96207e-07 -1.01146e-09)