/*--------------------------------*- C++ -*----------------------------------*\
| =========                 |                                                 |
| \\      /  F ield         | foam-extend: Open Source CFD                    |
|  \\    /   O peration     | Version:     3.1                                |
|   \\  /    A nd           | Web:         http://www.extend-project.de       |
|    \\/     M anipulation  |                                                 |
\*---------------------------------------------------------------------------*/
FoamFile
{
    version     2.0;
    format      ascii;
    class       volVectorField;
    location    "0.0013";
    object      cellMotionU;
}
// * * * * * * * * * * * * * * * * * * * * * * * * * * * * * * * * * * * * * //

dimensions      [0 1 -1 0 0 0 0];

internalField   nonuniform List<vector> 
16000
(
(9.27412e-10 2.35174e-09 -1.0783e-08)
(2.72752e-09 2.25885e-09 -1.068e-08)
(4.35804e-09 2.15391e-09 -1.04442e-08)
(5.78505e-09 2.05464e-09 -1.00097e-08)
(6.97943e-09 1.95068e-09 -9.27001e-09)
(7.91158e-09 1.8426e-09 -8.07253e-09)
(8.55101e-09 1.72113e-09 -6.21047e-09)
(8.87237e-09 1.57773e-09 -3.41239e-09)
(8.86264e-09 1.40836e-09 6.61583e-10)
(8.54489e-09 1.20116e-09 6.43105e-09)
(9.37009e-10 6.98401e-09 -1.069e-08)
(2.78975e-09 6.80521e-09 -1.05863e-08)
(4.50891e-09 6.53394e-09 -1.03485e-08)
(6.02355e-09 6.25316e-09 -9.9122e-09)
(7.29677e-09 5.96697e-09 -9.17286e-09)
(8.28988e-09 5.65636e-09 -7.98463e-09)
(8.95482e-09 5.30782e-09 -6.15392e-09)
(9.23409e-09 4.9037e-09 -3.42989e-09)
(9.0384e-09 4.40779e-09 4.66598e-10)
(8.22652e-09 3.78895e-09 5.81151e-09)
(9.88207e-10 1.14305e-08 -1.04674e-08)
(2.95196e-09 1.12547e-08 -1.03628e-08)
(4.81721e-09 1.0938e-08 -1.01218e-08)
(6.50322e-09 1.05341e-08 -9.68298e-09)
(7.93961e-09 1.01126e-08 -8.94699e-09)
(9.07313e-09 9.65989e-09 -7.77558e-09)
(9.8326e-09 9.14364e-09 -5.98764e-09)
(1.01108e-08 8.53142e-09 -3.37564e-09)
(9.73963e-09 7.7695e-09 2.75475e-10)
(8.43173e-09 6.78979e-09 5.1366e-09)
(1.06831e-09 1.57685e-08 -1.00402e-08)
(3.21435e-09 1.55981e-08 -9.93368e-09)
(5.28688e-09 1.53006e-08 -9.69104e-09)
(7.20986e-09 1.48829e-08 -9.25003e-09)
(8.90302e-09 1.43908e-08 -8.51546e-09)
(1.02788e-08 1.38577e-08 -7.35969e-09)
(1.12471e-08 1.32583e-08 -5.61752e-09)
(1.16659e-08 1.25247e-08 -3.10223e-09)
(1.13186e-08 1.1586e-08 3.52463e-10)
(9.8682e-09 1.03451e-08 4.86788e-09)
(1.17307e-09 2.00263e-08 -9.29083e-09)
(3.55115e-09 1.9876e-08 -9.18304e-09)
(5.89409e-09 1.95965e-08 -8.94247e-09)
(8.12038e-09 1.92272e-08 -8.50359e-09)
(1.01482e-08 1.87709e-08 -7.77239e-09)
(1.1875e-08 1.82314e-08 -6.62599e-09)
(1.31905e-08 1.76233e-08 -4.90964e-09)
(1.39442e-08 1.68885e-08 -2.4547e-09)
(1.38982e-08 1.59007e-08 8.93673e-10)
(1.27339e-08 1.45349e-08 5.23951e-09)
(1.29355e-09 2.41944e-08 -8.05596e-09)
(3.93169e-09 2.40614e-08 -7.95405e-09)
(6.58219e-09 2.38121e-08 -7.72517e-09)
(9.17126e-09 2.34996e-08 -7.29777e-09)
(1.1605e-08 2.31466e-08 -6.5754e-09)
(1.37852e-08 2.27306e-08 -5.43049e-09)
(1.55792e-08 2.22052e-08 -3.71929e-09)
(1.6828e-08 2.15477e-08 -1.28573e-09)
(1.73375e-08 2.06686e-08 2.0357e-09)
(1.67878e-08 1.93409e-08 6.34425e-09)
(1.41447e-09 2.82076e-08 -6.12056e-09)
(4.31844e-09 2.80766e-08 -6.04242e-09)
(7.29414e-09 2.78611e-08 -5.84465e-09)
(1.02761e-08 2.76144e-08 -5.45225e-09)
(1.31714e-08 2.73891e-08 -4.74971e-09)
(1.58688e-08 2.71768e-08 -3.61359e-09)
(1.82405e-08 2.68908e-08 -1.89597e-09)
(2.01081e-08 2.64159e-08 5.53107e-10)
(2.12982e-08 2.57356e-08 3.88138e-09)
(2.15211e-08 2.45983e-08 8.20072e-09)
(1.51959e-09 3.19338e-08 -3.21222e-09)
(4.67049e-09 3.17831e-08 -3.19132e-09)
(7.95343e-09 3.1566e-08 -3.08172e-09)
(1.13206e-08 3.13792e-08 -2.76623e-09)
(1.46899e-08 3.12973e-08 -2.11383e-09)
(1.79379e-08 3.13171e-08 -9.93733e-10)
(2.09166e-08 3.13548e-08 7.21641e-10)
(2.34558e-08 3.12316e-08 3.18913e-09)
(2.53021e-08 3.07929e-08 6.47336e-09)
(2.62695e-08 2.99315e-08 1.07756e-08)
(1.59629e-09 3.51454e-08 9.92519e-10)
(4.92797e-09 3.49271e-08 8.74909e-10)
(8.46498e-09 3.46417e-08 7.88477e-10)
(1.21751e-08 3.44827e-08 9.44773e-10)
(1.59846e-08 3.45603e-08 1.50815e-09)
(1.97657e-08 3.48634e-08 2.60066e-09)
(2.33361e-08 3.52548e-08 4.31476e-09)
(2.6465e-08 3.55202e-08 6.73401e-09)
(2.88502e-08 3.53873e-08 9.87897e-09)
(3.03763e-08 3.48099e-08 1.4014e-08)
(1.62504e-09 3.75025e-08 6.86224e-09)
(5.03132e-09 3.71229e-08 6.41504e-09)
(8.72329e-09 3.66767e-08 5.94924e-09)
(1.26984e-08 3.6496e-08 5.82603e-09)
(1.68822e-08 3.67524e-08 6.2445e-09)
(2.11304e-08 3.74076e-08 7.30015e-09)
(2.52219e-08 3.82373e-08 9.02094e-09)
(2.88377e-08 3.88962e-08 1.13873e-08)
(3.16099e-08 3.90396e-08 1.4323e-08)
(3.32963e-08 3.85576e-08 1.78068e-08)
(2.62688e-09 6.76168e-09 -3.27924e-08)
(7.72366e-09 6.49199e-09 -3.26522e-08)
(1.2337e-08 6.18568e-09 -3.22942e-08)
(1.63751e-08 5.89471e-09 -3.15555e-08)
(1.97707e-08 5.59061e-09 -3.01787e-08)
(2.24762e-08 5.27719e-09 -2.77962e-08)
(2.44822e-08 4.93101e-09 -2.39069e-08)
(2.58687e-08 4.53269e-09 -1.78417e-08)
(2.6885e-08 4.07918e-09 -8.73358e-09)
(2.81195e-08 3.55135e-09 4.54956e-09)
(2.65489e-09 2.00883e-08 -3.26964e-08)
(7.90254e-09 1.95663e-08 -3.25506e-08)
(1.27693e-08 1.87722e-08 -3.21824e-08)
(1.7059e-08 1.79478e-08 -3.14339e-08)
(2.06829e-08 1.71095e-08 -3.00523e-08)
(2.35671e-08 1.62089e-08 -2.76853e-08)
(2.56499e-08 1.52174e-08 -2.38618e-08)
(2.69121e-08 1.41e-08 -1.79614e-08)
(2.73577e-08 1.27778e-08 -9.25777e-09)
(2.70233e-08 1.12029e-08 3.04097e-09)
(2.8018e-09 3.29096e-08 -3.24076e-08)
(8.36834e-09 3.23908e-08 -3.2254e-08)
(1.36547e-08 3.14565e-08 -3.18708e-08)
(1.8438e-08 3.02661e-08 -3.11068e-08)
(2.25352e-08 2.90287e-08 -2.9723e-08)
(2.58317e-08 2.77168e-08 -2.7385e-08)
(2.81974e-08 2.62547e-08 -2.36514e-08)
(2.946e-08 2.4576e-08 -1.8e-08)
(2.93702e-08 2.2568e-08 -9.85519e-09)
(2.74798e-08 2.01e-08 1.32181e-09)
(3.03236e-09 4.54755e-08 -3.17353e-08)
(9.12345e-09 4.49666e-08 -3.15721e-08)
(1.50081e-08 4.40781e-08 -3.11759e-08)
(2.0478e-08 4.28374e-08 -3.03967e-08)
(2.53235e-08 4.13881e-08 -2.90054e-08)
(2.93336e-08 3.98458e-08 -2.66928e-08)
(3.23239e-08 3.81638e-08 -2.30544e-08)
(3.40183e-08 3.61855e-08 -1.76173e-08)
(3.40102e-08 3.37657e-08 -9.92032e-09)
(3.16769e-08 3.07137e-08 4.52578e-10)
(3.33549e-09 5.79105e-08 -3.03884e-08)
(1.00985e-08 5.74539e-08 -3.02177e-08)
(1.67679e-08 5.66066e-08 -2.98176e-08)
(2.31226e-08 5.54947e-08 -2.90334e-08)
(2.8951e-08 5.4144e-08 -2.76399e-08)
(3.4002e-08 5.25899e-08 -2.53389e-08)
(3.80369e-08 5.09129e-08 -2.17516e-08)
(4.07554e-08 4.90004e-08 -1.64471e-08)
(4.16893e-08 4.65658e-08 -8.99218e-09)
(4.02555e-08 4.33632e-08 9.83974e-10)
(3.68803e-09 7.02604e-08 -2.7964e-08)
(1.12126e-08 6.9846e-08 -2.78026e-08)
(1.87844e-08 6.9073e-08 -2.74221e-08)
(2.62077e-08 6.8113e-08 -2.66566e-08)
(3.32404e-08 6.70584e-08 -2.52756e-08)
(3.96498e-08 6.58786e-08 -2.29721e-08)
(4.51375e-08 6.44853e-08 -1.93903e-08)
(4.93839e-08 6.28868e-08 -1.41283e-08)
(5.20575e-08 6.09353e-08 -6.73119e-09)
(5.25742e-08 5.81118e-08 3.16229e-09)
(4.04998e-09 8.24641e-08 -2.39289e-08)
(1.23698e-08 8.20417e-08 -2.38188e-08)
(2.09138e-08 8.13459e-08 -2.35061e-08)
(2.95144e-08 8.05574e-08 -2.28169e-08)
(3.79382e-08 7.98695e-08 -2.14786e-08)
(4.59205e-08 7.93045e-08 -1.9192e-08)
(5.31878e-08 7.86735e-08 -1.55911e-08)
(5.93751e-08 7.77268e-08 -1.0285e-08)
(6.42122e-08 7.65577e-08 -2.85792e-09)
(6.72219e-08 7.46221e-08 7.0843e-09)
(4.38084e-09 9.43606e-08 -1.75945e-08)
(1.34714e-08 9.38503e-08 -1.76161e-08)
(2.29674e-08 9.31032e-08 -1.75075e-08)
(3.27588e-08 9.24519e-08 -1.69975e-08)
(4.26508e-08 9.21692e-08 -1.57777e-08)
(5.23521e-08 9.23092e-08 -1.353e-08)
(6.15354e-08 9.27032e-08 -9.92989e-09)
(6.98785e-08 9.29403e-08 -4.56683e-09)
(7.68555e-08 9.26967e-08 2.79292e-09)
(8.23373e-08 9.19459e-08 1.27501e-08)
(4.65485e-09 1.05667e-07 -8.10693e-09)
(1.43757e-08 1.04879e-07 -8.45692e-09)
(2.47215e-08 1.03822e-07 -8.81353e-09)
(3.56363e-08 1.03169e-07 -8.68553e-09)
(4.69617e-08 1.03324e-07 -7.68502e-09)
(5.84061e-08 1.04328e-07 -5.50896e-09)
(6.95485e-08 1.05857e-07 -1.90702e-09)
(7.98704e-08 1.0739e-07 3.37201e-09)
(8.86861e-08 1.08256e-07 1.04677e-08)
(9.60913e-08 1.08681e-07 2.01258e-08)
(4.83471e-09 1.16031e-07 5.58609e-09)
(1.49621e-08 1.14545e-07 4.43611e-09)
(2.59502e-08 1.12769e-07 3.15692e-09)
(3.78443e-08 1.1188e-07 2.59691e-09)
(5.05033e-08 1.1249e-07 3.22886e-09)
(6.36068e-08 1.14564e-07 5.30098e-09)
(7.66307e-08 1.17511e-07 8.92493e-09)
(8.87751e-08 1.20389e-07 1.41264e-08)
(9.90816e-08 1.22252e-07 2.0819e-08)
(1.06998e-07 1.22944e-07 2.90605e-08)
(3.94726e-09 1.04489e-08 -5.55312e-08)
(1.15927e-08 1.00216e-08 -5.57211e-08)
(1.84777e-08 9.52915e-09 -5.6006e-08)
(2.44517e-08 9.0539e-09 -5.62095e-08)
(2.94145e-08 8.55491e-09 -5.60707e-08)
(3.33213e-08 8.04165e-09 -5.52297e-08)
(3.62337e-08 7.48313e-09 -5.32028e-08)
(3.84399e-08 6.85684e-09 -4.93526e-08)
(4.06463e-08 6.16887e-09 -4.28576e-08)
(4.43522e-08 5.4081e-09 -3.26514e-08)
(3.98893e-09 3.1055e-08 -5.58389e-08)
(1.1861e-08 3.02174e-08 -5.6013e-08)
(1.91281e-08 2.89319e-08 -5.62715e-08)
(2.54838e-08 2.75798e-08 -5.64468e-08)
(3.07963e-08 2.61953e-08 -5.62845e-08)
(3.49816e-08 2.47155e-08 -5.54365e-08)
(3.80206e-08 2.31118e-08 -5.34441e-08)
(4.00431e-08 2.13523e-08 -4.97137e-08)
(4.13561e-08 1.93489e-08 -4.35351e-08)
(4.25342e-08 1.70795e-08 -3.41188e-08)
(4.20957e-09 5.09271e-08 -5.63303e-08)
(1.2562e-08 5.00743e-08 -5.64799e-08)
(2.04641e-08 4.85332e-08 -5.67e-08)
(2.75706e-08 4.65606e-08 -5.68295e-08)
(3.36101e-08 4.44975e-08 -5.66305e-08)
(3.8438e-08 4.23218e-08 -5.57736e-08)
(4.19305e-08 3.99435e-08 -5.3829e-08)
(4.39758e-08 3.72979e-08 -5.02803e-08)
(4.44678e-08 3.42674e-08 -4.45441e-08)
(4.31711e-08 3.07317e-08 -3.60434e-08)
(4.55725e-09 7.04985e-08 -5.67822e-08)
(1.37024e-08 6.96401e-08 -5.69053e-08)
(2.2514e-08 6.81302e-08 -5.70837e-08)
(3.06708e-08 6.60252e-08 -5.71644e-08)
(3.78632e-08 6.35707e-08 -5.69212e-08)
(4.38055e-08 6.0979e-08 -5.60488e-08)
(4.82934e-08 5.82187e-08 -5.41535e-08)
(5.10539e-08 5.51037e-08 -5.07648e-08)
(5.17237e-08 5.1487e-08 -4.53969e-08)
(4.97664e-08 4.71853e-08 -3.75837e-08)
(5.01707e-09 9.00338e-08 -5.68788e-08)
(1.51834e-08 8.92346e-08 -5.69789e-08)
(2.51937e-08 8.77443e-08 -5.71218e-08)
(3.47123e-08 8.57814e-08 -5.71629e-08)
(4.34309e-08 8.34177e-08 -5.6882e-08)
(5.10065e-08 8.07512e-08 -5.59871e-08)
(5.71593e-08 7.79666e-08 -5.41141e-08)
(6.15848e-08 7.49678e-08 -5.08333e-08)
(6.38248e-08 7.14153e-08 -4.56887e-08)
(6.33899e-08 6.70684e-08 -3.8264e-08)
(5.55709e-09 1.09723e-07 -5.61975e-08)
(1.68923e-08 1.08963e-07 -5.62885e-08)
(2.82937e-08 1.07536e-07 -5.64191e-08)
(3.94701e-08 1.05742e-07 -5.64452e-08)
(5.0075e-08 1.03773e-07 -5.61479e-08)
(5.98006e-08 1.0164e-07 -5.5236e-08)
(6.82828e-08 9.92782e-08 -5.33623e-08)
(7.51977e-08 9.68075e-08 -5.01282e-08)
(8.03142e-08 9.4145e-08 -4.50807e-08)
(8.3141e-08 9.06555e-08 -3.78108e-08)
(6.12169e-09 1.29672e-07 -5.41898e-08)
(1.86985e-08 1.28859e-07 -5.43075e-08)
(3.16216e-08 1.27482e-07 -5.44759e-08)
(4.46503e-08 1.25869e-07 -5.45459e-08)
(5.74607e-08 1.24393e-07 -5.42751e-08)
(6.97069e-08 1.23171e-07 -5.33788e-08)
(8.10764e-08 1.22004e-07 -5.15062e-08)
(9.1187e-08 1.20625e-07 -4.82697e-08)
(9.99106e-08 1.19372e-07 -4.32553e-08)
(1.06948e-07 1.17628e-07 -3.60352e-08)
(6.65755e-09 1.49965e-07 -5.01578e-08)
(2.04772e-08 1.48944e-07 -5.03743e-08)
(3.49324e-08 1.4737e-07 -5.07007e-08)
(4.98811e-08 1.45845e-07 -5.09188e-08)
(6.50685e-08 1.44895e-07 -5.07612e-08)
(8.01221e-08 1.44718e-07 -4.99284e-08)
(9.4657e-08 1.45171e-07 -4.80972e-08)
(1.08379e-07 1.45766e-07 -4.48688e-08)
(1.20738e-07 1.46175e-07 -3.99531e-08)
(1.32036e-07 1.46716e-07 -3.27929e-08)
(7.13908e-09 1.70715e-07 -4.32355e-08)
(2.20526e-08 1.69109e-07 -4.37197e-08)
(3.79504e-08 1.66824e-07 -4.44355e-08)
(5.47871e-08 1.65084e-07 -4.49981e-08)
(7.23814e-08 1.64668e-07 -4.5076e-08)
(9.03757e-08 1.65774e-07 -4.43762e-08)
(1.0825e-07 1.68027e-07 -4.26234e-08)
(1.25389e-07 1.70771e-07 -3.95255e-08)
(1.40973e-07 1.73134e-07 -3.48566e-08)
(1.55675e-07 1.75915e-07 -2.7972e-08)
(7.53372e-09 1.9227e-07 -3.23552e-08)
(2.3306e-08 1.89199e-07 -3.35086e-08)
(4.04311e-08 1.8534e-07 -3.50232e-08)
(5.90412e-08 1.8286e-07 -3.62322e-08)
(7.90071e-08 1.82919e-07 -3.67297e-08)
(9.99504e-08 1.85609e-07 -3.62508e-08)
(1.21204e-07 1.90127e-07 -3.46122e-08)
(1.41685e-07 1.95113e-07 -3.1676e-08)
(1.60055e-07 1.99197e-07 -2.73826e-08)
(1.75655e-07 2.02364e-07 -2.15897e-08)
(4.75595e-09 1.30331e-08 -7.64435e-08)
(1.39373e-08 1.2478e-08 -7.72683e-08)
(2.21152e-08 1.18224e-08 -7.88336e-08)
(2.9053e-08 1.11719e-08 -8.10259e-08)
(3.45708e-08 1.04788e-08 -8.37123e-08)
(3.85475e-08 9.75731e-09 -8.67365e-08)
(4.09813e-08 8.97188e-09 -8.99085e-08)
(4.21339e-08 8.09714e-09 -9.30079e-08)
(4.27684e-08 7.14138e-09 -9.57899e-08)
(4.46015e-08 6.09112e-09 -9.8019e-08)
(4.79977e-09 3.87439e-08 -7.75128e-08)
(1.42421e-08 3.76327e-08 -7.83052e-08)
(2.28697e-08 3.59026e-08 -7.98181e-08)
(3.02593e-08 3.4039e-08 -8.19504e-08)
(3.61932e-08 3.20934e-08 -8.45769e-08)
(4.05057e-08 2.99967e-08 -8.75393e-08)
(4.31018e-08 2.77216e-08 -9.06485e-08)
(4.40567e-08 2.52337e-08 -9.36943e-08)
(4.36672e-08 2.2432e-08 -9.64211e-08)
(4.25681e-08 1.92937e-08 -9.85804e-08)
(5.05395e-09 6.35721e-08 -7.95306e-08)
(1.50531e-08 6.23981e-08 -8.02707e-08)
(2.44266e-08 6.02614e-08 -8.17063e-08)
(3.27052e-08 5.74965e-08 -8.37383e-08)
(3.95068e-08 5.45465e-08 -8.62562e-08)
(4.45955e-08 5.13991e-08 -8.91128e-08)
(4.77527e-08 4.7955e-08 -9.21315e-08)
(4.87774e-08 4.41459e-08 -9.50922e-08)
(4.74839e-08 3.98383e-08 -9.77454e-08)
(4.35495e-08 3.48921e-08 -9.98499e-08)
(5.4569e-09 8.80891e-08 -8.23204e-08)
(1.63803e-08 8.68616e-08 -8.30047e-08)
(2.68241e-08 8.46725e-08 -8.43457e-08)
(3.63486e-08 8.16081e-08 -8.62633e-08)
(4.4527e-08 7.7998e-08 -8.86566e-08)
(5.09606e-08 7.41341e-08 -9.13891e-08)
(5.53418e-08 6.99963e-08 -9.42988e-08)
(5.72804e-08 6.53703e-08 -9.71801e-08)
(5.62964e-08 6.00908e-08 -9.97916e-08)
(5.17157e-08 5.39393e-08 -1.01911e-07)
(5.99157e-09 1.12666e-07 -8.56794e-08)
(1.81077e-08 1.11462e-07 -8.63105e-08)
(2.99633e-08 1.09196e-07 -8.75487e-08)
(4.11062e-08 1.06165e-07 -8.9348e-08)
(5.11134e-08 1.02485e-07 -9.16151e-08)
(5.95189e-08 9.83152e-08 -9.42253e-08)
(6.59341e-08 9.39164e-08 -9.70404e-08)
(6.99436e-08 8.91935e-08 -9.98727e-08)
(7.09567e-08 8.37471e-08 -1.02496e-07)
(6.83651e-08 7.72864e-08 -1.04716e-07)
(6.62026e-09 1.37599e-07 -8.93695e-08)
(2.0102e-08 1.36386e-07 -8.99442e-08)
(3.35969e-08 1.34085e-07 -9.10837e-08)
(4.67114e-08 1.311e-07 -9.27698e-08)
(5.89838e-08 1.27715e-07 -9.49267e-08)
(6.99928e-08 1.23985e-07 -9.74512e-08)
(7.92501e-08 1.1987e-07 -1.00201e-07)
(8.63343e-08 1.15565e-07 -1.0301e-07)
(9.09405e-08 1.10991e-07 -1.05707e-07)
(9.24577e-08 1.05372e-07 -1.08093e-07)
(7.27694e-09 1.63105e-07 -9.31115e-08)
(2.22089e-08 1.61757e-07 -9.36273e-08)
(3.74974e-08 1.59383e-07 -9.46864e-08)
(5.28168e-08 1.56429e-07 -9.62783e-08)
(6.77393e-08 1.53429e-07 -9.83607e-08)
(8.18098e-08 1.50594e-07 -1.00834e-07)
(9.46062e-08 1.47729e-07 -1.0357e-07)
(1.05631e-07 1.44543e-07 -1.06408e-07)
(1.14737e-07 1.41518e-07 -1.09201e-07)
(1.21555e-07 1.3791e-07 -1.11771e-07)
(7.89858e-09 1.89423e-07 -9.65906e-08)
(2.42806e-08 1.87722e-07 -9.70532e-08)
(4.13761e-08 1.84924e-07 -9.80368e-08)
(5.89846e-08 1.81843e-07 -9.95684e-08)
(7.67689e-08 1.79225e-07 -1.01624e-07)
(9.42506e-08 1.77413e-07 -1.04111e-07)
(1.10939e-07 1.76316e-07 -1.06889e-07)
(1.26445e-07 1.75375e-07 -1.09813e-07)
(1.40121e-07 1.74265e-07 -1.12673e-07)
(1.5235e-07 1.73417e-07 -1.15403e-07)
(8.4554e-09 2.16878e-07 -9.94626e-08)
(2.61113e-08 2.1431e-07 -9.9866e-08)
(4.49102e-08 2.10379e-07 -1.00783e-07)
(6.47767e-08 2.0672e-07 -1.02303e-07)
(8.5469e-08 2.04431e-07 -1.04413e-07)
(1.06534e-07 2.03889e-07 -1.07009e-07)
(1.27328e-07 2.04746e-07 -1.09922e-07)
(1.47105e-07 2.06284e-07 -1.12951e-07)
(1.64891e-07 2.07509e-07 -1.1586e-07)
(1.81529e-07 2.09448e-07 -1.18669e-07)
(8.90959e-09 2.46176e-07 -1.01401e-07)
(2.75633e-08 2.41548e-07 -1.01714e-07)
(4.78164e-08 2.35288e-07 -1.02582e-07)
(6.98166e-08 2.30278e-07 -1.04168e-07)
(9.33906e-08 2.28149e-07 -1.06458e-07)
(1.18065e-07 2.29187e-07 -1.09303e-07)
(1.43028e-07 2.32538e-07 -1.12477e-07)
(1.66979e-07 2.36639e-07 -1.15711e-07)
(1.88319e-07 2.39897e-07 -1.18724e-07)
(2.06316e-07 2.42384e-07 -1.21361e-07)
(5.08178e-09 1.43021e-08 -9.07627e-08)
(1.48565e-08 1.36601e-08 -9.22458e-08)
(2.34527e-08 1.28789e-08 -9.5151e-08)
(3.05413e-08 1.20781e-08 -9.94526e-08)
(3.58328e-08 1.12089e-08 -1.0518e-07)
(3.90626e-08 1.02887e-08 -1.12421e-07)
(4.00321e-08 9.28005e-09 -1.21314e-07)
(3.87295e-08 8.15474e-09 -1.32073e-07)
(3.55412e-08 6.91619e-09 -1.45e-07)
(3.1663e-08 5.53965e-09 -1.60565e-07)
(5.11086e-09 4.25204e-08 -9.26655e-08)
(1.51292e-08 4.1202e-08 -9.40972e-08)
(2.4172e-08 3.91136e-08 -9.69178e-08)
(3.17107e-08 3.68003e-08 -1.01118e-07)
(3.74158e-08 3.43278e-08 -1.06737e-07)
(4.09795e-08 3.16281e-08 -1.13841e-07)
(4.21139e-08 2.86739e-08 -1.22543e-07)
(4.06262e-08 2.54217e-08 -1.33029e-07)
(3.64653e-08 2.17541e-08 -1.4546e-07)
(2.98226e-08 1.76246e-08 -1.59994e-07)
(5.34909e-09 6.97856e-08 -9.63662e-08)
(1.58955e-08 6.83317e-08 -9.77128e-08)
(2.56684e-08 6.56633e-08 -1.00406e-07)
(3.4091e-08 6.21653e-08 -1.04434e-07)
(4.06616e-08 5.83421e-08 -1.09844e-07)
(4.50012e-08 5.41909e-08 -1.16707e-07)
(4.66989e-08 4.96054e-08 -1.25124e-07)
(4.53055e-08 4.4505e-08 -1.35175e-07)
(4.03177e-08 3.87287e-08 -1.46897e-07)
(3.10188e-08 3.2092e-08 -1.60246e-07)
(5.73216e-09 9.67328e-08 -1.01765e-07)
(1.71692e-08 9.51491e-08 -1.03018e-07)
(2.79885e-08 9.22823e-08 -1.05547e-07)
(3.76436e-08 8.82439e-08 -1.09367e-07)
(4.55858e-08 8.34193e-08 -1.14531e-07)
(5.12711e-08 7.81492e-08 -1.21104e-07)
(5.4205e-08 7.24134e-08 -1.29176e-07)
(5.37532e-08 6.59669e-08 -1.38801e-07)
(4.91456e-08 5.86059e-08 -1.49925e-07)
(3.93465e-08 5.00408e-08 -1.62431e-07)
(6.24258e-09 1.23768e-07 -1.08817e-07)
(1.88282e-08 1.22132e-07 -1.09973e-07)
(3.10269e-08 1.19025e-07 -1.12305e-07)
(4.22798e-08 1.14792e-07 -1.15887e-07)
(5.20418e-08 1.09588e-07 -1.20781e-07)
(5.96984e-08 1.03611e-07 -1.27057e-07)
(6.4678e-08 9.71561e-08 -1.3482e-07)
(6.63341e-08 9.01019e-08 -1.44113e-07)
(6.37886e-08 8.19788e-08 -1.54876e-07)
(5.60974e-08 7.23964e-08 -1.66993e-07)
(6.83955e-09 1.51196e-07 -1.17521e-07)
(2.07301e-08 1.49465e-07 -1.18553e-07)
(3.45184e-08 1.46145e-07 -1.20658e-07)
(4.77085e-08 1.41702e-07 -1.23969e-07)
(5.9719e-08 1.36486e-07 -1.28583e-07)
(6.99771e-08 1.30582e-07 -1.34611e-07)
(7.78076e-08 1.2396e-07 -1.42126e-07)
(8.25743e-08 1.16829e-07 -1.51177e-07)
(8.36964e-08 1.09037e-07 -1.61807e-07)
(8.02307e-08 9.96613e-08 -1.73877e-07)
(7.45118e-09 1.79202e-07 -1.27925e-07)
(2.27043e-08 1.77228e-07 -1.28778e-07)
(3.82094e-08 1.73633e-07 -1.30622e-07)
(5.35449e-08 1.68929e-07 -1.33613e-07)
(6.81655e-08 1.6375e-07 -1.37946e-07)
(8.14743e-08 1.58379e-07 -1.43733e-07)
(9.28587e-08 1.52615e-07 -1.51074e-07)
(1.0159e-07 1.46135e-07 -1.60008e-07)
(1.07298e-07 1.39419e-07 -1.70585e-07)
(1.0929e-07 1.31554e-07 -1.82709e-07)
(8.00647e-09 2.0794e-07 -1.40145e-07)
(2.45799e-08 2.05477e-07 -1.40737e-07)
(4.17742e-08 2.01205e-07 -1.42172e-07)
(5.92984e-08 1.96029e-07 -1.44765e-07)
(7.6703e-08 1.90829e-07 -1.48783e-07)
(9.33707e-08 1.86064e-07 -1.54368e-07)
(1.08644e-07 1.81698e-07 -1.61568e-07)
(1.21895e-07 1.77095e-07 -1.70452e-07)
(1.32291e-07 1.71939e-07 -1.80809e-07)
(1.39902e-07 1.66504e-07 -1.92887e-07)
(8.46456e-09 2.37567e-07 -1.54371e-07)
(2.61182e-08 2.34066e-07 -1.54485e-07)
(4.48385e-08 2.28331e-07 -1.5524e-07)
(6.44642e-08 2.22151e-07 -1.57278e-07)
(8.46404e-08 2.16811e-07 -1.60967e-07)
(1.04778e-07 2.12848e-07 -1.66419e-07)
(1.2408e-07 2.10009e-07 -1.73564e-07)
(1.41627e-07 2.07593e-07 -1.82262e-07)
(1.56285e-07 2.04593e-07 -1.92174e-07)
(1.68602e-07 2.01841e-07 -2.03812e-07)
(8.76853e-09 2.68507e-07 -1.70962e-07)
(2.71341e-08 2.62731e-07 -1.70065e-07)
(4.70508e-08 2.54258e-07 -1.69688e-07)
(6.85796e-08 2.46192e-07 -1.70955e-07)
(9.14243e-08 2.40443e-07 -1.74316e-07)
(1.14971e-07 2.3753e-07 -1.7976e-07)
(1.38266e-07 2.36736e-07 -1.86997e-07)
(1.59885e-07 2.36565e-07 -1.95586e-07)
(1.78157e-07 2.35473e-07 -2.04977e-07)
(1.92337e-07 2.33568e-07 -2.14917e-07)
(5.07697e-09 1.42331e-08 -9.34943e-08)
(1.4832e-08 1.35559e-08 -9.53372e-08)
(2.33739e-08 1.27098e-08 -9.89834e-08)
(3.03416e-08 1.1816e-08 -1.04479e-07)
(3.53993e-08 1.08315e-08 -1.11967e-07)
(3.82019e-08 9.7776e-09 -1.21695e-07)
(3.84162e-08 8.62154e-09 -1.33994e-07)
(3.58091e-08 7.33893e-09 -1.49306e-07)
(3.04135e-08 5.93332e-09 -1.68168e-07)
(2.28656e-08 4.38026e-09 -1.91291e-07)
(5.07393e-09 4.23307e-08 -9.59545e-08)
(1.50091e-08 4.09063e-08 -9.77347e-08)
(2.39347e-08 3.86117e-08 -1.01265e-07)
(3.12892e-08 3.6008e-08 -1.06622e-07)
(3.66966e-08 3.31737e-08 -1.13955e-07)
(3.97738e-08 3.00548e-08 -1.23478e-07)
(4.01092e-08 2.66352e-08 -1.3548e-07)
(3.73125e-08 2.28772e-08 -1.50347e-07)
(3.10519e-08 1.86738e-08 -1.68398e-07)
(2.1137e-08 1.39837e-08 -1.89862e-07)
(5.25245e-09 6.95189e-08 -1.00782e-07)
(1.55927e-08 6.7885e-08 -1.0245e-07)
(2.51211e-08 6.48569e-08 -1.05811e-07)
(3.3231e-08 6.08487e-08 -1.10927e-07)
(3.93737e-08 5.63877e-08 -1.1796e-07)
(4.30972e-08 5.14913e-08 -1.27117e-07)
(4.38801e-08 4.60682e-08 -1.38659e-07)
(4.11152e-08 4.00498e-08 -1.52806e-07)
(3.40906e-08 3.32853e-08 -1.69675e-07)
(2.18542e-08 2.5596e-08 -1.89173e-07)
(5.55162e-09 9.64461e-08 -1.0794e-07)
(1.66068e-08 9.45985e-08 -1.09479e-07)
(2.69965e-08 9.121e-08 -1.12616e-07)
(3.61424e-08 8.64175e-08 -1.17436e-07)
(4.34506e-08 8.06375e-08 -1.24101e-07)
(4.8308e-08 7.42441e-08 -1.32804e-07)
(5.0115e-08 6.72337e-08 -1.43777e-07)
(4.81005e-08 5.93735e-08 -1.57187e-07)
(4.13315e-08 5.04665e-08 -1.73002e-07)
(2.85918e-08 4.02125e-08 -1.91006e-07)
(5.95681e-09 1.23525e-07 -1.175e-07)
(1.79392e-08 1.21533e-07 -1.18902e-07)
(2.94703e-08 1.17722e-07 -1.21754e-07)
(3.99546e-08 1.12462e-07 -1.26219e-07)
(4.87999e-08 1.05944e-07 -1.32464e-07)
(5.53258e-08 9.84063e-08 -1.40682e-07)
(5.88543e-08 9.01688e-08 -1.51113e-07)
(5.86009e-08 8.11166e-08 -1.63894e-07)
(5.3534e-08 7.07809e-08 -1.78975e-07)
(4.25279e-08 5.87394e-08 -1.96132e-07)
(6.42981e-09 1.51042e-07 -1.29628e-07)
(1.94567e-08 1.48856e-07 -1.30843e-07)
(3.22914e-08 1.44626e-07 -1.33347e-07)
(4.4394e-08 1.38846e-07 -1.37381e-07)
(5.51337e-08 1.31911e-07 -1.43162e-07)
(6.3862e-08 1.23944e-07 -1.50931e-07)
(6.98049e-08 1.14957e-07 -1.60876e-07)
(7.21857e-08 1.05176e-07 -1.73135e-07)
(7.02252e-08 9.44137e-08 -1.87786e-07)
(6.2799e-08 8.17178e-08 -2.04573e-07)
(6.90127e-09 1.79127e-07 -1.44578e-07)
(2.09942e-08 1.7659e-07 -1.45508e-07)
(3.5213e-08 1.71857e-07 -1.47581e-07)
(4.90857e-08 1.65462e-07 -1.5107e-07)
(6.20091e-08 1.58092e-07 -1.56335e-07)
(7.33142e-08 1.501e-07 -1.63621e-07)
(8.22759e-08 1.41323e-07 -1.73146e-07)
(8.80257e-08 1.31466e-07 -1.8502e-07)
(8.99963e-08 1.20993e-07 -1.99328e-07)
(8.72809e-08 1.08938e-07 -2.15872e-07)
(7.30072e-09 2.07805e-07 -1.62708e-07)
(2.23787e-08 2.04671e-07 -1.63206e-07)
(3.79127e-08 1.99023e-07 -1.64581e-07)
(5.35461e-08 1.91762e-07 -1.67351e-07)
(6.87614e-08 1.83832e-07 -1.71982e-07)
(8.28696e-08 1.75794e-07 -1.78771e-07)
(9.51222e-08 1.67715e-07 -1.87863e-07)
(1.0473e-07 1.58974e-07 -1.99402e-07)
(1.10775e-07 1.49351e-07 -2.13102e-07)
(1.12999e-07 1.38946e-07 -2.29241e-07)
(7.58183e-09 2.36999e-07 -1.84467e-07)
(2.33673e-08 2.32756e-07 -1.84166e-07)
(4.00111e-08 2.25423e-07 -1.84371e-07)
(5.72672e-08 2.16734e-07 -1.86104e-07)
(7.46958e-08 2.08048e-07 -1.89992e-07)
(9.16348e-08 2.00061e-07 -1.96294e-07)
(1.07228e-07 1.92707e-07 -2.04988e-07)
(1.20499e-07 1.85441e-07 -2.15936e-07)
(1.30303e-07 1.77408e-07 -2.28685e-07)
(1.36805e-07 1.69161e-07 -2.43864e-07)
(7.6758e-09 2.6673e-07 -2.10471e-07)
(2.37529e-08 2.60272e-07 -2.08516e-07)
(4.11354e-08 2.50068e-07 -2.06784e-07)
(5.9762e-08 2.39049e-07 -2.07047e-07)
(7.92269e-08 2.29242e-07 -2.10082e-07)
(9.88425e-08 2.21433e-07 -2.15969e-07)
(1.17641e-07 2.15221e-07 -2.24372e-07)
(1.34267e-07 2.09438e-07 -2.34737e-07)
(1.47209e-07 2.02848e-07 -2.46351e-07)
(1.55804e-07 1.95652e-07 -2.58876e-07)
(4.88553e-09 1.29081e-08 -8.16323e-08)
(1.43186e-08 1.22359e-08 -8.33353e-08)
(2.2694e-08 1.14285e-08 -8.67242e-08)
(2.97256e-08 1.05351e-08 -9.18737e-08)
(3.51716e-08 9.5401e-09 -9.89747e-08)
(3.87755e-08 8.47431e-09 -1.08316e-07)
(4.02898e-08 7.31925e-09 -1.20273e-07)
(3.95483e-08 6.06536e-09 -1.35314e-07)
(3.65949e-08 4.72976e-09 -1.53985e-07)
(3.19503e-08 3.31222e-09 -1.76969e-07)
(4.82996e-09 3.84478e-08 -8.41338e-08)
(1.43562e-08 3.70337e-08 -8.57752e-08)
(2.30231e-08 3.47629e-08 -8.9036e-08)
(3.03316e-08 3.21324e-08 -9.40273e-08)
(3.60234e-08 2.92378e-08 -1.0095e-07)
(3.98049e-08 2.60601e-08 -1.10057e-07)
(4.13582e-08 2.26151e-08 -1.21672e-07)
(4.03882e-08 1.89006e-08 -1.36202e-07)
(3.6644e-08 1.48661e-08 -1.53962e-07)
(2.99838e-08 1.05324e-08 -1.75124e-07)
(4.92351e-09 6.32771e-08 -8.90508e-08)
(1.46665e-08 6.16371e-08 -9.05795e-08)
(2.37316e-08 5.85141e-08 -9.36475e-08)
(3.15914e-08 5.43899e-08 -9.83673e-08)
(3.78057e-08 4.97635e-08 -1.04947e-07)
(4.20163e-08 4.469e-08 -1.13628e-07)
(4.38152e-08 3.91307e-08 -1.247e-07)
(4.27185e-08 3.30756e-08 -1.38394e-07)
(3.81594e-08 2.64523e-08 -1.54805e-07)
(2.93888e-08 1.91783e-08 -1.73763e-07)
(5.10492e-09 8.80234e-08 -9.63735e-08)
(1.52923e-08 8.61039e-08 -9.77569e-08)
(2.49228e-08 8.25047e-08 -1.00579e-07)
(3.35099e-08 7.74327e-08 -1.04965e-07)
(4.0559e-08 7.13082e-08 -1.11113e-07)
(4.55529e-08 6.45324e-08 -1.19256e-07)
(4.80024e-08 5.716e-08 -1.29646e-07)
(4.72841e-08 4.90433e-08 -1.42455e-07)
(4.26351e-08 4.00764e-08 -1.57619e-07)
(3.30749e-08 3.00633e-08 -1.74836e-07)
(5.35975e-09 1.13141e-07 -1.06219e-07)
(1.61498e-08 1.10988e-07 -1.07444e-07)
(2.65614e-08 1.06839e-07 -1.09947e-07)
(3.60814e-08 1.01081e-07 -1.13924e-07)
(4.42133e-08 9.39422e-08 -1.19573e-07)
(5.03836e-08 8.57153e-08 -1.27121e-07)
(5.40081e-08 7.67698e-08 -1.36834e-07)
(5.44217e-08 6.70733e-08 -1.48848e-07)
(5.07687e-08 5.62761e-08 -1.63078e-07)
(4.21093e-08 4.40554e-08 -1.79217e-07)
(5.66485e-09 1.38969e-07 -1.18809e-07)
(1.71409e-08 1.36539e-07 -1.19819e-07)
(2.84468e-08 1.31808e-07 -1.21919e-07)
(3.91089e-08 1.25266e-07 -1.25384e-07)
(4.85814e-08 1.1735e-07 -1.30468e-07)
(5.63125e-08 1.08252e-07 -1.3744e-07)
(6.16397e-08 9.80764e-08 -1.46507e-07)
(6.38677e-08 8.71303e-08 -1.57817e-07)
(6.22969e-08 7.53015e-08 -1.71413e-07)
(5.5977e-08 6.17864e-08 -1.86964e-07)
(5.96529e-09 1.6569e-07 -1.34451e-07)
(1.81376e-08 1.62829e-07 -1.35132e-07)
(3.03906e-08 1.57409e-07 -1.36721e-07)
(4.23007e-08 1.49945e-07 -1.39524e-07)
(5.33322e-08 1.41155e-07 -1.43952e-07)
(6.29006e-08 1.3148e-07 -1.50289e-07)
(7.03778e-08 1.20876e-07 -1.58763e-07)
(7.5002e-08 1.09178e-07 -1.69482e-07)
(7.61991e-08 9.69125e-08 -1.82525e-07)
(7.31615e-08 8.32481e-08 -1.97622e-07)
(6.20468e-09 1.93374e-07 -1.53549e-07)
(1.90032e-08 1.89853e-07 -1.53729e-07)
(3.21392e-08 1.83341e-07 -1.54497e-07)
(4.52738e-08 1.74671e-07 -1.56421e-07)
(5.79351e-08 1.64804e-07 -1.60029e-07)
(6.95131e-08 1.54419e-07 -1.65667e-07)
(7.93516e-08 1.43751e-07 -1.73508e-07)
(8.67519e-08 1.32342e-07 -1.83679e-07)
(9.09007e-08 1.20167e-07 -1.95905e-07)
(9.14384e-08 1.07323e-07 -2.104e-07)
(6.34624e-09 2.21965e-07 -1.76574e-07)
(1.95405e-08 2.17332e-07 -1.75847e-07)
(3.33877e-08 2.0901e-07 -1.75259e-07)
(4.76241e-08 1.98558e-07 -1.75927e-07)
(6.18293e-08 1.87332e-07 -1.78554e-07)
(7.54141e-08 1.76198e-07 -1.83453e-07)
(8.76474e-08 1.65355e-07 -1.90638e-07)
(9.77002e-08 1.54548e-07 -1.9999e-07)
(1.04617e-07 1.43219e-07 -2.11073e-07)
(1.0836e-07 1.31817e-07 -2.24455e-07)
(6.33097e-09 2.51418e-07 -2.04128e-07)
(1.95787e-08 2.44747e-07 -2.01563e-07)
(3.38346e-08 2.33568e-07 -1.98769e-07)
(4.89605e-08 2.2043e-07 -1.97674e-07)
(6.45402e-08 2.07359e-07 -1.99152e-07)
(7.99645e-08 1.95424e-07 -2.03338e-07)
(9.4442e-08 1.8465e-07 -2.09929e-07)
(1.06897e-07 1.74352e-07 -2.18412e-07)
(1.16137e-07 1.6375e-07 -2.28143e-07)
(1.21608e-07 1.53214e-07 -2.38845e-07)
(4.53681e-09 1.04404e-08 -5.56032e-08)
(1.33865e-08 9.87286e-09 -5.66463e-08)
(2.1496e-08 9.16541e-09 -5.8743e-08)
(2.87479e-08 8.36864e-09 -6.19744e-08)
(3.51017e-08 7.48244e-09 -6.65089e-08)
(4.05324e-08 6.54503e-09 -7.25886e-08)
(4.50656e-08 5.55859e-09 -8.05188e-08)
(4.88488e-08 4.53694e-09 -9.0681e-08)
(5.2246e-08 3.52166e-09 -1.03523e-07)
(5.60353e-08 2.55626e-09 -1.19622e-07)
(4.43656e-09 3.11784e-08 -5.75671e-08)
(1.32684e-08 2.99474e-08 -5.8557e-08)
(2.1544e-08 2.79351e-08 -6.05453e-08)
(2.89519e-08 2.55728e-08 -6.36384e-08)
(3.54345e-08 2.29716e-08 -6.80128e-08)
(4.09365e-08 2.01568e-08 -7.38804e-08)
(4.54218e-08 1.71904e-08 -8.15065e-08)
(4.89407e-08 1.41301e-08 -9.12142e-08)
(5.16271e-08 1.10174e-08 -1.03263e-07)
(5.37398e-08 7.98005e-09 -1.17809e-07)
(4.42777e-09 5.15311e-08 -6.1422e-08)
(1.32599e-08 5.00442e-08 -6.23233e-08)
(2.16969e-08 4.72074e-08 -6.41468e-08)
(2.94126e-08 4.34502e-08 -6.69971e-08)
(3.61713e-08 3.92352e-08 -7.10628e-08)
(4.18572e-08 3.46716e-08 -7.65449e-08)
(4.63703e-08 2.98045e-08 -8.36724e-08)
(4.95908e-08 2.4719e-08 -9.26292e-08)
(5.13928e-08 1.94742e-08 -1.03492e-07)
(5.1584e-08 1.41533e-08 -1.16121e-07)
(4.46588e-09 7.21004e-08 -6.71622e-08)
(1.34367e-08 7.03131e-08 -6.79438e-08)
(2.21009e-08 6.69463e-08 -6.95577e-08)
(3.01757e-08 6.2213e-08 -7.21116e-08)
(3.73865e-08 5.65254e-08 -7.57799e-08)
(4.34568e-08 5.03045e-08 -8.07648e-08)
(4.81975e-08 4.36961e-08 -8.72661e-08)
(5.13783e-08 3.66978e-08 -9.54088e-08)
(5.26866e-08 2.93598e-08 -1.05142e-07)
(5.17158e-08 2.16798e-08 -1.16211e-07)
(4.55037e-09 9.33946e-08 -7.4882e-08)
(1.37579e-08 9.13374e-08 -7.55265e-08)
(2.27909e-08 8.736e-08 -7.68615e-08)
(3.13288e-08 8.1832e-08 -7.90527e-08)
(3.9098e-08 7.50201e-08 -8.22663e-08)
(4.57849e-08 6.72723e-08 -8.6693e-08)
(5.10806e-08 5.90226e-08 -9.25509e-08)
(5.46691e-08 5.03826e-08 -9.9942e-08)
(5.61512e-08 4.12155e-08 -1.08789e-07)
(5.5079e-08 3.14019e-08 -1.1884e-07)
(4.67474e-09 1.15854e-07 -8.47575e-08)
(1.41802e-08 1.13482e-07 -8.5214e-08)
(2.36569e-08 1.08844e-07 -8.61926e-08)
(3.28034e-08 1.02397e-07 -8.79199e-08)