/*--------------------------------*- C++ -*----------------------------------*\
| =========                 |                                                 |
| \\      /  F ield         | foam-extend: Open Source CFD                    |
|  \\    /   O peration     | Version:     3.1                                |
|   \\  /    A nd           | Web:         http://www.extend-project.de       |
|    \\/     M anipulation  |                                                 |
\*---------------------------------------------------------------------------*/
FoamFile
{
    version     2.0;
    format      ascii;
    class       surfaceScalarField;
    location    "0.0013";
    object      meshPhi;
}
// * * * * * * * * * * * * * * * * * * * * * * * * * * * * * * * * * * * * * //

dimensions      [0 3 -1 0 0 0 0];

internalField   nonuniform List<scalar> 
45800
(
1.43516e-10
1.44117e-10
1.81486e-10
2.74464e-10
1.42001e-10
1.82984e-10
3.88039e-10
1.36968e-10
1.88719e-10
4.82988e-10
1.30709e-10
1.98069e-10
5.5879e-10
1.23794e-10
2.10456e-10
6.14946e-10
1.16352e-10
2.2531e-10
6.51e-10
1.08519e-10
2.42039e-10
6.66657e-10
1.00457e-10
2.59996e-10
6.61919e-10
9.23313e-11
2.78431e-10
8.35719e-11
2.96561e-10
6.372e-10
1.41411e-10
2.75026e-10
1.82959e-10
2.72023e-10
2.72779e-10
1.84164e-10
3.86696e-10
2.65162e-10
1.89417e-10
4.83019e-10
2.54324e-10
1.98131e-10
5.60054e-10
2.41716e-10
2.09767e-10
6.17304e-10
2.27912e-10
2.23781e-10
6.5434e-10
2.13209e-10
2.39602e-10
6.70916e-10
1.97931e-10
2.5659e-10
6.67164e-10
1.8234e-10
2.7399e-10
1.65274e-10
2.90909e-10
6.43871e-10
1.36598e-10
3.88353e-10
1.88679e-10
2.64414e-10
3.87208e-10
1.89388e-10
3.78535e-10
3.79306e-10
1.93878e-10
4.75568e-10
3.66209e-10
2.01623e-10
5.53654e-10
3.4968e-10
2.12124e-10
6.12029e-10
3.31e-10
2.24886e-10
6.50278e-10
3.10796e-10
2.39377e-10
6.6817e-10
2.89479e-10
2.54968e-10
6.65957e-10
2.67442e-10
2.70916e-10
2.43074e-10
2.86307e-10
6.44967e-10
1.30548e-10
4.83217e-10
1.98035e-10
2.53846e-10
4.83321e-10
1.98096e-10
3.65439e-10
4.761e-10
2.016e-10
4.61783e-10
4.62564e-10
2.08106e-10
5.40326e-10
4.44043e-10
2.17173e-10
5.99619e-10
4.22009e-10
2.2835e-10
6.39031e-10
3.97641e-10
2.41164e-10
6.58327e-10
3.71609e-10
2.55029e-10
6.5782e-10
3.44343e-10
2.69241e-10
3.13965e-10
2.82885e-10
6.39576e-10
1.23682e-10
5.58996e-10
2.10441e-10
2.41458e-10
5.603e-10
2.09749e-10
3.49162e-10
5.54013e-10
2.12103e-10
4.43262e-10
5.40907e-10
2.17156e-10
5.21126e-10
5.21941e-10
2.24554e-10
5.80835e-10
4.98192e-10
2.33905e-10
6.21196e-10
4.70956e-10
2.44783e-10
6.4173e-10
4.41392e-10
2.56673e-10
6.42795e-10
4.10153e-10
2.68945e-10
3.75245e-10
2.80679e-10
6.27423e-10
1.16248e-10
6.15122e-10
2.2532e-10
2.27719e-10
6.17521e-10
2.23787e-10
3.30687e-10
6.12325e-10
2.24884e-10
4.21475e-10
6.00044e-10
2.2834e-10
4.97391e-10
5.81489e-10
2.33894e-10
5.56556e-10
5.57459e-10
2.4124e-10
5.97431e-10
5.28836e-10
2.50009e-10
6.18962e-10
4.96874e-10
2.59745e-10
6.21326e-10
4.62732e-10
2.699e-10
4.2479e-10
2.79574e-10
6.08697e-10
1.08428e-10
6.51148e-10
2.42077e-10
2.13035e-10
6.54529e-10
2.39634e-10
3.10563e-10
6.50546e-10
2.39398e-10
3.97343e-10
6.39392e-10
2.41173e-10
4.70458e-10
6.21672e-10
2.44777e-10
5.27986e-10
5.98131e-10
2.4999e-10
5.68536e-10
5.69435e-10
2.56526e-10
5.90744e-10
5.36519e-10
2.63983e-10
5.94231e-10
5.0068e-10
2.71856e-10
4.61205e-10
2.79316e-10
5.84055e-10
1.00377e-10
6.66784e-10
2.60063e-10
1.9778e-10
6.71083e-10
2.56649e-10
2.8928e-10
6.68414e-10
2.55013e-10
3.71403e-10
6.58657e-10
2.55054e-10
4.41166e-10
6.42129e-10
2.56674e-10
4.964e-10
6.19452e-10
2.59709e-10
5.35768e-10
5.91377e-10
2.63936e-10
5.58147e-10
5.58816e-10
2.68995e-10
5.62706e-10
5.22913e-10
2.74425e-10
4.83809e-10
2.7953e-10
5.54722e-10
9.22598e-11
6.62035e-10
2.78526e-10
1.82204e-10
6.67318e-10
2.74075e-10
2.6726e-10
6.66184e-10
2.70982e-10
3.44146e-10
6.5813e-10
2.69279e-10
4.09979e-10
6.43175e-10
2.6895e-10
4.62509e-10
6.21751e-10
2.69863e-10
5.00269e-10
5.94674e-10
2.71792e-10
5.22426e-10
5.63153e-10
2.74387e-10
5.28286e-10
5.28688e-10
2.77246e-10
4.92705e-10
2.79802e-10
5.22839e-10
8.35085e-11
2.9667e-10
6.3731e-10
1.65154e-10
2.91008e-10
6.44013e-10
2.42912e-10
2.86384e-10
6.4517e-10
3.13781e-10
2.82933e-10
6.39847e-10
3.7506e-10
2.80693e-10
6.27746e-10
4.24614e-10
2.79554e-10
6.09043e-10
4.61e-10
2.79276e-10
5.84392e-10
4.83573e-10
2.79497e-10
5.55037e-10
4.92457e-10
2.79782e-10
5.23142e-10
2.79634e-10
4.91137e-10
4.91379e-10
4.39165e-10
4.40946e-10
3.29591e-10
8.40483e-10
4.34737e-10
3.32889e-10
1.18986e-09
4.19726e-10
3.44311e-10
1.48405e-09
4.01147e-10
3.62794e-10
1.72195e-09
3.80761e-10
3.87261e-10
1.90246e-09
3.58962e-10
4.16641e-10
2.0246e-09
3.36172e-10
4.49824e-10
2.08783e-09
3.12906e-10
4.85582e-10
2.09246e-09
2.89715e-10
5.22468e-10
2.65079e-10
5.58892e-10
2.0399e-09
4.32978e-10
8.42088e-10
3.32836e-10
8.33548e-10
8.35753e-10
3.35612e-10
1.18653e-09
8.13266e-10
3.4615e-10
1.48513e-09
7.81234e-10
3.63427e-10
1.72699e-09
7.44138e-10
3.86453e-10
1.91103e-09
7.03784e-10
4.14217e-10
2.03633e-09
6.61081e-10
4.45645e-10
2.10248e-09
6.17074e-10
4.79526e-10
2.11012e-09
5.72644e-10
5.14393e-10
5.24626e-10
5.48436e-10
2.06145e-09
4.18627e-10
1.19068e-09
3.44233e-10
8.11051e-10
1.18794e-09
3.46089e-10
1.16276e-09
1.16498e-09
3.5521e-10
1.46386e-09
1.12659e-09
3.70659e-10
1.70917e-09
1.07815e-09
3.91514e-10
1.89682e-09
1.02367e-09
4.1687e-10
2.02595e-09
9.65134e-10
4.45731e-10
2.09612e-09
9.03869e-10
4.76899e-10
2.1083e-09
8.4118e-10
5.0893e-10
7.72688e-10
5.39982e-10
2.06617e-09
4.00694e-10
1.4846e-09
3.62736e-10
7.79834e-10
1.48589e-09
3.6336e-10
1.12434e-09
1.4653e-09
3.70609e-10
1.42381e-09
1.42603e-09
3.83713e-10
1.67085e-09
1.3721e-09
4.01835e-10
1.8615e-09
1.30803e-09
4.2414e-10
1.99427e-09
1.23758e-09
4.49752e-10
2.06869e-09
1.16293e-09
4.7756e-10
2.08589e-09
1.08554e-09
5.06191e-10
1.0003e-09
5.33827e-10
2.05169e-09
3.80463e-10
1.72242e-09
3.87244e-10
7.43429e-10
1.72758e-09
3.86427e-10
1.07665e-09
1.71008e-09
3.91474e-10
1.36983e-09
1.67241e-09
4.01798e-10
1.61528e-09
1.61757e-09
4.16729e-10
1.80749e-09
1.54887e-09
4.35523e-10
1.94322e-09
1.47031e-09
4.5738e-10
2.02139e-09
1.38564e-09
4.81325e-10
2.04324e-09
1.29716e-09
5.06142e-10
1.19944e-09
5.3004e-10
2.0174e-09
3.58685e-10
1.90284e-09
4.16673e-10
7.03274e-10
1.91152e-09
4.14241e-10
1.02281e-09
1.89755e-09
4.16873e-10
1.3065e-09
1.8626e-09
4.24118e-10
1.54654e-09
1.80925e-09
4.35494e-10
1.73754e-09
1.74008e-09
4.50428e-10
1.87505e-09
1.65785e-09
4.68199e-10
1.95621e-09
1.56644e-09
4.8792e-10
1.98187e-09
1.46982e-09
5.0855e-10
1.36381e-09
5.28396e-10
1.96402e-09
3.35929e-10
2.0249e-09
4.4991e-10
6.60627e-10
2.03674e-09
4.45719e-10
9.64529e-10
2.02659e-09
4.45782e-10
1.23679e-09
1.99518e-09
4.49774e-10
1.46887e-09
1.94446e-09
4.57361e-10
1.65534e-09
1.8769e-09
4.68145e-10
1.79221e-09
1.79474e-09
4.81575e-10
1.87548e-09
1.70085e-09
4.96832e-10
1.9043e-09
1.59942e-09
5.12929e-10
1.48917e-09
5.28388e-10
1.89355e-09
3.12697e-10
2.08807e-09
4.85724e-10
6.16684e-10
2.10284e-09
4.79652e-10
9.03365e-10
2.09669e-09
4.76995e-10
1.16243e-09
2.06951e-09
4.77616e-10
1.38508e-09
2.02241e-09
4.81329e-10
1.56504e-09
1.95745e-09
4.87836e-10
1.69861e-09
1.87712e-09
4.96721e-10
1.78243e-09
1.78429e-09
5.07256e-10
1.81415e-09
1.68259e-09
5.18492e-10
1.57326e-09
5.29254e-10
1.80952e-09
2.8953e-10
2.09268e-09
5.22663e-10
5.72296e-10
2.11045e-09
5.14567e-10
8.40724e-10
2.10884e-09
5.09065e-10
1.08506e-09
2.08666e-09
5.0627e-10
1.29678e-09
2.04421e-09
5.06156e-10
1.46924e-09
1.98294e-09
5.08472e-10
1.59821e-09
1.90542e-09
5.12789e-10
1.68118e-09
1.81531e-09
5.18405e-10
1.71611e-09
1.71721e-09
5.24491e-10
1.61584e-09
5.3013e-10
1.71796e-09
2.64917e-10
5.59111e-10
2.04013e-09
5.24322e-10
5.48634e-10
2.06177e-09
7.72282e-10
5.40138e-10
2.06666e-09
9.99849e-10
5.33924e-10
2.05237e-09
1.199e-09
5.30069e-10
2.01822e-09
1.36338e-09
5.28356e-10
1.96491e-09
1.48864e-09
5.28308e-10
1.89441e-09
1.5726e-09
5.29183e-10
1.81033e-09
1.61513e-09
5.30085e-10
1.71874e-09
5.30163e-10
1.62675e-09
1.62739e-09
7.54584e-10
7.57458e-10
4.09298e-10
1.4461e-09
7.47523e-10
4.15028e-10
2.05218e-09
7.22953e-10
4.32291e-10
2.56892e-09
6.92813e-10
4.59733e-10
2.99577e-09
6.60157e-10
4.95947e-10
3.33202e-09
6.25657e-10
5.39541e-10
3.57698e-09
5.90052e-10
5.89079e-10
3.73046e-09
5.54286e-10
6.42948e-10
3.79342e-09
5.194e-10
6.99183e-10
4.83129e-10
7.55517e-10
3.76821e-09
7.44659e-10
1.44851e-09
4.14951e-10
1.43563e-09
1.43909e-09
4.19984e-10
2.04857e-09
1.40291e-09
4.36043e-10
2.57342e-09
1.35135e-09
4.61813e-10
3.00758e-09
1.29216e-09
4.96008e-10
3.35034e-09
1.22854e-09
5.37327e-10
3.60113e-09
1.16209e-09
5.84378e-10
3.75992e-09
1.09469e-09
6.35558e-10
3.82805e-09
1.02803e-09
6.88858e-10
9.57205e-10
7.41639e-10
3.8083e-09
7.21196e-10
2.05316e-09
4.32185e-10
1.39938e-09
2.05053e-09
4.35957e-10
2.01128e-09
2.01463e-09
4.50077e-10
2.54132e-09
1.95375e-09
4.73323e-10
2.98205e-09
1.87702e-09
5.04492e-10
3.33149e-09
1.79152e-09
5.42429e-10
3.58909e-09
1.70087e-09
5.85851e-10
3.75469e-09
1.60745e-09
6.33155e-10
3.83011e-09
1.51369e-09
6.82345e-10
1.41278e-09
7.30717e-10
3.82016e-09
6.92182e-10
2.56938e-09
4.59668e-10
1.34919e-09
2.57422e-09
4.61725e-10
1.95022e-09
2.54324e-09
4.73252e-10
2.47881e-09
2.4821e-09
4.93252e-10
2.92345e-09
2.39765e-09
5.20617e-10
3.27854e-09
2.2977e-09
5.54272e-10
3.54255e-09
2.18901e-09
5.93093e-10
3.71522e-09
2.07567e-09
6.35598e-10
3.79858e-09
1.96039e-09
6.79874e-10
1.8351e-09
7.23242e-10
3.8008e-09
6.59795e-10
2.99606e-09
4.95945e-10
1.29121e-09
3.00807e-09
4.95988e-10
1.87477e-09
2.98304e-09
5.0444e-10
2.39416e-09
2.9255e-09
5.20561e-10
2.83736e-09
2.84072e-09
5.43475e-10
3.19589e-09
2.73446e-09
5.72203e-10
3.46516e-09
2.61376e-09
6.05702e-10
3.644e-09
2.4855e-09
6.42678e-10
3.73469e-09
2.35416e-09
6.81443e-10
2.21101e-09
7.1935e-10
3.74984e-09
6.25318e-10
3.33214e-09
5.39611e-10
1.22794e-09
3.35065e-09
5.37382e-10
1.7904e-09
3.33217e-09
5.42448e-10
2.29545e-09
3.27981e-09
5.54242e-10
2.73091e-09
3.19822e-09
5.72154e-10
3.08847e-09
3.09221e-09
5.95447e-10
3.36121e-09
2.96665e-09
6.23155e-10
3.54493e-09
2.82841e-09
6.54069e-10
3.64138e-09
2.68505e-09
6.86756e-10
2.53016e-09
7.18731e-10
3.6688e-09
5.89762e-10
3.57697e-09
5.89226e-10
1.16156e-09
3.60131e-09
5.84506e-10
1.70019e-09
3.58964e-09
5.85942e-10
2.18808e-09
3.54353e-09
5.93135e-10
2.61167e-09
3.46662e-09
6.05669e-10
2.9627e-09
3.36361e-09
6.23059e-10
3.2351e-09
3.23883e-09
6.44579e-10
3.42227e-09
3.09723e-09
6.69067e-10
3.52307e-09
2.94645e-09
6.95126e-10
2.78526e-09
7.20628e-10
3.56098e-09
5.54046e-10
3.7304e-09
6.43177e-10
1.09425e-09
3.76005e-09
6.3576e-10
1.60692e-09
3.75515e-09
6.33309e-10
2.07525e-09
3.71605e-09
6.35689e-10
2.48498e-09
3.64511e-09
6.42685e-10
2.82624e-09
3.54627e-09
6.53927e-10
3.09364e-09
3.42425e-09
6.6888e-10
3.28141e-09
3.28405e-09
6.86489e-10
3.38565e-09
3.13219e-09
7.05373e-10
2.97168e-09
7.23862e-10
3.43181e-09
5.19192e-10
3.79339e-09
6.99485e-10
1.02765e-09
3.82819e-09
6.89128e-10
1.51322e-09
3.83055e-09
6.82553e-10
1.95996e-09
3.79937e-09
6.79997e-10
2.35394e-09
3.73574e-09
6.81468e-10
2.68439e-09
3.64255e-09
6.86637e-10
2.94459e-09
3.52429e-09
6.94906e-10
3.13004e-09
3.38705e-09
7.05232e-10
3.23715e-09
3.23866e-09
7.16377e-10
3.08731e-09
7.27025e-10
3.29018e-09
4.82947e-10
7.55852e-10
3.76825e-09
9.56871e-10
7.4194e-10
3.80848e-09
1.41235e-09
7.30953e-10
3.8206e-09
1.83464e-09
7.23389e-10
3.80151e-09
2.21059e-09
7.19397e-10
3.75076e-09
2.52975e-09
7.18673e-10
3.66981e-09
2.78464e-09
7.20509e-10
3.56198e-09
2.97075e-09
7.23752e-10
3.43276e-09
3.08624e-09
7.26949e-10
3.29111e-09
7.28846e-10
3.14825e-09
3.1491e-09
1.09134e-09
1.09514e-09
3.89616e-10
2.09506e-09
1.08201e-09
3.98595e-10
2.98206e-09
1.04868e-09
4.21736e-10
3.7495e-09
1.0083e-09
4.57547e-10
4.39892e-09
9.65293e-10
5.04526e-10
4.93111e-09
9.20619e-10
5.61235e-10
5.34655e-09
8.75371e-10
6.26216e-10
5.6458e-09
8.30975e-10
6.97794e-10
5.83015e-09
7.89037e-10
7.7381e-10
7.4662e-10
8.51648e-10
5.90177e-09
1.07818e-09
2.09791e-09
3.9851e-10
2.08234e-09
2.08671e-09
4.06649e-10
2.98034e-09
2.03875e-09
4.2835e-10
3.76042e-09
1.97039e-09
4.62164e-10
4.42122e-09
1.89288e-09
5.06724e-10
4.96357e-09
1.81097e-09
5.60691e-10
5.3881e-09
1.727e-09
6.22643e-10
5.69549e-09
1.64381e-09
6.90891e-10
5.88732e-09
1.56397e-09
7.63189e-10
1.48085e-09
8.36344e-10
5.9649e-09
1.04641e-09
2.98268e-09
4.21627e-10
2.03418e-09
2.98232e-09
4.28257e-10
2.93261e-09
2.93664e-09
4.4765e-10
3.72173e-09
2.8575e-09
4.78464e-10
4.39312e-09
2.75804e-09
5.19414e-10
4.94589e-09
2.64871e-09
5.69322e-10
5.38061e-09
2.53499e-09
6.26874e-10
5.69759e-09
2.42042e-09
6.9035e-10
5.89898e-09
2.30866e-09
7.57476e-10
2.19031e-09
8.24915e-10
5.98836e-09
1.00767e-09
3.74927e-09
4.57497e-10
1.96775e-09
3.76064e-09
4.6208e-10
2.85311e-09
3.72351e-09
4.78388e-10
3.64238e-09
3.64618e-09
5.05345e-10
4.32096e-09
3.53843e-09
5.41764e-10
4.88271e-09
3.41168e-09
5.86536e-10
5.32686e-09
3.27608e-09
6.38519e-10
5.6535e-09
3.13792e-09
6.96109e-10
5.86505e-09
3.00123e-09
7.57106e-10
2.85469e-09
8.1813e-10
5.96942e-09
9.65054e-10
4.39837e-09
5.04559e-10
1.89202e-09
4.42094e-09
5.0673e-10
2.75544e-09
4.39351e-09
5.19369e-10
3.53421e-09
4.32281e-09
5.41702e-10
4.21286e-09
4.21665e-09
5.72805e-10
4.78074e-09
4.08349e-09
6.11666e-10
5.23263e-09
3.9337e-09
6.57203e-10
5.56751e-09
3.77775e-09
7.08021e-10
5.78822e-09
3.62267e-09
7.62174e-10
3.45587e-09
8.16243e-10
5.90855e-09
9.20393e-10
4.93031e-09
5.6136e-10
1.81061e-09
4.96303e-09
5.60793e-10
2.64779e-09
4.94583e-09
5.69369e-10
3.40918e-09
4.88341e-09
5.86512e-10
4.0792e-09
4.78291e-09
6.11606e-10
4.64743e-09
4.6517e-09
6.4392e-10
5.10481e-09
4.4971e-09
6.82429e-10
5.44596e-09
4.32918e-09
7.25805e-10
5.67327e-09
4.15969e-09
7.72395e-10
3.97953e-09
8.18908e-10
5.8083e-09
8.75194e-10
5.3456e-09
6.26437e-10
1.72671e-09
5.3874e-09
6.22835e-10
2.53469e-09
5.38037e-09
6.27012e-10
3.27554e-09
5.32718e-09
6.38586e-10
3.93143e-09
5.23355e-09
6.57165e-10
4.4921e-09
5.10692e-09
6.82299e-10
4.94991e-09
4.95421e-09
7.13248e-10
5.2953e-09
4.78246e-09
7.48682e-10
5.52645e-09
4.60308e-09
7.86942e-10
4.41479e-09
8.25156e-10
5.67307e-09
8.30853e-10
5.64485e-09
6.98114e-10
1.64362e-09
5.69477e-09
6.91173e-10
2.42029e-09
5.69727e-09
6.90564e-10
3.13811e-09
5.65363e-09
6.96235e-10
3.77784e-09
5.56796e-09
7.08031e-10
4.32658e-09
5.44652e-09
7.25609e-10
4.77783e-09
5.29673e-09
7.48425e-10
5.1229e-09
5.12573e-09
7.75217e-10
5.35565e-09
4.94297e-09
8.04312e-10
4.75342e-09
8.33408e-10
5.5095e-09
7.88942e-10
5.82935e-09
7.7422e-10
1.56382e-09
5.88673e-09
7.63553e-10
2.30854e-09
5.89875e-09
7.57756e-10
3.00132e-09
5.8652e-09
7.5727e-10
3.62318e-09
5.78865e-09
7.62207e-10
4.15938e-09
5.67374e-09
7.72233e-10
4.60085e-09
5.52699e-09
7.86648e-10
4.94041e-09
5.35665e-09
8.04127e-10
5.17205e-09
5.17355e-09
8.231e-10
4.9892e-09
8.41652e-10
5.32795e-09
7.4654e-10
8.52095e-10
5.90119e-09
1.48072e-09
8.36744e-10
5.9645e-09
2.19018e-09
8.25228e-10
5.98827e-09
2.85462e-09
8.18324e-10
5.96964e-09
3.45592e-09
8.16304e-10
5.90901e-09
3.97954e-09
8.18833e-10
5.80885e-09
4.41445e-09
8.25003e-10
5.67365e-09
4.7525e-09
8.33261e-10
5.51009e-09
4.98796e-09
8.41543e-10
5.32859e-09
8.48043e-10
5.14382e-09
5.1446e-09
1.43838e-09
1.44287e-09
2.48374e-10
2.76638e-09
1.42721e-09
2.6126e-10
3.9499e-09
1.38635e-09
2.89668e-10
4.98901e-09
1.33756e-09
3.32095e-10
5.88886e-09
1.28667e-09
3.87198e-10
6.65297e-09
1.23494e-09
4.53804e-10
7.28373e-09
1.18384e-09
5.30767e-10
7.78273e-09
1.13532e-09
6.1673e-10
8.15102e-09
1.09158e-09
7.09776e-10
1.04899e-09
8.07439e-10
8.38901e-09
1.42264e-09
2.7692e-09
2.61192e-10
2.75285e-09
2.75768e-09
2.73124e-10
3.9523e-09
2.7004e-09
2.99949e-10
5.00927e-09
2.61879e-09
3.40245e-10
5.92521e-09
2.52773e-09
3.92785e-10
6.70366e-09
2.43359e-09
4.56463e-10
7.34727e-09
2.33951e-09
5.30149e-10
7.8576e-09
2.24933e-09
6.12437e-10
8.23576e-09
2.16654e-09
7.0126e-10
2.08255e-09
7.93363e-10
8.47914e-09
1.38378e-09
3.94959e-09
2.8959e-10
2.6952e-09
3.95372e-09
2.99879e-10
3.89778e-09
3.90192e-09
3.24211e-10
4.96872e-09
3.80973e-09
3.61316e-10
5.90008e-09
3.69438e-09
4.10042e-10
6.69325e-09
3.56988e-09
4.69414e-10
7.35068e-09
3.44373e-09
5.38378e-10
7.87325e-09
3.32068e-09
6.15443e-10
8.26267e-09
3.20557e-09
6.98457e-10
3.08605e-09
7.83884e-10
8.51844e-09
1.33715e-09
4.98745e-09
3.32084e-10
2.61607e-09
5.00826e-09
3.40195e-10
3.80498e-09
4.96967e-09
3.6126e-10
4.87912e-09
4.88277e-09
3.94287e-10
5.82203e-09
4.76036e-09
4.38227e-10
6.62811e-09
4.61759e-09
4.92162e-10
7.29813e-09
4.46834e-09
5.55175e-10
7.83256e-09
4.32123e-09
6.25849e-10
8.23346e-09
4.18157e-09
7.02064e-10
4.03404e-09
7.8011e-10
8.50542e-09
1.28677e-09
5.88681e-09
3.87281e-10
2.52737e-09
5.92347e-09
3.92832e-10
3.69194e-09
5.89912e-09
4.10026e-10
4.75599e-09
5.8229e-09
4.38178e-10
5.70181e-09
5.70531e-09
4.76501e-10
6.51751e-09
5.55769e-09
5.24166e-10
7.19785e-09
5.39397e-09
5.80297e-10
7.7421e-09
5.2285e-09
6.43654e-10
8.15292e-09
5.07097e-09
7.12348e-10
4.90385e-09
7.82469e-10
8.44197e-09
1.23503e-09
6.65055e-09
4.53989e-10
2.43386e-09
6.70156e-09
4.56616e-10
3.56969e-09
6.69168e-09
4.69498e-10
4.61545e-09
6.62743e-09
4.92158e-10
5.55331e-09
6.51866e-09
5.24114e-10
6.37164e-09
6.3757e-09
5.64809e-10
7.05973e-09
6.20844e-09
6.13408e-10
7.61102e-09
6.03032e-09
6.68718e-10
8.0279e-09
5.85757e-09
7.29111e-10
5.67726e-09
7.90649e-10
8.33184e-09
1.18396e-09
7.28116e-09
5.31056e-10
2.33982e-09
7.34501e-09
5.304e-10
3.44433e-09
7.34892e-09
5.38559e-10
4.46883e-09
7.29698e-09
5.55266e-10
5.39214e-09
7.19735e-09
5.80264e-10
6.20296e-09
7.06063e-09
6.13267e-10
6.89256e-09
6.89667e-09
6.53706e-10
7.44813e-09
6.71461e-09
7.00344e-10
7.86639e-09
6.52956e-09
7.51503e-10
6.33938e-09
8.03571e-10
8.18025e-09
1.13549e-09
7.78027e-09
6.17127e-10
2.24972e-09
7.8554e-09
6.12785e-10
3.32143e-09
7.87147e-09
6.15705e-10
4.32266e-09
7.83121e-09
6.26e-10
5.22987e-09
7.74101e-09
6.43664e-10
6.02777e-09
7.6098e-09
6.68488e-10
6.70937e-09
7.448e-09
7.00047e-10
7.26248e-09
7.26478e-09
7.37078e-10
7.67778e-09
7.07236e-09
7.77863e-10
6.87706e-09
8.19372e-10
7.99423e-09
1.09175e-09
8.14889e-09
7.10271e-10
2.16692e-09
8.23387e-09
7.01696e-10
3.20625e-09
8.26114e-09
6.98788e-10
4.18271e-09
8.23228e-09
7.02254e-10
5.0728e-09
8.15192e-09
7.12378e-10
5.85814e-09
8.02678e-09
7.28912e-10
6.52735e-09
7.86536e-09
7.51159e-10
7.06982e-09
7.67763e-09
7.77651e-10
7.47607e-09
7.47705e-09
8.06674e-10
7.27762e-09
8.35539e-10
7.78406e-09
1.04915e-09
8.07972e-10
8.38737e-09
2.08288e-09
7.93837e-10
8.4777e-09
3.08659e-09
7.8425e-10
8.51731e-09
4.03484e-09
7.80333e-10
8.50457e-09
4.90487e-09
7.82533e-10
8.44132e-09
5.67817e-09
7.90554e-10
8.33128e-09
6.33977e-09
8.03391e-10
8.17979e-09
6.8765e-09
8.19198e-10
7.99388e-09
7.27648e-09
8.35404e-10
7.78392e-09
8.49525e-10
7.56721e-09
7.56759e-09
1.77244e-09
1.77733e-09
-2.26332e-11
3.41488e-09
1.75989e-09
-5.67556e-12
4.89013e-09
1.71309e-09
2.62672e-11
6.2026e-09
1.65812e-09
7.17822e-11
7.3624e-09
1.60211e-09
1.29907e-10
8.37681e-09
1.54667e-09
1.99954e-10
9.25111e-09
1.49368e-09
2.81348e-10
9.98842e-09
1.44565e-09
3.73367e-10
1.05895e-08
1.40543e-09
4.74765e-10
1.36863e-09
5.83821e-10
1.10524e-08
1.75487e-09
3.41725e-09
-5.69505e-12
3.40187e-09
3.40668e-09
1.02345e-11
4.89834e-09
3.34287e-09
4.05678e-11
6.23416e-09
3.25208e-09
8.40603e-11
7.41502e-09
3.15272e-09
1.398e-10
8.44825e-09
3.05278e-09
2.07109e-10
9.33936e-09
2.95627e-09
2.85394e-10
1.00913e-08
2.86808e-09
3.73845e-10
1.07046e-08
2.79266e-09
4.71014e-10
2.71918e-09
5.74243e-10
1.11713e-08
1.71045e-09
4.88844e-09
2.62598e-11
3.33751e-09
4.89871e-09
4.05578e-11
4.84071e-09
4.84442e-09
6.84498e-11
6.1961e-09
4.74469e-09
1.08918e-10
7.39766e-09
4.62074e-09
1.61121e-10
8.45015e-09
4.49017e-09
2.24434e-10
9.35879e-09
4.36254e-09
2.98281e-10
1.01254e-08
4.24388e-09
3.81723e-10
1.0751e-08
4.14027e-09
4.73153e-10
4.03576e-09
5.69487e-10
1.12293e-08
1.65813e-09
6.19925e-09
7.18322e-11
3.2497e-09
6.23143e-09
8.40786e-11
4.74012e-09
6.19567e-09
1.0891e-10
6.10287e-09
6.10578e-09
1.45567e-10
7.32109e-09
5.97757e-09
1.93323e-10
8.3908e-09
5.83e-09
2.51609e-10
9.3152e-09
5.68074e-09
3.19912e-10
1.00955e-08
5.54085e-09
3.97293e-10
1.07331e-08
5.41689e-09
4.82124e-10
5.2886e-09
5.7097e-10
1.12272e-08
1.60274e-09
7.35833e-09
1.30042e-10
3.15323e-09
7.4113e-09
1.39897e-10
4.61897e-09
7.39476e-09
1.61153e-10
5.97366e-09
7.32032e-09
1.93309e-10
7.19873e-09
7.20127e-09
2.35857e-10
8.28218e-09
7.05191e-09
2.88328e-10
9.21958e-09
6.88989e-09
3.50237e-10
1.00109e-08
6.73357e-09
4.20747e-10
1.06583e-08
6.59531e-09
4.9838e-10
6.45127e-09
5.79291e-10
1.11689e-08
1.54725e-09
8.37228e-09
2.00186e-10
3.05403e-09
8.44405e-09
2.07302e-10
4.49118e-09
8.44648e-09
2.2455e-10
5.82879e-09
8.38808e-09
2.51638e-10
7.04809e-09
8.2816e-09
2.88302e-10
8.13737e-09
8.14051e-09
3.34293e-10
9.08507e-09
7.97747e-09
3.89171e-10
9.88383e-09
7.80946e-09
4.52136e-10
1.05358e-08
7.65722e-09
5.21879e-10
7.50224e-09
5.94257e-10
1.10594e-08
1.49426e-09
9.24645e-09
2.81677e-10
2.9575e-09
9.33501e-09
2.85678e-10
4.36448e-09
9.35491e-09
2.98484e-10
5.68282e-09
9.31192e-09
3.20017e-10
6.88913e-09
9.21692e-09
3.50225e-10
7.97214e-09
9.08397e-09
3.89056e-10
8.9229e-09
8.92611e-09
4.36269e-10
9.72559e-09
8.75465e-09
4.9101e-10
1.03751e-08
8.58844e-09
5.51891e-10
8.4226e-09
6.1485e-10
1.09046e-08
1.44626e-09
9.98401e-09
3.73794e-10
2.86934e-09
1.00872e-08
3.74217e-10
4.24593e-09
1.01216e-08
3.81997e-10
5.54402e-09
1.0092e-08
3.97445e-10
6.7368e-09
1.00075e-08
4.20752e-10
7.80749e-09
9.87997e-09
4.51914e-10
8.74936e-09
9.72304e-09
4.90726e-10
9.54676e-09
9.54786e-09
5.36191e-10
1.01869e-08
9.36934e-09
5.86878e-10
9.19355e-09
6.39187e-10
1.07113e-08
1.40602e-09
1.05857e-08
4.75283e-10
2.79384e-09
1.0701e-08
4.71466e-10
4.14212e-09
1.07476e-08
4.73489e-10
5.41955e-09
1.073e-08
4.82307e-10
6.59899e-09
1.06551e-08
4.98393e-10
7.65912e-09
1.05323e-08
5.2166e-10
8.58671e-09
1.03717e-08
5.51546e-10
9.36731e-09
1.01849e-08
5.86674e-10
9.98746e-09
9.98745e-09
6.25483e-10
9.79423e-09
6.64579e-10
1.04881e-08
1.36915e-09
5.84371e-10
1.10494e-08
2.72022e-09
5.74727e-10
1.11685e-08
4.0373e-09
5.69853e-10
1.12267e-08
5.29064e-09
5.71183e-10
1.12248e-08
6.45367e-09
5.79339e-10
1.11665e-08
7.50446e-09
5.94145e-10
1.10571e-08
8.42412e-09
6.1466e-10
1.09026e-08
9.1937e-09
6.39008e-10
1.07095e-08
9.79346e-09
6.64435e-10
1.04867e-08
6.87845e-10
1.0253e-08
1.02527e-08
2.06099e-09
2.06592e-09
-4.13093e-10
3.97728e-09
2.04738e-09
-3.92552e-10
5.70971e-09
1.99658e-09
-3.59931e-10
7.26774e-09
1.93787e-09
-3.16511e-10
8.66736e-09
1.87942e-09
-2.62792e-10
9.9204e-09
1.82327e-09
-1.9892e-10
1.10358e-08
1.7718e-09
-1.24866e-10
1.20193e-08
1.72814e-09
-4.06318e-11
1.28721e-08
1.69582e-09
5.34236e-11
1.6696e-09
1.56725e-10
1.35911e-08
2.04228e-09
3.9788e-09
-3.92508e-10
3.96574e-09
3.97002e-09
-3.73e-10
5.72438e-09
3.90238e-09
-3.41857e-10
7.31081e-09
3.8064e-09
-3.00076e-10
8.73614e-09
3.70363e-09
-2.48204e-10
1.00122e-08
3.60355e-09
-1.86454e-10
1.11482e-08
3.51113e-09
-1.1484e-10
1.21493e-08
3.43238e-09
-3.34752e-11
1.30164e-08
3.37278e-09
5.70636e-11
3.31904e-09
1.55287e-10
1.37371e-08
1.9941e-09
5.70648e-09
-3.59858e-10
3.89742e-09
5.72345e-09
-3.41793e-10
5.6666e-09
5.66946e-09
-3.12769e-10
7.27811e-09
5.56694e-09
-2.73454e-10
8.72926e-09
5.44089e-09
-2.24325e-10
1.00289e-08
5.31211e-09
-1.65646e-10
1.11858e-08
5.19217e-09
-9.74808e-11
1.22037e-08
5.08854e-09
-2.00886e-11
1.30836e-08
5.00858e-09
6.57528e-11
4.9322e-09
1.58041e-10
1.38139e-08
1.9384e-09
7.26252e-09
-3.1641e-10
3.80474e-09
7.30627e-09
-2.99985e-10
5.56303e-09
7.27609e-09
-2.73402e-10
7.18659e-09
7.18838e-09
-2.37116e-10
8.65963e-09
7.06185e-09
-1.91452e-10
9.98079e-09
6.91898e-09
-1.36614e-10
1.11565e-08
6.78113e-09
-7.26977e-11
1.21896e-08
6.6618e-09
-3.50972e-14
1.30814e-08
6.56896e-09
8.05255e-11
6.47638e-09
1.66492e-10
1.38259e-08
1.88066e-09
8.66118e-09
-2.62634e-10
3.70522e-09
8.7303e-09
-2.48078e-10
5.44015e-09
8.72422e-09
-2.24246e-10
7.05882e-09
8.65695e-09
-1.9142e-10
8.54322e-09
8.54441e-09
-1.4979e-10
9.8825e-09
8.40387e-09
-9.94223e-11
1.1074e-08
8.25669e-09
-4.03764e-11
1.21191e-08
8.12521e-09
2.70146e-11
1.30203e-08
8.02443e-09
1.01936e-10
7.92273e-09
1.81315e-10
1.37794e-08
1.82443e-09
9.91364e-09
-1.98688e-10
3.60595e-09
1.00057e-08
-1.86262e-10
5.31457e-09
1.00229e-08
-1.65522e-10
6.9191e-09
9.97576e-09
-1.36554e-10
8.40107e-09
9.87986e-09
-9.94067e-11
9.74999e-09
9.75181e-09
-5.40201e-11
1.09547e-08
9.6072e-09
-3.71921e-13
1.20079e-08
9.46678e-09
6.12617e-11
1.29119e-08
9.35564e-09
1.30094e-10
9.24755e-09
2.02479e-10
1.36811e-08
1.77293e-09
1.1029e-08
-1.24561e-10
3.51343e-09
1.11416e-08
-1.14581e-10
5.19568e-09
1.11796e-08
-9.73008e-11
6.78508e-09
1.11508e-08
-7.26041e-11
8.25742e-09
1.10688e-08
-4.03617e-11
9.60253e-09
1.09512e-08
-4.23527e-13
1.08125e-08
1.08143e-08
4.73183e-11
1.18696e-08
1.0672e-08
1.02581e-10
1.27674e-08
1.05469e-08
1.6452e-10
1.04287e-08
2.29223e-10
1.35373e-08
1.72925e-09
1.20128e-08
-4.02548e-11
3.43464e-09
1.21431e-08
-3.31538e-11
5.09207e-09
1.21976e-08
-1.9862e-11
6.66694e-09
1.21837e-08
7.68586e-14
8.13056e-09
1.21131e-08
2.70048e-11
9.46582e-09
1.2001e-08
6.10964e-11
1.06672e-08
1.18642e-08
1.02381e-10
1.17165e-08
1.17159e-08
1.50328e-10
1.25981e-08
1.15741e-08
2.04104e-10
1.14419e-08
2.60013e-10
1.33538e-08
1.69687e-09
1.28665e-08
5.38654e-11
3.37489e-09
1.3011e-08
5.74418e-11
5.01177e-09
1.30782e-08
6.60209e-11
6.57333e-09
1.30761e-08
8.06539e-11
8.03014e-09
1.30147e-08
1.01914e-10
9.3591e-09
1.29056e-08
1.2989e-10
1.0546e-08
1.27612e-08
1.64245e-10
1.1573e-08
1.25941e-08
2.03955e-10
1.24232e-08
1.24219e-08
2.47936e-10
1.2258e-08
2.92514e-10
1.31372e-08
1.67055e-09
1.57183e-10
1.35867e-08
3.32089e-09
1.55683e-10
1.37327e-08
4.93489e-09
1.58327e-10
1.38097e-08
6.47985e-09
1.66641e-10
1.38217e-08
7.9267e-09
1.81325e-10
1.37751e-08
9.25124e-09
2.02358e-10
1.36768e-08
1.04315e-08
2.29052e-10
1.35332e-08
1.1443e-08
2.59863e-10
1.33503e-08
1.22578e-08
2.92392e-10
1.31344e-08
3.23338e-10
1.29041e-08
1.29028e-08
2.26823e-09
2.2729e-09
-8.91723e-10
4.38329e-09
2.25393e-09
-8.6861e-10
6.30439e-09
2.20112e-09
-8.38664e-10
8.04538e-09
2.14084e-09
-8.03029e-10
9.628e-09
2.08195e-09
-7.61856e-10
1.10685e-08
2.02701e-09
-7.1491e-10
1.238e-08
1.97892e-09
-6.61796e-10
1.35713e-08
1.94141e-09
-6.02061e-10
1.46458e-08
1.91873e-09
-5.35372e-10
1.90477e-09
-4.61275e-10
1.56015e-08
2.24907e-09
4.38385e-09
-8.68512e-10
4.37359e-09
4.377e-09
-8.46337e-10
6.3246e-09
4.30772e-09
-8.17535e-10
8.09772e-09
4.20971e-09
-7.82881e-10
9.70959e-09
4.10695e-09
-7.4269e-10
1.11763e-08
4.01015e-09
-6.96857e-10
1.25112e-08
3.92517e-09
-6.45033e-10
1.37226e-08
3.85916e-09
-5.86859e-10
1.48128e-08
3.8187e-09
-5.22165e-10
3.78793e-09
-4.5113e-10
1.57678e-08
2.19895e-09
6.29986e-09
-8.38541e-10
4.30356e-09
6.32253e-09
-8.17422e-10
6.26821e-09
6.27009e-09
-7.90137e-10
8.07081e-09
6.16778e-09
-7.57034e-10
9.71258e-09
6.04374e-09
-7.18344e-10
1.12064e-08
5.92116e-09
-6.74115e-10
1.25648e-08
5.81339e-09
-6.24105e-10
1.37943e-08
5.72932e-09
-5.6806e-10
1.48974e-08
5.67769e-09
-5.05986e-10
5.63404e-09
-4.38518e-10
1.58597e-08
2.14187e-09
8.03868e-09
-8.02919e-10
4.20896e-09
8.09175e-09
-7.82751e-10
6.16477e-09
8.06744e-09
-7.56933e-10
7.98354e-09
7.98423e-09
-7.2564e-10
9.6516e-09
7.86334e-09
-6.88887e-10
1.11705e-08
7.73017e-09
-6.4665e-10
1.25503e-08
7.60911e-09
-5.98808e-10
1.37962e-08
7.51595e-09
-5.45231e-10
1.49109e-08
7.46014e-09
-4.86001e-10
7.4091e-09
-4.22249e-10
1.58854e-08
2.08376e-09
9.6201e-09
-7.61719e-10
4.10959e-09
9.702e-09
-7.4257e-10
6.0441e-09
9.70572e-09
-7.18232e-10
7.86132e-09
9.64722e-09
-6.88807e-10
9.54479e-09
9.54468e-09
-6.54257e-10
1.10857e-08
9.41793e-09
-6.14385e-10
1.24839e-08
9.2917e-09
-5.68999e-10
1.37429e-08
9.19186e-09
-5.18066e-10
1.48666e-08
9.13579e-09
-4.61754e-10
9.08341e-09
-4.01792e-10
1.58536e-08
2.02869e-09
1.10599e-08
-7.14731e-10
4.01358e-09
1.1168e-08
-6.96711e-10
5.92499e-09
1.11984e-08
-6.74012e-10
7.73163e-09
1.11634e-08
-6.46569e-10
9.41627e-09
1.10812e-08
-6.14323e-10
1.09705e-08
1.0971e-08
-5.77065e-10
1.23848e-08
1.08513e-08
-5.34461e-10
1.36529e-08
1.07465e-08
-4.86377e-10
1.47786e-08
1.06854e-08
-4.33092e-10
1.06326e-08
-3.77061e-10
1.57727e-08
1.98053e-09
1.23713e-08
-6.61583e-10
3.92843e-09
1.25027e-08
-6.44859e-10
5.8183e-09
1.25566e-08
-6.23993e-10
7.61478e-09
1.25424e-08
-5.98752e-10
9.29396e-09
1.24764e-08
-5.68955e-10
1.08475e-08
1.23792e-08
-5.34423e-10
1.22696e-08
1.22701e-08
-4.94859e-10
1.35424e-08
1.21659e-08
-4.50036e-10
1.46595e-08
1.20929e-08
-4.00214e-10
1.20327e-08
-3.48418e-10
1.56496e-08
1.94297e-09
1.35631e-08
-6.0182e-10
3.86232e-09
1.37146e-08
-5.86664e-10
5.73416e-09
1.37864e-08
-5.67938e-10
7.5228e-09
1.37881e-08
-5.45192e-10
9.19911e-09
1.37344e-08
-5.18093e-10
1.07466e-08
1.36433e-08
-4.86433e-10
1.21618e-08
1.35345e-08
-4.50086e-10
1.34256e-08
1.34236e-08
-4.09094e-10
1.45216e-08
1.33315e-08
-3.63597e-10
1.32558e-08
-3.16696e-10
1.54896e-08
1.9202e-09
1.46386e-08
-5.35111e-10
3.82162e-09
1.48058e-08
-5.21953e-10
5.68206e-09
1.48903e-08
-5.05856e-10
7.46601e-09
1.49035e-08
-4.85967e-10
9.14324e-09
1.48588e-08
-4.61813e-10
1.06902e-08
1.47698e-08
-4.33232e-10
1.20929e-08
1.46508e-08
-4.00341e-10
1.33313e-08
1.45156e-08
-3.63645e-10
1.43867e-08
1.43843e-08
-3.23555e-10
1.42656e-08
-2.83307e-10
1.52966e-08
1.90609e-09
-4.61021e-10
1.55958e-08
3.79049e-09
-4.50924e-10
1.57622e-08
5.63774e-09
-4.38391e-10
1.5854e-08
7.4138e-09
-4.22211e-10
1.58795e-08
9.08872e-09
-4.01833e-10
1.58475e-08
1.06375e-08
-3.77167e-10
1.57665e-08
1.20367e-08
-3.48529e-10
1.56438e-08
1.32577e-08
-3.16776e-10
1.54846e-08
1.42659e-08
-2.83371e-10
1.52925e-08
-2.51048e-10
1.50847e-08
1.50827e-08
2.36408e-09
2.36854e-09
-1.40861e-09
4.57235e-09
2.34965e-09
-1.38396e-09
6.58308e-09
2.2963e-09
-1.35933e-09
8.41235e-09
2.23574e-09
-1.33567e-09
1.00855e-08
2.1772e-09
-1.31297e-09
1.16217e-08
2.12366e-09
-1.29093e-09
1.30371e-08
2.07839e-09
-1.26919e-09
1.43438e-08
2.04559e-09
-1.24732e-09
1.55477e-08
2.03008e-09
-1.22482e-09
2.02489e-09
-1.20081e-09
1.66502e-08
2.34503e-09
4.57233e-09
-1.38382e-09
4.56378e-09
4.56664e-09
-1.35988e-09