/*--------------------------------*- C++ -*----------------------------------*\
| =========                 |                                                 |
| \\      /  F ield         | foam-extend: Open Source CFD                    |
|  \\    /   O peration     | Version:     3.1                                |
|   \\  /    A nd           | Web:         http://www.extend-project.de       |
|    \\/     M anipulation  |                                                 |
\*---------------------------------------------------------------------------*/
FoamFile
{
    version     2.0;
    format      ascii;
    class       volScalarField;
    location    "0.0013";
    object      p;
}
// * * * * * * * * * * * * * * * * * * * * * * * * * * * * * * * * * * * * * //

dimensions      [0 2 -2 0 0 0 0];

internalField   nonuniform List<scalar> 
16000
(
1.30872
1.30883
1.30906
1.3094
1.30985
1.31043
1.31112
1.31193
1.31286
1.31389
1.30883
1.30894
1.30915
1.30948
1.30992
1.31047
1.31115
1.31193
1.31283
1.31382
1.30906
1.30915
1.30935
1.30966
1.31008
1.31061
1.31126
1.31201
1.31287
1.31383
1.3094
1.30948
1.30966
1.30995
1.31035
1.31085
1.31146
1.31218
1.313
1.31392
1.30985
1.30992
1.31008
1.31035
1.31071
1.31118
1.31176
1.31243
1.31321
1.31408
1.31043
1.31047
1.31061
1.31085
1.31118
1.31161
1.31214
1.31277
1.3135
1.31431
1.31112
1.31115
1.31126
1.31146
1.31176
1.31214
1.31263
1.3132
1.31387
1.31461
1.31193
1.31193
1.31201
1.31218
1.31243
1.31277
1.3132
1.31371
1.31431
1.31498
1.31286
1.31283
1.31287
1.313
1.31321
1.3135
1.31387
1.31431
1.31483
1.31539
1.31389
1.31382
1.31383
1.31392
1.31408
1.31431
1.31461
1.31498
1.31539
1.31585
1.25928
1.25963
1.26032
1.26137
1.26278
1.26455
1.26671
1.26924
1.27215
1.27541
1.25963
1.25995
1.26061
1.26161
1.26296
1.26467
1.26674
1.26917
1.27197
1.2751
1.26032
1.26061
1.26122
1.26217
1.26345
1.26508
1.26706
1.26939
1.27207
1.27507
1.26137
1.26161
1.26217
1.26305
1.26426
1.2658
1.26768
1.26989
1.27244
1.27531
1.26278
1.26296
1.26345
1.26426
1.26538
1.26683
1.2686
1.27069
1.2731
1.2758
1.26455
1.26467
1.26508
1.2658
1.26683
1.26816
1.26981
1.27177
1.27402
1.27656
1.26671
1.26674
1.26706
1.26768
1.2686
1.26981
1.27132
1.27313
1.27522
1.27758
1.26924
1.26917
1.26939
1.26989
1.27069
1.27177
1.27313
1.27477
1.27668
1.27885
1.27215
1.27197
1.27207
1.27244
1.2731
1.27402
1.27522
1.27668
1.27841
1.28036
1.27541
1.2751
1.27507
1.27531
1.2758
1.27656
1.27758
1.27885
1.28036
1.28211
1.20763
1.20819
1.20933
1.21105
1.21339
1.21635
1.21998
1.22429
1.22932
1.23507
1.20819
1.20872
1.2098
1.21145
1.21369
1.21654
1.22003
1.22418
1.22901
1.23454
1.20933
1.2098
1.21082
1.21238
1.21452
1.21724
1.22058
1.22455
1.22919
1.23449
1.21105
1.21145
1.21238
1.21385
1.21586
1.21845
1.22164
1.22543
1.22985
1.23492
1.21339
1.21369
1.21452
1.21586
1.21775
1.22019
1.2232
1.22681
1.23101
1.23582
1.21635
1.21654
1.21724
1.21845
1.22019
1.22247
1.2253
1.22869
1.23266
1.23721
1.21998
1.22003
1.22058
1.22164
1.22321
1.2253
1.22792
1.23109
1.23481
1.23908
1.22429
1.22418
1.22455
1.22543
1.22681
1.22869
1.23109
1.23401
1.23746
1.24143
1.22932
1.22901
1.22919
1.22985
1.23101
1.23266
1.23481
1.23746
1.24062
1.24427
1.23507
1.23454
1.23449
1.23492
1.23582
1.23721
1.23908
1.24143
1.24427
1.2476
1.15211
1.15286
1.15438
1.15668
1.15982
1.16384
1.16881
1.17481
1.18191
1.19019
1.15286
1.15357
1.15501
1.15722
1.16023
1.1641
1.16888
1.17465
1.18147
1.18942
1.15438
1.15501
1.15636
1.15847
1.16135
1.16506
1.16965
1.17518
1.18173
1.18935
1.15668
1.15722
1.15847
1.16044
1.16318
1.16672
1.17112
1.17642
1.18268
1.18998
1.15982
1.16023
1.16135
1.16318
1.16576
1.16912
1.1733
1.17836
1.18435
1.19131
1.16384
1.1641
1.16506
1.16672
1.16912
1.17228
1.17624
1.18104
1.18673
1.19336
1.16881
1.16888
1.16965
1.17112
1.1733
1.17624
1.17995
1.18448
1.18986
1.19613
1.17481
1.17465
1.17518
1.17642
1.17836
1.18104
1.18448
1.18871
1.19376
1.19965
1.18191
1.18147
1.18173
1.18268
1.18435
1.18673
1.18986
1.19376
1.19845
1.20395
1.19019
1.18942
1.18935
1.18998
1.19131
1.19336
1.19613
1.19965
1.20395
1.20903
1.09153
1.09239
1.09415
1.09684
1.10052
1.10529
1.11125
1.11854
1.12732
1.13775
1.09239
1.09321
1.09489
1.09747
1.10101
1.1056
1.11134
1.11835
1.12678
1.13679
1.09415
1.09489
1.09647
1.09893
1.10233
1.10675
1.11227
1.11901
1.12711
1.13671
1.09684
1.09747
1.09893
1.10126
1.10451
1.10874
1.11405
1.12053
1.12831
1.13751
1.10052
1.10101
1.10233
1.10451
1.10759
1.11163
1.11672
1.12293
1.13039
1.13921
1.10529
1.1056
1.10675
1.10874
1.11163
1.11547
1.12032
1.12626
1.13341
1.14184
1.11125
1.11134
1.11227
1.11405
1.11672
1.12032
1.12491
1.13057
1.13738
1.14543
1.11854
1.11835
1.11901
1.12053
1.12293
1.12626
1.13057
1.13592
1.14238
1.15001
1.12732
1.12678
1.12711
1.12831
1.13039
1.13341
1.13738
1.14238
1.14846
1.15566
1.13775
1.13679
1.13671
1.13751
1.13921
1.14184
1.14543
1.15001
1.15566
1.16242
1.02507
1.02595
1.02774
1.0305
1.03431
1.03929
1.0456
1.05343
1.06303
1.07467
1.02595
1.02678
1.0285
1.03115
1.03482
1.03962
1.0457
1.05323
1.06244
1.07359
1.02774
1.0285
1.03012
1.03266
1.0362
1.04082
1.04668
1.05394
1.06279
1.07349
1.0305
1.03115
1.03266
1.03508
1.03847
1.04293
1.04859
1.05558
1.06411
1.07439
1.03431
1.03482
1.0362
1.03847
1.04171
1.046
1.05145
1.0582
1.06643
1.07631
1.03929
1.03962
1.04082
1.04293
1.046
1.05011
1.05535
1.06185
1.06978
1.07928
1.0456
1.0457
1.04668
1.04859
1.05145
1.05535
1.06036
1.06661
1.07424
1.08337
1.05343
1.05323
1.05394
1.05558
1.0582
1.06185
1.06661
1.07259
1.0799
1.08865
1.06303
1.06244
1.06279
1.06411
1.06643
1.06978
1.07424
1.0799
1.08686
1.09522
1.07467
1.07359
1.07349
1.07439
1.07631
1.07928
1.08337
1.08865
1.09522
1.10316
0.95261
0.953374
0.954932
0.957346
0.960712
0.965167
0.970893
0.978131
0.987185
0.998436
0.953374
0.954095
0.95559
0.957917
0.961167
0.965465
0.970983
0.97794
0.986621
0.997374
0.954932
0.955589
0.95701
0.959249
0.962389
0.966547
0.971881
0.978596
0.986953
0.997271
0.957345
0.957917
0.959249
0.961393
0.964424
0.968452
0.973622
0.980124
0.988198
0.998133
0.960712
0.961167
0.962389
0.964424
0.967342
0.971243
0.976261
0.982571
0.990394
0.999988
0.965166
0.965465
0.966547
0.968452
0.971243
0.975011
0.97988
0.986011
0.993603
1.00289
0.970893
0.970982
0.971881
0.973622
0.976261
0.97988
0.984592
0.990544
0.997917
1.00691
0.978131
0.97794
0.978596
0.980124
0.982571
0.986011
0.990544
0.996305
1.00346
1.01217
0.987185
0.986621
0.986953
0.988198
0.990393
0.993603
0.997917
1.00346
1.01037
1.01879
0.998436
0.997374
0.997271
0.998133
0.999988
1.00289
1.00691
1.01217
1.01879
1.02694
0.874841
0.875348
0.876384
0.878007
0.880301
0.88339
0.887443
0.892691
0.899444
0.90811
0.875347
0.875827
0.876825
0.878393
0.880612
0.883595
0.887502
0.892545
0.89901
0.907272
0.876384
0.876824
0.877779
0.879296
0.881449
0.884346
0.888134
0.893011
0.899242
0.907169
0.878007
0.878393
0.879296
0.88076
0.882854
0.885678
0.88937
0.894115
0.900157
0.907809
0.880301
0.880612
0.881449
0.882854
0.88489
0.88765
0.891263
0.895902
0.901792
0.909218
0.883389
0.883595
0.884346
0.885678
0.88765
0.890348
0.893893
0.898444
0.90421
0.911451
0.887442
0.887502
0.888134
0.88937
0.891263
0.893893
0.89737
0.901845
0.907508
0.914594
0.892691
0.892545
0.893011
0.894115
0.895902
0.898444
0.901845
0.906243
0.911815
0.918766
0.899444
0.89901
0.899242
0.900157
0.901791
0.90421
0.907508
0.911814
0.917295
0.92413
0.908111
0.907272
0.907169
0.907809
0.909218
0.911451
0.914594
0.918766
0.92413
0.930877
0.793378
0.793509
0.793782
0.794231
0.794903
0.79587
0.797234
0.799143
0.801804
0.805513
0.793509
0.793635
0.793902
0.79434
0.794994
0.795931
0.797247
0.799078
0.801616
0.805129
0.793782
0.793902
0.794163
0.794595
0.795241
0.796162
0.797449
0.799229
0.80168
0.805048
0.794231
0.79434
0.794595
0.795025
0.795668
0.796585
0.79786
0.799612
0.802008
0.805275
0.794903
0.794994
0.79524
0.795668
0.796315
0.797236
0.798512
0.800256
0.802624
0.805829
0.79587
0.795931
0.796162
0.796585
0.797236
0.798167
0.799457
0.80121
0.803574
0.806747
0.797234
0.797247
0.797449
0.79786
0.798512
0.799456
0.800767
0.802543
0.804923
0.80809
0.799143
0.799079
0.799229
0.799612
0.800256
0.80121
0.802543
0.804351
0.806764
0.809951
0.801805
0.801616
0.80168
0.802008
0.802625
0.803574
0.804922
0.806764
0.809225
0.812461
0.805513
0.805129
0.805049
0.805276
0.805829
0.806747
0.80809
0.809951
0.812461
0.815794
0.710622
0.710318
0.709704
0.708777
0.707529
0.705949
0.704025
0.701751
0.699127
0.696176
0.710318
0.710035
0.709449
0.70856
0.70736
0.705839
0.703987
0.701797
0.69927
0.696427
0.709703
0.709449
0.7089
0.708054
0.706905
0.705445
0.703665
0.70156
0.69913
0.696398
0.708777
0.70856
0.708054
0.707257
0.706165
0.704768
0.703062
0.701042
0.698711
0.696092
0.707529
0.70736
0.706905
0.706164
0.705133
0.703806
0.702177
0.700245
0.698014
0.695511
0.705949
0.705839
0.705445
0.704768
0.703805
0.702553
0.701007
0.699167
0.697041
0.694659
0.704025
0.703987
0.703666
0.703063
0.702177
0.701006
0.699551
0.697812
0.695796
0.693541
0.701751
0.701797
0.70156
0.701043
0.700245
0.699167
0.697811
0.696182
0.694289
0.69217
0.699127
0.699271
0.699131
0.698712
0.698015
0.697041
0.695796
0.694288
0.692534
0.690576
0.696177
0.696428
0.696398
0.696093
0.695512
0.694659
0.693541
0.69217
0.690576
0.688827
0.62942
0.628703
0.627244
0.625005
0.621919
0.617888
0.612777
0.606408
0.59854
0.588863
0.628703
0.62803
0.626634
0.624479
0.621504
0.617617
0.612695
0.606572
0.599026
0.589774
0.627244
0.626634
0.625312
0.623247
0.62038
0.616627
0.611875
0.605967
0.598702
0.589819
0.625005
0.624479
0.623247
0.621279
0.618521
0.614897
0.610298
0.604583
0.597563
0.589004
0.621919
0.621504
0.62038
0.618521
0.615879
0.612381
0.607928
0.602387
0.595585
0.587311
0.617888
0.617617
0.616627
0.614897
0.612381
0.609014
0.604703
0.599326
0.592722
0.584703
0.612778
0.612695
0.611875
0.610298
0.607928
0.604703
0.60054
0.595324
0.588905
0.581119
0.606408
0.606572
0.605968
0.604583
0.602387
0.599326
0.595323
0.590274
0.584038
0.576474
0.598541
0.599027
0.598702
0.597563
0.595585
0.592722
0.588904
0.584038
0.577998
0.570662
0.588863
0.589775
0.58982
0.589004
0.587312
0.584704
0.581119
0.576474
0.570662
0.563588
0.552547
0.551517
0.549421
0.546196
0.541737
0.53589
0.52844
0.519092
0.507446
0.492962
0.551517
0.55055
0.548543
0.545439
0.541141
0.535505
0.528331
0.519349
0.508188
0.494356
0.549421
0.548543
0.546643
0.543668
0.539526
0.534084
0.527157
0.518493
0.507749
0.494476
0.546196
0.545439
0.543668
0.540832
0.536847
0.53159
0.524887
0.516503
0.506122
0.493331
0.541737
0.541141
0.539525
0.536847
0.533028
0.527952
0.521459
0.513327
0.503264
0.490893
0.535891
0.535505
0.534084
0.53159
0.527952
0.523064
0.516774
0.508877
0.499098
0.487096
0.52844
0.528331
0.527157
0.524887
0.521458
0.516774
0.510693
0.503023
0.493507
0.481837
0.519092
0.519349
0.518493
0.516503
0.513327
0.508877
0.503023
0.495586
0.486325
0.474965
0.507446
0.508188
0.50775
0.506122
0.503263
0.499097
0.493506
0.486325
0.47733
0.466277
0.492962
0.494356
0.494476
0.493331
0.490892
0.487096
0.481837
0.474965
0.466276
0.455553
0.482163
0.480971
0.478547
0.474827
0.469701
0.463011
0.454536
0.443977
0.430928
0.414849
0.480971
0.479852
0.477534
0.473958
0.469021
0.462577
0.454421
0.444276
0.43177
0.416405
0.478547
0.477534
0.475346
0.471925
0.467179
0.46097
0.453109
0.443338
0.431311
0.416574
0.474827
0.473958
0.471925
0.468678
0.464129
0.458151
0.450567
0.441138
0.429541
0.415363
0.469701
0.469021
0.467179
0.464129
0.459792
0.454048
0.446733
0.437623
0.42642
0.412745
0.463011
0.462577
0.46097
0.458151
0.454048
0.448551
0.441506
0.432706
0.421871
0.408657
0.454536
0.454421
0.453109
0.450567
0.446733
0.441506
0.434745
0.426255
0.415776
0.402994
0.443976
0.444276
0.443337
0.441137
0.437623
0.432705
0.426254
0.41809
0.407968
0.395607
0.430927
0.431769
0.43131
0.429541
0.42642
0.42187
0.415775
0.407968
0.398224
0.386291
0.414848
0.416404
0.416573
0.415362
0.412744
0.408656
0.402993
0.395607
0.386291
0.374815
0.41946
0.418258
0.415822
0.412103
0.407022
0.400463
0.392269
0.382238
0.370103
0.355529
0.418258
0.417132
0.414807
0.41124
0.406354
0.400044
0.392165
0.382527
0.370886
0.356932
0.415821
0.414807
0.412622
0.409226
0.404548
0.398491
0.39092
0.381661
0.370485
0.357109
0.412103
0.411239
0.409226
0.406024
0.401571
0.395775
0.388513
0.379623
0.368892
0.356063
0.407022
0.406354
0.404548
0.401571
0.397365
0.391846
0.3849
0.376377
0.366082
0.353778
0.400462
0.400044
0.398491
0.395775
0.391846
0.386626
0.380012
0.371864
0.362004
0.350216
0.392269
0.392164
0.39092
0.388513
0.384899
0.380012
0.373754
0.366
0.356584
0.345312
0.382237
0.382526
0.38166
0.379622
0.376376
0.371864
0.366
0.358669
0.349718
0.338977
0.370102
0.370885
0.370484
0.368891
0.366081
0.362003
0.356583
0.349718
0.34127
0.331088
0.355527
0.356931
0.357108
0.356062
0.353777
0.350215
0.345311
0.338976
0.331088
0.321511
0.3646
0.363502
0.361287
0.357934
0.353405
0.347652
0.340615
0.332227
0.322419
0.31113
0.363502
0.362476
0.360369
0.35716
0.352816
0.34729
0.340529
0.332469
0.323045
0.312199
0.361287
0.360369
0.358401
0.355364
0.351227
0.34595
0.339482
0.331765
0.322739
0.31235
0.357933
0.35716
0.355364
0.352528
0.348626
0.34362
0.337465
0.330109
0.321497
0.311581
0.353404
0.352815
0.351227
0.348626
0.344988
0.34028
0.334463
0.32749
0.319313
0.309889
0.347651
0.347289
0.345949
0.34362
0.34028
0.335902
0.330453
0.323891
0.316175
0.307269
0.340614
0.340528
0.339481
0.337464
0.334462
0.330453
0.325406
0.319289
0.312066
0.303709
0.332226
0.332467
0.331764
0.330108
0.32749
0.323891
0.319289
0.313657
0.306967
0.299198
0.322417
0.323043
0.322737
0.321496
0.319312
0.316173
0.312065
0.306966
0.300856
0.293722
0.311128
0.312197
0.312348
0.311579
0.309888
0.307267
0.303708
0.299197
0.293722
0.28728
0.316963
0.316024
0.31414
0.311313
0.307547
0.302852
0.297248
0.290783
0.283538
0.275659
0.316024
0.31515
0.313363
0.310666
0.307062
0.30256
0.297181
0.290966
0.283991
0.276385
0.31414
0.313363
0.311705
0.309169
0.305759
0.301483
0.296363
0.290437
0.283774
0.276494
0.311313
0.310666
0.309169
0.306826
0.303642
0.299625
0.294798
0.289197
0.282889
0.275983
0.307547
0.307061
0.305758
0.303641
0.300715
0.296992
0.292493
0.287255
0.281343
0.274859
0.302851
0.302559
0.301483
0.299625
0.296992
0.293597
0.289463
0.284627
0.279152
0.273137
0.297247
0.29718
0.296362
0.294797
0.292492
0.289462
0.285731
0.281339
0.276345
0.270846
0.290781
0.290964
0.290435
0.289196
0.287254
0.284626
0.281338
0.27743
0.272964
0.268029
0.283536
0.283989
0.283772
0.282887
0.281341
0.279151
0.276344
0.272963
0.269069
0.264749
0.275656
0.276382
0.276492
0.275981
0.274857
0.273135
0.270844
0.268028
0.264749
0.261097
0.275537
0.274758
0.273202
0.270886
0.267836
0.264094
0.259721
0.254815
0.249518
0.24404
0.274758
0.274035
0.272563
0.270359
0.267445
0.263862
0.259667
0.25495
0.24984
0.244528
0.273202
0.272563
0.271205
0.269144
0.266401
0.263013
0.259036
0.254553
0.249682
0.244601
0.270886
0.270358
0.269143
0.267255
0.264715
0.261558
0.257837
0.253629
0.249047
0.244253
0.267836
0.267445
0.2664
0.264715
0.262409
0.259516
0.256088
0.252196
0.247948
0.243493
0.264093
0.263861
0.263013
0.261557
0.259516
0.256921
0.25382
0.250284
0.246412
0.242345
0.25972
0.259666
0.259035
0.257836
0.256087
0.253819
0.25108
0.247936
0.244482
0.240849
0.254813
0.254948
0.254551
0.253628
0.252195
0.250283
0.247935
0.245218
0.242219
0.239062
0.249516
0.249837
0.24968
0.249045
0.247946
0.246411
0.244481
0.242219
0.239711
0.237069
0.244037
0.244526
0.244599
0.24425
0.243491
0.242343
0.240847
0.239061
0.237068
0.234978
0.239289
0.238638
0.237342
0.235421
0.232904
0.229836
0.226279
0.222324
0.218088
0.213735
0.238638
0.238035
0.236811
0.234984
0.232581
0.229645
0.226234
0.222429
0.218341
0.21412
0.237342
0.236811
0.235684
0.233979
0.231721
0.22895
0.22572
0.222105
0.21821
0.21417
0.23542
0.234983
0.233979
0.232422
0.230338
0.227762
0.224745
0.221358
0.217695
0.213883
0.232903
0.232581
0.231721
0.230338
0.228453
0.226101
0.223328
0.220201
0.216808
0.213264
0.229835
0.229644
0.228949
0.227761
0.2261
0.223998
0.221498
0.218662
0.215571
0.212333
0.226278
0.226233
0.225718
0.224744
0.223327
0.221498
0.219295
0.216777
0.214019
0.211118
0.222322
0.222427
0.222104
0.221356
0.2202
0.218661
0.216777
0.2146
0.212199
0.209663
0.218086
0.218339
0.218208
0.217693
0.216806
0.21557
0.214018
0.212198
0.210175
0.208028
0.213732
0.214117
0.214167
0.21388
0.213262
0.212331
0.211117
0.209662
0.208027
0.206287
0.207383
0.206822
0.205705
0.204045
0.201866
0.199198
0.19608
0.192563
0.188708
0.184586
0.206822
0.206302
0.205246
0.203667
0.201586
0.19903
0.196038
0.192656
0.18894
0.184956
0.205704
0.205246
0.204272
0.202797
0.200838
0.198421
0.195581
0.192361
0.188813
0.184998
0.204045
0.203667
0.202796
0.201446
0.199631
0.197377
0.194714
0.191682
0.188328
0.184709
0.201866
0.201585
0.200837
0.199631
0.197982
0.195911
0.193447
0.190626
0.18749
0.184092
0.199197
0.199029
0.19842
0.197376
0.195911
0.194043
0.191797
0.189207
0.186311
0.183154
0.196078
0.196037
0.19558
0.194713
0.193446
0.191797
0.189787
0.187445
0.184805
0.181909
0.192561
0.192654
0.19236
0.19168
0.190625
0.189206
0.187445
0.185364
0.182995
0.180372
0.188705
0.188938
0.188811
0.188326
0.187489
0.186309
0.184804
0.182994
0.180904
0.178566
0.184582
0.184953
0.184996
0.184707
0.18409
0.183152
0.181907
0.180371
0.178565
0.176519
0.179238
0.178738
0.177738
0.176246
0.174273
0.171831
0.168935
0.165598
0.161827
0.157618
0.178738
0.178273
0.177326
0.175904
0.174017
0.171677
0.168896
0.165687
0.162057
0.158005
0.177737
0.177326
0.17645
0.175117
0.173334
0.171114
0.168466
0.165402
0.161929
0.158046
0.176245
0.175904
0.175116
0.173889
0.172229
0.170144
0.167646
0.164744
0.161442
0.157741
0.174272
0.174017
0.173334
0.172228
0.170706
0.168773
0.16644
0.163713
0.160596
0.157088
0.17183
0.171676
0.171113
0.170144
0.168773
0.167007
0.164852
0.162313
0.159393
0.156089
0.168934
0.168895
0.168465
0.167645
0.166439
0.164851
0.162886
0.160546
0.157832
0.154741
0.165596
0.165686
0.165401
0.164742
0.163712
0.162312
0.160546
0.158414
0.155914
0.153041
0.161824
0.162055
0.161927
0.16144
0.160595
0.159391
0.157831
0.155913
0.153633
0.150985
0.157615
0.158002
0.158043
0.157738
0.157086
0.156087
0.15474
0.15304
0.150984
0.148566
0.154468
0.154012
0.153099
0.151731
0.14991
0.147636
0.144908
0.141716
0.138041
0.133849
0.154012
0.153588
0.152722
0.151417
0.149673
0.147492
0.144871
0.141803
0.138269
0.134239
0.153099
0.152722
0.151919
0.150691
0.149039
0.146964
0.144463
0.141528
0.138144
0.134281
0.151731
0.151416
0.15069
0.149554
0.148008
0.146052
0.143682
0.140891
0.137664
0.133975
0.149909
0.149673
0.149039
0.148008
0.14658
0.144755
0.142528
0.139891
0.136829
0.133319
0.147636
0.147491
0.146963
0.146051
0.144755
0.143071
0.140997
0.138523
0.135635
0.13231
0.144907
0.14487
0.144462
0.143681
0.142527
0.140997
0.139085
0.136783
0.134074
0.13094
0.141714
0.141801
0.141527
0.14089
0.13989
0.138523
0.136782
0.13466
0.132138
0.129199
0.138039
0.138267
0.138142
0.137663
0.136828
0.135634
0.134074
0.132137
0.129809
0.127071
0.133846
0.134237
0.134279
0.133973
0.133317
0.132308
0.130938
0.129198
0.127071
0.124542
0.132782
0.132367
0.131534
0.130283
0.128613
0.12652
0.123996
0.121028
0.117597
0.11367
0.132367
0.13198
0.13119
0.129996
0.128396
0.126387
0.123962
0.12111
0.117811
0.114037
0.131534
0.13119
0.130455
0.12933
0.127813
0.1259
0.123584
0.120855
0.117695
0.114078
0.130283
0.129995
0.12933
0.128287
0.126864
0.125057
0.12286
0.120263
0.117248
0.113793
0.128613
0.128395
0.127813
0.126864
0.125546
0.123856
0.121788
0.119331
0.116469
0.113182
0.126519
0.126386
0.125899
0.125056
0.123856
0.122294
0.120364
0.118055
0.115354
0.11224
0.123995
0.123961
0.123583
0.122859
0.121787
0.120363
0.118581
0.11643
0.113896
0.110963
0.121027
0.121108
0.120854
0.120261
0.11933
0.118055
0.11643
0.114445
0.112087
0.10934
0.117595
0.117809
0.117693
0.117247
0.116468
0.115353
0.113895
0.112087
0.109913
0.107362
0.113668
0.114035
0.114076
0.113791
0.11318
0.112239
0.110961
0.10934
0.107361
0.105016
0.113912
0.113539
0.11279
0.111666
0.110164
0.108282
0.106017
0.10336
0.100304
0.0968348
0.113539
0.113192
0.112481
0.111407
0.109969
0.108163
0.105987
0.103433
0.100494
0.0971573
0.11279
0.112481
0.111821
0.110809
0.109445
0.107726
0.105648
0.103206
0.100392
0.0971947
0.111665
0.111407
0.110809
0.109871
0.108592
0.10697
0.105001
0.102679
0.0999969
0.0969464
0.110164
0.109968
0.109445
0.108592
0.107409
0.105894
0.104042
0.10185
0.0993086
0.0964122
0.108282
0.108163
0.107726
0.10697
0.105894
0.104495
0.102771
0.100717
0.0983251
0.0955906
0.106016
0.105986
0.105648
0.105
0.104042
0.102771
0.101184
0.0992772
0.0970439
0.0944795
0.103359
0.103432
0.103205
0.102678
0.101849
0.100716
0.099277
0.0975273
0.0954615
0.093076
0.100302
0.100492
0.10039
0.0999958
0.0993076
0.0983243
0.0970433
0.0954612
0.093573
0.0913765
0.096833
0.0971556
0.0971931
0.096945
0.0964109
0.0955895
0.0944786
0.0930754
0.0913762
0.0893805
0.0975775
0.0972477
0.0965864
0.0955946
0.0942727
0.0926215
0.090642
0.0883356
0.0857053
0.0827565
0.0972476
0.0969406
0.0963134
0.0953667
0.0941011
0.0925172
0.090616
0.0883988
0.0858682
0.0830291
0.0965863
0.0963133
0.0957311
0.0948403
0.0936413
0.0921348
0.0903216
0.0882031
0.0857814
0.0830614
0.0955944
0.0953666
0.0948402
0.0940157
0.0928935
0.0914743
0.0897587
0.087748
0.0854445
0.0828528
0.0942724
0.0941009
0.0936411
0.0928934
0.0918582
0.090536
0.0889276
0.0870342
0.0848578
0.0824037
0.0926211
0.0925169
0.0921345
0.091474
0.0905359
0.0893206
0.0878289
0.086062
0.0840222
0.0817145
0.0906414
0.0906155
0.0903212
0.0897583
0.0889273
0.0878287
0.0864634
0.0848326
0.0829385
0.0807866
0.0883349
0.0883981
0.0882024
0.0877475
0.0870337
0.0860617
0.0848324
0.0833473
0.0816084
0.0796217
0.0857043
0.0858672
0.0857805
0.0854437
0.0848572
0.0840216
0.0829381
0.0816082
0.0800344
0.0782228
0.0827553
0.0830279
0.0830603
0.0828518
0.0824028
0.0817138
0.080786
0.0796213
0.0782226
0.076597
0.0834847
0.0831974
0.082622
0.0817604
0.080615
0.0791894
0.0774885
0.0755193
0.073292
0.0708212
0.0831974
0.0829302
0.0823847
0.0815628
0.0804666
0.0790996
0.0774662
0.0755731
0.0734293
0.0710484
0.082622
0.0823847
0.081879
0.0811065
0.0800693
0.0787704
0.0772142
0.0754067
0.0733563
0.0710756
0.0817603
0.0815627
0.0811064
0.0803929
0.079424
0.0782027
0.0767329
0.0750203
0.0730728
0.070902
0.0806149
0.0804665
0.0800692
0.079424
0.0785327
0.077398
0.0760238
0.0744152
0.0725797
0.0705284
0.0791892
0.0790994
0.0787702
0.0782025
0.077398
0.076359
0.0750892
0.0735936
0.0718791
0.0699564
0.0774882
0.077466
0.077214
0.0767327
0.0760236
0.0750891
0.0739326
0.0725587
0.070974
0.0691887
0.0755189
0.0755727
0.0754064
0.07502
0.074415
0.0735935
0.0725586
0.071315
0.0698686
0.0682295
0.0732915
0.0734288
0.0733559
0.0730724
0.0725794
0.0718788
0.0709738
0.0698685
0.0685689
0.0670844
0.0708206
0.0710478
0.071075
0.0709015
0.070528
0.0699561
0.0691884
0.0682293
0.0670843
0.0657635
0.0713462
0.0710982
0.0706017
0.0698593
0.0688744
0.0676517
0.066198
0.0645221
0.0626357
0.0605544
0.0710982
0.0708675
0.0703971
0.0696892
0.0687469
0.0675748
0.066179
0.0645677
0.0627516
0.0607453
0.0706017
0.0703971
0.0699614
0.0692967
0.0684059
0.0672931
0.0659641
0.0644264
0.0626899
0.0607681
0.0698593
0.0696892
0.0692967
0.0686836
0.0678527
0.0668077
0.065554
0.0640984
0.0624504
0.0606222
0.0688744
0.0687469
0.0684058
0.0678527
0.0670898
0.0661208
0.0649506
0.0635855
0.0620342
0.0603083
0.0676517
0.0675748
0.0672931
0.0668077
0.0661208
0.0652357
0.0641568
0.0628901
0.0614436
0.0598281
0.066198
0.066179
0.0659641
0.0655539
0.0649505
0.0641568
0.0631768
0.0620161
0.0606819
0.0591846
0.064522
0.0645677
0.0644263
0.0640984
0.0635855
0.0628901
0.0620161
0.0609685
0.0597538
0.0583818
0.0626356
0.0627516
0.0626899
0.0624503
0.0620341
0.0614435
0.0606819
0.0597538
0.0586653
0.0574255
0.0605544
0.0607453
0.0607681
0.0606222
0.0603083
0.0598281
0.0591846
0.0583818
0.0574255
0.0563247
0.0608966
0.060683
0.0602556
0.059617
0.0587707
0.0577214
0.0564756
0.0550412
0.0534284
0.0516496
0.060683
0.0604844
0.0600795
0.0594708
0.0586612
0.0576554
0.0564593
0.0550802
0.0535275
0.0518128
0.0602556
0.0600796
0.0597048
0.0591334
0.0583684
0.0574138
0.0562751
0.0549592
0.0534746
0.0518322
0.0596171
0.0594708
0.0591335
0.0586069
0.0578937
0.0569978
0.055924
0.0546787
0.0532697
0.0517073
0.0587708
0.0586613
0.0583685
0.0578938
0.0572396
0.0564093
0.0554075
0.0542399
0.0529138
0.0514386
0.0577216
0.0576556
0.057414
0.0569978
0.0564093
0.0556515
0.0547283
0.0536453
0.0524087
0.0510276
0.0564758
0.0564594
0.0562753
0.0559241
0.0554076
0.0547284
0.0538903
0.052898
0.0517573
0.0504765
0.0550415
0.0550804
0.0549595
0.0546789
0.0542401
0.0536454
0.052898
0.0520023
0.0509633
0.0497885
0.0534288
0.0535278
0.053475
0.05327
0.0529141
0.0524089
0.0517575
0.0509633
0.0500312
0.0489679
0.0516502
0.0518133
0.0518326
0.0517077
0.0514389
0.0510279
0.0504767
0.0497887
0.048968
0.0480215
0.0519023
0.0517181
0.0513496
0.0507991
0.0500696
0.0491652
0.0480911
0.0468535
0.04546
0.043919
0.0517181
0.0515469
0.0511978
0.050673
0.0499753
0.0491083
0.048077
0.0468872
0.0455457
0.0440606
0.0513497
0.0511979
0.0508748
0.0503823
0.0497229
0.0489001
0.0479182
0.0467827
0.0454999
0.0440774
0.0507992
0.0506731
0.0503824
0.0499285
0.0493137
0.0485413
0.0476152
0.0465404
0.0453226
0.0439688
0.0500698
0.0499755
0.049723
0.0493138
0.0487498
0.0480338
0.0471695
0.0461613
0.0450144
0.0437354
0.0491655
0.0491086
0.0489003
0.0485415
0.0480339
0.0473801
0.0465832
0.0456472
0.0445768
0.0433781
0.0480915
0.0480774
0.0479185
0.0476155
0.0471697
0.0465833
0.045859
0.0450005
0.0440117
0.0428984
0.0468541
0.0468877
0.0467832
0.0465408
0.0461616
0.0456474
0.0450006
0.0442242
0.0433218
0.0422985
0.0454608
0.0455464
0.0455006
0.0453232
0.0450149
0.0445772
0.044012
0.0433219
0.04251
0.0415811
0.04392
0.0440615
0.0440782
0.0439696
0.0437361
0.0433786
0.0428988
0.0422988
0.0415813
0.0407509
0.0441634
0.0440041
0.0436856
0.0432095
0.0425783
0.0417953
0.0408644
0.0397903
0.0385781
0.0372335
0.0440042
0.0438561
0.0435543
0.0431004
0.0424967
0.0417461
0.0408522
0.0398195
0.0386527
0.0373572
0.0436856
0.0435544
0.043275
0.0428489
0.0422782
0.0415656
0.0407145
0.0397287
0.0386128
0.0373718
0.0432097
0.0431006
0.042849
0.0424562
0.041924
0.0412548
0.0404516
0.0395181
0.0384583
0.0372769
0.0425786
0.0424969
0.0422784
0.0419241
0.0414355
0.0408148
0.0400647
0.0391884
0.0381896
0.0370728
0.0417957
0.0417464
0.041566
0.041255
0.0408149
0.0402475
0.0395553
0.038741
0.0378078
0.03676
0.040865
0.0408528
0.040715
0.040452
0.040065
0.0395554
0.0389254
0.0381774
0.0373142
0.0363397
0.0397911
0.0398203
0.0397294
0.0395187
0.0391889
0.0387413
0.0381776
0.0375
0.0367106
0.0358133
0.0385791
0.0386537
0.0386138
0.0384591
0.0381903
0.0378084
0.0373146
0.0367108
0.035999
0.0351824
0.0372349
0.0373585
0.037373
0.037278
0.0370737
0.0367608
0.0363403
0.0358137
0.0351826
0.0344504
0.0375104
0.0373724
0.0370963
0.0366836
0.0361362
0.0354565
0.0346477
0.0337131
0.0326567
0.0314825
0.0373724
0.0372442
0.0369826
0.0365891
0.0360654
0.0354138
0.0346371
0.0337386
0.0327218
0.0315907
0.0370964
0.0369827
0.0367404
0.036371
0.0358758
0.0352571
0.0345174
0.0336596
0.0326871
0.0316034
0.0366838
0.0365892
0.0363711
0.0360303
0.0355683
0.034987
0.0342887
0.0334762
0.0325522
0.0315205
0.0361365
0.0360657
0.035876
0.0355684
0.0351441
0.0346046
0.0339521
0.0331889
0.0323178
0.031342
0.0354571
0.0354142
0.0352575
0.0349873
0.0346048
0.0341113
0.0335086
0.0327989
0.0319844
0.0310684
0.0346484
0.0346378
0.034518
0.0342892
0.0339524
0.0335088
0.0329598
0.0323072
0.0315532
0.0307006
0.0337141
0.0337395
0.0336604
0.0334769
0.0331895
0.0327993
0.0323074
0.0317155
0.0310253
0.0302394
0.032658
0.0327231
0.0326882
0.0325532
0.0323186
0.0319851
0.0315536
0.0310255
0.0304022
0.0296863
0.0314842
0.0315922
0.0316049
0.0315218
0.0313431
0.0310694
0.0307013
0.03024
0.0296865
0.0290437
0.0317986
0.0316789
0.0314395
0.0310814
0.0306063
0.0300161
0.0293133
0.0285007
0.0275814
0.0265588
0.0316789
0.0315677
0.0313408
0.0309994
0.0305448
0.0299789
0.0293041
0.0285228
0.0276381
0.026653
0.0314396
0.0313409
0.0311307
0.0308101
0.0303802
0.0298428
0.0292
0.0284541
0.0276078
0.0266642
0.0310816
0.0309995
0.0308102
0.0305144
0.0301132
0.0296082
0.0290013
0.0282946
0.0274905
0.0265919
0.0306067
0.0305451
0.0303805
0.0301134
0.0297447
0.0292759
0.0287086
0.0280447
0.0272864
0.0264365
0.0300167
0.0299795
0.0298433
0.0296086
0.0292761
0.0288471
0.0283229
0.0277053
0.0269961
0.0261982
0.0293141
0.0293049
0.0292007
0.0290019
0.028709
0.0283231
0.0278453
0.0272773
0.0266206
0.0258777
0.0285018
0.0285239
0.0284551
0.0282954
0.0280454
0.0277057
0.0272775
0.0267621
0.0261607
0.0254759
0.0275829
0.0276395
0.0276091
0.0274916
0.0272874
0.0269969
0.0266211
0.026161
0.0256178
0.0249939
0.0265607
0.0266548
0.0266658
0.0265934
0.0264378
0.0261993
0.0258786
0.0254765
0.0249942
0.0244339
0.0269032
0.0267994
0.0265918
0.0262814
0.0258694
0.0253574
0.0247477
0.0240427
0.023245
0.0223578
0.0267995
0.026703
0.0265063
0.0262103
0.025816
0.0253252
0.0247398
0.0240619
0.0232942
0.0224396
0.026592
0.0265064
0.0263242
0.0260461
0.0256733
0.0252072
0.0246495
0.0240023
0.023268
0.0224493
0.0262817
0.0262105
0.0260463
0.0257897
0.0254418
0.0250037
0.0244771
0.0238639
0.0231662
0.0223867
0.0258698
0.0258164
0.0256736
0.0254419
0.0251221
0.0247154
0.0242232
0.0236471
0.0229891
0.0222519
0.0253581
0.0253258
0.0252077
0.0250041
0.0247156
0.0243433
0.0238885
0.0233526
0.0227374
0.0220452
0.0247487
0.0247406
0.0246503
0.0244777
0.0242236
0.0238887
0.0234742
0.0229813
0.0224116
0.0217674
0.0240439
0.0240631
0.0240034
0.0238648
0.0236478
0.0233531
0.0229816
0.0225344
0.0220128
0.0214191
0.0232466
0.0232957
0.0232694
0.0231674
0.0229902
0.0227382
0.0224122
0.0220131
0.0215421
0.0210013
0.0223599
0.0224415
0.0224511
0.0223883
0.0222533
0.0220464
0.0217683
0.0214197
0.0210017
0.0205163
0.0227156
0.0226258
0.0224461
0.0221773
0.0218206
0.0213774
0.0208496
0.0202394
0.0195493
0.0187821
0.0226259
0.0225424
0.0223721
0.0221158
0.0217745
0.0213495
0.0208427
0.0202561
0.0195918
0.0188528
0.0224463
0.0223722
0.0222144
0.0219737
0.0216509
0.0212474
0.0207646
0.0202045
0.0195692
0.0188612
0.0221776
0.022116
0.0219738
0.0217517
0.0214505