/*--------------------------------*- C++ -*----------------------------------*\
| =========                 |                                                 |
| \\      /  F ield         | foam-extend: Open Source CFD                    |
|  \\    /   O peration     | Version:     3.1                                |
|   \\  /    A nd           | Web:         http://www.extend-project.de       |
|    \\/     M anipulation  |                                                 |
\*---------------------------------------------------------------------------*/
FoamFile
{
    version     2.0;
    format      ascii;
    class       pointVectorField;
    location    "0.0013";
    object      pointMotionU;
}
// * * * * * * * * * * * * * * * * * * * * * * * * * * * * * * * * * * * * * //

dimensions      [0 1 -1 0 0 0 0];

internalField   nonuniform List<vector> 
18306
(
(0 0 0)
(0 0 0)
(0 0 0)
(0 0 0)
(0 0 0)
(0 0 0)
(0 0 0)
(0 0 0)
(0 0 0)
(0 0 0)
(0 0 0)
(0 0 0)
(0 0 0)
(0 0 0)
(0 0 0)
(0 0 0)
(0 0 0)
(0 0 0)
(0 0 0)
(0 0 0)
(0 0 0)
(0 0 0)
(0 0 0)
(0 0 0)
(0 0 0)
(0 0 0)
(0 0 0)
(0 0 0)
(0 0 0)
(0 0 0)
(0 0 0)
(0 0 0)
(0 0 0)
(0 0 0)
(0 0 0)
(0 0 0)
(0 0 0)
(0 0 0)
(0 0 0)
(0 0 0)
(0 0 0)
(0 0 0)
(0 0 0)
(0 0 0)
(0 0 0)
(0 0 0)
(0 0 0)
(0 0 0)
(0 0 0)
(0 0 0)
(0 0 0)
(0 0 0)
(0 0 0)
(0 0 0)
(0 0 0)
(0 0 0)
(0 0 0)
(0 0 0)
(0 0 0)
(0 0 0)
(0 0 0)
(0 0 0)
(0 0 0)
(0 0 0)
(0 0 0)
(0 0 0)
(0 0 0)
(0 0 0)
(0 0 0)
(0 0 0)
(0 0 0)
(0 0 0)
(0 0 0)
(0 0 0)
(0 0 0)
(0 0 0)
(0 0 0)
(0 0 0)
(0 0 0)
(0 0 0)
(0 0 0)
(0 0 0)
(0 0 0)
(0 0 0)
(0 0 0)
(0 0 0)
(0 0 0)
(0 0 0)
(0 0 0)
(0 0 0)
(0 0 0)
(0 0 0)
(0 0 0)
(0 0 0)
(0 0 0)
(0 0 0)
(0 0 0)
(0 0 0)
(0 0 0)
(0 0 0)
(0 0 0)
(0 0 0)
(0 0 0)
(0 0 0)
(0 0 0)
(0 0 0)
(0 0 0)
(0 0 0)
(0 0 0)
(0 0 0)
(0 0 0)
(0 0 0)
(0 0 0)
(0 0 0)
(0 0 0)
(0 0 0)
(0 0 0)
(0 0 0)
(0 0 0)
(0 0 0)
(0 0 0)
(0 -0 -2.17926e-08)
(3.50077e-09 0 -2.1719e-08)
(6.78539e-09 0 -2.15105e-08)
(9.71226e-09 0 -2.10698e-08)
(1.2226e-08 0 -2.02483e-08)
(1.42832e-08 0 -1.88252e-08)
(1.58546e-08 0 -1.64934e-08)
(1.69442e-08 0 -1.28406e-08)
(1.76247e-08 0 -7.32947e-09)
(1.81086e-08 0 7.30266e-10)
(1.89285e-08 0 1.24065e-08)
(0 9.04491e-09 -2.17325e-08)
(3.53898e-09 8.91988e-09 -2.16581e-08)
(6.88994e-09 8.60206e-09 -2.14471e-08)
(9.90022e-09 8.23065e-09 -2.10031e-08)
(1.24931e-08 7.85242e-09 -2.01795e-08)
(1.46172e-08 7.45702e-09 -1.87585e-08)
(1.62301e-08 7.02716e-09 -1.64412e-08)
(1.73103e-08 6.54341e-09 -1.28293e-08)
(1.78739e-08 5.98037e-09 -7.41961e-09)
(1.8003e-08 5.30915e-09 3.92361e-10)
(1.79406e-08 4.39089e-09 1.13422e-08)
(0 1.78501e-08 -2.15582e-08)
(3.67752e-09 1.76788e-08 -2.14817e-08)
(7.22136e-09 1.72148e-08 -2.12647e-08)
(1.04708e-08 1.65883e-08 -2.0813e-08)
(1.33074e-08 1.59037e-08 -1.9985e-08)
(1.56486e-08 1.51848e-08 -1.85724e-08)
(1.74206e-08 1.43991e-08 -1.62926e-08)
(1.85397e-08 1.35087e-08 -1.27846e-08)
(1.88985e-08 1.24595e-08 -7.62366e-09)
(1.83285e-08 1.11819e-08 -3.62818e-10)
(1.65379e-08 9.35865e-09 9.42375e-09)
(0 2.63921e-08 -2.11565e-08)
(3.94752e-09 2.6219e-08 -2.10772e-08)
(7.8051e-09 2.57429e-08 -2.08533e-08)
(1.14248e-08 2.50325e-08 -2.03928e-08)
(1.46653e-08 2.41771e-08 -1.95596e-08)
(1.74005e-08 2.32487e-08 -1.81571e-08)
(1.95126e-08 2.22381e-08 -1.59223e-08)
(2.08549e-08 2.10822e-08 -1.25326e-08)
(2.12096e-08 1.96927e-08 -7.63687e-09)
(2.02348e-08 1.79617e-08 -9.01822e-10)
(1.71885e-08 1.53092e-08 7.90174e-09)
(0 3.47913e-08 -2.03585e-08)
(4.3294e-09 3.46252e-08 -2.02763e-08)
(8.62122e-09 3.41756e-08 -2.00477e-08)
(1.27377e-08 3.3495e-08 -1.95824e-08)
(1.65328e-08 3.26357e-08 -1.87459e-08)
(1.98521e-08 3.16482e-08 -1.73503e-08)
(2.25363e-08 3.05589e-08 -1.51505e-08)
(2.43989e-08 2.93213e-08 -1.18509e-08)
(2.51646e-08 2.7807e-08 -7.14208e-09)
(2.44355e-08 2.58562e-08 -7.45301e-10)
(2.10914e-08 2.25402e-08 7.4325e-09)
(0 4.30951e-08 -1.89206e-08)
(4.79135e-09 4.29417e-08 -1.88387e-08)
(9.60733e-09 4.2529e-08 -1.86145e-08)
(1.43347e-08 4.19173e-08 -1.81562e-08)
(1.88236e-08 4.11734e-08 -1.73257e-08)
(2.29099e-08 4.03132e-08 -1.59353e-08)
(2.64106e-08 3.933e-08 -1.37486e-08)
(2.91122e-08 3.81958e-08 -1.04918e-08)
(3.07447e-08 3.68062e-08 -5.86886e-09)
(3.09297e-08 3.49416e-08 3.8868e-10)
(2.81868e-08 3.12455e-08 8.23032e-09)
(0 5.12815e-08 -1.65142e-08)
(5.29178e-09 5.1131e-08 -1.64427e-08)
(1.06819e-08 5.07518e-08 -1.6246e-08)
(1.60984e-08 5.0223e-08 -1.58216e-08)
(2.13959e-08 4.9647e-08 -1.50192e-08)
(2.64034e-08 4.90639e-08 -1.36421e-08)
(3.09288e-08 4.84174e-08 -1.14564e-08)
(3.47405e-08 4.76085e-08 -8.19786e-09)
(3.75902e-08 4.65707e-08 -3.58088e-09)
(3.91496e-08 4.50926e-08 2.664e-09)
(3.76632e-08 4.14065e-08 1.03298e-08)
(0 5.92462e-08 -1.27116e-08)
(5.78255e-09 5.90775e-08 -1.2672e-08)
(1.17525e-08 5.86912e-08 -1.25573e-08)
(1.78825e-08 5.8224e-08 -1.22278e-08)
(2.40483e-08 5.78332e-08 -1.15001e-08)
(3.00761e-08 5.76008e-08 -1.01617e-08)
(3.57576e-08 5.74688e-08 -7.9829e-09)
(4.08543e-08 5.72519e-08 -4.70422e-09)
(4.50843e-08 5.67808e-08 -7.92647e-11)
(4.81617e-08 5.58915e-08 6.16443e-09)
(4.83071e-08 5.2658e-08 1.36935e-08)
(0 6.67892e-08 -6.97808e-09)
(6.20907e-09 6.65592e-08 -7.01912e-09)
(1.27036e-08 6.6062e-08 -7.10594e-09)
(1.951e-08 6.55689e-08 -6.99532e-09)
(2.6534e-08 6.53498e-08 -6.42673e-09)
(3.36082e-08 6.55223e-08 -5.16689e-09)
(4.04936e-08 6.60071e-08 -3.00719e-09)
(4.69008e-08 6.65494e-08 2.64562e-10)
(5.24536e-08 6.68055e-08 4.81832e-09)
(5.68926e-08 6.66073e-08 1.094e-08)
(5.86948e-08 6.41976e-08 1.82022e-08)
(0 7.36107e-08 1.33685e-09)
(6.51195e-09 7.32251e-08 1.09749e-09)
(1.34067e-08 7.24193e-08 5.64903e-10)
(2.07909e-08 7.17399e-08 2.41307e-10)
(2.86031e-08 7.16467e-08 5.18897e-10)
(3.66771e-08 7.2296e-08 1.64668e-09)
(4.47342e-08 7.35224e-08 3.78087e-09)
(5.23723e-08 7.4913e-08 7.02428e-09)
(5.90688e-08 7.59351e-08 1.1419e-08)
(6.44352e-08 7.63026e-08 1.70969e-08)
(6.73371e-08 7.47574e-08 2.3466e-08)
(0 7.94164e-08 1.3181e-08)
(6.46981e-09 7.86467e-08 1.23315e-08)
(1.33886e-08 7.71956e-08 1.08667e-08)
(2.09642e-08 7.60544e-08 9.73319e-09)
(2.9186e-08 7.59244e-08 9.46312e-09)
(3.79234e-08 7.70098e-08 1.02684e-08)
(4.69047e-08 7.90649e-08 1.22148e-08)
(5.56636e-08 8.14808e-08 1.5285e-08)
(6.3503e-08 8.34249e-08 1.93555e-08)
(6.95566e-08 8.40994e-08 2.40617e-08)
(7.31969e-08 8.3105e-08 2.90177e-08)
(0 -0 -4.41701e-08)
(6.4742e-09 0 -4.41701e-08)
(1.25353e-08 0 -4.4165e-08)
(1.79133e-08 0 -4.4014e-08)
(2.25063e-08 0 -4.35024e-08)
(2.62494e-08 0 -4.23186e-08)
(2.91327e-08 0 -4.00347e-08)
(3.12614e-08 0 -3.60778e-08)
(3.29674e-08 0 -2.96993e-08)
(3.50126e-08 0 -1.99277e-08)
(3.90869e-08 0 -5.2677e-09)
(0 1.70928e-08 -4.42106e-08)
(6.5474e-09 1.68563e-08 -4.42082e-08)
(1.2734e-08 1.6237e-08 -4.41955e-08)
(1.82693e-08 1.5508e-08 -4.40345e-08)
(2.30122e-08 1.47612e-08 -4.35135e-08)
(2.68831e-08 1.39814e-08 -4.23254e-08)
(2.98473e-08 1.31421e-08 -4.00523e-08)
(3.19611e-08 1.22159e-08 -3.61394e-08)
(3.34433e-08 1.11684e-08 -2.9881e-08)
(3.479e-08 9.96737e-09 -2.04144e-08)
(3.70464e-08 8.38376e-09 -6.66453e-09)
(0 3.37521e-08 -4.4315e-08)
(6.80445e-09 3.34281e-08 -4.43056e-08)
(1.33502e-08 3.25155e-08 -4.42747e-08)
(1.93325e-08 3.1277e-08 -4.40898e-08)
(2.45332e-08 2.99184e-08 -4.35478e-08)
(2.88159e-08 2.84943e-08 -4.23549e-08)
(3.20868e-08 2.69559e-08 -4.01152e-08)
(3.42821e-08 2.52506e-08 -3.63218e-08)
(3.53743e-08 2.33039e-08 -3.0369e-08)
(3.53481e-08 2.10273e-08 -2.15961e-08)
(3.41305e-08 1.78769e-08 -9.31596e-09)
(0 4.99621e-08 -4.43117e-08)
(7.3069e-09 4.96342e-08 -4.4293e-08)
(1.44383e-08 4.86818e-08 -4.42398e-08)
(2.11147e-08 4.72582e-08 -4.40255e-08)
(2.70769e-08 4.55435e-08 -4.34564e-08)
(3.21087e-08 4.36904e-08 -4.22559e-08)
(3.60353e-08 4.17029e-08 -4.00554e-08)
(3.86719e-08 3.94906e-08 -3.63983e-08)
(3.9773e-08 3.69288e-08 -3.0774e-08)
(3.89678e-08 3.38766e-08 -2.26707e-08)
(3.52553e-08 2.93034e-08 -1.16388e-08)
(0 6.59924e-08 -4.39451e-08)
(8.0204e-09 6.56762e-08 -4.39168e-08)
(1.59656e-08 6.47559e-08 -4.38434e-08)
(2.35775e-08 6.33616e-08 -4.36037e-08)
(3.05904e-08 6.16072e-08 -4.30095e-08)
(3.67378e-08 5.96112e-08 -4.17975e-08)
(4.17699e-08 5.74554e-08 -3.96242e-08)
(4.54291e-08 5.50938e-08 -3.60715e-08)
(4.73583e-08 5.23417e-08 -3.06847e-08)
(4.70689e-08 4.89811e-08 -2.30266e-08)
(4.27878e-08 4.33139e-08 -1.28029e-08)
(0 8.19995e-08 -4.28571e-08)
(8.8894e-09 8.17047e-08 -4.28229e-08)
(1.78232e-08 8.08335e-08 -4.27417e-08)
(2.65928e-08 7.95385e-08 -4.24929e-08)
(3.4929e-08 7.79695e-08 -4.18882e-08)
(4.25513e-08 7.61879e-08 -4.06669e-08)
(4.91701e-08 7.42217e-08 -3.84997e-08)
(5.44816e-08 7.20755e-08 -3.49982e-08)
(5.81441e-08 6.96322e-08 -2.97304e-08)
(5.97076e-08 6.65845e-08 -2.22778e-08)
(5.66627e-08 6.03942e-08 -1.25084e-08)
(0 9.80537e-08 -4.05709e-08)
(9.84236e-09 9.77587e-08 -4.05434e-08)
(1.98716e-08 9.69234e-08 -4.04861e-08)
(2.99608e-08 9.5746e-08 -4.0267e-08)
(3.98544e-08 9.44561e-08 -3.96861e-08)
(4.92651e-08 9.31747e-08 -3.84748e-08)
(5.78933e-08 9.18483e-08 -3.63077e-08)
(6.54087e-08 9.03602e-08 -3.28101e-08)
(7.15184e-08 8.86889e-08 -2.75676e-08)
(7.58773e-08 8.65765e-08 -2.01649e-08)
(7.54003e-08 8.06553e-08 -1.06564e-08)
(0 1.14148e-07 -3.64696e-08)
(1.07993e-08 1.13805e-07 -3.6476e-08)
(2.19582e-08 1.1291e-07 -3.6516e-08)
(3.34388e-08 1.1179e-07 -3.64116e-08)
(4.50324e-08 1.10797e-07 -3.59246e-08)
(5.64535e-08 1.1015e-07 -3.4768e-08)
(6.73807e-08 1.09812e-07 -3.26211e-08)
(7.74818e-08 1.09516e-07 -2.91151e-08)
(8.64017e-08 1.09058e-07 -2.38828e-08)
(9.38885e-08 1.08311e-07 -1.65077e-08)
(9.67653e-08 1.0356e-07 -7.21346e-09)
(0 1.30222e-07 -2.97765e-08)
(1.16742e-08 1.2973e-07 -2.98803e-08)
(2.38984e-08 1.2853e-07 -3.01764e-08)
(3.6743e-08 1.27252e-07 -3.03564e-08)
(5.00647e-08 1.26499e-07 -3.00873e-08)
(6.36007e-08 1.2658e-07 -2.90552e-08)
(7.698e-08 1.27429e-07 -2.6962e-08)
(8.97773e-08 1.28659e-07 -2.34924e-08)
(1.01449e-07 1.29735e-07 -1.83673e-08)
(1.11801e-07 1.3056e-07 -1.11561e-08)
(1.18095e-07 1.27704e-07 -2.23206e-09)
(0 1.46232e-07 -1.95321e-08)
(1.23832e-08 1.45357e-07 -1.98866e-08)
(2.55033e-08 1.43361e-07 -2.07645e-08)
(3.95914e-08 1.41519e-07 -2.15252e-08)
(5.45805e-08 1.40856e-07 -2.16695e-08)
(7.02254e-08 1.41779e-07 -2.08593e-08)
(8.60902e-08 1.4406e-07 -1.88538e-08)
(1.0153e-07 1.47e-07 -1.54631e-08)
(1.15691e-07 1.49679e-07 -1.0558e-08)
(1.28048e-07 1.51732e-07 -3.898e-09)
(1.36466e-07 1.50626e-07 3.89554e-09)
(0 1.62554e-07 -4.33481e-09)
(1.25472e-08 1.6065e-07 -5.47811e-09)
(2.59411e-08 1.56965e-07 -7.58095e-09)
(4.06194e-08 1.53846e-07 -9.42262e-09)
(5.66313e-08 1.52848e-07 -1.03256e-08)
(7.3817e-08 1.54466e-07 -9.99583e-09)
(9.17666e-08 1.58303e-07 -8.30133e-09)
(1.09711e-07 1.63255e-07 -5.1957e-09)
(1.26417e-07 1.67763e-07 -7.49146e-10)
(1.402e-07 1.70235e-07 4.67145e-09)
(1.49741e-07 1.69798e-07 1.06489e-08)
(0 -0 -6.59958e-08)
(8.56208e-09 0 -6.62399e-08)
(1.65367e-08 0 -6.69574e-08)
(2.35312e-08 0 -6.80205e-08)
(2.93794e-08 0 -6.92583e-08)
(3.397e-08 0 -7.04433e-08)
(3.72766e-08 0 -7.1278e-08)
(3.94518e-08 0 -7.138e-08)
(4.10014e-08 0 -7.02685e-08)
(4.30993e-08 0 -6.73521e-08)
(4.83113e-08 0 -6.18321e-08)
(0 2.3331e-08 -6.63305e-08)
(8.65704e-09 2.29957e-08 -6.65703e-08)
(1.67964e-08 2.21038e-08 -6.72721e-08)
(2.39982e-08 2.10373e-08 -6.83142e-08)
(3.00449e-08 1.99272e-08 -6.95299e-08)
(3.48063e-08 1.87584e-08 -7.06943e-08)
(3.82238e-08 1.75018e-08 -7.15145e-08)
(4.03854e-08 1.61276e-08 -7.16173e-08)
(4.16452e-08 1.45997e-08 -7.05413e-08)
(4.28171e-08 1.28888e-08 -6.77406e-08)
(4.55846e-08 1.07197e-08 -6.25803e-08)
(0 4.60923e-08 -6.73035e-08)
(8.98834e-09 4.56258e-08 -6.7528e-08)
(1.75962e-08 4.42877e-08 -6.81895e-08)
(2.53856e-08 4.24522e-08 -6.91778e-08)
(3.20379e-08 4.0412e-08 -7.03354e-08)
(3.73495e-08 3.82543e-08 -7.14483e-08)
(4.11844e-08 3.59265e-08 -7.22367e-08)
(4.3472e-08 3.3373e-08 -7.23512e-08)
(4.42372e-08 3.05134e-08 -7.13746e-08)
(4.35993e-08 2.72571e-08 -6.88514e-08)
(4.17054e-08 2.29341e-08 -6.42856e-08)
(0 6.82947e-08 -6.87431e-08)
(9.64088e-09 6.78102e-08 -6.89476e-08)
(1.90144e-08 6.63715e-08 -6.95575e-08)
(2.77179e-08 6.42076e-08 -7.04754e-08)
(3.538e-08 6.15809e-08 -7.1555e-08)
(4.16936e-08 5.87213e-08 -7.25969e-08)
(4.6419e-08 5.56569e-08 -7.33409e-08)
(4.93267e-08 5.22897e-08 -7.3465e-08)
(5.01516e-08 4.84822e-08 -7.25981e-08)
(4.8531e-08 4.4086e-08 -7.03585e-08)
(4.33332e-08 3.77935e-08 -6.63086e-08)
(0 9.0351e-08 -7.04195e-08)
(1.05712e-08 8.98686e-08 -7.06035e-08)
(2.10116e-08 8.84239e-08 -7.11592e-08)
(3.09506e-08 8.62198e-08 -7.20025e-08)
(4.00105e-08 8.34338e-08 -7.30004e-08)
(4.78207e-08 8.02564e-08 -7.39653e-08)
(5.40466e-08 7.68333e-08 -7.46574e-08)
(5.83678e-08 7.31396e-08 -7.4783e-08)
(6.03735e-08 6.8968e-08 -7.40044e-08)
(5.95429e-08 6.40782e-08 -7.19851e-08)
(5.36757e-08 5.62633e-08 -6.82973e-08)
(0 1.12542e-07 -7.20381e-08)
(1.17085e-08 1.12073e-07 -7.22026e-08)
(2.34495e-08 1.10639e-07 -7.27093e-08)
(3.49223e-08 1.08481e-07 -7.34858e-08)
(4.57498e-08 1.05835e-07 -7.44118e-08)
(5.5547e-08 1.02823e-07 -7.53096e-08)
(6.39308e-08 9.9528e-08 -7.59539e-08)
(7.05279e-08 9.60091e-08 -7.60731e-08)
(7.49574e-08 9.21698e-08 -7.53563e-08)
(7.67547e-08 8.76635e-08 -7.34902e-08)
(7.26928e-08 7.91238e-08 -7.00563e-08)
(0 1.3507e-07 -7.32267e-08)
(1.29623e-08 1.34581e-07 -7.3376e-08)
(2.61516e-08 1.33128e-07 -7.38513e-08)
(3.93813e-08 1.31024e-07 -7.45865e-08)
(5.22992e-08 1.28629e-07 -7.54687e-08)
(6.45184e-08 1.26164e-07 -7.63278e-08)
(7.56494e-08 1.23615e-07 -7.69455e-08)
(8.52898e-08 1.20887e-07 -7.70617e-08)
(9.31368e-08 1.18037e-07 -7.63897e-08)
(9.88796e-08 1.14812e-07 -7.46319e-08)
(9.84714e-08 1.06674e-07 -7.14124e-08)
(0 1.58097e-07 -7.35254e-08)
(1.4233e-08 1.57513e-07 -7.3672e-08)
(2.89289e-08 1.55886e-07 -7.41541e-08)
(4.40265e-08 1.53724e-07 -7.48992e-08)
(5.92432e-08 1.51574e-07 -7.57914e-08)
(7.42039e-08 1.49819e-07 -7.66612e-08)
(8.85008e-08 1.48489e-07 -7.72936e-08)
(1.01738e-07 1.473e-07 -7.74348e-08)
(1.13534e-07 1.46075e-07 -7.68161e-08)
(1.23722e-07 1.44775e-07 -7.51533e-08)
(1.28089e-07 1.38333e-07 -7.21628e-08)
(0 1.81815e-07 -7.2379e-08)
(1.54171e-08 1.80978e-07 -7.25512e-08)
(3.15576e-08 1.78788e-07 -7.3116e-08)
(4.85126e-08 1.76213e-07 -7.39648e-08)
(6.60966e-08 1.74182e-07 -7.49572e-08)
(8.39744e-08 1.73229e-07 -7.59148e-08)
(1.01682e-07 1.73373e-07 -7.66252e-08)
(1.1871e-07 1.74189e-07 -7.68461e-08)
(1.34423e-07 1.75056e-07 -7.6328e-08)
(1.48741e-07 1.76003e-07 -7.47969e-08)
(1.58009e-07 1.72306e-07 -7.21043e-08)
(0 2.06597e-07 -6.9137e-08)
(1.64207e-08 2.05135e-07 -6.93995e-08)
(3.38204e-08 2.01599e-07 -7.01977e-08)
(5.25149e-08 1.97941e-07 -7.13124e-08)
(7.24325e-08 1.95739e-07 -7.25478e-08)
(9.32736e-08 1.95693e-07 -7.3707e-08)
(1.14498e-07 1.97622e-07 -7.45817e-08)
(1.35303e-07 2.00685e-07 -7.49534e-08)
(1.54625e-07 2.03737e-07 -7.46098e-08)
(1.71896e-07 2.06425e-07 -7.33384e-08)
(1.84222e-07 2.05212e-07 -7.11664e-08)
(0 2.3369e-07 -6.29765e-08)
(1.67648e-08 2.30547e-07 -6.35483e-08)
(3.46528e-08 2.24232e-07 -6.48429e-08)
(5.42703e-08 2.18364e-07 -6.64438e-08)
(7.57166e-08 2.15312e-07 -6.80922e-08)
(9.88185e-08 2.15916e-07 -6.95963e-08)
(1.23078e-07 2.1976e-07 -7.07754e-08)
(1.47526e-07 2.2544e-07 -7.14515e-08)
(1.70559e-07 2.30901e-07 -7.14709e-08)
(1.89894e-07 2.3398e-07 -7.07832e-08)
(2.03695e-07 2.33457e-07 -6.94144e-08)
(0 -0 -8.36081e-08)
(9.66327e-09 0 -8.41806e-08)
(1.85988e-08 0 -8.58772e-08)
(2.62997e-08 0 -8.8621e-08)
(3.25081e-08 0 -9.23514e-08)
(3.70103e-08 0 -9.70257e-08)
(3.96595e-08 0 -1.02614e-07)
(4.04685e-08 0 -1.09102e-07)
(3.97879e-08 0 -1.16504e-07)
(3.86364e-08 0 -1.24893e-07)
(3.93975e-08 0 -1.34628e-07)
(0 2.71658e-08 -8.43469e-08)
(9.75953e-09 2.67507e-08 -8.49128e-08)
(1.88706e-08 2.56327e-08 -8.65831e-08)
(2.67955e-08 2.42669e-08 -8.92909e-08)
(3.32186e-08 2.28122e-08 -9.2981e-08)
(3.79057e-08 2.12562e-08 -9.761e-08)
(4.06766e-08 1.95695e-08 -1.03142e-07)
(4.1475e-08 1.77194e-08 -1.09558e-07)
(4.04925e-08 1.56636e-08 -1.16849e-07)
(3.83723e-08 1.33644e-08 -1.2503e-07)
(3.66399e-08 1.05365e-08 -1.34205e-07)
(0 5.36817e-08 -8.6522e-08)
(1.00999e-08 5.30894e-08 -8.7062e-08)
(1.97079e-08 5.1372e-08 -8.86614e-08)
(2.82661e-08 4.89813e-08 -9.12717e-08)
(3.53457e-08 4.62715e-08 -9.48467e-08)
(4.06321e-08 4.33559e-08 -9.93465e-08)
(4.38625e-08 4.01813e-08 -1.04731e-07)
(4.48139e-08 3.66866e-08 -1.10962e-07)
(4.33339e-08 3.2779e-08 -1.1798e-07)
(3.93388e-08 2.83481e-08 -1.257e-07)
(3.27436e-08 2.27004e-08 -1.33972e-07)
(0 7.95783e-08 -9.00019e-08)
(1.0784e-08 7.89393e-08 -9.05077e-08)
(2.12051e-08 7.70223e-08 -9.2013e-08)
(3.07465e-08 7.41123e-08 -9.44906e-08)
(3.89206e-08 7.05334e-08 -9.7905e-08)
(4.52998e-08 6.65725e-08 -1.02224e-07)
(4.95104e-08 6.22751e-08 -1.0741e-07)
(5.11632e-08 5.7533e-08 -1.13408e-07)
(4.98044e-08 5.21866e-08 -1.2012e-07)
(4.48481e-08 4.60547e-08 -1.27404e-07)
(3.48493e-08 3.77609e-08 -1.34895e-07)
(0 1.05356e-07 -9.46557e-08)
(1.17642e-08 1.04691e-07 -9.51253e-08)
(2.33205e-08 1.02677e-07 -9.65232e-08)
(3.419e-08 9.95733e-08 -9.88461e-08)
(4.38791e-08 9.56069e-08 -1.0208e-07)
(5.18909e-08 9.10256e-08 -1.06198e-07)
(5.77517e-08 8.60192e-08 -1.11173e-07)
(6.09803e-08 8.05673e-08 -1.16954e-07)
(6.09737e-08 7.44281e-08 -1.23431e-07)
(5.69898e-08 6.73081e-08 -1.30454e-07)
(4.64309e-08 5.68431e-08 -1.37452e-07)
(0 1.31358e-07 -1.00362e-07)
(1.29616e-08 1.30677e-07 -1.00791e-07)
(2.58992e-08 1.28577e-07 -1.02069e-07)
(3.8415e-08 1.25363e-07 -1.04221e-07)
(5.00191e-08 1.21338e-07 -1.07264e-07)
(6.01998e-08 1.16676e-07 -1.1119e-07)
(6.84315e-08 1.115e-07 -1.15982e-07)
(7.41831e-08 1.05896e-07 -1.21593e-07)
(7.68959e-08 9.97502e-08 -1.27939e-07)
(7.58983e-08 9.26394e-08 -1.34892e-07)
(6.74689e-08 8.09007e-08 -1.41663e-07)
(0 1.57837e-07 -1.07003e-07)
(1.42737e-08 1.57097e-07 -1.0738e-07)
(2.87412e-08 1.54862e-07 -1.08522e-07)
(4.31355e-08 1.51524e-07 -1.10491e-07)
(5.69984e-08 1.47539e-07 -1.13341e-07)
(6.98212e-08 1.43213e-07 -1.17096e-07)
(8.10731e-08 1.38563e-07 -1.21747e-07)
(9.01923e-08 1.33503e-07 -1.27253e-07)
(9.67201e-08 1.28105e-07 -1.33555e-07)
(1.0017e-07 1.22056e-07 -1.40553e-07)
(9.591e-08 1.10355e-07 -1.47278e-07)
(0 1.84991e-07 -1.14473e-07)
(1.55858e-08 1.84099e-07 -1.1478e-07)
(3.16291e-08 1.81529e-07 -1.15749e-07)
(4.8006e-08 1.77907e-07 -1.17506e-07)
(6.43405e-08 1.73917e-07 -1.2016e-07)
(8.01429e-08 1.70073e-07 -1.23768e-07)
(9.48715e-08 1.66471e-07 -1.28325e-07)
(1.07973e-07 1.62816e-07 -1.33789e-07)
(1.18916e-07 1.58922e-07 -1.40072e-07)
(1.27394e-07 1.54735e-07 -1.47102e-07)
(1.28584e-07 1.4462e-07 -1.53865e-07)
(0 2.13039e-07 -1.22682e-07)
(1.67766e-08 2.11805e-07 -1.22881e-07)
(3.43025e-08 2.08426e-07 -1.2359e-07)
(5.26278e-08 2.04066e-07 -1.25064e-07)
(7.14871e-08 1.99873e-07 -1.27513e-07)
(9.04395e-08 1.96564e-07 -1.31019e-07)
(1.08893e-07 1.94261e-07 -1.35548e-07)
(1.26187e-07 1.92542e-07 -1.41005e-07)
(1.41533e-07 1.90747e-07 -1.47214e-07)
(1.54735e-07 1.88895e-07 -1.54145e-07)
(1.61608e-07 1.81703e-07 -1.60866e-07)
(0 2.42386e-07 -1.31603e-07)
(1.77316e-08 2.4037e-07 -1.31594e-07)
(3.65034e-08 2.35244e-07 -1.31855e-07)
(5.66186e-08 2.29318e-07 -1.32929e-07)
(7.79386e-08 2.24516e-07 -1.35168e-07)
(1.00062e-07 2.21793e-07 -1.38651e-07)
(1.22319e-07 2.21087e-07 -1.43264e-07)
(1.43755e-07 2.2156e-07 -1.4878e-07)
(1.63142e-07 2.22003e-07 -1.54889e-07)
(1.79809e-07 2.2205e-07 -1.61436e-07)
(1.90533e-07 2.178e-07 -1.67537e-07)
(0 2.744e-07 -1.41497e-07)
(1.79145e-08 2.7039e-07 -1.40929e-07)
(3.70545e-08 2.61894e-07 -1.40316e-07)
(5.8047e-08 2.53124e-07 -1.40695e-07)
(8.09411e-08 2.46949e-07 -1.4256e-07)
(1.05471e-07 2.44529e-07 -1.45934e-07)
(1.31016e-07 2.45581e-07 -1.50589e-07)
(1.56447e-07 2.48661e-07 -1.56172e-07)
(1.79967e-07 2.51574e-07 -1.62221e-07)
(1.99109e-07 2.52044e-07 -1.68094e-07)
(2.11938e-07 2.48818e-07 -1.73279e-07)
(0 -0 -9.21292e-08)
(9.96798e-09 0 -9.29611e-08)
(1.91383e-08 0 -9.54331e-08)
(2.69375e-08 0 -9.95236e-08)
(3.30378e-08 0 -1.05282e-07)
(3.71304e-08 0 -1.12835e-07)
(3.89295e-08 0 -1.22383e-07)
(3.82409e-08 0 -1.34211e-07)
(3.51087e-08 0 -1.48692e-07)
(3.00988e-08 0 -1.66331e-07)
(2.48331e-08 0 -1.88201e-07)
(0 2.83651e-08 -9.32207e-08)
(1.00431e-08 2.78982e-08 -9.40442e-08)
(1.93707e-08 2.66297e-08 -9.64792e-08)
(2.73774e-08 2.50451e-08 -1.00517e-07)
(3.36754e-08 2.33187e-08 -1.06215e-07)
(3.79361e-08 2.14447e-08 -1.13696e-07)
(3.98426e-08 1.93979e-08 -1.23144e-07)
(3.91372e-08 1.71472e-08 -1.34824e-07)
(3.57209e-08 1.46486e-08 -1.49056e-07)
(2.98282e-08 1.18592e-08 -1.66201e-07)
(2.24131e-08 8.53134e-09 -1.86752e-07)
(0 5.60693e-08 -9.64469e-08)
(1.03233e-08 5.53843e-08 -9.72347e-08)
(2.00926e-08 5.33862e-08 -9.95678e-08)
(2.86818e-08 5.05632e-08 -1.03462e-07)
(3.55867e-08 4.73033e-08 -1.08981e-07)
(4.03979e-08 4.37392e-08 -1.16245e-07)
(4.27206e-08 3.98255e-08 -1.25421e-07)
(4.21449e-08 3.55029e-08 -1.36712e-07)
(3.82647e-08 3.06752e-08 -1.50307e-07)
(3.06692e-08 2.5222e-08 -1.66318e-07)
(1.89021e-08 1.85424e-08 -1.84687e-07)
(0 8.31593e-08 -1.01722e-07)
(1.09171e-08 8.23903e-08 -1.02461e-07)
(2.14103e-08 8.00751e-08 -1.04656e-07)
(3.08957e-08 7.65297e-08 -1.08349e-07)
(3.88093e-08 7.21161e-08 -1.13612e-07)
(4.46277e-08 6.71571e-08 -1.20567e-07)
(4.78488e-08 6.17153e-08 -1.29366e-07)
(4.79099e-08 5.56828e-08 -1.40159e-07)
(4.41363e-08 4.88912e-08 -1.5302e-07)
(3.56723e-08 4.11384e-08 -1.67899e-07)
(2.08545e-08 3.12019e-08 -1.84335e-07)
(0 1.10165e-07 -1.0902e-07)
(1.17793e-08 1.0933e-07 -1.09706e-07)
(2.32884e-08 1.06796e-07 -1.11734e-07)
(3.39807e-08 1.02852e-07 -1.15181e-07)
(4.32853e-08 9.77609e-08 -1.20144e-07)
(5.06091e-08 9.18123e-08 -1.26745e-07)
(5.53521e-08 8.52257e-08 -1.35131e-07)
(5.68658e-08 7.79849e-08 -1.45438e-07)
(5.43415e-08 6.98305e-08 -1.5769e-07)
(4.67923e-08 6.04293e-08 -1.71781e-07)
(3.1517e-08 4.76307e-08 -1.86898e-07)
(0 1.3744e-07 -1.18389e-07)
(1.28317e-08 1.36546e-07 -1.1901e-07)
(2.55728e-08 1.33789e-07 -1.20838e-07)
(3.77566e-08 1.2951e-07 -1.2399e-07)
(4.88142e-08 1.24054e-07 -1.28612e-07)
(5.81363e-08 1.17638e-07 -1.34848e-07)
(6.50695e-08 1.10418e-07 -1.42852e-07)
(6.892e-08 1.02494e-07 -1.52746e-07)
(6.89237e-08 9.37316e-08 -1.64576e-07)
(6.41656e-08 8.36468e-08 -1.78257e-07)
(5.09143e-08 6.88375e-08 -1.92592e-07)
(0 1.6521e-07 -1.29946e-07)
(1.39699e-08 1.64207e-07 -1.30473e-07)
(2.80595e-08 1.61163e-07 -1.32045e-07)
(4.193e-08 1.56507e-07 -1.34843e-07)
(5.50432e-08 1.50748e-07 -1.39076e-07)
(6.6792e-08 1.44252e-07 -1.44943e-07)
(7.65165e-08 1.37074e-07 -1.52603e-07)
(8.34898e-08 1.29141e-07 -1.62173e-07)
(8.70503e-08 1.20514e-07 -1.73727e-07)
(8.6469e-08 1.10813e-07 -1.87217e-07)
(7.71656e-08 9.53186e-08 -2.01095e-07)
(0 1.93599e-07 -1.43885e-07)
(1.50734e-08 1.92387e-07 -1.44271e-07)
(3.05196e-08 1.88836e-07 -1.45473e-07)
(4.61395e-08 1.83605e-07 -1.47797e-07)
(6.14743e-08 1.77447e-07 -1.51564e-07)
(7.59365e-08 1.70964e-07 -1.57035e-07)
(8.8861e-08 1.64322e-07 -1.64373e-07)
(9.95276e-08 1.57239e-07 -1.73687e-07)
(1.07221e-07 1.49534e-07 -1.84978e-07)
(1.11403e-07 1.41095e-07 -1.98235e-07)
(1.07319e-07 1.26553e-07 -2.11768e-07)
(0 2.22673e-07 -1.60486e-07)
(1.60098e-08 2.21056e-07 -1.6063e-07)
(3.26737e-08 2.16503e-07 -1.61213e-07)
(4.99604e-08 2.10205e-07 -1.62827e-07)
(6.75162e-08 2.03391e-07 -1.66003e-07)
(8.48e-08 1.96903e-07 -1.71057e-07)
(1.01108e-07 1.90985e-07 -1.78103e-07)
(1.15642e-07 1.85285e-07 -1.87145e-07)
(1.2748e-07 1.79187e-07 -1.98009e-07)
(1.36206e-07 1.7264e-07 -2.10757e-07)
(1.3771e-07 1.60597e-07 -2.23739e-07)
(0 2.5256e-07 -1.80152e-07)
(1.66456e-08 2.50113e-07 -1.79807e-07)
(3.42321e-08 2.43625e-07 -1.79278e-07)
(5.29697e-08 2.35393e-07 -1.79797e-07)
(7.26183e-08 2.27442e-07 -1.82212e-07)
(9.26694e-08 2.20914e-07 -1.86858e-07)
(1.12354e-07 2.15942e-07 -1.93695e-07)
(1.30635e-07 2.11851e-07 -2.02473e-07)
(1.46239e-07 2.07564e-07 -2.12771e-07)
(1.5841e-07 2.02738e-07 -2.24407e-07)
(1.64137e-07 1.93762e-07 -2.35736e-07)
(0 2.84174e-07 -2.03872e-07)
(1.64426e-08 2.79774e-07 -2.02203e-07)
(3.40424e-08 2.69883e-07 -1.99554e-07)
(5.33146e-08 2.58561e-07 -1.98247e-07)
(7.4183e-08 2.48789e-07 -1.99462e-07)
(9.62563e-08 2.41995e-07 -2.03414e-07)
(1.18817e-07 2.38175e-07 -2.09836e-07)
(1.40693e-07 2.3613e-07 -2.18213e-07)
(1.60131e-07 2.339e-07 -2.27822e-07)
(1.74894e-07 2.29538e-07 -2.37597e-07)
(1.83325e-07 2.22048e-07 -2.46666e-07)
(0 -0 -8.75625e-08)
(9.78447e-09 0 -8.84509e-08)
(1.88142e-08 0 -9.10989e-08)
(2.6544e-08 0 -9.55225e-08)
(3.26689e-08 0 -1.01836e-07)
(3.68938e-08 0 -1.10258e-07)
(3.8923e-08 0 -1.21099e-07)
(3.85112e-08 0 -1.34764e-07)
(3.55781e-08 0 -1.51753e-07)
(3.04343e-08 0 -1.72686e-07)
(2.41884e-08 0 -1.98794e-07)
(0 2.6998e-08 -8.88054e-08)
(9.81916e-09 2.65135e-08 -8.96848e-08)
(1.8968e-08 2.52028e-08 -9.22893e-08)
(2.68642e-08 2.35404e-08 -9.66486e-08)
(3.31441e-08 2.16938e-08 -1.02887e-07)
(3.74966e-08 1.96729e-08 -1.11216e-07)
(3.95977e-08 1.7468e-08 -1.21927e-07)
(3.91477e-08 1.50635e-08 -1.35398e-07)
(3.59474e-08 1.24328e-08 -1.52059e-07)
(3.00368e-08 9.5546e-09 -1.72348e-07)
(2.20244e-08 6.26595e-09 -1.96802e-07)
(0 5.34232e-08 -9.24857e-08)
(9.98381e-09 5.27014e-08 -9.33255e-08)
(1.94553e-08 5.05877e-08 -9.58095e-08)
(2.78097e-08 4.75661e-08 -9.9991e-08)
(3.45691e-08 4.40342e-08 -1.06006e-07)
(3.93451e-08 4.0141e-08 -1.14058e-07)
(4.17438e-08 3.58683e-08 -1.24409e-07)
(4.1335e-08 3.11848e-08 -1.3736e-07)
(3.76623e-08 2.60278e-08 -1.53171e-07)
(3.02361e-08 2.03169e-08 -1.71966e-07)
(1.85534e-08 1.36393e-08 -1.93628e-07)
(0 7.93537e-08 -9.85468e-08)
(1.03956e-08 7.8518e-08 -9.93286e-08)
(2.03943e-08 7.59881e-08 -1.01646e-07)
(2.9438e-08 7.20855e-08 -1.0558e-07)
(3.6991e-08 6.72e-08 -1.1127e-07)
(4.25501e-08 6.1673e-08 -1.18919e-07)
(4.56201e-08 5.55999e-08 -1.28764e-07)
(4.56367e-08 4.89115e-08 -1.41035e-07)
(4.1915e-08 4.1484e-08 -1.55842e-07)
(3.35945e-08 3.31618e-08 -1.73104e-07)
(1.92288e-08 2.304e-08 -1.92244e-07)
(0 1.0533e-07 -1.07025e-07)
(1.10187e-08 1.04387e-07 -1.0774e-07)
(2.17738e-08 1.01523e-07 -1.09852e-07)
(3.17426e-08 9.7035e-08 -1.13477e-07)
(4.03804e-08 9.1218e-08 -1.18778e-07)
(4.71154e-08 8.43931e-08 -1.25951e-07)
(5.13548e-08 7.68186e-08 -1.35228e-07)
(5.24483e-08 6.85203e-08 -1.46808e-07)
(4.95902e-08 5.92894e-08 -1.60738e-07)
(4.18029e-08 4.88384e-08 -1.7686e-07)
(2.68268e-08 3.54856e-08 -1.94214e-07)
(0 1.31725e-07 -1.18065e-07)
(1.17878e-08 1.30678e-07 -1.18698e-07)
(2.34672e-08 1.27461e-07 -1.20552e-07)
(3.45826e-08 1.22419e-07 -1.23794e-07)
(4.45843e-08 1.15928e-07 -1.28637e-07)
(5.28814e-08 1.08249e-07 -1.35304e-07)
(5.8828e-08 9.95886e-08 -1.44023e-07)
(6.17207e-08 9.00982e-08 -1.54978e-07)
(6.07729e-08 7.96861e-08 -1.68236e-07)
(5.50549e-08 6.79089e-08 -1.8366e-07)
(4.14833e-08 5.19972e-08 -1.99868e-07)
(0 1.58774e-07 -1.31904e-07)
(1.26138e-08 1.57571e-07 -1.32415e-07)
(2.52972e-08 1.53923e-07 -1.3393e-07)
(3.7704e-08 1.48251e-07 -1.36691e-07)
(4.93039e-08 1.41092e-07 -1.4099e-07)
(5.94998e-08 1.32865e-07 -1.47113e-07)
(6.76355e-08 1.23696e-07 -1.55297e-07)
(7.29721e-08 1.1358e-07 -1.65709e-07)
(7.47954e-08 1.02619e-07 -1.78448e-07)
(7.23176e-08 9.04692e-08 -1.93424e-07)
(6.17587e-08 7.31768e-08 -2.08857e-07)
(0 1.86578e-07 -1.48874e-07)
(1.33895e-08 1.85122e-07 -1.49198e-07)
(2.7062e-08 1.80817e-07 -1.5021e-07)
(4.07877e-08 1.74292e-07 -1.52311e-07)
(5.40998e-08 1.66312e-07 -1.55931e-07)
(6.64119e-08 1.57549e-07 -1.61437e-07)
(7.70592e-08 1.48266e-07 -1.69072e-07)
(8.53067e-08 1.38281e-07 -1.78992e-07)
(9.04032e-08 1.27494e-07 -1.91209e-07)
(9.17147e-08 1.15824e-07 -2.05684e-07)
(8.53026e-08 9.86985e-08 -2.20457e-07)
(0 2.15129e-07 -1.69397e-07)
(1.39948e-08 2.13237e-07 -1.69397e-07)
(2.85094e-08 2.07805e-07 -1.69571e-07)
(4.34529e-08 1.99928e-07 -1.70678e-07)
(5.84417e-08 1.90817e-07 -1.73412e-07)
(7.29246e-08 1.81403e-07 -1.78219e-07)
(8.6207e-08 1.7209e-07 -1.85287e-07)
(9.75024e-08 1.62694e-07 -1.94656e-07)
(1.05916e-07 1.5277e-07 -2.06143e-07)
(1.10925e-07 1.42288e-07 -2.19791e-07)
(1.0912e-07 1.26921e-07 -2.33677e-07)
(0 2.44385e-07 -1.94007e-07)
(1.43026e-08 2.41682e-07 -1.93365e-07)
(2.9371e-08 2.34277e-07 -1.92049e-07)
(4.53123e-08 2.24209e-07 -1.91627e-07)
(6.18253e-08 2.1343e-07 -1.93206e-07)
(7.8379e-08 2.03215e-07 -1.97255e-07)
(9.42337e-08 1.9396e-07 -2.03789e-07)
(1.08438e-07 1.85297e-07 -2.12559e-07)
(1.19856e-07 1.76459e-07 -2.23112e-07)
(1.27762e-07 1.67238e-07 -2.3525e-07)
(1.29752e-07 1.54648e-07 -2.47078e-07)
(0 2.74891e-07 -2.23891e-07)
(1.38347e-08 2.70429e-07 -2.21558e-07)
(2.86451e-08 2.59886e-07 -2.17492e-07)
(4.47859e-08 2.46698e-07 -2.14634e-07)
(6.20705e-08 2.33686e-07 -2.14509e-07)
(8.00522e-08 2.22488e-07 -2.17451e-07)
(9.80454e-08 2.13484e-07 -2.23187e-07)
(1.15025e-07 2.05927e-07 -2.31153e-07)
(1.29517e-07 1.98352e-07 -2.40564e-07)
(1.39741e-07 1.89368e-07 -2.50286e-07)
(1.44437e-07 1.78348e-07 -2.5941e-07)
(0 -0 -6.86198e-08)
(9.28746e-09 0 -6.93054e-08)
(1.79826e-08 0 -7.13655e-08)
(2.56756e-08 0 -7.4835e-08)
(3.21963e-08 0 -7.98431e-08)
(3.74039e-08 0 -8.66129e-08)
(4.11724e-08 0 -9.54476e-08)
(4.34417e-08 0 -1.06731e-07)
(4.43093e-08 0 -1.20925e-07)
(4.42034e-08 0 -1.38593e-07)
(4.42478e-08 0 -1.60832e-07)
(0 2.32585e-08 -6.97358e-08)
(9.27201e-09 2.28059e-08 -7.04126e-08)
(1.80344e-08 2.15868e-08 -7.24306e-08)
(2.58381e-08 2.00201e-08 -7.58358e-08)
(3.24582e-08 1.82577e-08 -8.07673e-08)
(3.77415e-08 1.63312e-08 -8.74421e-08)
(4.15372e-08 1.42575e-08 -9.61437e-08)
(4.37404e-08 1.20517e-08 -1.0723e-07)
(4.43544e-08 9.72763e-09 -1.21094e-07)
(4.35929e-08 7.31662e-09 -1.38132e-07)
(4.21434e-08 4.77051e-09 -1.58826e-07)
(0 4.61328e-08 -7.30485e-08)
(9.28959e-09 4.5447e-08 -7.36893e-08)
(1.82163e-08 4.34358e-08 -7.55924e-08)
(2.63105e-08 4.05359e-08 -7.88211e-08)
(3.324e-08 3.71262e-08 -8.35268e-08)
(3.87782e-08 3.33732e-08 -8.99199e-08)
(4.27145e-08 2.93073e-08 -9.82525e-08)
(4.48347e-08 2.49555e-08 -1.08807e-07)
(4.49306e-08 2.0331e-08 -1.21819e-07)
(4.2796e-08 1.54519e-08 -1.37384e-07)
(3.83025e-08 1.01396e-08 -1.55396e-07)
(0 6.87636e-08 -7.85114e-08)
(9.46589e-09 6.79468e-08 -7.90979e-08)
(1.8662e-08 6.54696e-08 -8.08407e-08)
(2.71698e-08 6.16329e-08 -8.38238e-08)
(3.46049e-08 5.68291e-08 -8.82003e-08)
(4.06275e-08 5.14083e-08 -9.41765e-08)
(4.49308e-08 4.55191e-08 -1.01984e-07)
(4.71838e-08 3.91765e-08 -1.11832e-07)