/*--------------------------------*- C++ -*----------------------------------*\
| =========                 |                                                 |
| \\      /  F ield         | foam-extend: Open Source CFD                    |
|  \\    /   O peration     | Version:     3.1                                |
|   \\  /    A nd           | Web:         http://www.extend-project.de       |
|    \\/     M anipulation  |                                                 |
\*---------------------------------------------------------------------------*/
FoamFile
{
    version     2.0;
    format      ascii;
    class       volScalarField::DimensionedInternalField;
    location    "0.0013";
    object      V0;
}
// * * * * * * * * * * * * * * * * * * * * * * * * * * * * * * * * * * * * * //

dimensions      [0 3 0 0 0 0 0];

value           nonuniform List<scalar> 
16000
(
7.21789e-11
7.09175e-11
6.96566e-11
6.84037e-11
6.71599e-11
6.59253e-11
6.47001e-11
6.34849e-11
6.22798e-11
6.10842e-11
7.09165e-11
6.96604e-11
6.84047e-11
6.71534e-11
6.59097e-11
6.46747e-11
6.34488e-11
6.22321e-11
6.10245e-11
5.98234e-11
6.96558e-11
6.84037e-11
6.71535e-11
6.59057e-11
6.46626e-11
6.3427e-11
6.21998e-11
6.0981e-11
5.97703e-11
5.85649e-11
6.84035e-11
6.71527e-11
6.59048e-11
6.46599e-11
6.34181e-11
6.21815e-11
6.09522e-11
5.97306e-11
5.85166e-11
5.73076e-11
6.716e-11
6.59096e-11
6.4662e-11
6.34173e-11
6.21763e-11
6.09392e-11
5.97073e-11
5.8482e-11
5.72643e-11
5.6052e-11
6.59254e-11
6.46749e-11
6.34269e-11
6.21809e-11
6.09385e-11
5.97005e-11
5.84666e-11
5.72371e-11
5.60143e-11
5.47984e-11
6.47004e-11
6.3449e-11
6.22e-11
6.09521e-11
5.97066e-11
5.84653e-11
5.72289e-11
5.59957e-11
5.47667e-11
5.3546e-11
6.34851e-11
6.22323e-11
6.09812e-11
5.97308e-11
5.84819e-11
5.72358e-11
5.59943e-11
5.47557e-11
5.35199e-11
5.22932e-11
6.22801e-11
6.10248e-11
5.97705e-11
5.85168e-11
5.72644e-11
5.60139e-11
5.47659e-11
5.35193e-11
5.22743e-11
5.10369e-11
6.10845e-11
5.98236e-11
5.85651e-11
5.73077e-11
5.60521e-11
5.47984e-11
5.3546e-11
5.22929e-11
5.10364e-11
4.97818e-11
7.30302e-11
7.17351e-11
7.04258e-11
6.91238e-11
6.78328e-11
6.65512e-11
6.52778e-11
6.40111e-11
6.27492e-11
6.14866e-11
7.17324e-11
7.04539e-11
6.91611e-11
6.7866e-11
6.65774e-11
6.52974e-11
6.4025e-11
6.27585e-11
6.1495e-11
6.02247e-11
7.04234e-11
6.91584e-11
6.78837e-11
6.66013e-11
6.53176e-11
6.40394e-11
6.27679e-11
6.15004e-11
6.02349e-11
5.89617e-11
6.91235e-11
6.7864e-11
6.65989e-11
6.53282e-11
6.40521e-11
6.27753e-11
6.15025e-11
6.02332e-11
5.89653e-11
5.76911e-11
6.78332e-11
6.65772e-11
6.53159e-11
6.40499e-11
6.27805e-11
6.15074e-11
6.02324e-11
5.89586e-11
5.76872e-11
5.64127e-11
6.65516e-11
6.52978e-11
6.40392e-11
6.27738e-11
6.15051e-11
6.02351e-11
5.89605e-11
5.76812e-11
5.64022e-11
5.51263e-11
6.52784e-11
6.40256e-11
6.27683e-11
6.15025e-11
6.02305e-11
5.89569e-11
5.7682e-11
5.63991e-11
5.51099e-11
5.38297e-11
6.40118e-11
6.27591e-11
6.1501e-11
6.02336e-11
5.89583e-11
5.76777e-11
5.63952e-11
5.51053e-11
5.38059e-11
5.25194e-11
6.275e-11
6.14957e-11
6.02355e-11
5.89658e-11
5.76876e-11
5.64014e-11
5.51079e-11
5.38045e-11
5.24907e-11
5.11881e-11
6.14874e-11
6.02254e-11
5.89623e-11
5.76916e-11
5.64131e-11
5.51266e-11
5.38299e-11
5.25188e-11
5.1187e-11
4.98551e-11
7.37564e-11
7.24303e-11
7.10753e-11
6.97265e-11
6.83894e-11
6.70617e-11
6.57414e-11
6.4426e-11
6.31125e-11
6.17931e-11
7.24259e-11
7.11269e-11
6.97989e-11
6.84617e-11
6.71295e-11
6.58056e-11
6.44883e-11
6.31747e-11
6.18608e-11
6.05314e-11
7.10716e-11
6.97946e-11
6.84966e-11
6.71808e-11
6.58577e-11
6.45382e-11
6.32242e-11
6.19113e-11
6.05967e-11
5.92657e-11
6.9726e-11
6.84586e-11
6.71771e-11
6.58814e-11
6.45723e-11
6.32569e-11
6.1943e-11
6.06296e-11
5.93142e-11
5.79847e-11
6.83901e-11
6.71293e-11
6.58551e-11
6.45688e-11
6.32722e-11
6.19651e-11
6.06502e-11
5.93325e-11
5.80145e-11
5.66879e-11
6.70625e-11
6.58063e-11
6.45381e-11
6.32545e-11
6.19615e-11
6.06617e-11
5.93504e-11
5.80269e-11
5.67001e-11
5.53746e-11
6.57424e-11
6.44892e-11
6.3225e-11
6.1943e-11
6.0647e-11
5.93445e-11
5.80357e-11
5.671e-11
5.53703e-11
5.40417e-11
6.44272e-11
6.31758e-11
6.19123e-11
6.06305e-11
5.93321e-11
5.80213e-11
5.67037e-11
5.53701e-11
5.40181e-11
5.26834e-11
6.31138e-11
6.1862e-11
6.05978e-11
5.93151e-11
5.80153e-11
5.6699e-11
5.53673e-11
5.4016e-11
5.26446e-11
5.12873e-11
6.17942e-11
6.05325e-11
5.92667e-11
5.79856e-11
5.66887e-11
5.53753e-11
5.40423e-11
5.26826e-11
5.12856e-11
4.98845e-11
7.43298e-11
7.29778e-11
7.15844e-11
7.0196e-11
6.88205e-11
6.74553e-11
6.60983e-11
6.47474e-11
6.34e-11
6.20475e-11
7.29721e-11
7.16559e-11
7.02983e-11
6.89258e-11
6.75573e-11
6.61978e-11
6.48457e-11
6.34982e-11
6.21512e-11
6.07861e-11
7.15795e-11
7.02927e-11
6.89751e-11
6.76316e-11
6.62761e-11
6.49235e-11
6.35769e-11
6.22316e-11
6.0885e-11
5.95189e-11
7.01954e-11
6.89218e-11
6.76267e-11
6.63105e-11
6.49746e-11
6.36289e-11
6.2284e-11
6.09398e-11
5.95937e-11
5.8231e-11
6.88215e-11
6.75572e-11
6.62727e-11
6.497e-11
6.36521e-11
6.23188e-11
6.09745e-11
5.96266e-11
5.82791e-11
5.69218e-11
6.74565e-11
6.61989e-11
6.49233e-11
6.36258e-11
6.23141e-11
6.09925e-11
5.96549e-11
5.83015e-11
5.69448e-11
5.55906e-11
6.60998e-11
6.48471e-11
6.3578e-11
6.22841e-11
6.09705e-11
5.96471e-11
5.83152e-11
5.69611e-11
5.55897e-11
5.42334e-11
6.47491e-11
6.34998e-11
6.2233e-11
6.09409e-11
5.96261e-11
5.82942e-11
5.69529e-11
5.55905e-11
5.42051e-11
5.28424e-11
6.34018e-11
6.21529e-11
6.08865e-11
5.9595e-11
5.82803e-11
5.69434e-11
5.5586e-11
5.42024e-11
5.27926e-11
5.14003e-11
6.20491e-11
6.07877e-11
5.95203e-11
5.82322e-11
5.6923e-11
5.55917e-11
5.42343e-11
5.28416e-11
5.1398e-11
4.99466e-11
7.47318e-11
7.33607e-11
7.19386e-11
7.05206e-11
6.91168e-11
6.77245e-11
6.63423e-11
6.49685e-11
6.36013e-11
6.22319e-11
7.3354e-11
7.2025e-11
7.06453e-11
6.92464e-11
6.78512e-11
6.64661e-11
6.50902e-11
6.3721e-11
6.23546e-11
6.09707e-11
7.1933e-11
7.06387e-11
6.93065e-11
6.79423e-11
6.6563e-11
6.5187e-11
6.38183e-11
6.24525e-11
6.10873e-11
5.97025e-11
7.05201e-11
6.92418e-11
6.79366e-11
6.66053e-11
6.52501e-11
6.38831e-11
6.25176e-11
6.11541e-11
5.97905e-11
5.84102e-11
6.91181e-11
6.78512e-11
6.65592e-11
6.52448e-11
6.39117e-11
6.25607e-11
6.11972e-11
5.98307e-11
5.84667e-11
5.70935e-11
6.7726e-11
6.64675e-11
6.51869e-11
6.38796e-11
6.25552e-11
6.12192e-11
5.9865e-11
5.84935e-11
5.712e-11
5.57514e-11
6.63441e-11
6.50919e-11
6.38197e-11
6.25178e-11
6.11925e-11
5.98559e-11
5.851e-11
5.71391e-11
5.57497e-11
5.43794e-11
6.49706e-11
6.37229e-11
6.24542e-11
6.11555e-11
5.98302e-11
5.8485e-11
5.71295e-11
5.57503e-11
5.43455e-11
5.29684e-11
6.36035e-11
6.23567e-11
6.10892e-11
5.97922e-11
5.84682e-11
5.71185e-11
5.57454e-11
5.43425e-11
5.29097e-11
5.14973e-11
6.2234e-11
6.09726e-11
5.97042e-11
5.84119e-11
5.7095e-11
5.57529e-11
5.43807e-11
5.29675e-11
5.14947e-11
5.0012e-11
7.49539e-11
7.35709e-11
7.21306e-11
7.06935e-11
6.92709e-11
6.78607e-11
6.64619e-11
6.50736e-11
6.36945e-11
6.23156e-11
7.35637e-11
7.22264e-11
7.08323e-11
6.94162e-11
6.80032e-11
6.66012e-11
6.52096e-11
6.38265e-11
6.24485e-11
6.10544e-11
7.21246e-11
7.08253e-11
6.94831e-11
6.8105e-11
6.67101e-11
6.53184e-11
6.39353e-11
6.25565e-11
6.11804e-11
5.97858e-11
7.0693e-11
6.94113e-11
6.80989e-11
6.67573e-11
6.53892e-11
6.40084e-11
6.26296e-11
6.12541e-11
5.98804e-11
5.84913e-11
6.92724e-11
6.80034e-11
6.6706e-11
6.53835e-11
6.40405e-11
6.2678e-11
6.13025e-11
5.99248e-11
5.85515e-11
5.71707e-11
6.78625e-11
6.66029e-11
6.53184e-11
6.40046e-11
6.26721e-11
6.13269e-11
5.99628e-11
5.8581e-11
5.71984e-11
5.58234e-11
6.6464e-11
6.52115e-11
6.3937e-11
6.26299e-11
6.12975e-11
5.99531e-11
5.8599e-11
5.72191e-11
5.58205e-11
5.44445e-11
6.5076e-11
6.38287e-11
6.25585e-11
6.12558e-11
5.99244e-11
5.85719e-11
5.72088e-11
5.58213e-11
5.44073e-11
5.30248e-11
6.3697e-11
6.24509e-11
6.11825e-11
5.98823e-11
5.85532e-11
5.71969e-11
5.5816e-11
5.4404e-11
5.29612e-11
5.15419e-11
6.2318e-11
6.10566e-11
5.97878e-11
5.84932e-11
5.71726e-11
5.58251e-11
5.4446e-11
5.30239e-11
5.15392e-11
5.0045e-11
7.49999e-11
7.36121e-11
7.21637e-11
7.07169e-11
6.92838e-11
6.7863e-11
6.64538e-11
6.50561e-11
6.36689e-11
6.22838e-11
7.36047e-11
7.22636e-11
7.08623e-11
6.9437e-11
6.80141e-11
6.66018e-11
6.52002e-11
6.38079e-11
6.24222e-11
6.10227e-11
7.21576e-11
7.08553e-11
6.95072e-11
6.81211e-11
6.67171e-11
6.5316e-11
6.39237e-11
6.25363e-11
6.11531e-11
5.9754e-11
7.07164e-11
6.94322e-11
6.8115e-11
6.67668e-11
6.5391e-11
6.40018e-11
6.26148e-11
6.12318e-11
5.98518e-11
5.84593e-11
6.92854e-11
6.80143e-11
6.67131e-11
6.53853e-11
6.40359e-11
6.26664e-11
6.1284e-11
5.98999e-11
5.85213e-11
5.71383e-11
6.78648e-11
6.66036e-11
6.53161e-11
6.39981e-11
6.26605e-11
6.13099e-11
5.99402e-11
5.85533e-11
5.71666e-11
5.57908e-11
6.6456e-11
6.52022e-11
6.39254e-11
6.26151e-11
6.1279e-11
5.99305e-11
5.85724e-11
5.71889e-11
5.57877e-11
5.44125e-11
6.50586e-11
6.38102e-11
6.25384e-11
6.12336e-11
5.98995e-11
5.85443e-11
5.71787e-11
5.57894e-11
5.43748e-11
5.29947e-11
6.36716e-11
6.24247e-11
6.11553e-11
5.98538e-11
5.8523e-11
5.71651e-11
5.57832e-11
5.43715e-11
5.29306e-11
5.15167e-11
6.22863e-11
6.10251e-11
5.97562e-11
5.84613e-11
5.71402e-11
5.57925e-11
5.44139e-11
5.29938e-11
5.1514e-11
5.00281e-11
7.48877e-11
7.35014e-11
7.20539e-11
7.06057e-11
6.91695e-11
6.7744e-11
6.63293e-11
6.49257e-11
6.35333e-11
6.21443e-11
7.34944e-11
7.21534e-11
7.07512e-11
6.93238e-11
6.78976e-11
6.64806e-11
6.50733e-11
6.36752e-11
6.22845e-11
6.08834e-11
7.20481e-11
7.07446e-11
6.93941e-11
6.80051e-11
6.65978e-11
6.51922e-11
6.37945e-11
6.2402e-11
6.10144e-11
5.9615e-11
7.06053e-11
6.93193e-11
6.79993e-11
6.66477e-11
6.52684e-11
6.38754e-11
6.24841e-11
6.10968e-11
5.97134e-11
5.83218e-11
6.91709e-11
6.78977e-11
6.65938e-11
6.5263e-11
6.39102e-11
6.25375e-11
6.1152e-11
5.97651e-11
5.83843e-11
5.70035e-11
6.77457e-11
6.64822e-11
6.51922e-11
6.38719e-11
6.25319e-11
6.11786e-11
5.98069e-11
5.8419e-11
5.70322e-11
5.56603e-11
6.63314e-11
6.50752e-11
6.37961e-11
6.24844e-11
6.11473e-11
5.97978e-11
5.84388e-11
5.70563e-11
5.56582e-11
5.4289e-11
6.49281e-11
6.36774e-11
6.24039e-11
6.10985e-11
5.97648e-11
5.84107e-11
5.70468e-11
5.56616e-11
5.42538e-11
5.28827e-11
6.35358e-11
6.22869e-11
6.10165e-11
5.97153e-11
5.8386e-11
5.70309e-11
5.56538e-11
5.42505e-11
5.28219e-11
5.14242e-11
6.21466e-11
6.08856e-11
5.96171e-11
5.83237e-11
5.70053e-11
5.56619e-11
5.42902e-11
5.28818e-11
5.14217e-11
4.99612e-11
7.46487e-11
7.32693e-11
7.18301e-11
7.03879e-11
6.89546e-11
6.75299e-11
6.61143e-11
6.47087e-11
6.3314e-11
6.19239e-11
7.32629e-11
7.19252e-11
7.05276e-11
6.91045e-11
6.76807e-11
6.6264e-11
6.48553e-11
6.3455e-11
6.20625e-11
6.06634e-11
7.18249e-11
7.05217e-11
6.9172e-11
6.77848e-11
6.63791e-11
6.49737e-11
6.35746e-11
6.21803e-11
6.07916e-11
5.93958e-11
7.03874e-11
6.91004e-11
6.77795e-11
6.64276e-11
6.50487e-11
6.36561e-11
6.22641e-11
6.0876e-11
5.94923e-11
5.81055e-11
6.89558e-11
6.76807e-11
6.63755e-11
6.50437e-11
6.36905e-11
6.23178e-11
6.0933e-11
5.9547e-11
5.81672e-11
5.67924e-11
6.75313e-11
6.62654e-11
6.49736e-11
6.36528e-11
6.23128e-11
6.09596e-11
5.95892e-11
5.82044e-11
5.68214e-11
5.54572e-11
6.61161e-11
6.4857e-11
6.3576e-11
6.22644e-11
6.09288e-11
5.95812e-11
5.82244e-11
5.6847e-11
5.54567e-11
5.4098e-11
6.47108e-11
6.3457e-11
6.2182e-11
6.08775e-11
5.95467e-11
5.81971e-11
5.68386e-11
5.54622e-11
5.40671e-11
5.27102e-11
6.33162e-11
6.20645e-11
6.07934e-11
5.9494e-11
5.81687e-11
5.68202e-11
5.54527e-11
5.40641e-11
5.26557e-11
5.12817e-11
6.1926e-11
6.06653e-11
5.93976e-11
5.81072e-11
5.67939e-11
5.54584e-11
5.40988e-11
5.27092e-11
5.12796e-11
4.98565e-11
7.43241e-11
7.29553e-11
7.15303e-11
7.00998e-11
6.86751e-11
6.72564e-11
6.58447e-11
6.44417e-11
6.30489e-11
6.16616e-11
7.29497e-11
7.16176e-11
7.02293e-11
6.88159e-11
6.73998e-11
6.59884e-11
6.4583e-11
6.31848e-11
6.17945e-11
6.04017e-11
7.15257e-11
7.02241e-11
6.88784e-11
6.74972e-11
6.60978e-11
6.46972e-11
6.33011e-11
6.19092e-11
6.05233e-11
5.91353e-11
7.00993e-11
6.88122e-11
6.74925e-11
6.61433e-11
6.47686e-11
6.33806e-11
6.19923e-11
6.06072e-11
5.92272e-11
5.7849e-11
6.86759e-11
6.73996e-11
6.60946e-11
6.47643e-11
6.34135e-11
6.20446e-11
6.06644e-11
5.92832e-11
5.79082e-11
5.65429e-11
6.72574e-11
6.59894e-11
6.4697e-11
6.33777e-11
6.20403e-11
6.06902e-11
5.93246e-11
5.79467e-11
5.65713e-11
5.5218e-11
6.58461e-11
6.45843e-11
6.33022e-11
6.19923e-11
6.06608e-11
5.93179e-11
5.79664e-11
5.65976e-11
5.52193e-11
5.3874e-11
6.44433e-11
6.31863e-11
6.19105e-11
6.06084e-11
5.92829e-11
5.79407e-11
5.65906e-11
5.52267e-11
5.38485e-11
5.25086e-11
6.30506e-11
6.1796e-11
6.05247e-11
5.92285e-11
5.79094e-11
5.65703e-11
5.52157e-11
5.38458e-11
5.24621e-11
5.11151e-11
6.16632e-11
6.04032e-11
5.91367e-11
5.78502e-11
5.6544e-11
5.52188e-11
5.38744e-11
5.25076e-11
5.11134e-11
4.97325e-11
7.39574e-11
7.26016e-11
7.11949e-11
6.97807e-11
6.83692e-11
6.69614e-11
6.55588e-11
6.41635e-11
6.27777e-11
6.13982e-11
7.25968e-11
7.1272e-11
6.98966e-11
6.84972e-11
6.70934e-11
6.56921e-11
6.42951e-11
6.29042e-11
6.15209e-11
6.0139e-11
7.11908e-11
6.98922e-11
6.85532e-11
6.71817e-11
6.57929e-11
6.44015e-11
6.30133e-11
6.16287e-11
6.02502e-11
5.88741e-11
6.978e-11
6.8494e-11
6.71777e-11
6.58341e-11
6.44674e-11
6.30882e-11
6.17079e-11
6.03305e-11
5.89584e-11
5.75924e-11
6.83697e-11
6.70932e-11
6.57901e-11
6.44638e-11
6.31186e-11
6.17571e-11
6.03856e-11
5.90134e-11
5.76472e-11
5.62942e-11
6.69621e-11
6.56928e-11
6.44012e-11
6.30856e-11
6.17535e-11
6.04097e-11
5.90525e-11
5.76852e-11
5.63211e-11
5.49808e-11
6.55598e-11
6.4296e-11
6.3014e-11
6.17078e-11
6.03826e-11
5.90471e-11
5.77038e-11
5.63469e-11
5.49836e-11
5.3653e-11
6.41646e-11
6.29052e-11
6.16296e-11
6.03314e-11
5.90131e-11
5.76806e-11
5.63414e-11
5.49922e-11
5.3633e-11
5.23106e-11
6.27789e-11
6.1522e-11
6.02513e-11
5.89594e-11
5.76481e-11
5.63203e-11
5.49805e-11
5.36307e-11
5.22726e-11
5.09514e-11
6.13993e-11
6.014e-11
5.8875e-11
5.75933e-11
5.62949e-11
5.49812e-11
5.3653e-11
5.23097e-11
5.09501e-11
4.96086e-11
7.35884e-11
7.22467e-11
7.08603e-11
6.94652e-11
6.80707e-11
6.66781e-11
6.52894e-11
6.39068e-11
6.2533e-11
6.11662e-11
7.22427e-11
7.09264e-11
6.9566e-11
6.81836e-11
6.67957e-11
6.54087e-11
6.40248e-11
6.26462e-11
6.1275e-11
5.99079e-11
7.08568e-11
6.95622e-11
6.82321e-11
6.68732e-11
6.54984e-11
6.41204e-11
6.27445e-11
6.13719e-11
6.00057e-11
5.86448e-11
6.94645e-11
6.81807e-11
6.68699e-11
6.55347e-11
6.4179e-11
6.28123e-11
6.14443e-11
6.0079e-11
5.87191e-11
5.7368e-11
6.80709e-11
6.67953e-11
6.5496e-11
6.41761e-11
6.28395e-11
6.14887e-11
6.01296e-11
5.87701e-11
5.74166e-11
5.60779e-11
6.66785e-11
6.54091e-11
6.41201e-11
6.28102e-11
6.14858e-11
6.01512e-11
5.88054e-11
5.7452e-11
5.61021e-11
5.47758e-11
6.52899e-11
6.40253e-11
6.27449e-11
6.14441e-11
6.01272e-11
5.88012e-11
5.74687e-11
5.61259e-11
5.47794e-11
5.34635e-11
6.39075e-11
6.26468e-11
6.13725e-11
6.00795e-11
5.87698e-11
5.74484e-11
5.61217e-11
5.47882e-11
5.34483e-11
5.21418e-11
6.25338e-11
6.12757e-11
6.00063e-11
5.87196e-11
5.74171e-11
5.61014e-11
5.47769e-11
5.34464e-11
5.21117e-11
5.08116e-11
6.11668e-11
5.99085e-11
5.86453e-11
5.73684e-11
5.60782e-11
5.4776e-11
5.34632e-11
5.21409e-11
5.08106e-11
4.94998e-11
7.32469e-11
7.19193e-11
7.05535e-11
6.91789e-11
6.78035e-11
6.64292e-11
6.50578e-11
6.36919e-11
6.23342e-11
6.09836e-11
7.19161e-11
7.0609e-11
6.92643e-11
6.79002e-11
6.65304e-11
6.51609e-11
6.37936e-11
6.24312e-11
6.1076e-11
5.97263e-11
7.05505e-11
6.92611e-11
6.79412e-11
6.65965e-11
6.5238e-11
6.38763e-11
6.25162e-11
6.11593e-11
5.98088e-11
5.84651e-11
6.91782e-11
6.78978e-11
6.65938e-11
6.52689e-11
6.39267e-11
6.25751e-11
6.12224e-11
5.98723e-11
5.85278e-11
5.7193e-11
6.78036e-11
6.653e-11
6.5236e-11
6.39243e-11
6.25985e-11
6.12608e-11
5.99165e-11
5.85725e-11
5.72342e-11
5.59104e-11
6.64293e-11
6.5161e-11
6.38759e-11
6.25734e-11
6.12585e-11
5.99351e-11
5.86029e-11
5.72651e-11
5.59312e-11
5.46188e-11
6.50581e-11
6.37939e-11
6.25164e-11
6.12221e-11
5.99146e-11
5.85997e-11
5.72795e-11
5.59518e-11
5.46224e-11
5.33198e-11
6.36923e-11
6.24315e-11
6.11596e-11
5.98726e-11
5.85722e-11
5.72624e-11
5.59486e-11
5.46304e-11
5.33084e-11
5.2015e-11
6.23346e-11
6.10763e-11
5.98091e-11
5.85281e-11
5.72345e-11
5.59306e-11
5.46204e-11
5.33068e-11
5.19915e-11
5.07061e-11
6.0984e-11
5.97266e-11
5.84653e-11
5.71932e-11
5.59105e-11
5.46187e-11
5.33194e-11
5.20142e-11
5.07053e-11
4.94144e-11
7.29507e-11
7.16363e-11
7.02899e-11
6.89356e-11
6.75799e-11
6.62249e-11
6.48726e-11
6.35253e-11
6.21856e-11
6.08529e-11
7.16337e-11
7.03356e-11
6.90062e-11
6.76604e-11
6.63095e-11
6.49586e-11
6.36098e-11
6.22655e-11
6.0928e-11
5.95965e-11
7.02876e-11
6.90037e-11
6.76943e-11
6.63644e-11
6.50229e-11
6.36788e-11
6.23361e-11
6.09967e-11
5.96634e-11
5.83371e-11
6.89349e-11
6.76585e-11
6.63622e-11
6.50485e-11
6.37207e-11
6.23852e-11
6.10492e-11
5.97159e-11
5.83879e-11
5.70692e-11
6.75799e-11
6.63091e-11
6.50213e-11
6.37188e-11
6.24046e-11
6.10811e-11
5.97526e-11
5.84249e-11
5.71025e-11
5.57931e-11
6.62249e-11
6.49586e-11
6.36783e-11
6.23838e-11
6.10793e-11
5.97679e-11
5.84498e-11
5.7128e-11
5.581e-11
5.45102e-11
6.48726e-11
6.36098e-11
6.23361e-11
6.10489e-11
5.97511e-11
5.84474e-11
5.71397e-11
5.58268e-11
5.45133e-11
5.32219e-11
6.35254e-11
6.22656e-11
6.09968e-11
5.9716e-11
5.84246e-11
5.7126e-11
5.58243e-11
5.45198e-11
5.32131e-11
5.19294e-11
6.21857e-11
6.09281e-11
5.96635e-11
5.8388e-11
5.71027e-11
5.58095e-11
5.45117e-11
5.32118e-11
5.19112e-11
5.06344e-11
6.0853e-11
5.95966e-11
5.83371e-11
5.70692e-11
5.57931e-11
5.451e-11
5.32215e-11
5.19288e-11
5.06338e-11
4.9353e-11
7.27058e-11
7.14029e-11
7.0074e-11
6.87382e-11
6.74012e-11
6.6065e-11
6.47312e-11
6.34022e-11
6.20801e-11
6.07645e-11
7.14009e-11
7.01111e-11
6.87958e-11
6.74669e-11
6.61339e-11
6.48011e-11
6.34703e-11
6.21439e-11
6.08237e-11
5.9509e-11
7.00721e-11
6.87937e-11
6.74945e-11
6.61786e-11
6.48533e-11
6.35262e-11
6.22006e-11
6.08783e-11
5.95616e-11
5.82511e-11
6.87376e-11
6.74653e-11
6.61768e-11
6.48741e-11
6.35601e-11
6.22403e-11
6.09204e-11
5.96033e-11
5.82911e-11
5.69866e-11
6.74011e-11
6.61335e-11
6.4852e-11
6.35586e-11
6.2256e-11
6.09461e-11
5.96326e-11
5.83202e-11
5.70128e-11
5.57159e-11
6.60649e-11
6.4801e-11
6.35258e-11
6.22392e-11
6.09446e-11
5.96448e-11
5.834e-11
5.70328e-11
5.5729e-11
5.44397e-11
6.47312e-11
6.34703e-11
6.22006e-11
6.09201e-11
5.96313e-11
5.83381e-11
5.70419e-11
5.5742e-11
5.4442e-11
5.31593e-11
6.34022e-11
6.21439e-11
6.08783e-11
5.96033e-11
5.832e-11
5.70311e-11
5.574e-11
5.44469e-11
5.31523e-11
5.18755e-11
6.20801e-11
6.08236e-11
5.95616e-11
5.82911e-11
5.70129e-11
5.57286e-11
5.44408e-11
5.31513e-11
5.18611e-11
5.05888e-11
6.07644e-11
5.9509e-11
5.82511e-11
5.69866e-11
5.57158e-11
5.44396e-11
5.3159e-11
5.18749e-11
5.05883e-11
4.93115e-11
7.25092e-11
7.12161e-11
6.9902e-11
6.85823e-11
6.72618e-11
6.59422e-11
6.4625e-11
6.33122e-11
6.20054e-11
6.07042e-11
7.12145e-11
6.99319e-11
6.86287e-11
6.73147e-11
6.59975e-11
6.46807e-11
6.33661e-11
6.20553e-11
6.07501e-11
5.94495e-11
6.99004e-11
6.86271e-11
6.73369e-11
6.60334e-11
6.47225e-11
6.34105e-11
6.21001e-11
6.07928e-11
5.94903e-11
5.81929e-11
6.85818e-11
6.73135e-11
6.6032e-11
6.47392e-11
6.34376e-11
6.21315e-11
6.08257e-11
5.95226e-11
5.82238e-11
5.6931e-11
6.72617e-11
6.59972e-11
6.47215e-11
6.34363e-11
6.21439e-11
6.08459e-11
5.95454e-11
5.82462e-11
5.69512e-11
5.56642e-11
6.59421e-11
6.46807e-11
6.34102e-11
6.21306e-11
6.08448e-11
5.9555e-11
5.82615e-11
5.69664e-11
5.56743e-11
5.43931e-11
6.4625e-11
6.3366e-11
6.21001e-11
6.08255e-11
5.95444e-11
5.82599e-11
5.69734e-11
5.5684e-11
5.43947e-11
5.31184e-11
6.33121e-11
6.20553e-11
6.07928e-11
5.95226e-11
5.8246e-11
5.6965e-11
5.56824e-11
5.43981e-11
5.31125e-11
5.18404e-11
6.20053e-11
6.07501e-11
5.94903e-11
5.82238e-11
5.69513e-11
5.56739e-11
5.43937e-11
5.31118e-11
5.18288e-11
5.05588e-11
6.07041e-11
5.94494e-11
5.81928e-11
5.6931e-11
5.56642e-11
5.4393e-11
5.31182e-11
5.184e-11
5.05584e-11
4.9283e-11
7.23533e-11
7.10682e-11
6.97661e-11
6.84597e-11
6.71529e-11
6.58471e-11
6.45436e-11
6.32438e-11
6.19491e-11
6.06591e-11
7.10668e-11
6.97902e-11
6.84971e-11
6.71953e-11
6.58912e-11
6.45878e-11
6.32863e-11
6.19883e-11
6.06949e-11
5.9405e-11
6.97648e-11
6.84958e-11
6.72132e-11
6.592e-11
6.46211e-11
6.33214e-11
6.20234e-11
6.07281e-11
5.94369e-11
5.81493e-11
6.84594e-11
6.71943e-11
6.59189e-11
6.46344e-11
6.33429e-11
6.20481e-11
6.07538e-11
5.94619e-11
5.81735e-11
5.68895e-11
6.71529e-11
6.5891e-11
6.46202e-11
6.3342e-11
6.2058e-11
6.07697e-11
5.94795e-11
5.81906e-11
5.69051e-11
5.56256e-11
6.58471e-11
6.45877e-11
6.33212e-11
6.20474e-11
6.07687e-11
5.9487e-11
5.82025e-11
5.69167e-11
5.56333e-11
5.43581e-11
6.45435e-11
6.32863e-11
6.20234e-11
6.07537e-11
5.94787e-11
5.82011e-11
5.69221e-11
5.56406e-11
5.43591e-11
5.30875e-11
6.32438e-11
6.19883e-11
6.07281e-11
5.94619e-11
5.81904e-11
5.69155e-11
5.56393e-11
5.43615e-11
5.30825e-11
5.18137e-11
6.19491e-11
6.06948e-11
5.94369e-11
5.81735e-11
5.69052e-11
5.5633e-11
5.43583e-11
5.30819e-11
5.18041e-11
5.05359e-11
6.0659e-11
5.94049e-11
5.81493e-11
5.68894e-11
5.56255e-11
5.43581e-11
5.30874e-11
5.18134e-11
5.05355e-11
4.92615e-11
7.22289e-11
7.09501e-11
6.96577e-11
6.83619e-11
6.7066e-11
6.57711e-11
6.44782e-11
6.31883e-11
6.19026e-11
6.06206e-11
7.0949e-11
6.96773e-11
6.83921e-11
6.71002e-11
6.58065e-11
6.45135e-11
6.32222e-11
6.19338e-11
6.06491e-11
5.9367e-11
6.96567e-11
6.83911e-11
6.71146e-11
6.58296e-11
6.45401e-11
6.32502e-11
6.19617e-11
6.06755e-11
5.93925e-11
5.81121e-11
6.83617e-11
6.70994e-11
6.58287e-11
6.45509e-11
6.32674e-11
6.19814e-11
6.06958e-11
5.94122e-11
5.81313e-11
5.68537e-11
6.7066e-11
6.58063e-11
6.45395e-11
6.32666e-11
6.19892e-11
6.07084e-11
5.94261e-11
5.81447e-11
5.68662e-11
5.5592e-11
6.57711e-11
6.45135e-11
6.325e-11
6.19807e-11
6.07076e-11
5.9432e-11
5.81541e-11
5.68751e-11
5.55981e-11
5.43272e-11
6.44782e-11
6.32222e-11
6.19617e-11
6.06957e-11
5.94254e-11
5.8153e-11
5.68794e-11
5.56038e-11
5.43279e-11
5.30597e-11
6.31884e-11
6.19338e-11
6.06755e-11
5.94122e-11
5.81446e-11
5.68741e-11
5.56026e-11
5.43297e-11
5.30554e-11
5.17892e-11
6.19027e-11
6.06491e-11
5.93925e-11
5.81314e-11
5.68662e-11
5.55978e-11
5.43272e-11
5.30549e-11
5.17812e-11
5.05149e-11
6.06206e-11
5.9367e-11
5.81121e-11
5.68537e-11
5.5592e-11
5.43272e-11
5.30596e-11
5.1789e-11
5.05146e-11
4.92429e-11
7.2128e-11
7.08543e-11
6.95694e-11
6.8282e-11
6.69946e-11
6.5708e-11
6.44231e-11
6.31406e-11
6.18614e-11
6.0585e-11
7.08534e-11
6.95854e-11
6.83066e-11
6.70223e-11
6.57367e-11
6.44516e-11
6.31681e-11
6.18868e-11
6.06083e-11
5.93318e-11
6.95686e-11
6.83058e-11
6.70341e-11
6.57555e-11
6.44733e-11
6.31907e-11
6.19094e-11
6.06298e-11
5.93527e-11
5.80774e-11
6.82818e-11
6.70217e-11
6.57548e-11
6.4482e-11
6.32047e-11
6.19252e-11
6.06462e-11
5.93686e-11
5.80933e-11
5.68202e-11
6.69946e-11
6.57366e-11
6.44727e-11
6.3204e-11
6.19316e-11
6.06564e-11
5.93799e-11
5.81041e-11
5.68305e-11
5.55602e-11
6.5708e-11
6.44517e-11
6.31906e-11
6.19247e-11
6.06557e-11
5.93847e-11
5.81117e-11
5.68377e-11
5.55652e-11
5.42976e-11
6.44231e-11
6.31681e-11
6.19094e-11
6.06461e-11
5.93793e-11
5.81108e-11
5.68412e-11
5.55699e-11
5.42981e-11
5.30326e-11
6.31407e-11
6.18868e-11
6.06298e-11
5.93687e-11
5.8104e-11
5.68369e-11
5.55689e-11
5.42996e-11
5.3029e-11
5.1765e-11
6.18615e-11
6.06084e-11
5.93527e-11
5.80933e-11
5.68305e-11
5.5565e-11
5.42976e-11
5.30286e-11
5.17583e-11
5.04942e-11
6.0585e-11
5.93318e-11
5.80775e-11
5.68202e-11
5.55602e-11
5.42976e-11
5.30325e-11
5.17648e-11
5.0494e-11
4.92255e-11
7.20446e-11
7.07748e-11
6.94961e-11
6.82152e-11
6.69344e-11
6.56542e-11
6.43753e-11
6.30983e-11
6.1824e-11
6.05517e-11
7.07741e-11
6.95092e-11
6.82354e-11
6.69571e-11
6.56777e-11
6.43987e-11
6.3121e-11
6.1845e-11
6.05712e-11
5.92988e-11
6.94954e-11
6.82346e-11
6.69667e-11
6.56931e-11
6.44165e-11
6.31396e-11
6.18636e-11
6.0589e-11
5.93162e-11
5.8045e-11
6.82151e-11
6.69565e-11
6.56925e-11
6.44237e-11
6.3151e-11
6.18766e-11
6.06025e-11
5.93295e-11
5.80582e-11
5.67887e-11
6.69344e-11
6.56776e-11
6.4416e-11
6.31505e-11
6.18819e-11
6.06109e-11
5.93388e-11
5.80672e-11
5.67973e-11
5.55301e-11
6.56542e-11
6.43988e-11
6.31395e-11
6.18762e-11
6.06104e-11
5.93428e-11
5.80736e-11
5.68034e-11
5.55343e-11
5.42693e-11
6.43753e-11
6.3121e-11
6.18636e-11
6.06024e-11
5.93383e-11
5.80728e-11
5.68063e-11
5.55382e-11
5.42698e-11
5.30065e-11
6.30984e-11
6.1845e-11
6.0589e-11
5.93296e-11
5.80671e-11
5.68027e-11
5.55374e-11
5.4271e-11
5.30036e-11
5.17417e-11
6.1824e-11
6.05712e-11
5.93163e-11
5.80582e-11
5.67973e-11
5.55341e-11
5.42693e-11
5.30032e-11
5.17361e-11
5.04742e-11
6.05517e-11
5.92988e-11
5.8045e-11
5.67887e-11
5.55301e-11
5.42693e-11
5.30065e-11
5.17415e-11
5.0474e-11
4.92088e-11
7.19744e-11
7.0708e-11
6.94341e-11
6.81584e-11
6.68828e-11
6.56077e-11
6.43335e-11
6.30609e-11
6.17903e-11
6.05214e-11
7.07074e-11
6.94449e-11
6.81751e-11
6.69015e-11
6.56271e-11
6.4353e-11
6.30797e-11
6.18079e-11
6.05378e-11
5.92688e-11
6.94335e-11
6.81745e-11
6.69095e-11
6.56398e-11
6.43676e-11
6.30952e-11
6.18234e-11
6.05527e-11
5.92834e-11
5.80154e-11
6.81583e-11
6.69011e-11
6.56393e-11
6.43736e-11
6.31047e-11
6.18343e-11
6.0564e-11
5.92946e-11
5.80265e-11
5.676e-11
6.68828e-11
6.5627e-11
6.43673e-11
6.31042e-11
6.18386e-11
6.0571e-11
5.93024e-11
5.80341e-11
5.67672e-11
5.55026e-11
6.56077e-11
6.4353e-11
6.30951e-11
6.18339e-11
6.05705e-11
5.93057e-11
5.80395e-11
5.67724e-11
5.55061e-11
5.42434e-11
6.43336e-11
6.30798e-11
6.18234e-11
6.05639e-11
5.9302e-11
5.80388e-11
5.67748e-11
5.55095e-11
5.42438e-11
5.29826e-11
6.3061e-11
6.18079e-11
6.05527e-11
5.92946e-11
5.80341e-11
5.67718e-11
5.55089e-11
5.4245e-11
5.29802e-11
5.17201e-11
6.17904e-11
6.05378e-11
5.92835e-11
5.80265e-11
5.67672e-11
5.5506e-11
5.42435e-11
5.29799e-11
5.17155e-11
5.04558e-11
6.05214e-11
5.92688e-11
5.80154e-11
5.676e-11
5.55026e-11
5.42434e-11
5.29825e-11
5.172e-11
5.04556e-11
4.91934e-11
7.1915e-11
7.06512e-11
6.93813e-11
6.811e-11
6.68386e-11
6.55675e-11
6.42973e-11
6.30282e-11
6.17608e-11
6.04948e-11
7.06507e-11
6.93902e-11
6.81237e-11
6.68541e-11
6.55836e-11
6.43134e-11
6.30439e-11
6.17755e-11
6.05085e-11
5.92424e-11
6.93809e-11
6.81232e-11
6.68606e-11
6.55942e-11
6.43256e-11
6.30568e-11
6.17884e-11
6.05209e-11
5.92547e-11
5.79894e-11
6.81099e-11
6.68537e-11
6.55937e-11
6.43305e-11
6.30646e-11
6.17975e-11
6.05304e-11
5.9264e-11
5.79987e-11
5.67347e-11
6.68386e-11
6.55836e-11
6.43253e-11
6.30643e-11
6.18011e-11
6.05363e-11
5.92706e-11
5.80051e-11
5.67408e-11
5.54784e-11
6.55676e-11
6.43135e-11
6.30567e-11
6.17972e-11
6.05359e-11
5.92734e-11
5.80096e-11
5.67452e-11
5.54814e-11
5.42206e-11
6.42973e-11
6.30439e-11
6.17885e-11
6.05304e-11
5.92703e-11
5.80091e-11
5.67473e-11
5.54843e-11
5.42211e-11
5.29616e-11
6.30283e-11
6.17755e-11
6.0521e-11
5.92641e-11
5.80051e-11
5.67447e-11
5.54838e-11
5.4222e-11
5.29596e-11
5.17012e-11
6.17609e-11
6.05085e-11
5.92547e-11
5.79987e-11
5.67408e-11
5.54813e-11
5.42208e-11
5.29594e-11
5.16975e-11
5.04394e-11
6.04948e-11
5.92424e-11
5.79894e-11
5.67347e-11
5.54784e-11
5.42206e-11
5.29615e-11
5.17011e-11
5.04393e-11
4.91794e-11
7.18645e-11
7.0603e-11
6.93364e-11
6.80686e-11
6.68007e-11
6.55331e-11
6.42661e-11
6.30001e-11
6.17355e-11
6.04719e-11
7.06026e-11
6.93438e-11
6.80799e-11
6.68135e-11
6.55465e-11
6.42795e-11
6.30132e-11
6.17476e-11
6.04833e-11
5.92198e-11
6.9336e-11
6.80795e-11
6.6819e-11
6.55552e-11
6.42896e-11
6.30238e-11
6.17584e-11
6.04937e-11
5.923e-11
5.79672e-11
6.80685e-11
6.68132e-11
6.55548e-11
6.42937e-11
6.30304e-11
6.1766e-11
6.05016e-11
5.92378e-11
5.79749e-11
5.67131e-11
6.68008e-11
6.55464e-11
6.42894e-11
6.303e-11
6.1769e-11
6.05065e-11
5.92433e-11
5.79803e-11
5.67182e-11
5.54578e-11
6.55332e-11
6.42796e-11
6.30238e-11
6.17657e-11
6.05062e-11
5.92456e-11
5.7984e-11
5.67219e-11
5.54603e-11
5.42012e-11
6.42662e-11
6.30132e-11
6.17585e-11
6.05016e-11
5.9243e-11
5.79836e-11
5.67236e-11
5.54627e-11
5.42016e-11
5.29437e-11
6.30002e-11
6.17477e-11
6.04937e-11
5.92378e-11
5.79802e-11
5.67215e-11
5.54623e-11
5.42025e-11
5.29421e-11
5.1685e-11
6.17355e-11
6.04834e-11
5.923e-11
5.79749e-11
5.67182e-11
5.54602e-11
5.42014e-11
5.29419e-11
5.1682e-11
5.04253e-11
6.0472e-11
5.92198e-11
5.79672e-11
5.67132e-11
5.54578e-11
5.42012e-11
5.29436e-11
5.16849e-11
5.04252e-11
4.91671e-11
7.18218e-11
7.05621e-11
6.92983e-11
6.80335e-11
6.67686e-11
6.55038e-11
6.42396e-11
6.29762e-11
6.17139e-11
6.04526e-11
7.05618e-11
6.93043e-11
6.80428e-11
6.67791e-11
6.55148e-11
6.42507e-11
6.2987e-11
6.1724e-11
6.0462e-11
5.92007e-11
6.9298e-11
6.80425e-11
6.67836e-11
6.5522e-11
6.4259e-11
6.29958e-11
6.17329e-11
6.04706e-11
5.92091e-11
5.79484e-11
6.80334e-11
6.67789e-11
6.55217e-11
6.42624e-11
6.30012e-11
6.17391e-11
6.04771e-11
5.92156e-11
5.79547e-11
5.66949e-11
6.67686e-11
6.55148e-11
6.42588e-11
6.30009e-11
6.17416e-11
6.04811e-11
5.92201e-11
5.79592e-11
5.66991e-11
5.54404e-11
6.55039e-11
6.42507e-11
6.29958e-11
6.1739e-11
6.04809e-11
5.9222e-11
5.79623e-11
5.67021e-11
5.54425e-11
5.41849e-11
6.42396e-11
6.2987e-11
6.17329e-11
6.04771e-11
5.92199e-11
5.79619e-11
5.67036e-11
5.54444e-11
5.41852e-11
5.29285e-11
6.29762e-11
6.1724e-11
6.04706e-11
5.92156e-11
5.79592e-11
5.67018e-11
5.54441e-11
5.41859e-11
5.29272e-11
5.16713e-11
6.17139e-11
6.0462e-11
5.92091e-11
5.79548e-11
5.66991e-11
5.54424e-11
5.4185e-11
5.29271e-11
5.16688e-11
5.04132e-11
6.04526e-11
5.92007e-11
5.79484e-11
5.66949e-11
5.54404e-11
5.41849e-11
5.29285e-11
5.16712e-11
5.04131e-11
4.91563e-11
7.17856e-11
7.05276e-11
6.9266e-11
6.80037e-11
6.67413e-11
6.5479e-11
6.42171e-11
6.29559e-11
6.16956e-11
6.04362e-11
7.05273e-11
6.9271e-11
6.80113e-11
6.67499e-11
6.5488e-11
6.42262e-11
6.29648e-11
6.17039e-11
6.04439e-11
5.91845e-11
6.92658e-11
6.80111e-11
6.67536e-11
6.54939e-11
6.42331e-11
6.29721e-11
6.17113e-11
6.0451e-11
5.91914e-11
5.79324e-11
6.80036e-11
6.67497e-11
6.54937e-11
6.42358e-11
6.29765e-11
6.17164e-11
6.04564e-11
5.91967e-11
5.79377e-11
5.66795e-11
6.67413e-11
6.5488e-11
6.42329e-11
6.29763e-11
6.17185e-11
6.04597e-11
5.92004e-11
5.79414e-11
5.66829e-11
5.54256e-11
6.5479e-11