/*--------------------------------*- C++ -*----------------------------------*\
| =========                 |                                                 |
| \\      /  F ield         | foam-extend: Open Source CFD                    |
|  \\    /   O peration     | Version:     3.1                                |
|   \\  /    A nd           | Web:         http://www.extend-project.de       |
|    \\/     M anipulation  |                                                 |
\*---------------------------------------------------------------------------*/
FoamFile
{
    version     2.0;
    format      ascii;
    class       volVectorField;
    location    "3";
    object      cellMotionU;
}
// * * * * * * * * * * * * * * * * * * * * * * * * * * * * * * * * * * * * * //

dimensions      [0 1 -1 0 0 0 0];

internalField   nonuniform List<vector> 
14592
(
(-2.35232e-11 -4.58596e-12 -2.79458e-12)
(-6.79506e-11 -1.33987e-11 -8.28436e-12)
(-1.0781e-10 -2.17455e-11 -1.38417e-11)
(-1.44024e-10 -3.00415e-11 -1.99498e-11)
(-1.77277e-10 -3.86373e-11 -2.70938e-11)
(-2.0798e-10 -4.78333e-11 -3.58046e-11)
(-2.3622e-10 -5.78892e-11 -4.66977e-11)
(-2.61678e-10 -6.90124e-11 -6.05176e-11)
(-2.83499e-10 -8.13521e-11 -7.81649e-11)
(-3.00154e-10 -9.49602e-11 -1.00721e-10)
(-3.09335e-10 -1.0976e-10 -1.29432e-10)
(-3.07998e-10 -1.25541e-10 -1.65616e-10)
(-2.92839e-10 -1.4207e-10 -2.1046e-10)
(-2.61584e-10 -1.5954e-10 -2.64561e-10)
(-2.1607e-10 -1.79371e-10 -3.26476e-10)
(-1.71156e-10 -2.0171e-10 -3.83767e-10)
(-7.00977e-11 -1.35416e-11 -8.25286e-12)
(-2.02502e-10 -3.95614e-11 -2.44632e-11)
(-3.21316e-10 -6.42039e-11 -4.0855e-11)
(-4.29296e-10 -8.86829e-11 -5.88434e-11)
(-5.2849e-10 -1.14024e-10 -7.98411e-11)
(-6.20157e-10 -1.41107e-10 -1.05384e-10)
(-7.0463e-10 -1.70679e-10 -1.3725e-10)
(-7.81076e-10 -2.03342e-10 -1.77577e-10)
(-8.47141e-10 -2.39517e-10 -2.28939e-10)
(-8.98547e-10 -2.79317e-10 -2.94422e-10)
(-9.2874e-10 -3.2245e-10 -3.7752e-10)
(-9.29041e-10 -3.68062e-10 -4.81856e-10)
(-8.90059e-10 -4.14862e-10 -6.10327e-10)
(-8.05981e-10 -4.61852e-10 -7.6319e-10)
(-6.84777e-10 -5.09924e-10 -9.32625e-10)
(-5.72357e-10 -5.56925e-10 -1.07852e-09)
(-1.15637e-10 -2.19333e-11 -1.33796e-11)
(-3.34054e-10 -6.40701e-11 -3.96377e-11)
(-5.30048e-10 -1.03944e-10 -6.61299e-11)
(-7.08206e-10 -1.43505e-10 -9.51041e-11)
(-8.71978e-10 -1.84391e-10 -1.28787e-10)
(-1.02357e-09 -2.27995e-10 -1.69575e-10)
(-1.16375e-09 -2.75478e-10 -2.20231e-10)
(-1.29153e-09 -3.2779e-10 -2.84009e-10)
(-1.40359e-09 -3.85527e-10 -3.64834e-10)
(-1.49369e-09 -4.48821e-10 -4.67296e-10)
(-1.55201e-09 -5.17006e-10 -5.96546e-10)
(-1.56526e-09 -5.88294e-10 -7.5766e-10)
(-1.5188e-09 -6.59485e-10 -9.5413e-10)
(-1.40377e-09 -7.26403e-10 -1.18427e-09)
(-1.23496e-09 -7.8584e-10 -1.43208e-09)
(-1.08665e-09 -8.33189e-10 -1.63372e-09)
(-1.59488e-10 -2.94282e-11 -1.7991e-11)
(-4.60726e-10 -8.59464e-11 -5.32597e-11)
(-7.31026e-10 -1.39372e-10 -8.87244e-11)
(-9.76785e-10 -1.92286e-10 -1.27318e-10)
(-1.20289e-09 -2.46844e-10 -1.71912e-10)
(-1.41261e-09 -3.0485e-10 -2.25563e-10)
(-1.60746e-09 -3.67805e-10 -2.91727e-10)
(-1.78674e-09 -4.36884e-10 -3.74433e-10)
(-1.94699e-09 -5.12827e-10 -4.78434e-10)
(-2.08115e-09 -5.9572e-10 -6.09217e-10)
(-2.1777e-09 -6.84621e-10 -7.72766e-10)
(-2.22037e-09 -7.76968e-10 -9.74791e-10)
(-2.18988e-09 -8.67976e-10 -1.21879e-09)
(-2.07187e-09 -9.50644e-10 -1.50179e-09)
(-1.87926e-09 -1.01812e-09 -1.80383e-09)
(-1.70143e-09 -1.06487e-09 -2.04916e-09)
(-2.0103e-10 -3.57411e-11 -2.19504e-11)
(-5.80734e-10 -1.04358e-10 -6.49234e-11)
(-9.21414e-10 -1.6914e-10 -1.07945e-10)
(-1.23121e-09 -2.33167e-10 -1.54459e-10)
(-1.51645e-09 -2.98992e-10 -2.07781e-10)
(-1.7816e-09 -3.68705e-10 -2.7139e-10)
(-2.02912e-09 -4.44043e-10 -3.49104e-10)
(-2.25917e-09 -5.2629e-10 -4.45325e-10)
(-2.46898e-09 -6.16271e-10 -5.65071e-10)
(-2.65208e-09 -7.14063e-10 -7.14017e-10)
(-2.7973e-09 -8.18686e-10 -8.98152e-10)
(-2.88801e-09 -9.27544e-10 -1.12296e-09)
(-2.90268e-09 -1.03579e-09 -1.39154e-09)
(-2.82016e-09 -1.1362e-09 -1.70066e-09)
(-2.63965e-09 -1.22097e-09 -2.03113e-09)
(-2.43981e-09 -1.28102e-09 -2.3065e-09)
(-2.39681e-10 -4.06448e-11 -2.51751e-11)
(-6.92392e-10 -1.18651e-10 -7.43759e-11)
(-1.09851e-09 -1.92194e-10 -1.23378e-10)
(-1.46779e-09 -2.64712e-10 -1.75934e-10)
(-1.80795e-09 -3.39006e-10 -2.35611e-10)
(-2.12466e-09 -4.17354e-10 -3.06033e-10)
(-2.42154e-09 -5.01549e-10 -3.91113e-10)
(-2.69991e-09 -5.92925e-10 -4.9516e-10)
(-2.95842e-09 -6.92235e-10 -6.22975e-10)
(-3.19243e-09 -7.99559e-10 -7.79714e-10)
(-3.39326e-09 -9.14069e-10 -9.70544e-10)
(-3.54754e-09 -1.03383e-09 -1.19979e-09)
(-3.63714e-09 -1.15575e-09 -1.46923e-09)
(-3.64134e-09 -1.27596e-09 -1.77488e-09)
(-3.54732e-09 -1.39056e-09 -2.09906e-09)
(-3.39345e-09 -1.48522e-09 -2.37273e-09)
(-2.74918e-10 -4.39789e-11 -2.76322e-11)
(-7.94185e-10 -1.28357e-10 -8.15325e-11)
(-1.25988e-09 -2.07798e-10 -1.34893e-10)
(-1.68317e-09 -2.85941e-10 -1.91594e-10)
(-2.07303e-09 -3.65701e-10 -2.55255e-10)
(-2.43624e-09 -4.494e-10 -3.29435e-10)
(-2.77755e-09 -5.38787e-10 -4.17837e-10)
(-3.09958e-09 -6.35056e-10 -5.24376e-10)
(-3.40266e-09 -7.38781e-10 -6.53166e-10)
(-3.68453e-09 -8.49844e-10 -8.08317e-10)
(-3.94021e-09 -9.67393e-10 -9.93485e-10)
(-4.16218e-09 -1.09009e-09 -1.21093e-09)
(-4.34176e-09 -1.21695e-09 -1.45997e-09)
(-4.47261e-09 -1.34939e-09 -1.73417e-09)
(-4.5564e-09 -1.49285e-09 -2.01458e-09)
(-4.59866e-09 -1.633e-09 -2.23968e-09)
(-3.06295e-10 -4.5649e-11 -2.93415e-11)
(-8.84825e-10 -1.33205e-10 -8.64604e-11)
(-1.40345e-09 -2.15544e-10 -1.42626e-10)
(-1.8745e-09 -2.96339e-10 -2.01697e-10)
(-2.30795e-09 -3.78512e-10 -2.67162e-10)
(-2.71151e-09 -4.6429e-10 -3.42347e-10)
(-3.09086e-09 -5.55267e-10 -4.30543e-10)
(-3.44969e-09 -6.52372e-10 -5.35025e-10)
(-3.78971e-09 -7.55804e-10 -6.58952e-10)
(-4.11067e-09 -8.64944e-10 -8.05071e-10)
(-4.41053e-09 -9.78369e-10 -9.75119e-10)
(-4.68646e-09 -1.09415e-09 -1.16883e-09)
(-4.93754e-09 -1.21108e-09 -1.38243e-09)
(-5.17145e-09 -1.33246e-09 -1.60678e-09)
(-5.41626e-09 -1.47382e-09 -1.82513e-09)
(-5.6991e-09 -1.64862e-09 -1.99773e-09)
(-2.44198e-11 -4.88646e-12 -2.70105e-12)
(-7.05798e-11 -1.42896e-11 -8.01113e-12)
(-1.12118e-10 -2.32379e-11 -1.33976e-11)
(-1.50069e-10 -3.21994e-11 -1.93404e-11)
(-1.85218e-10 -4.1579e-11 -2.63255e-11)
(-2.18064e-10 -5.17344e-11 -3.48918e-11)
(-2.48771e-10 -6.29855e-11 -4.56764e-11)
(-2.7707e-10 -7.56128e-11 -5.94576e-11)
(-3.02122e-10 -8.98381e-11 -7.71974e-11)
(-3.22355e-10 -1.0579e-10 -1.00065e-10)
(-3.3533e-10 -1.23453e-10 -1.29422e-10)
(-3.37795e-10 -1.42602e-10 -1.66721e-10)
(-3.26183e-10 -1.62758e-10 -2.13184e-10)
(-2.97992e-10 -1.83063e-10 -2.68962e-10)
(-2.54818e-10 -2.01478e-10 -3.30511e-10)
(-2.10613e-10 -2.12009e-10 -3.81615e-10)
(-7.27617e-11 -1.44267e-11 -7.97681e-12)
(-2.10314e-10 -4.21892e-11 -2.36529e-11)
(-3.34117e-10 -6.8602e-11 -3.95402e-11)
(-4.47261e-10 -9.50407e-11 -5.70396e-11)
(-5.52092e-10 -1.22688e-10 -7.75662e-11)
(-6.50137e-10 -1.52587e-10 -1.02683e-10)
(-7.41957e-10 -1.85666e-10 -1.34227e-10)
(-8.26882e-10 -2.22733e-10 -1.74438e-10)
(-9.02617e-10 -2.64415e-10 -2.26072e-10)
(-9.64755e-10 -3.11053e-10 -2.92455e-10)
(-1.00636e-09 -3.62485e-10 -3.77435e-10)
(-1.01809e-09 -4.17778e-10 -4.84973e-10)
(-9.89677e-10 -4.74837e-10 -6.18015e-10)
(-9.14624e-10 -5.29715e-10 -7.75429e-10)
(-8.00546e-10 -5.74622e-10 -9.43712e-10)
(-6.91597e-10 -5.94333e-10 -1.07427e-09)
(-1.20008e-10 -2.33638e-11 -1.2929e-11)
(-3.46869e-10 -6.8311e-11 -3.83188e-11)
(-5.51044e-10 -1.1104e-10 -6.39898e-11)
(-7.37669e-10 -1.53756e-10 -9.21688e-11)
(-9.10687e-10 -1.98345e-10 -1.25087e-10)
(-1.07275e-09 -2.46457e-10 -1.65187e-10)
(-1.22502e-09 -2.99551e-10 -2.1531e-10)
(-1.3668e-09 -3.58869e-10 -2.78901e-10)
(-1.49491e-09 -4.25362e-10 -3.60135e-10)
(-1.6029e-09 -4.99448e-10 -4.64026e-10)
(-1.68033e-09 -5.80654e-10 -5.96223e-10)
(-1.71265e-09 -6.66936e-10 -7.62312e-10)
(-1.68338e-09 -7.53724e-10 -9.65699e-10)
(-1.58194e-09 -8.32451e-10 -1.20232e-09)
(-1.4224e-09 -8.8862e-10 -1.44765e-09)
(-1.2781e-09 -9.03726e-10 -1.62745e-09)
(-1.65462e-10 -3.13379e-11 -1.7381e-11)
(-4.78243e-10 -9.16073e-11 -5.14746e-11)
(-7.5972e-10 -1.48838e-10 -8.58281e-11)
(-1.01704e-09 -2.05946e-10 -1.23347e-10)
(-1.25578e-09 -2.65409e-10 -1.66911e-10)
(-1.47983e-09 -3.29373e-10 -2.19628e-10)
(-1.69127e-09 -3.99703e-10 -2.85075e-10)
(-1.88986e-09 -4.77976e-10 -3.67504e-10)
(-2.07238e-09 -5.65344e-10 -4.7203e-10)
(-2.23162e-09 -6.62286e-10 -6.04655e-10)
(-2.35522e-09 -7.68039e-10 -7.72051e-10)
(-2.42494e-09 -8.79711e-10 -9.80543e-10)
(-2.41825e-09 -9.90762e-10 -1.23344e-09)
(-2.31652e-09 -1.08897e-09 -1.52444e-09)
(-2.12935e-09 -1.15478e-09 -1.8221e-09)
(-1.94666e-09 -1.16803e-09 -2.03683e-09)
(-2.08473e-10 -3.80467e-11 -2.12e-11)
(-6.02554e-10 -1.11193e-10 -6.27249e-11)
(-9.57144e-10 -1.80556e-10 -1.04383e-10)
(-1.28132e-09 -2.49617e-10 -1.49577e-10)
(-1.58227e-09 -3.21304e-10 -2.01639e-10)
(-1.86526e-09 -3.98121e-10 -2.64094e-10)
(-2.13351e-09 -4.82198e-10 -3.40928e-10)
(-2.38781e-09 -5.75308e-10 -4.36781e-10)
(-2.62586e-09 -6.78729e-10 -5.57118e-10)
(-2.84119e-09 -7.92998e-10 -7.08237e-10)
(-3.02182e-09 -9.17411e-10 -8.96956e-10)
(-3.14876e-09 -1.04912e-09 -1.12958e-09)
(-3.19569e-09 -1.18166e-09 -1.40914e-09)
(-3.13364e-09 -1.3026e-09 -1.72863e-09)
(-2.95273e-09 -1.39086e-09 -2.05482e-09)
(-2.73262e-09 -1.42075e-09 -2.29207e-09)
(-2.48429e-10 -4.32507e-11 -2.43042e-11)
(-7.18035e-10 -1.26367e-10 -7.18298e-11)
(-1.14048e-09 -2.05072e-10 -1.19252e-10)
(-1.52661e-09 -2.83237e-10 -1.70289e-10)
(-1.88517e-09 -3.64089e-10 -2.28507e-10)
(-2.22279e-09 -4.50326e-10 -2.97606e-10)
(-2.544e-09 -5.44203e-10 -3.81647e-10)
(-2.85103e-09 -6.47521e-10 -4.85248e-10)
(-3.14322e-09 -7.61561e-10 -6.13672e-10)
(-3.41631e-09 -8.86899e-10 -7.72799e-10)
(-3.6612e-09 -1.02311e-09 -9.68774e-10)
(-3.86254e-09 -1.16832e-09 -1.20702e-09)
(-3.9972e-09 -1.31844e-09 -1.48978e-09)
(-4.03429e-09 -1.46548e-09 -1.81001e-09)
(-3.94468e-09 -1.59286e-09 -2.13586e-09)
(-3.76015e-09 -1.66666e-09 -2.37422e-09)
(-2.84787e-10 -4.67783e-11 -2.66656e-11)
(-8.23104e-10 -1.36643e-10 -7.87075e-11)
(-1.30717e-09 -2.21613e-10 -1.30318e-10)
(-1.7494e-09 -3.05778e-10 -1.85343e-10)
(-2.15988e-09 -3.92505e-10 -2.47392e-10)
(-2.54651e-09 -4.84534e-10 -3.20107e-10)
(-2.91511e-09 -5.84074e-10 -4.07353e-10)
(-3.26939e-09 -6.92794e-10 -5.13355e-10)
(-3.61068e-09 -8.11771e-10 -6.42722e-10)
(-3.93755e-09 -9.41395e-10 -8.0033e-10)
(-4.24534e-09 -1.0813e-09 -9.909e-10)
(-4.52581e-09 -1.23047e-09 -1.2181e-09)
(-4.76719e-09 -1.38764e-09 -1.48248e-09)
(-4.95511e-09 -1.55163e-09 -1.77665e-09)
(-5.07332e-09 -1.71662e-09 -2.07184e-09)
(-5.10619e-09 -1.84506e-09 -2.284e-09)
(-3.17088e-10 -4.85319e-11 -2.83041e-11)
(-9.16435e-10 -1.41742e-10 -8.34243e-11)
(-1.45509e-09 -2.29755e-10 -1.37719e-10)
(-1.94673e-09 -3.1672e-10 -1.94992e-10)
(-2.40253e-09 -4.05976e-10 -2.58742e-10)
(-2.83138e-09 -5.00186e-10 -3.32361e-10)
(-3.24017e-09 -6.01359e-10 -4.19308e-10)
(-3.63379e-09 -7.10862e-10 -5.23163e-10)
(-4.01521e-09 -8.29334e-10 -6.47573e-10)
(-4.38536e-09 -9.56596e-10 -7.96022e-10)
(-4.74323e-09 -1.0916e-09 -9.71332e-10)
(-5.08658e-09 -1.23266e-09 -1.1747e-09)
(-5.41404e-09 -1.37839e-09 -1.40407e-09)
(-5.73028e-09 -1.53004e-09 -1.65143e-09)
(-6.05232e-09 -1.69384e-09 -1.89682e-09)
(-6.37983e-09 -1.85898e-09 -2.08694e-09)
(-2.52784e-11 -5.17231e-12 -2.50308e-12)
(-7.31056e-11 -1.51391e-11 -7.42676e-12)
(-1.1628e-10 -2.46637e-11 -1.24322e-11)
(-1.55957e-10 -3.42691e-11 -1.79733e-11)
(-1.93033e-10 -4.44141e-11 -2.45144e-11)
(-2.28122e-10 -5.55153e-11 -3.25758e-11)
(-2.61501e-10 -6.79615e-11 -4.27773e-11)
(-2.9302e-10 -8.21129e-11 -5.58832e-11)
(-3.2196e-10 -9.82888e-11 -7.28407e-11)
(-3.46863e-10 -1.16733e-10 -9.47975e-11)
(-3.65409e-10 -1.37563e-10 -1.23076e-10)
(-3.74471e-10 -1.60723e-10 -1.59034e-10)
(-3.70626e-10 -1.85972e-10 -2.03699e-10)
(-3.51422e-10 -2.12915e-10 -2.56926e-10)
(-3.17761e-10 -2.40681e-10 -3.15217e-10)
(-2.80344e-10 -2.64731e-10 -3.64538e-10)
(-7.5312e-11 -1.52696e-11 -7.39107e-12)
(-2.17817e-10 -4.46916e-11 -2.19264e-11)
(-3.46483e-10 -7.28034e-11 -3.6688e-11)
(-4.64753e-10 -1.01137e-10 -5.30029e-11)
(-5.75311e-10 -1.31035e-10 -7.22231e-11)
(-6.8002e-10 -1.63712e-10 -9.58568e-11)
(-7.79785e-10 -2.00294e-10 -1.25694e-10)
(-8.74292e-10 -2.41819e-10 -1.63935e-10)
(-9.616e-10 -2.89192e-10 -2.13293e-10)
(-1.03764e-09 -3.43057e-10 -2.77046e-10)
(-1.0958e-09 -4.03598e-10 -3.58913e-10)
(-1.12698e-09 -4.70214e-10 -4.62571e-10)
(-1.12115e-09 -5.41126e-10 -5.90314e-10)
(-1.07165e-09 -6.12786e-10 -7.39923e-10)
(-9.83974e-10 -6.78575e-10 -8.97386e-10)
(-8.93671e-10 -7.2447e-10 -1.01914e-09)
(-1.24189e-10 -2.47233e-11 -1.19786e-11)
(-3.59169e-10 -7.23505e-11 -3.55163e-11)
(-5.71312e-10 -1.17817e-10 -5.93645e-11)
(-7.66333e-10 -1.63581e-10 -8.56308e-11)
(-9.48731e-10 -2.11782e-10 -1.16448e-10)
(-1.12171e-09 -2.64342e-10 -1.54171e-10)
(-1.28701e-09 -3.23022e-10 -2.01578e-10)
(-1.44452e-09 -3.89432e-10 -2.62047e-10)
(-1.59165e-09 -4.64915e-10 -3.39718e-10)
(-1.7225e-09 -5.50341e-10 -4.39516e-10)
(-1.82702e-09 -6.4562e-10 -5.66924e-10)
(-1.89081e-09 -7.48929e-10 -7.27044e-10)
(-1.89711e-09 -8.55445e-10 -9.22151e-10)
(-1.83416e-09 -9.55658e-10 -1.1461e-09)
(-1.71218e-09 -1.03399e-09 -1.37278e-09)
(-1.59331e-09 -1.07177e-09 -1.53477e-09)
(-1.71175e-10 -3.31536e-11 -1.60996e-11)
(-4.95043e-10 -9.6998e-11 -4.76987e-11)
(-7.87392e-10 -1.57874e-10 -7.96042e-11)
(-1.05616e-09 -2.1903e-10 -1.14565e-10)
(-1.30768e-09 -2.83276e-10 -1.55333e-10)
(-1.54663e-09 -3.53106e-10 -2.04912e-10)
(-1.77585e-09 -4.3078e-10 -2.66794e-10)
(-1.99595e-09 -5.18319e-10 -3.45176e-10)
(-2.20457e-09 -6.17378e-10 -4.45128e-10)
(-2.39522e-09 -7.28925e-10 -5.72605e-10)
(-2.55598e-09 -8.52582e-10 -7.34086e-10)
(-2.66844e-09 -9.8539e-10 -9.35324e-10)
(-2.70861e-09 -1.11978e-09 -1.17811e-09)
(-2.6543e-09 -1.24089e-09 -1.45309e-09)
(-2.5079e-09 -1.32557e-09 -1.72581e-09)
(-2.34695e-09 -1.35357e-09 -1.91468e-09)
(-2.15582e-10 -4.02384e-11 -1.96312e-11)
(-6.23459e-10 -1.17694e-10 -5.8107e-11)
(-9.91559e-10 -1.91445e-10 -9.67814e-11)
(-1.32995e-09 -2.65363e-10 -1.38877e-10)
(-1.64675e-09 -3.42765e-10 -1.87574e-10)
(-1.94821e-09 -4.26555e-10 -2.46286e-10)
(-2.23854e-09 -5.19327e-10 -3.18907e-10)
(-2.51964e-09 -6.23344e-10 -4.10044e-10)
(-2.7903e-09 -7.40446e-10 -5.25153e-10)
(-3.04509e-09 -8.71707e-10 -6.70532e-10)
(-3.27264e-09 -1.01677e-09 -8.52906e-10)
(-3.45352e-09 -1.17259e-09 -1.07808e-09)
(-3.55872e-09 -1.33112e-09 -1.34748e-09)
(-3.55232e-09 -1.47592e-09 -1.65054e-09)
(-3.41133e-09 -1.57975e-09 -1.94945e-09)
(-3.20033e-09 -1.61567e-09 -2.15567e-09)
(-2.56776e-10 -4.5724e-11 -2.24987e-11)
(-7.42569e-10 -1.33706e-10 -6.6518e-11)
(-1.18084e-09 -2.17347e-10 -1.10526e-10)
(-1.5836e-09 -3.00959e-10 -1.58037e-10)
(-1.96067e-09 -3.88187e-10 -2.12462e-10)
(-2.31983e-09 -4.82171e-10 -2.77379e-10)
(-2.66683e-09 -5.8564e-10 -3.56781e-10)
(-3.0052e-09 -7.00933e-10 -4.55267e-10)
(-3.33575e-09 -8.29901e-10 -5.78151e-10)
(-3.6556e-09 -9.73687e-10 -7.31417e-10)
(-3.95674e-09 -1.13226e-09 -9.21285e-10)
(-4.22377e-09 -1.3036e-09 -1.15298e-09)
(-4.43065e-09 -1.48206e-09 -1.42762e-09)
(-4.53743e-09 -1.65523e-09 -1.73512e-09)
(-4.49552e-09 -1.79849e-09 -2.03895e-09)
(-4.3134e-09 -1.87348e-09 -2.25051e-09)
(-2.94191e-10 -4.94346e-11 -2.46754e-11)
(-8.50736e-10 -1.44519e-10 -7.28581e-11)
(-1.35259e-09 -2.34771e-10 -1.20729e-10)
(-1.81344e-09 -3.24744e-10 -1.71921e-10)
(-2.24462e-09 -4.18228e-10 -2.29888e-10)
(-2.65528e-09 -5.18423e-10 -2.98155e-10)
(-3.05261e-09 -6.28011e-10 -3.80536e-10)
(-3.44186e-09 -7.49182e-10 -4.81275e-10)
(-3.82608e-09 -8.83576e-10 -6.05094e-10)
(-4.20573e-09 -1.03214e-09 -7.5708e-10)
(-4.57794e-09 -1.19494e-09 -9.42252e-10)
(-4.93555e-09 -1.37096e-09 -1.16449e-09)
(-5.26572e-09 -1.55781e-09 -1.42415e-09)
(-5.54716e-09 -1.75056e-09 -1.71251e-09)
(-5.74431e-09 -1.93547e-09 -1.99872e-09)
(-5.80847e-09 -2.06749e-09 -2.20202e-09)
(-3.27357e-10 -5.12684e-11 -2.61804e-11)
(-9.46599e-10 -1.49848e-10 -7.71919e-11)
(-1.50462e-09 -2.43286e-10 -1.27523e-10)
(-2.01646e-09 -3.3618e-10 -1.80773e-10)
(-2.4946e-09 -4.32314e-10 -2.4028e-10)
(-2.9493e-09 -5.3477e-10 -3.09338e-10)
(-3.38889e-09 -6.46015e-10 -3.91376e-10)
(-3.81995e-09 -7.67894e-10 -4.90026e-10)
(-4.24737e-09 -9.01547e-10 -6.09101e-10)
(-4.6743e-09 -1.04727e-09 -7.5239e-10)
(-5.10215e-09 -1.20437e-09 -9.23162e-10)
(-5.53107e-09 -1.37113e-09 -1.12317e-09)
(-5.96122e-09 -1.5452e-09 -1.35088e-09)
(-6.39584e-09 -1.72485e-09 -1.59846e-09)
(-6.84208e-09 -1.91029e-09 -1.84624e-09)
(-7.26872e-09 -2.08505e-09 -2.04325e-09)
(-2.60667e-11 -5.43246e-12 -2.20567e-12)
(-7.54302e-11 -1.59127e-11 -6.54709e-12)
(-1.20129e-10 -2.59658e-11 -1.09687e-11)
(-1.61439e-10 -3.61655e-11 -1.58778e-11)
(-2.00376e-10 -4.70231e-11 -2.16937e-11)
(-2.37682e-10 -5.90146e-11 -2.88887e-11)
(-2.73779e-10 -7.25983e-11 -3.80289e-11)
(-3.08689e-10 -8.82232e-11 -4.98136e-11)
(-3.41899e-10 -1.06322e-10 -6.51059e-11)
(-3.72208e-10 -1.2729e-10 -8.4943e-11)
(-3.97627e-10 -1.5147e-10 -1.10494e-10)
(-4.15466e-10 -1.79164e-10 -1.42913e-10)
(-4.22881e-10 -2.10797e-10 -1.83007e-10)
(-4.18052e-10 -2.47286e-10 -2.30571e-10)
(-4.01955e-10 -2.89901e-10 -2.82785e-10)
(-3.81732e-10 -3.33391e-10 -3.2802e-10)
(-7.76523e-11 -1.60357e-11 -6.5126e-12)
(-2.24718e-10 -4.69718e-11 -1.93277e-11)
(-3.57909e-10 -7.66393e-11 -3.23664e-11)
(-4.81026e-10 -1.06722e-10 -4.68193e-11)
(-5.97108e-10 -1.38715e-10 -6.39069e-11)
(-7.08398e-10 -1.74003e-10 -8.4999e-11)
(-8.16233e-10 -2.13917e-10 -1.11732e-10)
(-9.20803e-10 -2.59746e-10 -1.46118e-10)
(-1.02078e-09 -3.12711e-10 -1.90636e-10)
(-1.11284e-09 -3.73873e-10 -2.48243e-10)
(-1.19128e-09 -4.4397e-10 -3.22221e-10)
(-1.24818e-09 -5.23227e-10 -4.15652e-10)
(-1.2749e-09 -6.11216e-10 -5.30154e-10)
(-1.26604e-09 -7.06755e-10 -6.63226e-10)
(-1.22625e-09 -8.06356e-10 -8.02532e-10)
(-1.17981e-09 -8.91579e-10 -9.11095e-10)
(-1.28023e-10 -2.59607e-11 -1.05534e-11)
(-3.70474e-10 -7.60285e-11 -3.13024e-11)
(-5.90025e-10 -1.24002e-10 -5.23643e-11)
(-7.92976e-10 -1.72578e-10 -7.56291e-11)
(-9.84406e-10 -2.24139e-10 -1.03022e-10)
(-1.16814e-09 -2.80874e-10 -1.36685e-10)
(-1.34663e-09 -3.44866e-10 -1.79158e-10)
(-1.52059e-09 -4.18097e-10 -2.33536e-10)
(-1.68841e-09 -5.02389e-10 -3.03604e-10)
(-1.84537e-09 -5.99171e-10 -3.93814e-10)
(-1.98275e-09 -7.09034e-10 -5.08989e-10)
(-2.08769e-09 -8.30949e-10 -6.53321e-10)
(-2.14496e-09 -9.61071e-10 -8.27997e-10)
(-2.14366e-09 -1.09114e-09 -1.02629e-09)
(-2.09156e-09 -1.20638e-09 -1.22431e-09)
(-2.03421e-09 -1.28102e-09 -1.36454e-09)
(-1.76408e-10 -3.48042e-11 -1.41812e-11)
(-5.10471e-10 -1.01904e-10 -4.20313e-11)
(-8.12919e-10 -1.66116e-10 -7.02023e-11)
(-1.09249e-09 -2.31006e-10 -1.0116e-10)
(-1.3563e-09 -2.99697e-10 -1.37389e-10)
(-1.60987e-09 -3.75029e-10 -1.81623e-10)
(-1.85702e-09 -4.59665e-10 -2.37057e-10)
(-2.0995e-09 -5.561e-10 -3.07551e-10)
(-2.33626e-09 -6.66548e-10 -3.97751e-10)
(-2.56236e-09 -7.9261e-10 -5.13058e-10)
(-2.76755e-09 -9.34533e-10 -6.59177e-10)
(-2.93498e-09 -1.08985e-09 -8.40767e-10)
(-3.04167e-09 -1.25104e-09 -1.05824e-09)
(-3.06483e-09 -1.40257e-09 -1.30132e-09)
(-3.00208e-09 -1.51949e-09 -1.53798e-09)
(-2.91235e-09 -1.5751e-09 -1.69891e-09)
(-2.2209e-10 -4.22292e-11 -1.72881e-11)
(-6.42638e-10 -1.23611e-10 -5.119e-11)
(-1.02327e-09 -2.01374e-10 -8.53275e-11)
(-1.37504e-09 -2.79767e-10 -1.2259e-10)
(-1.70706e-09 -3.62473e-10 -1.6585e-10)
(-2.02659e-09 -4.52802e-10 -2.18217e-10)
(-2.33909e-09 -5.53794e-10 -2.83263e-10)
(-2.64785e-09 -6.68256e-10 -3.65237e-10)
(-2.95335e-09 -7.98627e-10 -4.69165e-10)
(-3.25207e-09 -9.4663e-10 -6.00802e-10)
(-3.53463e-09 -1.11248e-09 -7.66118e-10)
(-3.78324e-09 -1.2933e-09 -9.69828e-10)
(-3.96914e-09 -1.48033e-09 -1.21194e-09)
(-4.05359e-09 -1.65478e-09 -1.48075e-09)
(-4.00478e-09 -1.78507e-09 -1.74067e-09)
(-3.86607e-09 -1.8382e-09 -1.91612e-09)
(-2.64408e-10 -4.79717e-11 -1.98076e-11)
(-7.65056e-10 -1.40378e-10 -5.85819e-11)
(-1.218e-09 -2.28535e-10 -9.74132e-11)
(-1.63637e-09 -3.17158e-10 -1.39452e-10)
(-2.03115e-09 -4.10301e-10 -1.8778e-10)
(-2.41134e-09 -5.11532e-10 -2.45658e-10)
(-2.78408e-09 -6.24064e-10 -3.16763e-10)
(-3.1546e-09 -7.50788e-10 -4.05353e-10)
(-3.52569e-09 -8.94181e-10 -5.16368e-10)
(-3.89682e-09 -1.05604e-09 -6.55334e-10)
(-4.26248e-09 -1.23688e-09 -8.27873e-10)
(-4.60939e-09 -1.43482e-09 -1.03836e-09)
(-4.91186e-09 -1.64332e-09 -1.28678e-09)
(-5.12581e-09 -1.84709e-09 -1.56221e-09)
(-5.18934e-09 -2.01584e-09 -1.83034e-09)
(-5.08266e-09 -2.10386e-09 -2.01446e-09)
(-3.02781e-10 -5.18463e-11 -2.17168e-11)
(-8.76033e-10 -1.51676e-10 -6.41439e-11)
(-1.39435e-09 -2.46757e-10 -1.06366e-10)
(-1.87267e-09 -3.42065e-10 -1.51639e-10)
(-2.32358e-09 -4.41817e-10 -2.03085e-10)
(-2.7576e-09 -5.4964e-10 -2.63921e-10)
(-3.18347e-09 -6.68701e-10 -3.3767e-10)
(-3.60832e-09 -8.01736e-10 -4.28288e-10)
(-4.0375e-09 -9.50988e-10 -5.40208e-10)
(-4.47419e-09 -1.11804e-09 -6.78212e-10)
(-4.91871e-09 -1.30353e-09 -8.46958e-10)
(-5.36705e-09 -1.5067e-09 -1.04986e-09)
(-5.80838e-09 -1.72471e-09 -1.28672e-09)
(-6.2194e-09 -1.95084e-09 -1.54871e-09)
(-6.55181e-09 -2.16739e-09 -1.80765e-09)
(-6.71921e-09 -2.32158e-09 -1.99301e-09)
(-3.36728e-10 -5.37498e-11 -2.30333e-11)
(-9.7418e-10 -1.57212e-10 -6.79344e-11)
(-1.55009e-09 -2.556e-10 -1.12305e-10)
(-2.08083e-09 -3.53948e-10 -1.59372e-10)
(-2.58023e-09 -4.56442e-10 -2.12151e-10)
(-3.05995e-09 -5.66592e-10 -2.73657e-10)
(-3.52999e-09 -6.87321e-10 -3.47066e-10)
(-3.99892e-09 -8.20972e-10 -4.3579e-10)
(-4.47406e-09 -9.69231e-10 -5.4346e-10)
(-4.96158e-09 -1.13295e-09 -6.73724e-10)
(-5.46657e-09 -1.31193e-09 -8.2974e-10)
(-5.99334e-09 -1.50475e-09 -1.01318e-09)
(-6.54623e-09 -1.7089e-09 -1.22244e-09)
(-7.13109e-09 -1.92217e-09 -1.44989e-09)
(-7.75088e-09 -2.14494e-09 -1.6774e-09)
(-8.34113e-09 -2.36011e-09 -1.85926e-09)
(-2.67503e-11 -5.65615e-12 -1.81873e-12)
(-7.74497e-11 -1.65789e-11 -5.40041e-12)
(-1.23485e-10 -2.70889e-11 -9.05367e-12)
(-1.66247e-10 -3.78059e-11 -1.31194e-11)
(-2.06866e-10 -4.92886e-11 -1.79494e-11)
(-2.46214e-10 -6.20674e-11 -2.39419e-11)
(-2.84872e-10 -7.66686e-11 -3.15753e-11)
(-3.23057e-10 -9.36289e-11 -4.14386e-11)
(-3.60513e-10 -1.13501e-10 -5.42568e-11)
(-3.96378e-10 -1.36853e-10 -7.08886e-11)
(-4.29119e-10 -1.64293e-10 -9.22824e-11)
(-4.5666e-10 -1.96571e-10 -1.19345e-10)
(-4.76941e-10 -2.34907e-10 -1.52674e-10)
(-4.88982e-10 -2.816e-10 -1.92075e-10)
(-4.9383e-10 -3.39691e-10 -2.35396e-10)
(-4.94085e-10 -4.02041e-10 -2.73353e-10)
(-7.96805e-11 -1.6695e-11 -5.36991e-12)
(-2.30711e-10 -4.89335e-11 -1.59409e-11)
(-3.6787e-10 -7.99466e-11 -2.67137e-11)
(-4.95293e-10 -1.11551e-10 -3.86827e-11)
(-6.16362e-10 -1.4538e-10 -5.28727e-11)
(-7.33709e-10 -1.82978e-10 -7.04395e-11)
(-8.49131e-10 -2.25869e-10 -9.27654e-11)
(-9.63405e-10 -2.75594e-10 -1.21548e-10)
(-1.07595e-09 -3.33708e-10 -1.58868e-10)
(-1.18443e-09 -4.01736e-10 -2.07171e-10)
(-1.28442e-09 -4.81096e-10 -2.69119e-10)
(-1.36967e-09 -5.73062e-10 -3.47091e-10)
(-1.43351e-09 -6.78901e-10 -4.42151e-10)
(-1.47229e-09 -7.99964e-10 -5.5198e-10)
(-1.48941e-09 -9.34866e-10 -6.66538e-10)
(-1.49452e-09 -1.05773e-09 -7.56023e-10)
(-1.31344e-10 -2.70235e-11 -8.70025e-12)
(-3.80285e-10 -7.91925e-11 -2.58148e-11)
(-6.06326e-10 -1.29332e-10 -4.32138e-11)
(-8.16314e-10 -1.80353e-10 -6.24776e-11)
(-1.01589e-09 -2.34857e-10 -8.52228e-11)
(-1.20951e-09 -2.95283e-10 -1.13259e-10)
(-1.40037e-09 -3.64011e-10 -1.48727e-10)
(-1.59014e-09 -4.43409e-10 -1.94251e-10)
(-1.77841e-09 -5.35782e-10 -2.53e-10)
(-1.96198e-09 -6.43199e-10 -3.28671e-10)
(-2.1341e-09 -7.67091e-10 -4.25149e-10)
(-2.2842e-09 -9.07542e-10 -5.45607e-10)
(-2.39955e-09 -1.06215e-09 -6.90478e-10)
(-2.47079e-09 -1.22414e-09 -8.53555e-10)
(-2.50226e-09 -1.37826e-09 -1.01494e-09)
(-2.51701e-09 -1.48784e-09 -1.12836e-09)
(-1.80938e-10 -3.62224e-11 -1.16895e-11)
(-5.23851e-10 -1.06123e-10 -3.46573e-11)
(-8.35139e-10 -1.73218e-10 -5.79248e-11)
(-1.12428e-09 -2.41352e-10 -8.35534e-11)
(-1.39915e-09 -3.13933e-10 -1.13631e-10)
(-1.66613e-09 -3.94123e-10 -1.50464e-10)
(-1.93006e-09 -4.84962e-10 -1.96759e-10)
(-2.19395e-09 -5.89415e-10 -2.5578e-10)
(-2.45836e-09 -7.10275e-10 -3.31443e-10)
(-2.72036e-09 -8.49845e-10 -4.28225e-10)
(-2.97212e-09 -1.00919e-09 -5.5073e-10)
(-3.19946e-09 -1.18666e-09 -7.02417e-10)
(-3.38177e-09 -1.37537e-09 -8.82861e-10)
(-3.49681e-09 -1.55952e-09 -1.08257e-09)
(-3.53651e-09 -1.71133e-09 -1.27466e-09)
(-3.53311e-09 -1.79393e-09 -1.40367e-09)
(-2.2772e-10 -4.39398e-11 -1.42477e-11)
(-6.59259e-10 -1.28696e-10 -4.22e-11)
(-1.05086e-09 -2.09925e-10 -7.0389e-11)
(-1.41447e-09 -2.92203e-10 -1.01229e-10)
(-1.76015e-09 -3.7955e-10 -1.37137e-10)
(-2.09621e-09 -4.7564e-10 -1.80733e-10)
(-2.42937e-09 -5.83951e-10 -2.35055e-10)
(-2.76448e-09 -7.07801e-10 -3.03701e-10)
(-3.10398e-09 -8.50259e-10 -3.90924e-10)
(-3.4468e-09 -1.01376e-09 -5.01524e-10)
(-3.78639e-09 -1.19926e-09 -6.40333e-10)
(-4.10791e-09 -1.40444e-09 -8.10854e-10)
(-4.3847e-09 -1.62043e-09 -1.01226e-09)
(-4.57703e-09 -1.82681e-09 -1.2337e-09)
(-4.64404e-09 -1.9873e-09 -1.44518e-09)
(-4.59842e-09 -2.05955e-09 -1.58601e-09)
(-2.71005e-10 -4.99007e-11 -1.63199e-11)
(-7.84525e-10 -1.46112e-10 -4.82825e-11)
(-1.25028e-09 -2.38164e-10 -8.03373e-11)
(-1.68246e-09 -3.31139e-10 -1.15121e-10)
(-2.09312e-09 -4.2945e-10 -1.5522e-10)
(-2.49246e-09 -5.37063e-10 -2.03397e-10)
(-2.88911e-09 -6.57645e-10 -2.62771e-10)
(-3.29007e-09 -7.94626e-10 -3.36976e-10)
(-3.70044e-09 -9.51121e-10 -4.30206e-10)
(-4.12254e-09 -1.12964e-09 -5.47108e-10)
(-4.55422e-09 -1.33143e-09 -6.92286e-10)
(-4.98564e-09 -1.55511e-09 -8.69037e-10)
(-5.39351e-09 -1.79398e-09 -1.07665e-09)
(-5.73196e-09 -2.03095e-09 -1.30509e-09)
(-5.92647e-09 -2.2306e-09 -1.52543e-09)
(-5.91947e-09 -2.33696e-09 -1.67551e-09)
(-3.10199e-10 -5.39159e-11 -1.78885e-11)
(-8.97915e-10 -1.57825e-10 -5.2852e-11)
(-1.43059e-09 -2.57069e-10 -8.76943e-11)
(-1.92432e-09 -3.57007e-10 -1.2514e-10)
(-2.39289e-09 -4.62227e-10 -1.67808e-10)
(-2.84813e-09 -5.76761e-10 -2.18432e-10)
(-3.30039e-09 -7.04226e-10 -2.80007e-10)
(-3.75878e-09 -8.47889e-10 -3.55921e-10)
(-4.23118e-09 -1.01061e-09 -4.49971e-10)
(-4.724e-09 -1.19467e-09 -5.66218e-10)
(-5.24145e-09 -1.40145e-09 -7.08529e-10)
(-5.78389e-09 -1.63088e-09 -8.79544e-10)
(-6.3442e-09 -1.88052e-09 -1.07859e-09)
(-6.89916e-09 -2.14338e-09 -1.29767e-09)
(-7.38823e-09 -2.39931e-09 -1.51322e-09)
(-7.67877e-09 -2.58501e-09 -1.66773e-09)
(-3.44812e-10 -5.58798e-11 -1.8968e-11)
(-9.98013e-10 -1.63533e-10 -5.59575e-11)
(-1.58951e-09 -2.66191e-10 -9.25606e-11)
(-2.1369e-09 -3.69261e-10 -1.3147e-10)
(-2.65526e-09 -4.77305e-10 -1.75227e-10)
(-3.15765e-09 -5.94216e-10 -2.26387e-10)
(-3.65573e-09 -7.23345e-10 -2.87663e-10)
(-4.16013e-09 -8.67528e-10 -3.61994e-10)
(-4.68083e-09 -1.02901e-09 -4.52515e-10)
(-5.2274e-09 -1.20927e-09 -5.62367e-10)
(-5.80918e-09 -1.40881e-09 -6.94217e-10)
(-6.43553e-09 -1.6269e-09 -8.49317e-10)
(-7.11613e-09 -1.86191e-09 -1.02591e-09)
(-7.86046e-09 -2.11301e-09 -1.21694e-09)
(-8.66676e-09 -2.38307e-09 -1.40665e-09)
(-9.43001e-09 -2.65196e-09 -1.5572e-09)
(-2.72965e-11 -5.83363e-12 -1.3566e-12)
(-7.90662e-11 -1.71075e-11 -4.02892e-12)
(-1.2618e-10 -2.79818e-11 -6.75826e-12)
(-1.70124e-10 -3.91131e-11 -9.80091e-12)
(-2.1213e-10 -5.10996e-11 -1.34227e-11)
(-2.53189e-10 -6.4518e-11 -1.79255e-11)
(-2.94025e-10 -7.99528e-11 -2.36711e-11)
(-3.35047e-10 -9.80192e-11 -3.1105e-11)
(-3.76252e-10 -1.1938e-10 -4.07712e-11)
(-4.17124e-10 -1.44767e-10 -5.33071e-11)
(-4.56589e-10 -1.75042e-10 -6.94061e-11)
(-4.93178e-10 -2.11373e-10 -8.97114e-11)
(-5.25555e-10 -2.55687e-10 -1.14626e-10)
(-5.53373e-10 -3.11402e-10 -1.43986e-10)
(-5.77384e-10 -3.82798e-10 -1.76251e-10)
(-5.95633e-10 -4.60842e-10 -2.04638e-10)
(-8.13012e-11 -1.72174e-11 -4.00483e-12)
(-2.35506e-10 -5.04906e-11 -1.18925e-11)
(-3.75863e-10 -8.25755e-11 -1.99398e-11)
(-5.06793e-10 -1.15398e-10 -2.88965e-11)
(-6.31976e-10 -1.50707e-10 -3.95369e-11)
(-7.54388e-10 -1.9018e-10 -5.27362e-11)
(-8.76262e-10 -2.35509e-10 -6.95402e-11)
(-9.9893e-10 -2.88458e-10 -9.1235e-11)
(-1.12256e-09 -3.50889e-10 -1.19379e-10)
(-1.2458e-09 -4.24768e-10 -1.55794e-10)
(-1.36555e-09 -5.12164e-10 -2.02411e-10)
(-1.47721e-09 -6.15353e-10 -2.60903e-10)
(-1.57594e-09 -7.37109e-10 -3.319e-10)
(-1.65926e-09 -8.8076e-10 -4.13532e-10)
(-1.7283e-09 -1.04596e-09 -4.98347e-10)
(-1.77813e-09 -1.19967e-09 -5.64473e-10)
(-1.33997e-10 -2.78665e-11 -6.48856e-12)
(-3.88131e-10 -8.17029e-11 -1.92569e-11)
(-6.19401e-10 -1.33568e-10 -3.2253e-11)
(-8.35115e-10 -1.86546e-10 -4.66674e-11)
(-1.0414e-09 -2.4342e-10 -6.37218e-11)
(-1.24328e-09 -3.06839e-10 -8.47843e-11)
(-1.44464e-09 -3.79444e-10 -1.11484e-10)
(-1.64806e-09 -4.63935e-10 -1.45798e-10)
(-1.8543e-09 -5.63069e-10 -1.90116e-10)
(-2.06175e-09 -6.79521e-10 -2.47175e-10)
(-2.26562e-09 -8.15545e-10 -3.198e-10)
(-2.45771e-09 -9.72321e-10 -4.10166e-10)
(-2.62762e-09 -1.14877e-09 -5.18293e-10)
(-2.76677e-09 -1.33915e-09 -6.39214e-10)
(-2.87445e-09 -1.52677e-09 -7.57992e-10)
(-2.95113e-09 -1.66454e-09 -8.40753e-10)
(-1.84554e-10 -3.73466e-11 -8.71663e-12)
(-5.34545e-10 -1.0947e-10 -2.58496e-11)
(-8.52949e-10 -1.7886e-10 -4.32272e-11)
(-1.14987e-09 -2.49589e-10 -6.24015e-11)
(-1.43384e-09 -3.25302e-10 -8.49506e-11)
(-1.71201e-09 -4.09428e-10 -1.12622e-10)
(-1.99014e-09 -5.05335e-10 -1.4747e-10)
(-2.27246e-09 -6.16401e-10 -1.91969e-10)
(-2.5611e-09 -7.45951e-10 -2.49061e-10)
(-2.85516e-09 -8.96959e-10 -3.22081e-10)
(-3.14931e-09 -1.07131e-09 -4.14359e-10)
(-3.43215e-09 -1.26825e-09 -5.28231e-10)
(-3.68541e-09 -1.48155e-09 -6.62956e-10)
(-3.88672e-09 -1.69504e-09 -8.10961e-10)
(-4.0204e-09 -1.87756e-09 -9.52007e-10)
(-4.09134e-09 -1.98238e-09 -1.04568e-09)
(-2.3221e-10 -4.5295e-11 -1.06223e-11)
(-6.72534e-10 -1.32729e-10 -3.14714e-11)
(-1.07295e-09 -2.16716e-10 -5.25201e-11)
(-1.44618e-09 -3.02102e-10 -7.55899e-11)
(-1.80308e-09 -3.93181e-10 -1.02503e-10)
(-2.15291e-09 -4.93937e-10 -1.35255e-10)
(-2.50351e-09 -6.08216e-10 -1.76145e-10)
(-2.86122e-09 -7.39799e-10 -2.27912e-10)
(-3.23039e-09 -8.9232e-10 -2.93761e-10)
(-3.61236e-09 -1.06891e-09 -3.77271e-10)
(-4.00354e-09 -1.27128e-09 -4.81951e-10)
(-4.39218e-09 -1.49781e-09 -6.10152e-10)