/*--------------------------------*- C++ -*----------------------------------*\
| =========                 |                                                 |
| \\      /  F ield         | foam-extend: Open Source CFD                    |
|  \\    /   O peration     | Version:     3.1                                |
|   \\  /    A nd           | Web:         http://www.extend-project.de       |
|    \\/     M anipulation  |                                                 |
\*---------------------------------------------------------------------------*/
FoamFile
{
    version     2.0;
    format      ascii;
    class       surfaceScalarField;
    location    "3";
    object      meshPhi;
}
// * * * * * * * * * * * * * * * * * * * * * * * * * * * * * * * * * * * * * //

dimensions      [0 3 -1 0 0 0 0];

internalField   nonuniform List<scalar> 
41600
(
-6.61157e-09
-1.03771e-09
-8.76959e-11
8.99413e-11
-1.27324e-08
-3.07358e-09
-2.62098e-10
2.68824e-10
-1.83133e-08
-5.05612e-09
-4.38641e-10
4.49937e-10
-2.34999e-08
-7.06557e-09
-6.28214e-10
6.44418e-10
-2.84116e-08
-9.20896e-09
-8.44193e-10
8.65914e-10
-3.31409e-08
-1.15939e-08
-1.10071e-09
1.12879e-09
-3.77507e-08
-1.43364e-08
-1.41384e-09
1.44935e-09
-4.22647e-08
-1.75695e-08
-1.80311e-09
1.84726e-09
-4.66516e-08
-2.14506e-08
-2.29356e-09
2.34768e-09
-5.08003e-08
-2.61679e-08
-2.91929e-09
2.98466e-09
-5.44901e-08
-3.19447e-08
-3.73015e-09
3.80757e-09
-5.73669e-08
-3.90339e-08
-4.80466e-09
4.89317e-09
-5.8964e-08
-4.76893e-08
-6.27211e-09
6.3656e-09
-5.88603e-08
-5.80309e-08
-8.32846e-09
8.41093e-09
-5.70357e-08
-6.92857e-08
-1.10641e-08
1.11459e-08
-9.47334e-08
-1.7688e-08
2.41634e-08
-1.97189e-08
-2.02421e-09
-2.61295e-10
2.67976e-10
-3.79704e-08
-5.99394e-09
-7.80506e-10
8.00516e-10
-5.46069e-08
-9.85433e-09
-1.30526e-09
1.33885e-09
-7.00636e-08
-1.37574e-08
-1.86781e-09
1.91598e-09
-8.46964e-08
-1.79068e-08
-2.50755e-09
2.57208e-09
-9.87848e-08
-2.25047e-08
-3.26566e-09
3.34904e-09
-1.12523e-07
-2.77668e-08
-4.1885e-09
4.29382e-09
-1.25995e-07
-3.39363e-08
-5.33135e-09
5.46218e-09
-1.39134e-07
-4.12963e-08
-6.76327e-09
6.92347e-09
-1.51646e-07
-5.01774e-08
-8.57469e-09
8.76805e-09
-1.6293e-07
-6.09537e-08
-1.08907e-08
1.112e-08
-1.71993e-07
-7.40103e-08
-1.38948e-08
1.41584e-08
-1.77487e-07
-8.96374e-08
-1.78632e-08
1.81472e-08
-1.78105e-07
-1.07711e-07
-2.31657e-08
2.34293e-08
-1.73598e-07
-1.26462e-07
-2.98422e-08
3.0076e-08
-1.54602e-07
-4.24656e-08
5.31958e-08
-3.24958e-08
-2.91716e-09
-4.28038e-10
4.38978e-10
-6.25613e-08
-8.63461e-09
-1.27755e-09
1.31031e-09
-8.99509e-08
-1.41831e-08
-2.13394e-09
2.18891e-09
-1.15382e-07
-1.9773e-08
-3.04928e-09
3.12804e-09
-1.39443e-07
-2.56865e-08
-4.08655e-09
4.19196e-09
-1.62604e-07
-3.21993e-08
-5.31067e-09
5.44668e-09
-1.85204e-07
-3.95994e-08
-6.79333e-09
6.96484e-09
-2.07424e-07
-4.82045e-08
-8.61765e-09
8.83023e-09
-2.29226e-07
-5.83746e-08
-1.08832e-08
1.11428e-08
-2.50249e-07
-7.05164e-08
-1.37121e-08
1.40247e-08
-2.69678e-07
-8.50652e-08
-1.72571e-08
1.76272e-08
-2.86098e-07
-1.02419e-07
-2.1711e-08
2.21379e-08
-2.97486e-07
-1.22759e-07
-2.73071e-08
2.77746e-08
-3.01698e-07
-1.45606e-07
-3.42501e-08
3.47048e-08
-2.97926e-07
-1.68492e-07
-4.22219e-08
4.25956e-08
-2.01272e-07
-5.32918e-08
6.14858e-08
-4.47465e-08
-3.68011e-09
-5.82951e-10
5.97863e-10
-8.61243e-08
-1.08874e-08
-1.73821e-09
1.78285e-09
-1.23789e-07
-1.7864e-08
-2.89896e-09
2.9738e-09
-1.58726e-07
-2.48612e-08
-4.13444e-09
4.24155e-09
-1.91749e-07
-3.22177e-08
-5.52758e-09
5.67073e-09
-2.23518e-07
-4.02568e-08
-7.16233e-09
7.3467e-09
-2.54537e-07
-4.93072e-08
-9.12926e-09
9.36119e-09
-2.85125e-07
-5.972e-08
-1.153e-08
1.18166e-08
-3.15357e-07
-7.18798e-08
-1.44806e-08
1.48293e-08
-3.44956e-07
-8.62043e-08
-1.81128e-08
1.85304e-08
-3.7313e-07
-1.03118e-07
-2.25706e-08
2.30619e-08
-3.98382e-07
-1.22969e-07
-2.79961e-08
2.85595e-08
-4.18383e-07
-1.4582e-07
-3.44833e-08
3.51005e-08
-4.30332e-07
-1.70971e-07
-4.19511e-08
4.25621e-08
-4.32329e-07
-1.95702e-07
-4.97159e-08
5.0206e-08
-2.29435e-07
-5.88442e-08
6.61977e-08
-5.62874e-08
-4.28502e-09
-7.21937e-10
7.40438e-10
-1.08304e-07
-1.26698e-08
-2.15024e-09
2.20559e-09
-1.55603e-07
-2.07628e-08
-3.57968e-09
3.6724e-09
-1.99418e-07
-2.88382e-08
-5.09325e-09
5.22579e-09
-2.40772e-07
-3.72673e-08
-6.78947e-09
6.96628e-09
-2.80509e-07
-4.63947e-08
-8.76611e-09
8.99331e-09
-3.19304e-07
-5.65578e-08
-1.1126e-08
1.14109e-08
-3.5765e-07
-6.81024e-08
-1.39808e-08
1.43316e-08
-3.95809e-07
-8.13908e-08
-1.74528e-08
1.78773e-08
-4.33723e-07
-9.67982e-08
-2.16712e-08
2.21756e-08
-4.70868e-07
-1.14686e-07
-2.67596e-08
2.73463e-08
-5.06028e-07
-1.35329e-07
-3.28061e-08
3.34686e-08
-5.37028e-07
-1.58731e-07
-3.97842e-08
4.04968e-08
-5.60647e-07
-1.84156e-07
-4.73887e-08
4.80852e-08
-5.7311e-07
-2.08949e-07
-5.46575e-08
5.52191e-08
-2.41525e-07
-6.22967e-08
6.88866e-08
-6.69553e-08
-4.71295e-09
-8.42034e-10
8.63667e-10
-1.28785e-07
-1.39268e-08
-2.50489e-09
2.56958e-09
-1.84935e-07
-2.27929e-08
-4.16164e-09
4.26989e-09
-2.36857e-07
-3.15912e-08
-5.90527e-09
6.05974e-09
-2.8576e-07
-4.0703e-08
-7.84524e-09
8.0509e-09
-3.32652e-07
-5.04702e-08
-1.00879e-08
1.03515e-08
-3.78373e-07
-6.12116e-08
-1.27422e-08
1.30716e-08
-4.23591e-07
-7.32351e-08
-1.59232e-08
1.63268e-08
-4.68788e-07
-8.68429e-08
-1.97524e-08
2.02378e-08
-5.14203e-07
-1.02326e-07
-2.43524e-08
2.4924e-08
-5.59732e-07
-1.19943e-07
-2.98325e-08
3.04879e-08
-6.0473e-07
-1.39877e-07
-3.62561e-08
3.69797e-08
-6.47655e-07
-1.62118e-07
-4.35587e-08
4.43101e-08
-6.85404e-07
-1.86119e-07
-5.1358e-08
5.20564e-08
-7.12113e-07
-2.09712e-07
-5.84993e-08
5.90617e-08
-2.40255e-07
-6.58946e-08
7.24512e-08
-7.66119e-08
-4.95408e-09
-9.41501e-10
9.6576e-10
-1.47303e-07
-1.46309e-08
-2.79715e-09
2.86965e-09
-2.11402e-07
-2.39143e-08
-4.63692e-09
4.75809e-09
-2.70544e-07
-3.30755e-08
-6.55997e-09
6.73257e-09
-3.26087e-07
-4.24868e-08
-8.68214e-09
8.91141e-09
-3.79175e-07
-5.24679e-08
-1.11134e-08
1.14063e-08
-4.30777e-07
-6.32991e-08
-1.39632e-08
1.4328e-08
-4.8171e-07
-7.5228e-08
-1.73443e-08
1.77892e-08
-5.32646e-07
-8.84696e-08
-2.1372e-08
2.19038e-08
-5.84094e-07
-1.03199e-07
-2.61601e-08
2.67808e-08
-6.3636e-07
-1.19534e-07
-3.18085e-08
3.25107e-08
-6.89429e-07
-1.37517e-07
-3.83819e-08
3.91399e-08
-7.42657e-07
-1.57079e-07
-4.58517e-08
4.66058e-08
-7.9389e-07
-1.77942e-07
-5.39329e-08
5.45715e-08
-8.36638e-07
-1.99041e-07
-6.15357e-08
6.19966e-08
-2.28356e-07
-7.10226e-08
7.82157e-08
-8.51434e-08
-1.01976e-09
1.04612e-09
-5.00687e-09
-1.6364e-07
-3.02558e-09
3.1043e-09
-1.47792e-08
-2.34697e-07
-5.00385e-09
5.13523e-09
-2.41283e-08
-3.00083e-07
-7.0562e-09
7.24298e-09
-3.33059e-08
-3.61268e-07
-9.30053e-09
9.54798e-09
-4.26603e-08
-4.19485e-07
-1.18458e-08
1.2161e-08
-5.24765e-08
-4.75787e-07
-1.47976e-08
1.51886e-08
-6.29846e-08
-5.31078e-07
-1.82606e-08
1.87353e-08
-7.43615e-08
-5.86135e-07
-2.23385e-08
2.29028e-08
-8.67236e-08
-6.41613e-07
-2.71298e-08
2.7784e-08
-1.00114e-07
-6.98034e-07
-3.27186e-08
3.34525e-08
-1.14478e-07
-7.55701e-07
-3.91586e-08
3.99419e-08
-1.29633e-07
-8.14425e-07
-4.64322e-08
4.71999e-08
-1.45226e-07
-8.72616e-07
-5.43155e-08
5.49552e-08
-1.60618e-07
-9.24542e-07
-6.18909e-08
6.23643e-08
-1.7448e-07
-7.77586e-08
8.629e-08
-1.99285e-07
-6.71475e-09
-1.08469e-09
-8.21932e-11
-1.29328e-08
-3.2144e-09
-2.45639e-10
-1.86063e-08
-5.29332e-09
-4.1105e-10
-2.38861e-08
-7.40877e-09
-5.88605e-10
-2.8895e-08
-9.67648e-09
-7.90797e-10
-3.37284e-08
-1.22135e-08
-1.03075e-09
-3.84501e-08
-1.51472e-08
-1.32326e-09
-4.30827e-08
-1.86241e-08
-1.68592e-09
-4.75908e-08
-2.28186e-08
-2.14057e-09
-5.18569e-08
-2.79409e-08
-2.71537e-09
-5.56535e-08
-3.42407e-08
-3.44808e-09
-5.863e-08
-4.20013e-08
-4.39061e-09
-6.0358e-08
-5.15006e-08
-5.61091e-09
-6.0537e-08
-6.28445e-08
-7.16866e-09
-5.94224e-08
-7.5165e-08
-8.96038e-09
-9.55175e-08
-1.20512e-08
-2.00258e-08
-2.11555e-09
-2.44911e-10
-3.85662e-08
-6.26757e-09
-7.31523e-10
-5.54783e-08
-1.03148e-08
-1.2232e-09
-7.12115e-08
-1.44226e-08
-1.7501e-09
-8.61334e-08
-1.8811e-08
-2.34903e-09
-1.00531e-07
-2.36999e-08
-3.05829e-09
-1.14603e-07
-2.93257e-08
-3.92052e-09
-1.28431e-07
-3.59561e-08
-4.98563e-09
-1.41934e-07
-4.39048e-08
-6.31392e-09
-1.54802e-07
-5.35392e-08
-7.97999e-09
-1.66407e-07
-6.52762e-08
-1.00776e-08
-1.75752e-07
-7.95429e-08
-1.27238e-08
-1.8156e-07
-9.66464e-08
-1.60489e-08
-1.82784e-07
-1.16397e-07
-2.01163e-08
-1.79858e-07
-1.36868e-07
-2.45641e-08
-1.59677e-07
-3.03959e-08
-3.29985e-08
-3.04809e-09
-4.01211e-10
-6.35367e-08
-9.02659e-09
-1.1974e-09
-9.13771e-08
-1.48418e-08
-1.99981e-09
-1.1726e-07
-2.07223e-08
-2.85716e-09
-1.41794e-07
-2.6973e-08
-3.82832e-09
-1.65462e-07
-3.38935e-08
-4.9737e-09
-1.88611e-07
-4.17991e-08
-6.35938e-09
-2.1142e-07
-5.10392e-08
-8.06058e-09
-2.33833e-07
-6.20117e-08
-1.01645e-08
-2.5546e-07
-7.51676e-08
-1.27717e-08
-2.75437e-07
-9.09894e-08
-1.59946e-08
-2.92312e-07
-1.09914e-07
-1.99452e-08
-3.04091e-07
-1.32116e-07
-2.46923e-08
-3.08871e-07
-1.57005e-07
-3.01261e-08
-3.06643e-07
-1.81942e-07
-3.55819e-08
-2.08192e-07
-4.07151e-08
-4.54322e-08
-3.84417e-09
-5.46418e-10
-8.74541e-08
-1.13781e-08
-1.62915e-09
-1.25732e-07
-1.8687e-08
-2.71671e-09
-1.61283e-07
-2.60441e-08
-3.87389e-09
-1.94949e-07
-3.3815e-08
-5.17827e-09
-2.27409e-07
-4.23506e-08
-6.70805e-09
-2.59179e-07
-5.20105e-08
-8.54689e-09
-2.9058e-07
-6.31804e-08
-1.07871e-08
-3.2167e-07
-7.62846e-08
-1.35309e-08
-3.52134e-07
-9.17855e-08
-1.68867e-08
-3.81117e-07
-1.10152e-07
-2.09581e-08
-4.07039e-07
-1.31763e-07
-2.58107e-08
-4.27517e-07
-1.56662e-07
-3.13933e-08
-4.39855e-07
-1.84022e-07
-3.73736e-08
-4.42819e-07
-2.10964e-07
-4.28473e-08
-2.37954e-07
-4.71414e-08
-5.71389e-08
-4.47454e-09
-6.7668e-10
-1.09954e-07
-1.32361e-08
-2.01527e-09
-1.58012e-07
-2.17107e-08
-3.3545e-09
-2.02586e-07
-3.01964e-08
-4.77208e-09
-2.44733e-07
-3.90938e-08
-6.36019e-09
-2.85324e-07
-4.87766e-08
-8.21004e-09
-3.25053e-07
-5.96134e-08
-1.04169e-08
-3.64418e-07
-7.19839e-08
-1.30827e-08
-4.03671e-07
-8.62876e-08
-1.63158e-08
-4.4272e-07
-1.02939e-07
-2.02235e-08
-4.80971e-07
-1.22339e-07
-2.48933e-08
-5.17099e-07
-1.44787e-07
-3.03476e-08
-5.48786e-07
-1.70266e-07
-3.64406e-08
-5.72714e-07
-1.97929e-07
-4.26742e-08
-5.85387e-07
-2.24971e-07
-4.79615e-08
-2.51027e-07
-5.16791e-08
-6.79522e-08
-4.9196e-09
-7.8922e-10
-1.30716e-07
-1.45437e-08
-2.34755e-09
-1.8775e-07
-2.38233e-08
-3.89963e-09
-2.40554e-07
-3.30629e-08
-5.53255e-09
-2.90377e-07
-4.26736e-08
-7.34876e-09
-3.38261e-07
-5.30259e-08
-9.44763e-09
-3.85068e-07
-6.44678e-08
-1.19304e-08
-4.31482e-07
-7.73373e-08
-1.49027e-08
-4.77983e-07
-9.1968e-08
-1.84731e-08
-5.24787e-07
-1.08683e-07
-2.27451e-08
-5.71731e-07
-1.27769e-07
-2.77968e-08
-6.18063e-07
-1.49431e-07
-3.36368e-08
-6.62052e-07
-1.73654e-07
-4.00978e-08
-7.00312e-07
-1.99815e-07
-4.66316e-08
-7.26642e-07
-2.25623e-07
-5.2006e-08
-2.50224e-07
-5.58975e-08
-7.77317e-08
-5.16939e-09
-8.82408e-10
-1.49469e-07
-1.5273e-08
-2.6213e-09
-2.14556e-07
-2.49846e-08
-4.34469e-09
-2.74679e-07
-3.45994e-08
-6.14544e-09
-3.31242e-07
-4.45184e-08
-8.13203e-09
-3.85426e-07
-5.50882e-08
-1.04073e-08
-4.38231e-07
-6.66143e-08
-1.30735e-08
-4.90494e-07
-7.93689e-08
-1.62344e-08
-5.42894e-07
-9.35907e-08
-1.99941e-08
-5.95933e-07
-1.09476e-07
-2.44503e-08
-6.49879e-07
-1.27161e-07
-2.9677e-08
-7.04634e-07
-1.46696e-07
-3.56916e-08
-7.59388e-07
-1.68019e-07
-4.2371e-08
-8.11655e-07
-1.90836e-07
-4.92604e-08
-8.54036e-07
-2.14067e-07
-5.5164e-08
-2.38086e-07
-6.08547e-08
-8.63622e-08
-9.55707e-10
-5.22261e-09
-1.65995e-07
-2.83519e-09
-1.5422e-08
-2.38119e-07
-4.68813e-09
-2.51978e-08
-3.04561e-07
-6.60973e-09
-3.48242e-08
-3.66836e-07
-8.71043e-09
-4.46761e-08
-4.2622e-07
-1.10924e-08
-5.50624e-08
-4.83799e-07
-1.38541e-08
-6.62344e-08
-5.40501e-07
-1.70926e-08
-7.8387e-08
-5.97116e-07
-2.09024e-08
-9.16519e-08
-6.54302e-07
-2.53689e-08
-1.06082e-07
-7.12555e-07
-3.05559e-08
-1.21625e-07
-7.72118e-07
-3.64779e-08
-1.38089e-07
-8.3266e-07
-4.30362e-08
-1.55094e-07
-8.92249e-07
-4.9851e-08
-1.71939e-07
-9.44039e-07
-5.58657e-08
-1.87172e-07
-6.65652e-08
-2.0617e-07
-6.80577e-09
-1.12688e-09
-7.36555e-11
-1.31098e-08
-3.34066e-09
-2.20108e-10
-1.88657e-08
-5.50534e-09
-3.68262e-10
-2.42278e-08
-7.71388e-09
-5.27177e-10
-2.93222e-08
-1.00887e-08
-7.07921e-10
-3.42463e-08
-1.27537e-08
-9.21983e-10
-3.90645e-08
-1.5843e-08
-1.18202e-09
-4.37987e-08
-1.95101e-08
-1.50248e-09
-4.84113e-08
-2.39357e-08
-1.90015e-09
-5.27825e-08
-2.93326e-08
-2.39435e-09
-5.66864e-08
-3.59444e-08
-3.0065e-09
-5.97874e-08
-4.40263e-08
-3.75756e-09
-6.17025e-08
-5.37777e-08
-4.65917e-09
-6.22139e-08
-6.51331e-08
-5.68669e-09
-6.16143e-08
-7.70106e-08
-6.705e-09
-9.74307e-08
-8.10464e-09
-2.02966e-08
-2.19758e-09
-2.19481e-10
-3.90928e-08
-6.51298e-09
-6.55517e-10
-5.62496e-08
-1.07265e-08
-1.09591e-09
-7.22277e-08
-1.50142e-08
-1.56753e-09
-8.74037e-08
-1.96087e-08
-2.10299e-09
-1.02071e-07
-2.47425e-08
-2.73585e-09
-1.16431e-07
-3.06647e-08
-3.50264e-09
-1.30562e-07
-3.76552e-08
-4.44447e-09
-1.44378e-07
-4.60377e-08
-5.60776e-09
-1.57559e-07
-5.61825e-08
-7.04343e-09
-1.69478e-07
-6.84909e-08
-8.80283e-09
-1.79167e-07
-8.33287e-08
-1.09257e-08
-1.85454e-07
-1.00845e-07
-1.34087e-08
-1.87498e-07
-1.20522e-07
-1.61299e-08
-1.85847e-07
-1.40039e-07
-1.86902e-08
-1.60696e-07
-2.11774e-08
-3.34421e-08
-3.1657e-09
-3.59566e-10
-6.43993e-08
-9.37822e-09
-1.07303e-09
-9.264e-08
-1.54308e-08
-1.79178e-09
-1.18923e-07
-2.1567e-08
-2.55922e-09
-1.43873e-07
-2.81088e-08
-3.42761e-09
-1.67982e-07
-3.53727e-08
-4.44996e-09
-1.91603e-07
-4.36906e-08
-5.68301e-09
-2.14912e-07
-5.34269e-08
-7.18902e-09
-2.37843e-07
-6.49905e-08
-9.03539e-09
-2.59986e-07
-7.88315e-08
-1.12904e-08
-2.80467e-07
-9.54041e-08
-1.40113e-08
-2.97845e-07
-1.15052e-07
-1.72162e-08
-3.10229e-07
-1.37722e-07
-2.08253e-08
-3.15939e-07
-1.62378e-07
-2.4554e-08
-3.15155e-07
-1.85861e-07
-2.77784e-08
-2.08585e-07
-2.98328e-08
-4.60373e-08
-3.99154e-09
-4.89711e-10
-8.863e-08
-1.18184e-08
-1.45996e-09
-1.27452e-07
-1.94233e-08
-2.43415e-09
-1.63548e-07
-2.70971e-08
-3.47006e-09
-1.97778e-07
-3.5226e-08
-4.63661e-09
-2.30839e-07
-4.41803e-08
-6.00256e-09
-2.63253e-07
-5.43376e-08
-7.64008e-09
-2.95339e-07
-6.60991e-08
-9.62602e-09
-3.27143e-07
-7.98983e-08
-1.20399e-08
-3.58321e-07
-9.61909e-08
-1.49552e-08
-3.87985e-07
-1.15404e-07
-1.84192e-08
-4.14528e-07
-1.378e-07
-2.24085e-08
-4.35604e-07
-1.63153e-07
-2.67466e-08
-4.48672e-07
-1.90121e-07
-3.0987e-08
-4.52735e-07
-2.15244e-07
-3.43547e-08
-2.3792e-07
-3.6108e-08
-5.78904e-08
-4.64478e-09
-6.06459e-10
-1.11413e-07
-1.37443e-08
-1.80598e-09
-1.60145e-07
-2.25589e-08
-3.00561e-09
-2.0539e-07
-3.1406e-08
-4.2747e-09
-2.48235e-07
-4.07083e-08
-5.69523e-09
-2.89568e-07
-5.08598e-08
-7.34758e-09
-3.30094e-07
-6.2247e-08
-9.31428e-09
-3.70312e-07
-7.52633e-08
-1.16809e-08
-4.10459e-07
-9.03134e-08
-1.45326e-08
-4.50411e-07
-1.07799e-07
-1.79427e-08
-4.89519e-07
-1.28069e-07
-2.1947e-08
-5.26383e-07
-1.51295e-07
-2.64912e-08
-5.58624e-07
-1.77174e-07
-3.13323e-08
-5.82936e-07
-2.04329e-07
-3.59136e-08
-5.96076e-07
-2.29348e-07
-3.93427e-08
-2.50733e-07
-4.10582e-08
-6.8832e-08
-5.10527e-09
-7.07316e-10
-1.32422e-07
-1.50974e-08
-2.10372e-09
-1.90242e-07
-2.47457e-08
-3.49401e-09
-2.43827e-07
-3.43744e-08
-4.95593e-09
-2.94458e-07
-4.44168e-08
-6.5807e-09
-3.43202e-07
-5.52634e-08
-8.45611e-09
-3.90934e-07
-6.72783e-08
-1.06703e-08
-4.38343e-07
-8.08103e-08
-1.33126e-08
-4.85896e-07
-9.61932e-08
-1.64695e-08
-5.33774e-07
-1.1373e-07
-2.02131e-08
-5.81746e-07
-1.33653e-07
-2.45754e-08
-6.28949e-07
-1.56035e-07
-2.94983e-08
-6.73491e-07
-1.80585e-07
-3.47328e-08
-7.11819e-07
-2.06171e-07
-3.96966e-08
-7.37911e-07
-2.29891e-07
-4.33923e-08
-2.49741e-07
-4.55795e-08
-7.87198e-08
-5.3629e-09
-7.90818e-10
-1.51383e-07
-1.58495e-08
-2.34899e-09
-2.17347e-07
-2.59432e-08
-3.8927e-09
-2.7834e-07
-3.59582e-08
-5.50489e-09
-3.35799e-07
-4.63172e-08
-7.28225e-09
-3.90934e-07
-5.7385e-08
-9.31591e-09
-4.44762e-07
-6.94809e-08
-1.16952e-08
-4.98128e-07
-8.28836e-08
-1.45086e-08
-5.51702e-07
-9.78276e-08
-1.784e-08
-6.05951e-07
-1.14486e-07
-2.1759e-08
-6.61073e-07
-1.32933e-07
-2.6299e-08
-7.16839e-07
-1.53098e-07
-3.1417e-08
-7.72213e-07
-1.74666e-07
-3.69094e-08
-8.24387e-07
-1.96887e-07
-4.22754e-08
-8.65949e-07
-2.18086e-07
-4.65351e-08
-2.37233e-07
-5.03311e-08
-8.74377e-08
-8.56488e-10
-5.41657e-09
-1.68077e-07
-2.54059e-09
-1.59995e-08
-2.41149e-07
-4.20029e-09
-2.61562e-08
-3.08526e-07
-5.92067e-09
-3.61789e-08
-3.71761e-07
-7.80026e-09
-4.64627e-08
-4.32159e-07
-9.92975e-09
-5.73325e-08
-4.90825e-07
-1.23956e-08
-6.90503e-08
-5.48698e-07
-1.5281e-08
-8.1814e-08
-6.06562e-07
-1.86628e-08
-9.57473e-08
-6.65043e-07
-2.26029e-08
-1.10876e-07
-7.2457e-07
-2.71304e-08
-1.27089e-07
-7.85256e-07
-3.22075e-08
-1.4408e-07
-8.46526e-07
-3.7662e-08
-1.61257e-07
-9.06072e-07
-4.30606e-08
-1.77554e-07
-9.56836e-07
-4.75057e-08
-1.91001e-07
-5.52853e-08
-2.04811e-07
-6.88361e-09
-1.16324e-09
-6.24146e-11
-1.32613e-08
-3.44932e-09
-1.86499e-10
-1.90877e-08
-5.68712e-09
-3.11961e-10
-2.45201e-08
-7.97389e-09
-4.464e-10
-2.9687e-08
-1.04369e-08
-5.99043e-10
-3.46871e-08
-1.3204e-08
-7.79304e-10
-3.95857e-08
-1.64127e-08
-9.97231e-10
-4.4404e-08
-2.02181e-08
-1.2637e-09
-4.91034e-08
-2.47991e-08
-1.59014e-09
-5.35632e-08
-3.03605e-08
-1.98749e-09
-5.7561e-08
-3.71262e-08
-2.46359e-09
-6.07736e-08
-4.53137e-08
-3.01813e-09
-6.28439e-08
-5.50641e-08
-3.63316e-09
-6.35817e-08
-6.6257e-08
-4.25891e-09
-6.32441e-08
-7.78597e-08
-4.79545e-09
-9.8747e-08
-5.41854e-09
-2.05281e-08
-2.26829e-09
-1.85992e-10
-3.95433e-08
-6.72418e-09
-5.55445e-10
-5.69095e-08
-1.10795e-08
-9.28401e-10
-7.30964e-08
-1.55184e-08
-1.32741e-09
-8.84878e-08
-2.02825e-08
-1.7797e-09
-1.03382e-07
-2.5612e-08
-2.31277e-09
-1.1798e-07
-3.17617e-08
-2.95571e-09
-1.32362e-07
-3.90141e-08
-3.73953e-09
-1.46436e-07
-4.76884e-08
-4.6959e-09
-1.59879e-07
-5.81376e-08
-5.85326e-09
-1.72069e-07
-7.0723e-08
-7.22789e-09
-1.82066e-07
-8.57338e-08
-8.80694e-09
-1.8876e-07
-1.03196e-07
-1.05196e-08
-1.91381e-07
-1.22462e-07
-1.21994e-08
-1.90394e-07
-1.41253e-07
-1.35584e-08
-1.61299e-07
-1.45368e-08
-3.38213e-08
-3.2671e-09
-3.04715e-10
-6.5137e-08
-9.68088e-09
-9.09254e-10
-9.37201e-08
-1.59361e-08
-1.51797e-09
-1.20345e-07
-2.22871e-08
-2.16735e-09
-1.45646e-07
-2.90686e-08
-2.90101e-09
-1.70126e-07
-3.66073e-08
-3.76253e-09
-1.94138e-07
-4.5242e-08
-4.79725e-09
-2.17857e-07
-5.53392e-08
-6.05237e-09
-2.41209e-07
-6.72994e-08
-7.57417e-09
-2.63775e-07
-8.15457e-08
-9.4e-09
-2.84676e-07
-9.84721e-08
-1.15418e-08
-3.02494e-07
-1.18308e-07
-1.39556e-08
-3.15403e-07
-1.40819e-07
-1.6494e-08
-3.21806e-07
-1.64767e-07
-1.88571e-08
-3.21809e-07
-1.87014e-07
-2.06092e-08
-2.08262e-07
-2.12703e-08
-4.65545e-08
-4.1186e-09
-4.15021e-10
-8.96356e-08
-1.21974e-08
-1.23717e-09
-1.28924e-07
-2.0055e-08
-2.06228e-09
-1.65483e-07
-2.79954e-08
-2.93893e-09
-2.00192e-07
-3.64193e-08
-3.92474e-09
-2.33755e-07
-4.57089e-08
-5.07643e-09
-2.66701e-07
-5.62489e-08
-6.4519e-09
-2.99345e-07
-6.84407e-08
-8.10989e-09
-3.31721e-07
-8.27048e-08
-1.01055e-08
-3.63466e-07
-9.94608e-08
-1.24784e-08
-3.93671e-07
-1.19058e-07
-1.52297e-08
-4.20723e-07
-1.41618e-07
-1.82798e-08
-4.4231e-07
-1.66688e-07
-2.14065e-08
-4.55961e-07
-1.92682e-07
-2.41954e-08
-4.60672e-07
-2.1616e-07
-2.61139e-08
-2.36771e-07
-2.66726e-08
-5.85326e-08
-4.7916e-09
-5.13976e-10
-1.12661e-07
-1.41819e-08
-1.53043e-09
-1.61969e-07
-2.32869e-08
-2.54653e-09
-2.07788e-07
-3.24385e-08
-3.62063e-09
-2.51221e-07
-4.2075e-08
-4.82142e-09
-2.93174e-07
-5.26022e-08
-6.21535e-09
-3.34356e-07
-6.44134e-08
-7.86904e-09
-3.75264e-07
-7.78996e-08
-9.8485e-09
-4.16118e-07
-9.34477e-08
-1.22135e-08
-4.56765e-07
-1.11416e-07
-1.50041e-08
-4.96514e-07
-1.32063e-07
-1.82133e-08
-5.3392e-07
-1.55404e-07
-2.17406e-08
-5.66581e-07
-1.80891e-07
-2.53191e-08
-5.91225e-07
-2.0688e-07
-2.84619e-08
-6.04695e-07
-2.29982e-07
-3.05546e-08
-2.48978e-07
-3.12724e-08
-6.95839e-08
-5.26544e-09
-5.99462e-10
-1.33882e-07
-1.55744e-08
-1.78277e-09
-1.92373e-07
-2.55379e-08
-2.96041e-09
-2.46625e-07
-3.54945e-08
-4.19786e-09
-2.97939e-07
-4.58938e-08
-5.57166e-09
-3.474e-07
-5.71373e-08
-7.15462e-09
-3.95893e-07
-6.95944e-08
-9.0183e-09
-4.44102e-07
-8.3609e-08
-1.12322e-08
-4.92475e-07
-9.94934e-08
-1.38582e-08
-5.41158e-07
-1.17502e-07
-1.69369e-08
-5.89858e-07
-1.37771e-07
-2.04615e-08
-6.37628e-07
-1.60213e-07
-2.43336e-08
-6.82487e-07
-1.8429e-07
-2.82888e-08
-7.20855e-07
-2.08597e-07
-3.18282e-08
-7.46877e-07
-2.30251e-07
-3.42566e-08
-2.47555e-07
-3.5515e-08
-7.95644e-08
-5.5299e-09
-6.70236e-10
-1.53021e-07
-1.63464e-08
-1.99063e-09
-2.19736e-07
-2.67669e-08
-3.29826e-09
-2.8147e-07
-3.71198e-08
-4.66306e-09
-3.39688e-07
-4.78429e-08
-6.16624e-09
-3.95617e-07
-5.93115e-08
-7.88359e-09
-4.50285e-07
-7.18481e-08
-9.88807e-09
-5.04535e-07
-8.57244e-08
-1.22491e-08
-5.59017e-07
-1.01151e-07
-1.50277e-08
-6.14158e-07
-1.18249e-07
-1.82645e-08
-6.70081e-07
-1.37001e-07
-2.19576e-08
-7.26446e-07
-1.57179e-07
-2.60255e-08
-7.82072e-07
-1.78236e-07
-3.02444e-08
-8.34043e-07
-1.99155e-07
-3.41784e-08
-8.75135e-07
-2.18243e-07
-3.71362e-08
-2.34584e-07
-3.97466e-08
-8.83573e-08
-7.25893e-10
-5.58405e-09
-1.69858e-07
-2.15301e-09
-1.64974e-08
-2.43743e-07
-3.55892e-09
-2.69803e-08
-3.11919e-07
-5.01542e-09
-3.73379e-08
-3.75967e-07
-6.60538e-09
-4.79798e-08
-4.37213e-07
-8.40442e-09
-5.92397e-08
-4.96773e-07
-1.04835e-08
-7.13813e-08
-5.55585e-07
-1.29085e-08
-8.45937e-08
-6.14414e-07
-1.57357e-08
-9.89757e-08
-6.73845e-07
-1.9002e-08
-1.14504e-07
-7.3423e-07
-2.27057e-08
-1.30982e-07
-7.95557e-07
-2.67747e-08
-1.47961e-07
-8.57081e-07
-3.10146e-08
-1.64652e-07
-9.16331e-07
-3.50388e-08
-1.79758e-07
-9.66349e-07
-3.81947e-08
-1.91244e-07
-4.38628e-08
-2.01738e-07
-6.9472e-09
-1.19301e-09
-4.88982e-11
-1.33851e-08
-3.53811e-09
-1.46097e-10
-1.92689e-08
-5.83511e-09
-2.4432e-10
-2.47585e-08
-8.18422e-09
-3.49456e-10
-2.99839e-08
-1.07158e-08
-4.68605e-10
-3.50451e-08
-1.356e-08
-6.08876e-10
-4.00074e-08
-1.68549e-08
-7.77601e-10
-4.48919e-08
-2.07539e-08
-9.82239e-10
-4.9659e-08
-2.54304e-08
-1.22972e-09
-5.41876e-08
-3.10778e-08
-1.5249e-09
-5.82569e-08
-3.79007e-08
-1.86762e-09
-6.15494e-08
-4.60904e-08
-2.24802e-09
-6.37159e-08
-5.57657e-08
-2.64056e-09
-6.45645e-08
-6.68185e-08
-3.00049e-09
-6.43177e-08
-7.83026e-08
-3.26902e-09
-9.95791e-08
-3.54243e-09
-2.07171e-08
-2.32617e-09
-1.45719e-10
-3.99112e-08
-6.89675e-09
-4.3513e-10
-5.74482e-08
-1.13668e-08
-7.27128e-10
-7.38049e-08
-1.59263e-08
-1.0392e-09
-8.93701e-08
-2.08226e-08
-1.39229e-09
-1.04445e-07
-2.62998e-08
-1.80722e-09
-1.19233e-07
-3.26138e-08
-2.30525e-09
-1.33811e-07
-4.00435e-08
-2.90771e-09
-1.48085e-07
-4.88966e-08
-3.63384e-09
-1.6173e-07
-5.95033e-08
-4.49582e-09
-1.74126e-07
-7.21859e-08
-5.48958e-09
-1.84344e-07
-8.71791e-08
-6.58032e-09
-1.91295e-07
-1.04456e-07
-7.68474e-09
-1.94203e-07
-1.2337e-07
-8.66256e-09
-1.93449e-07
-1.41773e-07
-9.34411e-09
-1.6177e-07
-9.68521e-09
-3.41308e-08
-3.3501e-09
-2.38744e-10
-6.57392e-08
-9.9282e-09
-7.12328e-10
-9.46015e-08
-1.63474e-08
-1.18894e-09
-1.21504e-07
-2.287e-08
-1.69689e-09
-1.47089e-07
-2.98384e-08
-2.26979e-09
-1.71864e-07
-3.75846e-08
-2.94067e-09
-1.96186e-07
-4.64482e-08
-3.74284e-09
-2.20225e-07
-5.67895e-08
-4.70894e-09
-2.43902e-07
-6.89919e-08
-5.86722e-09
-2.66789e-07
-8.34438e-08
-7.23286e-09
-2.88004e-07
-1.00481e-07
-8.79231e-09
-3.06137e-07
-1.20252e-07
-1.04793e-08
-3.19382e-07
-1.42434e-07
-1.21466e-08
-3.26137e-07
-1.65768e-07
-1.35573e-08
-3.26418e-07
-1.87278e-07
-1.44539e-08
-2.08041e-07
-1.45629e-08
-4.69767e-08
-4.22264e-09
-3.25181e-10
-9.04564e-08
-1.25072e-08
-9.69264e-10
-1.30124e-07
-2.05695e-08
-1.61535e-09
-1.6706e-07
-2.87227e-08
-2.30117e-09
-2.02154e-07
-3.73771e-08
-3.07121e-09
-2.36119e-07
-4.69202e-08
-3.96856e-09
-2.69484e-07
-5.77369e-08
-5.03597e-09
-3.02561e-07
-7.02196e-08
-6.31442e-09
-3.35373e-07
-8.47659e-08
-7.83792e-09
-3.67542e-07
-1.01751e-07
-9.6218e-09
-3.9814e-07
-1.2145e-07
-1.16423e-08
-4.25549e-07
-1.43879e-07
-1.38047e-08
-4.47461e-07
-1.68472e-07
-1.59072e-08
-4.61413e-07
-1.93607e-07
-1.76352e-08
-4.66357e-07
-2.16034e-07
-1.86695e-08
-2.35796e-07
-1.87428e-08
-5.90568e-08
-4.91184e-09
-4.0273e-10
-1.1368e-07
-1.45397e-08
-1.19906e-09
-1.63457e-07
-2.38802e-08
-1.99476e-09
-2.09741e-07
-3.32751e-08
-2.83519e-09
-2.5365e-07
-4.31728e-08
-3.77344e-09
-2.96097e-07
-5.39848e-08
-4.86021e-09
-3.37795e-07
-6.6103e-08
-6.14492e-09
-3.79234e-07
-7.99067e-08
-7.67412e-09
-4.20621e-07
-9.57552e-08
-9.48534e-09
-4.61776e-07
-1.13954e-07
-1.15942e-08
-5.01975e-07
-1.34679e-07
-1.39715e-08
-5.39741e-07
-1.57822e-07
-1.65086e-08
-5.72656e-07
-1.82707e-07
-1.89741e-08
-5.97461e-07
-2.07643e-07
-2.10059e-08
-6.11033e-07
-2.29459e-07
-2.22253e-08
-2.47363e-07
-2.24833e-08
-7.01977e-08
-5.39667e-09
-4.69726e-10
-1.35074e-07
-1.59646e-08
-1.39682e-09
-1.94113e-07
-2.61837e-08
-2.31907e-09
-2.48905e-07
-3.64028e-08
-3.28745e-09
-3.00771e-07
-4.70815e-08
-4.36125e-09
-3.50804e-07
-5.86264e-08
-5.59614e-09
-3.99893e-07
-7.14043e-08
-7.04553e-09
-4.48715e-07
-8.57455e-08
-8.75899e-09
-4.97701e-07
-1.01931e-07
-1.07761e-08
-5.4696e-07
-1.20158e-07
-1.31139e-08
-5.96151e-07
-1.40474e-07
-1.57452e-08
-6.44269e-07
-1.62665e-07
-1.85655e-08
-6.89284e-07
-1.86053e-07
-2.13485e-08
-7.27627e-07
-2.0918e-07
-2.37251e-08
-7.53562e-07
-2.29386e-07
-2.52542e-08
-2.4543e-07
-2.59805e-08
-8.02541e-08
-5.66679e-09
-5.25195e-10
-1.54359e-07
-1.67531e-08
-1.55972e-09
-2.21687e-07
-2.7439e-08
-2.58384e-09
-2.84023e-07
-3.80624e-08
-3.65204e-09
-3.42852e-07
-4.90713e-08
-4.82731e-09
-3.99415e-07
-6.08448e-08
-6.16777e-09
-4.54741e-07
-7.37021e-08
-7.72821e-09
-5.09668e-07
-8.78997e-08
-9.55859e-09
-5.64824e-07
-1.03616e-07
-1.16987e-08
-6.20594e-07
-1.20914e-07
-1.41671e-08
-6.77042e-07
-1.39688e-07
-1.6942e-08
-7.33744e-07
-1.59584e-07
-1.99343e-08
-7.89441e-07
-1.79919e-07
-2.29491e-08
-8.41201e-07
-1.99608e-07
-2.5661e-08
-8.81979e-07
-2.17154e-07
-2.76236e-08
-2.31976e-07
-2.93867e-08
-8.91086e-08
-5.68819e-10
-5.72138e-09
-1.71314e-07
-1.68698e-09
-1.69051e-08
-2.45863e-07
-2.78814e-09
-2.7653e-08
-3.14689e-07
-3.92826e-09
-3.82793e-08
-3.79393e-07
-5.17169e-09
-4.92027e-08
-4.41315e-07
-6.57661e-09
-6.07603e-08
-5.01577e-07
-8.19659e-09
-7.32116e-08
-5.61108e-07
-1.00793e-08
-8.67301e-08
-6.20653e-07
-1.22621e-08
-1.01383e-07
-6.80752e-07
-1.47621e-08
-1.17093e-07
-7.4169e-07
-1.75601e-08
-1.33579e-07
-8.03361e-07
-2.05764e-08
-1.50281e-07
-8.64919e-07
-2.36388e-08
-1.66286e-07
-9.2385e-07
-2.64525e-08
-1.8023e-07
-9.73348e-07
-2.85852e-08
-1.90215e-07
-3.25671e-08
-1.98751e-07
-6.99566e-09
-1.21567e-09
-3.3611e-11
-1.34794e-08
-3.60558e-09
-1.00412e-10
-1.9407e-08
-5.94717e-09
-1.67885e-10
-2.49398e-08
-8.34256e-09
-2.40037e-10
-3.02093e-08
-1.0924e-08
-3.21668e-10
-3.53161e-08
-1.38225e-08
-4.17509e-10
-4.03257e-08
-1.71753e-08
-5.32289e-10
-4.52587e-08
-2.11332e-08
-6.70538e-10
-5.00746e-08
-2.58632e-08
-8.35938e-10
-5.46518e-08
-3.15488e-08
-1.02995e-09
-5.87694e-08
-3.83813e-08
-1.24956e-09
-6.21105e-08
-4.65389e-08
-1.48412e-09
-6.43251e-08
-5.61403e-08
-1.7126e-09
-6.52127e-08
-6.7108e-08
-1.90485e-09
-6.49783e-08
-7.85582e-08
-2.03131e-09
-1.00102e-07
-2.14709e-09
-2.08611e-08
-2.37022e-09
-1.00165e-10
-4.01914e-08
-7.02788e-09
-2.99073e-10
-5.78583e-08
-1.15844e-08
-4.99664e-10
-7.43435e-08
-1.62334e-08
-7.13842e-10
-9.00397e-08
-2.12257e-08
-9.55784e-10
-1.0525e-07
-2.68071e-08
-1.23935e-09
-1.20179e-07
-3.32316e-08
-1.5783e-09
-1.349e-07
-4.07725e-08
-1.9856e-09
-1.49319e-07
-4.97256e-08
-2.47149e-09
-1.63106e-07
-6.04007e-08
-3.03924e-09
-1.7564e-07
-7.30927e-08
-3.67823e-09
-1.85994e-07
-8.80088e-08
-4.35459e-09
-1.93075e-07
-1.05114e-07
-5.00284e-09
-1.96085e-07
-1.23805e-07
-5.53023e-09
-1.95362e-07
-1.42042e-07
-5.85036e-09
-1.62152e-07
-5.94488e-09
-3.43666e-08
-3.41326e-09
-1.64114e-10
-6.61977e-08
-1.01161e-08
-4.89613e-10
-9.52723e-08
-1.66589e-08
-8.17047e-10
-1.22384e-07
-2.33089e-08
-1.16569e-09
-1.48183e-07
-3.04133e-08
-1.55834e-09
-1.73179e-07
-3.83058e-08
-2.01702e-09
-1.97729e-07
-4.73235e-08
-2.56332e-09
-2.22002e-07
-5.78179e-08
-3.21725e-09
-2.45911e-07
-7.01543e-08
-3.99391e-09
-2.69024e-07
-8.46916e-08
-4.89651e-09
-2.9045e-07
-1.01725e-07
-5.90507e-09
-3.08777e-07
-1.21356e-07
-6.9612e-09
-3.22192e-07
-1.43244e-07
-7.95479e-09
-3.29072e-07
-1.66177e-07
-8.73232e-09
-3.29389e-07
-1.87322e-07
-9.16041e-09
-2.08003e-07
-9.10205e-09
-4.72981e-08
-4.30183e-09
-2.23539e-10
-9.10813e-08
-1.27427e-08
-6.66241e-10
-1.31038e-07
-2.09593e-08
-1.11013e-09
-1.68259e-07
-2.92708e-08
-1.58094e-09
-2.03642e-07
-3.80929e-08
-2.10883e-09
-2.37906e-07
-4.7815e-08
-2.72265e-09
-2.7158e-07
-5.88181e-08
-3.45022e-09
-3.04972e-07
-7.1483e-08
-4.31686e-09
-3.38095e-07
-8.61838e-08
-5.34097e-09
-3.70557e-07
-1.03258e-07
-6.52495e-09
-4.01417e-07
-1.22927e-07
-7.8408e-09
-4.29043e-07
-1.45147e-07
-9.2104e-09
-4.51122e-07
-1.69321e-07
-1.0488e-08
-4.65174e-07
-1.93874e-07
-1.1472e-08
-4.70137e-07
-2.15734e-07
-1.19925e-08
-2.35219e-07
-1.192e-08
-5.94561e-08
-5.00341e-09
-2.76857e-10
-1.14455e-07
-1.48117e-08
-8.24226e-10
-1.6459e-07
-2.43299e-08
-1.37094e-09
-2.11226e-07
-3.39058e-08
-1.94797e-09
-2.55492e-07
-4.3994e-08
-2.59138e-09
-2.98307e-07
-5.50073e-08
-3.33517e-09
-3.40384e-07
-6.73325e-08
-4.21167e-09
-3.82208e-07
-8.13349e-08
-5.24993e-09
-4.23972e-07
-9.73461e-08
-6.47065e-09
-4.65474e-07
-1.15627e-07
-7.87633e-09
-5.05966e-07
-1.36292e-07
-9.43555e-09
-5.43946e-07
-1.59162e-07
-1.10614e-08
-5.76982e-07
-1.83517e-07
-1.259e-08
-6.0182e-07
-2.07718e-07
-1.37902e-08
-6.15367e-07
-2.28796e-07
-1.44523e-08
-2.46265e-07
-1.45204e-08
-7.06653e-08
-5.49664e-09
-3.22924e-10
-1.35981e-07
-1.62614e-08
-9.60196e-10
-1.95437e-07
-2.66735e-08
-1.59392e-09
-2.50639e-07
-3.70881e-08
-2.2589e-09
-3.02919e-07
-4.79708e-08
-2.99547e-09
-3.53378e-07
-5.97291e-08
-3.84108e-09
-4.02905e-07
-7.27239e-08
-4.83085e-09
-4.5217e-07
-8.72693e-08
-5.99601e-09
-5.01585e-07