/*--------------------------------*- C++ -*----------------------------------*\
| =========                 |                                                 |
| \\      /  F ield         | foam-extend: Open Source CFD                    |
|  \\    /   O peration     | Version:     3.1                                |
|   \\  /    A nd           | Web:         http://www.extend-project.de       |
|    \\/     M anipulation  |                                                 |
\*---------------------------------------------------------------------------*/
FoamFile
{
    version     2.0;
    format      ascii;
    class       volScalarField;
    location    "3";
    object      p;
}
// * * * * * * * * * * * * * * * * * * * * * * * * * * * * * * * * * * * * * //

dimensions      [0 2 -2 0 0 0 0];

internalField   nonuniform List<scalar> 
14592
(
0.0252906
0.0250992
0.0249098
0.0247431
0.0246114
0.0245236
0.0244843
0.024492
0.0245368
0.024599
0.0246481
0.024639
0.024505
0.0241368
0.0233794
0.0223184
0.0253115
0.0251025
0.0249125
0.0247486
0.0246172
0.0245273
0.0244853
0.0244913
0.0245373
0.0246045
0.0246628
0.0246673
0.0245528
0.0242082
0.0234111
0.0220712
0.0253025
0.0250778
0.024881
0.0247124
0.0245748
0.024478
0.0244308
0.0244365
0.0244898
0.0245747
0.0246634
0.0247134
0.0246602
0.0243838
0.0235696
0.021896
0.025265
0.0250265
0.0248197
0.0246427
0.0244954
0.0243881
0.0243322
0.0243344
0.0243934
0.0244969
0.0246211
0.0247273
0.0247557
0.0245884
0.0238446
0.0219404
0.0251998
0.0249502
0.0247337
0.0245477
0.0243898
0.0242695
0.0242
0.0241912
0.0242459
0.0243568
0.0245052
0.024659
0.024767
0.0247264
0.0241259
0.0221389
0.0251088
0.0248502
0.0246248
0.0244294
0.0242596
0.0241237
0.0240349
0.0240049
0.0240399
0.0241366
0.0242822
0.0244516
0.0246082
0.024678
0.024276
0.0223271
0.0249959
0.0247304
0.0244967
0.0242909
0.0241071
0.0239519
0.0238374
0.0237751
0.0237724
0.0238271
0.023929
0.0240554
0.024186
0.0242779
0.0240797
0.0221744
0.0248675
0.0245973
0.024356
0.0241385
0.0239382
0.0237598
0.0236137
0.0235097
0.0234535
0.0234398
0.0234543
0.0234609
0.0234379
0.0232901
0.0231331
0.0203189
0.02552
0.0253202
0.0251302
0.024972
0.0248583
0.0247995
0.0248029
0.02487
0.0249952
0.0251638
0.025353
0.0255298
0.0256498
0.0256433
0.0254532
0.0252828
0.0255437
0.0253245
0.0251329
0.0249775
0.0248643
0.0248036
0.0248042
0.0248699
0.0249967
0.0251716
0.0253719
0.0255649
0.0257069
0.0257214
0.0255392
0.0254573
0.0255367
0.0253012
0.0251024
0.0249432
0.0248247
0.0247578
0.0247542
0.0248211
0.0249584
0.0251567
0.0253965
0.0256488
0.0258726
0.0259848
0.0258779
0.0258999
0.0254986
0.0252492
0.0250406
0.0248738
0.0247471
0.0246715
0.0246611
0.0247271
0.0248744
0.0250985
0.0253866
0.0257165
0.0260569
0.0263284
0.0263503
0.0264978
0.0254295
0.0251689
0.0249504
0.0247751
0.0246391
0.0245523
0.0245302
0.0245875
0.0247337
0.0249709
0.0252939
0.0256902
0.0261413
0.0265811
0.0267788
0.0270766
0.0253309
0.0250613
0.0248333
0.0246483
0.0245008
0.0243989
0.024358
0.0243941
0.0245203
0.0247436
0.0250662
0.0254855
0.0260001
0.0265753
0.0269386
0.0273534
0.0252072
0.0249304
0.0246933
0.0244966
0.024334
0.0242113
0.0241426
0.0241428
0.0242255
0.0243982
0.0246657
0.0250282
0.025499
0.0260809
0.0265075
0.0267348
0.0250656
0.0247834
0.0245375
0.0243274
0.0241454
0.023996
0.0238904
0.023841
0.0238583
0.0239447
0.0240976
0.0242991
0.0245489
0.0247997
0.0249818
0.0231689
0.0257418
0.0255353
0.0253466
0.0251987
0.0251047
0.0250763
0.025123
0.0252494
0.0254527
0.0257224
0.0260395
0.0263769
0.0266988
0.0269517
0.0270941
0.0271916
0.0257683
0.0255411
0.0253496
0.0252046
0.0251113
0.025081
0.0251251
0.0252502
0.0254559
0.0257319
0.0260631
0.0264186
0.0267621
0.0270347
0.027208
0.0274284
0.0257634
0.0255192
0.0253206
0.0251724
0.0250748
0.0250395
0.0250807
0.025209
0.0254287
0.0257354
0.0261113
0.0265349
0.0269707
0.0273491
0.0276399
0.0280341
0.0257249
0.0254671
0.0252585
0.0251036
0.0249993
0.0249571
0.0249938
0.0251244
0.0253586
0.0256977
0.026134
0.0266513
0.0272237
0.027781
0.0282207
0.0288012
0.0256524
0.0253833
0.0251646
0.0250016
0.0248891
0.0248375
0.0248647
0.0249891
0.0252259
0.0255835
0.0260639
0.0266606
0.0273595
0.0280921
0.0287157
0.0294797
0.0255468
0.0252686
0.0250399
0.0248668
0.0247429
0.0246766
0.0246856
0.0247892
0.0250062
0.0253504
0.0258323
0.0264559
0.0272233
0.0280845
0.0288354
0.0296886
0.0254128
0.0251272
0.0248885
0.0247025
0.0245621
0.0244736
0.0244525
0.0245169
0.0246852
0.0249714
0.0253882
0.0259423
0.0266484
0.0274811
0.0281805
0.028685
0.0252583
0.0249668
0.0247183
0.0245168
0.0243544
0.0242354
0.0241723
0.0241797
0.0242716
0.0244552
0.024734
0.0250936
0.0255301
0.0259615
0.026225
0.0241964
0.0259457
0.025734
0.0255479
0.0254108
0.0253362
0.0253371
0.0254248
0.0256059
0.0258802
0.0262389
0.0266643
0.0271302
0.0276014
0.0280277
0.0283573
0.0285504
0.0259748
0.0257415
0.0255513
0.0254172
0.0253435
0.0253427
0.0254278
0.0256079
0.0258843
0.0262522
0.0266923
0.0271774
0.0276696
0.0281144
0.0284787
0.0287836
0.0259719
0.0257212
0.0255238
0.0253871
0.0253102
0.0253054
0.025389
0.0255744
0.025869
0.0262681
0.0267599
0.0273187
0.0279063
0.0284595
0.0289449
0.0294258
0.0259333
0.025669
0.0254617
0.0253191
0.0252368
0.025227
0.0253083
0.025499
0.0258123
0.0262522
0.0268129
0.0274761
0.0282094
0.0289317
0.0295671
0.0302376
0.0258578
0.0255823
0.0253648
0.0252142
0.0251248
0.025107
0.025181
0.025368
0.025687
0.0261501
0.0267608
0.0275105
0.028376
0.0292729
0.0300771
0.0309219
0.025746
0.0254613
0.0252333
0.0250722
0.0249712
0.0249392
0.0249954
0.0251621
0.0254617
0.0259116
0.0265246
0.0273021
0.0282353
0.0292478
0.0301422
0.0310414
0.0256027
0.0253103
0.0250716
0.0248964
0.0247776
0.0247217
0.0247459
0.0248705
0.0251169
0.0255026
0.0260422
0.0267392
0.0275961
0.0285502
0.0293161
0.0297697
0.0254363
0.0251377
0.024888
0.0246955
0.0245522
0.0244623
0.0244398
0.0245008
0.0246613
0.0249308
0.0253136
0.0257908
0.0263446
0.0268508
0.0270739
0.024724
0.0261221
0.0259067
0.0257233
0.0255963
0.0255394
0.0255662
0.0256896
0.0259172
0.026252
0.0266837
0.0271948
0.0277572
0.0283323
0.0288673
0.029299
0.0295239
0.0261535
0.0259155
0.0257273
0.0256033
0.0255474
0.0255727
0.0256937
0.0259214
0.0262581
0.026699
0.0272258
0.0278081
0.0284036
0.0289556
0.0294187
0.0297486
0.0261523
0.0258968
0.0257012
0.0255753
0.025517
0.0255393
0.0256599
0.0258941
0.0262501
0.0267247
0.027307
0.027966
0.0286565
0.0293143
0.0298934
0.0303921
0.0261138
0.0258448
0.0256394
0.025508
0.0254456
0.0254644
0.0255848
0.025827
0.0262069
0.0267311
0.0273888
0.0281581
0.0289972
0.0298112
0.0305277
0.0312082
0.0260358
0.0257557
0.0255399
0.0254008
0.025332
0.0253441
0.0254588
0.0256996
0.0260878
0.0266367
0.0273482
0.0282076
0.0291792
0.030162
0.0310315
0.0318726
0.0259187
0.0256294
0.0254027
0.0252527
0.0251722
0.0251702
0.0252676
0.0254885
0.0258573
0.0263928
0.0271066
0.0279932
0.0290297
0.0301156
0.0310474
0.0319172
0.0257674
0.0254702
0.0252321
0.025067
0.0249674
0.0249402
0.0250038
0.0251802
0.0254924
0.0259585
0.0265922
0.0273899
0.0283387
0.029345
0.0300998
0.0304635
0.0255907
0.0252869
0.025037
0.0248529
0.0247266
0.0246625
0.0246755
0.0247827
0.0250012
0.0253406
0.0258033
0.0263632
0.0269866
0.0275152
0.0276662
0.0250474
0.0262626
0.0260449
0.0258639
0.0257454
0.0257028
0.0257507
0.0259027
0.026168
0.0265485
0.0270356
0.0276096
0.0282397
0.0288827
0.0294815
0.0299658
0.0302049
0.0262958
0.0260544
0.0258684
0.0257529
0.0257116
0.025758
0.0259075
0.0261714
0.0265556
0.0270528
0.0276434
0.028294
0.0289567
0.0295714
0.0300843
0.0304198
0.0262961
0.0260372
0.0258436
0.0257266
0.0256836
0.0257278
0.025878
0.0261509
0.026554
0.0270897
0.0277391
0.0284679
0.0292216
0.0299348
0.0305584
0.0310557
0.0262577
0.0259855
0.025782
0.02566
0.0256138
0.0256557
0.0258072
0.0260901
0.0265215
0.0271045
0.0278317
0.0286736
0.0295817
0.0304479
0.0311936
0.0318647
0.0261777
0.0258946
0.0256805
0.025551
0.0254989
0.0255352
0.0256824
0.0259654
0.0264066
0.0270191
0.0278031
0.0287368
0.0297736
0.0307989
0.0316857
0.0325069
0.0260565
0.025764
0.0255389
0.025398
0.0253342
0.0253564
0.0254865
0.0257499
0.026172
0.0267714
0.0275573
0.0285172
0.0296153
0.0307337
0.0316641
0.0324971
0.0258989
0.0255983
0.0253613
0.0252045
0.0251206
0.0251164
0.0252114
0.0254285
0.0257912
0.0263176
0.0270185
0.0278833
0.0288858
0.0299109
0.0306345
0.0309228
0.025714
0.0254066
0.025157
0.02498
0.0248675
0.0248241
0.0248653
0.025009
0.0252724
0.0256643
0.0261844
0.026799
0.0274619
0.0279903
0.0280742
0.0252589
0.0263605
0.0261417
0.0259626
0.0258502
0.0258181
0.0258809
0.0260529
0.0263442
0.0267563
0.0272806
0.0278961
0.028569
0.0292524
0.0298848
0.0303988
0.0306393
0.0263948
0.0261516
0.0259677
0.0258587
0.0258281
0.0258898
0.0260596
0.0263498
0.0267658
0.0273011
0.0279339
0.0286281
0.0293314
0.0299804
0.0305171
0.0308499
0.026396
0.0261356
0.0259438
0.0258337
0.025802
0.0258621
0.0260332
0.0263326
0.026769
0.0273458
0.0280395
0.028813
0.0296052
0.0303475
0.03099
0.0314791
0.0263577
0.0260839
0.0258823
0.0257674
0.0257331
0.0257916
0.0259653
0.0262767
0.0267441
0.0273675
0.0281406
0.0290283
0.0299765
0.0308695
0.0316229
0.0322806
0.0262764
0.0259917
0.0257793
0.0256569
0.025617
0.0256705
0.0258408
0.0261534
0.0266313
0.0272868
0.0281185
0.029099
0.0301738
0.0312189
0.0321057
0.0329065
0.0261523
0.0258582
0.0256345
0.0255005
0.0254486
0.025488
0.0256412
0.0259344
0.0263931
0.0270357
0.0278689
0.0288748
0.0300083
0.0311403
0.0320595
0.0328617
0.0259903
0.025688
0.025452
0.0253014
0.0252287
0.025241
0.025358
0.0256033
0.0260009
0.026568
0.027313
0.0282198
0.0292527
0.0302832
0.0309781
0.0312123
0.0257997
0.0254903
0.0252413
0.0250696
0.0249671
0.0249384
0.0249994
0.0251685
0.0254629
0.0258905
0.0264484
0.0270974
0.0277818
0.028304
0.0283374
0.0253945
0.0264092
0.0261895
0.0260109
0.0259012
0.0258739
0.0259436
0.0261249
0.0264283
0.0268553
0.027397
0.0280314
0.0287236
0.0294246
0.0300707
0.0305984
0.0308416
0.0264438
0.0261994
0.0260155
0.0259089
0.0258829
0.0259512
0.0261302
0.0264323
0.0268631
0.0274157
0.0280676
0.0287811
0.029502
0.0301657
0.0307136
0.0310493
0.0264456
0.026184
0.0259922
0.0258844
0.0258574
0.0259243
0.0261047
0.0264161
0.0268683
0.0274622
0.0281752
0.0289681
0.0297763
0.0305306
0.0311822
0.0316712
0.0264074
0.0261326
0.0259309
0.0258186
0.0257893
0.0258551
0.0260385
0.0263623
0.0268445
0.027487
0.0282803
0.0291878
0.0301522
0.0310551
0.0318131
0.0324667
0.0263256
0.0260399
0.0258276
0.0257078
0.0256732
0.0257344
0.0259148
0.0262404
0.0267344
0.027409
0.0282614
0.0292617
0.0303513
0.0314029
0.032291
0.0330843
0.0262002
0.0259051
0.0256814
0.02555
0.0255034
0.0255506
0.0257141
0.0260205
0.0264954
0.0271569
0.0280103
0.0290353
0.0301822
0.0313173
0.0322326
0.0330229
0.026036
0.0257327
0.0254966
0.0253484
0.0252807
0.0253004
0.0254274
0.0256854
0.0260984
0.0266832
0.0274468
0.0283706
0.0294141
0.0304428
0.0311227
0.0313276
0.0258426
0.0255321
0.0252828
0.0251131
0.025015
0.024993
0.0250631
0.0252436
0.0255517
0.0259948
0.0265685
0.0272314
0.0279222
0.0284366
0.0284243
0.02542
0.0241782
0.0241222
0.0240289
0.0239144
0.0237881
0.0236519
0.023499
0.0233172
0.0230885
0.0227889
0.0223892
0.0218567
0.0211574
0.0202622
0.0191507
0.0178377
0.0241864
0.0241302
0.0240394
0.0239274
0.0238042
0.0236699
0.0235196
0.0233413
0.0231173
0.0228228
0.0224285
0.0219017
0.0212078
0.0203178
0.0192078
0.0178948
0.0241804
0.0241197
0.0240278
0.0239165
0.0237956
0.0236663
0.0235233
0.0233545
0.0231408
0.0228585
0.0224779
0.021967
0.0212904
0.0204208
0.0193291
0.0180364
0.024158
0.0240889
0.0239909
0.0238754
0.0237527
0.0236248
0.0234866
0.0233257
0.0231232
0.0228545
0.0224899
0.0219966
0.02134
0.0204942
0.0194259
0.0181603
0.0241202
0.024042
0.0239348
0.0238109
0.0236815
0.0235498
0.0234114
0.023254
0.0230587
0.0228
0.0224481
0.0219704
0.0213317
0.0205083
0.019464
0.0182275
0.0240695
0.0239832
0.0238665
0.0237323
0.0235933
0.0234536
0.02331
0.0231509
0.0229572
0.0227034
0.0223593
0.0218927
0.0212688
0.0204655
0.0194464
0.0182416
0.0240087
0.0239164
0.0237915
0.0236476
0.0234983
0.0233489
0.0231969
0.0230316
0.0228343
0.0225797
0.022238
0.0217775
0.0211647
0.0203793
0.0193873
0.0182179
0.0239412
0.0238452
0.0237144
0.0235629
0.0234048
0.023246
0.0230846
0.0229105
0.0227056
0.0224453
0.0221007
0.0216417
0.0210365
0.0202669
0.0193037
0.0181733
0.0241974
0.0241247
0.0240197
0.0238964
0.0237634
0.0236212
0.0234639
0.0232795
0.0230491
0.0227484
0.0223475
0.0218128
0.021109
0.0202062
0.0190813
0.0177532
0.0242044
0.0241289
0.0240253
0.0239025
0.0237693
0.0236267
0.0234692
0.0232846
0.0230549
0.0227556
0.0223568
0.0218244
0.021123
0.0202241
0.0191005
0.0177771
0.0241978
0.0241152
0.0240086
0.0238837
0.0237495
0.0236076
0.0234532
0.0232745
0.0230531
0.0227637
0.0223763
0.0218579
0.0211715
0.0202915
0.0191843
0.0178825
0.0241762
0.0240839
0.0239702
0.0238392
0.0237005
0.0235567
0.0234038
0.0232302
0.0230172
0.0227395
0.0223666
0.0218651
0.0211977
0.0203409
0.0192544
0.0179789
0.02414
0.0240385
0.0239161
0.0237763
0.0236294
0.0234796
0.0233239
0.0231515
0.0229437
0.0226748
0.0223138
0.0218276
0.0211778
0.0203435
0.0192803
0.0180337
0.0240905
0.0239817
0.0238509
0.0237016
0.0235448
0.0233859
0.0232235
0.0230477
0.0228401
0.0225752
0.0222219
0.0217471
0.0211128
0.0202998
0.0192628
0.0180492
0.0240303
0.0239163
0.0237788
0.0236209
0.0234543
0.0232856
0.0231142
0.0229314
0.0227195
0.0224536
0.0221027
0.0216349
0.021013
0.0202198
0.0192124
0.0180366
0.0239626
0.0238458
0.0237036
0.0235392
0.0233646
0.0231869
0.0230062
0.0228146
0.0225953
0.022324
0.0219709
0.0215055
0.0208931
0.0201179
0.019143
0.0180091
0.0242563
0.0241626
0.0240403
0.0239033
0.0237602
0.023612
0.0234528
0.0232706
0.0230458
0.0227533
0.0223599
0.0218282
0.0211165
0.0201858
0.0189995
0.0175765
0.0242642
0.0241657
0.0240449
0.0239081
0.023764
0.023614
0.0234534
0.0232703
0.023046
0.0227539
0.0223622
0.0218321
0.0211239
0.0201985
0.0190139
0.0176004
0.0242557
0.0241485
0.0240235
0.0238827
0.0237351
0.0235835
0.0234238
0.0232446
0.0230271
0.0227448
0.0223654
0.0218521
0.0211578
0.0202522
0.0190816
0.0176898
0.0242322
0.0241143
0.023981
0.0238321
0.0236772
0.0235207
0.0233597
0.0231836
0.0229733
0.0227022
0.0223368
0.0218397
0.0211648
0.0202823
0.0191287
0.0177623
0.0241945
0.0240671
0.0239248
0.0237659
0.0236007
0.0234352
0.0232686
0.0230912
0.0228842
0.0226209
0.0222671
0.0217851
0.021128
0.0202682
0.0191358
0.0177996
0.0241436
0.0240089
0.0238587
0.02369
0.0235134
0.0233368
0.0231608
0.0229773
0.0227687
0.022508
0.0221612
0.0216906
0.0210492
0.0202122
0.0191074
0.0178092
0.0240815
0.0239419
0.0237856
0.0236086
0.0234218
0.0232338
0.0230469
0.0228544
0.0226396
0.0223764
0.0220312
0.0215673
0.0209391
0.0201244
0.0190543
0.0178027
0.0240113
0.0238691
0.0237089
0.0235259
0.023331
0.0231334
0.0229361
0.0227336
0.0225099
0.0222401
0.0218917
0.0214299
0.0208121
0.0200186
0.0189893
0.0177911
0.0243545
0.0242396
0.0240995
0.0239486
0.0237964
0.0236446
0.0234882
0.0233151
0.0231055
0.0228317
0.022457
0.0219381
0.0212193
0.0202431
0.018946
0.0173323
0.0243641
0.0242426
0.0241044
0.0239544
0.0238014
0.0236479
0.0234899
0.023316
0.0231069
0.0228348
0.0224639
0.021948
0.0212338
0.0202655
0.0189701
0.0173697
0.0243537
0.0242221
0.024079
0.0239241
0.0237662
0.0236093
0.0234508
0.0232798
0.0230772
0.022815
0.0224567
0.0219574
0.0212603
0.0203136
0.0190279
0.0174394
0.0243269
0.0241836
0.0240315
0.0238669
0.0236995
0.0235352
0.0233729
0.023203
0.0230064
0.0227548
0.0224104
0.0219281
0.0212487
0.0203221
0.0190455
0.017476
0.0242855
0.0241324
0.0239708
0.0237952
0.0236155
0.0234395
0.0232685
0.0230945
0.022899
0.0226536
0.0223199
0.021852
0.0211891
0.0202838
0.019024
0.0174855
0.0242305
0.0240699
0.0239004
0.0237146
0.0235222
0.0233326
0.0231492
0.022966
0.0227659
0.0225208
0.0221923
0.0217345
0.0210868
0.0202051
0.0189746
0.0174839
0.0241639
0.0239981
0.0238227
0.0236287
0.0234251
0.0232223
0.0230254
0.0228301
0.0226207
0.0223702
0.0220408
0.0215881
0.0209533
0.0200969
0.0189091
0.0174838
0.0240888
0.0239203
0.0237411
0.0235409
0.0233286
0.023115
0.0229058
0.0226978
0.0224767
0.0222165
0.0218811
0.0214282
0.0208034
0.0199722
0.0188384
0.0174923
0.0244884
0.0243537
0.0241973
0.0240348
0.0238765
0.0237251
0.0235769
0.0234204
0.0232358
0.0229935
0.0226529
0.0221599
0.0214437
0.0204146
0.0189629
0.0170457
0.0245003
0.0243563
0.024202
0.024041
0.0238822
0.0237291
0.0235792
0.0234219
0.0232379
0.0229979
0.0226614
0.0221742
0.0214634
0.0204439
0.0189944
0.0170852
0.0244883
0.0243331
0.0241733
0.0240068
0.0238419
0.0236839
0.0235317
0.0233759
0.0231976
0.0229673
0.0226439
0.0221722
0.0214777
0.0204729
0.0190189
0.0170926
0.0244581
0.0242907
0.0241212
0.0239443
0.0237682
0.0236004
0.0234418
0.0232847
0.0231105
0.0228894
0.0225792
0.0221229
0.0214429
0.0204497
0.0189915
0.0170589
0.024412
0.0242343
0.0240553
0.023867
0.0236774
0.0234958
0.0233255
0.0231609
0.0229849
0.0227677
0.0224662
0.022022
0.0213556
0.0203773
0.0189294
0.0170217
0.0243512
0.0241657
0.0239788
0.0237803
0.0235773
0.0233802
0.0231946
0.0230172
0.0228327
0.0226122
0.0223128
0.0218761
0.021223
0.0202671
0.0188516
0.0170068
0.0242778
0.024087
0.0238942
0.0236873
0.0234725
0.0232606
0.0230587
0.0228655
0.0226674
0.0224368
0.0221322
0.0216968
0.0210556
0.0201285
0.0187683
0.0170248
0.0241955
0.0240016
0.0238047
0.0235914
0.0233671
0.0231426
0.0229258
0.0227163
0.0225019
0.0222565
0.0219404
0.0215002
0.0208673
0.0199714
0.0186848
0.017074
0.0246549
0.0245025
0.0243326
0.0241622
0.0240023
0.0238569
0.0237239
0.0235933
0.0234457
0.0232509
0.0229647
0.0225234
0.0218342
0.0207625
0.019118
0.0167532
0.0246689
0.0245048
0.0243367
0.0241683
0.0240082
0.023861
0.023726
0.0235943
0.0234473
0.023255
0.0229733
0.0225378
0.0218535
0.0207818
0.0191172
0.0166997
0.0246564
0.0244798
0.0243058
0.0241318
0.0239647
0.0238112
0.0236722
0.0235405
0.0233983
0.0232155
0.0229471
0.0225263
0.0218524
0.0207737
0.01906
0.0165149
0.0246234
0.024434
0.0242501
0.0240654
0.0238864
0.0237215
0.0235739
0.0234384
0.0232985
0.0231238
0.0228682
0.0224614
0.0217964
0.0207071
0.0189528
0.016308
0.0245723
0.0243723
0.0241789
0.0239831
0.0237904
0.0236103
0.0234488
0.0233029
0.0231583
0.0229852
0.0227368
0.02234
0.0216853
0.0205962
0.0188356
0.0161627
0.0245044
0.0242964
0.0240951
0.0238895
0.0236833
0.0234868
0.0233076
0.0231455
0.0229882
0.0228077
0.0225579
0.0221653
0.0215224
0.0204502
0.0187267
0.0161117
0.0244226
0.0242088
0.0240014
0.0237873
0.023569
0.0233564
0.0231582
0.0229761
0.0227998
0.022603
0.0223417
0.0219443
0.0213115
0.0202712
0.0186292
0.0161689
0.024331
0.0241138
0.0239017
0.0236804
0.0234514
0.0232243
0.023008
0.0228048
0.0226059
0.022386
0.022104
0.0216916
0.0210624
0.0200623
0.0185411
0.0163402
0.0248491
0.0246812
0.0245013
0.0243277
0.0241718
0.0240391
0.0239295
0.0238353
0.0237388
0.0236111
0.0234075
0.0230591
0.0224554
0.0214058
0.0195793
0.0165874
0.024865
0.0246834
0.0245048
0.0243336
0.0241776
0.024043
0.0239311
0.0238354
0.0237395
0.0236147
0.0234162
0.0230741
0.0224718
0.0214006
0.0194622
0.0161599
0.0248531
0.0246577
0.0244729
0.024296
0.0241328
0.0239911
0.0238741
0.0237773
0.0236858
0.0235713
0.0233885
0.0230641
0.0224711
0.0213649
0.0192718
0.015524
0.024818
0.0246093
0.0244145
0.0242275
0.0240525
0.0238987
0.0237718
0.0236699
0.0235799
0.0234744
0.0233073
0.0230014
0.0224199
0.0212843
0.0190804
0.0149666
0.0247618
0.0245424
0.024338
0.0241406
0.0239526
0.0237835
0.0236415
0.0235275
0.0234311
0.0233265
0.0231681
0.0228763
0.0223105
0.0211679
0.0189307
0.0146013
0.0246864
0.0244586
0.0242462
0.0240392
0.0238382
0.0236524
0.0234914
0.0233585
0.023246
0.0231304
0.0229684
0.0226802
0.0221305
0.0210043
0.018816
0.0144434
0.0245949
0.0243609
0.0241418
0.0239261
0.0237125
0.0235097
0.0233273
0.0231702
0.0230327
0.022893
0.0227108
0.0224085
0.0218653
0.0207707
0.0187154
0.0145114
0.0244922
0.0242543
0.0240297
0.0238057
0.0235799
0.0233602
0.0231558
0.0229716
0.0228029
0.0226283
0.0224097
0.0220709
0.0215115
0.0204435
0.0186108
0.0148913
0.0250638
0.0248829
0.0246967
0.0245245
0.0243783
0.0242651
0.0241873
0.0241398
0.0241087
0.0240685
0.0239796
0.0237794
0.0233644
0.0225348
0.0208646
0.0175377
0.025082
0.0248855
0.0246997
0.0245301
0.0243839
0.0242688
0.0241884
0.0241393
0.0241088
0.0240724
0.0239905
0.0238002
0.023392
0.0225455
0.0206898
0.0166412
0.0250714
0.02486
0.0246676
0.0244928
0.0243398
0.0242172
0.0241313
0.024081
0.0240558
0.0240325
0.0239723
0.0238111
0.0234318
0.0225741
0.0205083
0.015628
0.0250348
0.0248098
0.0246074
0.0244233
0.0242593
0.0241251
0.0240292
0.0239739
0.0239514
0.0239407
0.0239042
0.0237772
0.0234364
0.0225907
0.0204122
0.0148686
0.0249738
0.0247379
0.024526
0.0243322
0.0241562
0.0240076
0.0238969
0.0238293
0.0238005
0.0237927
0.0237711
0.0236721
0.0233731
0.0225662
0.0203873
0.0144189
0.0248908
0.024646
0.0244257
0.0242225
0.0240342
0.0238693
0.0237391
0.0236509
0.0236036
0.0235825
0.0235569
0.0234662
0.0231978
0.022441
0.0203645
0.0142125
0.0247887
0.0245375
0.0243097
0.024097
0.0238956
0.0237126
0.0235589
0.0234424
0.0233637
0.0233097
0.0232528
0.0231348
0.0228618
0.022132
0.02025
0.0141764
0.0246735
0.024418
0.0241837
0.0239613
0.0237457
0.0235428
0.0233625
0.023212
0.0230916
0.0229871
0.0228706
0.0226788
0.022335
0.0215299
0.0199095
0.0142489
0.0247321
0.0244592
0.0242115
0.0239817
0.023763
0.0235588
0.0233778
0.0232272
0.0231093
0.0230127
0.0229139
0.0227509
0.022459
0.02172
0.0202606
0.0148259
0.0245989
0.0243258
0.0240733
0.0238319
0.0235947
0.023365
0.02315
0.0229547
0.0227773
0.022601
0.0223931
0.0220785
0.0215615
0.0205459
0.0187589
0.0151412
0.0244773
0.0242068
0.023952
0.0237009
0.0234478
0.0231964
0.0229532
0.0227214
0.0224961
0.0222578
0.0219697
0.0215658
0.0209519
0.0199813
0.0184387
0.0163292
0.0243753
0.0241105
0.0238565
0.0235993
0.0233354
0.0230696
0.0228077
0.0225516
0.0222942
0.022016
0.0216806
0.0212386
0.0206096
0.0197405
0.0184434
0.0169007
0.0242978
0.0240423
0.0237923
0.0235341
0.0232666
0.0229954
0.0227256
0.0224575
0.0221826
0.0218817
0.0215217
0.021065
0.0204459
0.0196455
0.0185251
0.0172306
0.0242458
0.0240031
0.0237603
0.0235062
0.0232424
0.0229743
0.0227059
0.0224355
0.0221534
0.021841
0.0214682
0.0210042
0.0203971
0.0196367
0.0186365
0.017485
0.0242146
0.0239887
0.0237545
0.0235074
0.0232521
0.0229935
0.0227339
0.0224699
0.0221906
0.0218771
0.0215019
0.0210363
0.0204388
0.0196974
0.0187586
0.0176704
0.0241921
0.0239882
0.0237604
0.0235182
0.0232703
0.023022
0.0227745
0.0225233
0.0222562
0.0219533
0.0215877
0.0211298
0.020542
0.0198067
0.0188821
0.0177974
0.0249153
0.0246298
0.0243762
0.0241513
0.0239471
0.0237664
0.023618
0.0235109
0.0234501
0.0234292
0.0234311
0.0234004
0.0232705
0.0227002
0.0211861
0.015112
0.0247668
0.0244806
0.0242209
0.0239815
0.0237544
0.0235415
0.0233499
0.0231852
0.0230473
0.0229214
0.0227764
0.0225331
0.0220813
0.0210657
0.0190945
0.0148448
0.0246308
0.0243467
0.0240835
0.0238317
0.023584
0.0233425
0.0231134
0.0229001
0.0226985
0.0224898
0.0222358
0.0218638
0.0212651
0.0202576
0.0185789
0.0161878
0.0245166
0.0242377
0.0239742
0.023714
0.0234511
0.023189
0.0229333
0.0226861
0.022441
0.0221786
0.0218605
0.0214326
0.0208027
0.0199073
0.0185216
0.0168531
0.0244292
0.0241595
0.0238996
0.0236362
0.0233662
0.0230941
0.0228251
0.0225599
0.0222908
0.0219988
0.0216484
0.0211995
0.0205768
0.0197597
0.0185789
0.0172101
0.0243702
0.0241135
0.0238606
0.0236
0.0233314
0.0230601
0.0227899
0.0225202
0.0222417
0.0219356
0.0215701
0.0211121
0.0205022
0.0197306
0.01869
0.0174892
0.0243346
0.0240955
0.0238513
0.0235973
0.0233367
0.0230745
0.0228134
0.0225505
0.0222753
0.0219686
0.021601
0.0211418
0.0205435
0.0197941
0.0188269
0.0177008
0.0243097
0.0240945
0.0238578
0.023609
0.0233563
0.0231051
0.0228573
0.0226088
0.0223476
0.0220534
0.0216972
0.0212473
0.0206612
0.0199196
0.0189709
0.0178502
0.0250934
0.024798
0.0245404
0.0243217
0.0241333
0.0239777
0.0238643
0.0238031
0.0238014
0.0238554
0.0239503
0.0240284
0.0240096
0.0235008
0.0218827
0.0152253
0.0249299
0.024633
0.024368
0.0241322
0.0239165
0.0237223
0.0235567
0.0234255
0.0233297
0.023255
0.0231695
0.0229867
0.0225793
0.0215378
0.0194048
0.0147009
0.0247796
0.0244842
0.0242145
0.0239637
0.023723
0.0234936
0.0232814
0.0230896
0.0229146
0.022737
0.0225165
0.0221727
0.0215823
0.0205322
0.0187292
0.0161053
0.0246527
0.0243622
0.0240914
0.0238298
0.0235699
0.0233139
0.0230671
0.0228318
0.0226016
0.0223567
0.0220563
0.0216412
0.0210081
0.020083
0.0186137
0.0168289
0.0245555
0.0242739
0.0240061
0.0237396
0.0234692
0.0231986
0.0229329
0.0226733
0.0224121
0.0221302
0.02179
0.0213485
0.0207213
0.0198862
0.018649
0.0172106
0.0244894
0.024221
0.0239599
0.0236948
0.0234238
0.0231514
0.0228818
0.0226148
0.0223413
0.0220426
0.0216848
0.0212328
0.0206201
0.019837
0.0187588
0.0175112
0.0244495
0.0241993
0.0239473
0.0236883
0.0234246
0.0231608
0.0229
0.0226399
0.02237
0.0220708
0.0217112
0.0212584
0.0206595
0.0199022
0.0189082
0.0177458
0.0244223
0.0241979
0.0239543
0.0237008
0.0234454
0.0231934
0.0229471
0.0227027
0.0224484
0.0221635
0.0218171
0.0213753
0.0207908
0.0200429
0.0190713
0.0179163
0.0252578
0.0249548
0.0246948
0.0244828
0.02431
0.0241786
0.0240989
0.0240816
0.0241351
0.0242561
0.024429
0.0245886
0.0246385
0.024137
0.0223859
0.0152339
0.0250803
0.0247751
0.0245064
0.0242748
0.0240707
0.0238951
0.0237549
0.0236566
0.0236009
0.0235731
0.0235388
0.0234021
0.0230199
0.0219387
0.019658
0.0146051
0.0249166
0.0246122
0.0243377
0.0240887
0.0238556
0.0236388
0.0234439
0.0232741
0.0231254
0.0229773
0.0227865
0.0224644
0.0218754
0.0207813
0.0188674
0.0160572
0.0247778
0.0244779
0.0242014
0.0239396
0.0236837
0.0234349
0.0231982
0.0229758
0.0227612
0.0225336
0.0222495
0.0218445
0.0212058
0.0202507
0.0187064
0.0168218
0.0246711
0.02438
0.024106
0.0238376
0.0235683
0.0233007
0.0230398
0.022787
0.0225347
0.0222633
0.0219329
0.0214976
0.0208653
0.0200121
0.0187248
0.0172247
0.0245984
0.0243204
0.024053
0.0237849
0.023513
0.0232412
0.0229736
0.0227105
0.022443
0.022152
0.0218017
0.0213552
0.0207397
0.0199455
0.0188339
0.0175441
0.0245543
0.0242951
0.024037
0.0237747
0.0235094
0.0232457
0.0229865
0.0227301
0.0224661
0.0221746
0.0218228
0.0213761
0.0207766
0.0200118
0.0189939
0.0177983
0.0245252
0.0242932
0.0240444
0.023788
0.0235314
0.02328
0.0230363
0.0227969
0.02255
0.0222743
0.0219373
0.021503
0.0209199
0.0201661
0.0191737
0.0179874
0.0254005
0.0250917
0.0248305
0.0246249
0.0244661
0.0243562
0.0243061
0.0243271
0.0244278
0.024604
0.0248375
0.0250545
0.0251431
0.0246227
0.0227444
0.0151973
0.0252107
0.0248991
0.0246281
0.0244007
0.0242073
0.0240482
0.0239309
0.0238616
0.0238409
0.0238524
0.0238585
0.0237543
0.0233831
0.0222575
0.0198504
0.0145297
0.0250351
0.0247239
0.0244459
0.0241992
0.0239733
0.0237682
0.0235891
0.0234393
0.023314
0.0231913
0.0230245
0.0227179
0.0221251
0.0209892
0.0189824
0.0160285
0.0248858
0.0245787
0.0242981
0.0240367
0.0237849
0.0235432
0.0233164
0.0231063
0.0229061
0.0226938
0.0224233
0.0220256
0.0213799
0.0203969
0.0187896
0.0168245
0.0247708
0.0244722
0.0241936
0.0239243
0.0236566
0.0233927
0.023137
0.0228912
0.0226475
0.0223856
0.0220637
0.0216333
0.0209958
0.020126
0.0187965
0.017245
0.0246922
0.0244067
0.0241345
0.0238646
0.0235928
0.0233223
0.0230576
0.0227987
0.0225372
0.0222534
0.0219099
0.0214682
0.0208499
0.0200457
0.0189059
0.0175803
0.0246446
0.0243783
0.0241156
0.0238511
0.0235853
0.0233224
0.0230656
0.0228132
0.022555
0.0222707
0.0219259
0.0214846
0.0208846
0.020113
0.0190748
0.0178509
0.0246137
0.0243758
0.0241233
0.0238651
0.0236084
0.0233583
0.0231177
0.0228834
0.0226436
0.0223763
0.0220477
0.02162
0.021038
0.0202788
0.0192685
0.0180553
0.0255144
0.0252016
0.0249398
0.0247397
0.0245923
0.0244999
0.0244735
0.0245249
0.0246624
0.0248804
0.0251577
0.0254127
0.0255215
0.0249748
0.0229941
0.015157
0.0253146
0.0249986
0.0247261
0.0245025
0.0243179
0.0241724
0.0240736
0.0240275
0.0240345
0.0240763
0.024112
0.0240292
0.0236608
0.0224945
0.0199893
0.0144752
0.0251295
0.0248133
0.0245332
0.0242886
0.0240688
0.0238733
0.0237074
0.0235739
0.0234676
0.0233648
0.023216
0.0229193
0.0223205
0.0211493
0.0190709
0.0160135
0.0249718
0.0246594
0.0243759
0.0241153
0.0238672
0.0236317
0.0234133
0.0232135
0.0230253
0.0228254
0.0225653
0.0221724
0.0215197
0.0205136
0.0188579
0.0168329
0.0248501
0.0245459
0.0242641
0.0239945
0.0237287
0.0234681
0.0232173
0.0229776
0.0227413
0.0224874
0.0221723
0.0217454
0.0211031
0.0202195
0.0188575
0.0172666
0.0247666
0.0244756
0.0242001
0.0239292
0.0236579
0.0233892
0.0231272
0.0228723
0.022616
0.0223383
0.0220004
0.0215624
0.0209418
0.0201293
0.0189677
0.0176141
0.0247162
0.0244446
0.0241788
0.0239131
0.0236474
0.0233857
0.0231312
0.0228825
0.0226294
0.0223511
0.0220121
0.0215752
0.0209747
0.0201975
0.0191434
0.017897
0.0246839
0.0244418
0.0241867
0.0239275
0.0236711
0.0234227
0.0231851
0.0229553
0.0227215
0.0224613
0.0221396
0.0217171
0.0211359
0.0203721
0.0193477
0.0181133
0.0255935
0.0252784
0.0250166
0.0248207
0.0246817
0.0246016
0.024592
0.0246646
0.0248278
0.0250746
0.0253813
0.0256605
0.02578
0.0252127
0.0231629
0.015141
0.0253869
0.0250682
0.024795
0.0245744
0.0243963
0.0242605
0.0241749
0.0241455
0.024172
0.0242349
0.024291
0.0242221
0.0238538
0.0226576
0.0200853
0.0144465
0.0251951
0.024876
0.0245945
0.0243518
0.0241367
0.0239483
0.023792
0.0236704
0.0235778
0.0234893
0.0233531
0.023063
0.022459
0.0212619
0.0191347
0.0160113
0.0250315
0.0247159
0.0244307
0.024171
0.023926
0.0236952
0.0234831
0.0232913
0.023112
0.0229213
0.0226689
0.0222792
0.0216214
0.0205987
0.0189108
0.0168475
0.0249051
0.0245976
0.0243138
0.0240445
0.0237804
0.0235226
0.0232758
0.0230411
0.0228106
0.0225628
0.0222529
0.0218286
0.0211831
0.0202899
0.0189063
0.017289
0.0248183
0.024524
0.0242464
0.0239753
0.0237049
0.0234378
0.0231783
0.0229269
0.0226748
0.0224018
0.0220683
0.021633
0.021011
0.0201927
0.0190164
0.0176433
0.0247659
0.0244912
0.0242235
0.0239573
0.0236921
0.0234316
0.0231793
0.0229337
0.0226845
0.0224109
0.0220762
0.0216424
0.0210417
0.0202605
0.0191955
0.0179335
0.0247326
0.0244879
0.0242312
0.0239717
0.0237159
0.023469
0.0232337
0.0230074
0.0227781
0.022523
0.0222062
0.0217874
0.0212068
0.0204396
0.0194055
0.0181562
0.0256332