/*--------------------------------*- C++ -*----------------------------------*\
| =========                 |                                                 |
| \\      /  F ield         | foam-extend: Open Source CFD                    |
|  \\    /   O peration     | Version:     3.1                                |
|   \\  /    A nd           | Web:         http://www.extend-project.de       |
|    \\/     M anipulation  |                                                 |
\*---------------------------------------------------------------------------*/
FoamFile
{
    version     2.0;
    format      ascii;
    class       surfaceScalarField;
    location    "3";
    object      phi;
}
// * * * * * * * * * * * * * * * * * * * * * * * * * * * * * * * * * * * * * //

dimensions      [0 3 -1 0 0 0 0];

internalField   nonuniform List<scalar> 
41600
(
1.1868e-05
-6.47121e-08
-1.16613e-06
1.17358e-06
1.17649e-05
1.02407e-07
-2.12226e-06
2.12304e-06
1.15084e-05
2.646e-07
-2.7487e-06
2.74054e-06
1.11444e-05
3.81442e-07
-3.35229e-06
3.33489e-06
1.07225e-05
4.51818e-07
-4.02782e-06
3.99785e-06
1.02971e-05
4.74438e-07
-4.80622e-06
4.7572e-06
9.91972e-06
4.52986e-07
-5.70367e-06
5.62807e-06
9.63078e-06
3.96896e-07
-6.74247e-06
6.63451e-06
9.45649e-06
3.1587e-07
-7.96323e-06
7.82165e-06
9.41389e-06
2.10834e-07
-9.4356e-06
9.26736e-06
9.52386e-06
6.29291e-08
-1.12724e-05
1.10995e-05
9.82208e-06
-1.82711e-07
-1.36384e-05
1.35229e-05
1.0313e-05
-6.00874e-07
-1.67308e-05
1.68407e-05
1.06776e-05
-1.20319e-06
-2.05483e-05
2.1387e-05
9.07355e-06
-1.44174e-06
-2.38739e-05
2.69196e-05
-3.19553e-07
-1.95902e-05
2.90353e-05
3.30545e-05
-1.63701e-08
-1.37299e-06
1.41652e-06
3.28023e-05
2.89871e-07
-3.23175e-06
3.29648e-06
3.2364e-05
6.26523e-07
-4.71864e-06
4.79503e-06
3.17465e-05
9.05171e-07
-6.18543e-06
6.27918e-06
3.09992e-05
1.08815e-06
-7.79886e-06
7.90991e-06
3.01977e-05
1.15881e-06
-9.61646e-06
9.7336e-06
2.94206e-05
1.12537e-06
-1.16495e-05
1.17541e-05
2.87253e-05
1.01778e-06
-1.39084e-05
1.39829e-05
2.8131e-05
8.73713e-07
-1.64367e-05
1.64731e-05
2.76143e-05
7.16925e-07
-1.93381e-05
1.93488e-05
2.71137e-05
5.30998e-07
-2.28073e-05
2.28398e-05
2.65161e-05
2.38493e-07
-2.71545e-05
2.73309e-05
2.55511e-05
-3.11056e-07
-3.27418e-05
3.3417e-05
2.33348e-05
-1.26829e-06
-3.94427e-05
4.1724e-05
1.70035e-05
-2.05122e-06
-4.4426e-05
5.13668e-05
-1.04675e-06
-3.35949e-05
5.14788e-05
5.13603e-05
2.27043e-09
-1.10178e-06
1.1569e-06
5.11219e-05
4.23856e-07
-2.96499e-06
3.06938e-06
5.07182e-05
8.87867e-07
-4.65476e-06
4.79716e-06
5.01228e-05
1.30486e-06
-6.42047e-06
6.61612e-06
4.93355e-05
1.61294e-06
-8.4336e-06
8.69614e-06
4.83913e-05
1.77756e-06
-1.07721e-05
1.10975e-05
4.73489e-05
1.8021e-06
-1.34448e-05
1.38105e-05
4.62632e-05
1.72886e-06
-1.6433e-05
1.68076e-05
4.51547e-05
1.62398e-06
-1.97346e-05
2.00928e-05
4.39825e-05
1.54871e-06
-2.34092e-05
2.37497e-05
4.26219e-05
1.5232e-06
-2.76277e-05
2.79961e-05
4.08273e-05
1.49404e-06
-3.27254e-05
3.32644e-05
3.8099e-05
1.29483e-06
-3.91935e-05
4.0316e-05
3.31025e-05
6.33265e-07
-4.71039e-05
5.01988e-05
2.24425e-05
-4.39659e-07
-5.32064e-05
6.22548e-05
-1.03185e-06
-4.00921e-05
6.27908e-05
6.6635e-05
-9.66352e-09
-8.70058e-07
9.20761e-07
6.64538e-05
5.01352e-07
-2.4603e-06
2.56394e-06
6.61465e-05
1.04837e-06
-3.9771e-06
4.12392e-06
6.5672e-05
1.56479e-06
-5.61832e-06
5.83288e-06
6.49774e-05
1.99183e-06
-7.56846e-06
7.88419e-06
6.40314e-05
2.28976e-06
-9.95183e-06
1.03856e-05
6.28385e-05
2.45558e-06
-1.28168e-05
1.33563e-05
6.14271e-05
2.53304e-06
-1.61504e-05
1.67576e-05
5.9819e-05
2.60273e-06
-1.9915e-05
2.05444e-05
5.79832e-05
2.7603e-06
-2.41029e-05
2.47271e-05
5.57863e-05
3.07728e-06
-2.88063e-05
2.94491e-05
5.29171e-05
3.57001e-06
-3.43077e-05
3.51009e-05
4.87307e-05
4.14096e-06
-4.11645e-05
4.25047e-05
4.15035e-05
4.4815e-06
-4.97902e-05
5.31692e-05
2.72003e-05
3.85567e-06
-5.71017e-05
6.71095e-05
9.19271e-07
-4.38259e-05
6.94892e-05
7.88444e-05
-3.2413e-08
-7.24229e-07
7.68121e-07
7.87049e-05
5.5264e-07
-2.06964e-06
2.15786e-06
7.84767e-05
1.15798e-06
-3.35151e-06
3.47005e-06
7.81222e-05
1.74513e-06
-4.73324e-06
4.90739e-06
7.75585e-05
2.27682e-06
-6.40565e-06
6.68436e-06
7.66964e-05
2.72556e-06
-8.54322e-06
8.96957e-06
7.54751e-05
3.09176e-06
-1.12631e-05
1.18482e-05
7.38753e-05
3.41799e-06
-1.46039e-05
1.53188e-05
7.19019e-05
3.78854e-06
-1.85386e-05
1.93261e-05
6.95356e-05
4.32114e-06
-2.30206e-05
2.38261e-05
6.66648e-05
5.13394e-06
-2.80636e-05
2.88778e-05
6.29671e-05
6.33624e-06
-3.38598e-05
3.47914e-05
5.77448e-05
7.9545e-06
-4.09368e-05
4.23455e-05
4.89461e-05
9.90567e-06
-5.0032e-05
5.34066e-05
3.16353e-05
1.08625e-05
-5.85168e-05
6.88207e-05
5.4331e-06
-4.58684e-05
7.35598e-05
8.79911e-05
-5.24022e-08
-6.28431e-07
6.66715e-07
8.78752e-05
5.93947e-07
-1.80172e-06
1.87622e-06
8.77e-05
1.24395e-06
-2.9025e-06
2.99175e-06
8.74394e-05
1.88407e-06
-4.05832e-06
4.17999e-06
8.70038e-05
2.505e-06
-5.44451e-06
5.65191e-06
8.62706e-05
3.10265e-06
-7.25901e-06
7.61516e-06
8.5128e-05
3.69125e-06
-9.67626e-06
1.02194e-05
8.35073e-05
4.31807e-06
-1.28006e-05
1.35212e-05
8.13858e-05
5.06702e-06
-1.6648e-05
1.7491e-05
7.8746e-05
6.06869e-06
-2.11722e-05
2.20644e-05
7.55064e-05
7.47485e-06
-2.63379e-05
2.72367e-05
7.13608e-05
9.50081e-06
-3.22556e-05
3.32366e-05
6.56272e-05
1.23112e-05
-3.93536e-05
4.07306e-05
5.60439e-05
1.63209e-05
-4.86214e-05
5.17895e-05
3.64342e-05
2.03375e-05
-5.80701e-05
6.82049e-05
1.34854e-05
-4.63182e-05
7.54308e-05
9.40807e-05
-6.23271e-08
-5.59708e-07
5.94201e-07
9.39814e-05
6.28139e-07
-1.60947e-06
1.67453e-06
9.38487e-05
1.30772e-06
-2.58241e-06
2.65139e-06
9.36674e-05
1.98394e-06
-3.57754e-06
3.65894e-06
9.33534e-05
2.67523e-06
-4.74527e-06
4.88901e-06
9.27734e-05
3.40418e-06
-6.28065e-06
6.55913e-06
9.17891e-05
4.20412e-06
-8.38462e-06
8.85602e-06
9.03013e-05
5.13045e-06
-1.12063e-05
1.18818e-05
8.82684e-05
6.26557e-06
-1.48028e-05
1.56372e-05
8.56804e-05
7.74372e-06
-1.91429e-05
2.00559e-05
8.24979e-05
9.73405e-06
-2.4164e-05
2.50873e-05
7.84702e-05
1.25608e-05
-2.99145e-05
3.08822e-05
7.29766e-05
1.65318e-05
-3.6681e-05
3.7954e-05
6.38091e-05
2.27368e-05
-4.55689e-05
4.83205e-05
4.31687e-05
3.15975e-05
-5.56028e-05
6.49832e-05
2.76932e-05
-4.46805e-05
7.45311e-05
9.71175e-05
-5.08367e-07
5.40187e-07
-5.84319e-08
9.70352e-05
-1.46419e-06
1.52267e-06
6.51926e-07
9.69485e-05
-2.34141e-06
2.39752e-06
1.33832e-06
9.68488e-05
-3.22208e-06
3.27869e-06
2.02703e-06
9.66595e-05
-4.2372e-06
4.33992e-06
2.76179e-06
9.62502e-05
-5.56905e-06
5.7924e-06
3.59018e-06
9.5479e-05
-7.41945e-06
7.83117e-06
4.56361e-06
9.42425e-05
-9.95013e-06
1.05742e-05
5.74282e-06
9.2504e-05
-1.32327e-05
1.40337e-05
7.20304e-06
9.02857e-05
-1.72376e-05
1.81347e-05
9.06495e-06
8.76208e-05
-2.18745e-05
2.27853e-05
1.14882e-05
8.44284e-05
-2.71244e-05
2.80361e-05
1.48415e-05
8.02838e-05
-3.31067e-05
3.4219e-05
1.95641e-05
7.35634e-05
-4.06648e-05
4.27137e-05
2.74084e-05
5.59147e-05
-5.05653e-05
5.79586e-05
4.1853e-05
-3.95925e-05
6.73268e-05
5.69168e-05
1.26664e-05
-8.3722e-08
-1.11025e-06
1.25006e-05
7.25031e-08
-2.02899e-06
1.21552e-05
2.29987e-07
-2.6333e-06
1.16755e-05
3.42484e-07
-3.21505e-06
1.1107e-05
4.0789e-07
-3.86723e-06
1.04988e-05
4.2376e-07
-4.62169e-06
9.89714e-06
3.91951e-07
-5.49401e-06
9.33579e-06
3.20911e-07
-6.50203e-06
8.82853e-06
2.20534e-07
-7.6765e-06
8.36834e-06
9.24856e-08
-9.0679e-06
7.93538e-06
-8.81659e-08
-1.07512e-05
7.49131e-06
-3.71618e-07
-1.28228e-05
6.94254e-06
-8.47919e-07
-1.53341e-05
5.95727e-06
-1.53049e-06
-1.80326e-05
3.64894e-06
-2.12725e-06
-1.94383e-05
-1.86331e-06
-1.40196e-05
3.5334e-05
-4.10016e-08
-1.28022e-06
3.49756e-05
2.39466e-07
-3.04027e-06
3.43771e-05
5.60739e-07
-4.45091e-06
3.35428e-05
8.27457e-07
-5.8361e-06
3.25127e-05
9.97645e-07
-7.35846e-06
3.13507e-05
1.05071e-06
-9.08148e-06
3.01242e-05
9.89899e-07
-1.10209e-05
2.88766e-05
8.43764e-07
-1.31837e-05
2.76055e-05
6.51617e-07
-1.55967e-05
2.62481e-05
4.41758e-07
-1.83301e-05
2.4675e-05
1.9588e-07
-2.15182e-05
2.26684e-05
-1.82479e-07
-2.53371e-05
1.98441e-05
-8.83678e-07
-2.98817e-05
1.54556e-05
-2.04228e-06
-3.45424e-05
8.27383e-06
-3.31306e-06
-3.60584e-05
-3.229e-06
-2.37862e-05
5.4933e-05
-2.45962e-08
-1.01226e-06
5.45899e-05
3.72853e-07
-2.7553e-06
5.40185e-05
8.18477e-07
-4.34109e-06
5.31908e-05
1.22137e-06
-5.98669e-06
5.20945e-05
1.51479e-06
-7.85438e-06
5.07454e-05
1.65775e-06
-1.003e-05
4.91802e-05
1.64627e-06
-1.2536e-05
4.74301e-05
1.52113e-06
-1.53603e-05
4.54859e-05
1.35232e-06
-1.8491e-05
4.3261e-05
1.21069e-06
-2.19533e-05
4.05531e-05
1.11958e-06
-2.58435e-05
3.6992e-05
1.01195e-06
-3.03587e-05
3.1915e-05
6.7864e-07
-3.56788e-05
2.41662e-05
-1.89985e-07
-4.12075e-05
1.23093e-05
-1.67511e-06
-4.29874e-05
-2.7785e-06
-2.79431e-05
7.12851e-05
-3.84611e-08
-7.94517e-07
7.10113e-05
4.59657e-07
-2.27336e-06
7.05485e-05
9.95167e-07
-3.69098e-06
6.98582e-05
1.50371e-06
-5.21031e-06
6.88778e-05
1.92333e-06
-6.99662e-06
6.75525e-05
2.20762e-06
-9.17642e-06
6.5852e-05
2.34596e-06
-1.1816e-05
6.37648e-05
2.3795e-06
-1.49216e-05
6.12687e-05
2.39462e-06
-1.84611e-05
5.82764e-05
2.50312e-06
-2.2403e-05
5.45668e-05
2.79183e-06
-2.67689e-05
4.96846e-05
3.28146e-06
-3.1695e-05
4.2767e-05
3.84888e-06
-3.74172e-05
3.22432e-05
4.10389e-06
-4.35602e-05
1.61955e-05
3.2482e-06
-4.59773e-05
1.45416e-07
-3.01211e-05
8.43544e-05
-6.37419e-08
-6.60308e-07
8.4133e-05
5.22047e-07
-1.9106e-06
8.37616e-05
1.12776e-06
-3.11278e-06
8.32094e-05
1.71843e-06
-4.39574e-06
8.23912e-05
2.25594e-06
-5.92008e-06
8.11968e-05
2.70827e-06
-7.84941e-06
7.95238e-05
3.0696e-06
-1.03138e-05
7.72963e-05
3.3818e-06
-1.33788e-05
7.44549e-05
3.73613e-06
-1.70386e-05
7.09069e-05
4.27078e-06
-2.12403e-05
6.644e-05
5.13291e-06
-2.59378e-05
6.05777e-05
6.45959e-06
-3.11756e-05
5.23611e-05
8.29958e-06
-3.71709e-05
3.97738e-05
1.04603e-05
-4.38012e-05
2.0103e-05
1.14254e-05
-4.70232e-05
6.12756e-06
-3.11598e-05
9.41446e-05
-8.6246e-08
-5.7282e-07
9.39555e-05
5.73359e-07
-1.66389e-06
9.36472e-05
1.23631e-06
-2.70278e-06
9.32021e-05
1.89256e-06
-3.7873e-06
9.25361e-05
2.53389e-06
-5.05654e-06
9.15143e-05
3.15494e-06
-6.68388e-06
8.99846e-05
3.76808e-06
-8.84496e-06
8.78125e-05
4.4229e-06
-1.16697e-05
8.48938e-05
5.21388e-06
-1.5207e-05
8.11186e-05
6.29578e-06
-1.9422e-05
7.62905e-05
7.86095e-06
-2.42379e-05
6.99403e-05
1.01768e-05
-2.96226e-05
6.11081e-05
1.34981e-05
-3.572e-05
4.74013e-05
1.81971e-05
-4.26514e-05
2.47403e-05
2.26917e-05
-4.66753e-05
1.64277e-05
-3.11313e-05
0.000100662
-9.7313e-08
-5.10104e-07
0.000100497
6.1649e-07
-1.4868e-06
0.00010024
1.32021e-06
-2.40975e-06
9.98853e-05
2.02389e-06
-3.35423e-06
9.93596e-05
2.74827e-06
-4.43393e-06
9.85263e-05
3.51817e-06
-5.8106e-06
9.72142e-05
4.37049e-06
-7.67488e-06
9.52582e-05
5.36827e-06
-1.01957e-05
9.25281e-05
6.60859e-06
-1.34675e-05
8.89113e-05
8.25439e-06
-1.74846e-05
8.42488e-05
1.05234e-05
-2.2164e-05
7.81196e-05
1.38193e-05
-2.74278e-05
6.9658e-05
1.85954e-05
-3.33166e-05
5.63169e-05
2.61344e-05
-4.01651e-05
3.19307e-05
3.64158e-05
-4.49407e-05
3.44413e-05
-2.98583e-05
0.000103912
-4.63071e-07
-9.25468e-08
0.000103769
-1.35277e-06
6.48808e-07
0.000103567
-2.18784e-06
1.36841e-06
0.000103306
-3.03061e-06
2.09349e-06
0.000102923
-3.97689e-06
2.87069e-06
0.000102292
-5.17249e-06
3.75306e-06
0.000101244
-6.80267e-06
4.8009e-06
9.96184e-05
-9.04406e-06
6.08818e-06
9.72926e-05
-1.20064e-05
7.70812e-06
9.41914e-05
-1.56948e-05
9.8128e-06
9.0247e-05
-2.00165e-05
1.26097e-05
8.5227e-05
-2.48583e-05
1.65731e-05
7.85514e-05
-3.01403e-05
2.23045e-05
6.81006e-05
-3.62126e-05
3.21329e-05
4.64385e-05
-4.17191e-05
4.92317e-05
-2.68541e-05
6.91994e-05
1.33469e-05
-1.01258e-07
-1.00779e-06
1.31206e-05
4.43503e-08
-1.84706e-06
1.26912e-05
1.96393e-07
-2.40026e-06
1.2104e-05
3.03707e-07
-2.93159e-06
1.14014e-05
3.62697e-07
-3.52733e-06
1.06277e-05
3.69871e-07
-4.21787e-06
9.8253e-06
3.25332e-07
-5.01691e-06
9.0231e-06
2.37042e-07
-5.93687e-06
8.22896e-06
1.15123e-07
-6.99748e-06
7.42696e-06
-3.95824e-08
-8.22632e-06
6.58289e-06
-2.43979e-07
-9.6632e-06
5.65065e-06
-5.48141e-07
-1.13424e-05
4.56746e-06
-1.02813e-06
-1.32228e-05
3.20328e-06
-1.70474e-06
-1.49636e-05
1.43602e-06
-2.41379e-06
-1.52572e-05
-2.28421e-06
-1.02373e-05
3.72847e-05
-6.31147e-08
-1.14225e-06
3.68268e-05
1.93703e-07
-2.73172e-06
3.60793e-05
4.99717e-07
-4.00678e-06
3.50465e-05
7.53427e-07
-5.25304e-06
3.37614e-05
9.09353e-07
-6.61997e-06
3.22785e-05
9.41602e-07
-8.17028e-06
3.06549e-05
8.49629e-07
-9.92165e-06
2.89243e-05
6.61226e-07
-1.18772e-05
2.70709e-05
4.18489e-07
-1.40466e-05
2.50117e-05
1.58745e-07
-1.64692e-05
2.26058e-05
-1.51446e-07
-1.92048e-05
1.96303e-05
-5.80184e-07
-2.23295e-05
1.57937e-05
-1.30678e-06
-2.57664e-05
1.0762e-05
-2.4642e-06
-2.87513e-05
4.57688e-06
-3.86132e-06
-2.84258e-05
-3.92205e-06
-1.73928e-05
5.79939e-05
-4.80058e-08
-8.92438e-07
5.75548e-05
3.28416e-07
-2.45089e-06
5.68289e-05
7.57147e-07
-3.87267e-06
5.5789e-05
1.14595e-06
-5.3393e-06
5.44148e-05
1.42435e-06
-6.99519e-06
5.27074e-05
1.54409e-06
-8.92511e-06
5.06843e-05
1.4948e-06
-1.1158e-05
4.83569e-05
1.31425e-06
-1.3686e-05
4.56951e-05
1.07813e-06
-1.64888e-05
4.25902e-05
8.67038e-07
-1.95567e-05
3.88102e-05
7.15237e-07
-2.29302e-05
3.39786e-05
5.67679e-07
-2.6675e-05
2.75305e-05
2.21795e-07
-3.07593e-05
1.87999e-05
-5.87566e-07
-3.43535e-05
7.96999e-06
-2.15043e-06
-3.38684e-05
-3.3377e-06
-2.02548e-05
7.52704e-05
-6.36373e-08
-6.9709e-07
7.49132e-05
4.24882e-07
-2.0126e-06
7.43079e-05
9.51047e-07
-3.27964e-06
7.3419e-05
1.45278e-06
-4.62824e-06
7.21792e-05
1.86582e-06
-6.19824e-06
7.05166e-05
2.13711e-06
-8.10685e-06
6.83729e-05
2.24881e-06
-1.04262e-05
6.57024e-05
2.23731e-06
-1.31742e-05
6.24477e-05
2.19476e-06
-1.6323e-05
5.84863e-05
2.24861e-06
-1.98232e-05
5.35617e-05
2.50759e-06
-2.36367e-05
4.71976e-05
3.01427e-06
-2.77775e-05
3.85939e-05
3.65711e-06
-3.22488e-05
2.67174e-05
4.05444e-06
-3.63257e-05
1.14973e-05
3.25337e-06
-3.6161e-05
1.0239e-07
-2.16177e-05
8.90769e-05
-9.12758e-08
-5.78719e-07
8.87828e-05
4.98057e-07
-1.68963e-06
8.82812e-05
1.1062e-06
-2.76638e-06
8.75456e-05
1.70175e-06
-3.90904e-06
8.64914e-05
2.24656e-06
-5.24668e-06
8.4996e-05
2.7046e-06
-6.92143e-06
8.29262e-05
3.0638e-06
-9.05905e-06
8.01599e-05
3.36179e-06
-1.17369e-05
7.65833e-05
3.69627e-06
-1.49635e-05
7.20505e-05
4.22307e-06
-1.86819e-05
6.63013e-05
5.11976e-06
-2.28008e-05
5.88299e-05
6.56092e-06
-2.72508e-05
4.87047e-05
8.62918e-06
-3.20178e-05
3.43968e-05
1.11229e-05
-3.65617e-05
1.52543e-05
1.23168e-05
-3.69442e-05
6.9771e-06
-2.21799e-05
9.94186e-05
-1.15791e-07
-5.02029e-07
9.91651e-05
5.59161e-07
-1.47148e-06
9.87371e-05
1.23673e-06
-2.40532e-06
9.81203e-05
1.91034e-06
-3.3791e-06
9.72363e-05
2.57358e-06
-4.49957e-06
9.59456e-05
3.22023e-06
-5.90877e-06
9.40703e-05
3.85996e-06
-7.7658e-06
9.1425e-05
4.54229e-06
-1.0205e-05
8.78376e-05
5.36898e-06
-1.32923e-05
8.31257e-05
6.51485e-06
-1.70018e-05
7.70277e-05
8.20789e-06
-2.12281e-05
6.90385e-05
1.0766e-05
-2.58384e-05
5.81977e-05
1.45147e-05
-3.07648e-05
4.25014e-05
1.98389e-05
-3.56711e-05
1.99894e-05
2.48738e-05
-3.67203e-05
1.86572e-05
-2.20634e-05
0.000106303
-1.27567e-07
-4.4709e-07
0.000106079
6.11194e-07
-1.31501e-06
0.000105713
1.34036e-06
-2.14675e-06
0.000105197
2.07274e-06
-3.00138e-06
0.000104468
2.83166e-06
-3.96321e-06
0.000103393
3.64399e-06
-5.15865e-06
0.000101781
4.54893e-06
-6.75241e-06
9.94222e-05
5.61487e-06
-8.90911e-06
9.61129e-05
6.94981e-06
-1.17391e-05
9.16573e-05
8.73957e-06
-1.52538e-05
8.58193e-05
1.12404e-05
-1.93585e-05
7.81336e-05
1.49171e-05
-2.38931e-05
6.77321e-05
2.03227e-05
-2.8723e-05
5.23058e-05
2.88431e-05
-3.37429e-05
2.76487e-05
4.01777e-05
-3.55876e-05
3.86057e-05
-2.1242e-05
0.000109736
-4.05739e-07
-1.21651e-07
0.000109539
-1.1965e-06
6.5199e-07
0.000109236
-1.95034e-06
1.40588e-06
0.000108826
-2.71696e-06
2.16882e-06
0.000108256
-3.56586e-06
2.99006e-06
0.000107408
-4.60743e-06
3.92702e-06
0.000106105
-5.99712e-06
5.04714e-06
0.000104143
-7.90255e-06
6.43539e-06
0.000101334
-1.0448e-05
8.19974e-06
9.75227e-05
-1.36611e-05
1.05173e-05
9.25674e-05
-1.74529e-05
1.36321e-05
8.61902e-05
-2.16527e-05
1.80888e-05
7.7837e-05
-2.60558e-05
2.45913e-05
6.54582e-05
-3.06924e-05
3.57017e-05
4.31425e-05
-3.35893e-05
5.43636e-05
-1.9364e-05
7.53262e-05
1.39113e-05
-1.16806e-07
-8.6286e-07
1.36291e-05
1.99475e-08
-1.58485e-06
1.31237e-05
1.65825e-07
-2.06072e-06
1.24407e-05
2.68135e-07
-2.51668e-06
1.16203e-05
3.20606e-07
-3.02751e-06
1.07034e-05
3.18995e-07
-3.61998e-06
9.73002e-06
2.61534e-07
-4.30509e-06
8.7271e-06
1.56285e-07
-5.09024e-06
7.70405e-06
1.09482e-08
-5.98538e-06
6.64415e-06
-1.65599e-07
-7.00082e-06
5.51832e-06
-3.88002e-07
-8.14936e-06
4.29915e-06
-6.96489e-07
-9.42672e-06
2.98234e-06
-1.15307e-06
-1.07529e-05
1.60527e-06
-1.78125e-06
-1.18053e-05
4.05516e-07
-2.47445e-06
-1.1583e-05
-2.32465e-06
-7.44306e-06
3.89077e-05
-8.21354e-08
-9.6446e-07
3.83608e-05
1.54103e-07
-2.31897e-06
3.74801e-05
4.46204e-07
-3.40637e-06
3.62717e-05
6.87958e-07
-4.46451e-06
3.47646e-05
8.29621e-07
-5.62184e-06
3.3006e-05
8.42747e-07
-6.93546e-06
3.10463e-05
7.21421e-07
-8.42189e-06
2.8915e-05
4.91097e-07
-1.00807e-05
2.65873e-05
2.02915e-07
-1.19108e-05
2.3989e-05
-1.18658e-07
-1.39179e-05
2.09812e-05
-4.61395e-07
-1.61236e-05
1.73891e-05
-9.04139e-07
-1.85298e-05
1.30531e-05
-1.59563e-06
-2.09878e-05
7.96932e-06
-2.66423e-06
-2.27845e-05
2.77723e-06
-3.99931e-06
-2.17088e-05
-4.05053e-06
-1.27057e-05
6.05436e-05
-6.79642e-08
-7.46491e-07
6.00199e-05
2.91042e-07
-2.06414e-06
5.91573e-05
7.05289e-07
-3.26912e-06
5.79303e-05
1.08183e-06
-4.50611e-06
5.63139e-05
1.34647e-06
-5.89568e-06
5.42991e-05
1.44552e-06
-7.51312e-06
5.18899e-05
1.36155e-06
-9.38886e-06
4.90832e-05
1.12913e-06
-1.15174e-05
4.58409e-05
8.29026e-07
-1.38726e-05
4.20381e-05
5.57253e-07
-1.64299e-05
3.7461e-05
3.61052e-07
-1.91755e-05
3.1776e-05
2.06596e-07
-2.21007e-05
2.45712e-05
-7.4877e-08
-2.50752e-05
1.56152e-05
-7.77248e-07
-2.72845e-05
5.85651e-06
-2.20772e-06
-2.59013e-05
-3.39684e-06
-1.47418e-05
7.85911e-05
-8.5138e-08
-5.80963e-07
7.81615e-05
3.9656e-07
-1.68855e-06
7.74313e-05
9.15578e-07
-2.75969e-06
7.63671e-05
1.41209e-06
-3.8943e-06
7.48994e-05
1.82014e-06
-5.20421e-06
7.29453e-05
2.08207e-06
-6.78935e-06
7.0427e-05
2.1708e-06
-8.71711e-06
6.72729e-05
2.11911e-06
-1.10102e-05
6.34003e-05
2.02349e-06
-1.36448e-05
5.86719e-05
2.02689e-06
-1.65645e-05
5.28305e-05
2.26253e-06
-1.96968e-05
4.54401e-05
2.80219e-06
-2.29828e-05
3.58596e-05
3.55888e-06
-2.6302e-05
2.34964e-05
4.15231e-06
-2.88921e-05
9.25693e-06
3.51996e-06
-2.76492e-05
3.43862e-07
-1.56465e-05
9.3012e-05
-1.14824e-07
-4.81978e-07
9.26557e-05
4.79485e-07
-1.41618e-06
9.2041e-05
1.09125e-06
-2.32743e-06
9.11434e-05
1.69234e-06
-3.29164e-06
8.98795e-05
2.24532e-06
-4.40795e-06
8.81201e-05
2.71119e-06
-5.79114e-06
8.57115e-05
3.07146e-06
-7.55118e-06
8.24979e-05
3.35933e-06
-9.76351e-06
7.83264e-05
3.6751e-06
-1.24436e-05
7.30172e-05
4.19113e-06
-1.55371e-05
6.62985e-05
5.11338e-06
-1.89329e-05
5.76969e-05
6.65434e-06
-2.25014e-05
4.64153e-05
8.92972e-06
-2.6107e-05
3.1381e-05
1.17315e-05
-2.91067e-05
1.30274e-05
1.31802e-05
-2.82508e-05
7.78573e-06
-1.59849e-05
0.000103813
-1.40947e-07
-4.18142e-07
0.000103505
5.49533e-07
-1.23322e-06
0.000102974
1.24173e-06
-2.02502e-06
0.000102206
1.93226e-06
-2.85142e-06
0.000101127
2.61695e-06
-3.79181e-06
9.95958e-05
3.28939e-06
-4.95579e-06
9.74202e-05
3.95662e-06
-6.47535e-06
9.43806e-05
4.66631e-06
-8.4723e-06
9.02548e-05
5.52423e-06
-1.10157e-05
8.48108e-05
6.72074e-06
-1.40874e-05
7.77578e-05
8.51271e-06
-1.75744e-05
6.86125e-05
1.12606e-05
-2.12994e-05
5.65254e-05
1.53389e-05
-2.50869e-05
3.99058e-05
2.11305e-05
-2.84505e-05
1.79251e-05
2.65798e-05
-2.81392e-05
2.03098e-05
-1.58947e-05
0.000111003
-1.53111e-07
-3.72424e-07
0.00011073
6.09824e-07
-1.10217e-06
0.00011027
1.36344e-06
-1.80821e-06
0.000109614
2.12316e-06
-2.53704e-06
0.000108703
2.91509e-06
-3.35018e-06
0.000107407
3.76821e-06
-4.3415e-06
0.00010553
4.72332e-06
-5.64244e-06
0.000102832
5.85204e-06
-7.39637e-06
9.90584e-05
7.26952e-06
-9.71078e-06
9.3954e-05
9.17794e-06
-1.26065e-05
8.72387e-05
1.18611e-05
-1.59915e-05
7.84556e-05
1.58267e-05
-1.96763e-05
6.68291e-05
2.16868e-05
-2.34444e-05
5.03718e-05
3.08609e-05
-2.7016e-05
2.59447e-05
4.28542e-05
-2.74348e-05
4.13375e-05
-1.54002e-05
0.000114588
-3.37906e-07
-1.4594e-07
0.000114345
-1.00287e-06
6.58496e-07
0.000113957
-1.6433e-06
1.44486e-06
0.000113419
-2.29915e-06
2.24372e-06
0.000112681
-3.02064e-06
3.10688e-06
0.000111635
-3.8876e-06
4.09538e-06
0.0001101
-5.02109e-06
5.28216e-06
0.000107852
-6.56397e-06
6.76075e-06
0.000104659
-8.63495e-06
8.64999e-06
0.000100303
-1.12725e-05
1.1145e-05
9.45979e-05
-1.43997e-05
1.45133e-05
8.72618e-05
-1.78324e-05
1.93425e-05
7.78217e-05
-2.13179e-05
2.6389e-05
6.44213e-05
-2.47402e-05
3.83092e-05
4.20179e-05
-2.62027e-05
5.7871e-05
-1.41815e-05
7.92492e-05
1.43607e-05
-1.29761e-07
-6.81441e-07
1.40305e-05
-6.18588e-10
-1.25399e-06
1.34602e-05
1.39894e-07
-1.63032e-06
1.26961e-05
2.37826e-07
-1.99041e-06
1.17775e-05
2.84576e-07
-2.39345e-06
1.07432e-05
2.75028e-07
-2.86076e-06
9.63242e-06
2.06327e-07
-3.4006e-06
8.47226e-06
8.73992e-08
-4.01747e-06
7.27737e-06
-7.92695e-08
-4.71121e-06
6.03588e-06
-2.73905e-07
-5.48543e-06
4.73121e-06
-5.08305e-07
-6.33638e-06
3.35983e-06
-8.12488e-07
-7.24285e-06
1.96582e-06
-1.2362e-06
-8.12269e-06
6.83643e-07
-1.8036e-06
-8.71954e-06
-1.27355e-07
-2.43876e-06
-8.33328e-06
-2.27159e-06
-5.23361e-06
4.02047e-05
-9.77651e-08
-7.5342e-07
3.95822e-05
1.21387e-07
-1.81849e-06
3.85886e-05
4.01813e-07
-2.67469e-06
3.72329e-05
6.33389e-07
-3.50435e-06
3.55414e-05
7.63499e-07
-4.40931e-06
3.35577e-05
7.59328e-07
-5.43607e-06
3.1328e-05
6.12528e-07
-6.59835e-06
2.888e-05
3.4689e-07
-7.89223e-06
2.61934e-05
1.05302e-08
-9.31404e-06
2.31994e-05
-3.44956e-07
-1.08528e-05
1.97834e-05
-7.14205e-07
-1.25017e-05
1.58223e-05
-1.15062e-06
-1.42306e-05
1.1267e-05
-1.7827e-06
-1.5886e-05
6.3165e-06
-2.735e-06
-1.69027e-05
1.83975e-06
-3.95745e-06
-1.57134e-05
-3.9892e-06
-8.96134e-06
6.25828e-05
-8.42499e-08
-5.79084e-07
6.19885e-05
2.60908e-07
-1.60934e-06
6.10111e-05
6.63464e-07
-2.55341e-06
5.96271e-05
1.03003e-06
-3.51881e-06
5.78099e-05
1.28348e-06
-4.59846e-06
5.55436e-05
1.3659e-06
-5.8533e-06
5.28237e-05
1.25292e-06
-7.30938e-06
4.964e-05
9.76606e-07
-8.96338e-06
4.5947e-05
6.20605e-07
-1.07897e-05
4.16267e-05
3.07188e-07
-1.27617e-05
3.64879e-05
8.53459e-08
-1.48363e-05
3.02532e-05
-4.84778e-08
-1.69681e-05
2.26526e-05
-2.51054e-07
-1.90062e-05
1.37341e-05
-8.1293e-07
-2.02881e-05
4.754e-06
-2.09183e-06
-1.87868e-05
-3.2765e-06
-1.03858e-05
8.12473e-05
-1.02714e-07
-4.49503e-07
8.07582e-05
3.74305e-07
-1.31276e-06
7.99241e-05
8.88123e-07
-2.15024e-06
7.87133e-05
1.38091e-06
-3.03445e-06
7.70554e-05
1.78598e-06
-4.04878e-06
7.48614e-05
2.04111e-06
-5.27055e-06
7.20402e-05
2.11271e-06
-6.75567e-06
6.85038e-05
2.02853e-06
-8.52575e-06
6.41528e-05
1.88836e-06
-1.05615e-05
5.88481e-05
1.85071e-06
-1.28033e-05
5.23472e-05
2.07071e-06
-1.51813e-05
4.42773e-05
2.64896e-06
-1.76102e-05
3.4141e-05
3.52072e-06
-1.99375e-05
2.16465e-05
4.3065e-06
-2.1517e-05
8.11918e-06
3.85588e-06
-2.00695e-05
6.53068e-07
-1.09963e-05
9.61598e-05
-1.34089e-07
-3.72746e-07
9.57525e-05
4.65512e-07
-1.10013e-06
9.50449e-05
1.08128e-06
-1.81291e-06
9.40123e-05
1.68783e-06
-2.56597e-06
9.25725e-05
2.24885e-06
-3.43109e-06
9.05932e-05
2.72321e-06
-4.49391e-06
8.79083e-05
3.08723e-06
-5.84083e-06
8.434e-05
3.369e-06
-7.53567e-06
7.97092e-05
3.67027e-06
-9.59466e-06
7.38179e-05
4.17611e-06
-1.19712e-05
6.64004e-05
5.11661e-06
-1.45613e-05
5.70358e-05
6.73704e-06
-1.72249e-05
4.50641e-05
9.18017e-06
-1.97947e-05
2.97307e-05
1.22321e-05
-2.16989e-05
1.19518e-05
1.39064e-05
-2.05224e-05
8.45213e-06
-1.12164e-05
0.000107328
-1.61462e-07
-3.23403e-07
0.000106975
5.43212e-07
-9.57914e-07
0.000106361
1.24876e-06
-1.57782e-06
0.000105468
1.95438e-06
-2.22566e-06
0.000104225
2.65826e-06
-2.95782e-06
0.000102491
3.35436e-06
-3.85319e-06
0.000100067
4.04752e-06
-5.0117e-06
9.67124e-05
4.78291e-06
-6.53141e-06
9.21723e-05
5.66784e-06
-8.4732e-06
8.6183e-05
6.90332e-06
-1.08252e-05
7.84445e-05
8.76792e-06
-1.34873e-05
6.85138e-05
1.16543e-05
-1.6286e-05
5.56627e-05
1.59695e-05
-1.90251e-05
3.85977e-05
2.20907e-05
-2.12441e-05
1.70043e-05
2.78468e-05
-2.04862e-05
2.15044e-05
-1.11685e-05
0.000114762
-1.7381e-07
-2.88063e-07
0.000114449
6.10646e-07
-8.56186e-07
0.000113913
1.38593e-06
-1.40921e-06
0.000113143
2.16966e-06
-1.98222e-06
0.000112079
2.99065e-06
-2.61865e-06
0.000110596
3.87993e-06
-3.38412e-06
0.000108496
4.87948e-06
-4.37517e-06
0.000105524
6.06275e-06
-5.70391e-06
0.000101393
7.54886e-06
-7.4611e-06
9.58094e-05
9.55052e-06
-9.66964e-06
8.84689e-05
1.23694e-05
-1.22524e-05
7.89392e-05
1.65416e-05
-1.50339e-05
6.65468e-05
2.2711e-05
-1.77934e-05
4.95467e-05
3.23072e-05
-2.02324e-05
2.52942e-05
4.47317e-05
-2.00673e-05
4.32162e-05
-1.08865e-05
0.000118469
-2.6132e-07
-1.65445e-07
0.000118189
-7.79082e-07
6.66141e-07
0.000117732
-1.28089e-06
1.48094e-06
0.000117089
-1.79747e-06
2.31129e-06
0.000116212
-2.36424e-06
3.21129e-06
0.000114995
-3.03596e-06
4.24488e-06
0.000113264
-3.89973e-06
5.48921e-06
0.000110784
-5.06545e-06
7.04406e-06
0.000107294
-6.63185e-06
9.03565e-06
0.000102539
-8.63781e-06
1.16707e-05
9.63025e-05
-1.10237e-05
1.52302e-05
8.83121e-05
-1.36266e-05
2.03263e-05
7.81763e-05
-1.62089e-05
2.77379e-05
6.41947e-05
-1.86175e-05
4.01661e-05
4.17597e-05
-1.93179e-05
6.02819e-05
-1.00969e-05
8.1974e-05
1.46961e-05
-1.39601e-07
-4.70808e-07
1.43287e-05
-1.85218e-08
-8.67997e-07
1.37068e-05
1.19641e-07
-1.12809e-06
1.28793e-05
2.13767e-07
-1.37672e-06
1.18849e-05
2.55813e-07
-1.65479e-06
1.07612e-05
2.39967e-07
-1.97704e-06
9.54683e-06
1.6251e-07
-2.34877e-06
8.2739e-06
2.7113e-08
-2.77165e-06
6.9577e-06
-1.50945e-07
-3.24407e-06
5.59698e-06
-3.60887e-07
-3.76383e-06
4.18697e-06
-6.03632e-07
-4.32274e-06
2.74386e-06
-9.00948e-07
-4.89879e-06
1.34316e-06
-1.2935e-06
-5.42849e-06
1.69163e-07
-1.80738e-06
-5.73816e-06
-3.77187e-07
-2.38687e-06
-5.40005e-06
-2.20213e-06
-3.34286e-06
4.11765e-05
-1.09738e-07
-5.16428e-07
4.0494e-05
9.59457e-08
-1.2505e-06
3.94124e-05
3.67697e-07
-1.84115e-06
3.7942e-05
5.91304e-07
-2.41148e-06
3.61086e-05
7.12253e-07
-3.03232e-06
3.39537e-05
6.94979e-07
-3.73615e-06
3.1523e-05
5.27815e-07
-4.53295e-06
2.88403e-05
2.37567e-07
-5.42004e-06
2.58974e-05
-1.35093e-07
-6.38699e-06
2.26337e-05
-5.25755e-07
-7.42419e-06
1.89576e-05
-9.13741e-07
-8.51552e-06
1.47892e-05
-1.33653e-06
-9.62656e-06
1.01539e-05
-1.90646e-06
-1.06378e-05
5.35921e-06
-2.74846e-06
-1.11669e-05
1.34605e-06
-3.86524e-06
-1.02219e-05
-3.88553e-06
-5.7432e-06
6.41114e-05
-9.66327e-08
-3.94941e-07
6.34622e-05
2.38225e-07
-1.10238e-06
6.23957e-05
6.32076e-07
-1.75129e-06
6.08899e-05
9.91196e-07
-2.41299e-06
5.89176e-05
1.23677e-06
-3.15061e-06
5.64595e-05
1.30635e-06
-4.00661e-06
5.3506e-05
1.17149e-06
-4.99956e-06
5.00442e-05
8.63006e-07
-6.12703e-06
4.60219e-05
4.68817e-07
-7.37126e-06
4.13426e-05
9.642e-08
-8.70465e-06
3.58327e-05
-1.5174e-07
-1.00883e-05
2.92634e-05
-2.58681e-07
-1.14767e-05
2.1467e-05
-3.74295e-07
-1.27419e-05
1.26459e-05
-7.84871e-07
-1.34307e-05
4.1746e-06
-1.93866e-06
-1.2242e-05
-3.12295e-06
-6.65635e-06
8.3239e-05
-1.16095e-07
-3.05959e-07
8.27039e-05
3.57931e-07
-8.97433e-07
8.17897e-05
8.6827e-07
-1.47216e-06
8.04653e-05
1.35869e-06
-2.07761e-06
7.86603e-05
1.76212e-06
-2.76915e-06
7.62822e-05
2.01316e-06
-3.59925e-06
7.32321e-05
2.07302e-06
-4.60709e-06
6.94128e-05
1.96534e-06
-5.80875e-06
6.47205e-05
1.79175e-06
-7.19219e-06
5.90072e-05
1.71772e-06
-8.71125e-06
5.20563e-05
1.92453e-06
-1.03068e-05
4.35518e-05
2.53671e-06
-1.19011e-05
3.31045e-05
3.50726e-06
-1.33717e-05
2.06089e-05
4.455e-06
-1.42613e-05
7.53962e-06
4.15697e-06
-1.30959e-05
9.27017e-07
-7.04246e-06
9.85201e-05
-1.48776e-07
-2.53597e-07
9.80739e-05
4.55616e-07
-7.51612e-07
9.72949e-05
1.07512e-06
-1.24079e-06
9.61583e-05
1.68647e-06
-1.75712e-06
9.45824e-05
2.25446e-06
-2.34746e-06
9.24332e-05
2.73668e-06
-3.06823e-06
8.9538e-05
3.10573e-06
-3.97834e-06
8.57063e-05
3.38466e-06
-5.12332e-06
8.07436e-05
3.67622e-06
-6.51651e-06
7.44417e-05
4.17279e-06
-8.12426e-06
6.65472e-05
5.12453e-06
-9.8668e-06
5.66882e-05
6.80198e-06
-1.16312e-05
4.43109e-05
9.36848e-06
-1.32786e-05
2.88567e-05
1.26057e-05
-1.43954e-05
1.1437e-05
1.44564e-05
-1.34021e-05
8.94924e-06
-7.18171e-06
0.000109964
-1.77075e-07
-2.20015e-07
0.000109577
5.39308e-07
-6.54402e-07
0.000108898
1.25589e-06
-1.08e-06
0.000107911
1.97382e-06
-1.52515e-06
0.00010654
2.69328e-06
-2.02635e-06
0.000104649
3.40895e-06
-2.63433e-06
0.000102034
4.1241e-06
-3.41537e-06
9.84437e-05
4.88143e-06
-4.4375e-06
9.36037e-05
5.78827e-06
-5.74529e-06
8.72316e-05
7.0519e-06
-7.3322e-06
7.90269e-05
8.96612e-06
-9.12423e-06
6.85846e-05
1.19463e-05
-1.0988e-05
5.52717e-05
1.64207e-05
-1.27645e-05
3.79808e-05
2.2763e-05
-1.41105e-05
1.66135e-05
2.87386e-05
-1.3401e-05
2.23347e-05
-7.16193e-06
0.000117581
-1.895e-07
-1.95972e-07
0.000117237
6.12385e-07
-5.84951e-07
0.000116643
1.40518e-06
-9.64708e-07
0.000115786
2.20822e-06
-1.35906e-06
0.000114604
3.05252e-06
-1.79619e-06
0.000112975
3.97092e-06
-2.31748e-06
0.000110704
5.0064e-06
-2.98562e-06
0.000107524
6.23328e-06
-3.87672e-06
0.000103135
7.77245e-06
-5.05562e-06
9.72158e-05
9.84266e-06
-6.54134e-06
8.94524e-05
1.27563e-05
-8.27921e-06
7.94358e-05
1.70668e-05
-1.01378e-05
6.65718e-05
2.34355e-05
-1.19441e-05
4.92705e-05
3.32962e-05
-1.34644e-05
2.50995e-05
4.6008e-05
-1.31657e-05
4.44915e-05
-7.00779e-06
0.000121379
-1.77759e-07
-1.80138e-07
0.000121071
-5.32305e-07
6.73287e-07
0.000120562
-8.76961e-07
1.51086e-06
0.000119839
-1.23282e-06
2.36639e-06
0.000118854
-1.62302e-06
3.29588e-06
0.000117505
-2.08162e-06
4.36549e-06
0.000115621
-2.66434e-06
5.65542e-06
0.000112964
-3.44493e-06
7.26975e-06
0.000109258
-4.49316e-06
9.33924e-06
0.000104226
-5.83993e-06
1.20774e-05
9.76316e-05
-7.44512e-06
1.5772e-05
8.92138e-05
-9.19027e-06
2.10482e-05
7.86421e-05