/*--------------------------------*- C++ -*----------------------------------*\
| =========                 |                                                 |
| \\      /  F ield         | foam-extend: Open Source CFD                    |
|  \\    /   O peration     | Version:     3.1                                |
|   \\  /    A nd           | Web:         http://www.extend-project.de       |
|    \\/     M anipulation  |                                                 |
\*---------------------------------------------------------------------------*/
FoamFile
{
    version     2.0;
    format      ascii;
    class       surfaceVectorField;
    location    "3";
    object      Sf;
}
// * * * * * * * * * * * * * * * * * * * * * * * * * * * * * * * * * * * * * //

dimensions      [0 2 0 0 0 0 0];

internalField   nonuniform List<vector> 
41600
(
(0.000625533 -2.89238e-06 -2.02941e-08)
(-5.32318e-07 0.000706018 -1.33376e-08)
(8.97666e-09 1.00987e-08 0.000704887)
(-9.19653e-09 -1.03461e-08 -0.000704854)
(0.000626042 -5.57252e-06 -3.91062e-08)
(-5.09654e-07 0.000705806 -3.9908e-08)
(8.82444e-09 3.01224e-08 0.00070538)
(-9.04185e-09 -3.08617e-08 -0.000705321)
(0.00062654 -8.01519e-06 -5.64305e-08)
(-4.97552e-07 0.000705569 -6.69946e-08)
(9.1553e-09 5.03384e-08 0.00070584)
(-9.37481e-09 -5.15691e-08 -0.000705756)
(0.00062705 -1.02786e-05 -7.28e-08)
(-5.10061e-07 0.00070539 -9.64423e-08)
(1.01501e-08 7.20318e-08 0.000706331)
(-1.0374e-08 -7.37612e-08 -0.000706219)
(0.000627596 -1.24097e-05 -8.87736e-08)
(-5.4522e-07 0.000705258 -1.30541e-07)
(1.16731e-08 9.654e-08 0.000706875)
(-1.1893e-08 -9.87687e-08 -0.000706729)
(0.000628199 -1.44495e-05 -1.0484e-07)
(-6.02806e-07 0.000705167 -1.7182e-07)
(1.34302e-08 1.24723e-07 0.000707495)
(-1.36292e-08 -1.27423e-07 -0.000707307)
(0.000628882 -1.64269e-05 -1.20673e-07)
(-6.83064e-07 0.000705106 -2.23188e-07)
(1.49072e-08 1.56544e-07 0.000708212)
(-1.50669e-08 -1.59648e-07 -0.000707973)
(0.00062967 -1.83535e-05 -1.35365e-07)
(-7.87507e-07 0.000705055 -2.88121e-07)
(1.52792e-08 1.90482e-07 0.000709044)
(-1.53594e-08 -1.93857e-07 -0.000708741)
(0.000630588 -2.02209e-05 -1.47582e-07)
(-9.18721e-07 0.000704996 -3.71272e-07)
(1.28901e-08 2.22284e-07 0.000710012)
(-1.28022e-08 -2.2565e-07 -0.000709629)
(0.000631667 -2.19851e-05 -1.54456e-07)
(-1.07881e-06 0.000704892 -4.79126e-07)
(4.50514e-09 2.4232e-07 0.000711132)
(-4.17167e-09 -2.45201e-07 -0.000710646)
(0.000632938 -2.35615e-05 -1.52319e-07)
(-1.27213e-06 0.000704703 -6.21504e-07)
(-1.59401e-08 2.30762e-07 0.000712423)
(1.65047e-08 -2.3259e-07 -0.000711804)
(0.000634441 -2.48116e-05 -1.38438e-07)
(-1.50337e-06 0.000704375 -8.15225e-07)
(-5.91253e-08 1.49473e-07 0.000713906)
(5.96711e-08 -1.49912e-07 -0.000713105)
(0.000636215 -2.55455e-05 -1.1615e-07)
(-1.77312e-06 0.000703859 -1.09146e-06)
(-1.43752e-07 -7.16981e-08 0.000715616)
(1.43532e-07 7.20098e-08 -0.000714547)
(0.000638269 -2.55992e-05 -1.10447e-07)
(-2.05267e-06 0.000703179 -1.50817e-06)
(-2.92381e-07 -5.47948e-07 0.000717634)
(2.90982e-07 5.47273e-07 -0.000716131)
(0.000640328 -2.50273e-05 -2.14721e-07)
(-2.07817e-06 0.000702534 -2.14376e-06)
(-4.73667e-07 -1.38642e-06 0.000720013)
(4.92261e-07 1.40513e-06 -0.000717765)
(-8.19742e-06 0.000699498 -5.45371e-07)
(-2.06788e-06 -4.1224e-06 0.000724879)
(4.20754e-06 6.44672e-06 -0.000723598)
(0.000625511 -2.85164e-06 -6.06679e-08)
(-1.04248e-06 0.00070887 -2.61404e-08)
(2.64776e-08 9.58818e-09 0.000707767)
(-2.71366e-08 -9.83495e-09 -0.000707693)
(0.000625999 -5.49576e-06 -1.17049e-07)
(-9.97585e-07 0.000708451 -7.81712e-08)
(2.59534e-08 2.85105e-08 0.000708023)
(-2.66132e-08 -2.92572e-08 -0.000707928)
(0.000626475 -7.90584e-06 -1.692e-07)
(-9.72877e-07 0.00070798 -1.31121e-07)
(2.68684e-08 4.74479e-08 0.00070822)
(-2.75475e-08 -4.87176e-08 -0.000708104)
(0.000626962 -1.0139e-05 -2.18561e-07)
(-9.96008e-07 0.000707625 -1.88551e-07)
(2.97945e-08 6.76885e-08 0.000708505)
(-3.04945e-08 -6.95125e-08 -0.000708364)
(0.000627481 -1.22462e-05 -2.67042e-07)
(-1.06328e-06 0.000707368 -2.54932e-07)
(3.42816e-08 9.05625e-08 0.000708889)
(-3.49805e-08 -9.2963e-08 -0.000708716)
(0.000628052 -1.42685e-05 -3.16059e-07)
(-1.17322e-06 0.000707193 -3.35178e-07)
(3.95253e-08 1.16969e-07 0.000709385)
(-4.01986e-08 -1.19973e-07 -0.000709172)
(0.000628696 -1.62339e-05 -3.64564e-07)
(-1.3264e-06 0.000707075 -4.34792e-07)
(4.43594e-08 1.47426e-07 0.000709997)
(-4.49208e-08 -1.51017e-07 -0.000709737)
(0.000629434 -1.81591e-05 -4.10239e-07)
(-1.52543e-06 0.000706984 -5.60529e-07)
(4.66756e-08 1.81824e-07 0.000710728)
(-4.69466e-08 -1.85822e-07 -0.00071041)
(0.000630288 -2.00448e-05 -4.48761e-07)
(-1.7733e-06 0.000706886 -7.2107e-07)
(4.20345e-08 2.18374e-07 0.000711573)
(-4.17751e-08 -2.22416e-07 -0.000711185)
(0.000631281 -2.18692e-05 -4.72242e-07)
(-2.07289e-06 0.00070672 -9.28062e-07)
(2.21915e-08 2.52216e-07 0.000712512)
(-2.11592e-08 -2.55766e-07 -0.00071204)
(0.000632434 -2.35708e-05 -4.7024e-07)
(-2.42625e-06 0.000706407 -1.19879e-06)
(-2.7655e-08 2.73874e-07 0.000713511)
(2.95069e-08 -2.76184e-07 -0.000712935)
(0.000633757 -2.50402e-05 -4.32378e-07)
(-2.82886e-06 0.000705845 -1.56101e-06)
(-1.32729e-07 2.67194e-07 0.000714511)
(1.34942e-07 -2.67319e-07 -0.000713804)
(0.000635238 -2.61093e-05 -3.61189e-07)
(-3.2552e-06 0.000704925 -2.06304e-06)
(-3.33055e-07 2.09746e-07 0.000715446)
(3.34161e-07 -2.06526e-07 -0.000714546)
(0.00063678 -2.65861e-05 -3.08512e-07)
(-3.59473e-06 0.000703648 -2.78971e-06)
(-6.66892e-07 8.40864e-08 0.000716306)
(6.66662e-07 -7.55406e-08 -0.000715077)
(0.00063799 -2.64103e-05 -4.91548e-07)
(-3.33268e-06 0.000702339 -3.85998e-06)
(-1.03378e-06 -8.4184e-08 0.000717254)
(1.07886e-06 1.03877e-07 -0.000715354)
(-7.74728e-06 0.000697267 -2.82387e-06)
(-3.43218e-06 6.90407e-07 0.000716068)
(6.62576e-06 -1.99151e-06 -0.000712416)
(0.000625468 -2.76842e-06 -1.00251e-07)
(-1.50964e-06 0.000711638 -3.78381e-08)
(4.28248e-08 8.79528e-09 0.000710572)
(-4.39171e-08 -9.03611e-09 -0.00071046)
(0.000625915 -5.33509e-06 -1.93684e-07)
(-1.44344e-06 0.000711018 -1.13111e-07)
(4.18185e-08 2.6082e-08 0.000710572)
(-4.29209e-08 -2.68082e-08 -0.000710444)
(0.000626349 -7.67287e-06 -2.80191e-07)
(-1.40547e-06 0.000710319 -1.89581e-07)
(4.31992e-08 4.328e-08 0.000710488)
(-4.43352e-08 -4.44942e-08 -0.000710343)
(0.00062679 -9.84075e-06 -3.62399e-07)
(-1.43631e-06 0.000709795 -2.72299e-07)
(4.79578e-08 6.16733e-08 0.000710547)
(-4.91343e-08 -6.33832e-08 -0.000710381)
(0.000627258 -1.18913e-05 -4.44271e-07)
(-1.5298e-06 0.000709421 -3.67687e-07)
(5.5294e-08 8.25998e-08 0.000710752)
(-5.65138e-08 -8.48565e-08 -0.000710557)
(0.000627769 -1.38621e-05 -5.27603e-07)
(-1.68234e-06 0.000709166 -4.82668e-07)
(6.42136e-08 1.07248e-07 0.000711099)
(-6.54404e-08 -1.10113e-07 -0.000710868)
(0.000628337 -1.57846e-05 -6.10825e-07)
(-1.89433e-06 0.000709001 -6.24835e-07)
(7.34511e-08 1.36899e-07 0.000711577)
(-7.45057e-08 -1.40364e-07 -0.000711304)
(0.000628981 -1.76876e-05 -6.91266e-07)
(-2.1683e-06 0.000708891 -8.03437e-07)
(8.03759e-08 1.72855e-07 0.000712175)
(-8.09531e-08 -1.76836e-07 -0.000711852)
(0.000629714 -1.95867e-05 -7.61891e-07)
(-2.50657e-06 0.000708789 -1.03014e-06)
(7.95752e-08 2.16631e-07 0.000712867)
(-7.93001e-08 -2.20931e-07 -0.000712488)
(0.00063055 -2.1491e-05 -8.11302e-07)
(-2.91076e-06 0.000708629 -1.32032e-06)
(6.13002e-08 2.70422e-07 0.000713606)
(-5.97247e-08 -2.7463e-07 -0.000713165)
(0.000631496 -2.33846e-05 -8.22912e-07)
(-3.37518e-06 0.000708304 -1.6958e-06)
(9.04074e-09 3.38157e-07 0.00071431)
(-5.80074e-09 -3.41442e-07 -0.000713802)
(0.000632538 -2.5215e-05 -7.76071e-07)
(-3.87588e-06 0.000707676 -2.1895e-06)
(-1.03497e-07 4.28502e-07 0.000714853)
(1.08294e-07 -4.29376e-07 -0.000714271)
(0.000633625 -2.68757e-05 -6.58988e-07)
(-4.34776e-06 0.000706581 -2.85564e-06)
(-3.11526e-07 5.62031e-07 0.000715067)
(3.16938e-07 -5.58024e-07 -0.000714392)
(0.000634625 -2.81882e-05 -5.08229e-07)
(-4.60139e-06 0.000704948 -3.78669e-06)
(-6.32635e-07 7.81928e-07 0.000714848)
(6.39527e-07 -7.69481e-07 -0.000714002)
(0.000635221 -2.89744e-05 -5.50563e-07)
(-3.97985e-06 0.000703111 -5.13162e-06)
(-9.30113e-07 1.13699e-06 0.000714465)
(9.81279e-07 -1.12252e-06 -0.000713151)
(-9.22931e-06 0.000698935 -3.62935e-06)
(-2.12385e-06 2.0602e-06 0.000711847)
(3.90229e-06 -2.47363e-06 -0.000710317)
(0.000625407 -2.64175e-06 -1.37793e-07)
(-1.91514e-06 0.00071428 -4.79189e-08)
(5.76005e-08 7.80984e-09 0.00071326)
(-5.91008e-08 -8.02802e-09 -0.000713112)
(0.000625794 -5.08754e-06 -2.66689e-07)
(-1.82941e-06 0.000713465 -1.43212e-07)
(5.61438e-08 2.32098e-08 0.00071299)
(-5.7655e-08 -2.3861e-08 -0.000712831)
(0.000626169 -7.31384e-06 -3.85862e-07)
(-1.77823e-06 0.000712547 -2.3984e-07)
(5.79965e-08 3.86531e-08 0.000712611)
(-5.9541e-08 -3.97345e-08 -0.000712441)
(0.000626547 -9.37708e-06 -5.00193e-07)
(-1.8128e-06 0.000711859 -3.441e-07)
(6.4525e-08 5.53092e-08 0.00071243)
(-6.61459e-08 -5.68534e-08 -0.000712244)
(0.000626943 -1.13222e-05 -6.15625e-07)
(-1.92365e-06 0.000711368 -4.63971e-07)
(7.47315e-08 7.45222e-08 0.000712439)
(-7.64723e-08 -7.66051e-08 -0.000712227)
(0.000627368 -1.31902e-05 -7.3355e-07)
(-2.10574e-06 0.000711037 -6.07741e-07)
(8.77697e-08 9.77546e-08 0.000712614)
(-8.95522e-08 -1.00444e-07 -0.000712371)
(0.000627833 -1.50229e-05 -8.52996e-07)
(-2.35808e-06 0.000710837 -7.84463e-07)
(1.02534e-07 1.26759e-07 0.00071294)
(-1.04136e-07 -1.30103e-07 -0.00071266)
(0.000628348 -1.68597e-05 -9.72228e-07)
(-2.68168e-06 0.000710732 -1.00504e-06)
(1.16787e-07 1.63984e-07 0.000713392)
(-1.17878e-07 -1.68038e-07 -0.000713071)
(0.000628918 -1.87372e-05 -1.08323e-06)
(-3.07735e-06 0.000710671 -1.28302e-06)
(1.26376e-07 2.13715e-07 0.000713929)
(-1.26433e-07 -2.18459e-07 -0.000713565)
(0.000629549 -2.06891e-05 -1.17288e-06)
(-3.54332e-06 0.000710586 -1.63602e-06)
(1.23672e-07 2.83716e-07 0.000714488)
(-1.21983e-07 -2.88889e-07 -0.000714082)
(0.000630238 -2.27522e-05 -1.22038e-06)
(-4.06782e-06 0.000710372 -2.08846e-06)
(9.63732e-08 3.87697e-07 0.000714962)
(-9.20495e-08 -3.92558e-07 -0.000714522)
(0.000630966 -2.49508e-05 -1.19529e-06)
(-4.6116e-06 0.000709878 -2.67619e-06)
(2.71579e-08 5.50173e-07 0.000715191)
(-1.95116e-08 -5.53119e-07 -0.000714729)
(0.000631683 -2.72677e-05 -1.06301e-06)
(-5.07605e-06 0.000708896 -3.45588e-06)
(-1.05014e-07 8.10141e-07 0.000714951)
(1.16132e-07 -8.08366e-07 -0.000714483)
(0.000632292 -2.95638e-05 -8.16705e-07)
(-5.22638e-06 0.000707234 -4.52425e-06)
(-3.03214e-07 1.21345e-06 0.000714052)
(3.18945e-07 -1.20384e-06 -0.00071356)
(0.000632615 -3.14812e-05 -6.0243e-07)
(-4.34779e-06 0.00070502 -6.06082e-06)
(-4.73936e-07 1.75471e-06 0.000712729)
(5.18653e-07 -1.74662e-06 -0.000712014)
(-9.79482e-06 0.000702215 -4.28675e-06)
(-9.49046e-07 2.70234e-06 0.00070967)
(1.9119e-06 -3.31212e-06 -0.000709546)
(0.000625331 -2.46962e-06 -1.72446e-07)
(-2.24425e-06 0.00071675 -5.6052e-08)
(7.07967e-08 7.0093e-09 0.000715789)
(-7.26691e-08 -7.20983e-09 -0.000715608)
(0.000625645 -4.75194e-06 -3.34073e-07)
(-2.14137e-06 0.000715747 -1.67393e-07)
(6.90278e-08 2.08829e-08 0.000715239)
(-7.0908e-08 -2.14833e-08 -0.000715053)
(0.000625946 -6.82528e-06 -4.83883e-07)
(-2.07731e-06 0.000714621 -2.80017e-07)
(7.14148e-08 3.48893e-08 0.000714558)
(-7.33485e-08 -3.59109e-08 -0.000714368)
(0.000626246 -8.73802e-06 -6.29166e-07)
(-2.11082e-06 0.000713774 -4.01205e-07)
(7.96694e-08 5.00966e-08 0.000714128)
(-8.17419e-08 -5.15999e-08 -0.000713925)
(0.000626554 -1.05328e-05 -7.76181e-07)
(-2.22972e-06 0.000713165 -5.39899e-07)
(9.27996e-08 6.7828e-08 0.000713921)
(-9.50639e-08 -6.98882e-08 -0.000713698)
(0.000626878 -1.22546e-05 -9.26826e-07)
(-2.4272e-06 0.000712762 -7.05166e-07)
(1.10193e-07 8.95773e-08 0.000713911)
(-1.12565e-07 -9.2287e-08 -0.000713663)
(0.000627222 -1.39462e-05 -1.0825e-06)
(-2.69981e-06 0.000712532 -9.06923e-07)
(1.31142e-07 1.17291e-07 0.000714073)
(-1.3341e-07 -1.20773e-07 -0.000713795)
(0.000627588 -1.56502e-05 -1.24298e-06)
(-3.04555e-06 0.00071244 -1.1569e-06)
(1.5462e-07 1.54097e-07 0.000714376)
(-1.56452e-07 -1.58488e-07 -0.000714064)
(0.000627973 -1.7418e-05 -1.4016e-06)
(-3.46217e-06 0.000712444 -1.46934e-06)
(1.78951e-07 2.0555e-07 0.00071477)
(-1.79708e-07 -2.10946e-07 -0.000714425)
(0.000628374 -1.93112e-05 -1.54621e-06)
(-3.94503e-06 0.000712485 -1.86275e-06)
(2.00731e-07 2.81494e-07 0.000715185)
(-1.99464e-07 -2.87857e-07 -0.000714814)
(0.000628783 -2.1414e-05 -1.65648e-06)
(-4.48149e-06 0.000712482 -2.36329e-06)
(2.14731e-07 3.98831e-07 0.00071552)
(-2.10007e-07 -4.05752e-07 -0.000715135)
(0.000629191 -2.38334e-05 -1.69551e-06)
(-5.03003e-06 0.000712303 -3.00965e-06)
(2.15995e-07 5.85647e-07 0.000715622)
(-2.05997e-07 -5.91755e-07 -0.000715249)
(0.00062958 -2.66533e-05 -1.60712e-06)
(-5.48196e-06 0.000711719 -3.8627e-06)
(1.95863e-07 8.83097e-07 0.000715251)
(-1.79268e-07 -8.85718e-07 -0.000714932)
(0.000629913 -2.98012e-05 -1.3288e-06)
(-5.58266e-06 0.000710378 -5.02618e-06)
(1.45002e-07 1.32993e-06 0.000714115)
(-1.20926e-07 -1.32595e-06 -0.000713891)
(0.00063009 -3.27392e-05 -8.40902e-07)
(-4.56221e-06 0.000707955 -6.69901e-06)
(6.26678e-08 1.89668e-06 0.000712119)
(-2.58807e-08 -1.89332e-06 -0.000711969)
(-1.00366e-05 0.000706792 -4.63551e-06)
(1.05641e-07 2.72367e-06 0.000709144)
(-4.91974e-08 -3.17888e-06 -0.000710854)
(0.000625244 -2.25561e-06 -2.04032e-07)
(-2.48558e-06 0.000719006 -6.1943e-08)
(8.27359e-08 6.39523e-09 0.000718116)
(-8.49553e-08 -6.58499e-09 -0.000717906)
(0.000625473 -4.33598e-06 -3.94986e-07)
(-2.36882e-06 0.000717828 -1.84829e-07)
(8.07203e-08 1.90413e-08 0.000717284)
(-8.29514e-08 -1.96152e-08 -0.000717075)
(0.000625691 -6.21722e-06 -5.72738e-07)
(-2.29269e-06 0.000716503 -3.08771e-07)
(8.36154e-08 3.17732e-08 0.0007163)
(-8.59355e-08 -3.27533e-08 -0.000716094)
(0.000625904 -7.94361e-06 -7.45566e-07)
(-2.32139e-06 0.000715502 -4.41598e-07)
(9.34838e-08 4.5554e-08 0.000715612)
(-9.60007e-08 -4.69845e-08 -0.000715399)
(0.000626117 -9.55637e-06 -9.19263e-07)
(-2.44021e-06 0.00071478 -5.92703e-07)
(1.09392e-07 6.1588e-08 0.000715183)
(-1.12182e-07 -6.35499e-08 -0.000714956)
(0.000626332 -1.10913e-05 -1.09888e-06)
(-2.63921e-06 0.000714299 -7.71524e-07)
(1.30986e-07 8.1281e-08 0.000714978)
(-1.33992e-07 -8.38991e-08 -0.000714732)
(0.000626547 -1.25817e-05 -1.28865e-06)
(-2.91163e-06 0.000714025 -9.88198e-07)
(1.58134e-07 1.06547e-07 0.000714966)
(-1.61164e-07 -1.09974e-07 -0.000714695)
(0.000626756 -1.40672e-05 -1.48952e-06)
(-3.25197e-06 0.00071393 -1.25428e-06)
(1.91208e-07 1.40365e-07 0.000715107)
(-1.93962e-07 -1.4481e-07 -0.000714809)
(0.00062695 -1.56005e-05 -1.69847e-06)
(-3.65408e-06 0.000713983 -1.58367e-06)
(2.31068e-07 1.87755e-07 0.000715355)
(-2.32875e-07 -1.9349e-07 -0.000715032)
(0.000627115 -1.72599e-05 -1.90708e-06)
(-4.1103e-06 0.000714152 -1.99444e-06)
(2.78614e-07 2.57216e-07 0.00071565)
(-2.78362e-07 -2.64465e-07 -0.000715309)
(0.00062724 -1.91616e-05 -2.10016e-06)
(-4.61059e-06 0.000714392 -2.51305e-06)
(3.35285e-07 3.62563e-07 0.000715913)
(-3.31123e-07 -3.71334e-07 -0.00071557)
(0.000627324 -2.14693e-05 -2.24408e-06)
(-5.12501e-06 0.000714621 -3.181e-06)
(4.06814e-07 5.25617e-07 0.000716027)
(-3.9584e-07 -5.35335e-07 -0.000715712)
(0.000627394 -2.43763e-05 -2.2774e-06)
(-5.5722e-06 0.000714635 -4.06823e-06)
(4.95973e-07 7.79445e-07 0.000715787)
(-4.75423e-07 -7.88226e-07 -0.000715549)
(0.00062751 -2.7996e-05 -2.09036e-06)
(-5.73104e-06 0.000714002 -5.29804e-06)
(5.82199e-07 1.15868e-06 0.00071485)
(-5.50073e-07 -1.16265e-06 -0.000714765)
(0.000627694 -3.18439e-05 -1.41958e-06)
(-4.77914e-06 0.000711804 -7.08794e-06)
(5.701e-07 1.64761e-06 0.000712604)
(-5.36759e-07 -1.64928e-06 -0.000712885)
(-1.02836e-05 0.000713283 -4.81588e-06)
(1.01367e-06 2.36106e-06 0.0007106)
(-1.67335e-06 -2.69372e-06 -0.000714294)
(0.000625149 -2.00718e-06 -2.3146e-07)
(-2.63159e-06 0.000721013 -6.53714e-08)
(9.36363e-08 5.84875e-09 0.000720205)
(-9.61786e-08 -6.0222e-09 -0.000719971)
(0.000625288 -3.85379e-06 -4.47601e-07)
(-2.50525e-06 0.000719676 -1.94901e-07)
(9.13421e-08 1.73644e-08 0.000719096)
(-9.39018e-08 -1.78853e-08 -0.000718869)
(0.000625417 -5.5153e-06 -6.49197e-07)
(-2.41929e-06 0.000718166 -3.25188e-07)
(9.46228e-08 2.88366e-08 0.000717815)
(-9.73024e-08 -2.97225e-08 -0.000717597)
(0.000625539 -7.02891e-06 -8.44097e-07)
(-2.44089e-06 0.000717016 -4.6419e-07)
(1.05867e-07 4.11015e-08 0.00071687)
(-1.08795e-07 -4.2399e-08 -0.000716653)
(0.000625655 -8.4239e-06 -1.03912e-06)
(-2.55254e-06 0.000716176 -6.21279e-07)
(1.24173e-07 5.51909e-08 0.000716214)
(-1.27469e-07 -5.69815e-08 -0.00071599)
(0.00062576 -9.72309e-06 -1.24324e-06)
(-2.74092e-06 0.000715601 -8.05868e-07)
(1.49441e-07 7.22678e-08 0.000715803)
(-1.53074e-07 -7.46731e-08 -0.000715564)
(0.000625848 -1.09503e-05 -1.46199e-06)
(-2.9956e-06 0.000715256 -1.02761e-06)
(1.82045e-07 9.38547e-08 0.000715595)
(-1.85856e-07 -9.70424e-08 -0.000715337)
(0.000625907 -1.21344e-05 -1.69786e-06)
(-3.30699e-06 0.000715118 -1.29697e-06)
(2.23368e-07 1.22111e-07 0.000715552)
(-2.2713e-07 -1.2632e-07 -0.000715273)
(0.00062592 -1.33149e-05 -1.95171e-06)
(-3.664e-06 0.00071517 -1.62639e-06)
(2.76033e-07 1.60253e-07 0.000715632)
(-2.79115e-07 -1.65812e-07 -0.000715336)
(0.000625864 -1.45514e-05 -2.2202e-06)
(-4.05377e-06 0.000715396 -2.03174e-06)
(3.43742e-07 2.13122e-07 0.000715788)
(-3.4496e-07 -2.2041e-07 -0.000715482)
(0.000625716 -1.59431e-05 -2.49687e-06)
(-4.46511e-06 0.000715793 -2.53688e-06)
(4.31901e-07 2.87722e-07 0.00071597)
(-4.2929e-07 -2.97213e-07 -0.000715669)
(0.000625463 -1.76393e-05 -2.76375e-06)
(-4.88125e-06 0.000716329 -3.18226e-06)
(5.52101e-07 3.93535e-07 0.000716096)
(-5.42317e-07 -4.05853e-07 -0.000715828)
(0.000625142 -1.98812e-05 -2.98112e-06)
(-5.27278e-06 0.000716892 -4.04486e-06)
(7.15787e-07 5.44383e-07 0.000716024)
(-6.94596e-07 -5.59651e-07 -0.00071583)
(0.000624923 -2.30257e-05 -3.04243e-06)
(-5.54959e-06 0.000717163 -5.28255e-06)
(9.01742e-07 7.61486e-07 0.000715495)
(-8.64279e-07 -7.77628e-07 -0.000715449)
(0.000625144 -2.71426e-05 -2.46345e-06)
(-5.03494e-06 0.000715936 -7.18463e-06)
(9.68771e-07 1.06911e-06 0.000713598)
(-9.3337e-07 -1.0837e-06 -0.00071408)
(-1.15947e-05 0.000724552 -4.83865e-06)
(1.88838e-06 1.70841e-06 0.000715756)
(-3.1112e-06 -1.95081e-06 -0.000721684)
(0.00062505 -1.72947e-06 -2.53808e-07)
(1.0357e-07 5.32294e-09 0.000722027)
(-1.06406e-07 -5.47988e-09 -0.000721772)
(-2.6785e-06 0.000722743 -6.6316e-08)
(0.000625095 -3.3201e-06 -4.90202e-07)
(1.00938e-07 1.57548e-08 0.000720654)
(-1.03787e-07 -1.62186e-08 -0.000720415)
(-2.54807e-06 0.000721267 -1.97554e-07)
(0.000625135 -4.7446e-06 -7.10311e-07)
(1.04408e-07 2.59829e-08 0.000719091)
(-1.07405e-07 -2.67605e-08 -0.000718867)
(-2.45615e-06 0.000719591 -3.29171e-07)
(0.000625167 -6.02434e-06 -9.21955e-07)
(1.16693e-07 3.66654e-08 0.000717894)
(-1.19994e-07 -3.78031e-08 -0.000717677)
(-2.46978e-06 0.000718297 -4.69009e-07)
(0.000625188 -7.17392e-06 -1.13412e-06)
(1.36841e-07 4.86042e-08 0.000717005)
(-1.40587e-07 -5.01686e-08 -0.000716788)
(-2.56926e-06 0.000717328 -6.26171e-07)
(0.00062519 -8.20628e-06 -1.35697e-06)
(1.64868e-07 6.25531e-08 0.000716373)
(-1.69067e-07 -6.46403e-08 -0.000716146)
(-2.73859e-06 0.000716635 -8.09449e-07)
(0.000625162 -9.134e-06 -1.59637e-06)
(2.01461e-07 7.93929e-08 0.00071595)
(-2.06006e-07 -8.21613e-08 -0.00071571)
(-2.96365e-06 0.000716186 -1.02739e-06)
(0.00062509 -9.96848e-06 -1.85689e-06)
(2.48442e-07 1.00195e-07 0.000715696)
(-2.53144e-07 -1.03839e-07 -0.000715444)
(-3.2297e-06 0.000715957 -1.28883e-06)
(0.000624949 -1.07231e-05 -2.14124e-06)
(3.08998e-07 1.26054e-07 0.00071557)
(-3.13287e-07 -1.30812e-07 -0.000715309)
(-3.51922e-06 0.000715929 -1.60368e-06)
(0.000624709 -1.14162e-05 -2.45081e-06)
(3.87583e-07 1.57849e-07 0.000715529)
(-3.90359e-07 -1.6411e-07 -0.000715268)
(-3.81075e-06 0.000716095 -1.98379e-06)
(0.000624322 -1.2072e-05 -2.78728e-06)
(4.90262e-07 1.95731e-07 0.000715528)
(-4.89757e-07 -2.04179e-07 -0.000715283)
(-4.0789e-06 0.000716458 -2.44581e-06)
(0.000623723 -1.27225e-05 -3.14857e-06)
(6.27514e-07 2.36367e-07 0.000715469)
(-6.20708e-07 -2.48282e-07 -0.000715274)
(-4.28852e-06 0.000716992 -3.01625e-06)
(0.000622812 -1.34377e-05 -3.52605e-06)
(8.08971e-07 2.68165e-07 0.000715156)
(-7.91512e-07 -2.85847e-07 -0.000715081)
(-4.37936e-06 0.000717625 -3.74254e-06)
(0.000621432 -1.43977e-05 -3.87058e-06)
(1.01324e-06 2.70487e-07 0.00071414)
(-9.79698e-07 -2.98199e-07 -0.000714363)
(-4.20334e-06 0.00071815 -4.71494e-06)
(0.000619415 -1.63538e-05 -3.78437e-06)
(1.11743e-06 2.46336e-07 0.000711071)
(-1.0828e-06 -2.84179e-07 -0.000712272)
(-3.05225e-06 0.000717929 -6.07028e-06)
(2.83189e-06 7.32956e-07 0.000726883)
(-4.46322e-06 -9.00526e-07 -0.000735571)
(-1.77691e-05 0.00074672 -4.08968e-06)
(0.000625555 -2.93004e-06 -1.72886e-08)
(-5.54938e-07 0.000706056 -1.21818e-08)
(8.42986e-09 9.48359e-09 0.000704917)
(0.000626088 -5.64538e-06 -3.34687e-08)
(-5.32095e-07 0.000705842 -3.64313e-08)
(8.28857e-09 2.82894e-08 0.000705433)
(0.00062661 -8.12046e-06 -4.82148e-08)
(-5.20958e-07 0.000705603 -6.10221e-08)
(8.60843e-09 4.72878e-08 0.000705916)
(0.000627146 -1.04143e-05 -6.1798e-08)
(-5.36254e-07 0.000705423 -8.74616e-08)
(9.57374e-09 6.77183e-08 0.000706433)
(0.000627723 -1.25751e-05 -7.4796e-08)
(-5.76069e-07 0.000705291 -1.17623e-07)
(1.1049e-08 9.0877e-08 0.000707006)
(0.000628364 -1.46443e-05 -8.71816e-08)
(-6.40327e-07 0.000705201 -1.53359e-07)
(1.27785e-08 1.17625e-07 0.000707661)
(0.000629094 -1.66501e-05 -9.83926e-08)
(-7.2958e-07 0.000705139 -1.96651e-07)
(1.43221e-08 1.48052e-07 0.00070842)
(0.00062994 -1.86026e-05 -1.07663e-07)
(-8.45663e-07 0.000705087 -2.49612e-07)
(1.49241e-08 1.80924e-07 0.000709303)
(0.000630932 -2.04909e-05 -1.13719e-07)
(-9.91807e-07 0.000705023 -3.14267e-07)
(1.31357e-08 2.12579e-07 0.000710333)
(0.000632101 -2.22663e-05 -1.14571e-07)
(-1.17096e-06 0.000704908 -3.92457e-07)
(6.31456e-09 2.34854e-07 0.000711526)
(0.000633484 -2.384e-05 -1.09066e-07)
(-1.389e-06 0.000704698 -4.85315e-07)
(-1.04075e-08 2.31364e-07 0.000712903)
(0.000635122 -2.50718e-05 -9.86629e-08)
(-1.65239e-06 0.000704334 -5.9056e-07)
(-4.47396e-08 1.71962e-07 0.000714486)
(0.000637049 -2.57848e-05 -9.33712e-08)
(-1.96262e-06 0.00070376 -6.94417e-07)
(-1.07507e-07 6.29004e-09 0.000716305)
(0.000639246 -2.58633e-05 -1.19288e-07)
(-2.28572e-06 0.000702989 -7.51191e-07)
(-2.03605e-07 -3.33323e-07 0.000718411)
(0.000641405 -2.54768e-05 -2.02961e-07)
(-2.34224e-06 0.000702227 -6.71171e-07)
(-2.90474e-07 -8.7469e-07 0.000720768)
(-6.32215e-06 0.000701052 -4.20701e-07)
(-9.65745e-07 -2.23184e-06 0.000725762)
(0.000625533 -2.88909e-06 -5.18742e-08)
(-1.08671e-06 0.000708945 -2.38994e-08)
(2.48528e-08 8.99066e-09 0.00070783)
(0.000626044 -5.56844e-06 -1.00511e-07)
(-1.04139e-06 0.000708523 -7.13958e-08)
(2.43478e-08 2.67152e-08 0.000708106)
(0.000626543 -8.01137e-06 -1.4501e-07)
(-1.01849e-06 0.000708049 -1.19426e-07)
(2.5219e-08 4.44281e-08 0.000708323)
(0.000627056 -1.02757e-05 -1.86322e-07)
(-1.04695e-06 0.000707692 -1.70961e-07)
(2.80354e-08 6.33633e-08 0.00070863)
(0.000627605 -1.24138e-05 -2.25904e-07)
(-1.12321e-06 0.000707435 -2.2965e-07)
(3.23764e-08 8.48183e-08 0.00070904)
(0.000628213 -1.44671e-05 -2.63809e-07)
(-1.24611e-06 0.000707262 -2.99211e-07)
(3.75428e-08 1.09722e-07 0.000709568)
(0.000628902 -1.64629e-05 -2.98513e-07)
(-1.41651e-06 0.000707144 -3.83414e-07)
(4.25129e-08 1.38649e-07 0.000710219)
(0.000629695 -1.84167e-05 -3.27674e-07)
(-1.63786e-06 0.000707051 -4.86067e-07)
(4.5401e-08 1.71631e-07 0.000710993)
(0.000630617 -2.03262e-05 -3.47026e-07)
(-1.91414e-06 0.000706944 -6.11088e-07)
(4.24262e-08 2.07374e-07 0.00071189)
(0.000631691 -2.21654e-05 -3.50465e-07)
(-2.24946e-06 0.000706757 -7.61845e-07)
(2.67063e-08 2.4196e-07 0.000712885)
(0.000632936 -2.38686e-05 -3.34537e-07)
(-2.64768e-06 0.000706408 -9.39341e-07)
(-1.38408e-08 2.67351e-07 0.000713949)
(0.000634353 -2.5319e-05 -2.99629e-07)
(-3.10511e-06 0.000705782 -1.13679e-06)
(-9.73972e-08 2.70226e-07 0.000715023)
(0.000635898 -2.63447e-05 -2.67131e-07)
(-3.594e-06 0.000704762 -1.32465e-06)
(-2.46909e-07 2.33188e-07 0.000716044)
(0.000637398 -2.67628e-05 -2.99918e-07)
(-3.9872e-06 0.000703347 -1.41506e-06)
(-4.65438e-07 1.44203e-07 0.000717003)
(0.000638419 -2.65552e-05 -4.64205e-07)
(-3.75614e-06 0.000701911 -1.25238e-06)
(-6.4017e-07 2.38861e-08 0.000717999)
(-5.70603e-06 0.000697841 -4.1663e-07)
(-1.61132e-06 3.51131e-07 0.000716988)
(0.000625489 -2.80495e-06 -8.61309e-08)
(-1.57351e-06 0.000711751 -3.46151e-08)
(4.01655e-08 8.22905e-09 0.000710669)
(0.000625957 -5.40573e-06 -1.66674e-07)
(-1.50665e-06 0.000711126 -1.03346e-07)
(3.91922e-08 2.44026e-08 0.000710685)
(0.000626413 -7.77513e-06 -2.40647e-07)
(-1.47123e-06 0.000710421 -1.72777e-07)
(4.05046e-08 4.05045e-08 0.000710615)
(0.000626878 -9.97363e-06 -3.10069e-07)
(-1.50959e-06 0.000709894 -2.472e-07)
(4.50625e-08 5.77555e-08 0.000710692)
(0.000627374 -1.20556e-05 -3.77163e-07)
(-1.61586e-06 0.000709522 -3.31797e-07)
(5.21348e-08 7.74201e-08 0.000710921)
(0.000627918 -1.40584e-05 -4.42052e-07)
(-1.78665e-06 0.000709271 -4.31786e-07)
(6.08738e-08 1.00638e-07 0.000711296)
(0.000628527 -1.60133e-05 -5.02399e-07)
(-2.02267e-06 0.000709107 -5.52297e-07)
(7.01699e-08 1.2867e-07 0.000711807)
(0.00062922 -1.79484e-05 -5.54288e-07)
(-2.32761e-06 0.000708996 -6.98464e-07)
(7.77498e-08 1.62867e-07 0.00071244)
(0.000630011 -1.98771e-05 -5.90431e-07)
(-2.70486e-06 0.000708884 -8.75479e-07)
(7.9078e-08 2.04802e-07 0.000713168)
(0.000630914 -2.1806e-05 -6.01136e-07)
(-3.15739e-06 0.0007087 -1.08748e-06)
(6.57997e-08 2.56506e-07 0.000713943)
(0.000631932 -2.3712e-05 -5.7782e-07)
(-3.68038e-06 0.000708331 -1.33436e-06)
(2.43534e-08 3.214e-07 0.000714682)
(0.000633036 -2.55321e-05 -5.12899e-07)
(-4.24824e-06 0.000707624 -1.60361e-06)
(-6.44855e-08 4.06139e-07 0.000715255)
(0.00063414 -2.71406e-05 -4.20976e-07)
(-4.78822e-06 0.000706409 -1.85001e-06)
(-2.21033e-07 5.23779e-07 0.000715501)
(0.00063504 -2.83315e-05 -3.67167e-07)
(-5.08416e-06 0.000704624 -1.95033e-06)
(-4.36329e-07 6.96076e-07 0.00071533)
(0.000635419 -2.89137e-05 -4.38322e-07)
(-4.48602e-06 0.000702696 -1.70419e-06)
(-5.79098e-07 9.34117e-07 0.000714988)
(-6.41506e-06 0.000698949 -5.64428e-07)
(-1.00216e-06 1.40143e-06 0.000712705)
(0.000625426 -2.67553e-06 -1.18778e-07)
(-1.99586e-06 0.000714427 -4.38759e-08)
(5.40006e-08 7.31845e-09 0.000713388)
(0.000625832 -5.15343e-06 -2.2973e-07)
(-1.90931e-06 0.000713605 -1.30995e-07)
(5.26009e-08 2.1745e-08 0.000713129)
(0.000626226 -7.4095e-06 -3.31885e-07)
(-1.86119e-06 0.00071268 -2.18923e-07)
(5.43751e-08 3.62168e-08 0.000712759)
(0.000626625 -9.50257e-06 -4.28857e-07)
(-1.90505e-06 0.000711991 -3.12967e-07)
(6.06173e-08 5.18437e-08 0.000712593)
(0.000627045 -1.1479e-05 -5.23929e-07)
(-2.03166e-06 0.000711503 -4.19582e-07)
(7.04046e-08 6.98784e-08 0.000712622)
(0.000627499 -1.33788e-05 -6.16754e-07)
(-2.23583e-06 0.000711177 -5.44989e-07)
(8.30541e-08 9.16882e-08 0.00071282)
(0.000627999 -1.52447e-05 -7.04442e-07)
(-2.51721e-06 0.000710981 -6.95208e-07)
(9.76515e-08 1.18957e-07 0.00071317)
(0.000628553 -1.71163e-05 -7.81961e-07)
(-2.87784e-06 0.000710878 -8.76289e-07)
(1.12321e-07 1.54026e-07 0.000713648)
(0.000629171 -1.90301e-05 -8.40026e-07)
(-3.31959e-06 0.000710811 -1.09399e-06)
(1.23576e-07 2.008e-07 0.000714206)
(0.000629854 -2.10177e-05 -8.6596e-07)
(-3.84199e-06 0.000710705 -1.35259e-06)
(1.24818e-07 2.6619e-07 0.000714779)
(0.000630597 -2.31106e-05 -8.42732e-07)
(-4.43333e-06 0.000710449 -1.65083e-06)
(1.06097e-07 3.62186e-07 0.000715255)
(0.000631373 -2.53223e-05 -7.50908e-07)
(-5.05066e-06 0.000709877 -1.97152e-06)
(5.40334e-08 5.08624e-07 0.000715467)
(0.000632108 -2.76065e-05 -5.80366e-07)
(-5.58256e-06 0.000708771 -2.25684e-06)
(-4.53744e-08 7.32475e-07 0.000715187)
(0.000632667 -2.97754e-05 -3.65798e-07)
(-5.76254e-06 0.000706951 -2.35726e-06)
(-1.8443e-07 1.05449e-06 0.000714244)
(0.000632894 -3.14185e-05 -2.07684e-07)
(-4.90783e-06 0.000704653 -2.04177e-06)
(-2.79257e-07 1.44145e-06 0.000712908)
(-6.50813e-06 0.000701457 -7.20465e-07)
(-4.41246e-07 1.94633e-06 0.000710059)
(0.000625347 -2.50057e-06 -1.48765e-07)
(-2.33846e-06 0.000716928 -5.13483e-08)
(6.63626e-08 6.5637e-09 0.000715945)
(0.000625677 -4.8124e-06 -2.88331e-07)
(-2.23454e-06 0.000715918 -1.53274e-07)
(6.46539e-08 1.95411e-08 0.000715401)
(0.000625994 -6.91377e-06 -4.1723e-07)
(-2.17383e-06 0.000714783 -2.55965e-07)
(6.69324e-08 3.26219e-08 0.000714724)
(0.000626311 -8.85476e-06 -5.40738e-07)
(-2.21786e-06 0.000713935 -3.65465e-07)
(7.47969e-08 4.6815e-08 0.000714304)
(0.00062664 -1.06775e-05 -6.62585e-07)
(-2.35433e-06 0.000713331 -4.89051e-07)
(8.73233e-08 6.33601e-08 0.000714112)
(0.000626986 -1.24276e-05 -7.81901e-07)
(-2.57628e-06 0.000712933 -6.33525e-07)
(1.04055e-07 8.36495e-08 0.000714119)
(0.000627357 -1.41507e-05 -8.96644e-07)
(-2.88089e-06 0.000712711 -8.0543e-07)
(1.24498e-07 1.09514e-07 0.000714298)
(0.000627753 -1.58904e-05 -1.00189e-06)
(-3.26704e-06 0.000712628 -1.01119e-06)
(1.47834e-07 1.43844e-07 0.000714617)
(0.000628172 -1.76993e-05 -1.08745e-06)
(-3.73334e-06 0.000712633 -1.25668e-06)
(1.72712e-07 1.91658e-07 0.000715018)
(0.000628611 -1.9639e-05 -1.13775e-06)
(-4.27648e-06 0.000712665 -1.54603e-06)
(1.96255e-07 2.6175e-07 0.000715429)
(0.000629063 -2.17927e-05 -1.12873e-06)
(-4.88416e-06 0.000712633 -1.87752e-06)
(2.14293e-07 3.68717e-07 0.000715738)
(0.000629516 -2.42568e-05 -1.02522e-06)
(-5.51006e-06 0.000712391 -2.2316e-06)
(2.22153e-07 5.35646e-07 0.000715778)
(0.00062995 -2.70874e-05 -7.81258e-07)
(-6.03047e-06 0.000711692 -2.54322e-06)
(2.09866e-07 7.9245e-07 0.000715293)
(0.000630323 -3.01538e-05 -3.79449e-07)
(-6.15677e-06 0.000710192 -2.64678e-06)
(1.65903e-07 1.15599e-06 0.000714002)
(0.000630551 -3.28083e-05 7.94195e-08)
(-5.16226e-06 0.000707628 -2.2896e-06)
(8.92772e-08 1.57576e-06 0.000711908)
(-6.35532e-06 0.000705103 -8.76853e-07)
(7.05358e-08 2.04655e-06 0.000708987)
(0.000625256 -2.28359e-06 -1.76048e-07)
(-2.58949e-06 0.000719212 -5.67736e-08)