/*--------------------------------*- C++ -*----------------------------------*\
| =========                 |                                                 |
| \\      /  F ield         | foam-extend: Open Source CFD                    |
|  \\    /   O peration     | Version:     3.1                                |
|   \\  /    A nd           | Web:         http://www.extend-project.de       |
|    \\/     M anipulation  |                                                 |
\*---------------------------------------------------------------------------*/
FoamFile
{
    version     2.0;
    format      ascii;
    class       volVectorField;
    location    "3";
    object      U;
}
// * * * * * * * * * * * * * * * * * * * * * * * * * * * * * * * * * * * * * //

dimensions      [0 1 -1 0 0 0 0];

internalField   nonuniform List<vector> 
14592
(
(0.0190062 -8.54101e-05 -0.00166893)
(0.0189283 6.78242e-05 -0.00303277)
(0.0186201 0.000196521 -0.00392261)
(0.0180981 0.000276199 -0.00477814)
(0.0174404 0.000325631 -0.00573278)
(0.0167345 0.000347016 -0.00682795)
(0.0160672 0.000338166 -0.0080852)
(0.0155127 0.000298023 -0.0095367)
(0.0151224 0.000225 -0.011243)
(0.0149256 0.000111652 -0.0133096)
(0.0149465 -6.44053e-05 -0.0159102)
(0.0152296 -0.000345914 -0.0193166)
(0.0158543 -0.000793682 -0.0239045)
(0.0167212 -0.00135567 -0.029938)
(0.0164605 -0.00136509 -0.0362039)
(0.01163 0.00036942 -0.0322641)
(0.0529435 1.14367e-06 -0.00198149)
(0.0526813 0.000339667 -0.00464653)
(0.0521064 0.0007024 -0.00677594)
(0.0512134 0.00098175 -0.00887857)
(0.0500648 0.0011513 -0.011188)
(0.0487638 0.00120373 -0.0137776)
(0.0474397 0.0011515 -0.0166565)
(0.0462071 0.00102349 -0.0198382)
(0.0451294 0.000849218 -0.0233904)
(0.0442014 0.000636978 -0.0274762)
(0.0433542 0.000345343 -0.0324037)
(0.0424586 -0.000138911 -0.0386855)
(0.041317 -0.00100684 -0.04705)
(0.0393515 -0.00235076 -0.0579216)
(0.0338121 -0.00326675 -0.0681748)
(0.0192712 -0.00117804 -0.0552883)
(0.0822023 0.0001486 -0.00159797)
(0.08195 0.000663431 -0.00427748)
(0.0814065 0.00123579 -0.00670671)
(0.0805589 0.00173567 -0.00925281)
(0.0794 0.0020831 -0.0121584)
(0.0779496 0.0022395 -0.0155216)
(0.0762849 0.00221594 -0.0193407)
(0.0745063 0.00206863 -0.02358)
(0.0726851 0.00187222 -0.028239)
(0.0708144 0.00168298 -0.0334204)
(0.0687774 0.00148823 -0.0394078)
(0.0663041 0.0011633 -0.0467709)
(0.0629415 0.000427787 -0.056469)
(0.0577542 -0.00109591 -0.0694346)
(0.046911 -0.00296571 -0.0823237)
(0.0235174 -0.00207429 -0.0660498)
(0.106606 0.000257822 -0.00126435)
(0.106412 0.000907891 -0.00354987)
(0.105985 0.00162181 -0.00573047)
(0.105318 0.00229328 -0.00810258)
(0.104349 0.00282603 -0.0109341)
(0.102994 0.00315898 -0.014391)
(0.101221 0.00328944 -0.0185215)
(0.0990631 0.00328035 -0.0232873)
(0.0965782 0.00323847 -0.028627)
(0.0937794 0.00327686 -0.034543)
(0.0905715 0.00345252 -0.0412102)
(0.0866455 0.00371243 -0.0491317)
(0.0813952 0.00380943 -0.0593649)
(0.073707 0.00317105 -0.0734849)
(0.0587175 0.00116798 -0.0888719)
(0.0272629 -0.000814132 -0.072413)
(0.126124 0.000339886 -0.00105366)
(0.125973 0.00109322 -0.00298088)
(0.125642 0.00189586 -0.0048163)
(0.125141 0.00268338 -0.00680809)
(0.124396 0.00338036 -0.00924188)
(0.123245 0.00393037 -0.0123632)
(0.121551 0.00432431 -0.0163179)
(0.119249 0.00461933 -0.0211329)
(0.116342 0.00493092 -0.0267481)
(0.112846 0.00541134 -0.0330988)
(0.108707 0.00619165 -0.0402429)
(0.103651 0.00733989 -0.048559)
(0.0970109 0.00875805 -0.0590456)
(0.0876801 0.00999918 -0.0738102)
(0.0699115 0.00928743 -0.0914391)
(0.031109 0.00363989 -0.076129)
(0.140758 0.000404677 -0.000915836)
(0.140636 0.00124462 -0.00259043)
(0.140373 0.00211238 -0.00415789)
(0.139999 0.0029832 -0.00581321)
(0.139451 0.00381921 -0.00782607)
(0.138539 0.00459108 -0.0104857)
(0.137053 0.00530108 -0.0140262)
(0.13484 0.00600568 -0.018565)
(0.131838 0.00681827 -0.0240923)
(0.128037 0.00791182 -0.0305292)
(0.123421 0.00947533 -0.0378505)
(0.117767 0.011723 -0.0463133)
(0.110416 0.0147617 -0.0567461)
(0.100369 0.0186776 -0.0715835)
(0.0815515 0.0210735 -0.0909558)
(0.0360616 0.0123222 -0.0773566)
(0.150511 0.000453435 -0.000818036)
(0.150414 0.00136174 -0.00231163)
(0.150212 0.00227805 -0.00369071)
(0.149948 0.00320979 -0.00510599)
(0.149578 0.00415875 -0.0067938)
(0.148914 0.00513223 -0.00904713)
(0.147716 0.00615681 -0.0121461)
(0.145777 0.00729751 -0.0162744)
(0.142994 0.00866462 -0.0214755)
(0.139335 0.0104396 -0.0276799)
(0.134835 0.0128466 -0.0348077)
(0.129329 0.0162622 -0.0430116)
(0.122298 0.021015 -0.052887)
(0.112661 0.0282161 -0.0668504)
(0.0958226 0.0363243 -0.0871472)
(0.044462 0.0282034 -0.0752066)
(0.155385 0.000485082 -0.000745606)
(0.155312 0.001435 -0.00210206)
(0.155177 0.00237567 -0.00334139)
(0.155033 0.00334109 -0.00458778)
(0.154846 0.00436963 -0.00604985)
(0.154439 0.00550547 -0.00800622)
(0.153576 0.0068026 -0.0107439)
(0.152036 0.00833645 -0.0144686)
(0.149719 0.0102107 -0.0192437)
(0.146602 0.0125988 -0.0249966)
(0.142825 0.0157264 -0.0315972)
(0.138295 0.0200838 -0.0390786)
(0.133115 0.0262004 -0.0477838)
(0.125257 0.0360833 -0.0593769)
(0.117531 0.0542232 -0.0790912)
(0.0626283 0.0531432 -0.0668779)
(0.0203069 -0.000105232 -0.00162342)
(0.0201615 4.01994e-05 -0.00296488)
(0.019732 0.000169686 -0.00384466)
(0.019045 0.000247487 -0.0046903)
(0.018178 0.000294274 -0.00563618)
(0.0172096 0.000312576 -0.00672671)
(0.0162185 0.000298595 -0.00798367)
(0.0152706 0.000249554 -0.00943436)
(0.0144038 0.000162888 -0.011128)
(0.0136207 3.04856e-05 -0.0131482)
(0.0128972 -0.000170566 -0.0156259)
(0.0121914 -0.000487465 -0.0187405)
(0.0114413 -0.000980663 -0.0226497)
(0.0103259 -0.00161323 -0.0271121)
(0.00779813 -0.00207499 -0.0301058)
(0.00368257 -0.00177176 -0.0230266)
(0.0566281 -2.42337e-05 -0.00188365)
(0.0562528 0.000282763 -0.00446184)
(0.0554663 0.000630289 -0.00652709)
(0.0542681 0.0008974 -0.00855697)
(0.0527195 0.00105355 -0.0107862)
(0.0509049 0.00108762 -0.0133004)
(0.048935 0.00100801 -0.0161174)
(0.0469062 0.000841809 -0.0192475)
(0.0448571 0.00061941 -0.0227374)
(0.0427378 0.000349215 -0.026709)
(0.0403994 -1.41034e-05 -0.0313928)
(0.0375813 -0.000598219 -0.0371298)
(0.0338937 -0.00160899 -0.0442184)
(0.0284008 -0.00313589 -0.0520116)
(0.0191098 -0.0045942 -0.0559292)
(0.00738503 -0.00403564 -0.0396062)
(0.0879488 0.000129706 -0.00149467)
(0.0875911 0.000605184 -0.00405205)
(0.0868308 0.00114997 -0.00637878)
(0.0856572 0.00162938 -0.0087992)
(0.0840639 0.0019561 -0.0115498)
(0.0820447 0.00208251 -0.0147471)
(0.0796416 0.00201162 -0.0184125)
(0.076919 0.00179755 -0.0225217)
(0.0739095 0.00152003 -0.0270622)
(0.0705521 0.00124226 -0.0320915)
(0.0666393 0.000950674 -0.0377998)
(0.0617476 0.000499616 -0.0445679)
(0.055192 -0.000437407 -0.0528639)
(0.0454782 -0.00223965 -0.0621794)
(0.0295441 -0.00453622 -0.0669934)
(0.0102823 -0.00489416 -0.0472722)
(0.114067 0.000249299 -0.00117468)
(0.113784 0.000870658 -0.00334202)
(0.113159 0.00156065 -0.00542066)
(0.112187 0.00221571 -0.00765694)
(0.110815 0.0027336 -0.0102972)
(0.108931 0.00304225 -0.0135201)
(0.106457 0.00312757 -0.0174076)
(0.103364 0.00304913 -0.0219542)
(0.0996432 0.00292256 -0.0271083)
(0.0952352 0.00287822 -0.0328405)
(0.0899415 0.00298728 -0.0392334)
(0.0832788 0.00319012 -0.0465925)
(0.0743848 0.00319095 -0.0554942)
(0.0614059 0.00237097 -0.0658461)
(0.0398434 0.000189561 -0.0719607)
(0.0132372 -0.0026003 -0.0516241)
(0.134956 0.000340627 -0.000977436)
(0.134728 0.00108395 -0.00280418)
(0.134219 0.00187742 -0.00456105)
(0.133436 0.00266279 -0.00644371)
(0.132323 0.003362 -0.00869753)
(0.130709 0.00390977 -0.0115624)
(0.128402 0.00428606 -0.0152155)
(0.125255 0.00454405 -0.0197324)
(0.121177 0.00480928 -0.0250896)
(0.116075 0.00525914 -0.0312158)
(0.109772 0.00605871 -0.0380906)
(0.1018 0.00730201 -0.0458911)
(0.0912386 0.0088932 -0.0551723)
(0.0761295 0.0102778 -0.0662855)
(0.0503029 0.00968713 -0.0738124)
(0.0166343 0.00363054 -0.0539007)
(0.150617 0.000412553 -0.000849766)
(0.150429 0.00126087 -0.00243861)
(0.150004 0.00213732 -0.00395096)
(0.149367 0.00302394 -0.00553402)
(0.148479 0.00388335 -0.00740472)
(0.147157 0.00468178 -0.00982485)
(0.145149 0.00541523 -0.0130451)
(0.142213 0.00613918 -0.0172351)
(0.138168 0.00697892 -0.0224432)
(0.132866 0.00813824 -0.0286124)
(0.126139 0.00985766 -0.0356653)
(0.117557 0.0124127 -0.0436636)
(0.106193 0.016004 -0.0530418)
(0.0903038 0.0206152 -0.0645464)
(0.0620876 0.0236252 -0.0733312)
(0.021487 0.0150582 -0.0541589)
(0.161054 0.000466541 -0.000759165)
(0.160898 0.00139843 -0.00217733)
(0.16055 0.00234009 -0.00351694)
(0.160042 0.00330474 -0.00488894)
(0.159355 0.00429668 -0.00647318)
(0.158323 0.00532386 -0.00851958)
(0.156679 0.00641352 -0.0113078)
(0.154137 0.00763654 -0.0150686)
(0.150466 0.00911967 -0.0199137)
(0.145481 0.0110807 -0.0258194)
(0.139046 0.0138088 -0.0326836)
(0.130799 0.0177775 -0.0404889)
(0.1199 0.0235125 -0.0494877)
(0.104986 0.0322295 -0.0607189)
(0.0778718 0.0418083 -0.0704778)
(0.0302628 0.0352754 -0.0518453)
(0.16627 0.00050193 -0.000691863)
(0.166144 0.00148712 -0.00198057)
(0.165877 0.00246708 -0.00319008)
(0.165506 0.00347954 -0.00441056)
(0.165028 0.00456629 -0.00579484)
(0.164292 0.0057768 -0.00757164)
(0.163049 0.00717335 -0.0100172)
(0.161013 0.00884549 -0.0133775)
(0.157962 0.0109189 -0.0177874)
(0.153726 0.0136081 -0.0232336)
(0.148282 0.0172074 -0.0295879)
(0.141401 0.0223407 -0.0367625)
(0.13281 0.029771 -0.0447988)
(0.120942 0.0421835 -0.054661)
(0.104087 0.0633867 -0.0651988)
(0.0485352 0.0645316 -0.0455405)
(0.0214181 -0.000124409 -0.00151025)
(0.0212072 1.21649e-05 -0.00276777)
(0.0206619 0.000142149 -0.00359471)
(0.0198203 0.000217277 -0.00438808)
(0.0187604 0.00025996 -0.0052761)
(0.0175534 0.000273134 -0.00630284)
(0.016271 0.000251529 -0.00748819)
(0.0149728 0.000190944 -0.00885214)
(0.0136893 8.94052e-05 -0.0104282)
(0.012412 -6.14855e-05 -0.0122684)
(0.0110981 -0.000287468 -0.0144486)
(0.00968469 -0.000621753 -0.0170501)
(0.00810234 -0.00111297 -0.0200579)
(0.00616176 -0.00174382 -0.0230115)
(0.00355559 -0.002377 -0.0239305)
(0.000816122 -0.00231215 -0.0164642)
(0.0597838 -4.71935e-05 -0.00171909)
(0.0593026 0.000229453 -0.00410447)
(0.0583185 0.000561435 -0.0060178)
(0.0568384 0.000814636 -0.00788913)
(0.0549261 0.000954422 -0.00994065)
(0.0526518 0.000966091 -0.0122618)
(0.0501096 0.000854066 -0.014875)
(0.0473808 0.000643549 -0.0177848)
(0.0444874 0.000367281 -0.0210134)
(0.0413544 3.78774e-05 -0.0246334)
(0.0378069 -0.000385015 -0.0287751)
(0.0335613 -0.00102334 -0.0336037)
(0.0282403 -0.00206409 -0.0390989)
(0.0211797 -0.00358857 -0.0442167)
(0.0118525 -0.0052224 -0.0446083)
(0.00273563 -0.00490246 -0.0282511)
(0.092873 0.000113788 -0.00134603)
(0.0924192 0.000554124 -0.00368593)
(0.0914598 0.00107259 -0.00582135)
(0.0899864 0.00153075 -0.00802811)
(0.0879987 0.00183446 -0.0105228)
(0.0854722 0.00192755 -0.0134264)
(0.0824195 0.00180466 -0.0167748)
(0.0788738 0.00151706 -0.0205516)
(0.074837 0.00114956 -0.0247309)
(0.0702158 0.00077705 -0.0293192)
(0.0647626 0.00040007 -0.0344087)
(0.0580168 -0.000124666 -0.0401787)
(0.0492961 -0.00111446 -0.0467111)
(0.0373328 -0.00291257 -0.0529187)
(0.02103 -0.00530775 -0.0533858)
(0.00481874 -0.0058659 -0.0332454)
(0.120462 0.000243078 -0.00105231)
(0.120099 0.000840968 -0.00302416)
(0.119295 0.00150994 -0.00492514)
(0.118042 0.00214952 -0.00695372)
(0.116299 0.00265244 -0.00932353)
(0.11394 0.00293627 -0.0122072)
(0.110849 0.00297491 -0.0157031)
(0.106945 0.00282282 -0.0198282)
(0.102163 0.00260322 -0.0245383)
(0.0963906 0.00246586 -0.0297731)
(0.0893748 0.00250487 -0.0355193)
(0.080583 0.00268051 -0.0418815)
(0.0691341 0.00270272 -0.0490181)
(0.0532641 0.00197746 -0.0560722)
(0.0307404 -0.000177621 -0.0572497)
(0.00725948 -0.00312333 -0.0358162)
(0.142525 0.000342908 -0.000874793)
(0.14223 0.00108087 -0.00253482)
(0.141561 0.00186838 -0.00414587)
(0.140519 0.00265329 -0.00585979)
(0.139064 0.00335606 -0.00787736)
(0.137022 0.00390336 -0.0104137)
(0.134168 0.0042633 -0.0136511)
(0.13029 0.00448251 -0.0176923)
(0.125214 0.00469338 -0.0225401)
(0.118762 0.00509734 -0.0281158)
(0.110678 0.00589633 -0.0343219)
(0.100429 0.00722583 -0.0411409)
(0.0870806 0.00901666 -0.0487135)
(0.0685742 0.0107086 -0.0564963)
(0.0410742 0.0103203 -0.0586674)
(0.0103942 0.00412578 -0.0369949)
(0.159066 0.00042157 -0.000760791)
(0.158819 0.00128188 -0.00220473)
(0.158253 0.00216976 -0.00359801)
(0.157375 0.00307376 -0.00505286)
(0.156168 0.00395804 -0.00673756)
(0.154456 0.0047852 -0.00887236)
(0.151969 0.00554385 -0.0116947)
(0.148402 0.00628537 -0.0153947)
(0.143475 0.00714216 -0.0200566)
(0.136926 0.00834367 -0.0256391)
(0.128478 0.0101766 -0.0320137)
(0.117609 0.0129792 -0.0390626)
(0.103404 0.0170246 -0.0468383)
(0.0838811 0.0222794 -0.0551178)
(0.0532613 0.0258188 -0.0583492)
(0.015313 0.0172188 -0.0368852)
(0.170089 0.000480781 -0.000680005)
(0.169881 0.00143903 -0.001969)
(0.169407 0.00240824 -0.00320736)
(0.168678 0.00340722 -0.0044802)
(0.167693 0.00444339 -0.00592129)
(0.166302 0.00552554 -0.00773019)
(0.164237 0.00668025 -0.010158)
(0.16116 0.00798072 -0.0134444)
(0.156742 0.00956471 -0.0177392)
(0.150669 0.0116783 -0.0230502)
(0.142676 0.0146623 -0.0292529)
(0.132291 0.0190681 -0.0361768)
(0.118693 0.0255511 -0.0437528)
(0.100328 0.035373 -0.0520795)
(0.0701542 0.0459664 -0.0564056)
(0.0245956 0.039818 -0.0352644)
(0.175599 0.000520075 -0.000619792)
(0.175425 0.0015428 -0.00179135)
(0.175045 0.00256384 -0.00291202)
(0.174473 0.00362496 -0.00405172)
(0.173719 0.00477131 -0.00532095)
(0.17266 0.00605669 -0.0068961)
(0.17105 0.0075496 -0.00901745)
(0.168566 0.00935028 -0.0119324)
(0.164901 0.0116011 -0.015813)
(0.15976 0.0145486 -0.0206878)
(0.152993 0.0185385 -0.0264312)
(0.144273 0.0242857 -0.0328427)
(0.133315 0.0327033 -0.0397242)
(0.118671 0.0467655 -0.0473306)
(0.0986995 0.0697421 -0.0530876)
(0.0432732 0.070696 -0.0314201)
(0.0223416 -0.000142026 -0.00133366)
(0.02207 -1.48485e-05 -0.00245023)
(0.0214191 0.000115959 -0.00318502)
(0.0204386 0.000188417 -0.00388819)
(0.0192079 0.000226612 -0.0046748)
(0.0177929 0.000234124 -0.00558529)
(0.0162604 0.000204309 -0.00663632)
(0.0146668 0.000131502 -0.00784036)
(0.0130426 1.60964e-05 -0.0092158)
(0.0113798 -0.000156487 -0.0107858)
(0.00963842 -0.000398387 -0.0125814)
(0.00776935 -0.000736533 -0.0146144)
(0.00574642 -0.00120508 -0.0167843)
(0.00355362 -0.00179645 -0.018608)
(0.00134394 -0.00243719 -0.0184892)
(-0.000381469 -0.00236125 -0.0120162)
(0.0624114 -6.71489e-05 -0.00149453)
(0.0618355 0.000181835 -0.00359041)
(0.0606747 0.000499707 -0.00527286)
(0.0589433 0.000739682 -0.00691056)
(0.0567116 0.000863251 -0.00870115)
(0.0540397 0.000852434 -0.0107295)
(0.0510094 0.000707917 -0.0130186)
(0.0476936 0.00045366 -0.0155677)
(0.0441046 0.000125901 -0.0183792)
(0.040167 -0.000255188 -0.0214791)
(0.0357109 -0.000723564 -0.024917)
(0.0304832 -0.00137995 -0.0287352)
(0.0242084 -0.00238275 -0.0327532)
(0.0165761 -0.00380848 -0.0359041)
(0.0079371 -0.00538198 -0.034666)
(0.000709684 -0.00504304 -0.0206806)
(0.0969755 0.000100737 -0.00115782)
(0.0964376 0.000511197 -0.00319531)
(0.0953026 0.00100638 -0.00505973)
(0.0935637 0.00144519 -0.0069759)
(0.0912296 0.00172747 -0.0091304)
(0.088264 0.00178906 -0.0116363)
(0.0846586 0.00161642 -0.0145352)
(0.0804244 0.0012581 -0.0178158)
(0.0755444 0.000803778 -0.0214419)
(0.0699073 0.00034508 -0.0253849)
(0.0632633 -0.000101564 -0.0296571)
(0.0551892 -0.000654694 -0.0342913)
(0.045103 -0.00159749 -0.0391579)
(0.0321482 -0.00323747 -0.0430654)
(0.0164284 -0.00550175 -0.0415134)
(0.00243431 -0.00605118 -0.0241682)
(0.12579 0.000238592 -0.000901533)
(0.125358 0.000817942 -0.00261036)
(0.124399 0.0014695 -0.00426544)
(0.122898 0.00209596 -0.00602159)
(0.120827 0.00258618 -0.0080542)
(0.118054 0.00284845 -0.0105161)
(0.114435 0.00284506 -0.0135063)
(0.109852 0.00262415 -0.0170532)
(0.104198 0.00231511 -0.021119)
(0.0973272 0.00208578 -0.0256257)
(0.0889713 0.00206552 -0.0304926)
(0.0786219 0.00224425 -0.0356844)
(0.0654989 0.00236338 -0.0411082)
(0.0481836 0.00186106 -0.0456789)
(0.0259001 -9.29602e-05 -0.0444758)
(0.00469514 -0.00305711 -0.0258198)
(0.148831 0.000345854 -0.000749045)
(0.148478 0.00108162 -0.0021857)
(0.147673 0.00186571 -0.00359041)
(0.146404 0.00265155 -0.00507915)
(0.144645 0.00335921 -0.00680925)
(0.142224 0.00390862 -0.0089604)
(0.138895 0.00425653 -0.0116994)
(0.134402 0.00444125 -0.0151354)
(0.128509 0.0045992 -0.0192864)
(0.120977 0.00495405 -0.0240735)
(0.11151 0.00574487 -0.0293525)
(0.0995817 0.00715364 -0.0349805)
(0.0843555 0.00914826 -0.0408449)
(0.0640234 0.011168 -0.0460728)
(0.0363305 0.0110764 -0.0455559)
(0.00780839 0.00481769 -0.0264925)
(0.166105 0.000430554 -0.000651724)
(0.165808 0.00130414 -0.00190107)
(0.165122 0.00220434 -0.0031189)
(0.164037 0.0031255 -0.00439126)
(0.162545 0.00403401 -0.00584503)
(0.160483 0.00489012 -0.00765465)
(0.157571 0.00567513 -0.010025)
(0.153465 0.00643421 -0.0131388)
(0.147817 0.00730276 -0.0170947)
(0.140279 0.0085302 -0.0218636)
(0.130504 0.0104426 -0.0272912)
(0.117953 0.0134345 -0.0331557)
(0.101809 0.0178372 -0.0392779)
(0.0802345 0.0236063 -0.0450369)
(0.0489443 0.0276104 -0.045389)
(0.0128925 0.0189376 -0.0263483)
(0.177618 0.000494629 -0.00058283)
(0.177364 0.001479 -0.00169811)
(0.176784 0.00247511 -0.00278223)
(0.175865 0.00350672 -0.00390218)
(0.174616 0.0045847 -0.00515621)
(0.172902 0.00571917 -0.0066957)
(0.170455 0.00693548 -0.00872806)
(0.166912 0.0083066 -0.0114727)
(0.161881 0.00997605 -0.0150877)
(0.154952 0.0122096 -0.0196)
(0.145772 0.0153862 -0.024879)
(0.133821 0.0201162 -0.0306746)
(0.118374 0.0271373 -0.0367302)
(0.097973 0.0377185 -0.0427309)
(0.0666499 0.0490039 -0.0441515)
(0.0225727 0.0429578 -0.0253274)
(0.183372 0.000537688 -0.000531315)
(0.183156 0.00159661 -0.0015451)
(0.182682 0.0026568 -0.00252725)
(0.181938 0.00376388 -0.00353402)
(0.180944 0.00496634 -0.00464543)
(0.179588 0.00632168 -0.0059913)
(0.17764 0.00790303 -0.00776476)
(0.174761 0.00981804 -0.0101869)
(0.170591 0.0122203 -0.0134343)
(0.164743 0.0153781 -0.0175594)
(0.156978 0.0196714 -0.0224482)
(0.14691 0.0258734 -0.0278494)
(0.134328 0.0349816 -0.0334368)
(0.117938 0.0500889 -0.0391338)
(0.0966223 0.0741345 -0.0421369)
(0.0414369 0.0746189 -0.022889)
(0.0230785 -0.000157038 -0.00110098)
(0.0227546 -3.8101e-05 -0.00202679)
(0.0220132 9.30262e-05 -0.00263519)
(0.0209143 0.000163083 -0.00321613)
(0.0195403 0.000197213 -0.0038653)
(0.0179533 0.000199414 -0.00461671)
(0.0162175 0.000161994 -0.00548323)
(0.0143891 7.79136e-05 -0.00647172)
(0.0125029 -5.18861e-05 -0.00758693)
(0.0105587 -0.000239109 -0.0088351)
(0.00852918 -0.000491715 -0.0102179)
(0.00639112 -0.000826899 -0.0117104)
(0.00416662 -0.00126688 -0.0131902)
(0.00196197 -0.00180679 -0.0142469)
(0.00015951 -0.00239985 -0.0137185)
(-0.000909052 -0.00230519 -0.00863757)
(0.0645125 -8.35889e-05 -0.00121853)
(0.0638561 0.000142022 -0.00294092)
(0.0625457 0.000447787 -0.00432493)
(0.0606022 0.000676406 -0.00566622)
(0.0581035 0.000785781 -0.00712834)
(0.0551041 0.000755197 -0.0087845)
(0.0516781 0.000581916 -0.0106552)
(0.047894 0.000289125 -0.0127351)
(0.0437662 -8.26956e-05 -0.0150171)
(0.039226 -0.000507913 -0.017493)
(0.034125 -0.00100643 -0.0201657)
(0.0282621 -0.00165762 -0.0230064)
(0.0214719 -0.00259493 -0.0257914)
(0.0137088 -0.00389043 -0.0276169)
(0.00575399 -0.00533345 -0.0258817)
(-0.00023532 -0.00496498 -0.0149343)
(0.100257 9.03941e-05 -0.000936324)
(0.0996489 0.00047652 -0.00259931)
(0.0983674 0.000952561 -0.00412456)
(0.0964056 0.00137529 -0.00568534)
(0.0937819 0.00163957 -0.00743157)
(0.090454 0.00167448 -0.00945937)
(0.0864001 0.00145917 -0.011808)
(0.0816176 0.00103945 -0.0144698)
(0.076078 0.000511164 -0.0174057)
(0.0696673 -2.20732e-05 -0.0205751)
(0.062157 -0.000520083 -0.0239332)
(0.0531764 -0.00107411 -0.0274355)
(0.0422716 -0.00192716 -0.030876)
(0.0289235 -0.00336694 -0.0332079)
(0.0138559 -0.00542965 -0.0310527)
(0.0013278 -0.00595086 -0.0174128)
(0.130052 0.000235413 -0.000726907)
(0.129563 0.000800615 -0.00211637)
(0.128476 0.00143848 -0.00346725)
(0.126769 0.00205462 -0.00489509)
(0.124424 0.00253505 -0.00653548)
(0.121306 0.00278038 -0.00851269)
(0.117256 0.00274265 -0.0109138)
(0.112129 0.00246347 -0.0137698)
(0.105793 0.0020762 -0.0170496)
(0.098082 0.00176921 -0.0206686)
(0.0887354 0.00170206 -0.0245234)
(0.0772974 0.00189851 -0.0285096)
(0.0631191 0.00213973 -0.0324304)
(0.045102 0.00188256 -0.0352801)
(0.0232557 0.000174872 -0.0332815)
(0.0035442 -0.00278911 -0.0185277)
(0.153876 0.000348845 -0.000603774)
(0.153475 0.00108434 -0.00177051)
(0.152559 0.00186677 -0.00291776)
(0.151103 0.00265431 -0.00413137)
(0.149089 0.00336727 -0.00552885)
(0.14635 0.00392062 -0.0072497)
(0.142628 0.00426108 -0.00943205)
(0.137639 0.00441853 -0.0121751)
(0.131107 0.00453089 -0.0155022)
(0.122751 0.00484106 -0.0193418)
(0.112261 0.0056212 -0.0235415)
(0.0991501 0.00709772 -0.0279093)
(0.0827022 0.00927299 -0.0322267)
(0.0613914 0.0115876 -0.035622)
(0.0338455 0.0117857 -0.0341059)
(0.00671541 0.00547778 -0.0189545)
(0.171737 0.000438656 -0.000525543)
(0.171397 0.00132495 -0.00153988)
(0.170614 0.00223688 -0.00253569)
(0.169359 0.00317342 -0.00357769)
(0.167631 0.0041035 -0.00475829)
(0.165273 0.00498614 -0.00620746)
(0.162004 0.00579636 -0.0080875)
(0.157458 0.00657257 -0.0105545)
(0.151244 0.00745005 -0.0137025)
(0.142956 0.00869254 -0.0175124)
(0.132207 0.0106576 -0.0218344)
(0.11847 0.0137864 -0.0264187)
(0.101043 0.0184543 -0.0309973)
(0.078306 0.0246114 -0.034883)
(0.0468305 0.0289906 -0.034056)
(0.0119662 0.020239 -0.0188643)
(0.18364 0.000506955 -0.000470194)
(0.183348 0.00151488 -0.00137569)
(0.182682 0.00253504 -0.00226275)
(0.18161 0.00359524 -0.00318328)
(0.180143 0.00470963 -0.0042081)
(0.178154 0.00588995 -0.00544626)
(0.175382 0.00716047 -0.00705642)
(0.171453 0.00859249 -0.00921931)
(0.165938 0.0103314 -0.0120779)
(0.158364 0.0126556 -0.0156668)
(0.148319 0.0159699 -0.0198682)
(0.135268 0.0209271 -0.0244225)
(0.118586 0.0283166 -0.0290135)
(0.0969827 0.0394077 -0.0332088)
(0.0651312 0.0511774 -0.0333063)
(0.0219459 0.0451691 -0.0182574)
(0.189589 0.000553359 -0.0004287)
(0.189339 0.00164439 -0.0012519)
(0.188788 0.002739 -0.0020559)
(0.187907 0.00388617 -0.00288532)
(0.186714 0.00513738 -0.00379762)
(0.185108 0.00655332 -0.00488424)
(0.18287 0.00821052 -0.00628954)
(0.179659 0.0102215 -0.00819213)
(0.175086 0.0127463 -0.0107489)
(0.168708 0.0160669 -0.0140191)
(0.160222 0.0205835 -0.0179098)
(0.149209 0.0271052 -0.022176)
(0.135533 0.0366737 -0.0264682)
(0.118053 0.0524362 -0.0305872)
(0.0960626 0.0771775 -0.0321004)
(0.0409239 0.077305 -0.0166656)
(0.0236292 -0.000168537 -0.000821451)
(0.0232644 -5.49757e-05 -0.00151504)
(0.0224518 7.46696e-05 -0.00196951)
(0.0212597 0.000142284 -0.0024028)
(0.0197741 0.000172858 -0.00288651)
(0.0180551 0.000170552 -0.00344605)
(0.0161653 0.000127137 -0.00409045)
(0.0141642 3.73579e-05 -0.00482282)
(0.0120908 -0.00010714 -0.00564013)
(0.00995407 -0.000307716 -0.00654085)
(0.00774375 -0.000568417 -0.00751309)
(0.0054601 -0.000898764 -0.00852207)
(0.00316236 -0.00131248 -0.00946133)
(0.00102519 -0.00180721 -0.0100302)
(-0.000478275 -0.00235096 -0.00946269)
(-0.00115734 -0.00223315 -0.00585295)
(0.0660875 -9.60769e-05 -0.000900537)
(0.0653677 0.000111889 -0.00218128)
(0.0639397 0.000407466 -0.00321159)
(0.0618309 0.000626867 -0.00420632)
(0.0591253 0.000724868 -0.00528784)
(0.055875 0.000678303 -0.006512)
(0.0521511 0.000481964 -0.00789476)
(0.0480188 0.000158977 -0.00942979)
(0.043498 -0.000248949 -0.0111043)
(0.0385357 -0.000711814 -0.0129002)
(0.0330071 -0.00123172 -0.0147963)
(0.0267584 -0.00186947 -0.0167413)
(0.0197104 -0.00273911 -0.0185384)
(0.0119811 -0.00391328 -0.0195249)
(0.00454425 -0.00523276 -0.0179454)
(-0.000683621 -0.00484033 -0.0101567)
(0.102717 8.27019e-05 -0.000687804)
(0.102055 0.000450112 -0.0019184)
(0.100659 0.000911812 -0.0030491)
(0.0985246 0.00132232 -0.00420234)
(0.0956763 0.0015728 -0.00548751)
(0.0920702 0.00158707 -0.00697727)
(0.0876765 0.00133837 -0.00870281)
(0.0824852 0.000868958 -0.0106589)
(0.07646 0.000282946 -0.0128129)
(0.0694978 -0.000302015 -0.0151236)
(0.0613978 -0.000832506 -0.0175295)
(0.0518357 -0.00137516 -0.019963)
(0.0404643 -0.00214008 -0.0222247)
(0.0269847 -0.00340373 -0.0235318)
(0.0124294 -0.0052801 -0.0215753)
(0.00081085 -0.00578355 -0.0118386)
(0.133248 0.000233293 -0.000532781)
(0.132715 0.000788302 -0.0015581)
(0.131529 0.00141627 -0.00255766)
(0.129663 0.00202497 -0.00361144)
(0.127105 0.00249845 -0.00481562)
(0.123722 0.00273175 -0.00626093)
(0.119343 0.00266846 -0.00801417)
(0.113809 0.00234458 -0.0101019)
(0.106976 0.00189606 -0.0125015)
(0.0986664 0.00153317 -0.0151367)
(0.088628 0.00143468 -0.0179141)
(0.0764633 0.0016532 -0.0207174)
(0.0616394 0.00200321 -0.0233515)
(0.0432905 0.00195273 -0.0250374)
(0.0218266 0.000461889 -0.0231497)
(0.00303298 -0.00250711 -0.0125786)
(0.157659 0.000351484 -0.000442403)
(0.157221 0.00108769 -0.00130252)
(0.15622 0.00186965 -0.0021515)
(0.15462 0.00265914 -0.00304874)
(0.15241 0.00337707 -0.0040757)
(0.149424 0.00393504 -0.00533083)
(0.1454 0.00427179 -0.00691604)
(0.140038 0.00441003 -0.00890889)
(0.133036 0.00448747 -0.0113312)
(0.124092 0.00475729 -0.0141261)
(0.112889 0.00552452 -0.0171638)
(0.0989836 0.00705216 -0.0202651)
(0.0817681 0.0093715 -0.023212)
(0.059931 0.011923 -0.0253058)
(0.0325689 0.0123579 -0.023744)
(0.00627321 0.00600616 -0.0128581)
(0.175959 0.000445275 -0.000385175)
(0.175587 0.00134235 -0.00113276)
(0.17473 0.00226425 -0.00187004)
(0.173346 0.00321338 -0.00264257)
(0.171435 0.00416092 -0.00351358)
(0.168848 0.0050655 -0.00457215)
(0.165302 0.00589735 -0.0059341)
(0.160422 0.0066889 -0.00771682)
(0.15379 0.00757342 -0.00999636)
(0.144967 0.00882319 -0.0127616)
(0.133542 0.0108202 -0.0158902)
(0.119009 0.0140412 -0.0191649)
(0.100764 0.0188943 -0.0223318)
(0.077363 0.0253278 -0.0248161)
(0.0458429 0.0299883 -0.0237564)
(0.0116595 0.021169 -0.0128183)
(0.188156 0.00051692 -0.000344706)
(0.187834 0.00154406 -0.0010121)
(0.187103 0.0025838 -0.00166901)
(0.185915 0.00366689 -0.0023529)
(0.184281 0.00481024 -0.00311219)
(0.182079 0.00602718 -0.00401988)
(0.179053 0.00734127 -0.00518624)
(0.174827 0.00882172 -0.0067438)
(0.168952 0.0106136 -0.00880424)
(0.160919 0.0130021 -0.0114)
(0.150278 0.0164091 -0.0144398)
(0.136491 0.0215161 -0.0177063)
(0.119014 0.0291458 -0.0209165)
(0.096698 0.0405697 -0.0236822)
(0.0645684 0.0526772 -0.0233232)
(0.0218568 0.0466896 -0.0124709)
(0.194252 0.000566013 -0.000314323)
(0.193974 0.00168296 -0.000921121)
(0.193365 0.0028052 -0.00151666)
(0.192381 0.00398431 -0.00213364)
(0.191036 0.00527422 -0.00281155)
(0.189237 0.00673812 -0.0036106)
(0.186771 0.00845504 -0.00462936)
(0.183301 0.0105404 -0.0059969)
(0.178427 0.0131577 -0.00783409)
(0.171671 0.0165964 -0.0101937)
(0.162691 0.0212675 -0.0130083)
(0.151048 0.0280015 -0.0160802)
(0.136663 0.0378626 -0.0191114)
(0.118511 0.0540264 -0.0218988)
(0.0961549 0.0792308 -0.0226129)
(0.0409167 0.0791287 -0.0114483)
(0.0239943 -0.000175991 -0.000504006)
(0.023602 -6.55599e-05 -0.00093109)
(0.0227407 6.14094e-05 -0.00120976)
(0.0214844 0.000126533 -0.00147484)
(0.0199226 0.000153858 -0.00177065)
(0.0181144 0.000147661 -0.00211267)
(0.0161218 9.89621e-05 -0.00250612)
(0.0140073 1.90078e-06 -0.00295156)
(0.0118142 -0.0001517 -0.00344594)
(0.00955946 -0.000362221 -0.00398445)
(0.00724596 -0.000629319 -0.00455536)
(0.00489129 -0.000957236 -0.00513181)
(0.00257799 -0.00135369 -0.0056441)
(0.000507727 -0.00181923 -0.00591298)
(-0.000805323 -0.00231826 -0.00551407)
(-0.00126328 -0.00218669 -0.00337531)
(0.0671358 -0.000104191 -0.000548501)
(0.0663723 9.20238e-05 -0.00133361)
(0.0648638 0.000379923 -0.00196437)
(0.0626419 0.00059251 -0.00257137)
(0.0597954 0.000682207 -0.0032304)
(0.0563755 0.000624043 -0.0039759)
(0.0524515 0.000411244 -0.00481785)
(0.0480906 6.67332e-05 -0.0057523)
(0.0433163 -0.000367289 -0.00676605)
(0.0380873 -0.000855975 -0.00784437)
(0.0323003 -0.00138979 -0.00896622)
(0.0258365 -0.00201715 -0.0100897)
(0.0186715 -0.00283674 -0.0110845)
(0.0110112 -0.00392479 -0.0115555)
(0.00390974 -0.00514848 -0.0104998)
(-0.000884518 -0.00474344 -0.00587884)
(0.104355 7.77867e-05 -0.000417021)
(0.103656 0.000432544 -0.00116898)
(0.102183 0.000884927 -0.00185937)
(0.0999304 0.00128734 -0.00256159)
(0.0969292 0.00152857 -0.00334237)
(0.0931347 0.00152886 -0.00424627)
(0.0885134 0.00125738 -0.00529296)
(0.0830513 0.000755003 -0.00647925)
(0.076709 0.000127942 -0.00778506)
(0.0693947 -0.000492973 -0.00917551)
(0.0609275 -0.00104394 -0.0106083)
(0.0510232 -0.00157263 -0.0120294)
(0.0394045 -0.00227075 -0.0133002)
(0.0258994 -0.00340786 -0.0139483)
(0.0116829 -0.00515181 -0.0126418)
(0.000584432 -0.00564443 -0.00685046)
(0.135377 0.000232109 -0.000322506)
(0.134814 0.000780716 -0.000947882)
(0.133562 0.00140252 -0.00155737)
(0.131587 0.00200671 -0.0021984)
(0.128885 0.00247605 -0.00292872)
(0.125321 0.00270201 -0.00380281)
(0.12072 0.00262212 -0.00486183)
(0.114916 0.00226795 -0.0061231)
(0.107757 0.00177822 -0.00757276)
(0.0990631 0.00137655 -0.00916364)
(0.0885919 0.00125723 -0.0108266)
(0.0759875 0.00149531 -0.0124767)
(0.060796 0.00192448 -0.0139801)
(0.0422959 0.00202006 -0.0148558)
(0.0210982 0.000679964 -0.013581)
(0.00282992 -0.00229465 -0.00727507)
(0.160179 0.000353465 -0.000267768)
(0.159716 0.00109073 -0.000792105)
(0.158659 0.00187293 -0.00130975)
(0.156961 0.00266429 -0.00185594)
(0.154618 0.00338624 -0.00247909)
(0.151464 0.00394839 -0.00323708)
(0.147235 0.00428409 -0.00419133)
(0.141623 0.00441042 -0.00539052)
(0.134314 0.00446504 -0.00684976)
(0.124991 0.00470723 -0.00853418)
(0.11334 0.00546438 -0.0103569)
(0.0989494 0.00702398 -0.0121955)
(0.0812865 0.00944048 -0.013898)
(0.0591751 0.0121534 -0.0150256)
(0.0319545 0.012753 -0.0139415)
(0.00612393 0.00636703 -0.00743733)
(0.178774 0.000449933 -0.000233199)
(0.178378 0.00135487 -0.000688953)
(0.177472 0.00228406 -0.00113864)
(0.176001 0.0032422 -0.00160958)
(0.173967 0.00420212 -0.00213933)
(0.171224 0.00512245 -0.00277929)