/*--------------------------------*- C++ -*----------------------------------*\
| =========                 |                                                 |
| \\      /  F ield         | foam-extend: Open Source CFD                    |
|  \\    /   O peration     | Version:     3.1                                |
|   \\  /    A nd           | Web:         http://www.extend-project.de       |
|    \\/     M anipulation  |                                                 |
\*---------------------------------------------------------------------------*/
FoamFile
{
    version     2.0;
    format      ascii;
    class       volVectorField;
    location    "2";
    object      D;
}
// * * * * * * * * * * * * * * * * * * * * * * * * * * * * * * * * * * * * * //

dimensions      [0 1 0 0 0 0 0];

internalField   nonuniform List<vector> 
256
(
(0.000204667 0.000118105 0.000193894)
(0.000102231 2.04529e-05 6.13611e-05)
(8.97684e-05 -3.38396e-05 -6.07083e-05)
(0.000163624 -0.000127165 -0.000198132)
(0.000813569 0.000486231 0.000116021)
(0.000678195 0.0001306 4.7507e-05)
(0.000646966 -0.000141379 -7.92296e-05)
(0.000715828 -0.000486859 -0.000171579)
(0.0015478 0.000749252 3.61833e-05)
(0.00141046 0.000225817 3.31108e-06)
(0.00136984 -0.000225087 -7.1519e-05)
(0.00142404 -0.000743656 -0.000130113)
(0.00239642 0.000955272 -5.69471e-05)
(0.00227182 0.00029978 -3.8483e-05)
(0.00222647 -0.000292445 -6.01174e-05)
(0.00225819 -0.000946045 -6.89084e-05)
(0.00331785 0.00109923 -0.000143079)
(0.00320572 0.000350664 -7.63437e-05)
(0.0031582 -0.000343698 -4.61873e-05)
(0.00317212 -0.00109079 -6.28334e-06)
(0.00427536 0.00119406 -0.000216964)
(0.00417474 0.000382295 -0.000108839)
(0.00412672 -0.000382304 -3.35815e-05)
(0.0041274 -0.00118998 5.0568e-05)
(0.00524204 0.00125177 -0.000275746)
(0.0051488 0.000398732 -0.000137812)
(0.00510025 -0.000410937 -2.56979e-05)
(0.00509361 -0.00125392 9.49465e-05)
(0.00620842 0.00128329 -0.000321595)
(0.00610829 0.000406357 -0.000165516)
(0.00605438 -0.000431044 -2.49317e-05)
(0.0060485 -0.00129357 0.000118235)
(0.000216197 0.000118037 8.74573e-05)
(0.000113441 2.25995e-05 2.9696e-05)
(0.000100661 -3.14777e-05 -3.30888e-05)
(0.000170796 -0.000121413 -9.71897e-05)
(0.000826444 0.000487354 5.10956e-05)
(0.000677048 0.000136329 1.80564e-05)
(0.000646893 -0.00013513 -4.93693e-05)
(0.000729575 -0.0004769 -9.81588e-05)
(0.00152865 0.000762514 -4.62195e-06)
(0.00139428 0.00023749 -1.23432e-05)
(0.00135583 -0.000221376 -4.93085e-05)
(0.00140887 -0.000742088 -7.40574e-05)
(0.00234222 0.000970961 -7.26487e-05)
(0.00222217 0.000313375 -4.43978e-05)
(0.00217948 -0.000287686 -4.35098e-05)
(0.00220879 -0.000943627 -3.31598e-05)
(0.00322669 0.00111584 -0.000139043)
(0.00312092 0.000365351 -7.44287e-05)
(0.00307607 -0.000337007 -3.50223e-05)
(0.00308572 -0.00108556 1.21355e-05)
(0.00414978 0.0012095 -0.000197668)
(0.00405609 0.000397098 -0.000101061)
(0.00401056 -0.000372471 -2.71867e-05)
(0.00400595 -0.00117932 5.40723e-05)
(0.00508593 0.00126437 -0.00024524)
(0.00500067 0.000412602 -0.000124876)
(0.00495469 -0.000397049 -2.35732e-05)
(0.00494145 -0.00123577 8.58106e-05)
(0.00602794 0.00129177 -0.000280236)
(0.00593603 0.000418138 -0.000146158)
(0.00588475 -0.000412909 -2.79753e-05)
(0.00587226 -0.00126716 9.76414e-05)
(0.000219122 0.000119867 3.43285e-05)
(0.000109747 2.42981e-05 1.15554e-05)
(9.51283e-05 -3.14678e-05 -1.74559e-05)
(0.000167701 -0.00012214 -4.41912e-05)
(0.00082224 0.000479179 9.97684e-06)
(0.000660548 0.000136711 -2.19715e-07)
(0.000627838 -0.000128909 -2.94278e-05)
(0.000717566 -0.000463452 -4.88173e-05)
(0.00150488 0.000753389 -3.01107e-05)
(0.00136139 0.000239848 -2.23232e-05)
(0.00132048 -0.000212001 -3.21452e-05)
(0.00137795 -0.000722367 -3.37093e-05)
(0.00229363 0.000962441 -7.92521e-05)
(0.00216738 0.000317693 -4.64746e-05)
(0.00212239 -0.00027517 -3.00298e-05)
(0.00215343 -0.000918583 -6.68557e-06)
(0.00315186 0.00110956 -0.000128783)
(0.00304171 0.000371815 -6.97104e-05)
(0.00299466 -0.000321608 -2.55907e-05)
(0.00300433 -0.00105656 2.46192e-05)
(0.00404921 0.00120594 -0.000173828)
(0.00395259 0.000405543 -9.09344e-05)
(0.00390506 -0.000354267 -2.15243e-05)
(0.00389911 -0.00114671 5.40658e-05)
(0.00496159 0.00126369 -0.000211101)
(0.00487495 0.000422572 -0.00011019)
(0.0048272 -0.000376142 -2.11731e-05)
(0.00481129 -0.00119965 7.53465e-05)
(0.00588387 0.00129416 -0.000237458)
(0.00579195 0.000429259 -0.000127109)
(0.00573842 -0.000389463 -2.87308e-05)
(0.00572071 -0.00122754 7.85696e-05)
(0.000217246 0.000120174 8.85197e-06)
(0.000103947 2.49108e-05 2.50841e-06)
(8.78523e-05 -3.12088e-05 -8.62477e-06)
(0.000161436 -0.000121428 -1.69662e-05)
(0.000809477 0.00047115 -1.0917e-05)
(0.000640618 0.00013606 -8.64721e-06)
(0.000605306 -0.000123425 -1.69399e-05)
(0.000697598 -0.000450504 -2.00063e-05)
(0.0014762 0.000741562 -4.0999e-05)
(0.00132584 0.00023987 -2.52598e-05)
(0.0012822 -0.000202139 -2.00993e-05)
(0.00134203 -0.000700777 -9.39184e-06)
(0.00224641 0.000949959 -7.68109e-05)
(0.00211455 0.00031932 -4.33618e-05)
(0.00206694 -0.000261471 -1.98096e-05)
(0.00209936 -0.00089056 8.89124e-06)
(0.00308527 0.00109858 -0.000113406)
(0.0029707 0.000375607 -6.10809e-05)
(0.0029212 -0.000304601 -1.78203e-05)
(0.00293132 -0.00102392 3.03384e-05)
(0.0039634 0.00119763 -0.000147437)
(0.00386349 0.000411673 -7.76839e-05)
(0.00381372 -0.000334439 -1.62109e-05)
(0.00380735 -0.0011106 5.05229e-05)
(0.0048576 0.00125852 -0.000176146)
(0.00476875 0.00043087 -9.30648e-05)
(0.00471888 -0.000353926 -1.77881e-05)
(0.00470152 -0.00116073 6.42128e-05)
(0.005764 0.00129214 -0.000196)
(0.00567042 0.000439578 -0.000106619)
(0.00561403 -0.000365166 -2.63053e-05)
(0.00559312 -0.0011862 6.26841e-05)
(0.000214166 0.000119609 -1.97776e-06)
(9.88812e-05 2.51255e-05 -1.30252e-06)
(8.17888e-05 -3.08136e-05 -3.80537e-06)
(0.000155313 -0.000119955 -3.9876e-06)
(0.000795202 0.000464576 -1.82913e-05)
(0.000622387 0.000135514 -1.08818e-05)
(0.000585138 -0.000118845 -9.28232e-06)
(0.00067795 -0.000439344 -4.9744e-06)
(0.00144859 0.000731734 -4.07963e-05)
(0.00129387 0.000239746 -2.32502e-05)
(0.00124816 -0.00019353 -1.19887e-05)
(0.00130889 -0.00068216 2.85566e-06)
(0.00220443 0.000939231 -6.66567e-05)
(0.00206859 0.000320467 -3.65366e-05)
(0.00201902 -0.000249274 -1.24252e-05)
(0.00205216 -0.0008661 1.53561e-05)
(0.00302867 0.00108875 -9.31784e-05)
(0.00291074 0.000378567 -4.96755e-05)
(0.00285944 -0.00028932 -1.17531e-05)
(0.00286994 -0.0009951 2.99074e-05)
(0.00389235 0.00118972 -0.00011821)
(0.00378978 0.000416641 -6.22383e-05)
(0.00373839 -0.000316587 -1.15041e-05)
(0.00373196 -0.00107854 4.34318e-05)
(0.00477256 0.00125293 -0.000139644)
(0.00468175 0.000437722 -7.40896e-05)
(0.00463032 -0.000333984 -1.38456e-05)
(0.00461224 -0.00112613 5.19307e-05)
(0.00566594 0.0012888 -0.000154203)
(0.00557076 0.000448167 -8.45593e-05)
(0.00551222 -0.000343448 -2.17306e-05)
(0.00548939 -0.00114952 4.84608e-05)
(0.000211348 0.000118844 -5.10908e-06)
(9.51405e-05 2.51916e-05 -2.28302e-06)
(7.73978e-05 -3.04139e-05 -1.38054e-06)
(0.000150447 -0.000118441 1.14507e-06)
(0.000782937 0.0004597 -1.74809e-05)
(0.000608036 0.000135219 -9.5655e-06)
(0.00056948 -0.000115302 -4.73743e-06)
(0.000662008 -0.00043064 1.41071e-06)
(0.00142587 0.000724595 -3.33222e-05)
(0.00126857 0.000239834 -1.82141e-05)
(0.00122146 -0.0001868 -6.70405e-06)
(0.00128238 -0.000667811 6.97222e-06)
(0.00217087 0.00093141 -5.10086e-05)
(0.0020325 0.000321543 -2.73792e-05)
(0.00198161 -0.000239672 -7.28922e-06)
(0.00201507 -0.000847213 1.52127e-05)
(0.00298433 0.00108147 -6.91435e-05)
(0.00286415 0.000381016 -3.64989e-05)
(0.00281169 -0.000277235 -7.21889e-06)
(0.00282244 -0.000972724 2.46602e-05)
(0.00383741 0.00118368 -8.64191e-05)
(0.00373299 0.000420588 -4.53451e-05)
(0.00368057 -0.000302437 -7.54141e-06)
(0.00367418 -0.00105349 3.32912e-05)
(0.00470721 0.00124838 -0.000101362)
(0.00461496 0.000443057 -5.37969e-05)
(0.00456254 -0.000318176 -9.77418e-06)
(0.00454417 -0.00109898 3.8318e-05)
(0.00559052 0.00128563 -0.000111385)
(0.00549408 0.000454767 -6.12699e-05)
(0.00543415 -0.000326245 -1.59882e-05)
(0.0054103 -0.00112067 3.47865e-05)
(0.000209338 0.000118203 -4.28702e-06)
(9.27381e-05 2.52046e-05 -1.81222e-06)
(7.45997e-05 -3.01023e-05 -3.48351e-07)
(0.00014716 -0.000117274 2.05291e-06)
(0.000774269 0.000456487 -1.20266e-05)
(0.000598337 0.000135093 -6.34142e-06)
(0.000558979 -0.00011289 -2.13417e-06)
(0.000651055 -0.000424715 2.64437e-06)
(0.00141001 0.000720001 -2.14909e-05)
(0.00125129 0.000240022 -1.14803e-05)
(0.00120333 -0.000182214 -3.30529e-06)
(0.00126419 -0.000658133 6.01163e-06)
(0.00214769 0.000926408 -3.18606e-05)
(0.00200785 0.000322419 -1.68765e-05)
(0.00195618 -0.000233117 -3.74661e-06)
(0.00198973 -0.000834491 1.07367e-05)
(0.00295397 0.00107679 -4.24832e-05)
(0.00283243 0.00038281 -2.22659e-05)
(0.00277928 -0.000268974 -3.85305e-06)
(0.00279016 -0.00095762 1.60786e-05)
(0.0038 0.00117974 -5.26571e-05)
(0.00369442 0.000423359 -2.75407e-05)
(0.00364141 -0.000292756 -4.2349e-06)
(0.00363509 -0.00103652 2.08866e-05)
(0.00466281 0.00124527 -6.15091e-05)
(0.00456964 0.000446716 -3.2618e-05)
(0.00451667 -0.00030736 -5.78493e-06)
(0.0044982 -0.00108054 2.35202e-05)
(0.00553924 0.00128329 -6.73987e-05)
(0.00544196 0.00045923 -3.71033e-05)
(0.00538125 -0.00031448 -9.71759e-06)
(0.00535693 -0.00110103 2.10314e-05)
(0.000208303 0.000117849 -1.60918e-06)
(9.15707e-05 2.52037e-05 -6.68703e-07)
(7.32454e-05 -2.99338e-05 -4.11733e-08)
(0.000145515 -0.00011665 8.91052e-07)
(0.000769821 0.000454893 -4.24275e-06)
(0.000593476 0.000135052 -2.20311e-06)
(0.000553739 -0.00011167 -5.97789e-07)
(0.000645521 -0.000421722 1.16342e-06)
(0.00140191 0.000717756 -7.39499e-06)
(0.00124257 0.000240158 -3.90968e-06)
(0.00119421 -0.000179895 -9.84782e-07)
(0.00125498 -0.000653269 2.29445e-06)
(0.00213589 0.000923977 -1.08178e-05)
(0.00199538 0.000322909 -5.69383e-06)
(0.00194334 -0.000229803 -1.14526e-06)
(0.00197692 -0.000828107 3.83787e-06)
(0.00293855 0.00107451 -1.43219e-05)
(0.00281639 0.00038376 -7.47891e-06)
(0.00276291 -0.000264796 -1.20413e-06)
(0.00277385 -0.000950037 5.56887e-06)
(0.00378105 0.0011778 -1.76864e-05)
(0.00367492 0.000424789 -9.23352e-06)
(0.00362165 -0.000287859 -1.3616e-06)
(0.00361537 -0.001028 7.11374e-06)
(0.00464033 0.00124369 -2.0622e-05)
(0.00454673 0.000448578 -1.0928e-05)
(0.00449351 -0.000301889 -1.91178e-06)
(0.00447502 -0.00107126 7.93161e-06)
(0.00551325 0.00128202 -2.25674e-05)
(0.00541558 0.000461484 -1.24232e-05)
(0.00535452 -0.000308528 -3.25374e-06)
(0.00533003 -0.00109114 7.04546e-06)
)
;

boundaryField
{
    interface
    {
        type            tractionDisplacement;
        gradient        nonuniform List<vector> 
192
(
(0.0173096 0.025762 -0.000298205)
(0.00815341 0.0244442 -0.000915503)
(0.00912745 0.0309888 -0.0025265)
(0.00756806 0.0343844 -0.00437217)
(0.00653394 0.0368596 -0.00604991)
(0.005592 0.0381123 -0.00752386)
(0.00513635 0.0387299 -0.00868937)
(0.00483748 0.0398394 -0.009371)
(0.0176102 0.0262709 -0.00016149)
(0.00942765 0.0235887 -0.000509993)
(0.00928874 0.029424 -0.00155921)
(0.00789206 0.0329084 -0.00285402)
(0.00678744 0.0354436 -0.00410485)
(0.0058783 0.0369052 -0.0052751)
(0.00541081 0.0377885 -0.00628202)
(0.00506673 0.0393753 -0.00700207)
(0.0179419 0.0264916 -0.000290637)
(0.00975945 0.0230287 -0.000773567)
(0.00951334 0.0283947 -0.00151565)
(0.0079906 0.0318382 -0.00240817)
(0.00678127 0.0343796 -0.00333597)
(0.00581128 0.0359412 -0.00422538)
(0.00531128 0.0369717 -0.00502677)
(0.00485785 0.0388365 -0.00566188)
(0.018061 0.0263597 -0.000317179)
(0.0100122 0.0225485 -0.000824074)
(0.00978181 0.0276924 -0.00141239)
(0.00820796 0.0310484 -0.00207299)
(0.00693201 0.0335866 -0.00275653)
(0.00590608 0.0351963 -0.00342473)
(0.00536451 0.0363103 -0.00404884)
(0.00484874 0.0383309 -0.00458414)
(0.0180345 0.0260986 -0.000282876)
(0.0101573 0.0221366 -0.000735958)
(0.00996689 0.0271621 -0.00120243)
(0.008388 0.0304687 -0.00169974)
(0.00708186 0.0330012 -0.00220415)
(0.00602047 0.0346335 -0.00270047)
(0.00544865 0.0357894 -0.00317783)
(0.00488211 0.037891 -0.00361142)
(0.0179557 0.0258348 -0.000214995)
(0.0102317 0.0218074 -0.000562531)
(0.0100807 0.0267661 -0.000903846)
(0.00851349 0.0300499 -0.00125804)
(0.00719762 0.0325802 -0.00161186)
(0.00611832 0.0342232 -0.00196048)
(0.00552866 0.0353968 -0.00230114)
(0.00493411 0.0375392 -0.00261967)
(0.0178796 0.0256345 -0.000132362)
(0.0102641 0.0215785 -0.000348267)
(0.0101421 0.0264997 -0.000556554)
(0.00858839 0.0297736 -0.000770216)
(0.00727131 0.0323041 -0.000981971)
(0.00618406 0.033952 -0.00119073)
(0.00558492 0.0351328 -0.00139623)
(0.00497508 0.0372949 -0.00159113)
(0.0178349 0.0255285 -4.44269e-05)
(0.0102747 0.0214618 -0.000117385)
(0.0101677 0.0263654 -0.000187365)
(0.00862197 0.0296356 -0.000258885)
(0.00730569 0.0321667 -0.000329567)
(0.00621568 0.0338168 -0.000399297)
(0.00561196 0.0350003 -0.000468074)
(0.00499484 0.0371682 -0.000533648)
(-0.000477002 0.00703808 0.00887746)
(-0.000259438 -0.00405695 0.00093944)
(0.00198177 -0.00332222 0.00177429)
(0.00396403 -0.0037991 0.000543642)
(0.00595171 -0.00339725 -8.8717e-05)
(0.00763394 -0.00286824 -0.00067148)
(0.00894738 -0.00231158 -0.000987488)
(0.00993977 -0.00140318 -0.00152875)
(-0.0025213 0.0028308 0.00191218)
(-0.00389024 -0.00163424 0.00022813)
(-0.00146384 -0.00138745 3.34132e-05)
(0.000738199 -0.00153615 -0.000389485)
(0.00294997 -0.00142532 -0.000632704)
(0.0048466 -0.00131137 -0.000824901)
(0.00641984 -0.00125334 -0.000954266)
(0.0077498 -0.000980441 -0.0013199)
(-0.00278543 -0.00339625 -0.00213631)
(-0.00436524 0.000728665 -0.000566262)
(-0.00208835 0.000583442 -0.000713905)
(0.000108403 0.000791393 -0.000551501)
(0.00231677 0.000655023 -0.000438901)
(0.00426518 0.000410038 -0.000301404)
(0.00593891 5.93436e-05 -0.00017085)
(0.00729492 -0.000344821 0.000139879)
(-0.00149437 -0.00851519 -0.00845361)
(-0.0018979 0.00260542 -0.00141644)
(-0.000159498 0.0022925 -0.00237277)
(0.00166883 0.0029032 -0.00139354)
(0.00358564 0.0026007 -0.000866313)
(0.00534357 0.00210373 -0.000326425)
(0.00687577 0.00137045 8.29025e-05)
(0.00804917 0.000186861 0.000632796)
(0.0138476 -0.0229177 -0.000543814)
(0.0054992 -0.0233793 -0.000785558)
(0.00542144 -0.0306885 0.000280259)
(0.00342442 -0.0344522 0.00190993)
(0.00207006 -0.0370263 0.00356339)
(0.000985886 -0.0381726 0.00518088)
(0.000389943 -0.0383706 0.0066413)
(0.000316552 -0.0380481 0.00777748)
(0.0136084 -0.023653 -0.000199407)
(0.00646425 -0.0230137 -8.00735e-05)
(0.00531799 -0.0293366 0.000757558)
(0.00343219 -0.0330601 0.00197672)
(0.00199943 -0.0355691 0.00324667)
(0.000912795 -0.0367976 0.00451131)
(0.000273681 -0.0371378 0.00568465)
(0.000259331 -0.0370898 0.00675272)
(0.0137525 -0.0236087 7.03728e-05)
(0.00678109 -0.0225533 0.000489125)
(0.00557771 -0.0283726 0.00117125)
(0.00359419 -0.0320001 0.00204487)
(0.0020624 -0.0344505 0.00299521)
(0.000901032 -0.0357103 0.00395107)
(0.000194012 -0.0361161 0.00488091)
(4.71975e-05 -0.0360966 0.00579218)
(0.013712 -0.0231711 0.00017784)
(0.00698059 -0.0220455 0.000676186)
(0.0057876 -0.0276733 0.0012623)
(0.00376719 -0.0312039 0.00193234)
(0.00217333 -0.0336165 0.00264014)
(0.000949988 -0.0348759 0.00335778)
(0.000172744 -0.0352831 0.00407274)
(-4.50126e-05 -0.0352287 0.00480397)
(0.0135639 -0.0226443 0.00019232)
(0.00707583 -0.0215758 0.000649578)
(0.0059085 -0.0271174 0.00112844)
(0.00388689 -0.0306059 0.00164252)
(0.00226542 -0.0329955 0.00216861)
(0.00100321 -0.0342446 0.00269942)
(0.000175158 -0.0346354 0.00323539)
(-8.9591e-05 -0.034531 0.00379661)
(0.0133984 -0.0221803 0.000158857)
(0.00710943 -0.0211937 0.000512579)
(0.00596864 -0.0266916 0.000866616)
(0.00395891 -0.0301664 0.00123577)
(0.00232841 -0.0325461 0.00160584)
(0.00104523 -0.0337862 0.00197622)
(0.000187007 -0.0341583 0.00235153)
(-0.000102479 -0.0340085 0.00274831)
(0.013267 -0.0218484 0.000102165)
(0.0071146 -0.0209277 0.000322695)
(0.00599422 -0.0264019 0.000539407)
(0.00399745 -0.0298738 0.00076271)
(0.00236562 -0.0322503 0.000984119)
(0.00107294 -0.033485 0.00120451)
(0.000199 -0.0338432 0.00142773)
(-0.000101024 -0.0336622 0.00166429)
(0.013196 -0.0216774 3.50509e-05)
(0.00711233 -0.020792 0.000109702)
(0.00600277 -0.0262553 0.000182565)
(0.00401384 -0.0297271 0.000257357)
(0.00238256 -0.0321029 0.00033119)
(0.00108641 -0.0333351 0.000404508)
(0.000206028 -0.0336867 0.000478782)
(-9.77015e-05 -0.0334901 0.00055728)
(0.0398742 0.000984818 -0.000854149)
(0.0394299 0.000746094 -0.000239361)
(0.0389738 0.000972286 -9.90696e-05)
(0.0385065 0.00109805 4.20877e-05)
(0.0380722 0.00120155 8.70637e-05)
(0.0377193 0.00126453 8.66579e-05)
(0.0374723 0.00130054 5.93898e-05)
(0.0373443 0.00131373 2.08511e-05)
(0.0363448 0.00098372 -0.000523797)
(0.0358838 0.000843594 -0.000339365)
(0.0353837 0.000924497 -0.000347393)
(0.0348709 0.00101982 -0.000292233)
(0.0343803 0.00110888 -0.000231049)
(0.033978 0.0011749 -0.000165057)
(0.0336974 0.00121773 -9.8616e-05)
(0.0335554 0.0012392 -3.26165e-05)
(0.0357276 -0.000693105 -0.000273838)
(0.0351906 -0.00045794 -0.000625781)
(0.0345395 -0.000368836 -0.000764031)
(0.03391 -0.000283135 -0.000761489)
(0.0333475 -0.000207694 -0.000651627)
(0.0329001 -0.000146717 -0.000487643)
(0.032593 -0.000104313 -0.000298531)
(0.0324374 -8.20901e-05 -0.000100154)
(0.0375161 -0.00119926 -0.000199711)
(0.0367245 -0.000815254 -0.00115784)
(0.0358371 -0.000795745 -0.00139453)
(0.0350351 -0.000746394 -0.00136739)
(0.034367 -0.000697664 -0.00115744)
(0.0338588 -0.000647078 -0.000861735)
(0.033518 -0.000608251 -0.000526489)
(0.0333468 -0.000587676 -0.000176672)
)
;
        traction        nonuniform List<vector> 
192
(
(21.9814 -0.539335 -2.13424)
(22.2813 -0.563156 -3.70316)
(22.2299 -0.653131 -4.33832)
(22.2178 -0.54525 -4.59066)
(22.297 -0.272585 -4.63701)
(22.4696 0.220267 -4.52355)
(22.6771 1.11251 -4.22337)
(22.0057 2.56958 -3.60972)
(24.2 -0.75032 -1.4394)
(24.7143 -0.772407 -2.53576)
(25.1849 -0.854524 -2.97668)
(25.5384 -0.690096 -3.13276)
(25.7337 -0.319321 -3.12988)
(25.7427 0.323317 -3.00089)
(25.3386 1.46083 -2.73464)
(22.9764 3.17703 -2.29298)
(25.493 -0.812881 -0.965832)
(25.8977 -0.8139 -1.71364)
(26.3982 -0.88506 -1.99131)
(26.7829 -0.689234 -2.06749)
(26.9392 -0.257649 -2.03787)
(26.785 0.479099 -1.92935)
(25.9951 1.74996 -1.74449)
(22.8333 3.54791 -1.47988)
(26.3639 -0.823876 -0.668405)
(26.6686 -0.803082 -1.19884)
(27.1203 -0.863295 -1.38712)
(27.4687 -0.646215 -1.42697)
(27.5624 -0.176487 -1.39385)
(27.281 0.618445 -1.31104)
(26.2479 1.96633 -1.18697)
(22.6221 3.79558 -1.02097)
(26.9635 -0.820132 -0.460624)
(27.2064 -0.780296 -0.835422)
(27.6114 -0.828992 -0.966545)
(27.9159 -0.596958 -0.989442)
(27.9543 -0.102765 -0.961548)
(27.5811 0.728682 -0.902235)
(26.3883 2.1251 -0.820238)
(22.4542 3.97071 -0.712531)
(27.3682 -0.813292 -0.302435)
(27.5755 -0.758885 -0.553405)
(27.9463 -0.797426 -0.641367)
(28.2153 -0.554728 -0.655092)
(28.212 -0.0448942 -0.634995)
(27.7759 0.809509 -0.595482)
(26.4788 2.23723 -0.543205)
(22.3382 4.0924 -0.474528)
(27.6214 -0.807883 -0.170803)
(27.8101 -0.74378 -0.314542)
(28.161 -0.774817 -0.365096)
(28.4058 -0.525015 -0.372423)
(28.3754 -0.00571039 -0.360507)
(27.9 0.86269 -0.337911)
(26.5389 2.3097 -0.307394)
(22.2704 4.16823 -0.26668)
(27.737 -0.804055 -0.0546391)
(27.9151 -0.735018 -0.101008)
(28.2557 -0.762359 -0.117288)
(28.4871 -0.509329 -0.119498)
(28.4437 0.0143267 -0.115569)
(27.9508 0.890647 -0.108222)
(26.5505 2.34864 -0.0976293)
(22.2093 4.20085 -0.0831565)
(2.77965 0.588579 10.6948)
(4.92646 0.939552 7.42921)
(5.88 0.858342 4.6368)
(6.36054 0.670451 2.90798)
(6.62434 0.568484 2.10789)
(6.81081 0.629797 2.0241)
(7.08959 0.867762 2.50848)
(7.90145 1.16904 3.50195)
(1.80224 0.527578 9.88468)
(3.40238 0.94127 8.50047)
(3.99416 0.977521 6.8279)
(4.19648 0.758778 5.66868)
(4.26601 0.512217 5.1032)
(4.34647 0.358874 5.02177)
(4.62609 0.335403 5.28511)
(5.70132 0.346298 5.58748)
(1.38616 0.427009 9.43891)
(2.86613 0.784735 8.95362)
(3.44983 0.912993 7.87894)
(3.61293 0.738774 7.03748)
(3.62545 0.474102 6.61675)
(3.65759 0.24948 6.55419)
(3.91185 0.111065 6.76286)
(4.98494 0.021029 7.01946)
(1.28501 0.44105 8.79286)
(2.85852 0.755187 8.59612)
(3.56396 0.906774 7.68506)
(3.77762 0.744502 6.94601)
(3.79674 0.4776 6.57997)
(3.8195 0.228459 6.49928)
(4.05763 0.00898872 6.59511)
(5.06979 -0.244777 6.81792)
(-7.0428 0.542096 0.0692459)
(-5.85747 0.888527 0.318771)
(-4.76232 1.00313 0.340209)
(-4.20875 0.860279 0.28695)
(-3.99874 0.672484 0.290513)
(-3.75423 0.53536 0.419501)
(-2.962 0.338308 0.726592)
(-0.22938 -0.744579 1.23965)
(-8.45052 0.359232 -0.359668)
(-8.28365 0.581429 -0.441479)
(-7.9672 0.730639 -0.508588)
(-7.79227 0.726046 -0.564342)
(-7.73895 0.705587 -0.541813)
(-7.57103 0.754323 -0.409761)
(-6.70435 0.782338 -0.154717)
(-3.43262 -0.143345 0.239852)
(-9.4434 0.279185 -0.38482)
(-9.53865 0.413842 -0.478065)
(-9.50899 0.571252 -0.485969)
(-9.49749 0.664555 -0.477968)
(-9.44639 0.777447 -0.416254)
(-9.11097 0.959782 -0.279613)
(-7.9496 1.08933 -0.0822523)
(-4.70326 0.312951 0.149737)
(-10.165 0.250357 -0.311639)
(-10.3275 0.340043 -0.375525)
(-10.405 0.503324 -0.343438)
(-10.4456 0.660434 -0.29808)
(-10.3545 0.865436 -0.223642)
(-9.89513 1.13717 -0.109914)
(-8.56105 1.33546 0.0237945)
(-5.23925 0.643324 0.17231)
(-10.6782 0.242659 -0.223329)
(-10.8529 0.316186 -0.258481)
(-10.9624 0.489115 -0.212218)
(-11.0058 0.688398 -0.156587)
(-10.8649 0.951756 -0.0879976)
(-10.2991 1.27596 -0.00445002)
(-8.86959 1.51271 0.0792914)
(-5.53271 0.8716 0.164265)
(-11.0202 0.243417 -0.144067)
(-11.1896 0.315179 -0.159196)
(-11.3002 0.498595 -0.116201)
(-11.3289 0.72424 -0.0678378)
(-11.1433 1.02039 -0.0157036)
(-10.5211 1.3734 0.0390493)
(-9.02978 1.62905 0.0878828)
(-5.7235 1.02183 0.133757)
(-11.2278 0.246088 -0.0791977)
(-11.3891 0.320773 -0.0841159)
(-11.4936 0.512558 -0.055205)
(-11.5079 0.753223 -0.0236996)
(-11.2951 1.06698 0.00781354)
(-10.6349 1.43456 0.0387763)
(-9.1038 1.6998 0.0644191)
(-5.80189 1.10897 0.0865265)
(-11.3242 0.247737 -0.0250754)
(-11.4803 0.324693 -0.0260654)
(-11.5809 0.520987 -0.0161017)
(-11.5859 0.768456 -0.00533582)
(-11.3617 1.08993 0.0050543)
(-10.6841 1.46414 0.0150099)
(-9.13358 1.73202 0.0231815)
(-5.83457 1.14755 0.0289661)
(8.01249 -3.74428 -1.60329)
(7.33241 -2.33113 -1.23272)
(7.1937 -1.17859 -0.883044)
(7.20252 -0.258664 -0.633945)
(7.24971 0.43458 -0.452972)
(7.30132 0.932641 -0.310256)
(7.34239 1.2457 -0.190049)
(7.36133 1.34422 -0.0670567)
(5.71023 -5.24154 -0.34232)
(4.60191 -4.54758 -0.237261)
(4.27083 -3.74646 -0.107168)
(4.15797 -3.06484 -0.0419973)
(4.11804 -2.55553 -0.0165142)
(4.1072 -2.18485 -0.00670341)
(4.11011 -1.94086 -0.00293065)
(4.12094 -1.80397 -0.000772558)
(4.86262 -6.37104 0.26069)
(3.64349 -5.81072 0.239307)
(3.21974 -5.19325 0.243194)
(3.03843 -4.67571 0.217111)
(2.94891 -4.28651 0.172552)
(2.90135 -4.00692 0.123651)
(2.8761 -3.82552 0.0754275)
(2.86366 -3.72807 0.0259457)
(4.8199 -6.16736 0.678059)
(3.60198 -5.77716 0.479391)
(3.14045 -5.41812 0.383454)
(2.92465 -5.08077 0.314457)
(2.80758 -4.8106 0.244378)
(2.74072 -4.6084 0.173343)
(2.70094 -4.48212 0.102377)
(2.67866 -4.4285 0.0335639)
)
;
        pressure        uniform 0;
        value           nonuniform List<vector> 
192
(
(0.000421037 0.00044013 0.000190166)
(0.000915487 0.000791784 0.000104577)
(0.00166189 0.00113661 4.602e-06)
(0.00249102 0.00138508 -0.000111599)
(0.00339952 0.00155997 -0.000218703)
(0.00434526 0.00167047 -0.000311012)
(0.00530625 0.0017359 -0.000384363)
(0.00626889 0.00178128 -0.000438732)
(0.000436324 0.000446424 8.54386e-05)
(0.00094429 0.000782213 4.47207e-05)
(0.00164476 0.00113031 -2.41121e-05)
(0.00244087 0.00138232 -0.000108324)
(0.00331153 0.00155889 -0.000190354)
(0.00422326 0.00167081 -0.000263607)
(0.00515357 0.00173673 -0.000323765)
(0.00609127 0.00178396 -0.000367762)
(0.000443396 0.000451013 3.06955e-05)
(0.000944233 0.000767037 3.07254e-07)
(0.0016238 0.00110832 -4.90564e-05)
(0.00239351 0.00136042 -0.000109354)
(0.00323663 0.0015393 -0.000170482)
(0.00412185 0.0016552 -0.000226645)
(0.00502798 0.00172584 -0.000273936)
(0.00594459 0.00177962 -0.000308231)
(0.000443009 0.00044967 4.88723e-06)
(0.000934629 0.000753007 -2.12179e-05)
(0.00159847 0.00108772 -5.86539e-05)
(0.00234901 0.00133806 -0.000102723)
(0.00317192 0.00151842 -0.000147863)
(0.00403723 0.00163758 -0.000190246)
(0.00492466 0.00171239 -0.000226756)
(0.00582461 0.00177127 -0.000253301)
(0.000439597 0.000445842 -5.5137e-06)
(0.000922169 0.000741284 -2.74908e-05)
(0.00157318 0.00107126 -5.58266e-05)
(0.00230928 0.00132009 -8.79035e-05)
(0.00311719 0.00150126 -0.00012073)
(0.0039676 0.00162264 -0.000151965)
(0.00484067 0.00170029 -0.000179367)
(0.00572697 0.00176243 -0.000199345)
(0.000435795 0.000441779 -7.79652e-06)
(0.000910833 0.000732292 -2.45125e-05)
(0.00155187 0.00105917 -4.46203e-05)
(0.00227728 0.00130703 -6.67341e-05)
(0.0030743 0.00148872 -8.92917e-05)
(0.00391389 0.00161147 -0.000110925)
(0.00477632 0.00169084 -0.000130126)
(0.0056522 0.00175487 -0.000144131)
(0.000432832 0.000438634 -5.94154e-06)
(0.000902571 0.000726218 -1.63799e-05)
(0.00153679 0.00105125 -2.84478e-05)
(0.00225505 0.00129858 -4.14883e-05)
(0.00304486 0.00148059 -5.47579e-05)
(0.0038773 0.00160414 -6.75412e-05)
(0.00473262 0.00168443 -7.89619e-05)
(0.00560143 0.00174948 -8.72879e-05)
(0.000431239 0.000436955 -2.16452e-06)
(0.000898255 0.000723165 -5.71006e-06)
(0.001529 0.00104732 -9.73705e-06)
(0.00224366 0.00129442 -1.40538e-05)
(0.00302987 0.0014766 -1.84415e-05)
(0.00385874 0.00160051 -2.26776e-05)
(0.00471048 0.00168119 -2.6473e-05)
(0.00557568 0.00174662 -2.9238e-05)
(0.000198705 0.000206081 0.000304862)
(0.000810326 0.000435519 0.000127764)
(0.00157257 0.000707724 5.83618e-05)
(0.00244597 0.000907783 -5.01516e-05)
(0.00339224 0.00105676 -0.000144188)
(0.00437078 0.00115821 -0.000225357)
(0.00535388 0.00122288 -0.00028809)
(0.00633267 0.00126575 -0.000340704)
(7.07152e-05 5.58379e-05 8.52634e-05)
(0.000629567 0.000110172 5.03587e-05)
(0.00139216 0.000208474 3.72875e-06)
(0.00228105 0.000280578 -4.33516e-05)
(0.00324259 0.000332847 -8.42525e-05)
(0.00423532 0.000365903 -0.00011915)
(0.00522905 0.000383065 -0.000149741)
(0.00620517 0.000394102 -0.000182015)
(5.49505e-05 -7.62928e-05 -8.74122e-05)
(0.000592401 -0.000132271 -8.63079e-05)
(0.00134374 -0.000217794 -8.04428e-05)
(0.00222783 -0.000282553 -6.70111e-05)
(0.00318716 -0.000335511 -5.16736e-05)
(0.00418003 -0.000377179 -3.73491e-05)
(0.00517449 -0.000410195 -2.78335e-05)
(0.00614557 -0.000435355 -2.31832e-05)
(0.000144944 -0.000233605 -0.000303802)
(0.000692105 -0.000454291 -0.000189285)
(0.00142204 -0.000715 -0.000159773)
(0.00227905 -0.000909755 -8.63277e-05)
(0.00321694 -0.00105829 -1.71123e-05)
(0.00419419 -0.00116369 4.64877e-05)
(0.00517956 -0.00123679 9.59828e-05)
(0.00614911 -0.00129124 0.000126145)
(0.000336719 -0.000413636 -0.000204929)
(0.000784568 -0.0007791 -0.000181398)
(0.0014918 -0.00112726 -0.00012661)
(0.00230099 -0.0013767 -4.50344e-05)
(0.00319799 -0.00155362 3.8259e-05)
(0.00413972 -0.00166714 0.000115329)
(0.00509849 -0.00173356 0.000177963)
(0.00605245 -0.00176917 0.000215454)
(0.000340901 -0.000417076 -9.96823e-05)
(0.000810378 -0.000764571 -9.91597e-05)
(0.00147534 -0.0011088 -6.45879e-05)
(0.0022517 -0.00135688 -8.45082e-06)
(0.00311071 -0.00153017 5.27189e-05)
(0.00401736 -0.00163929 0.000110464)
(0.00494487 -0.0017 0.000156869)
(0.0058755 -0.00173079 0.00018205)
(0.000339607 -0.000417249 -4.33115e-05)
(0.00080233 -0.000745369 -4.27033e-05)
(0.00144767 -0.00107703 -1.90687e-05)
(0.00219836 -0.00131858 1.88754e-05)
(0.00303011 -0.00148719 6.20593e-05)
(0.00391038 -0.00159309 0.000103454)
(0.00481371 -0.0016511 0.000136358)
(0.0057213 -0.00167875 0.000150972)
(0.000332836 -0.000411067 -1.47433e-05)
(0.000784856 -0.000726073 -1.15539e-05)
(0.00141438 -0.00104669 6.38696e-06)
(0.00214645 -0.00128061 3.30455e-05)
(0.00295849 -0.00144412 6.33401e-05)
(0.00381922 -0.00154655 9.24952e-05)
(0.00470368 -0.00160177 0.000115122)
(0.00559255 -0.00162656 0.000122734)
(0.000324861 -0.000403009 -1.58361e-06)
(0.000766398 -0.000709042 3.14532e-06)
(0.00138275 -0.00102113 1.69612e-05)
(0.00210075 -0.00124867 3.58877e-05)
(0.00289826 -0.00140754 5.70151e-05)
(0.0037445 -0.00150659 7.71745e-05)
(0.00461443 -0.00155907 9.23731e-05)
(0.00548827 -0.00158116 9.59184e-05)
(0.000317927 -0.000395694 3.13078e-06)
(0.000750876 -0.000695561 7.81795e-06)
(0.00135699 -0.00100146 1.78049e-05)
(0.00206456 -0.00122429 3.06598e-05)
(0.00285154 -0.00137955 4.47332e-05)
(0.00368725 -0.00147582 5.79939e-05)
(0.0045465 -0.00152596 6.77121e-05)
(0.00540902 -0.00154577 6.91404e-05)
(0.000312997 -0.000390378 3.32997e-06)
(0.000739988 -0.000686311 6.67805e-06)
(0.00133912 -0.000988157 1.27542e-05)
(0.0020397 -0.00120791 2.02706e-05)
(0.00281973 -0.00136075 2.83801e-05)
(0.0036485 -0.00145509 3.59429e-05)
(0.00450068 -0.00150358 4.13668e-05)
(0.00535567 -0.00152181 4.1835e-05)
(0.000310465 -0.000387618 1.32919e-06)
(0.000734425 -0.000681622 2.53469e-06)
(0.00133002 -0.000981461 4.57651e-06)
(0.00202709 -0.0011997 7.05483e-06)
(0.00280363 -0.00135132 9.70874e-06)
(0.00362895 -0.00144469 1.21701e-05)
(0.0044776 -0.00149234 1.39164e-05)
(0.00532881 -0.00150977 1.40115e-05)
(0.00670685 0.0012956 -0.000332272)
(0.00652081 0.00130109 -0.000283228)
(0.00637104 0.00130632 -0.000238696)
(0.00624533 0.00130586 -0.000195473)
(0.00614184 0.00130382 -0.000153114)
(0.00606201 0.00130144 -0.000110302)
(0.00600764 0.00129955 -6.66563e-05)
(0.00598005 0.00129844 -2.23067e-05)
(0.0065626 0.000418654 -0.000172063)
(0.00638458 0.000428683 -0.0001504)
(0.00623425 0.000440816 -0.000131452)
(0.00610631 0.000452326 -0.000110272)
(0.00600051 0.000462028 -8.74474e-05)
(0.0059188 0.000469454 -6.33332e-05)
(0.00586317 0.000474451 -3.8336e-05)
(0.00583502 0.000476974 -1.28309e-05)
(0.00650097 -0.000439708 -2.83547e-05)
(0.00632463 -0.000418633 -3.57976e-05)
(0.00617016 -0.000394074 -3.82811e-05)
(0.0060379 -0.000368706 -3.58239e-05)
(0.00592906 -0.000346044 -2.98759e-05)