/*--------------------------------*- C++ -*----------------------------------*\
| =========                 |                                                 |
| \\      /  F ield         | foam-extend: Open Source CFD                    |
|  \\    /   O peration     | Version:     3.1                                |
|   \\  /    A nd           | Web:         http://www.extend-project.de       |
|    \\/     M anipulation  |                                                 |
\*---------------------------------------------------------------------------*/
FoamFile
{
    version     2.0;
    format      ascii;
    class       volVectorField;
    location    "2";
    object      D_0;
}
// * * * * * * * * * * * * * * * * * * * * * * * * * * * * * * * * * * * * * //

dimensions      [0 1 0 0 0 0 0];

internalField   nonuniform List<vector> 
256
(
(0.000193766 0.000107458 0.000171605)
(0.000100402 1.80537e-05 5.49654e-05)
(8.78446e-05 -3.02332e-05 -5.20779e-05)
(0.000152174 -0.000114355 -0.00017217)
(0.000759894 0.00044296 8.5604e-05)
(0.000633004 0.00011948 3.69285e-05)
(0.000601896 -0.000124734 -6.69313e-05)
(0.000662822 -0.000436545 -0.000139286)
(0.00143278 0.000683258 1.88869e-06)
(0.00130299 0.000208793 -8.56711e-06)
(0.00126282 -0.000197227 -6.00632e-05)
(0.00131078 -0.000665346 -9.60499e-05)
(0.00220491 0.00087317 -9.11062e-05)
(0.00208612 0.000279618 -5.07379e-05)
(0.00204158 -0.000254597 -5.0245e-05)
(0.00206962 -0.00084499 -3.69833e-05)
(0.00304103 0.00100818 -0.000175497)
(0.00293323 0.000329943 -8.82791e-05)
(0.00288685 -0.000297527 -3.80559e-05)
(0.00289918 -0.000973329 2.24337e-05)
(0.0039103 0.00109988 -0.000247234)
(0.00381278 0.000362947 -0.000120193)
(0.00376618 -0.000329451 -2.68637e-05)
(0.00376696 -0.00106158 7.62774e-05)
(0.00479061 0.00115874 -0.000304287)
(0.00469955 0.000381994 -0.000148665)
(0.0046527 -0.000353031 -1.99446e-05)
(0.00464751 -0.00111912 0.000118545)
(0.0056758 0.00119375 -0.000349343)
(0.00557731 0.000392808 -0.000176157)
(0.00552531 -0.000369545 -1.99012e-05)
(0.00552187 -0.00115535 0.00014068)
(0.00020062 0.000108 7.35698e-05)
(0.000105698 2.06252e-05 2.56357e-05)
(9.26181e-05 -2.82824e-05 -2.75157e-05)
(0.000154141 -0.000109505 -8.07224e-05)
(0.000758888 0.000445809 2.94601e-05)
(0.000619677 0.000126478 1.0613e-05)
(0.000589204 -0.000118842 -4.06884e-05)
(0.000661347 -0.000427352 -7.49809e-05)
(0.00139559 0.000697345 -3.08579e-05)
(0.00126916 0.000221633 -2.14608e-05)
(0.00123078 -0.000192781 -4.0509e-05)
(0.00127647 -0.000662695 -4.78361e-05)
(0.00213059 0.000889301 -0.000100475)
(0.00201661 0.000294242 -5.43599e-05)
(0.00197441 -0.000248647 -3.54579e-05)
(0.00199911 -0.000840761 -6.96831e-06)
(0.00292913 0.00102487 -0.000166923)
(0.00282777 0.000345448 -8.46363e-05)
(0.00278379 -0.00028943 -2.79322e-05)
(0.00279123 -0.000965899 3.71246e-05)
(0.00376403 0.00111513 -0.000225002)
(0.00367344 0.000378376 -0.000111214)
(0.00362914 -0.000318154 -2.09175e-05)
(0.00362418 -0.00104859 7.77281e-05)
(0.0046139 0.00117089 -0.000272033)
(0.00453087 0.000396311 -0.000134935)
(0.00448642 -0.000337588 -1.79135e-05)
(0.00447423 -0.00109842 0.000108447)
(0.00547437 0.00120139 -0.000306719)
(0.00538422 0.000404813 -0.000156259)
(0.00533472 -0.000349592 -2.29344e-05)
(0.00532426 -0.00112592 0.000119377)
(0.000200801 0.000109026 2.50907e-05)
(9.95369e-05 2.22301e-05 8.81636e-06)
(8.44954e-05 -2.81193e-05 -1.36708e-05)
(0.000147926 -0.000109344 -3.3193e-05)
(0.000745761 0.000436983 -5.41343e-06)
(0.000595209 0.000127134 -5.4875e-06)
(0.000561886 -0.000112409 -2.32788e-05)
(0.000639582 -0.000412676 -3.22422e-05)
(0.00135867 0.000687892 -4.9796e-05)
(0.00122376 0.000224462 -2.91514e-05)
(0.00118264 -0.000182797 -2.548e-05)
(0.00123159 -0.000641509 -1.38568e-05)
(0.00206611 0.000880807 -0.000101248)
(0.00194621 0.000299206 -5.43025e-05)
(0.00190147 -0.000235234 -2.35304e-05)
(0.00192719 -0.00081417 1.4301e-05)
(0.00283678 0.00101878 -0.00015193)
(0.00273105 0.000352648 -7.81049e-05)
(0.00268469 -0.000272907 -1.94833e-05)
(0.00269175 -0.000935207 4.57634e-05)
(0.00364498 0.00111175 -0.000197514)
(0.00355133 0.00038757 -9.96309e-05)
(0.00350486 -0.00029862 -1.58062e-05)
(0.0034984 -0.00101403 7.50353e-05)
(0.00447042 0.00117018 -0.000235082)
(0.0043858 0.000406978 -0.000119092)
(0.00433946 -0.000315113 -1.5817e-05)
(0.00432455 -0.00105992 9.60525e-05)
(0.0053104 0.0012034 -0.000261525)
(0.00522001 0.000416537 -0.000136227)
(0.00516816 -0.000324302 -2.39169e-05)
(0.00515251 -0.00108337 9.86333e-05)
(0.000197194 0.000108663 2.51895e-06)
(9.24416e-05 2.27346e-05 6.20293e-07)
(7.58575e-05 -2.77096e-05 -6.00356e-06)
(0.000139707 -0.000107854 -9.45203e-06)
(0.000726891 0.000427805 -2.1928e-05)
(0.000569861 0.000126432 -1.23917e-05)
(0.000533766 -0.00010657 -1.25301e-05)
(0.000613031 -0.000398182 -8.08825e-06)
(0.00132032 0.000675152 -5.5616e-05)
(0.00117901 0.000224589 -3.02947e-05)
(0.00113498 -0.00017233 -1.50716e-05)
(0.00118552 -0.000618251 5.50157e-06)
(0.00200648 0.000867799 -9.37917e-05)
(0.00188118 0.000301152 -4.93449e-05)
(0.00183368 -0.000220718 -1.46487e-05)
(0.00186027 -0.000784468 2.53363e-05)
(0.00275579 0.0010076 -0.000131967)
(0.00264567 0.00035694 -6.77294e-05)
(0.00259674 -0.000254886 -1.27248e-05)
(0.002604 -0.000900827 4.76122e-05)
(0.00354339 0.00110338 -0.000167065)
(0.00344634 0.000394316 -8.47996e-05)
(0.00339754 -0.000277571 -1.12449e-05)
(0.00339058 -0.000976005 6.82474e-05)
(0.0043496 0.00116489 -0.000196506)
(0.00426261 0.00041593 -0.000100539)
(0.00421408 -0.000291455 -1.3024e-05)
(0.00419776 -0.00101878 8.21051e-05)
(0.00517277 0.00120106 -0.000216675)
(0.00508051 0.000427491 -0.000114383)
(0.00502577 -0.000298345 -2.19921e-05)
(0.00500705 -0.00103941 8.01606e-05)
(0.000192951 0.000107605 -6.32227e-06)
(8.65745e-05 2.28646e-05 -2.59734e-06)
(6.89544e-05 -2.71956e-05 -1.99993e-06)
(0.000132282 -0.000105802 1.13806e-06)
(0.000708328 0.000420134 -2.60574e-05)
(0.000547854 0.000125749 -1.35011e-05)
(0.000509725 -0.000101643 -6.14966e-06)
(0.000588814 -0.000385644 3.4797e-06)
(0.00128563 0.000664252 -5.13735e-05)
(0.00114029 0.000224406 -2.68583e-05)
(0.00109409 -0.00016316 -8.28174e-06)
(0.00114501 -0.000598021 1.37491e-05)
(0.00195501 0.000856261 -7.92887e-05)
(0.00182591 0.000302409 -4.09367e-05)
(0.00177635 -0.000207784 -8.47601e-06)
(0.00180335 -0.000758333 2.77633e-05)
(0.00268781 0.000997243 -0.000107366)
(0.00257438 0.000360188 -5.46962e-05)
(0.00252357 -0.000238705 -7.71882e-06)
(0.00253105 -0.000870298 4.3325e-05)
(0.00345952 0.00109515 -0.000133572)
(0.00335976 0.000399707 -6.77451e-05)
(0.00330929 -0.000258651 -7.46842e-06)
(0.00330223 -0.00094212 5.75251e-05)
(0.00425064 0.00115903 -0.000155858)
(0.00416158 0.00042328 -7.99852e-05)
(0.00411146 -0.000270272 -9.91547e-06)
(0.00409448 -0.000982161 6.63716e-05)
(0.00505987 0.00119737 -0.000170801)
(0.00496588 0.000436596 -9.07421e-05)
(0.00490898 -0.00027523 -1.81552e-05)
(0.00488848 -0.00100049 6.26477e-05)
(0.000189346 0.000106492 -7.96137e-06)
(8.23098e-05 2.28703e-05 -3.13056e-06)
(6.40159e-05 -2.67088e-05 -1.93634e-07)
(0.000126541 -0.000103879 4.49275e-06)
(0.000693099 0.000414375 -2.2668e-05)
(0.000530904 0.000125316 -1.13004e-05)
(0.000491413 -9.78134e-05 -2.62685e-06)
(0.000569744 -0.000375859 7.08911e-06)
(0.00125789 0.000656152 -4.05086e-05)
(0.0011102 0.000224386 -2.06416e-05)
(0.00106254 -0.000155963 -4.14113e-06)
(0.00111331 -0.000582324 1.44441e-05)
(0.00191456 0.000847618 -5.97524e-05)
(0.00178305 0.000303489 -3.0393e-05)
(0.00173213 -0.000197574 -4.48981e-06)
(0.00175923 -0.000738 2.39015e-05)
(0.00263503 0.000989354 -7.91469e-05)
(0.00251938 0.000362777 -4.00027e-05)
(0.00246737 -0.000225885 -4.2956e-06)
(0.002475 -0.000846431 3.42384e-05)
(0.0033949 0.00108868 -9.74256e-05)
(0.00329325 0.00040391 -4.92553e-05)
(0.00324173 -0.000243644 -4.5695e-06)
(0.00323471 -0.00091552 4.35064e-05)
(0.00417463 0.00115412 -0.000113115)
(0.00408408 0.000428943 -5.804e-05)
(0.00403296 -0.000253486 -6.85452e-06)
(0.00401573 -0.000953353 4.88868e-05)
(0.00497299 0.00119382 -0.00012348)
(0.00487768 0.000443553 -6.5748e-05)
(0.00481941 -0.000256943 -1.33269e-05)
(0.004798 -0.000969848 4.52045e-05)
(0.000186841 0.000105629 -5.91273e-06)
(7.95825e-05 2.28446e-05 -2.29374e-06)
(6.08787e-05 -2.63397e-05 3.28383e-07)
(0.000122705 -0.000102451 3.95399e-06)
(0.000682551 0.000410553 -1.5012e-05)
(0.000519559 0.000125088 -7.33324e-06)
(0.000479234 -9.52e-05 -9.10588e-07)
(0.000556814 -0.000369197 5.92677e-06)
(0.0012388 0.000650855 -2.567e-05)
(0.00108984 0.000224476 -1.28812e-05)
(0.0010413 -0.000151046 -1.79528e-06)
(0.0010918 -0.000571691 1.03872e-05)
(0.00188689 0.000841975 -3.7004e-05)
(0.00175398 0.000304332 -1.86355e-05)
(0.00170225 -0.000190588 -2.07209e-06)
(0.00172932 -0.000724228 1.58895e-05)
(0.00259908 0.000984167 -4.84346e-05)
(0.00248208 0.000364626 -2.43353e-05)
(0.00242936 -0.000217105 -2.08163e-06)
(0.00243708 -0.000830238 2.18249e-05)
(0.00335101 0.00108434 -5.92703e-05)
(0.00324819 0.000406817 -2.9876e-05)
(0.00319606 -0.000233364 -2.41741e-06)
(0.00318911 -0.00089743 2.70714e-05)
(0.00412304 0.00115069 -6.86223e-05)
(0.00403153 0.000432794 -3.51741e-05)
(0.00397985 -0.000241993 -3.99137e-06)
(0.00396255 -0.000933725 2.99561e-05)
(0.00491393 0.00119117 -7.47413e-05)
(0.00481774 0.000448235 -3.9812e-05)
(0.00475869 -0.000244429 -8.08342e-06)
(0.00473685 -0.000948939 2.73845e-05)
(0.000185566 0.000105166 -2.13813e-06)
(7.82582e-05 2.28249e-05 -8.25075e-07)
(5.93608e-05 -2.61426e-05 1.79025e-07)
(0.000120795 -0.000101699 1.50844e-06)
(0.000677186 0.00040865 -5.21831e-06)
(0.000513896 0.000124993 -2.52604e-06)
(0.000473178 -9.38763e-05 -1.96332e-07)
(0.000550319 -0.000365831 2.23854e-06)
(0.0012291 0.000648243 -8.76732e-06)
(0.0010796 0.000224556 -4.3678e-06)
(0.00103065 -0.000148555 -4.85515e-07)
(0.00108096 -0.000566334 3.73648e-06)
(0.00187286 0.000839199 -1.25159e-05)
(0.00173932 0.000304797 -6.2722e-06)
(0.00168721 -0.00018705 -5.87657e-07)
(0.00171425 -0.000717296 5.54618e-06)
(0.00258088 0.000981605 -1.62975e-05)
(0.00246326 0.000365593 -8.16333e-06)
(0.00241022 -0.00021266 -6.10709e-07)
(0.00241796 -0.000822082 7.48432e-06)
(0.00332881 0.00108217 -1.98921e-05)
(0.00322544 0.000408306 -1.001e-05)
(0.00317304 -0.000228159 -7.50185e-07)
(0.00316613 -0.000888311 9.18437e-06)
(0.00409693 0.00114892 -2.30027e-05)
(0.00400498 0.000434744 -1.17816e-05)
(0.00395305 -0.000236175 -1.30729e-06)
(0.00393575 -0.000923824 1.00922e-05)
(0.004884 0.00118972 -2.50284e-05)
(0.00478741 0.000450594 -1.33296e-05)
(0.00472801 -0.000238091 -2.7035e-06)
(0.004706 -0.000938383 9.17906e-06)
)
;

boundaryField
{
    interface
    {
        type            tractionDisplacement;
        gradient        nonuniform List<vector> 
192
(
(0.0012504 8.90088e-08 -6.27537e-06)
(0.00125106 2.32615e-07 -7.48491e-06)
(0.0012496 5.25483e-07 -7.47543e-06)
(0.00124673 8.45864e-07 -7.27339e-06)
(0.00124237 1.23213e-06 -6.95727e-06)
(0.00123606 1.75972e-06 -6.48764e-06)
(0.00122701 2.65546e-06 -5.77696e-06)
(0.00121237 4.4017e-06 -4.57372e-06)
(0.00127836 1.58951e-07 -4.18175e-06)
(0.00127813 3.40733e-07 -4.98588e-06)
(0.00127606 6.81215e-07 -4.94782e-06)
(0.00127234 1.07974e-06 -4.77587e-06)
(0.0012667 1.57845e-06 -4.5173e-06)
(0.00125852 2.26978e-06 -4.14438e-06)
(0.00124668 3.43378e-06 -3.60938e-06)
(0.00122774 5.61186e-06 -2.83028e-06)
(0.0012969 2.0556e-07 -2.92788e-06)
(0.00129628 4.22773e-07 -3.50022e-06)
(0.00129375 8.10625e-07 -3.4639e-06)
(0.00128935 1.27314e-06 -3.32432e-06)
(0.00128271 1.85533e-06 -3.11929e-06)
(0.00127309 2.65704e-06 -2.83373e-06)
(0.00125927 3.97152e-06 -2.44508e-06)
(0.00123752 6.33252e-06 -1.9299e-06)
(0.00131022 2.36666e-07 -2.12187e-06)
(0.00130939 4.82114e-07 -2.53952e-06)
(0.00130652 9.12912e-07 -2.50899e-06)
(0.00130157 1.426e-06 -2.39958e-06)
(0.00129415 2.06871e-06 -2.2415e-06)
(0.00128345 2.94405e-06 -2.02736e-06)
(0.00126819 4.35007e-06 -1.74696e-06)
(0.00124452 6.81512e-06 -1.39307e-06)
(0.00131978 2.59652e-07 -1.51365e-06)
(0.00131882 5.26652e-07 -1.81147e-06)
(0.00131569 9.91037e-07 -1.78752e-06)
(0.00131032 1.54199e-06 -1.7059e-06)
(0.0013023 2.22756e-06 -1.58946e-06)
(0.00129082 3.15197e-06 -1.43486e-06)
(0.00127453 4.6157e-06 -1.23756e-06)
(0.00124954 7.14639e-06 -9.95544e-07)
(0.00132642 2.76131e-07 -1.01788e-06)
(0.00132536 5.58719e-07 -1.21811e-06)
(0.00132204 1.04754e-06 -1.20117e-06)
(0.00131638 1.62535e-06 -1.14496e-06)
(0.00130794 2.34023e-06 -1.06545e-06)
(0.0012959 3.29691e-06 -9.61283e-07)
(0.00127891 4.79762e-06 -8.30326e-07)
(0.00125304 7.37104e-06 -6.71486e-07)
(0.00133063 2.87035e-07 -5.86262e-07)
(0.00132951 5.79709e-07 -7.01327e-07)
(0.00132607 1.08477e-06 -6.91544e-07)
(0.00132021 1.68017e-06 -6.58841e-07)
(0.00131151 2.41383e-06 -6.12817e-07)
(0.00129912 3.39091e-06 -5.5309e-07)
(0.00128169 4.9157e-06 -4.77739e-07)
(0.00125526 7.51474e-06 -3.82182e-07)
(0.00133265 2.92824e-07 -1.90632e-07)
(0.00133149 5.90077e-07 -2.27698e-07)
(0.001328 1.10224e-06 -2.24725e-07)
(0.00132205 1.70638e-06 -2.14081e-07)
(0.00131322 2.44881e-06 -1.99112e-07)
(0.00130067 3.43614e-06 -1.79825e-07)
(0.00128303 4.97701e-06 -1.55001e-07)
(0.00125626 7.58408e-06 -1.20792e-07)
(1.09308e-05 7.23725e-08 0.00114973)
(1.30776e-05 1.27851e-07 0.00114889)
(1.31548e-05 1.98457e-07 0.00114824)
(1.29808e-05 2.92527e-07 0.0011473)
(1.2715e-05 4.04896e-07 0.00114595)
(1.23458e-05 5.36693e-07 0.00114413)
(1.18492e-05 6.86119e-07 0.00114175)
(1.13079e-05 8.03277e-07 0.00113874)
(1.00547e-05 2.11513e-08 0.0010997)
(1.20342e-05 3.77271e-08 0.00109949)
(1.21003e-05 5.67502e-08 0.0010993)
(1.19489e-05 8.24212e-08 0.00109902)
(1.17254e-05 1.12105e-07 0.00109863)
(1.14243e-05 1.44074e-07 0.00109811)
(1.10382e-05 1.71046e-07 0.00109746)
(1.0708e-05 1.6209e-07 0.00109671)
(1.00418e-05 -2.70428e-08 0.00105277)
(1.20188e-05 -4.56996e-08 0.00105298)
(1.20844e-05 -6.9588e-08 0.00105321)
(1.1933e-05 -1.00411e-07 0.00105354)
(1.171e-05 -1.3707e-07 0.001054)
(1.141e-05 -1.80176e-07 0.00105463)
(1.10258e-05 -2.2871e-07 0.00105544)
(1.06983e-05 -2.6355e-07 0.00105648)
(1.09054e-05 -8.04064e-08 0.00100291)
(1.30452e-05 -1.36982e-07 0.00100376)
(1.312e-05 -2.11694e-07 0.00100444)
(1.29457e-05 -3.09713e-07 0.00100544)
(1.26804e-05 -4.27843e-07 0.00100685)
(1.23126e-05 -5.69225e-07 0.00100876)
(1.18188e-05 -7.38586e-07 0.00101129)
(1.12818e-05 -8.99354e-07 0.00101456)
(-0.000903606 -9.63547e-08 6.85177e-06)
(-0.000902881 -2.51564e-07 8.12936e-06)
(-0.000904348 -5.72774e-07 8.11249e-06)
(-0.00090722 -9.20022e-07 7.89131e-06)
(-0.000911576 -1.33875e-06 7.54482e-06)
(-0.000917854 -1.91504e-06 7.02877e-06)
(-0.00092686 -2.91625e-06 6.2435e-06)
(-0.00094155 -4.95238e-06 4.89368e-06)
(-0.000876477 -1.72336e-07 4.42126e-06)
(-0.000876696 -3.68407e-07 5.23941e-06)
(-0.000878763 -7.40343e-07 5.19106e-06)
(-0.000882477 -1.17274e-06 5.00456e-06)
(-0.000888098 -1.71422e-06 4.72407e-06)
(-0.000896245 -2.4707e-06 4.31857e-06)
(-0.000908024 -3.77243e-06 3.7342e-06)
(-0.000927051 -6.30466e-06 2.87503e-06)
(-0.000858904 -2.23527e-07 3.02815e-06)
(-0.000859518 -4.57468e-07 3.59773e-06)
(-0.000862036 -8.80012e-07 3.55226e-06)
(-0.00086643 -1.38156e-06 3.40144e-06)
(-0.000873045 -2.0136e-06 3.18024e-06)
(-0.000882602 -2.89053e-06 2.87178e-06)
(-0.000896351 -4.35875e-06 2.45083e-06)
(-0.000918167 -7.09737e-06 1.88924e-06)
(-0.00084644 -2.57774e-07 2.16159e-06)
(-0.000847264 -5.21851e-07 2.57079e-06)
(-0.000850126 -9.90306e-07 2.53274e-06)
(-0.00085506 -1.54618e-06 2.41474e-06)
(-0.000862449 -2.24345e-06 2.24466e-06)
(-0.000873069 -3.20009e-06 2.01421e-06)
(-0.000888236 -4.76849e-06 1.71208e-06)
(-0.000911949 -7.62329e-06 1.32891e-06)
(-0.000837595 -2.83051e-07 1.52365e-06)
(-0.00083856 -5.70096e-07 1.81175e-06)
(-0.000841682 -1.07445e-06 1.78199e-06)
(-0.000847026 -1.67087e-06 1.69407e-06)
(-0.000854997 -2.41412e-06 1.56902e-06)
(-0.000866396 -3.42352e-06 1.40308e-06)
(-0.00088257 -5.05455e-06 1.19126e-06)
(-0.000907581 -7.98206e-06 9.30362e-07)
(-0.000831511 -3.01135e-07 1.01526e-06)
(-0.000832571 -6.04765e-07 1.20705e-06)
(-0.000835879 -1.13523e-06 1.18601e-06)
(-0.000841519 -1.76034e-06 1.1255e-06)
(-0.000849902 -2.53489e-06 1.04024e-06)
(-0.000861845 -3.57878e-06 9.28656e-07)
(-0.000878708 -5.24964e-06 7.88457e-07)
(-0.000904589 -8.22417e-06 6.17775e-07)
(-0.000827684 -3.13066e-07 5.81157e-07)
(-0.000828802 -6.27424e-07 6.90621e-07)
(-0.00083223 -1.17521e-06 6.7841e-07)
(-0.000838059 -1.81904e-06 6.43226e-07)
(-0.000846706 -2.61357e-06 5.93914e-07)
(-0.000858993 -3.67914e-06 5.30029e-07)
(-0.000876286 -5.37574e-06 4.49542e-07)
(-0.000902707 -8.37837e-06 3.46949e-07)
(-0.000825854 -3.19376e-07 1.88378e-07)
(-0.000827006 -6.38536e-07 2.23531e-07)
(-0.000830489 -1.19398e-06 2.19753e-07)
(-0.000836409 -1.8471e-06 2.083e-07)
(-0.000845182 -2.65092e-06 1.92268e-07)
(-0.000857629 -3.72725e-06 1.71653e-07)
(-0.000875121 -5.44102e-06 1.45178e-07)
(-0.000901879 -8.45211e-06 1.08378e-07)
(1.13077e-05 -0.00113956 -9.86196e-07)
(1.18661e-05 -0.00114323 -8.3836e-07)
(1.23873e-05 -0.00114616 -6.69958e-07)
(1.27835e-05 -0.00114847 -5.21832e-07)
(1.30767e-05 -0.00115024 -3.91006e-07)
(1.32868e-05 -0.00115152 -2.72808e-07)
(1.34306e-05 -0.00115236 -1.66012e-07)
(1.35055e-05 -0.00115283 -5.78898e-08)
(1.07333e-05 -0.00109747 -3.23353e-07)
(1.10861e-05 -0.00109878 -2.9851e-07)
(1.14951e-05 -0.00109989 -2.50886e-07)
(1.18192e-05 -0.0011008 -2.02547e-07)
(1.20647e-05 -0.00110151 -1.55909e-07)
(1.22434e-05 -0.00110204 -1.10734e-07)
(1.23687e-05 -0.0011024 -6.67961e-08)
(1.24387e-05 -0.00110257 -2.25708e-08)
(1.07338e-05 -0.00105712 1.29308e-07)
(1.10872e-05 -0.00105654 1.24779e-07)
(1.1494e-05 -0.00105609 9.54584e-08)
(1.18153e-05 -0.00105577 6.74789e-08)
(1.20582e-05 -0.00105555 4.5425e-08)
(1.22347e-05 -0.00105541 2.87838e-08)
(1.23586e-05 -0.00105532 1.65634e-08)
(1.24277e-05 -0.00105528 5.73912e-09)
(1.13263e-05 -0.00101504 7.95589e-07)
(1.18919e-05 -0.00101212 6.58727e-07)
(1.24086e-05 -0.00100987 5.05786e-07)
(1.27978e-05 -0.00100817 3.78169e-07)
(1.3084e-05 -0.00100692 2.73189e-07)
(1.32882e-05 -0.00100604 1.85436e-07)
(1.34278e-05 -0.00100548 1.12584e-07)
(1.35008e-05 -0.00100515 4.00141e-08)
)
;
        traction        nonuniform List<vector> 
192
(
(26.7942 0.00190733 -0.134472)
(26.8085 0.00498462 -0.160391)
(26.7772 0.0112604 -0.160188)
(26.7157 0.0181257 -0.155858)
(26.6222 0.0264028 -0.149084)
(26.487 0.0377082 -0.139021)
(26.293 0.0569026 -0.123792)
(25.9793 0.0943222 -0.0980083)
(27.3935 0.0034061 -0.0896089)
(27.3884 0.00730142 -0.10684)
(27.3441 0.0145975 -0.106025)
(27.2645 0.0231373 -0.10234)
(27.1437 0.033824 -0.0967993)
(26.9683 0.0486382 -0.0888082)
(26.7147 0.0735809 -0.077344)
(26.3087 0.120254 -0.0606489)
(27.7907 0.00440487 -0.0627403)
(27.7773 0.00905942 -0.0750048)
(27.7233 0.0173705 -0.0742265)
(27.6289 0.0272816 -0.0712353)
(27.4865 0.039757 -0.066842)
(27.2806 0.0569365 -0.0607228)
(26.9843 0.085104 -0.0523946)
(26.5182 0.135697 -0.0413549)
(28.0762 0.00507141 -0.0454687)
(28.0584 0.010331 -0.0544183)
(27.997 0.0195624 -0.0537641)
(27.8909 0.0305572 -0.0514196)
(27.7317 0.0443295 -0.0480322)
(27.5026 0.0630869 -0.0434433)
(27.1755 0.0932158 -0.0374349)
(26.6683 0.146038 -0.0298516)
(28.2811 0.00556398 -0.0324353)
(28.2603 0.0112854 -0.0388172)
(28.1933 0.0212365 -0.038304)
(28.0783 0.0330426 -0.0365551)
(27.9065 0.0477333 -0.0340599)
(27.6604 0.0675421 -0.0307469)
(27.3113 0.0989078 -0.0265191)
(26.7759 0.153137 -0.0213331)
(28.4234 0.00591708 -0.0218117)
(28.4006 0.0119725 -0.0261023)
(28.3295 0.0224473 -0.0257394)
(28.2081 0.034829 -0.0245348)
(28.0273 0.0501478 -0.0228311)
(27.7694 0.0706481 -0.0205989)
(27.4052 0.102806 -0.0177927)
(26.8508 0.157951 -0.014389)
(28.5135 0.00615074 -0.0125628)
(28.4894 0.0124223 -0.0150284)
(28.4158 0.023245 -0.0148188)
(28.2903 0.0360036 -0.014118)
(28.1037 0.0517248 -0.0131318)
(27.8383 0.0726623 -0.0118519)
(27.4647 0.105336 -0.0102373)
(26.8984 0.16103 -0.00818961)
(28.5567 0.00627479 -0.00408497)
(28.532 0.0126445 -0.00487923)
(28.4571 0.0236193 -0.00481554)
(28.3296 0.0365652 -0.00458744)
(28.1404 0.0524745 -0.00426669)
(27.8714 0.0736316 -0.00385339)
(27.4935 0.10665 -0.00332146)
(26.9199 0.162516 -0.00258841)
(0.234232 0.00155084 24.637)
(0.280235 0.00273965 24.6191)
(0.281888 0.00425265 24.6052)
(0.278159 0.00626843 24.5849)
(0.272465 0.00867633 24.5561)
(0.264553 0.0115006 24.5171)
(0.253912 0.0147025 24.4661)
(0.242312 0.0172131 24.4015)
(0.215458 0.000453242 23.565)
(0.257875 0.000808438 23.5605)
(0.259292 0.00121608 23.5564)
(0.256048 0.00176617 23.5504)
(0.251258 0.00240225 23.542)
(0.244806 0.00308729 23.5309)
(0.236532 0.00366528 23.517)
(0.229457 0.00347336 23.5009)
(0.215181 -0.00057949 22.5593)
(0.257546 -0.000979277 22.564)
(0.258951 -0.00149117 22.5688)
(0.255708 -0.00215167 22.5758)
(0.250929 -0.00293722 22.5858)
(0.244501 -0.00386092 22.5992)
(0.236268 -0.00490093 22.6167)
(0.22925 -0.00564749 22.6389)
(0.233687 -0.00172299 21.4909)
(0.279539 -0.00293532 21.5091)
(0.281144 -0.00453631 21.5238)
(0.277407 -0.00663671 21.5451)
(0.271722 -0.00916805 21.5754)
(0.263841 -0.0121977 21.6164)
(0.253261 -0.0158268 21.6704)
(0.241752 -0.0192719 21.7405)
(-19.363 -0.00206474 0.146824)
(-19.3475 -0.00539066 0.174201)
(-19.3789 -0.0122737 0.173839)
(-19.4404 -0.0197148 0.1691)
(-19.5338 -0.0286875 0.161675)
(-19.6683 -0.0410367 0.150616)
(-19.8613 -0.0624911 0.133789)
(-20.1761 -0.106122 0.104865)
(-18.7816 -0.00369291 0.0947413)
(-18.7863 -0.00789443 0.112273)
(-18.8306 -0.0158645 0.111237)
(-18.9102 -0.0251302 0.107241)
(-19.0307 -0.0367334 0.10123)
(-19.2052 -0.0529437 0.0925409)
(-19.4577 -0.0808377 0.0800185)
(-19.8654 -0.1351 0.0616077)
(-18.4051 -0.00478987 0.064889)
(-18.4182 -0.00980289 0.0770943)
(-18.4722 -0.0188574 0.0761199)
(-18.5664 -0.0296049 0.0728881)
(-18.7081 -0.0431486 0.0681481)
(-18.9129 -0.06194 0.0615382)
(-19.2075 -0.0934018 0.0525179)
(-19.675 -0.152086 0.0404836)
(-18.138 -0.00552373 0.0463197)
(-18.1556 -0.0111825 0.0550883)
(-18.217 -0.0212208 0.054273)
(-18.3227 -0.0331325 0.0517444)
(-18.481 -0.048074 0.0480998)
(-18.7086 -0.0685733 0.0431617)
(-19.0336 -0.102182 0.0366875)
(-19.5418 -0.163356 0.0284766)
(-17.9485 -0.00606538 0.0326497)
(-17.9691 -0.0122163 0.0388231)
(-18.036 -0.023024 0.0381856)
(-18.1506 -0.0358044 0.0363015)
(-18.3214 -0.0517312 0.0336219)
(-18.5656 -0.0733611 0.0300661)
(-18.9122 -0.108312 0.0255271)
(-19.4482 -0.171044 0.0199363)
(-17.8181 -0.00645288 0.0217555)
(-17.8408 -0.0129593 0.0258653)
(-17.9117 -0.0243264 0.0254145)
(-18.0325 -0.0377215 0.0241178)
(-18.2122 -0.0543192 0.0222908)
(-18.4681 -0.0766882 0.0198998)
(-18.8294 -0.112492 0.0168955)
(-19.3841 -0.176232 0.013238)
(-17.7361 -0.00670857 0.0124534)
(-17.7601 -0.0134448 0.014799)
(-17.8335 -0.0251831 0.0145374)
(-17.9584 -0.0389794 0.0137834)
(-18.1437 -0.0560052 0.0127267)
(-18.407 -0.0788387 0.0113578)
(-18.7775 -0.115194 0.00963305)
(-19.3437 -0.179537 0.00743463)
(-17.6969 -0.00684377 0.00403667)
(-17.7216 -0.0136829 0.00478996)
(-17.7962 -0.0255853 0.00470898)
(-17.9231 -0.0395806 0.00446357)
(-18.111 -0.0568055 0.00412003)
(-18.3778 -0.0798697 0.00367828)
(-18.7526 -0.116593 0.00311095)
(-19.326 -0.181117 0.00232238)
(0.242309 -24.4191 -0.0211328)
(0.254273 -24.4977 -0.0179648)
(0.265441 -24.5605 -0.0143563)
(0.273931 -24.61 -0.0111821)
(0.280215 -24.6479 -0.00837869)
(0.284717 -24.6755 -0.00584588)
(0.287799 -24.6935 -0.0035574)
(0.289404 -24.7035 -0.0012405)
(0.229999 -23.5171 -0.006929)
(0.237559 -23.5453 -0.00639663)
(0.246324 -23.5691 -0.00537612)
(0.253268 -23.5885 -0.00434029)
(0.25853 -23.6038 -0.00334091)
(0.262358 -23.6152 -0.00237288)
(0.265043 -23.6228 -0.00143135)
(0.266544 -23.6265 -0.00048366)
(0.23001 -22.6525 0.00277088)
(0.237582 -22.6402 0.00267384)
(0.2463 -22.6305 0.00204554)
(0.253185 -22.6237 0.00144598)
(0.25839 -22.6189 0.000973392)
(0.262173 -22.6158 0.000616796)
(0.264827 -22.614 0.00035493)
(0.266308 -22.6131 0.000122981)
(0.242706 -21.7508 0.0170483)
(0.254825 -21.6882 0.0141156)
(0.265899 -21.64 0.0108383)
(0.274239 -21.6037 0.00810362)
(0.280372 -21.5769 0.00585405)
(0.284748 -21.558 0.00397363)
(0.287739 -21.5459 0.00241252)
(0.289303 -21.5389 0.000857445)
)
;
        pressure        uniform 0;
        value           nonuniform List<vector> 
192
(
(0.000392583 0.000409571 0.000164608)
(0.000853923 0.000725988 6.59868e-05)
(0.00153878 0.00103805 -4.00356e-05)
(0.00229394 0.00126463 -0.000156796)
(0.00311907 0.00142722 -0.000262229)
(0.00397832 0.00153391 -0.000352178)
(0.00485422 0.00160178 -0.000423605)
(0.00573585 0.00165321 -0.000477109)
(0.000403027 0.000411446 6.93567e-05)
(0.000867565 0.000715202 1.73085e-05)
(0.00150383 0.00103135 -5.82062e-05)
(0.0022239 0.00126178 -0.000145106)
(0.00301073 0.00142616 -0.000227744)
(0.00383601 0.00153418 -0.000300684)
(0.00468126 0.00160219 -0.000360459)
(0.00553749 0.0016549 -0.000404353)
(0.000405557 0.000411845 1.994e-05)
(0.000858 0.000697055 -1.91324e-05)
(0.0014693 0.00100758 -7.45612e-05)
(0.0021605 0.00123902 -0.000138456)
(0.00291837 0.0014063 -0.000201569)
(0.00371631 0.00151846 -0.000258811)
(0.00453676 0.00159101 -0.000306791)
(0.00537116 0.00164981 -0.000341516)
(0.000402004 0.00040746 -2.50005e-06)
(0.000841779 0.000680169 -3.51084e-05)
(0.00143395 0.000984642 -7.75711e-05)
(0.00210344 0.00121513 -0.000125191)
(0.00283929 0.00138451 -0.000172803)
(0.00361604 0.00150029 -0.000216911)
(0.00441681 0.00157705 -0.000254657)
(0.00523365 0.00164074 -0.000281923)
(0.000396391 0.000401468 -1.05907e-05)
(0.000824627 0.000666072 -3.72934e-05)
(0.00140129 0.000965928 -6.95236e-05)
(0.00205411 0.00119541 -0.00010463)
(0.00277319 0.00136612 -0.000139807)
(0.0035337 0.00148447 -0.000172842)
(0.00431904 0.00156424 -0.000201588)
(0.00512131 0.00163115 -0.000222346)
(0.000391083 0.000395902 -1.11354e-05)
(0.000810037 0.000655279 -3.10688e-05)
(0.00137476 0.000951976 -5.39372e-05)
(0.00201514 0.00118076 -7.83233e-05)
(0.00272186 0.00135234 -0.00010275)
(0.00347037 0.00147238 -0.000125885)
(0.00424413 0.00155403 -0.000146235)
(0.00503518 0.00162286 -0.000160906)
(0.000387172 0.000391801 -7.84691e-06)
(0.000799707 0.000648002 -2.01582e-05)
(0.0013563 0.000942742 -3.38718e-05)
(0.00198835 0.00117113 -4.83112e-05)
(0.00268683 0.00134326 -6.27685e-05)
(0.00342734 0.0014643 -7.65309e-05)
(0.0041933 0.001547 -8.87121e-05)
(0.00497668 0.00161689 -9.74792e-05)
(0.000385118 0.000389656 -2.78482e-06)
(0.000794384 0.000644345 -6.94563e-06)
(0.00134687 0.000938148 -1.15192e-05)
(0.00197471 0.00116635 -1.63076e-05)
(0.00266906 0.00133875 -2.11014e-05)
(0.00340555 0.00146025 -2.56761e-05)
(0.00416755 0.00154342 -2.97362e-05)
(0.00494702 0.00161371 -3.2655e-05)
(0.000192206 0.000180792 0.000271373)
(0.000766872 0.000390091 9.46386e-05)
(0.00146931 0.000640338 2.01376e-05)
(0.00226671 0.0008261 -8.70694e-05)
(0.00312732 0.0009667 -0.000178624)
(0.00401708 0.00106514 -0.000256902)
(0.00491334 0.00113067 -0.000317307)
(0.0058107 0.00117685 -0.000368924)
(7.48127e-05 4.82634e-05 7.58954e-05)
(0.000596711 9.80057e-05 3.872e-05)
(0.00129752 0.000190472 -9.3366e-06)
(0.00210783 0.000260056 -5.65747e-05)
(0.00298157 0.000312073 -9.69997e-05)
(0.00388377 0.000346659 -0.000131161)
(0.00478939 0.000366407 -0.000161128)
(0.00568328 0.000380593 -0.000193074)
(5.91009e-05 -6.63169e-05 -7.52092e-05)
(0.000559659 -0.000116161 -7.33426e-05)
(0.0012495 -0.000190798 -6.79647e-05)
(0.00205534 -0.000246106 -5.63578e-05)
(0.00292716 -0.000290615 -4.29405e-05)
(0.00382979 -0.000325324 -3.02373e-05)
(0.00473645 -0.000352975 -2.18462e-05)
(0.00562556 -0.000374452 -1.79925e-05)
(0.000138329 -0.00020362 -0.000266312)
(0.000649272 -0.000403242 -0.000154794)
(0.00132055 -0.000636919 -0.000121963)
(0.00210255 -0.000810764 -5.18866e-05)
(0.0029556 -0.000943026 1.33681e-05)
(0.00384475 -0.00103715 7.31672e-05)
(0.00474405 -0.00110322 0.000119942)
(0.005633 -0.00115409 0.000148842)
(0.000308594 -0.00037739 -0.000175685)
(0.000724844 -0.000704888 -0.000140666)
(0.00137216 -0.00101465 -8.17001e-05)
(0.00210901 -0.00123605 -1.61737e-06)
(0.00292381 -0.00139362 7.84525e-05)
(0.0037798 -0.001496 0.000152217)
(0.00465408 -0.00155763 0.000212549)
(0.00552776 -0.00159235 0.000248982)
(0.000307528 -0.00037607 -8.09029e-05)
(0.000733818 -0.000687803 -6.97585e-05)
(0.00133638 -0.000993921 -2.99735e-05)
(0.00203834 -0.00121388 2.7164e-05)
(0.00281487 -0.0013679 8.762e-05)
(0.00363607 -0.0014658 0.000144229)
(0.00447933 -0.00152135 0.000189791)
(0.00532944 -0.00155055 0.000214433)
(0.000301345 -0.000371245 -3.07201e-05)
(0.000715378 -0.000664851 -2.17604e-05)
(0.00129418 -0.000959227 7.00381e-06)
(0.00196812 -0.00117316 4.73382e-05)
(0.00271608 -0.00132277 9.14696e-05)
(0.00351016 -0.00141737 0.000133209)
(0.00432876 -0.00146978 0.000166259)
(0.00515522 -0.00149515 0.000180673)
(0.000291156 -0.000361449 -6.12232e-06)
(0.000690767 -0.000642176 3.47308e-06)
(0.00125027 -0.000925768 2.58812e-05)
(0.00190311 -0.0011325 5.52718e-05)
(0.00262964 -0.00127727 8.72638e-05)
(0.00340302 -0.00136841 0.000117513)
(0.00420185 -0.0014178 0.000140819)
(0.00500883 -0.00143993 0.000148469)
(0.000280801 -0.00035086 4.31231e-06)
(0.000667309 -0.000622408 1.37983e-05)
(0.00121094 -0.000897368 3.11901e-05)
(0.00184751 -0.00109793 5.26084e-05)
(0.00255781 -0.00123825 7.55296e-05)
(0.00331539 -0.00132608 9.69816e-05)
(0.00409874 -0.00137264 0.00011302)
(0.00488989 -0.00139192 0.000116731)
(0.000272238 -0.000341815 6.99207e-06)
(0.000648347 -0.00060688 1.49749e-05)
(0.00117976 -0.00087542 2.75532e-05)
(0.00180419 -0.00107133 4.23448e-05)
(0.00250252 -0.00120814 5.79116e-05)
(0.00324846 -0.00129325 7.2306e-05)
(0.00402024 -0.00133748 8.27812e-05)
(0.00479938 -0.00135442 8.43978e-05)
(0.00026628 -0.000335412 5.52731e-06)
(0.00063528 -0.00059627 1.08166e-05)
(0.00115842 -0.000860545 1.84591e-05)
(0.00177469 -0.00105336 2.71905e-05)
(0.00246506 -0.0011878 3.62717e-05)
(0.00320324 -0.00127103 4.45917e-05)
(0.00396728 -0.00131362 5.0534e-05)
(0.00473832 -0.00132894 5.11425e-05)
(0.00026325 -0.000332126 2.04351e-06)
(0.000628657 -0.000590904 3.89037e-06)
(0.00114762 -0.000853047 6.45608e-06)