/*--------------------------------*- C++ -*----------------------------------*\
| =========                 |                                                 |
| \\      /  F ield         | foam-extend: Open Source CFD                    |
|  \\    /   O peration     | Version:     3.1                                |
|   \\  /    A nd           | Web:         http://www.extend-project.de       |
|    \\/     M anipulation  |                                                 |
\*---------------------------------------------------------------------------*/
FoamFile
{
    version     2.0;
    format      ascii;
    class       volSymmTensorField;
    location    "2";
    object      sigmaCauchy;
}
// * * * * * * * * * * * * * * * * * * * * * * * * * * * * * * * * * * * * * //

dimensions      [1 -1 -2 0 0 0 0];

internalField   nonuniform List<symmTensor> 
256
(
(118.128 53.0457 -1.30317 276.197 19.3419 137.079)
(13.3015 43.2689 -5.64418 51.4054 7.02439 18.871)
(-35.9517 38.2373 -6.1247 -71.2875 -8.64667 -36.4444)
(-134.756 35.1185 -3.12855 -267.392 -19.6038 -146.724)
(-58.1312 23.3672 -2.66683 73.4468 -10.5663 -18.3962)
(-25.7219 52.0494 -9.60387 25.5182 -4.32318 -9.63483)
(-4.0148 48.949 -9.81612 -37.6622 1.4465 -5.99295)
(23.7624 17.4586 -3.7314 -85.7404 6.44997 1.9896)
(-25.1623 26.5593 -1.55104 93.4332 -6.28689 15.9631)
(-27.2709 48.5947 -7.21933 22.3462 -2.32489 -5.86888)
(-6.78854 46.5079 -7.46318 -33.2437 0.15773 -8.34941)
(-6.18044 20.4965 -2.74406 -97.0351 3.44545 -24.1931)
(-33.523 22.3677 -1.80468 61.0525 -7.10389 7.30137)
(-28.6107 42.8849 -6.53719 13.3607 -2.26971 -6.55503)
(-6.68822 41.4286 -6.57528 -24.4697 0.923794 -5.98505)
(0.975376 17.8318 -2.81587 -64.9451 5.18712 -13.1986)
(-31.5854 18.716 -1.67499 41.9481 -6.02667 7.86756)
(-27.7517 36.103 -5.80784 6.89765 -1.70459 -5.63818)
(-7.82103 35.2651 -5.75584 -18.4406 1.12072 -5.69763)
(-1.03702 15.7057 -2.5888 -45.6133 5.13978 -11.996)
(-32.2928 14.2276 -1.82032 24.3288 -5.06139 5.95721)
(-27.4665 28.7773 -5.49417 1.00242 -1.3488 -5.59896)
(-8.47141 28.6439 -5.29647 -13.5337 1.17839 -5.48885)
(-0.902231 13.0348 -2.50675 -28.4733 4.93245 -9.89025)
(-31.7589 9.55069 -2.33028 14.6482 -4.30402 6.63035)
(-28.2556 21.4947 -5.61948 -3.40508 -1.34498 -5.75661)
(-9.15364 21.6667 -5.20933 -10.0686 0.950167 -5.84765)
(-0.58378 9.929 -2.57441 -16.9291 4.23255 -9.52043)
(-40.9515 6.73944 -3.03942 3.28738 -2.41529 2.13813)
(-38.8804 13.6055 -5.95999 -9.8529 -0.781797 -10.9034)
(-5.94462 12.4451 -5.62434 -3.87456 0.373281 -3.684)
(4.42312 5.28586 -3.19411 -7.33621 1.90952 -7.91365)
(121.417 55.6274 -0.608508 276.692 9.6227 144.294)
(18.9768 46.6332 -4.34522 55.927 3.32 24.748)
(-34.0062 41.9329 -5.04992 -65.9024 -5.61742 -35.9791)
(-131.353 37.9665 -2.58832 -258.883 -11.7258 -147.4)
(-35.2522 21.7809 -1.38536 104.335 -7.66205 8.26325)
(-9.12035 50.1129 -8.39703 43.9929 -3.31062 5.78616)
(-16.1861 47.0573 -9.46673 -51.5105 0.0466447 -19.0839)
(1.57617 16.1683 -4.11483 -113.243 3.31139 -23.5866)
(-20.0254 22.182 -0.660771 97.7473 -10.1257 20.3381)
(-18.4291 42.2488 -7.13912 28.9256 -3.74729 -0.256337)
(-11.265 40.3478 -8.29288 -36.4231 1.47598 -12.1548)
(-10.2306 16.5261 -3.51542 -99.581 6.92743 -27.5161)
(-24.706 18.0833 -0.22249 68.4542 -10.5051 15.3298)
(-18.9836 35.7907 -5.79299 20.3145 -3.47375 -0.404661)
(-11.2839 34.3909 -6.87898 -27.3913 2.33718 -10.0591)
(-6.15005 13.7283 -3.05989 -69.8317 8.71782 -19.6139)
(-24.3538 14.5196 0.201366 46.8472 -9.61212 14.2696)
(-19.0961 29.2601 -4.75057 12.5891 -2.92629 -0.581694)
(-11.1234 28.4566 -5.77056 -19.6386 2.73547 -8.52144)
(-6.42408 11.6923 -2.53932 -47.7883 9.15365 -16.6752)
(-24.8218 10.6334 0.2984 29.2464 -8.20559 12.8808)
(-19.1617 22.9336 -4.17999 6.34127 -2.38458 -0.789757)
(-11.122 22.8113 -5.05297 -13.7985 2.68113 -7.71045)
(-6.06609 9.62543 -2.17255 -29.8815 8.7023 -14.5426)
(-24.7642 6.60759 -0.0501884 18.7793 -6.5185 13.2098)
(-20.9697 17.0209 -4.2469 0.775682 -1.98852 -1.86299)
(-11.1908 17.2829 -4.92266 -9.53946 2.11138 -7.39251)
(-4.74675 7.42007 -2.04771 -16.7538 7.2602 -13.1903)
(-33.8171 5.19036 -0.967837 7.63148 -3.6217 8.71229)
(-32.4644 11.2928 -5.17038 -6.43231 -1.09247 -7.88848)
(-8.93017 10.2229 -6.05316 -4.48985 1.07417 -6.0224)
(-0.821764 4.14613 -3.09043 -8.59178 3.93556 -12.5539)
(123.051 56.1932 -0.486759 278.822 2.78406 150.886)
(20.5424 46.081 -2.61456 58.4948 0.672887 28.599)
(-34.0865 41.1375 -3.10089 -65.0891 -3.11665 -37.5132)
(-132.758 37.7376 -1.65489 -259.09 -5.30996 -153.085)
(-35.4371 21.0634 -1.13027 105.041 -6.09411 16.2634)
(-7.98183 48.7073 -5.41284 46.8974 -2.7737 11.0186)
(-17.398 45.6618 -6.29238 -51.9403 -0.108812 -22.7921)
(-0.909323 15.5372 -3.0414 -114.637 2.73264 -33.7453)
(-20.7593 21.0488 -0.915751 99.0119 -8.61294 24.7437)
(-17.9091 40.2066 -5.1824 31.304 -3.33897 3.27785)
(-12.409 38.3236 -6.13207 -36.9206 1.35781 -14.7983)
(-12.4741 15.4057 -2.84981 -101.474 6.08162 -34.984)
(-25.53 16.8907 -0.627276 69.222 -9.29946 17.2218)
(-18.4886 33.2316 -4.4162 22.2336 -3.21731 2.16925)
(-12.4885 31.8693 -5.30169 -27.5124 2.3345 -11.8005)
(-8.66093 12.6165 -2.44196 -71.5412 7.98782 -25.0518)
(-25.617 13.2557 -0.337131 46.9541 -8.78877 14.2422)
(-18.5579 26.7102 -3.63627 14.3288 -2.7651 1.47415)
(-12.2403 25.9924 -4.44662 -19.4766 2.84695 -9.53706)
(-8.49967 10.6446 -1.9867 -48.7608 8.69842 -20.1016)
(-26.1134 9.43343 -0.229734 29.0533 -7.63419 11.8536)
(-18.5204 20.677 -3.19198 7.91019 -2.2317 0.970289)
(-12.0934 20.7323 -3.88061 -13.3364 2.88039 -8.09519)
(-7.85679 8.84727 -1.63484 -30.2186 8.45367 -16.4572)
(-25.6983 5.48411 -0.46713 18.7091 -6.00848 11.779)
(-20.2796 15.2919 -3.37251 2.10445 -1.71169 -0.406361)
(-12.099 15.8273 -3.95045 -8.88572 2.35126 -7.22368)
(-6.27595 6.98904 -1.58543 -16.4253 7.15847 -13.7237)
(-35.304 4.54521 -1.3546 6.63897 -3.04359 5.76385)
(-32.2693 10.3863 -4.64115 -5.59717 -0.733903 -7.15939)
(-10.1098 9.49741 -5.52068 -3.70749 1.16879 -5.03597)
(-1.52981 4.0078 -2.8427 -6.98962 3.74811 -10.4548)
(122.879 55.6038 -0.275978 278.067 -0.674661 154.037)
(20.6512 44.7361 -1.43451 59.1908 -0.571154 30.3708)
(-34.0935 39.5827 -1.71327 -64.1903 -1.61004 -38.2474)
(-132.162 36.7273 -0.922129 -256.649 -1.74599 -155.046)
(-35.7332 20.3934 -0.634614 104.564 -4.97041 22.1064)
(-8.55309 47.4699 -3.19443 47.5672 -2.24454 13.672)
(-17.9441 44.4291 -3.75736 -51.1085 -0.0490736 -24.7371)
(-2.16844 15.0224 -1.87734 -114.08 2.45319 -40.276)
(-21.1206 20.5071 -0.680746 99.8348 -6.71292 29.5512)
(-18.754 39.186 -3.44215 32.1752 -2.62574 5.33459)
(-13.154 37.3481 -4.04454 -36.4514 1.10931 -16.571)
(-13.4936 14.9857 -1.90931 -101.506 4.89118 -40.6087)
(-25.8671 16.4128 -0.594949 70.5083 -7.30231 20.5717)
(-19.3215 32.2766 -3.16456 23.147 -2.54485 3.67545)
(-13.3364 30.9753 -3.70015 -27.1444 1.95173 -13.1491)
(-9.8 12.2889 -1.68301 -71.9461 6.43894 -29.4665)
(-25.9041 12.804 -0.452381 48.3515 -7.04672 16.3227)
(-19.2823 25.838 -2.74647 15.2646 -2.21348 2.60222)
(-13.0935 25.2207 -3.20822 -19.1245 2.44315 -10.3912)
(-9.60141 10.4239 -1.37283 -49.1486 7.1543 -23.1356)
(-26.2847 8.99438 -0.408498 30.4475 -6.2513 13.0532)
(-19.0928 19.9305 -2.526 8.81843 -1.79976 1.87757)
(-12.8724 20.1509 -2.89559 -12.92 2.52718 -8.42923)
(-8.87601 8.77035 -1.13531 -30.3985 7.08425 -18.2229)
(-25.5704 5.04704 -0.631913 20.2231 -5.00366 12.4894)
(-20.7388 14.7358 -2.84985 2.93848 -1.3584 0.352792)
(-12.8765 15.4806 -3.16211 -8.39725 2.10266 -7.03278)
(-7.1924 7.05431 -1.18246 -16.1809 6.07841 -14.2148)
(-35.1308 4.32072 -1.50633 7.99642 -2.58518 5.93987)
(-32.8701 10.1012 -4.25991 -4.79342 -0.556604 -6.47359)
(-11.3434 9.30814 -4.83658 -3.30153 1.06304 -4.31433)
(-2.54564 4.08472 -2.39908 -6.51288 3.20738 -9.57188)
(121.741 54.6953 -0.127955 275.858 -1.96617 154.8)
(20.4422 43.3701 -0.716603 59.279 -0.975345 31.1692)
(-33.9369 38.0913 -0.866676 -63.1521 -0.754814 -38.4257)
(-130.559 35.6478 -0.466717 -252.96 -0.0460053 -154.757)
(-36.099 19.7827 -0.28555 103.843 -3.93326 25.5266)
(-9.14185 46.324 -1.74186 47.7763 -1.73442 15.118)
(-18.3483 43.3137 -2.07841 -50.139 0.0254563 -25.8494)
(-3.03363 14.5978 -1.05249 -113.134 2.0954 -44.1748)
(-21.6551 20.0878 -0.415656 100.012 -5.01223 32.7254)
(-19.4775 38.4494 -2.12209 32.6717 -1.94074 6.6065)
(-13.7495 36.6791 -2.4783 -35.7858 0.863063 -17.7746)
(-14.0172 14.7332 -1.15294 -100.852 3.75556 -44.207)
(-26.3381 16.1477 -0.442119 71.3006 -5.40286 23.1324)
(-20.023 31.8064 -2.11482 23.8063 -1.86589 4.68845)
(-13.9669 30.5781 -2.41324 -26.629 1.50395 -14.1665)
(-10.4068 12.195 -1.05331 -71.7324 4.87081 -32.5666)
(-26.2985 12.6187 -0.407278 49.4218 -5.26617 18.1772)
(-19.8924 25.5357 -1.95836 16.0048 -1.63486 3.40441)
(-13.7004 25.0097 -2.19548 -18.6904 1.89979 -11.1024)
(-10.1915 10.4449 -0.878443 -49.0885 5.4454 -25.4307)
(-26.571 8.83528 -0.426146 31.5998 -4.75392 14.3497)
(-19.5835 19.7345 -1.91747 9.56708 -1.34776 2.56148)
(-13.4235 20.0784 -2.08824 -12.5102 1.98334 -8.77263)
(-9.41966 8.88674 -0.755241 -30.2939 5.44649 -19.6462)
(-25.6577 4.87951 -0.649541 21.4432 -3.87668 13.465)
(-21.1729 14.6197 -2.3113 3.62229 -1.02479 0.961657)
(-13.4463 15.4992 -2.45114 -7.99448 1.66143 -6.99165)
(-7.66705 7.2359 -0.870084 -15.8351 4.70863 -14.7065)
(-35.3977 4.25131 -1.44512 8.90044 -2.01088 6.33998)
(-33.5632 10.0659 -3.64311 -4.25778 -0.402917 -6.03469)
(-12.2414 9.30807 -3.9812 -2.95687 0.842645 -3.90803)
(-3.08561 4.20335 -1.93013 -6.03138 2.48698 -9.1167)
(120.486 53.8513 -0.041568 273.509 -2.02608 154.552)
(20.1989 42.2636 -0.318095 59.1866 -0.918649 31.4973)
(-33.7018 36.9138 -0.395339 -62.1786 -0.304642 -38.3362)
(-128.863 34.7537 -0.211562 -249.405 0.556982 -153.679)
(-36.3185 19.284 -0.0841069 103.252 -2.86369 27.4439)
(-9.57241 45.3729 -0.86778 47.8588 -1.23518 15.8743)
(-18.6088 42.3997 -1.05955 -49.2705 0.062786 -26.456)
(-3.65515 14.2703 -0.537636 -112.211 1.60689 -46.4104)
(-22.0456 19.7459 -0.209789 100.025 -3.48799 34.6663)
(-19.9683 37.8638 -1.20711 33.0042 -1.33136 7.3473)
(-14.17 36.1579 -1.40755 -35.16 0.621086 -18.5441)
(-14.3316 14.5491 -0.634316 -100.097 2.66852 -46.3749)
(-26.6776 15.9564 -0.27345 71.8174 -3.71608 24.8735)
(-20.495 31.4946 -1.30239 24.2863 -1.26627 5.32375)
(-14.3864 30.331 -1.4599 -26.1258 1.06091 -14.8603)
(-10.7637 12.1561 -0.60277 -71.3377 3.40448 -34.57)
(-26.5817 12.5135 -0.290969 50.1884 -3.63751 19.5907)
(-20.2966 25.4009 -1.28498 16.5622 -1.1145 3.94698)
(-14.0848 24.9471 -1.39829 -18.2694 1.33947 -11.6181)
(-10.5223 10.5047 -0.519317 -48.8496 3.80329 -27.0077)
(-26.774 8.76305 -0.338991 32.4525 -3.32419 15.4829)
(-19.9074 19.696 -1.33668 10.1316 -0.931453 3.0565)
(-13.7632 20.1281 -1.40572 -12.1388 1.40056 -9.05094)
(-9.7213 9.01481 -0.472104 -30.0792 3.81765 -20.703)
(-25.7336 4.79896 -0.531295 22.3339 -2.74957 14.4364)
(-21.4747 14.6233 -1.70257 4.12465 -0.716407 1.42013)
(-13.8074 15.5918 -1.75474 -7.66564 1.17411 -7.0231)
(-7.92999 7.39494 -0.599704 -15.5069 3.31072 -15.1787)
(-35.5628 4.21907 -1.156 9.64639 -1.43728 7.02337)
(-34.0664 10.0857 -2.76838 -3.86068 -0.277001 -5.68991)
(-12.8356 9.34409 -2.95588 -2.69321 0.59705 -3.74699)
(-3.4598 4.29333 -1.40866 -5.71401 1.75163 -9.09844)
(119.503 53.2387 -0.00545487 271.682 -1.42509 154.058)
(20.0139 41.5094 -0.119414 59.0766 -0.624023 31.6138)
(-33.4894 36.1213 -0.155494 -61.443 -0.0970999 -38.1812)
(-127.546 34.1363 -0.0823195 -246.735 0.541381 -152.626)
(-36.4436 18.9363 -0.00342517 102.833 -1.74275 28.4214)
(-9.84306 44.7018 -0.377732 47.8985 -0.74044 16.2429)
(-18.7542 41.7591 -0.475445 -48.6286 0.0576623 -26.7608)
(-4.05064 14.0486 -0.240513 -111.496 1.00939 -47.6)
(-22.2987 19.5005 -0.0878748 99.9844 -2.06325 35.7222)
(-20.2613 37.4443 -0.600028 33.2216 -0.778647 7.7452)
(-14.4301 35.786 -0.701009 -34.6905 0.375799 -18.9926)
(-14.512 14.421 -0.304729 -99.489 1.59928 -47.5757)
(-26.8969 15.8202 -0.14222 72.1185 -2.17907 25.8963)
(-20.7749 31.2775 -0.69348 24.6052 -0.734451 5.68735)
(-14.6372 30.1604 -0.76844 -25.7422 0.630685 -15.283)
(-10.9673 12.1302 -0.300738 -70.9839 2.01564 -35.7422)
(-26.7682 12.4436 -0.169506 50.6585 -2.13686 20.4846)
(-20.5326 25.3198 -0.72052 16.9333 -0.648354 4.27931)
(-14.3057 24.9149 -0.769204 -17.9478 0.793601 -11.9441)
(-10.7019 10.548 -0.267957 -48.6117 2.24612 -27.9723)
(-26.9121 8.72055 -0.213292 32.9799 -1.9677 16.2573)
(-20.0945 19.6879 -0.785632 10.5039 -0.547579 3.37771)
(-13.953 20.1766 -0.809002 -11.8624 0.828687 -9.23908)
(-9.88011 9.10326 -0.257046 -29.8768 2.25561 -21.3866)
(-25.8018 4.75311 -0.343764 22.8765 -1.64293 15.1409)
(-21.653 14.6411 -1.04004 4.45058 -0.425276 1.72818)
(-14.0117 15.6638 -1.0547 -7.43313 0.693749 -7.07094)
(-8.06186 7.49965 -0.351938 -15.2559 1.95694 -15.5332)
(-35.6899 4.20305 -0.7412 10.1083 -0.865771 7.57718)
(-34.3826 10.1086 -1.7211 -3.60802 -0.163295 -5.45789)
(-13.186 9.37231 -1.8139 -2.51192 0.353513 -3.70641)
(-3.67375 4.34829 -0.855535 -5.50204 1.03497 -9.21473)
(118.976 52.9215 0.00118134 270.703 -0.506247 153.725)
(19.9169 41.1308 -0.0285689 59.0107 -0.218668 31.6455)
(-33.367 35.7258 -0.0390075 -61.0509 -0.0188357 -38.0773)
(-126.841 33.824 -0.0204194 -245.325 0.21235 -152.013)
(-36.4994 18.7586 0.0061419 102.615 -0.585114 28.8235)
(-9.9726 44.3569 -0.103063 47.9158 -0.246772 16.3899)
(-18.8173 41.4309 -0.132861 -48.2894 0.0227192 -26.885)
(-4.24133 13.937 -0.0669462 -111.109 0.344028 -48.1107)
(-22.4212 19.3722 -0.0232438 99.9506 -0.683564 36.1768)
(-20.3973 37.2246 -0.179548 33.3304 -0.256447 7.91593)
(-14.5528 35.5912 -0.210116 -34.441 0.125905 -19.1975)
(-14.5939 14.3545 -0.0890735 -99.1559 0.533122 -48.1053)
(-27.0024 15.748 -0.0439091 72.2559 -0.718814 26.3599)
(-20.9042 31.1624 -0.21635 24.7643 -0.240879 5.85042)
(-14.7535 30.0693 -0.238223 -25.5375 0.209235 -15.4815)
(-11.0597 12.1152 -0.0901286 -70.7824 0.66773 -36.2778)
(-26.8588 12.4064 -0.0557594 50.8792 -0.70544 20.9085)
(-20.6407 25.2767 -0.231534 17.1176 -0.212991 4.43539)
(-14.4057 24.8963 -0.244728 -17.776 0.262633 -12.1003)
(-10.7807 10.5681 -0.0821448 -48.4712 0.74279 -28.4247)
(-26.9797 8.69831 -0.0729942 33.228 -0.652035 16.6418)
(-20.1793 19.6839 -0.259062 10.687 -0.180919 3.53422)
(-14.0369 20.2 -0.264027 -11.7164 0.273887 -9.33243)
(-9.94796 9.14587 -0.0815412 -29.7598 0.745667 -21.7185)
(-25.8381 4.73029 -0.119391 23.1275 -0.547322 15.5019)
(-21.7344 14.6507 -0.349838 4.60908 -0.14132 1.88132)
(-14.1022 15.6985 -0.352063 -7.31305 0.229043 -7.10184)
(-8.1158 7.54942 -0.11634 -15.1229 0.646673 -15.72)
(-35.7491 4.19671 -0.255947 10.3262 -0.291185 7.88024)
(-34.5301 10.1222 -0.583393 -3.48479 -0.0543773 -5.34096)
(-13.3487 9.38509 -0.611156 -2.421 0.117026 -3.70765)
(-3.77208 4.37234 -0.287241 -5.39882 0.341772 -9.31108)
)
;

boundaryField
{
    interface
    {
        type            calculated;
        value           nonuniform List<symmTensor> 
192
(
(-21.7724 8.23072 2.7675 293.25 23.127 82.1392)
(-22.1956 3.73448 3.35873 128.714 -14.0933 12.9952)
(-22.0973 4.75619 4.01409 130.843 -9.19223 30.1693)
(-22.112 3.81654 4.15357 93.6376 -10.5102 24.8604)
(-22.2299 2.77202 4.19342 66.4717 -9.10568 23.2963)
(-22.4555 1.48423 4.10402 43.5647 -7.70479 20.8142)
(-22.7184 0.122146 3.82806 30.9658 -6.31946 20.8362)
(-22.115 -1.64754 3.28696 22.8876 -3.60091 22.1699)
(-23.9809 8.49416 1.76163 289.162 11.1815 86.9046)
(-24.6209 4.18836 2.29545 143.213 -10.3236 24.6287)
(-25.0581 4.69923 2.54407 128.965 -13.8849 29.7215)
(-25.4315 3.8042 2.59821 93.1186 -14.6256 26.3392)
(-25.6642 2.65157 2.57452 64.4319 -13.4809 24.4065)
(-25.7248 1.26567 2.47707 41.8345 -11.5564 22.838)
(-25.3806 -0.307736 2.26709 29.5892 -9.09448 23.6523)
(-23.093 -2.26339 1.93117 22.994 -5.11666 26.2943)
(-25.2699 8.60526 1.04394 288.488 2.91757 92.0081)
(-25.8095 4.10527 1.51653 141.058 -8.08438 32.0496)
(-26.2788 4.59097 1.6296 128.71 -11.5359 33.0976)
(-26.6814 3.6896 1.6159 92.8908 -12.6073 26.6994)
(-26.8738 2.49139 1.56239 63.9159 -12.0301 22.6908)
(-26.7707 1.0358 1.47993 41.304 -10.5459 20.0581)
(-26.0419 -0.639057 1.34805 29.5062 -8.36669 20.5466)
(-22.957 -2.66755 1.19498 22.7544 -4.45657 22.454)
(-26.1447 8.51296 0.621842 286.068 -1.29913 94.9496)
(-26.5851 3.9814 1.02975 139.057 -6.60803 38.4183)
(-27.0067 4.47631 1.09837 128.717 -8.94076 38.2888)
(-27.3717 3.59233 1.07069 93.7518 -9.81949 30.0734)
(-27.5003 2.38498 1.01529 65.0342 -9.57202 24.4264)
(-27.2694 0.894102 0.948664 42.5257 -8.58574 20.6643)
(-26.2978 -0.83706 0.862705 30.9565 -6.97841 20.5005)
(-22.7485 -2.88175 0.784801 24.1913 -3.83376 21.9623)
(-26.7511 8.34521 0.371373 282.798 -2.81509 95.9511)
(-27.127 3.86492 0.696696 137.506 -5.25866 42.3006)
(-27.5027 4.3652 0.7441 128.558 -6.69248 42.075)
(-27.8227 3.5036 0.720243 94.4758 -7.26476 33.1031)
(-27.8949 2.30019 0.674981 66.1585 -7.14688 26.5305)
(-27.5717 0.791821 0.624669 43.7894 -6.52725 22.0207)
(-26.4406 -0.974755 0.567253 32.3369 -5.42491 21.4055)
(-22.5825 -3.02785 0.52565 25.4709 -3.01846 22.4635)
(-27.1623 8.17984 0.216714 279.719 -2.78934 96.0138)
(-27.4992 3.77087 0.45063 136.363 -3.84562 44.4514)
(-27.8413 4.27359 0.482985 128.37 -4.67671 44.4543)
(-28.125 3.4311 0.466156 94.9824 -5.01026 35.2573)
(-28.1549 2.23434 0.433825 67.006 -4.94527 28.2639)
(-27.7683 0.717303 0.398831 44.7612 -4.57199 23.3761)
(-26.5328 -1.07212 0.361218 33.3772 -3.86145 22.534)
(-22.4675 -3.12647 0.33762 26.5085 -2.17537 23.4262)
(-27.4204 8.05609 0.112272 277.423 -1.9353 95.7662)
(-27.7359 3.70588 0.251587 135.587 -2.34618 45.5154)
(-28.0585 4.20919 0.270167 128.201 -2.77547 45.7563)
(-28.3175 3.37982 0.260103 95.2788 -2.94592 36.54)
(-28.3197 2.18844 0.240877 67.5324 -2.91108 29.3894)
(-27.8936 0.666627 0.220242 45.3701 -2.71114 24.3434)
(-26.594 -1.13708 0.197352 34.0231 -2.31335 23.4083)
(-22.4003 -3.18879 0.182625 27.1708 -1.31724 24.2392)
(-27.5386 7.99017 0.0340994 276.216 -0.683989 95.5682)
(-27.842 3.67183 0.0798278 135.196 -0.788526 45.9445)
(-28.1545 4.17539 0.0856502 128.107 -0.921035 46.3219)
(-28.3999 3.353 0.0821956 95.4186 -0.973243 37.1294)
(-28.3889 2.16463 0.075824 67.786 -0.962189 29.9343)
(-27.9451 0.639365 0.0690036 45.6625 -0.899273 24.8363)
(-26.6063 -1.1729 0.0607339 34.3342 -0.771698 23.8779)
(-22.3392 -3.215 0.05466 27.5001 -0.444035 24.7022)
(20.4649 50.2124 -2.45804 178.92 0.586687 -10.6878)
(-59.0118 24.6633 -4.9345 66.167 -1.26519 -7.41564)
(-42.6588 30.0167 -5.99962 77.7308 -1.12482 -4.63468)
(-44.4875 25.7267 -6.55876 52.1737 -0.822097 -2.9189)
(-41.5852 21.9258 -6.87149 34.7416 -0.602186 -2.13378)
(-40.6357 16.9093 -7.09396 18.8333 -0.590439 -2.06282)
(-40.3674 11.6575 -7.39941 9.04586 -0.809925 -2.55781)
(-47.2084 7.81341 -8.27825 -0.288514 -1.10848 -3.56382)
(-7.91254 39.8227 -1.67132 31.8082 -0.562616 -9.88121)
(-32.1729 53.3026 -3.34691 18.2813 -1.23348 -8.48208)
(-33.5329 53.5159 -3.99529 19.2129 -1.14731 -6.81573)
(-33.7363 48.1002 -4.26469 11.4069 -0.799781 -5.66542)
(-32.7155 41.0575 -4.3868 5.24086 -0.448689 -5.11018)
(-32.1116 32.9523 -4.50862 -0.493987 -0.239058 -5.03777)
(-32.4665 24.6853 -4.82486 -4.50103 -0.203366 -5.30955)
(-39.5822 15.267 -5.96022 -7.59728 -0.244667 -5.62384)
(-18.8202 34.6567 -1.44794 -57.2989 -0.336066 -9.43327)
(-1.7132 49.988 -2.83151 -33.509 -1.05937 -8.93971)
(-4.1595 51.235 -3.41982 -31.8205 -1.07955 -7.86894)
(-5.55708 46.5636 -3.58022 -24.5141 -0.795164 -7.03475)
(-7.26412 40.1981 -3.61351 -19.3244 -0.43213 -6.62168)
(-8.39812 32.8746 -3.6733 -15.0482 -0.148419 -6.56616)
(-9.27257 24.9048 -3.9558 -11.8822 0.00885074 -6.78205)
(-7.60109 14.0994 -5.03462 -6.8566 0.0643143 -7.04923)
(-44.4398 33.2153 -1.48768 -184.639 1.07588 -8.79967)
(24.122 18.3229 -2.87941 -79.3129 -0.993426 -8.59084)
(7.9077 23.6796 -3.52486 -84.7152 -1.10591 -7.68331)
(8.2012 21.1026 -3.71581 -59.4938 -0.891473 -6.95073)
(4.67899 18.9012 -3.73838 -42.3919 -0.534432 -6.59075)
(2.95815 15.802 -3.77469 -27.3966 -0.216904 -6.5159)
(2.37295 12.0446 -4.02761 -17.1492 0.0365495 -6.61825)
(6.2529 6.27011 -5.02689 -8.09531 0.284211 -6.85128)
(-7.17123 -5.56189 -0.514279 -268.173 -23.407 -93.5326)
(-5.91094 -2.22833 0.498252 -133.16 8.50424 -23.2446)
(-4.85259 -2.85764 0.51241 -125.475 5.40127 -31.6896)
(-4.28771 -2.18224 0.59658 -87.7006 7.78565 -22.2641)
(-4.06246 -1.58285 0.639488 -60.0895 7.67546 -18.4451)
(-3.79613 -0.919815 0.776975 -37.0919 7.31932 -15.283)
(-2.99167 -0.536664 1.05866 -21.7368 6.24059 -14.2707)
(-0.287301 -1.24113 1.4549 -12.5613 2.8087 -14.553)
(-8.58781 -5.7702 -0.688817 -262.101 -13.6549 -98.267)
(-8.35101 -2.83702 -0.326926 -148.775 4.92337 -37.1645)
(-8.05854 -3.00413 -0.19174 -127.082 9.7691 -34.3185)
(-7.87249 -2.30223 -0.104262 -90.775 12.185 -27.0073)
(-7.79855 -1.53526 -0.0118267 -61.7153 12.7073 -22.9601)
(-7.60324 -0.714789 0.130528 -38.3163 12.1047 -20.3655)
(-6.71452 -0.093407 0.336764 -21.9376 10.2374 -19.2386)
(-3.46356 -0.665919 0.579763 -13.1 5.64636 -19.5891)
(-9.58154 -5.8209 -0.500287 -261.796 -5.72856 -104.879)
(-9.60655 -2.9261 -0.353047 -148.607 4.24755 -48.3181)
(-9.59949 -3.07183 -0.191508 -128.347 8.45387 -42.7643)
(-9.57609 -2.30882 -0.059421 -92.2295 10.8585 -33.0084)
(-9.50137 -1.42272 0.0707408 -62.7216 11.7144 -26.802)
(-9.13482 -0.475161 0.219171 -38.7595 11.4001 -22.4592)
(-7.94742 0.257082 0.371395 -21.6013 9.83367 -19.7042)
(-4.7143 -0.147704 0.443766 -11.9076 5.32384 -17.6845)
(-10.2973 -5.6763 -0.315749 -259.247 -1.40232 -108.21)
(-10.3933 -2.89799 -0.247695 -147.555 3.85391 -56.1999)
(-10.4928 -3.04431 -0.0891479 -128.327 6.792 -49.8696)
(-10.5209 -2.24932 0.049216 -92.7706 8.666 -38.5685)
(-10.4044 -1.29115 0.179006 -63.2693 9.51317 -30.5955)
(-9.91149 -0.262431 0.303781 -39.0264 9.42851 -24.626)
(-8.5487 0.547015 0.399784 -21.2502 8.2593 -20.2701)
(-5.23654 0.226165 0.411021 -11.202 4.52063 -16.5841)
(-10.803 -5.46987 -0.183783 -255.677 0.551796 -109.298)
(-10.9159 -2.82545 -0.144616 -146.372 3.28334 -60.9219)
(-11.0465 -2.96758 -0.00675128 -127.744 5.23213 -54.5563)
(-11.0772 -2.15784 0.114738 -92.7073 6.54102 -42.5921)
(-10.9098 -1.1599 0.223624 -63.3604 7.20562 -33.5713)
(-10.3091 -0.0863004 0.315277 -38.9801 7.21074 -26.4545)
(-8.84948 0.765183 0.369227 -20.8206 6.37182 -20.9301)
(-5.52034 0.490613 0.346212 -10.6094 3.49783 -16.1235)
(-11.1384 -5.27877 -0.0981318 -252.289 1.12491 -109.348)
(-11.2499 -2.74652 -0.0714756 -145.273 2.50262 -63.5665)
(-11.3809 -2.88228 0.034032 -127.034 3.7293 -57.3771)
(-11.3965 -2.06772 0.126408 -92.4079 4.57553 -45.1861)
(-11.1839 -1.0514 0.205531 -63.2145 5.02786 -35.6213)
(-10.5263 0.0436921 0.265373 -38.8005 5.0477 -27.8351)
(-9.0043 0.914491 0.292591 -20.4257 4.47761 -21.5777)
(-5.70477 0.666058 0.262007 -10.212 2.46475 -16.17)
(-11.3412 -5.13963 -0.0458762 -249.759 0.929303 -109.077)
(-11.4474 -2.68439 -0.0293628 -144.432 1.56357 -64.9377)
(-11.5716 -2.81445 0.0360802 -126.443 2.23951 -58.9298)
(-11.5728 -1.99974 0.0929875 -92.106 2.71273 -46.6916)
(-11.3328 -0.975785 0.14 -63.0313 2.97077 -36.8737)
(-10.6369 0.128498 0.173646 -38.6157 2.98313 -28.731)
(-9.0749 1.00809 0.186117 -20.13 2.64821 -22.0639)
(-5.77937 0.770175 0.162782 -9.9358 1.45763 -16.3415)
(-11.4352 -5.06765 -0.0131278 -248.424 0.348676 -108.861)
(-11.5376 -2.65131 -0.00750575 -143.978 0.531304 -65.5136)
(-11.6575 -2.77813 0.0144893 -126.114 0.747235 -59.6105)
(-11.6494 -1.96416 0.0335761 -91.9254 0.899454 -47.3737)
(-11.3978 -0.937622 0.0490249 -62.9158 0.982963 -37.4595)
(-10.6844 0.17037 0.0598076 -38.507 0.986594 -29.1667)
(-9.10307 1.05183 0.0635462 -19.9766 0.875531 -22.3206)
(-5.81035 0.817016 0.0542706 -9.80203 0.481519 -16.4716)
(-49.4177 9.87176 -3.39018 -4.11808 -1.47819 -2.51977)
(-44.2165 8.98739 -1.55375 -2.66794 -1.17581 2.0244)
(-44.4038 8.83732 -2.00256 -1.50536 -0.809727 -0.184993)
(-44.509 8.82944 -2.1598 -0.580412 -0.555567 -0.499659)
(-44.985 8.8739 -2.03876 0.11556 -0.379789 -0.472004)
(-45.3717 8.92269 -1.61805 0.615389 -0.252794 -0.0820953)
(-45.6396 8.96139 -1.03279 0.929528 -0.153671 0.301011)
(-45.7969 8.97969 -0.355598 1.02863 -0.0545875 0.495684)
(-42.9008 7.19758 -6.13012 -5.49415 -0.134421 -10.0239)
(-38.4873 5.93144 -5.87439 -4.75502 -0.0371289 -9.03041)
(-38.5446 5.58645 -5.62349 -3.93919 0.0818627 -8.61615)
(-39.3947 5.48396 -5.31944 -3.251 0.134651 -8.01691)
(-40.292 5.45536 -4.61948 -2.73781 0.134917 -7.65952)
(-40.9581 5.45075 -3.53353 -2.36459 0.107851 -7.38202)
(-41.3769 5.45612 -2.20315 -2.11911 0.0679252 -7.19217)
(-41.5618 5.46714 -0.747444 -1.98171 0.0231675 -7.08466)
(-7.50745 5.12112 -5.94641 -6.55041 0.46278 -6.24048)
(-9.98209 3.98139 -7.05991 -5.94965 0.474873 -7.9468)
(-11.5675 3.60454 -6.83224 -5.3169 0.467432 -6.5516)
(-13.0544 3.46612 -6.16307 -4.79238 0.416301 -5.409)
(-14.1622 3.40696 -5.14974 -4.39922 0.33661 -4.7607)
(-14.9057 3.37863 -3.84946 -4.11715 0.244762 -4.48506)
(-15.3535 3.36435 -2.3694 -3.93424 0.149297 -4.40104)
(-15.5592 3.35673 -0.799152 -3.83601 0.0507427 -4.38526)
(6.55832 4.58455 -3.67755 -6.33679 0.808001 -8.7748)
(2.15564 3.52201 -4.14067 -5.90575 0.611351 -12.4659)
(0.668643 3.11296 -4.03764 -5.52941 0.509902 -9.8728)
(-0.58272 2.94119 -3.5079 -5.1837 0.422429 -8.35196)
(-1.35885 2.85127 -2.85903 -4.90859 0.331191 -7.56213)
(-1.88257 2.80257 -2.09857 -4.70339 0.236125 -7.37403)
(-2.19916 2.77369 -1.27787 -4.57525 0.140144 -7.42978)
(-2.35326 2.75667 -0.429368 -4.52064 0.04617 -7.51512)
)
;
    }
    symmetry
    {
        type            symmetryPlane;
    }
    bottom
    {
        type            calculated;
        value           nonuniform List<symmTensor> 
32
(
(139.897 61.8964 1.84969 210.846 58.6382 139.697)
(138.91 65.3514 0.881099 208.989 26.4363 137.088)
(140.806 66.2847 0.350609 211.858 10.3844 138.623)
(141.028 65.7244 0.0896372 212.266 2.67802 138.832)
(140.263 64.774 -0.0197412 211.172 -0.598168 138.126)
(139.287 63.898 -0.0503194 209.741 -1.54466 137.207)
(138.484 63.2706 -0.0418167 208.551 -1.29572 136.442)
(138.043 62.9473 -0.0156179 207.897 -0.486279 136.021)
(24.4839 29.504 0.287744 36.1247 17.7088 24.1772)
(27.0227 32.7721 0.154577 39.7917 8.57894 26.4726)
(28.8507 31.7298 0.0582055 42.6121 3.34085 28.3041)
(29.4304 30.0608 0.0119683 43.5748 0.725414 28.9347)
(29.5811 28.5982 -0.00591198 43.8742 -0.376711 29.1323)
(29.5901 27.5167 -0.00997036 43.9385 -0.660301 29.1749)
(29.5636 26.8219 -0.00771442 43.9298 -0.524133 29.1689)
(29.5427 26.4841 -0.00281076 43.9133 -0.193403 29.1579)
(-37.8216 25.2379 -0.247807 -56.9723 -17.0678 -38.0204)
(-35.0444 28.3324 -0.151512 -52.9901 -9.31332 -35.4555)
(-35.1682 26.7744 -0.075535 -53.1014 -4.91304 -35.566)
(-35.0037 24.7289 -0.0344675 -52.7676 -2.42772 -35.3514)
(-34.6475 23.026 -0.0141587 -52.1696 -1.07133 -34.9512)
(-34.2541 21.7938 -0.00486112 -51.5382 -0.388735 -34.5265)
(-33.9359 21.0089 -0.00118231 -51.037 -0.0981032 -34.1891)
(-33.7611 20.6291 -0.00013721 -50.7638 -0.0115962 -34.0052)
(-141.829 43.9699 -1.45273 -210.2 -53.243 -141.269)
(-136.347 46.005 -0.744346 -202.491 -26.1786 -137.232)
(-137.628 45.1469 -0.332246 -204.281 -11.8967 -138.801)
(-137.071 43.4725 -0.122803 -203.35 -4.56879 -138.226)
(-135.56 41.8529 -0.0277739 -201.048 -1.07456 -136.641)
(-133.948 40.5715 0.00772746 -198.627 0.308794 -134.964)
(-132.691 39.7074 0.0135537 -196.749 0.553926 -133.662)
(-132.015 39.2757 0.00581772 -195.742 0.240501 -132.965)
)
;
    }
}


// ************************************************************************* //
