/*--------------------------------*- C++ -*----------------------------------*\
| =========                 |                                                 |
| \\      /  F ield         | foam-extend: Open Source CFD                    |
|  \\    /   O peration     | Version:     3.1                                |
|   \\  /    A nd           | Web:         http://www.extend-project.de       |
|    \\/     M anipulation  |                                                 |
\*---------------------------------------------------------------------------*/
FoamFile
{
    version     2.0;
    format      ascii;
    class       volScalarField;
    location    "2";
    object      sigmaEq;
}
// * * * * * * * * * * * * * * * * * * * * * * * * * * * * * * * * * * * * * //

dimensions      [1 -1 -2 0 0 0 0];

internalField   nonuniform List<scalar> 
256
(
168.706
83.6122
78.4232
154.501
124.297
102.394
93.2385
107.099
113.18
95.4883
86.1735
92.561
91.2645
83.7564
75.3491
69.1487
72.2441
70.569
63.3505
49.9958
56.684
57.2559
51.1903
34.7448
47.005
45.5485
38.9532
23.9505
46.0347
38.7517
23.8017
16.4559
165.317
87.3018
81.2594
147.402
128.306
99.5009
90.8357
110.818
110.438
85.012
76.1884
89.6667
88.0238
71.6531
63.5859
65.693
68.4936
58.5677
51.7982
45.9731
53.3805
46.6656
41.261
31.1314
44.1713
36.9856
31.6284
21.3012
43.6661
33.5139
21.0788
15.3162
164.121
86.0938
78.6582
143.239
127.248
97.1348
87.058
107.223
110.468
82.216
71.82
86.9188
88.1051
68.1288
58.5803
63.1352
68.5235
55.078
47.0582
43.6389
53.2483
43.5942
37.3452
29.1599
43.8208
34.7038
28.9757
19.8503
42.8885
32.8053
20.0628
13.2689
162.273
83.9435
75.3883
139.366
126.04
95.3535
83.8941
104.012
110.331
81.144
69.2086
84.3194
88.5355
67.2978
56.2762
60.9059
69.1367
54.4465
45.1593
41.5902
53.8447
43.1673
35.9714
27.2787
44.3249
34.5882
28.2165
18.274
43.353
33.4705
19.831
11.6599
160.278
81.8221
72.4728
135.896
125.144
93.8278
81.301
101.536
110.252
80.4901
67.3895
82.2492
89.0466
67.1428
55.017
59.1717
69.9006
54.5878
44.3539
39.9955
54.6529
43.4675
35.5449
25.7355
45.1038
35.0093
28.0884
16.9299
44.161
34.2034
19.7516
10.5064
158.522
80.111
70.2158
133.093
124.462
92.5984
79.2976
99.6826
110.179
79.9875
66.0621
80.7078
89.4486
67.1089
54.2189
57.9136
70.5279
54.8341
43.9565
38.8558
55.3409
43.8412
35.4254
24.6221
45.7925
35.4245
28.1146
15.9551
44.9307
34.7158
19.6141
9.73985
157.252
78.9442
68.7027
131.144
123.988
91.7394
77.9325
98.4325
110.112
79.622
65.1669
79.6773
89.7043
67.0789
53.7082
57.0901
70.9423
55.0086
43.734
38.1247
55.8051
44.1052
35.3881
23.9166
46.2692
35.7014
28.1463
15.3505
45.4808
35.0108
19.4556
9.28513
156.591
78.358
67.9473
130.149
123.741
91.2993
77.2414
97.8001
110.069
79.4272
64.7123
79.1589
89.8232
67.0553
53.452
56.6809
71.1416
55.0907
43.6266
37.7666
56.0308
44.2333
35.3736
23.5765
46.5031
35.833
28.1593
15.0662
45.7546
35.1406
19.3522
9.07721
)
;

boundaryField
{
    interface
    {
        type            calculated;
        value           nonuniform List<scalar> 
192
(
269.54
136.422
133.578
101.757
78.4454
59.9874
51.0744
45.6159
265.235
147.604
135.264
105.146
81.3994
63.6732
54.7608
48.9861
264.597
144.829
134.914
105.154
81.1869
63.0361
53.7621
46.5755
262.979
142.675
134.483
105.504
81.7842
63.5945
54.28
46.721
260.688
141.297
134.186
105.91
82.501
64.3575
55.0713
47.3063
258.446
140.38
134.004
106.276
83.1303
65.0589
55.8245
48.0615
256.736
139.781
133.88
106.523
83.5567
65.5432
56.3522
48.6361
255.821
139.476
133.808
106.636
83.7602
65.7778
56.6062
48.9197
190.118
117.071
118.119
95.5891
77.2996
61.4573
51.0984
49.9516
79.6415
102.518
103.815
92.8864
79.6133
65.1889
51.9252
43.9142
75.4841
92.004
93.3084
83.3961
71.3412
58.0503
44.0529
25.9908
177.395
98.1109
96.8336
72.5832
54.4735
39.087
27.805
19.5703
245.535
123.589
112.771
78.589
52.7933
32.2141
19.7884
14.6448
234.507
132.475
112.389
79.5643
53.678
34.2836
22.7824
17.2591
230.943
127.956
109.797
77.5762
51.9102
32.7036
21.4589
14.631
226.939
124.375
107.073
75.3044
49.694
30.2976
18.975
12.6421
222.718
121.836
104.914
73.4514
47.816
28.0678
16.4761
11.0908
219.024
120.006
103.32
72.1046
46.4422
26.3725
14.4835
10.154
216.348
118.782
102.255
71.2243
45.553
25.2669
13.1484
9.68284
214.955
118.163
101.717
70.7873
45.1159
24.7252
12.4874
9.50295
50.0749
47.2594
46.7245
47.1047
47.9093
48.6802
49.241
49.5123
39.3028
35.2116
35.5684
36.777
37.7484
38.3443
38.6616
38.7972
13.6929
14.531
14.6233
14.6772
14.4218
13.8816
13.3156
12.9656
17.5749
15.847
12.7759
10.4578
8.8561
7.7241
6.97769
6.60102
)
;
    }
    symmetry
    {
        type            symmetryPlane;
    }
    bottom
    {
        type            calculated;
        value           nonuniform List<scalar> 
32
(
155.926
134.471
130.154
128.409
126.866
125.466
124.415
123.854
60.2172
59.5215
56.4211
53.4584
51.0679
49.312
48.1724
47.6133
56.9092
55.3457
51.0459
47.1092
44.1098
42.001
40.6661
40.0194
145.537
118.756
109.975
105.537
102.42
100.057
98.4252
97.5892
)
;
    }
}


// ************************************************************************* //
