/*--------------------------------*- C++ -*----------------------------------*\
| =========                 |                                                 |
| \\      /  F ield         | foam-extend: Open Source CFD                    |
|  \\    /   O peration     | Version:     3.1                                |
|   \\  /    A nd           | Web:         http://www.extend-project.de       |
|    \\/     M anipulation  |                                                 |
\*---------------------------------------------------------------------------*/
FoamFile
{
    version     2.0;
    format      ascii;
    class       volSymmTensorField;
    location    "2";
    object      sigma;
}
// * * * * * * * * * * * * * * * * * * * * * * * * * * * * * * * * * * * * * //

dimensions      [1 -1 -2 0 0 0 0];

internalField   nonuniform List<symmTensor> 
256
(
(118.168 47.9113 -1.9552 270.888 17.8852 138.745)
(11.9994 42.4651 -5.84815 51.4436 6.9881 18.8696)
(-36.9493 39.1967 -5.91968 -71.3702 -8.76805 -36.3641)
(-133.735 39.2353 -2.53516 -272.6 -21.3503 -144.831)
(-60.2046 20.2741 -2.41104 72.7934 -10.2531 -18.5529)
(-28.5807 51.0093 -9.54324 26.5216 -4.18061 -9.73467)
(-6.50714 49.8981 -9.84307 -36.7109 1.54529 -6.05465)
(22.5628 20.0432 -3.83532 -86.6003 6.58665 1.94006)
(-27.1453 22.9126 -1.26044 93.0416 -6.01251 15.9811)
(-30.5467 47.3052 -7.15529 23.9596 -2.31273 -5.90657)
(-9.74813 47.4228 -7.47682 -31.6365 0.140807 -8.36329)
(-7.46522 23.3777 -2.87343 -97.3623 3.56492 -24.0592)
(-35.4504 19.1599 -1.39869 61.4636 -6.9485 7.26745)
(-31.862 41.643 -6.41983 15.3123 -2.38524 -6.55984)
(-9.68621 42.1019 -6.62608 -22.5251 0.797897 -5.97982)
(-0.363457 20.133 -3.04679 -64.4899 5.24264 -13.1634)
(-33.2575 16.0479 -1.23957 42.6778 -5.98878 7.83675)
(-30.6624 34.9911 -5.667 8.86182 -1.91007 -5.61508)
(-10.5508 35.6919 -5.80871 -16.4768 0.915577 -5.67245)
(-2.28324 17.3692 -2.84204 -44.8308 5.11178 -11.9742)
(-33.6238 12.1134 -1.38046 25.0817 -5.10658 5.93555)
(-29.8621 27.8291 -5.33698 2.74981 -1.60538 -5.55458)
(-10.757 28.8547 -5.33854 -11.7712 0.927665 -5.44892)
(-1.96624 14.0895 -2.75645 -27.6389 4.83976 -9.8751)
(-32.7172 7.78898 -1.88872 15.206 -4.39323 6.61931)
(-30.0899 20.6512 -5.43899 -2.0108 -1.62398 -5.69363)
(-10.8978 21.7123 -5.22974 -8.6562 0.682023 -5.79458)
(-1.40335 10.555 -2.79858 -16.2311 4.10453 -9.50087)
(-41.7883 5.06052 -2.62247 3.71276 -2.54892 2.16331)
(-40.1601 12.622 -5.77426 -8.92642 -1.05519 -10.8057)
(-6.95135 12.3603 -5.62034 -3.03509 0.115808 -3.62118)
(3.95272 5.71593 -3.3461 -6.94749 1.76263 -7.8817)
(121.375 50.3708 -0.936899 271.639 8.91121 146.079)
(17.5225 45.749 -4.43578 55.9636 3.30389 24.8002)
(-35.2076 42.8616 -4.91848 -65.9021 -5.68969 -35.8768)
(-130.598 42.1082 -2.24517 -263.52 -12.7064 -145.51)
(-36.8932 18.4488 -1.18497 102.917 -7.41781 8.27387)
(-11.7327 48.8148 -8.321 44.7914 -3.25531 5.75804)
(-18.5216 48.1829 -9.4703 -50.6817 0.0402233 -19.0588)
(0.721075 18.9492 -4.16184 -114.699 3.3396 -23.4258)
(-21.5879 18.6826 -0.277359 97.0572 -9.83284 20.3639)
(-21.1317 40.9406 -7.01687 30.3016 -3.79563 -0.278918)
(-13.7434 41.2348 -8.34796 -35.0126 1.37751 -12.1424)
(-11.1819 19.2648 -3.7418 -100.146 7.01881 -27.362)
(-26.1556 14.9949 0.25838 68.5107 -10.2885 15.2944)
(-21.5496 34.5555 -5.63449 21.9252 -3.59565 -0.407668)
(-13.6815 35.0244 -6.97279 -25.7534 2.17253 -10.036)
(-7.10486 15.9088 -3.39195 -69.677 8.76517 -19.5535)
(-25.5741 11.9857 0.713803 47.2568 -9.4739 14.2116)
(-21.3327 28.1896 -4.57895 14.1741 -3.09331 -0.569751)
(-13.2523 28.821 -5.877 -18.0306 2.53084 -8.48985)
(-7.30212 13.2185 -2.9168 -47.294 9.14587 -16.6508)
(-25.757 8.63737 0.799531 29.7172 -8.13048 12.8147)
(-20.9747 22.0417 -4.0069 7.72667 -2.57345 -0.767018)
(-12.8886 22.949 -5.14907 -12.3807 2.45891 -7.67173)
(-6.81555 10.5452 -2.54497 -29.3035 8.64912 -14.5345)
(-25.3915 4.96748 0.417301 19.1076 -6.48516 13.1448)
(-22.3524 16.2572 -4.07356 1.87161 -2.19091 -1.82796)
(-12.5485 17.2476 -4.98742 -8.40952 1.88162 -7.34591)
(-5.33344 7.89873 -2.37071 -16.2504 7.17884 -13.1835)
(-34.4299 3.62066 -0.561446 7.92563 -3.65413 8.67743)
(-33.4837 10.398 -5.01234 -5.67495 -1.3164 -7.82099)
(-9.75494 10.0697 -6.07881 -3.80421 0.824792 -5.96359)
(-1.17779 4.44706 -3.3072 -8.29767 3.81509 -12.5325)
(123.081 50.9012 -0.576699 273.84 2.56314 152.677)
(19.1401 45.1819 -2.62812 58.5126 0.674853 28.6677)
(-35.2372 42.0274 -3.03176 -65.0759 -3.16383 -37.3961)
(-131.914 41.8163 -1.51245 -263.557 -5.77323 -151.181)
(-37.0597 17.7957 -0.956026 103.632 -5.92123 16.3049)
(-10.4665 47.3952 -5.33215 47.6269 -2.75326 11.0236)
(-19.6043 46.7425 -6.29157 -51.1418 -0.143921 -22.7342)
(-1.68144 18.2282 -3.10121 -116.037 2.74209 -33.5498)
(-22.2446 17.6111 -0.590532 98.2313 -8.39442 24.7876)
(-20.4242 38.8783 -5.06129 32.5631 -3.39142 3.27255)
(-14.6944 39.1716 -6.18022 -35.5994 1.25909 -14.7657)
(-13.2952 18.0505 -3.05571 -102.082 6.14655 -34.8041)
(-26.8905 13.8536 -0.215097 69.1705 -9.13478 17.204)
(-20.8098 31.9811 -4.26534 23.6869 -3.32124 2.17062)
(-14.6399 32.4548 -5.38852 -26.0123 2.19089 -11.7699)
(-9.48573 14.7083 -2.74405 -71.4619 8.02838 -24.9716)
(-26.744 10.7559 0.106438 47.2524 -8.68339 14.2009)
(-20.5454 25.6222 -3.47579 15.7423 -2.89675 1.48196)
(-14.1232 26.3076 -4.5498 -18.0247 2.68081 -9.50701)
(-9.25899 12.0901 -2.33556 -48.3489 8.7013 -20.068)
(-26.9616 7.45673 0.203854 29.4222 -7.57815 11.8047)
(-20.1118 19.7695 -3.03422 9.1345 -2.37556 0.983543)
(-13.6491 20.8196 -3.97774 -12.064 2.70625 -8.06421)
(-8.51492 9.69049 -1.98217 -29.709 8.42226 -16.4471)
(-26.2449 3.85387 -0.0708416 18.9454 -5.9863 11.7309)
(-21.491 14.5182 -3.22309 3.07137 -1.86832 -0.384086)
(-13.3048 15.7407 -4.01867 -7.86642 2.16883 -7.18824)
(-6.80488 7.38781 -1.88531 -15.9659 7.10033 -13.7186)
(-35.8729 2.98579 -1.03368 6.88397 -3.08741 5.74834)
(-33.1951 9.48194 -4.51625 -4.91204 -0.925971 -7.10552)
(-10.8538 9.28238 -5.54113 -3.08285 0.950484 -4.98929)
(-1.85626 4.21784 -3.0233 -6.71492 3.64099 -10.4335)
(122.991 50.3994 -0.247203 273.191 -0.64208 155.772)
(19.3369 43.857 -1.41408 59.1929 -0.559474 30.4395)
(-35.154 40.4234 -1.67956 -64.175 -1.63977 -38.1296)
(-131.245 40.6456 -0.885076 -260.934 -1.91613 -153.208)
(-37.3327 17.2102 -0.475012 103.193 -4.83158 22.1497)
(-10.9283 46.1779 -3.1175 48.2458 -2.23801 13.6842)
(-20.0291 45.4478 -3.75813 -50.3356 -0.0870594 -24.6724)
(-2.87549 17.6022 -1.9488 -115.4 2.47177 -40.0849)
(-22.5685 17.1298 -0.414509 99.0261 -6.54717 29.5982)
(-21.1658 37.8563 -3.33555 33.3589 -2.67045 5.33438)
(-15.3209 38.1433 -4.08332 -35.1834 1.02874 -16.5333)
(-14.2459 17.5323 -2.08498 -102.084 4.94545 -40.431)
(-27.1922 13.4067 -0.262715 70.4019 -7.17818 20.5623)
(-21.5377 31.0113 -3.03641 24.5163 -2.62773 3.67687)
(-15.3714 31.5117 -3.76985 -25.7102 1.83944 -13.1183)
(-10.5646 14.3026 -1.93182 -71.8703 6.4755 -29.3829)
(-26.9954 10.313 -0.0933703 48.5912 -6.96726 16.29)
(-21.1713 24.726 -2.6111 16.5962 -2.31731 2.60641)
(-14.8724 25.4906 -3.29263 -17.7392 2.31497 -10.3652)
(-10.3133 11.8062 -1.66005 -48.7493 7.16363 -23.0995)
(-27.0991 7.01231 -0.0549944 30.7635 -6.20995 13.0119)
(-20.6001 18.9953 -2.39325 9.97114 -1.91374 1.88494)
(-14.3454 20.1959 -2.97631 -11.7043 2.39248 -8.40514)
(-9.50355 9.55856 -1.42267 -29.8977 7.06637 -18.2124)
(-26.0835 3.40412 -0.307626 20.4124 -4.98991 12.4466)
(-21.8868 13.9346 -2.72557 3.85079 -1.48669 0.367452)
(-14.0252 15.3521 -3.21853 -7.41811 1.95687 -7.00619)
(-7.7066 7.3958 -1.42964 -15.7226 6.03566 -14.2117)
(-35.6804 2.74395 -1.24495 8.21329 -2.6323 5.92522)
(-33.7627 9.16384 -4.1574 -4.14007 -0.725634 -6.42987)
(-12.0493 9.04243 -4.84914 -2.70162 0.877006 -4.27929)
(-2.85886 4.23335 -2.54144 -6.23842 3.11834 -9.55615)
(121.911 49.6177 -0.0574083 271.091 -1.83706 156.474)
(19.2103 42.5172 -0.6869 59.2683 -0.961092 31.2354)
(-34.9161 38.8855 -0.851602 -63.1364 -0.772581 -38.3118)
(-129.606 39.3907 -0.47527 -257.069 -0.0734865 -153.001)
(-37.6733 16.6769 -0.149529 102.498 -3.8219 25.5633)
(-11.4187 45.0561 -1.67571 48.4115 -1.73283 15.13)
(-20.3274 44.276 -2.08066 -49.39 -0.0063573 -25.7865)
(-3.68838 17.0763 -1.12149 -114.39 2.12091 -43.9971)
(-23.0783 16.7666 -0.206951 99.1911 -4.88807 32.767)
(-21.8116 37.1252 -2.03508 33.7978 -1.97443 6.60624)
(-15.8287 37.4251 -2.50802 -34.5569 0.8034 -17.7382)
(-14.7238 17.1907 -1.29389 -101.392 3.80185 -44.0414)
(-27.647 13.1679 -0.186796 71.1626 -5.31141 23.1237)
(-22.1776 30.5326 -2.01327 25.12 -1.92744 4.68787)
(-15.9326 31.0706 -2.46537 -25.2341 1.42194 -14.1388)
(-11.1377 14.1397 -1.24601 -71.641 4.90271 -32.4881)
(-27.3777 10.1316 -0.131525 49.6281 -5.20813 18.147)
(-21.7341 24.4058 -1.85163 17.2898 -1.71288 3.40492)
(-15.4281 25.2411 -2.25881 -17.3377 1.80549 -11.081)
(-10.8818 11.7742 -1.09905 -48.6808 5.45677 -25.3972)
(-27.3754 6.84433 -0.15251 31.8873 -4.72469 14.3108)
(-21.0552 18.7776 -1.8124 10.6842 -1.43515 2.56388)
(-14.8613 20.0894 -2.14884 -11.3179 1.88243 -8.75439)
(-10.0373 9.63092 -0.975802 -29.7844 5.4363 -19.6377)
(-26.1601 3.22214 -0.396059 21.6085 -3.86952 13.4227)
(-22.2953 13.7961 -2.21269 4.50989 -1.12659 0.96973)
(-14.5715 15.3386 -2.49258 -7.03006 1.54851 -6.9725)
(-8.17964 7.53432 -1.05897 -15.3663 4.67684 -14.7064)
(-35.9439 2.6569 -1.24063 9.10342 -2.05596 6.32238)
(-34.4419 9.10252 -3.5625 -3.6183 -0.543302 -6.00041)
(-12.9249 9.00451 -3.98724 -2.36763 0.692734 -3.88408)
(-3.39212 4.30833 -2.03586 -5.75184 2.41614 -9.1081)
(120.695 48.8907 0.0285396 268.832 -1.8898 156.178)
(19.0308 41.4332 -0.291597 59.1661 -0.906232 31.5616)
(-34.62 37.6707 -0.38943 -62.1626 -0.314572 -38.2266)
(-127.896 38.3487 -0.233224 -253.37 0.5835 -151.992)
(-37.8679 16.2405 0.0190191 101.921 -2.78111 27.4752)
(-11.7701 44.1254 -0.817532 48.4593 -1.23499 15.885)
(-20.5053 43.3173 -1.06214 -48.541 0.0398892 -26.3964)
(-4.27077 16.6678 -0.593196 -113.421 1.63174 -46.2446)
(-23.448 16.4709 -0.0593957 99.1938 -3.40033 34.7023)
(-22.2419 36.5464 -1.14289 34.0861 -1.35411 7.3459)
(-16.1833 36.8645 -1.42851 -33.9608 0.580837 -18.5104)
(-15.0063 16.9349 -0.737034 -100.607 2.70466 -46.2213)
(-27.9749 12.9991 -0.0921139 71.6575 -3.65232 24.8632)
(-22.6067 30.2167 -1.22895 25.56 -1.30805 5.32109)
(-16.305 30.7891 -1.4958 -24.758 1.00573 -14.836)
(-11.4731 14.0458 -0.739787 -71.2307 3.4296 -34.4983)
(-27.6544 10.0314 -0.0953617 50.3729 -3.59722 19.5603)
(-22.1098 24.2598 -1.20803 17.8166 -1.16841 3.94448)
(-15.7819 25.149 -1.44175 -16.9365 1.27518 -11.6006)
(-11.2008 11.792 -0.674791 -48.4311 3.81358 -26.9783)
(-27.5743 6.7672 -0.143671 32.7226 -3.30425 15.4436)
(-21.3603 18.7251 -1.26057 11.2277 -0.993199 3.05493)
(-15.1827 20.114 -1.44708 -10.9585 1.33032 -9.03731)
(-10.335 9.72504 -0.627062 -29.5593 3.81203 -20.6974)
(-26.2313 3.13285 -0.348728 22.4852 -2.74582 14.392)
(-22.5835 13.7854 -1.63079 4.9987 -0.790391 1.42263)
(-14.92 15.4085 -1.78231 -6.70802 1.09334 -7.01)
(-8.443 7.66192 -0.731848 -15.028 3.28854 -15.1821)
(-36.1073 2.61243 -1.00761 9.84022 -1.47304 7.00003)
(-34.9352 9.10536 -2.70976 -3.22924 -0.38165 -5.66422)
(-13.5025 9.01503 -2.95819 -2.11003 0.487482 -3.73256)
(-3.76061 4.36838 -1.48175 -5.43022 1.70057 -9.09689)
(119.733 48.3632 0.0429413 267.069 -1.32876 155.653)
(18.8879 40.6946 -0.101925 59.0495 -0.615829 31.6772)
(-34.3679 36.8526 -0.153619 -61.4265 -0.101997 -38.0748)
(-126.577 37.6282 -0.100432 -250.599 0.57311 -150.985)
(-37.9741 15.936 0.0605736 101.508 -1.69184 28.4494)
(-11.9862 43.4683 -0.346522 48.475 -0.740485 16.2527)
(-20.5949 42.6461 -0.477383 -47.9127 0.0440858 -26.7038)
(-4.64065 16.3903 -0.276039 -112.677 1.02699 -47.4421)
(-23.6857 16.2582 0.00292168 99.1452 -2.01074 35.7546)
(-22.4928 36.1322 -0.560695 34.2733 -0.791584 7.74296)
(-16.3988 36.4657 -0.713467 -33.5117 0.352749 -18.961)
(-15.1663 16.7573 -0.367057 -99.979 1.62233 -47.4304)
(-28.1856 12.8796 -0.0336508 71.9438 -2.14114 25.8845)
(-22.8574 29.9979 -0.649019 25.8519 -0.75849 5.68331)
(-16.5247 30.5951 -0.789414 -24.3927 0.599046 -15.261)
(-11.6632 13.982 -0.382677 -70.8661 2.03173 -35.6755)
(-27.8365 9.96645 -0.0524559 50.829 -2.11295 20.4533)
(-22.3274 24.1724 -0.674017 18.1678 -0.679846 4.27483)
(-15.9836 25.0971 -0.794486 -16.6276 0.756295 -11.9294)
(-11.3734 11.8064 -0.360351 -48.1853 2.25314 -27.9462)
(-27.7101 6.72326 -0.0959077 33.2393 -1.95598 16.2171)
(-21.5359 18.709 -0.739469 11.5869 -0.584292 3.37341)
(-15.3614 20.1461 -0.832901 -10.6895 0.787257 -9.22859)
(-10.4917 9.79046 -0.348853 -29.3497 2.25283 -21.3836)
(-26.297 3.08313 -0.233329 23.0195 -1.64115 15.0941)
(-22.7533 13.7952 -0.996321 5.31635 -0.470125 1.72661)
(-15.1162 15.4664 -1.07031 -6.47968 0.645238 -7.06213)
(-8.575 7.74619 -0.429967 -14.7704 1.94381 -15.5394)
(-36.2334 2.58995 -0.650773 10.2967 -0.888525 7.54875)
(-35.2439 9.11873 -1.68535 -2.98154 -0.227604 -5.43866)
(-13.8408 9.02779 -1.81454 -1.93266 0.286967 -3.6989)
(-3.97006 4.40474 -0.898485 -5.2157 1.00427 -9.21858)
(119.216 48.0901 0.0182294 266.123 -0.471999 155.305)
(18.8117 40.3239 -0.0225208 58.9803 -0.215828 31.7085)
(-34.2262 36.4443 -0.0386371 -61.034 -0.0202962 -37.9726)
(-125.872 37.2635 -0.0272103 -249.137 0.225316 -150.396)
(-38.0198 15.7804 0.0277941 101.293 -0.56792 28.8503)
(-12.088 43.1306 -0.0924968 48.4801 -0.246796 16.3993)
(-20.6301 42.3025 -0.133572 -47.5804 0.0182394 -26.8294)
(-4.81875 16.2504 -0.07912 -112.275 0.350342 -47.9567)
(-23.8 16.1469 0.00711191 99.1071 -0.666054 36.2076)
(-22.6073 35.9154 -0.166307 34.3666 -0.260628 7.91332)
(-16.4989 36.2573 -0.214246 -33.2726 0.118415 -19.167)
(-15.2381 16.6656 -0.109951 -99.636 0.541045 -47.9641)
(-28.2864 12.8163 -0.00774155 72.0737 -0.706212 26.3474)
(-22.9717 29.8823 -0.20146 25.9973 -0.248709 5.84573)
(-16.6253 30.4921 -0.245117 -24.1972 0.19894 -15.4607)
(-11.749 13.9476 -0.117394 -70.6593 0.673269 -36.2138)
(-27.9247 9.93242 -0.0167688 51.0427 -0.697504 20.8768)
(-22.4262 24.1266 -0.215969 18.342 -0.223339 4.42995)
(-16.0741 25.0686 -0.253016 -16.4624 0.250411 -12.0869)
(-11.4487 11.8118 -0.112793 -48.041 0.745268 -28.4004)
(-27.7765 6.70104 -0.0338018 33.4822 -0.648171 16.6008)
(-21.6149 18.7015 -0.24358 11.7634 -0.1931 3.52854)
(-15.4398 20.1614 -0.271831 -10.5472 0.260192 -9.32351)
(-10.5585 9.82149 -0.111942 -29.2291 0.744829 -21.7168)
(-26.332 3.05924 -0.0823819 23.2666 -0.546825 15.4537)
(-22.8302 13.8013 -0.335144 5.47071 -0.156348 1.87762)
(-15.2024 15.4943 -0.357103 -6.36182 0.212859 -7.09525)
(-8.6288 7.78595 -0.14213 -14.6343 0.642316 -15.7278)
(-36.292 2.58134 -0.22547 10.5121 -0.299002 7.84888)
(-35.3873 9.12818 -0.57136 -2.86071 -0.076054 -5.32518)
(-13.997 9.03331 -0.611257 -1.84381 0.094722 -3.70376)
(-4.06581 4.41996 -0.301417 -5.11144 0.331527 -9.31781)
)
;

boundaryField
{
    interface
    {
        type            calculated;
        value           nonuniform List<symmTensor> 
192
(
(-22.8883 -0.0360168 2.1954 280.793 21.0564 82.6836)
(-22.6903 0.0122797 3.77175 125.825 -13.3698 12.974)
(-22.6793 -0.0492711 4.44943 128.14 -8.51265 30.2232)
(-22.5613 -0.231919 4.73008 92.2753 -9.91954 24.7894)
(-22.5598 -0.56172 4.80156 65.8024 -8.66505 23.1724)
(-22.6523 -1.08762 4.71019 43.2525 -7.38113 20.6615)
(-22.7954 -2.00105 4.42945 30.7271 -6.06121 20.6697)
(-22.0429 -3.45718 3.81911 22.5947 -3.39862 22.0051)
(-25.2173 0.103087 1.47902 277.123 10.223 87.5843)
(-25.248 0.184279 2.58435 139.758 -9.82494 24.7436)
(-25.7099 0.108035 3.054 126.253 -13.2656 29.7597)
(-25.9642 -0.155151 3.23488 91.7041 -14.0992 26.2694)
(-26.0678 -0.597498 3.25502 63.7458 -13.0835 24.2811)
(-25.9868 -1.27873 3.14716 41.4994 -11.2689 22.6866)
(-25.5017 -2.42598 2.8977 29.318 -8.87436 23.489)
(-23.0295 -4.09307 2.45443 22.6538 -4.95375 26.1268)
(-26.5843 0.125183 0.99732 276.604 2.66126 92.6862)
(-26.4767 0.212173 1.75756 137.784 -7.72555 32.1836)
(-26.9632 0.12982 2.05694 126.024 -11.067 33.1632)
(-27.2381 -0.168335 2.15152 91.4608 -12.2026 26.6674)
(-27.2919 -0.673102 2.14045 63.2057 -11.722 22.6079)
(-27.0381 -1.44694 2.04884 40.9411 -10.324 19.9531)
(-26.158 -2.71832 1.87675 29.2004 -8.19773 20.4319)
(-22.8708 -4.44487 1.60914 22.381 -4.33634 22.3391)
(-27.4989 0.116182 0.693474 274.438 -1.19699 95.5759)
(-27.2806 0.196102 1.23724 135.946 -6.32568 38.5408)
(-27.7186 0.105837 1.44324 126.083 -8.58537 38.3592)
(-27.9509 -0.212461 1.49749 92.317 -9.51215 30.0589)
(-27.9347 -0.754807 1.47856 64.3023 -9.33507 24.3648)
(-27.5463 -1.58463 1.40858 42.1379 -8.41358 20.5808)
(-26.4157 -2.92724 1.29392 30.6223 -6.84591 20.4061)
(-22.6559 -4.67287 1.12461 23.7919 -3.73985 21.8647)
(-28.1215 0.103525 0.479748 271.447 -2.58517 96.5315)
(-27.8398 0.172152 0.866766 134.506 -5.038 42.4064)
(-28.2328 0.072021 1.01214 125.969 -6.42794 42.139)
(-28.4185 -0.260201 1.04635 93.041 -7.0377 33.0929)
(-28.3426 -0.826191 1.02922 65.4112 -6.97028 26.4776)
(-27.8574 -1.69075 0.979465 43.3837 -6.39729 21.9467)
(-26.5623 -3.07811 0.904347 31.9831 -5.32349 21.3189)
(-22.4878 -4.83214 0.793604 25.0544 -2.94697 22.3712)
(-28.5375 0.0933234 0.315841 268.612 -2.56177 96.5641)
(-28.222 0.151488 0.576366 133.434 -3.68582 44.5451)
(-28.5828 0.042067 0.674837 125.812 -4.49211 44.5111)
(-28.7319 -0.300253 0.696864 93.5477 -4.85309 35.2465)
(-28.6122 -0.881306 0.68447 66.2482 -4.82236 28.2135)
(-28.0611 -1.76759 0.6517 44.3436 -4.48054 23.3053)
(-26.6586 -3.18379 0.60419 33.011 -3.78924 22.449)
(-22.3735 -4.9422 0.53304 26.0812 -2.1245 23.3326)
(-28.7958 0.0869298 0.178693 266.49 -1.77805 96.2994)
(-28.464 0.137534 0.328446 132.702 -2.2493 45.6024)
(-28.8064 0.02101 0.385442 125.662 -2.66605 45.8084)
(-28.9311 -0.328153 0.397875 93.8438 -2.85331 36.5279)
(-28.7831 -0.91836 0.390642 66.768 -2.83845 29.3396)
(-28.1912 -1.81789 0.372106 44.9453 -2.65673 24.2733)
(-26.7228 -3.25189 0.344417 33.6497 -2.2701 23.323)
(-22.3076 -5.01056 0.302093 26.7375 -1.28685 24.143)
(-28.913 0.0831019 0.0572239 265.373 -0.628571 96.094)
(-28.5721 0.129725 0.105638 132.332 -0.756083 46.0286)
(-28.9049 0.0097458 0.124084 125.577 -0.884786 46.3719)
(-29.0163 -0.34247 0.128021 93.9834 -0.942658 37.1167)
(-28.8548 -0.936872 0.12567 67.0184 -0.93818 29.8846)
(-28.2447 -1.84401 0.119687 45.2344 -0.88124 24.7663)
(-26.7362 -3.28798 0.110029 33.9573 -0.757343 23.792)
(-22.2473 -5.03837 0.0949904 27.0646 -0.433998 24.6042)
(18.6228 46.1027 -2.80649 174.405 -0.685403 -10.9204)
(-61.2298 21.7486 -4.94479 65.8645 -0.998482 -7.4535)
(-45.1928 26.3527 -5.91572 77.6831 -0.982736 -4.65619)
(-46.8902 22.4856 -6.39021 52.8512 -0.842484 -2.8998)
(-43.7174 19.2004 -6.64613 35.7077 -0.774343 -2.08184)
(-42.368 14.7333 -6.82198 19.7859 -0.857621 -1.98326)
(-41.674 9.82093 -7.09201 9.77058 -1.11471 -2.45462)
(-48.3087 6.04892 -7.90099 0.229659 -1.45199 -3.4286)
(-9.14217 39.2214 -1.77558 31.901 -0.562177 -9.92815)
(-35.1933 52.4065 -3.35588 19.3808 -0.963087 -8.51701)
(-37.2737 52.2215 -3.96555 20.9679 -1.03561 -6.8361)
(-37.496 46.827 -4.18314 13.5621 -0.845489 -5.66342)
(-36.1154 39.8911 -4.26838 7.44313 -0.620839 -5.08619)
(-34.9171 31.9403 -4.36098 1.48593 -0.48419 -4.99403)
(-34.6099 23.7658 -4.64943 -2.91031 -0.479116 -5.24695)
(-41.0391 14.1899 -5.7342 -6.57257 -0.534116 -5.53184)
(-19.7452 35.4695 -1.34794 -57.4288 -0.401078 -9.38729)
(-4.28953 50.8389 -2.79791 -32.4867 -0.825285 -8.94834)
(-7.49831 52.1758 -3.39346 -30.0888 -0.979979 -7.86974)
(-8.98937 47.2762 -3.57819 -22.3762 -0.82918 -7.02649)
(-10.4202 40.678 -3.61566 -17.1297 -0.578367 -6.60099)
(-11.0449 33.1439 -3.6704 -13.0555 -0.363823 -6.5339)
(-11.283 25.0117 -3.94329 -10.273 -0.238899 -6.73735)
(-8.73558 14.0634 -5.03196 -5.90567 -0.188075 -6.98851)
(-45.1709 36.5841 -1.24353 -189.511 -0.378412 -8.60545)
(22.864 20.7496 -2.79785 -79.843 -0.836054 -8.56519)
(6.23502 26.601 -3.50147 -84.7825 -1.01578 -7.63674)
(6.5356 23.456 -3.73715 -58.8226 -0.878396 -6.91359)
(3.11856 20.6363 -3.78328 -41.4099 -0.620172 -6.55155)
(1.62549 16.9315 -3.83229 -26.3843 -0.375582 -6.47382)
(1.34241 12.7577 -4.09321 -16.3084 -0.164059 -6.56961)
(5.6609 6.7794 -5.12641 -7.63433 0.0586381 -6.79121)
(-6.80108 0.383579 0.066944 -279.413 -25.9032 -92.7453)
(-5.7894 0.754545 0.308652 -136.128 8.85813 -23.0442)
(-4.71858 0.859528 0.335496 -128.001 5.7366 -31.4724)
(-4.19155 0.716713 0.290361 -88.9213 8.09774 -22.1971)
(-3.99101 0.525036 0.301576 -60.6404 7.8859 -18.4376)
(-3.75251 0.392226 0.436628 -37.283 7.44634 -15.3074)
(-2.95894 0.224579 0.74474 -21.7956 6.32261 -14.3074)
(-0.191349 -0.752393 1.24075 -12.6494 2.88169 -14.5958)
(-8.15845 0.162291 -0.352198 -272.627 -15.0259 -97.2871)
(-8.15019 0.393236 -0.436498 -152.308 5.10015 -36.8167)
(-7.86626 0.499439 -0.497813 -129.644 10.0927 -34.0897)
(-7.73111 0.470262 -0.545776 -92.0666 12.4731 -26.9241)
(-7.70556 0.431429 -0.515131 -62.2938 12.9091 -22.9522)
(-7.56109 0.47605 -0.375529 -38.5186 12.2268 -20.3945)
(-6.70996 0.532793 -0.11714 -21.9829 10.3096 -19.2791)
(-3.41418 -0.270515 0.262856 -13.1548 5.70262 -19.6305)
(-9.11072 0.0593836 -0.375228 -272.076 -6.33576 -103.843)
(-9.37155 0.20078 -0.467386 -151.941 4.38229 -47.9507)
(-9.37327 0.30379 -0.470017 -130.837 8.71388 -42.5073)
(-9.41086 0.36249 -0.455674 -93.4986 11.0997 -32.8972)
(-9.39961 0.453133 -0.386857 -63.2853 11.8927 -26.7745)
(-9.09939 0.634515 -0.243878 -38.9447 11.5136 -22.4752)
(-7.96263 0.801187 -0.0440586 -21.6246 9.90198 -19.7352)
(-4.70059 0.142594 0.177004 -11.9276 5.36815 -17.7102)
(-9.80676 0.01809 -0.302875 -269.169 -1.58614 -107.21)
(-10.1389 0.114272 -0.364026 -150.699 3.97874 -55.8533)
(-10.2473 0.217449 -0.327024 -130.703 7.00125 -49.617)
(-10.3429 0.336021 -0.276268 -93.9819 8.86092 -38.4502)
(-10.2998 0.518052 -0.196016 -63.796 9.66234 -30.5589)
(-9.88354 0.79163 -0.0772751 -39.1808 9.52695 -24.6341)
(-8.58049 1.03184 0.0580933 -21.2439 8.31873 -20.2949)
(-5.24819 0.457636 0.197734 -11.1928 4.55668 -16.6041)
(-10.3053 0.00414594 -0.216429 -265.222 0.563716 -108.348)
(-10.6511 0.083829 -0.248451 -149.371 3.3942 -60.6023)
(-10.7916 0.193726 -0.197953 -130.015 5.39598 -54.3207)
(-10.8936 0.352816 -0.137842 -93.8586 6.69178 -42.4793)
(-10.8059 0.593602 -0.0646511 -63.8474 7.3229 -33.5346)
(-10.2883 0.92242 0.0226809 -39.103 7.28974 -26.4604)
(-8.89379 1.20358 0.107548 -20.787 6.41957 -20.9528)
(-5.54967 0.679182 0.185657 -10.577 3.5256 -16.1425)
(-10.6399 0.00224375 -0.139262 -261.514 1.20069 -108.439)
(-10.9804 0.0797569 -0.151694 -148.168 2.58974 -63.2683)
(-11.1222 0.198737 -0.105463 -129.224 3.84777 -57.1576)
(-11.2117 0.383576 -0.0537051 -93.5107 4.68315 -45.0815)
(-11.0823 0.657833 0.00180635 -63.6686 5.11215 -35.588)
(-10.5112 1.01684 0.0592666 -38.8982 5.10512 -27.842)
(-9.05709 1.31847 0.108821 -20.3715 4.51242 -21.6008)
(-5.74552 0.8257 0.149868 -10.1632 2.48479 -16.1903)
(-10.844 0.00399983 -0.0764003 -258.757 0.997574 -108.195)
(-11.1759 0.0841024 -0.0795351 -147.26 1.61897 -64.6532)
(-11.312 0.210798 -0.0486011 -128.58 2.31129 -58.7214)
(-11.3883 0.410432 -0.0149731 -93.1758 2.77735 -46.5936)
(-11.2332 0.702698 0.018617 -63.4629 3.02148 -36.8438)
(-10.6257 1.07722 0.0512109 -38.6964 3.01789 -28.7394)
(-9.13299 1.38946 0.077251 -20.0624 2.66935 -22.0881)
(-5.82681 0.912131 0.0964527 -9.87686 1.4698 -16.3636)
(-10.9391 0.00545622 -0.0241608 -257.306 0.374854 -107.992)
(-11.2655 0.0876453 -0.0245303 -146.773 0.550278 -65.2357)
(-11.3978 0.218587 -0.0138782 -128.224 0.771281 -59.4077)
(-11.4653 0.424993 -0.0023905 -92.9786 0.921001 -47.2791)
(-11.2995 0.725121 0.00870173 -63.3361 0.99988 -37.4315)
(-10.6753 1.1067 0.0192029 -38.5793 0.998209 -29.1762)
(-9.16362 1.42205 0.0275017 -19.9025 0.882612 -22.3456)
(-5.86075 0.950603 0.0323142 -9.73839 0.485577 -16.4948)
(-50.6138 8.15708 -2.9707 -3.42426 -1.65943 -2.46294)
(-45.2448 7.42565 -1.20903 -2.0481 -1.27429 2.03055)
(-45.412 7.2424 -1.74542 -0.908645 -0.915503 -0.165662)
(-45.5109 7.21693 -1.96067 0.00359844 -0.660047 -0.480903)
(-45.989 7.23903 -1.88584 0.691637 -0.473495 -0.457629)
(-46.3776 7.27327 -1.50748 1.18615 -0.325202 -0.0746825)
(-46.6467 7.30375 -0.965112 1.49705 -0.199131 0.302356)
(-46.8043 7.31966 -0.332669 1.59472 -0.070091 0.493707)
(-43.7445 5.89949 -5.94305 -5.01799 -0.37905 -9.92084)
(-39.169 4.76426 -5.74079 -4.3684 -0.261726 -8.9478)
(-39.1865 4.40363 -5.52025 -3.58377 -0.125819 -8.5476)
(-40.0263 4.26584 -5.23748 -2.91081 -0.0563988 -7.96002)
(-40.9163 4.20732 -4.55608 -2.40695 -0.0273983 -7.61411)
(-41.5741 4.18314 -3.48772 -2.03991 -0.0143879 -7.34712)
(-41.9859 4.17739 -2.17524 -1.7981 -0.00752914 -7.16522)
(-42.167 4.18344 -0.738057 -1.66211 -0.00230754 -7.06199)
(-7.96161 5.08869 -5.95799 -6.19872 0.229766 -6.17022)
(-10.3573 3.84663 -7.07534 -5.67867 0.217413 -7.87809)
(-11.8997 3.39859 -6.83514 -5.07769 0.225979 -6.49485)
(-13.3584 3.19678 -6.15751 -4.56824 0.203431 -5.36566)
(-14.4429 3.09165 -5.14125 -4.18373 0.162128 -4.73066)
(-15.1665 3.03286 -3.84169 -3.90704 0.116311 -4.46658)
(-15.5997 3.00034 -2.36426 -3.72737 0.0710638 -4.39098)
(-15.7977 2.98407 -0.797399 -3.6308 0.0244985 -4.37963)
(6.123 5.04859 -3.80975 -5.99437 0.644452 -8.73905)
(1.82361 3.8108 -4.25289 -5.64537 0.451197 -12.4393)
(0.387791 3.33223 -4.10956 -5.30579 0.36 -9.84455)
(-0.828909 3.10054 -3.55446 -4.97821 0.295288 -8.33032)
(-1.58033 2.97071 -2.89005 -4.71372 0.229582 -7.54887)
(-2.08596 2.89431 -2.11919 -4.51485 0.162868 -7.369)
(-2.39037 2.8485 -1.28995 -4.39055 0.0961395 -7.43102)
(-2.53808 2.82354 -0.433377 -4.33797 0.0314939 -7.51972)
)
;
    }
    symmetry
    {
        type            symmetryPlane;
    }
    bottom
    {
        type            calculated;
        value           nonuniform List<symmTensor> 
32
(
(139.248 58.4764 0 208.872 55.3983 139.248)
(138.023 61.7706 0 207.034 24.9878 138.023)
(139.897 62.6062 0 209.845 9.80815 139.897)
(140.163 62.0704 0 210.244 2.52914 140.163)
(139.447 61.1902 0 209.171 -0.565073 139.447)
(138.51 60.3852 0 207.766 -1.45974 138.51)
(137.732 59.8107 0 206.598 -1.22486 137.732)
(137.303 59.5152 0 205.955 -0.459766 137.303)
(24.0438 29.209 0 36.0657 17.5317 24.0438)
(26.48 32.4117 0 39.7199 8.48458 26.48)
(28.3529 31.3564 0 42.5294 3.30153 28.3529)
(28.9921 29.6992 0 43.4882 0.716688 28.9921)
(29.1908 28.2518 0 43.7862 -0.372149 29.1908)
(29.2334 27.183 0 43.8501 -0.652292 29.2334)
(29.2276 26.4966 0 43.8414 -0.517777 29.2276)
(29.2166 26.1631 0 43.825 -0.191058 29.2166)
(-38.0846 25.6481 0 -57.1269 -17.3452 -38.0846)
(-35.4159 28.7602 0 -53.1239 -9.45395 -35.4159)
(-35.4903 27.1795 0 -53.2354 -4.98739 -35.4903)
(-35.2665 25.1006 0 -52.8997 -2.46422 -35.2665)
(-34.8657 23.3682 0 -52.2985 -1.08725 -34.8657)
(-34.4426 22.1137 0 -51.6639 -0.394441 -34.4426)
(-34.1068 21.3142 0 -51.1602 -0.099529 -34.1068)
(-33.9238 20.9272 0 -50.8857 -0.0117638 -33.9238)
(-141.573 46.7497 0 -212.36 -56.609 -141.573)
(-136.318 48.7989 0 -204.477 -27.7685 -136.318)
(-137.531 47.9146 0 -206.297 -12.626 -137.531)
(-136.896 46.1245 0 -205.345 -4.8475 -136.896)
(-135.331 44.3751 0 -202.996 -1.13931 -135.331)
(-133.685 42.985 0 -200.527 0.327163 -133.685)
(-132.408 42.0456 0 -198.612 0.586544 -132.408)
(-131.724 41.5758 0 -197.586 0.254586 -131.724)
)
;
    }
}


// ************************************************************************* //
