/*--------------------------------*- C++ -*----------------------------------*\
| =========                 |                                                 |
| \\      /  F ield         | foam-extend: Open Source CFD                    |
|  \\    /   O peration     | Version:     3.1                                |
|   \\  /    A nd           | Web:         http://www.extend-project.de       |
|    \\/     M anipulation  |                                                 |
\*---------------------------------------------------------------------------*/
FoamFile
{
    version     2.0;
    format      ascii;
    class       volVectorField;
    location    "2";
    object      U;
}
// * * * * * * * * * * * * * * * * * * * * * * * * * * * * * * * * * * * * * //

dimensions      [0 1 -1 0 0 0 0];

internalField   nonuniform List<vector> 
256
(
(0.000109016 0.000106467 0.000222886)
(1.82977e-05 2.39928e-05 6.39571e-05)
(1.92382e-05 -3.60646e-05 -8.63047e-05)
(0.000114502 -0.000128098 -0.000259621)
(0.000536749 0.000432709 0.000304169)
(0.000451917 0.000111198 0.000105786)
(0.000450707 -0.000166451 -0.000122983)
(0.000530062 -0.000503141 -0.000322929)
(0.0011502 0.000659943 0.000342946)
(0.00107467 0.000170242 0.000118782)
(0.00107021 -0.000278598 -0.000114559)
(0.00113252 -0.0007831 -0.000340633)
(0.00191514 0.00082102 0.000341592)
(0.001857 0.000201617 0.000122549)
(0.00184887 -0.000378477 -9.87238e-05)
(0.00188569 -0.00101055 -0.000319251)
(0.00276822 0.000910445 0.000324181)
(0.00272487 0.000207205 0.000119354)
(0.0027135 -0.000461714 -8.13142e-05)
(0.00272938 -0.00117466 -0.00028717)
(0.00365058 0.00094184 0.000302707)
(0.00361963 0.000193481 0.000113544)
(0.00360541 -0.000528537 -6.71789e-05)
(0.00360433 -0.00128403 -0.000257094)
(0.00451427 0.000930288 0.000285407)
(0.00449246 0.000167374 0.000108525)
(0.00447553 -0.000579052 -5.75332e-05)
(0.00446097 -0.00134809 -0.000235986)
(0.00532617 0.000895456 0.00027748)
(0.00530984 0.000135496 0.000106408)
(0.00529074 -0.000614992 -5.03051e-05)
(0.00526632 -0.00138222 -0.000224453)
(0.00015577 0.000100369 0.000138875)
(7.74267e-05 1.97432e-05 4.06033e-05)
(8.04255e-05 -3.19521e-05 -5.57313e-05)
(0.000166551 -0.000119073 -0.000164673)
(0.000675567 0.000415445 0.000216354)
(0.000573706 9.85156e-05 7.44333e-05)
(0.000576898 -0.000162887 -8.6809e-05)
(0.000682283 -0.000495478 -0.000231779)
(0.00133056 0.00065169 0.00026236)
(0.00125114 0.000158564 9.11762e-05)
(0.00125041 -0.00028595 -8.79948e-05)
(0.00132401 -0.000793929 -0.000262212)
(0.00211632 0.000816597 0.000278264)
(0.00205564 0.000191338 9.96215e-05)
(0.00205069 -0.000390397 -8.05196e-05)
(0.00209678 -0.00102866 -0.000261915)
(0.00297555 0.000909704 0.000278793)
(0.0029315 0.00019903 0.000102076)
(0.00292272 -0.00047577 -7.09011e-05)
(0.00294494 -0.0011966 -0.000249891)
(0.00385754 0.000943635 0.000273346)
(0.00382648 0.00018722 0.000101523)
(0.00381427 -0.000543173 -6.26926e-05)
(0.00381771 -0.00130735 -0.000236558)
(0.00472029 0.000934768 0.000267929)
(0.00469804 0.00016291 0.00010059)
(0.0046827 -0.000594618 -5.6597e-05)
(0.00467223 -0.00137353 -0.00022636)
(0.0055357 0.000903801 0.000264829)
(0.00551815 0.000133242 0.000101014)
(0.00550026 -0.000633176 -5.04091e-05)
(0.00548004 -0.0014125 -0.000217356)
(0.000183208 0.000108417 9.23786e-05)
(0.000102104 2.06794e-05 2.739e-05)
(0.000106328 -3.34845e-05 -3.78505e-05)
(0.00019775 -0.000127953 -0.000109982)
(0.000764793 0.000421961 0.000153903)
(0.00065339 9.57656e-05 5.26779e-05)
(0.000659526 -0.000165003 -6.14898e-05)
(0.000779848 -0.000507764 -0.000165751)
(0.00146212 0.000654965 0.000196852)
(0.00137632 0.000153865 6.82822e-05)
(0.00137845 -0.000292036 -6.6652e-05)
(0.00146363 -0.000808579 -0.000198524)
(0.00227519 0.000816342 0.000219959)
(0.00221176 0.000184866 7.82794e-05)
(0.00220921 -0.000399361 -6.49935e-05)
(0.00226245 -0.00104413 -0.000209866)
(0.00315081 0.00090777 0.000231471)
(0.00310658 0.000191677 8.39443e-05)
(0.00309974 -0.000487007 -6.10739e-05)
(0.0031258 -0.00121351 -0.000211442)
(0.00404225 0.00094185 0.000236863)
(0.00401263 0.000179725 8.69655e-05)
(0.00400203 -0.000556468 -5.71815e-05)
(0.00400713 -0.00132676 -0.000209694)
(0.00491171 0.000935103 0.000239807)
(0.00489151 0.000155933 8.9024e-05)
(0.00487744 -0.000610282 -5.35613e-05)
(0.00486742 -0.0013972 -0.00020706)
(0.00573468 0.000907657 0.000240675)
(0.00571945 0.00012722 9.11724e-05)
(0.00570257 -0.000651611 -4.81383e-05)
(0.00568207 -0.00144173 -0.000200637)
(0.00020052 0.000115105 6.33302e-05)
(0.000115056 2.17626e-05 1.88811e-05)
(0.000119947 -3.49924e-05 -2.62121e-05)
(0.000217288 -0.000135741 -7.51422e-05)
(0.000825855 0.000433451 0.00011011)
(0.00070757 9.62838e-05 3.7445e-05)
(0.000715396 -0.000168552 -4.40984e-05)
(0.000845677 -0.00052322 -0.00011918)
(0.00155873 0.000664104 0.00014617)
(0.00146829 0.000152816 5.03483e-05)
(0.0014722 -0.000298084 -5.02775e-05)
(0.00156515 -0.000825266 -0.000148934)
(0.00239935 0.000821603 0.000169809)
(0.00233366 0.00018168 5.98314e-05)
(0.00233264 -0.00040753 -5.16095e-05)
(0.00239085 -0.00106093 -0.000164451)
(0.00329482 0.000909855 0.000185606)
(0.00325023 0.000186664 6.64847e-05)
(0.00324462 -0.000497151 -5.09553e-05)
(0.00327324 -0.00123088 -0.000172738)
(0.00420017 0.000942485 0.000196275)
(0.0041715 0.00017357 7.11576e-05)
(0.00416184 -0.000568673 -4.96597e-05)
(0.00416768 -0.00134594 -0.000177245)
(0.00508003 0.000936266 0.000203606)
(0.00506144 0.000149396 7.4743e-05)
(0.00504805 -0.000624716 -4.7641e-05)
(0.00503762 -0.00141957 -0.000178922)
(0.00591226 0.000910772 0.000206751)
(0.00589907 0.000120875 7.76377e-05)
(0.00588262 -0.000668213 -4.31316e-05)
(0.0058607 -0.0014679 -0.000174765)
(0.000212147 0.000120038 4.34451e-05)
(0.000123067 2.26094e-05 1.29482e-05)
(0.000128344 -3.61797e-05 -1.80544e-05)
(0.000230309 -0.000141531 -5.12566e-05)
(0.000868742 0.000444423 7.76613e-05)
(0.000745336 9.76567e-05 2.61934e-05)
(0.000754128 -0.000172021 -3.13266e-05)
(0.000891355 -0.000537002 -8.4541e-05)
(0.00162958 0.000674822 0.000105773)
(0.00153581 0.000153401 3.6081e-05)
(0.00154076 -0.000303705 -3.70695e-05)
(0.00163884 -0.000841397 -0.000108934)
(0.00249414 0.000829707 0.00012632)
(0.00242678 0.000180576 4.40012e-05)
(0.00242665 -0.0004149 -3.9492e-05)
(0.00248813 -0.00107767 -0.000124072)
(0.00340852 0.000915034 0.00014188)
(0.00336361 0.000183789 5.02071e-05)
(0.0033587 -0.000506156 -4.03428e-05)
(0.00338891 -0.00124803 -0.000134175)
(0.00432828 0.000945714 0.000153626)
(0.00430019 0.000169335 5.50674e-05)
(0.00429105 -0.000579359 -4.0357e-05)
(0.00429727 -0.00136416 -0.000140933)
(0.00521922 0.00093901 0.000162145)
(0.00520167 0.000144421 5.89567e-05)
(0.00518858 -0.000637122 -3.93016e-05)
(0.00517759 -0.00143971 -0.000144409)
(0.00606073 0.000914303 0.000165985)
(0.00604876 0.000115704 6.18282e-05)
(0.00603236 -0.00068218 -3.57543e-05)
(0.00600907 -0.00149031 -0.000141869)
(0.000220018 0.000123514 2.85229e-05)
(0.000128306 2.32131e-05 8.47535e-06)
(0.000133819 -3.70519e-05 -1.18691e-05)
(0.000239066 -0.000145615 -3.34768e-05)
(0.000898377 0.00045325 5.18717e-05)
(0.000771319 9.90255e-05 1.73487e-05)
(0.000780669 -0.000174885 -2.11058e-05)
(0.000922644 -0.000547812 -5.67839e-05)
(0.0016798 0.000684431 7.18635e-05)
(0.00158368 0.000154488 2.42748e-05)
(0.00158921 -0.00030837 -2.56292e-05)
(0.00169068 -0.000854873 -7.47191e-05)
(0.00256302 0.000837919 8.7438e-05)
(0.00249446 0.00018054 3.01382e-05)
(0.00249483 -0.000420979 -2.79941e-05)
(0.00255838 -0.00109213 -8.68879e-05)
(0.00349296 0.000921131 0.000100034)
(0.00344777 0.000182395 3.50378e-05)
(0.00344324 -0.000513499 -2.92329e-05)
(0.00347439 -0.00126293 -9.57813e-05)
(0.00442508 0.000950084 0.000110065)
(0.00439731 0.000166782 3.91019e-05)
(0.00438841 -0.000587932 -2.97192e-05)
(0.0043947 -0.00137969 -0.000102152)
(0.00532577 0.000942585 0.000117535)
(0.00530881 0.00014114 4.24307e-05)
(0.00529582 -0.000646901 -2.91966e-05)
(0.00528433 -0.00145629 -0.000105688)
(0.00617529 0.000918056 0.000120948)
(0.00616396 0.000112143 4.47808e-05)
(0.00614744 -0.000693021 -2.66133e-05)
(0.00612304 -0.00150819 -0.00010418)
(0.000224967 0.000125743 1.62571e-05)
(0.000131556 2.35996e-05 4.81525e-06)
(0.00013721 -3.76263e-05 -6.76735e-06)
(0.00024455 -0.000148229 -1.90108e-05)
(0.000917187 0.000459337 2.9854e-05)
(0.000787782 0.000100051 9.91828e-06)
(0.000797448 -0.000176901 -1.22358e-05)
(0.000942412 -0.000555181 -3.2824e-05)
(0.00171215 0.000691458 4.17911e-05)
(0.0016145 0.000155465 1.40089e-05)
(0.00162035 -0.000311681 -1.51001e-05)
(0.00172392 -0.000864421 -4.37556e-05)
(0.00260804 0.000844323 5.14339e-05)
(0.0025387 0.000180863 1.75898e-05)
(0.00253933 -0.000425296 -1.67452e-05)
(0.00260411 -0.00110263 -5.15279e-05)
(0.00354887 0.000926238 5.95138e-05)
(0.00350347 0.000181836 2.06945e-05)
(0.00349914 -0.000518682 -1.77142e-05)
(0.00353081 -0.00127382 -5.74621e-05)
(0.0044899 0.00095398 6.61321e-05)
(0.00446229 0.000165415 2.33528e-05)
(0.00445351 -0.000593922 -1.81749e-05)
(0.00445981 -0.00139095 -6.1848e-05)
(0.00539773 0.000945798 7.11323e-05)
(0.0053811 0.00013922 2.5561e-05)
(0.00536818 -0.000653673 -1.79356e-05)
(0.00535642 -0.00146816 -6.43588e-05)
(0.00625311 0.000921218 7.34259e-05)
(0.00624213 0.000109951 2.7087e-05)
(0.0062256 -0.00070051 -1.63417e-05)
(0.00620079 -0.00152092 -6.35301e-05)
(0.000227368 0.000126835 5.28947e-06)
(0.000133124 2.37882e-05 1.56371e-06)
(0.000138845 -3.79117e-05 -2.20198e-06)
(0.000247204 -0.000149508 -6.17393e-06)
(0.00092635 0.00046243 9.75562e-06)
(0.000795798 0.00010059 3.22927e-06)
(0.000805612 -0.000177938 -4.01457e-06)
(0.000952025 -0.000558905 -1.07512e-05)
(0.00172804 0.000695135 1.37233e-05)
(0.00162963 0.000156019 4.58125e-06)
(0.00163562 -0.000313394 -4.99267e-06)
(0.0017402 -0.000869346 -1.44203e-05)
(0.00263031 0.000847783 1.69819e-05)
(0.00256058 0.000181121 5.78377e-06)
(0.00256133 -0.000427533 -5.57603e-06)
(0.00262672 -0.00110812 -1.70831e-05)
(0.00357672 0.000929096 1.97559e-05)
(0.00353122 0.000181666 6.84416e-06)
(0.00352696 -0.000521359 -5.93421e-06)
(0.00355888 -0.00127955 -1.91545e-05)
(0.00452238 0.000956229 2.20564e-05)
(0.00449485 0.000164835 7.76511e-06)
(0.00448612 -0.000597002 -6.11418e-06)
(0.00449242 -0.00139686 -2.07064e-05)
(0.00543398 0.000947673 2.38063e-05)
(0.0054175 0.000138342 8.53551e-06)
(0.00540462 -0.000657147 -6.04493e-06)
(0.00539276 -0.00147436 -2.16055e-05)
(0.00629246 0.000923035 2.46103e-05)
(0.00628164 0.000108903 9.06377e-06)
(0.00626518 -0.000704371 -5.50239e-06)
(0.00624032 -0.00152762 -2.1336e-05)
)
;

boundaryField
{
    interface
    {
        type            calculated;
        value           nonuniform List<vector> 
192
(
(0.000284541 0.000305595 0.000255583)
(0.000615635 0.000657963 0.000385904)
(0.00123111 0.000985599 0.000446376)
(0.00197084 0.00120444 0.000451964)
(0.00280456 0.00132756 0.00043526)
(0.00366941 0.00136554 0.000411659)
(0.00452028 0.0013412 0.00039242)
(0.00533034 0.00128075 0.000383769)
(0.000332968 0.000349778 0.000160819)
(0.00076725 0.000670108 0.000274122)
(0.00140923 0.00098966 0.000340942)
(0.00216977 0.00120536 0.000367824)
(0.00300802 0.00132727 0.000373902)
(0.00387249 0.00136637 0.000370779)
(0.00472308 0.00134534 0.000366943)
(0.00553784 0.00129064 0.000365909)
(0.000378392 0.000391673 0.000107555)
(0.000862329 0.000699821 0.000194396)
(0.00154495 0.00100741 0.000255048)
(0.00233011 0.00121399 0.000291014)
(0.00318263 0.00133007 0.000310863)
(0.00405537 0.00136742 0.000321663)
(0.00491218 0.00134828 0.000328557)
(0.00573427 0.00129814 0.000332843)
(0.00041005 0.000422092 7.38729e-05)
(0.000928502 0.000728375 0.000138904)
(0.00164522 0.00103075 0.000189172)
(0.00245573 0.0012293 0.000224674)
(0.00332638 0.00133907 0.000249403)
(0.00421189 0.00137294 0.000266647)
(0.00507852 0.00135342 0.000279003)
(0.00590959 0.00130533 0.000286213)
(0.000432059 0.000443743 5.07703e-05)
(0.000975421 0.000752119 9.80258e-05)
(0.0017189 0.00105333 0.00013697)
(0.00255169 0.00124685 0.000167262)
(0.00344 0.00135145 0.00019077)
(0.00433903 0.00138163 0.000208762)
(0.00521629 0.00136056 0.000222215)
(0.00605653 0.00131288 0.000230004)
(0.000447114 0.000458769 3.33891e-05)
(0.00100796 0.000770123 6.55626e-05)
(0.00177116 0.00107196 9.31686e-05)
(0.00262141 0.00126275 0.000115892)
(0.0035244 0.00136377 0.000134583)
(0.00443519 0.0013909 0.000149594)
(0.00532189 0.0013681 0.000161092)
(0.00617016 0.00132013 0.000167748)
(0.000456603 0.00046833 1.90536e-05)
(0.00102864 0.000782166 3.77826e-05)
(0.00180483 0.00108504 5.42396e-05)
(0.00266698 0.00127449 6.82292e-05)
(0.00358029 0.00137334 8.0106e-05)
(0.0044996 0.00139842 8.98965e-05)
(0.00539327 0.00137427 9.75018e-05)
(0.00624747 0.00132588 0.000101913)
(0.000461208 0.000472995 6.20303e-06)
(0.00103871 0.000788194 1.23557e-05)
(0.00182137 0.00109175 1.78219e-05)
(0.00268952 0.00128068 2.25381e-05)
(0.00360814 0.00137852 2.65983e-05)
(0.0045319 0.00140257 2.9985e-05)
(0.00542925 0.00137772 3.26322e-05)
(0.00628658 0.00132908 3.41707e-05)
(6.49887e-05 0.00025289 0.000334893)
(0.000434545 0.000454282 0.000331253)
(0.00103265 0.000673869 0.000382242)
(0.0017926 0.000816836 0.000369178)
(0.00264926 0.0009006 0.000344359)
(0.00353709 0.000930732 0.000315445)
(0.00440538 0.000922061 0.000292167)
(0.00521968 0.000889039 0.000282204)
(-4.09742e-05 7.5745e-05 9.36798e-05)
(0.000328561 0.000121658 0.000116387)
(0.00094641 0.000180011 0.000130653)
(0.00173213 0.000205222 0.000132231)
(0.00261022 0.000207744 0.000127472)
(0.00351554 0.000192443 0.000120107)
(0.00439656 0.000166581 0.00011387)
(0.00521888 0.000135087 0.000110591)
(-4.15039e-05 -9.97591e-05 -0.00012203)
(0.000327421 -0.000161098 -0.000129653)
(0.000942423 -0.000269955 -0.000124782)
(0.0017249 -0.000364467 -0.000106533)
(0.00259995 -0.00044896 -8.73302e-05)
(0.00350243 -0.00051855 -7.11177e-05)
(0.0043804 -0.000572199 -5.98726e-05)
(0.00520006 -0.000609021 -5.19076e-05)
(6.61549e-05 -0.000299844 -0.000374893)
(0.000428329 -0.000510493 -0.000344906)
(0.00101495 -0.000780806 -0.000378098)
(0.00176503 -0.000989918 -0.000344411)
(0.0026134 -0.0011526 -0.000304804)
(0.00349437 -0.00126533 -0.000266795)
(0.00435507 -0.00133572 -0.000239594)
(0.00516113 -0.00137147 -0.000226964)
(0.000281246 -0.000362466 -0.000292446)
(0.000597248 -0.000742123 -0.00040733)
(0.00119642 -0.00112615 -0.000449098)
(0.00191979 -0.00140652 -0.00043417)
(0.00274182 -0.00160005 -0.000401935)
(0.00359925 -0.00171139 -0.000368876)
(0.00444408 -0.00175923 -0.000345866)
(0.00524697 -0.00176827 -0.000335281)
(0.000333726 -0.000410059 -0.000187794)
(0.000765601 -0.000767679 -0.000294012)
(0.00138963 -0.00114874 -0.000346143)
(0.00213351 -0.00143001 -0.000356148)
(0.00295841 -0.00162275 -0.000349011)
(0.00381291 -0.00173493 -0.00033765)
(0.00465545 -0.00178642 -0.000329227)
(0.00546064 -0.0018024 -0.000323828)
(0.000382617 -0.000460034 -0.000125914)
(0.00086952 -0.000805182 -0.000209428)
(0.00153494 -0.00117798 -0.000260725)
(0.00230241 -0.00145425 -0.000284628)
(0.00314036 -0.0016442 -0.000294103)
(0.00400214 -0.00175717 -0.000297548)
(0.00484956 -0.00181314 -0.000299011)
(0.00566085 -0.00183599 -0.000297016)
(0.000416802 -0.000496176 -8.62093e-05)
(0.000940885 -0.000838974 -0.00015027)
(0.00164106 -0.00120926 -0.000194942)
(0.00243336 -0.00148111 -0.000222263)
(0.00328851 -0.00166851 -0.000239238)
(0.00416207 -0.00178139 -0.000250176)
(0.00501831 -0.00183973 -0.00025697)
(0.00583729 -0.00186627 -0.000257355)
(0.0004406 -0.000521494 -5.89592e-05)
(0.000990884 -0.000866344 -0.00010653)
(0.00171809 -0.00123761 -0.000142289)
(0.00253233 -0.0015074 -0.000167208)
(0.00340455 -0.00169291 -0.000185145)
(0.00429105 -0.00180516 -0.000198071)
(0.00515693 -0.0018643 -0.000206472)
(0.00598381 -0.00189244 -0.000208127)
(0.000456892 -0.000538789 -3.86129e-05)
(0.00102529 -0.000886815 -7.15693e-05)
(0.00177227 -0.00126037 -9.74831e-05)
(0.00260369 -0.00152966 -0.000116849)
(0.00349021 -0.00171409 -0.000131783)
(0.00438791 -0.00182564 -0.00014312)
(0.00526262 -0.00188483 -0.00015069)
(0.00609638 -0.00191349 -0.000152574)
(0.000467164 -0.00054966 -2.19734e-05)
(0.00104708 -0.000900405 -4.13851e-05)
(0.00180699 -0.00127612 -5.70491e-05)
(0.00265011 -0.00154557 -6.91989e-05)
(0.00354669 -0.00172949 -7.89158e-05)
(0.00445262 -0.00184057 -8.64884e-05)
(0.00533408 -0.00189965 -9.16722e-05)
(0.00617348 -0.00192869 -9.30752e-05)
(0.000472147 -0.000554921 -7.14323e-06)
(0.00105768 -0.000907177 -1.35568e-05)
(0.00182401 -0.00128414 -1.87956e-05)
(0.00267305 -0.00155382 -2.2925e-05)
(0.00357478 -0.00173756 -2.62817e-05)
(0.00448503 -0.00184841 -2.8929e-05)
(0.00537009 -0.00190746 -3.07619e-05)
(0.00621278 -0.00193676 -3.12847e-05)
(0.00570141 0.000875795 0.000271942)
(0.00591538 0.000885971 0.000259776)
(0.00611887 0.000891293 0.000236446)
(0.00630097 0.000895471 0.000202812)
(0.00645359 0.000899509 0.000162372)
(0.00657165 0.000903434 0.000117965)
(0.00665203 0.000906616 7.14582e-05)
(0.00669273 0.000908431 2.3925e-05)
(0.00568245 0.00011959 0.000105109)
(0.00589914 0.000118156 0.000100826)
(0.00610709 0.000112268 9.17046e-05)
(0.00629219 0.000105947 7.82232e-05)
(0.00644654 0.000100675 6.22192e-05)
(0.0065655 9.69935e-05 4.49756e-05)
(0.00664635 9.46739e-05 2.71666e-05)
(0.00668726 9.35409e-05 9.08497e-06)
(0.00566412 -0.000628834 -4.50726e-05)
(0.00588196 -0.000649185 -4.3844e-05)
(0.00609108 -0.00066847 -4.19372e-05)
(0.00627662 -0.000685821 -3.76182e-05)
(0.00643099 -0.000700317 -3.12072e-05)
(0.00654979 -0.00071152 -2.31923e-05)
(0.00663063 -0.000719257 -1.41882e-05)
(0.00667161 -0.000723257 -4.76434e-06)
(0.005644 -0.00139521 -0.000214352)
(0.00586313 -0.00142876 -0.000204668)
(0.00607013 -0.00146003 -0.000188924)
(0.00625328 -0.00148779 -0.000164441)
(0.00640568 -0.00151119 -0.000133258)
(0.00652307 -0.00152962 -9.75776e-05)
(0.00660332 -0.00154274 -5.9298e-05)
(0.0066442 -0.00154966 -1.98681e-05)
)
;
    }
    symmetry
    {
        type            symmetryPlane;
    }
    bottom
    {
        type            calculated;
        value           uniform (0 0 0);
    }
}


// ************************************************************************* //
