/*--------------------------------*- C++ -*----------------------------------*\
| =========                 |                                                 |
| \\      /  F ield         | foam-extend: Open Source CFD                    |
|  \\    /   O peration     | Version:     3.1                                |
|   \\  /    A nd           | Web:         http://www.extend-project.de       |
|    \\/     M anipulation  |                                                 |
\*---------------------------------------------------------------------------*/
FoamFile
{
    version     2.0;
    format      ascii;
    class       volVectorField;
    location    "0.8";
    object      D;
}
// * * * * * * * * * * * * * * * * * * * * * * * * * * * * * * * * * * * * * //

dimensions      [0 1 0 0 0 0 0];

internalField   nonuniform List<vector> 
256
(
(0.000739493 0.000337814 0.000830273)
(0.000315089 1.05168e-05 0.000274363)
(0.00025148 -0.00020068 -0.000263792)
(0.000534854 -0.000580303 -0.000911439)
(0.00290032 0.00155069 0.000917515)
(0.00239127 0.000268343 0.000429571)
(0.00226499 -0.000778927 -0.000242652)
(0.0024874 -0.00212959 -0.000780851)
(0.00557009 0.00231363 0.000951395)
(0.00506334 0.000407705 0.000476269)
(0.00489791 -0.00130718 -8.76021e-05)
(0.00504143 -0.0033023 -0.000585455)
(0.00868023 0.00280866 0.000880968)
(0.00822302 0.000414947 0.000506769)
(0.00802799 -0.00181447 6.90568e-05)
(0.00805829 -0.00429122 -0.000316479)
(0.0120414 0.00302832 0.000784942)
(0.0116284 0.000307522 0.000518555)
(0.0114102 -0.00227644 0.000211235)
(0.0113495 -0.00506281 -6.09968e-05)
(0.0154883 0.00304136 0.000693092)
(0.0151153 0.000122035 0.000522971)
(0.01488 -0.00268706 0.000327276)
(0.0147495 -0.00565183 0.000153936)
(0.0188939 0.00291122 0.000628813)
(0.0185524 -0.000108051 0.000528334)
(0.0183069 -0.00304146 0.000418387)
(0.0181311 -0.00608985 0.000317081)
(0.0221869 0.00270254 0.000603681)
(0.0218538 -0.000354063 0.000540259)
(0.0216034 -0.00334346 0.000493311)
(0.021415 -0.00642226 0.000430109)
(0.00082215 0.000319621 0.00043835)
(0.000430988 -8.06205e-06 0.000149238)
(0.000381826 -0.000205455 -0.000165245)
(0.000655193 -0.000559673 -0.000529555)
(0.0031589 0.00146115 0.000593959)
(0.00258933 0.00019558 0.00027464)
(0.00247285 -0.000823669 -0.000156034)
(0.00276868 -0.00216013 -0.000512559)
(0.00584341 0.00224451 0.000672941)
(0.005331 0.000325938 0.000345067)
(0.00516751 -0.00139762 -4.9839e-05)
(0.00531596 -0.00340219 -0.000397705)
(0.0089302 0.00274422 0.000671503)
(0.00846777 0.000335125 0.000393206)
(0.00826987 -0.00191176 7.0354e-05)
(0.00829657 -0.00440251 -0.000218262)
(0.0122412 0.00297532 0.000636542)
(0.011828 0.000237663 0.00042299)
(0.0116042 -0.00236779 0.00018193)
(0.0115315 -0.0051694 -3.63422e-05)
(0.0156342 0.0029971 0.000595513)
(0.0152632 6.25595e-05 0.000442675)
(0.0150222 -0.00276634 0.000275186)
(0.0148781 -0.00574479 0.000120681)
(0.0189956 0.00287292 0.000567052)
(0.0186581 -0.000159986 0.000459822)
(0.0184084 -0.0031099 0.000349507)
(0.0182204 -0.00617022 0.000242731)
(0.0222657 0.00266845 0.000560815)
(0.0219366 -0.000401258 0.000480434)
(0.0216836 -0.0034061 0.000409165)
(0.021487 -0.00649641 0.000330022)
(0.000865012 0.000333204 0.000242564)
(0.000461003 -7.74568e-06 8.4177e-05)
(0.000416471 -0.000213165 -0.000101381)
(0.000711656 -0.000580262 -0.000310469)
(0.00329199 0.00142824 0.00037831)
(0.00268527 0.000163013 0.000176588)
(0.00257517 -0.000843863 -9.17673e-05)
(0.0029182 -0.00218322 -0.000318552)
(0.00601553 0.00218848 0.000463068)
(0.00547501 0.000275828 0.000244803)
(0.00531367 -0.00143764 -1.85435e-05)
(0.00549289 -0.00343726 -0.000251946)
(0.00910625 0.0026746 0.000495655)
(0.00862648 0.000275978 0.000297316)
(0.00842781 -0.00196093 6.95058e-05)
(0.00846992 -0.00444081 -0.000136869)
(0.0124023 0.00290435 0.000500709)
(0.0119793 0.000177536 0.000335699)
(0.0117532 -0.00241975 0.000153711)
(0.0116863 -0.00520987 -1.46459e-05)
(0.0157726 0.00293213 0.000495503)
(0.0153975 5.83504e-06 0.000364383)
(0.0151539 -0.00281776 0.000226118)
(0.0150096 -0.00578717 9.44612e-05)
(0.019114 0.00281862 0.000492932)
(0.0187764 -0.000211632 0.000388403)
(0.0185245 -0.00316036 0.000284957)
(0.0183329 -0.00621692 0.000181689)
(0.0223755 0.00262656 0.000499588)
(0.0220487 -0.000448001 0.000411782)
(0.0217937 -0.00345697 0.000331545)
(0.021591 -0.00655039 0.000245606)
(0.000885629 0.000342289 0.000138618)
(0.000468751 -6.87544e-06 4.90706e-05)
(0.000425663 -0.000217695 -6.0991e-05)
(0.000737398 -0.000595844 -0.000182039)
(0.00336284 0.00141765 0.000242095)
(0.00273318 0.000148234 0.000115791)
(0.00262636 -0.000854068 -5.1112e-05)
(0.00299768 -0.00220047 -0.000193289)
(0.00611828 0.00215639 0.000315808)
(0.00555804 0.000247259 0.000172918)
(0.00539844 -0.00145738 2.02587e-07)
(0.00559999 -0.00345409 -0.000153052)
(0.00922425 0.00262682 0.000358469)
(0.00873065 0.000237315 0.000221012)
(0.00853221 -0.0019879 6.36782e-05)
(0.00858858 -0.00445856 -7.96339e-05)
(0.0125232 0.00284937 0.000382225)
(0.0120916 0.000133721 0.000259542)
(0.0118649 -0.00245149 0.000125889)
(0.0118057 -0.00523031 7.53942e-07)
(0.0158894 0.00287765 0.000396142)
(0.0155101 -3.88659e-05 0.000290233)
(0.0152655 -0.00285258 0.00018064)
(0.015124 -0.00581208 7.45853e-05)
(0.0192256 0.00277028 0.000407705)
(0.018887 -0.000254497 0.000315648)
(0.018634 -0.00319747 0.000225853)
(0.0184416 -0.00624812 0.000135179)
(0.0224857 0.00258676 0.000420597)
(0.0221598 -0.000488 0.000337808)
(0.0219034 -0.00349641 0.000261325)
(0.0216974 -0.00658902 0.000180476)
(0.000896206 0.000347568 8.08444e-05)
(0.000470553 -6.27356e-06 2.93262e-05)
(0.000427934 -0.000220462 -3.58151e-05)
(0.000750261 -0.000605788 -0.000106037)
(0.00340253 0.00141526 0.000154648)
(0.00275833 0.000141585 7.62619e-05)
(0.00265307 -0.000859669 -2.68391e-05)
(0.00304163 -0.00221293 -0.000114858)
(0.00618094 0.00214104 0.000212296)
(0.0056079 0.000231875 0.000120196)
(0.00544933 -0.00146829 8.86224e-06)
(0.00566513 -0.00346601 -8.9866e-05)
(0.00930309 0.00259944 0.000252318)
(0.00879986 0.000213871 0.000159515)
(0.00860176 -0.00200398 5.35596e-05)
(0.00866813 -0.00447097 -4.31951e-05)
(0.0126113 0.00281428 0.000280457)
(0.0121734 0.000104717 0.000192864)
(0.0119465 -0.00247202 9.81238e-05)
(0.0118933 -0.00524481 8.82673e-06)
(0.0159816 0.00284011 0.000300926)
(0.0155989 -7.04908e-05 0.00022047)
(0.0153538 -0.00287667 0.000138014)
(0.015215 -0.0058302 5.75581e-05)
(0.0193197 0.00273473 0.000317401)
(0.0189797 -0.000286376 0.000243249)
(0.018726 -0.00322434 0.000171307)
(0.0185336 -0.00627101 9.836e-05)
(0.0225819 0.00255556 0.000331387)
(0.0222556 -0.000518868 0.000261797)
(0.0219982 -0.00352568 0.000197186)
(0.0217903 -0.00661728 0.000129284)
(0.00090204 0.000350664 4.66445e-05)
(0.000470876 -5.90172e-06 1.73855e-05)
(0.000428428 -0.000222168 -2.01523e-05)
(0.000757281 -0.000611936 -6.00057e-05)
(0.00342557 0.00141589 9.55321e-05)
(0.00277227 0.000138717 4.8522e-05)
(0.00266776 -0.000862978 -1.3048e-05)
(0.00306674 -0.00222172 -6.56123e-05)
(0.00621957 0.0021348 0.000136252)
(0.00563841 0.000223981 7.9312e-05)
(0.00548037 -0.00147479 1.05854e-05)
(0.00570492 -0.00347521 -5.03258e-05)
(0.00935497 0.00258554 0.000167452)
(0.00884541 0.000200493 0.000107993)
(0.0086475 -0.00201403 4.02927e-05)
(0.00872023 -0.00448093 -2.16316e-05)
(0.0126728 0.0027944 0.000191692)
(0.0122306 8.68857e-05 0.000133201)
(0.0120036 -0.00248549 7.02449e-05)
(0.0119544 -0.00525636 1.06646e-05)
(0.0160496 0.0028172 0.000210679)
(0.0156642 -9.10469e-05 0.000154565)
(0.0154188 -0.00289305 9.73587e-05)
(0.0152818 -0.00584416 4.12974e-05)
(0.0193918 0.00271165 0.000225912)
(0.0190504 -0.000307998 0.000172166)
(0.0187961 -0.00324305 0.000120124)
(0.0186038 -0.00628798 6.72899e-05)
(0.022657 0.00253415 0.000237622)
(0.0223298 -0.000540498 0.000185852)
(0.0220715 -0.00354632 0.000137669)
(0.0218626 -0.00663763 8.71823e-05)
(0.000905279 0.000352409 2.43431e-05)
(0.000470912 -5.68905e-06 9.29107e-06)
(0.00042854 -0.000223162 -1.01338e-05)
(0.000761161 -0.000615497 -3.05512e-05)
(0.00343861 0.00141719 5.21502e-05)
(0.00278 0.000137575 2.70972e-05)
(0.00267585 -0.000864915 -5.59274e-06)
(0.0030808 -0.00222741 -3.34893e-05)
(0.0062423 0.00213283 7.62783e-05)
(0.00565631 0.00022019 4.5275e-05)
(0.0054985 -0.00147859 7.93589e-06)
(0.0057281 -0.00348163 -2.51555e-05)
(0.00938676 0.00257928 9.57921e-05)
(0.00887335 0.000193437 6.26209e-05)
(0.00867551 -0.00202007 2.49501e-05)
(0.00875192 -0.00448816 -9.55268e-06)
(0.012712 0.00278434 0.000111716)
(0.012267 7.68934e-05 7.81868e-05)
(0.01204 -0.00249376 4.22188e-05)
(0.011993 -0.00526469 8.09305e-06)
(0.0160943 0.00280473 0.000124621)
(0.015707 -0.000103083 9.15595e-05)
(0.0154615 -0.0029033 5.79552e-05)
(0.0153255 -0.00585393 2.49478e-05)
(0.0194403 0.0026984 0.000134978)
(0.0190977 -0.000321085 0.000102566)
(0.018843 -0.00325488 7.1205e-05)
(0.0186508 -0.00629944 3.93587e-05)
(0.0227081 0.00252127 0.000142563)
(0.0223799 -0.000553937 0.000110875)
(0.0221209 -0.00355945 8.13462e-05)
(0.0219114 -0.00665101 5.04525e-05)
(0.000906748 0.000353204 7.57795e-06)
(0.000470914 -5.59187e-06 2.93247e-06)
(0.000428575 -0.000223621 -3.07219e-06)
(0.00076292 -0.000617133 -9.35288e-06)
(0.00344458 0.00141806 1.65973e-05)
(0.00278352 0.000137197 8.73012e-06)
(0.00267952 -0.000865827 -1.51185e-06)
(0.00308717 -0.00223021 -1.02496e-05)
(0.00625289 0.00213243 2.45803e-05)
(0.00566467 0.000218688 1.47358e-05)
(0.00550694 -0.00148038 2.8978e-06)
(0.00573884 -0.00348494 -7.59507e-06)
(0.00940192 0.002577 3.1195e-05)
(0.0088867 0.000190434 2.05318e-05)
(0.00868886 -0.00202292 8.44154e-06)
(0.00876696 -0.00449196 -2.64084e-06)
(0.0127311 0.00278024 3.67071e-05)
(0.0122848 7.24584e-05 2.57832e-05)
(0.0120577 -0.00249772 1.40855e-05)
(0.0120117 -0.00526907 2.97282e-06)
(0.0161164 0.00279937 4.12376e-05)
(0.0157283 -0.000108582 3.03228e-05)
(0.0154825 -0.00290823 1.92443e-05)
(0.015347 -0.00585898 8.35149e-06)
(0.0194646 0.00269246 4.48744e-05)
(0.0191214 -0.000327197 3.40568e-05)
(0.0188664 -0.0032606 2.35923e-05)
(0.0186742 -0.00630524 1.29657e-05)
(0.0227338 0.00251528 4.74825e-05)
(0.022405 -0.000560324 3.68354e-05)
(0.0221457 -0.00356583 2.69072e-05)
(0.0219359 -0.00665766 1.65269e-05)
)
;

boundaryField
{
    interface
    {
        type            tractionDisplacement;
        gradient        nonuniform List<vector> 
192
(
(0.0703747 0.0836209 0.00393293)
(0.0316188 0.0818456 0.0103602)
(0.035323 0.107399 0.0108905)
(0.0285758 0.121212 0.00904286)
(0.02393 0.130309 0.00661745)
(0.0193738 0.133356 0.00415748)
(0.016133 0.132355 0.00232932)
(0.0147925 0.129948 0.00150455)
(0.0707761 0.0908538 0.00240614)
(0.036534 0.0842321 0.00697518)
(0.0352109 0.10647 0.00837013)
(0.0288625 0.119615 0.00787623)
(0.0237552 0.128211 0.00673316)
(0.0192416 0.131516 0.00531444)
(0.0160578 0.13116 0.00415911)
(0.0148242 0.129754 0.00364667)
(0.0741682 0.094884 0.00130976)
(0.0383327 0.0863881 0.00394728)
(0.0364714 0.106593 0.00525732)
(0.0295008 0.119044 0.00569829)
(0.0238719 0.127182 0.00546896)
(0.0190742 0.13052 0.00495069)
(0.0157542 0.130505 0.00445533)
(0.0143481 0.12975 0.00424768)
(0.0765283 0.0971306 0.000690827)
(0.0397135 0.0876978 0.00224489)
(0.0376683 0.107251 0.0032351)
(0.0302849 0.119088 0.0038746)
(0.0242654 0.126895 0.00411964)
(0.0191806 0.130148 0.00412236)
(0.0156795 0.130253 0.00404755)
(0.0141166 0.12981 0.00405215)
(0.0779835 0.0984044 0.000365301)
(0.0406623 0.0885365 0.00129158)
(0.0385334 0.107874 0.00198624)
(0.0309085 0.119404 0.0025652)
(0.0246444 0.12699 0.00294363)
(0.0193495 0.130136 0.00315873)
(0.0157011 0.130246 0.00327809)
(0.0140245 0.129917 0.0033838)
(0.07886 0.0991378 0.00019405)
(0.0412738 0.0890677 0.000740784)
(0.0391103 0.108352 0.00119592)
(0.0313453 0.11975 0.00162843)
(0.0249333 0.127211 0.00196755)
(0.0195046 0.130269 0.00220962)
(0.0157582 0.130342 0.00237494)
(0.0140214 0.130034 0.00250283)
(0.0793593 0.099547 9.5927e-05)
(0.0416338 0.0893833 0.000387056)
(0.0394579 0.108667 0.000644582)
(0.0316161 0.120015 0.000906862)
(0.0251203 0.127414 0.00113017)
(0.0196144 0.130414 0.00130348)
(0.0158112 0.130449 0.00142959)
(0.0140458 0.130131 0.00152564)
(0.0795864 0.0997323 2.91727e-05)
(0.0417994 0.0895313 0.000120873)
(0.03962 0.108823 0.000204234)
(0.0317442 0.120155 0.000291744)
(0.0252108 0.127529 0.00036881)
(0.0196699 0.130501 0.00043054)
(0.0158408 0.130514 0.00047647)
(0.0140634 0.130185 0.000511504)
(-0.00613291 0.0380855 0.0397442)
(-0.0154502 -0.000390161 0.00770926)
(-0.0135001 0.00134785 0.0118949)
(-0.011367 -0.00231841 0.00781509)
(-0.00776988 -0.00282984 0.00582621)
(-0.00446027 -0.00261392 0.00389085)
(-0.00192531 -0.00153457 0.00265368)
(-0.000397721 0.000137029 0.00169738)
(-0.0130041 0.0181906 0.0116811)
(-0.0250663 0.00369689 0.00473511)
(-0.0206439 0.00456846 0.00462453)
(-0.0161505 0.00291478 0.0036555)
(-0.0108566 0.00192399 0.00319232)
(-0.00629793 0.00121418 0.00281356)
(-0.00277361 0.00097643 0.00260016)
(-0.000388345 0.00133556 0.00204075)
(-0.0142519 -0.0114023 -0.00630328)
(-0.0254542 0.00879289 0.000918038)
(-0.0207634 0.00846366 4.75825e-05)
(-0.0157603 0.00868584 0.000907477)
(-0.0103918 0.00710174 0.00151136)
(-0.00587388 0.00540681 0.00216741)
(-0.00245255 0.00395649 0.0027198)
(-0.00022539 0.00300151 0.00349619)
(-0.0100127 -0.039929 -0.0306429)
(-0.0155954 0.0116248 -0.00294842)
(-0.0136969 0.0109067 -0.00730052)
(-0.0102546 0.0132399 -0.00330786)
(-0.00640245 0.0112871 -0.00114486)
(-0.00318506 0.00883053 0.00103858)
(-0.00100212 0.00627787 0.00262426)
(6.41355e-05 0.00419326 0.00380648)
(0.0481126 -0.0884902 -0.00476477)
(0.016902 -0.0879946 -0.0112537)
(0.0144391 -0.116247 -0.0121298)
(0.00526336 -0.12838 -0.00969168)
(-0.000898156 -0.135294 -0.00684831)
(-0.00544551 -0.136252 -0.00413572)
(-0.00787283 -0.133886 -0.0022146)
(-0.00810799 -0.130653 -0.00136246)
(0.0477704 -0.0987493 -0.00344309)
(0.0207498 -0.0918043 -0.00808771)
(0.0142291 -0.114817 -0.00898911)
(0.00548103 -0.126454 -0.00796129)
(-0.000979948 -0.13296 -0.00649796)
(-0.00549656 -0.134388 -0.00498412)
(-0.00790728 -0.132801 -0.00389212)
(-0.00807406 -0.130552 -0.00345387)
(0.0500851 -0.105667 -0.00195546)
(0.0220847 -0.0942894 -0.00471623)
(0.0154664 -0.114884 -0.00578691)
(0.00620512 -0.125782 -0.00582009)
(-0.000712419 -0.131875 -0.00532721)
(-0.00554517 -0.133408 -0.00470443)
(-0.00817227 -0.13219 -0.00420901)
(-0.00862947 -0.130472 -0.0040126)
(0.0518021 -0.109696 -0.00107795)
(0.0232032 -0.0959673 -0.00272277)
(0.0165498 -0.115628 -0.00361725)
(0.00694774 -0.125841 -0.00400677)
(-0.000330012 -0.131608 -0.00405849)
(-0.00545069 -0.133069 -0.00395675)
(-0.00828835 -0.131958 -0.00384371)
(-0.00895013 -0.130478 -0.00382698)
(0.0528845 -0.112028 -0.000601361)
(0.0239902 -0.0970959 -0.00158639)
(0.0173041 -0.116373 -0.00224814)
(0.00748898 -0.126206 -0.00268417)
(-2.2583e-05 -0.131734 -0.00293156)
(-0.00535115 -0.133075 -0.0030553)
(-0.00834674 -0.131948 -0.00311995)
(-0.00914625 -0.13054 -0.00318614)
(0.053541 -0.113388 -0.0003366)
(0.0245001 -0.0978251 -0.000918953)
(0.0177888 -0.116959 -0.00136495)
(0.00783829 -0.126601 -0.00171762)
(0.00018023 -0.131977 -0.00197353)
(-0.00527996 -0.133211 -0.00214673)
(-0.00837547 -0.132029 -0.00226116)
(-0.00924699 -0.130625 -0.00234911)
(0.0539142 -0.114151 -0.000172992)
(0.0247998 -0.098261 -0.000483269)
(0.0180729 -0.117349 -0.000739524)
(0.00804175 -0.126903 -0.000961124)
(0.000297663 -0.132193 -0.00113825)
(-0.00523886 -0.133353 -0.00126922)
(-0.00839105 -0.13212 -0.00136056)
(-0.00929759 -0.1307 -0.00142861)
(0.0540833 -0.114498 -5.3585e-05)
(0.0249373 -0.0984655 -0.000151343)
(0.0182031 -0.117542 -0.000234876)
(0.00813421 -0.127063 -0.000309871)
(0.000350151 -0.132314 -0.000372119)
(-0.00522118 -0.133437 -0.000419613)
(-0.00839866 -0.132175 -0.0004533)
(-0.00932067 -0.130742 -0.000478534)
(0.128623 -0.00878243 0.000624885)
(0.128933 -0.00869768 0.000913908)
(0.129196 -0.00819853 0.000835784)
(0.129387 -0.00787397 0.000697594)
(0.129532 -0.00768388 0.000480482)
(0.129652 -0.00760714 0.000284321)
(0.129742 -0.0075874 0.000139853)
(0.129789 -0.0075896 4.10166e-05)
(0.123497 -0.00840622 0.00150019)
(0.124215 -0.00836427 0.00135735)
(0.124601 -0.00825391 0.00111561)
(0.1248 -0.00815587 0.000861832)
(0.124895 -0.00810218 0.000605897)
(0.124954 -0.00808893 0.000385272)
(0.124997 -0.0080947 0.000208619)
(0.125022 -0.00810239 6.55487e-05)
(0.123156 -0.0110802 0.00257189)
(0.12387 -0.0109743 0.00184938)
(0.124211 -0.0110764 0.00137012)
(0.124367 -0.0111955 0.000965434)
(0.124429 -0.0113065 0.00066398)
(0.124465 -0.0113926 0.000430265)
(0.124494 -0.0114511 0.000241432)
(0.124511 -0.0114803 7.77097e-05)
(0.127843 -0.0119161 0.00334242)
(0.128161 -0.0117354 0.0021952)
(0.128299 -0.0121797 0.00155542)
(0.128391 -0.0125142 0.00104676)
(0.128457 -0.0127687 0.000719127)
(0.128521 -0.0129293 0.000476985)
(0.128575 -0.0130231 0.000275944)
(0.128607 -0.0130655 9.05153e-05)
)
;
        traction        nonuniform List<vector> 
192
(
(164.074 -14.6266 -3.63442)
(164.906 -13.6693 -5.89284)
(164.425 -17.7151 -6.21999)
(163.722 -19.5531 -5.80003)
(162.814 -20.5788 -5.1429)
(161.655 -20.5042 -4.36122)
(159.964 -19.5637 -3.53574)
(156.878 -17.9528 -2.64041)
(168.996 -16.4998 -2.37919)
(170.122 -14.6562 -3.94098)
(169.922 -18.1612 -4.30892)
(169.237 -19.882 -4.1311)
(168.127 -20.7456 -3.74397)
(166.511 -20.5593 -3.22641)
(163.984 -19.4555 -2.6533)
(159.378 -17.6091 -2.06422)
(172.02 -17.6275 -1.56489)
(173.133 -15.3304 -2.54792)
(172.977 -18.5096 -2.85078)
(172.274 -20.0843 -2.85391)
(171.038 -20.8055 -2.67284)
(169.136 -20.5163 -2.38334)
(166.09 -19.3086 -2.03139)
(160.62 -17.3737 -1.65935)
(174.114 -18.3095 -1.06526)
(175.187 -15.757 -1.70918)
(175.005 -18.8367 -1.9304)
(174.263 -20.2814 -1.98476)
(172.923 -20.8975 -1.9222)
(170.82 -20.5181 -1.77612)
(167.432 -19.2269 -1.5715)
(161.414 -17.2268 -1.33561)
(175.594 -18.7306 -0.726856)
(176.638 -16.0404 -1.15242)
(176.42 -19.0903 -1.30624)
(175.63 -20.4632 -1.3649)
(174.204 -21.0061 -1.35464)
(171.954 -20.5552 -1.287)
(168.332 -19.1946 -1.17178)
(161.942 -17.137 -1.02316)
(176.612 -18.9922 -0.475339)
(177.639 -16.2262 -0.747452)
(177.389 -19.2714 -0.848225)
(176.558 -20.6078 -0.894705)
(175.067 -21.1049 -0.902225)
(172.713 -20.6027 -0.873615)
(168.931 -19.1889 -0.811072)
(162.293 -17.0847 -0.720748)
(177.256 -19.1464 -0.269058)
(178.273 -16.3396 -0.42065)
(178 -19.3877 -0.477823)
(177.141 -20.7066 -0.506978)
(175.605 -21.1774 -0.516285)
(173.185 -20.6425 -0.50585)
(169.303 -19.1924 -0.474681)
(162.507 -17.0566 -0.423847)
(177.559 -19.2162 -0.0866499)
(178.567 -16.3916 -0.134952)
(178.284 -19.4432 -0.153492)
(177.411 -20.7554 -0.163465)
(175.854 -21.2143 -0.167358)
(173.403 -20.6633 -0.164984)
(169.469 -19.1924 -0.155389)
(162.573 -17.0408 -0.137993)
(5.77267 -5.5844 143.518)
(9.20383 0.151344 141.121)
(9.36404 -0.233001 139.837)
(8.98534 0.21595 139.27)
(8.25098 0.289669 139.054)
(7.47551 0.330277 139.023)
(6.76934 0.321012 139.071)
(6.30987 0.257985 139.036)
(5.98053 -2.40562 137.574)
(9.60321 -0.389212 136.405)
(9.34779 -0.594655 135.471)
(8.6683 -0.448249 134.864)
(7.761 -0.349691 134.472)
(6.89959 -0.243487 134.229)
(6.16252 -0.145113 134.072)
(5.74136 -0.0982195 133.833)
(5.96776 1.57246 131.473)
(9.51619 -1.06763 130.777)
(9.27338 -1.08878 129.973)
(8.5589 -1.19389 129.373)
(7.65819 -1.03775 128.951)
(6.80755 -0.833658 128.7)
(6.07473 -0.610298 128.596)
(5.63934 -0.386428 128.551)
(5.65103 4.91337 123.658)
(8.64336 -1.26578 122.666)
(8.80361 -1.31941 121.719)
(8.31336 -1.72627 121.212)
(7.60217 -1.57635 121.006)
(6.88578 -1.32994 121.05)
(6.243 -1.03473 121.349)
(5.81117 -0.741914 121.988)
(-104.236 9.36726 3.05544)
(-101.387 9.40592 4.90754)
(-99.6301 11.8652 5.16031)
(-98.9608 12.8342 4.87949)
(-98.9641 13.3481 4.46411)
(-99.5507 13.3048 3.98961)
(-100.56 12.7739 3.51463)
(-102.248 11.6462 2.97651)
(-102.446 9.94448 1.7525)
(-101.275 9.4183 2.91078)
(-100.134 11.4824 3.08963)
(-99.4554 12.4205 2.95067)
(-99.1884 12.8491 2.72503)
(-99.3943 12.7608 2.45578)
(-99.917 12.1556 2.18346)
(-100.9 10.8252 1.92527)
(-100.953 10.341 1.12543)
(-100.229 9.41369 1.89468)
(-99.2959 11.2411 2.078)
(-98.6462 12.1118 2.05806)
(-98.3174 12.4818 1.94915)
(-98.4135 12.3662 1.80009)
(-98.7785 11.7313 1.6354)
(-99.5531 10.3434 1.48054)
(-99.5748 10.5406 0.793244)
(-98.9309 9.396 1.32842)
(-98.0456 11.0927 1.48382)
(-97.4175 11.876 1.50788)
(-97.0909 12.1952 1.46574)
(-97.1796 12.0515 1.38649)
(-97.5167 11.3918 1.28658)
(-98.2542 9.96722 1.18598)
(-98.5032 10.6279 0.55568)
(-97.8838 9.37624 0.92073)
(-97.0117 11 1.03677)
(-96.3944 11.7246 1.07046)
(-96.0776 12.0032 1.06012)
(-96.1772 11.8333 1.02115)
(-96.5131 11.15 0.963068)
(-97.2393 9.69223 0.900011)
(-97.7276 10.6611 0.369565)
(-97.1173 9.3558 0.606885)
(-96.2483 10.9393 0.685605)
(-95.6363 11.6281 0.714366)
(-95.3285 11.8788 0.71593)
(-95.4407 11.6885 0.698177)
(-95.7816 10.9857 0.665856)
(-96.5039 9.50106 0.627587)
(-97.2213 10.6716 0.211467)
(-96.6136 9.33918 0.345084)
(-95.7442 10.9009 0.390312)
(-95.1348 11.5694 0.408679)
(-94.8337 11.8031 0.412354)
(-94.9555 11.5993 0.40525)
(-95.3013 10.882 0.388616)
(-96.0283 9.38069 0.364315)
(-96.9774 10.6738 0.0684801)
(-96.3725 9.3302 0.111343)
(-95.5039 10.883 0.12598)
(-94.8963 11.5427 0.132209)
(-94.5994 11.7688 0.133817)
(-94.7243 11.5578 0.132069)
(-95.0712 10.8297 0.126784)
(-95.8404 9.32956 0.116903)
(-10.9883 -136.218 -0.439638)
(-10.8041 -135.328 -0.44604)
(-10.5106 -134.701 -0.368495)
(-10.2628 -134.221 -0.289504)
(-10.0761 -133.87 -0.210448)
(-9.94586 -133.626 -0.141247)
(-9.86495 -133.479 -0.0859157)
(-9.83419 -133.458 -0.0310476)
(-10.3655 -130.525 0.105015)
(-10.3894 -129.752 -0.0302006)
(-10.2035 -129.14 -0.0514405)
(-10.0181 -128.649 -0.0457491)
(-9.86739 -128.286 -0.0337261)
(-9.75733 -128.029 -0.0217334)
(-9.68465 -127.863 -0.0130823)
(-9.64432 -127.782 -0.00493887)
(-10.0349 -125.329 0.273049)
(-10.0624 -124.547 0.145454)
(-9.88704 -123.908 0.0970313)
(-9.70672 -123.378 0.0794485)
(-9.55764 -122.975 0.0615891)
(-9.44763 -122.686 0.0439751)
(-9.37535 -122.496 0.0265116)
(-9.3375 -122.398 0.00889329)
(-10.0337 -119.309 0.48375)
(-9.90487 -118.193 0.331333)
(-9.65458 -117.352 0.241956)
(-9.42871 -116.652 0.195768)
(-9.25209 -116.113 0.147963)
(-9.12543 -115.722 0.102493)
(-9.04398 -115.465 0.0604999)
(-9.00407 -115.333 0.0202039)
)
;
        pressure        uniform 0;
        value           nonuniform List<vector> 
192
(
(0.00161918 0.00138308 0.000879434)
(0.00329556 0.00257376 0.00104702)
(0.00601163 0.00365612 0.00108753)
(0.00903743 0.00432382 0.000994003)
(0.0123405 0.00465719 0.00086766)
(0.0157304 0.00470831 0.000745061)
(0.0190956 0.00456566 0.00065793)
(0.0223718 0.00432688 0.000622488)
(0.00170685 0.00145529 0.000468427)
(0.00361557 0.00251405 0.000681149)
(0.00628355 0.00357539 0.000777568)
(0.00929098 0.0042394 0.000769956)
(0.0125381 0.00457796 0.000720706)
(0.0158747 0.00464104 0.000661943)
(0.0191963 0.00451242 0.000619041)
(0.022451 0.00429038 0.000606399)
(0.00179211 0.00151925 0.000258936)
(0.00377115 0.00250809 0.000427651)
(0.00647142 0.0035209 0.000528785)
(0.00947501 0.00416265 0.000566884)
(0.0127007 0.00449413 0.000569071)
(0.0160111 0.00456362 0.000557387)
(0.019311 0.00444993 0.000548624)
(0.0225548 0.00424844 0.000552684)
(0.00184223 0.00155642 0.000147254)
(0.00385926 0.00251388 0.000270156)
(0.00658914 0.00349703 0.000356247)
(0.00960282 0.00411542 0.000406901)
(0.0128265 0.00443556 0.000433721)
(0.0161291 0.00450449 0.000447671)
(0.0194216 0.00439844 0.000458299)
(0.0226622 0.00420939 0.000471249)
(0.001871 0.00157762 8.54106e-05)
(0.00391081 0.00252197 0.000170792)
(0.0066626 0.00348946 0.000237124)
(0.00968944 0.00409199 0.000284383)
(0.0129193 0.00440166 0.000317253)
(0.0162235 0.00446682 0.00034041)
(0.019516 0.00436281 0.000358377)
(0.0227572 0.00417953 0.000373685)
(0.00188779 0.00158989 4.90701e-05)
(0.00394149 0.00252923 0.000104792)
(0.00670845 0.0034892 0.000151201)
(0.00974678 0.00408241 0.000187807)
(0.0129845 0.00438455 0.000216286)
(0.0162934 0.00444556 0.000238299)
(0.0195888 0.00434093 0.000255599)
(0.0228322 0.00415957 0.000268907)
(0.00189727 0.00159675 2.55422e-05)
(0.00395904 0.00253448 5.69884e-05)
(0.00673552 0.00349117 8.43355e-05)
(0.00978196 0.00407946 0.000107128)
(0.013026 0.00437701 0.000125843)
(0.0163395 0.00443491 0.000140915)
(0.0196379 0.00432901 0.000152847)
(0.0228836 0.00414791 0.000161633)
(0.00190158 0.00159986 7.94261e-06)
(0.00396707 0.0025372 1.81082e-05)
(0.00674814 0.00349272 2.71332e-05)
(0.00979873 0.00407893 3.48418e-05)
(0.0130462 0.00437435 4.13173e-05)
(0.0163623 0.00443064 4.66193e-05)
(0.0196626 0.00432388 5.08302e-05)
(0.0229096 0.0041426 5.38763e-05)
(0.000662832 0.000813883 0.00132708)
(0.0027072 0.00154582 0.00101388)
(0.00540134 0.00233048 0.00110008)
(0.00853814 0.00277968 0.000978656)
(0.0119443 0.00299295 0.00085777)
(0.0154325 0.00300869 0.000741728)
(0.0188698 0.00289204 0.000661984)
(0.0221819 0.00270425 0.000624898)
(0.000152539 0.000237899 0.000420377)
(0.00207794 0.000314554 0.00048876)
(0.0048053 0.000464811 0.000534075)
(0.00802114 0.000451382 0.000552463)
(0.0114927 0.000331572 0.000558459)
(0.0150366 0.000137212 0.000558141)
(0.0185177 -9.58456e-05 0.000560836)
(0.021849 -0.000337369 0.000565769)
(7.33309e-05 -0.000343209 -0.000342583)
(0.00194682 -0.000669016 -0.000231176)
(0.00463836 -0.00120138 -8.70073e-05)
(0.00783099 -0.00170589 8.04003e-05)
(0.0112803 -0.00218766 0.000230127)
(0.0148066 -0.00261947 0.000354369)
(0.0182762 -0.00299201 0.000452385)
(0.0216006 -0.00330594 0.000537014)
(0.000409695 -0.00107942 -0.00129447)
(0.00229246 -0.00198428 -0.000817706)
(0.00487022 -0.00316596 -0.000676712)
(0.00793011 -0.00412572 -0.000357827)
(0.0112695 -0.00492172 -7.53075e-05)
(0.0147096 -0.00554145 0.000166918)
(0.0181185 -0.00601138 0.000349884)
(0.0214158 -0.00636985 0.00047769)
(0.00113626 -0.00168643 -0.000970999)
(0.00269868 -0.00322952 -0.000921523)
(0.00522192 -0.00475539 -0.000737078)
(0.00812408 -0.00589597 -0.000437625)
(0.0113383 -0.00675398 -0.000146601)
(0.0146814 -0.00735498 0.00010224)
(0.0180327 -0.00776343 0.000289398)
(0.0213136 -0.00805542 0.000413078)
(0.00125232 -0.00179404 -0.000572593)
(0.00302805 -0.00330768 -0.000613655)
(0.00549383 -0.0048374 -0.000510069)
(0.00836509 -0.00598318 -0.000317778)
(0.0115193 -0.00683139 -0.000117567)
(0.0148094 -0.00742464 5.83792e-05)
(0.0181216 -0.00783024 0.00019408)
(0.0213861 -0.00812831 0.000286848)
(0.00133772 -0.00190111 -0.000334912)
(0.00319425 -0.00336184 -0.000377505)
(0.00568622 -0.00487332 -0.000324282)
(0.00854749 -0.00601308 -0.00020962)
(0.0116774 -0.0068583 -8.1236e-05)
(0.0149403 -0.00745477 3.56558e-05)
(0.0182308 -0.00786929 0.000129076)
(0.0214831 -0.00818129 0.000195449)
(0.00138492 -0.00196704 -0.000195513)
(0.00328772 -0.00340007 -0.000227324)
(0.00580687 -0.00489944 -0.000198268)
(0.00867542 -0.00603157 -0.000129718)
(0.0118016 -0.00687541 -4.99772e-05)
(0.0150559 -0.00747543 2.5126e-05)
(0.018338 -0.00789759 8.71325e-05)
(0.0215855 -0.00821999 0.000132639)
(0.00141132 -0.00200614 -0.000113554)
(0.0033415 -0.00342663 -0.000134688)
(0.00588143 -0.00492067 -0.000117968)
(0.00876174 -0.00604854 -7.67472e-05)
(0.011893 -0.00689148 -2.78177e-05)
(0.0151481 -0.00749363 1.93669e-05)
(0.0184293 -0.00792036 5.93607e-05)
(0.021676 -0.00824904 8.94571e-05)
(0.00142654 -0.00202928 -6.42132e-05)
(0.003373 -0.00344453 -7.70992e-05)
(0.00592728 -0.00493719 -6.73878e-05)
(0.00881821 -0.00606345 -4.31019e-05)
(0.0119566 -0.00690607 -1.40045e-05)
(0.0152158 -0.0075093 1.44633e-05)
(0.0184991 -0.00793834 3.90254e-05)
(0.021747 -0.00827044 5.78184e-05)
(0.00143509 -0.00204239 -3.27136e-05)
(0.00339079 -0.00345567 -3.95301e-05)
(0.00595401 -0.00494849 -3.43995e-05)
(0.00885245 -0.00607445 -2.15667e-05)
(0.0119967 -0.00691711 -6.13512e-06)
(0.01526 -0.00752084 9.08253e-06)
(0.0185459 -0.00795094 2.23516e-05)
(0.0217952 -0.00828476 3.25948e-05)
(0.00143896 -0.00204835 -1.00227e-05)
(0.00339889 -0.00346103 -1.21414e-05)
(0.00596638 -0.00495421 -1.0531e-05)
(0.00886864 -0.00608025 -6.51423e-06)
(0.0120161 -0.006923 -1.67867e-06)
(0.0152818 -0.00752694 3.10633e-06)
(0.0185692 -0.00795743 7.29944e-06)
(0.0218194 -0.00829193 1.05452e-05)
(0.0237947 0.00259276 0.000611492)
(0.0238773 0.00255972 0.000572239)
(0.0239904 0.00252408 0.000510035)
(0.0241031 0.00248833 0.000429317)
(0.024201 0.00245951 0.000337393)
(0.0242776 0.00243906 0.000241176)
(0.0243298 0.00242643 0.000144311)
(0.0243561 0.00242041 4.79952e-05)
(0.0233975 -0.000459141 0.000559011)
(0.0234893 -0.000505811 0.000497401)
(0.0236062 -0.000551175 0.000425727)
(0.0237198 -0.000589949 0.000348581)
(0.0238168 -0.000620145 0.00026937)
(0.0238917 -0.00064161 0.000190668)
(0.0239424 -0.000655121 0.000113483)
(0.0239678 -0.000661604 3.76548e-05)
(0.0231428 -0.00348196 0.00052546)
(0.023232 -0.00354328 0.000432282)
(0.0233463 -0.00359543 0.000348671)
(0.023458 -0.00363635 0.000273393)
(0.0235536 -0.00366701 0.000205486)
(0.0236273 -0.00368873 0.000143047)
(0.0236771 -0.00370259 8.43641e-05)
(0.0237021 -0.00370933 2.78785e-05)
(0.023013 -0.00657121 0.000471889)
(0.023089 -0.00664311 0.000357462)
(0.0231947 -0.00670264 0.000265049)
(0.0233023 -0.00674545 0.000193561)
(0.023396 -0.00677689 0.000138273)
(0.0234691 -0.00679925 9.31446e-05)
(0.0235186 -0.0068138 5.39018e-05)
(0.0235435 -0.00682098 1.76583e-05)
)
;
    }
    symmetry
    {
        type            symmetryPlane;
    }
    bottom
    {
        type            fixedDisplacement;
        value           uniform (0 0 0);
    }
}


// ************************************************************************* //
