/*--------------------------------*- C++ -*----------------------------------*\
| =========                 |                                                 |
| \\      /  F ield         | foam-extend: Open Source CFD                    |
|  \\    /   O peration     | Version:     3.1                                |
|   \\  /    A nd           | Web:         http://www.extend-project.de       |
|    \\/     M anipulation  |                                                 |
\*---------------------------------------------------------------------------*/
FoamFile
{
    version     2.0;
    format      ascii;
    class       volSymmTensorField;
    location    "0.8";
    object      epsilon;
}
// * * * * * * * * * * * * * * * * * * * * * * * * * * * * * * * * * * * * * //

dimensions      [0 0 0 0 0 0 0];

internalField   nonuniform List<symmTensor> 
256
(
(-0.0175058 0.0233543 -0.00106407 0.0596003 0.0143759 -0.00809258)
(-0.00597757 0.0195013 -0.0029079 0.0110403 0.00579089 -0.00367507)
(0.00229195 0.0176327 -0.00309036 -0.0209567 -0.00477195 0.00181978)
(0.0118905 0.0178848 -0.00123354 -0.0658296 -0.0141031 0.00616465)
(-0.0293328 0.00889817 -0.00119245 0.034869 -0.00168192 -0.0129067)
(-0.0119899 0.0241968 -0.00436752 0.0111246 -0.000523488 -0.00612121)
(0.00443429 0.0236837 -0.00470065 -0.016204 0.00181935 0.00239251)
(0.0208008 0.00875371 -0.00155026 -0.0398521 0.00325697 0.00924322)
(-0.0229542 0.0107487 -0.00048817 0.031304 -0.000182228 -0.00915843)
(-0.0114039 0.0226816 -0.00264097 0.00928333 0.000137435 -0.00475395)
(0.00324294 0.0227612 -0.00277453 -0.0137215 0.000734356 0.000773955)
(0.0148716 0.0108788 -0.000612268 -0.0355335 0.0012887 0.00535408)
(-0.0183429 0.00905217 -0.000447018 0.0210459 -0.00136783 -0.00739742)
(-0.00940134 0.0199761 -0.00187342 0.00606292 -0.0002784 -0.00418378)
(0.00186374 0.0200723 -0.00194251 -0.0104613 0.000782578 -0.000153678)
(0.0107096 0.00923616 -0.00053596 -0.0251078 0.00201168 0.00315773)
(-0.0135083 0.0076169 -0.000256307 0.0127974 -0.00135816 -0.00528149)
(-0.00745378 0.0164739 -0.00118096 0.00327537 -0.00033886 -0.0035279)
(0.000648781 0.0165137 -0.00123783 -0.00773915 0.000519799 -0.00120029)
(0.00649275 0.00771041 -0.00032694 -0.0168607 0.00160703 0.000629563)
(-0.00977255 0.00566248 -0.000185372 0.00597882 -0.00121304 -0.00365195)
(-0.00591417 0.01247 -0.000719399 0.00102948 -0.000359969 -0.00303655)
(-0.000341337 0.0124809 -0.000763007 -0.00549632 0.000317048 -0.0020335)
(0.0032827 0.00572569 -0.00023223 -0.0101207 0.00118935 -0.0013566)
(-0.00731006 0.00352227 -0.000170365 0.00146342 -0.00085069 -0.00244572)
(-0.00487616 0.00825165 -0.000385014 -0.000516373 -0.000316345 -0.00266987)
(-0.00102721 0.00825383 -0.000406242 -0.00386149 0.000143305 -0.00269284)
(0.00122579 0.00360038 -0.000176563 -0.00558557 0.000676499 -0.00287259)
(-0.00685042 0.00137201 -0.000127175 -0.000343391 -0.00028381 -0.00173767)
(-0.00502087 0.00382508 -2.90605e-05 -0.00121311 -0.000122042 -0.00247502)
(-0.000756297 0.00378393 -3.53594e-05 -0.00299444 1.77741e-05 -0.00319272)
(0.000976407 0.00135359 -9.88043e-05 -0.00372661 0.000162125 -0.00389879)
(-0.017622 0.0272116 -0.00084014 0.0550934 0.0100441 -0.00504548)
(-0.00553477 0.0244081 -0.00243452 0.00798461 0.00397889 -0.00211979)
(0.0021478 0.0228194 -0.00263811 -0.0207966 -0.00343163 0.00156278)
(0.0120199 0.0221019 -0.00105947 -0.0644126 -0.0102263 0.0046872)
(-0.0295672 0.0100378 -0.00134704 0.0376326 0.00201892 -0.00982266)
(-0.0113438 0.026242 -0.00435895 0.0118953 0.00118261 -0.0043163)
(0.00396787 0.0258719 -0.00466854 -0.0193252 0.00109267 0.0025214)
(0.0209977 0.0100261 -0.00165381 -0.0450259 0.000504044 0.00839786)
(-0.0228546 0.0101523 -0.000817584 0.0310923 -4.68166e-05 -0.00886281)
(-0.0108183 0.021987 -0.00319061 0.00909571 0.000473611 -0.00428466)
(0.00269283 0.0219965 -0.00335869 -0.0144117 0.00148233 0.00123819)
(0.0146614 0.0101542 -0.00106512 -0.0361717 0.0022579 0.00605091)
(-0.0179684 0.00812596 -0.000433168 0.0212855 -0.00123835 -0.00718482)
(-0.00890605 0.0183695 -0.0019807 0.0062028 -1.86791e-05 -0.0039533)
(0.00122983 0.0184018 -0.00210338 -0.0106094 0.00139937 -5.16426e-05)
(0.0101408 0.00821543 -0.00065059 -0.0253689 0.00280277 0.0033162)
(-0.0131842 0.00648591 -6.64246e-05 0.0127727 -0.00163648 -0.00534244)
(-0.00710001 0.0146036 -0.00102178 0.00338642 -0.000295306 -0.0035094)
(8.72611e-05 0.0146104 -0.00112103 -0.00749213 0.00109822 -0.00116275)
(0.00593949 0.00653461 -0.000247831 -0.0165112 0.00253313 0.000753096)
(-0.00949251 0.00467717 0.000160895 0.00591102 -0.00152862 -0.00375053)
(-0.00566078 0.0108126 -0.000326419 0.00108853 -0.000384552 -0.0030869)
(-0.000787438 0.0108165 -0.000398272 -0.00517079 0.000739036 -0.00202249)
(0.00279637 0.00473685 3.17909e-05 -0.00969298 0.00191203 -0.00130393)
(-0.00710228 0.00280966 0.000288692 0.00135815 -0.00105858 -0.00259973)
(-0.00470975 0.00704945 0.00016584 -0.000546285 -0.000324449 -0.00277974)
(-0.00132031 0.00706246 0.000128479 -0.00360054 0.000412009 -0.00266025)
(0.000881394 0.00291675 0.000228966 -0.00524699 0.00114479 -0.00280214)
(-0.00666604 0.00109627 0.000414633 -0.000308937 -0.000390256 -0.00199451)
(-0.00488903 0.00327627 0.000593298 -0.00118834 -0.000120151 -0.0026881)
(-0.000952581 0.00324368 0.000578255 -0.00285915 0.000165267 -0.00319186)
(0.000726905 0.00109183 0.000408382 -0.00359006 0.000421366 -0.00385516)
(-0.0183998 0.0288934 -0.000580599 0.0553849 0.00616817 -0.00296312)
(-0.00569122 0.0261236 -0.00165307 0.00741856 0.00246844 -0.00119929)
(0.00250048 0.0246511 -0.00181063 -0.0212476 -0.00209667 0.00103383)
(0.012794 0.0239454 -0.000781176 -0.0658911 -0.00630898 0.00300962)
(-0.0310035 0.0106352 -0.00109632 0.0361495 0.0022534 -0.00632146)
(-0.0118091 0.0274914 -0.00313125 0.0111403 0.0013003 -0.00271197)
(0.00465981 0.027149 -0.00335716 -0.0199326 0.000789435 0.00171801)
(0.0225368 0.0105198 -0.00134208 -0.0447065 5.39741e-06 0.00567307)
(-0.0239189 0.0103119 -0.000826411 0.0303753 0.000719507 -0.00657283)
(-0.0113034 0.0225571 -0.00251964 0.00873278 0.000797185 -0.00314793)
(0.00318678 0.0225685 -0.00263863 -0.0148703 0.00128876 0.000847439)
(0.0156966 0.0102866 -0.000979052 -0.0362986 0.00154628 0.00445226)
(-0.0185599 0.00808396 -0.000468415 0.0209237 -0.000346076 -0.00594608)
(-0.00923585 0.0183203 -0.00162886 0.00602603 0.000337358 -0.0032502)
(0.00138888 0.0183574 -0.00171934 -0.0107963 0.00131521 -0.000184744)
(0.0105774 0.00817438 -0.000595904 -0.0254505 0.00214107 0.00258376)
(-0.0134972 0.00628763 -0.000135071 0.0127099 -0.000852445 -0.00493815)
(-0.00732512 0.0142693 -0.000802095 0.00336832 2.71579e-05 -0.00315077)
(6.49785e-05 0.0142884 -0.000872301 -0.00755919 0.001091 -0.00112364)
(0.0060365 0.00635577 -0.000235217 -0.0166066 0.00204961 0.000682492)
(-0.00958682 0.00444552 0.000112873 0.00608254 -0.000922865 -0.00394819)
(-0.00578468 0.0103982 -0.000158499 0.00115594 -0.000124035 -0.00298889)
(-0.000899725 0.010422 -0.000206564 -0.0051879 0.000779714 -0.00187567)
(0.00268198 0.00453757 4.59773e-05 -0.00985944 0.00160767 -0.000915523)
(-0.00703915 0.00260689 0.000275426 0.00170779 -0.000675455 -0.00321131)
(-0.00474545 0.00671545 0.000311563 -0.000426971 -0.000140508 -0.00287681)
(-0.00145762 0.00675157 0.000286811 -0.00361998 0.000469193 -0.00245193)
(0.000663319 0.00275452 0.000245618 -0.00550444 0.00100926 -0.00211555)
(-0.0064729 0.00104136 0.000403045 6.7448e-05 -0.000247808 -0.00287583)
(-0.00484603 0.00315298 0.000661348 -0.00103556 -5.25158e-05 -0.00291338)
(-0.00111312 0.00313334 0.000648228 -0.00288604 0.00018168 -0.00291896)
(0.000434926 0.00105262 0.00039622 -0.00383225 0.000371146 -0.00294835)
(-0.0190251 0.02973 -0.00037169 0.0558984 0.00378327 -0.00174977)
(-0.00584855 0.0268588 -0.00106344 0.00724102 0.00155832 -0.000706177)
(0.00275654 0.0254377 -0.00116991 -0.0215496 -0.00122291 0.00064278)
(0.0134092 0.0248453 -0.00051166 -0.0669792 -0.00377216 0.00183591)
(-0.0321066 0.0109577 -0.000750395 0.0352186 0.00188478 -0.00398663)
(-0.0121806 0.0282912 -0.00209394 0.0106792 0.00111399 -0.0017436)
(0.00518448 0.0279718 -0.00224506 -0.0201255 0.000586029 0.00105138)
(0.0237444 0.0108136 -0.000921045 -0.0442684 -9.2845e-05 0.00353863)
(-0.0248185 0.0105869 -0.000627265 0.029651 0.00100307 -0.00461021)
(-0.0116965 0.0231728 -0.0017957 0.00836324 0.000847836 -0.00229259)
(0.0036224 0.0231915 -0.00187326 -0.0150707 0.00098825 0.000431394)
(0.0166463 0.0105551 -0.00072637 -0.0361537 0.000936711 0.00288757)
(-0.0192076 0.00824229 -0.000384703 0.0204642 0.000278192 -0.00462786)
(-0.00955701 0.0186938 -0.0012097 0.00578775 0.000529544 -0.00261959)
(0.00162137 0.0187435 -0.00126538 -0.0109481 0.00104747 -0.000356274)
(0.0111775 0.00834285 -0.000460468 -0.0254384 0.00139408 0.00171412)
(-0.0138834 0.00635787 -0.000131518 0.0125448 -0.000161361 -0.00429575)
(-0.00755986 0.014452 -0.000602131 0.00326898 0.000270352 -0.0027731)
(0.000142252 0.0144863 -0.000642379 -0.00767885 0.000902736 -0.00110896)
(0.00631026 0.00644402 -0.000185866 -0.0167157 0.00139476 0.000427993)
(-0.00975719 0.00445729 7.45346e-05 0.00617382 -0.000326771 -0.00387322)
(-0.00593317 0.0104603 -9.61091e-05 0.00116925 0.000104044 -0.0028392)
(-0.000917876 0.0105003 -0.000121737 -0.00528638 0.000674367 -0.00174019)
(0.0027211 0.00457049 4.20371e-05 -0.0100698 0.00113459 -0.000712025)
(-0.00703811 0.00258803 0.000219158 0.00198639 -0.000280148 -0.00354759)
(-0.00481663 0.00672927 0.000283529 -0.000336857 2.44539e-05 -0.00290136)
(-0.00152783 0.00678024 0.000271207 -0.00370705 0.000427124 -0.00224297)
(0.000543339 0.00275682 0.000208382 -0.00578652 0.000744498 -0.00160636)
(-0.00635154 0.00104567 0.000325746 0.000392392 -0.000114081 -0.00344588)
(-0.00486309 0.00316801 0.000544689 -0.000913876 5.13418e-06 -0.00303464)
(-0.00121593 0.00315598 0.000536514 -0.00297601 0.000172907 -0.00264939)
(0.000212773 0.00106406 0.000325344 -0.00412038 0.000292713 -0.00224458)
(-0.0194419 0.0301718 -0.00022838 0.0562954 0.00233478 -0.00108003)
(-0.00595846 0.0272044 -0.000661939 0.00718239 0.000997923 -0.000446794)
(0.00291448 0.0258056 -0.000728145 -0.0217356 -0.000686823 0.000385817)
(0.01382 0.0253095 -0.000317351 -0.0676764 -0.00221959 0.00111537)
(-0.0328532 0.0111447 -0.000481286 0.034769 0.00142696 -0.00261119)
(-0.012424 0.0287783 -0.00134108 0.0104474 0.000862315 -0.00119506)
(0.00551707 0.0284739 -0.0014354 -0.0202061 0.000426511 0.000594385)
(0.0245673 0.0109891 -0.000590233 -0.0440297 -9.12219e-05 0.00216938)
(-0.0254558 0.0107948 -0.000428115 0.029182 0.000965546 -0.00330897)
(-0.01195 0.0236406 -0.00120282 0.00811001 0.000744569 -0.00174228)
(0.00391695 0.0236672 -0.00125124 -0.01517 0.000712332 0.000119693)
(0.0173347 0.0107649 -0.000490447 -0.0360324 0.000546433 0.00178365)
(-0.0197 0.00841022 -0.000275418 0.0200928 0.000533168 -0.00363899)
(-0.0097741 0.0190796 -0.000835923 0.00558664 0.000553061 -0.00216486)
(0.00180365 0.019139 -0.000869033 -0.0110525 0.000769709 -0.000498754)
(0.0116593 0.00851981 -0.000319652 -0.0254026 0.000847323 0.00102508)
(-0.0142077 0.00648057 -0.000102098 0.0123562 0.000219374 -0.0037201)
(-0.00772724 0.0147361 -0.000423263 0.00315352 0.000367489 -0.00246546)
(0.000224378 0.0147802 -0.000445735 -0.00778008 0.000681601 -0.00111119)
(0.0065731 0.00657826 -0.000131103 -0.0167763 0.000872481 0.000157524)
(-0.00992991 0.00453432 4.724e-05 0.00616989 4.44355e-05 -0.00369014)
(-0.00604755 0.01065 -6.21095e-05 0.00114102 0.000222118 -0.00268301)
(-0.000907876 0.0106989 -7.55606e-05 -0.00537831 0.000525853 -0.00164558)
(0.00280727 0.00465917 3.18956e-05 -0.0102065 0.000730299 -0.00064389)
(-0.00708771 0.00262613 0.000156151 0.00212407 -1.32088e-05 -0.00366318)
(-0.00488375 0.00684561 0.000214861 -0.000300615 0.000119979 -0.00286449)
(-0.00156445 0.00690406 0.000208484 -0.00378847 0.000344379 -0.00208433)
(0.000500828 0.00280564 0.000152779 -0.00597418 0.000494129 -0.00129878)
(-0.00632566 0.00106638 0.000236778 0.000577327 -9.58297e-06 -0.00372718)
(-0.00490507 0.00322376 0.000400116 -0.000852298 4.2493e-05 -0.00305609)
(-0.00127725 0.00321536 0.000393796 -0.00305977 0.000141088 -0.00243271)
(9.56724e-05 0.00108835 0.000236088 -0.00432524 0.000198182 -0.00177467)
(-0.0197017 0.0304148 -0.000133006 0.0565728 0.00140765 -0.00071913)
(-0.00602914 0.0273792 -0.000393026 0.00716867 0.000624116 -0.000313029)
(0.00300938 0.0259903 -0.000431417 -0.0218501 -0.000366647 0.000226925)
(0.0140759 0.0255601 -0.000185876 -0.0681141 -0.00126312 0.000695021)
(-0.0333251 0.0112525 -0.000288766 0.0345769 0.000986454 -0.00183716)
(-0.0125772 0.0290656 -0.000812471 0.0103417 0.000605915 -0.000895503)
(0.00572036 0.0287688 -0.000867353 -0.0202489 0.000291803 0.000305384)
(0.0250882 0.0110896 -0.000353511 -0.0439274 -6.56985e-05 0.00135084)
(-0.0258692 0.0109313 -0.000267058 0.028926 0.000763116 -0.0025213)
(-0.0121076 0.0239519 -0.000751418 0.00796194 0.000564505 -0.00141355)
(0.00410349 0.0239835 -0.000779718 -0.0152259 0.000477843 -8.68043e-05)
(0.0177853 0.0109037 -0.000304353 -0.0359733 0.000307489 0.00108918)
(-0.0200287 0.00853599 -0.000176471 0.0198504 0.000527064 -0.0029923)
(-0.00991064 0.0193699 -0.000533499 0.00544826 0.000460313 -0.00187035)
(0.00192773 0.0194351 -0.000552254 -0.0111196 0.000521535 -0.000598917)
(0.0119892 0.00865135 -0.000201865 -0.0253778 0.000487794 0.000562188)
(-0.014435 0.00658439 -6.72633e-05 0.0122014 0.00032964 -0.00329814)
(-0.00783594 0.0149763 -0.000273416 0.00305832 0.000342023 -0.00224695)
(0.000287338 0.0150258 -0.000285579 -0.00785027 0.000470327 -0.0011182)
(0.00676684 0.00668856 -8.28609e-05 -0.0168027 0.000510692 -5.34217e-05)
(-0.0100634 0.00460826 3.03745e-05 0.00612385 0.000190759 -0.00350213)
(-0.00612687 0.0108278 -3.80056e-05 0.0011002 0.000234395 -0.00255203)
(-0.000893625 0.0108813 -4.50364e-05 -0.00544393 0.000370916 -0.00158427)
(0.00288418 0.00473919 2.29291e-05 -0.0102774 0.000435494 -0.000638346)
(-0.00714612 0.00266818 0.00010338 0.00216962 0.000105813 -0.00366063)
(-0.00493817 0.00696047 0.000145564 -0.000297529 0.000142243 -0.00280365)
(-0.00158462 0.00702262 0.000141963 -0.00384777 0.000247895 -0.0019737)
(0.00049015 0.00285282 0.000102344 -0.00607888 0.000299782 -0.00113132)
(-0.00634513 0.00108357 0.000160681 0.000661587 3.96841e-05 -0.00381579)
(-0.00495223 0.00327494 0.000270186 -0.000832629 5.25215e-05 -0.00302007)
(-0.0013137 0.00326839 0.000264958 -0.00312452 0.000102256 -0.0022771)
(3.85308e-05 0.00110736 0.00015896 -0.00445373 0.000121269 -0.00149837)
(-0.0198518 0.030547 -6.87478e-05 0.0567492 0.000757114 -0.000534682)
(-0.00607075 0.0274695 -0.000206631 0.00717039 0.000345438 -0.000247311)
(0.00306329 0.026085 -0.00022626 -0.021917 -0.000175205 0.000136267)
(0.0142234 0.0256948 -9.63997e-05 -0.068373 -0.000644928 0.000466286)
(-0.0336003 0.0113116 -0.000152238 0.0345061 0.000577181 -0.00142932)
(-0.0126667 0.0292254 -0.000432651 0.0102984 0.000358216 -0.000741396)
(0.00583697 0.0289319 -0.000460731 -0.0202736 0.000170757 0.000138086)
(0.0253918 0.0111439 -0.000185906 -0.0438924 -3.78489e-05 0.000898643)
(-0.0261142 0.0110117 -0.000144156 0.0288025 0.000480954 -0.00208572)
(-0.0121992 0.0241368 -0.000407879 0.00788501 0.000348647 -0.00123287)
(0.00421268 0.0241708 -0.000422384 -0.015258 0.000274748 -0.000209773)
(0.0180528 0.0109854 -0.000163677 -0.0359533 0.000155793 0.00069381)
(-0.0202262 0.00861492 -9.66502e-05 0.0197142 0.000367339 -0.00261614)
(-0.00999021 0.0195533 -0.000293455 0.00536683 0.00029908 -0.00169887)
(0.00200313 0.0196214 -0.00030291 -0.0111594 0.000301431 -0.00066065)
(0.0121893 0.00873335 -0.000109665 -0.0253668 0.000250089 0.000288247)
(-0.014575 0.00665303 -3.7087e-05 0.0120996 0.000261463 -0.00303389)
(-0.00790044 0.0151359 -0.000151401 0.00299519 0.000234837 -0.00211092)
(0.000327704 0.0151882 -0.000157374 -0.00789269 0.000274924 -0.0011243)
(0.00688834 0.00676048 -4.47642e-05 -0.016813 0.00026405 -0.000189114)
(-0.0101506 0.00465924 1.73317e-05 0.00607683 0.000175388 -0.00336228)
(-0.00617632 0.0109505 -2.00976e-05 0.00106602 0.000169972 -0.0024609)
(-0.000882983 0.0110062 -2.35137e-05 -0.00548389 0.000219771 -0.00154764)
(0.00293636 0.00479313 1.39272e-05 -0.0103092 0.000227483 -0.000650221)
(-0.00719297 0.00269796 5.8524e-05 0.00217392 0.000109204 -0.00362184)
(-0.00497609 0.00704042 8.34908e-05 -0.000306365 0.000107838 -0.00274833)
(-0.00159601 0.0071042 8.15212e-05 -0.00388478 0.000148558 -0.00190415)
(0.000490298 0.00288482 5.81683e-05 -0.00613058 0.000157688 -0.00104635)
(-0.00637517 0.00109445 9.28203e-05 0.000690009 4.24931e-05 -0.00381966)
(-0.0049906 0.0033096 0.000155907 -0.000832992 4.03799e-05 -0.00297121)
(-0.00133485 0.00330379 0.000152308 -0.00316698 6.1413e-05 -0.00217691)
(1.33076e-05 0.00111903 9.10284e-05 -0.00452496 6.36495e-05 -0.00134794)
(-0.0199205 0.0306061 -2.12118e-05 0.0568352 0.000239306 -0.000457247)
(-0.00608995 0.0275088 -6.4309e-05 0.00717399 0.000110892 -0.00022055)
(0.00308778 0.0261262 -7.03052e-05 -0.0219482 -5.13955e-05 9.52714e-05)
(0.0142907 0.0257546 -2.97709e-05 -0.0684941 -0.00019765 0.00036603)
(-0.0337267 0.0113379 -4.74464e-05 0.0344856 0.000189876 -0.00125477)
(-0.0127079 0.0292968 -0.000135491 0.0102839 0.000118431 -0.000676606)
(0.00589022 0.0290046 -0.000144062 -0.0202854 5.62807e-05 6.17644e-05)
(0.0255311 0.0111678 -5.78036e-05 -0.0438839 -1.2222e-05 0.000698673)
(-0.0262276 0.0110487 -4.54452e-05 0.0287544 0.000163606 -0.00189376)
(-0.0122414 0.0242221 -0.000128922 0.00785308 0.000117597 -0.00115358)
(0.00426305 0.0242571 -0.000133346 -0.0152728 8.96614e-05 -0.000266793)
(0.0181769 0.0110228 -5.1465e-05 -0.0359492 4.75795e-05 0.000516043)
(-0.0203182 0.00865236 -3.06832e-05 0.0196547 0.000130212 -0.0024453)
(-0.0100268 0.0196405 -9.33557e-05 0.00533005 0.000103182 -0.00162083)
(0.00203856 0.0197098 -9.62205e-05 -0.0111779 9.85909e-05 -0.000689794)
(0.0122829 0.00877202 -3.46676e-05 -0.0253636 7.67624e-05 0.000162516)
(-0.0146411 0.00668634 -1.18099e-05 0.0120505 9.71153e-05 -0.00290858)
(-0.00793044 0.0152137 -4.8319e-05 0.00296453 8.29528e-05 -0.00204639)
(0.000347083 0.015267 -5.01097e-05 -0.0079124 9.041e-05 -0.00112756)
(0.00694598 0.00679511 -1.41226e-05 -0.0168164 8.1323e-05 -0.000254141)
(-0.010193 0.00468433 5.60113e-06 0.00604949 6.81957e-05 -0.00328968)
(-0.00620002 0.0110112 -6.27151e-06 0.00104741 6.13833e-05 -0.00241474)
(-0.000877666 0.0110677 -7.29644e-06 -0.00550249 7.2737e-05 -0.00153042)
(0.0029619 0.00481937 4.61324e-06 -0.0103207 7.03592e-05 -0.000659585)
(-0.00721805 0.00271257 1.88102e-05 0.00216875 4.3787e-05 -0.00359246)
(-0.00499546 0.00707987 2.70824e-05 -0.000313829 3.96021e-05 -0.0027166)
(-0.0016014 0.00714415 2.64397e-05 -0.00390233 4.94155e-05 -0.00187046)
(0.000491734 0.00290012 1.87073e-05 -0.0061512 4.88583e-05 -0.00101092)
(-0.00639425 0.00109952 3.01698e-05 0.000695708 1.70041e-05 -0.00380581)
(-0.00501153 0.0033266 5.08803e-05 -0.00083726 1.48377e-05 -0.00293961)
(-0.00134496 0.00332083 4.95852e-05 -0.00318782 2.0455e-05 -0.00212773)
(3.44327e-06 0.0011242 2.94118e-05 -0.00455621 1.9698e-05 -0.00128208)
)
;

boundaryField
{
    interface
    {
        type            calculated;
        value           nonuniform List<symmTensor> 
192
(
(-0.0643944 -1.65091e-05 0.000448738 0.0930213 0.0178005 -0.00974586)
(-0.027716 -3.42328e-05 0.000603372 0.0447675 -0.00176468 -0.0154443)
(-0.0288726 -8.11807e-05 0.00063602 0.0418507 -0.00024855 -0.0108264)
(-0.0207804 -0.000120861 0.000614615 0.0277611 -0.00194074 -0.00860186)
(-0.0151315 -0.000160139 0.000574244 0.0167818 -0.00195344 -0.00587648)
(-0.0102856 -0.000204742 0.000517812 0.00763004 -0.0017296 -0.00377204)
(-0.00724124 -0.000270752 0.000442188 0.0017432 -0.00115663 -0.00223912)
(-0.00623877 -0.00037953 0.000335927 -0.000379587 -0.000373386 -0.00136448)
(-0.0641414 -3.45736e-06 0.000294946 0.0886624 0.0125659 -0.00617479)
(-0.0322948 -2.99105e-05 0.000397143 0.0476477 0.00272844 -0.0119852)
(-0.028888 -8.07323e-05 0.000413128 0.0413609 -0.000111099 -0.0107162)
(-0.0212612 -0.000131849 0.000396771 0.0279509 -0.00177823 -0.0084805)
(-0.0152313 -0.000183354 0.000367526 0.0166878 -0.0022968 -0.00601064)
(-0.0103942 -0.000243844 0.000327473 0.00756804 -0.00211888 -0.00388835)
(-0.00731871 -0.000332309 0.000274676 0.00170633 -0.00142855 -0.00236503)
(-0.00628957 -0.00046844 0.000206626 -0.000281717 -0.000517751 -0.001557)
(-0.0669154 -4.00595e-07 0.000200954 0.0899506 0.00770114 -0.00365221)
(-0.0338587 -3.09024e-05 0.000268841 0.0455096 0.002899 -0.00778103)
(-0.0301114 -8.62701e-05 0.000277782 0.0402468 0.000857271 -0.00803278)
(-0.0219636 -0.000144075 0.000265088 0.0274085 -0.000563685 -0.00712508)
(-0.0154843 -0.00020374 0.000244043 0.0165639 -0.00121447 -0.00571987)
(-0.0103623 -0.000274328 0.000215847 0.00780611 -0.00127773 -0.00435518)
(-0.00710442 -0.000375085 0.00017968 0.00221812 -0.000909686 -0.00333593)
(-0.00581864 -0.000521652 0.000135962 0.00022775 -0.000326599 -0.00284303)
(-0.0688826 -5.93143e-07 0.000142334 0.0911535 0.0046919 -0.00214894)
(-0.0350769 -3.36576e-05 0.000189975 0.0442375 0.00236087 -0.00487873)
(-0.0312023 -9.23183e-05 0.000195406 0.0392532 0.00121111 -0.00559069)
(-0.0227279 -0.000154517 0.000185445 0.0267783 0.000270739 -0.00551737)
(-0.0159114 -0.000219595 0.000169861 0.01633 -0.000287152 -0.00499211)
(-0.0105189 -0.000296664 0.000149582 0.00792402 -0.000478526 -0.00435976)
(-0.00706544 -0.000404802 0.000124316 0.00259806 -0.000386743 -0.00386486)
(-0.00558334 -0.000556724 9.47788e-05 0.000649747 -0.000149748 -0.00366446)
(-0.070101 -1.4211e-06 0.000100134 0.0919819 0.00287456 -0.00131663)
(-0.0359154 -3.63803e-05 0.000133632 0.0436413 0.0017566 -0.00316337)
(-0.0319706 -9.75062e-05 0.000137093 0.0386453 0.00116128 -0.00396214)
(-0.0232989 -0.000162758 0.000129572 0.026289 0.000612763 -0.0042899)
(-0.0162732 -0.000231477 0.000118225 0.01608 0.000221533 -0.00430202)
(-0.0106895 -0.000312782 0.00010381 0.00791556 1.40094e-05 -0.00417962)
(-0.00709041 -0.000425621 8.62462e-05 0.0027793 -3.70813e-05 -0.00407101)
(-0.00548118 -0.000580709 6.60591e-05 0.000885102 -1.28363e-05 -0.00408553)
(-0.0708364 -2.20231e-06 6.67802e-05 0.092525 0.00172203 -0.000867903)
(-0.0364553 -3.85313e-05 8.91396e-05 0.0433918 0.00120074 -0.00219839)
(-0.0324747 -0.000101447 9.13295e-05 0.038327 0.000913833 -0.0029777)
(-0.0236827 -0.000168795 8.61004e-05 0.0259801 0.000619565 -0.00348575)
(-0.0165291 -0.00023993 7.83594e-05 0.0158804 0.00037725 -0.0037883)
(-0.0108269 -0.000323987 6.86815e-05 0.00785355 0.000212183 -0.00396889)
(-0.00713672 -0.000439858 5.70368e-05 0.00283659 0.000119961 -0.0041014)
(-0.00546551 -0.000596895 4.37113e-05 0.00099155 5.12428e-05 -0.00423856)
(-0.0712556 -2.77367e-06 3.82062e-05 0.0928561 0.000921968 -0.000638829)
(-0.0367724 -3.99804e-05 5.09302e-05 0.0433015 0.000697927 -0.00169123)
(-0.032775 -0.000104048 5.21651e-05 0.0381792 0.000574228 -0.00243564)
(-0.0239141 -0.000172722 4.91307e-05 0.0258108 0.000434375 -0.00301973)
(-0.016687 -0.000245351 4.46606e-05 0.0157514 0.000305902 -0.00346612)
(-0.0109173 -0.000331107 3.91116e-05 0.00779154 0.000203835 -0.00380723)
(-0.00717669 -0.000448892 3.23818e-05 0.00284015 0.000129539 -0.00407178)
(-0.00547892 -0.000606948 2.44316e-05 0.00102764 5.48731e-05 -0.00426931)
(-0.0714461 -3.24319e-06 1.2355e-05 0.0930138 0.000290726 -0.000542757)
(-0.0369179 -4.08003e-05 1.64231e-05 0.0432758 0.000228903 -0.00147463)
(-0.0329139 -0.000105301 1.68244e-05 0.0381234 0.00019505 -0.00219757)
(-0.0240218 -0.000174592 1.58481e-05 0.025738 0.000154227 -0.00280883)
(-0.0167611 -0.000247938 1.44042e-05 0.0156898 0.000114307 -0.00331354)
(-0.0109611 -0.000334591 1.26131e-05 0.00775577 8.00768e-05 -0.00372247)
(-0.00719829 -0.000453606 1.03896e-05 0.00283236 5.24229e-05 -0.00404366)
(-0.00549029 -0.00061162 7.61063e-06 0.00103508 2.19357e-05 -0.00426437)
(-0.0177951 0.0206198 -0.00071927 0.0642027 -3.52325e-05 -0.0382103)
(-0.0298823 0.00816055 -0.00100594 0.0312647 -8.05107e-05 -0.00756012)
(-0.0235997 0.0113524 -0.00106925 0.0312249 -8.68068e-05 -0.0117321)
(-0.0189512 0.00987042 -0.00104906 0.0206869 -9.46122e-05 -0.00771726)
(-0.0139453 0.00854126 -0.0010084 0.012828 -0.000102783 -0.00577504)
(-0.0100708 0.00643926 -0.00095683 0.00614343 -0.00011337 -0.00386992)
(-0.00747506 0.00406566 -0.000901403 0.00173986 -0.000128917 -0.00264713)
(-0.00693375 0.00159909 -0.000863003 -0.000202637 -0.000148355 -0.00169585)
(-0.0064783 0.0157978 -0.000590184 0.0137108 -2.75912e-05 -0.0113629)
(-0.0128663 0.0229139 -0.000866486 0.00990622 -5.56564e-05 -0.00440291)
(-0.0122322 0.0236065 -0.000916852 0.00932093 -6.68152e-05 -0.00439032)
(-0.0100336 0.0213717 -0.000905708 0.0058708 -7.28635e-05 -0.00351415)
(-0.0078957 0.0179713 -0.000877422 0.00318777 -7.78063e-05 -0.00312645)
(-0.00620811 0.0137395 -0.000841354 0.00101843 -8.3497e-05 -0.00278903)
(-0.00504253 0.00915762 -0.000802957 -0.000426891 -9.2946e-05 -0.00259245)
(-0.00510993 0.00426202 -0.000787469 -0.00116248 -0.000106654 -0.00203771)
(0.00263871 0.0137387 -0.000561233 -0.0213458 -2.19106e-05 0.00648971)
(0.00528507 0.0222559 -0.000849003 -0.0135405 -5.32347e-05 -0.000555003)
(0.00403473 0.0237575 -0.000901307 -0.0133527 -6.68149e-05 0.000203794)
(0.00253498 0.0215315 -0.000896097 -0.010409 -7.27681e-05 -0.00074515)
(0.00115835 0.0180484 -0.00087084 -0.00798944 -7.50593e-05 -0.001431)
(1.45485e-05 0.0137672 -0.000836408 -0.0057908 -7.64712e-05 -0.00213319)
(-0.000824297 0.00916226 -0.000797305 -0.00409973 -8.10013e-05 -0.00270526)
(-0.00065582 0.00422003 -0.000776434 -0.00311231 -9.47582e-05 -0.00348555)
(0.0121726 0.014918 -0.000576842 -0.0680125 -3.72437e-05 0.0319596)
(0.0214376 0.00778354 -0.000904276 -0.0345925 -9.24492e-05 0.00314194)
(0.0155799 0.0115927 -0.000958383 -0.0350882 -9.44618e-05 0.00748045)
(0.0113972 0.0101458 -0.000959374 -0.0249187 -9.24955e-05 0.00345356)
(0.00701676 0.0086891 -0.000934402 -0.0172359 -8.60351e-05 0.00122971)
(0.00365791 0.00652519 -0.000896609 -0.0105912 -7.81953e-05 -0.000993974)
(0.00143947 0.0041415 -0.000849068 -0.00601714 -7.1138e-05 -0.00260061)
(0.00107849 0.00157761 -0.00080871 -0.00394066 -7.16217e-05 -0.00379044)
(0.0531966 7.85808e-05 0.000328441 -0.0938945 -0.0180318 0.00777829)
(0.0209797 8.92588e-05 0.000502059 -0.0500026 0.00342871 0.0118277)
(0.0213736 6.6161e-05 0.000528917 -0.0458093 0.00149969 0.00714317)
(0.0135648 3.09177e-05 0.000531557 -0.0315 0.0026964 0.00444842)
(0.00827788 -4.12359e-06 0.000519068 -0.0205075 0.00225973 0.00129045)
(0.00386018 -4.36017e-05 0.000495191 -0.0115182 0.00172125 -0.00118745)
(0.00112335 -0.000108235 0.00045871 -0.00566464 0.000978454 -0.00304695)
(0.00046085 -0.000250402 0.000396676 -0.00358328 0.000238831 -0.00425132)
(0.053793 4.08315e-05 0.000179799 -0.0928272 -0.0131486 0.00592551)
(0.0252119 4.4321e-05 0.000278276 -0.0552218 -0.000118323 0.0107804)
(0.0209622 2.09879e-05 0.000293566 -0.0461485 0.0024806 0.00806558)
(0.013523 -1.18219e-05 0.00029317 -0.0317354 0.00346783 0.0047184)
(0.00788078 -4.85563e-05 0.000285665 -0.0201249 0.00325559 0.00148722)
(0.00356103 -9.25398e-05 0.000271649 -0.0111221 0.00251545 -0.00112396)
(0.000949625 -0.000168259 0.000250318 -0.00539561 0.00150535 -0.00300882)
(0.000486401 -0.000338817 0.000220765 -0.00350226 0.000534671 -0.00427078)
(0.0569241 2.56414e-05 0.000118439 -0.0952912 -0.00811922 0.00382714)
(0.026785 2.38335e-05 0.000189339 -0.0540574 -0.000573495 0.00734826)
(0.0222019 1.1598e-06 0.000201741 -0.0458925 0.00152748 0.00602667)
(0.0141519 -3.05707e-05 0.00020171 -0.031697 0.00245481 0.00380369)
(0.00799749 -6.84909e-05 0.00019582 -0.0202158 0.00246204 0.00146714)
(0.00338005 -0.000115871 0.000185267 -0.011391 0.00197596 -0.000516322)
(0.000607046 -0.000198429 0.000170038 -0.0058206 0.00124039 -0.00199416)
(-7.2776e-05 -0.000381536 0.000151302 -0.00387061 0.000442927 -0.0029769)
(0.059161 2.17866e-05 8.70613e-05 -0.0970298 -0.00485394 0.00232454)
(0.0280809 1.6575e-05 0.000140973 -0.0531319 -0.000537339 0.00458193)
(0.0233782 -8.22918e-06 0.000151512 -0.0454865 0.000797563 0.00395691)
(0.0148978 -4.15304e-05 0.000151953 -0.0315567 0.00146664 0.00263994)
(0.0083386 -8.15329e-05 0.000147249 -0.0202967 0.00156039 0.00112707)
(0.00342561 -0.000131887 0.000138786 -0.0116527 0.00130362 -0.000235414)
(0.00045979 -0.00021944 0.000127015 -0.00620773 0.000857245 -0.00129921)
(-0.000390562 -0.000411091 0.000113256 -0.0042515 0.000328304 -0.00203237)
(0.0605582 2.05253e-05 6.279e-05 -0.0981266 -0.00286303 0.00140896)
(0.028993 1.3332e-05 0.000101844 -0.0526561 -0.000407487 0.00281893)
(0.0242276 -1.3534e-05 0.000109824 -0.0452222 0.000387577 0.00249915)
(0.0154845 -4.87394e-05 0.000110381 -0.0314247 0.000807773 0.00170603)
(0.00865857 -9.07733e-05 0.000106963 -0.0203193 0.000899556 0.000744666)
(0.00352226 -0.00014347 0.000100715 -0.0117993 0.000778315 -0.000161985)
(0.00039805 -0.000234528 9.21604e-05 -0.00644187 0.000528822 -0.00090255)
(-0.000578958 -0.000432181 8.24656e-05 -0.00450506 0.000205514 -0.00142726)
(0.0614028 1.99599e-05 4.24895e-05 -0.098807 -0.00163696 0.000880495)
(0.0295856 1.1553e-05 6.88461e-05 -0.0524439 -0.000274938 0.00177585)
(0.0247876 -1.68233e-05 7.43319e-05 -0.0450945 0.000175958 0.0015898)
(0.0158845 -5.35748e-05 7.48056e-05 -0.0313418 0.000418584 0.00108038)
(0.00889117 -9.71945e-05 7.2522e-05 -0.020312 0.000482758 0.000443642)
(0.00360887 -0.000151575 6.82976e-05 -0.0118616 0.000428638 -0.00017684)
(0.000377956 -0.000245014 6.25252e-05 -0.0065603 0.000296614 -0.000702686)
(-0.000670057 -0.000446739 5.59886e-05 -0.00465528 0.000114951 -0.00108967)
(0.0618828 1.96915e-05 2.45359e-05 -0.0992058 -0.000840276 0.000595953)
(0.029935 1.05563e-05 3.9677e-05 -0.0523605 -0.000157001 0.00120573)
(0.0251218 -1.87972e-05 4.2845e-05 -0.0450453 7.17427e-05 0.00107723)
(0.0161268 -5.66003e-05 4.31405e-05 -0.0313002 0.000195176 0.000712597)
(0.00903589 -0.000101275 4.18277e-05 -0.0202995 0.000230908 0.000250193)
(0.00366717 -0.000156752 3.94177e-05 -0.0118815 0.000208442 -0.000209631)
(0.000372873 -0.000251799 3.6029e-05 -0.0066124 0.000145078 -0.00060918)