/*--------------------------------*- C++ -*----------------------------------*\
| =========                 |                                                 |
| \\      /  F ield         | foam-extend: Open Source CFD                    |
|  \\    /   O peration     | Version:     3.1                                |
|   \\  /    A nd           | Web:         http://www.extend-project.de       |
|    \\/     M anipulation  |                                                 |
\*---------------------------------------------------------------------------*/
FoamFile
{
    version     2.0;
    format      ascii;
    class       pointVectorField;
    location    "0.8";
    object      pointD;
}
// * * * * * * * * * * * * * * * * * * * * * * * * * * * * * * * * * * * * * //

dimensions      [0 1 0 0 0 0 0];

internalField   nonuniform List<vector> 
405
(
(0 0 0)
(0 0 0)
(0 0 0)
(0 0 0)
(0 0 0)
(0.00232247 0.00221401 0.00125981)
(0.00140013 0.000728038 0.000812523)
(0.00106266 -0.000114943 8.38442e-05)
(0.00118058 -0.00101898 -0.000671485)
(0.00175742 -0.00263488 -0.00115621)
(0.00447266 0.00312093 0.0011898)
(0.00374794 0.00116391 0.000784199)
(0.0033671 -0.000272759 0.000176163)
(0.00343696 -0.00175516 -0.00045315)
(0.00377722 -0.00385163 -0.000893356)
(0.00736911 0.0039839 0.00116395)
(0.00669148 0.00150659 0.000791319)
(0.00632395 -0.000497771 0.000269983)
(0.00631742 -0.00254974 -0.000260286)
(0.0065233 -0.00517476 -0.000653654)
(0.0105694 0.00445833 0.00101609)
(0.00999907 0.0016389 0.000736837)
(0.00965628 -0.000777651 0.000355362)
(0.00957773 -0.00323525 -3.06517e-05)
(0.00962709 -0.00617168 -0.000319942)
(0.013959 0.00464873 0.000867092)
(0.0134765 0.0016176 0.000679024)
(0.0131541 -0.00108459 0.000425274)
(0.0130165 -0.00381758 0.000169027)
(0.0129499 -0.00692875 -2.28448e-05)
(0.0173731 0.00461106 0.000742399)
(0.0169642 0.00148552 0.000630672)
(0.0166593 -0.00139253 0.000481432)
(0.0164777 -0.00429108 0.000330889)
(0.0163308 -0.00746478 0.000218712)
(0.0207192 0.00443754 0.000667403)
(0.0203546 0.00129077 0.000603372)
(0.0200609 -0.00168279 0.000529001)
(0.0198528 -0.00466979 0.000454243)
(0.0196673 -0.00784398 0.00039143)
(0.0239746 0.00421882 0.000651516)
(0.0235912 0.00107601 0.000608615)
(0.0232663 -0.00194345 0.000576842)
(0.0230769 -0.00498162 0.000544316)
(0.0229125 -0.00815195 0.000502439)
(0 0 0)
(0 0 0)
(0 0 0)
(0 0 0)
(0 0 0)
(0.00255929 0.00198155 0.000769007)
(0.00166844 0.000516957 0.000488489)
(0.00138723 -0.000192794 3.75111e-05)
(0.00147716 -0.000929803 -0.000445266)
(0.00202883 -0.00250442 -0.000769692)
(0.00480158 0.00307983 0.000898315)
(0.00410596 0.00109594 0.00058267)
(0.00377228 -0.000388729 0.000123677)
(0.00380209 -0.0019127 -0.000351587)
(0.00411062 -0.0040325 -0.000695581)
(0.0076559 0.00394868 0.000907263)
(0.00701363 0.00144934 0.000612265)
(0.00668105 -0.000618415 0.00021541)
(0.00663444 -0.00272866 -0.000189491)
(0.00680123 -0.00536798 -0.000500637)
(0.0108018 0.00444959 0.000838082)
(0.010255 0.00160647 0.000601934)
(0.00993243 -0.000884399 0.000296762)
(0.00981852 -0.00341205 -1.2438e-05)
(0.00983669 -0.00636613 -0.000254893)
(0.0141209 0.00464613 0.000748843)
(0.013655 0.00159648 0.00057716)
(0.0133439 -0.00117098 0.000362852)
(0.0131782 -0.00396581 0.000146613)
(0.0130871 -0.00709125 -2.58871e-05)
(0.0174742 0.00460686 0.000670994)
(0.0170751 0.00146739 0.000554784)
(0.0167758 -0.00146103 0.00041552)
(0.0165746 -0.00440768 0.000275598)
(0.0164113 -0.00759332 0.000161024)
(0.0207787 0.00442384 0.000626464)
(0.0204179 0.00126647 0.000546151)
(0.0201254 -0.00174054 0.000459902)
(0.019907 -0.00475996 0.000373789)
(0.0197135 -0.00794435 0.000295851)
(0.0240211 0.00419938 0.000624061)
(0.0236397 0.00104688 0.000560036)
(0.0233154 -0.00199755 0.000503539)
(0.0231192 -0.00505989 0.000446773)
(0.0229499 -0.00823969 0.000384573)
(0 0 0)
(0 0 0)
(0 0 0)
(0 0 0)
(0 0 0)
(0.00272142 0.00199917 0.000459041)
(0.00178808 0.000485625 0.000292228)
(0.00150161 -0.000217921 2.1277e-05)
(0.00161251 -0.00094618 -0.000273195)
(0.00220309 -0.00259117 -0.000474666)
(0.00503542 0.00302961 0.000603788)
(0.00429881 0.00103534 0.000393672)
(0.00395122 -0.000442805 9.06143e-05)
(0.00400312 -0.0019607 -0.000224618)
(0.00435059 -0.00409506 -0.000456378)
(0.00788024 0.00387458 0.000660798)
(0.00722446 0.00138308 0.000447945)
(0.00688489 -0.000686887 0.000168984)
(0.00684428 -0.00279884 -0.000116663)
(0.00702316 -0.00542674 -0.000340437)
(0.0110012 0.00436853 0.000656654)
(0.0104477 0.0015406 0.000469203)
(0.0101196 -0.000954241 0.000240589)
(0.0100049 -0.00348535 8.67274e-06)
(0.0100273 -0.00642149 -0.00018155)
(0.0142812 0.00456919 0.000627277)
(0.0138148 0.00153656 0.000474252)
(0.0135002 -0.001236 0.000300337)
(0.0133299 -0.00403536 0.000125137)
(0.0132366 -0.00714228 -2.61919e-05)
(0.0175982 0.00454175 0.000596749)
(0.0172015 0.00141469 0.000475785)
(0.0169005 -0.0015197 0.000348881)
(0.0166938 -0.00447168 0.000221916)
(0.0165255 -0.00764473 0.000104298)
(0.0208783 0.00437529 0.000581687)
(0.0205213 0.00122071 0.000482604)
(0.0202288 -0.00179428 0.000389452)
(0.0200052 -0.00482091 0.000296903)
(0.0198054 -0.00800228 0.000201363)
(0.0241162 0.00416381 0.000590477)
(0.0237408 0.0010067 0.000501351)
(0.0234184 -0.00204892 0.00042602)
(0.0232155 -0.00512111 0.000350866)
(0.0230375 -0.00830427 0.00026459)
(0 0 0)
(0 0 0)
(0 0 0)
(0 0 0)
(0 0 0)
(0.00281619 0.00202441 0.000275999)
(0.00184421 0.000477252 0.000178402)
(0.00154898 -0.000229021 1.5047e-05)
(0.00167607 -0.000961074 -0.0001637)
(0.00230116 -0.00265751 -0.000283814)
(0.00517274 0.00300997 0.00039571)
(0.00440502 0.00100314 0.000263673)
(0.00404564 -0.000469827 6.86101e-05)
(0.0041153 -0.0019835 -0.000134757)
(0.00449377 -0.00413367 -0.000281845)
(0.0080346 0.003824 0.000464704)
(0.00735681 0.00133533 0.000321131)
(0.00700779 -0.000725934 0.000131362)
(0.00697794 -0.00282932 -6.33322e-05)
(0.007179 -0.00545435 -0.000215472)
(0.0111513 0.00430194 0.000494144)
(0.0105855 0.00148496 0.000356328)
(0.0102508 -0.000999439 0.000190794)
(0.0101411 -0.00351995 2.27987e-05)
(0.0101755 -0.00644459 -0.000117638)
(0.0144169 0.00449945 0.000501962)
(0.0139458 0.00148021 0.000378055)
(0.013627 -0.00128292 0.000242027)
(0.0134579 -0.00407263 0.000105189)
(0.0133688 -0.00716598 -1.76079e-05)
(0.0177182 0.00447912 0.000502995)
(0.0173216 0.00136244 0.000393869)
(0.0170186 -0.00156592 0.000284529)
(0.0168108 -0.00451156 0.000175435)
(0.0166412 -0.00767427 6.92476e-05)
(0.0209874 0.00432655 0.000507714)
(0.0206341 0.00117501 0.000409308)
(0.0203409 -0.00183917 0.000319665)
(0.0201148 -0.00486446 0.000230829)
(0.0199093 -0.00804204 0.000136074)
(0.0242246 0.00412846 0.00052155)
(0.0238549 0.000967822 0.000428415)
(0.0235326 -0.00209323 0.000349093)
(0.0233253 -0.00516997 0.000270168)
(0.0231386 -0.00835498 0.000180307)
(0 0 0)
(0 0 0)
(0 0 0)
(0 0 0)
(0 0 0)
(0.00287083 0.00204247 0.000168403)
(0.00187225 0.00047493 0.000110832)
(0.00157048 -0.000234403 1.19616e-05)
(0.0017075 -0.000970866 -9.63725e-05)
(0.00235637 -0.00269997 -0.00016777)
(0.00525545 0.00300558 0.00025858)
(0.00446526 0.000987412 0.000176252)
(0.00409808 -0.000483806 5.20352e-05)
(0.00417895 -0.00199661 -7.74939e-05)
(0.00457938 -0.0041617 -0.000169562)
(0.008136 0.00379848 0.000321164)
(0.00744038 0.00130675 0.000226567)
(0.00708478 -0.000748403 9.9993e-05)
(0.00706295 -0.0028459 -2.99305e-05)
(0.00728137 -0.00547505 -0.000130675)
(0.0112595 0.00426116 0.000360565)
(0.0106822 0.00144744 0.0002633)
(0.0103426 -0.00102822 0.000146773)
(0.0102376 -0.00354001 2.85003e-05)
(0.0102829 -0.00646175 -7.10652e-05)
(0.0145246 0.00445213 0.000384764)
(0.0140474 0.00143881 0.000290357)
(0.0137256 -0.00131546 0.000188222)
(0.0135586 -0.00409627 8.55489e-05)
(0.0134746 -0.00718399 -8.32552e-06)
(0.0178225 0.00443314 0.000401189)
(0.017424 0.00132157 0.000311472)
(0.0171194 -0.00160016 0.000223177)
(0.0169117 -0.00453906 0.000135187)
(0.0167428 -0.00769675 4.77465e-05)
(0.0210892 0.00428754 0.000415402)
(0.0207369 0.00113745 0.000329449)
(0.020443 -0.00187395 0.000251772)
(0.0202156 -0.00489617 0.000174871)
(0.0200072 -0.00807174 9.21473e-05)
(0.0243279 0.00409722 0.00042983)
(0.0239602 0.000934438 0.000346165)
(0.0236371 -0.00212836 0.000274208)
(0.0234275 -0.00520643 0.000202678)
(0.023236 -0.00839253 0.000122085)
(0 0 0)
(0 0 0)
(0 0 0)
(0 0 0)
(0 0 0)
(0.00290277 0.00205468 0.000102516)
(0.0018873 0.000474688 6.86455e-05)
(0.00158115 -0.000237144 9.45513e-06)
(0.00172414 -0.000977206 -5.52959e-05)
(0.00238809 -0.00272665 -9.73884e-05)
(0.00530584 0.00300747 0.000165977)
(0.00450069 0.000980393 0.000115377)
(0.00412843 -0.000491195 3.79816e-05)
(0.00421612 -0.0020052 -4.26377e-05)
(0.0046308 -0.00418225 -9.92856e-05)
(0.00820182 0.00378827 0.000215129)
(0.00749377 0.00129138 0.000154417)
(0.00713382 -0.000761358 7.25395e-05)
(0.00711717 -0.00285678 -1.14648e-05)
(0.00734717 -0.00549246 -7.63012e-05)
(0.011335 0.00424015 0.000251432)
(0.0107489 0.00142495 0.000185686)
(0.0104061 -0.00104619 0.000106974)
(0.0103044 -0.00355357 2.71107e-05)
(0.0103574 -0.00647739 -4.04178e-05)
(0.0146052 0.00442465 0.000278062)
(0.0141228 0.00141201 0.000210607)
(0.0137987 -0.00133714 0.000138105)
(0.0136334 -0.00411284 6.52611e-05)
(0.0135534 -0.00720012 -1.99802e-06)
(0.0179054 0.00440403 0.000298171)
(0.0175045 0.00129347 0.000230671)
(0.0171985 -0.00162413 0.000164657)
(0.0169911 -0.00455881 9.89137e-05)
(0.0168231 -0.00771541 3.30541e-05)
(0.0211735 0.00426071 0.000314142)
(0.0208207 0.00111029 0.000246923)
(0.0205259 -0.00189914 0.000186169)
(0.0202978 -0.00491916 0.00012605)
(0.0200878 -0.00809455 6.14154e-05)
(0.0244146 0.00407398 0.000326076)
(0.0240468 0.000909204 0.000259652)
(0.0237223 -0.00215437 0.000202143)
(0.0235115 -0.00523297 0.000144988)
(0.0233176 -0.00842035 8.11135e-05)
(0 0 0)
(0 0 0)
(0 0 0)
(0 0 0)
(0 0 0)
(0.0029214 0.00206258 5.90981e-05)
(0.0018957 0.000475106 4.01207e-05)
(0.00158683 -0.000238565 6.67112e-06)
(0.00173332 -0.000981223 -2.98232e-05)
(0.00240636 -0.00274297 -5.3389e-05)
(0.00533612 0.00301102 9.93292e-05)
(0.00452163 0.000977646 7.00523e-05)
(0.00414619 -0.000495101 2.50108e-05)
(0.00423788 -0.0020109 -2.18378e-05)
(0.00466127 -0.00419647 -5.46042e-05)
(0.00824318 0.00378556 0.000132618)
(0.00752713 0.00128382 9.63719e-05)
(0.00716442 -0.000768672 4.73706e-05)
(0.00715088 -0.00286418 -2.86268e-06)
(0.00738799 -0.00550589 -4.1614e-05)
(0.0113848 0.00423086 0.000159266)
(0.0107929 0.00141266 0.000118582)
(0.0104479 -0.00105696 6.99635e-05)
(0.0103483 -0.00356294 2.066e-05)
(0.010406 -0.00649027 -2.12021e-05)
(0.0146609 0.00441051 0.000180336)
(0.0141747 0.00139629 0.000137028)
(0.0138491 -0.00135074 9.06612e-05)
(0.0136848 -0.00412434 4.40976e-05)
(0.0136073 -0.00721333 8.51552e-07)
(0.0179649 0.0043876 0.000196915)
(0.0175619 0.0012761 0.000152131)
(0.0172548 -0.00163969 0.000108437)
(0.0170477 -0.00457247 6.49421e-05)
(0.0168802 -0.00772986 2.12307e-05)
(0.0212357 0.00424435 0.000209747)
(0.0208819 0.00109274 0.000164067)
(0.0205862 -0.0019159 0.000122725)
(0.0203575 -0.00493497 8.18284e-05)
(0.0201468 -0.00811112 3.79476e-05)
(0.0244792 0.00405877 0.000217921)
(0.0241104 0.000892189 0.000172409)
(0.0237846 -0.00217201 0.000132891)
(0.023573 -0.00525109 9.36143e-05)
(0.0233779 -0.0084398 4.99124e-05)
(0 0 0)
(0 0 0)
(0 0 0)
(0 0 0)
(0 0 0)
(0.00293124 0.00206707 2.71453e-05)
(0.00190007 0.000475544 1.85899e-05)
(0.00158973 -0.000239254 3.46754e-06)
(0.00173807 -0.000983471 -1.29942e-05)
(0.00241593 -0.00275186 -2.3602e-05)
(0.00535244 0.00301389 4.66413e-05)
(0.00453286 0.000976769 3.31805e-05)
(0.00415567 -0.000497008 1.24459e-05)
(0.00424947 -0.00201424 -9.09505e-06)
(0.00467752 -0.00420485 -2.41505e-05)
(0.00826609 0.00378557 6.33596e-05)
(0.00754561 0.00128054 4.63761e-05)
(0.00718136 -0.000772402 2.34236e-05)
(0.00716945 -0.00286858 -8.98388e-08)
(0.00741037 -0.00551435 -1.82529e-05)
(0.0114132 0.00422744 7.72826e-05)
(0.010818 0.00140676 5.78166e-05)
(0.0104717 -0.00106266 3.46023e-05)
(0.0103732 -0.00356854 1.1071e-05)
(0.0104335 -0.0064987 -8.97369e-06)
(0.0146935 0.00440423 8.86738e-05)
(0.0142051 0.0013883 6.75168e-05)
(0.0138786 -0.00135817 4.49195e-05)
(0.0137149 -0.00413121 2.22336e-05)
(0.0136387 -0.00722197 1.09377e-06)
(0.0180006 0.00437961 9.7803e-05)
(0.0175962 0.00126688 7.5527e-05)
(0.0172885 -0.00164837 5.38127e-05)
(0.0170814 -0.00458058 3.22026e-05)
(0.0169142 -0.00773904 1.046e-05)
(0.0212734 0.00423585 0.000104797)
(0.0209188 0.00108311 8.17789e-05)
(0.0206225 -0.00192541 6.0923e-05)
(0.0203935 -0.00494426 4.02943e-05)
(0.0201824 -0.00812126 1.81978e-05)
(0.0245187 0.0040504 0.000108885)
(0.024149 0.00088253 8.58611e-05)
(0.0238223 -0.00218216 6.58452e-05)
(0.0236103 -0.00526167 4.59507e-05)
(0.0234147 -0.0084514 2.38604e-05)
(0 0 0)
(0 0 0)
(0 0 0)
(0 0 0)
(0 0 0)
(0.00293432 0.00206853 0)
(0.00190144 0.000475718 -0)
(0.00159063 -0.000239461 0)
(0.00173955 -0.000984198 0)
(0.00241892 -0.00275469 0)
(0.00535761 0.00301496 0)
(0.00453641 0.000976593 -0)
(0.00415866 -0.000497581 0)
(0.00425312 -0.00201534 0)
(0.00468263 -0.00420762 0)
(0.00827344 0.00378583 0)
(0.00755155 0.00127964 -0)
(0.00718679 -0.000773546 0)
(0.0071754 -0.00287005 0)
(0.00741751 -0.00551723 0)
(0.0114225 0.00422664 0)
(0.0108261 0.00140503 -0)
(0.0104795 -0.00106444 0)
(0.0103813 -0.00357042 0)
(0.0104424 -0.00650162 0)
(0.0147043 0.00440249 0)
(0.0142151 0.00138587 -0)
(0.0138883 -0.00136052 0)
(0.0137247 -0.0041335 0)
(0.0136489 -0.00722497 0)
(0.0180124 0.00437726 0)
(0.0176076 0.00126401 -0)
(0.0172996 -0.00165115 0)
(0.0170925 -0.00458326 0)
(0.0169255 -0.00774219 0)
(0.0212861 0.00423324 0)
(0.0209312 0.00108006 -0)
(0.0206346 -0.00192849 0)
(0.0204055 -0.00494733 0)
(0.0201943 -0.00812468 0)
(0.0245319 0.00404773 0)
(0.024162 0.000879405 0)
(0.0238349 -0.00218547 0)
(0.0236228 -0.00526515 0)
(0.023427 -0.00845525 0)
)
;

boundaryField
{
    interface
    {
        type            calculated;
    }
    symmetry
    {
        type            symmetryPlane;
    }
    bottom
    {
        type            fixedValue;
        value           uniform (0 0 0);
    }
}


// ************************************************************************* //
