/*--------------------------------*- C++ -*----------------------------------*\
| =========                 |                                                 |
| \\      /  F ield         | foam-extend: Open Source CFD                    |
|  \\    /   O peration     | Version:     3.1                                |
|   \\  /    A nd           | Web:         http://www.extend-project.de       |
|    \\/     M anipulation  |                                                 |
\*---------------------------------------------------------------------------*/
FoamFile
{
    version     2.0;
    format      ascii;
    class       volScalarField;
    location    "0.8";
    object      sigmaEq;
}
// * * * * * * * * * * * * * * * * * * * * * * * * * * * * * * * * * * * * * //

dimensions      [1 -1 -2 0 0 0 0];

internalField   nonuniform List<scalar> 
256
(
621.379
278.717
282.07
605.63
427.82
338.633
330.965
415.286
373.426
311.265
305.639
358.047
275.92
266.647
262.733
261.311
192.067
215.13
212.106
179.178
121.611
160.509
158.126
111.059
70.5068
105.77
103.761
62.1184
45.8203
53.0822
49.7193
38.1742
600.059
319.503
329.792
602.623
446.002
360.927
363.374
451.558
368.563
302.257
299.81
360.588
270.78
247.648
243.451
256.795
184.329
192.777
188.619
169.338
113.952
140.39
137.103
100.982
64.3066
91.0557
88.6788
54.4746
43.5168
47.216
43.4656
35.3266
604.537
335.559
348.272
612.73
441.439
371.325
377.152
452.289
366.28
307.39
306.659
362.304
268.888
246.672
242.943
256.467
183.03
188.969
184.723
168.138
113.13
135.728
132.28
99.6525
63.7531
87.3982
84.8687
52.791
42.9248
46.3102
41.6593
31.4825
610.813
342.956
356.692
621.109
440.477
378.705
385.746
452.495
365.266
313.388
313.552
363.453
268.452
250.586
247.342
257.445
183.279
191.161
187.108
169.01
113.977
136.718
133.314
100.513
64.9169
87.8452
85.2322
53.2965
44.0116
46.6848
41.3198
30.4205
615.701
346.644
360.873
626.966
441.572
383.63
391.12
453.678
365.52
318.196
318.87
364.862
268.745
254.759
251.924
258.801
183.948
194.468
190.664
170.34
115.036
139.1
135.804
101.791
66.1637
89.3847
86.7629
54.3652
45.2014
47.3877
41.6457
30.8159
619.061
348.606
363.094
630.812
443.036
386.739
394.383
455
366.222
321.528
322.484
366.201
269.23
257.947
255.406
260.028
184.513
197.235
193.648
171.474
115.769
141.253
138.075
102.824
66.9621
90.8168
88.2336
55.2575
45.9446
47.9942
42.1076
31.491
621.151
349.66
364.286
633.144
444.199
388.551
396.24
456.02
366.88
323.564
324.666
367.194
269.644
259.981
257.622
260.903
184.871
199.064
195.627
172.234
116.161
142.71
139.626
103.48
67.3568
91.7863
89.2495
55.8216
46.3004
48.3957
42.4678
31.9955
622.155
350.13
364.817
634.247
444.818
389.385
397.084
456.558
367.253
324.521
325.684
367.711
269.872
260.955
258.681
261.349
185.038
199.951
196.59
172.607
116.319
143.422
140.388
103.789
67.501
92.2571
89.7485
56.0816
46.4264
48.5902
42.6535
32.2432
)
;

boundaryField
{
    interface
    {
        type            calculated;
        value           nonuniform List<scalar> 
192
(
1013.05
480.508
454.713
313.465
204.698
114.421
57.8615
39.5887
966.943
515.202
451.14
316.729
205.271
115.635
58.8855
40.1842
981.028
501.786
445.315
313.506
203.819
115.683
59.3248
38.2081
996.198
496.128
441.472
310.975
202.933
116.387
61.3142
40.1509
1007.07
495.162
440.163
309.62
202.419
116.876
62.7992
42.0262
1014.22
495.805
440.146
309.091
202.081
117.009
63.5037
43.0703
1018.52
496.668
440.506
308.951
201.859
116.936
63.7014
43.4741
1020.55
497.19
440.774
308.935
201.744
116.844
63.7071
43.57
717.546
396.1
383.727
281.005
200.351
129.36
76.8682
49.2071
255.534
317.426
321.933
282.526
232.989
176.078
117.27
59.4543
252.503
300.231
315.104
279.311
231.038
174.463
115.589
56.4023
680.503
366.535
366.202
267.744
190.39
121.336
69.7781
41.5911
958.149
479.618
438.435
296.732
187.955
99.4831
44.4345
32.2096
939.203
530.563
441.668
299.974
186.015
97.9334
43.965
32.6653
961.09
522.116
440.556
299.059
185.261
97.8514
42.9653
25.6766
979.883
517.068
439.391
298.412
185.284
98.6553
44.1584
24.8796
992.781
515.826
439.553
298.464
185.646
99.4334
45.5183
26.255
1001.07
516.129
440.353
298.883
186.021
99.932
46.4369
27.6951
1005.98
516.746
441.152
299.319
186.293
100.183
46.9236
28.6077
1008.27
517.145
441.613
299.573
186.427
100.279
47.1199
29.0166
46.6054
45.5348
45.3621
46.3559
47.5778
48.3215
48.6816
48.7949
31.8536
32.9342
33.3757
33.634
33.8563
34.0174
34.1185
34.1678
24.7677
25.0394
23.2923
21.5932
20.6571
20.3144
20.241
20.2421
39.8387
38.1706
33.7426
31.9196
32.0366
32.6349
33.1449
33.4034
)
;
    }
    symmetry
    {
        type            symmetryPlane;
    }
    bottom
    {
        type            calculated;
        value           nonuniform List<scalar> 
32
(
594.033
504.521
492.278
493.681
496.635
499.012
500.558
501.307
206.999
225.709
231.91
233.242
233.32
233.188
233.094
233.054
211.631
234.613
242.039
243.856
244.374
244.626
244.803
244.9
602.104
511.544
493.761
493.109
495.988
498.86
500.875
501.881
)
;
    }
}


// ************************************************************************* //
