/*--------------------------------*- C++ -*----------------------------------*\
| =========                 |                                                 |
| \\      /  F ield         | foam-extend: Open Source CFD                    |
|  \\    /   O peration     | Version:     3.1                                |
|   \\  /    A nd           | Web:         http://www.extend-project.de       |
|    \\/     M anipulation  |                                                 |
\*---------------------------------------------------------------------------*/
FoamFile
{
    version     2.0;
    format      ascii;
    class       volScalarField;
    location    "0.8";
    object      sigmaCauchyEq;
}
// * * * * * * * * * * * * * * * * * * * * * * * * * * * * * * * * * * * * * //

dimensions      [1 -1 -2 0 0 0 0];

internalField   nonuniform List<scalar> 
256
(
744.06
282.941
256.948
442.409
427.528
332.471
312.672
384.795
382.01
304.566
289.541
324.615
275.169
259.531
250.782
243.727
189.027
208.69
203.562
169.619
118.153
155.231
152.463
106.615
67.9187
102.067
100.393
60.2272
43.884
50.9957
48.34
37.2016
710.281
321.959
299.527
441.936
455.508
358.39
336.814
405.755
377.071
296.57
282.273
326.13
271.025
241.932
231.296
238.502
181.665
187.464
180.64
160.133
110.813
135.976
132.081
96.8905
61.9521
87.8962
85.7931
52.8132
41.6908
45.3652
42.2487
34.4024
717.384
338.078
315.11
443.13
448.292
368.095
348.816
406.879
373.687
301.138
288.481
327.533
268.672
240.711
230.712
238.128
180.182
183.656
176.845
159.001
109.976
131.441
127.394
95.5929
61.4491
84.3827
82.0828
51.1471
41.1498
44.5178
40.4845
30.682
726.398
345.525
322.044
444.903
445.155
374.851
356.719
408.167
371.43
306.488
295.067
328.955
267.589
244.182
234.939
239.237
180.181
185.613
179.118
159.884
110.759
132.347
128.356
96.405
62.61
84.8217
82.4037
51.5982
42.2381
44.8952
40.1399
29.6254
733.223
349.226
325.429
446.477
444.913
379.389
361.748
410.087
370.749
310.826
300.193
330.65
267.322
247.986
239.347
240.721
180.604
188.678
182.524
161.215
111.731
134.6
130.73
97.6335
63.826
86.3037
83.8584
52.6119
43.4019
45.5777
40.4435
29.9913
737.868
351.192
327.208
447.632
445.626
382.273
364.822
411.812
370.867
313.857
303.682
332.16
267.414
250.915
242.696
242.032
180.975
191.258
185.384
162.349
112.387
136.637
132.902
98.6334
64.5936
87.6748
85.2631
53.4668
44.1228
46.1598
40.8824
30.6375
740.748
352.249
328.157
448.378
446.398
383.964
366.576
413.028
371.196
315.719
305.788
333.235
267.589
252.79
244.826
242.951
181.206
192.965
187.282
163.111
112.724
138.014
134.387
99.2728
64.9658
88.5993
86.235
54.0102
44.4644
46.542
41.2261
31.1239
742.129
352.722
328.579
448.743
446.852
384.746
367.373
413.644
371.425
316.596
306.77
333.783
267.705
253.689
245.844
243.415
181.31
193.793
188.206
163.484
112.854
138.686
135.118
99.5746
65.0986
89.0468
86.7126
54.2613
44.584
46.7262
41.4034
31.3633
)
;

boundaryField
{
    interface
    {
        type            calculated;
        value           nonuniform List<scalar> 
192
(
1165.42
504.547
474.521
318.594
203.683
111.85
55.8996
38.0867
1096.29
543.098
469.765
321.591
204.012
112.943
56.8634
38.6505
1108.75
525.337
461.749
317.477
202.263
112.938
57.3254
36.8077
1125.01
516.619
455.832
313.997
201.054
113.568
59.2799
38.7338
1137.23
513.914
453.098
311.883
200.256
113.986
60.7289
40.5646
1145.46
513.632
452.221
310.835
199.699
114.058
61.4094
41.5788
1150.49
514.037
452.112
310.383
199.331
113.94
61.594
41.9697
1152.89
514.374
452.178
310.224
199.145
113.825
61.5944
42.0623
791.935
392.796
388.293
278.523
196.422
125.452
74.01
47.135
257.039
309.616
314.123
274.249
225.591
170.101
113.133
57.1712
233.253
286.999
300.045
267.392
222.002
168.272
111.829
54.7938
572.896
344.439
336.752
251.294
180.801
116.608
67.6604
40.5419
769.828
424.122
391.149
272.47
176.449
95.0869
42.9945
31.2586
761.207
464.035
393.597
275.201
174.636
93.5923
42.5091
31.699
780.248
458.211
393.152
274.568
174.011
93.5173
41.5194
24.9371
795.968
455.573
393.06
274.34
174.144
94.3005
42.6601
24.1376
806.524
455.753
394.001
274.731
174.587
95.0587
43.9704
25.4573
813.196
456.802
395.25
275.366
175.022
95.5497
44.8589
26.8519
817.102
457.777
396.273
275.921
175.332
95.8018
45.3312
27.7384
818.905
458.317
396.824
276.227
175.486
95.8992
45.5223
28.136
44.5401
43.5398
43.4376
44.4474
45.6481
46.3711
46.7176
46.8247
30.5949
31.639
32.0812
32.3473
32.5708
32.7282
32.8246
32.871
24.0598
24.3191
22.6255
20.9742
20.0598
19.7212
19.6456
19.6444
38.8455
37.2041
32.9144
31.1175
31.2071
31.7752
32.2649
32.514
)
;
    }
    symmetry
    {
        type            symmetryPlane;
    }
    bottom
    {
        type            calculated;
        value           nonuniform List<scalar> 
32
(
692.898
580.816
568.767
572.155
576.699
580.147
582.342
583.397
208.697
225.934
232.231
233.663
233.802
233.706
233.631
233.601
194.297
215.067
221.137
222.341
222.53
222.584
222.643
222.684
467.248
397.587
378.629
374.713
374.813
375.719
376.513
376.938
)
;
    }
}


// ************************************************************************* //
