/*--------------------------------*- C++ -*----------------------------------*\
| =========                 |                                                 |
| \\      /  F ield         | foam-extend: Open Source CFD                    |
|  \\    /   O peration     | Version:     3.1                                |
|   \\  /    A nd           | Web:         http://www.extend-project.de       |
|    \\/     M anipulation  |                                                 |
\*---------------------------------------------------------------------------*/
FoamFile
{
    version     2.0;
    format      ascii;
    class       volSymmTensorField;
    location    "0.8";
    object      sigma;
}
// * * * * * * * * * * * * * * * * * * * * * * * * * * * * * * * * * * * * * //

dimensions      [1 -1 -2 0 0 0 0];

internalField   nonuniform List<symmTensor> 
256
(
(360.701 166.816 -7.60049 911.459 102.685 427.938)
(-22.8729 139.295 -20.7707 98.6835 41.3635 -6.42646)
(-224.271 125.948 -22.074 -390.333 -34.0854 -227.644)
(-597.56 127.748 -8.81101 -1152.7 -100.737 -638.459)
(-314.813 63.5584 -8.51747 143.772 -12.0137 -197.483)
(-185.45 172.834 -31.1966 -20.3467 -3.7392 -143.531)
(-102.287 169.17 -33.5761 -249.703 12.9953 -116.871)
(8.46225 62.5265 -11.0733 -424.773 23.2641 -74.0921)
(-175.51 76.7762 -3.48693 212.049 -1.30163 -76.9691)
(-179.663 162.011 -18.8641 -31.8972 0.981678 -132.164)
(-115.473 162.58 -19.818 -236.647 5.2454 -133.109)
(-112.457 77.7057 -4.37334 -472.493 9.20503 -180.439)
(-198.084 64.6583 -3.19298 83.2645 -9.77019 -119.902)
(-174.612 142.686 -13.3816 -64.1534 -1.98857 -137.344)
(-111.706 143.373 -13.8751 -199.742 5.58984 -126.116)
(-84.0806 65.9726 -3.82829 -339.92 14.3691 -138.023)
(-182.093 54.4065 -1.83076 5.80492 -9.70112 -123.33)
(-163.331 117.671 -8.43546 -86.6947 -2.42043 -135.289)
(-113.804 117.955 -8.84165 -173.718 3.71285 -127.012)
(-92.7436 55.0744 -2.33529 -259.554 11.4788 -134.623)
(-176.171 40.4463 -1.32409 -63.6611 -8.6646 -132.452)
(-155.405 89.0715 -5.13856 -105.807 -2.57121 -134.85)
(-114.883 89.149 -5.45005 -151.705 2.26463 -126.97)
(-93.6186 40.8978 -1.65878 -189.358 8.49538 -126.756)
(-170.677 25.1591 -1.21689 -108.009 -6.07636 -135.932)
(-150.007 58.9403 -2.7501 -118.866 -2.25961 -134.248)
(-115.645 58.9559 -2.90173 -135.89 1.02361 -127.542)
(-94.5639 25.717 -1.26117 -143.216 4.83214 -123.838)
(-176.524 9.80004 -0.908396 -130.045 -2.02722 -140.005)
(-160.278 27.322 -0.207575 -133.079 -0.87173 -142.093)
(-104.594 27.0281 -0.252567 -120.581 0.126958 -121.997)
(-88.0112 9.66851 -0.705745 -121.604 1.15804 -122.834)
(337.355 194.369 -6.001 856.751 71.7438 427.188)
(-34.8191 174.344 -17.3894 61.7479 28.4206 -10.4264)
(-228.745 162.996 -18.8436 -392.634 -24.5116 -232.924)
(-595.652 157.871 -7.56762 -1141.6 -73.0449 -648.028)
(-236.298 71.6989 -9.62172 243.701 14.4209 -95.2652)
(-134.81 187.443 -31.1354 31.184 8.44724 -84.6134)
(-155.029 184.799 -33.3467 -321.408 7.80475 -165.361)
(-73.3066 71.6151 -11.8129 -544.904 3.60032 -163.306)
(-172.177 72.5164 -5.83988 213.157 -0.334404 -72.2361)
(-163.092 157.05 -22.7901 -20.8486 3.38294 -116.423)
(-130.489 157.118 -23.9906 -252.665 10.5881 -140.88)
(-116.124 72.5302 -7.60797 -479.217 16.1278 -177.628)
(-183.599 58.0426 -3.09406 96.7856 -8.84536 -106.574)
(-158.708 131.211 -14.1479 -50.788 -0.133422 -123.332)
(-125.948 131.441 -15.0242 -210.514 9.99553 -135.101)
(-97.735 58.6817 -4.64707 -351.376 20.0198 -146.482)
(-176.373 46.328 -0.474461 9.03377 -11.6891 -120.36)
(-153.9 104.311 -7.29846 -78.997 -2.10933 -128.253)
(-121.771 104.36 -8.00737 -175.91 7.84443 -130.7)
(-97.8416 46.6758 -1.77022 -258.204 18.0938 -134.887)
(-172.547 33.4083 1.14925 -62.5216 -10.9187 -131.533)
(-149.85 77.2326 -2.33157 -101.641 -2.7468 -131.466)
(-119.635 77.2604 -2.8448 -150.945 5.27883 -128.457)
(-97.1766 33.8347 0.227078 -186.386 13.6573 -126.464)
(-169.929 20.069 2.06208 -109.497 -7.56128 -137.768)
(-148.438 50.3532 1.18457 -118.699 -2.31749 -134.652)
(-117.732 50.4461 0.917708 -134.02 2.94292 -127.303)
(-96.1005 20.8339 1.63547 -139.875 8.17709 -122.411)
(-175.75 7.83052 2.96166 -130.342 -2.78754 -142.382)
(-160.143 23.4019 4.23784 -133.709 -0.858222 -144.422)
(-106.855 23.1691 4.1304 -120.474 1.18048 -122.85)
(-90.7838 7.79882 2.91702 -121.619 3.00976 -123.513)
(354.601 206.381 -4.14714 881.634 44.0584 464.863)
(-33.1079 186.597 -11.8076 60.5334 17.6317 -1.02273)
(-235.186 176.079 -12.9331 -404.815 -14.9762 -245.662)
(-624.151 171.039 -5.57983 -1186.19 -45.0642 -694.039)
(-238.246 75.9658 -7.83084 241.419 16.0957 -61.9453)
(-132.647 196.367 -22.3661 31.2774 9.28783 -67.6676)
(-160.355 193.921 -23.9797 -336.016 5.63882 -181.368)
(-74.6887 75.1411 -9.58627 -554.999 0.0385529 -195.144)
(-172.511 73.6563 -5.90293 215.304 5.13933 -48.6112)
(-162.431 161.122 -17.9974 -19.3161 5.69418 -104.178)
(-132.038 161.204 -18.8473 -261.017 9.20544 -148.748)
(-118.592 73.4757 -6.99323 -489.987 11.0449 -198.909)
(-183.746 57.7426 -3.34582 98.2794 -2.47197 -93.6475)
(-158.256 130.859 -11.6347 -49.243 2.4097 -115.502)
(-127.11 131.124 -12.281 -214.147 9.39439 -138.351)
(-100.009 58.3884 -4.25646 -357.351 15.2933 -157.106)
(-178.201 44.9116 -0.964793 8.99247 -6.08889 -117.065)
(-153.859 101.923 -5.72925 -77.4773 0.193985 -124.042)
(-122.648 102.06 -6.23072 -177.106 7.79288 -131.138)
(-98.1339 45.3984 -1.68012 -259.87 14.64 -136.377)
(-174.941 31.7537 0.806234 -63.0172 -6.5919 -134.665)
(-150.142 74.2731 -1.13214 -100.567 -0.885966 -130.173)
(-120.188 74.4426 -1.47546 -150.818 5.56939 -127.159)
(-96.457 32.4112 0.328409 -186.039 11.4834 -122.154)
(-172.318 18.6206 1.96733 -109.84 -4.82468 -144.976)
(-148.885 47.9675 2.22545 -118.039 -1.00363 -135.538)
(-117.976 48.2255 2.04865 -133.422 3.35138 -125.078)
(-94.643 19.6751 1.75441 -138.698 7.20901 -114.492)
(-178.825 7.43829 2.87889 -132.108 -1.77005 -153.131)
(-160.257 22.5213 4.72392 -133.039 -0.375113 -146.452)
(-106.781 22.381 4.6302 -119.445 1.29771 -119.68)
(-87.5458 7.5187 2.83014 -118.026 2.65104 -111.712)
(365.871 212.357 -2.65493 901.039 27.0234 489.266)
(-31.9712 191.849 -7.59597 61.5258 11.1308 4.7601)
(-239.6 181.698 -8.35647 -413.215 -8.73509 -254.698)
(-643.278 177.466 -3.65472 -1217.48 -26.944 -725.944)
(-241.828 78.2692 -5.35996 239.066 13.4627 -40.971)
(-133.361 202.08 -14.9567 29.9235 7.95709 -58.8111)
(-161.392 199.799 -16.0361 -342.177 4.18592 -190.914)
(-73.0452 77.24 -6.57889 -558.851 -0.663178 -217.372)
(-174.1 75.6209 -4.48046 214.969 7.16476 -29.7544)
(-163.916 165.52 -12.8265 -20.6321 6.05597 -96.7452)
(-131.511 165.654 -13.3804 -265.033 7.05893 -154.304)
(-118.523 75.3933 -5.18836 -495.667 6.69079 -216.8)
(-185.359 58.8735 -2.74788 98.0117 1.98709 -81.2174)
(-159.534 133.527 -8.64074 -49.9281 3.78246 -109.981)
(-126.747 133.882 -9.03841 -216.529 7.48193 -140.873)
(-99.4008 59.5918 -3.28906 -360.943 9.9577 -166.996)
(-179.659 45.4133 -0.939411 9.11398 -1.15258 -111.175)
(-154.913 103.229 -4.30094 -77.5641 1.93109 -120.722)
(-122.492 103.473 -4.58842 -178.357 6.44812 -131.429)
(-97.461 46.0287 -1.32761 -261.932 9.96259 -139.477)
(-176.217 31.8378 0.53239 -62.4241 -2.33408 -134.189)
(-150.996 74.7168 -0.686493 -100.264 0.74317 -128.896)
(-120.048 75.0018 -0.869547 -151.252 4.81691 -125.922)
(-95.716 32.6464 0.300265 -187.079 8.10418 -120.238)
(-173.119 18.4859 1.56541 -108.659 -2.00106 -148.187)
(-149.474 48.0662 2.0252 -117.475 0.174671 -135.793)
(-117.74 48.4303 1.9372 -133.305 3.05089 -122.848)
(-93.9697 19.6915 1.48844 -139.183 5.31784 -109.325)
(-179.726 7.46905 2.32676 -131.555 -0.814865 -158.971)
(-160.616 22.6286 3.89064 -132.408 0.0366727 -147.556)
(-106.418 22.5427 3.83225 -118.99 1.23505 -116.657)
(-86.3687 7.60045 2.32389 -117.32 2.09081 -103.921)
(372.178 215.513 -1.63129 913.159 16.677 503.334)
(-31.4585 194.317 -4.72813 62.4047 7.12802 7.91053)
(-242.544 184.326 -5.20103 -418.617 -4.90588 -260.606)
(-654.729 180.782 -2.26679 -1236.85 -15.8542 -745.476)
(-244.601 79.6052 -3.43776 238.414 10.1926 -28.5867)
(-134.053 205.56 -9.57918 29.3151 6.15939 -53.8456)
(-161.944 203.385 -10.2529 -345.681 3.04651 -197.106)
(-71.5626 78.4937 -4.21595 -561.542 -0.651585 -231.548)
(-175.867 77.1056 -3.05797 214.403 6.89676 -17.675)
(-165.103 168.861 -8.59156 -21.8175 5.31835 -92.191)
(-131.07 169.052 -8.93741 -267.405 5.08808 -158.193)
(-117.81 76.8918 -3.50319 -499.004 3.90309 -228.889)
(-187.089 60.073 -1.96727 97.1451 3.80834 -72.3676)
(-160.562 136.283 -5.97088 -50.8427 3.95044 -106.211)
(-126.369 136.707 -6.20738 -218.199 5.49792 -142.815)
(-98.4072 60.8558 -2.28323 -363.135 6.0523 -174.366)
(-181.077 46.2898 -0.729269 8.6641 1.56695 -106.166)
(-155.754 105.258 -3.02331 -78.0345 2.62492 -118.17)
(-122.21 105.573 -3.18382 -179.385 4.86858 -131.75)
(-96.5592 46.9875 -0.936447 -263.341 6.23201 -142.385)
(-177.359 32.388 0.337428 -62.3602 0.317396 -132.789)
(-151.619 76.0716 -0.443639 -100.272 1.58656 -127.586)
(-119.796 76.4206 -0.539719 -151.728 3.75609 -125.065)
(-94.8495 33.2798 0.227826 -187.805 5.21642 -119.501)
(-173.867 18.758 1.11536 -108.068 -0.0943484 -149.406)
(-149.868 48.8972 1.53472 -117.131 0.856993 -135.444)
(-117.421 49.3147 1.48917 -133.307 2.45985 -121.134)
(-93.1673 20.0403 1.09128 -139.417 3.52949 -106.022)
(-180.548 7.61703 1.69127 -131.241 -0.0684498 -161.987)
(-160.943 23.0268 2.85797 -131.994 0.303522 -147.736)
(-105.834 22.9669 2.81283 -118.566 1.00777 -114.087)
(-85.0913 7.77395 1.68634 -116.669 1.41559 -98.4509)
(375.731 217.248 -0.950045 920.549 10.0546 511.321)
(-31.2581 195.566 -2.80733 63.012 4.45797 9.57128)
(-244.415 185.645 -3.08155 -421.983 -2.61891 -264.29)
(-661.504 182.572 -1.32769 -1248.58 -9.02227 -757.082)
(-246.399 80.375 -2.06261 238.615 7.0461 -21.4852)
(-134.566 207.612 -5.80337 29.1402 4.32797 -51.1253)
(-162.328 205.491 -6.19538 -347.822 2.08431 -201.006)
(-70.6325 79.2113 -2.52508 -563.601 -0.469275 -240.185)
(-177.131 78.0807 -1.90756 214.264 5.45083 -10.3599)
(-165.899 171.085 -5.36727 -22.5455 4.03218 -89.5133)
(-130.822 171.31 -5.56941 -268.889 3.41317 -160.752)
(-117.231 77.8838 -2.17395 -501.22 2.19635 -236.489)
(-188.357 60.9714 -1.2605 96.4933 3.76474 -66.6685)
(-161.258 138.357 -3.81071 -51.5514 3.28795 -103.827)
(-126.1 138.822 -3.94467 -219.295 3.72525 -144.147)
(-97.598 61.7954 -1.44189 -364.505 3.48424 -179.219)
(-182.132 47.0314 -0.480452 8.12743 2.35457 -102.583)
(-156.322 106.973 -1.95297 -78.5059 2.44302 -116.401)
(-121.964 107.327 -2.03985 -180.09 3.35948 -132.003)
(-95.7984 47.7754 -0.591863 -264.152 3.6478 -144.515)
(-178.19 32.9162 0.216961 -62.5673 1.36256 -131.324)
(-152.03 77.3412 -0.271468 -100.409 1.67425 -126.496)
(-119.552 77.7236 -0.321688 -152.054 2.6494 -124.485)
(-94.1359 33.8514 0.163779 -188.147 3.11067 -119.297)
(-174.431 19.0584 0.738429 -107.89 0.755806 -149.535)
(-150.121 49.7176 1.03974 -116.973 1.01602 -134.874)
(-117.12 50.1616 1.01402 -133.285 1.77068 -119.899)
(-92.4997 20.3773 0.731025 -139.421 2.1413 -104.082)
(-181.027 7.73981 1.14772 -130.979 0.283458 -162.96)
(-161.158 23.3924 1.9299 -131.732 0.375153 -147.357)
(-105.317 23.3457 1.89256 -118.251 0.730403 -112.198)
(-84.2043 7.90969 1.13543 -116.292 0.86621 -95.1822)
(377.668 218.193 -0.491056 924.818 5.40796 515.648)
(-31.1863 196.211 -1.47594 63.3933 2.46741 10.4097)
(-245.512 186.322 -1.61614 -423.943 -1.25147 -266.419)
(-665.309 183.534 -0.688569 -1255.28 -4.60663 -763.574)
(-247.481 80.7974 -1.08742 238.993 4.12272 -17.6882)
(-134.901 208.753 -3.09036 29.1354 2.55869 -49.7201)
(-162.572 206.657 -3.29094 -349.076 1.2197 -203.278)
(-70.0882 79.5994 -1.3279 -564.975 -0.270349 -245.039)
(-177.922 78.6552 -1.02969 214.34 3.43539 -6.28972)
(-166.381 172.406 -2.91342 -22.9224 2.49034 -88.0501)
(-130.696 172.648 -3.01703 -269.772 1.96248 -162.285)
(-116.86 78.4671 -1.16912 -502.618 1.11281 -240.853)
(-189.159 61.5352 -0.690359 96.1292 2.62385 -63.3733)
(-161.677 139.666 -2.09611 -51.9834 2.13629 -102.453)
(-125.934 140.153 -2.16364 -219.952 2.15308 -144.961)
(-97.0671 62.381 -0.783319 -365.325 1.78635 -182.074)
(-182.812 47.5216 -0.264907 7.72081 1.86759 -100.375)
(-156.663 108.114 -1.08144 -78.8369 1.67741 -115.309)
(-121.792 108.487 -1.1241 -180.509 1.96374 -132.163)
(-95.2802 48.2892 -0.319744 -264.576 1.88607 -145.833)
(-178.733 33.2803 0.123798 -62.8227 1.25277 -130.245)
(-152.276 78.2178 -0.143554 -100.545 1.21409 -125.738)
(-119.372 78.6157 -0.167955 -152.235 1.56979 -124.119)
(-93.641 34.2366 0.0994799 -188.252 1.62488 -119.259)
(-174.82 19.2711 0.418029 -107.913 0.780028 -149.312)
(-150.269 50.2887 0.596363 -116.914 0.77027 -134.356)
(-116.899 50.7443 0.582294 -133.248 1.06113 -119.1)
(-92.0213 20.6058 0.415488 -139.313 1.12634 -102.997)
(-181.32 7.81752 0.663002 -130.855 0.303522 -163.066)
(-161.287 23.64 1.11362 -131.59 0.288428 -146.863)
(-104.945 23.5985 1.08792 -118.032 0.438664 -110.96)
(-83.6133 7.99304 0.650203 -116.029 0.454639 -93.3365)
(378.531 218.615 -0.151513 926.786 1.70933 517.554)
(-31.1641 196.492 -0.45935 63.5783 0.792084 10.7602)
(-246.017 186.616 -0.50218 -424.846 -0.367111 -267.392)
(-667.028 183.961 -0.212649 -1258.35 -1.41179 -766.49)
(-247.988 80.9848 -0.338903 239.242 1.35626 -16.046)
(-135.065 209.263 -0.967796 29.1621 0.845936 -49.1273)
(-162.689 207.176 -1.02902 -349.658 0.402005 -204.321)
(-69.8361 79.7697 -0.412883 -565.658 -0.0873003 -247.211)
(-178.296 78.9196 -0.324609 214.433 1.16862 -4.48308)
(-166.608 173.015 -0.92087 -23.0762 0.839979 -87.4095)
(-130.643 173.265 -0.952468 -270.185 0.640439 -162.999)
(-116.684 78.7346 -0.367607 -503.298 0.339854 -242.832)
(-189.541 61.8026 -0.219165 95.9799 0.930088 -61.8776)
(-161.872 140.289 -0.666827 -52.1802 0.737018 -101.829)
(-125.855 140.784 -0.68729 -220.259 0.704221 -145.344)
(-96.8098 62.6573 -0.247625 -365.714 0.548303 -183.384)
(-183.14 47.7595 -0.0843563 7.51478 0.693681 -99.3358)
(-156.822 108.669 -0.345136 -79.0005 0.59252 -114.793)
(-121.705 109.05 -0.357926 -180.701 0.645786 -132.238)
(-95.0232 48.5365 -0.100876 -264.755 0.580879 -146.453)
(-178.996 33.4595 0.0400081 -62.9779 0.487112 -129.686)
(-152.391 78.6511 -0.0447965 -100.624 0.438452 -125.353)
(-119.277 79.0548 -0.0521174 -152.312 0.51955 -123.94)
(-93.3925 34.4241 0.0329517 -188.268 0.502566 -119.26)
(-175.011 19.3755 0.134358 -107.963 0.312764 -149.114)
(-150.337 50.5705 0.193446 -116.897 0.282872 -134.06)
(-116.784 51.0297 0.188855 -133.219 0.352968 -118.706)
(-91.7788 20.7151 0.133623 -139.228 0.348988 -102.512)
(-181.45 7.8537 0.215498 -130.807 0.121458 -162.961)
(-161.345 23.7614 0.363431 -131.529 0.105984 -146.546)
(-104.757 23.7202 0.35418 -117.92 0.146107 -110.348)
(-83.3303 8.02997 0.210084 -115.899 0.1407 -92.5126)
)
;

boundaryField
{
    interface
    {
        type            calculated;
        value           nonuniform List<symmTensor> 
192
(
(-190.231 -0.117922 3.20527 934.167 127.146 200.116)
(-175.011 -0.24452 4.3098 342.729 -12.6048 -87.3563)
(-175.493 -0.579862 4.543 329.673 -1.77536 -46.5913)
(-171.591 -0.863294 4.39011 175.134 -13.8625 -84.6016)
(-168.457 -1.14385 4.10175 59.4949 -13.9531 -102.35)
(-165.291 -1.46244 3.69866 -37.3222 -12.3543 -118.766)
(-162.254 -1.93395 3.15849 -98.0793 -8.26166 -126.524)
(-158.603 -2.71093 2.39948 -116.752 -2.66704 -123.787)
(-196.065 -0.0246954 2.10676 895.391 89.7563 217.983)
(-182.567 -0.213647 2.83673 388.45 19.4888 -37.4991)
(-181.249 -0.576659 2.95091 320.529 -0.793561 -51.4503)
(-177.448 -0.941781 2.83408 174.067 -12.7016 -86.1576)
(-173.854 -1.30967 2.62518 54.1403 -16.4057 -107.992)
(-170.166 -1.74174 2.3391 -41.8644 -15.1349 -123.696)
(-166.239 -2.37364 1.96197 -101.775 -10.204 -130.856)
(-161.044 -3.346 1.4759 -118.131 -3.69822 -127.24)
(-201.066 -0.0028614 1.43539 919.405 55.0082 250.813)
(-186.565 -0.220732 1.92029 380.352 20.7072 -0.295233)
(-185.043 -0.616215 1.98416 317.516 6.12336 -27.3388)
(-180.887 -1.0291 1.89348 171.771 -4.02632 -74.8971)
(-176.892 -1.45529 1.74316 52.0239 -8.67479 -107.146)
(-172.75 -1.95948 1.54176 -42.9757 -9.12664 -129.842)
(-168.206 -2.67918 1.28343 -101.617 -6.49776 -141.288)
(-162.046 -3.72609 0.971154 -118.858 -2.33285 -140.792)
(-204.562 -0.00423673 1.01667 938.553 33.5136 272.107)
(-189.379 -0.240412 1.35696 377.153 16.8634 26.3222)
(-187.726 -0.659416 1.39576 315.527 8.65081 -4.7866)
(-183.298 -1.1037 1.32461 170.317 1.93385 -60.3659)
(-178.988 -1.56853 1.21329 51.308 -2.05108 -100.993)
(-174.487 -2.11903 1.06844 -42.7519 -3.41804 -130.493)
(-169.5 -2.89145 0.88797 -100.475 -2.76245 -146.638)
(-162.71 -3.9766 0.676991 -118.188 -1.06963 -149.004)
(-206.947 -0.0101507 0.71524 950.788 20.5326 284.37)
(-191.359 -0.259859 0.954513 376.903 12.5472 42.5839)
(-189.611 -0.696473 0.979232 314.788 8.29486 10.4493)
(-184.988 -1.16256 0.925517 169.211 4.37688 -49.21)
(-180.454 -1.65341 0.844461 50.64 1.58238 -94.9457)
(-175.691 -2.23415 0.741498 -42.7976 0.100067 -129.192)
(-170.39 -3.04015 0.616044 -99.8923 -0.264866 -148.823)
(-163.174 -4.14792 0.471851 -117.701 -0.0916876 -153.205)
(-208.536 -0.0157308 0.477001 958.332 12.3002 291.239)
(-192.707 -0.275224 0.636711 377.629 8.57672 51.9852)
(-190.896 -0.724624 0.652354 314.831 6.52738 19.7972)
(-186.139 -1.20568 0.615003 168.595 4.42547 -41.8753)
(-181.451 -1.71378 0.55971 50.0462 2.69464 -90.4449)
(-176.51 -2.31419 0.490582 -43.0783 1.51559 -127.524)
(-170.998 -3.14184 0.407406 -99.7605 0.856864 -149.318)
(-163.504 -4.26353 0.312224 -117.382 0.36602 -154.74)
(-209.515 -0.0198119 0.272902 962.711 6.58549 294.89)
(-193.548 -0.285574 0.363787 378.409 4.98519 57.032)
(-191.699 -0.743198 0.372608 315.117 4.10163 25.0108)
(-186.859 -1.23373 0.350934 168.319 3.10268 -37.6134)
(-182.074 -1.75251 0.319005 49.6288 2.18501 -87.6394)
(-177.023 -2.36505 0.279369 -43.3886 1.45596 -126.237)
(-171.381 -3.20637 0.231299 -99.832 0.925279 -149.203)
(-163.715 -4.33534 0.174512 -117.239 0.391951 -155.075)
(-209.973 -0.0231657 0.0882497 964.74 2.07661 296.479)
(-193.937 -0.29143 0.117308 378.874 1.63502 59.2285)
(-192.071 -0.752148 0.120174 315.338 1.39322 27.3311)
(-187.193 -1.24709 0.113201 168.234 1.10162 -35.672)
(-182.364 -1.77099 0.102887 49.4282 0.81648 -86.3096)
(-177.261 -2.38993 0.0900935 -43.5698 0.571977 -125.557)
(-171.553 -3.24004 0.0742114 -99.9059 0.374449 -149.02)
(-163.782 -4.36871 0.0543616 -117.172 0.156684 -155.025)
(-10.0058 147.284 -5.13765 575.693 -0.25166 -155.829)
(-301.698 58.2896 -7.18526 135.067 -0.575076 -142.254)
(-227.241 81.0887 -7.63747 164.363 -0.620048 -142.473)
(-220.817 70.503 -7.4933 62.3125 -0.675801 -140.574)
(-198.072 61.009 -7.20289 -6.83456 -0.734161 -139.713)
(-183.324 45.9947 -6.8345 -67.5079 -0.809785 -139.032)
(-173.141 29.0404 -6.43859 -107.32 -0.920836 -138.656)
(-175.702 11.4221 -6.16431 -127.622 -1.05968 -138.288)
(-105.279 112.842 -4.2156 38.9296 -0.19708 -140.168)
(-197.087 163.67 -6.18919 -34.4262 -0.397546 -136.634)
(-191.681 168.618 -6.54895 -37.7301 -0.477251 -135.668)
(-181.338 152.655 -6.46934 -67.7357 -0.520454 -134.771)
(-168.318 128.367 -6.2673 -89.1499 -0.55576 -134.251)
(-158.325 98.1393 -6.00967 -106.707 -0.596407 -133.903)
(-151.188 65.4116 -5.7354 -118.219 -0.6639 -133.687)
(-155.215 30.443 -5.62478 -127.019 -0.761812 -133.271)
(-155.686 98.1333 -4.00881 -327.004 -0.156504 -128.179)
(-88.1134 158.971 -6.06431 -222.582 -0.380248 -129.828)
(-101.383 169.696 -6.43791 -225.579 -0.477249 -128.747)
(-105.024 153.796 -6.40069 -197.48 -0.519772 -128.453)
(-109.756 128.917 -6.22028 -175.097 -0.536138 -128.251)
(-112.888 98.3374 -5.97435 -154.355 -0.546223 -128.229)
(-114.878 65.4447 -5.69503 -138.274 -0.578581 -128.313)
(-108.308 30.143 -5.54596 -125.855 -0.676845 -128.521)
(-254.199 106.557 -4.1203 -826.95 -0.266026 -112.864)
(10.0841 55.5967 -6.45912 -390.131 -0.660351 -120.599)
(-60.5422 82.805 -6.84559 -422.457 -0.674727 -118.395)
(-62.4188 72.47 -6.85267 -321.818 -0.660682 -119.159)
(-78.3001 62.065 -6.6743 -251.533 -0.614537 -119.636)
(-87.1192 46.6085 -6.40435 -188.899 -0.558538 -120.347)
(-92.2648 29.5821 -6.06477 -145.526 -0.508128 -121.123)
(-87.3338 11.2686 -5.7765 -123.185 -0.511584 -122.112)
(-90.3037 0.561291 2.34601 -1140.95 -128.799 -414.72)
(-95.7893 0.637563 3.58614 -602.806 24.4908 -161.161)
(-94.3669 0.472578 3.77798 -574.245 10.7121 -196.013)
(-95.7766 0.220841 3.79684 -417.669 19.26 -160.894)
(-97.1464 -0.0294542 3.70763 -302.756 16.1409 -147.057)
(-98.7915 -0.311441 3.53708 -208.637 12.2947 -134.846)
(-100.379 -0.773105 3.2765 -148.865 6.98896 -130.167)
(-102.047 -1.78858 2.8334 -130.934 1.70594 -135.706)
(-88.7452 0.291653 1.28428 -1136.03 -93.9186 -430.656)
(-94.6228 0.316578 1.98768 -669.149 -0.845167 -197.704)
(-94.8519 0.149914 2.0969 -574.214 17.7186 -186.971)
(-96.178 -0.084442 2.09407 -419.452 24.7702 -159.068)
(-97.3785 -0.34683 2.04047 -297.419 23.2542 -143.047)
(-98.6357 -0.660999 1.94035 -203.515 17.9675 -132.1)
(-99.7141 -1.20185 1.78799 -145.037 10.7525 -127.989)
(-100.621 -2.42012 1.5769 -129.111 3.81908 -134.6)
(-86.827 0.183153 0.84599 -1174.08 -57.9945 -466.091)
(-93.3093 0.170239 1.35242 -670.755 -4.09639 -232.143)
(-93.7568 0.00828429 1.44101 -580.145 10.9106 -209.294)
(-95.2212 -0.218362 1.44079 -422.713 17.5343 -169.137)
(-96.4633 -0.489221 1.39871 -297.987 17.586 -143.109)
(-97.6746 -0.827653 1.32334 -203.182 14.114 -125.506)
(-98.6313 -1.41735 1.21456 -144.543 8.85995 -117.211)
(-99.3812 -2.72526 1.08073 -126.509 3.16376 -120.125)
(-85.1966 0.155619 0.621867 -1200.85 -34.671 -491.171)
(-91.8369 0.118393 1.00695 -671.929 -3.83814 -259.687)
(-92.3184 -0.0587799 1.08223 -584.209 5.69688 -231.042)
(-93.8583 -0.296645 1.08538 -425.677 10.476 -181.415)
(-95.168 -0.582378 1.05178 -299.706 11.1457 -146.679)
(-96.424 -0.942052 0.99133 -204.126 9.31154 -122.574)
(-97.3893 -1.56743 0.907252 -145.014 6.12318 -109.954)
(-98.1387 -2.93636 0.808968 -125.717 2.34503 -109.866)
(-84.0042 0.146609 0.4485 -1217.47 -20.4502 -506.499)
(-90.6811 0.0952286 0.727458 -673.889 -2.91062 -277.639)
(-91.1654 -0.0966714 0.78446 -587.235 2.7684 -246.369)
(-92.7408 -0.348139 0.788436 -427.807 5.76981 -191.159)
(-94.0966 -0.64838 0.764024 -301.081 6.4254 -150.625)
(-95.3988 -1.02479 0.71939 -204.839 5.5594 -121.715)
(-96.3906 -1.6752 0.658289 -145.247 3.7773 -105.681)
(-97.1537 -3.08701 0.58904 -125.197 1.46796 -103.213)
(-83.1773 0.142571 0.303497 -1227.53 -11.6925 -515.479)
(-89.8526 0.0825217 0.491758 -675.777 -1.96385 -288.493)
(-90.3321 -0.120166 0.530942 -589.49 1.25684 -256.031)
(-91.9246 -0.382677 0.534326 -429.255 2.98988 -197.668)
(-93.3089 -0.694246 0.518014 -301.903 3.44827 -153.648)
(-94.6442 -1.08268 0.48784 -205.147 3.0617 -121.685)
(-95.6579 -1.7501 0.446608 -145.217 2.11867 -103.377)
(-96.4291 -3.19099 0.399919 -124.895 0.821078 -99.4264)
(-82.6528 0.140653 0.175256 -1233.29 -6.00197 -520.416)
(-89.317 0.0754019 0.283407 -677.142 -1.12144 -294.526)
(-89.7907 -0.134266 0.306036 -590.985 0.512448 -261.538)
(-91.3911 -0.404288 0.308146 -430.155 1.39412 -201.493)
(-92.792 -0.723394 0.298769 -302.33 1.64934 -155.547)
(-94.1478 -1.11966 0.281555 -205.21 1.48887 -121.839)
(-95.1752 -1.79856 0.25735 -145.07 1.03627 -102.19)
(-95.9567 -3.25659 0.226529 -124.686 0.393742 -97.402)
(-82.403 0.139067 0.0569492 -1235.92 -1.84598 -522.606)
(-89.0622 0.0714656 0.0918898 -677.846 -0.363754 -297.208)
(-89.5339 -0.141152 0.0991789 -591.733 0.134864 -264.022)
(-91.1382 -0.414746 0.0998577 -430.594 0.403653 -203.246)
(-92.5476 -0.737348 0.0967888 -302.516 0.484355 -156.448)
(-93.9113 -1.1377 0.091288 -205.203 0.440719 -121.955)
(-94.9433 -1.82554 0.0831621 -144.963 0.306731 -101.691)
(-95.7698 -3.28727 0.0708503 -124.607 0.114932 -96.5575)
(-183.805 6.6227 -0.507825 -135.377 -0.337534 -142.845)
(-182.353 6.72924 3.56404 -134.444 -0.299134 -145.067)
(-183.507 6.95844 3.34633 -133.62 -0.228543 -155.073)
(-184.194 7.15648 2.67823 -133.007 -0.169068 -161.518)
(-184.904 7.30898 1.9543 -132.574 -0.123084 -164.907)
(-185.361 7.41962 1.34496 -132.289 -0.0858713 -166.028)
(-185.63 7.49177 0.787783 -132.125 -0.0564807 -166.129)
(-185.773 7.5258 0.258166 -132.1 -0.0219207 -166.021)
(-164.147 5.83043 1.3092 -129.867 0.310046 -141.92)
(-163.287 5.80171 5.80025 -129.07 0.160975 -144.046)
(-163.153 5.95602 5.80551 -128.398 0.110988 -146.43)
(-163.466 6.10147 4.61724 -127.857 0.0835566 -147.809)
(-163.805 6.21644 3.35034 -127.464 0.0600821 -148.109)
(-164.04 6.30105 2.26761 -127.194 0.0398113 -147.709)
(-164.175 6.35819 1.31781 -127.023 0.0211662 -147.138)
(-164.23 6.39148 0.432397 -126.94 0.00600148 -146.762)
(-102.773 5.51005 1.27159 -125.589 0.606961 -125.404)
(-104.618 5.47274 5.72181 -124.76 0.391416 -126.271)
(-104.867 5.61273 5.71555 -124.128 0.284933 -122.955)
(-104.487 5.74837 4.547 -123.615 0.216423 -119.58)
(-103.86 5.85682 3.28615 -123.232 0.158692 -116.691)
(-103.288 5.93676 2.21091 -122.958 0.10845 -114.561)
(-102.879 5.98992 1.27815 -122.779 0.0633062 -113.167)
(-102.669 6.01813 0.418107 -122.686 0.0208413 -112.475)
(-83.4139 5.33345 -0.241846 -119.71 0.897429 -124.171)
(-85.4592 5.35212 3.62752 -118.531 0.609012 -124.582)
(-84.0637 5.52038 3.3277 -117.796 0.445502 -113.576)
(-83.0067 5.67462 2.67469 -117.172 0.338238 -105.092)
(-81.7745 5.79499 1.93047 -116.688 0.248887 -99.037)
(-80.8237 5.88206 1.30918 -116.329 0.170788 -95.3298)
(-80.1837 5.9386 0.756884 -116.09 0.10043 -93.2298)
(-79.8711 5.96591 0.246058 -115.965 0.033362 -92.2857)
)
;
    }
    symmetry
    {
        type            symmetryPlane;
    }
    bottom
    {
        type            calculated;
        value           nonuniform List<symmTensor> 
32
(
(447.802 211.284 0 671.704 237.221 447.802)
(409.635 234.9 0 614.453 125.243 409.635)
(422.775 247.146 0 634.162 69.304 422.775)
(433.277 253.037 0 649.916 39.6052 433.277)
(439.759 256.059 0 659.638 23.0984 439.759)
(443.676 257.726 0 665.514 13.327 443.676)
(445.922 258.651 0 668.883 6.95517 445.922)
(446.954 259.071 0 670.43 2.16513 446.954)
(20.0039 90.0256 0 30.0059 78.3893 20.0039)
(0.29882 123.14 0 0.44823 42.6394 0.29882)
(1.18984 131.715 0 1.78476 24.0506 1.18984)
(2.29928 133.929 0 3.44891 14.0202 2.29928)
(2.99342 134.444 0 4.49013 8.37892 2.99342)
(3.40653 134.536 0 5.1098 4.9673 3.40653)
(3.64118 134.546 0 5.46177 2.65459 3.64118)
(3.74873 134.547 0 5.6231 0.837849 3.74873)
(-221.436 71.8513 0 -332.154 -75.3691 -221.436)
(-224.963 109.093 0 -337.444 -47.2128 -224.963)
(-233.142 118.992 0 -349.712 -28.9659 -233.142)
(-238.175 121.618 0 -357.263 -17.426 -238.175)
(-241.305 122.267 0 -361.957 -10.2329 -241.305)
(-243.24 122.408 0 -364.86 -5.75781 -243.24)
(-244.365 122.44 0 -366.548 -2.89536 -244.365)
(-244.884 122.45 0 -367.325 -0.877768 -244.884)
(-596.755 152.815 0 -895.133 -260.411 -596.755)
(-592.863 187.198 0 -889.295 -151.301 -592.863)
(-620.206 203.33 0 -930.309 -88.7054 -620.206)
(-638.362 210.685 0 -957.543 -52.0112 -638.362)
(-649.306 214.36 0 -973.959 -30.2962 -649.306)
(-655.857 216.366 0 -983.785 -17.1445 -655.857)
(-659.579 217.475 0 -989.368 -8.72891 -659.579)
(-661.273 217.977 0 -991.91 -2.67225 -661.273)
)
;
    }
}


// ************************************************************************* //
