/*--------------------------------*- C++ -*----------------------------------*\
| =========                 |                                                 |
| \\      /  F ield         | foam-extend: Open Source CFD                    |
|  \\    /   O peration     | Version:     3.1                                |
|   \\  /    A nd           | Web:         http://www.extend-project.de       |
|    \\/     M anipulation  |                                                 |
\*---------------------------------------------------------------------------*/
FoamFile
{
    version     2.0;
    format      ascii;
    class       volVectorField;
    location    "0.8";
    object      U;
}
// * * * * * * * * * * * * * * * * * * * * * * * * * * * * * * * * * * * * * //

dimensions      [0 1 -1 0 0 0 0];

internalField   nonuniform List<vector> 
256
(
(0.00046301 0.000614271 0.000523065)
(7.99139e-05 0.000205831 -0.000104302)
(0.000134287 -0.000114151 -0.000811958)
(0.000694625 -0.000689131 -0.0017024)
(0.00296585 0.00226977 0.000320004)
(0.00240435 0.000632335 -0.000395517)
(0.0023522 -0.000829022 -0.00133594)
(0.0027412 -0.00271406 -0.002091)
(0.00639817 0.00350348 0.000106273)
(0.00577719 0.000923024 -0.000569698)
(0.00563899 -0.00149537 -0.00139366)
(0.00589761 -0.00432375 -0.00212219)
(0.0107143 0.00433651 -0.000172547)
(0.0100833 0.000970687 -0.000693178)
(0.00985561 -0.00223229 -0.00133622)
(0.00992782 -0.0058241 -0.00189987)
(0.0156077 0.00476047 -0.000462094)
(0.0149797 0.000811799 -0.000798204)
(0.0146776 -0.00297532 -0.00123005)
(0.0145961 -0.0071038 -0.0016018)
(0.0208022 0.00484886 -0.000735229)
(0.0201919 0.00050385 -0.00089438)
(0.0198354 -0.00368768 -0.00112562)
(0.0196358 -0.00816133 -0.00131005)
(0.026059 0.00469642 -0.000960696)
(0.0254723 0.000113349 -0.000981436)
(0.0250831 -0.00432976 -0.00104319)
(0.0248108 -0.0089966 -0.00107525)
(0.0312224 0.00440232 -0.00111841)
(0.0306293 -0.000298017 -0.00105757)
(0.0302218 -0.0048794 -0.000989)
(0.0299361 -0.00964301 -0.000929357)
(0.000633061 0.00063935 0.000214153)
(0.000259173 0.000236884 -0.00010641)
(0.000305138 -5.08068e-05 -0.000523629)
(0.00078976 -0.000554087 -0.00104559)
(0.0032493 0.00227651 8.01744e-05)
(0.0026527 0.000670745 -0.000363886)
(0.00264767 -0.000748231 -0.000966691)
(0.00316541 -0.00260533 -0.00147203)
(0.00671842 0.00350619 -8.07938e-05)
(0.00610437 0.000916918 -0.000526283)
(0.00598653 -0.00151276 -0.00108948)
(0.00626913 -0.00434716 -0.00158194)
(0.0109863 0.00433348 -0.000275548)
(0.0103589 0.000951402 -0.000633845)
(0.0101363 -0.00227899 -0.00108616)
(0.0102113 -0.00588471 -0.00148373)
(0.0157872 0.00476634 -0.000476368)
(0.0151634 0.000797875 -0.000718411)
(0.0148553 -0.00302258 -0.00103129)
(0.0147552 -0.00716567 -0.00130108)
(0.0208749 0.00486835 -0.000665622)
(0.02027 0.000505146 -0.000791726)
(0.0199025 -0.00371541 -0.000967706)
(0.019675 -0.0081997 -0.00111053)
(0.0260351 0.00472707 -0.000823735)
(0.0254583 0.000128707 -0.000857291)
(0.0250588 -0.00433346 -0.000918515)
(0.0247548 -0.00900532 -0.000957118)
(0.0311371 0.00443946 -0.00093815)
(0.0305552 -0.000274111 -0.000915671)
(0.0301404 -0.00486558 -0.0008985)
(0.0298288 -0.0096305 -0.000873568)
(0.000698478 0.000659205 6.75939e-05)
(0.000299027 0.000244187 -0.000104325)
(0.000341263 -5.0694e-05 -0.000350673)
(0.000838071 -0.000562996 -0.000654691)
(0.00338489 0.00228037 -4.97111e-05)
(0.00274978 0.000683753 -0.000314219)
(0.00276557 -0.000716025 -0.000683944)
(0.00335408 -0.0025732 -0.00100132)
(0.0068787 0.00349152 -0.000179113)
(0.00623896 0.000922742 -0.000456355)
(0.00613994 -0.00148822 -0.0008173)
(0.00648132 -0.00430955 -0.00113167)
(0.0111339 0.00430352 -0.000320124)
(0.0104898 0.000949258 -0.000551836)
(0.0102773 -0.00225938 -0.000850133)
(0.0103882 -0.00583719 -0.00111158)
(0.0158949 0.00473435 -0.00045819)
(0.0152605 0.0007963 -0.000622397)
(0.0149551 -0.00300136 -0.000835298)
(0.0148733 -0.00711089 -0.00101888)
(0.0209306 0.0048468 -0.000586063)
(0.0203202 0.000511316 -0.000680044)
(0.0199508 -0.00368726 -0.000806192)
(0.0197278 -0.00813795 -0.000909756)
(0.0260428 0.00472438 -0.000694625)
(0.0254649 0.000145663 -0.000731445)
(0.025061 -0.00429739 -0.000785021)
(0.0247512 -0.0089411 -0.000822104)
(0.0311156 0.00445801 -0.000778695)
(0.0305352 -0.000248106 -0.000781582)
(0.0301141 -0.00482577 -0.000790254)
(0.029788 -0.00957108 -0.000787858)
(0.000720226 0.000669609 2.51443e-06)
(0.000301525 0.000247669 -9.11172e-05)
(0.00034183 -5.29332e-05 -0.000235385)
(0.000855143 -0.000577263 -0.000409323)
(0.00344093 0.00228609 -0.000101999)
(0.00277832 0.000693885 -0.000256615)
(0.00280209 -0.000696263 -0.000479422)
(0.00343005 -0.00255893 -0.000671257)
(0.00694817 0.00348653 -0.000207793)
(0.00628729 0.000935399 -0.00037427)
(0.00619915 -0.00145599 -0.000598369)
(0.00658016 -0.00426466 -0.000790656)
(0.0112019 0.00428841 -0.000312718)
(0.0105432 0.000960881 -0.000455632)
(0.0103393 -0.00222013 -0.000645081)
(0.010481 -0.00577078 -0.000808029)
(0.0159482 0.00471545 -0.000409816)
(0.0153045 0.000808763 -0.000514574)
(0.0150043 -0.00295712 -0.000653256)
(0.0149431 -0.00703255 -0.000770771)
(0.0209619 0.00483298 -0.00049743)
(0.0203464 0.000528226 -0.000561242)
(0.019979 -0.00363876 -0.000646951)
(0.0197669 -0.00805455 -0.000716132)
(0.0260522 0.00472289 -0.00057324)
(0.0254721 0.000169362 -0.000603285)
(0.0250676 -0.00424581 -0.000644722)
(0.0247599 -0.00885854 -0.000673162)
(0.0311098 0.00447086 -0.000636381)
(0.0305282 -0.000218295 -0.000647479)
(0.0301036 -0.00477413 -0.000664023)
(0.0297725 -0.00949448 -0.000669436)
(0.000726058 0.000675073 -2.13031e-05)
(0.000295123 0.000249907 -7.21112e-05)
(0.000333902 -5.4349e-05 -0.000155207)
(0.000858523 -0.000586652 -0.000252572)
(0.00345927 0.00229254 -0.000108413)
(0.00277835 0.000703777 -0.000197024)
(0.00280488 -0.000680964 -0.000328633)
(0.00345575 -0.00254771 -0.000440908)
(0.00697264 0.00349005 -0.000191911)
(0.00629647 0.000951119 -0.000288831)
(0.00621354 -0.00142622 -0.000423998)
(0.0066184 -0.00422744 -0.000537331)
(0.0112277 0.0042879 -0.000269469)
(0.0105578 0.000979283 -0.000354002)
(0.010359 -0.00218027 -0.000470062)
(0.0105215 -0.0057131 -0.000567044)
(0.0159699 0.00471307 -0.000338155)
(0.0153187 0.000829212 -0.000401326)
(0.0150225 -0.00291085 -0.000487752)
(0.0149769 -0.00696222 -0.000558716)
(0.0209756 0.00483309 -0.00039876)
(0.0203554 0.000551716 -0.000438567)
(0.0199904 -0.00358855 -0.000493478)
(0.019788 -0.00797829 -0.000536099)
(0.0260563 0.00472947 -0.000452161)
(0.0254734 0.000196768 -0.000472621)
(0.0250695 -0.00419353 -0.00050131)
(0.0247657 -0.00878143 -0.000519787)
(0.0311047 0.00448499 -0.000499393)
(0.0305207 -0.000187521 -0.000509993)
(0.0300945 -0.00472205 -0.000525406)
(0.0297625 -0.00942049 -0.000531211)
(0.000726513 0.000678013 -2.44758e-05)
(0.000288116 0.000251421 -5.12784e-05)
(0.000325733 -5.5044e-05 -9.74056e-05)
(0.000857192 -0.000591962 -0.000149878)
(0.00346203 0.00229841 -8.96019e-05)
(0.00276942 0.000712363 -0.00013848)
(0.00279665 -0.000669303 -0.000213153)
(0.00346078 -0.00253837 -0.000275897)
(0.00697721 0.00349709 -0.000150159)
(0.00629058 0.000965971 -0.000204062)
(0.00620984 -0.00140257 -0.000281872)
(0.00662872 -0.00419984 -0.000345397)
(0.0112337 0.00429478 -0.000204238)
(0.0105556 0.000998071 -0.00025157)
(0.0103595 -0.00214751 -0.000319011)
(0.0105347 -0.00567011 -0.000373518)
(0.0159756 0.00471996 -0.000250811)
(0.0153185 0.000850628 -0.000286411)
(0.0150248 -0.00287205 -0.000337094)
(0.0149893 -0.00690875 -0.000377105)
(0.020979 0.00484147 -0.000291329)
(0.0203547 0.000575477 -0.000313987)
(0.0199914 -0.00354612 -0.000346638)
(0.0197958 -0.00791902 -0.000370645)
(0.0260555 0.00474088 -0.000327565)
(0.0254697 0.000222806 -0.000339548)
(0.0250664 -0.00414926 -0.00035731)
(0.024766 -0.00872004 -0.000367613)
(0.0310978 0.00449974 -0.000361026)
(0.0305111 -0.000159755 -0.00036819)
(0.0300841 -0.00467765 -0.00037918)
(0.029753 -0.0093599 -0.000382889)
(0.000725625 0.000679552 -1.76166e-05)
(0.000282967 0.000252377 -3.04487e-05)
(0.00031982 -5.5322e-05 -5.34443e-05)
(0.000855064 -0.000594658 -7.89481e-05)
(0.00345997 0.00230275 -5.7736e-05)
(0.00276047 0.000718574 -8.19538e-05)
(0.00278771 -0.000661431 -0.00011981)
(0.0034591 -0.00253163 -0.000151137)
(0.00697507 0.00350369 -9.44709e-05)
(0.00628191 0.000977165 -0.000121269)
(0.00620198 -0.00138644 -0.000161081)
(0.00662865 -0.00418171 -0.000192808)
(0.0112324 0.00430266 -0.000126598)
(0.010549 0.00101275 -0.000150145)
(0.0103541 -0.00212481 -0.000184815)
(0.0105365 -0.00564208 -0.000211992)
(0.0159749 0.00472867 -0.000153854)
(0.0153138 0.000867636 -0.000171526)
(0.0150213 -0.00284484 -0.000197664)
(0.0149918 -0.00687352 -0.000217532)
(0.0209779 0.00485117 -0.000177399)
(0.0203508 0.000594193 -0.000188582)
(0.0199883 -0.00351611 -0.000205486)
(0.0197969 -0.00787935 -0.000217236)
(0.0260525 0.00475188 -0.000198675)
(0.0254646 0.000242835 -0.000204542)
(0.0250616 -0.00411779 -0.000213886)
(0.0247636 -0.00867821 -0.000218678)
(0.0310911 0.00451198 -0.000218841)
(0.0305022 -0.000138887 -0.00022258)
(0.0300748 -0.00464586 -0.000228802)
(0.0297447 -0.0093178 -0.000230519)
(0.000724914 0.000680217 -6.2913e-06)
(0.000280325 0.000252843 -1.00759e-05)
(0.000316804 -5.54048e-05 -1.7018e-05)
(0.000853715 -0.000595759 -2.46028e-05)
(0.00345799 0.00230502 -1.98236e-05)
(0.0027553 0.000721807 -2.71064e-05)
(0.00278245 -0.00065747 -3.86413e-05)
(0.00345705 -0.00252811 -4.80955e-05)
(0.00697266 0.00350751 -3.21364e-05)
(0.00627639 0.000983111 -4.02026e-05)
(0.00619669 -0.00137829 -5.23885e-05)
(0.00662684 -0.00417274 -6.19575e-05)
(0.0112303 0.00430753 -4.28106e-05)
(0.0105443 0.00102069 -4.98887e-05)
(0.0103499 -0.00211327 -6.05191e-05)
(0.0105355 -0.00562829 -6.86974e-05)
(0.0159733 0.0047342 -5.18101e-05)
(0.0153101 0.000876915 -5.71006e-05)
(0.0150181 -0.00283092 -6.51184e-05)
(0.0149913 -0.00685611 -7.10676e-05)
(0.0209764 0.00485721 -5.9564e-05)
(0.0203477 0.000604387 -6.28821e-05)
(0.0199856 -0.00350068 -6.80652e-05)
(0.0197961 -0.00785956 -7.1535e-05)
(0.0260502 0.00475837 -6.66084e-05)
(0.0254611 0.00025365 -6.83178e-05)
(0.0250583 -0.00410153 -7.11935e-05)
(0.0247614 -0.00865713 -7.25392e-05)
(0.0310868 0.00451873 -7.33653e-05)
(0.0304968 -0.000127717 -7.44786e-05)
(0.0300692 -0.00462932 -7.64577e-05)
(0.0297397 -0.00929634 -7.69162e-05)
)
;

boundaryField
{
    interface
    {
        type            calculated;
        value           nonuniform List<vector> 
192
(
(0.00138132 0.00149127 0.000585206)
(0.00352884 0.00347494 0.000480067)
(0.00703076 0.00519929 0.000259816)
(0.011293 0.00641167 -5.99352e-05)
(0.0161329 0.00710818 -0.000409146)
(0.0212577 0.00734859 -0.000745153)
(0.0264531 0.0072457 -0.00102234)
(0.0315787 0.00695745 -0.00120723)
(0.00161096 0.00161675 0.000249084)
(0.00386113 0.00349048 0.00017296)
(0.00734976 0.00518446 1.86463e-05)
(0.0115624 0.00636885 -0.000189914)
(0.0163049 0.00706367 -0.000420447)
(0.0213247 0.00731914 -0.000646267)
(0.0264259 0.00723996 -0.000837275)
(0.0314934 0.00698267 -0.00097052)
(0.0017386 0.00168499 8.20779e-05)
(0.00402635 0.00350351 -6.71676e-06)
(0.00753114 0.00516278 -0.000129307)
(0.0117193 0.00631859 -0.000272942)
(0.016413 0.00700363 -0.000423578)
(0.0213758 0.00726929 -0.000569098)
(0.0264271 0.00721568 -0.000694855)
(0.0314631 0.00699421 -0.000789938)
(0.00179719 0.00171561 6.73166e-06)
(0.00410555 0.00351351 -8.56197e-05)
(0.00762156 0.00515494 -0.000187605)
(0.0118011 0.0062934 -0.000292026)
(0.016474 0.00697035 -0.000393195)
(0.0214102 0.00724036 -0.000487935)
(0.0264368 0.00720193 -0.00057171)
(0.0314553 0.00700139 -0.000640979)
(0.00182305 0.0017281 -2.1393e-05)
(0.00413973 0.00352086 -0.000104478)
(0.00766166 0.00515657 -0.000186652)
(0.011839 0.00628815 -0.000263364)
(0.016504 0.00696129 -0.000332875)
(0.0214289 0.00723311 -0.000395858)
(0.0264436 0.00720184 -0.000452694)
(0.0314511 0.00701114 -0.000503381)
(0.00183404 0.00173253 -2.585e-05)
(0.00415254 0.00352591 -9.03836e-05)
(0.00767681 0.00516201 -0.00015093)
(0.011854 0.00629267 -0.000204503)
(0.0165166 0.00696518 -0.000250944)
(0.0214371 0.00723802 -0.000292023)
(0.026446 0.00720958 -0.000329662)
(0.0314464 0.00702261 -0.000365038)
(0.00183843 0.00173371 -1.88394e-05)
(0.00415633 0.00352903 -5.93523e-05)
(0.00768109 0.00516735 -9.64481e-05)
(0.0118584 0.00629932 -0.000128386)
(0.0165206 0.00697256 -0.000155406)
(0.0214396 0.00724612 -0.000178984)
(0.0264455 0.00721861 -0.000200805)
(0.0314416 0.00703267 -0.000221954)
(0.00183989 0.00173387 -6.75158e-06)
(0.004157 0.00353052 -2.05249e-05)
(0.00768169 0.00517047 -3.30175e-05)
(0.0118591 0.00630364 -4.36547e-05)
(0.0165213 0.00697758 -5.25617e-05)
(0.0214398 0.00725154 -6.02909e-05)
(0.0264445 0.00722424 -6.7481e-05)
(0.0314384 0.00703831 -7.45433e-05)
(0.000362338 0.000801458 0.000884074)
(0.0026967 0.00218433 0.000418614)
(0.0061656 0.00343702 0.000219555)
(0.010534 0.00424207 -0.000117743)
(0.0155106 0.00465391 -0.00045159)
(0.0207897 0.00474171 -0.000766543)
(0.0261188 0.00460499 -0.00102112)
(0.0313343 0.00435406 -0.00120833)
(-0.000146729 7.95271e-05 -0.000167377)
(0.00196113 0.000593125 -0.000386902)
(0.00539711 0.000929422 -0.000589648)
(0.0097939 0.000985023 -0.00072909)
(0.0148032 0.000812993 -0.000847897)
(0.0201227 0.000488278 -0.000954369)
(0.0254941 8.56565e-05 -0.0010481)
(0.0307188 -0.000320135 -0.00113992)
(-0.000127826 -0.000759469 -0.0011603)
(0.00190844 -0.000820575 -0.0013913)
(0.00526302 -0.00142692 -0.0014952)
(0.00957709 -0.00211007 -0.00142544)
(0.0145138 -0.00286575 -0.00131225)
(0.0197784 -0.00360824 -0.00119617)
(0.0251154 -0.00428471 -0.00110235)
(0.0303161 -0.00486589 -0.00102716)
(0.000478323 -0.00190505 -0.0023905)
(0.00246803 -0.00269642 -0.0022138)
(0.00565396 -0.00423096 -0.00236758)
(0.00976925 -0.00562086 -0.00207954)
(0.0145329 -0.00690923 -0.00174607)
(0.0196591 -0.00800524 -0.00141138)
(0.0248996 -0.0088949 -0.00114218)
(0.0300609 -0.00960607 -0.00096016)
(0.00150161 -0.0021906 -0.00178204)
(0.00303707 -0.00407662 -0.00228409)
(0.00616267 -0.0063209 -0.00234036)
(0.0100202 -0.00813278 -0.00205739)
(0.0145668 -0.00963016 -0.00168356)
(0.0195166 -0.0107757 -0.0013134)
(0.0246468 -0.0116152 -0.00101591)
(0.0297674 -0.0122304 -0.00083528)
(0.00151288 -0.00222246 -0.00110055)
(0.00354078 -0.00407213 -0.00160583)
(0.00653571 -0.00630474 -0.00173203)
(0.010316 -0.00814026 -0.00159729)
(0.0147315 -0.00962505 -0.00136799)
(0.0195596 -0.0107552 -0.00112879)
(0.0245904 -0.0115831 -0.000936277)
(0.0296587 -0.0122041 -0.000829197)
(0.00157596 -0.00234442 -0.000684308)
(0.0037492 -0.0040975 -0.00106966)
(0.00677443 -0.00625768 -0.00121216)
(0.0105153 -0.00806647 -0.00117923)
(0.0148637 -0.00953339 -0.001062)
(0.0196183 -0.0106582 -0.000925934)
(0.0245853 -0.0114918 -0.000814682)
(0.0296062 -0.0121297 -0.000763587)
(0.00160899 -0.00242005 -0.000422838)
(0.00384338 -0.0041111 -0.000702026)
(0.00689537 -0.00621826 -0.000828183)
(0.0106282 -0.0079903 -0.000841345)
(0.0149479 -0.00943796 -0.000793088)
(0.0196653 -0.0105562 -0.000724896)
(0.0245959 -0.011393 -0.000668808)
(0.0295864 -0.0120418 -0.000654146)
(0.00162208 -0.0024595 -0.000257814)
(0.00388257 -0.00411373 -0.000452605)
(0.00694904 -0.00618672 -0.000552019)
(0.0106829 -0.00793065 -0.000580377)
(0.0149924 -0.00936084 -0.000567442)
(0.0196929 -0.0104709 -0.000538365)
(0.0246041 -0.0113065 -0.000514931)
(0.029575 -0.0119597 -0.000519314)
(0.00162588 -0.00247846 -0.000151431)
(0.0038965 -0.00411083 -0.000279128)
(0.00696932 -0.00616285 -0.000349567)
(0.0107052 -0.00788814 -0.00037714)
(0.0150119 -0.00930513 -0.000378836)
(0.0197054 -0.0104075 -0.000369393)
(0.0246067 -0.01124 -0.000362603)
(0.0295658 -0.0118937 -0.000373595)
(0.00162617 -0.00248685 -7.91694e-05)
(0.00390008 -0.00410679 -0.000151396)
(0.00697511 -0.00614673 -0.000193178)
(0.0107123 -0.0078609 -0.000212076)
(0.0150185 -0.00926934 -0.000216862)
(0.0197093 -0.010366 -0.00021527)
(0.0246058 -0.0111954 -0.00021488)
(0.0295582 -0.0118484 -0.000224435)
(0.00162575 -0.00248993 -2.45746e-05)
(0.00390044 -0.00410419 -4.79374e-05)
(0.00697599 -0.00613859 -6.17654e-05)
(0.0107138 -0.00784758 -6.84065e-05)
(0.01502 -0.00925185 -7.05734e-05)
(0.0197098 -0.0103455 -7.06757e-05)
(0.0246044 -0.0111731 -7.1126e-05)
(0.0295536 -0.0118253 -7.47922e-05)
(0.0337795 0.00424109 -0.0011442)
(0.0336934 0.00427824 -0.000959511)
(0.0336708 0.00430554 -0.000800525)
(0.033662 0.00432348 -0.000656293)
(0.0336533 0.00434055 -0.000517004)
(0.0336433 0.00435643 -0.000374967)
(0.0336342 0.00436894 -0.000227813)
(0.0336287 0.00437559 -7.64607e-05)
(0.0330461 -0.000452385 -0.00106693)
(0.0329783 -0.000430027 -0.000933799)
(0.0329574 -0.000403847 -0.000804883)
(0.0329454 -0.000372908 -0.0006715)
(0.0329316 -0.000341026 -0.000531745)
(0.0329164 -0.000312539 -0.000385329)
(0.0329035 -0.000291268 -0.000233491)
(0.0328962 -0.000279917 -7.82173e-05)
(0.0326192 -0.00511768 -0.000980456)
(0.0325438 -0.00509947 -0.000915505)
(0.0325134 -0.00506331 -0.000818353)
(0.0324953 -0.0050145 -0.000695662)
(0.0324779 -0.00496424 -0.00055431)
(0.0324607 -0.00492075 -0.000401719)
(0.0324467 -0.00488934 -0.000242967)
(0.0324388 -0.00487291 -8.12771e-05)
(0.0324504 -0.00992446 -0.000909322)
(0.0323409 -0.00990374 -0.000894201)
(0.0322906 -0.00985443 -0.000823848)
(0.0322654 -0.00978444 -0.000710244)
(0.032247 -0.00971471 -0.000567983)
(0.0322312 -0.00965614 -0.000411154)
(0.0322189 -0.00961487 -0.000248076)
(0.032212 -0.00959365 -8.28531e-05)
)
;
    }
    symmetry
    {
        type            symmetryPlane;
    }
    bottom
    {
        type            calculated;
        value           uniform (0 0 0);
    }
}


// ************************************************************************* //
