/*--------------------------------*- C++ -*----------------------------------*\
| =========                 |                                                 |
| \\      /  F ield         | foam-extend: Open Source CFD                    |
|  \\    /   O peration     | Version:     3.1                                |
|   \\  /    A nd           | Web:         http://www.extend-project.de       |
|    \\/     M anipulation  |                                                 |
\*---------------------------------------------------------------------------*/
FoamFile
{
    version     2.0;
    format      ascii;
    class       volVectorField;
    location    "0.0016";
    object      cellMotionU;
}
// * * * * * * * * * * * * * * * * * * * * * * * * * * * * * * * * * * * * * //

dimensions      [0 1 -1 0 0 0 0];

internalField   nonuniform List<vector> 
16000
(
(7.40552e-10 4.81451e-10 -6.56531e-10)
(2.20794e-09 4.58328e-10 -5.53171e-10)
(3.62633e-09 4.29794e-10 -3.40983e-10)
(5.02045e-09 4.01025e-10 -2.03369e-12)
(6.418e-09 3.71703e-10 4.97563e-10)
(7.84335e-09 3.43922e-10 1.21157e-09)
(9.31986e-09 3.18325e-10 2.21898e-09)
(1.0877e-08 2.96578e-10 3.63458e-09)
(1.25588e-08 2.82686e-10 5.62069e-09)
(1.44561e-08 2.81374e-10 8.41449e-09)
(6.96873e-10 1.42116e-09 -5.19861e-10)
(2.1027e-09 1.37064e-09 -4.20125e-10)
(3.49225e-09 1.29097e-09 -2.14623e-10)
(4.85959e-09 1.20397e-09 1.14875e-10)
(6.22496e-09 1.11579e-09 6.01531e-10)
(7.6104e-09 1.02866e-09 1.2951e-09)
(9.02836e-09 9.46736e-10 2.26734e-09)
(1.04906e-08 8.75439e-10 3.62059e-09)
(1.19957e-08 8.21276e-10 5.48091e-09)
(1.35143e-08 7.96053e-10 7.9953e-09)
(6.41217e-10 2.299e-09 -2.38967e-10)
(1.93798e-09 2.2352e-09 -1.46202e-10)
(3.24157e-09 2.12021e-09 4.73031e-11)
(4.54767e-09 1.97495e-09 3.57681e-10)
(5.8467e-09 1.82256e-09 8.16606e-10)
(7.14995e-09 1.66921e-09 1.46973e-09)
(8.46428e-09 1.51829e-09 2.38113e-09)
(9.77134e-09 1.37595e-09 3.62847e-09)
(1.10194e-08 1.24915e-09 5.29886e-09)
(1.20935e-08 1.14988e-09 7.47093e-09)
(5.71465e-10 3.12327e-09 2.08983e-10)
(1.73577e-09 3.03872e-09 2.91787e-10)
(2.91143e-09 2.88725e-09 4.65496e-10)
(4.10043e-09 2.68511e-09 7.46647e-10)
(5.29814e-09 2.4572e-09 1.1645e-09)
(6.48771e-09 2.22185e-09 1.75973e-09)
(7.65852e-09 1.98229e-09 2.58686e-09)
(8.78306e-09 1.73709e-09 3.70955e-09)
(9.78284e-09 1.48993e-09 5.18595e-09)
(1.05129e-08 1.24621e-09 7.06125e-09)
(4.92203e-10 3.90126e-09 8.67465e-10)
(1.49957e-09 3.78643e-09 9.35626e-10)
(2.52383e-09 3.57595e-09 1.07772e-09)
(3.55635e-09 3.30163e-09 1.31476e-09)
(4.59815e-09 2.9875e-09 1.6744e-09)
(5.63932e-09 2.65066e-09 2.19372e-09)
(6.64568e-09 2.29723e-09 2.92139e-09)
(7.57043e-09 1.91783e-09 3.90823e-09)
(8.34219e-09 1.50039e-09 5.20129e-09)
(8.82811e-09 1.03798e-09 6.83298e-09)
(4.05662e-10 4.64521e-09 1.80435e-09)
(1.23589e-09 4.47958e-09 1.84694e-09)
(2.08203e-09 4.17889e-09 1.93948e-09)
(2.93306e-09 3.79621e-09 2.10941e-09)
(3.7793e-09 3.37321e-09 2.38788e-09)
(4.61771e-09 2.9219e-09 2.81179e-09)
(5.43009e-09 2.43481e-09 3.42084e-09)
(6.14881e-09 1.89475e-09 4.25831e-09)
(6.68498e-09 1.26928e-09 5.36744e-09)
(6.95325e-09 5.30792e-10 6.77367e-09)
(3.12404e-10 5.37609e-09 3.11877e-09)
(9.50521e-10 5.12112e-09 3.11448e-09)
(1.59649e-09 4.67567e-09 3.12798e-09)
(2.23837e-09 4.13355e-09 3.19404e-09)
(2.86143e-09 3.56503e-09 3.35807e-09)
(3.45471e-09 2.98672e-09 3.65565e-09)
(4.00966e-09 2.3653e-09 4.12141e-09)
(4.49238e-09 1.65379e-09 4.78949e-09)
(4.78277e-09 8.08072e-10 5.69478e-09)
(4.80197e-09 -2.2631e-10 6.8552e-09)
(2.13752e-10 6.13504e-09 4.95324e-09)
(6.48292e-10 5.7155e-09 4.8628e-09)
(1.07637e-09 5.02308e-09 4.7337e-09)
(1.48171e-09 4.24226e-09 4.63891e-09)
(1.85091e-09 3.48824e-09 4.63843e-09)
(2.17223e-09 2.77251e-09 4.77034e-09)
(2.43145e-09 2.03394e-09 5.05842e-09)
(2.60996e-09 1.17582e-09 5.52691e-09)
(2.64376e-09 1.42211e-10 6.18564e-09)
(2.38148e-09 -1.15721e-09 7.06637e-09)
(1.11578e-10 7.00507e-09 7.50791e-09)
(3.32017e-10 6.26204e-09 7.2422e-09)
(5.28084e-10 5.13036e-09 6.85273e-09)
(6.74347e-10 3.98919e-09 6.50214e-09)
(7.55118e-10 3.01334e-09 6.27547e-09)
(7.64705e-10 2.17897e-09 6.19761e-09)
(7.04585e-10 1.35961e-09 6.26712e-09)
(5.65146e-10 4.17728e-10 6.4871e-09)
(3.25298e-10 -7.30351e-10 6.85636e-09)
(-2.03173e-10 -2.19886e-09 7.41966e-09)
(4.66171e-12 8.17131e-09 1.10765e-08)
(2.72657e-12 6.73276e-09 1.04214e-08)
(-4.62456e-11 4.8029e-09 9.5593e-09)
(-1.80227e-10 3.12978e-09 8.81358e-09)
(-4.21842e-10 1.92959e-09 8.28667e-09)
(-7.69695e-10 1.05525e-09 7.95729e-09)
(-1.1976e-09 2.43212e-10 7.77092e-09)
(-1.66574e-09 -7.17212e-10 7.69508e-09)
(-2.14993e-09 -1.91223e-09 7.73159e-09)
(-2.74125e-09 -3.33652e-09 7.91728e-09)
(2.17292e-09 1.42764e-09 -2.81428e-09)
(6.47977e-09 1.36361e-09 -2.56384e-09)
(1.06479e-08 1.28756e-09 -2.05164e-09)
(1.47518e-08 1.21447e-09 -1.23833e-09)
(1.8874e-08 1.14325e-09 -4.88802e-11)
(2.30871e-08 1.0806e-09 1.63532e-09)
(2.74637e-08 1.02947e-09 3.98716e-09)
(3.2104e-08 9.96973e-10 7.25551e-09)
(3.71742e-08 9.99348e-10 1.17896e-08)
(4.30274e-08 1.05851e-09 1.80982e-08)
(2.04965e-09 4.21807e-09 -2.48348e-09)
(6.18619e-09 4.08233e-09 -2.23978e-09)
(1.02807e-08 3.8728e-09 -1.73988e-09)
(1.43194e-08 3.65293e-09 -9.43715e-10)
(1.83652e-08 3.44063e-09 2.22308e-10)
(2.24876e-08 3.24357e-09 1.86823e-09)
(2.67338e-08 3.07752e-09 4.15223e-09)
(3.11643e-08 2.96584e-09 7.29947e-09)
(3.58329e-08 2.93883e-09 1.15853e-08)
(4.07826e-08 3.05172e-09 1.73355e-08)
(1.89582e-09 6.83831e-09 -1.80493e-09)
(5.73202e-09 6.67357e-09 -1.57419e-09)
(9.59645e-09 6.37998e-09 -1.09552e-09)
(1.34817e-08 6.01649e-09 -3.34311e-10)
(1.73671e-08 5.6509e-09 7.79861e-10)
(2.1297e-08 5.30347e-09 2.34894e-09)
(2.53125e-08 4.99032e-09 4.51656e-09)
(2.94008e-08 4.74085e-09 7.45692e-09)
(3.34935e-08 4.59399e-09 1.13681e-08)
(3.74202e-08 4.61523e-09 1.64405e-08)
(1.70461e-09 9.3216e-09 -7.26228e-10)
(5.18079e-09 9.10822e-09 -5.13774e-10)
(8.70162e-09 8.73111e-09 -7.16347e-11)
(1.22812e-08 8.23405e-09 6.35423e-10)
(1.59168e-08 7.68806e-09 1.67175e-09)
(1.95765e-08 7.14939e-09 3.12875e-09)
(2.32603e-08 6.63687e-09 5.1313e-09)
(2.6942e-08 6.16227e-09 7.82692e-09)
(3.04893e-08 5.76147e-09 1.13557e-08)
(3.36573e-08 5.49089e-09 1.58432e-08)
(1.48953e-09 1.16996e-08 8.52676e-10)
(4.54231e-09 1.14139e-08 1.0377e-09)
(7.66003e-09 1.08942e-08 1.41881e-09)
(1.08279e-08 1.02272e-08 2.04077e-09)
(1.40634e-08 9.47849e-09 2.96333e-09)
(1.73597e-08 8.69883e-09 4.26957e-09)
(2.06551e-08 7.91905e-09 6.07347e-09)
(2.38758e-08 7.13457e-09 8.49787e-09)
(2.6915e-08 6.34219e-09 1.16626e-08)
(2.9556e-08 5.57229e-09 1.56691e-08)
(1.25766e-09 1.40237e-08 3.08718e-09)
(3.83708e-09 1.36123e-08 3.22167e-09)
(6.48306e-09 1.28703e-08 3.50418e-09)
(9.17569e-09 1.19407e-08 3.99219e-09)
(1.19031e-08 1.09347e-08 4.75142e-09)
(1.46835e-08 9.88791e-09 5.86485e-09)
(1.75053e-08 8.79059e-09 7.42627e-09)
(2.02351e-08 7.62231e-09 9.54478e-09)
(2.27201e-08 6.33819e-09 1.23394e-08)
(2.48653e-08 4.91313e-09 1.58971e-08)
(1.01185e-09 1.63811e-08 6.20259e-09)
(3.08583e-09 1.57425e-08 6.24136e-09)
(5.20802e-09 1.46381e-08 6.36407e-09)
(7.35641e-09 1.33158e-08 6.63991e-09)
(9.50628e-09 1.19623e-08 7.16472e-09)
(1.16527e-08 1.06225e-08 8.0168e-09)
(1.38168e-08 9.21635e-09 9.28096e-09)
(1.59665e-08 7.63981e-09 1.10483e-08)
(1.78473e-08 5.82792e-09 1.34243e-08)
(1.93754e-08 3.69604e-09 1.64872e-08)
(7.58301e-10 1.89395e-08 1.05203e-08)
(2.31055e-09 1.78738e-08 1.03815e-08)
(3.87345e-09 1.61359e-08 1.02099e-08)
(5.41381e-09 1.42172e-08 1.0154e-08)
(6.91198e-09 1.24192e-08 1.03376e-08)
(8.36143e-09 1.07682e-08 1.0844e-08)
(9.7622e-09 9.10625e-09 1.17348e-08)
(1.11322e-08 7.19858e-09 1.3086e-08)
(1.2356e-08 4.93298e-09 1.49429e-08)
(1.31514e-08 2.17414e-09 1.74392e-08)
(5.07344e-10 2.20319e-08 1.64886e-08)
(1.53142e-09 2.01049e-08 1.59853e-08)
(2.51755e-09 1.72134e-08 1.52718e-08)
(3.4069e-09 1.43769e-08 1.46851e-08)
(4.17584e-09 1.20497e-08 1.43991e-08)
(4.83671e-09 1.01525e-08 1.44686e-08)
(5.43055e-09 8.33995e-09 1.4901e-08)
(5.97968e-09 6.25954e-09 1.57255e-08)
(6.47952e-09 3.72061e-09 1.6966e-08)
(6.54698e-09 5.62322e-10 1.88066e-08)
(2.64209e-10 2.63705e-08 2.47631e-08)
(7.73688e-10 2.25422e-08 2.34454e-08)
(1.17856e-09 1.75068e-08 2.17481e-08)
(1.38815e-09 1.32869e-08 2.03409e-08)
(1.36293e-09 1.04326e-08 1.94323e-08)
(1.13807e-09 8.51375e-09 1.8981e-08)
(8.23072e-10 6.79856e-09 1.88837e-08)
(5.61927e-10 4.71555e-09 1.90906e-08)
(4.42635e-10 2.05328e-09 1.96267e-08)
(2.39518e-10 -1.08098e-09 2.0614e-08)
(3.48829e-09 2.32405e-09 -7.01435e-09)
(1.04045e-08 2.23116e-09 -6.75358e-09)
(1.7105e-08 2.12877e-09 -6.22556e-09)
(2.37085e-08 2.04008e-09 -5.39925e-09)
(3.03375e-08 1.96267e-09 -4.21438e-09)
(3.70847e-08 1.90807e-09 -2.57763e-09)
(4.40194e-08 1.88241e-09 -3.60361e-10)
(5.1217e-08 1.90005e-09 2.6086e-09)
(5.87958e-08 1.99331e-09 6.54283e-09)
(6.70533e-08 2.2076e-09 1.17125e-08)
(3.30258e-09 6.87491e-09 -6.6734e-09)
(9.9711e-09 6.68932e-09 -6.41336e-09)
(1.65815e-08 6.41509e-09 -5.88622e-09)
(2.31145e-08 6.15162e-09 -5.06047e-09)
(2.96679e-08 5.92641e-09 -3.87676e-09)
(3.63396e-08 5.7526e-09 -2.24833e-09)
(4.31792e-08 5.66055e-09 -5.45747e-11)
(5.0243e-08 5.69845e-09 2.86754e-09)
(5.75601e-08 5.92849e-09 6.69375e-09)
(6.51577e-08 6.4632e-09 1.16061e-08)
(3.079e-09 1.11749e-08 -5.97732e-09)
(9.31441e-09 1.09684e-08 -5.71883e-09)
(1.56112e-08 1.06092e-08 -5.19012e-09)
(2.19644e-08 1.01846e-08 -4.36685e-09)
(2.8348e-08 9.8008e-09 -3.19279e-09)
(3.48385e-08 9.49203e-09 -1.58555e-09)
(4.15068e-08 9.29285e-09 5.6978e-10)
(4.83479e-08 9.26597e-09 3.40593e-09)
(5.53025e-08 9.49614e-09 7.06402e-09)
(6.22485e-08 1.01209e-08 1.16714e-08)
(2.80532e-09 1.52915e-08 -4.87871e-09)
(8.53344e-09 1.50389e-08 -4.62176e-09)
(1.43578e-08 1.46063e-08 -4.09704e-09)
(2.03153e-08 1.40523e-08 -3.28158e-09)
(2.64178e-08 1.34816e-08 -2.12713e-09)
(3.2637e-08 1.2985e-08 -5.6002e-10)
(3.90097e-08 1.26062e-08 1.52497e-09)
(4.5555e-08 1.23859e-08 4.24953e-09)
(5.21763e-08 1.24113e-08 7.72506e-09)
(5.87172e-08 1.28157e-08 1.20553e-08)
(2.50306e-09 1.92868e-08 -3.2869e-09)
(7.64267e-09 1.89617e-08 -3.03503e-09)
(1.29209e-08 1.83804e-08 -2.52885e-09)
(1.83342e-08 1.76611e-08 -1.74037e-09)
(2.39364e-08 1.68906e-08 -6.29638e-10)
(2.97517e-08 1.61441e-08 8.67157e-10)
(3.57399e-08 1.54896e-08 2.84946e-09)
(4.1873e-08 1.49529e-08 5.42604e-09)
(4.81192e-08 1.45674e-08 8.69988e-09)
(5.43684e-08 1.44347e-08 1.2763e-08)
(2.1845e-09 2.32501e-08 -1.0649e-09)
(6.67676e-09 2.2787e-08 -8.33679e-10)
(1.13206e-08 2.19639e-08 -3.70722e-10)
(1.61092e-08 2.09685e-08 3.56017e-10)
(2.10535e-08 1.99425e-08 1.38386e-09)
(2.62306e-08 1.89328e-08 2.7741e-09)
(3.16877e-08 1.7938e-08 4.60503e-09)
(3.73102e-08 1.69706e-08 6.97717e-09)
(4.3007e-08 1.60293e-08 1.0005e-08)
(4.88218e-08 1.51262e-08 1.37617e-08)
(1.85598e-09 2.7321e-08 1.97691e-09)
(5.67485e-09 2.6595e-08 2.1564e-09)
(9.62759e-09 2.53669e-08 2.53703e-09)
(1.37046e-08 2.39478e-08 3.14545e-09)
(1.79008e-08 2.25711e-08 4.03494e-09)
(2.22556e-08 2.12845e-08 5.25427e-09)
(2.68793e-08 1.99847e-08 6.87474e-09)
(3.18213e-08 1.85571e-08 8.98131e-09)
(3.68072e-08 1.6993e-08 1.16812e-08)
(4.18749e-08 1.52366e-08 1.50427e-08)
(1.53079e-09 3.17542e-08 6.09296e-09)
(4.68404e-09 3.052e-08 6.16864e-09)
(7.92009e-09 2.85577e-08 6.37432e-09)
(1.12137e-08 2.64858e-08 6.78192e-09)
(1.45691e-08 2.46678e-08 7.4503e-09)
(1.80235e-08 2.31098e-08 8.42483e-09)
(2.16433e-08 2.15937e-08 9.75472e-09)
(2.55661e-08 1.98301e-08 1.15202e-08)
(2.96845e-08 1.77082e-08 1.37641e-08)
(3.37441e-08 1.51902e-08 1.6635e-08)
(1.23237e-09 3.70407e-08 1.16089e-08)
(3.75175e-09 3.47519e-08 1.14596e-08)
(6.28378e-09 3.14139e-08 1.13276e-08)
(8.76298e-09 2.83202e-08 1.13998e-08)
(1.11908e-08 2.60067e-08 1.17551e-08)
(1.36341e-08 2.43111e-08 1.24087e-08)
(1.6212e-08 2.27394e-08 1.33647e-08)
(1.90245e-08 2.08298e-08 1.4664e-08)
(2.21113e-08 1.83578e-08 1.6337e-08)
(2.50741e-08 1.53292e-08 1.8608e-08)
(9.80584e-10 4.42099e-08 1.89556e-08)
(2.9449e-09 3.95339e-08 1.82945e-08)
(4.81526e-09 3.3584e-08 1.75498e-08)
(6.4828e-09 2.8931e-08 1.71027e-08)
(7.92797e-09 2.61951e-08 1.70389e-08)
(9.25383e-09 2.47138e-08 1.73012e-08)
(1.0677e-08 2.34475e-08 1.78139e-08)
(1.24442e-08 2.16024e-08 1.85548e-08)
(1.46752e-08 1.89171e-08 1.95641e-08)
(1.70117e-08 1.56925e-08 2.09819e-08)
(4.5706e-09 3.07165e-09 -1.32847e-08)
(1.36392e-08 2.9644e-09 -1.31568e-08)
(2.244e-08 2.85918e-09 -1.29077e-08)
(3.11238e-08 2.7839e-09 -1.25309e-08)
(3.98309e-08 2.73453e-09 -1.20162e-08)
(4.86283e-08 2.72677e-09 -1.13509e-08)
(5.74917e-08 2.76959e-09 -1.053e-08)
(6.6295e-08 2.88371e-09 -9.57364e-09)
(7.477e-08 3.11553e-09 -8.56508e-09)
(8.25027e-08 3.52962e-09 -7.71587e-09)
(4.34336e-09 9.09792e-09 -1.313e-08)
(1.31219e-08 8.90104e-09 -1.29869e-08)
(2.18429e-08 8.63151e-09 -1.27133e-08)
(3.04789e-08 8.41327e-09 -1.22986e-08)
(3.91489e-08 8.28021e-09 -1.17346e-08)
(4.79417e-08 8.24929e-09 -1.10096e-08)
(5.68401e-08 8.36397e-09 -1.0112e-08)
(6.57634e-08 8.69529e-09 -9.04177e-09)
(7.4484e-08 9.33019e-09 -7.84563e-09)
(8.26423e-08 1.0424e-08 -6.63354e-09)
(4.08214e-09 1.48252e-08 -1.2819e-08)
(1.23587e-08 1.46369e-08 -1.26504e-08)
(2.07418e-08 1.43249e-08 -1.23222e-08)
(2.92299e-08 1.39919e-08 -1.1834e-08)
(3.77933e-08 1.37714e-08 -1.11806e-08)
(4.65198e-08 1.37077e-08 -1.03474e-08)
(5.54677e-08 1.38522e-08 -9.31284e-09)
(6.45678e-08 1.42968e-08 -8.06032e-09)
(7.36596e-08 1.51614e-08 -6.58836e-09)
(8.25357e-08 1.6631e-08 -4.91262e-09)
(3.76871e-09 2.0352e-08 -1.23318e-08)
(1.14749e-08 2.01478e-08 -1.21267e-08)
(1.93425e-08 1.98227e-08 -1.17243e-08)
(2.74365e-08 1.94364e-08 -1.11347e-08)
(3.5788e-08 1.91105e-08 -1.03616e-08)
(4.43735e-08 1.8959e-08 -9.39442e-09)
(5.32534e-08 1.90487e-08 -8.20411e-09)
(6.24632e-08 1.94462e-08 -6.75744e-09)
(7.19076e-08 2.02761e-08 -5.02696e-09)
(8.14952e-08 2.17176e-08 -2.98093e-09)
(3.43059e-09 2.57589e-08 -1.16336e-08)
(1.04874e-08 2.55199e-08 -1.1381e-08)
(1.77721e-08 2.51118e-08 -1.08921e-08)
(2.53046e-08 2.46563e-08 -1.01864e-08)
(3.31831e-08 2.42369e-08 -9.28118e-09)
(4.14695e-08 2.3937e-08 -8.1774e-09)
(5.01566e-08 2.38575e-08 -6.84483e-09)
(5.92644e-08 2.40551e-08 -5.24207e-09)
(6.88251e-08 2.45867e-08 -3.33378e-09)
(7.88286e-08 2.55901e-08 -1.0821e-09)
(3.085e-09 3.11396e-08 -1.06802e-08)
(9.44313e-09 3.08105e-08 -1.03734e-08)
(1.60576e-08 3.02478e-08 -9.78616e-09)
(2.29488e-08 2.96327e-08 -8.95504e-09)
(3.0164e-08 2.90909e-08 -7.91852e-09)
(3.78507e-08 2.86596e-08 -6.68792e-09)
(4.61265e-08 2.83417e-08 -5.2505e-09)
(5.49125e-08 2.81861e-08 -3.56724e-09)
(6.41858e-08 2.82354e-08 -1.58525e-09)
(7.40868e-08 2.84965e-08 7.04604e-10)
(2.74183e-09 3.6609e-08 -9.42518e-09)
(8.39884e-09 3.60856e-08 -9.05494e-09)
(1.43012e-08 3.52497e-08 -8.35098e-09)
(2.0465e-08 3.43745e-08 -7.38575e-09)
(2.69199e-08 3.36579e-08 -6.22093e-09)
(3.37636e-08 3.31145e-08 -4.8946e-09)
(4.1208e-08 3.26255e-08 -3.40073e-09)
(4.93908e-08 3.20805e-08 -1.71107e-09)
(5.80266e-08 3.15349e-08 2.22429e-10)
(6.72137e-08 3.09254e-08 2.39656e-09)
(2.42097e-09 4.23484e-08 -7.83586e-09)
(7.42587e-09 4.14334e-08 -7.37935e-09)
(1.26177e-08 4.00667e-08 -6.5361e-09)
(1.79919e-08 3.8788e-08 -5.41918e-09)
(2.35897e-08 3.78798e-08 -4.13298e-09)
(2.95037e-08 3.72824e-08 -2.74068e-09)
(3.58759e-08 3.67401e-08 -1.25418e-09)
(4.29672e-08 3.59574e-08 3.61491e-10)
(5.06466e-08 3.4828e-08 2.1073e-09)
(5.86554e-08 3.34091e-08 4.0398e-09)
(2.15786e-09 4.86848e-08 -5.92761e-09)
(6.59379e-09 4.69274e-08 -5.34222e-09)
(1.11316e-08 4.45268e-08 -4.30771e-09)
(1.57111e-08 4.26141e-08 -3.00738e-09)
(2.03695e-08 4.15806e-08 -1.59763e-09)
(2.52343e-08 4.11514e-08 -1.69705e-10)
(3.04994e-08 4.07536e-08 1.24641e-09)
(3.63274e-08 3.98996e-08 2.67167e-09)
(4.27486e-08 3.83571e-08 4.11159e-09)
(4.93436e-08 3.63275e-08 5.68987e-09)
(1.98457e-09 5.63205e-08 -3.82095e-09)
(6.00051e-09 5.26086e-08 -3.00293e-09)
(9.97871e-09 4.82051e-08 -1.66106e-09)
(1.38053e-08 4.53441e-08 -1.12242e-10)
(1.74877e-08 4.44233e-08 1.42813e-09)
(2.1194e-08 4.46235e-08 2.85305e-09)
(2.52289e-08 4.47886e-08 4.13037e-09)
(2.98939e-08 4.40518e-08 5.27207e-09)
(3.52654e-08 4.21575e-08 6.31525e-09)
(4.07951e-08 3.95839e-08 7.34653e-09)
(5.27167e-09 3.52826e-09 -2.04807e-08)
(1.57628e-08 3.41678e-09 -2.05871e-08)
(2.59858e-08 3.33201e-09 -2.08107e-08)
(3.61106e-08 3.28807e-09 -2.11665e-08)
(4.63056e-08 3.28493e-09 -2.16882e-08)
(5.66159e-08 3.34292e-09 -2.24287e-08)
(6.69247e-08 3.47453e-09 -2.34714e-08)
(7.6898e-08 3.70681e-09 -2.49553e-08)
(8.58547e-08 4.09888e-09 -2.71168e-08)
(9.26012e-08 4.73242e-09 -3.03818e-08)
(5.01835e-09 1.04747e-08 -2.06494e-08)
(1.52141e-08 1.02948e-08 -2.07216e-08)
(2.53822e-08 1.00781e-08 -2.0885e-08)
(3.5478e-08 9.95516e-09 -2.11543e-08)
(4.5678e-08 9.96685e-09 -2.15662e-08)
(5.60589e-08 1.01357e-08 -2.21685e-08)
(6.65391e-08 1.05185e-08 -2.30267e-08)
(7.68993e-08 1.12085e-08 -2.42396e-08)
(8.66438e-08 1.23161e-08 -2.59534e-08)
(9.49986e-08 1.40335e-08 -2.83637e-08)
(4.74866e-09 1.7121e-08 -2.09896e-08)
(1.44147e-08 1.69916e-08 -2.10008e-08)
(2.42493e-08 1.67802e-08 -2.10442e-08)
(3.42487e-08 1.66157e-08 -2.11466e-08)
(4.44182e-08 1.66437e-08 -2.13493e-08)
(5.4859e-08 1.6918e-08 -2.16933e-08)
(6.56199e-08 1.75083e-08 -2.22237e-08)
(7.65746e-08 1.85356e-08 -2.29847e-08)
(8.74654e-08 2.01531e-08 -2.4017e-08)
(9.80028e-08 2.25871e-08 -2.53305e-08)
(4.4326e-09 2.35793e-08 -2.15078e-08)
(1.35148e-08 2.34696e-08 -2.14328e-08)
(2.28328e-08 2.33216e-08 -2.13078e-08)
(3.24841e-08 2.32031e-08 -2.1176e-08)
(4.25345e-08 2.32401e-08 -2.10903e-08)
(5.29812e-08 2.35629e-08 -2.10944e-08)
(6.39178e-08 2.42634e-08 -2.12139e-08)
(7.54041e-08 2.54383e-08 -2.1459e-08)
(8.73594e-08 2.72489e-08 -2.18072e-08)
(9.9772e-08 2.99151e-08 -2.21831e-08)
(4.09555e-09 2.99475e-08 -2.22267e-08)
(1.25355e-08 2.98484e-08 -2.20398e-08)
(2.12926e-08 2.97099e-08 -2.17004e-08)
(3.04206e-08 2.96453e-08 -2.12781e-08)
(4.00688e-08 2.97263e-08 -2.08457e-08)
(5.03486e-08 3.00395e-08 -2.0462e-08)
(6.13032e-08 3.07189e-08 -2.01506e-08)
(7.30148e-08 3.18587e-08 -1.98998e-08)
(8.55909e-08 3.35461e-08 -1.96737e-08)
(9.91343e-08 3.59532e-08 -1.93889e-08)
(3.76392e-09 3.63126e-08 -2.31913e-08)
(1.15352e-08 3.61912e-08 -2.2861e-08)
(1.96612e-08 3.60222e-08 -2.22537e-08)
(2.81982e-08 3.59553e-08 -2.14795e-08)
(3.72386e-08 3.6083e-08 -2.06535e-08)
(4.70059e-08 3.64309e-08 -1.98556e-08)
(5.76982e-08 3.7014e-08 -1.91234e-08)
(6.92958e-08 3.79265e-08 -1.84483e-08)
(8.18622e-08 3.92668e-08 -1.77815e-08)
(9.56352e-08 4.10452e-08 -1.708e-08)
(3.45259e-09 4.27355e-08 -2.44802e-08)
(1.05882e-08 4.25282e-08 -2.39546e-08)
(1.80709e-08 4.22793e-08 -2.30017e-08)
(2.59474e-08 4.21798e-08 -2.17955e-08)
(3.42899e-08 4.23589e-08 -2.05181e-08)
(4.3262e-08 4.27934e-08 -1.92921e-08)
(5.31818e-08 4.33689e-08 -1.81639e-08)
(6.42853e-08 4.40051e-08 -1.7132e-08)
(7.63122e-08 4.48346e-08 -1.61579e-08)
(8.9424e-08 4.58042e-08 -1.52198e-08)
(3.18811e-09 4.92667e-08 -2.62325e-08)
(9.78975e-09 4.88622e-08 -2.5417e-08)
(1.6672e-08 4.84009e-08 -2.39814e-08)
(2.38529e-08 4.82508e-08 -2.22254e-08)
(3.14135e-08 4.85578e-08 -2.04221e-08)
(3.95086e-08 4.91923e-08 -1.87442e-08)
(4.83638e-08 4.98952e-08 -1.72549e-08)
(5.83685e-08 5.04142e-08 -1.59372e-08)
(6.93885e-08 5.06735e-08 -1.47794e-08)
(8.11992e-08 5.08464e-08 -1.37346e-08)
(3.01695e-09 5.59609e-08 -2.86921e-08)
(9.23047e-09 5.50894e-08 -2.73963e-08)
(1.56255e-08 5.41541e-08 -2.52281e-08)
(2.21474e-08 5.39293e-08 -2.27362e-08)
(2.88684e-08 5.45732e-08 -2.03154e-08)
(3.59777e-08 5.5712e-08 -1.81669e-08)
(4.37478e-08 5.6762e-08 -1.63473e-08)
(5.24135e-08 5.72828e-08 -1.48342e-08)
(6.20071e-08 5.70792e-08 -1.35992e-08)
(7.21509e-08 5.65713e-08 -1.25511e-08)
(2.9827e-09 6.29907e-08 -3.23046e-08)
(9.03567e-09 6.09638e-08 -3.0093e-08)
(1.51026e-08 5.90504e-08 -2.67471e-08)
(2.10619e-08 5.87618e-08 -2.32432e-08)
(2.69433e-08 6.01608e-08 -2.01027e-08)
(3.29764e-08 6.23457e-08 -1.7494e-08)
(3.9549e-08 6.41832e-08 -1.54045e-08)
(4.70156e-08 6.48541e-08 -1.37729e-08)
(5.5417e-08 6.41652e-08 -1.25374e-08)
(6.40683e-08 6.27558e-08 -1.16272e-08)
(5.46354e-09 3.57066e-09 -2.67076e-08)
(1.63612e-08 3.46817e-09 -2.70918e-08)
(2.70487e-08 3.40268e-09 -2.7863e-08)
(3.77411e-08 3.38838e-09 -2.90438e-08)
(4.86517e-08 3.42703e-09 -3.0688e-08)
(5.98602e-08 3.54276e-09 -3.28735e-08)
(7.12656e-08 3.75322e-09 -3.57037e-08)
(8.25158e-08 4.09304e-09 -3.9322e-08)
(9.28445e-08 4.6336e-09 -4.39319e-08)
(1.00851e-07 5.47453e-09 -4.98691e-08)
(5.206e-09 1.06164e-08 -2.72463e-08)
(1.58084e-08 1.04661e-08 -2.75807e-08)
(2.64478e-08 1.03067e-08 -2.82565e-08)
(3.71184e-08 1.02726e-08 -2.93073e-08)
(4.80461e-08 1.04104e-08 -3.07906e-08)
(5.93477e-08 1.07518e-08 -3.27749e-08)
(7.09698e-08 1.13695e-08 -3.53401e-08)
(8.27042e-08 1.2381e-08 -3.85845e-08)
(9.40265e-08 1.39255e-08 -4.26016e-08)
(1.04094e-07 1.62368e-08 -4.74582e-08)
(4.93703e-09 1.74025e-08 -2.83186e-08)
(1.50096e-08 1.73237e-08 -2.8559e-08)
(2.53213e-08 1.72096e-08 -2.90576e-08)
(3.59103e-08 1.71927e-08 -2.98608e-08)
(4.68269e-08 1.74274e-08 -3.10339e-08)
(5.82228e-08 1.79826e-08 -3.26386e-08)
(7.01987e-08 1.89529e-08 -3.4733e-08)
(8.26711e-08 2.04941e-08 -3.73422e-08)
(9.54219e-08 2.28025e-08 -4.04379e-08)
(1.08226e-07 2.61586e-08 -4.38872e-08)
(4.62682e-09 2.40651e-08 -2.99422e-08)
(1.41266e-08 2.40274e-08 -3.00506e-08)
(2.39318e-08 2.40199e-08 -3.03011e-08)
(3.41865e-08 2.41107e-08 -3.07575e-08)
(4.50071e-08 2.44318e-08 -3.15004e-08)
(5.64437e-08 2.51311e-08 -3.25961e-08)
(6.86588e-08 2.63334e-08 -3.40804e-08)
(8.17914e-08 2.81789e-08 -3.59431e-08)
(9.58439e-08 3.08802e-08 -3.80831e-08)
(1.10933e-07 3.47191e-08 -4.02856e-08)
(4.30426e-09 3.07232e-08 -3.21737e-08)
(1.31906e-08 3.07237e-08 -3.21148e-08)
(2.24606e-08 3.07767e-08 -3.20423e-08)
(3.22098e-08 3.09892e-08 -3.20608e-08)
(4.26433e-08 3.14318e-08 -3.22755e-08)
(5.39369e-08 3.22054e-08 -3.27728e-08)
(6.62102e-08 3.34819e-08 -3.35919e-08)
(7.96385e-08 3.54077e-08 -3.46981e-08)
(9.44414e-08 3.81274e-08 -3.5984e-08)
(1.10859e-07 4.18772e-08 -3.72397e-08)
(4.00104e-09 3.74757e-08 -3.51058e-08)
(1.22736e-08 3.74942e-08 -3.48294e-08)
(2.09602e-08 3.75878e-08 -3.43481e-08)
(3.01534e-08 3.78843e-08 -3.38254e-08)
(3.99938e-08 3.84608e-08 -3.34251e-08)
(5.078e-08 3.93519e-08 -3.32651e-08)
(6.27995e-08 4.06056e-08 -3.33966e-08)
(7.61235e-08 4.23756e-08 -3.37945e-08)
(9.09312e-08 4.48373e-08 -3.4352e-08)
(1.07592e-07 4.80587e-08 -3.49108e-08)
(3.73774e-09 4.43764e-08 -3.88712e-08)
(1.14686e-08 4.43754e-08 -3.8295e-08)
(1.95954e-08 4.4504e-08 -3.72869e-08)
(2.81891e-08 4.48951e-08 -3.60904e-08)
(3.73641e-08 4.56382e-08 -3.49705e-08)
(4.73498e-08 4.67042e-08 -3.40994e-08)
(5.85663e-08 4.80145e-08 -3.35411e-08)
(7.13617e-08 4.95512e-08 -3.32763e-08)
(8.5559e-08 5.15372e-08 -3.32197e-08)
(1.01437e-07 5.39895e-08 -3.32418e-08)
(3.54808e-09 5.14331e-08 -4.36632e-08)
(1.08942e-08 5.13576e-08 -4.26477e-08)
(1.85529e-08 5.14676e-08 -4.08999e-08)
(2.65521e-08 5.2011e-08 -3.88464e-08)
(3.50055e-08 5.30474e-08 -3.68754e-08)
(4.41289e-08 5.4424e-08 -3.52278e-08)
(5.42373e-08 5.59181e-08 -3.39854e-08)
(6.58507e-08 5.736e-08 -3.31101e-08)
(7.89029e-08 5.87462e-08 -3.25268e-08)
(9.32832e-08 6.03876e-08 -3.21191e-08)
(3.48837e-09 5.85929e-08 -4.97613e-08)
(1.0665e-08 5.82864e-08 -4.80299e-08)
(1.80331e-08 5.82672e-08 -4.51751e-08)
(2.55286e-08 5.90623e-08 -4.19878e-08)
(3.32452e-08 6.06793e-08 -3.90221e-08)
(4.14279e-08 6.27059e-08 -3.65481e-08)
(5.04355e-08 6.46019e-08 -3.46245e-08)
(6.06057e-08 6.60204e-08 -3.31985e-08)
(7.20465e-08 6.68542e-08 -3.21743e-08)
(8.45109e-08 6.7727e-08 -3.14232e-08)
(3.61409e-09 6.57999e-08 -5.76225e-08)
(1.09349e-08 6.48307e-08 -5.45615e-08)
(1.82492e-08 6.44601e-08 -4.99846e-08)
(2.54057e-08 6.57077e-08 -4.52823e-08)
(3.24393e-08 6.84154e-08 -4.11781e-08)
(3.9631e-08 7.16623e-08 -3.78798e-08)
(4.74582e-08 7.43951e-08 -3.53312e-08)
(5.63701e-08 7.59049e-08 -3.34124e-08)
(6.64665e-08 7.61068e-08 -3.20113e-08)
(7.70766e-08 7.57803e-08 -3.10329e-08)
(5.03312e-09 3.1086e-09 -2.98338e-08)
(1.51038e-08 3.02236e-09 -3.04834e-08)
(2.50752e-08 2.97224e-09 -3.17768e-08)
(3.52099e-08 2.97299e-09 -3.37338e-08)
(4.578e-08 3.0303e-09 -3.64155e-08)
(5.69505e-08 3.17142e-09 -3.99072e-08)
(6.87438e-08 3.42033e-09 -4.43097e-08)
(8.09843e-08 3.81921e-09 -4.97422e-08)
(9.31604e-08 4.44799e-09 -5.63412e-08)
(1.04256e-07 5.41981e-09 -6.43129e-08)
(4.78727e-09 9.25842e-09 -3.07002e-08)
(1.45674e-08 9.13552e-09 -3.12902e-08)
(2.44727e-08 9.0148e-09 -3.2469e-08)
(3.45597e-08 9.02091e-09 -3.42718e-08)
(4.51093e-08 9.20686e-09 -3.67659e-08)
(5.63178e-08 9.61819e-09 -4.00244e-08)
(6.82435e-08 1.03435e-08 -4.41225e-08)
(8.08312e-08 1.15209e-08 -4.91364e-08)
(9.37554e-08 1.3318e-08 -5.50867e-08)
(1.0641e-07 1.60021e-08 -6.19055e-08)
(4.52483e-09 1.5231e-08 -3.24196e-08)
(1.37833e-08 1.51715e-08 -3.28966e-08)
(2.33444e-08 1.50944e-08 -3.38657e-08)
(3.33028e-08 1.51263e-08 -3.53774e-08)
(4.37703e-08 1.54218e-08 -3.75076e-08)
(5.49695e-08 1.60687e-08 -4.03244e-08)
(6.70962e-08 1.71892e-08 -4.3884e-08)
(8.01865e-08 1.89719e-08 -4.81804e-08)
(9.41578e-08 2.16549e-08 -5.31129e-08)
(1.08908e-07 2.55694e-08 -5.84247e-08)
(4.22262e-09 2.11789e-08 -3.50083e-08)
(1.29145e-08 2.11515e-08 -3.53282e-08)
(2.19539e-08 2.11616e-08 -3.60048e-08)
(3.15278e-08 2.12822e-08 -3.71099e-08)
(4.18065e-08 2.16524e-08 -3.8736e-08)
(5.2909e-08 2.24365e-08 -4.09565e-08)
(6.50767e-08 2.3792e-08 -4.38066e-08)
(7.85447e-08 2.5906e-08 -4.72494e-08)
(9.34101e-08 2.90422e-08 -5.11122e-08)
(1.09859e-07 3.35428e-08 -5.50701e-08)
(3.9128e-09 2.72453e-08 -3.85363e-08)
(1.20065e-08 2.72433e-08 -3.86592e-08)
(2.04988e-08 2.72891e-08 -3.89539e-08)
(2.952e-08 2.74928e-08 -3.95427e-08)
(3.93168e-08 2.79407e-08 -4.05443e-08)
(5.01239e-08 2.87582e-08 -4.20554e-08)
(6.21324e-08 3.01492e-08 -4.41196e-08)
(7.55979e-08 3.23104e-08 -4.66779e-08)
(9.08235e-08 3.54528e-08 -4.95598e-08)
(1.08107e-07 3.98774e-08 -5.2458e-08)
(3.63129e-09 3.35635e-08 -4.31155e-08)
(1.11463e-08 3.35644e-08 -4.29814e-08)
(1.90615e-08 3.36194e-08 -4.27918e-08)
(2.74898e-08 3.3857e-08 -4.27386e-08)
(3.66064e-08 3.43688e-08 -4.30067e-08)
(4.67556e-08 3.52201e-08 -4.37314e-08)
(5.82898e-08 3.6504e-08 -4.49654e-08)
(7.13595e-08 3.84246e-08 -4.66642e-08)
(8.62201e-08 4.12208e-08 -4.86753e-08)
(1.03314e-07 4.50443e-08 -5.0746e-08)
(3.40525e-09 4.02356e-08 -4.88929e-08)
(1.04442e-08 4.02004e-08 -4.84033e-08)
(1.78351e-08 4.02523e-08 -4.75937e-08)
(2.56509e-08 4.05214e-08 -4.67394e-08)
(3.40298e-08 4.1109e-08 -4.61462e-08)
(4.32422e-08 4.20168e-08 -4.6006e-08)
(5.37649e-08 4.32201e-08 -4.63882e-08)
(6.60232e-08 4.47686e-08 -4.72551e-08)
(7.99279e-08 4.69435e-08 -4.84817e-08)
(9.58428e-08 4.98504e-08 -4.98504e-08)
(3.27487e-09 4.73341e-08 -5.60616e-08)
(1.0037e-08 4.72045e-08 -5.50571e-08)
(1.70367e-08 4.7193e-08 -5.33771e-08)
(2.42833e-08 4.75386e-08 -5.15093e-08)
(3.1896e-08 4.8307e-08 -4.98957e-08)
(4.01261e-08 4.9378e-08 -4.88052e-08)
(4.93505e-08 5.0587e-08 -4.83212e-08)
(6.01646e-08 5.18449e-08 -4.83903e-08)
(7.26102e-08 5.32325e-08 -4.88731e-08)
(8.66716e-08 5.51302e-08 -4.96107e-08)
(3.30209e-09 5.48922e-08 -6.48662e-08)
(1.00601e-08 5.45032e-08 -6.30309e-08)
(1.68993e-08 5.43046e-08 -6.00607e-08)
(2.37149e-08 5.48088e-08 -5.68655e-08)
(3.05863e-08 5.60221e-08 -5.40707e-08)
(3.7783e-08 5.75632e-08 -5.19709e-08)
(4.57292e-08 5.89617e-08 -5.06117e-08)
(5.48642e-08 5.99675e-08 -4.99097e-08)
(6.5425e-08 6.05831e-08 -4.97016e-08)
(7.72719e-08 6.14917e-08 -4.9856e-08)
(3.54982e-09 6.29727e-08 -7.5683e-08)
(1.06857e-08 6.18625e-08 -7.2325e-08)
(1.76681e-08 6.12258e-08 -6.73845e-08)
(2.42741e-08 6.20623e-08 -6.24477e-08)
(3.05018e-08 6.41987e-08 -5.83248e-08)
(3.66468e-08 6.67437e-08 -5.52268e-08)
(4.32549e-08 6.87267e-08 -5.30552e-08)
(5.09021e-08 6.95675e-08 -5.16331e-08)
(5.98588e-08 6.93201e-08 -5.07878e-08)
(6.96313e-08 6.88454e-08 -5.03924e-08)
(3.95534e-09 2.14486e-09 -2.79147e-08)
(1.19056e-08 2.08094e-09 -2.87629e-08)
(1.98856e-08 2.04006e-09 -3.04466e-08)
(2.81792e-08 2.0373e-09 -3.29843e-08)
(3.70941e-08 2.08377e-09 -3.64462e-08)
(4.68786e-08 2.20816e-09 -4.09334e-08)
(5.77055e-08 2.44065e-09 -4.6565e-08)
(6.9644e-08 2.82889e-09 -5.34801e-08)
(8.25725e-08 3.45463e-09 -6.18275e-08)
(9.61072e-08 4.43526e-09 -7.18161e-08)
(3.738e-09 6.40391e-09 -2.89926e-08)
(1.14088e-08 6.30336e-09 -2.97817e-08)
(1.92821e-08 6.19561e-09 -3.13522e-08)
(2.74733e-08 6.18169e-09 -3.3739e-08)
(3.62911e-08 6.31946e-09 -3.70199e-08)
(4.60013e-08 6.6693e-09 -4.12814e-08)
(5.67874e-08 7.33157e-09 -4.66159e-08)
(6.87804e-08 8.45533e-09 -5.31219e-08)
(8.19249e-08 1.02279e-08 -6.0827e-08)
(9.59427e-08 1.293e-08 -6.96564e-08)
(3.48834e-09 1.05902e-08 -3.11293e-08)
(1.06557e-08 1.05154e-08 -3.18059e-08)
(1.815e-08 1.04051e-08 -3.31715e-08)
(2.61132e-08 1.03707e-08 -3.52761e-08)
(3.47075e-08 1.0553e-08 -3.82041e-08)
(4.42048e-08 1.10576e-08 -4.20375e-08)
(5.48801e-08 1.20291e-08 -4.68522e-08)
(6.68879e-08 1.36765e-08 -5.26571e-08)
(8.02757e-08 1.62661e-08 -5.93574e-08)
(9.50088e-08 2.01578e-08 -6.66908e-08)
(3.19594e-09 1.48503e-08 -3.43381e-08)
(9.79746e-09 1.4769e-08 -3.48604e-08)
(1.67344e-08 1.46652e-08 -3.59408e-08)
(2.42113e-08 1.46196e-08 -3.76527e-08)
(3.24312e-08 1.47724e-08 -4.00941e-08)
(4.15666e-08 1.52937e-08 -4.33492e-08)
(5.19028e-08 1.63637e-08 -4.74733e-08)
(6.37293e-08 1.82053e-08 -5.24467e-08)
(7.71879e-08 2.11167e-08 -5.80988e-08)
(9.24155e-08 2.54743e-08 -6.41016e-08)
(2.89478e-09 1.93378e-08 -3.86966e-08)
(8.89624e-09 1.9232e-08 -3.90274e-08)
(1.52377e-08 1.90709e-08 -3.97351e-08)
(2.20609e-08 1.897e-08 -4.09453e-08)
(2.96186e-08 1.90386e-08 -4.27799e-08)
(3.81717e-08 1.94256e-08 -4.5344e-08)
(4.79463e-08 2.03459e-08 -4.87015e-08)
(5.92233e-08 2.20276e-08 -5.28101e-08)
(7.2314e-08 2.47359e-08 -5.75032e-08)
(8.74518e-08 2.88097e-08 -6.24696e-08)
(2.62323e-09 2.42176e-08 -4.43307e-08)
(8.05246e-09 2.4053e-08 -4.44092e-08)
(1.37776e-08 2.37829e-08 -4.46423e-08)
(1.99036e-08 2.35472e-08 -4.5225e-08)
(2.66105e-08 2.34677e-08 -4.63415e-08)
(3.42365e-08 2.36463e-08 -4.81379e-08)
(4.31455e-08 2.42155e-08 -5.06795e-08)
(5.35263e-08 2.54013e-08 -5.39361e-08)
(6.56325e-08 2.7467e-08 -5.77724e-08)