/*--------------------------------*- C++ -*----------------------------------*\
| =========                 |                                                 |
| \\      /  F ield         | foam-extend: Open Source CFD                    |
|  \\    /   O peration     | Version:     3.1                                |
|   \\  /    A nd           | Web:         http://www.extend-project.de       |
|    \\/     M anipulation  |                                                 |
\*---------------------------------------------------------------------------*/
FoamFile
{
    version     2.0;
    format      ascii;
    class       surfaceScalarField;
    location    "0.0016";
    object      meshPhi;
}
// * * * * * * * * * * * * * * * * * * * * * * * * * * * * * * * * * * * * * //

dimensions      [0 3 -1 0 0 0 0];

internalField   nonuniform List<scalar> 
45800
(
8.60618e-11
8.62483e-11
1.49366e-10
1.63724e-10
8.47167e-11
1.48759e-10
2.29462e-10
8.12113e-11
1.49956e-10
2.82149e-10
7.67834e-11
1.52559e-10
3.21341e-10
7.18136e-11
1.56167e-10
3.46849e-10
6.64206e-11
1.60362e-10
3.58736e-10
6.0725e-11
1.64713e-10
3.57398e-10
5.48615e-11
1.68788e-10
3.43636e-10
4.89687e-11
1.72156e-10
4.28127e-11
1.74423e-10
3.18593e-10
8.45367e-11
1.63757e-10
1.48742e-10
1.6177e-10
1.61919e-10
1.48004e-10
2.27987e-10
1.56444e-10
1.48974e-10
2.81366e-10
1.48682e-10
1.5127e-10
3.21214e-10
1.39574e-10
1.54521e-10
3.47334e-10
1.29535e-10
1.58333e-10
3.59799e-10
1.18816e-10
1.62297e-10
3.59032e-10
1.07689e-10
1.65996e-10
3.45904e-10
9.63981e-11
1.69011e-10
8.44842e-11
1.70945e-10
3.21867e-10
8.11617e-11
2.29273e-10
1.49928e-10
1.56302e-10
2.27916e-10
1.48954e-10
2.21876e-10
2.2195e-10
1.49552e-10
2.75481e-10
2.12385e-10
1.5137e-10
3.15877e-10
2.00368e-10
1.54067e-10
3.42694e-10
1.86754e-10
1.57289e-10
3.55999e-10
1.72014e-10
1.6066e-10
3.5621e-10
1.56509e-10
1.63786e-10
3.4424e-10
1.40603e-10
1.66272e-10
1.23704e-10
1.67742e-10
3.21847e-10
7.68525e-11
2.81878e-10
1.5253e-10
1.48697e-10
2.81137e-10
1.51244e-10
2.12317e-10
2.75377e-10
1.51354e-10
2.65238e-10
2.65269e-10
1.52561e-10
3.05806e-10
2.51706e-10
1.5456e-10
3.33239e-10
2.35669e-10
1.57031e-10
3.47448e-10
2.17963e-10
1.59645e-10
3.48818e-10
1.99119e-10
1.62045e-10
3.38247e-10
1.79564e-10
1.63867e-10
1.58673e-10
1.64767e-10
3.17893e-10
7.19011e-11
3.21055e-10
1.56144e-10
1.39705e-10
3.20949e-10
1.54501e-10
2.00439e-10
3.15666e-10
1.54051e-10
2.51676e-10
3.05712e-10
1.5455e-10
2.91715e-10
2.91748e-10
1.55749e-10
3.19476e-10
2.74521e-10
1.57366e-10
3.34522e-10
2.54912e-10
1.5911e-10
3.3705e-10
2.33738e-10
1.60672e-10
3.27919e-10
2.11567e-10
1.61733e-10
1.8782e-10
1.61985e-10
3.09809e-10
6.64973e-11
3.46563e-10
1.60349e-10
1.2968e-10
3.47069e-10
1.58324e-10
1.86919e-10
3.4246e-10
1.57282e-10
2.35761e-10
3.33063e-10
1.57026e-10
2.74486e-10
3.19424e-10
1.57362e-10
3.02015e-10
3.02108e-10
1.58066e-10
3.17675e-10
2.81758e-10
1.58883e-10
3.2129e-10
2.59242e-10
1.59542e-10
3.13553e-10
2.35414e-10
1.59775e-10
2.09982e-10
1.59323e-10
2.97748e-10
6.07908e-11
3.58463e-10
1.64714e-10
1.18941e-10
3.59545e-10
1.62301e-10
1.72188e-10
3.55773e-10
1.60666e-10
2.18152e-10
3.47258e-10
1.59652e-10
2.55014e-10
3.34393e-10
1.59112e-10
2.81672e-10
3.17683e-10
1.58878e-10
2.97487e-10
2.97626e-10
1.58749e-10
3.02065e-10
2.74913e-10
1.58492e-10
2.9574e-10
2.50479e-10
1.57867e-10
2.24535e-10
1.56681e-10
2.822e-10
5.49155e-11
3.57147e-10
1.68807e-10
1.07794e-10
3.58797e-10
1.66015e-10
1.5666e-10
3.56e-10
1.63806e-10
1.99314e-10
3.48641e-10
1.62062e-10
2.33945e-10
3.3691e-10
1.60682e-10
2.59325e-10
3.21222e-10
1.59537e-10
2.74826e-10
3.02107e-10
1.58479e-10
2.80161e-10
2.80251e-10
1.5732e-10
2.75337e-10
2.56481e-10
1.55851e-10
2.31393e-10
1.53946e-10
2.6403e-10
4.90093e-11
3.43412e-10
1.72193e-10
9.64777e-11
3.45696e-10
1.69047e-10
1.40719e-10
3.44054e-10
1.66306e-10
1.79715e-10
3.38092e-10
1.63894e-10
2.11752e-10
3.278e-10
1.61749e-10
2.35582e-10
3.13482e-10
1.59774e-10
2.50525e-10
2.95714e-10
1.57852e-10
2.56446e-10
2.75347e-10
1.5584e-10
2.53352e-10
2.53381e-10
1.53585e-10
2.31004e-10
1.51026e-10
2.4465e-10
4.28394e-11
1.7447e-10
3.18402e-10
8.45369e-11
1.70991e-10
3.21689e-10
1.23781e-10
1.67783e-10
3.2169e-10
1.58771e-10
1.64799e-10
3.17761e-10
1.87933e-10
1.62003e-10
3.09706e-10
2.101e-10
1.59326e-10
2.97676e-10
2.24617e-10
1.56674e-10
2.82155e-10
2.31429e-10
1.53937e-10
2.64016e-10
2.31009e-10
1.51021e-10
2.44676e-10
1.479e-10
2.25747e-10
2.25778e-10
2.67479e-10
2.68057e-10
2.85507e-10
5.09262e-10
2.63476e-10
2.84683e-10
7.1479e-10
2.5284e-10
2.87525e-10
8.80923e-10
2.39454e-10
2.93361e-10
1.00654e-09
2.24506e-10
3.01415e-10
1.09121e-09
2.08351e-10
3.10868e-10
1.13526e-09
1.91356e-10
3.20882e-10
1.13994e-09
1.73939e-10
3.30612e-10
1.10773e-09
1.56543e-10
3.39201e-10
1.38555e-10
3.45829e-10
1.04202e-09
2.62908e-10
5.09363e-10
2.84641e-10
5.03549e-10
5.04012e-10
2.83591e-10
7.10729e-10
4.8754e-10
2.86013e-10
8.79136e-10
4.64153e-10
2.91238e-10
1.00689e-09
4.36789e-10
2.98564e-10
1.09356e-09
4.06752e-10
3.07232e-10
1.13947e-09
3.74799e-10
3.16441e-10
1.14597e-09
3.41783e-10
3.25376e-10
1.11571e-09
3.08483e-10
3.33201e-10
2.73668e-10
3.39066e-10
1.05287e-09
2.52669e-10
7.14217e-10
2.87462e-10
4.87076e-10
7.10505e-10
2.85965e-10
6.92528e-10
6.92759e-10
2.87678e-10
8.61835e-10
6.64122e-10
2.91965e-10
9.91414e-10
6.28116e-10
2.98175e-10
1.08033e-09
5.87431e-10
3.05637e-10
1.12888e-09
5.43554e-10
3.13625e-10
1.13838e-09
4.97602e-10
3.21362e-10
1.11158e-09
4.50737e-10
3.28052e-10
4.0139e-10
3.32892e-10
1.05357e-09
2.39661e-10
8.8011e-10
2.93303e-10
4.64172e-10
8.78441e-10
2.91178e-10
6.63879e-10
8.61508e-10
2.91925e-10
8.31351e-10
8.31451e-10
2.95002e-10
9.61644e-10
7.90993e-10
2.99812e-10
1.05253e-09
7.43157e-10
3.05742e-10
1.10389e-09
6.90496e-10
3.12164e-10
1.1169e-09
6.34715e-10
3.18379e-10
1.09428e-09
5.77168e-10
3.23654e-10
5.16232e-10
3.27258e-10
1.04231e-09
2.24775e-10
1.00568e-09
3.01371e-10
4.37183e-10
1.0061e-09
2.98523e-10
6.28299e-10
9.90773e-10
2.98135e-10
7.90864e-10
9.61343e-10
2.99783e-10
9.19767e-10
9.19868e-10
3.02979e-10
1.01179e-09
8.6865e-10
3.0717e-10
1.0657e-09
8.10401e-10
3.11791e-10
1.08221e-09
7.4774e-10
3.16243e-10
1.06389e-09
6.8256e-10
3.19896e-10
6.13394e-10
3.22106e-10
1.01861e-09
2.08587e-10
1.09036e-09
3.10843e-10
4.07195e-10
1.09277e-09
3.07212e-10
5.87925e-10
1.07962e-09
3.0562e-10
7.43401e-10
1.052e-09
3.05721e-10
8.685e-10
1.01161e-09
3.07151e-10
9.59992e-10
9.60271e-10
3.09475e-10
1.01584e-09
8.99964e-10
3.12181e-10
1.03558e-09
8.33367e-10
3.14729e-10
1.0214e-09
7.63318e-10
3.16602e-10
6.89321e-10
3.17295e-10
9.82982e-10
1.91558e-10
1.13445e-09
3.20885e-10
3.75184e-10
1.13871e-09
3.16447e-10
5.44086e-10
1.1282e-09
3.13635e-10
6.91063e-10
1.10332e-09
3.12172e-10
8.10662e-10
1.06531e-09
3.11783e-10
8.99636e-10
1.01582e-09
3.12154e-10
9.56065e-10
9.56488e-10
3.12894e-10
9.78703e-10
8.894e-10
3.13508e-10
9.68632e-10
8.17546e-10
3.13522e-10
7.4205e-10
3.1261e-10
9.36932e-10
1.74105e-10
1.1392e-09
3.30647e-10
3.42106e-10
1.14528e-09
3.25413e-10
4.98067e-10
1.13775e-09
3.21398e-10
6.35318e-10
1.11637e-09
3.1841e-10
7.48367e-10
1.08178e-09
3.16258e-10
8.3355e-10
1.03534e-09
3.14702e-10
8.89059e-10
9.78781e-10
3.13465e-10
9.13942e-10
9.14217e-10
3.12151e-10
9.08205e-10
8.44255e-10
3.10316e-10
7.7116e-10
3.07793e-10
8.83034e-10
1.56669e-10
1.10706e-09
3.39269e-10
3.08729e-10
1.11509e-09
3.33268e-10
4.51096e-10
1.11103e-09
3.28114e-10
5.77634e-10
1.09382e-09
3.23703e-10
6.83137e-10
1.06353e-09
3.19923e-10
7.63813e-10
1.02117e-09
3.16591e-10
8.17629e-10
9.68523e-10
3.13478e-10
8.44109e-10
9.08214e-10
3.10284e-10
8.43234e-10
8.43325e-10
3.06672e-10
7.77742e-10
3.02608e-10
8.25415e-10
1.38638e-10
3.45915e-10
1.04145e-09
2.73831e-10
3.3915e-10
1.05233e-09
4.01628e-10
3.32968e-10
1.05309e-09
5.16534e-10
3.27317e-10
1.04192e-09
6.13742e-10
3.22139e-10
1.0183e-09
6.89679e-10
3.17299e-10
9.8276e-10
7.42289e-10
3.12592e-10
9.36791e-10
7.71246e-10
3.07772e-10
8.8298e-10
7.77731e-10
3.02594e-10
8.25476e-10
2.97041e-10
7.69117e-10
7.69209e-10
4.7316e-10
4.74174e-10
3.90508e-10
9.02263e-10
4.66572e-10
3.903e-10
1.26984e-09
4.48612e-10
3.95902e-10
1.57135e-09
4.26158e-10
4.06424e-10
1.80553e-09
4.01297e-10
4.2076e-10
1.97212e-09
3.74625e-10
4.37746e-10
2.07188e-09
3.46766e-10
4.56194e-10
2.107e-09
3.1846e-10
4.74885e-10
2.08149e-09
2.90504e-10
4.92542e-10
2.61983e-10
5.07871e-10
2.0007e-09
4.65555e-10
9.02431e-10
3.90229e-10
8.9316e-10
8.93967e-10
3.89712e-10
1.26411e-09
8.66527e-10
3.94706e-10
1.56998e-09
8.27516e-10
4.04299e-10
1.80824e-09
7.82109e-10
4.1751e-10
1.97859e-09
7.32628e-10
4.33267e-10
2.08185e-09
6.80365e-10
4.50436e-10
2.12029e-09
6.26815e-10
4.67833e-10
2.09818e-09
5.73375e-10
4.84197e-10
5.18129e-10
4.98132e-10
2.02176e-09
4.48271e-10
1.26886e-09
3.958e-10
8.65669e-10
1.26371e-09
3.94624e-10
1.23432e-09
1.23473e-09
3.98577e-10
1.54235e-09
1.18745e-09
4.0676e-10
1.78419e-09
1.12798e-09
4.18258e-10
1.95872e-09
1.06113e-09
4.32142e-10
2.06667e-09
9.89546e-10
4.47387e-10
2.11024e-09
9.15182e-10
4.62849e-10
2.09388e-09
8.40093e-10
4.77323e-10
7.61842e-10
4.8946e-10
2.02517e-09
4.26502e-10
1.56999e-09
4.06336e-10
8.27488e-10
1.5688e-09
4.04203e-10
1.18695e-09
1.54178e-09
4.0669e-10
1.49256e-09
1.49276e-09
4.13044e-10
1.73616e-09
1.42643e-09
4.22401e-10
1.91436e-09
1.34808e-09
4.33904e-10
2.0272e-09
1.26231e-09
4.46676e-10
2.07666e-09
1.17221e-09
4.59695e-10
2.06713e-09
1.08018e-09
4.71833e-10
9.83674e-10
4.8185e-10
2.00819e-09
4.01763e-10
1.80412e-09
4.20696e-10
7.82773e-10
1.80692e-09
4.17446e-10
1.12822e-09
1.7831e-09
4.18188e-10
1.42611e-09
1.73563e-09
4.22346e-10
1.66795e-09
1.66816e-09
4.29222e-10
1.84844e-09
1.58469e-09
4.38025e-10
1.96568e-09
1.48999e-09
4.47948e-10
2.02092e-09
1.38882e-09
4.58127e-10
2.01836e-09
1.28472e-09
4.67599e-10
1.17537e-09
4.75251e-10
1.97029e-09
3.75032e-10
1.97072e-09
4.3771e-10
7.33394e-10
1.97728e-09
4.33237e-10
1.06196e-09
1.95755e-09
4.32111e-10
1.34841e-09
1.91345e-09
4.33861e-10
1.58432e-09
1.84811e-09
4.37982e-10
1.76433e-09
1.76484e-09
4.43865e-10
1.88497e-09
1.6671e-09
4.50756e-10
1.94546e-09
1.55958e-09
4.57853e-10
1.94945e-09
1.44763e-09
4.64381e-10
1.33076e-09
4.69453e-10
1.91248e-09
3.47115e-10
2.07055e-09
4.56197e-10
6.81029e-10
2.0806e-09
4.50443e-10
9.90465e-10
2.06555e-09
4.47396e-10
1.26327e-09
2.02624e-09
4.4668e-10
1.49032e-09
1.96498e-09
4.47919e-10
1.66636e-09
1.88486e-09
4.50694e-10
1.78816e-09
1.78891e-09
4.54438e-10
1.85332e-09
1.6807e-09
4.58384e-10
1.86361e-09
1.56562e-09
4.61792e-10
1.44622e-09
4.64094e-10
1.83731e-09
3.18747e-10
2.10577e-09
4.74934e-10
6.27373e-10
2.11914e-09
4.67883e-10
9.15989e-10
2.1092e-09
4.62897e-10
1.17327e-09
2.07577e-09
4.59733e-10
1.38988e-09
2.02018e-09
4.58136e-10
1.55972e-09
1.94496e-09
4.57785e-10
1.67992e-09
1.85332e-09
4.58289e-10
1.7485e-09
1.74898e-09
4.59018e-10
1.76523e-09
1.63651e-09
4.59246e-10
1.52046e-09
4.58685e-10
1.74895e-09
2.90722e-10
2.08038e-09
4.92636e-10
5.73803e-10
2.09714e-09
4.84289e-10
8.40718e-10
2.09294e-09
4.77405e-10
1.08099e-09
2.06633e-09
4.71894e-10
1.28573e-09
2.01772e-09
4.67629e-10
1.44843e-09
1.94899e-09
4.64348e-10
1.56562e-09
1.86333e-09
4.61701e-10
1.63616e-09
1.76518e-09
4.59183e-10
1.65972e-09
1.65987e-09
4.56219e-10
1.55443e-09
4.5271e-10
1.65395e-09
2.62127e-10
5.0799e-10
1.99972e-09
5.18415e-10
4.98247e-10
2.02086e-09
7.62258e-10
4.89563e-10
2.02437e-09
9.84202e-10
4.81927e-10
2.00753e-09
1.17597e-09
4.75291e-10
1.96975e-09
1.33136e-09
4.6945e-10
1.91208e-09
1.4466e-09
4.64059e-10
1.83703e-09
1.52055e-09
4.58644e-10
1.74881e-09
1.55435e-09
4.5268e-10
1.654e-09
4.46067e-10
1.56064e-09
1.56079e-09
7.12621e-10
7.14104e-10
4.43558e-10
1.36181e-09
7.03513e-10
4.45198e-10
1.92311e-09
6.78143e-10
4.55102e-10
2.3915e-09
6.46706e-10
4.72185e-10
2.76656e-09
6.12231e-10
4.95097e-10
3.04857e-09
5.75601e-10
5.22433e-10
3.23893e-09
5.37719e-10
5.52754e-10
3.34059e-09
4.99673e-10
5.8455e-10
3.35853e-09
4.62655e-10
6.16159e-10
4.25466e-10
6.4579e-10
3.29903e-09
7.02007e-10
1.36202e-09
4.45103e-10
1.34992e-09
1.35103e-09
4.46332e-10
1.91708e-09
1.31285e-09
4.55415e-10
2.3926e-09
1.25849e-09
4.7123e-10
2.77428e-09
1.1957e-09
4.92596e-10
3.06237e-09
1.12796e-09
5.18227e-10
3.25833e-09
1.05711e-09
5.46743e-10
3.36518e-09
9.85337e-10
5.76662e-10
3.38817e-09
9.14705e-10
6.06315e-10
8.42556e-10
6.3368e-10
3.33412e-09
6.77578e-10
1.92175e-09
4.54971e-10
1.31158e-09
1.9165e-09
4.5531e-10
1.87662e-09
1.87725e-09
4.62988e-10
2.35641e-09
1.81221e-09
4.76897e-10
2.74412e-09
1.73047e-09
4.95928e-10
3.03884e-09
1.63927e-09
5.18978e-10
3.2419e-09
1.54258e-09
5.44799e-10
3.35612e-09
1.4432e-09
5.71938e-10
3.38701e-09
1.34415e-09
5.98776e-10
1.242e-09
6.23311e-10
3.34311e-09
6.47171e-10
2.38967e-09
4.72082e-10
1.25839e-09
2.391e-09
4.71111e-10
1.81136e-09
2.35565e-09
4.76804e-10
2.28901e-09
2.2894e-09
4.88241e-10
2.68026e-09
2.19914e-09
5.04361e-10
2.98079e-09
2.09271e-09
5.2413e-10
3.19101e-09
1.97711e-09
5.46491e-10
3.31345e-09
1.857e-09
5.70137e-10
3.35353e-09
1.73583e-09
5.93543e-10
1.61e-09
6.14807e-10
3.32266e-09
6.12907e-10
2.76465e-09
4.95027e-10
1.19665e-09
2.77249e-09
4.92523e-10
1.7307e-09
2.74261e-09
4.95837e-10
2.19849e-09
2.67952e-09
5.04282e-10
2.5883e-09
2.5887e-09
5.1701e-10
2.89272e-09
2.47604e-09
5.33051e-10
3.10925e-09
2.34863e-09
5.51415e-10
3.23952e-09
2.21375e-09
5.71005e-10
3.28882e-09
2.07683e-09
5.90514e-10
1.93445e-09
6.08169e-10
3.27242e-09
5.76192e-10
3.04667e-09
5.224e-10
1.12907e-09
3.06059e-09
5.18198e-10
1.64043e-09
3.03723e-09
5.1894e-10
2.09304e-09
2.97952e-09
5.24066e-10
2.47528e-09
2.89225e-09
5.32983e-10
2.77973e-09
2.78054e-09
5.44961e-10
3.00119e-09
2.64949e-09
5.59055e-10
3.13834e-09
2.50599e-09
5.7422e-10
3.19592e-09
2.3584e-09
5.89407e-10
2.20619e-09
6.03122e-10
3.19408e-09
5.38225e-10
3.23712e-09
5.52771e-10
1.05807e-09
3.25662e-09
5.4676e-10
1.54391e-09
3.24036e-09
5.44814e-10
1.97846e-09
3.1897e-09
5.46491e-10
2.34893e-09
3.10825e-09
5.51362e-10
2.6481e-09
3.00093e-09
5.58949e-10
2.87133e-09
2.87249e-09
5.68558e-10
3.01447e-09
2.72798e-09
5.79145e-10
3.07946e-09
2.57548e-09
5.89676e-10
2.41932e-09
5.99108e-10
3.09116e-09
5.0009e-10
3.3389e-09
5.84625e-10
9.86149e-10
3.36359e-09
5.76733e-10
1.44438e-09
3.35467e-09
5.72e-10
1.85855e-09
3.31218e-09
5.70182e-10
2.21528e-09
3.23844e-09
5.71005e-10
2.5059e-09
3.13746e-09
5.74096e-10
2.7265e-09
3.01426e-09
5.78985e-10
2.87346e-09
2.87416e-09
5.84775e-10
2.94556e-09
2.72388e-09
5.90431e-10
2.57081e-09
5.95317e-10
2.96921e-09
4.62972e-10
3.357e-09
6.16289e-10
9.15328e-10
3.38674e-09
6.06438e-10
1.34506e-09
3.38571e-09
5.98881e-10
1.73703e-09
3.35239e-09
5.93615e-10
2.07835e-09
3.28786e-09
5.90541e-10
2.35947e-09
3.19513e-09
5.89338e-10
2.57523e-09
3.07888e-09
5.89525e-10
2.7232e-09
2.94536e-09
5.9033e-10
2.802e-09
2.80223e-09
5.90878e-10
2.66009e-09
5.90792e-10
2.83675e-09
4.25678e-10
6.4595e-10
3.29765e-09
8.42975e-10
6.33832e-10
3.33284e-09
1.24261e-09
6.23442e-10
3.34198e-09
1.61078e-09
6.14901e-10
3.3217e-09
1.93534e-09
6.08212e-10
3.27162e-09
2.20705e-09
6.03105e-10
3.19344e-09
2.41984e-09
5.9905e-10
3.09069e-09
2.57084e-09
5.9525e-10
2.96893e-09
2.65986e-09
5.90737e-10
2.83671e-09
5.85162e-10
2.7053e-09
2.70547e-09
9.87461e-10
9.89452e-10
4.22457e-10
1.89158e-09
9.76101e-10
4.27332e-10
2.68096e-09
9.43483e-10
4.43039e-10
3.35119e-09
9.03445e-10
4.68307e-10
3.90387e-09
8.60041e-10
5.01662e-10
4.34037e-09
8.14486e-10
5.41609e-10
4.66287e-09
7.67974e-10
5.86622e-10
4.87477e-09
7.21963e-10
6.35043e-10
4.98117e-09
6.78061e-10
6.84932e-10
6.34762e-10
7.3408e-10
4.98774e-09
9.74061e-10
1.89187e-09
4.27228e-10
1.87782e-09
1.87927e-09
4.31548e-10
2.67636e-09
1.83095e-09
4.46187e-10
3.35724e-09
1.76204e-09
4.69851e-10
3.91981e-09
1.68327e-09
5.01259e-10
4.36533e-09
1.59937e-09
5.39041e-10
4.69606e-09
1.51273e-09
5.81718e-10
4.91543e-09
1.42626e-09
6.27645e-10
5.02874e-09
1.3427e-09
6.74836e-10
1.25848e-09
7.20664e-10
5.04129e-09
9.42637e-10
2.67934e-09
4.42903e-10
1.82924e-09
2.67572e-09
4.46077e-10
2.62673e-09
2.62767e-09
4.58923e-10
3.315e-09
2.54652e-09
4.80192e-10
3.88682e-09
2.44475e-09
5.08675e-10
4.34199e-09
2.33231e-09
5.43198e-10
4.68258e-09
2.21463e-09
5.82418e-10
4.91161e-09
2.09537e-09
6.24688e-10
5.03478e-09
1.97846e-09
6.68048e-10
1.85927e-09
7.09822e-10
5.0593e-09
9.04009e-10
3.34906e-09
4.68214e-10
1.76183e-09
3.35538e-09
4.69735e-10
2.54518e-09
3.31415e-09
4.80094e-10
3.23267e-09
3.2334e-09
4.98273e-10
3.81068e-09
3.12244e-09
5.23109e-10
4.2743e-09
2.99194e-09
5.5349e-10
4.6245e-09
2.85164e-09
5.88284e-10
4.86391e-09
2.70793e-09
6.25993e-10
4.99815e-09
2.56527e-09
6.64745e-10
2.41858e-09
7.01915e-10
5.03825e-09
8.60931e-10
3.9016e-09
5.01613e-10
1.68449e-09
3.91767e-09
5.01201e-10
2.44485e-09
3.88498e-09
5.08583e-10
3.12126e-09
3.80981e-09
5.23019e-10
3.69898e-09
3.69971e-09
5.4359e-10
4.16862e-09
3.56269e-09
5.69251e-10
4.52704e-09
3.40839e-09
5.98924e-10
4.77598e-09
3.24694e-09
6.31347e-10
4.92102e-09
3.08587e-09
6.64907e-10
2.9201e-09
6.97045e-10
4.97833e-09
8.15263e-10
4.33811e-09
5.41607e-10
1.60084e-09
4.3632e-09
5.39037e-10
2.33377e-09
4.34004e-09
5.43172e-10
2.99212e-09
4.27274e-09
5.53421e-10
3.56132e-09
4.16807e-09
5.69168e-10
4.03196e-09
4.03323e-09
5.89647e-10
4.39688e-09
3.87513e-09
6.13814e-10
4.65376e-09
3.703e-09
6.40449e-10
4.80781e-09
3.52865e-09
6.68238e-10
3.35121e-09
6.94884e-10
4.88198e-09
7.68637e-10
4.6607e-09
5.8668e-10
1.51399e-09
4.69401e-09
5.81771e-10
2.21637e-09
4.68071e-09
5.82456e-10
2.85336e-09
4.62289e-09
5.88294e-10
3.40848e-09
4.52578e-09
5.98858e-10
3.87279e-09
4.39645e-09
6.13673e-10
4.24004e-09
4.24174e-09
6.31989e-10
4.50351e-09
4.06807e-09
6.52553e-10
4.66461e-09
3.88639e-09
6.74036e-10
3.70301e-09
6.94664e-10
4.75362e-09
7.22511e-10
4.87272e-09
6.3517e-10
1.42733e-09
4.9135e-09
6.27761e-10
2.09693e-09
4.90984e-09
6.24782e-10
2.71001e-09
4.86233e-09
6.26053e-10
3.24892e-09
4.77458e-09
6.3134e-10
3.70241e-09
4.65241e-09
6.40269e-10
4.06556e-09
4.50296e-09
6.52326e-10
4.33217e-09
4.33315e-09
6.66378e-10
4.49908e-09
4.15178e-09
6.81082e-10
3.96956e-09
6.95193e-10
4.59978e-09
6.78478e-10
4.97928e-09
6.85123e-10
1.34352e-09
5.02697e-09
6.75011e-10
1.97967e-09
5.03316e-09
6.68191e-10
2.56687e-09
4.9967e-09
6.64836e-10
3.08793e-09
4.91973e-09
6.6493e-10
3.52991e-09
4.80662e-09
6.68125e-10
3.88567e-09
4.66361e-09
6.73819e-10
4.1506e-09
4.49864e-09
6.80941e-10
4.32132e-09
4.32163e-09
6.883e-10
4.14712e-09
6.94959e-10
4.43028e-09
6.35044e-10
7.34304e-10
4.98601e-09
1.25904e-09
7.20872e-10
5.03968e-09
1.86009e-09
7.09994e-10
5.05788e-09
2.41962e-09
7.02032e-10
5.03701e-09
2.92128e-09
6.9709e-10
4.97726e-09
3.3523e-09
6.94848e-10
4.88106e-09
3.70362e-09
6.94577e-10
4.75289e-09
3.96946e-09
6.95095e-10
4.59927e-09
4.14665e-09
6.94875e-10
4.43007e-09
6.93102e-10
4.25968e-09
4.25986e-09
1.29021e-09
1.29283e-09
3.06537e-10
2.47717e-09
1.27719e-09
3.15866e-10
3.52348e-09
1.23776e-09
3.38259e-10
4.42662e-09
1.18985e-09
3.72273e-10
5.19123e-09
1.13873e-09
4.16457e-10
5.82049e-09
1.0859e-09
4.69422e-10
6.31765e-09
1.03287e-09
5.29767e-10
6.68637e-09
9.81481e-10
5.95911e-10
6.93111e-09
9.3378e-10
6.65851e-10
8.87884e-10
7.37192e-10
7.05551e-09
1.27448e-09
2.47771e-09
3.15774e-10
2.4626e-09
2.46461e-09
3.2436e-10
3.52214e-09
2.40735e-09
3.45427e-10
4.44021e-09
2.32555e-09
3.77569e-10
5.21866e-09
2.23322e-09
4.19503e-10
5.86046e-09
2.13645e-09
4.69944e-10
6.36898e-09
2.0382e-09
5.2752e-10
6.74785e-09
1.94213e-09
5.90632e-10
7.00154e-09
1.85164e-09
6.5718e-10
1.76203e-09
7.24142e-10
7.13176e-09
1.23655e-09
3.52177e-09
3.38145e-10
2.40498e-09
3.52163e-09
3.45336e-10
3.46551e-09
3.467e-09
3.64249e-10
4.39506e-09
3.37253e-09
3.93588e-10
5.18674e-09
3.25438e-09
4.3215e-10
5.84176e-09
3.12549e-09
4.78816e-10
6.36319e-09
2.99289e-09
5.32329e-10
6.75402e-09
2.86112e-09
5.91043e-10
7.0192e-09
2.73498e-09
6.52839e-10
2.60816e-09
7.14534e-10
7.1624e-09
1.19049e-09
4.42435e-09
3.72212e-10
2.32509e-09
4.43825e-09
3.77482e-10
3.37048e-09
4.3943e-09
3.93507e-10
4.30167e-09
4.30295e-09
4.19261e-10
5.10306e-09
4.17614e-09
4.53607e-10
5.76967e-09
4.0276e-09
4.95485e-10
6.3033e-09
3.87016e-09
5.43822e-10
6.70642e-09
3.71207e-09
5.97096e-10
6.98398e-09
3.55872e-09
6.53256e-10
3.40287e-09
7.09059e-10
7.14434e-09
1.13981e-09
5.1888e-09
4.16454e-10
2.23465e-09
5.21636e-09
4.19484e-10
3.25419e-09
5.18474e-09
4.32084e-10
4.17418e-09
5.10222e-09
4.53528e-10
4.97736e-09
4.97865e-09
4.82937e-10
5.65266e-09
4.82432e-09
5.1933e-10
6.19649e-09
4.65171e-09
5.61677e-10
6.61042e-09
4.47411e-09
6.08678e-10
6.89958e-09
4.30124e-09
6.58542e-10
4.12544e-09
7.07964e-10
7.07871e-09
1.08685e-09
5.81806e-09
4.6948e-10
2.13824e-09
5.85816e-09
4.69991e-10
3.12717e-09
5.83964e-09
4.78826e-10
4.02746e-09
5.76798e-09
4.95435e-10
4.82207e-09
5.65219e-09
5.19253e-10
5.49994e-09
5.5019e-09
5.49589e-10
6.05188e-09
5.32597e-09
5.85445e-10
6.47425e-09
5.13615e-09
6.25559e-10
6.77206e-09
4.94803e-09
6.68434e-10
4.75956e-09
7.10911e-10
6.9689e-09
1.03368e-09
6.3153e-09
5.29896e-10
2.03974e-09
6.36676e-09
5.27635e-10
2.99501e-09
6.36117e-09
5.32412e-10
3.87218e-09
6.30156e-09
5.43857e-10
4.65139e-09
6.19508e-09
5.61616e-10
5.32232e-09
6.05137e-09
5.8529e-10
5.87718e-09
5.87962e-09
6.14183e-10
6.30605e-09
5.68765e-09
6.46971e-10
6.60898e-09
5.4894e-09
6.82117e-10
5.29269e-09
7.16947e-10
6.82004e-09
9.8215e-10
6.68414e-09
5.96119e-10
1.94344e-09
6.74574e-09
5.90819e-10
2.86303e-09
6.75207e-09
5.91188e-10
3.71466e-09
6.70465e-09
5.97183e-10
4.47648e-09
6.60878e-09
6.08672e-10
5.13477e-09
6.4724e-09
6.2534e-10
5.68375e-09
6.30507e-09
6.46697e-10
6.11392e-09
6.11528e-09
6.7147e-10
6.41925e-09
5.9139e-09
6.98102e-10
5.71482e-09
7.2452e-10
6.63918e-09
9.34291e-10
6.92901e-09
6.66131e-10
1.85265e-09
6.99957e-09
6.57433e-10
2.73647e-09
7.01739e-09
6.53037e-10
3.5607e-09
6.98233e-09
6.53374e-10
4.30381e-09
6.89802e-09
6.58563e-10
4.94935e-09
6.77045e-09
6.68279e-10
5.48795e-09
6.60748e-09
6.81841e-10
5.91202e-09
6.41853e-09
6.9793e-10
6.21521e-09
6.21566e-09
7.15085e-10
6.01718e-09
7.31565e-10
6.43654e-09
8.88233e-10
7.37505e-10
7.05351e-09
1.76272e-09
7.24427e-10
7.12991e-09
2.60917e-09
7.14762e-10
7.16076e-09
3.40415e-09
7.09206e-10
7.1429e-09
4.12689e-09
7.08013e-10
7.07743e-09
4.76083e-09
7.10852e-10
6.96772e-09
5.29332e-09
7.16828e-10
6.81904e-09
5.71445e-09
7.24392e-10
6.63841e-09
6.01633e-09
7.31452e-10
6.43609e-09
7.36522e-10
6.22919e-09
6.22937e-09
1.60377e-09
1.60718e-09
8.10696e-11
3.08538e-09
1.58974e-09
9.55977e-11
4.40313e-09
1.54429e-09
1.24419e-10
5.55772e-09
1.48979e-09
1.65949e-10
6.55778e-09
1.43274e-09
2.18924e-10
7.40913e-09
1.37494e-09
2.82274e-10
8.11664e-09
1.31821e-09
3.54954e-10
8.68442e-09
1.26481e-09
4.35729e-10
9.11585e-09
1.21728e-09
5.22854e-10
1.17321e-09
6.14137e-10
9.41169e-09
1.58621e-09
3.08637e-09
9.55447e-11
3.07101e-09
3.07383e-09
1.09123e-10
4.40667e-09
3.00942e-09
1.36401e-10
5.58107e-09
2.91734e-09
1.7593e-10
6.5994e-09
2.81498e-09
2.26549e-10
7.46724e-09
2.70982e-09
2.87233e-10
8.1896e-09
2.60547e-09
3.56946e-10
8.77046e-09
2.50639e-09
4.34394e-10
9.21297e-09
2.41669e-09
5.1768e-10
2.33008e-09
6.03806e-10
9.51372e-09
1.54262e-09
4.4015e-09
1.24357e-10
3.00615e-09
4.4065e-09
1.36354e-10
4.34574e-09
4.34803e-09
1.61222e-10
5.53648e-09
4.24411e-09
1.97735e-10
6.57264e-09
4.11464e-09
2.44819e-10
7.45766e-09
3.97574e-09
3.01549e-10
8.19618e-09
3.83615e-09
3.66945e-10
8.79118e-09
3.70135e-09
4.39625e-10
9.24636e-09
3.57706e-09
5.17607e-10
3.45451e-09
5.97594e-10
9.56009e-09
1.49045e-09
5.55549e-09
1.65944e-10
2.91647e-09
5.57919e-09
1.75903e-10
4.2411e-09
5.53602e-09
1.97699e-10
5.43688e-09
5.43896e-09
2.30402e-10
6.48701e-09
5.30264e-09
2.7305e-10
7.38721e-09
5.14407e-09
3.24775e-10
8.14061e-09
4.97938e-09
3.84717e-10
8.74953e-09
4.81883e-09
4.51557e-10
9.21776e-09
4.66872e-09
5.23342e-10
4.51852e-09
5.96561e-10
9.54905e-09
1.43397e-09
6.55542e-09
2.1899e-10
2.81651e-09
6.59716e-09
2.26591e-10
4.11398e-09
6.57069e-09
2.44809e-10
5.29965e-09
6.48645e-09
2.73009e-10
6.35459e-09
6.3567e-09
3.10469e-10
7.26672e-09
6.19424e-09
3.56427e-10
8.03236e-09
6.01463e-09
4.10064e-10
8.65302e-09
5.83456e-09
4.70222e-10
9.13289e-09
5.66603e-09
5.35162e-10
5.49726e-09
6.01121e-10
9.4832e-09
1.37602e-09
7.40677e-09
2.82414e-10
2.71185e-09
7.46501e-09
2.87352e-10
3.9775e-09
7.4556e-09
3.01614e-10
5.1434e-09
7.38562e-09
3.2477e-10
6.19084e-09
7.26656e-09
3.56381e-10
7.10778e-09
7.11072e-09
3.95945e-10
7.88336e-09
6.92914e-09
4.42692e-10
8.51255e-09
6.73633e-09
4.95508e-10
8.99976e-09
6.5519e-09
5.52885e-10
6.37083e-09
6.1098e-10
9.36701e-09
1.31913e-09
8.11435e-09
3.55174e-10
2.60722e-09
8.18746e-09
3.5714e-10
3.83855e-09
8.19423e-09
3.67087e-10
4.98157e-09
8.13896e-09
3.84791e-10
6.0137e-09
8.031e-09
4.10033e-10
6.92385e-09
7.88294e-09
4.42558e-10
7.70317e-09
7.70659e-09
4.81853e-10
8.33826e-09
7.51129e-09
5.2675e-10
8.82734e-09
7.31409e-09
5.7568e-10
7.12276e-09
6.25103e-10
9.2062e-09
1.26557e-09
8.68223e-09
4.36034e-10
2.50789e-09
8.7684e-09
4.34664e-10
3.70355e-09
8.78927e-09
4.39829e-10
4.82184e-09
8.74777e-09
4.51676e-10
5.8372e-09
8.65131e-09
4.70224e-10
6.73388e-09
8.51026e-09
4.95285e-10
7.50566e-09
8.33691e-09
5.26467e-10
8.13939e-09
8.14128e-09
5.62547e-10
8.62554e-09
7.93637e-09
6.01952e-10
7.73802e-09
6.41713e-10
9.00776e-09
1.21786e-09
9.11373e-09
5.23235e-10
2.41785e-09
9.21099e-09
5.18018e-10
3.57877e-09
9.24455e-09
5.17865e-10
4.67101e-09
9.21609e-09
5.23488e-10
5.66903e-09
9.13122e-09
5.35179e-10
6.55307e-09
8.9978e-09
5.52699e-10
7.31164e-09
8.82537e-09
5.75373e-10
7.93358e-09
8.62461e-09
6.01769e-10
8.40885e-09
8.40954e-09
6.30318e-10
8.20117e-09
6.58353e-10
8.7813e-09
1.17361e-09
6.14543e-10
9.40955e-09
2.33087e-09
6.0417e-10
9.51176e-09
3.45567e-09
5.97878e-10
9.55839e-09
4.51998e-09
5.96734e-10
9.54757e-09
5.49888e-09
6.01169e-10
9.48183e-09
6.37216e-09
6.10899e-10
9.36568e-09
7.12329e-09
6.24957e-10
9.20499e-09
7.73727e-09
6.41564e-10
9.00676e-09
8.19981e-09
6.58223e-10
8.78061e-09
6.72659e-10
8.54542e-09
8.54562e-09
1.90193e-09
1.9062e-09
-2.57447e-10
3.66544e-09
1.88751e-09
-2.37683e-10
5.24631e-09
1.83731e-09
-2.04123e-10
6.64951e-09
1.77802e-09
-1.58432e-10
7.8885e-09
1.71726e-09
-1.01551e-10
8.97253e-09
1.65717e-09
-3.40712e-11
9.90888e-09
1.59989e-09
4.34981e-11
1.07027e-08
1.54819e-09
1.30498e-10
1.13564e-08
1.50515e-09
2.25776e-10
1.4676e-09
3.2782e-10
1.18682e-08
1.8831e-09
3.66703e-09
-2.37674e-10
3.65219e-09
3.65596e-09
-2.19036e-10
5.25583e-09
3.5866e-09
-1.87126e-10
6.68384e-09
3.48756e-09
-1.43344e-10
7.94564e-09
3.37938e-09
-8.86383e-11
9.0502e-09
3.27098e-09
-2.36299e-11
1.0005e-08
3.16666e-09
5.11487e-11
1.08148e-08
3.07177e-09
1.34948e-10
1.14817e-08
2.99122e-09
2.26424e-10
2.91655e-09
3.23171e-10
1.19967e-08
1.83514e-09
5.24496e-09
-2.04105e-10
3.58233e-09
5.2562e-09
-1.87106e-10
5.19344e-09
5.1967e-09
-1.57658e-10
6.643e-09
5.0877e-09
-1.16794e-10
7.92745e-09
4.95276e-09
-6.53635e-11
9.05327e-09
4.81109e-09
-3.99576e-12
1.00274e-08
4.67325e-09
6.67616e-11
1.08533e-08
4.54578e-09
1.46035e-10
1.15336e-08
4.43536e-09
2.32333e-10
4.32975e-09
3.22821e-10
1.20605e-08
1.77862e-09
6.64757e-09
-1.58368e-10
3.48616e-09
6.68228e-09
-1.43289e-10
5.08358e-09
6.64308e-09
-1.16765e-10
6.54231e-09
6.5454e-09
-7.95227e-11
7.84545e-09
6.40654e-09
-3.22282e-11
8.99029e-09
6.24685e-09
2.45498e-11
9.98196e-09
6.08584e-09
9.02848e-11
1.08231e-08
5.93586e-09
1.64084e-10
1.15165e-08
5.80419e-09
2.44437e-10
5.67545e-09
3.28124e-10
1.20602e-08
1.71858e-09
7.88645e-09
-1.01409e-10
3.3809e-09
7.94371e-09
-8.85241e-11
4.95148e-09
7.92581e-09
-6.52974e-11
6.40235e-09
7.84541e-09
-3.22094e-11
7.71406e-09
7.71723e-09
1.02703e-11
8.8745e-09
7.5567e-09
6.17214e-11
9.88063e-09
7.38263e-09
1.21668e-10
1.07342e-08
7.21528e-09
1.8928e-10
1.14387e-08
7.06889e-09
2.63162e-10
6.92549e-09
3.39637e-10
1.20004e-08
1.65832e-09
8.97051e-09
-3.38465e-11
3.27314e-09
9.04831e-09
-2.34387e-11
4.8128e-09
9.05153e-09
-3.86822e-12
6.24552e-09
8.98904e-09
2.4607e-11
7.55195e-09
8.87494e-09
6.17272e-11
8.72011e-09
8.7243e-09
1.0726e-10
9.73829e-09
8.5506e-09
1.60819e-10
1.06004e-08
8.37149e-09
2.21644e-10
1.13104e-08
8.21049e-09
2.88449e-10
8.05702e-09
3.57173e-10
1.18868e-08
1.60088e-09
9.90691e-09
4.38044e-11
3.16853e-09
1.00032e-08
5.14156e-11
4.6758e-09
1.00258e-08
6.69576e-11
6.08806e-09
9.98064e-09
9.03967e-11
7.38095e-09
9.87956e-09
1.21684e-10
8.5435e-09
9.73821e-09
1.60745e-10
9.56665e-09
9.57128e-09
2.07355e-10
1.0434e-08
9.38998e-09
2.60745e-10
1.11419e-08
9.21456e-09
3.19579e-10
9.04983e-09
3.79775e-10
1.17256e-08
1.54902e-09
1.07007e-08
1.30885e-10
3.07338e-09
1.0813e-08
1.35285e-10
4.54814e-09
1.08517e-08
1.46286e-10
5.93914e-09
1.08216e-08
1.64225e-10
7.21802e-09
1.07327e-08
1.89292e-10
8.36777e-09
1.05979e-08
2.21462e-10
9.38243e-09
1.04325e-08
2.6051e-10
1.02455e-08
1.02481e-08
3.05494e-10
1.0944e-08
1.006e-08
3.55114e-10
9.88354e-09
4.05703e-10
1.15233e-08
1.50578e-09
1.13545e-08
2.26233e-10
2.99246e-09
1.14799e-08
2.26823e-10
4.43718e-09
1.1532e-08
2.32629e-10
5.80663e-09
1.1515e-08
2.44597e-10
7.07212e-09
1.14371e-08
2.63172e-10
8.21129e-09
1.13082e-08
2.88257e-10
9.21092e-09
1.11396e-08
3.1929e-10
1.00562e-08
1.0943e-08
3.54951e-10
1.07332e-08
1.07343e-08
3.93828e-10
1.0535e-08
4.32454e-10
1.12879e-08
1.46803e-09
3.28291e-10
1.1866e-08
2.9174e-09
3.23585e-10
1.19948e-08
4.33098e-09
3.23133e-10
1.20589e-08
5.67698e-09
3.28304e-10
1.20589e-08
6.92715e-09
3.39675e-10
1.19991e-08
8.05823e-09
3.57074e-10
1.18855e-08
9.0501e-09
3.79617e-10
1.17244e-08
9.88225e-09
4.05554e-10
1.15222e-08
1.05329e-08
4.32326e-10
1.1287e-08
4.56975e-10
1.1038e-08
1.10383e-08
2.15233e-09
2.15743e-09
-6.96563e-10
4.15414e-09
2.13807e-09
-6.72264e-10
5.96037e-09
2.08471e-09
-6.36911e-10
7.58057e-09
2.02263e-09
-5.92163e-10
9.03332e-09
1.9604e-09
-5.38577e-10
1.03318e-08
1.90049e-09
-4.76241e-10
1.14865e-08
1.84545e-09
-4.05115e-10
1.25043e-08
1.79857e-09
-3.25219e-10
1.33879e-08
1.76353e-09
-2.3692e-10
1.73619e-09
-1.40709e-10
1.4134e-08
2.13284e-09
4.15642e-09
-6.7218e-10
4.14256e-09
4.14729e-09
-6.49091e-10
5.97592e-09
4.0753e-09
-6.15313e-10
7.62545e-09
3.97274e-09
-5.72109e-10
9.10508e-09
3.86288e-09
-5.2018e-10
1.04278e-08
3.75588e-09