/*--------------------------------*- C++ -*----------------------------------*\
| =========                 |                                                 |
| \\      /  F ield         | foam-extend: Open Source CFD                    |
|  \\    /   O peration     | Version:     3.1                                |
|   \\  /    A nd           | Web:         http://www.extend-project.de       |
|    \\/     M anipulation  |                                                 |
\*---------------------------------------------------------------------------*/
FoamFile
{
    version     2.0;
    format      ascii;
    class       volScalarField;
    location    "0.0016";
    object      p;
}
// * * * * * * * * * * * * * * * * * * * * * * * * * * * * * * * * * * * * * //

dimensions      [0 2 -2 0 0 0 0];

internalField   nonuniform List<scalar> 
16000
(
1.31971
1.31981
1.32003
1.32034
1.32077
1.32129
1.32192
1.32265
1.32346
1.32435
1.31981
1.31991
1.32012
1.32042
1.32083
1.32133
1.32194
1.32264
1.32343
1.32429
1.32003
1.32012
1.3203
1.32059
1.32098
1.32146
1.32204
1.32271
1.32346
1.32429
1.32034
1.32042
1.32059
1.32086
1.32122
1.32167
1.32222
1.32285
1.32357
1.32436
1.32077
1.32083
1.32098
1.32122
1.32155
1.32197
1.32248
1.32307
1.32375
1.32449
1.32129
1.32133
1.32146
1.32167
1.32197
1.32235
1.32282
1.32337
1.32399
1.32468
1.32192
1.32194
1.32204
1.32222
1.32248
1.32282
1.32324
1.32373
1.3243
1.32493
1.32265
1.32264
1.32271
1.32285
1.32307
1.32337
1.32373
1.32417
1.32468
1.32523
1.32346
1.32343
1.32346
1.32357
1.32375
1.32399
1.3243
1.32468
1.32511
1.32558
1.32435
1.32429
1.32429
1.32436
1.32449
1.32468
1.32493
1.32523
1.32558
1.32596
1.29236
1.29269
1.29335
1.29435
1.29568
1.29733
1.2993
1.30159
1.30416
1.30699
1.29269
1.293
1.29363
1.29458
1.29585
1.29743
1.29933
1.30152
1.304
1.30673
1.29335
1.29363
1.29421
1.29511
1.29631
1.29781
1.29962
1.30172
1.30408
1.3067
1.29435
1.29458
1.29511
1.29593
1.29706
1.29847
1.30018
1.30216
1.30441
1.30689
1.29568
1.29585
1.29631
1.29706
1.29809
1.29941
1.301
1.30286
1.30497
1.30731
1.29733
1.29743
1.29781
1.29847
1.29941
1.30061
1.30208
1.30381
1.30577
1.30796
1.2993
1.29933
1.29962
1.30018
1.301
1.30208
1.30342
1.30499
1.3068
1.30882
1.30159
1.30152
1.30171
1.30216
1.30286
1.30381
1.30499
1.30641
1.30806
1.30989
1.30416
1.304
1.30408
1.30441
1.30497
1.30577
1.3068
1.30806
1.30952
1.31117
1.30699
1.30673
1.30669
1.30689
1.30731
1.30796
1.30882
1.30989
1.31117
1.31262
1.2629
1.26346
1.26459
1.26628
1.26854
1.27138
1.27479
1.27876
1.2833
1.28837
1.26346
1.26398
1.26505
1.26667
1.26884
1.27156
1.27483
1.27866
1.28302
1.28791
1.26459
1.26505
1.26605
1.26757
1.26963
1.27222
1.27534
1.279
1.28318
1.28786
1.26628
1.26667
1.26757
1.26898
1.27091
1.27336
1.27632
1.27979
1.28376
1.28822
1.26854
1.26884
1.26963
1.27091
1.27269
1.27498
1.27775
1.28102
1.28478
1.289
1.27138
1.27156
1.27222
1.27336
1.27498
1.27708
1.27965
1.28271
1.28622
1.29018
1.27478
1.27483
1.27534
1.27631
1.27775
1.27965
1.28201
1.28483
1.28809
1.29178
1.27876
1.27866
1.279
1.27979
1.28102
1.28271
1.28483
1.28739
1.29038
1.29377
1.2833
1.28302
1.28317
1.28376
1.28478
1.28622
1.28809
1.29038
1.29307
1.29616
1.28837
1.28791
1.28785
1.28822
1.28899
1.29018
1.29178
1.29377
1.29616
1.29892
1.22964
1.23043
1.232
1.23438
1.23758
1.24161
1.24648
1.25223
1.25887
1.26639
1.23043
1.23116
1.23266
1.23493
1.238
1.24187
1.24656
1.25208
1.25847
1.26571
1.232
1.23266
1.23406
1.23621
1.23912
1.24281
1.24729
1.25258
1.2587
1.26564
1.23438
1.23493
1.23621
1.23821
1.24095
1.24444
1.2487
1.25374
1.25957
1.26619
1.23758
1.238
1.23912
1.24095
1.2435
1.24677
1.25079
1.25555
1.26108
1.26736
1.2416
1.24186
1.24281
1.24444
1.24677
1.24981
1.25355
1.25803
1.26323
1.26916
1.24648
1.24655
1.24729
1.2487
1.25079
1.25355
1.25701
1.26117
1.26603
1.27158
1.25223
1.25208
1.25258
1.25374
1.25555
1.25803
1.26117
1.26498
1.26947
1.27463
1.25886
1.25846
1.25869
1.25957
1.26108
1.26323
1.26603
1.26947
1.27357
1.2783
1.26639
1.2657
1.26563
1.26619
1.26736
1.26916
1.27158
1.27463
1.2783
1.28259
1.19115
1.19214
1.19412
1.19712
1.20117
1.2063
1.21257
1.22002
1.22873
1.23873
1.19214
1.19306
1.19495
1.19782
1.20171
1.20664
1.21266
1.21984
1.2282
1.23782
1.19412
1.19495
1.19671
1.19943
1.20313
1.20785
1.21362
1.22049
1.22852
1.23774
1.19712
1.19782
1.19943
1.20198
1.20547
1.20995
1.21545
1.22201
1.22968
1.23849
1.20117
1.2017
1.20313
1.20547
1.20874
1.21296
1.21816
1.22439
1.23169
1.24007
1.2063
1.20664
1.20785
1.20995
1.21296
1.21689
1.22178
1.22766
1.23456
1.2425
1.21257
1.21266
1.21362
1.21545
1.21816
1.22178
1.22632
1.23183
1.23831
1.24579
1.22002
1.21983
1.22049
1.22201
1.22439
1.22766
1.23182
1.23692
1.24296
1.24995
1.22872
1.2282
1.22851
1.22967
1.23168
1.23456
1.23831
1.24296
1.24852
1.25499
1.23873
1.23782
1.23773
1.23848
1.24007
1.2425
1.24579
1.24995
1.25499
1.26092
1.14616
1.14729
1.14958
1.15305
1.15775
1.16375
1.17113
1.18001
1.19049
1.20269
1.14729
1.14836
1.15053
1.15386
1.15837
1.16415
1.17125
1.17979
1.18986
1.20158
1.14958
1.15053
1.15257
1.15573
1.16004
1.16557
1.17239
1.18058
1.19025
1.20148
1.15305
1.15386
1.15573
1.15869
1.16278
1.16805
1.17457
1.18241
1.19166
1.20241
1.15775
1.15837
1.16004
1.16278
1.16662
1.17161
1.1778
1.18528
1.19411
1.20437
1.16375
1.16414
1.16557
1.16805
1.17161
1.17629
1.18214
1.18923
1.19762
1.20738
1.17113
1.17125
1.17239
1.17456
1.1778
1.18214
1.18762
1.19429
1.20223
1.21147
1.18001
1.17978
1.18058
1.1824
1.18527
1.18923
1.19429
1.20052
1.20797
1.21666
1.19048
1.18985
1.19024
1.19165
1.1941
1.19762
1.20223
1.20797
1.21488
1.22299
1.20268
1.20157
1.20148
1.20241
1.20437
1.20738
1.21147
1.21666
1.22299
1.23049
1.09372
1.09491
1.09733
1.10101
1.10602
1.11247
1.12048
1.1302
1.14181
1.15552
1.09491
1.09603
1.09834
1.10187
1.1067
1.1129
1.12061
1.12996
1.14111
1.15427
1.09733
1.09834
1.1005
1.10387
1.10849
1.11445
1.12185
1.13083
1.14155
1.15417
1.10101
1.10187
1.10387
1.10704
1.11143
1.11713
1.12423
1.13285
1.14313
1.15522
1.10602
1.10669
1.10849
1.11143
1.11558
1.121
1.12778
1.13603
1.14587
1.15744
1.11247
1.1129
1.11444
1.11713
1.121
1.12612
1.13256
1.14042
1.14982
1.16087
1.12048
1.12061
1.12185
1.12423
1.12778
1.13256
1.13863
1.14608
1.15502
1.16553
1.13019
1.12995
1.13083
1.13284
1.13602
1.14042
1.14608
1.1531
1.16155
1.1715
1.1418
1.14111
1.14154
1.14312
1.14587
1.14982
1.15502
1.16155
1.16946
1.17882
1.15552
1.15426
1.15416
1.15521
1.15744
1.16086
1.16553
1.1715
1.17882
1.18756
1.03339
1.03453
1.03685
1.04039
1.04524
1.05153
1.05941
1.06909
1.08081
1.09485
1.03453
1.03561
1.03782
1.04122
1.0459
1.05195
1.05954
1.06885
1.0801
1.09356
1.03685
1.03782
1.0399
1.04315
1.04764
1.05347
1.06077
1.06972
1.08054
1.09345
1.04039
1.04122
1.04315
1.04623
1.05051
1.0561
1.06313
1.07174
1.08213
1.09452
1.04524
1.04589
1.04764
1.05051
1.05458
1.05992
1.06666
1.07494
1.08492
1.09681
1.05153
1.05195
1.05346
1.0561
1.05992
1.065
1.07144
1.07937
1.08896
1.10036
1.05941
1.05954
1.06077
1.06313
1.06666
1.07144
1.07756
1.08513
1.09431
1.10521
1.06909
1.06884
1.06972
1.07174
1.07493
1.07937
1.08513
1.09232
1.10106
1.11146
1.0808
1.08009
1.08053
1.08213
1.08492
1.08895
1.0943
1.10106
1.10932
1.11919
1.09484
1.09355
1.09344
1.09452
1.09681
1.10035
1.10521
1.11145
1.11919
1.1285
0.965455
0.966413
0.968354
0.971338
0.975455
0.980833
0.987644
0.996115
1.00653
1.01924
0.966412
0.967313
0.969171
0.972042
0.97601
0.981194
0.987754
0.995898
1.00589
1.01806
0.968353
0.96917
0.970927
0.973675
0.977493
0.98249
0.988815
0.996661
1.00627
1.01794
0.971337
0.972041
0.973675
0.976286
0.979946
0.984759
0.99086
0.998429
1.00769
1.01891
0.975453
0.976009
0.977492
0.979946
0.983437
0.98806
0.993942
1.00125
1.01018
1.02097
0.98083
0.981192
0.982488
0.984757
0.98806
0.992481
0.998139
1.00518
1.0138
1.0242
0.987641
0.987751
0.988812
0.990858
0.993941
0.998138
1.00356
1.01033
1.01864
1.02865
0.996111
0.995894
0.996657
0.998426
1.00124
1.00518
1.01033
1.01682
1.0248
1.03443
1.00652
1.00589
1.00627
1.00768
1.01017
1.0138
1.01863
1.0248
1.03244
1.04167
1.01924
1.01805
1.01794
1.0189
1.02097
1.02419
1.02865
1.03443
1.04166
1.05049
0.891034
0.891672
0.892968
0.894973
0.89776
0.901437
0.906156
0.912119
0.919595
0.928939
0.891671
0.892273
0.893516
0.895447
0.898135
0.901682
0.906228
0.911959
0.919124
0.928049
0.892968
0.893515
0.894694
0.896547
0.89914
0.902566
0.906956
0.912484
0.91938
0.92794
0.894972
0.895446
0.896546
0.898314
0.90081
0.904122
0.90837
0.913718
0.920378
0.928621
0.897758
0.898134
0.899139
0.90081
0.903203
0.906401
0.910517
0.915702
0.922153
0.930116
0.901435
0.901681
0.902564
0.904121
0.906401
0.909481
0.913468
0.918501
0.924762
0.932474
0.906154
0.906225
0.906954
0.908369
0.910516
0.913467
0.91732
0.922204
0.928287
0.935768
0.912116
0.911956
0.912481
0.913716
0.915701
0.918499
0.922203
0.926933
0.932841
0.940103
0.919591
0.91912
0.919376
0.920375
0.922151
0.92476
0.928285
0.93284
0.938567
0.94562
0.928935
0.928044
0.927936
0.928617
0.930113
0.932471
0.935765
0.940101
0.945619
0.952486
0.812098
0.812315
0.812756
0.813447
0.814426
0.815748
0.817495
0.819783
0.822779
0.826722
0.812315
0.81252
0.812944
0.813611
0.814557
0.815832
0.817514
0.81971
0.822574
0.826324
0.812755
0.812943
0.813347
0.81399
0.814904
0.81614
0.817768
0.819889
0.822647
0.82624
0.813447
0.813611
0.81399
0.814606
0.815491
0.816691
0.818273
0.820334
0.823007
0.826475
0.814425
0.814556
0.814904
0.81549
0.816345
0.817513
0.819058
0.82107
0.823676
0.827046
0.815747
0.815831
0.816139
0.81669
0.817512
0.818649
0.820162
0.822136
0.824689
0.827983
0.817493
0.817512
0.817766
0.818272
0.819057
0.820161
0.821645
0.823588
0.826103
0.829337
0.819781
0.819708
0.819887
0.820333
0.821069
0.822135
0.823587
0.825505
0.827991
0.831184
0.822776
0.822572
0.822644
0.823005
0.823674
0.824688
0.826101
0.82799
0.830458
0.833633
0.826718
0.82632
0.826237
0.826472
0.827043
0.82798
0.829335
0.831183
0.833632
0.836831
0.731329
0.731082
0.730578
0.729811
0.728762
0.72741
0.725729
0.723691
0.721274
0.718471
0.731082
0.73085
0.730368
0.729629
0.728618
0.727314
0.725693
0.72373
0.721405
0.71871
0.730578
0.730368
0.729912
0.729203
0.728227
0.726967
0.725402
0.723508
0.721268
0.718676
0.72981
0.729629
0.729202
0.728526
0.727587
0.72637
0.724856
0.723026
0.720865
0.718371
0.728762
0.728617
0.728227
0.727586
0.726686
0.725513
0.724049
0.722281
0.720196
0.717798
0.727409
0.727313
0.726967
0.726369
0.725512
0.724385
0.722975
0.721269
0.719259
0.716955
0.725727
0.725692
0.725401
0.724855
0.724049
0.722974
0.721622
0.719983
0.71805
0.715842
0.723689
0.723729
0.723507
0.723025
0.72228
0.721268
0.719982
0.718418
0.716571
0.714466
0.721272
0.721403
0.721266
0.720864
0.720195
0.719257
0.718049
0.716571
0.714826
0.712847
0.718469
0.718708
0.718674
0.71837
0.717796
0.716953
0.715841
0.714465
0.712846
0.711038
0.651751
0.651077
0.6497
0.647582
0.644648
0.640797
0.635888
0.629734
0.622095
0.612661
0.651076
0.650442
0.649123
0.647082
0.644251
0.640536
0.635806
0.629889
0.622564
0.613546
0.6497
0.649123
0.647871
0.645909
0.643176
0.639583
0.63501
0.629297
0.62224
0.613581
0.647581
0.647081
0.645909
0.644033
0.641396
0.637915
0.633481
0.627946
0.621121
0.612772
0.644648
0.644251
0.643176
0.641395
0.638857
0.635487
0.631181
0.625803
0.61918
0.611103
0.640797
0.640535
0.639582
0.637915
0.635486
0.632229
0.628046
0.622814
0.616371
0.608535
0.635887
0.635805
0.635009
0.63348
0.63118
0.628045
0.623991
0.618901
0.612626
0.605008
0.629733
0.629888
0.629296
0.627945
0.625802
0.622813
0.6189
0.613958
0.607851
0.60044
0.622094
0.622563
0.622239
0.62112
0.619179
0.61637
0.612625
0.60785
0.601923
0.594729
0.61266
0.613544
0.61358
0.612771
0.611101
0.608533
0.605006
0.600439
0.594728
0.587787
0.576232
0.57524
0.573217
0.570102
0.565785
0.560111
0.552861
0.543744
0.532363
0.518191
0.575239
0.574307
0.572369
0.569369
0.565205
0.559733
0.552752
0.54399
0.533083
0.519549
0.573217
0.572369
0.570532
0.567652
0.563636
0.558348
0.551603
0.543147
0.532645
0.519656
0.570101
0.569368
0.567652
0.564902
0.561032
0.555916
0.549382
0.541194
0.53104
0.51852
0.565785
0.565205
0.563635
0.561031
0.557314
0.552366
0.546027
0.538078
0.528228
0.516114
0.56011
0.559733
0.558347
0.555915
0.552366
0.547591
0.541441
0.53371
0.524131
0.512373
0.552861
0.552751
0.551602
0.549381
0.546026
0.54144
0.535483
0.527965
0.518634
0.507195
0.543743
0.543989
0.543146
0.541193
0.538077
0.533709
0.527964
0.520664
0.511576
0.500434
0.532361
0.533082
0.532644
0.531039
0.528227
0.52413
0.518633
0.511575
0.50274
0.491894
0.51819
0.519547
0.519655
0.518519
0.516112
0.512371
0.507194
0.500433
0.491894
0.481371
0.506962
0.505808
0.503461
0.499855
0.494879
0.488373
0.480113
0.469798
0.457021
0.44124
0.505808
0.504725
0.502479
0.499011
0.494217
0.487948
0.479998
0.470088
0.457842
0.442764
0.503461
0.502479
0.500357
0.497037
0.492425
0.486381
0.478714
0.469164
0.457385
0.442922
0.499855
0.499011
0.497037
0.493881
0.489455
0.483629
0.476226
0.467004
0.455641
0.44172
0.494879
0.494217
0.492424
0.489455
0.485227
0.479622
0.472472
0.463554
0.452567
0.439131
0.488372
0.487948
0.48638
0.483629
0.479621
0.474247
0.467351
0.458724
0.448086
0.435091
0.480112
0.479998
0.478713
0.476226
0.472472
0.46735
0.460719
0.452382
0.442079
0.429496
0.469797
0.470087
0.469163
0.467003
0.463553
0.458723
0.452382
0.444349
0.43438
0.422194
0.45702
0.457841
0.457384
0.45564
0.452566
0.448085
0.442078
0.43438
0.424764
0.41298
0.441239
0.442763
0.44292
0.441718
0.43913
0.43509
0.429495
0.422194
0.41298
0.401624
0.44512
0.443961
0.441612
0.438024
0.433115
0.426768
0.418823
0.409072
0.397239
0.382972
0.443961
0.442875
0.440633
0.43719
0.432468
0.426361
0.418721
0.409352
0.398003
0.384346
0.441612
0.440633
0.438525
0.435244
0.430721
0.424855
0.417511
0.408507
0.397608
0.384517
0.438024
0.437189
0.435244
0.432148
0.427838
0.422221
0.415171
0.406519
0.396049
0.383486
0.433114
0.432468
0.43072
0.427838
0.423762
0.418406
0.411655
0.403352
0.393296
0.381239
0.426767
0.42636
0.424855
0.422221
0.418406
0.413333
0.406894
0.398945
0.3893
0.377733
0.418822
0.41872
0.41751
0.41517
0.411654
0.406893
0.400789
0.39321
0.383981
0.372901
0.409071
0.409351
0.408506
0.406518
0.403351
0.398944
0.393209
0.386025
0.377232
0.366649
0.397238
0.398001
0.397607
0.396048
0.393295
0.389299
0.383981
0.377232
0.368907
0.358844
0.382971
0.384345
0.384515
0.383485
0.381237
0.377732
0.3729
0.366648
0.358843
0.349341
0.390831
0.389783
0.387668
0.384467
0.380143
0.374646
0.367919
0.359891
0.350488
0.339639
0.389782
0.388804
0.386792
0.383729
0.37958
0.374301
0.367837
0.360123
0.35109
0.34067
0.387668
0.386792
0.384913
0.382014
0.378063
0.373021
0.366837
0.359451
0.350799
0.340818
0.384467
0.383728
0.382014
0.379306
0.375579
0.370795
0.364909
0.357868
0.349611
0.340082
0.380142
0.379579
0.378063
0.375579
0.372103
0.367603
0.362039
0.355362
0.34752
0.338461
0.374646
0.3743
0.37302
0.370795
0.367603
0.363417
0.358203
0.351917
0.344512
0.335946
0.367918
0.367836
0.366836
0.364909
0.362038
0.358202
0.35337
0.347507
0.34057
0.332525
0.35989
0.360122
0.35945
0.357867
0.355362
0.351916
0.347506
0.342103
0.335671
0.328182
0.350487
0.351089
0.350798
0.34961
0.347519
0.344511
0.340569
0.33567
0.329787
0.322899
0.339638
0.340668
0.340816
0.340081
0.33846
0.335945
0.332524
0.328182
0.322899
0.316663
0.343422
0.342538
0.340766
0.338111
0.334578
0.330183
0.324954
0.318944
0.312248
0.305021
0.342538
0.341716
0.340036
0.337503
0.334123
0.329911
0.324892
0.319116
0.312667
0.305687
0.340766
0.340036
0.338479
0.3361
0.332904
0.328907
0.324133
0.31863
0.312474
0.305795
0.33811
0.337503
0.3361
0.333905
0.330925
0.327176
0.322682
0.317487
0.311667
0.30534
0.334577
0.334123
0.332904
0.330925
0.328194
0.324726
0.320546
0.3157
0.310257
0.30433
0.330182
0.32991
0.328906
0.327175
0.324725
0.321573
0.317745
0.313286
0.308263
0.302783
0.324953
0.324891
0.324133
0.322681
0.320546
0.317745
0.314306
0.310274
0.305715
0.300731
0.318943
0.319115
0.318628
0.317487
0.315699
0.313285
0.310273
0.306709
0.30266
0.298221
0.312246
0.312666
0.312472
0.311666
0.310256
0.308262
0.305714
0.302659
0.299164
0.295321
0.305019
0.305685
0.305793
0.305338
0.304329
0.302782
0.30073
0.29822
0.295321
0.292125
0.301845
0.301121
0.299677
0.297535
0.294724
0.291295
0.287323
0.282918
0.278249
0.273556
0.301121
0.30045
0.299086
0.297048
0.294366
0.291085
0.287275
0.28304
0.278531
0.273971
0.299677
0.299086
0.29783
0.295928
0.293408
0.290313
0.286708
0.28269
0.2784
0.27404
0.297534
0.297048
0.295928
0.294192
0.291867
0.288992
0.285632
0.281876
0.277856
0.273758
0.294724
0.294365
0.293408
0.291866
0.289766
0.287148
0.284069
0.280617
0.276915
0.273138
0.291294
0.291084
0.290312
0.288992
0.287147
0.284816
0.282056
0.278949
0.275611
0.272205
0.287321
0.287274
0.286707
0.285631
0.284068
0.282056
0.279648
0.276923
0.273993
0.271007
0.282917
0.283038
0.282689
0.281875
0.280616
0.278948
0.276923
0.274616
0.272133
0.269613
0.278247
0.278529
0.278398
0.277854
0.276914
0.27561
0.273992
0.272132
0.270132
0.268119
0.273554
0.273969
0.274038
0.273757
0.273136
0.272204
0.271006
0.269612
0.268118
0.266652
0.265062
0.26446
0.263262
0.261491
0.259183
0.25639
0.253186
0.249675
0.246001
0.242359
0.264459
0.263902
0.262771
0.261089
0.258888
0.256217
0.253145
0.249768
0.246218
0.242674
0.263261
0.262771
0.261733
0.260168
0.258104
0.255589
0.252686
0.249485
0.246108
0.24272
0.261491
0.261089
0.260167
0.258744
0.256847
0.254519
0.25182
0.248833
0.245672
0.242489
0.259182
0.258888
0.258104
0.256847
0.255142
0.25303
0.250566
0.24783
0.244925
0.241993
0.256389
0.256216
0.255588
0.254518
0.253029
0.251159
0.24896
0.246506
0.243893
0.241252
0.253184
0.253144
0.252685
0.251819
0.250566
0.24896
0.247051
0.244906
0.242617
0.240302
0.249673
0.249766
0.249484
0.248832
0.247829
0.246505
0.244906
0.243095
0.241156
0.239197
0.245998
0.246216
0.246106
0.245671
0.244924
0.243892
0.242616
0.241155
0.239587
0.238009
0.242356
0.242672
0.242717
0.242487
0.241991
0.24125
0.240301
0.239196
0.238008
0.236833
0.23229
0.231763
0.230715
0.229162
0.227128
0.224647
0.221765
0.218539
0.21504
0.211352
0.231763
0.231275
0.230285
0.228808
0.226867
0.224492
0.221727
0.218624
0.215249
0.211681
0.230715
0.230285
0.229374
0.227995
0.22617
0.223927
0.221306
0.218354
0.215134
0.211718
0.229161
0.228808
0.227995
0.226736
0.225049
0.222961
0.220508
0.217734
0.214696
0.211461
0.227127
0.226866
0.226169
0.225049
0.223521
0.221609
0.219346
0.216773
0.213942
0.210912
0.224646
0.224491
0.223926
0.222961
0.221608
0.219892
0.217839
0.215487
0.212883
0.210082
0.221763
0.221725
0.221304
0.220507
0.219345
0.217838
0.216012
0.213899
0.21154
0.208985
0.218537
0.218621
0.218352
0.217733
0.216772
0.215486
0.213898
0.212036
0.209936
0.207642
0.215037
0.215246
0.215132
0.214694
0.21394
0.212882
0.211539
0.209936
0.208103
0.20608
0.211348
0.211677
0.211715
0.211457
0.21091
0.21008
0.208983
0.207641
0.206079
0.204335
0.203043
0.20256
0.201594
0.200153
0.198247
0.195886
0.193082
0.189842
0.186168
0.182046
0.20256
0.202111
0.201196
0.199823
0.198
0.195737
0.193043
0.189928
0.186393
0.182425
0.201594
0.201196
0.20035
0.199062
0.197339
0.195191
0.192625
0.18965
0.186266
0.182464
0.200153
0.199823
0.199062
0.197875
0.196269
0.194251
0.191828
0.189007
0.185788
0.182161
0.198246
0.197999
0.197339
0.196269
0.194794
0.192921
0.190655
0.188001
0.184957
0.181515
0.195885
0.195735
0.195189
0.19425
0.19292
0.191206
0.189109
0.186633
0.183775
0.180525
0.193079
0.193041
0.192623
0.191827
0.190654
0.189108
0.187191
0.184903
0.182238
0.179187
0.189839
0.189926
0.189647
0.189005
0.188
0.186632
0.184902
0.182808
0.180342
0.177495
0.186164
0.186389
0.186263
0.185785
0.184955
0.183773
0.182236
0.180342
0.178079
0.175438
0.182041
0.182421
0.18246
0.182157
0.181512
0.180522
0.179185
0.177493
0.175437
0.173006
0.17705
0.176596
0.175686
0.17432
0.172497
0.170211
0.167451
0.164197
0.160412
0.156037
0.176596
0.176174
0.17531
0.174006
0.172259
0.170065
0.167414
0.164286
0.160648
0.156446
0.175686
0.17531
0.174508
0.173279
0.171622
0.169532
0.166998
0.164003
0.160516
0.156488
0.17432
0.174005
0.173279
0.172139
0.170584
0.168609
0.166202
0.163348
0.160017
0.156163
0.172496
0.172258
0.171621
0.170584
0.169143
0.167293
0.165023
0.162317
0.159146
0.155469
0.170209
0.170064
0.16953
0.168607
0.167292
0.165577
0.163453
0.160902
0.157897
0.154398
0.167449
0.167411
0.166996
0.166201
0.165022
0.163453
0.161482
0.159093
0.156257
0.152939
0.164194
0.164282
0.164
0.163346
0.162315
0.160901
0.159092
0.15687
0.154208
0.151074
0.160408
0.160643
0.160512
0.160013
0.159143
0.157894
0.156255
0.154208
0.151725
0.148777
0.156031
0.15644
0.156483
0.156159
0.155465
0.154395
0.152936
0.151072
0.148776
0.14602
0.154124
0.153701
0.152851
0.151571
0.149856
0.147695
0.145071
0.141958
0.138318
0.134096
0.153701
0.153307
0.152499
0.151276
0.149632
0.147557
0.145035
0.142043
0.138546
0.134492
0.152851
0.152499
0.151747
0.150593
0.149031
0.147051
0.14464
0.141774
0.138421
0.134535
0.151571
0.151276
0.150593
0.149519
0.14805
0.146175
0.143881
0.141147
0.137943
0.134225
0.149855
0.149631
0.14903
0.148049
0.146683
0.144923
0.142755
0.140159
0.137107
0.13356
0.147693
0.147555
0.14705
0.146174
0.144922
0.143286
0.141252
0.138802
0.135907
0.132533
0.145068
0.145032
0.144637
0.143879
0.142753
0.141251
0.13936
0.137062
0.13433
0.131134
0.141954
0.142039
0.14177
0.141144
0.140157
0.1388
0.137061
0.134924
0.132362
0.129347
0.138313
0.138541
0.138416
0.137938
0.137103
0.135904
0.134328
0.132361
0.129977
0.127152
0.134089
0.134485
0.134529
0.13422
0.133555
0.132529
0.13113
0.129345
0.127151
0.124526
0.134067
0.133682
0.132908
0.131743
0.130183
0.12822
0.125842
0.123035
0.119777
0.116043
0.133681
0.133322
0.132588
0.131475
0.12998
0.128095
0.12581
0.123112
0.11998
0.116392
0.132907
0.132587
0.131903
0.130854
0.129434
0.127637
0.125454
0.122871
0.119871
0.116432
0.131742
0.131474
0.130853
0.129877
0.128543
0.126843
0.12477
0.12231
0.119448
0.116163
0.130181
0.129978
0.129433
0.128542
0.127304
0.125711
0.123756
0.121427
0.118708
0.115583
0.128217
0.128093
0.127635
0.126842
0.125711
0.124235
0.122407
0.120217
0.11765
0.114691
0.125839
0.125807
0.125451
0.124768
0.123755
0.122406
0.120716
0.118674
0.116267
0.113482
0.12303
0.123108
0.122867
0.122307
0.121424
0.120215
0.118673
0.116789
0.114551
0.111948
0.119771
0.119975
0.119866
0.119443
0.118705
0.117647
0.116265
0.11455
0.112491
0.110081
0.116036
0.116385
0.116425
0.116157
0.115578
0.114687
0.113478
0.111945
0.11008
0.107876
0.116624
0.116283
0.115599
0.114571
0.1132
0.111482
0.109416
0.107002
0.104238
0.101129
0.116283
0.115965
0.115316
0.114335
0.113021
0.111373
0.109389
0.107068
0.10441
0.101417
0.115598
0.115316
0.114713
0.113789
0.112543
0.110974
0.109081
0.106863
0.104318
0.101451
0.11457
0.114334
0.113788
0.112932
0.111765
0.110285
0.108492
0.106385
0.103964
0.101231
0.113198
0.11302
0.112542
0.111764
0.110685
0.109305
0.107622
0.105636
0.103346
0.100757
0.111479
0.111371
0.110973
0.110284
0.109304
0.108033
0.10647
0.104614
0.102466
0.100029
0.109413
0.109386
0.109079
0.10849
0.10762
0.106469
0.105035
0.10332
0.101323
0.0990488
0.106997
0.107064
0.106859
0.106382
0.105633
0.104612
0.103319
0.101754
0.0999182
0.0978173
0.104232
0.104404
0.104313
0.103959
0.103342
0.102462
0.10132
0.099917
0.0982541
0.0963375
0.101121
0.101409
0.101444
0.101225
0.100751
0.100024
0.0990451
0.0978147
0.0963362
0.0946169
0.101497
0.101202
0.100611
0.0997259
0.0985488
0.0970833
0.0953351
0.0933128
0.0910291
0.0885043
0.101202
0.100928
0.100367
0.0995227
0.0983961
0.0969909
0.0953123
0.0933679
0.0911698
0.088736
0.100611
0.100367
0.0998474
0.0990535
0.0979875
0.0966525
0.0950533
0.0931972
0.0910951
0.0887639
0.0997249
0.0995219
0.0990531
0.0983198
0.097324
0.0960688
0.0945588
0.0928008
0.090805
0.0885873
0.0985471
0.0983947
0.0979864
0.0973234
0.0964075
0.0952418
0.0938305
0.0921804
0.0903009
0.0882072
0.0970808
0.0969886
0.0966505
0.0960674
0.095241
0.0941742
0.0928713
0.0913386
0.0895853
0.0876258
0.0953316
0.095309
0.0950504
0.0945564
0.0938288
0.0928703
0.0916853
0.0902797
0.0886623
0.0868469
0.0933079
0.0933634
0.0931931
0.0927973
0.0921775
0.0913366
0.0902786
0.0890095
0.0875376
0.0858764
0.0910229
0.0911638
0.0910897
0.0908002
0.0902968
0.089582
0.0886599
0.0875364
0.0862196
0.0847224
0.0884963
0.0887284
0.0887569
0.0885809
0.0882015
0.087621
0.0868431
0.0858737
0.084721
0.0833984
0.0883775
0.0881253
0.0876207
0.0868668
0.0858677
0.0846295
0.083161
0.0814742
0.0795858
0.0775187
0.0881251
0.0878907
0.0874127
0.086694
0.0857384
0.0845516
0.0831417
0.0815199
0.0797015
0.0777075
0.0876202
0.0874124
0.08697
0.0862955
0.0853926
0.0842665
0.0829249
0.081378
0.07964
0.0777302
0.0868658
0.0866932
0.086295
0.0856736
0.0848322
0.0837758
0.0825116
0.081049
0.0794011
0.077586
0.085866
0.0857369
0.0853914
0.0848315
0.0840603
0.0830823
0.0819042
0.080535
0.0789867
0.0772762
0.084627
0.0845493
0.0842646
0.0837744
0.0830816
0.0821904
0.0811069
0.0798397
0.0783999
0.0768033
0.0831574
0.0831384
0.082922
0.0825092
0.0819025
0.081106
0.0801254
0.0789684
0.0776455
0.0761715
0.0814694
0.0815155
0.081374
0.0810455
0.0805322
0.0798377
0.0789673
0.0779283
0.0767303
0.075387
0.0795796
0.0796956
0.0796346
0.0793963
0.0789826
0.0783966
0.0776432
0.076729
0.0756632
0.0744583
0.0775108
0.0777
0.0777232
0.0775797
0.0772706
0.0767985
0.0761677
0.0753843
0.0744569
0.0733981
0.0769741
0.0767591
0.0763291
0.0756875
0.0748385
0.0737887
0.0725465
0.0711229
0.0695321
0.0677918
0.0767589
0.0765591
0.076152
0.0755405
0.0747288
0.0737227
0.0725301
0.0711613
0.0696293
0.0679506
0.0763287
0.0761517
0.0757752
0.0752018
0.0744353
0.0734812
0.0723468
0.0710415
0.0695773
0.0679695
0.0756865
0.0755397
0.0752013
0.0746736
0.0739601
0.0730659
0.0719975
0.0707638
0.0693758
0.0678476
0.074837
0.0747274
0.0744342
0.0739595
0.0733064
0.0724794
0.0714847
0.0703304
0.0690264
0.067586
0.0737863
0.0737205
0.0734794
0.0730645
0.0724787
0.071726
0.0708121
0.0697442
0.0685317
0.0671866
0.0725431
0.072527
0.072344
0.0719953
0.0714831
0.0708112
0.0699846
0.0690099
0.0678956
0.0666528
0.0711183
0.0711571
0.0710376
0.0707605
0.0703276
0.0697423
0.0690089
0.0681334
0.0671234
0.065989
0.0695261
0.0696237
0.0695721
0.0693712
0.0690225
0.0685285
0.0678933
0.0671222
0.0662218
0.0652014
0.0677842
0.0679435
0.0679628
0.0678416
0.0675807
0.0671821
0.0666492
0.0659864
0.0652001
0.0642991
0.0670358
0.0668516
0.0664832
0.0659335
0.0652064
0.0643069
0.0632418
0.0620192
0.0606488
0.0591416
0.0668514
0.0666802
0.0663314
0.0658076
0.0651123
0.0642503
0.0632277
0.0620523
0.0607328
0.0592796
0.0664828
0.0663311
0.0660086
0.0655174
0.0648608
0.0640432
0.0630703
0.0619491
0.0606877
0.0592957
0.0659327
0.0658069
0.065517
0.0650649
0.0644536
0.063687
0.0627704
0.06171
0.0605134
0.0591895
0.0652049
0.065111
0.0648598
0.0644531
0.0638932
0.0631839
0.0623297
0.0613365
0.060211
0.0589615
0.0643047
0.0642483
0.0640416
0.0636858
0.0631832
0.0625369
0.0617511
0.0608308
0.0597823
0.058613
0.0632387
0.0632249
0.0630678
0.0627683
0.0623282
0.0617502
0.061038
0.0601961
0.0592298
0.058146
0.0620151
0.0620484
0.0619455
0.0617069
0.061334
0.0608291
0.0601952
0.0594362
0.0585568
0.0575633
0.0606434
0.0607276
0.0606829
0.0605092
0.0602074
0.0597794
0.0592277
0.0585557
0.0577674
0.0568682
0.0591347
0.059273
0.0592896
0.059184
0.0589566
0.0586089
0.0581427
0.0575609
0.056867
0.0560664
0.0583538
0.0581948
0.0578766
0.0574017
0.0567728
0.0559937
0.0550692
0.0540047
0.0528059
0.0514789
0.0581946
0.0580468
0.0577455
0.0572928
0.0566914
0.0559446
0.055057
0.0540335
0.0528795
0.0516008
0.0578763
0.0577453
0.0574666
0.0570419
0.0564736
0.0557651
0.0549201
0.0539434
0.0528399
0.051615
0.0574009
0.0572922
0.0570415
0.0566504
0.0561209
0.0554559
0.0546591
0.0537346
0.0526869
0.051521
0.0567715
0.0566902
0.0564728
0.0561204
0.0556348
0.0550187
0.0542752
0.053408
0.0524211
0.0513193
0.0559918
0.0559429
0.0557636
0.0554548
0.0550181
0.0544557
0.0537703
0.0529651
0.0520437
0.0510106
0.0550665
0.0550545
0.0549179
0.0546573
0.0542739
0.0537696
0.0531466
0.0524078
0.0515562
0.0505958
0.054001
0.0540301
0.0539403
0.0537319
0.0534058
0.0529636
0.052407
0.0517384
0.0509604
0.0500765
0.0528011
0.052875
0.0528357
0.0526832
0.052418
0.0520412
0.0515544
0.0509595
0.0502584
0.0494545
0.0514729
0.0515951
0.0516097
0.0515162
0.0513151
0.0510069
0.0505929
0.0500745
0.0494535
0.0487331
0.0507572
0.0506189
0.0503423
0.0499289
0.049381
0.0487012
0.0478928
0.0469593
0.0459045
0.0447319
0.0506188
0.0504903
0.0502282
0.0498341
0.04931
0.0486583
0.0478821
0.0469846
0.0459694
0.0448399
0.050342
0.050228
0.0499854
0.0496156
0.0491201
0.0485014
0.0477622
0.0469055
0.0459345
0.0448525
0.0499283
0.0498336
0.0496153
0.0492743
0.0488122
0.0482312
0.0475335
0.046722
0.0457996
0.0447693
0.04938
0.0493091
0.0491194
0.0488118
0.0483876
0.0478486
0.0471969
0.0464349
0.0455651
0.0445907
0.0486996
0.0486569
0.0485002
0.0482303
0.0478481
0.0473552
0.0467535
0.0460449
0.0452318
0.044317
0.0478905
0.04788
0.0477604
0.047532
0.0471958
0.0467529
0.0462049
0.0455535
0.0448006
0.0439489
0.0469563
0.0469818
0.046903
0.0467198
0.0464331
0.0460437
0.0455528
0.044962
0.0442727
0.0434873
0.0459006
0.0459657
0.0459311
0.0457966
0.0455626
0.0452298
0.0447992
0.0442719
0.0436492
0.0429332
0.044727
0.0448352
0.0448481
0.0447654
0.0445872
0.0443141
0.0439466
0.0434856
0.0429324
0.0422891
0.0441045
0.0439837
0.0437421
0.0433807
0.0429013
0.042306
0.041597
0.0407772
0.0398494
0.0388165
0.0439837
0.0438714
0.0436424
0.0432978
0.0428392
0.0422684
0.0415877
0.0407995
0.0399066
0.0389117
0.0437418
0.0436422
0.0434302
0.0431067
0.042673
0.0421309
0.0414825
0.04073
0.0398759
0.0389228
0.0433803
0.0432975
0.0431064
0.042808
0.0424034
0.041894
0.0412818
0.0405688
0.0397572
0.0388497
0.0429005
0.0428385
0.0426725
0.0424031
0.0420313
0.0415584
0.0409862
0.0403164
0.0395509
0.0386924
0.0423048
0.0422673
0.04213
0.0418933
0.0415581
0.0411253
0.0405966
0.0399734
0.0392575
0.0384512
0.0415953
0.0415861
0.0414811
0.0412807
0.0409854
0.0405961
0.0401142
0.0395409
0.0388777
0.0381268
0.0407749
0.0407974
0.0407281
0.0405672
0.040315
0.0399724
0.0395404
0.03902
0.0384124
0.0377199
0.0398465
0.0399038
0.0398734
0.039755
0.039549
0.0392559
0.0388766
0.0384119
0.0378628
0.0372314
0.0388128
0.0389082
0.0389196
0.0388467
0.0386898