/*--------------------------------*- C++ -*----------------------------------*\
| =========                 |                                                 |
| \\      /  F ield         | foam-extend: Open Source CFD                    |
|  \\    /   O peration     | Version:     3.1                                |
|   \\  /    A nd           | Web:         http://www.extend-project.de       |
|    \\/     M anipulation  |                                                 |
\*---------------------------------------------------------------------------*/
FoamFile
{
    version     2.0;
    format      ascii;
    class       surfaceScalarField;
    location    "0.0016";
    object      phi;
}
// * * * * * * * * * * * * * * * * * * * * * * * * * * * * * * * * * * * * * //

dimensions      [0 3 -1 0 0 0 0];

internalField   nonuniform List<scalar> 
45800
(
-1.92413e-10
-1.93016e-10
3.05978e-08
-3.71493e-10
-1.89799e-10
3.00886e-08
-5.33471e-10
-1.82445e-10
2.96066e-08
-6.79707e-10
-1.73517e-10
2.91573e-08
-8.11909e-10
-1.63933e-10
2.87407e-08
-9.30962e-10
-1.53911e-10
2.83551e-08
-1.03682e-09
-1.43742e-10
2.79991e-08
-1.12813e-09
-1.33883e-10
2.76719e-08
-1.20143e-09
-1.25186e-10
2.73732e-08
-1.18192e-10
2.71022e-08
-1.24928e-09
-1.89199e-10
-3.71746e-10
3.00877e-08
-3.68158e-10
-3.68752e-10
2.9581e-08
-5.32222e-10
-3.58519e-10
2.90998e-08
-6.80697e-10
-3.44154e-10
2.86467e-08
-8.14536e-10
-3.28015e-10
2.82233e-08
-9.34623e-10
-3.11052e-10
2.78291e-08
-1.04101e-09
-2.93841e-10
2.7463e-08
-1.13258e-09
-2.77197e-10
2.7124e-08
-1.20651e-09
-2.6237e-10
2.68113e-08
-2.50683e-10
2.65228e-08
-1.25452e-09
-1.82182e-10
-5.33152e-10
2.96057e-08
-3.57898e-10
-5.32238e-10
2.90989e-08
-5.22233e-10
-5.22712e-10
2.86175e-08
-6.72608e-10
-5.06544e-10
2.81609e-08
-8.08323e-10
-4.86614e-10
2.77299e-08
-9.29821e-10
-4.6507e-10
2.73259e-08
-1.03727e-09
-4.43073e-10
2.69482e-08
-1.12969e-09
-4.21619e-10
2.65956e-08
-1.20494e-09
-4.0233e-10
2.62677e-08
-3.87676e-10
2.59623e-08
-1.25521e-09
-1.73571e-10
-6.79177e-10
2.91571e-08
-3.43943e-10
-6.80283e-10
2.8646e-08
-5.06016e-10
-6.72585e-10
2.81601e-08
-6.56541e-10
-6.56984e-10
2.76983e-08
-7.9348e-10
-6.35658e-10
2.72598e-08
-9.16079e-10
-6.11087e-10
2.68447e-08
-1.02424e-09
-5.85433e-10
2.6454e-08
-1.11726e-09
-5.60195e-10
2.6087e-08
-1.19376e-09
-5.3717e-10
2.57431e-08
-5.20439e-10
2.54214e-08
-1.24685e-09
-1.64045e-10
-8.11339e-10
2.87408e-08
-3.28139e-10
-8.14024e-10
2.82232e-08
-4.86468e-10
-8.07977e-10
2.77293e-08
-6.35155e-10
-7.9352e-10
2.7259e-08
-7.71769e-10
-7.72286e-10
2.68113e-08
-8.94726e-10
-7.4605e-10
2.63852e-08
-1.00302e-09
-7.1711e-10
2.59804e-08
-1.09593e-09
-6.87899e-10
2.55974e-08
-1.17297e-09
-6.60784e-10
2.52368e-08
-6.42013e-10
2.48989e-08
-1.22857e-09
-1.5401e-10
-9.30389e-10
2.83552e-08
-3.11242e-10
-9.34109e-10
2.78292e-08
-4.65234e-10
-9.29404e-10
2.73258e-08
-6.10976e-10
-9.15855e-10
2.68442e-08
-7.45477e-10
-8.94933e-10
2.63844e-08
-8.6713e-10
-8.67902e-10
2.59461e-08
-9.74462e-10
-8.36075e-10
2.55273e-08
-1.06616e-09
-8.01883e-10
2.51274e-08
-1.14233e-09
-7.6864e-10
2.47482e-08
-7.46283e-10
2.43935e-08
-1.19934e-09
-1.43834e-10
-1.03628e-09
2.79992e-08
-2.94018e-10
-1.04054e-09
2.74631e-08
-4.43326e-10
-1.03688e-09
2.69483e-08
-5.85704e-10
-1.02395e-09
2.64539e-08
-7.17043e-10
-1.00289e-09
2.59797e-08
-8.35257e-10
-9.74767e-10
2.55261e-08
-9.3928e-10
-9.40127e-10
2.50922e-08
-1.0276e-09
-8.99965e-10
2.46754e-08
-1.1005e-09
-8.57099e-10
2.42763e-08
-8.26912e-10
2.39038e-08
-1.15717e-09
-1.33968e-10
-1.12769e-09
2.76721e-08
-2.77361e-10
-1.13218e-09
2.71241e-08
-4.21863e-10
-1.12937e-09
2.65958e-08
-5.60547e-10
-1.117e-09
2.60871e-08
-6.88265e-10
-1.09569e-09
2.55973e-08
-8.01626e-10
-1.06597e-09
2.51262e-08
-8.99144e-10
-1.02772e-09
2.46741e-08
-9.79661e-10
-9.80149e-10
2.42388e-08
-1.04456e-09
-9.23513e-10
2.38193e-08
-8.77074e-10
2.34278e-08
-1.09797e-09
-1.25257e-10
-1.20111e-09
2.73734e-08
-2.62503e-10
-1.20622e-09
2.68115e-08
-4.02522e-10
-1.20472e-09
2.62678e-08
-5.37423e-10
-1.19358e-09
2.57433e-08
-6.61106e-10
-1.17281e-09
2.5237e-08
-7.68732e-10
-1.14213e-09
2.4748e-08
-8.56785e-10
-1.10036e-09
2.42757e-08
-9.23099e-10
-1.04465e-09
2.38188e-08
-9.70332e-10
-9.70616e-10
2.33771e-08
-8.92098e-10
2.29636e-08
-1.01313e-09
-1.18243e-10
2.71024e-08
-1.24908e-09
-2.50777e-10
2.65229e-08
-1.25435e-09
-3.87804e-10
2.59624e-08
-1.25509e-09
-5.2059e-10
2.54215e-08
-1.24677e-09
-6.42165e-10
2.4899e-08
-1.22851e-09
-7.46377e-10
2.43936e-08
-1.19928e-09
-8.26935e-10
2.39038e-08
-1.15712e-09
-8.76985e-10
2.34276e-08
-1.09798e-09
-8.91871e-10
2.29632e-08
-1.0132e-09
2.25221e-08
-8.94728e-10
-8.94861e-10
-1.02939e-10
-1.03494e-10
3.08042e-08
-1.96589e-10
-1.01569e-10
3.02838e-08
-2.77708e-10
-9.6954e-11
2.97846e-08
-3.47898e-10
-9.18598e-11
2.93193e-08
-4.08934e-10
-8.7003e-11
2.88887e-08
-4.61531e-10
-8.24701e-11
2.84901e-08
-5.05112e-10
-7.83607e-11
2.8121e-08
-5.373e-10
-7.47855e-11
2.77789e-08
-5.532e-10
-7.17167e-11
2.74608e-08
-6.79262e-11
2.71613e-08
-5.44353e-10
-1.01017e-10
-1.96788e-10
3.0282e-08
-1.95225e-10
-1.95747e-10
2.97694e-08
-2.78821e-10
-1.89852e-10
2.92763e-08
-3.51583e-10
-1.81648e-10
2.88092e-08
-4.1465e-10
-1.73131e-10
2.83724e-08
-4.6879e-10
-1.65039e-10
2.79658e-08
-5.13562e-10
-1.57653e-10
2.75871e-08
-5.46773e-10
-1.51225e-10
2.72336e-08
-5.63977e-10
-1.45495e-10
2.69023e-08
-1.37385e-10
2.65851e-08
-5.56886e-10
-9.67259e-11
-2.77345e-10
2.9783e-08
-1.89304e-10
-2.7877e-10
2.92745e-08
-2.74198e-10
-2.74584e-10
2.87872e-08
-3.49586e-10
-2.66095e-10
2.83207e-08
-4.15119e-10
-2.5571e-10
2.78781e-08
-4.71173e-10
-2.45293e-10
2.74622e-08
-5.17371e-10
-2.35646e-10
2.70724e-08
-5.51537e-10
-2.27047e-10
2.67056e-08
-5.69584e-10
-2.19096e-10
2.63593e-08
-2.07085e-10
2.60263e-08
-5.63865e-10
-9.19385e-11
-3.47321e-10
2.9319e-08
-1.81495e-10
-3.51111e-10
2.88079e-08
-2.6566e-10
-3.49474e-10
2.83191e-08
-3.4228e-10
-3.42605e-10
2.78515e-08
-4.09821e-10
-3.32192e-10
2.74038e-08
-4.67525e-10
-3.204e-10
2.69775e-08
-5.1468e-10
-3.08981e-10
2.65745e-08
-5.49174e-10
-2.98618e-10
2.6193e-08
-5.67293e-10
-2.88657e-10
2.58308e-08
-2.72963e-10
2.54824e-08
-5.62467e-10
-8.71374e-11
-4.08312e-10
2.88889e-08
-1.73304e-10
-4.1408e-10
2.83723e-08
-2.55645e-10
-4.1469e-10
2.78769e-08
-3.3181e-10
-4.09741e-10
2.74023e-08
-4.00051e-10
-4.00414e-10
2.69478e-08
-4.58806e-10
-3.8825e-10
2.65118e-08
-5.06375e-10
-3.75168e-10
2.60941e-08
-5.40382e-10
-3.62753e-10
2.56956e-08
-5.5754e-10
-3.50579e-10
2.53159e-08
-3.31195e-10
2.49523e-08
-5.52665e-10
-8.25906e-11
-4.60903e-10
2.84903e-08
-1.65277e-10
-4.68212e-10
2.7966e-08
-2.45534e-10
-4.70671e-10
2.7462e-08
-3.20397e-10
-4.67182e-10
2.69765e-08
-3.87829e-10
-4.58848e-10
2.65103e-08
-4.46311e-10
-4.46882e-10
2.60632e-08
-4.93551e-10
-4.3247e-10
2.56318e-08
-5.26224e-10
-4.1737e-10
2.52147e-08
-5.40999e-10
-4.01926e-10
2.48143e-08
-3.7828e-10
2.44341e-08
-5.34518e-10
-7.84732e-11
-5.04522e-10
2.81213e-08
-1.57876e-10
-5.13017e-10
2.75873e-08
-2.35974e-10
-5.16888e-10
2.70726e-08
-3.09354e-10
-5.14268e-10
2.65744e-08
-3.75233e-10
-5.06081e-10
2.60928e-08
-4.31831e-10
-4.93632e-10
2.56294e-08
-4.77241e-10
-4.77845e-10
2.5183e-08
-5.07416e-10
-4.59749e-10
2.4748e-08
-5.18057e-10
-4.39638e-10
2.43247e-08
-4.1058e-10
2.39257e-08
-5.07683e-10
-7.48905e-11
-5.36795e-10
2.77793e-08
-1.51434e-10
-5.46303e-10
2.72339e-08
-2.27362e-10
-5.51106e-10
2.67059e-08
-2.99068e-10
-5.4877e-10
2.61933e-08
-3.63236e-10
-5.39961e-10
2.56954e-08
-4.17242e-10
-5.25801e-10
2.52124e-08
-4.59109e-10
-5.07266e-10
2.47454e-08
-4.84793e-10
-4.85047e-10
2.42897e-08
-4.89144e-10
-4.59157e-10
2.38432e-08
-4.24058e-10
2.34235e-08
-4.71364e-10
-7.18094e-11
-5.52812e-10
2.74612e-08
-1.45676e-10
-5.63615e-10
2.69026e-08
-2.1936e-10
-5.69247e-10
2.63596e-08
-2.89005e-10
-5.66965e-10
2.58311e-08
-3.51013e-10
-5.57188e-10
2.53162e-08
-4.02128e-10
-5.40579e-10
2.48139e-08
-4.39452e-10
-5.17672e-10
2.43234e-08
-4.58898e-10
-4.89014e-10
2.38422e-08
-4.54959e-10
-4.5507e-10
2.33691e-08
-4.13778e-10
2.29222e-08
-4.23866e-10
-6.80018e-11
2.71616e-08
-5.44085e-10
-1.37529e-10
2.65855e-08
-5.56636e-10
-2.07286e-10
2.60266e-08
-5.63632e-10
-2.73208e-10
2.54827e-08
-5.6224e-10
-3.31454e-10
2.49525e-08
-5.52431e-10
-3.78481e-10
2.44343e-08
-5.34273e-10
-4.1071e-10
2.39258e-08
-5.0745e-10
-4.24063e-10
2.34231e-08
-4.71179e-10
-4.13643e-10
2.29215e-08
-4.23766e-10
2.24366e-08
-3.70979e-10
-3.70994e-10
4.05006e-11
4.00417e-11
3.07237e-08
8.39652e-11
4.20935e-11
3.01983e-08
1.33341e-10
4.59145e-11
2.96893e-08
1.86813e-10
4.99106e-11
2.9216e-08
2.42213e-10
5.34599e-11
2.87799e-08
2.98094e-10
5.64111e-11
2.83778e-08
3.53775e-10
5.85671e-11
2.80068e-08
4.09539e-10
5.96949e-11
2.76634e-08
4.66672e-10
5.98224e-11
2.73439e-08
6.16435e-11
2.70403e-08
5.25949e-10
4.25358e-11
8.38624e-11
3.01956e-08
8.58284e-11
8.54426e-11
2.96828e-08
1.33324e-10
9.01126e-11
2.91846e-08
1.84841e-10
9.63264e-11
2.87113e-08
2.38822e-10
1.02317e-10
2.82696e-08
2.93801e-10
1.07329e-10
2.78599e-08
3.49041e-10
1.10914e-10
2.74795e-08
4.04782e-10
1.12628e-10
2.71249e-08
4.62111e-10
1.12836e-10
2.67919e-08
1.18172e-10
2.64691e-08
5.2162e-10
4.6052e-11
1.33779e-10
2.9687e-08
9.04921e-11
1.33474e-10
2.9182e-08
1.36556e-10
1.36329e-10
2.86949e-08
1.85437e-10
1.42291e-10
2.82259e-08
2.3692e-10
1.49158e-10
2.77797e-08
2.89949e-10
1.55118e-10
2.73614e-08
3.43783e-10
1.59222e-10
2.69703e-08
3.98775e-10
1.60934e-10
2.66023e-08
4.55993e-10
1.60857e-10
2.62541e-08
1.69448e-10
2.5915e-08
5.15968e-10
4.97792e-11
1.87464e-10
2.92156e-08
9.63352e-11
1.85399e-10
2.87094e-08
1.42517e-10
1.8567e-10
2.82236e-08
1.898e-10
1.89665e-10
2.77568e-08
2.38951e-10
1.95811e-10
2.7308e-08
2.89962e-10
2.01883e-10
2.68797e-08
3.425e-10
2.05998e-10
2.64751e-08
3.96972e-10
2.07248e-10
2.60922e-08
4.54351e-10
2.06588e-10
2.57277e-08
2.18108e-10
2.53734e-08
5.14712e-10
5.32828e-11
2.42919e-10
2.87801e-08
1.02044e-10
2.39491e-10
2.82694e-08
1.49033e-10
2.37472e-10
2.77781e-08
1.95944e-10
2.39192e-10
2.73059e-08
2.43711e-10
2.43574e-10
2.68523e-08
2.92956e-10
2.48868e-10
2.64156e-08
3.44306e-10
2.52838e-10
2.59959e-08
3.98606e-10
2.53662e-10
2.55948e-08
4.56681e-10
2.523e-10
2.52121e-08
2.66438e-10
2.48428e-08
5.17807e-10
5.62468e-11
2.98812e-10
2.83782e-08
1.07006e-10
2.94486e-10
2.78603e-08
1.54732e-10
2.90591e-10
2.73612e-08
2.01647e-10
2.90481e-10
2.68783e-08
2.48993e-10
2.93116e-10
2.64134e-08
2.97332e-10
2.97017e-10
2.59667e-08
3.47739e-10
3.00484e-10
2.55338e-08
4.02096e-10
3.0123e-10
2.51127e-08
4.61707e-10
2.99595e-10
2.47074e-08
3.16232e-10
2.43214e-08
5.24675e-10
5.84116e-11
3.54461e-10
2.80073e-08
1.10606e-10
3.49701e-10
2.74799e-08
1.58769e-10
3.44418e-10
2.69706e-08
2.05443e-10
3.43113e-10
2.64751e-08
2.52485e-10
3.44831e-10
2.59941e-08
3.00767e-10
3.47878e-10
2.55303e-08
3.51034e-10
3.50721e-10
2.50825e-08
4.05889e-10
3.51479e-10
2.46429e-08
4.68116e-10
3.50184e-10
2.42119e-08
3.69127e-10
2.3806e-08
5.34954e-10
5.9549e-11
4.10146e-10
2.7664e-08
1.12339e-10
4.05374e-10
2.71255e-08
1.60502e-10
3.99367e-10
2.66028e-08
2.06655e-10
3.97586e-10
2.60927e-08
2.52986e-10
3.99282e-10
2.55946e-08
3.01042e-10
4.02772e-10
2.51095e-08
3.51748e-10
4.0628e-10
2.46392e-08
4.07949e-10
4.07979e-10
2.4177e-08
4.74007e-10
4.0728e-10
2.372e-08
4.26597e-10
2.32916e-08
5.48435e-10
5.96899e-11
4.67169e-10
2.73445e-08
1.12578e-10
4.62601e-10
2.67925e-08
1.60482e-10
4.56495e-10
2.62546e-08
2.06105e-10
4.5489e-10
2.57282e-08
2.51727e-10
4.57282e-10
2.52126e-08
2.99208e-10
4.62393e-10
2.47068e-08
3.50087e-10
4.68752e-10
2.42101e-08
4.07257e-10
4.74354e-10
2.37187e-08
4.76418e-10
4.76505e-10
2.32307e-08
4.90401e-10
2.27696e-08
5.65245e-10
6.153e-11
2.70409e-08
5.26326e-10
1.17955e-10
2.64697e-08
5.21993e-10
1.69144e-10
2.59155e-08
5.16356e-10
2.17738e-10
2.53739e-08
5.1513e-10
2.66043e-10
2.48432e-08
5.18257e-10
3.1589e-10
2.43217e-08
5.25144e-10
3.68836e-10
2.38062e-08
5.35402e-10
4.2641e-10
2.32911e-08
5.48807e-10
4.90375e-10
2.27685e-08
5.65497e-10
2.22592e-08
5.79037e-10
5.79144e-10
2.10148e-10
2.09816e-10
3.03037e-08
4.15367e-10
2.1204e-10
2.9781e-08
6.18274e-10
2.14961e-10
2.92715e-08
8.16986e-10
2.17804e-10
2.87994e-08
1.00899e-09
2.20105e-10
2.83678e-08
1.19203e-09
2.21629e-10
2.79732e-08
1.36399e-09
2.22055e-10
2.76128e-08
1.52288e-09
2.21001e-10
2.72835e-08
1.66649e-09
2.18414e-10
2.69818e-08
2.17433e-10
2.66996e-08
1.78975e-09
2.1233e-10
4.1536e-10
2.97778e-08
4.18004e-10
4.17779e-10
2.92714e-08
6.19992e-10
4.2132e-10
2.87763e-08
8.1774e-10
4.25622e-10
2.83057e-08
1.00933e-09
4.29272e-10
2.78689e-08
1.19255e-09
4.31554e-10
2.74668e-08
1.36534e-09
4.31809e-10
2.70969e-08
1.52581e-09
4.29365e-10
2.67561e-08
1.6716e-09
4.2459e-10
2.644e-08
4.25659e-10
2.61356e-08
1.79689e-09
2.14978e-10
6.1875e-10
2.92687e-08
4.2148e-10
6.20201e-10
2.87731e-08
6.22271e-10
6.22196e-10
2.82932e-08
8.17777e-10
6.2604e-10
2.783e-08
1.0072e-09
6.2979e-10
2.73898e-08
1.18881e-09
6.31832e-10
2.69795e-08
1.36059e-09
6.31127e-10
2.65992e-08
1.52085e-09
6.26826e-10
2.62446e-08
1.66744e-09
6.19644e-10
2.59124e-08
6.22788e-10
2.55905e-08
1.79484e-09
2.17627e-10
8.17663e-10
2.8799e-08
4.25458e-10
8.18327e-10
2.83034e-08
6.26027e-10
8.18067e-10
2.78272e-08
8.19961e-10
8.19981e-10
2.73689e-08
1.0071e-09
8.22612e-10
2.6928e-08
1.18662e-09
8.23745e-10
2.65083e-08
1.35704e-09
8.21525e-10
2.61143e-08
1.51683e-09
8.14893e-10
2.57444e-08
1.66389e-09
8.05046e-10
2.53952e-08
8.09976e-10
2.50573e-08
1.7928e-09
2.19907e-10
1.00973e-09
2.83682e-08
4.28921e-10
1.01005e-09
2.78687e-08
6.29465e-10
1.00781e-09
2.73878e-08
8.22483e-10
1.00742e-09
2.69254e-08
1.00793e-09
1.00796e-09
2.64815e-08
1.18528e-09
1.00754e-09
2.60544e-08
1.35395e-09
1.00368e-09
2.56451e-08
1.5131e-09
9.94489e-10
2.52561e-08
1.66069e-09
9.81665e-10
2.48879e-08
9.87937e-10
2.45345e-08
1.79106e-09
2.21444e-10
1.19279e-09
2.79737e-08
4.31188e-10
1.19329e-09
2.74673e-08
6.31341e-10
1.18953e-09
2.69793e-08
8.2327e-10
1.18724e-09
2.65065e-08
1.00736e-09
1.18553e-09
2.60518e-08
1.18303e-09
1.18288e-09
2.56157e-08
1.34981e-09
1.17717e-09
2.51935e-08
1.50795e-09
1.16564e-09
2.47835e-08
1.65635e-09
1.14973e-09
2.4391e-08
1.15671e-09
2.40201e-08
1.78891e-09
2.2188e-10
1.36473e-09
2.76134e-08
4.31461e-10
1.36607e-09
2.70976e-08
6.30612e-10
1.36132e-09
2.65997e-08
8.20843e-10
1.35779e-09
2.61143e-08
1.00302e-09
1.35461e-09
2.56428e-08
1.17706e-09
1.34999e-09
2.51891e-08
1.34227e-09
1.34215e-09
2.47523e-08
1.49933e-09
1.32837e-09
2.43231e-08
1.64899e-09
1.30944e-09
2.39025e-08
1.31574e-09
2.35103e-08
1.78561e-09
2.20838e-10
1.52356e-09
2.72844e-08
4.29041e-10
1.52648e-09
2.67569e-08
6.26345e-10
1.52155e-09
2.62453e-08
8.14246e-10
1.51758e-09
2.5745e-08
9.93689e-10
1.51395e-09
2.52558e-08
1.16507e-09
1.50872e-09
2.47794e-08
1.3282e-09
1.49975e-09
2.43184e-08
1.48415e-09
1.48436e-09
2.38651e-08
1.63558e-09
1.462e-09
2.3416e-08
1.4635e-09
2.29993e-08
1.78018e-09
2.18265e-10
1.66706e-09
2.69827e-08
4.24299e-10
1.67218e-09
2.64408e-08
6.19224e-10
1.66806e-09
2.59132e-08
8.04515e-10
1.66457e-09
2.53959e-08
9.81062e-10
1.66145e-09
2.48885e-08
1.14921e-09
1.65717e-09
2.43902e-08
1.30902e-09
1.64972e-09
2.39003e-08
1.46169e-09
1.63599e-09
2.34144e-08
1.61192e-09
1.61212e-09
2.29303e-08
1.59788e-09
2.24756e-08
1.77155e-09
2.17304e-10
2.67005e-08
1.79022e-09
4.25414e-10
2.61364e-08
1.79735e-09
6.22444e-10
2.55912e-08
1.79534e-09
8.09559e-10
2.5058e-08
1.79335e-09
9.87492e-10
2.45351e-08
1.79165e-09
1.15631e-09
2.40206e-08
1.78951e-09
1.31535e-09
2.35107e-08
1.78617e-09
1.46314e-09
2.29987e-08
1.78063e-09
1.59769e-09
2.24743e-08
1.77183e-09
2.19624e-08
1.7461e-09
1.74626e-09
3.93344e-10
3.93142e-10
2.95172e-08
7.73448e-10
3.95549e-10
2.90054e-08
1.14277e-09
3.97595e-10
2.85046e-08
1.49983e-09
3.9943e-10
2.8043e-08
1.84227e-09
4.00806e-10
2.76245e-08
2.16756e-09
4.01415e-10
2.72465e-08
2.47281e-09
4.00843e-10
2.69067e-08
2.75465e-09
3.98611e-10
2.66031e-08
3.00857e-09
3.94659e-10
2.63333e-08
3.92725e-10
2.60901e-08
3.22539e-09
3.95673e-10
7.73507e-10
2.90017e-08
7.77009e-10
7.76927e-10
2.85086e-08
1.14659e-09
7.79604e-10
2.80247e-08
1.50387e-09
7.82399e-10
2.75655e-08
1.84703e-09
7.84384e-10
2.71421e-08
2.17367e-09
7.84979e-10
2.67566e-08
2.48105e-09
7.83369e-10
2.6407e-08
2.76597e-09
7.78745e-10
2.6091e-08
3.02378e-09
7.716e-10
2.58052e-08
7.71811e-10
2.55366e-08
3.24368e-09
3.97487e-10
1.14322e-09
2.85015e-08
7.7954e-10
1.14679e-09
2.80212e-08
1.14853e-09
1.14855e-09
2.75553e-08
1.50432e-09
1.15111e-09
2.71055e-08
1.84596e-09
1.15285e-09
2.66797e-08
2.17159e-09
1.15255e-09
2.62863e-08
2.47854e-09
1.14924e-09
2.59263e-08
2.76385e-09
1.14187e-09
2.55962e-08
3.02323e-09
1.1314e-09
2.52932e-08
1.13397e-09
2.50052e-08
3.24633e-09
3.99231e-10
1.50046e-09
2.80426e-08
7.82076e-10
1.50439e-09
2.7563e-08
1.15087e-09
1.50457e-09
2.71024e-08
1.50559e-09
1.50569e-09
2.66596e-08
1.84542e-09
1.50645e-09
2.62346e-08
2.16921e-09
1.5048e-09
2.58323e-08
2.47499e-09
1.49914e-09
2.54586e-08
2.76e-09
1.48849e-09
2.51127e-08
3.02012e-09
1.47444e-09
2.47921e-08
1.47908e-09
2.44868e-08
3.24551e-09
4.00619e-10
1.84296e-09
2.7625e-08
7.84005e-10
1.84771e-09
2.7142e-08
1.15236e-09
1.84653e-09
2.66775e-08
1.50611e-09
1.84568e-09
2.62317e-08
1.84448e-09
1.84456e-09
2.5805e-08
2.16615e-09
1.84123e-09
2.53963e-08
2.46991e-09
1.83314e-09
2.50074e-08
2.75403e-09
1.81863e-09
2.46418e-08
3.01459e-09
1.80043e-09
2.43014e-08
1.80651e-09
2.39797e-08
3.24196e-09
4.01241e-10
2.16828e-09
2.72471e-08
7.84635e-10
2.17438e-09
2.67572e-08
1.15203e-09
2.17229e-09
2.62861e-08
1.50414e-09
2.1698e-09
2.58303e-08
1.84081e-09
2.16632e-09
2.53933e-08
2.16066e-09
2.16051e-09
2.49766e-08
2.46207e-09
2.15002e-09
2.45752e-08
2.74438e-09
2.13171e-09
2.41881e-08
3.00517e-09
2.10858e-09
2.3822e-08
2.11481e-09
2.34819e-08
3.23503e-09
4.0068e-10
2.47353e-09
2.69075e-08
7.83044e-10
2.48177e-09
2.64078e-08
1.14875e-09
2.47927e-09
2.5927e-08
1.49843e-09
2.47576e-09
2.54587e-08
1.83223e-09
2.47055e-09
2.50048e-08
2.14954e-09
2.46205e-09
2.45703e-08
2.44867e-09
2.44855e-09
2.41547e-08
2.7288e-09
2.42662e-09
2.37481e-08
2.98962e-09
2.39798e-09
2.33523e-08
2.40156e-09
2.29895e-08
3.22371e-09
3.98463e-10
2.75532e-09
2.66041e-08
7.78452e-10
2.76665e-09
2.6092e-08
1.14143e-09
2.76455e-09
2.5597e-08
1.48792e-09
2.76077e-09
2.51135e-08
1.81783e-09
2.7549e-09
2.46415e-08
2.13079e-09
2.74502e-09
2.41834e-08
2.42604e-09
2.72897e-09
2.37428e-08
2.70323e-09
2.70347e-09
2.33111e-08
2.96401e-09
2.66817e-09
2.28851e-08
2.66262e-09
2.24959e-08
3.20633e-09
3.94527e-10
3.00916e-09
2.63344e-08
7.71343e-10
3.02437e-09
2.58062e-08
1.13103e-09
3.02386e-09
2.52942e-08
1.47399e-09
3.02081e-09
2.47929e-08
1.79995e-09
3.01534e-09
2.43021e-08
2.10804e-09
3.00593e-09
2.38212e-08
2.39728e-09
2.99022e-09
2.33498e-08
2.66763e-09
2.96428e-09
2.28833e-08
2.92324e-09
2.92341e-09
2.24195e-08
2.89236e-09
2.19884e-08
3.18063e-09
3.92615e-10
2.60912e-08
3.22587e-09
7.71603e-10
2.55376e-08
3.24417e-09
1.13368e-09
2.50061e-08
3.24685e-09
1.47874e-09
2.44877e-08
3.24607e-09
1.80615e-09
2.39805e-08
3.24254e-09
2.11448e-09
2.34826e-08
3.23559e-09
2.40118e-09
2.299e-08
3.22423e-09
2.66215e-09
2.24953e-08
3.2067e-09
2.89206e-09
2.1987e-08
3.18078e-09
2.14928e-08
3.127e-09
3.12711e-09
5.82879e-10
5.8279e-10
2.83516e-08
1.14456e-09
5.85497e-10
2.78582e-08
1.68785e-09
5.87016e-10
2.73743e-08
2.21242e-09
5.88444e-10
2.69299e-08
2.71687e-09
5.89789e-10
2.65303e-08
3.19931e-09
5.90707e-10
2.61733e-08
3.65709e-09
5.90731e-10
2.58582e-08
4.08662e-09
5.89345e-10
2.55842e-08
4.48251e-09
5.86528e-10
2.53509e-08
5.86797e-10
2.51529e-08
4.83288e-09
5.85469e-10
1.14462e-09
2.78544e-08
1.14933e-09
1.14934e-09
2.73809e-08
1.69421e-09
1.15191e-09
2.69149e-08
2.22025e-09
1.1544e-09
2.64735e-08
2.72657e-09
1.15645e-09
2.60691e-08
3.21137e-09
1.15772e-09
2.57048e-08
3.67225e-09
1.1573e-09
2.53796e-08
4.10578e-09
1.15435e-09
2.50925e-08
4.50633e-09
1.14952e-09
2.48417e-08
1.1546e-09
2.46156e-08
4.85954e-09
5.868e-10
1.68819e-09
2.73711e-08
1.15167e-09
1.69431e-09
2.69113e-08
1.69701e-09
1.69705e-09
2.64648e-08
2.22272e-09
1.70014e-09
2.6034e-08
2.72844e-09
1.70242e-09
2.5628e-08
3.21298e-09
1.7032e-09
2.52563e-08
3.67398e-09
1.70169e-09
2.49209e-08
4.10823e-09
1.69678e-09
2.46195e-08
4.51052e-09
1.68967e-09
2.43508e-08
1.69972e-09
2.41037e-08
4.86689e-09
5.88254e-10
2.21289e-09
2.69296e-08
1.15397e-09
2.22062e-09
2.6471e-08
1.69976e-09
2.22281e-09
2.60308e-08
2.22551e-09
2.22556e-09
2.56085e-08
2.73039e-09
2.22782e-09
2.52043e-08
3.2137e-09
2.22778e-09
2.48244e-08
3.6739e-09
2.22432e-09
2.44758e-08
4.10794e-09
2.2167e-09
2.41588e-08
4.51083e-09
2.20688e-09
2.3872e-08
2.2214e-09
2.36067e-08
4.86931e-09
5.89652e-10
2.71741e-09
2.65309e-08
1.15611e-09
2.72709e-09
2.60691e-08
1.70184e-09
2.72882e-09
2.56258e-08
2.22735e-09
2.73045e-09
2.52013e-08
2.73175e-09
2.73172e-09
2.47967e-08
3.21357e-09
2.73084e-09
2.44115e-08
3.67182e-09
2.72528e-09
2.40482e-08
4.10481e-09
2.71384e-09
2.37117e-08
4.50782e-09
2.70027e-09
2.3405e-08
2.71828e-09
2.31226e-08
4.86805e-09
5.90581e-10
3.19987e-09
2.61741e-08
1.15747e-09
3.21193e-09
2.57055e-08
1.70274e-09
3.21354e-09
2.52562e-08
2.22703e-09
3.21411e-09
2.48223e-08
2.73029e-09
3.21347e-09
2.44083e-08
3.21099e-09
3.21065e-09
2.40161e-08
3.66701e-09
3.20321e-09
2.36413e-08
4.09766e-09
3.18773e-09
2.32835e-08
4.5002e-09
3.16873e-09
2.2951e-08
3.18809e-09
2.26496e-08
4.86265e-09
5.90617e-10
3.65766e-09
2.58591e-08
1.15707e-09
3.67282e-09
2.53805e-08
1.70134e-09
3.67457e-09
2.49217e-08
2.2237e-09
3.67453e-09
2.44759e-08
2.72422e-09
3.67225e-09
2.40455e-08
3.20248e-09
3.66656e-09
2.36361e-08
3.65638e-09
3.65609e-09
2.32479e-08
4.08426e-09
3.63672e-09
2.28712e-08
4.48563e-09
3.61093e-09
2.25087e-08
3.62713e-09
2.2184e-08
4.85201e-09
5.89249e-10
4.08717e-09
2.55854e-08
1.15416e-09
4.10633e-09
2.50936e-08
1.6965e-09
4.1088e-09
2.46204e-08
2.21634e-09
4.10856e-09
2.41596e-08
2.71317e-09
4.10552e-09
2.37114e-08
3.18654e-09
4.09794e-09
2.32787e-08
3.6358e-09
4.08394e-09
2.28657e-08
4.05972e-09
4.05979e-09
2.24641e-08
4.45945e-09
4.02514e-09
2.20711e-08
4.02928e-09
2.17194e-08
4.83384e-09
5.86449e-10
4.483e-09
2.53521e-08
1.14937e-09
4.50683e-09
2.48428e-08
1.68946e-09
4.51104e-09
2.43519e-08
2.20664e-09
4.51138e-09
2.38729e-08
2.70009e-09
4.50838e-09
2.34058e-08
3.16833e-09
4.50071e-09
2.29502e-08
3.61003e-09
4.48589e-09
2.25061e-08
4.02447e-09
4.45937e-09
2.20692e-08
4.41564e-09
4.41563e-09
2.16378e-08
4.38592e-09
2.12427e-08
4.80471e-09
5.86742e-10
2.51541e-08
4.83329e-09
1.1545e-09
2.46167e-08
4.85995e-09
1.69958e-09
2.41048e-08
4.86731e-09
2.22125e-09
2.36076e-08
4.86975e-09
2.71816e-09
2.31235e-08
4.86848e-09
3.18798e-09
2.26504e-08
4.86303e-09
3.62688e-09
2.21847e-08
4.85232e-09
4.02879e-09
2.17188e-08
4.83399e-09
4.38559e-09
2.12412e-08
4.8046e-09
2.07806e-08
4.74185e-09
4.74181e-09
7.6863e-10
7.68626e-10
2.68143e-08
1.50913e-09
7.71821e-10
2.63459e-08
2.2254e-09
7.73364e-10
2.58846e-08
2.91907e-09
7.75253e-10
2.5461e-08
3.59062e-09
7.77782e-10
2.50809e-08
4.2398e-09
7.80609e-10
2.47435e-08
4.86544e-09
7.83274e-10
2.44492e-08
5.46511e-09
7.85292e-10
2.41993e-08
6.03418e-09
7.86726e-10
2.39951e-08
7.92987e-10
2.38342e-08
6.55989e-09
7.7167e-10
1.50914e-09
2.63422e-08
1.51541e-09
1.51546e-09
2.58936e-08
2.23466e-09
1.51899e-09
2.545e-08
2.93103e-09
1.52282e-09
2.50296e-08
3.60539e-09
1.52724e-09
2.46453e-08
4.25761e-09
1.53222e-09
2.43009e-08
4.8867e-09
1.53687e-09
2.39969e-08
5.49039e-09
1.5404e-09
2.37337e-08
6.06363e-09
1.54367e-09
2.35115e-08
1.56039e-09
2.33214e-08
6.59039e-09
7.73078e-10
2.22554e-09
2.58816e-08
1.51862e-09
2.23458e-09
2.54467e-08
2.23978e-09
2.23975e-09
2.50229e-08
2.93728e-09
2.24573e-09
2.46136e-08
3.61216e-09
2.25184e-09
2.42285e-08
4.26492e-09
2.25803e-09
2.38777e-08
4.89452e-09
2.26385e-09
2.35644e-08
5.49876e-09
2.26821e-09
2.32875e-08
6.07305e-09
2.27257e-09
2.30476e-08
2.29948e-09
2.28362e-08
6.60153e-09
7.75108e-10
2.9193e-09
2.54607e-08
1.52233e-09
2.93113e-09
2.50272e-08
2.24529e-09
2.9371e-09
2.46105e-08
2.94453e-09
2.94443e-09
2.42105e-08
3.62002e-09
2.95233e-09
2.38283e-08
4.27245e-09
2.95942e-09
2.34706e-08
4.90171e-09
2.96515e-09
2.31453e-08
5.50565e-09
2.9692e-09
2.28538e-08
6.0798e-09
2.97378e-09
2.25966e-08
3.00991e-09
2.2367e-08
6.60905e-09
7.77729e-10
3.59089e-09
2.50816e-08
1.527e-09
3.60566e-09
2.46453e-08
2.25126e-09
3.61226e-09
2.42263e-08
2.95185e-09
3.61975e-09
2.38254e-08
3.62858e-09
3.62833e-09
2.34439e-08
4.28074e-09
3.63643e-09
2.30823e-08
4.90847e-09
3.64174e-09
2.27438e-08
5.51127e-09
3.64362e-09
2.24345e-08
6.08486e-09
3.64672e-09
2.21584e-08
3.69053e-09
2.19121e-08
6.61468e-09
7.80566e-10
4.24011e-09
2.47443e-08
1.53214e-09
4.25791e-09
2.43017e-08
2.25773e-09
4.2652e-09
2.38776e-08
2.95868e-09
4.27255e-09
2.34686e-08
3.63588e-09
4.28022e-09
2.30792e-08
4.28847e-09
4.28781e-09
2.27121e-08
4.91475e-09
4.29293e-09
2.23638e-08
5.51499e-09
4.29198e-09
2.20349e-08
6.08728e-09
4.29079e-09
2.17347e-08
4.33908e-09
2.14701e-08
6.61828e-09
7.83242e-10
4.86576e-09
2.44502e-08
1.5368e-09
4.88703e-09
2.39978e-08
2.26372e-09
4.89485e-09
2.35651e-08
2.96473e-09
4.90207e-09
2.31454e-08
3.64064e-09
4.90857e-09
2.27412e-08
4.29205e-09
4.91372e-09
2.23588e-08
4.91734e-09
4.91672e-09
2.19988e-08
5.51481e-09
4.91289e-09
2.16528e-08
6.08481e-09
4.90511e-09
2.13244e-08
4.95157e-09
2.10375e-08
6.61883e-09
7.85279e-10
5.46543e-09
2.42004e-08
1.54038e-09
5.49071e-09
2.37348e-08
2.26817e-09
5.49909e-09
2.32884e-08
2.96915e-09
5.50601e-09
2.28547e-08
3.6432e-09
5.51169e-09
2.24342e-08
4.29061e-09
5.51477e-09
2.20302e-08
4.91173e-09
5.51384e-09
2.16474e-08
5.50519e-09
5.50498e-09
2.12785e-08
6.07238e-09
5.4875e-09
2.09216e-08
5.5209e-09
2.06088e-08
6.61364e-09
7.86728e-10
6.03449e-09
2.39963e-08
1.54367e-09
6.06393e-09
2.35127e-08
2.2726e-09
6.07335e-09
2.30487e-08
2.97385e-09
6.08009e-09
2.25975e-08
3.64694e-09
6.08512e-09
2.21593e-08
4.29062e-09
6.08741e-09
2.17338e-08
4.90411e-09
6.08461e-09
2.13219e-08
5.48678e-09
6.07183e-09
2.09197e-08
6.043e-09
6.04272e-09
2.05264e-08
6.03636e-09
2.0172e-08
6.59826e-09
7.93011e-10
2.38354e-08
6.56016e-09
1.56044e-09
2.33226e-08
6.59065e-09
2.29956e-09
2.28372e-08
6.60177e-09
3.01005e-09
2.2368e-08
6.60927e-09
3.69073e-09
2.1913e-08
6.61486e-09
4.33929e-09
2.14709e-08
6.61838e-09
4.95155e-09
2.10382e-08
6.61886e-09
5.52046e-09
2.06082e-08
6.61349e-09
6.03604e-09
2.01705e-08
6.59781e-09
1.97529e-08
6.55017e-09
6.54994e-09
9.37434e-10
9.37468e-10
2.49394e-08
1.84145e-09
9.41293e-10
2.45006e-08
2.71764e-09
9.43451e-10
2.4065e-08
3.57024e-09
9.46679e-10
2.36617e-08
4.40242e-09
9.51542e-10
2.32972e-08
5.21659e-09
9.57768e-10
2.29716e-08
6.01426e-09
9.64982e-10
2.26866e-08
6.79573e-09
9.72824e-10
2.2445e-08
7.55902e-09
9.8152e-10
2.22503e-08
9.97363e-10
2.21029e-08
8.29293e-09
9.41073e-10
1.84138e-09
2.44972e-08
1.84943e-09
1.84946e-09
2.4077e-08
2.72988e-09
1.85489e-09
2.36582e-08
3.58619e-09
1.86163e-09
2.32583e-08
4.42184e-09
1.87059e-09
2.28906e-08
5.23925e-09
1.8821e-09
2.25592e-08
6.04004e-09
1.89542e-09
2.22657e-08
6.82451e-09
1.90998e-09
2.20121e-08
7.59012e-09
1.92688e-09
2.18005e-08
1.96158e-09
2.16255e-08
8.32181e-09
9.43135e-10
2.71756e-09
2.40623e-08
1.85448e-09
2.72959e-09
2.36552e-08
2.73852e-09
2.73838e-09
2.32553e-08
3.59759e-09
2.74933e-09
2.28668e-08
4.43494e-09
2.76229e-09
2.24995e-08
5.25361e-09
2.7779e-09
2.21632e-08
6.05503e-09
2.79617e-09
2.18622e-08
6.83939e-09
2.81625e-09
2.15968e-08
7.60448e-09
2.83985e-09
2.13695e-08
2.89229e-09
2.11748e-08
8.33511e-09
9.46592e-10
3.5702e-09
2.36615e-08
1.86116e-09
3.58602e-09
2.32562e-08
2.7489e-09
3.59713e-09
2.2864e-08
3.61181e-09
3.61152e-09
2.24854e-08
4.45155e-09
3.62879e-09
2.21221e-08
5.27104e-09
3.64807e-09
2.17809e-08
6.07264e-09
3.66954e-09
2.14703e-08
6.85643e-09
3.69342e-09
2.11929e-08
7.62012e-09
3.72219e-09
2.09506e-08
3.79071e-09
2.07396e-08
8.34906e-09
9.51578e-10
4.4024e-09
2.32978e-08
1.87048e-09
4.42182e-09
2.28906e-08
2.76176e-09
4.43473e-09
2.24975e-08
3.62836e-09
4.45093e-09
2.21194e-08
4.47165e-09
4.47114e-09
2.17583e-08
5.29258e-09
4.49419e-09
2.14152e-08
6.09348e-09
4.51819e-09
2.10943e-08
6.87616e-09
4.54319e-09
2.0802e-08
7.63839e-09
4.5746e-09
2.05438e-08
4.65695e-09
2.03184e-08
8.3659e-09
9.5781e-10
5.21659e-09
2.29723e-08
1.88218e-09
5.23925e-09
2.25599e-08
2.77778e-09
5.25359e-09
2.21631e-08
3.64741e-09
5.2708e-09
2.17791e-08
4.4937e-09
5.29165e-09
2.14124e-08
5.31741e-09
5.3164e-09
2.10662e-08
6.11829e-09
5.343e-09
2.07381e-08
6.89865e-09
5.36792e-09
2.04298e-08
7.65884e-09
5.398e-09
2.01511e-08
5.4899e-09
1.99101e-08
8.3859e-09
9.65033e-10
6.0143e-09
2.26875e-08
1.89551e-09
6.04007e-09
2.22665e-08
2.79627e-09
6.05506e-09
2.18629e-08
3.66934e-09
6.0727e-09
2.14704e-08
4.51711e-09
6.09321e-09
2.10919e-08
5.34206e-09
6.11669e-09
2.07335e-08
6.14401e-09
6.14307e-09
2.03968e-08
6.92242e-09
6.16746e-09
2.00749e-08
7.6796e-09
6.19295e-09
1.97723e-08
6.28644e-09
1.95122e-08
8.40836e-09
9.72892e-10
6.79579e-09
2.2446e-08
1.91011e-09
6.82456e-09
2.20131e-08
2.81644e-09
6.83943e-09
2.15977e-08
3.69368e-09
6.85648e-09
2.11937e-08
4.54305e-09
6.87626e-09
2.08018e-08
5.36646e-09
6.89793e-09
2.04256e-08
6.16615e-09
6.92083e-09
2.007e-08
6.94168e-09
6.94117e-09
1.97293e-08
7.69564e-09
6.95789e-09
1.94027e-08
7.03986e-09
1.91204e-08
8.43057e-09
9.81602e-10
7.5591e-09
2.22514e-08
1.92705e-09
7.59018e-09
2.18016e-08
2.84011e-09
7.60453e-09
2.13705e-08
3.72256e-09
7.62013e-09
2.09514e-08
4.57521e-09
7.63832e-09
2.05446e-08
5.39808e-09
7.65857e-09
2.01503e-08
6.19189e-09
7.67894e-09
1.97699e-08
6.95716e-09
7.69466e-09
1.9401e-08
7.69934e-09
7.69879e-09
1.90433e-08
7.73872e-09
1.8725e-08
8.44752e-09
9.97464e-10
2.21041e-08
8.29301e-09
1.96178e-09
2.16266e-08
8.32188e-09
2.89259e-09
2.11758e-08
8.33514e-09
3.79112e-09
2.07405e-08
8.34905e-09
4.65746e-09
2.03192e-08
8.3658e-09
5.49042e-09
1.99108e-08
8.3857e-09
6.28665e-09
1.95128e-08
8.40808e-09
7.03949e-09
1.91199e-08
8.43011e-09
7.73844e-09
1.87236e-08
8.44675e-09
1.83494e-08
8.44055e-09
8.44014e-09
1.0747e-09
1.07473e-09
2.279e-08
2.11269e-09
1.07919e-09
2.23834e-08
3.1214e-09
1.08237e-09
2.19739e-08
4.10797e-09
1.0875e-09
2.15877e-08
5.07872e-09
1.09535e-09
2.12311e-08