/*--------------------------------*- C++ -*----------------------------------*\
| =========                 |                                                 |
| \\      /  F ield         | foam-extend: Open Source CFD                    |
|  \\    /   O peration     | Version:     3.1                                |
|   \\  /    A nd           | Web:         http://www.extend-project.de       |
|    \\/     M anipulation  |                                                 |
\*---------------------------------------------------------------------------*/
FoamFile
{
    version     2.0;
    format      ascii;
    class       pointVectorField;
    location    "0.0016";
    object      pointMotionU;
}
// * * * * * * * * * * * * * * * * * * * * * * * * * * * * * * * * * * * * * //

dimensions      [0 1 -1 0 0 0 0];

internalField   nonuniform List<vector> 
18306
(
(0 0 0)
(0 0 0)
(0 0 0)
(0 0 0)
(0 0 0)
(0 0 0)
(0 0 0)
(0 0 0)
(0 0 0)
(0 0 0)
(0 0 0)
(0 0 0)
(0 0 0)
(0 0 0)
(0 0 0)
(0 0 0)
(0 0 0)
(0 0 0)
(0 0 0)
(0 0 0)
(0 0 0)
(0 0 0)
(0 0 0)
(0 0 0)
(0 0 0)
(0 0 0)
(0 0 0)
(0 0 0)
(0 0 0)
(0 0 0)
(0 0 0)
(0 0 0)
(0 0 0)
(0 0 0)
(0 0 0)
(0 0 0)
(0 0 0)
(0 0 0)
(0 0 0)
(0 0 0)
(0 0 0)
(0 0 0)
(0 0 0)
(0 0 0)
(0 0 0)
(0 0 0)
(0 0 0)
(0 0 0)
(0 0 0)
(0 0 0)
(0 0 0)
(0 0 0)
(0 0 0)
(0 0 0)
(0 0 0)
(0 0 0)
(0 0 0)
(0 0 0)
(0 0 0)
(0 0 0)
(0 0 0)
(0 0 0)
(0 0 0)
(0 0 0)
(0 0 0)
(0 0 0)
(0 0 0)
(0 0 0)
(0 0 0)
(0 0 0)
(0 0 0)
(0 0 0)
(0 0 0)
(0 0 0)
(0 0 0)
(0 0 0)
(0 0 0)
(0 0 0)
(0 0 0)
(0 0 0)
(0 0 0)
(0 0 0)
(0 0 0)
(0 0 0)
(0 0 0)
(0 0 0)
(0 0 0)
(0 0 0)
(0 0 0)
(0 0 0)
(0 0 0)
(0 0 0)
(0 0 0)
(0 0 0)
(0 0 0)
(0 0 0)
(0 0 0)
(0 0 0)
(0 0 0)
(0 0 0)
(0 0 0)
(0 0 0)
(0 0 0)
(0 0 0)
(0 0 0)
(0 0 0)
(0 0 0)
(0 0 0)
(0 0 0)
(0 0 0)
(0 0 0)
(0 0 0)
(0 0 0)
(0 0 0)
(0 0 0)
(0 0 0)
(0 0 0)
(0 0 0)
(0 0 0)
(0 0 0)
(0 0 0)
(0 -0 -1.73595e-09)
(2.89962e-09 0 -1.64607e-09)
(5.73921e-09 0 -1.37662e-09)
(8.50996e-09 0 -9.07592e-10)
(1.12644e-08 0 -1.97372e-10)
(1.40543e-08 0 8.2441e-10)
(1.69282e-08 0 2.26389e-09)
(1.99427e-08 0 4.27511e-09)
(2.31831e-08 0 7.07711e-09)
(2.68135e-08 0 1.09846e-08)
(3.12604e-08 0 1.65522e-08)
(0 1.88665e-09 -1.61765e-09)
(2.8311e-09 1.85392e-09 -1.52862e-09)
(5.62708e-09 1.77043e-09 -1.2627e-09)
(8.37187e-09 1.67011e-09 -7.99286e-10)
(1.10997e-08 1.56895e-09 -9.6878e-11)
(1.38584e-08 1.47206e-09 9.13087e-10)
(1.6691e-08 1.38473e-09 2.33246e-09)
(1.96424e-08 1.31463e-09 4.30804e-09)
(2.2771e-08 1.27361e-09 7.04057e-09)
(2.61672e-08 1.28064e-09 1.07968e-08)
(3.0054e-08 1.33457e-09 1.59545e-08)
(0 3.6933e-09 -1.26103e-09)
(2.65662e-09 3.64166e-09 -1.17559e-09)
(5.32016e-09 3.50254e-09 -9.19978e-10)
(7.97431e-09 3.31342e-09 -4.73156e-10)
(1.06218e-08 3.10931e-09 2.0468e-10)
(1.32878e-08 2.90909e-09 1.17813e-09)
(1.60041e-08 2.7222e-09 2.54042e-09)
(1.87895e-08 2.56162e-09 4.4188e-09)
(2.16408e-08 2.44578e-09 6.97167e-09)
(2.45157e-08 2.40323e-09 1.03778e-08)
(2.7408e-08 2.43581e-09 1.48385e-08)
(0 5.39444e-09 -6.39638e-10)
(2.42617e-09 5.3277e-09 -5.60107e-10)
(4.87862e-09 5.14468e-09 -3.21691e-10)
(7.35465e-09 4.8766e-09 9.6767e-11)
(9.85021e-09 4.56431e-09 7.32615e-10)
(1.23615e-08 4.24374e-09 1.64534e-09)
(1.48941e-08 3.9327e-09 2.91837e-09)
(1.74423e-08 3.64207e-09 4.65807e-09)
(1.99541e-08 3.38829e-09 6.98287e-09)
(2.23037e-08 3.19962e-09 1.00084e-08)
(2.4428e-08 3.0974e-09 1.38386e-08)
(0 7.01031e-09 3.01275e-10)
(2.15313e-09 6.921e-09 3.72099e-10)
(4.34343e-09 6.67617e-09 5.83099e-10)
(6.56739e-09 6.31377e-09 9.56369e-10)
(8.82567e-09 5.87928e-09 1.52928e-09)
(1.11116e-08 5.41364e-09 2.35605e-09)
(1.34037e-08 4.942e-09 3.51107e-09)
(1.56669e-08 4.47122e-09 5.08527e-09)
(1.7831e-08 4.00385e-09 7.17251e-09)
(1.97549e-08 3.55365e-09 9.85675e-09)
(2.14669e-08 3.18073e-09 1.32021e-08)
(0 8.56657e-09 1.65347e-09)
(1.84593e-09 8.44137e-09 1.70962e-09)
(3.73206e-09 8.09722e-09 1.8757e-09)
(5.65253e-09 7.59379e-09 2.17756e-09)
(7.60025e-09 7.00073e-09 2.65713e-09)
(9.57485e-09 6.36268e-09 3.36749e-09)
(1.15605e-08 5.69645e-09 4.37575e-09)
(1.35014e-08 4.99801e-09 5.75979e-09)
(1.53049e-08 4.24924e-09 7.60164e-09)
(1.68522e-08 3.43487e-09 9.97346e-09)
(1.83493e-08 2.66103e-09 1.29176e-08)
(0 1.01062e-08 3.55399e-09)
(1.51285e-09 9.91843e-09 3.58292e-09)
(3.05897e-09 9.40991e-09 3.67319e-09)
(4.63164e-09 8.68843e-09 3.86198e-09)
(6.21517e-09 7.8725e-09 4.20272e-09)
(7.80196e-09 7.02688e-09 4.75444e-09)
(9.38994e-09 6.14866e-09 5.57803e-09)
(1.09438e-08 5.19782e-09 6.73993e-09)
(1.23531e-08 4.12742e-09 8.31288e-09)
(1.34976e-08 2.89002e-09 1.0361e-08)
(1.47813e-08 1.62319e-09 1.29051e-08)
(0 1.17088e-08 6.20011e-09)
(1.16193e-09 1.14064e-08 6.17842e-09)
(2.34277e-09 1.06103e-08 6.13323e-09)
(3.5282e-09 9.54168e-09 6.13631e-09)
(4.69881e-09 8.4119e-09 6.2691e-09)
(5.84136e-09 7.3174e-09 6.60166e-09)
(6.95146e-09 6.22869e-09 7.189e-09)
(8.02088e-09 5.04365e-09 8.08502e-09)
(8.97209e-09 3.66728e-09 9.3425e-09)
(9.66074e-09 2.0191e-09 1.10189e-08)
(1.0607e-08 2.37853e-10 1.31119e-08)
(0 1.35307e-08 9.87029e-09)
(8.01847e-10 1.30048e-08 9.74832e-09)
(1.60118e-09 1.16766e-08 9.44733e-09)
(2.36916e-09 1.00341e-08 9.13535e-09)
(3.08008e-09 8.46758e-09 8.95799e-09)
(3.72356e-09 7.099e-09 8.99567e-09)
(4.30182e-09 5.83326e-09 9.28489e-09)
(4.8201e-09 4.481e-09 9.8537e-09)
(5.25446e-09 2.88419e-09 1.07284e-08)
(5.45281e-09 9.24706e-10 1.19688e-08)
(5.92687e-09 -1.276e-09 1.35406e-08)
(0 1.59006e-08 1.49644e-08)
(4.40807e-10 1.49e-08 1.46246e-08)
(8.5101e-10 1.25302e-08 1.38224e-08)
(1.1809e-09 9.92104e-09 1.29774e-08)
(1.39125e-09 7.76782e-09 1.23474e-08)
(1.47491e-09 6.15872e-09 1.20056e-08)
(1.45978e-09 4.82425e-09 1.19348e-08)
(1.39293e-09 3.42154e-09 1.21099e-08)
(1.31e-09 1.72019e-09 1.25309e-08)
(1.11006e-09 -3.71385e-10 1.32533e-08)
(1.17153e-09 -2.67491e-09 1.42103e-08)
(0 1.96003e-08 2.21955e-08)
(8.0328e-11 1.75387e-08 2.12832e-08)
(1.09147e-10 1.31438e-08 1.94957e-08)
(7.22552e-12 8.95604e-09 1.77764e-08)
(-2.87965e-10 6.0646e-09 1.65138e-08)
(-7.91157e-10 4.3469e-09 1.57027e-08)
(-1.45354e-09 3.1886e-09 1.52104e-08)
(-2.16394e-09 1.97932e-09 1.49218e-08)
(-2.76962e-09 3.61193e-10 1.47936e-08)
(-3.11116e-09 -1.65581e-09 1.48446e-08)
(-3.11509e-09 -3.81088e-09 1.51504e-08)
(0 -0 -4.91604e-09)
(5.63758e-09 0 -4.7855e-09)
(1.11613e-08 0 -4.39765e-09)
(1.6556e-08 0 -3.72769e-09)
(2.19217e-08 0 -2.72413e-09)
(2.73511e-08 0 -1.30013e-09)
(3.29213e-08 0 6.72685e-10)
(3.87118e-08 0 3.37472e-09)
(4.4838e-08 0 7.05158e-09)
(5.15336e-08 0 1.20384e-08)
(5.94608e-08 0 1.89125e-08)
(0 3.71201e-09 -4.74534e-09)
(5.51434e-09 3.65642e-09 -4.61491e-09)
(1.0964e-08 3.51327e-09 -4.22924e-09)
(1.632e-08 3.34954e-09 -3.56268e-09)
(2.16485e-08 3.19552e-09 -2.56383e-09)
(2.70371e-08 3.06123e-09 -1.14795e-09)
(3.25573e-08 2.95844e-09 8.08698e-10)
(3.82758e-08 2.90579e-09 3.47982e-09)
(4.42753e-08 2.93264e-09 7.09319e-09)
(5.06919e-08 3.08644e-09 1.19362e-08)
(5.78816e-08 3.36501e-09 1.83905e-08)
(0 7.27782e-09 -4.23369e-09)
(5.1977e-09 7.19442e-09 -4.10546e-09)
(1.04148e-08 6.96524e-09 -3.72666e-09)
(1.56239e-08 6.66379e-09 -3.0711e-09)
(2.08335e-08 6.35631e-09 -2.08993e-09)
(2.60942e-08 6.07961e-09 -7.02956e-10)
(3.14682e-08 5.85512e-09 1.20474e-09)
(3.69942e-08 5.7155e-09 3.78729e-09)
(4.2679e-08 5.70836e-09 7.23029e-09)
(4.84889e-08 5.90769e-09 1.17354e-08)
(5.44624e-08 6.30591e-09 1.7501e-08)
(0 1.06582e-08 -3.34562e-09)
(4.78622e-09 1.05556e-08 -3.22104e-09)
(9.63287e-09 1.02677e-08 -2.85404e-09)
(1.45424e-08 9.85454e-09 -2.21848e-09)
(1.95151e-08 9.39105e-09 -1.26967e-09)
(2.45536e-08 8.9463e-09 6.60535e-11)
(2.96842e-08 8.55961e-09 1.89353e-09)
(3.49227e-08 8.26318e-09 4.3459e-09)
(4.02213e-08 8.10603e-09 7.56892e-09)
(4.54483e-08 8.1688e-09 1.17045e-08)
(5.05801e-08 8.46129e-09 1.68448e-08)
(0 1.39021e-08 -2.00841e-09)
(4.30499e-09 1.37685e-08 -1.88957e-09)
(8.69591e-09 1.33944e-08 -1.54416e-09)
(1.31773e-08 1.28504e-08 -9.45422e-10)
(1.77635e-08 1.22158e-08 -5.03668e-11)
(2.24593e-08 1.15658e-08 1.20665e-09)
(2.72511e-08 1.0955e-08 2.92016e-09)
(3.21173e-08 1.04125e-08 5.20825e-09)
(3.69983e-08 9.96681e-09 8.19269e-09)
(4.17568e-08 9.67782e-09 1.19855e-08)
(4.65304e-08 9.6016e-09 1.66266e-08)
(0 1.70682e-08 -1.01231e-10)
(3.77067e-09 1.68825e-08 5.7099e-12)
(7.63798e-09 1.63626e-08 3.10374e-10)
(1.16052e-08 1.56145e-08 8.42831e-10)
(1.56757e-08 1.47561e-08 1.64879e-09)
(1.98725e-08 1.3864e-08 2.79006e-09)
(2.42018e-08 1.29751e-08 4.35135e-09)
(2.86112e-08 1.21021e-08 6.43606e-09)
(3.30092e-08 1.12446e-08 9.15631e-09)
(3.73002e-08 1.04159e-08 1.26133e-08)
(4.19249e-08 9.72471e-09 1.68108e-08)
(0 2.02485e-08 2.55278e-09)
(3.20123e-09 1.99675e-08 2.63381e-09)
(6.49084e-09 1.91988e-08 2.86299e-09)
(9.87334e-09 1.81269e-08 3.28143e-09)
(1.33375e-08 1.69474e-08 3.944e-09)
(1.6896e-08 1.57664e-08 4.91619e-09)
(2.05863e-08 1.4581e-08 6.273e-09)
(2.44008e-08 1.33383e-08 8.10376e-09)
(2.82136e-08 1.19954e-08 1.05125e-08)
(3.19146e-08 1.0518e-08 1.35933e-08)
(3.629e-08 9.04037e-09 1.73159e-08)
(0 2.36057e-08 6.20134e-09)
(2.61641e-09 2.31454e-08 6.23071e-09)
(5.29882e-09 2.19304e-08 6.31702e-09)
(8.03884e-09 2.03326e-08 6.53828e-09)
(1.08196e-08 1.86966e-08 6.97571e-09)
(1.36437e-08 1.71736e-08 7.70286e-09)
(1.65443e-08 1.57087e-08 8.78507e-09)
(1.95684e-08 1.41385e-08 1.02972e-08)
(2.26437e-08 1.23332e-08 1.23185e-08)
(2.56009e-08 1.02168e-08 1.49403e-08)
(2.94316e-08 7.91087e-09 1.81052e-08)
(0 2.74518e-08 1.11819e-08)
(2.04002e-09 2.66337e-08 1.11049e-08)
(4.10916e-09 2.45729e-08 1.09131e-08)
(6.17229e-09 2.2088e-08 1.07903e-08)
(8.20195e-09 1.98146e-08 1.08844e-08)
(1.02074e-08 1.79326e-08 1.12745e-08)
(1.22311e-08 1.62627e-08 1.20008e-08)
(1.43364e-08 1.4485e-08 1.31068e-08)
(1.65353e-08 1.23525e-08 1.46383e-08)
(1.86366e-08 9.74508e-09 1.67005e-08)
(2.16063e-08 6.76013e-09 1.92053e-08)
(0 3.2429e-08 1.79591e-08)
(1.49958e-09 3.08329e-08 1.7646e-08)
(2.97447e-09 2.70812e-08 1.69039e-08)
(4.3525e-09 2.30735e-08 1.61951e-08)
(5.5831e-09 1.99437e-08 1.5785e-08)
(6.6837e-09 1.77929e-08 1.57382e-08)
(7.74292e-09 1.61253e-08 1.60298e-08)
(8.88633e-09 1.43408e-08 1.66386e-08)
(1.0209e-08 1.20566e-08 1.75791e-08)
(1.15681e-08 9.19524e-09 1.89511e-08)
(1.36198e-08 5.97244e-09 2.06316e-08)
(0 4.00391e-08 2.73452e-08)
(9.98551e-10 3.66478e-08 2.63855e-08)
(1.91627e-09 2.95326e-08 2.4554e-08)
(2.63239e-09 2.29725e-08 2.28768e-08)
(3.05836e-09 1.87422e-08 2.17539e-08)
(3.20229e-09 1.65612e-08 2.1158e-08)
(3.19344e-09 1.53271e-08 2.09331e-08)
(3.27033e-09 1.39588e-08 2.09531e-08)
(3.72135e-09 1.18222e-08 2.11788e-08)
(4.77338e-09 8.91797e-09 2.16305e-08)
(6.46776e-09 5.71383e-09 2.23942e-08)
(0 -0 -1.01525e-08)
(8.02917e-09 0 -1.00517e-08)
(1.59032e-08 0 -9.76028e-09)
(2.3602e-08 0 -9.2653e-09)
(3.12599e-08 0 -8.53971e-09)
(3.89825e-08 0 -7.53943e-09)
(4.68211e-08 0 -6.20459e-09)
(5.47743e-08 0 -4.46419e-09)
(6.27916e-08 0 -2.24825e-09)
(7.08056e-08 0 4.8986e-10)
(7.89405e-08 0 3.78252e-09)
(0 5.34458e-09 -1.00249e-08)
(7.86886e-09 5.2787e-09 -9.92156e-09)
(1.56539e-08 5.11079e-09 -9.62496e-09)
(2.33162e-08 4.93553e-09 -9.1218e-09)
(3.09444e-08 4.79403e-09 -8.38483e-09)
(3.86424e-08 4.70008e-09 -7.37116e-09)
(4.64631e-08 4.67196e-09 -6.02199e-09)
(5.44068e-08 4.74025e-09 -4.26489e-09)
(6.24203e-08 4.95292e-09 -2.0284e-09)
(7.04036e-08 5.38665e-09 7.35833e-10)
(7.83012e-08 6.02299e-09 4.01295e-09)
(0 1.04971e-08 -9.6492e-09)
(7.45815e-09 1.04064e-08 -9.54046e-09)
(1.49559e-08 1.01564e-08 -9.22903e-09)
(2.24604e-08 9.84866e-09 -8.70229e-09)
(2.99846e-08 9.57305e-09 -7.93571e-09)
(3.7593e-08 9.38069e-09 -6.88869e-09)
(4.535e-08 9.305e-09 -5.50318e-09)
(5.32636e-08 9.40036e-09 -3.70656e-09)
(6.12688e-08 9.74548e-09 -1.42604e-09)
(6.92302e-08 1.04598e-08 1.39513e-09)
(7.6991e-08 1.14863e-08 4.72514e-09)
(0 1.54157e-08 -9.00098e-09)
(6.93706e-09 1.5315e-08 -8.88409e-09)
(1.39774e-08 1.50293e-08 -8.54942e-09)
(2.11368e-08 1.46377e-08 -7.98624e-09)
(2.84254e-08 1.42372e-08 -7.17655e-09)
(3.58553e-08 1.3922e-08 -6.08441e-09)
(4.34691e-08 1.37519e-08 -4.65328e-09)
(5.12931e-08 1.37843e-08 -2.81127e-09)
(5.92731e-08 1.41042e-08 -4.85318e-10)
(6.72849e-08 1.48446e-08 2.3907e-09)
(7.52474e-08 1.59297e-08 5.76007e-09)
(0 2.01783e-08 -8.032e-09)
(6.3394e-09 2.00556e-08 -7.90443e-09)
(1.28252e-08 1.97089e-08 -7.54273e-09)
(1.94822e-08 1.92254e-08 -6.93939e-09)
(2.635e-08 1.86996e-08 -6.0833e-09)
(3.34572e-08 1.82265e-08 -4.94764e-09)
(4.08141e-08 1.7887e-08 -3.48095e-09)
(4.84327e-08 1.77396e-08 -1.61207e-09)
(5.62952e-08 1.78458e-08 7.31665e-10)
(6.43308e-08 1.83138e-08 3.61828e-09)
(7.26983e-08 1.90791e-08 6.9582e-09)
(0 2.48663e-08 -6.66557e-09)
(5.68897e-09 2.4701e-08 -6.52717e-09)
(1.15471e-08 2.42334e-08 -6.14057e-09)
(1.76029e-08 2.35873e-08 -5.50274e-09)
(2.38865e-08 2.28938e-08 -4.6105e-09)
(3.04634e-08 2.22376e-08 -3.44705e-09)
(3.73876e-08 2.16706e-08 -1.97061e-09)
(4.4648e-08 2.12321e-08 -1.17331e-10)
(5.22047e-08 2.09565e-08 2.18716e-09)
(6.00504e-08 2.08938e-08 5.00778e-09)
(6.87244e-08 2.09911e-08 8.21944e-09)
(0 2.95893e-08 -4.79749e-09)
(5.01373e-09 2.93375e-08 -4.65167e-09)
(1.01928e-08 2.86494e-08 -4.24818e-09)
(1.55716e-08 2.77284e-08 -3.58928e-09)
(2.11627e-08 2.67817e-08 -2.68243e-09)
(2.70217e-08 2.59149e-08 -1.52124e-09)
(3.32558e-08 2.5118e-08 -7.7052e-11)
(3.99255e-08 2.43428e-08 1.70284e-09)
(4.69442e-08 2.35801e-08 3.89042e-09)
(5.42646e-08 2.28295e-08 6.54446e-09)
(6.28651e-08 2.2016e-08 9.51149e-09)
(0 3.45202e-08 -2.29711e-09)
(4.34674e-09 3.4098e-08 -2.1497e-09)
(8.83519e-09 3.2996e-08 -1.74709e-09)
(1.34831e-08 3.16137e-08 -1.09258e-09)
(1.82963e-08 3.03044e-08 -2.03806e-10)
(2.33168e-08 2.92038e-08 9.11625e-10)
(2.86448e-08 2.82249e-08 2.26719e-09)
(3.4421e-08 2.71786e-08 3.90577e-09)
(4.06181e-08 2.59424e-08 5.88073e-09)
(4.70837e-08 2.44843e-08 8.25105e-09)
(5.50662e-08 2.26901e-08 1.08564e-08)
(0 3.9973e-08 9.84597e-10)
(3.72905e-09 3.92002e-08 1.12081e-09)
(7.55416e-09 3.72864e-08 1.4864e-09)
(1.14557e-08 3.51042e-08 2.09292e-09)
(1.54247e-08 3.32994e-08 2.92023e-09)
(1.95126e-08 3.20063e-08 3.94117e-09)
(2.38253e-08 3.0969e-08 5.14545e-09)
(2.85115e-08 2.98018e-08 6.5566e-09)
(3.36326e-08 2.82285e-08 8.2064e-09)
(3.89954e-08 2.6196e-08 1.0175e-08)
(4.58126e-08 2.35777e-08 1.23069e-08)
(0 4.65857e-08 5.2021e-09)
(3.21027e-09 4.50312e-08 5.29532e-09)
(6.44116e-09 4.14533e-08 5.55748e-09)
(9.62361e-09 3.78702e-08 6.05473e-09)
(1.27173e-08 3.54303e-08 6.76938e-09)
(1.57843e-08 3.41332e-08 7.64533e-09)
(1.89881e-08 3.33271e-08 8.63572e-09)
(2.25351e-08 3.22756e-08 9.73028e-09)
(2.65601e-08 3.05313e-08 1.09495e-08)
(3.0875e-08 2.81006e-08 1.23802e-08)
(3.62148e-08 2.5061e-08 1.38758e-08)
(0 5.58858e-08 1.05756e-08)
(2.77913e-09 5.24744e-08 1.04809e-08)
(5.47815e-09 4.55056e-08 1.04934e-08)
(7.97002e-09 3.94996e-08 1.07691e-08)
(1.01664e-08 3.62501e-08 1.12898e-08)
(1.21195e-08 3.52975e-08 1.19544e-08)
(1.40475e-08 3.52765e-08 1.26655e-08)
(1.62995e-08 3.48653e-08 1.33689e-08)
(1.92412e-08 3.32833e-08 1.40625e-08)
(2.30432e-08 3.05168e-08 1.47687e-08)
(2.75962e-08 2.7175e-08 1.5558e-08)
(0 -0 -1.68859e-08)
(9.81681e-09 0 -1.68771e-08)
(1.94667e-08 0 -1.68656e-08)
(2.89275e-08 0 -1.68544e-08)
(3.83579e-08 0 -1.68514e-08)
(4.78636e-08 0 -1.68727e-08)
(5.74369e-08 0 -1.69481e-08)
(6.69272e-08 0 -1.71372e-08)
(7.59812e-08 0 -1.75602e-08)
(8.39576e-08 0 -1.8457e-08)
(8.98639e-08 0 -2.0331e-08)
(0 6.54714e-09 -1.6886e-08)
(9.6369e-09 6.482e-09 -1.6871e-08)
(1.91974e-08 6.32138e-09 -1.68425e-08)
(2.8632e-08 6.17847e-09 -1.68048e-08)
(3.80489e-08 6.09912e-09 -1.67659e-08)
(4.75589e-08 6.1012e-09 -1.67421e-08)
(5.71664e-08 6.20938e-09 -1.67594e-08)
(6.6746e-08 6.46564e-09 -1.68669e-08)
(7.59927e-08 6.93465e-09 -1.71613e-08)
(8.43535e-08 7.71764e-09 -1.78251e-08)
(9.09383e-08 8.76795e-09 -1.9233e-08)
(0 1.28861e-08 -1.68971e-08)
(9.17878e-09 1.28089e-08 -1.68648e-08)
(1.84357e-08 1.25945e-08 -1.67866e-08)
(2.77305e-08 1.23623e-08 -1.66706e-08)
(3.70869e-08 1.22179e-08 -1.65287e-08)
(4.65835e-08 1.22226e-08 -1.63767e-08)
(5.62663e-08 1.24213e-08 -1.62323e-08)
(6.60741e-08 1.28889e-08 -1.6121e-08)
(7.58017e-08 1.37318e-08 -1.60877e-08)
(8.51028e-08 1.51062e-08 -1.62025e-08)
(9.3406e-08 1.68785e-08 -1.66806e-08)
(0 1.89772e-08 -1.69126e-08)
(8.61336e-09 1.89078e-08 -1.68537e-08)
(1.73828e-08 1.87036e-08 -1.66969e-08)
(2.63409e-08 1.8453e-08 -1.64564e-08)
(3.55161e-08 1.8267e-08 -1.61538e-08)
(4.49373e-08 1.82549e-08 -1.58081e-08)
(5.46577e-08 1.84945e-08 -1.54292e-08)
(6.4698e-08 1.90678e-08 -1.50202e-08)
(7.49713e-08 2.0092e-08 -1.45803e-08)
(8.53287e-08 2.17414e-08 -1.4097e-08)
(9.55125e-08 2.38086e-08 -1.37292e-08)
(0 2.49189e-08 -1.6926e-08)
(7.97971e-09 2.48466e-08 -1.68313e-08)
(1.61706e-08 2.46372e-08 -1.65711e-08)
(2.46273e-08 2.43812e-08 -1.61695e-08)
(3.34228e-08 2.41744e-08 -1.56628e-08)
(4.26184e-08 2.41191e-08 -1.50811e-08)
(5.22559e-08 2.43169e-08 -1.44345e-08)
(6.2384e-08 2.48562e-08 -1.37124e-08)
(7.30232e-08 2.58301e-08 -1.28898e-08)
(8.41676e-08 2.7384e-08 -1.1922e-08)
(9.58897e-08 2.92655e-08 -1.09832e-08)
(0 3.0801e-08 -1.69348e-08)
(7.30765e-09 3.07114e-08 -1.67947e-08)
(1.48599e-08 3.04524e-08 -1.64061e-08)
(2.27205e-08 3.01419e-08 -1.58102e-08)
(3.09568e-08 2.98975e-08 -1.50672e-08)
(3.96859e-08 2.97949e-08 -1.42265e-08)
(4.90203e-08 2.98947e-08 -1.33092e-08)
(5.90037e-08 3.02655e-08 -1.2305e-08)
(6.96584e-08 3.09801e-08 -1.11794e-08)
(8.10649e-08 3.21173e-08 -9.88817e-09)
(9.37227e-08 3.33742e-08 -8.63759e-09)
(0 3.67127e-08 -1.69473e-08)
(6.63536e-09 3.65737e-08 -1.6749e-08)
(1.35168e-08 3.6198e-08 -1.61994e-08)
(2.07173e-08 3.57631e-08 -1.5369e-08)
(2.8284e-08 3.54372e-08 -1.43571e-08)
(3.63263e-08 3.52949e-08 -1.3245e-08)
(4.50303e-08 3.53153e-08 -1.20723e-08)
(5.45372e-08 3.54652e-08 -1.08374e-08)
(6.48153e-08 3.57808e-08 -9.50689e-09)
(7.5877e-08 3.62927e-08 -8.04784e-09)
(8.87137e-08 3.66145e-08 -6.68174e-09)
(0 4.27561e-08 -1.69984e-08)
(6.00907e-09 4.2508e-08 -1.67195e-08)
(1.22415e-08 4.18858e-08 -1.59542e-08)
(1.87488e-08 4.12201e-08 -1.48291e-08)
(2.55684e-08 4.07777e-08 -1.3505e-08)
(3.27918e-08 4.06278e-08 -1.21091e-08)
(4.05952e-08 4.0651e-08 -1.07055e-08)
(4.9221e-08 4.06602e-08 -9.29822e-09)
(5.86941e-08 4.05642e-08 -7.8647e-09)
(6.88767e-08 4.03815e-08 -6.37666e-09)
(8.10728e-08 3.966e-08 -5.03598e-09)
(0 4.90849e-08 -1.718e-08)
(5.48587e-09 4.85986e-08 -1.67763e-08)
(1.11438e-08 4.74556e-08 -1.56934e-08)
(1.69767e-08 4.63624e-08 -1.41714e-08)
(2.30007e-08 4.57941e-08 -1.24705e-08)
(2.93155e-08 4.57667e-08 -1.07729e-08)
(3.60964e-08 4.59642e-08 -9.16493e-09)
(4.35795e-08 4.59916e-08 -7.65449e-09)
(5.18698e-08 4.55876e-08 -6.22404e-09)
(6.07728e-08 4.47886e-08 -4.82704e-09)
(7.15543e-08 4.31533e-08 -3.62124e-09)
(0 5.60134e-08 -1.76992e-08)
(5.13439e-09 5.49728e-08 -1.70736e-08)
(1.03475e-08 5.27111e-08 -1.54673e-08)
(1.55811e-08 5.08407e-08 -1.33698e-08)
(2.08093e-08 5.01954e-08 -1.11965e-08)
(2.61404e-08 5.06006e-08 -9.1797e-09)
(3.18098e-08 5.13243e-08 -7.40311e-09)
(3.8095e-08 5.16062e-08 -5.86502e-09)
(4.51494e-08 5.10105e-08 -4.53414e-09)
(5.27322e-08 4.96535e-08 -3.34664e-09)
(6.15032e-08 4.73882e-08 -2.40675e-09)
(0 6.44216e-08 -1.90107e-08)
(4.91393e-09 6.20106e-08 -1.79552e-08)
(9.76216e-09 5.73708e-08 -1.54783e-08)
(1.44235e-08 5.40571e-08 -1.25813e-08)
(1.88125e-08 5.3366e-08 -9.85884e-09)
(2.30236e-08 5.46678e-08 -7.53093e-09)
(2.73535e-08 5.65447e-08 -5.62702e-09)
(3.22377e-08 5.76484e-08 -4.108e-09)
(3.80742e-08 5.7183e-08 -2.92293e-09)
(4.49131e-08 5.51361e-08 -2.0339e-09)
(5.24472e-08 5.22003e-08 -1.38006e-09)
(0 -0 -2.35962e-08)
(1.07221e-08 0 -2.37169e-08)
(2.13021e-08 0 -2.40889e-08)
(3.17373e-08 0 -2.47226e-08)
(4.22214e-08 0 -2.56493e-08)
(5.28814e-08 0 -2.69238e-08)
(6.36936e-08 0 -2.86257e-08)
(7.44314e-08 0 -3.08726e-08)
(8.45599e-08 0 -3.38456e-08)
(9.30654e-08 0 -3.78454e-08)
(9.82105e-08 0 -4.34985e-08)
(0 7.05251e-09 -2.37712e-08)
(1.0536e-08 6.99511e-09 -2.38822e-08)
(2.10308e-08 6.85937e-09 -2.42243e-08)
(3.14481e-08 6.7658e-09 -2.48116e-08)
(4.19294e-08 6.76211e-09 -2.56776e-08)
(5.26134e-08 6.87133e-09 -2.6876e-08)
(6.34954e-08 7.12579e-09 -2.84795e-08)
(7.43914e-08 7.57983e-09 -3.05897e-08)
(8.4852e-08 8.31541e-09 -3.3352e-08)
(9.40404e-08 9.45829e-09 -3.69794e-08)
(1.00515e-07 1.09463e-08 -4.18739e-08)
(0 1.39117e-08 -2.4302e-08)
(1.00635e-08 1.3856e-08 -2.43834e-08)
(2.02558e-08 1.36995e-08 -2.46385e-08)
(3.05503e-08 1.35683e-08 -2.50897e-08)
(4.10019e-08 1.35774e-08 -2.57775e-08)
(5.17239e-08 1.37973e-08 -2.67544e-08)
(6.27748e-08 1.42867e-08 -2.80789e-08)
(7.40764e-08 1.51436e-08 -2.98154e-08)
(8.53613e-08 1.65044e-08 -3.20286e-08)
(9.61767e-08 1.85643e-08 -3.47664e-08)
(1.05707e-07 2.11402e-08 -3.81955e-08)
(0 2.05518e-08 -2.51916e-08)
(9.49283e-09 2.05196e-08 -2.52266e-08)
(1.91959e-08 2.04145e-08 -2.53454e-08)
(2.9172e-08 2.03277e-08 -2.55822e-08)
(3.94849e-08 2.03789e-08 -2.59901e-08)
(5.02011e-08 2.06889e-08 -2.66255e-08)
(6.14094e-08 2.13555e-08 -2.75357e-08)
(7.316e-08 2.24906e-08 -2.87497e-08)
(8.53821e-08 2.42493e-08 -3.0262e-08)
(9.79571e-08 2.68526e-08 -3.20049e-08)
(1.10557e-07 3.00053e-08 -3.4066e-08)
(0 2.70906e-08 -2.6466e-08)
(8.86787e-09 2.70723e-08 -2.64391e-08)
(1.80036e-08 2.70113e-08 -2.63759e-08)
(2.74996e-08 2.69964e-08 -2.63292e-08)
(3.74724e-08 2.7122e-08 -2.63732e-08)
(4.8031e-08 2.74965e-08 -2.65792e-08)
(5.92689e-08 2.82444e-08 -2.69944e-08)
(7.12961e-08 2.9491e-08 -2.76284e-08)
(8.42016e-08 3.13715e-08 -2.84415e-08)
(9.80733e-08 3.408e-08 -2.93253e-08)
(1.12978e-07 3.72374e-08 -3.03874e-08)
(0 3.36287e-08 -2.81798e-08)
(8.22534e-09 3.36163e-08 -2.8073e-08)
(1.67542e-08 3.3571e-08 -2.77774e-08)
(2.56886e-08 3.35985e-08 -2.73753e-08)
(3.51392e-08 3.38001e-08 -2.69804e-08)
(4.52816e-08 3.42455e-08 -2.66928e-08)
(5.62989e-08 3.50117e-08 -2.65744e-08)
(6.83097e-08 3.62067e-08 -2.66341e-08)
(8.14235e-08 3.79551e-08 -2.68238e-08)
(9.58295e-08 4.03847e-08 -2.70427e-08)
(1.12048e-07 4.30239e-08 -2.74339e-08)
(0 4.02415e-08 -3.04203e-08)
(7.61425e-09 4.02155e-08 -3.02067e-08)
(1.55328e-08 4.01522e-08 -2.96095e-08)
(2.38635e-08 4.01935e-08 -2.87628e-08)
(3.26917e-08 4.04634e-08 -2.78445e-08)
(4.21845e-08 4.10112e-08 -2.70074e-08)
(5.26111e-08 4.18206e-08 -2.63378e-08)
(6.42052e-08 4.2894e-08 -2.58537e-08)
(7.70186e-08 4.43302e-08 -2.55131e-08)
(9.11524e-08 4.62166e-08 -2.52355e-08)
(1.07643e-07 4.79572e-08 -2.51728e-08)
(0 4.69721e-08 -3.33238e-08)
(7.09441e-09 4.6899e-08 -3.29573e-08)
(1.44667e-08 4.67539e-08 -3.19438e-08)
(2.21941e-08 4.67815e-08 -3.05196e-08)
(3.03444e-08 4.71526e-08 -2.89676e-08)
(3.90607e-08 4.78778e-08 -2.75152e-08)
(4.85987e-08 4.88298e-08 -2.6283e-08)
(5.93081e-08 4.9858e-08 -2.52929e-08)
(7.12935e-08 5.09323e-08 -2.45091e-08)
(8.44776e-08 5.21489e-08 -2.38649e-08)
(1.00223e-07 5.28307e-08 -2.34801e-08)
(0 5.38357e-08 -3.71049e-08)
(6.73884e-09 5.36407e-08 -3.64977e-08)
(1.36961e-08 5.32691e-08 -3.48583e-08)
(2.08858e-08 5.32277e-08 -3.26395e-08)
(2.83434e-08 5.38029e-08 -3.03028e-08)
(3.62153e-08 5.49058e-08 -2.81604e-08)
(4.47489e-08 5.61999e-08 -2.63553e-08)
(5.42771e-08 5.73317e-08 -2.49031e-08)
(6.49767e-08 5.81014e-08 -2.37611e-08)
(7.67091e-08 5.86616e-08 -2.28542e-08)
(9.07811e-08 5.8362e-08 -2.22425e-08)
(0 6.08614e-08 -4.21208e-08)
(6.63483e-09 6.03503e-08 -4.10828e-08)
(1.33772e-08 5.94198e-08 -3.84157e-08)
(2.0165e-08 5.92086e-08 -3.50509e-08)
(2.69775e-08 6.02047e-08 -3.17287e-08)
(3.39622e-08 6.20857e-08 -2.88295e-08)
(4.14259e-08 6.41062e-08 -2.6464e-08)
(4.97287e-08 6.55606e-08 -2.46049e-08)
(5.90765e-08 6.60874e-08 -2.31826e-08)
(6.92445e-08 6.59331e-08 -2.21113e-08)
(8.08275e-08 6.47851e-08 -2.13949e-08)
(0 6.83519e-08 -4.91131e-08)
(6.72033e-09 6.69778e-08 -4.71895e-08)
(1.33653e-08 6.47145e-08 -4.28246e-08)
(1.98037e-08 6.40246e-08 -3.78783e-08)
(2.59393e-08 6.56583e-08 -3.34022e-08)
(3.18962e-08 6.88605e-08 -2.97268e-08)
(3.80423e-08 7.22633e-08 -2.68323e-08)
(4.49016e-08 7.46079e-08 -2.45944e-08)
(5.29268e-08 7.5176e-08 -2.29001e-08)
(6.21017e-08 7.39909e-08 -2.1685e-08)
(7.19936e-08 7.17919e-08 -2.08948e-08)
(0 -0 -2.82713e-08)
(1.04981e-08 0 -2.85295e-08)
(2.09104e-08 0 -2.93051e-08)
(3.12854e-08 0 -3.0607e-08)
(4.18663e-08 0 -3.24747e-08)
(5.28357e-08 0 -3.49778e-08)
(6.4235e-08 0 -3.82085e-08)
(7.5912e-08 0 -4.22836e-08)
(8.74138e-08 0 -4.73542e-08)
(9.78135e-08 0 -5.36408e-08)
(1.05499e-07 0 -6.16501e-08)
(0 6.64357e-09 -2.86225e-08)
(1.03144e-08 6.59615e-09 -2.88688e-08)
(2.06414e-08 6.48704e-09 -2.9605e-08)
(3.09953e-08 6.4316e-09 -3.08458e-08)
(4.15684e-08 6.47911e-09 -3.26352e-08)
(5.25554e-08 6.65861e-09 -3.50413e-08)
(6.40164e-08 7.01162e-09 -3.81474e-08)
(7.58427e-08 7.60542e-09 -4.20531e-08)
(8.7668e-08 8.53937e-09 -4.68702e-08)
(9.87409e-08 9.96264e-09 -5.27225e-08)
(1.0771e-07 1.18263e-08 -5.98559e-08)
(0 1.31352e-08 -2.9673e-08)
(9.84705e-09 1.30955e-08 -2.98807e-08)
(1.98702e-08 1.29837e-08 -3.05019e-08)
(3.00924e-08 1.2922e-08 -3.15645e-08)
(4.06197e-08 1.30272e-08 -3.31225e-08)
(5.16223e-08 1.33796e-08 -3.5243e-08)
(6.32247e-08 1.40555e-08 -3.79937e-08)
(7.54255e-08 1.51777e-08 -4.14325e-08)
(8.80413e-08 1.69146e-08 -4.55812e-08)
(1.00707e-07 1.95021e-08 -5.03875e-08)
(1.12701e-07 2.27746e-08 -5.58518e-08)
(0 1.94794e-08 -3.14257e-08)
(9.2847e-09 1.94666e-08 -3.15724e-08)
(1.88197e-08 1.94172e-08 -3.20151e-08)
(2.87127e-08 1.94215e-08 -3.27992e-08)
(3.90777e-08 1.96025e-08 -3.39935e-08)
(5.00379e-08 2.00923e-08 -3.5671e-08)
(6.17494e-08 2.1012e-08 -3.78885e-08)
(7.43417e-08 2.25081e-08 -4.06654e-08)
(8.78304e-08 2.47791e-08 -4.39471e-08)
(1.02189e-07 2.80984e-08 -4.75644e-08)
(1.17206e-07 3.21952e-08 -5.14433e-08)
(0 2.58152e-08 -3.39209e-08)
(8.67765e-09 2.58202e-08 -3.39871e-08)
(1.76539e-08 2.58246e-08 -3.41916e-08)
(2.70597e-08 2.59161e-08 -3.46056e-08)
(3.70575e-08 2.61929e-08 -3.53243e-08)
(4.78123e-08 2.67761e-08 -3.6438e-08)
(5.94854e-08 2.78162e-08 -3.80063e-08)
(7.22675e-08 2.94797e-08 -4.00303e-08)
(8.63379e-08 3.19545e-08 -4.24226e-08)
(1.0188e-07 3.54949e-08 -4.49797e-08)
(1.19106e-07 3.97581e-08 -4.76531e-08)
(0 3.22664e-08 -3.72417e-08)
(8.07128e-09 3.22827e-08 -3.72042e-08)
(1.64659e-08 3.23161e-08 -3.71033e-08)
(2.53146e-08 3.24665e-08 -3.70491e-08)
(3.4767e-08 3.28339e-08 -3.71868e-08)
(4.50522e-08 3.34994e-08 -3.76426e-08)
(5.64216e-08 3.45687e-08 -3.84945e-08)
(6.90747e-08 3.6195e-08 -3.97453e-08)
(8.32123e-08 3.85625e-08 -4.13064e-08)
(9.91215e-08 4.18662e-08 -4.29926e-08)
(1.17495e-07 4.56855e-08 -4.47888e-08)
(0 3.89301e-08 -4.15094e-08)
(7.52546e-09 3.89427e-08 -4.13319e-08)
(1.53626e-08 3.89822e-08 -4.08336e-08)
(2.3635e-08 3.91736e-08 -4.01907e-08)
(3.24567e-08 3.96271e-08 -3.96284e-08)
(4.2042e-08 4.03963e-08 -3.93395e-08)
(5.2728e-08 4.14944e-08 -3.94304e-08)
(6.48328e-08 4.29745e-08 -3.99151e-08)
(7.84983e-08 4.50022e-08 -4.07184e-08)
(9.39205e-08 4.77386e-08 -4.16852e-08)
(1.12326e-07 5.06502e-08 -4.28015e-08)
(0 4.58654e-08 -4.68909e-08)
(7.11299e-09 4.58505e-08 -4.65135e-08)
(1.44973e-08 4.58557e-08 -4.54675e-08)
(2.22293e-08 4.60858e-08 -4.40598e-08)
(3.03918e-08 4.66742e-08 -4.2646e-08)
(3.91665e-08 4.76221e-08 -4.15114e-08)
(4.88735e-08 4.88298e-08 -4.08024e-08)
(5.9951e-08 5.02065e-08 -4.05372e-08)
(7.25964e-08 5.17971e-08 -4.06438e-08)
(8.68257e-08 5.37822e-08 -4.09903e-08)
(1.04181e-07 5.55506e-08 -4.15304e-08)
(0 5.30873e-08 -5.36143e-08)
(6.92136e-09 5.29901e-08 -5.29254e-08)
(1.40382e-08 5.28625e-08 -5.10627e-08)
(2.1344e-08 5.31235e-08 -4.86095e-08)
(2.88725e-08 5.39814e-08 -4.61463e-08)
(3.67977e-08 5.53183e-08 -4.40593e-08)
(4.54275e-08 5.6824e-08 -4.25162e-08)
(5.51842e-08 5.82155e-08 -4.15214e-08)
(6.63434e-08 5.93817e-08 -4.09865e-08)
(7.88691e-08 6.05792e-08 -4.07852e-08)
(9.42067e-08 6.1213e-08 -4.08192e-08)
(0 6.05922e-08 -6.20194e-08)
(7.05394e-09 6.026e-08 -6.07811e-08)
(1.41717e-08 5.9758e-08 -5.76007e-08)
(2.12485e-08 6.00321e-08 -5.36664e-08)
(2.82414e-08 6.14244e-08 -4.99057e-08)
(3.53133e-08 6.35641e-08 -4.67805e-08)
(4.28283e-08 6.57412e-08 -4.44063e-08)
(5.12389e-08 6.73384e-08 -4.27211e-08)
(6.08586e-08 6.81039e-08 -4.16021e-08)
(7.15697e-08 6.84016e-08 -4.09211e-08)
(8.40371e-08 6.79452e-08 -4.05462e-08)
(0 6.85905e-08 -7.28472e-08)
(7.4503e-09 6.75498e-08 -7.04751e-08)
(1.47529e-08 6.60558e-08 -6.51577e-08)
(2.172e-08 6.61542e-08 -5.9216e-08)
(2.82103e-08 6.83607e-08 -5.39557e-08)
(3.43441e-08 7.18684e-08 -4.97678e-08)
(4.05371e-08 7.53669e-08 -4.65941e-08)
(4.74056e-08 7.77091e-08 -4.42409e-08)
(5.55185e-08 7.83082e-08 -4.253e-08)
(6.49582e-08 7.72941e-08 -4.13472e-08)
(7.53608e-08 7.54725e-08 -4.06212e-08)
(0 -0 -2.88742e-08)
(9.00611e-09 0 -2.92492e-08)
(1.8004e-08 0 -3.03693e-08)
(2.71023e-08 0 -3.2239e-08)
(3.65844e-08 0 -3.49008e-08)
(4.66991e-08 0 -3.84345e-08)
(5.75985e-08 0 -4.29417e-08)
(6.93045e-08 0 -4.85422e-08)
(8.16314e-08 0 -5.53722e-08)
(9.40684e-08 0 -6.36066e-08)
(1.05748e-07 0 -7.36928e-08)
(0 5.23297e-09 -2.93611e-08)
(8.83219e-09 5.19436e-09 -2.97239e-08)
(1.77392e-08 5.10618e-09 -3.08016e-08)
(2.6799e-08 5.0644e-09 -3.26059e-08)
(3.62492e-08 5.11689e-09 -3.51848e-08)
(4.63466e-08 5.29953e-09 -3.86165e-08)
(5.72552e-08 5.66308e-09 -4.29927e-08)
(6.90255e-08 6.28545e-09 -4.84163e-08)
(8.15261e-08 7.2789e-09 -5.49828e-08)
(9.43431e-08 8.80789e-09 -6.27678e-08)
(1.06661e-07 1.08668e-08 -7.19247e-08)
(0 1.03774e-08 -3.08129e-08)
(8.38522e-09 1.03419e-08 -3.11342e-08)
(1.698e-08 1.0244e-08 -3.20876e-08)
(2.58655e-08 1.01897e-08 -3.37009e-08)
(3.52004e-08 1.02888e-08 -3.60337e-08)
(4.52129e-08 1.06293e-08 -3.91627e-08)
(5.61126e-08 1.13058e-08 -4.31643e-08)
(6.8022e-08 1.24612e-08 -4.80981e-08)
(8.09219e-08 1.42895e-08 -5.39671e-08)
(9.46328e-08 1.70566e-08 -6.06685e-08)
(1.08725e-07 2.06897e-08 -6.80948e-08)
(0 1.54707e-08 -3.32284e-08)
(7.83645e-09 1.54504e-08 -3.34843e-08)
(1.59344e-08 1.53845e-08 -3.42459e-08)
(2.44404e-08 1.53578e-08 -3.55625e-08)
(3.35138e-08 1.5492e-08 -3.7509e-08)
(4.33333e-08 1.59255e-08 -4.0168e-08)
(5.41223e-08 1.68001e-08 -4.36054e-08)
(6.60961e-08 1.82927e-08 -4.78422e-08)
(7.93695e-08 2.06383e-08 -5.28033e-08)
(9.39915e-08 2.41507e-08 -5.82724e-08)
(1.09948e-07 2.87149e-08 -6.40518e-08)
(0 2.06631e-08 -3.66524e-08)
(7.24184e-09 2.06468e-08 -3.68225e-08)