/*--------------------------------*- C++ -*----------------------------------*\
| =========                 |                                                 |
| \\      /  F ield         | foam-extend: Open Source CFD                    |
|  \\    /   O peration     | Version:     3.1                                |
|   \\  /    A nd           | Web:         http://www.extend-project.de       |
|    \\/     M anipulation  |                                                 |
\*---------------------------------------------------------------------------*/
FoamFile
{
    version     2.0;
    format      ascii;
    class       volScalarField::DimensionedInternalField;
    location    "0.0016";
    object      V0;
}
// * * * * * * * * * * * * * * * * * * * * * * * * * * * * * * * * * * * * * //

dimensions      [0 3 0 0 0 0 0];

value           nonuniform List<scalar> 
16000
(
7.23051e-11
7.10399e-11
6.97742e-11
6.85166e-11
6.72685e-11
6.60298e-11
6.48008e-11
6.35817e-11
6.23729e-11
6.11736e-11
7.10387e-11
6.97798e-11
6.85202e-11
6.72646e-11
6.60167e-11
6.47777e-11
6.35479e-11
6.23274e-11
6.11161e-11
5.99112e-11
6.97732e-11
6.85191e-11
6.72659e-11
6.60145e-11
6.47675e-11
6.3528e-11
6.22971e-11
6.10745e-11
5.98601e-11
5.8651e-11
6.85163e-11
6.72637e-11
6.60135e-11
6.47657e-11
6.35205e-11
6.22801e-11
6.10471e-11
5.98218e-11
5.86042e-11
5.73917e-11
6.72685e-11
6.60166e-11
6.47668e-11
6.35196e-11
6.22756e-11
6.10351e-11
5.97995e-11
5.85705e-11
5.73491e-11
5.61337e-11
6.60299e-11
6.47778e-11
6.35279e-11
6.22795e-11
6.10342e-11
5.97932e-11
5.85558e-11
5.73225e-11
5.6096e-11
5.48773e-11
6.4801e-11
6.35481e-11
6.22973e-11
6.1047e-11
5.97987e-11
5.85544e-11
5.73147e-11
5.60779e-11
5.48451e-11
5.36219e-11
6.3582e-11
6.23277e-11
6.10747e-11
5.9822e-11
5.85703e-11
5.73211e-11
5.60764e-11
5.48344e-11
5.35949e-11
5.2366e-11
6.23732e-11
6.11164e-11
5.98604e-11
5.86043e-11
5.73492e-11
5.60956e-11
5.48442e-11
5.35943e-11
5.23458e-11
5.11067e-11
6.11739e-11
5.99114e-11
5.86512e-11
5.73918e-11
5.61338e-11
5.48773e-11
5.36218e-11
5.23656e-11
5.11062e-11
4.98499e-11
7.33026e-11
7.1996e-11
7.06699e-11
6.93499e-11
6.80407e-11
6.67408e-11
6.5449e-11
6.41642e-11
6.28846e-11
6.16045e-11
7.19928e-11
7.07058e-11
6.93991e-11
6.80875e-11
6.67814e-11
6.54837e-11
6.41935e-11
6.29092e-11
6.16283e-11
6.03409e-11
7.0667e-11
6.93959e-11
6.81109e-11
6.68147e-11
6.5515e-11
6.422e-11
6.29316e-11
6.16471e-11
6.03649e-11
5.90756e-11
6.93494e-11
6.80851e-11
6.68119e-11
6.553e-11
6.42402e-11
6.29479e-11
6.16591e-11
6.03736e-11
5.90899e-11
5.7801e-11
6.8041e-11
6.67811e-11
6.55129e-11
6.42376e-11
6.29565e-11
6.16699e-11
6.038e-11
5.90908e-11
5.78043e-11
5.6517e-11
6.67412e-11
6.5484e-11
6.42197e-11
6.29461e-11
6.16673e-11
6.03855e-11
5.90977e-11
5.78038e-11
5.65105e-11
5.52234e-11
6.54496e-11
6.4194e-11
6.2932e-11
6.1659e-11
6.03777e-11
5.90936e-11
5.78071e-11
5.65112e-11
5.52083e-11
5.39187e-11
6.41649e-11
6.29098e-11
6.16477e-11
6.03741e-11
5.90905e-11
5.78e-11
5.65068e-11
5.52054e-11
5.38939e-11
5.25997e-11
6.28853e-11
6.1629e-11
6.03655e-11
5.90904e-11
5.78048e-11
5.65096e-11
5.5206e-11
5.38922e-11
5.25679e-11
5.12599e-11
6.16052e-11
6.03415e-11
5.90762e-11
5.78014e-11
5.65173e-11
5.52237e-11
5.39188e-11
5.2599e-11
5.12587e-11
4.9922e-11
7.41797e-11
7.28344e-11
7.14507e-11
7.00712e-11
6.87032e-11
6.73444e-11
6.5993e-11
6.46471e-11
6.33043e-11
6.19563e-11
7.28291e-11
7.1516e-11
7.01646e-11
6.87994e-11
6.74375e-11
6.60836e-11
6.47362e-11
6.3393e-11
6.20504e-11
6.06928e-11
7.14461e-11
7.01595e-11
6.88444e-11
6.75053e-11
6.61552e-11
6.48075e-11
6.3465e-11
6.21239e-11
6.07817e-11
5.94242e-11
7.00704e-11
6.87956e-11
6.75008e-11
6.61865e-11
6.48543e-11
6.35131e-11
6.21725e-11
6.08324e-11
5.94909e-11
5.81373e-11
6.87037e-11
6.74371e-11
6.6152e-11
6.48502e-11
6.35344e-11
6.22047e-11
6.08651e-11
5.95221e-11
5.81795e-11
5.68318e-11
6.73451e-11
6.60842e-11
6.48071e-11
6.35102e-11
6.22005e-11
6.08816e-11
5.95483e-11
5.8201e-11
5.68508e-11
5.55072e-11
6.59939e-11
6.47371e-11
6.34658e-11
6.21723e-11
6.08614e-11
5.95416e-11
5.82139e-11
5.68669e-11
5.5505e-11
5.4161e-11
6.46483e-11
6.33941e-11
6.21248e-11
6.08332e-11
5.95216e-11
5.81948e-11
5.68598e-11
5.55074e-11
5.41354e-11
5.27881e-11
6.33056e-11
6.20515e-11
6.07827e-11
5.94918e-11
5.81803e-11
5.68495e-11
5.55015e-11
5.41329e-11
5.27437e-11
5.13769e-11
6.19575e-11
6.06938e-11
5.94251e-11
5.81382e-11
5.68325e-11
5.55079e-11
5.41615e-11
5.27871e-11
5.1375e-11
4.9964e-11
7.49117e-11
7.35329e-11
7.20995e-11
7.06687e-11
6.92509e-11
6.78436e-11
6.64452e-11
6.5054e-11
6.36681e-11
6.22785e-11
7.35259e-11
7.21904e-11
7.08007e-11
6.93895e-11
6.79806e-11
6.65807e-11
6.51885e-11
6.38018e-11
6.24171e-11
6.10151e-11
7.20935e-11
7.07939e-11
6.94532e-11
6.80778e-11
6.66857e-11
6.52952e-11
6.39109e-11
6.25282e-11
6.11454e-11
5.97442e-11
7.06678e-11
6.93846e-11
6.80719e-11
6.67309e-11
6.53639e-11
6.39835e-11
6.26031e-11
6.12235e-11
5.98432e-11
5.84485e-11
6.92518e-11
6.79803e-11
6.66815e-11
6.53584e-11
6.40149e-11
6.26516e-11
6.12743e-11
5.98927e-11
5.85129e-11
5.71274e-11
6.78447e-11
6.65817e-11
6.52948e-11
6.39797e-11
6.2646e-11
6.12988e-11
5.99322e-11
5.85469e-11
5.71591e-11
5.57806e-11
6.64465e-11
6.51898e-11
6.3912e-11
6.2603e-11
6.12694e-11
5.99231e-11
5.8566e-11
5.71833e-11
5.57818e-11
5.44046e-11
6.50556e-11
6.38034e-11
6.25296e-11
6.12248e-11
5.98921e-11
5.85386e-11
5.71738e-11
5.57858e-11
5.43726e-11
5.29922e-11
6.36699e-11
6.24188e-11
6.11469e-11
5.98446e-11
5.85142e-11
5.71575e-11
5.57774e-11
5.43693e-11
5.29337e-11
5.15262e-11
6.22803e-11
6.10167e-11
5.97457e-11
5.84498e-11
5.71286e-11
5.57817e-11
5.44055e-11
5.2991e-11
5.15236e-11
5.00545e-11
7.54777e-11
7.40726e-11
7.25999e-11
7.11292e-11
6.96734e-11
6.82301e-11
6.67982e-11
6.53767e-11
6.39644e-11
6.25515e-11
7.40642e-11
7.27114e-11
7.12915e-11
6.98446e-11
6.83999e-11
6.6966e-11
6.55422e-11
6.41266e-11
6.2716e-11
6.12878e-11
7.25928e-11
7.12834e-11
6.99229e-11
6.85197e-11
6.70958e-11
6.56741e-11
6.42604e-11
6.28503e-11
6.14424e-11
6.00154e-11
7.11282e-11
6.98389e-11
6.85127e-11
6.71515e-11
6.57588e-11
6.435e-11
6.2942e-11
6.15366e-11
6.01325e-11
5.87133e-11
6.96745e-11
6.83997e-11
6.7091e-11
6.57522e-11
6.43886e-11
6.30015e-11
6.15983e-11
6.01915e-11
5.8789e-11
5.73813e-11
6.82316e-11
6.69674e-11
6.56737e-11
6.43455e-11
6.29948e-11
6.16283e-11
6.02392e-11
5.88291e-11
5.74178e-11
5.60189e-11
6.68001e-11
6.55439e-11
6.42619e-11
6.2942e-11
6.15926e-11
6.02283e-11
5.88519e-11
5.74459e-11
5.6019e-11
5.46219e-11
6.53789e-11
6.41287e-11
6.28521e-11
6.15382e-11
6.01909e-11
5.8819e-11
5.74345e-11
5.60229e-11
5.45822e-11
5.31813e-11
6.39668e-11
6.27183e-11
6.14445e-11
6.01343e-11
5.87907e-11
5.7416e-11
5.60138e-11
5.45784e-11
5.31106e-11
5.16754e-11
6.25538e-11
6.129e-11
6.00173e-11
5.87151e-11
5.7383e-11
5.60205e-11
5.46232e-11
5.318e-11
5.16723e-11
5.01608e-11
7.58612e-11
7.44378e-11
7.29376e-11
7.14387e-11
6.99565e-11
6.84886e-11
6.70344e-11
6.55933e-11
6.41647e-11
6.27379e-11
7.44285e-11
7.30638e-11
7.16224e-11
7.01503e-11
6.86808e-11
6.72236e-11
6.57787e-11
6.43445e-11
6.29178e-11
6.1474e-11
7.29298e-11
7.16136e-11
7.0239e-11
6.88162e-11
6.73703e-11
6.59272e-11
6.44941e-11
6.30664e-11
6.1643e-11
6.02005e-11
7.14379e-11
7.01441e-11
6.88084e-11
6.74332e-11
6.60227e-11
6.45948e-11
6.31686e-11
6.17467e-11
6.03279e-11
5.88943e-11
6.9958e-11
6.86807e-11
6.7365e-11
6.60155e-11
6.46383e-11
6.32353e-11
6.18153e-11
6.03924e-11
5.89759e-11
5.75551e-11
6.84904e-11
6.72253e-11
6.5927e-11
6.459e-11
6.32279e-11
6.18487e-11
6.04451e-11
5.90193e-11
5.75935e-11
5.61827e-11
6.70366e-11
6.57808e-11
6.44959e-11
6.31688e-11
6.1809e-11
6.0433e-11
5.90444e-11
5.76238e-11
5.6181e-11
5.47723e-11
6.5596e-11
6.4347e-11
6.30686e-11
6.17486e-11
6.03918e-11
5.90082e-11
5.76111e-11
5.61847e-11
5.47269e-11
5.33138e-11
6.41676e-11
6.29206e-11
6.16455e-11
6.03301e-11
5.89779e-11
5.75915e-11
5.61753e-11
5.47227e-11
5.32346e-11
5.1783e-11
6.27407e-11
6.14767e-11
6.02029e-11
5.88965e-11
5.75572e-11
5.61846e-11
5.47739e-11
5.33125e-11
5.17797e-11
5.02426e-11
7.60537e-11
7.46202e-11
7.31041e-11
7.15885e-11
7.00903e-11
6.86073e-11
6.71392e-11
6.56861e-11
6.42474e-11
6.28123e-11
7.46106e-11
7.32391e-11
7.17848e-11
7.02974e-11
6.88127e-11
6.73412e-11
6.58831e-11
6.44373e-11
6.30008e-11
6.15483e-11
7.30962e-11
7.17758e-11
7.03922e-11
6.89572e-11
6.74979e-11
6.60417e-11
6.45964e-11
6.31577e-11
6.17251e-11
6.02741e-11
7.15878e-11
7.02911e-11
6.89491e-11
6.7565e-11
6.61436e-11
6.47039e-11
6.32666e-11
6.18346e-11
6.04071e-11
5.89659e-11
7.00919e-11
6.88127e-11
6.74924e-11
6.6136e-11
6.47503e-11
6.33376e-11
6.19075e-11
6.04753e-11
5.90506e-11
5.76234e-11
6.86094e-11
6.73432e-11
6.60415e-11
6.46989e-11
6.33299e-11
6.19431e-11
6.0531e-11
5.90964e-11
5.76626e-11
5.62464e-11
6.71418e-11
6.58855e-11
6.45984e-11
6.32669e-11
6.1901e-11
6.05184e-11
5.91229e-11
5.76945e-11
5.62437e-11
5.48302e-11
6.56891e-11
6.44402e-11
6.31603e-11
6.18368e-11
6.04747e-11
5.90848e-11
5.76812e-11
5.62477e-11
5.47821e-11
5.33646e-11
6.42506e-11
6.30039e-11
6.17278e-11
6.04096e-11
5.90528e-11
5.76607e-11
5.62377e-11
5.47777e-11
5.32815e-11
5.1825e-11
6.28154e-11
6.15512e-11
6.02768e-11
5.89684e-11
5.76257e-11
5.62485e-11
5.48319e-11
5.33634e-11
5.18215e-11
5.02767e-11
7.60585e-11
7.46228e-11
7.31019e-11
7.15801e-11
7.0075e-11
6.85849e-11
6.71099e-11
6.56504e-11
6.42064e-11
6.27673e-11
7.46133e-11
7.324e-11
7.17807e-11
7.0287e-11
6.87958e-11
6.73174e-11
6.58525e-11
6.44005e-11
6.29589e-11
6.15033e-11
7.30942e-11
7.17721e-11
7.0384e-11
6.89433e-11
6.74781e-11
6.60155e-11
6.4564e-11
6.31197e-11
6.16824e-11
6.02292e-11
7.15794e-11
7.02809e-11
6.89354e-11
6.75466e-11
6.612e-11
6.46749e-11
6.32321e-11
6.17952e-11
6.03637e-11
5.89212e-11
7.00767e-11
6.87957e-11
6.74726e-11
6.61125e-11
6.47225e-11
6.33052e-11
6.18707e-11
6.04345e-11
5.90067e-11
5.7579e-11
6.8587e-11
6.73194e-11
6.60154e-11
6.46699e-11
6.32976e-11
6.19072e-11
6.04918e-11
5.90543e-11
5.76185e-11
5.6203e-11
6.71125e-11
6.58549e-11
6.45661e-11
6.32325e-11
6.18643e-11
6.04793e-11
5.90815e-11
5.76516e-11
5.62003e-11
5.47887e-11
6.56535e-11
6.44034e-11
6.31222e-11
6.17974e-11
6.0434e-11
5.90429e-11
5.76385e-11
5.62051e-11
5.47408e-11
5.33267e-11
6.42097e-11
6.2962e-11
6.16852e-11
6.03663e-11
5.9009e-11
5.76167e-11
5.61944e-11
5.47364e-11
5.3244e-11
5.17939e-11
6.27705e-11
6.15063e-11
6.0232e-11
5.89238e-11
5.75815e-11
5.62051e-11
5.47904e-11
5.33255e-11
5.17905e-11
5.02553e-11
7.58933e-11
7.44622e-11
7.29463e-11
7.14276e-11
6.99238e-11
6.84336e-11
6.69576e-11
6.54966e-11
6.40515e-11
6.26125e-11
7.44532e-11
7.30821e-11
7.16251e-11
7.01333e-11
6.8643e-11
6.71642e-11
6.5698e-11
6.42445e-11
6.28021e-11
6.13488e-11
7.29391e-11
7.16171e-11
7.02289e-11
6.87885e-11
6.73238e-11
6.58608e-11
6.44081e-11
6.29626e-11
6.15251e-11
6.00753e-11
7.1427e-11
7.01276e-11
6.8781e-11
6.73914e-11
6.59646e-11
6.45194e-11
6.30761e-11
6.16388e-11
6.02078e-11
5.87695e-11
6.99254e-11
6.86429e-11
6.73185e-11
6.59574e-11
6.45668e-11
6.31494e-11
6.17154e-11
6.02802e-11
5.88538e-11
5.74312e-11
6.84356e-11
6.71661e-11
6.58607e-11
6.45146e-11
6.31421e-11
6.17519e-11
6.03376e-11
5.89027e-11
5.74703e-11
5.60611e-11
6.696e-11
6.57003e-11
6.441e-11
6.30764e-11
6.17093e-11
6.03259e-11
5.893e-11
5.75041e-11
5.60592e-11
5.46556e-11
6.54995e-11
6.42472e-11
6.29651e-11
6.16409e-11
6.02798e-11
5.88921e-11
5.74919e-11
5.60653e-11
5.46106e-11
5.3207e-11
6.40545e-11
6.2805e-11
6.15277e-11
6.02102e-11
5.8856e-11
5.74687e-11
5.60535e-11
5.46064e-11
5.31286e-11
5.1695e-11
6.26155e-11
6.13516e-11
6.00779e-11
5.87719e-11
5.74335e-11
5.60631e-11
5.46571e-11
5.32057e-11
5.16919e-11
5.01818e-11
7.5589e-11
7.4168e-11
7.26656e-11
7.11579e-11
6.96622e-11
6.81779e-11
6.67061e-11
6.52483e-11
6.38059e-11
6.2371e-11
7.41598e-11
7.2794e-11
7.13457e-11
6.9863e-11
6.83801e-11
6.69066e-11
6.5444e-11
6.39933e-11
6.2554e-11
6.11078e-11
7.26589e-11
7.13385e-11
6.99539e-11
6.85192e-11
6.70606e-11
6.56024e-11
6.41531e-11
6.27107e-11
6.12768e-11
5.98355e-11
7.11573e-11
6.98578e-11
6.85123e-11
6.71253e-11
6.57027e-11
6.42621e-11
6.28229e-11
6.13893e-11
5.99626e-11
5.85335e-11
6.96635e-11
6.83799e-11
6.70557e-11
6.56961e-11
6.4308e-11
6.28946e-11
6.14655e-11
6.00356e-11
5.86147e-11
5.72019e-11
6.81796e-11
6.69081e-11
6.56022e-11
6.42577e-11
6.2888e-11
6.1501e-11
6.00918e-11
5.86643e-11
5.724e-11
5.58417e-11
6.67081e-11
6.5446e-11
6.41547e-11
6.2823e-11
6.146e-11
6.00813e-11
5.8691e-11
5.7274e-11
5.58412e-11
5.44507e-11
6.52508e-11
6.39957e-11
6.27128e-11
6.13911e-11
6.00352e-11
5.86548e-11
5.72631e-11
5.58487e-11
5.44105e-11
5.30229e-11
6.38086e-11
6.25565e-11
6.12791e-11
5.99647e-11
5.86167e-11
5.72385e-11
5.5836e-11
5.44066e-11
5.29519e-11
5.15428e-11
6.23736e-11
6.11103e-11
5.98377e-11
5.85356e-11
5.72039e-11
5.58433e-11
5.44517e-11
5.30216e-11
5.154e-11
5.00672e-11
7.51864e-11
7.37796e-11
7.22969e-11
7.08067e-11
6.93249e-11
6.78517e-11
6.63889e-11
6.49385e-11
6.35029e-11
6.20756e-11
7.37723e-11
7.24143e-11
7.09798e-11
6.95121e-11
6.80419e-11
6.65786e-11
6.51243e-11
6.36806e-11
6.22482e-11
6.08132e-11
7.22909e-11
7.09733e-11
6.95958e-11
6.81712e-11
6.67235e-11
6.52748e-11
6.3833e-11
6.23977e-11
6.09713e-11
5.95424e-11
7.08059e-11
6.95073e-11
6.81651e-11
6.67838e-11
6.53692e-11
6.39375e-11
6.25062e-11
6.10802e-11
5.96616e-11
5.82455e-11
6.93258e-11
6.80416e-11
6.67191e-11
6.53634e-11
6.39808e-11
6.25748e-11
6.11546e-11
5.97338e-11
5.8322e-11
5.69225e-11
6.7853e-11
6.65798e-11
6.52744e-11
6.39335e-11
6.2569e-11
6.11883e-11
5.97877e-11
5.83713e-11
5.69589e-11
5.55749e-11
6.63905e-11
6.51258e-11
6.38343e-11
6.25063e-11
6.11497e-11
5.97787e-11
5.83969e-11
5.69926e-11
5.5576e-11
5.42019e-11
6.49405e-11
6.36824e-11
6.23994e-11
6.10817e-11
5.97334e-11
5.83633e-11
5.69833e-11
5.55849e-11
5.41677e-11
5.27997e-11
6.3505e-11
6.22501e-11
6.09731e-11
5.96633e-11
5.83236e-11
5.69577e-11
5.55713e-11
5.41642e-11
5.27382e-11
5.13582e-11
6.20776e-11
6.08151e-11
5.95442e-11
5.82471e-11
5.6924e-11
5.55761e-11
5.42025e-11
5.27985e-11
5.13559e-11
4.99275e-11
7.47311e-11
7.3341e-11
7.18822e-11
7.04139e-11
6.89506e-11
6.74932e-11
6.60438e-11
6.46052e-11
6.31801e-11
6.17641e-11
7.33346e-11
7.19863e-11
7.05692e-11
6.91206e-11
6.76676e-11
6.6219e-11
6.47772e-11
6.33445e-11
6.19229e-11
6.05026e-11
7.18769e-11
7.05635e-11
6.91956e-11
6.77847e-11
6.63518e-11
6.49166e-11
6.34866e-11
6.20622e-11
6.06468e-11
5.92337e-11
7.04131e-11
6.91164e-11
6.77794e-11
6.64065e-11
6.50033e-11
6.35842e-11
6.21647e-11
6.07499e-11
5.93427e-11
5.79424e-11
6.89511e-11
6.76671e-11
6.6348e-11
6.49983e-11
6.36241e-11
6.22287e-11
6.08207e-11
5.94124e-11
5.80129e-11
5.66291e-11
6.7494e-11
6.62197e-11
6.49162e-11
6.35808e-11
6.22238e-11
6.0852e-11
5.94628e-11
5.80608e-11
5.66632e-11
5.52955e-11
6.60449e-11
6.47782e-11
6.34874e-11
6.21646e-11
6.08166e-11
5.94555e-11
5.80847e-11
5.66957e-11
5.5298e-11
5.39419e-11
6.46066e-11
6.33459e-11
6.20634e-11
6.0751e-11
5.9412e-11
5.80543e-11
5.66881e-11
5.53081e-11
5.39142e-11
5.2567e-11
6.31816e-11
6.19243e-11
6.06481e-11
5.93439e-11
5.8014e-11
5.66621e-11
5.5294e-11
5.39111e-11
5.25156e-11
5.11656e-11
6.17656e-11
6.0504e-11
5.92349e-11
5.79435e-11
5.66301e-11
5.52961e-11
5.3942e-11
5.25658e-11
5.11637e-11
4.97809e-11
7.42667e-11
7.28945e-11
7.14618e-11
7.00183e-11
6.85767e-11
6.71388e-11
6.57069e-11
6.42841e-11
6.28736e-11
6.14724e-11
7.28891e-11
7.15516e-11
7.01539e-11
6.87273e-11
6.72947e-11
6.58644e-11
6.44391e-11
6.30216e-11
6.16145e-11
6.0212e-11
7.14571e-11
7.0149e-11
6.87927e-11
6.73981e-11
6.59832e-11
6.4565e-11
6.31504e-11
6.17408e-11
6.034e-11
5.89451e-11
7.00174e-11
6.87236e-11
6.73936e-11
6.60314e-11
6.46425e-11
6.32391e-11
6.18349e-11
6.04347e-11
5.90421e-11
5.76597e-11
6.8577e-11
6.72941e-11
6.59799e-11
6.46384e-11
6.3275e-11
6.1893e-11
6.05002e-11
5.91074e-11
5.77228e-11
5.63563e-11
6.71392e-11
6.58648e-11
6.45644e-11
6.32362e-11
6.1889e-11
6.05284e-11
5.91532e-11
5.77679e-11
5.63874e-11
5.50365e-11
6.57076e-11
6.44397e-11
6.31509e-11
6.18346e-11
6.04968e-11
5.91474e-11
5.77896e-11
5.64177e-11
5.50402e-11
5.3702e-11
6.42849e-11
6.30224e-11
6.17416e-11
6.04355e-11
5.9107e-11
5.77629e-11
5.64117e-11
5.50508e-11
5.36804e-11
5.2353e-11
6.28745e-11
6.16154e-11
6.03408e-11
5.90429e-11
5.77236e-11
5.63864e-11
5.50368e-11
5.36778e-11
5.23114e-11
5.09884e-11
6.14734e-11
6.02128e-11
5.89459e-11
5.76604e-11
5.63568e-11
5.50368e-11
5.37017e-11
5.23518e-11
5.0987e-11
4.96444e-11
7.38294e-11
7.24749e-11
7.10685e-11
6.9651e-11
6.82332e-11
6.68175e-11
6.54063e-11
6.40029e-11
6.26106e-11
6.12275e-11
7.24705e-11
7.11443e-11
6.97667e-11
6.83634e-11
6.69533e-11
6.55441e-11
6.41386e-11
6.27398e-11
6.13507e-11
5.99682e-11
7.10646e-11
6.97626e-11
6.84191e-11
6.70423e-11
6.56475e-11
6.4249e-11
6.28529e-11
6.14615e-11
6.00785e-11
5.87035e-11
6.965e-11
6.83602e-11
6.70387e-11
6.56891e-11
6.43164e-11
6.29312e-11
6.1545e-11
6.01625e-11
5.87872e-11
5.74239e-11
6.82333e-11
6.69527e-11
6.56447e-11
6.43131e-11
6.29625e-11
6.15961e-11
6.02208e-11
5.88459e-11
5.74786e-11
5.61297e-11
6.68177e-11
6.55443e-11
6.42484e-11
6.29288e-11
6.15929e-11
6.02455e-11
5.88861e-11
5.75192e-11
5.6157e-11
5.48229e-11
6.54067e-11
6.41389e-11
6.28532e-11
6.15446e-11
6.02181e-11
5.88816e-11
5.75382e-11
5.61841e-11
5.48271e-11
5.35053e-11
6.40034e-11
6.27402e-11
6.14619e-11
6.01629e-11
5.88455e-11
5.75153e-11
5.61796e-11
5.48372e-11
5.34889e-11
5.21785e-11
6.26111e-11
6.13512e-11
6.00789e-11
5.87876e-11
5.74791e-11
5.61562e-11
5.48243e-11
5.34867e-11
5.21457e-11
5.08437e-11
6.1228e-11
5.99687e-11
5.87038e-11
5.74241e-11
5.61299e-11
5.48228e-11
5.35048e-11
5.21774e-11
5.08426e-11
4.95303e-11
7.34436e-11
7.21058e-11
7.07243e-11
6.93323e-11
6.7939e-11
6.65469e-11
6.51584e-11
6.37767e-11
6.2405e-11
6.10423e-11
7.21022e-11
7.07872e-11
6.94292e-11
6.8049e-11
6.66622e-11
6.52755e-11
6.38918e-11
6.25142e-11
6.11454e-11
5.97841e-11
7.0721e-11
6.94257e-11
6.80955e-11
6.67371e-11
6.53631e-11
6.39857e-11
6.26103e-11
6.12392e-11
5.9876e-11
5.85215e-11
6.93314e-11
6.80462e-11
6.67341e-11
6.53981e-11
6.40428e-11
6.26771e-11
6.13105e-11
5.99475e-11
5.85913e-11
5.72471e-11
6.79389e-11
6.66615e-11
6.53609e-11
6.40402e-11
6.27036e-11
6.1354e-11
5.99974e-11
5.86416e-11
5.72928e-11
5.59612e-11
6.65469e-11
6.52755e-11
6.39851e-11
6.26751e-11
6.13515e-11
6.00183e-11
5.86757e-11
5.73276e-11
5.59842e-11
5.46655e-11
6.51585e-11
6.38919e-11
6.26104e-11
6.13101e-11
5.99952e-11
5.86722e-11
5.73436e-11
5.60073e-11
5.46696e-11
5.33621e-11
6.37769e-11
6.25143e-11
6.12394e-11
5.99477e-11
5.86412e-11
5.73246e-11
5.60037e-11
5.46785e-11
5.33496e-11
5.20525e-11
6.24052e-11
6.11456e-11
5.98761e-11
5.85915e-11
5.72931e-11
5.59836e-11
5.46673e-11
5.33478e-11
5.20269e-11
5.07389e-11
6.10425e-11
5.97842e-11
5.85216e-11
5.72471e-11
5.59612e-11
5.46653e-11
5.33615e-11
5.20515e-11
5.07381e-11
4.94443e-11
7.31206e-11
7.17978e-11
7.04388e-11
6.90706e-11
6.77009e-11
6.6332e-11
6.49665e-11
6.36071e-11
6.22567e-11
6.09146e-11
7.17949e-11
7.04904e-11
6.91504e-11
6.77919e-11
6.64276e-11
6.50634e-11
6.37019e-11
6.2346e-11
6.09981e-11
5.96575e-11
7.04361e-11
6.91476e-11
6.78301e-11
6.64895e-11
6.51359e-11
6.37795e-11
6.24251e-11
6.10748e-11
5.97318e-11
5.83969e-11
6.90698e-11
6.77896e-11
6.6487e-11
6.51648e-11
6.38267e-11
6.24803e-11
6.11335e-11
5.97902e-11
5.84533e-11
5.71269e-11
6.77007e-11
6.6427e-11
6.5134e-11
6.38245e-11
6.25021e-11
6.11693e-11
5.98312e-11
5.84944e-11
5.71639e-11
5.58479e-11
6.63319e-11
6.50633e-11
6.3779e-11
6.24787e-11
6.11673e-11
5.98483e-11
5.85222e-11
5.71922e-11
5.58666e-11
5.45614e-11
6.49664e-11
6.37019e-11
6.24251e-11
6.11332e-11
5.98295e-11
5.85194e-11
5.72051e-11
5.58851e-11
5.45647e-11
5.32688e-11
6.36071e-11
6.2346e-11
6.10748e-11
5.97903e-11
5.8494e-11
5.71898e-11
5.58823e-11
5.45718e-11
5.32589e-11
5.19715e-11
6.22567e-11
6.09982e-11
5.97318e-11
5.84533e-11
5.7164e-11
5.5866e-11
5.45629e-11
5.32575e-11
5.19513e-11
5.06711e-11
6.09146e-11
5.96575e-11
5.83968e-11
5.71268e-11
5.58478e-11
5.45611e-11
5.32683e-11
5.19707e-11
5.06704e-11
4.93852e-11
7.28602e-11
7.15503e-11
7.02107e-11
6.88635e-11
6.75152e-11
6.61679e-11
6.48237e-11
6.34852e-11
6.21547e-11
6.08316e-11
7.15479e-11
7.02528e-11
6.89287e-11
6.75895e-11
6.62457e-11
6.49023e-11
6.35616e-11
6.22259e-11
6.08976e-11
5.95754e-11
7.02085e-11
6.89264e-11
6.76207e-11
6.62961e-11
6.49611e-11
6.36243e-11
6.22894e-11
6.09585e-11
5.96341e-11
5.83165e-11
6.88629e-11
6.75876e-11
6.62941e-11
6.49846e-11
6.36624e-11
6.23339e-11
6.10055e-11
5.96804e-11
5.8361e-11
5.70501e-11
6.7515e-11
6.62452e-11
6.49596e-11
6.36607e-11
6.23515e-11
6.10341e-11
5.9713e-11
5.83933e-11
5.70792e-11
5.57766e-11
6.61677e-11
6.49021e-11
6.36238e-11
6.23326e-11
6.10325e-11
5.97266e-11
5.84152e-11
5.71012e-11
5.57911e-11
5.44969e-11
6.48236e-11
6.35614e-11
6.22894e-11
6.10051e-11
5.97115e-11
5.8413e-11
5.71114e-11
5.58054e-11
5.44993e-11
5.32123e-11
6.34851e-11
6.22259e-11
6.09585e-11
5.96804e-11
5.83929e-11
5.70992e-11
5.58031e-11
5.45046e-11
5.32041e-11
5.19234e-11
6.21546e-11
6.08975e-11
5.96341e-11
5.8361e-11
5.70792e-11
5.57906e-11
5.44979e-11
5.3203e-11
5.1907e-11
5.06303e-11
6.08315e-11
5.95753e-11
5.83164e-11
5.705e-11
5.57764e-11
5.44968e-11
5.32119e-11
5.19227e-11
5.06298e-11
4.93469e-11
7.26546e-11
7.13553e-11
7.00318e-11
6.87024e-11
6.73724e-11
6.60436e-11
6.47178e-11
6.33972e-11
6.20835e-11
6.07761e-11
7.13533e-11
7.00662e-11
6.87555e-11
6.74326e-11
6.61063e-11
6.47808e-11
6.34579e-11
6.21397e-11
6.08278e-11
5.95207e-11
7.003e-11
6.87536e-11
6.74579e-11
6.61471e-11
6.48282e-11
6.3508e-11
6.219e-11
6.08756e-11
5.95668e-11
5.82631e-11
6.87019e-11
6.74311e-11
6.61455e-11
6.48471e-11
6.35386e-11
6.22253e-11
6.09125e-11
5.96028e-11
5.8298e-11
5.69994e-11
6.73722e-11
6.61059e-11
6.48269e-11
6.35372e-11
6.22393e-11
6.09352e-11
5.96282e-11
5.83228e-11
5.70221e-11
5.573e-11
6.60435e-11
6.47807e-11
6.35076e-11
6.22242e-11
6.09338e-11
5.96389e-11
5.83399e-11
5.70389e-11
5.57412e-11
5.44554e-11
6.47178e-11
6.34579e-11
6.219e-11
6.09122e-11
5.9627e-11
5.8338e-11
5.70467e-11
5.5752e-11
5.4457e-11
5.31765e-11
6.33971e-11
6.21397e-11
6.08756e-11
5.96028e-11
5.83225e-11
5.70372e-11
5.575e-11
5.44606e-11
5.31694e-11
5.18931e-11
6.20834e-11
6.08277e-11
5.95667e-11
5.8298e-11
5.70222e-11
5.57408e-11
5.44558e-11
5.31685e-11
5.18794e-11
5.06045e-11
6.0776e-11
5.95206e-11
5.8263e-11
5.69994e-11
5.57299e-11
5.44554e-11
5.31762e-11
5.18926e-11
5.0604e-11
4.93215e-11
7.24922e-11
7.12014e-11
6.98909e-11
6.85759e-11
6.72608e-11
6.5947e-11
6.4636e-11
6.33295e-11
6.20288e-11
6.07332e-11
7.11998e-11
6.9919e-11
6.86192e-11
6.73096e-11
6.59976e-11
6.46865e-11
6.3378e-11
6.20735e-11
6.07742e-11
5.94784e-11
6.98895e-11
6.86176e-11
6.73303e-11
6.60307e-11
6.47247e-11
6.34181e-11
6.21135e-11
6.0812e-11
5.95151e-11
5.82218e-11
6.85755e-11
6.73084e-11
6.60294e-11
6.47401e-11
6.34427e-11
6.21415e-11
6.0841e-11
5.95433e-11
5.82495e-11
5.69602e-11
6.72607e-11
6.59973e-11
6.47237e-11
6.34415e-11
6.21528e-11
6.08591e-11
5.95632e-11
5.82687e-11
5.69781e-11
5.56937e-11
6.59469e-11
6.46865e-11
6.34178e-11
6.21406e-11
6.08579e-11
5.95717e-11
5.82821e-11
5.69909e-11
5.57025e-11
5.44229e-11
6.4636e-11
6.3378e-11
6.21134e-11
6.08408e-11
5.95622e-11
5.82805e-11
5.69971e-11
5.57107e-11
5.44238e-11
5.3148e-11
6.33295e-11
6.20735e-11
6.0812e-11
5.95433e-11
5.82684e-11
5.69895e-11
5.5709e-11
5.44263e-11
5.31418e-11
5.18687e-11
6.20288e-11
6.07742e-11
5.95151e-11
5.82495e-11
5.69782e-11
5.57021e-11
5.44228e-11
5.3141e-11
5.18571e-11
5.05837e-11
6.07332e-11
5.94784e-11
5.82218e-11
5.69602e-11
5.56937e-11
5.44228e-11
5.31478e-11
5.18683e-11
5.05832e-11
4.93018e-11
7.23616e-11
7.10775e-11
6.97774e-11
6.84737e-11
6.71703e-11
6.58681e-11
6.45684e-11
6.32724e-11
6.19811e-11
6.06938e-11
7.10761e-11
6.98006e-11
6.85093e-11
6.72103e-11
6.59094e-11
6.46094e-11
6.33117e-11
6.20173e-11
6.07271e-11
5.94394e-11
6.97762e-11
6.8508e-11
6.72273e-11
6.59365e-11
6.46405e-11
6.33442e-11
6.20497e-11
6.07577e-11
5.94694e-11
5.81836e-11
6.84734e-11
6.72092e-11
6.59354e-11
6.46531e-11
6.33643e-11
6.20724e-11
6.07811e-11
5.94921e-11
5.82062e-11
5.69235e-11
6.71702e-11
6.59091e-11
6.46397e-11
6.33633e-11
6.20815e-11
6.07957e-11
5.9508e-11
5.82215e-11
5.69381e-11
5.56592e-11
6.58681e-11
6.46094e-11
6.3344e-11
6.20716e-11
6.07947e-11
5.95149e-11
5.82324e-11
5.69483e-11
5.56663e-11
5.43911e-11
6.45684e-11
6.33117e-11
6.20497e-11
6.0781e-11
5.95072e-11
5.82309e-11
5.69533e-11
5.56728e-11
5.43918e-11
5.31195e-11
6.32724e-11
6.20174e-11
6.07578e-11
5.94921e-11
5.82213e-11
5.6947e-11
5.56714e-11
5.43937e-11
5.31141e-11
5.18437e-11
6.19811e-11
6.07272e-11
5.94695e-11
5.82063e-11
5.69382e-11
5.5666e-11
5.4391e-11
5.31135e-11
5.18338e-11
5.05625e-11
6.06938e-11
5.94395e-11
5.81836e-11
5.69235e-11
5.56592e-11
5.43912e-11
5.31194e-11
5.18435e-11
5.05622e-11
4.92835e-11
7.22535e-11
7.09748e-11
6.96829e-11
6.83882e-11
6.70937e-11
6.58004e-11
6.45091e-11
6.32207e-11
6.19361e-11
6.06545e-11
7.09737e-11
6.97022e-11
6.84177e-11
6.71268e-11
6.58345e-11
6.4543e-11
6.32533e-11
6.19663e-11
6.06825e-11
5.94006e-11
6.96819e-11
6.84166e-11
6.71409e-11
6.5857e-11
6.45687e-11
6.32802e-11
6.19931e-11
6.0708e-11
5.94258e-11
5.81453e-11
6.8388e-11
6.7126e-11
6.5856e-11
6.45792e-11
6.32968e-11
6.20119e-11
6.07274e-11
5.94446e-11
5.81643e-11
5.68864e-11
6.70937e-11
6.58343e-11
6.4568e-11
6.32959e-11
6.20194e-11
6.07395e-11
5.94579e-11
5.8177e-11
5.68986e-11
5.56239e-11
6.58004e-11
6.4543e-11
6.328e-11
6.20112e-11
6.07386e-11
5.94636e-11
5.81861e-11
5.69072e-11
5.56298e-11
5.43581e-11
6.45091e-11
6.32534e-11
6.19931e-11
6.07273e-11
5.94571e-11
5.81849e-11
5.69114e-11
5.56354e-11
5.43586e-11
5.30892e-11
6.32208e-11
6.19664e-11
6.07081e-11
5.94447e-11
5.81769e-11
5.69061e-11
5.56341e-11
5.43603e-11
5.30846e-11
5.18169e-11
6.19362e-11
6.06826e-11
5.94258e-11
5.81644e-11
5.68988e-11
5.56296e-11
5.4358e-11
5.30841e-11
5.18084e-11
5.05399e-11
6.06546e-11
5.94006e-11
5.81454e-11
5.68864e-11
5.56239e-11
5.43582e-11
5.30892e-11
5.18166e-11
5.05396e-11
4.92651e-11
7.21617e-11
7.08875e-11
6.96022e-11
6.83146e-11
6.70272e-11
6.57407e-11
6.44557e-11
6.31731e-11
6.18934e-11
6.06161e-11
7.08865e-11
6.96183e-11
6.83393e-11
6.70548e-11
6.57692e-11
6.44842e-11
6.32006e-11
6.1919e-11
6.06401e-11
5.93625e-11
6.96013e-11
6.83383e-11
6.70666e-11
6.5788e-11
6.45058e-11
6.32232e-11
6.19417e-11
6.06618e-11
5.9384e-11
5.81077e-11
6.83144e-11
6.70541e-11
6.57872e-11
6.45145e-11
6.32371e-11
6.19575e-11
6.06782e-11
5.94001e-11
5.8124e-11
5.68498e-11
6.70272e-11
6.57691e-11
6.45052e-11
6.32364e-11
6.19639e-11
6.06883e-11
5.94114e-11
5.81349e-11
5.68603e-11
5.55889e-11
6.57407e-11
6.44842e-11
6.3223e-11
6.1957e-11
6.06877e-11
5.94162e-11
5.81427e-11
5.68677e-11
5.5594e-11
5.43252e-11
6.44558e-11
6.32007e-11
6.19417e-11
6.06781e-11
5.94108e-11
5.81416e-11
5.68713e-11
5.55988e-11
5.43257e-11
5.30588e-11
6.31732e-11
6.19191e-11
6.06618e-11
5.94002e-11
5.81348e-11
5.68668e-11
5.55978e-11
5.43272e-11
5.3055e-11
5.17897e-11
6.18935e-11
6.06402e-11
5.93841e-11
5.81241e-11
5.68604e-11
5.55938e-11
5.43251e-11
5.30546e-11
5.17826e-11
5.05171e-11
6.06162e-11
5.93626e-11
5.81078e-11
5.68499e-11
5.55889e-11
5.43252e-11
5.30588e-11
5.17895e-11
5.05168e-11
4.92469e-11
7.20827e-11
7.08122e-11
6.95323e-11
6.82505e-11
6.69688e-11
6.56878e-11
6.4408e-11
6.31299e-11
6.18543e-11
6.05806e-11
7.08113e-11
6.95458e-11
6.82712e-11
6.6992e-11
6.57118e-11
6.4432e-11
6.31533e-11
6.18761e-11
6.06011e-11
5.93272e-11
6.95316e-11
6.82704e-11
6.70019e-11
6.57276e-11
6.44502e-11
6.31724e-11
6.18954e-11
6.06196e-11
5.93456e-11
5.80729e-11
6.82504e-11
6.69914e-11
6.57269e-11
6.44575e-11
6.31841e-11
6.19088e-11
6.06336e-11
5.93595e-11
5.80868e-11
5.68159e-11
6.69688e-11
6.57117e-11
6.44497e-11
6.31835e-11
6.19142e-11
6.06423e-11
5.93691e-11
5.80963e-11
5.6825e-11
5.55564e-11
6.56878e-11
6.4432e-11
6.31723e-11
6.19084e-11
6.06418e-11
5.93733e-11
5.81029e-11
5.68314e-11
5.55608e-11
5.42946e-11
6.4408e-11
6.31533e-11
6.18955e-11
6.06336e-11
5.93686e-11
5.81021e-11
5.68345e-11
5.55651e-11
5.42951e-11
5.30306e-11
6.313e-11
6.18762e-11
6.06197e-11
5.93596e-11
5.80962e-11
5.68307e-11
5.55642e-11
5.42965e-11
5.30275e-11
5.17645e-11
6.18544e-11
6.06012e-11
5.93457e-11
5.80869e-11
5.68251e-11
5.55607e-11
5.42946e-11
5.30271e-11
5.17585e-11
5.04958e-11
6.05807e-11
5.93273e-11
5.8073e-11
5.6816e-11
5.55565e-11
5.42946e-11
5.30306e-11
5.17643e-11
5.04956e-11
4.92296e-11
7.20144e-11
7.07469e-11
6.94717e-11
6.81948e-11
6.69179e-11
6.56414e-11
6.4366e-11
6.30919e-11
6.18199e-11
6.05494e-11
7.07463e-11
6.9483e-11
6.82121e-11
6.69373e-11
6.56616e-11
6.43862e-11
6.31117e-11
6.18384e-11
6.05668e-11
5.92963e-11
6.94711e-11
6.82114e-11
6.69456e-11
6.56749e-11
6.44015e-11
6.31278e-11
6.18547e-11
6.05826e-11
5.93119e-11
5.80424e-11
6.81946e-11
6.69368e-11
6.56743e-11
6.44077e-11
6.31377e-11
6.18661e-11
6.05945e-11
5.93237e-11
5.80542e-11
5.67863e-11
6.69179e-11
6.56615e-11
6.44011e-11
6.31372e-11
6.18706e-11
6.06019e-11
5.9332e-11
5.80623e-11
5.6794e-11
5.55281e-11
6.56415e-11
6.43863e-11
6.31277e-11
6.18657e-11
6.06014e-11
5.93355e-11
5.8068e-11
5.67995e-11
5.55319e-11
5.4268e-11
6.4366e-11
6.31117e-11
6.18547e-11
6.05944e-11
5.93316e-11
5.80673e-11
5.68022e-11
5.55355e-11
5.42684e-11
5.30061e-11
6.3092e-11
6.18385e-11
6.05826e-11
5.93238e-11
5.80623e-11
5.67989e-11
5.55348e-11
5.42697e-11
5.30036e-11
5.17426e-11
6.182e-11
6.05669e-11
5.9312e-11
5.80543e-11
5.67941e-11
5.55317e-11
5.4268e-11
5.30033e-11
5.17377e-11
5.04772e-11
6.05495e-11
5.92964e-11
5.80425e-11
5.67864e-11
5.55281e-11
5.4268e-11
5.30061e-11
5.17425e-11
5.04771e-11
4.92142e-11
7.19556e-11
7.06907e-11
6.94194e-11
6.81466e-11
6.68738e-11
6.56014e-11
6.43297e-11
6.30593e-11
6.17905e-11
6.05231e-11
7.06902e-11
6.94288e-11
6.81611e-11
6.68901e-11
6.56183e-11
6.43467e-11
6.30758e-11
6.1806e-11
6.05376e-11
5.92702e-11
6.94189e-11
6.81605e-11
6.6897e-11
6.56294e-11
6.43595e-11
6.30894e-11
6.18197e-11
6.05508e-11
5.92832e-11
5.80167e-11
6.81465e-11
6.68897e-11
6.56289e-11
6.43647e-11
6.30977e-11
6.18292e-11
6.05609e-11
5.92931e-11
5.80265e-11
5.67613e-11
6.68738e-11
6.56182e-11
6.43592e-11
6.30973e-11
6.18331e-11
6.0567e-11
5.93001e-11
5.80334e-11
5.67677e-11