/*--------------------------------*- C++ -*----------------------------------*\
| =========                 |                                                 |
| \\      /  F ield         | foam-extend: Open Source CFD                    |
|  \\    /   O peration     | Version:     3.1                                |
|   \\  /    A nd           | Web:         http://www.extend-project.de       |
|    \\/     M anipulation  |                                                 |
\*---------------------------------------------------------------------------*/
FoamFile
{
    version     2.0;
    format      ascii;
    class       volVectorField;
    location    "0.9";
    object      cellMotionU;
}
// * * * * * * * * * * * * * * * * * * * * * * * * * * * * * * * * * * * * * //

dimensions      [0 1 -1 0 0 0 0];

internalField   nonuniform List<vector> 
14592
(
(-2.45342e-11 1.39253e-11 5.54052e-12)
(-7.26835e-11 4.0453e-11 1.64774e-11)
(-1.21459e-10 6.49367e-11 2.77301e-11)
(-1.75565e-10 8.81644e-11 4.04522e-11)
(-2.40158e-10 1.10461e-10 5.58866e-11)
(-3.21418e-10 1.31455e-10 7.55166e-11)
(-4.27531e-10 1.49813e-10 1.01309e-10)
(-5.69237e-10 1.62591e-10 1.35884e-10)
(-7.6109e-10 1.64243e-10 1.82986e-10)
(-1.02214e-09 1.45175e-10 2.47913e-10)
(-1.37564e-09 8.95541e-11 3.37862e-10)
(-1.84488e-09 -2.72399e-11 4.61796e-10)
(-2.44409e-09 -2.39482e-10 6.28879e-10)
(-3.15385e-09 -5.88118e-10 8.40813e-10)
(-3.88338e-09 -1.09715e-09 1.07261e-09)
(-4.39705e-09 -1.64841e-09 1.23183e-09)
(-7.13733e-11 4.12136e-11 1.62643e-11)
(-2.1136e-10 1.19828e-10 4.8356e-11)
(-3.52727e-10 1.92488e-10 8.13022e-11)
(-5.08856e-10 2.61726e-10 1.18425e-10)
(-6.94145e-10 3.28669e-10 1.63236e-10)
(-9.25963e-10 3.92629e-10 2.19962e-10)
(-1.22676e-09 4.50341e-10 2.94036e-10)
(-1.62679e-09 4.94571e-10 3.92846e-10)
(-2.1666e-09 5.112e-10 5.26768e-10)
(-2.89851e-09 4.7554e-10 7.10212e-10)
(-3.88656e-09 3.46423e-10 9.625e-10)
(-5.19665e-09 6.02661e-11 1.30798e-09)
(-6.8737e-09 -4.70073e-10 1.77276e-09)
(-8.85583e-09 -1.34437e-09 2.3619e-09)
(-1.08534e-08 -2.60706e-09 3.01071e-09)
(-1.21437e-08 -3.92614e-09 3.47552e-09)
(-1.12871e-10 6.73867e-11 2.61927e-11)
(-3.3329e-10 1.95711e-10 7.7681e-11)
(-5.54385e-10 3.14655e-10 1.30275e-10)
(-7.96477e-10 4.28874e-10 1.89174e-10)
(-1.08068e-09 5.40769e-10 2.59693e-10)
(-1.4323e-09 6.5041e-10 3.48111e-10)
(-1.88348e-09 7.54659e-10 4.6233e-10)
(-2.47699e-09 8.451e-10 6.13004e-10)
(-3.26962e-09 9.05501e-10 8.14579e-10)
(-4.33472e-09 9.06217e-10 1.08668e-09)
(-5.76204e-09 7.98363e-10 1.45531e-09)
(-7.65384e-09 5.04829e-10 1.95449e-09)
(-1.00776e-08 -8.22159e-11 2.61734e-09)
(-1.29595e-08 -1.07487e-09 3.45106e-09)
(-1.58688e-08 -2.51122e-09 4.3662e-09)
(-1.76944e-08 -3.97896e-09 5.02856e-09)
(-1.45726e-10 9.1231e-11 3.47773e-11)
(-4.2981e-10 2.65394e-10 1.03086e-10)
(-7.12568e-10 4.2777e-10 1.72509e-10)
(-1.01787e-09 5.85044e-10 2.49487e-10)
(-1.37053e-09 7.41664e-10 3.40584e-10)
(-1.79921e-09 8.99746e-10 4.53244e-10)
(-2.33933e-09 1.0583e-09 5.96561e-10)
(-3.03664e-09 1.21205e-09 7.82254e-10)
(-3.95067e-09 1.34915e-09 1.02568e-09)
(-5.15807e-09 1.44762e-09 1.347e-09)
(-6.75403e-09 1.4702e-09 1.77228e-09)
(-8.84705e-09 1.35835e-09 2.33331e-09)
(-1.15328e-08 1.02353e-09 3.06263e-09)
(-1.47813e-08 3.68109e-10 3.96539e-09)
(-1.81726e-08 -6.38937e-10 4.94412e-09)
(-2.04569e-08 -1.69756e-09 5.64691e-09)
(-1.69005e-10 1.12291e-10 4.19196e-11)
(-4.97445e-10 3.27164e-10 1.24111e-10)
(-8.20633e-10 5.28524e-10 2.07038e-10)
(-1.16336e-09 7.25481e-10 2.97925e-10)
(-1.55054e-09 9.24929e-10 4.03925e-10)
(-2.00961e-09 1.132e-09 5.32769e-10)
(-2.57263e-09 1.34942e-09 6.93445e-10)
(-3.27892e-09 1.57824e-09 8.96794e-10)
(-4.17682e-09 1.81618e-09 1.15613e-09)
(-5.32577e-09 2.05773e-09 1.48764e-09)
(-6.79704e-09 2.29229e-09 1.91038e-09)
(-8.67175e-09 2.5025e-09 2.44518e-09)
(-1.10299e-08 2.66026e-09 3.11028e-09)
(-1.38977e-08 2.71737e-09 3.90442e-09)
(-1.70139e-08 2.63514e-09 4.7483e-09)
(-1.93451e-08 2.43643e-09 5.36746e-09)
(-1.82273e-10 1.29757e-10 4.75293e-11)
(-5.34916e-10 3.78458e-10 1.40486e-10)
(-8.76977e-10 6.12723e-10 2.33488e-10)
(-1.23153e-09 8.43967e-10 3.34081e-10)
(-1.6206e-09 1.08174e-09 4.49442e-10)
(-2.06651e-09 1.33415e-09 5.86893e-10)
(-2.59299e-09 1.60883e-09 7.54305e-10)
(-3.22546e-09 1.91341e-09 9.60329e-10)
(-3.9905e-09 2.25751e-09 1.21424e-09)
(-4.91359e-09 2.65442e-09 1.52532e-09)
(-6.01506e-09 3.12525e-09 1.90114e-09)
(-7.30388e-09 3.70418e-09 2.34434e-09)
(-8.77106e-09 4.44288e-09 2.84696e-09)
(-1.03846e-08 5.40226e-09 3.38141e-09)
(-1.20196e-08 6.57676e-09 3.87654e-09)
(-1.32881e-08 7.64039e-09 4.20647e-09)
(-1.86023e-10 1.42775e-10 5.16295e-11)
(-5.43977e-10 4.16853e-10 1.52325e-10)
(-8.8523e-10 6.76182e-10 2.52161e-10)
(-1.22912e-09 9.34161e-10 3.58626e-10)
(-1.5927e-09 1.20264e-09 4.78514e-10)
(-1.99094e-09 1.49242e-09 6.18281e-10)
(-2.43641e-09 1.81498e-09 7.84193e-10)
(-2.93749e-09 2.18393e-09 9.82109e-10)
(-3.49454e-09 2.61785e-09 1.21672e-09)
(-4.09268e-09 3.14481e-09 1.48985e-09)
(-4.68969e-09 3.81007e-09 1.79709e-09)
(-5.19609e-09 4.68836e-09 2.12176e-09)
(-5.44685e-09 5.90375e-09 2.42435e-09)
(-5.17313e-09 7.65221e-09 2.62637e-09)
(-4.06636e-09 1.01045e-08 2.59967e-09)
(-2.35127e-09 1.28213e-08 2.29343e-09)
(-1.81564e-10 1.50635e-10 5.43476e-11)
(-5.28772e-10 4.40255e-10 1.60044e-10)
(-8.53072e-10 7.15244e-10 2.63879e-10)
(-1.16891e-09 9.90564e-10 3.73004e-10)
(-1.48736e-09 1.27941e-09 4.93607e-10)
(-1.81547e-09 1.59453e-09 6.31104e-10)
(-2.15469e-09 1.94959e-09 7.90076e-10)
(-2.49746e-09 2.36127e-09 9.7379e-10)
(-2.82109e-09 2.85224e-09 1.18304e-09)
(-3.07723e-09 3.45587e-09 1.41391e-09)
(-3.17404e-09 4.2238e-09 1.65376e-09)
(-2.9461e-09 5.23872e-09 1.87397e-09)
(-2.10232e-09 6.63734e-09 2.01683e-09)
(-1.32745e-10 8.66009e-09 1.97019e-09)
(3.71893e-09 1.16676e-08 1.53495e-09)
(9.83087e-09 1.5782e-08 5.23638e-10)
(-2.58723e-11 1.46309e-11 5.27863e-12)
(-7.67342e-11 4.25195e-11 1.56961e-11)
(-1.28531e-10 6.82916e-11 2.64141e-11)
(-1.86482e-10 9.28303e-11 3.85445e-11)
(-2.56467e-10 1.16543e-10 5.33214e-11)
(-3.44905e-10 1.38728e-10 7.20656e-11)
(-4.61178e-10 1.57971e-10 9.67198e-11)
(-6.17507e-10 1.70921e-10 1.29872e-10)
(-8.30111e-10 1.71276e-10 1.75137e-10)
(-1.11931e-09 1.47882e-10 2.37457e-10)
(-1.51362e-09 8.31917e-11 3.24505e-10)
(-2.03951e-09 -5.06497e-11 4.45234e-10)
(-2.71449e-09 -2.9173e-10 6.09421e-10)
(-3.52357e-09 -6.8293e-10 8.21469e-10)
(-4.38761e-09 -1.24082e-09 1.066e-09)
(-5.08949e-09 -1.82623e-09 1.27171e-09)
(-7.52334e-11 4.33134e-11 1.54922e-11)
(-2.23022e-10 1.25937e-10 4.60539e-11)
(-3.7303e-10 2.02436e-10 7.74148e-11)
(-5.40001e-10 2.75517e-10 1.12756e-10)
(-7.39568e-10 3.46219e-10 1.55404e-10)
(-9.91161e-10 4.13768e-10 2.09393e-10)
(-1.32035e-09 4.74516e-10 2.80042e-10)
(-1.76093e-09 5.20019e-10 3.745e-10)
(-2.35807e-09 5.34401e-10 5.02727e-10)
(-3.17239e-09 4.8954e-10 6.79058e-10)
(-4.27725e-09 3.38888e-10 9.22932e-10)
(-5.74831e-09 1.0981e-11 1.25845e-09)
(-7.64009e-09 -5.89557e-10 1.7129e-09)
(-9.89717e-09 -1.56273e-09 2.29687e-09)
(-1.22413e-08 -2.91933e-09 2.96593e-09)
(-1.39671e-08 -4.25365e-09 3.52136e-09)
(-1.18875e-10 7.08186e-11 2.49428e-11)
(-3.51373e-10 2.05743e-10 7.39562e-11)
(-5.85697e-10 3.30993e-10 1.23987e-10)
(-8.44041e-10 4.51526e-10 1.7997e-10)
(-1.14951e-09 5.69758e-10 2.46918e-10)
(-1.53087e-09 6.86026e-10 3.30952e-10)
(-2.02413e-09 7.96402e-10 4.39665e-10)
(-2.67748e-09 8.91465e-10 5.83266e-10)
(-3.55542e-09 9.52504e-10 7.7578e-10)
(-4.74357e-09 9.46713e-10 1.03667e-09)
(-6.34388e-09 8.18087e-10 1.39106e-09)
(-8.47589e-09 4.80911e-10 1.87252e-09)
(-1.12229e-08 -1.81128e-10 2.51462e-09)
(-1.45196e-08 -1.27498e-09 3.3292e-09)
(-1.79421e-08 -2.78588e-09 4.24999e-09)
(-2.03914e-08 -4.19874e-09 5.00185e-09)
(-1.53317e-10 9.59197e-11 3.3107e-11)
(-4.52651e-10 2.79132e-10 9.81104e-11)
(-7.51986e-10 4.50245e-10 1.64121e-10)
(-1.07747e-09 6.16473e-10 2.37245e-10)
(-1.45655e-09 7.82646e-10 3.23718e-10)
(-1.92131e-09 9.50966e-10 4.30653e-10)
(-2.51174e-09 1.12022e-09 5.66735e-10)
(-3.27976e-09 1.28429e-09 7.43161e-10)
(-4.29378e-09 1.42989e-09 9.7467e-10)
(-5.64312e-09 1.53225e-09 1.28074e-09)
(-7.43982e-09 1.5499e-09 1.68639e-09)
(-9.81488e-09 1.41815e-09 2.22217e-09)
(-1.28907e-08 1.0426e-09 2.91931e-09)
(-1.66602e-08 3.30222e-10 3.78519e-09)
(-2.0723e-08 -7.12598e-10 4.74367e-09)
(-2.38239e-08 -1.71372e-09 5.50946e-09)
(-1.77573e-10 1.18119e-10 3.98928e-11)
(-5.23161e-10 3.44254e-10 1.1808e-10)
(-8.64789e-10 5.56645e-10 1.96884e-10)
(-1.22963e-09 7.65125e-10 2.83145e-10)
(-1.6453e-09 9.77277e-10 3.8363e-10)
(-2.1425e-09 1.19848e-09 5.05669e-10)
(-2.75773e-09 1.43201e-09 6.57754e-10)
(-3.53607e-09 1.67866e-09 8.50141e-10)
(-4.53418e-09 1.9363e-09 1.09539e-09)
(-5.82317e-09 2.19904e-09 1.4087e-09)
(-7.49107e-09 2.45603e-09 1.80782e-09)
(-9.64389e-09 2.68985e-09 2.31167e-09)
(-1.23997e-08 2.87233e-09 2.93639e-09)
(-1.58354e-08 2.95378e-09 3.68019e-09)
(-1.97501e-08 2.88567e-09 4.48013e-09)
(-2.30913e-08 2.67775e-09 5.12095e-09)
(-1.91189e-10 1.36536e-10 4.52163e-11)
(-5.61602e-10 3.98441e-10 1.33606e-10)
(-9.22472e-10 6.45706e-10 2.21928e-10)
(-1.29915e-09 8.9081e-10 3.17302e-10)
(-1.71605e-09 1.14413e-09 4.26489e-10)
(-2.19837e-09 1.41467e-09 5.56362e-10)
(-2.77335e-09 1.71077e-09 7.14278e-10)
(-3.47107e-09 2.04133e-09 9.08242e-10)
(-4.32421e-09 2.41735e-09 1.14674e-09)
(-5.36682e-09 2.8548e-09 1.43802e-09)
(-6.63183e-09 3.37937e-09 1.78826e-09)
(-8.14877e-09 4.03276e-09 2.19835e-09)
(-9.94758e-09 4.87631e-09 2.65877e-09)
(-1.20731e-08 5.96732e-09 3.14305e-09)
(-1.45341e-08 7.23345e-09 3.59843e-09)
(-1.69837e-08 8.20069e-09 3.94482e-09)
(-1.94719e-10 1.50297e-10 4.90993e-11)
(-5.69901e-10 4.3906e-10 1.44808e-10)
(-9.2905e-10 7.12964e-10 2.39561e-10)
(-1.29347e-09 9.86718e-10 3.40397e-10)
(-1.6821e-09 1.27313e-09 4.53687e-10)
(-2.11209e-09 1.58436e-09 5.8543e-10)
(-2.59839e-09 1.93314e-09 7.4137e-10)
(-3.15223e-09 2.33501e-09 9.26752e-10)
(-3.77725e-09 2.81148e-09 1.14552e-09)
(-4.46264e-09 3.39543e-09 1.39856e-09)
(-5.17155e-09 4.14031e-09 1.68042e-09)
(-5.82434e-09 5.13492e-09 1.97349e-09)
(-6.28052e-09 6.5231e-09 2.23923e-09)
(-6.34622e-09 8.50641e-09 2.40881e-09)
(-5.91302e-09 1.11591e-08 2.39577e-09)
(-5.44497e-09 1.37401e-08 2.22407e-09)
(-1.89584e-10 1.58643e-10 5.16668e-11)
(-5.52531e-10 4.63858e-10 1.52092e-10)
(-8.9285e-10 7.54517e-10 2.50583e-10)
(-1.22643e-09 1.04683e-09 3.53846e-10)
(-1.56577e-09 1.35541e-09 4.67646e-10)
(-1.91921e-09 1.6943e-09 5.96957e-10)
(-2.28943e-09 2.07893e-09 7.45876e-10)
(-2.6699e-09 2.52836e-09 9.17112e-10)
(-3.03852e-09 3.06876e-09 1.11082e-09)
(-3.34662e-09 3.73908e-09 1.3224e-09)
(-3.50095e-09 4.60028e-09 1.5386e-09)
(-3.33432e-09 5.75001e-09 1.73103e-09)
(-2.56045e-09 7.3465e-09 1.84577e-09)
(-7.16589e-10 9.64197e-09 1.78932e-09)
(2.75396e-09 1.29144e-08 1.4331e-09)
(7.74691e-09 1.69289e-08 7.51325e-10)
(-2.71387e-11 1.52568e-11 4.82544e-12)
(-8.05783e-11 4.43477e-11 1.43488e-11)
(-1.35294e-10 7.12806e-11 2.41522e-11)
(-1.9702e-10 9.70113e-11 3.52751e-11)
(-2.71543e-10 1.21626e-10 4.87315e-11)
(-3.66615e-10 1.44677e-10 6.58551e-11)
(-4.92286e-10 1.64432e-10 8.83886e-11)
(-6.62e-10 1.77163e-10 1.18712e-10)
(-8.93651e-10 1.75948e-10 1.60156e-10)
(-1.21014e-09 1.48807e-10 2.17366e-10)
(-1.63862e-09 7.6365e-11 2.9674e-10)
(-2.21284e-09 -6.97028e-11 4.07538e-10)
(-2.95096e-09 -3.27205e-10 5.5923e-10)
(-3.84093e-09 -7.34165e-10 7.58668e-10)
(-4.80934e-09 -1.29442e-09 9.98953e-10)
(-5.63101e-09 -1.85718e-09 1.22076e-09)
(-7.88768e-11 4.51613e-11 1.41584e-11)
(-2.34075e-10 1.31356e-10 4.20862e-11)
(-3.92361e-10 2.11236e-10 7.07398e-11)
(-5.69313e-10 2.87469e-10 1.02982e-10)
(-7.8222e-10 3.612e-10 1.41887e-10)
(-1.05266e-09 4.3153e-10 1.9118e-10)
(-1.40834e-09 4.94143e-10 2.55677e-10)
(-1.88653e-09 5.39656e-10 3.41941e-10)
(-2.53719e-09 5.5044e-10 4.59125e-10)
(-3.42547e-09 4.9605e-10 6.19998e-10)
(-4.63267e-09 3.26424e-10 8.42735e-10)
(-6.24341e-09 -3.33744e-11 1.14986e-09)
(-8.31627e-09 -6.7752e-10 1.56735e-09)
(-1.07995e-08 -1.69349e-09 2.11031e-09)
(-1.34124e-08 -3.05964e-09 2.75132e-09)
(-1.53977e-08 -4.34589e-09 3.31635e-09)
(-1.24524e-10 7.3847e-11 2.27819e-11)
(-3.68451e-10 2.14587e-10 6.75538e-11)
(-6.15327e-10 3.45335e-10 1.1322e-10)
(-8.88921e-10 4.71139e-10 1.64238e-10)
(-1.21514e-09 5.94859e-10 2.25316e-10)
(-1.62489e-09 7.16208e-10 3.0192e-10)
(-2.15796e-09 8.30783e-10 4.00998e-10)
(-2.86746e-09 9.27766e-10 5.31852e-10)
(-3.8247e-09 9.8643e-10 7.07203e-10)
(-5.12355e-09 9.70326e-10 9.44548e-10)
(-6.88099e-09 8.19937e-10 1.26738e-09)
(-9.22578e-09 4.43366e-10 1.7054e-09)
(-1.22537e-08 -2.76031e-10 2.29013e-09)
(-1.5905e-08 -1.43238e-09 3.0369e-09)
(-1.9743e-08 -2.97564e-09 3.8985e-09)
(-2.25685e-08 -4.36369e-09 4.63323e-09)
(-1.60496e-10 1.00065e-10 3.02394e-11)
(-4.74315e-10 2.91276e-10 8.9601e-11)
(-7.89463e-10 4.70049e-10 1.49836e-10)
(-1.13424e-09 6.43952e-10 2.16495e-10)
(-1.5387e-09 8.18028e-10 2.95271e-10)
(-2.03805e-09 9.9435e-10 3.9261e-10)
(-2.67649e-09 1.17116e-09 5.164e-10)
(-3.51179e-09 1.34129e-09 6.76764e-10)
(-4.62037e-09 1.48942e-09 8.86982e-10)
(-6.10266e-09 1.58779e-09 1.1645e-09)
(-8.08616e-09 1.59032e-09 1.53165e-09)
(-1.07207e-08 1.42638e-09 2.01535e-09)
(-1.41515e-08 9.96554e-10 2.64345e-09)
(-1.83905e-08 2.11384e-10 3.42518e-09)
(-2.30302e-08 -9.02251e-10 4.30309e-09)
(-2.66724e-08 -1.93771e-09 5.0326e-09)
(-1.85716e-10 1.23284e-10 3.64315e-11)
(-5.47669e-10 3.59434e-10 1.07811e-10)
(-9.0697e-10 5.81492e-10 1.79689e-10)
(-1.29312e-09 7.99885e-10 2.58273e-10)
(-1.73633e-09 1.02253e-09 3.49704e-10)
(-2.27052e-09 1.255e-09 4.60605e-10)
(-2.93638e-09 1.50029e-09 5.98629e-10)
(-3.78478e-09 1.75869e-09 7.72961e-10)
(-4.88034e-09 2.02685e-09 9.94754e-10)
(-6.3056e-09 2.2968e-09 1.27736e-09)
(-8.16521e-09 2.55433e-09 1.63608e-09)
(-1.05897e-08 2.77624e-09 2.08689e-09)
(-1.3734e-08 2.92477e-09 2.64336e-09)
(-1.77186e-08 2.93607e-09 3.30456e-09)
(-2.23618e-08 2.7502e-09 4.02124e-09)
(-2.64286e-08 2.41324e-09 4.61026e-09)
(-1.99708e-10 1.42581e-10 4.12816e-11)
(-5.87145e-10 4.16192e-10 1.21949e-10)
(-9.66173e-10 6.74911e-10 2.02466e-10)
(-1.36434e-09 9.31934e-10 2.89282e-10)
(-1.80851e-09 1.19826e-09 3.88502e-10)
(-2.32671e-09 1.48327e-09 5.06303e-10)
(-2.9499e-09 1.79562e-09 6.49247e-10)
(-3.71299e-09 2.1442e-09 8.24389e-10)
(-4.65548e-09 2.53987e-09 1.03908e-09)
(-5.82117e-09 2.99804e-09 1.30021e-09)
(-7.25814e-09 3.54287e-09 1.61258e-09)
(-9.02127e-09 4.21194e-09 1.9761e-09)
(-1.11855e-08 5.05462e-09 2.38231e-09)
(-1.38668e-08 6.09593e-09 2.81046e-09)
(-1.71362e-08 7.21069e-09 3.22163e-09)
(-2.04608e-08 7.94038e-09 3.54399e-09)
(-2.03072e-10 1.57003e-10 4.48137e-11)
(-5.94855e-10 4.58807e-10 1.3213e-10)
(-9.71428e-10 7.45569e-10 2.18466e-10)
(-1.35602e-09 1.03289e-09 3.10178e-10)
(-1.76964e-09 1.33446e-09 4.12997e-10)
(-2.23168e-09 1.663e-09 5.3227e-10)
(-2.75993e-09 2.03197e-09 6.73048e-10)
(-3.36914e-09 2.45755e-09 8.39827e-10)
(-4.06769e-09 2.96194e-09 1.03578e-09)
(-4.85158e-09 3.57871e-09 1.26115e-09)
(-5.69503e-09 4.36164e-09 1.51043e-09)
(-6.53871e-09 5.39728e-09 1.76789e-09)
(-7.28367e-09 6.81824e-09 2.00205e-09)
(-7.81753e-09 8.78592e-09 2.16297e-09)
(-8.13111e-09 1.12922e-08 2.19877e-09)
(-8.55172e-09 1.35728e-08 2.13485e-09)
(-1.97328e-10 1.65763e-10 4.7144e-11)
(-5.75588e-10 4.84905e-10 1.38735e-10)
(-9.31646e-10 7.89338e-10 2.28435e-10)
(-1.283e-09 1.09643e-09 3.22286e-10)
(-1.64364e-09 1.42162e-09 4.25447e-10)
(-2.02357e-09 1.77993e-09 5.42316e-10)
(-2.42727e-09 2.18768e-09 6.76417e-10)
(-2.85032e-09 2.66491e-09 8.29923e-10)
(-3.27318e-09 3.23896e-09 1.00258e-09)
(-3.65081e-09 3.95006e-09 1.18975e-09)
(-3.89603e-09 4.85996e-09 1.37926e-09)
(-3.85451e-09 6.06464e-09 1.54667e-09)
(-3.27002e-09 7.7113e-09 1.64957e-09)
(-1.7496e-09 1.00126e-08 1.62415e-09)
(1.15933e-09 1.31619e-08 1.40245e-09)
(5.40731e-09 1.68767e-08 1.0034e-09)
(-2.82915e-11 1.57936e-11 4.20101e-12)
(-8.40902e-11 4.59192e-11 1.24938e-11)
(-1.41562e-10 7.38837e-11 2.10499e-11)
(-2.06319e-10 1.00389e-10 3.06952e-11)
(-2.85089e-10 1.25754e-10 4.23808e-11)
(-3.86088e-10 1.49377e-10 5.72525e-11)
(-5.20064e-10 1.69306e-10 7.68089e-11)
(-7.01408e-10 1.81468e-10 1.03098e-10)
(-9.49185e-10 1.78406e-10 1.38965e-10)
(-1.28751e-09 1.47469e-10 1.8834e-10)
(-1.74406e-09 6.84726e-11 2.56483e-10)
(-2.35393e-09 -8.6927e-11 3.51287e-10)
(-3.13308e-09 -3.54758e-10 4.80522e-10)
(-4.06381e-09 -7.67197e-10 6.49852e-10)
(-5.06105e-09 -1.31698e-09 8.53258e-10)
(-5.88357e-09 -1.84759e-09 1.03937e-09)
(-8.21972e-11 4.67505e-11 1.23233e-11)
(-2.44144e-10 1.35972e-10 3.66311e-11)
(-4.0973e-10 2.18589e-10 6.15352e-11)
(-5.9567e-10 2.9735e-10 8.95421e-11)
(-8.20899e-10 3.7349e-10 1.23341e-10)
(-1.10822e-09 4.45687e-10 1.6613e-10)
(-1.48745e-09 5.09114e-10 2.22065e-10)
(-1.99857e-09 5.5342e-10 2.96781e-10)
(-2.69489e-09 5.59558e-10 3.98073e-10)
(-3.64492e-09 4.95076e-10 5.36683e-10)
(-4.9345e-09 3.0771e-10 7.2772e-10)
(-6.64884e-09 -7.86764e-11 9.89786e-10)
(-8.8412e-09 -7.54808e-10 1.3436e-09)
(-1.14413e-08 -1.79572e-09 1.8e-09)
(-1.4128e-08 -3.15699e-09 2.33218e-09)
(-1.60932e-08 -4.39944e-09 2.78875e-09)
(-1.29468e-10 7.63122e-11 1.979e-11)
(-3.83729e-10 2.21964e-10 5.8727e-11)
(-6.4198e-10 3.57287e-10 9.84179e-11)
(-9.29825e-10 4.87579e-10 1.42761e-10)
(-1.27481e-09 6.15468e-10 1.95788e-10)
(-1.71018e-09 7.40365e-10 2.62223e-10)
(-2.27886e-09 8.57111e-10 3.48051e-10)
(-3.03805e-09 9.53641e-10 4.61219e-10)
(-4.06418e-09 1.00708e-09 6.12504e-10)
(-5.45729e-09 9.78e-10 8.16528e-10)
(-7.34148e-09 8.03282e-10 1.09272e-09)
(-9.84828e-09 3.87305e-10 1.46471e-09)
(-1.30684e-08 -3.86174e-10 1.95648e-09)
(-1.69162e-08 -1.60221e-09 2.57621e-09)
(-2.08919e-08 -3.19169e-09 3.27642e-09)
(-2.37091e-08 -4.59838e-09 3.84928e-09)
(-1.66955e-10 1.03553e-10 2.6292e-11)
(-4.93954e-10 3.01562e-10 7.79169e-11)
(-8.23515e-10 4.86735e-10 1.30264e-10)
(-1.18596e-09 6.66897e-10 1.88146e-10)
(-1.61359e-09 8.47094e-10 2.56476e-10)
(-2.14437e-09 1.02909e-09 3.40805e-10)
(-2.82622e-09 1.21039e-09 4.47893e-10)
(-3.72175e-09 1.38248e-09 5.86344e-10)
(-4.91376e-09 1.52771e-09 7.67316e-10)
(-6.51073e-09 1.61476e-09 1.00521e-09)
(-8.64964e-09 1.59251e-09 1.31804e-09)
(-1.14884e-08 1.38381e-09 1.72648e-09)
(-1.51736e-08 8.8272e-10 2.25007e-09)
(-1.96956e-08 -1.80983e-12 2.88972e-09)
(-2.45753e-08 -1.23377e-09 3.58743e-09)
(-2.82862e-08 -2.37233e-09 4.13715e-09)
(-1.93125e-10 1.27689e-10 3.1682e-11)
(-5.69997e-10 3.72317e-10 9.37425e-11)
(-9.45481e-10 6.0248e-10 1.56187e-10)
(-1.35119e-09 8.28942e-10 2.24379e-10)
(-1.81974e-09 1.0598e-09 3.03614e-10)
(-2.38791e-09 1.3004e-09 3.99574e-10)
(-3.10021e-09 1.55326e-09 5.18782e-10)
(-4.01246e-09 1.81743e-09 6.68979e-10)
(-5.19599e-09 2.08747e-09 8.59419e-10)
(-6.74218e-09 2.35185e-09 1.10089e-09)
(-8.76707e-09 2.59063e-09 1.40522e-09)
(-1.14146e-08 2.77139e-09 1.78368e-09)
(-1.48521e-08 2.84243e-09 2.2436e-09)
(-1.9193e-08 2.72296e-09 2.77675e-09)
(-2.41921e-08 2.34694e-09 3.33092e-09)
(-2.84476e-08 1.81671e-09 3.75222e-09)
(-2.07494e-10 1.4773e-10 3.58942e-11)
(-6.10531e-10 4.31304e-10 1.06012e-10)
(-1.00627e-09 6.99613e-10 1.75933e-10)
(-1.42434e-09 9.66391e-10 2.51221e-10)
(-1.89385e-09 1.24294e-09 3.37124e-10)
(-2.44554e-09 1.53867e-09 4.38919e-10)
(-3.11377e-09 1.86192e-09 5.62153e-10)
(-3.93801e-09 2.22079e-09 7.12705e-10)
(-4.96377e-09 2.62444e-09 8.96525e-10)
(-6.24318e-09 3.08522e-09 1.11889e-09)
(-7.83587e-09 3.62169e-09 1.38286e-09)
(-9.81274e-09 4.26096e-09 1.68675e-09)
(-1.22692e-08 5.03339e-09 2.0209e-09)
(-1.53325e-08 5.93301e-09 2.36346e-09)
(-1.90305e-08 6.81122e-09 2.67373e-09)
(-2.2648e-08 7.27499e-09 2.88594e-09)
(-2.10746e-10 1.62732e-10 3.89568e-11)
(-6.17829e-10 4.75644e-10 1.14834e-10)
(-1.01056e-09 7.73196e-10 1.89778e-10)
(-1.41403e-09 1.07168e-09 2.69264e-10)
(-1.85121e-09 1.38519e-09 3.58197e-10)
(-2.34377e-09 1.72677e-09 4.61126e-10)
(-2.9123e-09 2.10978e-09 5.82273e-10)
(-3.57512e-09 2.54995e-09 7.25295e-10)
(-4.34542e-09 3.06828e-09 8.9258e-10)
(-5.22579e-09 3.69592e-09 1.08386e-09)
(-6.20003e-09 4.48155e-09 1.29385e-09)
(-7.22333e-09 5.50154e-09 1.50884e-09)
(-8.21746e-09 6.86826e-09 1.70293e-09)
(-9.08928e-09 8.70703e-09 1.83681e-09)
(-9.7996e-09 1.0979e-08 1.86986e-09)
(-1.05045e-08 1.29854e-08 1.81556e-09)
(-2.04497e-10 1.71869e-10 4.09743e-11)
(-5.96948e-10 5.02845e-10 1.20545e-10)
(-9.67766e-10 8.18906e-10 1.98383e-10)
(-1.33596e-09 1.13812e-09 2.79674e-10)
(-1.71712e-09 1.47659e-09 3.68831e-10)
(-2.12297e-09 1.84967e-09 4.69557e-10)
(-2.56004e-09 2.27387e-09 5.84759e-10)
(-3.02644e-09 2.76901e-09 7.16099e-10)
(-3.50589e-09 3.36158e-09 8.63075e-10)
(-3.95784e-09 4.08971e-09 1.02141e-09)
(-4.30182e-09 5.01051e-09 1.1806e-09)
(-4.39399e-09 6.21012e-09 1.32065e-09)
(-3.99369e-09 7.81607e-09 1.40897e-09)
(-2.72292e-09 1.00068e-08 1.40031e-09)
(-9.51875e-11 1.295e-08 1.25061e-09)
(4.01403e-09 1.6436e-08 9.73181e-10)
(-2.92809e-11 1.62273e-11 3.42857e-12)
(-8.70829e-11 4.71751e-11 1.01953e-11)
(-1.46757e-10 7.5878e-11 1.71759e-11)
(-2.14222e-10 1.03028e-10 2.50318e-11)
(-2.96626e-10 1.28933e-10 3.45458e-11)
(-4.02616e-10 1.52879e-10 4.66427e-11)
(-5.4349e-10 1.72726e-10 6.25259e-11)
(-7.34316e-10 1.84085e-10 8.38265e-11)
(-9.94865e-10 1.79075e-10 1.12782e-10)
(-1.34976e-09 1.44508e-10 1.5242e-10)
(-1.82642e-09 5.97622e-11 2.06666e-10)
(-2.45889e-09 -1.03292e-10 2.81337e-10)
(-3.25838e-09 -3.78798e-10 3.81585e-10)
(-4.19778e-09 -7.93844e-10 5.10162e-10)
(-5.17826e-09 -1.33222e-09 6.60026e-10)
(-5.95642e-09 -1.83332e-09 7.91616e-10)
(-8.50337e-11 4.80248e-11 1.00541e-11)
(-2.52689e-10 1.39651e-10 2.9874e-11)
(-4.24529e-10 2.24426e-10 5.01873e-11)
(-6.18304e-10 3.05172e-10 7.29991e-11)
(-8.53958e-10 3.82996e-10 1.00513e-10)
(-1.15551e-09 4.56282e-10 1.35307e-10)
(-1.55437e-09 5.19672e-10 1.80714e-10)
(-2.09246e-09 5.6197e-10 2.41218e-10)
(-2.82519e-09 5.62861e-10 3.22933e-10)
(-3.82272e-09 4.88292e-10 4.34108e-10)
(-5.17137e-09 2.84424e-10 5.86041e-10)
(-6.95211e-09 -1.25272e-10 7.9197e-10)
(-9.20549e-09 -8.28153e-10 1.06522e-09)
(-1.18341e-08 -1.8893e-09 1.4089e-09)
(-1.4477e-08 -3.24751e-09 1.7948e-09)
(-1.63212e-08 -4.45683e-09 2.10752e-09)
(-1.3382e-10 7.83662e-11 1.61379e-11)
(-3.96926e-10 2.2795e-10 4.7884e-11)
(-6.64971e-10 3.66908e-10 8.02379e-11)
(-9.64949e-10 5.00582e-10 1.16358e-10)
(-1.32591e-09 6.31437e-10 1.59509e-10)
(-1.783e-09 7.58487e-10 2.13497e-10)
(-2.38155e-09 8.75833e-10 2.83121e-10)
(-3.18173e-09 9.70141e-10 3.7468e-10)
(-4.26335e-09 1.01657e-09 4.96588e-10)
(-5.72958e-09 9.73043e-10 6.59993e-10)
(-7.70603e-09 7.73264e-10 8.7921e-10)
(-1.03194e-08 3.18795e-10 1.17042e-09)
(-1.36437e-08 -5.06442e-10 1.54769e-09)
(-1.75553e-08 -1.78135e-09 2.00889e-09)
(-2.14959e-08 -3.42381e-09 2.50615e-09)
(-2.4166e-08 -4.86246e-09 2.88411e-09)
(-1.72534e-10 1.06391e-10 2.14398e-11)
(-5.10828e-10 3.09838e-10 6.35323e-11)
(-8.52788e-10 5.00078e-10 1.06191e-10)
(-1.23043e-09 6.85036e-10 1.53319e-10)
(-1.67791e-09 8.69639e-10 2.0889e-10)
(-2.23552e-09 1.05524e-09 2.77371e-10)
(-2.95407e-09 1.23853e-09 3.64163e-10)
(-3.89982e-09 1.40946e-09 4.76056e-10)
(-5.15988e-09 1.54802e-09 6.21689e-10)
(-6.84715e-09 1.61927e-09 8.11891e-10)
(-9.1017e-09 1.56719e-09 1.05951e-09)
(-1.20793e-08 1.30844e-09 1.37787e-09)
(-1.59115e-08 7.30975e-10 1.77636e-09)
(-2.05497e-08 -2.58368e-10 2.24556e-09)
(-2.54469e-08 -1.61534e-09 2.72832e-09)
(-2.90435e-08 -2.86218e-09 3.07481e-09)
(-1.99502e-10 1.31241e-10 2.58342e-11)
(-5.89222e-10 3.82702e-10 7.64291e-11)
(-9.78668e-10 6.19276e-10 1.27301e-10)
(-1.40129e-09 8.51943e-10 1.828e-10)
(-1.8917e-09 1.08876e-09 2.47197e-10)
(-2.48915e-09 1.33475e-09 3.2506e-10)
(-3.24117e-09 1.59161e-09 4.21574e-10)
(-4.20746e-09 1.85688e-09 5.4281e-10)
(-5.46403e-09 2.12256e-09 6.95838e-10)
(-7.10749e-09 2.37305e-09 8.88547e-10)
(-9.25868e-09 2.58206e-09 1.12883e-09)
(-1.20629e-08 2.70798e-09 1.42257e-09)
(-1.56789e-08 2.6868e-09 1.76971e-09)
(-2.01875e-08 2.42623e-09 2.15376e-09)
(-2.52775e-08 1.8635e-09 2.52249e-09)
(-2.94901e-08 1.15917e-09 2.76748e-09)
(-2.14216e-10 1.51899e-10 2.92654e-11)
(-6.30735e-10 4.43491e-10 8.64179e-11)
(-1.04097e-09 7.19416e-10 1.43365e-10)
(-1.47635e-09 9.93715e-10 2.04609e-10)
(-1.96795e-09 1.27777e-09 2.74381e-10)
(-2.54882e-09 1.58078e-09 3.56904e-10)
(-3.25622e-09 1.91039e-09 4.5657e-10)
(-4.13322e-09 2.27333e-09 5.77929e-10)
(-5.2298e-09 2.67631e-09 7.25422e-10)
(-6.60332e-09 3.12751e-09 9.02604e-10)
(-8.31881e-09 3.63864e-09 1.11066e-09)
(-1.04509e-08 4.22602e-09 1.34589e-09)
(-1.30916e-08 4.90424e-09 1.59636e-09)
(-1.63444e-08 5.64966e-09 1.83744e-09)
(-2.0178e-08 6.31411e-09 2.0285e-09)
(-2.38109e-08 6.57271e-09 2.12654e-09)
(-2.17399e-10 1.67372e-10 3.17571e-11)
(-6.37763e-10 4.89236e-10 9.35916e-11)
(-1.0446e-09 7.95381e-10 1.54613e-10)
(-1.46464e-09 1.10249e-09 2.19241e-10)
(-1.92261e-09 1.4249e-09 2.91431e-10)
(-2.44221e-09 1.77551e-09 3.74798e-10)
(-3.04647e-09 2.1672e-09 4.72665e-10)
(-3.75679e-09 2.6145e-09 5.87805e-10)
(-4.59007e-09 3.1362e-09 7.21843e-10)
(-5.55331e-09 3.7595e-09 8.74069e-10)
(-6.63501e-09 4.5264e-09 1.03948e-09)
(-7.79368e-09 5.50253e-09 1.20593e-09)
(-8.9482e-09 6.78464e-09 1.35101e-09)
(-9.9829e-09 8.48147e-09 1.44081e-09)
(-1.07967e-08 1.05613e-08 1.4401e-09)
(-1.14795e-08 1.23995e-08 1.364e-09)
(-2.10737e-10 1.76807e-10 3.33952e-11)
(-6.15601e-10 5.17368e-10 9.82303e-11)
(-9.99392e-10 8.42678e-10 1.61589e-10)
(-1.38255e-09 1.17135e-09 2.27664e-10)
(-1.78209e-09 1.51974e-09 2.99988e-10)
(-2.21139e-09 1.90326e-09 3.81506e-10)
(-2.6789e-09 2.33802e-09 4.7447e-10)
(-3.18505e-09 2.84287e-09 5.80072e-10)
(-3.71636e-09 3.44227e-09 6.97683e-10)
(-4.23552e-09 4.17068e-09 8.2357e-10)
(-4.66531e-09 5.07888e-09 9.4898e-10)
(-4.86364e-09 6.24277e-09 1.05771e-09)
(-4.58482e-09 7.7756e-09 1.12387e-09)
(-3.42442e-09 9.84307e-09 1.11179e-09)
(-8.17257e-10 1.26308e-08 9.85905e-10)
(3.47039e-09 1.60218e-08 7.55438e-10)
(-3.00871e-11 1.65671e-11 2.53895e-12)
(-8.95608e-11 4.81801e-11 7.55265e-12)
(-1.5083e-10 7.73456e-11 1.27028e-11)
(-2.20445e-10 1.04959e-10 1.85069e-11)
(-3.05701e-10 1.31214e-10 2.55306e-11)
(-4.15561e-10 1.55304e-10 3.445e-11)
(-5.61718e-10 1.74921e-10 4.6139e-11)
(-7.59661e-10 1.85435e-10 6.17697e-11)
(-1.02952e-09 1.78612e-10 8.29225e-11)
(-1.39594e-09 1.40875e-10 1.11681e-10)
(-1.88557e-09 5.13393e-11 1.50631e-10)
(-2.53058e-09 -1.17872e-10 2.03477e-10)
(-3.33743e-09 -3.99317e-10 2.7294e-10)
(-4.27133e-09 -8.16126e-10 3.59387e-10)
(-5.22547e-09 -1.34536e-09 4.56062e-10)
(-5.96285e-09 -1.82365e-09 5.3676e-10)
(-8.73799e-11 4.90397e-11 7.44604e-12)
(-2.59427e-10 1.42395e-10 2.20917e-11)
(-4.3611e-10 2.28707e-10 3.71004e-11)
(-6.36172e-10 3.10912e-10 5.39619e-11)
(-8.8e-10 3.89834e-10 7.42718e-11)
(-1.19261e-09 4.63632e-10 9.99203e-11)
(-1.60654e-09 5.26502e-10 1.33328e-10)
(-2.16495e-09 5.66531e-10 1.77712e-10)
(-2.92432e-09 5.62371e-10 2.37384e-10)
(-3.95509e-09 4.78768e-10 3.18001e-10)
(-5.34208e-09 2.60714e-10 4.2702e-10)
(-7.16022e-09 -1.6834e-10 5.72497e-10)
(-9.43734e-09 -8.92962e-10 7.61168e-10)
(-1.20545e-08 -1.97052e-09 9.90653e-10)
(-1.46292e-08 -3.3272e-09 1.23614e-09)
(-1.63682e-08 -4.51175e-09 1.42208e-09)
(-1.37285e-10 7.992e-11 1.19344e-11)
(-4.07264e-10 2.32365e-10 3.5395e-11)
(-6.83153e-10 3.74059e-10 5.93188e-11)
(-9.92725e-10 5.10141e-10 8.60019e-11)
(-1.36624e-09 6.42938e-10 1.17844e-10)
(-1.84026e-09 7.71101e-10 1.57628e-10)
(-2.46185e-09 8.88066e-10 2.0883e-10)
(-3.29308e-09 9.79371e-10 2.75962e-10)
(-4.41559e-09 1.01855e-09 3.64926e-10)
(-5.93346e-09 9.61318e-10 4.83318e-10)
(-7.9706e-09 7.38944e-10 6.40396e-10)
(-1.06459e-08 2.50961e-10 8.45534e-10)
(-1.40157e-08 -6.18217e-10 1.10456e-09)
(-1.79267e-08 -1.94235e-09 1.40922e-09)
(-2.17897e-08 -3.62851e-09 1.71911e-09)
(-2.43312e-08 -5.09188e-09 1.93492e-09)
(-1.76963e-10 1.08526e-10 1.58543e-11)
(-5.24186e-10 3.16033e-10 4.69743e-11)
(-8.75987e-10 5.1001e-10 7.85016e-11)
(-1.26565e-09 6.98377e-10 1.13304e-10)
(-1.7288e-09 8.85905e-10 1.54295e-10)
(-2.30745e-09 1.07353e-09 2.04737e-10)
(-3.05449e-09 1.25712e-09 2.68533e-10)
(-4.0386e-09 1.42528e-09 3.50523e-10)
(-5.3493e-09 1.55582e-09 4.56726e-10)
(-7.10112e-09 1.61075e-09 5.94392e-10)
(-9.43311e-09 1.52994e-09 7.71513e-10)
(-1.24939e-08 1.22549e-09 9.95012e-10)
(-1.63973e-08 5.81351e-10 1.26665e-09)
(-2.10626e-08 -4.9538e-10 1.5721e-09)
(-2.59082e-08 -1.9509e-09 1.86439e-09)
(-2.93939e-08 -3.27685e-09 2.05138e-09)
(-2.04566e-10 1.33917e-10 1.91032e-11)
(-6.04484e-10 3.90486e-10 5.6507e-11)
(-1.00503e-09 6.31789e-10 9.40962e-11)
(-1.44109e-09 8.68885e-10 1.35066e-10)
(-1.94886e-09 1.10971e-09 1.82551e-10)
(-2.56942e-09 1.35889e-09 2.39873e-10)
(-3.35257e-09 1.61727e-09 3.10774e-10)
(-4.36059e-09 1.88089e-09 3.99552e-10)
(-5.67226e-09 2.13934e-09 5.11069e-10)
(-7.38637e-09 2.3733e-09 6.50428e-10)
(-9.62379e-09 2.55116e-09 8.22038e-10)
(-1.25246e-08 2.62438e-09 1.02754e-09)
(-1.62325e-08 2.52136e-09 1.26212e-09)
(-2.0799e-08 2.14563e-09 1.50677e-09)
(-2.58793e-08 1.44378e-09 1.71885e-09)
(-3.00239e-08 6.20929e-10 1.83607e-09)
(-2.19566e-10 1.55037e-10 2.16379e-11)
(-6.46821e-10 4.52638e-10 6.38857e-11)
(-1.06862e-09 7.34188e-10 1.05954e-10)
(-1.51784e-09 1.01388e-09 1.51153e-10)
(-2.02709e-09 1.30305e-09 2.02579e-10)
(-2.63124e-09 1.61054e-09 2.633e-10)
(-3.36969e-09 1.94321e-09 3.36469e-10)
(-4.28804e-09 2.30631e-09 4.25283e-10)
(-5.43896e-09 2.70404e-09 5.32702e-10)
(-6.88217e-09 3.14065e-09 6.60765e-10)
(-8.68326e-09 3.62201e-09 8.09238e-10)
(-1.09129e-08 4.15659e-09 9.73356e-10)
(-1.36503e-08 4.75019e-09 1.14078e-09)
(-1.69725e-08 5.37445e-09 1.28826e-09)
(-2.08166e-08 5.8935e-09 1.383e-09)
(-2.44099e-08 6.03041e-09 1.40713e-09)
(-2.22711e-10 1.70867e-10 2.34774e-11)
(-6.53698e-10 4.99458e-10 6.91807e-11)
(-1.07184e-09 8.11955e-10 1.14249e-10)
(-1.50522e-09 1.1253e-09 1.61935e-10)
(-1.97996e-09 1.45382e-09 2.15118e-10)
(-2.52138e-09 1.81016e-09 2.76428e-10)
(-3.15442e-09 2.2065e-09 3.48233e-10)
(-3.90265e-09 2.65599e-09 4.32444e-10)
(-4.78534e-09 3.175e-09 5.30022e-10)
(-5.81146e-09 3.78688e-09 6.40039e-10)
(-6.96982e-09 4.52793e-09 7.58097e-10)
(-8.21482e-09 5.45627e-09 8.74046e-10)
(-9.45171e-09 6.66149e-09 9.69374e-10)
(-1.05348e-08 8.25248e-09 1.01629e-09)
(-1.13225e-08 1.0221e-08 9.87728e-10)