/*--------------------------------*- C++ -*----------------------------------*\
| =========                 |                                                 |
| \\      /  F ield         | foam-extend: Open Source CFD                    |
|  \\    /   O peration     | Version:     3.1                                |
|   \\  /    A nd           | Web:         http://www.extend-project.de       |
|    \\/     M anipulation  |                                                 |
\*---------------------------------------------------------------------------*/
FoamFile
{
    version     2.0;
    format      ascii;
    class       volScalarField;
    location    "0.9";
    object      p;
}
// * * * * * * * * * * * * * * * * * * * * * * * * * * * * * * * * * * * * * //

dimensions      [0 2 -2 0 0 0 0];

internalField   nonuniform List<scalar> 
14592
(
0.152989
0.152424
0.151306
0.149707
0.147825
0.145783
0.143666
0.141531
0.139415
0.137346
0.13534
0.133406
0.131539
0.12971
0.127859
0.126069
0.153109
0.152218
0.151063
0.149492
0.147635
0.14561
0.143502
0.141371
0.139258
0.137194
0.135203
0.133301
0.131498
0.12979
0.128096
0.126272
0.153652
0.1523
0.150977
0.149367
0.147485
0.14544
0.143313
0.141163
0.139032
0.136955
0.134958
0.133067
0.131305
0.129682
0.128103
0.126298
0.154435
0.152597
0.151017
0.149312
0.147368
0.145271
0.1431
0.14091
0.138739
0.136622
0.134589
0.132672
0.130902
0.129304
0.127802
0.126141
0.155266
0.152992
0.151127
0.149293
0.147264
0.145096
0.142863
0.140613
0.138383
0.136201
0.134099
0.132111
0.130278
0.128646
0.127188
0.125749
0.155994
0.153372
0.151246
0.149275
0.147152
0.144904
0.1426
0.140276
0.137967
0.135696
0.133491
0.131383
0.129421
0.127675
0.126192
0.124961
0.156497
0.153631
0.151305
0.149216
0.147008
0.144683
0.1423
0.139901
0.137501
0.13512
0.132778
0.130498
0.128324
0.126342
0.12469
0.123437
0.156695
0.153696
0.151256
0.149089
0.146816
0.144425
0.141979
0.1395
0.137003
0.134498
0.131993
0.129492
0.127007
0.124586
0.122395
0.120103
0.153839
0.153243
0.152083
0.150432
0.148504
0.146439
0.144329
0.142237
0.140209
0.138283
0.13649
0.134863
0.133439
0.132242
0.131344
0.131187
0.153984
0.153032
0.151825
0.150202
0.148304
0.146259
0.144161
0.142078
0.140059
0.138145
0.136377
0.134797
0.133456
0.132397
0.131681
0.131866
0.154595
0.153144
0.151746
0.150077
0.14815
0.146083
0.143967
0.141866
0.13983
0.137906
0.136138
0.13458
0.133296
0.132348
0.131799
0.132278
0.155475
0.153497
0.151811
0.150032
0.148036
0.145911
0.143747
0.141602
0.139524
0.137558
0.135754
0.134171
0.132887
0.131983
0.13154
0.13226
0.156411
0.153962
0.151956
0.150029
0.147936
0.145732
0.143499
0.141288
0.139144
0.137106
0.135224
0.133562
0.132208
0.131266
0.130852
0.131756
0.157233
0.154409
0.152109
0.150025
0.147826
0.145532
0.143219
0.140925
0.138693
0.136553
0.13455
0.132747
0.131236
0.130145
0.129627
0.130556
0.157804
0.154717
0.152192
0.149972
0.147677
0.145297
0.142895
0.140517
0.13818
0.135912
0.133747
0.131734
0.129955
0.128547
0.127687
0.128135
0.158033
0.1548
0.152147
0.149839
0.14747
0.145017
0.142544
0.140075
0.137626
0.135212
0.13285
0.130562
0.128385
0.126396
0.124709
0.123046
0.154638
0.154018
0.152822
0.151126
0.14916
0.147074
0.144969
0.142918
0.14097
0.13917
0.13756
0.136186
0.135097
0.134335
0.133991
0.134368
0.154806
0.153803
0.152552
0.150885
0.148949
0.146887
0.1448
0.14276
0.140825
0.139044
0.137467
0.136148
0.13515
0.134524
0.134367
0.135112
0.155478
0.153944
0.152482
0.150762
0.148795
0.146709
0.144602
0.142546
0.140596
0.138806
0.137232
0.13594
0.135004
0.134495
0.134523
0.135606
0.156445
0.154351
0.152573
0.150729
0.148685
0.146535
0.144376
0.142273
0.140278
0.138445
0.136832
0.135514
0.134579
0.134115
0.134256
0.135605
0.157476
0.154881
0.152752
0.150742
0.148591
0.146353
0.144119
0.141943
0.139876
0.137963
0.136266
0.13486
0.133845
0.133331
0.133475
0.134989
0.158384
0.15539
0.152939
0.150752
0.148483
0.146146
0.143823
0.141557
0.139391
0.137365
0.135533
0.133966
0.13277
0.132069
0.132038
0.133491
0.159016
0.155742
0.153044
0.150706
0.148329
0.145898
0.143476
0.141116
0.138834
0.136664
0.134647
0.13284
0.131333
0.130248
0.129736
0.130487
0.15927
0.155842
0.153004
0.150567
0.148109
0.145595
0.143097
0.140635
0.138227
0.135892
0.13365
0.131526
0.129558
0.127796
0.126267
0.124412
0.155355
0.154716
0.153492
0.151759
0.149759
0.147655
0.145557
0.143539
0.141658
0.139963
0.1385
0.137319
0.136472
0.135998
0.135973
0.136559
0.155543
0.154499
0.153213
0.151509
0.149542
0.147464
0.145385
0.143384
0.14152
0.139848
0.138422
0.137301
0.136546
0.136203
0.136359
0.137293
0.156268
0.154666
0.153153
0.151389
0.149388
0.147284
0.145186
0.143168
0.141289
0.13961
0.138189
0.137095
0.136403
0.136172
0.136512
0.137783
0.157311
0.155121
0.153267
0.151368
0.149282
0.147111
0.144955
0.142886
0.140961
0.139236
0.137774
0.136652
0.135956
0.135765
0.136211
0.137748
0.158424
0.155709
0.153478
0.151397
0.149194
0.146927
0.14469
0.142543
0.14054
0.138729
0.137175
0.135956
0.13517
0.134913
0.135339
0.137025
0.159407
0.156273
0.153695
0.151421
0.14909
0.146715
0.144381
0.142136
0.140026
0.138091
0.13639
0.134995
0.134006
0.133532
0.133731
0.135304
0.160092
0.156663
0.153821
0.151381
0.148932
0.146455
0.144014
0.141666
0.139429
0.137338
0.135434
0.133775
0.132443
0.131535
0.131162
0.131913
0.160368
0.156779
0.153785
0.151236
0.148698
0.146131
0.143608
0.14115
0.138776
0.136503
0.134352
0.132345
0.130509
0.128861
0.127356
0.125223
0.155963
0.15531
0.154064
0.152302
0.150275
0.148157
0.146062
0.144072
0.142244
0.140629
0.139276
0.138235
0.137553
0.137263
0.137419
0.138097
0.156169
0.155092
0.153778
0.152045
0.150052
0.147962
0.14589
0.143918
0.14211
0.140522
0.139211
0.138231
0.137641
0.137475
0.137804
0.138814
0.156937
0.155282
0.153727
0.151929
0.149899
0.147782
0.145689
0.143701
0.141878
0.140284
0.138978
0.138025
0.137494
0.137435
0.137939
0.13928
0.158042
0.155777
0.153862
0.151919
0.149799
0.147608
0.145456
0.143413
0.141542
0.139899
0.138549
0.137564
0.137024
0.136997
0.137598
0.139199
0.159224
0.156413
0.1541
0.151962
0.149717
0.147424
0.145184
0.143059
0.141105
0.139371
0.137922
0.136833
0.136194
0.136086
0.136648
0.138383
0.160267
0.157022
0.154344
0.151997
0.149615
0.147207
0.144864
0.142634
0.140566
0.1387
0.137094
0.135817
0.134959
0.134611
0.13491
0.136499
0.160995
0.157446
0.154487
0.151963
0.149454
0.146937
0.144479
0.14214
0.139937
0.137904
0.136081
0.134523
0.133298
0.132482
0.132151
0.13284
0.161289
0.157573
0.154454
0.151813
0.149209
0.146596
0.144051
0.141594
0.139244
0.137017
0.134931
0.133003
0.131246
0.129648
0.128115
0.125738
0.15644
0.155777
0.154516
0.152731
0.150685
0.148555
0.146463
0.144492
0.142702
0.141146
0.139871
0.138925
0.138351
0.138173
0.138429
0.13915
0.156659
0.155559
0.154225
0.15247
0.150458
0.148358
0.14629
0.14434
0.142572
0.141045
0.139813
0.13893
0.138446
0.138388
0.13881
0.139854
0.157461
0.155766
0.154181
0.152357
0.150306
0.148177
0.146089
0.144123
0.14234
0.140806
0.139579
0.138721
0.138294
0.138336
0.138928
0.140295
0.158614
0.156293
0.154333
0.152357
0.15021
0.148005
0.145853
0.143829
0.141998
0.140413
0.139139
0.138245
0.137804
0.137872
0.138552
0.140173
0.159847
0.156967
0.154593
0.15241
0.150133
0.14782
0.145577
0.143467
0.141548
0.139868
0.13849
0.137487
0.136938
0.136915
0.137541
0.139286
0.160938
0.157611
0.154857
0.152456
0.150033
0.1476
0.145248
0.143029
0.14099
0.139172
0.13763
0.13643
0.135651
0.13537
0.135709
0.137286
0.161699
0.15806
0.155014
0.152425
0.14987
0.147322
0.14485
0.142516
0.140336
0.138343
0.136575
0.135081
0.133919
0.133147
0.132819
0.133446
0.162006
0.158196
0.154983
0.152272
0.149617
0.146967
0.144403
0.141947
0.139613
0.137417
0.135375
0.133497
0.131783
0.130203
0.128631
0.126068
0.156768
0.156099
0.154829
0.15303
0.15097
0.148832
0.146742
0.144784
0.143019
0.141499
0.140273
0.139386
0.138876
0.138762
0.139072
0.139812
0.156997
0.155883
0.154537
0.152767
0.150742
0.148635
0.14657
0.144634
0.142892
0.141403
0.140221
0.139397
0.138977
0.13898
0.139452
0.140509
0.157822
0.156102
0.154498
0.152657
0.150592
0.148455
0.146368
0.144417
0.14266
0.141164
0.139987
0.139187
0.13882
0.13892
0.139557
0.140932
0.159006
0.15665
0.154662
0.152664
0.1505
0.148284
0.146132
0.144119
0.142313
0.140765
0.139539
0.138701
0.138317
0.138436
0.139155
0.140781
0.160275
0.15735
0.154936
0.152725
0.150426
0.148099
0.145853
0.143752
0.141854
0.140209
0.138876
0.137923
0.137426
0.137447
0.138104
0.139846
0.161397
0.158019
0.155215
0.152777
0.150328
0.147877
0.145518
0.143304
0.141284
0.139496
0.137993
0.136838
0.136103
0.135856
0.13621
0.137771
0.16218
0.158485
0.155381
0.152749
0.150164
0.147594
0.14511
0.142779
0.140613
0.138644
0.13691
0.135453
0.134326
0.133573
0.133237
0.133818
0.162497
0.158628
0.155352
0.152593
0.149904
0.147229
0.144652
0.142194
0.139869
0.137693
0.135676
0.133827
0.132136
0.130559
0.128953
0.126265
0.156931
0.156252
0.15498
0.153175
0.151108
0.148967
0.146878
0.144926
0.143173
0.141672
0.140469
0.139609
0.139128
0.139043
0.139377
0.140123
0.157167
0.156039
0.154686
0.15291
0.150878
0.148768
0.146704
0.144775
0.143046
0.141575
0.140416
0.139619
0.139227
0.139257
0.139753
0.140813
0.158
0.156264
0.154648
0.152799
0.150727
0.148587
0.146502
0.144558
0.142813
0.141336
0.140181
0.139407
0.139068
0.139192
0.13985
0.141226
0.159198
0.156825
0.154817
0.152808
0.150636
0.148415
0.146264
0.144258
0.142464
0.140933
0.139729
0.138916
0.138557
0.138698
0.139437
0.141061
0.160484
0.157539
0.155099
0.152872
0.150564
0.148231
0.145983
0.143888
0.142001
0.140371
0.139059
0.138129
0.137654
0.137694
0.138367
0.140103
0.161621
0.15822
0.155385
0.152927
0.150467
0.148007
0.145646
0.143435
0.141424
0.13965
0.138166
0.13703
0.136314
0.13608
0.136444
0.137992
0.162415
0.158694
0.155556
0.152901
0.150301
0.147722
0.145234
0.142903
0.140744
0.138788
0.137069
0.135628
0.134515
0.133768
0.133429
0.133979
0.162736
0.15884
0.155527
0.152743
0.150038
0.147352
0.144769
0.14231
0.139991
0.137824
0.135819
0.133982
0.1323
0.130722
0.129089
0.126322
0.148439
0.14829
0.147574
0.146359
0.144762
0.142864
0.140723
0.138381
0.135856
0.133153
0.130265
0.12717
0.123842
0.12025
0.116374
0.112219
0.148468
0.148333
0.147613
0.146374
0.144749
0.142821
0.140652
0.138282
0.135731
0.133004
0.130092
0.126972
0.123619
0.120003
0.116103
0.111925
0.148594
0.148434
0.147688
0.146412
0.144745
0.142776
0.140569
0.138165
0.135582
0.132825
0.129885
0.126741
0.123365
0.119731
0.115816
0.111631
0.148764
0.148557
0.147768
0.146442
0.144725
0.142709
0.14046
0.138016
0.135399
0.132611
0.129641
0.126472
0.123075
0.119425
0.115503
0.11132
0.14893
0.148675
0.147836
0.146455
0.144685
0.14262
0.140327
0.137844
0.13519
0.132368
0.129369
0.126173
0.122756
0.119094
0.115172
0.110999
0.14906
0.148766
0.147879
0.146446
0.144623
0.142511
0.140174
0.137652
0.134961
0.132105
0.129075
0.125854
0.122419
0.11875
0.114832
0.110682
0.149132
0.14881
0.147884
0.146405
0.144538
0.142382
0.140006
0.137446
0.13472
0.131831
0.128772
0.125526
0.122076
0.118403
0.114499
0.110379
0.149133
0.148794
0.14784
0.146328
0.144425
0.142235
0.139825
0.137232
0.134474
0.131555
0.128468
0.125202
0.121739
0.118068
0.114184
0.110104
0.148458
0.148289
0.147564
0.146344
0.144747
0.142853
0.140718
0.138382
0.135866
0.133172
0.130293
0.127206
0.12388
0.120284
0.116393
0.112211
0.148445
0.148255
0.147533
0.146302
0.14469
0.142776
0.140619
0.13826
0.135721
0.133003
0.130099
0.126986
0.123635
0.120013
0.116096
0.111892
0.148564
0.148306
0.14756
0.1463
0.144655
0.142706
0.140516
0.138127
0.135557
0.132811
0.12988
0.126742
0.123367
0.119726
0.115794
0.111583
0.148745
0.148399
0.147607
0.146305
0.144615
0.142624
0.140396
0.13797
0.135366
0.13259
0.129629
0.126465
0.123069
0.119413
0.115473
0.111264
0.148924
0.148495
0.147651
0.1463
0.144561
0.142526
0.140256
0.137791
0.135153
0.132343
0.129352
0.126162
0.122745
0.119077
0.115136
0.110939
0.149066
0.148571
0.147677
0.146277
0.144491
0.14241
0.140098
0.137596
0.134921
0.132077
0.129056
0.12584
0.122405
0.118728
0.114794
0.110618
0.149146
0.148606
0.147671
0.146228
0.1444
0.142277
0.139926
0.137387
0.134677
0.131801
0.12875
0.125509
0.122058
0.118378
0.114457
0.110315
0.149149
0.148584
0.147621
0.146146
0.144281
0.142127
0.139744
0.137172
0.13443
0.131522
0.128444
0.125181
0.121718
0.11804
0.114141
0.110041
0.148709
0.148486
0.147725
0.146477
0.144863
0.142962
0.14083
0.138507
0.13601
0.133344
0.130495
0.127437
0.124131
0.120533
0.116599
0.112324
0.148692
0.148405
0.14765
0.146401
0.14478
0.142865
0.140716
0.138373
0.135856
0.133167
0.130295
0.127212
0.123879
0.120253
0.116289
0.11199
0.148838
0.148425
0.147639
0.146367
0.144719
0.142775
0.140598
0.138226
0.135681
0.132965
0.130065
0.126957
0.1236
0.119954
0.115972
0.111663
0.149061
0.148503
0.147658
0.146347
0.144658
0.142677
0.140463
0.138057
0.135479
0.132731
0.129803
0.126667
0.123288
0.119624
0.115633
0.111325
0.149285
0.148596
0.147683
0.146324
0.144589
0.142564
0.14031
0.137866
0.135254
0.132472
0.129512
0.126348
0.122946
0.119268
0.115275
0.110981
0.149467
0.148673
0.147698
0.14629
0.144507
0.142438
0.140143
0.137661
0.13501
0.132193
0.129199
0.126006
0.122583
0.118895
0.114909
0.110641
0.149574
0.148709
0.147684
0.146232
0.144407
0.142296
0.139962
0.137442
0.134755
0.131902
0.128875
0.125654
0.122211
0.118518
0.114548
0.110318
0.14959
0.148686
0.147628
0.146144
0.144284
0.14214
0.139772
0.137218
0.134495
0.131609
0.12855
0.125303
0.121844
0.118151
0.114205
0.110027
0.149157
0.148864
0.148049
0.146755
0.14511
0.143194
0.141064
0.138757
0.136293
0.133672
0.130879
0.127878
0.124618
0.12103
0.117032
0.112597
0.149156
0.14875
0.147938
0.146652
0.145007
0.143083
0.14094
0.138617
0.136135
0.133494
0.130678
0.127653
0.124366
0.120749
0.116716
0.112253
0.149348
0.148754
0.147896
0.146592
0.144924
0.142975
0.140806
0.138458
0.135949
0.133282
0.13044
0.12739
0.124078
0.120439
0.116384
0.111907
0.149639
0.148836
0.147896
0.146551
0.144845
0.142859
0.140656
0.138274
0.135733
0.133034
0.130161
0.127083
0.123746
0.120088
0.11602
0.111542
0.149934
0.148943
0.147912
0.146515
0.144761
0.142733
0.14049
0.138069
0.135492
0.132756
0.129849
0.126738
0.123375
0.1197
0.115628
0.111166
0.150178
0.149039
0.147922
0.146471
0.144669
0.142594
0.140309
0.137848
0.13523
0.132455
0.12951
0.126364
0.122974
0.119284
0.11522
0.110791
0.150331
0.14909
0.147906
0.146407
0.144559
0.142442
0.140115
0.137614
0.134955
0.132139
0.129154
0.125972
0.122555
0.118855
0.114809
0.110431
0.150366
0.149071
0.147846
0.146313
0.144429
0.142275
0.139912
0.137373
0.134675
0.131819
0.128794
0.125578
0.122136
0.118431
0.114413
0.110101
0.149755
0.149391
0.148511
0.147161
0.145476
0.143539
0.14141
0.139126
0.136707
0.134152
0.131443
0.128536
0.12536
0.121813
0.117747
0.113085
0.149773
0.149247
0.148367
0.147032
0.145353
0.143414
0.141276
0.13898
0.136545
0.133972
0.131243
0.128315
0.125113
0.121538
0.117431
0.112743
0.150026
0.149249
0.148301
0.146948
0.145249
0.143289
0.141128
0.138808
0.136348
0.13375
0.130997
0.128043
0.124818
0.12122
0.117084
0.112375
0.150401
0.149351
0.148291
0.146893
0.145155
0.143158
0.140963
0.138609
0.136116
0.133486
0.1307
0.127716
0.124463
0.120842
0.116689
0.111975
0.150786
0.149492
0.148307
0.146848
0.14506
0.143018
0.140781
0.138387
0.135856
0.133186
0.13036
0.127339
0.124054
0.120411
0.116253
0.111558
0.151112
0.149624
0.148323
0.146801
0.144959
0.142867
0.140585
0.138147
0.135571
0.132856
0.129984
0.12692
0.123598
0.119935
0.115785
0.111134
0.151323
0.149701
0.148311
0.146732
0.144841
0.142702
0.140375
0.137893
0.135269
0.132505
0.129583
0.126471
0.123111
0.119428
0.115298
0.110716
0.151386
0.149693
0.148249
0.146631
0.1447
0.142522
0.140155
0.13763
0.13496
0.132147
0.129174
0.126011
0.122611
0.118911
0.11481
0.110316
0.15047
0.150042
0.149097
0.147684
0.145951
0.143989
0.141861
0.139606
0.137245
0.134779
0.13219
0.129427
0.126398
0.122951
0.118831
0.113843
0.150511
0.149876
0.148921
0.147529
0.145809
0.14385
0.141718
0.139454
0.137081
0.134601
0.131996
0.129216
0.126165
0.122689
0.118508
0.113473
0.150833
0.149886
0.14884
0.147427
0.145688
0.14371
0.141556
0.13927
0.136874
0.134371
0.131743
0.128941
0.125867
0.122364
0.118138
0.113053
0.151305
0.150023
0.14883
0.147363
0.145582
0.143566
0.141377
0.139057
0.136626
0.134089
0.131427
0.128592
0.125488
0.121959
0.117706
0.112606
0.151795
0.150215
0.148858
0.147317
0.14548
0.143414
0.141181
0.138816
0.136344
0.133762
0.131054
0.128175
0.125033
0.121478
0.117219
0.11215
0.152215
0.150398
0.148889
0.147271
0.145373
0.143252
0.140968
0.138555
0.136031
0.133396
0.130632
0.127697
0.124507
0.120923
0.116678
0.111684
0.152495
0.150513
0.148888
0.147201
0.145247
0.143074
0.140738
0.138275
0.135696
0.133001
0.130172
0.127172
0.123923
0.120307
0.116089
0.111208
0.152591
0.150519
0.148827
0.147094
0.145095
0.142878
0.140499
0.137985
0.13535
0.132592
0.129694
0.126621
0.123306
0.11965
0.115466
0.110723
0.15127
0.150788
0.149779
0.148301
0.146518
0.144529
0.142402
0.140183
0.137894
0.135542
0.133113
0.130561
0.127783
0.124567
0.120466
0.114899
0.151337
0.150604
0.149577
0.148124
0.146358
0.144377
0.142251
0.140026
0.137729
0.135369
0.132932
0.130373
0.127584
0.12434
0.120114
0.114266
0.151732
0.150632
0.149487
0.148009
0.146224
0.144224
0.142078
0.139833
0.137514
0.135133
0.132677
0.130102
0.127298
0.124027
0.119711
0.113668
0.152308
0.150817
0.149488
0.147943
0.146111
0.144069
0.141886
0.139605
0.13725
0.134833
0.132342
0.129734
0.126901
0.123603
0.11925
0.113158
0.152911
0.151071
0.149537
0.147902
0.146005
0.143908
0.141675
0.139345
0.136944
0.134476
0.131932
0.129272
0.126393
0.123066
0.11872
0.112703
0.153433
0.151315
0.149592
0.147861
0.145894
0.143735
0.141446
0.13906
0.1366
0.134068
0.131454
0.128722
0.125776
0.12241
0.118098
0.112252
0.153788
0.151475
0.149607
0.147793
0.145761
0.143543
0.141194
0.138751
0.136225
0.133619
0.130921
0.128096
0.12506
0.121637
0.117371
0.111776
0.153919
0.1515
0.149549
0.147679
0.145597
0.143328
0.14093
0.138428
0.135834
0.133148
0.130356
0.127422
0.124271
0.12076
0.116536
0.111259
0.152121
0.151594
0.150527
0.148986
0.147152
0.145136
0.143013
0.140834
0.138629
0.136413
0.134185
0.131919
0.129541
0.126862
0.123319
0.117424
0.152215
0.151397
0.150302
0.148788
0.146976
0.144973
0.142855
0.140675
0.138467
0.136249
0.134024
0.131769
0.129414
0.126758
0.123089
0.116417
0.152685
0.15145
0.150212
0.148666
0.146833
0.14481
0.142673
0.140474
0.138246
0.13601
0.133772
0.131514
0.129168
0.12652
0.12277
0.115676
0.153366
0.15169
0.15023
0.148604
0.146716
0.144647
0.142469
0.140232
0.137966
0.135693
0.133419
0.131131
0.128764
0.126106
0.122343
0.115192
0.154085
0.152013
0.150307
0.148572
0.14661
0.144477
0.142245
0.139954
0.137635
0.135304
0.13297
0.130621
0.128199
0.12551
0.121781
0.114814
0.154711
0.152324
0.150392
0.148541
0.146497
0.144294
0.141998
0.139643
0.137256
0.134849
0.132428
0.129984
0.127468
0.124713
0.12103
0.1144
0.15514
0.152533
0.150428
0.148477
0.146358
0.144088
0.141723
0.139302
0.136837
0.134339
0.131809
0.129235
0.126575
0.123695
0.120033
0.113831
0.155306
0.152578
0.150374
0.148356
0.146181
0.143853
0.141432
0.138941
0.136394
0.133795
0.131138
0.128404
0.125543
0.122441
0.118693
0.11292
0.156531
0.153528
0.151076
0.148887
0.14658
0.144147
0.141643
0.139091
0.136498
0.133867
0.131189
0.128444
0.125585
0.122508
0.118824
0.113021
0.156055
0.153153
0.150785
0.148625
0.146315
0.143859
0.141312
0.138696
0.136017
0.133268
0.130431
0.127468
0.1243
0.120779
0.116501
0.111078
0.1553
0.152619
0.150425
0.148336
0.146047
0.143584
0.141007
0.138339
0.135584
0.132735
0.129769
0.126644
0.123285
0.119585
0.115315
0.110494
0.15437
0.152026
0.150068
0.148068
0.145809
0.143348
0.140749
0.138038
0.135221
0.132293
0.129229
0.125994
0.122529
0.118764
0.114575
0.109998
0.1534
0.151489
0.149787
0.147868
0.145635
0.143175
0.140555
0.137807
0.134941
0.131951
0.128819
0.125513
0.121991
0.118207
0.114099
0.109694
0.152544
0.15112
0.149639
0.147767
0.145543
0.143075
0.140433
0.137654
0.134749
0.131716
0.128537
0.125189
0.121639
0.117859
0.113821
0.10955
0.151992
0.151018
0.149664
0.147791
0.145549
0.143059
0.140391
0.137586
0.134655
0.131595
0.128391
0.125021
0.121462
0.117691
0.113697
0.109504
0.151902
0.151228
0.149874
0.147942
0.14565
0.143121
0.140427
0.137603
0.134659
0.13159
0.12838
0.125007
0.121447
0.117679
0.113696
0.109518
0.157856
0.154617
0.151949
0.149616
0.147211
0.144711
0.142174
0.139621
0.137061
0.134497
0.131924
0.129328
0.126665
0.123809
0.120214
0.113819
0.157323
0.154193
0.15162
0.149323
0.146916
0.144391
0.141806
0.139181
0.136519
0.133815
0.131048
0.128176
0.12511
0.121661
0.117295
0.111429
0.156478
0.153586
0.15121
0.148997
0.146615
0.144084
0.141466
0.138781
0.136033
0.133209
0.130284
0.127208
0.123894
0.120205
0.115849
0.110827
0.155436
0.152908
0.150797
0.148691
0.146347
0.143821
0.141178
0.138445
0.135624
0.132706
0.129663
0.12645
0.122998
0.11922
0.114956
0.110245
0.15435
0.152291
0.150471
0.148461
0.146149
0.143626
0.140962
0.138187
0.135309
0.132319
0.129192
0.125892
0.122366
0.118556
0.114381
0.109868
0.153393
0.151861
0.150293
0.148342
0.146043
0.143514
0.140826
0.138016
0.135094
0.132052
0.12887
0.125517
0.121954
0.118144
0.114046
0.109687
0.152774
0.151731
0.150311
0.148362
0.146047
0.143494
0.140779
0.13794
0.134988
0.131915
0.128703
0.125324
0.121747
0.117944
0.113896
0.109628
0.152662
0.151949
0.150535
0.148526
0.146158
0.143563
0.140818
0.137959
0.134992
0.13191
0.12869
0.125307
0.121728
0.117929
0.113894
0.109643
0.159083
0.155644
0.152789
0.150325
0.147827
0.145263
0.142693
0.140137
0.137605
0.135099
0.132614
0.130134
0.127604
0.124858
0.121229
0.114297
0.158498
0.155174
0.152424
0.150001
0.147503
0.144912
0.142289
0.139654
0.137007
0.13434
0.131631
0.128832
0.125835
0.122414
0.117941
0.111713
0.157569
0.154499
0.151963
0.149637
0.147169
0.144574
0.141915
0.139213
0.136468
0.133665
0.130774
0.127738
0.124453
0.120758
0.116309
0.111101
0.156425
0.153741
0.151498
0.149294
0.14687
0.144282
0.141598
0.138842
0.136016
0.133106
0.130079
0.126883
0.123437
0.119639
0.115299
0.11046
0.155234
0.15305
0.151126
0.149033
0.146648
0.144065
0.141358
0.138557
0.135667
0.132675
0.129552
0.126255
0.122721
0.118884
0.114643
0.110031
0.154186
0.152563
0.150919
0.148895
0.146527
0.143939
0.141208
0.138368
0.135429
0.132379
0.129192
0.125834
0.122256
0.118415
0.114261
0.10982
0.153506
0.152406
0.150927
0.148911
0.146528
0.143916
0.141155
0.138284
0.135311
0.132226
0.129005
0.125616
0.122021
0.118187
0.114088
0.109749
0.153373
0.152629
0.151163
0.149085
0.146646
0.14399
0.141197
0.138304
0.135315
0.132219
0.12899
0.125596
0.122
0.118169
0.114085
0.109765
0.160169
0.156566
0.153554
0.150976
0.148396
0.145774
0.143173
0.140613
0.138102
0.135641
0.133224
0.130826
0.12838
0.125678
0.121969
0.114581
0.159538
0.156057
0.153156
0.150623
0.148044
0.145394
0.142736
0.140089
0.137453
0.134816
0.132151
0.129403
0.126449
0.123027
0.118443
0.111919
0.158537
0.155321
0.15265
0.150225
0.14768
0.145026
0.14233
0.139612
0.136868
0.134081
0.131215
0.128206
0.124937
0.121224
0.116685
0.111315
0.157304
0.154492
0.152137
0.149848
0.147353
0.144708
0.141985
0.139209
0.136376
0.133471
0.130455
0.127271
0.123825
0.120001
0.11559
0.110639
0.156021
0.153733
0.151723
0.149558
0.147107
0.14447
0.141724
0.138899
0.135997
0.133001
0.12988
0.126583
0.12304
0.119175
0.114874
0.110173
0.154894
0.153196
0.151488
0.149402
0.146972
0.144331
0.14156
0.138693
0.135737
0.132678
0.129487
0.126121
0.122529
0.118659
0.114453
0.10994
0.154161
0.153014
0.151487
0.149412
0.146969
0.144304
0.141502
0.138601
0.135609
0.132511
0.129282
0.125882
0.122271
0.118408
0.114263
0.109859
0.154011
0.153241
0.151731
0.149594
0.147092
0.144381
0.141546
0.138621
0.135613
0.132503
0.129265
0.12586
0.122247
0.118388
0.114259
0.109877
0.161081
0.157348
0.15421
0.151537
0.148889
0.146218
0.143589
0.141024
0.138528
0.1361
0.13373
0.131388
0.128989
0.126296
0.122497
0.114745
0.160411
0.156805
0.153783
0.15116
0.148513
0.145813
0.143124
0.140466
0.137836
0.13522
0.132586
0.129872
0.12694
0.123501
0.118817
0.112059
0.15935
0.156018
0.153238
0.150732
0.148123
0.145419
0.142691
0.139957
0.137212
0.134435
0.131587
0.128595
0.125331
0.121594
0.116977
0.111476
0.158043
0.15513
0.152684
0.150325
0.14777
0.145077
0.142321
0.139526
0.136687
0.133783
0.130775
0.127596
0.124146
0.120297
0.115824
0.110781
0.156684
0.154315
0.152235
0.15001
0.147504
0.144821
0.142042
0.139195
0.136281
0.133282
0.13016
0.126861
0.123307
0.119416
0.115064
0.110289
0.155492
0.153735
0.151975
0.149837
0.147356
0.144671
0.141865
0.138974
0.136004
0.132936
0.129739
0.126367
0.122761
0.118865
0.114615
0.110041
0.154715
0.15353
0.151965
0.149842
0.147348
0.144639
0.141801
0.138875
0.135866
0.132758
0.12952
0.126111
0.122484
0.118596
0.114411
0.109954
0.15455
0.15376
0.152216
0.15003
0.147477
0.144719
0.141847
0.138896
0.135869
0.132748
0.129501
0.126086
0.122458
0.118574
0.114406
0.109972
0.16179
0.157961
0.154728
0.151983
0.149281
0.146572
0.143921
0.14135
0.138864
0.136458
0.13412
0.131812
0.129438
0.126738
0.12286
0.114843
0.161091
0.157392
0.154279
0.151587
0.148887
0.146147
0.143433
0.140766
0.138139
0.135536
0.132923
0.130229
0.127306
0.123847
0.119082
0.11215
0.159983
0.156565
0.153704
0.151135
0.148475
0.145732
0.142978
0.140231
0.137484
0.134714
0.131877
0.128895
0.125629
0.12187
0.11719
0.11159
0.158619
0.15563
0.153117
0.150703
0.148102
0.145372
0.142589
0.139779
0.136933
0.13403
0.131026
0.127849
0.124392
0.12052
0.115999
0.110885
0.157202
0.154771
0.152639
0.150369
0.14782
0.145101
0.142295
0.139431
0.136508
0.133504
0.130381
0.127078
0.123515
0.119602
0.115209
0.110377
0.15596
0.154158
0.15236
0.150182
0.147661
0.144941
0.142108
0.139198
0.136216
0.133141
0.129939
0.12656
0.122943
0.119025
0.11474
0.110119
0.155149
0.153937
0.152342
0.150182
0.14765
0.144905
0.14204
0.139093
0.13607
0.132953
0.129708
0.126292
0.122652
0.118743
0.114527
0.110028
0.154972
0.154168
0.152599
0.150375
0.147782
0.144988
0.142086
0.139114
0.136073
0.132943
0.129688
0.126265
0.122624
0.11872
0.114522
0.110047
0.162274
0.158386
0.155089
0.152296
0.149558
0.146822
0.144155
0.141579
0.139098
0.136705
0.134386
0.132097
0.129736
0.127026
0.123093
0.114902
0.161556
0.157798
0.154624
0.151886
0.149151
0.146383
0.143651
0.140976
0.13835
0.135756
0.133154
0.130472
0.127551
0.124074
0.119253
0.112205
0.160416
0.156943
0.154028
0.151418
0.148724
0.145954
0.143181
0.140424
0.137675
0.134908
0.132077
0.129099
0.125831
0.122053
0.11733
0.111662
0.159014
0.155977
0.153419
0.150969
0.148337
0.14558
0.142779
0.139957
0.137106
0.134203
0.131199
0.128022
0.124559
0.120671
0.116116
0.110954
0.157557
0.155088
0.152921
0.150621
0.148043
0.145298
0.142473
0.139597
0.136666
0.13366
0.130534
0.127229
0.123658
0.119728
0.115308
0.110438
0.156281
0.154452
0.152629
0.150425
0.147876
0.145131
0.142279
0.139356
0.136365
0.133285
0.130079
0.126695
0.123068
0.119135
0.114827
0.110173
0.155448
0.154218
0.152605
0.150421
0.147861
0.145093
0.142208
0.139247
0.136214
0.13309
0.12984
0.126417
0.122768
0.118845
0.114607
0.110079
0.155262
0.154449
0.152864
0.150615
0.147994
0.145176
0.142254
0.139267
0.136216
0.133078
0.129818
0.126389
0.122739
0.118821
0.114602
0.110099
0.162511
0.158595
0.155261
0.152441
0.149688
0.146939
0.144265
0.141687
0.139209
0.136823
0.134512
0.132233
0.129877
0.127165
0.123213
0.114931
0.161782
0.157998
0.154788
0.152025
0.149273
0.146493
0.143754
0.141075
0.138451
0.13586
0.133265
0.130587
0.127668
0.124182
0.119333
0.112204
0.160627
0.15713
0.154181
0.151549
0.14884
0.146057
0.143276
0.140515
0.137765
0.135
0.132172
0.129196
0.125926
0.122137
0.117392
0.111678
0.159207
0.156147
0.15356
0.151093
0.148446
0.145677
0.142867
0.14004
0.137188
0.134285
0.131282
0.128105
0.124639
0.12074
0.11617
0.110981
0.157731
0.155241
0.153053
0.150738
0.148147
0.14539
0.142557
0.139675
0.136741
0.133733
0.130607
0.1273
0.123725
0.119787
0.115354
0.110463
0.156439
0.154592
0.152755
0.150538
0.147977
0.14522
0.142359
0.13943
0.136435
0.133353
0.130145
0.126759
0.123128
0.119187
0.114867
0.110197
0.155599
0.154353
0.152731
0.150535
0.147962
0.145181
0.142287
0.13932
0.136283
0.133156
0.129904
0.126478
0.122825
0.118893
0.114645
0.110103
0.155405
0.154581
0.15299
0.15073
0.148096
0.145266
0.142334
0.13934
0.136284
0.133144
0.129881
0.126449
0.122794
0.118869
0.114639
0.110123
0.149056
0.148712
0.147745
0.146213
0.144288
0.142075
0.139639
0.137018
0.134233
0.131287
0.128176
0.124891
0.121421
0.117756
0.113897
0.109865
0.148908
0.14857
0.147603
0.146067
0.144134
0.141907
0.139453
0.136812
0.134003
0.131035
0.127904
0.124606
0.121131
0.117477
0.113647
0.109663
0.148701
0.148382
0.147428
0.145901
0.143971
0.14174
0.139275
0.136619
0.133794
0.130807
0.127661
0.124352
0.120877
0.117235
0.113435
0.1095
0.148457
0.148169
0.147238
0.14573
0.143811
0.141583
0.139114
0.136449
0.13361
0.13061
0.127452
0.124136
0.120663
0.117035
0.113263
0.109372
0.148204
0.147957
0.147053
0.145567
0.143664
0.141443
0.138975
0.136304
0.133457
0.130447
0.127281
0.123962
0.120492
0.116876
0.113129
0.109275
0.147976
0.14777
0.146888
0.145423
0.143535
0.141324
0.13886
0.136188
0.133337
0.130322
0.127152
0.123831
0.120364
0.11676
0.113032
0.109205
0.147822
0.147634
0.14676
0.145308
0.143434
0.141232
0.138774
0.136104
0.133253
0.130237
0.127066
0.123745
0.120282
0.116684
0.112969
0.10916
0.147788
0.14758
0.146697
0.145249
0.143381
0.141185
0.138731
0.136065
0.133215
0.130201
0.12703
0.12371
0.120248
0.116653
0.112941
0.109137
0.14907
0.1485
0.147525
0.146032
0.144146
0.141967
0.139557
0.136957
0.134187
0.131252
0.128149
0.124868
0.121397
0.117726
0.113855
0.109805
0.148914
0.148361
0.147388
0.14589
0.143995
0.141801
0.139372
0.136751
0.133957
0.130999
0.127876
0.124581
0.121106
0.117446
0.113606
0.109609
0.148695
0.148181
0.147224
0.145733
0.143839
0.141638
0.139198
0.13656
0.133748
0.130771
0.127632
0.124326
0.120851
0.117206
0.113398
0.109452
0.148436
0.147982
0.147052
0.145576
0.143689
0.141488
0.139041
0.136392
0.133565
0.130574
0.127423
0.124111
0.120638
0.117007
0.11323
0.10933
0.148169
0.147792
0.146892
0.145432
0.143555
0.141358
0.138908
0.136251
0.133415
0.130414
0.127254
0.123938
0.120468