/*--------------------------------*- C++ -*----------------------------------*\
| =========                 |                                                 |
| \\      /  F ield         | foam-extend: Open Source CFD                    |
|  \\    /   O peration     | Version:     3.1                                |
|   \\  /    A nd           | Web:         http://www.extend-project.de       |
|    \\/     M anipulation  |                                                 |
\*---------------------------------------------------------------------------*/
FoamFile
{
    version     2.0;
    format      ascii;
    class       surfaceScalarField;
    location    "0.9";
    object      phi;
}
// * * * * * * * * * * * * * * * * * * * * * * * * * * * * * * * * * * * * * //

dimensions      [0 3 -1 0 0 0 0];

internalField   nonuniform List<scalar> 
41600
(
1.46883e-05
-3.5065e-06
-5.75287e-06
6.09278e-06
1.88572e-05
-4.64797e-06
-9.44715e-06
9.92625e-06
2.22266e-05
-3.78454e-06
-1.00289e-05
1.0444e-05
2.45113e-05
-2.59329e-06
-9.4629e-06
9.77147e-06
2.58847e-05
-1.58776e-06
-8.60694e-06
8.82134e-06
2.66103e-05
-8.69763e-07
-7.83811e-06
7.98223e-06
2.69018e-05
-3.87257e-07
-7.32319e-06
7.41903e-06
2.68969e-05
-6.06186e-08
-7.14638e-06
7.21186e-06
2.66666e-05
1.7975e-07
-7.37023e-06
7.42076e-06
2.62448e-05
3.69503e-07
-8.07346e-06
8.1258e-06
2.5633e-05
5.3063e-07
-9.37658e-06
9.45776e-06
2.47932e-05
6.68007e-07
-1.14765e-05
1.16483e-05
2.35853e-05
7.69036e-07
-1.46916e-05
1.51304e-05
2.14694e-05
8.29479e-07
-1.94384e-05
2.07249e-05
1.61421e-05
1.04041e-06
-2.5528e-05
2.98149e-05
6.9258e-07
-2.56424e-05
4.09054e-05
3.42956e-05
-6.10223e-06
-7.56053e-06
8.1959e-06
3.84156e-05
-9.77212e-06
-1.53579e-05
1.63621e-05
4.24569e-05
-8.74218e-06
-1.76039e-05
1.85202e-05
4.5545e-05
-6.38997e-06
-1.7129e-05
1.78376e-05
4.75492e-05
-4.10566e-06
-1.56978e-05
1.62114e-05
4.86507e-05
-2.33592e-06
-1.42047e-05
1.45694e-05
4.90838e-05
-1.08119e-06
-1.30611e-05
1.3322e-05
4.90297e-05
-2.00338e-07
-1.246e-05
1.26537e-05
4.85769e-05
4.75225e-07
-1.25173e-05
1.26747e-05
4.77564e-05
1.03778e-06
-1.33573e-05
1.35095e-05
4.65265e-05
1.56728e-06
-1.51586e-05
1.53519e-05
4.47375e-05
2.12142e-06
-1.82074e-05
1.8543e-05
4.19848e-05
2.75604e-06
-2.29584e-05
2.3724e-05
3.709e-05
3.56676e-06
-2.99597e-05
3.21173e-05
2.63963e-05
4.69654e-06
-3.86174e-05
4.56549e-05
3.65746e-06
-3.6281e-05
5.89679e-05
5.00311e-05
-6.71141e-06
-7.06334e-06
7.81676e-06
5.13103e-05
-1.2344e-05
-1.64862e-05
1.7779e-05
5.32382e-05
-1.18728e-05
-1.99837e-05
2.11865e-05
5.50027e-05
-9.0839e-06
-1.99039e-05
2.08334e-05
5.62394e-05
-6.01206e-06
-1.83466e-05
1.90164e-05
5.68937e-05
-3.46414e-06
-1.65393e-05
1.70131e-05
5.70424e-05
-1.56927e-06
-1.50728e-05
1.54123e-05
5.67783e-05
-1.89738e-07
-1.42118e-05
1.44652e-05
5.61272e-05
9.20031e-07
-1.40948e-05
1.43011e-05
5.50841e-05
1.88365e-06
-1.48533e-05
1.50506e-05
5.3559e-05
2.84871e-06
-1.66705e-05
1.69141e-05
5.13404e-05
3.93132e-06
-1.98394e-05
2.02481e-05
4.79299e-05
5.25963e-06
-2.48236e-05
2.57306e-05
4.19951e-05
7.00065e-06
-3.21653e-05
3.46662e-05
2.963e-05
9.1099e-06
-4.11657e-05
4.91175e-05
6.90681e-06
-3.81028e-05
6.28177e-05
6.3619e-05
-6.10027e-06
-6.50019e-06
7.31217e-06
6.21024e-05
-1.23144e-05
-1.66211e-05
1.8108e-05
6.13191e-05
-1.2489e-05
-2.09363e-05
2.23357e-05
6.10226e-05
-9.85724e-06
-2.11651e-05
2.2235e-05
6.08725e-05
-6.6177e-06
-1.95261e-05
2.02819e-05
6.06542e-05
-3.77017e-06
-1.7487e-05
1.80113e-05
6.02719e-05
-1.55677e-06
-1.5782e-05
1.61518e-05
5.96752e-05
1.3377e-07
-1.47212e-05
1.49944e-05
5.88234e-05
1.55127e-06
-1.44527e-05
1.46732e-05
5.76425e-05
2.85478e-06
-1.50906e-05
1.53004e-05
5.60008e-05
4.23233e-06
-1.68039e-05
1.70619e-05
5.36525e-05
5.84822e-06
-1.98708e-05
2.03022e-05
5.0075e-05
7.88637e-06
-2.4738e-05
2.56888e-05
4.39332e-05
1.05506e-05
-3.19282e-05
3.45201e-05
3.13345e-05
1.35833e-05
-4.07558e-05
4.88811e-05
1.03809e-05
-3.78627e-05
6.27986e-05
7.48921e-05
-4.90814e-06
-6.16466e-06
7.01604e-06
7.13463e-05
-1.04089e-05
-1.67204e-05
1.83607e-05
6.82083e-05
-1.09104e-05
-2.16075e-05
2.31668e-05
6.59116e-05
-8.74032e-06
-2.20389e-05
2.32187e-05
6.43094e-05
-5.83153e-06
-2.02864e-05
2.11023e-05
6.31359e-05
-3.14952e-06
-1.80102e-05
1.85631e-05
6.21703e-05
-9.73446e-07
-1.60694e-05
1.64517e-05
6.12329e-05
7.93504e-07
-1.48118e-05
1.50895e-05
6.02149e-05
2.3479e-06
-1.43742e-05
1.45956e-05
5.89784e-05
3.88296e-06
-1.48509e-05
1.50592e-05
5.73568e-05
5.59962e-06
-1.63856e-05
1.664e-05
5.50807e-05
7.70107e-06
-1.92314e-05
1.96546e-05
5.16109e-05
1.04262e-05
-2.38107e-05
2.47407e-05
4.5596e-05
1.40334e-05
-3.06326e-05
3.31647e-05
3.30835e-05
1.81366e-05
-3.9063e-05
4.70222e-05
1.43879e-05
-3.65945e-05
6.1225e-05
8.35162e-05
-3.44991e-06
-5.99999e-06
6.8812e-06
7.86522e-05
-7.3071e-06
-1.68824e-05
1.86446e-05
7.37751e-05
-7.72326e-06
-2.21754e-05
2.38654e-05
6.98871e-05
-6.12199e-06
-2.27302e-05
2.39999e-05
6.70766e-05
-3.88417e-06
-2.08494e-05
2.17125e-05
6.50912e-05
-1.73689e-06
-1.83426e-05
1.89154e-05
6.3639e-05
9.00439e-08
-1.61702e-05
1.65588e-05
6.2449e-05
1.70609e-06
-1.47091e-05
1.49866e-05
6.13497e-05
3.2297e-06
-1.40826e-05
1.43e-05
6.01657e-05
4.86614e-06
-1.4356e-05
1.45569e-05
5.87096e-05
6.81544e-06
-1.564e-05
1.58803e-05
5.67033e-05
9.31399e-06
-1.81514e-05
1.85448e-05
5.35954e-05
1.26747e-05
-2.22771e-05
2.31365e-05
4.79822e-05
1.72934e-05
-2.85159e-05
3.08691e-05
3.5646e-05
2.29291e-05
-3.63385e-05
4.38822e-05
1.98342e-05
-3.44252e-05
5.84803e-05
8.93086e-05
-1.8598e-06
-5.93692e-06
6.84056e-06
8.36534e-05
-3.50117e-06
-1.70543e-05
1.89035e-05
7.7658e-05
-3.51136e-06
-2.2601e-05
2.43844e-05
7.27097e-05
-2.50747e-06
-2.32065e-05
2.45404e-05
6.90843e-05
-1.15479e-06
-2.12002e-05
2.20961e-05
6.6574e-05
1.88032e-07
-1.84953e-05
1.90807e-05
6.48015e-05
1.47185e-06
-1.61177e-05
1.65084e-05
6.35094e-05
2.72329e-06
-1.44665e-05
1.47415e-05
6.24536e-05
4.0738e-06
-1.36426e-05
1.38543e-05
6.14524e-05
5.67696e-06
-1.36793e-05
1.38697e-05
6.03268e-05
7.72141e-06
-1.46458e-05
1.48653e-05
5.8827e-05
1.04667e-05
-1.6705e-05
1.70521e-05
5.64383e-05
1.43194e-05
-2.0176e-05
2.092e-05
5.17471e-05
1.99421e-05
-2.55165e-05
2.7559e-05
4.00275e-05
2.78652e-05
-3.23719e-05
3.91554e-05
2.87972e-05
-3.10397e-05
5.41578e-05
9.21874e-05
-5.93178e-06
6.85122e-06
-1.90957e-07
8.61368e-05
-1.71844e-05
1.9082e-05
6.51844e-07
7.96044e-05
-2.28304e-05
2.46624e-05
1.18903e-06
7.41657e-05
-2.34132e-05
2.47783e-05
1.56612e-06
7.01889e-05
-2.12936e-05
2.2204e-05
1.91158e-06
6.7457e-05
-1.84376e-05
1.90274e-05
2.33026e-06
6.56355e-05
-1.5911e-05
1.63007e-05
2.90358e-06
6.44017e-05
-1.41007e-05
1.43718e-05
3.686e-06
6.35214e-05
-1.30873e-05
1.32923e-05
4.74904e-06
6.28286e-05
-1.28709e-05
1.30494e-05
6.1913e-06
6.21925e-05
-1.34713e-05
1.36665e-05
8.16229e-06
6.14642e-05
-1.49753e-05
1.52644e-05
1.09058e-05
6.03264e-05
-1.75751e-05
1.81616e-05
1.48708e-05
5.77123e-05
-2.1558e-05
2.31141e-05
2.10001e-05
4.87074e-05
-2.66812e-05
3.19534e-05
3.15979e-05
-2.56616e-05
4.59167e-05
4.74398e-05
1.55611e-05
-3.74112e-06
-5.24357e-06
1.98063e-05
-5.0286e-06
-8.66379e-06
2.31756e-05
-4.1341e-06
-9.26403e-06
2.53669e-05
-2.8516e-06
-8.80264e-06
2.65691e-05
-1.75296e-06
-8.05612e-06
2.7068e-05
-9.62613e-07
-7.37439e-06
2.7091e-05
-4.29764e-07
-6.91643e-06
2.67755e-05
-6.77395e-08
-6.76317e-06
2.61749e-05
2.01712e-07
-6.97136e-06
2.52874e-05
4.19506e-07
-7.60549e-06
2.40509e-05
6.13263e-07
-8.75333e-06
2.23191e-05
7.94073e-07
-1.05388e-05
1.97872e-05
9.57493e-07
-1.31171e-05
1.57884e-05
1.12068e-06
-1.65603e-05
8.97381e-06
1.31691e-06
-2.00303e-05
5.60462e-07
-1.74479e-05
3.64918e-05
-6.43595e-06
-6.756e-06
4.05286e-05
-1.05063e-05
-1.3917e-05
4.44229e-05
-9.51386e-06
-1.61185e-05
4.72732e-05
-7.01323e-06
-1.58176e-05
4.89508e-05
-4.53133e-06
-1.45971e-05
4.96526e-05
-2.5863e-06
-1.32828e-05
4.96255e-05
-1.19826e-06
-1.22655e-05
4.90482e-05
-2.18381e-07
-1.1732e-05
4.79803e-05
5.42833e-07
-1.17905e-05
4.63985e-05
1.1896e-06
-1.25456e-05
4.41623e-05
1.81898e-06
-1.41282e-05
4.09612e-05
2.50479e-06
-1.6717e-05
3.61695e-05
3.31463e-06
-2.05238e-05
2.85785e-05
4.33157e-06
-2.55797e-05
1.61568e-05
5.43163e-06
-3.03104e-05
4.08901e-06
-2.4461e-05
5.34184e-05
-7.02337e-06
-6.20229e-06
5.44103e-05
-1.32013e-05
-1.4783e-05
5.59646e-05
-1.28776e-05
-1.81743e-05
5.72974e-05
-9.95244e-06
-1.82975e-05
5.80577e-05
-6.63296e-06
-1.70052e-05
5.81969e-05
-3.83813e-06
-1.54267e-05
5.77908e-05
-1.74058e-06
-1.41244e-05
5.69203e-05
-2.03094e-07
-1.33566e-05
5.5572e-05
1.05193e-06
-1.32557e-05
5.36785e-05
2.16242e-06
-1.39326e-05
5.10402e-05
3.30654e-06
-1.55197e-05
4.72712e-05
4.62834e-06
-1.8194e-05
4.16416e-05
6.27738e-06
-2.21568e-05
3.28158e-05
8.38707e-06
-2.7395e-05
1.86701e-05
1.05624e-05
-3.21509e-05
8.38607e-06
-2.54396e-05
6.80653e-05
-6.3582e-06
-5.6299e-06
6.61354e-05
-1.31195e-05
-1.4773e-05
6.47689e-05
-1.35115e-05
-1.89359e-05
6.38305e-05
-1.07858e-05
-1.93933e-05
6.30366e-05
-7.30111e-06
-1.80641e-05
6.21862e-05
-4.18294e-06
-1.62919e-05
6.11735e-05
-1.73227e-06
-1.47775e-05
5.99175e-05
1.5946e-07
-1.38277e-05
5.83381e-05
1.76463e-06
-1.35861e-05
5.62863e-05
3.27259e-06
-1.4149e-05
5.35163e-05
4.90753e-06
-1.56348e-05
4.96029e-05
6.87553e-06
-1.82046e-05
4.3785e-05
9.39788e-06
-2.20406e-05
3.47087e-05
1.26421e-05
-2.71069e-05
2.02554e-05
1.59232e-05
-3.16633e-05
1.28891e-05
-2.50468e-05
8.0207e-05
-5.11424e-06
-5.28782e-06
7.61947e-05
-1.10676e-05
-1.47599e-05
7.23216e-05
-1.17888e-05
-1.94571e-05
6.92011e-05
-9.56157e-06
-2.01426e-05
6.67976e-05
-6.44141e-06
-1.87426e-05
6.48796e-05
-3.50643e-06
-1.67688e-05
6.32144e-05
-1.09416e-06
-1.50423e-05
6.15848e-05
8.88131e-07
-1.39108e-05
5.98301e-05
2.657e-06
-1.35119e-05
5.77355e-05
4.44076e-06
-1.39245e-05
5.50178e-05
6.48468e-06
-1.52451e-05
5.12266e-05
9.04835e-06
-1.7613e-05
4.5574e-05
1.24321e-05
-2.11923e-05
3.66487e-05
1.68773e-05
-2.59425e-05
2.21946e-05
2.15184e-05
-3.0204e-05
1.80662e-05
-2.39881e-05
8.94834e-05
-3.61033e-06
-5.11425e-06
8.41368e-05
-7.77374e-06
-1.48297e-05
7.84273e-05
-8.35244e-06
-1.99023e-05
7.35806e-05
-6.7118e-06
-2.07332e-05
6.98441e-05
-4.31131e-06
-1.92429e-05
6.70245e-05
-1.95906e-06
-1.70704e-05
6.48216e-05
7.23955e-08
-1.51339e-05
6.29218e-05
1.89316e-06
-1.38144e-05
6.10983e-05
3.63769e-06
-1.32398e-05
5.90979e-05
5.55019e-06
-1.34651e-05
5.66204e-05
7.88131e-06
-1.45591e-05
5.32112e-05
1.094e-05
-1.66339e-05
4.80626e-05
1.51362e-05
-1.98326e-05
3.96391e-05
2.09097e-05
-2.41247e-05
2.52335e-05
2.75727e-05
-2.79873e-05
2.51239e-05
-2.23085e-05
9.57073e-05
-1.97655e-06
-5.04143e-06
8.95657e-05
-3.75341e-06
-1.4933e-05
8.26808e-05
-3.82943e-06
-2.02391e-05
7.66876e-05
-2.78667e-06
-2.11385e-05
7.20547e-05
-1.32654e-06
-1.9552e-05
6.86567e-05
1.50011e-07
-1.72063e-05
6.61051e-05
1.58918e-06
-1.5083e-05
6.41086e-05
3.01012e-06
-1.35869e-05
6.23636e-05
4.5693e-06
-1.28292e-05
6.06171e-05
6.4556e-06
-1.28382e-05
5.85901e-05
8.91202e-06
-1.36495e-05
5.58768e-05
1.22851e-05
-1.53368e-05
5.17201e-05
1.71221e-05
-1.80052e-05
4.45009e-05
2.42451e-05
-2.16328e-05
3.06563e-05
3.39703e-05
-2.49248e-05
3.68143e-05
-1.98871e-05
9.87975e-05
-5.02723e-06
-2.60299e-07
9.22571e-05
-1.50234e-05
6.25957e-07
8.48071e-05
-2.0422e-05
1.21218e-06
7.82846e-05
-2.13116e-05
1.63423e-06
7.32684e-05
-1.96298e-05
2.02582e-06
6.9627e-05
-1.71482e-05
2.502e-06
6.70333e-05
-1.48874e-05
3.15932e-06
6.51225e-05
-1.32434e-05
4.06352e-06
6.36092e-05
-1.23106e-05
5.30594e-06
6.2268e-05
-1.20898e-05
7.01568e-06
6.0894e-05
-1.25784e-05
9.39312e-06
5.92292e-05
-1.37972e-05
1.27718e-05
5.67874e-05
-1.5779e-05
1.77678e-05
5.23111e-05
-1.84536e-05
2.56171e-05
4.15904e-05
-2.08417e-05
3.88514e-05
-1.65586e-05
5.96603e-05
1.63083e-05
-3.94064e-06
-4.5898e-06
2.06267e-05
-5.36277e-06
-7.61939e-06
2.40064e-05
-4.44921e-06
-8.19452e-06
2.61242e-05
-3.08973e-06
-7.83068e-06
2.7179e-05
-1.90851e-06
-7.20242e-06
2.74762e-05
-1.05221e-06
-6.61941e-06
2.72571e-05
-4.72598e-07
-6.22475e-06
2.66616e-05
-7.70958e-08
-6.09058e-06
2.57332e-05
2.20624e-07
-6.26351e-06
2.44507e-05
4.66751e-07
-6.78978e-06
2.2725e-05
6.95397e-07
-7.723e-06
2.03843e-05
9.2575e-07
-9.12387e-06
1.71378e-05
1.16572e-06
-1.10364e-05
1.25067e-05
1.43904e-06
-1.33682e-05
6.0719e-06
1.64011e-06
-1.52357e-05
7.01934e-07
-1.23137e-05
3.83791e-05
-6.71464e-06
-5.81702e-06
4.23589e-05
-1.11426e-05
-1.2117e-05
4.61435e-05
-1.02005e-05
-1.41518e-05
4.88e-05
-7.57947e-06
-1.39844e-05
5.01978e-05
-4.92489e-06
-1.29784e-05
5.05467e-05
-2.82154e-06
-1.18623e-05
5.01067e-05
-1.31037e-06
-1.09878e-05
4.90586e-05
-2.37417e-07
-1.05236e-05
4.74449e-05
6.0589e-07
-1.05621e-05
4.52129e-05
1.33449e-06
-1.11813e-05
4.21805e-05
2.06187e-06
-1.24623e-05
3.80033e-05
2.87668e-06
-1.44907e-05
3.21007e-05
3.85805e-06
-1.73136e-05
2.36131e-05
5.07078e-06
-2.07238e-05
1.18939e-05
6.17549e-06
-2.31266e-05
4.56104e-06
-1.72592e-05
5.63337e-05
-7.28085e-06
-5.26349e-06
5.71018e-05
-1.39366e-05
-1.27571e-05
5.83556e-05
-1.37635e-05
-1.58652e-05
5.93277e-05
-1.07345e-05
-1.61146e-05
5.96771e-05
-7.20154e-06
-1.50779e-05
5.93615e-05
-4.18517e-06
-1.37475e-05
5.84586e-05
-1.90116e-06
-1.26307e-05
5.70427e-05
-2.14862e-07
-1.19633e-05
5.50764e-05
1.17739e-06
-1.18609e-05
5.24575e-05
2.42789e-06
-1.24071e-05
4.89403e-05
3.74102e-06
-1.36816e-05
4.41037e-05
5.28227e-06
-1.5763e-05
3.72715e-05
7.21275e-06
-1.86793e-05
2.74897e-05
9.62658e-06
-2.2169e-05
1.41185e-05
1.18584e-05
-2.44626e-05
9.35173e-06
-1.78307e-05
7.18924e-05
-6.57082e-06
-4.72417e-06
6.96417e-05
-1.38049e-05
-1.2654e-05
6.78012e-05
-1.44068e-05
-1.64521e-05
6.63215e-05
-1.16167e-05
-1.70314e-05
6.49692e-05
-7.92294e-06
-1.59904e-05
6.35593e-05
-4.56298e-06
-1.45042e-05
6.19812e-05
-1.89439e-06
-1.32062e-05
6.01327e-05
1.85519e-07
-1.23795e-05
5.79087e-05
1.96796e-06
-1.21526e-05
5.51155e-05
3.66841e-06
-1.25963e-05
5.14581e-05
5.54119e-06
-1.37776e-05
4.6474e-05
7.82223e-06
-1.57605e-05
3.94515e-05
1.075e-05
-1.85553e-05
2.94092e-05
1.44437e-05
-2.18817e-05
1.56913e-05
1.79012e-05
-2.39883e-05
1.44885e-05
-1.74153e-05
8.4779e-05
-5.28557e-06
-4.40242e-06
8.04101e-05
-1.16258e-05
-1.25702e-05
7.59416e-05
-1.2554e-05
-1.68414e-05
7.21255e-05
-1.02929e-05
-1.76503e-05
6.90254e-05
-6.99355e-06
-1.65719e-05
6.64471e-05
-3.83281e-06
-1.49206e-05
6.41537e-05
-1.20354e-06
-1.34397e-05
6.19016e-05
9.80153e-07
-1.24534e-05
5.9494e-05
2.95071e-06
-1.2087e-05
5.66693e-05
4.96658e-06
-1.2398e-05
5.30917e-05
7.30878e-06
-1.34351e-05
4.82698e-05
1.02762e-05
-1.5245e-05
4.14541e-05
1.4199e-05
-1.78256e-05
3.15767e-05
1.92766e-05
-2.08981e-05
1.77699e-05
2.42945e-05
-2.27905e-05
2.04494e-05
-1.65467e-05
9.46132e-05
-3.74563e-06
-4.23653e-06
8.89032e-05
-8.16827e-06
-1.25772e-05
8.25231e-05
-8.89846e-06
-1.71777e-05
7.68683e-05
-7.23469e-06
-1.81366e-05
7.23266e-05
-4.69587e-06
-1.6999e-05
6.87668e-05
-2.16025e-06
-1.51831e-05
6.58891e-05
6.02837e-08
-1.352e-05
6.33507e-05
2.07227e-06
-1.23681e-05
6.08846e-05
4.02403e-06
-1.18469e-05
5.81888e-05
6.19236e-06
-1.1995e-05
5.49104e-05
8.86783e-06
-1.28398e-05
5.05522e-05
1.24093e-05
-1.44087e-05
4.43302e-05
1.72779e-05
-1.66896e-05
3.50032e-05
2.39018e-05
-1.94229e-05
2.11143e-05
3.12591e-05
-2.10629e-05
2.85431e-05
-1.52692e-05
0.000101205
-2.07666e-06
-4.16393e-06
9.47015e-05
-3.9667e-06
-1.2631e-05
8.7103e-05
-4.10408e-06
-1.7435e-05
8.0231e-05
-3.03222e-06
-1.84689e-05
7.47225e-05
-1.47871e-06
-1.72607e-05
7.05367e-05
1.18749e-07
-1.52996e-05
6.72852e-05
1.70275e-06
-1.3474e-05
6.46541e-05
3.28278e-06
-1.21663e-05
6.22963e-05
5.03729e-06
-1.14847e-05
5.9913e-05
7.18444e-06
-1.1447e-05
5.71782e-05
1.00091e-05
-1.20561e-05
5.36487e-05
1.39168e-05
-1.33147e-05
4.85846e-05
1.95306e-05
-1.51938e-05
4.05997e-05
2.77191e-05
-1.74652e-05
2.71588e-05
3.85653e-05
-1.879e-05
4.16653e-05
-1.35525e-05
0.000104475
-4.14642e-06
-3.20537e-07
9.75724e-05
-1.26907e-05
6.03165e-07
8.93879e-05
-1.75758e-05
1.2342e-06
8.1955e-05
-1.86086e-05
1.69777e-06
7.60365e-05
-1.7323e-05
2.13297e-06
7.15881e-05
-1.5245e-05
2.66399e-06
6.83006e-05
-1.32986e-05
3.40142e-06
6.57797e-05
-1.18606e-05
4.4209e-06
6.37019e-05
-1.10267e-05
5.83116e-06
6.18037e-05
-1.07934e-05
7.78637e-06
5.98462e-05
-1.1137e-05
1.05253e-05
5.75527e-05
-1.20273e-05
1.44404e-05
5.44695e-05
-1.34009e-05
2.02358e-05
4.9527e-05
-1.50395e-05
2.92475e-05
3.92541e-05
-1.59177e-05
4.39142e-05
-1.13612e-05
6.62213e-05
1.69299e-05
-4.10544e-06
-3.81598e-06
2.13135e-05
-5.64591e-06
-6.35713e-06
2.47089e-05
-4.72195e-06
-6.86798e-06
2.67703e-05
-3.29963e-06
-6.59245e-06
2.7703e-05
-2.04795e-06
-6.08715e-06
2.78289e-05
-1.13403e-06
-5.61124e-06
2.74027e-05
-5.12881e-07
-5.28567e-06
2.65696e-05
-8.71842e-08
-5.17036e-06
2.53702e-05
2.36515e-07
-5.30057e-06
2.37774e-05
5.09182e-07
-5.70616e-06
2.16981e-05
7.70787e-07
-6.41452e-06
1.89729e-05
1.04694e-06
-7.44563e-06
1.53709e-05
1.35299e-06
-8.78732e-06
1.0599e-05
1.70616e-06
-1.03025e-05
4.72214e-06
1.91574e-06
-1.12745e-05
9.14442e-07
-8.74494e-06
3.99542e-05
-6.94117e-06
-4.7726e-06
4.38947e-05
-1.16759e-05
-1.00276e-05
4.75986e-05
-1.07885e-05
-1.17892e-05
5.01013e-05
-8.07277e-06
-1.1714e-05
5.12674e-05
-5.27269e-06
-1.09198e-05
5.13176e-05
-3.03206e-06
-1.00146e-05
5.05252e-05
-1.41208e-06
-9.29617e-06
4.90772e-05
-2.55766e-07
-8.907e-06
4.70097e-05
6.62022e-07
-8.92019e-06
4.42614e-05
1.46498e-06
-9.38882e-06
4.06446e-05
2.28054e-06
-1.03552e-05
3.58378e-05
3.20792e-06
-1.18449e-05
2.937e-05
4.33059e-06
-1.38234e-05
2.06951e-05
5.68529e-06
-1.60281e-05
9.87239e-06
6.7894e-06
-1.71775e-05
4.9757e-06
-1.22808e-05
5.87701e-05
-7.48802e-06
-4.2685e-06
5.93655e-05
-1.45473e-05
-1.04811e-05
6.03819e-05
-1.45162e-05
-1.31538e-05
6.10606e-05
-1.14109e-05
-1.34551e-05
6.10674e-05
-7.70012e-06
-1.26574e-05
6.03664e-05
-4.49272e-06
-1.15858e-05
5.90391e-05
-2.04446e-06
-1.0671e-05
5.71599e-05
-2.25605e-07
-1.01142e-05
5.46794e-05
1.29041e-06
-1.00088e-05
5.14841e-05
2.66604e-06
-1.04128e-05
4.73213e-05
4.12723e-06
-1.13656e-05
4.17965e-05
5.85326e-06
-1.28835e-05
3.4354e-05
8.00568e-06
-1.49119e-05
2.43788e-05
1.06308e-05
-1.71393e-05
1.19769e-05
1.28741e-05
-1.81454e-05
1.00572e-05
-1.26395e-05
7.50909e-05
-6.74182e-06
-3.7969e-06
7.25938e-05
-1.43705e-05
-1.03337e-05
7.03761e-05
-1.51631e-05
-1.35875e-05
6.84525e-05
-1.23314e-05
-1.41872e-05
6.66322e-05
-8.46531e-06
-1.34049e-05
6.47465e-05
-4.89766e-06
-1.22136e-05
6.26848e-05
-2.03751e-06
-1.11515e-05
6.03319e-05
2.10013e-07
-1.04623e-05
5.75716e-05
2.1509e-06
-1.02528e-05
5.41898e-05
4.02152e-06
-1.05699e-05
4.9883e-05
6.09909e-06
-1.14427e-05
4.42133e-05
8.63783e-06
-1.28754e-05
3.6586e-05
1.18767e-05
-1.4799e-05
2.63483e-05
1.58753e-05
-1.68886e-05
1.35706e-05
1.94032e-05
-1.77398e-05
1.55966e-05
-1.22752e-05
8.85981e-05
-5.42458e-06
-3.51652e-06
8.39595e-05
-1.20846e-05
-1.02175e-05
7.90185e-05
-1.31976e-05
-1.3866e-05
7.46318e-05
-1.09193e-05
-1.46757e-05
7.09465e-05
-7.47301e-06
-1.38789e-05
6.78054e-05
-4.11859e-06
-1.25586e-05
6.49735e-05
-1.29859e-06
-1.13468e-05
6.21907e-05
1.06426e-06
-1.05248e-05
5.92391e-05
3.2141e-06
-1.01987e-05
5.58348e-05
5.4333e-06
-1.04055e-05
5.16299e-05
8.02895e-06
-1.116e-05
4.61528e-05
1.13235e-05
-1.24536e-05
3.87601e-05
1.56529e-05
-1.42091e-05
2.86874e-05
2.11561e-05
-1.61061e-05
1.57441e-05
2.63608e-05
-1.68047e-05
2.20758e-05
-1.15968e-05
9.88957e-05
-3.85702e-06
-3.37084e-06
9.29147e-05
-8.49191e-06
-1.01889e-05
8.60053e-05
-9.35607e-06
-1.41097e-05
7.96886e-05
-7.68081e-06
-1.50583e-05
7.44706e-05
-5.02814e-06
-1.42259e-05
7.02793e-05
-2.33486e-06
-1.27755e-05
6.68219e-05
5.25931e-08
-1.14139e-05
6.37381e-05
2.23424e-06
-1.04542e-05
6.07353e-05
4.36947e-06
-9.99953e-06
5.74866e-05
6.76003e-06
-1.00731e-05
5.36247e-05
9.72485e-06
-1.06738e-05
4.86677e-05
1.36522e-05
-1.17805e-05
4.19225e-05
1.90205e-05
-1.33121e-05
3.24123e-05
2.62119e-05
-1.49686e-05
1.92748e-05
3.39434e-05
-1.5508e-05
3.08268e-05
-1.0652e-05
0.000105793
-2.16096e-06
-3.30561e-06
9.90221e-05
-4.14169e-06
-1.02103e-05
9.08628e-05
-4.33315e-06
-1.42986e-05
8.32721e-05
-3.24012e-06
-1.53189e-05
7.70284e-05
-1.60821e-06
-1.4437e-05
7.21704e-05
9.42192e-08
-1.28706e-05
6.83174e-05
1.80673e-06
-1.13752e-05
6.5143e-05
3.52822e-06
-1.02859e-05
6.22717e-05
5.45489e-06
-9.69892e-06
5.93801e-05
7.82697e-06
-9.62232e-06
5.61288e-05
1.09582e-05
-1.00381e-05
5.20885e-05
1.52879e-05
-1.091e-05
4.65971e-05
2.147e-05
-1.21518e-05
3.84839e-05
3.0358e-05
-1.34981e-05
2.5682e-05
4.18206e-05
-1.38654e-05
4.47949e-05
-9.44408e-06
0.000109212
-3.28812e-06
-3.74733e-07
0.000102043
-1.02475e-05
5.84073e-07
9.32826e-05
-1.44027e-05
1.25428e-06
8.51061e-05
-1.54268e-05
1.75459e-06
7.84306e-05
-1.44848e-05
2.22907e-06
7.32932e-05
-1.2823e-05
2.80972e-06
6.94092e-05
-1.12273e-05
3.61944e-06
6.6365e-05
-1.003e-05
4.74181e-06
6.38121e-05
-9.31839e-06
6.29951e-06
6.14659e-05
-9.08553e-06
8.46525e-06
5.90796e-05
-9.29563e-06
1.15031e-05
5.63952e-05
-9.89372e-06
1.58386e-05
5.30321e-05
-1.07797e-05
2.2212e-05
4.8092e-05
-1.17155e-05
3.19741e-05
3.84249e-05
-1.18634e-05
4.74335e-05
-7.96168e-06
7.04365e-05
1.74263e-05
-4.23623e-06
-2.94631e-06
2.18644e-05
-5.87516e-06
-4.92008e-06
2.52767e-05
-4.94639e-06
-5.33389e-06
2.72964e-05
-3.47476e-06
-5.13745e-06
2.81325e-05
-2.16576e-06
-4.75745e-06
2.81202e-05
-1.20405e-06
-4.39492e-06
2.75267e-05
-5.47979e-07
-4.14415e-06
2.65039e-05
-9.66272e-08
-4.05095e-06
2.50938e-05
2.49464e-07
-4.13994e-06
2.32713e-05
5.45029e-07
-4.42864e-06
2.09502e-05
8.34656e-07
-4.92811e-06
1.79942e-05
1.14816e-06
-5.63779e-06
1.42294e-05
1.50433e-06
-6.52684e-06
9.48612e-06
1.91236e-06
-7.47158e-06
4.03809e-06
2.13422e-06
-7.96074e-06
1.09246e-06
-6.03548e-06
4.12156e-05
-7.11846e-06
-3.64803e-06
4.51293e-05
-1.21037e-05
-7.71279e-06
4.8775e-05
-1.12682e-05
-9.11294e-06
5.11598e-05
-8.48071e-06
-9.09281e-06
5.21424e-05
-5.56353e-06
-8.50467e-06
5.19525e-05
-3.20975e-06
-7.81894e-06
5.08753e-05
-1.4987e-06
-7.26825e-06
4.9107e-05
-2.72111e-07
-6.96321e-06
4.66843e-05
7.09222e-07
-6.95724e-06
4.35492e-05
1.575e-06
-7.28368e-06
3.95253e-05
2.46355e-06
-7.96026e-06
3.43307e-05
3.48045e-06
-8.98249e-06
2.75939e-05
4.70886e-06
-1.02911e-05
1.89747e-05
6.16115e-06
-1.16576e-05
8.82697e-06
7.27042e-06
-1.2166e-05
5.30947e-06
-8.49238e-06
6.07232e-05
-7.6488e-06
-3.23363e-06
6.11887e-05
-1.50336e-05
-8.01667e-06
6.2023e-05
-1.51265e-05
-1.01299e-05
6.24718e-05
-1.19669e-05
-1.04177e-05
6.22056e-05
-8.11457e-06
-9.84013e-06
6.11939e-05
-4.75046e-06
-9.03332e-06
5.95234e-05
-2.16506e-06
-8.33418e-06
5.72726e-05
-2.34983e-07
-7.90049e-06
5.43889e-05
1.38602e-06
-7.80195e-06
5.07608e-05
2.86609e-06
-8.07581e-06
4.61475e-05
4.44776e-06
-8.73647e-06
4.01977e-05
6.31784e-06
-9.77107e-06
3.24649e-05
8.63284e-06
-1.11031e-05
2.25535e-05
1.13993e-05
-1.2466e-05
1.08753e-05
1.36481e-05
-1.28448e-05
1.05892e-05
-8.72371e-06
7.76548e-05
-6.87456e-06
-2.85668e-06
7.49734e-05
-1.48185e-05
-7.86746e-06
7.24651e-05
-1.57733e-05
-1.04324e-05
7.01914e-05
-1.29164e-05
-1.0964e-05
6.7996e-05
-8.9142e-06
-1.04099e-05
6.57254e-05
-5.17673e-06
-9.51668e-06
6.32718e-05
-2.15702e-06
-8.70597e-06
6.05134e-05
2.31258e-07
-8.17006e-06
5.73323e-05
2.30532e-06
-7.99109e-06
5.35088e-05
4.31675e-06
-8.19704e-06
4.87499e-05
6.55888e-06
-8.79488e-06
4.26593e-05
9.29551e-06
-9.76249e-06
3.47478e-05
1.27584e-05
-1.1013e-05
2.45722e-05
1.69573e-05
-1.2271e-05
1.24944e-05
2.05199e-05
-1.25338e-05
1.63981e-05
-8.44219e-06
9.16582e-05
-5.53333e-06
-2.63336e-06
8.68203e-05
-1.24467e-05
-7.75138e-06
8.15166e-05
-1.37149e-05
-1.06207e-05
7.66797e-05
-1.14302e-05
-1.1325e-05
7.25246e-05
-7.86836e-06
-1.07697e-05
6.89272e-05
-4.35574e-06
-9.78215e-06
6.56577e-05
-1.37695e-06
-8.85738e-06
6.24472e-05
1.13619e-06
-8.21923e-06
5.90681e-05
3.4358e-06
-7.94997e-06
5.52287e-05
5.82185e-06
-8.0712e-06
5.05879e-05
8.61897e-06
-8.5793e-06
4.47114e-05
1.21616e-05
-9.44319e-06
3.70516e-05
1.67801e-05
-1.0571e-05
2.70348e-05
2.25601e-05
-1.16922e-05
1.47349e-05
2.7866e-05
-1.18509e-05
2.32214e-05
-7.947e-06
0.000102325
-3.9453e-06
-2.51688e-06
9.61468e-05
-8.74691e-06
-7.70992e-06
8.88328e-05
-9.72279e-06
-1.07879e-05
8.19948e-05
-8.04339e-06
-1.16071e-05
7.62338e-05
-5.30091e-06
-1.10322e-05
7.15298e-05
-2.47861e-06
-9.94866e-06
6.76003e-05
4.8207e-08
-8.90956e-06
6.4076e-05
2.37175e-06
-8.16542e-06
6.06501e-05
4.65953e-06
-7.79736e-06
5.69854e-05
7.23103e-06
-7.81756e-06
5.27185e-05
1.04236e-05
-8.21151e-06
4.7399e-05
1.46405e-05
-8.94004e-06
4.04174e-05
2.03599e-05
-9.91034e-06
3.09605e-05
2.79174e-05
-1.08689e-05
1.8387e-05
3.58603e-05
-1.09289e-05
3.23992e-05
-7.28136e-06
0.000109466
-2.22896e-06
-2.46402e-06
0.000102502
-4.27956e-06
-7.71343e-06
9.39155e-05
-4.51589e-06
-1.0919e-05
8.57598e-05
-3.4079e-06
-1.17986e-05
7.89261e-05
-1.71306e-06
-1.11911e-05
7.35218e-05
7.60793e-08
-1.0021e-05
6.91784e-05
1.89613e-06
-8.87969e-06
6.55641e-05
3.73598e-06
-8.03579e-06
6.22864e-05
5.80507e-06
-7.56683e-06
5.90107e-05
8.35896e-06
-7.47454e-06
5.54001e-05
1.17294e-05
-7.73328e-06
5.10532e-05
1.63727e-05
-8.29523e-06
4.5379e-05
2.29499e-05
-9.06751e-06
3.73387e-05
3.22847e-05
-9.82517e-06
2.50234e-05
4.41013e-05
-9.79099e-06
4.69135e-05
-6.45752e-06
0.000113004
-2.44894e-06
-4.19812e-07
0.000105643
-7.73511e-06
5.68855e-07
9.64449e-05
-1.09919e-05
1.27166e-06
8.76844e-05
-1.1877e-05
1.80279e-06
8.04015e-05
-1.12256e-05
2.31064e-06
7.47041e-05
-9.98316e-06
2.93358e-06
7.03332e-05
-8.7648e-06
3.80454e-06
6.68642e-05
-7.8381e-06
5.01307e-06
6.39334e-05
-7.27474e-06
6.6922e-06
6.12462e-05
-7.06654e-06
9.02715e-06
5.85596e-05
-7.1767e-06
1.22971e-05
5.56426e-05
-7.54733e-06
1.69432e-05
5.21778e-05
-8.0811e-06
2.37161e-05
4.73716e-05
-8.57924e-06
3.39546e-05
3.81713e-05
-8.43661e-06
4.98748e-05
-5.46545e-06
7.33025e-05
1.77979e-05
-4.33415e-06
-2.00429e-06
2.22779e-05
-6.04993e-06
-3.35013e-06
2.57054e-05
-5.11947e-06
-3.64195e-06
2.76963e-05
-3.61124e-06
-3.51705e-06
2.84609e-05
-2.25858e-06
-3.26347e-06
2.8345e-05
-1.25993e-06
-3.01908e-06
2.76258e-05
-5.76558e-07
-2.84845e-06
2.64622e-05
-1.05009e-07
-2.78235e-06
2.48996e-05
2.58858e-07
-2.83615e-06
2.29176e-05
5.72433e-07
-3.01904e-06
2.04398e-05
8.83601e-07
-3.33396e-06
1.73512e-05
1.22467e-06
-3.77388e-06
1.35188e-05
1.61577e-06
-4.31015e-06
8.84306e-06
2.0598e-06
-4.85566e-06
3.67911e-06
2.29203e-06
-5.08882e-06
1.2204e-06
-3.80852e-06
4.21621e-05
-7.24913e-06
-2.46601e-06
4.60582e-05
-1.24259e-05
-5.23299e-06
4.96639e-05
-1.16339e-05
-6.20421e-06
5.19635e-05
-8.79473e-06
-6.20897e-06
5.28104e-05
-5.78945e-06
-5.82063e-06
5.24404e-05
-3.34892e-06
-5.35995e-06
5.11492e-05
-1.56716e-06
-4.98652e-06
4.91425e-05
-2.85788e-07
-4.77566e-06
4.64606e-05
7.45464e-07
-4.76197e-06
4.30538e-05
1.65987e-06
-4.9643e-06
3.87614e-05
2.6036e-06
-5.38785e-06
3.33373e-05
3.6857e-06
-6.01944e-06
2.64815e-05
4.98743e-06
-6.80695e-06
1.79704e-05
6.50407e-06
-7.59082e-06
8.26923e-06
7.61995e-06
-7.79272e-06
5.55527e-06
-5.36586e-06
6.21895e-05
-7.76635e-06
-2.17097e-06
6.2562e-05
-1.53971e-05
-5.41791e-06
6.32645e-05
-1.55887e-05
-6.87766e-06
6.35442e-05
-1.23924e-05
-7.09972e-06
6.30745e-05
-8.43447e-06
-6.72538e-06
6.18291e-05
-4.95071e-06
-6.18621e-06
5.99004e-05
-2.25909e-06
-5.71346e-06
5.73728e-05
-2.43062e-07
-5.41562e-06
5.41943e-05
1.46031e-06
-5.33835e-06
5.02615e-05
3.02045e-06
-5.50353e-06
4.535e-05
4.69224e-06
-5.91362e-06
3.91477e-05
6.66602e-06
-6.54914e-06
3.12855e-05
9.09244e-06
-7.34579e-06
2.14917e-05
1.19507e-05
-8.11886e-06
1.02896e-05
1.42043e-05
-8.22708e-06
1.09735e-05
-5.50757e-06
7.95792e-05
-6.97162e-06
-1.90754e-06
7.67667e-05
-1.51517e-05
-5.30043e-06
7.40472e-05
-1.62336e-05
-7.06788e-06
7.15144e-05
-1.33623e-05
-7.46144e-06
6.90382e-05
-9.2593e-06
-7.10886e-06
6.64775e-05
-5.39256e-06
-6.51413e-06
6.37287e-05
-2.24959e-06
-5.96661e-06
6.06668e-05
2.47893e-07
-5.59912e-06
5.7178e-05
2.42524e-06
-5.4673e-06
5.30435e-05
4.54401e-06
-5.58606e-06
4.79857e-05
6.90817e-06
-5.95304e-06
4.16461e-05
9.78587e-06
-6.54272e-06
3.36092e-05
1.34005e-05
-7.28418e-06
2.35488e-05
1.77275e-05
-7.98741e-06
1.19287e-05
2.13105e-05
-8.01988e-06
1.69628e-05
-5.31964e-06
9.39539e-05
-5.61341e-06
-1.75197e-06
8.89761e-05
-1.27153e-05
-5.21001e-06
8.34096e-05
-1.4104e-05
-7.18379e-06
7.82395e-05
-1.18184e-05
-7.69883e-06
7.37321e-05
-8.17132e-06
-7.35022e-06
6.97898e-05
-4.53838e-06
-6.6941e-06
6.61898e-05
-1.43702e-06
-6.06988e-06
6.26589e-05
1.19261e-06
-5.63305e-06
5.89662e-05
3.6077e-06
-5.43976e-06
5.48201e-05
6.12011e-06
-5.50121e-06
4.98917e-05
9.06543e-06
-5.8081e-06
4.37802e-05
1.27834e-05
-6.32924e-06
3.60048e-05
1.75959e-05
-6.99091e-06
2.60957e-05
2.35513e-05
-7.60688e-06
1.42141e-05
2.89162e-05
-7.57505e-06
2.40117e-05
-4.99744e-06
0.000104898
-4.01097e-06
-1.67057e-06
9.85816e-05
-8.93584e-06
-5.17337e-06
9.09756e-05
-9.99786e-06
-7.28794e-06
8.37522e-05
-8.31812e-06
-7.88402e-06
7.75838e-05
-5.50914e-06
-7.52598e-06
7.24921e-05
-2.58856e-06
-6.80683e-06
6.82051e-05
4.59971e-08
-6.10558e-06
6.435e-05
2.47923e-06
-5.59691e-06
6.0613e-05
4.88411e-06
-5.33679e-06
5.66545e-05
7.59173e-06
-5.3306e-06
5.21201e-05
1.09505e-05
-5.56224e-06
4.65889e-05
1.53704e-05
-5.99576e-06
3.95085e-05
2.13236e-05
-6.55764e-06
3.01528e-05
2.91111e-05
-7.07312e-06
1.7945e-05
3.71788e-05
-6.98366e-06
3.34657e-05
-4.57256e-06
0.00011222
-2.28022e-06
-1.63329e-06
0.000105123
-4.38165e-06
-5.17009e-06
9.62288e-05
-4.65241e-06
-7.37065e-06
8.76558e-05
-3.53424e-06
-8.00959e-06
8.03796e-05
-1.79212e-06
-7.63192e-06
7.4562e-05
6.36126e-08
-6.85546e-06
6.98468e-05
1.96681e-06
-6.08532e-06
6.59012e-05
3.8981e-06
-5.50913e-06
6.23237e-05
6.07599e-06
-5.18118e-06
5.87755e-05
8.7658e-06
-5.1004e-06
5.49271e-05
1.23096e-05
-5.244e-06
5.04025e-05
1.71711e-05
-5.57135e-06
4.46594e-05
2.40093e-05
-6.01015e-06
3.67271e-05
3.3623e-05
-6.40471e-06
2.47292e-05
4.56498e-05
-6.26406e-06
4.83354e-05
-4.05379e-06
0.000115847
-1.62218e-06
-4.54471e-07
0.000108354
-5.18177e-06
5.5759e-07
9.88412e-05
-7.41682e-06
1.28558e-06
8.96497e-05
-8.06045e-06
1.84066e-06
8.19114e-05
-7.65417e-06
2.3747e-06
7.57902e-05
-6.82922e-06
3.03087e-06
7.10496e-05
-6.00695e-06
3.94959e-06
6.72599e-05
-5.37494e-06
5.22463e-06
6.4049e-05