/*--------------------------------*- C++ -*----------------------------------*\
| =========                 |                                                 |
| \\      /  F ield         | foam-extend: Open Source CFD                    |
|  \\    /   O peration     | Version:     3.1                                |
|   \\  /    A nd           | Web:         http://www.extend-project.de       |
|    \\/     M anipulation  |                                                 |
\*---------------------------------------------------------------------------*/
FoamFile
{
    version     2.0;
    format      ascii;
    class       pointVectorField;
    location    "0.9";
    object      pointMotionU;
}
// * * * * * * * * * * * * * * * * * * * * * * * * * * * * * * * * * * * * * //

dimensions      [0 1 -1 0 0 0 0];

internalField   nonuniform List<vector> 
16859
(
(0 0 0)
(0 0 0)
(0 0 0)
(0 0 0)
(0 0 0)
(0 0 0)
(0 0 0)
(0 0 0)
(0 0 0)
(0 0 0)
(0 0 0)
(0 0 0)
(0 0 0)
(0 0 0)
(0 0 0)
(0 0 0)
(0 0 0)
(0 0 0)
(-9.22481e-11 5.23263e-11 2.17583e-11)
(-1.83948e-10 1.01439e-10 4.36748e-11)
(-2.80675e-10 1.47408e-10 6.73097e-11)
(-3.91343e-10 1.91369e-10 9.49766e-11)
(-5.26155e-10 2.33441e-10 1.293e-10)
(-6.97837e-10 2.72331e-10 1.73542e-10)
(-9.22904e-10 3.04565e-10 2.3196e-10)
(-1.22359e-09 3.2322e-10 3.1046e-10)
(-1.6295e-09 3.15996e-10 4.17368e-10)
(-2.17716e-09 2.62202e-10 5.63882e-10)
(-2.90675e-09 1.29476e-10 7.6439e-10)
(-3.85214e-09 -1.27122e-10 1.03564e-09)
(-5.00831e-09 -5.58656e-10 1.38952e-09)
(-6.27459e-09 -1.19129e-09 1.8158e-09)
(-7.35582e-09 -1.91108e-09 2.25028e-09)
(-8.13337e-09 -4.0115e-09 2.40134e-09)
(0 0 0)
(-1.77161e-10 1.03088e-10 4.23517e-11)
(-3.52552e-10 1.99881e-10 8.48726e-11)
(-5.36481e-10 2.90814e-10 1.30532e-10)
(-7.45385e-10 3.78452e-10 1.83689e-10)
(-9.97718e-10 4.63501e-10 2.49186e-10)
(-1.31616e-09 5.44277e-10 3.32924e-10)
(-1.73044e-09 6.15671e-10 4.42671e-10)
(-2.28037e-09 6.67109e-10 5.89062e-10)
(-3.01756e-09 6.79026e-10 7.86501e-10)
(-4.006e-09 6.18421e-10 1.05421e-09)
(-5.31913e-09 4.3355e-10 1.41728e-09)
(-7.02088e-09 5.15704e-11 1.90452e-09)
(-9.10708e-09 -6.08594e-10 2.53619e-09)
(-1.13963e-08 -1.5856e-09 3.29411e-09)
(-1.33654e-08 -2.71336e-09 4.07261e-09)
(-1.36195e-08 -6.07947e-09 4.67609e-09)
(0 0 0)
(-2.48576e-10 1.50667e-10 6.07991e-11)
(-4.93433e-10 2.92443e-10 1.21623e-10)
(-7.47829e-10 4.26419e-10 1.86508e-10)
(-1.0332e-09 5.56949e-10 2.61382e-10)
(-1.37309e-09 6.86163e-10 3.52657e-10)
(-1.7959e-09 8.13541e-10 4.67982e-10)
(-2.33809e-09 9.3493e-10 6.17173e-10)
(-3.0474e-09 1.04062e-09 8.13204e-10)
(-3.98511e-09 1.11194e-09 1.07317e-09)
(-5.22778e-09 1.11701e-09 1.41948e-09)
(-6.86536e-09 1.00525e-09 1.88093e-09)
(-8.98229e-09 7.02759e-10 2.49012e-09)
(-1.15937e-08 1.24224e-10 3.27014e-09)
(-1.45033e-08 -7.75734e-10 4.1989e-09)
(-1.71026e-08 -1.87277e-09 5.15903e-09)
(-1.76114e-08 -5.0263e-09 5.83955e-09)
(0 0 0)
(-3.02492e-10 1.93563e-10 7.64715e-11)
(-5.98637e-10 3.76326e-10 1.52675e-10)
(-9.02388e-10 5.50234e-10 2.33279e-10)
(-1.23718e-09 7.21775e-10 3.25202e-10)
(-1.62797e-09 8.95297e-10 4.35705e-10)
(-2.10371e-09 1.07285e-09 5.73128e-10)
(-2.69996e-09 1.25371e-09 7.47647e-10)
(-3.46141e-09 1.43337e-09 9.72048e-10)
(-4.44406e-09 1.60165e-09 1.26247e-09)
(-5.71672e-09 1.7403e-09 1.63909e-09)
(-7.3595e-09 1.81945e-09 2.12616e-09)
(-9.45349e-09 1.79283e-09 2.75022e-09)
(-1.20376e-08 1.59741e-09 3.52991e-09)
(-1.49766e-08 1.17879e-09 4.44544e-09)
(-1.77641e-08 5.25905e-10 5.40454e-09)
(-1.89013e-08 -1.3101e-09 6.20197e-09)
(0 0 0)
(-3.37394e-10 2.30425e-10 8.91329e-11)
(-6.64977e-10 4.48679e-10 1.77504e-10)
(-9.95423e-10 6.57809e-10 2.70035e-10)
(-1.35136e-09 8.66636e-10 3.74101e-10)
(-1.7556e-09 1.0821e-09 4.97116e-10)
(-2.23286e-09 1.30961e-09 6.47132e-10)
(-2.81117e-09 1.55338e-09 8.33322e-10)
(-3.52269e-09 1.81662e-09 1.06631e-09)
(-4.40376e-09 2.1019e-09 1.35824e-09)
(-5.49388e-09 2.4116e-09 1.72237e-09)
(-6.83269e-09 2.74828e-09 2.1719e-09)
(-8.45414e-09 3.11319e-09 2.71731e-09)
(-1.03722e-08 3.49638e-09 3.361e-09)
(-1.25151e-08 3.85019e-09 4.08192e-09)
(-1.46484e-08 3.97132e-09 4.84106e-09)
(-1.58031e-08 4.40689e-09 5.66916e-09)
(0 0 0)
(-3.53377e-10 2.59644e-10 9.87232e-11)
(-6.92987e-10 5.06275e-10 1.96042e-10)
(-1.02859e-09 7.44102e-10 2.96805e-10)
(-1.3797e-09 9.84137e-10 4.08389e-10)
(-1.76433e-09 1.2358e-09 5.37825e-10)
(-2.19968e-09 1.50783e-09 6.92209e-10)
(-2.70193e-09 1.8093e-09 8.78862e-10)
(-3.2848e-09 2.15101e-09 1.10513e-09)
(-3.9562e-09 2.54775e-09 1.37763e-09)
(-4.71227e-09 3.02171e-09 1.70061e-09)
(-5.5278e-09 3.60732e-09 2.07283e-09)
(-6.34359e-09 4.35595e-09 2.4826e-09)
(-7.05663e-09 5.33112e-09 2.90175e-09)
(-7.52742e-09 6.54352e-09 3.28137e-09)
(-7.77209e-09 7.65856e-09 3.60972e-09)
(-6.19195e-09 1.10549e-08 3.86234e-09)
(0 0 0)
(-3.52263e-10 2.79743e-10 1.05408e-10)
(-6.86753e-10 5.46125e-10 2.08695e-10)
(-1.00923e-09 8.04369e-10 3.14384e-10)
(-1.33457e-09 1.0672e-09 4.29527e-10)
(-1.67459e-09 1.34597e-09 5.60453e-10)
(-2.03766e-09 1.65187e-09 7.12988e-10)
(-2.42701e-09 1.99741e-09 8.92337e-10)
(-2.83714e-09 2.39843e-09 1.10246e-09)
(-3.24744e-09 2.87716e-09 1.34472e-09)
(-3.6113e-09 3.46701e-09 1.61526e-09)
(-3.83859e-09 4.2195e-09 1.90045e-09)
(-3.76922e-09 5.21333e-09 2.16941e-09)
(-3.13882e-09 6.56146e-09 2.36303e-09)
(-1.58836e-09 8.36069e-09 2.38583e-09)
(9.74521e-10 1.03596e-08 2.17842e-09)
(1.16918e-08 1.86573e-08 -2.69376e-10)
(0 0 0)
(-3.37158e-10 2.89536e-10 1.0952e-10)
(-6.52898e-10 5.65816e-10 2.16201e-10)
(-9.48517e-10 8.3478e-10 3.2408e-10)
(-1.23365e-09 1.11015e-09 4.39693e-10)
(-1.51379e-09 1.40431e-09 5.68541e-10)
(-1.78904e-09 1.72962e-09 7.15179e-10)
(-2.05152e-09 2.09983e-09 8.82921e-10)
(-2.28066e-09 2.532e-09 1.07303e-09)
(-2.43556e-09 3.04908e-09 1.28317e-09)
(-2.44262e-09 3.6834e-09 1.50467e-09)
(-2.17679e-09 4.48086e-09 1.71818e-09)
(-1.43497e-09 5.5037e-09 1.887e-09)
(9.3592e-11 6.82406e-09 1.94872e-09)
(2.79765e-09 8.46158e-09 1.8141e-09)
(6.89069e-09 1.01233e-08 1.42013e-09)
(3.71309e-08 2.35067e-08 -4.19287e-09)
(0 0 0)
(0 0 0)
(0 0 0)
(0 0 0)
(0 0 0)
(0 0 0)
(0 0 0)
(0 0 0)
(0 0 0)
(0 0 0)
(0 0 0)
(0 0 0)
(0 0 0)
(0 0 0)
(0 0 0)
(0 0 0)
(0 0 0)
(0 0 0)
(-9.75374e-11 5.51905e-11 2.11309e-11)
(-1.94825e-10 1.07044e-10 4.24048e-11)
(-2.9816e-10 1.55706e-10 6.53423e-11)
(-4.1743e-10 2.02402e-10 9.22036e-11)
(-5.63937e-10 2.47176e-10 1.25535e-10)
(-7.52051e-10 2.88505e-10 1.68551e-10)
(-1.00085e-09 3.22437e-10 2.25553e-10)
(-1.33578e-09 3.41001e-10 3.02475e-10)
(-1.79048e-09 3.2978e-10 4.07661e-10)
(-2.40775e-09 2.64449e-10 5.52714e-10)
(-3.23543e-09 1.06417e-10 7.52697e-10)
(-4.31451e-09 -1.99709e-10 1.02511e-09)
(-5.6441e-09 -7.21607e-10 1.38211e-09)
(-7.1177e-09 -1.5081e-09 1.80893e-09)
(-8.38365e-09 -2.44291e-09 2.20557e-09)
(-1.08533e-08 -5.3145e-09 2.86101e-09)
(0 0 0)
(-1.87179e-10 1.08743e-10 4.1118e-11)
(-3.73093e-10 2.10955e-10 8.23739e-11)
(-5.69347e-10 3.07232e-10 1.2665e-10)
(-7.94077e-10 4.00317e-10 1.78178e-10)
(-1.06792e-09 4.90949e-10 2.41686e-10)
(-1.41677e-09 5.77249e-10 3.23038e-10)
(-1.87454e-09 6.53281e-10 4.29945e-10)
(-2.48651e-09 7.0674e-10 5.7294e-10)
(-3.31261e-09 7.15102e-10 7.66621e-10)
(-4.42811e-09 6.39887e-10 1.03074e-09)
(-5.91986e-09 4.19793e-10 1.3911e-09)
(-7.86513e-09 -3.32037e-11 1.87734e-09)
(-1.02645e-08 -8.22107e-10 2.50908e-09)
(-1.29125e-08 -2.00867e-09 3.25838e-09)
(-1.51533e-08 -3.39824e-09 3.95657e-09)
(-1.81152e-08 -6.65531e-09 5.2597e-09)
(0 0 0)
(-2.62349e-10 1.58977e-10 5.90056e-11)
(-5.21597e-10 3.08764e-10 1.17994e-10)
(-7.92668e-10 4.50728e-10 1.80869e-10)
(-1.09925e-09 5.89605e-10 2.53373e-10)
(-1.46776e-09 7.27747e-10 3.41767e-10)
(-1.93051e-09 8.64584e-10 4.53582e-10)
(-2.52906e-09 9.95302e-10 5.98458e-10)
(-3.31818e-09 1.10874e-09 7.89201e-10)
(-4.36972e-09 1.18373e-09 1.04299e-09)
(-5.77432e-09 1.18369e-09 1.38249e-09)
(-7.6397e-09 1.04996e-09 1.83675e-09)
(-1.00698e-08 6.96123e-10 2.43836e-09)
(-1.3089e-08 2.09851e-11 3.20752e-09)
(-1.64671e-08 -1.02984e-09 4.10686e-09)
(-1.93951e-08 -2.27498e-09 4.93863e-09)
(-2.34856e-08 -4.9512e-09 6.30117e-09)
(0 0 0)
(-3.18817e-10 2.04327e-10 7.41881e-11)
(-6.31916e-10 3.97547e-10 1.48058e-10)
(-9.55064e-10 5.82039e-10 2.26109e-10)
(-1.31421e-09 7.6494e-10 3.1503e-10)
(-1.73732e-09 9.5107e-10 4.21865e-10)
(-2.25726e-09 1.14276e-09 5.54729e-10)
(-2.91484e-09 1.33928e-09 7.2354e-10)
(-3.76196e-09 1.53577e-09 9.4081e-10)
(-4.86492e-09 1.72127e-09 1.22244e-09)
(-6.30669e-09 1.87601e-09 1.58832e-09)
(-8.18653e-09 1.96784e-09 2.06223e-09)
(-1.06097e-08 1.94747e-09 2.66916e-09)
(-1.36355e-08 1.75022e-09 3.42229e-09)
(-1.71091e-08 1.33041e-09 4.28234e-09)
(-2.03011e-08 7.43234e-10 5.07072e-09)
(-2.56257e-08 -7.47697e-10 6.35061e-09)
(0 0 0)
(-3.54993e-10 2.43355e-10 8.64384e-11)
(-7.0068e-10 4.74255e-10 1.72058e-10)
(-1.05149e-09 6.96357e-10 2.61579e-10)
(-1.43248e-09 9.19408e-10 3.62111e-10)
(-1.86923e-09 1.15116e-09 4.80792e-10)
(-2.38991e-09 1.39781e-09 6.25374e-10)
(-3.02697e-09 1.66441e-09 8.04674e-10)
(-3.81847e-09 1.95531e-09 1.02888e-09)
(-4.80877e-09 2.2748e-09 1.30958e-09)
(-6.04825e-09 2.62837e-09 1.65922e-09)
(-7.59165e-09 3.02452e-09 2.08955e-09)
(-9.49422e-09 3.47601e-09 2.60802e-09)
(-1.1796e-08 3.99402e-09 3.20919e-09)
(-1.44326e-08 4.56526e-09 3.85111e-09)
(-1.6999e-08 5.04924e-09 4.41696e-09)
(-2.2782e-08 5.36884e-09 5.47025e-09)
(0 0 0)
(-3.7102e-10 2.7434e-10 9.57006e-11)
(-7.2856e-10 5.35425e-10 1.89938e-10)
(-1.0839e-09 7.8825e-10 2.87336e-10)
(-1.45865e-09 1.04501e-09 3.94975e-10)
(-1.87305e-09 1.31628e-09 5.19576e-10)
(-2.34689e-09 1.6121e-09 6.67877e-10)
(-2.89938e-09 1.94322e-09 8.4676e-10)
(-3.54781e-09 2.32297e-09 1.06301e-09)
(-4.30432e-09 2.7703e-09 1.32245e-09)
(-5.16985e-09 3.3148e-09 1.62812e-09)
(-6.12457e-09 4.00494e-09 1.97663e-09)
(-7.11574e-09 4.91908e-09 2.35205e-09)
(-8.04862e-09 6.17141e-09 2.71671e-09)
(-8.79003e-09 7.85269e-09 3.00108e-09)
(-9.30954e-09 9.70298e-09 3.13955e-09)
(-1.28066e-08 1.26161e-08 3.50746e-09)
(0 0 0)
(-3.68895e-10 2.95698e-10 1.02142e-10)
(-7.20036e-10 5.77845e-10 2.02106e-10)
(-1.06034e-09 8.52595e-10 3.04181e-10)
(-1.40632e-09 1.13406e-09 4.15105e-10)
(-1.77133e-09 1.43502e-09 5.40872e-10)
(-2.16527e-09 1.76836e-09 6.86926e-10)
(-2.59278e-09 2.14889e-09 8.57993e-10)
(-3.0494e-09 2.59586e-09 1.05741e-09)
(-3.51463e-09 3.13715e-09 1.28565e-09)
(-3.93986e-09 3.81601e-09 1.53749e-09)
(-4.22879e-09 4.70227e-09 1.797e-09)
(-4.20665e-09 5.91032e-09 2.02882e-09)
(-3.57832e-09 7.62462e-09 2.16432e-09)
(-1.92957e-09 1.00745e-08 2.08858e-09)
(8.11816e-10 1.3156e-08 1.71539e-09)
(5.90553e-09 2.06303e-08 2.09352e-10)
(0 0 0)
(-3.51979e-10 3.06156e-10 1.06092e-10)
(-6.82288e-10 5.9892e-10 2.09296e-10)
(-9.92978e-10 8.85255e-10 3.13412e-10)
(-1.29477e-09 1.1804e-09 4.24659e-10)
(-1.59401e-09 1.49833e-09 5.48202e-10)
(-1.89133e-09 1.85328e-09 6.8821e-10)
(-2.17883e-09 2.26155e-09 8.47521e-10)
(-2.43488e-09 2.74388e-09 1.02679e-09)
(-2.6155e-09 3.32902e-09 1.22282e-09)
(-2.64034e-09 4.0589e-09 1.42574e-09)
(-2.37078e-09 4.99607e-09 1.61425e-09)
(-1.57732e-09 6.23273e-09 1.74837e-09)
(1.00428e-10 7.89542e-09 1.75966e-09)
(3.13467e-09 1.00931e-08 1.54862e-09)
(7.7798e-09 1.26176e-08 1.04626e-09)
(3.21795e-08 2.52781e-08 -2.48856e-09)
(0 0 0)
(0 0 0)
(0 0 0)
(0 0 0)
(0 0 0)
(0 0 0)
(0 0 0)
(0 0 0)
(0 0 0)
(0 0 0)
(0 0 0)
(0 0 0)
(0 0 0)
(0 0 0)
(0 0 0)
(0 0 0)
(0 0 0)
(0 0 0)
(-1.02623e-10 5.77758e-11 1.97292e-11)
(-2.05327e-10 1.12105e-10 3.95889e-11)
(-3.1507e-10 1.6316e-10 6.09993e-11)
(-4.42585e-10 2.1218e-10 8.60658e-11)
(-6.00335e-10 2.59145e-10 1.1717e-10)
(-8.04302e-10 3.02315e-10 1.5734e-10)
(-1.07567e-09 3.37189e-10 2.1064e-10)
(-1.4427e-09 3.5482e-10 2.82664e-10)
(-1.94271e-09 3.39165e-10 3.81267e-10)
(-2.62326e-09 2.63323e-10 5.17521e-10)
(-3.53851e-09 8.52616e-11 7.06052e-10)
(-4.73535e-09 -2.53637e-10 9.64175e-10)
(-6.21713e-09 -8.20482e-10 1.3059e-09)
(-7.88164e-09 -1.65114e-09 1.72485e-09)
(-9.37906e-09 -2.60211e-09 2.14171e-09)
(-1.2963e-08 -5.27866e-09 3.16843e-09)
(0 0 0)
(-1.96809e-10 1.13845e-10 3.83787e-11)
(-3.92899e-10 2.20933e-10 7.68724e-11)
(-6.01028e-10 3.21909e-10 1.18151e-10)
(-8.41003e-10 4.19641e-10 1.66166e-10)
(-1.13565e-09 5.1486e-10 2.2535e-10)
(-1.51369e-09 6.05323e-10 3.01207e-10)
(-2.01283e-09 6.84236e-10 4.00978e-10)
(-2.68351e-09 7.37726e-10 5.34558e-10)
(-3.59285e-09 7.40699e-10 7.15702e-10)
(-4.82586e-09 6.50662e-10 9.63232e-10)
(-6.48063e-09 4.006e-10 1.30172e-09)
(-8.64534e-09 -1.02769e-10 1.75982e-09)
(-1.13286e-08 -9.60681e-10 2.35908e-09)
(-1.43264e-08 -2.21186e-09 3.08327e-09)
(-1.69723e-08 -3.61304e-09 3.79512e-09)
(-2.12333e-08 -6.65679e-09 5.4191e-09)
(0 0 0)
(-2.75618e-10 1.66488e-10 5.50592e-11)
(-5.48795e-10 3.23483e-10 1.10075e-10)
(-8.36009e-10 4.72497e-10 1.68661e-10)
(-1.16319e-09 6.1856e-10 2.3617e-10)
(-1.55954e-09 7.64105e-10 3.18451e-10)
(-2.06093e-09 9.08258e-10 4.22541e-10)
(-2.71376e-09 1.04542e-09 5.57438e-10)
(-3.57956e-09 1.16288e-09 7.35106e-10)
(-4.73966e-09 1.23692e-09 9.71646e-10)
(-6.29767e-09 1.22695e-09 1.28832e-09)
(-8.37725e-09 1.06851e-09 1.71226e-09)
(-1.11006e-08 6.69355e-10 2.27409e-09)
(-1.45084e-08 -7.10207e-11 2.99469e-09)
(-1.83771e-08 -1.18638e-09 3.84826e-09)
(-2.18717e-08 -2.4451e-09 4.67287e-09)
(-2.78074e-08 -4.9344e-09 6.40752e-09)
(0 0 0)
(-3.34609e-10 2.14083e-10 6.92089e-11)
(-6.64182e-10 4.16732e-10 1.38079e-10)
(-1.00626e-09 6.10618e-10 2.10772e-10)
(-1.38925e-09 8.03359e-10 2.93504e-10)
(-1.84407e-09 1.00003e-09 3.92819e-10)
(-2.40741e-09 1.20294e-09 5.16252e-10)
(-3.12517e-09 1.41098e-09 6.72994e-10)
(-4.05639e-09 1.61837e-09 8.74622e-10)
(-5.27736e-09 1.81257e-09 1.13581e-09)
(-6.88516e-09 1.97123e-09 1.47481e-09)
(-8.99861e-09 2.0584e-09 1.91325e-09)
(-1.17499e-08 2.01995e-09 2.47372e-09)
(-1.52309e-08 1.78745e-09 3.16878e-09)
(-1.93156e-08 1.31701e-09 3.96864e-09)
(-2.32406e-08 6.88835e-10 4.72801e-09)
(-3.09608e-08 -7.56607e-10 6.30797e-09)
(0 0 0)
(-3.72091e-10 2.55097e-10 8.06123e-11)
(-7.35459e-10 4.97418e-10 1.60401e-10)
(-1.10629e-09 7.31064e-10 2.43721e-10)
(-1.51205e-09 9.66487e-10 3.37153e-10)
(-1.98114e-09 1.21196e-09 4.47295e-10)
(-2.54521e-09 1.47406e-09 5.81286e-10)
(-3.24134e-09 1.75806e-09 7.47204e-10)
(-4.11388e-09 2.06839e-09 9.54318e-10)
(-5.21603e-09 2.40934e-09 1.21305e-09)
(-6.61099e-09 2.78627e-09 1.53438e-09)
(-8.37312e-09 3.20733e-09 1.92828e-09)
(-1.05895e-08 3.68343e-09 2.40059e-09)
(-1.33509e-08 4.21736e-09 2.9462e-09)
(-1.66602e-08 4.76919e-09 3.53247e-09)
(-2.00953e-08 5.17256e-09 4.06743e-09)
(-2.87875e-08 5.22792e-09 5.26679e-09)
(0 0 0)
(-3.88246e-10 2.87703e-10 8.92199e-11)
(-7.63408e-10 5.61858e-10 1.76999e-10)
(-1.13833e-09 8.28058e-10 2.67582e-10)
(-1.53676e-09 1.09941e-09 3.67503e-10)
(-1.98134e-09 1.38732e-09 4.82933e-10)
(-2.49465e-09 1.70257e-09 6.20012e-10)
(-3.09944e-09 2.0568e-09 7.84938e-10)
(-3.81764e-09 2.46441e-09 9.83688e-10)
(-4.66763e-09 2.94591e-09 1.22117e-09)
(-5.65956e-09 3.53333e-09 1.49942e-09)
(-6.78867e-09 4.27848e-09 1.81435e-09)
(-8.03065e-09 5.26235e-09 2.15076e-09)
(-9.34861e-09 6.59059e-09 2.47649e-09)
(-1.07148e-08 8.30477e-09 2.74109e-09)
(-1.21407e-08 1.00557e-08 2.90677e-09)
(-1.88804e-08 1.22739e-08 3.41977e-09)
(0 0 0)
(-3.85239e-10 3.10219e-10 9.51936e-11)
(-7.52883e-10 6.06638e-10 1.88266e-10)
(-1.11111e-09 8.96137e-10 2.83133e-10)
(-1.47814e-09 1.19393e-09 3.85988e-10)
(-1.86915e-09 1.51381e-09 5.02299e-10)
(-2.29596e-09 1.8698e-09 6.36959e-10)
(-2.76545e-09 2.278e-09 7.94101e-10)
(-3.27575e-09 2.75947e-09 9.76433e-10)
(-3.8095e-09 3.34467e-09 1.18382e-09)
(-4.32254e-09 4.08074e-09 1.41067e-09)
(-4.72637e-09 5.04299e-09 1.64161e-09)
(-4.86419e-09 6.35132e-09 1.84488e-09)
(-4.48882e-09 8.18434e-09 1.96459e-09)
(-3.302e-09 1.07179e-08 1.92275e-09)
(-1.35527e-09 1.37164e-08 1.69102e-09)
(7.84235e-10 2.02635e-08 9.46361e-10)
(0 0 0)
(-3.66668e-10 3.21294e-10 9.88472e-11)
(-7.11579e-10 6.28995e-10 1.94899e-10)
(-1.03767e-09 9.3088e-10 2.91606e-10)
(-1.35692e-09 1.2434e-09 3.94662e-10)
(-1.67683e-09 1.5817e-09 5.08744e-10)
(-1.99913e-09 1.9613e-09 6.37536e-10)
(-2.3169e-09 2.40004e-09 7.83395e-10)
(-2.60928e-09 2.92069e-09 9.46517e-10)
(-2.83278e-09 3.55473e-09 1.12339e-09)
(-2.90748e-09 4.34791e-09 1.30426e-09)
(-2.69635e-09 5.36747e-09 1.46918e-09)
(-1.97777e-09 6.70875e-09 1.58312e-09)
(-4.22361e-10 8.48871e-09 1.59229e-09)
(2.35195e-09 1.07618e-08 1.43509e-09)
(6.44796e-09 1.31775e-08 1.10799e-09)
(2.86456e-08 2.48345e-08 -7.12136e-10)
(0 0 0)
(0 0 0)
(0 0 0)
(0 0 0)
(0 0 0)
(0 0 0)
(0 0 0)
(0 0 0)
(0 0 0)
(0 0 0)
(0 0 0)
(0 0 0)
(0 0 0)
(0 0 0)
(0 0 0)
(0 0 0)
(0 0 0)
(0 0 0)
(-1.07351e-10 6.00281e-11 1.76215e-11)
(-2.15096e-10 1.16499e-10 3.53576e-11)
(-3.30714e-10 1.69548e-10 5.44644e-11)
(-4.65753e-10 2.20409e-10 7.6812e-11)
(-6.3384e-10 2.6902e-10 1.04541e-10)
(-8.52305e-10 3.1337e-10 1.40352e-10)
(-1.14408e-09 3.48418e-10 1.87852e-10)
(-1.53984e-09 3.64346e-10 2.52012e-10)
(-2.07976e-09 3.43841e-10 3.39742e-10)
(-2.81431e-09 2.5823e-10 4.60693e-10)
(-3.80142e-09 6.3783e-11 6.27823e-10)
(-5.0899e-09 -2.97937e-10 8.56534e-10)
(-6.68057e-09 -8.88757e-10 1.15989e-09)
(-8.46283e-09 -1.73019e-09 1.53496e-09)
(-1.00631e-08 -2.66191e-09 1.91457e-09)
(-1.36665e-08 -5.1053e-09 2.84174e-09)
(0 0 0)
(-2.05688e-10 1.18243e-10 3.4257e-11)
(-4.11206e-10 2.2952e-10 6.86103e-11)
(-6.3033e-10 3.34448e-10 1.05419e-10)
(-8.8451e-10 4.35997e-10 1.48216e-10)
(-1.19852e-09 5.3476e-10 2.00954e-10)
(-1.60346e-09 6.28014e-10 2.68512e-10)
(-2.14034e-09 7.08093e-10 3.57311e-10)
(-2.86401e-09 7.59637e-10 4.76097e-10)
(-3.84689e-09 7.55266e-10 6.36894e-10)
(-5.18112e-09 6.49513e-10 8.5621e-10)
(-6.97185e-09 3.71931e-10 1.15543e-09)
(-9.31074e-09 -1.7201e-10 1.55923e-09)
(-1.22027e-08 -1.07714e-09 2.08668e-09)
(-1.54241e-08 -2.36273e-09 2.72557e-09)
(-1.82576e-08 -3.76186e-09 3.35793e-09)
(-2.2386e-08 -6.71618e-09 4.68266e-09)
(0 0 0)
(-2.8786e-10 1.72963e-10 4.91332e-11)
(-5.73987e-10 3.36165e-10 9.8216e-11)
(-8.76279e-10 4.91156e-10 1.50442e-10)
(-1.22278e-09 6.43141e-10 2.10582e-10)
(-1.64514e-09 7.94434e-10 2.8383e-10)
(-2.1824e-09 9.43677e-10 3.76407e-10)
(-2.88529e-09 1.08432e-09 4.96266e-10)
(-3.82106e-09 1.20198e-09 6.53907e-10)
(-5.07857e-09 1.2702e-09 8.63335e-10)
(-6.77152e-09 1.24464e-09 1.14298e-09)
(-9.03434e-09 1.05597e-09 1.5159e-09)
(-1.1998e-08 6.07691e-10 2.00758e-09)
(-1.57043e-08 -1.99234e-10 2.63496e-09)
(-1.9907e-08 -1.38538e-09 3.37562e-09)
(-2.36948e-08 -2.69368e-09 4.09062e-09)
(-2.95805e-08 -5.27455e-09 5.46547e-09)
(0 0 0)
(-3.49289e-10 2.22553e-10 6.17595e-11)
(-6.94246e-10 4.33344e-10 1.23187e-10)
(-1.05406e-09 6.35197e-10 1.87964e-10)
(-1.45947e-09 8.36017e-10 2.61607e-10)
(-1.9441e-09 1.04091e-09 3.49911e-10)
(-2.54814e-09 1.25188e-09 4.59521e-10)
(-3.32217e-09 1.46704e-09 5.98504e-10)
(-4.33155e-09 1.67913e-09 7.76933e-10)
(-5.66113e-09 1.87312e-09 1.00743e-09)
(-7.41958e-09 2.02281e-09 1.30546e-09)
(-9.74043e-09 2.08644e-09 1.6888e-09)
(-1.27731e-08 2.00206e-09 2.17531e-09)
(-1.66231e-08 1.69307e-09 2.7734e-09)
(-2.1153e-08 1.11295e-09 3.45544e-09)
(-2.55054e-08 3.6564e-10 4.09698e-09)
(-3.34356e-08 -1.37723e-09 5.28652e-09)
(0 0 0)
(-3.88065e-10 2.65321e-10 7.19216e-11)
(-7.68019e-10 5.17517e-10 1.43064e-10)
(-1.15772e-09 7.60971e-10 2.17269e-10)
(-1.58697e-09 1.00659e-09 3.00364e-10)
(-2.08679e-09 1.26288e-09 3.98167e-10)
(-2.69222e-09 1.53637e-09 5.16939e-10)
(-3.44473e-09 1.83191e-09 6.63705e-10)
(-4.39464e-09 2.15299e-09 8.46421e-10)
(-5.60338e-09 2.50207e-09 1.07385e-09)
(-7.14582e-09 2.88134e-09 1.35493e-09)
(-9.11307e-09 3.29319e-09 1.69719e-09)
(-1.16166e-08 3.73798e-09 2.1041e-09)
(-1.47764e-08 4.19965e-09 2.56927e-09)
(-1.86078e-08 4.61405e-09 3.06293e-09)
(-2.25916e-08 4.82777e-09 3.50474e-09)
(-3.18586e-08 4.33535e-09 4.32238e-09)
(0 0 0)
(-4.0442e-10 2.99355e-10 7.95804e-11)
(-7.96213e-10 5.84829e-10 1.57817e-10)
(-1.18975e-09 8.62415e-10 2.38445e-10)
(-1.61089e-09 1.14586e-09 3.2723e-10)
(-2.08462e-09 1.447e-09 4.2959e-10)
(-2.63638e-09 1.77688e-09 5.50869e-10)
(-3.29258e-09 2.14711e-09 6.96381e-10)
(-4.08e-09 2.57175e-09 8.71126e-10)
(-5.02378e-09 3.07034e-09 1.07898e-09)
(-6.14393e-09 3.67273e-09 1.32111e-09)
(-7.45118e-09 4.42586e-09 1.59319e-09)
(-8.94686e-09 5.39947e-09 1.8818e-09)
(-1.06334e-08 6.67359e-09 2.16072e-09)
(-1.25182e-08 8.24778e-09 2.39134e-09)
(-1.45318e-08 9.76826e-09 2.5424e-09)
(-2.21499e-08 1.12023e-08 2.8315e-09)
(0 0 0)
(-4.00678e-10 3.22896e-10 8.48862e-11)
(-7.84016e-10 6.3169e-10 1.67812e-10)
(-1.15946e-09 9.33774e-10 2.52206e-10)
(-1.54701e-09 1.24514e-09 3.43519e-10)
(-1.96369e-09 1.58023e-09 4.46527e-10)
(-2.42353e-09 1.95351e-09 5.65443e-10)
(-2.93604e-09 2.38145e-09 7.03732e-10)
(-3.50275e-09 2.8852e-09 8.63494e-10)
(-4.11092e-09 3.49487e-09 1.04421e-09)
(-4.72327e-09 4.25619e-09 1.24056e-09)
(-5.26279e-09 5.24041e-09 1.43906e-09)
(-5.59359e-09 6.55654e-09 1.6138e-09)
(-5.50578e-09 8.35632e-09 1.72302e-09)
(-4.74326e-09 1.07679e-08 1.71537e-09)
(-3.29856e-09 1.35406e-08 1.57984e-09)
(-1.84319e-09 1.93646e-08 1.09526e-09)
(0 0 0)
(-3.80653e-10 3.34522e-10 8.81235e-11)
(-7.3959e-10 6.55194e-10 1.73677e-10)
(-1.0807e-09 9.70379e-10 2.59667e-10)
(-1.41733e-09 1.29742e-09 3.51091e-10)
(-1.75832e-09 1.65219e-09 4.5201e-10)
(-2.10687e-09 2.05087e-09 5.65554e-10)
(-2.45769e-09 2.5118e-09 6.93612e-10)
(-2.79192e-09 3.05805e-09 8.36082e-10)
(-3.06862e-09 3.72098e-09 9.89555e-10)
(-3.21181e-09 4.54501e-09 1.14524e-09)
(-3.0917e-09 5.59318e-09 1.2862e-09)
(-2.50126e-09 6.94947e-09 1.38462e-09)
(-1.13984e-09 8.70355e-09 1.40226e-09)
(1.3378e-09 1.08605e-08 1.30392e-09)
(5.05774e-09 1.30278e-08 1.10392e-09)
(2.75013e-08 2.42672e-08 -1.18349e-10)
(0 0 0)
(0 0 0)
(0 0 0)
(0 0 0)
(0 0 0)
(0 0 0)
(0 0 0)
(0 0 0)
(0 0 0)
(0 0 0)
(0 0 0)
(0 0 0)
(0 0 0)
(0 0 0)
(0 0 0)
(0 0 0)
(0 0 0)
(0 0 0)
(-1.11525e-10 6.18959e-11 1.48899e-11)
(-2.23683e-10 1.20109e-10 2.98741e-11)
(-3.44433e-10 1.74732e-10 4.59998e-11)
(-4.86116e-10 2.27007e-10 6.48451e-11)
(-6.63281e-10 2.76772e-10 8.82185e-11)
(-8.94294e-10 3.21712e-10 1.18374e-10)
(-1.20349e-09 3.56296e-10 1.5831e-10)
(-1.62324e-09 3.69942e-10 2.1213e-10)
(-2.1955e-09 3.44278e-10 2.85458e-10)
(-2.97223e-09 2.49399e-10 3.86005e-10)
(-4.01161e-09 4.07689e-11 5.23959e-10)
(-5.35893e-09 -3.38923e-10 7.10982e-10)
(-7.00426e-09 -9.46032e-10 9.5595e-10)
(-8.81621e-09 -1.79045e-09 1.25366e-09)
(-1.03975e-08 -2.70082e-09 1.54732e-09)
(-1.37132e-08 -4.92045e-09 2.21858e-09)
(0 0 0)
(-2.13506e-10 1.21873e-10 2.89281e-11)
(-4.27318e-10 2.36572e-10 5.79338e-11)
(-6.56182e-10 3.44685e-10 8.89957e-11)
(-9.22947e-10 4.49184e-10 1.25088e-10)
(-1.25395e-09 5.50433e-10 1.69523e-10)
(-1.68228e-09 6.45212e-10 2.26373e-10)
(-2.25157e-09 7.24998e-10 3.00972e-10)
(-3.01988e-09 7.7304e-10 4.00509e-10)
(-4.06317e-09 7.59952e-10 5.34729e-10)
(-5.47709e-09 6.3779e-10 7.16771e-10)
(-7.36779e-09 3.33765e-10 9.63151e-10)
(-9.82122e-09 -2.4676e-10 1.2919e-09)
(-1.28236e-08 -1.19302e-09 1.71463e-09)
(-1.61123e-08 -2.51073e-09 2.21519e-09)
(-1.89246e-08 -3.91789e-09 2.694e-09)
(-2.25656e-08 -6.83795e-09 3.57861e-09)
(0 0 0)
(-2.98656e-10 1.78312e-10 4.14824e-11)
(-5.9624e-10 3.46609e-10 8.29168e-11)
(-9.11936e-10 5.06424e-10 1.26979e-10)
(-1.27557e-09 6.62981e-10 1.77674e-10)
(-1.72085e-09 8.18354e-10 2.39344e-10)
(-2.28952e-09 9.70626e-10 3.17179e-10)
(-3.03576e-09 1.11219e-09 4.17757e-10)
(-4.03119e-09 1.22688e-09 5.49664e-10)
(-5.36978e-09 1.28556e-09 7.24165e-10)
(-7.17061e-09 1.24017e-09 9.55733e-10)
(-9.57124e-09 1.01688e-09 1.26169e-09)
(-1.26987e-08 5.1527e-10 1.65962e-09)
(-1.65747e-08 -3.63836e-10 2.15751e-09)
(-2.09048e-08 -1.63356e-09 2.72843e-09)
(-2.4712e-08 -3.01734e-09 3.25606e-09)
(-3.00805e-08 -5.75694e-09 4.13106e-09)
(0 0 0)
(-3.62287e-10 2.29573e-10 5.21469e-11)
(-7.20899e-10 4.47057e-10 1.03994e-10)
(-1.0965e-09 6.55322e-10 1.5862e-10)
(-1.52186e-09 8.62395e-10 2.20655e-10)
(-2.03297e-09 1.07323e-09 2.9494e-10)
(-2.673e-09 1.2893e-09 3.86996e-10)
(-3.49639e-09 1.50767e-09 5.03461e-10)
(-4.57341e-09 1.71922e-09 6.52513e-10)
(-5.99502e-09 1.90587e-09 8.44169e-10)
(-7.87678e-09 2.03683e-09 1.09026e-09)
(-1.03584e-08 2.06368e-09 1.40349e-09)
(-1.35908e-08 1.91567e-09 1.79475e-09)
(-1.76654e-08 1.50723e-09 2.26419e-09)
(-2.23988e-08 7.8943e-10 2.77975e-09)
(-2.68511e-08 -1.07562e-10 3.23758e-09)
(-3.43954e-08 -2.1936e-09 3.93649e-09)
(0 0 0)
(-4.02262e-10 2.73812e-10 6.07203e-11)
(-7.96999e-10 5.34137e-10 1.2075e-10)
(-1.20359e-09 7.85499e-10 1.83301e-10)
(-1.65388e-09 1.03905e-09 2.53252e-10)
(-2.18128e-09 1.30327e-09 3.35452e-10)
(-2.82377e-09 1.5843e-09 4.3508e-10)
(-3.62658e-09 1.8861e-09 5.57878e-10)
(-4.6449e-09 2.21044e-09 7.10222e-10)
(-5.94635e-09 2.55681e-09 8.98902e-10)
(-7.61342e-09 2.92248e-09 1.13036e-09)
(-9.74567e-09 3.30178e-09 1.40905e-09)
(-1.24615e-08 3.68242e-09 1.73458e-09)
(-1.58772e-08 4.03091e-09 2.09606e-09)
(-1.99724e-08 4.26995e-09 2.46088e-09)
(-2.41384e-08 4.27579e-09 2.7607e-09)
(-3.32386e-08 3.28265e-09 3.16733e-09)
(0 0 0)
(-4.1886e-10 3.09047e-10 6.71734e-11)
(-8.25552e-10 6.03853e-10 1.33171e-10)
(-1.23586e-09 8.90645e-10 2.01107e-10)
(-1.67756e-09 1.18355e-09 2.75798e-10)
(-2.1778e-09 1.49451e-09 3.61746e-10)
(-2.76464e-09 1.8344e-09 4.63346e-10)
(-3.46777e-09 2.21415e-09 5.84897e-10)
(-4.31822e-09 2.64638e-09 7.30309e-10)
(-5.34657e-09 3.14798e-09 9.02369e-10)
(-6.57981e-09 3.74409e-09 1.1013e-09)
(-8.03732e-09 4.47328e-09 1.32241e-09)
(-9.72955e-09 5.3911e-09 1.55297e-09)
(-1.16615e-08 6.55587e-09 1.76906e-09)
(-1.38147e-08 7.94828e-09 1.93566e-09)
(-1.60316e-08 9.24546e-09 2.02504e-09)
(-2.36502e-08 1.0112e-08 2.08268e-09)
(0 0 0)
(-4.14536e-10 3.33453e-10 7.16375e-11)
(-8.12029e-10 6.52469e-10 1.41572e-10)
(-1.20313e-09 9.64755e-10 2.12651e-10)
(-1.6095e-09 1.2868e-09 2.89422e-10)
(-2.04997e-09 1.6333e-09 3.75835e-10)
(-2.54067e-09 2.01872e-09 4.75332e-10)
(-3.09371e-09 2.45905e-09 5.90663e-10)
(-3.71387e-09 2.9743e-09 7.23349e-10)
(-4.3926e-09 3.59228e-09 8.72622e-10)
(-5.09799e-09 4.35436e-09 1.03365e-09)
(-5.75986e-09 5.32375e-09 1.19494e-09)
(-6.24971e-09 6.59553e-09 1.33526e-09)
(-6.35956e-09 8.3e-09 1.42172e-09)
(-5.80621e-09 1.05486e-08 1.41489e-09)
(-4.48888e-09 1.31282e-08 1.306e-09)
(-2.77803e-09 1.86215e-08 9.05352e-10)
(0 0 0)
(-3.93293e-10 3.45552e-10 7.43562e-11)
(-7.64992e-10 6.76955e-10 1.46491e-10)
(-1.11994e-09 1.00295e-09 2.18889e-10)
(-1.47279e-09 1.34146e-09 2.95711e-10)
(-1.83378e-09 1.70874e-09 3.80304e-10)
(-2.20768e-09 2.12104e-09 4.75199e-10)
(-2.59103e-09 2.59641e-09 5.81838e-10)
(-2.96722e-09 3.15697e-09 6.99946e-10)
(-3.29815e-09 3.83196e-09 8.26458e-10)
(-3.5115e-09 4.66164e-09 9.53914e-10)
(-3.48217e-09 5.70127e-09 1.06847e-09)
(-3.00826e-09 7.02105e-09 1.14832e-09)
(-1.78998e-09 8.68962e-09 1.16487e-09)
(5.41101e-10 1.0693e-08 1.09286e-09)
(4.19035e-09 1.26543e-08 9.40991e-10)
(2.79023e-08 2.39527e-08 -6.48131e-11)
(0 0 0)
(0 0 0)
(0 0 0)
(0 0 0)
(0 0 0)
(0 0 0)
(0 0 0)
(0 0 0)
(0 0 0)
(0 0 0)
(0 0 0)
(0 0 0)
(0 0 0)
(0 0 0)
(0 0 0)
(0 0 0)
(0 0 0)
(0 0 0)
(-1.14988e-10 6.33628e-11 1.16396e-11)
(-2.30728e-10 1.2289e-10 2.33453e-11)
(-3.55709e-10 1.78693e-10 3.59368e-11)
(-5.02898e-10 2.31995e-10 5.06419e-11)
(-6.87464e-10 2.82478e-10 6.88619e-11)
(-9.28602e-10 3.27568e-10 9.23338e-11)
(-1.25164e-09 3.61303e-10 1.2335e-10)
(-1.69002e-09 3.72453e-10 1.65007e-10)
(-2.28652e-09 3.41793e-10 2.21467e-10)
(-3.09318e-09 2.38521e-10 2.98281e-10)
(-4.16627e-09 1.76729e-11 4.02491e-10)
(-5.54504e-09 -3.76857e-10 5.41512e-10)
(-7.20698e-09 -9.96885e-10 7.19468e-10)
(-9.00212e-09 -1.84335e-09 9.28857e-10)
(-1.05244e-08 -2.73661e-09 1.12657e-09)
(-1.35657e-08 -4.77326e-09 1.55014e-09)
(0 0 0)
(-2.19984e-10 1.24713e-10 2.26025e-11)
(-4.40615e-10 2.42036e-10 4.52588e-11)
(-6.7755e-10 3.5256e-10 6.95136e-11)
(-9.54686e-10 4.59174e-10 9.76718e-11)
(-1.29957e-09 5.61992e-10 1.32299e-10)
(-1.74685e-09 6.57337e-10 1.76531e-10)
(-2.34201e-09 7.35894e-10 2.34439e-10)
(-3.14517e-09 7.79678e-10 3.11433e-10)
(-4.2341e-09 7.5761e-10 4.14697e-10)
(-5.70504e-09 6.19739e-10 5.53623e-10)
(-7.66111e-09 2.91571e-10 7.39385e-10)
(-1.01779e-08 -3.21347e-10 9.8288e-10)
(-1.32197e-08 -1.3038e-09 1.28796e-09)
(-1.64904e-08 -2.65133e-09 1.63588e-09)
(-1.92114e-08 -4.06978e-09 1.95171e-09)
(-2.24379e-08 -6.9671e-09 2.4656e-09)
(0 0 0)
(-3.0761e-10 1.82495e-10 3.24077e-11)
(-6.14673e-10 3.54726e-10 6.47704e-11)
(-9.41472e-10 5.18186e-10 9.91675e-11)
(-1.31923e-09 6.78022e-10 1.38704e-10)
(-1.78334e-09 8.36036e-10 1.86741e-10)
(-2.3776e-09 9.89733e-10 2.47266e-10)
(-3.15869e-09 1.13047e-09 3.25285e-10)
(-4.20111e-09 1.24039e-09 4.27233e-10)
(-5.60156e-09 1.28791e-09 5.61345e-10)
(-7.48064e-09 1.2217e-09 7.37791e-10)
(-9.9734e-09 9.64132e-10 9.67859e-10)
(-1.31957e-08 4.11641e-10 1.26115e-09)
(-1.71435e-08 -5.34977e-10 1.61719e-09)
(-2.14811e-08 -1.88254e-09 2.00749e-09)
(-2.5207e-08 -3.33681e-09 2.34579e-09)
(-3.01401e-08 -6.20313e-09 2.82233e-09)
(0 0 0)
(-3.73069e-10 2.35058e-10 4.07394e-11)
(-7.43006e-10 4.57715e-10 8.12294e-11)
(-1.13172e-09 6.70828e-10 1.23859e-10)
(-1.57362e-09 8.82418e-10 1.72219e-10)
(-2.10662e-09 1.09719e-09 2.30049e-10)
(-2.77619e-09 1.31601e-09 3.01583e-10)
(-3.63965e-09 1.5348e-09 3.91855e-10)
(-4.7706e-09 1.74249e-09 5.06944e-10)
(-6.26346e-09 1.91804e-09 6.54068e-10)
(-8.23633e-09 2.02622e-09 8.41264e-10)
(-1.08282e-08 2.01266e-09 1.07614e-09)
(-1.4181e-08 1.7995e-09 1.36292e-09)
(-1.83628e-08 1.29515e-09 1.69482e-09)
(-2.31483e-08 4.52241e-10 2.03924e-09)
(-2.75642e-08 -5.73292e-10 2.3204e-09)
(-3.47674e-08 -2.91553e-09 2.65788e-09)
(0 0 0)
(-4.14064e-10 2.80451e-10 4.74328e-11)
(-8.21104e-10 5.4707e-10 9.43048e-11)
(-1.24177e-09 8.04423e-10 1.43103e-10)
(-1.70963e-09 1.06374e-09 1.97609e-10)
(-2.26002e-09 1.33332e-09 2.61563e-10)
(-2.93326e-09 1.61876e-09 3.38924e-10)
(-3.77747e-09 1.9229e-09 4.34018e-10)
(-4.85122e-09 2.2455e-09 5.51534e-10)
(-6.22585e-09 2.58284e-09 6.96218e-10)
(-7.98707e-09 2.92715e-09 8.72051e-10)
(-1.02353e-08 3.26535e-09 1.08056e-09)
(-1.30834e-08 3.57518e-09 1.31793e-09)
(-1.66286e-08 3.81276e-09 1.56992e-09)
(-2.0813e-08 3.89918e-09 1.80476e-09)
(-2.49902e-08 3.74224e-09 1.97346e-09)
(-3.38979e-08 2.41173e-09 2.1097e-09)
(0 0 0)
(-4.30904e-10 3.16633e-10 5.24665e-11)