/*--------------------------------*- C++ -*----------------------------------*\
| =========                 |                                                 |
| \\      /  F ield         | foam-extend: Open Source CFD                    |
|  \\    /   O peration     | Version:     3.1                                |
|   \\  /    A nd           | Web:         http://www.extend-project.de       |
|    \\/     M anipulation  |                                                 |
\*---------------------------------------------------------------------------*/
FoamFile
{
    version     2.0;
    format      ascii;
    class       surfaceVectorField;
    location    "0.9";
    object      Sf;
}
// * * * * * * * * * * * * * * * * * * * * * * * * * * * * * * * * * * * * * //

dimensions      [0 2 0 0 0 0 0];

internalField   nonuniform List<vector> 
41600
(
(0.000625945 -7.34791e-06 -5.77627e-08)
(-9.46397e-07 0.000710472 -2.74219e-08)
(-3.81362e-08 -4.29032e-08 0.000707374)
(3.91245e-08 4.4015e-08 -0.000707289)
(0.000626855 -1.41499e-05 -1.11445e-07)
(-9.10599e-07 0.000709924 -8.22234e-08)
(-3.7854e-08 -1.2836e-07 0.000708171)
(3.88463e-08 1.31699e-07 -0.000708035)
(0.000627753 -2.03518e-05 -1.6195e-07)
(-8.98819e-07 0.000709321 -1.38693e-07)
(-3.95963e-08 -2.15368e-07 0.000708914)
(4.06419e-08 2.20997e-07 -0.000708725)
(0.000628689 -2.61159e-05 -2.11952e-07)
(-9.36987e-07 0.000708881 -2.012e-07)
(-4.45242e-08 -3.09726e-07 0.000709758)
(4.5695e-08 3.17844e-07 -0.000709506)
(0.000629711 -3.15753e-05 -2.63467e-07)
(-1.0235e-06 0.000708573 -2.75149e-07)
(-5.29023e-08 -4.1882e-07 0.000710743)
(5.42781e-08 4.29793e-07 -0.000710416)
(0.00063087 -3.68358e-05 -3.1783e-07)
(-1.16069e-06 0.000708371 -3.66634e-07)
(-6.54499e-08 -5.51098e-07 0.000711915)
(6.71151e-08 5.65478e-07 -0.000711494)
(0.000632222 -4.197e-05 -3.74936e-07)
(-1.35407e-06 0.000708241 -4.83026e-07)
(-8.3533e-08 -7.17268e-07 0.00071332)
(8.55629e-08 7.35786e-07 -0.00071278)
(0.000633833 -4.70084e-05 -4.33049e-07)
(-1.61344e-06 0.00070814 -6.33657e-07)
(-1.09424e-07 -9.31975e-07 0.000715008)
(1.11907e-07 9.55553e-07 -0.000714317)
(0.000635782 -5.1923e-05 -4.88619e-07)
(-1.95208e-06 0.00070801 -8.31216e-07)
(-1.47011e-07 -1.21649e-06 0.000717036)
(1.50073e-07 1.2463e-06 -0.00071615)
(0.000638164 -5.66005e-05 -5.35016e-07)
(-2.38618e-06 0.000707765 -1.09359e-06)
(-2.03177e-07 -1.60359e-06 0.000719465)
(2.06923e-07 1.64109e-06 -0.000718325)
(0.000641095 -6.08149e-05 -5.63224e-07)
(-2.93506e-06 0.000707293 -1.44717e-06)
(-2.90009e-07 -2.14616e-06 0.000722366)
(2.94473e-07 2.19303e-06 -0.000720891)
(0.000644705 -6.42015e-05 -5.66679e-07)
(-3.61485e-06 0.000706454 -1.93403e-06)
(-4.29173e-07 -2.93261e-06 0.000725826)
(4.34022e-07 2.99036e-06 -0.000723889)
(0.000649123 -6.62788e-05 -5.56652e-07)
(-4.42186e-06 0.000705134 -2.62629e-06)
(-6.57084e-07 -4.11222e-06 0.000729974)
(6.61029e-07 4.18079e-06 -0.000727358)
(0.00065437 -6.66231e-05 -6.04508e-07)
(-5.25049e-06 0.000703392 -3.64783e-06)
(-1.01229e-06 -5.91384e-06 0.00073502)
(1.0154e-06 5.99154e-06 -0.000731325)
(0.000659642 -6.51943e-05 -9.65247e-07)
(-5.3229e-06 0.000701566 -5.14624e-06)
(-1.36885e-06 -8.48558e-06 0.000740965)
(1.42007e-06 8.61564e-06 -0.000735458)
(-2.05226e-05 0.000693471 1.41303e-07)
(-5.04452e-06 -1.50849e-05 0.000752787)
(1.13187e-05 2.14885e-05 -0.000750201)
(0.000625899 -7.22411e-06 -1.71841e-07)
(-1.84882e-06 0.000717695 -5.37955e-08)
(-1.13028e-07 -4.13417e-08 0.000714692)
(1.15958e-07 4.24139e-08 -0.000714493)
(0.000626763 -1.39083e-05 -3.31539e-07)
(-1.77743e-06 0.000716605 -1.61133e-07)
(-1.12115e-07 -1.23547e-07 0.00071489)
(1.15049e-07 1.26758e-07 -0.000714652)
(0.000627613 -1.99979e-05 -4.81748e-07)
(-1.75157e-06 0.000715405 -2.71387e-07)
(-1.17098e-07 -2.06803e-07 0.00071498)
(1.20179e-07 2.1219e-07 -0.000714697)
(0.000628494 -2.56525e-05 -6.30416e-07)
(-1.82171e-06 0.000714528 -3.93027e-07)
(-1.31342e-07 -2.96294e-07 0.000715326)
(1.34797e-07 3.04033e-07 -0.000714986)
(0.000629451 -3.10053e-05 -7.83763e-07)
(-1.98412e-06 0.000713916 -5.36448e-07)
(-1.55542e-07 -3.98524e-07 0.000715938)
(1.59602e-07 4.08967e-07 -0.000715523)
(0.000630527 -3.6163e-05 -9.456e-07)
(-2.24158e-06 0.000713515 -7.13217e-07)
(-1.91647e-07 -5.20671e-07 0.000716825)
(1.9653e-07 5.34304e-07 -0.000716316)
(0.000631771 -4.12053e-05 -1.11636e-06)
(-2.60402e-06 0.000713265 -9.3716e-07)
(-2.43232e-07 -6.7126e-07 0.000717993)
(2.49162e-07 6.8871e-07 -0.000717368)
(0.000633238 -4.61787e-05 -1.29222e-06)
(-3.08768e-06 0.000713091 -1.22585e-06)
(-3.16234e-07 -8.61018e-07 0.00071944)
(3.23496e-07 8.83126e-07 -0.000718672)
(0.00063499 -5.10819e-05 -1.46252e-06)
(-3.7135e-06 0.000712885 -1.60248e-06)
(-4.20716e-07 -1.10421e-06 0.000721151)
(4.29642e-07 1.13205e-06 -0.000720209)
(0.000637099 -5.58459e-05 -1.60778e-06)
(-4.50613e-06 0.000712494 -2.09874e-06)
(-5.73679e-07 -1.42017e-06 0.000723077)
(5.84616e-07 1.45513e-06 -0.000721927)
(0.000639639 -6.03071e-05 -1.70068e-06)
(-5.48754e-06 0.00071171 -2.76006e-06)
(-8.03746e-07 -1.83488e-06 0.000725139)
(8.16867e-07 1.87872e-06 -0.000723733)
(0.000642666 -6.41748e-05 -1.71524e-06)
(-6.65694e-06 0.000710267 -3.65489e-06)
(-1.1586e-06 -2.38073e-06 0.000727211)
(1.17323e-06 2.43558e-06 -0.000725475)
(0.000646171 -6.70176e-05 -1.66117e-06)
(-7.93985e-06 0.000707908 -4.89262e-06)
(-1.70866e-06 -3.08802e-06 0.000729161)
(1.72203e-06 3.15612e-06 -0.000726949)
(0.000649921 -6.83372e-05 -1.68277e-06)
(-9.0126e-06 0.000704629 -6.64924e-06)
(-2.49908e-06 -3.95159e-06 0.000730989)
(2.51109e-06 4.03397e-06 -0.000727966)
(0.000652953 -6.78566e-05 -2.3729e-06)
(-8.465e-06 0.000700999 -9.15459e-06)
(-3.16645e-06 -4.86001e-06 0.000732995)
(3.27691e-06 4.94668e-06 -0.000728296)
(-2.02422e-05 0.000686519 -4.72563e-06)
(-8.74932e-06 -3.32937e-06 0.000730195)
(1.87404e-05 -3.54934e-07 -0.000719654)
(0.000625814 -6.98974e-06 -2.8171e-07)
(-2.66807e-06 0.000724684 -7.78274e-08)
(-1.83896e-07 -3.83361e-08 0.000721805)
(1.88666e-07 3.93336e-08 -0.000721499)
(0.000626594 -1.34496e-05 -5.43435e-07)
(-2.56162e-06 0.000723062 -2.32852e-07)
(-1.82149e-07 -1.14335e-07 0.000721368)
(1.86913e-07 1.17319e-07 -0.000721035)
(0.000627355 -1.93232e-05 -7.89447e-07)
(-2.51768e-06 0.000721274 -3.91499e-07)
(-1.89641e-07 -1.90566e-07 0.000720764)
(1.94639e-07 1.95574e-07 -0.000720398)
(0.000628137 -2.47673e-05 -1.03301e-06)
(-2.60907e-06 0.000719965 -5.65733e-07)
(-2.11649e-07 -2.71153e-07 0.000720568)
(2.17251e-07 2.78347e-07 -0.000720152)
(0.000628974 -2.99138e-05 -1.28475e-06)
(-2.82835e-06 0.000719053 -7.70132e-07)
(-2.49038e-07 -3.61161e-07 0.000720753)
(2.55588e-07 3.70816e-07 -0.000720267)
(0.000629902 -3.48708e-05 -1.5512e-06)
(-3.17672e-06 0.00071846 -1.02067e-06)
(-3.04421e-07 -4.65719e-07 0.00072129)
(3.12234e-07 4.78212e-07 -0.000720716)
(0.000630953 -3.97288e-05 -1.83449e-06)
(-3.6651e-06 0.000718108 -1.33615e-06)
(-3.82408e-07 -5.90131e-07 0.000722148)
(3.91841e-07 6.05968e-07 -0.000721466)
(0.000632165 -4.45583e-05 -2.13059e-06)
(-4.3111e-06 0.000717901 -1.74003e-06)
(-4.90521e-07 -7.39756e-07 0.000723279)
(5.0202e-07 7.59579e-07 -0.000722469)
(0.000633575 -4.94049e-05 -2.424e-06)
(-5.13707e-06 0.000717707 -2.26261e-06)
(-6.40979e-07 -9.1932e-07 0.000724597)
(6.55002e-07 9.4392e-07 -0.000723643)
(0.000635218 -5.4279e-05 -2.68537e-06)
(-6.16638e-06 0.000717338 -2.94439e-06)
(-8.52899e-07 -1.13095e-06 0.000725964)
(8.69979e-07 1.1613e-06 -0.000724857)
(0.000637118 -5.91299e-05 -2.86982e-06)
(-7.40795e-06 0.000716524 -3.84139e-06)
(-1.15568e-06 -1.36946e-06 0.000727162)
(1.17617e-06 1.40679e-06 -0.000725896)
(0.000639262 -6.38171e-05 -2.9228e-06)
(-8.82399e-06 0.000714908 -5.03431e-06)
(-1.59089e-06 -1.61126e-06 0.000727875)
(1.61423e-06 1.65725e-06 -0.000726442)
(0.000641549 -6.80643e-05 -2.81148e-06)
(-1.025e-05 0.000712099 -6.64614e-06)
(-2.20162e-06 -1.79227e-06 0.000727724)
(2.2249e-06 1.84906e-06 -0.000726082)
(0.000643693 -7.1427e-05 -2.63286e-06)
(-1.11782e-05 0.000707924 -8.87171e-06)
(-2.95563e-06 -1.7819e-06 0.000726508)
(2.97703e-06 1.84922e-06 -0.000724464)
(0.000645035 -7.34005e-05 -3.00927e-06)
(-9.90708e-06 0.00070293 -1.20161e-05)
(-3.36726e-06 -1.45145e-06 0.000724844)
(3.46741e-06 1.49344e-06 -0.000721606)
(-2.39727e-05 0.00069031 -6.38926e-06)
(-6.36513e-06 2.64237e-07 0.000717898)
(1.31384e-05 -1.587e-06 -0.000710875)
(0.000625695 -6.64348e-06 -3.84722e-07)
(-3.36981e-06 0.000731326 -9.84343e-08)
(-2.48451e-07 -3.4143e-08 0.000728604)
(2.54908e-07 3.50412e-08 -0.000728199)
(0.000626357 -1.27726e-05 -7.41897e-07)
(-3.22979e-06 0.000729188 -2.94135e-07)
(-2.45504e-07 -1.01479e-07 0.000727504)
(2.51947e-07 1.04168e-07 -0.000727086)
(0.000626997 -1.83327e-05 -1.0774e-06)
(-3.16406e-06 0.00072683 -4.9351e-07)
(-2.54343e-07 -1.67956e-07 0.000726181)
(2.61098e-07 1.72463e-07 -0.000725743)
(0.000627644 -2.34727e-05 -1.40982e-06)
(-3.26364e-06 0.000725098 -7.11265e-07)
(-2.81831e-07 -2.36474e-07 0.00072541)
(2.89366e-07 2.42902e-07 -0.000724932)
(0.000628322 -2.83162e-05 -1.75415e-06)
(-3.51559e-06 0.000723888 -9.65153e-07)
(-3.28645e-07 -3.10489e-07 0.000725126)
(3.37377e-07 3.19016e-07 -0.000724587)
(0.000629053 -3.29712e-05 -2.12062e-06)
(-3.91806e-06 0.000723104 -1.2742e-06)
(-3.97314e-07 -3.92857e-07 0.000725268)
(4.07645e-07 4.03743e-07 -0.000724648)
(0.000629854 -3.7537e-05 -2.51363e-06)
(-4.4787e-06 0.00072266 -1.66028e-06)
(-4.92264e-07 -4.85543e-07 0.000725771)
(5.04641e-07 4.99134e-07 -0.000725054)
(0.00063074 -4.21094e-05 -2.93062e-06)
(-5.21206e-06 0.000722457 -2.15008e-06)
(-6.20378e-07 -5.88802e-07 0.000726551)
(6.35283e-07 6.05474e-07 -0.000725724)
(0.000631722 -4.67841e-05 -3.35625e-06)
(-6.13622e-06 0.000722362 -2.77757e-06)
(-7.91813e-07 -6.99167e-07 0.000727481)
(8.09734e-07 7.19302e-07 -0.00072654)
(0.0006328 -5.16583e-05 -3.75785e-06)
(-7.26619e-06 0.000722188 -3.58753e-06)
(-1.02075e-06 -8.05761e-07 0.000728366)
(1.0422e-06 8.2971e-07 -0.000727321)
(0.000633963 -5.68265e-05 -4.07942e-06)
(-8.59643e-06 0.000721664 -4.64113e-06)
(-1.32533e-06 -8.83592e-07 0.00072891)
(1.35063e-06 9.11621e-07 -0.000727788)
(0.000635171 -6.23512e-05 -4.2388e-06)
(-1.00608e-05 0.0007204 -6.02597e-06)
(-1.72245e-06 -8.82213e-07 0.000728689)
(1.75103e-06 9.14509e-07 -0.000727538)
(0.000636332 -6.81751e-05 -4.14129e-06)
(-1.14389e-05 0.000717886 -7.87502e-06)
(-2.20887e-06 -7.13367e-07 0.000727172)
(2.23752e-06 7.49739e-07 -0.000726041)
(0.000637274 -7.39484e-05 -3.76391e-06)
(-1.21439e-05 0.000713661 -1.04055e-05)
(-2.69135e-06 -2.62329e-07 0.000723977)
(2.71457e-06 2.99238e-07 -0.000722821)
(0.000637728 -7.87544e-05 -3.52025e-06)
(-1.04192e-05 0.000707732 -1.40091e-05)
(-2.74311e-06 4.72321e-07 0.000719672)
(2.80122e-06 -4.68461e-07 -0.000717922)
(-2.50323e-05 0.000698091 -7.91165e-06)
(-4.31566e-06 2.21763e-06 0.000711597)
(9.48721e-06 -4.0598e-06 -0.000706811)
(0.00062555 -6.19739e-06 -4.78308e-07)
(-3.92782e-06 0.000737523 -1.14755e-07)
(-3.04831e-07 -2.89719e-08 0.000734986)
(3.12782e-07 2.97492e-08 -0.000734492)
(0.00062607 -1.19054e-05 -9.2216e-07)
(-3.7574e-06 0.000734894 -3.42457e-07)
(-3.00235e-07 -8.57214e-08 0.000733213)
(3.08159e-07 8.80391e-08 -0.000732721)
(0.000626565 -1.70696e-05 -1.33882e-06)
(-3.66741e-06 0.00073199 -5.73328e-07)
(-3.09073e-07 -1.4059e-07 0.000731164)
(3.17354e-07 1.4444e-07 -0.000730667)
(0.000627054 -2.18227e-05 -1.75167e-06)
(-3.76168e-06 0.000729846 -8.23947e-07)
(-3.39477e-07 -1.95228e-07 0.0007298)
(3.48644e-07 2.00652e-07 -0.000729274)
(0.000627549 -2.62754e-05 -2.18003e-06)
(-4.02133e-06 0.000728333 -1.11408e-06)
(-3.91554e-07 -2.51473e-07 0.000729019)
(4.02074e-07 2.5856e-07 -0.000728442)
(0.000628058 -3.05301e-05 -2.6382e-06)
(-4.4393e-06 0.00072735 -1.46438e-06)
(-4.67108e-07 -3.10104e-07 0.000728733)
(4.79446e-07 3.18993e-07 -0.000728084)
(0.000628582 -3.46882e-05 -3.13358e-06)
(-5.01748e-06 0.000726807 -1.89779e-06)
(-5.6948e-07 -3.70386e-07 0.000728853)
(5.84109e-07 3.81248e-07 -0.00072812)
(0.000629115 -3.88571e-05 -3.66774e-06)
(-5.76288e-06 0.000726613 -2.44176e-06)
(-7.03301e-07 -4.28923e-07 0.000729277)
(7.20623e-07 4.41873e-07 -0.000728451)
(0.000629643 -4.31637e-05 -4.23047e-06)
(-6.68432e-06 0.000726653 -3.13085e-06)
(-8.74206e-07 -4.77407e-07 0.000729858)
(8.94599e-07 4.92416e-07 -0.000728942)
(0.00063014 -4.77719e-05 -4.79387e-06)
(-7.78703e-06 0.00072678 -4.01054e-06)
(-1.08823e-06 -4.99165e-07 0.000730391)
(1.11194e-06 5.15951e-07 -0.000729405)
(0.000630575 -5.29051e-05 -5.30415e-06)
(-9.05768e-06 0.000726779 -5.14419e-06)
(-1.34881e-06 -4.6404e-07 0.000730579)
(1.37576e-06 4.81894e-07 -0.000729566)
(0.00063091 -5.88313e-05 -5.66548e-06)
(-1.04255e-05 0.000726309 -6.6253e-06)
(-1.6476e-06 -3.21718e-07 0.000729989)
(1.67673e-06 3.3933e-07 -0.000729028)
(0.000631116 -6.57602e-05 -5.73068e-06)
(-1.16717e-05 0.0007248 -8.60186e-06)
(-1.94817e-06 4.22284e-10 0.000728017)
(1.97527e-06 1.46272e-08 -0.000727225)
(0.00063117 -7.35158e-05 -5.32638e-06)
(-1.22145e-05 0.000721408 -1.13235e-05)
(-2.14479e-06 5.71692e-07 0.000724022)
(2.1611e-06 -5.63812e-07 -0.000723509)
(0.000631029 -8.07551e-05 -4.44376e-06)
(-1.02941e-05 0.000714993 -1.52491e-05)
(-1.9557e-06 1.33745e-06 0.000717765)
(1.9717e-06 -1.35862e-06 -0.000717407)
(-2.48302e-05 0.000709013 -8.78023e-06)
(-2.48663e-06 2.74131e-06 0.000709758)
(5.74492e-06 -4.13238e-06 -0.000708505)
(0.000625387 -5.66756e-06 -5.60464e-07)
(-4.32439e-06 0.00074319 -1.26212e-07)
(-3.51704e-07 -2.32117e-08 0.000740864)
(3.60921e-07 2.38501e-08 -0.000740292)
(0.000625749 -1.08789e-05 -1.08061e-06)
(-4.12867e-06 0.000740103 -3.76201e-07)
(-3.45116e-07 -6.83293e-08 0.000738427)
(3.54276e-07 7.02198e-08 -0.000737873)
(0.000626086 -1.55735e-05 -1.56828e-06)
(-4.01363e-06 0.000736682 -6.28458e-07)
(-3.52712e-07 -1.10827e-07 0.00073566)
(3.62238e-07 1.13935e-07 -0.000735117)
(0.000626405 -1.98643e-05 -2.05082e-06)
(-4.09112e-06 0.000734132 -9.00525e-07)
(-3.83542e-07 -1.5113e-07 0.000733695)
(3.94004e-07 1.55453e-07 -0.000733136)
(0.000626708 -2.38467e-05 -2.55169e-06)
(-4.33637e-06 0.00073231 -1.21307e-06)
(-4.36911e-07 -1.89611e-07 0.0007324)
(4.48793e-07 1.95164e-07 -0.0007318)
(0.000626991 -2.76093e-05 -3.08866e-06)
(-4.73556e-06 0.000731105 -1.58686e-06)
(-5.13567e-07 -2.25475e-07 0.000731663)
(5.2737e-07 2.32288e-07 -0.000731003)
(0.000627239 -3.12407e-05 -3.67327e-06)
(-5.28233e-06 0.00073043 -2.04421e-06)
(-6.15276e-07 -2.56213e-07 0.00073138)
(6.31438e-07 2.64301e-07 -0.000730649)
(0.000627431 -3.48383e-05 -4.31332e-06)
(-5.97307e-06 0.000730201 -2.61129e-06)
(-7.43802e-07 -2.76567e-07 0.000731438)
(7.62553e-07 2.85813e-07 -0.000730628)
(0.000627529 -3.85287e-05 -5.00707e-06)
(-6.80425e-06 0.000730334 -3.32052e-06)
(-8.99887e-07 -2.76859e-07 0.000731694)
(9.21364e-07 2.86889e-07 -0.000730811)
(0.000627489 -4.24962e-05 -5.7381e-06)
(-7.77031e-06 0.000730737 -4.21478e-06)
(-1.08194e-06 -2.40863e-07 0.000731967)
(1.10597e-06 2.50947e-07 -0.000731032)
(0.00062726 -4.70179e-05 -6.4682e-06)
(-8.85518e-06 0.000731292 -5.35597e-06)
(-1.28185e-06 -1.4362e-07 0.000732016)
(1.30768e-06 1.52417e-07 -0.000731074)
(0.000626816 -5.24933e-05 -7.11487e-06)
(-1.00071e-05 0.000731779 -6.84162e-06)
(-1.47487e-06 4.99872e-08 0.000731483)
(1.50047e-06 -4.4819e-08 -0.00073062)
(0.000626202 -5.94194e-05 -7.52087e-06)
(-1.10775e-05 0.000731728 -8.84112e-06)
(-1.60973e-06 3.81429e-07 0.000729822)
(1.62961e-06 -3.83525e-07 -0.000729177)
(0.000625595 -6.80796e-05 -7.3909e-06)
(-1.16113e-05 0.000730083 -1.16591e-05)
(-1.59379e-06 8.75047e-07 0.000726192)
(1.59804e-06 -8.89281e-07 -0.000725986)
(0.000625219 -7.73367e-05 -6.10961e-06)
(-9.90399e-06 0.000724288 -1.58264e-05)
(-1.27219e-06 1.46323e-06 0.000719069)
(1.2575e-06 -1.50166e-06 -0.000719773)
(-2.40983e-05 0.000724374 -9.21093e-06)
(-1.09489e-06 2.42615e-06 0.000713223)
(2.88324e-06 -3.45406e-06 -0.000716024)
(0.000625215 -5.06939e-06 -6.30126e-07)
(-4.55e-06 0.000748259 -1.32588e-07)
(-3.8848e-07 -1.73347e-08 0.000746165)
(3.98713e-07 1.78262e-08 -0.000745529)
(0.000625412 -9.71872e-06 -1.21467e-06)
(-4.33568e-06 0.000744751 -3.94714e-07)
(-3.79721e-07 -5.06871e-08 0.000743088)
(3.8986e-07 5.21377e-08 -0.000742485)
(0.000625586 -1.38825e-05 -1.76165e-06)
(-4.19757e-06 0.000740843 -6.57984e-07)
(-3.85062e-07 -8.09391e-08 0.000739624)
(3.95541e-07 8.32955e-08 -0.000739048)
(0.000625734 -1.76512e-05 -2.30139e-06)
(-4.25097e-06 0.000737898 -9.40059e-07)
(-4.14149e-07 -1.07469e-07 0.000737064)
(4.25569e-07 1.10685e-07 -0.000736485)
(0.00062585 -2.10984e-05 -2.86053e-06)
(-4.46529e-06 0.000735753 -1.26137e-06)
(-4.6548e-07 -1.29538e-07 0.000735246)
(4.7832e-07 1.33576e-07 -0.000734639)
(0.000625919 -2.42903e-05 -3.45968e-06)
(-4.81949e-06 0.000734292 -1.64175e-06)
(-5.38651e-07 -1.45321e-07 0.000734039)
(5.53406e-07 1.5012e-07 -0.000733385)
(0.000625917 -2.7289e-05 -4.11503e-06)
(-5.29731e-06 0.000733424 -2.10161e-06)
(-6.33748e-07 -1.51368e-07 0.000733328)
(6.50771e-07 1.56796e-07 -0.000732616)
(0.000625808 -3.0163e-05 -4.84073e-06)
(-5.88317e-06 0.000733069 -2.66411e-06)
(-7.49959e-07 -1.41989e-07 0.000732994)
(7.69281e-07 1.47782e-07 -0.000732215)
(0.000625541 -3.30028e-05 -5.64317e-06)
(-6.55889e-06 0.000733168 -3.35711e-06)
(-8.84222e-07 -1.0852e-07 0.000732904)
(9.05702e-07 1.14187e-07 -0.000732065)
(0.000625051 -3.59458e-05 -6.51953e-06)
(-7.30343e-06 0.000733675 -4.21693e-06)
(-1.02986e-06 -3.85912e-08 0.000732913)
(1.05289e-06 4.33137e-08 -0.000732034)
(0.000624265 -3.92069e-05 -7.45469e-06)
(-8.09229e-06 0.000734551 -5.29746e-06)
(-1.1728e-06 8.37016e-08 0.000732842)
(1.19586e-06 -8.13275e-08 -0.000731965)
(0.00062313 -4.31317e-05 -8.40539e-06)
(-8.89137e-06 0.000735706 -6.69013e-06)
(-1.283e-06 2.7486e-07 0.000732434)
(1.30288e-06 -2.77253e-07 -0.000731635)
(0.000621696 -4.82891e-05 -9.268e-06)
(-9.65376e-06 0.000736897 -8.57349e-06)
(-1.31043e-06 5.44001e-07 0.000731288)
(1.32028e-06 -5.54952e-07 -0.000730693)
(0.000620325 -5.54957e-05 -9.76155e-06)
(-1.02295e-05 0.000737315 -1.13211e-05)
(-1.18617e-06 8.74372e-07 0.000728653)
(1.1752e-06 -8.99778e-07 -0.000728498)
(0.000619889 -6.50105e-05 -8.73657e-06)
(-9.42903e-06 0.000733854 -1.56462e-05)
(-8.32966e-07 1.19227e-06 0.000722222)
(7.94359e-07 -1.24273e-06 -0.000723428)
(-2.4826e-05 0.000750534 -9.22391e-06)
(-2.46586e-07 1.6169e-06 0.00072586)
(9.71624e-07 -2.27422e-06 -0.0007332)
(0.000625041 -4.41138e-06 -6.86744e-07)
(-4.15279e-07 -1.1704e-08 0.00075083)
(4.26273e-07 1.20499e-08 -0.000750142)
(-4.60217e-06 0.00075267 -1.33874e-07)
(0.000625073 -8.44971e-06 -1.32282e-06)
(-4.04294e-07 -3.38483e-08 0.000747152)
(4.15158e-07 3.48658e-08 -0.000746513)
(-4.37805e-06 0.000748788 -3.98072e-07)
(0.000625086 -1.20424e-05 -1.91642e-06)
(-4.06651e-07 -5.26852e-08 0.000743029)
(4.17807e-07 5.43165e-08 -0.000742431)
(-4.22234e-06 0.000744434 -6.62255e-07)
(0.000625073 -1.52511e-05 -2.49979e-06)
(-4.32345e-07 -6.68404e-08 0.00073989)
(4.44402e-07 6.90075e-08 -0.000739303)
(-4.24925e-06 0.000741104 -9.4348e-07)
(0.000625017 -1.81237e-05 -3.10142e-06)
(-4.79161e-07 -7.4777e-08 0.000737548)
(4.9259e-07 7.73957e-08 -0.000736946)
(-4.42347e-06 0.000738623 -1.26109e-06)
(0.000624899 -2.06973e-05 -3.74413e-06)
(-5.45621e-07 -7.40664e-08 0.000735856)
(5.6086e-07 7.70037e-08 -0.000735222)
(-4.7169e-06 0.000736863 -1.63323e-06)
(0.000624689 -2.30009e-05 -4.44787e-06)
(-6.30318e-07 -6.09765e-08 0.000734688)
(6.47619e-07 6.40072e-08 -0.000734008)
(-5.10391e-06 0.000735724 -2.07757e-06)
(0.000624343 -2.50617e-05 -5.23051e-06)
(-7.30591e-07 -3.02261e-08 0.000733917)
(7.49861e-07 3.30557e-08 -0.000733185)
(-5.55636e-06 0.000735127 -2.613e-06)
(0.000623803 -2.69104e-05 -6.10331e-06)
(-8.41196e-07 2.49867e-08 0.000733419)
(8.62078e-07 -2.27551e-08 -0.000732642)
(-6.04006e-06 0.000735014 -3.26101e-06)
(0.000622991 -2.85856e-05 -7.07386e-06)
(-9.53073e-07 1.12769e-07 0.000733064)
(9.74626e-07 -1.11733e-07 -0.000732262)
(-6.51276e-06 0.000735349 -4.04794e-06)
(0.000621799 -3.01353e-05 -8.14578e-06)
(-1.05071e-06 2.41471e-07 0.000732693)
(1.0709e-06 -2.42453e-07 -0.000731908)
(-6.9209e-06 0.000736101 -5.01082e-06)
(0.000620084 -3.16268e-05 -9.31241e-06)
(-1.10678e-06 4.15478e-07 0.000732051)
(1.1218e-06 -4.19385e-07 -0.000731365)
(-7.19161e-06 0.000737202 -6.20959e-06)
(0.000617643 -3.31913e-05 -1.05432e-05)
(-1.08163e-06 6.27527e-07 0.00073066)
(1.08454e-06 -6.34604e-07 -0.000730247)
(-7.21525e-06 0.000738468 -7.75518e-06)
(0.000614164 -3.51945e-05 -1.17006e-05)
(-9.29691e-07 8.49195e-07 0.000727384)
(9.10723e-07 -8.5737e-07 -0.000727685)
(-6.7316e-06 0.000739326 -9.86305e-06)
(0.000609271 -3.94911e-05 -1.18348e-05)
(-6.07844e-07 1.02594e-06 0.000718975)
(5.63356e-07 -1.02957e-06 -0.000721587)
(-4.49114e-06 0.000738154 -1.29e-05)
(-2.34641e-07 8.16089e-07 0.000752786)
(3.31146e-07 -1.08496e-06 -0.000765772)
(-3.48265e-05 0.000800084 -7.49102e-06)
(0.00062599 -7.45691e-06 -5.08769e-08)
(-9.92809e-07 0.000710579 -2.51744e-08)
(-3.57261e-08 -4.01919e-08 0.00070745)
(0.000626945 -1.43612e-05 -9.83765e-08)
(-9.56957e-07 0.000710021 -7.5415e-08)
(-3.54473e-08 -1.20232e-07 0.000708294)
(0.00062789 -2.066e-05 -1.43036e-07)
(-9.47918e-07 0.00070941 -1.26882e-07)
(-3.70627e-08 -2.01689e-07 0.000709086)
(0.000628881 -2.65205e-05 -1.87015e-07)
(-9.93075e-07 0.000708966 -1.83217e-07)
(-4.16453e-08 -2.89975e-07 0.000709985)
(0.000629968 -3.20798e-05 -2.31789e-07)
(-1.091e-06 0.000708657 -2.48827e-07)
(-4.94219e-08 -3.91948e-07 0.000711037)
(0.000631208 -3.74459e-05 -2.77977e-07)
(-1.24458e-06 0.000708455 -3.28242e-07)
(-6.10327e-08 -5.15399e-07 0.00071229)
(0.000632663 -4.26917e-05 -3.25465e-07)
(-1.4604e-06 0.000708324 -4.26532e-07)
(-7.76498e-08 -6.70084e-07 0.000713794)
(0.000634404 -4.78455e-05 -3.72902e-07)
(-1.74949e-06 0.000708216 -5.49365e-07)
(-1.0119e-07 -8.69099e-07 0.000715605)
(0.000636519 -5.28739e-05 -4.17372e-07)
(-2.12713e-06 0.000708068 -7.02616e-07)
(-1.34797e-07 -1.13098e-06 0.000717783)
(0.000639111 -5.76546e-05 -4.55427e-07)
(-2.61196e-06 0.000707785 -8.91813e-07)
(-1.83616e-07 -1.4831e-06 0.000720395)
(0.000642303 -6.1952e-05 -4.85438e-07)
(-3.22592e-06 0.000707243 -1.11939e-06)
(-2.55794e-07 -1.96695e-06 0.000723516)
(0.000646224 -6.53998e-05 -5.13504e-07)
(-3.9865e-06 0.000706286 -1.37594e-06)
(-3.63528e-07 -2.64542e-06 0.00072723)
(0.000650972 -6.75501e-05 -5.68549e-07)
(-4.88457e-06 0.000704771 -1.61637e-06)
(-5.20175e-07 -3.60839e-06 0.000731646)
(0.000656462 -6.80966e-05 -7.18433e-07)
(-5.78629e-06 0.000702709 -1.70496e-06)
(-7.16157e-07 -4.95124e-06 0.000736875)
(0.000661779 -6.7292e-05 -1.03205e-06)
(-5.872e-06 0.000700458 -1.40434e-06)
(-8.14647e-07 -6.62275e-06 0.000742683)
(-1.49798e-05 0.000697965 -8.12929e-07)
(-2.12297e-06 -9.72498e-06 0.000754855)
(0.000625939 -7.33058e-06 -1.51607e-07)
(-1.93926e-06 0.000717907 -4.94325e-08)
(-1.05889e-07 -3.8734e-08 0.000714867)
(0.000626843 -1.41144e-05 -2.93002e-07)
(-1.8676e-06 0.000716797 -1.47893e-07)
(-1.05002e-07 -1.1575e-07 0.000715104)
(0.000627734 -2.02981e-05 -4.25862e-07)
(-1.84686e-06 0.000715581 -2.48391e-07)
(-1.09626e-07 -1.93734e-07 0.000715234)
(0.000628663 -2.60463e-05 -5.56654e-07)
(-1.93029e-06 0.000714695 -3.58053e-07)
(-1.22871e-07 -2.77511e-07 0.000715632)
(0.000629676 -3.14961e-05 -6.89896e-07)
(-2.11437e-06 0.000714082 -4.85346e-07)
(-1.45334e-07 -3.73119e-07 0.000716308)
(0.000630822 -3.67566e-05 -8.27808e-07)
(-2.40302e-06 0.000713682 -6.39001e-07)
(-1.78744e-07 -4.87176e-07 0.000717274)
(0.000632152 -4.19085e-05 -9.70209e-07)
(-2.80775e-06 0.000713432 -8.2853e-07)
(-2.26184e-07 -6.27486e-07 0.000718537)
(0.000633726 -4.69979e-05 -1.11335e-06)
(-3.34729e-06 0.000713248 -1.0642e-06)
(-2.92637e-07 -8.03707e-07 0.000720098)
(0.00063561 -5.20179e-05 -1.24916e-06)
(-4.04574e-06 0.000713012 -1.35674e-06)
(-3.86126e-07 -1.02825e-06 0.000721941)
(0.000637875 -5.68896e-05 -1.36613e-06)
(-4.93117e-06 0.000712554 -1.71538e-06)
(-5.19244e-07 -1.31721e-06 0.000724018)
(0.000640585 -6.14349e-05 -1.45588e-06)
(-6.02827e-06 0.000711644 -2.14147e-06)
(-7.10932e-07 -1.69088e-06 0.000726251)
(0.000643759 -6.53448e-05 -1.52793e-06)
(-7.33343e-06 0.000709986 -2.61128e-06)
(-9.86313e-07 -2.17159e-06 0.000728518)
(0.000647282 -6.81702e-05 -1.64539e-06)
(-8.75214e-06 0.000707282 -3.03126e-06)
(-1.36411e-06 -2.77319e-06 0.000730693)
(0.000650686 -6.94145e-05 -1.96759e-06)
(-9.89722e-06 0.000703474 -3.145e-06)
(-1.7914e-06 -3.47203e-06 0.000732751)
(0.000652895 -6.89223e-05 -2.67401e-06)
(-9.33183e-06 0.000699265 -2.54814e-06)
(-1.91636e-06 -4.16003e-06 0.000734845)
(-1.37655e-05 0.00068871 -2.92949e-07)
(-3.62436e-06 -3.60823e-06 0.000732401)
(0.000625847 -7.09099e-06 -2.48934e-07)
(-2.79806e-06 0.000724996 -7.15647e-08)
(-1.72289e-07 -3.59197e-08 0.000722076)
(0.000626659 -1.36452e-05 -4.8068e-07)
(-2.69096e-06 0.000723344 -2.13834e-07)
(-1.70607e-07 -1.07118e-07 0.000721666)
(0.000627454 -1.96079e-05 -6.98623e-07)
(-2.65403e-06 0.000721531 -3.58569e-07)
(-1.77553e-07 -1.78499e-07 0.000721092)
(0.000628274 -2.5141e-05 -9.13433e-07)
(-2.76381e-06 0.000720211 -5.15934e-07)
(-1.98012e-07 -2.53908e-07 0.000720941)
(0.000629156 -3.03798e-05 -1.13247e-06)
(-3.01308e-06 0.000719297 -6.97699e-07)
(-2.32727e-07 -3.38065e-07 0.000721184)
(0.000630137 -3.54355e-05 -1.36018e-06)
(-3.40441e-06 0.000718708 -9.15935e-07)
(-2.84004e-07 -4.35738e-07 0.000721795)
(0.000631254 -4.04002e-05 -1.59679e-06)
(-3.95062e-06 0.000718358 -1.18348e-06)
(-3.55817e-07 -5.51818e-07 0.00072274)
(0.000632542 -4.53443e-05 -1.83676e-06)
(-4.67226e-06 0.000718143 -1.51383e-06)
(-4.54397e-07 -6.91159e-07 0.000723968)
(0.00063404 -5.03106e-05 -2.06792e-06)
(-5.5952e-06 0.000717917 -1.92062e-06)
(-5.89305e-07 -8.57931e-07 0.000725392)
(0.000635777 -5.53021e-05 -2.27028e-06)
(-6.74618e-06 0.000717469 -2.41433e-06)
(-7.74327e-07 -1.05394e-06 0.000726865)
(0.000637755 -6.02512e-05 -2.42196e-06)
(-8.13482e-06 0.000716499 -2.99286e-06)
(-1.02764e-06 -1.27471e-06 0.000728165)
(0.000639912 -6.49859e-05 -2.5166e-06)
(-9.71438e-06 0.000714611 -3.61722e-06)
(-1.36644e-06 -1.50132e-06 0.000728975)
(0.000642027 -6.91718e-05 -2.6029e-06)
(-1.12854e-05 0.000711363 -4.15173e-06)
(-1.78344e-06 -1.68752e-06 0.000728931)
(0.000643595 -7.22773e-05 -2.84493e-06)
(-1.22548e-05 0.000706551 -4.25052e-06)
(-2.16621e-06 -1.75349e-06 0.000727855)
(0.000643937 -7.37772e-05 -3.49459e-06)
(-1.09461e-05 0.000700961 -3.4043e-06)
(-2.0954e-06 -1.6473e-06 0.00072635)
(-1.55211e-05 0.000691331 -2.73209e-07)
(-2.57477e-06 -1.00017e-06 0.000720613)
(0.000625719 -6.73712e-06 -3.40456e-07)
(-3.53321e-06 0.000731731 -9.05848e-08)
(-2.32765e-07 -3.19784e-08 0.000728964)
(0.000626405 -1.29531e-05 -6.56867e-07)
(-3.39201e-06 0.000729554 -2.70337e-07)
(-2.29943e-07 -9.50383e-08 0.000727877)
(0.000627069 -1.85951e-05 -9.54714e-07)
(-3.33444e-06 0.000727163 -4.52473e-07)
(-2.38113e-07 -1.57262e-07 0.000726573)
(0.000627743 -2.38165e-05 -1.24859e-06)
(-3.45596e-06 0.000725417 -6.49454e-07)
(-2.63656e-07 -2.2135e-07 0.000725837)
(0.000628452 -2.87447e-05 -1.54876e-06)
(-3.74386e-06 0.000724206 -8.75637e-07)
(-3.07148e-07 -2.90549e-07 0.000725604)
(0.000629219 -3.34913e-05 -1.86234e-06)
(-4.19735e-06 0.000723429 -1.14538e-06)
(-3.70793e-07 -3.67553e-07 0.000725811)
(0.00063006 -3.81575e-05 -2.19039e-06)
(-4.82601e-06 0.000722993 -1.4735e-06)
(-4.5835e-07 -4.54203e-07 0.000726389)
(0.00063099 -4.28403e-05 -2.52653e-06)
(-5.64717e-06 0.000722788 -1.87519e-06)
(-5.75417e-07 -5.50804e-07 0.000727248)
(0.000632015 -4.76359e-05 -2.85584e-06)
(-6.68226e-06 0.000722668 -2.36502e-06)
(-7.29691e-07 -6.54483e-07 0.000728254)
(0.000633128 -5.26394e-05 -3.15206e-06)
(-7.94923e-06 0.000722423 -2.95321e-06)
(-9.30642e-07 -7.562e-07 0.000729201)
(0.000634297 -5.79338e-05 -3.37681e-06)
(-9.4418e-06 0.000721745 -3.63451e-06)
(-1.18692e-06 -8.35712e-07 0.000729776)
(0.000635438 -6.35485e-05 -3.49109e-06)
(-1.10816e-05 0.000720198 -4.35948e-06)
(-1.49682e-06 -8.54701e-07 0.000729546)
(0.000636373 -6.9352e-05 -3.48786e-06)
(-1.26059e-05 0.000717207 -4.96604e-06)
(-1.82281e-06 -7.54055e-07 0.000727983)
(0.000636792 -7.48604e-05 -3.46226e-06)
(-1.33383e-05 0.000712274 -5.05372e-06)
(-2.02681e-06 -4.77448e-07 0.000724755)
(0.000636463 -7.90211e-05 -3.7114e-06)
(-1.15984e-05 0.000705668 -4.04365e-06)
(-1.76237e-06 -7.35206e-08 0.00072056)
(-1.55781e-05 0.000697454 -4.27857e-07)
(-1.77249e-06 6.03426e-07 0.000713706)
(0.000625565 -6.28067e-06 -4.23615e-07)
(-4.11718e-06 0.00073801 -1.05641e-07)
(-2.85565e-07 -2.71264e-08 0.000735425)
(0.000626099 -1.20666e-05 -8.17533e-07)
(-3.94502e-06 0.000735334 -3.14968e-07)
(-2.81195e-07 -8.02617e-08 0.000733652)
(0.000626608 -1.73034e-05 -1.18793e-06)
(-3.86354e-06 0.000732391 -5.26145e-07)
(-2.89325e-07 -1.31616e-07 0.000731608)
(0.000627112 -2.21278e-05 -1.55305e-06)
(-3.98174e-06 0.000730229 -7.53116e-07)
(-3.17568e-07 -1.82724e-07 0.000730268)
(0.000627623 -2.6655e-05 -1.92692e-06)
(-4.28072e-06 0.000728717 -1.01199e-06)
(-3.65992e-07 -2.35337e-07 0.000729529)
(0.000628149 -3.09902e-05 -2.31922e-06)
(-4.754e-06 0.000727745 -1.31837e-06)
(-4.36097e-07 -2.90227e-07 0.000729298)
(0.000628689 -3.5237e-05 -2.73212e-06)
(-5.40475e-06 0.000727216 -1.68765e-06)
(-5.30627e-07 -3.46756e-07 0.00072948)
(0.000629234 -3.95067e-05 -3.16022e-06)
(-6.24259e-06 0.000727031 -2.13511e-06)
(-6.53249e-07 -4.01986e-07 0.000729965)
(0.000629765 -4.39302e-05 -3.5886e-06)
(-7.27922e-06 0.000727063 -2.67506e-06)
(-8.07821e-07 -4.48863e-07 0.000730596)
(0.000630247 -4.86747e-05 -3.98803e-06)
(-8.52248e-06 0.000727141 -3.31685e-06)
(-9.97067e-07 -4.73517e-07 0.000731154)
(0.000630633 -5.39621e-05 -4.3068e-06)
(-9.95857e-06 0.000727021 -4.05365e-06)
(-1.21815e-06 -4.51898e-07 0.000731317)
(0.000630861 -6.00389e-05 -4.46826e-06)
(-1.15058e-05 0.0007263 -4.83338e-06)
(-1.45198e-06 -3.46928e-07 0.000730624)
(0.000630858 -6.7049e-05 -4.38691e-06)
(-1.2906e-05 0.000724331 -5.48716e-06)
(-1.64472e-06 -1.13568e-07 0.000728457)
(0.000630538 -7.46575e-05 -4.03356e-06)
(-1.34909e-05 0.000720186 -5.59227e-06)
(-1.67205e-06 2.6898e-07 0.000724208)
(0.000629892 -8.12401e-05 -3.70269e-06)
(-1.15961e-05 0.000712875 -4.52035e-06)
(-1.31208e-06 7.12937e-07 0.000717911)