/*--------------------------------*- C++ -*----------------------------------*\
| =========                 |                                                 |
| \\      /  F ield         | foam-extend: Open Source CFD                    |
|  \\    /   O peration     | Version:     3.1                                |
|   \\  /    A nd           | Web:         http://www.extend-project.de       |
|    \\/     M anipulation  |                                                 |
\*---------------------------------------------------------------------------*/
FoamFile
{
    version     2.0;
    format      ascii;
    class       volVectorField;
    location    "0.7";
    object      cellMotionU;
}
// * * * * * * * * * * * * * * * * * * * * * * * * * * * * * * * * * * * * * //

dimensions      [0 1 -1 0 0 0 0];

internalField   nonuniform List<vector> 
14592
(
(-1.12518e-11 -1.25574e-10 4.29998e-11)
(-3.66199e-11 -3.68604e-10 1.27686e-10)
(-7.18054e-11 -6.04284e-10 2.14156e-10)
(-1.25208e-10 -8.4858e-10 3.10583e-10)
(-2.06627e-10 -1.11762e-09 4.25581e-10)
(-3.28763e-10 -1.42935e-09 5.69151e-10)
(-5.08958e-10 -1.80606e-09 7.53836e-10)
(-7.71284e-10 -2.27681e-09 9.96242e-10)
(-1.14874e-09 -2.88219e-09 1.31897e-09)
(-1.68472e-09 -3.67851e-09 1.7532e-09)
(-2.43111e-09 -4.74299e-09 2.34201e-09)
(-3.43732e-09 -6.17473e-09 3.14403e-09)
(-4.71937e-09 -8.08004e-09 4.23702e-09)
(-6.1943e-09 -1.05157e-08 5.71819e-09)
(-7.57434e-09 -1.33129e-08 7.67051e-09)
(-8.29906e-09 -1.55621e-08 9.79386e-09)
(-3.01659e-11 -3.68879e-10 1.26565e-10)
(-9.89107e-11 -1.08242e-09 3.75772e-10)
(-1.96051e-10 -1.77384e-09 6.29942e-10)
(-3.45327e-10 -2.48858e-09 9.12692e-10)
(-5.7434e-10 -3.27268e-09 1.2489e-09)
(-9.18695e-10 -4.17698e-09 1.66713e-09)
(-1.4269e-09 -5.26303e-09 2.20296e-09)
(-2.16627e-09 -6.61106e-09 2.90307e-09)
(-3.2296e-09 -8.33196e-09 3.83043e-09)
(-4.7406e-09 -1.05788e-08 5.07125e-09)
(-6.85223e-09 -1.35641e-08 6.74242e-09)
(-9.72327e-09 -1.7564e-08 8.99791e-09)
(-1.34427e-08 -2.28921e-08 1.20234e-08)
(-1.78547e-08 -2.97667e-08 1.59876e-08)
(-2.2247e-08 -3.79121e-08 2.08489e-08)
(-2.49627e-08 -4.5073e-08 2.54127e-08)
(-3.93431e-11 -5.93228e-10 2.04521e-10)
(-1.31542e-10 -1.74002e-09 6.06847e-10)
(-2.67916e-10 -2.84809e-09 1.01601e-09)
(-4.83748e-10 -3.98689e-09 1.46873e-09)
(-8.19741e-10 -5.22748e-09 2.00396e-09)
(-1.32786e-09 -6.64514e-09 2.66525e-09)
(-2.07845e-09 -8.3275e-09 3.50604e-09)
(-3.16889e-09 -1.03886e-08 4.59505e-09)
(-4.73393e-09 -1.29784e-08 6.02353e-09)
(-6.95651e-09 -1.63059e-08 7.9134e-09)
(-1.00733e-08 -2.06553e-08 1.0426e-08)
(-1.43607e-08 -2.64039e-08 1.37653e-08)
(-2.00595e-08 -3.40025e-08 1.81581e-08)
(-2.71582e-08 -4.37958e-08 2.37291e-08)
(-3.49385e-08 -5.55374e-08 3.01757e-08)
(-4.08757e-08 -6.62105e-08 3.56117e-08)
(-3.40277e-11 -7.8824e-10 2.73873e-10)
(-1.20117e-10 -2.31037e-09 8.1197e-10)
(-2.6223e-10 -3.77186e-09 1.3556e-09)
(-5.01526e-10 -5.26272e-09 1.95287e-09)
(-8.85273e-10 -6.87185e-09 2.65349e-09)
(-1.47254e-09 -8.68603e-09 3.51085e-09)
(-2.34229e-09 -1.08041e-08 4.58907e-09)
(-3.60275e-09 -1.33467e-08 5.96861e-09)
(-5.40336e-09 -1.64676e-08 7.75331e-09)
(-7.94918e-09 -2.03706e-08 1.00781e-08)
(-1.1516e-08 -2.53278e-08 1.31165e-08)
(-1.64725e-08 -3.17112e-08 1.70929e-08)
(-2.32238e-08 -3.99444e-08 2.2235e-08)
(-3.20447e-08 -5.03478e-08 2.86652e-08)
(-4.2603e-08 -6.26496e-08 3.60779e-08)
(-5.1972e-08 -7.36848e-08 4.25019e-08)
(-1.15521e-11 -9.44798e-10 3.32131e-10)
(-5.63552e-11 -2.76466e-09 9.82863e-10)
(-1.64847e-10 -4.50339e-09 1.63662e-09)
(-3.78107e-10 -6.26387e-09 2.34947e-09)
(-7.42155e-10 -8.13939e-09 3.1762e-09)
(-1.31346e-09 -1.02183e-08 4.17544e-09)
(-2.16555e-09 -1.25957e-08 5.41478e-09)
(-3.3968e-09 -1.53741e-08 6.97626e-09)
(-5.14037e-09 -1.86768e-08 8.96154e-09)
(-7.57761e-09 -2.26498e-08 1.14983e-08)
(-1.09569e-08 -2.74724e-08 1.47464e-08)
(-1.56224e-08 -3.33662e-08 1.89049e-08)
(-2.20366e-08 -4.05778e-08 2.41889e-08)
(-3.06791e-08 -4.92635e-08 3.07651e-08)
(-4.17095e-08 -5.9205e-08 3.85086e-08)
(-5.26056e-08 -6.81165e-08 4.57297e-08)
(2.84382e-11 -1.05854e-09 3.78456e-10)
(6.04585e-11 -3.09413e-09 1.1183e-09)
(2.52315e-11 -5.02928e-09 1.85712e-09)
(-1.12825e-10 -6.9704e-09 2.65455e-09)
(-3.92054e-10 -9.00901e-09 3.5676e-09)
(-8.57799e-10 -1.12274e-08 4.65513e-09)
(-1.56632e-09 -1.37011e-08 5.98223e-09)
(-2.58873e-09 -1.65029e-08 7.6237e-09)
(-4.01518e-09 -1.96978e-08 9.66745e-09)
(-5.95986e-09 -2.33405e-08 1.22169e-08)
(-8.56875e-09 -2.74604e-08 1.53932e-08)
(-1.20347e-08 -3.20424e-08 1.93365e-08)
(-1.66343e-08 -3.70074e-08 2.42119e-08)
(-2.27108e-08 -4.21482e-08 3.0163e-08)
(-3.06227e-08 -4.71905e-08 3.72269e-08)
(-3.91866e-08 -5.14292e-08 4.42676e-08)
(8.43443e-11 -1.12834e-09 4.13086e-10)
(2.25293e-10 -3.29432e-09 1.21864e-09)
(2.98213e-10 -5.34222e-09 2.01718e-09)
(2.7764e-10 -7.37696e-09 2.86938e-09)
(1.37499e-10 -9.48321e-09 3.83138e-09)
(-1.50854e-10 -1.17306e-08 4.95865e-09)
(-6.19317e-10 -1.41717e-08 6.30916e-09)
(-1.30209e-09 -1.68402e-08 7.94522e-09)
(-2.23225e-09 -1.97405e-08 9.93381e-09)
(-3.43442e-09 -2.28293e-08 1.23451e-08)
(-4.91179e-09 -2.59822e-08 1.52483e-08)
(-6.62551e-09 -2.89438e-08 1.8705e-08)
(-8.47177e-09 -3.1254e-08 2.27683e-08)
(-1.02536e-08 -3.21712e-08 2.74369e-08)
(-1.17801e-08 -3.0887e-08 3.26252e-08)
(-1.31268e-08 -2.79256e-08 3.75963e-08)
(1.52809e-10 -1.15426e-09 4.36696e-10)
(4.2769e-10 -3.36567e-09 1.28582e-09)
(6.35366e-10 -5.44571e-09 2.12079e-09)
(7.63271e-10 -7.49361e-09 3.00124e-09)
(7.9992e-10 -9.58549e-09 3.97997e-09)
(7.35354e-10 -1.1775e-08 5.10672e-09)
(5.63388e-10 -1.4093e-08 6.43004e-09)
(2.86753e-10 -1.6539e-08 7.99745e-09)
(-7.32374e-11 -1.90677e-08 9.85349e-09)
(-4.59588e-10 -2.15633e-08 1.20347e-08)
(-7.50189e-10 -2.38003e-08 1.45601e-08)
(-7.08707e-10 -2.53779e-08 1.74158e-08)
(9.52648e-11 -2.56204e-08 2.0535e-08)
(2.36483e-09 -2.34474e-08 2.37455e-08)
(7.12395e-09 -1.73045e-08 2.67058e-08)
(1.45e-08 -6.74859e-09 2.87796e-08)
(-1.20573e-11 -1.28808e-10 4.10785e-11)
(-3.912e-11 -3.78189e-10 1.21962e-10)
(-7.6359e-11 -6.20554e-10 2.04513e-10)
(-1.32559e-10 -8.72537e-10 2.96541e-10)
(-2.1798e-10 -1.15118e-09 4.06285e-10)
(-3.45902e-10 -1.47555e-09 5.43306e-10)
(-5.34446e-10 -1.86913e-09 7.19609e-10)
(-8.08676e-10 -2.36296e-09 9.51066e-10)
(-1.2028e-09 -2.99956e-09 1.25927e-09)
(-1.7614e-09 -3.83777e-09 1.67397e-09)
(-2.53702e-09 -4.95653e-09 2.23596e-09)
(-3.57813e-09 -6.45246e-09 3.00003e-09)
(-4.89749e-09 -8.41762e-09 4.03584e-09)
(-6.41125e-09 -1.08651e-08 5.41972e-09)
(-7.85964e-09 -1.35406e-08 7.18028e-09)
(-8.78714e-09 -1.55534e-08 8.9717e-09)
(-3.24227e-11 -3.78238e-10 1.20908e-10)
(-1.05924e-10 -1.11046e-09 3.58914e-10)
(-2.08832e-10 -1.82115e-09 6.01548e-10)
(-3.65975e-10 -2.55811e-09 8.71372e-10)
(-6.06222e-10 -3.36993e-09 1.19216e-09)
(-9.66792e-10 -4.31018e-09 1.59121e-09)
(-1.49831e-09 -5.44415e-09 2.10253e-09)
(-2.27086e-09 -6.85723e-09 2.77063e-09)
(-3.38051e-09 -8.66554e-09 3.6556e-09)
(-4.95434e-09 -1.103e-08 4.83918e-09)
(-7.14701e-09 -1.41672e-08 6.43154e-09)
(-1.01134e-08 -1.83498e-08 8.57469e-09)
(-1.39256e-08 -2.38555e-08 1.14301e-08)
(-1.83924e-08 -3.0786e-08 1.51106e-08)
(-2.27698e-08 -3.85909e-08 1.94526e-08)
(-2.55208e-08 -4.48742e-08 2.32423e-08)
(-4.26376e-11 -6.08164e-10 1.95369e-10)
(-1.4178e-10 -1.78427e-09 5.79583e-10)
(-2.86608e-10 -2.92263e-09 9.7011e-10)
(-5.13972e-10 -4.09604e-09 1.40204e-09)
(-8.66393e-10 -5.37919e-09 1.91253e-09)
(-1.39812e-09 -6.85114e-09 2.54318e-09)
(-2.18244e-09 -8.60586e-09 3.34483e-09)
(-3.32048e-09 -1.07622e-08 4.38293e-09)
(-4.95151e-09 -1.348e-08 5.74382e-09)
(-7.26294e-09 -1.69754e-08 7.54232e-09)
(-1.04935e-08 -2.15409e-08 9.92816e-09)
(-1.49121e-08 -2.75489e-08 1.30847e-08)
(-2.07231e-08 -3.54047e-08 1.71976e-08)
(-2.78149e-08 -4.52914e-08 2.23032e-08)
(-3.52648e-08 -5.65462e-08 2.79319e-08)
(-4.05125e-08 -6.58085e-08 3.22291e-08)
(-3.77435e-11 -8.07569e-10 2.61598e-10)
(-1.31702e-10 -2.36762e-09 7.75384e-10)
(-2.83436e-10 -3.86777e-09 1.29411e-09)
(-5.35886e-10 -5.40226e-09 1.86373e-09)
(-9.38327e-10 -7.0639e-09 2.53162e-09)
(-1.55225e-09 -8.94448e-09 3.3486e-09)
(-2.45964e-09 -1.1148e-08 4.37552e-09)
(-3.77246e-09 -1.38017e-08 5.6885e-09)
(-5.64434e-09 -1.70663e-08 7.38509e-09)
(-8.28427e-09 -2.11537e-08 9.59056e-09)
(-1.19692e-08 -2.6339e-08 1.24626e-08)
(-1.70586e-08 -3.29871e-08 1.61953e-08)
(-2.39054e-08 -4.147e-08 2.09606e-08)
(-3.26357e-08 -5.1929e-08 2.67496e-08)
(-4.25536e-08 -6.36457e-08 3.30052e-08)
(-5.05009e-08 -7.30722e-08 3.77139e-08)
(-1.49799e-11 -9.67399e-10 3.17266e-10)
(-6.70999e-11 -2.83121e-09 9.3846e-10)
(-1.84673e-10 -4.61378e-09 1.56204e-09)
(-4.10461e-10 -6.42314e-09 2.2416e-09)
(-7.92267e-10 -8.35606e-09 3.02924e-09)
(-1.38861e-09 -1.05063e-08 3.98055e-09)
(-2.27539e-09 -1.29716e-08 5.15953e-09)
(-3.55353e-09 -1.58612e-08 6.64316e-09)
(-5.35853e-09 -1.93005e-08 8.52599e-09)
(-7.87243e-09 -2.34371e-08 1.09243e-08)
(-1.13386e-08 -2.84429e-08 1.39778e-08)
(-1.60946e-08 -3.45291e-08 1.78576e-08)
(-2.25411e-08 -4.18716e-08 2.26988e-08)
(-3.09803e-08 -5.04494e-08 2.84981e-08)
(-4.11414e-08 -5.96892e-08 3.47836e-08)
(-5.01014e-08 -6.70373e-08 3.96868e-08)
(2.60041e-11 -1.08282e-09 3.61367e-10)
(5.26998e-11 -3.1653e-09 1.0675e-09)
(1.0553e-11 -5.14726e-09 1.77208e-09)
(-1.37291e-10 -7.13889e-09 2.53196e-09)
(-4.30454e-10 -9.2358e-09 3.40129e-09)
(-9.15521e-10 -1.1523e-08 4.43581e-09)
(-1.64989e-09 -1.40797e-08 5.69675e-09)
(-2.70522e-09 -1.69788e-08 7.25396e-09)
(-4.1708e-09 -2.0285e-08 9.18814e-09)
(-6.15669e-09 -2.40447e-08 1.15917e-08)
(-8.79766e-09 -2.82677e-08 1.45672e-08)
(-1.22603e-08 -3.28981e-08 1.82217e-08)
(-1.67607e-08 -3.77674e-08 2.26387e-08)
(-2.24687e-08 -4.25014e-08 2.77863e-08)
(-2.93474e-08 -4.65989e-08 3.32894e-08)
(-3.5809e-08 -4.93654e-08 3.76776e-08)
(8.34788e-11 -1.15316e-09 3.94383e-10)
(2.22357e-10 -3.36689e-09 1.1631e-09)
(2.91874e-10 -5.46149e-09 1.92441e-09)
(2.65922e-10 -7.54544e-09 2.7362e-09)
(1.17875e-10 -9.70718e-09 3.65165e-09)
(-1.81151e-10 -1.2017e-08 4.72315e-09)
(-6.62671e-10 -1.45289e-08 6.00509e-09)
(-1.35912e-09 -1.72743e-08 7.5552e-09)
(-2.29906e-09 -2.02505e-08 9.43418e-09)
(-3.49722e-09 -2.33975e-08 1.17029e-08)
(-4.93653e-09 -2.65578e-08 1.44155e-08)
(-6.53818e-09 -2.9409e-08 1.76073e-08)
(-8.11504e-09 -3.13666e-08 2.12676e-08)
(-9.31317e-09 -3.15041e-08 2.52623e-08)
(-9.66775e-09 -2.88848e-08 2.91735e-08)
(-9.10705e-09 -2.44254e-08 3.19157e-08)
(1.54181e-10 -1.17957e-09 4.17288e-10)
(4.31049e-10 -3.43771e-09 1.22746e-09)
(6.3966e-10 -5.56113e-09 2.02299e-09)
(7.67682e-10 -7.65531e-09 2.86139e-09)
(8.03752e-10 -9.79645e-09 3.79237e-09)
(7.3864e-10 -1.20398e-08 4.86278e-09)
(5.67985e-10 -1.44141e-08 6.11803e-09)
(2.98315e-10 -1.69142e-08 7.60189e-09)
(-4.15402e-11 -1.94833e-08 9.35408e-09)
(-3.80128e-10 -2.19838e-08 1.14045e-08)
(-5.68311e-10 -2.41468e-08 1.3763e-08)
(-3.1995e-10 -2.54938e-08 1.64028e-08)
(8.84941e-10 -2.52123e-08 1.92244e-08)
(3.89323e-09 -2.20211e-08 2.20113e-08)
(9.87419e-09 -1.42618e-08 2.43247e-08)
(1.8759e-08 -2.10746e-09 2.54806e-08)
(-1.26974e-11 -1.31707e-10 3.76338e-11)
(-4.10947e-11 -3.86833e-10 1.11713e-10)
(-7.99102e-11 -6.35125e-10 1.87266e-10)
(-1.38187e-10 -8.93955e-10 2.71415e-10)
(-2.26444e-10 -1.18102e-09 3.71643e-10)
(-3.58237e-10 -1.51618e-09 4.96575e-10)
(-5.51925e-10 -1.92382e-09 6.5694e-10)
(-8.32684e-10 -2.43579e-09 8.66729e-10)
(-1.2344e-09 -3.09519e-09 1.14465e-09)
(-1.80043e-09 -3.95993e-09 1.51584e-09)
(-2.58026e-09 -5.10424e-09 2.01364e-09)
(-3.61666e-09 -6.61099e-09 2.68061e-09)
(-4.91511e-09 -8.53872e-09 3.56687e-09)
(-6.39245e-09 -1.08329e-08 4.72031e-09)
(-7.82382e-09 -1.31391e-08 6.14382e-09)
(-8.83164e-09 -1.45749e-08 7.56009e-09)
(-3.42125e-11 -3.86723e-10 1.10768e-10)
(-1.11447e-10 -1.13555e-09 3.28749e-10)
(-2.18781e-10 -1.86359e-09 5.50811e-10)
(-3.81751e-10 -2.62036e-09 7.97524e-10)
(-6.29958e-10 -3.45646e-09 1.09047e-09)
(-1.00136e-09 -4.42778e-09 1.45427e-09)
(-1.54726e-09 -5.60204e-09 1.91925e-09)
(-2.33795e-09 -7.06697e-09 2.52459e-09)
(-3.46861e-09 -8.94059e-09 3.32211e-09)
(-5.06261e-09 -1.13814e-08 4.38041e-09)
(-7.2654e-09 -1.45956e-08 5.78835e-09)
(-1.02128e-08 -1.88212e-08 7.65344e-09)
(-1.39459e-08 -2.42537e-08 1.00838e-08)
(-1.82436e-08 -3.08345e-08 1.31249e-08)
(-2.23848e-08 -3.7803e-08 1.65869e-08)
(-2.49948e-08 -4.2896e-08 1.95238e-08)
(-4.52335e-11 -6.21551e-10 1.78988e-10)
(-1.49803e-10 -1.82415e-09 5.30874e-10)
(-3.0108e-10 -2.98968e-09 8.88252e-10)
(-5.36952e-10 -4.19398e-09 1.28313e-09)
(-9.00979e-10 -5.51475e-09 1.74923e-09)
(-1.44844e-09 -7.03447e-09 2.32398e-09)
(-2.25346e-09 -8.85015e-09 3.05263e-09)
(-3.41738e-09 -1.10852e-08 3.99245e-09)
(-5.07776e-09 -1.39009e-08 5.21728e-09)
(-7.4161e-09 -1.75128e-08 6.8219e-09)
(-1.06563e-08 -2.21998e-08 8.92368e-09)
(-1.50343e-08 -2.82958e-08 1.16532e-08)
(-2.06912e-08 -3.61059e-08 1.51149e-08)
(-2.74259e-08 -4.56296e-08 1.92528e-08)
(-3.42607e-08 -5.59877e-08 2.35945e-08)
(-3.88708e-08 -6.40723e-08 2.67468e-08)
(-4.06579e-11 -8.25137e-10 2.39679e-10)
(-1.40677e-10 -2.41959e-09 7.10232e-10)
(-2.9967e-10 -3.95433e-09 1.1848e-09)
(-5.61737e-10 -5.52786e-09 1.70543e-09)
(-9.77285e-10 -7.23665e-09 2.31504e-09)
(-1.60883e-09 -9.17591e-09 3.05925e-09)
(-2.53913e-09 -1.14541e-08 3.992e-09)
(-3.87994e-09 -1.42018e-08 5.17944e-09)
(-5.78236e-09 -1.75834e-08 6.70379e-09)
(-8.44757e-09 -2.18085e-08 8.66598e-09)
(-1.21349e-08 -2.71435e-08 1.1185e-08)
(-1.71602e-08 -3.3917e-08 1.43825e-08)
(-2.37885e-08 -4.241e-08 1.83268e-08)
(-3.20105e-08 -5.25989e-08 2.28739e-08)
(-4.10156e-08 -6.35702e-08 2.74251e-08)
(-4.7975e-08 -7.19972e-08 3.05238e-08)
(-1.7598e-11 -9.89145e-10 2.9104e-10)
(-7.52362e-11 -2.89259e-09 8.59869e-10)
(-1.99482e-10 -4.71376e-09 1.42994e-09)
(-4.34255e-10 -6.56709e-09 2.05086e-09)
(-8.28311e-10 -8.55238e-09 2.76951e-09)
(-1.44095e-09 -1.07664e-08 3.63567e-09)
(-2.3484e-09 -1.33114e-08 4.70579e-09)
(-3.6508e-09 -1.62991e-08 6.04617e-09)
(-5.4802e-09 -1.98577e-08 7.73512e-09)
(-8.00968e-09 -2.41337e-08 9.86294e-09)
(-1.14625e-08 -2.92898e-08 1.2526e-08)
(-1.61327e-08 -3.55124e-08 1.58177e-08)
(-2.23235e-08 -4.29085e-08 1.97461e-08)
(-3.01887e-08 -5.13488e-08 2.41206e-08)
(-3.93194e-08 -6.01434e-08 2.834e-08)
(-4.71519e-08 -6.69052e-08 3.11029e-08)
(2.43272e-11 -1.105e-09 3.31074e-10)
(4.72461e-11 -3.23011e-09 9.77534e-10)
(2.75534e-13 -5.25415e-09 1.62193e-09)
(-1.54286e-10 -7.29205e-09 2.31615e-09)
(-4.56671e-10 -9.4423e-09 3.10909e-09)
(-9.53812e-10 -1.17934e-08 4.05062e-09)
(-1.7028e-09 -1.44268e-08 5.19449e-09)
(-2.77369e-09 -1.74182e-08 6.60028e-09)
(-4.25137e-09 -2.08322e-08 8.33329e-09)
(-6.23611e-09 -2.47124e-08 1.04615e-08)
(-8.84245e-09 -2.90595e-08 1.30467e-08)
(-1.21978e-08 -3.37996e-08 1.61257e-08)
(-1.64311e-08 -3.8727e-08 1.96406e-08)
(-2.15876e-08 -4.34307e-08 2.33588e-08)
(-2.75208e-08 -4.74341e-08 2.66951e-08)
(-3.29646e-08 -5.02054e-08 2.86422e-08)
(8.31638e-11 -1.17563e-09 3.61185e-10)
(2.2109e-10 -3.43272e-09 1.06488e-09)
(2.88761e-10 -5.56992e-09 1.76113e-09)
(2.597e-10 -7.69958e-09 2.50265e-09)
(1.07128e-10 -9.91226e-09 3.33749e-09)
(-1.97635e-10 -1.22816e-08 4.31241e-09)
(-6.8509e-10 -1.48625e-08 5.47501e-09)
(-1.38522e-09 -1.76868e-08 6.87397e-09)
(-2.3214e-09 -2.075e-08 8.55698e-09)
(-3.49817e-09 -2.39863e-08 1.05648e-08)
(-4.87991e-09 -2.7227e-08 1.29193e-08)
(-6.35746e-09 -3.01368e-08 1.56022e-08)
(-7.67129e-09 -3.21082e-08 1.84883e-08)
(-8.40502e-09 -3.22498e-08 2.12896e-08)
(-8.06918e-09 -2.98023e-08 2.34141e-08)
(-6.86901e-09 -2.59421e-08 2.41019e-08)
(1.55664e-10 -1.20178e-09 3.82156e-10)
(4.35119e-10 -3.50207e-09 1.12377e-09)
(6.45638e-10 -5.66646e-09 1.8512e-09)
(7.75054e-10 -7.80319e-09 2.61695e-09)
(8.12297e-10 -9.99149e-09 3.46587e-09)
(7.48947e-10 -1.2287e-08 4.43974e-09)
(5.82245e-10 -1.47194e-08 5.57818e-09)
(3.21812e-10 -1.72819e-08 6.91772e-09)
(2.13605e-12 -1.99138e-08 8.48821e-09)
(-2.95396e-10 -2.24689e-08 1.03053e-08)
(-4.04982e-10 -2.46651e-08 1.23565e-08)
(-1.36705e-11 -2.60092e-08 1.45863e-08)
(1.42884e-09 -2.56819e-08 1.68373e-08)
(4.78999e-09 -2.24572e-08 1.88281e-08)
(1.11453e-08 -1.49339e-08 2.01189e-08)
(2.00765e-08 -3.70995e-09 2.03514e-08)
(-1.31796e-11 -1.3422e-10 3.28117e-11)
(-4.2571e-11 -3.94288e-10 9.73767e-11)
(-8.25283e-11 -6.4775e-10 1.63169e-10)
(-1.42237e-10 -9.12464e-10 2.3634e-10)
(-2.32328e-10 -1.20672e-09 3.23311e-10)
(-3.66389e-10 -1.55097e-09 4.31393e-10)
(-5.62651e-10 -1.9701e-09 5.69519e-10)
(-8.45781e-10 -2.49633e-09 7.49076e-10)
(-1.24843e-09 -3.17223e-09 9.848e-10)
(-1.81132e-09 -4.05334e-09 1.29569e-09)
(-2.57915e-09 -5.20699e-09 1.70562e-09)
(-3.58719e-09 -6.69988e-09 2.24298e-09)
(-4.83226e-09 -8.55712e-09 2.93789e-09)
(-6.22915e-09 -1.0666e-08 3.81492e-09)
(-7.57305e-09 -1.25981e-08 4.86464e-09)
(-8.53497e-09 -1.35063e-08 5.88283e-09)
(-3.5555e-11 -3.94014e-10 9.65735e-11)
(-1.15568e-10 -1.15738e-09 2.86561e-10)
(-2.26091e-10 -1.90036e-09 4.79925e-10)
(-3.93075e-10 -2.67422e-09 6.94447e-10)
(-6.46422e-10 -3.5312e-09 9.4864e-10)
(-1.02418e-09 -4.52873e-09 1.26335e-09)
(-1.57727e-09 -5.73618e-09 1.66379e-09)
(-2.37456e-09 -7.24246e-09 2.18175e-09)
(-3.5077e-09 -9.16454e-09 2.85779e-09)
(-5.09255e-09 -1.16556e-08 3.7432e-09)
(-7.26042e-09 -1.49045e-08 4.90018e-09)
(-1.01238e-08 -1.91117e-08 6.39755e-09)
(-1.36916e-08 -2.43933e-08 8.2911e-09)
(-1.77193e-08 -3.05687e-08 1.05791e-08)
(-2.15123e-08 -3.67674e-08 1.30905e-08)
(-2.38359e-08 -4.09266e-08 1.51531e-08)
(-4.71695e-11 -6.33225e-10 1.56057e-10)
(-1.55741e-10 -1.85872e-09 4.62747e-10)
(-3.11644e-10 -3.04788e-09 7.73929e-10)
(-5.53352e-10 -4.27898e-09 1.11726e-09)
(-9.24855e-10 -5.63227e-09 1.52166e-09)
(-1.48153e-09 -7.19259e-09 2.01877e-09)
(-2.29693e-09 -9.05997e-09 2.64613e-09)
(-3.47022e-09 -1.13591e-08 3.44982e-09)
(-5.13371e-09 -1.42519e-08 4.48695e-09)
(-7.45744e-09 -1.7947e-08 5.82629e-09)
(-1.06438e-08 -2.2705e-08 7.54552e-09)
(-1.48924e-08 -2.88256e-08 9.72194e-09)
(-2.02827e-08 -3.65208e-08 1.23828e-08)
(-2.65564e-08 -4.5679e-08 1.54245e-08)
(-3.27405e-08 -5.53654e-08 1.8458e-08)
(-3.67422e-08 -6.27722e-08 2.05534e-08)
(-4.27836e-11 -8.40344e-10 2.08977e-10)
(-1.47219e-10 -2.46455e-09 6.19088e-10)
(-3.11359e-10 -4.02962e-09 1.03226e-09)
(-5.79963e-10 -5.63734e-09 1.48487e-09)
(-1.0039e-09 -7.38716e-09 2.01371e-09)
(-1.64575e-09 -9.37757e-09 2.65725e-09)
(-2.58747e-09 -1.17201e-08 3.46001e-09)
(-3.93832e-09 -1.45484e-08 4.47478e-09)
(-5.8431e-09 -1.80278e-08 5.76369e-09)
(-8.48864e-09 -2.23637e-08 7.39623e-09)
(-1.21153e-08 -2.782e-08 9.44727e-09)
(-1.69899e-08 -3.469e-08 1.19704e-08)
(-2.3295e-08 -4.31874e-08 1.49377e-08)
(-3.09488e-08 -5.32228e-08 1.81492e-08)
(-3.9131e-08 -6.38542e-08 2.11081e-08)
(-4.53173e-08 -7.19578e-08 2.29339e-08)
(-1.94431e-11 -1.00704e-09 2.53784e-10)
(-8.09599e-11 -2.94516e-09 7.49535e-10)
(-2.0982e-10 -4.80092e-09 1.24576e-09)
(-4.50574e-10 -6.69317e-09 1.7855e-09)
(-8.52338e-10 -8.72447e-09 2.40884e-09)
(-1.47438e-09 -1.09955e-08 3.15771e-09)
(-2.39205e-09 -1.36113e-08 4.07843e-09)
(-3.70291e-09 -1.6688e-08 5.22332e-09)
(-5.5331e-09 -2.03566e-08 6.65004e-09)
(-8.04353e-09 -2.47652e-08 8.41743e-09)
(-1.14352e-08 -3.00784e-08 1.05745e-08)
(-1.5963e-08 -3.6472e-08 1.31371e-08)
(-2.1846e-08 -4.4033e-08 1.60154e-08)
(-2.91717e-08 -5.26226e-08 1.89319e-08)
(-3.75245e-08 -6.15659e-08 2.13619e-08)
(-4.46448e-08 -6.85193e-08 2.26249e-08)
(2.32439e-11 -1.12421e-09 2.88631e-10)
(4.37747e-11 -3.28644e-09 8.51962e-10)
(-6.28203e-12 -5.34789e-09 1.41292e-09)
(-1.65054e-10 -7.42672e-09 2.01635e-09)
(-4.72987e-10 -9.62491e-09 2.7041e-09)
(-9.76818e-10 -1.2034e-08 3.51807e-09)
(-1.73272e-09 -1.47393e-08 4.50222e-09)
(-2.80841e-09 -1.78197e-08 5.70281e-09)
(-4.28388e-09 -2.13447e-08 7.16612e-09)
(-6.2498e-09 -2.53627e-08 8.93133e-09)
(-8.803e-09 -2.98812e-08 1.10152e-08)
(-1.20517e-08 -3.48539e-08 1.33909e-08)
(-1.60616e-08 -4.00904e-08 1.58981e-08)
(-2.08441e-08 -4.52479e-08 1.82048e-08)
(-2.62769e-08 -4.99515e-08 1.97681e-08)
(-3.13085e-08 -5.35647e-08 2.01493e-08)
(8.3241e-11 -1.19516e-09 3.14836e-10)
(2.21088e-10 -3.49024e-09 9.28009e-10)
(2.88082e-10 -5.66526e-09 1.53411e-09)
(2.57583e-10 -7.83558e-09 2.17867e-09)
(1.02818e-10 -1.00953e-08 2.90278e-09)
(-2.04509e-10 -1.25202e-08 3.74574e-09)
(-6.93988e-10 -1.51685e-08 4.74625e-09)
(-1.39369e-09 -1.80756e-08 5.94156e-09)
(-2.32347e-09 -2.12414e-08 7.36353e-09)
(-3.48198e-09 -2.46071e-08 9.02989e-09)
(-4.824e-09 -2.80166e-08 1.09272e-08)
(-6.23115e-09 -3.11717e-08 1.29901e-08)
(-7.44814e-09 -3.35352e-08 1.50185e-08)
(-8.06519e-09 -3.43441e-08 1.66519e-08)
(-7.69099e-09 -3.30493e-08 1.73468e-08)
(-6.63653e-09 -3.06791e-08 1.67971e-08)
(1.57219e-10 -1.22091e-09 3.33101e-10)
(4.39507e-10 -3.55847e-09 9.793e-10)
(6.52394e-10 -5.75922e-09 1.61255e-09)
(7.83833e-10 -7.93493e-09 2.27822e-09)
(8.23054e-10 -1.01665e-08 3.01466e-09)
(7.6214e-10 -1.25126e-08 3.85699e-09)
(5.99251e-10 -1.50048e-08 4.83732e-09)
(3.45439e-10 -1.76393e-08 5.98311e-09)
(3.72051e-11 -2.03592e-08 7.31249e-09)
(-2.41728e-10 -2.30257e-08 8.82521e-09)
(-3.24221e-10 -2.53709e-08 1.04868e-08)
(9.92305e-11 -2.69375e-08 1.2211e-08)
(1.53166e-09 -2.69945e-08 1.38123e-08)
(4.77545e-09 -2.44694e-08 1.49895e-08)
(1.07062e-08 -1.82324e-08 1.53915e-08)
(1.87449e-08 -8.86458e-09 1.49802e-08)
(-1.35228e-11 -1.363e-10 2.68055e-11)
(-4.36153e-11 -4.00506e-10 7.95349e-11)
(-8.4345e-11 -6.58225e-10 1.3321e-10)
(-1.44969e-10 -9.27814e-10 1.92806e-10)
(-2.36123e-10 -1.228e-09 2.63462e-10)
(-3.71291e-10 -1.57962e-09 3.50939e-10)
(-5.68372e-10 -2.00797e-09 4.6213e-10)
(-8.51267e-10 -2.5453e-09 6.05546e-10)
(-1.25105e-09 -3.23355e-09 7.91772e-10)
(-1.80551e-09 -4.12572e-09 1.03371e-09)
(-2.55442e-09 -5.28276e-09 1.34642e-09)
(-3.52592e-09 -6.75767e-09 1.74617e-09)
(-4.7091e-09 -8.54995e-09 2.24805e-09)
(-6.01536e-09 -1.05043e-08 2.86177e-09)
(-7.25116e-09 -1.214e-08 3.5753e-09)
(-8.12676e-09 -1.26395e-08 4.25276e-09)
(-3.65094e-11 -4.00115e-10 7.88964e-11)
(-1.18465e-10 -1.17543e-09 2.34048e-10)
(-2.31148e-10 -1.93087e-09 3.91804e-10)
(-4.00691e-10 -2.71891e-09 5.66525e-10)
(-6.57018e-10 -3.59305e-09 7.73028e-10)
(-1.03789e-09 -4.61206e-09 1.02774e-09)
(-1.59331e-09 -5.84642e-09 1.35007e-09)
(-2.39002e-09 -7.38545e-09 1.7637e-09)
(-3.51529e-09 -9.34497e-09 2.29756e-09)
(-5.07677e-09 -1.18723e-08 2.9859e-09)
(-7.19157e-09 -1.51418e-08 3.86676e-09)
(-9.95062e-09 -1.9321e-08 4.97623e-09)
(-1.33377e-08 -2.44714e-08 6.33433e-09)
(-1.70913e-08 -3.03316e-08 7.91671e-09)
(-2.05403e-08 -3.59714e-08 9.59216e-09)
(-2.25718e-08 -3.94789e-08 1.09254e-08)
(-4.85284e-11 -6.42851e-10 1.27488e-10)
(-1.59886e-10 -1.88739e-09 3.77953e-10)
(-3.18896e-10 -3.09621e-09 6.31826e-10)
(-5.64309e-10 -4.3496e-09 9.11458e-10)
(-9.40148e-10 -5.72984e-09 1.23998e-09)
(-1.50138e-09 -7.32396e-09 1.64231e-09)
(-2.32024e-09 -9.23367e-09 2.1472e-09)
(-3.49289e-09 -1.15856e-08 2.78882e-09)
(-5.14547e-09 -1.45409e-08 3.60709e-09)
(-7.43645e-09 -1.83046e-08 4.64649e-09)
(-1.05473e-08 -2.31236e-08 5.95054e-09)
(-1.46428e-08 -2.92584e-08 7.54967e-09)
(-1.97641e-08 -3.68824e-08 9.43029e-09)
(-2.56164e-08 -4.58205e-08 1.14804e-08)
(-3.12499e-08 -5.51367e-08 1.34212e-08)
(-3.47624e-08 -6.22163e-08 1.46932e-08)
(-4.42486e-11 -8.529e-10 1.70724e-10)
(-1.51707e-10 -2.50192e-09 5.05645e-10)
(-3.19257e-10 -4.0923e-09 8.42708e-10)
(-5.9197e-10 -5.72857e-09 1.21133e-09)
(-1.02076e-09 -7.51286e-09 1.64094e-09)
(-1.66774e-09 -9.54628e-09 2.16174e-09)
(-2.61345e-09 -1.19433e-08 2.80774e-09)
(-3.96389e-09 -1.48404e-08 3.61753e-09)
(-5.8575e-09 -1.84057e-08 4.63351e-09)
(-8.47007e-09 -2.28464e-08 5.89774e-09)
(-1.20137e-08 -2.84131e-08 7.44191e-09)
(-1.6722e-08 -3.53893e-08 9.27585e-09)
(-2.27359e-08 -4.3978e-08 1.13248e-08)
(-2.99234e-08 -5.40581e-08 1.33913e-08)
(-3.74862e-08 -6.47057e-08 1.51289e-08)
(-4.31171e-08 -7.28627e-08 1.60868e-08)
(-2.06629e-11 -1.02183e-09 2.07331e-10)
(-8.47172e-11 -2.9886e-09 6.12177e-10)
(-2.16543e-10 -4.87366e-09 1.01699e-09)
(-4.6097e-10 -6.79863e-09 1.45657e-09)
(-8.67146e-10 -8.86928e-09 1.96297e-09)
(-1.49389e-09 -1.1189e-08 2.56901e-09)
(-2.41529e-09 -1.3867e-08 3.30995e-09)
(-3.7261e-09 -1.70233e-08 4.2234e-09)
(-5.54697e-09 -2.07945e-08 5.34708e-09)
(-8.02882e-09 -2.53355e-08 6.71206e-09)
(-1.13548e-08 -3.08172e-08 8.32848e-09)
(-1.57511e-08 -3.74348e-08 1.01658e-08)
(-2.13997e-08 -4.52896e-08 1.20899e-08)
(-2.83569e-08 -5.42723e-08 1.383e-08)
(-3.62246e-08 -6.37274e-08 1.50173e-08)
(-4.29116e-08 -7.11911e-08 1.54104e-08)
(2.26381e-11 -1.14008e-09 2.3578e-10)
(4.18094e-11 -3.33346e-09 6.95806e-10)
(-1.00233e-11 -5.4263e-09 1.15343e-09)
(-1.712e-10 -7.54006e-09 1.64492e-09)
(-4.82153e-10 -9.77959e-09 2.20369e-09)
(-9.89282e-10 -1.22398e-08 2.86257e-09)
(-1.74784e-09 -1.501e-08 3.65473e-09)
(-2.82369e-09 -1.81749e-08 4.6129e-09)
(-4.29354e-09 -2.18118e-08 5.76541e-09)
(-6.24273e-09 -2.59821e-08 7.12733e-09)
(-8.7604e-09 -3.07155e-08 8.6832e-09)
(-1.19462e-08 -3.60089e-08 1.03646e-08)
(-1.58564e-08 -4.17291e-08 1.19838e-08)
(-2.05073e-08 -4.76238e-08 1.32129e-08)
(-2.5804e-08 -5.33583e-08 1.36582e-08)
(-3.0735e-08 -5.79932e-08 1.3277e-08)
(8.35521e-11 -1.21146e-09 2.57177e-10)
(2.21854e-10 -3.53841e-09 7.579e-10)
(2.88906e-10 -5.74537e-09 1.25238e-09)
(2.5799e-10 -7.95087e-09 1.77743e-09)
(1.02404e-10 -1.02514e-08 2.36586e-09)
(-2.05935e-10 -1.27265e-08 3.04847e-09)
(-6.96154e-10 -1.54385e-08 3.8543e-09)
(-1.39569e-09 -1.84287e-08 4.80909e-09)
(-2.32384e-09 -2.17069e-08 5.93037e-09)
(-3.47969e-09 -2.52312e-08 7.21758e-09)
(-4.82207e-09 -2.88765e-08 8.63448e-09)
(-6.24676e-09 -3.24049e-08 1.00875e-08)
(-7.53391e-09 -3.53726e-08 1.13675e-08)
(-8.33652e-09 -3.71575e-08 1.2133e-08)
(-8.34015e-09 -3.73006e-08 1.19863e-08)
(-7.75439e-09 -3.64308e-08 1.0945e-08)
(1.58691e-10 -1.23699e-09 2.72097e-10)
(4.43728e-10 -3.60569e-09 7.99796e-10)
(6.58988e-10 -5.83758e-09 1.31647e-09)
(7.92539e-10 -8.04668e-09 1.8588e-09)
(8.33721e-10 -1.03171e-08 2.45746e-09)
(7.74766e-10 -1.27099e-08 3.13993e-09)
(6.13831e-10 -1.5261e-08 3.93027e-09)
(3.61471e-10 -1.79723e-08 4.84694e-09)
(5.22654e-11 -2.07971e-08 5.89779e-09)
(-2.3557e-10 -2.36144e-08 7.07078e-09)
(-3.48701e-10 -2.61893e-08 8.31887e-09)
(-1.01778e-11 -2.81269e-08 9.54387e-09)
(1.21295e-09 -2.88007e-08 1.05637e-08)
(4.00342e-09 -2.72903e-08 1.11153e-08)
(9.07089e-09 -2.25979e-08 1.09674e-08)
(1.59008e-08 -1.50033e-08 1.02828e-08)
(-1.37515e-11 -1.3791e-10 1.98461e-11)
(-4.43023e-11 -4.05275e-10 5.88712e-11)
(-8.55205e-11 -6.66304e-10 9.85612e-11)
(-1.46679e-10 -9.39658e-10 1.42556e-10)
(-2.38374e-10 -1.2444e-09 1.94583e-10)
(-3.73935e-10 -1.60171e-09 2.5876e-10)
(-5.70888e-10 -2.0371e-09 3.39896e-10)
(-8.52369e-10 -2.58289e-09 4.43746e-10)
(-1.24801e-09 -3.28042e-09 5.77147e-10)
(-1.79307e-09 -4.18078e-09 7.47912e-10)
(-2.52333e-09 -5.34031e-09 9.64387e-10)
(-3.46147e-09 -6.80231e-09 1.23446e-09)
(-4.59084e-09 -8.54858e-09 1.56419e-09)
(-5.82004e-09 -1.03938e-08 1.95594e-09)
(-6.96212e-09 -1.18187e-08 2.40069e-09)
(-7.75572e-09 -1.2021e-08 2.81785e-09)
(-3.71395e-11 -4.04774e-10 5.84094e-11)
(-1.2037e-10 -1.18936e-09 1.73243e-10)
(-2.34408e-10 -1.95441e-09 2.89891e-10)
(-4.05446e-10 -2.75342e-09 4.18873e-10)
(-6.63296e-10 -3.64085e-09 5.70936e-10)
(-1.0453e-09 -4.67646e-09 7.57803e-10)
(-1.60042e-09 -5.93153e-09 9.92999e-10)
(-2.39334e-09 -7.49581e-09 1.29249e-09)
(-3.50735e-09 -9.48409e-09 1.67477e-09)
(-5.04312e-09 -1.20397e-08 2.16023e-09)
(-7.10652e-09 -1.53264e-08 2.76886e-09)
(-9.77267e-09 -1.94905e-08 3.51563e-09)
(-1.30081e-08 -2.45575e-08 4.40179e-09)
(-1.65414e-08 -3.02133e-08 5.39991e-09)
(-1.97198e-08 -3.54854e-08 6.4238e-09)
(-2.15194e-08 -3.85491e-08 7.21947e-09)
(-4.942e-11 -6.50269e-10 9.43873e-11)
(-1.62584e-10 -1.90952e-09 2.79762e-10)
(-3.23535e-10 -3.13355e-09 4.67486e-10)
(-5.71107e-10 -4.40426e-09 6.7392e-10)
(-9.49176e-10 -5.80551e-09 9.15845e-10)
(-1.51211e-09 -7.42589e-09 1.21101e-09)
(-2.33075e-09 -9.36891e-09 1.57942e-09)
(-3.49838e-09 -1.17623e-08 2.04386e-09)
(-5.13572e-09 -1.47678e-08 2.62947e-09)
(-7.39161e-09 -1.85876e-08 3.36134e-09)
(-1.04316e-08 -2.34605e-08 4.25922e-09)
(-1.43977e-08 -2.96284e-08 5.32714e-09)
(-1.93057e-08 -3.724e-08 6.53647e-09)
(-2.48433e-08 -4.60881e-08 7.79593e-09)
(-3.00842e-08 -5.52363e-08 8.93021e-09)
(-3.32581e-08 -6.21638e-08 9.63787e-09)
(-4.51923e-11 -8.62631e-10 1.26397e-10)
(-1.54569e-10 -2.5307e-09 3.74281e-10)
(-3.24219e-10 -4.14082e-09 6.2352e-10)
(-5.99311e-10 -5.79941e-09 8.95658e-10)
(-1.0306e-09 -7.61076e-09 1.21203e-09)
(-1.6796e-09 -9.67822e-09 1.59414e-09)
(-2.6254e-09 -1.21188e-08 2.06551e-09)
(-3.9711e-09 -1.5072e-08 2.65159e-09)
(-5.84975e-09 -1.87088e-08 3.37815e-09)
(-8.42778e-09 -2.32393e-08 4.26667e-09)
(-1.19008e-08 -2.89132e-08 5.32507e-09)
(-1.64804e-08 -3.60163e-08 6.53535e-09)
(-2.22828e-08 -4.475e-08 7.8215e-09)
(-2.91559e-08 -5.499e-08 9.02874e-09)
(-3.63227e-08 -6.58158e-08 9.94743e-09)
(-4.16074e-08 -7.41448e-08 1.03886e-08)
(-2.14028e-11 -1.03315e-09 1.53497e-10)
(-8.70014e-11 -3.02224e-09 4.5314e-10)
(-2.20582e-10 -4.93009e-09 7.52476e-10)
(-4.67082e-10 -6.88089e-09 1.07702e-09)
(-8.75524e-10 -8.98263e-09 1.44997e-09)
(-1.50424e-09 -1.13417e-08 1.8947e-09)
(-2.42616e-09 -1.40705e-08 2.43541e-09)
(-3.73385e-09 -1.7294e-08 3.09653e-09)
(-5.54408e-09 -2.11552e-08 3.89971e-09)
(-8.00145e-09 -2.58186e-08 4.85705e-09)
(-1.12794e-08 -3.14688e-08 5.95843e-09)
(-1.5591e-08 -3.83259e-08 7.15549e-09)
(-2.11054e-08 -4.65201e-08 8.3218e-09)
(-2.7871e-08 -5.59721e-08 9.24738e-09)
(-3.55005e-08 -6.6014e-08 9.71199e-09)
(-4.19707e-08 -7.40007e-08 9.70251e-09)
(2.235e-11 -1.15237e-09 1.7456e-10)
(4.08604e-11 -3.36989e-09 5.1504e-10)
(-1.18807e-11 -5.48741e-09 8.53453e-10)
(-1.7429e-10 -7.62882e-09 1.21635e-09)
(-4.86739e-10 -9.90152e-09 1.62797e-09)
(-9.95336e-10 -1.24036e-08 2.11159e-09)
(-1.75476e-09 -1.52286e-08 2.68994e-09)
(-2.82995e-09 -1.84673e-08 3.38373e-09)
(-4.2964e-09 -2.2207e-08 4.20771e-09)
(-6.23853e-09 -2.6525e-08 5.16223e-09)
(-8.74624e-09 -3.14783e-08 6.21843e-09)
(-1.19247e-08 -3.711e-08 7.30008e-09)
(-1.58436e-08 -4.33485e-08 8.24129e-09)
(-2.05409e-08 -5.00059e-08 8.78734e-09)
(-2.59279e-08 -5.67272e-08 8.69764e-09)
(-3.0932e-08 -6.22409e-08 8.10623e-09)
(8.39437e-11 -1.22411e-09 1.904e-10)