/*--------------------------------*- C++ -*----------------------------------*\
| =========                 |                                                 |
| \\      /  F ield         | foam-extend: Open Source CFD                    |
|  \\    /   O peration     | Version:     3.1                                |
|   \\  /    A nd           | Web:         http://www.extend-project.de       |
|    \\/     M anipulation  |                                                 |
\*---------------------------------------------------------------------------*/
FoamFile
{
    version     2.0;
    format      ascii;
    class       surfaceScalarField;
    location    "0.7";
    object      meshPhi;
}
// * * * * * * * * * * * * * * * * * * * * * * * * * * * * * * * * * * * * * //

dimensions      [0 3 -1 0 0 0 0];

internalField   nonuniform List<scalar> 
41600
(
1.53961e-07
2.35422e-08
2.22793e-11
-2.03902e-11
2.96324e-07
6.97156e-08
7.34553e-11
-6.77927e-11
4.25974e-07
1.14667e-07
1.52251e-10
-1.42578e-10
5.46349e-07
1.60241e-07
2.8609e-10
-2.71783e-10
6.60229e-07
2.08873e-07
5.14049e-10
-4.9403e-10
7.69777e-07
2.62989e-07
8.97583e-10
-8.70209e-10
8.76441e-07
3.25181e-07
1.53786e-09
-1.50086e-09
9.807e-07
3.98366e-07
2.60365e-09
-2.55415e-09
1.08164e-06
4.85916e-07
4.38115e-09
-4.31552e-09
1.17635e-06
5.91729e-07
7.3642e-09
-7.27656e-09
1.25919e-06
7.20199e-07
1.24163e-08
-1.22933e-08
1.32102e-06
8.75897e-07
2.10542e-08
-2.0857e-08
1.35006e-06
1.0627e-06
3.59128e-08
-3.5526e-08
1.3365e-06
1.28093e-06
6.11314e-08
-6.02763e-08
1.2809e-06
1.51136e-06
9.9808e-08
-9.84389e-08
1.95941e-06
2.02254e-07
-3.07153e-07
4.59278e-07
4.60294e-08
2.35796e-11
-1.73842e-11
8.83847e-07
1.36239e-07
9.36671e-11
-7.50745e-11
1.2704e-06
2.23888e-07
2.41926e-10
-2.10101e-10
1.62921e-06
3.12495e-07
5.30379e-10
-4.83173e-10
1.96855e-06
4.06694e-07
1.05355e-09
-9.87237e-10
2.29492e-06
5.11038e-07
1.96612e-09
-1.87493e-09
2.61284e-06
6.3033e-07
3.52723e-09
-3.40315e-09
2.92407e-06
7.69892e-07
6.16909e-09
-6.00209e-09
3.2265e-06
9.35743e-07
1.06207e-08
-1.03978e-08
3.51241e-06
1.13467e-06
1.81277e-08
-1.78282e-08
3.76649e-06
1.374e-06
3.08339e-08
-3.04143e-08
3.96307e-06
1.66063e-06
5.23944e-08
-5.17396e-08
4.06772e-06
1.99857e-06
8.89233e-08
-8.77032e-08
4.04982e-06
2.38313e-06
1.496e-07
-1.4698e-07
3.90726e-06
2.77658e-06
2.41052e-07
-2.36003e-07
3.30787e-06
4.31454e-07
-5.8962e-07
7.57264e-07
6.65042e-08
-4.82118e-11
5.95928e-11
1.45707e-06
1.96726e-07
-9.99694e-11
1.34168e-10
2.09388e-06
3.22928e-07
-3.18639e-11
9.05096e-11
2.68453e-06
4.49994e-07
2.14278e-10
-1.27011e-10
3.24271e-06
5.8436e-07
7.45611e-10
-6.22319e-10
3.77949e-06
7.32264e-07
1.7553e-09
-1.58433e-09
4.30278e-06
9.00144e-07
3.5733e-09
-3.33838e-09
4.8165e-06
1.09495e-06
6.74607e-09
-6.42637e-09
5.31899e-06
1.32435e-06
1.21849e-08
-1.17525e-08
5.8006e-06
1.59675e-06
2.1426e-08
-2.08361e-08
6.24049e-06
1.92074e-06
3.70302e-08
-3.6198e-08
6.60213e-06
2.30342e-06
6.31566e-08
-6.18852e-08
6.83364e-06
2.74677e-06
1.06377e-07
-1.04153e-07
6.88435e-06
3.2399e-06
1.75774e-07
-1.71318e-07
6.74193e-06
3.73339e-06
2.76855e-07
-2.67636e-07
4.34522e-06
4.27934e-07
-5.06414e-07
1.0439e-06
8.41489e-08
-1.91685e-10
2.09112e-10
2.00803e-06
2.48728e-07
-5.06302e-10
5.5868e-10
2.8845e-06
4.07701e-07
-6.75429e-10
7.65354e-10
3.69646e-06
5.66968e-07
-6.81464e-10
8.15869e-10
4.46309e-06
7.3433e-07
-4.43813e-10
6.35091e-10
5.20005e-06
9.17162e-07
2.1294e-10
5.45098e-11
5.9191e-06
1.12285e-06
1.59644e-09
-1.22571e-09
6.62735e-06
1.35913e-06
4.21517e-09
-3.70526e-09
7.32582e-06
1.63428e-06
8.90913e-09
-8.20961e-09
8.00679e-06
1.9571e-06
1.70711e-08
-1.61022e-08
8.64944e-06
2.33618e-06
3.09333e-08
-2.95553e-08
9.21558e-06
2.77791e-06
5.39507e-08
-5.18733e-08
9.64598e-06
3.28231e-06
9.13217e-08
-8.7867e-08
9.87362e-06
3.83432e-06
1.49785e-07
-1.43365e-07
9.8613e-06
4.3792e-06
2.33083e-07
-2.20083e-07
5.00117e-06
3.37536e-07
-3.68029e-07
1.31517e-06
9.82764e-08
-3.98294e-10
4.22367e-10
2.52861e-06
2.90224e-07
-1.10577e-09
1.17839e-09
3.63021e-06
4.74952e-07
-1.66376e-09
1.78892e-09
4.64938e-06
6.59035e-07
-2.11636e-09
2.3044e-09
5.61048e-06
8.51137e-07
-2.437e-09
2.70633e-09
6.53354e-06
1.05918e-06
-2.51743e-09
2.89635e-09
7.43436e-06
1.2908e-06
-2.14746e-09
2.67579e-09
8.32418e-06
1.55372e-06
-9.66036e-10
1.69766e-09
9.20863e-06
1.85592e-06
1.62639e-09
-6.13759e-10
1.00855e-05
2.20552e-06
6.59844e-09
-5.18439e-09
1.09405e-05
2.61024e-06
1.54578e-08
-1.34413e-08
1.17433e-05
3.07565e-06
3.04503e-08
-2.74462e-08
1.24394e-05
3.601e-06
5.48425e-08
-5.00295e-08
1.29515e-05
4.17043e-06
9.29856e-08
-8.4558e-08
1.31954e-05
4.72846e-06
1.48328e-07
-1.32003e-07
5.31771e-06
2.04467e-07
-1.8799e-07
1.56674e-06
1.08367e-07
-6.63763e-10
6.94745e-10
3.01077e-06
3.19768e-07
-1.88062e-09
1.97506e-09
4.3198e-06
5.22514e-07
-2.9509e-09
3.11487e-09
5.52895e-06
7.23441e-07
-3.99687e-09
4.24399e-09
6.66708e-06
9.31543e-07
-5.06834e-09
5.42328e-09
7.75816e-06
1.15476e-06
-6.15443e-09
6.65537e-09
8.82188e-06
1.40041e-06
-7.17995e-09
7.87999e-09
9.8739e-06
1.67552e-06
-7.97942e-09
8.95026e-09
1.09254e-05
1.98693e-06
-8.25795e-09
9.6037e-09
1.19817e-05
2.3412e-06
-7.55317e-09
9.43199e-09
1.304e-05
2.74435e-06
-5.1497e-09
7.81685e-09
1.40849e-05
3.20068e-06
-4.39769e-11
3.95565e-09
1.50791e-05
3.70982e-06
9.17862e-09
-3.12288e-09
1.59505e-05
4.25995e-06
2.49227e-08
-1.48135e-08
1.65605e-05
4.80352e-06
5.12136e-08
-3.22826e-08
5.35744e-06
6.35207e-08
-1.19205e-08
1.79495e-06
1.14161e-07
-9.7586e-10
1.01401e-09
3.44799e-06
3.36647e-07
-2.78666e-09
2.90362e-09
4.94423e-06
5.4935e-07
-4.44497e-09
4.64937e-09
6.32335e-06
7.58977e-07
-6.1673e-09
6.47625e-09
7.618e-06
9.74403e-07
-8.09152e-09
8.53515e-09
8.85544e-06
1.20317e-06
-1.03074e-08
1.09331e-08
1.00587e-05
1.45184e-06
-1.28739e-08
1.37468e-08
1.12471e-05
1.7262e-06
-1.58139e-08
1.70207e-08
1.24367e-05
2.03131e-06
-1.91113e-08
2.0777e-08
1.36402e-05
2.37139e-06
-2.27321e-08
2.50427e-08
1.48662e-05
2.74961e-06
-2.6606e-08
2.98493e-08
1.61157e-05
3.16749e-06
-3.06958e-08
3.53512e-08
1.73761e-05
3.62369e-06
-3.49799e-08
4.19247e-08
1.86035e-05
4.1117e-06
-3.85821e-08
4.96355e-08
1.96441e-05
4.60571e-06
-3.67974e-08
5.70623e-08
5.1808e-06
-6.35035e-08
1.41558e-07
1.99711e-06
-1.31085e-09
1.35662e-09
1.15602e-07
3.83507e-06
-3.7559e-09
3.8955e-09
3.40705e-07
5.49593e-06
-6.03163e-09
6.27539e-09
5.55309e-07
7.0228e-06
-8.44894e-09
8.81801e-09
7.65733e-07
8.4512e-06
-1.12307e-08
1.17601e-08
9.8037e-07
9.81074e-06
-1.45537e-08
1.52975e-08
1.20605e-06
1.11266e-05
-1.85833e-08
1.96156e-08
1.44827e-06
1.24204e-05
-2.34837e-08
2.49024e-08
1.7113e-06
1.37114e-05
-2.94328e-08
3.13762e-08
1.99809e-06
1.50162e-05
-3.66617e-08
3.93283e-08
2.30996e-06
1.63496e-05
-4.54652e-08
4.91489e-08
2.64615e-06
1.77212e-05
-5.62559e-08
6.14182e-08
3.00301e-06
1.91312e-05
-6.9522e-08
7.69533e-08
3.37255e-06
2.05482e-05
-8.48839e-08
9.61701e-08
3.73959e-06
2.18223e-05
-9.77605e-08
1.17437e-07
4.07544e-06
-1.73128e-07
2.69293e-07
4.525e-06
1.56205e-07
2.4695e-08
2.28288e-11
3.00665e-07
7.31711e-08
7.46148e-11
4.32296e-07
1.20491e-07
1.52515e-10
5.54641e-07
1.68676e-07
2.82765e-10
6.70552e-07
2.20377e-07
5.02106e-10
7.8223e-07
2.7825e-07
8.67203e-10
8.91129e-07
3.45158e-07
1.46996e-09
9.97675e-07
4.24342e-07
2.46056e-09
1.1008e-06
5.19561e-07
4.086e-09
1.19733e-06
6.35176e-07
6.75586e-09
1.28134e-06
7.76123e-07
1.1147e-08
1.34361e-06
9.4755e-07
1.83437e-08
1.37304e-06
1.15376e-06
2.99514e-08
1.36246e-06
1.39481e-06
4.77655e-08
1.31957e-06
1.65048e-06
7.13329e-08
2.03896e-06
1.14615e-07
4.6596e-07
4.8279e-08
2.7641e-11
8.96759e-07
1.42976e-07
1.04024e-10
1.28919e-06
2.35224e-07
2.54074e-10
1.65385e-06
3.28882e-07
5.3805e-10
1.99921e-06
4.2899e-07
1.0452e-09
2.33191e-06
5.40531e-07
1.91799e-09
2.65648e-06
6.68809e-07
3.39264e-09
2.97452e-06
8.19729e-07
5.85395e-09
3.28346e-06
9.99997e-07
9.93189e-09
3.57482e-06
1.21719e-06
1.66664e-08
3.83234e-06
1.4795e-06
2.77533e-08
4.0296e-06
1.79457e-06
4.58354e-08
4.13316e-06
2.16661e-06
7.46919e-08
4.11798e-06
2.5895e-06
1.18346e-07
4.0002e-06
3.0234e-06
1.75606e-07
3.48601e-06
2.56679e-07
7.68227e-07
6.97418e-08
-3.67134e-11
1.47822e-06
2.0641e-07
-6.94828e-11
2.12465e-06
3.39197e-07
1.09682e-11
2.72487e-06
4.73459e-07
2.63896e-10
3.29291e-06
6.1619e-07
7.89981e-10
3.84004e-06
7.74212e-07
1.76712e-09
4.37427e-06
9.54638e-07
3.49845e-09
4.89923e-06
1.16518e-06
6.47168e-09
5.41262e-06
1.41437e-06
1.14776e-08
5.90358e-06
1.71158e-06
1.98126e-08
6.34959e-06
2.06642e-06
3.35301e-08
6.71206e-06
2.48662e-06
5.56838e-08
6.93876e-06
2.97391e-06
9.04202e-08
6.98396e-06
3.5149e-06
1.41733e-07
6.85812e-06
4.05736e-06
2.07579e-07
4.59903e-06
2.74495e-07
1.05885e-06
8.82212e-08
-1.6972e-10
2.03689e-06
2.60902e-07
-4.45226e-10
2.92649e-06
4.2812e-07
-5.81097e-10
3.75145e-06
5.96333e-07
-5.56122e-10
4.53145e-06
7.74013e-07
-2.95068e-10
5.28253e-06
9.69239e-07
3.65513e-10
6.01656e-06
1.19017e-06
1.71125e-09
6.74038e-06
1.44539e-06
4.19933e-09
7.45425e-06
1.74413e-06
8.56668e-09
8.14907e-06
2.09625e-06
1.60079e-08
8.80166e-06
2.51133e-06
2.83432e-08
9.37039e-06
2.99635e-06
4.8171e-08
9.79339e-06
3.55082e-06
7.89141e-08
1.00053e-05
4.15677e-06
1.23684e-07
9.98985e-06
4.75615e-06
1.80647e-07
5.32757e-06
2.30461e-07
1.33373e-06
1.03002e-07
-3.6313e-10
2.56451e-06
3.04341e-07
-1.00313e-09
3.68239e-06
4.98582e-07
-1.49669e-09
4.71757e-06
6.92907e-07
-1.88426e-09
5.69515e-06
8.96732e-07
-2.13846e-09
6.63568e-06
1.11874e-06
-2.15389e-09
7.55515e-06
1.36739e-06
-1.73219e-09
8.46462e-06
1.65126e-06
-5.43765e-10
9.36906e-06
1.97927e-06
1.94876e-09
1.02648e-05
2.3606e-06
6.59894e-09
1.1135e-05
2.80396e-06
1.46731e-08
1.19451e-05
3.31557e-06
2.79513e-08
1.26354e-05
3.8943e-06
4.87975e-08
1.31249e-05
4.52157e-06
7.96219e-08
1.33416e-05
5.13756e-06
1.20221e-07
5.70876e-06
1.50938e-07
1.58848e-06
1.13543e-07
-6.11778e-10
3.05285e-06
3.35218e-07
-1.72631e-09
4.38087e-06
5.4832e-07
-2.69537e-09
5.6086e-06
7.6032e-07
-3.63484e-09
6.76586e-06
9.81002e-07
-4.58519e-09
7.87723e-06
1.21908e-06
-5.52807e-09
8.96275e-06
1.48266e-06
-6.38685e-09
1.0038e-05
1.77958e-06
-7.00399e-09
1.11138e-05
2.11756e-06
-7.1015e-09
1.21942e-05
2.50413e-06
-6.24319e-09
1.3274e-05
2.94625e-06
-3.76971e-09
1.43336e-05
3.44901e-06
1.24415e-09
1.5329e-05
4.01216e-06
1.01033e-08
1.61786e-05
4.62204e-06
2.47828e-08
1.67404e-05
5.22614e-06
4.74272e-08
5.80004e-06
5.89403e-08
1.81941e-06
1.19577e-07
-9.04339e-10
3.49527e-06
3.52795e-07
-2.575e-09
5.01273e-06
5.76275e-07
-4.09284e-09
6.41254e-06
7.97357e-07
-5.6615e-09
7.72843e-06
1.02569e-06
-7.40348e-09
8.9884e-06
1.26957e-06
-9.39187e-09
1.02159e-05
1.53627e-06
-1.16709e-08
1.14304e-05
1.83231e-06
-1.42504e-08
1.26479e-05
2.1635e-06
-1.70922e-08
1.38801e-05
2.53485e-06
-2.01173e-08
1.51337e-05
2.95031e-06
-2.31659e-08
1.64062e-05
3.41214e-06
-2.59978e-08
1.76785e-05
3.91946e-06
-2.81427e-08
1.88944e-05
4.46533e-06
-2.80111e-08
1.98806e-05
5.02066e-06
-2.12486e-08
5.65515e-06
-2.97407e-08
2.02381e-06
-1.21863e-09
1.21056e-07
3.88652e-06
-3.48466e-09
3.56942e-07
5.57037e-06
-5.5803e-09
5.8233e-07
7.11956e-06
-7.79613e-09
8.0416e-07
8.57073e-06
-1.03355e-08
1.03155e-06
9.95435e-06
-1.33514e-08
1.27203e-06
1.12961e-05
-1.69849e-08
1.53172e-06
1.2618e-05
-2.13713e-08
1.8155e-06
1.39392e-05
-2.66405e-08
2.12689e-06
1.52757e-05
-3.29378e-08
2.46776e-06
1.6641e-05
-4.03956e-08
2.83782e-06
1.80419e-05
-4.9101e-08
3.23372e-06
1.94722e-05
-5.88754e-08
3.6473e-06
2.08867e-05
-6.81796e-08
4.06224e-06
2.21036e-05
-7.18427e-08
4.44648e-06
-1.14921e-07
4.94172e-06
1.58158e-07
2.57366e-08
2.18562e-11
3.04448e-07
7.62899e-08
7.09134e-11
4.37807e-07
1.25734e-07
1.43211e-10
5.61859e-07
1.76235e-07
2.62136e-10
6.79503e-07
2.30613e-07
4.5962e-10
7.92957e-07
2.91692e-07
7.83503e-10
9.03665e-07
3.62509e-07
1.30877e-09
1.01207e-06
4.46489e-07
2.15569e-09
1.11696e-06
5.47538e-07
3.51023e-09
1.21496e-06
6.70048e-07
5.65392e-09
1.30012e-06
8.18773e-07
9.00874e-09
1.36346e-06
9.98168e-07
1.41481e-08
1.39489e-06
1.21075e-06
2.16989e-08
1.38936e-06
1.45293e-06
3.19047e-08
1.35622e-06
1.70012e-06
4.34159e-08
2.08383e-06
5.88911e-08
4.71784e-07
5.03133e-08
2.86677e-11
9.08024e-07
1.4906e-07
1.04522e-10
1.30559e-06
2.45436e-07
2.46034e-10
1.67533e-06
3.43581e-07
5.07074e-10
2.02585e-06
4.48856e-07
9.65252e-10
2.36385e-06
5.66557e-07
1.74097e-09
2.69384e-06
7.02313e-07
3.02841e-09
3.01739e-06
8.62356e-07
5.13499e-09
3.33153e-06
1.05363e-06
8.53355e-09
3.62721e-06
1.28373e-06
1.39468e-08
3.88791e-06
1.56047e-06
2.24497e-08
4.0876e-06
1.89006e-06
3.54611e-08
4.19518e-06
2.27323e-06
5.44681e-08
4.19102e-06
2.69684e-06
7.99417e-08
4.09641e-06
3.11267e-06
1.08562e-07
3.53182e-06
1.35858e-07
7.77789e-07
7.2671e-08
-2.69886e-11
1.49669e-06
2.15162e-07
-4.50476e-11
2.15153e-06
3.53867e-07
3.81776e-11
2.76009e-06
4.94535e-07
2.76182e-10
3.3366e-06
6.44598e-07
7.56531e-10
3.89246e-06
8.11311e-07
1.63021e-09
4.4357e-06
1.00223e-06
3.1496e-09
4.96971e-06
1.22546e-06
5.70177e-09
5.49155e-06
1.4898e-06
9.8781e-09
5.98962e-06
1.80466e-06
1.65978e-08
6.44062e-06
2.179e-06
2.71916e-08
6.80559e-06
2.61849e-06
4.33217e-08
7.03454e-06
3.11994e-06
6.66304e-08
7.08827e-06
3.66049e-06
9.74045e-08
6.98555e-06
4.17619e-06
1.31477e-07
4.65186e-06
1.52007e-07
1.07189e-06
9.19065e-08
-1.44874e-10
2.06211e-06
2.71912e-07
-3.7732e-10
2.96323e-06
4.4655e-07
-4.83698e-10
3.79954e-06
6.22738e-07
-4.44501e-10
4.59105e-06
8.09481e-07
-1.94264e-10
5.35404e-06
1.01538e-06
4.06843e-10
6.10045e-06
1.2491e-06
1.59859e-09
6.83665e-06
1.51965e-06
3.74291e-09
7.5622e-06
1.83655e-06
7.39529e-09
8.26703e-06
2.20964e-06
1.34257e-08
8.92645e-06
2.64769e-06
2.30389e-08
9.4972e-06
3.15514e-06
3.7681e-08
9.91819e-06
3.72587e-06
5.87901e-08
1.01295e-05
4.33102e-06
8.6617e-08
1.01258e-05
4.89858e-06
1.17588e-07
5.39233e-06
1.3314e-07
1.3499e-06
1.07279e-07
-3.17693e-10
2.59592e-06
3.17117e-07
-8.7408e-10
3.72811e-06
5.19932e-07
-1.29629e-09
4.77724e-06
7.23395e-07
-1.62136e-09
5.769e-06
9.37535e-07
-1.82465e-09
6.72427e-06
1.17161e-06
-1.81462e-09
7.65906e-06
1.43459e-06
-1.42429e-09
8.58402e-06
1.73548e-06
-3.89947e-10
9.50336e-06
2.0835e-06
1.70274e-09
1.04122e-05
2.48773e-06
5.49419e-09
1.12913e-05
2.95599e-06
1.18493e-08
1.21036e-05
3.4919e-06
2.18245e-08
1.27877e-05
4.08859e-06
3.65874e-08
1.32645e-05
4.7161e-06
5.6747e-08
1.34748e-05
5.29932e-06
8.0579e-08
5.79088e-06
9.12303e-08
1.60747e-06
1.18234e-07
-5.4024e-10
3.08973e-06
3.49212e-07
-1.51981e-09
4.4344e-06
5.71653e-07
-2.36429e-09
5.67831e-06
7.93546e-07
-3.17893e-09
6.85203e-06
1.02532e-06
-3.99737e-09
7.9805e-06
1.27626e-06
-4.80186e-09
9.08385e-06
1.55498e-06
-5.52647e-09
1.01774e-05
1.86973e-06
-6.0416e-09
1.12711e-05
2.22847e-06
-6.12511e-09
1.23676e-05
2.63857e-06
-5.43102e-09
1.34591e-05
3.10617e-06
-3.46359e-09
1.45226e-05
3.63395e-06
4.3121e-10
1.55095e-05
4.21626e-06
7.12498e-09
1.63353e-05
4.82861e-06
1.77705e-08
1.68699e-05
5.40265e-06
3.31599e-08
5.9021e-06
3.80194e-08
1.84081e-06
1.24491e-07
-8.02083e-10
3.53671e-06
3.67434e-07
-2.27922e-09
5.07279e-06
6.00637e-07
-3.61341e-09
6.49066e-06
8.31969e-07
-4.98697e-09
7.82482e-06
1.07171e-06
-6.50585e-09
9.10377e-06
1.3287e-06
-8.23082e-09
1.03511e-05
1.61071e-06
-1.01958e-08
1.15861e-05
1.92458e-06
-1.24045e-08
1.28241e-05
2.27633e-06
-1.48167e-08
1.40752e-05
2.67076e-06
-1.73404e-08
1.53438e-05
3.11104e-06
-1.97842e-08
1.66231e-05
3.59729e-06
-2.183e-08
1.78874e-05
4.12396e-06
-2.28685e-08
1.90732e-05
4.67469e-06
-2.13496e-08
2.00142e-05
5.20525e-06
-1.40767e-08
5.77572e-06
-1.81245e-08
2.04718e-06
-1.08374e-09
1.26006e-07
3.93162e-06
-3.09452e-09
3.7167e-07
5.63566e-06
-4.94538e-09
6.06799e-07
7.20436e-06
-6.89472e-09
8.3885e-07
8.67517e-06
-9.12047e-09
1.07754e-06
1.00791e-05
-1.17526e-08
1.3309e-06
1.14421e-05
-1.49058e-08
1.60549e-06
1.27861e-05
-1.86852e-08
1.90647e-06
1.41296e-05
-2.31781e-08
2.23746e-06
1.54874e-05
-2.84525e-08
2.6001e-06
1.68705e-05
-3.44996e-08
2.99328e-06
1.82815e-05
-4.11547e-08
3.41177e-06
1.97072e-05
-4.78378e-08
3.8435e-06
2.10931e-05
-5.26782e-08
4.26462e-06
2.22571e-05
-5.13694e-08
4.631e-06
-8.03504e-08
5.07276e-06
1.59809e-07
2.66408e-08
1.94181e-11
3.07649e-07
7.89935e-08
6.26339e-11
4.42471e-07
1.30265e-07
1.25183e-10
5.67949e-07
1.82733e-07
2.26381e-10
6.87013e-07
2.39341e-07
3.91823e-10
8.01872e-07
3.0302e-07
6.58227e-10
9.13996e-07
3.769e-07
1.08183e-09
1.02389e-06
4.64485e-07
1.74978e-09
1.13019e-06
5.69641e-07
2.78293e-09
1.22936e-06
6.96526e-07
4.34134e-09
1.3155e-06
8.49396e-07
6.6314e-09
1.37994e-06
1.03177e-06
9.85619e-09
1.41332e-06
1.24471e-06
1.40797e-08
1.4116e-06
1.48309e-06
1.89632e-08
1.38389e-06
1.72301e-06
2.34566e-08
2.10754e-06
2.72902e-08
4.767e-07
5.20789e-08
2.68095e-11
9.17554e-07
1.54336e-07
9.57488e-11
1.31947e-06
2.54267e-07
2.19412e-10
1.69345e-06
3.56228e-07
4.42219e-10
2.04822e-06
4.65816e-07
8.26195e-10
2.39046e-06
5.88531e-07
1.46451e-09
2.72475e-06
7.30185e-07
2.50364e-09
3.05268e-06
8.97114e-07
4.16473e-09
3.37085e-06
1.09616e-06
6.75308e-09
3.66985e-06
1.33448e-06
1.06854e-08
3.93323e-06
1.61895e-06
1.65039e-08
4.13557e-06
1.95395e-06
2.47234e-08
4.24763e-06
2.33726e-06
3.5481e-08
4.25245e-06
2.75243e-06
4.78844e-08
4.17097e-06
3.15133e-06
5.92954e-08
3.55077e-06
6.40656e-08
7.85859e-07
7.52147e-08
-1.88768e-11
1.51233e-06
2.22757e-07
-2.67149e-11
2.17431e-06
3.66565e-07
4.99948e-11
2.78984e-06
5.12686e-07
2.5538e-10
3.37334e-06
6.68886e-07
6.59448e-10
3.93631e-06
8.42712e-07
1.38072e-09
4.48679e-06
1.04195e-06
2.61056e-09
5.02783e-06
1.2748e-06
4.6219e-09
5.55599e-06
1.54989e-06
7.7947e-09
6.05926e-06
1.87604e-06
1.2675e-08
6.51409e-06
2.26089e-06
1.99563e-08
6.88183e-06
2.7075e-06
3.02463e-08
7.11459e-06
3.20844e-06
4.36595e-08
7.17681e-06
3.73585e-06
5.90231e-08
7.08791e-06
4.22478e-06
7.30247e-08
4.66549e-06
7.34838e-08
1.08292e-06
9.51115e-08
-1.17594e-10
2.0835e-06
2.81474e-07
-3.04635e-10
2.99437e-06
4.62511e-07
-3.85911e-10
3.84017e-06
6.455e-07
-3.45661e-10
4.64122e-06
8.39852e-07
-1.3144e-10
5.41401e-06
1.05452e-06
3.67342e-10
6.17035e-06
1.29842e-06
1.33181e-09
6.91601e-06
1.58064e-06
3.01285e-09
7.65003e-06
1.91049e-06
5.77185e-09
8.36179e-06
2.29712e-06
1.01456e-08
9.02574e-06
2.74766e-06
1.67768e-08
9.59815e-06
3.26341e-06
2.62049e-08
1.00195e-05
3.83318e-06
3.85817e-08
1.02338e-05
4.42188e-06
5.29507e-08
1.02388e-05
4.95538e-06
6.63958e-08
5.40363e-06
6.59243e-08
1.36364e-06
1.11003e-07
-2.63496e-10
2.62256e-06
3.28221e-07
-7.23308e-10
3.76683e-06
5.38431e-07
-1.06919e-09
4.82768e-06
7.49702e-07
-1.33321e-09
5.83122e-06
9.72522e-07
-1.49614e-09
6.79853e-06
1.21653e-06
-1.48618e-09
7.74549e-06
1.49095e-06
-1.17865e-09
8.68221e-06
1.80487e-06
-3.89831e-10
9.61222e-06
2.16727e-06
1.15671e-09
1.05297e-05
2.58646e-06
3.86832e-09
1.14139e-05
3.06848e-06
8.22259e-09
1.22264e-05
3.61359e-06
1.46611e-08
1.29061e-05
4.20949e-06
2.34765e-08
1.33773e-05
4.81928e-06
3.43744e-08
1.3587e-05
5.36461e-06
4.57668e-08
5.80577e-06
4.57286e-08
1.6236e-06
1.22321e-07
-4.51882e-10
3.12098e-06
3.61381e-07
-1.26911e-09
4.47974e-06
5.91887e-07
-1.97001e-09
5.73727e-06
8.22246e-07
-2.64419e-09
6.92465e-06
1.06337e-06
-3.32035e-09
8.06704e-06
1.32493e-06
-3.98592e-09
9.18445e-06
1.6158e-06
-4.59323e-09
1.02918e-05
1.94429e-06
-5.05095e-09
1.13982e-05
2.3181e-06
-5.20695e-09
1.25051e-05
2.7438e-06
-4.83183e-09
1.36025e-05
3.22578e-06
-3.62054e-09
1.46653e-05
3.76342e-06
-1.21703e-09
1.56436e-05
4.34573e-06
2.80393e-09
1.64544e-05
4.94108e-06
8.9692e-09
1.69769e-05
5.4769e-06
1.75949e-08
5.92577e-06
1.74089e-08
1.859e-06
1.28775e-07
-6.73607e-10
3.57185e-06
3.80174e-07
-1.91167e-09
5.12368e-06
6.21784e-07
-3.0254e-09
6.55675e-06
8.61899e-07
-4.16881e-09
7.90611e-06
1.11127e-06
-5.43029e-09
9.2005e-06
1.37914e-06
-6.86017e-09
1.04635e-05
1.67348e-06
-8.4867e-09
1.1714e-05
2.00121e-06
-1.03139e-08
1.29664e-05
2.36806e-06
-1.23112e-08
1.42296e-05
2.77805e-06
-1.44019e-08
1.55054e-05
3.23272e-06
-1.64211e-08
1.67842e-05
3.72917e-06
-1.80923e-08
1.80374e-05
4.25694e-06
-1.89094e-08
1.92007e-05
4.7929e-06
-1.77053e-08
2.01179e-05
5.28782e-06
-1.22837e-08
5.81063e-06
-1.61127e-08
2.06704e-06
-9.12301e-10
1.30323e-07
3.9699e-06
-2.60222e-09
3.84497e-07
5.69103e-06
-4.15224e-09
6.28058e-07
7.27617e-06
-5.77988e-09
8.68881e-07
8.76334e-06
-7.63322e-09
1.11714e-06
1.01839e-05
-9.81833e-09
1.38121e-06
1.15637e-05
-1.24253e-08
1.66788e-06
1.29245e-05
-1.5532e-08
1.98234e-06
1.42838e-05
-1.91938e-08
2.32793e-06
1.56551e-05
-2.34281e-08
2.70554e-06
1.70471e-05
-2.81528e-08
3.11259e-06
1.84591e-05
-3.31071e-08
3.54122e-06
1.98739e-05
-3.76468e-08
3.97516e-06
2.1235e-05
-4.0166e-08
4.38491e-06
2.23667e-05
-3.75505e-08
4.72165e-06
-5.96491e-08
5.11857e-06
1.61143e-07
2.73855e-08
1.5711e-11
3.10239e-07
8.12177e-08
5.04659e-11
4.46241e-07
1.33981e-07
1.00027e-10
5.72854e-07
1.88033e-07
1.78964e-10
6.93015e-07
2.46398e-07
3.06067e-10
8.08916e-07
3.12064e-07
5.06346e-10
9.22128e-07
3.8821e-07
8.18905e-10
1.03317e-06
4.78339e-07
1.30121e-09
1.14053e-06
5.86179e-07
2.01991e-09
1.24057e-06
7.15574e-07
3.04817e-09
1.32744e-06
8.70266e-07
4.45547e-09
1.39266e-06
1.05307e-06
6.25031e-09
1.42728e-06
1.26431e-06
8.28419e-09
1.42754e-06
1.49882e-06
1.01558e-08
1.40205e-06
1.7343e-06
1.12974e-08
2.12037e-06
1.09611e-08
4.80664e-07
5.35326e-08
2.23266e-11
9.2526e-07
1.58676e-07
7.88713e-11
1.33069e-06
2.61513e-07
1.77583e-10
1.70806e-06
3.66552e-07
3.51678e-10
2.06615e-06
4.7955e-07
6.46953e-10
2.41166e-06
6.06136e-07
1.12812e-09
2.7493e-06
7.52197e-07
1.8959e-09
3.08049e-06
9.24004e-07
3.09296e-09
3.40159e-06
1.12812e-06
4.88707e-09
3.70301e-06
1.37116e-06
7.4739e-09
3.96832e-06
1.65904e-06
1.10501e-08
4.17259e-06
1.99471e-06
1.56473e-08
4.28757e-06
2.3744e-06
2.08841e-08
4.29713e-06
2.7811e-06
2.57306e-08
4.22092e-06
3.16916e-06
2.87257e-08
3.56091e-06
2.58883e-08
7.92357e-07
7.73095e-08
-1.27119e-11
1.52499e-06
2.2901e-07
-1.44373e-11
2.19275e-06
3.76994e-07
4.91767e-11
2.81385e-06
5.27521e-07
2.10318e-10
3.40289e-06
6.88591e-07
5.21463e-10
3.9715e-06
8.67938e-07
1.06709e-09
4.5276e-06
1.07343e-06
1.97622e-09
5.07377e-06
1.31311e-06
3.42004e-09
5.60636e-06
1.59524e-06
5.60815e-09
6.11319e-06
1.9279e-06
8.80645e-09
6.57059e-06
2.31739e-06
1.32837e-08
6.9403e-06
2.7647e-06
1.90743e-08
7.17562e-06
3.26005e-06
2.56913e-08
7.2423e-06
3.77431e-06
3.18449e-08
7.15871e-06
4.24528e-06
3.56597e-08
4.67009e-06
2.98032e-08
1.09184e-06
9.77557e-08
-8.91316e-11
2.10086e-06
2.89356e-07
-2.29242e-10
3.01959e-06
4.75632e-07
-2.87725e-10
3.87298e-06
6.64121e-07
-2.54494e-10
4.68163e-06
8.64527e-07
-8.97119e-11
5.46216e-06
1.08602e-06
2.86095e-10
6.22608e-06
1.33757e-06
9.92953e-10
6.97864e-06
1.62812e-06
2.18531e-09
7.71854e-06
1.96654e-06
4.0666e-09
8.43478e-06
2.36106e-06
6.90976e-09
9.10142e-06
2.81716e-06
1.0972e-08
9.67473e-06
3.33365e-06
1.62848e-08
1.00963e-05
3.89632e-06
2.24604e-08
1.03119e-05
4.46816e-06
2.84189e-08
1.032e-05
4.97771e-06
3.24689e-08
5.40339e-06
2.67479e-08
1.37479e-06
1.14081e-07
-2.02725e-10
2.64418e-06
3.37379e-07
-5.55409e-10
3.79817e-06
5.53642e-07
-8.1979e-10
4.86841e-06
7.71241e-07
-1.02215e-09
5.88131e-06
1.00098e-06
-1.14842e-09
6.85804e-06
1.25273e-06
-1.14827e-09
7.81422e-06
1.53578e-06
-9.40316e-10
8.75949e-06
1.85907e-06
-4.12069e-10
9.69685e-06
2.23109e-06
5.95518e-10
1.06197e-05
2.65912e-06
2.2974e-09
1.15065e-05
3.14741e-06
4.89222e-09
1.23182e-05
3.69345e-06
8.44988e-09
1.29946e-05
4.28156e-06
1.2839e-08
1.34622e-05
4.87238e-06
1.75582e-08
1.36709e-05
5.38983e-06
2.16852e-08
5.80421e-06
1.76954e-08
1.63671e-06
1.25698e-07
-3.50103e-10
3.14632e-06
3.71421e-07
-9.82344e-10
4.51643e-06
6.08536e-07
-1.52328e-09
5.7849e-06
8.45768e-07
-2.04337e-09
6.98311e-06
1.09436e-06
-2.56584e-09
8.13632e-06
1.36423e-06
-3.08439e-09
9.26437e-06
1.66431e-06
-3.5703e-09
1.03817e-05
2.00275e-06
-3.96886e-09
1.14968e-05
2.38675e-06
-4.19186e-09
1.261e-05
2.82184e-06
-4.11362e-09
1.371e-05
3.31058e-06
-3.58638e-09
1.47706e-05
3.84957e-06
-2.47519e-09
1.57418e-05
4.42431e-06
-6.46744e-10
1.65431e-05
5.00031e-06
2.10483e-09
1.70592e-05
5.50665e-06
6.05759e-09
5.927e-06
3.54167e-09
1.87377e-06
1.32316e-07
-5.2379e-10
3.60034e-06
3.90692e-07
-1.48527e-09
5.16489e-06
6.392e-07
-2.34801e-09
6.61017e-06
8.86454e-07
-3.23233e-09
7.97158e-06
1.14355e-06
-4.20721e-09
9.27798e-06
1.41994e-06
-5.31264e-09
1.05528e-05
1.72369e-06
-6.57255e-09
1.18145e-05
2.06154e-06
-7.99364e-09
1.30768e-05
2.43874e-06
-9.55916e-09
1.43472e-05
2.85831e-06
-1.12199e-08
1.5626e-05
3.32003e-06
-1.28639e-08
1.69018e-05
3.81839e-06
-1.43071e-08
1.81451e-05
4.33954e-06
-1.52191e-08
1.92936e-05
4.85735e-06
-1.4833e-08
2.01981e-05
5.32332e-06
-1.16469e-08
5.8173e-06
-1.56697e-08
2.08316e-06
-7.10811e-10
1.33893e-07
4.00096e-06
-2.02597e-09
3.95094e-07
5.73591e-06
-3.22923e-09
6.45582e-07
7.33428e-06
-4.49012e-09
8.93545e-07
8.83444e-06
-5.92332e-09
1.14948e-06
1.02679e-05
-7.60998e-09
1.422e-06
1.16605e-05
-9.61731e-09
1.71794e-06
1.30334e-05
-1.20002e-08
2.04234e-06
1.44035e-05
-1.47924e-08
2.39808e-06
1.5783e-05
-1.79893e-08
2.78513e-06
1.71789e-05
-2.1496e-08
3.19933e-06
1.85882e-05
-2.50719e-08
3.63049e-06
1.99924e-05
-2.82008e-08
4.05934e-06
2.13359e-05
-2.97353e-08
4.45363e-06
2.24487e-05
-2.75883e-08
4.7648e-06
-4.47417e-08
5.13185e-06
1.62149e-07
2.79552e-08
1.10234e-11
3.12196e-07
8.29174e-08
3.53048e-11
4.49086e-07
1.36813e-07
6.95287e-11
5.76529e-07
1.92049e-07
1.23217e-10
6.97454e-07
2.51696e-07
2.08419e-10
8.14115e-07
3.1878e-07
3.40416e-10
9.28152e-07
3.96503e-07
5.43197e-10
1.03998e-06
4.88308e-07
8.50815e-10
1.14808e-06
5.97771e-07
1.29437e-09
1.24875e-06
7.28468e-07
1.89644e-09
1.33607e-06
8.83751e-07
2.66257e-09
1.40174e-06
1.06602e-06
3.53893e-09
1.43693e-06
1.27541e-06
4.36057e-09
1.43797e-06
1.50717e-06
4.84366e-09
1.41311e-06
1.74035e-06
4.75239e-09
2.12774e-06
3.49679e-09
4.83645e-07
5.4644e-08
1.58768e-11
9.31078e-07
1.61992e-07
5.58289e-11
1.33917e-06
2.67038e-07
1.24381e-10
1.71904e-06
3.74384e-07
2.42977e-10
2.07955e-06
4.89897e-07
4.42108e-10
2.42753e-06
6.19287e-07
7.61391e-10
2.76767e-06
7.68436e-07
1.25966e-09
3.10105e-06
9.43454e-07
2.01924e-09
3.42411e-06
1.15063e-06
3.11982e-09
3.72718e-06
1.39611e-06
4.62791e-09
3.99367e-06
1.68506e-06
6.57157e-09
4.19903e-06
2.01961e-06
8.82205e-09
4.31537e-06
2.39546e-06
1.09596e-08
4.32672e-06
2.79615e-06
1.22561e-08
4.25186e-06
3.17837e-06
1.20876e-08
3.5677e-06
8.16434e-09
7.97237e-07
7.89114e-08
-8.06828e-12
1.53457e-06
2.33792e-07
-7.31111e-12
2.2067e-06
3.84956e-07
3.82333e-11
2.83194e-06
5.38792e-07
1.48379e-10
3.42517e-06
7.03472e-07
3.59538e-10
3.99806e-06
8.8683e-07
7.23608e-10
4.5582e-06
1.09668e-06
1.31244e-09
5.10785e-06
1.34089e-06
2.22215e-09
5.64334e-06
1.62731e-06
3.55368e-09
6.15241e-06
1.96334e-06
5.40615e-09
6.6113e-06
2.35427e-06
7.8322e-09
6.98202e-06
2.79987e-06
1.06713e-08
7.21837e-06
3.28941e-06
1.33978e-08
7.28645e-06
3.7942e-06
1.51052e-08
7.20383e-06
4.25506e-06
1.49688e-08
4.67365e-06
9.07788e-09
1.09856e-06
9.97813e-08
-6.01948e-11
2.11402e-06
2.95392e-07
-1.53465e-10
3.03869e-06
4.85656e-07
-1.90818e-10
3.89774e-06
6.78284e-07
-1.67718e-10
4.71212e-06
8.8318e-07
-5.63161e-11
5.49839e-06
1.10961e-06
1.92118e-10
6.26767e-06
1.36652e-06
6.44156e-10
7.02502e-06
1.66262e-06
1.38506e-09
7.76878e-06
2.00631e-06
2.51305e-09
8.48767e-06
2.40497e-06
4.13717e-09
9.15573e-06
2.86285e-06
6.31419e-09
9.72921e-06
3.37717e-06
8.89751e-09
1.01503e-05
3.93244e-06
1.14436e-08
1.03657e-05
4.49186e-06
1.31846e-08
1.03737e-05
4.98734e-06
1.33656e-08
5.40318e-06
7.73394e-09
1.38325e-06
1.16441e-07
-1.37616e-10
2.66057e-06
3.44395e-07
-3.76269e-10
3.82189e-06
5.65267e-07
-5.54733e-10
4.89916e-06
7.87634e-07
-6.9222e-10
5.91904e-06
1.02252e-06
-7.79478e-10
6.90265e-06
1.27989e-06
-7.86497e-10
7.86535e-06
1.56901e-06
-6.6798e-10
8.81655e-06
1.89858e-06
-3.63254e-10
9.75869e-06
2.27657e-06
2.04685e-10
1.06847e-05
2.70933e-06
1.12607e-09
1.15726e-05
3.1997e-06
2.44938e-09
1.23833e-05
3.74341e-06
4.09727e-09
1.3057e-05
4.32319e-06
5.84211e-09
1.35216e-05
4.89962e-06
7.29681e-09
1.37286e-05
5.39999e-06
8.09133e-09
5.80175e-06
3.95958e-09
1.64666e-06
1.28289e-07
-2.38597e-10
3.16551e-06
3.79116e-07
-6.69107e-10
4.54417e-06
6.21266e-07
-1.03708e-09
5.82084e-06
8.63685e-07
-1.39111e-09
7.02709e-06
1.11784e-06
-1.74782e-09
8.18819e-06
1.39376e-06
-2.10565e-09
9.3238e-06
1.70035e-06
-2.45063e-09
1.0448e-05
2.04552e-06
-2.75527e-09
1.15687e-05
2.43591e-06
-2.97731e-09
1.26855e-05
2.87614e-06
-3.06194e-09
1.37864e-05
3.36729e-06
-2.95796e-09
1.48446e-05
3.90412e-06
-2.64661e-09
1.58106e-05
4.47035e-06
-2.12613e-09
1.66058e-05
5.03115e-06
-1.31657e-09
1.71178e-05
5.51868e-06
6.97432e-11
5.92461e-06
-2.65513e-09
1.88496e-06
1.35035e-07
-3.57953e-10
3.62191e-06
3.98758e-07
-1.01452e-09
5.19606e-06
6.52525e-07
-1.60278e-09
6.65051e-06
9.05176e-07
-2.20532e-09
8.02086e-06
1.16803e-06
-2.86968e-09
9.33601e-06
1.45065e-06
-3.6242e-09
1.06192e-05
1.76108e-06
-4.4871e-09
1.18887e-05
2.10584e-06
-5.46606e-09
1.31573e-05
2.48963e-06
-6.55517e-09
1.44318e-05
2.91457e-06
-7.73e-09
1.57114e-05
3.37904e-06
-8.92965e-09
1.6984e-05
3.87569e-06
-1.00557e-08
1.82201e-05
4.38889e-06
-1.09298e-08
1.93592e-05
4.89184e-06
-1.11001e-08
2.02567e-05
5.33854e-06
-9.59319e-09
5.81682e-06
-1.30169e-08
2.09539e-06
-4.86496e-10
1.36636e-07
4.0245e-06
-1.38594e-09
4.03225e-07
5.76989e-06
-2.20753e-09
6.58999e-07
7.37818e-06
-3.06738e-09
9.12367e-07
8.888e-06
-4.04377e-09
1.17405e-06
1.03309e-05
-5.19183e-09
1.45276e-06
1.17326e-05
-6.55647e-09
1.75533e-06
1.31139e-05
-8.17306e-09
2.08657e-06
1.4491e-05
-1.00613e-08
2.44888e-06
1.58752e-05
-1.22119e-08
2.84137e-06
1.72722e-05
-1.45522e-08
3.25863e-06
1.86782e-05
-1.69151e-08
3.68876e-06
2.00742e-05
-1.89677e-08
4.11084e-06
2.14062e-05
-2.00054e-08
4.49185e-06
2.25084e-05
-1.87492e-08
4.7852e-06
-3.07979e-08
5.13442e-06
1.62824e-07
2.83402e-08
5.6887e-12
3.13507e-07
8.40646e-08
1.81722e-11
4.50986e-07
1.38719e-07
3.55999e-11
5.78965e-07
1.94738e-07
6.25825e-11
7.0035e-07
2.55214e-07
1.04822e-10
8.17548e-07
3.23209e-07
1.6995e-10
9.32168e-07
4.01926e-07
2.6948e-10
1.04445e-06
4.94725e-07
4.18854e-10
1.153e-06
6.0507e-07
6.28727e-10
1.25407e-06
7.36374e-07
9.01098e-10
1.34163e-06