/*--------------------------------*- C++ -*----------------------------------*\
| =========                 |                                                 |
| \\      /  F ield         | foam-extend: Open Source CFD                    |
|  \\    /   O peration     | Version:     3.1                                |
|   \\  /    A nd           | Web:         http://www.extend-project.de       |
|    \\/     M anipulation  |                                                 |
\*---------------------------------------------------------------------------*/
FoamFile
{
    version     2.0;
    format      ascii;
    class       volScalarField;
    location    "0.7";
    object      p;
}
// * * * * * * * * * * * * * * * * * * * * * * * * * * * * * * * * * * * * * //

dimensions      [0 2 -2 0 0 0 0];

internalField   nonuniform List<scalar> 
14592
(
0.237485
0.23592
0.233284
0.229995
0.226399
0.222649
0.218834
0.215011
0.211217
0.207486
0.203842
0.200314
0.19693
0.193719
0.190774
0.188506
0.2381
0.235979
0.23319
0.229857
0.226237
0.22247
0.218638
0.214799
0.210989
0.207244
0.203595
0.200073
0.196718
0.193579
0.190743
0.188551
0.239479
0.23657
0.233421
0.229914
0.226182
0.222337
0.218447
0.21456
0.210705
0.20692
0.203234
0.199682
0.196308
0.193168
0.190348
0.18816
0.241183
0.237452
0.233841
0.230089
0.226193
0.222231
0.218251
0.214287
0.210368
0.206516
0.202761
0.199136
0.195688
0.192476
0.189595
0.187395
0.242863
0.238396
0.234317
0.2303
0.226222
0.222125
0.218041
0.213987
0.209982
0.206041
0.202188
0.198452
0.19488
0.191535
0.188537
0.186317
0.244285
0.239231
0.23474
0.230476
0.226225
0.221996
0.217806
0.213655
0.209552
0.205506
0.201529
0.197648
0.193901
0.190359
0.187174
0.184882
0.245278
0.239812
0.235015
0.230557
0.226165
0.221825
0.217533
0.213291
0.209089
0.204927
0.20081
0.196751
0.192781
0.188965
0.185485
0.182965
0.245732
0.240044
0.235078
0.230504
0.226019
0.221595
0.217231
0.212906
0.208608
0.204329
0.200063
0.195807
0.191567
0.187374
0.183375
0.180075
0.238878
0.237226
0.234464
0.23104
0.227327
0.223493
0.219632
0.215805
0.212055
0.208422
0.204949
0.201684
0.198696
0.196072
0.194008
0.193088
0.239551
0.237295
0.234365
0.230893
0.227157
0.223307
0.219431
0.21559
0.211826
0.208184
0.204711
0.201461
0.198515
0.19597
0.194019
0.193301
0.24105
0.237945
0.23462
0.23096
0.227104
0.223171
0.219233
0.215342
0.211532
0.20785
0.20434
0.201061
0.198097
0.195554
0.193623
0.192968
0.242909
0.238914
0.235085
0.231158
0.227124
0.223064
0.21903
0.215056
0.211177
0.207422
0.203836
0.200477
0.197429
0.194803
0.192796
0.192089
0.244748
0.239957
0.235612
0.231394
0.227162
0.222957
0.21881
0.214738
0.210764
0.206911
0.203213
0.199726
0.196532
0.193744
0.191577
0.190747
0.246309
0.240881
0.236082
0.231593
0.227172
0.222823
0.21856
0.214382
0.2103
0.206326
0.202486
0.198826
0.195421
0.192386
0.189953
0.188891
0.247402
0.241526
0.23639
0.231688
0.227113
0.222642
0.218267
0.213989
0.209794
0.205687
0.201682
0.197809
0.194126
0.190739
0.187881
0.186339
0.247905
0.241788
0.236464
0.231633
0.226957
0.222395
0.217941
0.213569
0.209265
0.205022
0.200839
0.196723
0.192698
0.188819
0.185242
0.182452
0.240159
0.238432
0.23556
0.232017
0.228201
0.224291
0.220389
0.216558
0.212847
0.209303
0.205974
0.202926
0.200238
0.198012
0.196442
0.19596
0.240881
0.238511
0.235457
0.231863
0.228024
0.224099
0.220183
0.216341
0.212618
0.209067
0.205743
0.202715
0.200073
0.197923
0.196461
0.196169
0.242486
0.239213
0.235737
0.231941
0.227973
0.223961
0.21998
0.216086
0.212316
0.208724
0.205363
0.202303
0.199641
0.197489
0.196044
0.195812
0.244481
0.240262
0.236242
0.232159
0.228001
0.223853
0.21977
0.215787
0.211944
0.208274
0.204831
0.201683
0.198928
0.196682
0.195147
0.194852
0.246461
0.241393
0.236816
0.232419
0.228049
0.223745
0.219541
0.215453
0.211507
0.207729
0.204163
0.200873
0.197953
0.195523
0.193796
0.193347
0.248146
0.242397
0.237329
0.232639
0.228065
0.223607
0.219277
0.215074
0.21101
0.207099
0.203375
0.19989
0.196731
0.194015
0.191966
0.191227
0.249328
0.243101
0.237666
0.232745
0.228006
0.223416
0.218965
0.214653
0.210465
0.206405
0.202494
0.198767
0.19529
0.192165
0.189603
0.188273
0.249873
0.243388
0.237749
0.232689
0.22784
0.223152
0.218616
0.214201
0.209891
0.205678
0.201564
0.197559
0.193687
0.189995
0.186592
0.183803
0.241287
0.239498
0.236535
0.23289
0.228985
0.225011
0.221072
0.217238
0.213559
0.210086
0.206874
0.203989
0.201516
0.199552
0.198267
0.197963
0.242051
0.239586
0.23643
0.232731
0.228802
0.224813
0.220862
0.217018
0.213329
0.209853
0.206647
0.203786
0.201359
0.199468
0.198283
0.198148
0.243747
0.240334
0.23673
0.232818
0.228754
0.224673
0.220655
0.216757
0.213021
0.209501
0.206257
0.203362
0.200912
0.199012
0.197836
0.197751
0.245857
0.241451
0.23727
0.233054
0.228789
0.224565
0.22044
0.216448
0.212634
0.209032
0.205701
0.202711
0.20016
0.198155
0.196877
0.196721
0.247957
0.242659
0.237885
0.233336
0.228845
0.224456
0.220202
0.216099
0.212175
0.208458
0.204994
0.201851
0.19912
0.196913
0.195421
0.195095
0.249748
0.243733
0.238436
0.233573
0.228867
0.224314
0.219926
0.2157
0.211649
0.207789
0.204153
0.200798
0.197806
0.195286
0.193435
0.19279
0.251005
0.244486
0.238798
0.233689
0.228807
0.224114
0.219597
0.215254
0.211069
0.207047
0.203208
0.199588
0.196248
0.193279
0.190859
0.189565
0.251588
0.244795
0.238889
0.233631
0.228633
0.223835
0.219227
0.214773
0.210456
0.206266
0.202205
0.198279
0.194509
0.190922
0.187588
0.184715
0.24223
0.240393
0.237355
0.233628
0.22965
0.225622
0.221654
0.217816
0.214161
0.210742
0.207616
0.20485
0.202524
0.200726
0.199602
0.199379
0.243028
0.240488
0.237249
0.233465
0.229463
0.22542
0.22144
0.217594
0.213931
0.21051
0.207393
0.204651
0.202371
0.200643
0.199613
0.199544
0.244797
0.241274
0.237566
0.23356
0.229417
0.225279
0.22123
0.217327
0.213616
0.210152
0.206994
0.204217
0.20191
0.200166
0.199137
0.19911
0.247002
0.242447
0.238136
0.233811
0.229458
0.225171
0.22101
0.21701
0.213217
0.209667
0.206417
0.20354
0.201124
0.199267
0.198126
0.19802
0.2492
0.243717
0.238785
0.23411
0.229521
0.225061
0.220765
0.216649
0.212741
0.209068
0.205679
0.202638
0.200033
0.19796
0.196589
0.196304
0.251076
0.244848
0.239366
0.234362
0.229548
0.224916
0.220479
0.216233
0.212191
0.208367
0.204795
0.20153
0.198647
0.196242
0.194488
0.193866
0.252396
0.245643
0.23975
0.234486
0.229487
0.224708
0.220136
0.215766
0.211581
0.207586
0.203798
0.200252
0.197001
0.19412
0.191761
0.190452
0.253008
0.24597
0.239847
0.234427
0.229306
0.224416
0.219747
0.215261
0.210936
0.206762
0.202737
0.198866
0.195159
0.191628
0.188309
0.185345
0.242961
0.241088
0.237995
0.234205
0.230172
0.226103
0.22211
0.218269
0.214631
0.21125
0.208184
0.205498
0.203267
0.201572
0.200538
0.200353
0.243785
0.241189
0.237887
0.234039
0.229981
0.225897
0.221895
0.218046
0.2144
0.211019
0.207963
0.205302
0.203116
0.201488
0.200544
0.200505
0.245609
0.242003
0.238218
0.23414
0.229937
0.225755
0.221681
0.217774
0.21408
0.210655
0.207557
0.204859
0.202643
0.200995
0.200046
0.200042
0.247886
0.24322
0.238811
0.234404
0.229983
0.225647
0.221458
0.217451
0.213673
0.210158
0.206965
0.204162
0.201832
0.200064
0.198995
0.198907
0.250158
0.244538
0.239486
0.234716
0.230052
0.225537
0.221208
0.21708
0.213182
0.209541
0.206202
0.203229
0.200702
0.198709
0.197399
0.197126
0.2521
0.245713
0.240091
0.234979
0.230082
0.225389
0.220913
0.216652
0.212614
0.208815
0.205287
0.20208
0.199265
0.196925
0.195217
0.194594
0.253467
0.246539
0.240491
0.23511
0.23002
0.225175
0.220559
0.216168
0.211982
0.208005
0.204251
0.200752
0.197554
0.194721
0.192385
0.191052
0.254101
0.246879
0.240593
0.235049
0.229833
0.224872
0.220156
0.215644
0.211311
0.207147
0.203146
0.199309
0.19564
0.192136
0.188813
0.185772
0.243461
0.241563
0.238434
0.234602
0.230532
0.226434
0.222426
0.218581
0.214953
0.211597
0.208568
0.205931
0.203757
0.20212
0.201136
0.200968
0.244303
0.24167
0.238327
0.234436
0.230339
0.226228
0.222209
0.218358
0.214723
0.211367
0.208349
0.205737
0.203608
0.202036
0.201138
0.201111
0.246164
0.242504
0.238668
0.234541
0.230296
0.226085
0.221994
0.218083
0.2144
0.210999
0.207939
0.205288
0.203127
0.201532
0.200625
0.20063
0.248488
0.24375
0.239275
0.234813
0.230347
0.225978
0.221768
0.217757
0.213986
0.210494
0.207335
0.204577
0.202299
0.200579
0.199548
0.199466
0.250811
0.245101
0.239968
0.235134
0.230419
0.225867
0.221515
0.217379
0.213486
0.209864
0.206557
0.203625
0.201143
0.199193
0.197913
0.197641
0.252796
0.246306
0.240589
0.235406
0.230451
0.225717
0.221215
0.216942
0.212906
0.209121
0.20562
0.202448
0.199672
0.197367
0.195679
0.19505
0.254194
0.247153
0.241001
0.23554
0.23039
0.225499
0.220853
0.216447
0.212259
0.208291
0.204558
0.201087
0.197919
0.19511
0.192782
0.191427
0.254843
0.247503
0.241106
0.235478
0.230198
0.225189
0.22044
0.215909
0.211571
0.207412
0.203425
0.199608
0.195958
0.192466
0.189133
0.186037
0.243709
0.241791
0.238649
0.234797
0.230708
0.226597
0.222581
0.218735
0.215112
0.211768
0.208757
0.206142
0.203994
0.202384
0.201423
0.201259
0.244565
0.241905
0.238543
0.23463
0.230514
0.226389
0.222363
0.21851
0.21488
0.211536
0.208535
0.205946
0.203842
0.202295
0.20142
0.201394
0.246438
0.242748
0.238885
0.234735
0.230471
0.226245
0.222146
0.218233
0.214556
0.211166
0.208123
0.205494
0.203357
0.201786
0.2009
0.200905
0.248785
0.244009
0.2395
0.23501
0.230523
0.226138
0.221919
0.217905
0.214138
0.210657
0.207514
0.204777
0.202521
0.200823
0.19981
0.199727
0.251131
0.245378
0.240201
0.235336
0.230597
0.226027
0.221664
0.217524
0.213634
0.21002
0.206728
0.203814
0.201352
0.199421
0.198158
0.197882
0.253138
0.246599
0.240831
0.235611
0.23063
0.225875
0.221361
0.217082
0.213047
0.20927
0.205781
0.202625
0.199865
0.197574
0.195899
0.195264
0.254551
0.247457
0.241248
0.235747
0.230568
0.225656
0.220995
0.216582
0.212393
0.20843
0.204707
0.201247
0.198092
0.195293
0.192969
0.191601
0.255207
0.247812
0.241355
0.235684
0.230374
0.225342
0.220578
0.216038
0.211697
0.20754
0.203559
0.199751
0.196109
0.19262
0.18928
0.186142
0.228739
0.228142
0.226584
0.224298
0.221496
0.218307
0.214816
0.211083
0.207142
0.20301
0.198691
0.194175
0.189443
0.184473
0.179251
0.173777
0.228886
0.228255
0.226647
0.224309
0.221462
0.218232
0.214705
0.210939
0.206967
0.202808
0.198461
0.193918
0.189161
0.184169
0.178924
0.17343
0.229234
0.228508
0.226806
0.22438
0.22146
0.218169
0.214592
0.210782
0.206772
0.202578
0.1982
0.193629
0.188847
0.183834
0.178573
0.17307
0.229672
0.22883
0.227009
0.224476
0.221467
0.218104
0.214468
0.210608
0.206555
0.202323
0.197911
0.19331
0.188502
0.18347
0.1782
0.172697
0.230103
0.229152
0.227211
0.224568
0.221467
0.218029
0.214331
0.210419
0.206321
0.202048
0.197601
0.192969
0.188138
0.18309
0.177816
0.172321
0.230461
0.229421
0.227375
0.224631
0.221445
0.217937
0.214179
0.210217
0.206074
0.201762
0.197279
0.192618
0.187765
0.182705
0.177432
0.171954
0.2307
0.229596
0.227467
0.224644
0.221388
0.217819
0.21401
0.210003
0.20582
0.201471
0.196955
0.192267
0.187395
0.182328
0.177062
0.171609
0.230787
0.229646
0.227466
0.22459
0.221285
0.217674
0.213826
0.209782
0.205564
0.201183
0.196639
0.191927
0.187041
0.181971
0.176719
0.171297
0.228946
0.22829
0.226687
0.22437
0.221551
0.218352
0.214857
0.211123
0.207185
0.203059
0.198747
0.194238
0.189511
0.184543
0.179313
0.173819
0.229085
0.228341
0.226692
0.224334
0.22148
0.218249
0.214723
0.21096
0.206994
0.202841
0.198501
0.193966
0.189213
0.18422
0.178967
0.173453
0.229477
0.228571
0.226819
0.224379
0.221457
0.218169
0.214596
0.210792
0.206788
0.202601
0.19823
0.193666
0.188887
0.183873
0.178604
0.173081
0.229974
0.228888
0.227006
0.22446
0.221452
0.218095
0.214464
0.210612
0.206565
0.202339
0.197934
0.193339
0.188535
0.183501
0.178221
0.172699
0.230459
0.22921
0.227199
0.224543
0.221445
0.218014
0.214322
0.210416
0.206326
0.20206
0.197619
0.192992
0.188163
0.183113
0.177829
0.172316
0.23086
0.229482
0.227357
0.224601
0.221418
0.217917
0.214167
0.210212
0.206076
0.20177
0.197293
0.192636
0.187784
0.182721
0.177437
0.171941
0.231127
0.229659
0.227445
0.224609
0.221358
0.217797
0.213996
0.209996
0.205819
0.201475
0.196964
0.192279
0.187407
0.182336
0.17706
0.17159
0.231228
0.229708
0.227442
0.224553
0.221253
0.21765
0.21381
0.209773
0.205561
0.201184
0.196644
0.191934
0.187047
0.181973
0.176711
0.171273
0.229581
0.228805
0.227097
0.224696
0.221818
0.218579
0.215062
0.211319
0.207385
0.203273
0.198982
0.194497
0.189792
0.184831
0.179578
0.174019
0.229771
0.228835
0.227073
0.224637
0.221728
0.218461
0.214916
0.211146
0.207185
0.203046
0.198729
0.194217
0.189485
0.184498
0.17922
0.173639
0.230273
0.229082
0.227192
0.224668
0.221691
0.218369
0.214777
0.210968
0.206969
0.202796
0.198446
0.193905
0.189146
0.184135
0.178839
0.173249
0.230896
0.229434
0.227384
0.224746
0.221679
0.218286
0.214636
0.210778
0.206736
0.202523
0.198137
0.193562
0.188775
0.183743
0.178435
0.172845
0.2315
0.229797
0.227588
0.224829
0.221667
0.218198
0.214487
0.210573
0.206486
0.202231
0.197806
0.193197
0.188381
0.18333
0.178016
0.172436
0.231998
0.230106
0.227757
0.224889
0.221638
0.218097
0.214325
0.21036
0.206225
0.201927
0.197463
0.192819
0.187976
0.182909
0.177594
0.172034
0.232332
0.230308
0.227855
0.224899
0.221575
0.217972
0.214147
0.210135
0.205957
0.201618
0.197116
0.19244
0.187572
0.182493
0.177186
0.171654
0.232464
0.23037
0.227854
0.224842
0.221468
0.21782
0.213954
0.209904
0.205687
0.201312
0.196776
0.192072
0.187185
0.1821
0.176806
0.171312
0.230546
0.229622
0.227773
0.22525
0.22228
0.218978
0.215423
0.211667
0.207738
0.20365
0.199397
0.19496
0.1903
0.185362
0.180081
0.174414
0.230809
0.229649
0.227731
0.225174
0.222177
0.218849
0.215269
0.211487
0.207532
0.203418
0.199139
0.194675
0.189988
0.185023
0.179713
0.174022
0.23145
0.229934
0.227855
0.225201
0.222131
0.218747
0.21512
0.211297
0.207305
0.203156
0.198844
0.194348
0.189632
0.184642
0.179312
0.173609
0.232239
0.23035
0.228067
0.225283
0.222116
0.218657
0.21497
0.211097
0.207058
0.202867
0.198515
0.193983
0.189234
0.184219
0.178874
0.173172
0.233
0.230783
0.228297
0.225377
0.222105
0.218565
0.214811
0.210879
0.206794
0.202556
0.198161
0.193588
0.188805
0.183765
0.178412
0.172721
0.23363
0.231154
0.228493
0.225447
0.222076
0.218458
0.214641
0.210653
0.206516
0.202229
0.197789
0.193174
0.188356
0.183294
0.177938
0.172271
0.234056
0.2314
0.228608
0.225463
0.222013
0.218328
0.214452
0.210415
0.206229
0.201896
0.19741
0.192755
0.187904
0.182823
0.177472
0.17184
0.234232
0.231481
0.228614
0.225407
0.221901
0.218168
0.214249
0.210169
0.20594
0.201565
0.197039
0.192347
0.187467
0.182372
0.177034
0.171448
0.23174
0.230666
0.228656
0.225989
0.222906
0.219525
0.215923
0.212149
0.208231
0.20418
0.199988
0.195629
0.191051
0.186172
0.180876
0.175065
0.232079
0.230693
0.228599
0.225898
0.22279
0.219385
0.215759
0.211961
0.208019
0.203942
0.199725
0.195341
0.190736
0.18583
0.180503
0.17467
0.232872
0.231031
0.228735
0.225925
0.222738
0.219275
0.215601
0.211761
0.20778
0.203667
0.199416
0.194998
0.190362
0.185429
0.180077
0.174231
0.233843
0.231528
0.228979
0.226018
0.222724
0.219179
0.215441
0.211548
0.207517
0.203359
0.199063
0.194604
0.18993
0.184966
0.179597
0.17375
0.234784
0.23205
0.229248
0.226128
0.222716
0.219082
0.215273
0.211316
0.207233
0.203023
0.198677
0.194169
0.189452
0.184456
0.179074
0.17324
0.235565
0.2325
0.229479
0.226214
0.222692
0.218971
0.215092
0.211074
0.206933
0.202667
0.198266
0.193705
0.188942
0.183912
0.178523
0.172719
0.236099
0.232804
0.22962
0.226241
0.222628
0.218835
0.21489
0.210817
0.206621
0.2023
0.197844
0.193229
0.188419
0.183357
0.177968
0.172206
0.236328
0.232911
0.229635
0.226185
0.222512
0.218665
0.214674
0.210552
0.206306
0.201934
0.197425
0.19276
0.187905
0.182816
0.177433
0.171726
0.233093
0.231877
0.2297
0.226876
0.223667
0.220197
0.216542
0.21275
0.20885
0.204853
0.20075
0.196514
0.192077
0.187322
0.18205
0.176063
0.233506
0.231909
0.229631
0.226771
0.223538
0.220046
0.216369
0.212555
0.208632
0.204611
0.200485
0.196225
0.191765
0.186984
0.181674
0.175663
0.234454
0.232307
0.229786
0.226802
0.223483
0.219929
0.216201
0.212344
0.208381
0.204323
0.200161
0.195866
0.191372
0.186561
0.18122
0.175189
0.235616
0.232896
0.230069
0.226912
0.223473
0.219829
0.216032
0.212117
0.208101
0.203992
0.199781
0.195438
0.1909
0.186051
0.180688
0.174656
0.236746
0.23352
0.230385
0.227044
0.223472
0.219729
0.215854
0.211869
0.207794
0.203626
0.199356
0.194953
0.190359
0.185467
0.180089
0.174079
0.23769
0.234062
0.23066
0.22715
0.223453
0.219614
0.215661
0.211608
0.207466
0.203233
0.198895
0.194425
0.189767
0.184825
0.179435
0.173469
0.23834
0.234431
0.230832
0.227189
0.223391
0.219469
0.215444
0.211329
0.207123
0.202823
0.198416
0.193872
0.189145
0.18415
0.178751
0.172843
0.238626
0.234568
0.230858
0.227135
0.223269
0.219287
0.21521
0.211039
0.206775
0.202412
0.197936
0.193321
0.188523
0.183474
0.178068
0.172228
0.23454
0.233194
0.230854
0.22787
0.224529
0.220964
0.217254
0.213448
0.209575
0.205651
0.201673
0.197615
0.193411
0.188906
0.183765
0.17751
0.235025
0.233233
0.230774
0.227752
0.224388
0.220803
0.217073
0.213246
0.209352
0.205407
0.201409
0.197334
0.193113
0.188586
0.183377
0.177001
0.236125
0.233696
0.230953
0.22779
0.224332
0.22068
0.216896
0.213025
0.209089
0.205105
0.201071
0.19696
0.192706
0.188146
0.182889
0.176453
0.237477
0.234384
0.231281
0.22792
0.224327
0.220577
0.216718
0.212783
0.20879
0.204751
0.20066
0.196495
0.192187
0.18758
0.182298
0.175878
0.238798
0.235115
0.231649
0.228077
0.224336
0.220474
0.216529
0.212518
0.208459
0.204351
0.200189
0.19595
0.191569
0.186903
0.181608
0.175258
0.239907
0.235755
0.231972
0.228206
0.224324
0.220355
0.216323
0.212235
0.208099
0.203914
0.19967
0.195341
0.19087
0.18613
0.180822
0.174577
0.240675
0.236195
0.232178
0.228259
0.224263
0.220202
0.216088
0.21193
0.20772
0.203454
0.19912
0.194691
0.190116
0.185287
0.179958
0.173834
0.241018
0.236364
0.232216
0.228205
0.224133
0.220006
0.215834
0.211611
0.207332
0.202987
0.198563
0.194031
0.189344
0.184411
0.179047
0.173043
0.236022
0.23456
0.232065
0.228924
0.225453
0.221793
0.218029
0.214213
0.210377
0.206543
0.202723
0.19891
0.195067
0.191072
0.186542
0.180381
0.236575
0.234608
0.231977
0.228796
0.225301
0.221623
0.21784
0.214005
0.21015
0.2063
0.202466
0.198646
0.194806
0.190821
0.186227
0.179708
0.23782
0.235137
0.232182
0.228842
0.225245
0.221494
0.217656
0.213775
0.209877
0.205987
0.202116
0.198262
0.194394
0.190384
0.185737
0.179094
0.239354
0.235923
0.232556
0.228995
0.225248
0.221389
0.217469
0.213517
0.209558
0.205607
0.201674
0.197757
0.193825
0.189755
0.185075
0.178493
0.24086
0.236763
0.232978
0.229179
0.225266
0.221285
0.217269
0.213235
0.2092
0.20517
0.201153
0.197144
0.193115
0.188955
0.184246
0.177826
0.24213
0.237501
0.233352
0.229331
0.225261
0.221161
0.217049
0.212927
0.208806
0.204685
0.200565
0.19644
0.192283
0.188
0.183242
0.177026
0.243013
0.238013
0.233592
0.229399
0.225201
0.220999
0.216795
0.212594
0.208386
0.204167
0.199933
0.195672
0.191358
0.186912
0.182067
0.176045
0.243413
0.238215
0.233643
0.229345
0.225064
0.220787
0.216518
0.212243
0.207952
0.203637
0.199285
0.194878
0.190382
0.185727
0.180718
0.174795
0.245579
0.239882
0.2349
0.230301
0.225784
0.221321
0.216904
0.212512
0.208129
0.203741
0.199331
0.194877
0.190347
0.185678
0.180697
0.174826
0.244861
0.239347
0.234497
0.229962
0.225471
0.221006
0.216564
0.212126
0.207675
0.203193
0.198659
0.194039
0.189284
0.1843
0.178894
0.172814
0.243628
0.238497
0.233916
0.229523
0.225107
0.220674
0.216231
0.211765
0.207263
0.202708
0.198077
0.193336
0.188436
0.183301
0.177815
0.171883
0.242009
0.237445
0.233238
0.229039
0.224731
0.220354
0.215927
0.211448
0.206911
0.202302
0.1976
0.192776
0.18779
0.182588
0.177103
0.171296
0.24019
0.236347
0.232568
0.228579
0.224391
0.220077
0.215673
0.211191
0.20663
0.201984
0.197234
0.192356
0.187322
0.182094
0.176639
0.170945
0.238412
0.235378
0.232012
0.228213
0.224132
0.219872
0.215488
0.211005
0.20643
0.201758
0.196977
0.192068
0.187008
0.181776
0.176355
0.170748
0.237024
0.234755
0.231695
0.22802
0.224
0.219768
0.215392
0.210905
0.206319
0.201632
0.196834
0.191908
0.186838
0.181608
0.17621
0.170656
0.236444
0.23469
0.231731
0.228058
0.224026
0.219781
0.215393
0.210897
0.206304
0.201611
0.196807
0.191877
0.186804
0.181573
0.17618
0.170636
0.247737
0.241612
0.236271
0.231414
0.226704
0.222098
0.217585
0.213138
0.208737
0.204365
0.200007
0.195644
0.191246
0.186739
0.18189
0.175859
0.246952
0.241025
0.235831
0.231046
0.226364
0.221757
0.217216
0.212715
0.208234
0.203751
0.199242
0.19467
0.18998
0.185056
0.179645
0.173388
0.245602
0.24009
0.235194
0.230567
0.225968
0.221397
0.216853
0.21232
0.207779
0.203209
0.198581
0.193857
0.188979
0.183853
0.178328
0.172275
0.243831
0.238934
0.234452
0.230039
0.22556
0.221049
0.216522
0.211973
0.20739
0.202755
0.198041
0.193214
0.188223
0.183005
0.17747
0.171561
0.241845
0.237729
0.233719
0.229538
0.22519
0.220749
0.216246
0.211692
0.207081
0.2024
0.197627
0.192733
0.18768
0.182423
0.176915
0.171135
0.239909
0.236669
0.233113
0.229141
0.224909
0.220527
0.216046
0.211489
0.20686
0.202149
0.197338
0.192404
0.187318
0.182051
0.176578
0.170898
0.238402
0.235987
0.232769
0.228931
0.224767
0.220415
0.215942
0.211381
0.206738
0.202009
0.197178
0.192223
0.187123
0.181854
0.176406
0.170787
0.237769
0.235913
0.232806
0.228973
0.224796
0.220428
0.215943
0.211372
0.206722
0.201985
0.197148
0.192188
0.187084
0.181815
0.176372
0.170765
0.24969
0.243198
0.237542
0.232454
0.227569
0.222834
0.218233
0.213735
0.209316
0.204957
0.200643
0.196351
0.192048
0.187637
0.182821
0.176578
0.248846
0.242564
0.237067
0.232058
0.227204
0.222468
0.217835
0.213277
0.208768
0.204283
0.199793
0.19526
0.190615
0.185723
0.180279
0.173856
0.247392
0.241552
0.23638
0.231542
0.226778
0.22208
0.217444
0.212849
0.208271
0.203686
0.199059
0.194348
0.189483
0.184356
0.178783
0.172614
0.245485
0.240301
0.235578
0.230974
0.226339
0.221706
0.217087
0.212473
0.207847
0.203187
0.198461
0.193628
0.188632
0.183392
0.177807
0.171803
0.243349
0.239
0.234788
0.230435
0.225941
0.221382
0.21679
0.212169
0.20751
0.202797
0.198003
0.193092
0.18802
0.182733
0.177174
0.171315
0.241274
0.237857
0.234135
0.230008
0.225639
0.221144
0.216574
0.21195
0.20727
0.202522
0.197684
0.192726
0.187614
0.182312
0.17679
0.171043
0.239662
0.237123
0.233765
0.229783
0.225487
0.221024
0.216463
0.211832
0.207138
0.202369
0.197506
0.192525
0.187395
0.182091
0.176595
0.170915
0.238983
0.23704
0.233804
0.229828
0.225518
0.221039
0.216464
0.211823
0.20712
0.202343
0.197473
0.192485
0.187351
0.182046
0.176556
0.17089
0.251392
0.244594
0.23867
0.233382
0.228346
0.223498
0.218819
0.214276
0.209839
0.20549
0.201207
0.196968
0.192725
0.188364
0.183537
0.177092
0.250496
0.243918
0.238164
0.232962
0.227958
0.223108
0.218395
0.213786
0.209251
0.204761
0.200286
0.195779
0.191163
0.186281
0.180792
0.17422
0.248951
0.242838
0.237431
0.232413
0.227505
0.222695
0.217978
0.213328
0.208717
0.204117
0.19949
0.194785
0.189926
0.184788
0.179166
0.172892
0.246927
0.241505
0.236577
0.231808
0.227037
0.222297
0.217597
0.212926
0.208262
0.203578
0.19884
0.194001
0.188994
0.183733
0.178099
0.172011
0.244664
0.24012
0.235736
0.231235
0.226615
0.221953
0.217281
0.2126
0.2079
0.203158
0.198343
0.193417
0.188326
0.183011
0.177405
0.171475
0.24247
0.238906
0.235043
0.230782
0.226294
0.2217
0.217052
0.212367
0.207642
0.202861
0.197997
0.193017
0.187882
0.182549
0.176982
0.171175
0.240769
0.238126
0.23465
0.230543
0.226132
0.221572
0.216933
0.212241
0.2075
0.202696
0.197805
0.192798
0.187642
0.182305
0.176767
0.171033
0.240051
0.238036
0.23469
0.23059
0.226165
0.221588
0.216934
0.212231
0.20748
0.202667
0.197769
0.192755
0.187594
0.182256
0.176724
0.171004
0.252802
0.245758
0.239617
0.234166
0.229004
0.224062
0.219319
0.214737
0.210285
0.20594
0.201679
0.197474
0.193268
0.188929
0.184069
0.177457
0.251862
0.245047
0.239085
0.233724
0.228597
0.223652
0.218872
0.21422
0.209662
0.205167
0.2007
0.19621
0.191608
0.186724
0.181187
0.174492
0.250243
0.243912
0.238314
0.233147
0.228121
0.223218
0.218433
0.213737
0.209098
0.204484
0.199853
0.195151
0.190291
0.185138
0.179471
0.173111
0.248123
0.242511
0.237416
0.232512
0.227629
0.222799
0.218032
0.213313
0.208616
0.203912
0.199162
0.194315
0.189298
0.184015
0.178337
0.17218
0.245756
0.241056
0.236533
0.231911
0.227186
0.222438
0.217699
0.212969
0.208233
0.203466
0.198634
0.193692
0.188584
0.183243
0.177597
0.171609
0.243465
0.239783
0.235806
0.231435
0.226848
0.222172
0.217458
0.212722
0.20796
0.20315
0.198265
0.193266
0.188109
0.182749
0.177144
0.171287
0.241692
0.238966
0.235394
0.231184
0.226679
0.222038
0.217333
0.21259
0.20781
0.202975
0.198061
0.193032
0.187853
0.182488
0.176914
0.171134
0.240942
0.23887
0.235434
0.231232
0.226713
0.222054
0.217334
0.212579
0.207789
0.202945
0.198022
0.192986
0.187801
0.182435
0.176867
0.171103
0.253887
0.24666
0.240354
0.234778
0.22952
0.224505
0.219712
0.215099
0.210634
0.20629
0.202044
0.197859
0.193674
0.189341
0.184448
0.177708
0.252914
0.245922
0.239802
0.23432
0.229097
0.22408
0.219247
0.214561
0.209985
0.205485
0.201022
0.19654
0.191945
0.187053
0.181475
0.174687
0.251238
0.244743
0.239001
0.233721
0.228603
0.223629
0.218791
0.214059
0.209397
0.204771
0.200137
0.195434
0.190571
0.185403
0.179698
0.173271
0.249045
0.24329
0.23807
0.233062
0.228093
0.223194
0.218375
0.213617
0.208894
0.204174
0.199415
0.194559
0.189532
0.18423
0.178518
0.172308
0.246599
0.241782
0.237154
0.232439
0.227633
0.222819
0.218028
0.213259
0.208495
0.203708
0.198862
0.193907
0.188785
0.183423
0.177745
0.171713
0.244234
0.240464
0.236401
0.231945
0.227283
0.222543
0.217778
0.213003
0.20821
0.203379
0.198476
0.193461
0.188288
0.182905
0.177271
0.171375
0.242406
0.239619
0.235973
0.231685
0.227107
0.222403
0.217647
0.212865
0.208054
0.203196
0.198262
0.193216
0.188019
0.182632
0.177029
0.171213
0.241632
0.239516
0.236014
0.231734
0.227142
0.22242
0.217648
0.212853
0.208031
0.203164
0.198221
0.193168
0.187965
0.182576
0.17698
0.171181
0.254624
0.247278
0.240861
0.235201
0.229877
0.224813
0.219985
0.21535
0.210875
0.206532
0.202292
0.198119
0.193945
0.189611
0.184694
0.177869
0.253629
0.246521
0.240295
0.234731
0.229444
0.224377
0.219508
0.214798
0.210209
0.205704
0.201242
0.196765
0.192171
0.187271
0.181664
0.174812
0.251914
0.245313
0.239474
0.234117
0.228937
0.223914
0.21904
0.214282
0.209605
0.20497
0.200332
0.195628
0.19076
0.18558
0.179848
0.173377
0.249672
0.243824
0.238519
0.233442
0.228414
0.223468
0.218613
0.213829
0.209088
0.204356
0.199589
0.194728
0.189693
0.184377
0.178641
0.172394
0.247173
0.242279
0.237581
0.232803
0.227942
0.223083
0.218257
0.213461
0.208677
0.203876
0.19902
0.194056
0.188923
0.183547
0.177846
0.171783
0.244759
0.24093
0.23681
0.232298
0.227584
0.2228
0.217999
0.213197
0.208384
0.203537
0.198622
0.193597
0.188411
0.183013
0.177358
0.171436
0.242894
0.240066
0.236372
0.232031
0.227403
0.222657
0.217866
0.213055
0.208223
0.203349
0.198402
0.193344
0.188134
0.182731
0.177109
0.171269
0.242102
0.239958
0.236411
0.23208
0.227437
0.222673
0.217866
0.213043
0.2082
0.203315
0.198359
0.193293
0.188077
0.182673
0.177057
0.171235
0.254985
0.247584
0.241107
0.235404
0.230049
0.224962
0.220117
0.215472
0.210993
0.206649
0.202413
0.198245
0.194075
0.189743
0.18482
0.177944
0.253979
0.246818
0.240534
0.234928
0.229611
0.22452
0.219634
0.214913
0.210318
0.205811
0.201349
0.196874
0.192281
0.187377
0.181755
0.174858
0.252246
0.245595
0.239703
0.234308
0.229098
0.224052
0.21916
0.21439
0.209705
0.205067
0.200427
0.195721
0.190852
0.185665
0.179919
0.173419
0.24998
0.244087
0.238736
0.233624
0.228569
0.2236
0.218727
0.213931
0.209182
0.204444
0.199673
0.194809
0.18977
0.184447
0.178699
0.172432
0.247455
0.242523
0.237787
0.232979
0.228092
0.223211
0.218368
0.213559
0.208766
0.203958
0.199096
0.194128
0.18899
0.183606
0.177895
0.171816
0.245018
0.241157
0.237008
0.232468
0.227729
0.222924
0.218107
0.213292
0.208469
0.203614
0.198693
0.193662
0.188471
0.183065
0.1774
0.171464
0.24314
0.240283
0.236568
0.2322
0.227547
0.22278
0.217972
0.213149
0.208306
0.203424
0.19847
0.193407
0.18819
0.18278
0.177147
0.171295
0.242336
0.240169
0.236605
0.232249
0.227582
0.222796
0.217972
0.213136
0.208282
0.20339
0.198427
0.193355
0.188132
0.18272
0.177095
0.171261
0.23071
0.229559
0.227362
0.224466
0.221139
0.217503
0.213629
0.209559
0.205314
0.200906
0.196338
0.191609
0.186712
0.181646
0.176411
0.171026
0.230472
0.22934
0.227161
0.224276
0.220952
0.217312
0.213426
0.209339
0.205075
0.200647
0.196062
0.191319
0.186418
0.181357
0.176144
0.170796
0.230096
0.229011
0.226881
0.224036
0.220738
0.217109
0.213225
0.209131
0.204855
0.200414
0.195816
0.191064
0.186161
0.181109
0.175919
0.170608
0.229618
0.228608
0.226553
0.22377
0.220514
0.21691
0.213035
0.208942
0.204661
0.200212
0.195605
0.190848
0.185946
0.180904
0.175734
0.170457
0.229093
0.22818
0.226215
0.223506
0.220301
0.216727
0.212869
0.208781
0.204499
0.200045
0.195434
0.190674
0.185773
0.180741
0.17559
0.17034
0.228591
0.227783
0.22591
0.223273
0.220118
0.216575
0.212733
0.208653
0.204373
0.199917
0.195304
0.190543
0.185645
0.180621
0.175484
0.170255
0.22821
0.227485
0.225682
0.223102
0.219984
0.216465
0.212638
0.208565
0.204287
0.199833
0.195219
0.190458
0.185563
0.180543
0.175415
0.1702
0.228055
0.227354
0.22558
0.223023
0.219922
0.216414
0.212593
0.208524
0.204249
0.199796
0.195183
0.190423
0.185528
0.18051
0.175385
0.170174
0.231147
0.22962
0.227337
0.224428
0.221106
0.217479
0.213612
0.209547
0.205308
0.200904
0.19634
0.191611
0.186714
0.181642
0.176399
0.170999
0.23089
0.229397
0.227136
0.224239
0.22092
0.217287
0.213408
0.209327
0.205068
0.200644
0.196061
0.191319
0.186415
0.181351
0.17613
0.170771
0.23048
0.229063
0.226858
0.224003
0.220708
0.217086
0.213207
0.209118
0.204847
0.200409
0.195813
0.191061
0.186157
0.181101
0.175904
0.170584
0.229956
0.228655
0.226535
0.223742
0.220488
0.216889
0.213019
0.20893
0.204653
0.200206
0.195601
0.190844
0.18594
0.180895
0.17572
0.170435
0.229375
0.228226
0.226207
0.223486
0.220281
0.216711
0.212856
0.208771
0.204492
0.20004
0.19543
0.19067
0.185768
0.180732
0.175577
0.170321
0.228814