/*--------------------------------*- C++ -*----------------------------------*\
| =========                 |                                                 |
| \\      /  F ield         | foam-extend: Open Source CFD                    |
|  \\    /   O peration     | Version:     3.1                                |
|   \\  /    A nd           | Web:         http://www.extend-project.de       |
|    \\/     M anipulation  |                                                 |
\*---------------------------------------------------------------------------*/
FoamFile
{
    version     2.0;
    format      ascii;
    class       surfaceScalarField;
    location    "0.7";
    object      phi;
}
// * * * * * * * * * * * * * * * * * * * * * * * * * * * * * * * * * * * * * //

dimensions      [0 3 -1 0 0 0 0];

internalField   nonuniform List<scalar> 
41600
(
1.39745e-05
-5.03171e-06
-6.62799e-06
7.06169e-06
1.86339e-05
-5.18867e-06
-9.39131e-06
9.92056e-06
2.17794e-05
-3.5857e-06
-9.23393e-06
9.67414e-06
2.36536e-05
-2.20434e-06
-8.31931e-06
8.64942e-06
2.46834e-05
-1.26826e-06
-7.3401e-06
7.57862e-06
2.51896e-05
-6.7653e-07
-6.52543e-06
6.69571e-06
2.5368e-05
-3.00579e-07
-5.95545e-06
6.07767e-06
2.5326e-05
-4.84132e-08
-5.66744e-06
5.75786e-06
2.51077e-05
1.45832e-07
-5.69382e-06
5.76621e-06
2.47278e-05
3.11263e-07
-6.08609e-06
6.15481e-06
2.41687e-05
4.71969e-07
-6.93011e-06
7.01725e-06
2.33692e-05
6.44326e-07
-8.37243e-06
8.5276e-06
2.21644e-05
8.41189e-07
-1.06566e-05
1.10201e-05
2.00362e-05
1.10149e-06
-1.41255e-05
1.51523e-05
1.50423e-05
1.58736e-06
-1.87468e-05
2.21533e-05
1.60286e-06
-1.93365e-05
3.16456e-05
2.91347e-05
-8.57389e-06
-8.89108e-06
9.6132e-06
3.34375e-05
-1.04358e-05
-1.46186e-05
1.55629e-05
3.69408e-05
-7.88924e-06
-1.50477e-05
1.5848e-05
3.92735e-05
-5.14267e-06
-1.37453e-05
1.4351e-05
4.06367e-05
-3.07328e-06
-1.21324e-05
1.25742e-05
4.13169e-05
-1.67635e-06
-1.07184e-05
1.1038e-05
4.15333e-05
-7.50586e-07
-9.67875e-06
9.91231e-06
4.14242e-05
-1.15548e-07
-9.08366e-06
9.25997e-06
4.10361e-05
3.90955e-07
-8.98066e-06
9.12356e-06
4.03806e-05
8.3337e-07
-9.44417e-06
9.57764e-06
3.94101e-05
1.2832e-06
-1.0595e-05
1.07542e-05
3.79924e-05
1.80021e-06
-1.26386e-05
1.29004e-05
3.57991e-05
2.45441e-06
-1.59092e-05
1.64894e-05
3.1934e-05
3.36917e-06
-2.08317e-05
2.24291e-05
2.36189e-05
4.72944e-06
-2.70726e-05
3.22455e-05
4.89092e-06
-2.60487e-05
4.30341e-05
4.09144e-05
-9.51853e-06
-8.98836e-06
9.8517e-06
4.23816e-05
-1.30665e-05
-1.60647e-05
1.72282e-05
4.40425e-05
-1.05284e-05
-1.69647e-05
1.7943e-05
4.52996e-05
-7.12934e-06
-1.5568e-05
1.62975e-05
4.60533e-05
-4.3523e-06
-1.36861e-05
1.42114e-05
4.63795e-05
-2.37927e-06
-1.20047e-05
1.23814e-05
4.63749e-05
-1.02004e-06
-1.07513e-05
1.10254e-05
4.61163e-05
-6.45565e-08
-1.00022e-05
1.02098e-05
4.56021e-05
7.37923e-07
-9.80342e-06
9.9706e-06
4.48261e-05
1.45396e-06
-1.02228e-05
1.03782e-05
4.37149e-05
2.21028e-06
-1.13792e-05
1.15633e-05
4.21102e-05
3.10548e-06
-1.34767e-05
1.37762e-05
3.96514e-05
4.25789e-06
-1.68427e-05
1.74979e-05
3.54091e-05
5.83766e-06
-2.18662e-05
2.364e-05
2.6598e-05
7.95182e-06
-2.80785e-05
3.36672e-05
7.83652e-06
-2.64167e-05
4.40532e-05
5.1228e-05
-8.78238e-06
-8.94465e-06
9.91225e-06
4.99254e-05
-1.30964e-05
-1.68211e-05
1.81538e-05
4.93274e-05
-1.10378e-05
-1.80092e-05
1.91166e-05
4.90454e-05
-7.65624e-06
-1.64982e-05
1.73071e-05
4.88297e-05
-4.70738e-06
-1.43839e-05
1.49547e-05
4.85692e-05
-2.52133e-06
-1.24891e-05
1.28917e-05
4.82211e-05
-9.60762e-07
-1.10731e-05
1.1362e-05
4.77467e-05
1.95601e-07
-1.02025e-05
1.04167e-05
4.71261e-05
1.18574e-06
-9.91246e-06
1.00852e-05
4.62996e-05
2.12059e-06
-1.02506e-05
1.04105e-05
4.5178e-05
3.14335e-06
-1.13204e-05
1.1509e-05
4.35971e-05
4.38108e-06
-1.33077e-05
1.36129e-05
4.12108e-05
5.98168e-06
-1.65113e-05
1.71739e-05
3.71517e-05
8.12689e-06
-2.12742e-05
2.3044e-05
2.88254e-05
1.08055e-05
-2.70898e-05
3.25625e-05
1.03773e-05
-2.53494e-05
4.23245e-05
5.98907e-05
-7.11686e-06
-8.99437e-06
1.00489e-05
5.64806e-05
-1.11668e-05
-1.74876e-05
1.89681e-05
5.39004e-05
-9.67751e-06
-1.88737e-05
2.00936e-05
5.21464e-05
-6.7772e-06
-1.72215e-05
1.80964e-05
5.09498e-05
-4.11608e-06
-1.48693e-05
1.54746e-05
5.0077e-05
-2.06826e-06
-1.27616e-05
1.31813e-05
4.93698e-05
-5.50574e-07
-1.11836e-05
1.14806e-05
4.86987e-05
6.48212e-07
-1.01893e-05
1.04079e-05
4.79992e-05
1.71204e-06
-9.78821e-06
9.96139e-06
4.71795e-05
2.78238e-06
-1.00097e-05
1.01676e-05
4.61372e-05
4.00254e-06
-1.09351e-05
1.11182e-05
4.47091e-05
5.51716e-06
-1.27237e-05
1.30157e-05
4.25668e-05
7.49644e-06
-1.56408e-05
1.62682e-05
3.88968e-05
1.01321e-05
-1.99886e-05
2.16534e-05
3.12592e-05
1.33214e-05
-2.52645e-05
3.03861e-05
1.27228e-05
-2.36315e-05
3.95424e-05
6.65758e-05
-4.94674e-06
-9.09861e-06
1.02226e-05
6.17168e-05
-7.9107e-06
-1.80792e-05
1.96822e-05
5.76352e-05
-6.91065e-06
-1.96056e-05
2.09204e-05
5.47031e-05
-4.77545e-06
-1.78143e-05
1.87446e-05
5.26963e-05
-2.74287e-06
-1.52416e-05
1.58751e-05
5.13127e-05
-1.11761e-06
-1.29344e-05
1.33674e-05
5.03153e-05
1.44036e-07
-1.11979e-05
1.15007e-05
4.95064e-05
1.23735e-06
-1.00741e-05
1.02938e-05
4.87826e-05
2.26448e-06
-9.54735e-06
9.71872e-06
4.80348e-05
3.37737e-06
-9.62334e-06
9.77613e-06
4.71557e-05
4.7098e-06
-1.03568e-05
1.05287e-05
4.59902e-05
6.41652e-06
-1.18753e-05
1.21415e-05
4.42284e-05
8.69572e-06
-1.44049e-05
1.49673e-05
4.1085e-05
1.17859e-05
-1.82113e-05
1.97009e-05
3.41756e-05
1.5608e-05
-2.28337e-05
2.74566e-05
1.53282e-05
-2.1418e-05
3.60696e-05
7.10921e-05
-2.50303e-06
-9.20935e-06
1.0383e-05
6.53298e-05
-3.83984e-06
-1.85311e-05
2.02225e-05
6.02628e-05
-3.22705e-06
-2.0138e-05
2.15215e-05
5.65387e-05
-2.02141e-06
-1.82261e-05
1.91962e-05
5.39851e-05
-8.42603e-07
-1.54747e-05
1.61281e-05
5.2279e-05
1.46708e-07
-1.30042e-05
1.34459e-05
5.1085e-05
1.0331e-06
-1.11309e-05
1.14359e-05
5.02317e-05
1.87147e-06
-9.88333e-06
1.01025e-05
4.95563e-05
2.77151e-06
-9.22458e-06
9.39288e-06
4.89513e-05
3.83646e-06
-9.13499e-06
9.28097e-06
4.83193e-05
5.18455e-06
-9.63913e-06
9.79631e-06
4.75317e-05
6.97251e-06
-1.08239e-05
1.10556e-05
4.63184e-05
9.4347e-06
-1.28616e-05
1.33359e-05
4.39307e-05
1.29241e-05
-1.59686e-05
1.72181e-05
3.7904e-05
1.76746e-05
-1.9765e-05
2.37251e-05
1.90965e-05
-1.8643e-05
3.1868e-05
7.33446e-05
-9.29621e-06
1.04979e-05
7.99443e-08
6.71384e-05
-1.87922e-05
2.05313e-05
6.2729e-07
6.15975e-05
-2.04118e-05
2.18307e-05
8.9499e-07
5.75064e-05
-1.84055e-05
1.93949e-05
1.08027e-06
5.47191e-05
-1.55335e-05
1.61955e-05
1.28266e-06
5.28666e-05
-1.295e-05
1.33943e-05
1.55485e-06
5.16545e-05
-1.09777e-05
1.12828e-05
1.9401e-06
5.08464e-05
-9.62648e-06
9.84388e-06
2.46211e-06
5.02913e-05
-8.84095e-06
9.00539e-06
3.16217e-06
4.98913e-05
-8.57854e-06
8.71693e-06
4.0981e-06
4.9579e-05
-8.83107e-06
8.97196e-06
5.35599e-06
4.92861e-05
-9.63453e-06
9.8268e-06
7.07309e-06
4.88614e-05
-1.10789e-05
1.14459e-05
9.49245e-06
4.77613e-05
-1.32719e-05
1.42018e-05
1.30943e-05
4.35468e-05
-1.58715e-05
1.88389e-05
1.89217e-05
-1.50584e-05
2.59966e-05
2.67993e-05
1.47869e-05
-5.3711e-06
-6.01007e-06
1.95671e-05
-5.59742e-06
-8.57411e-06
2.27122e-05
-3.89185e-06
-8.48721e-06
2.4487e-05
-2.39924e-06
-7.69486e-06
2.53557e-05
-1.38078e-06
-6.82803e-06
2.56662e-05
-7.35189e-07
-6.10077e-06
2.56258e-05
-3.24335e-07
-5.59067e-06
2.53401e-05
-4.74113e-08
-5.33429e-06
2.48376e-05
1.69535e-07
-5.36086e-06
2.41042e-05
3.59111e-07
-5.71186e-06
2.30721e-05
5.5085e-07
-6.4488e-06
2.15938e-05
7.68164e-07
-7.66233e-06
1.93712e-05
1.03589e-06
-9.46986e-06
1.57732e-05
1.41609e-06
-1.19437e-05
9.5786e-06
1.99767e-06
-1.45499e-05
2.02195e-06
-1.30281e-05
3.09526e-05
-9.09387e-06
-7.9619e-06
3.52217e-05
-1.12275e-05
-1.32576e-05
3.86032e-05
-8.5528e-06
-1.37683e-05
4.07234e-05
-5.5974e-06
-1.26674e-05
4.18084e-05
-3.34911e-06
-1.12491e-05
4.21685e-05
-1.82388e-06
-9.98971e-06
4.20338e-05
-8.09451e-07
-9.059e-06
4.15397e-05
-1.10388e-07
-8.52655e-06
4.07066e-05
4.58201e-07
-8.4362e-06
3.95044e-05
9.65798e-07
-8.8487e-06
3.78103e-05
1.50014e-06
-9.85016e-06
3.53681e-05
2.13746e-06
-1.15657e-05
3.16739e-05
2.96873e-06
-1.41479e-05
2.57688e-05
4.12956e-06
-1.764e-05
1.60688e-05
5.66335e-06
-2.10382e-05
5.86948e-06
-1.74631e-05
4.36175e-05
-1.0048e-05
-7.95679e-06
4.48263e-05
-1.40232e-05
-1.44778e-05
4.61752e-05
-1.1401e-05
-1.54654e-05
4.70817e-05
-7.75814e-06
-1.43138e-05
4.74604e-05
-4.74514e-06
-1.26687e-05
4.73962e-05
-2.59044e-06
-1.11739e-05
4.69858e-05
-1.09886e-06
-1.00515e-05
4.62942e-05
-4.19442e-08
-9.379e-06
4.52912e-05
8.58954e-07
-9.20118e-06
4.39227e-05
1.68279e-06
-9.57125e-06
4.20352e-05
2.58031e-06
-1.05718e-05
3.93422e-05
3.67576e-06
-1.23221e-05
3.53105e-05
5.11729e-06
-1.49595e-05
2.8974e-05
7.08124e-06
-1.84814e-05
1.88274e-05
9.48575e-06
-2.17543e-05
9.57444e-06
-1.76189e-05
5.47367e-05
-9.24287e-06
-7.84482e-06
5.29996e-05
-1.40295e-05
-1.50777e-05
5.18988e-05
-1.19429e-05
-1.63665e-05
5.11155e-05
-8.33106e-06
-1.51419e-05
5.04217e-05
-5.13492e-06
-1.33003e-05
4.97056e-05
-2.74698e-06
-1.16166e-05
4.89133e-05
-1.03238e-06
-1.03473e-05
4.7981e-05
2.52084e-07
-9.56422e-06
4.68625e-05
1.36635e-06
-9.30137e-06
4.54439e-05
2.4462e-06
-9.5953e-06
4.35569e-05
3.66153e-06
-1.05146e-05
4.09133e-05
5.17386e-06
-1.21623e-05
3.70013e-05
7.17054e-06
-1.46526e-05
3.09197e-05
9.84118e-06
-1.79525e-05
2.13014e-05
1.29505e-05
-2.09363e-05
1.27797e-05
-1.68387e-05
6.40764e-05
-7.48037e-06
-7.83422e-06
6.01177e-05
-1.19508e-05
-1.56077e-05
5.68784e-05
-1.0469e-05
-1.71082e-05
5.44866e-05
-7.37816e-06
-1.57827e-05
5.27148e-05
-4.49494e-06
-1.37374e-05
5.1326e-05
-2.25614e-06
-1.18637e-05
5.01416e-05
-5.84706e-07
-1.04469e-05
4.90032e-05
7.50673e-07
-9.54961e-06
4.78104e-05
1.95517e-06
-9.18417e-06
4.64206e-05
3.19713e-06
-9.37094e-06
4.46551e-05
4.65152e-06
-1.01596e-05
4.22329e-05
6.50508e-06
-1.16327e-05
3.86662e-05
8.97945e-06
-1.3883e-05
3.30937e-05
1.22857e-05
-1.68605e-05
2.41998e-05
1.60777e-05
-1.94978e-05
1.57845e-05
-1.56496e-05
7.12799e-05
-5.2045e-06
-7.88735e-06
6.58036e-05
-8.46934e-06
-1.60844e-05
6.09489e-05
-7.48342e-06
-1.77364e-05
5.72721e-05
-5.20894e-06
-1.63068e-05
5.46122e-05
-3.00517e-06
-1.40714e-05
5.26658e-05
-1.2255e-06
-1.20187e-05
5.11684e-05
1.71572e-07
-1.04567e-05
4.98912e-05
1.39369e-06
-9.43998e-06
4.86922e-05
2.56552e-06
-8.95864e-06
4.74137e-05
3.86486e-06
-9.01262e-06
4.58785e-05
5.46016e-06
-9.63029e-06
4.38237e-05
7.55598e-06
-1.08714e-05
4.07863e-05
1.04187e-05
-1.28067e-05
3.59041e-05
1.43364e-05
-1.53798e-05
2.77537e-05
1.90114e-05
-1.7617e-05
1.91871e-05
-1.41233e-05
7.61439e-05
-2.6522e-06
-7.95988e-06
6.97245e-05
-4.12881e-06
-1.64523e-05
6.3811e-05
-3.51422e-06
-1.81937e-05
5.92711e-05
-2.22532e-06
-1.66699e-05
5.60128e-05
-9.42552e-07
-1.4279e-05
5.3716e-05
1.45827e-07
-1.20788e-05
5.20138e-05
1.13435e-06
-1.03915e-05
5.07023e-05
2.08184e-06
-9.26002e-06
4.95816e-05
3.11852e-06
-8.65688e-06
4.85008e-05
4.37129e-06
-8.56055e-06
4.73037e-05
5.99358e-06
-8.97552e-06
4.57713e-05
8.1981e-06
-9.93362e-06
4.34972e-05
1.13078e-05
-1.14766e-05
3.96262e-05
1.57812e-05
-1.35424e-05
3.2408e-05
2.17593e-05
-1.52947e-05
2.42103e-05
-1.22438e-05
7.8569e-05
-8.02401e-06
4.15493e-08
7.16845e-05
-1.66672e-05
6.30687e-07
6.52612e-05
-1.84286e-05
9.25941e-07
6.03218e-05
-1.68265e-05
1.135e-06
5.681e-05
-1.43286e-05
1.36441e-06
5.43575e-05
-1.20255e-05
1.67385e-06
5.26453e-05
-1.02461e-05
2.11499e-06
5.14009e-05
-9.01824e-06
2.71793e-06
5.04404e-05
-8.29831e-06
3.53636e-06
4.96316e-05
-8.04558e-06
4.64716e-06
4.88656e-05
-8.23942e-06
6.16796e-06
4.80154e-05
-8.87719e-06
8.29098e-06
4.68416e-05
-9.95557e-06
1.13583e-05
4.47153e-05
-1.13807e-05
1.60162e-05
3.96207e-05
-1.24754e-05
2.34578e-05
-1.00328e-05
3.38623e-05
1.54849e-05
-5.66025e-06
-5.23779e-06
2.03784e-05
-5.95475e-06
-7.51279e-06
2.35327e-05
-4.16474e-06
-7.47679e-06
2.52267e-05
-2.57554e-06
-6.81331e-06
2.5956e-05
-1.48376e-06
-6.07355e-06
2.60926e-05
-7.89459e-07
-5.44795e-06
2.58554e-05
-3.46584e-07
-5.00687e-06
2.53505e-05
-4.65311e-08
-4.78292e-06
2.45969e-05
1.92075e-07
-4.79926e-06
2.35646e-05
4.05194e-07
-5.08474e-06
2.21639e-05
6.27695e-07
-5.67586e-06
2.02279e-05
8.89758e-07
-6.61603e-06
1.74701e-05
1.22655e-06
-7.93868e-06
1.34094e-05
1.707e-06
-9.58988e-06
7.50586e-06
2.35097e-06
-1.09973e-05
2.31618e-06
-9.16228e-06
3.25173e-05
-9.53279e-06
-6.86685e-06
3.67722e-05
-1.19157e-05
-1.15515e-05
4.00628e-05
-9.14072e-06
-1.20829e-05
4.20075e-05
-6.00586e-06
-1.11818e-05
4.28526e-05
-3.59931e-06
-9.97857e-06
4.29296e-05
-1.95845e-06
-8.8977e-06
4.24803e-05
-8.62798e-07
-8.09351e-06
4.1641e-05
-1.04512e-07
-7.62922e-06
4.04144e-05
5.22933e-07
-7.54046e-06
3.87488e-05
1.09224e-06
-7.87017e-06
3.64892e-05
1.70592e-06
-8.66883e-06
3.33543e-05
2.45278e-06
-9.99377e-06
2.88748e-05
3.43662e-06
-1.18784e-05
2.23494e-05
4.78698e-06
-1.41947e-05
1.31725e-05
6.42779e-06
-1.59381e-05
6.50035e-06
-1.22833e-05
4.59474e-05
-1.04917e-05
-6.79715e-06
4.69532e-05
-1.4851e-05
-1.25485e-05
4.80486e-05
-1.21712e-05
-1.35302e-05
4.86601e-05
-8.32086e-06
-1.26103e-05
4.87142e-05
-5.0999e-06
-1.12222e-05
4.83051e-05
-2.78176e-06
-9.94147e-06
4.75319e-05
-1.16927e-06
-8.97191e-06
4.64517e-05
-1.82083e-08
-8.38504e-06
4.50175e-05
9.75028e-07
-8.21908e-06
4.31477e-05
1.89971e-06
-8.50894e-06
4.06558e-05
2.92658e-06
-9.30053e-06
3.72321e-05
4.19778e-06
-1.06434e-05
3.23868e-05
5.87582e-06
-1.25534e-05
2.54332e-05
8.11993e-06
-1.48608e-05
1.58761e-05
1.06891e-05
-1.64585e-05
1.05752e-05
-1.23509e-05
5.77625e-05
-9.62739e-06
-6.65012e-06
5.56772e-05
-1.4834e-05
-1.30093e-05
5.41602e-05
-1.27396e-05
-1.42811e-05
5.29506e-05
-8.93342e-06
-1.33198e-05
5.18412e-05
-5.51977e-06
-1.1771e-05
5.07223e-05
-2.95017e-06
-1.03293e-05
4.95326e-05
-1.09457e-06
-9.23238e-06
4.81905e-05
3.08824e-07
-8.54915e-06
4.66328e-05
1.53903e-06
-8.30768e-06
4.47138e-05
2.75327e-06
-8.52984e-06
4.22327e-05
4.14281e-06
-9.24976e-06
3.88794e-05
5.89232e-06
-1.05035e-05
3.41859e-05
8.20696e-06
-1.22902e-05
2.75205e-05
1.12546e-05
-1.44217e-05
1.84751e-05
1.46103e-05
-1.5812e-05
1.41817e-05
-1.17569e-05
6.76858e-05
-7.78379e-06
-6.60331e-06
6.32875e-05
-1.26254e-05
-1.3418e-05
5.94999e-05
-1.11642e-05
-1.4896e-05
5.65634e-05
-7.91335e-06
-1.38662e-05
5.42903e-05
-4.83481e-06
-1.21492e-05
5.24447e-05
-2.42386e-06
-1.05445e-05
5.08336e-05
-6.11457e-07
-9.31879e-06
4.92768e-05
8.51017e-07
-8.53504e-06
4.76487e-05
2.18651e-06
-8.20358e-06
4.57771e-05
3.58675e-06
-8.33281e-06
4.34506e-05
5.25149e-06
-8.94173e-06
4.03667e-05
7.39555e-06
-1.0052e-05
3.60759e-05
1.02646e-05
-1.16499e-05
2.99621e-05
1.40517e-05
-1.35438e-05
2.15842e-05
1.82015e-05
-1.47111e-05
1.76203e-05
-1.08877e-05
7.53355e-05
-5.42034e-06
-6.62189e-06
6.93658e-05
-8.94915e-06
-1.37908e-05
6.38676e-05
-7.98543e-06
-1.54171e-05
5.95538e-05
-5.59385e-06
-1.43126e-05
5.63241e-05
-3.2391e-06
-1.24373e-05
5.38795e-05
-1.31968e-06
-1.06783e-05
5.19346e-05
2.02205e-07
-9.32551e-06
5.02382e-05
1.54425e-06
-8.43681e-06
4.86194e-05
2.85084e-06
-8.00416e-06
4.68914e-05
4.32151e-06
-8.01942e-06
4.48466e-05
6.15167e-06
-8.4856e-06
4.22011e-05
8.57902e-06
-9.40944e-06
3.85219e-05
1.19043e-05
-1.07671e-05
3.31544e-05
1.64136e-05
-1.23742e-05
2.54323e-05
2.16057e-05
-1.32991e-05
2.154e-05
-9.79597e-06
8.04986e-05
-2.77867e-06
-6.66635e-06
7.35552e-05
-4.37642e-06
-1.40816e-05
6.69374e-05
-3.76474e-06
-1.57965e-05
6.16993e-05
-2.40479e-06
-1.46209e-05
5.7826e-05
-1.02952e-06
-1.26153e-05
5.50061e-05
1.49926e-07
-1.07284e-05
5.28499e-05
1.23288e-06
-9.26598e-06
5.11279e-05
2.2825e-06
-8.27631e-06
4.96131e-05
3.44647e-06
-7.73765e-06
4.81275e-05
4.87137e-06
-7.62483e-06
4.64897e-05
6.73751e-06
-7.92362e-06
4.4464e-05
9.29466e-06
-8.62349e-06
4.16675e-05
1.29124e-05
-9.68823e-06
3.74085e-05
1.80775e-05
-1.09473e-05
3.05317e-05
2.47833e-05
-1.15956e-05
2.72434e-05
-8.49132e-06
8.30724e-05
-6.71194e-06
5.37857e-09
7.56473e-05
-1.42532e-05
6.34658e-07
6.84901e-05
-1.59913e-05
9.55251e-07
6.28248e-05
-1.47527e-05
1.18669e-06
5.86806e-05
-1.26558e-05
1.44184e-06
5.56975e-05
-1.06794e-05
1.78694e-06
5.35385e-05
-9.13533e-06
2.28109e-06
5.19032e-05
-8.06085e-06
2.96042e-06
5.0583e-05
-7.42092e-06
3.88933e-06
4.94241e-05
-7.1756e-06
5.16023e-06
4.8301e-05
-7.29315e-06
6.91432e-06
4.70815e-05
-7.74243e-06
9.37939e-06
4.55563e-05
-8.46667e-06
1.29487e-05
4.32281e-05
-9.29916e-06
1.83242e-05
3.84845e-05
-9.59351e-06
2.66451e-05
-7.05109e-06
3.77415e-05
1.60674e-05
-5.89964e-06
-4.33915e-06
2.10611e-05
-6.25682e-06
-6.24968e-06
2.42295e-05
-4.39911e-06
-6.24612e-06
2.58596e-05
-2.72872e-06
-5.71464e-06
2.64724e-05
-1.57408e-06
-5.11234e-06
2.64612e-05
-8.37419e-07
-4.59925e-06
2.60557e-05
-3.66379e-07
-4.23506e-06
2.53651e-05
-4.57082e-08
-4.04658e-06
2.44038e-05
2.12412e-07
-4.0504e-06
2.31366e-05
4.4679e-07
-4.2643e-06
2.14701e-05
6.96615e-07
-4.70601e-06
1.92465e-05
9.96664e-07
-5.38906e-06
1.6226e-05
1.3871e-06
-6.30526e-06
1.20683e-05
1.93315e-06
-7.36539e-06
6.57183e-06
2.60827e-06
-8.10912e-06
2.54532e-06
-6.50126e-06
3.3825e-05
-9.89311e-06
-5.64114e-06
3.8077e-05
-1.24945e-05
-9.56586e-06
4.13008e-05
-9.643e-06
-1.00628e-05
4.31044e-05
-6.35873e-06
-9.35533e-06
4.37495e-05
-3.81713e-06
-8.38065e-06
4.35865e-05
-2.07605e-06
-7.49601e-06
4.28686e-05
-9.09071e-07
-6.83297e-06
4.17367e-05
-9.83497e-08
-6.44467e-06
4.01841e-05
5.81652e-07
-6.35707e-06
3.81527e-05
1.2055e-06
-6.59751e-06
3.54824e-05
1.88769e-06
-7.18961e-06
3.19086e-05
2.72483e-06
-8.14815e-06
2.70411e-05
3.8251e-06
-9.44888e-06
2.04016e-05
5.30225e-06
-1.09243e-05
1.18563e-05
6.99558e-06
-1.17801e-05
6.94096e-06
-8.72835e-06
4.78967e-05
-1.08537e-05
-5.54097e-06
4.87452e-05
-1.55443e-05
-1.03471e-05
4.96385e-05
-1.2827e-05
-1.12396e-05
5.00084e-05
-8.80545e-06
-1.05334e-05
4.9791e-05
-5.40762e-06
-9.41438e-06
4.90894e-05
-2.94809e-06
-8.36788e-06
4.8007e-05
-1.22971e-06
-7.56887e-06
4.65967e-05
4.696e-09
-7.07775e-06
4.48055e-05
1.07979e-06
-6.92605e-06
4.25403e-05
2.09286e-06
-7.13112e-06
3.96101e-05
3.22981e-06
-7.71241e-06
3.57251e-05
4.64342e-06
-8.67696e-06
3.04823e-05
6.49921e-06
-9.98475e-06
2.34294e-05
8.92942e-06
-1.14351e-05
1.45503e-05
1.15754e-05
-1.21592e-05
1.12442e-05
-8.7612e-06
6.02952e-05
-9.94002e-06
-5.38762e-06
5.79354e-05
-1.5506e-05
-1.06878e-05
5.60816e-05
-1.34164e-05
-1.1838e-05
5.45197e-05
-9.45096e-06
-1.11123e-05
5.30611e-05
-5.85267e-06
-9.86746e-06
5.15999e-05
-3.1259e-06
-8.69021e-06
5.0071e-05
-1.14668e-06
-7.7865e-06
4.83815e-05
3.61892e-07
-7.21684e-06
4.64599e-05
1.69445e-06
-7.00073e-06
4.41463e-05
3.02552e-06
-7.14893e-06
4.12353e-05
4.56193e-06
-7.67087e-06
3.74366e-05
6.50171e-06
-8.56309e-06
3.23663e-05
9.05325e-06
-9.77394e-06
2.56157e-05
1.23505e-05
-1.10922e-05
1.72244e-05
1.5824e-05
-1.16693e-05
1.5108e-05
-8.3157e-06
7.0707e-05
-8.03036e-06
-5.32519e-06
6.5962e-05
-1.31875e-05
-1.09914e-05
6.17291e-05
-1.17536e-05
-1.23259e-05
5.83407e-05
-8.37225e-06
-1.15565e-05
5.56454e-05
-5.12791e-06
-1.01787e-05
5.34112e-05
-2.56781e-06
-8.8683e-06
5.14354e-05
-6.3176e-07
-7.85793e-06
4.95232e-05
9.43224e-07
-7.20423e-06
4.75342e-05
2.39393e-06
-6.91399e-06
4.52822e-05
3.93106e-06
-6.98637e-06
4.255e-05
5.77195e-06
-7.4196e-06
3.90527e-05
8.1475e-06
-8.20049e-06
3.44173e-05
1.13092e-05
-9.27035e-06
2.82284e-05
1.54154e-05
-1.04198e-05
2.04455e-05
1.97468e-05
-1.08511e-05
1.88371e-05
-7.6795e-06
7.87295e-05
-5.59619e-06
-5.32322e-06
7.23718e-05
-9.34829e-06
-1.12723e-05
6.63509e-05
-8.41014e-06
-1.27397e-05
6.15079e-05
-5.92296e-06
-1.19189e-05
5.77976e-05
-3.43976e-06
-1.04151e-05
5.49287e-05
-1.39888e-06
-8.97837e-06
5.2601e-05
2.32996e-07
-7.86255e-06
5.05481e-05
1.68098e-06
-7.12168e-06
4.85802e-05
3.10591e-06
-6.74827e-06
4.64964e-05
4.7241e-06
-6.72861e-06
4.40826e-05
6.74979e-06
-7.04962e-06
4.10699e-05
9.43969e-06
-7.68896e-06
3.70903e-05
1.31059e-05
-8.58413e-06
3.16602e-05
1.80079e-05
-9.53675e-06
2.44496e-05
2.34772e-05
-9.81884e-06
2.30952e-05
-6.89684e-06
8.41421e-05
-2.88244e-06
-5.34824e-06
7.67878e-05
-4.58197e-06
-1.14936e-05
6.9598e-05
-3.97576e-06
-1.30411e-05
6.37799e-05
-2.55703e-06
-1.21687e-05
5.93877e-05
-1.10245e-06
-1.05604e-05
5.61217e-05
1.57184e-07
-9.01851e-06
5.35772e-05
1.32335e-06
-7.81181e-06
5.15055e-05
2.46352e-06
-6.98719e-06
4.96617e-05
3.73908e-06
-6.52697e-06
4.7854e-05
5.31162e-06
-6.40471e-06
4.5896e-05
7.37978e-06
-6.59555e-06
4.35651e-05
1.02144e-05
-7.06727e-06
4.0533e-05
1.42035e-05
-7.75377e-06
3.6244e-05
1.98242e-05
-8.47453e-06
2.97913e-05
2.69315e-05
-8.59732e-06
2.92171e-05
-5.98638e-06
8.68397e-05
-5.37911e-06
-2.5189e-08
7.89915e-05
-1.16254e-05
6.38536e-07
7.12384e-05
-1.31957e-05
9.8171e-07
6.497e-05
-1.22746e-05
1.23328e-06
6.02922e-05
-1.05922e-05
1.51179e-06
5.68571e-05
-8.97638e-06
1.88926e-06
5.43157e-05
-7.70152e-06
2.43096e-06
5.23467e-05
-6.80663e-06
3.17829e-06
5.07247e-05
-6.2639e-06
4.20401e-06
4.92849e-05
-6.03616e-06
5.61196e-06
4.78999e-05
-6.08717e-06
7.5588e-06
4.64532e-05
-6.37337e-06
1.0292e-05
4.47851e-05
-6.821e-06
1.42259e-05
4.25052e-05
-7.26414e-06
2.00691e-05
3.81533e-05
-7.19318e-06
2.88831e-05
-5.02325e-06
4.02641e-05
1.65337e-05
-6.09003e-06
-3.34089e-06
2.1611e-05
-6.50112e-06
-4.82584e-06
2.47947e-05
-4.59094e-06
-4.83895e-06
2.63761e-05
-2.85522e-06
-4.44078e-06
2.68961e-05
-1.64914e-06
-3.98324e-06
2.67653e-05
-8.77451e-07
-3.59101e-06
2.62238e-05
-3.82916e-07
-3.31066e-06
2.53847e-05
-4.50979e-08
-3.16239e-06
2.42618e-05
2.29717e-07
-3.1572e-06
2.28203e-05
4.81858e-07
-3.30467e-06
2.09717e-05
7.53872e-07
-3.6112e-06
1.8575e-05
1.08318e-06
-4.07557e-06
1.54339e-05
1.51173e-06
-4.67585e-06
1.12993e-05
2.0997e-06
-5.3305e-06
6.1105e-06
2.79425e-06
-5.71459e-06
2.7089e-06
-4.48746e-06
3.48733e-05
-1.01775e-05
-4.31586e-06
3.91283e-05
-1.29604e-05
-7.36154e-06
4.23042e-05
-1.00523e-05
-7.77739e-06
4.39984e-05
-6.64876e-06
-7.25591e-06
4.44842e-05
-3.9972e-06
-6.51846e-06
4.41276e-05
-2.1735e-06
-5.84337e-06
4.31926e-05
-9.47012e-07
-5.33381e-06
4.18268e-05
-9.34996e-08
-5.03052e-06
4.00194e-05
6.31613e-07
-4.9515e-06
3.77151e-05
1.30033e-06
-5.11177e-06
3.47609e-05
2.03737e-06
-5.51891e-06
3.092e-05
2.94335e-06
-6.16734e-06
2.58721e-05
4.12646e-06
-7.01577e-06
1.92803e-05
5.68582e-06
-7.9186e-06
1.12015e-05
7.40944e-06
-8.31644e-06
7.25547e-06
-6.03265e-06
4.94609e-05
-1.11379e-05
-4.21379e-06
5.01904e-05
-1.61006e-05
-7.93644e-06
5.09279e-05
-1.336e-05
-8.66941e-06
5.11074e-05
-9.20273e-06
-8.1589e-06
5.06729e-05
-5.66131e-06
-7.31577e-06
4.97353e-05
-3.08541e-06
-6.51844e-06
4.84036e-05
-1.27924e-06
-5.9049e-06
4.67274e-05
2.67275e-08
-5.52179e-06
4.4658e-05
1.16814e-06
-5.39313e-06
4.20978e-05
2.25386e-06
-5.5245e-06
3.88647e-05
3.47821e-06
-5.92015e-06
3.46994e-05
4.99963e-06
-6.56797e-06
2.92742e-05
6.98134e-06
-7.41436e-06
2.22829e-05
9.53183e-06
-8.28975e-06
1.38987e-05
1.22184e-05
-8.58401e-06
1.17148e-05
-6.05125e-06
6.23281e-05
-1.01847e-05
-4.0775e-06
5.97581e-05
-1.60436e-05
-8.17489e-06
5.76413e-05
-1.39652e-05
-9.11587e-06
5.57996e-05
-9.87446e-06
-8.59885e-06
5.40607e-05
-6.12649e-06
-7.66336e-06
5.23225e-05
-3.27036e-06
-6.76709e-06
5.05187e-05
-1.18835e-06
-6.07354e-06
4.85515e-05
4.08289e-07
-5.63127e-06
4.6345e-05
1.82553e-06
-5.45158e-06
4.37369e-05
3.25176e-06
-5.53881e-06
4.05293e-05
4.90404e-06
-5.88907e-06
3.64614e-05
6.98705e-06
-6.4826e-06
3.12213e-05
9.7057e-06
-7.25818e-06
2.45372e-05
1.31639e-05
-8.04029e-06
1.66218e-05
1.66984e-05
-8.23394e-06
1.57522e-05
-5.73363e-06
7.31317e-05
-8.22326e-06
-4.01596e-06
6.81215e-05
-1.36363e-05
-8.38845e-06
6.354e-05
-1.22308e-05
-9.47885e-06
5.97917e-05
-8.74709e-06
-8.93556e-06
5.67564e-05
-5.36837e-06
-7.90152e-06
5.42072e-05
-2.68539e-06
-6.90404e-06
5.19359e-05
-6.46504e-07
-6.12849e-06
4.97385e-05
1.02244e-06
-5.62096e-06
4.74665e-05
2.56838e-06
-5.38489e-06
4.49302e-05
4.21649e-06
-5.41483e-06
4.19183e-05
6.19561e-06
-5.69924e-06
3.81725e-05
8.74453e-06
-6.21213e-06
3.33845e-05
1.21119e-05
-6.88856e-06
2.72608e-05
1.64239e-05
-7.55604e-06
1.99111e-05
2.08525e-05
-7.65545e-06
1.96761e-05
-5.28557e-06
8.14527e-05
-5.73399e-06
-4.00463e-06
7.47993e-05
-9.6665e-06
-8.58871e-06
6.8369e-05
-8.75335e-06
-9.78683e-06
6.3104e-05
-6.19113e-06
-9.2099e-06
5.90063e-05
-3.6036e-06
-8.08214e-06
5.57932e-05
-1.46241e-06
-6.98832e-06
5.31547e-05
2.61111e-07
-6.13163e-06
5.0815e-05
1.79743e-06
-5.55699e-06
4.85729e-05
3.31997e-06
-5.25768e-06
4.62222e-05
5.05725e-06
-5.21869e-06
4.35535e-05
7.23562e-06
-5.42095e-06
4.0321e-05
1.01212e-05
-5.83311e-06
3.62121e-05
1.40261e-05
-6.38935e-06
3.08449e-05
1.91811e-05
-6.92686e-06
2.40088e-05
2.48042e-05
-6.93443e-06
2.41574e-05
-4.74265e-06
8.7065e-05
-2.96381e-06
-4.01728e-06
7.93982e-05
-4.74552e-06
-8.74781e-06
7.17606e-05
-4.14563e-06
-1.00113e-05
6.54798e-05
-2.68019e-06
-9.39876e-06
6.06692e-05
-1.16078e-06
-8.19269e-06
5.7041e-05
1.65755e-07
-7.01847e-06
5.4181e-05
1.40124e-06
-6.09192e-06
5.18273e-05
2.61694e-06
-5.45301e-06
4.97239e-05
3.98433e-06
-5.08791e-06
4.76735e-05
5.67563e-06
-4.97264e-06
4.54932e-05
7.90084e-06
-5.08053e-06
4.29808e-05
1.09412e-05
-5.37488e-06
3.9854e-05
1.51889e-05
-5.78989e-06
3.56364e-05
2.11021e-05
-6.17795e-06
2.94975e-05
2.84388e-05
-6.093e-06
3.05527e-05
-4.12306e-06
8.98612e-05
-4.03744e-06
-4.78239e-08
8.16918e-05
-8.84337e-06
6.41857e-07
7.34725e-05
-1.01263e-05
1.00427e-06
6.67231e-05
-9.47838e-06
1.27298e-06
6.16148e-05
-8.21612e-06
1.57146e-06
5.78129e-05
-6.98528e-06
1.97655e-06
5.49604e-05
-6.00611e-06
2.55835e-06
5.27216e-05
-5.31336e-06
3.36247e-06
5.08603e-05
-4.88603e-06
4.46772e-06
4.9207e-05
-4.69281e-06
5.98565e-06
4.76386e-05
-4.70006e-06
8.08206e-06
4.60579e-05
-4.86521e-06
1.10138e-05
4.43455e-05
-5.12054e-06
1.52009e-05
4.21725e-05
-5.33263e-06
2.13436e-05
3.81113e-05
-5.13968e-06
3.04464e-05
-3.48436e-06
4.19786e-05
1.68837e-05
-6.23265e-06
-2.26836e-06
2.20252e-05
-6.68697e-06
-3.28036e-06
2.52228e-05
-4.73817e-06
-3.29847e-06
2.67693e-05
-2.95296e-06
-3.03429e-06
2.72202e-05
-1.70752e-06
-2.72657e-06
2.69994e-05
-9.08801e-07
-2.46147e-06
2.63557e-05
-3.95985e-07
-2.27091e-06
2.54062e-05
-4.47241e-08
-2.16819e-06
2.41659e-05
2.43062e-07
-2.15999e-06
2.26031e-05
5.08806e-07
-2.25066e-06
2.06358e-05
7.97336e-07
-2.44126e-06
1.8139e-05
1.14743e-06
-2.72617e-06
1.49467e-05
1.60142e-06
-3.08499e-06
1.0861e-05
2.21559e-06
-3.46039e-06
5.87399e-06
2.92244e-06
-3.65001e-06
2.81939e-06
-2.83259e-06
3.56609e-05
-1.03884e-05
-2.91945e-06
3.99207e-05
-1.33119e-05
-4.99639e-06
4.3064e-05
-1.03638e-05
-5.29498e-06
4.46783e-05
-6.87089e-06
-4.95229e-06
4.50454e-05
-4.13579e-06
-4.45737e-06
4.45434e-05
-2.24871e-06
-4.0014e-06
4.34451e-05
-9.76187e-07
-3.65528e-06
4.19051e-05
-8.90922e-08
-3.44618e-06
3.99121e-05
6.70452e-07
-3.38589e-06
3.74168e-05
1.37318e-06
-3.48089e-06
3.42762e-05
2.15068e-06
-3.73166e-06
3.02784e-05
3.10531e-06
-4.12739e-06
2.51523e-05
4.34388e-06
-4.63208e-06
1.8639e-05
5.95507e-06
-5.14479e-06
1.08643e-05
7.69708e-06
-5.31642e-06
7.47273e-06
-3.81013e-06
5.06362e-05
-1.13476e-05
-2.83665e-06
5.12804e-05
-1.65186e-05
-5.37387e-06
5.19044e-05
-1.37643e-05
-5.89297e-06
5.19431e-05
-9.50608e-06
-5.56242e-06
5.13462e-05
-5.85589e-06
-4.99878e-06
5.02312e-05
-3.1909e-06
-4.46124e-06
4.87124e-05
-1.31719e-06
-4.04509e-06
4.68371e-05
4.69119e-08
-3.78245e-06
4.45653e-05
1.23655e-06
-3.68741e-06
4.17985e-05
2.37735e-06
-3.76184e-06
3.83664e-05
3.66586e-06
-4.00326e-06
3.40367e-05
5.26325e-06
-4.39616e-06
2.85333e-05
7.32917e-06
-4.89626e-06
2.16305e-05
9.95541e-06
-5.3873e-06
1.35671e-05
1.26652e-05
-5.48877e-06
1.20398e-05
-3.82182e-06
6.38554e-05
-1.03649e-05
-2.73434e-06
6.11337e-05
-1.64468e-05
-5.52496e-06
5.88234e-05
-1.4381e-05
-6.18902e-06
5.67735e-05
-1.01973e-05
-5.85769e-06
5.48241e-05
-6.33606e-06
-5.23378e-06
5.2877e-05
-3.38087e-06
-4.63008e-06
5.08657e-05
-1.21951e-06
-4.15988e-06
4.86925e-05
4.45661e-07
-3.85681e-06
4.62776e-05
1.92726e-06
-3.72745e-06
4.3463e-05
3.42508e-06
-3.77196e-06
4.00606e-05
5.16205e-06
-3.98285e-06
3.58354e-05
7.34565e-06
-4.33976e-06
3.05244e-05
1.01759e-05
-4.79383e-06
2.39298e-05
1.37353e-05
-5.2256e-06
1.63217e-05
1.73037e-05
-5.2644e-06
1.61939e-05
-3.61858e-06
7.49532e-05
-8.36527e-06
-2.68569e-06
6.97517e-05
-1.39724e-05
-5.66129e-06
6.49133e-05
-1.25917e-05
-6.42965e-06
6.08962e-05
-9.0324e-06
-6.08342e-06
5.76052e-05
-5.55198e-06
-5.39456e-06
5.4818e-05
-2.77486e-06
-4.72289e-06
5.23238e-05
-6.56631e-07
-4.19717e-06
4.99134e-05
1.08494e-06
-3.84983e-06
4.74346e-05
2.70355e-06
-3.68237e-06
4.46986e-05
4.43483e-06
-3.6886e-06
4.1503e-05
6.51459e-06
-3.85611e-06
3.76125e-05
9.18489e-06
-4.16085e-06
3.27625e-05
1.26893e-05
-4.5521e-06
2.67241e-05
1.71305e-05
-4.91286e-06
1.96539e-05
2.16135e-05
-4.89497e-06
2.02465e-05
-3.33281e-06
8.34981e-05
-5.8356e-06
-2.67307e-06
7.66318e-05
-9.90447e-06
-5.79032e-06
6.98998e-05
-9.01258e-06
-6.63401e-06
6.43196e-05
-6.39484e-06
-6.26728e-06
5.99301e-05
-3.72822e-06
-5.51637e-06
5.64568e-05
-1.51003e-06
-4.77985e-06
5.35834e-05
2.84254e-07
-4.19912e-06
5.1029e-05
1.88867e-06
-3.80635e-06
4.85857e-05
3.48559e-06
-3.59643e-06
4.6047e-05
5.31183e-06
-3.55696e-06
4.32106e-05
7.60093e-06
-3.67092e-06
3.98508e-05
1.0623e-05
-3.91132e-06
3.56918e-05
1.46865e-05
-4.22757e-06
3.04046e-05
2.00002e-05
-4.5093e-06
2.381e-05
2.57115e-05
-4.43788e-06
2.48731e-05
-2.98937e-06
8.92599e-05
-3.02413e-06
-2.6784e-06
8.13687e-05
-4.86762e-06
-5.8935e-06
7.34014e-05
-4.27352e-06
-6.78306e-06
6.67748e-05
-2.77318e-06
-6.39377e-06
6.1649e-05
-1.20439e-06
-5.59073e-06
5.77465e-05
1.73926e-07
-4.79997e-06
5.46479e-05
1.46286e-06
-4.17192e-06
5.20826e-05
2.73675e-06
-3.73573e-06
4.97881e-05
4.17397e-06
-3.48182e-06
4.75657e-05
5.9537e-06
-3.39207e-06
4.52386e-05
8.29243e-06
-3.44499e-06
4.26217e-05
1.14759e-05
-3.61084e-06
3.94634e-05
1.58948e-05
-3.83995e-06
3.53268e-05
2.19911e-05
-4.03215e-06
2.93914e-05
2.94622e-05
-3.90834e-06
3.14469e-05
-2.60009e-06
9.21299e-05
-2.69031e-06
-6.55072e-08
8.37301e-05
-5.95583e-06
6.44599e-07
7.51677e-05
-6.85946e-06
1.02206e-06
6.80588e-05
-6.44689e-06
1.30423e-06
6.26259e-05
-5.60613e-06
1.61844e-06
5.85464e-05
-4.77709e-06
2.04523e-06
5.54583e-05
-4.11334e-06
2.65822e-06
5.30165e-05