/*--------------------------------*- C++ -*----------------------------------*\
| =========                 |                                                 |
| \\      /  F ield         | foam-extend: Open Source CFD                    |
|  \\    /   O peration     | Version:     3.1                                |
|   \\  /    A nd           | Web:         http://www.extend-project.de       |
|    \\/     M anipulation  |                                                 |
\*---------------------------------------------------------------------------*/
FoamFile
{
    version     2.0;
    format      ascii;
    class       pointVectorField;
    location    "0.7";
    object      pointMotionU;
}
// * * * * * * * * * * * * * * * * * * * * * * * * * * * * * * * * * * * * * //

dimensions      [0 1 -1 0 0 0 0];

internalField   nonuniform List<vector> 
16859
(
(0 0 0)
(0 0 0)
(0 0 0)
(0 0 0)
(0 0 0)
(0 0 0)
(0 0 0)
(0 0 0)
(0 0 0)
(0 0 0)
(0 0 0)
(0 0 0)
(0 0 0)
(0 0 0)
(0 0 0)
(0 0 0)
(0 0 0)
(0 0 0)
(-4.23231e-11 -4.7923e-10 1.68775e-10)
(-9.67305e-11 -9.42965e-10 3.37968e-10)
(-1.77556e-10 -1.40661e-09 5.18529e-10)
(-3.01614e-10 -1.90012e-09 7.26769e-10)
(-4.89567e-10 -2.45507e-09 9.80627e-10)
(-7.68858e-10 -3.10802e-09 1.3016e-09)
(-1.17718e-09 -3.90507e-09 1.71713e-09)
(-1.76643e-09 -4.90811e-09 2.26362e-09)
(-2.60632e-09 -6.20224e-09 2.99016e-09)
(-3.78496e-09 -7.90423e-09 3.96282e-09)
(-5.39923e-09 -1.01672e-08 5.26827e-09)
(-7.52029e-09 -1.31674e-08 7.01253e-09)
(-1.01094e-08 -1.70393e-08 9.30251e-09)
(-1.28654e-08 -2.16867e-08 1.21801e-08)
(-1.4999e-08 -2.62218e-08 1.53449e-08)
(-1.46969e-08 -3.21695e-08 2.71931e-08)
(0 0 0)
(-7.15589e-11 -9.3297e-10 3.29647e-10)
(-1.66211e-10 -1.83451e-09 6.59603e-10)
(-3.10595e-10 -2.73303e-09 1.01063e-09)
(-5.35529e-10 -3.68492e-09 1.4138e-09)
(-8.7863e-10 -4.74888e-09 1.90299e-09)
(-1.38958e-09 -5.99105e-09 2.51822e-09)
(-2.13642e-09 -7.49351e-09 3.30994e-09)
(-3.21298e-09 -9.36447e-09 4.34417e-09)
(-4.74647e-09 -1.17511e-08 5.70871e-09)
(-6.90173e-09 -1.48544e-08 7.51961e-09)
(-9.87177e-09 -1.89391e-08 9.9249e-09)
(-1.38302e-08 -2.43187e-08 1.30955e-08)
(-1.87972e-08 -3.12475e-08 1.7167e-08)
(-2.43704e-08 -3.96105e-08 2.20737e-08)
(-2.92618e-08 -4.80115e-08 2.7084e-08)
(-3.42156e-08 -7.02951e-08 3.71766e-08)
(0 0 0)
(-7.6921e-11 -1.33993e-09 4.76267e-10)
(-1.86089e-10 -2.63104e-09 9.51501e-10)
(-3.62793e-10 -3.91069e-09 1.45425e-09)
(-6.46869e-10 -5.25671e-09 2.02799e-09)
(-1.0864e-09 -6.74696e-09 2.71906e-09)
(-1.74415e-09 -8.46547e-09 3.58079e-09)
(-2.70542e-09 -1.05131e-08 4.67915e-09)
(-4.08754e-09 -1.30184e-08 6.09863e-09)
(-6.05078e-09 -1.61512e-08 7.94899e-09)
(-8.80828e-09 -2.01393e-08 1.03716e-08)
(-1.26302e-08 -2.52839e-08 1.3544e-08)
(-1.78088e-08 -3.19446e-08 1.766e-08)
(-2.45226e-08 -4.04143e-08 2.2842e-08)
(-3.25246e-08 -5.05716e-08 2.89191e-08)
(-4.04214e-08 -6.08688e-08 3.48848e-08)
(-5.6649e-08 -8.60407e-08 4.83713e-08)
(0 0 0)
(-5.10319e-11 -1.68055e-09 6.02926e-10)
(-1.41186e-10 -3.29397e-09 1.20207e-09)
(-3.09974e-10 -4.883e-09 1.83169e-09)
(-5.99981e-10 -6.53932e-09 2.54419e-09)
(-1.06176e-09 -8.34969e-09 3.39367e-09)
(-1.76008e-09 -1.04033e-08 4.44088e-09)
(-2.78146e-09 -1.28007e-08 5.75873e-09)
(-4.24345e-09 -1.5662e-08 7.43775e-09)
(-6.306e-09 -1.91374e-08 9.59192e-09)
(-9.18502e-09 -2.3417e-08 1.23638e-08)
(-1.31691e-08 -2.87454e-08 1.59287e-08)
(-1.86142e-08 -3.54045e-08 2.04731e-08)
(-2.58501e-08 -4.36112e-08 2.61131e-08)
(-3.4905e-08 -5.32321e-08 3.26857e-08)
(-4.46474e-08 -6.29703e-08 3.91981e-08)
(-7.05321e-08 -8.73494e-08 5.67946e-08)
(0 0 0)
(9.08988e-12 -1.94213e-09 7.06371e-10)
(-2.55166e-11 -3.8002e-09 1.40534e-09)
(-1.43116e-10 -5.61823e-09 2.13441e-09)
(-3.82843e-10 -7.49299e-09 2.95085e-09)
(-7.89903e-10 -9.5111e-09 3.91203e-09)
(-1.42046e-09 -1.17555e-08 5.0804e-09)
(-2.34701e-09 -1.43105e-08 6.52789e-09)
(-3.66451e-09 -1.72648e-08 8.33996e-09)
(-5.49792e-09 -2.07138e-08 1.06192e-08)
(-8.01208e-09 -2.47591e-08 1.34881e-08)
(-1.14255e-08 -2.95049e-08 1.7089e-08)
(-1.60248e-08 -3.50432e-08 2.15717e-08)
(-2.21255e-08 -4.13926e-08 2.70339e-08)
(-2.99085e-08 -4.838e-08 3.33631e-08)
(-3.87694e-08 -5.53715e-08 3.97612e-08)
(-6.86969e-08 -7.38462e-08 6.11819e-08)
(0 0 0)
(1.02141e-10 -2.11988e-09 7.862e-10)
(1.57824e-10 -4.14101e-09 1.56056e-09)
(1.31903e-10 -6.10449e-09 2.36118e-09)
(-6.18071e-12 -8.10601e-09 3.24694e-09)
(-2.90208e-10 -1.02258e-08 4.27484e-09)
(-7.59804e-10 -1.25328e-08 5.50425e-09)
(-1.46236e-09 -1.50851e-08 6.99996e-09)
(-2.45406e-09 -1.79279e-08 8.83418e-09)
(-3.79967e-09 -2.10854e-08 1.10871e-08)
(-5.57067e-09 -2.45468e-08 1.38455e-08)
(-7.84171e-09 -2.8242e-08 1.71969e-08)
(-1.0688e-08 -3.20112e-08 2.12207e-08)
(-1.41596e-08 -3.55633e-08 2.59381e-08)
(-1.82343e-08 -3.8527e-08 3.12028e-08)
(-2.27225e-08 -4.09417e-08 3.63785e-08)
(-4.53924e-08 -4.95965e-08 5.74807e-08)
(0 0 0)
(2.23207e-10 -2.21255e-09 8.43278e-10)
(3.98189e-10 -4.31417e-09 1.66932e-09)
(4.96876e-10 -6.34134e-09 2.51506e-09)
(5.00815e-10 -8.38481e-09 3.43849e-09)
(3.91158e-10 -1.05144e-08 4.49328e-09)
(1.48734e-10 -1.27817e-08 5.73247e-09)
(-2.44311e-10 -1.52172e-08 7.21003e-09)
(-8.00228e-10 -1.78231e-08 8.98081e-09)
(-1.51723e-09 -2.05584e-08 1.1098e-08)
(-2.36448e-09 -2.33146e-08 1.36072e-08)
(-3.25693e-09 -2.58778e-08 1.65348e-08)
(-4.01687e-09 -2.78779e-08 1.98703e-08)
(-4.325e-09 -2.87391e-08 2.35164e-08)
(-3.68822e-09 -2.7755e-08 2.71913e-08)
(-1.83804e-09 -2.50163e-08 3.02514e-08)
(-4.83557e-10 -1.52955e-08 4.09571e-08)
(0 0 0)
(3.64222e-10 -2.2204e-09 8.78926e-10)
(6.79012e-10 -4.32347e-09 1.73544e-09)
(9.24756e-10 -6.33921e-09 2.60341e-09)
(1.09655e-09 -8.3504e-09 3.53776e-09)
(1.19131e-09 -1.04156e-08 4.58707e-09)
(1.21003e-09 -1.25701e-08 5.79641e-09)
(1.16206e-09 -1.48219e-08 7.20773e-09)
(1.07292e-09 -1.71413e-08 8.85821e-09)
(9.9745e-10 -1.94449e-08 1.07757e-08)
(1.04137e-09 -2.15711e-08 1.29697e-08)
(1.39479e-09 -2.32451e-08 1.54159e-08)
(2.37985e-09 -2.40417e-08 1.80305e-08)
(4.49123e-09 -2.33778e-08 2.06196e-08)
(8.40533e-09 -2.06418e-08 2.27827e-08)
(1.4673e-08 -1.59596e-08 2.37708e-08)
(4.60346e-08 2.21679e-08 2.07981e-08)
(0 0 0)
(0 0 0)
(0 0 0)
(0 0 0)
(0 0 0)
(0 0 0)
(0 0 0)
(0 0 0)
(0 0 0)
(0 0 0)
(0 0 0)
(0 0 0)
(0 0 0)
(0 0 0)
(0 0 0)
(0 0 0)
(0 0 0)
(0 0 0)
(-4.57868e-11 -4.92382e-10 1.64398e-10)
(-1.04157e-10 -9.69454e-10 3.29149e-10)
(-1.90185e-10 -1.44776e-09 5.0493e-10)
(-3.21651e-10 -1.95902e-09 7.077e-10)
(-5.20466e-10 -2.53686e-09 9.55066e-10)
(-8.15799e-10 -3.22051e-09 1.26822e-09)
(-1.24779e-09 -4.05979e-09 1.67438e-09)
(-1.87177e-09 -5.12171e-09 2.20994e-09)
(-2.76215e-09 -6.49877e-09 2.92446e-09)
(-4.01294e-09 -8.31809e-09 3.88557e-09)
(-5.72753e-09 -1.07466e-08 5.18365e-09)
(-7.9822e-09 -1.39777e-08 6.93258e-09)
(-1.07393e-08 -1.81636e-08 9.25331e-09)
(-1.36924e-08 -2.32102e-08 1.21976e-08)
(-1.60235e-08 -2.80883e-08 1.53401e-08)
(-1.84239e-08 -3.68325e-08 2.48127e-08)
(0 0 0)
(-7.78523e-11 -9.58221e-10 3.21064e-10)
(-1.79715e-10 -1.88526e-09 6.4231e-10)
(-3.33571e-10 -2.81163e-09 9.83968e-10)
(-5.7198e-10 -3.79695e-09 1.37642e-09)
(-9.34786e-10 -4.90359e-09 1.85288e-09)
(-1.47472e-09 -6.20245e-09 2.45272e-09)
(-2.26415e-09 -7.78195e-09 3.22586e-09)
(-3.40296e-09 -9.7591e-09 4.2381e-09)
(-5.02677e-09 -1.22936e-08 5.5777e-09)
(-7.31134e-09 -1.56039e-08 7.36273e-09)
(-1.04624e-08 -1.99789e-08 9.74627e-09)
(-1.46642e-08 -2.57635e-08 1.29095e-08)
(-1.99365e-08 -3.32483e-08 1.70044e-08)
(-2.58422e-08 -4.23328e-08 2.1968e-08)
(-3.09187e-08 -5.13656e-08 2.68857e-08)
(-3.63264e-08 -7.05059e-08 3.46023e-08)
(0 0 0)
(-8.49112e-11 -1.37538e-09 4.63795e-10)
(-2.03262e-10 -2.70205e-09 9.26374e-10)
(-3.92053e-10 -4.02011e-09 1.41554e-09)
(-6.93306e-10 -5.41156e-09 1.97376e-09)
(-1.15785e-09 -6.95895e-09 2.64637e-09)
(-1.85213e-09 -8.75199e-09 3.4857e-09)
(-2.8666e-09 -1.08989e-08 4.55679e-09)
(-4.32583e-09 -1.35379e-08 5.94344e-09)
(-6.40016e-09 -1.68524e-08 7.75528e-09)
(-9.31643e-09 -2.10884e-08 1.01349e-08)
(-1.33627e-08 -2.65729e-08 1.32638e-08)
(-1.88493e-08 -3.36989e-08 1.73445e-08)
(-2.59622e-08 -4.27968e-08 2.25133e-08)
(-3.4406e-08 -5.37525e-08 2.86006e-08)
(-4.2431e-08 -6.46724e-08 3.44241e-08)
(-5.49885e-08 -8.46108e-08 4.32432e-08)
(0 0 0)
(-5.92648e-11 -1.72372e-09 5.8703e-10)
(-1.58954e-10 -3.37999e-09 1.17005e-09)
(-3.40378e-10 -5.01463e-09 1.78241e-09)
(-6.4835e-10 -6.72393e-09 2.47523e-09)
(-1.13613e-09 -8.59947e-09 3.30131e-09)
(-1.87199e-09 -1.07358e-08 4.32006e-09)
(-2.94722e-09 -1.32399e-08 5.60305e-09)
(-4.48585e-09 -1.62399e-08 7.23953e-09)
(-6.65669e-09 -1.98949e-08 9.34238e-09)
(-9.68776e-09 -2.44063e-08 1.20537e-08)
(-1.38862e-08 -3.0033e-08 1.55512e-08)
(-1.96311e-08 -3.70733e-08 2.00276e-08)
(-2.72718e-08 -4.57518e-08 2.56107e-08)
(-3.68093e-08 -5.59106e-08 3.21505e-08)
(-4.6665e-08 -6.58952e-08 3.85156e-08)
(-6.50138e-08 -8.39192e-08 4.90604e-08)
(0 0 0)
(2.15988e-12 -1.99016e-09 6.87582e-10)
(-4.06413e-11 -3.89549e-09 1.36755e-09)
(-1.69311e-10 -5.76298e-09 2.07636e-09)
(-4.24866e-10 -7.69383e-09 2.86975e-09)
(-8.54665e-10 -9.77889e-09 3.80359e-09)
(-1.51749e-09 -1.21053e-08 4.93875e-09)
(-2.48905e-09 -1.47612e-08 6.34549e-09)
(-3.86822e-09 -1.78388e-08 8.10748e-09)
(-5.7846e-09 -2.14348e-08 1.03255e-08)
(-8.40842e-09 -2.56475e-08 1.312e-08)
(-1.19666e-08 -3.0571e-08 1.66341e-08)
(-1.67586e-08 -3.62716e-08 2.10201e-08)
(-2.31131e-08 -4.27111e-08 2.63865e-08)
(-3.12066e-08 -4.96224e-08 3.26471e-08)
(-4.00664e-08 -5.60671e-08 3.89089e-08)
(-5.95056e-08 -6.77318e-08 5.10726e-08)
(0 0 0)
(9.7929e-11 -2.17003e-09 7.65091e-10)
(1.48291e-10 -4.24012e-09 1.51822e-09)
(1.14729e-10 -6.25384e-09 2.2963e-09)
(-3.45642e-11 -8.31075e-09 3.15654e-09)
(-3.34618e-10 -1.04943e-08 4.15432e-09)
(-8.26273e-10 -1.28754e-08 5.34733e-09)
(-1.55787e-09 -1.55134e-08 6.79852e-09)
(-2.58577e-09 -1.84509e-08 8.57814e-09)
(-3.97311e-09 -2.17041e-08 1.07642e-08)
(-5.78619e-09 -2.52424e-08 1.34412e-08)
(-8.08841e-09 -2.89538e-08 1.66958e-08)
(-1.09342e-08 -3.25938e-08 2.06077e-08)
(-1.43399e-08 -3.57137e-08 2.52098e-08)
(-1.82417e-08 -3.76974e-08 3.03897e-08)
(-2.23103e-08 -3.83045e-08 3.54805e-08)
(-3.34644e-08 -3.82027e-08 4.64966e-08)
(0 0 0)
(2.22848e-10 -2.26252e-09 8.20477e-10)
(3.96579e-10 -4.41242e-09 1.6237e-09)
(4.92445e-10 -6.48806e-09 2.44535e-09)
(4.91533e-10 -8.58329e-09 3.3417e-09)
(3.74804e-10 -1.07699e-08 4.36481e-09)
(1.23419e-10 -1.30996e-08 5.56602e-09)
(-2.79036e-10 -1.56008e-08 6.9976e-09)
(-8.4114e-10 -1.82682e-08 8.71253e-09)
(-1.55309e-09 -2.10447e-08 1.07621e-08)
(-2.36784e-09 -2.37882e-08 1.31901e-08)
(-3.16891e-09 -2.62185e-08 1.60229e-08)
(-3.71869e-09 -2.7834e-08 1.9252e-08)
(-3.59153e-09 -2.78051e-08 2.27957e-08)
(-2.13939e-09 -2.49782e-08 2.6422e-08)
(8.70034e-10 -1.90169e-08 2.95713e-08)
(1.24474e-08 1.39092e-09 3.33275e-08)
(0 0 0)
(3.68475e-10 -2.26824e-09 8.55049e-10)
(6.8685e-10 -4.41704e-09 1.68776e-09)
(9.35405e-10 -6.47769e-09 2.53078e-09)
(1.10959e-09 -8.5352e-09 3.43736e-09)
(1.20713e-09 -1.06489e-08 4.45451e-09)
(1.23072e-09 -1.2853e-08 5.62582e-09)
(1.19311e-09 -1.51505e-08 6.99177e-09)
(1.12636e-09 -1.75013e-08 8.58811e-09)
(1.09768e-09 -1.98015e-08 1.04414e-08)
(1.23584e-09 -2.18502e-08 1.25608e-08)
(1.77332e-09 -2.33004e-08 1.49235e-08)
(3.10938e-09 -2.35933e-08 1.74513e-08)
(5.87564e-09 -2.19042e-08 1.99694e-08)
(1.09618e-08 -1.72229e-08 2.2125e-08)
(1.90536e-08 -9.27079e-09 2.32682e-08)
(5.81578e-08 3.99644e-08 2.08104e-08)
(0 0 0)
(0 0 0)
(0 0 0)
(0 0 0)
(0 0 0)
(0 0 0)
(0 0 0)
(0 0 0)
(0 0 0)
(0 0 0)
(0 0 0)
(0 0 0)
(0 0 0)
(0 0 0)
(0 0 0)
(0 0 0)
(0 0 0)
(0 0 0)
(-4.85979e-11 -5.04289e-10 1.53882e-10)
(-1.10134e-10 -9.93429e-10 3.0803e-10)
(-2.00209e-10 -1.48495e-09 4.72398e-10)
(-3.37247e-10 -2.01203e-09 6.61879e-10)
(-5.43902e-10 -2.60992e-09 8.92863e-10)
(-8.50217e-10 -3.31976e-09 1.18499e-09)
(-1.29732e-09 -4.19369e-09 1.56335e-09)
(-1.94147e-09 -5.30122e-09 2.06117e-09)
(-2.85744e-09 -6.73696e-09 2.72318e-09)
(-4.13798e-09 -8.62775e-09 3.60933e-09)
(-5.88156e-09 -1.11326e-08 4.79745e-09)
(-8.15343e-09 -1.44174e-08 6.38033e-09)
(-1.09001e-08 -1.85643e-08 8.44364e-09)
(-1.38107e-08 -2.33427e-08 1.09864e-08)
(-1.61382e-08 -2.76498e-08 1.3595e-08)
(-1.99833e-08 -3.24623e-08 2.14794e-08)
(0 0 0)
(-8.29446e-11 -9.8115e-10 3.00523e-10)
(-1.90551e-10 -1.93133e-09 6.01077e-10)
(-3.51761e-10 -2.8829e-09 9.20515e-10)
(-6.0029e-10 -3.89818e-09 1.28718e-09)
(-9.77299e-10 -5.04248e-09 1.73198e-09)
(-1.53705e-09 -6.39017e-09 2.29133e-09)
(-2.3536e-09 -8.03373e-09 3.0111e-09)
(-3.52836e-09 -1.00946e-08 3.95116e-09)
(-5.19737e-09 -1.27363e-08 5.1906e-09)
(-7.53366e-09 -1.61773e-08 6.83287e-09)
(-1.07325e-08 -2.0695e-08 9.00704e-09)
(-1.49517e-08 -2.65909e-08 1.18541e-08)
(-2.01599e-08 -3.40438e-08 1.54624e-08)
(-2.58504e-08 -4.27309e-08 1.96884e-08)
(-3.05962e-08 -5.08581e-08 2.36771e-08)
(-3.53488e-08 -6.66915e-08 3.01365e-08)
(0 0 0)
(-9.13325e-11 -1.40772e-09 4.34107e-10)
(-2.16946e-10 -2.76675e-09 8.66831e-10)
(-4.15062e-10 -4.11966e-09 1.32408e-09)
(-7.29149e-10 -5.55212e-09 1.84548e-09)
(-1.21163e-09 -7.15039e-09 2.4731e-09)
(-1.93074e-09 -9.00852e-09 3.25527e-09)
(-2.97883e-09 -1.12395e-08 4.2515e-09)
(-4.48196e-09 -1.39868e-08 5.53747e-09)
(-6.61036e-09 -1.7438e-08 7.21028e-09)
(-9.58656e-09 -2.18394e-08 9.39258e-09)
(-1.36833e-08 -2.75057e-08 1.22313e-08)
(-1.91691e-08 -3.47827e-08 1.58718e-08)
(-2.61399e-08 -4.38779e-08 2.03584e-08)
(-3.4146e-08 -5.44295e-08 2.54057e-08)
(-4.13875e-08 -6.43569e-08 2.99048e-08)
(-5.24325e-08 -8.08233e-08 3.62512e-08)
(0 0 0)
(-6.57852e-11 -1.76355e-09 5.49511e-10)
(-1.72903e-10 -3.45878e-09 1.09475e-09)
(-3.63945e-10 -5.13482e-09 1.66695e-09)
(-6.85184e-10 -6.89225e-09 2.31381e-09)
(-1.1914e-09 -8.8265e-09 3.08422e-09)
(-1.95246e-09 -1.10364e-08 4.03285e-09)
(-3.06114e-09 -1.36333e-08 5.22484e-09)
(-4.64219e-09 -1.67497e-08 6.74004e-09)
(-6.86297e-09 -2.05476e-08 8.67678e-09)
(-9.94478e-09 -2.52262e-08 1.11534e-08)
(-1.41766e-08 -3.10317e-08 1.43068e-08)
(-1.9887e-08 -3.82171e-08 1.82574e-08)
(-2.73114e-08 -4.68928e-08 2.30088e-08)
(-3.62437e-08 -5.66846e-08 2.82358e-08)
(-4.49796e-08 -6.57628e-08 3.28279e-08)
(-6.11428e-08 -8.08449e-08 3.91112e-08)
(0 0 0)
(-3.12729e-12 -2.03456e-09 6.43525e-10)
(-5.21121e-11 -3.98295e-09 1.27931e-09)
(-1.88975e-10 -5.89557e-09 1.94147e-09)
(-4.55934e-10 -7.87781e-09 2.68194e-09)
(-9.01479e-10 -1.0024e-08 3.55236e-09)
(-1.58539e-09 -1.24248e-08 4.60856e-09)
(-2.5839e-09 -1.51716e-08 5.91412e-09)
(-3.99517e-09 -1.83585e-08 7.54308e-09)
(-5.94523e-09 -2.20815e-08 9.5813e-09)
(-8.59444e-09 -2.6432e-08 1.21249e-08)
(-1.21481e-08 -3.14864e-08 1.52751e-08)
(-1.68526e-08 -3.72658e-08 1.9104e-08)
(-2.29207e-08 -4.36379e-08 2.35742e-08)
(-3.03205e-08 -5.01959e-08 2.83703e-08)
(-3.79206e-08 -5.59162e-08 3.25309e-08)
(-5.48887e-08 -6.58639e-08 3.83432e-08)
(0 0 0)
(9.50875e-11 -2.21612e-09 7.15828e-10)
(1.41807e-10 -4.33108e-09 1.41995e-09)
(1.02991e-10 -6.39104e-09 2.1467e-09)
(-5.38793e-11 -8.49918e-09 2.94929e-09)
(-3.64364e-10 -1.07418e-08 3.87887e-09)
(-8.69434e-10 -1.31923e-08 4.98817e-09)
(-1.6167e-09 -1.59109e-08 6.33384e-09)
(-2.65999e-09 -1.89393e-08 7.97726e-09)
(-4.05629e-09 -2.22885e-08 9.98307e-09)
(-5.85883e-09 -2.59142e-08 1.24142e-08)
(-8.10517e-09 -2.96781e-08 1.53211e-08)
(-1.07947e-08 -3.32839e-08 1.87098e-08)
(-1.38419e-08 -3.62051e-08 2.24797e-08)
(-1.70256e-08 -3.7771e-08 2.62947e-08)
(-1.99081e-08 -3.78124e-08 2.93658e-08)
(-2.86788e-08 -3.77709e-08 3.29527e-08)
(0 0 0)
(2.23464e-10 -2.30881e-09 7.67649e-10)
(3.97085e-10 -4.50293e-09 1.51846e-09)
(4.91775e-10 -6.62325e-09 2.28571e-09)
(4.88508e-10 -8.76681e-09 3.12176e-09)
(3.68399e-10 -1.10073e-08 4.07458e-09)
(1.134e-10 -1.33973e-08 5.19102e-09)
(-2.90907e-10 -1.59643e-08 6.51784e-09)
(-8.48841e-10 -1.86991e-08 8.1007e-09)
(-1.54216e-09 -2.15346e-08 9.9803e-09)
(-2.30788e-09 -2.43098e-08 1.21843e-08)
(-3.00075e-09 -2.671e-08 1.47138e-08)
(-3.33025e-09 -2.81755e-08 1.75112e-08)
(-2.78921e-09 -2.78043e-08 2.04115e-08)
(-6.46223e-10 -2.44391e-08 2.30588e-08)
(3.3003e-09 -1.79745e-08 2.48563e-08)
(1.66295e-08 7.73947e-10 2.35372e-08)
(0 0 0)
(3.73167e-10 -2.31259e-09 7.99912e-10)
(6.95629e-10 -4.50337e-09 1.57821e-09)
(9.47802e-10 -6.60559e-09 2.36533e-09)
(1.12559e-09 -8.70679e-09 3.21077e-09)
(1.22756e-09 -1.08673e-08 4.15786e-09)
(1.25797e-09 -1.3121e-08 5.24631e-09)
(1.23256e-09 -1.54684e-08 6.51218e-09)
(1.18878e-09 -1.78632e-08 7.9858e-09)
(1.20354e-09 -2.01894e-08 9.68656e-09)
(1.42257e-09 -2.2224e-08 1.16135e-08)
(2.10745e-09 -2.35834e-08 1.3731e-08)
(3.70045e-09 -2.36552e-08 1.59412e-08)
(6.89365e-09 -2.15531e-08 1.80468e-08)
(1.26156e-08 -1.62732e-08 1.97011e-08)
(2.14729e-08 -7.75551e-09 2.03975e-08)
(5.99645e-08 3.88137e-08 2.06782e-08)
(0 0 0)
(0 0 0)
(0 0 0)
(0 0 0)
(0 0 0)
(0 0 0)
(0 0 0)
(0 0 0)
(0 0 0)
(0 0 0)
(0 0 0)
(0 0 0)
(0 0 0)
(0 0 0)
(0 0 0)
(0 0 0)
(0 0 0)
(0 0 0)
(-5.07651e-11 -5.14806e-10 1.37697e-10)
(-1.14697e-10 -1.01459e-09 2.75556e-10)
(-2.0773e-10 -1.51774e-09 4.22408e-10)
(-3.48657e-10 -2.0586e-09 5.91456e-10)
(-5.60446e-10 -2.67373e-09 7.97117e-10)
(-8.73336e-10 -3.40559e-09 1.05646e-09)
(-1.3283e-09 -4.3076e-09 1.39094e-09)
(-1.98066e-09 -5.44996e-09 1.82835e-09)
(-2.90256e-09 -6.92605e-09 2.40496e-09)
(-4.18097e-09 -8.8564e-09 3.16742e-09)
(-5.90351e-09 -1.13824e-08 4.17298e-09)
(-8.11854e-09 -1.46285e-08 5.48368e-09)
(-1.07556e-08 -1.8597e-08 7.14585e-09)
(-1.35094e-08 -2.29435e-08 9.13115e-09)
(-1.56997e-08 -2.65496e-08 1.11089e-08)
(-1.96427e-08 -2.79365e-08 1.68497e-08)
(0 0 0)
(-8.68536e-11 -1.00143e-09 2.68918e-10)
(-1.98789e-10 -1.97206e-09 5.37705e-10)
(-3.65358e-10 -2.94583e-09 8.23086e-10)
(-6.20933e-10 -3.98735e-09 1.15019e-09)
(-1.00723e-09 -5.16426e-09 1.54616e-09)
(-1.57883e-09 -6.55343e-09 2.04263e-09)
(-2.40946e-09 -8.24978e-09 2.67869e-09)
(-3.59872e-09 -1.03763e-08 3.50409e-09)
(-5.27767e-09 -1.30949e-08 4.58225e-09)
(-7.60827e-09 -1.66148e-08 5.99203e-09)
(-1.07644e-08 -2.11878e-08 7.82501e-09)
(-1.48663e-08 -2.70528e-08 1.01667e-08)
(-1.98337e-08 -3.42721e-08 1.30401e-08)
(-2.51341e-08 -4.23763e-08 1.62788e-08)
(-2.94386e-08 -4.96079e-08 1.9223e-08)
(-3.3144e-08 -6.35778e-08 2.37975e-08)
(0 0 0)
(-9.62165e-11 -1.43639e-09 3.88461e-10)
(-2.27254e-10 -2.82408e-09 7.7542e-10)
(-4.32119e-10 -4.20782e-09 1.18386e-09)
(-7.55092e-10 -5.67643e-09 1.64891e-09)
(-1.24926e-09 -7.31928e-09 2.20752e-09)
(-1.98316e-09 -9.23365e-09 2.9015e-09)
(-3.0486e-09 -1.15358e-08 3.78133e-09)
(-4.56907e-09 -1.43715e-08 4.90926e-09)
(-6.7079e-09 -1.79276e-08 6.36155e-09)
(-9.67352e-09 -2.24431e-08 8.22871e-09)
(-1.37094e-08 -2.82092e-08 1.06075e-08)
(-1.90265e-08 -3.55097e-08 1.35673e-08)
(-2.56397e-08 -4.44426e-08 1.70663e-08)
(-3.30325e-08 -5.45188e-08 2.07957e-08)
(-3.95225e-08 -6.37165e-08 2.39229e-08)
(-4.88647e-08 -7.87082e-08 2.80117e-08)
(0 0 0)
(-7.06497e-11 -1.799e-09 4.91815e-10)
(-1.83216e-10 -3.52881e-09 9.79295e-10)
(-3.81113e-10 -5.24163e-09 1.49028e-09)
(-7.11427e-10 -7.0419e-09 2.06711e-09)
(-1.22953e-09 -9.02831e-09 2.75261e-09)
(-2.00546e-09 -1.13032e-08 3.59393e-09)
(-3.13115e-09 -1.39816e-08 4.64596e-09)
(-4.72831e-09 -1.71988e-08 5.97351e-09)
(-6.95663e-09 -2.11173e-08 7.65165e-09)
(-1.00221e-08 -2.59334e-08 9.76289e-09)
(-1.41818e-08 -3.18774e-08 1.23853e-08)
(-1.96984e-08 -3.91582e-08 1.5549e-08)
(-2.67104e-08 -4.78115e-08 1.91462e-08)
(-3.49258e-08 -5.73808e-08 2.27955e-08)
(-4.27679e-08 -6.60705e-08 2.56792e-08)
(-5.71506e-08 -8.06023e-08 2.89342e-08)
(0 0 0)
(-6.88278e-12 -2.07413e-09 5.75892e-10)
(-6.02156e-11 -4.06088e-09 1.14427e-09)
(-2.02718e-10 -6.01384e-09 1.73551e-09)
(-4.77259e-10 -8.04231e-09 2.39571e-09)
(-9.32708e-10 -1.02438e-08 3.17e-09)
(-1.62874e-09 -1.27124e-08 4.10642e-09)
(-2.64045e-09 -1.55427e-08 5.25813e-09)
(-4.06274e-09 -1.88317e-08 6.6842e-09)
(-6.01424e-09 -2.26771e-08 8.44771e-09)
(-8.64018e-09 -2.71693e-08 1.06088e-08)
(-1.21181e-08 -3.23804e-08 1.32104e-08)
(-1.66352e-08 -3.83143e-08 1.62295e-08)
(-2.23163e-08 -4.48146e-08 1.94982e-08)
(-2.90559e-08 -5.1469e-08 2.26028e-08)
(-3.58396e-08 -5.72831e-08 2.4835e-08)
(-5.14216e-08 -6.81068e-08 2.66882e-08)
(0 0 0)
(9.34366e-11 -2.25717e-09 6.40399e-10)
(1.37949e-10 -4.41228e-09 1.26986e-09)
(9.58928e-11 -6.51392e-09 1.91879e-09)
(-6.56019e-11 -8.66868e-09 2.6343e-09)
(-3.8216e-10 -1.09658e-08 3.4611e-09)
(-8.94304e-10 -1.34816e-08 4.44445e-09)
(-1.64821e-09 -1.62788e-08 5.63136e-09)
(-2.69441e-09 -1.94012e-08 7.06976e-09)
(-4.08319e-09 -2.28611e-08 8.80432e-09)
(-5.85506e-09 -2.66146e-08 1.08667e-08)
(-8.02702e-09 -3.05275e-08 1.32585e-08)
(-1.0559e-08 -3.43109e-08 1.59023e-08)
(-1.33116e-08 -3.74669e-08 1.8577e-08)
(-1.60382e-08 -3.94167e-08 2.08447e-08)
(-1.84079e-08 -4.00649e-08 2.21121e-08)
(-2.66172e-08 -4.2906e-08 2.14439e-08)
(0 0 0)
(2.24716e-10 -2.34982e-09 6.86694e-10)
(3.99104e-10 -4.58377e-09 1.35785e-09)
(4.93869e-10 -6.7448e-09 2.04292e-09)
(4.90014e-10 -8.93292e-09 2.78824e-09)
(3.68945e-10 -1.12242e-08 3.63572e-09)
(1.13411e-10 -1.36733e-08 4.6255e-09)
(-2.89336e-10 -1.63091e-08 5.79611e-09)
(-8.40449e-10 -1.91234e-08 7.18228e-09)
(-1.51608e-09 -2.20497e-08 8.80922e-09)
(-2.24391e-09 -2.49269e-08 1.06814e-08)
(-2.86504e-09 -2.74465e-08 1.27657e-08)
(-3.07482e-09 -2.90709e-08 1.495e-08)
(-2.35898e-09 -2.89617e-08 1.69957e-08)
(-3.41546e-11 -2.6127e-08 1.8504e-08)
(3.95276e-09 -2.0625e-08 1.9059e-08)
(1.62875e-08 -6.66585e-09 1.51825e-08)
(0 0 0)
(3.77863e-10 -2.35193e-09 7.15514e-10)
(7.04611e-10 -4.58065e-09 1.41124e-09)
(9.60755e-10 -6.72101e-09 2.11406e-09)
(1.14261e-09 -8.86297e-09 2.86779e-09)
(1.24937e-09 -1.10687e-08 3.71031e-09)
(1.28641e-09 -1.33731e-08 4.67563e-09)
(1.27123e-09 -1.57773e-08 5.79329e-09)
(1.24419e-09 -1.82349e-08 7.08556e-09)
(1.28657e-09 -2.06288e-08 8.56134e-09)
(1.55021e-09 -2.27354e-08 1.02054e-08)
(2.304e-09 -2.41753e-08 1.19634e-08)
(3.98666e-09 -2.43587e-08 1.37155e-08)
(7.26919e-09 -2.24606e-08 1.52487e-08)
(1.29998e-08 -1.76193e-08 1.62599e-08)
(2.16196e-08 -9.92975e-09 1.64753e-08)
(5.59437e-08 3.12814e-08 1.73619e-08)
(0 0 0)
(0 0 0)
(0 0 0)
(0 0 0)
(0 0 0)
(0 0 0)
(0 0 0)
(0 0 0)
(0 0 0)
(0 0 0)
(0 0 0)
(0 0 0)
(0 0 0)
(0 0 0)
(0 0 0)
(0 0 0)
(0 0 0)
(0 0 0)
(-5.23466e-11 -5.23739e-10 1.16511e-10)
(-1.17987e-10 -1.03257e-09 2.33084e-10)
(-2.13042e-10 -1.54557e-09 3.57104e-10)
(-3.5646e-10 -2.09808e-09 4.99591e-10)
(-5.71231e-10 -2.7276e-09 6.72443e-10)
(-8.87338e-10 -3.47759e-09 8.89508e-10)
(-1.34494e-09 -4.40212e-09 1.16777e-09)
(-1.9974e-09 -5.57127e-09 1.52851e-09)
(-2.91289e-09 -7.07596e-09 1.9983e-09)
(-4.17093e-09 -9.0291e-09 2.60933e-09)
(-5.84695e-09 -1.15538e-08 3.39789e-09)
(-7.97257e-09 -1.47379e-08 4.39829e-09)
(-1.04622e-08 -1.85213e-08 5.62761e-09)
(-1.30147e-08 -2.24844e-08 7.0487e-09)
(-1.50042e-08 -2.55235e-08 8.42246e-09)
(-1.86775e-08 -2.42615e-08 1.22903e-08)
(0 0 0)
(-8.96906e-11 -1.01865e-09 2.27543e-10)
(-2.047e-10 -2.00667e-09 4.54827e-10)
(-3.74918e-10 -2.99933e-09 6.95834e-10)
(-6.34999e-10 -4.06307e-09 9.71533e-10)
(-1.02669e-09 -5.26743e-09 1.30432e-09)
(-1.60412e-09 -6.69114e-09 1.7198e-09)
(-2.43951e-09 -8.43062e-09 2.24882e-09)
(-3.62898e-09 -1.06092e-08 2.92918e-09)
(-5.29629e-09 -1.33858e-08 3.80662e-09)
(-7.58973e-09 -1.6959e-08 4.93379e-09)
(-1.06598e-08 -2.15545e-08 6.36517e-09)
(-1.45924e-08 -2.736e-08 8.13886e-09)
(-1.9271e-08 -3.43574e-08 1.02363e-08)
(-2.41552e-08 -4.20021e-08 1.25065e-08)
(-2.80131e-08 -4.86126e-08 1.44926e-08)
(-3.08078e-08 -6.15835e-08 1.73817e-08)
(0 0 0)
(-9.97183e-11 -1.46073e-09 3.28696e-10)
(-2.34572e-10 -2.87285e-09 6.55896e-10)
(-4.43997e-10 -4.28294e-09 1.00081e-09)
(-7.72627e-10 -5.7824e-09 1.39276e-09)
(-1.27358e-09 -7.4632e-09 1.86218e-09)
(-2.01479e-09 -9.42527e-09 2.44286e-09)
(-3.08619e-09 -1.17873e-08 3.17436e-09)
(-4.60688e-09 -1.46968e-08 4.10338e-09)
(-6.73112e-09 -1.83393e-08 5.2833e-09)
(-9.65008e-09 -2.29462e-08 6.77079e-09)
(-1.35768e-08 -2.8788e-08 8.61582e-09)
(-1.8675e-08 -3.61075e-08 1.08287e-08)
(-2.49045e-08 -4.49425e-08 1.33212e-08)
(-3.17266e-08 -5.4762e-08 1.5827e-08)
(-3.75828e-08 -6.36292e-08 1.78009e-08)
(-4.55868e-08 -7.82784e-08 2.01666e-08)
(0 0 0)
(-7.40488e-11 -1.82888e-09 4.16155e-10)
(-1.90366e-10 -3.58838e-09 8.28327e-10)
(-3.92819e-10 -5.33293e-09 1.2598e-09)
(-7.28843e-10 -7.17011e-09 1.74592e-09)
(-1.25381e-09 -9.20163e-09 2.32194e-09)
(-2.03711e-09 -1.1533e-08 3.0258e-09)
(-3.16873e-09 -1.42827e-08 3.90021e-09)
(-4.76598e-09 -1.75892e-08 4.99288e-09)
(-6.97958e-09 -2.16174e-08 6.35406e-09)
(-9.99864e-09 -2.65633e-08 8.02971e-09)
(-1.40506e-08 -3.26519e-08 1.00466e-08)
(-1.93485e-08 -4.00768e-08 1.23698e-08)
(-2.59728e-08 -4.88542e-08 1.48393e-08)
(-3.36077e-08 -5.85216e-08 1.71183e-08)
(-4.08024e-08 -6.73068e-08 1.8709e-08)
(-5.38835e-08 -8.23747e-08 2.01213e-08)
(0 0 0)
(-9.34485e-12 -2.10756e-09 4.87272e-10)
(-6.55056e-11 -4.12736e-09 9.67822e-10)
(-2.11599e-10 -6.11535e-09 1.46706e-09)
(-4.90763e-10 -8.1841e-09 2.02343e-09)
(-9.51813e-10 -1.04343e-08 2.67405e-09)
(-1.6538e-09 -1.29635e-08 3.45748e-09)
(-2.67012e-09 -1.58703e-08 4.41468e-09)
(-4.09204e-09 -1.92566e-08 5.58809e-09)
(-6.03108e-09 -2.32259e-08 7.01703e-09)
(-8.61963e-09 -2.78766e-08 8.72711e-09)
(-1.20151e-08 -3.32954e-08 1.07121e-08)
(-1.63685e-08 -3.95048e-08 1.28862e-08)
(-2.17648e-08 -4.63795e-08 1.50258e-08)
(-2.80919e-08 -5.3553e-08 1.67492e-08)
(-3.44308e-08 -5.99854e-08 1.76562e-08)
(-4.91739e-08 -7.23986e-08 1.75474e-08)
(0 0 0)
(9.2689e-11 -2.29222e-09 5.41805e-10)
(1.36093e-10 -4.48193e-09 1.074e-09)
(9.22905e-11 -6.61986e-09 1.62196e-09)
(-7.1713e-11 -8.81573e-09 2.22498e-09)
(-3.91416e-10 -1.11619e-08 2.91982e-09)
(-9.06799e-10 -1.3738e-08 3.74269e-09)
(-1.66279e-09 -1.66111e-08 4.72948e-09)
(-2.70755e-09 -1.98308e-08 5.9135e-09)
(-4.08726e-09 -2.34178e-08 7.31919e-09)
(-5.83604e-09 -2.73427e-08 8.94946e-09)
(-7.96417e-09 -3.15012e-08 1.07664e-08)
(-1.04247e-08 -3.56556e-08 1.26429e-08)
(-1.30799e-08 -3.93919e-08 1.43129e-08)
(-1.57182e-08 -4.22419e-08 1.5369e-08)
(-1.8063e-08 -4.40346e-08 1.54871e-08)
(-2.63455e-08 -4.97848e-08 1.31057e-08)
(0 0 0)
(2.26318e-10 -2.38493e-09 5.80952e-10)
(4.01965e-10 -4.65334e-09 1.14841e-09)
(4.97529e-10 -6.85006e-09 1.72692e-09)
(4.94073e-10 -9.07795e-09 2.35515e-09)
(3.73222e-10 -1.14158e-08 3.06755e-09)
(1.18167e-10 -1.39216e-08 3.89622e-09)
(-2.83115e-10 -1.6628e-08 4.87026e-09)
(-8.30822e-10 -1.95327e-08 6.01275e-09)
(-1.5003e-09 -2.25788e-08 7.33373e-09)
(-2.21982e-09 -2.56229e-08 8.81738e-09)
(-2.83654e-09 -2.83924e-08 1.04042e-08)
(-3.07089e-09 -3.0419e-08 1.19538e-08)
(-2.46089e-09 -3.09823e-08 1.32093e-08)
(-4.25545e-10 -2.9253e-08 1.38192e-08)
(3.0207e-09 -2.52498e-08 1.3584e-08)
(1.37208e-08 -1.53993e-08 9.09394e-09)
(0 0 0)
(3.82254e-10 -2.38571e-09 6.05332e-10)
(7.13072e-10 -4.64735e-09 1.19358e-09)
(9.73022e-10 -6.82135e-09 1.78714e-09)
(1.15869e-09 -9.00014e-09 2.42261e-09)
(1.26959e-09 -1.12482e-08 3.13115e-09)
(1.31144e-09 -1.36031e-08 3.93993e-09)
(1.30204e-09 -1.60694e-08 4.87111e-09)
(1.28145e-09 -1.86059e-08 5.93852e-09)
(1.32913e-09 -2.11046e-08 7.14109e-09)
(1.59098e-09 -2.33591e-08 8.45192e-09)
(2.32022e-09 -2.50234e-08 9.80391e-09)
(3.91483e-09 -2.55726e-08 1.10693e-08)
(6.9686e-09 -2.42869e-08 1.20471e-08)
(1.21997e-08 -2.04359e-08 1.25064e-08)
(1.99356e-08 -1.40873e-08 1.23661e-08)
(4.95698e-08 2.25352e-08 1.32564e-08)
(0 0 0)
(0 0 0)
(0 0 0)
(0 0 0)
(0 0 0)
(0 0 0)
(0 0 0)
(0 0 0)
(0 0 0)
(0 0 0)
(0 0 0)
(0 0 0)
(0 0 0)
(0 0 0)
(0 0 0)
(0 0 0)
(0 0 0)
(0 0 0)
(-5.3432e-11 -5.3091e-10 9.11555e-11)
(-1.20216e-10 -1.04701e-09 1.82301e-10)
(-2.16555e-10 -1.56793e-09 2.79142e-10)
(-3.61423e-10 -2.12977e-09 3.90167e-10)
(-5.77674e-10 -2.7708e-09 5.2443e-10)
(-8.94839e-10 -3.53516e-09 6.92262e-10)
(-1.35203e-09 -4.47737e-09 9.05986e-10)
(-2.00047e-09 -5.6672e-09 1.18046e-09)
(-2.90433e-09 -7.19336e-09 1.53324e-09)
(-4.13626e-09 -9.16245e-09 1.984e-09)
(-5.76111e-09 -1.16834e-08 2.55247e-09)
(-7.79723e-09 -1.48175e-08 3.25369e-09)
(-1.01477e-08 -1.8462e-08 4.08864e-09)
(-1.25147e-08 -2.21475e-08 5.02414e-09)
(-1.43155e-08 -2.47813e-08 5.90443e-09)
(-1.76335e-08 -2.15068e-08 8.36929e-09)
(0 0 0)
(-9.16258e-11 -1.03248e-09 1.78025e-10)
(-2.08682e-10 -2.03448e-09 3.55734e-10)
(-3.8121e-10 -3.04235e-09 5.43924e-10)
(-6.43914e-10 -4.12399e-09 7.58748e-10)
(-1.03831e-09 -5.35042e-09 1.01724e-09)
(-1.6177e-09 -6.8018e-09 1.33848e-09)
(-2.4525e-09 -8.57574e-09 1.74475e-09)
(-3.63505e-09 -1.07957e-08 2.26222e-09)
(-5.2821e-09 -1.36184e-08 2.92052e-09)
(-7.52956e-09 -1.72344e-08 3.75042e-09)
(-1.05082e-08 -2.18495e-08 4.77794e-09)
(-1.42789e-08 -2.76182e-08 6.01135e-09)
(-1.87015e-08 -3.44746e-08 7.41647e-09)
(-2.32365e-08 -4.1833e-08 8.87792e-09)
(-2.67305e-08 -4.80628e-08 1.01099e-08)
(-2.88212e-08 -6.04198e-08 1.17989e-08)
(0 0 0)
(-1.02076e-10 -1.48028e-09 2.57167e-10)
(-2.39442e-10 -2.91209e-09 5.12997e-10)
(-4.51732e-10 -4.34347e-09 7.82319e-10)
(-7.83647e-10 -5.86794e-09 1.08773e-09)
(-1.28801e-09 -7.57957e-09 1.45236e-09)
(-2.03182e-09 -9.5805e-09 1.9013e-09)
(-3.10278e-09 -1.19917e-08 2.46299e-09)
(-4.61559e-09 -1.49624e-08 3.16922e-09)
(-6.71637e-09 -1.86785e-08 4.05335e-09)
(-9.58088e-09 -2.3367e-08 5.14494e-09)
(-1.33978e-08 -2.92855e-08 6.4602e-09)
(-1.83006e-08 -3.66592e-08 7.97825e-09)
(-2.42171e-08 -4.55004e-08 9.60524e-09)
(-3.06047e-08 -5.52649e-08 1.11449e-08)
(-3.59998e-08 -6.40568e-08 1.2281e-08)
(-4.3077e-08 -7.87414e-08 1.35265e-08)
(0 0 0)
(-7.6271e-11 -1.85285e-09 3.25594e-10)
(-1.94997e-10 -3.63636e-09 6.47859e-10)
(-4.00258e-10 -5.40673e-09 9.84769e-10)
(-7.39568e-10 -7.27409e-09 1.36357e-09)
(-1.26802e-09 -9.34276e-09 1.81101e-09)
(-2.05409e-09 -1.17212e-08 2.35522e-09)
(-3.18571e-09 -1.45312e-08 3.02659e-09)
(-4.77616e-09 -1.79155e-08 3.85687e-09)
(-6.96891e-09 -2.20437e-08 4.87537e-09)
(-9.93942e-09 -2.71152e-08 6.10043e-09)
(-1.3894e-08 -3.33603e-08 7.52608e-09)
(-1.90189e-08 -4.09813e-08 9.08975e-09)
(-2.53668e-08 -5.00015e-08 1.06352e-08)
(-3.26172e-08 -5.99655e-08 1.19144e-08)
(-3.94006e-08 -6.90688e-08 1.26736e-08)
(-5.16383e-08 -8.49109e-08 1.31052e-08)
(0 0 0)
(-1.08231e-11 -2.13445e-09 3.81229e-10)
(-6.86737e-11 -4.18106e-09 7.56957e-10)
(-2.16867e-10 -6.19771e-09 1.14679e-09)