/*--------------------------------*- C++ -*----------------------------------*\
| =========                 |                                                 |
| \\      /  F ield         | foam-extend: Open Source CFD                    |
|  \\    /   O peration     | Version:     3.1                                |
|   \\  /    A nd           | Web:         http://www.extend-project.de       |
|    \\/     M anipulation  |                                                 |
\*---------------------------------------------------------------------------*/
FoamFile
{
    version     2.0;
    format      ascii;
    class       surfaceVectorField;
    location    "0.7";
    object      Sf;
}
// * * * * * * * * * * * * * * * * * * * * * * * * * * * * * * * * * * * * * //

dimensions      [0 2 0 0 0 0 0];

internalField   nonuniform List<vector> 
41600
(
(0.00062571 -5.95483e-06 -4.79179e-08)
(-7.11582e-07 0.000709078 -2.08626e-08)
(-5.36742e-08 -6.03835e-08 0.000706537)
(5.51064e-08 6.19947e-08 -0.000706468)
(0.000626394 -1.14697e-05 -9.26451e-08)
(-6.85143e-07 0.000708635 -6.25688e-08)
(-5.30776e-08 -1.80445e-07 0.000707122)
(5.45141e-08 1.85283e-07 -0.000707015)
(0.000627069 -1.6501e-05 -1.34932e-07)
(-6.7701e-07 0.000708148 -1.05569e-07)
(-5.5147e-08 -3.02067e-07 0.000707666)
(5.66656e-08 3.10226e-07 -0.000707518)
(0.000627775 -2.11805e-05 -1.77028e-07)
(-7.06879e-07 0.000707793 -1.53197e-07)
(-6.14041e-08 -4.32898e-07 0.000708292)
(6.31126e-08 4.44681e-07 -0.000708096)
(0.000628546 -2.56168e-05 -2.20714e-07)
(-7.73843e-07 0.000707545 -2.09581e-07)
(-7.20233e-08 -5.82484e-07 0.00070903)
(7.40252e-08 5.98429e-07 -0.000708777)
(0.000629424 -2.98966e-05 -2.67175e-07)
(-8.80132e-07 0.000707384 -2.79388e-07)
(-8.76382e-08 -7.61248e-07 0.000709916)
(9.00409e-08 7.82129e-07 -0.00070959)
(0.000630452 -3.40821e-05 -3.16783e-07)
(-1.03094e-06 0.000707284 -3.68389e-07)
(-1.09444e-07 -9.8161e-07 0.000710986)
(1.12366e-07 1.00845e-06 -0.000710568)
(0.000631683 -3.82043e-05 -3.6877e-07)
(-1.23495e-06 0.000707213 -4.84036e-07)
(-1.39453e-07 -1.2595e-06 0.000712283)
(1.43033e-07 1.29362e-06 -0.000711747)
(0.000633183 -4.225e-05 -4.20723e-07)
(-1.50404e-06 0.000707128 -6.36466e-07)
(-1.81024e-07 -1.61667e-06 0.000713853)
(1.85434e-07 1.65974e-06 -0.000713165)
(0.000635031 -4.61429e-05 -4.68271e-07)
(-1.85372e-06 0.000706964 -8.40193e-07)
(-2.39899e-07 -2.08474e-06 0.000715753)
(2.45351e-07 2.13885e-06 -0.000714865)
(0.000637328 -4.97193e-05 -5.05683e-07)
(-2.30301e-06 0.000706634 -1.11702e-06)
(-3.26181e-07 -2.71233e-06 0.000718049)
(3.3292e-07 2.78012e-06 -0.000716894)
(0.000640191 -5.27092e-05 -5.29479e-07)
(-2.87177e-06 0.00070603 -1.50213e-06)
(-4.57819e-07 -3.57806e-06 0.000720826)
(4.66017e-07 3.66264e-06 -0.0007193)
(0.000643751 -5.47531e-05 -5.50791e-07)
(-3.56979e-06 0.000705064 -2.05627e-06)
(-6.64679e-07 -4.8115e-06 0.000724215)
(6.74304e-07 4.91611e-06 -0.000722137)
(0.000648064 -5.55266e-05 -6.27833e-07)
(-4.32668e-06 0.000703768 -2.88307e-06)
(-9.76891e-07 -6.60701e-06 0.000728418)
(9.9076e-07 6.73718e-06 -0.000725458)
(0.00065251 -5.49514e-05 -9.5244e-07)
(-4.51621e-06 0.000702336 -4.09728e-06)
(-1.27419e-06 -9.07098e-06 0.000733435)
(1.34464e-06 9.28529e-06 -0.000729013)
(-1.82948e-05 0.0006965 9.36343e-07)
(-4.5497e-06 -1.52012e-05 0.000744371)
(1.01783e-05 2.12202e-05 -0.000743264)
(0.000625674 -5.85467e-06 -1.4257e-07)
(-1.39013e-06 0.000714931 -4.08897e-08)
(-1.59171e-07 -5.8292e-08 0.00071247)
(1.63422e-07 5.98518e-08 -0.000712308)
(0.000626322 -1.12742e-05 -2.75629e-07)
(-1.33742e-06 0.00071405 -1.22528e-07)
(-1.57287e-07 -1.74008e-07 0.000712576)
(1.61549e-07 1.78688e-07 -0.000712383)
(0.00062696 -1.62155e-05 -4.01409e-07)
(-1.31949e-06 0.000713081 -2.06489e-07)
(-1.6319e-07 -2.90673e-07 0.000712597)
(1.67692e-07 2.98555e-07 -0.00071237)
(0.000627623 -2.08077e-05 -5.2664e-07)
(-1.37449e-06 0.000712374 -2.99207e-07)
(-1.81342e-07 -4.15257e-07 0.000712827)
(1.86401e-07 4.26618e-07 -0.000712556)
(0.000628343 -2.51578e-05 -6.56682e-07)
(-1.50008e-06 0.00071188 -4.08559e-07)
(-2.12157e-07 -5.56378e-07 0.000713271)
(2.18075e-07 5.71713e-07 -0.000712942)
(0.000629155 -2.93533e-05 -7.95182e-07)
(-1.69944e-06 0.000711559 -5.43455e-07)
(-2.57333e-07 -7.23146e-07 0.000713936)
(2.64421e-07 7.43163e-07 -0.000713534)
(0.000630097 -3.3461e-05 -9.43476e-07)
(-1.98162e-06 0.000711366 -7.1472e-07)
(-3.20064e-07 -9.25931e-07 0.000714829)
(3.28663e-07 9.51567e-07 -0.000714334)
(0.000631213 -3.7522e-05 -1.09961e-06)
(-2.36098e-06 0.000711242 -9.36127e-07)
(-4.05631e-07 -1.1772e-06 0.000715951)
(4.1614e-07 1.20964e-06 -0.000715343)
(0.000632553 -4.1542e-05 -1.25688e-06)
(-2.85679e-06 0.000711107 -1.22615e-06)
(-5.2261e-07 -1.49249e-06 0.000717295)
(5.35511e-07 1.53324e-06 -0.000716548)
(0.000634176 -4.54748e-05 -1.40255e-06)
(-3.49247e-06 0.000710846 -1.6105e-06)
(-6.85091e-07 -1.8916e-06 0.000718832)
(7.00993e-07 1.94254e-06 -0.000717916)
(0.000636144 -4.92012e-05 -1.51835e-06)
(-4.29087e-06 0.000710297 -2.12642e-06)
(-9.16558e-07 -2.39954e-06 0.000720507)
(9.36201e-07 2.46308e-06 -0.000719381)
(0.000638508 -5.24965e-05 -1.58768e-06)
(-5.2601e-06 0.000709246 -2.83068e-06)
(-1.25531e-06 -3.04536e-06 0.00072223)
(1.27938e-06 3.12465e-06 -0.000720832)
(0.000641263 -5.50164e-05 -1.62305e-06)
(-6.35396e-06 0.000707485 -3.81464e-06)
(-1.75665e-06 -3.85305e-06 0.000723904)
(1.7855e-06 3.95205e-06 -0.00072211)
(0.00064422 -5.63466e-05 -1.74006e-06)
(-7.32357e-06 0.000704975 -5.22369e-06)
(-2.44794e-06 -4.80756e-06 0.000725508)
(2.48832e-06 4.9307e-06 -0.000723051)
(0.000646565 -5.62079e-05 -2.37797e-06)
(-7.02341e-06 0.000702049 -7.23448e-06)
(-2.98209e-06 -5.77836e-06 0.000727156)
(3.14439e-06 5.92604e-06 -0.000723381)
(-1.69538e-05 0.000690683 -3.36252e-06)
(-7.95638e-06 -4.60219e-06 0.000725527)
(1.68238e-05 1.40892e-06 -0.000716988)
(0.000625609 -5.66312e-06 -2.33742e-07)
(-2.00596e-06 0.000720593 -5.91015e-08)
(-2.59296e-07 -5.4299e-08 0.000718238)
(2.66233e-07 5.57605e-08 -0.000717986)
(0.000626192 -1.09015e-05 -4.51828e-07)
(-1.9275e-06 0.000719284 -1.76933e-07)
(-2.55878e-07 -1.61813e-07 0.000717838)
(2.62827e-07 1.66193e-07 -0.000717566)
(0.000626762 -1.56705e-05 -6.57901e-07)
(-1.89679e-06 0.000717843 -2.97708e-07)
(-2.64755e-07 -2.69353e-07 0.000717308)
(2.72084e-07 2.76713e-07 -0.000717011)
(0.000627348 -2.0094e-05 -8.63095e-07)
(-1.96838e-06 0.000716786 -4.30449e-07)
(-2.93047e-07 -3.82708e-07 0.000717108)
(3.01261e-07 3.93279e-07 -0.000716772)
(0.000627975 -2.42764e-05 -1.07641e-06)
(-2.13745e-06 0.000716048 -5.86195e-07)
(-3.41151e-07 -5.08946e-07 0.000717215)
(3.50729e-07 5.23145e-07 -0.000716824)
(0.000628671 -2.83065e-05 -1.30423e-06)
(-2.4066e-06 0.000715571 -7.77244e-07)
(-4.113e-07 -6.55075e-07 0.000717608)
(4.22727e-07 6.73497e-07 -0.000717146)
(0.000629462 -3.22581e-05 -1.54938e-06)
(-2.78586e-06 0.000715294 -1.01823e-06)
(-5.07699e-07 -8.28297e-07 0.000718264)
(5.21497e-07 8.51712e-07 -0.000717715)
(0.000630375 -3.6189e-05 -1.80979e-06)
(-3.29092e-06 0.000715143 -1.32744e-06)
(-6.37055e-07 -1.03595e-06 0.000719146)
(6.53817e-07 1.06531e-06 -0.000718494)
(0.00063144 -4.01366e-05 -2.07612e-06)
(-3.94235e-06 0.000715018 -1.7289e-06)
(-8.09651e-07 -1.28491e-06 0.000720194)
(8.30078e-07 1.32136e-06 -0.000719425)
(0.000632685 -4.41088e-05 -2.32901e-06)
(-4.76233e-06 0.000714773 -2.2551e-06)
(-1.04106e-06 -1.57977e-06 0.000721305)
(1.06603e-06 1.62467e-06 -0.000720407)
(0.000634126 -4.8066e-05 -2.5371e-06)
(-5.76296e-06 0.000714199 -2.95137e-06)
(-1.35407e-06 -1.91805e-06 0.000722311)
(1.3847e-06 1.97306e-06 -0.000721278)
(0.000635749 -5.18932e-05 -2.661e-06)
(-6.92048e-06 0.000713006 -3.88338e-06)
(-1.77892e-06 -2.27932e-06 0.000722958)
(1.81642e-06 2.34653e-06 -0.000721782)
(0.000637462 -5.53531e-05 -2.67917e-06)
(-8.11222e-06 0.000710863 -5.15189e-06)
(-2.34228e-06 -2.60393e-06 0.000722928)
(2.38762e-06 2.68579e-06 -0.000721572)
(0.000639015 -5.80659e-05 -2.66673e-06)
(-8.93662e-06 0.000707591 -6.91558e-06)
(-2.99392e-06 -2.76473e-06 0.000722004)
(3.05385e-06 2.86136e-06 -0.000720325)
(0.000639841 -5.96144e-05 -3.07343e-06)
(-8.02123e-06 0.000703518 -9.41204e-06)
(-3.26447e-06 -2.61613e-06 0.000720522)
(3.43685e-06 2.69602e-06 -0.000717938)
(-1.9591e-05 0.000693509 -4.6748e-06)
(-5.94774e-06 -1.24012e-06 0.00071537)
(1.19335e-05 3.09793e-07 -0.000710088)
(0.000625518 -5.38403e-06 -3.19219e-07)
(-2.53344e-06 0.000725976 -7.4683e-08)
(-3.51024e-07 -4.87483e-08 0.000723753)
(3.60439e-07 5.00718e-08 -0.000723418)
(0.000626011 -1.0357e-05 -6.16945e-07)
(-2.43021e-06 0.000724253 -2.23326e-07)
(-3.45701e-07 -1.44895e-07 0.000722829)
(3.55121e-07 1.48854e-07 -0.000722485)
(0.000626488 -1.48728e-05 -8.98061e-07)
(-2.38334e-06 0.000722352 -3.75006e-07)
(-3.56267e-07 -2.39921e-07 0.000721729)
(3.66176e-07 2.46552e-07 -0.000721371)
(0.000626969 -1.90482e-05 -1.17791e-06)
(-2.46091e-06 0.000720952 -5.40746e-07)
(-3.9213e-07 -3.38189e-07 0.000721073)
(4.03195e-07 3.4766e-07 -0.000720683)
(0.000627474 -2.29831e-05 -1.46921e-06)
(-2.65443e-06 0.000719971 -7.33996e-07)
(-4.53337e-07 -4.44927e-07 0.000720809)
(4.66176e-07 4.57554e-07 -0.00072037)
(0.000628016 -2.67643e-05 -1.78151e-06)
(-2.96429e-06 0.000719336 -9.69353e-07)
(-5.41988e-07 -5.64716e-07 0.000720891)
(5.57216e-07 5.80941e-07 -0.000720386)
(0.00062861 -3.04709e-05 -2.11957e-06)
(-3.39805e-06 0.00071898 -1.26371e-06)
(-6.62151e-07 -7.01326e-07 0.000721269)
(6.80416e-07 7.21709e-07 -0.000720686)
(0.000629266 -3.41783e-05 -2.48294e-06)
(-3.96896e-06 0.000718826 -1.63784e-06)
(-8.19975e-07 -8.57057e-07 0.00072188)
(8.4196e-07 8.82242e-07 -0.000721206)
(0.000629991 -3.79586e-05 -2.86238e-06)
(-4.69358e-06 0.000718768 -2.11841e-06)
(-1.02394e-06 -1.0311e-06 0.000722624)
(1.05041e-06 1.06175e-06 -0.000721855)
(0.000630783 -4.18814e-05 -3.23578e-06)
(-5.58659e-06 0.000718659 -2.74087e-06)
(-1.28506e-06 -1.21621e-06 0.000723351)
(1.3169e-06 1.25295e-06 -0.000722492)
(0.000631628 -4.6008e-05 -3.56293e-06)
(-6.64648e-06 0.000718282 -3.55376e-06)
(-1.61514e-06 -1.39256e-06 0.000723825)
(1.65349e-06 1.43586e-06 -0.000722895)
(0.000632485 -5.03773e-05 -3.7811e-06)
(-7.8233e-06 0.000717326 -4.62626e-06)
(-2.0209e-06 -1.51719e-06 0.0007237)
(2.06694e-06 1.5672e-06 -0.000722739)
(0.000633267 -5.49295e-05 -3.8192e-06)
(-8.94836e-06 0.00071536 -6.06467e-06)
(-2.48392e-06 -1.51087e-06 0.000722522)
(2.53833e-06 1.56689e-06 -0.000721572)
(0.000633825 -5.93723e-05 -3.65787e-06)
(-9.56081e-06 0.000711977 -8.04401e-06)
(-2.89174e-06 -1.26336e-06 0.000719935)
(2.95813e-06 1.32092e-06 -0.000718968)
(0.000633931 -6.30137e-05 -3.5847e-06)
(-8.26822e-06 0.000707133 -1.08747e-05)
(-2.81452e-06 -7.48407e-07 0.00071628)
(2.95554e-06 7.74911e-07 -0.00071489)
(-2.00047e-05 0.000699291 -5.87687e-06)
(-4.2369e-06 6.71988e-07 0.000710082)
(8.95209e-06 -2.09733e-06 -0.000706558)
(0.000625407 -5.02263e-06 -3.96961e-07)
(-2.95246e-06 0.000730997 -8.69886e-08)
(-4.31978e-07 -4.20125e-08 0.000728931)
(4.43601e-07 4.31674e-08 -0.000728522)
(0.000625792 -9.65205e-06 -7.67042e-07)
(-2.8264e-06 0.000728879 -2.5979e-07)
(-4.24307e-07 -1.24438e-07 0.000727476)
(4.35915e-07 1.27884e-07 -0.00072707)
(0.000626157 -1.38416e-05 -1.11606e-06)
(-2.76078e-06 0.000726536 -4.35263e-07)
(-4.35069e-07 -2.0461e-07 0.000725799)
(4.47239e-07 2.1035e-07 -0.00072539)
(0.000626516 -1.76979e-05 -1.46317e-06)
(-2.83359e-06 0.000724801 -6.2579e-07)
(-4.75551e-07 -2.85392e-07 0.000724671)
(4.89074e-07 2.93527e-07 -0.000724239)
(0.000626878 -2.13105e-05 -1.82487e-06)
(-3.0319e-06 0.000723572 -8.46324e-07)
(-5.45099e-07 -3.70103e-07 0.000724013)
(5.6069e-07 3.80832e-07 -0.000723539)
(0.000627248 -2.47598e-05 -2.21392e-06)
(-3.35192e-06 0.000722772 -1.11264e-06)
(-6.45098e-07 -4.6098e-07 0.000723757)
(6.63464e-07 4.74588e-07 -0.000723224)
(0.000627624 -2.81252e-05 -2.63744e-06)
(-3.79677e-06 0.000722329 -1.44232e-06)
(-7.78622e-07 -5.58866e-07 0.000723833)
(8.00473e-07 5.75705e-07 -0.000723231)
(0.000628003 -3.14895e-05 -3.09851e-06)
(-4.37351e-06 0.000722169 -1.85655e-06)
(-9.49841e-07 -6.62263e-07 0.00072416)
(9.75818e-07 6.82652e-07 -0.000723481)
(0.000628369 -3.49471e-05 -3.59139e-06)
(-5.0907e-06 0.000722201 -2.38216e-06)
(-1.16332e-06 -7.65419e-07 0.000724622)
(1.19407e-06 7.89534e-07 -0.000723866)
(0.000628701 -3.86177e-05 -4.09677e-06)
(-5.9543e-06 0.000722302 -3.05462e-06)
(-1.42287e-06 -8.55388e-07 0.000725053)
(1.45901e-06 8.83091e-07 -0.000724234)
(0.000628967 -4.26613e-05 -4.57458e-06)
(-6.95504e-06 0.000722295 -3.92316e-06)
(-1.72731e-06 -9.07847e-07 0.000725211)
(1.76945e-06 9.38401e-07 -0.000724364)
(0.000629132 -4.72685e-05 -4.9509e-06)
(-8.03601e-06 0.000721901 -5.05983e-06)
(-2.06071e-06 -8.81219e-07 0.000724742)
(2.10925e-06 9.12886e-07 -0.000723932)
(0.000629157 -5.25883e-05 -5.11376e-06)
(-9.02829e-06 0.00072065 -6.57997e-06)
(-2.37272e-06 -7.13591e-07 0.000723139)
(2.42709e-06 7.43039e-07 -0.000722461)
(0.000629018 -5.8477e-05 -4.92849e-06)
(-9.48208e-06 0.000717844 -8.6813e-06)
(-2.5337e-06 -3.42043e-07 0.000719847)
(2.59429e-06 3.62914e-07 -0.000719395)
(0.000628672 -6.39229e-05 -4.36632e-06)
(-8.02566e-06 0.000712589 -1.17301e-05)
(-2.22717e-06 2.00664e-07 0.000714629)
(2.33082e-06 -2.11264e-07 -0.000714336)
(-1.95324e-05 0.000707387 -6.48088e-06)
(-2.75039e-06 1.29968e-06 0.000708389)
(5.96163e-06 -2.35799e-06 -0.000707611)
(0.000625283 -4.58669e-06 -4.65308e-07)
(-3.24907e-06 0.000735583 -9.55723e-08)
(-5.0049e-07 -3.45256e-08 0.000733698)
(5.14006e-07 3.54916e-08 -0.000733224)
(0.000625547 -8.80647e-06 -8.9893e-07)
(-3.10379e-06 0.000733096 -2.85084e-07)
(-4.90111e-07 -1.01851e-07 0.000731718)
(5.03578e-07 1.04719e-07 -0.00073126)
(0.000625791 -1.2609e-05 -1.30706e-06)
(-3.01858e-06 0.000730334 -4.76574e-07)
(-4.9962e-07 -1.6603e-07 0.00072947)
(5.13683e-07 1.70773e-07 -0.000729021)
(0.000626019 -1.60842e-05 -1.7122e-06)
(-3.07743e-06 0.000728269 -6.83098e-07)
(-5.41749e-07 -2.28415e-07 0.000727865)
(5.57288e-07 2.35074e-07 -0.000727403)
(0.000626232 -1.93073e-05 -2.13426e-06)
(-3.26291e-06 0.000726787 -9.20236e-07)
(-6.14921e-07 -2.90543e-07 0.000726799)
(6.32701e-07 2.99211e-07 -0.000726303)
(0.000626426 -2.2348e-05 -2.58863e-06)
(-3.56594e-06 0.000725801 -1.20374e-06)
(-7.1947e-07 -3.52724e-07 0.000726184)
(7.40264e-07 3.6354e-07 -0.000725639)
(0.000626587 -2.52749e-05 -3.08555e-06)
(-3.9831e-06 0.000725242 -1.55056e-06)
(-8.57006e-07 -4.13628e-07 0.000725938)
(8.81515e-07 4.26742e-07 -0.000725333)
(0.000626698 -2.81614e-05 -3.63297e-06)
(-4.51285e-06 0.000725041 -1.98071e-06)
(-1.02914e-06 -4.69425e-07 0.00072597)
(1.05784e-06 4.84863e-07 -0.000725299)
(0.000626728 -3.11018e-05 -4.23125e-06)
(-5.15356e-06 0.000725124 -2.51906e-06)
(-1.23615e-06 -5.12384e-07 0.000726163)
(1.26944e-06 5.29903e-07 -0.000725428)
(0.000626637 -3.4233e-05 -4.86894e-06)
(-5.9022e-06 0.000725414 -3.19851e-06)
(-1.47532e-06 -5.29201e-07 0.000726366)
(1.51332e-06 5.48127e-07 -0.000725584)
(0.000626387 -3.77627e-05 -5.51623e-06)
(-6.74712e-06 0.000725806 -4.06641e-06)
(-1.73604e-06 -4.99554e-07 0.000726378)
(1.77846e-06 5.18386e-07 -0.000725588)
(0.00062595 -4.19823e-05 -6.10939e-06)
(-7.64502e-06 0.000726105 -5.19689e-06)
(-1.98884e-06 -3.95501e-07 0.000725902)
(2.03465e-06 4.11289e-07 -0.000725172)
(0.000625356 -4.72613e-05 -6.52864e-06)
(-8.48033e-06 0.000725921 -6.71966e-06)
(-2.17128e-06 -1.86075e-07 0.000724484)
(2.21806e-06 1.93715e-07 -0.000723925)
(0.000624734 -5.38151e-05 -6.54737e-06)
(-8.90691e-06 0.000724407 -8.87107e-06)
(-2.16316e-06 1.4254e-07 0.000721427)
(2.20936e-06 -1.50838e-07 -0.000721218)
(0.000624244 -6.07792e-05 -5.68438e-06)
(-7.60805e-06 0.000719592 -1.20726e-05)
(-1.74245e-06 5.31817e-07 0.000715535)
(1.8149e-06 -5.70611e-07 -0.000716056)
(-1.86989e-05 0.000718781 -6.72361e-06)
(-1.70972e-06 1.21575e-06 0.000710851)
(3.8288e-06 -2.01755e-06 -0.0007131)
(0.000625152 -4.09236e-06 -5.23144e-07)
(-3.41618e-06 0.000739674 -1.00265e-07)
(-5.55728e-07 -2.68185e-08 0.000737989)
(5.70797e-07 2.75843e-08 -0.000737462)
(0.00062529 -7.84989e-06 -1.01019e-06)
(-3.25682e-06 0.000736851 -2.98716e-07)
(-5.42445e-07 -7.87036e-08 0.000735507)
(5.57419e-07 8.09711e-08 -0.000735006)
(0.000625409 -1.12159e-05 -1.46749e-06)
(-3.1533e-06 0.000733696 -4.98291e-07)
(-5.49444e-07 -1.26807e-07 0.000732707)
(5.65007e-07 1.30521e-07 -0.000732228)
(0.000625507 -1.42601e-05 -1.91997e-06)
(-3.19218e-06 0.000731308 -7.12046e-07)
(-5.90511e-07 -1.7113e-07 0.000730629)
(6.07604e-07 1.76269e-07 -0.000730147)
(0.000625576 -1.70409e-05 -2.39006e-06)
(-3.35171e-06 0.000729561 -9.55284e-07)
(-6.63125e-07 -2.11728e-07 0.000729146)
(6.82535e-07 2.18302e-07 -0.000728641)
(0.000625605 -1.96095e-05 -2.89517e-06)
(-3.61706e-06 0.000728362 -1.24293e-06)
(-7.66432e-07 -2.47459e-07 0.000728157)
(7.88947e-07 2.55476e-07 -0.000727612)
(0.000625572 -2.20128e-05 -3.4492e-06)
(-3.97692e-06 0.000727636 -1.59035e-06)
(-9.00409e-07 -2.7554e-07 0.000727567)
(9.2666e-07 2.84952e-07 -0.000726973)
(0.00062545 -2.43012e-05 -4.06494e-06)
(-4.42023e-06 0.000727318 -2.01502e-06)
(-1.06428e-06 -2.91028e-07 0.000727279)
(1.09455e-06 3.01647e-07 -0.000726629)
(0.000625195 -2.65414e-05 -4.74847e-06)
(-4.93376e-06 0.000727353 -2.53808e-06)
(-1.25497e-06 -2.86221e-07 0.000727183)
(1.28933e-06 2.97613e-07 -0.000726481)
(0.000624758 -2.88358e-05 -5.49798e-06)
(-5.50241e-06 0.000727697 -3.18698e-06)
(-1.46543e-06 -2.50165e-07 0.000727156)
(1.50349e-06 2.61495e-07 -0.000726418)
(0.000624079 -3.13467e-05 -6.30079e-06)
(-6.10857e-06 0.000728307 -4.00251e-06)
(-1.68059e-06 -1.69165e-07 0.000727045)
(1.72106e-06 1.78841e-07 -0.000726306)
(0.000623118 -3.43334e-05 -7.12219e-06)
(-6.72458e-06 0.000729087 -5.05373e-06)
(-1.86803e-06 -3.02385e-08 0.000726627)
(1.9082e-06 3.52713e-08 -0.000725948)
(0.000621919 -3.82329e-05 -7.88304e-06)
(-7.31602e-06 0.000729826 -6.47693e-06)
(-1.97043e-06 1.69503e-07 0.000725572)
(2.00545e-06 -1.74522e-07 -0.000725054)
(0.000620764 -4.36795e-05 -8.36978e-06)
(-7.77817e-06 0.000729878 -8.56063e-06)
(-1.8931e-06 4.02389e-07 0.000723279)
(1.91855e-06 -4.27227e-07 -0.000723103)
(0.0006203 -5.08661e-05 -7.70384e-06)
(-7.18484e-06 0.000726839 -1.18627e-05)
(-1.47304e-06 5.83755e-07 0.000717961)
(1.51468e-06 -6.44432e-07 -0.000718837)
(-1.89892e-05 0.000738448 -6.65307e-06)
(-1.22776e-06 7.56906e-07 0.000720437)
(2.60479e-06 -1.28727e-06 -0.000726009)
(0.00062502 -3.55271e-06 -5.69912e-07)
(-5.97696e-07 -1.93296e-08 0.000741758)
(6.13966e-07 1.98943e-08 -0.000741187)
(-3.45268e-06 0.000743227 -1.01101e-07)
(0.000625033 -6.80647e-06 -1.09947e-06)
(-5.81446e-07 -5.62906e-08 0.000738806)
(5.97575e-07 5.79573e-08 -0.000738274)
(-3.28555e-06 0.000740103 -3.00841e-07)
(0.000625031 -9.70095e-06 -1.5952e-06)
(-5.8497e-07 -8.91316e-08 0.000735484)
(6.01646e-07 9.18334e-08 -0.000734986)
(-3.16772e-06 0.000736588 -5.00796e-07)
(0.000625005 -1.22834e-05 -2.08345e-06)
(-6.22762e-07 -1.16782e-07 0.000732945)
(6.40954e-07 1.20445e-07 -0.000732456)
(-3.18475e-06 0.000733887 -7.13495e-07)
(0.000624944 -1.45904e-05 -2.58802e-06)
(-6.91433e-07 -1.38107e-07 0.000731046)
(7.11939e-07 1.42665e-07 -0.000730544)
(-3.31121e-06 0.000731864 -9.53315e-07)
(0.00062483 -1.66497e-05 -3.12791e-06)
(-7.88957e-07 -1.50923e-07 0.000729669)
(8.12518e-07 1.5627e-07 -0.000729138)
(-3.52661e-06 0.000730416 -1.23378e-06)
(0.000624638 -1.84813e-05 -3.71997e-06)
(-9.13764e-07 -1.51609e-07 0.000728711)
(9.4091e-07 1.57544e-07 -0.000728141)
(-3.81217e-06 0.000729462 -1.56802e-06)
(0.000624334 -2.01038e-05 -4.37955e-06)
(-1.06323e-06 -1.34872e-07 0.000728068)
(1.09411e-06 1.41113e-07 -0.000727453)
(-4.14695e-06 0.000728935 -1.97009e-06)
(0.000623871 -2.15378e-05 -5.1158e-06)
(-1.23217e-06 -9.37693e-08 0.000727634)
(1.26661e-06 9.99009e-08 -0.00072698)
(-4.5053e-06 0.000728781 -2.45596e-06)
(0.000623187 -2.28101e-05 -5.93443e-06)
(-1.41137e-06 -1.98911e-08 0.0007273)
(1.44855e-06 2.52355e-08 -0.000726623)
(-4.85565e-06 0.000728964 -3.04513e-06)
(0.000622199 -2.39543e-05 -6.83688e-06)
(-1.58464e-06 9.57324e-08 0.000726927)
(1.6226e-06 -9.21936e-08 -0.000726262)
(-5.15818e-06 0.000729448 -3.76519e-06)
(0.000620796 -2.5024e-05 -7.81543e-06)
(-1.72277e-06 2.5894e-07 0.000726293)
(1.75783e-06 -2.58528e-07 -0.000725707)
(-5.35741e-06 0.000730156 -4.66081e-06)
(0.000618825 -2.61304e-05 -8.8454e-06)
(-1.77997e-06 4.65555e-07 0.000725016)
(1.8061e-06 -4.69537e-07 -0.000724646)
(-5.37078e-06 0.000730936 -5.81603e-06)
(0.00061604 -2.75765e-05 -9.82092e-06)
(-1.68793e-06 6.90583e-07 0.0007222)
(1.69938e-06 -6.99616e-07 -0.000722389)
(-5.0044e-06 0.000731333 -7.39641e-06)
(0.000612094 -3.08172e-05 -1.00208e-05)
(-1.32828e-06 8.64613e-07 0.000715318)
(1.34754e-06 -8.85208e-07 -0.000717299)
(-3.25811e-06 0.000730101 -9.68121e-06)
(-1.60773e-06 4.61814e-07 0.000741135)
(2.58782e-06 -7.17291e-07 -0.000750877)
(-2.67289e-05 0.00077615 -5.21975e-06)
(0.000625743 -6.04528e-06 -4.23183e-08)
(-7.46911e-07 0.000709166 -1.91188e-08)
(-5.0255e-08 -5.65369e-08 0.000706599)
(0.000626461 -1.16452e-05 -8.19797e-08)
(-7.20428e-07 0.000708713 -5.72728e-08)
(-4.96786e-08 -1.6893e-07 0.000707219)
(0.000627171 -1.67574e-05 -1.19531e-07)
(-7.14395e-07 0.000708218 -9.63708e-08)
(-5.15834e-08 -2.82727e-07 0.0007078)
(0.000627917 -2.15177e-05 -1.56737e-07)
(-7.49589e-07 0.000707857 -1.39171e-07)
(-5.73915e-08 -4.05053e-07 0.000708468)
(0.000628737 -2.60379e-05 -1.94915e-07)
(-8.25242e-07 0.000707608 -1.88994e-07)
(-6.7248e-08 -5.44787e-07 0.000709257)
(0.000629676 -3.0407e-05 -2.34852e-07)
(-9.44068e-07 0.000707444 -2.49318e-07)
(-8.17047e-08 -7.11562e-07 0.000710205)
(0.00063078 -3.46882e-05 -2.767e-07)
(-1.11215e-06 0.000707341 -3.24058e-07)
(-1.01788e-07 -9.16734e-07 0.000711352)
(0.000632109 -3.89114e-05 -3.19826e-07)
(-1.33924e-06 0.000707263 -4.17621e-07)
(-1.29164e-07 -1.1746e-06 0.000712743)
(0.000633733 -4.30599e-05 -3.62499e-07)
(-1.63889e-06 0.000707161 -5.34772e-07)
(-1.66476e-07 -1.50415e-06 0.000714431)
(0.00063574 -4.70513e-05 -4.02348e-07)
(-2.02871e-06 0.000706963 -6.80074e-07)
(-2.17914e-07 -1.93175e-06 0.000716473)
(0.000638234 -5.07159e-05 -4.38275e-07)
(-2.53004e-06 0.000706573 -8.55594e-07)
(-2.90038e-07 -2.49532e-06 0.00071894)
(0.000641333 -5.3784e-05 -4.75229e-07)
(-3.16433e-06 0.000705865 -1.05402e-06)
(-3.92322e-07 -3.24998e-06 0.000721917)
(0.000645139 -5.59245e-05 -5.34672e-07)
(-3.93701e-06 0.000704725 -1.2387e-06)
(-5.34264e-07 -4.27122e-06 0.000725513)
(0.000649619 -5.69047e-05 -6.65109e-07)
(-4.75233e-06 0.000703131 -1.29586e-06)
(-7.03993e-07 -5.63326e-06 0.000729845)
(0.000654056 -5.68639e-05 -9.12051e-07)
(-4.93737e-06 0.00070128 -1.01974e-06)
(-7.7422e-07 -7.26708e-06 0.000734702)
(-1.31124e-05 0.000700151 -5.06579e-07)
(-1.95846e-06 -1.02174e-05 0.000745833)
(0.000625702 -5.94297e-06 -1.26045e-07)
(-1.459e-06 0.000715106 -3.75042e-08)
(-1.49031e-07 -5.45788e-08 0.000712615)
(0.000626378 -1.14454e-05 -2.44126e-07)
(-1.40612e-06 0.000714205 -1.12252e-07)
(-1.47213e-07 -1.62901e-07 0.000712749)
(0.000627045 -1.64652e-05 -3.55892e-07)
(-1.39215e-06 0.000713219 -1.88646e-07)
(-1.52643e-07 -2.72055e-07 0.000712801)
(0.000627741 -2.11361e-05 -4.6675e-07)
(-1.45729e-06 0.000712502 -2.72053e-07)
(-1.69494e-07 -3.88538e-07 0.000713071)
(0.000628501 -2.5568e-05 -5.80616e-07)
(-1.59935e-06 0.000712003 -3.68821e-07)
(-1.98098e-07 -5.20371e-07 0.000713565)
(0.000629362 -2.98507e-05 -6.99862e-07)
(-1.82255e-06 0.00071168 -4.85568e-07)
(-2.39933e-07 -6.75983e-07 0.000714292)
(0.000630365 -3.40521e-05 -8.25095e-07)
(-2.13726e-06 0.000711482 -6.2961e-07)
(-2.97737e-07 -8.64884e-07 0.00071526)
(0.000631555 -3.82128e-05 -9.54462e-07)
(-2.5598e-06 0.000711345 -8.08977e-07)
(-3.75855e-07 -1.0983e-06 0.000716472)
(0.000632987 -4.23351e-05 -1.08285e-06)
(-3.11215e-06 0.000711181 -1.03214e-06)
(-4.80982e-07 -1.38984e-06 0.000717921)
(0.000634717 -4.63663e-05 -1.20276e-06)
(-3.82074e-06 0.000710859 -1.30649e-06)
(-6.2323e-07 -1.75608e-06 0.000719578)
(0.000636799 -5.01766e-05 -1.30834e-06)
(-4.71097e-06 0.0007102 -1.63349e-06)
(-8.17248e-07 -2.21635e-06 0.00072139)
(0.00063925 -5.35267e-05 -1.40672e-06)
(-5.78925e-06 0.000708959 -1.99484e-06)
(-1.08118e-06 -2.78969e-06 0.000723269)
(0.000641974 -5.60582e-05 -1.54407e-06)
(-6.99323e-06 0.000706888 -2.31551e-06)
(-1.42475e-06 -3.48393e-06 0.000725118)
(0.000644584 -5.73555e-05 -1.83316e-06)
(-8.01963e-06 0.000703887 -2.38524e-06)
(-1.79046e-06 -4.26586e-06 0.000726887)
(0.000646199 -5.72247e-05 -2.39279e-06)
(-7.6852e-06 0.000700383 -1.86272e-06)
(-1.84946e-06 -5.01158e-06 0.000728559)
(-1.13696e-05 0.000692184 5.7153e-08)
(-3.41689e-06 -4.65062e-06 0.000727134)
(0.000625629 -5.74706e-06 -2.06848e-07)
(-2.10498e-06 0.000720849 -5.4244e-08)
(-2.42775e-07 -5.08361e-08 0.000718462)
(0.000626233 -1.10639e-05 -4.00471e-07)
(-2.02611e-06 0.000719511 -1.62191e-07)
(-2.3948e-07 -1.51469e-07 0.000718082)
(0.000626825 -1.59075e-05 -5.83893e-07)
(-2.0008e-06 0.000718045 -2.72182e-07)
(-2.4764e-07 -2.52077e-07 0.000717575)
(0.000627435 -2.04054e-05 -7.65968e-07)
(-2.08636e-06 0.000716975 -3.9179e-07)
(-2.73905e-07 -3.58063e-07 0.00071741)
(0.000628091 -2.46651e-05 -9.53085e-07)
(-2.2782e-06 0.00071623 -5.2983e-07)
(-3.1856e-07 -4.76001e-07 0.000717563)
(0.000628821 -2.87781e-05 -1.14952e-06)
(-2.58016e-06 0.00071575 -6.95447e-07)
(-3.83551e-07 -6.12396e-07 0.000718014)
(0.000629652 -3.28197e-05 -1.35664e-06)
(-3.00376e-06 0.000715469 -8.98488e-07)
(-4.72455e-07 -7.73892e-07 0.00071874)
(0.000630613 -3.68476e-05 -1.57152e-06)
(-3.56705e-06 0.000715304 -1.1494e-06)
(-5.90718e-07 -9.6717e-07 0.000719701)
(0.000631731 -4.08973e-05 -1.78613e-06)
(-4.2936e-06 0.000715144 -1.45877e-06)
(-7.46211e-07 -1.19835e-06 0.000720835)
(0.000633027 -4.49713e-05 -1.98736e-06)
(-5.20841e-06 0.000714825 -1.8348e-06)
(-9.49588e-07 -1.47135e-06 0.000722034)
(0.0006345 -4.90168e-05 -2.15967e-06)
(-6.32442e-06 0.000714111 -2.27608e-06)
(-1.21327e-06 -1.7837e-06 0.000723126)
(0.000636088 -5.28916e-05 -2.29588e-06)
(-7.61091e-06 0.000712673 -2.75204e-06)
(-1.54563e-06 -2.11818e-06 0.000723852)
(0.000637599 -5.63116e-05 -2.42943e-06)
(-8.91761e-06 0.000710133 -3.15493e-06)
(-1.92897e-06 -2.42925e-06 0.000723901)
(0.000638603 -5.88287e-05 -2.67386e-06)
(-9.77275e-06 0.000706272 -3.20655e-06)
(-2.245e-06 -2.63264e-06 0.00072307)
(0.000638561 -6.00064e-05 -3.19581e-06)
(-8.81186e-06 0.000701598 -2.48846e-06)
(-2.09566e-06 -2.65339e-06 0.00072167)
(-1.25308e-05 0.000694058 1.18028e-07)
(-2.57477e-06 -2.15677e-06 0.000717535)
(0.000625531 -5.46131e-06 -2.82444e-07)
(-2.65792e-06 0.000726307 -6.85528e-08)
(-3.28644e-07 -4.56281e-08 0.000724049)
(0.000626036 -1.05068e-05 -5.47073e-07)
(-2.55395e-06 0.000724547 -2.04807e-07)
(-3.23537e-07 -1.35612e-07 0.000723136)
(0.000626526 -1.50911e-05 -7.97867e-07)
(-2.5133e-06 0.000722614 -3.43138e-07)
(-3.33233e-07 -2.24513e-07 0.000722051)
(0.000627021 -1.93343e-05 -1.04648e-06)
(-2.60743e-06 0.000721196 -4.9268e-07)
(-3.66514e-07 -3.16381e-07 0.000721422)
(0.000627541 -2.33397e-05 -1.30213e-06)
(-2.82823e-06 0.000720207 -6.64188e-07)
(-4.23341e-07 -4.16099e-07 0.000721199)
(0.000628102 -2.71972e-05 -1.57158e-06)
(-3.17694e-06 0.000719571 -8.68566e-07)
(-5.05522e-07 -5.27952e-07 0.000721333)
(0.000628715 -3.09873e-05 -1.85698e-06)
(-3.66266e-06 0.000719213 -1.11708e-06)
(-6.16456e-07 -6.55459e-07 0.000721773)
(0.00062939 -3.47867e-05 -2.15483e-06)
(-4.30089e-06 0.000719047 -1.4213e-06)
(-7.6104e-07 -8.00817e-07 0.00072245)
(0.000630128 -3.86675e-05 -2.45528e-06)
(-5.1109e-06 0.000718957 -1.79236e-06)
(-9.45445e-07 -9.63511e-07 0.000723258)
(0.000630921 -4.26969e-05 -2.74036e-06)
(-6.10984e-06 0.000718775 -2.23802e-06)
(-1.17619e-06 -1.13759e-06 0.000724039)
(0.000631733 -4.69261e-05 -2.98196e-06)
(-7.29517e-06 0.000718254 -2.75366e-06)
(-1.4562e-06 -1.30693e-06 0.000724544)
(0.000632483 -5.13668e-05 -3.14622e-06)
(-8.60704e-06 0.000717035 -3.29973e-06)
(-1.77516e-06 -1.43835e-06 0.000724412)
(0.00063301 -5.59007e-05 -3.22255e-06)
(-9.84477e-06 0.000714633 -3.7485e-06)
(-2.08404e-06 -1.47661e-06 0.000723192)
(0.000633055 -6.01333e-05 -3.27124e-06)
(-1.04761e-05 0.000710601 -3.78311e-06)
(-2.23333e-06 -1.35998e-06 0.00072056)
(0.000632472 -6.32728e-05 -3.48782e-06)
(-9.16271e-06 0.000705094 -2.93936e-06)
(-1.87982e-06 -1.10562e-06 0.000716947)
(-1.2299e-05 0.000698586 1.14943e-08)
(-1.91402e-06 -5.54493e-07 0.000711762)
(0.000625411 -5.09175e-06 -3.51092e-07)
(-3.09674e-06 0.000731397 -7.98704e-08)
(-4.04413e-07 -3.93165e-08 0.000729294)
(0.0006258 -9.786e-06 -6.80706e-07)
(-2.96951e-06 0.000729234 -2.384e-07)
(-3.97099e-07 -1.16451e-07 0.00072784)
(0.000626168 -1.40359e-05 -9.92465e-07)
(-2.9103e-06 0.000726851 -3.9862e-07)
(-4.06926e-07 -1.91442e-07 0.000726166)
(0.000626531 -1.79515e-05 -1.30076e-06)
(-3.0011e-06 0.000725093 -5.70706e-07)
(-4.44468e-07 -2.6694e-07 0.000725057)
(0.000626896 -2.16258e-05 -1.61827e-06)
(-3.22919e-06 0.000723857 -7.66713e-07)
(-5.09063e-07 -3.46077e-07 0.000724433)
(0.000627267 -2.51417e-05 -1.95402e-06)
(-3.59117e-06 0.000723057 -9.98424e-07)
(-6.01823e-07 -4.30978e-07 0.000724222)
(0.000627642 -2.85802e-05 -2.31093e-06)
(-4.09117e-06 0.000722615 -1.27739e-06)
(-7.25218e-07 -5.22462e-07 0.00072435)
(0.000628012 -3.20269e-05 -2.68624e-06)
(-4.73834e-06 0.000722451 -1.61505e-06)
(-8.82451e-07 -6.19324e-07 0.000724729)
(0.000628358 -3.5579e-05 -3.07019e-06)
(-5.54352e-06 0.000722461 -2.02206e-06)
(-1.07632e-06 -7.168e-07 0.000725236)
(0.000628647 -3.93578e-05 -3.44212e-06)
(-6.5147e-06 0.000722503 -2.50515e-06)
(-1.30732e-06 -8.04234e-07 0.000725692)
(0.000628834 -4.35199e-05 -3.76243e-06)
(-7.64142e-06 0.000722371 -3.0577e-06)
(-1.56806e-06 -8.62325e-07 0.000725836)
(0.000628856 -4.82403e-05 -3.96949e-06)
(-8.8576e-06 0.000721735 -3.63716e-06)
(-1.83217e-06 -8.60396e-07 0.000725286)
(0.000628636 -5.3617e-05 -3.99269e-06)
(-9.96516e-06 0.000720055 -4.11061e-06)
(-2.03255e-06 -7.59002e-07 0.000723525)
(0.000628098 -5.93845e-05 -3.79753e-06)
(-1.04474e-05 0.000716561 -4.14775e-06)
(-2.02395e-06 -5.33996e-07 0.000720016)
(0.000627276 -6.43251e-05 -3.57576e-06)
(-9.00755e-06 0.000710479 -3.25682e-06)
(-1.56039e-06 -2.43777e-07 0.000714725)