/*--------------------------------*- C++ -*----------------------------------*\
| =========                 |                                                 |
| \\      /  F ield         | foam-extend: Open Source CFD                    |
|  \\    /   O peration     | Version:     3.1                                |
|   \\  /    A nd           | Web:         http://www.extend-project.de       |
|    \\/     M anipulation  |                                                 |
\*---------------------------------------------------------------------------*/
FoamFile
{
    version     2.0;
    format      ascii;
    class       volVectorField;
    location    "0.0002";
    object      D_0_0;
}
// * * * * * * * * * * * * * * * * * * * * * * * * * * * * * * * * * * * * * //

dimensions      [0 1 0 0 0 0 0];

internalField   uniform (0 0 0);

boundaryField
{
    inlet
    {
        type            fixedValue;
        value           uniform (0 0 0);
    }
    outlet
    {
        type            fixedValue;
        value           uniform (0 0 0);
    }
    inner-wall
    {
        type            tractionDisplacement;
        gradient        nonuniform List<vector> 
1600
(
(0.0032779 0.000130811 1.23579e-07)
(0.0032576 0.000387028 1.20988e-07)
(0.0032173 0.000640868 1.20242e-07)
(0.00315725 0.000890775 1.21288e-07)
(0.00307782 0.00113521 1.24206e-07)
(0.0029795 0.00137268 1.2922e-07)
(0.00286289 0.00160173 1.36744e-07)
(0.00272871 0.00182094 1.47464e-07)
(0.00257778 0.00202898 1.6251e-07)
(0.00241104 0.00222457 1.83781e-07)
(0.00222457 0.00241104 1.83781e-07)
(0.00202898 0.00257778 1.6251e-07)
(0.00182094 0.00272871 1.47464e-07)
(0.00160173 0.00286289 1.36744e-07)
(0.00137268 0.0029795 1.2922e-07)
(0.00113521 0.00307782 1.24206e-07)
(0.000890775 0.00315725 1.21288e-07)
(0.000640868 0.0032173 1.20242e-07)
(0.000387028 0.0032576 1.20988e-07)
(0.000130811 0.0032779 1.23578e-07)
(0.00323664 0.000129165 1.23574e-07)
(0.00321659 0.000382156 1.20986e-07)
(0.0031768 0.000632801 1.2024e-07)
(0.0031175 0.000879561 1.21287e-07)
(0.00303907 0.00112092 1.24207e-07)
(0.00294199 0.0013554 1.29224e-07)
(0.00282685 0.00158156 1.36753e-07)
(0.00269437 0.00179802 1.47481e-07)
(0.00254534 0.00200344 1.62534e-07)
(0.0023807 0.00219658 1.83803e-07)
(0.00219658 0.0023807 1.83803e-07)
(0.00200344 0.00254534 1.62534e-07)
(0.00179802 0.00269437 1.47481e-07)
(0.00158156 0.00282685 1.36753e-07)
(0.0013554 0.00294199 1.29224e-07)
(0.00112092 0.00303907 1.24207e-07)
(0.000879561 0.0031175 1.21287e-07)
(0.000632801 0.0031768 1.2024e-07)
(0.000382156 0.00321659 1.20985e-07)
(0.000129165 0.00323664 1.23574e-07)
(0.00319551 0.000127523 1.23573e-07)
(0.00317571 0.0003773 1.20985e-07)
(0.00313643 0.00062476 1.2024e-07)
(0.00307789 0.000868385 1.21288e-07)
(0.00300046 0.00110668 1.24208e-07)
(0.00290462 0.00133818 1.29228e-07)
(0.00279094 0.00156147 1.36759e-07)
(0.00266014 0.00177518 1.4749e-07)
(0.00251301 0.00197799 1.62546e-07)
(0.00235045 0.00216867 1.83817e-07)
(0.00216867 0.00235045 1.83817e-07)
(0.00197799 0.00251301 1.62546e-07)
(0.00177518 0.00266014 1.4749e-07)
(0.00156147 0.00279094 1.36759e-07)
(0.00133818 0.00290462 1.29228e-07)
(0.00110668 0.00300046 1.24209e-07)
(0.000868385 0.00307789 1.21288e-07)
(0.00062476 0.00313643 1.2024e-07)
(0.0003773 0.00317571 1.20985e-07)
(0.000127523 0.00319551 1.23573e-07)
(0.0031543 0.000125879 1.23573e-07)
(0.00313476 0.000372434 1.20986e-07)
(0.00309598 0.000616703 1.20241e-07)
(0.0030382 0.000857187 1.21288e-07)
(0.00296177 0.00109241 1.24209e-07)
(0.00286716 0.00132093 1.29228e-07)
(0.00275495 0.00154134 1.36758e-07)
(0.00262583 0.00175229 1.47487e-07)
(0.0024806 0.00195248 1.6254e-07)
(0.00232013 0.00214069 1.83811e-07)
(0.00214069 0.00232013 1.8381e-07)
(0.00195248 0.0024806 1.6254e-07)
(0.00175229 0.00262583 1.47487e-07)
(0.00154134 0.00275495 1.36758e-07)
(0.00132093 0.00286716 1.29228e-07)
(0.00109241 0.00296177 1.24209e-07)
(0.000857187 0.0030382 1.21288e-07)
(0.000616703 0.00309598 1.20241e-07)
(0.000372434 0.00313476 1.20986e-07)
(0.000125879 0.0031543 1.23574e-07)
(0.00311307 0.000124234 1.23574e-07)
(0.00309379 0.000367567 1.20986e-07)
(0.00305552 0.000608644 1.20241e-07)
(0.0029985 0.000845984 1.21289e-07)
(0.00292306 0.00107813 1.24209e-07)
(0.00282969 0.00130366 1.29227e-07)
(0.00271894 0.00152119 1.36757e-07)
(0.00259151 0.00172938 1.47485e-07)
(0.00244817 0.00192696 1.62538e-07)
(0.0022898 0.00211271 1.83808e-07)
(0.00211271 0.0022898 1.83808e-07)
(0.00192696 0.00244817 1.62537e-07)
(0.00172938 0.00259151 1.47485e-07)
(0.00152119 0.00271894 1.36757e-07)
(0.00130366 0.00282969 1.29227e-07)
(0.00107813 0.00292306 1.24209e-07)
(0.000845984 0.0029985 1.21289e-07)
(0.000608644 0.00305552 1.20241e-07)
(0.000367567 0.00309379 1.20986e-07)
(0.000124234 0.00311307 1.23574e-07)
(0.00307184 0.000122588 1.23574e-07)
(0.00305282 0.000362699 1.20986e-07)
(0.00301505 0.000600583 1.20241e-07)
(0.00295878 0.00083478 1.21288e-07)
(0.00288435 0.00106385 1.24209e-07)
(0.00279221 0.0012864 1.29227e-07)
(0.00268293 0.00150104 1.36756e-07)
(0.00255719 0.00170648 1.47484e-07)
(0.00241574 0.00190144 1.62536e-07)
(0.00225947 0.00208472 1.83806e-07)
(0.00208472 0.00225947 1.83806e-07)
(0.00190144 0.00241574 1.62536e-07)
(0.00170648 0.00255719 1.47484e-07)
(0.00150104 0.00268293 1.36756e-07)
(0.0012864 0.00279221 1.29227e-07)
(0.00106385 0.00288435 1.24209e-07)
(0.00083478 0.00295878 1.21289e-07)
(0.000600583 0.00301505 1.20241e-07)
(0.000362699 0.00305282 1.20986e-07)
(0.000122588 0.00307184 1.23574e-07)
(0.00303061 0.000120943 1.23574e-07)
(0.00301184 0.00035783 1.20986e-07)
(0.00297459 0.000592521 1.20241e-07)
(0.00291907 0.000823575 1.21288e-07)
(0.00284563 0.00104957 1.24208e-07)
(0.00275473 0.00126913 1.29226e-07)
(0.00264692 0.0014809 1.36755e-07)
(0.00252286 0.00168357 1.47483e-07)
(0.00238332 0.00187591 1.62535e-07)
(0.00222914 0.00205674 1.83805e-07)
(0.00205674 0.00222914 1.83805e-07)
(0.00187591 0.00238332 1.62535e-07)
(0.00168357 0.00252286 1.47483e-07)
(0.0014809 0.00264692 1.36755e-07)
(0.00126913 0.00275473 1.29226e-07)
(0.00104957 0.00284563 1.24208e-07)
(0.000823575 0.00291907 1.21288e-07)
(0.000592521 0.00297459 1.20241e-07)
(0.00035783 0.00301184 1.20986e-07)
(0.000120943 0.00303061 1.23574e-07)
(0.00298938 0.000119297 1.23574e-07)
(0.00297087 0.000352962 1.20986e-07)
(0.00293412 0.00058446 1.20241e-07)
(0.00287935 0.00081237 1.21288e-07)
(0.00280692 0.00103529 1.24208e-07)
(0.00271725 0.00125186 1.29226e-07)
(0.00261091 0.00146075 1.36755e-07)
(0.00248854 0.00166067 1.47482e-07)
(0.00235089 0.00185039 1.62534e-07)
(0.00219881 0.00202876 1.83804e-07)
(0.00202876 0.00219881 1.83804e-07)
(0.00185039 0.00235089 1.62534e-07)
(0.00166067 0.00248854 1.47482e-07)
(0.00146075 0.00261091 1.36755e-07)
(0.00125186 0.00271725 1.29226e-07)
(0.00103529 0.00280692 1.24208e-07)
(0.00081237 0.00287935 1.21288e-07)
(0.00058446 0.00293412 1.20241e-07)
(0.000352962 0.00297087 1.20986e-07)
(0.000119297 0.00298938 1.23574e-07)
(0.00294815 0.000117652 1.23574e-07)
(0.00292989 0.000348094 1.20986e-07)
(0.00289364 0.000576398 1.20241e-07)
(0.00283964 0.000801165 1.21288e-07)
(0.0027682 0.00102101 1.24208e-07)
(0.00267977 0.0012346 1.29226e-07)
(0.0025749 0.0014406 1.36755e-07)
(0.00245421 0.00163776 1.47482e-07)
(0.00231846 0.00182487 1.62534e-07)
(0.00216848 0.00200077 1.83803e-07)
(0.00200077 0.00216848 1.83803e-07)
(0.00182487 0.00231846 1.62534e-07)
(0.00163776 0.00245421 1.47482e-07)
(0.0014406 0.0025749 1.36755e-07)
(0.0012346 0.00267977 1.29226e-07)
(0.00102101 0.0027682 1.24208e-07)
(0.000801165 0.00283964 1.21288e-07)
(0.000576398 0.00289364 1.20241e-07)
(0.000348094 0.00292989 1.20986e-07)
(0.000117652 0.00294815 1.23574e-07)
(0.00290691 0.000116006 1.23574e-07)
(0.00288891 0.000343225 1.20986e-07)
(0.00285317 0.000568337 1.20241e-07)
(0.00279992 0.00078996 1.21288e-07)
(0.00272949 0.00100673 1.24208e-07)
(0.00264229 0.00121733 1.29226e-07)
(0.00253888 0.00142045 1.36755e-07)
(0.00241989 0.00161485 1.47482e-07)
(0.00228604 0.00179934 1.62534e-07)
(0.00213816 0.00197279 1.83803e-07)
(0.00197279 0.00213816 1.83803e-07)
(0.00179934 0.00228604 1.62534e-07)
(0.00161485 0.00241989 1.47482e-07)
(0.00142045 0.00253888 1.36755e-07)
(0.00121733 0.00264229 1.29226e-07)
(0.00100673 0.00272949 1.24208e-07)
(0.00078996 0.00279992 1.21288e-07)
(0.000568337 0.00285317 1.20241e-07)
(0.000343225 0.00288891 1.20986e-07)
(0.000116006 0.00290691 1.23574e-07)
(0.00286568 0.000114361 1.23574e-07)
(0.00284793 0.000338357 1.20986e-07)
(0.0028127 0.000560275 1.20241e-07)
(0.00276021 0.000778755 1.21288e-07)
(0.00269077 0.000992454 1.24208e-07)
(0.00260481 0.00120006 1.29226e-07)
(0.00250287 0.0014003 1.36754e-07)
(0.00238556 0.00159195 1.47481e-07)
(0.00225361 0.00177382 1.62533e-07)
(0.00210783 0.00194481 1.83803e-07)
(0.00194481 0.00210783 1.83803e-07)
(0.00177382 0.00225361 1.62533e-07)
(0.00159195 0.00238556 1.47481e-07)
(0.0014003 0.00250287 1.36754e-07)
(0.00120006 0.00260481 1.29226e-07)
(0.000992454 0.00269077 1.24208e-07)
(0.000778755 0.00276021 1.21288e-07)
(0.000560275 0.0028127 1.20241e-07)
(0.000338357 0.00284793 1.20986e-07)
(0.000114361 0.00286568 1.23574e-07)
(0.00282445 0.000112715 1.23574e-07)
(0.00280695 0.000333488 1.20986e-07)
(0.00277223 0.000552214 1.2024e-07)
(0.00272049 0.00076755 1.21288e-07)
(0.00265205 0.000978174 1.24208e-07)
(0.00256733 0.00118279 1.29225e-07)
(0.00246686 0.00138015 1.36754e-07)
(0.00235124 0.00156904 1.47481e-07)
(0.00222118 0.0017483 1.62533e-07)
(0.0020775 0.00191682 1.83803e-07)
(0.00191682 0.0020775 1.83803e-07)
(0.0017483 0.00222118 1.62533e-07)
(0.00156904 0.00235124 1.47481e-07)
(0.00138015 0.00246686 1.36754e-07)
(0.00118279 0.00256733 1.29225e-07)
(0.000978174 0.00265205 1.24208e-07)
(0.00076755 0.00272049 1.21288e-07)
(0.000552214 0.00277223 1.2024e-07)
(0.000333488 0.00280695 1.20986e-07)
(0.000112715 0.00282445 1.23574e-07)
(0.00278321 0.00011107 1.23574e-07)
(0.00276598 0.00032862 1.20985e-07)
(0.00273176 0.000544152 1.2024e-07)
(0.00268078 0.000756344 1.21287e-07)
(0.00261334 0.000963894 1.24207e-07)
(0.00252986 0.00116553 1.29225e-07)
(0.00243084 0.00136001 1.36754e-07)
(0.00231691 0.00154614 1.47481e-07)
(0.00218876 0.00172278 1.62533e-07)
(0.00204717 0.00188884 1.83802e-07)
(0.00188884 0.00204717 1.83802e-07)
(0.00172278 0.00218876 1.62533e-07)
(0.00154614 0.00231691 1.47481e-07)
(0.00136001 0.00243084 1.36754e-07)
(0.00116553 0.00252986 1.29225e-07)
(0.000963894 0.00261334 1.24207e-07)
(0.000756344 0.00268078 1.21287e-07)
(0.000544152 0.00273176 1.2024e-07)
(0.00032862 0.00276598 1.20985e-07)
(0.00011107 0.00278321 1.23574e-07)
(0.00274198 0.000109424 1.23574e-07)
(0.002725 0.000323751 1.20985e-07)
(0.00269129 0.000536091 1.2024e-07)
(0.00264106 0.000745139 1.21287e-07)
(0.00257462 0.000949614 1.24207e-07)
(0.00249238 0.00114826 1.29225e-07)
(0.00239483 0.00133986 1.36754e-07)
(0.00228259 0.00152323 1.47481e-07)
(0.00215633 0.00169725 1.62532e-07)
(0.00201684 0.00186086 1.83802e-07)
(0.00186086 0.00201684 1.83802e-07)
(0.00169725 0.00215633 1.62532e-07)
(0.00152323 0.00228259 1.47481e-07)
(0.00133986 0.00239483 1.36754e-07)
(0.00114826 0.00249238 1.29225e-07)
(0.000949614 0.00257462 1.24207e-07)
(0.000745139 0.00264106 1.21287e-07)
(0.000536091 0.00269129 1.2024e-07)
(0.000323751 0.002725 1.20985e-07)
(0.000109424 0.00274198 1.23574e-07)
(0.00270075 0.000107779 1.23573e-07)
(0.00268402 0.000318883 1.20985e-07)
(0.00265082 0.000528029 1.2024e-07)
(0.00260135 0.000733934 1.21287e-07)
(0.0025359 0.000935334 1.24207e-07)
(0.0024549 0.00113099 1.29225e-07)
(0.00235882 0.00131971 1.36753e-07)
(0.00224826 0.00150032 1.4748e-07)
(0.00212391 0.00167173 1.62532e-07)
(0.00198651 0.00183287 1.83802e-07)
(0.00183287 0.00198651 1.83802e-07)
(0.00167173 0.00212391 1.62532e-07)
(0.00150032 0.00224826 1.4748e-07)
(0.00131971 0.00235882 1.36753e-07)
(0.00113099 0.0024549 1.29225e-07)
(0.000935334 0.0025359 1.24207e-07)
(0.000733934 0.00260135 1.21287e-07)
(0.000528029 0.00265082 1.2024e-07)
(0.000318883 0.00268402 1.20985e-07)
(0.000107779 0.00270075 1.23573e-07)
(0.00265952 0.000106133 1.23573e-07)
(0.00264304 0.000314014 1.20985e-07)
(0.00261035 0.000519967 1.2024e-07)
(0.00256163 0.000722729 1.21287e-07)
(0.00249719 0.000921054 1.24207e-07)
(0.00241742 0.00111373 1.29225e-07)
(0.00232281 0.00129956 1.36753e-07)
(0.00221394 0.00147742 1.4748e-07)
(0.00209148 0.00164621 1.62532e-07)
(0.00195618 0.00180489 1.83801e-07)
(0.00180489 0.00195618 1.83801e-07)
(0.00164621 0.00209148 1.62532e-07)
(0.00147742 0.00221394 1.4748e-07)
(0.00129956 0.00232281 1.36753e-07)
(0.00111373 0.00241742 1.29225e-07)
(0.000921054 0.00249719 1.24207e-07)
(0.000722729 0.00256163 1.21287e-07)
(0.000519967 0.00261035 1.2024e-07)
(0.000314014 0.00264304 1.20985e-07)
(0.000106133 0.00265952 1.23573e-07)
(0.00261828 0.000104488 1.23573e-07)
(0.00260207 0.000309146 1.20985e-07)
(0.00256988 0.000511906 1.20239e-07)
(0.00252192 0.000711524 1.21287e-07)
(0.00245847 0.000906774 1.24207e-07)
(0.00237994 0.00109646 1.29224e-07)
(0.00228679 0.00127941 1.36753e-07)
(0.00217961 0.00145451 1.4748e-07)
(0.00205905 0.00162068 1.62532e-07)
(0.00192586 0.00177691 1.83801e-07)
(0.00177691 0.00192586 1.83801e-07)
(0.00162068 0.00205905 1.62532e-07)
(0.00145451 0.00217961 1.4748e-07)
(0.00127941 0.00228679 1.36753e-07)
(0.00109646 0.00237994 1.29224e-07)
(0.000906774 0.00245847 1.24207e-07)
(0.000711524 0.00252192 1.21287e-07)
(0.000511906 0.00256988 1.20239e-07)
(0.000309146 0.00260207 1.20985e-07)
(0.000104488 0.00261828 1.23573e-07)
(0.00257705 0.000102843 1.23573e-07)
(0.00256109 0.000304277 1.20985e-07)
(0.00252941 0.000503844 1.20239e-07)
(0.0024822 0.000700319 1.21287e-07)
(0.00241976 0.000892494 1.24206e-07)
(0.00234246 0.00107919 1.29224e-07)
(0.00225078 0.00125926 1.36753e-07)
(0.00214529 0.00143161 1.4748e-07)
(0.00202663 0.00159516 1.62532e-07)
(0.00189553 0.00174893 1.83801e-07)
(0.00174893 0.00189553 1.83801e-07)
(0.00159516 0.00202663 1.62532e-07)
(0.00143161 0.00214529 1.4748e-07)
(0.00125926 0.00225078 1.36753e-07)
(0.00107919 0.00234246 1.29224e-07)
(0.000892494 0.00241976 1.24206e-07)
(0.000700319 0.0024822 1.21287e-07)
(0.000503844 0.00252941 1.20239e-07)
(0.000304277 0.00256109 1.20985e-07)
(0.000102843 0.00257705 1.23573e-07)
(0.00253582 0.000101197 1.23573e-07)
(0.00252011 0.000299409 1.20984e-07)
(0.00248894 0.000495783 1.20239e-07)
(0.00244248 0.000689114 1.21286e-07)
(0.00238104 0.000878214 1.24206e-07)
(0.00230498 0.00106192 1.29224e-07)
(0.00221477 0.00123912 1.36753e-07)
(0.00211096 0.0014087 1.4748e-07)
(0.0019942 0.00156964 1.62531e-07)
(0.0018652 0.00172094 1.83801e-07)
(0.00172094 0.0018652 1.83801e-07)
(0.00156964 0.0019942 1.62531e-07)
(0.0014087 0.00211096 1.4748e-07)
(0.00123912 0.00221477 1.36753e-07)
(0.00106192 0.00230498 1.29224e-07)
(0.000878214 0.00238104 1.24206e-07)
(0.000689114 0.00244248 1.21286e-07)
(0.000495783 0.00248894 1.20239e-07)
(0.000299409 0.00252011 1.20984e-07)
(0.000101197 0.00253582 1.23573e-07)
(0.00249458 9.95516e-05 1.23573e-07)
(0.00247913 0.000294541 1.20984e-07)
(0.00244847 0.000487721 1.20239e-07)
(0.00240277 0.000677909 1.21286e-07)
(0.00234232 0.000863934 1.24206e-07)
(0.0022675 0.00104466 1.29224e-07)
(0.00217876 0.00121897 1.36753e-07)
(0.00207664 0.0013858 1.47479e-07)
(0.00196178 0.00154412 1.62531e-07)
(0.00183487 0.00169296 1.838e-07)
(0.00169296 0.00183487 1.838e-07)
(0.00154412 0.00196178 1.62531e-07)
(0.0013858 0.00207664 1.47479e-07)
(0.00121897 0.00217876 1.36753e-07)
(0.00104466 0.0022675 1.29224e-07)
(0.000863934 0.00234232 1.24206e-07)
(0.000677909 0.00240277 1.21286e-07)
(0.000487721 0.00244847 1.20239e-07)
(0.000294541 0.00247913 1.20984e-07)
(9.95516e-05 0.00249458 1.23573e-07)
(0.00245335 9.79061e-05 1.23573e-07)
(0.00243816 0.000289672 1.20984e-07)
(0.002408 0.00047966 1.20239e-07)
(0.00236305 0.000666704 1.21286e-07)
(0.00230361 0.000849655 1.24206e-07)
(0.00223002 0.00102739 1.29224e-07)
(0.00214274 0.00119882 1.36752e-07)
(0.00204232 0.00136289 1.47479e-07)
(0.00192935 0.00151859 1.62531e-07)
(0.00180454 0.00166498 1.838e-07)
(0.00166498 0.00180454 1.838e-07)
(0.00151859 0.00192935 1.62531e-07)
(0.00136289 0.00204232 1.47479e-07)
(0.00119882 0.00214274 1.36752e-07)
(0.00102739 0.00223002 1.29224e-07)
(0.000849655 0.00230361 1.24206e-07)
(0.000666704 0.00236305 1.21286e-07)
(0.00047966 0.002408 1.20239e-07)
(0.000289672 0.00243816 1.20984e-07)
(9.79061e-05 0.00245335 1.23573e-07)
(0.00241212 9.62606e-05 1.23572e-07)
(0.00239718 0.000284804 1.20984e-07)
(0.00236753 0.000471598 1.20239e-07)
(0.00232334 0.000655498 1.21286e-07)
(0.00226489 0.000835375 1.24206e-07)
(0.00219254 0.00101012 1.29224e-07)
(0.00210673 0.00117867 1.36752e-07)
(0.00200799 0.00133998 1.47479e-07)
(0.00189692 0.00149307 1.62531e-07)
(0.00177421 0.00163699 1.838e-07)
(0.00163699 0.00177421 1.838e-07)
(0.00149307 0.00189692 1.62531e-07)
(0.00133998 0.00200799 1.47479e-07)
(0.00117867 0.00210673 1.36752e-07)
(0.00101012 0.00219254 1.29224e-07)
(0.000835375 0.00226489 1.24206e-07)
(0.000655498 0.00232334 1.21286e-07)
(0.000471598 0.00236753 1.20239e-07)
(0.000284804 0.00239718 1.20984e-07)
(9.62606e-05 0.00241212 1.23572e-07)
(0.00237089 9.46152e-05 1.23572e-07)
(0.0023562 0.000279935 1.20984e-07)
(0.00232706 0.000463537 1.20239e-07)
(0.00228362 0.000644293 1.21286e-07)
(0.00222618 0.000821095 1.24206e-07)
(0.00215506 0.000992856 1.29224e-07)
(0.00207072 0.00115852 1.36752e-07)
(0.00197367 0.00131708 1.47479e-07)
(0.0018645 0.00146755 1.62531e-07)
(0.00174389 0.00160901 1.838e-07)
(0.00160901 0.00174389 1.838e-07)
(0.00146755 0.0018645 1.62531e-07)
(0.00131708 0.00197367 1.47479e-07)
(0.00115852 0.00207072 1.36752e-07)
(0.000992856 0.00215506 1.29224e-07)
(0.000821095 0.00222618 1.24206e-07)
(0.000644293 0.00228362 1.21286e-07)
(0.000463537 0.00232706 1.20239e-07)
(0.000279935 0.0023562 1.20984e-07)
(9.46152e-05 0.00237089 1.23572e-07)
(0.00232965 9.29697e-05 1.23572e-07)
(0.00231523 0.000275067 1.20984e-07)
(0.00228659 0.000455476 1.20239e-07)
(0.00224391 0.000633088 1.21286e-07)
(0.00218746 0.000806815 1.24206e-07)
(0.00211758 0.000975589 1.29224e-07)
(0.00203471 0.00113838 1.36752e-07)
(0.00193934 0.00129417 1.47479e-07)
(0.00183207 0.00144203 1.62531e-07)
(0.00171356 0.00158103 1.838e-07)
(0.00158103 0.00171356 1.838e-07)
(0.00144203 0.00183207 1.62531e-07)
(0.00129417 0.00193934 1.47479e-07)
(0.00113838 0.00203471 1.36752e-07)
(0.000975589 0.00211758 1.29224e-07)
(0.000806815 0.00218746 1.24206e-07)
(0.000633088 0.00224391 1.21286e-07)
(0.000455476 0.00228659 1.20239e-07)
(0.000275067 0.00231523 1.20984e-07)
(9.29697e-05 0.00232965 1.23572e-07)
(0.00228842 9.13242e-05 1.23572e-07)
(0.00227425 0.000270198 1.20984e-07)
(0.00224611 0.000447414 1.20239e-07)
(0.00220419 0.000621883 1.21286e-07)
(0.00214874 0.000792535 1.24206e-07)
(0.0020801 0.000958322 1.29224e-07)
(0.00199869 0.00111823 1.36752e-07)
(0.00190502 0.00127127 1.47479e-07)
(0.00179965 0.0014165 1.62531e-07)
(0.00168323 0.00155305 1.838e-07)
(0.00155305 0.00168323 1.838e-07)
(0.0014165 0.00179965 1.62531e-07)
(0.00127127 0.00190502 1.47479e-07)
(0.00111823 0.00199869 1.36752e-07)
(0.000958322 0.0020801 1.29224e-07)
(0.000792535 0.00214874 1.24206e-07)
(0.000621883 0.00220419 1.21286e-07)
(0.000447414 0.00224611 1.20239e-07)
(0.000270198 0.00227425 1.20984e-07)
(9.13242e-05 0.00228842 1.23572e-07)
(0.00224719 8.96787e-05 1.23572e-07)
(0.00223327 0.00026533 1.20984e-07)
(0.00220564 0.000439353 1.20239e-07)
(0.00216448 0.000610678 1.21286e-07)
(0.00211003 0.000778255 1.24206e-07)
(0.00204262 0.000941055 1.29224e-07)
(0.00196268 0.00109808 1.36752e-07)
(0.00187069 0.00124836 1.47479e-07)
(0.00176722 0.00139098 1.62531e-07)
(0.0016529 0.00152506 1.838e-07)
(0.00152506 0.0016529 1.838e-07)
(0.00139098 0.00176722 1.62531e-07)
(0.00124836 0.00187069 1.47479e-07)
(0.00109808 0.00196268 1.36752e-07)
(0.000941055 0.00204262 1.29224e-07)
(0.000778255 0.00211003 1.24206e-07)
(0.000610678 0.00216448 1.21286e-07)
(0.000439353 0.00220564 1.20239e-07)
(0.00026533 0.00223327 1.20984e-07)
(8.96787e-05 0.00224719 1.23572e-07)
(0.00220596 8.80333e-05 1.23572e-07)
(0.00219229 0.000260462 1.20984e-07)
(0.00216517 0.000431291 1.20239e-07)
(0.00212476 0.000599473 1.21286e-07)
(0.00207131 0.000763976 1.24206e-07)
(0.00200515 0.000923788 1.29224e-07)
(0.00192667 0.00107793 1.36752e-07)
(0.00183637 0.00122546 1.47479e-07)
(0.00173479 0.00136546 1.62531e-07)
(0.00162257 0.00149708 1.838e-07)
(0.00149708 0.00162257 1.838e-07)
(0.00136546 0.00173479 1.62531e-07)
(0.00122546 0.00183637 1.47479e-07)
(0.00107793 0.00192667 1.36752e-07)
(0.000923788 0.00200515 1.29224e-07)
(0.000763976 0.00207131 1.24206e-07)
(0.000599473 0.00212476 1.21286e-07)
(0.000431291 0.00216517 1.20239e-07)
(0.000260462 0.00219229 1.20984e-07)
(8.80333e-05 0.00220596 1.23572e-07)
(0.00216472 8.63878e-05 1.23572e-07)
(0.00215132 0.000255593 1.20984e-07)
(0.0021247 0.00042323 1.20239e-07)
(0.00208505 0.000588268 1.21286e-07)
(0.0020326 0.000749696 1.24206e-07)
(0.00196767 0.000906521 1.29224e-07)
(0.00189066 0.00105778 1.36752e-07)
(0.00180204 0.00120255 1.47479e-07)
(0.00170237 0.00133994 1.62531e-07)
(0.00159224 0.0014691 1.838e-07)
(0.0014691 0.00159224 1.838e-07)
(0.00133994 0.00170237 1.62531e-07)
(0.00120255 0.00180204 1.47479e-07)
(0.00105778 0.00189066 1.36752e-07)
(0.000906521 0.00196767 1.29224e-07)
(0.000749696 0.0020326 1.24206e-07)
(0.000588268 0.00208505 1.21286e-07)
(0.00042323 0.0021247 1.20239e-07)
(0.000255593 0.00215132 1.20984e-07)
(8.63878e-05 0.00216472 1.23572e-07)
(0.00212349 8.47423e-05 1.23572e-07)
(0.00211034 0.000250725 1.20984e-07)
(0.00208423 0.000415168 1.20239e-07)
(0.00204533 0.000577063 1.21286e-07)
(0.00199388 0.000735416 1.24206e-07)
(0.00193019 0.000889254 1.29224e-07)
(0.00185465 0.00103763 1.36752e-07)
(0.00176772 0.00117965 1.47479e-07)
(0.00166994 0.00131441 1.62531e-07)
(0.00156192 0.00144112 1.838e-07)
(0.00144112 0.00156192 1.838e-07)
(0.00131441 0.00166994 1.62531e-07)
(0.00117965 0.00176772 1.47479e-07)
(0.00103763 0.00185465 1.36752e-07)
(0.000889254 0.00193019 1.29224e-07)
(0.000735416 0.00199388 1.24206e-07)
(0.000577063 0.00204533 1.21286e-07)
(0.000415168 0.00208423 1.20239e-07)
(0.000250725 0.00211034 1.20984e-07)
(8.47423e-05 0.00212349 1.23572e-07)
(0.00208226 8.30968e-05 1.23572e-07)
(0.00206936 0.000245856 1.20984e-07)
(0.00204376 0.000407107 1.20239e-07)
(0.00200562 0.000565858 1.21286e-07)
(0.00195516 0.000721136 1.24206e-07)
(0.00189271 0.000871987 1.29224e-07)
(0.00181863 0.00101749 1.36752e-07)
(0.0017334 0.00115674 1.47479e-07)
(0.00163752 0.00128889 1.62531e-07)
(0.00153159 0.00141313 1.838e-07)
(0.00141313 0.00153159 1.838e-07)
(0.00128889 0.00163752 1.62531e-07)
(0.00115674 0.0017334 1.47479e-07)
(0.00101749 0.00181863 1.36752e-07)
(0.000871987 0.00189271 1.29224e-07)
(0.000721136 0.00195516 1.24206e-07)
(0.000565858 0.00200562 1.21286e-07)
(0.000407107 0.00204376 1.20239e-07)
(0.000245856 0.00206936 1.20984e-07)
(8.30968e-05 0.00208226 1.23572e-07)
(0.00204103 8.14514e-05 1.23572e-07)
(0.00202838 0.000240988 1.20984e-07)
(0.00200329 0.000399045 1.20239e-07)
(0.0019659 0.000554653 1.21286e-07)
(0.00191645 0.000706856 1.24206e-07)
(0.00185523 0.00085472 1.29224e-07)
(0.00178262 0.000997338 1.36752e-07)
(0.00169907 0.00113383 1.47479e-07)
(0.00160509 0.00126337 1.62531e-07)
(0.00150126 0.00138515 1.838e-07)
(0.00138515 0.00150126 1.838e-07)
(0.00126337 0.00160509 1.62531e-07)
(0.00113383 0.00169907 1.47479e-07)
(0.000997338 0.00178262 1.36752e-07)
(0.00085472 0.00185523 1.29224e-07)
(0.000706856 0.00191645 1.24206e-07)
(0.000554653 0.0019659 1.21286e-07)
(0.000399045 0.00200329 1.20239e-07)
(0.000240988 0.00202838 1.20984e-07)
(8.14514e-05 0.00204103 1.23572e-07)
(0.00199979 7.98059e-05 1.23572e-07)
(0.00198741 0.00023612 1.20984e-07)
(0.00196282 0.000390984 1.20239e-07)
(0.00192619 0.000543448 1.21286e-07)
(0.00187773 0.000692576 1.24206e-07)
(0.00181775 0.000837454 1.29224e-07)
(0.00174661 0.00097719 1.36752e-07)
(0.00166475 0.00111093 1.47479e-07)
(0.00157267 0.00123785 1.62531e-07)
(0.00147093 0.00135717 1.838e-07)
(0.00135717 0.00147093 1.838e-07)
(0.00123785 0.00157267 1.62531e-07)
(0.00111093 0.00166475 1.47479e-07)
(0.00097719 0.00174661 1.36752e-07)
(0.000837454 0.00181775 1.29224e-07)
(0.000692576 0.00187773 1.24206e-07)
(0.000543448 0.00192619 1.21286e-07)
(0.000390984 0.00196282 1.20239e-07)
(0.00023612 0.00198741 1.20984e-07)
(7.98059e-05 0.00199979 1.23572e-07)
(0.00195856 7.81604e-05 1.23572e-07)
(0.00194643 0.000231251 1.20984e-07)
(0.00192235 0.000382922 1.20239e-07)
(0.00188647 0.000532243 1.21286e-07)
(0.00183902 0.000678297 1.24206e-07)
(0.00178027 0.000820187 1.29224e-07)
(0.0017106 0.000957042 1.36752e-07)
(0.00163042 0.00108802 1.47479e-07)
(0.00154024 0.00121232 1.62531e-07)
(0.0014406 0.00132919 1.838e-07)
(0.00132919 0.0014406 1.838e-07)
(0.00121232 0.00154024 1.62531e-07)
(0.00108802 0.00163042 1.47479e-07)
(0.000957042 0.0017106 1.36752e-07)
(0.000820187 0.00178027 1.29224e-07)
(0.000678297 0.00183902 1.24206e-07)
(0.000532243 0.00188647 1.21286e-07)
(0.000382922 0.00192235 1.20239e-07)
(0.000231251 0.00194643 1.20984e-07)
(7.81604e-05 0.00195856 1.23572e-07)
(0.00191733 7.6515e-05 1.23572e-07)
(0.00190545 0.000226383 1.20984e-07)
(0.00188188 0.000374861 1.20239e-07)
(0.00184676 0.000521038 1.21286e-07)
(0.0018003 0.000664017 1.24206e-07)
(0.00174279 0.00080292 1.29224e-07)
(0.00167458 0.000936894 1.36752e-07)
(0.0015961 0.00106512 1.47479e-07)
(0.00150781 0.0011868 1.62531e-07)
(0.00141027 0.0013012 1.838e-07)
(0.0013012 0.00141027 1.838e-07)
(0.0011868 0.00150781 1.62531e-07)
(0.00106512 0.0015961 1.47479e-07)
(0.000936894 0.00167458 1.36752e-07)
(0.00080292 0.00174279 1.29224e-07)
(0.000664017 0.0018003 1.24206e-07)
(0.000521038 0.00184676 1.21286e-07)
(0.000374861 0.00188188 1.20239e-07)
(0.000226383 0.00190545 1.20984e-07)
(7.6515e-05 0.00191733 1.23572e-07)
(0.0018761 7.48695e-05 1.23572e-07)
(0.00186448 0.000221514 1.20984e-07)
(0.00184141 0.000366799 1.20239e-07)
(0.00180704 0.000509833 1.21286e-07)
(0.00176158 0.000649737 1.24206e-07)
(0.00170531 0.000785653 1.29224e-07)
(0.00163857 0.000916746 1.36752e-07)
(0.00156177 0.00104221 1.47479e-07)
(0.00147539 0.00116128 1.62531e-07)
(0.00137995 0.00127322 1.838e-07)
(0.00127322 0.00137995 1.838e-07)
(0.00116128 0.00147539 1.62531e-07)
(0.00104221 0.00156177 1.47479e-07)
(0.000916746 0.00163857 1.36752e-07)
(0.000785653 0.00170531 1.29224e-07)
(0.000649737 0.00176158 1.24206e-07)
(0.000509833 0.00180704 1.21286e-07)
(0.000366799 0.00184141 1.20239e-07)
(0.000221514 0.00186448 1.20984e-07)
(7.48695e-05 0.0018761 1.23572e-07)
(0.00183486 7.3224e-05 1.23572e-07)
(0.0018235 0.000216646 1.20984e-07)
(0.00180094 0.000358738 1.20239e-07)
(0.00176733 0.000498628 1.21286e-07)
(0.00172287 0.000635457 1.24206e-07)
(0.00166783 0.000768386 1.29224e-07)
(0.00160256 0.000896597 1.36752e-07)
(0.00152745 0.00101931 1.47479e-07)
(0.00144296 0.00113576 1.62531e-07)
(0.00134962 0.00124524 1.838e-07)
(0.00124524 0.00134962 1.838e-07)
(0.00113576 0.00144296 1.62531e-07)
(0.00101931 0.00152745 1.47479e-07)
(0.000896597 0.00160256 1.36752e-07)
(0.000768386 0.00166783 1.29224e-07)
(0.000635457 0.00172287 1.24206e-07)
(0.000498628 0.00176733 1.21286e-07)
(0.000358738 0.00180094 1.20239e-07)
(0.000216646 0.0018235 1.20984e-07)
(7.3224e-05 0.00183486 1.23572e-07)
(0.00179363 7.15785e-05 1.23573e-07)
(0.00178252 0.000211777 1.20984e-07)
(0.00176047 0.000350676 1.20239e-07)
(0.00172761 0.000487423 1.21286e-07)
(0.00168415 0.000621177 1.24206e-07)
(0.00163035 0.000751119 1.29224e-07)
(0.00156655 0.000876449 1.36752e-07)
(0.00149312 0.0009964 1.47479e-07)
(0.00141054 0.00111023 1.62531e-07)
(0.00131929 0.00121725 1.838e-07)
(0.00121725 0.00131929 1.838e-07)
(0.00111023 0.00141054 1.62531e-07)
(0.0009964 0.00149312 1.47479e-07)
(0.000876449 0.00156655 1.36752e-07)
(0.000751119 0.00163035 1.29224e-07)
(0.000621177 0.00168415 1.24206e-07)
(0.000487423 0.00172761 1.21286e-07)
(0.000350676 0.00176047 1.20239e-07)
(0.000211777 0.00178252 1.20984e-07)
(7.15785e-05 0.00179363 1.23573e-07)
(0.0017524 6.99331e-05 1.23573e-07)
(0.00174154 0.000206909 1.20984e-07)
(0.00172 0.000342615 1.20239e-07)
(0.0016879 0.000476218 1.21286e-07)
(0.00164544 0.000606897 1.24206e-07)
(0.00159287 0.000733852 1.29224e-07)
(0.00153053 0.000856301 1.36753e-07)
(0.0014588 0.000973495 1.47479e-07)
(0.00137811 0.00108471 1.62531e-07)
(0.00128896 0.00118927 1.838e-07)
(0.00118927 0.00128896 1.838e-07)
(0.00108471 0.00137811 1.62531e-07)
(0.000973495 0.0014588 1.47479e-07)
(0.000856301 0.00153053 1.36753e-07)
(0.000733852 0.00159287 1.29224e-07)
(0.000606897 0.00164544 1.24206e-07)
(0.000476218 0.0016879 1.21286e-07)
(0.000342615 0.00172 1.20239e-07)
(0.000206909 0.00174154 1.20984e-07)
(6.99331e-05 0.0017524 1.23573e-07)
(0.00171116 6.82876e-05 1.23573e-07)
(0.00170057 0.000202041 1.20984e-07)
(0.00167953 0.000334553 1.20239e-07)
(0.00164818 0.000465013 1.21286e-07)
(0.00160672 0.000592617 1.24206e-07)
(0.0015554 0.000716585 1.29224e-07)
(0.00149452 0.000836153 1.36753e-07)
(0.00142447 0.000950589 1.47479e-07)
(0.00134568 0.00105919 1.62531e-07)
(0.00125863 0.00116129 1.83801e-07)
(0.00116129 0.00125863 1.83801e-07)
(0.00105919 0.00134568 1.62531e-07)
(0.000950589 0.00142447 1.47479e-07)
(0.000836153 0.00149452 1.36753e-07)
(0.000716585 0.0015554 1.29224e-07)
(0.000592617 0.00160672 1.24206e-07)
(0.000465013 0.00164818 1.21286e-07)
(0.000334553 0.00167953 1.20239e-07)
(0.000202041 0.00170057 1.20984e-07)
(6.82876e-05 0.00171116 1.23573e-07)
(0.00166993 6.66421e-05 1.23573e-07)
(0.00165959 0.000197172 1.20984e-07)
(0.00163906 0.000326492 1.20239e-07)
(0.00160847 0.000453807 1.21286e-07)
(0.001568 0.000578338 1.24206e-07)
(0.00151792 0.000699317 1.29224e-07)
(0.00145851 0.000816005 1.36753e-07)
(0.00139015 0.000927683 1.4748e-07)
(0.00131326 0.00103367 1.62531e-07)
(0.0012283 0.00113331 1.83801e-07)
(0.00113331 0.0012283 1.83801e-07)
(0.00103367 0.00131326 1.62531e-07)
(0.000927683 0.00139015 1.4748e-07)
(0.000816005 0.00145851 1.36753e-07)
(0.000699317 0.00151792 1.29224e-07)
(0.000578338 0.001568 1.24206e-07)