/*--------------------------------*- C++ -*----------------------------------*\
| =========                 |                                                 |
| \\      /  F ield         | foam-extend: Open Source CFD                    |
|  \\    /   O peration     | Version:     3.1                                |
|   \\  /    A nd           | Web:         http://www.extend-project.de       |
|    \\/     M anipulation  |                                                 |
\*---------------------------------------------------------------------------*/
FoamFile
{
    version     2.0;
    format      ascii;
    class       volSymmTensorField;
    location    "0.0002";
    object      epsilon;
}
// * * * * * * * * * * * * * * * * * * * * * * * * * * * * * * * * * * * * * //

dimensions      [0 0 0 0 0 0 0];

internalField   nonuniform List<symmTensor> 
6400
(
(-0.0014682 -9.18435e-05 0.00346673 0.000560962 0.000114624 0.00204451)
(-0.00100149 -6.69606e-05 0.00355099 0.000480175 0.000128586 0.000626058)
(-0.000602685 -4.56719e-05 0.00326322 0.000424697 0.00011814 -0.000306903)
(-0.000232377 -2.61453e-05 0.00264931 0.000390279 8.65852e-05 -0.00157418)
(-0.00143744 -0.000236853 0.00344778 0.000540145 0.000406615 0.00201688)
(-0.000977774 -0.000172734 0.00352526 0.000462346 0.000416727 0.000611034)
(-0.000584404 -0.000119424 0.00323541 0.000411544 0.000383013 -0.000321766)
(-0.000218091 -7.15495e-05 0.00261862 0.000381416 0.000310664 -0.00160113)
(-0.00138767 -0.000388647 0.00340469 0.000488354 0.000676556 0.0020155)
(-0.000941551 -0.000282845 0.00348122 0.000426066 0.000692096 0.000610248)
(-0.000559231 -0.000195516 0.00319498 0.000386639 0.000635733 -0.000322252)
(-0.00020268 -0.000117671 0.00258615 0.000366622 0.000515246 -0.00160125)
(-0.00131514 -0.000530189 0.00334085 0.000415368 0.000940994 0.00201477)
(-0.000888778 -0.000386321 0.00341585 0.00037302 0.000962739 0.000609968)
(-0.000522741 -0.000267155 0.00313488 0.000350095 0.000884253 -0.000322186)
(-0.000180805 -0.000160856 0.00253741 0.000344735 0.000716597 -0.00160076)
(-0.00122155 -0.000658737 0.00325627 0.000321581 0.00119906 0.00201415)
(-0.000820459 -0.00048027 0.00332904 0.000304567 0.00122704 0.000609906)
(-0.000475463 -0.000332241 0.00305502 0.000302726 0.00112705 -0.000321826)
(-0.000152396 -0.000200088 0.00247262 0.000316225 0.000913399 -0.00159981)
(-0.00110905 -0.000771185 0.0031513 0.000209162 0.00144943 0.00201348)
(-0.00073826 -0.000562379 0.00322123 0.000222372 0.0014834 0.000609958)
(-0.000418532 -0.000389078 0.00295582 0.000245715 0.00136253 -0.000321249)
(-0.000118161 -0.000234299 0.00239213 0.000281781 0.00110427 -0.00159843)
(-0.00098033 -0.000864828 0.00302652 8.07809e-05 0.00169077 0.0020128)
(-0.000644196 -0.000630636 0.00309313 0.000128448 0.00173029 0.000610115)
(-0.000353383 -0.000436228 0.002838 0.000180507 0.00158918 -0.000320504)
(-7.89915e-05 -0.000262589 0.0022966 0.000242302 0.00128786 -0.00159673)
(-0.000838502 -0.000937411 0.00288271 -6.04741e-05 0.0019218 0.0020123)
(-0.000540596 -0.000683368 0.0029457 2.51217e-05 0.00196629 0.000610399)
(-0.000281687 -0.00047252 0.00270255 0.000108781 0.00180561 -0.000319668)
(-3.59254e-05 -0.000284243 0.00218694 0.000198856 0.00146298 -0.00159491)
(-0.000687013 -0.000987215 0.00272084 -0.000211219 0.00214133 0.00201219)
(-0.000430019 -0.000719297 0.00278017 -8.50309e-05 0.00219019 0.0006108)
(-0.000205306 -0.000497086 0.00255073 3.24305e-05 0.00201072 -0.000318885)
(9.88337e-06 -0.000298773 0.00206424 0.000152664 0.00162867 -0.00159332)
(-0.000528449 -0.00101333 0.00254216 -0.000368017 0.00234845 0.00201238)
(-0.000315207 -0.00073758 0.00259808 -0.000199284 0.00240104 0.000611143)
(-0.000126277 -0.000509439 0.00238399 -4.65088e-05 0.0022037 -0.000318382)
(5.72181e-05 -0.000305999 0.00192972 0.000105077 0.00178436 -0.00159237)
(-0.000368017 -0.00101333 0.00234845 -0.000528449 0.00254216 0.00201238)
(-0.000199284 -0.00073758 0.00240104 -0.000315207 0.00259808 0.000611143)
(-4.65088e-05 -0.000509439 0.0022037 -0.000126277 0.00238399 -0.000318382)
(0.000105078 -0.000305999 0.00178436 5.7218e-05 0.00192972 -0.00159237)
(-0.000211219 -0.000987215 0.00214133 -0.000687013 0.00272084 0.00201219)
(-8.50309e-05 -0.000719297 0.00219019 -0.000430019 0.00278017 0.0006108)
(3.24305e-05 -0.000497086 0.00201072 -0.000205306 0.00255073 -0.000318885)
(0.000152664 -0.000298773 0.00162867 9.88337e-06 0.00206424 -0.00159332)
(-6.04741e-05 -0.000937411 0.0019218 -0.000838502 0.00288271 0.0020123)
(2.51217e-05 -0.000683368 0.00196629 -0.000540596 0.0029457 0.000610399)
(0.000108781 -0.00047252 0.00180561 -0.000281687 0.00270255 -0.000319668)
(0.000198856 -0.000284243 0.00146298 -3.59254e-05 0.00218694 -0.00159491)
(8.07809e-05 -0.000864828 0.00169077 -0.00098033 0.00302652 0.0020128)
(0.000128448 -0.000630636 0.00173029 -0.000644196 0.00309313 0.000610115)
(0.000180507 -0.000436228 0.00158918 -0.000353383 0.002838 -0.000320504)
(0.000242302 -0.000262589 0.00128786 -7.89915e-05 0.0022966 -0.00159673)
(0.000209162 -0.000771185 0.00144943 -0.00110905 0.0031513 0.00201348)
(0.000222372 -0.000562379 0.0014834 -0.00073826 0.00322123 0.000609958)
(0.000245715 -0.000389078 0.00136253 -0.000418532 0.00295582 -0.000321249)
(0.000281781 -0.000234299 0.00110427 -0.000118161 0.00239213 -0.00159843)
(0.000321581 -0.000658737 0.00119906 -0.00122155 0.00325627 0.00201415)
(0.000304567 -0.00048027 0.00122704 -0.000820459 0.00332904 0.000609906)
(0.000302726 -0.000332241 0.00112705 -0.000475463 0.00305502 -0.000321826)
(0.000316225 -0.000200088 0.000913399 -0.000152396 0.00247262 -0.00159981)
(0.000415368 -0.000530189 0.000940994 -0.00131514 0.00334085 0.00201477)
(0.00037302 -0.000386321 0.000962739 -0.000888778 0.00341585 0.000609969)
(0.000350095 -0.000267155 0.000884253 -0.000522741 0.00313488 -0.000322185)
(0.000344735 -0.000160856 0.000716597 -0.000180805 0.00253741 -0.00160076)
(0.000488354 -0.000388647 0.000676556 -0.00138767 0.00340469 0.0020155)
(0.000426066 -0.000282845 0.000692096 -0.000941551 0.00348122 0.000610248)
(0.000386639 -0.000195516 0.000635733 -0.000559231 0.00319498 -0.000322252)
(0.000366622 -0.000117671 0.000515246 -0.00020268 0.00258615 -0.00160125)
(0.000540145 -0.000236853 0.000406615 -0.00143744 0.00344778 0.00201688)
(0.000462346 -0.000172734 0.000416727 -0.000977774 0.00352526 0.000611034)
(0.000411544 -0.000119424 0.000383013 -0.000584404 0.00323541 -0.000321766)
(0.000381416 -7.15495e-05 0.000310664 -0.000218091 0.00261862 -0.00160113)
(0.000560962 -9.18435e-05 0.000114624 -0.0014682 0.00346673 0.00204451)
(0.000480175 -6.69606e-05 0.000128586 -0.00100149 0.00355099 0.000626058)
(0.000424697 -4.56719e-05 0.00011814 -0.000602685 0.00326322 -0.000306903)
(0.000390279 -2.61453e-05 8.65852e-05 -0.000232377 0.00264931 -0.00157418)
(-0.00244041 -0.000168748 0.00031831 0.00134837 -1.28904e-05 -0.000905262)
(-0.00187519 -0.000136889 0.00103451 0.00119015 2.51386e-05 -7.46455e-06)
(-0.00128295 -0.000103545 0.00106339 0.00107013 2.65681e-05 0.00040501)
(-0.000810548 -7.66431e-05 0.000468095 0.00098331 -5.35777e-06 0.00109021)
(-0.00239031 -0.000442419 0.000330127 0.00130591 3.94745e-05 -0.000885744)
(-0.00182977 -0.000357385 0.0010313 0.00114934 0.000122643 -1.08545e-06)
(-0.00124574 -0.000273389 0.0010515 0.00103592 0.000125439 0.000410381)
(-0.000782625 -0.000207214 0.000448225 0.000953099 5.49147e-05 0.00110583)
(-0.00229806 -0.000726508 0.000326189 0.00120908 6.48712e-05 -0.000885033)
(-0.00175495 -0.000585249 0.00101839 0.00107451 0.000202943 -1.13349e-06)
(-0.00118821 -0.000448115 0.00103823 0.00097915 0.000207341 0.000410075)
(-0.000739131 -0.000341218 0.00044258 0.000910906 8.94618e-05 0.00110541)
(-0.00216234 -0.000991274 0.000320003 0.00107254 8.95588e-05 -0.00088467)
(-0.00164564 -0.000799569 0.000999048 0.000964813 0.000281686 -1.03941e-06)
(-0.00110447 -0.000612512 0.00101846 0.00089555 0.000287737 0.000410009)
(-0.000675587 -0.000466512 0.000434036 0.000847721 0.000123653 0.00110521)
(-0.00198707 -0.00123171 0.000311612 0.000897055 0.000113509 -0.000884352)
(-0.00150393 -0.000994133 0.000973186 0.000823053 0.000358514 -9.28192e-07)
(-0.000995815 -0.000761808 0.000992076 0.000786953 0.000366267 0.000409987)
(-0.000592952 -0.000580229 0.000422592 0.000765208 0.000157186 0.00110498)
(-0.00177632 -0.00144196 0.000301006 0.000686782 0.000136685 -0.000883981)
(-0.00133335 -0.00116406 0.000940912 0.000652776 0.000432936 -8.0024e-07)
(-0.000864936 -0.000892059 0.000959199 0.000656157 0.000442357 0.000409961)
(-0.00049336 -0.000679306 0.000408317 0.000665488 0.000189699 0.00110467)
(-0.00153519 -0.00161697 0.000288199 0.000446804 0.000159023 -0.000883557)
(-0.0011382 -0.00130513 0.000902484 0.000458289 0.000504463 -6.61083e-07)
(-0.000715236 -0.000999938 0.000920126 0.000506597 0.000515446 0.000409923)
(-0.000379466 -0.000761153 0.000391395 0.000551241 0.000220834 0.00110428)
(-0.00126956 -0.00175252 0.00027325 0.000182975 0.000180446 -0.000883141)
(-0.000923461 -0.00141389 0.000858303 0.000244555 0.000572677 -5.33423e-07)
(-0.000550678 -0.00108278 0.000875316 0.000342256 0.000585066 0.00040987)
(-0.000254356 -0.000823737 0.000372124 0.000425598 0.000250301 0.00110385)
(-0.000985999 -0.00184545 0.000256331 -9.83306e-05 0.000200831 -0.000882865)
(-0.000694603 -0.00148779 0.000808955 1.70299e-05 0.000637262 -4.66936e-07)
(-0.000375672 -0.00113869 0.000825381 0.000167567 0.000650902 0.000409804)
(-0.000121429 -0.00086571 0.000350877 0.000292061 0.000277936 0.00110347)
(-0.000689813 -0.00189405 0.000238296 -0.000390705 0.000219963 -0.000882787)
(-0.000457549 -0.00152524 0.000755307 -0.000218601 0.000698077 -4.69389e-07)
(-0.000194965 -0.00116672 0.000771046 -1.27923e-05 0.000712861 0.000409747)
(1.57934e-05 -0.000886591 0.000328035 0.000154407 0.000303771 0.00110322)
(-0.000390705 -0.00189405 0.000219963 -0.000689813 0.000238296 -0.000882787)
(-0.000218601 -0.00152524 0.000698077 -0.000457549 0.000755307 -4.69388e-07)
(-1.27922e-05 -0.00116672 0.000712861 -0.000194965 0.000771046 0.000409747)
(0.000154407 -0.000886591 0.000303771 1.57934e-05 0.000328035 0.00110322)
(-9.83306e-05 -0.00184545 0.000200831 -0.000985999 0.000256331 -0.000882865)
(1.70299e-05 -0.00148779 0.000637262 -0.000694603 0.000808955 -4.66935e-07)
(0.000167567 -0.00113869 0.000650902 -0.000375672 0.000825381 0.000409804)
(0.000292061 -0.00086571 0.000277936 -0.000121429 0.000350877 0.00110347)
(0.000182975 -0.00175252 0.000180446 -0.00126956 0.00027325 -0.000883141)
(0.000244555 -0.00141389 0.000572677 -0.000923461 0.000858303 -5.3342e-07)
(0.000342256 -0.00108278 0.000585066 -0.000550678 0.000875317 0.00040987)
(0.000425598 -0.000823737 0.000250301 -0.000254356 0.000372124 0.00110385)
(0.000446804 -0.00161697 0.000159023 -0.00153519 0.000288199 -0.000883557)
(0.000458289 -0.00130513 0.000504463 -0.0011382 0.000902484 -6.61079e-07)
(0.000506597 -0.000999938 0.000515446 -0.000715236 0.000920126 0.000409923)
(0.000551241 -0.000761153 0.000220834 -0.000379466 0.000391395 0.00110428)
(0.000686782 -0.00144196 0.000136685 -0.00177632 0.000301006 -0.000883981)
(0.000652776 -0.00116406 0.000432936 -0.00133335 0.000940912 -8.00235e-07)
(0.000656157 -0.000892059 0.000442357 -0.000864936 0.000959199 0.000409961)
(0.000665488 -0.000679306 0.000189699 -0.00049336 0.000408317 0.00110467)
(0.000897055 -0.00123171 0.000113509 -0.00198707 0.000311612 -0.000884352)
(0.000823053 -0.000994133 0.000358514 -0.00150393 0.000973186 -9.28183e-07)
(0.000786953 -0.000761808 0.000366267 -0.000995815 0.000992076 0.000409987)
(0.000765208 -0.000580229 0.000157186 -0.000592953 0.000422592 0.00110498)
(0.00107254 -0.000991274 8.95588e-05 -0.00216234 0.000320003 -0.00088467)
(0.000964813 -0.000799569 0.000281686 -0.00164564 0.000999048 -1.03939e-06)
(0.00089555 -0.000612512 0.000287737 -0.00110447 0.00101846 0.000410009)
(0.000847721 -0.000466512 0.000123653 -0.000675587 0.000434036 0.00110521)
(0.00120908 -0.000726508 6.48712e-05 -0.00229806 0.000326189 -0.000885033)
(0.00107451 -0.000585249 0.000202943 -0.00175495 0.00101839 -1.13345e-06)
(0.00097915 -0.000448115 0.000207341 -0.00118821 0.00103823 0.000410075)
(0.000910906 -0.000341218 8.94617e-05 -0.000739131 0.00044258 0.00110541)
(0.00130591 -0.000442419 3.94745e-05 -0.00239031 0.000330127 -0.000885744)
(0.00114934 -0.000357385 0.000122643 -0.00182977 0.0010313 -1.0854e-06)
(0.00103592 -0.000273389 0.000125439 -0.00124574 0.0010515 0.000410382)
(0.000953099 -0.000207213 5.49147e-05 -0.000782625 0.000448225 0.00110583)
(0.00134837 -0.000168748 -1.28904e-05 -0.00244041 0.00031831 -0.000905262)
(0.00119015 -0.000136889 2.51386e-05 -0.00187519 0.00103451 -7.4645e-06)
(0.00107013 -0.000103545 2.65681e-05 -0.00128295 0.00106339 0.00040501)
(0.00098331 -7.66431e-05 -5.35778e-06 -0.000810548 0.000468095 0.00109021)
(-0.00164503 -0.00013789 -0.000362659 0.00153521 -1.49699e-05 -0.00123085)
(-0.00149074 -0.000126353 -0.000391844 0.00139483 -1.89127e-05 -0.000362597)
(-0.00122142 -0.000108552 -0.000354242 0.0012754 -1.82914e-05 0.000360413)
(-0.00107443 -9.66985e-05 -0.00028649 0.00117581 -1.52359e-05 0.00119272)
(-0.00160944 -0.000371185 -0.000362192 0.0014965 -4.32841e-05 -0.00121548)
(-0.00145292 -0.000336331 -0.000389071 0.00135337 -4.6805e-05 -0.000350337)
(-0.0011878 -0.00029024 -0.000351814 0.00123622 -4.24415e-05 0.000372862)
(-0.00104796 -0.000260634 -0.000283325 0.0011354 -3.42591e-05 0.00120931)
(-0.0015327 -0.000610313 -0.000357846 0.00141504 -7.16867e-05 -0.00121421)
(-0.00138297 -0.000551251 -0.000384294 0.00128292 -7.68237e-05 -0.000349239)
(-0.00112722 -0.000476174 -0.00034749 0.00117599 -6.94064e-05 0.000373735)
(-0.000993991 -0.000429471 -0.000279795 0.0010826 -5.58227e-05 0.00120981)
(-0.00141846 -0.000833102 -0.000351187 0.00129994 -9.95423e-05 -0.00121351)
(-0.00127984 -0.000753539 -0.000377223 0.00117943 -0.000106628 -0.000348904)
(-0.00103813 -0.000651164 -0.000341084 0.00108715 -9.62523e-05 0.000373752)
(-0.000913953 -0.000587286 -0.000274616 0.00100319 -7.73169e-05 0.00120946)
(-0.00127065 -0.00103533 -0.00034248 0.00115214 -0.000126862 -0.00121288)
(-0.0011458 -0.000937117 -0.000367945 0.00104556 -0.000135911 -0.000348785)
(-0.000922257 -0.000810013 -0.000332695 0.000971574 -0.000122659 0.000373468)
(-0.000809684 -0.000730423 -0.000267828 0.000899367 -9.84403e-05 0.00120869)
(-0.00109281 -0.00121205 -0.000331806 0.000975241 -0.00015346 -0.00121217)
(-0.000984324 -0.00109725 -0.000356551 0.000884779 -0.00016447 -0.000348737)
(-0.000782604 -0.000948421 -0.000322381 0.000832308 -0.000148425 0.000373013)
(-0.000683978 -0.000855009 -0.000259459 0.000773853 -0.000119035 0.0012076)
(-0.000889339 -0.001359 -0.000319252 0.000773638 -0.000179154 -0.00121138)
(-0.000799661 -0.00122992 -0.000343096 0.00070131 -0.000192128 -0.000348736)
(-0.000622954 -0.0010628 -0.000310169 0.000673151 -0.0001734 0.000372446)
(-0.00054028 -0.000957775 -0.000249518 0.0006301 -0.000139 0.0012063)
(-0.000665274 -0.00147266 -0.000304898 0.000552338 -0.000203803 -0.00121065)
(-0.00059672 -0.00133187 -0.000327597 0.000500025 -0.00021873 -0.000348792)
(-0.000447715 -0.00115035 -0.000296055 0.000498504 -0.000197441 0.000371832)
(-0.000382579 -0.0010362 -0.000238 0.000472115 -0.000158246 0.00120495)
(-0.000426329 -0.00155041 -0.000288761 0.000316748 -0.000227348 -0.00121013)
(-0.000380968 -0.0014008 -0.000309999 0.000286246 -0.000244119 -0.000348905)
(-0.000261787 -0.00120917 -0.000279997 0.00031323 -0.000220382 0.000371281)
(-0.000215245 -0.00108869 -0.000224888 0.000304331 -0.000176654 0.00120378)
(-0.000177793 -0.00159078 -0.000270459 7.22383e-05 -0.000249759 -0.0012099)
(-0.000158362 -0.0014355 -0.000290151 6.54023e-05 -0.000268065 -0.000349011)
(-7.03463e-05 -0.00123852 -0.000261949 0.000122331 -0.000241989 0.000370941)
(-4.27146e-05 -0.00111476 -0.000210199 0.000131433 -0.000194049 0.0012031)
(7.22383e-05 -0.00159078 -0.000249759 -0.000177793 -0.000270459 -0.0012099)
(6.54023e-05 -0.0014355 -0.000268065 -0.000158362 -0.000290151 -0.000349011)
(0.000122331 -0.00123852 -0.000241989 -7.03463e-05 -0.000261949 0.000370941)
(0.000131433 -0.00111476 -0.000194049 -4.27146e-05 -0.000210199 0.0012031)
(0.000316748 -0.00155041 -0.000227348 -0.000426329 -0.000288761 -0.00121013)
(0.000286246 -0.0014008 -0.000244119 -0.000380968 -0.000309999 -0.000348905)
(0.00031323 -0.00120917 -0.000220382 -0.000261787 -0.000279997 0.000371281)
(0.000304331 -0.00108869 -0.000176654 -0.000215245 -0.000224888 0.00120378)
(0.000552338 -0.00147266 -0.000203803 -0.000665274 -0.000304898 -0.00121065)
(0.000500025 -0.00133187 -0.00021873 -0.00059672 -0.000327597 -0.000348792)
(0.000498504 -0.00115035 -0.000197441 -0.000447715 -0.000296055 0.000371832)
(0.000472115 -0.0010362 -0.000158246 -0.000382579 -0.000238 0.00120495)
(0.000773638 -0.001359 -0.000179154 -0.000889339 -0.000319252 -0.00121138)
(0.00070131 -0.00122992 -0.000192128 -0.000799661 -0.000343096 -0.000348736)
(0.000673151 -0.0010628 -0.0001734 -0.000622954 -0.000310169 0.000372446)
(0.0006301 -0.000957775 -0.000139 -0.00054028 -0.000249518 0.0012063)
(0.000975241 -0.00121205 -0.00015346 -0.00109281 -0.000331806 -0.00121217)
(0.000884779 -0.00109725 -0.00016447 -0.000984324 -0.000356551 -0.000348737)
(0.000832308 -0.000948421 -0.000148425 -0.000782604 -0.000322381 0.000373013)
(0.000773853 -0.000855009 -0.000119035 -0.000683978 -0.000259459 0.0012076)
(0.00115214 -0.00103533 -0.000126862 -0.00127065 -0.00034248 -0.00121288)
(0.00104556 -0.000937117 -0.000135911 -0.0011458 -0.000367945 -0.000348785)
(0.000971574 -0.000810013 -0.000122659 -0.000922257 -0.000332695 0.000373468)
(0.000899367 -0.000730423 -9.84403e-05 -0.000809684 -0.000267828 0.00120869)
(0.00129994 -0.000833102 -9.95423e-05 -0.00141846 -0.000351187 -0.00121351)
(0.00117943 -0.000753539 -0.000106628 -0.00127984 -0.000377223 -0.000348904)
(0.00108715 -0.000651164 -9.62523e-05 -0.00103813 -0.000341084 0.000373752)
(0.00100319 -0.000587286 -7.7317e-05 -0.000913953 -0.000274616 0.00120946)
(0.00141504 -0.000610313 -7.16867e-05 -0.0015327 -0.000357846 -0.00121421)
(0.00128292 -0.000551251 -7.68238e-05 -0.00138297 -0.000384294 -0.000349239)
(0.00117599 -0.000476174 -6.94064e-05 -0.00112722 -0.00034749 0.000373735)
(0.0010826 -0.000429471 -5.58227e-05 -0.000993991 -0.000279795 0.00120981)
(0.0014965 -0.000371185 -4.32841e-05 -0.00160944 -0.000362192 -0.00121548)
(0.00135337 -0.000336331 -4.68051e-05 -0.00145292 -0.000389071 -0.000350337)
(0.00123622 -0.00029024 -4.24415e-05 -0.0011878 -0.000351814 0.000372862)
(0.0011354 -0.000260634 -3.42591e-05 -0.00104796 -0.000283325 0.00120931)
(0.00153521 -0.00013789 -1.49699e-05 -0.00164503 -0.000362659 -0.00123085)
(0.00139483 -0.000126353 -1.89127e-05 -0.00149074 -0.000391844 -0.000362597)
(0.0012754 -0.000108552 -1.82914e-05 -0.00122142 -0.000354242 0.000360413)
(0.00117581 -9.66985e-05 -1.52359e-05 -0.00107443 -0.00028649 0.00119272)
(-0.00118973 -0.000108586 -0.000412362 0.00134248 -1.69938e-06 -0.000697303)
(-0.00105364 -9.87744e-05 -0.00064414 0.00123127 -1.60922e-05 -0.000294059)
(-0.000911616 -8.8315e-05 -0.000625411 0.00113517 -1.63255e-05 0.000120156)
(-0.000801976 -7.90389e-05 -0.000375763 0.00105336 -3.63509e-06 0.000540892)
(-0.00115961 -0.000295126 -0.00041419 0.00131349 -4.89154e-05 -0.000691265)
(-0.00102522 -0.000266242 -0.00064088 0.00120006 -7.61483e-05 -0.000287288)
(-0.000885833 -0.000238246 -0.000618796 0.00110468 -7.3858e-05 0.00012739)
(-0.000778697 -0.000214863 -0.000366674 0.00102178 -4.44576e-05 0.000548421)
(-0.00109844 -0.000485506 -0.000409276 0.00124856 -8.14588e-05 -0.000690637)
(-0.000970227 -0.000436797 -0.000633058 0.00114408 -0.000126213 -0.00028662)
(-0.000836557 -0.000390804 -0.000611057 0.00105511 -0.000122113 0.000127973)
(-0.000734072 -0.000353922 -0.000362135 0.00097806 -7.28988e-05 0.000548798)
(-0.00100745 -0.000662939 -0.000401688 0.0011566 -0.000113015 -0.000690129)
(-0.000888464 -0.000597342 -0.000621219 0.00106178 -0.000175251 -0.000286308)
(-0.000763427 -0.000534594 -0.000599544 0.000982002 -0.000169443 0.000128076)
(-0.000668135 -0.000484083 -0.000355248 0.000912529 -0.000100899 0.000548647)
(-0.000889587 -0.000823956 -0.000391595 0.00103871 -0.000143727 -0.000689645)
(-0.000781972 -0.000743027 -0.000605419 0.000955379 -0.000223112 -0.000286187)
(-0.00066814 -0.000665131 -0.000584218 0.000886907 -0.000215697 0.000127887)
(-0.000582122 -0.000602128 -0.000346094 0.000826838 -0.000128301 0.000548104)
(-0.000747738 -0.00096463 -0.000379073 0.000897823 -0.000173547 -0.00068913)
(-0.000653616 -0.000870042 -0.000585793 0.000827679 -0.000269553 -0.000286171)
(-0.00055323 -0.000778797 -0.000565188 0.000772343 -0.000260577 0.000127503)
(-0.000478375 -0.000704786 -0.000334732 0.000723205 -0.000154896 0.000547256)
(-0.000585418 -0.00108158 -0.000364195 0.000737422 -0.000202372 -0.000688603)
(-0.000506833 -0.000975161 -0.000562492 0.000682076 -0.000314312 -0.000286229)
(-0.000421886 -0.000872607 -0.000542606 0.000641469 -0.000303792 0.000126994)
(-0.000359793 -0.00078933 -0.000321267 0.000604505 -0.000180473 0.000546208)
(-0.000406675 -0.00117202 -0.000347042 0.000561475 -0.00023011 -0.000688139)
(-0.000345614 -0.00105581 -0.000535695 0.000522487 -0.000357156 -0.000286347)
(-0.000277822 -0.000944257 -0.000516667 0.00049797 -0.000345087 0.000126438)
(-0.000229742 -0.000853692 -0.000305839 0.000474106 -0.000204855 0.000545113)
(-0.000216113 -0.00123379 -0.00032768 0.000374257 -0.000256719 -0.000687826)
(-0.00017445 -0.00111017 -0.000505593 0.000353205 -0.000397903 -0.000286495)
(-0.000125182 -0.000992251 -0.000487598 0.000345929 -0.000384257 0.000125947)
(-9.18947e-05 -0.00089662 -0.000288621 0.000335752 -0.000227905 0.000544182)
(-1.84201e-05 -0.00126566 -0.000306023 0.000180045 -0.000282164 -0.00068769)
(1.7449e-06 -0.00113742 -0.000472396 0.00017858 -0.000436393 -0.000286605)
(3.17173e-05 -0.0010161 -0.00045567 0.000189497 -0.000421159 0.000125653)
(5.00842e-05 -0.000917866 -0.00026981 0.000193368 -0.000249557 0.000543638)
(0.000180045 -0.00126566 -0.000282164 -1.84201e-05 -0.000306023 -0.00068769)
(0.00017858 -0.00113742 -0.000436393 1.74492e-06 -0.000472396 -0.000286605)
(0.000189497 -0.0010161 -0.000421159 3.17173e-05 -0.00045567 0.000125653)
(0.000193368 -0.000917866 -0.000249557 5.00842e-05 -0.00026981 0.000543638)
(0.000374257 -0.00123379 -0.000256719 -0.000216113 -0.00032768 -0.000687826)
(0.000353205 -0.00111017 -0.000397903 -0.00017445 -0.000505593 -0.000286495)
(0.000345929 -0.000992251 -0.000384257 -0.000125182 -0.000487598 0.000125947)
(0.000335752 -0.00089662 -0.000227905 -9.18947e-05 -0.000288621 0.000544182)
(0.000561475 -0.00117202 -0.000230111 -0.000406675 -0.000347042 -0.000688139)
(0.000522487 -0.00105581 -0.000357156 -0.000345614 -0.000535695 -0.000286347)
(0.00049797 -0.000944257 -0.000345087 -0.000277822 -0.000516667 0.000126438)
(0.000474106 -0.000853692 -0.000204855 -0.000229742 -0.000305839 0.000545113)
(0.000737422 -0.00108158 -0.000202372 -0.000585418 -0.000364195 -0.000688603)
(0.000682076 -0.000975161 -0.000314312 -0.000506833 -0.000562492 -0.000286229)
(0.000641469 -0.000872607 -0.000303792 -0.000421886 -0.000542606 0.000126994)
(0.000604505 -0.00078933 -0.000180473 -0.000359793 -0.000321267 0.000546208)
(0.000897823 -0.00096463 -0.000173547 -0.000747738 -0.000379073 -0.00068913)
(0.000827679 -0.000870042 -0.000269553 -0.000653616 -0.000585793 -0.000286171)
(0.000772343 -0.000778797 -0.000260577 -0.000553231 -0.000565188 0.000127503)
(0.000723205 -0.000704786 -0.000154896 -0.000478375 -0.000334732 0.000547256)
(0.00103871 -0.000823956 -0.000143727 -0.000889587 -0.000391595 -0.000689645)
(0.000955379 -0.000743027 -0.000223112 -0.000781972 -0.000605419 -0.000286187)
(0.000886907 -0.000665131 -0.000215697 -0.00066814 -0.000584218 0.000127887)
(0.000826838 -0.000602128 -0.000128301 -0.000582122 -0.000346094 0.000548104)
(0.0011566 -0.000662939 -0.000113015 -0.00100745 -0.000401688 -0.000690129)
(0.00106178 -0.000597342 -0.000175251 -0.000888464 -0.000621219 -0.000286308)
(0.000982002 -0.000534594 -0.000169443 -0.000763427 -0.000599544 0.000128076)
(0.000912529 -0.000484083 -0.000100899 -0.000668135 -0.000355248 0.000548647)
(0.00124856 -0.000485506 -8.14588e-05 -0.00109844 -0.000409276 -0.000690637)
(0.00114408 -0.000436797 -0.000126213 -0.000970227 -0.000633058 -0.00028662)
(0.00105511 -0.000390804 -0.000122114 -0.000836557 -0.000611057 0.000127973)
(0.00097806 -0.000353922 -7.28989e-05 -0.000734072 -0.000362135 0.000548798)
(0.00131349 -0.000295126 -4.89154e-05 -0.00115961 -0.00041419 -0.000691265)
(0.00120006 -0.000266242 -7.61484e-05 -0.00102522 -0.00064088 -0.000287288)
(0.00110468 -0.000238245 -7.3858e-05 -0.000885833 -0.000618796 0.00012739)
(0.00102178 -0.000214863 -4.44576e-05 -0.000778697 -0.000366674 0.000548421)
(0.00134249 -0.000108586 -1.69938e-06 -0.00118973 -0.000412362 -0.000697303)
(0.00123127 -9.87743e-05 -1.60922e-05 -0.00105364 -0.00064414 -0.000294059)
(0.00113517 -8.8315e-05 -1.63255e-05 -0.000911616 -0.000625411 0.000120156)
(0.00105336 -7.90389e-05 -3.63509e-06 -0.000801976 -0.000375763 0.000540892)
(-0.000940095 -8.45124e-05 -0.000244156 0.00102882 9.0867e-06 -0.000146936)
(-0.000758846 -7.34293e-05 -0.000434467 0.000944403 -2.36925e-06 -0.000124034)
(-0.000612512 -6.37687e-05 -0.000426671 0.000873749 -2.76049e-06 -5.01369e-05)
(-0.000462257 -5.37624e-05 -0.000229677 0.000815794 7.24398e-06 -3.20422e-06)
(-0.000914688 -0.000229381 -0.000245479 0.00100889 -2.8435e-05 -0.000147447)
(-0.000736924 -0.000198524 -0.000431937 0.000923283 -5.08285e-05 -0.000123142)
(-0.000593028 -0.000173083 -0.000421268 0.000853639 -4.99293e-05 -4.90018e-05)
(-0.000443961 -0.000148004 -0.000222415 0.000796119 -2.69364e-05 -3.03347e-06)
(-0.000866915 -0.000377335 -0.000242623 0.000958431 -4.7726e-05 -0.000147502)
(-0.000695936 -0.0003256 -0.000426681 0.000881651 -8.47279e-05 -0.000123153)
(-0.000557248 -0.000283752 -0.000416025 0.000817718 -8.30455e-05 -4.90128e-05)
(-0.000413023 -0.000243521 -0.0002197 0.000765959 -4.44615e-05 -3.05132e-06)
(-0.00079619 -0.000515228 -0.000238196 0.000886876 -6.62639e-05 -0.000147403)
(-0.00063503 -0.000445289 -0.000418691 0.000820238 -0.000117803 -0.000123081)
(-0.000504183 -0.000388199 -0.000408147 0.000764592 -0.0001154 -4.89836e-05)
(-0.000367691 -0.00033314 -0.000215451 0.000720881 -6.16611e-05 -3.06608e-06)
(-0.000704639 -0.0006404 -0.000232271 0.000795174 -8.41925e-05 -0.000147288)
(-0.000555694 -0.00055397 -0.000407933 0.000740842 -0.000149962 -0.000123037)
(-0.000435023 -0.000483085 -0.000397548 0.000695462 -0.000146906 -4.9024e-05)
(-0.000308557 -0.000414459 -0.00020972 0.000661865 -7.84382e-05 -3.18668e-06)
(-0.000594469 -0.000749832 -0.00022486 0.000685636 -0.000101582 -0.000147192)
(-0.000460049 -0.00064879 -0.000394484 0.000645566 -0.000181077 -0.000123044)
(-0.000351588 -0.000565741 -0.000384309 0.000612157 -0.000177371 -4.91461e-05)
(-0.000237191 -0.000485164 -0.00020257 0.000590416 -9.46334e-05 -3.42486e-06)
(-0.000468374 -0.000840908 -0.000215972 0.000560935 -0.000118457 -0.000147128)
(-0.000350631 -0.00072733 -0.000378461 0.000536922 -0.000211001 -0.000123099)
(-0.000256185 -0.000633971 -0.000368576 0.000516967 -0.000206588 -4.93312e-05)
(-0.000155595 -0.000543343 -0.000194118 0.000508522 -0.000110076 -3.74848e-06)
(-0.00032945 -0.00091143 -0.000205617 0.000424082 -0.000134826 -0.000147109)
(-0.000230393 -0.000787643 -0.000360024 0.0004178 -0.000239601 -0.000123188)
(-0.000151513 -0.000686084 -0.000350554 0.000412571 -0.000234385 -4.95427e-05)
(-6.61062e-05 -0.000587563 -0.000184531 0.000418542 -0.000124624 -4.09753e-06)
(-0.000181237 -0.000959661 -0.00019382 0.000278343 -0.00015069 -0.000147138)
(-0.000102677 -0.000828334 -0.000339382 0.000291386 -0.000266791 -0.000123285)
(-4.05923e-05 -0.00072098 -0.000330499 0.000301959 -0.000260659 -4.97306e-05)
(2.87277e-05 -0.000616986 -0.000174013 0.000323118 -0.000138202 -4.39497e-06)
(-2.74588e-05 -0.000984492 -0.000180571 0.000127037 -0.000166037 -0.000147179)
(2.88519e-05 -0.000848732 -0.000316794 0.000160933 -0.000292538 -0.00012335)
(7.34465e-05 -0.000738318 -0.000308708 0.000188172 -0.000285412 -4.9842e-05)
(0.000126396 -0.000631511 -0.000162763 0.000225014 -0.000150862 -4.56655e-06)
(0.000127037 -0.000984492 -0.000166037 -2.74588e-05 -0.000180571 -0.000147179)
(0.000160933 -0.000848732 -0.000292538 2.88519e-05 -0.000316794 -0.00012335)
(0.000188172 -0.000738318 -0.000285412 7.34465e-05 -0.000308708 -4.9842e-05)
(0.000225014 -0.000631511 -0.000150862 0.000126396 -0.000162763 -4.56654e-06)
(0.000278343 -0.000959661 -0.00015069 -0.000181237 -0.00019382 -0.000147138)
(0.000291386 -0.000828334 -0.000266791 -0.000102677 -0.000339382 -0.000123285)
(0.000301959 -0.00072098 -0.000260659 -4.05923e-05 -0.000330499 -4.97306e-05)
(0.000323118 -0.000616986 -0.000138203 2.87277e-05 -0.000174013 -4.39496e-06)
(0.000424082 -0.00091143 -0.000134826 -0.00032945 -0.000205617 -0.000147109)
(0.0004178 -0.000787643 -0.000239601 -0.000230393 -0.000360024 -0.000123188)
(0.000412571 -0.000686084 -0.000234385 -0.000151513 -0.000350554 -4.95427e-05)
(0.000418542 -0.000587563 -0.000124624 -6.61062e-05 -0.000184531 -4.09751e-06)
(0.000560935 -0.000840908 -0.000118457 -0.000468374 -0.000215972 -0.000147128)
(0.000536922 -0.00072733 -0.000211001 -0.000350631 -0.000378461 -0.000123099)
(0.000516967 -0.000633971 -0.000206588 -0.000256185 -0.000368577 -4.93312e-05)
(0.000508522 -0.000543343 -0.000110076 -0.000155595 -0.000194118 -3.74845e-06)
(0.000685636 -0.000749832 -0.000101582 -0.000594469 -0.00022486 -0.000147192)
(0.000645566 -0.00064879 -0.000181077 -0.000460049 -0.000394484 -0.000123044)
(0.000612157 -0.000565741 -0.000177371 -0.000351588 -0.000384309 -4.91461e-05)
(0.000590416 -0.000485164 -9.46334e-05 -0.000237191 -0.00020257 -3.42483e-06)
(0.000795174 -0.0006404 -8.41926e-05 -0.000704639 -0.000232271 -0.000147288)
(0.000740842 -0.00055397 -0.000149962 -0.000555694 -0.000407933 -0.000123037)
(0.000695462 -0.000483085 -0.000146906 -0.000435023 -0.000397548 -4.9024e-05)
(0.000661865 -0.000414459 -7.84382e-05 -0.000308557 -0.00020972 -3.18665e-06)