/*--------------------------------*- C++ -*----------------------------------*\
| =========                 |                                                 |
| \\      /  F ield         | foam-extend: Open Source CFD                    |
|  \\    /   O peration     | Version:     3.1                                |
|   \\  /    A nd           | Web:         http://www.extend-project.de       |
|    \\/     M anipulation  |                                                 |
\*---------------------------------------------------------------------------*/
FoamFile
{
    version     2.0;
    format      ascii;
    class       pointVectorField;
    location    "0.0002";
    object      pointD;
}
// * * * * * * * * * * * * * * * * * * * * * * * * * * * * * * * * * * * * * //

dimensions      [0 1 0 0 0 0 0];

internalField   nonuniform List<vector> 
8505
(
(0 0 0)
(0 0 0)
(0 0 0)
(0 0 0)
(0 0 0)
(0 0 0)
(0 0 0)
(0 0 0)
(0 0 0)
(0 0 0)
(0 0 0)
(0 0 0)
(0 0 0)
(0 0 0)
(0 0 0)
(0 0 0)
(0 0 0)
(0 0 0)
(0 0 0)
(0 0 0)
(0 0 0)
(0 0 0)
(0 0 0)
(0 0 0)
(0 0 0)
(0 0 0)
(0 0 0)
(0 0 0)
(0 0 0)
(0 0 0)
(0 0 0)
(0 0 0)
(0 0 0)
(0 0 0)
(0 0 0)
(0 0 0)
(0 0 0)
(0 0 0)
(0 0 0)
(0 0 0)
(0 0 0)
(0 0 0)
(0 0 0)
(0 0 0)
(0 0 0)
(0 0 0)
(0 0 0)
(0 0 0)
(0 0 0)
(0 0 0)
(0 0 0)
(0 0 0)
(0 0 0)
(0 0 0)
(0 0 0)
(0 0 0)
(0 0 0)
(0 0 0)
(0 0 0)
(0 0 0)
(0 0 0)
(0 0 0)
(0 0 0)
(0 0 0)
(0 0 0)
(0 0 0)
(0 0 0)
(0 0 0)
(0 0 0)
(0 0 0)
(0 0 0)
(0 0 0)
(0 0 0)
(0 0 0)
(0 0 0)
(0 0 0)
(0 0 0)
(0 0 0)
(0 0 0)
(0 0 0)
(0 0 0)
(0 0 0)
(0 0 0)
(0 0 0)
(0 0 0)
(0 0 0)
(0 0 0)
(0 0 0)
(0 0 0)
(0 0 0)
(0 0 0)
(0 0 0)
(0 0 0)
(0 0 0)
(0 0 0)
(0 0 0)
(0 0 0)
(0 0 0)
(0 0 0)
(0 0 0)
(0 0 0)
(0 0 0)
(0 0 0)
(0 0 0)
(0 0 0)
(6.19762e-06 0 1.89454e-06)
(5.45833e-06 0 7.04133e-07)
(4.95322e-06 0 1.01177e-07)
(4.64803e-06 0 -4.62594e-07)
(4.52812e-06 0 -1.46465e-06)
(6.15377e-06 4.81121e-07 1.84888e-06)
(5.42297e-06 4.26064e-07 6.8288e-07)
(4.92513e-06 3.87765e-07 8.62505e-08)
(4.62655e-06 3.64761e-07 -4.83696e-07)
(4.51332e-06 3.56576e-07 -1.51014e-06)
(6.09495e-06 9.6481e-07 1.84735e-06)
(5.37138e-06 8.50235e-07 6.82035e-07)
(4.87857e-06 7.72732e-07 8.5667e-08)
(4.58314e-06 7.26461e-07 -4.84195e-07)
(4.47147e-06 7.09181e-07 -1.51024e-06)
(5.99977e-06 1.43933e-06 1.84666e-06)
(5.28763e-06 1.26859e-06 6.81651e-07)
(4.80247e-06 1.15272e-06 8.551e-08)
(4.5116e-06 1.08354e-06 -4.84173e-07)
(4.40157e-06 1.05771e-06 -1.50996e-06)
(5.8676e-06 1.90403e-06 1.8461e-06)
(5.17099e-06 1.67854e-06 6.81456e-07)
(4.69636e-06 1.52528e-06 8.55439e-08)
(4.41173e-06 1.43376e-06 -4.83908e-07)
(4.30392e-06 1.39966e-06 -1.50932e-06)
(5.69883e-06 2.35635e-06 1.84544e-06)
(5.02186e-06 2.07759e-06 6.81313e-07)
(4.56059e-06 1.88797e-06 8.5689e-08)
(4.28391e-06 1.77471e-06 -4.83457e-07)
(4.17894e-06 1.73259e-06 -1.5083e-06)
(5.4944e-06 2.79375e-06 1.84466e-06)
(4.84113e-06 2.46332e-06 6.81201e-07)
(4.39603e-06 2.23844e-06 8.59221e-08)
(4.129e-06 2.10409e-06 -4.8285e-07)
(4.02753e-06 2.05415e-06 -1.50694e-06)
(5.25565e-06 3.21379e-06 1.8439e-06)
(4.63008e-06 2.8335e-06 6.81158e-07)
(4.20396e-06 2.57457e-06 8.62313e-08)
(3.9483e-06 2.41979e-06 -4.82141e-07)
(3.85102e-06 2.36216e-06 -1.50537e-06)
(4.98424e-06 3.61434e-06 1.84336e-06)
(4.39037e-06 3.18616e-06 6.81238e-07)
(3.986e-06 2.89451e-06 8.659e-08)
(3.74346e-06 2.72003e-06 -4.81434e-07)
(3.65117e-06 2.65482e-06 -1.50383e-06)
(4.68218e-06 3.99358e-06 1.84332e-06)
(4.12392e-06 3.51969e-06 6.81462e-07)
(3.7441e-06 3.19681e-06 8.69268e-08)
(3.51642e-06 3.00347e-06 -4.80882e-07)
(3.42998e-06 2.93082e-06 -1.50266e-06)
(4.35071e-06 4.35071e-06 1.84345e-06)
(3.83288e-06 3.83288e-06 6.81608e-07)
(3.4804e-06 3.4804e-06 8.70768e-08)
(3.26923e-06 3.26923e-06 -4.80667e-07)
(3.18941e-06 3.18941e-06 -1.50222e-06)
(3.99358e-06 4.68218e-06 1.84332e-06)
(3.51969e-06 4.12392e-06 6.81462e-07)
(3.19681e-06 3.7441e-06 8.69268e-08)
(3.00347e-06 3.51642e-06 -4.80882e-07)
(2.93082e-06 3.42998e-06 -1.50266e-06)
(3.61434e-06 4.98424e-06 1.84336e-06)
(3.18616e-06 4.39037e-06 6.81238e-07)
(2.89451e-06 3.986e-06 8.659e-08)
(2.72003e-06 3.74346e-06 -4.81434e-07)
(2.65482e-06 3.65117e-06 -1.50383e-06)
(3.21379e-06 5.25565e-06 1.8439e-06)
(2.8335e-06 4.63008e-06 6.81158e-07)
(2.57457e-06 4.20396e-06 8.62313e-08)
(2.41979e-06 3.9483e-06 -4.82141e-07)
(2.36216e-06 3.85102e-06 -1.50537e-06)
(2.79375e-06 5.4944e-06 1.84466e-06)
(2.46332e-06 4.84113e-06 6.81201e-07)
(2.23844e-06 4.39603e-06 8.59221e-08)
(2.10409e-06 4.129e-06 -4.8285e-07)
(2.05415e-06 4.02753e-06 -1.50694e-06)
(2.35635e-06 5.69883e-06 1.84544e-06)
(2.07759e-06 5.02186e-06 6.81313e-07)
(1.88797e-06 4.56059e-06 8.5689e-08)
(1.77471e-06 4.28391e-06 -4.83457e-07)
(1.73259e-06 4.17894e-06 -1.5083e-06)
(1.90403e-06 5.8676e-06 1.8461e-06)
(1.67854e-06 5.17099e-06 6.81456e-07)
(1.52528e-06 4.69636e-06 8.55439e-08)
(1.43376e-06 4.41173e-06 -4.83908e-07)
(1.39966e-06 4.30392e-06 -1.50932e-06)
(1.43933e-06 5.99977e-06 1.84666e-06)
(1.26859e-06 5.28763e-06 6.81651e-07)
(1.15272e-06 4.80247e-06 8.551e-08)
(1.08354e-06 4.5116e-06 -4.84173e-07)
(1.05771e-06 4.40157e-06 -1.50996e-06)
(9.6481e-07 6.09495e-06 1.84735e-06)
(8.50235e-07 5.37138e-06 6.82035e-07)
(7.72732e-07 4.87857e-06 8.5667e-08)
(7.26461e-07 4.58314e-06 -4.84195e-07)
(7.09181e-07 4.47147e-06 -1.51024e-06)
(4.81121e-07 6.15377e-06 1.84888e-06)
(4.26064e-07 5.42297e-06 6.8288e-07)
(3.87765e-07 4.92513e-06 8.62505e-08)
(3.64761e-07 4.62655e-06 -4.83696e-07)
(3.56576e-07 4.51332e-06 -1.51014e-06)
(0 6.19762e-06 1.89454e-06)
(0 5.45833e-06 7.04133e-07)
(0 4.95322e-06 1.01177e-07)
(0 4.64803e-06 -4.62594e-07)
(0 4.52812e-06 -1.46465e-06)
(8.35557e-06 0 8.84266e-07)
(7.86845e-06 0 5.52077e-07)
(7.42885e-06 0 2.33611e-07)
(7.08608e-06 0 -9.75188e-08)
(6.79599e-06 0 -4.91173e-07)
(8.31598e-06 6.53263e-07 8.75063e-07)
(7.82898e-06 6.17515e-07 5.4212e-07)
(7.39316e-06 5.84252e-07 2.23611e-07)
(7.05418e-06 5.58754e-07 -1.09518e-07)
(6.76476e-06 5.37925e-07 -5.06118e-07)
(8.23778e-06 1.30473e-06 8.74735e-07)
(7.75486e-06 1.22865e-06 5.41337e-07)
(7.32338e-06 1.16117e-06 2.22742e-07)
(6.98786e-06 1.10893e-06 -1.10363e-07)
(6.70094e-06 1.06433e-06 -5.0663e-07)
(8.10909e-06 1.94514e-06 8.74436e-07)
(7.63376e-06 1.8318e-06 5.41091e-07)
(7.20889e-06 1.7308e-06 2.22555e-07)
(6.87849e-06 1.65252e-06 -1.10444e-07)
(6.59583e-06 1.58569e-06 -5.06529e-07)
(7.92983e-06 2.57247e-06 8.74145e-07)
(7.46475e-06 2.42299e-06 5.41004e-07)
(7.04906e-06 2.28942e-06 2.22609e-07)
(6.72574e-06 2.18584e-06 -1.10229e-07)
(6.44904e-06 2.09752e-06 -5.06072e-07)
(7.70058e-06 3.18297e-06 8.73786e-07)
(7.24846e-06 2.99838e-06 5.40979e-07)
(6.84444e-06 2.8332e-06 2.22786e-07)
(6.53016e-06 2.70507e-06 -1.09835e-07)
(6.26111e-06 2.59591e-06 -5.05323e-07)
(7.4227e-06 3.77306e-06 8.73381e-07)
(6.98624e-06 3.55438e-06 5.41004e-07)
(6.59639e-06 3.35853e-06 2.23054e-07)
(6.29313e-06 3.20656e-06 -1.09301e-07)
(6.03343e-06 3.07717e-06 -5.04331e-07)
(7.09818e-06 4.33948e-06 8.73025e-07)
(6.68014e-06 4.08771e-06 5.41106e-07)
(6.30698e-06 3.86216e-06 2.23397e-07)
(6.01673e-06 3.68709e-06 -1.08682e-07)
(5.76813e-06 3.53802e-06 -5.03198e-07)
(6.72957e-06 4.87943e-06 8.72858e-07)
(6.3328e-06 4.59562e-06 5.41308e-07)
(5.97887e-06 4.34143e-06 2.23776e-07)
(5.70367e-06 4.14402e-06 -1.08069e-07)
(5.468e-06 3.97582e-06 -5.02101e-07)
(6.31993e-06 5.39073e-06 8.72982e-07)
(5.94735e-06 5.07598e-06 5.41565e-07)
(5.61523e-06 4.79431e-06 2.24104e-07)
(5.3571e-06 4.57545e-06 -1.07599e-07)
(5.1362e-06 4.38872e-06 -5.01282e-07)
(5.87212e-06 5.87212e-06 8.73122e-07)
(5.52727e-06 5.52727e-06 5.41695e-07)
(5.21944e-06 5.21944e-06 2.2424e-07)
(4.98023e-06 4.98023e-06 -1.07419e-07)
(4.77579e-06 4.77579e-06 -5.00975e-07)
(5.39073e-06 6.31993e-06 8.72982e-07)
(5.07598e-06 5.94735e-06 5.41565e-07)
(4.79431e-06 5.61523e-06 2.24104e-07)
(4.57545e-06 5.3571e-06 -1.07599e-07)
(4.38872e-06 5.1362e-06 -5.01282e-07)
(4.87943e-06 6.72957e-06 8.72859e-07)
(4.59562e-06 6.3328e-06 5.41308e-07)
(4.34143e-06 5.97887e-06 2.23776e-07)
(4.14402e-06 5.70367e-06 -1.08069e-07)
(3.97582e-06 5.468e-06 -5.02101e-07)
(4.33948e-06 7.09818e-06 8.73025e-07)
(4.08771e-06 6.68014e-06 5.41106e-07)
(3.86216e-06 6.30698e-06 2.23397e-07)
(3.68709e-06 6.01673e-06 -1.08682e-07)
(3.53802e-06 5.76813e-06 -5.03198e-07)
(3.77306e-06 7.4227e-06 8.73381e-07)
(3.55438e-06 6.98624e-06 5.41004e-07)
(3.35853e-06 6.59639e-06 2.23054e-07)
(3.20656e-06 6.29313e-06 -1.09301e-07)
(3.07717e-06 6.03343e-06 -5.04331e-07)
(3.18297e-06 7.70058e-06 8.73786e-07)
(2.99838e-06 7.24846e-06 5.40979e-07)
(2.8332e-06 6.84444e-06 2.22786e-07)
(2.70507e-06 6.53016e-06 -1.09835e-07)
(2.59591e-06 6.26111e-06 -5.05323e-07)
(2.57247e-06 7.92983e-06 8.74145e-07)
(2.42299e-06 7.46475e-06 5.41005e-07)
(2.28942e-06 7.04906e-06 2.22609e-07)
(2.18584e-06 6.72574e-06 -1.10229e-07)
(2.09752e-06 6.44904e-06 -5.06072e-07)
(1.94515e-06 8.10909e-06 8.74436e-07)
(1.8318e-06 7.63376e-06 5.41091e-07)
(1.7308e-06 7.20889e-06 2.22555e-07)
(1.65252e-06 6.87849e-06 -1.10444e-07)
(1.58569e-06 6.59583e-06 -5.06529e-07)
(1.30473e-06 8.23778e-06 8.74735e-07)
(1.22865e-06 7.75486e-06 5.41337e-07)
(1.16117e-06 7.32338e-06 2.22742e-07)
(1.10893e-06 6.98786e-06 -1.10363e-07)
(1.06433e-06 6.70094e-06 -5.0663e-07)
(6.53263e-07 8.31598e-06 8.75063e-07)
(6.17515e-07 7.82898e-06 5.4212e-07)
(5.84252e-07 7.39316e-06 2.23611e-07)
(5.58754e-07 7.05418e-06 -1.09518e-07)
(5.37925e-07 6.76476e-06 -5.06118e-07)
(0 8.35557e-06 8.84266e-07)
(0 7.86845e-06 5.52077e-07)
(0 7.42885e-06 2.33611e-07)
(0 7.08608e-06 -9.75187e-08)
(0 6.79599e-06 -4.91173e-07)
(7.87056e-06 0 -2.11873e-07)
(7.53307e-06 0 8.64035e-08)
(7.22303e-06 0 2.28205e-07)
(6.95101e-06 0 3.40512e-07)
(6.7019e-06 0 5.37471e-07)
(7.83664e-06 6.15373e-07 -2.00232e-07)
(7.49969e-06 5.90905e-07 9.18904e-08)
(7.19118e-06 5.67748e-07 2.31313e-07)
(6.92068e-06 5.47531e-07 3.44598e-07)
(6.67227e-06 5.29971e-07 5.46459e-07)
(7.76348e-06 1.22889e-06 -1.99518e-07)
(7.42928e-06 1.17654e-06 9.22437e-08)
(7.1235e-06 1.1291e-06 2.31424e-07)
(6.85542e-06 1.08762e-06 3.44682e-07)
(6.60921e-06 1.04953e-06 5.46415e-07)
(7.64233e-06 1.83236e-06 -1.99219e-07)
(7.31331e-06 1.75439e-06 9.24058e-08)
(7.01211e-06 1.68324e-06 2.31457e-07)
(6.74802e-06 1.62101e-06 3.44654e-07)
(6.50539e-06 1.5639e-06 5.46336e-07)
(7.4731e-06 2.42328e-06 -1.98983e-07)
(7.15111e-06 2.32059e-06 9.25364e-08)
(6.85635e-06 2.22652e-06 2.31507e-07)
(6.59788e-06 2.14419e-06 3.44645e-07)
(6.3603e-06 2.06877e-06 5.46268e-07)
(7.25639e-06 2.99811e-06 -1.98697e-07)
(6.94328e-06 2.87146e-06 9.26998e-08)
(6.65677e-06 2.75519e-06 2.31586e-07)
(6.4055e-06 2.65338e-06 3.4466e-07)
(6.17444e-06 2.56024e-06 5.46217e-07)
(6.99356e-06 3.5535e-06 -1.98324e-07)
(6.69121e-06 3.40355e-06 9.29161e-08)
(6.41474e-06 3.26571e-06 2.31697e-07)
(6.17227e-06 3.14498e-06 3.44696e-07)
(5.94921e-06 3.03463e-06 5.46182e-07)
(6.68657e-06 4.08645e-06 -1.97852e-07)
(6.39697e-06 3.91375e-06 9.31893e-08)
(6.13238e-06 3.75496e-06 2.31841e-07)
(5.90036e-06 3.61584e-06 3.44752e-07)
(5.68685e-06 3.48867e-06 5.46159e-07)
(6.338e-06 4.59444e-06 -1.97293e-07)
(6.06327e-06 4.39952e-06 9.35016e-08)
(5.81248e-06 4.22041e-06 2.32002e-07)
(5.59261e-06 4.06342e-06 3.44818e-07)
(5.39029e-06 3.9198e-06 5.46144e-07)
(5.95096e-06 5.07558e-06 -1.96725e-07)
(5.69336e-06 4.85897e-06 9.37824e-08)
(5.45831e-06 4.66024e-06 2.32137e-07)
(5.25229e-06 4.486e-06 3.44872e-07)
(5.06283e-06 4.32634e-06 5.46133e-07)
(5.52874e-06 5.52874e-06 -1.96455e-07)
(5.29085e-06 5.29085e-06 9.39014e-08)
(5.07333e-06 5.07333e-06 2.32192e-07)
(4.88265e-06 4.88265e-06 3.44893e-07)
(4.70756e-06 4.70756e-06 5.46128e-07)
(5.07558e-06 5.95096e-06 -1.96725e-07)
(4.85897e-06 5.69336e-06 9.37824e-08)
(4.66024e-06 5.45831e-06 2.32137e-07)
(4.486e-06 5.25229e-06 3.44872e-07)
(4.32634e-06 5.06283e-06 5.46133e-07)
(4.59444e-06 6.338e-06 -1.97293e-07)
(4.39952e-06 6.06327e-06 9.35016e-08)
(4.22041e-06 5.81248e-06 2.32002e-07)
(4.06342e-06 5.59261e-06 3.44818e-07)
(3.9198e-06 5.39029e-06 5.46144e-07)
(4.08645e-06 6.68657e-06 -1.97852e-07)
(3.91375e-06 6.39697e-06 9.31894e-08)
(3.75496e-06 6.13238e-06 2.31841e-07)
(3.61584e-06 5.90036e-06 3.44752e-07)
(3.48867e-06 5.68685e-06 5.46159e-07)
(3.5535e-06 6.99356e-06 -1.98324e-07)
(3.40355e-06 6.69121e-06 9.29161e-08)
(3.26571e-06 6.41474e-06 2.31697e-07)
(3.14498e-06 6.17227e-06 3.44696e-07)
(3.03463e-06 5.94921e-06 5.46182e-07)
(2.99811e-06 7.25639e-06 -1.98697e-07)
(2.87146e-06 6.94328e-06 9.26998e-08)
(2.75519e-06 6.65677e-06 2.31586e-07)
(2.65338e-06 6.4055e-06 3.4466e-07)
(2.56024e-06 6.17444e-06 5.46217e-07)
(2.42328e-06 7.4731e-06 -1.98983e-07)
(2.32059e-06 7.15111e-06 9.25364e-08)
(2.22652e-06 6.85635e-06 2.31507e-07)
(2.14419e-06 6.59788e-06 3.44645e-07)
(2.06877e-06 6.3603e-06 5.46268e-07)
(1.83236e-06 7.64233e-06 -1.99219e-07)
(1.75439e-06 7.31331e-06 9.24058e-08)
(1.68324e-06 7.01211e-06 2.31457e-07)
(1.62101e-06 6.74802e-06 3.44654e-07)
(1.5639e-06 6.50539e-06 5.46336e-07)
(1.22889e-06 7.76348e-06 -1.99518e-07)
(1.17654e-06 7.42928e-06 9.22438e-08)
(1.1291e-06 7.1235e-06 2.31424e-07)
(1.08762e-06 6.85542e-06 3.44682e-07)
(1.04953e-06 6.60921e-06 5.46415e-07)
(6.15373e-07 7.83664e-06 -2.00232e-07)
(5.90905e-07 7.49969e-06 9.18904e-08)
(5.67748e-07 7.19118e-06 2.31313e-07)
(5.47531e-07 6.92068e-06 3.44598e-07)
(5.29971e-07 6.67227e-06 5.46459e-07)
(0 7.87056e-06 -2.11873e-07)
(0 7.53307e-06 8.64036e-08)
(0 7.22303e-06 2.28205e-07)
(0 6.95101e-06 3.40512e-07)
(0 6.7019e-06 5.37471e-07)
(6.26618e-06 0 -7.75554e-07)
(6.00636e-06 0 -2.30649e-07)
(5.78685e-06 0 1.67792e-07)
(5.6005e-06 0 5.40701e-07)
(5.44643e-06 0 1.00254e-06)
(6.2389e-06 4.88918e-07 -7.57343e-07)
(5.98053e-06 4.70291e-07 -2.1754e-07)
(5.76228e-06 4.54006e-07 1.79078e-07)
(5.57711e-06 4.4024e-07 5.53584e-07)
(5.42451e-06 4.29586e-07 1.02069e-06)
(6.18063e-06 9.77537e-07 -7.56264e-07)
(5.92448e-06 9.37485e-07 -2.16659e-07)
(5.70811e-06 9.04045e-07 1.79784e-07)
(5.52456e-06 8.75803e-07 5.54178e-07)
(5.37344e-06 8.52585e-07 1.02099e-06)
(6.08428e-06 1.45814e-06 -7.55598e-07)
(5.83211e-06 1.39848e-06 -2.16187e-07)
(5.61895e-06 1.34833e-06 1.80055e-07)
(5.43811e-06 1.30594e-06 5.54266e-07)
(5.28914e-06 1.27111e-06 1.02089e-06)
(5.94965e-06 1.92866e-06 -7.54966e-07)
(5.70285e-06 1.85013e-06 -2.15859e-07)
(5.49422e-06 1.78385e-06 1.80142e-07)
(5.31717e-06 1.72778e-06 5.54127e-07)
(5.17123e-06 1.68186e-06 1.02049e-06)
(5.77716e-06 2.38629e-06 -7.54207e-07)
(5.53712e-06 2.28948e-06 -2.15546e-07)
(5.33427e-06 2.20758e-06 1.80142e-07)
(5.1621e-06 2.13827e-06 5.53841e-07)
(5.02006e-06 2.08165e-06 1.01984e-06)
(5.56785e-06 2.82839e-06 -7.53288e-07)
(5.33601e-06 2.71377e-06 -2.15205e-07)
(5.14021e-06 2.61668e-06 1.801e-07)
(4.97401e-06 2.5345e-06 5.53454e-07)
(4.83679e-06 2.46746e-06 1.01901e-06)
(5.32329e-06 3.25262e-06 -7.52255e-07)
(5.10118e-06 3.12057e-06 -2.1484e-07)
(4.91377e-06 3.00866e-06 1.80041e-07)
(4.75471e-06 2.9139e-06 5.53021e-07)
(4.62331e-06 2.8366e-06 1.01808e-06)
(5.04557e-06 3.65703e-06 -7.51221e-07)
(4.83486e-06 3.50788e-06 -2.14488e-07)
(4.65723e-06 3.38152e-06 1.79983e-07)
(4.50654e-06 3.27447e-06 5.52613e-07)
(4.38207e-06 3.187e-06 1.0172e-06)
(4.73719e-06 4.04013e-06 -7.50369e-07)
(4.53969e-06 3.87423e-06 -2.14216e-07)
(4.37331e-06 3.73385e-06 1.7994e-07)
(4.23221e-06 3.61486e-06 5.52314e-07)
(4.11583e-06 3.51734e-06 1.01656e-06)
(4.40094e-06 4.40094e-06 -7.50016e-07)
(4.21863e-06 4.21864e-06 -2.14111e-07)
(4.06481e-06 4.06481e-06 1.79924e-07)
(3.93437e-06 3.93437e-06 5.52203e-07)
(3.82709e-06 3.82709e-06 1.01632e-06)
(4.04013e-06 4.73719e-06 -7.50369e-07)
(3.87423e-06 4.53969e-06 -2.14216e-07)
(3.73385e-06 4.37331e-06 1.7994e-07)
(3.61486e-06 4.23221e-06 5.52314e-07)
(3.51734e-06 4.11583e-06 1.01656e-06)
(3.65703e-06 5.04557e-06 -7.51221e-07)
(3.50788e-06 4.83486e-06 -2.14488e-07)
(3.38152e-06 4.65723e-06 1.79983e-07)
(3.27447e-06 4.50654e-06 5.52613e-07)
(3.187e-06 4.38207e-06 1.0172e-06)
(3.25262e-06 5.32329e-06 -7.52255e-07)
(3.12057e-06 5.10118e-06 -2.1484e-07)
(3.00866e-06 4.91377e-06 1.80041e-07)
(2.9139e-06 4.75471e-06 5.53021e-07)
(2.8366e-06 4.62331e-06 1.01808e-06)
(2.82839e-06 5.56785e-06 -7.53288e-07)
(2.71377e-06 5.33601e-06 -2.15205e-07)
(2.61668e-06 5.14021e-06 1.801e-07)
(2.5345e-06 4.97401e-06 5.53454e-07)
(2.46746e-06 4.83679e-06 1.01901e-06)
(2.38629e-06 5.77716e-06 -7.54207e-07)
(2.28948e-06 5.53713e-06 -2.15546e-07)
(2.20758e-06 5.33427e-06 1.80142e-07)
(2.13827e-06 5.1621e-06 5.53841e-07)
(2.08165e-06 5.02006e-06 1.01984e-06)
(1.92866e-06 5.94965e-06 -7.54966e-07)
(1.85013e-06 5.70285e-06 -2.15859e-07)
(1.78385e-06 5.49422e-06 1.80142e-07)
(1.72778e-06 5.31717e-06 5.54127e-07)
(1.68186e-06 5.17123e-06 1.02049e-06)
(1.45814e-06 6.08428e-06 -7.55598e-07)
(1.39848e-06 5.83211e-06 -2.16187e-07)
(1.34833e-06 5.61895e-06 1.80055e-07)
(1.30594e-06 5.43811e-06 5.54266e-07)
(1.27111e-06 5.28914e-06 1.02089e-06)
(9.77537e-07 6.18063e-06 -7.56264e-07)
(9.37485e-07 5.92448e-06 -2.16659e-07)
(9.04045e-07 5.70811e-06 1.79784e-07)
(8.75803e-07 5.52456e-06 5.54178e-07)
(8.52585e-07 5.37344e-06 1.02099e-06)
(4.88918e-07 6.2389e-06 -7.57343e-07)
(4.70291e-07 5.98053e-06 -2.1754e-07)
(4.54006e-07 5.76228e-06 1.79078e-07)
(4.4024e-07 5.57711e-06 5.53584e-07)
(4.29586e-07 5.42451e-06 1.02069e-06)
(0 6.26618e-06 -7.75554e-07)
(0 6.00636e-06 -2.30649e-07)
(0 5.78685e-06 1.67792e-07)
(0 5.6005e-06 5.40701e-07)
(0 5.44643e-06 1.00254e-06)
(4.59751e-06 0 -8.59148e-07)
(4.38449e-06 0 -3.30075e-07)
(4.2222e-06 0 1.10671e-07)
(4.1001e-06 0 5.33315e-07)
(4.02058e-06 0 1.00559e-06)
(4.57638e-06 3.5776e-07 -8.42676e-07)
(4.36525e-06 3.42612e-07 -3.16291e-07)
(4.20443e-06 3.30619e-07 1.23627e-07)
(4.08372e-06 3.21644e-07 5.47465e-07)
(4.00605e-06 3.1625e-07 1.023e-06)
(4.5335e-06 7.1651e-07 -8.41743e-07)
(4.32431e-06 6.83763e-07 -3.15497e-07)
(4.16494e-06 6.59125e-07 1.24297e-07)
(4.04535e-06 6.40764e-07 5.47999e-07)
(3.96856e-06 6.29043e-07 1.02328e-06)
(4.46297e-06 1.06933e-06 -8.4103e-07)
(4.25706e-06 1.02047e-06 -3.14975e-07)
(4.10008e-06 9.83518e-07 1.24614e-07)
(3.98225e-06 9.55956e-07 5.4811e-07)
(3.90653e-06 9.38375e-07 1.02319e-06)
(4.36452e-06 1.41475e-06 -8.40309e-07)
(4.16303e-06 1.3504e-06 -3.14586e-07)
(4.00937e-06 1.30156e-06 1.24724e-07)
(3.89399e-06 1.26512e-06 5.47952e-07)
(3.81974e-06 1.242e-06 1.02273e-06)
(4.2384e-06 1.75074e-06 -8.39457e-07)
(4.04245e-06 1.67138e-06 -3.14229e-07)
(3.89302e-06 1.61103e-06 1.24706e-07)
(3.78076e-06 1.56601e-06 5.47581e-07)
(3.7084e-06 1.53758e-06 1.02194e-06)
(4.08531e-06 2.07539e-06 -8.38451e-07)
(3.89605e-06 1.98141e-06 -3.1387e-07)
(3.75176e-06 1.90986e-06 1.24605e-07)
(3.64334e-06 1.85648e-06 5.47053e-07)
(3.57334e-06 1.82287e-06 1.02089e-06)
(3.90636e-06 2.38699e-06 -8.37354e-07)
(3.72501e-06 2.27871e-06 -3.13513e-07)
(3.58684e-06 2.19622e-06 1.24459e-07)
(3.48302e-06 2.13464e-06 5.46446e-07)
(3.41592e-06 2.09584e-06 1.01969e-06)
(3.70299e-06 2.68408e-06 -8.36297e-07)
(3.53089e-06 2.56182e-06 -3.13192e-07)
(3.39988e-06 2.46863e-06 1.24305e-07)
(3.3015e-06 2.39898e-06 5.45867e-07)
(3.23794e-06 2.35495e-06 1.01856e-06)
(3.47702e-06 2.96551e-06 -8.35469e-07)
(3.3156e-06 2.82959e-06 -3.12959e-07)
(3.19284e-06 2.72602e-06 1.24186e-07)
(3.10074e-06 2.6485e-06 5.45442e-07)
(3.04141e-06 2.5992e-06 1.01772e-06)
(3.2304e-06 3.2304e-06 -8.35139e-07)
(3.08122e-06 3.08122e-06 -3.12872e-07)
(2.9677e-06 2.9677e-06 1.2414e-07)
(2.88263e-06 2.88263e-06 5.45284e-07)
(2.82814e-06 2.82814e-06 1.01741e-06)
(2.96551e-06 3.47702e-06 -8.35469e-07)
(2.82959e-06 3.3156e-06 -3.12959e-07)
(2.72602e-06 3.19284e-06 1.24186e-07)
(2.6485e-06 3.10074e-06 5.45442e-07)
(2.5992e-06 3.04141e-06 1.01772e-06)
(2.68408e-06 3.70299e-06 -8.36297e-07)
(2.56182e-06 3.53089e-06 -3.13192e-07)
(2.46863e-06 3.39988e-06 1.24305e-07)
(2.39898e-06 3.3015e-06 5.45867e-07)
(2.35495e-06 3.23794e-06 1.01856e-06)
(2.38699e-06 3.90636e-06 -8.37354e-07)
(2.27871e-06 3.72501e-06 -3.13513e-07)
(2.19622e-06 3.58684e-06 1.24459e-07)
(2.13464e-06 3.48302e-06 5.46446e-07)
(2.09584e-06 3.41592e-06 1.01969e-06)
(2.07539e-06 4.08531e-06 -8.38451e-07)
(1.98141e-06 3.89605e-06 -3.1387e-07)
(1.90986e-06 3.75176e-06 1.24605e-07)
(1.85648e-06 3.64334e-06 5.47053e-07)
(1.82287e-06 3.57334e-06 1.02089e-06)
(1.75074e-06 4.2384e-06 -8.39457e-07)
(1.67138e-06 4.04245e-06 -3.14229e-07)
(1.61103e-06 3.89302e-06 1.24706e-07)
(1.56601e-06 3.78076e-06 5.47581e-07)
(1.53759e-06 3.7084e-06 1.02194e-06)
(1.41475e-06 4.36452e-06 -8.40309e-07)
(1.3504e-06 4.16303e-06 -3.14586e-07)
(1.30156e-06 4.00937e-06 1.24724e-07)
(1.26512e-06 3.89399e-06 5.47952e-07)
(1.242e-06 3.81974e-06 1.02273e-06)
(1.06933e-06 4.46297e-06 -8.4103e-07)
(1.02047e-06 4.25706e-06 -3.14975e-07)
(9.83519e-07 4.10008e-06 1.24615e-07)
(9.55956e-07 3.98226e-06 5.4811e-07)
(9.38375e-07 3.90653e-06 1.02319e-06)
(7.1651e-07 4.5335e-06 -8.41742e-07)
(6.83763e-07 4.32431e-06 -3.15497e-07)
(6.59125e-07 4.16494e-06 1.24297e-07)
(6.40764e-07 4.04535e-06 5.47999e-07)
(6.29043e-07 3.96856e-06 1.02328e-06)
(3.5776e-07 4.57638e-06 -8.42675e-07)
(3.42612e-07 4.36525e-06 -3.16291e-07)
(3.30619e-07 4.20443e-06 1.23627e-07)
(3.21644e-07 4.08372e-06 5.47465e-07)
(3.1625e-07 4.00605e-06 1.023e-06)
(0 4.59751e-06 -8.59148e-07)
(0 4.38448e-06 -3.30075e-07)
(0 4.2222e-06 1.10671e-07)
(0 4.1001e-06 5.33315e-07)
(0 4.02058e-06 1.00559e-06)
(3.29483e-06 0 -7.07612e-07)
(3.11951e-06 0 -2.96891e-07)
(2.99464e-06 0 7.33005e-08)
(2.91202e-06 0 4.31311e-07)
(2.87277e-06 0 8.05112e-07)
(3.27877e-06 2.55847e-07 -6.95503e-07)
(3.10527e-06 2.43419e-07 -2.85721e-07)
(2.98193e-06 2.34196e-07 8.42939e-08)
(2.90077e-06 2.28127e-07 4.42952e-07)
(2.86327e-06 2.25496e-07 8.18181e-07)
(3.24795e-06 5.13178e-07 -6.94912e-07)
(3.07611e-06 4.86207e-07 -2.85254e-07)
(2.95397e-06 4.67256e-07 8.4666e-08)
(2.87363e-06 4.54884e-07 4.4321e-07)
(2.83665e-06 4.49246e-07 8.18286e-07)
(3.19756e-06 7.6622e-07 -6.94371e-07)
(3.02846e-06 7.25909e-07 -2.8486e-07)
(2.90816e-06 6.97469e-07 8.48948e-08)
(2.82902e-06 6.78897e-07 4.43274e-07)
(2.79255e-06 6.70439e-07 8.18202e-07)
(3.12735e-06 1.01402e-06 -6.93793e-07)
(2.96191e-06 9.60862e-07 -2.84532e-07)
(2.84417e-06 9.23265e-07 8.49931e-08)
(2.76667e-06 8.98715e-07 4.43151e-07)
(2.73086e-06 8.87626e-07 8.17857e-07)
(3.03745e-06 1.25514e-06 -6.93116e-07)
(2.8766e-06 1.18954e-06 -2.8423e-07)
(2.7621e-06 1.14307e-06 8.49844e-08)
(2.68667e-06 1.11275e-06 4.42847e-07)
(2.65171e-06 1.09917e-06 8.17229e-07)
(2.92831e-06 1.48819e-06 -6.92329e-07)
(2.77298e-06 1.4105e-06 -2.83936e-07)
(2.66241e-06 1.35542e-06 8.48952e-08)
(2.58952e-06 1.31948e-06 4.42397e-07)
(2.55563e-06 1.30345e-06 8.16361e-07)
(2.80066e-06 1.71194e-06 -6.91482e-07)
(2.65183e-06 1.62248e-06 -2.83655e-07)
(2.54591e-06 1.55898e-06 8.47575e-08)
(2.47608e-06 1.51752e-06 4.41868e-07)
(2.44353e-06 1.49902e-06 8.15363e-07)
(2.65546e-06 1.9253e-06 -6.90677e-07)
(2.51417e-06 1.82437e-06 -2.8341e-07)
(2.41369e-06 1.75267e-06 8.46098e-08)
(2.34747e-06 1.70577e-06 4.4136e-07)
(2.31662e-06 1.68471e-06 8.14409e-07)
(2.49393e-06 2.12736e-06 -6.90054e-07)
(2.36129e-06 2.0153e-06 -2.83235e-07)
(2.26705e-06 1.93566e-06 8.44954e-08)
(2.20503e-06 1.88344e-06 4.40987e-07)
(2.17627e-06 1.85975e-06 8.13709e-07)
(2.31734e-06 2.31734e-06 -6.89808e-07)
(2.19457e-06 2.19457e-06 -2.8317e-07)
(2.10734e-06 2.10734e-06 8.4452e-08)
(2.05004e-06 2.05004e-06 4.40849e-07)
(2.02372e-06 2.02372e-06 8.1345e-07)
(2.12736e-06 2.49393e-06 -6.90054e-07)
(2.0153e-06 2.36129e-06 -2.83235e-07)
(1.93566e-06 2.26705e-06 8.44954e-08)
(1.88344e-06 2.20503e-06 4.40987e-07)
(1.85975e-06 2.17627e-06 8.13709e-07)
(1.9253e-06 2.65546e-06 -6.90677e-07)
(1.82437e-06 2.51417e-06 -2.8341e-07)
(1.75267e-06 2.41369e-06 8.46098e-08)
(1.70577e-06 2.34747e-06 4.4136e-07)
(1.68471e-06 2.31662e-06 8.14409e-07)
(1.71194e-06 2.80066e-06 -6.91482e-07)
(1.62248e-06 2.65183e-06 -2.83655e-07)
(1.55898e-06 2.54591e-06 8.47575e-08)
(1.51752e-06 2.47608e-06 4.41869e-07)
(1.49902e-06 2.44353e-06 8.15363e-07)
(1.48819e-06 2.92831e-06 -6.92329e-07)
(1.4105e-06 2.77298e-06 -2.83936e-07)
(1.35542e-06 2.66241e-06 8.48952e-08)
(1.31948e-06 2.58952e-06 4.42397e-07)
(1.30345e-06 2.55563e-06 8.16361e-07)
(1.25514e-06 3.03745e-06 -6.93116e-07)
(1.18954e-06 2.8766e-06 -2.8423e-07)
(1.14307e-06 2.7621e-06 8.49844e-08)
(1.11275e-06 2.68667e-06 4.42847e-07)
(1.09917e-06 2.65171e-06 8.17229e-07)
(1.01402e-06 3.12735e-06 -6.93793e-07)
(9.60862e-07 2.96191e-06 -2.84532e-07)
(9.23265e-07 2.84418e-06 8.49931e-08)
(8.98715e-07 2.76667e-06 4.43151e-07)
(8.87626e-07 2.73086e-06 8.17857e-07)
(7.66221e-07 3.19756e-06 -6.94371e-07)
(7.25909e-07 3.02846e-06 -2.8486e-07)
(6.97469e-07 2.90816e-06 8.48948e-08)
(6.78897e-07 2.82902e-06 4.43274e-07)
(6.70439e-07 2.79255e-06 8.18202e-07)
(5.13178e-07 3.24795e-06 -6.94912e-07)
(4.86208e-07 3.07611e-06 -2.85254e-07)
(4.67256e-07 2.95397e-06 8.46661e-08)
(4.54884e-07 2.87363e-06 4.4321e-07)
(4.49246e-07 2.83665e-06 8.18287e-07)
(2.55847e-07 3.27877e-06 -6.95503e-07)
(2.43419e-07 3.10527e-06 -2.8572e-07)
(2.34196e-07 2.98193e-06 8.42939e-08)
(2.28127e-07 2.90077e-06 4.42953e-07)
(2.25496e-07 2.86327e-06 8.18181e-07)
(0 3.29483e-06 -7.07612e-07)
(0 3.11951e-06 -2.96891e-07)
(0 2.99464e-06 7.33005e-08)
(0 2.91202e-06 4.31311e-07)
(0 2.87277e-06 8.05112e-07)
(2.39747e-06 0 -5.08987e-07)
(2.25643e-06 0 -2.20606e-07)
(2.15835e-06 0 5.25985e-08)
(2.0982e-06 0 3.17428e-07)
(2.07538e-06 0 5.81014e-07)
(2.38529e-06 1.86002e-07 -5.00846e-07)
(2.24575e-06 1.75997e-07 -2.12591e-07)
(2.14905e-06 1.68739e-07 6.06987e-08)
(2.09022e-06 1.64303e-07 3.25813e-07)
(2.06883e-06 1.62758e-07 5.89825e-07)
(2.36284e-06 3.73409e-07 -5.00564e-07)
(2.22464e-06 3.51656e-07 -2.12418e-07)
(2.12892e-06 3.36737e-07 6.07999e-08)
(2.07074e-06 3.27716e-07 3.25836e-07)
(2.04968e-06 3.24467e-07 5.89778e-07)
(2.32628e-06 5.57679e-07 -5.00248e-07)
(2.19031e-06 5.25123e-07 -2.12195e-07)
(2.09605e-06 5.02718e-07 6.09114e-08)
(2.03875e-06 4.89175e-07 3.25841e-07)
(2.01798e-06 4.84294e-07 5.89702e-07)
(2.27543e-06 7.38195e-07 -4.9989e-07)
(2.14242e-06 6.95221e-07 -2.11981e-07)
(2.0502e-06 6.6559e-07 6.09767e-08)
(1.99408e-06 6.47683e-07 3.25764e-07)
(1.97369e-06 6.41286e-07 5.89498e-07)
(2.21035e-06 9.13902e-07 -4.99465e-07)
(2.08107e-06 8.60851e-07 -2.11776e-07)
(1.99139e-06 8.24229e-07 6.09794e-08)
(1.93679e-06 8.02113e-07 3.25574e-07)
(1.91686e-06 7.94299e-07 5.89116e-07)
(2.13134e-06 1.0838e-06 -4.98974e-07)
(2.00654e-06 1.02098e-06 -2.11578e-07)
(1.91995e-06 9.7757e-07 6.09249e-08)
(1.86718e-06 9.51365e-07 3.2528e-07)
(1.84783e-06 9.42169e-07 5.88566e-07)
(2.0389e-06 1.24695e-06 -4.98446e-07)
(1.91933e-06 1.17465e-06 -2.11393e-07)
(1.83638e-06 1.12464e-06 6.08328e-08)
(1.78581e-06 1.09444e-06 3.24925e-07)
(1.7672e-06 1.08384e-06 5.87919e-07)
(1.93367e-06 1.40253e-06 -4.97942e-07)
(1.82015e-06 1.32104e-06 -2.11232e-07)
(1.74142e-06 1.26462e-06 6.07317e-08)
(1.69344e-06 1.23049e-06 3.2458e-07)
(1.67577e-06 1.21843e-06 5.87294e-07)
(1.81646e-06 1.5498e-06 -4.97549e-07)
(1.70981e-06 1.45944e-06 -2.11115e-07)
(1.63592e-06 1.39685e-06 6.0654e-08)
(1.59094e-06 1.35889e-06 3.24326e-07)
(1.57446e-06 1.34532e-06 5.86833e-07)
(1.68812e-06 1.68812e-06 -4.97392e-07)
(1.58927e-06 1.58927e-06 -2.1107e-07)
(1.5208e-06 1.5208e-06 6.06249e-08)
(1.47919e-06 1.47919e-06 3.24232e-07)
(1.46411e-06 1.46411e-06 5.86663e-07)
(1.5498e-06 1.81646e-06 -4.97549e-07)
(1.45944e-06 1.70981e-06 -2.11115e-07)
(1.39685e-06 1.63592e-06 6.0654e-08)
(1.35889e-06 1.59094e-06 3.24326e-07)
(1.34532e-06 1.57446e-06 5.86833e-07)
(1.40253e-06 1.93367e-06 -4.97942e-07)
(1.32104e-06 1.82015e-06 -2.11232e-07)
(1.26462e-06 1.74142e-06 6.07317e-08)
(1.23049e-06 1.69344e-06 3.2458e-07)
(1.21843e-06 1.67577e-06 5.87294e-07)
(1.24695e-06 2.0389e-06 -4.98446e-07)
(1.17465e-06 1.91933e-06 -2.11393e-07)
(1.12464e-06 1.83638e-06 6.08328e-08)
(1.09444e-06 1.78581e-06 3.24925e-07)
(1.08384e-06 1.7672e-06 5.87919e-07)
(1.0838e-06 2.13134e-06 -4.98974e-07)
(1.02098e-06 2.00654e-06 -2.11578e-07)
(9.77569e-07 1.91995e-06 6.09249e-08)
(9.51365e-07 1.86718e-06 3.2528e-07)
(9.42169e-07 1.84783e-06 5.88566e-07)
(9.13902e-07 2.21035e-06 -4.99465e-07)
(8.60851e-07 2.08107e-06 -2.11776e-07)
(8.24229e-07 1.99139e-06 6.09794e-08)
(8.02113e-07 1.93679e-06 3.25574e-07)
(7.94299e-07 1.91686e-06 5.89116e-07)
(7.38195e-07 2.27543e-06 -4.9989e-07)
(6.95221e-07 2.14242e-06 -2.11981e-07)
(6.6559e-07 2.0502e-06 6.09767e-08)
(6.47683e-07 1.99408e-06 3.25764e-07)
(6.41286e-07 1.97369e-06 5.89498e-07)
(5.5768e-07 2.32628e-06 -5.00248e-07)
(5.25123e-07 2.19031e-06 -2.12195e-07)
(5.02718e-07 2.09605e-06 6.09114e-08)
(4.89175e-07 2.03875e-06 3.25841e-07)
(4.84294e-07 2.01798e-06 5.89702e-07)
(3.73409e-07 2.36284e-06 -5.00564e-07)
(3.51656e-07 2.22464e-06 -2.12418e-07)
(3.36737e-07 2.12892e-06 6.08e-08)
(3.27716e-07 2.07074e-06 3.25836e-07)
(3.24467e-07 2.04968e-06 5.89778e-07)
(1.86002e-07 2.38529e-06 -5.00846e-07)
(1.75997e-07 2.24575e-06 -2.12591e-07)
(1.68738e-07 2.14905e-06 6.06987e-08)
(1.64303e-07 2.09022e-06 3.25813e-07)
(1.62758e-07 2.06883e-06 5.89825e-07)
(0 2.39747e-06 -5.08987e-07)
(0 2.25642e-06 -2.20606e-07)
(0 2.15835e-06 5.25985e-08)
(0 2.0982e-06 3.17428e-07)
(0 2.07538e-06 5.81014e-07)
(1.80039e-06 0 -3.47786e-07)
(1.68958e-06 0 -1.50282e-07)
(1.61224e-06 0 4.13094e-08)
(1.56556e-06 0 2.26813e-07)
(1.54801e-06 0 4.06391e-07)
(1.7911e-06 1.39717e-07 -3.42364e-07)
(1.68143e-06 1.3184e-07 -1.44771e-07)
(1.60521e-06 1.26099e-07 4.69439e-08)
(1.55959e-06 1.22637e-07 2.32563e-07)
(1.54312e-06 1.21421e-07 4.12207e-07)
(1.77423e-06 2.80535e-07 -3.42275e-07)
(1.66562e-06 2.63401e-07 -1.44769e-07)
(1.59019e-06 2.51599e-07 4.68946e-08)
(1.54509e-06 2.4456e-07 2.32469e-07)
(1.52887e-06 2.42019e-07 4.12087e-07)
(1.74683e-06 4.18994e-07 -3.42136e-07)
(1.63997e-06 3.93331e-07 -1.44679e-07)
(1.5657e-06 3.75598e-07 4.69195e-08)
(1.52129e-06 3.65028e-07 2.32437e-07)
(1.5053e-06 3.61201e-07 4.12023e-07)
(1.70874e-06 5.54666e-07 -3.41962e-07)
(1.60424e-06 5.20773e-07 -1.44568e-07)
(1.53158e-06 4.97312e-07 4.69508e-08)
(1.4881e-06 4.83328e-07 2.32393e-07)
(1.47241e-06 4.78299e-07 4.11926e-07)
(1.66003e-06 6.86762e-07 -3.41746e-07)
(1.55847e-06 6.44912e-07 -1.44454e-07)
(1.48784e-06 6.15913e-07 4.69572e-08)