/*--------------------------------*- C++ -*----------------------------------*\
| =========                 |                                                 |
| \\      /  F ield         | foam-extend: Open Source CFD                    |
|  \\    /   O peration     | Version:     3.1                                |
|   \\  /    A nd           | Web:         http://www.extend-project.de       |
|    \\/     M anipulation  |                                                 |
\*---------------------------------------------------------------------------*/
FoamFile
{
    version     2.0;
    format      ascii;
    class       volVectorField;
    location    "0.0002";
    object      U;
}
// * * * * * * * * * * * * * * * * * * * * * * * * * * * * * * * * * * * * * //

dimensions      [0 1 -1 0 0 0 0];

internalField   nonuniform List<vector> 
6400
(
(0.0118217 0.000424762 0.0075313)
(0.0118266 0.000437275 0.00243682)
(0.0119099 0.000441459 -0.000942688)
(0.0122812 0.000447384 -0.00577783)
(0.0117308 0.00136323 0.00752925)
(0.0117422 0.00137234 0.00243691)
(0.0118252 0.0013853 -0.000941773)
(0.0121991 0.00142991 -0.00577567)
(0.0115783 0.00228641 0.00752598)
(0.0115916 0.00229459 0.00243561)
(0.0116748 0.00231498 -0.000942196)
(0.012045 0.00239111 -0.00577494)
(0.0113613 0.0031916 0.00752335)
(0.0113744 0.00319971 0.00243452)
(0.0114556 0.00322695 -0.000942166)
(0.0118183 0.00333276 -0.00577357)
(0.0110785 0.00407566 0.00752111)
(0.0110895 0.00408375 0.00243357)
(0.0111671 0.00411738 -0.000941755)
(0.0115194 0.00425182 -0.00577142)
(0.0107296 0.00493508 0.00751901)
(0.0107373 0.00494248 0.00243268)
(0.0108101 0.00498169 -0.000941039)
(0.0111492 0.00514346 -0.00576853)
(0.0103155 0.00576606 0.0075171)
(0.0103191 0.00577148 0.00243188)
(0.0103863 0.005815 -0.000940106)
(0.0107101 0.00600232 -0.00576512)
(0.00983797 0.00656454 0.0075157)
(0.00983749 0.00656637 0.00243121)
(0.00989872 0.00661268 -0.000939122)
(0.0102056 0.00682336 -0.00576167)
(0.00929978 0.00732601 0.00751505)
(0.0092954 0.00732289 0.00243069)
(0.00935092 0.0073705 -0.000938323)
(0.0096397 0.00760232 -0.00575887)
(0.008703 0.00804398 0.00751514)
(0.00869513 0.00803582 0.00243044)
(0.00874567 0.00808392 -0.000937878)
(0.00901562 0.00833504 -0.00575731)
(0.00804398 0.008703 0.00751514)
(0.00803582 0.00869514 0.00243044)
(0.00808392 0.00874567 -0.000937878)
(0.00833504 0.00901562 -0.00575731)
(0.00732601 0.00929978 0.00751505)
(0.00732289 0.0092954 0.00243069)
(0.0073705 0.00935092 -0.000938323)
(0.00760232 0.0096397 -0.00575887)
(0.00656454 0.00983797 0.0075157)
(0.00656637 0.00983749 0.00243121)
(0.00661268 0.00989872 -0.000939122)
(0.00682336 0.0102056 -0.00576167)
(0.00576606 0.0103155 0.0075171)
(0.00577148 0.0103191 0.00243188)
(0.005815 0.0103863 -0.000940106)
(0.00600232 0.0107101 -0.00576511)
(0.00493508 0.0107296 0.00751901)
(0.00494248 0.0107373 0.00243268)
(0.00498169 0.0108101 -0.000941039)
(0.00514346 0.0111492 -0.00576853)
(0.00407566 0.0110785 0.00752111)
(0.00408375 0.0110895 0.00243357)
(0.00411738 0.0111671 -0.000941755)
(0.00425182 0.0115194 -0.00577142)
(0.0031916 0.0113613 0.00752335)
(0.00319971 0.0113744 0.00243452)
(0.00322695 0.0114556 -0.000942166)
(0.00333276 0.0118183 -0.00577357)
(0.00228641 0.0115783 0.00752598)
(0.00229459 0.0115916 0.00243561)
(0.00231498 0.0116748 -0.000942195)
(0.00239111 0.012045 -0.00577494)
(0.00136323 0.0117308 0.00752925)
(0.00137234 0.0117422 0.00243691)
(0.0013853 0.0118252 -0.000941772)
(0.00142991 0.0121991 -0.00577567)
(0.000424762 0.0118217 0.0075313)
(0.000437275 0.0118266 0.00243682)
(0.000441459 0.0119099 -0.000942687)
(0.000447383 0.0122812 -0.00577783)
(0.0481279 0.00189324 0.00941914)
(0.0467864 0.00184303 0.00359422)
(0.0455017 0.00179786 -0.000969013)
(0.0443543 0.00176552 -0.00647048)
(0.0478033 0.00565203 0.00939968)
(0.0464757 0.00550168 0.00357817)
(0.045206 0.00535779 -0.000984958)
(0.0440694 0.00523076 -0.00648743)
(0.0471958 0.00937635 0.00939336)
(0.0458872 0.00912315 0.00357376)
(0.0446355 0.00888116 -0.000987998)
(0.0435143 0.00866495 -0.00648882)
(0.0463066 0.0130414 0.00939012)
(0.0450218 0.0126869 0.00357284)
(0.0437928 0.0123487 -0.000987023)
(0.0426918 0.0120463 -0.00648549)
(0.045136 0.0166252 0.00938726)
(0.0438803 0.0161715 0.00357314)
(0.0426795 0.0157391 -0.000984296)
(0.0416043 0.0153528 -0.00647967)
(0.0436876 0.0201067 0.00938428)
(0.0424666 0.0195553 0.00357414)
(0.0413004 0.0190305 -0.000980349)
(0.0402569 0.0185623 -0.00647181)
(0.0419689 0.023466 0.00938149)
(0.0407893 0.022818 0.00357583)
(0.0396644 0.0222022 -0.000975453)
(0.0386591 0.0216537 -0.00646246)
(0.0399913 0.026685 0.00937964)
(0.0388605 0.0259413 0.00357824)
(0.0377843 0.0252359 -0.000970079)
(0.0368243 0.0246084 -0.00645269)
(0.037769 0.0297471 0.00937948)
(0.0366951 0.0289091 0.00358113)
(0.0356757 0.0281159 -0.00096509)
(0.0347682 0.0274112 -0.0064442)
(0.0353154 0.0326341 0.00938106)
(0.0343071 0.0317055 0.00358361)
(0.033353 0.0308277 -0.000961832)
(0.0325059 0.0300488 -0.00643908)
(0.0326341 0.0353154 0.00938106)
(0.0317055 0.0343071 0.00358361)
(0.0308277 0.033353 -0.000961832)
(0.0300488 0.0325059 -0.00643908)
(0.0297471 0.037769 0.00937948)
(0.0289091 0.0366951 0.00358113)
(0.0281159 0.0356757 -0.00096509)
(0.0274112 0.0347682 -0.0064442)
(0.026685 0.0399913 0.00937964)
(0.0259413 0.0388605 0.00357824)
(0.0252359 0.0377843 -0.000970079)
(0.0246084 0.0368243 -0.00645269)
(0.023466 0.0419689 0.00938149)
(0.022818 0.0407893 0.00357583)
(0.0222022 0.0396644 -0.000975453)
(0.0216537 0.0386591 -0.00646246)
(0.0201067 0.0436876 0.00938428)
(0.0195553 0.0424666 0.00357414)
(0.0190305 0.0413004 -0.000980349)
(0.0185623 0.0402569 -0.00647181)
(0.0166252 0.045136 0.00938726)
(0.0161715 0.0438803 0.00357314)
(0.0157391 0.0426795 -0.000984296)
(0.0153528 0.0416043 -0.00647967)
(0.0130414 0.0463066 0.00939012)
(0.0126869 0.0450218 0.00357284)
(0.0123487 0.0437928 -0.000987022)
(0.0120463 0.0426918 -0.00648549)
(0.00937635 0.0471958 0.00939336)
(0.00912315 0.0458872 0.00357376)
(0.00888116 0.0446355 -0.000987997)
(0.00866495 0.0435143 -0.00648882)
(0.00565203 0.0478033 0.00939968)
(0.00550168 0.0464757 0.00357817)
(0.00535779 0.045206 -0.000984957)
(0.00523076 0.0440694 -0.00648743)
(0.00189324 0.0481279 0.00941914)
(0.00184303 0.0467864 0.00359423)
(0.00179786 0.0455017 -0.000969012)
(0.00176552 0.0443542 -0.00647048)
(0.0608442 0.00239972 0.00352819)
(0.0596106 0.0023562 0.00211866)
(0.0580865 0.00230238 0.000709727)
(0.056345 0.00224706 -0.000738447)
(0.0604524 0.00715319 0.00352521)
(0.059225 0.00701639 0.00211374)
(0.057711 0.00684502 0.00070465)
(0.0559783 0.00664885 -0.000741798)
(0.059691 0.0118605 0.00352338)
(0.0584789 0.0116288 0.00211166)
(0.0569839 0.0113406 0.000702992)
(0.0552725 0.0110092 -0.000742362)
(0.0585619 0.0164906 0.00352231)
(0.0573717 0.0161666 0.00211155)
(0.0559038 0.015764 0.000703732)
(0.0542233 0.0153015 -0.000740491)
(0.0570672 0.021014 0.0035214)
(0.055905 0.0206005 0.00211264)
(0.0544725 0.0200867 0.000706115)
(0.0528327 0.0194969 -0.000736427)
(0.0552134 0.0254025 0.00352051)
(0.0540856 0.0249018 0.00211467)
(0.0526969 0.0242797 0.000709826)
(0.0511078 0.0235661 -0.000730424)
(0.0530125 0.0296304 0.00351991)
(0.0519263 0.0290438 0.00211757)
(0.0505904 0.0283158 0.000714604)
(0.0490624 0.0274814 -0.000722936)
(0.0504824 0.0336751 0.0035201)
(0.0494457 0.0330034 0.00212126)
(0.048172 0.0321718 0.000719994)
(0.0467158 0.0312196 -0.000714834)
(0.0476452 0.0375176 0.00352154)
(0.0466666 0.0367621 0.00212532)
(0.0454648 0.0358295 0.000725123)
(0.0440914 0.0347627 -0.000707554)
(0.0445249 0.0411413 0.00352373)
(0.0436126 0.0403044 0.00212844)
(0.0424922 0.0392746 0.000728509)
(0.0412123 0.0380977 -0.00070305)
(0.0411413 0.0445249 0.00352373)
(0.0403044 0.0436126 0.00212844)
(0.0392746 0.0424922 0.000728509)
(0.0380977 0.0412123 -0.00070305)
(0.0375176 0.0476452 0.00352154)
(0.0367621 0.0466666 0.00212532)
(0.0358295 0.0454648 0.000725123)
(0.0347627 0.0440914 -0.000707554)
(0.0336751 0.0504824 0.0035201)
(0.0330034 0.0494457 0.00212126)
(0.0321718 0.048172 0.000719994)
(0.0312196 0.0467158 -0.000714834)
(0.0296304 0.0530125 0.00351991)
(0.0290438 0.0519263 0.00211757)
(0.0283158 0.0505904 0.000714604)
(0.0274814 0.0490624 -0.000722936)
(0.0254025 0.0552134 0.00352051)
(0.0249018 0.0540856 0.00211467)
(0.0242797 0.0526969 0.000709826)
(0.0235661 0.0511078 -0.000730424)
(0.021014 0.0570672 0.0035214)
(0.0206005 0.055905 0.00211264)
(0.0200867 0.0544725 0.000706115)
(0.0194969 0.0528327 -0.000736427)
(0.0164906 0.0585619 0.00352231)
(0.0161666 0.0573717 0.00211155)
(0.015764 0.0559038 0.000703733)
(0.0153015 0.0542233 -0.000740491)
(0.0118605 0.059691 0.00352338)
(0.0116288 0.0584789 0.00211166)
(0.0113406 0.0569839 0.000702993)
(0.0110092 0.0552725 -0.000742361)
(0.00715319 0.0604524 0.00352521)
(0.00701639 0.059225 0.00211374)
(0.00684502 0.057711 0.000704651)
(0.00664885 0.0559783 -0.000741797)
(0.00239972 0.0608442 0.00352819)
(0.0023562 0.0596106 0.00211866)
(0.00230238 0.0580865 0.000709729)
(0.00224706 0.056345 -0.000738446)
(0.0546224 0.002146 -0.00226107)
(0.0537408 0.00211715 0.000113411)
(0.0525735 0.00207655 0.00198855)
(0.051173 0.00203175 0.00413744)
(0.0542759 0.00641542 -0.00225136)
(0.0533968 0.0063193 0.00012108)
(0.0522341 0.00618928 0.00199588)
(0.0508393 0.00603286 0.00414529)
(0.0535949 0.0106429 -0.00224734)
(0.0527258 0.0104796 0.000123977)
(0.0515769 0.0102604 0.00199808)
(0.050199 0.00999549 0.00414682)
(0.0525798 0.0147992 -0.00224481)
(0.051726 0.0145712 0.000125599)
(0.0505976 0.014265 0.00199895)
(0.0492444 0.0138953 0.0041469)
(0.051232 0.0188571 -0.00224245)
(0.0503983 0.0185669 0.000127138)
(0.0492972 0.0181764 0.00199969)
(0.0479766 0.0177055 0.00414682)
(0.0495579 0.022791 -0.00223982)
(0.0487491 0.0224403 0.000128971)
(0.0476821 0.0219679 0.00200068)
(0.0464024 0.0213986 0.00414696)
(0.0475693 0.0265778 -0.0022368)
(0.0467911 0.0261672 0.000131202)
(0.0457655 0.0256146 0.00200201)
(0.0445352 0.024949 0.00414745)
(0.0452839 0.0301977 -0.00223341)
(0.0445427 0.0297273 0.000133783)
(0.0435662 0.0290957 0.00200366)
(0.0423947 0.0283358 0.0041483)
(0.0427238 0.0336353 -0.00222987)
(0.0420268 0.0331049 0.000136436)
(0.0411075 0.032396 0.00200538)
(0.0400041 0.0315436 0.00414933)
(0.039914 0.0368783 -0.00222705)
(0.039268 0.0362887 0.000138366)
(0.0384135 0.035505 0.0020066)
(0.0373872 0.0345631 0.0041501)
(0.0368783 0.039914 -0.00222705)
(0.0362887 0.039268 0.000138366)
(0.035505 0.0384135 0.0020066)
(0.0345631 0.0373872 0.0041501)
(0.0336353 0.0427238 -0.00222987)
(0.0331049 0.0420268 0.000136436)
(0.032396 0.0411075 0.00200538)
(0.0315436 0.0400041 0.00414933)
(0.0301977 0.0452839 -0.00223341)
(0.0297273 0.0445427 0.000133783)
(0.0290957 0.0435662 0.00200366)
(0.0283358 0.0423947 0.0041483)
(0.0265778 0.0475693 -0.0022368)
(0.0261672 0.0467911 0.000131202)
(0.0256146 0.0457655 0.00200201)
(0.024949 0.0445352 0.00414745)
(0.022791 0.0495579 -0.00223982)
(0.0224403 0.0487491 0.000128971)
(0.0219679 0.0476821 0.00200068)
(0.0213986 0.0464024 0.00414696)
(0.0188571 0.051232 -0.00224245)
(0.0185669 0.0503983 0.000127138)
(0.0181764 0.0492972 0.00199969)
(0.0177055 0.0479766 0.00414682)
(0.0147992 0.0525798 -0.00224481)
(0.0145712 0.051726 0.000125599)
(0.014265 0.0505976 0.00199895)
(0.0138953 0.0492444 0.0041469)
(0.0106429 0.0535949 -0.00224734)
(0.0104796 0.0527258 0.000123978)
(0.0102604 0.0515769 0.00199808)
(0.00999549 0.050199 0.00414682)
(0.00641542 0.0542759 -0.00225136)
(0.0063193 0.0533968 0.000121081)
(0.00618928 0.0522341 0.00199588)
(0.00603286 0.0508393 0.00414529)
(0.002146 0.0546224 -0.00226107)
(0.00211715 0.0537408 0.000113412)
(0.00207655 0.0525735 0.00198855)
(0.00203175 0.051173 0.00413745)
(0.0416028 0.00162579 -0.00496076)
(0.0409213 0.00160443 -0.00111222)
(0.0401423 0.0015776 0.00229971)
(0.0392942 0.00155047 0.00592994)
(0.0413384 0.00487858 -0.00494914)
(0.0406594 0.00480467 -0.0011015)
(0.0398833 0.00471888 0.00231004)
(0.0390391 0.00462557 0.00593953)
(0.0408208 0.00810018 -0.00494257)
(0.0401496 0.00797449 -0.00109624)
(0.0393826 0.00782961 0.00231398)
(0.0385487 0.00767104 0.00594182)
(0.040049 0.0112672 -0.0049377)
(0.0393895 0.0110919 -0.0010934)
(0.038636 0.0108895 0.00231503)
(0.0378167 0.0106683 0.00594092)
(0.0390232 0.0143586 -0.00493303)
(0.038379 0.0141358 -0.00109147)
(0.0376433 0.0138779 0.00231465)
(0.0368434 0.0135964 0.00593805)
(0.037748 0.0173549 -0.004928)
(0.0371227 0.0170858 -0.00108987)
(0.0364094 0.0167738 0.00231349)
(0.0356335 0.0164338 0.00593384)
(0.0362322 0.0202385 -0.00492261)
(0.0356302 0.0199234 -0.00108836)
(0.0349441 0.0195582 0.00231193)
(0.0341979 0.0191606 0.00592888)
(0.0344895 0.0229948 -0.00491721)
(0.0339158 0.0226333 -0.00108692)
(0.0332626 0.0222152 0.00231037)
(0.032552 0.0217603 0.00592396)
(0.032537 0.0256122 -0.00491247)
(0.0319977 0.0252038 -0.0010856)
(0.0313833 0.0247334 0.00230915)
(0.0307147 0.0242216 0.00591998)
(0.0303946 0.0280817 -0.00490934)
(0.0298954 0.0276269 -0.0010847)
(0.0293254 0.0271054 0.00230853)
(0.028705 0.0265379 0.00591776)
(0.0280817 0.0303946 -0.00490934)
(0.0276269 0.0298954 -0.0010847)
(0.0271054 0.0293254 0.00230853)
(0.0265379 0.028705 0.00591776)
(0.0256122 0.032537 -0.00491247)
(0.0252038 0.0319977 -0.0010856)
(0.0247334 0.0313833 0.00230915)
(0.0242216 0.0307147 0.00591998)
(0.0229948 0.0344895 -0.00491721)
(0.0226333 0.0339158 -0.00108692)
(0.0222152 0.0332626 0.00231037)
(0.0217603 0.032552 0.00592396)
(0.0202385 0.0362322 -0.00492261)
(0.0199234 0.0356302 -0.00108836)
(0.0195582 0.0349441 0.00231193)
(0.0191606 0.0341979 0.00592888)
(0.0173549 0.037748 -0.004928)
(0.0170858 0.0371227 -0.00108987)
(0.0167738 0.0364094 0.00231349)
(0.0164338 0.0356335 0.00593384)
(0.0143586 0.0390232 -0.00493303)
(0.0141358 0.038379 -0.00109147)
(0.0138779 0.0376433 0.00231465)
(0.0135964 0.0368434 0.00593805)
(0.0112672 0.040049 -0.0049377)
(0.0110919 0.0393895 -0.00109339)
(0.0108895 0.038636 0.00231503)
(0.0106683 0.0378167 0.00594092)
(0.00810018 0.0408208 -0.00494256)
(0.00797449 0.0401496 -0.00109624)
(0.00782961 0.0393826 0.00231398)
(0.00767104 0.0385487 0.00594182)
(0.00487859 0.0413384 -0.00494914)
(0.00480467 0.0406594 -0.00110149)
(0.00471888 0.0398833 0.00231004)
(0.00462557 0.0390391 0.00593953)
(0.00162579 0.0416028 -0.00496076)
(0.00160443 0.0409213 -0.00111221)
(0.0015776 0.0401423 0.00229971)
(0.00155047 0.0392942 0.00592994)
(0.0294929 0.00114694 -0.00507891)
(0.0289028 0.00112839 -0.00143215)
(0.0283779 0.00111024 0.0019881)
(0.0279312 0.00109584 0.00548214)
(0.0293034 0.00345365 -0.00507108)
(0.028717 0.0033891 -0.00142464)
(0.0281951 0.00333155 0.00199519)
(0.0277514 0.00328322 0.00548811)
(0.0289375 0.00573917 -0.00506524)
(0.0283581 0.00562927 -0.00142001)
(0.0278424 0.00553202 0.00199846)
(0.0274043 0.00544961 0.00548972)
(0.0283928 0.00798649 -0.00506024)
(0.0278238 0.00783316 -0.00141712)
(0.0273171 0.00769731 0.0019994)
(0.0268865 0.00758236 0.00548862)
(0.0276693 0.0101806 -0.00505531)
(0.0271135 0.00998564 -0.00141517)
(0.0266186 0.00981257 0.00199875)
(0.0261977 0.00966657 0.00548524)
(0.0267694 0.0123077 -0.00505006)
(0.0262299 0.0120722 -0.00141376)
(0.0257496 0.0118629 0.00199696)
(0.0253407 0.0116868 0.00548001)
(0.0256989 0.0143554 -0.00504457)
(0.0251792 0.0140798 -0.00141267)
(0.0247168 0.0138346 0.00199446)
(0.0243229 0.0136285 0.00547361)
(0.024467 0.0163132 -0.00503926)
(0.0239712 0.0159973 -0.00141183)
(0.0235304 0.0157163 0.00199178)
(0.0231551 0.0154798 0.00546705)
(0.0230852 0.0181725 -0.00503481)
(0.0226182 0.0178162 -0.00141119)
(0.0222033 0.0174994 0.00198952)
(0.0218504 0.0172322 0.00546159)
(0.0215671 0.0199263 -0.00503203)
(0.0211338 0.0195303 -0.00141077)
(0.0207489 0.0191785 0.00198824)
(0.0204221 0.0188808 0.00545848)
(0.0199263 0.0215671 -0.00503203)
(0.0195303 0.0211338 -0.00141077)
(0.0191785 0.0207489 0.00198824)
(0.0188808 0.0204221 0.00545848)
(0.0181725 0.0230852 -0.00503481)
(0.0178162 0.0226182 -0.00141119)
(0.0174994 0.0222033 0.00198952)
(0.0172322 0.0218504 0.00546159)
(0.0163132 0.024467 -0.00503926)
(0.0159973 0.0239712 -0.00141183)
(0.0157163 0.0235304 0.00199178)
(0.0154798 0.0231551 0.00546705)
(0.0143554 0.0256989 -0.00504457)
(0.0140798 0.0251792 -0.00141267)
(0.0138346 0.0247168 0.00199446)
(0.0136285 0.0243229 0.00547361)
(0.0123077 0.0267694 -0.00505006)
(0.0120722 0.0262299 -0.00141376)
(0.0118629 0.0257496 0.00199696)
(0.0116868 0.0253407 0.00548002)
(0.0101806 0.0276693 -0.00505531)
(0.00998564 0.0271135 -0.00141517)
(0.00981257 0.0266186 0.00199875)
(0.00966657 0.0261977 0.00548524)
(0.00798649 0.0283928 -0.00506024)
(0.00783316 0.0278238 -0.00141712)
(0.00769731 0.0273171 0.0019994)
(0.00758236 0.0268865 0.00548862)
(0.00573917 0.0289375 -0.00506523)
(0.00562927 0.0283581 -0.00142001)
(0.00553202 0.0278424 0.00199846)
(0.00544961 0.0274043 0.00548972)
(0.00345365 0.0293034 -0.00507108)
(0.0033891 0.028717 -0.00142463)
(0.00333155 0.0281951 0.00199519)
(0.00328322 0.0277514 0.00548811)
(0.00114694 0.0294929 -0.00507891)
(0.00112839 0.0289028 -0.00143215)
(0.00111024 0.0283779 0.0019881)
(0.00109584 0.0279312 0.00548214)
(0.020779 0.000805739 -0.00403179)
(0.0202578 0.000789025 -0.00123271)
(0.0198731 0.00077552 0.00149434)
(0.0196305 0.00076749 0.00419557)
(0.0206439 0.00243169 -0.00402838)
(0.0201268 0.00237395 -0.0012295)
(0.0197453 0.00233149 0.00149713)
(0.0195054 0.00230542 0.00419744)
(0.0203869 0.0040433 -0.00402466)
(0.0198763 0.00394487 -0.00122675)
(0.0194995 0.00387309 0.00149883)
(0.0192627 0.00382855 0.00419796)
(0.0200055 0.0056286 -0.00402098)
(0.0195042 0.00549114 -0.00122463)
(0.0191341 0.00539084 0.00149943)
(0.0189013 0.00532867 0.00419706)
(0.0194993 0.00717712 -0.00401719)
(0.01901 0.00700217 -0.00122307)
(0.0186485 0.00687441 0.00149894)
(0.0184206 0.00679557 0.00419453)
(0.0188697 0.00867911 -0.00401319)
(0.018395 0.00846782 -0.00122194)
(0.018044 0.00831338 0.00149752)
(0.0178224 0.0082184 0.00419047)
(0.0181204 0.0101258 -0.00400907)
(0.0176631 0.00987876 -0.00122116)
(0.017325 0.00969798 0.00149542)
(0.017111 0.00958688 0.00418534)
(0.0172568 0.0115094 -0.00400513)
(0.0168204 0.011227 -0.00122061)
(0.0164978 0.0110199 0.00149312)
(0.0162936 0.0108923 0.00417999)
(0.0162868 0.0128234 -0.00400187)
(0.015875 0.0125059 -0.00122024)
(0.0155709 0.0122727 0.00149115)
(0.0153787 0.0121281 0.00417551)
(0.015219 0.0140621 -0.00399983)
(0.0148357 0.0137105 -0.00121999)
(0.014553 0.0134518 0.00149003)
(0.0143752 0.0132902 0.00417294)
(0.0140621 0.015219 -0.00399983)
(0.0137105 0.0148357 -0.00121999)
(0.0134518 0.014553 0.00149003)
(0.0132902 0.0143752 0.00417294)
(0.0128234 0.0162868 -0.00400187)
(0.0125059 0.015875 -0.00122024)
(0.0122727 0.0155709 0.00149115)
(0.0121281 0.0153787 0.00417551)
(0.0115094 0.0172568 -0.00400513)
(0.011227 0.0168204 -0.00122061)
(0.0110199 0.0164978 0.00149312)
(0.0108923 0.0162936 0.00417999)
(0.0101258 0.0181204 -0.00400907)
(0.00987876 0.0176631 -0.00122116)
(0.00969798 0.017325 0.00149542)
(0.00958688 0.017111 0.00418534)
(0.00867911 0.0188697 -0.00401319)
(0.00846782 0.018395 -0.00122194)
(0.00831338 0.018044 0.00149752)
(0.0082184 0.0178224 0.00419047)
(0.00717712 0.0194993 -0.00401719)
(0.00700217 0.01901 -0.00122307)
(0.00687441 0.0186485 0.00149894)
(0.00679557 0.0184206 0.00419453)
(0.0056286 0.0200055 -0.00402098)
(0.00549114 0.0195042 -0.00122463)
(0.00539083 0.0191341 0.00149943)
(0.00532867 0.0189013 0.00419706)
(0.0040433 0.0203869 -0.00402466)
(0.00394487 0.0198763 -0.00122675)
(0.00387309 0.0194995 0.00149883)
(0.00382855 0.0192627 0.00419796)
(0.00243169 0.0206439 -0.00402838)
(0.00237395 0.0201268 -0.0012295)
(0.00233149 0.0197453 0.00149713)
(0.00230542 0.0195054 0.00419744)
(0.00080574 0.020779 -0.00403179)
(0.000789024 0.0202578 -0.00123271)
(0.000775519 0.0198731 0.00149435)
(0.00076749 0.0196305 0.00419557)
(0.0151485 0.000587225 -0.00283923)
(0.0147055 0.00057277 -0.000885709)
(0.0144009 0.000561915 0.00106358)
(0.0142376 0.000556329 0.00295108)
(0.0150492 0.00177327 -0.00283868)
(0.01461 0.00172371 -0.000885404)
(0.0143085 0.00168969 0.00106355)
(0.0141475 0.00167187 0.00295049)
(0.0148624 0.00294905 -0.00283695)
(0.0144288 0.00286446 -0.000884344)
(0.0141311 0.00280694 0.00106393)
(0.0139722 0.00277653 0.00295022)
(0.0145857 0.00410603 -0.00283487)
(0.0141602 0.00398779 -0.000883178)
(0.0138679 0.00390737 0.00106416)
(0.0137117 0.00386486 0.00294961)
(0.0142189 0.00523671 -0.0028326)
(0.0138038 0.00508615 -0.000882176)
(0.0135184 0.0049837 0.00106391)
(0.0133656 0.00492976 0.00294818)
(0.0137627 0.00633396 -0.00283019)
(0.0133603 0.00615217 -0.000881417)
(0.0130834 0.00602839 0.00106309)
(0.0129347 0.0059635 0.0029458)
(0.0132196 0.00739126 -0.0028277)
(0.0128322 0.00717901 -0.000880886)
(0.0125654 0.00703434 0.00106181)
(0.0124219 0.00695858 0.00294269)
(0.0125932 0.00840273 -0.00282532)
(0.0122234 0.00816059 -0.000880525)
(0.0119688 0.00799527 0.00106036)
(0.0118316 0.00790847 0.00293938)
(0.0118885 0.00936317 -0.00282332)
(0.0115393 0.00909179 -0.000880261)
(0.0112991 0.00890612 0.00105911)
(0.0111697 0.00880804 0.00293658)
(0.0111115 0.0102679 -0.00282203)
(0.0107858 0.00996832 -0.000880066)
(0.010562 0.00976293 0.00105841)
(0.0104421 0.00965362 0.00293498)
(0.0102679 0.0111115 -0.00282203)
(0.00996832 0.0107858 -0.000880066)
(0.00976293 0.010562 0.00105841)
(0.00965362 0.0104421 0.00293498)
(0.00936317 0.0118885 -0.00282332)
(0.00909179 0.0115393 -0.000880261)
(0.00890612 0.0112991 0.00105911)
(0.00880804 0.0111697 0.00293658)
(0.00840273 0.0125932 -0.00282532)
(0.00816059 0.0122234 -0.000880525)
(0.00799527 0.0119688 0.00106036)
(0.00790847 0.0118316 0.00293938)
(0.00739126 0.0132196 -0.0028277)
(0.00717901 0.0128322 -0.000880886)
(0.00703434 0.0125654 0.00106181)
(0.00695858 0.0124218 0.00294269)
(0.00633396 0.0137627 -0.00283019)
(0.00615217 0.0133603 -0.000881417)
(0.00602839 0.0130834 0.00106309)
(0.0059635 0.0129347 0.0029458)
(0.00523671 0.0142189 -0.0028326)
(0.00508615 0.0138038 -0.000882175)
(0.0049837 0.0135184 0.00106391)
(0.00492976 0.0133656 0.00294818)
(0.00410603 0.0145857 -0.00283487)
(0.00398779 0.0141602 -0.000883177)
(0.00390737 0.0138679 0.00106416)
(0.00386485 0.0137117 0.00294961)
(0.00294905 0.0148624 -0.00283695)
(0.00286446 0.0144288 -0.000884344)
(0.00280694 0.0141311 0.00106393)
(0.00277652 0.0139722 0.00295022)
(0.00177327 0.0150492 -0.00283868)
(0.00172371 0.01461 -0.000885404)
(0.00168969 0.0143085 0.00106355)
(0.00167186 0.0141475 0.00295049)
(0.000587225 0.0151485 -0.00283923)
(0.00057277 0.0147055 -0.000885709)
(0.000561914 0.0144009 0.00106358)
(0.000556328 0.0142376 0.00295109)
(0.0115347 0.000447772 -0.00192219)
(0.0111753 0.000435918 -0.000585147)
(0.0109265 0.000426971 0.000761472)
(0.0107904 0.000422247 0.002049)
(0.011459 0.00135135 -0.00192285)
(0.0111026 0.00131087 -0.00058607)
(0.0108565 0.0012828 0.000760306)
(0.0107222 0.00126763 0.00204756)
(0.0113169 0.00224704 -0.00192238)
(0.0109651 0.00217792 -0.000586018)
(0.0107221 0.00213045 0.000759982)
(0.0105896 0.00210461 0.00204694)
(0.0111067 0.00312855 -0.00192151)
(0.0107616 0.00303188 -0.000585574)
(0.010523 0.00296548 0.000759957)
(0.0103928 0.00292931 0.00204654)
(0.0108282 0.00399025 -0.00192044)
(0.0104916 0.00386712 -0.000585067)
(0.0102588 0.0037825 0.00075985)
(0.0101316 0.00373655 0.00204591)
(0.0104819 0.0048267 -0.00191925)
(0.0101558 0.00467808 -0.000584638)
(0.00993008 0.0045759 0.000759487)
(0.00980648 0.00452061 0.00204483)
(0.0100697 0.00563287 -0.001918)
(0.00975593 0.00545951 -0.000584319)
(0.00953862 0.00534025 0.000758871)
(0.0094194 0.00527584 0.00204333)
(0.00959415 0.00640413 -0.00191677)
(0.00929475 0.00620669 -0.000584083)
(0.00908737 0.00607072 0.000758146)
(0.00897346 0.0059972 0.00204167)
(0.00905883 0.00713634 -0.00191569)
(0.008776 0.00691551 -0.000583887)
(0.00858017 0.00676322 0.00075752)
(0.00847267 0.00668059 0.00204024)
(0.00846795 0.00782567 -0.00191494)
(0.00820388 0.00758243 -0.000583728)
(0.00802122 0.00741443 0.000757176)
(0.00792122 0.00732285 0.00203943)
(0.00782567 0.00846795 -0.00191494)
(0.00758243 0.00820388 -0.000583728)
(0.00741443 0.00802122 0.000757176)
(0.00732285 0.00792122 0.00203943)
(0.00713634 0.00905883 -0.00191569)
(0.00691551 0.008776 -0.000583887)
(0.00676322 0.00858017 0.00075752)
(0.00668059 0.00847267 0.00204024)
(0.00640413 0.00959415 -0.00191677)
(0.00620669 0.00929475 -0.000584083)
(0.00607071 0.00908737 0.000758146)
(0.0059972 0.00897346 0.00204167)
(0.00563287 0.0100697 -0.001918)
(0.00545951 0.00975593 -0.000584319)
(0.00534025 0.00953862 0.000758871)
(0.00527584 0.00941939 0.00204333)
(0.0048267 0.0104819 -0.00191925)
(0.00467808 0.0101558 -0.000584638)
(0.0045759 0.00993008 0.000759487)
(0.00452061 0.00980648 0.00204483)
(0.00399024 0.0108282 -0.00192044)
(0.00386712 0.0104916 -0.000585067)
(0.0037825 0.0102588 0.00075985)
(0.00373655 0.0101316 0.00204591)
(0.00312855 0.0111067 -0.00192151)
(0.00303188 0.0107615 -0.000585574)
(0.00296548 0.010523 0.000759957)
(0.00292931 0.0103928 0.00204654)
(0.00224704 0.0113169 -0.00192238)
(0.00217792 0.0109651 -0.000586018)
(0.00213045 0.0107221 0.000759982)
(0.00210461 0.0105896 0.00204694)
(0.00135135 0.011459 -0.00192285)
(0.00131087 0.0111026 -0.00058607)
(0.0012828 0.0108565 0.000760306)
(0.00126763 0.0107222 0.00204756)
(0.000447773 0.0115347 -0.00192219)
(0.000435918 0.0111753 -0.000585147)
(0.000426971 0.0109265 0.000761472)
(0.000422246 0.0107904 0.002049)
(0.00905486 0.000352118 -0.00132708)
(0.0087723 0.000342757 -0.00038183)
(0.00856952 0.000335442 0.00056689)
(0.00844821 0.000331241 0.00147224)
(0.00899552 0.00106166 -0.00132795)
(0.00871532 0.00102974 -0.000382935)
(0.00851458 0.00100674 0.00056563)
(0.00839475 0.00099307 0.00147086)
(0.00888395 0.0017649 -0.00132806)
(0.00860731 0.00171039 -0.000383283)
(0.00840915 0.00167147 0.000565088)
(0.00829089 0.00164822 0.00147021)
(0.00871886 0.00245698 -0.00132785)
(0.00844749 0.00238072 -0.00038324)
(0.008253 0.00232627 0.000564936)
(0.00813688 0.0022937 0.00146994)
(0.00850018 0.00313353 -0.00132748)
(0.00823564 0.00303638 -0.000383053)
(0.00804593 0.00296698 0.000564882)
(0.00793256 0.00292555 0.00146972)
(0.00822849 0.0037903 -0.001327)
(0.00797224 0.00367305 -0.000382849)
(0.00778839 0.00358926 0.00056476)
(0.00767839 0.00353938 0.00146934)
(0.0079051 0.00442329 -0.00132644)
(0.00765865 0.00428661 -0.000382674)
(0.00748176 0.0041889 0.000564526)
(0.00737578 0.00413083 0.00146875)
(0.00753209 0.00502884 -0.00132586)
(0.007297 0.00487331 -0.000382522)
(0.00712825 0.00476206 0.000564233)
(0.00702707 0.00469595 0.00146805)
(0.00711218 0.00560362 -0.00132529)
(0.00689011 0.00542988 -0.000382373)
(0.00673076 0.0053055 0.00056398)
(0.00663523 0.00523145 0.00146744)
(0.00664861 0.00614462 -0.00132486)
(0.0064412 0.00595345 -0.000382246)
(0.00629248 0.00581648 0.000563848)
(0.00620347 0.00573472 0.00146708)
(0.00614462 0.00664861 -0.00132486)
(0.00595345 0.0064412 -0.000382246)
(0.00581648 0.00629248 0.000563848)
(0.00573472 0.00620347 0.00146708)
(0.00560362 0.00711218 -0.00132529)
(0.00542988 0.00689011 -0.000382373)
(0.0053055 0.00673075 0.00056398)
(0.00523145 0.00663523 0.00146744)
(0.00502884 0.00753208 -0.00132586)
(0.00487331 0.00729699 -0.000382522)
(0.00476206 0.00712825 0.000564233)
(0.00469595 0.00702706 0.00146805)
(0.00442329 0.0079051 -0.00132644)
(0.00428661 0.00765865 -0.000382674)
(0.00418889 0.00748176 0.000564526)
(0.00413083 0.00737577 0.00146875)
(0.0037903 0.00822849 -0.001327)
(0.00367305 0.00797224 -0.000382849)
(0.00358926 0.00778839 0.00056476)
(0.00353938 0.00767838 0.00146934)
(0.00313353 0.00850018 -0.00132748)
(0.00303638 0.00823563 -0.000383053)
(0.00296698 0.00804592 0.000564882)
(0.00292555 0.00793256 0.00146972)
(0.00245698 0.00871885 -0.00132785)
(0.00238072 0.00844749 -0.00038324)
(0.00232626 0.00825299 0.000564936)
(0.0022937 0.00813688 0.00146994)
(0.0017649 0.00888395 -0.00132806)
(0.00171039 0.00860731 -0.000383283)
(0.00167147 0.00840914 0.000565088)
(0.00164822 0.00829089 0.00147021)
(0.00106166 0.00899551 -0.00132795)
(0.00102974 0.00871531 -0.000382934)
(0.00100674 0.00851458 0.00056563)
(0.000993069 0.00839474 0.00147086)
(0.000352118 0.00905485 -0.00132708)
(0.000342757 0.00877229 -0.00038183)
(0.000335441 0.00856952 0.00056689)
(0.00033124 0.00844821 0.00147224)
(0.00719879 0.000280287 -0.000963559)
(0.00697964 0.00027302 -0.000259665)
(0.00681659 0.000267141 0.000439913)
(0.00671111 0.000263514 0.0011111)
(0.00715172 0.000844458 -0.000964249)
(0.00693433 0.000819687 -0.000260534)
(0.00677283 0.00080116 0.000438946)
(0.00666851 0.000789244 0.00111007)
(0.00706293 0.00140354 -0.000964501)
(0.00684829 0.00136123 -0.000260934)
(0.00668884 0.00132988 0.000438441)
(0.00658589 0.00130962 0.00110952)
(0.00693148 0.00195368 -0.000964558)
(0.00672092 0.00189448 -0.000261045)
(0.00656445 0.00185061 0.000438257)
(0.00646338 0.00182221 0.00110932)
(0.00675739 0.00249143 -0.000964482)
(0.00655214 0.00241601 -0.000261015)
(0.00639954 0.00236008 0.00043821)
(0.00630092 0.00232393 0.00110924)
(0.00654116 0.00301343 -0.000964312)
(0.00634237 0.00292241 -0.000260932)
(0.00619454 0.00285487 0.000438177)
(0.00609891 0.00281133 0.00110914)
(0.00628387 0.0035165 -0.000964065)
(0.00609273 0.0034104 -0.000260835)
(0.00595055 0.00333167 0.000438107)
(0.00585848 0.00328099 0.00110894)
(0.0059872 0.00399771 -0.000963761)
(0.00580491 0.00387703 -0.000260731)
(0.00566931 0.00378744 0.000438009)
(0.00558147 0.00372979 0.00110867)
(0.00565332 0.00445442 -0.00096343)
(0.00548115 0.00431967 -0.000260616)
(0.00535312 0.00421959 0.000437926)
(0.0052702 0.00415511 0.00110842)
(0.00528481 0.00488428 -0.000963153)
(0.00512402 0.00473607 -0.000260516)
(0.00500451 0.00462595 0.00043789)
(0.00492721 0.00455486 0.00110828)
(0.00488428 0.00528481 -0.000963153)
(0.00473607 0.00512402 -0.000260515)
(0.00462595 0.00500451 0.00043789)
(0.00455486 0.00492721 0.00110828)
(0.00445442 0.00565332 -0.00096343)
(0.00431967 0.00548115 -0.000260615)
(0.00421959 0.00535312 0.000437926)
(0.0041551 0.0052702 0.00110842)
(0.0039977 0.0059872 -0.000963761)