/*--------------------------------*- C++ -*----------------------------------*\
| =========                 |                                                 |
| \\      /  F ield         | foam-extend: Open Source CFD                    |
|  \\    /   O peration     | Version:     3.1                                |
|   \\  /    A nd           | Web:         http://www.extend-project.de       |
|    \\/     M anipulation  |                                                 |
\*---------------------------------------------------------------------------*/
FoamFile
{
    version     2.0;
    format      ascii;
    class       volVectorField;
    location    "2.5";
    object      D_0;
}
// * * * * * * * * * * * * * * * * * * * * * * * * * * * * * * * * * * * * * //

dimensions      [0 1 0 0 0 0 0];

internalField   nonuniform List<vector> 
256
(
(0.000270091 0.000175164 0.000302153)
(0.000118325 3.32604e-05 9.13575e-05)
(0.000104916 -5.22526e-05 -0.000105967)
(0.000227217 -0.000195159 -0.000330026)
(0.00112087 0.000720217 0.000248725)
(0.000932967 0.000191815 9.13717e-05)
(0.000897145 -0.000227559 -0.000143087)
(0.001007 -0.000754023 -0.000325654)
(0.00219107 0.00110922 0.000175844)
(0.00200337 0.000321475 4.77928e-05)
(0.00195502 -0.000370728 -0.000130446)
(0.00204122 -0.0011625 -0.000284967)
(0.0034573 0.00140718 7.10975e-05)
(0.00328924 0.000414403 3.09511e-06)
(0.00323307 -0.000493161 -0.00011027)
(0.00328303 -0.00149213 -0.000205971)
(0.00484789 0.00160593 -3.35019e-05)
(0.00469827 0.00046974 -4.04938e-05)
(0.00463723 -0.000592547 -8.66114e-05)
(0.00465791 -0.0017337 -0.000120905)
(0.00629755 0.00172511 -0.000126822)
(0.00616478 0.000494734 -7.95408e-05)
(0.00610108 -0.000672026 -6.57781e-05)
(0.00609914 -0.00190298 -4.30697e-05)
(0.00775546 0.00178412 -0.000201576)
(0.00763429 0.000497036 -0.000114447)
(0.00756857 -0.000733894 -5.18649e-05)
(0.00755263 -0.00201421 1.72027e-05)
(0.00919615 0.0018028 -0.000257739)
(0.00906953 0.000486544 -0.000146847)
(0.00899754 -0.00078018 -4.67872e-05)
(0.00897957 -0.00208488 5.02017e-05)
(0.000301401 0.000172895 0.000150093)
(0.0001541 3.40217e-05 4.7254e-05)
(0.000140965 -4.79084e-05 -6.16027e-05)
(0.000254997 -0.000184476 -0.000177201)
(0.00118957 0.000713836 0.000140222)
(0.000978898 0.000192705 4.64427e-05)
(0.000945589 -0.000219515 -9.36062e-05)
(0.00108069 -0.000739814 -0.00020502)
(0.0022403 0.00111942 9.63928e-05)
(0.0020535 0.000328833 1.92578e-05)
(0.00200798 -0.000370423 -9.36598e-05)
(0.00209616 -0.0011655 -0.000188949)
(0.00347474 0.00142172 2.64085e-05)
(0.00330965 0.000424609 -1.29321e-05)
(0.00325629 -0.000493357 -8.3349e-05)
(0.0033057 -0.00149695 -0.000141393)
(0.0048252 0.00162346 -4.85633e-05)
(0.00468126 0.00048245 -4.55049e-05)
(0.0046227 -0.000590977 -6.91191e-05)
(0.00463947 -0.00173648 -8.41238e-05)
(0.00623493 0.00174298 -0.00011767)
(0.00610882 0.000508904 -7.57154e-05)
(0.00604732 -0.000666565 -5.62139e-05)
(0.00603989 -0.00189973 -3.01714e-05)
(0.00765729 0.00180052 -0.000174393)
(0.00754406 0.000511413 -0.000103024)
(0.00748067 -0.000723619 -4.88669e-05)
(0.00745781 -0.00200288 1.08999e-05)
(0.00907169 0.0018167 -0.000216022)
(0.00895319 0.000499916 -0.000127161)
(0.00888372 -0.000765584 -5.06284e-05)
(0.00885911 -0.00206572 2.9024e-05)
(0.000315136 0.000178062 7.26667e-05)
(0.000159286 3.62374e-05 2.22499e-05)
(0.000144593 -4.85707e-05 -3.60281e-05)
(0.000263472 -0.000188697 -9.46175e-05)
(0.00121878 0.000706814 6.92884e-05)
(0.00099042 0.000191824 1.81184e-05)
(0.000955477 -0.00021347 -5.96379e-05)
(0.00110456 -0.000729308 -0.000121647)
(0.0022636 0.00110971 4.12323e-05)
(0.0020637 0.000329213 -4.76799e-07)
(0.00201646 -0.00036247 -6.44736e-05)
(0.00211436 -0.00114885 -0.000116703)
(0.00348023 0.00141119 -4.9106e-06)
(0.00330659 0.000426512 -2.33964e-05)
(0.00325137 -0.000482907 -6.08275e-05)
(0.00330572 -0.0014745 -8.96484e-05)
(0.00480695 0.00161499 -5.63989e-05)
(0.00465746 0.000486668 -4.7121e-05)
(0.0045969 -0.000577911 -5.36436e-05)
(0.00461534 -0.00170998 -5.39034e-05)
(0.00619088 0.00173813 -0.000105509)
(0.00606151 0.000515719 -6.97866e-05)
(0.00599803 -0.000650771 -4.69512e-05)
(0.00598979 -0.00186998 -1.90967e-05)
(0.00758894 0.00180046 -0.000146916)
(0.00747448 0.000520664 -9.0746e-05)
(0.00740924 -0.000705293 -4.46034e-05)
(0.00738349 -0.00197076 6.6273e-06)
(0.00898446 0.00182223 -0.000177061)
(0.00886641 0.000511306 -0.000109347)
(0.00879457 -0.000745187 -5.06313e-05)
(0.00876414 -0.00203201 1.34255e-05)
(0.000319469 0.000180926 3.31136e-05)
(0.000157473 3.73267e-05 9.18995e-06)
(0.000141414 -4.88928e-05 -2.08664e-05)
(0.000263803 -0.000190929 -4.93438e-05)
(0.00122718 0.000702005 2.88324e-05)
(0.000987988 0.000191242 3.32865e-06)
(0.000950898 -0.000208635 -3.76639e-05)
(0.00110695 -0.000720519 -6.97076e-05)
(0.00226732 0.00109957 9.03259e-06)
(0.00205769 0.00032873 -1.02737e-05)
(0.00200818 -0.000353624 -4.34315e-05)
(0.00211206 -0.00113064 -6.87358e-05)
(0.00347326 0.00139878 -2.20481e-05)
(0.00329217 0.000427027 -2.67379e-05)
(0.00323467 -0.000470485 -4.31945e-05)
(0.00329285 -0.00144899 -5.34352e-05)
(0.00478546 0.00160319 -5.72218e-05)
(0.00463058 0.000489058 -4.39354e-05)
(0.00456777 -0.000562397 -4.02563e-05)
(0.00458806 -0.00167947 -3.17733e-05)
(0.00615294 0.00172916 -9.16383e-05)
(0.00601996 0.000520585 -6.07566e-05)
(0.00595431 -0.000632686 -3.75642e-05)
(0.00594619 -0.00183629 -1.02303e-05)
(0.00753465 0.00179578 -0.000121458)
(0.00741808 0.000528191 -7.6756e-05)
(0.0073507 -0.000685174 -3.82581e-05)
(0.00732343 -0.00193529 4.88427e-06)
(0.00891635 0.00182242 -0.000143232)
(0.008797 0.0005215 -9.12716e-05)
(0.00872221 -0.000723465 -4.59488e-05)
(0.00868801 -0.00199558 5.10541e-06)
(0.000320255 0.000182128 1.35649e-05)
(0.000154597 3.78914e-05 2.91483e-06)
(0.000137574 -4.89145e-05 -1.18293e-05)
(0.000261726 -0.000191522 -2.48169e-05)
(0.00122685 0.000698686 8.20382e-06)
(0.000981162 0.000191181 -3.07964e-06)
(0.000942335 -0.000204727 -2.33652e-05)
(0.00110179 -0.000713088 -3.85571e-05)
(0.00226227 0.00109246 -6.29317e-06)
(0.00204633 0.000328853 -1.31346e-05)
(0.00199498 -0.000345928 -2.84815e-05)
(0.00210205 -0.00111556 -3.87318e-05)
(0.00346084 0.00138967 -2.74517e-05)
(0.00327448 0.000427969 -2.48831e-05)
(0.0032152 -0.000459357 -2.96237e-05)
(0.0032757 -0.0014275 -3.0015e-05)
(0.00476359 0.00159411 -5.13467e-05)
(0.00460465 0.000491467 -3.71609e-05)
(0.00454016 -0.000548352 -2.89148e-05)
(0.00456176 -0.00165324 -1.70899e-05)
(0.00612029 0.0017218 -7.51048e-05)
(0.00598435 0.000524922 -4.93851e-05)
(0.00591714 -0.000616298 -2.84225e-05)
(0.00590932 -0.00180691 -4.1774e-06)
(0.00749072 0.00179125 -9.61508e-05)
(0.00737217 0.00053461 -6.12966e-05)
(0.00730321 -0.000667 -3.05057e-05)
(0.00727517 -0.00190397 4.17662e-06)
(0.00886179 0.00182112 -0.00011155)
(0.008741 0.000530012 -7.2305e-05)
(0.00866398 -0.000703883 -3.79779e-05)
(0.0086275 -0.00196314 1.39841e-06)
(0.00031993 0.000182552 4.57594e-06)
(0.000152196 3.81991e-05 3.11429e-07)
(0.00013453 -4.8801e-05 -6.43286e-06)
(0.000259435 -0.00019139 -1.18143e-05)
(0.00122381 0.000696485 -5.39083e-07)
(0.000974308 0.000191415 -4.66913e-06)
(0.000934256 -0.00020175 -1.38722e-05)
(0.0010953 -0.000707295 -2.02709e-05)
(0.00225496 0.00108802 -1.07198e-05)
(0.00203512 0.000329445 -1.17094e-05)
(0.00198247 -0.000339982 -1.77174e-05)
(0.0020912 -0.00110432 -2.06075e-05)
(0.00344819 0.00138399 -2.46349e-05)
(0.00325841 0.000429285 -1.96777e-05)
(0.0031979 -0.000450671 -1.91066e-05)
(0.00325972 -0.00141149 -1.57052e-05)
(0.00474461 0.00158836 -4.02238e-05)
(0.00458289 0.000493886 -2.79852e-05)
(0.00451728 -0.000537314 -1.93388e-05)
(0.0045397 -0.0016335 -8.23667e-06)
(0.0060941 0.001717 -5.58655e-05)
(0.00595607 0.000528708 -3.63579e-05)
(0.00588783 -0.000603362 -1.9777e-05)
(0.00588029 -0.00178449 -8.32263e-07)
(0.00745673 0.00178809 -6.99394e-05)
(0.00733669 0.000539831 -4.46578e-05)
(0.00726671 -0.000652621 -2.20371e-05)
(0.00723833 -0.00187976 3.48205e-06)
(0.00881993 0.00181984 -8.02636e-05)
(0.0086979 0.000536671 -5.24273e-05)
(0.00861942 -0.000688357 -2.80652e-05)
(0.00858175 -0.00193778 1.22573e-07)
(0.000319444 0.000182652 1.04602e-06)
(0.000150601 3.83639e-05 -3.96227e-07)
(0.000132538 -4.86693e-05 -3.13995e-06)
(0.000257707 -0.000191077 -5.0595e-06)
(0.00122083 0.000695137 -2.55576e-06)
(0.000969233 0.000191701 -3.64011e-06)
(0.000928408 -0.000199743 -7.28803e-06)
(0.00109012 -0.000703346 -9.54966e-06)
(0.00224881 0.0010855 -8.65938e-06)
(0.00202672 0.000330097 -7.83721e-06)
(0.00197325 -0.000335971 -9.63856e-06)
(0.00208278 -0.00109691 -9.77403e-06)
(0.00343845 0.00138083 -1.66337e-05)
(0.00324664 0.000430497 -1.24863e-05)
(0.00318536 -0.000444796 -1.06679e-05)
(0.00324787 -0.00140101 -7.26897e-06)
(0.00473084 0.00158516 -2.54993e-05)
(0.00456743 0.000495848 -1.73219e-05)
(0.00450113 -0.000529826 -1.10745e-05)
(0.00452402 -0.00162051 -3.40239e-06)
(0.0060758 0.0017143 -3.44367e-05)
(0.00593645 0.000531539 -2.22317e-05)
(0.0058676 -0.00059456 -1.16324e-05)
(0.00586025 -0.00176961 3.84396e-07)
(0.00743341 0.00178624 -4.25552e-05)
(0.00731239 0.000543543 -2.71491e-05)
(0.00724181 -0.000642814 -1.32785e-05)
(0.00721331 -0.00186354 2.36622e-06)
(0.00879135 0.00181898 -4.85209e-05)
(0.00866846 0.00054126 -3.17842e-05)
(0.00858914 -0.000677748 -1.71404e-05)
(0.00855089 -0.00192065 -1.38246e-07)
(0.000319139 0.000182655 9.68195e-08)
(0.000149819 3.84364e-05 -2.17739e-07)
(0.000131568 -4.85878e-05 -9.34715e-07)
(0.000256805 -0.000190862 -1.37878e-06)
(0.00121912 0.000694496 -1.19227e-06)
(0.000966593 0.00019188 -1.33891e-06)
(0.000925398 -0.000198734 -2.26517e-06)
(0.00108735 -0.00070135 -2.77541e-06)
(0.00224541 0.00108437 -3.23112e-06)
(0.00202231 0.0003305 -2.73579e-06)
(0.00196845 -0.000333956 -3.0531e-06)
(0.0020783 -0.00109324 -2.84873e-06)
(0.00343323 0.00137943 -5.83617e-06)
(0.00324047 0.000431206 -4.26699e-06)
(0.00317884 -0.000441845 -3.42591e-06)
(0.00324165 -0.00139583 -2.07821e-06)
(0.00472363 0.00158376 -8.72004e-06)
(0.00455943 0.000496937 -5.8576e-06)
(0.00449281 -0.000526058 -3.60334e-06)
(0.00451591 -0.00161409 -8.83276e-07)
(0.00606638 0.00171311 -1.1633e-05)
(0.0059264 0.000533052 -7.47818e-06)
(0.00585727 -0.000590125 -3.83632e-06)
(0.00585001 -0.00176223 2.76826e-07)
(0.00742151 0.0017854 -1.42912e-05)
(0.00730002 0.000545474 -9.10885e-06)
(0.00722917 -0.000637864 -4.43126e-06)
(0.00720063 -0.00185545 8.42066e-07)
(0.00877679 0.00181852 -1.62461e-05)
(0.00865349 0.000543609 -1.065e-05)
(0.00857378 -0.000672381 -5.75624e-06)
(0.0085353 -0.00191206 -6.80729e-08)
)
;

boundaryField
{
    interface
    {
        type            tractionDisplacement;
        gradient        nonuniform List<vector> 
192
(
(0.0012504 8.90088e-08 -6.27537e-06)
(0.00125106 2.32615e-07 -7.48491e-06)
(0.0012496 5.25483e-07 -7.47543e-06)
(0.00124673 8.45864e-07 -7.27339e-06)
(0.00124237 1.23213e-06 -6.95727e-06)
(0.00123606 1.75972e-06 -6.48764e-06)
(0.00122701 2.65546e-06 -5.77696e-06)
(0.00121237 4.4017e-06 -4.57372e-06)
(0.00127836 1.58951e-07 -4.18175e-06)
(0.00127813 3.40733e-07 -4.98588e-06)
(0.00127606 6.81215e-07 -4.94782e-06)
(0.00127234 1.07974e-06 -4.77587e-06)
(0.0012667 1.57845e-06 -4.5173e-06)
(0.00125852 2.26978e-06 -4.14438e-06)
(0.00124668 3.43378e-06 -3.60938e-06)
(0.00122774 5.61186e-06 -2.83028e-06)
(0.0012969 2.0556e-07 -2.92788e-06)
(0.00129628 4.22773e-07 -3.50022e-06)
(0.00129375 8.10625e-07 -3.4639e-06)
(0.00128935 1.27314e-06 -3.32432e-06)
(0.00128271 1.85533e-06 -3.11929e-06)
(0.00127309 2.65704e-06 -2.83373e-06)
(0.00125927 3.97152e-06 -2.44508e-06)
(0.00123752 6.33252e-06 -1.9299e-06)
(0.00131022 2.36666e-07 -2.12187e-06)
(0.00130939 4.82114e-07 -2.53952e-06)
(0.00130652 9.12912e-07 -2.50899e-06)
(0.00130157 1.426e-06 -2.39958e-06)
(0.00129415 2.06871e-06 -2.2415e-06)
(0.00128345 2.94405e-06 -2.02736e-06)
(0.00126819 4.35007e-06 -1.74696e-06)
(0.00124452 6.81512e-06 -1.39307e-06)
(0.00131978 2.59652e-07 -1.51365e-06)
(0.00131882 5.26652e-07 -1.81147e-06)
(0.00131569 9.91037e-07 -1.78752e-06)
(0.00131032 1.54199e-06 -1.7059e-06)
(0.0013023 2.22756e-06 -1.58946e-06)
(0.00129082 3.15197e-06 -1.43486e-06)
(0.00127453 4.6157e-06 -1.23756e-06)
(0.00124954 7.14639e-06 -9.95544e-07)
(0.00132642 2.76131e-07 -1.01788e-06)
(0.00132536 5.58719e-07 -1.21811e-06)
(0.00132204 1.04754e-06 -1.20117e-06)
(0.00131638 1.62535e-06 -1.14496e-06)
(0.00130794 2.34023e-06 -1.06545e-06)
(0.0012959 3.29691e-06 -9.61283e-07)
(0.00127891 4.79762e-06 -8.30326e-07)
(0.00125304 7.37104e-06 -6.71486e-07)
(0.00133063 2.87035e-07 -5.86262e-07)
(0.00132951 5.79709e-07 -7.01327e-07)
(0.00132607 1.08477e-06 -6.91544e-07)
(0.00132021 1.68017e-06 -6.58841e-07)
(0.00131151 2.41383e-06 -6.12817e-07)
(0.00129912 3.39091e-06 -5.5309e-07)
(0.00128169 4.9157e-06 -4.77739e-07)
(0.00125526 7.51474e-06 -3.82182e-07)
(0.00133265 2.92824e-07 -1.90632e-07)
(0.00133149 5.90077e-07 -2.27698e-07)
(0.001328 1.10224e-06 -2.24725e-07)
(0.00132205 1.70638e-06 -2.14081e-07)
(0.00131322 2.44881e-06 -1.99112e-07)
(0.00130067 3.43614e-06 -1.79825e-07)
(0.00128303 4.97701e-06 -1.55001e-07)
(0.00125626 7.58408e-06 -1.20792e-07)
(1.09308e-05 7.23725e-08 0.00114973)
(1.30776e-05 1.27851e-07 0.00114889)
(1.31548e-05 1.98457e-07 0.00114824)
(1.29808e-05 2.92527e-07 0.0011473)
(1.2715e-05 4.04896e-07 0.00114595)
(1.23458e-05 5.36693e-07 0.00114413)
(1.18492e-05 6.86119e-07 0.00114175)
(1.13079e-05 8.03277e-07 0.00113874)
(1.00547e-05 2.11513e-08 0.0010997)
(1.20342e-05 3.77271e-08 0.00109949)
(1.21003e-05 5.67502e-08 0.0010993)
(1.19489e-05 8.24212e-08 0.00109902)
(1.17254e-05 1.12105e-07 0.00109863)
(1.14243e-05 1.44074e-07 0.00109811)
(1.10382e-05 1.71046e-07 0.00109746)
(1.0708e-05 1.6209e-07 0.00109671)
(1.00418e-05 -2.70428e-08 0.00105277)
(1.20188e-05 -4.56996e-08 0.00105298)
(1.20844e-05 -6.9588e-08 0.00105321)
(1.1933e-05 -1.00411e-07 0.00105354)
(1.171e-05 -1.3707e-07 0.001054)
(1.141e-05 -1.80176e-07 0.00105463)
(1.10258e-05 -2.2871e-07 0.00105544)
(1.06983e-05 -2.6355e-07 0.00105648)
(1.09054e-05 -8.04064e-08 0.00100291)
(1.30452e-05 -1.36982e-07 0.00100376)
(1.312e-05 -2.11694e-07 0.00100444)
(1.29457e-05 -3.09713e-07 0.00100544)
(1.26804e-05 -4.27843e-07 0.00100685)
(1.23126e-05 -5.69225e-07 0.00100876)
(1.18188e-05 -7.38586e-07 0.00101129)
(1.12818e-05 -8.99354e-07 0.00101456)
(-0.000903606 -9.63547e-08 6.85177e-06)
(-0.000902881 -2.51564e-07 8.12936e-06)
(-0.000904348 -5.72774e-07 8.11249e-06)
(-0.00090722 -9.20022e-07 7.89131e-06)
(-0.000911576 -1.33875e-06 7.54482e-06)
(-0.000917854 -1.91504e-06 7.02877e-06)
(-0.00092686 -2.91625e-06 6.2435e-06)
(-0.00094155 -4.95238e-06 4.89368e-06)
(-0.000876477 -1.72336e-07 4.42126e-06)
(-0.000876696 -3.68407e-07 5.23941e-06)
(-0.000878763 -7.40343e-07 5.19106e-06)
(-0.000882477 -1.17274e-06 5.00456e-06)
(-0.000888098 -1.71422e-06 4.72407e-06)
(-0.000896245 -2.4707e-06 4.31857e-06)
(-0.000908024 -3.77243e-06 3.7342e-06)
(-0.000927051 -6.30466e-06 2.87503e-06)
(-0.000858904 -2.23527e-07 3.02815e-06)
(-0.000859518 -4.57468e-07 3.59773e-06)
(-0.000862036 -8.80012e-07 3.55226e-06)
(-0.00086643 -1.38156e-06 3.40144e-06)
(-0.000873045 -2.0136e-06 3.18024e-06)
(-0.000882602 -2.89053e-06 2.87178e-06)
(-0.000896351 -4.35875e-06 2.45083e-06)
(-0.000918167 -7.09737e-06 1.88924e-06)
(-0.00084644 -2.57774e-07 2.16159e-06)
(-0.000847264 -5.21851e-07 2.57079e-06)
(-0.000850126 -9.90306e-07 2.53274e-06)
(-0.00085506 -1.54618e-06 2.41474e-06)
(-0.000862449 -2.24345e-06 2.24466e-06)
(-0.000873069 -3.20009e-06 2.01421e-06)
(-0.000888236 -4.76849e-06 1.71208e-06)
(-0.000911949 -7.62329e-06 1.32891e-06)
(-0.000837595 -2.83051e-07 1.52365e-06)
(-0.00083856 -5.70096e-07 1.81175e-06)
(-0.000841682 -1.07445e-06 1.78199e-06)
(-0.000847026 -1.67087e-06 1.69407e-06)
(-0.000854997 -2.41412e-06 1.56902e-06)
(-0.000866396 -3.42352e-06 1.40308e-06)
(-0.00088257 -5.05455e-06 1.19126e-06)
(-0.000907581 -7.98206e-06 9.30362e-07)
(-0.000831511 -3.01135e-07 1.01526e-06)
(-0.000832571 -6.04765e-07 1.20705e-06)
(-0.000835879 -1.13523e-06 1.18601e-06)
(-0.000841519 -1.76034e-06 1.1255e-06)
(-0.000849902 -2.53489e-06 1.04024e-06)
(-0.000861845 -3.57878e-06 9.28656e-07)
(-0.000878708 -5.24964e-06 7.88457e-07)
(-0.000904589 -8.22417e-06 6.17775e-07)
(-0.000827684 -3.13066e-07 5.81157e-07)
(-0.000828802 -6.27424e-07 6.90621e-07)
(-0.00083223 -1.17521e-06 6.7841e-07)
(-0.000838059 -1.81904e-06 6.43226e-07)
(-0.000846706 -2.61357e-06 5.93914e-07)
(-0.000858993 -3.67914e-06 5.30029e-07)
(-0.000876286 -5.37574e-06 4.49542e-07)
(-0.000902707 -8.37837e-06 3.46949e-07)
(-0.000825854 -3.19376e-07 1.88378e-07)
(-0.000827006 -6.38536e-07 2.23531e-07)
(-0.000830489 -1.19398e-06 2.19753e-07)
(-0.000836409 -1.8471e-06 2.083e-07)
(-0.000845182 -2.65092e-06 1.92268e-07)
(-0.000857629 -3.72725e-06 1.71653e-07)
(-0.000875121 -5.44102e-06 1.45178e-07)
(-0.000901879 -8.45211e-06 1.08378e-07)
(1.13077e-05 -0.00113956 -9.86196e-07)
(1.18661e-05 -0.00114323 -8.3836e-07)
(1.23873e-05 -0.00114616 -6.69958e-07)
(1.27835e-05 -0.00114847 -5.21832e-07)
(1.30767e-05 -0.00115024 -3.91006e-07)
(1.32868e-05 -0.00115152 -2.72808e-07)
(1.34306e-05 -0.00115236 -1.66012e-07)
(1.35055e-05 -0.00115283 -5.78898e-08)
(1.07333e-05 -0.00109747 -3.23353e-07)
(1.10861e-05 -0.00109878 -2.9851e-07)
(1.14951e-05 -0.00109989 -2.50886e-07)
(1.18192e-05 -0.0011008 -2.02547e-07)
(1.20647e-05 -0.00110151 -1.55909e-07)
(1.22434e-05 -0.00110204 -1.10734e-07)
(1.23687e-05 -0.0011024 -6.67961e-08)
(1.24387e-05 -0.00110257 -2.25708e-08)
(1.07338e-05 -0.00105712 1.29308e-07)
(1.10872e-05 -0.00105654 1.24779e-07)
(1.1494e-05 -0.00105609 9.54584e-08)
(1.18153e-05 -0.00105577 6.74789e-08)
(1.20582e-05 -0.00105555 4.5425e-08)
(1.22347e-05 -0.00105541 2.87838e-08)
(1.23586e-05 -0.00105532 1.65634e-08)
(1.24277e-05 -0.00105528 5.73912e-09)
(1.13263e-05 -0.00101504 7.95589e-07)
(1.18919e-05 -0.00101212 6.58727e-07)
(1.24086e-05 -0.00100987 5.05786e-07)
(1.27978e-05 -0.00100817 3.78169e-07)
(1.3084e-05 -0.00100692 2.73189e-07)
(1.32882e-05 -0.00100604 1.85436e-07)
(1.34278e-05 -0.00100548 1.12584e-07)
(1.35008e-05 -0.00100515 4.00141e-08)
)
;
        traction        nonuniform List<vector> 
192
(
(26.7942 0.00190733 -0.134472)
(26.8085 0.00498462 -0.160391)
(26.7772 0.0112604 -0.160188)
(26.7157 0.0181257 -0.155858)
(26.6222 0.0264028 -0.149084)
(26.487 0.0377082 -0.139021)
(26.293 0.0569026 -0.123792)
(25.9793 0.0943222 -0.0980083)
(27.3935 0.0034061 -0.0896089)
(27.3884 0.00730142 -0.10684)
(27.3441 0.0145975 -0.106025)
(27.2645 0.0231373 -0.10234)
(27.1437 0.033824 -0.0967993)
(26.9683 0.0486382 -0.0888082)
(26.7147 0.0735809 -0.077344)
(26.3087 0.120254 -0.0606489)
(27.7907 0.00440487 -0.0627403)
(27.7773 0.00905942 -0.0750048)
(27.7233 0.0173705 -0.0742265)
(27.6289 0.0272816 -0.0712353)
(27.4865 0.039757 -0.066842)
(27.2806 0.0569365 -0.0607228)
(26.9843 0.085104 -0.0523946)
(26.5182 0.135697 -0.0413549)
(28.0762 0.00507141 -0.0454687)
(28.0584 0.010331 -0.0544183)
(27.997 0.0195624 -0.0537641)
(27.8909 0.0305572 -0.0514196)
(27.7317 0.0443295 -0.0480322)
(27.5026 0.0630869 -0.0434433)
(27.1755 0.0932158 -0.0374349)
(26.6683 0.146038 -0.0298516)
(28.2811 0.00556398 -0.0324353)
(28.2603 0.0112854 -0.0388172)
(28.1933 0.0212365 -0.038304)
(28.0783 0.0330426 -0.0365551)
(27.9065 0.0477333 -0.0340599)
(27.6604 0.0675421 -0.0307469)
(27.3113 0.0989078 -0.0265191)
(26.7759 0.153137 -0.0213331)
(28.4234 0.00591708 -0.0218117)
(28.4006 0.0119725 -0.0261023)
(28.3295 0.0224473 -0.0257394)
(28.2081 0.034829 -0.0245348)
(28.0273 0.0501478 -0.0228311)
(27.7694 0.0706481 -0.0205989)
(27.4052 0.102806 -0.0177927)
(26.8508 0.157951 -0.014389)
(28.5135 0.00615074 -0.0125628)
(28.4894 0.0124223 -0.0150284)
(28.4158 0.023245 -0.0148188)
(28.2903 0.0360036 -0.014118)
(28.1037 0.0517248 -0.0131318)
(27.8383 0.0726623 -0.0118519)
(27.4647 0.105336 -0.0102373)
(26.8984 0.16103 -0.00818961)
(28.5567 0.00627479 -0.00408497)
(28.532 0.0126445 -0.00487923)
(28.4571 0.0236193 -0.00481554)
(28.3296 0.0365652 -0.00458744)
(28.1404 0.0524745 -0.00426669)
(27.8714 0.0736316 -0.00385339)
(27.4935 0.10665 -0.00332146)
(26.9199 0.162516 -0.00258841)
(0.234232 0.00155084 24.637)
(0.280235 0.00273965 24.6191)
(0.281888 0.00425265 24.6052)
(0.278159 0.00626843 24.5849)
(0.272465 0.00867633 24.5561)
(0.264553 0.0115006 24.5171)
(0.253912 0.0147025 24.4661)
(0.242312 0.0172131 24.4015)
(0.215458 0.000453242 23.565)
(0.257875 0.000808438 23.5605)
(0.259292 0.00121608 23.5564)
(0.256048 0.00176617 23.5504)
(0.251258 0.00240225 23.542)
(0.244806 0.00308729 23.5309)
(0.236532 0.00366528 23.517)
(0.229457 0.00347336 23.5009)
(0.215181 -0.00057949 22.5593)
(0.257546 -0.000979277 22.564)
(0.258951 -0.00149117 22.5688)
(0.255708 -0.00215167 22.5758)
(0.250929 -0.00293722 22.5858)
(0.244501 -0.00386092 22.5992)
(0.236268 -0.00490093 22.6167)
(0.22925 -0.00564749 22.6389)
(0.233687 -0.00172299 21.4909)
(0.279539 -0.00293532 21.5091)
(0.281144 -0.00453631 21.5238)
(0.277407 -0.00663671 21.5451)
(0.271722 -0.00916805 21.5754)
(0.263841 -0.0121977 21.6164)
(0.253261 -0.0158268 21.6704)
(0.241752 -0.0192719 21.7405)
(-19.363 -0.00206474 0.146824)
(-19.3475 -0.00539066 0.174201)
(-19.3789 -0.0122737 0.173839)
(-19.4404 -0.0197148 0.1691)
(-19.5338 -0.0286875 0.161675)
(-19.6683 -0.0410367 0.150616)
(-19.8613 -0.0624911 0.133789)
(-20.1761 -0.106122 0.104865)
(-18.7816 -0.00369291 0.0947413)
(-18.7863 -0.00789443 0.112273)
(-18.8306 -0.0158645 0.111237)
(-18.9102 -0.0251302 0.107241)
(-19.0307 -0.0367334 0.10123)
(-19.2052 -0.0529437 0.0925409)
(-19.4577 -0.0808377 0.0800185)
(-19.8654 -0.1351 0.0616077)
(-18.4051 -0.00478987 0.064889)
(-18.4182 -0.00980289 0.0770943)
(-18.4722 -0.0188574 0.0761199)
(-18.5664 -0.0296049 0.0728881)
(-18.7081 -0.0431486 0.0681481)
(-18.9129 -0.06194 0.0615382)
(-19.2075 -0.0934018 0.0525179)
(-19.675 -0.152086 0.0404836)
(-18.138 -0.00552373 0.0463197)
(-18.1556 -0.0111825 0.0550883)
(-18.217 -0.0212208 0.054273)
(-18.3227 -0.0331325 0.0517444)
(-18.481 -0.048074 0.0480998)
(-18.7086 -0.0685733 0.0431617)
(-19.0336 -0.102182 0.0366875)
(-19.5418 -0.163356 0.0284766)
(-17.9485 -0.00606538 0.0326497)
(-17.9691 -0.0122163 0.0388231)
(-18.036 -0.023024 0.0381856)
(-18.1506 -0.0358044 0.0363015)
(-18.3214 -0.0517312 0.0336219)
(-18.5656 -0.0733611 0.0300661)
(-18.9122 -0.108312 0.0255271)
(-19.4482 -0.171044 0.0199363)
(-17.8181 -0.00645288 0.0217555)
(-17.8408 -0.0129593 0.0258653)
(-17.9117 -0.0243264 0.0254145)
(-18.0325 -0.0377215 0.0241178)
(-18.2122 -0.0543192 0.0222908)
(-18.4681 -0.0766882 0.0198998)
(-18.8294 -0.112492 0.0168955)
(-19.3841 -0.176232 0.013238)
(-17.7361 -0.00670857 0.0124534)
(-17.7601 -0.0134448 0.014799)
(-17.8335 -0.0251831 0.0145374)
(-17.9584 -0.0389794 0.0137834)
(-18.1437 -0.0560052 0.0127267)
(-18.407 -0.0788387 0.0113578)
(-18.7775 -0.115194 0.00963305)
(-19.3437 -0.179537 0.00743463)
(-17.6969 -0.00684377 0.00403667)
(-17.7216 -0.0136829 0.00478996)
(-17.7962 -0.0255853 0.00470898)
(-17.9231 -0.0395806 0.00446357)
(-18.111 -0.0568055 0.00412003)
(-18.3778 -0.0798697 0.00367828)
(-18.7526 -0.116593 0.00311095)
(-19.326 -0.181117 0.00232238)
(0.242309 -24.4191 -0.0211328)
(0.254273 -24.4977 -0.0179648)
(0.265441 -24.5605 -0.0143563)
(0.273931 -24.61 -0.0111821)
(0.280215 -24.6479 -0.00837869)
(0.284717 -24.6755 -0.00584588)
(0.287799 -24.6935 -0.0035574)
(0.289404 -24.7035 -0.0012405)
(0.229999 -23.5171 -0.006929)
(0.237559 -23.5453 -0.00639663)
(0.246324 -23.5691 -0.00537612)
(0.253268 -23.5885 -0.00434029)
(0.25853 -23.6038 -0.00334091)
(0.262358 -23.6152 -0.00237288)
(0.265043 -23.6228 -0.00143135)
(0.266544 -23.6265 -0.00048366)
(0.23001 -22.6525 0.00277088)
(0.237582 -22.6402 0.00267384)
(0.2463 -22.6305 0.00204554)
(0.253185 -22.6237 0.00144598)
(0.25839 -22.6189 0.000973392)
(0.262173 -22.6158 0.000616796)
(0.264827 -22.614 0.00035493)
(0.266308 -22.6131 0.000122981)
(0.242706 -21.7508 0.0170483)
(0.254825 -21.6882 0.0141156)
(0.265899 -21.64 0.0108383)
(0.274239 -21.6037 0.00810362)
(0.280372 -21.5769 0.00585405)
(0.284748 -21.558 0.00397363)
(0.287739 -21.5459 0.00241252)
(0.289303 -21.5389 0.000857445)
)
;
        pressure        uniform 0;
        value           nonuniform List<vector> 
192
(
(0.000584203 0.000610473 0.000311)
(0.00126958 0.00115088 0.000269001)
(0.00235563 0.00167401 0.000182216)
(0.00359119 0.00204671 5.39789e-05)
(0.00496037 0.0022977 -7.46989e-05)
(0.00639011 0.00244074 -0.000190502)
(0.00783638 0.00250603 -0.000283141)
(0.00927131 0.00253245 -0.000349321)
(0.000620702 0.000634833 0.000156207)
(0.00136137 0.00114383 0.000155598)
(0.00240649 0.00166696 0.000105202)
(0.00361253 0.00204215 2.11276e-05)
(0.00493999 0.0022949 -6.9654e-05)
(0.00633031 0.00244071 -0.000154739)
(0.00774113 0.0025088 -0.000225296)
(0.00914951 0.00254066 -0.000276075)
(0.00064645 0.000655728 7.42155e-05)
(0.00139792 0.00113771 7.3816e-05)
(0.00243501 0.00164816 4.2107e-05)
(0.00362043 0.00201969 -1.17538e-05)
(0.00492183 0.00227296 -7.32759e-05)
(0.00628499 0.00242316 -0.000132987)
(0.00767082 0.00249825 -0.000184187)
(0.00905862 0.00254038 -0.000221653)
(0.000658178 0.000665421 3.24677e-05)
(0.00141209 0.00113244 2.796e-05)
(0.00244423 0.00163337 5.2344e-06)
(0.00361742 0.00199979 -3.06947e-05)
(0.00490269 0.00225248 -7.2163e-05)
(0.00624815 0.0024055 -0.000113503)
(0.0076168 0.00248589 -0.00015011)
(0.00898972 0.00253536 -0.000177549)
(0.000662662 0.000668985 1.21857e-05)
(0.00141553 0.00112797 5.31262e-06)
(0.0024431 0.00162311 -1.17124e-05)
(0.00360823 0.00198597 -3.62306e-05)
(0.00488316 0.00223781 -6.42426e-05)
(0.00621698 0.00239232 -9.25888e-05)
(0.00757371 0.00247585 -0.000118368)
(0.00893519 0.0025297 -0.000138087)
(0.000664011 0.000669827 3.25543e-06)
(0.00141476 0.00112444 -3.49172e-06)
(0.00243832 0.00161637 -1.56568e-05)
(0.00359785 0.00197721 -3.18958e-05)
(0.00486597 0.00222845 -5.01713e-05)
(0.00619209 0.00238364 -6.87993e-05)
(0.00754063 0.0024688 -8.6046e-05)
(0.0088938 0.00252503 -9.94134e-05)
(0.000664198 0.000669714 1.55555e-07)
(0.00141302 0.001122 -4.60258e-06)
(0.00243363 0.00161228 -1.19705e-05)
(0.00358948 0.00197211 -2.1338e-05)
(0.00485334 0.00222304 -3.17547e-05)
(0.00617468 0.00237854 -4.24066e-05)
(0.00751799 0.00246445 -5.23725e-05)
(0.00886567 0.00252187 -6.01548e-05)
(0.000664107 0.000669491 -2.1189e-07)
(0.00141184 0.00112076 -1.91161e-06)
(0.00243088 0.00161035 -4.38358e-06)
(0.00358489 0.00196977 -7.45508e-06)
(0.00484667 0.00222058 -1.08495e-05)
(0.00616568 0.00237618 -1.43252e-05)
(0.00750641 0.00246238 -1.75925e-05)
(0.00885133 0.00252023 -2.01515e-05)
(0.000246141 0.000329711 0.000471153)
(0.00107553 0.000673457 0.000273988)
(0.00217085 0.00106941 0.000217585)
(0.00346321 0.00135304 9.102e-05)
(0.00488408 0.00155443 -2.56085e-05)
(0.00636078 0.00168006 -0.000130413)
(0.00784008 0.0017479 -0.000212273)
(0.00929624 0.00178058 -0.000277322)
(5.94258e-05 9.18266e-05 0.000129368)
(0.000828705 0.000174167 9.95092e-05)
(0.00193105 0.000307171 5.36139e-05)
(0.00324957 0.000395426 2.1767e-06)
(0.00469455 0.000450631 -4.55378e-05)
(0.00619297 0.000476182 -8.8041e-05)
(0.00768889 0.000479109 -0.000125385)
(0.00914536 0.000472532 -0.000163596)
(4.16562e-05 -0.000127547 -0.000151135)
(0.000787065 -0.000214505 -0.000153261)
(0.00187528 -0.000358014 -0.000144248)
(0.00318624 -0.000475298 -0.000120735)
(0.00462634 -0.000577351 -9.47681e-05)
(0.00612263 -0.000661677 -7.1172e-05)
(0.0076176 -0.000729912 -5.47705e-05)
(0.00906779 -0.0007828 -4.46679e-05)
(0.000187319 -0.000386567 -0.000495059)
(0.000942048 -0.000719845 -0.000354477)
(0.001995 -0.00112855 -0.000333781)
(0.00326226 -0.0014421 -0.000236083)
(0.00466684 -0.00168753 -0.000140571)
(0.00613592 -0.00186545 -5.18712e-05)
(0.00761291 -0.00198967 1.66719e-05)
(0.00905652 -0.00207849 5.85545e-05)
(0.000487035 -0.000611959 -0.000349394)
(0.00111164 -0.00117877 -0.000367409)
(0.00214339 -0.00173448 -0.000320556)
(0.00334506 -0.00214101 -0.000220348)
(0.00469194 -0.00243368 -0.000111209)
(0.0061106 -0.00262306 -8.90883e-06)
(0.00755101 -0.00273372 7.28239e-05)
(0.00897573 -0.00279338 0.000121065)
(0.000510751 -0.000633505 -0.000188326)
(0.00120493 -0.00117228 -0.00022891)
(0.0021972 -0.00172228 -0.000208976)
(0.00336855 -0.00212755 -0.000147705)
(0.00467267 -0.00241549 -7.40152e-05)
(0.00605053 -0.00260005 -2.76399e-06)
(0.00745488 -0.00270572 5.40579e-05)
(0.0088546 -0.00276307 8.52599e-05)
(0.00052768 -0.000653204 -9.92521e-05)
(0.00123568 -0.00116492 -0.000130563)
(0.00222138 -0.00169727 -0.000122875)
(0.00337236 -0.00209315 -8.80485e-05)
(0.00465017 -0.00237476 -4.17074e-05)
(0.00600039 -0.00255611 4.6561e-06)
(0.00737912 -0.0026607 4.17206e-05)
(0.00875602 -0.00271799 5.90621e-05)
(0.000532857 -0.000660365 -5.06408e-05)
(0.00124302 -0.00115597 -7.12312e-05)
(0.00222391 -0.00167462 -6.75324e-05)
(0.0033631 -0.0020601 -4.71433e-05)
(0.00462497 -0.00233504 -1.87228e-05)
(0.0059575 -0.00251265 1.04419e-05)
(0.00731848 -0.0026155 3.34702e-05)
(0.00867795 -0.00267186 4.16722e-05)
(0.000532681 -0.000661078 -2.46971e-05)
(0.0012409 -0.00114705 -3.71037e-05)
(0.002217 -0.00165627 -3.47352e-05)
(0.00334845 -0.00203374 -2.24091e-05)
(0.0046003 -0.00230283 -5.0144e-06)
(0.00592134 -0.00247662 1.29677e-05)
(0.00726999 -0.00257713 2.67824e-05)
(0.00861638 -0.00263182 2.98413e-05)
(0.000530833 -0.000659446 -1.12783e-05)
(0.0012361 -0.00113949 -1.81718e-05)
(0.00220795 -0.0016425 -1.64627e-05)
(0.00333403 -0.00201447 -9.04158e-06)
(0.00457933 -0.00227917 1.35478e-06)
(0.00589285 -0.00244976 1.20477e-05)
(0.00723312 -0.002548 1.99661e-05)
(0.00857018 -0.00260094 2.05755e-05)
(0.000529011 -0.000657574 -4.59343e-06)
(0.00123179 -0.00113411 -7.9507e-06)
(0.00220052 -0.00163333 -6.8621e-06)
(0.00332306 -0.0020019 -2.84566e-06)
(0.00456429 -0.00226375 2.71009e-06)
(0.00587316 -0.00243211 8.3719e-06)
(0.00720814 -0.00252866 1.24237e-05)
(0.00853917 -0.00258023 1.22272e-05)
(0.000527959 -0.000656446 -1.20231e-06)
(0.00122937 -0.00113133 -2.19336e-06)
(0.00219646 -0.00162874 -1.81582e-06)
(0.00331723 -0.0019957 -5.39798e-07)
(0.00455648 -0.00225615 1.21026e-06)
(0.0058631 -0.00242338 2.98243e-06)