/*--------------------------------*- C++ -*----------------------------------*\
| =========                 |                                                 |
| \\      /  F ield         | foam-extend: Open Source CFD                    |
|  \\    /   O peration     | Version:     3.1                                |
|   \\  /    A nd           | Web:         http://www.extend-project.de       |
|    \\/     M anipulation  |                                                 |
\*---------------------------------------------------------------------------*/
FoamFile
{
    version     2.0;
    format      ascii;
    class       volSymmTensorField;
    location    "2.5";
    object      epsilon;
}
// * * * * * * * * * * * * * * * * * * * * * * * * * * * * * * * * * * * * * //

dimensions      [0 0 0 0 0 0 0];

internalField   nonuniform List<symmTensor> 
256
(
(-0.00684832 0.00911947 -0.000409587 0.0261265 0.00478215 -0.00280883)
(-0.00228154 0.00779512 -0.00121047 0.00618985 0.00167665 -0.00105246)
(0.00118406 0.00727619 -0.00123677 -0.00706932 -0.00230929 0.00117685)
(0.00538027 0.00770705 -0.000504706 -0.0258379 -0.00570699 0.00295585)
(-0.0120457 0.00381188 -0.000482079 0.016648 -0.00147474 -0.00422812)
(-0.00482466 0.0100047 -0.00191071 0.00637099 -0.00065439 -0.00156351)
(0.00218445 0.00980098 -0.00197376 -0.0053426 0.000370576 0.0018981)
(0.00927023 0.00368243 -0.000698951 -0.0157049 0.0010772 0.00471032)
(-0.0100538 0.00463619 -0.000207207 0.0154343 -0.000789658 -0.00245581)
(-0.00492885 0.00964867 -0.00130666 0.00574827 -0.000320513 -0.000841065)
(0.00158758 0.00965712 -0.00135029 -0.00431839 5.49594e-05 0.00136743)
(0.0068747 0.00469208 -0.00042329 -0.0140871 0.000492731 0.003234)
(-0.0085857 0.00403636 -0.000206566 0.0114101 -0.00114391 -0.00144381)
(-0.0044156 0.00876286 -0.00106962 0.00449812 -0.000392161 -0.000407198)
(0.000904701 0.00882365 -0.00109917 -0.00300816 0.000184279 0.0011192)
(0.00519248 0.00416552 -0.000436402 -0.00993376 0.00093013 0.00242213)
(-0.00691375 0.00347993 -0.000151564 0.00805751 -0.00104656 -0.000336024)
(-0.0038186 0.0075042 -0.000850056 0.00333629 -0.000338246 3.02848e-05)
(0.000350928 0.00759849 -0.00087365 -0.00193915 0.000176497 0.000789865)
(0.003481 0.00366284 -0.000379046 -0.00657538 0.000904954 0.0014278)
(-0.00558845 0.00267067 -0.000158238 0.00519588 -0.000912054 0.000534255)
(-0.00328898 0.00597676 -0.000728027 0.00231876 -0.000296071 0.000369116)
(-4.62469e-05 0.0061159 -0.000734863 -0.00108693 0.000155614 0.000505563)
(0.00218977 0.00294477 -0.00035923 -0.00376271 0.000827784 0.000592708)
(-0.0047312 0.00172121 -0.000225389 0.00329069 -0.000748279 0.001235)
(-0.00297117 0.00430526 -0.000685417 0.00157899 -0.000285384 0.000655273)
(-0.000306267 0.00444904 -0.000663428 -0.000465925 9.72812e-05 0.000253526)
(0.00139276 0.00210661 -0.000365446 -0.00180196 0.000645526 -0.000118519)
(-0.00491284 0.000936295 -0.000307844 0.00231538 -0.000400663 0.00177672)
(-0.00352473 0.00240067 -0.000652614 0.001352 -0.000176694 0.00088692)
(-0.000207765 0.00235598 -0.000638519 8.65256e-06 -2.88628e-06 2.67895e-05)
(0.00140537 0.00101944 -0.000425226 -0.000784087 0.000235694 -0.000703241)
(-0.00688878 0.0103643 -0.000264432 0.0252897 0.00296956 -0.00185533)
(-0.00210047 0.00937131 -0.000975245 0.00592575 0.000960653 -0.000702468)
(0.00109308 0.00892774 -0.00105933 -0.00621887 -0.00164535 0.000800381)
(0.00539027 0.00903008 -0.000461432 -0.0244313 -0.00391253 0.00206847)
(-0.0120647 0.00393022 -0.000388865 0.0181434 -0.000513944 -0.00332074)
(-0.00443022 0.0103396 -0.00179558 0.00707832 -0.000340515 -0.00123712)
(0.00201582 0.0102258 -0.00197223 -0.00619322 -0.000117493 0.00153255)
(0.00930505 0.00394322 -0.000804766 -0.0173957 -4.52115e-05 0.00391923)
(-0.00985452 0.00408569 -0.000176089 0.0154893 -0.00124094 -0.00240992)
(-0.0044184 0.00887552 -0.00141891 0.00580416 -0.000501497 -0.000862137)
(0.00144573 0.00890341 -0.0016037 -0.00447423 0.000225649 0.00131863)
(0.00678972 0.00414281 -0.000648679 -0.01423 0.000921032 0.00326299)
(-0.00823452 0.00337424 -1.86919e-05 0.0114894 -0.00155072 -0.00131657)
(-0.00385467 0.0076406 -0.0010089 0.00453548 -0.000542066 -0.000444364)
(0.000761206 0.00769712 -0.00119793 -0.00307608 0.000388115 0.00100724)
(0.00496594 0.00348489 -0.000529585 -0.010031 0.00139472 0.00231464)
(-0.00655982 0.00275867 0.000123516 0.00796224 -0.00154193 -0.000247725)
(-0.00327541 0.00630354 -0.000683031 0.00330785 -0.000508289 -5.15483e-05)
(0.00022861 0.00638342 -0.000870689 -0.00187736 0.00043575 0.000686183)
(0.0032418 0.00291727 -0.000393166 -0.00643559 0.00150654 0.0013254)
(-0.00524508 0.00202837 0.000191344 0.00506544 -0.00135425 0.000655237)
(-0.00278076 0.00490348 -0.000468827 0.00227264 -0.000440856 0.0002814)
(-0.000161362 0.00502379 -0.000637971 -0.000955469 0.000396391 0.000403304)
(0.00193514 0.00228314 -0.000293218 -0.00352806 0.00139511 0.000451208)
(-0.00441279 0.00120421 0.000177917 0.00312907 -0.00104776 0.00136068)
(-0.00251265 0.00347808 -0.000373927 0.00149904 -0.000368757 0.000554733)
(-0.000415717 0.00361267 -0.000512686 -0.000296436 0.000277958 0.000174235)
(0.00113866 0.00160676 -0.000235443 -0.00149138 0.00108804 -0.00025398)
(-0.00460549 0.00069027 9.64072e-05 0.00221274 -0.000559266 0.00187787)
(-0.00311535 0.00198734 -0.000385432 0.00129823 -0.000217439 0.00075686)
(-0.000350247 0.00193543 -0.000545983 0.000134165 9.97815e-05 -3.83359e-05)
(0.00112968 0.000793294 -0.000314821 -0.000553855 0.000523549 -0.000825363)
(-0.00721377 0.0108751 -0.000179406 0.0254645 0.00149014 -0.00106769)
(-0.0022259 0.00977477 -0.000627668 0.00597338 0.000411532 -0.000382824)
(0.00116832 0.00930526 -0.000697356 -0.00607398 -0.00102479 0.000498977)
(0.00562935 0.00943938 -0.000324378 -0.0244527 -0.00225013 0.00125867)
(-0.0126858 0.00400778 -0.000318346 0.0177493 -0.000327614 -0.00203421)
(-0.0047073 0.0105176 -0.00122714 0.00707594 -0.000262818 -0.000696285)
(0.00219195 0.0104107 -0.00137608 -0.00606875 -0.000172851 0.00102617)
(0.00980481 0.00401997 -0.000628109 -0.016906 -0.00013781 0.00253854)
(-0.0103222 0.00402838 -0.000213753 0.0153665 -0.000939597 -0.00162395)
(-0.00465679 0.00881247 -0.00106735 0.00584459 -0.000411902 -0.000492838)
(0.00158984 0.00883964 -0.0012268 -0.00442619 0.000153504 0.000988568)
(0.00716263 0.00405839 -0.000559401 -0.0140008 0.000673116 0.00232818)
(-0.00850816 0.00325194 -8.57085e-05 0.0114469 -0.00124415 -0.000918922)
(-0.0040021 0.00736148 -0.00078609 0.00456689 -0.000460829 -0.000204336)
(0.000806425 0.0074162 -0.000947338 -0.00301234 0.000343066 0.000818078)
(0.00512841 0.00334816 -0.000445604 -0.00987526 0.00113944 0.00175573)
(-0.00672205 0.00258241 3.10154e-05 0.00799081 -0.00128868 -0.000145474)
(-0.00337104 0.00593868 -0.000515762 0.00335152 -0.000438673 9.44742e-05)
(0.000208497 0.00602324 -0.000672883 -0.00181476 0.000421513 0.000605337)
(0.00327236 0.00274634 -0.000323005 -0.0063302 0.00130962 0.00106707)
(-0.00532263 0.00183961 0.000101581 0.00515424 -0.00115946 0.000551841)
(-0.00283653 0.00453573 -0.000325234 0.0023212 -0.000378364 0.000361662)
(-0.000232071 0.00467351 -0.000466509 -0.000892008 0.000408205 0.00040639)
(0.00185775 0.00212997 -0.000223321 -0.00346335 0.00126088 0.00042251)
(-0.00442047 0.00102048 0.000107304 0.0032798 -0.000902692 0.00111139)
(-0.00253795 0.00317866 -0.000246723 0.00155042 -0.000300884 0.000583589)
(-0.000530729 0.00334454 -0.000368918 -0.000239486 0.000306568 0.000250112)
(0.000971761 0.00149892 -0.000172241 -0.00145968 0.00101746 -9.83341e-05)
(-0.00455274 0.000598057 2.80986e-05 0.00236891 -0.00045624 0.00148917)
(-0.00313795 0.00183604 -0.000316156 0.00136277 -0.000157345 0.00073801)
(-0.000551828 0.00180206 -0.000471481 0.000184397 0.000115124 0.000142346)
(0.000861796 0.000751441 -0.000280702 -0.000535262 0.000482752 -0.000443155)
(-0.00744783 0.0110591 -0.000102547 0.0255544 0.000651247 -0.000558461)
(-0.00233507 0.00984724 -0.000376983 0.00600022 0.000123901 -0.00018427)
(0.00121168 0.00934393 -0.000423654 -0.00599438 -0.000623394 0.000311397)
(0.0057998 0.00953573 -0.000202889 -0.0244243 -0.00123059 0.000731511)
(-0.0131432 0.00402982 -0.00019804 0.017409 -0.000274321 -0.00108018)
(-0.0049513 0.0106004 -0.000775521 0.0070433 -0.00021215 -0.000323583)
(0.00228613 0.0104875 -0.000877582 -0.00589052 -0.000148341 0.000674954)
(0.0101527 0.00403838 -0.000416821 -0.01645 -8.74226e-05 0.00153159)
(-0.0107349 0.00404998 -0.000157074 0.0151789 -0.000662151 -0.000859695)
(-0.00490771 0.00886061 -0.000730669 0.00584981 -0.00030376 -0.000186496)
(0.00166635 0.00888759 -0.000840882 -0.00428636 9.36017e-05 0.000709185)
(0.00746779 0.00407342 -0.000399728 -0.0136675 0.000461086 0.00149325)
(-0.00882707 0.00324682 -8.06748e-05 0.0113737 -0.000881286 -0.000417381)
(-0.00421357 0.00735013 -0.000567464 0.00459835 -0.000335981 1.68763e-05)
(0.000829381 0.00740784 -0.000675889 -0.00290018 0.000253156 0.000637731)
(0.00532795 0.00334544 -0.000326632 -0.00964931 0.000816128 0.00118581)
(-0.00694042 0.00255297 -7.8715e-07 0.00801791 -0.000936627 0.00010661)
(-0.00354294 0.00588146 -0.000385015 0.00340842 -0.000321376 0.000237389)
(0.00018191 0.00597575 -0.000487537 -0.0017303 0.000332738 0.000521567)
(0.00335808 0.00273396 -0.000236541 -0.00619692 0.000979964 0.000761413)
(-0.00545708 0.00179104 5.20068e-05 0.00526032 -0.000866876 0.000606077)
(-0.0029731 0.00445486 -0.000249878 0.00239474 -0.000279915 0.000443923)
(-0.00029901 0.00461209 -0.000339948 -0.000830696 0.000337211 0.000406262)
(0.00184348 0.00211868 -0.0001601 -0.00340181 0.000978073 0.000339701)
(-0.00448264 0.000958866 5.55745e-05 0.00344889 -0.000696798 0.0010211)
(-0.00264767 0.00310175 -0.000207455 0.00163326 -0.000224192 0.000623756)
(-0.000639507 0.00329371 -0.00028606 -0.000196271 0.000262508 0.000325712)
(0.000863531 0.00149551 -0.000126662 -0.00144308 0.000813801 2.3325e-06)
(-0.00456332 0.000567365 -2.61971e-05 0.00255605 -0.000370776 0.00130745)
(-0.00325295 0.00179247 -0.00031387 0.00145925 -0.000121127 0.000764505)
(-0.000737946 0.00176845 -0.000421759 0.000215354 0.000102222 0.000308244)
(0.000655161 0.000751832 -0.00023758 -0.000554151 0.000395634 -0.000167641)
(-0.0075917 0.0111074 -5.26191e-05 0.0255692 0.000227839 -0.000264204)
(-0.00240606 0.00981298 -0.000214981 0.00601609 -5.27105e-06 -7.11989e-05)
(0.00122936 0.0092838 -0.000244307 -0.00592685 -0.000371623 0.000196831)
(0.00589268 0.00951927 -0.000119072 -0.0243282 -0.000647512 0.000417036)
(-0.0134414 0.00402391 -0.00010883 0.0172043 -0.000234576 -0.000492749)
(-0.00511335 0.0106132 -0.000463184 0.00702956 -0.000166632 -9.91975e-05)
(0.00232294 0.0104952 -0.000529067 -0.00574178 -0.000109862 0.000448555)
(0.0103521 0.00403309 -0.00025644 -0.0161347 -3.57174e-05 0.000899466)
(-0.0110342 0.00406556 -9.69631e-05 0.0150418 -0.000459167 -0.000329848)
(-0.00508526 0.00890142 -0.000467244 0.00585705 -0.000213712 1.62075e-05)
(0.00169336 0.00893076 -0.000539206 -0.00414974 5.62735e-05 0.000509503)
(0.00766031 0.00409106 -0.000260111 -0.0133925 0.000314642 0.000915268)
(-0.00908576 0.00326384 -5.62699e-05 0.0113108 -0.000594626 -2.44337e-05)
(-0.00437559 0.00739276 -0.000381513 0.00462791 -0.000228773 0.000173812)
(0.000830701 0.00745558 -0.000450613 -0.00278663 0.00017401 0.000494416)
(0.00546804 0.00337096 -0.00021811 -0.00944005 0.000556206 0.000749968)
(-0.00714083 0.00256306 -8.24906e-06 0.00802948 -0.000638017 0.000343453)
(-0.00368251 0.00591188 -0.000271105 0.0034582 -0.000218106 0.000345497)
(0.000155766 0.00601541 -0.000334619 -0.00164317 0.00023909 0.000443344)
(0.00343044 0.00276174 -0.000160027 -0.0060598 0.000683377 0.000496538)
(-0.00560117 0.00178868 2.41527e-05 0.00533091 -0.000604703 0.000707818)
(-0.00308993 0.00446905 -0.000187945 0.00245745 -0.000192642 0.000512773)
(-0.000350497 0.00464098 -0.00024231 -0.000768518 0.000249121 0.000390779)
(0.00184838 0.00214624 -0.000110237 -0.00332493 0.000699324 0.000235379)
(-0.00457667 0.000942634 2.03087e-05 0.00356207 -0.000502002 0.00102374)
(-0.00274843 0.00310383 -0.000175525 0.00170133 -0.000158208 0.000667521)
(-0.000720401 0.00331244 -0.000222703 -0.000153805 0.000197022 0.000369304)
(0.000802269 0.00152059 -9.45465e-05 -0.00140624 0.000594241 3.60612e-05)
(-0.00462751 0.00055953 -5.74667e-05 0.0026809 -0.0002753 0.00124207)
(-0.00336436 0.00179127 -0.000289832 0.00153532 -8.78612e-05 0.000798451)
(-0.000871787 0.00176944 -0.000358584 0.000248304 7.61587e-05 0.000415105)
(0.000528472 0.000763092 -0.000194361 -0.000548925 0.000291315 -1.006e-05)
(-0.00767303 0.0111057 -2.36279e-05 0.0255532 4.18173e-05 -0.0001011)
(-0.00244939 0.00975647 -0.000115519 0.00602752 -4.67188e-05 -1.01179e-05)
(0.00123466 0.0092094 -0.000133035 -0.00587093 -0.000212681 0.000128074)
(0.0059367 0.0094731 -6.55296e-05 -0.0242192 -0.000323594 0.00023579)
(-0.0136197 0.00400758 -5.23573e-05 0.017091 -0.000182181 -0.000153528)
(-0.00521426 0.0105938 -0.000259549 0.00703073 -0.000120739 2.66308e-05)
(0.00233339 0.0104726 -0.000299896 -0.00563151 -7.31592e-05 0.000307817)
(0.0104544 0.00401956 -0.000146864 -0.0159277 -5.43377e-06 0.000523172)
(-0.0112275 0.00406985 -5.13903e-05 0.0149614 -0.000304383 -9.76937e-07)
(-0.00520016 0.00891929 -0.000277487 0.00587004 -0.000141634 0.000137114)
(0.00169866 0.00895133 -0.000322064 -0.00404294 3.33282e-05 0.000377072)
(0.00776933 0.00409997 -0.000155767 -0.0131984 0.000207064 0.000550377)
(-0.00926347 0.00327727 -3.15659e-05 0.0112711 -0.000380612 0.000239372)
(-0.00448477 0.00742962 -0.000236529 0.00465406 -0.000146197 0.000272554)
(0.000824035 0.00749713 -0.00027856 -0.00269409 0.000112026 0.000392317)
(0.00555244 0.00339337 -0.000133613 -0.00928099 0.000358864 0.000456593)
(-0.0072881 0.002577 -5.35012e-06 0.0080331 -0.00040844 0.000522558)
(-0.00377973 0.00595156 -0.00017557 0.00349615 -0.000138319 0.000417974)
(0.000135017 0.00606225 -0.000213337 -0.0015697 0.000157894 0.000381094)
(0.00347802 0.00279012 -9.96006e-05 -0.00594478 0.000444788 0.000301465)
(-0.00571559 0.00179596 1.18512e-05 0.00536952 -0.00039364 0.000809175)
(-0.00317382 0.00450073 -0.000130277 0.00250201 -0.000123755 0.000563838)
(-0.000385624 0.00468296 -0.000161876 -0.000714853 0.000166919 0.000370297)
(0.00185563 0.00217519 -7.07551e-05 -0.0032508 0.00046158 0.000140592)
(-0.0046609 0.00093895 4.32022e-06 0.00362553 -0.000335143 0.00106701)
(-0.00282332 0.0031229 -0.00013433 0.00174735 -0.000104246 0.000705537)
(-0.000773657 0.00334235 -0.00016153 -0.000116871 0.000132644 0.000389207)
(0.00076879 0.00154532 -6.62028e-05 -0.00136191 0.000397054 3.1135e-05)
(-0.00469683 0.000556456 -5.77787e-05 0.00275522 -0.000189067 0.00124817)
(-0.00344965 0.00179853 -0.000230915 0.00158716 -5.97445e-05 0.000832382)
(-0.000957418 0.00177702 -0.00027271 0.0002781 5.058e-05 0.000473078)
(0.000456268 0.000772513 -0.000143579 -0.000529999 0.000195858 5.8635e-05)
(-0.00771569 0.0110921 -8.98467e-06 0.0255324 -1.59384e-05 -1.63849e-05)
(-0.00247397 0.0097099 -5.53105e-05 0.00603562 -4.22858e-05 2.0745e-05)
(0.00123508 0.00915165 -6.45739e-05 -0.00583103 -0.000108554 8.92194e-05)
(0.00595512 0.00943175 -3.20247e-05 -0.0241322 -0.000145542 0.00013745)
(-0.013718 0.00399202 -2.1557e-05 0.0170326 -0.000115568 2.75504e-05)
(-0.00527242 0.0105691 -0.000128656 0.0070372 -7.33095e-05 9.19412e-05)
(0.00233385 0.0104459 -0.000150408 -0.005559 -4.13117e-05 0.000226305)
(0.0105021 0.00400681 -7.40666e-05 -0.0158017 5.08624e-06 0.000314379)
(-0.0113404 0.00406841 -2.32252e-05 0.0149203 -0.000175069 0.000182916)
(-0.00526808 0.00892279 -0.000143914 0.00588325 -8.11001e-05 0.000202679)
(0.00169667 0.00895694 -0.000168164 -0.0039715 1.78016e-05 0.0002971)
(0.00782582 0.0041027 -8.12039e-05 -0.0130768 0.000118744 0.000340036)
(-0.00937154 0.00328423 -1.47071e-05 0.0112506 -0.000212817 0.000394675)
(-0.00455085 0.00745101 -0.000126776 0.00467392 -8.13515e-05 0.000328414)
(0.000816797 0.00752186 -0.000149372 -0.00263083 6.25709e-05 0.000327885)
(0.00559823 0.00340719 -7.08701e-05 -0.00917743 0.000201588 0.000280355)
(-0.00738143 0.00258626 -2.20584e-06 0.00803421 -0.000227698 0.000636451)
(-0.00383973 0.00597912 -9.73769e-05 0.0035215 -7.63989e-05 0.000461359)
(0.000121008 0.00609453 -0.000117378 -0.00151826 8.93396e-05 0.00033911)
(0.00350522 0.00280925 -5.35948e-05 -0.00586507 0.00025028 0.000177131)
(-0.00579154 0.00180197 5.4858e-06 0.00538807 -0.000221714 0.000883495)
(-0.00322656 0.00452507 -7.62494e-05 0.00252966 -6.90127e-05 0.000597109)
(-0.000407085 0.00471373 -9.27203e-05 -0.000676528 9.50606e-05 0.000353152)
(0.00186105 0.00219511 -3.92657e-05 -0.00319505 0.000261437 7.23674e-05)
(-0.00472072 0.000938007 -1.33458e-06 0.00365672 -0.000192035 0.00111122)
(-0.00287136 0.00313849 -8.41565e-05 0.00177456 -5.92703e-05 0.000733023)
(-0.000805038 0.00336438 -9.82383e-05 -9.0162e-05 7.55575e-05 0.000396327)
(0.000752073 0.00156198 -3.94481e-05 -0.00132509 0.00022625 1.4661e-05)
(-0.00475033 0.00055517 -4.12025e-05 0.00279335 -0.000110811 0.00127377)
(-0.00350537 0.001805 -0.000147405 0.00161778 -3.47456e-05 0.00085844)
(-0.00100686 0.00178295 -0.000169904 0.000300424 2.85182e-05 0.000500823)
(0.000419113 0.000778224 -8.81283e-05 -0.000509693 0.000111922 8.17992e-05)
(-0.00773376 0.0110824 -2.19913e-06 0.0255195 -1.14659e-05 1.94372e-05)
(-0.00248506 0.00968483 -1.62374e-05 0.00603989 -1.62006e-05 3.35005e-05)
(0.00123449 0.00912121 -1.91254e-05 -0.00581033 -3.32001e-05 7.16684e-05)
(0.00596136 0.00940877 -9.51656e-06 -0.0240851 -4.10532e-05 9.43001e-05)
(-0.0137612 0.00398302 -5.65002e-06 0.0170079 -3.95752e-05 0.000105402)
(-0.00529893 0.0105536 -3.85598e-05 0.00704209 -2.45935e-05 0.000119395)
(0.0023324 0.0104296 -4.54124e-05 -0.00552305 -1.33046e-05 0.000188923)
(0.0105203 0.00399947 -2.24175e-05 -0.0157418 3.09564e-06 0.000221485)
(-0.0113919 0.00406635 -6.52935e-06 0.0149034 -5.7275e-05 0.000264168)
(-0.00529951 0.00892181 -4.4262e-05 0.0058913 -2.64478e-05 0.000231009)
(0.00169428 0.00895708 -5.19378e-05 -0.00393591 5.61934e-06 0.00025953)
(0.00784946 0.00410299 -2.50367e-05 -0.0130185 3.88076e-05 0.000244349)
(-0.00942198 0.00328682 -4.22744e-06 0.0112423 -6.85889e-05 0.000465419)
(-0.00458184 0.00746003 -3.97206e-05 0.00468464 -2.61301e-05 0.000353248)
(0.000812491 0.00753258 -4.68285e-05 -0.00259901 2.01186e-05 0.000296886)
(0.00561805 0.0034134 -2.20669e-05 -0.00912684 6.50856e-05 0.000198304)
(-0.00742596 0.00259046 -5.93413e-07 0.00803459 -7.32242e-05 0.000690734)
(-0.00386816 0.00599223 -3.11078e-05 0.00353417 -2.4436e-05 0.00048142)
(0.000114004 0.00610994 -3.73515e-05 -0.00149209 2.88769e-05 0.000318193)
(0.00351734 0.00281838 -1.68428e-05 -0.00582484 8.07795e-05 0.000117283)
(-0.00582863 0.00180483 1.50569e-06 0.00539523 -7.166e-05 0.000921683)
(-0.00325178 0.00453717 -2.51052e-05 0.00254277 -2.21896e-05 0.000613358)
(-0.000417207 0.00472886 -3.02006e-05 -0.000656789 3.0798e-05 0.000343718)
(0.00186377 0.00220474 -1.25843e-05 -0.00316571 8.4584e-05 3.73252e-05)
(-0.00475078 0.000937583 -1.2185e-06 0.00366878 -6.2665e-05 0.00113703)
(-0.00289452 0.00314635 -2.86904e-05 0.00178698 -1.9263e-05 0.000747216)
(-0.000819457 0.00337513 -3.30222e-05 -7.62641e-05 2.44689e-05 0.000398125)
(0.000745229 0.00156987 -1.31573e-05 -0.0013048 7.33714e-05 2.83495e-06)
(-0.00477791 0.0005548 -1.49911e-05 0.00280849 -3.68184e-05 0.00129227)
(-0.00353238 0.00180857 -5.05958e-05 0.00163177 -1.14583e-05 0.000872267)
(-0.00102939 0.00178573 -5.76816e-05 0.00031235 9.22228e-06 0.000511457)
(0.000403517 0.000780623 -2.97737e-05 -0.000497371 3.63549e-05 8.68801e-05)
)
;

boundaryField
{
    interface
    {
        type            calculated;
        value           nonuniform List<symmTensor> 
192
(
(-0.0252642 -3.96033e-06 0.000320544 0.0395522 0.0059254 -0.00344445)
(-0.0117441 3.00789e-06 0.000539093 0.0210254 -0.00178132 -0.00516706)
(-0.0125878 -4.22981e-06 0.000641595 0.0200976 -0.00107645 -0.00298578)
(-0.00974013 -2.96919e-05 0.000690773 0.0145719 -0.00160818 -0.00173454)
(-0.00771626 -7.98663e-05 0.00071028 0.0101285 -0.00149899 -0.000339635)
(-0.00593003 -0.000161556 0.000704163 0.0063413 -0.00130776 0.000754098)
(-0.00490818 -0.000300865 0.000666555 0.00394936 -0.00102713 0.00160843)
(-0.00437972 -0.00051928 0.000575739 0.00261254 -0.000529394 0.00224052)
(-0.0256065 1.74532e-05 0.000222691 0.0386864 0.00371813 -0.00227001)
(-0.0136483 3.10596e-05 0.000377195 0.0225439 -0.000569542 -0.00405341)
(-0.0127824 2.53888e-05 0.000447859 0.0200498 -0.00161698 -0.00290866)
(-0.010139 -9.8147e-06 0.000480361 0.0146407 -0.00209621 -0.00150656)
(-0.00799944 -7.62835e-05 0.000490095 0.0100121 -0.00210995 -0.00011899)
(-0.00625374 -0.000182461 0.000479962 0.00621422 -0.00186256 0.00104946)
(-0.00522844 -0.000359662 0.000446525 0.00382278 -0.0014213 0.00194268)
(-0.00464325 -0.000615305 0.00038114 0.00254166 -0.000746571 0.00257501)
(-0.0265687 2.2515e-05 0.000155808 0.0390501 0.00187946 -0.00132443)
(-0.0142597 3.84464e-05 0.000263413 0.0218231 -0.000344129 -0.00253896)
(-0.013256 3.3418e-05 0.00030896 0.0197673 -0.00118556 -0.00204557)
(-0.0103957 -6.21955e-06 0.000327193 0.0145384 -0.00162833 -0.00115512)
(-0.00807413 -8.2047e-05 0.000330291 0.0100311 -0.00171505 -0.000162823)
(-0.00621452 -0.000202988 0.000320741 0.00634419 -0.00155919 0.000734091)
(-0.00512346 -0.000400571 0.000297584 0.00406613 -0.00121618 0.00144665)
(-0.00437605 -0.000668901 0.000257961 0.00277401 -0.000622129 0.00191775)
(-0.0271774 2.26127e-05 0.000111882 0.0392368 0.000821533 -0.000693244)
(-0.0147451 3.86128e-05 0.000189756 0.021281 -0.000303774 -0.00135505)
(-0.0137319 3.34511e-05 0.000221329 0.0194538 -0.00082429 -0.00110333)
(-0.0107569 -8.85199e-06 0.000232393 0.0143993 -0.00113529 -0.000559629)
(-0.00830919 -9.05368e-05 0.000233029 0.0100391 -0.0012302 0.000100174)
(-0.00634723 -0.000220531 0.00022555 0.00647148 -0.00115397 0.0007338)
(-0.00518336 -0.000430017 0.000210203 0.00429454 -0.000936385 0.00125692)
(-0.0043364 -0.000703856 0.000185096 0.00301463 -0.000508693 0.00160893)
(-0.0274936 2.17102e-05 7.94291e-05 0.0392785 0.000286834 -0.000328282)
(-0.0150652 3.69157e-05 0.000135438 0.0209667 -0.000273981 -0.000622919)
(-0.0140704 3.09002e-05 0.000157846 0.0192373 -0.000572107 -0.000439797)
(-0.0110444 -1.32815e-05 0.000164912 0.014285 -0.000761916 -7.23813e-05)
(-0.00852669 -9.85612e-05 0.000164901 0.0100293 -0.000833367 0.000381283)
(-0.00649625 -0.000234283 0.000159632 0.00654639 -0.000801943 0.000834636)
(-0.0052794 -0.000451327 0.000149695 0.00443595 -0.000674964 0.00122586)
(-0.00435997 -0.00072827 0.000133289 0.00316561 -0.000379918 0.00148804)
(-0.0276456 2.08293e-05 5.33143e-05 0.0392574 5.2102e-05 -0.00012602)
(-0.0152613 3.50963e-05 9.13407e-05 0.0207936 -0.000219813 -0.000199469)
(-0.0142909 2.80883e-05 0.000106534 0.019111 -0.000381592 -2.54024e-05)
(-0.0112445 -1.74473e-05 0.000111126 0.0142124 -0.000487996 0.00026051)
(-0.00869086 -0.000104976 0.000111018 0.0100152 -0.0005332 0.000604121)
(-0.00662136 -0.000244326 0.000107613 0.00658157 -0.000522104 0.000954658)
(-0.00537286 -0.000466268 0.000101412 0.00450996 -0.000451779 0.00126885)
(-0.00441564 -0.000745132 9.08779e-05 0.00325126 -0.000262249 0.00148179)
(-0.0277125 2.02578e-05 3.057e-05 0.0392231 -2.04895e-05 -2.11912e-05)
(-0.0153702 3.3768e-05 5.25739e-05 0.0207032 -0.000141817 2.61607e-05)
(-0.0144194 2.59694e-05 6.13451e-05 0.019045 -0.000220782 0.000206209)
(-0.0113666 -2.04687e-05 6.39773e-05 0.0141731 -0.000273566 0.000457292)
(-0.00879555 -0.000109373 6.39036e-05 0.0100045 -0.000297693 0.000747951)
(-0.00670564 -0.000250932 6.20112e-05 0.00659519 -0.000294528 0.00104667)
(-0.00544012 -0.000475913 5.84344e-05 0.00454364 -0.000259572 0.00132103)
(-0.00446385 -0.000755638 5.21308e-05 0.00329304 -0.000154359 0.00150913)
(-0.0277364 1.98943e-05 9.8653e-06 0.0392009 -1.45776e-05 2.30358e-05)
(-0.0154176 3.29562e-05 1.70112e-05 0.0206644 -4.89071e-05 0.000122948)
(-0.0144773 2.47614e-05 1.98401e-05 0.0190173 -7.24681e-05 0.000308356)
(-0.011423 -2.20609e-05 2.06854e-05 0.0141565 -8.83333e-05 0.000546935)
(-0.00884497 -0.000111598 2.06608e-05 0.00999908 -9.58587e-05 0.000816814)
(-0.00674649 -0.000254379 2.00564e-05 0.00659924 -9.53085e-05 0.00109465)
(-0.00547313 -0.000481085 1.88135e-05 0.0045556 -8.48505e-05 0.00135274)
(-0.00448825 -0.000760038 1.65512e-05 0.00330867 -5.14279e-05 0.0015311)
(-0.00698974 0.00824393 -0.00039261 0.0270757 -8.84649e-05 -0.0139709)
(-0.0123748 0.00375172 -0.000676986 0.0149725 -0.000139289 -0.00215076)
(-0.0104875 0.00511861 -0.000816505 0.0153599 -0.000147765 -0.0035355)
(-0.00904206 0.00458944 -0.000896653 0.0113249 -0.000138133 -0.00171591)
(-0.00732412 0.00405619 -0.00095127 0.00816384 -0.00013495 -0.000700619)
(-0.00595251 0.00316668 -0.000994389 0.00535453 -0.000150166 0.000277524)
(-0.00504214 0.00210269 -0.00104674 0.00350572 -0.000186829 0.000893853)
(-0.00518456 0.00111504 -0.00116647 0.00246382 -0.000231715 0.0016467)
(-0.0025215 0.00654381 -0.000253082 0.0064886 -7.09329e-05 -0.00314891)
(-0.00534928 0.00978464 -0.000461836 0.00568277 -0.000129944 -0.000663673)
(-0.00553223 0.010337 -0.000549817 0.00572975 -0.00015093 -0.000494149)
(-0.00500674 0.00963694 -0.000593275 0.00447691 -0.000135892 5.21208e-05)
(-0.00436543 0.008405 -0.000623163 0.00338005 -0.000112111 0.000392399)
(-0.00378235 0.00676043 -0.000654767 0.00237644 -9.68362e-05 0.000686989)
(-0.00340127 0.00490231 -0.00071046 0.00166767 -9.64543e-05 0.000902447)
(-0.00390283 0.00270156 -0.000867901 0.00141809 -0.00010078 0.00139746)
(0.00132122 0.00594365 -0.000196189 -0.00781282 -4.89487e-05 0.00387661)
(0.00246449 0.00949895 -0.00038473 -0.0044607 -0.000108941 0.000897289)
(0.0018192 0.0103272 -0.000468205 -0.00417928 -0.000139069 0.00119008)
(0.00107517 0.00970045 -0.000506919 -0.00292738 -0.000128305 0.000894773)
(0.000466214 0.00851434 -0.000530928 -0.00197642 -0.000100261 0.000693015)
(3.53731e-05 0.00692539 -0.000558579 -0.00118345 -7.38799e-05 0.000461375)
(-0.000250855 0.00507079 -0.00061314 -0.000599314 -5.74543e-05 0.000259337)
(-0.000161091 0.00267395 -0.000769707 -8.08367e-05 -4.85485e-05 -0.000152206)
(0.00550143 0.0067035 -0.000183574 -0.0272446 -4.40167e-05 0.0141106)
(0.00951824 0.00347953 -0.00038308 -0.013786 -0.000107987 0.00245845)
(0.00714932 0.00515334 -0.000478833 -0.0138894 -0.000141231 0.00414982)
(0.00546836 0.00472446 -0.000525028 -0.0097903 -0.000132462 0.00257488)
(0.00370777 0.00426162 -0.000551298 -0.00667059 -0.000102593 0.00169201)
(0.00238228 0.00347585 -0.000579292 -0.00395684 -7.05458e-05 0.000776399)
(0.00154896 0.00251307 -0.000632571 -0.0020826 -4.07999e-05 8.28036e-05)
(0.00154016 0.00120901 -0.000779528 -0.00097908 -8.95788e-06 -0.000655464)
(0.0226011 4.51898e-05 3.71453e-05 -0.0378771 -0.00708123 0.00362635)
(0.00945149 9.20884e-05 6.74428e-05 -0.0202498 0.00127265 0.00578697)
(0.00975219 0.000115571 7.22192e-05 -0.0188104 0.000737624 0.00397727)
(0.00667572 0.00010741 7.2156e-05 -0.0131028 0.00138721 0.00294487)
(0.00454447 8.47877e-05 8.03521e-05 -0.00858633 0.00137474 0.00166905)
(0.00273845 6.04805e-05 0.000102439 -0.0047645 0.0012687 0.000598169)
(0.00163408 2.29875e-05 0.00014028 -0.00214624 0.000995208 -0.000295125)
(0.0013895 -0.000126313 0.000188816 -0.000899545 0.000395581 -0.000999187)
(0.0223447 2.18799e-05 -1.81895e-05 -0.0364861 -0.00483414 0.00257193)
(0.0111415 5.06038e-05 -2.91922e-05 -0.0219882 -7.77321e-05 0.00488735)
(0.00960009 6.90416e-05 -3.78467e-05 -0.0188308 0.00125286 0.00407582)
(0.00666818 6.97207e-05 -4.21234e-05 -0.0131767 0.00193454 0.00285278)
(0.00438147 6.23892e-05 -3.66053e-05 -0.00841317 0.00209915 0.00155177)
(0.00257795 5.59709e-05 -1.98858e-05 -0.00451663 0.00196189 0.000397471)
(0.00144618 4.06814e-05 6.218e-06 -0.00182733 0.00155708 -0.000525818)
(0.00127692 -9.02332e-05 4.17794e-05 -0.00066324 0.000784679 -0.00124126)
(0.0231492 1.1471e-05 -2.63466e-05 -0.0367101 -0.00272875 0.00156468)
(0.0117373 2.99582e-05 -4.08619e-05 -0.0211954 -0.000144337 0.00316165)
(0.0100804 4.61236e-05 -4.46789e-05 -0.0184248 0.000909045 0.00289594)
(0.00694249 5.41227e-05 -4.32927e-05 -0.0129473 0.00153108 0.00214939)
(0.00445521 5.91951e-05 -3.48109e-05 -0.00827844 0.00176122 0.00124055)
(0.00250861 6.60327e-05 -1.91937e-05 -0.0044647 0.00170844 0.000385964)
(0.00126297 6.36859e-05 2.2734e-07 -0.00183332 0.00140935 -0.000305852)
(0.000920042 -4.79195e-05 1.88916e-05 -0.000677447 0.000711012 -0.000755565)
(0.0236121 7.48562e-06 -2.33259e-05 -0.0367531 -0.00144793 0.000895363)
(0.0121637 2.06833e-05 -3.50706e-05 -0.0205666 -5.75465e-05 0.0018714)
(0.0104792 3.57911e-05 -3.48252e-05 -0.0179657 0.000627432 0.0018112)
(0.00721892 4.94025e-05 -2.98646e-05 -0.0126495 0.00108127 0.00140504)
(0.0045902 6.40383e-05 -2.03305e-05 -0.00811324 0.00129478 0.000841424)
(0.00252183 8.09215e-05 -7.04818e-06 -0.00440204 0.00130173 0.00027637)
(0.00116668 8.59949e-05 6.79433e-06 -0.0018307 0.00111151 -0.000184505)
(0.000710335 -1.37409e-05 1.64298e-05 -0.000717834 0.000577506 -0.0004287)
(0.0238018 6.11697e-06 -1.73209e-05 -0.0366536 -0.000731494 0.000498137)
(0.0124239 1.72438e-05 -2.53422e-05 -0.0201657 1.02066e-05 0.001066)
(0.010734 3.25459e-05 -2.29715e-05 -0.0176166 0.00043551 0.00106384)
(0.00741257 5.02208e-05 -1.68382e-05 -0.0123873 0.000734191 0.00083521)
(0.00470141 7.13158e-05 -8.1887e-06 -0.00794664 0.000895051 0.000491756)
(0.00254938 9.45399e-05 1.74276e-06 -0.00431349 0.000922623 0.000133747)
(0.00111298 0.00010408 1.02724e-05 -0.00179079 0.000807137 -0.000153055)
(0.000582531 1.13771e-05 1.48456e-05 -0.000719861 0.000425334 -0.000249508)
(0.0238547 5.9081e-06 -1.12232e-05 -0.0365148 -0.000347035 0.000271375)
(0.0125685 1.66601e-05 -1.59335e-05 -0.0199165 3.8517e-05 0.000591557)
(0.0108824 3.27877e-05 -1.31014e-05 -0.0173816 0.000291351 0.000597387)
(0.00753171 5.32613e-05 -7.6044e-06 -0.0121952 0.000474515 0.000455424)
(0.00477544 7.82522e-05 -9.20982e-07 -0.00780896 0.000580847 0.000235693)
(0.00257338 0.000104998 5.70785e-06 -0.0042255 0.000607014 4.57323e-06)
(0.00108607 0.000116742 1.04877e-05 -0.0017369 0.000538889 -0.000170229)