/*--------------------------------*- C++ -*----------------------------------*\
| =========                 |                                                 |
| \\      /  F ield         | foam-extend: Open Source CFD                    |
|  \\    /   O peration     | Version:     3.1                                |
|   \\  /    A nd           | Web:         http://www.extend-project.de       |
|    \\/     M anipulation  |                                                 |
\*---------------------------------------------------------------------------*/
FoamFile
{
    version     2.0;
    format      ascii;
    class       pointVectorField;
    location    "2.5";
    object      pointD;
}
// * * * * * * * * * * * * * * * * * * * * * * * * * * * * * * * * * * * * * //

dimensions      [0 1 0 0 0 0 0];

internalField   nonuniform List<vector> 
405
(
(0 0 0)
(0 0 0)
(0 0 0)
(0 0 0)
(0 0 0)
(0.000926305 0.00097666 0.000409833)
(0.000571179 0.000333108 0.000256286)
(0.00044292 -2.04929e-05 -2.10603e-05)
(0.000506823 -0.000381856 -0.000305886)
(0.000776745 -0.0010228 -0.00048294)
(0.00185106 0.00143336 0.00028124)
(0.00156027 0.000582961 0.000172799)
(0.00140865 -2.51234e-05 -3.86174e-05)
(0.00145577 -0.000637604 -0.000263234)
(0.00163624 -0.00149448 -0.000410348)
(0.00309203 0.00189903 0.000169363)
(0.00281762 0.000817635 0.00010133)
(0.00266897 -3.72693e-05 -5.50504e-05)
(0.00268953 -0.000897372 -0.000224557)
(0.00282669 -0.00199384 -0.000336282)
(0.00448698 0.00221942 1.91621e-05)
(0.0042528 0.000980486 1.28452e-05)
(0.00411381 -5.95206e-05 -6.77042e-05)
(0.00411004 -0.00110414 -0.000161476)
(0.00419034 -0.00235771 -0.000212718)
(0.00598613 0.00242956 -0.00012031)
(0.00578545 0.00108514 -6.83005e-05)
(0.00565631 -8.98787e-05 -7.82681e-05)
(0.00563389 -0.00126703 -0.000100644)
(0.00567084 -0.00262076 -9.17721e-05)
(0.00752198 0.00254488 -0.000238995)
(0.00734786 0.00114091 -0.000138037)
(0.00722767 -0.000125101 -8.87869e-05)
(0.00719223 -0.00138919 -4.93557e-05)
(0.00719829 -0.00279276 1.38069e-05)
(0.00905444 0.00260224 -0.000330512)
(0.00889398 0.00116377 -0.00019636)
(0.00877625 -0.000160398 -0.000101738)
(0.0087322 -0.00147942 -1.37845e-05)
(0.00872349 -0.00290114 9.00828e-05)
(0.0105791 0.00262493 -0.000384604)
(0.0103948 0.00117265 -0.000234954)
(0.0102442 -0.000186534 -0.000114328)
(0.0102081 -0.00154406 -8.74595e-07)
(0.010212 -0.00297353 0.000120576)
(0 0 0)
(0 0 0)
(0 0 0)
(0 0 0)
(0 0 0)
(0.000999347 0.000923574 0.000237231)
(0.000658796 0.000292103 0.000147435)
(0.000555485 -1.29784e-05 -1.77174e-05)
(0.000606648 -0.000318034 -0.000191864)
(0.000864935 -0.000942803 -0.000302092)
(0.0019286 0.00147335 0.000194589)
(0.00165711 0.000613935 0.000116628)
(0.00153523 -2.19389e-05 -3.431e-05)
(0.00156936 -0.000659205 -0.000196312)
(0.00173774 -0.00152477 -0.000303063)
(0.00312608 0.00194393 0.000106305)
(0.00287575 0.000855175 6.08536e-05)
(0.00275692 -3.49289e-05 -4.75622e-05)
(0.00276643 -0.000928363 -0.000167455)
(0.00288816 -0.00203102 -0.000245408)
(0.00447387 0.00227202 -4.68213e-06)
(0.004261 0.00102444 -4.45958e-06)
(0.00414907 -5.55868e-05 -5.83573e-05)
(0.00413691 -0.00113896 -0.000123831)
(0.00420468 -0.00239995 -0.000156685)
(0.00592231 0.00247907 -0.000113613)
(0.00574092 0.001128 -6.76983e-05)
(0.00563635 -8.26181e-05 -6.79342e-05)
(0.00560755 -0.00129481 -7.90283e-05)
(0.00563375 -0.002654 -6.44839e-05)
(0.0074135 0.00258823 -0.000208383)
(0.00725622 0.00117988 -0.000123164)
(0.00715791 -0.000113665 -7.7997e-05)
(0.00711758 -0.00140534 -4.17366e-05)
(0.00711468 -0.00281215 1.62448e-05)
(0.00891072 0.00263616 -0.000281461)
(0.00876451 0.00119525 -0.000168699)
(0.00866585 -0.000145505 -9.04074e-05)
(0.0086189 -0.00148077 -1.88526e-05)
(0.00860341 -0.0029025 7.2467e-05)
(0.0104186 0.00265203 -0.000322714)
(0.0102474 0.00119823 -0.000197796)
(0.0101146 -0.000170148 -0.000103199)
(0.0100755 -0.00153569 -1.67752e-05)
(0.010073 -0.00296279 8.75352e-05)
(0 0 0)
(0 0 0)
(0 0 0)
(0 0 0)
(0 0 0)
(0.00105135 0.000932923 0.000123573)
(0.000692373 0.000291046 7.53507e-05)
(0.000583245 -1.03398e-05 -1.59232e-05)
(0.000639124 -0.000311672 -0.000113671)
(0.000910325 -0.00095115 -0.000173682)
(0.00198695 0.00146386 0.000105041)
(0.00169871 0.000613055 5.91181e-05)
(0.00157015 -1.82405e-05 -3.03938e-05)
(0.00161137 -0.000651522 -0.000127174)
(0.00179483 -0.00151255 -0.000187805)
(0.00316005 0.00193057 5.01164e-05)
(0.00290383 0.000858103 2.26823e-05)
(0.00278282 -3.0261e-05 -4.2134e-05)
(0.00279478 -0.000922286 -0.000114249)
(0.00292126 -0.00200983 -0.000157381)
(0.00447808 0.0022588 -2.39e-05)
(0.0042621 0.00102975 -2.26497e-05)
(0.00414949 -4.8882e-05 -5.18877e-05)
(0.00413783 -0.00113081 -8.82801e-05)
(0.00420742 -0.00237304 -0.000102312)
(0.00589214 0.00246834 -0.000100358)
(0.00571009 0.00113578 -6.83374e-05)
(0.0056059 -7.32497e-05 -6.07515e-05)
(0.00557605 -0.00128323 -5.96618e-05)
(0.00560122 -0.0026221 -4.13718e-05)
(0.00735073 0.00258212 -0.000169282)
(0.00719401 0.00118968 -0.000109552)
(0.00709694 -0.000101504 -7.01943e-05)
(0.00705456 -0.00138939 -3.5951e-05)
(0.00704868 -0.00277669 1.286e-05)
(0.00882043 0.00263703 -0.000223756)
(0.00867611 0.00120662 -0.000143603)
(0.00857937 -0.000130975 -8.19155e-05)
(0.00852957 -0.00146053 -2.39799e-05)
(0.00850939 -0.00286511 4.92448e-05)
(0.0103125 0.00265818 -0.00025222)
(0.0101443 0.00121073 -0.000164236)
(0.0100131 -0.000153793 -9.5423e-05)
(0.00996815 -0.00151176 -3.25174e-05)
(0.00995822 -0.0029233 4.81602e-05)
(0 0 0)
(0 0 0)
(0 0 0)
(0 0 0)
(0 0 0)
(0.00107613 0.000938954 5.73014e-05)
(0.000702703 0.000290956 3.47902e-05)
(0.000587085 -8.84794e-06 -1.36534e-05)
(0.00064605 -0.000308951 -6.60561e-05)
(0.000927949 -0.000955213 -9.55121e-05)
(0.00201316 0.00145317 4.41774e-05)
(0.00171184 0.000608927 2.31577e-05)
(0.00157559 -1.49428e-05 -2.58008e-05)
(0.00162076 -0.000641274 -7.90917e-05)
(0.00181511 -0.00149716 -0.000108156)
(0.00317557 0.00191164 8.57079e-06)
(0.00290969 0.000852975 -1.50151e-06)
(0.00278257 -2.49713e-05 -3.58817e-05)
(0.0027968 -0.000906838 -7.43762e-05)
(0.0029314 -0.00198106 -9.24698e-05)
(0.00447501 0.00223738 -4.01616e-05)
(0.00425313 0.0010254 -3.2606e-05)
(0.00413592 -4.12259e-05 -4.44371e-05)
(0.00412485 -0.001111 -6.00964e-05)
(0.00419905 -0.00233566 -5.99128e-05)
(0.00586714 0.00244871 -9.22628e-05)
(0.00568212 0.00113385 -6.47954e-05)
(0.0055745 -6.29568e-05 -5.23751e-05)
(0.00554397 -0.00126001 -4.32162e-05)
(0.0055707 -0.00257953 -2.18614e-05)
(0.00730369 0.00256765 -0.000140749)
(0.00714608 0.00119119 -9.46678e-05)
(0.00704659 -8.8578e-05 -6.09638e-05)
(0.0070025 -0.00136358 -2.95364e-05)
(0.00699561 -0.0027317 1.24975e-05)
(0.00875379 0.00263057 -0.000180142)
(0.00861048 0.0012121 -0.000119816)
(0.00851195 -0.000115661 -7.17493e-05)
(0.00845913 -0.00143288 -2.51051e-05)
(0.00843516 -0.0028194 3.40679e-05)
(0.0102329 0.00265979 -0.000200252)
(0.0100667 0.00122066 -0.000135219)
(0.00993291 -0.000136256 -8.5055e-05)
(0.0098817 -0.00148326 -3.81961e-05)
(0.00986488 -0.00287808 2.51808e-05)
(0 0 0)
(0 0 0)
(0 0 0)
(0 0 0)
(0 0 0)
(0.00108629 0.000940729 2.26261e-05)
(0.000703651 0.000290747 1.36031e-05)
(0.000583669 -7.64062e-06 -1.08951e-05)
(0.000643977 -0.000306354 -3.76798e-05)
(0.000932058 -0.000953694 -5.07641e-05)
(0.00202224 0.0014451 1.10498e-05)
(0.00171149 0.000605781 4.06869e-06)
(0.00156985 -1.18364e-05 -2.0647e-05)
(0.00161665 -0.000631948 -4.791e-05)
(0.00181788 -0.001483 -5.94243e-05)
(0.00317791 0.00189726 -1.35052e-05)
(0.00290387 0.000848343 -1.32202e-05)
(0.00277195 -1.97194e-05 -2.88817e-05)
(0.00278721 -0.000891667 -4.68282e-05)
(0.0029276 -0.0019561 -5.07386e-05)
(0.00446605 0.00222025 -4.60853e-05)
(0.00423813 0.00102092 -3.46465e-05)
(0.004117 -3.36585e-05 -3.60031e-05)
(0.00410617 -0.00109114 -3.93537e-05)
(0.00418422 -0.00230263 -3.14781e-05)
(0.00584436 0.00243225 -8.1352e-05)
(0.00565534 0.00113103 -5.7117e-05)
(0.00554464 -5.29907e-05 -4.27525e-05)
(0.00551361 -0.0012367 -2.99385e-05)
(0.00554217 -0.0025413 -8.31214e-06)
(0.00726633 0.00255453 -0.000115029)
(0.00710636 0.00119112 -7.84739e-05)
(0.00700451 -7.62959e-05 -5.01738e-05)
(0.00695922 -0.00133789 -2.27399e-05)
(0.00695223 -0.00269054 1.26502e-05)
(0.00870261 0.00262281 -0.000143139)
(0.00855832 0.00121532 -9.68402e-05)
(0.00845774 -0.000101256 -5.95338e-05)
(0.00840268 -0.00140565 -2.25648e-05)
(0.00837662 -0.00277671 2.45149e-05)
(0.0101711 0.00265738 -0.000157001)
(0.0100043 0.00122742 -0.000108047)
(0.00986756 -0.000119741 -7.1279e-05)
(0.00981185 -0.00145508 -3.62476e-05)
(0.0097909 -0.00283494 1.30448e-05)
(0 0 0)
(0 0 0)
(0 0 0)
(0 0 0)
(0 0 0)
(0.0010895 0.000940458 6.20919e-06)
(0.000701556 0.000290536 3.59616e-06)
(0.000578857 -6.60713e-06 -8.00852e-06)
(0.000639629 -0.000303982 -2.08857e-05)
(0.000930773 -0.000949988 -2.58636e-05)
(0.00202318 0.0014394 -3.68941e-06)
(0.00170637 0.000603941 -4.05561e-06)
(0.00156124 -9.08368e-06 -1.53247e-05)
(0.00160862 -0.00062448 -2.80718e-05)
(0.00181378 -0.0014713 -3.10557e-05)
(0.00317385 0.00188778 -2.07631e-05)
(0.00289415 0.000845579 -1.60926e-05)
(0.00275897 -1.5053e-05 -2.15932e-05)
(0.0027746 -0.000879446 -2.83525e-05)
(0.00291852 -0.00193688 -2.59547e-05)
(0.00445467 0.00220887 -4.24534e-05)
(0.00422219 0.00101824 -3.06034e-05)
(0.00409828 -2.70118e-05 -2.70992e-05)
(0.00408748 -0.00107493 -2.46202e-05)
(0.00416809 -0.00227725 -1.45451e-05)
(0.00582411 0.002421 -6.59385e-05)
(0.00563173 0.00112943 -4.5895e-05)
(0.00551878 -4.43788e-05 -3.24138e-05)
(0.00548742 -0.00121745 -1.9643e-05)
(0.00551737 -0.00251145 -7.1056e-07)
(0.00723637 0.00254507 -8.87571e-05)
(0.00707411 0.00119134 -6.06827e-05)
(0.00697047 -6.58475e-05 -3.83301e-05)
(0.00692443 -0.00131649 -1.62385e-05)
(0.00691762 -0.00265775 1.1661e-05)
(0.0086628 0.00261642 -0.000108206)
(0.00851713 0.00121775 -7.36173e-05)
(0.00841493 -8.91515e-05 -4.57779e-05)
(0.00835845 -0.00138279 -1.78861e-05)
(0.0083313 -0.00274196 1.77413e-05)
(0.0101228 0.00265431 -0.000117666)
(0.00995468 0.00123232 -8.15678e-05)
(0.00981559 -0.000105924 -5.51012e-05)
(0.00975706 -0.00143119 -2.95723e-05)
(0.00973383 -0.0027992 7.18691e-06)
(0 0 0)
(0 0 0)
(0 0 0)
(0 0 0)
(0 0 0)
(0.00108993 0.000939566 -9.21979e-08)
(0.000699103 0.000290389 -2.1297e-07)
(0.000574796 -5.80505e-06 -5.2114e-06)
(0.000635653 -0.000302121 -1.08766e-05)
(0.000928153 -0.000946283 -1.22969e-05)
(0.00202129 0.00143562 -7.3627e-06)
(0.00170086 0.000603007 -5.62636e-06)
(0.00155361 -6.93366e-06 -1.00808e-05)
(0.00160112 -0.000619107 -1.53482e-05)
(0.00180838 -0.00146266 -1.50555e-05)
(0.0031683 0.00188198 -1.83614e-05)
(0.00288505 0.000844237 -1.33511e-05)
(0.00274781 -1.14231e-05 -1.4303e-05)
(0.00276352 -0.00087072 -1.59191e-05)
(0.00290943 -0.0019234 -1.21016e-05)
(0.00444435 0.00220201 -3.18354e-05)
(0.00420884 0.00101703 -2.24388e-05)
(0.00408313 -2.18908e-05 -1.80559e-05)
(0.00407229 -0.00106331 -1.41811e-05)
(0.00415443 -0.0022596 -5.64721e-06)
(0.00580814 0.00241413 -4.63684e-05)
(0.00561338 0.00112892 -3.20236e-05)
(0.00549895 -3.78206e-05 -2.17271e-05)
(0.00546738 -0.00120353 -1.17415e-05)
(0.00549823 -0.00249053 2.14913e-06)
(0.00721408 0.00253907 -6.06334e-05)
(0.00705007 0.00119193 -4.13964e-05)
(0.00694524 -5.79807e-05 -2.58458e-05)
(0.00689876 -0.00130088 -1.03389e-05)
(0.00689216 -0.00263443 8.9905e-06)
(0.00863384 0.002612 -7.29541e-05)
(0.00848692 0.00121966 -4.96906e-05)
(0.0083836 -8.01228e-05 -3.10096e-05)
(0.00832631 -0.00136598 -1.22027e-05)
(0.00829869 -0.00271688 1.18424e-05)
(0.0100877 0.0026517 -7.89246e-05)
(0.00991828 0.00123574 -5.48337e-05)
(0.00977751 -9.56761e-05 -3.74221e-05)
(0.00971738 -0.00141345 -2.05207e-05)
(0.00969304 -0.00277304 4.0718e-06)
(0 0 0)
(0 0 0)
(0 0 0)
(0 0 0)
(0 0 0)
(0.0010896 0.000938804 -1.15177e-06)
(0.000697373 0.000290307 -7.91927e-07)
(0.000572221 -5.29815e-06 -2.55806e-06)
(0.000633046 -0.000300946 -4.6085e-06)
(0.000926063 -0.000943718 -4.82104e-06)
(0.00201932 0.00143346 -4.99525e-06)
(0.001697 0.000602596 -3.60065e-06)
(0.0015486 -5.57393e-06 -4.98808e-06)
(0.0015961 -0.000615879 -6.73569e-06)
(0.00180436 -0.00145738 -5.98058e-06)
(0.00316406 0.00187887 -1.04201e-05)
(0.00287889 0.000843698 -7.39711e-06)
(0.00274052 -9.13419e-06 -7.11212e-06)
(0.00275622 -0.000865519 -7.11334e-06)
(0.00290313 -0.00191541 -4.60175e-06)
(0.00443734 0.00219841 -1.6919e-05)
(0.00420014 0.00101662 -1.17944e-05)
(0.00407344 -1.86808e-05 -9.01433e-06)
(0.00406254 -0.00105638 -6.44358e-06)
(0.00414548 -0.00224923 -1.66859e-06)
(0.00579792 0.0024105 -2.39047e-05)
(0.0056018 0.00112891 -1.64306e-05)
(0.00548654 -3.37395e-05 -1.089e-05)
(0.00545484 -0.00119519 -5.46484e-06)
(0.0054862 -0.0024782 1.85129e-06)
(0.00720025 0.00253581 -3.07973e-05)
(0.00703519 0.0011925 -2.09918e-05)
(0.00692968 -5.31198e-05 -1.30028e-05)
(0.00688299 -0.00129148 -5.00605e-06)
(0.00687654 -0.00262059 4.89001e-06)
(0.00861609 0.00260945 -3.67927e-05)
(0.00846837 0.00122091 -2.50541e-05)
(0.00836442 -7.45759e-05 -1.56423e-05)
(0.00830672 -0.0013558 -6.15009e-06)
(0.00827892 -0.00270186 5.98676e-06)
(0.0100663 0.00265 -3.9702e-05)
(0.00989596 0.00123778 -2.75908e-05)
(0.00975422 -8.94008e-05 -1.88975e-05)
(0.00969327 -0.00140263 -1.0438e-05)
(0.00966845 -0.00275723 1.91955e-06)
(0 0 0)
(0 0 0)
(0 0 0)
(0 0 0)
(0 0 0)
(0.0010894 0.000938518 -0)
(0.000696762 0.000290281 -0)
(0.000571348 -5.12505e-06 0)
(0.00063215 -0.000300546 0)
(0.000925295 -0.000942814 0)
(0.00201854 0.00143275 -0)
(0.00169563 0.000602483 0)
(0.00154688 -5.10966e-06 0)
(0.00159436 -0.000614803 0)
(0.00180291 -0.0014556 0)
(0.0031625 0.00187789 -0)
(0.00287673 0.000843562 0)
(0.002738 -8.35368e-06 0)
(0.00275369 -0.000863793 0)
(0.0029009 -0.00191276 0)
(0.00443487 0.00219729 -0)
(0.00419713 0.00101654 0)
(0.00407012 -1.75892e-05 0)
(0.0040592 -0.00105408 0)
(0.00414238 -0.00224581 0)
(0.00579441 0.00240937 -0)
(0.00559784 0.00112896 0)
(0.00548232 -3.23563e-05 0)
(0.00545058 -0.00119242 0)
(0.0054821 -0.00247414 0)
(0.00719555 0.00253479 -0)
(0.00703015 0.00119273 0)
(0.00692442 -5.14775e-05 0)
(0.00687766 -0.00128835 0)
(0.00687127 -0.002616 0)
(0.00861008 0.00260861 -0)
(0.0084621 0.00122135 0)
(0.00835796 -7.27063e-05 0)
(0.00830013 -0.00135239 0)
(0.00827229 -0.00269686 0)
(0.010059 0.00264938 -0)
(0.00988842 0.00123845 -0)
(0.00974638 -8.72867e-05 0)
(0.00968517 -0.001399 0)
(0.00966022 -0.00275195 0)
)
;

boundaryField
{
    interface
    {
        type            calculated;
    }
    symmetry
    {
        type            symmetryPlane;
    }
    bottom
    {
        type            fixedValue;
        value           uniform (0 0 0);
    }
}


// ************************************************************************* //
