/*--------------------------------*- C++ -*----------------------------------*\
| =========                 |                                                 |
| \\      /  F ield         | foam-extend: Open Source CFD                    |
|  \\    /   O peration     | Version:     3.1                                |
|   \\  /    A nd           | Web:         http://www.extend-project.de       |
|    \\/     M anipulation  |                                                 |
\*---------------------------------------------------------------------------*/
FoamFile
{
    version     2.0;
    format      ascii;
    class       volSymmTensorField;
    location    "2.5";
    object      sigmaCauchy;
}
// * * * * * * * * * * * * * * * * * * * * * * * * * * * * * * * * * * * * * //

dimensions      [1 -1 -2 0 0 0 0];

internalField   nonuniform List<symmTensor> 
256
(
(185.368 76.4431 -1.09541 434.918 38.533 211.464)
(26.8004 57.4882 -8.16585 85.0468 12.111 33.2843)
(-57.1132 49.7684 -9.37455 -117.322 -16.064 -59.0265)
(-215.061 45.6361 -5.23704 -420.911 -35.452 -233.526)
(-76.4617 34.474 -3.6242 126.507 -11.035 -24.5573)
(-28.82 73.8944 -13.6458 43.0337 -5.08443 -11.1479)
(2.79793 67.6645 -14.0908 -58.2299 2.31654 -4.22703)
(44.1214 19.9796 -4.96058 -134.111 7.49496 9.18705)
(-25.7389 41.7606 -1.71549 153.293 -6.20057 24.1072)
(-28.312 71.8433 -9.3246 36.9547 -2.52616 -6.18359)
(-1.57198 66.47 -9.64646 -53.9798 0.200736 -9.62085)
(-5.00635 26.1735 -2.93568 -155.937 3.1906 -34.0581)
(-37.2703 36.3092 -1.99691 100.272 -8.59937 9.44463)
(-28.7151 65.2838 -7.7577 22.7514 -2.82176 -7.47322)
(-0.654395 60.9894 -7.74057 -40.1512 1.30759 -6.01505)
(6.95549 23.7129 -2.74651 -104.749 6.35664 -15.8878)
(-34.0098 30.8015 -1.67402 67.1926 -7.68434 9.18414)
(-26.9107 55.8675 -6.23657 12.5228 -2.25812 -6.21946)
(-2.44748 52.8247 -6.11571 -29.999 1.41474 -5.75163)
(3.91762 21.7594 -2.26715 -72.4517 6.34691 -13.6286)
(-34.8846 23.424 -1.7145 37.1495 -6.53591 5.8834)
(-26.5097 44.4865 -5.38673 3.67821 -1.8377 -5.96188)
(-3.943 42.8263 -5.1437 -20.9757 1.37656 -5.36689)
(4.06121 18.3056 -2.13492 -42.7814 5.95539 -9.76607)
(-34.6905 15.5472 -2.14662 19.0969 -5.25094 5.9154)
(-27.7113 32.2362 -5.10195 -2.55374 -1.70252 -5.88038)
(-5.70464 31.4107 -4.67931 -14.025 1.0121 -5.62636)
(4.17596 13.5598 -2.26181 -21.9646 4.75341 -8.38654)
(-45.3933 9.62532 -2.6202 3.88431 -2.7003 0.955142)
(-41.1336 18.8492 -4.84048 -10.6959 -0.938395 -12.1051)
(-1.93169 16.7909 -4.55663 -4.21056 0.285334 -2.30374)
(9.72808 6.32473 -2.86101 -7.53656 1.87433 -6.20894)
(187.082 86.0998 -0.698343 428.939 23.7424 219.095)
(32.7592 68.9607 -6.6815 86.8468 6.91056 39.485)
(-51.3574 61.4939 -7.99633 -106.082 -11.5102 -56.2986)
(-206.242 54.4349 -4.48544 -404.97 -24.6156 -232.312)
(-43.1226 36.1073 -2.75881 172.739 -3.89445 15.5625)
(-5.46036 76.8688 -12.8342 68.7397 -2.62585 11.4109)
(-17.9761 70.0719 -14.1704 -83.8547 -0.924632 -26.8466)
(8.86164 21.0888 -5.9512 -179.676 -0.184968 -31.9533)
(-20.6223 37.6591 -1.65497 158.424 -9.33073 28.6819)
(-17.6205 66.3754 -10.2359 45.4746 -3.60774 1.41187)
(-8.17351 61.0518 -11.3847 -59.7408 1.6584 -14.9723)
(-8.94356 22.4076 -4.3898 -159.383 6.39873 -36.7268)
(-27.5974 31.4192 -0.78386 109.449 -11.4926 18.2735)
(-17.8522 57.2808 -7.40187 31.6384 -3.78493 0.250924)
(-7.36724 52.9918 -8.37569 -44.6884 2.9187 -11.4729)
(-1.5155 19.0481 -3.25461 -111.03 9.78445 -22.8756)
(-27.3434 25.4214 0.13606 72.0915 -11.3128 14.7704)
(-18.1151 47.2388 -5.1138 19.25 -3.47561 -0.624365)
(-6.8584 44.2858 -6.00226 -31.1899 3.32177 -8.85387)
(-1.39454 16.7231 -2.15534 -73.7715 10.6726 -17.2541)
(-28.3836 18.6365 0.650758 41.555 -9.85628 11.5412)
(-18.6663 36.7419 -3.58493 9.44171 -2.96483 -1.22881)
(-7.06337 35.1942 -4.36319 -20.5451 3.06566 -7.32713)
(-0.699399 13.8648 -1.4578 -42.8927 9.97127 -13.0811)
(-28.9556 11.6686 0.6644 22.4351 -7.58714 10.8868)
(-21.3305 26.2128 -2.89062 1.46588 -2.44075 -2.60384)
(-7.5599 25.604 -3.53576 -12.4958 2.22234 -6.4601)
(0.766317 10.2656 -1.17458 -20.4775 7.83812 -10.4716)
(-39.1579 7.71667 0.256369 7.75548 -4.02445 6.09839)
(-35.4446 15.7723 -2.92021 -7.52369 -1.35715 -9.78042)
(-4.5001 13.9081 -3.85673 -4.17306 0.959564 -3.93133)
(5.15069 4.92417 -1.97339 -8.10602 3.86321 -9.462)
(193.897 90.4281 -0.671646 439.367 11.9449 233.574)
(35.5441 71.9665 -4.3654 90.6303 2.94859 45.1728)
(-51.7691 64.1361 -5.25396 -106.269 -7.15993 -59.6776)
(-213.121 56.8574 -3.00669 -413.619 -14.1052 -246.907)
(-43.5336 36.7148 -2.26097 173.619 -2.44775 28.5658)
(-3.55297 78.231 -8.79659 72.4582 -1.97313 18.9159)
(-19.5173 71.3588 -9.91814 -85.9469 -1.23209 -33.5058)
(6.87274 21.6021 -4.64759 -181.988 -0.80218 -47.5057)
(-21.2033 37.2511 -1.82699 160.388 -7.00376 37.0522)
(-16.9313 65.9969 -7.72366 48.2928 -2.91629 6.43958)
(-9.18702 60.5868 -8.72099 -61.3132 1.19091 -19.3677)
(-11.1562 21.8484 -3.81521 -162.487 4.7428 -48.2337)
(-28.4965 30.5113 -1.12277 110.437 -9.16151 22.2465)
(-17.4225 55.336 -5.78757 33.8343 -3.18996 3.70959)
(-8.48482 51.032 -6.61741 -45.2013 2.60838 -14.0038)
(-3.96015 18.1686 -2.75446 -113.262 8.04052 -30.3653)
(-29.1097 24.138 -0.380006 72.0213 -9.40713 15.0271)
(-17.8409 44.6828 -3.88751 21.1789 -3.00219 1.75341)
(-7.93327 41.7852 -4.6117 -31.0375 3.19223 -9.9922)
(-3.11144 15.6161 -1.75235 -74.6286 9.29999 -20.8794)
(-30.4206 17.2909 0.14143 41.0541 -8.40877 9.46049)
(-18.4044 34.1634 -2.52394 11.1202 -2.57009 0.388841)
(-7.99548 32.7779 -3.14803 -19.8862 3.09416 -7.36541)
(-2.00545 12.8828 -1.03845 -42.8871 9.00868 -13.8933)
(-30.6836 10.3863 0.276477 22.1625 -6.52182 7.56066)
(-21.0278 24.1151 -1.94011 2.85873 -2.0187 -1.60777)
(-8.39891 23.7767 -2.50791 -11.6219 2.3622 -5.65867)
(-0.244359 9.60479 -0.778132 -19.8617 7.31298 -9.07571)
(-41.422 7.08005 -0.121824 6.37991 -3.26559 0.72216)
(-35.4211 14.7294 -2.38028 -6.60811 -0.970057 -9.57861)
(-5.6475 13.0592 -3.32844 -3.28809 1.02939 -2.21516)
(5.09323 4.75557 -1.77773 -6.04112 3.56058 -4.84086)
(197.353 92.0445 -0.46764 445.276 5.23281 242.373)
(36.4522 72.5239 -2.66369 92.4894 0.874237 48.2403)
(-52.3732 64.4134 -3.19167 -106.644 -4.34687 -61.9635)
(-216.77 57.3898 -1.82119 -418.151 -7.68769 -255.454)
(-44.4727 36.866 -1.44679 173.263 -2.04276 37.6139)
(-3.85909 78.8465 -5.58686 73.6015 -1.56403 22.9208)
(-19.9296 71.9439 -6.3383 -85.8351 -1.0281 -37.1754)
(6.46859 21.7806 -3.06466 -181.855 -0.485203 -57.6079)
(-21.7736 37.3984 -1.35174 161.341 -4.92251 44.8529)
(-17.8255 66.3753 -5.30682 49.2252 -2.13264 9.46916)
(-9.53428 60.9725 -5.98249 -61.2167 0.760358 -22.2937)
(-11.8044 22.0242 -2.71851 -163.041 3.27209 -57.0158)
(-29.2057 30.4768 -0.948803 111.499 -6.47484 27.3791)
(-18.38 55.3002 -4.18764 34.7078 -2.30882 5.86564)
(-9.01937 51.0262 -4.7207 -45.0106 1.94165 -15.9547)
(-4.62975 18.2254 -2.01947 -113.757 5.777 -36.5201)
(-29.8252 23.9515 -0.447691 73.1422 -6.82419 17.6813)
(-18.7525 44.3316 -2.90513 22.0689 -2.18674 3.16917)
(-8.58201 41.5056 -3.33446 -30.7405 2.52108 -10.9666)
(-3.77434 15.5995 -1.2743 -74.9166 6.96833 -24.3174)
(-31.0527 16.9909 -0.0649611 42.2523 -6.27658 10.2028)
(-19.2041 33.6504 -1.93792 12.0125 -1.89364 1.25117)
(-8.64904 32.4006 -2.28277 -19.4592 2.54581 -7.44845)
(-2.64557 12.8668 -0.716784 -42.9435 6.98999 -15.0034)
(-30.9406 10.0098 0.024047 23.6799 -5.02501 7.14007)
(-21.7043 23.6318 -1.61718 3.71896 -1.49486 -1.12966)
(-9.1021 23.4778 -1.94055 -11.1126 2.01053 -4.97245)
(-0.904528 9.64922 -0.551855 -19.6071 5.84903 -8.23306)
(-41.5948 6.92263 -0.435742 7.67955 -2.63591 -0.658504)
(-36.163 14.4919 -2.33378 -5.76249 -0.722122 -9.27285)
(-6.86176 12.9022 -2.98325 -2.88029 0.911399 -0.871873)
(4.32279 4.84352 -1.52296 -5.46248 2.9241 -2.1588)
(198.603 92.4853 -0.286811 447.746 1.83553 246.85)
(36.7379 72.2859 -1.54495 93.4426 -0.055096 49.875)
(-52.7116 64.0092 -1.84336 -106.591 -2.58615 -63.2056)
(-218.014 57.287 -1.04189 -419.357 -4.03351 -259.475)
(-45.3432 36.8056 -0.834633 172.924 -1.74968 43.0365)
(-4.32216 78.9442 -3.35958 74.2164 -1.21572 25.2111)
(-20.2673 72.0478 -3.82829 -85.3721 -0.749126 -39.3844)
(6.20606 21.8062 -1.86817 -181.429 -0.165096 -63.7825)
(-22.5442 37.4988 -0.869073 161.653 -3.4117 49.989)
(-18.6102 66.6868 -3.41051 49.7625 -1.49326 11.3719)
(-9.85264 61.3336 -3.8373 -60.762 0.47573 -24.2444)
(-12.0138 22.2223 -1.75266 -162.772 2.23917 -62.7062)
(-30.0053 30.6052 -0.666683 112.063 -4.36508 31.2065)
(-19.1714 55.6382 -2.82472 35.2914 -1.56273 7.33223)
(-9.41136 51.4206 -3.14611 -44.6067 1.34415 -17.3902)
(-4.86277 18.4772 -1.33647 -113.567 3.94362 -40.8678)
(-30.5534 24.0523 -0.369697 73.9273 -4.64395 20.0551)
(-19.4834 44.5935 -2.04828 22.7089 -1.47371 4.2022)
(-9.01469 41.8403 -2.28645 -30.361 1.81584 -11.7731)
(-4.04295 15.8579 -0.850334 -74.7678 4.8636 -27.0045)
(-31.6736 17.0208 -0.137911 43.1848 -4.373 11.3268)
(-19.8339 33.8026 -1.45314 12.6932 -1.29317 1.95417)
(-9.0881 32.6551 -1.62682 -19.0784 1.88277 -7.62663)
(-2.92302 13.115 -0.482888 -42.7413 5.0006 -16.0748)
(-31.3078 9.95128 -0.125987 24.8285 -3.61281 7.46449)
(-22.2748 23.6995 -1.35276 4.38212 -1.04237 -0.657663)
(-9.60933 23.6597 -1.51723 -10.731 1.51379 -4.58498)
(-1.1972 9.88027 -0.421001 -19.2304 4.27503 -7.86103)
(-42.118 6.924 -0.593777 8.51805 -1.94204 -1.19658)
(-36.9771 14.543 -2.13683 -5.229 -0.500711 -9.04829)
(-7.74108 12.9712 -2.54299 -2.55252 0.69568 -0.0187606)
(3.93641 4.98402 -1.26522 -4.91923 2.16295 -0.514421)
(198.904 92.482 -0.155738 448.557 0.340041 248.982)
(36.8007 71.8786 -0.845021 93.953 -0.350064 50.7291)
(-52.8308 63.5069 -1.0065 -106.305 -1.47742 -63.8028)
(-218.163 57.0267 -0.561392 -419.089 -2.00997 -261.127)
(-45.915 36.6688 -0.432003 172.759 -1.36214 46.1573)
(-4.69632 78.8078 -1.8977 74.6207 -0.876073 26.4824)
(-20.515 71.9305 -2.17406 -84.8749 -0.493449 -40.675)
(5.96231 21.7691 -1.05885 -181.001 0.0132304 -67.4086)
(-23.118 37.5193 -0.494385 161.849 -2.26287 53.1443)
(-19.1572 66.8278 -2.03727 50.1492 -0.987353 12.5055)
(-10.1131 61.5263 -2.29194 -60.2909 0.290138 -25.4822)
(-12.1242 22.3474 -1.03638 -162.351 1.47399 -66.1759)
(-30.5882 30.7067 -0.404097 112.44 -2.79403 33.7608)
(-19.7106 55.9251 -1.75865 35.717 -0.994495 8.2617)
(-9.68123 51.7619 -1.94346 -44.1828 0.869682 -18.352)
(-4.96687 18.6942 -0.806485 -113.201 2.54619 -43.6687)
(-31.0792 24.1731 -0.244498 74.4657 -2.97192 21.8421)
(-19.9699 44.908 -1.32966 23.1753 -0.928892 4.90923)
(-9.28194 42.2157 -1.45662 -29.981 1.20214 -12.3534)
(-4.1542 16.1095 -0.518342 -74.4485 3.16716 -28.8599)
(-32.1134 17.1056 -0.122685 43.8355 -2.84468 12.4144)
(-20.251 34.0636 -1.00544 13.1818 -0.824324 2.48756)
(-9.34991 32.9913 -1.08836 -18.7327 1.26475 -7.79949)
(-3.04724 13.3635 -0.303953 -42.4306 3.30226 -16.9439)
(-31.5852 9.96414 -0.1533 25.6167 -2.40837 8.09331)
(-22.671 23.8713 -1.02725 4.84379 -0.678538 -0.254059)
(-9.92748 23.9076 -1.10625 -10.4234 1.02519 -4.38965)
(-1.33742 10.0967 -0.304047 -18.8492 2.85943 -7.81155)
(-42.4491 6.94422 -0.539892 9.2161 -1.32645 -0.994248)
(-37.5729 14.6362 -1.69516 -4.84945 -0.327839 -8.79695)
(-8.32457 13.0677 -1.93773 -2.30818 0.47544 0.429589)
(3.64338 5.09277 -0.944698 -4.57208 1.46021 0.199624)
(198.868 92.3683 -0.0733787 448.697 -0.125669 249.913)
(36.7958 71.5409 -0.41127 94.2251 -0.31315 51.1557)
(-52.8432 63.1175 -0.490031 -106.003 -0.753016 -64.0566)
(-217.96 56.798 -0.269786 -418.45 -0.901418 -261.687)
(-46.2632 36.5412 -0.195235 172.674 -0.86556 47.8088)
(-4.94485 78.6312 -0.947979 74.8809 -0.530502 27.1445)
(-20.6671 71.7726 -1.09217 -84.4793 -0.276671 -41.377)
(5.78719 21.7228 -0.528894 -180.657 0.0623146 -69.3872)
(-23.4914 37.5014 -0.243255 161.976 -1.30244 54.8953)
(-19.4936 66.8616 -1.06242 50.417 -0.564896 13.1292)
(-10.2896 61.599 -1.19655 -59.9293 0.157741 -26.203)
(-12.1886 22.4108 -0.533597 -161.996 0.84473 -68.1259)
(-30.9648 30.7599 -0.208931 112.676 -1.56265 35.2575)
(-20.0372 56.0932 -0.946502 36.0071 -0.552067 8.79876)
(-9.84841 51.9697 -1.0413 -43.8537 0.487203 -18.9315)
(-5.01988 18.8325 -0.421009 -112.882 1.43055 -45.3045)
(-31.4228 24.2522 -0.134132 74.7867 -1.65664 22.9675)
(-20.2599 45.1244 -0.739474 23.4844 -0.510896 5.34463)
(-9.43404 42.4744 -0.80088 -29.6859 0.681455 -12.7176)
(-4.19947 16.2806 -0.272959 -74.1548 1.78259 -29.9942)
(-32.4048 17.1678 -0.0801355 44.2143 -1.60152 13.1871)
(-20.4982 34.2585 -0.588157 13.4957 -0.457021 2.84303)
(-9.49308 33.2355 -0.624327 -18.4716 0.722023 -7.92494)
(-3.09797 13.5352 -0.166011 -42.1525 1.8711 -17.5313)
(-31.7867 9.98023 -0.116735 26.0689 -1.37846 8.63157)
(-22.9116 24.0039 -0.640798 5.13301 -0.382271 0.0386821)
(-10.1077 24.087 -0.675441 -10.2039 0.587166 -4.30236)
(-1.39533 10.2425 -0.185839 -18.5483 1.63076 -7.87688)
(-42.6805 6.96075 -0.369715 9.63945 -0.774512 -0.664235)
(-37.9525 14.7074 -1.07987 -4.61614 -0.185746 -8.59526)
(-8.67059 13.1361 -1.20868 -2.13952 0.274365 0.639283)
(3.4693 5.15973 -0.58381 -4.34174 0.837112 0.457612)
(198.792 92.2853 -0.0213191 448.664 -0.0913447 250.249)
(36.783 71.3587 -0.121998 94.3449 -0.11961 51.3319)
(-52.8297 62.9124 -0.145437 -105.821 -0.230116 -64.1438)
(-217.78 56.672 -0.0793833 -418.013 -0.253745 -261.827)
(-46.4273 36.4678 -0.055125 172.636 -0.296641 48.5127)
(-5.06742 78.5206 -0.285529 75.0098 -0.177775 27.4245)
(-20.7375 71.6729 -0.330091 -84.2631 -0.0887832 -41.6837)
(5.69787 21.694 -0.159117 -180.466 0.0298846 -70.2549)
(-23.6726 37.4825 -0.0726197 162.039 -0.426269 55.6655)
(-19.6532 66.859 -0.327876 50.5553 -0.184182 13.4024)
(-10.377 61.6168 -0.369512 -59.7358 0.0501922 -26.5329)
(-12.2192 22.4357 -0.163225 -161.799 0.27592 -68.998)
(-31.147 30.78 -0.0643614 112.791 -0.503696 35.9381)
(-20.1908 56.1652 -0.29731 36.155 -0.177136 9.0418)
(-9.92792 52.0622 -0.326278 -43.6771 0.156868 -19.2022)
(-5.04311 18.8972 -0.12975 -112.705 0.461877 -46.0531)
(-31.5902 24.2881 -0.0429009 74.9357 -0.532713 23.5012)
(-20.3951 45.2274 -0.236636 23.6383 -0.163058 5.54992)
(-9.50282 42.5987 -0.254747 -29.5271 0.220483 -12.8914)
(-4.2153 16.3635 -0.0846308 -73.9875 0.575404 -30.5269)
(-32.5472 17.1968 -0.0282632 44.3857 -0.517475 13.5783)
(-20.613 34.3548 -0.193626 13.6482 -0.14649 3.01876)
(-9.55582 33.3558 -0.203539 -18.3322 0.23426 -7.98916)
(-3.11551 13.6191 -0.0527791 -41.995 0.605493 -17.8235)
(-31.8881 9.98719 -0.0439826 26.2699 -0.449504 8.92792)
(-23.0241 24.0698 -0.218028 5.27095 -0.123634 0.19013)
(-10.1883 24.1745 -0.227507 -10.0893 0.190761 -4.27049)
(-1.41644 10.3124 -0.0628985 -18.3866 0.529109 -7.93767)
(-42.7885 6.96948 -0.132231 9.83639 -0.256833 -0.444627)
(-38.1316 14.7444 -0.370352 -4.50441 -0.0605191 -8.48394)
(-8.83234 13.1685 -0.410553 -2.05356 0.0897872 0.717027)
(3.38384 5.18957 -0.1979 -4.22999 0.2724 0.52089)
)
;

boundaryField
{
    interface
    {
        type            calculated;
        value           nonuniform List<symmTensor> 
192
(
(-23.3661 18.2587 4.23812 467.136 49.0113 129.447)
(-24.0959 8.74474 3.38818 216.664 -13.7393 21.6392)
(-23.9855 11.4341 4.1924 215.119 -8.76709 42.9294)
(-24.2663 9.34982 4.17454 151.684 -12.5663 31.7909)
(-24.7056 6.97226 4.2382 103.403 -11.5177 27.2524)
(-25.2254 4.19105 4.21024 62.4432 -9.9048 22.1733)
(-25.5778 1.74177 4.01761 37.7678 -7.74395 20.9315)
(-24.6024 -0.609902 3.55079 25.8039 -4.08043 22.93)
(-26.0087 19.3747 2.89374 459.297 30.4045 136.796)
(-27.0443 9.94631 2.60021 239.215 -4.5065 39.7327)
(-27.6381 11.3528 2.66431 212.384 -12.451 41.1554)
(-28.4604 9.3761 2.57281 150.799 -15.8517 31.959)
(-29.2007 6.82243 2.52314 100.025 -15.7445 26.2742)
(-29.6894 3.97037 2.48474 59.3446 -13.7656 22.0562)
(-29.4392 1.31691 2.38736 35.3077 -10.473 21.6978)
(-26.5006 -1.24039 2.17124 25.3794 -5.55839 25.3141)
(-27.6693 20.5096 1.78217 467.48 15.3888 148.295)
(-28.712 10.0022 1.8121 236.186 -2.7117 53.1396)
(-29.421 11.3131 1.79916 211.745 -9.07871 48.8228)
(-30.3587 9.29117 1.67266 149.924 -12.2476 34.3165)
(-31.1361 6.67124 1.58257 98.7537 -12.7322 24.4892)
(-31.4986 3.75668 1.53344 58.2246 -11.4676 17.6568)
(-30.82 1.01395 1.48328 34.9939 -8.91689 15.9799)
(-26.8954 -1.6716 1.42783 24.8471 -4.60334 18.2938)
(-28.8652 21.0814 1.08159 472.146 6.7302 155.795)
(-29.8715 9.98123 1.2662 234.202 -2.37113 63.8723)
(-30.5715 11.2822 1.2732 211.529 -6.31029 57.7514)
(-31.5327 9.24787 1.18041 150.246 -8.53633 39.9155)
(-32.2753 6.61254 1.09926 99.3347 -9.12748 26.8545)
(-32.5177 3.66755 1.05 59.0855 -8.48025 17.5436)
(-31.5551 0.873809 1.01383 36.3673 -6.85699 14.2924)
(-27.0403 -1.86312 0.998131 26.2024 -3.75211 15.6525)
(-29.7353 21.3103 0.652477 473.833 2.34552 159.74)
(-30.7121 9.94762 0.870612 233.157 -2.12685 70.5455)
(-31.3932 11.2444 0.893834 211.423 -4.3828 64.072)
(-32.3298 9.2106 0.838972 150.617 -5.73431 44.6236)
(-33.037 6.57511 0.782214 100.04 -6.1878 29.6237)
(-33.1884 3.61273 0.742366 60.0256 -5.89584 18.6335)
(-32.0357 0.783906 0.714034 37.6123 -4.94298 14.2621)
(-27.1259 -1.98602 0.709499 27.4036 -2.80044 14.8706)
(-30.347 21.3762 0.383067 474.083 0.42035 161.642)
(-31.3041 9.91351 0.568772 232.591 -1.70185 74.3814)
(-31.9688 11.2106 0.594304 211.427 -2.92538 68.0268)
(-32.8755 9.18123 0.565936 150.938 -3.67671 47.8723)
(-33.5543 6.54736 0.530914 100.583 -3.96296 31.8545)
(-33.6422 3.57371 0.503145 60.7215 -3.84128 19.917)
(-32.3641 0.720639 0.482284 38.4966 -3.31001 14.9009)
(-27.1882 -2.06415 0.479122 28.3737 -1.93309 15.1621)
(-30.7393 21.3803 0.200019 473.848 -0.173009 162.471)
(-31.6858 9.88642 0.319967 232.267 -1.09652 76.3908)
(-32.3383 11.1854 0.337781 211.454 -1.69323 70.2287)
(-33.2262 9.16062 0.324857 151.155 -2.06261 49.7931)
(-33.8844 6.52741 0.30621 100.916 -2.2141 33.2913)
(-33.9323 3.54581 0.29012 61.1325 -2.16803 20.8791)
(-32.5765 0.676667 0.276096 39.0141 -1.90229 15.5381)
(-27.235 -2.1131 0.270911 28.9821 -1.13748 15.656)
(-30.9236 21.3716 0.0614433 473.631 -0.121304 162.771)
(-31.8638 9.87048 0.102169 232.119 -0.3779 77.2437)
(-32.5069 11.171 0.108166 211.48 -0.555808 71.203)
(-33.3846 9.14941 0.104376 151.27 -0.666166 50.6754)
(-34.0321 6.51647 0.0985364 101.079 -0.713114 33.9853)
(-34.0615 3.52946 0.093285 61.325 -0.701664 21.3818)
(-32.6594 0.65003 0.0878219 39.2574 -0.621785 15.9168)
(-27.2211 -2.13378 0.0842723 29.2868 -0.37866 16.0019)
(40.4402 67.82 -2.00777 292.647 3.18414 -11.9779)
(-77.7452 33.59 -4.54852 114.85 -1.53535 -8.87743)
(-50.5998 45.1799 -5.77323 129.373 -1.47242 -6.05478)
(-51.3679 40.3154 -6.48044 87.4928 -1.1906 -4.11089)
(-45.7168 35.0412 -6.96835 57.9105 -0.863503 -3.01603)
(-43.4293 27.0998 -7.33925 31.2695 -0.741437 -2.63396)
(-42.6241 18.4164 -7.75622 14.06 -0.883804 -2.86534)
(-50.6138 11.0366 -8.67628 1.15856 -1.1253 -3.68723)
(-4.39031 48.1096 -1.60575 58.0634 -0.43038 -10.714)
(-37.0391 72.0473 -3.1529 33.5266 -1.64759 -9.38252)
(-35.8163 76.7718 -3.84674 32.6556 -1.59308 -7.7024)
(-34.186 71.5803 -4.25528 20.0134 -1.20405 -6.41276)
(-31.8544 62.3918 -4.53195 10.3197 -0.750424 -5.65773)
(-30.8735 50.1871 -4.7978 1.90412 -0.440186 -5.3803)
(-31.496 36.6231 -5.22634 -3.6904 -0.326068 -5.47)
(-40.6563 21.1404 -6.39116 -7.60465 -0.294707 -5.62536)
(-26.4984 40.7089 -1.5833 -92.5399 -0.0350301 -9.74916)
(7.00745 65.829 -2.88984 -49.7588 -1.42473 -9.26277)
(3.48054 71.2526 -3.43168 -50.455 -1.48449 -8.19335)
(1.79963 67.179 -3.63399 -39.5786 -1.16712 -7.27246)
(-0.98699 59.2408 -3.77846 -31.0214 -0.707427 -6.72396)
(-3.41186 48.4717 -3.97628 -23.0039 -0.325805 -6.52913)
(-5.75112 35.725 -4.38114 -16.4282 -0.0941984 -6.61831)
(-4.47623 18.9786 -5.49597 -8.24932 0.0248813 -6.76257)
(-68.8311 40.4235 -1.78135 -290.56 4.10448 -8.60352)
(44.6176 19.0255 -3.08265 -122.413 -1.09385 -8.31226)
(17.5363 29.4463 -3.55978 -135.308 -1.33726 -7.41457)
(17.7237 27.5963 -3.795 -96.0185 -1.19862 -6.59689)
(11.8177 25.8517 -3.91249 -67.8991 -0.767897 -6.09713)
(8.56998 21.907 -4.08227 -41.939 -0.347791 -5.88583)
(6.78945 16.2703 -4.45436 -23.1639 -0.0139229 -5.884)
(10.7142 7.5406 -5.47838 -9.24816 0.285421 -6.07275)
(-5.73941 -13.5633 -1.43306 -409.074 -42.9991 -141.997)
(-4.38341 -6.54069 0.699099 -208.402 8.64445 -30.7524)
(-3.36639 -8.56981 0.614838 -199.91 4.70696 -44.7514)
(-2.41928 -6.71196 0.985968 -139.805 9.24281 -28.9076)
(-1.70203 -4.81855 1.13992 -93.6049 9.35516 -22.0206)
(-0.992156 -2.80169 1.30647 -53.8665 8.7928 -16.0978)
(0.0497631 -1.48877 1.48332 -26.6966 6.95872 -13.5973)
(2.47866 -1.8773 1.60205 -13.5168 2.71538 -14.3698)
(-6.53437 -14.4002 -1.36594 -399.61 -29.7784 -149.042)
(-5.98149 -7.8103 -0.322581 -232.807 -0.474351 -51.0491)
(-5.57283 -8.59539 0.0487212 -201.049 8.47477 -45.1124)
(-5.00603 -6.78584 0.379602 -142.682 13.2761 -32.0746)
(-4.42003 -4.68155 0.583663 -93.8798 14.6007 -24.3909)
(-3.75746 -2.58107 0.702975 -53.7084 13.7912 -19.1488)
(-2.68853 -1.12049 0.743261 -25.8582 11.0129 -16.6686)
(0.0278455 -1.47067 0.699571 -13.5535 5.53656 -17.7925)
(-6.9688 -15.23 -0.891313 -406.804 -16.7435 -162.756)
(-6.57978 -7.98145 -0.376859 -232.434 -0.896181 -68.2599)
(-6.3664 -8.66088 -0.0706081 -202.525 6.19501 -57.8087)
(-5.91897 -6.78634 0.235472 -143.964 10.5539 -40.0205)
(-5.36383 -4.57707 0.456294 -94.4186 12.2857 -28.1301)
(-4.65367 -2.39629 0.585364 -53.7693 12.0312 -19.6774)
(-3.5326 -0.851116 0.612912 -25.4828 9.98244 -14.6824)
(-0.838438 -1.01188 0.46725 -12.0612 5.03598 -12.7133)
(-7.27129 -15.5664 -0.528649 -410.503 -8.84889 -171.204)
(-6.91327 -8.00837 -0.276579 -231.692 -0.321114 -80.8129)
(-6.77534 -8.65713 -0.0549204 -202.728 4.28785 -68.8007)
(-6.38279 -6.7349 0.184489 -144.39 7.46237 -47.7922)
(-5.80895 -4.46557 0.37773 -94.7144 9.03782 -32.4203)
(-5.02642 -2.22711 0.497701 -53.8416 9.1706 -20.9632)
(-3.80235 -0.627371 0.522385 -25.1007 7.87665 -13.4352)
(-1.20585 -0.686727 0.373588 -11.2892 4.09729 -9.2923)
(-7.47819 -15.6247 -0.29613 -411.416 -4.45362 -175.577)
(-7.12441 -7.98255 -0.170666 -231.141 0.11681 -88.581)
(-7.0112 -8.60893 -0.0121621 -202.478 2.97852 -76.1596)
(-6.62823 -6.65603 0.161968 -144.258 5.06821 -53.4849)
(-6.03478 -4.35073 0.309396 -94.6149 6.24746 -35.9507)
(-5.19532 -2.07691 0.402172 -53.6282 6.49949 -22.3698)
(-3.91545 -0.443654 0.414777 -24.5948 5.72064 -12.9652)
(-1.38899 -0.447928 0.289394 -10.628 3.02024 -7.30984)
(-7.6061 -15.5733 -0.155073 -411.093 -2.10375 -177.665)
(-7.24926 -7.9375 -0.0909965 -230.674 0.290263 -93.0848)
(-7.14062 -8.54797 0.0172799 -202.122 1.99231 -80.649)
(-6.75406 -6.57675 0.135482 -143.951 3.27526 -57.1633)
(-6.13258 -4.25025 0.236643 -94.3168 4.05332 -38.4104)
(-5.25857 -1.95812 0.298824 -53.278 4.27518 -23.5398)
(-3.95452 -0.309581 0.30227 -24.0939 3.81913 -12.95)
(-1.48105 -0.289397 0.207305 -10.1576 2.03846 -6.44817)
(-7.67705 -15.5041 -0.0719152 -410.48 -0.888531 -178.579)
(-7.31703 -7.89616 -0.0407919 -230.311 0.255876 -95.5068)
(-7.20981 -8.49631 0.0224973 -201.817 1.15541 -83.1577)
(-6.81193 -6.51568 0.0911004 -143.669 1.84537 -59.2981)
(-6.16845 -4.17822 0.149247 -94.0273 2.27994 -39.9116)
(-5.27697 -1.87773 0.184003 -52.9629 2.41975 -24.3371)
(-3.96377 -0.224002 0.183508 -23.7099 2.17809 -13.0821)
(-1.52667 -0.19363 0.123337 -9.84548 1.16924 -6.14878)
(-7.70705 -15.4609 -0.0205484 -410.071 -0.239137 -178.91)
(-7.3455 -7.87268 -0.0111413 -230.109 0.0986309 -96.5572)
(-7.2421 -8.46773 0.00959391 -201.646 0.379682 -84.2752)
(-6.83221 -6.48345 0.0320578 -143.507 0.597007 -60.2681)
(-6.18164 -4.14136 0.0508028 -93.8613 0.736133 -40.6163)
(-5.2816 -1.83749 0.0619104 -52.7855 0.78299 -24.7354)
(-3.9637 -0.18366 0.0613355 -23.5058 0.706924 -13.1867)
(-1.55653 -0.149118 0.0402721 -9.6989 0.380521 -6.08597)
(-54.7848 11.8338 -2.79164 -4.34468 -1.61842 -3.90811)
(-49.8826 11.0344 0.00579597 -2.74877 -1.44835 -0.327936)
(-50.4038 11.0234 -0.467397 -1.53216 -1.07607 -4.73494)
(-50.7233 11.1068 -0.829182 -0.587672 -0.78845 -6.63035)
(-51.3802 11.2242 -0.978097 0.109949 -0.566908 -7.55755)
(-51.89 11.3235 -0.846641 0.602771 -0.389906 -7.64598)
(-52.2346 11.3942 -0.565583 0.906919 -0.237303 -7.47295)
(-52.4321 11.427 -0.19958 0.992061 -0.082669 -7.35669)
(-46.6356 8.81701 -4.60345 -5.48916 -0.205522 -11.26)
(-42.438 7.63933 -3.08128 -4.6415 -0.23511 -10.6455)
(-42.5122 7.39199 -2.89316 -3.77935 -0.129853 -10.7473)
(-43.4608 7.36635 -3.00455 -3.07753 -0.0474402 -10.5547)
(-44.4689 7.39491 -2.80262 -2.56238 -0.00745229 -10.4259)
(-45.2288 7.42938 -2.22999 -2.20033 0.00595751 -10.2449)
(-45.7103 7.45931 -1.41937 -1.96453 0.00680958 -10.0796)
(-45.9247 7.48311 -0.486072 -1.83168 0.00281613 -9.97159)
(-3.65281 5.53939 -4.49727 -6.32793 0.37473 -4.87057)
(-5.92076 4.57927 -4.36982 -5.72441 0.296501 -6.2061)
(-7.52473 4.30738 -4.21521 -5.06653 0.286519 -4.07604)
(-9.0227 4.23448 -3.96019 -4.54614 0.260429 -2.27241)
(-10.1376 4.21633 -3.42986 -4.17113 0.214369 -1.15057)
(-10.8891 4.2139 -2.62024 -3.91151 0.157409 -0.577519)
(-11.3443 4.2156 -1.63255 -3.7457 0.0971044 -0.32192)
(-11.5534 4.21677 -0.553754 -3.65354 0.0334704 -0.225154)
(12.4971 4.52484 -3.23572 -5.76809 0.706691 -7.00042)
(8.43417 3.68314 -2.8367 -5.25023 0.445286 -9.66459)
(7.25328 3.34386 -2.80135 -4.82531 0.347841 -4.71462)
(6.12024 3.21063 -2.4794 -4.47343 0.277502 -1.35281)
(5.40622 3.13907 -2.05902 -4.21712 0.212652 0.652692)
(4.90374 3.10027 -1.5261 -4.04102 0.14888 1.53705)
(4.59275 3.0788 -0.936077 -3.93081 0.0878279 1.84932)
(4.43911 3.0668 -0.315851 -3.87962 0.02904 1.92269)
)
;
    }
    symmetry
    {
        type            symmetryPlane;
    }
    bottom
    {
        type            calculated;
        value           nonuniform List<symmTensor> 
32
(
(219.688 87.2353 4.16979 333.578 98.7417 220.724)
(215.393 97.6 2.33159 325.364 49.1896 211.942)
(221.727 102.534 1.19501 334.728 24.0913 216.922)
(225.392 104.257 0.562646 340.312 11.1812 220.206)
(226.996 104.702 0.239195 342.807 4.73807 221.722)
(227.606 104.709 0.0868782 343.781 1.72149 222.323)
(227.784 104.615 0.0241878 344.082 0.479772 222.51)
(227.814 104.544 0.0039257 344.143 0.0779218 222.548)
(41.7983 35.1018 0.527918 62.0385 27.6337 41.5433)
(43.2723 46.4112 0.361817 63.5132 14.3335 42.2125)
(46.0008 48.265 0.178237 67.5137 6.80208 44.7612)
(47.2583 47.8777 0.0741289 69.4565 2.85441 46.0193)
(47.8732 47.1083 0.0241651 70.4522 0.946129 46.6705)
(48.1934 46.4471 0.00359086 70.9904 0.142628 47.024)
(48.36 46.0043 -0.00224568 71.2778 -0.0900684 47.213)
(48.4322 45.7867 -0.00138545 71.4041 -0.0558343 47.296)
(-61.1874 29.8273 -0.547016 -91.7514 -31.3488 -61.133)
(-55.2967 40.8189 -0.436312 -83.7254 -18.3423 -56.0716)
(-56.1356 42.0945 -0.264799 -85.0564 -10.7878 -57.101)
(-56.6911 41.3039 -0.151699 -85.8211 -6.29613 -57.6632)
(-56.8717 40.2782 -0.084704 -86.0164 -3.60478 -57.8105)
(-56.8501 39.4556 -0.0456384 -85.9285 -1.98283 -57.7559)
(-56.7656 38.9164 -0.0222114 -85.7677 -0.978457 -57.6485)
(-56.7037 38.6537 -0.00661292 -85.6589 -0.293308 -57.5751)
(-225.395 61.1565 -3.64871 -330.689 -90.2391 -222.484)
(-214.672 69.2856 -2.22467 -316.7 -48.943 -216.25)
(-220.714 71.6247 -1.24062 -325.578 -26.2795 -223.641)
(-223.979 71.7781 -0.657026 -330.217 -13.8536 -227.256)
(-225.099 71.302 -0.334231 -331.739 -7.08874 -228.428)
(-225.234 70.7625 -0.161792 -331.861 -3.45743 -228.537)
(-225.048 70.3553 -0.0708582 -331.547 -1.52323 -228.319)
(-224.884 70.1431 -0.0196676 -331.29 -0.424131 -228.136)
)
;
    }
}


// ************************************************************************* //
