/*--------------------------------*- C++ -*----------------------------------*\
| =========                 |                                                 |
| \\      /  F ield         | foam-extend: Open Source CFD                    |
|  \\    /   O peration     | Version:     3.1                                |
|   \\  /    A nd           | Web:         http://www.extend-project.de       |
|    \\/     M anipulation  |                                                 |
\*---------------------------------------------------------------------------*/
FoamFile
{
    version     2.0;
    format      ascii;
    class       volScalarField;
    location    "2.5";
    object      sigmaCauchyEq;
}
// * * * * * * * * * * * * * * * * * * * * * * * * * * * * * * * * * * * * * //

dimensions      [1 -1 -2 0 0 0 0];

internalField   nonuniform List<scalar> 
256
(
280.058
116.67
109.463
221.393
193.198
145.68
133.012
167.931
175.98
138.092
126.189
146.119
137.346
122.463
112.787
110.81
103.769
103.26
95.7525
79.7297
75.4803
82.1435
76.5194
53.5078
56.3873
61.3562
55.6645
33.8746
51.1168
44.9929
30.2128
20.7849
275.152
130.961
121.172
213.914
203.352
150.93
138.454
175.948
173.737
129.278
118.042
144.607
134.012
109.232
99.5837
107.322
98.9748
88.6439
81.07
74.4091
70.9068
68.6936
63.0831
47.8801
52.5678
50.475
45.2772
29.0422
48.5108
38.7178
25.0587
18.0209
277.581
134.973
123.202
211.871
201.926
152.246
138.763
172.691
173.524
128.636
116.339
142.155
133.7
106.339
95.6059
104.714
98.6194
84.8762
76.3077
71.8329
70.4113
64.8874
58.5739
45.5109
51.824
47.4548
41.9324
26.9925
47.2123
37.7373
23.607
15.0801
278.982
135.725
122.684
210.543
200.923
152.952
138.405
170.166
173.332
129.328
115.916
139.959
133.989
106.592
94.7789
102.735
99.1406
84.7798
75.2622
70.0167
70.9625
64.602
57.5825
43.8569
52.2483
47.2919
41.3092
25.4814
47.4533
38.4415
23.5896
13.3164
279.375
135.374
121.53
209.303
200.59
153.153
137.76
168.553
173.45
130.026
115.743
138.424
134.546
107.44
94.8098
101.367
99.9524
85.596
75.3777
68.7956
71.8361
65.2934
57.7425
42.7377
53.0502
47.9102
41.5363
24.4469
48.1941
39.3728
23.9186
12.336
279.27
134.783
120.425
208.215
200.504
153.086
137.069
167.47
173.672
130.479
115.565
137.396
135.081
108.163
94.9624
100.466
100.67
86.401
75.7067
68.0032
72.6034
66.0351
58.1259
42.0191
53.7781
48.5474
41.8951
23.7874
48.9576
40.1103
24.1744
11.745
279.04
134.293
119.622
207.418
200.488
152.946
136.518
166.774
173.864
130.717
115.391
136.752
135.469
108.625
95.0606
99.9129
101.167
86.9492
75.9603
67.5246
73.1287
66.5548
58.4266
41.5942
54.2866
48.9879
42.1571
23.4065
49.5179
40.5835
24.3065
11.3821
278.883
134.029
119.208
207.001
200.486
152.85
136.217
166.428
173.968
130.813
115.283
136.438
135.667
108.84
95.0991
99.6478
101.414
87.2149
76.0848
67.2974
73.387
66.8101
58.5776
41.3962
54.5377
49.2028
42.2839
23.2322
49.7998
40.8096
24.3551
11.2028
)
;

boundaryField
{
    interface
    {
        type            calculated;
        value           nonuniform List<scalar> 
192
(
444.128
223.33
215.231
158.196
114.249
78.5954
58.8817
49.9308
432.367
240.731
216.111
161.218
116.234
81.4361
62.0286
52.9112
437.023
235.627
214.603
160.444
115.619
80.6228
60.744
49.5906
440.531
232.568
213.393
160.125
115.846
81.0611
61.2193
49.3966
442.095
231.244
212.913
160.213
116.377
81.7858
62.0198
49.8397
442.534
230.705
212.852
160.498
116.935
82.4766
62.7783
50.5202
442.514
230.481
212.918
160.767
117.351
82.964
63.3098
51.0518
442.418
230.394
212.972
160.915
117.56
83.2039
63.5664
51.3132
305.643
178.958
180.52
141.278
109.401
81.0139
61.1594
55.209
106.242
139.295
145.902
132.791
114.462
92.2743
69.5187
51.2377
103.573
124.88
132.998
122.482
106.468
86.1902
63.1818
34.3805
266.659
151.584
151.046
114.432
85.4413
59.3303
39.1395
24.6182
363.857
193.114
180.267
127.796
85.6023
49.8577
26.3652
17.6243
349.412
208.428
180.228
128.95
85.5664
50.5493
27.8862
18.9713
351.266
202.677
177.126
126.429
83.2941
48.5043
25.7611
14.6118
352.604
198.919
174.272
123.891
80.9429
46.118
23.0081
11.7356
352.582
196.881
172.399
122.06
79.1556
44.1481
20.5347
9.69184
351.917
195.699
171.229
120.872
77.9459
42.7647
18.6994
8.34887
351.2
195
170.53
120.163
77.2087
41.9116
17.5352
7.50836
350.768
194.667
170.197
119.83
76.8592
41.5081
16.9804
7.10209
54.9343
52.0877
51.0965
51.1971
51.9327
52.7048
53.2873
53.5694
42.2587
37.9661
38.3142
39.6817
40.9399
41.8393
42.3971
42.6643
12.591
10.9834
10.8935
11.6805
12.3088
12.5303
12.5226
12.4705
21.2597
18.237
14.2133
11.7687
10.5771
9.85482
9.37457
9.1169
)
;
    }
    symmetry
    {
        type            symmetryPlane;
    }
    bottom
    {
        type            calculated;
        value           nonuniform List<scalar> 
32
(
254.923
219.858
215.918
216.366
216.808
216.885
216.795
216.706
80.0187
86.6661
87.2837
86.1574
84.845
83.7841
83.0785
82.7307
80.9566
82.433
80.465
77.8346
75.6898
74.1759
73.2299
72.7772
217.005
178.476
167.824
164.263
162.577
161.512
160.814
160.46
)
;
    }
}


// ************************************************************************* //
