/*--------------------------------*- C++ -*----------------------------------*\
| =========                 |                                                 |
| \\      /  F ield         | foam-extend: Open Source CFD                    |
|  \\    /   O peration     | Version:     3.1                                |
|   \\  /    A nd           | Web:         http://www.extend-project.de       |
|    \\/     M anipulation  |                                                 |
\*---------------------------------------------------------------------------*/
FoamFile
{
    version     2.0;
    format      ascii;
    class       volVectorField;
    location    "2.5";
    object      U;
}
// * * * * * * * * * * * * * * * * * * * * * * * * * * * * * * * * * * * * * //

dimensions      [0 1 -1 0 0 0 0];

internalField   nonuniform List<vector> 
256
(
(9.49612e-05 8.13458e-05 0.00014312)
(2.43948e-05 1.83321e-05 3.71351e-05)
(2.24432e-05 -2.59195e-05 -6.65991e-05)
(9.074e-05 -9.73198e-05 -0.000186319)
(0.000446298 0.000334637 0.000161745)
(0.00036537 8.74694e-05 4.71522e-05)
(0.000355379 -0.00012321 -9.6431e-05)
(0.000412117 -0.000383061 -0.000213932)
(0.000930938 0.00051811 0.00015832)
(0.000849894 0.00013766 4.03124e-05)
(0.000833434 -0.000209864 -9.23448e-05)
(0.000876536 -0.000604528 -0.00021234)
(0.00153697 0.000653874 0.000129189)
(0.00146242 0.000164615 2.87273e-05)
(0.00143958 -0.000292868 -8.30767e-05)
(0.00146207 -0.00079528 -0.000185578)
(0.00222414 0.000737367 9.02363e-05)
(0.00215503 0.000169783 1.2998e-05)
(0.00212647 -0.000368241 -7.26533e-05)
(0.00213146 -0.000946208 -0.000152685)
(0.00295343 0.000777518 4.99115e-05)
(0.00288952 0.000158093 -4.13924e-06)
(0.00285646 -0.000434961 -6.45156e-05)
(0.0028474 -0.00106142 -0.000122086)
(0.00369116 0.000784373 1.5033e-05)
(0.00363153 0.00013479 -2.08547e-05)
(0.00359535 -0.000491698 -5.97594e-05)
(0.00357658 -0.00114495 -9.9172e-05)
(0.00441538 0.000769251 -1.20979e-05)
(0.00435499 0.000105328 -3.68657e-05)
(0.00431631 -0.000538284 -5.83484e-05)
(0.00429475 -0.00120411 -8.6687e-05)
(0.000120502 7.95762e-05 7.8838e-05)
(5.50838e-05 1.75453e-05 2.03927e-05)
(5.34467e-05 -2.25809e-05 -4.14291e-05)
(0.000115067 -8.92321e-05 -0.00011056)
(0.000513986 0.000326681 0.000102922)
(0.000420883 8.35216e-05 2.73311e-05)
(0.000412707 -0.000119099 -6.65803e-05)
(0.00048472 -0.000375199 -0.000145651)
(0.00101003 0.000516631 0.000107379)
(0.000925878 0.000134853 2.45887e-05)
(0.000909764 -0.000212471 -6.94886e-05)
(0.000956033 -0.000608287 -0.000154329)
(0.00161475 0.000655693 9.28168e-05)
(0.00153754 0.000163872 1.73893e-05)
(0.00151413 -0.000296621 -6.59689e-05)
(0.00153777 -0.000801615 -0.000143182)
(0.00229189 0.00074295 6.90687e-05)
(0.00222138 0.000171938 6.75843e-06)
(0.00219173 -0.000371022 -6.09047e-05)
(0.00219585 -0.000952298 -0.000125028)
(0.00300817 0.000786205 4.28777e-05)
(0.00294348 0.000163112 -5.44839e-06)
(0.00290909 -0.000435267 -5.70609e-05)
(0.00289803 -0.00106506 -0.000107403)
(0.00373405 0.000795772 1.92028e-05)
(0.00367427 0.000142218 -1.78088e-05)
(0.00363697 -0.000489336 -5.56575e-05)
(0.0036158 -0.00114582 -9.4653e-05)
(0.00445161 0.000783258 -5.60045e-07)
(0.00439132 0.000114625 -2.98996e-05)
(0.00435194 -0.00053434 -5.71316e-05)
(0.00432836 -0.00120349 -8.86108e-05)
(0.000133945 8.38023e-05 4.52469e-05)
(6.5167e-05 1.84645e-05 1.11695e-05)
(6.34776e-05 -2.32321e-05 -2.65413e-05)
(0.000128059 -9.31286e-05 -6.7504e-05)
(0.000552855 0.000327452 6.3762e-05)
(0.000451506 8.27257e-05 1.50415e-05)
(0.000444016 -0.000117768 -4.51451e-05)
(0.000525078 -0.000375955 -9.66564e-05)
(0.00106224 0.000515247 7.00254e-05)
(0.000971559 0.000133775 1.36179e-05)
(0.000955734 -0.000211751 -5.05125e-05)
(0.00100888 -0.000607763 -0.000108591)
(0.00167138 0.000652995 6.39002e-05)
(0.00158971 0.000163021 9.11214e-06)
(0.00156603 -0.000295673 -5.08818e-05)
(0.0015937 -0.000799141 -0.000106963)
(0.00234719 0.000740986 5.09955e-05)
(0.00227364 0.000172305 2.16622e-06)
(0.00224322 -0.000369257 -4.97556e-05)
(0.00224912 -0.00094847 -9.96475e-05)
(0.00305913 0.000786774 3.54569e-05)
(0.00299246 0.000165416 -6.18259e-06)
(0.00295699 -0.000432369 -4.91377e-05)
(0.00294608 -0.00106052 -9.17757e-05)
(0.00378055 0.000800448 2.04498e-05)
(0.00371957 0.000146825 -1.50835e-05)
(0.00368105 -0.000485454 -5.00897e-05)
(0.00365875 -0.0011417 -8.65367e-05)
(0.00449659 0.0007929 6.509e-06)
(0.00443573 0.000121409 -2.43771e-05)
(0.00439516 -0.000530144 -5.31051e-05)
(0.00436988 -0.00120119 -8.50775e-05)
(0.000141202 8.68273e-05 2.66237e-05)
(6.91177e-05 1.91646e-05 6.10469e-06)
(6.72385e-05 -2.37906e-05 -1.7149e-05)
(0.000134757 -9.63745e-05 -4.17283e-05)
(0.000576045 0.000330483 3.93839e-05)
(0.000469136 8.32105e-05 7.99982e-06)
(0.000461686 -0.000117219 -3.06607e-05)
(0.000548124 -0.000378388 -6.39791e-05)
(0.00109612 0.000516186 4.49984e-05)
(0.00100076 0.000134048 6.96695e-06)
(0.000984937 -0.000210543 -3.62681e-05)
(0.00104264 -0.000607454 -7.55158e-05)
(0.00171167 0.000652203 4.30209e-05)
(0.00162644 0.000163203 4.02285e-06)
(0.00160245 -0.00029375 -3.84726e-05)
(0.00163313 -0.000796347 -7.83934e-05)
(0.00238999 0.000739884 3.65344e-05)
(0.00231394 0.000172998 -5.34951e-07)
(0.00228298 -0.000366576 -3.95017e-05)
(0.00229046 -0.000944074 -7.7276e-05)
(0.00310212 0.000787068 2.78032e-05)
(0.00303381 0.000167293 -6.20161e-06)
(0.00299758 -0.000429013 -4.07112e-05)
(0.00298707 -0.00105562 -7.5298e-05)
(0.00382309 0.00080367 1.85848e-05)
(0.00376108 0.000150361 -1.25857e-05)
(0.00372164 -0.000481656 -4.28949e-05)
(0.00369876 -0.00113748 -7.45451e-05)
(0.00453986 0.000799771 8.8675e-06)
(0.00447838 0.000126685 -1.97422e-05)
(0.00443678 -0.000526302 -4.6445e-05)
(0.00441031 -0.00119857 -7.57188e-05)
(0.000145489 8.8806e-05 1.58592e-05)
(7.10241e-05 1.96527e-05 3.32757e-06)
(6.89347e-05 -2.41554e-05 -1.1001e-05)
(0.000138467 -9.85123e-05 -2.58021e-05)
(0.00059054 0.000333639 2.41815e-05)
(0.000479834 8.40938e-05 4.08495e-06)
(0.00047218 -0.000116913 -2.06059e-05)
(0.00056191 -0.000380664 -4.19541e-05)
(0.00111861 0.000518498 2.84957e-05)
(0.00102 0.000135046 3.22051e-06)
(0.00100396 -0.000209547 -2.54817e-05)
(0.00106439 -0.000607961 -5.15925e-05)
(0.00174004 0.000653401 2.83184e-05)
(0.00165229 0.000164192 1.24072e-06)
(0.00162801 -0.000292045 -2.81598e-05)
(0.0016606 -0.000794941 -5.58827e-05)
(0.00242208 0.000740627 2.52948e-05)
(0.0023442 0.000174251 -1.75981e-06)
(0.0023128 -0.00036424 -3.0018e-05)
(0.0023213 -0.000941282 -5.75679e-05)
(0.00313631 0.000788474 2.05822e-05)
(0.00306669 0.000169243 -5.58066e-06)
(0.00302992 -0.000426198 -3.19354e-05)
(0.00301968 -0.00105229 -5.84882e-05)
(0.00385854 0.00080682 1.50439e-05)
(0.00379565 0.00015336 -1.00972e-05)
(0.00375556 -0.000478566 -3.44529e-05)
(0.00373231 -0.00113447 -5.98931e-05)
(0.00457679 0.000805233 8.3931e-06)
(0.00451466 0.000130852 -1.54682e-05)
(0.00447224 -0.000523163 -3.78246e-05)
(0.00444487 -0.00119651 -6.21517e-05)
(0.000148155 9.00854e-05 9.27518e-06)
(7.21007e-05 1.99822e-05 1.78072e-06)
(6.98343e-05 -2.4383e-05 -6.78868e-06)
(0.000140639 -9.98614e-05 -1.54875e-05)
(0.000599742 0.000336272 1.43813e-05)
(0.000486506 8.49619e-05 1.97145e-06)
(0.000478601 -0.000116741 -1.32305e-05)
(0.000570326 -0.000382451 -2.63981e-05)
(0.00113343 0.000521056 1.73437e-05)
(0.00103261 0.000136205 1.2817e-06)
(0.00101629 -0.00020887 -1.69237e-05)
(0.00107829 -0.000608835 -3.35225e-05)
(0.00175945 0.000655459 1.77583e-05)
(0.00166999 0.000165457 -2.22895e-08)
(0.0016454 -0.000290825 -1.92719e-05)
(0.00167903 -0.0007946 -3.74782e-05)
(0.002445 0.00074238 1.64739e-05)
(0.00236583 0.000175694 -1.93707e-06)
(0.00233407 -0.000362553 -2.10952e-05)
(0.00234315 -0.000939954 -3.984e-05)
(0.00316165 0.000790526 1.40408e-05)
(0.00309107 0.000171097 -4.41228e-06)
(0.00305387 -0.000424161 -2.29412e-05)
(0.00304374 -0.00105046 -4.16595e-05)
(0.00388557 0.000809826 1.08303e-05)
(0.00382197 0.000155842 -7.44644e-06)
(0.00378138 -0.00047632 -2.51481e-05)
(0.00375785 -0.00113269 -4.36266e-05)
(0.00460532 0.000809587 6.48485e-06)
(0.00454259 0.00013407 -1.12134e-05)
(0.00449954 -0.000520832 -2.78518e-05)
(0.00447155 -0.00119515 -4.58801e-05)
(0.000149753 9.08611e-05 4.87651e-06)
(7.27299e-05 2.01871e-05 8.71359e-07)
(7.03454e-05 -2.45156e-05 -3.69272e-06)
(0.000141903 -0.000100656 -8.27248e-06)
(0.000605267 0.000338122 7.61949e-06)
(0.000490486 8.56145e-05 8.55488e-07)
(0.000482389 -0.000116656 -7.4078e-06)
(0.000575269 -0.000383672 -1.45723e-05)
(0.00114251 0.000523103 9.33185e-06)
(0.00104033 0.000137148 4.04143e-07)
(0.00102375 -0.000208471 -9.69497e-06)
(0.00108661 -0.000609643 -1.89211e-05)
(0.00177167 0.000657357 9.74975e-06)
(0.00168112 0.000166538 -3.48224e-07)
(0.00165628 -0.00029007 -1.12564e-05)
(0.00169047 -0.000794733 -2.15946e-05)
(0.0024598 0.000744134 9.27443e-06)
(0.00237978 0.000176906 -1.42258e-06)
(0.00234777 -0.000361495 -1.25288e-05)
(0.00235715 -0.000939481 -2.34168e-05)
(0.00317836 0.000792414 8.13745e-06)
(0.00310714 0.000172544 -2.82279e-06)
(0.00306965 -0.00042287 -1.38127e-05)
(0.00305955 -0.00104962 -2.49285e-05)
(0.00390368 0.000812199 6.47162e-06)
(0.00383957 0.000157645 -4.57962e-06)
(0.00379864 -0.000474877 -1.52903e-05)
(0.0037749 -0.00113177 -2.64631e-05)
(0.00462459 0.00081268 4.00281e-06)
(0.00456141 0.000136299 -6.81999e-06)
(0.00451793 -0.000519302 -1.70208e-05)
(0.00448955 -0.0011944 -2.80473e-05)
(0.000150507 9.12297e-05 1.52267e-06)
(7.3028e-05 2.02858e-05 2.61372e-07)
(7.05877e-05 -2.45769e-05 -1.17196e-06)
(0.000142501 -0.000101026 -2.60199e-06)
(0.000607871 0.00033907 2.38545e-06)
(0.000492358 8.59588e-05 2.35259e-07)
(0.000484159 -0.000116624 -2.38722e-06)
(0.000577566 -0.000384294 -4.66187e-06)
(0.00114684 0.000524218 2.94412e-06)
(0.00104399 0.000137666 7.78066e-08)
(0.00102727 -0.000208286 -3.16066e-06)
(0.00109046 -0.000610106 -6.12268e-06)
(0.00177758 0.000658454 3.10739e-06)
(0.00168651 0.000167147 -1.69121e-07)
(0.00166152 -0.000289713 -3.70427e-06)
(0.00169595 -0.000794902 -7.0578e-06)
(0.00246705 0.000745183 2.99311e-06)
(0.00238663 0.000177588 -5.16301e-07)
(0.00235447 -0.000360988 -4.15596e-06)
(0.00236397 -0.000939367 -7.72707e-06)
(0.00318665 0.000793516 2.66308e-06)
(0.00311511 0.000173336 -9.70406e-07)
(0.00307746 -0.000422245 -4.61178e-06)
(0.00306736 -0.00104932 -8.2964e-06)
(0.00391272 0.000813497 2.14732e-06)
(0.00384837 0.0001586 -1.54653e-06)
(0.00380726 -0.000474166 -5.12859e-06)
(0.00378341 -0.0011314 -8.86349e-06)
(0.00463425 0.000814274 1.34516e-06)
(0.00457085 0.000137458 -2.29044e-06)
(0.00452715 -0.000518528 -5.72227e-06)
(0.00449857 -0.00119405 -9.42764e-06)
)
;

boundaryField
{
    interface
    {
        type            calculated;
        value           nonuniform List<vector> 
192
(
(0.000236581 0.000243993 0.000157475)
(0.000517626 0.000515014 0.000198375)
(0.00101016 0.000773185 0.0001996)
(0.00160314 0.000958173 0.000166161)
(0.00228068 0.00107658 0.000119189)
(0.00300015 0.00113397 6.97678e-05)
(0.00373076 0.00114464 2.74107e-05)
(0.00445152 0.00112862 -3.20454e-06)
(0.000265291 0.000266707 8.78195e-05)
(0.000595774 0.000517114 0.000127516)
(0.00108955 0.000771681 0.000137883)
(0.00168181 0.000955905 0.000123302)
(0.00234852 0.00107553 9.65274e-05)
(0.00305534 0.00113613 6.59223e-05)
(0.00377459 0.00115146 3.83671e-05)
(0.00448882 0.00114221 1.73138e-05)
(0.000289177 0.000286161 5.0467e-05)
(0.00063936 0.000525923 7.87625e-05)
(0.00114549 0.000772785 9.02523e-05)
(0.00174049 0.000952617 8.63883e-05)
(0.00240452 0.00107098 7.33421e-05)
(0.00310617 0.00113375 5.6458e-05)
(0.00382058 0.00115414 4.00718e-05)
(0.00453257 0.00115252 2.61171e-05)
(0.000303974 0.000298664 2.96176e-05)
(0.000666341 0.000534379 4.86152e-05)
(0.00118267 0.000777053 5.82893e-05)
(0.00178309 0.000952908 5.89724e-05)
(0.00244859 0.00106958 5.37055e-05)
(0.00314972 0.00113323 4.5276e-05)
(0.00386326 0.00115688 3.60939e-05)
(0.00457543 0.00116031 2.70385e-05)
(0.000313211 0.00030664 1.76052e-05)
(0.000683574 0.000541292 2.99453e-05)
(0.00120765 0.000782286 3.71971e-05)
(0.00181323 0.00095581 3.9365e-05)
(0.00248184 0.0010711 3.78541e-05)
(0.00318456 0.00113494 3.40598e-05)
(0.00389905 0.00116034 2.913e-05)
(0.0046123 0.00116676 2.33366e-05)
(0.000319037 0.000311738 1.02869e-05)
(0.000694616 0.000546468 1.79098e-05)
(0.00122419 0.000787061 2.28546e-05)
(0.0018339 0.000959465 2.50164e-05)
(0.00250565 0.00107391 2.50305e-05)
(0.00321047 0.00113768 2.35344e-05)
(0.00392643 0.00116391 2.10114e-05)
(0.00464098 0.00117197 1.74438e-05)
(0.00032252 0.000314807 5.40811e-06)
(0.000701255 0.0005499 9.54044e-06)
(0.00123434 0.000790579 1.24028e-05)
(0.00184691 0.000962533 1.38814e-05)
(0.00252102 0.00107655 1.42528e-05)
(0.00322757 0.00114021 1.37655e-05)
(0.00394482 0.0011668 1.25953e-05)
(0.00466043 0.0011757 1.0652e-05)
(0.000324158 0.000316257 1.68934e-06)
(0.000704383 0.000551609 2.99638e-06)
(0.00123917 0.000792429 3.93272e-06)
(0.0018532 0.000964242 4.45042e-06)
(0.00252855 0.00107808 4.62783e-06)
(0.00323605 0.00114167 4.52657e-06)
(0.003954 0.0011684 4.18785e-06)
(0.00467018 0.00117763 3.57017e-06)
(7.32904e-05 0.000164863 0.00022289)
(0.000394809 0.00033395 0.000180142)
(0.000879294 0.000514762 0.000184536)
(0.00149085 0.00063881 0.000145878)
(0.00218948 0.000718527 0.00010048)
(0.00293097 0.000758238 5.34995e-05)
(0.00367894 0.000767575 1.3681e-05)
(0.00441005 0.000757162 -1.77614e-05)
(-1.17745e-05 4.54463e-05 5.43379e-05)
(0.000292788 8.8462e-05 5.3865e-05)
(0.0007826 0.000139225 4.64658e-05)
(0.0014052 0.000162186 3.23684e-05)
(0.00211247 0.00016473 1.45773e-05)
(0.00286147 0.000151218 -4.57572e-06)
(0.00361591 0.000126954 -2.29594e-05)
(0.00434865 9.78063e-05 -4.15888e-05)
(-1.56403e-05 -7.49557e-05 -9.42025e-05)
(0.000282917 -0.000118085 -0.00010122)
(0.000766551 -0.000202719 -9.99447e-05)
(0.00138321 -0.000282303 -8.89773e-05)
(0.00208461 -0.000359518 -7.74891e-05)
(0.00282877 -0.000429431 -6.80465e-05)
(0.00357975 -0.000489812 -6.22082e-05)
(0.00430928 -0.000540149 -5.85766e-05)
(6.30586e-05 -0.000217873 -0.000270496)
(0.000361712 -0.00037868 -0.000230197)
(0.000825487 -0.000595489 -0.000240326)
(0.00141813 -0.000774722 -0.000204573)
(0.00209879 -0.000926325 -0.000166407)
(0.00282598 -0.00104569 -0.000129992)
(0.00356394 -0.00113559 -0.000102562)
(0.00428692 -0.00120231 -8.5916e-05)
(0.000212021 -0.000286053 -0.000200907)
(0.000462759 -0.00057425 -0.000250876)
(0.000924962 -0.000877534 -0.000255814)
(0.00148904 -0.00111375 -0.000224557)
(0.00214256 -0.00129589 -0.00018374)
(0.0028458 -0.0014244 -0.00014422)
(0.00356728 -0.00150883 -0.000114174)
(0.00428325 -0.0015634 -9.86608e-05)
(0.000233288 -0.000306079 -0.000120236)
(0.000545791 -0.000580654 -0.000171267)
(0.00100454 -0.000880364 -0.000186047)
(0.00156574 -0.00111577 -0.00017403)
(0.00220743 -0.00129515 -0.000152315)
(0.00289683 -0.00142172 -0.00013011)
(0.00360687 -0.00150578 -0.000113791)
(0.00431681 -0.00156286 -0.000106759)
(0.000253689 -0.000329012 -7.30961e-05)
(0.000589831 -0.000591161 -0.000112157)
(0.00106103 -0.00088208 -0.000129462)
(0.00162421 -0.00111249 -0.00012963)
(0.00226192 -0.00128862 -0.000121754)
(0.00294514 -0.00141434 -0.000112388)
(0.00364913 -0.00149989 -0.000106017)
(0.00435679 -0.00156103 -0.000104643)
(0.000266192 -0.000343858 -4.49291e-05)
(0.000615911 -0.000599915 -7.34285e-05)
(0.00109775 -0.000885376 -8.91791e-05)
(0.00166569 -0.00111081 -9.4525e-05)
(0.00230436 -0.00128395 -9.43844e-05)
(0.0029864 -0.00140873 -9.26086e-05)
(0.00368871 -0.00149538 -9.19714e-05)
(0.00439612 -0.0015592 -9.39034e-05)
(0.00027376 -0.000352949 -2.76766e-05)
(0.000631873 -0.000606451 -4.7802e-05)
(0.00112146 -0.000889073 -6.05379e-05)
(0.00169455 -0.00111124 -6.71047e-05)
(0.00233591 -0.00128205 -7.02153e-05)
(0.00301916 -0.00140579 -7.20019e-05)
(0.00372197 -0.00149277 -7.40329e-05)
(0.00442987 -0.00155791 -7.71557e-05)
(0.000278381 -0.000358478 -1.65882e-05)
(0.000641722 -0.000611036 -2.99677e-05)
(0.0011366 -0.000892368 -3.91873e-05)
(0.00171377 -0.00111264 -4.48739e-05)
(0.00235817 -0.00128188 -4.85096e-05)
(0.00304327 -0.00140472 -5.12536e-05)
(0.00374729 -0.00149156 -5.39114e-05)
(0.00445607 -0.0015572 -5.6902e-05)
(0.000281101 -0.00036168 -8.86213e-06)
(0.000647539 -0.000613948 -1.65153e-05)
(0.00114563 -0.000894758 -2.20759e-05)
(0.00172564 -0.00111406 -2.58041e-05)
(0.00237239 -0.00128237 -2.84769e-05)
(0.00305908 -0.00140456 -3.06389e-05)
(0.00376419 -0.00149115 -3.26697e-05)
(0.0044738 -0.00155693 -3.47453e-05)
(0.000282387 -0.000363161 -2.78878e-06)
(0.000650246 -0.000615362 -5.2773e-06)
(0.00114977 -0.000895995 -7.13472e-06)
(0.00173134 -0.0011149 -8.42128e-06)
(0.00237931 -0.00128278 -9.39008e-06)
(0.00306689 -0.00140463 -1.01894e-05)
(0.00377262 -0.00149106 -1.09343e-05)
(0.00448269 -0.00155684 -1.167e-05)
(0.00477373 0.000758609 -2.13005e-05)
(0.00481204 0.000773372 -8.35738e-06)
(0.00485913 0.000785333 -3.46327e-07)
(0.00490416 0.000793812 3.26785e-06)
(0.0049425 0.000800402 3.91375e-06)
(0.00497214 0.000805422 3.17925e-06)
(0.00499218 0.000808874 1.96612e-06)
(0.00500222 0.000810607 6.57704e-07)
(0.00469374 9.4824e-05 -4.23595e-05)
(0.00473341 0.00010429 -3.4887e-05)
(0.00478028 0.000111751 -2.89205e-05)
(0.00482463 0.000117741 -2.35685e-05)
(0.0048621 0.000122498 -1.85379e-05)
(0.00489089 0.000126119 -1.34675e-05)
(0.00491029 0.000128596 -8.20138e-06)
(0.00492003 0.000129876 -2.75583e-06)
(0.00465245 -0.000559079 -6.01604e-05)
(0.0046912 -0.000555185 -5.97609e-05)
(0.00473649 -0.000551147 -5.5892e-05)
(0.00477952 -0.000547427 -4.90435e-05)
(0.00481597 -0.000544327 -3.99651e-05)
(0.004844 -0.000541973 -2.94198e-05)
(0.00486288 -0.0005404 -1.79705e-05)
(0.00487236 -0.000539588 -6.04031e-06)
(0.00464589 -0.00122921 -8.6066e-05)
(0.00468139 -0.00122846 -8.96628e-05)
(0.00472424 -0.00122755 -8.65899e-05)
(0.00476577 -0.00122593 -7.73622e-05)
(0.0048012 -0.00122448 -6.35539e-05)
(0.00482856 -0.00122341 -4.69001e-05)
(0.00484703 -0.00122277 -2.86472e-05)
(0.0048563 -0.00122245 -9.62522e-06)
)
;
    }
    symmetry
    {
        type            symmetryPlane;
    }
    bottom
    {
        type            calculated;
        value           uniform (0 0 0);
    }
}


// ************************************************************************* //
