/*--------------------------------*- C++ -*----------------------------------*\
| =========                 |                                                 |
| \\      /  F ield         | foam-extend: Open Source CFD                    |
|  \\    /   O peration     | Version:     3.1                                |
|   \\  /    A nd           | Web:         http://www.extend-project.de       |
|    \\/     M anipulation  |                                                 |
\*---------------------------------------------------------------------------*/
FoamFile
{
    version     2.0;
    format      ascii;
    class       volVectorField;
    location    "0.0003";
    object      cellMotionU;
}
// * * * * * * * * * * * * * * * * * * * * * * * * * * * * * * * * * * * * * //

dimensions      [0 1 -1 0 0 0 0];

internalField   nonuniform List<vector> 
16000
(
(-3.46743e-11 -1.93088e-11 6.82041e-09)
(-9.37438e-11 -3.10164e-11 7.05459e-09)
(-1.22747e-10 -5.28078e-11 7.526e-09)
(-1.0787e-10 -8.19642e-11 8.25687e-09)
(-3.8908e-11 -1.15321e-10 9.29355e-09)
(8.62626e-11 -1.50759e-10 1.07088e-08)
(2.53788e-10 -1.86967e-10 1.26048e-08)
(4.18291e-10 -2.24775e-10 1.51205e-08)
(4.76318e-10 -2.69298e-10 1.84333e-08)
(2.2772e-10 -3.31731e-10 2.27757e-08)
(-4.56206e-11 -4.83262e-11 7.04087e-09)
(-1.29167e-10 -8.53777e-11 7.26676e-09)
(-1.86749e-10 -1.54249e-10 7.72451e-09)
(-2.06476e-10 -2.45979e-10 8.43618e-09)
(-1.82185e-10 -3.51367e-10 9.44651e-09)
(-1.16269e-10 -4.62721e-10 1.08212e-08)
(-3.04995e-11 -5.76358e-10 1.26489e-08)
(1.72537e-11 -6.95426e-10 1.50465e-08)
(-9.25177e-11 -8.30154e-10 1.81314e-08)
(-5.89383e-10 -1.00705e-09 2.19952e-08)
(-6.6427e-11 -5.03347e-11 7.48837e-09)
(-1.94752e-10 -1.15853e-10 7.69873e-09)
(-3.05792e-10 -2.38793e-10 8.13109e-09)
(-3.90481e-10 -4.03164e-10 8.80616e-09)
(-4.48682e-10 -5.91671e-10 9.76423e-09)
(-4.91524e-10 -7.91055e-10 1.10632e-08)
(-5.50842e-10 -9.94576e-10 1.27785e-08)
(-6.98317e-10 -1.20415e-09 1.49832e-08)
(-1.0727e-09 -1.4332e-09 1.77288e-08)
(-1.92092e-09 -1.71361e-09 2.09986e-08)
(-9.34362e-11 -1.26021e-11 8.18566e-09)
(-2.80943e-10 -1.12171e-10 8.37641e-09)
(-4.62435e-10 -2.98612e-10 8.77059e-09)
(-6.34601e-10 -5.49587e-10 9.39254e-09)
(-8.01927e-10 -8.38678e-10 1.0281e-08)
(-9.83426e-10 -1.14361e-09 1.14831e-08)
(-1.22166e-09 -1.45422e-09 1.3057e-08)
(-1.59573e-09 -1.77071e-09 1.50527e-08)
(-2.24769e-09 -2.10653e-09 1.74737e-08)
(-3.41715e-09 -2.49481e-09 2.02507e-08)
(-1.23666e-10 7.26204e-11 9.17947e-09)
(-3.77586e-10 -6.89791e-11 9.34487e-09)
(-6.385e-10 -3.34636e-10 9.68679e-09)
(-9.09246e-10 -6.90894e-10 1.02376e-08)
(-1.19991e-09 -1.10141e-09 1.10366e-08)
(-1.53321e-09 -1.53469e-09 1.21285e-08)
(-1.95775e-09 -1.97545e-09 1.35602e-08)
(-2.55552e-09 -2.42468e-09 1.53609e-08)
(-3.45595e-09 -2.8954e-09 1.75199e-08)
(-4.86785e-09 -3.42122e-09 1.99547e-08)
(-1.54713e-10 2.03127e-10 1.05418e-08)
(-4.76349e-10 7.80445e-12 1.06683e-08)
(-8.18983e-10 -3.57941e-10 1.09372e-08)
(-1.19193e-09 -8.46081e-10 1.1393e-08)
(-1.60938e-09 -1.40369e-09 1.20817e-08)
(-2.09953e-09 -1.99305e-09 1.30528e-08)
(-2.70832e-09 -2.59271e-09 1.43443e-08)
(-3.51092e-09 -3.2031e-09 1.59727e-08)
(-4.62933e-09 -3.85224e-09 1.79276e-08)
(-6.22625e-09 -4.57007e-09 2.01284e-08)
(-1.84856e-10 3.57881e-10 1.23737e-08)
(-5.72641e-10 9.13554e-11 1.24352e-08)
(-9.96586e-10 -4.03228e-10 1.25973e-08)
(-1.4717e-09 -1.05557e-09 1.29183e-08)
(-2.01758e-09 -1.79296e-09 1.34686e-08)
(-2.66265e-09 -2.5644e-09 1.42974e-08)
(-3.45448e-09 -3.35264e-09 1.54424e-08)
(-4.46086e-09 -4.16146e-09 1.69154e-08)
(-5.77828e-09 -5.02766e-09 1.86919e-08)
(-7.54229e-09 -5.99938e-09 2.06946e-08)
(-2.14101e-10 4.79589e-10 1.48118e-08)
(-6.67577e-10 1.16439e-10 1.47612e-08)
(-1.17112e-09 -5.43407e-10 1.47402e-08)
(-1.7477e-09 -1.39614e-09 1.48627e-08)
(-2.42424e-09 -2.34325e-09 1.52257e-08)
(-3.23199e-09 -3.32346e-09 1.58876e-08)
(-4.21105e-09 -4.31918e-09 1.68696e-08)
(-5.42912e-09 -5.35528e-09 1.81785e-08)
(-6.93668e-09 -6.45119e-09 1.97498e-08)
(-8.87801e-09 -7.71794e-09 2.1538e-08)
(-2.45743e-10 4.44496e-10 1.80296e-08)
(-7.67169e-10 -4.70582e-11 1.77619e-08)
(-1.35207e-09 -9.16787e-10 1.74186e-08)
(-2.03223e-09 -2.00327e-09 1.72335e-08)
(-2.84602e-09 -3.17897e-09 1.73473e-08)
(-3.83319e-09 -4.38004e-09 1.7811e-08)
(-5.02976e-09 -5.59554e-09 1.86144e-08)
(-6.469e-09 -6.84789e-09 1.97186e-08)
(-8.17007e-09 -8.15878e-09 2.10363e-08)
(-1.02791e-08 -9.69414e-09 2.25453e-08)
(-2.8692e-10 1.70199e-11 2.22534e-08)
(-8.89181e-10 -6.41464e-10 2.15271e-08)
(-1.56279e-09 -1.7625e-09 2.06187e-08)
(-2.35437e-09 -3.10002e-09 1.99679e-08)
(-3.31943e-09 -4.49511e-09 1.97579e-08)
(-4.51291e-09 -5.89865e-09 1.99972e-08)
(-5.9741e-09 -7.32444e-09 2.06092e-08)
(-7.7041e-09 -8.78998e-09 2.14893e-08)
(-9.65379e-09 -1.02881e-08 2.25193e-08)
(-1.17811e-08 -1.18573e-08 2.36016e-08)
(-9.06292e-11 -4.23752e-11 1.88022e-08)
(-2.36671e-10 -7.52441e-11 1.94109e-08)
(-2.7833e-10 -1.35916e-10 2.06328e-08)
(-1.56132e-10 -2.15998e-10 2.25192e-08)
(1.93026e-10 -3.0569e-10 2.5183e-08)
(8.35662e-10 -3.97548e-10 2.88065e-08)
(1.84115e-09 -4.85582e-10 3.36555e-08)
(3.27725e-09 -5.68424e-10 4.01106e-08)
(5.20403e-09 -6.53803e-10 4.86995e-08)
(7.69599e-09 -7.61203e-10 6.01946e-08)
(-1.21075e-10 -9.3795e-11 1.93722e-08)
(-3.35238e-10 -1.97568e-10 1.99605e-08)
(-4.56443e-10 -3.89292e-10 2.11493e-08)
(-4.31608e-10 -6.41485e-10 2.29898e-08)
(-2.10184e-10 -9.25063e-10 2.55911e-08)
(2.58102e-10 -1.2139e-09 2.91185e-08)
(1.01123e-09 -1.49055e-09 3.38049e-08)
(2.0608e-09 -1.75207e-09 3.99771e-08)
(3.36172e-09 -2.00874e-09 4.801e-08)
(4.73774e-09 -2.30304e-09 5.8307e-08)
(-1.7854e-10 -4.96851e-11 2.05261e-08)
(-5.16604e-10 -2.32819e-10 2.10764e-08)
(-7.86447e-10 -5.74916e-10 2.22043e-08)
(-9.43299e-10 -1.02754e-09 2.39577e-08)
(-9.56659e-10 -1.53573e-09 2.6435e-08)
(-8.05955e-10 -2.0538e-09 2.97834e-08)
(-4.92614e-10 -2.55039e-09 3.42044e-08)
(-7.59891e-11 -3.01165e-09 3.99164e-08)
(2.7736e-10 -3.44499e-09 4.71285e-08)
(1.99961e-10 -3.89102e-09 5.59605e-08)
(-2.5216e-10 1.47269e-10 2.23167e-08)
(-7.51956e-10 -1.31802e-10 2.28201e-08)
(-1.21547e-09 -6.51666e-10 2.38568e-08)
(-1.61462e-09 -1.34413e-09 2.54845e-08)
(-1.93334e-09 -2.12566e-09 2.7798e-08)
(-2.17933e-09 -2.92031e-09 3.09184e-08)
(-2.39553e-09 -3.68063e-09 3.50068e-08)
(-2.68272e-09 -4.3798e-09 4.02267e-08)
(-3.26301e-09 -5.01406e-09 4.6667e-08)
(-4.55683e-09 -5.61082e-09 5.43106e-08)
(-3.32673e-10 5.53484e-10 2.48576e-08)
(-1.00966e-09 1.54369e-10 2.53013e-08)
(-1.68639e-09 -5.91267e-10 2.62144e-08)
(-2.3527e-09 -1.57874e-09 2.76744e-08)
(-3.00892e-09 -2.69217e-09 2.9778e-08)
(-3.67498e-09 -3.82532e-09 3.26415e-08)
(-4.41827e-09 -4.90848e-09 3.64004e-08)
(-5.36066e-09 -5.90695e-09 4.11704e-08)
(-6.70383e-09 -6.80337e-09 4.70087e-08)
(-8.80573e-09 -7.61025e-09 5.3865e-08)
(-4.1177e-10 1.22384e-09 2.83294e-08)
(-1.26185e-09 6.66326e-10 2.86815e-08)
(-2.14918e-09 -3.72001e-10 2.9423e-08)
(-3.08133e-09 -1.73722e-09 3.06608e-08)
(-4.07088e-09 -3.25835e-09 3.25077e-08)
(-5.15181e-09 -4.80402e-09 3.50938e-08)
(-6.38435e-09 -6.2832e-09 3.85358e-08)
(-7.87718e-09 -7.64894e-09 4.29221e-08)
(-9.80986e-09 -8.90497e-09 4.8321e-08)
(-1.24057e-08 -1.00392e-08 5.46927e-08)
(-4.82426e-10 2.20766e-09 3.29941e-08)
(-1.48868e-09 1.42833e-09 3.31928e-08)
(-2.57096e-09 -2.77457e-12 3.36844e-08)
(-3.75189e-09 -1.85537e-09 3.46082e-08)
(-5.05733e-09 -3.88621e-09 3.61369e-08)
(-6.5226e-09 -5.91815e-09 3.84009e-08)
(-8.20714e-09 -7.86392e-09 4.15221e-08)
(-1.01909e-08 -9.68211e-09 4.55854e-08)
(-1.25875e-08 -1.13844e-08 5.06321e-08)
(-1.55254e-08 -1.29805e-08 5.66496e-08)
(-5.41124e-10 3.53894e-09 3.92254e-08)
(-1.68203e-09 2.43162e-09 3.91579e-08)
(-2.93289e-09 4.54445e-10 3.92166e-08)
(-4.33545e-09 -2.02653e-09 3.96775e-08)
(-5.93299e-09 -4.67359e-09 4.07787e-08)
(-7.76533e-09 -7.27007e-09 4.26754e-08)
(-9.87286e-09 -9.72728e-09 4.54527e-08)
(-1.23219e-08 -1.20539e-08 4.91965e-08)
(-1.51131e-08 -1.42316e-08 5.38469e-08)
(-1.83643e-08 -1.63787e-08 5.95124e-08)
(-5.90846e-10 5.21963e-09 4.754e-08)
(-1.84136e-09 3.60127e-09 4.69455e-08)
(-3.23262e-09 8.35703e-10 4.62303e-08)
(-4.82645e-09 -2.45186e-09 4.59673e-08)
(-6.69161e-09 -5.80555e-09 4.65032e-08)
(-8.88545e-09 -9.00293e-09 4.7979e-08)
(-1.14351e-08 -1.19896e-08 5.04067e-08)
(-1.43316e-08 -1.47902e-08 5.37568e-08)
(-1.74992e-08 -1.74065e-08 5.79154e-08)
(-2.1046e-08 -2.00616e-08 6.30815e-08)
(-6.40471e-10 7.22162e-09 5.86919e-08)
(-1.98653e-09 4.72477e-09 5.6953e-08)
(-3.48921e-09 7.98166e-10 5.4851e-08)
(-5.2432e-09 -3.50142e-09 5.34753e-08)
(-7.35496e-09 -7.59734e-09 5.32781e-08)
(-9.91306e-09 -1.13411e-08 5.43006e-08)
(-1.29484e-08 -1.47948e-08 5.63981e-08)
(-1.63815e-08 -1.80233e-08 5.93735e-08)
(-2.00063e-08 -2.10078e-08 6.30052e-08)
(-2.36108e-08 -2.37659e-08 6.71761e-08)
(-1.34093e-10 -4.72869e-11 2.65387e-08)
(-3.39675e-10 -9.57059e-11 2.72886e-08)
(-3.56698e-10 -1.8427e-10 2.87812e-08)
(-6.31017e-11 -2.99518e-10 3.10553e-08)
(6.91574e-10 -4.25526e-10 3.42134e-08)
(2.10508e-09 -5.48971e-10 3.84309e-08)
(4.45448e-09 -6.57682e-10 4.39714e-08)
(8.14687e-09 -7.44398e-10 5.12241e-08)
(1.38062e-08 -8.11713e-10 6.0746e-08)
(2.24855e-08 -8.73052e-10 7.33821e-08)
(-1.78095e-10 -8.20875e-11 2.72318e-08)
(-4.82572e-10 -2.34488e-10 2.796e-08)
(-6.15943e-10 -5.14537e-10 2.94191e-08)
(-4.66743e-10 -8.77981e-10 3.1648e-08)
(9.4511e-11 -1.27676e-09 3.4746e-08)
(1.23496e-09 -1.66541e-09 3.88714e-08)
(3.16898e-09 -2.00761e-09 4.4256e-08)
(6.18384e-09 -2.28262e-09 5.12401e-08)
(1.06472e-08 -2.48118e-09 6.02297e-08)
(1.69664e-08 -2.62551e-09 7.17036e-08)
(-2.60744e-10 5.84575e-11 2.86228e-08)
(-7.44159e-10 -2.10467e-10 2.93116e-08)
(-1.09402e-09 -7.10376e-10 3.07105e-08)
(-1.21246e-09 -1.36432e-09 3.28549e-08)
(-1.00477e-09 -2.08089e-09 3.58325e-08)
(-3.57459e-10 -2.77974e-09 3.97851e-08)
(8.65143e-10 -3.3963e-09 4.49176e-08)
(2.78958e-09 -3.88348e-09 5.14618e-08)
(5.49029e-09 -4.21208e-09 5.96634e-08)
(8.85852e-09 -4.38088e-09 6.97236e-08)
(-3.65094e-10 4.94732e-10 3.07529e-08)
(-1.07866e-09 8.33074e-11 3.13955e-08)
(-1.70701e-09 -6.79032e-10 3.2705e-08)
(-2.17787e-09 -1.68247e-09 3.47276e-08)
(-2.42128e-09 -2.78898e-09 3.75478e-08)
(-2.37652e-09 -3.86572e-09 4.12796e-08)
(-1.99044e-09 -4.81502e-09 4.60898e-08)
(-1.2345e-09 -5.55931e-09 5.21607e-08)
(-1.95318e-10 -6.03886e-09 5.96193e-08)
(8.20186e-10 -6.21279e-09 6.85314e-08)
(-4.75993e-10 1.3683e-09 3.37256e-08)
(-1.43465e-09 7.75316e-10 3.43119e-08)
(-2.36092e-09 -3.2748e-10 3.55026e-08)
(-3.21038e-09 -1.76771e-09 3.73637e-08)
(-3.9392e-09 -3.35215e-09 3.99796e-08)
(-4.50942e-09 -4.89642e-09 4.34601e-08)
(-4.91809e-09 -6.25868e-09 4.79476e-08)
(-5.19207e-09 -7.33587e-09 5.35792e-08)
(-5.41555e-09 -8.03313e-09 6.04538e-08)
(-5.84295e-09 -8.26905e-09 6.86008e-08)
(-5.78972e-10 2.86062e-09 3.77137e-08)
(-1.76426e-09 2.01932e-09 3.82144e-08)
(-2.96996e-09 4.61583e-10 3.92433e-08)
(-4.1777e-09 -1.55339e-09 4.0893e-08)
(-5.36345e-09 -3.73648e-09 4.32593e-08)
(-6.50952e-09 -5.85466e-09 4.64673e-08)
(-7.60523e-09 -7.72941e-09 5.06402e-08)
(-8.6703e-09 -9.22599e-09 5.58889e-08)
(-9.7583e-09 -1.02532e-08 6.23327e-08)
(-1.09197e-08 -1.06805e-08 7.00074e-08)
(-6.60487e-10 5.21974e-09 4.29748e-08)
(-2.0282e-09 4.01059e-09 4.33329e-08)
(-3.46803e-09 1.81438e-09 4.41319e-08)
(-4.98257e-09 -9.72678e-10 4.54863e-08)
(-6.5655e-09 -3.92682e-09 4.75481e-08)
(-8.20334e-09 -6.73422e-09 5.04376e-08)
(-9.87848e-09 -9.21183e-09 5.42878e-08)
(-1.15595e-08 -1.12308e-08 5.92131e-08)
(-1.32149e-08 -1.26925e-08 6.53062e-08)
(-1.47317e-08 -1.34656e-08 7.26367e-08)
(-7.10462e-10 8.80245e-09 4.98872e-08)
(-2.19912e-09 7.0074e-09 5.00005e-08)
(-3.80224e-09 3.85614e-09 5.03992e-08)
(-5.54633e-09 1.67061e-11 5.13231e-08)
(-7.44718e-09 -3.91055e-09 5.29799e-08)
(-9.4943e-09 -7.53724e-09 5.55123e-08)
(-1.1647e-08 -1.06801e-08 5.90165e-08)
(-1.38378e-08 -1.32769e-08 6.3621e-08)
(-1.58956e-08 -1.52184e-08 6.93062e-08)
(-1.76481e-08 -1.64478e-08 7.62991e-08)
(-7.2505e-10 1.41446e-08 5.89898e-08)
(-2.25327e-09 1.13336e-08 5.86128e-08)
(-3.93125e-09 6.66873e-09 5.82911e-08)
(-5.80914e-09 1.36505e-09 5.85422e-08)
(-7.93188e-09 -3.74128e-09 5.967e-08)
(-1.03079e-08 -8.25831e-09 6.18026e-08)
(-1.28774e-08 -1.20828e-08 6.49659e-08)
(-1.54955e-08 -1.52148e-08 6.91686e-08)
(-1.78988e-08 -1.7603e-08 7.43415e-08)
(-1.98844e-08 -1.92859e-08 8.08356e-08)
(-7.031e-10 2.21407e-08 7.10992e-08)
(-2.18218e-09 1.73423e-08 6.96362e-08)
(-3.82526e-09 1.01856e-08 6.80132e-08)
(-5.71978e-09 2.84892e-09 6.72263e-08)
(-7.95389e-09 -3.60109e-09 6.76715e-08)
(-1.05689e-08 -8.94104e-09 6.93824e-08)
(-1.35069e-08 -1.33211e-08 7.22401e-08)
(-1.65525e-08 -1.68886e-08 7.60838e-08)
(-1.9336e-08 -1.96502e-08 8.07253e-08)
(-2.1462e-08 -2.15474e-08 8.61091e-08)
(-2.00183e-10 -6.87414e-11 2.90819e-08)
(-5.22699e-10 -1.25421e-10 2.9719e-08)
(-6.08893e-10 -2.29269e-10 3.09616e-08)
(-3.02764e-10 -3.64056e-10 3.27929e-08)
(5.96123e-10 -5.10312e-10 3.52222e-08)
(2.36327e-09 -6.5155e-10 3.82853e-08)
(5.40027e-09 -7.7241e-10 4.20405e-08)
(1.03154e-08 -8.63134e-10 4.65719e-08)
(1.80587e-08 -9.25307e-10 5.19767e-08)
(3.02301e-08 -9.72741e-10 5.83691e-08)
(-2.49952e-10 -1.31589e-10 2.96533e-08)
(-6.86401e-10 -3.10546e-10 3.02792e-08)
(-9.09207e-10 -6.39196e-10 3.15082e-08)
(-7.73832e-10 -1.06435e-09 3.33235e-08)
(-1.059e-10 -1.52731e-09 3.57343e-08)
(1.33002e-09 -1.97192e-09 3.87693e-08)
(3.85221e-09 -2.35231e-09 4.24781e-08)
(7.90661e-09 -2.64021e-09 4.69411e-08)
(1.40878e-08 -2.82052e-09 5.22186e-08)
(2.30958e-08 -2.91451e-09 5.83476e-08)
(-3.44721e-10 2.59484e-11 3.07764e-08)
(-9.87082e-10 -2.90497e-10 3.13835e-08)
(-1.46188e-09 -8.7782e-10 3.25907e-08)
(-1.64157e-09 -1.64325e-09 3.43786e-08)
(-1.39425e-09 -2.47547e-09 3.67491e-08)
(-5.53546e-10 -3.27511e-09 3.97277e-08)
(1.09315e-09 -3.96059e-09 4.33636e-08)
(3.77197e-09 -4.4701e-09 4.7701e-08)
(7.67104e-09 -4.76217e-09 5.27675e-08)
(1.27624e-08 -4.8282e-09 5.85548e-08)
(-4.63868e-10 5.59757e-10 3.24371e-08)
(-1.37027e-09 7.47958e-11 3.30277e-08)
(-2.16682e-09 -8.22296e-10 3.42036e-08)
(-2.75734e-09 -1.9981e-09 3.59518e-08)
(-3.04183e-09 -3.28434e-09 3.82712e-08)
(-2.92123e-09 -4.51734e-09 4.11716e-08)
(-2.29233e-09 -5.5736e-09 4.46923e-08)
(-1.06668e-09 -6.3525e-09 4.88712e-08)
(7.12132e-10 -6.77423e-09 5.37031e-08)
(2.72218e-09 -6.78125e-09 5.91519e-08)
(-5.89126e-10 1.66156e-09 3.46462e-08)
(-1.77341e-09 9.60372e-10 3.52223e-08)
(-2.91023e-09 -3.41494e-10 3.63611e-08)
(-3.93643e-09 -2.03333e-09 3.80561e-08)
(-4.78473e-09 -3.8784e-09 4.03e-08)
(-5.38693e-09 -5.64965e-09 4.30984e-08)
(-5.70645e-09 -7.16833e-09 4.64817e-08)
(-5.73367e-09 -8.30051e-09 5.04726e-08)
(-5.5265e-09 -8.92258e-09 5.50601e-08)
(-5.36341e-09 -8.92819e-09 6.01917e-08)
(-7.02776e-10 3.58912e-09 3.74369e-08)
(-2.138e-09 2.58785e-09 3.79921e-08)
(-3.58687e-09 7.38156e-10 3.90871e-08)
(-5.01675e-09 -1.64036e-09 4.07161e-08)
(-6.3842e-09 -4.19176e-09 4.28624e-08)
(-7.64645e-09 -6.62724e-09 4.55363e-08)
(-8.76184e-09 -8.72377e-09 4.87542e-08)
(-9.71829e-09 -1.03076e-08 5.25245e-08)
(-1.05405e-08 -1.12543e-08 5.68532e-08)
(-1.1266e-08 -1.14018e-08 6.16692e-08)
(-7.88045e-10 6.71043e-09 4.08612e-08)
(-2.41543e-09 5.25464e-09 4.1385e-08)
(-4.11473e-09 2.62139e-09 4.24319e-08)
(-5.87744e-09 -6.95742e-10 4.39756e-08)
(-7.68029e-09 -4.16967e-09 4.60071e-08)
(-9.4865e-09 -7.41169e-09 4.85175e-08)
(-1.12463e-08 -1.01914e-08 5.15291e-08)
(-1.28881e-08 -1.23445e-08 5.5056e-08)
(-1.43397e-08 -1.37366e-08 5.90838e-08)
(-1.54391e-08 -1.42032e-08 6.35408e-08)
(-8.32189e-10 1.15737e-08 4.49907e-08)
(-2.57073e-09 9.37407e-09 4.54725e-08)
(-4.42718e-09 5.53679e-09 4.6438e-08)
(-6.41947e-09 9.1101e-10 4.78716e-08)
(-8.5497e-09 -3.75038e-09 4.97551e-08)
(-1.07841e-08 -7.96531e-09 5.2076e-08)
(-1.3048e-08 -1.15073e-08 5.48352e-08)
(-1.52248e-08 -1.42928e-08 5.8066e-08)
(-1.70901e-08 -1.61926e-08 6.16898e-08)
(-1.83987e-08 -1.71138e-08 6.57232e-08)
(-8.297e-10 1.9021e-08 4.9902e-08)
(-2.57309e-09 1.54896e-08 5.03033e-08)
(-4.47075e-09 9.68714e-09 5.11334e-08)
(-6.56638e-09 3.18864e-09 5.24107e-08)
(-8.89468e-09 -2.94681e-09 5.41128e-08)
(-1.14435e-08 -8.23781e-09 5.62135e-08)
(-1.41181e-08 -1.25687e-08 5.8689e-08)
(-1.67228e-08 -1.59494e-08 6.15253e-08)
(-1.89335e-08 -1.83344e-08 6.46387e-08)
(-2.04664e-08 -1.97365e-08 6.81351e-08)
(-7.77869e-10 3.04539e-08 5.56751e-08)
(-2.40937e-09 2.42366e-08 5.58993e-08)
(-4.20565e-09 1.51046e-08 5.65127e-08)
(-6.25179e-09 5.92836e-09 5.75733e-08)
(-8.63151e-09 -1.93894e-09 5.90506e-08)
(-1.13703e-08 -8.2486e-09 6.08938e-08)
(-1.43781e-08 -1.32246e-08 6.30502e-08)
(-1.73903e-08 -1.70881e-08 6.54556e-08)
(-1.99832e-08 -1.98939e-08 6.80169e-08)
(-2.17148e-08 -2.15968e-08 7.06807e-08)
(-3.01506e-10 -1.21677e-10 2.72816e-08)
(-8.3324e-10 -1.78865e-10 2.76563e-08)
(-1.14784e-09 -2.85199e-10 2.83503e-08)
(-1.11212e-09 -4.2477e-10 2.92822e-08)
(-5.55398e-10 -5.78099e-10 3.03478e-08)
(7.55971e-10 -7.29473e-10 3.14113e-08)
(3.16023e-09 -8.64758e-10 3.22839e-08)
(7.16451e-09 -9.76717e-10 3.269e-08)
(1.35556e-08 -1.0721e-09 3.22036e-08)
(2.36628e-08 -1.17404e-09 3.01325e-08)
(-3.4882e-10 -2.96863e-10 2.75912e-08)
(-9.93017e-10 -4.79203e-10 2.79726e-08)
(-1.44676e-09 -8.15672e-10 2.86851e-08)
(-1.58398e-09 -1.25495e-09 2.96476e-08)
(-1.25903e-09 -1.73943e-09 3.0759e-08)
(-2.77123e-10 -2.21462e-09 3.18905e-08)
(1.62002e-09 -2.63874e-09 3.28752e-08)
(4.78287e-09 -2.99143e-09 3.34909e-08)
(9.66237e-09 -3.27037e-09 3.34214e-08)
(1.67431e-08 -3.52014e-09 3.22604e-08)
(-4.42559e-10 -2.72497e-10 2.81645e-08)
(-1.29073e-09 -5.95742e-10 2.85611e-08)
(-1.99727e-09 -1.19706e-09 2.93138e-08)
(-2.45287e-09 -1.98492e-09 3.03385e-08)
(-2.54928e-09 -2.85192e-09 3.1534e-08)
(-2.15834e-09 -3.70238e-09 3.27855e-08)
(-1.12503e-09 -4.46121e-09 3.39593e-08)
(6.94253e-10 -5.07823e-09 3.48928e-08)
(3.36613e-09 -5.53114e-09 3.53999e-08)
(6.68993e-09 -5.84313e-09 3.53175e-08)
(-5.61439e-10 8.61133e-11 2.89232e-08)
(-1.67429e-09 -4.0728e-10 2.93507e-08)
(-2.70309e-09 -1.32252e-09 3.01636e-08)
(-3.57077e-09 -2.52795e-09 3.12776e-08)
(-4.20101e-09 -3.85991e-09 3.2588e-08)
(-4.5264e-09 -5.16191e-09 3.39819e-08)
(-4.49528e-09 -6.32031e-09 3.53528e-08)
(-4.09548e-09 -7.249e-09 3.65874e-08)
(-3.47374e-09 -7.89165e-09 3.7577e-08)
(-3.09906e-09 -8.22854e-09 3.82643e-08)
(-6.87832e-10 9.42742e-10 2.97655e-08)
(-2.08159e-09 2.33822e-10 3.02421e-08)
(-3.45439e-09 -1.08485e-09 3.11439e-08)
(-4.75982e-09 -2.80868e-09 3.23733e-08)
(-5.95437e-09 -4.70743e-09 3.38119e-08)
(-7.00123e-09 -6.56291e-09 3.53426e-08)
(-7.90788e-09 -8.21098e-09 3.68707e-08)
(-8.73129e-09 -9.53687e-09 3.83087e-08)
(-9.62601e-09 -1.04435e-08 3.95711e-08)
(-1.10023e-08 -1.0867e-08 4.06094e-08)
(-8.04856e-10 2.51382e-09 3.05549e-08)
(-2.45652e-09 1.51066e-09 3.11063e-08)
(-4.14908e-09 -3.46357e-10 3.21397e-08)
(-5.86569e-09 -2.74958e-09 3.35249e-08)
(-7.58333e-09 -5.35584e-09 3.51068e-08)
(-9.29156e-09 -7.88936e-09 3.67589e-08)
(-1.09924e-08 -1.01417e-08 3.83804e-08)
(-1.27296e-08 -1.19638e-08 3.98882e-08)
(-1.46169e-08 -1.32683e-08 4.12109e-08)
(-1.68197e-08 -1.39363e-08 4.22547e-08)
(-8.97076e-10 5.10241e-09 3.10982e-08)
(-2.75532e-09 3.66089e-09 3.17754e-08)
(-4.7138e-09 1.04403e-09 3.30207e-08)
(-6.77895e-09 -2.27462e-09 3.46304e-08)
(-8.94693e-09 -5.79255e-09 3.63933e-08)
(-1.12087e-08 -9.13995e-09 3.81468e-08)
(-1.35598e-08 -1.21047e-08 3.9792e-08)
(-1.59888e-08 -1.45456e-08 4.12551e-08)
(-1.84933e-08 -1.63741e-08 4.24583e-08)
(-2.10364e-08 -1.74802e-08 4.32741e-08)
(-9.54463e-10 9.15079e-09 3.11101e-08)
(-2.95176e-09 7.00194e-09 3.2021e-08)
(-5.09548e-09 3.23658e-09 3.36244e-08)
(-7.41886e-09 -1.34081e-09 3.558e-08)
(-9.94436e-09 -6.01591e-09 3.75847e-08)
(-1.26654e-08 -1.03335e-08 3.94395e-08)
(-1.55449e-08 -1.40863e-08 4.10468e-08)
(-1.85314e-08 -1.72167e-08 4.23609e-08)
(-2.14568e-08 -1.96244e-08 4.33046e-08)
(-2.42025e-08 -2.13086e-08 4.37639e-08)
(-9.76813e-10 1.53266e-08 3.01483e-08)
(-3.02839e-09 1.19314e-08 3.1518e-08)
(-5.26184e-09 6.32011e-09 3.37664e-08)
(-7.73685e-09 -3.09129e-11 3.62756e-08)
(-1.05122e-08 -6.12385e-09 3.86122e-08)
(-1.36057e-08 -1.15051e-08 4.05661e-08)
(-1.69584e-08 -1.60696e-08 4.20762e-08)
(-2.04181e-08 -1.98402e-08 4.31426e-08)
(-2.37093e-08 -2.27891e-08 4.37389e-08)
(-2.66759e-08 -2.50468e-08 4.3801e-08)
(-9.70388e-10 2.47363e-08 2.74926e-08)
(-2.99527e-09 1.8866e-08 2.98494e-08)
(-5.20621e-09 1.01703e-08 3.32873e-08)
(-7.70846e-09 1.32137e-09 3.66746e-08)
(-1.06165e-08 -6.41089e-09 3.94464e-08)
(-1.39932e-08 -1.27918e-08 4.14608e-08)
(-1.77856e-08 -1.80297e-08 4.27772e-08)
(-2.17573e-08 -2.23277e-08 4.34954e-08)
(-2.54965e-08 -2.57287e-08 4.36983e-08)
(-2.85807e-08 -2.82289e-08 4.34226e-08)
(-3.91162e-10 -1.62911e-10 2.30248e-08)
(-1.12497e-09 -2.1395e-10 2.31354e-08)
(-1.71003e-09 -3.1053e-10 2.32914e-08)
(-2.07249e-09 -4.39309e-10 2.33751e-08)
(-2.11986e-09 -5.83497e-10 2.32169e-08)
(-1.72841e-09 -7.3046e-10 2.25867e-08)
(-7.22596e-10 -8.69323e-10 2.11704e-08)
(1.1563e-09 -9.965e-10 1.85272e-08)
(4.31229e-09 -1.12349e-09 1.40173e-08)
(9.45816e-09 -1.28062e-09 6.6421e-09)
(-4.29132e-10 -4.43448e-10 2.30783e-08)
(-1.2585e-09 -6.0753e-10 2.32137e-08)
(-1.96684e-09 -9.12174e-10 2.34203e-08)
(-2.47994e-09 -1.31538e-09 2.35801e-08)
(-2.7241e-09 -1.76902e-09 2.35289e-08)
(-2.60432e-09 -2.22801e-09 2.30534e-08)
(-2.00282e-09 -2.66064e-09 2.1882e-08)
(-7.753e-10 -3.05763e-09 1.96637e-08)
(1.24851e-09 -3.42976e-09 1.59589e-08)
(4.19728e-09 -3.83961e-09 1.02721e-08)
(-5.09224e-10 -5.94407e-10 2.31264e-08)
(-1.51287e-09 -8.84534e-10 2.33112e-08)
(-2.4401e-09 -1.42637e-09 2.36189e-08)
(-3.2299e-09 -2.14289e-09 2.39285e-08)
(-3.83119e-09 -2.94704e-09 2.40799e-08)
(-4.19815e-09 -3.7609e-09 2.38851e-08)
(-4.28947e-09 -4.5263e-09 2.31276e-08)
(-4.10243e-09 -5.21088e-09 2.1579e-08)
(-3.73395e-09 -5.81259e-09 1.90302e-08)
(-3.52896e-09 -6.37977e-09 1.53951e-08)
(-6.12188e-10 -5.39244e-10 2.30553e-08)
(-1.84617e-09 -9.76529e-10 2.33171e-08)
(-3.05201e-09 -1.79193e-09 2.37742e-08)
(-4.19636e-09 -2.87606e-09 2.42985e-08)
(-5.25316e-09 -4.09539e-09 2.47249e-08)
(-6.21432e-09 -5.3246e-09 2.48793e-08)
(-7.10955e-09 -6.47579e-09 2.45975e-08)
(-8.02553e-09 -7.48645e-09 2.37349e-08)
(-9.19405e-09 -8.32547e-09 2.22262e-08)
(-1.11268e-08 -9.00306e-09 2.01647e-08)
(-7.23521e-10 -1.90488e-10 2.26986e-08)
(-2.20524e-09 -8.07599e-10 2.30698e-08)
(-3.71328e-09 -1.9603e-09 2.37349e-08)
(-5.23615e-09 -3.48561e-09 2.45364e-08)
(-6.77393e-09 -5.19796e-09 2.5289e-08)
(-8.34031e-09 -6.92191e-09 2.58133e-08)
(-9.99769e-09 -8.53159e-09 2.59701e-08)
(-1.18674e-08 -9.94248e-09 2.56679e-08)
(-1.41667e-08 -1.10857e-08 2.48792e-08)
(-1.7327e-08 -1.19291e-08 2.37121e-08)
(-8.2957e-10 5.58798e-10 2.18282e-08)
(-2.54414e-09 -2.92112e-10 2.23593e-08)
(-4.33894e-09 -1.8759e-09 2.33145e-08)
(-6.2259e-09 -3.95547e-09 2.44777e-08)
(-8.2161e-09 -6.26206e-09 2.56072e-08)
(-1.03442e-08 -8.57863e-09 2.65028e-08)
(-1.26624e-08 -1.07395e-08 2.70239e-08)
(-1.52576e-08 -1.2634e-08 2.7095e-08)
(-1.8294e-08 -1.42083e-08 2.6702e-08)
(-2.19863e-08 -1.53724e-08 2.58829e-08)
(-9.18268e-10 1.84767e-09 2.01291e-08)
(-2.83002e-09 6.66866e-10 2.09156e-08)
(-4.87461e-09 -1.49791e-09 2.23024e-08)
(-7.08258e-09 -4.29037e-09 2.3963e-08)
(-9.47926e-09 -7.33178e-09 2.55529e-08)
(-1.20915e-08 -1.0336e-08 2.68232e-08)
(-1.49643e-08 -1.31371e-08 2.76331e-08)
(-1.81387e-08 -1.56227e-08 2.79177e-08)
(-2.16472e-08 -1.77417e-08 2.76643e-08)
(-2.55241e-08 -1.94133e-08 2.68588e-08)
(-9.83581e-10 3.86611e-09 1.71561e-08)
(-3.04874e-09 2.17967e-09 1.83857e-08)
(-5.28691e-09 -8.15076e-10 2.0473e-08)
(-7.75257e-09 -4.54008e-09 2.28548e-08)
(-1.04947e-08 -8.47063e-09 2.50367e-08)
(-1.35402e-08 -1.22628e-08 2.67094e-08)
(-1.68919e-08 -1.57521e-08 2.77463e-08)
(-2.0559e-08 -1.88925e-08 2.81204e-08)
(-2.44114e-08 -2.15898e-08 2.78481e-08)
(-2.84094e-08 -2.38915e-08 2.68975e-08)
(-1.03054e-09 6.89059e-09 1.22613e-08)
(-3.19724e-09 4.3608e-09 1.43266e-08)
(-5.56614e-09 1.0164e-10 1.7621e-08)
(-8.2159e-09 -4.86678e-09 2.10977e-08)
(-1.12322e-08 -9.83175e-09 2.40474e-08)
(-1.46665e-08 -1.4452e-08 2.61492e-08)
(-1.84981e-08 -1.86289e-08 2.73496e-08)
(-2.26169e-08 -2.2356e-08 2.77173e-08)
(-2.67882e-08 -2.55734e-08 2.7345e-08)
(-3.09414e-08 -2.84591e-08 2.62335e-08)
(-1.07315e-09 1.13935e-08 4.43088e-09)
(-3.30536e-09 7.26846e-09 8.23856e-09)
(-5.73354e-09 9.92776e-10 1.36645e-08)
(-8.48163e-09 -5.63559e-09 1.87964e-08)
(-1.16942e-08 -1.17236e-08 2.27085e-08)
(-1.54717e-08 -1.70802e-08 2.52062e-08)
(-1.97984e-08 -2.18156e-08 2.64499e-08)
(-2.44673e-08 -2.60192e-08 2.66887e-08)
(-2.90804e-08 -2.96442e-08 2.61651e-08)
(-3.3224e-08 -3.26587e-08 2.50474e-08)
(-3.93305e-10 -1.20575e-10 1.81772e-08)
(-1.1567e-09 -1.61954e-10 1.81196e-08)
(-1.8474e-09 -2.39976e-10 1.79453e-08)
(-2.44639e-09 -3.4442e-10 1.75399e-08)
(-2.92998e-09 -4.6256e-10 1.67353e-08)
(-3.26644e-09 -5.85015e-10 1.53083e-08)
(-3.40989e-09 -7.03835e-10 1.29676e-08)
(-3.29077e-09 -8.17261e-10 9.32352e-09)
(-2.7866e-09 -9.3674e-10 3.83469e-09)
(-1.63707e-09 -1.09163e-09 -4.33227e-09)
(-4.18553e-10 -3.42839e-10 1.80742e-08)
(-1.2502e-09 -4.74071e-10 1.80533e-08)
(-2.0331e-09 -7.17576e-10 1.79504e-08)
(-2.7424e-09 -1.04166e-09 1.76494e-08)
(-3.36532e-09 -1.41051e-09 1.69878e-08)
(-3.88642e-09 -1.79027e-09 1.57609e-08)
(-4.29175e-09 -2.15766e-09 1.37239e-08)
(-4.57715e-09 -2.50789e-09 1.05801e-08)
(-4.74525e-09 -2.85412e-09 5.99667e-09)
(-4.84883e-09 -3.25655e-09 -3.4534e-10)
(-4.75796e-10 -5.13685e-10 1.78135e-08)
(-1.43201e-09 -7.41075e-10 1.78638e-08)
(-2.37376e-09 -1.16675e-09 1.79007e-08)
(-3.28452e-09 -1.73341e-09 1.78035e-08)
(-4.15919e-09 -2.37792e-09 1.74137e-08)
(-5.00984e-09 -3.04263e-09 1.65535e-08)
(-5.86608e-09 -3.68391e-09 1.50346e-08)
(-6.79485e-09 -4.27785e-09 1.26926e-08)
(-7.94057e-09 -4.82577e-09 9.43246e-09)
(-9.60974e-09 -5.37303e-09 5.34577e-09)
(-5.49714e-10 -6.10307e-10 1.72843e-08)
(-1.67233e-09 -9.44112e-10 1.74402e-08)
(-2.81416e-09 -1.56949e-09 1.76813e-08)
(-3.97828e-09 -2.40878e-09 1.78751e-08)
(-5.17496e-09 -3.36697e-09 1.78552e-08)
(-6.42969e-09 -4.35347e-09 1.74595e-08)
(-7.80585e-09 -5.30207e-09 1.65552e-08)
(-9.41271e-09 -6.16225e-09 1.50628e-08)
(-1.14509e-08 -6.90623e-09 1.3033e-08)
(-1.42968e-08 -7.53895e-09 1.07307e-08)
(-6.29476e-10 -6.13181e-10 1.63229e-08)
(-1.9303e-09 -1.06867e-09 1.66231e-08)
(-3.28971e-09 -1.92412e-09 1.71409e-08)
(-4.72263e-09 -3.07209e-09 1.77071e-08)
(-6.25552e-09 -4.38597e-09 1.81311e-08)
(-7.92418e-09 -5.74122e-09 1.82418e-08)
(-9.79695e-09 -7.04421e-09 1.79313e-08)
(-1.19831e-08 -8.22387e-09 1.71758e-08)
(-1.46505e-08 -9.21356e-09 1.60574e-08)
(-1.8091e-08 -9.97171e-09 1.4842e-08)
(-7.04819e-10 -5.08113e-10 1.47102e-08)
(-2.17126e-09 -1.10804e-09 1.52138e-08)
(-3.73579e-09 -2.23458e-09 1.61046e-08)
(-5.42858e-09 -3.74294e-09 1.71453e-08)
(-7.27803e-09 -5.46111e-09 1.80814e-08)
(-9.33146e-09 -7.24186e-09 1.87151e-08)
(-1.16423e-08 -8.96018e-09 1.89348e-08)
(-1.42705e-08 -1.05213e-08 1.87306e-08)
(-1.73228e-08 -1.18634e-08 1.81945e-08)
(-2.09244e-08 -1.28845e-08 1.75056e-08)
(-7.6665e-10 -2.88755e-10 1.21575e-08)
(-2.37123e-09 -1.07115e-09 1.29714e-08)
(-4.11294e-09 -2.52943e-09 1.43916e-08)
(-6.03529e-09 -4.46144e-09 1.60616e-08)
(-8.17496e-09 -6.6446e-09 1.76091e-08)
(-1.05652e-08 -8.89405e-09 1.87818e-08)
(-1.32491e-08 -1.10849e-08 1.94647e-08)
(-1.62497e-08 -1.31107e-08 1.96541e-08)
(-1.95473e-08 -1.49036e-08 1.94385e-08)
(-2.31236e-08 -1.63572e-08 1.89388e-08)
(-8.10966e-10 3.94851e-11 8.27572e-09)
(-2.52118e-09 -9.91596e-10 9.60106e-09)
(-4.39761e-09 -2.86861e-09 1.18425e-08)
(-6.50316e-09 -5.29756e-09 1.43852e-08)
(-8.89421e-09 -7.99276e-09 1.66921e-08)
(-1.16023e-08 -1.07451e-08 1.84406e-08)
(-1.46274e-08 -1.34265e-08 1.9528e-08)
(-1.79654e-08 -1.59674e-08 1.99892e-08)
(-2.14656e-08 -1.82414e-08 1.99303e-08)
(-2.50411e-08 -2.02394e-08 1.94575e-08)
(-8.43191e-10 4.59864e-10 2.52303e-09)
(-2.62144e-09 -9.34258e-10 4.77115e-09)
(-4.58472e-09 -3.3715e-09 8.36703e-09)
(-6.81696e-09 -6.38073e-09 1.2176e-08)
(-9.4088e-09 -9.60387e-09 1.54278e-08)
(-1.24152e-08 -1.28407e-08 1.77832e-08)
(-1.58161e-08 -1.5992e-08 1.92126e-08)
(-1.94964e-08 -1.89879e-08 1.98422e-08)
(-2.32202e-08 -2.1698e-08 1.98457e-08)
(-2.6876e-08 -2.42013e-08 1.93606e-08)
(-8.76991e-10 9.70614e-10 -5.93808e-09)
(-2.7011e-09 -1.0312e-09 -1.83674e-09)
(-4.69426e-09 -4.2577e-09 4.06039e-09)
(-6.98141e-09 -7.93619e-09 9.70651e-09)
(-9.7116e-09 -1.16429e-08 1.40947e-08)
(-1.29896e-08 -1.52552e-08 1.70153e-08)
(-1.68006e-08 -1.87711e-08 1.86607e-08)
(-2.09418e-08 -2.21402e-08 1.93322e-08)
(-2.50275e-08 -2.51995e-08 1.93286e-08)
(-2.86545e-08 -2.78163e-08 1.88865e-08)
(-2.62707e-10 4.75014e-11 1.39026e-08)
(-7.83777e-10 1.50847e-11 1.37873e-08)
(-1.28898e-09 -4.20125e-11 1.35128e-08)
(-1.78632e-09 -1.16004e-10 1.29922e-08)
(-2.28234e-09 -1.98749e-10 1.20993e-08)
(-2.78188e-09 -2.83381e-10 1.0675e-08)
(-3.28649e-09 -3.64214e-10 8.52406e-09)
(-3.79137e-09 -4.39709e-10 5.40095e-09)
(-4.26981e-09 -5.1791e-10 9.79191e-10)
(-4.62986e-09 -6.2233e-10 -5.25012e-09)
(-2.76392e-10 1.40241e-10 1.37544e-08)
(-8.36174e-10 4.48424e-11 1.36788e-08)
(-1.39534e-09 -1.28429e-10 1.34803e-08)
(-1.95637e-09 -3.54467e-10 1.3069e-08)
(-2.53079e-09 -6.08988e-10 1.23226e-08)
(-3.13035e-09 -8.68696e-10 1.10962e-08)
(-3.77023e-09 -1.11565e-09 9.23232e-09)
(-4.47601e-09 -1.34382e-09 6.5593e-09)
(-5.27646e-09 -1.56219e-09 2.91324e-09)
(-6.22113e-09 -1.81728e-09 -1.81633e-09)
(-3.08178e-10 2.25135e-10 1.34172e-08)
(-9.37299e-10 7.05745e-11 1.34178e-08)
(-1.58618e-09 -2.18155e-10 1.33667e-08)
(-2.26189e-09 -6.02026e-10 1.31674e-08)
(-2.97611e-09 -1.03672e-09 1.26992e-08)
(-3.75187e-09 -1.4822e-09 1.18376e-08)
(-4.62287e-09 -1.9046e-09 1.04684e-08)
(-5.64097e-09 -2.28048e-09 8.52486e-09)
(-6.89547e-09 -2.60409e-09 6.02784e-09)
(-8.55138e-09 -2.90403e-09 3.17847e-09)
(-3.47749e-10 2.99888e-10 1.28074e-08)
(-1.06686e-09 8.53041e-11 1.29184e-08)
(-1.82458e-09 -3.17493e-10 1.30798e-08)
(-2.63919e-09 -8.6261e-10 1.3182e-08)
(-3.52979e-09 -1.48947e-09 1.30929e-08)
(-4.51892e-09 -2.13513e-09 1.26978e-08)
(-5.6486e-09 -2.7469e-09 1.19258e-08)
(-6.98147e-09 -3.27687e-09 1.07731e-08)