/*--------------------------------*- C++ -*----------------------------------*\
| =========                 |                                                 |
| \\      /  F ield         | foam-extend: Open Source CFD                    |
|  \\    /   O peration     | Version:     3.1                                |
|   \\  /    A nd           | Web:         http://www.extend-project.de       |
|    \\/     M anipulation  |                                                 |
\*---------------------------------------------------------------------------*/
FoamFile
{
    version     2.0;
    format      ascii;
    class       surfaceScalarField;
    location    "0.0003";
    object      meshPhi;
}
// * * * * * * * * * * * * * * * * * * * * * * * * * * * * * * * * * * * * * //

dimensions      [0 3 -1 0 0 0 0];

internalField   nonuniform List<scalar> 
45800
(
1.7483e-10
1.75363e-10
3.62851e-12
3.41718e-10
1.75047e-10
7.44489e-12
5.00999e-10
1.73209e-10
1.5173e-11
6.56278e-10
1.7181e-10
2.72011e-11
8.11352e-10
1.71523e-10
4.43682e-11
9.69469e-10
1.72589e-10
6.80045e-11
1.13337e-09
1.75353e-10
1.00002e-10
1.30493e-09
1.80275e-10
1.42881e-10
1.48462e-09
1.87892e-10
1.99805e-10
1.96934e-10
2.74877e-10
1.67232e-09
1.74528e-10
3.42074e-10
7.43587e-12
3.43047e-10
3.43638e-10
1.11118e-11
5.05479e-10
3.42506e-10
1.86361e-11
6.64044e-10
3.41201e-10
3.0396e-11
8.22039e-10
3.41514e-10
4.7201e-11
9.82737e-10
3.44351e-10
7.03294e-11
1.14888e-09
3.50439e-10
1.01585e-10
1.32223e-09
3.60628e-10
1.43317e-10
1.50301e-09
3.75692e-10
1.98369e-10
3.92454e-10
2.69883e-10
1.68891e-09
1.72961e-10
5.01018e-10
1.51609e-11
3.41924e-10
5.05718e-10
1.86252e-11
5.06959e-10
5.07511e-10
2.58859e-11
6.69057e-10
5.08305e-10
3.73314e-11
8.30323e-10
5.10365e-10
5.37346e-11
9.93676e-10
5.1566e-10
7.63164e-11
1.16178e-09
5.25546e-10
1.06776e-10
1.33609e-09
5.41121e-10
1.47248e-10
1.51667e-09
5.63367e-10
2.00226e-10
5.87016e-10
2.68112e-10
1.70061e-09
1.71816e-10
6.56231e-10
2.71976e-11
3.4096e-10
6.64045e-10
3.03854e-11
5.07751e-10
6.69301e-10
3.73202e-11
6.72893e-10
6.73449e-10
4.83992e-11
8.37552e-10
6.78342e-10
6.4367e-11
1.00368e-09
6.86375e-10
8.63826e-11
1.17357e-09
6.99919e-10
1.16053e-10
1.34848e-09
7.20633e-10
1.55346e-10
1.52852e-09
7.49557e-10
2.06506e-10
7.79268e-10
2.71246e-10
1.71057e-09
1.71588e-10
8.11351e-10
4.43791e-11
3.41555e-10
8.22044e-10
4.72022e-11
5.10144e-10
8.30382e-10
5.37225e-11
6.77777e-10
8.3784e-10
6.43512e-11
8.45438e-10
8.46065e-10
7.98269e-11
1.01445e-09
8.5712e-10
1.01266e-10
1.18617e-09
8.73734e-10
1.3019e-10
1.36153e-09
8.98601e-10
1.68465e-10
1.54079e-09
9.33271e-10
2.18198e-10
9.68157e-10
2.80377e-10
1.72074e-09
1.72652e-10
9.69517e-10
6.80283e-11
3.44464e-10
9.82791e-10
7.03429e-11
5.15718e-10
9.9373e-10
7.63114e-11
6.8617e-10
1.0038e-09
8.63621e-11
8.56476e-10
1.01484e-09
1.01244e-10
1.02801e-09
1.02885e-09
1.22059e-10
1.20164e-09
1.04807e-09
1.50261e-10
1.37741e-09
1.07564e-09
1.87636e-10
1.55527e-09
1.11411e-09
2.362e-10
1.15272e-09
2.96201e-10
1.73226e-09
1.75413e-10
1.13346e-09
1.00035e-10
3.50551e-10
1.14898e-09
1.01606e-10
5.25698e-10
1.16188e-09
1.06778e-10
7.00067e-10
1.17364e-09
1.16036e-10
8.73553e-10
1.18625e-09
1.30154e-10
1.04718e-09
1.20198e-09
1.50209e-10
1.22221e-09
1.22301e-09
1.77607e-10
1.3979e-09
1.25179e-09
2.14001e-10
1.57312e-09
1.29115e-09
2.61251e-10
1.33112e-09
3.19012e-10
1.74551e-09
1.80329e-10
1.30508e-09
1.42919e-10
3.60729e-10
1.32237e-09
1.43342e-10
5.41269e-10
1.33621e-09
1.47251e-10
7.20847e-10
1.34853e-09
1.55324e-10
8.98786e-10
1.36145e-09
1.6841e-10
1.07515e-09
1.37716e-09
1.87513e-10
1.25088e-09
1.39781e-09
2.13869e-10
1.42478e-09
1.42515e-09
2.48794e-10
1.59514e-09
1.4618e-09
2.93924e-10
1.49997e-09
3.48607e-10
1.75999e-09
1.87936e-10
1.48482e-09
1.99845e-10
3.7577e-10
1.5032e-09
1.98396e-10
5.63469e-10
1.51682e-09
2.0023e-10
7.49672e-10
1.5286e-09
2.06478e-10
9.33388e-10
1.54074e-09
2.18129e-10
1.11389e-09
1.55501e-09
2.3605e-10
1.29061e-09
1.5728e-09
2.61065e-10
1.46132e-09
1.5951e-09
2.93822e-10
1.62364e-09
1.62389e-09
3.353e-10
1.65373e-09
3.8417e-10
1.77422e-09
1.96965e-10
2.74917e-10
1.67253e-09
3.92506e-10
2.69912e-10
1.6891e-09
5.87072e-10
2.68119e-10
1.70078e-09
7.79309e-10
2.71225e-10
1.71069e-09
9.68151e-10
2.80323e-10
1.72077e-09
1.15259e-09
2.96098e-10
1.7322e-09
1.33096e-09
3.18892e-10
1.74539e-09
1.49974e-09
3.48506e-10
1.75986e-09
1.65339e-09
3.84082e-10
1.77411e-09
4.23076e-10
1.78663e-09
1.78667e-09
4.98412e-10
4.9993e-10
-2.21765e-11
9.73559e-10
4.98852e-10
-1.64379e-11
1.42587e-09
4.9325e-10
-5.36401e-12
1.86517e-09
4.88729e-10
1.14602e-11
2.30187e-09
4.8721e-10
3.49753e-11
2.74493e-09
4.89369e-10
6.66496e-11
3.202e-09
4.96182e-10
1.08487e-10
3.67863e-09
5.08961e-10
1.62991e-10
4.17697e-09
5.29277e-10
2.33006e-10
5.5375e-10
3.21835e-10
4.69839e-09
4.97373e-10
9.74571e-10
-1.64476e-11
9.77011e-10
9.78691e-10
-1.09166e-11
1.43816e-09
9.74779e-10
-1.49064e-13
1.88668e-09
9.70038e-10
1.62712e-11
2.3316e-09
9.6957e-10
3.9247e-11
2.78192e-09
9.75947e-10
7.01823e-11
3.24533e-09
9.9122e-10
1.10978e-10
3.72702e-09
1.01783e-09
1.63946e-10
4.2285e-09
1.05806e-09
2.31594e-10
1.10341e-09
3.16207e-10
4.74497e-09
4.92541e-10
1.42592e-09
-5.37367e-12
9.7312e-10
1.43883e-09
-1.59505e-13
1.44141e-09
1.44297e-09
1.01955e-11
1.89977e-09
1.4438e-09
2.61113e-11
2.35383e-09
1.44774e-09
4.84423e-11
2.81161e-09
1.46038e-09
7.85192e-11
3.2806e-09
1.48557e-09
1.18118e-10
3.76514e-09
1.52647e-09
1.69303e-10
4.26629e-09
1.58603e-09
2.34212e-10
1.65008e-09
3.14377e-10
4.77756e-09
4.88747e-10
1.86502e-09
1.14672e-11
9.69348e-10
1.88668e-09
1.62659e-11
1.44222e-09
1.90045e-09
2.61006e-11
1.90892e-09
1.91049e-09
4.14044e-11
2.3724e-09
1.92205e-09
6.29922e-11
2.83797e-09
1.9419e-09
9.21124e-11
3.31203e-09
1.97678e-09
1.30425e-10
3.7985e-09
2.03147e-09
1.79802e-10
4.2985e-09
2.10914e-09
2.42112e-10
2.18983e-09
3.18179e-10
4.80495e-09
4.87394e-10
2.30186e-09
3.50064e-11
9.69687e-10
2.3316e-09
3.92616e-11
1.44711e-09
2.35398e-09
4.84341e-11
1.92045e-09
2.37321e-09
6.29746e-11
2.39216e-09
2.39393e-09
8.36853e-11
2.86576e-09
2.42198e-09
1.11753e-10
3.34507e-09
2.4651e-09
1.48725e-10
3.83308e-09
2.53104e-09
1.96346e-10
4.33141e-09
2.6245e-09
2.56332e-10
2.71968e-09
3.28737e-10
4.83269e-09
4.89549e-10
2.74505e-09
6.67013e-11
9.76267e-10
2.78206e-09
7.0216e-11
1.46054e-09
2.81175e-09
7.85224e-11
1.94131e-09
2.83828e-09
9.20899e-11
2.42016e-09
2.86686e-09
1.11726e-10
2.90076e-09
2.9031e-09
1.38588e-10
3.38557e-09
2.95346e-09
1.74126e-10
3.87508e-09
3.02687e-09
2.19973e-10
4.37016e-09
3.13103e-09
2.77733e-10
3.23701e-09
3.46664e-10
4.8642e-09
4.96353e-10
3.20225e-09
1.08552e-10
9.91538e-10
3.24559e-09
1.11023e-10
1.486e-09
3.28084e-09
1.1813e-10
1.97719e-09
3.31221e-09
1.30407e-10
2.46458e-09
3.34529e-09
1.48679e-10
2.95094e-09
3.38651e-09
1.74061e-10
3.43986e-09
3.4421e-09
2.07928e-10
3.92969e-09
3.51924e-09
2.51739e-10
4.41828e-09
3.62634e-09
3.06893e-10
3.73699e-09
3.72031e-10
4.90077e-09
5.09115e-10
3.67902e-09
1.63063e-10
1.01812e-09
3.7274e-09
1.63995e-10
1.52689e-09
3.76545e-09
1.69316e-10
2.03208e-09
3.79863e-09
1.79776e-10
2.53157e-09
3.83285e-09
1.96275e-10
3.0255e-09
3.87438e-09
2.19821e-10
3.51665e-09
3.92943e-09
2.51579e-10
4.00219e-09
4.00325e-09
2.92611e-10
4.47837e-09
4.10373e-09
3.44049e-10
4.2106e-09
4.0426e-10
4.94141e-09
5.294e-10
4.17749e-09
2.33079e-10
1.05829e-09
4.229e-09
2.31644e-10
1.58632e-09
4.2667e-09
2.34224e-10
2.10948e-09
4.29871e-09
2.42077e-10
2.62486e-09
4.33127e-09
2.56242e-10
3.13042e-09
4.36942e-09
2.77545e-10
3.62483e-09
4.41738e-09
3.06665e-10
4.10239e-09
4.47826e-09
3.43926e-10
4.55742e-09
4.55811e-09
3.89792e-10
4.64294e-09
4.4206e-10
4.98222e-09
5.53839e-10
3.21905e-10
4.69893e-09
1.10356e-09
3.16255e-10
4.74549e-09
1.65024e-09
3.1439e-10
4.77801e-09
2.18996e-09
3.1815e-10
4.80525e-09
2.71968e-09
3.28663e-10
4.83278e-09
3.23667e-09
3.46532e-10
4.86403e-09
3.73655e-09
3.7188e-10
4.90044e-09
4.20995e-09
4.0414e-10
4.94106e-09
4.64197e-09
4.41964e-10
4.9819e-09
4.82225e-10
5.01892e-09
5.01902e-09
7.5004e-10
7.52317e-10
-8.8518e-11
1.46316e-09
7.50128e-10
-8.32063e-11
2.13834e-09
7.40572e-10
-7.42155e-11
2.78888e-09
7.3211e-10
-6.14161e-11
3.42906e-09
7.27614e-10
-4.44274e-11
4.07101e-09
7.28047e-10
-2.26806e-11
4.72504e-09
7.34801e-10
4.48921e-12
5.39874e-09
7.49766e-10
3.76915e-11
6.0955e-09
7.75227e-10
7.72288e-11
8.06413e-10
1.22954e-10
6.81858e-09
7.47909e-10
1.46466e-09
-8.32066e-11
1.46726e-09
1.46978e-09
-7.80612e-11
2.15525e-09
1.46173e-09
-6.93207e-11
2.81923e-09
1.4514e-09
-5.68503e-11
3.47134e-09
1.4464e-09
-4.02922e-11
4.12383e-09
1.4505e-09
-1.91138e-11
4.78707e-09
1.46663e-09
7.30112e-12
5.46818e-09
1.4983e-09
3.94837e-11
6.16968e-09
1.54889e-09
7.76164e-11
1.60637e-09
1.21179e-10
6.88628e-09
7.39508e-10
2.13838e-09
-7.4206e-11
1.45925e-09
2.15624e-09
-6.93176e-11
2.15708e-09
2.15941e-09
-6.09327e-11
2.83507e-09
2.15609e-09
-4.89093e-11
3.50031e-09
2.15586e-09
-3.29198e-11
4.16356e-09
2.16695e-09
-1.24746e-11
4.83497e-09
2.19492e-09
1.29799e-11
5.52048e-09
2.24434e-09
4.38659e-11
6.22206e-09
2.31957e-09
8.0237e-11
2.40067e-09
1.2134e-10
6.93217e-09
7.32139e-10
2.78862e-09
-6.13845e-11
1.45037e-09
2.81918e-09
-5.68333e-11
2.15375e-09
2.83607e-09
-4.89057e-11
2.84314e-09
2.84546e-09
-3.74503e-11
3.52163e-09
2.85511e-09
-2.21641e-11
4.19598e-09
2.87499e-09
-2.6081e-12
4.87477e-09
2.91489e-09
2.17094e-11
5.56341e-09
2.98178e-09
5.11243e-11
6.26401e-09
3.0804e-09
8.56003e-11
3.18276e-09
1.24155e-10
6.96846e-09
7.27892e-10
3.42898e-09
-4.43697e-11
1.44658e-09
3.47129e-09
-4.02533e-11
2.15493e-09
3.5005e-09
-3.2907e-11
2.85275e-09
3.5228e-09
-2.2168e-11
3.54241e-09
3.545e-09
-7.74605e-12
4.228e-09
3.57559e-09
1.07572e-11
4.91432e-09
3.62584e-09
3.37688e-11
5.6055e-09
3.70705e-09
6.15634e-11
6.30439e-09
3.82629e-09
9.4056e-11
3.94752e-09
1.29991e-10
7.00291e-09
7.28317e-10
4.07112e-09
-2.26021e-11
1.45098e-09
4.12397e-09
-1.90567e-11
2.1672e-09
4.16372e-09
-1.24511e-11
2.87413e-09
4.19641e-09
-2.61306e-12
3.57293e-09
4.22959e-09
1.07433e-11
4.26795e-09
4.27138e-09
2.79896e-11
4.96204e-09
4.33112e-09
4.9493e-11
5.65564e-09
4.42183e-09
7.54701e-11
6.35065e-09
4.55504e-09
1.0579e-10
4.69069e-09
1.38907e-10
7.0405e-09
7.35059e-10
4.72534e-09
4.57946e-12
1.46711e-09
4.78739e-09
7.36711e-12
2.19557e-09
4.83527e-09
1.30088e-11
2.91552e-09
4.87501e-09
2.17046e-11
3.6251e-09
4.91463e-09
3.37413e-11
4.32744e-09
4.96341e-09
4.94561e-11
5.0271e-09
5.03038e-09
6.91661e-11
5.72149e-09
5.12603e-09
9.30019e-11
6.40819e-09
5.26304e-09
1.20738e-10
5.40528e-09
1.50631e-10
7.08351e-09
7.49998e-10
5.39924e-09
3.77848e-11
1.49874e-09
5.46867e-09
3.955e-11
2.24498e-09
5.52088e-09
4.38916e-11
2.98271e-09
5.56358e-09
5.11102e-11
3.70787e-09
5.60516e-09
6.15158e-11
4.41988e-09
5.65467e-09
7.53815e-11
5.12229e-09
5.72118e-09
9.29149e-11
5.81103e-09
5.8126e-09
1.14069e-10
6.48138e-09
5.94087e-09
1.3852e-10
6.07884e-09
1.64517e-10
7.13128e-09
7.75415e-10
6.09617e-09
7.73177e-11
1.54924e-09
6.17034e-09
7.76775e-11
2.32003e-09
6.2226e-09
8.02558e-11
3.08095e-09
6.26428e-09
8.55754e-11
3.82689e-09
6.30417e-09
9.39919e-11
4.55427e-09
6.34962e-09
1.05675e-10
5.2609e-09
6.40696e-09
1.20608e-10
5.93893e-09
6.48124e-09
1.38453e-10
6.58097e-09
6.58197e-09
1.587e-10
6.69096e-09
1.7959e-10
7.17927e-09
8.06548e-10
1.23031e-10
6.81928e-09
1.60661e-09
1.21232e-10
6.88696e-09
2.40094e-09
1.21354e-10
6.93276e-09
3.18299e-09
1.2413e-10
6.96886e-09
3.94759e-09
1.29932e-10
7.00301e-09
4.69029e-09
1.38818e-10
7.04025e-09
5.40472e-09
1.50537e-10
7.08306e-09
6.07792e-09
1.64451e-10
7.13079e-09
6.68959e-09
1.79549e-10
7.17884e-09
1.9416e-10
7.22253e-09
7.22268e-09
9.02135e-10
9.04859e-10
-1.83269e-10
1.75638e-09
9.01177e-10
-1.79686e-10
2.55845e-09
8.87626e-10
-1.75797e-10
3.32154e-09
8.7441e-10
-1.71742e-10
4.06008e-09
8.64925e-10
-1.67746e-10
4.78578e-09
8.60203e-10
-1.64186e-10
5.50799e-09
8.61709e-10
-1.61701e-10
6.23282e-09
8.71434e-10
-1.61292e-10
6.96168e-09
8.91758e-10
-1.64453e-10
9.17013e-10
-1.73299e-10
7.69578e-09
8.98523e-10
1.75816e-09
-1.79672e-10
1.7593e-09
1.76229e-09
-1.76128e-10
2.57587e-09
1.74866e-09
-1.72296e-10
3.35426e-09
1.73036e-09
-1.68313e-10
4.10633e-09
1.71641e-09
-1.64402e-10
4.8439e-09
1.71108e-09
-1.60941e-10
5.57645e-09
1.71746e-09
-1.58548e-10
6.30963e-09
1.73928e-09
-1.58181e-10
7.04415e-09
1.78e-09
-1.61237e-10
1.82567e-09
-1.69564e-10
7.77268e-09
8.86362e-10
2.55845e-09
-1.75761e-10
1.74571e-09
2.57701e-09
-1.72273e-10
2.57243e-09
2.57517e-09
-1.68536e-10
3.36619e-09
2.56275e-09
-1.64678e-10
4.1328e-09
2.55106e-09
-1.60924e-10
4.88235e-09
2.54952e-09
-1.57651e-10
5.62408e-09
2.56421e-09
-1.55457e-10
6.36254e-09
2.5999e-09
-1.55251e-10
7.09802e-09
2.66107e-09
-1.58318e-10
2.72497e-09
-1.6627e-10
7.82153e-09
8.74457e-10
3.32115e-09
-1.71682e-10
1.72915e-09
3.35414e-09
-1.68267e-10
2.56001e-09
3.36732e-09
-1.64654e-10
3.36529e-09
3.36799e-09
-1.60974e-10
4.14604e-09
3.36516e-09
-1.57452e-10
4.90759e-09
3.37018e-09
-1.54462e-10
5.65745e-09
3.39398e-09
-1.52589e-10
6.39964e-09
3.44395e-09
-1.52701e-10
7.13478e-09
3.5249e-09
-1.55995e-10
3.60532e-09
-1.63867e-10
7.85419e-09
8.65267e-10
4.05988e-09
-1.67663e-10
1.71665e-09
4.10617e-09
-1.64337e-10
2.54999e-09
4.13295e-09
-1.60884e-10
3.36241e-09
4.14736e-09
-1.57436e-10
4.15412e-09
4.15711e-09
-1.54225e-10
4.92729e-09
4.17168e-09
-1.51624e-10
5.68505e-09
4.20355e-09
-1.50208e-10
6.42994e-09
4.26504e-09
-1.50817e-10
7.16353e-09
4.36346e-09
-1.54591e-10
4.45876e-09
-1.62708e-10
7.87828e-09
8.60532e-10
4.78578e-09
-1.64089e-10
1.71167e-09
4.84395e-09
-1.60865e-10
2.54986e-09
4.88244e-09
-1.57604e-10
3.36922e-09
4.90803e-09
-1.54442e-10
4.16862e-09
4.9291e-09
-1.51619e-10
4.95059e-09
4.95453e-09
-1.49515e-10
5.71593e-09
4.99439e-09
-1.48698e-10
6.46297e-09
5.06283e-09
-1.49982e-10
7.19218e-09
5.17221e-09
-1.54464e-10
5.27859e-09
-1.63108e-10
7.89893e-09
8.62024e-10
5.50821e-09
-1.61597e-10
1.71805e-09
5.5767e-09
-1.58469e-10
2.56502e-09
5.62434e-09
-1.55413e-10
3.39477e-09
5.65766e-09
-1.52575e-10
4.20275e-09
5.68539e-09
-1.50208e-10
4.99022e-09
5.71756e-09
-1.48696e-10
5.75996e-09
5.76378e-09
-1.48601e-10
6.50694e-09
5.83523e-09
-1.50699e-10
7.22675e-09
5.94555e-09
-1.56029e-10
6.0558e-09
-1.65355e-10
7.91886e-09
8.71718e-10
6.23326e-09
-1.61194e-10
1.73983e-09
6.31008e-09
-1.58109e-10
2.6007e-09
6.3629e-09
-1.55216e-10
3.44511e-09
6.39978e-09
-1.52699e-10
4.26609e-09
6.42957e-09
-1.50829e-10
5.06077e-09
6.46198e-09
-1.49983e-10
5.83103e-09
6.50678e-09
-1.50689e-10
6.57063e-09
6.5725e-09
-1.53634e-10
7.27248e-09
6.67191e-09
-1.59768e-10
6.77626e-09
-1.69676e-10
7.93831e-09
8.9199e-10
6.96232e-09
-1.64367e-10
1.78043e-09
7.04478e-09
-1.61178e-10
2.66166e-09
7.09853e-09
-1.58296e-10
3.52562e-09
7.13503e-09
-1.56005e-10
4.36428e-09
7.1633e-09
-1.54614e-10
5.17156e-09
7.19111e-09
-1.54476e-10
5.94329e-09
7.22549e-09
-1.56025e-10
6.66976e-09
7.27242e-09
-1.59762e-10
7.34154e-09
7.3427e-09
-1.66392e-10
7.41838e-09
-1.76167e-10
7.95458e-09
9.17182e-10
-1.73232e-10
7.69646e-09
1.82596e-09
-1.69522e-10
7.77335e-09
2.72534e-09
-1.66261e-10
7.82211e-09
3.60567e-09
-1.63886e-10
7.85458e-09
4.45896e-09
-1.62739e-10
7.87838e-09
5.2783e-09
-1.63133e-10
7.89868e-09
6.05529e-09
-1.65368e-10
7.9184e-09
6.77532e-09
-1.69675e-10
7.93783e-09
7.41693e-09
-1.76152e-10
7.95422e-09
-1.84443e-10
7.96535e-09
7.9656e-09
9.51039e-10
9.5389e-10
-2.80638e-10
1.84683e-09
9.48566e-10
-2.7861e-10
2.67866e-09
9.31468e-10
-2.79406e-10
3.45666e-09
9.13387e-10
-2.83197e-10
4.19228e-09
8.97831e-10
-2.90408e-10
4.89398e-09
8.85716e-10
-3.01745e-10
5.56743e-09
8.78308e-10
-3.1822e-10
6.21471e-09
8.773e-10
-3.41127e-10
6.83321e-09
8.8466e-10
-3.71963e-10
8.94366e-10
-4.12432e-10
7.41952e-09
9.45794e-10
1.84866e-09
-2.78583e-10
1.84713e-09
1.85023e-09
-2.7644e-10
2.69301e-09
1.83046e-09
-2.77057e-10
3.48596e-09
1.80315e-09
-2.80603e-10
4.23473e-09
1.77765e-09
-2.87496e-10
4.94787e-09
1.75806e-09
-2.98415e-10
5.6312e-09
1.74711e-09
-3.14322e-10
6.28654e-09
1.74797e-09
-3.36415e-10
6.91091e-09
1.76339e-09
-3.66012e-10
1.77912e-09
-4.04297e-10
7.49449e-09
9.30164e-10
2.67858e-09
-2.79348e-10
1.82741e-09
2.69414e-09
-2.77018e-10
2.68168e-09
2.68448e-09
-2.7738e-10
3.48882e-09
2.65991e-09
-2.80607e-10
4.25124e-09
2.63204e-09
-2.87099e-10
4.97569e-09
2.61021e-09
-2.97513e-10
5.66787e-09
2.59995e-09
-3.12751e-10
6.32872e-09
2.60527e-09
-3.33886e-10
6.95528e-09
2.6297e-09
-3.62041e-10
2.65058e-09
-3.98016e-10
7.53741e-09
9.1346e-10
3.45613e-09
-2.83116e-10
1.80194e-09
3.48574e-09
-2.80536e-10
2.65712e-09
3.48992e-09
-2.80568e-10
3.47343e-09
3.47616e-09
-2.83405e-10
4.24833e-09
3.45353e-09
-2.89434e-10
4.98365e-09
3.4332e-09
-2.99279e-10
5.68336e-09
3.42543e-09
-3.13791e-10
6.34809e-09
3.43664e-09
-3.33947e-10
6.97539e-09
3.47048e-09
-3.60726e-10
3.49618e-09
-3.94569e-10
7.55683e-09
8.98207e-10
4.19192e-09
-2.90312e-10
1.77793e-09
4.23443e-09
-2.87414e-10
2.63101e-09
4.2513e-09
-2.8704e-10
3.45079e-09
4.24962e-09
-2.89403e-10
4.23389e-09
4.23687e-09
-2.949e-10
4.97889e-09
4.22206e-09
-3.04128e-10
5.68535e-09
4.21688e-09
-3.17886e-10
6.3524e-09
4.23242e-09
-3.37088e-10
6.97864e-09
4.27459e-09
-3.62631e-10
4.305e-09
-3.94564e-10
7.55836e-09
8.86076e-10
4.89382e-09
-3.01643e-10
1.75871e-09
4.94777e-09
-2.9833e-10
2.61063e-09
4.97566e-09
-2.97452e-10
3.43231e-09
4.98401e-09
-2.99241e-10
4.21905e-09
4.98068e-09
-3.04109e-10
4.96984e-09
4.97376e-09
-3.12651e-10
5.68188e-09
4.97228e-09
-3.25618e-10
6.35002e-09
4.98897e-09
-3.43862e-10
6.97181e-09
5.03453e-09
-3.68217e-10
5.0677e-09
-3.9833e-10
7.54611e-09
8.7865e-10
5.56747e-09
-3.18119e-10
1.74775e-09
5.63129e-09
-3.14242e-10
2.60084e-09
5.66799e-09
-3.127e-10
3.42631e-09
5.68348e-09
-3.13765e-10
4.21619e-09
5.68567e-09
-3.17868e-10
4.96825e-09
5.68359e-09
-3.25592e-10
5.68165e-09
5.68549e-09
-3.37657e-10
6.34817e-09
5.70117e-09
-3.54817e-10
6.96052e-09
5.74249e-09
-3.7779e-10
5.77371e-09
-4.05906e-10
7.52283e-09
8.77611e-10
6.21497e-09
-3.41038e-10
1.74857e-09
6.28682e-09
-3.36349e-10
2.60616e-09
6.32896e-09
-3.3385e-10
3.43791e-09
6.34815e-09
-3.33934e-10
4.23363e-09
6.35205e-09
-3.37075e-10
4.98721e-09
6.34924e-09
-3.43809e-10
5.69718e-09
6.3483e-09
-3.54749e-10
6.35481e-09
6.35677e-09
-3.70446e-10
6.95015e-09
6.38561e-09
-3.91466e-10
6.40908e-09
-4.16992e-10
7.49006e-09
8.84916e-10
6.83366e-09
-3.71893e-10
1.76388e-09
6.91137e-09
-3.65965e-10
2.63038e-09
6.95566e-09
-3.62023e-10
3.47133e-09
6.97558e-09
-3.60727e-10
4.27559e-09
6.97843e-09
-3.62627e-10
5.03422e-09
6.97091e-09
-3.68164e-10
5.74053e-09
6.95951e-09
-3.77703e-10
6.38359e-09
6.95024e-09
-3.91417e-10
6.9522e-09
6.95335e-09
-4.09526e-10
6.95484e-09
-4.30924e-10
7.4487e-09
8.94555e-10
-4.12386e-10
7.42003e-09
1.77946e-09
-4.04271e-10
7.495e-09
2.65102e-09
-3.98016e-10
7.53787e-09
3.49665e-09
-3.94585e-10
7.55715e-09
4.30537e-09
-3.94576e-10
7.55844e-09
5.06764e-09
-3.98313e-10
7.54591e-09
5.77339e-09
-4.05868e-10
7.52246e-09
6.40834e-09
-4.16954e-10
7.48973e-09
6.95357e-09
-4.30885e-10
7.44856e-09
-4.4609e-10
7.40132e-09
7.40167e-09
9.14085e-10
9.16797e-10
-3.55881e-10
1.76977e-09
9.10072e-10
-3.54346e-10
2.55409e-09
8.90519e-10
-3.57275e-10
3.27276e-09
8.68573e-10
-3.64654e-10
3.93299e-09
8.47557e-10
-3.76705e-10
4.53921e-09
8.28224e-10
-3.93864e-10
5.09318e-09
8.11558e-10
-4.16718e-10
5.5935e-09
7.98857e-10
-4.45897e-10
6.035e-09
7.91571e-10
-4.81869e-10
7.84036e-10
-5.24897e-10
6.412e-09
9.07443e-10
1.77148e-09
-3.54314e-10
1.76698e-09
1.76989e-09
-3.52554e-10
2.56344e-09
1.74491e-09
-3.55125e-10
3.29523e-09
1.70986e-09
-3.62024e-10
3.96693e-09
1.6736e-09
-3.73469e-10
4.58308e-09
1.63978e-09
-3.89875e-10
5.14557e-09
1.61056e-09
-4.11786e-10
5.65295e-09
1.58838e-09
-4.39752e-10
6.10009e-09
1.57519e-09
-4.74105e-10
1.55806e-09
-5.14664e-10
6.47757e-09
8.89305e-10
2.55393e-09
-3.57209e-10
1.74206e-09
2.56445e-09
-3.5508e-10
2.54408e-09
2.54667e-09
-3.57114e-10
3.28738e-09
2.51052e-09
-3.63331e-10
3.97051e-09
2.46694e-09
-3.73936e-10
4.59629e-09
2.42439e-09
-3.89325e-10
5.16661e-09
2.38744e-09
-4.09996e-10
5.67947e-09
2.35914e-09
-4.3639e-10
6.13014e-09
2.342e-09
-4.68698e-10
2.31598e-09
-5.0646e-10
6.51017e-09
8.68676e-10
3.27211e-09
-3.64569e-10
1.70877e-09
3.29489e-09
-3.61949e-10
2.50798e-09
3.28832e-09
-3.63287e-10
3.25697e-09
3.25943e-09
-3.68638e-10
3.94965e-09
3.21662e-09
-3.78205e-10
4.58422e-09
3.16994e-09
-3.92354e-10
5.16104e-09
3.12817e-09
-4.11546e-10
5.67797e-09
3.09636e-09
-4.36151e-10
6.13093e-09
3.07699e-09
-4.66265e-10
3.04351e-09
-5.01172e-10
6.51429e-09
8.47943e-10
3.93246e-09
-3.76612e-10
1.67394e-09
3.96649e-09
-3.73387e-10
2.46608e-09
3.97044e-09
-3.73873e-10
3.21418e-09
3.95076e-09
-3.78169e-10
3.91142e-09
3.91409e-09
-3.86502e-10
4.55294e-09
3.86823e-09
-3.99218e-10
5.13507e-09
3.82315e-09
-4.16738e-10
5.6543e-09
3.78798e-09
-4.39392e-10
6.10752e-09
3.76702e-09
-4.67245e-10
3.72787e-09
-4.9928e-10
6.4931e-09
8.2859e-10
4.53886e-09
-3.9377e-10
1.64046e-09
4.58279e-09
-3.89795e-10
2.42487e-09
4.5961e-09
-3.89263e-10
3.16923e-09
4.58444e-09
-3.92311e-10
3.86559e-09
4.55452e-09
-3.99195e-10
4.50948e-09
4.51298e-09
-4.10273e-10
5.09508e-09
4.46716e-09
-4.25929e-10
5.61498e-09
4.42751e-09
-4.46454e-10
6.06512e-09
4.40249e-09
-4.71893e-10
4.35819e-09
-5.00924e-10
6.44952e-09
8.11906e-10
5.09301e-09
-4.16632e-10
1.61122e-09
5.14546e-09
-4.11717e-10
2.38835e-09
5.16656e-09
-4.09949e-10
3.12909e-09
5.16104e-09
-4.11518e-10
3.82268e-09
5.13533e-09
-4.16715e-10
4.46369e-09
5.0967e-09
-4.25899e-10
5.04805e-09
5.05153e-09
-4.39437e-10
5.5658e-09
5.00761e-09
-4.57553e-10
6.00863e-09
4.97451e-09
-4.80214e-10
4.92378e-09
-5.05893e-10
6.38629e-09
7.99174e-10
5.59353e-09
-4.45826e-10
1.589e-09
5.65301e-09
-4.39699e-10
2.36004e-09
5.67953e-09
-4.36361e-10
3.09764e-09
5.67794e-09
-4.36138e-10
3.78926e-09
5.65399e-09
-4.39375e-10
4.42625e-09
5.61447e-09
-4.46393e-10
5.00424e-09
5.56622e-09
-4.57477e-10
5.51355e-09
5.5154e-09
-4.72691e-10
5.94342e-09
5.47076e-09
-4.91909e-10
5.4127e-09
-5.13596e-10
6.30638e-09
7.91834e-10
6.03521e-09
-4.8182e-10
1.57569e-09
6.10032e-09
-4.74074e-10
2.34271e-09
6.13034e-09
-4.68688e-10
3.0779e-09
6.13102e-09
-4.66266e-10
3.76813e-09
6.10735e-09
-4.67233e-10
4.40259e-09
6.06448e-09
-4.71828e-10
4.97307e-09
6.00796e-09
-4.80113e-10
5.46908e-09
5.94364e-09
-4.91854e-10
5.87972e-09
5.88074e-09
-5.0672e-10
5.81095e-09
-5.23109e-10
6.21436e-09
7.84232e-10
-5.24872e-10
6.41228e-09
1.55842e-09
-5.14654e-10
6.47787e-09
2.31646e-09
-5.06468e-10
6.51045e-09
3.04406e-09
-5.01188e-10
6.51449e-09
3.72838e-09
-4.99286e-10
6.49315e-09
4.3584e-09
-5.00896e-10
6.44938e-09
4.92371e-09
-5.05844e-10
6.38604e-09
5.41222e-09
-5.13554e-10
6.30622e-09
5.81001e-09
-5.23074e-10
6.21443e-09
-5.32718e-10
6.11729e-09
6.11769e-09
8.20216e-10
8.22618e-10
-3.95304e-10
1.58306e-09
8.15069e-10
-3.93192e-10
2.27269e-09
7.94608e-10
-3.95535e-10
2.89072e-09
7.70688e-10
-4.02088e-10
3.44066e-09
7.46309e-10
-4.12731e-10
3.92395e-09
7.22105e-10
-4.2742e-10
4.34009e-09
6.98861e-10
-4.46102e-10
4.68658e-09
6.77591e-10
-4.68592e-10
4.9589e-09
6.59408e-10
-4.94393e-10
6.39579e-10
-5.22673e-10
5.15299e-09
8.12749e-10
1.58453e-09
-3.93162e-10
1.57766e-09
1.58021e-09
-3.90788e-10
2.27696e-09
1.55223e-09
-3.92709e-10
2.90567e-09
1.51268e-09
-3.98704e-10
3.46495e-09
1.46952e-09
-4.08659e-10
3.9563e-09
1.42588e-09
-4.22525e-10
4.37939e-09
1.3835e-09
-4.40238e-10
4.73179e-09
1.34433e-09
-4.61577e-10
5.00927e-09
1.30987e-09
-4.85991e-10
1.2696e-09
-5.12414e-10
5.20615e-09
7.93562e-10
2.27244e-09
-3.95475e-10
1.54976e-09
2.27777e-09
-3.92668e-10
2.25178e-09
2.25399e-09
-3.9394e-10
2.88899e-09
2.21013e-09
-3.99105e-10
3.45718e-09
2.15596e-09
-4.08056e-10
3.95632e-09
2.09882e-09
-4.20748e-10
4.38614e-09
2.04248e-09
-4.37104e-10
4.74396e-09
1.98933e-09
-4.5686e-10
5.02606e-09
1.94139e-09
-4.79415e-10
1.88272e-09
-5.03601e-10
5.22845e-09
7.70819e-10
2.89e-09
-4.02013e-10
1.5118e-09
2.90524e-09
-3.98637e-10
2.20798e-09
2.88971e-09
-3.99066e-10
2.84765e-09
2.84971e-09
-4.03166e-10
3.4225e-09
2.79266e-09
-4.10849e-10
3.92847e-09
2.72724e-09
-4.22067e-10
4.36397e-09
2.66077e-09
-4.36744e-10
4.7263e-09
2.59729e-09
-4.54599e-10
5.01235e-09
2.5388e-09
-4.75022e-10
2.46466e-09
-4.96753e-10
5.22132e-09
7.46686e-10
3.44001e-09
-4.12651e-10
1.46989e-09
3.46439e-09
-4.08588e-10
2.15531e-09
3.45698e-09
-4.08e-10
2.79066e-09
3.42337e-09
-4.10818e-10
3.36703e-09
3.36923e-09
-4.1699e-10
3.87772e-09
3.30116e-09
-4.26481e-10
4.31768e-09
3.22742e-09
-4.39211e-10
4.68297e-09
3.15545e-09
-4.54911e-10
4.97127e-09
3.08871e-09
-4.72997e-10
3.00259e-09
-4.92095e-10
5.18615e-09
7.2246e-10
3.92343e-09
-4.27343e-10
1.42653e-09
3.95586e-09
-4.22459e-10
2.09935e-09
3.956e-09
-4.20696e-10
2.72676e-09
3.92854e-09
-4.22031e-10
3.29903e-09
3.87899e-09
-4.26462e-10
3.8098e-09
3.81269e-09
-4.33989e-10
4.2522e-09
3.73554e-09
-4.44532e-10
4.6189e-09
3.65605e-09
-4.57835e-10
4.90674e-09
3.58113e-09
-4.7335e-10
3.48579e-09
-4.89584e-10
5.12501e-09
6.99197e-10
4.33972e-09
-4.46034e-10
1.38414e-09
4.3791e-09
-4.40183e-10
2.04337e-09
4.38594e-09
-4.37067e-10
2.66168e-09
4.36386e-09
-4.36722e-10
3.22717e-09
4.31785e-09
-4.39195e-10
3.73279e-09
4.2536e-09
-4.44512e-10
4.1731e-09
4.17601e-09
-4.52617e-10
4.53879e-09
4.09138e-09
-4.6325e-10
4.82314e-09
4.00767e-09
-4.75858e-10
3.9049e-09
-4.88912e-10
5.04075e-09
6.77896e-10
4.68639e-09
-4.6854e-10
1.34492e-09
4.73165e-09
-4.6154e-10
1.9902e-09
4.74386e-09
-4.5684e-10
2.59852e-09
4.72618e-09
-4.54592e-10
3.1567e-09
4.68269e-09
-4.549e-10
3.65529e-09
4.61863e-09
-4.57794e-10
4.08877e-09
4.53938e-09
-4.63198e-10
4.44858e-09
4.45019e-09
-4.70796e-10
4.72585e-09
4.35834e-09
-4.80041e-10
4.25105e-09
-4.89503e-10
4.93741e-09
6.59663e-10
4.95887e-09
-4.94362e-10
1.31036e-09
5.00928e-09
-4.85973e-10
1.94209e-09
5.02608e-09
-4.79413e-10
2.53971e-09
5.01233e-09
-4.75027e-10
3.08984e-09
4.97112e-09
-4.72992e-10
3.58153e-09
4.90633e-09
-4.73306e-10
4.00675e-09
4.82278e-09
-4.75789e-10
4.35706e-09
4.72614e-09
-4.80004e-10
4.62391e-09
4.62474e-09
-4.8538e-10
4.51552e-09
-4.90603e-10
4.8218e-09
6.39771e-10
-5.22664e-10
5.15306e-09
1.26996e-09
-5.12416e-10
5.20625e-09
1.88321e-09
-5.03615e-10
5.22856e-09
2.46525e-09
-4.96772e-10
5.2214e-09
3.00318e-09
-4.92104e-10
5.18615e-09
3.48619e-09
-4.89568e-10
5.12492e-09
3.90503e-09
-4.88878e-10
5.04061e-09
4.25081e-09
-4.89477e-10
4.93736e-09
4.51488e-09
-4.90584e-10
4.82198e-09
-4.91064e-10
4.70332e-09
4.70372e-09
6.99385e-10
7.01404e-10
-3.98122e-10
1.34583e-09
6.93736e-10
-3.94897e-10
1.92252e-09
6.73938e-10
-3.9504e-10
2.42831e-09
6.50185e-10
-3.98172e-10
2.86433e-09
6.251e-10
-4.03929e-10
3.23067e-09
5.99274e-10
-4.11921e-10
3.5265e-09
5.73402e-10
-4.21676e-10
3.75034e-09
5.48364e-10
-4.32553e-10
3.90038e-09
5.25132e-10
-4.43663e-10
5.0011e-10
-4.53888e-10
3.9763e-09
6.91794e-10
1.34702e-09
-3.94874e-10
1.3389e-09
1.34101e-09
-3.91419e-10
1.92287e-09
1.31269e-09
-3.91187e-10
2.43697e-09
1.27259e-09
-3.93828e-10
2.88031e-09
1.22757e-09
-3.98994e-10
3.25301e-09
1.18038e-09
-4.06311e-10
3.5544e-09
1.13253e-09
-4.15314e-10
3.78312e-09
1.08575e-09
-4.25372e-10
3.93772e-09
1.04144e-09
-4.356e-10
9.91738e-10
-4.44828e-10
4.01746e-09
6.73088e-10
1.92221e-09
-3.94993e-10
1.31067e-09
1.92348e-09
-3.91155e-10
1.89524e-09
1.89702e-09
-3.90334e-10
2.41527e-09
1.85072e-09
-3.92222e-10
2.86534e-09
1.79305e-09
-3.96495e-10
3.2443e-09
1.73028e-09
-4.02801e-10
3.55152e-09
1.66563e-09
-4.10698e-10
3.78552e-09
1.60126e-09
-4.19564e-10
3.94531e-09
1.53913e-09
-4.28534e-10
1.46754e-09
-4.3646e-10
4.03188e-09
6.50332e-10
2.42756e-09
-3.98114e-10
1.27191e-09
2.43649e-09
-3.93777e-10
1.84902e-09
2.41577e-09
-3.92192e-10
2.36927e-09
2.37088e-09
-3.93111e-10
2.82386e-09
2.30829e-09
-3.96242e-10
3.20822e-09
2.23538e-09
-4.01261e-10
3.52063e-09
2.15832e-09
-4.07755e-10
3.7596e-09
2.08063e-09
-4.15133e-10
3.92457e-09
2.00437e-09
-4.22575e-10
1.9147e-09
-4.28958e-10
4.01942e-09
6.25451e-10
2.86362e-09
-4.03868e-10
1.22795e-09
2.87968e-09
-3.98941e-10
1.79261e-09
2.86506e-09
-3.96453e-10
2.30675e-09
2.82448e-09
-3.9622e-10
2.76109e-09
2.7628e-09
-3.98003e-10
3.14889e-09
2.68563e-09
-4.0151e-10
3.46553e-09
2.59992e-09
-4.06364e-10
3.70841e-09
2.51197e-09
-4.12016e-10
3.87749e-09
2.42504e-09
-4.1771e-10
2.32175e-09
-4.22344e-10
3.98058e-09
5.99604e-10
3.23005e-09
-4.11864e-10
1.18099e-09
3.25247e-09
-4.06262e-10
1.73081e-09
3.24389e-09
-4.02764e-10
2.2351e-09
3.20817e-09
-4.01236e-10
2.68402e-09
3.14984e-09
-4.01499e-10
3.07108e-09
3.07333e-09
-4.03312e-10
3.39017e-09
2.98362e-09
-4.06333e-10
3.63583e-09
2.88787e-09
-4.10062e-10
3.80718e-09
2.79217e-09
-4.13808e-10
2.67943e-09
-4.16494e-10
3.91703e-09
5.73713e-10
3.52601e-09
-4.21628e-10
1.13312e-09
3.55398e-09
-4.15275e-10
1.66645e-09
3.5512e-09
-4.10673e-10
2.15917e-09
3.52042e-09
-4.07742e-10
2.59986e-09
3.4656e-09
-4.06356e-10
2.98156e-09
3.39129e-09
-4.06325e-10
3.29923e-09
3.30154e-09
-4.07355e-10
3.54586e-09
3.20178e-09
-4.08992e-10
3.71764e-09
3.09902e-09
-4.10593e-10
2.98045e-09
-4.11147e-10
3.83161e-09
5.48646e-10
3.74999e-09
-4.32519e-10
1.0863e-09
3.78283e-09
-4.25348e-10
1.60207e-09
3.78529e-09
-4.19553e-10
2.08173e-09
3.75941e-09
-4.15132e-10
2.51312e-09
3.70816e-09
-4.12015e-10
2.88749e-09
3.63569e-09
-4.10047e-10
3.19985e-09
3.54647e-09
-4.08969e-10
3.44396e-09
3.44527e-09
-4.08361e-10
3.61411e-09
3.33852e-09
-4.07638e-10
3.21893e-09
-4.05924e-10
3.72877e-09
5.25367e-10
3.90018e-09
-4.43646e-10
1.04189e-09
3.93757e-09
-4.35593e-10
1.53979e-09
3.94519e-09
-4.28538e-10
2.00523e-09
3.92446e-09
-4.22585e-10
2.42609e-09
3.87735e-09
-4.17716e-10
2.79273e-09
3.80693e-09
-4.13793e-10
3.09849e-09
3.71747e-09
-4.10563e-10
3.33759e-09
3.6144e-09
-4.07623e-10
3.50458e-09
3.50522e-09
-4.04474e-10
3.39023e-09
-4.00409e-10
3.61583e-09
5.00287e-10
-4.53887e-10
3.9762e-09
9.92075e-10
-4.44834e-10
4.0174e-09
1.46801e-09
-4.36475e-10
4.03185e-09
1.91526e-09
-4.28978e-10
4.0194e-09
2.32235e-09
-4.22359e-10
3.98055e-09
2.67992e-09
-4.16494e-10
3.91697e-09
2.98068e-09
-4.11136e-10
3.83154e-09
3.21883e-09
-4.05916e-10
3.72878e-09
3.38981e-09
-4.00405e-10
3.61604e-09
-3.94131e-10
3.50226e-09
3.5026e-09
5.75135e-10
5.7677e-10
-3.72475e-10
1.10391e-09