/*--------------------------------*- C++ -*----------------------------------*\
| =========                 |                                                 |
| \\      /  F ield         | foam-extend: Open Source CFD                    |
|  \\    /   O peration     | Version:     3.1                                |
|   \\  /    A nd           | Web:         http://www.extend-project.de       |
|    \\/     M anipulation  |                                                 |
\*---------------------------------------------------------------------------*/
FoamFile
{
    version     2.0;
    format      ascii;
    class       volScalarField;
    location    "0.0003";
    object      p;
}
// * * * * * * * * * * * * * * * * * * * * * * * * * * * * * * * * * * * * * //

dimensions      [0 2 -2 0 0 0 0];

internalField   nonuniform List<scalar> 
16000
(
1.25223
1.25192
1.25129
1.25034
1.24906
1.24745
1.2455
1.24321
1.24062
1.23779
1.25192
1.25163
1.25103
1.25012
1.2489
1.24735
1.24548
1.24328
1.24079
1.23806
1.25129
1.25103
1.25047
1.24961
1.24845
1.24697
1.24518
1.24308
1.2407
1.23809
1.25034
1.25012
1.24961
1.24881
1.24771
1.24631
1.24461
1.24262
1.24036
1.23789
1.24906
1.2489
1.24845
1.24771
1.24669
1.24538
1.24378
1.2419
1.23977
1.23745
1.24745
1.24735
1.24697
1.24631
1.24538
1.24416
1.24267
1.24093
1.23895
1.23679
1.2455
1.24548
1.24518
1.24461
1.24378
1.24267
1.24131
1.23971
1.23789
1.23592
1.24321
1.24328
1.24308
1.24262
1.2419
1.24093
1.23971
1.23826
1.23663
1.23486
1.24062
1.24079
1.2407
1.24036
1.23977
1.23895
1.23789
1.23663
1.23519
1.23365
1.23779
1.23806
1.23809
1.23789
1.23745
1.23679
1.23592
1.23486
1.23365
1.23235
1.09249
1.09157
1.08971
1.0869
1.0831
1.07828
1.07239
1.06542
1.05738
1.04835
1.09157
1.09071
1.08894
1.08625
1.0826
1.07796
1.0723
1.0656
1.05786
1.04916
1.08971
1.08894
1.08729
1.08473
1.08125
1.07681
1.0714
1.06498
1.05756
1.04922
1.0869
1.08625
1.08473
1.08234
1.07905
1.07483
1.06967
1.06355
1.05648
1.04853
1.0831
1.0826
1.08125
1.07905
1.07597
1.072
1.06712
1.06132
1.05462
1.04709
1.07828
1.07796
1.07681
1.07483
1.072
1.0683
1.06373
1.05828
1.05198
1.0449
1.07239
1.0723
1.0714
1.06967
1.06712
1.06373
1.0595
1.05443
1.04857
1.04198
1.06542
1.0656
1.06498
1.06355
1.06132
1.05828
1.05443
1.0498
1.04441
1.03837
1.05738
1.05786
1.05756
1.05648
1.05462
1.05198
1.04857
1.04441
1.03956
1.03413
1.04835
1.04916
1.04922
1.04853
1.04709
1.0449
1.04198
1.03837
1.03413
1.02938
0.939135
0.937661
0.934683
0.930157
0.924014
0.916161
0.906484
0.894853
0.881124
0.865157
0.937661
0.936281
0.933442
0.929102
0.923199
0.915646
0.906339
0.895156
0.881962
0.866628
0.934684
0.933442
0.930778
0.926654
0.921013
0.913777
0.904849
0.894116
0.881457
0.866756
0.930157
0.929102
0.926654
0.92278
0.917428
0.910529
0.901994
0.891722
0.879603
0.865536
0.924014
0.923199
0.921013
0.917428
0.912399
0.905864
0.897744
0.887949
0.876381
0.862957
0.916161
0.915646
0.913777
0.910529
0.905864
0.899728
0.892053
0.88276
0.871761
0.858996
0.906484
0.906339
0.904849
0.901994
0.897744
0.892053
0.884863
0.876105
0.865705
0.853623
0.894853
0.895156
0.894116
0.891722
0.887949
0.88276
0.876105
0.867929
0.858169
0.846805
0.881124
0.881962
0.881457
0.879603
0.876381
0.871761
0.865706
0.858169
0.849106
0.838513
0.865157
0.866628
0.866756
0.865536
0.862957
0.858996
0.853623
0.846805
0.838513
0.828762
0.795914
0.793994
0.790111
0.784198
0.776146
0.765805
0.752973
0.737388
0.718707
0.69649
0.793994
0.792196
0.788492
0.78282
0.77508
0.765132
0.75279
0.737809
0.719874
0.698583
0.790111
0.788492
0.785013
0.779617
0.772213
0.76267
0.750816
0.736425
0.719205
0.69879
0.784198
0.78282
0.779617
0.774538
0.767499
0.75838
0.747021
0.733214
0.716687
0.697111
0.776146
0.77508
0.772213
0.767499
0.760862
0.752195
0.741347
0.728127
0.712284
0.693521
0.765805
0.765132
0.76267
0.75838
0.752195
0.744015
0.733705
0.721087
0.705928
0.687964
0.752973
0.75279
0.750816
0.747021
0.741347
0.733705
0.723971
0.71198
0.697518
0.68035
0.737388
0.737809
0.736425
0.733214
0.728127
0.721087
0.71198
0.700656
0.686917
0.670556
0.718707
0.719874
0.719205
0.716687
0.712284
0.705928
0.697518
0.686917
0.673942
0.658418
0.69649
0.698583
0.69879
0.697111
0.693521
0.687964
0.68035
0.670556
0.658418
0.643775
0.665827
0.663619
0.659153
0.65235
0.643084
0.631176
0.616379
0.598369
0.576714
0.550842
0.663619
0.661551
0.657291
0.650767
0.641861
0.630406
0.616175
0.598867
0.578083
0.553299
0.659153
0.657291
0.653291
0.647086
0.638566
0.627578
0.613911
0.597284
0.577327
0.553565
0.65235
0.650767
0.647086
0.641245
0.633146
0.622645
0.609547
0.593591
0.574433
0.55164
0.643084
0.641861
0.638566
0.633146
0.625511
0.615527
0.603014
0.58773
0.569355
0.547496
0.631176
0.630406
0.627578
0.622645
0.615527
0.606102
0.594203
0.579604
0.562009
0.541062
0.616379
0.616175
0.613911
0.609547
0.603014
0.594203
0.582959
0.569073
0.552269
0.532228
0.598369
0.598867
0.597284
0.593591
0.58773
0.579604
0.569073
0.555943
0.539957
0.520831
0.576714
0.578083
0.577327
0.574433
0.569355
0.562009
0.552269
0.539957
0.524835
0.506655
0.550842
0.553299
0.553565
0.55164
0.547496
0.541062
0.532228
0.520831
0.506655
0.489468
0.550792
0.548476
0.543796
0.536681
0.527012
0.514626
0.499303
0.480755
0.458608
0.432391
0.548476
0.546309
0.541849
0.535029
0.52574
0.513832
0.499098
0.481273
0.460011
0.434878
0.543796
0.541849
0.537667
0.531189
0.522315
0.510905
0.496769
0.479659
0.459255
0.435161
0.536681
0.535028
0.531189
0.525105
0.516687
0.505804
0.492281
0.475888
0.456329
0.433243
0.527012
0.52574
0.522315
0.516687
0.508774
0.498456
0.485572
0.46991
0.451194
0.4291
0.514626
0.513832
0.510905
0.505804
0.498456
0.488753
0.476546
0.461639
0.443779
0.422675
0.499303
0.499098
0.496769
0.492281
0.485572
0.476546
0.465067
0.450955
0.433977
0.413875
0.480755
0.481273
0.479659
0.475888
0.46991
0.461639
0.450955
0.437693
0.421641
0.40257
0.458608
0.460011
0.459255
0.456329
0.451194
0.443779
0.433977
0.421641
0.406576
0.388588
0.432391
0.434878
0.435161
0.433243
0.4291
0.422675
0.413875
0.40257
0.388588
0.371752
0.451512
0.449253
0.444699
0.437794
0.428455
0.416566
0.401976
0.384499
0.36391
0.339948
0.449253
0.447143
0.442807
0.436196
0.427232
0.415808
0.401784
0.384987
0.365207
0.342203
0.444698
0.442806
0.438751
0.432486
0.423941
0.413016
0.399583
0.383481
0.364517
0.342468
0.437794
0.436196
0.432486
0.426624
0.418546
0.40816
0.395349
0.379966
0.361829
0.340742
0.428455
0.427232
0.423941
0.418546
0.41099
0.401191
0.389041
0.374406
0.357122
0.337011
0.416566
0.415808
0.413016
0.40816
0.401191
0.392034
0.380595
0.36675
0.350351
0.331243
0.401976
0.401784
0.399583
0.395349
0.389041
0.380595
0.369926
0.356924
0.341455
0.323387
0.384499
0.384987
0.383481
0.379965
0.374406
0.36675
0.356924
0.34483
0.330349
0.313374
0.36391
0.365207
0.364517
0.361829
0.357122
0.350351
0.341454
0.330349
0.316931
0.301114
0.339948
0.342203
0.342468
0.340742
0.337011
0.331243
0.323387
0.313374
0.301114
0.286537
0.367579
0.3655
0.361317
0.355002
0.346507
0.335774
0.322732
0.307304
0.289413
0.268995
0.3655
0.36356
0.359584
0.353544
0.345398
0.335093
0.322562
0.307732
0.290531
0.270897
0.361317
0.359584
0.355875
0.350167
0.342422
0.332589
0.320609
0.306415
0.289938
0.271124
0.355001
0.353544
0.350167
0.344849
0.337557
0.328246
0.316861
0.303343
0.287629
0.269672
0.346507
0.345398
0.342422
0.337557
0.330776
0.32204
0.3113
0.298503
0.283594
0.266535
0.335774
0.335093
0.332589
0.328246
0.32204
0.313937
0.303898
0.291875
0.27782
0.261706
0.322732
0.322562
0.320609
0.316861
0.3113
0.303898
0.294621
0.283431
0.270286
0.25517
0.307304
0.307732
0.306415
0.303343
0.298503
0.291875
0.283431
0.273139
0.260968
0.246912
0.289413
0.290531
0.289938
0.287629
0.283594
0.27782
0.270286
0.260968
0.249843
0.236915
0.268995
0.270897
0.271124
0.269672
0.266535
0.261706
0.25517
0.246912
0.236915
0.225191
0.297766
0.295936
0.292262
0.286736
0.279346
0.270078
0.258926
0.245891
0.230996
0.214298
0.295936
0.294231
0.290743
0.285464
0.278385
0.269493
0.25878
0.246249
0.231919
0.215839
0.292262
0.290743
0.287499
0.282524
0.275809
0.267343
0.257121
0.245144
0.231429
0.216023
0.286736
0.285464
0.282524
0.277909
0.271612
0.263625
0.253944
0.242571
0.229523
0.214845
0.279346
0.278385
0.275809
0.271612
0.26579
0.258336
0.249249
0.238532
0.226203
0.212307
0.270078
0.269493
0.267343
0.263625
0.258336
0.251473
0.243035
0.233029
0.221473
0.208413
0.258926
0.25878
0.257121
0.253944
0.249249
0.243035
0.235304
0.226066
0.215339
0.203173
0.245891
0.246249
0.245144
0.242571
0.238532
0.233029
0.226066
0.217655
0.207817
0.196602
0.230996
0.231919
0.231429
0.229523
0.226203
0.221472
0.215339
0.207817
0.198927
0.188723
0.214298
0.215839
0.216023
0.214845
0.212307
0.208413
0.203173
0.196602
0.188723
0.17959
0.240388
0.238828
0.235702
0.231018
0.224784
0.217017
0.207746
0.197015
0.184893
0.171483
0.238828
0.237376
0.234412
0.229942
0.223975
0.216528
0.207625
0.197307
0.185639
0.172713
0.235702
0.234412
0.231663
0.22746
0.221812
0.214734
0.206251
0.196401
0.185241
0.172858
0.231018
0.229942
0.22746
0.223575
0.218297
0.21164
0.203628
0.194297
0.183699
0.171916
0.224784
0.223975
0.221812
0.218297
0.21344
0.207255
0.199764
0.191002
0.181019
0.169891
0.217017
0.216528
0.214734
0.21164
0.207255
0.201592
0.194673
0.186531
0.177213
0.166792
0.207746
0.207625
0.206251
0.203628
0.199764
0.194673
0.188376
0.180904
0.172302
0.162639
0.197015
0.197307
0.196401
0.194297
0.191002
0.186531
0.180904
0.174151
0.166313
0.157457
0.184893
0.185639
0.185241
0.183699
0.181019
0.177213
0.172302
0.166313
0.159285
0.151283
0.171484
0.172713
0.172858
0.171916
0.169891
0.166792
0.162639
0.157457
0.151283
0.144176
0.193611
0.192311
0.189709
0.18582
0.180664
0.174271
0.166685
0.157963
0.148184
0.137451
0.192311
0.191102
0.188637
0.184929
0.179997
0.173869
0.166585
0.158199
0.148782
0.138431
0.189709
0.188637
0.186355
0.182874
0.178213
0.172398
0.165465
0.157464
0.148462
0.138546
0.18582
0.184929
0.182874
0.179666
0.175321
0.169864
0.163328
0.15576
0.147221
0.137792
0.180664
0.179997
0.178213
0.175321
0.171336
0.166281
0.160187
0.153098
0.145068
0.136175
0.174271
0.173869
0.172398
0.169864
0.166281
0.161671
0.156062
0.149494
0.142018
0.133706
0.166685
0.166585
0.165465
0.163328
0.160187
0.156062
0.150978
0.144972
0.138092
0.130403
0.157963
0.158199
0.157464
0.15576
0.153098
0.149494
0.144972
0.139566
0.133319
0.126292
0.148184
0.148782
0.148462
0.147221
0.145068
0.142018
0.138092
0.133319
0.127739
0.121407
0.137451
0.138431
0.138546
0.137792
0.136175
0.133706
0.130403
0.126292
0.121407
0.1158
0.155679
0.15461
0.152474
0.149285
0.145069
0.139859
0.133697
0.126641
0.118761
0.110142
0.15461
0.153617
0.151594
0.148556
0.144524
0.139531
0.133616
0.126831
0.119242
0.110928
0.152473
0.151594
0.149723
0.146875
0.143069
0.138334
0.132708
0.126237
0.118983
0.111019
0.149285
0.148556
0.146875
0.144254
0.140712
0.136275
0.130977
0.124862
0.117985
0.110414
0.145069
0.144524
0.143069
0.140712
0.137471
0.133368
0.128435
0.122714
0.116253
0.109116
0.139859
0.139531
0.138334
0.136275
0.133368
0.129634
0.125103
0.11981
0.113801
0.107135
0.133697
0.133616
0.132708
0.130977
0.128435
0.125103
0.121004
0.116173
0.110649
0.104487
0.126641
0.126831
0.126237
0.124862
0.122714
0.11981
0.116173
0.111831
0.106822
0.101193
0.118761
0.119242
0.118983
0.117985
0.116253
0.113801
0.110649
0.106822
0.102351
0.0972807
0.110142
0.110928
0.111019
0.110414
0.109116
0.107135
0.104487
0.101193
0.0972807
0.0927895
0.125023
0.124151
0.12241
0.119815
0.116389
0.112162
0.107173
0.10147
0.0951117
0.0881639
0.124151
0.123341
0.121693
0.119222
0.115946
0.111896
0.107107
0.101624
0.0954995
0.0887968
0.12241
0.121693
0.120171
0.117855
0.114765
0.110926
0.106372
0.101144
0.0952906
0.0888702
0.119815
0.119222
0.117855
0.115727
0.112853
0.109258
0.104972
0.100032
0.0944845
0.0883815
0.116389
0.115946
0.114765
0.112853
0.110226
0.106905
0.102918
0.0982985
0.0930874
0.0873344
0.112162
0.111896
0.110926
0.109258
0.106905
0.103886
0.100226
0.0959553
0.0911103
0.0857368
0.107173
0.107107
0.106372
0.104972
0.102918
0.100226
0.0969184
0.0930216
0.0885685
0.0836009
0.10147
0.101624
0.101144
0.100032
0.0982985
0.0959553
0.0930216
0.0895211
0.0854824
0.0809435
0.0951117
0.0954995
0.0952906
0.0944845
0.0930874
0.0911103
0.0885685
0.0854824
0.0818767
0.0777854
0.0881639
0.0887967
0.0888702
0.0883815
0.0873344
0.0857368
0.0836009
0.0809435
0.0777854
0.0741567
0.100302
0.0995944
0.098182
0.0960783
0.0933028
0.0898815
0.0858474
0.0812398
0.0761046
0.0704933
0.0995944
0.0989374
0.0976009
0.0955973
0.0929445
0.0896666
0.0857942
0.0813638
0.0764177
0.0710045
0.098182
0.0976009
0.0963667
0.0944902
0.0919879
0.0888818
0.0851999
0.0809759
0.0762488
0.0710636
0.0960783
0.0955973
0.0944902
0.0927665
0.0904406
0.0875328
0.0840684
0.0800781
0.0755976
0.0706686
0.0933028
0.0929445
0.0919879
0.0904406
0.0883156
0.0856307
0.0824087
0.0786773
0.074469
0.0698224
0.0898815
0.0896666
0.0888818
0.0875328
0.0856307
0.083191
0.0802341
0.0767847
0.0728719
0.0685312
0.0858474
0.0857942
0.0851999
0.0840684
0.0824087
0.0802341
0.0775624
0.0744153
0.0708186
0.0668048
0.0812398
0.0813638
0.0809759
0.0800781
0.0786773
0.0767847
0.0744153
0.0715879
0.0683251
0.0646562
0.0761045
0.0764177
0.0762488
0.0755976
0.074469
0.0728719
0.0708186
0.0683251
0.0654105
0.0621014
0.0704933
0.0710044
0.0710636
0.0706686
0.0698224
0.0685312
0.0668048
0.0646562
0.0621014
0.0591637
0.0803999
0.0798274
0.0786848
0.0769834
0.0747396
0.071975
0.0687166
0.0649964
0.0608508
0.0563208
0.0798274
0.0792958
0.0782147
0.0765944
0.07445
0.0718014
0.0686737
0.0650964
0.0611035
0.0567335
0.0786848
0.0782147
0.0772165
0.0756994
0.0736769
0.0711673
0.0681937
0.0647832
0.0609671
0.0567812
0.0769834
0.0765944
0.0756994
0.074306
0.0724266
0.0700777
0.0672799
0.0640583
0.0604413
0.0564622
0.0747396
0.0744499
0.0736768
0.0724266
0.0707099
0.0685414
0.0659397
0.0629274
0.0595302
0.0557788
0.071975
0.0718014
0.0711673
0.0700776
0.0685414
0.0665714
0.0641841
0.0613994
0.0582407
0.0547362
0.0687166
0.0686736
0.0681937
0.0672799
0.0659397
0.0641841
0.0620271
0.0594866
0.0565829
0.0533421
0.0649964
0.0650964
0.0647832
0.0640583
0.0629274
0.0613994
0.0594866
0.057204
0.0545696
0.0516068
0.0608507
0.0611035
0.0609671
0.0604413
0.0595302
0.0582407
0.0565829
0.0545696
0.052216
0.0495433
0.0563208
0.0567335
0.0567812
0.0564621
0.0557788
0.0547362
0.0533421
0.0516068
0.0495433
0.0471701
0.0643991
0.0639367
0.0630142
0.0616407
0.0598298
0.0575993
0.0549711
0.0519713
0.0486294
0.0449788
0.0639367
0.0635075
0.0626347
0.0613267
0.0595961
0.0574592
0.0549364
0.0520519
0.0488332
0.0453113
0.0630142
0.0626347
0.0618289
0.0606043
0.0589723
0.0569477
0.0545494
0.0517994
0.0487232
0.0453497
0.0616407
0.0613267
0.0606043
0.0594799
0.0579635
0.0560687
0.0538125
0.0512149
0.0482993
0.0450926
0.0598298
0.0595961
0.0589723
0.0579635
0.0565787
0.0548297
0.0527318
0.0503032
0.047565
0.044542
0.0575993
0.0574592
0.0569477
0.0560687
0.0548297
0.0532411
0.0513162
0.0490715
0.0465258
0.0437019
0.0549711
0.0549364
0.0545493
0.0538124
0.0527318
0.0513162
0.0495775
0.0475297
0.0451898
0.0425788
0.0519713
0.0520519
0.0517994
0.0512149
0.0503032
0.0490715
0.0475297
0.0456902
0.0435676
0.041181
0.0486294
0.0488332
0.0487232
0.0482993
0.047565
0.0465258
0.0451898
0.0435676
0.0416716
0.0395191
0.0449787
0.0453113
0.0453497
0.0450926
0.044542
0.0437019
0.0425788
0.041181
0.0395191
0.0376083
0.0515497
0.051177
0.0504334
0.0493264
0.0478673
0.0460705
0.0439541
0.0415392
0.0388501
0.0359142
0.051177
0.050831
0.0501275
0.0490734
0.047679
0.0459577
0.0439261
0.0416041
0.039014
0.0361815
0.0504333
0.0501275
0.0494781
0.0484913
0.0471764
0.0455457
0.0436144
0.0414008
0.0389255
0.0362124
0.0493264
0.0490734
0.0484913
0.0475854
0.0463639
0.0448378
0.0430212
0.0409304
0.0385846
0.0360057
0.0478673
0.047679
0.0471764
0.0463639
0.0452485
0.0438401
0.0421512
0.0401967
0.0379938
0.035563
0.0460705
0.0459577
0.0455457
0.0448378
0.0438401
0.0425612
0.0410119
0.0392057
0.037158
0.0348877
0.043954
0.0439261
0.0436144
0.0430212
0.0421512
0.0410119
0.0396127
0.0379655
0.0360838
0.033985
0.0415392
0.041604
0.0414008
0.0409304
0.0401967
0.0392057
0.0379655
0.0364861
0.0347797
0.0328619
0.0388501
0.039014
0.0389255
0.0385846
0.0379938
0.037158
0.0360838
0.0347797
0.0332561
0.0315271
0.0359142
0.0361815
0.0362124
0.0360057
0.035563
0.0348877
0.033985
0.0328619
0.0315271
0.0299931
0.0412416
0.0409416
0.0403432
0.0394525
0.0382786
0.0368334
0.0351317
0.0331909
0.0310309
0.0286739
0.0409416
0.0406632
0.040097
0.0392489
0.0381271
0.0367427
0.0351093
0.033243
0.0311625
0.0288885
0.0403432
0.040097
0.0395745
0.0387806
0.0377228
0.0364114
0.0348587
0.0330797
0.0310914
0.0289133
0.0394525
0.0392489
0.0387806
0.0380518
0.0370693
0.0358422
0.0343818
0.0327018
0.0308176
0.0287474
0.0382786
0.0381271
0.0377228
0.0370693
0.0361724
0.0350401
0.0336827
0.0321123
0.0303432
0.0283921
0.0368334
0.0367426
0.0364114
0.0358422
0.0350401
0.0340121
0.0327672
0.0313163
0.0296722
0.0278502
0.0351317
0.0351092
0.0348587
0.0343818
0.0336827
0.0327672
0.0316432
0.0303204
0.02881
0.0271261
0.0331909
0.033243
0.0330797
0.0327017
0.0321123
0.0313163
0.0303204
0.0291328
0.0277636
0.0262254
0.0310308
0.0311624
0.0310914
0.0308175
0.0303432
0.0296722
0.02881
0.0277636
0.0265415
0.0251554
0.0286739
0.0288885
0.0289132
0.0287473
0.0283921
0.0278502
0.0271261
0.0262254
0.0251554
0.0239261
0.0329795
0.0327384
0.0322574
0.0315417
0.0305986
0.0294379
0.0280716
0.0265139
0.0247811
0.0228915
0.0327384
0.0325146
0.0320596
0.0313781
0.0304769
0.029365
0.0280535
0.0265557
0.0248867
0.0230635
0.0322574
0.0320596
0.0316397
0.0310018
0.0301522
0.0290989
0.0278524
0.0264246
0.0248297
0.0230833
0.0315417
0.0313781
0.0310018
0.0304164
0.0296273
0.0286419
0.0274696
0.0261214
0.02461
0.0229503
0.0305986
0.0304769
0.0301522
0.0296273
0.028907
0.027998
0.0269085
0.0256485
0.0242297
0.0226656
0.0294378
0.029365
0.0290989
0.0286419
0.027998
0.0271728
0.0261739
0.02501
0.0236916
0.0222314
0.0280715
0.0280535
0.0278524
0.0274696
0.0269085
0.0261739
0.0252722
0.0242113
0.0230005
0.0216512
0.0265139
0.0265557
0.0264246
0.0261214
0.0256485
0.02501
0.0242113
0.0232592
0.0221619
0.0209297
0.0247811
0.0248866
0.0248296
0.02461
0.0242296
0.0236916
0.0230005
0.0221619
0.0211828
0.0200728
0.0228915
0.0230635
0.0230833
0.0229503
0.0226656
0.0222314
0.0216512
0.0209297
0.0200728
0.0190888
0.0263621
0.0261685
0.0257825
0.025208
0.0244512
0.0235201
0.0224243
0.0211754
0.0197868
0.0182732
0.0261685
0.0259889
0.0256237
0.0250768
0.0243536
0.0234616
0.0224098
0.021209
0.0198714
0.0184109
0.0257825
0.0256237
0.0252867
0.0247748
0.0240931
0.0232482
0.0222485
0.0211039
0.0198257
0.0184268
0.025208
0.0250768
0.0247748
0.0243051
0.023672
0.0228816
0.0219416
0.0208608
0.0196497
0.0183203
0.0244512
0.0243536
0.0240931
0.023672
0.0230943
0.0223652
0.0214917
0.0204818
0.0193449
0.0180922
0.02352
0.0234616
0.0232482
0.0228816
0.0223652
0.0217036
0.0209029
0.0199701
0.018914
0.0177445
0.0224243
0.0224098
0.0222485
0.0219416
0.0214917
0.0209029
0.0201802
0.0193302
0.0183604
0.01728
0.0211754
0.0212089
0.0211039
0.0208608
0.0204818
0.0199701
0.0193302
0.0185676
0.0176888
0.0167024
0.0197868
0.0198713
0.0198256
0.0196497
0.0193449
0.0189139
0.0183604
0.0176888
0.016905
0.0160166
0.0182732
0.0184109
0.0184268
0.0183203
0.0180922
0.0177445
0.01728
0.0167024
0.0160166
0.0152293
0.0210653
0.02091
0.0206005
0.0201399
0.0195332
0.0187868
0.0179087
0.0169083
0.0157962
0.0145845
0.02091
0.020766
0.0204731
0.0200346
0.0194549
0.0187399
0.0178971
0.0169351
0.0158639
0.0146947
0.0206004
0.0204731
0.0202029
0.0197926
0.0192461
0.0185689
0.0177679
0.016851
0.0158273
0.0147074
0.0201399
0.0200346
0.0197925
0.019416
0.0189086
0.0182752
0.017522
0.0166563
0.0156864
0.0146221
0.0195332
0.0194549
0.0192461
0.0189086
0.0184456
0.0178614
0.0171616
0.0163527
0.0154424
0.0144396
0.0187868
0.0187399
0.0185689
0.0182752
0.0178614
0.0173314
0.0166899
0.015943
0.0150973
0.0141613
0.0179087
0.0178971
0.0177679
0.017522
0.0171616
0.0166899
0.0161112
0.0154306
0.0146542
0.0137895
0.0169083
0.0169351
0.0168509
0.0166562
0.0163527
0.015943
0.0154306
0.0148201
0.0141167
0.0133274
0.0157962
0.0158639
0.0158273
0.0156864
0.0154424
0.0150973
0.0146542
0.0141167
0.0134895
0.0127787
0.0145844
0.0146947
0.0147074
0.0146221
0.0144396
0.0141613
0.0137895
0.0133274
0.0127787
0.0121488
0.0168276
0.0167032
0.0164552
0.0160862
0.0156002
0.0150023
0.0142992
0.0134982
0.0126081
0.0116384
0.0167032
0.0165878
0.0163532
0.0160019
0.0155375
0.0149648
0.0142899
0.0135197
0.0126622
0.0117266
0.0164552
0.0163532
0.0161367
0.0158079
0.0153702
0.0148279
0.0141864
0.0134523
0.0126329
0.0117367
0.0160862
0.0160018
0.0158079
0.0155063
0.0150999
0.0145926
0.0139895
0.0132964
0.0125202
0.0116685
0.0156001
0.0155374
0.0153702
0.0150999
0.014729
0.0142613
0.013701
0.0130534
0.0123249
0.0115224
0.0150023
0.0149648
0.0148278
0.0145926
0.0142613
0.0138369
0.0133234
0.0127255
0.0120487
0.0112998
0.0142992
0.0142899
0.0141864
0.0139895
0.013701
0.0133234
0.0128601
0.0123154
0.0116941
0.0110023
0.0134982
0.0135197
0.0134523
0.0132964
0.0130534
0.0127255
0.0123154
0.0118268
0.0112641
0.0106326
0.012608
0.0126622
0.0126329
0.0125201
0.0123248
0.0120487
0.0116941
0.011264
0.0107623
0.0101937
0.0116384
0.0117265
0.0117367
0.0116685
0.0115224
0.0112997
0.0110023
0.0106326
0.0101937
0.0096899
0.0134388
0.0133392
0.0131406
0.0128451
0.012456
0.0119774
0.0114146
0.0107736
0.0100614
0.00928571
0.0133392
0.0132468
0.0130589
0.0127776
0.0124058
0.0119474
0.0114072
0.0107908
0.0101048
0.00935624
0.0131406
0.0130589
0.0128856
0.0126223
0.0122719
0.0118378
0.0113244
0.0107369
0.0100813
0.00936437
0.0128451
0.0127776
0.0126223
0.0123808
0.0120555
0.0116495
0.0111668
0.0106122
0.00999108
0.00930978
0.012456
0.0124058
0.0122719
0.0120555
0.0117587
0.0113843
0.0109359
0.0104177
0.00983483
0.00919294
0.0119774
0.0119474
0.0118378
0.0116495
0.0113843
0.0110446
0.0106337
0.0101553
0.00961391
0.00901482
0.0114146
0.0114072
0.0113244
0.0111668
0.0109359
0.0106337
0.010263
0.00982724
0.00933023
0.0087769
0.0107736
0.0107908
0.0107369
0.0106122
0.0104177
0.0101553
0.00982723
0.00943639
0.00898623
0.00848119
0.0100614
0.0101047
0.0100813
0.00999106
0.00983481
0.0096139
0.00933022
0.00898623
0.00858487
0.00813015
0.00928566
0.0093562
0.00936433
0.00930975
0.00919291
0.00901479
0.00877688
0.00848117
0.00813015
0.00772729
0.0107298
0.0106501
0.0104911
0.0102547
0.00994328
0.00956036
0.00911007
0.00859729
0.00802761
0.00740724
0.0106501
0.0105761
0.0104258
0.0102006
0.00990311
0.00953632
0.00910412
0.00861104
0.00806227
0.00746365
0.0104911
0.0104258
0.010287
0.0100764
0.00979596
0.0094486
0.00903786
0.0085679
0.00804352
0.00747014
0.0102547
0.0102006
0.0100764
0.00988314
0.0096228
0.00929795
0.00891179
0.00846813
0.00797135
0.00742648
0.00994327
0.00990311
0.00979595
0.0096228
0.00938532
0.00908577
0.00872706
0.0083126
0.00784638
0.00733304
0.00956035
0.00953631
0.00944859
0.00929794
0.00908577
0.00881406
0.00848535
0.0081027
0.00766969
0.00719059
0.00911005
0.0091041
0.00903784
0.00891177
0.00872705
0.00848534
0.00818886
0.00784029
0.00744282
0.00700034
0.00859726
0.00861101
0.00856788
0.00846811
0.00831259
0.00810269
0.00784029
0.00752771
0.00716772
0.00676388
0.00802757
0.00806224
0.00804349
0.00797132
0.00784635
0.00766967
0.0074428
0.00716771
0.00684678
0.0064832
0.0074072
0.0074636
0.0074701
0.00742645
0.00733301
0.00719057
0.00700032
0.00676387
0.00648319
0.0061611
0.00856496
0.00850119
0.00837401
0.00818485
0.00793577
0.00762949
0.00726934
0.00685927
0.00640374
0.00590773
0.00850119
0.008442
0.00832172
0.00814163
0.00790364
0.00761026
0.00726458
0.00687026
0.00643145
0.00595283
0.00837401
0.00832172
0.00821074
0.00804224
0.00781792
0.00754009
0.00721159
0.00683576
0.00641646
0.00595802
0.00818484
0.00814162
0.00804224
0.00788766
0.00767942
0.0074196
0.00711076
0.00675598
0.00635874
0.00592311
0.00793576
0.00790363
0.00781792
0.00767942
0.00748947
0.00724991
0.00696303
0.0066316
0.00625882
0.0058484
0.00762947
0.00761024
0.00754008
0.00741959
0.0072499
0.0070326
0.00676974
0.00646376
0.00611754
0.00573451
0.00726932
0.00726456
0.00721157
0.00711075
0.00696302
0.00676973
0.00653265
0.00625394
0.00593615
0.00558241
0.00685924
0.00687024
0.00683574
0.00675596
0.00663159
0.00646375
0.00625394
0.00600402
0.00571621
0.00539337
0.0064037
0.00643142
0.00641643
0.00635872
0.0062588
0.00611753
0.00593614
0.00571621
0.00545964
0.005169
0.00590769
0.00595278
0.00595798
0.00592308
0.00584837
0.00573449
0.00558239
0.00539336
0.00516899
0.00491152
0.00683549
0.00678449
0.00668278
0.00653151
0.00633233
0.00608743
0.00579948
0.00547164
0.00510748
0.00471102
0.00678448
0.00673715
0.00664096
0.00649695
0.00630664
0.00607205
0.00579567
0.00548042
0.00512964
0.00474706
0.00668278
0.00664096
0.00655222
0.00641747
0.0062381
0.00601595
0.0057533
0.00545284
0.00511765
0.00475121
0.0065315
0.00649694
0.00641747
0.00629386
0.00612736
0.00591961
0.00567269
0.00538906
0.00507151
0.0047233
0.00633232
0.00630663
0.00623809
0.00612735
0.00597548
0.00578394
0.00555458
0.00528963
0.00499163
0.00466358
0.00608742
0.00607204
0.00601594
0.0059196
0.00578393
0.0056102
0.00540005
0.00515545
0.00487871
0.00457255
0.00579946
0.00579566
0.00575329
0.00567268
0.00555457
0.00540005
0.00521052
0.00498773
0.00473371
0.00445098
0.00547161
0.0054804
0.00545282
0.00538904
0.00528961
0.00515544
0.00498773
0.00478796
0.00455792
0.00429989
0.00510745
0.0051296
0.00511762
0.00507149
0.00499161
0.00487869
0.0047337
0.00455791
0.00435285
0.00412057
0.00471097
0.00474702
0.00475117
0.00472327
0.00466356
0.00457253
0.00445096
0.00429988
0.00412056
0.00391481
0.00545422
0.00541344
0.00533213
0.00521121
0.00505199
0.00485622
0.00462607
0.00436404
0.00407302
0.0037562
0.00541344
0.0053756
0.0052987
0.00518358
0.00503145
0.00484393
0.00462302
0.00437106
0.00409072
0.003785
0.00533213
0.0052987
0.00522776
0.00512004
0.00497666
0.00479909
0.00458915
0.00434902
0.00408114
0.00378831
0.0052112
0.00518357
0.00512004
0.00502123
0.00488813
0.00472208
0.00452472
0.00429804
0.00404427
0.00376601
0.00505198
0.00503144
0.00497665
0.00488813
0.00476673
0.00461364
0.00443032
0.00421857
0.00398043
0.00371829
0.00485621
0.00484392
0.00479908
0.00472207
0.00461363
0.00447478
0.00430682
0.00411134
0.00389018
0.00364555
0.00462605
0.004623
0.00458914
0.00452471
0.00443032
0.00430681
0.00415535
0.0039773
0.00377432
0.0035484
0.00436401
0.00437104
0.004349
0.00429802
0.00421856
0.00411133
0.0039773
0.00381766
0.00363384
0.00342768
0.00407298
0.00409069
0.00408111
0.00404424
0.00398041
0.00389017
0.00377431
0.00363384
0.00346999
0.0032844
0.00375616
0.00378496
0.00378827
0.00376598
0.00371826
0.00364552
0.00354838
0.00342767
0.00328439
0.00312
0.00435135
0.00431876
0.00425378
0.00415713
0.00402989
0.00387346
0.00368955
0.00348019
0.00324768
0.00299458
0.00431876
0.00428852
0.00422706
0.00413505
0.00401348
0.00386364
0.00368712
0.0034858
0.00326182
0.00301758
0.00425377
0.00422706
0.00417036
0.00408428
0.0039697
0.0038278
0.00366006
0.00346818
0.00325416
0.00302023
0.00415713
0.00413505
0.00408428
0.00400532
0.00389896
0.00376627
0.00360857
0.00342745
0.00322471
0.00300241
0.00402989
0.00401347
0.00396969
0.00389895
0.00380195
0.00367961
0.00353315
0.00336396
0.0031737
0.00296429
0.00387345
0.00386363
0.00382779
0.00376626
0.00367961
0.00356866
0.00343447
0.00327829
0.00310161
0.00290618
0.00368953
0.0036871
0.00366004
0.00360856
0.00353314
0.00343446
0.00331345
0.00317121
0.00300904
0.00282858
0.00348017
0.00348578
0.00346817
0.00342744
0.00336395
0.00327828
0.0031712
0.00304367
0.00289683
0.00273214
0.00324765
0.00326179
0.00325414
0.00322468
0.00317369
0.00310159
0.00300904
0.00289682
0.00276594
0.00261769
0.00299454
0.00301755
0.0030202
0.00300238
0.00296427
0.00290616
0.00282856
0.00273213
0.00261769
0.00248638
0.00347099
0.00344495
0.00339303
0.00331582
0.00321417
0.0030892
0.00294229
0.00277506
0.00258935
0.00238722
0.00344495
0.00342079
0.00337168
0.00329818
0.00320106
0.00308135
0.00294035
0.00277954
0.00260065
0.00240559
0.00339303
0.00337168
0.00332639
0.00325762
0.00316608
0.00305273
0.00291873
0.00276547
0.00259454
0.00240771
0.00331582
0.00329818
0.00325761
0.00319453
0.00310957
0.00300357
0.00287761
0.00273294
0.00257101
0.00239348
0.00321416
0.00320105
0.00316608
0.00310957
0.00303207
0.00293435
0.00281736
0.00268223
0.00253028
0.00236303
0.00308919
0.00308134
0.00305272
0.00300357
0.00293435
0.00284573
0.00273854
0.0026138
0.0024727
0.00231663
0.00294228
0.00294033
0.00291872
0.0028776
0.00281735
0.00273854
0.00264188
0.00252828
0.00239877
0.00225466
0.00277504
0.00277952
0.00276546
0.00273293
0.00268222
0.0026138
0.00252827
0.00242642
0.00230916
0.00217765
0.00258933
0.00260063
0.00259451
0.00257099
0.00253026
0.00247268
0.00239877
0.00230915
0.00220464
0.00208626
0.00238719
0.00240556
0.00240768
0.00239346
0.00236301
0.00231661
0.00225465
0.00217764
0.00208626
0.00198142
0.00276841
0.00274761
0.00270615
0.00264448
0.0025633
0.0024635
0.00234618
0.00221265
0.00206438
0.001903
0.00274761
0.00272832
0.0026891
0.00263039
0.00255283
0.00245723
0.00234463
0.00221623
0.00207339
0.00191767
0.00270615
0.0026891
0.00265292
0.002598
0.00252489
0.00243437
0.00232737
0.00220499
0.00206851
0.00191935
0.00264448
0.00263039
0.002598
0.00254762
0.00247976
0.00239512
0.00229453
0.00217902
0.00204973
0.001908
0.00256329
0.00255282
0.00252489
0.00247976
0.00241788
0.00233984
0.00224642
0.00213853
0.00201721
0.00188369
0.00246349
0.00245723
0.00243437
0.00239511
0.00233984
0.00226908
0.00218349
0.0020839
0.00197124
0.00184665
0.00234617
0.00234462
0.00232736
0.00229453
0.00224642
0.00218349
0.00210631
0.00201561
0.00191222
0.00179718
0.00221264
0.00221621
0.00220498
0.00217901
0.00213852
0.00208389
0.00201561
0.0019343
0.00184068
0.00173571
0.00206436
0.00207338
0.0020685
0.00204971
0.0020172
0.00197123
0.00191222
0.00184068
0.00175725
0.00166276
0.00190298
0.00191764
0.00191933
0.00190798
0.00188368
0.00184664
0.00179717
0.00173571
0.00166276
0.00157908
0.00220784
0.00219124
0.00215813
0.00210889
0.00204408
0.0019644
0.00187075
0.00176416
0.00164581
0.00151702
0.00219124
0.00217583
0.00214452
0.00209764