/*--------------------------------*- C++ -*----------------------------------*\
| =========                 |                                                 |
| \\      /  F ield         | foam-extend: Open Source CFD                    |
|  \\    /   O peration     | Version:     3.1                                |
|   \\  /    A nd           | Web:         http://www.extend-project.de       |
|    \\/     M anipulation  |                                                 |
\*---------------------------------------------------------------------------*/
FoamFile
{
    version     2.0;
    format      ascii;
    class       surfaceScalarField;
    location    "0.0003";
    object      phi;
}
// * * * * * * * * * * * * * * * * * * * * * * * * * * * * * * * * * * * * * //

dimensions      [0 3 -1 0 0 0 0];

internalField   nonuniform List<scalar> 
45800
(
7.13706e-11
7.13395e-11
9.4142e-09
1.42369e-10
7.21369e-11
9.2937e-09
2.15037e-10
7.3802e-11
9.21666e-09
2.91239e-10
7.62821e-11
9.1832e-09
3.72958e-10
7.96173e-11
9.19445e-09
4.62427e-10
8.39068e-11
9.25269e-09
5.62194e-10
8.92788e-11
9.36156e-09
6.75189e-10
9.58943e-11
9.52629e-09
8.04716e-10
1.03964e-10
9.75387e-09
1.13823e-10
1.00534e-08
9.54281e-10
7.21672e-11
1.4235e-10
9.29366e-09
1.43688e-10
1.43654e-10
9.16922e-09
2.16595e-10
1.46585e-10
9.0863e-09
2.92777e-10
1.51108e-10
9.04475e-09
3.74169e-10
1.57254e-10
9.04552e-09
4.62898e-10
1.65162e-10
9.09062e-09
5.61382e-10
1.75039e-10
9.18321e-09
6.72417e-10
1.87134e-10
9.32782e-09
7.99237e-10
2.01741e-10
9.53059e-09
2.1942e-10
9.79914e-09
9.45589e-10
7.38153e-11
2.15041e-10
9.21662e-09
1.46618e-10
2.16584e-10
9.08625e-09
2.20436e-10
2.20404e-10
8.99599e-09
2.97197e-10
2.26549e-10
8.94533e-09
3.78853e-10
2.35059e-10
8.93498e-09
4.67462e-10
2.46062e-10
8.96664e-09
5.65326e-10
2.59793e-10
9.04306e-09
6.75102e-10
2.76549e-10
9.16815e-09
7.9984e-10
2.96638e-10
9.34726e-09
3.20891e-10
9.58684e-09
9.43059e-10
7.62795e-11
2.91247e-10
9.18319e-09
1.5112e-10
2.92782e-10
9.04471e-09
2.26581e-10
2.97186e-10
8.94529e-09
3.04603e-10
3.04571e-10
8.88426e-09
3.87154e-10
3.15028e-10
8.86194e-09
4.76279e-10
3.28694e-10
8.87966e-09
5.74187e-10
3.45781e-10
8.93979e-09
6.83371e-10
3.66584e-10
9.04571e-09
8.06621e-10
3.91393e-10
9.20206e-09
4.21413e-10
9.41423e-09
9.4706e-10
7.96112e-11
3.72963e-10
9.19446e-09
1.57247e-10
3.74174e-10
9.04552e-09
2.35068e-10
3.78854e-10
8.93494e-09
3.1506e-10
3.87139e-10
8.8619e-09
3.99181e-10
3.99142e-10
8.82644e-09
4.89452e-10
4.15049e-10
8.82948e-09
5.8803e-10
4.35075e-10
8.8729e-09
6.97249e-10
4.59458e-10
8.95961e-09
8.19596e-10
4.88408e-10
9.09366e-09
5.23594e-10
9.27944e-09
9.57763e-10
8.39008e-11
4.62429e-10
9.2527e-09
1.65151e-10
4.62899e-10
9.09063e-09
2.46053e-10
4.67465e-10
8.96663e-09
3.28702e-10
4.76277e-10
8.87963e-09
4.15089e-10
4.89429e-10
8.82943e-09
5.07187e-10
5.07129e-10
8.81666e-09
6.07074e-10
5.29657e-10
8.84265e-09
7.16951e-10
5.57229e-10
8.90974e-09
8.39013e-10
5.8992e-10
9.02143e-09
6.29869e-10
9.18131e-09
9.75467e-10
8.9273e-11
5.62193e-10
9.36158e-09
1.75028e-10
5.6138e-10
9.18322e-09
2.59777e-10
5.65326e-10
9.04307e-09
3.45764e-10
5.74189e-10
8.93979e-09
4.3508e-10
5.88032e-10
8.87285e-09
5.29717e-10
6.07053e-10
8.84255e-09
6.31637e-10
6.31579e-10
8.84991e-09
7.42895e-10
6.61934e-10
8.89657e-09
8.65391e-10
6.98153e-10
8.98531e-09
7.42771e-10
9.11921e-09
1.00073e-09
9.5889e-11
6.75182e-10
9.5263e-09
1.87124e-10
6.72411e-10
9.32783e-09
2.76534e-10
6.75099e-10
9.16815e-09
3.66563e-10
6.83375e-10
9.04571e-09
4.59437e-10
6.97265e-10
8.95959e-09
5.57259e-10
7.1698e-10
8.90963e-09
6.61999e-10
7.42909e-10
8.89645e-09
7.75608e-10
7.75583e-10
8.92113e-09
8.99564e-10
8.15252e-10
8.98584e-09
8.65091e-10
9.09303e-09
1.0345e-09
1.0396e-10
8.04705e-10
9.75388e-09
2.01732e-10
7.99227e-10
9.5306e-09
2.96627e-10
7.99833e-10
9.34727e-09
3.9138e-10
8.06622e-10
9.20207e-09
4.88395e-10
8.19609e-10
9.09367e-09
5.89934e-10
8.39045e-10
9.0214e-09
6.98189e-10
8.65427e-10
8.98527e-09
8.15283e-10
8.99572e-10
8.98581e-09
9.42461e-10
9.42443e-10
9.02448e-09
9.9932e-10
9.10283e-09
1.0788e-09
1.1382e-10
1.00534e-08
9.54267e-10
2.19414e-10
9.79914e-09
9.45577e-10
3.20884e-10
9.58685e-09
9.4305e-10
4.21406e-10
9.41423e-09
9.47056e-10
5.23591e-10
9.27945e-09
9.57767e-10
6.29877e-10
9.18132e-09
9.75479e-10
7.4278e-10
9.11923e-09
1.00074e-09
8.65105e-10
9.09302e-09
1.03452e-09
9.99347e-10
9.10277e-09
1.07882e-09
9.14972e-09
1.14353e-09
1.14353e-09
2.27197e-10
2.2717e-10
8.95983e-09
4.5262e-10
2.29319e-10
8.83896e-09
6.82477e-10
2.33623e-10
8.75318e-09
9.22906e-10
2.40203e-10
8.70257e-09
1.18054e-09
2.49256e-10
8.68756e-09
1.46289e-09
2.61086e-10
8.70925e-09
1.7787e-09
2.76108e-10
8.76965e-09
2.13834e-09
2.94895e-10
8.87175e-09
2.55415e-09
3.18276e-10
9.01978e-09
3.47394e-10
9.21944e-09
3.04068e-09
2.29343e-10
4.52603e-10
8.83888e-09
4.56458e-10
4.56428e-10
8.71499e-09
6.87405e-10
4.64391e-10
8.62459e-09
9.28201e-10
4.76761e-10
8.56739e-09
1.18527e-09
4.93864e-10
8.54385e-09
1.4658e-09
5.1623e-10
8.55495e-09
1.77814e-09
5.44588e-10
8.60239e-09
2.13221e-09
5.79914e-10
8.68874e-09
2.53995e-09
6.23506e-10
8.81762e-09
6.7751e-10
8.99356e-09
3.01542e-09
2.33631e-10
6.8248e-10
8.75311e-09
4.64415e-10
6.87392e-10
8.62451e-09
6.98302e-10
6.98274e-10
8.52822e-09
9.41222e-10
7.15587e-10
8.46359e-09
1.19947e-09
7.39759e-10
8.43083e-09
1.48001e-09
7.71461e-10
8.43087e-09
1.79082e-09
8.11656e-10
8.46518e-09
2.14138e-09
8.61611e-10
8.5359e-09
2.54307e-09
9.22902e-10
8.64617e-09
9.98804e-10
8.79972e-09
3.0089e-09
2.40199e-10
9.22914e-10
8.70256e-09
4.76765e-10
9.28204e-10
8.56734e-09
7.15608e-10
9.41208e-10
8.46351e-09
9.62592e-10
9.62562e-10
8.3903e-09
1.22391e-09
9.92812e-10
8.34757e-09
1.50635e-09
1.03273e-09
8.33595e-09
1.81762e-09
1.08343e-09
8.35674e-09
2.16674e-09
1.14638e-09
8.41182e-09
2.56448e-09
1.22334e-09
8.50388e-09
1.31902e-09
8.63594e-09
3.02255e-09
2.49251e-10
1.18055e-09
8.68757e-09
4.93856e-10
1.18527e-09
8.54385e-09
7.39759e-10
1.19947e-09
8.43078e-09
9.92832e-10
1.22389e-09
8.3475e-09
1.25919e-09
1.25915e-09
8.29374e-09
1.54547e-09
1.30617e-09
8.26977e-09
1.85914e-09
1.36614e-09
8.27652e-09
2.20884e-09
1.44064e-09
8.31566e-09
2.60473e-09
1.53153e-09
8.38959e-09
1.64527e-09
8.50068e-09
3.05724e-09
2.61081e-10
1.46289e-09
8.70927e-09
5.16221e-10
1.4658e-09
8.55496e-09
7.71451e-10
1.48001e-09
8.43086e-09
1.03273e-09
1.50634e-09
8.33589e-09
1.30619e-09
1.54544e-09
8.26969e-09
1.59836e-09
1.59829e-09
8.23237e-09
1.91644e-09
1.66626e-09
8.22445e-09
2.26872e-09
1.75095e-09
8.24714e-09
2.66488e-09
1.85418e-09
8.30261e-09
1.98454e-09
8.39285e-09
3.11407e-09
2.76104e-10
1.7787e-09
8.76967e-09
5.4458e-10
1.77815e-09
8.6024e-09
8.11644e-10
1.79082e-09
8.46519e-09
1.08341e-09
1.81763e-09
8.35674e-09
1.36612e-09
1.85914e-09
8.27644e-09
1.66628e-09
1.91639e-09
8.22429e-09
1.99091e-09
1.99085e-09
8.20068e-09
2.34792e-09
2.08429e-09
8.20623e-09
2.7465e-09
2.19834e-09
8.24257e-09
2.34397e-09
8.31169e-09
3.19459e-09
2.94892e-10
2.13834e-09
8.87177e-09
5.79907e-10
2.13221e-09
8.68875e-09
8.616e-10
2.14138e-09
8.53591e-09
1.14637e-09
2.16674e-09
8.41183e-09
1.44061e-09
2.20885e-09
8.31563e-09
1.75094e-09
2.26873e-09
8.24697e-09
2.0843e-09
2.34789e-09
8.20604e-09
2.44832e-09
2.44829e-09
8.19312e-09
2.85162e-09
2.57148e-09
8.2094e-09
2.73104e-09
8.25673e-09
3.30085e-09
3.18273e-10
2.55414e-09
9.0198e-09
6.23501e-10
2.53995e-09
8.81763e-09
9.22895e-10
2.54306e-09
8.64619e-09
1.22334e-09
2.56448e-09
8.50389e-09
1.53152e-09
2.60474e-09
8.3896e-09
1.85418e-09
2.6649e-09
8.30256e-09
2.19834e-09
2.74652e-09
8.24249e-09
2.57148e-09
2.8516e-09
8.20935e-09
2.98176e-09
2.98174e-09
8.20394e-09
3.15265e-09
8.22748e-09
3.4355e-09
3.47392e-10
9.21945e-09
3.04067e-09
6.77507e-10
8.99357e-09
3.01541e-09
9.988e-10
8.79973e-09
3.00889e-09
1.31902e-09
8.63594e-09
3.02255e-09
1.64527e-09
8.50069e-09
3.05724e-09
1.98454e-09
8.39287e-09
3.11408e-09
2.34397e-09
8.31172e-09
3.1946e-09
2.73103e-09
8.2567e-09
3.30086e-09
3.15265e-09
8.2274e-09
3.4355e-09
8.22522e-09
3.6149e-09
3.6149e-09
3.56798e-10
3.5678e-10
8.24625e-09
7.10001e-10
3.59898e-10
8.12586e-09
1.06863e-09
3.66049e-10
8.0285e-09
1.44171e-09
3.75502e-10
7.95398e-09
1.83899e-09
3.88566e-10
7.90172e-09
2.27142e-09
4.05684e-10
7.87114e-09
2.75182e-09
4.2748e-10
7.86176e-09
3.29557e-09
4.54841e-10
7.87316e-09
3.92138e-09
4.89112e-10
7.90486e-09
5.3224e-10
7.95614e-09
4.65244e-09
3.59909e-10
7.09988e-10
8.12576e-09
7.1565e-10
7.1563e-10
8.00352e-09
1.07601e-09
7.27101e-10
7.90318e-09
1.44978e-09
7.44909e-10
7.82421e-09
1.84639e-09
7.6959e-10
7.76621e-09
2.27637e-09
8.01949e-10
7.72871e-09
2.75195e-09
8.43082e-10
7.7112e-09
3.28783e-09
8.94507e-10
7.7132e-09
3.90208e-09
9.5834e-10
7.73414e-09
1.03808e-09
7.77295e-09
4.61684e-09
3.66047e-10
1.06863e-09
8.02842e-09
7.27109e-10
1.07599e-09
7.90308e-09
1.09183e-09
1.0918e-09
7.7988e-09
1.46881e-09
1.11682e-09
7.71469e-09
1.86725e-09
1.15174e-09
7.65024e-09
2.29735e-09
1.19761e-09
7.60511e-09
2.77086e-09
1.25591e-09
7.57884e-09
3.3018e-09
1.32862e-09
7.57085e-09
3.90742e-09
1.41832e-09
7.58057e-09
1.53022e-09
7.60682e-09
4.60819e-09
3.75497e-10
1.44172e-09
7.95397e-09
7.44901e-10
1.44978e-09
7.82414e-09
1.11683e-09
1.46879e-09
7.7146e-09
1.49978e-09
1.49976e-09
7.62441e-09
1.90276e-09
1.54352e-09
7.55282e-09
2.33568e-09
1.60128e-09
7.49935e-09
2.80993e-09
1.67478e-09
7.46362e-09
3.33891e-09
1.76638e-09
7.44509e-09
3.93896e-09
1.87898e-09
7.44317e-09
2.0199e-09
7.45661e-09
4.6286e-09
3.88563e-10
1.83899e-09
7.90174e-09
7.69583e-10
1.8464e-09
7.76621e-09
1.15173e-09
1.86725e-09
7.65018e-09
1.54352e-09
1.90273e-09
7.55274e-09
1.95383e-09
1.9538e-09
7.47314e-09
2.39236e-09
2.02184e-09
7.41069e-09
2.87011e-09
2.10872e-09
7.36482e-09
3.39999e-09
2.21704e-09
7.3351e-09
3.99756e-09
2.34997e-09
7.32103e-09
2.51741e-09
7.32132e-09
4.67941e-09
4.05682e-10
2.27142e-09
7.87116e-09
8.01945e-10
2.27637e-09
7.72873e-09
1.1976e-09
2.29736e-09
7.6051e-09
1.60125e-09
2.33568e-09
7.49929e-09
2.02183e-09
2.39231e-09
7.41059e-09
2.46887e-09
2.46881e-09
7.33836e-09
2.95302e-09
2.56725e-09
7.28179e-09
3.4867e-09
2.69027e-09
7.24023e-09
4.08485e-09
2.84113e-09
7.2133e-09
3.0329e-09
7.19994e-09
4.76228e-09
4.27478e-10
2.75183e-09
7.86178e-09
8.43078e-10
2.75196e-09
7.71122e-09
1.2559e-09
2.77087e-09
7.57885e-09
1.67476e-09
2.80994e-09
7.46362e-09
2.10868e-09
2.8701e-09
7.36473e-09
2.56723e-09
2.95294e-09
7.28161e-09
3.06083e-09
3.06077e-09
7.21356e-09
3.60137e-09
3.1964e-09
7.15955e-09
4.20319e-09
3.36288e-09
7.119e-09
3.5769e-09
7.09135e-09
4.87953e-09
4.5484e-10
3.29557e-09
7.87318e-09
8.94505e-10
3.28783e-09
7.71321e-09
1.32861e-09
3.3018e-09
7.57086e-09
1.76637e-09
3.33891e-09
7.4451e-09
2.21702e-09
3.40001e-09
7.33508e-09
2.6902e-09
3.48667e-09
7.24005e-09
3.19636e-09
3.6013e-09
7.15936e-09
3.74699e-09
3.74696e-09
7.09193e-09
4.35571e-09
3.92655e-09
7.037e-09
4.1608e-09
6.99434e-09
5.0342e-09
4.89111e-10
3.92138e-09
7.90488e-09
9.5834e-10
3.90208e-09
7.73416e-09
1.41832e-09
3.90743e-09
7.58058e-09
1.87898e-09
3.93896e-09
7.44318e-09
2.34998e-09
3.99756e-09
7.32104e-09
2.84111e-09
4.08485e-09
7.21325e-09
3.36282e-09
4.20317e-09
7.11892e-09
3.92651e-09
4.35567e-09
7.03694e-09
4.54525e-09
4.54523e-09
6.96652e-09
4.79587e-09
6.90726e-09
5.23039e-09
5.3224e-10
7.95615e-09
4.65244e-09
1.03809e-09
7.77296e-09
4.61684e-09
1.53022e-09
7.60682e-09
4.6082e-09
2.01991e-09
7.45662e-09
4.62861e-09
2.51742e-09
7.32133e-09
4.67941e-09
3.0329e-09
7.19995e-09
4.76228e-09
3.57689e-09
7.09138e-09
4.87953e-09
4.16076e-09
6.99431e-09
5.03419e-09
4.79584e-09
6.90719e-09
5.23036e-09
6.82995e-09
5.4935e-09
5.49348e-09
4.44414e-10
4.44406e-10
7.35743e-09
8.82913e-10
4.47804e-10
7.23956e-09
1.32529e-09
4.54422e-10
7.1317e-09
1.78129e-09
4.64593e-10
7.03338e-09
2.26124e-09
4.7863e-10
6.94315e-09
2.77649e-09
4.96955e-10
6.85893e-09
3.34003e-09
5.20167e-10
6.77806e-09
3.96705e-09
5.49134e-10
6.69701e-09
4.67569e-09
5.85194e-10
6.61103e-09
6.30292e-10
6.51357e-09
5.48797e-09
4.47804e-10
8.82904e-10
7.23946e-09
8.89109e-10
8.891e-10
7.12092e-09
1.33343e-09
9.01483e-10
7.01179e-09
1.79024e-09
9.20649e-10
6.91135e-09
2.2695e-09
9.47148e-10
6.81843e-09
2.78215e-09
9.81765e-10
6.73125e-09
3.34062e-09
1.02555e-09
6.64735e-09
3.95946e-09
1.07998e-09
6.56351e-09
4.65629e-09
1.14712e-09
6.47539e-09
1.23041e-09
6.37687e-09
5.45225e-09
4.54412e-10
1.32529e-09
7.13162e-09
9.01475e-10
1.33342e-09
7.0117e-09
1.35053e-09
1.35052e-09
6.90071e-09
1.81079e-09
1.37744e-09
6.79764e-09
2.29196e-09
1.41486e-09
6.70136e-09
2.80464e-09
1.46383e-09
6.61037e-09
3.36077e-09
1.52577e-09
6.52248e-09
3.97431e-09
1.60259e-09
6.4347e-09
4.66212e-09
1.69677e-09
6.3431e-09
1.81342e-09
6.24213e-09
5.4438e-09
4.64588e-10
1.7813e-09
7.03337e-09
9.20631e-10
1.79023e-09
6.91128e-09
1.37742e-09
1.81077e-09
6.79756e-09
1.84403e-09
1.84402e-09
6.69122e-09
2.32992e-09
1.89079e-09
6.59101e-09
2.84539e-09
1.95224e-09
6.49547e-09
3.40201e-09
2.03008e-09
6.4027e-09
4.01314e-09
2.12655e-09
6.31e-09
4.69483e-09
2.24444e-09
6.21381e-09
2.39094e-09
6.10912e-09
5.4648e-09
4.7863e-10
2.26125e-09
6.94316e-09
9.47141e-10
2.26951e-09
6.81843e-09
1.41483e-09
2.29195e-09
6.7013e-09
1.89077e-09
2.32989e-09
6.59093e-09
2.38427e-09
2.38424e-09
6.48618e-09
2.90534e-09
2.45632e-09
6.38555e-09
3.46518e-09
2.54789e-09
6.28717e-09
4.0767e-09
2.66146e-09
6.18868e-09
4.7552e-09
2.80004e-09
6.08693e-09
2.97345e-09
5.97742e-09
5.51659e-09
4.96955e-10
2.7765e-09
6.85895e-09
9.81765e-10
2.78216e-09
6.73126e-09
1.46382e-09
2.80464e-09
6.61036e-09
1.95221e-09
2.84538e-09
6.49541e-09
2.45629e-09
2.90529e-09
6.38546e-09
2.98591e-09
2.98585e-09
6.27921e-09
3.55184e-09
3.089e-09
6.17474e-09
4.16653e-09
3.21723e-09
6.06976e-09
4.84474e-09
3.37361e-09
5.96152e-09
3.57121e-09
5.8462e-09
5.60071e-09
5.20167e-10
3.34004e-09
6.77808e-09
1.02555e-09
3.34063e-09
6.64737e-09
1.52577e-09
3.36078e-09
6.5225e-09
2.03006e-09
3.40201e-09
6.40269e-09
2.54782e-09
3.46517e-09
6.28709e-09
3.08894e-09
3.55175e-09
6.17459e-09
3.66399e-09
3.66394e-09
6.06357e-09
4.2848e-09
3.80434e-09
5.95164e-09
4.96558e-09
3.97569e-09
5.83615e-09
4.19476e-09
5.71416e-09
5.71922e-09
5.49135e-10
3.96706e-09
6.69703e-09
1.07998e-09
3.95947e-09
6.56353e-09
1.60259e-09
3.97432e-09
6.43471e-09
2.12656e-09
4.01314e-09
6.31001e-09
2.66143e-09
4.07671e-09
6.18866e-09
3.21713e-09
4.16649e-09
6.06961e-09
3.80425e-09
4.28471e-09
5.95147e-09
4.43424e-09
4.43422e-09
5.83205e-09
5.12056e-09
4.61753e-09
5.70883e-09
4.8554e-09
5.57951e-09
5.87475e-09
5.85196e-10
4.6757e-09
6.61104e-09
1.14712e-09
4.6563e-09
6.4754e-09
1.69678e-09
4.66213e-09
6.34311e-09
2.24445e-09
4.69483e-09
6.21382e-09
2.80006e-09
4.7552e-09
6.08694e-09
3.37359e-09
4.84473e-09
5.96148e-09
3.9756e-09
4.96554e-09
5.83608e-09
4.61747e-09
5.12051e-09
5.70878e-09
5.3121e-09
5.31208e-09
5.57733e-09
5.56415e-09
5.43974e-09
6.07087e-09
6.30294e-10
6.51357e-09
5.48798e-09
1.23041e-09
6.37688e-09
5.45225e-09
1.81343e-09
6.24213e-09
5.4438e-09
2.39094e-09
6.10912e-09
5.46481e-09
2.97346e-09
5.97743e-09
5.51659e-09
3.57121e-09
5.84621e-09
5.60071e-09
4.19474e-09
5.71418e-09
5.71922e-09
4.85534e-09
5.57949e-09
5.87473e-09
5.5641e-09
5.43969e-09
6.07083e-09
5.29312e-09
6.33255e-09
6.33254e-09
4.85599e-10
4.85598e-10
6.38624e-09
9.62734e-10
4.88639e-10
6.27378e-09
1.44006e-09
4.94458e-10
6.15992e-09
1.92599e-09
5.03367e-10
6.04408e-09
2.42912e-09
5.15586e-10
5.92443e-09
2.95843e-09
5.31383e-10
5.79824e-09
3.52356e-09
5.51133e-10
5.6618e-09
4.13499e-09
5.75386e-10
5.5102e-09
4.80411e-09
6.04996e-10
5.33691e-09
6.41134e-10
5.13328e-09
5.54326e-09
4.8863e-10
9.62729e-10
6.2737e-09
9.68295e-10
9.68293e-10
6.1616e-09
1.44737e-09
9.79186e-10
6.04799e-09
1.93401e-09
9.95946e-10
5.93213e-09
2.43652e-09
1.01896e-09
5.81254e-09
2.96357e-09
1.04874e-09
5.68684e-09
3.52443e-09
1.08594e-09
5.55169e-09
4.12923e-09
1.13146e-09
5.40264e-09
4.78926e-09
1.18654e-09
5.23381e-09
1.25327e-09
5.03735e-09
5.51665e-09
4.94442e-10
1.44005e-09
6.15986e-09
9.79168e-10
1.44736e-09
6.04791e-09
1.46237e-09
1.46236e-09
5.93433e-09
1.95193e-09
1.48582e-09
5.81821e-09
2.45591e-09
1.51818e-09
5.69816e-09
2.98273e-09
1.56011e-09
5.57218e-09
3.54133e-09
1.61252e-09
5.43731e-09
4.14146e-09
1.67652e-09
5.28951e-09
4.79407e-09
1.75352e-09
5.12351e-09
1.84667e-09
4.93229e-09
5.5105e-09
5.03361e-10
1.926e-09
6.04407e-09
9.95923e-10
1.93401e-09
5.93207e-09
1.4858e-09
1.95191e-09
5.81814e-09
1.98071e-09
1.9807e-09
5.70143e-09
2.48845e-09
2.02086e-09
5.58058e-09
3.0172e-09
2.07313e-09
5.45371e-09
3.57562e-09
2.13852e-09
5.31827e-09
4.17309e-09
2.21838e-09
5.17068e-09
4.82007e-09
2.31416e-09
5.00618e-09
2.43052e-09
4.81858e-09
5.52675e-09
5.15587e-10
2.42913e-09
5.92444e-09
1.01896e-09
2.43653e-09
5.81254e-09
1.51815e-09
2.45591e-09
5.69811e-09
2.02084e-09
2.48842e-09
5.58051e-09
2.53467e-09
2.53465e-09
5.45856e-09
3.06752e-09
2.59536e-09
5.33047e-09
3.62777e-09
2.67156e-09
5.19388e-09
4.22449e-09
2.76469e-09
5.04565e-09
4.86768e-09
2.87629e-09
4.88162e-09
3.01293e-09
4.69632e-09
5.56637e-09
5.31384e-10
2.95844e-09
5.79825e-09
1.04875e-09
2.96358e-09
5.68685e-09
1.5601e-09
2.98274e-09
5.57218e-09
2.07309e-09
3.01719e-09
5.45366e-09
2.59532e-09
3.06748e-09
5.33041e-09
3.13452e-09
3.13447e-09
5.2009e-09
3.69868e-09
3.21926e-09
5.06289e-09
4.29651e-09
3.32314e-09
4.91347e-09
4.9377e-09
3.44756e-09
4.74906e-09
3.60154e-09
4.56504e-09
5.63025e-09
5.51135e-10
3.52357e-09
5.66181e-09
1.08594e-09
3.52444e-09
5.5517e-09
1.61252e-09
3.54134e-09
5.43732e-09
2.1385e-09
3.57563e-09
5.31827e-09
2.67149e-09
3.62776e-09
5.19382e-09
3.21919e-09
3.69859e-09
5.06277e-09
3.78941e-09
3.78936e-09
4.92325e-09
4.39033e-09
3.90138e-09
4.77248e-09
5.03123e-09
4.03564e-09
4.60717e-09
4.20388e-09
4.42368e-09
5.71938e-09
5.75389e-10
4.135e-09
5.51021e-09
1.13146e-09
4.12924e-09
5.40265e-09
1.67653e-09
4.14147e-09
5.28952e-09
2.21839e-09
4.1731e-09
5.17068e-09
2.76467e-09
4.2245e-09
5.04563e-09
3.32303e-09
4.29647e-09
4.91337e-09
3.90128e-09
4.39023e-09
4.77236e-09
4.50726e-09
4.50725e-09
4.6202e-09
5.14965e-09
4.64819e-09
4.45389e-09
4.82757e-09
4.27056e-09
5.83491e-09
6.04998e-10
4.80412e-09
5.33693e-09
1.18655e-09
4.78927e-09
5.23382e-09
1.75352e-09
4.79408e-09
5.12352e-09
2.31418e-09
4.82008e-09
5.00619e-09
2.87632e-09
4.86768e-09
4.88162e-09
3.44754e-09
4.93769e-09
4.74903e-09
4.03555e-09
5.0312e-09
4.60711e-09
4.64812e-09
5.1496e-09
4.45386e-09
5.29348e-09
5.29347e-09
4.2867e-09
5.47919e-09
4.10329e-09
5.97831e-09
6.41137e-10
5.13329e-09
5.54327e-09
1.25327e-09
5.03736e-09
5.51666e-09
1.84668e-09
4.9323e-09
5.51051e-09
2.43053e-09
4.81859e-09
5.52676e-09
3.01294e-09
4.69633e-09
5.56637e-09
3.60155e-09
4.56505e-09
5.63024e-09
4.20386e-09
4.42368e-09
5.71938e-09
4.82752e-09
4.27055e-09
5.83489e-09
5.47914e-09
4.10326e-09
5.97827e-09
3.91983e-09
6.16582e-09
6.16581e-09
4.852e-10
4.85204e-10
5.41583e-09
9.59667e-10
4.87483e-10
5.31183e-09
1.42972e-09
4.91719e-10
5.19816e-09
1.90125e-09
4.98155e-10
5.07439e-09
2.37987e-09
5.06882e-10
4.93892e-09
2.8709e-09
5.17973e-10
4.78924e-09
3.37924e-09
5.31525e-10
4.62193e-09
3.90921e-09
5.47691e-10
4.43253e-09
4.46404e-09
5.66729e-10
4.21535e-09
5.88893e-10
3.9632e-09
5.04524e-09
4.8747e-10
9.59665e-10
5.31177e-09
9.63839e-10
9.63842e-10
5.20887e-09
1.43519e-09
9.71761e-10
5.09659e-09
1.90723e-09
9.83827e-10
4.97442e-09
2.38538e-09
1.0002e-09
4.84108e-09
2.87479e-09
1.02103e-09
4.69437e-09
3.38026e-09
1.04648e-09
4.53126e-09
3.9061e-09
1.07674e-09
4.34774e-09
4.45585e-09
1.11208e-09
4.13871e-09
1.15299e-09
3.89768e-09
5.03142e-09
4.91703e-10
1.42972e-09
5.1981e-09
9.7174e-10
1.43518e-09
5.09653e-09
1.44603e-09
1.44603e-09
4.98578e-09
1.92002e-09
1.4628e-09
4.86524e-09
2.39899e-09
1.48563e-09
4.73376e-09
2.88794e-09
1.51474e-09
4.58952e-09
3.39154e-09
1.55032e-09
4.42986e-09
3.91401e-09
1.59259e-09
4.25118e-09
4.459e-09
1.64167e-09
4.04894e-09
1.69843e-09
3.81741e-09
5.02844e-09
4.98151e-10
1.90125e-09
5.07438e-09
9.83804e-10
1.90722e-09
4.97438e-09
1.46277e-09
1.92001e-09
4.86519e-09
1.94035e-09
1.94035e-09
4.7463e-09
2.42159e-09
1.96836e-09
4.61661e-09
2.91134e-09
2.0042e-09
4.4745e-09
3.41415e-09
2.04808e-09
4.3177e-09
3.93412e-09
2.10023e-09
4.14307e-09
4.4748e-09
2.16061e-09
3.94656e-09
2.2308e-09
3.72319e-09
5.03783e-09
5.06884e-10
2.37988e-09
4.93893e-09
1.00019e-09
2.38538e-09
4.84108e-09
1.4856e-09
2.39898e-09
4.73372e-09
1.96834e-09
2.42157e-09
4.61656e-09
2.45329e-09
2.45327e-09
4.4887e-09
2.94508e-09
2.49422e-09
4.34866e-09
3.44811e-09
2.54451e-09
4.19442e-09
3.96636e-09
2.60434e-09
4.02328e-09
4.50329e-09
2.67356e-09
3.83173e-09
2.75476e-09
3.6155e-09
5.06016e-09
5.17975e-10
2.8709e-09
4.78925e-09
1.02103e-09
2.87479e-09
4.69438e-09
1.51473e-09
2.88794e-09
4.58952e-09
2.00416e-09
2.91133e-09
4.47447e-09
2.49418e-09
2.94504e-09
4.34861e-09
2.98928e-09
2.98924e-09
4.21078e-09
3.49356e-09
3.04401e-09
4.05911e-09
4.01085e-09
3.10931e-09
3.89122e-09
4.54454e-09
3.18479e-09
3.70413e-09
3.27442e-09
3.49431e-09
5.09561e-09
5.31527e-10
3.37925e-09
4.62194e-09
1.04648e-09
3.38027e-09
4.53127e-09
1.55033e-09
3.39154e-09
4.42987e-09
2.04807e-09
3.41416e-09
4.3177e-09
2.54445e-09
3.4481e-09
4.19438e-09
3.04395e-09
3.49349e-09
4.05904e-09
3.55052e-09
3.55048e-09
3.9102e-09
4.06763e-09
3.61897e-09
3.7457e-09
4.59855e-09
3.69814e-09
3.56291e-09
3.79338e-09
3.35912e-09
5.14415e-09
5.47693e-10
3.90922e-09
4.43254e-09
1.07675e-09
3.90611e-09
4.34775e-09
1.5926e-09
3.91402e-09
4.25119e-09
2.10024e-09
3.93412e-09
4.14308e-09
2.60433e-09
3.96637e-09
4.02327e-09
3.10922e-09
4.01081e-09
3.89115e-09
3.61888e-09
4.06756e-09
3.74562e-09
4.13659e-09
4.13658e-09
3.58489e-09
4.66521e-09
4.21674e-09
3.40668e-09
4.31475e-09
3.20891e-09
5.20548e-09
5.66732e-10
4.46405e-09
4.21536e-09
1.11209e-09
4.45586e-09
4.13872e-09
1.64168e-09
4.459e-09
4.04895e-09
2.16062e-09
4.47481e-09
3.94657e-09
2.67358e-09
4.50329e-09
3.83174e-09
3.18478e-09
4.54453e-09
3.70411e-09
3.69806e-09
4.59852e-09
3.56287e-09
4.21668e-09
4.66517e-09
3.40665e-09
4.74326e-09
4.74325e-09
3.23361e-09
4.83999e-09
3.04218e-09
5.27913e-09
5.88895e-10
3.9632e-09
5.04525e-09
1.153e-09
3.89768e-09
5.03143e-09
1.69844e-09
3.81742e-09
5.02844e-09
2.23081e-09
3.72319e-09
5.03784e-09
2.75477e-09
3.6155e-09
5.06016e-09
3.27443e-09
3.49431e-09
5.0956e-09
3.79337e-09
3.35912e-09
5.14414e-09
4.31471e-09
3.2089e-09
5.20547e-09
4.83995e-09
3.04216e-09
5.2791e-09
2.85759e-09
5.37109e-09
5.37108e-09
4.5401e-10
4.54014e-10
4.50781e-09
8.9577e-10
4.55415e-10
4.41466e-09
1.32897e-09
4.57873e-10
4.30709e-09
1.75677e-09
4.61554e-10
4.18503e-09
2.1818e-09
4.66444e-10
4.04745e-09
2.60594e-09
4.72468e-10
3.89264e-09
3.03006e-09
4.79522e-10
3.71828e-09
3.45367e-09
4.87476e-10
3.52144e-09
3.87428e-09
4.96184e-10
3.29857e-09
5.05302e-10
3.04553e-09
4.28664e-09
4.55403e-10
8.95769e-10
4.41461e-09
8.98338e-10
8.98342e-10
4.32301e-09
1.33233e-09
9.02922e-10
4.21755e-09
1.76042e-09
9.09778e-10
4.09811e-09
2.18517e-09
9.18879e-10
3.96389e-09
2.60843e-09
9.30115e-10
3.81347e-09
3.03115e-09
9.43276e-10
3.64478e-09
3.45307e-09
9.58086e-10
3.45522e-09
3.87219e-09
9.74144e-10
3.24162e-09
9.90911e-10
3.00028e-09
4.28398e-09
4.57859e-10
1.32896e-09
4.30705e-09
9.02903e-10
1.33232e-09
4.21751e-09
1.33852e-09
1.33852e-09
4.11456e-09
1.76759e-09
1.34793e-09
3.99802e-09
2.19256e-09
1.36045e-09
3.86722e-09
2.61528e-09
1.37592e-09
3.72101e-09
3.03673e-09
1.39406e-09
3.55763e-09
3.45677e-09
1.41444e-09
3.37478e-09
3.87379e-09
1.43638e-09
3.16969e-09
1.45924e-09
2.93911e-09
4.28376e-09
4.6155e-10
1.75677e-09
4.18502e-09
9.09758e-10
1.76042e-09
4.09808e-09
1.34791e-09
1.76758e-09
3.99798e-09
1.77876e-09
1.77875e-09
3.88463e-09
2.2046e-09
1.79378e-09
3.75743e-09
2.62722e-09
1.8124e-09
3.6154e-09
3.04762e-09
1.83425e-09
3.45711e-09
3.46574e-09
1.8588e-09
3.28059e-09
3.88018e-09
1.88509e-09
3.08342e-09
1.91261e-09
2.86285e-09
4.28715e-09
4.66445e-10
2.18181e-09
4.04746e-09
9.18874e-10
2.18517e-09
3.96389e-09
1.36043e-09
2.19256e-09
3.86719e-09
1.79376e-09
2.20458e-09
3.7574e-09
2.22107e-09
2.22106e-09
3.6341e-09
2.64401e-09
2.24167e-09
3.49646e-09
3.06353e-09
2.26589e-09
3.34326e-09
3.47966e-09
2.29307e-09
3.17287e-09
3.89114e-09
2.32208e-09
2.98327e-09
2.35268e-09
2.77219e-09
4.29438e-09
4.72469e-10
2.60594e-09
3.89265e-09
9.30118e-10
2.60843e-09
3.81348e-09
1.37591e-09
2.61528e-09
3.721e-09
1.81237e-09
2.62721e-09
3.61538e-09
2.24164e-09
2.64398e-09
3.49643e-09
2.66528e-09
2.66525e-09
3.36355e-09
3.08411e-09
2.69046e-09
3.2157e-09
3.49816e-09
2.71873e-09
3.05152e-09
3.90632e-09
2.74868e-09
2.86937e-09
2.78058e-09
2.66749e-09
4.30525e-09
4.79524e-10
3.03006e-09
3.71829e-09
9.4328e-10
3.03116e-09
3.64479e-09
1.39406e-09
3.03674e-09
3.55763e-09
1.83424e-09
3.04762e-09
3.45711e-09
2.26584e-09
3.06352e-09
3.34323e-09
2.69041e-09
3.08406e-09
3.21566e-09
3.10872e-09
3.1087e-09
3.07365e-09
3.52063e-09
3.13646e-09
2.91605e-09
3.9251e-09
3.1656e-09
2.7415e-09
3.19684e-09
2.5488e-09
4.31916e-09
4.87478e-10
3.45368e-09
3.52145e-09
9.5809e-10
3.45307e-09
3.45523e-09
1.41445e-09
3.45678e-09
3.37479e-09
1.85881e-09
3.46575e-09
3.2806e-09
2.29306e-09
3.47967e-09
3.17287e-09
2.71866e-09
3.49814e-09
3.05148e-09
3.1364e-09
3.52058e-09
2.916e-09
3.54608e-09
3.54608e-09
2.76559e-09
3.94656e-09
3.57265e-09
2.59915e-09
3.60127e-09
2.41591e-09
4.33513e-09
4.96186e-10
3.87428e-09
3.29857e-09
9.74148e-10
3.8722e-09
3.24163e-09
1.43639e-09
3.87379e-09
3.16969e-09
1.8851e-09
3.88018e-09
3.08342e-09
2.32209e-09
3.89114e-09
2.98327e-09
2.74867e-09
3.90632e-09
2.86936e-09
3.16555e-09
3.92508e-09
2.74148e-09
3.57261e-09
3.94653e-09
2.59913e-09
3.96866e-09
3.96865e-09
2.44156e-09
3.99202e-09
2.26833e-09
4.35176e-09
5.05304e-10
3.04553e-09
4.28665e-09
9.90915e-10
3.00029e-09
4.28398e-09
1.45925e-09
2.93912e-09
4.28376e-09
1.91262e-09
2.86285e-09
4.28715e-09
2.35269e-09
2.77219e-09
4.29438e-09
2.78058e-09
2.66749e-09
4.30525e-09
3.19683e-09
2.5488e-09
4.31916e-09
3.60124e-09
2.4159e-09
4.33512e-09
3.992e-09
2.26832e-09
4.35175e-09
2.10575e-09
4.36793e-09
4.36793e-09
4.04526e-10
4.04531e-10
3.69875e-09
7.96267e-10
4.05161e-10
3.61775e-09
1.17666e-09
4.0609e-10
3.5206e-09
1.54666e-09
4.07427e-10
3.4076e-09
1.90663e-09
4.09102e-10
3.27838e-09
2.25611e-09
4.10978e-10
3.13218e-09
2.59359e-09
4.12864e-10
2.96794e-09
2.91612e-09
4.14524e-10
2.78439e-09
3.21888e-09
4.15663e-10
2.58014e-09
4.15747e-10
2.35389e-09
3.49477e-09
4.05151e-10
7.96267e-10
3.61772e-09
7.97431e-10
7.97435e-10
3.53845e-09
1.17819e-09
7.99155e-10
3.44373e-09
1.54832e-09
8.01601e-10
3.3338e-09
1.90819e-09
8.04647e-10
3.20847e-09
2.25744e-09
8.08061e-10
3.06714e-09
2.59468e-09
8.11487e-10
2.90891e-09
2.91728e-09
8.14469e-10
2.73267e-09
3.22095e-09
8.16402e-10
2.53722e-09
8.16411e-10
2.32139e-09
3.49918e-09
4.06079e-10
1.17666e-09
3.52058e-09
7.9914e-10
1.17818e-09
3.4437e-09
1.18044e-09
1.18044e-09
3.35197e-09
1.55078e-09
1.18368e-09
3.24559e-09
1.91051e-09
1.18769e-09
3.12445e-09
2.2593e-09
1.19215e-09
2.98813e-09
2.5959e-09
1.19658e-09
2.83593e-09
2.91792e-09
1.20034e-09
2.6669e-09
3.22148e-09
1.20251e-09
2.48002e-09
1.20192e-09
2.27435e-09
3.50073e-09
4.07424e-10
1.54666e-09
3.4076e-09
8.01586e-10
1.54831e-09
3.33378e-09
1.18367e-09
1.55077e-09
3.24557e-09
1.55439e-09
1.55439e-09
3.14321e-09
1.91401e-09
1.55886e-09
3.02663e-09
2.26223e-09
1.56378e-09
2.89556e-09
2.5979e-09
1.56855e-09
2.74947e-09
2.91881e-09
1.57239e-09
2.58763e-09
3.22138e-09
1.57413e-09
2.40922e-09
1.57241e-09
2.21351e-09
3.50024e-09
4.09104e-10
1.90663e-09
3.27838e-09
8.04644e-10
1.90819e-09
3.20847e-09
1.18767e-09
1.9105e-09
3.12443e-09
1.55885e-09
1.914e-09
3.02661e-09
1.91837e-09
1.91837e-09
2.91507e-09
2.26589e-09
1.9231e-09
2.78962e-09
2.60031e-09
1.92749e-09
2.64989e-09
2.91958e-09
1.93062e-09
2.49537e-09
3.2204e-09
1.93113e-09
2.32544e-09
1.92758e-09
2.13961e-09
3.49781e-09
4.10979e-10
2.25611e-09
3.13219e-09
8.08063e-10
2.25744e-09
3.06715e-09
1.19214e-09
2.2593e-09
2.98813e-09
1.56376e-09
2.26222e-09
2.89554e-09
1.92308e-09
2.26587e-09
2.7896e-09
2.26973e-09
2.26972e-09
2.67029e-09
2.60259e-09
2.27299e-09
2.53734e-09
2.91971e-09
2.27461e-09
2.39042e-09
3.21806e-09
2.27302e-09
2.22913e-09
2.26676e-09
2.05325e-09
3.49311e-09
4.12866e-10
2.59359e-09
2.96795e-09
8.1149e-10
2.59468e-09
2.90892e-09
1.19658e-09
2.59591e-09
2.83593e-09
1.56854e-09
2.59791e-09
2.74947e-09
1.92746e-09
2.6003e-09
2.64988e-09
2.27296e-09
2.60256e-09
2.53731e-09
2.60394e-09
2.60393e-09
2.41173e-09
2.91845e-09
2.60326e-09
2.27289e-09
3.21364e-09
2.59875e-09
2.12058e-09
2.58883e-09
1.95488e-09
3.4855e-09
4.14526e-10
2.91612e-09
2.78439e-09
8.14473e-10
2.91729e-09
2.73268e-09
1.20034e-09
2.91792e-09
2.6669e-09
1.5724e-09
2.91881e-09
2.58764e-09
1.93062e-09
2.91958e-09
2.49537e-09
2.27457e-09
2.9197e-09
2.39039e-09
2.60322e-09
2.91842e-09
2.27286e-09
2.91466e-09
2.91466e-09
2.14275e-09
3.2061e-09
2.90649e-09
1.99998e-09
2.89205e-09
1.84484e-09
3.47395e-09
4.15664e-10
3.21889e-09
2.58014e-09
8.16405e-10
3.22095e-09
2.53722e-09
1.20251e-09
3.22148e-09
2.48003e-09
1.57414e-09
3.22139e-09
2.40923e-09
1.93115e-09
3.2204e-09
2.32544e-09
2.27302e-09
3.21806e-09
2.22912e-09
2.59872e-09
3.21363e-09
2.12057e-09
2.90647e-09
3.20608e-09
1.99997e-09
3.19354e-09
3.19354e-09
1.86744e-09
3.17338e-09
1.72342e-09
3.45711e-09
4.15749e-10
2.35389e-09
3.49478e-09
8.16414e-10
2.32139e-09
3.49918e-09
1.20193e-09
2.27435e-09
3.50073e-09
1.57241e-09
2.21351e-09
3.50024e-09
1.92758e-09
2.13961e-09
3.49781e-09
2.26677e-09
2.05325e-09
3.49311e-09
2.58883e-09
1.95488e-09
3.4855e-09
2.89203e-09
1.84484e-09
3.47394e-09
3.17337e-09
1.72342e-09
3.4571e-09
1.59109e-09
3.43071e-09
3.43071e-09
3.47664e-10
3.47668e-10
3.00342e-09
6.82928e-10
3.47744e-10
2.93475e-09
1.00566e-09
3.47601e-10
2.85027e-09
1.31539e-09
3.47315e-10
2.75056e-09
1.61113e-09
3.46808e-10
2.63582e-09
1.89131e-09
3.45944e-10
2.50606e-09
2.1535e-09
3.44543e-10
2.36121e-09
2.39427e-09
3.42385e-10
2.20124e-09
2.60892e-09
3.39203e-10
2.02629e-09
3.34535e-10
1.83682e-09
2.79145e-09
3.47737e-10
6.82928e-10
2.93473e-09
6.83086e-10
6.83089e-10
2.86776e-09
1.00589e-09
6.82813e-10
2.78572e-09
1.31564e-09
6.82226e-10
2.68913e-09
1.61146e-09
6.81189e-10
2.57828e-09
1.89183e-09
6.79467e-10
2.45325e-09
2.15452e-09