/*--------------------------------*- C++ -*----------------------------------*\
| =========                 |                                                 |
| \\      /  F ield         | foam-extend: Open Source CFD                    |
|  \\    /   O peration     | Version:     3.1                                |
|   \\  /    A nd           | Web:         http://www.extend-project.de       |
|    \\/     M anipulation  |                                                 |
\*---------------------------------------------------------------------------*/
FoamFile
{
    version     2.0;
    format      ascii;
    class       pointVectorField;
    location    "0.0003";
    object      pointMotionU;
}
// * * * * * * * * * * * * * * * * * * * * * * * * * * * * * * * * * * * * * //

dimensions      [0 1 -1 0 0 0 0];

internalField   nonuniform List<vector> 
18306
(
(0 0 0)
(0 0 0)
(0 0 0)
(0 0 0)
(0 0 0)
(0 0 0)
(0 0 0)
(0 0 0)
(0 0 0)
(0 0 0)
(0 0 0)
(0 0 0)
(0 0 0)
(0 0 0)
(0 0 0)
(0 0 0)
(0 0 0)
(0 0 0)
(0 0 0)
(0 0 0)
(0 0 0)
(0 0 0)
(0 0 0)
(0 0 0)
(0 0 0)
(0 0 0)
(0 0 0)
(0 0 0)
(0 0 0)
(0 0 0)
(0 0 0)
(0 0 0)
(0 0 0)
(0 0 0)
(0 0 0)
(0 0 0)
(0 0 0)
(0 0 0)
(0 0 0)
(0 0 0)
(0 0 0)
(0 0 0)
(0 0 0)
(0 0 0)
(0 0 0)
(0 0 0)
(0 0 0)
(0 0 0)
(0 0 0)
(0 0 0)
(0 0 0)
(0 0 0)
(0 0 0)
(0 0 0)
(0 0 0)
(0 0 0)
(0 0 0)
(0 0 0)
(0 0 0)
(0 0 0)
(0 0 0)
(0 0 0)
(0 0 0)
(0 0 0)
(0 0 0)
(0 0 0)
(0 0 0)
(0 0 0)
(0 0 0)
(0 0 0)
(0 0 0)
(0 0 0)
(0 0 0)
(0 0 0)
(0 0 0)
(0 0 0)
(0 0 0)
(0 0 0)
(0 0 0)
(0 0 0)
(0 0 0)
(0 0 0)
(0 0 0)
(0 0 0)
(0 0 0)
(0 0 0)
(0 0 0)
(0 0 0)
(0 0 0)
(0 0 0)
(0 0 0)
(0 0 0)
(0 0 0)
(0 0 0)
(0 0 0)
(0 0 0)
(0 0 0)
(0 0 0)
(0 0 0)
(0 0 0)
(0 0 0)
(0 0 0)
(0 0 0)
(0 0 0)
(0 0 0)
(0 0 0)
(0 0 0)
(0 0 0)
(0 0 0)
(0 0 0)
(0 0 0)
(0 0 0)
(0 0 0)
(0 0 0)
(0 0 0)
(0 0 0)
(0 0 0)
(0 0 0)
(0 0 0)
(0 0 0)
(0 0 0)
(0 0 1.28115e-08)
(-1.1393e-10 0 1.30213e-08)
(-1.82867e-10 0 1.36554e-08)
(-1.66253e-10 0 1.47331e-08)
(-2.74333e-11 0 1.63127e-08)
(2.69086e-10 0 1.84978e-08)
(7.54358e-10 0 2.14442e-08)
(1.44788e-09 0 2.5374e-08)
(2.34444e-09 0 3.05938e-08)
(3.40186e-09 0 3.75316e-08)
(4.55749e-09 0 4.69592e-08)
(0 -5.09518e-11 1.30082e-08)
(-1.36093e-10 -7.42868e-11 1.32154e-08)
(-2.30103e-10 -1.40509e-10 1.38407e-08)
(-2.43451e-10 -2.40242e-10 1.4905e-08)
(-1.42616e-10 -3.61116e-10 1.64661e-08)
(1.03203e-10 -4.9129e-10 1.86238e-08)
(5.17496e-10 -6.21778e-10 2.15253e-08)
(1.10616e-09 -7.48998e-10 2.53774e-08)
(1.84005e-09 -8.77107e-10 3.04505e-08)
(2.62639e-09 -1.02281e-09 3.70821e-08)
(3.33195e-09 -1.19763e-09 4.57425e-08)
(0 -6.05314e-11 1.36062e-08)
(-1.98828e-10 -1.09369e-10 1.38037e-08)
(-3.64363e-10 -2.4901e-10 1.4402e-08)
(-4.6393e-10 -4.60116e-10 1.54261e-08)
(-4.7179e-10 -7.16233e-10 1.69303e-08)
(-3.69903e-10 -9.91937e-10 1.90059e-08)
(-1.53312e-10 -1.26823e-09 2.17822e-08)
(1.53538e-10 -1.53625e-09 2.5426e-08)
(4.69456e-10 -1.79975e-09 3.01236e-08)
(6.07581e-10 -2.08168e-09 3.60439e-08)
(3.61478e-10 -2.38019e-09 4.33475e-08)
(0 8.67549e-12 1.46286e-08)
(-2.92445e-10 -6.98543e-11 1.48117e-08)
(-5.65038e-10 -2.95046e-10 1.5368e-08)
(-7.95048e-10 -6.36912e-10 1.63272e-08)
(-9.66587e-10 -1.05327e-09 1.77424e-08)
(-1.0766e-09 -1.50169e-09 1.96942e-08)
(-1.14219e-09 -1.95056e-09 2.22914e-08)
(-1.21725e-09 -2.38312e-09 2.56593e-08)
(-1.42464e-09 -2.79841e-09 2.9905e-08)
(-2.00801e-09 -3.21699e-09 3.5075e-08)
(-3.14953e-09 -3.59682e-09 4.11486e-08)
(0 1.90226e-10 1.61344e-08)
(-4.03561e-10 7.52369e-11 1.62992e-08)
(-8.03879e-10 -2.54894e-10 1.67983e-08)
(-1.19052e-09 -7.56031e-10 1.76671e-08)
(-1.55855e-09 -1.36677e-09 1.89634e-08)
(-1.91655e-09 -2.02482e-09 2.07621e-08)
(-2.2985e-09 -2.68289e-09 2.31545e-08)
(-2.77773e-09 -3.31565e-09 2.62358e-08)
(-3.48939e-09 -3.91627e-09 3.00682e-08)
(-4.67429e-09 -4.4989e-09 3.46417e-08)
(-6.42442e-09 -4.95605e-09 3.98422e-08)
(0 5.13334e-10 1.82268e-08)
(-5.19541e-10 3.51606e-10 1.83656e-08)
(-1.05358e-09 -1.12729e-10 1.87851e-08)
(-1.60515e-09 -8.1503e-10 1.95317e-08)
(-2.18013e-09 -1.66569e-09 2.06751e-08)
(-2.79635e-09 -2.57934e-09 2.22948e-08)
(-3.49477e-09 -3.49297e-09 2.44755e-08)
(-4.35179e-09 -4.37193e-09 2.72906e-08)
(-5.49519e-09 -5.20973e-09 3.07846e-08)
(-7.12356e-09 -6.01796e-09 3.49391e-08)
(-9.22156e-09 -6.60326e-09 3.9569e-08)
(0 9.98251e-10 2.106e-08)
(-6.30363e-10 7.73348e-10 2.11561e-08)
(-1.29341e-09 1.31274e-10 2.14567e-08)
(-2.006e-09 -8.30757e-10 2.20323e-08)
(-2.78402e-09 -1.98233e-09 2.29769e-08)
(-3.65229e-09 -3.20632e-09 2.43858e-08)
(-4.65332e-09 -4.426e-09 2.63432e-08)
(-5.85531e-09 -5.60386e-09 2.89136e-08)
(-7.36386e-09 -6.73957e-09 3.21319e-08)
(-9.32449e-09 -7.85288e-09 3.59812e-08)
(-1.163e-08 -8.66493e-09 4.0213e-08)
(0 1.64624e-09 2.48523e-08)
(-7.30571e-10 1.33143e-09 2.48751e-08)
(-1.51206e-09 4.45097e-10 2.49791e-08)
(-2.37453e-09 -8.56472e-10 2.52941e-08)
(-3.34531e-09 -2.3828e-09 2.5966e-08)
(-4.45577e-09 -3.97661e-09 2.71162e-08)
(-5.74626e-09 -5.54846e-09 2.88271e-08)
(-7.27561e-09 -7.07169e-09 3.11558e-08)
(-9.11171e-09 -8.55209e-09 3.41125e-08)
(-1.13534e-08 -1.00323e-08 3.7681e-08)
(-1.38426e-08 -1.11902e-08 4.15715e-08)
(0 2.42104e-09 2.99044e-08)
(-8.20331e-10 1.97266e-09 2.97883e-08)
(-1.70785e-09 7.38957e-10 2.95373e-08)
(-2.70641e-09 -1.01044e-09 2.94262e-08)
(-3.85805e-09 -2.99083e-09 2.97077e-08)
(-5.20604e-09 -5.00436e-09 3.05352e-08)
(-6.78942e-09 -6.9593e-09 3.19729e-08)
(-8.64601e-09 -8.84453e-09 3.40372e-08)
(-1.07948e-08 -1.06732e-08 3.66904e-08)
(-1.33003e-08 -1.25267e-08 3.9923e-08)
(-1.59882e-08 -1.41003e-08 4.34215e-08)
(0 3.22631e-09 3.66344e-08)
(-9.07865e-10 2.56602e-09 3.62263e-08)
(-1.89246e-09 8.19327e-10 3.52996e-08)
(-3.01471e-09 -1.51995e-09 3.44806e-08)
(-4.33774e-09 -4.02562e-09 3.42019e-08)
(-5.9254e-09 -6.47268e-09 3.46337e-08)
(-7.82453e-09 -8.80243e-09 3.57786e-08)
(-1.0045e-08 -1.10326e-08 3.75626e-08)
(-1.25408e-08 -1.31792e-08 3.98716e-08)
(-1.52729e-08 -1.52977e-08 4.26339e-08)
(-1.8002e-08 -1.71145e-08 4.54895e-08)
(0 3.89265e-09 4.57937e-08)
(-9.90946e-10 2.90706e-09 4.46459e-08)
(-2.0449e-09 4.60235e-10 4.24193e-08)
(-3.23925e-09 -2.55223e-09 4.04325e-08)
(-4.66412e-09 -5.54519e-09 3.9331e-08)
(-6.41806e-09 -8.32395e-09 3.92232e-08)
(-8.5782e-09 -1.09227e-08 3.99842e-08)
(-1.11597e-08 -1.34302e-08 4.1422e-08)
(-1.40654e-08 -1.58627e-08 4.33266e-08)
(-1.70206e-08 -1.80765e-08 4.54383e-08)
(-1.97048e-08 -1.98764e-08 4.7556e-08)
(0 0 2.26706e-08)
(-2.00282e-10 0 2.30099e-08)
(-3.02845e-10 0 2.40283e-08)
(-2.13513e-10 0 2.57474e-08)
(1.66518e-10 0 2.82435e-08)
(9.56759e-10 0 3.166e-08)
(2.30999e-09 0 3.62189e-08)
(4.43173e-09 0 4.22452e-08)
(7.61208e-09 0 5.02032e-08)
(1.23047e-08 0 6.07691e-08)
(1.94228e-08 0 7.52018e-08)
(0 -6.63908e-11 2.2986e-08)
(-2.40211e-10 -1.08835e-10 2.33218e-08)
(-3.88083e-10 -2.28965e-10 2.43277e-08)
(-3.53303e-10 -4.08359e-10 2.60281e-08)
(-4.339e-11 -6.22418e-10 2.84988e-08)
(6.51118e-10 -8.46702e-10 3.18779e-08)
(1.86535e-09 -1.06064e-09 3.63753e-08)
(3.771e-09 -1.25121e-09 4.22953e-08)
(6.59075e-09 -1.41581e-09 5.00512e-08)
(1.06204e-08 -1.56813e-09 6.01893e-08)
(1.64169e-08 -1.71117e-09 7.35144e-08)
(0 -4.17629e-11 2.39382e-08)
(-3.52889e-10 -1.30515e-10 2.426e-08)
(-6.29808e-10 -3.83773e-10 2.52274e-08)
(-7.51784e-10 -7.63853e-10 2.68715e-08)
(-6.42281e-10 -1.21811e-09 2.92633e-08)
(-2.19226e-10 -1.69385e-09 3.2529e-08)
(6.09615e-10 -2.14764e-09 3.68541e-08)
(1.93822e-09 -2.55018e-09 4.24876e-08)
(3.84088e-09 -2.8883e-09 4.97237e-08)
(6.31491e-09 -3.17251e-09 5.88673e-08)
(9.50764e-09 -3.37449e-09 7.02614e-08)
(0 1.62766e-10 2.55548e-08)
(-5.1962e-10 1.98598e-11 2.58564e-08)
(-9.88223e-10 -3.89224e-10 2.67647e-08)
(-1.34562e-09 -1.00589e-09 2.83186e-08)
(-1.53508e-09 -1.74611e-09 3.05873e-08)
(-1.50686e-09 -2.52199e-09 3.3682e-08)
(-1.21965e-09 -3.2615e-09 3.77603e-08)
(-6.56237e-10 -3.91384e-09 4.30136e-08)
(1.32198e-10 -4.44767e-09 4.96252e-08)
(9.43972e-10 -4.85562e-09 5.77251e-08)
(1.79658e-09 -5.0392e-09 6.73786e-08)
(0 6.41144e-10 2.79139e-08)
(-7.14126e-10 4.30963e-10 2.81905e-08)
(-1.40756e-09 -1.71748e-10 2.90197e-08)
(-2.04316e-09 -1.07969e-09 3.04485e-08)
(-2.58541e-09 -2.1695e-09 3.25531e-08)
(-3.00931e-09 -3.31232e-09 3.54361e-08)
(-3.31292e-09 -4.40112e-09 3.92313e-08)
(-3.53087e-09 -5.36105e-09 4.40891e-08)
(-3.76546e-09 -6.13984e-09 5.0131e-08)
(-4.25941e-09 -6.70527e-09 5.7407e-08)
(-4.92004e-09 -6.85361e-09 6.583e-08)
(0 1.502e-09 3.1158e-08)
(-9.10615e-10 1.2036e-09 3.13995e-08)
(-1.83206e-09 3.47659e-10 3.21199e-08)
(-2.75172e-09 -9.35512e-10 3.33813e-08)
(-3.65459e-09 -2.46328e-09 3.52753e-08)
(-4.53369e-09 -4.05751e-09 3.79109e-08)
(-5.40315e-09 -5.57618e-09 4.14133e-08)
(-6.31203e-09 -6.91922e-09 4.59037e-08)
(-7.36007e-09 -8.02176e-09 5.14817e-08)
(-8.72341e-09 -8.83247e-09 5.81874e-08)
(-1.01676e-08 -9.0181e-09 6.58145e-08)
(0 2.87886e-09 3.55057e-08)
(-1.08678e-09 2.45628e-09 3.56898e-08)
(-2.21548e-09 1.25276e-09 3.62492e-08)
(-3.39763e-09 -5.29938e-10 3.72784e-08)
(-4.63608e-09 -2.62063e-09 3.89007e-08)
(-5.93669e-09 -4.77138e-09 4.12464e-08)
(-7.31573e-09 -6.80784e-09 4.44406e-08)
(-8.80682e-09 -8.61861e-09 4.85951e-08)
(-1.04715e-08 -1.0138e-08 5.38002e-08)
(-1.23855e-08 -1.13112e-08 6.0103e-08)
(-1.41876e-08 -1.16849e-08 6.71912e-08)
(0 4.94392e-09 4.1275e-08)
(-1.2265e-09 4.33376e-09 4.13606e-08)
(-2.52464e-09 2.62468e-09 4.16545e-08)
(-3.92785e-09 1.56943e-10 4.23313e-08)
(-5.45771e-09 -2.66072e-09 4.35837e-08)
(-7.13048e-09 -5.49057e-09 4.55769e-08)
(-8.95781e-09 -8.128e-09 4.84339e-08)
(-1.09508e-08 -1.04775e-08 5.22611e-08)
(-1.31042e-08 -1.24842e-08 5.71171e-08)
(-1.5402e-08 -1.41144e-08 6.30585e-08)
(-1.74204e-08 -1.48627e-08 6.97072e-08)
(0 7.92968e-09 4.89184e-08)
(-1.32049e-09 7.01454e-09 4.88158e-08)
(-2.73762e-09 4.52314e-09 4.86267e-08)
(-4.30631e-09 1.08467e-09 4.87255e-08)
(-6.07079e-09 -2.66208e-09 4.94506e-08)
(-8.0646e-09 -6.28602e-09 5.10099e-08)
(-1.02955e-08 -9.58144e-09 5.35014e-08)
(-1.27399e-08 -1.24914e-08 5.69768e-08)
(-1.53142e-08 -1.49902e-08 6.1427e-08)
(-1.79363e-08 -1.70967e-08 6.69316e-08)
(-2.01823e-08 -1.83517e-08 7.3076e-08)
(0 1.21878e-08 5.90933e-08)
(-1.36801e-09 1.07229e-08 5.85879e-08)
(-2.84604e-09 6.93471e-09 5.74678e-08)
(-4.51397e-09 2.08537e-09 5.65992e-08)
(-6.44729e-09 -2.82302e-09 5.65669e-08)
(-8.70911e-09 -7.30093e-09 5.76009e-08)
(-1.13164e-08 -1.12329e-08 5.97154e-08)
(-1.42053e-08 -1.4656e-08 6.28343e-08)
(-1.72046e-08 -1.75919e-08 6.68356e-08)
(-2.01114e-08 -2.00607e-08 7.16927e-08)
(-2.24913e-08 -2.16985e-08 7.68917e-08)
(0 1.84287e-08 7.302e-08)
(-1.34873e-09 1.58805e-08 7.14557e-08)
(-2.78927e-09 9.97085e-09 6.85045e-08)
(-4.42186e-09 3.20799e-09 6.60057e-08)
(-6.36226e-09 -2.98159e-09 6.48349e-08)
(-8.72697e-09 -8.21469e-09 6.51332e-08)
(-1.15792e-08 -1.26265e-08 6.6741e-08)
(-1.48656e-08 -1.64542e-08 6.94196e-08)
(-1.83565e-08 -1.97974e-08 7.29009e-08)
(-2.16085e-08 -2.25173e-08 7.68016e-08)
(-2.41615e-08 -2.43859e-08 8.07984e-08)
(0 0 2.78104e-08)
(-2.99191e-10 0 2.81571e-08)
(-4.56998e-10 0 2.91878e-08)
(-3.32776e-10 0 3.08983e-08)
(2.3076e-10 0 3.3322e-08)
(1.43974e-09 0 3.65396e-08)
(3.5823e-09 0 4.06847e-08)
(7.08226e-09 0 4.5956e-08)
(1.25875e-08 0 5.26356e-08)
(2.11559e-08 0 6.11273e-08)
(3.48609e-08 0 7.2205e-08)
(0 -8.24313e-11 2.81264e-08)
(-3.49862e-10 -1.37319e-10 2.8471e-08)
(-5.65789e-10 -2.9244e-10 2.94928e-08)
(-5.12308e-10 -5.22925e-10 3.11908e-08)
(-4.07507e-11 -7.95055e-10 3.35982e-08)
(1.04034e-09 -1.07457e-09 3.67924e-08)
(2.99205e-09 -1.33128e-09 4.08987e-08)
(6.18471e-09 -1.54319e-09 4.61046e-08)
(1.11543e-08 -1.69951e-09 5.26621e-08)
(1.86884e-08 -1.80665e-09 6.08957e-08)
(3.01844e-08 -1.85829e-09 7.1272e-08)
(0 -3.22862e-11 2.90713e-08)
(-4.92765e-10 -1.47122e-10 2.94054e-08)
(-8.73836e-10 -4.7438e-10 3.03996e-08)
(-1.02309e-09 -9.63136e-10 3.20598e-08)
(-8.14044e-10 -1.54121e-09 3.44156e-08)
(-9.50391e-11 -2.13466e-09 3.75361e-08)
(1.32939e-09 -2.67973e-09 4.15327e-08)
(3.70509e-09 -3.12811e-09 4.65596e-08)
(7.32063e-09 -3.44813e-09 5.27962e-08)
(1.24493e-08 -3.63219e-09 6.04235e-08)
(1.96911e-08 -3.6318e-09 6.96165e-08)
(0 2.8486e-10 3.06478e-08)
(-7.03349e-10 9.96511e-11 3.09678e-08)
(-1.32814e-09 -4.29888e-10 3.19215e-08)
(-1.77957e-09 -1.22415e-09 3.35222e-08)
(-1.95888e-09 -2.16772e-09 3.57976e-08)
(-1.76156e-09 -3.13733e-09 3.88059e-08)
(-1.06967e-09 -4.02747e-09 4.2641e-08)
(2.38395e-10 -4.75627e-09 4.74225e-08)
(2.23737e-09 -5.2615e-09 5.32619e-08)
(4.84656e-09 -5.50337e-09 6.02362e-08)
(8.33109e-09 -5.34902e-09 6.83337e-08)
(0 1.02144e-09 3.28914e-08)
(-9.45897e-10 7.48085e-10 3.31958e-08)
(-1.85283e-09 -3.51643e-11 3.40982e-08)
(-2.65655e-09 -1.20864e-09 3.56172e-08)
(-3.28748e-09 -2.60179e-09 3.77845e-08)
(-3.67727e-09 -4.03392e-09 4.06501e-08)
(-3.76833e-09 -5.34874e-09 4.42913e-08)
(-3.52393e-09 -6.42657e-09 4.88032e-08)
(-2.96601e-09 -7.17065e-09 5.42591e-08)
(-2.275e-09 -7.50044e-09 6.06863e-08)
(-1.17212e-09 -7.16271e-09 6.79545e-08)
(0 2.37068e-09 3.58822e-08)
(-1.18459e-09 1.97973e-09 3.61657e-08)
(-2.37043e-09 8.59081e-10 3.70007e-08)
(-3.52511e-09 -8.10307e-10 3.8413e-08)
(-4.60652e-09 -2.77348e-09 4.04402e-08)
(-5.57156e-09 -4.77922e-09 4.31336e-08)
(-6.38801e-09 -6.62051e-09 4.65634e-08)
(-7.04758e-09 -8.13884e-09 5.08038e-08)
(-7.58113e-09 -9.21171e-09 5.59161e-08)
(-8.09428e-09 -9.72478e-09 6.19199e-08)
(-8.17438e-09 -9.28403e-09 6.85842e-08)
(0 4.59654e-09 3.97491e-08)
(-1.38729e-09 4.03518e-09 3.99992e-08)
(-2.81421e-09 2.43915e-09 4.07386e-08)
(-4.27872e-09 9.42118e-11 4.2008e-08)
(-5.7616e-09 -2.61601e-09 4.38571e-08)
(-7.23691e-09 -5.33876e-09 4.63446e-08)
(-8.67587e-09 -7.81912e-09 4.95384e-08)
(-1.00515e-08 -9.88004e-09 5.35063e-08)
(-1.13488e-08 -1.13902e-08 5.83047e-08)
(-1.25409e-08 -1.222e-08 6.39546e-08)
(-1.30882e-08 -1.18538e-08 7.01406e-08)
(0 8.07954e-09 4.46822e-08)
(-1.52853e-09 7.25041e-09 4.48766e-08)
(-3.13189e-09 4.93618e-09 4.54632e-08)
(-4.8344e-09 1.63328e-09 4.65222e-08)
(-6.63946e-09 -2.06859e-09 4.81345e-08)
(-8.5338e-09 -5.68457e-09 5.03719e-08)
(-1.04827e-08 -8.91532e-09 5.3296e-08)
(-1.24273e-08 -1.16033e-08 5.6975e-08)
(-1.42689e-08 -1.36347e-08 6.14423e-08)
(-1.58583e-08 -1.48952e-08 6.67262e-08)
(-1.66009e-08 -1.48289e-08 7.24696e-08)
(0 1.33909e-08 5.0948e-08)
(-1.58963e-09 1.21036e-08 5.10375e-08)
(-3.28201e-09 8.62218e-09 5.13491e-08)
(-5.12604e-09 3.90027e-09 5.20694e-08)
(-7.1513e-09 -1.11655e-09 5.33523e-08)
(-9.36399e-09 -5.80435e-09 5.52859e-08)
(-1.17243e-08 -9.8671e-09 5.79113e-08)
(-1.41325e-08 -1.32098e-08 6.12606e-08)
(-1.63996e-08 -1.57735e-08 6.53213e-08)
(-1.82895e-08 -1.75045e-08 7.0151e-08)
(-1.923e-08 -1.79213e-08 7.53808e-08)
(0 2.14501e-08 5.89248e-08)
(-1.55943e-09 1.92862e-08 5.87876e-08)
(-3.23449e-09 1.37595e-08 5.85721e-08)
(-5.10137e-09 6.86609e-09 5.87346e-08)
(-7.22496e-09 1.26385e-10 5.95547e-08)
(-9.64466e-09 -5.7531e-09 6.11238e-08)
(-1.23304e-08 -1.06251e-08 6.34309e-08)
(-1.51412e-08 -1.4557e-08 6.64256e-08)
(-1.78012e-08 -1.7592e-08 7.00244e-08)
(-1.99715e-08 -1.97191e-08 7.42169e-08)
(-2.11389e-08 -2.06081e-08 7.85739e-08)
(0 3.40525e-08 6.93354e-08)
(-1.40296e-09 3.00101e-08 6.85582e-08)
(-2.90123e-09 2.09017e-08 6.72839e-08)
(-4.59023e-09 1.08455e-08 6.64878e-08)
(-6.58162e-09 2.04387e-09 6.65935e-08)
(-8.97791e-09 -4.98761e-09 6.76366e-08)
(-1.18037e-08 -1.05085e-08 6.95104e-08)
(-1.4935e-08 -1.49141e-08 7.20722e-08)
(-1.80489e-08 -1.8415e-08 7.51501e-08)
(-2.06362e-08 -2.095e-08 7.84652e-08)
(-2.22159e-08 -2.23395e-08 8.17819e-08)
(0 0 2.81818e-08)
(-4.64452e-10 0 2.84348e-08)
(-7.78204e-10 0 2.9172e-08)
(-7.92858e-10 0 3.03471e-08)
(-3.43307e-10 0 3.19118e-08)
(7.90581e-10 0 3.38174e-08)
(2.92117e-09 0 3.60063e-08)
(6.51248e-09 0 3.83978e-08)
(1.22779e-08 0 4.08619e-08)
(2.13846e-08 0 4.31718e-08)
(3.61147e-08 0 4.49407e-08)
(0 -1.5473e-10 2.84021e-08)
(-5.17903e-10 -2.14584e-10 2.86559e-08)
(-8.94324e-10 -3.83854e-10 2.93939e-08)
(-9.86131e-10 -6.36178e-10 3.05722e-08)
(-6.369e-10 -9.35001e-10 3.21428e-08)
(3.57299e-10 -1.243e-09 3.40574e-08)
(2.27861e-09 -1.52762e-09 3.626e-08)
(5.53078e-09 -1.76599e-09 3.86778e-08)
(1.07009e-08 -1.94878e-09 4.1196e-08)
(1.86507e-08 -2.0878e-09 4.36231e-08)
(3.0907e-08 -2.18193e-09 4.56203e-08)
(0 -1.68731e-10 2.90466e-08)
(-6.69259e-10 -2.94229e-10 2.93e-08)
(-1.22305e-09 -6.51806e-10 3.00399e-08)
(-1.53492e-09 -1.18657e-09 3.12273e-08)
(-1.4714e-09 -1.82043e-09 3.2813e-08)
(-8.71873e-10 -2.47321e-09 3.47495e-08)
(4.72302e-10 -3.0761e-09 3.69879e-08)
(2.82482e-09 -3.57846e-09 3.94703e-08)
(6.49357e-09 -3.95004e-09 4.21124e-08)
(1.17591e-08 -4.19084e-09 4.4795e-08)
(1.92396e-08 -4.25689e-09 4.72826e-08)
(0 9.99448e-11 3.00756e-08)
(-8.93724e-10 -1.02418e-10 3.03311e-08)
(-1.7087e-09 -6.80863e-10 3.10783e-08)
(-2.34658e-09 -1.54898e-09 3.22822e-08)
(-2.70405e-09 -2.58159e-09 3.3892e-08)
(-2.67149e-09 -3.64533e-09 3.5858e-08)
(-2.12607e-09 -4.62651e-09 3.81371e-08)
(-9.43943e-10 -5.43852e-09 4.06863e-08)
(9.41145e-10 -6.01896e-09 4.34471e-08)
(3.40811e-09 -6.3351e-09 4.63527e-08)
(6.68294e-09 -6.25247e-09 4.92019e-08)
(0 8.12854e-10 3.14435e-08)
(-1.1526e-09 5.14668e-10 3.17056e-08)
(-2.26975e-09 -3.39522e-10 3.24691e-08)
(-3.286e-09 -1.61989e-09 3.36971e-08)
(-4.13015e-09 -3.14128e-09 3.53355e-08)
(-4.73243e-09 -4.70797e-09 3.73285e-08)
(-5.03605e-09 -6.1517e-09 3.96327e-08)
(-5.01163e-09 -7.34551e-09 4.22143e-08)
(-4.70325e-09 -8.19027e-09 4.50294e-08)
(-4.34742e-09 -8.61052e-09 4.80276e-08)
(-3.71802e-09 -8.34106e-09 5.09871e-08)
(0 2.17748e-09 3.31016e-08)
(-1.40708e-09 1.75177e-09 3.33753e-08)
(-2.82232e-09 5.31876e-10 3.41674e-08)
(-4.21432e-09 -1.286e-09 3.54319e-08)
(-5.54109e-09 -3.4254e-09 3.71016e-08)
(-6.76073e-09 -5.61416e-09 3.91108e-08)
(-7.84497e-09 -7.62916e-09 4.14124e-08)
(-8.79518e-09 -9.30214e-09 4.39704e-08)
(-9.66531e-09 -1.05076e-08 4.67472e-08)
(-1.06112e-08 -1.11351e-08 4.96892e-08)
(-1.1269e-08 -1.07658e-08 5.25408e-08)
(0 4.48025e-09 3.49887e-08)
(-1.62291e-09 3.86968e-09 3.52814e-08)
(-3.29517e-09 2.13421e-09 3.61236e-08)
(-5.01783e-09 -4.15808e-10 3.74484e-08)
(-6.77278e-09 -3.36442e-09 3.91607e-08)
(-8.53598e-09 -6.32993e-09 4.11757e-08)
(-1.02833e-08 -9.03774e-09 4.34371e-08)
(-1.19966e-08 -1.13001e-08 4.59082e-08)
(-1.36773e-08 -1.29841e-08 4.85524e-08)
(-1.53339e-08 -1.39662e-08 5.13046e-08)
(-1.64682e-08 -1.36946e-08 5.38928e-08)
(0 8.13671e-09 3.70161e-08)
(-1.77397e-09 7.23454e-09 3.73449e-08)
(-3.63465e-09 4.71749e-09 3.82782e-08)
(-5.61082e-09 1.12647e-09 3.9705e-08)
(-7.70832e-09 -2.89803e-09 4.14843e-08)
(-9.91607e-09 -6.83173e-09 4.35003e-08)
(-1.22025e-08 -1.03533e-08 4.56837e-08)
(-1.45153e-08 -1.32978e-08 4.80037e-08)
(-1.67643e-08 -1.55526e-08 5.04204e-08)
(-1.88206e-08 -1.70157e-08 5.28656e-08)
(-2.01233e-08 -1.70929e-08 5.50872e-08)
(0 1.37722e-08 3.90388e-08)
(-1.84299e-09 1.23681e-08 3.94392e-08)
(-3.80139e-09 8.57418e-09 4.05424e-08)
(-5.92948e-09 3.43409e-09 4.21469e-08)
(-8.26141e-09 -2.02254e-09 4.40359e-08)
(-1.08076e-08 -7.1213e-09 4.60561e-08)
(-1.35305e-08 -1.15469e-08 4.81291e-08)
(-1.6332e-08 -1.52047e-08 5.02289e-08)
(-1.9023e-08 -1.80431e-08 5.23189e-08)
(-2.1379e-08 -2.00312e-08 5.43594e-08)
(-2.28521e-08 -2.06581e-08 5.61398e-08)
(0 2.23917e-08 4.08054e-08)
(-1.82332e-09 2.00215e-08 4.13544e-08)
(-3.77247e-09 1.39772e-08 4.27923e-08)
(-5.93038e-09 6.45354e-09 4.47149e-08)
(-8.37037e-09 -8.89248e-10 4.67813e-08)
(-1.11407e-08 -7.29007e-09 4.88066e-08)
(-1.42159e-08 -1.25996e-08 5.07276e-08)
(-1.74522e-08 -1.69021e-08 5.25376e-08)
(-2.05634e-08 -2.02581e-08 5.42241e-08)
(-2.32064e-08 -2.26824e-08 5.57756e-08)
(-2.48696e-08 -2.38259e-08 5.70265e-08)
(0 3.59481e-08 4.1878e-08)
(-1.68317e-09 3.15025e-08 4.27172e-08)
(-3.46182e-09 2.14954e-08 4.47691e-08)
(-5.43985e-09 1.04796e-08 4.71875e-08)
(-7.74417e-09 8.65325e-10 4.94768e-08)
(-1.04951e-08 -6.80385e-09 5.14726e-08)
(-1.37296e-08 -1.28292e-08 5.31784e-08)
(-1.73241e-08 -1.76539e-08 5.46421e-08)
(-2.09388e-08 -2.15181e-08 5.58934e-08)
(-2.40267e-08 -2.43636e-08 5.6922e-08)
(-2.60721e-08 -2.60033e-08 5.77365e-08)
(0 0 2.51533e-08)
(-6.62776e-10 0 2.52746e-08)
(-1.20409e-09 0 2.56084e-08)
(-1.51065e-09 0 2.60749e-08)
(-1.46491e-09 0 2.65556e-08)
(-9.117e-10 0 2.68907e-08)
(3.66804e-10 0 2.6863e-08)
(2.69058e-09 0 2.61676e-08)
(6.54888e-09 0 2.43588e-08)
(1.275e-08 0 2.07475e-08)
(2.2912e-08 0 1.4092e-08)
(0 -2.56246e-10 2.5244e-08)
(-7.11262e-10 -3.13683e-10 2.53699e-08)
(-1.31134e-09 -4.76455e-10 2.57167e-08)
(-1.691e-09 -7.21349e-10 2.62053e-08)
(-1.73899e-09 -1.01523e-09 2.67185e-08)
(-1.31406e-09 -1.32432e-09 2.71003e-08)
(-2.24035e-10 -1.62026e-09 2.71446e-08)
(1.79994e-09 -1.88567e-09 2.65721e-08)
(5.14189e-09 -2.11886e-09 2.4994e-08)
(1.03598e-08 -2.34338e-09 2.18586e-08)
(1.84926e-08 -2.56866e-09 1.62801e-08)
(0 -4.01813e-10 2.54902e-08)
(-8.49712e-10 -5.22371e-10 2.56283e-08)
(-1.61509e-09 -8.66065e-10 2.60135e-08)
(-2.20165e-09 -1.38323e-09 2.65684e-08)
(-2.51578e-09 -2.00351e-09 2.71765e-08)
(-2.4522e-09 -2.65517e-09 2.76915e-08)
(-1.88146e-09 -3.27819e-09 2.7934e-08)
(-6.52057e-10 -3.83267e-09 2.76849e-08)
(1.38953e-09 -4.30263e-09 2.668e-08)
(4.32429e-09 -4.70853e-09 2.46321e-08)
(8.4762e-09 -5.01916e-09 2.1092e-08)
(0 -3.29969e-10 2.58174e-08)
(-1.05825e-09 -5.23409e-10 2.59772e-08)
(-2.06708e-09 -1.07662e-09 2.6428e-08)
(-2.95825e-09 -1.91117e-09 2.70914e-08)
(-3.66399e-09 -2.91425e-09 2.78489e-08)
(-4.12048e-09 -3.96736e-09 2.85602e-08)
(-4.26941e-09 -4.97171e-09 2.9074e-08)
(-4.07477e-09 -5.85653e-09 2.92316e-08)
(-3.57924e-09 -6.57891e-09 2.88811e-08)
(-3.02604e-09 -7.13278e-09 2.79252e-08)
(-2.38215e-09 -7.39167e-09 2.61265e-08)
(0 7.49187e-11 2.61107e-08)
(-1.30158e-09 -2.07316e-10 2.63038e-08)
(-2.59442e-09 -1.01603e-09 2.68513e-08)
(-3.83958e-09 -2.23509e-09 2.76653e-08)
(-4.99785e-09 -3.69909e-09 2.86156e-08)
(-6.03874e-09 -5.23433e-09 2.95573e-08)
(-6.95608e-09 -6.6949e-09 3.03547e-08)
(-7.78768e-09 -7.97586e-09 3.08899e-08)
(-8.65927e-09 -9.00201e-09 3.10728e-08)
(-9.89333e-09 -9.72859e-09 3.08798e-08)
(-1.14237e-08 -9.887e-09 3.01232e-08)
(0 9.56524e-10 2.62118e-08)
(-1.54464e-09 5.5931e-10 2.64538e-08)
(-3.1216e-09 -5.79142e-10 2.71405e-08)
(-4.72246e-09 -2.28665e-09 2.81583e-08)
(-6.33249e-09 -4.32041e-09 2.93443e-08)
(-7.94498e-09 -6.44101e-09 3.05329e-08)
(-9.57565e-09 -8.45459e-09 3.15869e-08)
(-1.12787e-08 -1.02208e-08 3.24046e-08)
(-1.31742e-08 -1.16438e-08 3.29192e-08)
(-1.54963e-08 -1.26473e-08 3.31066e-08)
(-1.80307e-08 -1.27898e-08 3.27897e-08)
(0 2.50625e-09 2.59024e-08)
(-1.75779e-09 1.94761e-09 2.62208e-08)
(-3.58689e-09 3.57558e-10 2.71181e-08)
(-5.50873e-09 -1.99719e-09 2.84243e-08)
(-7.52855e-09 -4.75775e-09 2.99106e-08)
(-9.6528e-09 -7.59371e-09 3.13655e-08)
(-1.18986e-08 -1.02675e-08 3.26367e-08)
(-1.42979e-08 -1.2621e-08 3.36269e-08)
(-1.6909e-08 -1.45551e-08 3.42771e-08)
(-1.98177e-08 -1.59849e-08 3.45406e-08)
(-2.26639e-08 -1.6312e-08 3.42731e-08)
(0 4.99274e-09 2.48729e-08)
(-1.92097e-09 4.1872e-09 2.53225e-08)
(-3.9489e-09 1.93339e-09 2.65655e-08)
(-6.13076e-09 -1.31468e-09 2.83086e-08)
(-8.49381e-09 -5.01486e-09 3.02031e-08)
(-1.10544e-08 -8.72014e-09 3.19648e-08)
(-1.38181e-08 -1.21551e-08 3.34209e-08)
(-1.67839e-08 -1.51816e-08 3.44871e-08)
(-1.99165e-08 -1.77133e-08 3.51182e-08)
(-2.3162e-08 -1.96907e-08 3.52594e-08)
(-2.60771e-08 -2.04549e-08 3.483e-08)
(0 8.81017e-09 2.2668e-08)
(-2.02513e-09 7.59257e-09 2.33626e-08)
(-4.18394e-09 4.2879e-09 2.5217e-08)
(-6.54714e-09 -2.48567e-10 2.76641e-08)
(-9.17004e-09 -5.1626e-09 3.01399e-08)
(-1.20908e-08 -9.88645e-09 3.22721e-08)
(-1.53064e-08 -1.41494e-08 3.38887e-08)
(-1.87641e-08 -1.78691e-08 3.49472e-08)
(-2.23244e-08 -2.09992e-08 3.54479e-08)
(-2.5838e-08 -2.35497e-08 3.53655e-08)
(-2.88417e-08 -2.49324e-08 3.4699e-08)
(0 1.45893e-08 1.85817e-08)
(-2.07593e-09 1.26021e-08 1.97775e-08)
(-4.29113e-09 7.49767e-09 2.27838e-08)
(-6.74408e-09 1.03637e-09 2.64012e-08)
(-9.53131e-09 -5.42645e-09 2.97119e-08)
(-1.27324e-08 -1.1255e-08 3.22787e-08)
(-1.63576e-08 -1.63122e-08 3.40071e-08)
(-2.02999e-08 -2.06516e-08 3.49631e-08)
(-2.43053e-08 -2.43002e-08 3.5248e-08)
(-2.80754e-08 -2.7281e-08 3.4929e-08)
(-3.11111e-08 -2.91472e-08 3.41091e-08)
(0 2.3586e-08 1.13355e-08)
(-2.05277e-09 2.0015e-08 1.36573e-08)
(-4.19861e-09 1.18385e-08 1.87989e-08)
(-6.55809e-09 2.65739e-09 2.42641e-08)
(-9.28566e-09 -5.57981e-09 2.87088e-08)
(-1.25394e-08 -1.24121e-08 3.17837e-08)
(-1.6397e-08 -1.80666e-08 3.36072e-08)
(-2.07701e-08 -2.28809e-08 3.44289e-08)
(-2.53336e-08 -2.7002e-08 3.44921e-08)
(-2.95053e-08 -3.02789e-08 3.40323e-08)
(-3.27201e-08 -3.24535e-08 3.32598e-08)
(0 0 2.06011e-08)
(-7.66585e-10 0 2.06142e-08)
(-1.45984e-09 0 2.06229e-08)
(-2.01914e-09 0 2.05379e-08)
(-2.39222e-09 0 2.02167e-08)
(-2.51117e-09 0 1.94616e-08)
(-2.28177e-09 0 1.8008e-08)
(-1.56659e-09 0 1.54968e-08)
(-1.51929e-10 0 1.14251e-08)
(2.33708e-09 0 5.03994e-09)
(6.70719e-09 0 -5.04453e-09)
(0 -2.67461e-10 2.05886e-08)
(-8.04142e-10 -3.16521e-10 2.06094e-08)
(-1.54484e-09 -4.55696e-10 2.06411e-08)
(-2.16369e-09 -6.66555e-10 2.05938e-08)
(-2.61136e-09 -9.22714e-10 2.03261e-08)
(-2.82931e-09 -1.19733e-09 1.9646e-08)
(-2.74016e-09 -1.46854e-09 1.83043e-08)
(-2.24024e-09 -1.72467e-09 1.59759e-08)
(-1.18333e-09 -1.9692e-09 1.22319e-08)
(6.48017e-10 -2.23092e-09 6.49774e-09)
(3.73928e-09 -2.52685e-09 -2.14594e-09)
(0 -4.73611e-10 2.05231e-08)
(-9.12414e-10 -5.75857e-10 2.05666e-08)
(-1.78529e-09 -8.67477e-10 2.06665e-08)
(-2.57091e-09 -1.30887e-09 2.07316e-08)
(-3.22941e-09 -1.8447e-09 2.06215e-08)
(-3.72498e-09 -2.41885e-09 2.01575e-08)
(-4.02176e-09 -2.98487e-09 1.91267e-08)
(-4.09148e-09 -3.51438e-09 1.72837e-08)
(-3.93316e-09 -4.00149e-09 1.43645e-08)
(-3.62883e-09 -4.47628e-09 1.0134e-08)
(-3.11064e-09 -4.92011e-09 4.2178e-09)
(0 -5.64413e-10 2.03198e-08)
(-1.07828e-09 -7.26127e-10 2.04011e-08)
(-2.14532e-09 -1.18902e-09 2.06134e-08)
(-3.17398e-09 -1.89173e-09 2.08604e-08)
(-4.14183e-09 -2.74664e-09 2.09979e-08)
(-5.0379e-09 -3.66241e-09 2.08569e-08)
(-5.87045e-09 -4.5631e-09 2.02618e-08)
(-6.68236e-09 -5.39553e-09 1.90482e-08)
(-7.59073e-09 -6.13109e-09 1.70993e-08)
(-8.873e-09 -6.77603e-09 1.44216e-08)
(-1.06115e-08 -7.21979e-09 1.08953e-08)
(0 -4.88282e-10 1.98402e-08)
(-1.27349e-09 -7.19332e-10 1.99756e-08)
(-2.5683e-09 -1.38197e-09 2.03475e-08)
(-3.87884e-09 -2.38879e-09 2.0844e-08)
(-5.20315e-09 -3.61488e-09 2.1303e-08)
(-6.551e-09 -4.92809e-09 2.15503e-08)
(-7.95884e-09 -6.2172e-09 2.14321e-08)
(-9.5081e-09 -7.40193e-09 2.08381e-08)
(-1.13545e-08 -8.42437e-09 1.97313e-08)
(-1.3802e-08 -9.25301e-09 1.82085e-08)
(-1.68758e-08 -9.63604e-09 1.6202e-08)
(0 -1.88185e-10 1.88898e-08)
(-1.47001e-09 -5.04123e-10 1.91017e-08)
(-2.9944e-09 -1.41078e-09 1.96946e-08)
(-4.59042e-09 -2.78469e-09 2.05205e-08)
(-6.27205e-09 -4.45001e-09 2.13729e-08)
(-8.06404e-09 -6.22952e-09 2.20491e-08)
(-1.00124e-08 -7.9764e-09 2.23931e-08)
(-1.21939e-08 -9.58172e-09 2.23177e-08)
(-1.47378e-08 -1.0969e-08 2.18144e-08)
(-1.7859e-08 -1.20738e-08 2.09742e-08)
(-2.14472e-08 -1.24682e-08 1.97348e-08)
(0 4.02511e-10 1.72059e-08)
(-1.645e-09 -2.46699e-11 1.75329e-08)
(-3.376e-09 -1.24499e-09 1.84455e-08)
(-5.23376e-09 -3.07758e-09 1.97203e-08)
(-7.24551e-09 -5.2744e-09 2.10634e-08)
(-9.4417e-09 -7.60071e-09 2.22107e-08)
(-1.18643e-08 -9.87943e-09 2.29864e-08)
(-1.45639e-08 -1.19849e-08 2.3308e-08)
(-1.76022e-08 -1.38348e-08 2.31756e-08)
(-2.1059e-08 -1.53526e-08 2.2649e-08)
(-2.46869e-08 -1.59447e-08 2.16983e-08)
(0 1.3663e-09 1.44291e-08)
(-1.78455e-09 7.80805e-10 1.49447e-08)
(-3.68425e-09 -8.68697e-10 1.63585e-08)
(-5.76037e-09 -3.29273e-09 1.82843e-08)
(-8.05781e-09 -6.13572e-09 2.02706e-08)
(-1.06123e-08 -9.09318e-09 2.19573e-08)
(-1.34499e-08 -1.19643e-08 2.31422e-08)
(-1.65906e-08 -1.46345e-08 2.37575e-08)
(-2.00093e-08 -1.70195e-08 2.38204e-08)
(-2.36583e-08 -1.90587e-08 2.33784e-08)
(-2.71946e-08 -2.00832e-08 2.24686e-08)
(0 2.81426e-09 1.00535e-08)
(-1.8855e-09 1.98351e-09 1.09063e-08)
(-3.90696e-09 -2.96229e-10 1.3171e-08)
(-6.14527e-09 -3.51165e-09 1.61025e-08)
(-8.67067e-09 -7.13191e-09 1.89664e-08)
(-1.1539e-08 -1.07852e-08 2.12876e-08)
(-1.4766e-08 -1.42737e-08 2.2866e-08)
(-1.83192e-08 -1.75123e-08 2.36883e-08)
(-2.20767e-08 -2.04255e-08 2.38288e-08)
(-2.5906e-08 -2.29996e-08 2.33626e-08)
(-2.94151e-08 -2.46146e-08 2.24087e-08)
(0 4.92896e-09 3.31874e-09)
(-1.95969e-09 3.67138e-09 4.83888e-09)
(-4.05456e-09 3.85138e-10 8.64965e-09)
(-6.38918e-09 -3.9288e-09 1.31881e-08)
(-9.07384e-09 -8.4642e-09 1.726e-08)
(-1.22063e-08 -1.28163e-08 2.03065e-08)
(-1.58164e-08 -1.68675e-08 2.22294e-08)
(-1.98155e-08 -2.06023e-08 2.31561e-08)
(-2.39669e-08 -2.39657e-08 2.32811e-08)
(-2.79885e-08 -2.69196e-08 2.27734e-08)
(-3.14126e-08 -2.89543e-08 2.18483e-08)
(0 8.12589e-09 -7.17901e-09)
(-1.99611e-09 6.07072e-09 -4.1888e-09)
(-4.0711e-09 1.19169e-09 2.40811e-09)
(-6.34776e-09 -4.53594e-09 9.40569e-09)
(-8.99398e-09 -9.98565e-09 1.50632e-08)
(-1.21874e-08 -1.48593e-08 1.89319e-08)
(-1.60267e-08 -1.92591e-08 2.11849e-08)
(-2.04406e-08 -2.33369e-08 2.21814e-08)
(-2.51166e-08 -2.70844e-08 2.22797e-08)
(-2.94763e-08 -3.02391e-08 2.18115e-08)
(-3.29609e-08 -3.24701e-08 2.10471e-08)
(0 0 1.604e-08)
(-6.49152e-10 0 1.59966e-08)
(-1.26925e-09 0 1.58412e-08)
(-1.8423e-09 0 1.54975e-08)
(-2.36129e-09 0 1.48416e-08)
(-2.81518e-09 0 1.37044e-08)
(-3.18619e-09 0 1.18686e-08)
(-3.44463e-09 0 9.05397e-09)
(-3.53464e-09 0 4.88465e-09)
(-3.33085e-09 -0 -1.19171e-09)
(-2.51765e-09 -0 -1.02306e-08)
(0 -6.89178e-11 1.59771e-08)
(-6.733e-10 -1.06726e-10 1.5943e-08)
(-1.3251e-09 -2.13535e-10 1.58154e-08)
(-1.93826e-09 -3.73921e-10 1.55166e-08)
(-2.5063e-09 -5.68383e-10 1.49232e-08)
(-3.02313e-09 -7.77599e-10 1.38713e-08)
(-3.47957e-09 -9.85518e-10 1.21583e-08)
(-3.86365e-09 -1.18352e-09 9.53511e-09)
(-4.15415e-09 -1.37506e-09 5.69341e-09)
(-4.30533e-09 -1.58539e-09 2.41629e-10)
(-4.13703e-09 -1.83948e-09 -7.47165e-09)
(0 -1.22784e-10 1.57648e-08)
(-7.43094e-10 -1.99193e-10 1.57585e-08)
(-1.48196e-09 -4.17055e-10 1.57134e-08)
(-2.20587e-09 -7.46473e-10 1.55479e-08)
(-2.91153e-09 -1.14732e-09 1.51384e-08)
(-3.60357e-09 -1.57926e-09 1.43329e-08)
(-4.29404e-09 -2.00809e-09 1.2962e-08)