/*--------------------------------*- C++ -*----------------------------------*\
| =========                 |                                                 |
| \\      /  F ield         | foam-extend: Open Source CFD                    |
|  \\    /   O peration     | Version:     3.1                                |
|   \\  /    A nd           | Web:         http://www.extend-project.de       |
|    \\/     M anipulation  |                                                 |
\*---------------------------------------------------------------------------*/
FoamFile
{
    version     2.0;
    format      ascii;
    class       surfaceVectorField;
    location    "0.0003";
    object      Sf;
}
// * * * * * * * * * * * * * * * * * * * * * * * * * * * * * * * * * * * * * //

dimensions      [0 2 0 0 0 0 0];

internalField   nonuniform List<vector> 
45800
(
(2.09822e-07 3.66366e-09 -1.24406e-10)
(3.66358e-09 2.09821e-07 -1.24764e-10)
(-9.99616e-13 -9.9477e-13 1.14803e-07)
(2.06159e-07 7.32648e-09 -2.43655e-10)
(3.66541e-09 2.09823e-07 -1.24686e-10)
(-2.98514e-12 -1.06981e-12 1.12797e-07)
(2.02499e-07 1.09889e-08 -3.58467e-10)
(3.66543e-09 2.09827e-07 -1.2367e-10)
(-5.13633e-12 -1.2309e-12 1.10791e-07)
(1.98842e-07 1.46517e-08 -4.71933e-10)
(3.66477e-09 2.09837e-07 -1.23125e-10)
(-7.70817e-12 -1.5136e-12 1.08788e-07)
(1.95189e-07 1.83152e-08 -5.87411e-10)
(3.66405e-09 2.09853e-07 -1.23567e-10)
(-1.09939e-11 -1.97087e-12 1.0679e-07)
(1.91541e-07 2.19799e-08 -7.08089e-10)
(3.66322e-09 2.09877e-07 -1.25226e-10)
(-1.53335e-11 -2.67711e-12 1.04796e-07)
(1.879e-07 2.56462e-08 -8.37117e-10)
(3.66216e-09 2.09911e-07 -1.28441e-10)
(-2.11595e-11 -3.74594e-12 1.02807e-07)
(1.84268e-07 2.93149e-08 -9.7747e-10)
(3.66083e-09 2.09956e-07 -1.33682e-10)
(-2.89719e-11 -5.3225e-12 1.00823e-07)
(1.80648e-07 3.29876e-08 -1.13164e-09)
(3.65913e-09 2.10016e-07 -1.4154e-10)
(-3.93372e-11 -7.53354e-12 9.88442e-08)
(3.65972e-09 2.10093e-07 -1.51301e-10)
(-5.32571e-11 -1.0051e-11 9.68702e-08)
(1.77042e-07 3.6669e-08 -1.3026e-09)
(2.09823e-07 3.66531e-09 -1.24338e-10)
(7.32632e-09 2.06159e-07 -2.43871e-10)
(-1.07261e-12 -2.97826e-12 1.12796e-07)
(2.06163e-07 7.32908e-09 -2.44891e-10)
(7.32891e-09 2.06162e-07 -2.45274e-10)
(-3.06381e-12 -3.05528e-12 1.10793e-07)
(2.02504e-07 1.09915e-08 -3.6209e-10)
(7.32975e-09 2.06168e-07 -2.45042e-10)
(-5.23331e-12 -3.23287e-12 1.0879e-07)
(1.98847e-07 1.46539e-08 -4.7805e-10)
(7.3291e-09 2.06178e-07 -2.45004e-10)
(-7.82192e-12 -3.54601e-12 1.06789e-07)
(1.95194e-07 1.83173e-08 -5.9578e-10)
(7.32775e-09 2.06194e-07 -2.46506e-10)
(-1.11173e-11 -4.04081e-12 1.04791e-07)
(1.91547e-07 2.1982e-08 -7.18487e-10)
(7.32613e-09 2.06217e-07 -2.50319e-10)
(-1.54514e-11 -4.78871e-12 1.02798e-07)
(1.87906e-07 2.56488e-08 -8.49324e-10)
(7.32404e-09 2.0625e-07 -2.57144e-10)
(-2.12353e-11 -5.87611e-12 1.00809e-07)
(1.84275e-07 2.93187e-08 -9.91131e-10)
(7.32149e-09 2.06294e-07 -2.67856e-10)
(-2.89043e-11 -7.36283e-12 9.88245e-08)
(1.80654e-07 3.29933e-08 -1.14614e-09)
(7.3185e-09 2.06351e-07 -2.83387e-10)
(-3.89121e-11 -9.24342e-12 9.68448e-08)
(7.32083e-09 2.06423e-07 -3.01737e-10)
(-5.15801e-11 -1.12161e-11 9.48668e-08)
(1.77045e-07 3.66749e-08 -1.31516e-09)
(2.09827e-07 3.66517e-09 -1.23513e-10)
(1.09888e-08 2.02499e-07 -3.58433e-10)
(-1.22968e-12 -5.1354e-12 1.1079e-07)
(2.06168e-07 7.32957e-09 -2.44663e-10)
(1.09912e-08 2.02503e-07 -3.62212e-10)
(-3.23717e-12 -5.22628e-12 1.0879e-07)
(2.02511e-07 1.09928e-08 -3.6399e-10)
(1.09926e-08 2.0251e-07 -3.64336e-10)
(-5.44068e-12 -5.42999e-12 1.0679e-07)
(1.98855e-07 1.46555e-08 -4.82742e-10)
(1.09927e-08 2.02521e-07 -3.66222e-10)
(-8.06006e-12 -5.7846e-12 1.0479e-07)
(1.95203e-07 1.83187e-08 -6.03077e-10)
(1.09912e-08 2.02537e-07 -3.69591e-10)
(-1.13738e-11 -6.33431e-12 1.02793e-07)
(1.91556e-07 2.19835e-08 -7.27954e-10)
(1.09889e-08 2.0256e-07 -3.76034e-10)
(-1.57111e-11 -7.14607e-12 1.008e-07)
(1.87916e-07 2.56506e-08 -8.60451e-10)
(1.09859e-08 2.02591e-07 -3.86795e-10)
(-2.14424e-11 -8.30352e-12 9.88107e-08)
(1.84284e-07 2.9321e-08 -1.00311e-09)
(1.09823e-08 2.02633e-07 -4.03047e-10)
(-2.89182e-11 -9.85925e-12 9.68258e-08)
(1.80663e-07 3.29961e-08 -1.15793e-09)
(1.09781e-08 2.02687e-07 -4.26011e-10)
(-3.85141e-11 -1.1838e-11 9.48448e-08)
(1.09829e-08 2.02756e-07 -4.52188e-10)
(-5.0105e-11 -1.39269e-11 9.28641e-08)
(1.77051e-07 3.66771e-08 -1.32489e-09)
(2.09837e-07 3.6647e-09 -1.23149e-10)
(1.46517e-08 1.98842e-07 -4.71848e-10)
(-1.51054e-12 -7.71254e-12 1.08788e-07)
(2.06178e-07 7.32881e-09 -2.44867e-10)
(1.46539e-08 1.98847e-07 -4.77998e-10)
(-3.54391e-12 -7.8237e-12 1.06788e-07)
(2.02521e-07 1.09925e-08 -3.65872e-10)
(1.46552e-08 1.98855e-07 -4.8286e-10)
(-5.78945e-12 -8.05374e-12 1.0479e-07)
(1.98867e-07 1.46558e-08 -4.87214e-10)
(1.46556e-08 1.98866e-07 -4.87557e-10)
(-8.45943e-12 -8.4479e-12 1.02792e-07)
(1.95215e-07 1.83192e-08 -6.10386e-10)
(1.46547e-08 1.98883e-07 -4.93556e-10)
(-1.18109e-11 -9.06101e-12 1.00796e-07)
(1.91568e-07 2.1984e-08 -7.37654e-10)
(1.46521e-08 1.98905e-07 -5.02809e-10)
(-1.61692e-11 -9.95976e-12 9.88026e-08)
(1.87928e-07 2.56512e-08 -8.71799e-10)
(1.46481e-08 1.98935e-07 -5.17388e-10)
(-2.18849e-11 -1.1239e-11 9.68127e-08)
(1.84296e-07 2.93218e-08 -1.01521e-09)
(1.46435e-08 1.98976e-07 -5.38985e-10)
(-2.92514e-11 -1.29999e-11 9.48267e-08)
(1.80674e-07 3.29968e-08 -1.1698e-09)
(1.46384e-08 1.99028e-07 -5.69004e-10)
(-3.86002e-11 -1.53359e-11 9.28443e-08)
(1.46459e-08 1.99093e-07 -6.02308e-10)
(-4.92596e-11 -1.78077e-11 9.08615e-08)
(1.7706e-07 3.66772e-08 -1.33503e-09)
(2.09853e-07 3.66405e-09 -1.23632e-10)
(1.83152e-08 1.95189e-07 -5.87359e-10)
(-1.96851e-12 -1.09994e-11 1.0679e-07)
(2.06194e-07 7.32765e-09 -2.46572e-10)
(1.83173e-08 1.95194e-07 -5.95729e-10)
(-4.03564e-12 -1.11225e-11 1.04791e-07)
(2.02537e-07 1.09909e-08 -3.69478e-10)
(1.83186e-08 1.95203e-07 -6.03059e-10)
(-6.32892e-12 -1.13736e-11 1.02793e-07)
(1.98882e-07 1.46545e-08 -4.93202e-10)
(1.83189e-08 1.95215e-07 -6.1053e-10)
(-9.06603e-12 -1.18005e-11 1.00796e-07)
(1.95231e-07 1.83185e-08 -6.19117e-10)
(1.83183e-08 1.95231e-07 -6.19509e-10)
(-1.24902e-11 -1.24746e-11 9.88004e-08)
(1.91584e-07 2.19833e-08 -7.49041e-10)
(1.83161e-08 1.95254e-07 -6.31773e-10)
(-1.69155e-11 -1.34881e-11 9.68068e-08)
(1.87943e-07 2.56504e-08 -8.85079e-10)
(1.83118e-08 1.95283e-07 -6.49726e-10)
(-2.26693e-11 -1.49351e-11 9.48157e-08)
(1.84311e-07 2.9321e-08 -1.02936e-09)
(1.83059e-08 1.95322e-07 -6.75942e-10)
(-3.00599e-11 -1.6951e-11 9.28279e-08)
(1.80689e-07 3.29962e-08 -1.18389e-09)
(1.82998e-08 1.95372e-07 -7.1235e-10)
(-3.93737e-11 -1.97087e-11 9.0844e-08)
(1.83102e-08 1.95435e-07 -7.52093e-10)
(-4.91732e-11 -2.25778e-11 8.8859e-08)
(1.77074e-07 3.66766e-08 -1.3476e-09)
(2.09877e-07 3.66322e-09 -1.25289e-10)
(2.19799e-08 1.91541e-07 -7.08074e-10)
(-2.67513e-12 -1.53375e-11 1.04796e-07)
(2.06217e-07 7.32613e-09 -2.50434e-10)
(2.1982e-08 1.91547e-07 -7.18473e-10)
(-4.78259e-12 -1.5455e-11 1.02798e-07)
(2.0256e-07 1.09887e-08 -3.7612e-10)
(2.19835e-08 1.91556e-07 -7.27934e-10)
(-7.13631e-12 -1.57142e-11 1.008e-07)
(1.98905e-07 1.46517e-08 -5.02713e-10)
(2.19839e-08 1.91568e-07 -7.37671e-10)
(-9.95698e-12 -1.61702e-11 9.88023e-08)
(1.95253e-07 1.83158e-08 -6.31359e-10)
(2.1983e-08 1.91584e-07 -7.49256e-10)
(-1.34926e-11 -1.69037e-11 9.68063e-08)
(1.91607e-07 2.19813e-08 -7.6393e-10)
(2.19809e-08 1.91606e-07 -7.64477e-10)
(-1.80395e-11 -1.80187e-11 9.48126e-08)
(1.87965e-07 2.56484e-08 -9.02185e-10)
(2.19772e-08 1.91636e-07 -7.85476e-10)
(-2.39009e-11 -1.96346e-11 9.28207e-08)
(1.84332e-07 2.93189e-08 -1.0476e-09)
(2.19707e-08 1.91673e-07 -8.1524e-10)
(-3.14118e-11 -2.18988e-11 9.08308e-08)
(1.80709e-07 3.29947e-08 -1.20195e-09)
(2.19634e-08 1.91722e-07 -8.56601e-10)
(-4.08293e-11 -2.49762e-11 8.88441e-08)
(2.1976e-08 1.91782e-07 -9.01666e-10)
(-4.98048e-11 -2.80656e-11 8.68564e-08)
(1.77093e-07 3.66759e-08 -1.36388e-09)
(2.09911e-07 3.66217e-09 -1.28501e-10)
(2.56462e-08 1.879e-07 -8.37142e-10)
(-3.74374e-12 -2.11621e-11 1.02807e-07)
(2.0625e-07 7.32405e-09 -2.57256e-10)
(2.56488e-08 1.87906e-07 -8.49347e-10)
(-5.86937e-12 -2.12374e-11 1.00809e-07)
(2.02591e-07 1.09858e-08 -3.86948e-10)
(2.56506e-08 1.87916e-07 -8.6046e-10)
(-8.29363e-12 -2.14439e-11 9.88107e-08)
(1.98935e-07 1.4648e-08 -5.17547e-10)
(2.56512e-08 1.87928e-07 -8.71783e-10)
(-1.12318e-11 -2.18846e-11 9.68126e-08)
(1.95283e-07 1.83113e-08 -6.49645e-10)
(2.56503e-08 1.87943e-07 -8.85057e-10)
(-1.49214e-11 -2.26598e-11 9.48152e-08)
(1.91635e-07 2.19769e-08 -7.84861e-10)
(2.5648e-08 1.87964e-07 -9.02341e-10)
(-1.96226e-11 -2.38558e-11 9.28198e-08)
(1.87994e-07 2.56448e-08 -9.25274e-10)
(2.56444e-08 1.87993e-07 -9.25786e-10)
(-2.56596e-11 -2.55956e-11 9.08268e-08)
(1.84359e-07 2.93161e-08 -1.07174e-09)
(2.56388e-08 1.8803e-07 -9.57951e-10)
(-3.32426e-11 -2.79348e-11 8.88347e-08)
(1.80734e-07 3.29931e-08 -1.22522e-09)
(2.5631e-08 1.88075e-07 -1.00195e-09)
(-4.27224e-11 -3.09761e-11 8.68437e-08)
(2.56439e-08 1.88133e-07 -1.05042e-09)
(-5.09582e-11 -3.39359e-11 8.48522e-08)
(1.77117e-07 3.66762e-08 -1.3844e-09)
(2.09956e-07 3.66084e-09 -1.33736e-10)
(2.93149e-08 1.84268e-07 -9.77539e-10)
(-5.31992e-12 -2.89736e-11 1.00823e-07)
(2.06294e-07 7.32151e-09 -2.67958e-10)
(2.93187e-08 1.84275e-07 -9.91193e-10)
(-7.35505e-12 -2.89051e-11 9.88246e-08)
(2.02633e-07 1.09823e-08 -4.03192e-10)
(2.9321e-08 1.84284e-07 -1.00315e-09)
(-9.84746e-12 -2.89168e-11 9.68258e-08)
(1.98976e-07 1.46436e-08 -5.39185e-10)
(2.93219e-08 1.84296e-07 -1.01518e-09)
(-1.29852e-11 -2.92439e-11 9.48267e-08)
(1.95322e-07 1.83059e-08 -6.7612e-10)
(2.93212e-08 1.84311e-07 -1.02921e-09)
(-1.69238e-11 -3.0042e-11 9.28278e-08)
(1.91672e-07 2.19703e-08 -8.14891e-10)
(2.9319e-08 1.84331e-07 -1.04729e-09)
(-2.18273e-11 -3.13569e-11 9.08298e-08)
(1.88029e-07 2.56386e-08 -9.573e-10)
(2.93157e-08 1.84358e-07 -1.07154e-09)
(-2.7969e-11 -3.31496e-11 8.88337e-08)
(1.84392e-07 2.93119e-08 -1.10372e-09)
(2.93115e-08 1.84392e-07 -1.10391e-09)
(-3.53248e-11 -3.52204e-11 8.68373e-08)
(1.80763e-07 3.29912e-08 -1.25467e-09)
(2.93041e-08 1.84434e-07 -1.14743e-09)
(-4.46061e-11 -3.76628e-11 8.48407e-08)
(2.93153e-08 1.84486e-07 -1.19637e-09)
(-5.20623e-11 -3.97458e-11 8.28438e-08)
(1.77144e-07 3.66779e-08 -1.40883e-09)
(2.10016e-07 3.65914e-09 -1.41584e-10)
(3.29876e-08 1.80648e-07 -1.13175e-09)
(-7.53073e-12 -3.93383e-11 9.88443e-08)
(2.06351e-07 7.31852e-09 -2.83468e-10)
(3.29933e-08 1.80654e-07 -1.14624e-09)
(-9.23509e-12 -3.8913e-11 9.68448e-08)
(2.02687e-07 1.09782e-08 -4.26117e-10)
(3.29961e-08 1.80663e-07 -1.158e-09)
(-1.18249e-11 -3.85145e-11 9.48448e-08)
(1.99028e-07 1.46385e-08 -5.69123e-10)
(3.29969e-08 1.80674e-07 -1.1698e-09)
(-1.5317e-11 -3.85994e-11 9.28443e-08)
(1.95372e-07 1.83e-08 -7.12466e-10)
(3.29963e-08 1.80689e-07 -1.18378e-09)
(-1.96777e-11 -3.93701e-11 9.0844e-08)
(1.91721e-07 2.19633e-08 -8.56433e-10)
(3.29949e-08 1.80709e-07 -1.20165e-09)
(-2.48999e-11 -4.08326e-11 8.88438e-08)
(1.88075e-07 2.56305e-08 -1.00155e-09)
(3.2993e-08 1.80734e-07 -1.22487e-09)
(-3.10063e-11 -4.27513e-11 8.68434e-08)
(1.84433e-07 2.93038e-08 -1.1471e-09)
(3.29908e-08 1.80763e-07 -1.25455e-09)
(-3.77424e-11 -4.46051e-11 8.48405e-08)
(1.80797e-07 3.29861e-08 -1.29272e-09)
(3.29859e-08 1.80797e-07 -1.29286e-09)
(-4.58258e-11 -4.57822e-11 8.28347e-08)
(3.2995e-08 1.80835e-07 -1.33538e-09)
(-5.10095e-11 -4.45603e-11 8.08248e-08)
(1.77169e-07 3.6682e-08 -1.43544e-09)
(2.10093e-07 3.65973e-09 -1.51335e-10)
(-1.00483e-11 -5.32572e-11 9.68702e-08)
(3.6669e-08 1.77042e-07 -1.30273e-09)
(2.06423e-07 7.32085e-09 -3.01795e-10)
(-1.12086e-11 -5.1581e-11 9.48668e-08)
(3.66749e-08 1.77045e-07 -1.31527e-09)
(2.02756e-07 1.09829e-08 -4.52256e-10)
(-1.39157e-11 -5.01078e-11 9.28642e-08)
(3.66771e-08 1.77051e-07 -1.32498e-09)
(1.99093e-07 1.4646e-08 -6.02367e-10)
(-1.77932e-11 -4.92662e-11 9.08615e-08)
(3.66773e-08 1.7706e-07 -1.33507e-09)
(1.95436e-07 1.83102e-08 -7.52112e-10)
(-2.25577e-11 -4.91894e-11 8.8859e-08)
(3.66766e-08 1.77074e-07 -1.34756e-09)
(1.91782e-07 2.19759e-08 -9.01578e-10)
(-2.80348e-11 -4.98482e-11 8.68565e-08)
(3.6676e-08 1.77093e-07 -1.36376e-09)
(1.88133e-07 2.56438e-08 -1.05032e-09)
(-3.39604e-11 -5.10169e-11 8.48524e-08)
(3.66762e-08 1.77117e-07 -1.38424e-09)
(1.84486e-07 2.93151e-08 -1.19619e-09)
(-3.9751e-11 -5.20708e-11 8.28437e-08)
(3.66779e-08 1.77144e-07 -1.40865e-09)
(1.80834e-07 3.2995e-08 -1.33512e-09)
(-4.45504e-11 -5.09352e-11 8.08244e-08)
(3.66819e-08 1.77168e-07 -1.43526e-09)
(-4.59556e-11 -4.58575e-11 7.87958e-08)
(1.77188e-07 3.66873e-08 -1.4619e-09)
(3.66871e-08 1.77188e-07 -1.46187e-09)
(2.10016e-07 3.66578e-09 -1.03326e-10)
(3.66554e-09 2.10015e-07 -1.03624e-10)
(-1.31845e-12 -1.31252e-12 1.15009e-07)
(2.06346e-07 7.32891e-09 -2.01673e-10)
(3.67082e-09 2.10014e-07 -1.03356e-10)
(-3.91839e-12 -1.40739e-12 1.12998e-07)
(2.02677e-07 1.09903e-08 -2.94991e-10)
(3.67086e-09 2.10015e-07 -1.02104e-10)
(-6.68941e-12 -1.60904e-12 1.10986e-07)
(1.9901e-07 1.46518e-08 -3.85183e-10)
(3.66888e-09 2.10023e-07 -1.01031e-10)
(-9.91778e-12 -1.95768e-12 1.08979e-07)
(1.95347e-07 1.83139e-08 -4.74273e-10)
(3.66658e-09 2.10041e-07 -1.00531e-10)
(-1.39104e-11 -2.50938e-12 1.0698e-07)
(1.91686e-07 2.19766e-08 -5.6396e-10)
(3.66384e-09 2.10068e-07 -1.00737e-10)
(-1.89822e-11 -3.33664e-12 1.04987e-07)
(1.88031e-07 2.56402e-08 -6.55648e-10)
(3.66026e-09 2.10106e-07 -1.01838e-10)
(-2.54806e-11 -4.5422e-12 1.03001e-07)
(1.8438e-07 2.93051e-08 -7.50284e-10)
(3.65563e-09 2.10153e-07 -1.04089e-10)
(-3.37131e-11 -6.23851e-12 1.01022e-07)
(1.80735e-07 3.29721e-08 -8.48092e-10)
(3.64959e-09 2.10207e-07 -1.0779e-10)
(-4.38877e-11 -8.47566e-12 9.90498e-08)
(3.64926e-09 2.10267e-07 -1.12242e-10)
(-5.6435e-11 -1.07753e-11 9.70834e-08)
(1.77089e-07 3.66494e-08 -9.49057e-10)
(2.10014e-07 3.67053e-09 -1.03066e-10)
(7.32845e-09 2.06346e-07 -2.01853e-10)
(-1.41068e-12 -3.91057e-12 1.12997e-07)
(2.0635e-07 7.33643e-09 -2.02302e-10)
(7.33595e-09 2.06349e-07 -2.02621e-10)
(-4.01069e-12 -4.0007e-12 1.10992e-07)
(2.02684e-07 1.09979e-08 -2.97412e-10)
(7.3383e-09 2.06354e-07 -2.01635e-10)
(-6.7978e-12 -4.20879e-12 1.08985e-07)
(1.99019e-07 1.46585e-08 -3.8948e-10)
(7.33622e-09 2.06363e-07 -2.00388e-10)
(-1.00384e-11 -4.57315e-12 1.0698e-07)
(1.95356e-07 1.83201e-08 -4.80235e-10)
(7.33189e-09 2.0638e-07 -1.99929e-10)
(-1.4032e-11 -5.13903e-12 1.04981e-07)
(1.91697e-07 2.1983e-08 -5.7139e-10)
(7.32654e-09 2.06406e-07 -2.00775e-10)
(-1.90838e-11 -5.9728e-12 1.02989e-07)
(1.88043e-07 2.56477e-08 -6.6436e-10)
(7.31946e-09 2.06442e-07 -2.03325e-10)
(-2.55196e-11 -7.14409e-12 1.01003e-07)
(1.84392e-07 2.93156e-08 -7.60026e-10)
(7.31052e-09 2.06486e-07 -2.08051e-10)
(-3.35819e-11 -8.67042e-12 9.90241e-08)
(1.80747e-07 3.29878e-08 -8.585e-10)
(7.29959e-09 2.06536e-07 -2.1539e-10)
(-4.33795e-11 -1.04725e-11 9.70508e-08)
(7.30213e-09 2.06589e-07 -2.23598e-10)
(-5.46857e-11 -1.21393e-11 9.50782e-08)
(1.77097e-07 3.66663e-08 -9.586e-10)
(2.10014e-07 3.67011e-09 -1.01973e-10)
(1.09901e-08 2.02677e-07 -2.94962e-10)
(-1.60714e-12 -6.68979e-12 1.10985e-07)
(2.06354e-07 7.33778e-09 -2.0132e-10)
(1.09972e-08 2.02683e-07 -2.97514e-10)
(-4.21333e-12 -6.79023e-12 1.08984e-07)
(2.02693e-07 1.10017e-08 -2.97834e-10)
(1.10011e-08 2.02692e-07 -2.98119e-10)
(-7.02835e-12 -7.01604e-12 1.06983e-07)
(1.9903e-07 1.46627e-08 -3.91871e-10)
(1.10008e-08 2.02704e-07 -2.97908e-10)
(-1.02892e-11 -7.40773e-12 1.04982e-07)
(1.95369e-07 1.83238e-08 -4.8446e-10)
(1.0996e-08 2.02721e-07 -2.98199e-10)
(-1.42821e-11 -8.00558e-12 1.02984e-07)
(1.91711e-07 2.19868e-08 -5.77111e-10)
(1.09881e-08 2.02745e-07 -3.00121e-10)
(-1.93094e-11 -8.86681e-12 1.00992e-07)
(1.88057e-07 2.56523e-08 -6.71203e-10)
(1.09778e-08 2.02778e-07 -3.04436e-10)
(-2.56526e-11 -1.00531e-11 9.90059e-08)
(1.84407e-07 2.93215e-08 -7.67459e-10)
(1.09651e-08 2.02819e-07 -3.11753e-10)
(-3.34682e-11 -1.15687e-11 9.70257e-08)
(1.80761e-07 3.29951e-08 -8.65921e-10)
(1.09497e-08 2.02864e-07 -3.22625e-10)
(-4.28098e-11 -1.33616e-11 9.50505e-08)
(1.0957e-08 2.02912e-07 -3.34182e-10)
(-5.30423e-11 -1.50041e-11 9.30739e-08)
(1.77109e-07 3.66729e-08 -9.65128e-10)
(2.10023e-07 3.66866e-09 -1.0105e-10)
(1.46519e-08 1.99011e-07 -3.85111e-10)
(-1.95336e-12 -9.92507e-12 1.08979e-07)
(2.06363e-07 7.33538e-09 -2.00273e-10)
(1.46582e-08 1.99019e-07 -3.89437e-10)
(-4.56942e-12 -1.00423e-11 1.0698e-07)
(2.02704e-07 1.10003e-08 -2.97621e-10)
(1.46619e-08 1.99029e-07 -3.91969e-10)
(-7.41266e-12 -1.02826e-11 1.04981e-07)
(1.99044e-07 1.46631e-08 -3.93282e-10)
(1.46626e-08 1.99043e-07 -3.93562e-10)
(-1.07065e-11 -1.06933e-11 1.02984e-07)
(1.95384e-07 1.83245e-08 -4.87731e-10)
(1.46589e-08 1.99062e-07 -3.95282e-10)
(-1.47077e-11 -1.13242e-11 1.00988e-07)
(1.91726e-07 2.19872e-08 -5.81922e-10)
(1.46499e-08 1.99085e-07 -3.98498e-10)
(-1.97124e-11 -1.22272e-11 9.89951e-08)
(1.88071e-07 2.56529e-08 -6.77016e-10)
(1.46363e-08 1.99115e-07 -4.04552e-10)
(-2.598e-11 -1.34693e-11 9.70079e-08)
(1.84421e-07 2.93223e-08 -7.73659e-10)
(1.46198e-08 1.99151e-07 -4.14373e-10)
(-3.36079e-11 -1.50987e-11 9.50259e-08)
(1.80774e-07 3.29956e-08 -8.71918e-10)
(1.46004e-08 1.99192e-07 -4.28554e-10)
(-4.26214e-11 -1.71218e-11 9.30485e-08)
(1.46132e-08 1.99237e-07 -4.43069e-10)
(-5.1864e-11 -1.89618e-11 9.10687e-08)
(1.77121e-07 3.66725e-08 -9.70279e-10)
(2.10041e-07 3.66659e-09 -1.00584e-10)
(1.83139e-08 1.95347e-07 -4.74225e-10)
(-2.50589e-12 -1.3919e-11 1.0698e-07)
(2.0638e-07 7.33162e-09 -1.99981e-10)
(1.83201e-08 1.95357e-07 -4.8019e-10)
(-5.13114e-12 -1.40398e-11 1.04981e-07)
(2.0272e-07 1.09952e-08 -2.98106e-10)
(1.83236e-08 1.95369e-07 -4.84446e-10)
(-7.99742e-12 -1.42828e-11 1.02983e-07)
(1.99061e-07 1.46584e-08 -3.94996e-10)
(1.83237e-08 1.95383e-07 -4.8785e-10)
(-1.13294e-11 -1.46955e-11 1.00987e-07)
(1.95402e-07 1.83212e-08 -4.91024e-10)
(1.83205e-08 1.95402e-07 -4.91339e-10)
(-1.53617e-11 -1.53432e-11 9.89925e-08)
(1.91744e-07 2.19836e-08 -5.86771e-10)
(1.83121e-08 1.95425e-07 -4.96076e-10)
(-2.03738e-11 -1.63019e-11 9.70001e-08)
(1.88087e-07 2.56483e-08 -6.82871e-10)
(1.82969e-08 1.95453e-07 -5.03599e-10)
(-2.65949e-11 -1.76287e-11 9.50108e-08)
(1.84435e-07 2.93174e-08 -7.79785e-10)
(1.82759e-08 1.95485e-07 -5.1543e-10)
(-3.4138e-11 -1.93949e-11 9.30259e-08)
(1.80787e-07 3.29908e-08 -8.77684e-10)
(1.82521e-08 1.95521e-07 -5.32462e-10)
(-4.29847e-11 -2.16715e-11 9.10458e-08)
(1.82706e-08 1.95561e-07 -5.49523e-10)
(-5.12337e-11 -2.36732e-11 8.90628e-08)
(1.77132e-07 3.66677e-08 -9.75073e-10)
(2.10068e-07 3.66384e-09 -1.00789e-10)
(2.19766e-08 1.91687e-07 -5.6394e-10)
(-3.33348e-12 -1.89881e-11 1.04987e-07)
(2.06406e-07 7.32655e-09 -2.00868e-10)
(2.1983e-08 1.91698e-07 -5.71373e-10)
(-5.96333e-12 -1.90889e-11 1.02989e-07)
(2.02745e-07 1.09878e-08 -3.00191e-10)
(2.19868e-08 1.91711e-07 -5.77093e-10)
(-8.85275e-12 -1.93135e-11 1.00992e-07)
(1.99084e-07 1.46489e-08 -3.98421e-10)
(2.19869e-08 1.91726e-07 -5.81939e-10)
(-1.22228e-11 -1.97137e-11 9.89946e-08)
(1.95425e-07 1.83114e-08 -4.9575e-10)
(2.19826e-08 1.91743e-07 -5.86947e-10)
(-1.63076e-11 -2.03604e-11 9.69992e-08)
(1.91766e-07 2.19752e-08 -5.92795e-10)
(2.1974e-08 1.91765e-07 -5.93226e-10)
(-2.13596e-11 -2.13358e-11 9.50068e-08)
(1.88107e-07 2.56395e-08 -6.8991e-10)
(2.19595e-08 1.91792e-07 -6.02041e-10)
(-2.75732e-11 -2.27159e-11 9.30163e-08)
(1.84451e-07 2.93074e-08 -7.87041e-10)
(2.19357e-08 1.91819e-07 -6.1514e-10)
(-3.50865e-11 -2.45742e-11 9.10277e-08)
(1.80799e-07 3.29814e-08 -8.8421e-10)
(2.19069e-08 1.91849e-07 -6.34011e-10)
(-4.38385e-11 -2.69483e-11 8.90428e-08)
(2.1929e-08 1.91883e-07 -6.52899e-10)
(-5.10596e-11 -2.88789e-11 8.70557e-08)
(1.77142e-07 3.666e-08 -9.80151e-10)
(2.10106e-07 3.66027e-09 -1.01887e-10)
(2.56403e-08 1.88031e-07 -6.55658e-10)
(-4.53856e-12 -2.54842e-11 1.03001e-07)
(2.06442e-07 7.31947e-09 -2.03416e-10)
(2.56477e-08 1.88043e-07 -6.64371e-10)
(-7.13343e-12 -2.55222e-11 1.01003e-07)
(2.02778e-07 1.09778e-08 -3.0456e-10)
(2.56524e-08 1.88057e-07 -6.71208e-10)
(-1.00385e-11 -2.56542e-11 9.9006e-08)
(1.99114e-07 1.46359e-08 -4.04678e-10)
(2.5653e-08 1.88072e-07 -6.77008e-10)
(-1.34594e-11 -2.59793e-11 9.70078e-08)
(1.95452e-07 1.82955e-08 -5.03538e-10)
(2.56482e-08 1.88087e-07 -6.8287e-10)
(-1.76136e-11 -2.65835e-11 9.501e-08)
(1.9179e-07 2.19587e-08 -6.01573e-10)
(2.56382e-08 1.88105e-07 -6.90057e-10)
(-2.27044e-11 -2.75234e-11 9.30147e-08)
(1.8813e-07 2.56243e-08 -6.99367e-10)
(2.56231e-08 1.88129e-07 -6.99783e-10)
(-2.89417e-11 -2.88719e-11 9.10224e-08)
(1.84469e-07 2.92932e-08 -7.96436e-10)
(2.56002e-08 1.88153e-07 -7.1343e-10)
(-3.63244e-11 -3.05974e-11 8.903e-08)
(1.80809e-07 3.29691e-08 -8.92186e-10)
(2.55685e-08 1.88175e-07 -7.32623e-10)
(-4.48664e-11 -3.26564e-11 8.70381e-08)
(2.55886e-08 1.88201e-07 -7.52137e-10)
(-5.10941e-11 -3.41315e-11 8.50451e-08)
(1.7715e-07 3.66515e-08 -9.85769e-10)
(2.10153e-07 3.65566e-09 -1.04133e-10)
(2.93051e-08 1.8438e-07 -7.50326e-10)
(-6.23414e-12 -3.37148e-11 1.01022e-07)
(2.06486e-07 7.31057e-09 -2.08135e-10)
(2.93156e-08 1.84392e-07 -7.60065e-10)
(-8.6581e-12 -3.35824e-11 9.90243e-08)
(2.02819e-07 1.09652e-08 -3.11872e-10)
(2.93216e-08 1.84407e-07 -7.67481e-10)
(-1.15516e-11 -3.34657e-11 9.70259e-08)
(1.99151e-07 1.462e-08 -4.14538e-10)
(2.93225e-08 1.84421e-07 -7.73644e-10)
(-1.50798e-11 -3.35983e-11 9.5026e-08)
(1.95484e-07 1.82757e-08 -5.15582e-10)
(2.93179e-08 1.84435e-07 -7.79697e-10)
(-1.93643e-11 -3.41163e-11 9.30257e-08)
(1.91817e-07 2.19346e-08 -6.14907e-10)
(2.93076e-08 1.8445e-07 -7.86863e-10)
(-2.44982e-11 -3.50244e-11 9.1026e-08)
(1.88151e-07 2.55996e-08 -7.12946e-10)
(2.92919e-08 1.84467e-07 -7.96353e-10)
(-3.06351e-11 -3.62215e-11 8.90283e-08)
(1.84482e-07 2.92723e-08 -8.08998e-10)
(2.92712e-08 1.84483e-07 -8.09181e-10)
(-3.75314e-11 -3.74173e-11 8.70291e-08)
(1.80813e-07 3.29528e-08 -9.02137e-10)
(2.92386e-08 1.84495e-07 -8.26856e-10)
(-4.55624e-11 -3.85792e-11 8.50281e-08)
(2.92517e-08 1.8451e-07 -8.45391e-10)
(-5.07624e-11 -3.89016e-11 8.30267e-08)
(1.77149e-07 3.66432e-08 -9.9177e-10)
(2.10207e-07 3.64962e-09 -1.07826e-10)
(3.29721e-08 1.80735e-07 -8.48162e-10)
(-8.47084e-12 -4.38882e-11 9.905e-08)
(2.06536e-07 7.29966e-09 -2.15458e-10)
(3.29879e-08 1.80747e-07 -8.58566e-10)
(-1.04593e-11 -4.33798e-11 9.7051e-08)
(2.02864e-07 1.09498e-08 -3.22716e-10)
(3.29953e-08 1.80761e-07 -8.65967e-10)
(-1.33427e-11 -4.28093e-11 9.50506e-08)
(1.99192e-07 1.46007e-08 -4.28661e-10)
(3.29959e-08 1.80774e-07 -8.71922e-10)
(-1.70979e-11 -4.26195e-11 9.30486e-08)
(1.95521e-07 1.82526e-08 -5.32577e-10)
(3.29912e-08 1.80787e-07 -8.77618e-10)
(-2.16363e-11 -4.29795e-11 9.10459e-08)
(1.91849e-07 2.19068e-08 -6.33935e-10)
(3.2982e-08 1.80799e-07 -8.84029e-10)
(-2.68664e-11 -4.384e-11 8.90424e-08)
(1.88173e-07 2.55672e-08 -7.32357e-10)
(3.29687e-08 1.80809e-07 -8.91978e-10)
(-3.26904e-11 -4.4895e-11 8.70374e-08)
(1.84494e-07 2.9238e-08 -8.26614e-10)
(3.29518e-08 1.80813e-07 -9.02089e-10)
(-3.86711e-11 -4.55634e-11 8.50276e-08)
(1.80808e-07 3.29242e-08 -9.15437e-10)
(3.29238e-08 1.80808e-07 -9.15554e-10)
(-4.52647e-11 -4.5222e-11 8.30123e-08)
(3.29292e-08 1.80794e-07 -9.29699e-10)
(-4.81804e-11 -4.22875e-11 8.09912e-08)
(1.77128e-07 3.66376e-08 -9.97503e-10)
(2.10267e-07 3.64929e-09 -1.1227e-10)
(-1.07706e-11 -5.6434e-11 9.70835e-08)
(3.66494e-08 1.77089e-07 -9.49135e-10)
(2.06589e-07 7.30219e-09 -2.23647e-10)
(-1.21272e-11 -5.46858e-11 9.50783e-08)
(3.66664e-08 1.77097e-07 -9.58674e-10)
(2.02913e-07 1.0957e-08 -3.34241e-10)
(-1.49876e-11 -5.30448e-11 9.3074e-08)
(3.6673e-08 1.77109e-07 -9.65185e-10)
(1.99237e-07 1.46133e-08 -4.43127e-10)
(-1.89429e-11 -5.18712e-11 9.10688e-08)
(3.66727e-08 1.77121e-07 -9.70306e-10)
(1.95561e-07 1.82706e-08 -5.49559e-10)
(-2.36501e-11 -5.12517e-11 8.90629e-08)
(3.66679e-08 1.77132e-07 -9.75058e-10)
(1.91884e-07 2.19287e-08 -6.52867e-10)
(-2.88462e-11 -5.11076e-11 8.70559e-08)
(3.66602e-08 1.77142e-07 -9.80088e-10)
(1.88201e-07 2.55882e-08 -7.52082e-10)
(-3.41608e-11 -5.11595e-11 8.50453e-08)
(3.66515e-08 1.7715e-07 -9.85679e-10)
(1.84509e-07 2.92511e-08 -8.45286e-10)
(-3.89189e-11 -5.07763e-11 8.30265e-08)
(3.66432e-08 1.77149e-07 -9.91681e-10)
(1.80793e-07 3.29292e-08 -9.29527e-10)
(-4.22809e-11 -4.81117e-11 8.09905e-08)
(3.66374e-08 1.77127e-07 -9.97429e-10)
(-4.20705e-11 -4.19796e-11 7.89412e-08)
(1.77086e-07 3.66327e-08 -1.00232e-09)
(3.6632e-08 1.77087e-07 -1.00233e-09)
(2.10154e-07 3.66747e-09 -6.79345e-11)
(3.66711e-09 2.10152e-07 -6.81286e-11)
(-8.06859e-13 -8.0431e-13 1.15146e-07)
(2.06477e-07 7.33088e-09 -1.31454e-10)
(3.67542e-09 2.10147e-07 -6.76117e-11)
(-2.38053e-12 -8.58306e-13 1.1313e-07)
(2.02798e-07 1.09914e-08 -1.8948e-10)
(3.67588e-09 2.1014e-07 -6.61154e-11)
(-4.00617e-12 -9.70614e-13 1.1111e-07)
(1.99121e-07 1.46519e-08 -2.42235e-10)
(3.67329e-09 2.1014e-07 -6.43975e-11)
(-5.80409e-12 -1.15827e-12 1.09097e-07)
(1.95444e-07 1.83124e-08 -2.89922e-10)
(3.67025e-09 2.10149e-07 -6.26759e-11)
(-7.87397e-12 -1.44032e-12 1.0709e-07)
(1.91769e-07 2.19731e-08 -3.32342e-10)
(3.66658e-09 2.10166e-07 -6.09618e-11)
(-1.02655e-11 -1.83343e-12 1.0509e-07)
(1.88095e-07 2.56338e-08 -3.68834e-10)
(3.66178e-09 2.10189e-07 -5.92629e-11)
(-1.29664e-11 -2.35177e-12 1.03096e-07)
(1.84421e-07 2.92943e-08 -3.98177e-10)
(3.65557e-09 2.10215e-07 -5.75815e-11)
(-1.58354e-11 -2.98734e-12 1.01109e-07)
(1.80749e-07 3.29551e-08 -4.18487e-10)
(3.64751e-09 2.1024e-07 -5.58914e-11)
(-1.85456e-11 -3.6678e-12 9.9126e-08)
(3.64762e-09 2.10256e-07 -5.36385e-11)
(-2.06822e-11 -4.09324e-12 9.71458e-08)
(1.77065e-07 3.66252e-08 -4.27305e-10)
(2.10147e-07 3.675e-09 -6.74237e-11)
(7.33019e-09 2.06476e-07 -1.31568e-10)
(-8.59341e-13 -2.37862e-12 1.13128e-07)
(2.06478e-07 7.34297e-09 -1.31205e-10)
(7.34225e-09 2.06478e-07 -1.3141e-10)
(-2.42558e-12 -2.42232e-12 1.11119e-07)
(2.02805e-07 1.10041e-08 -1.90097e-10)
(7.34651e-09 2.06477e-07 -1.29455e-10)
(-4.0524e-12 -2.52297e-12 1.09107e-07)
(1.9913e-07 1.46634e-08 -2.43775e-10)
(7.34414e-09 2.06479e-07 -1.26661e-10)
(-5.84697e-12 -2.69493e-12 1.07096e-07)
(1.95456e-07 1.83235e-08 -2.9224e-10)
(7.33848e-09 2.06487e-07 -1.23628e-10)
(-7.90412e-12 -2.94852e-12 1.05091e-07)
(1.91782e-07 2.19846e-08 -3.353e-10)
(7.33139e-09 2.06502e-07 -1.20537e-10)
(-1.02698e-11 -3.29462e-12 1.03091e-07)
(1.88109e-07 2.56468e-08 -3.72313e-10)
(7.32194e-09 2.06523e-07 -1.17419e-10)
(-1.29258e-11 -3.73113e-12 1.01098e-07)
(1.84437e-07 2.93113e-08 -4.02073e-10)
(7.31001e-09 2.06546e-07 -1.14277e-10)
(-1.5712e-11 -4.21187e-12 9.91106e-08)
(1.80764e-07 3.29789e-08 -4.22769e-10)
(7.2955e-09 2.06566e-07 -1.11007e-10)
(-1.82879e-11 -4.63163e-12 9.71267e-08)
(7.29998e-09 2.06577e-07 -1.0645e-10)
(-2.00609e-11 -4.75858e-12 9.51403e-08)
(1.77077e-07 3.66503e-08 -4.31993e-10)
(2.10139e-07 3.67477e-09 -6.60321e-11)
(1.09912e-08 2.02798e-07 -1.89452e-10)
(-9.68626e-13 -4.01011e-12 1.11109e-07)
(2.06477e-07 7.34574e-09 -1.29256e-10)
(1.1003e-08 2.02804e-07 -1.90158e-10)
(-2.52309e-12 -4.05154e-12 1.09106e-07)
(2.0281e-07 1.10108e-08 -1.88485e-10)
(1.101e-08 2.0281e-07 -1.88662e-10)
(-4.14889e-12 -4.14512e-12 1.07101e-07)
(1.99139e-07 1.46711e-08 -2.42912e-10)
(1.10107e-08 2.02816e-07 -1.85654e-10)
(-5.9334e-12 -4.30436e-12 1.05095e-07)
(1.95467e-07 1.83308e-08 -2.9209e-10)
(1.10046e-08 2.02824e-07 -1.81861e-10)
(-7.96318e-12 -4.53399e-12 1.03091e-07)
(1.91795e-07 2.19922e-08 -3.357e-10)
(1.09942e-08 2.02837e-07 -1.77777e-10)
(-1.02838e-11 -4.83642e-12 1.01093e-07)
(1.88124e-07 2.56556e-08 -3.73113e-10)
(1.09806e-08 2.02855e-07 -1.73555e-10)
(-1.28611e-11 -5.20155e-12 9.90994e-08)
(1.84452e-07 2.93221e-08 -4.03135e-10)
(1.09637e-08 2.02874e-07 -1.69158e-10)
(-1.55104e-11 -5.57383e-12 9.71106e-08)
(1.80779e-07 3.29918e-08 -4.24066e-10)
(1.09434e-08 2.02889e-07 -1.64428e-10)
(-1.79033e-11 -5.85646e-12 9.51248e-08)
(1.09546e-08 2.02897e-07 -1.57665e-10)
(-1.93615e-11 -5.81145e-12 9.31349e-08)
(1.77091e-07 3.66627e-08 -4.3383e-10)
(2.1014e-07 3.67296e-09 -6.44115e-11)
(1.46519e-08 1.99121e-07 -2.42172e-10)
(-1.15481e-12 -5.81208e-12 1.09096e-07)
(2.06478e-07 7.34291e-09 -1.26592e-10)
(1.4663e-08 1.9913e-07 -2.43735e-10)
(-2.69007e-12 -5.85263e-12 1.07095e-07)
(2.02815e-07 1.10098e-08 -1.85479e-10)
(1.46699e-08 1.99138e-07 -2.42968e-10)
(-4.30391e-12 -5.93279e-12 1.05094e-07)
(1.99149e-07 1.46732e-08 -2.40159e-10)
(1.46724e-08 1.99148e-07 -2.40327e-10)
(-6.0719e-12 -6.06744e-12 1.03093e-07)
(1.95478e-07 1.83336e-08 -2.8983e-10)
(1.46684e-08 1.99158e-07 -2.36326e-10)
(-8.06209e-12 -6.26293e-12 1.01092e-07)
(1.91806e-07 2.19947e-08 -3.33837e-10)
(1.46568e-08 1.9917e-07 -2.31538e-10)
(-1.03173e-11 -6.51399e-12 9.90929e-08)
(1.88135e-07 2.56587e-08 -3.71451e-10)
(1.4639e-08 1.99184e-07 -2.26364e-10)
(-1.27962e-11 -6.80624e-12 9.70983e-08)
(1.84463e-07 2.93259e-08 -4.01505e-10)
(1.46172e-08 1.99199e-07 -2.20841e-10)
(-1.52985e-11 -7.09442e-12 9.51077e-08)
(1.80789e-07 3.29957e-08 -4.22415e-10)
(1.45917e-08 1.99209e-07 -2.14717e-10)
(-1.7509e-11 -7.29195e-12 9.31197e-08)
(1.46106e-08 1.99215e-07 -2.05851e-10)
(-1.86195e-11 -7.09771e-12 9.1127e-08)
(1.771e-07 3.66662e-08 -4.32566e-10)
(2.10149e-07 3.67025e-09 -6.27104e-11)
(1.83124e-08 1.95445e-07 -2.89869e-10)
(-1.43714e-12 -7.8819e-12 1.0709e-07)
(2.06487e-07 7.33807e-09 -1.23663e-10)
(1.83235e-08 1.95456e-07 -2.92194e-10)
(-2.94073e-12 -7.91111e-12 1.05091e-07)
(2.02823e-07 1.10034e-08 -1.8181e-10)
(1.83304e-08 1.95467e-07 -2.92072e-10)
(-4.52574e-12 -7.96542e-12 1.03091e-07)
(1.99158e-07 1.46677e-08 -2.3616e-10)
(1.83324e-08 1.95477e-07 -2.89901e-10)
(-6.263e-12 -8.05695e-12 1.01091e-07)
(1.95489e-07 1.83305e-08 -2.85849e-10)
(1.83295e-08 1.95488e-07 -2.86033e-10)
(-8.20399e-12 -8.19555e-12 9.90919e-08)
(1.91817e-07 2.19917e-08 -3.29992e-10)
(1.83192e-08 1.95501e-07 -2.8084e-10)
(-1.03822e-11 -8.38251e-12 9.70936e-08)
(1.88143e-07 2.56546e-08 -3.67576e-10)
(1.82995e-08 1.95512e-07 -2.74757e-10)
(-1.27425e-11 -8.59146e-12 9.50968e-08)
(1.84469e-07 2.93217e-08 -3.97352e-10)
(1.82719e-08 1.95521e-07 -2.68043e-10)
(-1.50955e-11 -8.77442e-12 9.31029e-08)
(1.80794e-07 3.29921e-08 -4.17846e-10)
(1.82408e-08 1.95526e-07 -2.60484e-10)