/*--------------------------------*- C++ -*----------------------------------*\
| =========                 |                                                 |
| \\      /  F ield         | foam-extend: Open Source CFD                    |
|  \\    /   O peration     | Version:     3.1                                |
|   \\  /    A nd           | Web:         http://www.extend-project.de       |
|    \\/     M anipulation  |                                                 |
\*---------------------------------------------------------------------------*/
FoamFile
{
    version     2.0;
    format      ascii;
    class       surfaceVectorField;
    location    "0.0003";
    object      Sf_0;
}
// * * * * * * * * * * * * * * * * * * * * * * * * * * * * * * * * * * * * * //

dimensions      [0 2 0 0 0 0 0];

internalField   nonuniform List<vector> 
45800
(
(2.09769e-07 3.66304e-09 -6.84423e-11)
(3.66299e-09 2.09769e-07 -6.86298e-11)
(-4.16194e-13 -4.13778e-13 1.1469e-07)
(2.06106e-07 7.32561e-09 -1.3427e-10)
(3.66394e-09 2.0977e-07 -6.8653e-11)
(-1.24978e-12 -4.47405e-13 1.12687e-07)
(2.02445e-07 1.09879e-08 -1.98095e-10)
(3.66389e-09 2.09772e-07 -6.82243e-11)
(-2.17599e-12 -5.20238e-13 1.10684e-07)
(1.98784e-07 1.46504e-08 -2.61853e-10)
(3.66346e-09 2.09777e-07 -6.81269e-11)
(-3.3191e-12 -6.4956e-13 1.08683e-07)
(1.95126e-07 1.83132e-08 -3.27686e-10)
(3.66296e-09 2.09786e-07 -6.86596e-11)
(-4.82655e-12 -8.62094e-13 1.06685e-07)
(1.91471e-07 2.19766e-08 -3.97739e-10)
(3.66238e-09 2.09799e-07 -6.99758e-11)
(-6.87756e-12 -1.19674e-12 1.0469e-07)
(1.87819e-07 2.56408e-08 -4.74285e-10)
(3.66164e-09 2.09818e-07 -7.23051e-11)
(-9.70941e-12 -1.71417e-12 1.02699e-07)
(1.84172e-07 2.93062e-08 -5.59689e-10)
(3.66067e-09 2.09843e-07 -7.59686e-11)
(-1.36133e-11 -2.49527e-12 1.00711e-07)
(1.80531e-07 3.29737e-08 -6.56292e-10)
(3.65942e-09 2.09878e-07 -8.13852e-11)
(-1.8942e-11 -3.6198e-12 9.87265e-08)
(3.65938e-09 2.09923e-07 -8.82459e-11)
(-2.63003e-11 -4.95028e-12 9.6747e-08)
(1.76898e-07 3.66463e-08 -7.67092e-10)
(2.0977e-07 3.66389e-09 -6.84704e-11)
(7.32552e-09 2.06106e-07 -1.34372e-10)
(-4.4892e-13 -1.24582e-12 1.12687e-07)
(2.06108e-07 7.32692e-09 -1.35079e-10)
(7.32683e-09 2.06108e-07 -1.35274e-10)
(-1.28897e-12 -1.28432e-12 1.10685e-07)
(2.02447e-07 1.09892e-08 -2.00283e-10)
(7.32716e-09 2.06111e-07 -1.35403e-10)
(-2.22665e-12 -1.3719e-12 1.08684e-07)
(1.98787e-07 1.46514e-08 -2.65482e-10)
(7.32666e-09 2.06116e-07 -1.35781e-10)
(-3.38049e-12 -1.52536e-12 1.06684e-07)
(1.95129e-07 1.83141e-08 -3.32631e-10)
(7.32572e-09 2.06125e-07 -1.37182e-10)
(-4.89565e-12 -1.76839e-12 1.04686e-07)
(1.91474e-07 2.19775e-08 -4.03887e-10)
(7.32458e-09 2.06138e-07 -1.40083e-10)
(-6.94745e-12 -2.13854e-12 1.02691e-07)
(1.87822e-07 2.56419e-08 -4.81521e-10)
(7.32309e-09 2.06156e-07 -1.44957e-10)
(-9.7624e-12 -2.68338e-12 1.00699e-07)
(1.84175e-07 2.9308e-08 -5.67808e-10)
(7.32123e-09 2.06181e-07 -1.52404e-10)
(-1.35991e-11 -3.44215e-12 9.87112e-08)
(1.80535e-07 3.29767e-08 -6.64894e-10)
(7.31896e-09 2.06213e-07 -1.63107e-10)
(-1.87509e-11 -4.42688e-12 9.67267e-08)
(7.31961e-09 2.06255e-07 -1.76077e-10)
(-2.54746e-11 -5.5052e-12 9.47446e-08)
(1.769e-07 3.66495e-08 -7.74332e-10)
(2.09772e-07 3.66375e-09 -6.81471e-11)
(1.09879e-08 2.02445e-07 -1.98055e-10)
(-5.19992e-13 -2.17414e-12 1.10684e-07)
(2.06111e-07 7.32706e-09 -1.3521e-10)
(1.0989e-08 2.02447e-07 -2.00328e-10)
(-1.37467e-12 -2.22217e-12 1.08684e-07)
(2.02451e-07 1.09897e-08 -2.01707e-10)
(1.09896e-08 2.02451e-07 -2.01876e-10)
(-2.33412e-12 -2.32809e-12 1.06684e-07)
(1.98792e-07 1.4652e-08 -2.68566e-10)
(1.09894e-08 2.02457e-07 -2.03505e-10)
(-3.50828e-12 -2.51021e-12 1.04685e-07)
(1.95134e-07 1.83146e-08 -3.37273e-10)
(1.09883e-08 2.02465e-07 -2.06212e-10)
(-5.03845e-12 -2.7915e-12 1.02687e-07)
(1.91479e-07 2.19779e-08 -4.09847e-10)
(1.09866e-08 2.02478e-07 -2.10956e-10)
(-7.09856e-12 -3.20777e-12 1.00693e-07)
(1.87827e-07 2.56425e-08 -4.88511e-10)
(1.09845e-08 2.02495e-07 -2.18548e-10)
(-9.89536e-12 -3.80581e-12 9.87008e-08)
(1.84181e-07 2.93088e-08 -5.75344e-10)
(1.09818e-08 2.02519e-07 -2.29808e-10)
(-1.36447e-11 -4.62186e-12 9.67122e-08)
(1.80539e-07 3.29778e-08 -6.72308e-10)
(1.09786e-08 2.0255e-07 -2.45644e-10)
(-1.85959e-11 -5.6829e-12 9.47268e-08)
(1.09804e-08 2.0259e-07 -2.64228e-10)
(-2.47733e-11 -6.8507e-12 9.27429e-08)
(1.76903e-07 3.66502e-08 -7.80311e-10)
(2.09777e-07 3.66341e-09 -6.81492e-11)
(1.46504e-08 1.98784e-07 -2.61783e-10)
(-6.48485e-13 -3.31946e-12 1.08683e-07)
(2.06116e-07 7.32649e-09 -1.35721e-10)
(1.46514e-08 1.98787e-07 -2.6543e-10)
(-1.5253e-12 -3.37974e-12 1.06684e-07)
(2.02456e-07 1.09893e-08 -2.03333e-10)
(1.46519e-08 1.98791e-07 -2.68606e-10)
(-2.51361e-12 -3.50397e-12 1.04685e-07)
(1.98798e-07 1.46519e-08 -2.71807e-10)
(1.46518e-08 1.98798e-07 -2.71972e-10)
(-3.72062e-12 -3.71401e-12 1.02687e-07)
(1.95141e-07 1.83145e-08 -3.42263e-10)
(1.46509e-08 1.98807e-07 -2.76399e-10)
(-5.27856e-12 -4.03811e-12 1.0069e-07)
(1.91486e-07 2.19777e-08 -4.16337e-10)
(1.46489e-08 1.98819e-07 -2.83077e-10)
(-7.35966e-12 -4.51263e-12 9.86947e-08)
(1.87834e-07 2.56423e-08 -4.96081e-10)
(1.46461e-08 1.98836e-07 -2.93314e-10)
(-1.0161e-11 -5.19071e-12 9.67024e-08)
(1.84187e-07 2.93086e-08 -5.83464e-10)
(1.46426e-08 1.98859e-07 -3.08273e-10)
(-1.38697e-11 -6.13336e-12 9.47132e-08)
(1.80546e-07 3.29774e-08 -6.80375e-10)
(1.46386e-08 1.98889e-07 -3.29023e-10)
(-1.87094e-11 -7.40327e-12 9.2727e-08)
(1.46418e-08 1.98927e-07 -3.52785e-10)
(-2.44231e-11 -8.8014e-12 9.07415e-08)
(1.76909e-07 3.66493e-08 -7.87249e-10)
(2.09786e-07 3.66296e-09 -6.87042e-11)
(1.83132e-08 1.95126e-07 -3.27634e-10)
(-8.61306e-13 -4.82758e-12 1.06685e-07)
(2.06125e-07 7.32566e-09 -1.37233e-10)
(1.83141e-08 1.95129e-07 -3.32579e-10)
(-1.76699e-12 -4.89656e-12 1.04686e-07)
(2.02465e-07 1.09882e-08 -2.0617e-10)
(1.83145e-08 1.95134e-07 -3.37236e-10)
(-2.79035e-12 -5.03706e-12 1.02687e-07)
(1.98807e-07 1.46508e-08 -2.76227e-10)
(1.83143e-08 1.9514e-07 -3.42314e-10)
(-4.04173e-12 -5.27261e-12 1.0069e-07)
(1.9515e-07 1.83136e-08 -3.48463e-10)
(1.83135e-08 1.95149e-07 -3.48655e-10)
(-5.64813e-12 -5.63983e-12 9.8693e-08)
(1.91495e-07 2.19768e-08 -4.24271e-10)
(1.83116e-08 1.95162e-07 -3.57372e-10)
(-7.77699e-12 -6.18792e-12 9.6698e-08)
(1.87843e-07 2.56411e-08 -5.05317e-10)
(1.83084e-08 1.95179e-07 -3.69999e-10)
(-1.06148e-11 -6.97092e-12 9.4705e-08)
(1.84196e-07 2.93074e-08 -5.93426e-10)
(1.8304e-08 1.95201e-07 -3.88246e-10)
(-1.43556e-11 -8.06866e-12 9.27148e-08)
(1.80555e-07 3.29761e-08 -6.90521e-10)
(1.82991e-08 1.9523e-07 -4.13543e-10)
(-1.91993e-11 -9.58615e-12 9.07277e-08)
(1.83037e-08 1.95266e-07 -4.4208e-10)
(-2.44972e-11 -1.12295e-11 8.87408e-08)
(1.76917e-07 3.66478e-08 -7.96551e-10)
(2.09799e-07 3.66239e-09 -7.00187e-11)
(2.19766e-08 1.91471e-07 -3.97709e-10)
(-1.19615e-12 -6.87823e-12 1.0469e-07)
(2.06138e-07 7.32458e-09 -1.40162e-10)
(2.19775e-08 1.91474e-07 -4.03856e-10)
(-2.13682e-12 -6.94807e-12 1.02691e-07)
(2.02478e-07 1.09866e-08 -2.11024e-10)
(2.19779e-08 1.91479e-07 -4.0981e-10)
(-3.20483e-12 -7.09917e-12 1.00693e-07)
(1.98819e-07 1.46487e-08 -2.83047e-10)
(2.19777e-08 1.91486e-07 -4.16318e-10)
(-4.51276e-12 -7.35945e-12 9.86946e-08)
(1.95162e-07 1.83115e-08 -3.57165e-10)
(2.19766e-08 1.91494e-07 -4.2436e-10)
(-6.19091e-12 -7.77076e-12 9.66977e-08)
(1.91507e-07 2.19749e-08 -4.34809e-10)
(2.19747e-08 1.91507e-07 -4.35089e-10)
(-8.39959e-12 -8.38903e-12 9.47027e-08)
(1.87855e-07 2.56392e-08 -5.17459e-10)
(2.19716e-08 1.91524e-07 -4.49923e-10)
(-1.13145e-11 -9.28205e-12 9.27093e-08)
(1.84208e-07 2.93052e-08 -6.06569e-10)
(2.19666e-08 1.91545e-07 -4.70851e-10)
(-1.5143e-11 -1.05369e-11 9.07178e-08)
(1.80566e-07 3.29741e-08 -7.03929e-10)
(2.19607e-08 1.91573e-07 -4.99882e-10)
(-2.00724e-11 -1.22584e-11 8.87292e-08)
(2.19666e-08 1.91608e-07 -5.32543e-10)
(-2.49832e-11 -1.40659e-11 8.67406e-08)
(1.76928e-07 3.66461e-08 -8.09123e-10)
(2.09818e-07 3.66164e-09 -7.23454e-11)
(2.56408e-08 1.87819e-07 -4.74279e-10)
(-1.71357e-12 -9.70986e-12 1.02699e-07)
(2.06156e-07 7.32309e-09 -1.45032e-10)
(2.56419e-08 1.87822e-07 -4.81512e-10)
(-2.6816e-12 -9.76278e-12 1.00699e-07)
(2.02495e-07 1.09845e-08 -2.18653e-10)
(2.56425e-08 1.87828e-07 -4.88491e-10)
(-3.80305e-12 -9.89572e-12 9.87008e-08)
(1.98836e-07 1.4646e-08 -2.93426e-10)
(2.56423e-08 1.87834e-07 -4.96042e-10)
(-5.189e-12 -1.01608e-11 9.67024e-08)
(1.95178e-07 1.83081e-08 -3.69976e-10)
(2.56411e-08 1.87843e-07 -5.0527e-10)
(-6.96539e-12 -1.06103e-11 9.47048e-08)
(1.91523e-07 2.19714e-08 -4.49594e-10)
(2.56389e-08 1.87855e-07 -5.17507e-10)
(-9.27652e-12 -1.12926e-11 9.27087e-08)
(1.87872e-07 2.5636e-08 -5.33951e-10)
(2.56357e-08 1.87871e-07 -5.34208e-10)
(-1.23094e-11 -1.22781e-11 9.07148e-08)
(1.84223e-07 2.93024e-08 -6.24136e-10)
(2.56311e-08 1.87892e-07 -5.57144e-10)
(-1.62102e-11 -1.36094e-11 8.8722e-08)
(1.80581e-07 3.29719e-08 -7.21469e-10)
(2.56246e-08 1.87919e-07 -5.88528e-10)
(-2.12163e-11 -1.53628e-11 8.67309e-08)
(2.56305e-08 1.87952e-07 -6.24155e-10)
(-2.57897e-11 -1.71606e-11 8.47398e-08)
(1.76942e-07 3.66449e-08 -8.25386e-10)
(2.09843e-07 3.66068e-09 -7.60049e-11)
(2.93062e-08 1.84172e-07 -5.5971e-10)
(-2.49462e-12 -1.36136e-11 1.00711e-07)
(2.06181e-07 7.32124e-09 -1.52472e-10)
(2.9308e-08 1.84175e-07 -5.67823e-10)
(-3.44017e-12 -1.35992e-11 9.87113e-08)
(2.02519e-07 1.09818e-08 -2.29906e-10)
(2.93089e-08 1.84181e-07 -5.7534e-10)
(-4.6185e-12 -1.36441e-11 9.67122e-08)
(1.98859e-07 1.46427e-08 -3.08405e-10)
(2.93087e-08 1.84187e-07 -5.83419e-10)
(-6.1284e-12 -1.38665e-11 9.47132e-08)
(1.952e-07 1.83039e-08 -3.88365e-10)
(2.93075e-08 1.84196e-07 -5.93306e-10)
(-8.05694e-12 -1.43476e-11 9.27147e-08)
(1.91545e-07 2.19664e-08 -4.70659e-10)
(2.93053e-08 1.84208e-07 -6.06344e-10)
(-1.05023e-11 -1.5117e-11 9.07172e-08)
(1.87892e-07 2.5631e-08 -5.56787e-10)
(2.93021e-08 1.84223e-07 -6.23967e-10)
(-1.36262e-11 -1.61655e-11 8.87214e-08)
(1.84242e-07 2.92984e-08 -6.47495e-10)
(2.92981e-08 1.84242e-07 -6.47571e-10)
(-1.74569e-11 -1.74063e-11 8.6726e-08)
(1.80598e-07 3.29693e-08 -7.43852e-10)
(2.92917e-08 1.84267e-07 -6.79336e-10)
(-2.2413e-11 -1.89064e-11 8.47315e-08)
(2.92966e-08 1.84297e-07 -7.16009e-10)
(-2.66251e-11 -2.03029e-11 8.27368e-08)
(1.76958e-07 3.66446e-08 -8.45153e-10)
(2.09878e-07 3.65942e-09 -8.14159e-11)
(3.29737e-08 1.80531e-07 -6.56341e-10)
(-3.61913e-12 -1.89423e-11 9.87266e-08)
(2.06213e-07 7.31897e-09 -1.63163e-10)
(3.29767e-08 1.80535e-07 -6.64935e-10)
(-4.42481e-12 -1.87512e-11 9.67268e-08)
(2.0255e-07 1.09786e-08 -2.45718e-10)
(3.29778e-08 1.80539e-07 -6.72327e-10)
(-5.67917e-12 -1.85962e-11 9.47269e-08)
(1.98889e-07 1.46386e-08 -3.29105e-10)
(3.29775e-08 1.80546e-07 -6.80348e-10)
(-7.39661e-12 -1.87094e-11 9.2727e-08)
(1.9523e-07 1.82992e-08 -4.13622e-10)
(3.29761e-08 1.80555e-07 -6.90422e-10)
(-9.57275e-12 -1.91981e-11 9.07277e-08)
(1.91573e-07 2.19607e-08 -4.99786e-10)
(3.29742e-08 1.80566e-07 -7.03712e-10)
(-1.22217e-11 -2.00748e-11 8.8729e-08)
(1.87919e-07 2.56244e-08 -5.88306e-10)
(3.29718e-08 1.80581e-07 -7.2122e-10)
(-1.53777e-11 -2.12316e-11 8.67307e-08)
(1.84267e-07 2.92916e-08 -6.79163e-10)
(3.29691e-08 1.80597e-07 -7.43749e-10)
(-1.8944e-11 -2.24127e-11 8.47313e-08)
(1.80617e-07 3.29644e-08 -7.72763e-10)
(3.29643e-08 1.80617e-07 -7.7282e-10)
(-2.3328e-11 -2.33063e-11 8.27308e-08)
(3.29683e-08 1.80639e-07 -8.05758e-10)
(-2.63788e-11 -2.30099e-11 8.07273e-08)
(1.76972e-07 3.6646e-08 -8.67189e-10)
(2.09923e-07 3.65939e-09 -8.82701e-11)
(-4.94976e-12 -2.63007e-11 9.6747e-08)
(3.66463e-08 1.76898e-07 -7.67152e-10)
(2.06255e-07 7.31962e-09 -1.76119e-10)
(-5.50364e-12 -2.54754e-11 9.47446e-08)
(3.66495e-08 1.769e-07 -7.74385e-10)
(2.0259e-07 1.09804e-08 -2.64278e-10)
(-6.84803e-12 -2.47749e-11 9.27429e-08)
(3.66502e-08 1.76903e-07 -7.80345e-10)
(1.98927e-07 1.46418e-08 -3.52831e-10)
(-8.79687e-12 -2.44266e-11 9.07416e-08)
(3.66494e-08 1.76909e-07 -7.8725e-10)
(1.95266e-07 1.83038e-08 -4.421e-10)
(-1.12215e-11 -2.45052e-11 8.87409e-08)
(3.66478e-08 1.76917e-07 -7.96508e-10)
(1.91608e-07 2.19665e-08 -5.32496e-10)
(-1.40515e-11 -2.50044e-11 8.67406e-08)
(3.66462e-08 1.76928e-07 -8.09031e-10)
(1.87952e-07 2.56304e-08 -6.24099e-10)
(-1.71724e-11 -2.58181e-11 8.47399e-08)
(3.66449e-08 1.76942e-07 -8.25266e-10)
(1.84297e-07 2.92965e-08 -7.1591e-10)
(-2.0303e-11 -2.66286e-11 8.27368e-08)
(3.66446e-08 1.76958e-07 -8.45021e-10)
(1.80638e-07 3.29683e-08 -8.05603e-10)
(-2.30037e-11 -2.63403e-11 8.0727e-08)
(3.66459e-08 1.76972e-07 -8.6705e-10)
(-2.40112e-11 -2.39605e-11 7.87104e-08)
(1.76982e-07 3.66486e-08 -8.89664e-10)
(3.66484e-08 1.76982e-07 -8.89623e-10)
(2.09877e-07 3.66419e-09 -5.57389e-11)
(3.66406e-09 2.09876e-07 -5.58922e-11)
(-5.10331e-13 -5.07338e-13 1.14802e-07)
(2.0621e-07 7.32693e-09 -1.08859e-10)
(3.66681e-09 2.09876e-07 -5.57673e-11)
(-1.52641e-12 -5.47111e-13 1.12796e-07)
(2.02544e-07 1.09887e-08 -1.59386e-10)
(3.66671e-09 2.09877e-07 -5.51308e-11)
(-2.63649e-12 -6.32336e-13 1.1079e-07)
(1.98879e-07 1.46505e-08 -2.08388e-10)
(3.66548e-09 2.09883e-07 -5.46077e-11)
(-3.97051e-12 -7.8109e-13 1.08787e-07)
(1.95216e-07 1.83126e-08 -2.56979e-10)
(3.66405e-09 2.09894e-07 -5.44093e-11)
(-5.66968e-12 -1.01948e-12 1.06788e-07)
(1.91555e-07 2.1975e-08 -3.06073e-10)
(3.66233e-09 2.09911e-07 -5.46043e-11)
(-7.88354e-12 -1.3822e-12 1.04794e-07)
(1.87896e-07 2.56379e-08 -3.56374e-10)
(3.66008e-09 2.09935e-07 -5.52905e-11)
(-1.07816e-11 -1.91876e-12 1.02804e-07)
(1.8424e-07 2.93013e-08 -4.08251e-10)
(3.65715e-09 2.09965e-07 -5.65952e-11)
(-1.45207e-11 -2.68483e-12 1.00819e-07)
(1.80587e-07 3.2966e-08 -4.61525e-10)
(3.65329e-09 2.10001e-07 -5.86603e-11)
(-1.92154e-11 -3.71045e-12 9.88384e-08)
(3.65252e-09 2.10041e-07 -6.10561e-11)
(-2.50718e-11 -4.78938e-12 9.68621e-08)
(1.76933e-07 3.6637e-08 -5.15644e-10)
(2.09876e-07 3.66666e-09 -5.56183e-11)
(7.32668e-09 2.0621e-07 -1.08943e-10)
(-5.49011e-13 -1.52147e-12 1.12796e-07)
(2.06213e-07 7.33078e-09 -1.09235e-10)
(7.33052e-09 2.06212e-07 -1.09394e-10)
(-1.57029e-12 -1.56453e-12 1.10793e-07)
(2.02548e-07 1.09925e-08 -1.60744e-10)
(7.33154e-09 2.06216e-07 -1.08934e-10)
(-2.69104e-12 -1.662e-12 1.08789e-07)
(1.98884e-07 1.46537e-08 -2.1077e-10)
(7.33011e-09 2.06222e-07 -1.08367e-10)
(-4.03363e-12 -1.83047e-12 1.06788e-07)
(1.95222e-07 1.83154e-08 -2.60269e-10)
(7.3274e-09 2.06232e-07 -1.08255e-10)
(-5.73611e-12 -2.091e-12 1.04789e-07)
(1.91561e-07 2.19779e-08 -3.10159e-10)
(7.32402e-09 2.06249e-07 -1.08872e-10)
(-7.94389e-12 -2.47501e-12 1.02795e-07)
(1.87903e-07 2.56413e-08 -3.61152e-10)
(7.31955e-09 2.06272e-07 -1.10423e-10)
(-1.08164e-11 -3.0168e-12 1.00806e-07)
(1.84247e-07 2.93065e-08 -4.1358e-10)
(7.31386e-09 2.063e-07 -1.13144e-10)
(-1.44813e-11 -3.72946e-12 9.88202e-08)
(1.80594e-07 3.29744e-08 -4.67212e-10)
(7.30681e-09 2.06333e-07 -1.17228e-10)
(-1.90077e-11 -4.5837e-12 9.68389e-08)
(7.30721e-09 2.06369e-07 -1.21634e-10)
(-2.4306e-11 -5.39975e-12 9.48588e-08)
(1.76938e-07 3.66463e-08 -5.20899e-10)
(2.09877e-07 3.6663e-09 -5.50676e-11)
(1.09886e-08 2.02544e-07 -1.59355e-10)
(-6.321e-13 -2.63411e-12 1.10789e-07)
(2.06215e-07 7.33126e-09 -1.08778e-10)
(1.09921e-08 2.02548e-07 -1.60783e-10)
(-1.6655e-12 -2.68551e-12 1.08789e-07)
(2.02554e-07 1.09941e-08 -1.61072e-10)
(1.09938e-08 2.02553e-07 -1.61209e-10)
(-2.80574e-12 -2.79835e-12 1.06788e-07)
(1.98891e-07 1.46555e-08 -2.12181e-10)
(1.09933e-08 2.02561e-07 -1.61241e-10)
(-4.16358e-12 -2.98986e-12 1.04789e-07)
(1.95229e-07 1.83168e-08 -2.62681e-10)
(1.09901e-08 2.02572e-07 -1.61585e-10)
(-5.87173e-12 -3.27852e-12 1.02791e-07)
(1.91569e-07 2.19792e-08 -3.13379e-10)
(1.09851e-08 2.02587e-07 -1.62844e-10)
(-8.07395e-12 -3.69145e-12 1.00797e-07)
(1.87911e-07 2.5643e-08 -3.64965e-10)
(1.09785e-08 2.02608e-07 -1.65413e-10)
(-1.09098e-11 -4.25903e-12 9.88074e-08)
(1.84256e-07 2.9309e-08 -4.17686e-10)
(1.09704e-08 2.02634e-07 -1.6959e-10)
(-1.44683e-11 -4.98772e-12 9.68213e-08)
(1.80602e-07 3.29775e-08 -4.71284e-10)
(1.09604e-08 2.02665e-07 -1.75611e-10)
(-1.87913e-11 -5.85882e-12 9.48388e-08)
(1.09631e-08 2.02698e-07 -1.81781e-10)
(-2.36038e-11 -6.68272e-12 9.28562e-08)
(1.76945e-07 3.66488e-08 -5.24497e-10)
(2.09883e-07 3.66536e-09 -5.46255e-11)
(1.46506e-08 1.98879e-07 -2.08331e-10)
(-7.79843e-13 -3.97082e-12 1.08787e-07)
(2.06221e-07 7.32966e-09 -1.08319e-10)
(1.46535e-08 1.98884e-07 -2.10729e-10)
(-1.83059e-12 -4.0326e-12 1.06787e-07)
(2.02561e-07 1.0993e-08 -1.61103e-10)
(1.4655e-08 1.98891e-07 -2.12216e-10)
(-2.99417e-12 -4.15836e-12 1.04788e-07)
(1.989e-07 1.46551e-08 -2.13116e-10)
(1.46548e-08 1.98899e-07 -2.13249e-10)
(-4.37599e-12 -4.36811e-12 1.02791e-07)
(1.95239e-07 1.83165e-08 -2.64633e-10)
(1.46521e-08 1.98911e-07 -2.14398e-10)
(-6.09662e-12 -4.68419e-12 1.00794e-07)
(1.91578e-07 2.19786e-08 -3.16158e-10)
(1.46463e-08 1.98926e-07 -2.16393e-10)
(-8.29695e-12 -5.13112e-12 9.87998e-08)
(1.8792e-07 2.56424e-08 -3.68258e-10)
(1.46376e-08 1.98945e-07 -2.19938e-10)
(-1.11062e-11 -5.74132e-12 9.68091e-08)
(1.84264e-07 2.93082e-08 -4.21137e-10)
(1.4627e-08 1.98969e-07 -2.2549e-10)
(-1.45861e-11 -6.53993e-12 9.48219e-08)
(1.8061e-07 3.29764e-08 -4.74554e-10)
(1.46142e-08 1.98997e-07 -2.33284e-10)
(-1.87634e-11 -7.53307e-12 9.28381e-08)
(1.46198e-08 1.99027e-07 -2.4096e-10)
(-2.31265e-11 -8.4627e-12 9.08534e-08)
(1.76952e-07 3.66469e-08 -5.27252e-10)
(2.09894e-07 3.66406e-09 -5.4445e-11)
(1.83126e-08 1.95216e-07 -2.56935e-10)
(-1.01858e-12 -5.67079e-12 1.06789e-07)
(2.06232e-07 7.32725e-09 -1.08296e-10)
(1.83154e-08 1.95222e-07 -2.60226e-10)
(-2.0895e-12 -5.73708e-12 1.04789e-07)
(2.02571e-07 1.09896e-08 -1.61552e-10)
(1.83167e-08 1.95229e-07 -2.62654e-10)
(-3.27753e-12 -5.87e-12 1.02791e-07)
(1.98911e-07 1.46518e-08 -2.14263e-10)
(1.83161e-08 1.95238e-07 -2.64679e-10)
(-4.68873e-12 -6.0897e-12 1.00794e-07)
(1.9525e-07 1.83138e-08 -2.66644e-10)
(1.83134e-08 1.9525e-07 -2.66796e-10)
(-6.43467e-12 -6.42513e-12 9.87978e-08)
(1.9159e-07 2.19756e-08 -3.18996e-10)
(1.83077e-08 1.95265e-07 -2.6962e-10)
(-8.64877e-12 -6.91102e-12 9.68036e-08)
(1.8793e-07 2.56386e-08 -3.71594e-10)
(1.82978e-08 1.95283e-07 -2.73955e-10)
(-1.14466e-11 -7.57517e-12 9.48117e-08)
(1.84273e-07 2.93041e-08 -4.24533e-10)
(1.82843e-08 1.95304e-07 -2.80567e-10)
(-1.48954e-11 -8.45256e-12 9.28228e-08)
(1.80619e-07 3.2972e-08 -4.77627e-10)
(1.82686e-08 1.95329e-07 -2.89826e-10)
(-1.90006e-11 -9.57753e-12 9.08374e-08)
(1.82772e-08 1.95356e-07 -2.98716e-10)
(-2.29118e-11 -1.0596e-11 8.88506e-08)
(1.7696e-07 3.66422e-08 -5.29655e-10)
(2.09911e-07 3.66234e-09 -5.46387e-11)
(2.1975e-08 1.91555e-07 -3.06045e-10)
(-1.38152e-12 -7.88422e-12 1.04794e-07)
(2.06249e-07 7.32403e-09 -1.08934e-10)
(2.19779e-08 1.91561e-07 -3.10133e-10)
(-2.47313e-12 -7.94452e-12 1.02795e-07)
(2.02587e-07 1.09849e-08 -1.62899e-10)
(2.19793e-08 1.91569e-07 -3.13351e-10)
(-3.68836e-12 -8.07456e-12 1.00797e-07)
(1.98925e-07 1.46457e-08 -2.16371e-10)
(2.19784e-08 1.91578e-07 -3.16148e-10)
(-5.1318e-12 -8.29669e-12 9.87995e-08)
(1.95264e-07 1.83073e-08 -2.69463e-10)
(2.1975e-08 1.91589e-07 -3.19073e-10)
(-6.9151e-12 -8.64223e-12 9.68031e-08)
(1.91604e-07 2.19696e-08 -3.22486e-10)
(2.19689e-08 1.91603e-07 -3.22702e-10)
(-9.15976e-12 -9.14867e-12 9.48088e-08)
(1.87943e-07 2.56321e-08 -3.75559e-10)
(2.19591e-08 1.91621e-07 -3.27681e-10)
(-1.19655e-11 -9.85176e-12 9.28161e-08)
(1.84284e-07 2.92967e-08 -4.28488e-10)
(2.19437e-08 1.9164e-07 -3.34888e-10)
(-1.54091e-11 -1.07864e-11 9.08251e-08)
(1.80627e-07 3.29648e-08 -4.80987e-10)
(2.19247e-08 1.9166e-07 -3.44987e-10)
(-1.94762e-11 -1.19717e-11 8.88369e-08)
(2.19353e-08 1.91684e-07 -3.54613e-10)
(-2.29186e-11 -1.29723e-11 8.68475e-08)
(1.76967e-07 3.66357e-08 -5.31992e-10)
(2.09935e-07 3.66009e-09 -5.5323e-11)
(2.56379e-08 1.87896e-07 -3.56365e-10)
(-1.91808e-12 -1.0782e-11 1.02804e-07)
(2.06272e-07 7.31956e-09 -1.10484e-10)
(2.56413e-08 1.87903e-07 -3.61143e-10)
(-3.01487e-12 -1.08167e-11 1.00806e-07)
(2.02608e-07 1.09785e-08 -1.65496e-10)
(2.56431e-08 1.87911e-07 -3.64951e-10)
(-4.25619e-12 -1.09102e-11 9.88074e-08)
(1.98945e-07 1.46374e-08 -2.20025e-10)
(2.56424e-08 1.8792e-07 -3.68235e-10)
(-5.74005e-12 -1.1106e-11 9.6809e-08)
(1.95282e-07 1.8297e-08 -2.73942e-10)
(2.56386e-08 1.8793e-07 -3.71574e-10)
(-7.57042e-12 -1.1442e-11 9.48112e-08)
(1.9162e-07 2.19587e-08 -3.27447e-10)
(2.56314e-08 1.87942e-07 -3.75622e-10)
(-9.84729e-12 -1.19439e-11 9.28152e-08)
(1.87958e-07 2.56218e-08 -3.80773e-10)
(2.56211e-08 1.87958e-07 -3.80982e-10)
(-1.26762e-11 -1.26454e-11 9.08214e-08)
(1.84296e-07 2.92867e-08 -4.33484e-10)
(2.56058e-08 1.87975e-07 -3.88317e-10)
(-1.60701e-11 -1.35338e-11 8.88281e-08)
(1.80635e-07 3.29558e-08 -4.84941e-10)
(2.55848e-08 1.87991e-07 -3.98344e-10)
(-2.00473e-11 -1.45902e-11 8.68357e-08)
(2.55941e-08 1.88009e-07 -4.07963e-10)
(-2.3033e-11 -1.53932e-11 8.48426e-08)
(1.76973e-07 3.66287e-08 -5.34329e-10)
(2.09965e-07 3.65717e-09 -5.66246e-11)
(2.93013e-08 1.8424e-07 -4.08262e-10)
(-2.6841e-12 -1.45209e-11 1.00819e-07)
(2.063e-07 7.31389e-09 -1.132e-10)
(2.93066e-08 1.84247e-07 -4.13589e-10)
(-3.72731e-12 -1.44813e-11 9.88203e-08)
(2.02634e-07 1.09704e-08 -1.69668e-10)
(2.9309e-08 1.84256e-07 -4.17684e-10)
(-4.98426e-12 -1.44675e-11 9.68214e-08)
(1.98969e-07 1.46271e-08 -2.25596e-10)
(2.93084e-08 1.84264e-07 -4.21112e-10)
(-6.53518e-12 -1.45825e-11 9.4822e-08)
(1.95304e-07 1.82842e-08 -2.80667e-10)
(2.93044e-08 1.84274e-07 -4.24467e-10)
(-8.44134e-12 -1.48869e-11 9.28227e-08)
(1.91638e-07 2.1943e-08 -3.34781e-10)
(2.92969e-08 1.84284e-07 -4.28373e-10)
(-1.07535e-11 -1.53829e-11 9.08241e-08)
(1.87973e-07 2.56055e-08 -3.88072e-10)
(2.9286e-08 1.84295e-07 -4.33424e-10)
(-1.35504e-11 -1.60256e-11 8.88271e-08)
(1.84307e-07 2.92725e-08 -4.39983e-10)
(2.92718e-08 1.84307e-07 -4.40069e-10)
(-1.67337e-11 -1.6684e-11 8.68297e-08)
(1.80639e-07 3.29443e-08 -4.89681e-10)
(2.92501e-08 1.84317e-07 -4.48945e-10)
(-2.04814e-11 -1.73402e-11 8.48318e-08)
(2.92553e-08 1.84329e-07 -4.57622e-10)
(-2.29877e-11 -1.76179e-11 8.28333e-08)
(1.76975e-07 3.66221e-08 -5.36515e-10)
(2.10001e-07 3.6533e-09 -5.86849e-11)
(3.2966e-08 1.80587e-07 -4.61554e-10)
(-3.7097e-12 -1.92157e-11 9.88385e-08)
(2.06333e-07 7.30685e-09 -1.17274e-10)
(3.29745e-08 1.80594e-07 -4.67238e-10)
(-4.58145e-12 -1.9008e-11 9.6839e-08)
(2.02665e-07 1.09605e-08 -1.75672e-10)
(3.29776e-08 1.80602e-07 -4.71298e-10)
(-5.85496e-12 -1.87915e-11 9.48389e-08)
(1.98997e-07 1.46144e-08 -2.33356e-10)
(3.29766e-08 1.80611e-07 -4.74543e-10)
(-7.52646e-12 -1.87632e-11 9.28381e-08)
(1.95329e-07 1.82689e-08 -2.89902e-10)
(3.29722e-08 1.80619e-07 -4.77575e-10)
(-9.56447e-12 -1.89991e-11 9.08374e-08)
(1.9166e-07 2.19247e-08 -3.4496e-10)
(3.29651e-08 1.80627e-07 -4.80872e-10)
(-1.19363e-11 -1.94779e-11 8.88366e-08)
(1.8799e-07 2.5584e-08 -3.98215e-10)
(3.29555e-08 1.80635e-07 -4.84813e-10)
(-1.46051e-11 -2.00612e-11 8.68353e-08)
(1.84317e-07 2.92497e-08 -4.48828e-10)
(3.29436e-08 1.80639e-07 -4.89644e-10)
(-1.73799e-11 -2.04828e-11 8.48315e-08)
(1.80639e-07 3.29251e-08 -4.95811e-10)
(3.29248e-08 1.80639e-07 -4.95867e-10)
(-2.04689e-11 -2.04507e-11 8.28247e-08)
(3.29264e-08 1.80633e-07 -5.01851e-10)
(-2.19132e-11 -1.92292e-11 8.08139e-08)
(1.76963e-07 3.66176e-08 -5.38193e-10)
(2.10041e-07 3.65254e-09 -6.10751e-11)
(-4.78881e-12 -2.50725e-11 9.68622e-08)
(3.6637e-08 1.76933e-07 -5.1568e-10)
(2.06369e-07 7.30724e-09 -1.21667e-10)
(-5.39804e-12 -2.4307e-11 9.48589e-08)
(3.66463e-08 1.76938e-07 -5.20932e-10)
(2.02698e-07 1.09631e-08 -1.81823e-10)
(-6.67995e-12 -2.36057e-11 9.28563e-08)
(3.66489e-08 1.76945e-07 -5.2452e-10)
(1.99027e-07 1.46199e-08 -2.41003e-10)
(-8.45823e-12 -2.31302e-11 9.08535e-08)
(3.6647e-08 1.76952e-07 -5.27257e-10)
(1.95356e-07 1.82773e-08 -2.98746e-10)
(-1.05883e-11 -2.292e-11 8.88507e-08)
(3.66424e-08 1.7696e-07 -5.29635e-10)
(1.91684e-07 2.19351e-08 -3.54607e-10)
(-1.29587e-11 -2.29399e-11 8.68475e-08)
(3.66359e-08 1.76967e-07 -5.31945e-10)
(1.88009e-07 2.55939e-08 -4.07943e-10)
(-1.5406e-11 -2.3062e-11 8.48427e-08)
(3.66287e-08 1.76973e-07 -5.34269e-10)
(1.84328e-07 2.9255e-08 -4.57578e-10)
(-1.76241e-11 -2.29938e-11 8.28332e-08)
(3.66221e-08 1.76974e-07 -5.36459e-10)
(1.80632e-07 3.29264e-08 -5.01769e-10)
(-1.9225e-11 -2.18823e-11 8.08135e-08)
(3.66175e-08 1.76963e-07 -5.38151e-10)
(-1.92023e-11 -1.91613e-11 7.8785e-08)
(1.76939e-07 3.66145e-08 -5.39081e-10)
(3.6614e-08 1.7694e-07 -5.39086e-10)
(2.09953e-07 3.66514e-09 -3.49901e-11)
(3.66495e-09 2.09952e-07 -3.5086e-11)
(-2.35758e-13 -2.34314e-13 1.14872e-07)
(2.06282e-07 7.32809e-09 -6.7574e-11)
(3.66932e-09 2.0995e-07 -3.47812e-11)
(-7.01787e-13 -2.52242e-13 1.12863e-07)
(2.02612e-07 1.09895e-08 -9.70564e-11)
(3.66946e-09 2.09947e-07 -3.39328e-11)
(-1.19812e-12 -2.89686e-13 1.10853e-07)
(1.98941e-07 1.46508e-08 -1.23382e-10)
(3.66794e-09 2.09948e-07 -3.29232e-11)
(-1.76539e-12 -3.52189e-13 1.08846e-07)
(1.95272e-07 1.83123e-08 -1.46421e-10)
(3.66617e-09 2.09955e-07 -3.18494e-11)
(-2.43154e-12 -4.457e-13 1.06843e-07)
(1.91603e-07 2.19738e-08 -1.6574e-10)
(3.66404e-09 2.09967e-07 -3.0693e-11)
(-3.19955e-12 -5.74239e-13 1.04844e-07)
(1.87935e-07 2.56354e-08 -1.80517e-10)
(3.66126e-09 2.09982e-07 -2.94202e-11)
(-4.03741e-12 -7.38243e-13 1.02848e-07)
(1.84268e-07 2.92968e-08 -1.89447e-10)
(3.65767e-09 2.10001e-07 -2.79749e-11)
(-4.84702e-12 -9.25784e-13 1.00856e-07)
(1.80601e-07 3.29586e-08 -1.90645e-10)
(3.65302e-09 2.10018e-07 -2.62594e-11)
(-5.43385e-12 -1.09639e-12 9.88659e-08)
(3.65288e-09 2.10033e-07 -2.38972e-11)
(-5.5171e-12 -1.136e-12 9.6877e-08)
(1.76929e-07 3.66259e-08 -1.81566e-10)
(2.09949e-07 3.66909e-09 -3.46889e-11)
(7.32772e-09 2.06282e-07 -6.76258e-11)
(-2.53185e-13 -6.9934e-13 1.12863e-07)
(2.06284e-07 7.33439e-09 -6.7368e-11)
(7.33401e-09 2.06283e-07 -6.74661e-11)
(-7.20544e-13 -7.17729e-13 1.10858e-07)
(2.02616e-07 1.0996e-08 -9.72537e-11)
(7.33609e-09 2.06284e-07 -6.63022e-11)
(-1.2196e-12 -7.57971e-13 1.08851e-07)
(1.98947e-07 1.46566e-08 -1.24005e-10)
(7.33457e-09 2.06286e-07 -6.46122e-11)
(-1.78687e-12 -8.23529e-13 1.06846e-07)
(1.95278e-07 1.83178e-08 -1.47388e-10)
(7.33125e-09 2.06293e-07 -6.26739e-11)
(-2.44871e-12 -9.16206e-13 1.04844e-07)
(1.91611e-07 2.19795e-08 -1.66969e-10)
(7.32712e-09 2.06303e-07 -6.0531e-11)
(-3.20694e-12 -1.03675e-12 1.02845e-07)
(1.87943e-07 2.56419e-08 -1.81937e-10)
(7.32164e-09 2.06318e-07 -5.81247e-11)
(-4.02817e-12 -1.1793e-12 1.00849e-07)
(1.84277e-07 2.93057e-08 -1.91013e-10)
(7.31473e-09 2.06334e-07 -5.53463e-11)
(-4.81052e-12 -1.3201e-12 9.88567e-08)
(1.8061e-07 3.29714e-08 -1.92391e-10)
(7.30634e-09 2.0635e-07 -5.19876e-11)
(-5.36152e-12 -1.41241e-12 9.6866e-08)
(7.30846e-09 2.0636e-07 -4.7315e-11)
(-5.369e-12 -1.37023e-12 9.48737e-08)
(1.76935e-07 3.66395e-08 -1.83778e-10)
(2.09946e-07 3.66885e-09 -3.38947e-11)
(1.09894e-08 2.02612e-07 -9.70336e-11)
(-2.89651e-13 -1.19678e-12 1.10853e-07)
(2.06284e-07 7.33567e-09 -6.62078e-11)
(1.09954e-08 2.02615e-07 -9.72765e-11)
(-7.59768e-13 -1.21684e-12 1.08851e-07)
(2.02619e-07 1.09993e-08 -9.6184e-11)
(1.09989e-08 2.02619e-07 -9.62664e-11)
(-1.26281e-12 -1.25922e-12 1.06848e-07)
(1.98953e-07 1.46604e-08 -1.23233e-10)
(1.09989e-08 2.02624e-07 -9.4334e-11)
(-1.82877e-12 -1.32623e-12 1.04846e-07)
(1.95285e-07 1.83212e-08 -1.46886e-10)
(1.09952e-08 2.0263e-07 -9.18089e-11)
(-2.48113e-12 -1.4166e-12 1.02844e-07)
(1.91619e-07 2.19831e-08 -1.66645e-10)
(1.09891e-08 2.02639e-07 -8.88703e-11)
(-3.2216e-12 -1.52686e-12 1.00845e-07)
(1.87952e-07 2.56461e-08 -1.81715e-10)
(1.09812e-08 2.02652e-07 -8.54819e-11)
(-4.01233e-12 -1.64688e-12 9.88498e-08)
(1.84286e-07 2.9311e-08 -1.90851e-10)
(1.09714e-08 2.02666e-07 -8.14685e-11)
(-4.7464e-12 -1.74818e-12 9.68566e-08)
(1.80619e-07 3.29778e-08 -1.92355e-10)
(1.09597e-08 2.02679e-07 -7.65318e-11)
(-5.24201e-12 -1.78408e-12 9.48648e-08)
(1.09654e-08 2.02688e-07 -6.96483e-11)
(-5.18019e-12 -1.66436e-12 9.28705e-08)
(1.76943e-07 3.66457e-08 -1.84276e-10)
(2.09948e-07 3.66776e-09 -3.29348e-11)
(1.46509e-08 1.98942e-07 -1.2334e-10)
(-3.5168e-13 -1.76521e-12 1.08846e-07)
(2.06286e-07 7.33391e-09 -6.45849e-11)
(1.46565e-08 1.98947e-07 -1.23976e-10)
(-8.23802e-13 -1.7861e-12 1.06846e-07)
(2.02623e-07 1.09984e-08 -9.42549e-11)
(1.46598e-08 1.98952e-07 -1.23253e-10)
(-1.32851e-12 -1.8262e-12 1.04845e-07)
(1.98959e-07 1.46611e-08 -1.21293e-10)
(1.46607e-08 1.98959e-07 -1.2137e-10)
(-1.89124e-12 -1.88754e-12 1.02845e-07)
(1.95293e-07 1.83223e-08 -1.45052e-10)
(1.4658e-08 1.98966e-07 -1.18532e-10)
(-2.52911e-12 -1.96819e-12 1.00845e-07)
(1.91626e-07 2.19838e-08 -1.64858e-10)
(1.46512e-08 1.98975e-07 -1.14934e-10)
(-3.24267e-12 -2.06059e-12 9.88457e-08)
(1.87959e-07 2.56472e-08 -1.79872e-10)
(1.46408e-08 1.98985e-07 -1.10632e-10)
(-3.99188e-12 -2.15105e-12 9.68492e-08)
(1.84292e-07 2.93123e-08 -1.88884e-10)
(1.46281e-08 1.98997e-07 -1.05434e-10)
(-4.6664e-12 -2.21097e-12 9.48549e-08)
(1.80625e-07 3.29792e-08 -1.90292e-10)
(1.46133e-08 1.99007e-07 -9.89384e-11)
(-5.09299e-12 -2.19173e-12 9.28619e-08)
(1.46232e-08 1.99013e-07 -8.99155e-11)
(-4.93192e-12 -1.9812e-12 9.08659e-08)
(1.76949e-07 3.66468e-08 -1.82541e-10)
(2.09955e-07 3.66617e-09 -3.18711e-11)
(1.83123e-08 1.95272e-07 -1.46385e-10)
(-4.45329e-13 -2.43169e-12 1.06843e-07)
(2.06292e-07 7.33104e-09 -6.26995e-11)
(1.83178e-08 1.95279e-07 -1.47355e-10)
(-9.15747e-13 -2.4488e-12 1.04844e-07)
(2.02629e-07 1.09946e-08 -9.17938e-11)
(1.83211e-08 1.95285e-07 -1.46869e-10)
(-1.41662e-12 -2.48008e-12 1.02844e-07)
(1.98966e-07 1.46576e-08 -1.18459e-10)
(1.83216e-08 1.95292e-07 -1.45081e-10)
(-1.9706e-12 -2.52599e-12 1.00844e-07)
(1.953e-07 1.832e-08 -1.42007e-10)
(1.83194e-08 1.953e-07 -1.42092e-10)
(-2.58865e-12 -2.58452e-12 9.88449e-08)
(1.91633e-07 2.19815e-08 -1.61649e-10)
(1.83131e-08 1.95309e-07 -1.3797e-10)
(-3.26749e-12 -2.64848e-12 9.68463e-08)
(1.87965e-07 2.56441e-08 -1.76407e-10)
(1.83015e-08 1.95318e-07 -1.32759e-10)
(-3.96231e-12 -2.69801e-12 9.48485e-08)
(1.84297e-07 2.93092e-08 -1.85031e-10)
(1.82855e-08 1.95326e-07 -1.26327e-10)
(-4.56576e-12 -2.6998e-12 9.28523e-08)
(1.80629e-07 3.29764e-08 -1.85994e-10)
(1.82674e-08 1.95332e-07 -1.18223e-10)