/*--------------------------------*- C++ -*----------------------------------*\
| =========                 |                                                 |
| \\      /  F ield         | foam-extend: Open Source CFD                    |
|  \\    /   O peration     | Version:     3.1                                |
|   \\  /    A nd           | Web:         http://www.extend-project.de       |
|    \\/     M anipulation  |                                                 |
\*---------------------------------------------------------------------------*/
FoamFile
{
    version     2.0;
    format      ascii;
    class       volVectorField;
    location    "0.0003";
    object      U_0;
}
// * * * * * * * * * * * * * * * * * * * * * * * * * * * * * * * * * * * * * //

dimensions      [0 1 -1 0 0 0 0];

internalField   nonuniform List<vector> 
16000
(
(0.00014463 0.000144634 0.0564652)
(0.000438625 0.000144257 0.0567636)
(0.000746885 0.000144768 0.0573712)
(0.00108012 0.000146879 0.0583075)
(0.00145098 0.000150746 0.0596034)
(0.00187491 0.000156628 0.0613034)
(0.00237153 0.000164927 0.0634688)
(0.00296635 0.000176254 0.0661824)
(0.00369285 0.000191556 0.0695555)
(0.00459485 0.000217223 0.073736)
(0.000144253 0.000438633 0.0567636)
(0.000437341 0.000437349 0.0570444)
(0.000743905 0.000438716 0.0576262)
(0.00107431 0.000444831 0.0585271)
(0.0014406 0.000456084 0.059776)
(0.00185744 0.000473115 0.0614142)
(0.00234331 0.000496893 0.0634986)
(0.00292218 0.000528843 0.0661061)
(0.00362517 0.000571046 0.0693391)
(0.00449497 0.000638589 0.0733332)
(0.000144766 0.000746887 0.0573712)
(0.000438709 0.000743909 0.0576261)
(0.000745187 0.000745194 0.0581769)
(0.00107437 0.00075423 0.0590402)
(0.00143779 0.000771578 0.0602426)
(0.0018494 0.000798194 0.0618227)
(0.00232667 0.000835511 0.0638336)
(0.00289209 0.000885566 0.0663464)
(0.00357421 0.000951126 0.0694562)
(0.00441473 0.00105477 0.073287)
(0.000146879 0.00108012 0.0583075)
(0.000444829 0.00107431 0.0585271)
(0.000754224 0.00107437 0.0590402)
(0.00108523 0.00108524 0.059862)
(0.00144902 0.00110758 0.0610171)
(0.00185898 0.00114257 0.0625413)
(0.00233172 0.00119202 0.0644841)
(0.00288841 0.00125842 0.0669119)
(0.00355514 0.001345 0.0699128)
(0.00437452 0.00148146 0.0736005)
(0.000150747 0.00145098 0.0596034)
(0.000456086 0.0014406 0.059776)
(0.000771577 0.00143779 0.0602426)
(0.00110757 0.00144902 0.0610171)
(0.00147499 0.001475 0.0621219)
(0.00188682 0.00151705 0.0635902)
(0.00235895 0.00157727 0.0654682)
(0.00291137 0.00165853 0.0678177)
(0.00356781 0.00176437 0.0707208)
(0.00437415 0.00193151 0.0742814)
(0.000156629 0.00187491 0.0613034)
(0.000473118 0.00185743 0.0614142)
(0.000798198 0.00184939 0.0618227)
(0.00114257 0.00185898 0.0625413)
(0.00151705 0.00188682 0.0635902)
(0.00193435 0.00193436 0.0650001)
(0.00240982 0.00200392 0.0668139)
(0.00296238 0.00209869 0.0690891)
(0.00361346 0.00222249 0.0719021)
(0.00441458 0.002419 0.0753483)
(0.000164929 0.00237152 0.0634688)
(0.000496896 0.0023433 0.0634987)
(0.000835516 0.00232667 0.0638336)
(0.00119203 0.00233172 0.0644841)
(0.00157727 0.00235894 0.0654682)
(0.0020039 0.00240982 0.0668138)
(0.00248687 0.00248688 0.0685607)
(0.00304416 0.00259369 0.0707625)
(0.00369483 0.0027344 0.07349)
(0.0044983 0.00295969 0.0768307)
(0.000176255 0.00296634 0.0661824)
(0.000528846 0.00292217 0.0661061)
(0.000885571 0.00289208 0.0663464)
(0.00125843 0.0028884 0.0669119)
(0.00165853 0.00291135 0.0678177)
(0.00209868 0.00296236 0.069089)
(0.00259367 0.00304415 0.0707624)
(0.00316077 0.00316078 0.0728877)
(0.00381652 0.00331716 0.0755306)
(0.00462997 0.00357171 0.078771)
(0.000191557 0.00369285 0.0695555)
(0.000571049 0.00362516 0.0693391)
(0.000951131 0.0035742 0.0694562)
(0.00134501 0.00355512 0.0699128)
(0.00176438 0.00356779 0.0707208)
(0.00222249 0.00361343 0.0719021)
(0.00273437 0.0036948 0.07349)
(0.00331714 0.00381651 0.0755305)
(0.00398507 0.00398508 0.0780849)
(0.00481931 0.00427155 0.081226)
(0.000217224 0.00459485 0.073736)
(0.000638592 0.00449496 0.0733332)
(0.00105478 0.00441472 0.073287)
(0.00148147 0.00437451 0.0736005)
(0.00193152 0.00437414 0.0742814)
(0.002419 0.00441456 0.0753483)
(0.00295969 0.00449827 0.0768307)
(0.0035717 0.00462995 0.078771)
(0.00427153 0.00481929 0.081226)
(0.00513605 0.00513605 0.0842679)
(0.000405454 0.00040545 0.0544434)
(0.00122915 0.000403998 0.0546996)
(0.00209118 0.00040466 0.0552202)
(0.00301994 0.000409348 0.0560195)
(0.00404855 0.000418392 0.0571195)
(0.00521714 0.000432361 0.0585514)
(0.00657618 0.000452156 0.0603573)
(0.00819079 0.000479166 0.0625928)
(0.0101456 0.000515638 0.0653304)
(0.0125517 0.000581368 0.0686634)
(0.000404001 0.00122914 0.0546996)
(0.0012244 0.00122439 0.0549407)
(0.002081 0.001226 0.0554388)
(0.0030012 0.00123966 0.0562072)
(0.00401659 0.00126616 0.0572664)
(0.00516521 0.00130686 0.0586455)
(0.00649469 0.00136386 0.0603838)
(0.00806625 0.00144037 0.0625326)
(0.00995848 0.00154122 0.0651593)
(0.0122813 0.00171452 0.068349)
(0.000404661 0.00209118 0.0552202)
(0.001226 0.00208099 0.0554387)
(0.00208106 0.00208106 0.0559092)
(0.00299658 0.00210096 0.0566436)
(0.00400274 0.00214181 0.0576609)
(0.00513579 0.00220563 0.0589882)
(0.00644076 0.00229553 0.060662)
(0.00797524 0.0024161 0.0627301)
(0.00981127 0.00257378 0.0652548)
(0.0120587 0.00284266 0.0683141)
(0.000409347 0.00301994 0.0560195)
(0.00123966 0.0030012 0.0562071)
(0.00210096 0.00299657 0.0566435)
(0.0030197 0.0030197 0.0573396)
(0.00402497 0.00307189 0.0583129)
(0.00515154 0.00315562 0.0595882)
(0.00644231 0.00327477 0.0611997)
(0.00795166 0.00343496 0.0631917)
(0.00974529 0.00364372 0.065622)
(0.0119386 0.00400067 0.0685618)
(0.000418391 0.00404856 0.0571195)
(0.00126616 0.00401659 0.0572664)
(0.00214181 0.00400274 0.0576608)
(0.00307189 0.00402496 0.0583128)
(0.00408463 0.00408462 0.0592382)
(0.00521367 0.00418447 0.0604598)
(0.0065001 0.00432895 0.0620092)
(0.00799553 0.00452444 0.0639275)
(0.0097596 0.00477928 0.0662687)
(0.0119201 0.00521895 0.0690974)
(0.00043236 0.00521714 0.0585514)
(0.00130685 0.00516522 0.0586456)
(0.00220562 0.00513579 0.0589882)
(0.00315561 0.00515154 0.0595882)
(0.00418447 0.00521366 0.0604598)
(0.00532504 0.00532503 0.061624)
(0.00661696 0.00549049 0.0631095)
(0.00810937 0.00571702 0.0649546)
(0.00985609 0.00601352 0.0672091)
(0.0120045 0.00653206 0.0699323)
(0.000452155 0.00657618 0.0603573)
(0.00136386 0.00649469 0.0603838)
(0.00229553 0.00644076 0.060662)
(0.00327476 0.00644231 0.0611997)
(0.00432894 0.00650009 0.0620091)
(0.00549048 0.00661694 0.0631093)
(0.00679796 0.00679795 0.0645268)
(0.00829839 0.00705066 0.0662965)
(0.0100397 0.00738434 0.0684643)
(0.0121962 0.00797879 0.0710845)
(0.000479166 0.00819079 0.0625928)
(0.00144037 0.00806625 0.0625327)
(0.0024161 0.00797524 0.0627301)
(0.00343495 0.00795166 0.0631917)
(0.00452443 0.00799553 0.0639275)
(0.00571701 0.00810935 0.0649544)
(0.00705064 0.00829836 0.0662963)
(0.00857063 0.00857062 0.0679851)
(0.0103188 0.00893607 0.070063)
(0.0125031 0.00960379 0.0725792)
(0.000515638 0.0101456 0.0653304)
(0.00154121 0.00995848 0.0651593)
(0.00257378 0.00981127 0.0652548)
(0.00364372 0.00974529 0.065622)
(0.00477928 0.0097596 0.0662687)
(0.00601351 0.00985609 0.0672091)
(0.00738433 0.0100397 0.0684643)
(0.00893606 0.0103188 0.0700629)
(0.0107044 0.0107044 0.0720434)
(0.01294 0.0114447 0.0744495)
(0.000581368 0.0125517 0.0686634)
(0.00171452 0.0122813 0.068349)
(0.00284266 0.0120587 0.0683141)
(0.00400067 0.0119386 0.0685618)
(0.00521895 0.0119201 0.0690974)
(0.00653206 0.0120045 0.0699323)
(0.00797879 0.0121962 0.0710845)
(0.00960378 0.0125031 0.0725792)
(0.0114446 0.01294 0.0744494)
(0.0137093 0.0137093 0.0767376)
(0.000613723 0.000613723 0.0506561)
(0.00185861 0.000610923 0.0508394)
(0.00315549 0.000610681 0.0512095)
(0.00454244 0.000615836 0.0517724)
(0.00606319 0.000626753 0.0525361)
(0.00776953 0.000644072 0.0535109)
(0.0097251 0.000668819 0.0547093)
(0.0120099 0.000702596 0.0561453)
(0.0147253 0.000748026 0.0578328)
(0.0180008 0.000831256 0.0597833)
(0.000610922 0.0018586 0.0508393)
(0.00184969 0.00184969 0.0510112)
(0.00313751 0.00184846 0.0513643)
(0.00451111 0.00186338 0.0519038)
(0.00601216 0.00189527 0.0526373)
(0.00768981 0.00194561 0.0535745)
(0.00960421 0.00201676 0.0547269)
(0.0118308 0.00211232 0.0561076)
(0.0144638 0.00223783 0.0577297)
(0.0176324 0.00245684 0.0596037)
(0.00061068 0.00315549 0.0512095)
(0.00184846 0.0031375 0.0513643)
(0.00313178 0.00313178 0.0516955)
(0.00449646 0.00315251 0.0522077)
(0.00598226 0.00320085 0.0529076)
(0.00763596 0.00327895 0.0538043)
(0.00951448 0.00339025 0.0549085)
(0.0116889 0.00353981 0.0562319)
(0.0142456 0.00373484 0.0577869)
(0.0173144 0.00407325 0.0595831)
(0.000615836 0.00454244 0.0517724)
(0.00186338 0.00451111 0.0519038)
(0.0031525 0.00449646 0.0522076)
(0.00451866 0.00451866 0.0526879)
(0.00600002 0.00457901 0.0533505)
(0.00764139 0.0046801 0.0542035)
(0.00949695 0.00482612 0.0552565)
(0.0116338 0.00502318 0.0565205)
(0.0141307 0.0052795 0.0580065)
(0.017125 0.00572673 0.0597227)
(0.000626753 0.00606319 0.0525361)
(0.00189527 0.00601216 0.0526373)
(0.00320084 0.00598225 0.0529076)
(0.004579 0.00600001 0.0533504)
(0.00606664 0.00606664 0.053971)
(0.00770699 0.00618495 0.0547762)
(0.00955182 0.00635958 0.0557746)
(0.0116648 0.0065974 0.0569758)
(0.0141171 0.00690731 0.0583898)
(0.0170623 0.00745497 0.0600235)
(0.000644072 0.00776954 0.0535109)
(0.00194561 0.00768982 0.0535745)
(0.00327895 0.00763596 0.0538043)
(0.00468009 0.00764139 0.0542034)
(0.00618493 0.00770698 0.0547761)
(0.00783551 0.00783552 0.0555285)
(0.00968164 0.00803192 0.0564676)
(0.0117839 0.00830352 0.0576016)
(0.0142059 0.00865962 0.0589394)
(0.0171265 0.00930065 0.0604865)
(0.000668819 0.0097251 0.0547094)
(0.00201676 0.00960421 0.0547269)
(0.00339024 0.00951449 0.0549085)
(0.00482611 0.00949695 0.0552565)
(0.00635957 0.00955181 0.0557745)
(0.00803189 0.00968161 0.0564674)
(0.00989137 0.00989138 0.0573413)
(0.0119958 0.0101888 0.0584026)
(0.0144015 0.0105832 0.0596585)
(0.0173209 0.0113109 0.0611137)
(0.000702596 0.0120099 0.0561453)
(0.00211233 0.0118308 0.0561076)
(0.00353981 0.0116889 0.056232)
(0.00502318 0.0116338 0.0565205)
(0.0065974 0.0116648 0.0569757)
(0.0083035 0.0117838 0.0576014)
(0.0101887 0.0119958 0.0584024)
(0.0123086 0.0123086 0.0593836)
(0.0147117 0.012732 0.0605505)
(0.0176521 0.0135395 0.0619066)
(0.000748027 0.0147253 0.0578328)
(0.00223784 0.0144638 0.0577297)
(0.00373485 0.0142456 0.057787)
(0.0052795 0.0141307 0.0580065)
(0.00690731 0.0141171 0.0583898)
(0.00865961 0.0142059 0.0589393)
(0.0105832 0.0144015 0.0596584)
(0.012732 0.0147116 0.0605504)
(0.0151469 0.0151469 0.0616191)
(0.0181343 0.0160292 0.0628662)
(0.000831257 0.0180008 0.0597834)
(0.00245684 0.0176324 0.0596038)
(0.00407325 0.0173144 0.0595831)
(0.00572673 0.017125 0.0597228)
(0.00745498 0.0170623 0.0600235)
(0.00930065 0.0171265 0.0604865)
(0.0113109 0.0173209 0.0611137)
(0.0135395 0.0176521 0.0619066)
(0.0160292 0.0181343 0.0628661)
(0.0190274 0.0190275 0.0639938)
(0.000744468 0.000744471 0.0456124)
(0.00225131 0.00074006 0.0457106)
(0.0038111 0.000737682 0.0459063)
(0.00546181 0.000740681 0.046197)
(0.00724594 0.000749294 0.0465775)
(0.00921194 0.000763962 0.0470389)
(0.0114167 0.000785411 0.0475669)
(0.0139283 0.000814795 0.048139)
(0.0168273 0.000854036 0.04872)
(0.0202094 0.000928643 0.0492558)
(0.000740056 0.00225132 0.0457106)
(0.0022376 0.0022376 0.0458021)
(0.00378495 0.00222999 0.0459874)
(0.00541877 0.00223848 0.0462641)
(0.00717954 0.00226352 0.0466272)
(0.00911329 0.00230604 0.0470686)
(0.011274 0.0023676 0.0475751)
(0.013726 0.00245065 0.0481257)
(0.0165447 0.00255904 0.0486885)
(0.0198276 0.00275477 0.0492138)
(0.000737679 0.0038111 0.0459062)
(0.00222998 0.00378495 0.0459874)
(0.00376828 0.00376829 0.0461584)
(0.00538831 0.00377787 0.0464167)
(0.00712854 0.00381427 0.0467575)
(0.00903277 0.00387879 0.0471733)
(0.0111521 0.00397357 0.0476514)
(0.0135473 0.00410193 0.0481725)
(0.0162875 0.00426847 0.0487067)
(0.0194724 0.00456907 0.0492087)
(0.000740681 0.00546181 0.046197)
(0.00223847 0.00541877 0.046264)
(0.00377786 0.0053883 0.0464166)
(0.00539417 0.00539418 0.0466522)
(0.00712415 0.00543691 0.0469661)
(0.00900959 0.00551793 0.0473507)
(0.0110991 0.00563977 0.0477941)
(0.01345 0.00580621 0.048278)
(0.0161249 0.00602211 0.0487744)
(0.0192314 0.00641655 0.0492413)
(0.000749295 0.00724594 0.0465775)
(0.00226352 0.00717954 0.0466272)
(0.00381427 0.00712854 0.0467575)
(0.00543689 0.00712414 0.046966)
(0.00716662 0.00716663 0.0472481)
(0.00904356 0.00725735 0.0475963)
(0.011114 0.00739894 0.0479988)
(0.0134322 0.00759543 0.0484381)
(0.0160539 0.00785167 0.0488879)
(0.0191024 0.00832996 0.0493089)
(0.000763963 0.00921194 0.0470389)
(0.00230604 0.00911329 0.0470687)
(0.00387879 0.00903277 0.0471733)
(0.00551792 0.00900958 0.0473506)
(0.00725733 0.00904355 0.0475962)
(0.00913576 0.00913578 0.0479026)
(0.0111974 0.00928879 0.0482581)
(0.0134938 0.00950662 0.0486457)
(0.0160738 0.00979392 0.0490402)
(0.0190836 0.0103464 0.049405)
(0.000785412 0.0114167 0.047567)
(0.0023676 0.011274 0.0475751)
(0.00397358 0.0111521 0.0476515)
(0.00563977 0.0110991 0.0477941)
(0.00739893 0.0111139 0.0479987)
(0.00928875 0.0111974 0.048258)
(0.0113518 0.0113518 0.0485606)
(0.0136367 0.011581 0.0488895)
(0.0161856 0.0118891 0.0492202)
(0.0191748 0.0125056 0.0495189)
(0.000814796 0.0139283 0.048139)
(0.00245066 0.013726 0.0481258)
(0.00410193 0.0135473 0.0481725)
(0.00580622 0.01345 0.048278)
(0.00759543 0.0134322 0.0484381)
(0.00950659 0.0134937 0.0486455)
(0.0115809 0.0136367 0.0488893)
(0.0138648 0.0138648 0.0491526)
(0.0163928 0.0141819 0.0494115)
(0.0193772 0.0148513 0.0496344)
(0.000854037 0.0168273 0.04872)
(0.00255904 0.0165447 0.0486885)
(0.00426848 0.0162875 0.0487068)
(0.00602212 0.0161249 0.0487744)
(0.00785169 0.0160539 0.0488879)
(0.00979392 0.0160738 0.0490401)
(0.0118891 0.0161856 0.0492202)
(0.0141819 0.0163928 0.0494114)
(0.0166995 0.0166996 0.0495907)
(0.0196973 0.017412 0.0497279)
(0.000928644 0.0202094 0.0492558)
(0.00275478 0.0198277 0.0492138)
(0.00456908 0.0194724 0.0492087)
(0.00641656 0.0192314 0.0492413)
(0.00832997 0.0191024 0.0493089)
(0.0103464 0.0190836 0.049405)
(0.0125056 0.0191748 0.0495189)
(0.0148513 0.0193772 0.0496343)
(0.017412 0.0196973 0.0497279)
(0.0203778 0.0203778 0.0497699)
(0.000795945 0.00079595 0.0398951)
(0.0024029 0.000789972 0.0399145)
(0.00405377 0.000784841 0.0399497)
(0.00577914 0.000784034 0.0399927)
(0.00761195 0.000787595 0.04003)
(0.00958747 0.000795652 0.0400412)
(0.0117442 0.000808466 0.0399969)
(0.0141237 0.000826486 0.0398558)
(0.0167692 0.000850534 0.0395604)
(0.0197227 0.000901287 0.0390307)
(0.000789965 0.00240291 0.0399145)
(0.00238463 0.00238464 0.0399319)
(0.00402044 0.00236892 0.0399634)
(0.00572697 0.00236617 0.0400016)
(0.00753553 0.00237634 0.0400339)
(0.00947977 0.00239956 0.0400415)
(0.0115963 0.0024362 0.039997)
(0.013925 0.00248702 0.0398623)
(0.0165066 0.00255333 0.0395844)
(0.0193866 0.0026854 0.0390899)
(0.000784838 0.00405377 0.0399496)
(0.00236891 0.00402044 0.0399633)
(0.00399065 0.00399067 0.0399887)
(0.0056789 0.00398188 0.0400184)
(0.00746329 0.0039939 0.0400407)
(0.00937578 0.00402678 0.0400381)
(0.0114511 0.00408091 0.0399852)
(0.0137272 0.00415703 0.0398465)
(0.0162411 0.00425616 0.0395727)
(0.0190417 0.00445643 0.0390968)
(0.000784035 0.00577914 0.0399927)
(0.00236617 0.00572696 0.0400016)
(0.00398186 0.0056789 0.0400183)
(0.00565964 0.00565966 0.0400363)
(0.00742757 0.00566879 0.0400443)
(0.00931602 0.00570617 0.0400259)
(0.011358 0.00577205 0.0399571)
(0.0135892 0.00586696 0.039805)
(0.0160426 0.00599132 0.0395237)
(0.0187741 0.00625055 0.0390516)
(0.000787596 0.00761194 0.0400301)
(0.00237634 0.00753553 0.0400339)
(0.00399389 0.00746328 0.0400407)
(0.00566877 0.00742757 0.0400443)
(0.00742756 0.00742757 0.0400343)
(0.0092992 0.00746284 0.0399951)
(0.0113149 0.00753331 0.0399041)
(0.0135084 0.00763922 0.0397305)
(0.0159081 0.00778031 0.0394315)
(0.0185816 0.00808897 0.0389502)
(0.000795653 0.00958747 0.0400412)
(0.00239956 0.00947977 0.0400415)
(0.00402678 0.00937578 0.0400381)
(0.00570617 0.00931601 0.0400258)
(0.00746282 0.00929919 0.039995)
(0.00932441 0.00932443 0.039931)
(0.0113205 0.00939125 0.0398126)
(0.0134828 0.00949948 0.0396105)
(0.0158349 0.00964807 0.0392847)
(0.0184611 0.00999604 0.0387833)
(0.000808467 0.0117442 0.0399969)
(0.0024362 0.0115963 0.039997)
(0.00408092 0.0114511 0.0399853)
(0.00577205 0.011358 0.0399571)
(0.0075333 0.0113149 0.0399041)
(0.00939121 0.0113205 0.0398125)
(0.0113739 0.0113739 0.0396625)
(0.0135111 0.0114745 0.0394263)
(0.015821 0.0116204 0.0390664)
(0.0184091 0.0119964 0.0385352)
(0.000826488 0.0141237 0.0398558)
(0.00248702 0.013925 0.0398623)
(0.00415704 0.0137272 0.0398465)
(0.00586697 0.0135892 0.039805)
(0.00763923 0.0135084 0.0397305)
(0.00949946 0.0134828 0.0396103)
(0.0114745 0.013511 0.0394262)
(0.0135921 0.0135921 0.0391519)
(0.0158651 0.0137235 0.0387521)
(0.0184221 0.0141151 0.0381835)
(0.000850535 0.0167692 0.0395604)
(0.00255334 0.0165066 0.0395844)
(0.00425616 0.0162411 0.0395727)
(0.00599133 0.0160426 0.0395238)
(0.00778033 0.0159081 0.0394315)
(0.00964807 0.0158348 0.0392847)
(0.0116203 0.015821 0.0390664)
(0.0137235 0.0158651 0.0387521)
(0.0159646 0.0159646 0.038309)
(0.0184987 0.0163601 0.0376972)
(0.000901288 0.0197227 0.0390308)
(0.0026854 0.0193867 0.0390899)
(0.00445643 0.0190417 0.0390968)
(0.00625056 0.0187741 0.0390516)
(0.00808898 0.0185816 0.0389503)
(0.00999605 0.0184611 0.0387833)
(0.0119964 0.0184091 0.0385352)
(0.0141151 0.0184221 0.0381835)
(0.0163601 0.0184987 0.0376972)
(0.0188261 0.0188261 0.0370377)
(0.000781325 0.000781331 0.0340437)
(0.00235454 0.000774164 0.0340027)
(0.0039578 0.00076648 0.0339158)
(0.00561117 0.000761618 0.0337733)
(0.00733499 0.000759469 0.0335593)
(0.00914891 0.000759909 0.0332505)
(0.0110714 0.000762819 0.0328155)
(0.0131181 0.000768094 0.0322121)
(0.015299 0.000775706 0.0313852)
(0.0176132 0.000800632 0.0302638)
(0.000774157 0.00235454 0.0340027)
(0.00233289 0.00233291 0.0339634)
(0.00391961 0.00230975 0.0338786)
(0.00555375 0.0022951 0.033739)
(0.00725465 0.00228855 0.03353)
(0.00904112 0.00228961 0.0332301)
(0.010931 0.00229773 0.0328101)
(0.0129397 0.00231241 0.0322309)
(0.0150771 0.00233311 0.0314414)
(0.0173462 0.00239617 0.0303763)
(0.000766476 0.0039578 0.0339158)
(0.00230974 0.00391961 0.0338785)
(0.00387825 0.00387827 0.0337948)
(0.00549106 0.00385055 0.0336559)
(0.00716633 0.00383574 0.0334481)
(0.00892192 0.00383298 0.0331518)
(0.0107748 0.0038413 0.0327397)
(0.0127401 0.0038596 0.0321756)
(0.0148262 0.00388637 0.0314123)
(0.0170396 0.00397856 0.0303898)
(0.000761619 0.00561117 0.0337733)
(0.0022951 0.00555374 0.033739)
(0.00385054 0.00549106 0.0336558)
(0.00544687 0.00544688 0.0335159)
(0.00710104 0.00542009 0.0333066)
(0.00882994 0.00540946 0.0330095)
(0.0106497 0.00541356 0.0325993)
(0.0125746 0.00543067 0.0320426)
(0.0146113 0.00545824 0.0312957)
(0.0167711 0.00557324 0.0303036)
(0.00075947 0.00733499 0.0335593)
(0.00228856 0.00725465 0.03353)
(0.00383573 0.00716632 0.0334481)
(0.00542008 0.00710104 0.0333066)
(0.00705731 0.00705732 0.0330938)
(0.00876333 0.00703347 0.0327927)
(0.0105532 0.00702757 0.0323799)
(0.0124405 0.0070373 0.0318244)
(0.0144296 0.00705913 0.0310858)
(0.0165392 0.0071896 0.030114)
(0.00075991 0.00914891 0.0332505)
(0.00228961 0.00904112 0.0332301)
(0.00383298 0.00892192 0.0331518)
(0.00540945 0.00882993 0.0330094)
(0.00703345 0.00876332 0.0327926)
(0.00871994 0.00871995 0.0324859)
(0.010483 0.0086974 0.0320674)
(0.0123352 0.00869275 0.0315086)
(0.0142781 0.00870152 0.0307721)
(0.0163405 0.00883916 0.0298125)
(0.000762821 0.0110714 0.0328155)
(0.00229774 0.010931 0.0328101)
(0.0038413 0.0107748 0.0327397)
(0.00541357 0.0106497 0.0325993)
(0.00702756 0.0105532 0.0323799)
(0.00869737 0.010483 0.0320673)
(0.0104361 0.0104362 0.031642)
(0.0122552 0.0104092 0.0310772)
(0.0141533 0.0103968 0.0303386)
(0.0161707 0.0105322 0.0293854)
(0.000768096 0.0131181 0.0322121)
(0.00231241 0.0129397 0.0322309)
(0.0038596 0.0127401 0.0321756)
(0.00543068 0.0125746 0.0320426)
(0.00703731 0.0124405 0.0318244)
(0.00869273 0.0123351 0.0315085)
(0.0104092 0.0122552 0.0310771)
(0.012197 0.012197 0.0305059)
(0.0140514 0.0121546 0.0297635)
(0.0160244 0.0122774 0.0288134)
(0.000775707 0.015299 0.0313852)
(0.00233312 0.0150771 0.0314414)
(0.00388638 0.0148262 0.0314123)
(0.00545825 0.0146113 0.0312957)
(0.00705914 0.0144296 0.0310858)
(0.00870153 0.0142781 0.030772)
(0.0103968 0.0141533 0.0303386)
(0.0121546 0.0140514 0.0297635)
(0.0139665 0.0139665 0.0290184)
(0.0158963 0.0140672 0.0280705)
(0.000800633 0.0176132 0.0302638)
(0.00239617 0.0173462 0.0303763)
(0.00397857 0.0170396 0.0303898)
(0.00557324 0.0167711 0.0303036)
(0.00718961 0.0165392 0.030114)
(0.00883917 0.0163405 0.0298125)
(0.0105322 0.0161707 0.0293854)
(0.0122773 0.0160244 0.0288134)
(0.0140672 0.0158963 0.0280705)
(0.0159167 0.0159167 0.0271261)
(0.000721123 0.000721128 0.0284719)
(0.00216933 0.000713355 0.0283929)
(0.00363368 0.000703918 0.0282301)
(0.00512416 0.000695868 0.027975)
(0.00664982 0.000689026 0.0276134)
(0.00821736 0.00068315 0.0271259)
(0.00983015 0.000677942 0.0264869)
(0.0114864 0.000673039 0.025664)
(0.0131762 0.000668031 0.0246177)
(0.0148775 0.00067322 0.0233008)
(0.000713349 0.00216933 0.0283929)
(0.00214606 0.00214607 0.0283182)
(0.00359362 0.00211788 0.0281616)
(0.00506579 0.00209395 0.0279148)
(0.00657117 0.00207373 0.027565)
(0.00811627 0.00205647 0.0270942)
(0.00970461 0.00204127 0.0264785)
(0.0113352 0.00202709 0.025688)
(0.012999 0.00201269 0.0246858)
(0.0146769 0.00202292 0.0234283)
(0.000703914 0.00363368 0.0282301)
(0.00211787 0.00359362 0.0281616)
(0.00354485 0.00354487 0.0280116)
(0.00499458 0.00350278 0.0277726)
(0.00647496 0.00346647 0.0274328)
(0.00799223 0.00343474 0.0269755)
(0.00954988 0.0034061 0.0263788)
(0.0111474 0.00337876 0.025615)
(0.0127761 0.00335039 0.02465)
(0.014419 0.00336029 0.0234436)
(0.000695868 0.00512416 0.027975)
(0.00209395 0.00506579 0.0279148)
(0.00350277 0.00499458 0.0277726)
(0.00493221 0.00493222 0.0275415)
(0.00638942 0.00487747 0.0272106)
(0.0078802 0.00482871 0.0267646)
(0.00940789 0.00478393 0.0261836)
(0.0109722 0.00474064 0.0254418)
(0.0125641 0.00469547 0.0245081)
(0.0141696 0.00470167 0.0233457)
(0.000689027 0.00664982 0.0276134)
(0.00207373 0.00657116 0.027565)
(0.00346647 0.00647496 0.0274328)
(0.00487746 0.00638942 0.0272105)
(0.00631299 0.006313 0.0268886)
(0.00777839 0.00624369 0.0264531)
(0.0092767 0.00617899 0.0258856)
(0.0108076 0.00611582 0.0251627)
(0.0123616 0.00604987 0.0242559)
(0.0139281 0.00604789 0.023132)
(0.000683151 0.00821736 0.0271259)
(0.00205647 0.00811626 0.0270942)
(0.00343474 0.00799223 0.0269755)
(0.0048287 0.00788019 0.0267646)
(0.00624367 0.00777839 0.0264531)
(0.00768447 0.00768448 0.0260284)
(0.00915376 0.00759556 0.025474)
(0.0106511 0.00750804 0.0247685)
(0.0121658 0.00741681 0.0238859)
(0.0136922 0.00740133 0.0227968)
(0.000677943 0.00983015 0.0264869)
(0.00204128 0.00970461 0.0264785)
(0.00340611 0.00954988 0.0263788)
(0.00478393 0.00940789 0.0261836)
(0.00617899 0.00927669 0.0258855)
(0.00759554 0.00915375 0.0254739)
(0.00903587 0.00903589 0.0249338)
(0.0104993 0.00891914 0.0242459)
(0.0119737 0.00879776 0.0233869)
(0.0134582 0.00876273 0.0223307)
(0.00067304 0.0114864 0.0256641)
(0.0020271 0.0113352 0.025688)
(0.00337876 0.0111474 0.025615)
(0.00474065 0.0109722 0.0254419)
(0.00611583 0.0108076 0.0251627)
(0.00750802 0.0106511 0.0247684)
(0.00891911 0.0104992 0.0242458)
(0.0103481 0.0103481 0.0235781)
(0.0117812 0.0101915 0.0227441)
(0.0132214 0.0101306 0.0217213)
(0.000668032 0.0131762 0.0246177)
(0.00201269 0.012999 0.0246858)
(0.00335039 0.0127761 0.02465)
(0.00469547 0.0125641 0.0245081)
(0.00604988 0.0123616 0.0242559)
(0.00741681 0.0121658 0.0238859)
(0.00879774 0.0119737 0.0233868)
(0.0101915 0.0117812 0.0227441)
(0.0115827 0.0115827 0.0219392)
(0.0129768 0.0114905 0.0209526)
(0.000673221 0.0148775 0.0233008)
(0.00202292 0.0146769 0.0234283)
(0.00336029 0.014419 0.0234436)
(0.00470167 0.0141696 0.0233457)
(0.0060479 0.0139281 0.023132)
(0.00740134 0.0136922 0.0227968)
(0.00876273 0.0134582 0.0223307)
(0.0101306 0.0132214 0.0217213)
(0.0114905 0.0129768 0.0209526)
(0.012812 0.012812 0.0200066)
(0.000636092 0.000636096 0.02344)
(0.00191052 0.000628321 0.0233432)
(0.00319006 0.000618148 0.0231459)
(0.00447706 0.000608275 0.0228417)
(0.00577258 0.000598531 0.0224208)
(0.00707501 0.000588671 0.0218696)
(0.00837918 0.000578388 0.0211714)
(0.00967501 0.000567306 0.0203064)
(0.0109454 0.000554988 0.0192522)
(0.0121636 0.000548528 0.0179851)
(0.000628316 0.00191053 0.0233431)
(0.0018874 0.00188741 0.0232522)
(0.00315095 0.0018572 0.0230633)
(0.00442143 0.00182802 0.0227706)
(0.00569981 0.00179939 0.022365)
(0.0069847 0.00177064 0.021834)
(0.00827147 0.00174091 0.0211621)
(0.00955107 0.00170922 0.0203307)
(0.0108076 0.00167442 0.0193191)
(0.0120161 0.0016535 0.018105)
(0.000618146 0.00319006 0.0231458)
(0.00185719 0.00315095 0.0230633)
(0.00309971 0.00309971 0.0228846)
(0.0043484 0.00304993 0.0226043)
(0.00560398 0.00300083 0.022214)
(0.00686516 0.00295134 0.0217023)
(0.00812775 0.00290013 0.0210551)
(0.00938355 0.00284557 0.0202553)
(0.0106176 0.00278567 0.0192835)
(0.0118058 0.0027475 0.0181193)
(0.000608276 0.00447706 0.0228417)
(0.00182802 0.00442143 0.0227706)
(0.00304992 0.0043484 0.0226043)
(0.00427707 0.00427707 0.0223377)
(0.0055098 0.00420645 0.0219633)
(0.00674682 0.00413512 0.021471)
(0.00798422 0.00406133 0.0208476)
(0.00921449 0.0039829 0.0200778)
(0.010423 0.00389705 0.0191437)
(0.0115868 0.00384053 0.018027)
(0.000598532 0.00577258 0.0224208)
(0.00179939 0.00569981 0.022365)
(0.00300082 0.00560397 0.0222139)
(0.00420644 0.0055098 0.0219633)
(0.0054161 0.0054161 0.0216065)
(0.00662842 0.00532122 0.0211343)
(0.00783963 0.00522303 0.020535)
(0.00904275 0.00511894 0.0197947)
(0.0102233 0.0050055 0.0188973)
(0.0113594 0.00492871 0.0178266)
(0.000588672 0.00707501 0.0218696)
(0.00177064 0.0069847 0.021834)
(0.00295134 0.00686516 0.0217023)
(0.00413512 0.00674682 0.021471)
(0.00532121 0.00662841 0.0211342)
(0.0065081 0.00650811 0.0206841)
(0.00769209 0.00638354 0.0201103)
(0.00886654 0.0062518 0.0194004)
(0.0100169 0.0061089 0.01854)
(0.0111224 0.00600944 0.0175149)
(0.000578389 0.00837918 0.0211714)
(0.00174091 0.00827147 0.0211621)
(0.00290013 0.00812775 0.0210552)
(0.00406133 0.00798422 0.0208476)
(0.00522302 0.00783963 0.020535)
(0.00638352 0.00769209 0.0201103)
(0.00753916 0.00753917 0.0195648)
(0.0086835 0.00737778 0.0188874)
(0.00980158 0.00720359 0.0180656)
(0.0108737 0.00707873 0.0170873)
(0.000567307 0.00967501 0.0203064)
(0.00170922 0.00955107 0.0203307)
(0.00284558 0.00938355 0.0202553)
(0.00398291 0.00921449 0.0200778)
(0.00511895 0.00904274 0.0197947)
(0.00625179 0.00886653 0.0194003)
(0.00737776 0.00868349 0.0188873)
(0.00849063 0.00849064 0.0182463)
(0.00957479 0.0082836 0.0174665)
(0.0106103 0.00813081 0.0165376)
(0.000554988 0.0109454 0.0192522)
(0.00167442 0.0108076 0.0193191)
(0.00278567 0.0106176 0.0192835)
(0.00389705 0.010423 0.0191437)
(0.0050055 0.0102233 0.0188973)
(0.00610891 0.0100169 0.01854)
(0.00720358 0.00980157 0.0180656)
(0.00828358 0.00957479 0.0174664)
(0.00933263 0.00933263 0.0167334)
(0.0103292 0.00915046 0.0158582)
(0.000548528 0.0121637 0.0179851)
(0.00165351 0.0120161 0.018105)
(0.0027475 0.0118058 0.0181193)
(0.00384053 0.0115868 0.018027)
(0.00492872 0.0113594 0.0178266)
(0.00600944 0.0111224 0.0175149)
(0.00707873 0.0108737 0.0170873)
(0.00813081 0.0106103 0.0165376)
(0.00915046 0.0103292 0.0158582)
(0.0100909 0.0100909 0.0150418)
(0.000542853 0.000542856 0.0190697)
(0.00162831 0.00053556 0.0189701)
(0.00271161 0.000525559 0.0187683)
(0.00379035 0.000515181 0.0184607)
(0.00486104 0.000504301 0.0180412)
(0.00591794 0.000492741 0.0175024)
(0.00695257 0.00048027 0.0168355)
(0.00795288 0.000466616 0.0160309)
(0.00890215 0.000451474 0.0150794)
(0.00977778 0.000439917 0.0139735)
(0.000535557 0.00162831 0.0189701)
(0.00160672 0.00160672 0.0188768)
(0.00267556 0.00157714 0.0186843)
(0.00373999 0.00154658 0.0183892)
(0.00479664 0.00151473 0.017986)
(0.00584016 0.00148112 0.0174678)
(0.0068627 0.00144516 0.0168265)
(0.00785315 0.0014062 0.016053)
(0.00879582 0.0013635 0.0151387)
(0.00966866 0.00132911 0.0140763)
(0.000525558 0.00271161 0.0187683)
(0.00157713 0.00267556 0.0186843)
(0.00262604 0.00262604 0.0185036)
(0.00367059 0.00257475 0.0182229)
(0.00470743 0.00252121 0.0178374)
(0.00573154 0.00246469 0.0173408)
(0.0067356 0.00240428 0.0167256)
(0.00770944 0.00233892 0.0159837)
(0.00863819 0.00226735 0.0151069)
(0.00949986 0.00220889 0.0140886)
(0.000515181 0.00379035 0.0184607)
(0.00154658 0.00373999 0.0183892)
(0.00257475 0.00367059 0.0182229)
(0.00359856 0.00359857 0.0179589)
(0.00461454 0.00352329 0.0175928)
(0.0056179 0.00344385 0.0171191)
(0.00660179 0.00335908 0.0165311)
(0.0075568 0.00326758 0.0158214)
(0.00846862 0.00316761 0.0149827)
(0.009315 0.0030854 0.0140091)
(0.000504302 0.00486103 0.0180412)
(0.00151473 0.00479664 0.017986)
(0.00252121 0.00470743 0.0178374)
(0.00352329 0.00461454 0.0175928)
(0.00451729 0.00451729 0.0172486)
(0.00549858 0.00441463 0.0167998)
(0.00646069 0.0043052 0.0162406)
(0.00739483 0.00418737 0.0155645)
(0.00828711 0.00405902 0.0147651)
(0.00911486 0.00395294 0.0138372)
(0.000492741 0.00591794 0.0175024)
(0.00148112 0.00584016 0.0174678)
(0.00246469 0.00573153 0.0173408)
(0.00344385 0.00561789 0.0171191)
(0.00441462 0.00549858 0.0167997)
(0.00537248 0.00537249 0.0163786)
(0.00631126 0.00523818 0.0158507)
(0.0072227 0.00509389 0.0152104)
(0.00809308 0.00493721 0.0144522)
(0.00889926 0.00480697 0.0135719)
(0.000480271 0.00695257 0.0168355)
(0.00144516 0.0068627 0.0168265)
(0.00240428 0.0067356 0.0167256)
(0.00335908 0.00660179 0.0165311)
(0.0043052 0.00646069 0.0162405)
(0.00523817 0.00631126 0.0158507)
(0.0061521 0.0061521 0.0153574)
(0.00703915 0.00598145 0.0147559)
(0.00788562 0.00579675 0.0140416)
(0.00866741 0.00564207 0.0132114)
(0.000466617 0.00795288 0.0160309)