/*--------------------------------*- C++ -*----------------------------------*\
| =========                 |                                                 |
| \\      /  F ield         | foam-extend: Open Source CFD                    |
|  \\    /   O peration     | Version:     3.1                                |
|   \\  /    A nd           | Web:         http://www.extend-project.de       |
|    \\/     M anipulation  |                                                 |
\*---------------------------------------------------------------------------*/
FoamFile
{
    version     2.0;
    format      ascii;
    class       volVectorField;
    location    "0.1";
    object      cellMotionU;
}
// * * * * * * * * * * * * * * * * * * * * * * * * * * * * * * * * * * * * * //

dimensions      [0 1 -1 0 0 0 0];

internalField   nonuniform List<vector> 
14592
(
(1.72744e-10 2.64082e-10 -2.76628e-11)
(4.98545e-10 7.7003e-10 -8.04644e-11)
(7.88553e-10 1.24345e-09 -1.29127e-10)
(1.04755e-09 1.70345e-09 -1.74682e-10)
(1.27829e-09 2.16465e-09 -2.16798e-10)
(1.48106e-09 2.63715e-09 -2.53145e-10)
(1.65308e-09 3.12573e-09 -2.78338e-10)
(1.78784e-09 3.62844e-09 -2.82133e-10)
(1.87474e-09 4.13309e-09 -2.46581e-10)
(1.90035e-09 4.6125e-09 -1.41376e-10)
(1.85444e-09 5.01647e-09 8.34109e-11)
(1.74802e-09 5.26117e-09 5.08627e-10)
(1.65988e-09 5.22001e-09 1.26328e-09)
(1.83731e-09 4.73142e-09 2.54641e-09)
(2.83939e-09 3.68884e-09 4.60961e-09)
(5.13405e-09 2.44246e-09 7.25912e-09)
(5.16657e-10 7.83182e-10 -8.31481e-11)
(1.49131e-09 2.28393e-09 -2.41995e-10)
(2.35948e-09 3.68846e-09 -3.88852e-10)
(3.13595e-09 5.05402e-09 -5.27209e-10)
(3.82957e-09 6.42448e-09 -6.567e-10)
(4.44206e-09 7.83059e-09 -7.71397e-10)
(4.96628e-09 9.28837e-09 -8.56898e-10)
(5.38397e-09 1.07949e-08 -8.85544e-10)
(5.66377e-09 1.23195e-08 -8.08746e-10)
(5.76221e-09 1.3791e-08 -5.44795e-10)
(5.63346e-09 1.50759e-08 3.92113e-11)
(5.26357e-09 1.59514e-08 1.15345e-09)
(4.7578e-09 1.60775e-08 3.11663e-09)
(4.52307e-09 1.5008e-08 6.37045e-09)
(5.49399e-09 1.23821e-08 1.13284e-08)
(8.42642e-09 8.9059e-09 1.71116e-08)
(8.55773e-10 1.27551e-09 -1.39003e-10)
(2.47071e-09 3.71991e-09 -4.04997e-10)
(3.9111e-09 6.00895e-09 -6.5229e-10)
(5.20282e-09 8.23676e-09 -8.87946e-10)
(6.36252e-09 1.04764e-08 -1.11328e-09)
(7.39588e-09 1.27807e-08 -1.32159e-09)
(8.29509e-09 1.51811e-08 -1.49421e-09)
(9.03459e-09 1.76807e-08 -1.59423e-09)
(9.56635e-09 2.02463e-08 -1.55607e-09)
(9.81475e-09 2.27883e-08 -1.2702e-09)
(9.67662e-09 2.51368e-08 -5.6086e-10)
(9.03561e-09 2.70038e-08 8.40885e-10)
(7.81439e-09 2.79513e-08 3.3179e-09)
(6.09983e-09 2.74025e-08 7.33117e-09)
(4.3574e-09 2.48675e-08 1.3125e-08)
(3.45789e-09 2.10626e-08 1.92599e-08)
(1.18638e-09 1.72375e-09 -1.95119e-10)
(3.42631e-09 5.02792e-09 -5.69278e-10)
(5.42758e-09 8.12441e-09 -9.19644e-10)
(7.22873e-09 1.11422e-08 -1.25834e-09)
(8.85654e-09 1.41828e-08 -1.59066e-09)
(1.03246e-08 1.73225e-08 -1.9129e-09)
(1.16303e-08 2.06117e-08 -2.20855e-09)
(1.27496e-08 2.40701e-08 -2.44187e-09)
(1.36293e-08 2.76783e-08 -2.54791e-09)
(1.41752e-08 3.13617e-08 -2.41761e-09)
(1.42356e-08 3.49674e-08 -1.87781e-09)
(1.35827e-08 3.82337e-08 -6.68483e-10)
(1.19034e-08 4.07616e-08 1.56768e-09)
(8.8545e-09 4.20322e-08 5.23427e-09)
(4.37979e-09 4.16105e-08 1.04925e-08)
(-1.25983e-10 3.99328e-08 1.59878e-08)
(1.5043e-09 2.11187e-09 -2.50941e-10)
(4.34599e-09 6.16115e-09 -7.3326e-10)
(6.88975e-09 9.95912e-09 -1.18841e-09)
(9.18826e-09 1.36664e-08 -1.63502e-09)
(1.12809e-08 1.74108e-08 -2.08465e-09)
(1.31935e-08 2.12923e-08 -2.54025e-09)
(1.49356e-08 2.53818e-08 -2.99359e-09)
(1.64965e-08 2.9723e-08 -3.42003e-09)
(1.78373e-08 3.43229e-08 -3.77135e-09)
(1.88767e-08 3.91462e-08 -3.96427e-09)
(1.94665e-08 4.40995e-08 -3.86569e-09)
(1.9352e-08 4.90149e-08 -3.2751e-09)
(1.81177e-08 5.36308e-08 -1.91185e-09)
(1.51733e-08 5.75915e-08 5.65295e-10)
(1.0067e-08 6.05129e-08 4.38586e-09)
(4.18851e-09 6.20786e-08 8.68702e-09)
(1.8048e-09 2.42548e-09 -3.05505e-10)
(5.21597e-09 7.07733e-09 -8.93955e-10)
(8.27518e-09 1.14447e-08 -1.45333e-09)
(1.105e-08 1.57145e-08 -2.00981e-09)
(1.35943e-08 2.00378e-08 -2.58275e-09)
(1.59491e-08 2.45343e-08 -3.18453e-09)
(1.81425e-08 2.92969e-08 -3.81924e-09)
(2.01881e-08 3.43908e-08 -4.48044e-09)
(2.20811e-08 3.98549e-08 -5.14703e-09)
(2.37905e-08 4.56987e-08 -5.77794e-09)
(2.5243e-08 5.19017e-08 -6.30424e-09)
(2.62928e-08 5.84128e-08 -6.61812e-09)
(2.66676e-08 6.51472e-08 -6.55526e-09)
(2.59033e-08 7.19664e-08 -5.8639e-09)
(2.34184e-08 7.85534e-08 -4.19575e-09)
(1.95727e-08 8.36475e-08 -1.63418e-09)
(2.08291e-09 2.65234e-09 -3.57451e-10)
(6.0215e-09 7.74093e-09 -1.04727e-09)
(9.55929e-09 1.2523e-08 -1.70706e-09)
(1.27785e-08 1.72057e-08 -2.37086e-09)
(1.57475e-08 2.19576e-08 -3.0664e-09)
(1.85236e-08 2.69139e-08 -3.81639e-09)
(2.1156e-08 3.21828e-08 -4.63882e-09)
(2.36876e-08 3.78473e-08 -5.54733e-09)
(2.61585e-08 4.39679e-08 -6.55106e-09)
(2.86091e-08 5.05859e-08 -7.6549e-09)
(3.10867e-08 5.77312e-08 -8.85986e-09)
(3.36531e-08 6.54352e-08 -1.01629e-08)
(3.63954e-08 7.37551e-08 -1.15477e-08)
(3.94165e-08 8.2781e-08 -1.29407e-08)
(4.26732e-08 9.24319e-08 -1.40662e-08)
(4.5126e-08 1.00817e-07 -1.42764e-08)
(2.33361e-09 2.78295e-09 -4.05301e-10)
(6.74786e-09 8.1244e-09 -1.18857e-09)
(1.07174e-08 1.31493e-08 -1.94127e-09)
(1.43375e-08 1.8078e-08 -2.7047e-09)
(1.76891e-08 2.30886e-08 -3.51449e-09)
(2.08443e-08 2.83262e-08 -4.40262e-09)
(2.38704e-08 3.39063e-08 -5.39962e-09)
(2.68363e-08 3.99191e-08 -6.53646e-09)
(2.98209e-08 4.64304e-08 -7.8473e-09)
(3.2926e-08 5.34854e-08 -9.37343e-09)
(3.63001e-08 6.11123e-08 -1.11697e-08)
(4.01814e-08 6.93362e-08 -1.33128e-08)
(4.49829e-08 7.82098e-08 -1.59111e-08)
(5.14513e-08 8.78873e-08 -1.90995e-08)
(6.07909e-08 9.86851e-08 -2.29461e-08)
(7.26792e-08 1.09515e-07 -2.68029e-08)
(1.78712e-10 2.75245e-10 -2.6398e-11)
(5.15997e-10 8.02936e-10 -7.67656e-11)
(8.16922e-10 1.29766e-09 -1.23136e-10)
(1.08689e-09 1.78008e-09 -1.66467e-10)
(1.32919e-09 2.26602e-09 -2.06415e-10)
(1.54468e-09 2.76658e-09 -2.40723e-10)
(1.73117e-09 3.28736e-09 -2.64191e-10)
(1.88307e-09 3.82653e-09 -2.6699e-10)
(1.99147e-09 4.37155e-09 -2.31932e-10)
(2.04657e-09 4.89334e-09 -1.3022e-10)
(2.04606e-09 5.33771e-09 8.49697e-11)
(2.01824e-09 5.61437e-09 4.87416e-10)
(2.07531e-09 5.58806e-09 1.18778e-09)
(2.51287e-09 5.09228e-09 2.333e-09)
(3.888e-09 4.03179e-09 4.03287e-09)
(6.41136e-09 2.76735e-09 5.91702e-09)
(5.34481e-10 8.16346e-10 -7.93526e-11)
(1.54341e-09 2.38148e-09 -2.30903e-10)
(2.4442e-09 3.84939e-09 -3.70864e-10)
(3.25347e-09 5.28155e-09 -5.02516e-10)
(3.98172e-09 6.72559e-09 -6.25443e-10)
(4.63232e-09 8.2155e-09 -7.33893e-10)
(5.19993e-09 9.76969e-09 -8.14012e-10)
(5.66881e-09 1.13862e-08 -8.39291e-10)
(6.01219e-09 1.30337e-08 -7.63286e-10)
(6.1958e-09 1.46365e-08 -5.08555e-10)
(6.19398e-09 1.60518e-08 4.93931e-11)
(6.03498e-09 1.70399e-08 1.10182e-09)
(5.90533e-09 1.72403e-08 2.9208e-09)
(6.32989e-09 1.61997e-08 5.82352e-09)
(8.2635e-09 1.36204e-08 9.91667e-09)
(1.19532e-08 1.03507e-08 1.40437e-08)
(8.85179e-10 1.32949e-09 -1.32686e-10)
(2.55672e-09 3.87901e-09 -3.86504e-10)
(4.05102e-09 6.27139e-09 -6.22275e-10)
(5.39702e-09 8.60805e-09 -8.46663e-10)
(6.61417e-09 1.09683e-08 -1.06086e-09)
(7.71092e-09 1.34107e-08 -1.25837e-09)
(8.68232e-09 1.59704e-08 -1.4214e-09)
(9.50679e-09 1.86546e-08 -1.51462e-09)
(1.01424e-08 2.14294e-08 -1.47577e-09)
(1.05256e-08 2.42027e-08 -1.2013e-09)
(1.05772e-08 2.67934e-08 -5.2749e-10)
(1.02303e-08 2.88959e-08 7.89347e-10)
(9.50077e-09 3.00475e-08 3.07253e-09)
(8.61873e-09 2.96642e-08 6.63432e-09)
(8.13064e-09 2.73379e-08 1.13833e-08)
(8.47595e-09 2.39908e-08 1.56702e-08)
(1.22694e-09 1.79681e-09 -1.8629e-10)
(3.54493e-09 5.24322e-09 -5.43422e-10)
(5.62063e-09 8.4797e-09 -8.77616e-10)
(7.49689e-09 1.16453e-08 -1.20038e-09)
(9.20452e-09 1.48504e-08 -1.51675e-09)
(1.07609e-08 1.8179e-08 -1.82324e-09)
(1.21676e-08 2.16885e-08 -2.10422e-09)
(1.34056e-08 2.54045e-08 -2.32594e-09)
(1.44292e-08 2.93117e-08 -2.4272e-09)
(1.51565e-08 3.33357e-08 -2.30598e-09)
(1.54588e-08 3.73199e-08 -1.80206e-09)
(1.51522e-08 4.09905e-08 -6.81867e-10)
(1.40064e-08 4.39283e-08 1.35306e-09)
(1.18169e-08 4.55896e-08 4.56285e-09)
(8.66933e-09 4.55272e-08 8.78531e-09)
(5.68159e-09 4.41886e-08 1.24488e-08)
(1.55533e-09 2.20148e-09 -2.3965e-10)
(4.4953e-09 6.42516e-09 -7.00161e-10)
(7.1329e-09 1.03952e-08 -1.1345e-09)
(9.52632e-09 1.42844e-08 -1.56046e-09)
(1.17202e-08 1.82322e-08 -1.98911e-09)
(1.37454e-08 2.23479e-08 -2.42358e-09)
(1.56169e-08 2.67136e-08 -2.85635e-09)
(1.73307e-08 3.13808e-08 -3.26495e-09)
(1.88566e-08 3.63665e-08 -3.60488e-09)
(2.01269e-08 4.16426e-08 -3.79983e-09)
(2.10154e-08 4.71222e-08 -3.72902e-09)
(2.13049e-08 5.26394e-08 -3.21495e-09)
(2.06459e-08 5.79223e-08 -2.02541e-09)
(1.85591e-08 6.25629e-08 6.46991e-11)
(1.4729e-08 6.60003e-08 3.0112e-09)
(1.03676e-08 6.76199e-08 5.72805e-09)
(1.86545e-09 2.52843e-09 -2.91826e-10)
(5.39345e-09 7.38097e-09 -8.53825e-10)
(8.5643e-09 1.19463e-08 -1.38786e-09)
(1.14523e-08 1.64262e-08 -1.91897e-09)
(1.41177e-08 2.09845e-08 -2.46586e-09)
(1.66079e-08 2.57538e-08 -3.04075e-09)
(1.89578e-08 3.08386e-08 -3.64848e-09)
(2.11897e-08 3.63178e-08 -4.2843e-09)
(2.33103e-08 4.22434e-08 -4.93081e-09)
(2.53048e-08 4.86406e-08 -5.55313e-09)
(2.71256e-08 5.55073e-08 -6.09278e-09)
(2.86656e-08 6.28114e-08 -6.45962e-09)
(2.97101e-08 7.04761e-08 -6.52184e-09)
(2.98632e-08 7.82954e-08 -6.10226e-09)
(2.85628e-08 8.562e-08 -5.04262e-09)
(2.59142e-08 9.05556e-08 -3.64076e-09)
(2.15209e-09 2.76502e-09 -3.41521e-10)
(6.22398e-09 8.0733e-09 -1.00049e-09)
(9.8892e-09 1.30724e-08 -1.63061e-09)
(1.32377e-08 1.79859e-08 -2.26447e-09)
(1.63453e-08 2.29961e-08 -2.92896e-09)
(1.92769e-08 2.82532e-08 -3.6463e-09)
(2.20901e-08 3.38791e-08 -4.43496e-09)
(2.48384e-08 3.99722e-08 -5.31e-09)
(2.75762e-08 4.66104e-08 -6.2836e-09)
(3.03651e-08 5.38558e-08 -7.36594e-09)
(3.32846e-08 6.17645e-08 -8.56653e-09)
(3.64459e-08 7.04023e-08 -9.8942e-09)
(4.00016e-08 7.98553e-08 -1.13493e-08)
(4.40947e-08 9.0164e-08 -1.28849e-08)
(4.8522e-08 1.00858e-07 -1.42909e-08)
(5.16634e-08 1.09163e-07 -1.50345e-08)
(2.41008e-09 2.90133e-09 -3.87293e-10)
(6.97161e-09 8.47329e-09 -1.1357e-09)
(1.1082e-08 1.37266e-08 -1.8547e-09)
(1.48448e-08 1.88977e-08 -2.58401e-09)
(1.83495e-08 2.41811e-08 -3.35793e-09)
(2.16764e-08 2.97358e-08 -4.20794e-09)
(2.49025e-08 3.56931e-08 -5.16455e-09)
(2.81088e-08 4.2159e-08 -6.25974e-09)
(3.13904e-08 4.92177e-08 -7.53003e-09)
(3.48736e-08 5.69355e-08 -9.02104e-09)
(3.87445e-08 6.53681e-08 -1.07938e-08)
(4.3299e-08 7.45749e-08 -1.2933e-08)
(4.90284e-08 8.46433e-08 -1.55515e-08)
(5.67251e-08 9.57079e-08 -1.87722e-08)
(6.73426e-08 1.0778e-07 -2.25969e-08)
(7.95778e-08 1.18898e-07 -2.62577e-08)
(1.84173e-10 2.8556e-10 -2.41926e-11)
(5.31973e-10 8.33329e-10 -7.03504e-11)
(8.42914e-10 1.34787e-09 -1.12838e-10)
(1.12292e-09 1.85113e-09 -1.52551e-10)
(1.37578e-09 2.36016e-09 -1.89215e-10)
(1.60277e-09 2.88703e-09 -2.20849e-10)
(1.80219e-09 3.43809e-09 -2.42894e-10)
(1.9691e-09 4.01204e-09 -2.46773e-10)
(2.09575e-09 4.59626e-09 -2.17704e-10)
(2.17465e-09 5.161e-09 -1.31428e-10)
(2.20821e-09 5.65074e-09 5.01621e-11)
(2.23335e-09 5.97385e-09 3.83796e-10)
(2.37524e-09 5.99709e-09 9.46737e-10)
(2.93902e-09 5.5674e-09 1.82425e-09)
(4.46101e-09 4.62639e-09 3.04312e-09)
(7.07717e-09 3.56491e-09 4.30071e-09)
(5.50781e-10 8.4692e-10 -7.27301e-11)
(1.59111e-09 2.47174e-09 -2.11615e-10)
(2.52182e-09 3.9984e-09 -3.39878e-10)
(3.36111e-09 5.49252e-09 -4.60561e-10)
(4.12093e-09 7.00526e-09 -5.73404e-10)
(4.80596e-09 8.57357e-09 -6.73421e-10)
(5.41224e-09 1.02183e-08 -7.48508e-10)
(5.9259e-09 1.19392e-08 -7.75631e-10)
(6.32318e-09 1.37052e-08 -7.15005e-10)
(6.57588e-09 1.54395e-08 -5.01611e-10)
(6.67012e-09 1.69955e-08 -3.46172e-11)
(6.65603e-09 1.81303e-08 8.32179e-10)
(6.75274e-09 1.84873e-08 2.28579e-09)
(7.51143e-09 1.76455e-08 4.49705e-09)
(9.84443e-09 1.53916e-08 7.40731e-09)
(1.3818e-08 1.26128e-08 1.01096e-08)
(9.12083e-10 1.37939e-09 -1.2162e-10)
(2.63544e-09 4.02608e-09 -3.54269e-10)
(4.17914e-09 6.51437e-09 -5.70372e-10)
(5.57481e-09 8.95229e-09 -7.76126e-10)
(6.84426e-09 1.14251e-08 -9.72829e-10)
(7.99814e-09 1.39962e-08 -1.15503e-09)
(9.03375e-09 1.67057e-08 -1.30731e-09)
(9.93215e-09 1.95635e-08 -1.39939e-09)
(1.06557e-08 2.25383e-08 -1.37832e-09)
(1.11482e-08 2.55367e-08 -1.15811e-09)
(1.13451e-08 2.83748e-08 -6.07435e-10)
(1.1205e-08 3.07418e-08 4.57192e-10)
(1.07836e-08 3.21764e-08 2.25092e-09)
(1.03465e-08 3.2122e-08 4.91408e-09)
(1.04023e-08 3.02451e-08 8.20034e-09)
(1.11629e-08 2.74645e-08 1.0856e-08)
(1.26401e-09 1.86426e-09 -1.70784e-10)
(3.65345e-09 5.44217e-09 -4.98184e-10)
(5.79734e-09 8.80856e-09 -8.04573e-10)
(7.74226e-09 1.21116e-08 -1.10063e-09)
(9.52237e-09 1.54697e-08 -1.39131e-09)
(1.11582e-08 1.89744e-08 -1.67403e-09)
(1.26542e-08 2.26897e-08 -1.9358e-09)
(1.3995e-08 2.66472e-08 -2.14826e-09)
(1.51394e-08 3.08355e-08 -2.26054e-09)
(1.6013e-08 3.51834e-08 -2.18953e-09)
(1.65001e-08 3.95324e-08 -1.80972e-09)
(1.64393e-08 4.36039e-08 -9.4999e-10)
(1.56347e-08 4.69706e-08 5.78908e-10)
(1.39167e-08 4.90847e-08 2.87012e-09)
(1.13461e-08 4.95066e-08 5.62315e-09)
(8.81049e-09 4.86394e-08 7.67758e-09)
(1.60197e-09 2.28416e-09 -2.1974e-10)
(4.63187e-09 6.66926e-09 -6.41975e-10)
(7.35535e-09 1.07987e-08 -1.04028e-09)
(9.83544e-09 1.48571e-08 -1.43113e-09)
(1.21211e-08 1.89937e-08 -1.82511e-09)
(1.42471e-08 2.33278e-08 -2.22586e-09)
(1.62325e-08 2.795e-08 -2.62816e-09)
(1.80776e-08 3.29211e-08 -3.01433e-09)
(1.97574e-08 3.82656e-08 -3.3494e-09)
(2.12111e-08 4.39621e-08 -3.57437e-09)
(2.23233e-08 4.99271e-08 -3.59957e-09)
(2.28929e-08 5.59904e-08 -3.30283e-09)
(2.25924e-08 6.18605e-08 -2.54731e-09)
(2.09618e-08 6.7078e-08 -1.25484e-09)
(1.766e-08 7.09893e-08 4.00135e-10)
(1.37073e-08 7.28938e-08 1.6719e-09)
(1.92087e-09 2.62353e-09 -2.67611e-10)
(5.55571e-09 7.6615e-09 -7.83003e-10)
(8.82872e-09 1.24105e-08 -1.27282e-09)
(1.182e-08 1.70853e-08 -1.76029e-09)
(1.45949e-08 2.18621e-08 -2.26303e-09)
(1.72059e-08 2.68844e-08 -2.79325e-09)
(1.96931e-08 3.22687e-08 -3.3571e-09)
(2.20839e-08 3.81045e-08 -3.95358e-09)
(2.43911e-08 4.44557e-08 -4.57253e-09)
(2.6608e-08 5.13585e-08 -5.19263e-09)
(2.86964e-08 5.88191e-08 -5.77925e-09)
(3.05603e-08 6.6805e-08 -6.28379e-09)
(3.1992e-08 7.52119e-08 -6.64586e-09)
(3.25831e-08 8.37418e-08 -6.80194e-09)
(3.17074e-08 9.15558e-08 -6.71441e-09)
(2.93266e-08 9.66211e-08 -6.47383e-09)
(2.21529e-09 2.86903e-09 -3.13226e-10)
(6.40906e-09 8.38029e-09 -9.17615e-10)
(1.01908e-08 1.35806e-08 -1.49566e-09)
(1.36572e-08 1.87078e-08 -2.07754e-09)
(1.68901e-08 2.39583e-08 -2.68837e-09)
(1.99604e-08 2.94943e-08 -3.34972e-09)
(2.29314e-08 3.5451e-08 -4.08032e-09)
(2.58635e-08 4.19399e-08 -4.89728e-09)
(2.88184e-08 4.90529e-08 -5.81744e-09)
(3.18671e-08 5.68661e-08 -6.85968e-09)
(3.50997e-08 6.54486e-08 -8.04838e-09)
(3.86366e-08 7.4869e-08 -9.41735e-09)
(4.26259e-08 8.51868e-08 -1.10072e-08)
(4.71607e-08 9.63362e-08 -1.28338e-08)
(5.19014e-08 1.07607e-07 -1.47638e-08)
(5.51005e-08 1.16021e-07 -1.61934e-08)
(2.47992e-09 3.01042e-09 -3.55247e-10)
(7.17615e-09 8.79564e-09 -1.0417e-09)
(1.14153e-08 1.42601e-08 -1.70136e-09)
(1.53083e-08 1.96565e-08 -2.3708e-09)
(1.89513e-08 2.51925e-08 -3.08224e-09)
(2.24312e-08 3.10414e-08 -3.86545e-09)
(2.58318e-08 3.73477e-08 -4.75033e-09)
(2.92415e-08 4.42315e-08 -5.76932e-09)
(3.27642e-08 5.17915e-08 -6.961e-09)
(3.65364e-08 6.01086e-08 -8.37514e-09)
(4.0756e-08 6.92512e-08 -1.00798e-08)
(4.57281e-08 7.92828e-08 -1.21691e-08)
(5.19339e-08 9.02669e-08 -1.47664e-08)
(6.00934e-08 1.02244e-07 -1.80007e-08)
(7.09607e-08 1.15008e-07 -2.18659e-08)
(8.30503e-08 1.26378e-07 -2.5562e-08)
(1.88966e-10 2.94714e-10 -2.11229e-11)
(5.45995e-10 8.60352e-10 -6.14281e-11)
(8.65698e-10 1.39249e-09 -9.85548e-11)
(1.15445e-09 1.91434e-09 -1.33317e-10)
(1.41637e-09 2.44397e-09 -1.65553e-10)
(1.65301e-09 2.99436e-09 -1.93698e-10)
(1.8629e-09 3.57262e-09 -2.14093e-10)
(2.04124e-09 4.17796e-09 -2.19931e-10)
(2.18048e-09 4.79804e-09 -1.99669e-10)
(2.27348e-09 5.40298e-09 -1.34911e-10)
(2.32317e-09 5.93685e-09 2.0457e-12)
(2.36685e-09 6.30819e-09 2.4996e-10)
(2.52769e-09 6.38616e-09 6.56824e-10)
(3.1007e-09 6.02522e-09 1.26745e-09)
(4.59699e-09 5.17774e-09 2.08075e-09)
(7.13734e-09 4.21886e-09 2.89466e-09)
(5.65091e-10 8.74107e-10 -6.35014e-11)
(1.63296e-09 2.55184e-09 -1.84792e-10)
(2.58984e-09 4.13081e-09 -2.96869e-10)
(3.45525e-09 5.68015e-09 -4.02506e-10)
(4.24217e-09 7.25413e-09 -5.01708e-10)
(4.9561e-09 8.8925e-09 -5.9058e-10)
(5.5937e-09 1.06184e-08 -6.59505e-10)
(6.14147e-09 1.24334e-08 -6.90312e-10)
(6.57609e-09 1.43073e-08 -6.52118e-10)
(6.86982e-09 1.6163e-08 -4.95953e-10)
(7.0096e-09 1.78533e-08 -1.49012e-10)
(7.04541e-09 1.91349e-08 4.87449e-10)
(7.18996e-09 1.96563e-08 1.52665e-09)
(7.9675e-09 1.90122e-08 3.04762e-09)
(1.02274e-08 1.7009e-08 4.96024e-09)
(1.4001e-08 1.44787e-08 6.6693e-09)
(9.35679e-10 1.42362e-09 -1.06202e-10)
(2.70449e-09 4.15666e-09 -3.09378e-10)
(4.29141e-09 6.73023e-09 -4.98228e-10)
(5.73024e-09 9.25831e-09 -6.78331e-10)
(7.04456e-09 1.18313e-08 -8.51195e-10)
(8.24637e-09 1.45175e-08 -1.01277e-09)
(9.3339e-09 1.73606e-08 -1.15113e-09)
(1.02888e-08 2.03744e-08 -1.24267e-09)
(1.10734e-08 2.35292e-08 -1.24703e-09)
(1.16314e-08 2.67325e-08 -1.10036e-09)
(1.18971e-08 2.9799e-08 -7.09679e-10)
(1.18259e-08 3.24162e-08 4.57708e-11)
(1.1461e-08 3.41243e-08 1.28892e-09)
(1.10302e-08 3.43763e-08 3.06095e-09)
(1.09622e-08 3.2846e-08 5.12968e-09)
(1.14314e-08 3.03673e-08 6.69836e-09)
(1.29653e-09 1.92411e-09 -1.49139e-10)
(3.74863e-09 5.61882e-09 -4.35088e-10)
(5.95213e-09 9.10066e-09 -7.02855e-10)
(7.95669e-09 1.25259e-08 -9.62011e-10)
(9.79893e-09 1.60203e-08 -1.21733e-09)
(1.15013e-08 1.96819e-08 -1.46755e-09)
(1.30696e-08 2.35806e-08 -1.70314e-09)
(1.44889e-08 2.77532e-08 -1.90297e-09)
(1.57175e-08 3.21925e-08 -2.02949e-09)
(1.66793e-08 3.68289e-08 -2.0233e-09)
(1.72542e-08 4.15033e-08 -1.79902e-09)
(1.72717e-08 4.5932e-08 -1.25008e-09)
(1.65155e-08 4.96792e-08 -2.78434e-10)
(1.47702e-08 5.21855e-08 1.11921e-09)
(1.20144e-08 5.29897e-08 2.68094e-09)
(9.11252e-09 5.24104e-08 3.72058e-09)
(1.64289e-09 2.35758e-09 -1.91902e-10)
(4.75159e-09 6.8858e-09 -5.60718e-10)
(7.55017e-09 1.11571e-08 -9.0883e-10)
(1.01055e-08 1.53658e-08 -1.25093e-09)
(1.24697e-08 1.96705e-08 -1.5968e-09)
(1.46801e-08 2.41985e-08 -1.95079e-09)
(1.67576e-08 2.90489e-08 -2.3103e-09)
(1.8703e-08 3.42891e-08 -2.66394e-09)
(2.04904e-08 3.99503e-08 -2.98835e-09)
(2.20555e-08 4.60151e-08 -3.24536e-09)
(2.32748e-08 5.23996e-08 -3.38048e-09)
(2.39312e-08 5.89255e-08 -3.32751e-09)
(2.36665e-08 6.52788e-08 -3.02858e-09)
(2.19658e-08 7.09577e-08 -2.48446e-09)
(1.84103e-08 7.52473e-08 -1.84269e-09)
(1.40312e-08 7.73779e-08 -1.44887e-09)
(1.96946e-09 2.70782e-09 -2.33733e-10)
(5.69796e-09 7.91045e-09 -6.83926e-10)
(9.06024e-09 1.28225e-08 -1.11205e-09)
(1.21411e-08 1.76706e-08 -1.53865e-09)
(1.50098e-08 2.26414e-08 -1.97978e-09)
(1.7722e-08 2.78887e-08 -2.44724e-09)
(2.032e-08 3.35379e-08 -2.94863e-09)
(2.28322e-08 3.96886e-08 -3.48687e-09)
(2.52706e-08 4.64125e-08 -4.06019e-09)
(2.76237e-08 5.37524e-08 -4.66218e-09)
(2.98422e-08 6.17153e-08 -5.28364e-09)
(3.18078e-08 7.02582e-08 -5.91647e-09)
(3.327e-08 7.92422e-08 -6.5585e-09)
(3.37506e-08 8.82976e-08 -7.21062e-09)
(3.25449e-08 9.64823e-08 -7.84001e-09)
(2.96765e-08 1.01703e-07 -8.27903e-09)
(2.27072e-09 2.96126e-09 -2.7358e-10)
(6.57132e-09 8.65264e-09 -8.01535e-10)
(1.0455e-08 1.40315e-08 -1.30674e-09)
(1.40237e-08 1.93489e-08 -1.81586e-09)
(1.73638e-08 2.48123e-08 -2.35158e-09)
(2.05501e-08 3.05958e-08 -2.93375e-09)
(2.36489e-08 3.6845e-08 -3.58091e-09)
(2.67218e-08 4.36822e-08 -4.31164e-09)
(2.98301e-08 5.12091e-08 -5.14688e-09)
(3.304e-08 5.951e-08 -6.11347e-09)
(3.6429e-08 6.86556e-08 -7.24959e-09)
(4.00902e-08 7.87037e-08 -8.61027e-09)
(4.41178e-08 8.96734e-08 -1.02665e-08)
(4.85143e-08 1.01411e-07 -1.227e-08)
(5.2845e-08 1.13071e-07 -1.45049e-08)
(5.54733e-08 1.216e-07 -1.6273e-08)
(2.5412e-09 3.10725e-09 -3.10274e-10)
(7.35549e-09 9.08137e-09 -9.09948e-10)
(1.17072e-08 1.47336e-08 -1.48642e-09)
(1.57133e-08 2.03297e-08 -2.07209e-09)
(1.94748e-08 2.60902e-08 -2.69556e-09)
(2.30831e-08 3.21998e-08 -3.3841e-09)
(2.66253e-08 3.88144e-08 -4.16564e-09)
(3.01919e-08 4.60655e-08 -5.07174e-09)
(3.38866e-08 5.40621e-08 -6.14126e-09)
(3.78417e-08 6.28932e-08 -7.4258e-09)
(4.22423e-08 7.26296e-08 -8.99667e-09)
(4.73645e-08 8.33231e-08 -1.09523e-08)
(5.36295e-08 9.4998e-08 -1.34192e-08)
(6.16501e-08 1.07609e-07 -1.65243e-08)
(7.20494e-08 1.20815e-07 -2.02537e-08)
(8.34367e-08 1.3233e-07 -2.38133e-08)
(1.92953e-10 3.0242e-10 -1.72921e-11)
(5.57644e-10 8.83062e-10 -5.0299e-11)
(8.84598e-10 1.43005e-09 -8.07311e-11)
(1.1805e-09 1.96757e-09 -1.09301e-10)
(1.4497e-09 2.51459e-09 -1.35956e-10)
(1.69384e-09 3.08487e-09 -1.59575e-10)
(1.91137e-09 3.68615e-09 -1.77493e-10)
(2.09717e-09 4.31815e-09 -1.84768e-10)
(2.24298e-09 4.96876e-09 -1.73198e-10)
(2.34026e-09 5.60807e-09 -1.30073e-10)
(2.38938e-09 6.17985e-09 -3.7013e-11)
(2.42277e-09 6.59198e-09 1.30333e-10)
(2.5544e-09 6.71287e-09 4.00075e-10)
(3.06364e-09 6.3948e-09 7.96018e-10)
(4.44425e-09 5.58154e-09 1.31427e-09)
(6.83882e-09 4.62772e-09 1.83232e-09)
(5.76986e-10 8.96932e-10 -5.19894e-11)
(1.66774e-09 2.61928e-09 -1.51305e-10)
(2.64627e-09 4.24226e-09 -2.43179e-10)
(3.53305e-09 5.83814e-09 -3.2999e-10)
(4.34173e-09 7.46384e-09 -4.11975e-10)
(5.07811e-09 9.16139e-09 -4.86423e-10)
(5.73861e-09 1.09559e-08 -5.46396e-10)
(6.30875e-09 1.28505e-08 -5.78817e-10)
(6.76297e-09 1.4816e-08 -5.61929e-10)
(7.06934e-09 1.67751e-08 -4.62173e-10)
(7.20702e-09 1.85796e-08 -2.31798e-10)
(7.21169e-09 1.99844e-08 1.90325e-10)
(7.27026e-09 2.0635e-08 8.68408e-10)
(7.86546e-09 2.012e-08 1.83882e-09)
(9.80549e-09 1.82247e-08 3.036e-09)
(1.31931e-08 1.5732e-08 4.10426e-09)
(9.55309e-10 1.46086e-09 -8.6942e-11)
(2.76187e-09 4.26652e-09 -2.53323e-10)
(4.38453e-09 6.91191e-09 -4.0812e-10)
(5.85869e-09 9.51598e-09 -5.56095e-10)
(7.20905e-09 1.21735e-08 -6.98842e-10)
(8.44809e-09 1.49566e-08 -8.33804e-10)
(9.57372e-09 1.79127e-08 -9.52583e-10)
(1.05658e-08 2.10578e-08 -1.03867e-09)
(1.13831e-08 2.43645e-08 -1.06414e-09)
(1.19619e-08 2.77403e-08 -9.86308e-10)
(1.22235e-08 3.09984e-08 -7.45747e-10)
(1.21005e-08 3.38221e-08 -2.70546e-10)
(1.15972e-08 3.57452e-08 5.038e-10)
(1.08839e-08 3.62089e-08 1.58237e-09)
(1.03412e-08 3.48594e-08 2.80938e-09)
(1.02633e-08 3.24712e-08 3.72782e-09)
(1.32358e-09 1.97445e-09 -1.22099e-10)
(3.82769e-09 5.76738e-09 -3.56262e-10)
(6.08051e-09 9.34645e-09 -5.75735e-10)
(8.13388e-09 1.28748e-08 -7.88592e-10)
(1.0026e-08 1.6484e-08 -9.99231e-10)
(1.17801e-08 2.02777e-08 -1.20753e-09)
(1.34015e-08 2.43306e-08 -1.40744e-09)
(1.48731e-08 2.86839e-08 -1.58498e-09)
(1.61478e-08 3.33331e-08 -1.71556e-09)
(1.71392e-08 3.82097e-08 -1.7615e-09)
(1.77093e-08 4.31521e-08 -1.67178e-09)
(1.7657e-08 4.78698e-08 -1.38817e-09)
(1.67173e-08 5.19136e-08 -8.67201e-10)
(1.46097e-08 5.47031e-08 -1.29582e-10)
(1.12686e-08 5.57425e-08 6.60921e-10)
(7.71684e-09 5.52941e-08 1.15629e-09)
(1.67689e-09 2.41925e-09 -1.57114e-10)
(4.85108e-09 7.068e-09 -4.59123e-10)
(7.71173e-09 1.14585e-08 -7.44432e-10)
(1.03286e-08 1.57939e-08 -1.02532e-09)
(1.2756e-08 2.02399e-08 -1.3104e-09)
(1.50322e-08 2.49313e-08 -1.60415e-09)
(1.71776e-08 2.99728e-08 -1.9065e-09)
(1.91904e-08 3.54381e-08 -2.21152e-09)
(2.10381e-08 4.13625e-08 -2.50655e-09)
(2.26438e-08 4.77303e-08 -2.77143e-09)
(2.38614e-08 5.44548e-08 -2.97992e-09)
(2.44364e-08 6.13472e-08 -3.10541e-09)
(2.39547e-08 6.80717e-08 -3.13388e-09)
(2.18327e-08 7.40916e-08 -3.08461e-09)
(1.76193e-08 7.8648e-08 -3.02601e-09)
(1.25407e-08 8.09272e-08 -3.03827e-09)
(2.00987e-09 2.77873e-09 -1.91351e-10)
(5.81615e-09 8.11977e-09 -5.6001e-10)
(9.25227e-09 1.3169e-08 -9.10837e-10)
(1.24064e-08 1.8163e-08 -1.26101e-09)
(1.53506e-08 2.3297e-08 -1.6242e-09)
(1.81417e-08 2.8733e-08 -2.01117e-09)
(2.08218e-08 3.46043e-08 -2.42998e-09)
(2.34166e-08 4.1017e-08 -2.88659e-09)
(2.59306e-08 4.8049e-08 -3.38544e-09)
(2.83379e-08 5.57454e-08 -3.93148e-09)
(3.05635e-08 6.41103e-08 -4.53335e-09)
(3.24459e-08 7.30871e-08 -5.20786e-09)
(3.36716e-08 8.25071e-08 -5.98076e-09)
(3.36898e-08 9.19511e-08 -6.86762e-09)
(3.1776e-08 1.00419e-07 -7.79832e-09)
(2.81865e-08 1.05784e-07 -8.46478e-09)
(2.31682e-09 3.03879e-09 -2.23974e-10)
(6.70616e-09 8.88159e-09 -6.56292e-10)
(1.06741e-08 1.44107e-08 -1.07024e-09)
(1.43266e-08 1.98878e-08 -1.488e-09)
(1.77532e-08 2.55306e-08 -1.92861e-09)
(2.10302e-08 3.15216e-08 -2.40949e-09)
(2.42241e-08 3.80153e-08 -2.94754e-09)
(2.73939e-08 4.5142e-08 -3.56107e-09)
(3.05934e-08 5.30099e-08 -4.27246e-09)
(3.38736e-08 6.17067e-08 -5.11215e-09)
(3.72841e-08 7.13002e-08 -6.12412e-09)
(4.08712e-08 8.1833e-08 -7.37118e-09)
(4.46589e-08 9.32898e-08 -8.93091e-09)
(4.85687e-08 1.05457e-07 -1.0855e-08)
(5.21456e-08 1.17419e-07 -1.30164e-08)
(5.40199e-08 1.26079e-07 -1.47158e-08)
(2.59217e-09 3.18853e-09 -2.54024e-10)
(7.5046e-09 9.32166e-09 -7.45004e-10)
(1.19495e-08 1.51316e-08 -1.21729e-09)
(1.60483e-08 2.08958e-08 -1.69761e-09)
(1.99054e-08 2.68448e-08 -2.21004e-09)
(2.36145e-08 3.31729e-08 -2.77774e-09)
(2.7263e-08 4.00452e-08 -3.42521e-09)
(3.09391e-08 4.76014e-08 -4.18088e-09)
(3.47394e-08 5.59574e-08 -5.08081e-09)
(3.87814e-08 6.5206e-08 -6.17359e-09)
(4.32223e-08 7.54148e-08 -7.52671e-09)
(4.82905e-08 8.66207e-08 -9.23183e-09)
(5.43335e-08 9.88135e-08 -1.14028e-08)
(6.18716e-08 1.11888e-07 -1.4145e-08)
(7.14813e-08 1.2543e-07 -1.7424e-08)
(8.20225e-08 1.37093e-07 -2.05129e-08)
(1.96027e-10 3.08424e-10 -1.28306e-11)
(5.66623e-10 9.00798e-10 -3.7326e-11)
(8.99125e-10 1.45936e-09 -5.994e-11)
(1.20044e-09 2.00911e-09 -8.12268e-11)
(1.47502e-09 2.5697e-09 -1.01207e-10)
(1.72448e-09 3.1555e-09 -1.1917e-10)
(1.94701e-09 3.77475e-09 -1.33363e-10)
(2.13687e-09 4.42755e-09 -1.4056e-10)
(2.28455e-09 5.10196e-09 -1.3549e-10)
(2.3793e-09 5.76793e-09 -1.10192e-10)
(2.41758e-09 6.36858e-09 -5.35278e-11)
(2.42524e-09 6.81037e-09 4.87257e-11)
(2.50606e-09 6.95849e-09 2.12427e-10)
(2.92649e-09 6.65821e-09 4.5099e-10)
(4.17408e-09 5.83939e-09 7.63478e-10)
(6.42914e-09 4.84556e-09 1.08005e-09)
(5.86164e-10 9.14769e-10 -3.85716e-11)
(1.69453e-09 2.67186e-09 -1.12286e-10)
(2.68964e-09 4.3292e-09 -1.80549e-10)
(3.59259e-09 5.9614e-09 -2.45219e-10)
(4.41739e-09 7.62744e-09 -3.06646e-10)
(5.16971e-09 9.37116e-09 -3.63156e-10)
(5.84522e-09 1.12193e-08 -4.10246e-10)
(6.42759e-09 1.31759e-08 -4.39481e-10)
(6.88764e-09 1.52126e-08 -4.36994e-10)
(7.18685e-09 1.72516e-08 -3.82015e-10)
(7.29299e-09 1.91431e-08 -2.45938e-10)
(7.22298e-09 2.06377e-08 6.31059e-12)
(7.13542e-09 2.13726e-08 4.09938e-10)
(7.47921e-09 2.09197e-08 9.84033e-10)
(9.05213e-09 1.90339e-08 1.69376e-09)
(1.20711e-08 1.64781e-08 2.33958e-09)
(9.70446e-10 1.48989e-09 -6.4509e-11)
(2.80607e-09 4.3522e-09 -1.8799e-10)
(4.4561e-09 7.0536e-09 -3.02998e-10)
(5.957e-09 9.71694e-09 -4.13201e-10)
(7.33404e-09 1.24404e-08 -5.20056e-10)
(8.59959e-09 1.52991e-08 -6.22167e-10)
(9.75029e-09 1.8343e-08 -7.14338e-10)
(1.07631e-08 2.15904e-08 -7.86145e-10)
(1.15908e-08 2.50147e-08 -8.20311e-10)
(1.21591e-08 2.85233e-08 -7.91094e-10)
(1.23714e-08 3.19265e-08 -6.64123e-10)
(1.21315e-08 3.49015e-08 -3.99928e-10)
(1.14021e-08 3.69702e-08 3.41256e-11)
(1.03081e-08 3.75527e-08 6.36989e-10)
(9.22587e-09 3.62631e-08 1.32445e-09)
(8.62737e-09 3.38563e-08 1.85212e-09)
(1.34443e-09 2.0137e-09 -9.05902e-11)
(3.88861e-09 5.88325e-09 -2.6437e-10)
(6.17917e-09 9.53811e-09 -4.27412e-10)
(8.2695e-09 1.31467e-08 -5.8588e-10)
(1.01986e-08 1.68454e-08 -7.43373e-10)
(1.19896e-08 2.0742e-08 -9.00441e-10)
(1.36463e-08 2.49149e-08 -1.05384e-09)
(1.51474e-08 2.94081e-08 -1.19543e-09)
(1.64383e-08 3.42192e-08 -1.31098e-09)
(1.74184e-08 3.92794e-08 -1.37944e-09)
(1.79262e-08 4.44238e-08 -1.37377e-09)
(1.77243e-08 4.93535e-08 -1.26573e-09)
(1.6498e-08 5.36042e-08 -1.03781e-09)
(1.39173e-08 5.65714e-08 -7.05789e-10)
(9.92326e-09 5.77285e-08 -3.49175e-10)
(5.75947e-09 5.73156e-08 -1.23609e-10)
(1.70313e-09 2.46737e-09 -1.16561e-10)
(4.9277e-09 7.21001e-09 -3.40695e-10)
(7.83592e-09 1.16935e-08 -5.52606e-10)
(1.04995e-08 1.61275e-08 -7.61643e-10)
(1.29737e-08 2.06837e-08 -9.74518e-10)
(1.52969e-08 2.55019e-08 -1.19536e-09)
(1.74877e-08 3.06919e-08 -1.42533e-09)
(1.95396e-08 3.63312e-08 -1.66251e-09)
(2.14108e-08 4.24575e-08 -1.9016e-09)
(2.30075e-08 4.90556e-08 -2.13457e-09)
(2.41562e-08 5.60348e-08 -2.35259e-09)
(2.45604e-08 6.31958e-08 -2.54993e-09)
(2.37516e-08 7.01838e-08 -2.72907e-09)
(2.10977e-08 7.64343e-08 -2.90198e-09)
(1.61697e-08 8.1157e-08 -3.07597e-09)
(1.04447e-08 8.35158e-08 -3.21352e-09)
(2.04103e-09 2.83398e-09 -1.41966e-10)
(5.90722e-09 8.28292e-09 -4.1553e-10)
(9.39989e-09 1.34391e-08 -6.76077e-10)
(1.26097e-08 1.85467e-08 -9.36534e-10)
(1.56099e-08 2.38077e-08 -1.20746e-09)
(1.84576e-08 2.93904e-08 -1.49756e-09)
(2.11931e-08 3.54336e-08 -1.81416e-09)
(2.38369e-08 4.20485e-08 -2.1639e-09)
(2.63834e-08 4.93161e-08 -2.55403e-09)
(2.8788e-08 5.72822e-08 -2.99445e-09)
(3.09451e-08 6.59468e-08 -3.50094e-09)
(3.26476e-08 7.52409e-08 -4.09783e-09)
(3.35243e-08 8.49733e-08 -4.81446e-09)
(3.29775e-08 9.46922e-08 -5.65894e-09)
(3.03191e-08 1.03363e-07 -6.54097e-09)
(2.60806e-08 1.08831e-07 -7.14889e-09)
(2.35238e-09 3.0992e-09 -1.6616e-10)
(6.81009e-09 9.06003e-09 -4.86938e-10)
(1.08426e-08 1.47062e-08 -7.94304e-10)
(1.45587e-08 2.03079e-08 -1.10487e-09)
(1.80496e-08 2.609e-08 -1.43326e-09)
(2.1392e-08 3.22421e-08 -1.79298e-09)
(2.46508e-08 3.89251e-08 -2.19781e-09)
(2.78797e-08 4.62746e-08 -2.66339e-09)
(3.11219e-08 5.44029e-08 -3.20964e-09)
(3.44091e-08 6.33986e-08 -3.86434e-09)
(3.77589e-08 7.33252e-08 -4.66756e-09)
(4.11696e-08 8.42125e-08 -5.67468e-09)
(4.4604e-08 9.60206e-08 -6.95009e-09)
(4.79343e-08 1.08501e-07 -8.5277e-09)
(5.07457e-08 1.20695e-07 -1.02819e-08)
(5.1963e-08 1.29475e-07 -1.16282e-08)
(2.63151e-09 3.25193e-09 -1.88429e-10)
(7.61957e-09 9.50882e-09 -5.52726e-10)
(1.2136e-08 1.54417e-08 -9.03316e-10)
(1.63051e-08 2.13367e-08 -1.26029e-09)