/*--------------------------------*- C++ -*----------------------------------*\
| =========                 |                                                 |
| \\      /  F ield         | foam-extend: Open Source CFD                    |
|  \\    /   O peration     | Version:     3.1                                |
|   \\  /    A nd           | Web:         http://www.extend-project.de       |
|    \\/     M anipulation  |                                                 |
\*---------------------------------------------------------------------------*/
FoamFile
{
    version     2.0;
    format      ascii;
    class       volScalarField;
    location    "0.1";
    object      p;
}
// * * * * * * * * * * * * * * * * * * * * * * * * * * * * * * * * * * * * * //

dimensions      [0 2 -2 0 0 0 0];

internalField   nonuniform List<scalar> 
14592
(
0.0296898
0.0293635
0.0289011
0.0283719
0.0278088
0.0272273
0.0266362
0.0260411
0.0254458
0.0248532
0.0242662
0.0236883
0.0231245
0.0225835
0.0220898
0.0217134
0.0298684
0.0294463
0.0289441
0.0283961
0.0278227
0.027235
0.02664
0.0260422
0.0254448
0.0248503
0.0242612
0.0236805
0.0231126
0.0225646
0.0220557
0.0216404
0.0301531
0.0296059
0.0290368
0.0284511
0.0278552
0.0272535
0.0266495
0.0260454
0.0254431
0.024844
0.0242499
0.0236629
0.0230858
0.0225232
0.0219885
0.0215221
0.0304657
0.0297967
0.0291539
0.028523
0.0278985
0.0272785
0.0266623
0.0260495
0.0254402
0.0248348
0.0242338
0.0236379
0.0230485
0.0224675
0.0219024
0.0213795
0.0307562
0.0299833
0.0292726
0.0285975
0.027944
0.0273047
0.0266753
0.0260529
0.0254359
0.0248233
0.0242143
0.0236086
0.0230058
0.0224054
0.02181
0.0212341
0.0309951
0.0301414
0.0293754
0.0286629
0.0279839
0.0273274
0.0266858
0.0260543
0.0254297
0.0248099
0.0241931
0.0235777
0.0229618
0.0223433
0.0217201
0.0210963
0.0311628
0.0302542
0.0294494
0.0287099
0.0280122
0.0273424
0.0266912
0.0260523
0.0254214
0.0247952
0.0241714
0.0235474
0.0229205
0.0222865
0.0216399
0.0209743
0.0312474
0.030311
0.0294862
0.0287324
0.0280244
0.0273471
0.0266901
0.0260463
0.0254107
0.0247798
0.0241505
0.02352
0.0228848
0.0222399
0.0215768
0.0208783
0.0298972
0.0295501
0.0290631
0.02851
0.0279257
0.0273263
0.0267209
0.0261152
0.0255129
0.0249173
0.0243321
0.023762
0.0232149
0.0227045
0.0222627
0.0219605
0.0300885
0.0296387
0.0291091
0.0285359
0.0279405
0.0273345
0.0267249
0.0261163
0.0255117
0.0249139
0.0243262
0.0237527
0.0232005
0.022681
0.0222192
0.0218678
0.0303933
0.0298095
0.0292082
0.0285946
0.0279751
0.0273542
0.0267349
0.0261193
0.0255093
0.0249064
0.0243128
0.0237316
0.0231677
0.0226296
0.0221349
0.0217214
0.0307279
0.0300138
0.0293335
0.0286714
0.0280213
0.0273806
0.0267482
0.0261232
0.0255055
0.0248953
0.0242935
0.0237016
0.0231223
0.0225605
0.0220271
0.0215465
0.0310388
0.0302133
0.0294603
0.0287509
0.0280697
0.0274084
0.0267617
0.0261262
0.0254999
0.0248815
0.0242703
0.0236663
0.0230702
0.0224835
0.0219111
0.0213667
0.0312945
0.0303825
0.0295702
0.0288207
0.0281122
0.0274323
0.0267724
0.026127
0.0254923
0.0248655
0.024245
0.023629
0.0230165
0.022406
0.0217975
0.0211948
0.0314739
0.0305031
0.0296493
0.0288709
0.0281422
0.0274481
0.0267778
0.0261243
0.0254823
0.0248482
0.0242193
0.0235927
0.0229657
0.0223348
0.0216949
0.0210404
0.0315645
0.030564
0.0296887
0.0288948
0.0281551
0.0274528
0.0267762
0.0261172
0.02547
0.0248303
0.0241947
0.0235598
0.0229217
0.0222754
0.0216119
0.0209145
0.0300843
0.0297192
0.0292107
0.0286365
0.0280333
0.027418
0.0267997
0.0261843
0.0255757
0.0249773
0.0243932
0.0238292
0.0232943
0.0228036
0.0223883
0.0221094
0.0302865
0.0298128
0.0292592
0.0286638
0.0280489
0.0274266
0.0268038
0.0261853
0.0255742
0.0249734
0.0243865
0.0238187
0.0232778
0.0227766
0.022339
0.0220066
0.0306086
0.0299933
0.0293639
0.0287258
0.0280854
0.0274472
0.0268141
0.0261882
0.0255712
0.0249647
0.0243712
0.0237944
0.0232402
0.0227177
0.0222433
0.0218445
0.0309622
0.0302091
0.0294962
0.0288068
0.028134
0.0274749
0.0268279
0.0261918
0.0255665
0.0249519
0.0243491
0.0237601
0.023188
0.0226385
0.0221209
0.0216511
0.0312908
0.03042
0.0296302
0.0288908
0.028185
0.0275039
0.0268417
0.0261945
0.0255597
0.024936
0.0243226
0.0237197
0.0231281
0.0225498
0.0219887
0.0214515
0.0315609
0.0305987
0.0297463
0.0289643
0.0282297
0.0275289
0.0268527
0.0261947
0.0255507
0.0249177
0.0242936
0.0236769
0.0230662
0.0224605
0.0218584
0.0212594
0.0317506
0.0307262
0.0298298
0.0290172
0.0282612
0.0275453
0.026858
0.0261912
0.0255392
0.024898
0.0242642
0.0236351
0.0230076
0.0223777
0.0217399
0.0210855
0.0318463
0.0307905
0.0298713
0.0290425
0.0282747
0.0275501
0.0268559
0.0261831
0.0255253
0.0248776
0.0242362
0.0235972
0.0229564
0.0223081
0.0216424
0.0209411
0.0302467
0.0298664
0.0293397
0.0287475
0.0281282
0.0274991
0.0268697
0.0262458
0.0256316
0.0250306
0.024447
0.0238871
0.0233601
0.0228811
0.0224795
0.0222095
0.030458
0.0299643
0.0293904
0.028776
0.0281445
0.027508
0.0268739
0.0262468
0.0256299
0.0250263
0.0244397
0.0238755
0.023342
0.0228517
0.0224266
0.0221009
0.0307945
0.0301529
0.0294997
0.0288408
0.0281825
0.0275294
0.0268845
0.0262496
0.0256264
0.0250166
0.0244227
0.0238488
0.0233007
0.0227874
0.0223233
0.0219288
0.031164
0.0303784
0.029638
0.0289254
0.0282332
0.0275582
0.0268986
0.0262529
0.0256208
0.0250023
0.0243983
0.0238109
0.0232434
0.0227008
0.0221908
0.0217233
0.0315074
0.0305988
0.029778
0.029013
0.0282863
0.0275883
0.0269127
0.0262552
0.0256131
0.0249845
0.0243689
0.0237662
0.0231773
0.0226036
0.0220472
0.0215105
0.0317897
0.0307855
0.0298993
0.0290898
0.0283329
0.0276142
0.0269238
0.0262549
0.0256028
0.0249642
0.0243368
0.0237189
0.023109
0.0225053
0.0219053
0.021305
0.0319879
0.0309188
0.0299865
0.029145
0.0283657
0.0276311
0.026929
0.0262507
0.0255899
0.0249424
0.0243043
0.0236727
0.0230439
0.0224138
0.0217755
0.0211181
0.0320879
0.0309859
0.0300299
0.0291713
0.0283796
0.0276358
0.0269264
0.0262417
0.0255746
0.0249199
0.0242733
0.0236305
0.022987
0.0223362
0.0216675
0.0209609
0.0303808
0.0299883
0.0294468
0.02884
0.0282075
0.027567
0.0269284
0.0262976
0.0256786
0.0250752
0.0244916
0.0239341
0.0234119
0.0229395
0.0225446
0.0222779
0.0305993
0.0300895
0.0294992
0.0288695
0.0282243
0.0275763
0.0269328
0.0262985
0.0256767
0.0250705
0.0244837
0.0239217
0.0233926
0.0229085
0.0224893
0.0221656
0.0309475
0.0302847
0.0296124
0.0289365
0.0282636
0.0275983
0.0269436
0.0263012
0.0256728
0.02506
0.0244655
0.0238931
0.0233486
0.0228404
0.0223809
0.0219869
0.0313297
0.030518
0.0297555
0.029024
0.028316
0.027628
0.0269579
0.0263044
0.0256666
0.0250446
0.0244392
0.0238525
0.0232874
0.0227484
0.0222416
0.0217733
0.031685
0.030746
0.0299003
0.0291146
0.0283708
0.027659
0.0269724
0.0263063
0.025658
0.0250253
0.0244076
0.0238046
0.0232168
0.0226451
0.0220903
0.0215517
0.031977
0.0309392
0.0300257
0.029194
0.0284189
0.0276855
0.0269835
0.0263056
0.0256467
0.0250034
0.0243731
0.0237538
0.0231436
0.0225403
0.0219403
0.0213372
0.0321821
0.0310771
0.0301159
0.029251
0.0284527
0.0277028
0.0269885
0.0263007
0.0256327
0.0249798
0.024338
0.023704
0.0230738
0.0224425
0.0218025
0.0211414
0.0322855
0.0311465
0.0301607
0.0292781
0.028467
0.0277075
0.0269856
0.026291
0.0256162
0.0249556
0.0243046
0.0236585
0.0230123
0.0223591
0.0216871
0.0209755
0.0304837
0.0300821
0.0295294
0.0289116
0.028269
0.0276199
0.0269742
0.026338
0.0257152
0.0251097
0.0245258
0.0239695
0.02345
0.0229812
0.0225894
0.0223236
0.0307078
0.0301858
0.0295832
0.0289418
0.0282862
0.0276293
0.0269786
0.0263388
0.0257132
0.0251049
0.0245175
0.0239566
0.0234299
0.022949
0.0225326
0.0222089
0.0310647
0.0303859
0.0296992
0.0290104
0.0283264
0.0276518
0.0269896
0.0263414
0.0257089
0.0250937
0.0244984
0.0239267
0.0233841
0.0228783
0.0224208
0.022026
0.0314565
0.0306251
0.0298458
0.0291001
0.02838
0.0276822
0.0270041
0.0263444
0.0257022
0.0250774
0.0244708
0.0238841
0.0233202
0.0227828
0.022277
0.021807
0.0318206
0.0308588
0.0299943
0.0291929
0.0284362
0.0277138
0.0270187
0.0263461
0.0256929
0.0250571
0.0244375
0.0238338
0.0232464
0.0226753
0.0221205
0.0215796
0.03212
0.0310569
0.0301228
0.0292743
0.0284854
0.0277408
0.0270299
0.026345
0.0256809
0.0250339
0.0244011
0.0237805
0.0231697
0.0225661
0.0219651
0.0213592
0.0323302
0.0311982
0.0302153
0.0293327
0.0285199
0.0277584
0.0270348
0.0263397
0.0256661
0.025009
0.0243642
0.0237281
0.0230964
0.0224639
0.0218219
0.0211574
0.0324362
0.0312694
0.0302612
0.0293604
0.0285345
0.0277631
0.0270316
0.0263294
0.0256487
0.0249835
0.024329
0.0236802
0.0230318
0.0223763
0.0217015
0.0209857
0.0305536
0.0301457
0.0295856
0.0289603
0.0283109
0.0276559
0.0270055
0.0263656
0.0257403
0.0251333
0.024549
0.0239932
0.023475
0.0230079
0.0226176
0.0223518
0.0307814
0.0302512
0.0296403
0.028991
0.0283284
0.0276655
0.02701
0.0263664
0.0257382
0.0251282
0.0245404
0.0239799
0.0234545
0.0229751
0.0225598
0.0222357
0.031144
0.0304545
0.0297581
0.0290608
0.0283693
0.0276884
0.027021
0.026369
0.0257336
0.0251167
0.0245207
0.0239492
0.0234074
0.0229028
0.022446
0.0220503
0.0315421
0.0306977
0.0299072
0.0291519
0.0284237
0.0277191
0.0270357
0.0263718
0.0257266
0.0250998
0.0244922
0.0239053
0.0233418
0.0228051
0.0222994
0.021828
0.0319122
0.0309353
0.0300581
0.0292462
0.0284808
0.0277512
0.0270504
0.0263734
0.0257169
0.0250787
0.0244578
0.0238536
0.023266
0.022695
0.0221397
0.021597
0.0322165
0.0311366
0.0301887
0.0293289
0.0285307
0.0277786
0.0270616
0.026372
0.0257043
0.0250547
0.0244202
0.0237985
0.0231872
0.022583
0.021981
0.0213728
0.0324301
0.0312802
0.0302827
0.0293882
0.0285657
0.0277964
0.0270665
0.0263663
0.0256889
0.0250289
0.0243821
0.0237445
0.0231117
0.022478
0.0218345
0.0211674
0.0325379
0.0313526
0.0303293
0.0294164
0.0285805
0.027801
0.027063
0.0263556
0.0256709
0.0250026
0.0243456
0.023695
0.023045
0.0223878
0.0217109
0.0209921
0.0305885
0.0301771
0.0296136
0.0289847
0.0283319
0.0276741
0.0270212
0.0263794
0.0257529
0.0251451
0.0245605
0.024005
0.0234873
0.023021
0.0226314
0.0223652
0.0308185
0.030284
0.029669
0.0290158
0.0283496
0.0276837
0.0270257
0.0263803
0.0257507
0.0251399
0.0245518
0.0239914
0.0234664
0.0229876
0.0225728
0.0222481
0.0311836
0.0304888
0.0297876
0.029086
0.0283908
0.0277067
0.0270368
0.0263828
0.025746
0.0251282
0.0245318
0.0239603
0.0234189
0.0229147
0.0224581
0.0220617
0.0315848
0.030734
0.0299378
0.0291778
0.0284456
0.0277377
0.0270516
0.0263856
0.0257388
0.025111
0.0245029
0.0239158
0.0233525
0.0228159
0.0223102
0.0218379
0.0319578
0.0309736
0.0300899
0.0292728
0.028503
0.0277699
0.0270663
0.0263871
0.0257289
0.0250896
0.0244679
0.0238634
0.0232757
0.0227046
0.022149
0.0216053
0.0322644
0.0311766
0.0302216
0.0293561
0.0285534
0.0277975
0.0270775
0.0263855
0.0257161
0.0250651
0.0244298
0.0238075
0.0231958
0.0225912
0.0219886
0.0213794
0.0324797
0.0313214
0.0303163
0.0294159
0.0285886
0.0278154
0.0270823
0.0263797
0.0257004
0.0250389
0.0243911
0.0237527
0.0231192
0.0224849
0.0218405
0.0211722
0.0325883
0.0313943
0.0303633
0.0294443
0.0286034
0.02782
0.0270788
0.0263688
0.025682
0.0250122
0.024354
0.0237024
0.0230516
0.0223935
0.0217154
0.0209951
0.0282066
0.0280868
0.027838
0.0274972
0.0270905
0.0266347
0.0261416
0.0256197
0.0250752
0.0245127
0.0239352
0.0233451
0.0227437
0.0221324
0.0215127
0.0208867
0.0282474
0.0281146
0.027856
0.0275089
0.0270981
0.0266395
0.0261444
0.0256212
0.0250758
0.0245126
0.0239346
0.0233441
0.0227425
0.0221311
0.0215114
0.0208855
0.0283211
0.0281677
0.0278923
0.0275331
0.0271139
0.0266495
0.0261504
0.0256243
0.0250769
0.0245123
0.0239333
0.023342
0.02274
0.0221285
0.0215089
0.0208835
0.0284091
0.028234
0.027939
0.0275648
0.0271348
0.0266627
0.0261582
0.0256283
0.0250782
0.0245117
0.0239313
0.0233391
0.0227365
0.0221248
0.0215056
0.020881
0.0284957
0.028301
0.0279873
0.027598
0.0271568
0.0266766
0.0261663
0.0256323
0.0250792
0.0245105
0.0239286
0.0233354
0.0227323
0.0221207
0.0215021
0.0208786
0.0285695
0.0283591
0.0280297
0.0276275
0.0271763
0.0266888
0.0261731
0.0256352
0.0250794
0.0245086
0.0239254
0.0233313
0.0227279
0.0221164
0.0214987
0.0208767
0.0286222
0.0284011
0.0280604
0.0276487
0.0271901
0.0266969
0.0261771
0.0256362
0.0250782
0.0245059
0.0239215
0.0233269
0.0227234
0.0221125
0.0214959
0.0208757
0.0286486
0.0284219
0.0280754
0.0276585
0.0271959
0.0266996
0.0261774
0.0256347
0.0250753
0.0245021
0.0239171
0.0233223
0.0227191
0.022109
0.0214939
0.0208758
0.0282702
0.0281349
0.0278742
0.0275249
0.0271123
0.026652
0.0261556
0.0256312
0.025085
0.0245213
0.023943
0.0233521
0.0227502
0.0221381
0.0215171
0.020889
0.0283223
0.0281645
0.0278919
0.027536
0.0271192
0.0266562
0.026158
0.0256323
0.0250852
0.0245208
0.023942
0.0233508
0.0227486
0.0221365
0.0215155
0.0208876
0.0284135
0.0282237
0.0279305
0.0275611
0.0271353
0.0266663
0.0261638
0.0256353
0.0250862
0.0245203
0.0239404
0.0233484
0.0227457
0.0221334
0.0215125
0.0208851
0.028519
0.028297
0.0279803
0.0275944
0.027157
0.0266799
0.0261718
0.0256394
0.0250874
0.0245195
0.0239381
0.0233451
0.0227418
0.0221292
0.0215087
0.0208821
0.0286208
0.0283706
0.0280317
0.0276293
0.0271799
0.0266942
0.0261801
0.0256434
0.0250883
0.0245182
0.0239352
0.0233411
0.0227371
0.0221245
0.0215045
0.0208791
0.0287065
0.0284341
0.0280769
0.0276601
0.0272002
0.0267068
0.0261871
0.0256463
0.0250884
0.0245161
0.0239316
0.0233365
0.0227322
0.0221197
0.0215005
0.0208767
0.0287674
0.0284798
0.0281095
0.0276824
0.0272145
0.0267152
0.0261912
0.0256473
0.025087
0.0245131
0.0239275
0.0233317
0.0227272
0.0221152
0.0214972
0.0208753
0.0287979
0.0285025
0.0281254
0.0276927
0.0272205
0.026718
0.0261915
0.0256457
0.025084
0.0245091
0.0239228
0.0233268
0.0227225
0.0221113
0.0214948
0.0208752
0.0283985
0.0282382
0.0279553
0.0275887
0.0271629
0.0266926
0.0261886
0.0256587
0.0251084
0.0245418
0.0239615
0.0233693
0.0227661
0.0221523
0.0215283
0.0208952
0.0284694
0.0282744
0.0279756
0.0276009
0.0271703
0.026697
0.026191
0.0256597
0.0251085
0.0245412
0.0239604
0.0233677
0.0227642
0.0221502
0.0215262
0.0208933
0.0285877
0.0283458
0.02802
0.0276289
0.0271879
0.0267077
0.0261972
0.0256628
0.0251093
0.0245404
0.0239583
0.0233647
0.0227605
0.0221462
0.0215221
0.0208897
0.0287212
0.0284329
0.0280769
0.027666
0.0272115
0.0267223
0.0262056
0.0256669
0.0251104
0.0245391
0.0239554
0.0233605
0.0227554
0.0221406
0.0215167
0.0208852
0.0288477
0.0285194
0.0281353
0.0277047
0.0272365
0.0267377
0.0262143
0.0256709
0.025111
0.0245373
0.0239517
0.0233555
0.0227495
0.0221343
0.0215108
0.0208807
0.0289531
0.0285936
0.0281864
0.0277388
0.0272585
0.0267512
0.0262217
0.0256739
0.0251108
0.0245347
0.0239474
0.0233499
0.0227432
0.022128
0.0215052
0.0208768
0.0290276
0.0286468
0.0282232
0.0277634
0.0272741
0.0267603
0.026226
0.0256748
0.0251091
0.0245312
0.0239424
0.023344
0.022737
0.0221221
0.0215006
0.0208743
0.029065
0.0286734
0.0282413
0.027775
0.0272808
0.0267633
0.0262263
0.025673
0.0251057
0.0245266
0.023937
0.0233382
0.0227312
0.0221171
0.0214973
0.0208736
0.028574
0.0283844
0.0280733
0.0276831
0.0272386
0.0267538
0.0262387
0.0257005
0.0251443
0.0245736
0.0239907
0.0233969
0.0227924
0.0221767
0.0215486
0.0209075
0.0286654
0.0284288
0.0280972
0.0276972
0.0272469
0.0267587
0.0262414
0.0257017
0.0251444
0.0245728
0.0239893
0.0233949
0.0227899
0.0221738
0.0215456
0.0209046
0.0288141
0.0285151
0.0281493
0.0277292
0.0272666
0.0267705
0.026248
0.0257048
0.025145
0.0245716
0.0239865
0.0233908
0.0227848
0.022168
0.0215394
0.0208988
0.0289797
0.0286195
0.0282156
0.0277714
0.0272931
0.0267865
0.0262571
0.025709
0.0251457
0.0245697
0.0239826
0.0233852
0.0227778
0.02216
0.0215311
0.0208914
0.029135
0.0287225
0.0282834
0.0278154
0.027321
0.0268035
0.0262665
0.0257132
0.025146
0.0245671
0.0239776
0.0233784
0.0227696
0.0221509
0.0215221
0.0208838
0.0292636
0.0288103
0.0283423
0.0278541
0.0273456
0.0268182
0.0262744
0.0257161
0.0251453
0.0245636
0.023972
0.023371
0.0227609
0.0221417
0.0215135
0.0208772
0.0293542
0.0288731
0.0283848
0.027882
0.027363
0.0268282
0.026279
0.0257168
0.0251431
0.0245591
0.0239657
0.0233634
0.0227526
0.0221334
0.0215063
0.0208726
0.0293997
0.0289045
0.0284058
0.0278952
0.0273705
0.0268316
0.0262792
0.0257147
0.0251391
0.0245536
0.023959
0.023356
0.022745
0.0221265
0.0215011
0.0208708
0.0287801
0.0285604
0.0282181
0.0278008
0.0273341
0.0268317
0.026303
0.0257546
0.0251912
0.0246156
0.02403
0.023435
0.0228303
0.0222137
0.0215819
0.02093
0.0288915
0.0286132
0.0282461
0.0278169
0.0273435
0.0268371
0.0263059
0.0257558
0.0251911
0.0246146
0.0240281
0.0234324
0.0228268
0.0222096
0.0215773
0.0209254
0.029071
0.0287154
0.0283066
0.0278536
0.0273657
0.0268502
0.0263131
0.025759
0.0251914
0.0246127
0.0240243
0.0234268
0.0228196
0.0222009
0.0215675
0.0209157
0.0292692
0.0288383
0.0283834
0.0279017
0.0273954
0.026868
0.0263229
0.0257634
0.0251918
0.0246099
0.0240189
0.0234189
0.0228095
0.0221889
0.0215544
0.0209031
0.0294543
0.028959
0.0284616
0.0279518
0.0274268
0.0268868
0.0263331
0.0257676
0.0251915
0.0246062
0.0240122
0.0234096
0.0227978
0.0221753
0.0215401
0.0208901
0.029607
0.0290616
0.0285295
0.0279958
0.0274544
0.0269031
0.0263416
0.0257704
0.0251901
0.0246014
0.0240046
0.0233995
0.0227857
0.0221617
0.0215263
0.0208786
0.0297144
0.0291349
0.0285784
0.0280275
0.027474
0.0269141
0.0263466
0.0257709
0.0251872
0.0245956
0.0239964
0.0233894
0.022774
0.0221494
0.0215148
0.0208702
0.0297684
0.0291716
0.0286026
0.0280426
0.0274824
0.0269178
0.0263467
0.0257682
0.0251822
0.0245888
0.023988
0.0233797
0.0227637
0.0221394
0.0215066
0.0208662
0.0290044
0.0287552
0.0283811
0.027935
0.0274441
0.0269222
0.0263784
0.0258186
0.0252471
0.0246666
0.0240787
0.0234841
0.0228815
0.0222677
0.0216355
0.0209718
0.0291349
0.0288163
0.0284131
0.0279532
0.0274547
0.0269282
0.0263815
0.0258198
0.0252468
0.0246651
0.0240762
0.0234805
0.0228767
0.0222616
0.0216282
0.020964
0.0293438
0.0289343
0.0284822
0.0279947
0.0274796
0.0269428
0.0263893
0.0258231
0.0252468
0.0246624
0.024071
0.0234728
0.0228663
0.0222483
0.0216124
0.0209473
0.0295739
0.0290757
0.0285699
0.0280491
0.0275128
0.0269624
0.0264
0.0258275
0.0252466
0.0246584
0.0240636
0.0234619
0.0228519
0.0222303
0.0215913
0.0209256
0.0297882
0.0292142
0.0286588
0.0281056
0.0275478
0.0269831
0.026411
0.0258317
0.0252456
0.0246532
0.0240545
0.0234491
0.0228352
0.0222099
0.0215683
0.0209031
0.0299646
0.0293318
0.028736
0.0281552
0.0275786
0.0270011
0.0264201
0.0258343
0.0252433
0.0246468
0.0240444
0.0234353
0.0228179
0.0221895
0.0215463
0.0208829
0.0300885
0.0294158
0.0287915
0.0281909
0.0276005
0.0270133
0.0264253
0.0258344
0.0252393
0.0246393
0.0240337
0.0234216
0.0228015
0.0221711
0.0215276
0.0208676
0.030151
0.029458
0.0288191
0.028208
0.02761
0.0270173
0.0264252
0.025831
0.0252332
0.0246308
0.024023
0.0234089
0.0227872
0.0221563
0.0215143
0.0208596
0.0292364
0.0289594
0.028554
0.028079
0.0275633
0.0270212
0.0264614
0.0258897
0.0253099
0.0247247
0.0241358
0.0235439
0.0229481
0.0223444
0.0217224
0.0210521
0.0293846
0.0290283
0.02859
0.0280993
0.0275751
0.0270278
0.0264648
0.0258909
0.0253095
0.0247229
0.0241326
0.0235391
0.0229413
0.0223351
0.02171
0.0210374
0.0296211
0.0291613
0.0286675
0.0281456
0.0276026
0.0270437
0.0264732
0.0258942
0.0253089
0.0247191
0.0241256
0.0235286
0.0229265
0.0223151
0.0216841
0.0210076
0.0298812
0.0293206
0.0287657
0.0282062
0.0276394
0.0270653
0.0264846
0.0258986
0.025308
0.0247136
0.0241157
0.0235138
0.0229061
0.022288
0.0216501
0.0209697
0.0301231
0.0294763
0.0288652
0.028269
0.0276781
0.0270879
0.0264964
0.0259026
0.025306
0.0247065
0.0241036
0.0234963
0.0228825
0.0222576
0.0216132
0.0209305
0.0303221
0.0296084
0.0289514
0.0283242
0.0277121
0.0271076
0.0265061
0.0259049
0.0253026
0.0246981
0.0240903
0.0234777
0.0228582
0.0222273
0.0215777
0.0208947
0.0304619
0.0297027
0.0290135
0.0283639
0.0277362
0.0271208
0.0265114
0.0259044
0.0252973
0.0246885
0.0240764
0.0234595
0.0228353
0.0221999
0.0215474
0.0208666
0.0305323
0.0297501
0.0290444
0.0283829
0.0277467
0.0271251
0.0265111
0.0259003
0.0252899
0.024678
0.0240628
0.0234427
0.0228154
0.0221779
0.0215254
0.0208505
0.0294674
0.0291645
0.0287296
0.0282265
0.0276865
0.0271242
0.0265485
0.0259649
0.0253771
0.0247879
0.0241994
0.0236132
0.0230305
0.0224504
0.0218672
0.0212362
0.0296316
0.0292408
0.0287692
0.0282489
0.0276994
0.0271314
0.0265521
0.025966
0.0253764
0.0247855
0.0241953
0.023607
0.0230213
0.0224364
0.0218453
0.0212032
0.0298935
0.0293877
0.0288546
0.0282997
0.0277295
0.0271487
0.0265611
0.0259693
0.0253753
0.0247806
0.0241862
0.0235931
0.0230008
0.0224068
0.0218027
0.0211456
0.0301812
0.0295635
0.0289627
0.0283662
0.0277697
0.0271721
0.0265733
0.0259736
0.0253735
0.0247733
0.0241733
0.0235734
0.0229726
0.022367
0.0217476
0.021075
0.0304487
0.0297354
0.0290722
0.0284351
0.0278119
0.0271966
0.0265857
0.0259774
0.0253704
0.024764
0.0241577
0.0235504
0.0229401
0.0223225
0.0216883
0.0210027
0.0306686
0.029881
0.029167
0.0284955
0.027849
0.0272178
0.0265958
0.0259793
0.0253656
0.0247532
0.0241405
0.0235259
0.0229067
0.0222781
0.021631
0.0209355
0.030823
0.029985
0.0292354
0.0285391
0.0278752
0.027232
0.0266013
0.0259781
0.0253589
0.0247412
0.024123
0.023502
0.0228753
0.0222379
0.0215811
0.0208796
0.0309009
0.0300374
0.0292693
0.0285599
0.0278866
0.0272365
0.0266006
0.025973
0.0253499
0.0247283
0.0241059
0.0234802
0.0228483
0.0222054
0.0215438
0.0208429
0.0312434
0.0303068
0.0294817
0.0287273
0.0280184
0.02734
0.0266816
0.0260359
0.025398
0.0247642
0.0241314
0.0234968
0.0228569
0.0222072
0.0215406
0.0208418
0.0311509
0.0302419
0.0294361
0.0286948
0.0279946
0.0273215
0.026666
0.0260215
0.0253835
0.0247488
0.0241144
0.023478
0.0228369
0.0221877
0.0215264
0.0208475
0.0309758
0.0301214
0.0293538
0.0286384
0.0279554
0.0272934
0.0266447
0.0260041
0.0253681
0.0247341
0.0240998
0.0234634
0.0228231
0.0221769
0.021523
0.0208607
0.0307304
0.0299566
0.0292436
0.0285647
0.0279057
0.0272591
0.02662
0.0259853
0.0253527
0.0247206
0.0240875
0.0234523
0.0228138
0.0221714
0.0215245
0.0208741
0.0304344
0.0297644
0.0291187
0.0284831
0.0278519
0.0272229
0.0265949
0.025967
0.0253385
0.0247089
0.0240775
0.023444
0.0228078
0.0221688
0.0215276
0.0208856
0.0301177
0.0295692
0.0289968
0.0284057
0.0278021
0.0271902
0.0265727
0.0259512
0.0253267
0.0246996
0.02407
0.0234381
0.0228039
0.0221678
0.0215307
0.0208942
0.0298304
0.0294068
0.028901
0.0283471
0.0277654
0.0271665
0.0265569
0.0259402
0.0253187
0.0246934
0.0240652
0.0234345
0.0228017
0.0221675
0.0215329
0.0208997
0.0296509
0.0293229
0.0288567
0.0283213
0.0277496
0.0271565
0.0265502
0.0259356
0.0253154
0.024691
0.0240633
0.0234331
0.0228008
0.0221674
0.0215338
0.0209019
0.0315602
0.0305595
0.0296839
0.0288894
0.0281487
0.0274451
0.0267668
0.0261055
0.0254555
0.0248123
0.0241722
0.0235319
0.0228872
0.0222328
0.0215602
0.0208502
0.0314613
0.03049
0.0296351
0.0288547
0.0281232
0.0274252
0.0267499
0.0260898
0.0254394
0.0247948
0.0241526
0.0235096
0.0228625
0.0222071
0.0215383
0.0208484
0.031274
0.0303613
0.0295471
0.0287944
0.0280813
0.0273951
0.026727
0.0260709
0.0254225
0.0247783
0.0241358
0.0234924
0.0228456
0.0221929
0.0215317
0.0208603
0.0310114
0.0301849
0.0294293
0.0287156
0.0280282
0.0273584
0.0267005
0.0260506
0.0254056
0.0247634
0.0241219
0.0234794
0.0228344
0.0221855
0.0215319
0.0208741
0.0306946
0.0299793
0.0292958
0.0286285
0.0279708
0.0273198
0.0266737
0.0260309
0.0253902
0.0247505
0.0241107
0.0234699
0.0228271
0.022182
0.0215347
0.0208865
0.0303557
0.0297705
0.0291654
0.0285458
0.0279176
0.0272849
0.0266499
0.026014
0.0253775
0.0247404
0.0241024
0.0234632
0.0228226
0.0221805
0.0215378
0.020896
0.0300481
0.0295967
0.029063
0.0284832
0.0278784
0.0272596
0.026633
0.0260022
0.0253688
0.0247337
0.0240971
0.0234592
0.02282
0.02218
0.0215402
0.0209021
0.0298558
0.0295069
0.0290156
0.0284556
0.0278616
0.0272489
0.026626
0.0259973
0.0253653
0.024731
0.024095
0.0234576
0.022819
0.0221799
0.0215411
0.0209045
0.0318418
0.0307858
0.0298662
0.0290366
0.0282678
0.0275417
0.0268456
0.0261703
0.0255092
0.0248574
0.0242107
0.023565
0.0229159
0.0222571
0.0215787
0.0208585
0.0317372
0.0307124
0.0298147
0.0289999
0.0282408
0.0275206
0.0268275
0.0261532
0.0254916
0.024838
0.0241885
0.0235394
0.0228869
0.022226
0.0215504
0.0208509
0.0315393
0.0305763
0.0297217
0.0289363
0.0281965
0.0274887
0.0268031
0.026133
0.0254732
0.0248198
0.0241697
0.0235198
0.0228671
0.0222085
0.0215407
0.0208613
0.0312618
0.03039
0.0295973
0.028853
0.0281404
0.0274499
0.0267751
0.0261113
0.025455
0.0248035
0.0241542
0.023505
0.022854
0.0221992
0.0215396
0.0208752
0.0309271
0.0301727
0.0294563
0.028761
0.0280797
0.0274091
0.0267466
0.0260903
0.0254385
0.0247895
0.0241419
0.0234943
0.0228455
0.0221948
0.0215419
0.0208881
0.0305689
0.029952
0.0293185
0.0286737
0.0280236
0.0273722
0.0267215
0.0260724
0.0254249
0.0247786
0.0241328
0.0234869
0.0228403
0.0221928
0.0215449
0.0208981
0.0302439
0.0297684
0.0292103
0.0286075
0.0279822
0.0273455
0.0267036
0.0260599
0.0254156
0.0247714
0.024127
0.0234824
0.0228373
0.022192
0.0215472
0.0209046
0.0300407
0.0296735
0.0291602
0.0285784
0.0279644
0.0273342
0.0266962
0.0260547
0.0254118
0.0247684
0.0241247
0.0234806
0.0228362
0.0221918
0.0215482
0.0209071
0.0320832
0.030981
0.0300245
0.0291651
0.0283723
0.0276269
0.0269154
0.0262278
0.0255571
0.0248978
0.0242451
0.0235948
0.0229416
0.0222786
0.021595
0.0208657
0.0319739
0.0309042
0.0299706
0.0291267
0.0283439
0.0276046
0.0268962
0.0262096
0.0255381
0.0248766
0.0242207
0.0235663
0.0229089
0.022243
0.0215615
0.020854
0.031767
0.030762
0.0298734
0.0290602
0.0282976
0.0275712
0.0268706
0.0261881
0.0255184
0.0248569
0.0242001
0.0235445
0.0228866
0.0222228
0.0215493
0.0208631
0.031477
0.0305673
0.0297434
0.0289732
0.0282389
0.0275306
0.0268411
0.0261652
0.0254991
0.0248393
0.0241832
0.0235282
0.0228718
0.0222119
0.0215469
0.0208768
0.0311273
0.0303402
0.029596
0.028877
0.0281755
0.0274879
0.0268112
0.0261431
0.0254815
0.0248244
0.0241699
0.0235163
0.0228622
0.0222064
0.0215486
0.02089
0.0307529
0.0301095
0.029452
0.0287857
0.0281169
0.0274493
0.0267849
0.0261243
0.0254671
0.0248127
0.0241601
0.0235082
0.0228563
0.0222039
0.0215515
0.0209004
0.0304134
0.0299177
0.0293389
0.0287166
0.0280736
0.0274214
0.0267662
0.0261111
0.0254574
0.024805
0.0241538
0.0235033
0.022853
0.0222029
0.0215538
0.0209071
0.030201
0.0298185
0.0292866
0.0286862
0.028055
0.0274096
0.0267584
0.0261057
0.0254534
0.0248019
0.0241514
0.0235013
0.0228517
0.0222026
0.0215548
0.0209098
0.0322806
0.0311414
0.0301551
0.0292717
0.0284593
0.0276981
0.0269739
0.0262762
0.0255975
0.0249319
0.0242743
0.0236199
0.0229632
0.0222965
0.0216082
0.0208715
0.0321675
0.031062
0.0300993
0.0292319
0.0284299
0.0276749
0.0269538
0.026257
0.0255773
0.0249092
0.024248
0.0235891
0.0229276
0.0222575
0.0215711
0.020857
0.0319535
0.0309148
0.0299987
0.029163
0.0283819
0.0276402
0.0269271
0.0262345
0.0255565
0.0248883
0.0242259
0.0235654
0.0229032
0.022235
0.0215568
0.0208651
0.0316534
0.0307132
0.0298641
0.0290729
0.028321
0.0275981
0.0268964
0.0262106
0.0255362
0.0248697
0.0242078
0.0235478
0.0228869
0.0222227
0.0215533
0.0208786
0.0312916
0.0304783
0.0297116
0.0289733
0.0282554
0.0275538
0.0268654
0.0261876
0.0255178
0.0248539
0.0241936
0.0235351
0.0228765
0.0222165
0.0215546
0.0208919
0.0309043
0.0302396
0.0295626
0.0288789
0.0281947
0.0275139
0.0268381
0.026168
0.0255028
0.0248416
0.0241832
0.0235263
0.0228699
0.0222135
0.0215572
0.0209025
0.030553
0.0300411
0.0294456
0.0288074
0.0281499
0.0274849
0.0268188
0.0261543
0.0254926
0.0248335
0.0241766
0.023521
0.0228663
0.0222123
0.0215595
0.0209095
0.0303333
0.0299385
0.0293915
0.0287759
0.0281307
0.0274727
0.0268107
0.0261487
0.0254884
0.0248303
0.0241739
0.023519
0.0228649
0.0222119
0.0215605
0.0209122
0.0324312
0.0312641
0.0302554
0.0293538
0.0285265
0.0277533
0.0270194
0.0263139
0.025629
0.0249585
0.024297
0.0236394
0.0229799
0.0223103
0.0216183
0.0208758
0.0323152
0.0311827
0.0301982
0.0293129
0.0284963
0.0277294
0.0269986
0.0262939
0.0256079
0.0249347
0.0242693
0.0236069
0.0229421
0.0222688
0.0215785
0.0208594
0.0320958
0.0310317
0.030095
0.0292422
0.028447
0.0276937
0.026971
0.0262707
0.0255863
0.0249128
0.024246
0.0235819
0.0229162
0.0222446
0.0215627
0.0208669
0.0317882
0.0308251
0.029957
0.0291498
0.0283846
0.0276504
0.0269395
0.026246
0.0255652
0.0248934
0.0242271
0.0235632
0.0228989
0.0222313
0.0215585
0.0208802
0.0314172
0.0305841
0.0298006
0.0290477
0.0283172
0.027605
0.0269076
0.0262222
0.0255462
0.0248769
0.0242122
0.0235498
0.0228877
0.0222244
0.0215594
0.0208936
0.0310202
0.0303395
0.0296478
0.0289508
0.028255
0.027564
0.0268796
0.026202
0.0255306
0.0248642
0.0242013
0.0235405
0.0228807
0.0222211
0.0215619
0.0209044
0.0306601
0.0301359
0.0295278
0.0288775
0.028209
0.0275343
0.0268597
0.026188
0.0255201
0.0248558
0.0241944
0.0235349
0.0228768
0.0222197
0.0215641
0.0209114
0.0304349
0.0300308
0.0294723
0.0288452
0.0281893
0.0275218
0.0268513
0.0261822
0.0255158
0.0248524
0.0241916
0.0235328
0.0228753
0.0222192
0.021565
0.0209142
0.0325327
0.0313472
0.0303234
0.0294095
0.0285723
0.0277909
0.0270505
0.0263397
0.0256507
0.0249768
0.0243126
0.0236528
0.0229913
0.0223196
0.021625
0.0208786
0.0324148
0.0312644
0.0302652
0.029368
0.0285415
0.0277666
0.0270292
0.0263192
0.0256289
0.0249522
0.0242839
0.0236191
0.0229521
0.0222765
0.0215836
0.0208611
0.0321918
0.0311109
0.0301603
0.029296
0.0284913
0.0277302
0.0270011
0.0262954
0.0256067
0.0249297
0.0242599
0.0235932
0.0229251
0.0222512
0.0215669
0.0208682
0.0318791
0.0309008
0.03002
0.0292021
0.0284278
0.0276861
0.0269689
0.0262702
0.0255851
0.0249097
0.0242403
0.0235738
0.0229071
0.0222372
0.0215621
0.0208815
0.0315021
0.0306559
0.029861
0.0290983
0.0283594
0.0276399
0.0269365
0.0262459
0.0255656
0.0248928
0.024225
0.0235599
0.0228954
0.0222299
0.0215628
0.0208949
0.0310986
0.0304072
0.0297057
0.0289998
0.028296
0.0275982
0.0269079
0.0262253
0.0255497
0.0248797
0.0242137
0.0235503
0.0228881
0.0222264
0.0215651
0.0209057
0.0307327
0.0302003
0.0295837
0.0289252
0.0282493
0.027568
0.0268876
0.026211
0.0255389
0.0248711
0.0242066
0.0235445
0.0228841
0.0222248
0.0215673
0.0209128
0.0305037
0.0300933
0.0295272
0.0288924
0.0282292
0.0275552
0.0268792
0.0262051
0.0255345
0.0248676
0.0242038
0.0235423
0.0228825
0.0222243
0.0215682
0.0209157
0.0325831
0.0313889