/*--------------------------------*- C++ -*----------------------------------*\
| =========                 |                                                 |
| \\      /  F ield         | foam-extend: Open Source CFD                    |
|  \\    /   O peration     | Version:     3.1                                |
|   \\  /    A nd           | Web:         http://www.extend-project.de       |
|    \\/     M anipulation  |                                                 |
\*---------------------------------------------------------------------------*/
FoamFile
{
    version     2.0;
    format      ascii;
    class       surfaceScalarField;
    location    "0.1";
    object      phi;
}
// * * * * * * * * * * * * * * * * * * * * * * * * * * * * * * * * * * * * * //

dimensions      [0 3 -1 0 0 0 0];

internalField   nonuniform List<scalar> 
41600
(
6.35284e-07
-3.7356e-07
-3.81161e-07
4.08468e-07
8.48488e-07
-2.3965e-07
-4.02327e-07
4.28773e-07
9.61621e-07
-1.34026e-07
-3.54327e-07
3.7522e-07
1.02299e-06
-7.7147e-08
-3.02579e-07
3.18359e-07
1.05628e-06
-4.49931e-08
-2.5616e-07
2.67859e-07
1.07344e-06
-2.57482e-08
-2.17025e-07
2.25614e-07
1.08069e-06
-1.3527e-08
-1.85686e-07
1.9196e-07
1.08125e-06
-5.12543e-09
-1.62261e-07
1.66829e-07
1.07655e-06
1.37743e-09
-1.46934e-07
1.50254e-07
1.06679e-06
7.31825e-09
-1.40317e-07
1.42762e-07
1.05092e-06
1.38695e-08
-1.439e-07
1.45907e-07
1.02597e-06
2.24197e-08
-1.60759e-07
1.63283e-07
9.84763e-07
3.51719e-08
-1.96808e-07
2.02845e-07
9.07789e-07
5.67812e-08
-2.62539e-07
2.82731e-07
7.28357e-07
9.91611e-08
-3.6866e-07
4.48931e-07
1.77043e-07
-4.30018e-07
7.70149e-07
9.95192e-07
-5.94072e-07
-4.85668e-07
5.22138e-07
1.14669e-06
-4.25945e-07
-5.14475e-07
5.49272e-07
1.2425e-06
-2.56877e-07
-4.49731e-07
4.76771e-07
1.29889e-06
-1.53736e-07
-3.81758e-07
4.01958e-07
1.33046e-06
-9.14234e-08
-3.2182e-07
3.36684e-07
1.3466e-06
-5.27495e-08
-2.71774e-07
2.82629e-07
1.35283e-06
-2.76496e-08
-2.31873e-07
2.39771e-07
1.35212e-06
-1.01529e-08
-2.0203e-07
2.07762e-07
1.34584e-06
3.51128e-09
-1.82306e-07
1.86455e-07
1.33408e-06
1.60396e-08
-1.73309e-07
1.76339e-07
1.31573e-06
2.97965e-08
-1.76689e-07
1.79121e-07
1.28774e-06
4.74804e-08
-1.95926e-07
1.98854e-07
1.24309e-06
7.30066e-08
-2.37652e-07
2.44465e-07
1.16422e-06
1.13159e-07
-3.13003e-07
3.35492e-07
9.95789e-07
1.81168e-07
-4.28721e-07
5.15147e-07
2.8084e-07
-4.57482e-07
8.12733e-07
1.28086e-06
-6.58957e-07
-5.35381e-07
5.78085e-07
1.32335e-06
-5.07829e-07
-5.56096e-07
5.9549e-07
1.3585e-06
-3.21868e-07
-4.78398e-07
5.08236e-07
1.38143e-06
-1.98544e-07
-4.01484e-07
4.23369e-07
1.39422e-06
-1.20101e-07
-3.35618e-07
3.51505e-07
1.39966e-06
-6.96793e-08
-2.81535e-07
2.93019e-07
1.39985e-06
-3.61197e-08
-2.38746e-07
2.47033e-07
1.396e-06
-1.22741e-08
-2.0668e-07
2.12649e-07
1.38861e-06
6.61606e-09
-1.85044e-07
1.89325e-07
1.37752e-06
2.40593e-08
-1.74123e-07
1.77192e-07
1.36184e-06
4.31383e-08
-1.75181e-07
1.77522e-07
1.3395e-06
6.72534e-08
-1.91101e-07
1.93665e-07
1.30581e-06
1.00997e-07
-2.27445e-07
2.33145e-07
1.24855e-06
1.51443e-07
-2.93268e-07
3.12243e-07
1.12615e-06
2.30135e-07
-3.91326e-07
4.64763e-07
3.26658e-07
-3.92932e-07
6.99952e-07
1.54392e-06
-6.20199e-07
-5.82548e-07
6.31496e-07
1.49243e-06
-5.00379e-07
-5.9374e-07
6.37773e-07
1.46586e-06
-3.27918e-07
-5.02551e-07
5.35179e-07
1.45049e-06
-2.06684e-07
-4.16424e-07
4.39934e-07
1.43998e-06
-1.2641e-07
-3.44594e-07
3.61414e-07
1.43147e-06
-7.31815e-08
-2.86573e-07
2.98587e-07
1.4236e-06
-3.68313e-08
-2.41008e-07
2.49589e-07
1.41561e-06
-1.04126e-08
-2.06723e-07
2.12844e-07
1.40697e-06
1.0923e-08
-1.82956e-07
1.87292e-07
1.39715e-06
3.08569e-08
-1.69535e-07
1.72562e-07
1.38551e-06
5.26407e-08
-1.6715e-07
1.69289e-07
1.37101e-06
7.97729e-08
-1.77818e-07
1.7979e-07
1.35128e-06
1.1674e-07
-2.05657e-07
2.09647e-07
1.31904e-06
1.69915e-07
-2.57317e-07
2.71086e-07
1.24567e-06
2.48027e-07
-3.32735e-07
3.88209e-07
3.28206e-07
-3.12487e-07
5.55472e-07
1.76819e-06
-5.13076e-07
-6.26051e-07
6.80714e-07
1.64527e-06
-4.25895e-07
-6.29459e-07
6.77897e-07
1.56703e-06
-2.85037e-07
-5.25857e-07
5.61211e-07
1.51709e-06
-1.81869e-07
-4.30849e-07
4.55973e-07
1.48431e-06
-1.11381e-07
-3.53069e-07
3.70826e-07
1.46191e-06
-6.33346e-08
-2.91006e-07
3.03553e-07
1.44585e-06
-2.96429e-08
-2.42506e-07
2.51381e-07
1.43365e-06
-4.48102e-09
-2.05795e-07
2.12064e-07
1.42381e-06
1.63808e-08
-1.79612e-07
1.83996e-07
1.41545e-06
3.62399e-08
-1.63287e-07
1.66263e-07
1.40814e-06
5.80311e-08
-1.56882e-07
1.58803e-07
1.40169e-06
8.48694e-08
-1.61483e-07
1.62828e-07
1.39561e-06
1.20639e-07
-1.7972e-07
1.81909e-07
1.38653e-06
1.70649e-07
-2.15926e-07
2.24267e-07
1.35601e-06
2.41308e-07
-2.67908e-07
3.05154e-07
3.02169e-07
-2.29125e-07
4.08218e-07
1.94265e-06
-3.61306e-07
-6.61886e-07
7.21213e-07
1.76915e-06
-3.0453e-07
-6.59624e-07
7.11755e-07
1.65209e-06
-2.05666e-07
-5.45896e-07
5.83588e-07
1.57481e-06
-1.3113e-07
-4.43347e-07
4.69882e-07
1.52371e-06
-7.88661e-08
-3.60344e-07
3.78929e-07
1.4896e-06
-4.22477e-08
-2.94608e-07
3.07631e-07
1.46655e-06
-1.57241e-08
-2.43339e-07
2.52478e-07
1.45079e-06
4.86794e-09
-2.04241e-07
2.10645e-07
1.44009e-06
2.26532e-08
-1.756e-07
1.80031e-07
1.43327e-06
4.01241e-08
-1.5627e-07
1.59208e-07
1.43004e-06
5.95163e-08
-1.45705e-07
1.47444e-07
1.43093e-06
8.31829e-08
-1.44098e-07
1.44898e-07
1.43696e-06
1.14028e-07
-1.5266e-07
1.53239e-07
1.4482e-06
1.56032e-07
-1.7356e-07
1.76941e-07
1.45539e-06
2.13801e-07
-2.02809e-07
2.2312e-07
2.5426e-07
-1.47446e-07
2.66201e-07
2.06146e-06
-1.82441e-07
-6.87114e-07
7.49713e-07
1.85582e-06
-1.53656e-07
-6.81158e-07
7.35921e-07
1.7132e-06
-1.02435e-07
-5.60305e-07
5.99688e-07
1.61739e-06
-6.2883e-08
-4.52283e-07
4.79851e-07
1.5536e-06
-3.42705e-08
-3.65365e-07
3.84563e-07
1.51129e-06
-1.33156e-08
-2.96766e-07
3.10142e-07
1.48338e-06
2.84396e-09
-2.43221e-07
2.52558e-07
1.46531e-06
1.64325e-08
-2.02044e-07
2.08551e-07
1.45432e-06
2.91777e-08
-1.71155e-07
1.75625e-07
1.44903e-06
4.24927e-08
-1.49006e-07
1.51926e-07
1.44927e-06
5.76453e-08
-1.34523e-07
1.36148e-07
1.45611e-06
7.59236e-08
-1.27106e-07
1.27532e-07
1.47192e-06
9.88362e-08
-1.26687e-07
1.2606e-07
1.5002e-06
1.28369e-07
-1.33425e-07
1.32808e-07
1.5418e-06
1.66539e-07
-1.416e-07
1.47263e-07
1.8306e-07
-7.09996e-08
1.34717e-07
2.12166e-06
-6.99924e-07
7.64204e-07
9.12991e-09
1.90059e-06
-6.92075e-07
7.48202e-07
1.12784e-08
1.74555e-06
-5.67488e-07
6.07752e-07
1.23464e-08
1.64064e-06
-4.56508e-07
4.84615e-07
1.39161e-08
1.57065e-06
-3.6737e-07
3.86888e-07
1.62017e-08
1.52445e-06
-2.97021e-07
3.10582e-07
1.93213e-08
1.49444e-06
-2.41939e-07
2.51379e-07
2.34152e-08
1.47566e-06
-1.99197e-07
2.05758e-07
2.8657e-08
1.46509e-06
-1.66472e-07
1.70968e-07
3.52475e-08
1.46126e-06
-1.41923e-07
1.4485e-07
4.33959e-08
1.46403e-06
-1.24076e-07
1.25675e-07
5.32766e-08
1.47473e-06
-1.11702e-07
1.11985e-07
6.49377e-08
1.49668e-06
-1.03674e-07
1.0244e-07
7.81187e-08
1.53645e-06
-9.8393e-08
9.53244e-08
9.16718e-08
1.6085e-06
-8.86341e-08
8.36322e-08
9.94894e-08
-6.86647e-09
2.39164e-08
7.02318e-08
6.72079e-07
-3.99983e-07
-3.43969e-07
8.90904e-07
-2.56514e-07
-3.64638e-07
1.00272e-06
-1.43368e-07
-3.22774e-07
1.05965e-06
-8.24239e-08
-2.77089e-07
1.08724e-06
-4.7957e-08
-2.35785e-07
1.09825e-06
-2.73059e-08
-2.00733e-07
1.09923e-06
-1.41469e-08
-1.72517e-07
1.09333e-06
-5.02064e-09
-1.51343e-07
1.08164e-06
2.17249e-09
-1.37421e-07
1.06363e-06
8.93542e-09
-1.31243e-07
1.03692e-06
1.66562e-08
-1.33847e-07
9.9617e-07
2.70868e-08
-1.47093e-07
9.30072e-07
4.31473e-08
-1.73857e-07
8.13832e-07
7.10254e-08
-2.17324e-07
5.92717e-07
1.25538e-07
-2.73082e-07
2.15617e-07
-2.70474e-07
1.05537e-06
-6.35838e-07
-4.3718e-07
1.2059e-06
-4.55892e-07
-4.65627e-07
1.29689e-06
-2.74766e-07
-4.09324e-07
1.34633e-06
-1.64231e-07
-3.49393e-07
1.37008e-06
-9.74252e-08
-2.96102e-07
1.37821e-06
-5.59136e-08
-2.51298e-07
1.37645e-06
-2.88738e-08
-2.15383e-07
1.36766e-06
-9.85153e-09
-1.8841e-07
1.35274e-06
5.28206e-09
-1.70498e-07
1.33094e-06
1.95655e-08
-1.62133e-07
1.29956e-06
3.57988e-08
-1.6445e-07
1.25288e-06
5.73721e-08
-1.79535e-07
1.17951e-06
8.9424e-08
-2.1056e-07
1.05724e-06
1.4088e-07
-2.60587e-07
8.47705e-07
2.27335e-07
-3.20981e-07
3.3875e-07
-2.88557e-07
1.36105e-06
-7.05097e-07
-4.80278e-07
1.39462e-06
-5.43455e-07
-5.02097e-07
1.42036e-06
-3.44228e-07
-4.34675e-07
1.43369e-06
-2.1205e-07
-3.66993e-07
1.4371e-06
-1.27938e-07
-3.08517e-07
1.4336e-06
-7.37982e-08
-2.60149e-07
1.42525e-06
-3.76201e-08
-2.21658e-07
1.41307e-06
-1.16642e-08
-1.92684e-07
1.39706e-06
9.29201e-09
-1.73044e-07
1.37625e-06
2.92125e-08
-1.62954e-07
1.34835e-06
5.17554e-08
-1.63246e-07
1.30901e-06
8.11966e-08
-1.75584e-07
1.24992e-06
1.23576e-07
-2.025e-07
1.15535e-06
1.88228e-07
-2.46044e-07
9.99102e-07
2.88242e-07
-2.9599e-07
3.95478e-07
-2.45953e-07
1.64276e-06
-6.63487e-07
-5.20938e-07
1.57572e-06
-5.35401e-07
-5.34749e-07
1.5353e-06
-3.50633e-07
-4.55729e-07
1.50758e-06
-2.20683e-07
-3.80074e-07
1.48604e-06
-1.34588e-07
-3.16399e-07
1.46764e-06
-7.7405e-08
-2.64567e-07
1.45079e-06
-3.81766e-08
-2.23605e-07
1.4344e-06
-9.36574e-09
-1.92635e-07
1.41744e-06
1.43663e-08
-1.71071e-07
1.39867e-06
3.71974e-08
-1.58745e-07
1.37631e-06
6.30077e-08
-1.56045e-07
1.3475e-06
9.623e-08
-1.64041e-07
1.30702e-06
1.42837e-07
-1.84436e-07
1.24482e-06
2.11393e-07
-2.18287e-07
1.14382e-06
3.1169e-07
-2.55181e-07
4.01848e-07
-1.94247e-07
1.88296e-06
-5.488e-07
-5.58458e-07
1.73947e-06
-4.55647e-07
-5.65719e-07
1.64372e-06
-3.04729e-07
-4.76015e-07
1.57898e-06
-1.94125e-07
-3.92665e-07
1.53362e-06
-1.18495e-07
-3.23798e-07
1.50045e-06
-6.68339e-08
-2.68405e-07
1.475e-06
-3.04092e-08
-2.24826e-07
1.45439e-06
-2.88322e-09
-1.91667e-07
1.43663e-06
2.04243e-08
-1.67914e-07
1.42024e-06
4.32849e-08
-1.52984e-07
1.4039e-06
6.92421e-08
-1.46777e-07
1.38606e-06
1.02313e-07
-1.49725e-07
1.36407e-06
1.47803e-07
-1.62698e-07
1.33234e-06
2.13079e-07
-1.85876e-07
1.28007e-06
3.0538e-07
-2.09327e-07
3.75325e-07
-1.41076e-07
2.06982e-06
-3.86431e-07
-5.89386e-07
1.87222e-06
-3.25783e-07
-5.91886e-07
1.7349e-06
-2.19844e-07
-4.93459e-07
1.6409e-06
-1.39906e-07
-4.03565e-07
1.57597e-06
-8.37837e-08
-3.3013e-07
1.53036e-06
-4.43404e-08
-2.71491e-07
1.49761e-06
-1.55669e-08
-2.25433e-07
1.47351e-06
7.08883e-09
-1.90112e-07
1.45535e-06
2.71144e-08
-1.64124e-07
1.44144e-06
4.74034e-08
-1.46487e-07
1.43089e-06
7.07219e-08
-1.36628e-07
1.42325e-06
1.00224e-07
-1.34366e-07
1.41807e-06
1.401e-07
-1.39783e-07
1.41362e-06
1.96249e-07
-1.52276e-07
1.40464e-06
2.74169e-07
-1.62625e-07
3.23198e-07
-8.88308e-08
2.19709e-06
-1.95145e-07
-6.11163e-07
1.96511e-06
-1.64397e-07
-6.10563e-07
1.80043e-06
-1.09484e-07
-5.0599e-07
1.6866e-06
-6.70191e-08
-4.11339e-07
1.60814e-06
-3.62202e-08
-3.3447e-07
1.55387e-06
-1.3539e-08
-2.73289e-07
1.51612e-06
4.14343e-09
-2.25183e-07
1.48984e-06
1.92891e-08
-1.87968e-07
1.47185e-06
3.38686e-08
-1.59922e-07
1.46039e-06
4.95864e-08
-1.39727e-07
1.45488e-06
6.81153e-08
-1.264e-07
1.45583e-06
9.1377e-08
-1.1921e-07
1.46481e-06
1.21946e-07
-1.1752e-07
1.48409e-06
1.63539e-07
-1.19986e-07
1.51525e-06
2.19441e-07
-1.18035e-07
2.44929e-07
-3.94627e-08
2.26158e-06
-6.22205e-07
9.69514e-09
2.01312e-06
-6.2001e-07
1.20042e-08
1.83515e-06
-5.12209e-07
1.3201e-08
1.71162e-06
-4.14975e-07
1.49799e-08
1.62659e-06
-3.36146e-07
1.75853e-08
1.56826e-06
-2.73398e-07
2.11699e-08
1.52843e-06
-2.23893e-07
2.59237e-08
1.50167e-06
-1.85235e-07
3.20933e-08
1.48457e-06
-1.55492e-07
3.99858e-08
1.47537e-06
-1.33101e-07
4.9969e-08
1.4737e-06
-1.16759e-07
6.24608e-08
1.48077e-06
-1.05296e-07
7.79049e-08
1.49977e-06
-9.74599e-08
9.67323e-08
1.53709e-06
-9.12062e-08
1.19027e-07
1.60626e-06
-7.85889e-08
1.40225e-07
2.06828e-09
1.25477e-07
7.0399e-07
-4.22716e-07
-2.98592e-07
9.28029e-07
-2.71083e-07
-3.17594e-07
1.03899e-06
-1.51473e-07
-2.82265e-07
1.09226e-06
-8.70183e-08
-2.43339e-07
1.11494e-06
-5.05421e-08
-2.07925e-07
1.12057e-06
-2.86585e-08
-1.77704e-07
1.11597e-06
-1.4668e-08
-1.5325e-07
1.10431e-06
-4.89096e-09
-1.34786e-07
1.08644e-06
2.92589e-09
-1.22481e-07
1.06141e-06
1.04255e-08
-1.16637e-07
1.02621e-06
1.91656e-08
-1.1781e-07
9.74788e-07
3.1153e-08
-1.26825e-07
8.95739e-07
4.97296e-08
-1.44537e-07
7.67396e-07
8.17275e-08
-1.70709e-07
5.5019e-07
1.42489e-07
-1.98364e-07
2.36638e-07
-1.79795e-07
1.10742e-06
-6.71819e-07
-3.78768e-07
1.25762e-06
-4.81792e-07
-4.05111e-07
1.34482e-06
-2.90297e-07
-3.57707e-07
1.38848e-06
-1.73374e-07
-3.06693e-07
1.40552e-06
-1.02661e-07
-2.61029e-07
1.40664e-06
-5.86598e-08
-2.22417e-07
1.39779e-06
-2.98987e-08
-1.913e-07
1.38178e-06
-9.50685e-09
-1.67787e-07
1.35923e-06
6.9513e-09
-1.51974e-07
1.32887e-06
2.27981e-08
-1.44138e-07
1.28728e-06
4.11689e-08
-1.44865e-07
1.22802e-06
6.59212e-08
-1.55043e-07
1.13984e-06
1.02875e-07
-1.75529e-07
1.00479e-06
1.61793e-07
-2.05597e-07
8.029e-07
2.58048e-07
-2.34656e-07
3.70956e-07
-1.91698e-07
1.43029e-06
-7.4489e-07
-4.14986e-07
1.45673e-06
-5.74301e-07
-4.36022e-07
1.47476e-06
-3.63657e-07
-3.79347e-07
1.48004e-06
-2.23822e-07
-3.21822e-07
1.47541e-06
-1.34773e-07
-2.71774e-07
1.46409e-06
-7.73665e-08
-2.30126e-07
1.4482e-06
-3.88609e-08
-1.96799e-07
1.42857e-06
-1.10078e-08
-1.71561e-07
1.40493e-06
1.18125e-08
-1.54259e-07
1.37579e-06
3.39412e-08
-1.44961e-07
1.33826e-06
5.94765e-08
-1.44027e-07
1.2874e-06
9.32795e-08
-1.52078e-07
1.21522e-06
1.42171e-07
-1.69618e-07
1.11016e-06
2.16269e-07
-1.95454e-07
9.62739e-07
3.27613e-07
-2.18138e-07
4.33595e-07
-1.62266e-07
1.72801e-06
-7.00854e-07
-4.48986e-07
1.64817e-06
-5.65752e-07
-4.63456e-07
1.59627e-06
-3.70385e-07
-3.971e-07
1.55814e-06
-2.32886e-07
-3.32886e-07
1.52714e-06
-1.41714e-07
-2.78454e-07
1.50012e-06
-8.10489e-08
-2.33866e-07
1.47534e-06
-3.92555e-08
-1.98426e-07
1.45145e-06
-8.28814e-09
-1.71473e-07
1.42711e-06
1.76118e-08
-1.52524e-07
1.40062e-06
4.30338e-08
-1.41348e-07
1.3697e-06
7.23386e-08
-1.37991e-07
1.33106e-06
1.10582e-07
-1.42702e-07
1.27984e-06
1.64525e-07
-1.5557e-07
1.20947e-06
2.43422e-07
-1.75072e-07
1.11636e-06
3.55586e-07
-1.90039e-07
4.43354e-07
-1.26675e-07
1.9819e-06
-5.79655e-07
-4.80367e-07
1.82133e-06
-4.81444e-07
-4.89463e-07
1.71097e-06
-3.21856e-07
-4.1418e-07
1.63373e-06
-2.04802e-07
-3.43505e-07
1.57758e-06
-1.24679e-07
-2.84691e-07
1.53503e-06
-6.98247e-08
-2.37077e-07
1.5013e-06
-3.09554e-08
-1.99396e-07
1.47319e-06
-1.2896e-09
-1.70559e-07
1.44839e-06
2.42398e-08
-1.49735e-07
1.42501e-06
4.97977e-08
-1.36369e-07
1.40134e-06
7.93942e-08
-1.30162e-07
1.37551e-06
1.17649e-07
-1.30969e-07
1.3452e-06
1.70618e-07
-1.38478e-07
1.30742e-06
2.46292e-07
-1.50962e-07
1.26144e-06
3.5034e-07
-1.58099e-07
4.17589e-07
-9.04839e-08
2.17942e-06
-4.0813e-07
-5.06247e-07
1.96173e-06
-3.44206e-07
-5.11441e-07
1.80745e-06
-2.32162e-07
-4.28865e-07
1.6993e-06
-1.47531e-07
-3.5269e-07
1.62253e-06
-8.80268e-08
-2.90014e-07
1.56693e-06
-4.60777e-08
-2.39635e-07
1.52565e-06
-1.52802e-08
-1.99826e-07
1.49411e-06
9.25507e-09
-1.69123e-07
1.46928e-06
3.13282e-08
-1.46377e-07
1.44915e-06
5.41668e-08
-1.30726e-07
1.4325e-06
8.09456e-08
-1.21533e-07
1.41871e-06
1.15357e-07
-1.18282e-07
1.40755e-06
1.62279e-07
-1.20288e-07
1.39903e-06
2.28226e-07
-1.25689e-07
1.39462e-06
3.1735e-07
-1.25223e-07
3.64128e-07
-5.50901e-08
2.31395e-06
-2.06098e-07
-5.2447e-07
2.05999e-06
-1.73683e-07
-5.27125e-07
1.87682e-06
-1.15578e-07
-4.39405e-07
1.74775e-06
-7.05725e-08
-3.59225e-07
1.65673e-06
-3.78445e-08
-2.93639e-07
1.59207e-06
-1.36174e-08
-2.41088e-07
1.54567e-06
5.45117e-09
-1.99513e-07
1.51209e-06
2.20305e-08
-1.67166e-07
1.48784e-06
3.83023e-08
-1.42645e-07
1.47089e-06
5.62149e-08
-1.24823e-07
1.46045e-06
7.77558e-08
-1.12775e-07
1.45697e-06
1.05279e-07
-1.05649e-07
1.4622e-06
1.4195e-07
-1.02424e-07
1.47942e-06
1.92126e-07
-1.011e-07
1.51382e-06
2.58357e-07
-9.34419e-08
2.83226e-07
-2.15437e-08
2.38214e-06
-5.33697e-07
1.02294e-08
2.11079e-06
-5.3504e-07
1.26916e-08
1.91361e-06
-4.44614e-07
1.40116e-08
1.77432e-06
-3.62253e-07
1.59899e-08
1.67643e-06
-2.94996e-07
1.88997e-08
1.60758e-06
-2.41096e-07
2.29259e-08
1.55914e-06
-1.98302e-07
2.83053e-08
1.52528e-06
-1.64696e-07
3.53507e-08
1.50232e-06
-1.387e-07
4.44639e-08
1.48829e-06
-1.18999e-07
5.61471e-08
1.48272e-06
-1.04446e-07
7.10094e-08
1.48686e-06
-9.39198e-08
8.97697e-08
1.50419e-06
-8.61032e-08
1.13259e-07
1.54184e-06
-7.88298e-08
1.42097e-07
1.61471e-06
-6.48889e-08
1.71791e-07
6.48242e-09
1.62519e-07
7.3082e-07
-4.41707e-07
-2.46585e-07
9.59455e-07
-2.8329e-07
-2.62939e-07
1.06989e-06
-1.58283e-07
-2.34421e-07
1.12021e-06
-9.08878e-08
-2.02762e-07
1.13882e-06
-5.2721e-08
-1.73816e-07
1.13991e-06
-2.97938e-08
-1.49001e-07
1.13058e-06
-1.50939e-08
-1.28823e-07
1.11403e-06
-4.75854e-09
-1.13479e-07
1.09103e-06
3.59146e-09
-1.03077e-07
1.06044e-06
1.1708e-08
-9.77557e-08
1.01908e-06
2.12685e-08
-9.77154e-08
9.6096e-07
3.44338e-08
-1.03141e-07
8.75567e-07
5.47525e-08
-1.13896e-07
7.44254e-07
8.92758e-08
-1.28672e-07
5.34192e-07
1.53342e-07
-1.41645e-07
2.49337e-07
-1.21965e-07
1.1511e-06
-7.01899e-07
-3.12337e-07
1.30133e-06
-5.03504e-07
-3.35125e-07
1.38561e-06
-3.03351e-07
-2.96925e-07
1.42457e-06
-1.81074e-07
-2.55463e-07
1.43605e-06
-1.07073e-07
-2.18156e-07
1.43126e-06
-6.09635e-08
-1.8646e-07
1.41639e-06
-3.07337e-08
-1.60791e-07
1.39427e-06
-9.1677e-09
-1.4126e-07
1.36538e-06
8.42033e-09
-1.27913e-07
1.32823e-06
2.55728e-08
-1.20849e-07
1.27922e-06
4.56606e-08
-1.20249e-07
1.21205e-06
7.28252e-08
-1.26263e-07
1.11667e-06
1.13222e-07
-1.3862e-07
9.78924e-07
1.76882e-07
-1.55454e-07
7.87194e-07
2.78629e-07
-1.68212e-07
3.91578e-07
-1.29806e-07
1.48831e-06
-7.78181e-07
-3.41485e-07
1.50913e-06
-6.00177e-07
-3.60173e-07
1.52099e-06
-3.79996e-07
-3.14556e-07
1.51968e-06
-2.33739e-07
-2.67855e-07
1.50837e-06
-1.40531e-07
-2.27004e-07
1.49048e-06
-8.03547e-08
-1.92842e-07
1.46818e-06
-3.98609e-08
-1.65368e-07
1.44225e-06
-1.03798e-08
-1.44424e-07
1.41224e-06
1.40319e-08
-1.29863e-07
1.37647e-06
3.8007e-08
-1.21625e-07
1.33189e-06
6.59531e-08
-1.19738e-07
1.27374e-06
1.03086e-07
-1.24184e-07
1.19524e-06
1.566e-07
-1.34502e-07
1.08847e-06
2.36794e-07
-1.48597e-07
9.51726e-07
3.54543e-07
-1.57305e-07
4.58212e-07
-1.09219e-07
1.79938e-06
-7.32132e-07
-3.68735e-07
1.70922e-06
-5.91228e-07
-3.82243e-07
1.648e-06
-3.87002e-07
-3.28872e-07
1.60134e-06
-2.43167e-07
-2.76795e-07
1.56247e-06
-1.47712e-07
-2.32409e-07
1.5282e-06
-8.4089e-08
-1.95865e-07
1.49669e-06
-4.01006e-08
-1.66672e-07
1.46645e-06
-7.27896e-09
-1.44331e-07
1.43592e-06
2.04757e-08
-1.2844e-07
1.40323e-06
4.80707e-08
-1.18719e-07
1.36597e-06
8.02043e-08
-1.14982e-07
1.32104e-06
1.22308e-07
-1.16996e-07
1.26467e-06
1.81507e-07
-1.24104e-07
1.19339e-06
2.67136e-07
-1.34134e-07
1.11004e-06
3.85964e-07
-1.38115e-07
4.69892e-07
-8.42563e-08
2.06469e-06
-6.0549e-07
-3.93889e-07
1.89026e-06
-5.03104e-07
-4.03155e-07
1.76797e-06
-3.36263e-07
-3.4263e-07
1.68044e-06
-2.1379e-07
-2.85357e-07
1.61534e-06
-1.2987e-07
-2.37433e-07
1.56491e-06
-7.22986e-08
-1.98435e-07
1.52416e-06
-3.13315e-08
-1.67418e-07
1.48969e-06
1.79627e-10
-1.43542e-07
1.45895e-06
2.76159e-08
-1.26136e-07
1.42989e-06
5.54455e-08
-1.14683e-07
1.40069e-06
8.80056e-08
-1.08764e-07
1.36967e-06
1.30277e-07
-1.07921e-07
1.33537e-06
1.88655e-07
-1.11327e-07
1.29722e-06
2.71164e-07
-1.16836e-07
1.25936e-06
3.81816e-07
-1.16098e-07
4.44638e-07
-5.89712e-08
2.2711e-06
-4.26296e-07
-4.14641e-07
2.03706e-06
-3.5967e-07
-4.2083e-07
1.8689e-06
-2.42515e-07
-3.54457e-07
1.74911e-06
-1.53935e-07
-2.92755e-07
1.6625e-06
-9.15657e-08
-2.4171e-07
1.59851e-06
-4.74763e-08
-2.00468e-07
1.55e-06
-1.49342e-08
-1.67713e-07
1.51214e-06
1.12293e-08
-1.42314e-07
1.48167e-06
3.50676e-08
-1.23352e-07
1.4564e-06
6.00651e-08
-1.10085e-07
1.43507e-06
8.96821e-08
-1.01872e-07
1.41717e-06
1.27933e-07
-9.80412e-08
1.40315e-06
1.80009e-07
-9.76181e-08
1.39468e-06
2.5248e-07
-9.85392e-08
1.39653e-06
3.48001e-07
-9.32601e-08
3.90603e-07
-3.43661e-08
2.4117e-06
-2.15253e-07
-4.29253e-07
2.13981e-06
-1.81458e-07
-4.33439e-07
1.9415e-06
-1.20677e-07
-3.62938e-07
1.79987e-06
-7.35258e-08
-2.98009e-07
1.69843e-06
-3.91551e-08
-2.44608e-07
1.62506e-06
-1.35972e-08
-2.01596e-07
1.57133e-06
6.67633e-09
-1.67396e-07
1.53154e-06
2.45071e-08
-1.40651e-07
1.50196e-06
4.22476e-08
-1.20246e-07
1.48042e-06
6.20323e-08
-1.0525e-07
1.46609e-06
8.60671e-08
-9.48292e-08
1.45954e-06
1.16964e-07
-8.81265e-08
1.46299e-06
1.58164e-07
-8.40337e-08
1.48077e-06
2.14166e-07
-8.05627e-08
1.51981e-06
2.86499e-07
-7.09836e-08
3.08582e-07
-1.10699e-08
2.48297e-06
-4.36642e-07
1.07114e-08
2.19295e-06
-4.39791e-07
1.33127e-08
1.98003e-06
-3.67114e-07
1.47447e-08
1.82777e-06
-3.00422e-07
1.69034e-08
1.7192e-06
-2.45663e-07
2.00878e-08
1.64154e-06
-2.01546e-07
2.45113e-08
1.58581e-06
-1.66342e-07
3.04503e-08
1.5459e-06
-1.3856e-07
3.82733e-08
1.51795e-06
-1.16952e-07
4.84577e-08
1.49982e-06
-1.00451e-07
6.16059e-08
1.49107e-06
-8.80808e-08
7.84564e-08
1.49306e-06
-7.88351e-08
9.98871e-08
1.5097e-06
-7.14878e-08
1.26912e-07
1.54882e-06
-6.40889e-08
1.60303e-07
1.62601e-06
-5.07778e-08
1.95194e-07
8.12458e-09
1.87803e-07
7.52431e-07
-4.56927e-07
-1.89392e-07
9.84889e-07
-2.93097e-07
-2.02299e-07
1.09503e-06
-1.63766e-07
-1.80792e-07
1.14304e-06
-9.40072e-08
-1.56769e-07
1.15842e-06
-5.44777e-08
-1.34716e-07
1.15586e-06
-3.0706e-08
-1.1574e-07
1.14271e-06
-1.54294e-08
-1.00245e-07
1.12226e-06
-4.63971e-09
-8.83818e-08
1.09525e-06
4.14019e-09
-8.02074e-08
1.0605e-06
1.27423e-08
-7.57523e-08
1.01488e-06
2.2923e-08
-7.50208e-08
9.5271e-07
3.69307e-08
-7.78992e-08
8.64328e-07
5.84093e-08
-8.39238e-08
7.32942e-07
9.44823e-08
-9.17684e-08
5.28249e-07
1.60454e-07
-9.74072e-08
2.57558e-07
-8.13673e-08
1.18623e-06
-7.26008e-07
-2.39659e-07
1.33667e-06
-5.20944e-07
-2.57722e-07
1.41876e-06
-3.13853e-07
-2.28931e-07
1.45405e-06
-1.87277e-07
-1.97475e-07
1.4611e-06
-1.10626e-07
-1.69057e-07
1.45156e-06
-6.28118e-08
-1.44823e-07
1.43185e-06
-3.13893e-08
-1.25114e-07
1.40484e-06
-8.86925e-09
-1.10019e-07
1.37098e-06
9.62822e-09
-9.95439e-08
1.32874e-06
2.78069e-08
-9.36765e-08
1.2746e-06
4.91942e-08
-9.23779e-08
1.20263e-06
7.80948e-08
-9.54625e-08
1.1039e-06
1.20819e-07
-1.02299e-07
9.66567e-07
1.87459e-07
-1.11095e-07
7.82313e-07
2.92429e-07
-1.15933e-07
4.05275e-07
-8.64185e-08
1.53491e-06
-8.04876e-07
-2.61592e-07
1.55145e-06
-6.20969e-07
-2.76683e-07
1.55851e-06
-3.93145e-07
-2.42327e-07
1.55203e-06
-2.41728e-07
-2.06926e-07
1.5354e-06
-1.45167e-07
-1.75833e-07
1.51223e-06
-8.27487e-08
-1.4973e-07
1.48476e-06
-4.06391e-08
-1.28649e-07
1.45378e-06
-9.83436e-09
-1.12479e-07
1.41877e-06
1.5859e-08
-1.01084e-07
1.378e-06
4.12876e-08
-9.43407e-08
1.3285e-06
7.10646e-08
-9.2108e-08
1.2659e-06
1.10609e-07
-9.40995e-08
1.18452e-06
1.6728e-07
-9.95813e-08
1.07866e-06
2.51352e-07
-1.06632e-07
9.49791e-07
3.72865e-07
-1.08868e-07
4.74713e-07
-7.23535e-08
1.85667e-06
-7.57223e-07
-2.82031e-07
1.75847e-06
-6.11708e-07
-2.93298e-07
1.68994e-06
-4.00378e-07
-2.53117e-07
1.63654e-06
-2.51447e-07
-2.13671e-07
1.59141e-06
-1.52537e-07
-1.79913e-07
1.55133e-06
-8.65172e-08
-1.52011e-07
1.51439e-06
-4.07422e-08
-1.29628e-07
1.47903e-06
-6.41095e-09
-1.12401e-07
1.44362e-06
2.284e-08
-1.00009e-07
1.40622e-06
5.21501e-08
-9.21762e-08
1.36448e-06
8.64416e-08
-8.86247e-08
1.31568e-06
1.31358e-07
-8.89464e-08
1.25701e-06
1.94174e-07
-9.23211e-08
1.18693e-06
2.84117e-07
-9.68211e-08
1.11098e-06
4.0682e-07
-9.61225e-08
4.87558e-07
-5.52467e-08
2.13112e-06
-6.26219e-07
-3.00909e-07
1.94581e-06
-5.20518e-07
-3.09039e-07
1.81415e-06
-3.4786e-07
-2.63481e-07
1.71849e-06
-2.21026e-07
-2.20121e-07
1.64625e-06
-1.34038e-07
-1.83694e-07
1.58949e-06
-7.42603e-08
-1.53936e-07
1.54309e-06
-3.15823e-08
-1.3017e-07
1.50348e-06
1.43435e-09
-1.11781e-07
1.46803e-06
3.04125e-08
-9.8254e-08
1.4346e-06
6.00412e-08
-8.91474e-08
1.40144e-06
9.48731e-08
-8.40373e-08
1.36718e-06
1.40091e-07
-8.23915e-08
1.33113e-06
2.0222e-07
-8.33243e-08
1.29426e-06
2.89138e-07
-8.49825e-08
1.26276e-06
4.03603e-07
-8.13907e-08
4.62536e-07
-3.79049e-08
2.34466e-06
-4.4087e-07
-3.16488e-07
2.09775e-06
-3.72097e-07
-3.22345e-07
1.91866e-06
-2.50841e-07
-2.72389e-07
1.78965e-06
-1.59079e-07
-2.25691e-07
1.6952e-06
-9.43907e-08
-1.86907e-07
1.62448e-06
-4.85591e-08
-1.55448e-07
1.57014e-06
-1.45897e-08
-1.30364e-07
1.52717e-06
1.29063e-08
-1.10821e-07
1.49218e-06
3.81765e-08
-9.61256e-08
1.46293e-06
6.48909e-08
-8.56823e-08
1.43816e-06
9.6696e-08
-7.89271e-08
1.41764e-06
1.37784e-07
-7.52134e-08
1.40239e-06
1.93463e-07
-7.36083e-08
1.39518e-06
2.70182e-07
-7.23726e-08
1.40212e-06
3.69423e-07
-6.60236e-08
4.08154e-07
-2.10666e-08
2.49012e-06
-2.22587e-07
-3.27457e-07
2.20411e-06
-1.87693e-07
-3.31835e-07
1.99386e-06
-1.2476e-07
-2.78774e-07
1.84229e-06
-7.58767e-08
-2.29641e-07
1.73254e-06
-4.01708e-08
-1.89075e-07
1.65218e-06
-1.35235e-08
-1.56273e-07
1.59254e-06
7.74192e-09
-1.30088e-07
1.54772e-06
2.66022e-08
-1.09523e-07
1.51385e-06
4.55394e-08
-9.37426e-08
1.4887e-06
6.68207e-08
-8.20215e-08
1.47145e-06
9.27916e-08
-7.36771e-08
1.46287e-06
1.26203e-07
-6.79652e-08
1.46561e-06
1.70604e-07
-6.39138e-08
1.48468e-06
2.30446e-07
-5.98943e-08
1.52765e-06
3.06414e-07
-5.09449e-08
3.25584e-07
-5.15916e-09
2.56386e-06
-3.32999e-07
1.1122e-08
2.25914e-06
-3.36608e-07
1.38422e-08
2.03381e-06
-2.81909e-07
1.537e-08
1.87127e-06
-2.31443e-07
1.76822e-08
1.75418e-06
-1.89846e-07
2.10996e-08
1.66946e-06
-1.56202e-07
2.58585e-08
1.60784e-06
-1.29251e-07
3.22674e-08
1.56304e-06
-1.07896e-07
4.07372e-08
1.53103e-06
-9.12068e-08
5.18008e-08
1.50964e-06
-7.83698e-08
6.61285e-08
1.49843e-06
-6.86146e-08
8.45368e-08
1.49894e-06
-6.1123e-08
1.07981e-07
1.51541e-06
-5.48887e-08
1.37535e-07
1.55618e-06
-4.83688e-08
1.73962e-07
1.63702e-06
-3.72073e-08
2.11998e-07
7.72813e-09
2.05028e-07
7.68736e-07
-4.68378e-07
-1.28372e-07
1.00412e-06
-3.00506e-07
-1.37177e-07
1.1141e-06
-1.67914e-07
-1.22854e-07
1.16043e-06
-9.63694e-08
-1.06735e-07
1.1734e-06
-5.58087e-08
-9.18767e-08
1.16811e-06
-3.13962e-08
-7.90555e-08
1.1521e-06
-1.56811e-08
-6.85516e-08
1.12873e-06
-4.5465e-09
-6.04661e-08
1.09879e-06
4.5562e-09
-5.4822e-08
1.06113e-06
1.35145e-08
-5.16029e-08
1.01271e-06
2.41347e-08
-5.07433e-08
9.48163e-07
3.87132e-08
-5.20618e-08
8.58422e-07
6.09384e-08
-5.51211e-08
7.27667e-07
9.79614e-08
-5.89746e-08
5.26379e-07
1.65083e-07
-6.12025e-08
2.62914e-07
-5.0146e-08
1.21269e-06
-7.441e-07
-1.62439e-07
1.36338e-06
-5.34064e-07
-1.74854e-07
1.44392e-06
-3.21758e-07
-1.55617e-07
1.47649e-06
-1.91947e-07
-1.34475e-07
1.48024e-06
-1.13302e-07
-1.15313e-07
1.46715e-06
-6.41994e-08
-9.89299e-08
1.4438e-06
-3.18745e-08
-8.55636e-08
1.41314e-06
-8.63375e-09
-7.52732e-08
1.37565e-06
1.05435e-08
-6.80437e-08
1.32984e-06
2.94727e-08
-6.38223e-08
1.27231e-06
5.17802e-08
-6.25008e-08
1.19753e-06
8.18611e-08
-6.38289e-08
1.09731e-06
1.26096e-07
-6.72327e-08
9.61039e-07
1.94579e-07
-7.1442e-08
7.81567e-07
3.01483e-07
-7.28616e-08
4.14288e-07
-5.31058e-08
1.56997e-06
-8.24911e-07
-1.77005e-07
1.5834e-06
-6.3661e-07
-1.87563e-07
1.58695e-06
-4.0304e-07
-1.64599e-07
1.57664e-06
-2.47741e-07
-1.40826e-07
1.55605e-06
-1.48654e-07
-1.19883e-07
1.52891e-06
-8.45422e-08
-1.02251e-07
1.49756e-06
-4.12099e-08
-8.79658e-08
1.46281e-06
-9.40537e-09
-7.69542e-08
1.42413e-06
1.72463e-08
-6.91101e-08
1.37983e-06
4.37391e-08
-6.43102e-08
1.32708e-06
7.48166e-08
-6.23847e-08
1.26185e-06
1.1601e-07
-6.30267e-08
1.17923e-06
1.74744e-07
-6.56074e-08
1.07472e-06
2.61233e-07
-6.8778e-08
9.50953e-07
3.85e-07
-6.86129e-08
4.85647e-07
-4.43155e-08
1.89974e-06
-7.76065e-07
-1.90575e-07
1.79562e-06
-6.27119e-07
-1.98673e-07
1.72171e-06
-4.10449e-07
-1.71801e-07
1.66331e-06
-2.57681e-07
-1.45322e-07
1.6135e-06
-1.56164e-07
-1.22602e-07
1.56905e-06
-8.83322e-08
-1.0377e-07
1.52803e-06
-4.12036e-08
-8.86149e-08
1.48886e-06
-5.7308e-09
-7.68988e-08
1.44985e-06
2.46403e-08
-6.83947e-08
1.40909e-06
5.52092e-08
-6.28843e-08
1.36436e-06
9.1039e-08
-6.01181e-08
1.31326e-06
1.37889e-07
-5.97247e-08
1.25363e-06
2.03084e-07
-6.10379e-08
1.18503e-06
2.95729e-07
-6.2712e-08
1.11398e-06
4.20728e-07
-6.08059e-08
4.99244e-07
-3.35867e-08
2.18103e-06
-6.4179e-07
-2.03141e-07
1.98771e-06
-5.33625e-07
-2.09214e-07
1.8491e-06
-3.56592e-07
-1.78729e-07
1.7474e-06
-2.26471e-07
-1.49626e-07
1.66983e-06
-1.37167e-07
-1.25121e-07
1.60832e-06
-7.57185e-08
-1.05046e-07
1.55766e-06
-3.17422e-08
-8.89655e-08
1.51421e-06
2.41473e-09
-7.64733e-08
1.47526e-06
3.25493e-08
-6.72168e-08
1.43869e-06
6.35017e-08
-6.08751e-08
1.40285e-06
9.99595e-08
-5.71132e-08
1.36663e-06
1.47213e-07
-5.54951e-08
1.3299e-06
2.11822e-07
-5.53331e-08
1.29447e-06
3.01513e-07
-5.53362e-08
1.26731e-06
4.18219e-07
-5.17254e-08
4.74319e-07
-2.26704e-08
2.39991e-06
-4.51815e-07
-2.13519e-07
2.14351e-06
-3.81448e-07
-2.18124e-07
1.95632e-06
-2.57106e-07
-1.84687e-07
1.82045e-06
-1.62943e-07
-1.53345e-07
1.72014e-06
-9.6502e-08
-1.2726e-07
1.64436e-06
-4.93483e-08
-1.06046e-07
1.58563e-06
-1.42934e-08
-8.90807e-08
1.53883e-06
1.42139e-08
-7.58161e-08
1.50047e-06
4.05604e-08
-6.57845e-08
1.46832e-06
6.85418e-08
-5.85686e-08
1.44119e-06
1.01919e-07
-5.37526e-08
1.41905e-06
1.44978e-07
-5.0843e-08
1.40335e-06
2.03054e-07
-4.91418e-08
1.39748e-06
2.82459e-07
-4.74403e-08
1.408e-06
3.83886e-07
-4.22162e-08
4.19689e-07
-1.20682e-08
2.54901e-06
-2.28089e-07
-2.20827e-07
2.25258e-06
-1.92376e-07
-2.24477e-07
2.03348e-06
-1.27823e-07
-1.88956e-07
1.87451e-06
-7.76302e-08
-1.5598e-07
1.75854e-06
-4.09115e-08
-1.287e-07
1.67294e-06
-1.34341e-08
-1.06583e-07
1.60885e-06
8.58881e-09
-8.88788e-08
1.56023e-06
2.82331e-08
-7.49295e-08
1.52316e-06
4.80725e-08
-6.41764e-08
1.49534e-06
7.04623e-08
-5.61231e-08
1.47603e-06
9.78314e-08
-5.0286e-08
1.46617e-06
1.33e-07
-4.61241e-08
1.4687e-06
1.79542e-07
-4.29346e-08
1.48903e-06
2.41827e-07
-3.95906e-08
1.53487e-06
3.19952e-07
-3.28536e-08
3.36784e-07
-2.06583e-09
2.62461e-06
-2.24518e-07
1.14448e-08
2.30904e-06
-2.27668e-07
1.4259e-08
2.07449e-06
-1.91047e-07
1.5862e-08
1.9043e-06
-1.57177e-07
1.82947e-08
1.78085e-06
-1.29203e-07
2.18942e-08
1.69082e-06
-1.06519e-07
2.69143e-08
1.62477e-06
-8.82985e-08
3.36866e-08
1.57627e-06
-7.38184e-08