/*--------------------------------*- C++ -*----------------------------------*\
| =========                 |                                                 |
| \\      /  F ield         | foam-extend: Open Source CFD                    |
|  \\    /   O peration     | Version:     3.1                                |
|   \\  /    A nd           | Web:         http://www.extend-project.de       |
|    \\/     M anipulation  |                                                 |
\*---------------------------------------------------------------------------*/
FoamFile
{
    version     2.0;
    format      ascii;
    class       pointVectorField;
    location    "0.1";
    object      pointMotionU;
}
// * * * * * * * * * * * * * * * * * * * * * * * * * * * * * * * * * * * * * //

dimensions      [0 1 -1 0 0 0 0];

internalField   nonuniform List<vector> 
16859
(
(0 0 0)
(0 0 0)
(0 0 0)
(0 0 0)
(0 0 0)
(0 0 0)
(0 0 0)
(0 0 0)
(0 0 0)
(0 0 0)
(0 0 0)
(0 0 0)
(0 0 0)
(0 0 0)
(0 0 0)
(0 0 0)
(0 0 0)
(0 0 0)
(6.57479e-10 1.00242e-09 -1.08863e-10)
(1.26039e-09 1.95129e-09 -2.11243e-10)
(1.79739e-09 2.8546e-09 -3.06794e-10)
(2.27562e-09 3.74461e-09 -3.96558e-10)
(2.69792e-09 4.64498e-09 -4.78428e-10)
(3.06175e-09 5.57026e-09 -5.45619e-10)
(3.35779e-09 6.52397e-09 -5.84132e-10)
(3.56831e-09 7.4945e-09 -5.68679e-10)
(3.66651e-09 8.44834e-09 -4.56276e-10)
(3.61919e-09 9.31935e-09 -1.76613e-10)
(3.39921e-09 9.99406e-09 3.81483e-10)
(3.02017e-09 1.02969e-08 1.38624e-09)
(2.60971e-09 9.99148e-09 3.07124e-09)
(2.50301e-09 8.85526e-09 5.68429e-09)
(3.03037e-09 6.9697e-09 9.16434e-09)
(1.84514e-08 3.48249e-09 2.6856e-08)
(0 0 0)
(1.30912e-09 1.97062e-09 -2.1836e-10)
(2.51033e-09 3.83644e-09 -4.24259e-10)
(3.5818e-09 5.61371e-09 -6.17646e-10)
(4.53879e-09 7.36663e-09 -8.01554e-10)
(5.38838e-09 9.14291e-09 -9.73292e-10)
(6.12755e-09 1.09734e-08 -1.12183e-09)
(6.74034e-09 1.28689e-08 -1.2235e-09)
(7.19413e-09 1.48134e-08 -1.235e-09)
(7.43597e-09 1.67532e-08 -1.08279e-09)
(7.39157e-09 1.85784e-08 -6.47643e-10)
(6.97397e-09 2.00992e-08 2.55337e-10)
(6.11548e-09 2.10197e-08 1.89496e-09)
(4.84159e-09 2.09361e-08 4.61349e-09)
(3.36963e-09 1.94424e-08 8.6889e-09)
(1.89561e-09 1.6552e-08 1.37693e-08)
(4.03403e-09 4.35103e-09 3.03442e-08)
(0 0 0)
(1.9485e-09 2.87115e-09 -3.28667e-10)
(3.73803e-09 5.59066e-09 -6.39791e-10)
(5.33789e-09 8.18344e-09 -9.34722e-10)
(6.77312e-09 1.07446e-08 -1.22011e-09)
(8.0576e-09 1.33464e-08 -1.49529e-09)
(9.19181e-09 1.60384e-08 -1.74932e-09)
(1.01588e-08 1.88443e-08 -1.95609e-09)
(1.09185e-08 2.17557e-08 -2.06639e-09)
(1.13994e-08 2.4719e-08 -1.99616e-09)
(1.14881e-08 2.7617e-08 -1.61004e-09)
(1.10204e-08 3.02424e-08 -7.02254e-10)
(9.77893e-09 3.22688e-08 1.01494e-09)
(7.51965e-09 3.32438e-08 3.87794e-09)
(4.06038e-09 3.26814e-08 8.08116e-09)
(-6.61502e-10 3.04162e-08 1.30482e-08)
(-9.78644e-09 2.17597e-08 2.92619e-08)
(0 0 0)
(2.56822e-09 3.67216e-09 -4.39167e-10)
(4.9295e-09 7.1521e-09 -8.56798e-10)
(7.04628e-09 1.04735e-08 -1.25693e-09)
(8.95531e-09 1.37605e-08 -1.65167e-09)
(1.06805e-08 1.71094e-08 -2.04533e-09)
(1.22309e-08 2.05901e-08 -2.43195e-09)
(1.3597e-08 2.42449e-08 -2.79096e-09)
(1.47438e-08 2.80831e-08 -3.08039e-09)
(1.55998e-08 3.20716e-08 -3.22667e-09)
(1.60395e-08 3.61206e-08 -3.11104e-09)
(1.58559e-08 4.00621e-08 -2.55454e-09)
(1.47239e-08 4.36244e-08 -1.31103e-09)
(1.21732e-08 4.64132e-08 8.99889e-10)
(7.66609e-09 4.79366e-08 4.22715e-09)
(9.24215e-10 4.76969e-08 8.14394e-09)
(-1.53378e-08 4.58383e-08 2.21035e-08)
(0 0 0)
(3.15978e-09 4.34446e-09 -5.48333e-10)
(6.06831e-09 8.46382e-09 -1.07219e-09)
(8.68305e-09 1.24003e-08 -1.57943e-09)
(1.10541e-08 1.63036e-08 -2.08919e-09)
(1.32182e-08 2.02922e-08 -2.61323e-09)
(1.51983e-08 2.44561e-08 -3.15465e-09)
(1.70007e-08 2.88577e-08 -3.70508e-09)
(1.86105e-08 3.35297e-08 -4.2403e-09)
(1.99825e-08 3.84706e-08 -4.71372e-09)
(2.10243e-08 4.36375e-08 -5.04782e-09)
(2.15665e-08 4.89344e-08 -5.12468e-09)
(2.13141e-08 5.4194e-08 -4.77983e-09)
(1.97827e-08 5.91408e-08 -3.81425e-09)
(1.62977e-08 6.33018e-08 -2.07785e-09)
(1.02477e-08 6.56983e-08 1.61665e-10)
(-6.66724e-09 7.16779e-08 1.13892e-08)
(0 0 0)
(3.71386e-09 4.86255e-09 -6.53816e-10)
(7.13605e-09 9.47597e-09 -1.28106e-09)
(1.02205e-08 1.38901e-08 -1.8941e-09)
(1.30312e-08 1.82755e-08 -2.51994e-09)
(1.56194e-08 2.27687e-08 -3.17925e-09)
(1.80249e-08 2.74767e-08 -3.88642e-09)
(2.02762e-08 3.24795e-08 -4.64889e-09)
(2.23896e-08 3.78308e-08 -5.46564e-09)
(2.43672e-08 4.35581e-08 -6.32512e-09)
(2.61905e-08 4.96618e-08 -7.20287e-09)
(2.78087e-08 5.61142e-08 -8.05908e-09)
(2.91124e-08 6.28516e-08 -8.8357e-09)
(2.98815e-08 6.97321e-08 -9.45087e-09)
(2.96801e-08 7.63535e-08 -9.79397e-09)
(2.76058e-08 8.13231e-08 -9.84391e-09)
(1.7792e-08 9.43329e-08 -2.87732e-09)
(0 0 0)
(4.22082e-09 5.20573e-09 -7.52728e-10)
(8.11348e-09 1.0148e-08 -1.47731e-09)
(1.1629e-08 1.4883e-08 -2.19072e-09)
(1.48446e-08 1.95958e-08 -2.92776e-09)
(1.78255e-08 2.44353e-08 -3.71799e-09)
(2.06283e-08 2.95197e-08 -4.58717e-09)
(2.33039e-08 3.49402e-08 -5.55834e-09)
(2.59018e-08 4.07621e-08 -6.65301e-09)
(2.84751e-08 4.7027e-08 -7.89279e-09)
(3.10885e-08 5.37534e-08 -9.3022e-09)
(3.38308e-08 6.09396e-08 -1.09133e-08)
(3.68337e-08 6.85626e-08 -1.27703e-08)
(4.02853e-08 7.65525e-08 -1.4928e-08)
(4.43559e-08 8.4633e-08 -1.74172e-08)
(4.84953e-08 9.14369e-08 -2.0164e-08)
(5.8659e-08 1.10172e-07 -2.22086e-08)
(0 0 0)
(4.67169e-09 5.35889e-09 -8.42129e-10)
(8.98295e-09 1.04508e-08 -1.65478e-09)
(1.28817e-08 1.53361e-08 -2.459e-09)
(1.6456e-08 2.02072e-08 -3.29643e-09)
(1.97823e-08 2.52186e-08 -4.20423e-09)
(2.29304e-08 3.04932e-08 -5.21751e-09)
(2.59687e-08 3.61244e-08 -6.37163e-09)
(2.89708e-08 4.21773e-08 -7.70478e-09)
(3.20249e-08 4.86874e-08 -9.26144e-09)
(3.52483e-08 5.56568e-08 -1.10973e-08)
(3.88085e-08 6.30467e-08 -1.32857e-08)
(4.29532e-08 7.07577e-08 -1.59249e-08)
(4.8032e-08 7.85731e-08 -1.91391e-08)
(5.44223e-08 8.59748e-08 -2.30566e-08)
(6.19587e-08 9.1401e-08 -2.78156e-08)
(1.13453e-07 1.17899e-07 -4.61306e-08)
(0 0 0)
(0 0 0)
(0 0 0)
(0 0 0)
(0 0 0)
(0 0 0)
(0 0 0)
(0 0 0)
(0 0 0)
(0 0 0)
(0 0 0)
(0 0 0)
(0 0 0)
(0 0 0)
(0 0 0)
(0 0 0)
(0 0 0)
(0 0 0)
(6.81477e-10 1.04715e-09 -1.05835e-10)
(1.30729e-09 2.03965e-09 -2.05262e-10)
(1.86661e-09 2.98723e-09 -2.97854e-10)
(2.36781e-09 3.92495e-09 -3.84526e-10)
(2.81484e-09 4.87879e-09 -4.63061e-10)
(3.2063e-09 5.86508e-09 -5.26571e-10)
(3.53424e-09 6.88835e-09 -5.6092e-10)
(3.7832e-09 7.93668e-09 -5.40558e-10)
(3.93086e-09 8.97384e-09 -4.21932e-10)
(3.95408e-09 9.92685e-09 -1.33491e-10)
(3.84907e-09 1.06686e-08 4.38542e-10)
(3.68289e-09 1.09991e-08 1.46749e-09)
(3.70024e-09 1.06448e-08 3.1953e-09)
(4.46125e-09 9.34469e-09 5.87043e-09)
(6.55129e-09 7.27369e-09 9.27744e-09)
(2.21342e-08 4.95054e-10 2.01464e-08)
(0 0 0)
(1.35678e-09 2.05861e-09 -2.12324e-10)
(2.60349e-09 4.01031e-09 -4.12335e-10)
(3.71937e-09 5.87481e-09 -5.99826e-10)
(4.72214e-09 7.72188e-09 -7.77574e-10)
(5.62113e-09 9.60402e-09 -9.42688e-10)
(6.41558e-09 1.15559e-08 -1.08397e-09)
(7.0922e-09 1.35907e-08 -1.17752e-09)
(7.62234e-09 1.56931e-08 -1.17969e-09)
(7.96036e-09 1.78059e-08 -1.01608e-09)
(8.04743e-09 1.98095e-08 -5.65561e-10)
(7.8307e-09 2.14936e-08 3.60745e-10)
(7.31785e-09 2.2526e-08 2.03923e-09)
(6.6938e-09 2.24491e-08 4.82356e-09)
(6.47732e-09 2.0811e-08 8.98946e-09)
(7.31994e-09 1.7815e-08 1.39802e-08)
(1.25375e-08 6.88424e-09 2.47087e-08)
(0 0 0)
(2.01913e-09 2.99947e-09 -3.19664e-10)
(3.87613e-09 5.84433e-09 -6.22005e-10)
(5.54198e-09 8.56461e-09 -9.08145e-10)
(7.0454e-09 1.12638e-08 -1.18436e-09)
(8.40376e-09 1.40214e-08 -1.4497e-09)
(9.62095e-09 1.68931e-08 -1.69306e-09)
(1.0684e-08 1.99077e-08 -1.88813e-09)
(1.1558e-08 2.30594e-08 -1.98545e-09)
(1.21799e-08 2.62943e-08 -1.90024e-09)
(1.24525e-08 2.94883e-08 -1.49539e-09)
(1.22436e-08 3.24177e-08 -5.61003e-10)
(1.14032e-08 3.47268e-08 1.19896e-09)
(9.8269e-09 3.59226e-08 4.13437e-09)
(7.61596e-09 3.55049e-08 8.44381e-09)
(5.37827e-09 3.35653e-08 1.33943e-08)
(1.36146e-09 2.62504e-08 2.28516e-08)
(0 0 0)
(2.66071e-09 3.83646e-09 -4.27269e-10)
(5.11045e-09 7.47702e-09 -8.3329e-10)
(7.3139e-09 1.09621e-08 -1.2218e-09)
(9.31282e-09 1.44269e-08 -1.60442e-09)
(1.11358e-08 1.79773e-08 -1.98514e-09)
(1.27969e-08 2.16922e-08 -2.35784e-09)
(1.42916e-08 2.56218e-08 -2.70194e-09)
(1.55919e-08 2.97823e-08 -2.97551e-09)
(1.6636e-08 3.41458e-08 -3.10487e-09)
(1.7314e-08 3.86245e-08 -2.97027e-09)
(1.7446e-08 4.30486e-08 -2.38934e-09)
(1.67582e-08 4.71405e-08 -1.10705e-09)
(1.48847e-08 5.0503e-08 1.17644e-09)
(1.15312e-08 5.26795e-08 4.63784e-09)
(7.24458e-09 5.34346e-08 8.69087e-09)
(-2.76119e-09 5.17236e-08 1.64463e-08)
(0 0 0)
(3.27262e-09 4.53904e-09 -5.33647e-10)
(6.28915e-09 8.8488e-09 -1.04317e-09)
(9.00991e-09 1.29797e-08 -1.53605e-09)
(1.14913e-08 1.70947e-08 -2.03083e-09)
(1.37762e-08 2.13243e-08 -2.53894e-09)
(1.58936e-08 2.577e-08 -3.06335e-09)
(1.78572e-08 3.05055e-08 -3.59593e-09)
(1.96613e-08 3.55751e-08 -4.11298e-09)
(2.12731e-08 4.09896e-08 -4.56866e-09)
(2.26187e-08 4.67201e-08 -4.88586e-09)
(2.35583e-08 5.2689e-08 -4.94493e-09)
(2.38446e-08 5.87573e-08 -4.57274e-09)
(2.30801e-08 6.46998e-08 -3.54377e-09)
(2.07848e-08 7.01392e-08 -1.6472e-09)
(1.71026e-08 7.43243e-08 9.12356e-10)
(5.99645e-09 7.87317e-08 7.09372e-09)
(0 0 0)
(3.84508e-09 5.08055e-09 -6.3649e-10)
(7.39292e-09 9.90746e-09 -1.24681e-09)
(1.06009e-08 1.45399e-08 -1.84288e-09)
(1.35405e-08 1.91636e-08 -2.45102e-09)
(1.62703e-08 2.3929e-08 -3.0915e-09)
(1.8838e-08 2.89567e-08 -3.7787e-09)
(2.12813e-08 3.43408e-08 -4.52046e-09)
(2.36288e-08 4.01507e-08 -5.31684e-09)
(2.58995e-08 4.64324e-08 -6.15807e-09)
(2.81012e-08 5.3211e-08 -7.02194e-09)
(3.02248e-08 6.04962e-08 -7.86981e-09)
(3.22292e-08 6.82876e-08 -8.63866e-09)
(3.40068e-08 7.6556e-08 -9.22079e-09)
(3.53074e-08 8.50854e-08 -9.42352e-09)
(3.56819e-08 9.27068e-08 -9.02267e-09)
(2.97655e-08 1.03451e-07 -5.21815e-09)
(0 0 0)
(4.36803e-09 5.43929e-09 -7.32961e-10)
(8.40169e-09 1.06105e-08 -1.43822e-09)
(1.20559e-08 1.55799e-08 -2.13222e-09)
(1.54163e-08 2.0549e-08 -2.84899e-09)
(1.85566e-08 2.56817e-08 -3.61765e-09)
(2.15426e-08 3.11114e-08 -4.46392e-09)
(2.44363e-08 3.6945e-08 -5.41145e-09)
(2.73022e-08 4.32657e-08 -6.48321e-09)
(3.02151e-08 5.01364e-08 -7.70345e-09)
(3.32738e-08 5.76052e-08 -9.10069e-09)
(3.66246e-08 6.57161e-08 -1.07117e-08)
(4.04988e-08 7.45272e-08 -1.25829e-08)
(4.52626e-08 8.41266e-08 -1.47573e-08)
(5.13784e-08 9.45389e-08 -1.72e-08)
(5.85477e-08 1.0477e-07 -1.95341e-08)
(6.96209e-08 1.22426e-07 -2.18319e-08)
(0 0 0)
(4.8322e-09 5.59946e-09 -8.20168e-10)
(9.29713e-09 1.09273e-08 -1.61133e-09)
(1.33469e-08 1.60546e-08 -2.39394e-09)
(1.70786e-08 2.11904e-08 -3.20874e-09)
(2.05781e-08 2.6505e-08 -4.09237e-09)
(2.39251e-08 3.21367e-08 -5.0799e-09)
(2.72002e-08 3.8195e-08 -6.20729e-09)
(3.04932e-08 4.47624e-08 -7.51431e-09)
(3.39161e-08 5.18948e-08 -9.04845e-09)
(3.76233e-08 5.962e-08 -1.08702e-08)
(4.18435e-08 6.79359e-08 -1.30599e-08)
(4.69291e-08 7.68017e-08 -1.5723e-08)
(5.34114e-08 8.61024e-08 -1.8987e-08)
(6.19566e-08 9.54938e-08 -2.29574e-08)
(7.2674e-08 1.03585e-07 -2.76129e-08)
(1.23958e-07 1.32159e-07 -4.28112e-08)
(0 0 0)
(0 0 0)
(0 0 0)
(0 0 0)
(0 0 0)
(0 0 0)
(0 0 0)
(0 0 0)
(0 0 0)
(0 0 0)
(0 0 0)
(0 0 0)
(0 0 0)
(0 0 0)
(0 0 0)
(0 0 0)
(0 0 0)
(0 0 0)
(7.03825e-10 1.08919e-09 -9.90377e-11)
(1.35103e-09 2.12283e-09 -1.92042e-10)
(1.93127e-09 3.1123e-09 -2.78599e-10)
(2.45398e-09 4.09526e-09 -3.59569e-10)
(2.92415e-09 5.09993e-09 -4.32917e-10)
(3.34138e-09 6.14447e-09 -4.92308e-10)
(3.69902e-09 7.23461e-09 -5.24782e-10)
(3.98365e-09 8.35878e-09 -5.07072e-10)
(4.17691e-09 9.47957e-09 -3.99963e-10)
(4.26388e-09 1.05207e-08 -1.40234e-10)
(4.2576e-09 1.13492e-08 3.69394e-10)
(4.25641e-09 1.17589e-08 1.2683e-09)
(4.55029e-09 1.14773e-08 2.72742e-09)
(5.71903e-09 1.02722e-08 4.85994e-09)
(8.21465e-09 8.3708e-09 7.3464e-09)
(2.47171e-08 3.55934e-09 1.45186e-08)
(0 0 0)
(1.40115e-09 2.14131e-09 -1.9871e-10)
(2.69036e-09 4.17398e-09 -3.85835e-10)
(3.84782e-09 6.12098e-09 -5.61156e-10)
(4.89342e-09 8.05732e-09 -7.27298e-10)
(5.83854e-09 1.004e-08 -8.81653e-10)
(6.68443e-09 1.21075e-08 -1.01399e-09)
(7.42021e-09 1.42759e-08 -1.10252e-09)
(8.02087e-09 1.65312e-08 -1.10766e-09)
(8.44736e-09 1.88152e-08 -9.62737e-10)
(8.65397e-09 2.10038e-08 -5.61204e-10)
(8.61408e-09 2.28779e-08 2.57571e-10)
(8.38361e-09 2.4095e-08 1.71387e-09)
(8.2187e-09 2.41981e-08 4.04998e-09)
(8.68111e-09 2.27789e-08 7.34729e-09)
(1.02565e-08 2.01271e-08 1.09485e-08)
(1.73452e-08 1.1405e-08 1.75392e-08)
(0 0 0)
(2.08486e-09 3.12007e-09 -2.99222e-10)
(4.00484e-09 6.08308e-09 -5.82153e-10)
(5.73239e-09 8.92392e-09 -8.49831e-10)
(7.29954e-09 1.17538e-08 -1.10819e-09)
(8.72668e-09 1.46592e-08 -1.35655e-09)
(1.00207e-08 1.77018e-08 -1.58493e-09)
(1.11722e-08 2.09155e-08 -1.76962e-09)
(1.21508e-08 2.42981e-08 -1.86625e-09)
(1.29012e-08 2.77967e-08 -1.79958e-09)
(1.33405e-08 3.12849e-08 -1.45019e-09)
(1.33635e-08 3.45317e-08 -6.4147e-10)
(1.2869e-08 3.71696e-08 8.58825e-10)
(1.18281e-08 3.86983e-08 3.2797e-09)
(1.0406e-08 3.86354e-08 6.62179e-09)
(9.08488e-09 3.71131e-08 1.00806e-08)
(7.01294e-09 3.1737e-08 1.51131e-08)
(0 0 0)
(2.74675e-09 3.99086e-09 -4.0003e-10)
(5.279e-09 7.78279e-09 -7.80093e-10)
(7.56341e-09 1.14226e-08 -1.1437e-09)
(9.64615e-09 1.50556e-08 -1.50186e-09)
(1.156e-08 1.87969e-08 -1.85863e-09)
(1.33228e-08 2.27339e-08 -2.20891e-09)
(1.4935e-08 2.69245e-08 -2.53475e-09)
(1.63739e-08 3.13917e-08 -2.79943e-09)
(1.75863e-08 3.6113e-08 -2.93896e-09)
(1.84756e-08 4.10033e-08 -2.85125e-09)
(1.88859e-08 4.58909e-08 -2.38622e-09)
(1.85836e-08 5.04886e-08 -1.34875e-09)
(1.72668e-08 5.43752e-08 4.50325e-10)
(1.47074e-08 5.70432e-08 3.00784e-09)
(1.13714e-08 5.81713e-08 5.66819e-09)
(3.44908e-09 5.76755e-08 9.21124e-09)
(0 0 0)
(3.37754e-09 4.72188e-09 -4.9973e-10)
(6.49475e-09 9.21102e-09 -9.76811e-10)
(9.31445e-09 1.35255e-08 -1.43829e-09)
(1.18985e-08 1.78408e-08 -1.90175e-09)
(1.4295e-08 2.22984e-08 -2.37832e-09)
(1.65383e-08 2.70107e-08 -2.8717e-09)
(1.86478e-08 3.2062e-08 -3.37591e-09)
(2.06247e-08 3.7507e-08 -3.87185e-09)
(2.24458e-08 4.33671e-08 -4.3222e-09)
(2.40515e-08 4.96227e-08 -4.66507e-09)
(2.53231e-08 5.62031e-08 -4.80772e-09)
(2.60456e-08 6.29651e-08 -4.62519e-09)
(2.58635e-08 6.96444e-08 -3.97933e-09)
(2.43284e-08 7.57315e-08 -2.80505e-09)
(2.14969e-08 8.02326e-08 -1.38262e-09)
(1.22716e-08 8.50873e-08 1.01406e-09)
(0 0 0)
(3.96705e-09 5.28534e-09 -5.96149e-10)
(7.63197e-09 1.03133e-08 -1.16775e-09)
(1.09551e-08 1.5152e-08 -1.72604e-09)
(1.40145e-08 2.00009e-08 -2.29595e-09)
(1.68749e-08 2.50234e-08 -2.89704e-09)
(1.95905e-08 3.0353e-08 -3.54387e-09)
(2.2206e-08 3.60966e-08 -4.24576e-09)
(2.4759e-08 4.23373e-08 -5.00621e-09)
(2.72802e-08 4.91357e-08 -5.82199e-09)
(2.9794e-08 5.65329e-08 -6.68231e-09)
(3.23145e-08 6.45539e-08 -7.56777e-09)
(3.48299e-08 7.32029e-08 -8.44744e-09)
(3.72542e-08 8.24094e-08 -9.26845e-09)
(3.92998e-08 9.17736e-08 -9.92943e-09)
(4.03374e-08 9.97509e-08 -1.02693e-08)
(3.58625e-08 1.10528e-07 -9.52538e-09)
(0 0 0)
(4.50485e-09 5.65864e-09 -6.8661e-10)
(8.66985e-09 1.10454e-08 -1.34724e-09)
(1.24532e-08 1.62361e-08 -1.99741e-09)
(1.59481e-08 2.14471e-08 -2.6693e-09)
(1.92352e-08 2.68567e-08 -3.39088e-09)
(2.23877e-08 3.26121e-08 -4.18746e-09)
(2.54761e-08 3.88344e-08 -5.08333e-09)
(2.85753e-08 4.56221e-08 -6.10358e-09)
(3.1774e-08 5.30551e-08 -7.27677e-09)
(3.5191e-08 6.12002e-08 -8.63884e-09)
(3.89995e-08 7.01207e-08 -1.02378e-08)
(4.34628e-08 7.98859e-08 -1.21361e-08)
(4.89586e-08 9.05516e-08 -1.43959e-08)
(5.58511e-08 1.01965e-07 -1.70014e-08)
(6.35154e-08 1.12715e-07 -1.95708e-08)
(7.53636e-08 1.30671e-07 -2.33595e-08)
(0 0 0)
(4.98139e-09 5.82532e-09 -7.68384e-10)
(9.58946e-09 1.13752e-08 -1.50956e-09)
(1.37799e-08 1.67307e-08 -2.24282e-09)
(1.76578e-08 2.21164e-08 -3.00668e-09)
(2.13167e-08 2.77171e-08 -3.83617e-09)
(2.48442e-08 3.36853e-08 -4.76539e-09)
(2.83302e-08 4.0145e-08 -5.83012e-09)
(3.18758e-08 4.71939e-08 -7.07108e-09)
(3.56077e-08 5.49039e-08 -8.53809e-09)
(3.97009e-08 6.33194e-08 -1.02956e-08)
(4.44116e-08 7.24532e-08 -1.24289e-08)
(5.01228e-08 8.22687e-08 -1.50473e-08)
(5.73732e-08 9.26156e-08 -1.82713e-08)
(6.67273e-08 1.02999e-07 -2.21683e-08)
(7.79796e-08 1.11701e-07 -2.66041e-08)
(1.29395e-07 1.41575e-07 -4.02226e-08)
(0 0 0)
(0 0 0)
(0 0 0)
(0 0 0)
(0 0 0)
(0 0 0)
(0 0 0)
(0 0 0)
(0 0 0)
(0 0 0)
(0 0 0)
(0 0 0)
(0 0 0)
(0 0 0)
(0 0 0)
(0 0 0)
(0 0 0)
(0 0 0)
(7.23876e-10 1.12731e-09 -8.87159e-11)
(1.39028e-09 2.19834e-09 -1.72039e-10)
(1.98923e-09 3.22594e-09 -2.49632e-10)
(2.5311e-09 4.25018e-09 -3.22349e-10)
(3.02161e-09 5.30134e-09 -3.88551e-10)
(3.46108e-09 6.39932e-09 -4.4294e-10)
(3.84356e-09 7.55119e-09 -4.74702e-10)
(4.15662e-09 8.74612e-09 -4.64639e-10)
(4.38363e-09 9.9466e-09 -3.81046e-10)
(4.51309e-09 1.10753e-08 -1.74412e-10)
(4.56407e-09 1.19979e-08 2.27749e-10)
(4.64341e-09 1.25093e-08 9.21182e-10)
(5.0456e-09 1.23473e-08 2.00658e-09)
(6.33132e-09 1.13072e-08 3.51612e-09)
(8.89544e-09 9.63502e-09 5.18321e-09)
(2.51594e-08 5.67372e-09 9.82959e-09)
(0 0 0)
(1.44096e-09 2.2163e-09 -1.78014e-10)
(2.76828e-09 4.32251e-09 -3.45675e-10)
(3.96295e-09 6.34462e-09 -5.02858e-10)
(5.04665e-09 8.36236e-09 -6.52081e-10)
(6.0323e-09 1.04369e-08 -7.91365e-10)
(6.9225e-09 1.26103e-08 -9.12279e-10)
(7.70772e-09 1.49017e-08 -9.96804e-10)
(8.36457e-09 1.72988e-08 -1.01256e-09)
(8.8567e-09 1.97439e-08 -9.06057e-10)
(9.14338e-09 2.21118e-08 -5.94587e-10)
(9.20677e-09 2.41808e-08 4.02486e-11)
(9.11498e-09 2.56086e-08 1.14689e-09)
(9.13044e-09 2.59503e-08 2.85907e-09)
(9.78666e-09 2.48315e-08 5.1523e-09)
(1.14813e-08 2.25522e-08 7.50391e-09)
(1.81227e-08 1.47188e-08 1.14848e-08)
(0 0 0)
(2.1438e-09 3.22941e-09 -2.68085e-10)
(4.12027e-09 6.29971e-09 -5.2162e-10)
(5.90301e-09 9.25025e-09 -7.61642e-10)
(7.52676e-09 1.21993e-08 -9.9372e-10)
(9.01425e-09 1.52396e-08 -1.21775e-09)
(1.03744e-08 1.84383e-08 -1.42584e-09)
(1.15995e-08 2.18344e-08 -1.59883e-09)
(1.26613e-08 2.54292e-08 -1.70108e-09)
(1.35072e-08 2.91722e-08 -1.67333e-09)
(1.40585e-08 3.29364e-08 -1.42463e-09)
(1.42173e-08 3.64881e-08 -8.27845e-10)
(1.38921e-08 3.94558e-08 2.67945e-10)
(1.30573e-08 4.13403e-08 1.97565e-09)
(1.18486e-08 4.16702e-08 4.19985e-09)
(1.06552e-08 4.05592e-08 6.32328e-09)
(7.91541e-09 3.60208e-08 8.8945e-09)
(0 0 0)
(2.8239e-09 4.13081e-09 -3.58445e-10)
(5.43009e-09 8.06018e-09 -6.99066e-10)
(7.78688e-09 1.18407e-08 -1.02516e-09)
(9.94401e-09 1.56269e-08 -1.34691e-09)
(1.19374e-08 1.95421e-08 -1.6686e-09)
(1.37876e-08 2.36815e-08 -1.98696e-09)
(1.54973e-08 2.811e-08 -2.28836e-09)
(1.70461e-08 3.28569e-08 -2.54466e-09)
(1.8383e-08 3.79043e-08 -2.70754e-09)
(1.94139e-08 4.31691e-08 -2.70266e-09)
(1.9986e-08 4.8477e-08 -2.42738e-09)
(1.9868e-08 5.35305e-08 -1.7632e-09)
(1.87529e-08 5.78874e-08 -6.28145e-10)
(1.63806e-08 6.10057e-08 8.88921e-10)
(1.31365e-08 6.25074e-08 2.31025e-09)
(4.39024e-09 6.26019e-08 3.62142e-09)
(0 0 0)
(3.47159e-09 4.88758e-09 -4.47832e-10)
(6.679e-09 9.53955e-09 -8.75457e-10)
(9.5871e-09 1.4021e-08 -1.28938e-09)
(1.22622e-08 1.85184e-08 -1.70572e-09)
(1.47564e-08 2.31834e-08 -2.13524e-09)
(1.71073e-08 2.81382e-08 -2.58267e-09)
(1.93375e-08 3.34762e-08 -3.04537e-09)
(2.14508e-08 3.92611e-08 -3.51115e-09)
(2.3426e-08 4.55217e-08 -3.95563e-09)
(2.52044e-08 5.22439e-08 -4.33969e-09)
(2.66662e-08 5.93554e-08 -4.60919e-09)
(2.75892e-08 6.66971e-08 -4.70136e-09)
(2.75978e-08 7.39593e-08 -4.56653e-09)
(2.6198e-08 8.05446e-08 -4.21867e-09)
(2.3383e-08 8.53593e-08 -3.81593e-09)
(1.3209e-08 9.04967e-08 -3.46883e-09)
(0 0 0)
(4.07636e-09 5.47091e-09 -5.34287e-10)
(7.84617e-09 1.06813e-08 -1.04668e-09)
(1.12721e-08 1.57073e-08 -1.54746e-09)
(1.44376e-08 2.07609e-08 -2.0594e-09)
(1.74122e-08 2.60173e-08 -2.60085e-09)
(2.0254e-08 3.16209e-08 -3.18637e-09)
(2.30119e-08 3.76899e-08 -3.82705e-09)
(2.57265e-08 4.43184e-08 -4.53082e-09)
(2.84312e-08 5.15774e-08 -5.30315e-09)
(3.11509e-08 5.9516e-08 -6.14863e-09)
(3.38954e-08 6.81598e-08 -7.07363e-09)
(3.66378e-08 7.74944e-08 -8.08829e-09)
(3.9252e-08 8.73885e-08 -9.19938e-09)
(4.13761e-08 9.73139e-08 -1.03675e-08)
(4.23219e-08 1.05583e-07 -1.13803e-08)
(3.68015e-08 1.1637e-07 -1.24125e-08)
(0 0 0)
(4.62748e-09 5.85735e-09 -6.15402e-10)
(8.91013e-09 1.14396e-08 -1.20763e-09)
(1.28089e-08 1.68312e-08 -1.79082e-09)
(1.64229e-08 2.22621e-08 -2.39427e-09)
(1.98382e-08 2.79232e-08 -3.04386e-09)
(2.31328e-08 3.39738e-08 -3.76379e-09)
(2.63821e-08 4.05474e-08 -4.57842e-09)
(2.96648e-08 4.77546e-08 -5.51459e-09)
(3.30732e-08 5.5687e-08 -6.60512e-09)
(3.67267e-08 6.44208e-08 -7.89361e-09)
(4.07935e-08 7.4021e-08 -9.4405e-09)
(4.55162e-08 8.45387e-08 -1.13261e-08)
(5.12162e-08 9.59666e-08 -1.36362e-08)
(5.81477e-08 1.08014e-07 -1.63774e-08)
(6.56025e-08 1.19104e-07 -1.91539e-08)
(7.62441e-08 1.36904e-07 -2.38227e-08)
(0 0 0)
(5.11512e-09 6.02986e-09 -6.88716e-10)
(9.85147e-09 1.17812e-08 -1.35316e-09)
(1.41676e-08 1.73438e-08 -2.01082e-09)
(1.81752e-08 2.29564e-08 -2.69668e-09)
(2.19733e-08 2.88168e-08 -3.44294e-09)
(2.56554e-08 3.50899e-08 -4.28153e-09)
(2.93161e-08 4.19121e-08 -5.24687e-09)
(3.30613e-08 4.93934e-08 -6.37915e-09)
(3.70216e-08 5.76168e-08 -7.7288e-09)
(4.13731e-08 6.6635e-08 -9.36193e-09)
(4.6367e-08 7.64609e-08 -1.13659e-08)
(5.23644e-08 8.70392e-08 -1.385e-08)
(5.98457e-08 9.81607e-08 -1.69277e-08)
(6.9261e-08 1.09211e-07 -2.06402e-08)
(8.03008e-08 1.18338e-07 -2.47806e-08)
(1.29927e-07 1.48346e-07 -3.73744e-08)
(0 0 0)
(0 0 0)
(0 0 0)
(0 0 0)
(0 0 0)
(0 0 0)
(0 0 0)
(0 0 0)
(0 0 0)
(0 0 0)
(0 0 0)
(0 0 0)
(0 0 0)
(0 0 0)
(0 0 0)
(0 0 0)
(0 0 0)
(0 0 0)
(7.41037e-10 1.16033e-09 -7.52158e-11)
(1.42383e-09 2.26375e-09 -1.45894e-10)
(2.03869e-09 3.32445e-09 -2.11804e-10)
(2.59663e-09 4.38456e-09 -2.73786e-10)
(3.10385e-09 5.47617e-09 -3.30681e-10)
(3.56093e-09 6.62074e-09 -3.78468e-10)
(3.96187e-09 7.82659e-09 -4.08911e-10)
(4.29387e-09 9.08371e-09 -4.07589e-10)
(4.5394e-09 1.03549e-08 -3.51249e-10)
(4.68523e-09 1.15623e-08 -2.04858e-10)
(4.74697e-09 1.25711e-08 8.02895e-11)
(4.82363e-09 1.31762e-08 5.63759e-10)
(5.19251e-09 1.31179e-08 1.30026e-09)
(6.38417e-09 1.21935e-08 2.29274e-09)
(8.78054e-09 1.06312e-08 3.36146e-09)
(2.42854e-08 6.72224e-09 6.37082e-09)
(0 0 0)
(1.47502e-09 2.28123e-09 -1.50929e-10)
(2.83489e-09 4.45119e-09 -2.93149e-10)
(4.06115e-09 6.53846e-09 -4.26664e-10)
(5.17683e-09 8.62691e-09 -5.53829e-10)
(6.19576e-09 1.07813e-08 -6.7341e-10)
(7.12106e-09 1.30469e-08 -7.79147e-10)
(7.94308e-09 1.54454e-08 -8.57508e-10)
(8.63753e-09 1.79666e-08 -8.84457e-10)
(9.16598e-09 2.05535e-08 -8.21246e-10)
(9.48367e-09 2.30802e-08 -6.10121e-10)
(9.56507e-09 2.53235e-08 -1.72892e-10)
(9.46275e-09 2.69399e-08 5.8012e-10)
(9.40824e-09 2.7485e-08 1.71474e-09)
(9.88555e-09 2.65826e-08 3.18322e-09)
(1.12782e-08 2.44989e-08 4.64191e-09)
(1.67513e-08 1.68219e-08 7.12344e-09)
(0 0 0)
(2.19424e-09 3.32408e-09 -2.27306e-10)
(4.21892e-09 6.48735e-09 -4.42375e-10)
(6.04852e-09 9.53304e-09 -6.46246e-10)
(7.71976e-09 1.25855e-08 -8.43953e-10)
(9.2568e-09 1.57429e-08 -1.03603e-09)
(1.06693e-08 1.90773e-08 -1.21699e-09)
(1.19494e-08 2.26317e-08 -1.37295e-09)
(1.30673e-08 2.64111e-08 -1.47819e-09)
(1.39667e-08 3.03664e-08 -1.49096e-09)
(1.4562e-08 3.43706e-08 -1.3497e-09)
(1.47424e-08 3.81867e-08 -9.73638e-10)
(1.43933e-08 4.1438e-08 -2.76965e-10)
(1.34481e-08 4.36174e-08 7.85037e-10)
(1.1985e-08 4.42396e-08 2.11425e-09)
(1.03887e-08 4.33731e-08 3.32295e-09)
(6.17895e-09 3.90865e-08 4.68553e-09)
(0 0 0)
(2.88989e-09 4.25197e-09 -3.03934e-10)
(5.55922e-09 8.30039e-09 -5.92883e-10)
(7.97743e-09 1.22029e-08 -8.69841e-10)
(1.01969e-08 1.61219e-08 -1.14383e-09)
(1.22556e-08 2.0188e-08 -1.41922e-09)
(1.4175e-08 2.45028e-08 -1.69468e-09)
(1.59577e-08 2.91372e-08 -1.96135e-09)
(1.75811e-08 3.41254e-08 -2.20042e-09)
(1.8989e-08 3.94529e-08 -2.38019e-09)
(2.00772e-08 4.50369e-08 -2.45409e-09)
(2.06745e-08 5.06983e-08 -2.36279e-09)
(2.05188e-08 5.61276e-08 -2.0474e-09)
(1.9254e-08 6.08607e-08 -1.48594e-09)
(1.65612e-08 6.43214e-08 -7.63324e-10)
(1.28391e-08 6.60801e-08 -1.42213e-10)
(2.47505e-09 6.64736e-08 2.25989e-10)
(0 0 0)
(3.55203e-09 5.03099e-09 -3.7974e-10)
(6.83645e-09 9.82397e-09 -7.42496e-10)
(9.81955e-09 1.44501e-08 -1.09401e-09)
(1.2571e-08 1.91053e-08 -1.44839e-09)
(1.51453e-08 2.39501e-08 -1.81557e-09)
(1.75817e-08 2.91145e-08 -2.2011e-09)
(1.99024e-08 3.46997e-08 -2.60555e-09)
(2.2109e-08 4.0776e-08 -3.02369e-09)
(2.41739e-08 4.73774e-08 -3.44388e-09)
(2.60254e-08 5.44907e-08 -3.84849e-09)
(2.75205e-08 6.20376e-08 -4.21684e-09)
(2.83981e-08 6.98402e-08 -4.53239e-09)
(2.82252e-08 7.75504e-08 -4.79366e-09)
(2.64485e-08 8.45127e-08 -5.01936e-09)
(2.3098e-08 8.9574e-08 -5.21731e-09)
(1.12721e-08 9.49998e-08 -5.64866e-09)
(0 0 0)
(4.16988e-09 5.63147e-09 -4.53058e-10)
(8.02922e-09 1.09999e-08 -8.87712e-10)
(1.15425e-08 1.61881e-08 -1.31293e-09)
(1.4797e-08 2.14191e-08 -1.74847e-09)
(1.78652e-08 2.68777e-08 -2.21074e-09)
(2.08074e-08 3.27178e-08 -2.7136e-09)
(2.36725e-08 3.90667e-08 -3.26916e-09)
(2.64987e-08 4.60265e-08 -3.88891e-09)
(2.93126e-08 5.36746e-08 -4.58555e-09)
(3.21243e-08 6.20623e-08 -5.37627e-09)
(3.49169e-08 7.12084e-08 -6.28709e-09)
(3.76168e-08 8.1075e-08 -7.35536e-09)
(4.00304e-08 9.14795e-08 -8.61757e-09)
(4.17294e-08 1.01815e-07 -1.00455e-08)
(4.20833e-08 1.1032e-07 -1.13616e-08)
(3.49276e-08 1.21317e-07 -1.29618e-08)
(0 0 0)
(4.7324e-09 6.02925e-09 -5.21839e-10)
(9.11552e-09 1.17807e-08 -1.0242e-09)
(1.31123e-08 1.73463e-08 -1.51929e-09)
(1.68262e-08 2.29676e-08 -2.03243e-09)
(2.0347e-08 2.88461e-08 -2.58637e-09)
(2.3755e-08 3.51514e-08 -3.20306e-09)
(2.71261e-08 4.20266e-08 -3.9056e-09)
(3.05371e-08 4.95915e-08 -4.72086e-09)
(3.40734e-08 5.79446e-08 -5.68333e-09)
(3.78394e-08 6.71649e-08 -6.8403e-09)
(4.19745e-08 7.73107e-08 -8.25789e-09)
(4.66698e-08 8.84077e-08 -1.00232e-08)
(5.21685e-08 1.00394e-07 -1.22269e-08)
(5.86414e-08 1.12889e-07 -1.48744e-08)
(6.54344e-08 1.2423e-07 -1.75643e-08)
(7.43916e-08 1.42106e-07 -2.20844e-08)
(0 0 0)
(5.22959e-09 6.20677e-09 -5.8399e-10)
(1.00755e-08 1.21323e-08 -1.14755e-09)
(1.44985e-08 1.78744e-08 -1.70575e-09)
(1.8615e-08 2.36834e-08 -2.28868e-09)
(2.25281e-08 2.97682e-08 -2.92438e-09)
(2.63338e-08 3.63042e-08 -3.6412e-09)
(3.01281e-08 4.34377e-08 -4.4704e-09)
(3.40151e-08 5.12877e-08 -5.44941e-09)
(3.81192e-08 5.99441e-08 -6.62604e-09)
(4.26021e-08 6.94619e-08 -8.06356e-09)
(4.76872e-08 7.98469e-08 -9.84506e-09)
(5.36856e-08 9.10193e-08 -1.20722e-08)
(6.10002e-08 1.02719e-07 -1.48434e-08)
(6.99944e-08 1.14254e-07 -1.81762e-08)
(8.03664e-08 1.23701e-07 -2.18269e-08)
(1.27859e-07 1.5385e-07 -3.28009e-08)
(0 0 0)
(0 0 0)
(0 0 0)
(0 0 0)
(0 0 0)
(0 0 0)
(0 0 0)
(0 0 0)
(0 0 0)
(0 0 0)
(0 0 0)
(0 0 0)
(0 0 0)
(0 0 0)
(0 0 0)
(0 0 0)
(0 0 0)
(0 0 0)
(7.54829e-10 1.18718e-09 -5.89871e-11)
(1.45076e-09 2.31697e-09 -1.14451e-10)
(2.07826e-09 3.40461e-09 -1.66266e-10)
(2.64878e-09 4.49394e-09 -2.15189e-10)
(3.16872e-09 5.61852e-09 -2.60512e-10)
(3.63852e-09 6.80108e-09 -2.99475e-10)
(4.05155e-09 8.05098e-09 -3.26388e-10)
(4.39354e-09 9.35887e-09 -3.31402e-10)
(4.64421e-09 1.06877e-08 -2.99005e-10)
(4.78531e-09 1.19592e-08 -2.06589e-10)
(4.82368e-09 1.30369e-08 -2.40703e-11)
(4.8436e-09 1.37129e-08 2.83322e-10)
(5.10017e-09 1.37216e-08 7.45104e-10)
(6.10157e-09 1.28469e-08 1.35973e-09)
(8.25099e-09 1.12953e-08 2.02045e-09)
(2.30428e-08 7.10464e-09 3.94763e-09)
(0 0 0)
(1.50239e-09 2.33404e-09 -1.18365e-10)
(2.88834e-09 4.55585e-09 -2.29969e-10)
(4.13973e-09 6.69617e-09 -3.34918e-10)
(5.28043e-09 8.8422e-09 -4.35252e-10)
(6.3247e-09 1.10617e-08 -5.30382e-10)
(7.2754e-09 1.34024e-08 -6.16137e-10)
(8.12162e-09 1.58882e-08 -6.83332e-10)
(8.8362e-09 1.85103e-08 -7.15808e-10)
(9.37519e-09 2.12122e-08 -6.88116e-10)
(9.68399e-09 2.38672e-08 -5.63644e-10)
(9.72018e-09 2.62492e-08 -2.95172e-10)
(9.50896e-09 2.80087e-08 1.67818e-10)
(9.24275e-09 2.86908e-08 8.57337e-10)
(9.37027e-09 2.78984e-08 1.73827e-09)
(1.03225e-08 2.58652e-08 2.61094e-09)
(1.47228e-08 1.80355e-08 4.19484e-09)
(0 0 0)
(2.23477e-09 3.40106e-09 -1.78262e-10)
(4.29808e-09 6.63995e-09 -3.47027e-10)
(6.16493e-09 9.76307e-09 -5.07254e-10)
(7.87335e-09 1.28997e-08 -6.63159e-10)
(9.44814e-09 1.61524e-08 -8.1568e-10)
(1.08986e-08 1.95971e-08 -9.61518e-10)
(1.22151e-08 2.32802e-08 -1.09168e-09)
(1.33637e-08 2.7209e-08 -1.18952e-09)
(1.42798e-08 3.13356e-08 -1.22866e-09)
(1.48636e-08 3.55318e-08 -1.17171e-09)
(1.49804e-08 3.95561e-08 -9.72463e-10)
(1.44785e-08 4.30227e-08 -5.86418e-10)
(1.32417e-08 4.54091e-08 2.12686e-12)
(1.13096e-08 4.62044e-08 7.2869e-10)
(9.1406e-09 4.54418e-08 1.38224e-09)
(3.57681e-09 4.11403e-08 2.15481e-09)
(0 0 0)
(2.94292e-09 4.35047e-09 -2.38354e-10)
(5.66283e-09 8.49571e-09 -4.65082e-10)
(8.12987e-09 1.24975e-08 -6.82705e-10)
(1.03982e-08 1.65245e-08 -8.98621e-10)
(1.25066e-08 2.07133e-08 -1.11688e-09)
(1.44765e-08 2.51704e-08 -1.33757e-09)
(1.63079e-08 2.99715e-08 -1.55595e-09)
(1.79732e-08 3.51543e-08 -1.76114e-09)
(1.94055e-08 4.0706e-08 -1.9352e-09)
(2.04827e-08 4.65427e-08 -2.05312e-09)
(2.10039e-08 5.24792e-08 -2.08591e-09)
(2.06624e-08 5.81928e-08 -2.00965e-09)
(1.90473e-08 6.31972e-08 -1.82375e-09)
(1.58045e-08 6.68852e-08 -1.57656e-09)
(1.14301e-08 6.87915e-08 -1.37622e-09)
(-3.95462e-10 6.93093e-08 -1.3346e-09)
(0 0 0)
(3.61668e-09 5.14758e-09 -2.97798e-10)
(6.9628e-09 1.00552e-08 -5.82418e-10)
(1.00055e-08 1.4799e-08 -8.58561e-10)
(1.28168e-08 1.95825e-08 -1.13764e-09)
(1.54523e-08 2.45732e-08 -1.42811e-09)
(1.79511e-08 2.99075e-08 -1.73553e-09)
(2.0333e-08 3.56923e-08 -2.06257e-09)
(2.25933e-08 4.20026e-08 -2.40902e-09)
(2.46926e-08 4.8875e-08 -2.77245e-09)
(2.6538e-08 5.62953e-08 -3.14985e-09)
(2.79521e-08 6.41776e-08 -3.54099e-09)
(2.86241e-08 7.23264e-08 -3.95242e-09)
(2.80624e-08 8.03638e-08 -4.39645e-09)
(2.56849e-08 8.75953e-08 -4.86936e-09)
(2.16419e-08 9.28311e-08 -5.28838e-09)
(8.3778e-09 9.84668e-08 -5.86327e-09)
(0 0 0)
(4.24503e-09 5.76197e-09 -3.55284e-10)
(8.17614e-09 1.12588e-08 -6.96285e-10)
(1.17589e-08 1.65789e-08 -1.03024e-09)
(1.50831e-08 2.19539e-08 -1.373e-09)
(1.82231e-08 2.75767e-08 -1.7381e-09)