/*--------------------------------*- C++ -*----------------------------------*\
| =========                 |                                                 |
| \\      /  F ield         | foam-extend: Open Source CFD                    |
|  \\    /   O peration     | Version:     3.1                                |
|   \\  /    A nd           | Web:         http://www.extend-project.de       |
|    \\/     M anipulation  |                                                 |
\*---------------------------------------------------------------------------*/
FoamFile
{
    version     2.0;
    format      ascii;
    class       surfaceVectorField;
    location    "0.1";
    object      Sf;
}
// * * * * * * * * * * * * * * * * * * * * * * * * * * * * * * * * * * * * * //

dimensions      [0 2 0 0 0 0 0];

internalField   nonuniform List<vector> 
41600
(
(0.000624994 -9.08216e-08 -8.26949e-10)
(5.57147e-09 0.000703216 7.64446e-12)
(-4.34691e-09 -4.89027e-09 0.000703168)
(4.47336e-09 5.03253e-09 -0.000703167)
(0.000624989 -1.7526e-07 -1.61347e-09)
(5.12739e-09 0.000703209 1.48225e-11)
(-4.26986e-09 -1.45841e-08 0.000703158)
(4.39745e-09 1.50122e-08 -0.000703158)
(0.000624984 -2.52877e-07 -2.38041e-09)
(4.57718e-09 0.000703202 -1.49634e-12)
(-4.37624e-09 -2.43108e-08 0.00070315)
(4.51267e-09 2.50359e-08 -0.000703149)
(0.00062498 -3.25911e-07 -3.1764e-09)
(4.02608e-09 0.000703197 -5.76882e-11)
(-4.77944e-09 -3.46108e-08 0.000703142)
(4.93535e-09 3.56647e-08 -0.000703142)
(0.000624977 -3.96326e-07 -4.04798e-09)
(3.35961e-09 0.000703194 -1.76816e-10)
(-5.47315e-09 -4.61446e-08 0.000703137)
(5.65949e-09 4.75836e-08 -0.000703136)
(0.000624974 -4.65897e-07 -5.04111e-09)
(2.41852e-09 0.000703193 -3.9527e-10)
(-6.47231e-09 -5.95828e-08 0.000703134)
(6.70135e-09 6.14891e-08 -0.000703132)
(0.000624973 -5.36255e-07 -6.20327e-09)
(9.78387e-10 0.000703193 -7.71453e-10)
(-7.81272e-09 -7.5653e-08 0.000703132)
(8.0991e-09 7.81391e-08 -0.00070313)
(0.000624974 -6.08912e-07 -7.58663e-09)
(-1.28634e-09 0.000703194 -1.39844e-09)
(-9.55414e-09 -9.51902e-08 0.000703134)
(9.91645e-09 9.8406e-08 -0.000703131)
(0.000624978 -6.85252e-07 -9.25413e-09)
(-4.85181e-09 0.000703197 -2.42602e-09)
(-1.17898e-08 -1.19202e-07 0.00070314)
(1.22531e-08 1.23346e-07 -0.000703136)
(0.000624988 -7.66502e-07 -1.12944e-08)
(-1.0431e-08 0.000703201 -4.09939e-09)
(-1.46675e-08 -1.48966e-07 0.000703152)
(1.52682e-08 1.54307e-07 -0.000703146)
(0.000625006 -8.53698e-07 -1.38603e-08)
(-1.91098e-08 0.000703205 -6.82913e-09)
(-1.84332e-08 -1.86205e-07 0.000703173)
(1.92287e-08 1.93117e-07 -0.000703164)
(0.000625038 -9.47705e-07 -1.72655e-08)
(-3.25404e-08 0.00070321 -1.13264e-08)
(-2.35067e-08 -2.3339e-07 0.000703208)
(2.45975e-08 2.42423e-07 -0.000703194)
(0.000625089 -1.04929e-06 -2.22076e-08)
(-5.30489e-08 0.000703215 -1.88514e-08)
(-3.05387e-08 -2.94196e-07 0.000703265)
(3.21303e-08 3.06245e-07 -0.000703241)
(0.000625169 -1.15841e-06 -3.00762e-08)
(-8.22935e-08 0.000703217 -3.14507e-08)
(-3.99127e-08 -3.73466e-07 0.000703353)
(4.25898e-08 3.90311e-07 -0.000703313)
(0.000625271 -1.26581e-06 -4.17028e-08)
(-1.09348e-07 0.000703205 -4.99319e-08)
(-4.69972e-08 -4.71266e-07 0.000703471)
(5.39435e-08 4.98923e-07 -0.000703409)
(-6.26041e-07 0.000703306 1.67835e-07)
(-1.4945e-07 -6.92279e-07 0.000703921)
(3.33255e-07 9.34345e-07 -0.000704102)
(0.000624994 -8.90686e-08 -2.45503e-09)
(1.10688e-08 0.000703305 1.96553e-11)
(-1.29128e-08 -4.7463e-09 0.000703258)
(1.32884e-08 4.88442e-09 -0.000703256)
(0.000624989 -1.71825e-07 -4.78868e-09)
(1.02109e-08 0.000703291 4.37686e-11)
(-1.26781e-08 -1.41481e-08 0.000703243)
(1.3057e-08 1.45636e-08 -0.000703241)
(0.000624984 -2.47795e-07 -7.06166e-09)
(9.1683e-09 0.000703277 2.42124e-11)
(-1.29822e-08 -2.35619e-08 0.000703227)
(1.3387e-08 2.4265e-08 -0.000703225)
(0.000624979 -3.19123e-07 -9.41703e-09)
(8.15712e-09 0.000703267 -6.84141e-11)
(-1.41605e-08 -3.34965e-08 0.000703215)
(1.46227e-08 3.45171e-08 -0.000703213)
(0.000624975 -3.8769e-07 -1.19911e-08)
(6.96481e-09 0.000703261 -2.75176e-10)
(-1.61908e-08 -4.45723e-08 0.000703207)
(1.67425e-08 4.59634e-08 -0.000703205)
(0.000624971 -4.55175e-07 -1.49174e-08)
(5.30421e-09 0.000703258 -6.61432e-10)
(-1.91113e-08 -5.74082e-08 0.000703203)
(1.97885e-08 5.92471e-08 -0.000703199)
(0.000624969 -5.23103e-07 -1.83315e-08)
(2.77516e-09 0.000703258 -1.33104e-09)
(-2.30168e-08 -7.26587e-08 0.000703201)
(2.38621e-08 7.50505e-08 -0.000703197)
(0.000624968 -5.92852e-07 -2.23782e-08)
(-1.18381e-09 0.000703261 -2.44742e-09)
(-2.8063e-08 -9.10449e-08 0.000703204)
(2.91303e-08 9.41287e-08 -0.000703199)
(0.000624969 -6.65598e-07 -2.72228e-08)
(-7.36575e-09 0.000703266 -4.26879e-09)
(-3.44828e-08 -1.13381e-07 0.000703211)
(3.58442e-08 1.17339e-07 -0.000703205)
(0.000624973 -7.42197e-07 -3.30791e-08)
(-1.68922e-08 0.000703272 -7.20433e-09)
(-4.26219e-08 -1.4059e-07 0.000703224)
(4.43812e-08 1.45664e-07 -0.000703215)
(0.000624983 -8.22908e-07 -4.02813e-08)
(-3.13057e-08 0.000703279 -1.1906e-08)
(-5.30034e-08 -1.73685e-07 0.000703244)
(5.53225e-08 1.80206e-07 -0.000703232)
(0.000625 -9.06831e-07 -4.94613e-08)
(-5.25531e-08 0.000703285 -1.94177e-08)
(-6.63998e-08 -2.1364e-07 0.000703273)
(6.95568e-08 2.22076e-07 -0.000703256)
(0.000625025 -9.90722e-07 -6.19341e-08)
(-8.23255e-08 0.000703287 -3.13828e-08)
(-8.36841e-08 -2.6087e-07 0.000703313)
(8.82258e-08 2.71929e-07 -0.000703288)
(0.000625054 -1.06646e-06 -8.00895e-08)
(-1.18521e-07 0.000703278 -5.00461e-08)
(-1.04039e-07 -3.13529e-07 0.000703359)
(1.11417e-07 3.28386e-07 -0.000703322)
(0.000625066 -1.11736e-06 -1.04458e-07)
(-1.39271e-07 0.000703234 -7.59364e-08)
(-1.13909e-07 -3.6317e-07 0.000703389)
(1.31418e-07 3.84352e-07 -0.000703338)
(-3.56505e-07 0.000703187 4.00799e-08)
(-2.68675e-07 -3.51403e-07 0.000703468)
(5.4245e-07 2.70625e-07 -0.00070337)
(0.000624994 -8.56393e-08 -4.0073e-09)
(1.63982e-08 0.00070339 3.93921e-11)
(-2.11034e-08 -4.4681e-09 0.000703347)
(2.17175e-08 4.59819e-09 -0.000703343)
(0.000624988 -1.6511e-07 -7.81211e-09)
(1.5183e-08 0.00070337 9.76416e-11)
(-2.07012e-08 -1.33064e-08 0.000703325)
(2.132e-08 1.36973e-08 -0.000703321)
(0.000624983 -2.37864e-07 -1.15097e-08)
(1.3754e-08 0.000703349 9.80346e-11)
(-2.11602e-08 -2.21179e-08 0.000703303)
(2.18204e-08 2.27784e-08 -0.000703299)
(0.000624978 -3.05876e-07 -1.53296e-08)
(1.24452e-08 0.000703334 4.17413e-12)
(-2.3024e-08 -3.13531e-08 0.000703286)
(2.37762e-08 3.23095e-08 -0.000703282)
(0.000624973 -3.70859e-07 -1.94885e-08)
(1.09764e-08 0.000703325 -2.34843e-10)
(-2.62462e-08 -4.1558e-08 0.000703275)
(2.71419e-08 4.28569e-08 -0.000703271)
(0.000624968 -4.34321e-07 -2.41954e-08)
(8.98052e-09 0.00070332 -7.00379e-10)
(-3.08707e-08 -5.32592e-08 0.000703268)
(3.1967e-08 5.49687e-08 -0.000703263)
(0.000624964 -4.97601e-07 -2.9657e-08)
(5.96229e-09 0.000703319 -1.52053e-09)
(-3.70198e-08 -6.69851e-08 0.000703266)
(3.83839e-08 6.91966e-08 -0.00070326)
(0.00062496 -5.61854e-07 -3.60817e-08)
(1.25618e-09 0.000703323 -2.89402e-09)
(-4.48876e-08 -8.32716e-08 0.000703268)
(4.66031e-08 8.61036e-08 -0.000703261)
(0.000624956 -6.2798e-07 -4.36837e-08)
(-6.03113e-09 0.000703329 -5.12728e-09)
(-5.47386e-08 -1.0264e-07 0.000703274)
(5.69161e-08 1.06244e-07 -0.000703266)
(0.000624954 -6.96419e-07 -5.2691e-08)
(-1.70637e-08 0.000703336 -8.68878e-09)
(-6.69037e-08 -1.25522e-07 0.000703284)
(6.96995e-08 1.30093e-07 -0.000703274)
(0.000624952 -7.66728e-07 -6.33717e-08)
(-3.32306e-08 0.000703344 -1.42863e-08)
(-8.17506e-08 -1.52066e-07 0.000703298)
(8.54039e-08 1.57856e-07 -0.000703285)
(0.00062495 -8.36732e-07 -7.61092e-08)
(-5.58094e-08 0.000703348 -2.29701e-08)
(-9.95243e-08 -1.81692e-07 0.000703312)
(1.04432e-07 1.89035e-07 -0.000703296)
(0.000624946 -9.01067e-07 -9.15588e-08)
(-8.46867e-08 0.000703342 -3.62389e-08)
(-1.19645e-07 -2.1215e-07 0.000703322)
(1.26542e-07 2.21484e-07 -0.000703302)
(0.000624931 -9.49512e-07 -1.106e-07)
(-1.14266e-07 0.000703315 -5.59625e-08)
(-1.37836e-07 -2.37929e-07 0.000703315)
(1.48476e-07 2.49772e-07 -0.00070329)
(0.00062489 -9.6957e-07 -1.31517e-07)
(-1.20589e-07 0.00070324 -8.32851e-08)
(-1.35002e-07 -2.50025e-07 0.000703263)
(1.57186e-07 2.64435e-07 -0.000703234)
(-3.24348e-07 0.000703179 2.76761e-08)
(-2.17976e-07 -2.28138e-07 0.000703258)
(3.95676e-07 2.40978e-07 -0.000703297)
(0.000624994 -8.068e-08 -5.43858e-09)
(2.14324e-08 0.000703471 6.8277e-11)
(-2.86964e-08 -4.07392e-09 0.000703431)
(2.95316e-08 4.19261e-09 -0.000703425)
(0.000624989 -1.55407e-07 -1.05937e-08)
(1.99359e-08 0.000703445 1.81274e-10)
(-2.81125e-08 -1.2115e-08 0.000703403)
(2.89532e-08 1.24712e-08 -0.000703398)
(0.000624983 -2.23534e-07 -1.55872e-08)
(1.8256e-08 0.000703417 2.29928e-10)
(-2.86615e-08 -2.00788e-08 0.000703374)
(2.95563e-08 2.06789e-08 -0.000703369)
(0.000624978 -2.86796e-07 -2.07225e-08)
(1.6852e-08 0.000703397 1.77567e-10)
(-3.10746e-08 -2.83368e-08 0.000703353)
(3.2091e-08 2.92022e-08 -0.000703348)
(0.000624972 -3.46674e-07 -2.62831e-08)
(1.54093e-08 0.000703384 -2.70889e-11)
(-3.52705e-08 -3.73368e-08 0.000703338)
(3.64765e-08 3.85058e-08 -0.000703333)
(0.000624966 -4.04444e-07 -3.25372e-08)
(1.35319e-08 0.000703376 -4.66492e-10)
(-4.12772e-08 -4.74888e-08 0.000703329)
(4.27473e-08 4.90166e-08 -0.000703323)
(0.000624959 -4.61208e-07 -3.97408e-08)
(1.07141e-08 0.000703374 -1.26997e-09)
(-4.92069e-08 -5.91716e-08 0.000703325)
(5.10273e-08 6.1131e-08 -0.000703318)
(0.000624952 -5.17877e-07 -4.81349e-08)
(6.30706e-09 0.000703377 -2.63612e-09)
(-5.92299e-08 -7.27186e-08 0.000703325)
(6.1506e-08 7.52009e-08 -0.000703317)
(0.000624944 -5.75118e-07 -5.79325e-08)
(-5.07365e-10 0.000703383 -4.86509e-09)
(-7.15378e-08 -8.83686e-08 0.000703328)
(7.44058e-08 9.14851e-08 -0.000703319)
(0.000624934 -6.33182e-07 -6.92889e-08)
(-1.07014e-08 0.00070339 -8.40419e-09)
(-8.62695e-08 -1.06152e-07 0.000703334)
(8.99175e-08 1.10036e-07 -0.000703323)
(0.000624921 -6.91568e-07 -8.22455e-08)
(-2.52718e-08 0.000703398 -1.39092e-08)
(-1.03343e-07 -1.25659e-07 0.000703339)
(1.08051e-07 1.30467e-07 -0.000703326)
(0.000624904 -7.4839e-07 -9.66408e-08)
(-4.48028e-08 0.000703399 -2.23294e-08)
(-1.22036e-07 -1.45614e-07 0.000703337)
(1.28254e-07 1.51527e-07 -0.000703324)
(0.000624879 -7.99461e-07 -1.11993e-07)
(-6.82969e-08 0.000703386 -3.50313e-08)
(-1.39904e-07 -1.63229e-07 0.000703321)
(1.48419e-07 1.70439e-07 -0.000703307)
(0.000624842 -8.37875e-07 -1.27239e-07)
(-9.01981e-08 0.000703345 -5.39664e-08)
(-1.49907e-07 -1.73773e-07 0.000703275)
(1.62431e-07 1.82401e-07 -0.000703262)
(0.00062479 -8.57424e-07 -1.3911e-07)
(-9.14922e-08 0.00070325 -8.19005e-08)
(-1.3281e-07 -1.72777e-07 0.00070318)
(1.5624e-07 1.82328e-07 -0.000703169)
(-2.57154e-07 0.000703176 7.89692e-09)
(-1.77953e-07 -1.46962e-07 0.000703127)
(3.38737e-07 1.40038e-07 -0.000703185)
(0.000624994 -7.43952e-08 -6.71137e-09)
(2.60054e-08 0.000703545 1.05765e-10)
(-3.55078e-08 -3.58874e-09 0.000703509)
(3.65415e-08 3.69334e-09 -0.000703502)
(0.000624989 -1.43126e-07 -1.30592e-08)
(2.43141e-08 0.000703513 2.93133e-10)
(-3.47266e-08 -1.06506e-08 0.000703476)
(3.57655e-08 1.09639e-08 -0.00070347)
(0.000624984 -2.05433e-07 -1.91817e-08)
(2.25291e-08 0.000703479 4.17214e-10)
(-3.5287e-08 -1.75796e-08 0.000703441)
(3.63895e-08 1.81053e-08 -0.000703435)
(0.000624978 -2.62756e-07 -2.54411e-08)
(2.12355e-08 0.000703453 4.47422e-10)
(-3.80827e-08 -2.46559e-08 0.000703415)
(3.93299e-08 2.54096e-08 -0.000703409)
(0.000624972 -3.16298e-07 -3.21716e-08)
(2.0112e-08 0.000703436 3.41287e-10)
(-4.29878e-08 -3.22164e-08 0.000703396)
(4.44609e-08 3.32265e-08 -0.00070339)
(0.000624965 -3.67057e-07 -3.96827e-08)
(1.87804e-08 0.000703426 2.83752e-11)
(-4.99949e-08 -4.05458e-08 0.000703384)
(5.1781e-08 4.18528e-08 -0.000703377)
(0.000624956 -4.15865e-07 -4.82589e-08)
(1.6786e-08 0.000703421 -6.02483e-10)
(-5.91751e-08 -4.98736e-08 0.000703377)
(6.1373e-08 5.15288e-08 -0.000703369)
(0.000624946 -4.63386e-07 -5.81507e-08)
(1.35798e-08 0.000703422 -1.72177e-09)
(-7.06313e-08 -6.03528e-08 0.000703375)
(7.33587e-08 6.24167e-08 -0.000703366)
(0.000624934 -5.10113e-07 -6.95454e-08)
(8.5156e-09 0.000703427 -3.58612e-09)
(-8.44262e-08 -7.20098e-08 0.000703375)
(8.78303e-08 7.45494e-08 -0.000703365)
(0.000624918 -5.56327e-07 -8.25054e-08)
(8.89374e-10 0.000703434 -6.57636e-09)
(-1.00448e-07 -8.46524e-08 0.000703375)
(1.04725e-07 8.77346e-08 -0.000703364)
(0.000624897 -6.02012e-07 -9.68497e-08)
(-9.9335e-09 0.00070344 -1.12562e-08)
(-1.18142e-07 -9.7714e-08 0.000703372)
(1.23576e-07 1.01396e-07 -0.000703361)
(0.00062487 -6.46671e-07 -1.11952e-07)
(-2.42018e-08 0.000703439 -1.84764e-08)
(-1.35955e-07 -1.10028e-07 0.00070336)
(1.42993e-07 1.14343e-07 -0.000703348)
(0.000624833 -6.8894e-07 -1.26462e-07)
(-4.10635e-08 0.000703424 -2.95882e-08)
(-1.50193e-07 -1.19604e-07 0.000703327)
(1.59597e-07 1.24538e-07 -0.000703317)
(0.000624786 -7.25796e-07 -1.37991e-07)
(-5.68055e-08 0.000703376 -4.68782e-08)
(-1.52715e-07 -1.23755e-07 0.000703258)
(1.66097e-07 1.29226e-07 -0.000703254)
(0.000624729 -7.51826e-07 -1.42101e-07)
(-5.81676e-08 0.000703271 -7.46496e-08)
(-1.26495e-07 -1.20808e-07 0.000703138)
(1.50059e-07 1.26446e-07 -0.000703141)
(-2.01757e-07 0.00070319 3.48155e-09)
(-1.4758e-07 -1.0522e-07 0.000703062)
(2.89954e-07 1.0645e-07 -0.000703149)
(0.000624995 -6.70312e-08 -7.79777e-09)
(2.99168e-08 0.000703612 1.49331e-10)
(-4.14018e-08 -3.04157e-09 0.000703581)
(4.26073e-08 3.13017e-09 -0.000703573)
(0.00062499 -1.28762e-07 -1.51538e-08)
(2.81201e-08 0.000703575 4.25175e-10)
(-4.04091e-08 -9.00205e-09 0.000703543)
(4.16183e-08 9.26672e-09 -0.000703536)
(0.000624985 -1.84318e-07 -2.22121e-08)
(2.63668e-08 0.000703534 6.45041e-10)
(-4.08976e-08 -1.47756e-08 0.000703502)
(4.21761e-08 1.52173e-08 -0.000703495)
(0.000624979 -2.34811e-07 -2.93766e-08)
(2.53587e-08 0.000703503 7.89565e-10)
(-4.38957e-08 -2.05468e-08 0.000703471)
(4.53352e-08 2.11749e-08 -0.000703464)
(0.000624973 -2.81126e-07 -3.7015e-08)
(2.47876e-08 0.000703482 8.31821e-10)
(-4.92267e-08 -2.65384e-08 0.000703449)
(5.09173e-08 2.73708e-08 -0.000703442)
(0.000624965 -3.23958e-07 -4.54606e-08)
(2.43233e-08 0.000703468 7.2315e-10)
(-5.68336e-08 -3.29123e-08 0.000703433)
(5.88702e-08 3.3974e-08 -0.000703426)
(0.000624956 -3.63837e-07 -5.50094e-08)
(2.35971e-08 0.00070346 3.83273e-10)
(-6.67275e-08 -3.97624e-08 0.000703423)
(6.92149e-08 4.10829e-08 -0.000703415)
(0.000624944 -4.01156e-07 -6.59067e-08)
(2.21964e-08 0.000703458 -3.13863e-10)
(-7.89256e-08 -4.70951e-08 0.000703418)
(8.19842e-08 4.87043e-08 -0.000703408)
(0.000624929 -4.36215e-07 -7.83121e-08)
(1.96724e-08 0.00070346 -1.56149e-09)
(-9.33576e-08 -5.47969e-08 0.000703414)
(9.71318e-08 5.67185e-08 -0.000703404)
(0.00062491 -4.69321e-07 -9.22279e-08)
(1.55713e-08 0.000703464 -3.65439e-09)
(-1.09706e-07 -6.25923e-08 0.00070341)
(1.14379e-07 6.48316e-08 -0.000703399)
(0.000624885 -5.00988e-07 -1.07368e-07)
(9.49877e-09 0.000703469 -7.05277e-09)
(-1.27113e-07 -7.0008e-08 0.000703402)
(1.32939e-07 7.25307e-08 -0.000703391)
(0.000624852 -5.32304e-07 -1.22941e-07)
(1.22054e-09 0.000703468 -1.25221e-08)
(-1.43633e-07 -7.6388e-08 0.000703383)
(1.51002e-07 7.90879e-08 -0.000703374)
(0.00062481 -5.65324e-07 -1.37335e-07)
(-9.15036e-09 0.000703454 -2.14553e-08)
(-1.55204e-07 -8.10478e-08 0.000703344)
(1.64799e-07 8.37115e-08 -0.000703338)
(0.000624761 -6.02368e-07 -1.47626e-07)
(-2.03925e-08 0.000703411 -3.65514e-08)
(-1.5372e-07 -8.36334e-08 0.00070327)
(1.67091e-07 8.59549e-08 -0.00070327)
(0.000624704 -6.40527e-07 -1.47423e-07)
(-2.4598e-08 0.000703307 -6.34878e-08)
(-1.2358e-07 -8.44417e-08 0.000703141)
(1.46855e-07 8.62351e-08 -0.000703152)
(-1.47099e-07 0.000703234 4.24224e-09)
(-1.34235e-07 -8.1658e-08 0.000703059)
(2.73117e-07 8.33524e-08 -0.000703163)
(0.000624996 -5.88541e-08 -8.68062e-09)
(3.29461e-08 0.000703671 1.94585e-10)
(-4.6295e-08 -2.46271e-09 0.000703645)
(4.76429e-08 2.5343e-09 -0.000703636)
(0.000624991 -1.12854e-07 -1.68449e-08)
(3.11297e-08 0.000703628 5.63745e-10)
(-4.50813e-08 -7.26184e-09 0.000703603)
(4.64304e-08 7.47489e-09 -0.000703595)
(0.000624987 -1.61022e-07 -2.4632e-08)
(2.95223e-08 0.000703581 8.88561e-10)
(-4.54184e-08 -1.18279e-08 0.000703557)
(4.68389e-08 1.21808e-08 -0.000703549)
(0.000624982 -2.04116e-07 -3.247e-08)
(2.89203e-08 0.000703546 1.16417e-09)
(-4.8441e-08 -1.62517e-08 0.000703521)
(5.00314e-08 1.67475e-08 -0.000703514)
(0.000624975 -2.4269e-07 -4.07436e-08)
(2.9042e-08 0.000703519 1.38306e-09)
(-5.3919e-08 -2.06459e-08 0.000703495)
(5.57746e-08 2.12924e-08 -0.000703487)
(0.000624968 -2.77114e-07 -4.9793e-08)
(2.96158e-08 0.000703501 1.52257e-09)
(-6.1738e-08 -2.5059e-08 0.000703476)
(6.39567e-08 2.58662e-08 -0.000703468)
(0.000624958 -3.07597e-07 -5.99103e-08)
(3.03686e-08 0.000703489 1.53861e-09)
(-7.18408e-08 -2.94664e-08 0.000703463)
(7.45274e-08 3.04434e-08 -0.000703454)
(0.000624946 -3.34211e-07 -7.13257e-08)
(3.10218e-08 0.000703483 1.35527e-09)
(-8.41575e-08 -3.37563e-08 0.000703454)
(8.74274e-08 3.49056e-08 -0.000703444)
(0.000624931 -3.56953e-07 -8.41741e-08)
(3.13001e-08 0.000703481 8.47934e-10)
(-9.85081e-08 -3.7715e-08 0.000703447)
(1.02492e-07 3.9024e-08 -0.000703436)
(0.000624911 -3.75895e-07 -9.84365e-08)
(3.09425e-08 0.000703482 -1.86745e-10)
(-1.14451e-07 -4.10284e-08 0.000703439)
(1.19302e-07 4.24535e-08 -0.000703428)
(0.000624884 -3.91511e-07 -1.13843e-07)
(2.96948e-08 0.000703483 -2.09556e-09)
(-1.31034e-07 -4.33346e-08 0.000703428)
(1.36948e-07 4.4773e-08 -0.000703417)
(0.000624851 -4.05397e-07 -1.2974e-07)
(2.72227e-08 0.000703481 -5.52821e-09)
(-1.46365e-07 -4.4408e-08 0.000703407)
(1.53629e-07 4.56473e-08 -0.000703398)
(0.00062481 -4.21607e-07 -1.44929e-07)
(2.28069e-08 0.00070347 -1.1841e-08)
(-1.56829e-07 -4.46174e-08 0.000703369)
(1.65961e-07 4.52496e-08 -0.000703364)
(0.000624762 -4.48265e-07 -1.57179e-07)
(1.49966e-08 0.000703438 -2.40639e-08)
(-1.55393e-07 -4.57176e-08 0.000703303)
(1.67763e-07 4.50387e-08 -0.000703303)
(0.00062471 -4.93319e-07 -1.58509e-07)
(5.96562e-09 0.000703355 -4.93694e-08)
(-1.2704e-07 -5.06942e-08 0.000703185)
(1.49101e-07 4.80353e-08 -0.000703198)
(-9.0559e-08 0.000703371 9.33477e-09)
(-1.4093e-07 -6.48439e-08 0.000703147)
(2.8417e-07 6.56017e-08 -0.000703268)
(0.000624997 -5.01651e-08 -9.35411e-09)
(-5.01582e-08 -1.88248e-09 0.0007037)
(5.16182e-08 1.93692e-09 -0.000703691)
(3.48729e-08 0.000703721 2.36109e-10)
(0.000624993 -9.60291e-08 -1.81232e-08)
(-4.87219e-08 -5.523e-09 0.000703655)
(5.01795e-08 5.68416e-09 -0.000703646)
(3.31165e-08 0.000703674 6.92048e-10)
(0.000624989 -1.36531e-07 -2.64316e-08)
(-4.88398e-08 -8.89864e-09 0.000703604)
(5.03674e-08 9.16258e-09 -0.000703596)
(3.17403e-08 0.000703622 1.11759e-09)
(0.000624985 -1.72065e-07 -3.47151e-08)
(-5.17247e-08 -1.20133e-08 0.000703565)
(5.34242e-08 1.23775e-08 -0.000703557)
(3.16025e-08 0.000703581 1.52333e-09)
(0.00062498 -2.02853e-07 -4.33594e-08)
(-5.70937e-08 -1.48781e-08 0.000703535)
(5.9062e-08 1.53409e-08 -0.000703527)
(3.24538e-08 0.00070355 1.92168e-09)
(0.000624973 -2.28952e-07 -5.26967e-08)
(-6.4773e-08 -1.74417e-08 0.000703512)
(6.71069e-08 1.79999e-08 -0.000703504)
(3.40812e-08 0.000703527 2.31578e-09)
(0.000624964 -2.50255e-07 -6.30014e-08)
(-7.4634e-08 -1.95789e-08 0.000703496)
(7.74337e-08 2.02238e-08 -0.000703486)
(3.62949e-08 0.00070351 2.6966e-09)
(0.000624953 -2.66497e-07 -7.44768e-08)
(-8.65239e-08 -2.10785e-08 0.000703483)
(8.98941e-08 2.17905e-08 -0.000703473)
(3.89253e-08 0.000703499 3.03537e-09)
(0.000624938 -2.77282e-07 -8.72283e-08)
(-1.00173e-07 -2.16368e-08 0.000703472)
(1.04224e-07 2.23765e-08 -0.000703462)
(4.18222e-08 0.000703491 3.27112e-09)
(0.00062492 -2.8216e-07 -1.0122e-07)
(-1.15068e-07 -2.08686e-08 0.000703461)
(1.19915e-07 2.15625e-08 -0.000703451)
(4.48514e-08 0.000703486 3.2886e-09)
(0.000624896 -2.80798e-07 -1.16224e-07)
(-1.30261e-07 -1.83624e-08 0.000703447)
(1.36033e-07 1.88775e-08 -0.000703437)
(4.78737e-08 0.000703481 2.87022e-09)
(0.000624865 -2.73331e-07 -1.31775e-07)
(-1.44082e-07 -1.38244e-08 0.000703425)
(1.50942e-07 1.39234e-08 -0.000703416)
(5.06686e-08 0.000703473 1.5892e-09)
(0.000624827 -2.61099e-07 -1.4721e-07)
(-1.53604e-07 -7.39208e-09 0.000703388)
(1.61847e-07 6.64279e-09 -0.000703383)
(5.2786e-08 0.000703458 -1.42455e-09)
(0.000624778 -2.48716e-07 -1.61508e-07)
(-1.53354e-07 -3.52764e-10 0.000703326)
(1.63921e-07 -2.11812e-09 -0.000703328)
(5.38227e-08 0.000703428 -7.94211e-09)
(0.000624705 -2.53442e-07 -1.68929e-07)
(-1.31359e-07 2.0454e-09 0.000703208)
(1.49514e-07 -8.97296e-09 -0.000703228)
(6.02198e-08 0.000703366 -2.1274e-08)
(-1.84468e-07 -3.75924e-08 0.000703383)
(3.37338e-07 3.34828e-08 -0.000703525)
(-5.55546e-08 0.00070373 2.68708e-08)
(0.000624994 -9.23843e-08 -7.35852e-10)
(5.58667e-09 0.000703217 9.44061e-12)
(-4.06131e-09 -4.56897e-09 0.000703168)
(0.000624989 -1.78312e-07 -1.43847e-09)
(5.13014e-09 0.00070321 2.24283e-11)
(-3.98667e-09 -1.36229e-08 0.000703159)
(0.000624984 -2.57382e-07 -2.12425e-09)
(4.55648e-09 0.000703202 1.8535e-11)
(-4.08103e-09 -2.2699e-08 0.00070315)
(0.00062498 -3.31919e-07 -2.83191e-09)
(3.96853e-09 0.000703197 -1.3304e-11)
(-4.44993e-09 -3.22961e-08 0.000703143)
(0.000624976 -4.03972e-07 -3.5979e-09)
(3.24508e-09 0.000703194 -8.7758e-11)
(-5.08611e-09 -4.30239e-08 0.000703138)
(0.000624973 -4.75395e-07 -4.45669e-09)
(2.21565e-09 0.000703192 -2.26386e-10)
(-6.00064e-09 -5.54961e-08 0.000703135)
(0.000624972 -5.479e-07 -5.44137e-09)
(6.38242e-10 0.000703192 -4.61109e-10)
(-7.22142e-09 -7.03705e-08 0.000703134)
(0.000624973 -6.23083e-07 -6.58444e-09)
(-1.83731e-09 0.000703193 -8.36629e-10)
(-8.79352e-09 -8.83869e-08 0.000703136)
(0.000624978 -7.02426e-07 -7.91937e-09)
(-5.72476e-09 0.000703196 -1.41094e-09)
(-1.07821e-08 -1.10409e-07 0.000703143)
(0.000624988 -7.87282e-07 -9.48451e-09)
(-1.17884e-08 0.000703198 -2.24663e-09)
(-1.32789e-08 -1.37478e-07 0.000703156)
(0.000625007 -8.78891e-07 -1.13304e-08)
(-2.11739e-08 0.000703201 -3.36587e-09)
(-1.6411e-08 -1.7088e-07 0.000703179)
(0.00062504 -9.78495e-07 -1.35218e-08)
(-3.55646e-08 0.000703203 -4.59242e-09)
(-2.03325e-08 -2.1222e-07 0.000703215)
(0.000625091 -1.08758e-06 -1.60799e-08)
(-5.71211e-08 0.000703203 -5.04964e-09)
(-2.50935e-08 -2.63331e-07 0.000703273)
(0.000625168 -1.20716e-06 -1.86786e-08)
(-8.6592e-08 0.000703196 -1.86436e-09)
(-2.99303e-08 -3.25249e-07 0.000703357)
(0.000625262 -1.32764e-06 -2.01553e-08)
(-1.10354e-07 0.000703167 1.06555e-08)
(-3.03531e-08 -3.93099e-07 0.000703461)
(-4.09019e-07 0.000703352 3.61164e-08)
(-7.03078e-08 -5.06462e-07 0.000703888)
(0.000624994 -9.05825e-08 -2.1845e-09)
(1.11064e-08 0.000703307 2.25808e-11)
(-1.20644e-08 -4.43449e-09 0.000703261)
(0.000624988 -1.74779e-07 -4.26923e-09)
(1.02251e-08 0.000703293 5.67677e-11)
(-1.18373e-08 -1.32158e-08 0.000703245)
(0.000624982 -2.52148e-07 -6.30174e-09)
(9.1394e-09 0.000703278 5.98711e-11)
(-1.21065e-08 -2.2e-08 0.000703229)
(0.000624977 -3.24919e-07 -8.39589e-09)
(8.06135e-09 0.000703268 1.22367e-11)
(-1.31844e-08 -3.1257e-08 0.000703218)
(0.000624973 -3.95046e-07 -1.06582e-08)
(6.76667e-09 0.000703261 -1.11669e-10)
(-1.50462e-08 -4.15594e-08 0.00070321)
(0.000624968 -4.64283e-07 -1.31883e-08)
(4.94733e-09 0.000703258 -3.49832e-10)
(-1.77194e-08 -5.3474e-08 0.000703205)
(0.000624965 -5.34223e-07 -1.60799e-08)
(2.1743e-09 0.000703257 -7.57696e-10)
(-2.12767e-08 -6.75928e-08 0.000703204)
(0.000624963 -6.06305e-07 -1.94207e-08)
(-2.1561e-09 0.000703259 -1.41111e-09)
(-2.58334e-08 -8.45553e-08 0.000703208)
(0.000624963 -6.81762e-07 -2.32924e-08)
(-8.89628e-09 0.000703263 -2.40536e-09)
(-3.15465e-08 -1.05059e-07 0.000703216)
(0.000624967 -7.61485e-07 -2.77719e-08)
(-1.92402e-08 0.000703267 -3.83306e-09)
(-3.86147e-08 -1.29849e-07 0.00070323)
(0.000624975 -8.45731e-07 -3.29316e-08)
(-3.47944e-08 0.000703271 -5.69714e-09)
(-4.72611e-08 -1.59652e-07 0.000703252)
(0.000624988 -9.33515e-07 -3.88114e-08)
(-5.74634e-08 0.000703273 -7.63301e-09)
(-5.76258e-08 -1.94972e-07 0.000703282)
(0.000625005 -1.02129e-06 -4.52322e-08)
(-8.84867e-08 0.000703266 -8.12031e-09)
(-6.92662e-08 -2.35512e-07 0.000703322)
(0.000625018 -1.10011e-06 -5.1112e-08)
(-1.24179e-07 0.00070324 -2.74608e-09)
(-7.92049e-08 -2.78738e-07 0.000703366)
(0.000625009 -1.15191e-06 -5.38689e-08)
(-1.40009e-07 0.000703173 1.59633e-08)
(-7.55919e-08 -3.17263e-07 0.000703386)
(-2.04947e-07 0.000703139 6.97443e-08)
(-1.32781e-07 -3.25149e-07 0.000703457)
(0.000624993 -8.70586e-08 -3.56554e-09)
(1.64709e-08 0.000703394 4.22949e-11)
(-1.9717e-08 -4.17463e-09 0.00070335)
(0.000624987 -1.67875e-07 -6.9646e-09)
(1.52244e-08 0.000703373 1.12237e-10)
(-1.93285e-08 -1.24297e-08 0.000703328)
(0.000624981 -2.41927e-07 -1.02714e-08)
(1.3739e-08 0.000703351 1.41491e-10)
(-1.97332e-08 -2.06523e-08 0.000703306)
(0.000624975 -3.11263e-07 -1.36682e-08)
(1.23456e-08 0.000703335 1.06483e-10)
(-2.14375e-08 -2.92582e-08 0.000703289)
(0.000624969 -3.77662e-07 -1.73237e-08)
(1.07484e-08 0.000703325 -2.30099e-11)
(-2.43919e-08 -3.87516e-08 0.000703278)
(0.000624963 -4.42691e-07 -2.13929e-08)
(8.5551e-09 0.000703319 -2.92572e-10)
(-2.86248e-08 -4.96153e-08 0.000703272)
(0.000624957 -5.07735e-07 -2.60154e-08)
(5.23659e-09 0.000703317 -7.6743e-10)
(-3.42268e-08 -6.23282e-08 0.00070327)
(0.000624952 -5.73985e-07 -3.13106e-08)
(7.91968e-11 0.000703319 -1.53443e-09)
(-4.13348e-08 -7.73662e-08 0.000703273)
(0.000624946 -6.42337e-07 -3.73654e-08)
(-7.87255e-09 0.000703324 -2.69674e-09)
(-5.01093e-08 -9.51749e-08 0.00070328)
(0.00062494 -7.13166e-07 -4.42121e-08)
(-1.98479e-08 0.000703329 -4.33866e-09)
(-6.06895e-08 -1.1609e-07 0.000703292)
(0.000624934 -7.85819e-07 -5.17813e-08)
(-3.72644e-08 0.000703332 -6.41045e-09)
(-7.30785e-08 -1.40151e-07 0.000703306)
(0.000624925 -8.57631e-07 -5.97856e-08)
(-6.12623e-08 0.000703329 -8.39706e-09)
(-8.68259e-08 -1.66709e-07 0.000703321)
(0.000624908 -9.22233e-07 -6.74046e-08)
(-9.11012e-08 0.000703312 -8.47438e-09)
(-1.00115e-07 -1.93707e-07 0.00070333)
(0.000624873 -9.67773e-07 -7.26184e-08)
(-1.19553e-07 0.000703265 -1.90538e-09)
(-1.07266e-07 -2.16745e-07 0.000703319)
(0.000624813 -9.80864e-07 -7.28026e-08)
(-1.21619e-07 0.000703166 1.83267e-08)
(-9.323e-08 -2.29655e-07 0.000703261)
(-1.72816e-07 0.000703107 7.68072e-08)
(-1.17558e-07 -2.24387e-07 0.000703275)
(0.000624993 -8.19651e-08 -4.83883e-09)
(2.15552e-08 0.000703476 6.98351e-11)
(-2.68113e-08 -3.80645e-09 0.000703436)
(0.000624986 -1.57903e-07 -9.44459e-09)
(2.0023e-08 0.000703448 1.92881e-10)
(-2.62487e-08 -1.13172e-08 0.000703408)
(0.00062498 -2.27186e-07 -1.39114e-08)
(1.82821e-08 0.000703419 2.71498e-10)
(-2.67292e-08 -1.87491e-08 0.000703379)
(0.000624973 -2.9161e-07 -1.84795e-08)
(1.67902e-08 0.000703398 2.83633e-10)
(-2.89344e-08 -2.64452e-08 0.000703357)
(0.000624966 -3.52705e-07 -2.33686e-08)
(1.52158e-08 0.000703383 2.00965e-10)
(-3.27807e-08 -3.48193e-08 0.000703343)
(0.000624959 -4.11792e-07 -2.87753e-08)
(1.3139e-08 0.000703375 -1.92912e-11)
(-3.82788e-08 -4.42478e-08 0.000703334)
(0.00062495 -4.69999e-07 -3.48681e-08)
(1.00208e-08 0.000703372 -4.37646e-10)
(-4.55049e-08 -5.50753e-08 0.00070333)
(0.000624941 -5.28247e-07 -4.1772e-08)
(5.1681e-09 0.000703372 -1.13269e-09)
(-5.45656e-08 -6.7599e-08 0.000703331)
(0.000624929 -5.87163e-07 -4.95393e-08)
(-2.28999e-09 0.000703376 -2.19025e-09)
(-6.55413e-08 -8.20219e-08 0.000703336)
(0.000624915 -6.46883e-07 -5.809e-08)
(-1.33745e-08 0.000703381 -3.66326e-09)
(-7.83765e-08 -9.83479e-08 0.000703342)
(0.000624896 -7.06627e-07 -6.70975e-08)
(-2.9083e-08 0.000703382 -5.45175e-09)
(-9.26482e-08 -1.16179e-07 0.000703347)
(0.000624869 -7.63946e-07 -7.57671e-08)
(-4.98422e-08 0.000703375 -6.98584e-09)
(-1.07055e-07 -1.34369e-07 0.000703345)
(0.000624831 -8.1367e-07 -8.24334e-08)
(-7.40956e-08 0.000703349 -6.47114e-09)
(-1.18308e-07 -1.50569e-07 0.000703326)
(0.000624775 -8.47655e-07 -8.41554e-08)
(-9.50833e-08 0.000703286 4.55752e-10)
(-1.18948e-07 -1.61121e-07 0.000703275)
(0.00062471 -8.59669e-07 -7.89194e-08)
(-9.4148e-08 0.000703168 1.99236e-08)
(-9.4689e-08 -1.63013e-07 0.000703173)
(-1.27663e-07 0.000703089 7.29249e-08)
(-1.00532e-07 -1.50719e-07 0.000703135)
(0.000624993 -7.55151e-08 -5.97125e-09)
(2.61925e-08 0.000703551 1.04599e-10)
(-3.31757e-08 -3.35329e-09 0.000703515)
(0.000624986 -1.45293e-07 -1.16436e-08)
(2.44648e-08 0.000703517 2.97015e-10)
(-3.24248e-08 -9.94987e-09 0.000703482)
(0.00062498 -2.08583e-07 -1.71226e-08)
(2.26222e-08 0.000703481 4.47143e-10)
(-3.2909e-08 -1.64167e-08 0.000703446)
(0.000624972 -2.66872e-07 -2.26942e-08)
(2.1251e-08 0.000703454 5.39109e-10)
(-3.54615e-08 -2.30125e-08 0.00070342)
(0.000624965 -3.21396e-07 -2.86159e-08)
(2.00148e-08 0.000703436 5.53258e-10)
(-3.99565e-08 -3.0049e-08 0.000703402)
(0.000624956 -3.73183e-07 -3.5112e-08)
(1.8515e-08 0.000703424 4.58254e-10)
(-4.637e-08 -3.77885e-08 0.00070339)
(0.000624945 -4.23074e-07 -4.23636e-08)
(1.62697e-08 0.000703418 2.09776e-10)
(-5.47382e-08 -4.64411e-08 0.000703384)
(0.000624932 -4.71727e-07 -5.04844e-08)
(1.26944e-08 0.000703417 -2.47589e-10)
(-6.51021e-08 -5.61451e-08 0.000703382)
(0.000624916 -5.1959e-07 -5.94736e-08)
(7.10281e-09 0.000703419 -9.68166e-10)
(-7.74204e-08 -6.69229e-08 0.000703383)
(0.000624894 -5.66842e-07 -6.91234e-08)
(-1.24462e-09 0.000703422 -1.96714e-09)
(-9.14078e-08 -7.86003e-08 0.000703383)
(0.000624866 -6.1326e-07 -7.88482e-08)
(-1.29843e-08 0.000703422 -3.1184e-09)
(-1.06225e-07 -9.06779e-08 0.00070338)
(0.000624829 -6.57971e-07 -8.73811e-08)
(-2.82629e-08 0.000703412 -3.89568e-09)
(-1.19877e-07 -1.02158e-07 0.000703365)
(0.000624778 -6.98992e-07 -9.23255e-08)
(-4.5879e-08 0.000703382 -2.76354e-09)
(-1.2813e-07 -1.11404e-07 0.000703328)
(0.000624715 -7.32499e-07 -9.00278e-08)
(-6.14185e-08 0.000703312 3.93166e-09)
(-1.22913e-07 -1.16346e-07 0.000703252)
(0.000624649 -7.52703e-07 -7.9222e-08)
(-6.27741e-08 0.000703183 2.13499e-08)
(-9.19358e-08 -1.15841e-07 0.000703126)
(-8.64294e-08 0.000703094 6.78823e-08)
(-8.41571e-08 -1.06592e-07 0.000703062)
(0.000624993 -6.79646e-08 -6.93845e-09)
(3.01779e-08 0.000703619 1.44233e-10)
(-3.86832e-08 -2.84226e-09 0.000703588)