/*--------------------------------*- C++ -*----------------------------------*\
| =========                 |                                                 |
| \\      /  F ield         | foam-extend: Open Source CFD                    |
|  \\    /   O peration     | Version:     3.1                                |
|   \\  /    A nd           | Web:         http://www.extend-project.de       |
|    \\/     M anipulation  |                                                 |
\*---------------------------------------------------------------------------*/
FoamFile
{
    version     2.0;
    format      ascii;
    class       volVectorField;
    location    "0.1";
    object      U;
}
// * * * * * * * * * * * * * * * * * * * * * * * * * * * * * * * * * * * * * //

dimensions      [0 1 -1 0 0 0 0];

internalField   nonuniform List<vector> 
14592
(
(0.000954214 -0.000464025 -0.000562639)
(0.00120029 -0.000281433 -0.000592574)
(0.0014549 -0.000152792 -0.000520308)
(0.00159359 -8.67557e-05 -0.000442934)
(0.00166671 -5.02676e-05 -0.000373856)
(0.00170572 -2.86877e-05 -0.000315836)
(0.00172458 -1.50757e-05 -0.000269493)
(0.0017305 -5.7538e-06 -0.000234876)
(0.00172707 1.44799e-06 -0.000212156)
(0.00171554 8.02813e-06 -0.000202177)
(0.00169528 1.5303e-05 -0.000207175)
(0.0016633 2.48526e-05 -0.00023207)
(0.00161212 3.92577e-05 -0.000287163)
(0.00151772 6.42448e-05 -0.000393926)
(0.00132596 0.000115276 -0.000593951)
(0.00110955 0.00021213 -0.000842879)
(0.00154369 -0.000708681 -0.000718267)
(0.00171927 -0.000486403 -0.000758728)
(0.00191781 -0.000284162 -0.000661075)
(0.00203893 -0.000167174 -0.000559332)
(0.00210705 -9.85478e-05 -0.000470054)
(0.0021439 -5.66622e-05 -0.000395797)
(0.00216109 -2.9759e-05 -0.000336749)
(0.00216515 -1.11326e-05 -0.000292621)
(0.00215944 3.35152e-06 -0.000263377)
(0.0021451 1.66127e-05 -0.000249845)
(0.00212134 3.12114e-05 -0.000254517)
(0.0020851 5.01206e-05 -0.000283003)
(0.00202907 7.78306e-05 -0.000346998)
(0.00193099 0.000122847 -0.000469826)
(0.00174319 0.000204257 -0.000688374)
(0.00153571 0.000342181 -0.000889911)
(0.0020376 -0.000903375 -0.000793366)
(0.00208235 -0.00067683 -0.00082123)
(0.00214711 -0.000419795 -0.000703894)
(0.00219405 -0.000255413 -0.000588638)
(0.00222213 -0.00015331 -0.000490445)
(0.00223629 -8.87697e-05 -0.000410148)
(0.00224052 -4.6341e-05 -0.000346801)
(0.00223747 -1.64801e-05 -0.000299381)
(0.00222848 7.0075e-06 -0.000267318)
(0.00221383 2.86221e-05 -0.000250956)
(0.00219269 5.23132e-05 -0.000252194)
(0.00216291 8.25054e-05 -0.000275708)
(0.00211963 0.000125367 -0.000331401)
(0.00204732 0.000190899 -0.00043868)
(0.00191098 0.000296723 -0.000624587)
(0.00176112 0.000437544 -0.000763928)
(0.00248966 -0.000920948 -0.000864766)
(0.0024248 -0.000729611 -0.000877997)
(0.00236417 -0.000471186 -0.000740185)
(0.0023315 -0.000294118 -0.000611004)
(0.00231173 -0.000179062 -0.000503833)
(0.00229695 -0.000103912 -0.00041764)
(0.00228408 -5.32449e-05 -0.000350166)
(0.00227156 -1.6842e-05 -0.000299473)
(0.00225841 1.2267e-05 -0.000264286)
(0.0022438 3.92992e-05 -0.000244261)
(0.00222683 6.885e-05 -0.000240424)
(0.00220631 0.000105918 -0.000256067)
(0.00217989 0.000157061 -0.000298595)
(0.00213851 0.000231922 -0.000382584)
(0.00205927 0.000344818 -0.000525784)
(0.00197033 0.000471962 -0.000603368)
(0.0028715 -0.000813239 -0.000930566)
(0.00272513 -0.000667735 -0.000931843)
(0.00256464 -0.000442976 -0.000775212)
(0.00246287 -0.000281277 -0.000632618)
(0.00239854 -0.000172413 -0.000516504)
(0.00235547 -9.9205e-05 -0.00042427)
(0.00232536 -4.85573e-05 -0.000352441)
(0.00230316 -1.12681e-05 -0.000298179)
(0.00228581 1.92187e-05 -0.000259462)
(0.00227145 4.79492e-05 -0.000235198)
(0.00225905 7.93972e-05 -0.000225455)
(0.00224821 0.000118337 -0.000232035)
(0.00223864 0.000170789 -0.000259752)
(0.00222658 0.000245086 -0.000318428)
(0.00219866 0.000351817 -0.000417644)
(0.00216205 0.000452823 -0.000438987)
(0.00316662 -0.000626321 -0.000984713)
(0.00296329 -0.000525384 -0.000977279)
(0.00273011 -0.000353899 -0.000805313)
(0.0025751 -0.00022622 -0.000651347)
(0.00247478 -0.000137811 -0.000527391)
(0.00240811 -7.67463e-05 -0.00042968)
(0.00236332 -3.32877e-05 -0.000353754)
(0.00233288 -2.6996e-07 -0.000295993)
(0.0023121 2.76006e-05 -0.000253697)
(0.0022983 5.44992e-05 -0.000225062)
(0.00229034 8.41575e-05 -0.000209231)
(0.00228844 0.00012052 -0.000206577)
(0.00229397 0.000168479 -0.000219446)
(0.00230772 0.000234705 -0.000253194)
(0.0023249 0.000327009 -0.000309992)
(0.00233423 0.00039978 -0.000279223)
(0.0033668 -0.000389199 -0.00102279)
(0.00312751 -0.000329249 -0.00100968)
(0.00284738 -0.000222029 -0.000826942)
(0.00265682 -0.000140185 -0.000664738)
(0.00253178 -8.20274e-05 -0.000534921)
(0.00244863 -4.05672e-05 -0.000432953)
(0.00239359 -9.81446e-06 -0.000353676)
(0.00235754 1.48024e-05 -0.00029288)
(0.00233473 3.67679e-05 -0.000247326)
(0.00232193 5.88924e-05 -0.000214608)
(0.00231791 8.37003e-05 -0.000193072)
(0.00232338 0.000113821 -0.00018183)
(0.00234106 0.000152464 -0.000181017)
(0.00237602 0.000204041 -0.000191887)
(0.00243269 0.000273469 -0.000209599)
(0.00248466 0.000314115 -0.000130306)
(0.00346795 -0.000124141 -0.0010421)
(0.00321145 -0.000102414 -0.00102609)
(0.00290865 -6.50654e-05 -0.00083772)
(0.0027007 -3.55859e-05 -0.000671079)
(0.00256354 -1.33939e-05 -0.000537955)
(0.00247243 3.90793e-06 -0.000433406)
(0.00241266 1.84558e-05 -0.000351883)
(0.00237441 3.19631e-05 -0.000288822)
(0.00235141 4.58108e-05 -0.000240622)
(0.00234011 6.11602e-05 -0.000204453)
(0.00233925 7.90414e-05 -0.000178055)
(0.00234971 0.000100408 -0.000159562)
(0.00237507 0.000126154 -0.000147323)
(0.00242383 0.000156873 -0.000139132)
(0.00251043 0.000189377 -0.000124187)
(0.00260426 0.000173962 -5.20176e-06)
(0.00101097 -0.000496905 -0.000516582)
(0.00126472 -0.000301236 -0.000546711)
(0.00152223 -0.000163437 -0.000482781)
(0.00165613 -9.26877e-05 -0.000413393)
(0.00172093 -5.35789e-05 -0.000350894)
(0.00175037 -3.04248e-05 -0.000298023)
(0.00175928 -1.57706e-05 -0.000255573)
(0.00175504 -5.6468e-06 -0.000223787)
(0.00174093 2.3171e-06 -0.000202955)
(0.00171737 9.80497e-06 -0.000193884)
(0.00168211 1.8375e-05 -0.000198394)
(0.00162932 3.00227e-05 -0.000220029)
(0.00154645 4.81741e-05 -0.000265034)
(0.00140203 8.04666e-05 -0.000342793)
(0.00114023 0.000146433 -0.000456306)
(0.000881689 0.000260379 -0.000499066)
(0.00163989 -0.000758645 -0.000657562)
(0.00181544 -0.000520623 -0.000698858)
(0.00200917 -0.000303964 -0.000612758)
(0.00212065 -0.000178598 -0.000521658)
(0.00217679 -0.000105028 -0.000440962)
(0.00220091 -6.00751e-05 -0.000373336)
(0.00220529 -3.10996e-05 -0.000319266)
(0.00219655 -1.08573e-05 -0.000278746)
(0.00217759 5.17475e-06 -0.000251922)
(0.00214851 2.02824e-05 -0.000239597)
(0.00210668 3.74968e-05 -0.00024379)
(0.00204574 6.0557e-05 -0.000268506)
(0.00195287 9.53744e-05 -0.000320709)
(0.0017985 0.00015318 -0.000410049)
(0.00153567 0.000257016 -0.00053309)
(0.00128653 0.000410885 -0.000529229)
(0.00216858 -0.000966745 -0.000723504)
(0.00220374 -0.000724365 -0.000754396)
(0.00225375 -0.000448996 -0.0006512)
(0.00228533 -0.000272819 -0.00054823)
(0.00229819 -0.000163345 -0.000459624)
(0.00229767 -9.40572e-05 -0.00038658)
(0.00228796 -4.83341e-05 -0.000328609)
(0.00227149 -1.58509e-05 -0.000285066)
(0.00224906 1.01824e-05 -0.000255634)
(0.00221994 3.48427e-05 -0.000240692)
(0.00218161 6.28104e-05 -0.000241767)
(0.00212905 9.96429e-05 -0.000262141)
(0.00205277 0.000153439 -0.000307575)
(0.00193146 0.000237375 -0.000385587)
(0.00173168 0.000371873 -0.000488935)
(0.00154745 0.000528629 -0.000452171)
(0.00265268 -0.000985309 -0.000785827)
(0.00257051 -0.000780732 -0.000804295)
(0.00248621 -0.000503871 -0.000683285)
(0.00243246 -0.000314084 -0.000568106)
(0.00239404 -0.000190698 -0.000471562)
(0.00236256 -0.000109988 -0.00039325)
(0.00233466 -5.53401e-05 -0.000331539)
(0.00230833 -1.56814e-05 -0.000284987)
(0.00228192 1.66499e-05 -0.000252651)
(0.00225368 4.75598e-05 -0.000234314)
(0.00222128 8.25135e-05 -0.000230777)
(0.00218122 0.000127815 -0.000244282)
(0.00212747 0.000192135 -0.00027899)
(0.0020465 0.000288305 -0.000340107)
(0.00191625 0.000432464 -0.000418613)
(0.00179867 0.000573771 -0.000358604)
(0.00306162 -0.000869909 -0.000843298)
(0.00289224 -0.000714418 -0.000851614)
(0.00270104 -0.000473618 -0.00071421)
(0.00257327 -0.000300281 -0.000587255)
(0.00248715 -0.000183502 -0.000482793)
(0.00242548 -0.000104825 -0.000399073)
(0.00237932 -5.01234e-05 -0.000333407)
(0.00234299 -9.40116e-06 -0.000283561)
(0.00231269 2.45763e-05 -0.000247934)
(0.00228573 5.75553e-05 -0.000225655)
(0.00225992 9.49003e-05 -0.000216727)
(0.00223312 0.000142706 -0.000222275)
(0.00220227 0.000209075 -0.000244821)
(0.00216017 0.000305371 -0.000287405)
(0.00209329 0.000443493 -0.000340215)
(0.00203356 0.000557562 -0.000262061)
(0.0033777 -0.000669882 -0.000890632)
(0.00314739 -0.000562058 -0.000891565)
(0.00287839 -0.000378319 -0.000740788)
(0.00269361 -0.000241418 -0.000603833)
(0.00256899 -0.000146528 -0.000492413)
(0.00248217 -8.08203e-05 -0.000403773)
(0.00242053 -3.37691e-05 -0.000334371)
(0.00237577 2.43852e-06 -0.000281281)
(0.00234244 3.36811e-05 -0.000242302)
(0.00231713 6.47638e-05 -0.000215935)
(0.00229781 0.000100237 -0.000201414)
(0.00228349 0.000145269 -0.000198784)
(0.00227366 0.00020669 -0.000209007)
(0.00226655 0.000294011 -0.000233117)
(0.00225621 0.000416223 -0.000260903)
(0.00224772 0.000501001 -0.000167305)
(0.0035921 -0.000416258 -0.000923929)
(0.00332334 -0.00035223 -0.000920057)
(0.00300411 -0.00023732 -0.00075987)
(0.00278127 -0.000149512 -0.000615656)
(0.00263025 -8.70087e-05 -0.000499018)
(0.00252593 -4.22731e-05 -0.000406537)
(0.00245354 -8.80544e-06 -0.000334057)
(0.00240316 1.84144e-05 -0.000278135)
(0.00236829 4.33057e-05 -0.000236081)
(0.00234505 6.91763e-05 -0.00020587)
(0.0023316 9.92233e-05 -0.000186059)
(0.0023279 0.000137109 -0.000175732)
(0.00233567 0.000187737 -0.000174432)
(0.00235844 0.000258157 -0.000181309)
(0.00239884 0.000354838 -0.000185721)
(0.00243867 0.000407713 -7.80831e-05)
(0.00370045 -0.00013283 -0.000940783)
(0.0034133 -0.000109614 -0.000934446)
(0.00306983 -6.95373e-05 -0.000769332)
(0.00282842 -3.78193e-05 -0.000621192)
(0.00266449 -1.38279e-05 -0.00050159)
(0.00255178 5.04729e-06 -0.000406753)
(0.00247457 2.1161e-05 -0.000332185)
(0.00242218 3.64485e-05 -0.000274121)
(0.00238764 5.25408e-05 -0.000229544)
(0.00236689 7.09213e-05 -0.000196047)
(0.00235824 9.30855e-05 -0.000171666)
(0.00236231 0.000120729 -0.00015472)
(0.00238245 0.000156023 -0.000143552)
(0.00242705 0.000201738 -0.000135608)
(0.00250962 0.00025675 -0.00011987)
(0.00260016 0.000256044 -2.67107e-06)
(0.00106012 -0.000525187 -0.000457695)
(0.00132086 -0.000318337 -0.000486222)
(0.0015814 -0.000172669 -0.000431317)
(0.00171153 -9.78514e-05 -0.000371075)
(0.00176931 -5.64666e-05 -0.000316431)
(0.00179044 -3.19334e-05 -0.000269926)
(0.00179056 -1.63553e-05 -0.000232392)
(0.00177727 -5.51161e-06 -0.000204142)
(0.00175365 3.14101e-06 -0.000185451)
(0.00171961 1.14428e-05 -0.000176887)
(0.00167205 2.11432e-05 -0.000179572)
(0.00160403 3.45305e-05 -0.000195371)
(0.00150212 5.55319e-05 -0.000226784)
(0.00133709 9.26044e-05 -0.000275454)
(0.00106566 0.000166259 -0.000332313)
(0.000817265 0.000287242 -0.000314417)
(0.00172295 -0.000801664 -0.000581289)
(0.00189904 -0.000550204 -0.000620738)
(0.00208934 -0.000321149 -0.000546988)
(0.00219298 -0.000188548 -0.00046799)
(0.00223897 -0.000110682 -0.00039749)
(0.00225205 -6.30385e-05 -0.000338036)
(0.00224513 -3.22251e-05 -0.000290244)
(0.00222498 -1.05328e-05 -0.000254241)
(0.00219421 6.89473e-06 -0.000230188)
(0.00215231 2.36491e-05 -0.000218631)
(0.00209562 4.31257e-05 -0.00022078)
(0.00201656 6.95878e-05 -0.000238688)
(0.0019015 0.000109755 -0.00027501)
(0.00172406 0.000175964 -0.000330805)
(0.00145305 0.000291545 -0.000391174)
(0.00122069 0.000449337 -0.000334109)
(0.00228149 -0.00102137 -0.000637627)
(0.00230902 -0.0007655 -0.000668641)
(0.00234711 -0.00047436 -0.000580414)
(0.00236597 -0.000287988 -0.000491277)
(0.0023659 -0.000172099 -0.000413969)
(0.00235268 -9.86434e-05 -0.000349813)
(0.00233069 -4.9995e-05 -0.000298605)
(0.00230228 -1.5157e-05 -0.000259938)
(0.00226787 1.31706e-05 -0.000233582)
(0.0022261 4.0542e-05 -0.000219741)
(0.00217355 7.2197e-05 -0.000219255)
(0.00210416 0.000114452 -0.000233692)
(0.00200789 0.000176461 -0.000265026)
(0.00186674 0.000272561 -0.000313337)
(0.00166194 0.000422209 -0.000362121)
(0.00149536 0.000578669 -0.000283523)
(0.00279309 -0.00104084 -0.00069059)
(0.00269669 -0.000825014 -0.000711274)
(0.00259287 -0.000532284 -0.000607942)
(0.00252149 -0.000331487 -0.000508391)
(0.00246722 -0.000200844 -0.000424272)
(0.00242131 -0.000115243 -0.00035556)
(0.00238021 -5.70535e-05 -0.000301087)
(0.00234159 -1.44648e-05 -0.000259772)
(0.00230336 2.0776e-05 -0.000230863)
(0.00226315 5.51449e-05 -0.000214084)
(0.00221785 9.47713e-05 -0.000209736)
(0.00216314 0.000146829 -0.000218717)
(0.00209268 0.000221113 -0.000242158)
(0.00199578 0.0003315 -0.000279304)
(0.00186235 0.000492259 -0.000313918)
(0.00175997 0.000630562 -0.000222723)
(0.0032253 -0.00091884 -0.000739446)
(0.00303682 -0.000754885 -0.000751683)
(0.00282009 -0.000500267 -0.000634434)
(0.0026705 -0.000316844 -0.000524832)
(0.00256584 -0.000193156 -0.00043391)
(0.00248812 -0.000109656 -0.000360514)
(0.00242789 -5.13366e-05 -0.000302583)
(0.00237901 -7.51472e-06 -0.000258364)
(0.00233716 2.96253e-05 -0.000226556)
(0.00229906 6.64097e-05 -0.000206356)
(0.00226189 0.000108884 -0.000197478)
(0.00222289 0.000164022 -0.000200101)
(0.0021788 0.000241024 -0.000214521)
(0.00212461 0.000352179 -0.000239327)
(0.0020557 0.000507161 -0.000259426)
(0.0020079 0.000617323 -0.000160568)
(0.00355938 -0.000707505 -0.000779706)
(0.0033066 -0.000593856 -0.000785811)
(0.00300771 -0.000399551 -0.000657201)
(0.00279789 -0.000254645 -0.00053905)
(0.0026526 -0.000154085 -0.000442141)
(0.00254841 -8.42691e-05 -0.000364474)
(0.00247202 -3.39969e-05 -0.000303265)
(0.00241456 5.10515e-06 -0.000256176)
(0.00237003 3.94181e-05 -0.000221404)
(0.00233448 7.42703e-05 -0.000197642)
(0.00230538 0.000114841 -0.000184035)
(0.00228131 0.000167115 -0.000180072)
(0.00226165 0.00023895 -0.000185261)
(0.00224613 0.000340726 -0.000197642)
(0.00223466 0.000479302 -0.000203591)
(0.00223471 0.000560293 -9.96158e-05)
(0.003786 -0.000439616 -0.000808027)
(0.00349265 -0.000372135 -0.000810143)
(0.00314075 -0.000250586 -0.000673532)
(0.00289074 -0.00015759 -0.000549165)
(0.00271761 -9.12679e-05 -0.000447754)
(0.00259504 -4.36168e-05 -0.000366738)
(0.00250751 -7.69582e-06 -0.000302816)
(0.00244444 2.19049e-05 -0.000253208)
(0.00239879 4.94802e-05 -0.000215703)
(0.00236621 7.87531e-05 -0.00018857)
(0.00234448 0.00011344 -0.000170456)
(0.00233333 0.000157901 -0.00016023)
(0.00233447 0.00021796 -0.000156683)
(0.00235242 0.000301567 -0.000157321)
(0.00239293 0.000413663 -0.000149911)
(0.00243846 0.000464335 -4.18771e-05)
(0.00390054 -0.00014029 -0.000822341)
(0.00358781 -0.000115797 -0.000822402)
(0.00321034 -7.33533e-05 -0.000681591)
(0.00294076 -3.96711e-05 -0.000553851)
(0.00275407 -1.40763e-05 -0.000449866)
(0.00262276 6.22577e-06 -0.00036678)
(0.00253033 2.37819e-05 -0.000300998)
(0.00246544 4.07233e-05 -0.000249467)
(0.00242061 5.88996e-05 -0.000209702)
(0.00239136 8.00649e-05 -0.000179663)
(0.00237575 0.000106078 -0.000157613)
(0.00237434 0.000139145 -0.000141925)
(0.00239073 0.000182164 -0.000130762)
(0.00243414 0.000238791 -0.000121087)
(0.00251966 0.000307459 -0.000102014)
(0.00261572 0.000308851 6.68397e-06)
(0.00110139 -0.000548811 -0.000388287)
(0.00136823 -0.000332663 -0.000413687)
(0.00163165 -0.000180425 -0.000368279)
(0.00175886 -0.0001022 -0.000318032)
(0.00181088 -5.89005e-05 -0.000272199)
(0.00182506 -3.31999e-05 -0.000232994)
(0.00181774 -1.68338e-05 -0.000201192)
(0.00179676 -5.37244e-06 -0.000177095)
(0.00176515 3.86892e-06 -0.000160901)
(0.00172259 1.28525e-05 -0.000152916)
(0.00166568 2.34623e-05 -0.000153658)
(0.00158731 3.81634e-05 -0.00016379)
(0.00147469 6.11293e-05 -0.000183702)
(0.0013017 0.000101107 -0.000212068)
(0.00103282 0.000178809 -0.000239589)
(0.000794765 0.000303297 -0.000211601)
(0.00179256 -0.000837617 -0.000492284)
(0.00196944 -0.000574995 -0.000527616)
(0.00215733 -0.000335592 -0.000466748)
(0.00225472 -0.000196928 -0.000400915)
(0.00229238 -0.000115446 -0.000341816)
(0.00229621 -6.55256e-05 -0.000291716)
(0.00227974 -3.31447e-05 -0.000251236)
(0.00224989 -1.02094e-05 -0.000220538)
(0.00220921 8.40872e-06 -0.000199724)
(0.00215685 2.65384e-05 -0.000189053)
(0.00208881 4.78313e-05 -0.000189041)
(0.0019974 7.68687e-05 -0.000200353)
(0.00186981 0.000120769 -0.00022324)
(0.00168365 0.00019224 -0.000255561)
(0.00141756 0.000314271 -0.000283503)
(0.00120042 0.000473644 -0.000224981)
(0.00237599 -0.00106705 -0.000538704)
(0.00239753 -0.000799997 -0.000567388)
(0.00242617 -0.000495684 -0.000494674)
(0.00243471 -0.000300765 -0.00042049)
(0.002424 -0.000179475 -0.000355752)
(0.00240015 -0.000102488 -0.000301732)
(0.00236778 -5.13433e-05 -0.000258388)
(0.00232922 -1.44862e-05 -0.000225447)
(0.00228473 1.57981e-05 -0.0002027)
(0.00223261 4.5433e-05 -0.000190144)
(0.00216913 8.00513e-05 -0.000188028)
(0.00208816 0.00012643 -0.000196716)
(0.00198057 0.000194235 -0.000216093)
(0.00183222 0.000298127 -0.000243559)
(0.00163363 0.000456314 -0.000264293)
(0.00148279 0.000610885 -0.000189782)
(0.00291053 -0.00108731 -0.000582143)
(0.00280265 -0.000862174 -0.000602501)
(0.00268304 -0.000556184 -0.000517413)
(0.0025973 -0.00034615 -0.000434661)
(0.00252993 -0.000209389 -0.000364296)
(0.00247196 -0.000119638 -0.000306492)
(0.00241971 -5.84208e-05 -0.000260419)
(0.00237065 -1.33163e-05 -0.00022526)
(0.00232244 2.44095e-05 -0.000200388)
(0.00227237 6.16729e-05 -0.000185437)
(0.00221705 0.00010507 -0.000180287)
(0.00215214 0.000162299 -0.000184896)
(0.00207214 0.000243685 -0.000198746)
(0.00196974 0.000363283 -0.000218997)
(0.00184261 0.00053339 -0.000231185)
(0.00175439 0.000667009 -0.000147274)
(0.00336214 -0.000959805 -0.00062222)
(0.00315815 -0.000788859 -0.000635764)
(0.00292065 -0.000522688 -0.000539267)
(0.00275319 -0.000330796 -0.000448239)
(0.00263321 -0.000201274 -0.00037225)
(0.00254208 -0.000113675 -0.00031055)
(0.00246998 -5.22551e-05 -0.000261585)
(0.00241044 -5.76517e-06 -0.000223991)
(0.0023588 3.40832e-05 -0.000196705)
(0.00231144 7.40636e-05 -0.000178962)
(0.00226532 0.000120699 -0.00017024)
(0.00221767 0.000181491 -0.000170072)
(0.00216594 0.000266142 -0.000177562)
(0.00210777 0.00038701 -0.000189797)
(0.00204448 0.000551451 -0.000193372)
(0.0020083 0.000655495 -0.000104143)
(0.00371124 -0.000739008 -0.000655259)
(0.00344014 -0.000620552 -0.000663861)
(0.00311688 -0.000417408 -0.000558044)
(0.00288652 -0.000265771 -0.000459971)
(0.00272414 -0.000160414 -0.000379023)
(0.00260544 -8.70974e-05 -0.000313766)
(0.00251662 -3.40562e-05 -0.000262052)
(0.00244837 7.54622e-06 -0.000222046)
(0.00239432 4.44986e-05 -0.000192284)
(0.00235018 8.25317e-05 -0.000171625)
(0.00231324 0.000127264 -0.000159155)
(0.00228208 0.00018517 -0.000154003)
(0.00225662 0.000264572 -0.000154933)
(0.00223854 0.000375902 -0.000159042)
(0.00223174 0.000523733 -0.000154276)
(0.00224058 0.000598393 -6.20681e-05)
(0.00394806 -0.000459162 -0.000678498)
(0.00363465 -0.00038883 -0.000683888)
(0.00325605 -0.00026172 -0.0005715)
(0.00298375 -0.000164353 -0.000468299)
(0.00279234 -9.47909e-05 -0.000383614)
(0.00265455 -4.46423e-05 -0.000315558)
(0.00255426 -6.60002e-06 -0.000261561)
(0.00248041 2.50691e-05 -0.000219429)
(0.00242556 5.49642e-05 -0.000187376)
(0.00238508 8.7126e-05 -0.000163944)
(0.00235658 0.000125633 -0.000147878)
(0.00233981 0.000175261 -0.000137951)
(0.00233693 0.000242261 -0.000132613)
(0.00235373 0.000334724 -0.000128961)
(0.00239826 0.00045576 -0.000116285)
(0.00245006 0.000501334 -2.21801e-05)
(0.00406777 -0.0001465 -0.000690226)
(0.00373415 -0.000120943 -0.000693955)
(0.0033289 -7.65076e-05 -0.000578113)
(0.0030362 -4.11585e-05 -0.00047212)
(0.00283069 -1.41876e-05 -0.00038529)
(0.00268387 7.35454e-06 -0.000315492)
(0.00257863 2.61756e-05 -0.000259918)
(0.00250313 4.45695e-05 -0.000216153)
(0.0024495 6.45619e-05 -0.000182195)
(0.002413 8.81124e-05 -0.000156357)
(0.00239157 0.000117329 -0.000137126)
(0.00238585 0.000154721 -0.000122987)
(0.00239987 0.000203528 -0.000112116)
(0.00244378 0.000267647 -0.000101554)
(0.00253397 0.000344536 -8.19732e-05)
(0.00263564 0.00034422 1.09993e-05)
(0.0011346 -0.000567747 -0.000310495)
(0.00140648 -0.000344174 -0.000331507)
(0.00167241 -0.00018667 -0.000295928)
(0.00179745 -0.000105706 -0.000256292)
(0.00184493 -6.08637e-05 -0.000219979)
(0.00185355 -3.4218e-05 -0.000188787)
(0.00184024 -1.72112e-05 -0.000163369)
(0.00181307 -5.24716e-06 -0.000143974)
(0.00177513 4.46899e-06 -0.000130717)
(0.00172604 1.39891e-05 -0.00012371)
(0.00166237 2.52858e-05 -0.000123078)
(0.00157728 4.09247e-05 -0.000128831)
(0.00145882 6.51934e-05 -0.000140473)
(0.00128314 0.000106944 -0.000156038)
(0.00101839 0.000186971 -0.000168559)
(0.000787087 0.000313559 -0.000143071)
(0.00184848 -0.000866433 -0.00039316)
(0.00202621 -0.00059491 -0.00042252)
(0.00221243 -0.000347213 -0.000374889)
(0.00230503 -0.00020368 -0.000322986)
(0.00233609 -0.000119285 -0.000276178)
(0.00233253 -6.75228e-05 -0.000236329)
(0.00230836 -3.38686e-05 -0.000203982)
(0.00227073 -9.92314e-06 -0.000179285)
(0.00222217 9.65339e-06 -0.000162269)
(0.00216177 2.88638e-05 -0.000152987)
(0.00208553 5.15297e-05 -0.00015151)
(0.00198605 8.24145e-05 -0.00015776)
(0.00185162 0.000128822 -0.000170997)
(0.00166272 0.00020357 -0.000188507)
(0.00140281 0.000329367 -0.000200085)
(0.00119558 0.000489699 -0.000151934)
(0.00245183 -0.00110367 -0.000429435)
(0.0024688 -0.000827709 -0.000453794)
(0.00249016 -0.000512842 -0.000396949)
(0.00249066 -0.000311057 -0.000338519)
(0.00247151 -0.000185415 -0.000287288)
(0.00243917 -0.000105572 -0.000244351)
(0.00239843 -5.23988e-05 -0.000209739)
(0.00235171 -1.39012e-05 -0.000183263)
(0.0022992 1.79575e-05 -0.000164723)
(0.00223908 4.93718e-05 -0.000153976)
(0.00216764 8.62355e-05 -0.000150916)
(0.00207905 0.00013559 -0.000155279)
(0.00196528 0.000207334 -0.00016613)
(0.00181496 0.00031616 -0.000180515)
(0.00162328 0.000479372 -0.000187469)
(0.00148285 0.00063247 -0.000127493)
(0.00300472 -0.00112458 -0.000463254)
(0.00288789 -0.000892039 -0.000481227)
(0.00275597 -0.000575419 -0.000414747)
(0.00265892 -0.000357962 -0.000349628)
(0.00258117 -0.000216267 -0.000293991)
(0.00251356 -0.000123155 -0.000248081)
(0.00245232 -5.94761e-05 -0.000211319)
(0.00239486 -1.23255e-05 -0.000183096)
(0.00233867 2.74023e-05 -0.000162897)
(0.00228093 6.69461e-05 -0.00015032)
(0.00221823 0.000113211 -0.000145016)
(0.00214654 0.000174196 -0.000146488)
(0.00206131 0.000260449 -0.00015362)
(0.0019577 0.000385933 -0.000163418)
(0.00183736 0.000561507 -0.000165076)
(0.00175883 0.00069138 -9.78464e-05)
(0.00347187 -0.00099267 -0.000494462)
(0.00325571 -0.000816173 -0.000507204)
(0.00300191 -0.000540736 -0.000431836)
(0.00282036 -0.000342031 -0.00036025)
(0.00268823 -0.0002078 -0.000300207)
(0.00258636 -0.000116876 -0.000251234)
(0.00250471 -5.29314e-05 -0.000212191)
(0.00243657 -4.26784e-06 -0.000182048)
(0.00237707 3.7767e-05 -0.000159964)
(0.00232246 8.02728e-05 -0.000145252)
(0.00226966 0.000130089 -0.0001373)
(0.00221614 0.000195014 -0.000135374)
(0.00216019 0.000284946 -0.000138206)
(0.0021014 0.000412058 -0.000142892)
(0.00204418 0.000581974 -0.000139291)
(0.00201624 0.000680806 -6.78004e-05)
(0.00383299 -0.000764282 -0.000520197)
(0.0035475 -0.000642014 -0.000529149)
(0.00320506 -0.000431777 -0.000446516)
(0.00295849 -0.000274721 -0.000369422)
(0.00278252 -0.000165486 -0.000305489)
(0.00265222 -8.93236e-05 -0.000253714)
(0.0025534 -3.40214e-05 -0.000212499)
(0.00247643 9.6232e-06 -0.000180453)
(0.00241471 4.87121e-05 -0.000156432)
(0.00236378 8.9268e-05 -0.000139483)
(0.00232089 0.000137198 -0.000128742)
(0.00228481 0.000199249 -0.00012325)
(0.0022561 0.000283917 -0.000121618)
(0.00223787 0.000401436 -0.000121099)
(0.00223615 0.000554623 -0.000112455)
(0.00225149 0.000623596 -3.85892e-05)
(0.00407798 -0.000474834 -0.000538298)
(0.00374878 -0.000402239 -0.000544786)
(0.00334917 -0.000270664 -0.000457029)
(0.00305925 -0.000169771 -0.000375919)
(0.00285332 -9.75829e-05 -0.000309051)
(0.00270334 -4.53974e-05 -0.000255067)
(0.00259278 -5.61569e-06 -0.000212044)
(0.00251022 2.77495e-05 -0.000178315)
(0.00244795 5.95293e-05 -0.000152497)
(0.00240115 9.39929e-05 -0.000133414)
(0.00236741 0.000135453 -0.000119983)
(0.00234663 0.000188915 -0.000111054)
(0.00234144 0.00026079 -0.000105127)
(0.00235861 0.000359053 -9.9603e-05)
(0.00240739 0.000485351 -8.61823e-05)
(0.00246406 0.000525979 -1.09435e-05)
(0.00420183 -0.000151458 -0.000547421)
(0.00385176 -0.000125048 -0.000552631)
(0.00342464 -7.90077e-05 -0.000462177)
(0.00311366 -4.23066e-05 -0.000378877)
(0.0028932 -1.42103e-05 -0.000310316)
(0.00273399 8.35404e-06 -0.000254952)
(0.00261843 2.82225e-05 -0.000210672)
(0.00253435 4.78158e-05 -0.000175645)
(0.00247358 6.92921e-05 -0.000148328)
(0.00243124 9.47544e-05 -0.000127385)
(0.00240522 0.000126468 -0.000111573)
(0.00239631 0.0001671 -9.95904e-05)
(0.00240892 0.000220017 -8.98394e-05)
(0.00245394 0.000289107 -7.9825e-05)
(0.00254848 0.000370944 -6.22908e-05)
(0.00265464 0.000368038 1.16999e-05)
(0.00115965 -0.000582003 -0.000226295)
(0.00143537 -0.000352882 -0.000241873)
(0.00170329 -0.000191404 -0.000216404)
(0.00182679 -0.000108368 -0.000187831)
(0.00187091 -6.2355e-05 -0.00016155)
(0.00187537 -3.49909e-05 -0.000138902)
(0.00185756 -1.7496e-05 -0.000120377)
(0.00182577 -5.1496e-06 -0.000106154)
(0.00178315 4.92362e-06 -9.62882e-05)
(0.00172937 1.48377e-05 -9.07814e-05)
(0.00166111 2.66215e-05 -8.95761e-05)
(0.00157182 4.28955e-05 -9.24372e-05)
(0.00145024 6.80016e-05 -9.86883e-05)
(0.00127389 0.000110837 -0.000106683)
(0.00101244 0.000192269 -0.000111908)
(0.000785106 0.000320192 -9.26619e-05)
(0.00189059 -0.000888079 -0.000286399)
(0.00206904 -0.000609916 -0.000308289)
(0.00225416 -0.000355978 -0.000274145)
(0.00234326 -0.000208775 -0.000236705)
(0.00236944 -0.000122183 -0.00020282)
(0.00236035 -6.9027e-05 -0.000173881)
(0.00233041 -3.44078e-05 -0.000150303)
(0.00228694 -9.69807e-06 -0.000132193)
(0.00223255 1.05958e-05 -0.00011954)
(0.00216638 3.05972e-05 -0.000112289)
(0.00208454 5.42351e-05 -0.000110314)
(0.00198 8.63739e-05 -0.000113272)
(0.00184193 0.000134403 -0.000120258)
(0.00165253 0.000211172 -0.000129058)
(0.00139739 0.000339237 -0.00013302)
(0.00119608 0.000500245 -9.8191e-05)
(0.00250885 -0.00113115 -0.000312302)
(0.0025225 -0.000848551 -0.00033079)
(0.00253857 -0.000525753 -0.000290051)
(0.00253315 -0.000318803 -0.00024794)
(0.00250774 -0.000189884 -0.000210886)
(0.00246903 -0.000107884 -0.000179728)
(0.00242202 -5.3177e-05 -0.000154516)
(0.00236918 -1.34409e-05 -0.000135123)
(0.00231071 1.95942e-05 -0.000121374)
(0.00224483 5.231e-05 -0.000113084)
(0.00216792 9.07655e-05 -0.000110015)
(0.00207452 0.000142149 -0.000111713)
(0.00195746 0.000216459 -0.000117168)
(0.00180707 0.000328352 -0.000124026)
(0.00162064 0.000494579 -0.000125067)
(0.00148656 0.000646759 -8.20659e-05)
(0.00307548 -0.00115256 -0.000336416)
(0.00295208 -0.000914509 -0.000350453)
(0.00281109 -0.000589899 -0.000302803)
(0.00270569 -0.000366854 -0.000255899)
(0.00262021 -0.000221439 -0.00021569)
(0.00254537 -0.000125788 -0.000182399)
(0.00247739 -6.02453e-05 -0.000155642)
(0.00241362 -1.15488e-05 -0.000134995)
(0.0023515 2.96765e-05 -0.000120067)
(0.00228819 7.08913e-05 -0.000110498)
(0.00222037 0.000119197 -0.000105901)
(0.00214434 0.000182756 -0.000105697)
(0.00205635 0.000272202 -0.000108794)
(0.00195302 0.000401365 -0.000112844)
(0.00183787 0.000580198 -0.000110638)
(0.00176542 0.000707537 -6.24259e-05)
(0.00355427 -0.00101735 -0.000358698)
(0.00332913 -0.000836729 -0.000369079)
(0.00306331 -0.000554326 -0.000315051)
(0.00287131 -0.000350489 -0.000263507)
(0.00273011 -0.000212704 -0.000220135)
(0.00262021 -0.000119265 -0.000184642)
(0.00253137 -5.34056e-05 -0.000156244)
(0.00245676 -3.09749e-06 -0.000134219)
(0.00239141 4.05752e-05 -0.000117949)
(0.00233149 8.49362e-05 -0.000106888)
(0.002274 0.000137023 -0.000100486)
(0.00221669 0.000204795 -9.80362e-05)
(0.00215848 0.000298212 -9.83951e-05)
(0.0021002 0.000429244 -9.93102e-05)
(0.00204768 0.00060239 -9.3911e-05)
(0.00202508 0.000697509 -4.24728e-05)
(0.0039244 -0.000783266 -0.000377081)
(0.00362827 -0.000658166 -0.000384814)
(0.00327166 -0.000442594 -0.000325574)
(0.00301304 -0.000281453 -0.000270075)
(0.00282695 -0.000169288 -0.000223908)
(0.00268796 -9.09687e-05 -0.000186398)
(0.00258161 -3.39493e-05 -0.000156435)
(0.00249808 1.12431e-05 -0.000133041)
(0.00243062 5.19355e-05 -0.000115391)
(0.00237468 9.43497e-05 -0.000102762)
(0.00232755 0.000144572 -9.44523e-05)
(0.00228822 0.000209493 -8.96376e-05)
(0.00225776 0.000297655 -8.71415e-05)
(0.00224018 0.000419078 -8.48558e-05)
(0.00224247 0.000575407 -7.64205e-05)
(0.00226217 0.000640164 -2.30888e-05)
(0.00417552 -0.000486601 -0.00039001)
(0.00383464 -0.000412323 -0.000396022)
(0.00341949 -0.000277387 -0.000333105)
(0.00311648 -0.000173834 -0.000274722)
(0.00289971 -9.96575e-05 -0.000226443)
(0.00274061 -4.59241e-05 -0.00018734)
(0.00262233 -4.81748e-06 -0.000156071)
(0.00253319 2.98365e-05 -0.000131465)
(0.00246534 6.30344e-05 -0.000112532)
(0.00241385 9.91989e-05 -9.84039e-05)
(0.00237631 0.000142785 -8.82481e-05)
(0.00235282 0.000198916 -8.11431e-05)
(0.00234636 0.000274045 -7.58873e-05)
(0.00236435 0.000375989 -7.0514e-05)
(0.00241654 0.000505395 -5.92177e-05)
(0.00247662 0.000542188 -4.77637e-06)
(0.00430247 -0.000155167 -0.000396522)
(0.00394024 -0.000128118 -0.000401637)
(0.00349694 -8.08668e-05 -0.000336784)
(0.00317237 -4.31412e-05 -0.000276824)
(0.00294077 -1.41875e-05 -0.000227325)
(0.00277226 9.15957e-06 -0.000187222)
(0.00264895 2.9831e-05 -0.000155043)
(0.00255839 5.03399e-05 -0.000129499)
(0.00249225 7.29365e-05 -0.000109493)
(0.00244552 9.98176e-05 -9.40546e-05)
(0.00241612 0.000133339 -8.22579e-05)