/*--------------------------------*- C++ -*----------------------------------*\
| =========                 |                                                 |
| \\      /  F ield         | foam-extend: Open Source CFD                    |
|  \\    /   O peration     | Version:     3.1                                |
|   \\  /    A nd           | Web:         http://www.extend-project.de       |
|    \\/     M anipulation  |                                                 |
\*---------------------------------------------------------------------------*/
FoamFile
{
    version     2.0;
    format      ascii;
    class       volVectorField;
    location    "1.4";
    object      cellMotionU;
}
// * * * * * * * * * * * * * * * * * * * * * * * * * * * * * * * * * * * * * //

dimensions      [0 1 -1 0 0 0 0];

internalField   nonuniform List<vector> 
14592
(
(-1.95973e-12 -9.39826e-11 -3.15464e-11)
(-4.62058e-12 -2.74492e-10 -9.30592e-11)
(-3.89583e-12 -4.45373e-10 -1.53969e-10)
(2.04564e-12 -6.15136e-10 -2.18699e-10)
(1.5294e-11 -7.91154e-10 -2.91273e-10)
(3.84659e-11 -9.80046e-10 -3.75484e-10)
(7.49573e-11 -1.18793e-09 -4.74896e-10)
(1.2918e-10 -1.42084e-09 -5.9256e-10)
(2.06723e-10 -1.68464e-09 -7.30241e-10)
(3.14369e-10 -1.98519e-09 -8.86711e-10)
(4.59944e-10 -2.32774e-09 -1.05439e-09)
(6.52386e-10 -2.71494e-09 -1.21296e-09)
(9.03905e-10 -3.1412e-09 -1.31782e-09)
(1.23857e-09 -3.57448e-09 -1.28115e-09)
(1.70505e-09 -3.90721e-09 -9.56515e-10)
(2.287e-09 -3.90822e-09 -2.78949e-10)
(-6.73064e-12 -2.77514e-10 -9.34895e-11)
(-1.64691e-11 -8.10609e-10 -2.75786e-10)
(-1.63214e-11 -1.31514e-09 -4.56269e-10)
(-1.1291e-12 -1.81619e-09 -6.48004e-10)
(3.49807e-11 -2.33529e-09 -8.62896e-10)
(9.93346e-11 -2.89157e-09 -1.11223e-09)
(2.0141e-10 -3.50282e-09 -1.40678e-09)
(3.53459e-10 -4.18627e-09 -1.75613e-09)
(5.70869e-10 -4.95868e-09 -2.16683e-09)
(8.71901e-10 -5.83714e-09 -2.63821e-09)
(1.27615e-09 -6.83731e-09 -3.15421e-09)
(1.80119e-09 -7.9717e-09 -3.66845e-09)
(2.45779e-09 -9.24148e-09 -4.07951e-09)
(3.24598e-09 -1.06169e-08 -4.19824e-09)
(4.14475e-09 -1.19817e-08 -3.74857e-09)
(4.97796e-09 -1.29708e-08 -2.69035e-09)
(-1.39335e-11 -4.49914e-10 -1.52691e-10)
(-3.57371e-11 -1.31392e-09 -4.50344e-10)
(-4.18509e-11 -2.13113e-09 -7.44772e-10)
(-2.47044e-11 -2.94178e-09 -1.05722e-09)
(2.42748e-11 -3.78018e-09 -1.40708e-09)
(1.15715e-10 -4.67644e-09 -1.81289e-09)
(2.63277e-10 -5.65843e-09 -2.29273e-09)
(4.84459e-10 -6.75184e-09 -2.86374e-09)
(8.0095e-10 -7.98225e-09 -3.53999e-09)
(1.23767e-09 -9.37389e-09 -4.32796e-09)
(1.81878e-09 -1.09504e-08 -5.21738e-09)
(2.55714e-09 -1.27324e-08 -6.1655e-09)
(3.43099e-09 -1.47348e-08 -7.07257e-09)
(4.33873e-09 -1.69611e-08 -7.75532e-09)
(5.03094e-09 -1.93724e-08 -7.96081e-09)
(5.13072e-09 -2.15729e-08 -7.61055e-09)
(-2.47453e-11 -6.0449e-10 -2.07576e-10)
(-6.60137e-11 -1.76506e-09 -6.12036e-10)
(-8.6792e-11 -2.86182e-09 -1.01157e-09)
(-7.84205e-11 -3.94808e-09 -1.4348e-09)
(-3.11761e-11 -5.06888e-09 -1.90792e-09)
(6.68858e-11 -6.26332e-09 -2.45618e-09)
(2.30944e-10 -7.5662e-09 -3.10483e-09)
(4.80203e-10 -9.00917e-09 -3.87912e-09)
(8.38103e-10 -1.06215e-08 -4.8031e-09)
(1.33098e-09 -1.24299e-08 -5.89637e-09)
(1.98296e-09 -1.44572e-08 -7.16761e-09)
(2.8023e-09 -1.67204e-08 -8.60306e-09)
(3.74972e-09 -1.92243e-08 -1.01482e-08)
(4.67476e-09 -2.19465e-08 -1.16825e-08)
(5.22695e-09 -2.47746e-08 -1.29894e-08)
(4.97095e-09 -2.71342e-08 -1.3731e-08)
(-3.97975e-11 -7.35568e-10 -2.5684e-10)
(-1.09205e-10 -2.14752e-09 -7.57013e-10)
(-1.54451e-10 -3.48042e-09 -1.25016e-09)
(-1.67269e-10 -4.79828e-09 -1.77119e-09)
(-1.38498e-10 -6.15433e-09 -2.35207e-09)
(-5.70434e-11 -7.59419e-09 -3.02381e-09)
(9.09086e-11 -9.15632e-09 -3.81797e-09)
(3.22448e-10 -1.0875e-08 -4.76743e-09)
(6.57888e-10 -1.27781e-08 -5.90654e-09)
(1.11951e-09 -1.48881e-08 -7.27016e-09)
(1.72756e-09 -1.72188e-08 -8.89132e-09)
(2.49068e-09 -1.97707e-08 -1.07967e-08)
(3.38534e-09 -2.25215e-08 -1.29977e-08)
(4.31673e-09 -2.54045e-08 -1.54691e-08)
(5.06129e-09 -2.82396e-08 -1.80772e-08)
(5.27766e-09 -3.04242e-08 -2.02463e-08)
(-5.91014e-11 -8.38534e-10 -2.99524e-10)
(-1.65337e-10 -2.44774e-09 -8.82374e-10)
(-2.44792e-10 -3.96543e-09 -1.45563e-09)
(-2.90994e-10 -5.4632e-09 -2.05913e-09)
(-2.96901e-10 -7.00021e-09 -2.72929e-09)
(-2.54204e-10 -8.62517e-09 -3.50144e-09)
(-1.5296e-10 -1.03786e-08 -4.41179e-09)
(1.84094e-11 -1.22923e-08 -5.499e-09)
(2.72567e-10 -1.439e-08 -6.80529e-09)
(6.21773e-10 -1.66838e-08 -8.37768e-09)
(1.07507e-09 -1.91709e-08 -1.02693e-08)
(1.63396e-09 -2.18274e-08 -1.25409e-08)
(2.28795e-09 -2.45982e-08 -1.52612e-08)
(3.01529e-09 -2.73837e-08 -1.84936e-08)
(3.7953e-09 -3.00076e-08 -2.21996e-08)
(4.54695e-09 -3.20051e-08 -2.56594e-08)
(-8.20843e-11 -9.09902e-10 -3.35011e-10)
(-2.32646e-10 -2.65584e-09 -9.86333e-10)
(-3.54635e-10 -4.3011e-09 -1.62496e-09)
(-4.44468e-10 -5.92203e-09 -2.2942e-09)
(-4.9836e-10 -7.5811e-09 -3.03331e-09)
(-5.12101e-10 -9.32804e-09 -3.88019e-09)
(-4.81248e-10 -1.12022e-08 -4.87351e-09)
(-4.01835e-10 -1.32317e-08 -6.05457e-09)
(-2.7179e-10 -1.54318e-08 -7.4691e-09)
(-9.33851e-11 -1.78016e-08 -9.16921e-09)
(1.23164e-10 -2.0318e-08 -1.12162e-08)
(3.55289e-10 -2.29265e-08 -1.36848e-08)
(5.65745e-10 -2.55315e-08 -1.6667e-08)
(7.10956e-10 -2.79869e-08 -2.02634e-08)
(7.77923e-10 -3.00942e-08 -2.44773e-08)
(8.36243e-10 -3.15416e-08 -2.85298e-08)
(-1.07694e-10 -9.47423e-10 -3.631e-10)
(-3.07925e-10 -2.76545e-09 -1.06827e-09)
(-4.78315e-10 -4.47753e-09 -1.7572e-09)
(-6.18803e-10 -6.16234e-09 -2.47502e-09)
(-7.29433e-10 -7.8827e-09 -3.26234e-09)
(-8.10575e-10 -9.68804e-09 -4.15762e-09)
(-8.63666e-10 -1.16148e-08 -5.19957e-09)
(-8.9257e-10 -1.36858e-08 -6.42878e-09)
(-9.05807e-10 -1.59078e-08 -7.88926e-09)
(-9.20037e-10 -1.82664e-08 -9.62999e-09)
(-9.65204e-10 -2.0718e-08 -1.17067e-08)
(-1.09124e-09 -2.31797e-08 -1.41837e-08)
(-1.37414e-09 -2.55139e-08 -1.71346e-08)
(-1.90945e-09 -2.75116e-08 -2.06339e-08)
(-2.743e-09 -2.88759e-08 -2.46769e-08)
(-3.60638e-09 -2.92582e-08 -2.86317e-08)
(-1.75074e-12 -9.74295e-11 -3.01503e-11)
(-3.89886e-12 -2.84668e-10 -8.89295e-11)
(-2.35058e-12 -4.62211e-10 -1.47111e-10)
(4.99543e-12 -6.39139e-10 -2.08927e-10)
(2.05869e-11 -8.23288e-10 -2.78233e-10)
(4.75515e-11 -1.02168e-09 -3.58676e-10)
(9.00396e-11 -1.24085e-09 -4.53698e-10)
(1.53565e-10 -1.48697e-09 -5.66279e-10)
(2.45304e-10 -1.76591e-09 -6.98211e-10)
(3.74257e-10 -2.08271e-09 -8.48521e-10)
(5.51228e-10 -2.44034e-09 -1.01043e-09)
(7.89037e-10 -2.8361e-09 -1.16578e-09)
(1.10488e-09 -3.25219e-09 -1.27593e-09)
(1.52912e-09 -3.6319e-09 -1.27012e-09)
(2.11507e-09 -3.83278e-09 -1.04829e-09)
(2.82821e-09 -3.65483e-09 -6.0849e-10)
(-6.19516e-12 -2.87699e-10 -8.93483e-11)
(-1.45894e-11 -8.40565e-10 -2.63537e-10)
(-1.22087e-11 -1.3648e-09 -4.35925e-10)
(6.8649e-12 -1.88696e-09 -6.19012e-10)
(4.95078e-11 -2.42998e-09 -8.24205e-10)
(1.24489e-10 -3.01431e-09 -1.06235e-09)
(2.43409e-10 -3.65882e-09 -1.34382e-09)
(4.2164e-10 -4.3813e-09 -1.67798e-09)
(6.79076e-10 -5.19871e-09 -2.07135e-09)
(1.04028e-09 -6.12589e-09 -2.52378e-09)
(1.53325e-09 -7.17323e-09 -3.02097e-09)
(2.18602e-09 -8.3393e-09 -3.52137e-09)
(3.02111e-09 -9.59491e-09 -3.93648e-09)
(4.04974e-09 -1.08464e-08 -4.11201e-09)
(5.25546e-09 -1.18684e-08 -3.85708e-09)
(6.42531e-09 -1.2282e-08 -3.2159e-09)
(-1.33247e-11 -4.66346e-10 -1.45919e-10)
(-3.34865e-11 -1.3624e-09 -4.30303e-10)
(-3.66098e-11 -2.2114e-09 -7.11498e-10)
(-1.40153e-11 -3.05611e-09 -1.00981e-09)
(4.43372e-11 -3.9331e-09 -1.3438e-09)
(1.51192e-10 -4.87466e-09 -1.73126e-09)
(3.23328e-10 -5.91005e-09 -2.18963e-09)
(5.8286e-10 -7.06683e-09 -2.73546e-09)
(9.58182e-10 -8.37019e-09 -3.38254e-09)
(1.4837e-09 -9.84286e-09 -4.13749e-09)
(2.19626e-09 -1.1501e-08 -4.99135e-09)
(3.12419e-09 -1.33483e-08 -5.90508e-09)
(4.26109e-09 -1.53607e-08 -6.78904e-09)
(5.51451e-09 -1.74578e-08 -7.4864e-09)
(6.63193e-09 -1.94376e-08 -7.80609e-09)
(7.1984e-09 -2.08101e-08 -7.72804e-09)
(-2.44362e-11 -6.26508e-10 -1.98343e-10)
(-6.45476e-11 -1.82995e-09 -5.84724e-10)
(-8.25338e-11 -2.96917e-09 -9.66237e-10)
(-6.84766e-11 -4.10087e-09 -1.37022e-09)
(-1.09834e-11 -5.27317e-09 -1.82172e-09)
(1.04299e-10 -6.52776e-09 -2.34496e-09)
(2.9612e-10 -7.90196e-09 -2.96417e-09)
(5.88991e-10 -9.42924e-09 -3.70365e-09)
(1.01418e-09 -1.11398e-08 -4.58655e-09)
(1.6093e-09 -1.30586e-08 -5.63166e-09)
(2.4142e-09 -1.52022e-08 -6.84684e-09)
(3.45723e-09 -1.75705e-08 -8.21745e-09)
(4.72077e-09 -2.01288e-08 -9.68756e-09)
(6.06837e-09 -2.27657e-08 -1.11346e-08)
(7.14056e-09 -2.51874e-08 -1.23466e-08)
(7.42994e-09 -2.67046e-08 -1.30307e-08)
(-4.02195e-11 -7.62241e-10 -2.45383e-10)
(-1.09866e-10 -2.22602e-09 -7.23123e-10)
(-1.53618e-10 -3.61031e-09 -1.19392e-09)
(-1.62032e-10 -4.98299e-09 -1.69111e-09)
(-1.2437e-10 -6.40112e-09 -2.24523e-09)
(-2.72642e-11 -7.9131e-09 -2.88595e-09)
(1.46484e-10 -9.56101e-09 -3.64345e-09)
(4.19006e-10 -1.13808e-08 -4.54925e-09)
(8.18132e-10 -1.34024e-08 -5.63599e-09)
(1.37726e-09 -1.56476e-08 -6.9363e-09)
(2.13288e-09 -1.8125e-08 -8.47956e-09)
(3.1164e-09 -2.08216e-08 -1.02849e-08)
(4.33327e-09 -2.36817e-08 -1.23461e-08)
(5.71541e-09 -2.65601e-08 -1.45951e-08)
(7.0302e-09 -2.91091e-08 -1.6809e-08)
(7.79311e-09 -3.0596e-08 -1.83859e-08)
(-6.06845e-11 -8.68738e-10 -2.86117e-10)
(-1.69451e-10 -2.53677e-09 -8.4273e-10)
(-2.49787e-10 -4.11254e-09 -1.38989e-09)
(-2.94331e-10 -5.67228e-09 -1.96559e-09)
(-2.94837e-10 -7.27901e-09 -2.60459e-09)
(-2.41243e-10 -8.98524e-09 -3.34061e-09)
(-1.21015e-10 -1.08344e-08 -4.20823e-09)
(8.12625e-11 -1.28615e-08 -5.24419e-09)
(3.83922e-10 -1.50918e-08 -6.48835e-09)
(8.07629e-10 -1.75377e-08 -7.98412e-09)
(1.3739e-09 -2.01935e-08 -9.77814e-09)
(2.10253e-09 -2.30254e-08 -1.19177e-08)
(3.00807e-09 -2.59557e-08 -1.44394e-08)
(4.09389e-09 -2.88325e-08 -1.73272e-08)
(5.32324e-09 -3.13636e-08 -2.03637e-08)
(6.43635e-09 -3.29711e-08 -2.27085e-08)
(-8.51951e-11 -9.42504e-10 -3.19967e-10)
(-2.41343e-10 -2.75188e-09 -9.41867e-10)
(-3.67487e-10 -4.45969e-09 -1.55129e-09)
(-4.59603e-10 -6.14727e-09 -2.18948e-09)
(-5.13278e-10 -7.88086e-09 -2.89391e-09)
(-5.23351e-10 -9.71445e-09 -3.70066e-09)
(-4.83996e-10 -1.16904e-08 -4.64651e-09)
(-3.89296e-10 -1.38398e-08 -5.7706e-09)
(-2.34514e-10 -1.61799e-08 -7.11568e-09)
(-1.83847e-11 -1.87101e-08 -8.72934e-09)
(2.53244e-10 -2.14042e-08 -1.06647e-08)
(5.62336e-10 -2.42008e-08 -1.29796e-08)
(8.72549e-10 -2.69889e-08 -1.57269e-08)
(1.12292e-09 -2.95943e-08 -1.89115e-08)
(1.22058e-09 -3.17698e-08 -2.23195e-08)
(1.06187e-09 -3.31666e-08 -2.5003e-08)
(-1.12592e-10 -9.81221e-10 -3.46743e-10)
(-3.22002e-10 -2.86481e-09 -1.01997e-09)
(-5.00431e-10 -4.64166e-09 -1.67723e-09)
(-6.47927e-10 -6.39498e-09 -2.36158e-09)
(-7.64565e-10 -8.1922e-09 -3.1116e-09)
(-8.50678e-10 -1.00861e-08 -3.96395e-09)
(-9.07675e-10 -1.21165e-08 -4.95531e-09)
(-9.3954e-10 -1.4309e-08 -6.12394e-09)
(-9.55405e-10 -1.66716e-08 -7.51073e-09)
(-9.73779e-10 -1.91893e-08 -9.15989e-09)
(-1.02931e-09 -2.18151e-08 -1.11187e-08)
(-1.18352e-09 -2.44567e-08 -1.34347e-08)
(-1.54112e-09 -2.69596e-08 -1.6145e-08)
(-2.27023e-09 -2.90898e-08 -1.92371e-08)
(-3.59041e-09 -3.05347e-08 -2.25106e-08)
(-5.47562e-09 -3.10188e-08 -2.51446e-08)
(-1.53296e-12 -1.00603e-10 -2.76453e-11)
(-3.15297e-12 -2.94022e-10 -8.15332e-11)
(-7.68391e-13 -4.77737e-10 -1.34857e-10)
(7.99547e-12 -6.61275e-10 -1.91496e-10)
(2.595e-11 -8.52909e-10 -2.54985e-10)
(5.67519e-11 -1.06004e-09 -3.28671e-10)
(1.05333e-10 -1.28944e-09 -4.15722e-10)
(1.78368e-10 -1.54744e-09 -5.18896e-10)
(2.84719e-10 -1.83959e-09 -6.39937e-10)
(4.35769e-10 -2.16991e-09 -7.78257e-10)
(6.45556e-10 -2.53886e-09 -9.28573e-10)
(9.31046e-10 -2.93852e-09 -1.07697e-09)
(1.31434e-09 -3.34175e-09 -1.19548e-09)
(1.83054e-09 -3.67844e-09 -1.23777e-09)
(2.53289e-09 -3.79819e-09 -1.14853e-09)
(3.35999e-09 -3.53295e-09 -9.39841e-10)
(-5.6311e-12 -2.9704e-10 -8.19217e-11)
(-1.26292e-11 -8.68189e-10 -2.41603e-10)
(-7.97122e-12 -1.41058e-09 -3.9959e-10)
(1.50288e-11 -1.95224e-09 -5.6733e-10)
(6.4275e-11 -2.51736e-09 -7.55276e-10)
(1.50026e-10 -3.12744e-09 -9.73374e-10)
(2.86103e-10 -3.8022e-09 -1.23115e-09)
(4.9118e-10 -4.55993e-09 -1.53721e-09)
(7.90001e-10 -5.41684e-09 -1.89771e-09)
(1.21407e-09 -6.38534e-09 -2.31306e-09)
(1.80096e-09 -7.46903e-09 -2.77203e-09)
(2.59118e-09 -8.65297e-09 -3.2421e-09)
(3.62207e-09 -9.88323e-09 -3.65725e-09)
(4.9188e-09 -1.10314e-08 -3.91204e-09)
(6.46395e-09 -1.18534e-08 -3.89396e-09)
(7.96269e-09 -1.20665e-08 -3.64067e-09)
(-1.26597e-11 -4.81494e-10 -1.33777e-10)
(-3.10752e-11 -1.40704e-09 -3.94461e-10)
(-3.11174e-11 -2.28543e-09 -6.52136e-10)
(-2.98025e-12 -3.16165e-09 -9.25393e-10)
(6.48856e-11 -4.07431e-09 -1.23124e-09)
(1.87422e-10 -5.05744e-09 -1.58596e-09)
(3.84698e-10 -6.142e-09 -2.00546e-09)
(6.83773e-10 -7.35606e-09 -2.50486e-09)
(1.12042e-09 -8.72481e-09 -3.09666e-09)
(1.73986e-09 -1.02674e-08 -3.78695e-09)
(2.59444e-09 -1.19919e-08 -4.56814e-09)
(3.7336e-09 -1.38838e-08 -5.40746e-09)
(5.17763e-09 -1.58865e-08 -6.2323e-09)
(6.86146e-09 -1.78733e-08 -6.92271e-09)
(8.53628e-09 -1.96195e-08 -7.34267e-09)
(9.64876e-09 -2.07744e-08 -7.46023e-09)
(-2.40308e-11 -6.46762e-10 -1.81821e-10)
(-6.28074e-11 -1.8897e-09 -5.35957e-10)
(-7.78413e-11 -3.06821e-09 -8.85499e-10)
(-5.79302e-11 -4.24202e-09 -1.25546e-09)
(1.00465e-11 -5.46192e-09 -1.66877e-09)
(1.42968e-10 -6.77214e-09 -2.14752e-09)
(3.63389e-10 -8.212e-09 -2.71374e-09)
(7.01612e-10 -9.81668e-09 -3.38935e-09)
(1.19771e-09 -1.16164e-08 -4.19481e-09)
(1.9027e-09 -1.36339e-08 -5.14589e-09)
(2.87659e-09 -1.58776e-08 -6.24723e-09)
(4.17766e-09 -1.83296e-08 -7.48101e-09)
(5.83054e-09 -2.09211e-08 -8.78956e-09)
(7.7507e-09 -2.34901e-08 -1.00539e-08)
(9.60671e-09 -2.57137e-08 -1.10813e-08)
(1.07099e-08 -2.70395e-08 -1.16346e-08)
(-4.04929e-11 -7.86762e-10 -2.24915e-10)
(-1.10099e-10 -2.29842e-09 -6.62712e-10)
(-1.52102e-10 -3.73019e-09 -1.09398e-09)
(-1.55844e-10 -5.15374e-09 -1.54917e-09)
(-1.08938e-10 -6.62927e-09 -2.0562e-09)
(4.39955e-12 -8.20844e-09 -2.64206e-09)
(2.05038e-10 -9.93567e-09 -3.33409e-09)
(5.20726e-10 -1.18496e-08 -4.16036e-09)
(9.8802e-10 -1.39811e-08 -5.14922e-09)
(1.65403e-09 -1.63508e-08 -6.32722e-09)
(2.57711e-09 -1.89623e-08 -7.71433e-09)
(3.82404e-09 -2.17881e-08 -9.314e-09)
(5.45695e-09 -2.47442e-08 -1.1093e-08)
(7.49175e-09 -2.76385e-08 -1.29414e-08)
(9.77818e-09 -3.00859e-08 -1.46033e-08)
(1.16636e-08 -3.14489e-08 -1.56078e-08)
(-6.20524e-11 -8.96583e-10 -2.62208e-10)
(-1.72943e-10 -2.61881e-09 -7.72217e-10)
(-2.53786e-10 -4.2484e-09 -1.27331e-09)
(-2.96281e-10 -5.86559e-09 -1.80023e-09)
(-2.90898e-10 -7.53718e-09 -2.38466e-09)
(-2.25667e-10 -9.31898e-09 -3.05725e-09)
(-8.51663e-11 -1.12578e-08 -3.84909e-09)
(1.5046e-10 -1.33913e-08 -4.79273e-09)
(5.0646e-10 -1.5747e-08 -5.92219e-09)
(1.01458e-09 -1.83379e-08 -7.27207e-09)
(1.71471e-09 -2.1156e-08 -8.87414e-09)
(2.65836e-09 -2.41595e-08 -1.07487e-08)
(3.91632e-09 -2.72528e-08 -1.28829e-08)
(5.5897e-09 -3.02512e-08 -1.51774e-08)
(7.7782e-09 -3.28254e-08 -1.73314e-08)
(1.01555e-08 -3.44215e-08 -1.86949e-08)
(-8.80121e-11 -9.72527e-10 -2.93193e-10)
(-2.49191e-10 -2.84039e-09 -8.62929e-10)
(-3.78975e-10 -4.60616e-09 -1.42094e-09)
(-4.72848e-10 -6.35546e-09 -2.00489e-09)
(-5.25676e-10 -8.15877e-09 -2.64888e-09)
(-5.31197e-10 -1.00733e-08 -3.38565e-09)
(-4.81929e-10 -1.2145e-08 -4.24816e-09)
(-3.69462e-10 -1.44082e-08 -5.27076e-09)
(-1.85278e-10 -1.68828e-08 -6.48955e-09)
(7.77857e-11 -1.95697e-08 -7.94163e-09)
(4.23543e-10 -2.2443e-08 -9.66212e-09)
(8.50787e-10 -2.54378e-08 -1.16757e-08)
(1.35459e-09 -2.84353e-08 -1.39738e-08)
(1.93579e-09 -3.12464e-08 -1.64566e-08)
(2.61629e-09 -3.36017e-08 -1.88009e-08)
(3.35321e-09 -3.51208e-08 -2.02857e-08)
(-1.17111e-10 -1.01227e-09 -3.17692e-10)
(-3.34983e-10 -2.95647e-09 -9.34352e-10)
(-5.20786e-10 -4.79316e-09 -1.53607e-09)
(-6.74614e-10 -6.61035e-09 -2.16206e-09)
(-7.96483e-10 -8.47907e-09 -2.84751e-09)
(-8.86568e-10 -1.04561e-08 -3.62552e-09)
(-9.4601e-10 -1.25845e-08 -4.52889e-09)
(-9.78489e-10 -1.4893e-08 -5.591e-09)
(-9.92895e-10 -1.73922e-08 -6.84592e-09)
(-1.00776e-09 -2.00689e-08 -8.32725e-09)
(-1.05844e-09 -2.28758e-08 -1.00642e-08)
(-1.20848e-09 -2.57181e-08 -1.20719e-08)
(-1.56681e-09 -2.84346e-08 -1.43275e-08)
(-2.30629e-09 -3.07808e-08 -1.67163e-08)
(-3.63388e-09 -3.24346e-08 -1.89191e-08)
(-5.44542e-09 -3.31007e-08 -2.02806e-08)
(-1.32065e-12 -1.03414e-10 -2.41289e-11)
(-2.42955e-12 -3.02333e-10 -7.11561e-11)
(7.55205e-13 -4.91512e-10 -1.1768e-10)
(1.08665e-11 -6.80925e-10 -1.67079e-10)
(3.10623e-11 -8.79206e-10 -2.22431e-10)
(6.5498e-11 -1.09406e-09 -2.86651e-10)
(1.19844e-10 -1.33252e-09 -3.6249e-10)
(2.01849e-10 -1.60097e-09 -4.5237e-10)
(3.21908e-10 -1.90472e-09 -5.57887e-10)
(4.93464e-10 -2.24693e-09 -6.78853e-10)
(7.33098e-10 -2.62612e-09 -8.11661e-10)
(1.06037e-09 -3.03105e-09 -9.46908e-10)
(1.49878e-09 -3.42982e-09 -1.06683e-09)
(2.08068e-09 -3.74843e-09 -1.14479e-09)
(2.84688e-09 -3.83912e-09 -1.15291e-09)
(3.70892e-09 -3.54866e-09 -1.09551e-09)
(-5.07628e-12 -3.05342e-10 -7.14967e-11)
(-1.07147e-11 -8.92648e-10 -2.10847e-10)
(-3.87207e-12 -1.45119e-09 -3.48674e-10)
(2.28674e-11 -2.01018e-09 -4.94956e-10)
(7.83834e-11 -2.59489e-09 -6.58792e-10)
(1.74349e-10 -3.22781e-09 -8.4882e-10)
(3.26681e-10 -3.92943e-09 -1.07331e-09)
(5.57142e-10 -4.71826e-09 -1.33972e-09)
(8.94921e-10 -5.61009e-09 -1.65351e-09)
(1.37766e-09 -6.61503e-09 -2.01562e-09)
(2.05083e-09 -7.73184e-09 -2.41821e-09)
(2.96367e-09 -8.93651e-09 -2.83863e-09)
(4.15999e-09 -1.01628e-08 -3.23313e-09)
(5.66113e-09 -1.12731e-08 -3.53702e-09)
(7.41867e-09 -1.20375e-08 -3.68636e-09)
(9.05723e-09 -1.22269e-08 -3.68338e-09)
(-1.19885e-11 -4.94885e-10 -1.16749e-10)
(-2.86753e-11 -1.44662e-09 -3.44215e-10)
(-2.57375e-11 -2.35108e-09 -5.68987e-10)
(7.70118e-12 -3.25529e-09 -8.07249e-10)
(8.46288e-11 -4.19965e-09 -1.07379e-09)
(2.2208e-10 -5.21983e-09 -1.38271e-09)
(4.43255e-10 -6.34794e-09 -1.74777e-09)
(7.79879e-10 -7.61313e-09 -2.18186e-09)
(1.27461e-09 -9.03998e-09 -2.69564e-09)
(1.98255e-09 -1.06454e-08 -3.29423e-09)
(2.96961e-09 -1.24311e-08 -3.9718e-09)
(4.30229e-09 -1.43709e-08 -4.70329e-09)
(6.01822e-09 -1.63915e-08 -5.43541e-09)
(8.05841e-09 -1.83547e-08 -6.08412e-09)
(1.01372e-08 -2.00589e-08 -6.5543e-09)
(1.15562e-08 -2.12315e-08 -6.78797e-09)
(-2.35764e-11 -6.64709e-10 -1.58659e-10)
(-6.09583e-11 -1.94269e-09 -4.67635e-10)
(-7.30822e-11 -3.15607e-09 -7.72497e-10)
(-4.75207e-11 -4.3673e-09 -1.09501e-09)
(3.05005e-11 -5.62962e-09 -1.45506e-09)
(1.80284e-10 -6.98944e-09 -1.87177e-09)
(4.28033e-10 -8.48809e-09 -2.364e-09)
(8.09582e-10 -1.01622e-08 -2.95024e-09)
(1.37338e-09 -1.20426e-08 -3.64727e-09)
(2.18306e-09 -1.41503e-08 -4.46707e-09)
(3.3173e-09 -1.64885e-08 -5.41104e-09)
(4.86102e-09 -1.90282e-08 -6.46064e-09)
(6.87307e-09 -2.16834e-08 -7.5638e-09)
(9.29939e-09 -2.42767e-08 -8.62061e-09)
(1.17868e-08 -2.64994e-08 -9.47818e-09)
(1.34315e-08 -2.78632e-08 -9.95086e-09)
(-4.06422e-11 -8.08523e-10 -1.96238e-10)
(-1.10002e-10 -2.36257e-09 -5.78164e-10)
(-1.50164e-10 -3.83657e-09 -9.54231e-10)
(-1.49297e-10 -5.30538e-09 -1.35093e-09)
(-9.3432e-11 -6.83227e-09 -1.79244e-09)
(3.55619e-11 -8.47144e-09 -2.30206e-09)
(2.62096e-10 -1.02703e-08 -2.903e-09)
(6.19376e-10 -1.22694e-08 -3.6187e-09)
(1.1524e-09 -1.45017e-08 -4.47174e-09)
(1.92155e-09 -1.69882e-08 -5.48134e-09)
(3.00625e-09 -1.97298e-08 -6.6579e-09)
(4.50673e-09 -2.26923e-08 -7.99266e-09)
(6.53608e-09 -2.57785e-08 -9.43947e-09)
(9.17489e-09 -2.878e-08 -1.08856e-08)
(1.2298e-08 -3.13071e-08 -1.21167e-08)
(1.50095e-08 -3.27411e-08 -1.2814e-08)
(-6.3188e-11 -9.2123e-10 -2.28753e-10)
(-1.7579e-10 -2.69159e-09 -6.73602e-10)
(-2.56833e-10 -4.36897e-09 -1.11049e-09)
(-2.97112e-10 -6.03742e-09 -1.56957e-09)
(-2.85834e-10 -7.76705e-09 -2.07829e-09)
(-2.09163e-10 -9.61693e-09 -2.66295e-09)
(-4.8836e-11 -1.16369e-08 -3.34991e-09)
(2.19374e-10 -1.38679e-08 -4.16591e-09)
(6.27578e-10 -1.63404e-08 -5.13757e-09)
(1.21857e-09 -1.90701e-08 -6.28903e-09)
(2.05063e-09 -2.20504e-08 -7.63681e-09)
(3.20684e-09 -2.52396e-08 -9.17879e-09)
(4.81219e-09 -2.85384e-08 -1.08725e-08)
(7.05214e-09 -3.17545e-08 -1.25958e-08)
(1.01055e-08 -3.45417e-08 -1.40921e-08)
(1.34577e-08 -3.62997e-08 -1.49574e-08)
(-9.04635e-11 -9.99137e-10 -2.55751e-10)
(-2.55996e-10 -2.91891e-09 -7.52635e-10)
(-3.88842e-10 -4.73621e-09 -1.23905e-09)
(-4.83991e-10 -6.54075e-09 -1.74769e-09)
(-5.35576e-10 -8.40635e-09 -2.30806e-09)
(-5.36232e-10 -1.0394e-08 -2.94816e-09)
(-4.76791e-10 -1.25531e-08 -3.69579e-09)
(-3.46293e-10 -1.49214e-08 -4.57895e-09)
(-1.32292e-10 -1.75229e-08 -5.62527e-09)
(1.78644e-10 -2.03628e-08 -6.85967e-09)
(6.00868e-10 -2.34199e-08 -8.29883e-09)
(1.15194e-09 -2.66355e-08 -9.93909e-09)
(1.86141e-09 -2.98985e-08 -1.17326e-08)
(2.79062e-09 -3.30296e-08 -1.3544e-08)
(4.038e-09 -3.57575e-08 -1.50941e-08)
(5.48197e-09 -3.76125e-08 -1.597e-08)
(-1.21112e-10 -1.03985e-09 -2.77085e-10)
(-3.46463e-10 -3.03771e-09 -8.14846e-10)
(-5.3875e-10 -4.92777e-09 -1.33927e-09)
(-6.98068e-10 -6.80185e-09 -1.88444e-09)
(-8.24336e-10 -8.73498e-09 -2.48066e-09)
(-9.175e-10 -1.07872e-08 -3.15633e-09)
(-9.78353e-10 -1.30053e-08 -3.93891e-09)
(-1.01011e-09 -1.54217e-08 -4.85539e-09)
(-1.0211e-09 -1.80511e-08 -5.93137e-09)
(-1.02921e-09 -2.08848e-08 -7.18821e-09)
(-1.06892e-09 -2.38814e-08 -8.63661e-09)
(-1.20221e-09 -2.69533e-08 -1.02633e-08)
(-1.53451e-09 -2.99506e-08 -1.20051e-08)
(-2.23182e-09 -3.2647e-08 -1.37063e-08)
(-3.49723e-09 -3.47451e-08 -1.50679e-08)
(-5.27461e-09 -3.59108e-08 -1.56983e-08)
(-1.12839e-12 -1.0578e-10 -1.9735e-11)
(-1.77743e-12 -3.09307e-10 -5.81959e-11)
(2.11976e-12 -5.03101e-10 -9.62329e-11)
(1.34237e-11 -6.97466e-10 -1.36606e-10)
(3.55934e-11 -9.01354e-10 -1.81823e-10)
(7.32151e-11 -1.12275e-09 -2.34253e-10)
(1.32579e-10 -1.3689e-09 -2.96135e-10)
(2.2231e-10 -1.64627e-09 -3.69444e-10)
(3.53962e-10 -1.96005e-09 -4.55553e-10)
(5.42354e-10 -2.31287e-09 -5.54574e-10)
(8.0529e-10 -2.70217e-09 -6.64373e-10)
(1.16242e-09 -3.115e-09 -7.79353e-10)
(1.63401e-09 -3.51779e-09 -8.89573e-10)
(2.24219e-09 -3.8364e-09 -9.81528e-10)
(3.00755e-09 -3.92643e-09 -1.0422e-09)
(3.82712e-09 -3.63804e-09 -1.0665e-09)
(-4.57083e-12 -3.12298e-10 -5.84765e-11)
(-8.98161e-12 -9.13233e-10 -1.72429e-10)
(-1.88232e-13 -1.48535e-09 -2.8511e-10)
(2.98646e-11 -2.05895e-09 -4.04653e-10)
(9.09088e-11 -2.66023e-09 -5.38468e-10)
(1.95838e-10 -3.3125e-09 -6.93573e-10)
(3.6234e-10 -4.03689e-09 -8.76666e-10)
(6.14694e-10 -4.85236e-09 -1.09379e-09)
(9.85506e-10 -5.77442e-09 -1.34946e-09)
(1.51663e-09 -6.812e-09 -1.64491e-09)
(2.25773e-09 -7.961e-09 -1.97546e-09)
(3.25985e-09 -9.19297e-09 -2.32715e-09)
(4.56063e-09 -1.04369e-08 -2.67425e-09)
(6.1577e-09 -1.15553e-08 -2.98124e-09)
(7.95349e-09 -1.23291e-08 -3.2128e-09)
(9.53266e-09 -1.2542e-08 -3.34358e-09)
(-1.13666e-11 -5.06159e-10 -9.54764e-11)
(-2.64728e-11 -1.47989e-09 -2.81478e-10)
(-2.08598e-11 -2.40631e-09 -4.65219e-10)
(1.72908e-11 -3.33414e-09 -6.59897e-10)
(1.02225e-10 -4.30532e-09 -8.77535e-10)
(2.52792e-10 -5.35686e-09 -1.12958e-09)
(4.94841e-10 -6.52222e-09 -1.42707e-09)
(8.63942e-10 -7.83124e-09 -1.78035e-09)
(1.40812e-09 -9.30883e-09 -2.19779e-09)
(2.18954e-09 -1.09707e-08 -2.68359e-09)
(3.28227e-09 -1.28153e-08 -3.23386e-09)
(4.75962e-09 -1.48108e-08 -3.83171e-09)
(6.65795e-09 -1.68774e-08 -4.44251e-09)
(8.89531e-09 -1.88751e-08 -5.0137e-09)
(1.1124e-08 -2.06152e-08 -5.4826e-09)
(1.25654e-08 -2.18391e-08 -5.77556e-09)
(-2.3127e-11 -6.79795e-10 -1.29741e-10)
(-5.91863e-11 -1.98722e-09 -3.82369e-10)
(-6.86636e-11 -3.23e-09 -6.31546e-10)
(-3.80492e-11 -4.47286e-09 -8.95003e-10)
(4.88834e-11 -5.77111e-09 -1.18891e-09)
(2.13539e-10 -7.17313e-09 -1.52868e-09)
(4.85233e-10 -8.72211e-09 -1.92942e-09)
(9.04386e-10 -1.04563e-08 -2.40565e-09)
(1.52609e-09 -1.24076e-08 -2.97013e-09)
(2.42329e-09 -1.45971e-08 -3.63132e-09)
(3.68694e-09 -1.70262e-08 -4.38899e-09)
(5.41618e-09 -1.96613e-08 -5.22754e-09)
(7.68083e-09 -2.24097e-08 -6.10771e-09)
(1.04193e-08 -2.50879e-08 -6.9588e-09)
(1.32201e-08 -2.73872e-08 -7.67478e-09)
(1.50416e-08 -2.88146e-08 -8.10733e-09)
(-4.07002e-11 -8.26789e-10 -1.60457e-10)
(-1.09707e-10 -2.41656e-09 -4.72689e-10)
(-1.48118e-10 -3.92614e-09 -7.80021e-10)
(-1.43072e-10 -5.43325e-09 -1.10401e-09)
(-7.91959e-11 -7.00365e-09 -1.46428e-09)
(6.36751e-11 -8.69419e-09 -1.87954e-09)
(3.12998e-10 -1.05545e-08 -2.36829e-09)
(7.0651e-10 -1.26281e-08 -2.9486e-09)
(1.29598e-09 -1.49499e-08 -3.63717e-09)
(2.15176e-09 -1.75434e-08 -4.44667e-09)
(3.36776e-09 -2.04108e-08 -5.38101e-09)
(5.0644e-09 -2.3518e-08 -6.42723e-09)
(7.37935e-09 -2.67647e-08 -7.54329e-09)
(1.04111e-08 -2.9935e-08 -8.64222e-09)
(1.40047e-08 -3.26201e-08 -9.57671e-09)
(1.70918e-08 -3.41557e-08 -1.01315e-08)
(-6.40884e-11 -9.41978e-10 -1.87019e-10)
(-1.78005e-10 -2.75282e-09 -5.50661e-10)
(-2.59048e-10 -4.47056e-09 -9.07633e-10)
(-2.97196e-10 -6.18238e-09 -1.28249e-09)
(-2.80546e-10 -7.96139e-09 -1.69743e-09)
(-1.93627e-10 -9.86952e-09 -2.1736e-09)
(-1.57419e-11 -1.19597e-08 -2.73174e-09)
(2.8098e-10 -1.42764e-08 -3.39233e-09)
(7.34109e-10 -1.68538e-08 -4.17442e-09)
(1.3947e-09 -1.97124e-08 -5.09313e-09)
(2.33365e-09 -2.28514e-08 -6.15426e-09)
(3.65338e-09 -2.62361e-08 -7.34502e-09)
(5.50715e-09 -2.97751e-08 -8.61914e-09)
(8.11425e-09 -3.32781e-08 -9.87699e-09)
(1.16608e-08 -3.63738e-08 -1.09486e-08)
(1.54883e-08 -3.83569e-08 -1.15932e-08)
(-9.24905e-11 -1.02152e-09 -2.09072e-10)
(-2.61604e-10 -2.98498e-09 -6.15207e-10)
(-3.96912e-10 -4.84582e-09 -1.01259e-09)
(-4.92949e-10 -6.69705e-09 -1.42783e-09)
(-5.43196e-10 -8.61592e-09 -1.88475e-09)
(-5.39312e-10 -1.06663e-08 -2.40583e-09)
(-4.70699e-10 -1.29013e-08 -3.01282e-09)
(-3.24307e-10 -1.53626e-08 -3.72686e-09)
(-8.46825e-11 -1.80791e-08 -4.56728e-09)
(2.6597e-10 -2.10627e-08 -5.54859e-09)
(7.48455e-10 -2.43019e-08 -6.6745e-09)
(1.39002e-09 -2.77521e-08 -7.92712e-09)
(2.23439e-09 -3.13236e-08 -9.24987e-09)
(3.3602e-09 -3.48629e-08 -1.0527e-08)
(4.8716e-09 -3.8102e-08 -1.15763e-08)
(6.58226e-09 -4.04333e-08 -1.21898e-08)
(-1.24469e-10 -1.063e-09 -2.265e-10)
(-3.56092e-10 -3.10615e-09 -6.65987e-10)
(-5.53792e-10 -5.04119e-09 -1.09439e-09)
(-7.17651e-10 -6.96365e-09 -1.53934e-09)
(-8.47482e-10 -8.95162e-09 -2.02542e-09)
(-9.43034e-10 -1.10686e-08 -2.57525e-09)
(-1.00482e-09 -1.33649e-08 -3.21031e-09)
(-1.03576e-09 -1.5877e-08 -3.95072e-09)
(-1.04401e-09 -1.86251e-08 -4.81388e-09)
(-1.0477e-09 -2.16077e-08 -5.8109e-09)
(-1.08247e-09 -2.47941e-08 -6.93972e-09)
(-1.21354e-09 -2.81134e-08 -8.17272e-09)
(-1.55438e-09 -3.14424e-08 -9.43719e-09)
(-2.29169e-09 -3.45965e-08 -1.05919e-08)
(-3.68053e-09 -3.73287e-08 -1.14216e-08)
(-5.73944e-09 -3.92439e-08 -1.173e-08)
(-9.70311e-13 -1.07623e-10 -1.46269e-11)
(-1.24323e-12 -3.14761e-10 -4.31282e-11)
(3.23252e-12 -5.12149e-10 -7.13114e-11)
(1.54982e-11 -7.10388e-10 -1.01213e-10)
(3.9251e-11 -9.18676e-10 -1.34687e-10)
(7.9409e-11 -1.14522e-09 -1.73477e-10)
(1.42726e-10 -1.39745e-09 -2.19231e-10)
(2.3844e-10 -1.68195e-09 -2.73412e-10)
(3.78828e-10 -2.00391e-09 -3.37077e-10)
(5.79339e-10 -2.36573e-09 -4.10489e-10)
(8.57753e-10 -2.76437e-09 -4.92597e-10)
(1.23177e-09 -3.1862e-09 -5.80523e-10)
(1.71548e-09 -3.59723e-09 -6.6948e-10)
(2.31744e-09 -3.92403e-09 -7.53627e-10)
(3.03767e-09 -4.02464e-09 -8.2726e-10)
(3.77161e-09 -3.74979e-09 -8.8039e-10)
(-4.15372e-12 -3.17741e-10 -4.33362e-11)
(-7.55644e-12 -9.29285e-10 -1.27783e-10)
(2.82253e-12 -1.51202e-09 -2.11265e-10)
(3.555e-11 -2.09704e-09 -2.99796e-10)
(1.0103e-10 -2.71131e-09 -3.98845e-10)
(2.13099e-10 -3.37881e-09 -5.13575e-10)
(3.90768e-10 -4.12127e-09 -6.48893e-10)
(6.60094e-10 -4.95805e-09 -8.09246e-10)
(1.05584e-09 -5.9048e-09 -9.98009e-10)
(1.62191e-09 -6.97e-09 -1.21646e-09)
(2.40854e-09 -8.1484e-09 -1.46227e-09)
(3.46259e-09 -9.40971e-09 -1.72803e-09)
(4.80685e-09 -1.06813e-08 -2.00068e-09)
(6.40589e-09 -1.18264e-08 -2.26321e-09)
(8.11377e-09 -1.263e-08 -2.49666e-09)
(9.51692e-09 -1.28743e-08 -2.66432e-09)
(-1.08471e-11 -5.14945e-10 -7.07563e-11)
(-2.46452e-11 -1.50584e-09 -2.08583e-10)
(-1.68493e-11 -2.44942e-09 -3.447e-10)
(2.51124e-11 -3.39574e-09 -4.88856e-10)
(1.16481e-10 -4.38796e-09 -6.49914e-10)
(2.77504e-10 -5.46427e-09 -8.36268e-10)
(5.36025e-10 -6.65914e-09 -1.05599e-09)
(9.30336e-10 -8.00341e-09 -1.31655e-09)
(1.51192e-09 -9.5225e-09 -1.62401e-09)
(2.34668e-09 -1.12321e-08 -1.98153e-09)
(3.51109e-09 -1.31299e-08 -2.38709e-09)
(5.0756e-09 -1.51815e-08 -2.83094e-09)
(7.06098e-09 -1.73044e-08 -3.29376e-09)
(9.34661e-09 -1.93562e-08 -3.747e-09)
(1.15244e-08 -2.11462e-08 -4.15238e-09)
(1.28067e-08 -2.24066e-08 -4.43627e-09)
(-2.27351e-11 -6.9156e-10 -9.61408e-11)
(-5.76758e-11 -2.02199e-09 -2.83322e-10)
(-6.49739e-11 -3.28773e-09 -4.67896e-10)
(-3.02555e-11 -4.55534e-09 -6.62949e-10)
(6.38528e-11 -5.88183e-09 -8.80381e-10)
(2.40386e-10 -7.31722e-09 -1.13148e-09)
(5.30997e-10 -8.90628e-09 -1.42719e-09)
(9.79375e-10 -1.06889e-08 -1.77788e-09)
(1.64495e-09 -1.26986e-08 -2.19242e-09)
(2.60587e-09 -1.49575e-08 -2.67642e-09)
(3.95799e-09 -1.74678e-08 -3.22933e-09)
(5.80184e-09 -2.0195e-08 -3.84068e-09)
(8.19796e-09 -2.30432e-08 -4.486e-09)
(1.10531e-08 -2.58216e-08 -5.12327e-09)
(1.38939e-08 -2.8205e-08 -5.6871e-09)
(1.56366e-08 -2.9673e-08 -6.06049e-09)
(-4.07057e-11 -8.41055e-10 -1.1889e-10)
(-1.09347e-10 -2.45869e-09 -3.50222e-10)
(-1.46278e-10 -3.99609e-09 -5.7784e-10)
(-1.37807e-10 -5.53319e-09 -8.17665e-10)
(-6.74551e-11 -7.13791e-09 -1.0841e-09)
(8.65253e-11 -8.86908e-09 -1.39084e-09)
(3.53864e-10 -1.07787e-08 -1.75116e-09)
(7.75531e-10 -1.29125e-08 -2.1778e-09)
(1.40769e-09 -1.53086e-08 -2.682e-09)
(2.32635e-09 -1.79934e-08 -3.27148e-09)
(3.63182e-09 -2.0973e-08 -3.94707e-09)
(5.44982e-09 -2.42168e-08 -4.69774e-09)
(7.9175e-09 -2.76254e-08 -5.49437e-09)
(1.11172e-08 -3.09742e-08 -6.28312e-09)
(1.48488e-08 -3.38209e-08 -6.97651e-09)
(1.79782e-08 -3.54363e-08 -7.42512e-09)
(-6.47559e-11 -9.58164e-10 -1.38565e-10)
(-1.79623e-10 -2.80061e-09 -4.07954e-10)
(-2.60566e-10 -4.54991e-09 -6.72313e-10)
(-2.96913e-10 -6.29578e-09 -9.49731e-10)
(-2.75875e-10 -8.11373e-09 -1.25652e-09)
(-1.80725e-10 -1.00682e-08 -1.60807e-09)
(1.10415e-11 -1.22148e-08 -2.01922e-09)