/*--------------------------------*- C++ -*----------------------------------*\
| =========                 |                                                 |
| \\      /  F ield         | foam-extend: Open Source CFD                    |
|  \\    /   O peration     | Version:     3.1                                |
|   \\  /    A nd           | Web:         http://www.extend-project.de       |
|    \\/     M anipulation  |                                                 |
\*---------------------------------------------------------------------------*/
FoamFile
{
    version     2.0;
    format      ascii;
    class       volScalarField;
    location    "1.4";
    object      p;
}
// * * * * * * * * * * * * * * * * * * * * * * * * * * * * * * * * * * * * * //

dimensions      [0 2 -2 0 0 0 0];

internalField   nonuniform List<scalar> 
14592
(
0.0342038
0.0341393
0.0342374
0.0343878
0.0344973
0.0345237
0.0344632
0.0343327
0.0341552
0.0339492
0.033717
0.0334441
0.0330871
0.0325567
0.0316692
0.0303018
0.0341231
0.0339859
0.0340627
0.0342333
0.0343785
0.0344417
0.0344131
0.0343092
0.0341552
0.033971
0.0337648
0.0335277
0.0332242
0.0327643
0.031889
0.0300216
0.0339894
0.0337886
0.0338359
0.0340313
0.0342198
0.0343236
0.0343265
0.0342457
0.0341114
0.0339491
0.0337754
0.0335902
0.0333661
0.0330118
0.0321843
0.0298428
0.0338717
0.0336293
0.0336366
0.0338373
0.0340534
0.0341844
0.0342072
0.0341382
0.0340141
0.0338612
0.0337064
0.0335586
0.0334008
0.033146
0.0324287
0.0298295
0.0337831
0.0335184
0.0334847
0.03367
0.0338928
0.0340341
0.0340622
0.0339881
0.0338616
0.0337002
0.0335407
0.0334011
0.0332797
0.0331072
0.0325602
0.029905
0.0337085
0.0334351
0.0333689
0.0335293
0.0337423
0.0338783
0.0338989
0.0338212
0.0336558
0.0334613
0.0332665
0.0330939
0.0329619
0.0328286
0.0324896
0.0299455
0.0336281
0.0333516
0.0332632
0.0333987
0.033593
0.0337111
0.0337127
0.0335965
0.0333941
0.0331447
0.0328786
0.0326168
0.0323961
0.032191
0.0320371
0.02958
0.033529
0.0332525
0.0331495
0.033266
0.0334419
0.0335377
0.0335031
0.0333462
0.0330907
0.0327654
0.0323928
0.0319745
0.031542
0.0309719
0.0307946
0.0270299
0.0344089
0.0343377
0.0344442
0.0346173
0.0347582
0.0348224
0.0348083
0.0347379
0.0346406
0.0345446
0.0344623
0.0343957
0.0343284
0.0342113
0.0339806
0.0338715
0.0343318
0.0341813
0.0342602
0.0344517
0.0346297
0.034734
0.0347558
0.0347162
0.0346473
0.034578
0.0345275
0.0345032
0.0344943
0.0344395
0.034225
0.0341417
0.0342056
0.0339897
0.0340335
0.0342466
0.0344678
0.034614
0.0346694
0.0346554
0.0346096
0.0345667
0.0345559
0.0345952
0.0346839
0.0347611
0.0346358
0.0345862
0.0340998
0.033845
0.0338459
0.0340596
0.0343052
0.0344767
0.0345507
0.0345479
0.0345129
0.034481
0.0344938
0.0345808
0.0347553
0.0349676
0.0349734
0.0350064
0.0340252
0.0337528
0.0337121
0.0339051
0.0341519
0.0343289
0.034404
0.0343914
0.0343519
0.0343092
0.0343168
0.0344157
0.0346367
0.0349566
0.0351086
0.0352576
0.0339623
0.0336857
0.0336137
0.0337769
0.0340072
0.0341723
0.0342345
0.0342142
0.034126
0.0340425
0.0340069
0.0340655
0.0342686
0.0346292
0.034899
0.0351348
0.033887
0.0336106
0.0335175
0.0336518
0.0338566
0.033995
0.0340313
0.0339635
0.0338293
0.0336785
0.0335547
0.0335016
0.0335827
0.0338333
0.0340931
0.0339681
0.0337839
0.0335089
0.0334014
0.0335134
0.0336947
0.0338064
0.0337952
0.0336767
0.0334776
0.0332337
0.0329774
0.0327266
0.0325274
0.0323066
0.0322693
0.0292165
0.034621
0.0345453
0.0346616
0.0348579
0.03503
0.0351309
0.0351609
0.0351461
0.035121
0.0351217
0.0351654
0.0352617
0.0354041
0.0355575
0.0357006
0.0359593
0.0345479
0.0343872
0.0344704
0.0346835
0.0348939
0.0350381
0.0351077
0.0351277
0.0351357
0.0351669
0.0352462
0.035387
0.0355846
0.0357904
0.0359509
0.0362765
0.0344299
0.0342028
0.0342466
0.0344788
0.0347324
0.0349195
0.0350246
0.0350726
0.0351066
0.0351671
0.0352903
0.0354991
0.035797
0.0361291
0.0363957
0.0368295
0.0343364
0.0340733
0.0340725
0.0343017
0.0345772
0.0347878
0.0349102
0.0349684
0.035013
0.035085
0.0352335
0.0354933
0.035881
0.0363476
0.036747
0.0373261
0.0342758
0.0339993
0.0339576
0.0341622
0.0344341
0.0346458
0.034765
0.0348091
0.034846
0.0349041
0.0350449
0.0353151
0.0357476
0.0363127
0.0368261
0.0375417
0.0342241
0.0339477
0.0338763
0.0340477
0.0342972
0.0344904
0.034591
0.0346217
0.0346019
0.0346119
0.0347014
0.0349219
0.0353232
0.0359008
0.0364468
0.0371826
0.0341536
0.0338801
0.0337893
0.0339286
0.0341464
0.0343042
0.0343727
0.0343476
0.0342724
0.0342035
0.0341902
0.0342798
0.0345299
0.0349447
0.0353157
0.0354296
0.0340465
0.0337757
0.0336706
0.0337849
0.0339748
0.0341024
0.0341109
0.0340253
0.0338743
0.0336972
0.0335302
0.0333916
0.0333149
0.033185
0.0330576
0.0295406
0.0348255
0.0347469
0.0348734
0.0350919
0.0352933
0.0354282
0.0354976
0.0355313
0.0355669
0.0356466
0.0357881
0.0360033
0.0362867
0.0366082
0.0369464
0.0373315
0.0347564
0.0345881
0.0346768
0.0349107
0.0351516
0.0353324
0.0354448
0.0355168
0.0355899
0.0357026
0.0358819
0.0361418
0.0364753
0.0368363
0.0371868
0.0376123
0.0346463
0.0344112
0.0344572
0.0347083
0.0349925
0.0352174
0.0353671
0.0354691
0.0355702
0.0357139
0.0359386
0.0362661
0.0366951
0.0371691
0.0376142
0.0381489
0.0345645
0.0342959
0.0342966
0.0345423
0.0348464
0.0350933
0.0352591
0.0353706
0.0354811
0.0356354
0.0358847
0.0362617
0.0367759
0.0373717
0.0379314
0.0386193
0.0345168
0.0342386
0.0341995
0.0344179
0.0347147
0.0349586
0.0351176
0.0352128
0.0353101
0.0354467
0.0356844
0.0360668
0.0366182
0.0372939
0.0379322
0.0387522
0.0344753
0.0342007
0.0341339
0.0343168
0.0345862
0.0348057
0.0349399
0.0350115
0.0350499
0.0351319
0.0353105
0.0356334
0.0361389
0.0367975
0.0374059
0.038186
0.0344089
0.0341395
0.0340549
0.0342035
0.034436
0.0346121
0.0347088
0.0347189
0.0346913
0.0346845
0.0347482
0.0349245
0.0352555
0.0357083
0.0360372
0.0360374
0.0342981
0.0340321
0.0339335
0.034055
0.0342558
0.0343989
0.0344239
0.0343648
0.0342513
0.0341239
0.0340179
0.0339447
0.0339186
0.0337788
0.0334942
0.0294728
0.0350084
0.034928
0.0350639
0.0353023
0.0355294
0.0356936
0.0357963
0.0358697
0.0359527
0.036093
0.0363056
0.0366019
0.0369742
0.0373926
0.0378318
0.0382476
0.0349429
0.034769
0.0348633
0.0351158
0.0353835
0.0355958
0.0357444
0.035859
0.0359836
0.0361581
0.0364097
0.0367498
0.0371673
0.0376147
0.0380523
0.0385017
0.0348399
0.034599
0.0346482
0.0349166
0.0352277
0.0354853
0.0356725
0.0358187
0.0359729
0.0361788
0.0364756
0.0368809
0.0373867
0.0379326
0.0384474
0.0390012
0.0347683
0.0344962
0.0344999
0.0347611
0.0350909
0.0353692
0.0355716
0.0357265
0.0358884
0.0361035
0.0364228
0.0368737
0.037457
0.0381096
0.0387165
0.0394282
0.0347317
0.0344531
0.0344183
0.0346506
0.03497
0.0352422
0.0354346
0.0355712
0.0357146
0.0359083
0.0362116
0.036662
0.037273
0.0379874
0.0386423
0.0394837
0.0346987
0.0344265
0.034366
0.0345613
0.0348497
0.0350925
0.0352544
0.0353583
0.0354411
0.0355748
0.035812
0.0361942
0.0367465
0.03742
0.0380061
0.0387549
0.0346356
0.0343706
0.0342936
0.0344532
0.0347005
0.0348938
0.0350128
0.0350502
0.0350583
0.035095
0.0352079
0.0354317
0.0357928
0.0362301
0.0364729
0.0363341
0.0345215
0.0342603
0.0341696
0.0343004
0.0345125
0.0346688
0.034708
0.0346691
0.0345829
0.0344895
0.0344213
0.0343812
0.0343664
0.0341796
0.0337409
0.0293172
0.0351576
0.0350763
0.0352202
0.0354746
0.0357226
0.03591
0.0360386
0.0361418
0.0362599
0.0364427
0.0367035
0.0370516
0.0374764
0.0379465
0.0384311
0.038858
0.0350951
0.0349175
0.0350167
0.0352844
0.0355736
0.035811
0.0359877
0.0361343
0.0362961
0.0365148
0.0368151
0.037206
0.0376723
0.0381641
0.038636
0.039094
0.0349977
0.0347531
0.0348056
0.0350883
0.0354213
0.0357047
0.0359211
0.0361007
0.0362938
0.0365431
0.0368876
0.0373407
0.0378884
0.038467
0.0390016
0.0395598
0.0349344
0.0346603
0.0346673
0.0349419
0.0352925
0.0355959
0.0358266
0.0360142
0.0362132
0.0364703
0.0368349
0.0373294
0.0379471
0.0386192
0.0392248
0.0399512
0.0349064
0.0346282
0.0345979
0.0348426
0.035181
0.0354757
0.0356938
0.035861
0.0360377
0.0362701
0.0366147
0.0371033
0.0377405
0.0384602
0.039092
0.039945
0.0348801
0.0346104
0.0345561
0.0347629
0.0350675
0.035329
0.0355124
0.0356401
0.035754
0.035922
0.0361951
0.0366086
0.0371772
0.0378395
0.0383814
0.0390949
0.0348194
0.0345583
0.0344885
0.0346588
0.0349193
0.0351268
0.0352627
0.0353199
0.0353525
0.0354174
0.0355593
0.0358061
0.036172
0.0365778
0.0367383
0.0364887
0.0347025
0.0344456
0.0343624
0.0345025
0.0347252
0.0348923
0.0349423
0.0349175
0.0348496
0.0347776
0.0347306
0.0347043
0.0346825
0.0344434
0.0338812
0.0291669
0.0352631
0.0351822
0.0353321
0.0355982
0.0358608
0.0360645
0.0362107
0.0363339
0.0364751
0.0366846
0.0369749
0.0373532
0.0378066
0.0383023
0.0388054
0.0392362
0.0352027
0.035024
0.0351278
0.035407
0.0357116
0.0359665
0.0361623
0.0363303
0.0365158
0.0367631
0.0370932
0.0375137
0.0380064
0.0385192
0.0389995
0.0394667
0.0351093
0.0348636
0.0349197
0.0352137
0.0355628
0.0358644
0.0361008
0.0363026
0.036521
0.0367975
0.0371708
0.0376511
0.0382203
0.038812
0.0393458
0.0399082
0.0350514
0.0347773
0.034788
0.0350736
0.0354401
0.0357614
0.0360116
0.0362208
0.0364438
0.0367267
0.0371182
0.0376366
0.0382704
0.0389474
0.0395427
0.0402669
0.0350294
0.0347526
0.0347268
0.0349819
0.0353352
0.0356464
0.0358822
0.0360694
0.0362673
0.0365232
0.0368916
0.0374001
0.0380476
0.038764
0.0393814
0.0402041
0.0350075
0.0347406
0.0346917
0.0349085
0.0352264
0.0355021
0.0357002
0.0358437
0.0359768
0.0361652
0.0364583
0.0368869
0.0374588
0.0381057
0.0386092
0.0392912
0.0349484
0.0346909
0.0346272
0.0348069
0.0350789
0.0352974
0.0354452
0.035515
0.0355625
0.0356437
0.0358011
0.0360576
0.0364194
0.0367968
0.0368954
0.0365694
0.0348295
0.0345764
0.0344995
0.034648
0.0348805
0.0350565
0.0351139
0.0350979
0.0350409
0.0349807
0.0349443
0.0349222
0.0348891
0.0346087
0.0339587
0.0290592
0.0353151
0.0352336
0.0353845
0.0356555
0.0359253
0.0361372
0.0362924
0.0364255
0.0365777
0.0367997
0.0371033
0.0374945
0.0379593
0.0384645
0.0389742
0.0394072
0.0352552
0.0350752
0.0351785
0.035462
0.0357739
0.0360373
0.0362426
0.0364209
0.0366176
0.0368781
0.0372215
0.0376543
0.0381569
0.0386772
0.039162
0.0396317
0.0351639
0.0349172
0.0349717
0.035269
0.0356252
0.0359356
0.0361818
0.0363946
0.0366252
0.0369139
0.0372998
0.0377909
0.0383673
0.0389615
0.0394911
0.0400651
0.0351089
0.0348347
0.0348436
0.0351317
0.0355051
0.0358349
0.0360945
0.0363143
0.0365489
0.0368437
0.0372466
0.0377742
0.0384125
0.0390886
0.0396824
0.0403967
0.0350899
0.034814
0.034787
0.0350441
0.0354035
0.0357223
0.0359666
0.0361634
0.0363717
0.0366383
0.0370166
0.0375325
0.0381817
0.0388929
0.0395054
0.0403077
0.0350704
0.034805
0.0347556
0.034974
0.035297
0.035579
0.0357842
0.0359357
0.0360778
0.0362754
0.0365767
0.0370103
0.0375806
0.0382155
0.0386978
0.0393706
0.0350123
0.0347566
0.034693
0.0348738
0.0351498
0.035373
0.0355266
0.0356026
0.0356572
0.0357457
0.0359093
0.0361683
0.0365248
0.0368842
0.0369473
0.0365765
0.0348924
0.0346413
0.0345646
0.0347138
0.0349495
0.0351296
0.0351901
0.0351783
0.0351265
0.0350717
0.0350396
0.035018
0.0349763
0.0346734
0.0339514
0.0289636
0.0337961
0.0338772
0.0339829
0.0340255
0.0339643
0.0337819
0.0334738
0.0330415
0.0324857
0.0318036
0.0309857
0.0300171
0.0288783
0.0275523
0.0260289
0.0243339
0.0337692
0.0338649
0.0339942
0.0340533
0.0340008
0.0338208
0.033511
0.0330748
0.0325149
0.0318289
0.0310085
0.0300394
0.0289006
0.027577
0.0260538
0.024361
0.0337166
0.0338206
0.0339788
0.0340663
0.0340323
0.0338601
0.0335499
0.0331086
0.0325421
0.0318502
0.0310257
0.0300548
0.028919
0.0276033
0.0260898
0.0244123
0.0336492
0.0337492
0.0339269
0.0340406
0.0340264
0.0338639
0.0335546
0.0331086
0.0325343
0.0318343
0.0310037
0.0300305
0.0288962
0.027588
0.0260842
0.0244204
0.0335739
0.033664
0.0338513
0.033984
0.0339859
0.0338317
0.0335231
0.0330722
0.0324897
0.031781
0.0309428
0.0299651
0.0288305
0.0275281
0.0260355
0.0243905
0.0334959
0.0335766
0.0337676
0.0339122
0.0339247
0.0337754
0.0334653
0.0330076
0.0324158
0.031697
0.0308496
0.0298657
0.0287295
0.0274326
0.0259539
0.0243318
0.0334198
0.0334936
0.0336857
0.0338362
0.0338533
0.0337041
0.0333893
0.0329232
0.0323207
0.0315904
0.0307327
0.0297415
0.0286035
0.0273127
0.0258518
0.0242583
0.0333494
0.0334197
0.0336111
0.0337623
0.0337783
0.033625
0.0333026
0.0328264
0.0322122
0.0314698
0.0306012
0.0296026
0.0284635
0.0271806
0.0257418
0.0241826
0.0337462
0.0338121
0.0339152
0.0339614
0.0339072
0.0337322
0.0334303
0.0330024
0.0324495
0.0317682
0.0309492
0.0299762
0.0288295
0.0274907
0.025946
0.0242285
0.0336972
0.0337626
0.0338829
0.0339452
0.0339035
0.0337361
0.0334372
0.0330091
0.032454
0.0317702
0.0309485
0.0299739
0.0288243
0.0274858
0.0259401
0.02423
0.0336253
0.0336842
0.0338275
0.0339189
0.0338997
0.0337449
0.03345
0.0330202
0.0324611
0.031772
0.0309458
0.0299695
0.0288219
0.0274911
0.0259522
0.0242548
0.0335492
0.0335915
0.0337483
0.0338663
0.0338697
0.0337283
0.0334377
0.0330059
0.0324413
0.0317458
0.0309145
0.0299361
0.0287899
0.027466
0.0259354
0.0242534
0.0334708
0.0334935
0.0336545
0.0337915
0.0338133
0.0336832
0.0333954
0.0329623
0.032391
0.0316881
0.0308504
0.0298682
0.0287219
0.0274042
0.0258841
0.0242203
0.0333917
0.0333982
0.0335587
0.0337077
0.0337418
0.033619
0.0333339
0.032894
0.032315
0.0316032
0.0307574
0.0297698
0.0286228
0.0273114
0.0258059
0.0241657
0.0333152
0.0333103
0.033469
0.033624
0.0336644
0.0335437
0.0332544
0.0328083
0.0322198
0.0314976
0.0306424
0.0296485
0.0285009
0.027197
0.0257115
0.0241015
0.0332447
0.033235
0.0333917
0.0335473
0.0335871
0.033463
0.0331672
0.032712
0.0321125
0.031379
0.0305139
0.0295136
0.0283664
0.0270723
0.0256124
0.0240392
0.0336966
0.0337428
0.0338449
0.0339011
0.0338616
0.0337026
0.0334168
0.0330053
0.0324688
0.0318033
0.0309987
0.0300332
0.0288781
0.027507
0.0258896
0.0240613
0.03363
0.033664
0.0337811
0.0338565
0.0338343
0.0336878
0.0334093
0.0330009
0.032465
0.0318005
0.0309935
0.0300262
0.0288688
0.0274984
0.0258752
0.0240588
0.0335338
0.0335481
0.0336845
0.0337933
0.0337998
0.0336718
0.0334023
0.0329961
0.0324596
0.0317907
0.0309814
0.0300143
0.0288593
0.0274972
0.0258774
0.0240737
0.0334386
0.0334247
0.0335687
0.0337068
0.0337412
0.033632
0.0333711
0.0329658
0.0324266
0.0317534
0.0309404
0.0299722
0.0288186
0.0274634
0.025848
0.0240576
0.0333478
0.0333054
0.0334465
0.0336045
0.0336612
0.0335674
0.0333138
0.0329103
0.0323651
0.0316858
0.030867
0.0298953
0.0287414
0.0273923
0.0257855
0.0240137
0.0332608
0.0331961
0.0333305
0.0335002
0.0335718
0.0334882
0.0332383
0.0328309
0.0322794
0.0315917
0.0307646
0.0297873
0.0286323
0.02729
0.0256992
0.0239549
0.0331787
0.0330988
0.0332274
0.0334022
0.033482
0.0334025
0.0331506
0.0327367
0.0321759
0.0314773
0.0306399
0.0296553
0.0284992
0.0271657
0.0255997
0.0238933
0.0331073
0.0330201
0.0331438
0.0333196
0.0333981
0.0333154
0.0330572
0.032634
0.0320615
0.0313504
0.0305015
0.0295089
0.0283527
0.0270304
0.0254981
0.0238392
0.0336761
0.0336985
0.0337977
0.0338662
0.0338459
0.0337094
0.0334485
0.0330646
0.0325587
0.0319271
0.0311542
0.0302117
0.0290562
0.027641
0.0258999
0.0238658
0.0336001
0.0335992
0.0337106
0.0338013
0.0338027
0.033683
0.0334332
0.0330558
0.0325531
0.031925
0.0311525
0.0302104
0.0290542
0.0276422
0.0258933
0.0238748
0.0334832
0.0334511
0.0335762
0.0337037
0.0337396
0.0336444
0.0334086
0.0330378
0.0325392
0.0319083
0.0311361
0.0301968
0.0290444
0.0276416
0.0258888
0.0238798
0.0333685
0.0333
0.0334248
0.0335829
0.0336515
0.03358
0.0333574
0.032991
0.0324917
0.0318594
0.0310851
0.0301459
0.028995
0.0275982
0.0258423
0.0238417
0.0332639
0.0331618
0.0332755
0.0334523
0.0335459
0.0334935
0.0332814
0.0329186
0.0324152
0.0317778
0.0309979
0.030055
0.028903
0.0275114
0.0257605
0.0237795
0.0331679
0.033041
0.0331409
0.033327
0.0334367
0.0333964
0.0331894
0.0328244
0.0323145
0.031668
0.0308785
0.0299283
0.0287737
0.027389
0.0256559
0.023711
0.0330789
0.0329366
0.0330257
0.0332145
0.033332
0.0332967
0.0330887
0.0327165
0.032196
0.0315364
0.0307337
0.0297729
0.0286148
0.0272397
0.0255388
0.0236477
0.033006
0.032852
0.0329336
0.0331222
0.0332389
0.0331996
0.0329843
0.0326014
0.0320669
0.0313914
0.0305728
0.0295995
0.0284379
0.0270744
0.0254187
0.0235964
0.0336951
0.0336925
0.0337869
0.0338682
0.0338697
0.0337602
0.033531
0.0331841
0.0327213
0.0321408
0.0314203
0.0305229
0.029385
0.0279248
0.0260197
0.0236606
0.0336135
0.033576
0.0336773
0.0337824
0.0338095
0.0337212
0.0335072
0.0331707
0.0327165
0.0321396
0.0314223
0.0305278
0.0293909
0.0279357
0.026022
0.0236876
0.0334819
0.0334027
0.0335091
0.0336517
0.0337178
0.0336592
0.033464
0.033138
0.0326892
0.0321154
0.0314018
0.0305127
0.0293805
0.0279314
0.026002
0.0236628
0.0333534
0.0332323
0.0333287
0.0334997
0.0336012
0.0335701
0.0333919
0.0330736
0.0326275
0.0320538
0.0313399
0.0304519
0.0293203
0.0278719
0.0259268
0.0235842
0.0332399
0.0330837
0.0331598
0.0333451
0.0334718
0.0334618
0.0332962
0.0329832
0.0325342
0.0319556
0.0312359
0.0303434
0.0292089
0.0277623
0.0258163
0.0234959
0.0331389
0.0329582
0.0330135
0.0332028
0.0333439
0.0333463
0.0331859
0.0328716
0.032415
0.0318254
0.0310935
0.0301907
0.0290509
0.0276109
0.0256853
0.0234196
0.0330464
0.032851
0.0328906
0.0330781
0.0332239
0.0332317
0.0330706
0.0327461
0.0322761
0.0316697
0.0309195
0.0300005
0.0288531
0.027424
0.0255412
0.0233621
0.0329673
0.0327617
0.0327913
0.032976
0.0331222
0.0331219
0.0329509
0.0326134
0.0321256
0.0314975
0.0307241
0.0297845
0.0286268
0.0272101
0.0253875
0.0233181
0.0337589
0.0337344
0.033825
0.0339202
0.0339455
0.0338662
0.0336737
0.033372
0.032966
0.0324533
0.0318109
0.0309916
0.0299074
0.0284186
0.0263104
0.023428
0.0336744
0.033604
0.0336948
0.0338141
0.0338683
0.0338145
0.0336414
0.033354
0.0329592
0.0324538
0.0318179
0.0310044
0.0299219
0.0284276
0.0262878
0.0233706
0.0335347
0.0334141
0.0335002
0.0336552
0.0337513
0.0337314
0.0335813
0.033308
0.0329221
0.0324237
0.0317957
0.0309912
0.0299132
0.0284059
0.0262121
0.0231917
0.0333999
0.0332346
0.0333009
0.0334795
0.0336112
0.0336209
0.0334904
0.0332274
0.0328465
0.0323502
0.0317242
0.0309226
0.0298442
0.0283209
0.0260818
0.0229899
0.0332845
0.0330852
0.0331228
0.0333088
0.0334633
0.0334938
0.0333763
0.0331193
0.0327359
0.0322343
0.0316023
0.0307952
0.0297126
0.0281822
0.0259311
0.0228393
0.0331842
0.0329628
0.0329738
0.0331564
0.0333213
0.0333621
0.0332469
0.0329895
0.0325958
0.0320801
0.0314321
0.0306103
0.0295197
0.0279941
0.0257703
0.0227591
0.0330919
0.0328575
0.0328489
0.033024
0.0331892
0.0332331
0.0331189
0.0328434
0.0324319
0.0318932
0.0312191
0.0303721
0.0292675
0.0277563
0.0255988
0.0227535
0.0330049
0.0327648
0.0327444
0.0329128
0.0330758
0.0331086
0.0329791
0.0326882
0.032253
0.0316841
0.030975
0.0300928
0.0289649
0.0274701
0.025411
0.0228109
0.0338684
0.0338266
0.0339162
0.0340273
0.0340785
0.0340321
0.0338807
0.0336313
0.0332936
0.0328685
0.0323356
0.0316445
0.0306879
0.0292542
0.0269491
0.0231984
0.0337835
0.0336857
0.0337683
0.0339027
0.0339855
0.0339687
0.0338408
0.0336098
0.0332866
0.032873
0.0323518
0.0316729
0.0307237
0.029265
0.0268344
0.0226644
0.0336416
0.0334874
0.0335558
0.0337226
0.0338487
0.0338688
0.0337674
0.0335536
0.0332429
0.0328408
0.032334
0.0316729
0.0307367
0.0292415
0.026667
0.022007
0.0335076
0.0333083
0.0333482
0.0335325
0.0336923
0.0337424
0.0336618
0.0334598
0.0331561
0.0327583
0.032258
0.0316061
0.0306774
0.0291518
0.0264856
0.0214944
0.0333968
0.0331665
0.0331714
0.033355
0.0335331
0.0336018
0.0335332
0.0333358
0.0330292
0.0326255
0.0321193
0.0314636
0.0305363
0.0289988
0.0263177
0.0211898
0.033302
0.0330535
0.0330279
0.0332002
0.0333828
0.0334579
0.0333894
0.0331891
0.0328671
0.0324444
0.0319171
0.0312415
0.030306
0.0287726
0.0261487
0.0210772
0.0332124
0.0329538
0.0329064
0.0330648
0.0332424
0.0333148
0.0332414
0.0330193
0.0326736
0.0322195
0.0316544
0.0309385
0.0299771
0.0284542
0.0259547
0.0211677
0.0331202
0.0328587
0.032798
0.0329455
0.0331154
0.0331743
0.0330811
0.0328366
0.0324591
0.0319625
0.0313442
0.0305656
0.0295487
0.0280184
0.0257023
0.021508
0.0340197
0.0339647
0.0340569
0.0341864
0.0342657
0.0342548
0.0341479
0.0339565
0.0336965
0.0333766
0.0329854
0.0324844
0.0317795
0.0306565
0.0285822
0.0242239
0.0339361
0.0338163
0.0338941
0.0340456
0.0341587
0.0341812
0.0341019
0.033933
0.0336918
0.0333884
0.0330159
0.032539
0.0318636
0.0307427
0.0284818
0.0230413
0.0337968
0.0336162
0.0336714
0.0338514
0.0340081
0.0340695
0.0340196
0.0338709
0.0336458
0.0333591
0.03301
0.0325677
0.0319352
0.0308191
0.0283933
0.0219135
0.0336691
0.0334446
0.0334647
0.0336557
0.0338432
0.0339337
0.0339045
0.0337681
0.0335516
0.0332719
0.0329355
0.0325158
0.0319174
0.0308114
0.0283253
0.0211779
0.0335678
0.0333165
0.0332975
0.03348
0.0336801
0.0337855
0.0337655
0.0336303
0.0334106
0.0331238
0.0327824
0.0323646
0.0317844
0.030698
0.0282621
0.0207971
0.0334821
0.0332173
0.033166
0.0333297
0.0335274
0.0336336
0.0336104
0.0334701
0.0332262
0.032914
0.032545
0.0321012
0.0315142
0.0304434
0.0281453
0.0206668
0.0333968
0.0331252
0.0330513
0.0331952
0.0333813
0.0334777
0.0334427
0.0332742
0.0329997
0.032645
0.0322225
0.0317157
0.0310782
0.0299846
0.0278873
0.0207123
0.0333012
0.0330282
0.0329402
0.0330689
0.0332418
0.0333207
0.0332589
0.0330595
0.032743
0.03233
0.0318293
0.031216
0.0304558
0.0292157
0.0273202
0.0207714
0.033405
0.0331254
0.033015
0.0331217
0.0332811
0.0333523
0.0332865
0.0330855
0.0327688
0.0323566
0.0318578
0.0312437
0.030485
0.0292131
0.0273053
0.0203244
0.0332644
0.0329783
0.0328735
0.032983
0.0331328
0.0331827
0.0330849
0.0328388
0.0324605
0.0319631
0.0313426
0.0305548
0.029516
0.0279181
0.0254487
0.020923
0.0331402
0.0328435
0.0327556
0.0328779
0.0330218
0.0330512
0.0329211
0.0326313
0.0321957
0.0316244
0.0309076
0.0300083
0.0288378
0.027277
0.0250492
0.0224015
0.0330436
0.0327535
0.032698
0.0328381
0.0329738
0.0329789
0.0328143
0.0324816
0.0319947
0.0313634
0.0305796
0.0296208
0.0284188
0.0269548
0.0250075
0.0229263
0.033006
0.0327435
0.0327331
0.0328851
0.033002
0.0329746
0.0327711
0.0323956
0.0318632
0.0311847
0.0303559
0.0293656
0.0281672
0.0267682
0.0250225
0.0231656
0.0330487
0.0328343
0.0328682
0.0330132
0.0330951
0.033026
0.0327806
0.0323653
0.0317953
0.0310821
0.0302251
0.029219
0.0280346
0.0266836
0.0250879
0.0233904
0.0331527
0.0330088
0.0330759
0.0331965
0.033233
0.0331183
0.0328336
0.0323865
0.0317914
0.0310588
0.0301899
0.029181
0.0280137
0.0266966
0.0251911
0.0235819
0.0332356
0.0331713
0.0332638
0.0333685
0.033374
0.0332272
0.0329164
0.0324513
0.031846
0.0311097
0.0302428
0.0292402
0.0280866
0.0267836
0.0253067
0.0237129
0.0336463
0.0333683
0.0332504
0.0333495
0.0335104
0.0335912
0.0335432
0.0333719
0.0330989
0.0327485
0.0323344
0.0318314
0.0312058
0.0300366
0.0279472
0.0198021
0.0334823
0.033195
0.0330798
0.0331803
0.0333301
0.0333871
0.033303
0.033079
0.0327325
0.0322782
0.0317121
0.0309832
0.0299913
0.0283402
0.0256063
0.0201618
0.0333276
0.0330267
0.0329255
0.0330393
0.0331847
0.0332212
0.0331026
0.0328292
0.0324159
0.0318726
0.031187
0.0303133
0.029145
0.0275179
0.0251017
0.0221143
0.033207
0.0329023
0.0328309
0.0329655
0.0331062
0.0331203
0.0329664
0.0326462
0.0321743
0.0315601
0.0307924
0.0298428
0.0286284
0.0271204
0.025048
0.0228306
0.0331422
0.0328617
0.0328363
0.0329879
0.033114
0.0330977
0.0329043
0.0325384
0.0320154
0.0313463
0.0305244
0.0295349
0.0283201
0.0268877
0.0250506
0.0231007
0.0331663
0.0329324
0.0329554
0.0331053
0.0331994
0.0331422
0.032906
0.0324974
0.0319326
0.0312235
0.0303677
0.0293578
0.0281562
0.0267763
0.0251139
0.0233461
0.0332609
0.0331004
0.0331632
0.0332927
0.0333422
0.0332386
0.0329611
0.0325181
0.0319254
0.0311941
0.0303238
0.0293094
0.0281264
0.0267839
0.0252281
0.0235618
0.0333406
0.0332669
0.033362
0.0334781
0.0334963
0.0333586
0.0330528
0.0325901
0.0319861
0.0312505
0.0303827
0.0293756
0.0282088
0.0268828
0.0253619
0.023714
0.0338962
0.033622
0.0335036
0.033602
0.0337672
0.033857
0.0338236
0.0336767
0.0334399
0.0331396
0.0327898
0.0323597
0.0317966
0.0306065
0.0282936
0.0192541
0.0337107
0.0334235
0.0333049
0.0334024
0.0335545
0.0336176
0.033544
0.0333372
0.0330162
0.0325962
0.0320709
0.031379
0.0304009
0.0286655
0.0256968
0.0196112
0.0335254
0.0332231
0.0331151
0.0332253
0.0333734
0.0334157
0.0333053
0.0330441
0.0326479
0.0321262
0.0314633
0.0306038
0.0294244
0.0277219
0.0251332
0.0218627
0.0333787
0.0330653
0.0329841
0.0331165
0.0332625
0.0332839
0.0331375
0.0328262
0.0323652
0.0317636
0.0310067
0.03006
0.0288276
0.0272698
0.0250787
0.0227331
0.0332888
0.0329949
0.0329592
0.0331123
0.0332471
0.03324
0.0330542
0.0326946
0.0321779
0.031515
0.0306966
0.0297044
0.0284708
0.0270025
0.0250797
0.0230433
0.0332943
0.0330451
0.0330605
0.033216
0.0333215
0.0332746
0.0330453
0.032641
0.032079
0.0313716
0.0305148
0.029499
0.0282794
0.0268703
0.0251452
0.0233113
0.0333788
0.0332051
0.0332657
0.0334042
0.033466
0.0333721
0.0331002
0.0326595
0.0320673
0.0313352
0.0304621
0.0294408
0.0282416
0.026874
0.0252703
0.0235497
0.0334552
0.0333743
0.0334731
0.0336008
0.0336311
0.0335017
0.0331996
0.0327376
0.0321331
0.0313966
0.0305263
0.0295133
0.0283327
0.0269838
0.0254209
0.0237213
0.0341361
0.0338667
0.0337519
0.0338543
0.0340263
0.034125
0.0341035
0.0339755
0.0337664
0.0335024
0.0331956
0.0328054
0.0322594
0.0310026
0.0284689
0.0187119
0.0339308
0.0336452
0.0335275
0.0336266
0.0337831
0.033852
0.0337863
0.0335922
0.03329
0.0328942
0.0323953
0.0317209
0.0307345
0.0289073
0.0257333
0.0191642
0.033718
0.0334155
0.0333053
0.0334157
0.0335678
0.0336153
0.0335108
0.033258
0.0328737
0.0323666
0.0317174
0.0308617
0.029662
0.0278847
0.0251451
0.0216483
0.0335463
0.0332274
0.0331407
0.0332737
0.0334253
0.0334529
0.033312
0.0330064
0.0325524
0.0319586
0.0312072
0.0302578
0.0290035
0.0273958
0.0250994
0.0226429
0.0334335
0.0331297
0.0330874
0.0332433
0.0333864
0.0333871
0.0332068
0.0328513
0.0323382
0.0316782
0.0308601
0.0298622
0.0286085
0.0271047
0.0251059
0.0229935
0.0334217
0.0331606
0.033171
0.0333325
0.0334484
0.0334103
0.0331864
0.0327845
0.0322234
0.0315156
0.030656
0.0296328
0.0283952
0.0269578
0.025177
0.0232843
0.0334965
0.0333123
0.0333721
0.0335195
0.0335925
0.0335071
0.0332395
0.0327997
0.0322066
0.0314724
0.0305952
0.0295662
0.028351
0.0269595
0.0253127
0.023543
0.0335695
0.0334832
0.0335864
0.0337252
0.0337667
0.0336446
0.0333453
0.032883
0.0322768
0.0315379
0.030664
0.0296442
0.0284498
0.0270791
0.0254777
0.0237313
0.0343493
0.0340847
0.0339753
0.0340843
0.0342642
0.034371
0.0343589
0.0342448
0.034055
0.0338152
0.033534
0.0331612
0.0326079
0.0312716
0.0285456
0.0182265
0.0341266
0.0338435
0.0337288
0.0338321
0.0339941
0.0340684
0.0340087
0.0338233
0.0335337
0.0331532
0.0326689
0.0319986
0.0309923
0.0290775
0.0257321
0.0187961
0.0338911
0.0335891
0.033479
0.0335918
0.0337487
0.0338007
0.0337004
0.0334529
0.033076
0.0325776
0.0319349
0.0310756
0.0298517
0.0280061
0.0251417
0.0214701
0.0336976
0.0333749
0.0332855
0.0334206
0.0335779
0.0336107
0.0334735
0.0331714
0.0327213
0.0321314
0.0313813
0.0304255
0.0291485
0.0274951
0.025111
0.022564
0.033565
0.0332538
0.0332073
0.0333668
0.0335174
0.0335246
0.0333484
0.0329951
0.0324833
0.031824
0.031004
0.0299987
0.0287254
0.0271893
0.0251271
0.0229513
0.033538
0.0332679
0.033275
0.0334423
0.0335673
0.0335366
0.0333166
0.032916
0.0323544
0.031645
0.0307814
0.0297503
0.0284958
0.0270331
0.0252054
0.023263
0.0336041
0.0334119
0.0334717
0.0336271
0.03371
0.0336317
0.0333673
0.0329277
0.0323328
0.0315958
0.0307138
0.029677
0.0284472
0.0270343
0.0253508
0.0235393
0.033674
0.0335838
0.0336913
0.03384
0.0338914
0.0337757
0.0334784
0.0330152
0.0324066
0.0316647
0.0307864
0.0297597
0.0285525
0.0271621
0.0255278
0.0237412
0.0345221
0.0342618
0.0341579
0.0342742
0.0344618
0.0345755
0.0345703
0.0344655
0.0342882
0.034063
0.0337952
0.0334266
0.0328565
0.0314481
0.0285736
0.0178459
0.0342857
0.0340051
0.0338941
0.0340025
0.0341702
0.0342491
0.0341935
0.0340136
0.0337315
0.0333597
0.0328821
0.0322086
0.0311794
0.0291911
0.0257147
0.0185158
0.0340325
0.0337312
0.0336225
0.0337388
0.0339005
0.0339562
0.0338586
0.0336141
0.0332413
0.0327471
0.0321061
0.0312399
0.0299926
0.0280908
0.025131
0.0213335
0.0338216
0.0334966
0.0334061
0.0335441
0.0337065
0.0337435
0.0336088
0.0333084
0.03286
0.0322714
0.03152
0.0305564
0.0292591
0.027568
0.0251167
0.0225018
0.0336733
0.0333571
0.0333081
0.0334712
0.0336282
0.0336405
0.0334669
0.0331146
0.032603
0.0319429
0.0311198
0.0301069
0.0288168
0.0272541
0.025143
0.0229182
0.0336341
0.0333576
0.0333628
0.0335352
0.0336677
0.0336427
0.0334255
0.0330252
0.0324626
0.0317509
0.0308832
0.0298448
0.0285761
0.0270926
0.0252284
0.0232472
0.0336933
0.0334954
0.0335556
0.0337177
0.0338084
0.0337358
0.0334737
0.0330338
0.0324369
0.0316969
0.0308104
0.0297666
0.0285246
0.0270942
0.0253818
0.0235373
0.0337606
0.0336678
0.033779
0.0339359
0.0339953
0.0338846
0.0335888
0.0331245
0.0325135
0.0317684
0.030886
0.0298531
0.028635
0.0272283
0.0255678
0.0237496
0.0346434
0.034387
0.0342879
0.0344112
0.0346065
0.0347264
0.0347259
0.0346267
0.0344563
0.0342388
0.033977
0.0336075
0.0330214
0.0315612
0.0285877
0.0176021
0.0343976
0.0341196
0.0340121
0.0341261
0.0343
0.0343832
0.0343304
0.0341535
0.0338753
0.0335076
0.033032
0.0323535
0.0313056
0.0292642
0.0256981
0.0183301
0.0341323
0.0338324
0.0337256
0.0338463
0.0340133
0.0340726
0.0339767
0.0337336
0.0333624
0.0328696
0.0322279
0.0313547
0.0300889
0.028146
0.0251206
0.021242
0.0339094
0.0335838
0.0334937
0.0336355
0.0338032
0.0338436
0.0337105
0.0334106
0.0329625
0.0323735
0.0316198
0.0306492
0.0293363
0.0276179
0.0251214
0.0224624
0.0337503
0.0334317
0.0333824
0.0335495
0.0337121
0.0337284
0.0335564
0.0332042
0.0326919
0.0320302
0.031204
0.0301847
0.0288821
0.0273003
0.0251563
0.0228982
0.0337027
0.0334232
0.0334284
0.0336054
0.0337438
0.033723
0.0335075
0.0331069
0.0325428
0.0318289
0.0309576
0.0299132
0.0286341
0.0271357
0.0252467
0.0232384
0.0337571
0.0335566
0.0336182
0.0337856
0.0338822
0.0338135
0.0335528
0.0331122
0.0325135
0.0317708
0.0308806
0.0298314
0.0285805
0.0271374
0.0254052
0.0235376
0.0338226
0.0337289
0.0338432
0.034006
0.0340712
0.033964
0.033669
0.0332036
0.0325906
0.0318429
0.0309571
0.0299193
0.0286932
0.0272749
0.0255965
0.0237562
0.0347036