/*--------------------------------*- C++ -*----------------------------------*\
| =========                 |                                                 |
| \\      /  F ield         | foam-extend: Open Source CFD                    |
|  \\    /   O peration     | Version:     3.1                                |
|   \\  /    A nd           | Web:         http://www.extend-project.de       |
|    \\/     M anipulation  |                                                 |
\*---------------------------------------------------------------------------*/
FoamFile
{
    version     2.0;
    format      ascii;
    class       surfaceScalarField;
    location    "1.4";
    object      phi;
}
// * * * * * * * * * * * * * * * * * * * * * * * * * * * * * * * * * * * * * //

dimensions      [0 3 -1 0 0 0 0];

internalField   nonuniform List<scalar> 
41600
(
1.17776e-05
1.2719e-08
-1.91511e-06
1.93556e-06
1.23047e-05
-6.40561e-07
-4.57335e-06
4.68678e-06
1.33692e-05
-1.20023e-06
-6.20876e-06
6.34455e-06
1.46612e-05
-1.39337e-06
-7.01792e-06
7.11923e-06
1.58572e-05
-1.24278e-06
-7.29046e-06
7.33728e-06
1.67626e-05
-9.02469e-07
-7.31825e-06
7.31533e-06
1.73199e-05
-5.19287e-07
-7.34529e-06
7.30728e-06
1.75486e-05
-1.71745e-07
-7.5588e-06
7.50185e-06
1.75065e-05
1.01207e-07
-8.10467e-06
8.04554e-06
1.72665e-05
2.8293e-07
-9.11974e-06
9.0768e-06
1.68931e-05
3.68143e-07
-1.07549e-05
1.07602e-05
1.64523e-05
3.16694e-07
-1.3221e-05
1.33451e-05
1.59543e-05
6.2334e-08
-1.6823e-05
1.72587e-05
1.50635e-05
-4.85265e-07
-2.18376e-05
2.32136e-05
1.1747e-05
-1.03729e-06
-2.74173e-05
3.17711e-05
-9.38566e-07
-2.48484e-05
3.8446e-05
3.30959e-05
-7.43707e-08
-2.34272e-06
2.48034e-06
3.38095e-05
-1.82561e-06
-7.87957e-06
8.35093e-06
3.53626e-05
-3.36119e-06
-1.22151e-05
1.28231e-05
3.73799e-05
-3.97413e-06
-1.47529e-05
1.53163e-05
3.93594e-05
-3.65534e-06
-1.57801e-05
1.62132e-05
4.0922e-05
-2.75936e-06
-1.5894e-05
1.61883e-05
4.18932e-05
-1.67589e-06
-1.56906e-05
1.58761e-05
4.22537e-05
-6.48715e-07
-1.56498e-05
1.57663e-05
4.20524e-05
2.15931e-07
-1.6134e-05
1.62205e-05
4.13441e-05
8.93714e-07
-1.74358e-05
1.75333e-05
4.01459e-05
1.39874e-06
-1.98456e-05
2.00132e-05
3.83905e-05
1.71309e-06
-2.37285e-05
2.40876e-05
3.57796e-05
1.78851e-06
-2.96002e-05
3.04849e-05
3.11668e-05
1.54584e-06
-3.793e-05
4.05117e-05
2.10844e-05
8.89939e-07
-4.69688e-05
5.5124e-05
-9.76092e-07
-4.01045e-05
6.39309e-05
5.13202e-05
-1.11418e-07
-1.63119e-06
1.78208e-06
5.12404e-05
-2.41461e-06
-7.472e-06
8.14083e-06
5.1669e-05
-4.74692e-06
-1.32264e-05
1.41835e-05
5.26326e-05
-5.89481e-06
-1.72775e-05
1.82346e-05
5.38367e-05
-5.6478e-06
-1.93368e-05
2.01251e-05
5.49064e-05
-4.40795e-06
-1.98973e-05
2.04762e-05
5.55709e-05
-2.74306e-06
-1.97039e-05
2.01065e-05
5.56987e-05
-1.06028e-06
-1.94432e-05
1.9727e-05
5.52515e-05
4.40227e-07
-1.96493e-05
1.98722e-05
5.42016e-05
1.72448e-06
-2.07314e-05
2.09505e-05
5.24768e-05
2.83413e-06
-2.30594e-05
2.33488e-05
4.98815e-05
3.80463e-06
-2.70605e-05
2.75643e-05
4.59182e-05
4.65335e-06
-3.33349e-05
3.44334e-05
3.90265e-05
5.34869e-06
-4.25456e-05
4.56344e-05
2.50575e-05
5.19012e-06
-5.29941e-05
6.26629e-05
4.30784e-07
-4.53982e-05
7.3914e-05
6.6576e-05
-1.19553e-07
-1.03067e-06
1.13659e-06
6.57344e-05
-2.28688e-06
-6.1797e-06
6.89355e-06
6.46902e-05
-4.84605e-06
-1.23274e-05
1.34708e-05
6.39037e-05
-6.32476e-06
-1.73536e-05
1.857e-05
6.34946e-05
-6.27581e-06
-2.03344e-05
2.13715e-05
6.33036e-05
-4.99079e-06
-2.14403e-05
2.22141e-05
6.3082e-05
-3.06159e-06
-2.14049e-05
2.19451e-05
6.26144e-05
-9.70627e-07
-2.10419e-05
2.14198e-05
6.17708e-05
9.92503e-07
-2.1021e-05
2.13123e-05
6.04101e-05
2.81096e-06
-2.1841e-05
2.21153e-05
5.83655e-05
4.53756e-06
-2.39257e-05
2.42669e-05
5.53362e-05
6.26951e-06
-2.77349e-05
2.82992e-05
5.07073e-05
8.10013e-06
-3.39102e-05
3.50924e-05
4.26697e-05
1.01049e-05
-4.32961e-05
4.65774e-05
2.6536e-05
1.10686e-05
-5.45104e-05
6.47657e-05
3.56456e-06
-4.76042e-05
7.85617e-05
7.88338e-05
-1.44017e-07
-7.07005e-07
7.63156e-07
7.75974e-05
-1.74092e-06
-5.11898e-06
5.80947e-06
7.54492e-05
-3.92682e-06
-1.12059e-05
1.24348e-05
7.30717e-05
-5.32763e-06
-1.67615e-05
1.81419e-05
7.0972e-05
-5.38399e-06
-2.04103e-05
2.16182e-05
6.93045e-05
-4.2277e-06
-2.19745e-05
2.28789e-05
6.79638e-05
-2.3423e-06
-2.20954e-05
2.27168e-05
6.67197e-05
-1.45395e-07
-2.16539e-05
2.20727e-05
6.5397e-05
2.00213e-06
-2.1428e-05
2.17411e-05
6.37498e-05
4.17332e-06
-2.19838e-05
2.22687e-05
6.15274e-05
6.41351e-06
-2.37796e-05
2.4126e-05
5.83361e-05
8.89223e-06
-2.72892e-05
2.78578e-05
5.34627e-05
1.17893e-05
-3.31652e-05
3.43494e-05
4.48686e-05
1.54034e-05
-4.2406e-05
4.57016e-05
2.72154e-05
1.83147e-05
-5.40008e-05
6.44079e-05
8.79281e-06
-4.81331e-05
8.06903e-05
8.80235e-05
-1.78191e-07
-5.52862e-07
5.72854e-07
8.66496e-05
-1.01989e-06
-4.43667e-06
5.08963e-06
8.38602e-05
-2.40402e-06
-1.03482e-05
1.16147e-05
8.03693e-05
-3.3229e-06
-1.6162e-05
1.76482e-05
7.69383e-05
-3.28212e-06
-2.024e-05
2.15691e-05
7.40043e-05
-2.29161e-06
-2.21244e-05
2.31224e-05
7.16353e-05
-6.4896e-07
-2.23455e-05
2.30211e-05
6.97232e-05
1.31871e-06
-2.18141e-05
2.22622e-05
6.79743e-05
3.43572e-06
-2.13647e-05
2.168e-05
6.61504e-05
5.72275e-06
-2.16273e-05
2.19018e-05
6.39326e-05
8.30486e-06
-2.30734e-05
2.33998e-05
6.08588e-05
1.14316e-05
-2.6167e-05
2.67014e-05
5.61351e-05
1.53901e-05
-3.15314e-05
3.26543e-05
4.75018e-05
2.08862e-05
-4.02775e-05
4.34281e-05
2.86343e-05
2.69815e-05
-5.18753e-05
6.20759e-05
1.74984e-05
-4.71051e-05
8.07894e-05
9.41305e-05
-2.01677e-07
-4.75334e-07
4.73516e-07
9.27267e-05
-2.39189e-07
-4.03503e-06
4.6582e-06
8.96259e-05
-5.85684e-07
-9.78814e-06
1.10706e-05
8.54959e-05
-7.43404e-07
-1.57043e-05
1.72548e-05
8.1231e-05
-4.26021e-07
-2.00128e-05
2.14216e-05
7.74582e-05
4.19602e-07
-2.20709e-05
2.31325e-05
7.44283e-05
1.67283e-06
-2.23204e-05
2.30285e-05
7.20535e-05
3.23993e-06
-2.16685e-05
2.21221e-05
7.01094e-05
5.07216e-06
-2.09901e-05
2.12977e-05
6.83271e-05
7.24993e-06
-2.09345e-05
2.11897e-05
6.63846e-05
9.95456e-06
-2.19623e-05
2.2255e-05
6.38233e-05
1.35247e-05
-2.44967e-05
2.4965e-05
5.98224e-05
1.83945e-05
-2.90745e-05
3.00709e-05
5.20884e-05
2.58351e-05
-3.67918e-05
3.95768e-05
3.29475e-05
3.66743e-05
-4.78324e-05
5.72806e-05
3.33325e-05
-4.38707e-05
7.79662e-05
9.71634e-05
-4.26738e-07
4.14222e-07
-1.99347e-07
9.57607e-05
-3.82015e-06
4.42803e-06
5.55648e-07
9.25498e-05
-9.47149e-06
1.07594e-05
1.33733e-06
8.81669e-05
-1.53946e-05
1.69736e-05
2.06049e-06
8.35641e-05
-1.97664e-05
2.12114e-05
2.73181e-06
7.94756e-05
-2.18679e-05
2.29546e-05
3.42141e-06
7.62034e-05
-2.20645e-05
2.2786e-05
4.22354e-06
7.37375e-05
-2.12709e-05
2.17241e-05
5.2526e-06
7.18888e-05
-2.03656e-05
2.06623e-05
6.62418e-06
7.04175e-05
-1.99822e-05
2.02152e-05
8.48816e-06
6.90625e-05
-2.05403e-05
2.0793e-05
1.10569e-05
6.75194e-05
-2.23771e-05
2.27556e-05
1.46892e-05
6.5137e-05
-2.58799e-05
2.66839e-05
1.9973e-05
6.01885e-05
-3.17635e-05
3.38385e-05
2.87086e-05
4.4744e-05
-4.14123e-05
4.88764e-05
4.46547e-05
-3.64718e-05
6.7416e-05
6.72874e-05
1.25575e-05
-1.85425e-08
-1.81548e-06
1.30026e-05
-7.35682e-07
-4.2828e-06
1.39715e-05
-1.35305e-06
-5.8246e-06
1.51543e-05
-1.57851e-06
-6.6222e-06
1.62118e-05
-1.42353e-06
-6.92442e-06
1.69325e-05
-1.04967e-06
-6.98924e-06
1.72477e-05
-6.21039e-07
-7.03946e-06
1.71687e-05
-2.30542e-07
-7.24926e-06
1.67353e-05
8.04692e-08
-7.75176e-06
1.59942e-05
2.87083e-07
-8.66569e-06
1.49528e-05
3.89596e-07
-1.01032e-05
1.35804e-05
3.48071e-07
-1.21966e-05
1.17419e-05
9.67155e-08
-1.50813e-05
9.02229e-06
-4.29141e-07
-1.86888e-05
4.4523e-06
-1.1986e-06
-2.16487e-05
-2.37919e-06
-1.69774e-05
3.53524e-05
-1.04419e-07
-2.13967e-06
3.58993e-05
-1.9878e-06
-7.17436e-06
3.72258e-05
-3.69378e-06
-1.12009e-05
3.89724e-05
-4.42843e-06
-1.36496e-05
4.06291e-05
-4.1338e-06
-1.47266e-05
4.17958e-05
-3.17002e-06
-1.49404e-05
4.22782e-05
-1.96775e-06
-1.48263e-05
4.20376e-05
-8.10835e-07
-1.48289e-05
4.10965e-05
1.73523e-07
-1.52859e-05
3.94586e-05
9.48962e-07
-1.64598e-05
3.70498e-05
1.53615e-06
-1.85834e-05
3.36542e-05
1.91594e-06
-2.19008e-05
2.87771e-05
2.02665e-06
-2.6653e-05
2.13748e-05
1.73287e-06
-3.26897e-05
9.77633e-06
6.76653e-07
-3.72456e-05
-2.46006e-06
-2.72213e-05
5.48938e-05
-1.34734e-07
-1.4557e-06
5.46394e-05
-2.55845e-06
-6.64703e-06
5.4753e-05
-5.12688e-06
-1.19069e-05
5.52932e-05
-6.48891e-06
-1.57573e-05
5.59961e-05
-6.33056e-06
-1.78429e-05
5.64947e-05
-5.03028e-06
-1.85356e-05
5.65076e-05
-3.20114e-06
-1.84834e-05
5.58806e-05
-1.31155e-06
-1.83154e-05
5.45393e-05
3.96976e-07
-1.85314e-05
5.23909e-05
1.87205e-06
-1.95061e-05
4.92531e-05
3.16267e-06
-2.15481e-05
4.47553e-05
4.30777e-06
-2.49545e-05
3.81628e-05
5.31292e-06
-3.00287e-05
2.80238e-05
6.01913e-06
-3.66929e-05
1.21582e-05
5.42029e-06
-4.18721e-05
-1.15428e-07
-3.03338e-05
7.12509e-05
-1.50614e-07
-9.18931e-07
7.02898e-05
-2.38473e-06
-5.39231e-06
6.89202e-05
-5.16702e-06
-1.09177e-05
6.7607e-05
-6.89565e-06
-1.56336e-05
6.65294e-05
-6.9879e-06
-1.85995e-05
6.55857e-05
-5.67515e-06
-1.98517e-05
6.45516e-05
-3.57645e-06
-1.99955e-05
6.32004e-05
-1.23708e-06
-1.97652e-05
6.13653e-05
9.97317e-07
-1.97863e-05
5.88261e-05
3.09252e-06
-2.05223e-05
5.52891e-05
5.10893e-06
-2.2335e-05
5.02538e-05
7.15926e-06
-2.5551e-05
4.28214e-05
9.34926e-06
-3.05142e-05
3.12263e-05
1.15862e-05
-3.72681e-05
1.27455e-05
1.2212e-05
-4.28214e-05
4.25296e-06
-3.12825e-05
8.43723e-05
-1.8997e-07
-6.46965e-07
8.30824e-05
-1.8055e-06
-4.4083e-06
8.06581e-05
-4.1542e-06
-9.79435e-06
7.7723e-05
-5.77425e-06
-1.49478e-05
7.48392e-05
-5.97672e-06
-1.85377e-05
7.22601e-05
-4.81556e-06
-2.0255e-05
6.99538e-05
-2.779e-06
-2.05865e-05
6.77011e-05
-3.254e-07
-2.03129e-05
6.53075e-05
2.12045e-06
-2.01575e-05
6.24373e-05
4.63117e-06
-2.06523e-05
5.87012e-05
7.26099e-06
-2.21955e-05
5.34836e-05
1.02148e-05
-2.51272e-05
4.57482e-05
1.37298e-05
-2.98104e-05
3.3394e-05
1.79489e-05
-3.64145e-05
1.2966e-05
2.08088e-05
-4.21696e-05
1.11244e-05
-3.11062e-05
9.41948e-05
-2.34766e-07
-5.25114e-07
9.28126e-05
-1.0672e-06
-3.79279e-06
8.98108e-05
-2.54246e-06
-8.95819e-06
8.57808e-05
-3.60563e-06
-1.43006e-05
8.15109e-05
-3.66611e-06
-1.82807e-05
7.7555e-05
-2.66303e-06
-2.0321e-05
7.40987e-05
-8.88735e-07
-2.07795e-05
7.10906e-05
1.31384e-06
-2.04452e-05
6.82123e-05
3.73043e-06
-2.00964e-05
6.51551e-05
6.38648e-06
-2.03254e-05
6.14558e-05
9.43548e-06
-2.15485e-05
5.64178e-05
1.31871e-05
-2.41013e-05
4.89051e-05
1.80466e-05
-2.83355e-05
3.64356e-05
2.46864e-05
-3.45455e-05
1.43307e-05
3.13639e-05
-4.03256e-05
2.22911e-05
-2.98607e-05
0.000100717
-2.60185e-07
-4.65695e-07
9.93272e-05
-2.76639e-07
-3.43618e-06
9.60639e-05
-6.47906e-07
-8.4194e-06
9.14281e-05
-8.54457e-07
-1.38196e-05
8.63141e-05
-5.62301e-07
-1.80026e-05
8.14617e-05
3.35839e-07
-2.02174e-05
7.72798e-05
1.69947e-06
-2.07266e-05
7.37568e-05
3.46779e-06
-2.02995e-05
7.06719e-05
5.57374e-06
-1.97485e-05
6.76949e-05
8.11841e-06
-1.96894e-05
6.43729e-05
1.13318e-05
-2.05367e-05
6.00162e-05
1.56458e-05
-2.25988e-05
5.34984e-05
2.16611e-05
-2.61712e-05
4.21008e-05
3.09253e-05
-3.16331e-05
1.93518e-05
4.34933e-05
-3.72129e-05
4.238e-05
-2.73329e-05
0.000103955
-4.26467e-07
-2.52534e-07
0.000102575
-3.24453e-06
5.27131e-07
9.9229e-05
-8.11687e-06
1.34355e-06
9.43642e-05
-1.35048e-05
2.12054e-06
8.89154e-05
-1.77397e-05
2.85978e-06
8.37508e-05
-2.00031e-05
3.63565e-06
7.93114e-05
-2.04711e-05
4.54543e-06
7.57001e-05
-1.99216e-05
5.72971e-06
7.27495e-05
-1.91668e-05
7.32559e-06
7.01769e-05
-1.88124e-05
9.52116e-06
6.76219e-05
-1.92439e-05
1.25904e-05
6.45904e-05
-2.07123e-05
1.70125e-05
6.02219e-05
-2.34084e-05
2.35581e-05
5.22469e-05
-2.76017e-05
3.47384e-05
3.3414e-05
-3.28073e-05
5.37213e-05
-2.26537e-05
8.24081e-05
1.32222e-05
-4.82432e-08
-1.6413e-06
1.35952e-05
-8.23752e-07
-3.83208e-06
1.44836e-05
-1.49622e-06
-5.2168e-06
1.55754e-05
-1.75587e-06
-5.95812e-06
1.65152e-05
-1.60166e-06
-6.26253e-06
1.70745e-05
-1.20016e-06
-6.34839e-06
1.71748e-05
-7.3082e-07
-6.40896e-06
1.68231e-05
-3.00712e-07
-6.5968e-06
1.60483e-05
4.79212e-08
-7.02491e-06
1.48901e-05
2.80491e-07
-7.78797e-06
1.33351e-05
4.08541e-07
-8.95675e-06
1.13349e-05
3.99015e-07
-1.05954e-05
8.77727e-06
2.00241e-07
-1.27239e-05
5.44997e-06
-2.36355e-07
-1.51251e-05
1.37914e-06
-1.09671e-06
-1.64812e-05
-2.57993e-06
-1.18969e-05
3.72851e-05
-1.33876e-07
-1.87837e-06
3.76921e-05
-2.13176e-06
-6.27334e-06
3.88324e-05
-3.99283e-06
-9.8446e-06
4.03556e-05
-4.8469e-06
-1.20818e-05
4.17398e-05
-4.58631e-06
-1.31261e-05
4.25633e-05
-3.5699e-06
-1.33942e-05
4.26136e-05
-2.2628e-06
-1.33447e-05
4.18379e-05
-9.86297e-07
-1.33675e-05
4.02451e-05
1.13112e-07
-1.37584e-05
3.78161e-05
9.84897e-07
-1.47353e-05
3.44453e-05
1.6623e-06
-1.64663e-05
2.98954e-05
2.13392e-06
-1.90858e-05
2.37362e-05
2.34725e-06
-2.26408e-05
1.53657e-05
2.14767e-06
-2.67032e-05
4.73883e-06
9.12089e-07
-2.86275e-05
-2.64495e-06
-1.91857e-05
5.79562e-05
-1.6019e-07
-1.25675e-06
5.75622e-05
-2.68194e-06
-5.70283e-06
5.74239e-05
-5.45695e-06
-1.03045e-05
5.76181e-05
-7.02016e-06
-1.37782e-05
5.78991e-05
-6.95868e-06
-1.57516e-05
5.79037e-05
-5.61903e-06
-1.64911e-05
5.73415e-05
-3.64829e-06
-1.65357e-05
5.60426e-05
-1.57003e-06
-1.64328e-05
5.39117e-05
3.35441e-07
-1.66229e-05
5.08219e-05
1.99452e-06
-1.74259e-05
4.65495e-05
3.46582e-06
-1.90792e-05
4.06914e-05
4.79773e-06
-2.17602e-05
3.25662e-05
5.99853e-06
-2.55548e-05
2.12054e-05
6.85366e-06
-3.0038e-05
6.33968e-06
6.06082e-06
-3.21552e-05
6.66314e-08
-2.1184e-05
7.5254e-05
-1.84634e-07
-7.96323e-07
7.42033e-05
-2.46733e-06
-4.55618e-06
7.25854e-05
-5.43704e-06
-9.31974e-06
7.08515e-05
-7.39296e-06
-1.35269e-05
6.92169e-05
-7.62852e-06
-1.6295e-05
6.76243e-05
-6.30921e-06
-1.7569e-05
6.58735e-05
-4.06821e-06
-1.78248e-05
6.37355e-05
-1.5049e-06
-1.76923e-05
6.10228e-05
9.83731e-07
-1.77219e-05
5.74715e-05
3.34151e-06
-1.8318e-05
5.27343e-05
5.63476e-06
-1.97668e-05
4.62622e-05
7.99178e-06
-2.22729e-05
3.71758e-05
1.05273e-05
-2.59567e-05
2.4165e-05
1.30648e-05
-3.04684e-05
6.54528e-06
1.35843e-05
-3.27251e-05
5.13357e-06
-2.15658e-05
8.91112e-05
-2.37034e-07
-5.74839e-07
8.77848e-05
-1.8602e-06
-3.68909e-06
8.5163e-05
-4.33965e-06
-8.26995e-06
8.17974e-05
-6.15385e-06
-1.28213e-05
7.82717e-05
-6.49947e-06
-1.6141e-05
7.49129e-05
-5.35075e-06
-1.78546e-05
7.17565e-05
-3.18903e-06
-1.83093e-05
6.86057e-05
-5.02743e-07
-1.81643e-05
6.52615e-05
2.21714e-06
-1.80466e-05
6.13386e-05
5.04535e-06
-1.84332e-05
5.63846e-05
8.03725e-06
-1.9644e-05
4.97217e-05
1.14253e-05
-2.18978e-05
4.02966e-05
1.54788e-05
-2.53368e-05
2.64031e-05
2.0252e-05
-2.97083e-05
6.64519e-06
2.32273e-05
-3.20547e-05
1.30648e-05
-2.11667e-05
9.94727e-05
-2.89374e-07
-4.80615e-07
9.80864e-05
-1.10711e-06
-3.15951e-06
9.49449e-05
-2.65122e-06
-7.50513e-06
9.05139e-05
-3.83931e-06
-1.21842e-05
8.55709e-05
-3.99745e-06
-1.58397e-05
8.07501e-05
-2.99437e-06
-1.78566e-05
7.63416e-05
-1.11192e-06
-1.84481e-05
7.2355e-05
1.30102e-06
-1.82623e-05
6.84725e-05
3.99467e-06
-1.79915e-05
6.435e-05
6.99249e-06
-1.81501e-05
5.94564e-05
1.04664e-05
-1.9084e-05
5.30254e-05
1.47691e-05
-2.10141e-05
4.38784e-05
2.03765e-05
-2.40862e-05
2.98283e-05
2.79205e-05
-2.81638e-05
8.14909e-06
3.51366e-05
-3.05556e-05
2.57753e-05
-2.00613e-05
0.000106349
-3.13816e-07
-4.35679e-07
0.000104969
-3.0654e-07
-2.85679e-06
0.000101608
-6.926e-07
-7.01774e-06
9.66091e-05
-9.40095e-07
-1.17195e-05
9.08267e-05
-6.74084e-07
-1.55436e-05
8.50671e-05
2.723e-07
-1.77245e-05
7.98822e-05
1.72451e-06
-1.83781e-05
7.53359e-05
3.67564e-06
-1.81278e-05
7.12333e-05
6.03433e-06
-1.76856e-05
6.72186e-05
8.9157e-06
-1.75979e-05
6.27777e-05
1.25845e-05
-1.8214e-05
5.71532e-05
1.75348e-05
-1.974e-05
4.91859e-05
2.44699e-05
-2.22973e-05
3.63017e-05
3.50385e-05
-2.5867e-05
1.37157e-05
4.8781e-05
-2.82714e-05
4.79411e-05
-1.82401e-05
0.000109762
-4.04403e-07
-2.98741e-07
0.000108396
-2.69317e-06
5.07495e-07
0.000104977
-6.74518e-06
1.35547e-06
9.97731e-05
-1.14216e-05
2.18032e-06
9.36634e-05
-1.52847e-05
2.98062e-06
8.76066e-05
-1.75103e-05
3.8363e-06
8.21525e-05
-1.81369e-05
4.84433e-06
7.75212e-05
-1.77874e-05
6.17284e-06
7.35845e-05
-1.71723e-05
7.97659e-06
7.00478e-05
-1.68344e-05
1.04744e-05
6.65076e-05
-1.71059e-05
1.39868e-05
6.24164e-05
-1.8158e-05
1.90717e-05
5.69285e-05
-2.00553e-05
2.66047e-05
4.77755e-05
-2.27933e-05
3.93831e-05
2.89771e-05
-2.53034e-05
6.00756e-05
-1.50486e-05
9.0006e-05
1.37731e-05
-7.47653e-08
-1.40023e-06
1.40838e-05
-9.00833e-07
-3.24193e-06
1.49052e-05
-1.62278e-06
-4.41547e-06
1.59229e-05
-1.91567e-06
-5.06016e-06
1.67664e-05
-1.7659e-06
-5.34006e-06
1.71916e-05
-1.34282e-06
-5.43078e-06
1.7112e-05
-8.38751e-07
-5.49062e-06
1.6534e-05
-3.7374e-07
-5.64508e-06
1.54822e-05
1.0793e-08
-5.98386e-06
1.40041e-05
2.68281e-07
-6.57819e-06
1.20873e-05
4.25924e-07
-7.46588e-06
9.70153e-06
4.57491e-07
-8.66714e-06
6.79808e-06
3.26008e-07
-1.01465e-05
3.36567e-06
-2.79886e-08
-1.16647e-05
-4.88201e-08
-8.84525e-07
-1.21822e-05
-2.43028e-06
-8.34381e-06
3.88943e-05
-1.60624e-07
-1.56661e-06
3.91849e-05
-2.25357e-06
-5.21116e-06
4.01738e-05
-4.24902e-06
-8.20735e-06
4.15164e-05
-5.21309e-06
-1.0127e-05
4.2678e-05
-4.99122e-06
-1.10623e-05
4.32164e-05
-3.93621e-06
-1.13392e-05
4.29037e-05
-2.5407e-06
-1.133e-05
4.16788e-05
-1.15912e-06
-1.13572e-05
3.95489e-05
4.5864e-08
-1.16636e-05
3.64936e-05
1.00743e-06
-1.24191e-05
3.24139e-05
1.7755e-06
-1.37362e-05
2.7111e-05
2.34798e-06
-1.56734e-05
2.02912e-05
2.68468e-06
-1.81797e-05
1.17347e-05
2.6089e-06
-2.07836e-05
2.24273e-06
1.34127e-06
-2.13613e-05
-2.42381e-06
-1.35886e-05
6.05072e-05
-1.84954e-07
-1.03589e-06
6.00011e-05
-2.7836e-06
-4.66668e-06
5.96632e-05
-5.73178e-06
-8.48379e-06
5.95801e-05
-7.47408e-06
-1.14342e-05
5.95167e-05
-7.50869e-06
-1.31707e-05
5.91105e-05
-6.14671e-06
-1.38744e-05
5.80642e-05
-4.05909e-06
-1.39711e-05
5.61994e-05
-1.81677e-06
-1.39104e-05
5.34136e-05
2.66238e-07
-1.40574e-05
4.95703e-05
2.09358e-06
-1.46688e-05
4.44487e-05
3.73421e-06
-1.59164e-05
3.76824e-05
5.24641e-06
-1.78923e-05
2.87358e-05
6.64293e-06
-2.05665e-05
1.70819e-05
7.66298e-06
-2.34381e-05
3.4583e-06
6.81916e-06
-2.40095e-05
5.00505e-07
-1.49468e-05
7.85868e-05
-2.17953e-07
-6.60108e-07
7.74668e-05
-2.5345e-06
-3.68519e-06
7.56596e-05
-5.65569e-06
-7.58868e-06
7.35958e-05
-7.80856e-06
-1.11287e-05
7.15105e-05
-8.17919e-06
-1.35392e-05
6.93792e-05
-6.86813e-06
-1.47163e-05
6.7024e-05
-4.51277e-06
-1.50159e-05
6.4222e-05
-1.75883e-06
-1.49483e-05
6.0778e-05
9.58507e-07
-1.49701e-05
5.64132e-05
3.55242e-06
-1.5412e-05
5.07745e-05
6.09484e-06
-1.64887e-05
4.33382e-05
8.72591e-06
-1.83162e-05
3.33531e-05
1.15626e-05
-2.08911e-05
1.99469e-05
1.43589e-05
-2.37581e-05
3.5296e-06
1.48659e-05
-2.43545e-05
6.01143e-06
-1.50937e-05
9.30544e-05
-2.81424e-07
-4.86717e-07
9.16999e-05
-1.90505e-06
-2.96398e-06
8.89356e-05
-4.48565e-06
-6.67573e-06
8.52428e-05
-6.4642e-06
-1.04728e-05
8.12058e-05
-6.94115e-06
-1.33421e-05
7.7204e-05
-5.81564e-06
-1.49054e-05
7.33296e-05
-3.55387e-06
-1.53938e-05
6.94233e-05
-6.84983e-07
-1.53318e-05
6.52816e-05
2.29309e-06
-1.52396e-05
6.05097e-05
5.40131e-06
-1.55102e-05
5.46401e-05
8.70992e-06
-1.63895e-05
4.70086e-05
1.24678e-05
-1.80081e-05
3.6663e-05
1.6955e-05
-2.03836e-05
2.23034e-05
2.21439e-05
-2.31337e-05
3.65605e-06
2.5223e-05
-2.37644e-05
1.4647e-05
-1.46892e-05
0.000103864
-3.39029e-07
-4.15917e-07
0.000102471
-1.13987e-06
-2.53201e-06
9.92358e-05
-2.73373e-06
-6.02172e-06
9.45105e-05
-4.02523e-06
-9.89793e-06
8.90412e-05
-4.27193e-06
-1.30396e-05
8.35146e-05
-3.27813e-06
-1.48676e-05
7.83095e-05
-1.30919e-06
-1.54877e-05
7.34879e-05
1.28083e-06
-1.54065e-05
6.87641e-05
4.2197e-06
-1.51943e-05
6.37788e-05
7.51618e-06
-1.52798e-05
5.79854e-05
1.13531e-05
-1.59337e-05
5.06229e-05
1.61091e-05
-1.72929e-05
4.05869e-05
2.22906e-05
-1.93858e-05
2.60337e-05
3.04631e-05
-2.19299e-05
5.30808e-06
3.80118e-05
-2.26189e-05
2.83015e-05
-1.38094e-05
0.000111034
-3.60971e-07
-3.82588e-07
0.000109655
-3.29913e-07
-2.28773e-06
0.000106235
-7.23086e-07
-5.60865e-06
0.000100978
-1.00301e-06
-9.48416e-06
9.46815e-05
-7.61117e-07
-1.2758e-05
8.81885e-05
2.19925e-07
-1.47294e-05
8.21656e-05
1.74793e-06
-1.54124e-05
7.67502e-05
3.85608e-06
-1.52877e-05
7.17897e-05
6.4354e-06
-1.49407e-05
6.69288e-05
9.60734e-06
-1.48281e-05
6.16394e-05
1.36575e-05
-1.52289e-05
5.51675e-05
1.91158e-05
-1.62748e-05
4.64154e-05
2.67337e-05
-1.79883e-05
3.30492e-05
3.8164e-05
-2.02017e-05
1.12051e-05
5.25742e-05
-2.09896e-05
5.15725e-05
-1.25221e-05
0.000114593
-3.58221e-07
-3.37803e-07
0.000113231
-2.15491e-06
4.94583e-07
0.00010977
-5.37818e-06
1.37034e-06
0.000104331
-9.22256e-06
2.23654e-06
9.77194e-05
-1.25232e-05
3.08949e-06
9.09451e-05
-1.45303e-05
4.01433e-06
8.4646e-05
-1.5199e-05
5.10918e-06
7.9149e-05
-1.49988e-05
6.56435e-06
7.4377e-05
-1.45142e-05
8.5493e-06
7.00472e-05
-1.42023e-05
1.13051e-05
6.575e-05
-1.4334e-05
1.51827e-05
6.09446e-05
-1.5022e-05
2.07852e-05
5.48524e-05
-1.6263e-05
2.90337e-05
4.53323e-05
-1.7943e-05
4.28338e-05
2.71209e-05
-1.89892e-05
6.44714e-05
-1.02855e-05
9.48678e-05
1.42118e-05
-9.70378e-08
-1.10254e-06
1.44707e-05
-9.64522e-07
-2.53632e-06
1.52381e-05
-1.72804e-06
-3.45491e-06
1.61977e-05
-2.05057e-06
-3.96917e-06
1.69659e-05
-1.90706e-06
-4.20118e-06
1.72856e-05
-1.46795e-06
-4.28252e-06
1.70641e-05
-9.35747e-07
-4.33344e-06
1.63101e-05
-4.41553e-07
-4.44946e-06
1.50469e-05
-2.34239e-08
-4.69725e-06
1.33389e-05
2.54577e-07
-5.1248e-06
1.11828e-05
4.41133e-07
-5.75091e-06
8.57601e-06
5.12991e-07
-6.57329e-06
5.52726e-06
4.43932e-07
-7.54165e-06
2.15039e-06
1.67199e-07
-8.45508e-06
-8.13594e-07
-6.47446e-07
-8.57074e-06
-2.25146e-06
-5.70337e-06
4.01805e-05
-1.83341e-07
-1.2131e-06
4.03773e-05
-2.35165e-06
-4.0208e-06
4.12468e-05
-4.45722e-06
-6.3477e-06
4.24483e-05
-5.51579e-06
-7.86333e-06
4.34355e-05
-5.33198e-06
-8.62454e-06
4.37486e-05
-4.25015e-06
-8.87007e-06
4.31475e-05
-2.78374e-06
-8.88095e-06
4.15671e-05
-1.31468e-06
-8.9037e-06
3.90208e-05
-1.81665e-08
-9.12245e-06
3.54983e-05
1.02088e-06
-9.6629e-06
3.09248e-05
1.87126e-06
-1.05929e-05
2.51563e-05
2.53756e-06
-1.19295e-05
1.80231e-05
2.98941e-06
-1.35919e-05
9.55668e-06
3.03125e-06
-1.51812e-05
9.18049e-07
1.79113e-06
-1.51612e-05
-2.12367e-06
-9.35558e-06
6.25472e-05
-2.06991e-07
-7.95795e-07
6.19531e-05
-2.86369e-06
-3.56051e-06
6.14609e-05
-5.95003e-06
-6.49877e-06
6.11629e-05
-7.84231e-06
-8.80967e-06
6.08295e-05
-7.9639e-06
-1.02053e-05
6.00975e-05
-6.59169e-06
-1.08008e-05
5.86649e-05
-4.41206e-06
-1.09102e-05
5.63497e-05
-2.03428e-06
-1.08756e-05
5.3052e-05
1.99258e-07
-1.0977e-05
4.86393e-05
2.1705e-06
-1.14058e-05
4.29152e-05
3.95787e-06
-1.22788e-05
3.5571e-05
5.62684e-06
-1.36373e-05
2.62112e-05
7.1932e-06
-1.54106e-05
1.46058e-05
8.36117e-06
-1.71626e-05
1.91863e-06
7.53541e-06
-1.70666e-05
9.54403e-07
-1.02818e-05
8.1251e-05
-2.47734e-07
-5.10037e-07
8.00774e-05
-2.587e-06
-2.78825e-06
7.81284e-05
-5.82529e-06
-5.76442e-06
7.58135e-05
-8.13952e-06
-8.51656e-06
7.33774e-05
-8.62815e-06
-1.04388e-05
7.08194e-05
-7.3333e-06
-1.14167e-05
6.79805e-05
-4.88999e-06
-1.16991e-05
6.46481e-05
-1.97995e-06
-1.16701e-05
6.06291e-05
9.28792e-07
-1.16806e-05
5.56464e-05
3.72187e-06
-1.19807e-05
4.93642e-05
6.4736e-06
-1.27222e-05
4.13096e-05
9.33087e-06
-1.39656e-05
3.08627e-05
1.24085e-05
-1.56596e-05
1.74515e-05
1.54089e-05
-1.73947e-05
1.95844e-06
1.59507e-05
-1.72767e-05
6.76421e-06
-1.0339e-05
9.62056e-05
-3.20159e-07
-3.82227e-07
9.48279e-05
-1.94047e-06
-2.23285e-06
9.19612e-05
-4.59612e-06
-5.03817e-06
8.80257e-05
-6.7067e-06
-7.97017e-06
8.35965e-05
-7.29605e-06
-1.02449e-05
7.90883e-05
-6.1981e-06
-1.15324e-05
7.46398e-05
-3.86041e-06
-1.19748e-05
7.01275e-05
-8.39745e-07
-1.19597e-05
6.53559e-05
2.349e-06
-1.18882e-05
5.99362e-05
5.69011e-06
-1.20587e-05
5.34112e-05
9.25836e-06
-1.26492e-05
4.51575e-05
1.33101e-05
-1.37337e-05
3.43361e-05
1.81243e-05
-1.5278e-05
1.99289e-05
2.36083e-05
-1.69258e-05
2.1624e-06
2.67724e-05
-1.68196e-05
1.58782e-05
-1.00096e-05
0.000107372
-3.81348e-07
-3.31559e-07
0.000105971
-1.16582e-06
-1.90514e-06
0.000102672
-2.79397e-06
-4.52446e-06
9.77345e-05
-4.16686e-06
-7.50074e-06
9.18678e-05
-4.48863e-06
-9.98028e-06
8.57903e-05
-3.50941e-06
-1.14788e-05
7.99494e-05
-1.47335e-06
-1.20339e-05
7.44576e-05
1.2604e-06
-1.20148e-05
6.90658e-05
4.40109e-06
-1.18545e-05
6.34186e-05
7.94274e-06
-1.18853e-05
5.69781e-05
1.2071e-05
-1.23059e-05
4.90159e-05
1.71768e-05
-1.31975e-05
3.8519e-05
2.37738e-05
-1.45384e-05
2.38804e-05
3.23669e-05
-1.605e-05
3.90896e-06
4.01284e-05
-1.60034e-05
3.01243e-05
-9.35949e-06
0.000114779
-4.00302e-07
-3.07827e-07
0.000113394
-3.47664e-07
-1.7213e-06
0.000109936
-7.4279e-07
-4.20222e-06
0.000104498
-1.04689e-06
-7.16609e-06
9.78186e-05
-8.2509e-07
-9.74189e-06
9.0759e-05
1.74855e-07
-1.13541e-05
8.40689e-05
1.76922e-06
-1.19649e-05
7.79552e-05
4.00481e-06
-1.19184e-05
7.23106e-05
6.76511e-06
-1.16601e-05
6.67957e-05
1.01726e-05
-1.15431e-05
6.08914e-05
1.45228e-05
-1.17764e-05
5.38709e-05
2.03636e-05
-1.2441e-05
4.47122e-05
2.84622e-05
-1.3518e-05
3.12504e-05
4.04496e-05
-1.48225e-05
1.00118e-05
5.52642e-05
-1.48869e-05
5.40765e-05
-8.47947e-06
0.000118454
-2.89778e-07
-3.69517e-07
0.000117086
-1.62079e-06
4.86499e-07
0.000113602
-4.02264e-06
1.38564e-06
0.000108003
-6.95643e-06
2.28604e-06
0.000101022
-9.54934e-06
3.18216e-06
9.36926e-05
-1.11891e-05
4.16302e-06
8.67241e-05
-1.17926e-05
5.33115e-06
8.05312e-05
-1.16921e-05
6.89113e-06
7.50901e-05
-1.13323e-05
9.02429e-06
7.01416e-05
-1.1068e-05
1.19868e-05
6.52885e-05
-1.11054e-05
1.61474e-05
6.00146e-05
-1.15168e-05
2.21324e-05
5.36108e-05
-1.22726e-05
3.08755e-05
4.40332e-05
-1.32441e-05
4.53282e-05
2.63536e-05
-1.35639e-05
6.75184e-05
-6.94439e-06
9.82341e-05
1.4539e-05
-1.14479e-07
-7.59902e-07
1.4758e-05
-1.01406e-06
-1.74127e-06
1.54848e-05
-1.81012e-06
-2.37156e-06
1.64016e-05
-2.15685e-06
-2.72909e-06
1.71148e-05
-2.01984e-06
-2.8946e-06
1.73572e-05
-1.56953e-06
-2.9554e-06
1.70319e-05
-1.01601e-06
-2.99204e-06
1.61499e-05
-4.98852e-07
-3.06865e-06
1.47377e-05
-5.58282e-08
-3.22919e-06
1.28743e-05
2.41226e-07
-3.50269e-06
1.0569e-05
4.51957e-07
-3.89751e-06
7.84297e-06
5.57208e-07
-4.40451e-06
4.74529e-06
5.37379e-07
-4.98135e-06
1.45952e-06
3.20113e-07
-5.48941e-06
-1.19691e-06
-4.54687e-07
-5.45963e-06
-2.10592e-06
-3.57269e-06
4.11436e-05
-2.01154e-07
-8.26681e-07
4.12695e-05
-2.42582e-06
-2.73492e-06
4.20503e-05
-4.6154e-06
-4.32321e-06
4.31482e-05
-5.74866e-06
-5.36943e-06
4.40074e-05
-5.59784e-06
-5.90581e-06
4.41544e-05
-4.49866e-06
-6.08795e-06
4.33402e-05
-2.97919e-06
-6.10347e-06
4.14988e-05
-1.4426e-06
-6.11862e-06
3.86502e-05
-7.31549e-08
-6.2565e-06
3.48019e-05
1.02717e-06
-6.60052e-06
2.99037e-05
1.94446e-06
-7.18718e-06
2.38607e-05
2.68699e-06
-8.01628e-06
1.65927e-05
3.23099e-06
-9.01748e-06
8.27694e-06
3.36679e-06
-9.91217e-06
2.09956e-07
2.16573e-06
-9.71468e-06
-1.85973e-06
-5.89711e-06
6.40757e-05
-2.24723e-07
-5.39267e-07
6.34159e-05
-2.92298e-06
-2.40359e-06
6.28107e-05
-6.11232e-06
-4.39663e-06
6.23556e-05
-8.12062e-06
-5.9826e-06
6.18237e-05
-8.31355e-06
-6.95775e-06
6.08506e-05
-6.9386e-06
-7.38781e-06
5.9131e-05
-4.69127e-06
-7.47852e-06
5.64823e-05
-2.20959e-06
-7.45986e-06
5.28118e-05
1.41632e-07
-7.52122e-06
4.79961e-05
2.22576e-06
-7.78869e-06
4.18679e-05
4.12883e-06
-8.335e-06
3.4172e-05
5.92057e-06
-9.17497e-06
2.46164e-05
7.61833e-06
-1.02424e-05
1.31461e-05
8.90293e-06
-1.12284e-05
1.08137e-06
8.11854e-06
-1.09547e-05
1.32797e-06
-6.48394e-06
8.32468e-05
-2.71754e-07
-3.46769e-07
8.20331e-05
-2.62557e-06
-1.87194e-06
7.99823e-05
-5.94883e-06
-3.87715e-06
7.74865e-05
-8.38566e-06
-5.75567e-06
7.47941e-05
-8.96852e-06
-7.09143e-06
7.19203e-05
-7.69186e-06
-7.78961e-06
6.87211e-05
-5.18508e-06
-8.00614e-06
6.4994e-05
-2.15579e-06
-7.99679e-06
6.05539e-05
9.00349e-07
-7.99922e-06
5.51314e-05
3.84804e-06
-8.18054e-06
4.84146e-05
6.76122e-06
-8.63782e-06
3.99797e-05
9.78964e-06
-9.39976e-06
2.93064e-05
1.30449e-05
-1.04129e-05
1.60042e-05
1.61941e-05
-1.13836e-05
1.15236e-06
1.67816e-05
-1.10879e-05
7.3457e-06
-6.49368e-06
9.8566e-05
-3.50941e-07
-2.62455e-07
9.71694e-05
-1.96669e-06
-1.49512e-06
9.4231e-05
-4.67487e-06
-3.37371e-06
9.01242e-05
-6.8841e-06
-5.36499e-06
8.54116e-05
-7.56177e-06
-6.93907e-06
8.05306e-05
-6.49002e-06
-7.85319e-06
7.56548e-05
-4.09866e-06
-8.18542e-06
7.06893e-05
-9.59408e-07
-8.19051e-06
6.54544e-05
2.38708e-06
-8.14015e-06
5.95714e-05
5.90725e-06
-8.23486e-06
5.26019e-05
9.67202e-06
-8.59052e-06
4.39638e-05
1.394e-05
-9.24597e-06
3.29057e-05
1.89852e-05
-1.01602e-05
1.85803e-05
2.46693e-05
-1.10756e-05
1.44406e-06
2.78949e-05
-1.07967e-05
1.67835e-05
-6.24762e-06
0.000110001
-4.14487e-07
-2.29667e-07
0.000108589
-1.1851e-06
-1.27502e-06
0.000105246
-2.83554e-06
-3.02069e-06
0.000100163
-4.26812e-06
-5.03369e-06
9.40131e-05
-4.64832e-06
-6.74378e-06
8.75325e-05
-3.68381e-06
-7.80434e-06
8.12181e-05
-1.59951e-06
-8.21869e-06
7.52271e-05
1.24312e-06
-8.2263e-06
6.93406e-05
4.537e-06
-8.11795e-06
6.32173e-05
8.26471e-06
-8.11946e-06
5.63355e-05
1.26098e-05
-8.36182e-06
4.8001e-05
1.79671e-05
-8.89009e-06
3.72723e-05
2.48485e-05
-9.67296e-06
2.26796e-05
3.3715e-05
-1.05029e-05
3.20637e-06
4.16163e-05
-1.02516e-05
3.13988e-05
-5.84177e-06
0.000117584
-4.30692e-07
-2.14347e-07
0.00011619
-3.60417e-07
-1.15223e-06
0.000112707
-7.54669e-07
-2.80034e-06
0.000107148
-1.07552e-06
-4.79906e-06
0.000100198
-8.69162e-07
-6.57141e-06
9.27267e-05
1.4386e-07
-7.71056e-06
8.55418e-05
1.78688e-06
-8.16629e-06
7.89063e-05
4.1188e-06
-8.15858e-06
7.27534e-05
7.01635e-06
-7.98656e-06
6.6765e-05
1.06005e-05
-7.89057e-06
6.04377e-05
1.51705e-05
-8.00973e-06
5.3074e-05
2.12809e-05
-8.39117e-06
4.37109e-05
2.9701e-05
-9.0075e-06
3.02777e-05
4.20415e-05
-9.71575e-06
9.44098e-06
5.71115e-05
-9.54531e-06
5.57828e-05
-5.28786e-06
0.000121347
-2.02408e-07
-3.93606e-07
0.000119969
-1.08487e-06
4.81771e-07
0.00011647
-2.67766e-06
1.39923e-06
0.000110765
-4.65297e-06
2.32605e-06
0.000103527
-6.43506e-06
3.25526e-06
9.57955e-05
-7.59296e-06
4.279e-06
8.83317e-05