/*--------------------------------*- C++ -*----------------------------------*\
| =========                 |                                                 |
| \\      /  F ield         | foam-extend: Open Source CFD                    |
|  \\    /   O peration     | Version:     3.1                                |
|   \\  /    A nd           | Web:         http://www.extend-project.de       |
|    \\/     M anipulation  |                                                 |
\*---------------------------------------------------------------------------*/
FoamFile
{
    version     2.0;
    format      ascii;
    class       surfaceVectorField;
    location    "1.4";
    object      Sf;
}
// * * * * * * * * * * * * * * * * * * * * * * * * * * * * * * * * * * * * * //

dimensions      [0 2 0 0 0 0 0];

internalField   nonuniform List<vector> 
41600
(
(0.000625646 -3.5408e-06 -2.38588e-08)
(-6.45789e-07 0.000706666 -1.63472e-08)
(1.03883e-08 1.16868e-08 0.000705279)
(-1.05845e-08 -1.19076e-08 -0.000705239)
(0.000626265 -6.82078e-06 -4.58664e-08)
(-6.18417e-07 0.000706406 -4.89108e-08)
(1.02386e-08 3.48882e-08 0.000705875)
(-1.04242e-08 -3.55386e-08 -0.000705804)
(0.000626869 -9.81022e-06 -6.60119e-08)
(-6.04108e-07 0.000706115 -8.21155e-08)
(1.06536e-08 5.83756e-08 0.000706433)
(-1.08225e-08 -5.94249e-08 -0.00070633)
(0.000627489 -1.25821e-05 -8.49345e-08)
(-6.19945e-07 0.000705898 -1.18247e-07)
(1.18473e-08 8.36527e-08 0.000707029)
(-1.19869e-08 -8.50498e-08 -0.000706892)
(0.000628153 -1.51957e-05 -1.03233e-07)
(-6.63566e-07 0.00070574 -1.60128e-07)
(1.36755e-08 1.12303e-07 0.000707692)
(-1.37563e-08 -1.1395e-07 -0.000707514)
(0.000628887 -1.77016e-05 -1.21343e-07)
(-7.34696e-07 0.000705633 -2.10851e-07)
(1.58307e-08 1.45411e-07 0.000708449)
(-1.58038e-08 -1.47123e-07 -0.00070822)
(0.000629721 -2.01359e-05 -1.38749e-07)
(-8.3382e-07 0.000705561 -2.73977e-07)
(1.77635e-08 1.83112e-07 0.000709325)
(-1.75624e-08 -1.84575e-07 -0.000709033)
(0.000630683 -2.25133e-05 -1.54175e-07)
(-9.6297e-07 0.000705503 -3.53763e-07)
(1.85592e-08 2.23927e-07 0.000710344)
(-1.8072e-08 -2.24628e-07 -0.000709975)
(0.000631808 -2.48238e-05 -1.6567e-07)
(-1.12541e-06 0.000705435 -4.5586e-07)
(1.63563e-08 2.63331e-07 0.000711531)
(-1.53881e-08 -2.62413e-07 -0.000711064)
(0.00063313 -2.70145e-05 -1.69465e-07)
(-1.32399e-06 0.000705312 -5.88105e-07)
(7.47728e-09 2.90742e-07 0.000712906)
(-5.7951e-09 -2.86863e-07 -0.000712314)
(0.000634691 -2.89822e-05 -1.60796e-07)
(-1.56379e-06 0.000705084 -7.62306e-07)
(-1.50524e-08 2.83967e-07 0.000714494)
(1.76591e-08 -2.75263e-07 -0.00071374)
(0.000636538 -3.05584e-05 -1.36111e-07)
(-1.84984e-06 0.000704685 -9.98585e-07)
(-6.36996e-08 1.99692e-07 0.000716319)
(6.73065e-08 -1.83908e-07 -0.000715345)
(0.000638715 -3.15159e-05 -9.9671e-08)
(-2.18183e-06 0.000704057 -1.33432e-06)
(-1.60395e-07 -4.26115e-08 0.000718426)
(1.64744e-07 6.76934e-08 -0.000717128)
(0.000641232 -3.16615e-05 -8.2622e-08)
(-2.5227e-06 0.000703233 -1.83944e-06)
(-3.31993e-07 -5.76357e-07 0.000720912)
(3.37643e-07 6.1352e-07 -0.00071909)
(0.000643741 -3.10463e-05 -1.97866e-07)
(-2.54161e-06 0.00070243 -2.60972e-06)
(-5.42082e-07 -1.52681e-06 0.000723826)
(5.7507e-07 1.60689e-06 -0.000721101)
(-1.00272e-05 0.000699044 -6.53455e-07)
(-2.40269e-06 -4.66367e-06 0.00072985)
(5.02201e-06 7.54266e-06 -0.000728438)
(0.000625619 -3.48864e-06 -7.12589e-08)
(-1.26436e-06 0.000710155 -3.20466e-08)
(3.0658e-08 1.11145e-08 0.000708801)
(-3.12475e-08 -1.13362e-08 -0.000708715)
(0.000626211 -6.72163e-06 -1.37131e-07)
(-1.21013e-06 0.000709639 -9.58247e-08)
(3.0142e-08 3.30897e-08 0.000709106)
(-3.07082e-08 -3.37527e-08 -0.000708993)
(0.000626789 -9.66808e-06 -1.97662e-07)
(-1.18088e-06 0.000709063 -1.60739e-07)
(3.13081e-08 5.51665e-08 0.000709342)
(-3.18382e-08 -5.62661e-08 -0.000709203)
(0.000627379 -1.23996e-05 -2.54615e-07)
(-1.21015e-06 0.000708631 -2.31211e-07)
(3.4829e-08 7.88463e-08 0.000709688)
(-3.52813e-08 -8.03593e-08 -0.000709518)
(0.00062801 -1.49794e-05 -3.10037e-07)
(-1.29341e-06 0.000708322 -3.12736e-07)
(4.02362e-08 1.05711e-07 0.000710157)
(-4.05261e-08 -1.07568e-07 -0.000709949)
(0.000628704 -1.74582e-05 -3.65204e-07)
(-1.42896e-06 0.000708114 -4.11318e-07)
(4.66984e-08 1.36911e-07 0.000710764)
(-4.67074e-08 -1.38994e-07 -0.000710508)
(0.000629487 -1.98716e-05 -4.18561e-07)
(-1.61777e-06 0.000707976 -5.33703e-07)
(5.29709e-08 1.73217e-07 0.000711515)
(-5.24712e-08 -1.75281e-07 -0.000711201)
(0.000630386 -2.22412e-05 -4.66757e-07)
(-1.86323e-06 0.000707874 -6.88123e-07)
(5.67361e-08 2.1474e-07 0.000712411)
(-5.53383e-08 -2.16254e-07 -0.000712029)
(0.000631427 -2.45687e-05 -5.03733e-07)
(-2.16941e-06 0.000707762 -8.85127e-07)
(5.30644e-08 2.59825e-07 0.000713449)
(-5.02164e-08 -2.59896e-07 -0.000712983)
(0.000632638 -2.68275e-05 -5.19e-07)
(-2.54011e-06 0.000707568 -1.13882e-06)
(3.26583e-08 3.03551e-07 0.000714603)
(-2.76611e-08 -3.00843e-07 -0.000714037)
(0.000634044 -2.89432e-05 -4.98769e-07)
(-2.97751e-06 0.000707192 -1.46997e-06)
(-2.14031e-08 3.36002e-07 0.00071583)
(2.92564e-08 -3.2858e-07 -0.000715143)
(0.000635658 -3.0782e-05 -4.29591e-07)
(-3.47485e-06 0.000706509 -1.91169e-06)
(-1.38325e-07 3.40076e-07 0.000717061)
(1.49529e-07 -3.2524e-07 -0.000716217)
(0.00063746 -3.21396e-05 -3.14529e-07)
(-3.99821e-06 0.000705389 -2.52168e-06)
(-3.64743e-07 2.92193e-07 0.000718215)
(3.79234e-07 -2.66212e-07 -0.000717143)
(0.000639326 -3.2782e-05 -2.17794e-07)
(-4.40878e-06 0.000703833 -3.40168e-06)
(-7.46083e-07 1.75309e-07 0.000719283)
(7.66163e-07 -1.32527e-07 -0.000717817)
(0.000640773 -3.26227e-05 -4.01681e-07)
(-4.07145e-06 0.000702201 -4.69711e-06)
(-1.16766e-06 1.87039e-08 0.000720433)
(1.25022e-06 5.0943e-08 -0.000718162)
(-9.47676e-06 0.000696378 -3.37687e-06)
(-3.92164e-06 1.03057e-06 0.000719072)
(7.79685e-06 -2.63942e-06 -0.000715023)
(0.000625567 -3.38475e-06 -1.17587e-07)
(-1.83044e-06 0.00071354 -4.63955e-08)
(4.96071e-08 1.01934e-08 0.000712231)
(-5.05877e-08 -1.04119e-08 -0.000712099)
(0.000626108 -6.52057e-06 -2.26549e-07)
(-1.75046e-06 0.000712776 -1.38667e-07)
(4.86149e-08 3.0275e-08 0.000712222)
(-4.9567e-08 -3.09267e-08 -0.00071207)
(0.000626634 -9.37585e-06 -3.26772e-07)
(-1.70538e-06 0.000711919 -2.324e-07)
(5.04064e-08 5.03429e-08 0.000712112)
(-5.13035e-08 -5.14064e-08 -0.00071194)
(0.000627169 -1.20237e-05 -4.21438e-07)
(-1.74428e-06 0.000711281 -3.33869e-07)
(5.61436e-08 7.18801e-08 0.000712182)
(-5.69231e-08 -7.33159e-08 -0.000711984)
(0.000627735 -1.45286e-05 -5.14778e-07)
(-1.8596e-06 0.000710829 -4.50955e-07)
(6.50139e-08 9.6475e-08 0.000712432)
(-6.55783e-08 -9.82546e-08 -0.000712201)
(0.000628354 -1.69381e-05 -6.08442e-07)
(-2.04725e-06 0.000710525 -5.92112e-07)
(7.60135e-08 1.25598e-07 0.000712858)
(-7.61758e-08 -1.27657e-07 -0.000712584)
(0.000629043 -1.92924e-05 -7.00167e-07)
(-2.30791e-06 0.000710333 -7.66654e-07)
(8.78212e-08 1.60873e-07 0.000713447)
(-8.71763e-08 -1.63006e-07 -0.000713122)
(0.000629823 -2.16272e-05 -7.85817e-07)
(-2.6449e-06 0.000710211 -9.85867e-07)
(9.76158e-08 2.04049e-07 0.000714183)
(-9.55214e-08 -2.05872e-07 -0.0007138)
(0.000630711 -2.39637e-05 -8.55817e-07)
(-3.06152e-06 0.0007101 -1.26394e-06)
(9.94989e-08 2.57278e-07 0.000715035)
(-9.50814e-08 -2.58139e-07 -0.000714586)
(0.000631723 -2.63133e-05 -8.94832e-07)
(-3.55994e-06 0.000709916 -1.61953e-06)
(8.26598e-08 3.23732e-07 0.000715944)
(-7.4741e-08 -3.2254e-07 -0.000715424)
(0.000632865 -2.86578e-05 -8.80808e-07)
(-4.13306e-06 0.000709532 -2.07887e-06)
(2.84968e-08 4.08995e-07 0.000716808)
(-1.56586e-08 -4.0391e-07 -0.000716213)
(0.000634122 -3.09334e-05 -7.86848e-07)
(-4.75066e-06 0.000708773 -2.68137e-06)
(-9.29542e-08 5.24761e-07 0.000717475)
(1.12114e-07 -5.12823e-07 -0.000716799)
(0.000635427 -3.30081e-05 -5.97448e-07)
(-5.32992e-06 0.00070744 -3.49177e-06)
(-3.22168e-07 6.97277e-07 0.000717742)
(3.48878e-07 -6.73933e-07 -0.000716961)
(0.000636615 -3.46603e-05 -3.57175e-07)
(-5.63538e-06 0.000705444 -4.62111e-06)
(-6.80204e-07 9.79138e-07 0.000717485)
(7.1872e-07 -9.38172e-07 -0.000716506)
(0.000637305 -3.56596e-05 -3.38836e-07)
(-4.86387e-06 0.000703147 -6.25086e-06)
(-1.01521e-06 1.42446e-06 0.000717003)
(1.11782e-06 -1.37129e-06 -0.000715468)
(-1.13083e-05 0.000698437 -4.33676e-06)
(-2.31411e-06 2.5386e-06 0.000713899)
(4.41961e-06 -3.01486e-06 -0.000712498)
(0.000625492 -3.22823e-06 -1.61447e-07)
(-2.32147e-06 0.000716768 -5.87693e-08)
(6.67069e-08 9.01887e-09 0.000715516)
(-6.80589e-08 -9.21835e-09 -0.000715342)
(0.000625961 -6.2149e-06 -3.11526e-07)
(-2.21783e-06 0.000715763 -1.75583e-07)
(6.52668e-08 2.68317e-08 0.000715174)
(-6.65791e-08 -2.74209e-08 -0.000714987)
(0.000626414 -8.93186e-06 -4.49415e-07)
(-2.15681e-06 0.000714637 -2.93991e-07)
(6.76701e-08 4.47413e-08 0.000714702)
(-6.88987e-08 -4.56981e-08 -0.000714503)
(0.000626871 -1.14489e-05 -5.80811e-07)
(-2.20024e-06 0.000713799 -4.21811e-07)
(7.55246e-08 6.40873e-08 0.000714479)
(-7.66206e-08 -6.5406e-08 -0.00071426)
(0.000627349 -1.38223e-05 -7.12099e-07)
(-2.33665e-06 0.000713204 -5.68826e-07)
(8.78414e-08 8.64413e-08 0.000714489)
(-8.8716e-08 -8.81344e-08 -0.00071424)
(0.000627862 -1.61031e-05 -8.44626e-07)
(-2.5601e-06 0.000712808 -7.45189e-07)
(1.03813e-07 1.13546e-07 0.000714707)
(-1.0419e-07 -1.15581e-07 -0.000714421)
(0.000628423 -1.83425e-05 -9.76725e-07)
(-2.86951e-06 0.000712574 -9.62015e-07)
(1.22365e-07 1.47539e-07 0.000715109)
(-1.21727e-07 -1.4981e-07 -0.000714782)
(0.000629042 -2.05894e-05 -1.10508e-06)
(-3.26637e-06 0.00071246 -1.23262e-06)
(1.41224e-07 1.91442e-07 0.000715668)
(-1.38797e-07 -1.93774e-07 -0.000715293)
(0.000629727 -2.28905e-05 -1.21884e-06)
(-3.7521e-06 0.000712403 -1.57353e-06)
(1.56024e-07 2.50475e-07 0.000716332)
(-1.5063e-07 -2.52497e-07 -0.000715909)
(0.000630482 -2.52902e-05 -1.30029e-06)
(-4.32482e-06 0.000712317 -2.00617e-06)
(1.58577e-07 3.33982e-07 0.000717022)
(-1.48543e-07 -3.34906e-07 -0.000716554)
(0.000631302 -2.78366e-05 -1.3218e-06)
(-4.97013e-06 0.000712076 -2.56008e-06)
(1.35429e-07 4.58397e-07 0.000717609)
(-1.18473e-07 -4.56707e-07 -0.000717106)
(0.000632165 -3.05616e-05 -1.2437e-06)
(-5.63981e-06 0.000711491 -3.27846e-06)
(6.72979e-08 6.52837e-07 0.000717895)
(-4.075e-08 -6.45788e-07 -0.000717376)
(0.000633008 -3.34428e-05 -1.0216e-06)
(-6.21208e-06 0.000710305 -4.22974e-06)
(-6.93841e-08 9.63351e-07 0.000717609)
(1.08465e-07 -9.46529e-07 -0.000717093)
(0.000633712 -3.63035e-05 -6.45458e-07)
(-6.39662e-06 0.000708273 -5.53108e-06)
(-2.78972e-07 1.44358e-06 0.000716523)
(3.35628e-07 -1.41183e-06 -0.000715989)
(0.000634064 -3.86888e-05 -2.87652e-07)
(-5.32174e-06 0.000705494 -7.40028e-06)
(-4.64432e-07 2.08477e-06 0.000714888)
(5.70362e-07 -2.04651e-06 -0.000714097)
(-1.2045e-05 0.000702418 -5.1422e-06)
(-9.27629e-07 3.19023e-06 0.000711267)
(2.05616e-06 -3.89162e-06 -0.000711575)
(0.0006254 -3.01801e-06 -2.01862e-07)
(-2.71954e-06 0.000719786 -6.87466e-08)
(8.18521e-08 7.97883e-09 0.000718605)
(-8.35466e-08 -8.16495e-09 -0.000718393)
(0.000625779 -5.80531e-06 -3.89828e-07)
(-2.59515e-06 0.000718551 -2.05226e-07)
(8.0093e-08 2.37797e-08 0.000717919)
(-8.17352e-08 -2.43327e-08 -0.000717701)
(0.000626142 -8.33533e-06 -5.62927e-07)
(-2.51845e-06 0.000717168 -3.43195e-07)
(8.31324e-08 3.97319e-08 0.000717078)
(-8.46888e-08 -4.0659e-08 -0.000716856)
(0.000626504 -1.06686e-05 -7.29528e-07)
(-2.5605e-06 0.000716134 -4.9168e-07)
(9.29873e-08 5.70259e-08 0.000716548)
(-9.44337e-08 -5.83603e-08 -0.000716312)
(0.000626875 -1.2858e-05 -8.96554e-07)
(-2.70649e-06 0.000715395 -6.61666e-07)
(1.08703e-07 7.71603e-08 0.000716296)
(-1.09935e-07 -7.89321e-08 -0.000716036)
(0.000627263 -1.49582e-05 -1.06605e-06)
(-2.94814e-06 0.00071491 -8.64293e-07)
(1.29767e-07 1.01857e-07 0.000716287)
(-1.30469e-07 -1.0409e-07 -0.000715998)
(0.000627675 -1.70214e-05 -1.23891e-06)
(-3.28132e-06 0.00071464 -1.11173e-06)
(1.55622e-07 1.33395e-07 0.00071649)
(-1.55236e-07 -1.3611e-07 -0.000716168)
(0.00062811 -1.91009e-05 -1.41356e-06)
(-3.70393e-06 0.000714543 -1.4183e-06)
(1.85419e-07 1.75431e-07 0.000716867)
(-1.83091e-07 -1.78614e-07 -0.000716506)
(0.000628566 -2.12611e-05 -1.58075e-06)
(-4.21372e-06 0.000714566 -1.80145e-06)
(2.17661e-07 2.34409e-07 0.000717357)
(-2.1198e-07 -2.37933e-07 -0.000716962)
(0.000629035 -2.35811e-05 -1.72403e-06)
(-4.80536e-06 0.000714641 -2.28379e-06)
(2.49086e-07 3.21705e-07 0.000717876)
(-2.37963e-07 -3.25194e-07 -0.000717455)
(0.000629509 -2.61681e-05 -1.8162e-06)
(-5.46327e-06 0.000714666 -2.89716e-06)
(2.74516e-07 4.56821e-07 0.0007183)
(-2.54853e-07 -4.59358e-07 -0.000717871)
(0.000629974 -2.91575e-05 -1.8099e-06)
(-6.13721e-06 0.00071448 -3.68868e-06)
(2.88889e-07 6.72045e-07 0.00071844)
(-2.56463e-07 -6.71462e-07 -0.000718036)
(0.000630408 -3.26559e-05 -1.63402e-06)
(-6.69573e-06 0.000713795 -4.73293e-06)
(2.83055e-07 1.01448e-06 0.000718006)
(-2.33128e-07 -1.00684e-06 -0.000717678)
(0.000630765 -3.65715e-05 -1.208e-06)
(-6.82636e-06 0.000712169 -6.15721e-06)
(2.45438e-07 1.52846e-06 0.000716638)
(-1.72559e-07 -1.50875e-06 -0.000716438)
(0.000630927 -4.0226e-05 -4.97007e-07)
(-5.59131e-06 0.000709122 -8.20203e-06)
(1.62455e-07 2.18035e-06 0.000714171)
(-5.52087e-08 -2.15398e-06 -0.00071408)
(-1.23945e-05 0.000708018 -5.58794e-06)
(2.93644e-07 3.12152e-06 0.000710659)
(-2.37855e-07 -3.62508e-06 -0.000713179)
(0.000625293 -2.75871e-06 -2.38557e-07)
(-3.011e-06 0.000722545 -7.59672e-08)
(9.52903e-08 7.09089e-09 0.000721449)
(-9.73098e-08 -7.27087e-09 -0.000721204)
(0.00062557 -5.30153e-06 -4.60421e-07)
(-2.86981e-06 0.000721094 -2.26582e-07)
(9.32617e-08 2.11065e-08 0.000720417)
(-9.52264e-08 -2.16485e-08 -0.000720174)
(0.000625832 -7.59924e-06 -6.65517e-07)
(-2.77839e-06 0.000719467 -3.78378e-07)
(9.68544e-08 3.51791e-08 0.000719205)
(-9.87531e-08 -3.60969e-08 -0.000718964)
(0.000626088 -9.70655e-06 -8.63458e-07)
(-2.81438e-06 0.000718242 -5.41066e-07)
(1.08486e-07 5.03305e-08 0.00071836)
(-1.10305e-07 -5.16519e-08 -0.000718113)
(0.000626343 -1.16736e-05 -1.06094e-06)
(-2.9598e-06 0.000717364 -7.26216e-07)
(1.27283e-07 6.78594e-08 0.000717835)
(-1.28928e-07 -6.96406e-08 -0.000717573)
(0.000626598 -1.35444e-05 -1.26341e-06)
(-3.20256e-06 0.000716783 -9.45419e-07)
(1.53043e-07 8.92986e-08 0.000717588)
(-1.54203e-07 -9.16293e-08 -0.000717304)
(0.000626851 -1.53607e-05 -1.47495e-06)
(-3.53451e-06 0.00071646 -1.21109e-06)
(1.85883e-07 1.16753e-07 0.000717576)
(-1.85989e-07 -1.1974e-07 -0.000717265)
(0.000627095 -1.71718e-05 -1.69559e-06)
(-3.94915e-06 0.000716358 -1.53738e-06)
(2.26536e-07 1.53514e-07 0.000717756)
(-2.24725e-07 -1.57305e-07 -0.000717416)
(0.000627315 -1.90439e-05 -1.92048e-06)
(-4.43946e-06 0.000716443 -1.94134e-06)
(2.76375e-07 2.05137e-07 0.000718071)
(-2.71137e-07 -2.0992e-07 -0.000717706)
(0.000627495 -2.10737e-05 -2.13801e-06)
(-4.99643e-06 0.000716676 -2.44516e-06)
(3.37023e-07 2.8104e-07 0.000718447)
(-3.25998e-07 -2.86929e-07 -0.000718068)
(0.000627619 -2.3406e-05 -2.32768e-06)
(-5.60736e-06 0.000717005 -3.08122e-06)
(4.1094e-07 3.96605e-07 0.000718792)
(-3.90422e-07 -4.03427e-07 -0.000718418)
(0.000627682 -2.62463e-05 -2.44696e-06)
(-6.23638e-06 0.000717327 -3.90041e-06)
(5.05201e-07 5.76189e-07 0.00071896)
(-4.69516e-07 -5.83022e-07 -0.000718629)
(0.000627716 -2.98412e-05 -2.41869e-06)
(-6.78676e-06 0.000717395 -4.98917e-06)
(6.23614e-07 8.56707e-07 0.000718703)
(-5.6585e-07 -8.60862e-07 -0.000718475)
(0.000627792 -3.43366e-05 -2.1023e-06)
(-6.99037e-06 0.00071666 -6.50014e-06)
(7.42522e-07 1.27744e-06 0.000717591)
(-6.54882e-07 -1.27322e-06 -0.000717564)
(0.000627939 -3.91315e-05 -1.15592e-06)
(-5.85202e-06 0.000713904 -8.69701e-06)
(7.4094e-07 1.82333e-06 0.00071481)
(-6.27391e-07 -1.81032e-06 -0.000715261)
(-1.27429e-05 0.000716056 -5.82914e-06)
(1.32879e-06 2.61375e-06 0.000712515)
(-2.10565e-06 -2.96377e-06 -0.00071744)
(0.000625178 -2.45912e-06 -2.70364e-07)
(-3.18685e-06 0.000725005 -8.01754e-08)
(1.07196e-07 6.25556e-09 0.000724007)
(-1.09525e-07 -6.42394e-09 -0.000723732)
(0.000625345 -4.72024e-06 -5.2133e-07)
(-3.03406e-06 0.000723356 -2.38933e-07)
(1.04846e-07 1.85515e-08 0.000722634)
(-1.07122e-07 -1.90561e-08 -0.00072237)
(0.000625499 -6.75306e-06 -7.53732e-07)
(-2.93059e-06 0.000721501 -3.98481e-07)
(1.08799e-07 3.0722e-08 0.000721057)
(-1.11031e-07 -3.15771e-08 -0.000720804)
(0.000625645 -8.60309e-06 -9.76976e-07)
(-2.95762e-06 0.000720093 -5.68702e-07)
(1.21829e-07 4.35886e-08 0.000719897)
(-1.24018e-07 -4.48354e-08 -0.000719646)
(0.000625781 -1.03066e-05 -1.19902e-06)
(-3.0938e-06 0.000719069 -7.61176e-07)
(1.43102e-07 5.81806e-08 0.000719094)
(-1.45191e-07 -5.98952e-08 -0.000718837)
(0.000625903 -1.18924e-05 -1.4295e-06)
(-3.32296e-06 0.000718372 -9.87437e-07)
(1.72688e-07 7.5657e-08 0.000718594)
(-1.74389e-07 -7.79594e-08 -0.000718322)
(0.000626001 -1.33907e-05 -1.67415e-06)
(-3.6324e-06 0.000717961 -1.25931e-06)
(2.11253e-07 9.75366e-08 0.000718346)
(-2.12023e-07 -1.00602e-07 -0.000718053)
(0.000626062 -1.48373e-05 -1.93513e-06)
(-4.01049e-06 0.000717808 -1.58966e-06)
(2.60621e-07 1.25979e-07 0.000718302)
(-2.59664e-07 -1.30075e-07 -0.000717989)
(0.000626062 -1.6281e-05 -2.21236e-06)
(-4.44395e-06 0.000717892 -1.99377e-06)
(3.2407e-07 1.64209e-07 0.000718415)
(-3.19913e-07 -1.69728e-07 -0.000718085)
(0.000625973 -1.77949e-05 -2.50081e-06)
(-4.91735e-06 0.000718198 -2.49122e-06)
(4.06268e-07 2.17075e-07 0.000718627)
(-3.96467e-07 -2.24532e-07 -0.000718292)
(0.000625763 -1.95004e-05 -2.79129e-06)
(-5.41632e-06 0.000718721 -3.11127e-06)
(5.14041e-07 2.91574e-07 0.000718878)
(-4.94741e-07 -3.01682e-07 -0.000718557)
(0.000625412 -2.15828e-05 -3.06112e-06)
(-5.92023e-06 0.000719423 -3.90348e-06)
(6.60993e-07 3.97164e-07 0.00071907)
(-6.25908e-07 -4.10911e-07 -0.000718797)
(0.000624959 -2.43441e-05 -3.26063e-06)
(-6.39438e-06 0.000720174 -4.96268e-06)
(8.60773e-07 5.48052e-07 0.000719032)
(-8.00917e-07 -5.65864e-07 -0.000718859)
(0.000624603 -2.8232e-05 -3.25376e-06)
(-6.73141e-06 0.000720567 -6.48349e-06)
(1.09078e-06 7.68272e-07 0.000718431)
(-9.93734e-07 -7.874e-07 -0.000718454)
(0.000624759 -3.33512e-05 -2.418e-06)
(-6.13192e-06 0.000719038 -8.81898e-06)
(1.18166e-06 1.09124e-06 0.000716074)
(-1.05685e-06 -1.10557e-06 -0.000716788)
(-1.43791e-05 0.000730081 -5.85775e-06)
(2.30228e-06 1.76788e-06 0.000718977)
(-3.71676e-06 -2.00942e-06 -0.000726632)
(0.000625059 -2.12499e-06 -2.96311e-07)
(1.17635e-07 5.44905e-09 0.000726241)
(-1.20252e-07 -5.60506e-09 -0.000725944)
(-3.24275e-06 0.00072713 -8.13385e-08)
(0.000625112 -4.07748e-06 -5.70737e-07)
(1.14883e-07 1.609e-08 0.000724546)
(-1.1744e-07 -1.65511e-08 -0.000724268)
(-3.08491e-06 0.000725309 -2.42201e-07)
(0.000625158 -5.82389e-06 -8.24461e-07)
(1.18926e-07 2.63954e-08 0.000722621)
(-1.21466e-07 -2.71699e-08 -0.000722362)
(-2.97397e-06 0.000723248 -4.03382e-07)
(0.000625194 -7.39156e-06 -1.06703e-06)
(1.3287e-07 3.69357e-08 0.000721152)
(-1.35421e-07 -3.80746e-08 -0.000720904)
(-2.99099e-06 0.000721662 -5.74621e-07)
(0.000625214 -8.79967e-06 -1.30877e-06)
(1.55817e-07 4.8414e-08 0.000720066)
(-1.58347e-07 -4.99957e-08 -0.000719818)
(-3.11196e-06 0.000720479 -7.67164e-07)
(0.000625211 -1.00648e-05 -1.56073e-06)
(1.87934e-07 6.14482e-08 0.000719296)
(-1.90199e-07 -6.35959e-08 -0.000719039)
(-3.31741e-06 0.000719639 -9.91807e-07)
(0.00062517 -1.12026e-05 -1.82928e-06)
(2.30168e-07 7.67216e-08 0.000718786)
(-2.31697e-07 -7.96483e-08 -0.000718518)
(-3.59006e-06 0.000719102 -1.25906e-06)
(0.000625072 -1.22274e-05 -2.11914e-06)
(2.84737e-07 9.49993e-08 0.000718488)
(-2.84803e-07 -9.90045e-08 -0.000718208)
(-3.91193e-06 0.000718837 -1.5798e-06)
(0.000624887 -1.31554e-05 -2.43281e-06)
(3.55391e-07 1.16875e-07 0.000718353)
(-3.52642e-07 -1.22393e-07 -0.000718067)
(-4.26171e-06 0.000718826 -1.96627e-06)
(0.000624575 -1.40085e-05 -2.77128e-06)
(4.47361e-07 1.42359e-07 0.00071833)
(-4.39555e-07 -1.50146e-07 -0.00071805)
(-4.61329e-06 0.000719059 -2.43314e-06)
(0.000624078 -1.48158e-05 -3.13579e-06)
(5.67765e-07 1.7001e-07 0.000718364)
(-5.51438e-07 -1.81444e-07 -0.00071811)
(-4.93523e-06 0.000719539 -3.00091e-06)
(0.000623311 -1.56164e-05 -3.5238e-06)
(7.28371e-07 1.93447e-07 0.000718342)
(-6.9792e-07 -2.1116e-07 -0.000718155)
(-5.18435e-06 0.000720241 -3.70221e-06)
(0.000622152 -1.64931e-05 -3.92518e-06)
(9.39864e-07 1.9516e-07 0.000718028)
(-8.86785e-07 -2.24246e-07 -0.000717994)
(-5.28816e-06 0.000721079 -4.59558e-06)
(0.000620403 -1.7661e-05 -4.27797e-06)
(1.17839e-06 1.43674e-07 0.000716862)
(-1.09057e-06 -1.94415e-07 -0.000717201)
(-5.06981e-06 0.000721786 -5.79225e-06)
(0.000617858 -2.00666e-05 -4.06956e-06)
(1.29343e-06 2.76648e-08 0.000713133)
(-1.1782e-06 -1.12004e-07 -0.000714699)
(-3.70228e-06 0.000721528 -7.46145e-06)
(3.33184e-06 4.64614e-07 0.000732918)
(-5.15672e-06 -6.35812e-07 -0.000743939)
(-2.17685e-05 0.000757681 -4.96677e-06)
(0.000625674 -3.58503e-06 -2.02568e-08)
(-6.73514e-07 0.000706711 -1.49553e-08)
(9.8068e-09 1.10327e-08 0.000705314)
(0.000626321 -6.90616e-06 -3.90798e-08)
(-6.45922e-07 0.000706448 -4.47205e-08)
(9.67565e-09 3.29467e-08 0.000705938)
(0.000626954 -9.93329e-06 -5.60958e-08)
(-6.32819e-07 0.000706155 -7.49124e-08)
(1.00939e-08 5.51715e-08 0.000706525)
(0.000627607 -1.27404e-05 -7.16011e-08)
(-6.52109e-07 0.000705937 -1.07404e-07)
(1.12816e-08 7.91829e-08 0.000707152)
(0.000628309 -1.53879e-05 -8.61298e-08)
(-7.01473e-07 0.000705778 -1.44495e-07)
(1.31019e-08 1.06552e-07 0.000707851)
(0.00062909 -1.79268e-05 -9.95075e-08)
(-7.80808e-07 0.000705671 -1.88453e-07)
(1.52979e-08 1.38413e-07 0.000708651)
(0.000629981 -2.0392e-05 -1.1088e-07)
(-8.90956e-07 0.000705598 -2.41674e-07)
(1.74144e-08 1.75113e-07 0.000709578)
(0.000631016 -2.27958e-05 -1.19e-07)
(-1.03432e-06 0.000705537 -3.06673e-07)
(1.86419e-08 2.15606e-07 0.000710659)
(0.000632229 -2.51248e-05 -1.21882e-07)
(-1.2149e-06 0.000705461 -3.858e-07)
(1.73926e-08 2.56214e-07 0.00071192)
(0.000633663 -2.73196e-05 -1.16606e-07)
(-1.43645e-06 0.000705322 -4.81026e-07)
(1.07134e-08 2.88297e-07 0.000713382)
(0.00063536 -2.92706e-05 -1.01043e-07)
(-1.70559e-06 0.000705066 -5.93072e-07)
(-6.8909e-09 2.94011e-07 0.000715071)
(0.00063737 -3.08067e-05 -7.61572e-08)
(-2.02907e-06 0.000704621 -7.17862e-07)
(-4.42611e-08 2.39934e-07 0.000717012)
(0.00063973 -3.17154e-05 -5.30499e-08)
(-2.40704e-06 0.000703922 -8.36268e-07)
(-1.13894e-07 6.95263e-08 0.000719239)
(0.000642415 -3.18606e-05 -6.17636e-08)
(-2.79538e-06 0.000702988 -8.88869e-07)
(-2.21751e-07 -2.93971e-07 0.00072181)
(0.00064504 -3.14331e-05 -1.3604e-07)
(-2.8474e-06 0.000702054 -7.64268e-07)
(-3.19547e-07 -8.83191e-07 0.000724665)
(-7.6655e-06 0.00070076 -3.58464e-07)
(-1.06866e-06 -2.36847e-06 0.000730689)
(0.000625647 -3.53247e-06 -6.06973e-08)
(-1.31855e-06 0.000710244 -2.93442e-08)
(2.89301e-08 1.0479e-08 0.000708877)
(0.000626266 -6.80648e-06 -1.17189e-07)
(-1.2638e-06 0.000709724 -8.76563e-08)
(2.84554e-08 3.11882e-08 0.000709206)
(0.000626872 -9.79089e-06 -1.68437e-07)
(-1.23682e-06 0.000709143 -1.46645e-07)
(2.96194e-08 5.19947e-08 0.000709465)
(0.000627494 -1.25583e-05 -2.15478e-07)
(-1.27269e-06 0.000708708 -2.09996e-07)
(3.30989e-08 7.43613e-08 0.000709837)
(0.000628162 -1.51731e-05 -2.59652e-07)
(-1.36702e-06 0.000708399 -2.82187e-07)
(3.84755e-08 9.98616e-08 0.000710338)
(0.000628901 -1.76864e-05 -3.00596e-07)
(-1.51847e-06 0.000708191 -3.67738e-07)
(4.50571e-08 1.29719e-07 0.000710984)
(0.00062974 -2.0133e-05 -3.35958e-07)
(-1.72836e-06 0.000708053 -4.7122e-07)
(5.18008e-08 1.64827e-07 0.000711779)
(0.000630706 -2.25325e-05 -3.6201e-07)
(-2.00107e-06 0.000707946 -5.97202e-07)
(5.67086e-08 2.05552e-07 0.000712728)
(0.000631831 -2.48824e-05 -3.72415e-07)
(-2.34173e-06 0.00070782 -7.50231e-07)
(5.56859e-08 2.50921e-07 0.000713824)
(0.000633141 -2.71504e-05 -3.58288e-07)
(-2.75547e-06 0.000707597 -9.33899e-07)
(4.11318e-08 2.97239e-07 0.000715042)
(0.000634661 -2.92558e-05 -3.13061e-07)
(-3.24618e-06 0.000707171 -1.14836e-06)
(-4.77372e-10 3.36492e-07 0.00071634)
(0.000636391 -3.10547e-05 -2.34931e-07)
(-3.80745e-06 0.000706405 -1.38326e-06)
(-8.98431e-08 3.55058e-07 0.000717648)
(0.000638274 -3.23364e-05 -1.46876e-07)
(-4.40144e-06 0.00070516 -1.59888e-06)
(-2.53353e-07 3.35036e-07 0.00071889)
(0.000640096 -3.28762e-05 -1.20869e-07)
(-4.86863e-06 0.000703439 -1.68274e-06)
(-4.95527e-07 2.64281e-07 0.00072005)
(0.000641336 -3.26413e-05 -2.43849e-07)
(-4.56338e-06 0.000701675 -1.44364e-06)
(-6.90997e-07 1.63122e-07 0.000721236)
(-6.88654e-06 0.000696805 -3.3776e-07)
(-1.73864e-06 5.96297e-07 0.000719976)
(0.000625593 -3.42734e-06 -1.00579e-07)
(-1.90865e-06 0.000713672 -4.25064e-08)
(4.67794e-08 9.5917e-09 0.000712345)
(0.00062616 -6.60273e-06 -1.93982e-07)
(-1.82786e-06 0.000712901 -1.26891e-07)
(4.58553e-08 2.84958e-08 0.000712354)
(0.000626712 -9.49449e-06 -2.79013e-07)
(-1.78596e-06 0.000712038 -2.1214e-07)
(4.76442e-08 4.74225e-08 0.000712262)
(0.000627276 -1.21774e-05 -3.57859e-07)
(-1.83417e-06 0.000711395 -3.03569e-07)
(5.32883e-08 6.78038e-08 0.000712354)
(0.000627877 -1.47177e-05 -4.32597e-07)
(-1.96518e-06 0.000710945 -4.07537e-07)
(6.20747e-08 9.11737e-08 0.000712633)
(0.000628537 -1.7163e-05 -5.02739e-07)
(-2.17519e-06 0.000710643 -5.30401e-07)
(7.31976e-08 1.18984e-07 0.000713091)
(0.000629276 -1.95528e-05 -5.64698e-07)
(-2.46527e-06 0.000710451 -6.78411e-07)
(8.55741e-08 1.52884e-07 0.000713716)
(0.000630115 -2.19219e-05 -6.1244e-07)
(-2.84006e-06 0.000710324 -8.57766e-07)
(9.68764e-08 1.94739e-07 0.000714492)
(0.000631075 -2.42885e-05 -6.3544e-07)
(-3.30404e-06 0.000710197 -1.07454e-06)
(1.02316e-07 2.46841e-07 0.000715382)
(0.00063217 -2.66602e-05 -6.19476e-07)
(-3.86079e-06 0.00070998 -1.33317e-06)
(9.28811e-08 3.12286e-07 0.000716327)
(0.000633403 -2.90096e-05 -5.50383e-07)
(-4.50378e-06 0.000709533 -1.63237e-06)
(5.36496e-08 3.96127e-07 0.000717223)
(0.000634739 -3.12587e-05 -4.15255e-07)
(-5.20016e-06 0.000708671 -1.95471e-06)
(-3.69229e-08 5.07579e-07 0.000717911)
(0.000636074 -3.32506e-05 -2.2719e-07)
(-5.85655e-06 0.000707186 -2.24112e-06)
(-2.02062e-07 6.6349e-07 0.000718196)
(0.000637164 -3.47292e-05 -5.98236e-08)
(-6.20499e-06 0.000705007 -2.33619e-06)
(-4.33558e-07 8.89587e-07 0.000717972)
(0.000637634 -3.54525e-05 -3.26916e-08)
(-5.45682e-06 0.000702629 -1.99486e-06)
(-5.91417e-07 1.19353e-06 0.000717527)
(-7.76249e-06 0.000698132 -5.351e-07)
(-9.92001e-07 1.75839e-06 0.000714692)
(0.000625515 -3.2676e-06 -1.38493e-07)
(-2.42025e-06 0.00071694 -5.38831e-08)
(6.28789e-08 8.49611e-09 0.000715666)
(0.000626007 -6.29141e-06 -2.66987e-07)
(-2.31558e-06 0.000715927 -1.60825e-07)
(6.15421e-08 2.52784e-08 0.000715336)
(0.000626483 -9.04262e-06 -3.84244e-07)
(-2.25836e-06 0.000714791 -2.6872e-07)
(6.39525e-08 4.21745e-08 0.000714876)
(0.000626966 -1.15936e-05 -4.94159e-07)
(-2.31325e-06 0.00071395 -3.84152e-07)
(7.16596e-08 6.04733e-08 0.00071467)
(0.000627474 -1.40021e-05 -5.99891e-07)
(-2.46898e-06 0.000713358 -5.15039e-07)
(8.37873e-08 8.1668e-08 0.000714702)
(0.000628022 -1.63184e-05 -7.00392e-07)
(-2.71949e-06 0.000712966 -6.68999e-07)
(9.9753e-08 1.07424e-07 0.000714946)
(0.000628625 -1.85946e-05 -7.91266e-07)
(-3.06446e-06 0.000712735 -8.53411e-07)
(1.1877e-07 1.39831e-07 0.000715375)
(0.000629294 -2.08798e-05 -8.64882e-07)
(-3.50655e-06 0.000712619 -1.07562e-06)
(1.39076e-07 1.81833e-07 0.00071596)
(0.000630037 -2.32198e-05 -9.07876e-07)
(-4.04838e-06 0.000712549 -1.34245e-06)
(1.57209e-07 2.38274e-07 0.000716643)
(0.000630858 -2.56569e-05 -9.01613e-07)
(-4.68939e-06 0.000712433 -1.65861e-06)
(1.66377e-07 3.17584e-07 0.000717341)
(0.000631748 -2.8232e-05 -8.21015e-07)
(-5.41495e-06 0.000712132 -2.0216e-06)
(1.56022e-07 4.34202e-07 0.000717917)
(0.000632676 -3.09632e-05 -6.37153e-07)
(-6.17187e-06 0.000711443 -2.40866e-06)
(1.11534e-07 6.1169e-07 0.000718165)
(0.000633555 -3.37921e-05 -3.32031e-07)
(-6.82203e-06 0.000710096 -2.7461e-06)
(1.69801e-08 8.81769e-07 0.000717809)
(0.00063423 -3.6482e-05 5.74989e-08)
(-7.03665e-06 0.000707872 -2.84708e-06)
(-1.22316e-07 1.26807e-06 0.000716644)
(0.000634521 -3.85167e-05 3.88653e-07)
(-5.986e-06 0.000705019 -2.42771e-06)
(-2.26561e-07 1.72893e-06 0.00071499)
(-7.91479e-06 0.000701147 -7.6109e-07)
(-3.26784e-07 2.31634e-06 0.000711461)
(0.000625419 -3.05399e-06 -1.73283e-07)
(-2.83478e-06 0.000719994 -6.30583e-08)
(7.71388e-08 7.5075e-09 0.000718787)
(0.000625817 -5.87532e-06 -3.34667e-07)
(-2.70906e-06 0.000718749 -1.88146e-07)
(7.54949e-08 2.23648e-08 0.000718108)
(0.0006262 -8.43738e-06 -4.82375e-07)
(-2.63649e-06 0.000717356 -3.14089e-07)
(7.85268e-08 3.73553e-08 0.000717271)
(0.000626583 -1.08026e-05 -6.22105e-07)
(-2.69149e-06 0.000716319 -4.48396e-07)
(8.81539e-08 5.36161e-08 0.000716752)
(0.000626978 -1.30235e-05 -7.57548e-07)
(-2.85902e-06 0.000715583 -6.00014e-07)
(1.03531e-07 7.25692e-08 0.000716517)
(0.000627395 -1.51556e-05 -8.87139e-07)
(-3.13066e-06 0.000715104 -7.77312e-07)
(1.24367e-07 9.5842e-08 0.000716525)
(0.000627839 -1.72541e-05 -1.00726e-06)
(-3.50305e-06 0.000714841 -9.88338e-07)
(1.50418e-07 1.25603e-07 0.000716745)
(0.000628311 -1.93735e-05 -1.11021e-06)
(-3.97505e-06 0.000714749 -1.24094e-06)
(1.81191e-07 1.65268e-07 0.000717135)
(0.00062881 -2.15795e-05 -1.18132e-06)
(-4.54544e-06 0.000714769 -1.54218e-06)
(2.15726e-07 2.20709e-07 0.000717628)
(0.000629329 -2.39514e-05 -1.19818e-06)
(-5.21032e-06 0.000714825 -1.8968e-06)
(2.51567e-07 3.02134e-07 0.000718131)
(0.000629858 -2.65954e-05 -1.12681e-06)
(-5.95427e-06 0.000714807 -2.30202e-06)
(2.84896e-07 4.26431e-07 0.000718509)
(0.000630385 -2.96341e-05 -9.1838e-07)
(-6.72122e-06 0.000714534 -2.733e-06)
(3.11017e-07 6.20106e-07 0.000718556)
(0.000630889 -3.31408e-05 -5.10742e-07)
(-7.36128e-06 0.0007137 -3.10844e-06)
(3.18565e-07 9.17276e-07 0.00071796)
(0.000631328 -3.69513e-05 1.23333e-07)
(-7.5204e-06 0.000711874 -3.22263e-06)
(2.90074e-07 1.33703e-06 0.000716379)
(0.000631611 -4.02526e-05 8.36892e-07)
(-6.3123e-06 0.000708679 -2.76195e-06)
(2.05237e-07 1.82147e-06 0.000713792)
(-7.77948e-06 0.000705594 -9.94512e-07)
(2.67107e-07 2.35519e-06 0.000710164)
(0.000625309 -2.79108e-06 -2.04832e-07)