/*--------------------------------*- C++ -*----------------------------------*\
| =========                 |                                                 |
| \\      /  F ield         | foam-extend: Open Source CFD                    |
|  \\    /   O peration     | Version:     3.1                                |
|   \\  /    A nd           | Web:         http://www.extend-project.de       |
|    \\/     M anipulation  |                                                 |
\*---------------------------------------------------------------------------*/
FoamFile
{
    version     2.0;
    format      ascii;
    class       volVectorField;
    location    "1.4";
    object      U;
}
// * * * * * * * * * * * * * * * * * * * * * * * * * * * * * * * * * * * * * //

dimensions      [0 1 -1 0 0 0 0];

internalField   nonuniform List<vector> 
14592
(
(0.0184439 0.000197733 -0.0027444)
(0.0190945 1.65984e-05 -0.0066034)
(0.0203942 -0.000199071 -0.00895183)
(0.0223411 -0.00031532 -0.0100779)
(0.0243675 -0.000289471 -0.0104208)
(0.0260342 -0.000178392 -0.0104148)
(0.0271574 -4.71208e-05 -0.0104151)
(0.0277224 5.99474e-05 -0.0106891)
(0.0278001 0.00012631 -0.0114435)
(0.0274984 0.000138884 -0.0128725)
(0.0269258 5.61597e-05 -0.0151988)
(0.0261877 -0.000185362 -0.0187523)
(0.0253879 -0.000685146 -0.024071)
(0.0244879 -0.00149006 -0.0319128)
(0.0222136 -0.00207438 -0.0419484)
(0.0136237 -0.000540484 -0.0411351)
(0.0523921 -6.35519e-05 -0.00340563)
(0.0532041 -0.00192525 -0.0114844)
(0.0549674 -0.00335566 -0.0177408)
(0.0578329 -0.0037868 -0.0213183)
(0.0610831 -0.00333078 -0.0226831)
(0.0639181 -0.00238688 -0.0227356)
(0.0658894 -0.00133044 -0.0223501)
(0.0668621 -0.000378452 -0.0222157)
(0.0668792 0.000389429 -0.0228459)
(0.0660388 0.000965147 -0.0246554)
(0.0644114 0.00132841 -0.0280693)
(0.0619857 0.00142092 -0.0336599)
(0.0585938 0.00111476 -0.0423566)
(0.0536657 0.000230333 -0.055588)
(0.0443144 -0.00114456 -0.0727101)
(0.0207411 -0.00193669 -0.0665699)
(0.081785 2.92036e-05 -0.00238404)
(0.0818415 -0.00308962 -0.0109553)
(0.0819589 -0.0059958 -0.0192947)
(0.0828622 -0.00724406 -0.0250428)
(0.0845587 -0.00674294 -0.0278516)
(0.0863981 -0.0050982 -0.0284982)
(0.0877847 -0.00303149 -0.0280878)
(0.0883858 -0.00102082 -0.0276113)
(0.0880782 0.000717988 -0.0278265)
(0.0868291 0.0021594 -0.0293129)
(0.0845861 0.00332028 -0.0326106)
(0.0811875 0.00419869 -0.038393)
(0.0762407 0.00472755 -0.0477481)
(0.0689072 0.00471122 -0.0625934)
(0.0556459 0.00337907 -0.0830177)
(0.0224799 -0.00100387 -0.075913)
(0.106381 0.000202482 -0.00149667)
(0.105874 -0.00309821 -0.00909289)
(0.104196 -0.00679482 -0.0180414)
(0.102294 -0.00879299 -0.0252033)
(0.101126 -0.00859145 -0.0293129)
(0.10063 -0.00671482 -0.0307067)
(0.100344 -0.00403682 -0.0304939)
(0.0998407 -0.00123348 -0.0298541)
(0.098834 0.00134631 -0.0297401)
(0.0971237 0.00364785 -0.0308554)
(0.0944976 0.00572096 -0.0338172)
(0.0906489 0.00764025 -0.0393525)
(0.0850226 0.00943348 -0.0486197)
(0.0766113 0.0109936 -0.0638881)
(0.0616761 0.0106446 -0.0862188)
(0.0222203 0.00218447 -0.0802676)
(0.126055 0.000333777 -0.00100628)
(0.12538 -0.0023336 -0.00753617)
(0.122607 -0.00586064 -0.0164295)
(0.118434 -0.0080699 -0.0243718)
(0.114467 -0.00816455 -0.0294304)
(0.111354 -0.00642699 -0.0314565)
(0.108995 -0.00364545 -0.0314461)
(0.107031 -0.000542573 -0.0306824)
(0.105104 0.00253719 -0.0302785)
(0.102882 0.00547308 -0.0310252)
(0.100003 0.00835624 -0.0335873)
(0.096026 0.0113494 -0.0387114)
(0.0902574 0.0145909 -0.0475626)
(0.0814897 0.0181888 -0.0626396)
(0.0660479 0.0198552 -0.0860339)
(0.0215936 0.00784132 -0.081899)
(0.14077 0.000404349 -0.00076715)
(0.140118 -0.00126808 -0.00651912)
(0.136872 -0.0038892 -0.0151782)
(0.131289 -0.00567266 -0.02351)
(0.125253 -0.00579403 -0.0291841)
(0.119977 -0.00431368 -0.0316553)
(0.115756 -0.00179488 -0.0317757)
(0.112455 0.00119407 -0.0308844)
(0.109709 0.00435071 -0.0301614)
(0.107075 0.00759544 -0.0304985)
(0.104143 0.0110686 -0.0325709)
(0.100362 0.015038 -0.0371016)
(0.0949521 0.0197836 -0.0451914)
(0.086407 0.0258631 -0.0594129)
(0.0715563 0.0309984 -0.0830655)
(0.022469 0.0172663 -0.0810103)
(0.150552 0.000438779 -0.000645978)
(0.149962 -0.000146997 -0.00591145)
(0.146578 -0.00142712 -0.0143475)
(0.140285 -0.00228679 -0.0228386)
(0.133024 -0.00212517 -0.0288484)
(0.126354 -0.000881089 -0.0315659)
(0.120902 0.00117734 -0.0317221)
(0.116704 0.0037317 -0.0306596)
(0.113451 0.00658811 -0.0296201)
(0.110722 0.00980167 -0.0295145)
(0.108081 0.0135742 -0.0309979)
(0.10494 0.0182996 -0.0347206)
(0.100622 0.0244513 -0.0416341)
(0.0930427 0.0334485 -0.0540679)
(0.0812728 0.0443426 -0.0768365)
(0.0279671 0.034552 -0.0764183)
(0.155428 0.000457239 -0.000572523)
(0.154883 0.00095542 -0.00558149)
(0.151507 0.00121422 -0.0138651)
(0.144981 0.00155455 -0.0223692)
(0.137248 0.00220257 -0.0284758)
(0.130037 0.00325446 -0.0312598)
(0.124126 0.00472271 -0.0313505)
(0.119649 0.00658063 -0.0300959)
(0.116394 0.00887381 -0.0287452)
(0.113981 0.0117538 -0.0281848)
(0.112049 0.0154819 -0.0290083)
(0.110071 0.0205339 -0.0317257)
(0.107984 0.0276162 -0.0370628)
(0.102367 0.0387256 -0.0464188)
(0.101015 0.0597081 -0.0665495)
(0.0440782 0.0611491 -0.0642213)
(0.0197214 0.000153948 -0.00265726)
(0.0202797 -6.2865e-05 -0.00631055)
(0.0214357 -0.00028753 -0.00857394)
(0.0232168 -0.000404357 -0.00971556)
(0.025047 -0.000367843 -0.0101187)
(0.0264567 -0.000237958 -0.0101749)
(0.0272401 -8.70858e-05 -0.0102165)
(0.0273695 3.53807e-05 -0.0105)
(0.0268976 0.000107966 -0.0112217)
(0.0259017 0.000122079 -0.0125596)
(0.0244299 3.30519e-05 -0.014694)
(0.0224755 -0.000220985 -0.0178574)
(0.0199642 -0.000729472 -0.0223351)
(0.0164913 -0.00151197 -0.0281913)
(0.0107531 -0.00232543 -0.0336665)
(0.00329216 -0.00287951 -0.0282265)
(0.0560649 -0.000108267 -0.00316235)
(0.0566908 -0.00214069 -0.0106399)
(0.0581342 -0.00373751 -0.0165717)
(0.0605854 -0.00426068 -0.0201132)
(0.063356 -0.00379596 -0.021605)
(0.0656184 -0.00276332 -0.0218278)
(0.0668872 -0.0015831 -0.0215837)
(0.0669981 -0.0005087 -0.0215281)
(0.0659622 0.000360713 -0.0221561)
(0.0638242 0.00101778 -0.0238575)
(0.0605519 0.0014419 -0.0269968)
(0.0559559 0.00157654 -0.0319978)
(0.0496153 0.00129245 -0.0393758)
(0.0403953 0.000417365 -0.0492317)
(0.025278 -0.00122698 -0.057912)
(0.00628911 -0.00419797 -0.0461101)
(0.0875484 2.10007e-05 -0.00215471)
(0.0874443 -0.00329579 -0.00989279)
(0.087174 -0.00651897 -0.0176647)
(0.0874524 -0.00801668 -0.023261)
(0.0883824 -0.0075885 -0.0262043)
(0.0893572 -0.00583634 -0.0270932)
(0.0897727 -0.00355213 -0.0269089)
(0.0892658 -0.00129069 -0.0265825)
(0.0876694 0.000684229 -0.0268454)
(0.0848778 0.00233575 -0.0282509)
(0.0807117 0.00368263 -0.0312786)
(0.0747947 0.00472878 -0.0364444)
(0.0664381 0.00539733 -0.0443972)
(0.05412 0.00541099 -0.0554579)
(0.0334485 0.00377461 -0.0655935)
(0.00674965 -0.00241031 -0.0524198)
(0.11387 0.000211983 -0.00134751)
(0.113288 -0.00321362 -0.00803582)
(0.111286 -0.00725491 -0.0162257)
(0.108671 -0.00960527 -0.0231014)
(0.106495 -0.00957904 -0.0273195)
(0.104835 -0.00763816 -0.0290018)
(0.103298 -0.00471242 -0.0290825)
(0.101458 -0.00157204 -0.0286527)
(0.0989906 0.00135809 -0.0286287)
(0.0956085 0.00400233 -0.0296916)
(0.0909487 0.00641549 -0.0324002)
(0.0844577 0.00869037 -0.0373233)
(0.0752338 0.0108676 -0.0451899)
(0.0615561 0.0126864 -0.0565784)
(0.0378721 0.0121685 -0.067615)
(0.0057586 0.00240934 -0.0549417)
(0.134903 0.000339019 -0.000930389)
(0.134219 -0.00237023 -0.00655987)
(0.131246 -0.0061709 -0.0145638)
(0.126399 -0.00872721 -0.0220958)
(0.121299 -0.00904262 -0.0272226)
(0.116782 -0.00729172 -0.029568)
(0.112906 -0.00428321 -0.0299077)
(0.109379 -0.000823154 -0.0294078)
(0.105832 0.00267712 -0.0291289)
(0.101847 0.00606053 -0.0298491)
(0.0968935 0.00943334 -0.0321789)
(0.0902627 0.0129987 -0.0367094)
(0.0808601 0.01696 -0.0441994)
(0.0668448 0.0212539 -0.0554664)
(0.0415809 0.0230779 -0.067012)
(0.00478233 0.0102141 -0.0553145)
(0.150626 0.000403199 -0.000739973)
(0.149991 -0.00126057 -0.00562449)
(0.146655 -0.00405258 -0.0133125)
(0.140497 -0.00609705 -0.0211344)
(0.133306 -0.00640611 -0.0268344)
(0.12648 -0.00492529 -0.0296438)
(0.120541 -0.00221126 -0.0301603)
(0.115499 0.00111632 -0.0295715)
(0.111014 0.00470897 -0.0290144)
(0.106564 0.00846226 -0.0293548)
(0.101577 0.0125487 -0.0312253)
(0.0952348 0.0173075 -0.0352048)
(0.0863005 0.0231612 -0.0420196)
(0.072874 0.0305762 -0.052692)
(0.0473911 0.0365069 -0.0643278)
(0.00568377 0.022672 -0.0536054)
(0.161078 0.000439101 -0.000646869)
(0.160507 -0.00011837 -0.00507551)
(0.157105 -0.00147182 -0.0124951)
(0.150331 -0.00246633 -0.0204096)
(0.141946 -0.00240015 -0.0264118)
(0.133667 -0.00113353 -0.0294771)
(0.126388 0.00110356 -0.0300661)
(0.120344 0.00396338 -0.0293448)
(0.115294 0.00722677 -0.0285002)
(0.110763 0.0109627 -0.0284284)
(0.10617 0.0154292 -0.0297523)
(0.10069 0.0211319 -0.0330008)
(0.093142 0.0287742 -0.0387881)
(0.0815533 0.0399754 -0.0482274)
(0.0590334 0.052702 -0.059402)
(0.0118487 0.0446761 -0.0491226)
(0.166288 0.000465983 -0.000587414)
(0.165761 0.000993361 -0.00477683)
(0.162403 0.00126514 -0.0120259)
(0.155456 0.00161136 -0.0199232)
(0.146629 0.0022885 -0.0260066)
(0.137814 0.00342032 -0.0291482)
(0.130061 0.00505197 -0.029688)
(0.123721 0.00715935 -0.0287977)
(0.11869 0.0098022 -0.0276661)
(0.114568 0.0131742 -0.0271712)
(0.110879 0.0176153 -0.0278876)
(0.106928 0.0237563 -0.030245)
(0.102186 0.032565 -0.0346726)
(0.0938316 0.0468843 -0.0420139)
(0.0844756 0.0717348 -0.0523437)
(0.0276816 0.0750344 -0.0397682)
(0.0208105 0.000111153 -0.00246117)
(0.0212865 -0.000141794 -0.00577904)
(0.0223197 -0.000378566 -0.00786196)
(0.0239625 -0.000499346 -0.0089545)
(0.025628 -0.000455471 -0.00938042)
(0.0268162 -0.000309463 -0.00947836)
(0.0273 -0.000140812 -0.00954395)
(0.0270427 -3.83788e-06 -0.00980836)
(0.0260866 7.47981e-05 -0.0104438)
(0.024498 9.46934e-05 -0.0115969)
(0.0223042 1.13135e-05 -0.0133884)
(0.019467 -0.000226001 -0.0159414)
(0.0158935 -0.000682399 -0.0193346)
(0.0112583 -0.0013743 -0.0233061)
(0.00511295 -0.0022857 -0.025923)
(-0.000676974 -0.00327434 -0.0192762)
(0.0592087 -0.000150274 -0.00283313)
(0.0596762 -0.00233485 -0.00949685)
(0.0608557 -0.00408768 -0.0148804)
(0.062966 -0.00470592 -0.0182046)
(0.0653365 -0.00424534 -0.0197071)
(0.0671091 -0.00313956 -0.0200396)
(0.0677625 -0.00184875 -0.0199052)
(0.0671086 -0.000661178 -0.0198946)
(0.0651391 0.000304078 -0.0204541)
(0.0618754 0.00104282 -0.0219185)
(0.0572439 0.0015382 -0.0245613)
(0.0510087 0.00174793 -0.0286332)
(0.0427344 0.00156562 -0.0343011)
(0.031428 0.000813845 -0.0410664)
(0.0157789 -0.00101064 -0.045024)
(-1.95637e-05 -0.00455278 -0.0315103)
(0.0924828 9.79534e-06 -0.00189288)
(0.0922481 -0.00347271 -0.00864456)
(0.0916707 -0.00697891 -0.015593)
(0.0914445 -0.00871614 -0.0207726)
(0.0917376 -0.00837594 -0.0236506)
(0.0919739 -0.00654422 -0.0246652)
(0.0915401 -0.00407019 -0.02465)
(0.0900508 -0.00157974 -0.0244358)
(0.0873103 0.000616684 -0.0246862)
(0.0831739 0.00246944 -0.0258897)
(0.0774043 0.00400129 -0.0284269)
(0.0695599 0.00523071 -0.0326262)
(0.0589228 0.00608952 -0.0387446)
(0.0440093 0.00625536 -0.0463481)
(0.0224571 0.00436827 -0.0509579)
(-0.000543121 -0.00249938 -0.0352922)
(0.12028 0.000213385 -0.00118687)
(0.119637 -0.00330711 -0.00690141)
(0.117396 -0.00764287 -0.014107)
(0.114226 -0.0103177 -0.020393)
(0.111227 -0.0104741 -0.0244528)
(0.108579 -0.00850072 -0.0262507)
(0.105948 -0.00536512 -0.0265371)
(0.102921 -0.00192117 -0.0262711)
(0.099155 0.00133499 -0.0262825)
(0.0943113 0.00430124 -0.0271839)
(0.0879514 0.00703506 -0.0294322)
(0.0794335 0.0096478 -0.0334041)
(0.0678034 0.0121881 -0.0394244)
(0.0512487 0.0143017 -0.0472123)
(0.0262296 0.0135872 -0.0522796)
(-0.00208429 0.00308476 -0.0363969)
(0.142474 0.000335939 -0.000842386)
(0.141776 -0.00239623 -0.0055708)
(0.138673 -0.00642003 -0.0125092)
(0.13333 -0.00928588 -0.0193197)
(0.127328 -0.00981925 -0.0242028)
(0.121632 -0.00808239 -0.026648)
(0.116437 -0.00488672 -0.0272221)
(0.111522 -0.00110675 -0.0269323)
(0.10653 0.00277933 -0.0267301)
(0.100999 0.00657717 -0.0273282)
(0.0943084 0.0103992 -0.0292356)
(0.0856415 0.0144785 -0.0328511)
(0.0738352 0.0190484 -0.0385352)
(0.0568564 0.0239257 -0.0461756)
(0.0297952 0.0257763 -0.0515237)
(-0.00327429 0.012176 -0.0360744)
(0.159061 0.000396622 -0.000693928)
(0.158424 -0.00124944 -0.00474936)
(0.155045 -0.00417318 -0.0113348)
(0.148491 -0.00644415 -0.0183435)
(0.140408 -0.00693344 -0.0237313)
(0.132302 -0.00547231 -0.0266258)
(0.124878 -0.00259936 -0.0274011)
(0.118293 0.00103004 -0.0270562)
(0.112252 0.00502025 -0.0266253)
(0.106202 0.00923952 -0.0268904)
(0.0994896 0.0138779 -0.0283915)
(0.0911788 0.0193234 -0.0315249)
(0.079959 0.0260731 -0.0366453)
(0.0637083 0.0344942 -0.0438145)
(0.0359925 0.0408985 -0.0492445)
(-0.00216915 0.0265175 -0.0343802)
(0.170088 0.000437328 -0.000623312)
(0.169509 -8.77855e-05 -0.00427454)
(0.166118 -0.00149179 -0.0105778)
(0.159036 -0.00259989 -0.0176237)
(0.149807 -0.00262483 -0.023268)
(0.140217 -0.00135209 -0.0264093)
(0.13137 0.00103643 -0.0272791)
(0.123694 0.00416894 -0.0268403)
(0.117033 0.00780419 -0.0261624)
(0.110908 0.0120151 -0.0260662)
(0.104665 0.017097 -0.027093)
(0.0973762 0.0236292 -0.0296087)
(0.087786 0.0324468 -0.0339087)
(0.0738571 0.0451811 -0.0402002)
(0.0487869 0.0589897 -0.0454884)
(0.00483193 0.0511343 -0.0310681)
(0.175585 0.000475279 -0.000575682)
(0.175046 0.00103441 -0.00401516)
(0.171726 0.00132448 -0.0101463)
(0.164524 0.0016792 -0.0171532)
(0.15489 0.00238155 -0.0228602)
(0.144782 0.00358076 -0.0260765)
(0.13546 0.0053592 -0.026914)
(0.127475 0.00769349 -0.0263354)
(0.12085 0.010656 -0.0254081)
(0.115206 0.0144721 -0.0249434)
(0.110016 0.019539 -0.0254518)
(0.104517 0.0265884 -0.0272371)
(0.098109 0.0367431 -0.0304868)
(0.088206 0.05319 -0.0353859)
(0.0769334 0.0801264 -0.0406506)
(0.0210822 0.0825707 -0.0249634)
(0.0217138 7.20965e-05 -0.00216483)
(0.0221179 -0.000214397 -0.00503562)
(0.0230472 -0.000464217 -0.00685503)
(0.0245766 -0.000591106 -0.0078382)
(0.026108 -0.000542959 -0.00824846)
(0.0271137 -0.000384044 -0.00836549)
(0.0273472 -0.000200221 -0.00843864)
(0.0267672 -5.04102e-05 -0.00866416)
(0.0254128 3.38476e-05 -0.00918326)
(0.0233553 6.32758e-05 -0.0101086)
(0.0206282 -6.85844e-06 -0.0115087)
(0.0172049 -0.00021459 -0.0134297)
(0.0130355 -0.000603891 -0.0158394)
(0.00797329 -0.00119251 -0.0183907)
(0.00216137 -0.00209183 -0.0194558)
(-0.002402 -0.0031456 -0.0135128)
(0.0618254 -0.000187271 -0.00242814)
(0.0621596 -0.00250125 -0.0081056)
(0.0631229 -0.00439241 -0.0127549)
(0.0649573 -0.00510156 -0.0157007)
(0.0670029 -0.00465394 -0.0171014)
(0.0683719 -0.00349085 -0.017479)
(0.068511 -0.00210586 -0.0174204)
(0.0672141 -0.000818742 -0.0174288)
(0.0644664 0.000232659 -0.0178827)
(0.0602906 0.00104959 -0.0190509)
(0.054615 0.00161977 -0.0211216)
(0.0472306 0.00191857 -0.0242153)
(0.037793 0.00186356 -0.0283034)
(0.0256386 0.00126491 -0.0327146)
(0.0106161 -0.000568151 -0.0341331)
(-0.00288218 -0.00431773 -0.0222529)
(0.096591 -1.97976e-06 -0.00159986)
(0.0962494 -0.00361791 -0.0072534)
(0.0954291 -0.00736556 -0.0131786)
(0.0948013 -0.0093198 -0.017716)
(0.0945788 -0.0090723 -0.0203429)
(0.0942057 -0.0071856 -0.0213638)
(0.0930606 -0.00455331 -0.0214547)
(0.090743 -0.00186371 -0.0213181)
(0.0870445 0.000530759 -0.0215216)
(0.0818088 0.00256689 -0.0224694)
(0.0747901 0.00427255 -0.0244442)
(0.0655677 0.00568348 -0.0276287)
(0.0535137 0.00674513 -0.0320481)
(0.0374675 0.00709643 -0.037017)
(0.0164794 0.00516064 -0.0386289)
(-0.00386229 -0.00209004 -0.0247394)
(0.125615 0.00021018 -0.00100889)
(0.124922 -0.00337971 -0.00571362)
(0.1225 -0.00795725 -0.011775)
(0.118903 -0.0109164 -0.0172243)
(0.115249 -0.0112485 -0.0208851)
(0.111788 -0.00926652 -0.022626)
(0.108239 -0.00596094 -0.0230216)
(0.104211 -0.0022576 -0.0228716)
(0.0993522 0.00128843 -0.0228853)
(0.0933077 0.00454218 -0.02358)
(0.0856176 0.00756303 -0.0253073)
(0.0756436 0.0104787 -0.0282921)
(0.0625045 0.0133436 -0.0326121)
(0.0446416 0.0157307 -0.0376725)
(0.0199776 0.0149771 -0.0394648)
(-0.0056322 0.00395573 -0.025226)
(0.148777 0.00032845 -0.000733806)
(0.148059 -0.00241353 -0.00457547)
(0.144866 -0.00661273 -0.0103391)
(0.139159 -0.0097425 -0.0161873)
(0.132455 -0.0104774 -0.0205531)
(0.125801 -0.00877246 -0.0228831)
(0.119502 -0.00542877 -0.0235652)
(0.113414 -0.00137336 -0.0234245)
(0.107205 0.0028474 -0.0232681)
(0.100395 0.00700851 -0.0237084)
(0.0923409 0.0112206 -0.0251452)
(0.0822106 0.0157365 -0.0278256)
(0.0688989 0.0207993 -0.0318612)
(0.0505384 0.0261268 -0.0367817)
(0.023582 0.028051 -0.0387116)
(-0.00686774 0.0138814 -0.0247195)
(0.166084 0.000387598 -0.000620709)
(0.16543 -0.00123671 -0.00388807)
(0.162028 -0.00425816 -0.00930375)
(0.155201 -0.00671752 -0.0152751)
(0.146442 -0.00736981 -0.0200613)
(0.137312 -0.00594156 -0.0227973)
(0.128658 -0.00294415 -0.0236817)
(0.120764 0.00094392 -0.0235138)
(0.113402 0.00527641 -0.0231789)
(0.106026 0.00989874 -0.0233425)
(0.0979529 0.0150057 -0.0244393)
(0.0882249 0.0210141 -0.0267219)
(0.0755823 0.0284518 -0.0303106)
(0.0579871 0.037583 -0.0348868)
(0.0301385 0.0443055 -0.0369096)
(-0.00553091 0.0294072 -0.0233036)
(0.17759 0.000434641 -0.000567868)
(0.176986 -5.80468e-05 -0.00349562)
(0.17361 -0.00149453 -0.00864351)
(0.166332 -0.00269421 -0.0146131)
(0.15648 -0.00280079 -0.0196052)
(0.145854 -0.00153152 -0.0225636)
(0.135715 0.000978352 -0.0235491)
(0.12666 0.00434008 -0.0233201)
(0.118629 0.00829782 -0.0227846)
(0.111172 0.0129158 -0.0226492)
(0.103618 0.0185103 -0.0233576)
(0.095018 0.025704 -0.0251476)
(0.0841678 0.0353939 -0.028116)
(0.0691117 0.0491505 -0.0321024)
(0.0436715 0.0635868 -0.034185)
(0.0020635 0.0555781 -0.0209628)
(0.183328 0.000484498 -0.000530295)
(0.182758 0.00107464 -0.00328012)
(0.179472 0.00138549 -0.00826885)
(0.172119 0.00175043 -0.0141878)
(0.1619 0.0024742 -0.0192244)
(0.150781 0.00372975 -0.0222468)
(0.140172 0.00563232 -0.0232162)
(0.130797 0.00816112 -0.022879)
(0.122814 0.011399 -0.0221393)
(0.115889 0.0155915 -0.0217019)
(0.109492 0.0211716 -0.0219941)
(0.102854 0.02893 -0.0232186)
(0.0954206 0.0400647 -0.0254197)
(0.0847672 0.0578801 -0.0285066)
(0.0733401 0.085998 -0.030936)
(0.0184605 0.0873323 -0.0168263)
(0.0224337 3.87445e-05 -0.00178121)
(0.0227775 -0.000276606 -0.00411264)
(0.023622 -0.000538564 -0.00559997)
(0.0250613 -0.000672201 -0.0064216)
(0.0264881 -0.000622062 -0.00678093)
(0.0273506 -0.000453378 -0.00689585)
(0.0273868 -0.00025728 -0.00696367)
(0.0265536 -9.67176e-05 -0.00714015)
(0.0248913 -7.68024e-06 -0.00753384)
(0.0224856 3.31869e-05 -0.00822511)
(0.019389 -2.10045e-05 -0.00924752)
(0.0156009 -0.0001974 -0.0106043)
(0.011126 -0.000525239 -0.0122229)
(0.00596052 -0.0010248 -0.0137856)
(0.000569613 -0.00186843 -0.0140813)
(-0.00318385 -0.00296778 -0.00940015)
(0.0639168 -0.000217965 -0.00195903)
(0.0641426 -0.00263657 -0.00651419)
(0.064934 -0.00464312 -0.0102808)
(0.0665518 -0.0054325 -0.0127136)
(0.0683434 -0.00500197 -0.013913)
(0.0693949 -0.00379615 -0.0142755)
(0.0691261 -0.00233503 -0.014262)
(0.067319 -0.000965044 -0.0142739)
(0.0639601 0.00015922 -0.0146108)
(0.0590884 0.00104603 -0.015477)
(0.0526559 0.0016861 -0.0169918)
(0.0445084 0.00207086 -0.0191973)
(0.0344141 0.00213651 -0.0219861)
(0.0219952 0.00168068 -0.0247354)
(0.00770007 -9.08242e-05 -0.0249345)
(-0.00427947 -0.00399226 -0.0156233)
(0.0998755 -1.28493e-05 -0.00127849)
(0.0994482 -0.00373179 -0.00575328)
(0.0984399 -0.00767491 -0.0105047)
(0.0975016 -0.00981343 -0.0142178)
(0.0968767 -0.00965322 -0.0164336)
(0.0960226 -0.00773114 -0.0173516)
(0.0943111 -0.00497331 -0.0174893)
(0.0913326 -0.0021194 -0.017404)
(0.0868768 0.000441732 -0.0175498)
(0.0807933 0.00263477 -0.0182399)
(0.0728543 0.00449201 -0.0196734)
(0.0626948 0.00606476 -0.0219385)
(0.0498073 0.00731092 -0.0249577)
(0.0333442 0.00784037 -0.0280632)
(0.0130874 0.00594811 -0.0282518)
(-0.00550317 -0.00159019 -0.0173284)
(0.129881 0.000204893 -0.000811486)
(0.129144 -0.00343396 -0.00448725)
(0.126589 -0.00820105 -0.00929459)
(0.12267 -0.0113955 -0.0137161)
(0.11851 -0.0118833 -0.0167756)
(0.11441 -0.00990791 -0.018304)
(0.11013 -0.00647103 -0.0187174)
(0.105298 -0.0025558 -0.0186418)
(0.0995714 0.0012319 -0.0186456)
(0.0925953 0.00472683 -0.0191368)
(0.0839188 0.00798878 -0.0203721)
(0.0729474 0.0111577 -0.0224752)
(0.0589085 0.0142919 -0.0254066)
(0.0405263 0.0169124 -0.0285507)
(0.0164684 0.016203 -0.0287858)
(-0.00738894 0.00477545 -0.0175572)
(0.153815 0.000319455 -0.000601904)
(0.153076 -0.00242451 -0.00357438)
(0.149818 -0.00675598 -0.00809958)
(0.143848 -0.0100992 -0.012808)
(0.136614 -0.0110078 -0.0164321)
(0.129215 -0.00934283 -0.0184558)
(0.122037 -0.00588773 -0.0191257)
(0.115008 -0.00160991 -0.019076)
(0.107825 0.00288718 -0.0189536)
(0.100018 0.00734889 -0.0192449)
(0.0909478 0.0118805 -0.0202489)
(0.0798122 0.0167454 -0.0221103)
(0.0655994 0.0221878 -0.0248179)
(0.0466698 0.0278517 -0.0278475)
(0.0201587 0.0298705 -0.0281493)
(-0.00862553 0.0152638 -0.0170853)
(0.171699 0.000378293 -0.000518738)
(0.171021 -0.0012244 -0.00303251)
(0.167604 -0.00431539 -0.00725061)
(0.16059 -0.0069239 -0.0120273)
(0.151334 -0.00771433 -0.0159798)
(0.141415 -0.00632455 -0.0183424)
(0.131789 -0.00323385 -0.019195)
(0.122843 0.000861837 -0.0191414)
(0.114421 0.00547445 -0.0188843)
(0.106004 0.010426 -0.0189589)
(0.0969111 0.0159085 -0.0196962)
(0.0862052 0.022353 -0.02125)
(0.0727088 0.0302952 -0.023624)
(0.0545415 0.0399156 -0.0264172)
(0.027008 0.0468599 -0.0268131)
(-0.00707103 0.0315517 -0.0160031)
(0.183589 0.00043186 -0.000480222)
(0.182952 -3.15878e-05 -0.00272607)
(0.179587 -0.00148733 -0.00671371)
(0.172183 -0.00275735 -0.0114671)
(0.161883 -0.0029323 -0.0155749)
(0.150471 -0.00167072 -0.0181227)
(0.139316 0.000930869 -0.0190693)
(0.129153 0.00447637 -0.0189783)
(0.12002 0.00869612 -0.0185695)
(0.11151 0.0136423 -0.0184126)
(0.102964 0.0196398 -0.0188513)
(0.0934517 0.0273333 -0.0200353)
(0.0818435 0.0376422 -0.0219639)
(0.0663068 0.052071 -0.0243771)
(0.0410333 0.0668934 -0.0249038)
(0.000961056 0.0587174 -0.0143837)
(0.189519 0.000492837 -0.000451575)
(0.188911 0.00111062 -0.00255693)
(0.185649 0.00144198 -0.00640985)
(0.178207 0.00181758 -0.0111114)
(0.167577 0.00255896 -0.0152482)
(0.155694 0.00386043 -0.0178461)
(0.144075 0.00586157 -0.0187877)
(0.133588 0.00854769 -0.0186178)
(0.124509 0.0120085 -0.0180528)
(0.116563 0.0165007 -0.0176639)
(0.109244 0.0224778 -0.0177886)
(0.101798 0.0307614 -0.0185589)
(0.0937452 0.0425782 -0.0199525)
(0.0827794 0.0612683 -0.0217979)
(0.0716661 0.0901108 -0.0227414)
(0.0174338 0.0905817 -0.0115334)
(0.0229713 1.223e-05 -0.0013254)
(0.0232682 -0.00032664 -0.00304433)
(0.0240481 -0.000599068 -0.00414546)
(0.0254202 -0.000739166 -0.00476357)
(0.0267705 -0.000688561 -0.0050427)
(0.0275284 -0.000512879 -0.00513807)
(0.0274199 -0.000307328 -0.00519184)
(0.0264017 -0.000137904 -0.00531639)
(0.0245186 -4.29855e-05 -0.00558841)
(0.0218715 6.75597e-06 -0.0060596)
(0.0185337 -3.30319e-05 -0.00674471)
(0.0145314 -0.000182747 -0.00762995)
(0.00991357 -0.000462699 -0.00864387)
(0.00476904 -0.000896487 -0.00954679)
(-0.000298359 -0.00168774 -0.00952139)
(-0.0035659 -0.00282264 -0.00621715)
(0.0654832 -0.000241693 -0.00143737)
(0.065626 -0.00274002 -0.00476617)
(0.0662889 -0.00483607 -0.00753607)
(0.0677466 -0.00569027 -0.00935014)
(0.0693518 -0.00527699 -0.0102675)
(0.07017 -0.00404131 -0.0105646)
(0.0696 -0.00252275 -0.010572)
(0.0674164 -0.00108857 -0.0105807)
(0.0636105 9.34015e-05 -0.0108061)
(0.0582422 0.00103652 -0.0113927)
(0.0512942 0.00173439 -0.0124087)
(0.0426661 0.00219055 -0.0138591)
(0.0322207 0.00235369 -0.0156305)
(0.0197759 0.00201073 -0.0172467)
(0.00604777 0.000305863 -0.0169879)
(-0.00499846 -0.0037144 -0.0104079)
(0.102336 -2.17472e-05 -0.00093173)
(0.101844 -0.00381586 -0.00416979)
(0.100697 -0.00790646 -0.00763708)
(0.0995319 -0.0101892 -0.0103865)
(0.0986118 -0.0101026 -0.0120633)
(0.0974027 -0.00815984 -0.0127879)
(0.0952708 -0.00530906 -0.0129234)
(0.0918014 -0.00232921 -0.0128721)
(0.0867883 0.00036091 -0.0129643)
(0.0800943 0.00267796 -0.013422)
(0.0715176 0.00465586 -0.0143759)
(0.0607526 0.0063581 -0.015862)
(0.0473966 0.00775196 -0.017782)
(0.0308259 0.00842735 -0.0196137)
(0.0111519 0.00660149 -0.0192809)
(-0.00636419 -0.00116294 -0.011544)
(0.133077 0.000199501 -0.000594245)
(0.132305 -0.00347233 -0.00322969)
(0.129653 -0.00837864 -0.00670886)
(0.125504 -0.0117533 -0.00996143)
(0.120976 -0.012367 -0.0122613)
(0.116406 -0.0104052 -0.0134496)
(0.111582 -0.00687338 -0.0138037)
(0.106151 -0.00279685 -0.0137712)
(0.0997821 0.00117691 -0.013766)
(0.0921309 0.00485862 -0.0140812)
(0.0827664 0.00830724 -0.0148912)
(0.0711447 0.0116708 -0.0162589)
(0.056591 0.01501 -0.0181117)
(0.0380439 0.0178119 -0.0199572)
(0.0144828 0.0171709 -0.0196236)
(-0.00832489 0.00543389 -0.0116516)
(0.157591 0.000311162 -0.000446713)
(0.156829 -0.00243104 -0.00256388)
(0.153526 -0.00685647 -0.00581423)
(0.147373 -0.0103603 -0.00925694)
(0.139761 -0.0114061 -0.0119674)
(0.131817 -0.00978013 -0.0135294)
(0.123988 -0.00624672 -0.0140859)
(0.116254 -0.00180259 -0.0140827)
(0.108347 0.00290659 -0.0139916)
(0.0998128 0.00759875 -0.0141639)
(0.0900305 0.0123728 -0.0148067)
(0.0782365 0.0174974 -0.0160002)
(0.0635044 0.0232145 -0.0176937)
(0.0443764 0.0291179 -0.0194582)
(0.0182597 0.0312231 -0.0191669)
(-0.00954633 0.016305 -0.0112796)
(0.175908 0.000370289 -0.000389591)
(0.175204 -0.0012139 -0.00217356)
(0.171775 -0.00435172 -0.00518544)
(0.164636 -0.00707038 -0.00866067)
(0.155032 -0.00796854 -0.0116049)
(0.144544 -0.00661475 -0.0134212)
(0.134198 -0.00345901 -0.0141227)
(0.124466 0.000790873 -0.0141279)
(0.115254 0.00561665 -0.0139431)
(0.106073 0.0108178 -0.0139603)
(0.0962596 0.0165803 -0.0144125)
(0.0849093 0.0233409 -0.0153888)
(0.0709174 0.0316345 -0.0168526)
(0.0525345 0.0415825 -0.0184633)
(0.0253305 0.0486792 -0.0182401)
(-0.00780604 0.0330809 -0.0105344)
(0.188087 0.000429521 -0.000363232)
(0.187416 -1.01942e-05 -0.00195433)
(0.184055 -0.0014763 -0.00479026)
(0.176571 -0.00279684 -0.00823633)
(0.165965 -0.00302461 -0.0112876)
(0.153989 -0.00177238 -0.0132422)
(0.142087 0.000894651 -0.0140197)
(0.131097 0.00457778 -0.0140043)
(0.121139 0.00899454 -0.0137148)
(0.111852 0.0141863 -0.0135684)
(0.1026 0.0204792 -0.0138105)
(0.0924804 0.0285273 -0.0145315)
(0.0804288 0.0392554 -0.0156975)
(0.0647131 0.0541183 -0.0170742)
(0.0396872 0.0691881 -0.0169725)
(0.000546451 0.0608871 -0.00946352)
(0.194162 0.000499612 -0.000342985)
(0.193515 0.00113977 -0.00183284)
(0.190266 0.00148891 -0.004567)
(0.182772 0.00187419 -0.00796899)
(0.171863 0.0026291 -0.0110376)
(0.159438 0.0039648 -0.0130286)
(0.147079 0.00603933 -0.0138063)
(0.135761 0.00884376 -0.0137377)
(0.12586 0.0124716 -0.0133391)
(0.117157 0.0171857 -0.0130302)
(0.109172 0.0234495 -0.0130549)
(0.101181 0.0320995 -0.0134965)
(0.0927643 0.0443692 -0.0143129)
(0.0816937 0.0636082 -0.015346)
(0.070952 0.0929113 -0.0155778)
(0.0170737 0.0927822 -0.00756919)
(0.0233268 -6.56319e-06 -0.000810292)
(0.0235925 -0.000364622 -0.00185638)
(0.0243292 -0.000646186 -0.00252584)
(0.0256565 -0.0007925 -0.00290614)
(0.0269571 -0.000742712 -0.00308191)
(0.0276471 -0.000562365 -0.00314476)
(0.0274444 -0.000349809 -0.00317951)
(0.026306 -0.000173415 -0.00325323)
(0.0242817 -7.25207e-05 -0.00341107)
(0.0214842 -1.71488e-05 -0.0036818)
(0.0180031 -4.64156e-05 -0.00407052)
(0.0138848 -0.000177598 -0.00456323)
(0.00920691 -0.000426011 -0.00511125)
(0.00410951 -0.000816776 -0.00557058)
(-0.000751342 -0.00156627 -0.00547637)
(-0.00374981 -0.00273619 -0.00352953)
(0.0665229 -0.000257464 -0.000870534)
(0.0666105 -0.00281166 -0.0028878)
(0.0671889 -0.00496978 -0.00456834)
(0.0685407 -0.00587026 -0.0056795)
(0.0700242 -0.00547166 -0.00625119)
(0.0706902 -0.00421761 -0.00644413)
(0.0699229 -0.00266045 -0.00645533)
(0.067493 -0.00118211 -0.00645992)
(0.063396 4.02025e-05 -0.00658668)
(0.0577102 0.00102298 -0.00692138)
(0.0504447 0.00176193 -0.00749774)
(0.0415385 0.00226829 -0.00830965)
(0.0309188 0.00249828 -0.00927749)
(0.0185194 0.0022318 -0.0101117)
(0.00515502 0.000578546 -0.00982422)
(-0.00536932 -0.00353006 -0.00594199)
(0.103972 -2.71096e-05 -0.000560169)
(0.103434 -0.00387053 -0.00251105)
(0.102199 -0.00805962 -0.00460424)
(0.100884 -0.0104412 -0.00627973)
(0.099771 -0.0104089 -0.00731769)
(0.0983295 -0.00845636 -0.00777852)
(0.0959213 -0.00554492 -0.00787471)
(0.0921286 -0.0024801 -0.00784774)
(0.086751 0.000297691 -0.00789681)
(0.0796642 0.00270074 -0.00815315)
(0.0706887 0.00476238 -0.00869036)
(0.0595649 0.00655425 -0.00952029)
(0.0459631 0.00804952 -0.0105695)
(0.029395 0.00882502 -0.011516)
(0.0100982 0.00704836 -0.0111595)
(-0.00681606 -0.000857789 -0.00659703)
(0.135202 0.000195938 -0.000356571)
(0.134403 -0.0034956 -0.00193562)
(0.131691 -0.00849269 -0.00402472)
(0.127393 -0.0119885 -0.00599716)
(0.122626 -0.0126912 -0.00741425)
(0.117748 -0.0107437 -0.00816336)
(0.112566 -0.00715144 -0.00839949)
(0.106739 -0.00296683 -0.00838894)
(0.0999484 0.00113312 -0.00838185)
(0.0918604 0.00494198 -0.00855329)
(0.0820631 0.00851758 -0.009004)
(0.0700525 0.0120126 -0.0097624)
(0.0552227 0.0154888 -0.0107702)
(0.0366421 0.0184115 -0.0117209)
(0.0134184 0.0178143 -0.0113626)
(-0.00879576 0.00590415 -0.00663264)
(0.160105 0.000305283 -0.000269277)
(0.159321 -0.00243364 -0.00153281)
(0.15599 -0.00691868 -0.00347526)
(0.149721 -0.0105287 -0.00555371)
(0.141866 -0.0116696 -0.00721749)
(0.133568 -0.0100748 -0.00819771)
(0.12531 -0.00649271 -0.00856266)
(0.11711 -0.00193858 -0.0085745)
(0.108725 0.00291383 -0.00851814)
(0.0997189 0.00776164 -0.0086045)
(0.0894863 0.0126983 -0.00895491)
(0.0772964 0.0179945 -0.00960923)
(0.0622823 0.0238901 -0.0105228)
(0.0430914 0.0299492 -0.0114255)
(0.0172703 0.0321163 -0.0110948)
(-0.00996347 0.0169922 -0.00639563)
(0.17871 0.000364643 -0.000236203)
(0.177982 -0.0012057 -0.00129849)
(0.174545 -0.00437184 -0.00309182)
(0.167329 -0.00716224 -0.00518228)
(0.157503 -0.00813399 -0.00698405)
(0.146647 -0.00680824 -0.00812068)