/*--------------------------------*- C++ -*----------------------------------*\
| =========                 |                                                 |
| \\      /  F ield         | foam-extend: Open Source CFD                    |
|  \\    /   O peration     | Version:     3.1                                |
|   \\  /    A nd           | Web:         http://www.extend-project.de       |
|    \\/     M anipulation  |                                                 |
\*---------------------------------------------------------------------------*/
FoamFile
{
    version     2.0;
    format      ascii;
    class       volSymmTensorField;
    location    "0.0006";
    object      epsilon;
}
// * * * * * * * * * * * * * * * * * * * * * * * * * * * * * * * * * * * * * //

dimensions      [0 0 0 0 0 0 0];

internalField   nonuniform List<symmTensor> 
6400
(
(-0.00283555 -0.000189228 0.00703206 0.00138276 0.000192403 0.00902403)
(-0.00169377 -0.000129768 0.00768264 0.00122092 0.000246544 0.00309202)
(-0.00078499 -8.20858e-05 0.0072553 0.00111544 0.000231463 -0.00154976)
(0.000164941 -3.31922e-05 0.0058377 0.00105785 0.00015379 -0.00718099)
(-0.00276551 -0.000492749 0.00699809 0.00135271 0.000817621 0.00891879)
(-0.00164362 -0.000340844 0.00762848 0.00119692 0.000895623 0.00301907)
(-0.000746479 -0.000221897 0.00719163 0.00110172 0.000845958 -0.00162438)
(0.000197779 -0.000102368 0.00576448 0.00105629 0.00067894 -0.0072918)
(-0.00266102 -0.000808405 0.00690932 0.00124582 0.00136724 0.00891326)
(-0.00157153 -0.000557353 0.007532 0.00112549 0.00149315 0.0030155)
(-0.000698865 -0.000362239 0.00710093 0.00105491 0.00140967 -0.0016267)
(0.000221761 -0.000167566 0.00569277 0.00103358 0.00113182 -0.0072925)
(-0.00250997 -0.00110329 0.00677912 0.00109419 0.00190609 0.00891029)
(-0.00146749 -0.000761051 0.00739001 0.00102092 0.00208043 0.00301417)
(-0.000631229 -0.000494555 0.00696695 0.000986783 0.00196348 -0.00162661)
(0.000252905 -0.000228699 0.00558525 0.00100152 0.00157629 -0.00729072)
(-0.00231517 -0.00137117 0.00660744 0.000899027 0.00243225 0.00890866)
(-0.00133316 -0.000946112 0.00720261 0.000886052 0.00265404 0.00301411)
(-0.000544054 -0.000614884 0.00679006 0.000898885 0.00250434 -0.00162523)
(0.000292946 -0.000284354 0.00544322 0.000960436 0.00201009 -0.00728755)
(-0.00208111 -0.00160549 0.00639507 0.000664777 0.00294305 0.00890785)
(-0.00117169 -0.00110799 0.00697085 0.000724138 0.00321083 0.00301473)
(-0.000439248 -0.000720154 0.00657136 0.000793375 0.00302919 -0.00162323)
(0.000341083 -0.000333059 0.00526768 0.000911233 0.00243082 -0.00728377)
(-0.00181339 -0.00180055 0.00614323 0.000396926 0.00343563 0.00890772)
(-0.000986935 -0.00124273 0.00669617 0.000539009 0.00374759 0.00301574)
(-0.000319272 -0.000807778 0.00631228 0.000672771 0.003535 -0.00162101)
(0.000396242 -0.000373617 0.00505987 0.000855087 0.00283608 -0.0072799)
(-0.00151845 -0.00195155 0.00585337 0.000101851 0.00390707 0.00890828)
(-0.000783266 -0.00134704 0.00638026 0.000335051 0.00426117 0.00301699)
(-0.000186946 -0.00087559 0.00601448 0.000539931 0.00401882 -0.00161884)
(0.000457167 -0.000405013 0.00482116 0.000793323 0.00322353 -0.00727639)
(-0.00120334 -0.00205482 0.00552716 -0.000213326 0.00435442 0.00890951)
(-0.000565473 -0.00141828 0.00602502 0.000117158 0.00474845 0.00301831)
(-4.5413e-05 -0.000921837 0.00567983 0.000398065 0.00447774 -0.00161703)
(0.000522419 -0.000426405 0.0045531 0.000727439 0.00359092 -0.00727365)
(-0.00087436 -0.00210811 0.00516678 -0.000540984 0.00477505 0.00891072)
(-0.000338792 -0.00145453 0.00563285 -0.00010927 0.0052065 0.00301927)
(0.00010176 -0.000945269 0.00531056 0.00025079 0.0049091 -0.00161595)
(0.000590324 -0.000437209 0.00425748 0.000659188 0.00393617 -0.00727211)
(-0.000540984 -0.00210811 0.00477505 -0.000874359 0.00516678 0.00891072)
(-0.00010927 -0.00145454 0.0052065 -0.000338792 0.00563285 0.00301927)
(0.000250789 -0.000945269 0.0049091 0.000101761 0.00531056 -0.00161595)
(0.000659188 -0.000437209 0.00393617 0.000590324 0.00425748 -0.00727211)
(-0.000213326 -0.00205482 0.00435442 -0.00120334 0.00552716 0.00890951)
(0.000117158 -0.00141828 0.00474845 -0.000565473 0.00602502 0.00301831)
(0.000398065 -0.000921837 0.00447774 -4.54128e-05 0.00567983 -0.00161703)
(0.000727438 -0.000426405 0.00359092 0.000522419 0.0045531 -0.00727365)
(0.000101851 -0.00195155 0.00390707 -0.00151845 0.00585337 0.00890828)
(0.000335051 -0.00134704 0.00426118 -0.000783265 0.00638026 0.00301699)
(0.000539931 -0.00087559 0.00401882 -0.000186946 0.00601448 -0.00161884)
(0.000793323 -0.000405014 0.00322353 0.000457167 0.00482116 -0.00727639)
(0.000396926 -0.00180055 0.00343563 -0.00181339 0.00614324 0.00890772)
(0.000539009 -0.00124273 0.0037476 -0.000986935 0.00669617 0.00301574)
(0.000672771 -0.000807778 0.00353501 -0.000319272 0.00631228 -0.00162101)
(0.000855087 -0.000373617 0.00283608 0.000396242 0.00505987 -0.0072799)
(0.000664777 -0.00160549 0.00294305 -0.00208111 0.00639507 0.00890785)
(0.000724138 -0.00110799 0.00321083 -0.00117169 0.00697085 0.00301473)
(0.000793375 -0.000720154 0.00302919 -0.000439248 0.00657136 -0.00162323)
(0.000911234 -0.000333059 0.00243082 0.000341083 0.00526768 -0.00728377)
(0.000899027 -0.00137117 0.00243225 -0.00231517 0.00660744 0.00890866)
(0.000886052 -0.000946113 0.00265405 -0.00133316 0.00720261 0.00301411)
(0.000898885 -0.000614884 0.00250435 -0.000544054 0.00679006 -0.00162523)
(0.000960436 -0.000284354 0.0020101 0.000292946 0.00544322 -0.00728755)
(0.00109419 -0.0011033 0.00190609 -0.00250997 0.00677912 0.00891029)
(0.00102092 -0.000761052 0.00208043 -0.00146749 0.00739001 0.00301417)
(0.000986783 -0.000494555 0.00196348 -0.000631229 0.00696695 -0.00162661)
(0.00100152 -0.0002287 0.00157629 0.000252905 0.00558525 -0.00729072)
(0.00124582 -0.000808405 0.00136724 -0.00266102 0.00690932 0.00891326)
(0.00112549 -0.000557354 0.00149315 -0.00157153 0.007532 0.0030155)
(0.00105491 -0.00036224 0.00140967 -0.000698866 0.00710093 -0.0016267)
(0.00103358 -0.000167566 0.00113182 0.000221761 0.00569278 -0.0072925)
(0.00135271 -0.000492749 0.000817621 -0.00276551 0.00699809 0.00891879)
(0.00119692 -0.000340844 0.000895624 -0.00164362 0.00762848 0.00301907)
(0.00110172 -0.000221897 0.000845958 -0.000746479 0.00719163 -0.00162438)
(0.00105629 -0.000102369 0.00067894 0.000197779 0.00576448 -0.0072918)
(0.00138276 -0.000189228 0.000192403 -0.00283555 0.00703207 0.00902403)
(0.00122092 -0.000129768 0.000246544 -0.00169377 0.00768264 0.00309202)
(0.00111544 -8.20858e-05 0.000231463 -0.00078499 0.0072553 -0.00154976)
(0.00105785 -3.31922e-05 0.00015379 0.000164941 0.0058377 -0.00718099)
(-0.00483853 -0.000392992 0.00280636 0.0041568 -3.54743e-05 0.000607455)
(-0.00353039 -0.000319259 0.00521668 0.00378289 9.70302e-05 0.000673261)
(-0.00229382 -0.000248092 0.00513768 0.00349384 9.52202e-05 4.20688e-05)
(-0.00121311 -0.000185427 0.00274162 0.00327926 -3.11776e-05 -9.85164e-05)
(-0.00471483 -0.00105167 0.00283157 0.00407398 0.0003339 0.000614833)
(-0.00342242 -0.00085536 0.00518976 0.00370189 0.000614245 0.000659716)
(-0.00220321 -0.000675333 0.00507836 0.00342577 0.000603376 2.69173e-05)
(-0.00113843 -0.000520829 0.00265491 0.00322062 0.000321081 -9.6309e-05)
(-0.00449497 -0.00172687 0.00279695 0.003848 0.000554364 0.000612672)
(-0.00324309 -0.00139962 0.00512463 0.00352403 0.00101951 0.000656488)
(-0.00206054 -0.00110535 0.00501406 0.003285 0.00100014 2.38721e-05)
(-0.00102729 -0.000855981 0.00262144 0.00311201 0.000527659 -9.83666e-05)
(-0.00417282 -0.0023572 0.00274441 0.0035254 0.000770676 0.000611807)
(-0.00298221 -0.00191136 0.00502778 0.00326267 0.00141732 0.000655923)
(-0.00185437 -0.00150958 0.00491906 0.00307857 0.00138954 2.39006e-05)
(-0.000868019 -0.00116912 0.00257151 0.00295187 0.00073098 -9.75493e-05)
(-0.00375692 -0.00292987 0.0026748 0.00310934 0.00098228 0.000611333)
(-0.00264493 -0.00237618 0.00489982 0.00292488 0.00180611 0.000656229)
(-0.00158808 -0.0018768 0.0047937 0.00281143 0.00177005 2.50372e-05)
(-0.000662047 -0.00145346 0.00250573 0.00274454 0.000929661 -9.55466e-05)
(-0.00325698 -0.00343089 0.00258845 0.0026095 0.00118825 0.00061103)
(-0.00223942 -0.00278269 0.00474159 0.00251892 0.00218386 0.000656905)
(-0.00126787 -0.00219786 0.00463883 0.00249025 0.00213961 2.66447e-05)
(-0.000414334 -0.00170194 0.00242466 0.00249523 0.00112256 -9.30008e-05)
(-0.00268503 -0.00384804 0.00248576 0.00203767 0.00138737 0.000610865)
(-0.00177544 -0.003121 0.00455409 0.00205451 0.00254836 0.000657756)
(-0.000901464 -0.00246492 0.0044555 0.00212289 0.00249603 2.84152e-05)
(-0.000130858 -0.00190854 0.00232888 0.00221017 0.00130849 -9.03068e-05)
(-0.0020548 -0.00417107 0.00236728 0.00140748 0.00157826 0.000610848)
(-0.00126405 -0.00338286 0.0043385 0.00154278 0.00289732 0.00065865)
(-0.000497593 -0.00267146 0.00424493 0.0017182 0.0028371 3.01034e-05)
(0.000181579 -0.00206819 0.00221906 0.00189633 0.00148629 -8.78164e-05)
(-0.00138136 -0.00439208 0.00223376 0.000734134 0.00175938 0.000610911)
(-0.000717315 -0.00356169 0.00409625 0.000996003 0.00322847 0.000659411)
(-6.59151e-05 -0.00281228 0.00400852 0.001286 0.00316069 3.14485e-05)
(0.000515441 -0.00217689 0.00209596 0.00156139 0.00165483 -8.58857e-05)
(-0.000678446 -0.00450607 0.00208708 3.38754e-05 0.00192905 0.000610951)
(-0.000148392 -0.00365269 0.0038293 0.000427683 0.00353962 0.000659844)
(0.000382809 -0.00288364 0.00374792 0.00083716 0.00346483 3.21985e-05)
(0.000862392 -0.00223187 0.00196039 0.00121385 0.00181313 -8.48281e-05)
(3.38747e-05 -0.00450607 0.00192905 -0.000678445 0.00208708 0.000610951)
(0.000427682 -0.00365269 0.00353962 -0.000148391 0.0038293 0.000659844)
(0.000837159 -0.00288364 0.00346483 0.00038281 0.00374792 3.21984e-05)
(0.00121385 -0.00223187 0.00181313 0.000862392 0.00196039 -8.48281e-05)
(0.000734133 -0.00439208 0.00175938 -0.00138136 0.00223376 0.000610911)
(0.000996002 -0.00356169 0.00322847 -0.000717314 0.00409625 0.000659411)
(0.001286 -0.00281228 0.0031607 -6.59145e-05 0.00400852 3.14484e-05)
(0.00156139 -0.0021769 0.00165483 0.000515441 0.00209596 -8.58856e-05)
(0.00140748 -0.00417107 0.00157826 -0.0020548 0.00236728 0.000610847)
(0.00154278 -0.00338286 0.00289733 -0.00126405 0.0043385 0.000658649)
(0.0017182 -0.00267146 0.0028371 -0.000497592 0.00424493 3.01033e-05)
(0.00189633 -0.00206819 0.00148629 0.00018158 0.00221906 -8.78163e-05)
(0.00203767 -0.00384804 0.00138737 -0.00268503 0.00248576 0.000610864)
(0.00205451 -0.003121 0.00254836 -0.00177544 0.00455409 0.000657755)
(0.00212289 -0.00246492 0.00249603 -0.000901463 0.0044555 2.8415e-05)
(0.00221017 -0.00190854 0.00130849 -0.000130858 0.00232888 -9.03066e-05)
(0.0026095 -0.00343089 0.00118825 -0.00325698 0.00258845 0.000611029)
(0.00251892 -0.00278269 0.00218386 -0.00223942 0.00474159 0.000656904)
(0.00249025 -0.00219786 0.00213961 -0.00126787 0.00463883 2.66446e-05)
(0.00249523 -0.00170194 0.00112256 -0.000414334 0.00242466 -9.30006e-05)
(0.00310934 -0.00292987 0.000982281 -0.00375692 0.0026748 0.000611332)
(0.00292488 -0.00237618 0.00180611 -0.00264493 0.00489982 0.000656229)
(0.00281143 -0.0018768 0.00177005 -0.00158808 0.0047937 2.5037e-05)
(0.00274454 -0.00145346 0.000929662 -0.000662047 0.00250573 -9.55463e-05)
(0.0035254 -0.0023572 0.000770677 -0.00417282 0.00274441 0.000611806)
(0.00326267 -0.00191136 0.00141732 -0.00298221 0.00502778 0.000655922)
(0.00307857 -0.00150958 0.00138954 -0.00185437 0.00491906 2.39005e-05)
(0.00295187 -0.00116912 0.00073098 -0.000868019 0.00257151 -9.7549e-05)
(0.003848 -0.00172687 0.000554365 -0.00449497 0.00279695 0.000612671)
(0.00352403 -0.00139962 0.00101951 -0.0032431 0.00512463 0.000656488)
(0.00328501 -0.00110535 0.00100014 -0.00206054 0.00501406 2.38719e-05)
(0.00311201 -0.000855981 0.00052766 -0.00102729 0.00262144 -9.83661e-05)
(0.00407398 -0.00105167 0.0003339 -0.00471483 0.00283157 0.000614831)
(0.00370189 -0.00085536 0.000614245 -0.00342242 0.00518976 0.000659715)
(0.00342577 -0.000675333 0.000603377 -0.00220321 0.00507836 2.69171e-05)
(0.00322062 -0.000520829 0.000321081 -0.00113843 0.00265491 -9.63085e-05)
(0.0041568 -0.000392992 -3.54741e-05 -0.00483853 0.00280636 0.000607453)
(0.0037829 -0.000319259 9.70304e-05 -0.0035304 0.00521668 0.00067326)
(0.00349384 -0.000248092 9.52203e-05 -0.00229382 0.00513768 4.20686e-05)
(0.00327927 -0.000185427 -3.11775e-05 -0.00121312 0.00274162 -9.85159e-05)
(-0.00354494 -0.00042105 0.00125327 0.00645142 -5.72775e-05 -0.00415021)
(-0.00360797 -0.000409903 0.00225838 0.00599652 -3.79043e-06 -0.00148361)
(-0.00339117 -0.00038266 0.00222357 0.00558401 -5.14348e-06 0.000734363)
(-0.00351055 -0.000370183 0.00117406 0.00521312 -5.93899e-05 0.00330885)
(-0.00343808 -0.00116952 0.00125769 0.0063322 0.000144861 -0.00410359)
(-0.00349158 -0.00112371 0.00224415 0.00586654 0.000262177 -0.00144682)
(-0.00328206 -0.00104801 0.00219281 0.00545371 0.000258017 0.000772348)
(-0.00341563 -0.00101416 0.00113453 0.00506971 0.000136608 0.00336008)
(-0.00319777 -0.00192194 0.00124177 0.00608393 0.000243067 -0.00410071)
(-0.00325901 -0.00184076 0.00221555 0.00563331 0.000439182 -0.00144392)
(-0.00306429 -0.00171787 0.00216447 0.00523587 0.000431699 0.0007751)
(-0.00320524 -0.00166917 0.00112022 0.00486126 0.000227307 0.00336225)
(-0.0028402 -0.00262431 0.0012183 0.00572643 0.000338617 -0.00409974)
(-0.00291644 -0.00251423 0.002173 0.00529052 0.00061127 -0.00144301)
(-0.0027442 -0.00234657 0.00212271 0.00491593 0.000600336 0.000775914)
(-0.00289461 -0.0022803 0.00109823 0.00455058 0.000315086 0.00336288)
(-0.00237757 -0.00326255 0.00118713 0.00526446 0.000431847 -0.00409945)
(-0.00247277 -0.00312576 0.00211681 0.00484711 0.000778806 -0.0014426)
(-0.00232988 -0.00291727 0.00206758 0.00450158 0.000764311 0.000776362)
(-0.00249191 -0.00283468 0.00106928 0.00414756 0.000400108 0.00336333)
(-0.00182108 -0.00382104 0.00114828 0.00470897 0.000522702 -0.00409943)
(-0.00193917 -0.00366039 0.0020473 0.00431387 0.000941356 -0.0014423)
(-0.00183159 -0.00341587 0.00199955 0.00400314 0.000923167 0.000776845)
(-0.00200753 -0.00331881 0.00103374 0.00366253 0.000482204 0.00336399)
(-0.00118419 -0.00428614 0.00110182 0.0040731 0.000610792 -0.00409957)
(-0.00132871 -0.00410513 0.00196495 0.00370375 0.00109811 -0.00144199)
(-0.00126164 -0.00383029 0.0019192 0.00343294 0.0010761 0.000777436)
(-0.00145354 -0.00372096 0.000992017 0.00310771 0.000560953 0.00336489)
(-0.000482248 -0.00464641 0.00104799 0.00337206 0.000695468 -0.00409979)
(-0.000656143 -0.00444919 0.00187043 0.00303147 0.0012481 -0.00144168)
(-0.000633895 -0.00415052 0.00182726 0.00280493 0.0012222 0.000778068)
(-0.000843541 -0.00403144 0.000944587 0.00249688 0.000635881 0.0033659)
(0.000267867 -0.00489295 0.000987266 0.0026227 0.000775854 -0.00410006)
(6.25294e-05 -0.00468404 0.00176464 0.00231325 0.00139036 -0.00144145)
(3.64911e-05 -0.00436867 0.00172459 0.00213441 0.00136064 0.000778604)
(-0.000192411 -0.00424268 0.000891975 0.00184506 0.000706595 0.00336677)
(0.00105027 -0.00501985 0.000921164 0.00184303 0.000850957 -0.00410027)
(0.000809939 -0.00480344 0.00164883 0.00156666 0.00152401 -0.00144133)
(0.000732953 -0.00447919 0.00161218 0.00143803 0.00149075 0.000778907)
(0.000483786 -0.00434953 0.000834653 0.00116845 0.000772861 0.00336728)
(0.00184303 -0.00501985 0.000850958 0.00105027 0.000921163 -0.00410027)
(0.00156666 -0.00480344 0.00152402 0.00080994 0.00164883 -0.00144133)
(0.00143803 -0.00447919 0.00149075 0.000732954 0.00161218 0.000778907)
(0.00116845 -0.00434953 0.000772862 0.000483787 0.000834652 0.00336728)
(0.0026227 -0.00489295 0.000775856 0.000267868 0.000987265 -0.00410006)
(0.00231324 -0.00468404 0.00139036 6.25301e-05 0.00176464 -0.00144145)
(0.00213441 -0.00436867 0.00136064 3.64918e-05 0.00172459 0.000778604)
(0.00184505 -0.00424268 0.000706596 -0.00019241 0.000891974 0.00336677)
(0.00337206 -0.00464641 0.00069547 -0.000482247 0.00104799 -0.00409979)
(0.00303147 -0.00444919 0.00124811 -0.000656143 0.00187043 -0.00144168)
(0.00280493 -0.00415052 0.0012222 -0.000633894 0.00182726 0.000778068)
(0.00249688 -0.00403144 0.000635882 -0.000843541 0.000944587 0.0033659)
(0.0040731 -0.00428614 0.000610793 -0.00118419 0.00110182 -0.00409957)
(0.00370375 -0.00410513 0.00109811 -0.00132871 0.00196495 -0.00144199)
(0.00343294 -0.00383029 0.0010761 -0.00126164 0.0019192 0.000777436)
(0.00310771 -0.00372097 0.000560954 -0.00145354 0.000992017 0.00336489)
(0.00470897 -0.00382104 0.000522704 -0.00182108 0.00114828 -0.00409943)
(0.00431387 -0.00366039 0.000941357 -0.00193917 0.0020473 -0.0014423)
(0.00400314 -0.00341587 0.000923168 -0.00183159 0.00199955 0.000776845)
(0.00366253 -0.00331881 0.000482205 -0.00200753 0.00103374 0.00336399)
(0.00526446 -0.00326255 0.000431848 -0.00237757 0.00118713 -0.00409945)
(0.00484711 -0.00312576 0.000778807 -0.00247277 0.00211681 -0.0014426)
(0.00450158 -0.00291727 0.000764312 -0.00232988 0.00206758 0.000776362)
(0.00414756 -0.00283468 0.000400109 -0.00249191 0.00106928 0.00336333)
(0.00572643 -0.00262431 0.000338618 -0.0028402 0.0012183 -0.00409974)
(0.00529052 -0.00251423 0.00061127 -0.00291645 0.002173 -0.00144301)
(0.00491593 -0.00234658 0.000600337 -0.0027442 0.00212271 0.000775914)
(0.00455058 -0.0022803 0.000315087 -0.00289461 0.00109823 0.00336288)
(0.00608393 -0.00192194 0.000243068 -0.00319777 0.00124177 -0.00410071)
(0.00563331 -0.00184076 0.000439183 -0.00325901 0.00221555 -0.00144392)
(0.00523587 -0.00171787 0.000431699 -0.00306429 0.00216447 0.0007751)
(0.00486127 -0.00166917 0.000227308 -0.00320524 0.00112022 0.00336225)
(0.0063322 -0.00116952 0.000144861 -0.00343808 0.00125769 -0.00410359)
(0.00586654 -0.00112371 0.000262177 -0.00349158 0.00224415 -0.00144682)
(0.00545371 -0.00104801 0.000258017 -0.00328206 0.00219281 0.000772348)
(0.00506971 -0.00101416 0.000136608 -0.00341563 0.00113453 0.00336008)
(0.00645142 -0.00042105 -5.72773e-05 -0.00354494 0.00125327 -0.00415021)
(0.00599652 -0.000409903 -3.79029e-06 -0.00360797 0.00225839 -0.00148361)
(0.00558402 -0.00038266 -5.14337e-06 -0.00339117 0.00222357 0.000734363)
(0.00521312 -0.000370183 -5.93898e-05 -0.00351055 0.00117406 0.00330885)
(-0.00290472 -0.000434372 -0.000127205 0.00756376 -3.82843e-05 -0.00576598)
(-0.00342314 -0.00044333 -8.18363e-05 0.00707532 -3.70837e-05 -0.00234948)
(-0.00375313 -0.000440818 -7.74512e-05 0.00661148 -3.73521e-05 0.000749135)
(-0.0043079 -0.000445468 -0.000117976 0.0061753 -3.90665e-05 0.00408777)
(-0.00279785 -0.00122495 -0.000128689 0.00743012 -1.90226e-05 -0.00570878)
(-0.0033071 -0.0012292 -8.39197e-05 0.00692878 -1.29412e-05 -0.0022978)
(-0.00363908 -0.00121188 -8.05514e-05 0.0064578 -1.13934e-05 0.000802802)
(-0.00419871 -0.00121885 -0.000120756 0.00599981 -1.44323e-05 0.00415114)
(-0.00254731 -0.00201297 -0.000127441 0.0071712 -3.00825e-05 -0.00570364)
(-0.00305453 -0.00201478 -8.3693e-05 0.00667273 -1.93051e-05 -0.00229277)
(-0.00338922 -0.00198675 -8.02556e-05 0.006205 -1.66855e-05 0.000807324)
(-0.00394629 -0.00200663 -0.000119703 0.00574872 -2.23418e-05 0.00415448)
(-0.00217325 -0.00274909 -0.000125394 0.00679688 -4.09978e-05 -0.005701)
(-0.00267963 -0.00275208 -8.3218e-05 0.00629707 -2.61044e-05 -0.00229072)
(-0.00301887 -0.00271392 -7.99344e-05 0.00583435 -2.25808e-05 0.000808637)
(-0.00357257 -0.00274136 -0.000118425 0.00537474 -3.06572e-05 0.00415482)
(-0.00168862 -0.00341806 -0.000122825 0.00631318 -5.17251e-05 -0.00569949)
(-0.00219355 -0.00342144 -8.26077e-05 0.00581153 -3.32142e-05 -0.00228996)
(-0.00253904 -0.00337374 -7.95861e-05 0.0053548 -2.89862e-05 0.000808597)
(-0.00308769 -0.00340752 -0.000116788 0.00488997 -3.93589e-05 0.00415385)
(-0.00110535 -0.00400348 -0.000119952 0.00573165 -6.20517e-05 -0.00569854)
(-0.00160886 -0.00400638 -8.1952e-05 0.00522786 -4.04668e-05 -0.00228974)
(-0.00196201 -0.00394984 -7.91317e-05 0.0047782 -3.57619e-05 0.000808065)
(-0.0025045 -0.00398888 -0.000114637 0.00430676 -4.83922e-05 0.00415246)
(-0.000437677 -0.00449098 -0.000116931 0.00506608 -7.18076e-05 -0.00569794)
(-0.000940144 -0.00449262 -8.11826e-05 0.00456033 -4.77671e-05 -0.00228972)
(-0.00130229 -0.00442822 -7.83818e-05 0.00411892 -4.2852e-05 0.000807437)
(-0.00183783 -0.00447132 -0.000111754 0.00363987 -5.77646e-05 0.00415111)
(0.000298164 -0.0048685 -0.000113798 0.0043324 -8.096e-05 -0.00569763)
(-0.000203843 -0.00486839 -8.00483e-05 0.00382525 -5.50545e-05 -0.00228979)
(-0.00057628 -0.0047974 -7.69886e-05 0.0033933 -5.01849e-05 0.000806888)
(-0.00110434 -0.00484333 -0.000107811 0.00290603 -6.74562e-05 0.00415002)
(0.00108425 -0.00512668 -0.000110334 0.00354827 -8.96575e-05 -0.00569758)
(0.00058217 -0.00512454 -7.80638e-05 0.00304047 -6.22258e-05 -0.00228989)
(0.000198222 -0.00504855 -7.44663e-05 0.00261917 -5.75539e-05 0.000806489)
(-0.000322091 -0.00509613 -0.000102437 0.00212341 -7.72846e-05 0.0041493)
(0.00190318 -0.00525917 -0.000105399 0.00273244 -9.81249e-05 -0.00569765)
(0.00139875 -0.00525457 -7.44821e-05 0.00222509 -6.89734e-05 -0.00228998)
(0.00100212 -0.00517564 -7.03306e-05 0.00181562 -6.45078e-05 0.000806274)
(0.000489689 -0.00522389 -9.5389e-05 0.00131138 -8.68143e-05 0.00414893)
(0.00273244 -0.00525917 -9.81239e-05 0.00190318 -0.0001054 -0.00569765)
(0.00222509 -0.00525457 -6.89725e-05 0.00139875 -7.44828e-05 -0.00228998)
(0.00181562 -0.00517564 -6.45071e-05 0.00100212 -7.03311e-05 0.000806274)
(0.00131138 -0.00522389 -8.68138e-05 0.00048969 -9.53894e-05 0.00414893)
(0.00354827 -0.00512668 -8.96563e-05 0.00108425 -0.000110335 -0.00569758)
(0.00304047 -0.00512454 -6.22247e-05 0.000582171 -7.80643e-05 -0.00228989)
(0.00261917 -0.00504855 -5.75531e-05 0.000198223 -7.44666e-05 0.000806489)
(0.00212341 -0.00509613 -7.7284e-05 -0.00032209 -0.000102437 0.0041493)
(0.0043324 -0.00486851 -8.09587e-05 0.000298165 -0.000113798 -0.00569763)
(0.00382525 -0.00486839 -5.50534e-05 -0.000203842 -8.00485e-05 -0.00228979)
(0.00339329 -0.0047974 -5.0184e-05 -0.00057628 -7.69886e-05 0.000806888)
(0.00290603 -0.00484333 -6.74555e-05 -0.00110434 -0.000107811 0.00415002)
(0.00506608 -0.00449098 -7.18063e-05 -0.000437677 -0.000116931 -0.00569794)
(0.00456033 -0.00449262 -4.7766e-05 -0.000940144 -8.11825e-05 -0.00228972)
(0.00411892 -0.00442822 -4.2851e-05 -0.00130229 -7.83817e-05 0.000807438)
(0.00363987 -0.00447133 -5.77639e-05 -0.00183783 -0.000111754 0.00415111)
(0.00573165 -0.00400348 -6.20505e-05 -0.00110535 -0.000119952 -0.00569854)
(0.00522786 -0.00400638 -4.04657e-05 -0.00160886 -8.19517e-05 -0.00228974)
(0.0047782 -0.00394984 -3.5761e-05 -0.00196201 -7.91313e-05 0.000808065)
(0.00430676 -0.00398888 -4.83915e-05 -0.0025045 -0.000114637 0.00415246)
(0.00631318 -0.00341806 -5.1724e-05 -0.00168862 -0.000122824 -0.00569949)
(0.00581153 -0.00342145 -3.32132e-05 -0.00219355 -8.26072e-05 -0.00228996)
(0.0053548 -0.00337374 -2.89854e-05 -0.00253905 -7.95856e-05 0.000808597)
(0.00488997 -0.00340752 -3.93584e-05 -0.00308769 -0.000116788 0.00415385)
(0.00679688 -0.00274909 -4.09968e-05 -0.00217325 -0.000125394 -0.005701)
(0.00629707 -0.00275209 -2.61036e-05 -0.00267963 -8.32173e-05 -0.00229072)
(0.00583435 -0.00271393 -2.25801e-05 -0.00301887 -7.99337e-05 0.000808637)
(0.00537474 -0.00274136 -3.06567e-05 -0.00357257 -0.000118425 0.00415482)
(0.0071712 -0.00201298 -3.00816e-05 -0.00254731 -0.00012744 -0.00570364)
(0.00667273 -0.00201478 -1.93044e-05 -0.00305453 -8.36922e-05 -0.00229277)
(0.006205 -0.00198675 -1.6685e-05 -0.00338922 -8.02549e-05 0.000807324)
(0.00574872 -0.00200663 -2.23414e-05 -0.00394629 -0.000119703 0.00415448)
(0.00743012 -0.00122495 -1.90221e-05 -0.00279785 -0.000128688 -0.00570878)
(0.00692878 -0.0012292 -1.29408e-05 -0.0033071 -8.39189e-05 -0.0022978)
(0.0064578 -0.00121188 -1.13931e-05 -0.00363909 -8.05505e-05 0.000802802)
(0.00599981 -0.00121885 -1.44321e-05 -0.00419871 -0.000120755 0.00415114)
(0.00756376 -0.000434372 -3.82841e-05 -0.00290473 -0.000127204 -0.00576598)
(0.00707533 -0.00044333 -3.70836e-05 -0.00342314 -8.18355e-05 -0.00234948)
(0.00661148 -0.000440818 -3.7352e-05 -0.00375313 -7.74504e-05 0.000749135)
(0.0061753 -0.000445468 -3.90664e-05 -0.0043079 -0.000117975 0.00408777)
(-0.00267968 -0.000416225 -0.00101791 0.00737044 -1.82255e-06 -0.00480168)
(-0.00310247 -0.000421512 -0.00154756 0.0069044 -3.19784e-05 -0.00211697)
(-0.00344356 -0.000420508 -0.00150728 0.00646248 -3.11179e-05 0.000405854)
(-0.00390349 -0.000421548 -0.000930095 0.00604802 -1.27449e-06 0.00303044)
(-0.00257371 -0.00117637 -0.00102043 0.00724632 -0.00012199 -0.00475806)
(-0.00299237 -0.00117282 -0.00153913 0.00676875 -0.000182781 -0.00207558)
(-0.00333496 -0.00115947 -0.00149108 0.00631979 -0.000176975 0.000448622)
(-0.00379583 -0.00115744 -0.000908345 0.00588579 -0.000108533 0.00307799)
(-0.00233276 -0.00193308 -0.00100783 0.00699783 -0.000203171 -0.00475351)
(-0.00275146 -0.00192227 -0.00152035 0.00652439 -0.000304131 -0.00207171)
(-0.00309583 -0.00190047 -0.00147276 0.00607772 -0.0002941 0.000451628)
(-0.00355522 -0.00190499 -0.000897518 0.00564684 -0.000179275 0.00307969)
(-0.00197338 -0.00264004 -0.000989109 0.00663796 -0.000282229 -0.00475035)
(-0.00239332 -0.00262559 -0.00149242 0.00616541 -0.00042278 -0.00206981)
(-0.00274092 -0.00259593 -0.00144579 0.00572246 -0.000408639 0.000452305)
(-0.00319971 -0.00260235 -0.000881201 0.00529118 -0.000248492 0.00307891)
(-0.00150754 -0.00328255 -0.000964609 0.00617305 -0.000359359 -0.00474794)
(-0.00192883 -0.00326404 -0.00145568 0.00570153 -0.000538707 -0.00206898)
(-0.00228108 -0.0032268 -0.0014103 0.00526299 -0.000520613 0.000451666)
(-0.00273855 -0.00323434 -0.000859763 0.00483029 -0.000316136 0.00307661)
(-0.000946724 -0.00384477 -0.000934586 0.00561443 -0.00043433 -0.00474596)
(-0.00137008 -0.00382171 -0.00141044 0.0051442 -0.000651545 -0.00206873)
(-0.00172818 -0.00377726 -0.00136654 0.00471081 -0.000629684 0.000450347)
(-0.00218404 -0.00378541 -0.000833333 0.00427602 -0.000382109 0.0030735)
(-0.000304724 -0.00431283 -0.000899288 0.0049755 -0.000506732 -0.00474434)
(-0.000731256 -0.00428486 -0.00135695 0.00450729 -0.000760764 -0.0020688)
(-0.00109642 -0.0042338 -0.00131468 0.00407992 -0.000735388 0.000448764)
(-0.00155051 -0.00424213 -0.000801906 0.00364256 -0.000446256 0.00307018)
(0.000402679 -0.00467509 -0.000858906 0.00427166 -0.000576142 -0.00474313)
(-2.84405e-05 -0.00464225 -0.00129528 0.00380663 -0.000865751 -0.00206903)
(-0.000401856 -0.00458552 -0.0012547 0.00338626 -0.000837148 0.000447229)
(-0.000854136 -0.00459368 -0.000765355 0.00294607 -0.000508325 0.00306713)
(0.00115794 -0.00492251 -0.000813453 0.00351987 -0.000642225 -0.00474241)
(0.000720862 -0.00488537 -0.00122534 0.00305945 -0.00096579 -0.00206932)
(0.000338092 -0.0048243 -0.00118651 0.00264715 -0.000934216 0.000446002)
(-0.000112331 -0.00483209 -0.000723511 0.00220403 -0.000567873 0.00306478)
(0.0019435 -0.00504907 -0.000762196 0.00273803 -0.000704673 -0.00474212)
(0.0014981 -0.0050085 -0.00114684 0.0022839 -0.00105994 -0.00206953)
(0.0011051 -0.0049449 -0.00111002 0.00188074 -0.00102558 0.000445312)
(0.000656702 -0.00495238 -0.000676335 0.0014348 -0.000624186 0.0030635)
(0.00273803 -0.00504907 -0.000704672 0.0019435 -0.000762197 -0.00474212)
(0.0022839 -0.0050085 -0.00105994 0.0014981 -0.00114684 -0.00206953)
(0.00188074 -0.0049449 -0.00102558 0.0011051 -0.00111002 0.000445312)
(0.00143479 -0.00495238 -0.000624186 0.000656703 -0.000676335 0.0030635)
(0.00351987 -0.00492251 -0.000642224 0.00115795 -0.000813454 -0.00474241)
(0.00305945 -0.00488537 -0.000965789 0.000720863 -0.00122534 -0.00206932)
(0.00264715 -0.0048243 -0.000934215 0.000338093 -0.00118651 0.000446002)
(0.00220403 -0.00483209 -0.000567873 -0.00011233 -0.000723511 0.00306478)
(0.00427166 -0.00467509 -0.000576141 0.000402679 -0.000858906 -0.00474313)
(0.00380663 -0.00464225 -0.00086575 -2.844e-05 -0.00129528 -0.00206903)
(0.00338626 -0.00458552 -0.000837147 -0.000401856 -0.0012547 0.000447229)
(0.00294607 -0.00459368 -0.000508324 -0.000854135 -0.000765355 0.00306713)
(0.0049755 -0.00431283 -0.000506731 -0.000304724 -0.000899288 -0.00474434)
(0.00450729 -0.00428486 -0.000760763 -0.000731257 -0.00135695 -0.0020688)
(0.00407992 -0.00423381 -0.000735387 -0.00109642 -0.00131468 0.000448764)
(0.00364256 -0.00424213 -0.000446255 -0.00155051 -0.000801906 0.00307018)
(0.00561443 -0.00384477 -0.000434329 -0.000946724 -0.000934586 -0.00474596)
(0.0051442 -0.00382171 -0.000651544 -0.00137008 -0.00141044 -0.00206873)
(0.00471081 -0.00377726 -0.000629683 -0.00172818 -0.00136654 0.000450347)
(0.00427602 -0.00378541 -0.000382109 -0.00218404 -0.000833333 0.0030735)
(0.00617305 -0.00328256 -0.000359358 -0.00150754 -0.000964609 -0.00474794)
(0.00570153 -0.00326404 -0.000538706 -0.00192883 -0.00145568 -0.00206898)
(0.00526299 -0.00322681 -0.000520612 -0.00228109 -0.0014103 0.000451666)
(0.00483029 -0.00323434 -0.000316135 -0.00273855 -0.000859763 0.00307661)
(0.00663797 -0.00264004 -0.000282228 -0.00197338 -0.000989108 -0.00475035)
(0.00616541 -0.00262559 -0.00042278 -0.00239333 -0.00149242 -0.00206981)
(0.00572246 -0.00259594 -0.000408639 -0.00274093 -0.00144579 0.000452305)
(0.00529118 -0.00260235 -0.000248492 -0.00319972 -0.0008812 0.00307891)
(0.00699783 -0.00193308 -0.00020317 -0.00233277 -0.00100783 -0.00475351)
(0.00652439 -0.00192227 -0.00030413 -0.00275146 -0.00152034 -0.00207171)
(0.00607772 -0.00190047 -0.0002941 -0.00309583 -0.00147276 0.000451628)
(0.00564684 -0.00190499 -0.000179274 -0.00355523 -0.000897517 0.00307969)
(0.00724632 -0.00117637 -0.00012199 -0.00257371 -0.00102043 -0.00475806)
(0.00676875 -0.00117282 -0.00018278 -0.00299237 -0.00153913 -0.00207558)
(0.00631979 -0.00115947 -0.000176975 -0.00333496 -0.00149108 0.000448622)
(0.00588579 -0.00115745 -0.000108533 -0.00379583 -0.000908345 0.00307799)
(0.00737044 -0.000416225 -1.82236e-06 -0.00267969 -0.0010179 -0.00480168)
(0.0069044 -0.000421513 -3.19782e-05 -0.00310247 -0.00154756 -0.00211697)
(0.00646248 -0.000420508 -3.11178e-05 -0.00344357 -0.00150728 0.000405854)
(0.00604803 -0.000421548 -1.27441e-06 -0.00390349 -0.000930095 0.00303044)
(-0.00260519 -0.000368034 -0.00120686 0.0062339 3.57263e-05 -0.00250678)