/*--------------------------------*- C++ -*----------------------------------*\
| =========                 |                                                 |
| \\      /  F ield         | foam-extend: Open Source CFD                    |
|  \\    /   O peration     | Version:     3.1                                |
|   \\  /    A nd           | Web:         http://www.extend-project.de       |
|    \\/     M anipulation  |                                                 |
\*---------------------------------------------------------------------------*/
FoamFile
{
    version     2.0;
    format      ascii;
    class       volSymmTensorField;
    location    "0.0006";
    object      sigma;
}
// * * * * * * * * * * * * * * * * * * * * * * * * * * * * * * * * * * * * * //

dimensions      [1 -1 -2 0 0 0 0];

internalField   nonuniform List<symmTensor> 
6400
(
(656.05 -43.668 1622.78 1629.51 44.4006 3392.88)
(62.4483 -29.9464 1772.92 735.069 56.8948 1166.86)
(-392.188 -18.9429 1674.3 46.3721 53.4144 -568.674)
(-993.164 -7.65973 1347.16 -787.109 35.49 -2688.38)
(660.919 -113.711 1614.94 1611.28 188.682 3357.3)
(65.9205 -78.6562 1760.42 721.429 206.682 1141.93)
(-391.923 -51.2069 1659.61 34.5849 195.221 -594.515)
(-999.35 -23.6235 1330.27 -801.231 156.678 -2727.72)
(683.658 -186.555 1594.46 1585.24 315.517 3354.65)
(82.0522 -128.62 1738.15 704.441 344.573 1140.6)
(-381.197 -83.5937 1638.68 23.5206 325.307 -595.313)
(-993.717 -38.6691 1313.72 -806.375 261.189 -2727.78)
(717.903 -254.607 1564.41 1549.63 439.866 3353.35)
(105.74 -175.627 1705.39 679.989 480.098 1139.97)
(-365.659 -114.128 1607.76 7.72855 453.111 -595.362)
(-986.379 -52.7768 1288.9 -813.621 363.76 -2727.22)
(762.512 -316.423 1524.79 1504.25 561.288 3352.63)
(136.637 -218.334 1662.14 648.763 612.472 1139.85)
(-345.428 -141.896 1566.94 -12.4422 577.926 -594.93)
(-976.773 -65.6201 1256.13 -822.736 463.868 -2726.12)
(816.352 -370.498 1475.79 1450.02 679.165 3352.27)
(173.928 -255.689 1608.66 611.427 740.96 1140.02)
(-321.018 -166.189 1516.47 -36.5663 699.044 -594.245)
(-965.194 -76.8597 1215.62 -833.62 560.959 -2724.77)
(878.087 -415.511 1417.67 1388.16 792.838 3352.19)
(216.675 -286.784 1545.27 568.816 864.83 1140.37)
(-293.055 -186.41 1456.68 -64.1217 815.77 -593.455)
(-951.966 -86.2193 1167.66 -846.079 654.48 -2723.38)
(946.226 -450.358 1350.78 1320.14 901.631 3352.4)
(263.843 -310.855 1472.37 521.916 983.348 1140.83)
(-262.232 -202.059 1387.96 -94.4916 927.419 -592.67)
(-937.444 -93.4646 1112.57 -859.869 743.892 -2722.11)
(1019.14 -474.189 1275.5 1247.61 1004.87 3352.88)
(314.314 -327.295 1390.39 471.844 1095.8 1141.34)
(-229.315 -212.732 1310.73 -126.974 1033.32 -591.996)
(-922.021 -98.4011 1050.72 -874.708 828.673 -2721.11)
(1095.5 -486.488 1192.33 1172.43 1101.93 3353.6)
(366.833 -335.662 1299.89 419.8 1201.5 1141.77)
(-195.182 -218.139 1225.51 -160.79 1132.87 -591.575)
(-906.145 -100.894 982.496 -890.253 908.347 -2720.55)
(1172.43 -486.488 1101.93 1095.5 1192.33 3353.6)
(419.8 -335.662 1201.5 366.833 1299.89 1141.77)
(-160.79 -218.139 1132.87 -195.182 1225.51 -591.575)
(-890.253 -100.894 908.347 -906.145 982.496 -2720.55)
(1247.61 -474.189 1004.87 1019.14 1275.5 3352.88)
(471.844 -327.295 1095.8 314.314 1390.39 1141.34)
(-126.974 -212.732 1033.32 -229.315 1310.73 -591.996)
(-874.708 -98.4011 828.674 -922.021 1050.72 -2721.11)
(1320.14 -450.358 901.632 946.226 1350.78 3352.4)
(521.916 -310.855 983.348 263.843 1472.37 1140.83)
(-94.4916 -202.059 927.419 -262.232 1387.96 -592.67)
(-859.869 -93.4647 743.892 -937.443 1112.57 -2722.11)
(1388.16 -415.511 792.839 878.087 1417.67 3352.19)
(568.816 -286.784 864.83 216.675 1545.27 1140.37)
(-64.1218 -186.41 815.771 -293.055 1456.68 -593.455)
(-846.079 -86.2193 654.48 -951.966 1167.66 -2723.38)
(1450.02 -370.498 679.165 816.352 1475.79 3352.27)
(611.427 -255.689 740.961 173.928 1608.66 1140.02)
(-36.5664 -166.189 699.045 -321.018 1516.47 -594.245)
(-833.62 -76.8597 560.959 -965.194 1215.62 -2724.77)
(1504.25 -316.423 561.288 762.512 1524.79 3352.63)
(648.763 -218.334 612.472 136.637 1662.14 1139.85)
(-12.4422 -141.896 577.926 -345.428 1566.94 -594.931)
(-822.736 -65.6201 463.868 -976.773 1256.13 -2726.12)
(1549.63 -254.607 439.866 717.903 1564.41 3353.35)
(679.989 -175.627 480.098 105.74 1705.39 1139.97)
(7.72853 -114.128 453.112 -365.659 1607.76 -595.362)
(-813.621 -52.7768 363.76 -986.379 1288.9 -2727.22)
(1585.24 -186.555 315.517 683.658 1594.46 3354.65)
(704.441 -128.62 344.574 82.052 1738.15 1140.6)
(23.5206 -83.5937 325.307 -381.198 1638.68 -595.314)
(-806.375 -38.6691 261.189 -993.717 1313.72 -2727.78)
(1611.28 -113.711 188.682 660.919 1614.94 3357.3)
(721.429 -78.6563 206.682 65.9203 1760.42 1141.93)
(34.5849 -51.207 195.221 -391.923 1659.61 -594.515)
(-801.231 -23.6235 156.678 -999.35 1330.27 -2727.72)
(1629.51 -43.668 44.4006 656.05 1622.78 3392.88)
(735.069 -29.9464 56.8949 62.4481 1772.92 1166.86)
(46.3721 -18.9429 53.4145 -392.188 1674.3 -568.674)
(-787.109 -7.65974 35.49 -993.164 1347.16 -2688.38)
(-1129.44 -90.6904 647.622 946.406 -8.18637 127.326)
(-654.479 -73.6752 1203.85 1033.2 22.3916 315.596)
(-314.366 -57.2519 1185.62 1021.25 21.9739 224.685)
(60.6025 -42.7909 632.681 1097.31 -7.19484 317.817)
(-1092.54 -242.692 653.439 935.646 77.0538 137.382)
(-627.238 -197.391 1197.64 1016.83 141.749 314.794)
(-292.177 -155.846 1171.93 1006.82 139.241 222.468)
(80.9935 -120.191 612.671 1086.93 74.0955 321.484)
(-1043.24 -398.508 645.45 882.064 127.93 135.45)
(-586.16 -322.99 1182.61 975.484 235.272 313.744)
(-259.449 -255.082 1157.09 974.137 230.802 221.568)
(106.724 -197.534 604.948 1061.95 121.767 321.092)
(-969.122 -543.969 633.326 807.391 177.848 135.023)
(-526.135 -441.082 1160.26 914.991 327.074 313.434)
(-211.915 -348.364 1135.17 926.456 320.664 221.533)
(143.471 -269.797 593.424 1024.98 168.688 321.271)
(-873.254 -676.124 617.262 711.265 226.68 134.803)
(-448.335 -548.349 1130.73 837.006 416.794 313.47)
(-150.413 -433.108 1106.24 864.857 408.473 221.844)
(191.114 -335.413 578.245 977.249 214.537 321.845)
(-757.921 -791.745 597.334 595.883 274.211 134.697)
(-354.719 -642.159 1094.21 743.358 503.968 313.663)
(-76.4098 -507.197 1070.5 790.85 493.756 222.325)
(248.443 -392.756 559.536 919.881 259.053 322.597)
(-625.941 -888.009 573.637 463.913 320.162 134.651)
(-247.573 -720.231 1050.94 636.262 588.083 313.934)
(8.28855 -568.827 1028.19 706.216 576.006 222.876)
(314.052 -440.431 537.433 854.288 301.96 323.41)
(-480.497 -962.555 546.296 318.49 364.213 134.652)
(-129.467 -780.66 1001.19 518.263 668.613 314.233)
(101.64 -616.492 979.599 612.978 654.716 223.416)
(386.342 -477.275 512.092 782.053 342.989 324.174)
(-325.062 -1013.56 515.483 163.13 406.01 134.694)
(-3.17094 -821.929 945.289 392.21 745.031 314.535)
(201.401 -648.988 925.042 513.383 729.391 223.87)
(463.535 -502.36 483.684 704.909 381.884 324.767)
(-162.383 -1039.86 481.634 1.99867 445.166 135.17)
(128.298 -842.928 883.685 261.239 816.835 314.814)
(305.062 -665.456 864.905 409.912 799.577 224.152)
(543.681 -515.048 452.399 624.786 418.414 325.092)
(1.99849 -1039.86 445.167 -162.383 481.634 135.17)
(261.238 -842.928 816.835 128.298 883.684 314.814)
(409.912 -665.456 799.577 305.062 864.905 224.152)
(624.786 -515.048 418.415 543.681 452.398 325.092)
(163.13 -1013.56 406.01 -325.062 515.483 134.694)
(392.21 -821.929 745.031 -3.17084 945.289 314.535)
(513.383 -648.988 729.391 201.401 925.042 223.87)
(704.908 -502.36 381.885 463.535 483.684 324.767)
(318.49 -962.555 364.213 -480.497 546.295 134.652)
(518.262 -780.661 668.614 -129.467 1001.19 314.233)
(612.978 -616.492 654.716 101.641 979.598 223.416)
(782.053 -477.275 342.989 386.342 512.091 324.174)
(463.913 -888.009 320.162 -625.941 573.637 134.651)
(636.262 -720.231 588.083 -247.573 1050.94 313.933)
(706.216 -568.827 576.007 8.28856 1028.19 222.876)
(854.288 -440.431 301.96 314.052 537.433 323.41)
(595.883 -791.745 274.211 -757.921 597.334 134.697)
(743.358 -642.159 503.968 -354.719 1094.21 313.663)
(790.85 -507.198 493.757 -76.4099 1070.5 222.325)
(919.881 -392.756 259.053 248.443 559.536 322.597)
(711.265 -676.124 226.68 -873.255 617.262 134.803)
(837.005 -548.35 416.794 -448.335 1130.73 313.47)
(864.857 -433.109 408.473 -150.414 1106.24 221.844)
(977.249 -335.414 214.537 191.114 578.246 321.845)
(807.391 -543.969 177.849 -969.122 633.326 135.023)
(914.991 -441.082 327.074 -526.135 1160.26 313.433)
(926.456 -348.365 320.664 -211.915 1135.17 221.532)
(1024.98 -269.797 168.688 143.471 593.424 321.272)
(882.064 -398.508 127.93 -1043.24 645.45 135.45)
(975.484 -322.99 235.272 -586.16 1182.61 313.744)
(974.137 -255.082 230.802 -259.449 1157.09 221.568)
(1061.95 -197.534 121.768 106.724 604.948 321.092)
(935.646 -242.692 77.0539 -1092.54 653.439 137.381)
(1016.83 -197.391 141.749 -627.238 1197.64 314.793)
(1006.82 -155.846 139.241 -292.177 1171.93 222.468)
(1086.93 -120.191 74.0956 80.9934 612.671 321.484)
(946.406 -90.6904 -8.18633 -1129.44 647.622 127.326)
(1033.2 -73.6752 22.3916 -654.479 1203.85 315.596)
(1021.25 -57.2519 21.9739 -314.366 1185.62 224.685)
(1097.31 -42.7909 -7.19482 60.6024 632.681 317.818)
(-1033.33 -97.1654 289.217 1273.53 -13.2179 -1173)
(-675.981 -94.593 521.166 1540.44 -0.874715 -185.745)
(-275.945 -88.3061 513.131 1795.25 -1.18696 676.101)
(57.2337 -85.4268 270.938 2070.39 -13.7054 1630.94)
(-1002.74 -269.889 290.236 1251.94 33.4294 -1156.32)
(-645.111 -259.318 517.881 1514.45 60.5023 -173.244)
(-247.861 -241.849 506.034 1768.09 59.5424 687.772)
(79.6141 -234.038 261.815 2037.77 31.525 1643.24)
(-948.158 -443.524 286.563 1193.77 56.0924 -1156.53)
(-591.051 -424.791 511.28 1461.02 101.35 -172.186)
(-197.143 -396.432 499.492 1718.28 99.6228 688.871)
(128.877 -385.193 258.512 1990.38 52.4556 1644.45)
(-865.46 -605.609 281.145 1111.45 78.1424 -1156.12)
(-511.88 -580.206 501.462 1382.03 141.062 -171.856)
(-123.109 -541.517 489.856 1644.61 138.539 689.226)
(200.659 -526.223 253.438 1918.78 72.7122 1644.7)
(-758.537 -752.896 273.953 1005.01 99.657 -1155.89)
(-409.377 -721.33 488.494 1279.83 179.725 -171.647)
(-27.421 -673.216 477.134 1549.07 176.379 689.403)
(293.614 -654.157 246.756 1825.8 92.3326 1644.82)
(-629.938 -881.779 264.987 876.995 120.624 -1155.71)
(-286.121 -844.706 472.454 1156.89 217.236 -171.46)
(87.6254 -788.278 461.435 1434.1 213.039 689.572)
(405.396 -765.88 238.555 1713.87 111.278 1644.98)
(-482.809 -989.109 254.267 730.411 140.952 -1155.59)
(-145.136 -947.338 453.451 1016.2 253.409 -171.277)
(219.21 -883.913 442.892 1302.57 248.33 689.766)
(533.252 -858.684 228.927 1585.85 129.451 1645.2)
(-320.708 -1072.25 241.844 568.747 160.493 -1155.53)
(10.1748 -1026.74 431.639 861.163 288.024 -171.104)
(364.138 -957.812 421.675 1157.71 282.046 689.975)
(674.051 -930.332 217.982 1444.92 146.742 1645.46)
(-147.519 -1129.14 227.831 395.904 179.043 -1155.5)
(176.14 -1080.93 407.224 695.536 320.852 -170.932)
(518.912 -1008.15 397.983 1003.05 313.994 690.169)
(824.343 -979.08 205.84 1294.53 163.06 1645.69)
(33.4717 -1158.43 212.576 216.418 196.375 -1155.11)
(348.783 -1108.49 380.499 523.411 351.696 -170.742)
(679.7 -1033.66 372.041 842.41 344.019 690.305)
(980.407 -1003.74 192.612 1138.41 178.353 1645.83)
(216.418 -1158.43 196.375 33.4719 212.576 -1155.11)
(523.411 -1108.49 351.696 348.783 380.498 -170.742)
(842.409 -1033.66 344.019 679.7 372.041 690.305)
(1138.41 -1003.74 178.353 980.407 192.612 1645.83)
(395.903 -1129.14 179.044 -147.519 227.83 -1155.5)
(695.536 -1080.93 320.852 176.14 407.224 -170.932)
(1003.05 -1008.15 313.994 518.912 397.983 690.169)
(1294.53 -979.08 163.061 824.343 205.84 1645.69)
(568.747 -1072.25 160.493 -320.708 241.844 -1155.53)
(861.163 -1026.74 288.024 10.1749 431.639 -171.104)
(1157.71 -957.812 282.046 364.138 421.675 689.975)
(1444.92 -930.332 146.742 674.051 217.982 1645.46)
(730.411 -989.109 140.952 -482.809 254.267 -1155.59)
(1016.2 -947.339 253.41 -145.136 453.451 -171.277)
(1302.57 -883.914 248.33 219.21 442.892 689.766)
(1585.85 -858.684 129.451 533.252 228.927 1645.2)
(876.995 -881.779 120.624 -629.938 264.987 -1155.71)
(1156.89 -844.706 217.236 -286.122 472.454 -171.46)
(1434.1 -788.279 213.039 87.6253 461.435 689.572)
(1713.87 -765.88 111.278 405.396 238.555 1644.98)
(1005.01 -752.896 99.6572 -758.537 273.953 -1155.89)
(1279.83 -721.33 179.725 -409.377 488.495 -171.647)
(1549.07 -673.217 176.38 -27.4212 477.134 689.403)
(1825.8 -654.157 92.3328 293.614 246.756 1644.82)
(1111.45 -605.609 78.1426 -865.46 281.145 -1156.12)
(1382.03 -580.206 141.062 -511.88 501.462 -171.857)
(1644.61 -541.517 138.539 -123.109 489.856 689.226)
(1918.78 -526.223 72.7123 200.659 253.438 1644.7)
(1193.77 -443.524 56.0926 -948.159 286.563 -1156.53)
(1461.02 -424.792 101.35 -591.052 511.28 -172.187)
(1718.28 -396.432 99.6229 -197.143 499.492 688.871)
(1990.38 -385.193 52.4556 128.877 258.512 1644.45)
(1251.94 -269.889 33.4296 -1002.74 290.236 -1156.32)
(1514.45 -259.318 60.5024 -645.111 517.881 -173.244)
(1768.09 -241.849 59.5424 -247.861 506.034 687.772)
(2037.77 -234.038 31.525 79.6139 261.815 1643.24)
(1273.53 -97.1655 -13.2178 -1033.33 289.217 -1173)
(1540.44 -94.593 -0.874683 -675.982 521.166 -185.745)
(1795.25 -88.3062 -1.18693 -275.946 513.132 676.101)
(2070.39 -85.4268 -13.7053 57.2336 270.938 1630.94)
(-861.907 -100.24 -29.3549 1553.9 -8.83485 -1522.2)
(-564.487 -102.307 -18.8853 1858.24 -8.55778 -316.72)
(-241.735 -101.727 -17.8734 2150.1 -8.61971 797.25)
(36.5712 -102.8 -27.2252 2455.77 -9.01535 1974.03)
(-831.974 -282.681 -29.6974 1528.33 -4.38983 -1503.73)
(-534.043 -283.66 -19.3661 1828.08 -2.98643 -301.127)
(-212.989 -279.664 -18.5888 2117.06 -2.62925 812.062)
(61.2601 -281.273 -27.8667 2414.77 -3.33053 1988.15)
(-774.72 -464.533 -29.4094 1468.01 -6.94211 -1503.1)
(-475.489 -464.95 -19.3138 1769.26 -4.45502 -299.698)
(-155.051 -458.48 -18.5205 2059 -3.85051 813.382)
(120.319 -463.069 -27.6238 2357.63 -5.15579 1989.73)
(-687.988 -634.405 -28.9372 1382.04 -9.46104 -1502.08)
(-388.751 -635.097 -19.2042 1682.79 -6.0241 -299.002)
(-69.4113 -626.29 -18.4464 1973.64 -5.21095 813.859)
(206.579 -632.622 -27.329 2271.34 -7.07473 1989.82)
(-575.726 -788.783 -28.3442 1270.84 -11.9366 -1501.31)
(-276.356 -789.564 -19.0633 1570.97 -7.66482 -298.605)
(41.3584 -778.555 -18.366 1863.01 -6.68913 813.891)
(318.327 -786.351 -26.9511 2159.33 -9.08283 1989.45)
(-440.659 -923.88 -27.6813 1137.11 -14.3196 -1500.63)
(-141.212 -924.549 -18.912 1436.49 -9.33849 -298.336)
(174.505 -911.502 -18.2612 1729.94 -8.25275 813.752)
(452.663 -920.51 -26.4548 2024.49 -11.1674 1988.88)
(-286.114 -1036.38 -26.9842 983.982 -16.571 -1500.02)
(13.3181 -1036.76 -18.7344 1282.66 -11.0232 -298.122)
(326.712 -1021.9 -18.0881 1577.76 -9.88891 813.573)
(606.237 -1031.84 -25.7894 1870.32 -13.3303 1988.3)
(-115.877 -1123.5 -26.261 815.101 -18.6831 -1499.52)
(183.433 -1123.47 -18.4727 1113.22 -12.7049 -297.939)
(494.226 -1107.09 -17.7666 1410.28 -11.5811 813.419)
(775.258 -1117.69 -24.8795 1700.73 -15.5668 1987.8)
(65.874 -1183.08 -25.4617 634.495 -20.6902 -1499.16)
(365.015 -1182.59 -18.0147 932.315 -14.3598 -297.769)
(672.954 -1165.05 -17.1845 1231.64 -13.2817 813.324)
(955.585 -1176.03 -23.6393 1519.93 -17.8349 1987.44)
(255.383 -1213.65 -24.3228 446.75 -22.6442 -1498.65)
(553.649 -1212.59 -17.1882 744.343 -15.9169 -297.598)
(858.49 -1194.38 -16.2301 1046.22 -14.8864 813.296)
(1142.81 -1205.51 -22.0129 1332.43 -20.0341 1987.25)
(446.75 -1213.65 -22.644 255.383 -24.323 -1498.65)
(744.343 -1212.59 -15.9167 553.649 -17.1883 -297.598)
(1046.22 -1194.38 -14.8863 858.49 -16.2303 813.296)
(1332.43 -1205.51 -20.0339 1142.81 -22.0129 1987.25)
(634.494 -1183.08 -20.6899 65.8742 -25.4618 -1499.16)
(932.314 -1182.59 -14.3596 365.015 -18.0148 -297.769)
(1231.64 -1165.05 -13.2815 672.955 -17.1846 813.324)
(1519.93 -1176.03 -17.8348 955.585 -23.6393 1987.44)
(815.101 -1123.5 -18.6828 -115.877 -26.2611 -1499.52)
(1113.22 -1123.47 -12.7046 183.433 -18.4727 -297.939)
(1410.28 -1107.09 -11.5809 494.226 -17.7666 813.419)
(1700.73 -1117.69 -15.5666 775.258 -24.8795 1987.8)
(983.982 -1036.38 -16.5707 -286.115 -26.9842 -1500.02)
(1282.66 -1036.76 -11.0229 13.3179 -18.7344 -298.122)
(1577.76 -1021.9 -9.8887 326.712 -18.0881 813.573)
(1870.32 -1031.84 -13.3301 606.237 -25.7894 1988.3)
(1137.11 -923.88 -14.3193 -440.66 -27.6813 -1500.63)
(1436.49 -924.549 -9.33824 -141.212 -18.9119 -298.337)
(1729.94 -911.502 -8.25255 174.505 -18.2611 813.752)
(2024.49 -920.51 -11.1673 452.663 -26.4547 1988.88)
(1270.84 -788.784 -11.9363 -575.726 -28.3441 -1501.31)
(1570.97 -789.564 -7.66459 -276.356 -19.0632 -298.605)
(1863.01 -778.556 -6.68894 41.3581 -18.3659 813.891)
(2159.33 -786.351 -9.0827 318.327 -26.951 1989.45)
(1382.04 -634.405 -9.4608 -687.989 -28.937 -1502.08)
(1682.8 -635.097 -6.0239 -388.751 -19.204 -299.002)
(1973.64 -626.291 -5.2108 -69.4117 -18.4462 813.859)
(2271.34 -632.622 -7.07463 206.579 -27.3288 1989.82)
(1468.01 -464.533 -6.94192 -774.72 -29.4093 -1503.1)
(1769.26 -464.95 -4.45486 -475.49 -19.3136 -299.698)
(2059 -458.48 -3.85039 -155.052 -18.5204 813.382)
(2357.63 -463.069 -5.15572 120.319 -27.6237 1989.73)
(1528.33 -282.681 -4.38971 -831.975 -29.6972 -1503.73)
(1828.08 -283.661 -2.98634 -534.044 -19.3659 -301.127)
(2117.06 -279.665 -2.62918 -212.989 -18.5886 812.062)
(2414.77 -281.274 -3.33049 61.26 -27.8665 1988.15)
(1553.9 -100.24 -8.8348 -861.908 -29.3547 -1522.2)
(1858.24 -102.307 -8.55774 -564.488 -18.8851 -316.72)
(2150.1 -101.727 -8.61968 -241.735 -17.8732 797.25)
(2455.77 -102.8 -9.01533 36.571 -27.225 1974.03)
(-637.588 -96.0519 -234.901 1681.67 -0.420589 -1127.28)
(-424.329 -97.272 -357.13 1884.95 -7.37962 -196.906)
(-201.92 -97.0403 -347.835 2084.09 -7.18105 686.407)
(-5.1367 -97.2802 -214.637 2291.37 -0.294114 1595)
(-608.723 -271.469 -235.484 1657.44 -28.1516 -1112.8)
(-396.177 -270.65 -355.184 1856.39 -42.1802 -184.61)
(-175.356 -267.571 -344.095 2052.66 -40.8405 697.779)
(18.4909 -267.103 -209.618 2252.71 -25.0461 1604.76)
(-553.638 -446.094 -232.577 1599.58 -46.8856 -1112.27)
(-340.51 -443.6 -350.849 1800.07 -70.184 -183.646)
(-120.158 -438.569 -339.868 1996.81 -67.8693 698.485)
(74.5967 -439.614 -207.12 2198.15 -41.3711 1605.73)
(-470.241 -609.24 -228.256 1516.99 -65.1298 -1111.08)
(-257.681 -605.904 -344.404 1717.41 -97.5647 -183.023)
(-38.2024 -599.062 -333.644 1914.89 -94.3014 698.697)
(156.477 -600.542 -203.354 2115.91 -57.3443 1605.39)
(-362.159 -757.512 -222.602 1410.28 -82.9289 -1109.94)
(-150.239 -753.24 -335.925 1610.61 -124.317 -182.583)
(67.8673 -744.647 -325.454 1808.81 -120.141 698.502)
(262.55 -746.385 -198.407 2009.21 -72.9544 1604.51)
(-232.019 -887.255 -215.674 1282.09 -100.23 -1108.77)
(-21.0093 -881.934 -325.487 1482.29 -150.357 -182.237)
(195.357 -871.676 -315.356 1681.28 -145.312 698.094)
(390.018 -873.556 -192.308 1880.8 -88.179 1603.3)
(-83.0531 -995.268 -207.528 1135.46 -116.938 -1107.58)
(126.732 -988.814 -313.142 1335.63 -175.561 -181.931)
(341.026 -977.032 -303.387 1535.57 -169.705 697.607)
(535.651 -978.954 -185.055 1734.05 -102.982 1601.96)
(81.0198 -1078.87 -198.209 973.862 -132.956 -1106.47)
(289.253 -1071.29 -298.911 1174.27 -199.789 -181.652)
(501.201 -1058.2 -289.547 1375.38 -193.188 697.143)
(695.805 -1060.08 -176.62 1572.78 -117.306 1600.71)
(256.038 -1135.96 -187.72 801.099 -148.206 -1105.58)
(462.487 -1127.39 -282.77 1002.16 -222.875 -181.4)
(671.891 -1113.3 -273.81 1204.75 -215.588 696.793)
(866.544 -1115.1 -166.964 1401.09 -131.048 1599.72)
(438.014 -1165.17 -175.891 621.366 -162.617 -1104.82)
(642.106 -1155.81 -264.655 823.445 -244.601 -181.193)
(848.875 -1141.13 -256.157 1027.87 -236.673 696.617)
(1043.76 -1142.86 -156.077 1223.32 -144.043 1599.17)
(621.365 -1165.17 -162.617 438.014 -175.892 -1104.82)
(823.445 -1155.81 -244.601 642.107 -264.655 -181.193)
(1027.87 -1141.13 -236.673 848.875 -256.158 696.617)
(1223.32 -1142.86 -144.043 1043.76 -156.077 1599.17)
(801.098 -1135.96 -148.206 256.039 -187.72 -1105.58)
(1002.16 -1127.39 -222.874 462.488 -282.77 -181.4)
(1204.75 -1113.3 -215.588 671.891 -273.81 696.793)
(1401.09 -1115.1 -131.048 866.545 -166.964 1599.72)
(973.862 -1078.87 -132.956 81.02 -198.209 -1106.47)
(1174.27 -1071.29 -199.788 289.253 -298.911 -181.652)
(1375.38 -1058.2 -193.188 501.201 -289.547 697.143)
(1572.78 -1060.08 -117.306 695.806 -176.62 1600.71)
(1135.46 -995.268 -116.938 -83.0531 -207.528 -1107.58)
(1335.63 -988.814 -175.561 126.732 -313.142 -181.931)
(1535.57 -977.032 -169.705 341.026 -303.387 697.607)
(1734.05 -978.954 -102.982 535.651 -185.055 1601.96)
(1282.09 -887.256 -100.23 -232.019 -215.674 -1108.77)
(1482.29 -881.934 -150.356 -21.0096 -325.487 -182.237)
(1681.28 -871.676 -145.312 195.357 -315.356 698.094)
(1880.8 -873.557 -88.1789 390.018 -192.308 1603.3)
(1410.28 -757.513 -82.9287 -362.159 -222.602 -1109.94)
(1610.61 -753.24 -124.317 -150.24 -335.925 -182.583)
(1808.81 -744.648 -120.141 67.8669 -325.453 698.502)
(2009.21 -746.385 -72.9542 262.55 -198.407 1604.51)
(1516.99 -609.241 -65.1295 -470.241 -228.256 -1111.08)
(1717.41 -605.905 -97.5645 -257.682 -344.404 -183.023)
(1914.89 -599.062 -94.3013 -38.2029 -333.644 698.697)
(2115.91 -600.542 -57.3442 156.477 -203.354 1605.39)
(1599.58 -446.095 -46.8855 -553.638 -232.576 -1112.27)
(1800.07 -443.6 -70.1839 -340.511 -350.849 -183.646)
(1996.81 -438.57 -67.8692 -120.158 -339.868 698.485)
(2198.15 -439.614 -41.371 74.5965 -207.119 1605.73)
(1657.44 -271.469 -28.1515 -608.723 -235.484 -1112.8)
(1856.39 -270.65 -42.1801 -396.178 -355.183 -184.61)
(2052.66 -267.571 -40.8404 -175.356 -344.095 697.779)
(2252.71 -267.103 -25.0461 18.4907 -209.618 1604.76)
(1681.67 -96.052 -0.420545 -637.589 -234.901 -1127.28)
(1884.95 -97.2721 -7.37958 -424.329 -357.129 -196.906)
(2084.09 -97.0404 -7.18102 -201.921 -347.834 686.407)
(2291.37 -97.2803 -0.294095 -5.13693 -214.637 1595)
(-407.018 -84.9309 -278.506 1632.77 8.24452 -384.307)
(-281.241 -82.6342 -439.949 1677.44 -0.894562 38.6405)
(-160.377 -80.1452 -428.506 1730.49 -0.676409 463.415)
(-49.6286 -77.3509 -254.181 1787.46 8.20716 878.768)
(-380.367 -238.761 -278.816 1613.47 -32.476 -376.511)
(-257.099 -229.752 -436.887 1654.27 -51.2459 44.7633)
(-138.129 -221.541 -423.047 1705.38 -49.8251 468.518)
(-29.5181 -213.789 -247.182 1757.65 -29.4979 881.748)
(-331.863 -392.403 -275.334 1562.36 -54.4553 -376.62)
(-209.874 -376.462 -431.404 1606.42 -85.6623 44.9701)
(-92.4545 -362.942 -417.703 1659.03 -83.1748 468.443)
(15.5064 -351.612 -244.146 1713.73 -48.9742 881.893)
(-258.475 -535.93 -270.162 1489.54 -75.8481 -375.761)
(-139.557 -514.192 -423.267 1536.11 -119.247 45.246)
(-24.6107 -495.721 -409.813 1591.04 -115.697 468.295)
(81.0039 -480.272 -239.514 1647.72 -67.9643 881.221)
(-163.239 -666.364 -263.372 1395.57 -96.706 -374.708)
(-48.2275 -639.223 -412.551 1445.32 -151.977 45.5529)
(63.2617 -616.164 -399.415 1503.02 -147.374 467.934)
(165.849 -596.845 -233.42 1562.09 -86.4151 880.15)
(-48.4497 -780.483 -255.006 1282.85 -116.999 -373.445)
(61.6972 -748.395 -399.349 1336.32 -183.766 45.872)
(168.9 -721.195 -386.608 1397.26 -178.118 467.419)
(267.776 -698.404 -225.938 1459.04 -104.292 878.75)
(83.0292 -875.463 -245.111 1154.11 -136.648 -372.047)
(187.379 -838.984 -383.745 1211.88 -214.483 46.2071)
(289.56 -808.2 -371.476 1276.5 -207.807 466.829)
(384.148 -782.443 -217.11 1341.3 -121.551 877.176)
(227.859 -948.935 -233.738 1012.37 -155.55 -370.651)
(325.557 -908.782 -365.815 1075.13 -243.974 46.545)
(422.119 -875.101 -354.089 1143.92 -236.302 466.258)
(512.003 -846.987 -206.964 1212.04 -138.133 875.64)
(382.256 -999.059 -220.922 860.94 -173.606 -369.453)
(472.649 -956.16 -345.61 929.442 -272.068 46.8584)
(563.196 -920.408 -334.498 1002.89 -263.435 465.813)
(648.177 -890.645 -195.514 1074.64 -153.955 874.389)
(542.373 -1024.61 -206.586 703.319 -190.713 -368.564)
(624.857 -980.095 -323.157 778.277 -298.557 47.0936)
(709.272 -943.238 -312.762 856.911 -289.002 465.578)
(789.441 -912.62 -182.796 932.644 -168.894 873.676)
(703.319 -1024.62 -190.713 542.374 -206.586 -368.564)
(778.277 -980.095 -298.557 624.857 -323.157 47.0936)
(856.911 -943.238 -289.002 709.273 -312.762 465.578)
(932.644 -912.62 -168.894 789.441 -182.796 873.676)
(860.94 -999.059 -173.606 382.256 -220.923 -369.453)
(929.442 -956.16 -272.068 472.649 -345.61 46.8584)
(1002.89 -920.409 -263.435 563.196 -334.498 465.813)
(1074.64 -890.645 -153.955 648.177 -195.514 874.389)
(1012.37 -948.936 -155.55 227.859 -233.738 -370.651)
(1075.13 -908.782 -243.974 325.557 -365.815 46.5449)
(1143.91 -875.102 -236.302 422.119 -354.089 466.258)
(1212.04 -846.987 -138.133 512.003 -206.964 875.64)
(1154.11 -875.464 -136.648 83.0292 -245.111 -372.047)
(1211.88 -838.984 -214.483 187.379 -383.745 46.2071)
(1276.5 -808.201 -207.807 289.56 -371.476 466.829)
(1341.3 -782.443 -121.55 384.149 -217.11 877.176)
(1282.85 -780.483 -116.999 -48.4498 -255.006 -373.445)
(1336.32 -748.396 -183.766 61.6968 -399.349 45.8719)
(1397.26 -721.196 -178.117 168.9 -386.608 467.419)
(1459.04 -698.404 -104.292 267.776 -225.938 878.75)
(1395.57 -666.364 -96.7058 -163.239 -263.372 -374.708)
(1445.32 -639.223 -151.977 -48.228 -412.551 45.5528)
(1503.02 -616.165 -147.373 63.2613 -399.415 467.934)
(1562.09 -596.845 -86.415 165.849 -233.42 880.151)
(1489.54 -535.931 -75.8479 -258.475 -270.162 -375.76)
(1536.11 -514.192 -119.247 -139.558 -423.266 45.2459)
(1591.04 -495.721 -115.697 -24.6112 -409.813 468.295)
(1647.72 -480.272 -67.9642 81.0038 -239.514 881.221)
(1562.36 -392.403 -54.4551 -331.864 -275.333 -376.62)
(1606.42 -376.462 -85.6622 -209.875 -431.404 44.97)
(1659.03 -362.943 -83.1747 -92.4551 -417.702 468.443)
(1713.73 -351.612 -48.9742 15.5062 -244.146 881.894)
(1613.47 -238.761 -32.4759 -380.367 -278.815 -376.511)
(1654.27 -229.752 -51.2458 -257.1 -436.887 44.7632)
(1705.38 -221.541 -49.825 -138.129 -423.046 468.518)
(1757.65 -213.789 -29.4979 -29.5183 -247.182 881.748)
(1632.77 -84.931 8.24456 -407.018 -278.506 -384.307)
(1677.44 -82.6342 -0.894524 -281.242 -439.949 38.6404)
(1730.49 -80.1453 -0.676379 -160.377 -428.506 463.415)
(1787.46 -77.3509 8.20718 -49.6289 -254.181 878.768)
(-232.473 -70.1667 -196.124 1437.08 14.2376 288.854)
(-169.11 -64.3887 -322.856 1350.55 6.96743 253.102)
(-120.744 -59.3139 -314.633 1280.6 7.02496 250.048)
(-72.4123 -53.6513 -179.185 1213.6 13.794 220.018)
(-209.057 -195.35 -195.954 1423.76 -22.0542 290.77)
(-149.586 -178.322 -319.982 1333.9 -37.0249 253.603)
(-103.426 -164.301 -309.858 1263.14 -36.2133 249.574)
(-56.7077 -149.754 -173.313 1194.19 -20.6858 217.513)
(-169.383 -321.14 -193.521 1381.64 -37.2955 289.942)
(-112.899 -292.067 -315.881 1296.82 -62.1444 253.196)
(-69.4895 -268.97 -305.843 1228.79 -60.6684 248.997)
(-25.0158 -246.006 -171.12 1163.27 -34.4692 217.152)
(-109.406 -438.626 -189.884 1321.81 -52.1387 290.171)
(-58.4063 -398.937 -309.795 1242.18 -86.6448 253.076)
(-19.2287 -367.348 -299.905 1178.35 -84.4822 248.639)
(20.8349 -335.987 -167.731 1117.04 -47.888 216.502)
(-31.4993 -545.389 -185.082 1244.68 -66.619 290.711)
(12.4705 -495.985 -301.761 1171.61 -110.48 253.142)
(45.9348 -456.627 -292.058 1113.02 -107.611 248.276)
(80.2316 -417.534 -163.262 1057.03 -60.8609 215.698)
(62.4949 -638.8 -179.124 1152.29 -80.7403 291.537)
(97.8641 -580.728 -291.847 1086.92 -133.589 253.313)
(124.321 -534.473 -282.397 1034.5 -129.984 247.864)
(151.582 -488.536 -157.795 984.758 -73.3421 214.685)
(170.237 -716.547 -172.03 1046.88 -94.4737 292.572)
(195.549 -651.023 -280.134 990.291 -155.891 253.556)
(213.858 -598.909 -271.017 944.883 -151.515 247.415)
(233.003 -547.209 -151.397 902.173 -85.2942 213.52)
(288.976 -776.684 -163.828 930.951 -107.766 293.692)
(302.942 -705.142 -266.709 884.194 -177.294 253.838)
(312.175 -648.386 -258.014 846.546 -172.121 246.981)
(322.379 -592.172 -144.131 811.536 -96.6862 212.344)
(415.562 -817.691 -154.553 807.159 -120.556 294.714)
(417.188 -741.826 -251.657 771.258 -197.703 254.119)
(416.708 -681.826 -243.483 742.066 -191.719 246.64)
(417.476 -622.501 -136.054 715.317 -107.491 211.359)
(546.661 -838.556 -144.185 678.285 -132.768 295.461)
(535.256 -760.326 -235.054 654.139 -217.011 254.328)
(524.825 -698.642 -227.517 634.034 -210.221 246.459)
(516.065 -637.729 -127.219 616.044 -117.681 210.786)
(678.285 -838.557 -132.768 546.661 -144.185 295.461)
(654.138 -760.326 -217.011 535.257 -235.054 254.328)
(634.034 -698.642 -210.221 524.825 -227.517 246.459)
(616.043 -637.729 -117.681 516.066 -127.219 210.786)
(807.159 -817.691 -120.556 415.563 -154.553 294.714)
(771.258 -741.826 -197.703 417.188 -251.657 254.119)
(742.066 -681.826 -191.719 416.709 -243.483 246.64)
(715.316 -622.502 -107.491 417.476 -136.054 211.359)
(930.951 -776.685 -107.766 288.976 -163.828 293.692)
(884.193 -705.142 -177.294 302.942 -266.709 253.838)
(846.546 -648.386 -172.121 312.175 -258.014 246.981)
(811.536 -592.172 -96.6861 322.38 -144.131 212.345)
(1046.88 -716.548 -94.4735 170.237 -172.03 292.572)
(990.291 -651.023 -155.891 195.549 -280.134 253.556)
(944.882 -598.91 -151.515 213.858 -271.017 247.415)
(902.173 -547.209 -85.2941 233.004 -151.397 213.52)
(1152.29 -638.8 -80.7401 62.495 -179.124 291.537)
(1086.92 -580.728 -133.589 97.8637 -291.847 253.313)
(1034.5 -534.473 -129.984 124.321 -282.397 247.864)
(984.758 -488.537 -73.342 151.582 -157.795 214.685)
(1244.68 -545.39 -66.6188 -31.4994 -185.082 290.711)
(1171.61 -495.985 -110.479 12.47 -301.761 253.142)
(1113.02 -456.628 -107.611 45.9344 -292.058 248.276)
(1057.03 -417.534 -60.8608 80.2316 -163.262 215.698)
(1321.81 -438.626 -52.1386 -109.406 -189.884 290.171)
(1242.18 -398.937 -86.6447 -58.407 -309.795 253.075)
(1178.35 -367.348 -84.4821 -19.2292 -299.905 248.639)
(1117.04 -335.988 -47.8879 20.8348 -167.73 216.502)
(1381.64 -321.14 -37.2954 -169.384 -193.521 289.942)
(1296.82 -292.067 -62.1443 -112.9 -315.881 253.196)
(1228.79 -268.97 -60.6683 -69.4902 -305.843 248.997)
(1163.27 -246.007 -34.4691 -25.0159 -171.12 217.153)
(1423.77 -195.35 -22.0541 -209.057 -195.954 290.77)
(1333.9 -178.322 -37.0248 -149.587 -319.982 253.603)
(1263.14 -164.301 -36.2132 -103.427 -309.858 249.574)
(1194.19 -149.754 -20.6857 -56.708 -173.313 217.513)