/*--------------------------------*- C++ -*----------------------------------*\
| =========                 |                                                 |
| \\      /  F ield         | foam-extend: Open Source CFD                    |
|  \\    /   O peration     | Version:     3.1                                |
|   \\  /    A nd           | Web:         http://www.extend-project.de       |
|    \\/     M anipulation  |                                                 |
\*---------------------------------------------------------------------------*/
FoamFile
{
    version     2.0;
    format      ascii;
    class       volScalarField;
    location    "0.0006";
    object      sigmaEq;
}
// * * * * * * * * * * * * * * * * * * * * * * * * * * * * * * * * * * * * * //

dimensions      [1 -1 -2 0 0 0 0];

internalField   nonuniform List<scalar> 
6400
(
3699.4
3220.47
2953.03
2951.95
3685.22
3213.42
2948.64
2958.56
3683.59
3212.23
2947.97
2958.65
3682.72
3211.63
2947.47
2958.08
3682.14
3211.14
2946.94
2957.26
3681.7
3210.7
2946.38
2956.33
3681.37
3210.3
2945.82
2955.39
3681.15
3209.95
2945.31
2954.54
3681.01
3209.63
2944.86
2953.85
3680.89
3209.4
2944.58
2953.45
3680.89
3209.4
2944.58
2953.45
3681.01
3209.63
2944.86
2953.85
3681.15
3209.95
2945.31
2954.54
3681.37
3210.3
2945.82
2955.39
3681.7
3210.7
2946.38
2956.33
3682.14
3211.14
2946.94
2957.26
3682.72
3211.63
2947.48
2958.08
3683.6
3212.23
2947.97
2958.65
3685.22
3213.42
2948.64
2958.56
3699.4
3220.47
2953.03
2951.95
2136.09
2552.98
2362.8
1442.48
2146.44
2553.78
2352.66
1419.06
2145.25
2553.02
2351.87
1418.83
2144.65
2552.44
2351.32
1418.5
2144.34
2551.89
2350.74
1418.1
2144.22
2551.38
2350.18
1417.7
2144.23
2550.95
2349.67
1417.35
2144.32
2550.61
2349.26
1417.06
2144.49
2550.35
2348.94
1416.85
2145
2550.22
2348.76
1416.73
2145
2550.22
2348.76
1416.73
2144.49
2550.35
2348.94
1416.85
2144.32
2550.61
2349.26
1417.06
2144.23
2550.95
2349.67
1417.35
2144.22
2551.38
2350.18
1417.7
2144.35
2551.89
2350.74
1418.1
2144.65
2552.44
2351.32
1418.5
2145.25
2553.02
2351.88
1418.83
2146.44
2553.78
2352.66
1419.06
2136.09
2552.98
2362.8
1442.48
2437.84
2215.39
2009.4
1898.4
2434.75
2210.13
2001.9
1894.84
2433.83
2209.82
2001.62
1895.99
2433.73
2209.65
2001.48
1896.16
2433.98
2209.54
2001.26
1896.07
2434.44
2209.47
2000.98
1895.86
2435.02
2209.43
2000.67
1895.64
2435.67
2209.45
2000.41
1895.45
2436.37
2209.54
2000.22
1895.3
2437.37
2209.7
2000.13
1895.21
2437.37
2209.7
2000.13
1895.21
2436.37
2209.54
2000.22
1895.3
2435.67
2209.45
2000.41
1895.45
2435.02
2209.43
2000.67
1895.64
2434.44
2209.47
2000.98
1895.86
2433.98
2209.54
2001.26
1896.07
2433.73
2209.65
2001.48
1896.16
2433.83
2209.82
2001.62
1895.99
2434.75
2210.13
2001.9
1894.84
2437.84
2215.39
2009.4
1898.4
2810.73
2315.9
2085.07
2225.61
2801.83
2307.87
2080.18
2226.35
2800.73
2307.58
2080.24
2227.88
2800.57
2307.53
2080.26
2228.06
2800.9
2307.75
2080.27
2227.75
2801.58
2308.12
2080.24
2227.2
2802.45
2308.59
2080.18
2226.57
2803.43
2309.09
2080.13
2225.96
2804.43
2309.59
2080.11
2225.46
2805.55
2310
2080.11
2225.17
2805.55
2310
2080.11
2225.17
2804.43
2309.59
2080.11
2225.46
2803.43
2309.09
2080.13
2225.96
2802.45
2308.59
2080.18
2226.57
2801.58
2308.13
2080.24
2227.2
2800.9
2307.75
2080.27
2227.75
2800.57
2307.53
2080.26
2228.06
2800.73
2307.58
2080.24
2227.88
2801.83
2307.87
2080.18
2226.35
2810.73
2315.9
2085.07
2225.61
2635.85
2295.75
2091.8
2079.96
2630.92
2290.37
2087.12
2076.45
2630.04
2290.27
2087.12
2077.5
2629.79
2290.17
2087.01
2077.39
2630
2290.33
2086.92
2076.79
2630.6
2290.7
2086.82
2075.89
2631.49
2291.23
2086.73
2074.83
2632.55
2291.84
2086.65
2073.77
2633.65
2292.44
2086.61
2072.89
2634.74
2292.88
2086.6
2072.36
2634.74
2292.88
2086.6
2072.36
2633.65
2292.44
2086.61
2072.89
2632.55
2291.84
2086.65
2073.77
2631.49
2291.23
2086.73
2074.83
2630.6
2290.71
2086.82
2075.89
2630
2290.33
2086.92
2076.79
2629.79
2290.17
2087.01
2077.39
2630.04
2290.27
2087.12
2077.5
2630.92
2290.37
2087.12
2076.45
2635.85
2295.75
2091.8
2079.96
2090.33
1978.23
1831.7
1656.28
2091.68
1976.44
1827.51
1648.88
2091.2
1976.49
1827.36
1649.29
2090.98
1976.27
1827.05
1649
2091.06
1976.14
1826.68
1648.3
2091.48
1976.14
1826.26
1647.31
2092.2
1976.27
1825.82
1646.12
2093.12
1976.49
1825.41
1644.88
2094.09
1976.76
1825.09
1643.81
2094.99
1976.98
1824.91
1643.16
2094.99
1976.98
1824.91
1643.16
2094.09
1976.76
1825.09
1643.81
2093.12
1976.49
1825.41
1644.88
2092.2
1976.27
1825.82
1646.12
2091.48
1976.14
1826.26
1647.31
2091.06
1976.14
1826.68
1648.3
2090.98
1976.27
1827.05
1649
2091.2
1976.49
1827.36
1649.29
2091.68
1976.45
1827.51
1648.88
2090.33
1978.23
1831.7
1656.28
1523.01
1473.54
1374.53
1211.94
1526.74
1473.71
1372.1
1206.48
1526.48
1473.8
1371.92
1206.6
1526.32
1473.54
1371.58
1206.4
1526.33
1473.21
1371.08
1205.92
1526.6
1472.9
1370.46
1205.17
1527.12
1472.65
1369.78
1204.2
1527.81
1472.47
1369.1
1203.15
1528.53
1472.37
1368.54
1202.21
1529.14
1472.34
1368.21
1201.63
1529.14
1472.34
1368.21
1201.63
1528.53
1472.37
1368.54
1202.21
1527.81
1472.47
1369.1
1203.15
1527.12
1472.65
1369.78
1204.2
1526.6
1472.9
1370.46
1205.17
1526.33
1473.21
1371.08
1205.92
1526.32
1473.54
1371.58
1206.4
1526.48
1473.8
1371.92
1206.6
1526.74
1473.71
1372.1
1206.48
1523.01
1473.54
1374.53
1211.94
1149.63
1005.97
921.104
886.929
1151.18
1006.21
920.898
886.933
1150.84
1006.26
920.827
887.046
1150.65
1006.13
920.678
887.053
1150.6
1005.9
920.367
886.838
1150.73
1005.66
919.924
886.392
1151.05
1005.45
919.395
885.755
1151.49
1005.27
918.846
885.025
1151.95
1005.13
918.367
884.349
1152.32
1005.06
918.081
883.929
1152.32
1005.06
918.081
883.929
1151.95
1005.13
918.368
884.349
1151.49
1005.27
918.846
885.025
1151.05
1005.45
919.396
885.756
1150.73
1005.66
919.925
886.392
1150.6
1005.9
920.368
886.839
1150.65
1006.13
920.678
887.053
1150.84
1006.26
920.828
887.046
1151.18
1006.21
920.898
886.934
1149.63
1005.97
921.105
886.93
926.051
715.172
619.908
659.528
925.524
714.728
620.818
662.336
925.09
714.712
620.828
662.409
924.821
714.735
620.906
662.474
924.667
714.722
620.893
662.366
924.644
714.73
620.794
662.063
924.765
714.774
620.632
661.604
924.99
714.841
620.436
661.069
925.25
714.907
620.252
660.58
925.474
714.954
620.137
660.279
925.474
714.954
620.138
660.279
925.25
714.907
620.252
660.58
924.99
714.842
620.436
661.07
924.765
714.775
620.632
661.604
924.645
714.731
620.795
662.063
924.667
714.723
620.893
662.367
924.822
714.736
620.907
662.475
925.091
714.713
620.828
662.41
925.525
714.729
620.819
662.336
926.051
715.173
619.909
659.529
740.493
560.864
463.302
477.749
739.902
560.169
463.778
479.86
739.52
560.1
463.738
479.81
739.247
560.151
463.865
479.845
739.05
560.197
463.96
479.777
738.939
560.274
464.013
479.562
738.936
560.393
464.031
479.224
739.025
560.537
464.023
478.828
739.17
560.675
464.004
478.469
739.322
560.769
463.991
478.251
739.322
560.769
463.991
478.251
739.171
560.675
464.005
478.469
739.025
560.537
464.024
478.828
738.936
560.393
464.031
479.224
738.939
560.275
464.014
479.562
739.05
560.198
463.961
479.777
739.248
560.152
463.865
479.845
739.521
560.1
463.739
479.81
739.902
560.17
463.779
479.861
740.494
560.865
463.303
477.749
571.883
451.77
368.288
340.426
571.939
451.194
368.05
340.889
571.676
451.115
367.945
340.763
571.476
451.145
368.028
340.8
571.318
451.161
368.103
340.812
571.213
451.193
368.151
340.734
571.183
451.251
368.176
340.566
571.225
451.333
368.183
340.347
571.321
451.419
368.181
340.138
571.442
451.484
368.179
340.009
571.442
451.484
368.179
340.009
571.321
451.42
368.181
340.138
571.225
451.333
368.183
340.347
571.183
451.252
368.176
340.566
571.214
451.193
368.152
340.734
571.319
451.162
368.103
340.812
571.476
451.145
368.028
340.801
571.676
451.116
367.946
340.764
571.939
451.195
368.051
340.889
571.883
451.771
368.289
340.426
438.39
360.712
296.713
256.013
438.842
360.283
296.18
255.492
438.673
360.223
296.067
255.381
438.552
360.245
296.122
255.444
438.459
360.251
296.18
255.527
438.399
360.259
296.22
255.567
438.389
360.28
296.239
255.545
438.429
360.316
296.243
255.476
438.51
360.36
296.24
255.394
438.618
360.397
296.237
255.338
438.618
360.397
296.237
255.338
438.511
360.36
296.24
255.394
438.429
360.316
296.244
255.477
438.389
360.281
296.24
255.545
438.399
360.26
296.22
255.567
438.459
360.252
296.181
255.528
438.552
360.246
296.122
255.444
438.673
360.224
296.068
255.381
438.841
360.284
296.18
255.492
438.39
360.712
296.714
256.013
342.882
289.043
242.057
207.518
343.396
288.72
241.528
206.764
343.278
288.681
241.436
206.693
343.202
288.7
241.475
206.755
343.15
288.707
241.522
206.842
343.123
288.714
241.557
206.905
343.132
288.728
241.575
206.926
343.176
288.749
241.58
206.909
343.248
288.776
241.577
206.872
343.342
288.801
241.573
206.842
343.342
288.801
241.573
206.842
343.248
288.776
241.577
206.872
343.176
288.749
241.58
206.909
343.132
288.728
241.576
206.926
343.123
288.715
241.557
206.905
343.149
288.708
241.522
206.842
343.201
288.7
241.475
206.755
343.277
288.681
241.436
206.694
343.396
288.72
241.528
206.764
342.882
289.043
242.057
207.519
273.871
233.49
198.437
171.837
274.309
233.247
198
171.137
274.216
233.22
197.926
171.087
274.159
233.23
197.946
171.126
274.124
233.232
197.974
171.18
274.111
233.235
197.993
171.216
274.126
233.242
197.999
171.219
274.167
233.254
197.994
171.194
274.229
233.271
197.983
171.154
274.308
233.287
197.975
171.124
274.308
233.287
197.976
171.124
274.229
233.271
197.984
171.154
274.167
233.255
197.994
171.194
274.125
233.242
197.999
171.219
274.11
233.235
197.993
171.216
274.123
233.232
197.975
171.181
274.158
233.23
197.947
171.126
274.216
233.22
197.926
171.087
274.308
233.247
198
171.137
273.87
233.491
198.437
171.837
220.882
188.512
161.074
140.039
221.218
188.325
160.73
139.458
221.143
188.304
160.669
139.416
221.095
188.305
160.674
139.435
221.067
188.3
160.684
139.462
221.059
188.296
160.686
139.471
221.075
188.297
160.679
139.455
221.112
188.302
160.663
139.416
221.164
188.311
160.645
139.37
221.228
188.32
160.633
139.337
221.228
188.32
160.633
139.337
221.164
188.311
160.645
139.37
221.112
188.302
160.663
139.416
221.075
188.297
160.679
139.455
221.058
188.296
160.686
139.471
221.066
188.3
160.684
139.462
221.094
188.305
160.674
139.435
221.142
188.304
160.669
139.416
221.217
188.325
160.73
139.458
220.88
188.512
161.074
140.039
178.487
151.374
128.983
112.032
178.73
151.224
128.714
111.577
178.669
151.206
128.664
111.541
178.629
151.203
128.663
111.55
178.606
151.196
128.664
111.563
178.6
151.19
128.659
111.56
178.615
151.189
128.646
111.537
178.647
151.191
128.628
111.496
178.69
151.197
128.609
111.451
178.741
151.203
128.597
111.42
178.741
151.203
128.597
111.42
178.69
151.196
128.609
111.451
178.646
151.191
128.628
111.496
178.614
151.188
128.646
111.537
178.599
151.19
128.659
111.56
178.604
151.195
128.664
111.563
178.627
151.203
128.663
111.55
178.667
151.206
128.664
111.541
178.728
151.223
128.714
111.577
178.485
151.374
128.983
112.032
143.975
121.074
102.488
88.7736
144.147
120.947
102.277
88.4269
144.097
120.933
102.237
88.3969
144.064
120.93
102.235
88.4031
144.045
120.923
102.235
88.4107
144.04
120.919
102.23
88.4056
144.052
120.918
102.219
88.3837
144.078
120.921
102.204
88.3485
144.114
120.927
102.188
88.3098
144.154
120.933
102.178
88.2834
144.154
120.933
102.178
88.2834
144.113
120.926
102.188
88.3097
144.078
120.921
102.204
88.3484
144.051
120.918
102.219
88.3837
144.039
120.918
102.229
88.4057
144.043
120.923
102.235
88.4108
144.062
120.929
102.235
88.4031
144.095
120.932
102.237
88.3969
144.145
120.946
102.277
88.4268
143.973
121.073
102.488
88.7735
115.725
96.6978
81.3341
70.2059
115.85
96.5901
81.1651
69.9387
115.81
96.5784
81.1333
69.9149
115.782
96.5765
81.133
69.9208
115.766
96.5719
81.1338
69.9275
115.762
96.5692
81.1308
69.9238
115.771
96.5699
81.1235
69.9065
115.791
96.5738
81.1129
69.8787
115.82
96.5794
81.1018
69.8481
115.852
96.5851
81.0945
69.8273
115.852
96.5851
81.0945
69.8273
115.819
96.5793
81.1017
69.848
115.791
96.5735
81.1128
69.8786
115.769
96.5695
81.1234
69.9065
115.76
96.5686
81.1307
69.9238
115.764
96.5712
81.1336
69.9275
115.78
96.5757
81.1327
69.9207
115.808
96.5775
81.133
69.9148
115.848
96.5892
81.1648
69.9386
115.723
96.697
81.3337
70.2057
92.668
77.1967
64.6615
55.6264
92.7639
77.1066
64.5244
55.415
92.7311
77.0971
64.4994
55.3964
92.7084
77.0961
64.5003
55.4024
92.6947
77.093
64.5022
55.4092
92.6904
77.0913
64.501
55.4075
92.6969
77.0925
64.4964
55.395
92.7127
77.0963
64.4892
55.374
92.7349
77.1014
64.4814
55.3506
92.7606
77.1065
64.4763
55.3347
92.7605
77.1064
64.4763
55.3346
92.7345
77.1013
64.4814
55.3506
92.7119
77.096
64.4891
55.3739
92.6956
77.092
64.4963
55.395
92.6887
77.0907
64.5009
55.4076
92.6927
77.0921
64.502
55.4092
92.7062
77.0952
64.5
55.4024
92.7288
77.0961
64.499
55.3963
92.7615
77.1056
64.524
55.4149
92.6656
77.1957
64.6611
55.6262
73.9977
61.6075
51.5086
44.2017
74.0738
61.5335
51.397
44.0312
74.0474
61.5258
51.3773
44.0168
74.029
61.5254
51.3788
44.0226
74.0177
61.5231
51.381
44.0291
74.0138
61.5219
51.3808
44.0289
74.0184
61.523
51.3778
44.02
74.0305
61.5261
51.3727
44.0043
74.0479
61.5303
51.367
43.9865
74.0683
61.5344
51.3632
43.9742
74.0681
61.5344
51.3631
43.9742
74.0474
61.5301
51.3669
43.9864
74.0296
61.5257
51.3726
44.0042
74.0171
61.5224
51.3776
44.02
74.012
61.5212
51.3806
44.0289
74.0156
61.5222
51.3807
44.0291
74.0267
61.5244
51.3784
44.0226
74.045
61.5248
51.3769
44.0168
74.0714
61.5324
51.3966
44.0311
73.9952
61.6064
51.5082
44.2015
59.0022
49.1464
41.0759
35.2012
59.0635
49.0865
40.9853
35.063
59.0423
49.0804
40.9697
35.0519
59.0275
49.0801
40.9712
35.057
59.0183
49.0783
40.9733
35.0629
59.0148
49.0773
40.9734
35.0633
59.0182
49.078
40.9712
35.0569
59.0275
49.0803
40.9673
35.0449
59.0411
49.0836
40.9629
35.0311
59.0574
49.0868
40.9599
35.0216
59.0573
49.0868
40.9599
35.0215
59.0406
49.0834
40.9628
35.031
59.0266
49.08
40.9672
35.0448
59.0169
49.0775
40.971
35.0569
59.0131
49.0766
40.9732
35.0634
59.0162
49.0774
40.973
35.0629
59.0252
49.0791
40.9709
35.057
59.04
49.0794
40.9693
35.0519
59.0612
49.0855
40.9849
35.0629
58.9998
49.1454
41.0755
35.2011
47.0224
39.1893
32.7613
28.061
47.0717
39.1412
32.6882
27.9493
47.0545
39.1362
32.6759
27.9406
47.0426
39.136
32.6772
27.9449
47.0351
39.1344
32.6789
27.9498
47.0322
39.1335
32.679
27.9504
47.0347
39.1339
32.6772
27.9455
47.0419
39.1356
32.6741
27.9361
47.0526
39.138
32.6705
27.9253
47.0656
39.1405
32.6681
27.9177
47.0655
39.1405
32.6681
27.9177
47.0522
39.1378
32.6705
27.9252
47.0411
39.1353
32.674
27.9361
47.0334
39.1334
32.6771
27.9456
47.0305
39.1328
32.6788
27.9505
47.0331
39.1336
32.6787
27.9499
47.0404
39.1351
32.6769
27.945
47.0523
39.1353
32.6756
27.9406
47.0694
39.1402
32.6879
27.9492
47.0201
39.1883
32.761
28.0609
37.4731
31.2367
26.1187
22.3686
37.5124
31.1981
26.06
22.2788
37.4986
31.1941
26.0502
22.272
37.4889
31.1938
26.0512
22.2755
37.4828
31.1925
26.0525
22.2795
37.4804
31.1916
26.0526
22.28
37.4822
31.1918
26.0511
22.2762
37.4878
31.193
26.0485
22.2687
37.4963
31.1948
26.0455
22.26
37.5067
31.1968
26.0436
22.2539
37.5066
31.1967
26.0435
22.2539
37.4959
31.1947
26.0455
22.26
37.4871
31.1927
26.0484
22.2687
37.481
31.1913
26.051
22.2762
37.4789
31.191
26.0524
22.2802
37.481
31.1918
26.0524
22.2796
37.4869
31.193
26.051
22.2756
37.4965
31.1932
26.0499
22.272
37.5104
31.1972
26.0598
22.2788
37.4711
31.2358
26.1184
22.3685
29.8636
24.8884
20.8099
17.8221
29.8948
24.8574
20.763
17.7503
29.8836
24.8542
20.7551
17.7449
29.8757
24.8539
20.7559
17.7478
29.8707
24.8527
20.7569
17.751
29.8687
24.852
20.7569
17.7514
29.87
24.852
20.7557
17.7483
29.8745
24.8529
20.7535
17.7423
29.8812
24.8543
20.7511
17.7353
29.8895
24.8558
20.7495
17.7305
29.8894
24.8557
20.7495
17.7305
29.8808
24.8541
20.7511
17.7353
29.8738
24.8526
20.7535
17.7423
29.869
24.8516
20.7556
17.7484
29.8673
24.8514
20.7568
17.7516
29.8691
24.8521
20.7568
17.7511
29.874
24.8532
20.7558
17.748
29.8817
24.8534
20.7549
17.7451
29.893
24.8566
20.7628
17.7504
29.8618
24.8876
20.8097
17.8221
23.7975
19.8236
16.5709
14.1919
23.8221
19.7987
16.5334
14.1348
23.813
19.7961
16.5271
14.1305
23.8067
19.7959
16.5278
14.1328
23.8026
19.7949
16.5286
14.1354
23.8009
19.7942
16.5285
14.1357
23.8019
19.7942
16.5275
14.1332
23.8054
19.7949
16.5257
14.1284
23.8108
19.7959
16.5238
14.1228
23.8174
19.7971
16.5225
14.1189
23.8173
19.7971
16.5225
14.1189
23.8105
19.7958
16.5238
14.1228
23.8048
19.7947
16.5257
14.1285
23.801
19.7939
16.5275
14.1334
23.7997
19.7938
16.5285
14.1359
23.8012
19.7943
16.5285
14.1356
23.8052
19.7952
16.5277
14.133
23.8115
19.7955
16.527
14.1307
23.8206
19.7981
16.5333
14.1349
23.7959
19.8229
16.5708
14.192
18.9601
15.7851
13.1901
11.2966
18.9796
15.7651
13.1601
11.2512
18.9723
15.7631
13.1552
11.2479
18.9672
15.7629
13.1557
11.2497
18.9639
15.7621
13.1564
11.2518
18.9625
15.7615
13.1564
11.2521
18.9633
15.7615
13.1556
11.2501
18.966
15.7621
13.1542
11.2463
18.9703
15.7629
13.1526
11.2418
18.9757
15.7639
13.1516
11.2387
18.9756
15.7638
13.1516
11.2387
18.97
15.7628
13.1526
11.2419
18.9655
15.7619
13.1542
11.2464
18.9625
15.7613
13.1555
11.2503
18.9615
15.7612
13.1563
11.2523
18.9627
15.7616
13.1564
11.2521
18.9658
15.7623
13.1557
11.25
18.9709
15.7625
13.1552
11.2481
18.9783
15.7646
13.1601
11.2514
18.9588
15.7846
13.1901
11.2968
15.1025
12.5665
10.4964
8.98982
15.1179
12.5505
10.4725
8.95378
15.1121
12.5489
10.4686
8.95113
15.108
12.5487
10.4691
8.95267
15.1054
12.5482
10.4697
8.95435
15.1043
12.5478
10.4697
8.95462
15.105
12.5478
10.4691
8.95307
15.1072
12.5482
10.468
8.95003
15.1106
12.5489
10.4667
8.94647
15.1149
12.5497
10.4659
8.94399
15.1148
12.5497
10.4659
8.944
15.1104
12.5489
10.4668
8.94651
15.1067
12.5481
10.468
8.95012
15.1043
12.5475
10.4691
8.95324
15.1034
12.5474
10.4697
8.95487
15.1043
12.5477
10.4697
8.95464
15.1068
12.5483
10.4691
8.95296
15.1109
12.5484
10.4686
8.95141
15.1168
12.5501
10.4725
8.95403
15.1014
12.5661
10.4965
8.99004
12.0271
10.0023
8.35154
7.15304
12.0393
9.98956
8.33246
7.12442
12.0346
9.98829
8.32939
7.12235
12.0314
9.98824
8.32982
7.12361
12.0294
9.98783
8.33033
7.125
12.0286
9.98757
8.33038
7.12525
12.0291
9.98763
8.32993
7.12405
12.0309
9.98802
8.3291
7.12165
12.0337
9.98862
8.32814
7.11883
12.0372
9.98926
8.3275
7.11686
12.0371
9.98923
8.32751
7.11687
12.0335
9.98854
8.32815
7.11887
12.0305
9.98786
8.32911
7.12175
12.0285
9.98738
8.32995
7.12423
12.0277
9.98723
8.3304
7.12551
12.0284
9.98743
8.33033
7.1253
12.0303
9.9878
8.32982
7.12393
12.0335
9.98786
8.3294
7.12264
12.0383
9.98916
8.33248
7.1247
12.0261
10.002
8.35156
7.15329
9.57606
7.96018
6.64409
5.6909
9.5858
7.94995
6.62888
5.66818
9.58207
7.94899
6.62647
5.66655
9.57957
7.94901
6.62686
5.6676
9.57804
7.94875
6.62732
5.66874
9.57745
7.9486
6.62742
5.66898
9.57795
7.94871
6.6271
5.66805
9.57943
7.94906
6.62647
5.66617
9.58167
7.94956
6.62573
5.66394
9.58446
7.95009
6.62523
5.66237
9.58439
7.95006
6.62523
5.66239
9.58145
7.94947
6.62573
5.66399
9.57901
7.94889
6.62647
5.66627
9.57731
7.94844
6.6271
5.66824
9.5766
7.94824
6.62741
5.66924
9.57705
7.94832
6.62731
5.66905
9.57852
7.94855
6.62685
5.66791
9.58103
7.94853
6.62645
5.66685
9.58481
7.94954
6.62888
5.66846
9.57512
7.95978
6.6441
5.69115
7.62342
6.33409
5.28505
4.52707
7.63116
6.32592
5.27292
4.50903
7.62821
6.32519
5.27103
4.50776
7.62628
6.32526
5.2714
4.50863
7.62513
6.32512
5.27181
4.50957
7.62473
6.32506
5.27193
4.50979
7.62518
6.32519
5.27171
4.50908
7.6264
6.3255
5.27124
4.5076
7.62821
6.32593
5.27066
4.50584
7.63045
6.32635
5.27027
4.5046
7.63038
6.32632
5.27027
4.50461
7.62798
6.32582
5.27065
4.50588
7.62596
6.3253
5.27122
4.5077
7.62451
6.32488
5.27168
4.50926
7.62386
6.32465
5.27189
4.51005
7.62412
6.32464
5.27176
4.50987
7.62521
6.32475
5.27134
4.50893
7.62715
6.32468
5.27098
4.50805
7.63016
6.32544
5.27287
4.5093
7.62245
6.33364
5.28501
4.52731
6.06819
5.03953
4.20343
3.60074
6.07435
5.03299
4.19375
3.58643
6.07202
5.03244
4.19228
3.58542
6.07053
5.03255
4.1926
3.58614
6.06967
5.03248
4.19296
3.58691
6.06939
5.03247
4.19308
3.58711
6.06979
5.0326
4.19294
3.58656
6.07078
5.03287
4.19257
3.5854
6.07223
5.03321
4.19212
3.58401
6.07402
5.03355
4.19181
3.58302
6.07394
5.03351
4.1918
3.58303
6.07197
5.03308
4.1921
3.58405
6.0703
5.03262
4.19253
3.58549
6.06907
5.03224
4.19287
3.58673
6.06847
5.032
4.193
3.58735
6.06859
5.03192
4.19286
3.58719
6.06939
5.03195
4.19249
3.58643
6.0709
5.03185
4.19216
3.5857
6.07328
5.03243
4.19365
3.58667
6.06716
5.03898
4.20332
3.60096
4.82967
4.00904
3.34271
2.86355
4.83456
4.00381
3.33499
2.85218
4.83272
4.00339
3.33383
2.85139
4.83156
4.0035
3.33411
2.85197
4.8309
4.00347
3.33441
2.8526
4.8307
4.00347
3.33452
2.85277
4.83101
4.00358
3.33441
2.85235
4.83179
4.00379
3.33412
2.85143
4.83293
4.00406
3.33376
2.85032
4.83435
4.00431
3.3335
2.84954
4.83426
4.00426
3.33349
2.84955
4.83264
4.00389
3.33371
2.85036
4.83127
4.0035
3.33404
2.85152
4.83024
4.00316
3.3343
2.85251
4.8297
4.00293
3.33439
2.853
4.82974
4.00283
3.33425
2.85287
4.83033
4.00281
3.33393
2.85224
4.8315
4.0027
3.33365
2.85164
4.83339
4.00314
3.33481
2.85241
4.82854
4.00838
3.34252
2.86374
3.84342
3.18887
2.65792
2.27702
3.8473
3.18469
2.65176
2.268
3.84583
3.18436
2.65085
2.26737
3.84491
3.18445
2.65107
2.26784
3.84438
3.18442
2.65131
2.26834
3.8442
3.18442
2.65139
2.26848
3.84442
3.18448
2.65129
2.26814
3.845
3.18462
2.65105
2.26741
3.84587
3.1848
2.65074
2.26653
3.84697
3.18498
2.65052
2.2659
3.84687
3.18491
2.6505
2.26591
3.84555
3.1846
2.65067
2.26656
3.84443
3.18427
2.65093
2.26749
3.84358
3.18399
2.65114
2.26829
3.84312
3.18379
2.65121
2.26869
3.84313
3.18369
2.6511
2.26859
3.84359
3.18366
2.65083
2.26809
3.84451
3.18356
2.65059
2.2676
3.84602
3.18391
2.65151
2.2682
3.84218
3.1881
2.65766
2.2772
3.0581
2.53622
2.11327
1.81054
3.06118
2.53287
2.10835
1.80338
3.05999
2.5326
2.10762
1.80287
3.05924
2.53266
2.10779
1.80324
3.05879
2.53262
2.10797
1.80364
3.0586
2.53257
2.10801
1.80374
3.05871
2.53258
2.10791
1.80347
3.05911
2.53264
2.10768
1.80288
3.05975
2.53274
2.10741
1.80217
3.06058
2.53285
2.10722
1.80167
3.06046
2.53277
2.10719
1.80167
3.05939
2.53251
2.10733
1.8022
3.05849
2.53225
2.10754
1.80295
3.05781
2.53203
2.10772
1.80361
3.05745
2.53187
2.10778
1.80394
3.05746
2.5318
2.1077
1.80387
3.05783
2.53178
2.10749
1.80348
3.05858
2.5317
2.1073
1.80309
3.0598
2.53199
2.10804
1.80356
3.05676
2.53534
2.11294
1.8107
2.43289
2.01701
1.68023
1.43969
2.43533
2.01433
1.67631
1.434
2.43436
2.0141
1.67572
1.43359
2.43373
2.01412
1.67584
1.43387
2.43331
2.01405
1.67596
1.43418
2.43309
2.01396
1.67596
1.43425
2.43311
2.01391
1.67584
1.43402
2.43334
2.0139
1.67563
1.43355
2.43377
2.01392
1.67538
1.43297
2.43438
2.01396
1.6752
1.43257
2.43426
2.01388
1.67517
1.43257
2.4334
2.01367
1.67528
1.433
2.43268
2.01347
1.67546
1.43362
2.43216
2.01331
1.67562
1.43416
2.43189
2.0132
1.67569
1.43444
2.43193
2.01317
1.67565
1.43441
2.43225
2.01317
1.67549
1.4341
2.43287
2.01312
1.67535
1.4338
2.43387
2.01336
1.67594
1.43418
2.43148
2.01605
1.67985
1.43983
1.93529
1.60411
1.33607
1.14497
1.93722
1.60196
1.33294
1.14044
1.93642
1.60176
1.33246
1.14011
1.93588
1.60175
1.33254
1.14033
1.93549
1.60164
1.33261
1.14056
1.93524
1.60152
1.33257
1.14061
1.93517
1.60141
1.33244
1.14041
1.93527
1.60134
1.33223
1.14003
1.93553
1.6013
1.33201
1.13956
1.93597
1.60129
1.33185
1.13924
1.93584
1.6012
1.33181
1.13924
1.93514
1.60103
1.3319
1.13959
1.93459
1.60088
1.33206
1.1401
1.9342
1.60078
1.33221
1.14055
1.93402
1.60072
1.33229
1.1408
1.93408
1.60072
1.33227
1.14079
1.93438
1.60075
1.33217
1.14056
1.93491
1.60074
1.33207
1.14033
1.93574
1.60094
1.33255
1.14063
1.93385
1.6031
1.33566
1.14512
1.53943
1.27587
1.06264
0.910804
1.54096
1.27415
1.06014
0.907207
1.5403
1.27397
1.05974
0.906933
1.53983
1.27393
1.05979
0.907097
1.53947
1.27381
1.05982
0.907273
1.5392
1.27366
1.05976
0.907301
1.53906
1.27351
1.05962
0.90714
1.53905
1.27339
1.05942
0.906825
1.5392
1.27331
1.05922
0.906454
1.53949
1.27327
1.05907
0.906191
1.53937
1.27318
1.05903
0.906198
1.53881
1.27304
1.05911
0.906486
1.53838
1.27294
1.05925
0.906907
1.5381
1.27287
1.05938
0.907287
1.53799
1.27286
1.05947
0.907508
1.53808
1.27289
1.05948
0.907518
1.53836
1.27294
1.05942
0.907349
1.53882
1.27295
1.05936
0.907168
1.53952
1.27313
1.05975
0.907414
1.53803
1.27486
1.06223
0.910978
1.22463
1.01499
0.845403
0.724745
1.22585
1.01362
0.843406
0.72188
1.2253
1.01346
0.843083
0.721656
1.2249
1.01342
0.843108
0.721781
1.22457
1.01328
0.843113
0.721916
1.2243
1.01312
0.843046
0.721934
1.22412
1.01296
0.84291
0.721803
1.22405
1.01281
0.84273
0.721552
1.2241
1.01271
0.842546
0.721257
1.2243
1.01264
0.842414
0.72105
1.22418
1.01256
0.842379
0.72106
1.22373
1.01245
0.842443
0.721297
1.22341
1.01237
0.842565
0.721645
1.22321
1.01234
0.842691
0.721966
1.22316
1.01236
0.842779
0.72216
1.22327
1.0124
0.842806
0.722184
1.22352
1.01247
0.842771
0.72206
1.22392
1.01249
0.842732
0.721922
1.22451
1.01266
0.84305
0.72212
1.22334
1.01404
0.845032
0.724952
0.974316
0.807642
0.672763
0.576842
0.975292
0.806543
0.671169
0.574557
0.974852
0.806416
0.670908
0.574374
0.974521
0.806366
0.670922
0.574471
0.974232
0.806243
0.670917
0.574579
0.973975
0.806085
0.670851
0.574596
0.973779
0.805919
0.670728
0.574496
0.97367
0.80577
0.670571
0.574302
0.973669
0.805656
0.670413
0.574074
0.973798
0.805585
0.670301
0.573914
0.973693
0.805506
0.67027
0.573927
0.973343
0.805417
0.670324
0.574123
0.973101
0.805369
0.67043
0.574411
0.972966
0.80536
0.670542
0.57468
0.972951
0.805388
0.670627
0.574849
0.973066
0.805443
0.670661
0.574881
0.973296
0.805509
0.670644
0.57479
0.973645
0.805547
0.670621
0.574683
0.97414
0.805688
0.67088
0.574842
0.973218
0.806796
0.672462
0.577094
0.775207
0.642723
0.535445
0.459165
0.775997
0.64185
0.534173
0.457342
0.77565
0.641751
0.533966
0.457193
0.775387
0.641711
0.533979
0.457272
0.775146
0.641606
0.533975
0.457364
0.774919
0.641467
0.53392
0.457387
0.774732
0.641316
0.533818
0.457318
0.774611
0.641176
0.533688
0.457175
0.774581
0.641066
0.533559
0.457004
0.774669
0.640998
0.533468
0.456886
0.774582
0.640931
0.533444
0.456903
0.774311
0.640862
0.533491
0.457066
0.774136
0.640832
0.533582
0.457304
0.774048
0.640837
0.533681
0.457529
0.774058
0.640872
0.533758
0.457674
0.774171
0.640927
0.533793
0.457707
0.774377
0.640989
0.533785
0.457639
0.774677
0.641029
0.533771
0.457555
0.775093
0.64115
0.53398
0.45768
0.774367
0.642038
0.535243
0.459472
0.616676
0.511397
0.426076
0.365421
0.617322
0.510707
0.425062
0.363966
0.61706
0.510638
0.424903
0.363846
0.616863
0.510615
0.424921
0.363914
0.616675
0.510536
0.424925
0.363999
0.616486
0.510424
0.424888
0.364032
0.616322
0.510296
0.424811
0.363993
0.616206
0.510175
0.424711
0.363896
0.616167
0.51008
0.424611
0.363774
0.616232
0.510022
0.424541
0.363691
0.616169
0.509969
0.424526
0.363712
0.615967
0.509921
0.424569
0.363849
0.615845
0.509905
0.424648
0.364046
0.615796
0.509919
0.424734
0.364233
0.615823
0.509957
0.424802
0.364355
0.615932
0.510009
0.424834
0.364387
0.616113
0.510063
0.42483
0.364334
0.616368
0.5101
0.42482
0.364267
0.616717
0.510201
0.424987
0.364364
0.616147
0.510914
0.425995
0.365788
0.490287
0.406663
0.338829
0.29064
0.490821
0.406122
0.338024
0.289479
0.490634
0.406081
0.337905
0.289383
0.490498
0.406079
0.337931
0.289446
0.490362
0.406029
0.337948
0.289529
0.490215
0.405946
0.337931
0.289574
0.49008
0.405847
0.337881
0.289564
0.48998
0.40575
0.33781
0.289506
0.489944
0.405672
0.337737
0.289425
0.49
0.405628
0.337688
0.289371
0.489963
0.405593
0.337684
0.289396
0.489821
0.405564
0.337725
0.289513
0.489746
0.405563
0.337796
0.289678
0.489729
0.405585
0.337872
0.289833
0.489772
0.405625
0.337931
0.289935
0.489875
0.405672
0.337959
0.289963
0.490035
0.405719
0.337955
0.289921
0.490253
0.405751
0.337946
0.289864
0.490545
0.405834
0.338078
0.289938
0.4901
0.406406
0.338882
0.291067
0.389403
0.323021
0.269134
0.230916
0.389849
0.322602
0.268499
0.229992
0.389727
0.322587
0.268414
0.229917
0.389645
0.322605
0.26845
0.229977
0.389555
0.322582
0.26848
0.230061
0.389448
0.322529
0.268483
0.23012
0.389343
0.322458
0.268458
0.230134
0.389263
0.322384
0.268413
0.230108
0.389236
0.322326
0.268364
0.230061
0.389291
0.322297
0.268335
0.23003
0.38928
0.32228
0.26834
0.23006
0.389192
0.32227
0.268383
0.230161
0.389159
0.322285
0.268449
0.2303
0.389171
0.322316
0.268517
0.230431
0.389228
0.322358
0.26857
0.230516
0.389329
0.322402
0.268594
0.230539
0.389472
0.322443
0.268591
0.230504
0.38966
0.32247
0.268582
0.230455
0.389907
0.32254
0.268684
0.230509
0.389563
0.322998
0.269324
0.2314
0.308841
0.256186
0.213428
0.183195
0.309217
0.255865
0.21293
0.182462
0.309148
0.255872
0.212874
0.182404
0.30911
0.255907
0.212918
0.182463
0.309059
0.255908
0.212961
0.18255
0.308986
0.25588
0.212981
0.18262
0.308908
0.255833
0.212977
0.182654
0.308847
0.255781
0.212954
0.182654
0.308831
0.255741
0.212926
0.182633
0.308888
0.255726
0.212912
0.182621
0.308903
0.255725
0.212927
0.182654
0.308861
0.255735
0.212973
0.182744
0.308865
0.255764
0.213037
0.182864
0.308903
0.255806
0.213101
0.182976
0.308974
0.255852
0.21315
0.183047
0.309077
0.255896
0.213172
0.183066
0.309209
0.255933
0.213169
0.183036
0.309375
0.255958
0.21316
0.182992
0.309587
0.256016
0.213239
0.183028
0.309327
0.256385
0.213746
0.183728
0.244557
0.202816
0.168934
0.145086
0.244875
0.202573
0.168547
0.144508
0.244847
0.202597
0.168513
0.144464
0.244843
0.202645
0.168564
0.144523
0.244822
0.202664
0.168616
0.144612
0.244775
0.202657
0.16865
0.14469
0.244719
0.202629
0.168662
0.14474
0.244673
0.202594
0.168657
0.14476
0.244667
0.202568
0.168645
0.14476
0.244727
0.202566
0.168645
0.144761
0.244763
0.20258
0.168668
0.144797
0.24476
0.202606
0.168716
0.144878
0.244795
0.202649
0.16878
0.144984
0.244855
0.2027
0.168843
0.145081
0.24494
0.202752
0.168889
0.145142
0.245047
0.202798
0.168911
0.145158
0.245174
0.202834
0.168909
0.145131
0.245325
0.202859
0.1689
0.145091
0.245511
0.20291
0.168961
0.145112
0.245321
0.203207
0.169361
0.145656
0.193368
0.16029
0.133473
0.114711
0.193637
0.160109
0.133175
0.114258
0.193638
0.160144
0.133159
0.114227
0.193657
0.160201
0.133213
0.114285
0.193656
0.160231
0.133271
0.114374