/*--------------------------------*- C++ -*----------------------------------*\
| =========                 |                                                 |
| \\      /  F ield         | foam-extend: Open Source CFD                    |
|  \\    /   O peration     | Version:     3.1                                |
|   \\  /    A nd           | Web:         http://www.extend-project.de       |
|    \\/     M anipulation  |                                                 |
\*---------------------------------------------------------------------------*/
FoamFile
{
    version     2.0;
    format      ascii;
    class       regIOobject;
    location    "0.001/uniform";
    object      profilingInfo;
}
// * * * * * * * * * * * * * * * * * * * * * * * * * * * * * * * * * * * * * //

profilingInfo
(

    {
        id              23;
        parentId        22;
        description     "Foam::Time::writeObject - outputTime";
        calls           10;
        totalTime       6.66498;
        childTime       0;
        onStack         1;
    }

    {
        id              22;
        parentId        1;
        description     "Foam::Time::writeObject";
        calls           10;
        totalTime       6.66512;
        childTime       6.66498;
        onStack         1;
    }

    {
        id              1;
        description     "application::main";
        calls           1;
        totalTime       130.391;
        childTime       29.1646;
        onStack         1;
    }

    {
        id              25;
        parentId        24;
        description     "FO::pointHistory::execute";
        calls           9;
        totalTime       0.000261;
        childTime       0;
        onStack         0;
    }

    {
        id              3;
        parentId        2;
        description     "functionObjectList::read";
        calls           1;
        totalTime       0.075523;
        childTime       0;
        onStack         0;
    }

    {
        id              24;
        parentId        1;
        description     "functionObjects_.execute()";
        calls           9;
        totalTime       0.000339;
        childTime       0.000261;
        onStack         0;
    }

    {
        id              2;
        parentId        1;
        description     "functionObjects_.start()";
        calls           1;
        totalTime       0.075545;
        childTime       0.075523;
        onStack         0;
    }

    {
        id              18;
        parentId        1;
        description     "fvMatrix::solve_D";
        calls           1733;
        totalTime       6.01277;
        childTime       4.90691;
        onStack         0;
    }

    {
        id              11;
        parentId        1;
        description     "fvMatrix::solve_U";
        calls           145;
        totalTime       1.0193;
        childTime       0.910346;
        onStack         0;
    }

    {
        id              4;
        parentId        1;
        description     "fvMatrix::solve_cellMotionU";
        calls           290;
        totalTime       6.3398;
        childTime       6.09194;
        onStack         0;
    }

    {
        id              15;
        parentId        1;
        description     "fvMatrix::solve_p";
        calls           870;
        totalTime       9.05172;
        childTime       8.85846;
        onStack         0;
    }

    {
        id              19;
        parentId        18;
        description     "lduMatrix::solver_Dx";
        calls           1733;
        totalTime       1.87521;
        childTime       0;
        onStack         0;
    }

    {
        id              20;
        parentId        18;
        description     "lduMatrix::solver_Dy";
        calls           1733;
        totalTime       1.8306;
        childTime       0;
        onStack         0;
    }

    {
        id              21;
        parentId        18;
        description     "lduMatrix::solver_Dz";
        calls           1733;
        totalTime       1.2011;
        childTime       0;
        onStack         0;
    }

    {
        id              12;
        parentId        11;
        description     "lduMatrix::solver_Ux";
        calls           145;
        totalTime       0.312812;
        childTime       0;
        onStack         0;
    }

    {
        id              13;
        parentId        11;
        description     "lduMatrix::solver_Uy";
        calls           145;
        totalTime       0.298875;
        childTime       0;
        onStack         0;
    }

    {
        id              14;
        parentId        11;
        description     "lduMatrix::solver_Uz";
        calls           145;
        totalTime       0.298659;
        childTime       0;
        onStack         0;
    }

    {
        id              5;
        parentId        4;
        description     "lduMatrix::solver_cellMotionUx";
        calls           290;
        totalTime       2.06013;
        childTime       0.014867;
        onStack         0;
    }

    {
        id              7;
        parentId        4;
        description     "lduMatrix::solver_cellMotionUy";
        calls           290;
        totalTime       2.04943;
        childTime       0.013486;
        onStack         0;
    }

    {
        id              9;
        parentId        4;
        description     "lduMatrix::solver_cellMotionUz";
        calls           290;
        totalTime       1.98238;
        childTime       0.012792;
        onStack         0;
    }

    {
        id              6;
        parentId        5;
        description     "lduMatrix::solver_coarsestLevelCorr";
        calls           814;
        totalTime       0.014867;
        childTime       0;
        onStack         0;
    }

    {
        id              8;
        parentId        7;
        description     "lduMatrix::solver_coarsestLevelCorr";
        calls           835;
        totalTime       0.013486;
        childTime       0;
        onStack         0;
    }

    {
        id              10;
        parentId        9;
        description     "lduMatrix::solver_coarsestLevelCorr";
        calls           805;
        totalTime       0.012792;
        childTime       0;
        onStack         0;
    }

    {
        id              17;
        parentId        16;
        description     "lduMatrix::solver_coarsestLevelCorr";
        calls           3683;
        totalTime       0.105419;
        childTime       0;
        onStack         0;
    }

    {
        id              16;
        parentId        15;
        description     "lduMatrix::solver_p";
        calls           870;
        totalTime       8.85846;
        childTime       0.105419;
        onStack         0;
    }
);


// ************************************************************************* //
