/*--------------------------------*- C++ -*----------------------------------*\
| =========                 |                                                 |
| \\      /  F ield         | foam-extend: Open Source CFD                    |
|  \\    /   O peration     | Version:     3.1                                |
|   \\  /    A nd           | Web:         http://www.extend-project.de       |
|    \\/     M anipulation  |                                                 |
\*---------------------------------------------------------------------------*/
FoamFile
{
    version     2.0;
    format      ascii;
    class       volVectorField;
    location    "2.6";
    object      D;
}
// * * * * * * * * * * * * * * * * * * * * * * * * * * * * * * * * * * * * * //

dimensions      [0 1 0 0 0 0 0];

internalField   nonuniform List<vector> 
256
(
(0.000284672 0.000187864 0.00032402)
(0.00012196 3.6173e-05 9.69597e-05)
(0.000108251 -5.62093e-05 -0.000116331)
(0.000241154 -0.000210175 -0.000358771)
(0.00118979 0.000772423 0.000272901)
(0.000989171 0.000205598 9.81261e-05)
(0.000951726 -0.000246535 -0.000158313)
(0.00107039 -0.000813337 -0.000358787)
(0.00233521 0.0011903 0.000198877)
(0.00213464 0.000343271 5.30527e-05)
(0.0020836 -0.00040309 -0.000145348)
(0.00217646 -0.00125631 -0.000318018)
(0.00369588 0.00150985 8.8923e-05)
(0.00351583 0.000440626 6.06074e-06)
(0.0034559 -0.000538392 -0.000124094)
(0.00350931 -0.0016158 -0.00023509)
(0.00519406 0.00172215 -2.24951e-05)
(0.00503315 0.000497006 -4.05213e-05)
(0.00496739 -0.000649524 -9.92073e-05)
(0.00498877 -0.00188119 -0.00014515)
(0.00675842 0.00184817 -0.0001229)
(0.00661504 0.000520402 -8.28209e-05)
(0.00654584 -0.000739456 -7.7512e-05)
(0.00654239 -0.00206881 -6.27845e-05)
(0.00833289 0.00190881 -0.0002039)
(0.00820165 0.000519259 -0.000120957)
(0.00812988 -0.000810257 -6.32739e-05)
(0.00811088 -0.00219347 8.27929e-07)
(0.00988856 0.00192559 -0.000265177)
(0.00975158 0.000504325 -0.000156565)
(0.00967305 -0.000863897 -5.84388e-05)
(0.00965163 -0.00227372 3.54917e-05)
(0.000319923 0.00018538 0.000162035)
(0.000162402 3.68714e-05 5.02978e-05)
(0.000148985 -5.1309e-05 -6.80185e-05)
(0.000272569 -0.000198194 -0.000194162)
(0.00126874 0.000765 0.000155381)
(0.00104344 0.000206074 5.02105e-05)
(0.00100875 -0.000237696 -0.000104112)
(0.00115498 -0.000797742 -0.000227478)
(0.00239627 0.00120055 0.00011168)
(0.00219609 0.000350482 2.21976e-05)
(0.0021479 -0.000402939 -0.000104889)
(0.00224321 -0.00125963 -0.000212874)
(0.00372474 0.00152502 3.88141e-05)
(0.00354722 0.000451085 -1.1563e-05)
(0.00348998 -0.000538844 -9.43532e-05)
(0.00354301 -0.00162127 -0.000163771)
(0.00518102 0.00174097 -4.05228e-05)
(0.00502554 0.000510489 -4.62835e-05)
(0.00496206 -0.000647987 -7.96912e-05)
(0.00497935 -0.0018845 -0.000103896)
(0.00670322 0.00186788 -0.000114406)
(0.00656634 0.000535854 -7.89179e-05)
(0.0064991 -0.000733572 -6.6563e-05)
(0.00648979 -0.00206564 -4.74307e-05)
(0.00824008 0.00192754 -0.000175516)
(0.00811675 0.000535345 -0.000108707)
(0.0080471 -0.00079907 -5.93977e-05)
(0.00802074 -0.0021817 -4.63257e-06)
(0.00976825 0.00194227 -0.000220959)
(0.00963942 0.000519724 -0.000135338)
(0.00956329 -0.000848086 -6.18465e-05)
(0.00953485 -0.00225381 1.40925e-05)
(0.000335733 0.000191201 7.94286e-05)
(0.000169101 3.92476e-05 2.38752e-05)
(0.000154084 -5.2051e-05 -4.01224e-05)
(0.000282939 -0.000202977 -0.000104901)
(0.00130382 0.000758142 7.84773e-05)
(0.0010595 0.000205167 2.00463e-05)
(0.00102323 -0.000231332 -6.67659e-05)
(0.0011848 -0.000787187 -0.000136477)
(0.00242734 0.00119071 5.09073e-05)
(0.00221298 0.000350868 8.79577e-07)
(0.00216307 -0.00039467 -7.26633e-05)
(0.00226912 -0.00124263 -0.000133474)
(0.00373852 0.00151423 3.27981e-06)
(0.00355169 0.000453099 -2.31348e-05)
(0.0034925 -0.000527964 -6.93516e-05)
(0.00355105 -0.00159808 -0.00010632)
(0.0051707 0.00173242 -5.07853e-05)
(0.00500911 0.000515075 -4.83691e-05)
(0.00494345 -0.000634293 -6.23038e-05)
(0.00496268 -0.00185698 -6.96294e-05)
(0.00666626 0.00186343 -0.0001029)
(0.00652574 0.000543405 -7.27878e-05)
(0.00645629 -0.000716904 -5.58514e-05)
(0.00644616 -0.00203469 -3.38177e-05)
(0.00817799 0.00192861 -0.000147227)
(0.00805317 0.000545752 -9.56105e-05)
(0.00798143 -0.000779659 -5.40188e-05)
(0.00795196 -0.0021484 -7.54124e-06)
(0.00968695 0.0019498 -0.000180145)
(0.0095584 0.000532658 -0.000116172)
(0.00947966 -0.000826511 -6.09349e-05)
(0.00944507 -0.00221915 -8.60227e-07)
(0.000341182 0.000194528 3.70245e-05)
(0.000167871 4.04538e-05 1.00438e-05)
(0.000151436 -5.24439e-05 -2.35024e-05)
(0.000284225 -0.000205675 -5.56495e-05)
(0.0013157 0.000753805 3.43536e-05)
(0.00105964 0.000204712 4.2322e-06)
(0.0010212 -0.000226326 -4.25105e-05)
(0.00119052 -0.000778631 -7.94751e-05)
(0.00243607 0.00118076 1.50253e-05)
(0.00221121 0.000350535 -9.8206e-06)
(0.00215897 -0.000385477 -4.93341e-05)
(0.00227167 -0.00122413 -8.03613e-05)
(0.00373741 0.00150178 -1.68028e-05)
(0.00354252 0.000453808 -2.70711e-05)
(0.00348097 -0.000515016 -4.96695e-05)
(0.00354378 -0.00157183 -6.56342e-05)
(0.00515532 0.00172059 -5.34509e-05)
(0.00498791 0.000517798 -4.53347e-05)
(0.00491986 -0.000618072 -4.71536e-05)
(0.00494115 -0.00182541 -4.39648e-05)
(0.00663436 0.00185471 -8.97027e-05)
(0.00648989 0.000548849 -6.34148e-05)
(0.00641812 -0.000697951 -4.49373e-05)
(0.00640814 -0.00199981 -2.2312e-05)
(0.00812957 0.00192473 -0.000121431)
(0.0080024 0.000554172 -8.08034e-05)
(0.00792832 -0.000758556 -4.62876e-05)
(0.00789721 -0.00211181 -7.32131e-06)
(0.00962476 0.00195144 -0.0001452)
(0.00949475 0.000544068 -9.68516e-05)
(0.00941283 -0.000803764 -5.48883e-05)
(0.00937425 -0.00218184 -7.59204e-06)
(0.000342624 0.000196031 1.58505e-05)
(0.000165271 4.10994e-05 3.35612e-06)
(0.000147823 -5.25098e-05 -1.35147e-05)
(0.000282663 -0.000206569 -2.86846e-05)
(0.00131753 0.000750967 1.14918e-05)
(0.00105436 0.000204822 -2.71076e-06)
(0.00101411 -0.000222306 -2.66267e-05)
(0.00118731 -0.000771436 -4.49344e-05)
(0.00243431 0.00117402 -2.64734e-06)
(0.0022026 0.000350884 -1.31271e-05)
(0.00214845 -0.000377505 -3.26437e-05)
(0.00226474 -0.00120894 -4.66561e-05)
(0.0037291 0.0014929 -2.41797e-05)
(0.00352851 0.000455018 -2.5443e-05)
(0.00346509 -0.000503449 -3.43837e-05)
(0.00353049 -0.00154987 -3.87069e-05)
(0.00513805 0.00171171 -4.89063e-05)
(0.00496623 0.000520563 -3.84687e-05)
(0.00489639 -0.000603441 -3.4173e-05)
(0.00491912 -0.00179845 -2.618e-05)
(0.00660652 0.00184772 -7.3766e-05)
(0.00645886 0.000553701 -5.15836e-05)
(0.00638538 -0.000680858 -3.42098e-05)
(0.00637572 -0.00196958 -1.35749e-05)
(0.00809057 0.00192089 -9.6041e-05)
(0.00796124 0.000561315 -6.45081e-05)
(0.00788544 -0.000739601 -3.69396e-05)
(0.00785349 -0.00207967 -5.64e-06)
(0.00957532 0.00195126 -0.000112844)
(0.00944372 0.000553527 -7.66762e-05)
(0.00935939 -0.000783366 -4.52208e-05)
(0.00931837 -0.00214872 -9.02352e-06)
(0.000342703 0.000196649 5.88852e-06)
(0.000163024 4.14618e-05 5.33254e-07)
(0.000144895 -5.24223e-05 -7.47006e-06)
(0.000280665 -0.000206624 -1.41196e-05)
(0.00131584 0.000749165 1.35907e-06)
(0.00104846 0.000205212 -4.55323e-06)
(0.00100693 -0.000219255 -1.59689e-05)
(0.00118199 -0.000765833 -2.42702e-05)
(0.00242914 0.00116997 -8.58483e-06)
(0.00219318 0.000351701 -1.18635e-05)
(0.00213767 -0.000371368 -2.04898e-05)
(0.00225583 -0.00119771 -2.57482e-05)
(0.00371928 0.00148756 -2.26847e-05)
(0.00351496 0.000456605 -2.02219e-05)
(0.00345022 -0.00049445 -2.23756e-05)
(0.00351709 -0.00153364 -2.15354e-05)
(0.00512234 0.00170629 -3.87313e-05)
(0.00494752 0.000523319 -2.90302e-05)
(0.00487647 -0.00059198 -2.30443e-05)
(0.00490008 -0.0017783 -1.45361e-05)
(0.00658392 0.00184334 -5.50139e-05)
(0.00643397 0.000557923 -3.80012e-05)
(0.00635937 -0.000667414 -2.39382e-05)
(0.00634998 -0.00194665 -7.53699e-06)
(0.00806036 0.00191834 -6.98494e-05)
(0.0079294 0.000567103 -4.69958e-05)
(0.00785247 -0.000724655 -2.67275e-05)
(0.0078201 -0.00205493 -3.67748e-06)
(0.00953743 0.00195085 -8.111e-05)
(0.00940447 0.000560899 -5.55816e-05)
(0.00931856 -0.000767243 -3.33818e-05)
(0.00927621 -0.00212289 -7.57427e-06)
(0.000342459 0.000196865 1.72635e-06)
(0.000161518 4.16607e-05 -2.93983e-07)
(0.000142968 -5.23049e-05 -3.70301e-06)
(0.000279105 -0.000206419 -6.28456e-06)
(0.00131368 0.000748097 -1.57399e-06)
(0.00104395 0.000205613 -3.62158e-06)
(0.0010016 -0.000217205 -8.4629e-06)
(0.0011775 -0.000762016 -1.17524e-05)
(0.00242431 0.00116777 -7.54581e-06)
(0.00218588 0.000352527 -7.98662e-06)
(0.0021295 -0.00036724 -1.12298e-05)
(0.00224859 -0.00119034 -1.26725e-05)
(0.00371131 0.00148469 -1.56047e-05)
(0.00350476 0.000458031 -1.28658e-05)
(0.00343921 -0.00048838 -1.25818e-05)
(0.00350684 -0.00152306 -1.06296e-05)
(0.00511068 0.0017034 -2.46992e-05)
(0.00493401 0.000525539 -1.79911e-05)
(0.00486222 -0.000584225 -1.32796e-05)
(0.00488633 -0.00176509 -7.10967e-06)
(0.00656798 0.001841 -3.3971e-05)
(0.00641659 0.000561073 -2.32475e-05)
(0.00634131 -0.000658288 -1.41398e-05)
(0.0063321 -0.00193148 -3.63302e-06)
(0.00803958 0.00191696 -4.25059e-05)
(0.00790754 0.000571211 -2.85723e-05)
(0.00782994 -0.000714485 -1.61286e-05)
(0.0077974 -0.00203841 -1.98101e-06)
(0.00951156 0.0019506 -4.90106e-05)
(0.00937763 0.00056597 -3.36933e-05)
(0.00929079 -0.000756244 -2.03837e-05)
(0.00924778 -0.00210547 -4.84573e-06)
(0.000342268 0.000196923 3.07616e-07)
(0.000160779 4.17497e-05 -1.88202e-07)
(0.000142029 -5.22298e-05 -1.11322e-06)
(0.000278281 -0.000206253 -1.76307e-06)
(0.00131235 0.000747598 -8.89008e-07)
(0.00104157 0.000205852 -1.34047e-06)
(0.000998837 -0.000216175 -2.64388e-06)
(0.00117504 -0.000760088 -3.47923e-06)
(0.00242153 0.0011668 -2.88584e-06)
(0.00218199 0.000353023 -2.79443e-06)
(0.00212519 -0.000365171 -3.57225e-06)
(0.00224465 -0.00118669 -3.78604e-06)
(0.00370694 0.00148347 -5.51533e-06)
(0.00349936 0.000458856 -4.40183e-06)
(0.00343342 -0.000485335 -4.05648e-06)
(0.00350137 -0.00151785 -3.17692e-06)
(0.00510451 0.00170217 -8.4687e-06)
(0.00492697 0.000526769 -6.08748e-06)
(0.00485483 -0.000580329 -4.33556e-06)
(0.00487915 -0.00175858 -2.10752e-06)
(0.00655972 0.00184001 -1.14856e-05)
(0.00640764 0.000562754 -7.82173e-06)
(0.00633206 -0.000653695 -4.67389e-06)
(0.00632293 -0.00192397 -1.06117e-06)
(0.00802895 0.00191636 -1.42764e-05)
(0.00789638 0.000573347 -9.58679e-06)
(0.00781848 -0.000709356 -5.387e-06)
(0.00778588 -0.00203017 -6.14764e-07)
(0.00949834 0.00195044 -1.64075e-05)
(0.00936396 0.000568566 -1.12894e-05)
(0.0092767 -0.000750683 -6.84572e-06)
(0.00923342 -0.00209674 -1.65087e-06)
)
;

boundaryField
{
    interface
    {
        type            tractionDisplacement;
        gradient        nonuniform List<vector> 
192
(
(0.0268845 0.0368372 0.000876996)
(0.0127938 0.036692 0.00205567)
(0.0141676 0.0483568 0.000989329)
(0.0115617 0.0549646 -0.000955703)
(0.00973932 0.0595981 -0.00299526)
(0.00803171 0.0617449 -0.00492028)
(0.00701889 0.0623182 -0.00645572)
(0.00651462 0.0629571 -0.00730599)
(0.0273433 0.0392639 0.000594541)
(0.0147722 0.0367542 0.00152114)
(0.0143054 0.0469676 0.0010604)
(0.0118897 0.0533754 -7.58155e-05)
(0.00993097 0.0578792 -0.00138726)
(0.00827011 0.0602218 -0.00272893)
(0.00727265 0.0611636 -0.0038912)
(0.00674805 0.0624949 -0.00464203)
(0.0284336 0.0407074 0.000183534)
(0.0154185 0.0369194 0.000537047)
(0.0147705 0.0462646 0.000303)
(0.0121103 0.052406 -0.000293339)
(0.00994904 0.056763 -0.00110474)
(0.00816922 0.0591628 -0.00197584)
(0.00711207 0.060294 -0.00278158)
(0.00644114 0.062038 -0.003369)
(0.0291182 0.0413685 -1.8763e-05)
(0.015929 0.0369453 3.56393e-05)
(0.0152541 0.0459271 -0.000152974)
(0.012457 0.051815 -0.000513251)
(0.0101553 0.0560584 -0.00100689)
(0.00826662 0.0584532 -0.0015618)
(0.00713763 0.0596703 -0.00210812)
(0.00637419 0.0616323 -0.00255416)
(0.0294748 0.0416297 -9.20505e-05)
(0.0162643 0.0368959 -0.000167108)
(0.0155989 0.0457074 -0.000336172)
(0.0127393 0.0514547 -0.000579929)
(0.0103576 0.0556173 -0.000894072)
(0.00839476 0.0579872 -0.0012535)
(0.00721151 0.0592304 -0.00162755)
(0.00637741 0.0612958 -0.00196337)
(0.0296471 0.0417088 -9.55105e-05)
(0.0164685 0.0368182 -0.000197686)
(0.0158225 0.045548 -0.000334004)
(0.0129374 0.0512247 -0.00050101)
(0.0105133 0.0553384 -0.000702268)
(0.00850726 0.0576829 -0.000932246)
(0.00729054 0.0589247 -0.00117966)
(0.00641865 0.061035 -0.00141414)
(0.0297238 0.0417191 -6.60661e-05)
(0.0165813 0.0367489 -0.000142972)
(0.0159527 0.0454393 -0.000231171)
(0.0130579 0.0510829 -0.000331052)
(0.010613 0.0551701 -0.000446169)
(0.0085841 0.0574961 -0.000576838)
(0.00734888 0.0587297 -0.000719756)
(0.00645746 0.0608581 -0.00085899)
(0.0297516 0.0417138 -2.30928e-05)
(0.0166303 0.0367098 -5.09632e-05)
(0.0160111 0.0453837 -8.13746e-05)
(0.0131134 0.0510141 -0.000114813)
(0.0106601 0.0550899 -0.000152563)
(0.00862142 0.0574066 -0.000195258)
(0.00737753 0.0586349 -0.000242212)
(0.00647698 0.0607671 -0.000288398)
(-0.00217649 0.0133721 0.0144978)
(-0.00424615 -0.00377048 0.00224532)
(-0.0022292 -0.00325237 0.00365761)
(-5.83419e-05 -0.00454847 0.0017919)
(0.0025211 -0.00438886 0.000746176)
(0.0048512 -0.00388068 -0.000259348)
(0.00670338 -0.00314487 -0.000892856)
(0.00803813 -0.00196545 -0.00166342)
(-0.0051547 0.00500436 0.00324467)
(-0.00922753 -0.00141402 0.000729002)
(-0.00659979 -0.00114249 0.000534456)
(-0.00385511 -0.00156843 -3.8144e-05)
(-0.000786883 -0.00161459 -0.000396598)
(0.00195665 -0.0015956 -0.000701208)
(0.00423658 -0.00156156 -0.000920281)
(0.00606284 -0.00124794 -0.00142211)
(-0.00552771 -0.00664046 -0.00396194)
(-0.00969196 0.00109732 -0.00087835)
(-0.00719008 0.0010931 -0.00120433)
(-0.00441978 0.00154587 -0.000917599)
(-0.00135621 0.0013082 -0.000721033)
(0.00142538 0.00087873 -0.000485142)
(0.00378561 0.000320977 -0.000274021)
(0.00560134 -0.000260312 0.000157038)
(-0.00352863 -0.0168074 -0.0142484)
(-0.00580455 0.00278221 -0.00251403)
(-0.00430613 0.00281953 -0.00425934)
(-0.00217391 0.00424836 -0.00265306)
(0.000352155 0.00393036 -0.00175277)
(0.00272938 0.00318657 -0.000811704)
(0.00472932 0.00206486 -9.3949e-05)
(0.00613087 0.000509415 0.000673279)
(0.022285 -0.0356754 -0.00172187)
(0.00900375 -0.0363471 -0.00377895)
(0.0087805 -0.0491526 -0.00335874)
(0.00530446 -0.0558862 -0.00159772)
(0.00286929 -0.0603831 0.000436032)
(0.000904488 -0.0621783 0.00251373)
(-0.000238505 -0.0621667 0.00432786)
(-0.000446237 -0.0612465 0.00559001)
(0.0219195 -0.0385913 -0.00100227)
(0.0107007 -0.0371342 -0.00221117)
(0.00869166 -0.0479173 -0.00197087)
(0.00538439 -0.0543618 -0.00085561)
(0.00280949 -0.0586125 0.000509941)
(0.000845167 -0.0605111 0.0019582)
(-0.000339326 -0.0607771 0.00326876)
(-0.000499799 -0.0603522 0.00433065)
(0.0226825 -0.0400551 -0.00043381)
(0.0112954 -0.0375005 -0.000890502)
(0.00921429 -0.0472699 -0.000731675)
(0.00571836 -0.0533895 -0.000126281)
(0.00295416 -0.0574327 0.000734115)
(0.000845388 -0.0593348 0.0016827)
(-0.000462292 -0.0597187 0.0026082)
(-0.000810017 -0.059446 0.00345316)
(0.023138 -0.0405846 -0.00013852)
(0.0117282 -0.0375599 -0.000227362)
(0.0096364 -0.0469537 -5.67819e-05)
(0.00603278 -0.0527946 0.000324316)
(0.0031338 -0.0566881 0.000857286)
(0.000904778 -0.0585401 0.00146869)
(-0.000515234 -0.0589331 0.00210336)
(-0.00097937 -0.0586772 0.00273395)
(0.0233345 -0.0406739 -1.00429e-05)
(0.0119967 -0.0374893 5.23701e-05)
(0.00990682 -0.0467272 0.000220882)
(0.0062493 -0.0524239 0.000484807)
(0.00327308 -0.0562165 0.000828049)
(0.000962488 -0.0580104 0.00122593)
(-0.000538149 -0.0583712 0.00165731)
(-0.00107659 -0.0580778 0.00211447)
(0.0233979 -0.0406008 3.16693e-05)
(0.012149 -0.0373798 0.000129426)
(0.0100663 -0.0465515 0.00026938)
(0.00638295 -0.0521811 0.000451816)
(0.00336432 -0.0559141 0.000672748)
(0.00100587 -0.0576615 0.000926582)
(-0.000544233 -0.0579835 0.00120788)
(-0.00111919 -0.0576426 0.0015169)
(0.0234066 -0.0405028 3.13674e-05)
(0.0122276 -0.0372843 0.000107018)
(0.0101526 -0.0464278 0.000198345)
(0.00645806 -0.052028 0.000307619)
(0.00341772 -0.0557296 0.000433849)
(0.0010335 -0.0574466 0.00057711)
(-0.000543721 -0.057739 0.000737452)
(-0.0011351 -0.0573609 0.000916381)
(0.0234023 -0.040442 1.22491e-05)
(0.0122603 -0.0372309 3.99204e-05)
(0.01019 -0.0463636 7.15114e-05)
(0.00649145 -0.051953 0.000108081)
(0.00344192 -0.0556411 0.000149376)
(0.0010467 -0.0573434 0.00019592)
(-0.000542095 -0.0576205 0.000248225)
(-0.00113998 -0.0572226 0.00030684)
(0.0627644 0.000211156 -0.00126047)
(0.0624756 3.76028e-05 -0.000593153)
(0.0621756 0.000386536 -0.000408793)
(0.0618493 0.000599003 -0.000219479)
(0.0615376 0.000759083 -0.000131205)
(0.0612848 0.000853027 -8.05647e-05)
(0.0611092 0.000904239 -4.62388e-05)
(0.0610181 0.000922941 -1.52223e-05)
(0.0583126 0.000258934 -0.000711691)
(0.058125 0.0001428 -0.000508084)
(0.057831 0.00025348 -0.000495033)
(0.0574733 0.00037852 -0.000416499)
(0.0571035 0.000490309 -0.000333167)
(0.0567952 0.000570078 -0.00024228)
(0.0565806 0.000620332 -0.000147066)
(0.056473 0.000645025 -4.91407e-05)
(0.0576075 -0.00187283 -0.000203401)
(0.0573392 -0.00166791 -0.000593102)
(0.0568834 -0.00160221 -0.000753473)
(0.0564004 -0.00153695 -0.000760604)
(0.0559528 -0.00147521 -0.000651546)
(0.0555954 -0.00142222 -0.000486536)
(0.0553519 -0.00138401 -0.000297358)
(0.0552296 -0.00136336 -9.97115e-05)
(0.0601954 -0.0025547 5.4902e-05)
(0.0595749 -0.00221068 -0.000961655)
(0.0588255 -0.00228974 -0.00124394)
(0.0581449 -0.00231288 -0.00124991)
(0.0575817 -0.00231166 -0.00105965)
(0.0571605 -0.00228785 -0.000784874)
(0.0568831 -0.00226234 -0.000477059)
(0.0567454 -0.00224665 -0.000159676)
)
;
        traction        nonuniform List<vector> 
192
(
(23.9784 -0.870708 -2.25943)
(24.3174 -0.92134 -3.873)
(24.4157 -1.18083 -4.58355)
(24.6456 -1.17799 -4.92507)
(25.0038 -0.949513 -5.0545)
(25.4027 -0.423076 -4.99861)
(25.6414 0.581286 -4.71209)
(24.482 2.24427 -4.04498)
(26.7657 -1.20456 -1.5835)
(27.3885 -1.2499 -2.72814)
(28.1521 -1.53922 -3.22931)
(28.96 -1.51575 -3.45701)
(29.6606 -1.20366 -3.51852)
(30.068 -0.513037 -3.43242)
(29.7055 0.794652 -3.17558)
(26.4961 2.83679 -2.69347)
(28.5471 -1.35892 -1.10812)
(29.1122 -1.37734 -1.90255)
(29.987 -1.67079 -2.22687)
(30.9235 -1.62563 -2.35762)
(31.6735 -1.251 -2.37443)
(31.9653 -0.449492 -2.29605)
(31.1682 1.03001 -2.11751)
(26.9239 3.21871 -1.82423)
(29.8184 -1.4355 -0.79474)
(30.3127 -1.42796 -1.36636)
(31.1843 -1.72238 -1.58975)
(32.1366 -1.65849 -1.67111)
(32.864 -1.2407 -1.67308)
(33.0407 -0.366963 -1.61355)
(31.954 1.21584 -1.49565)
(27.0911 3.47699 -1.30961)
(30.7323 -1.47742 -0.563545)
(31.1803 -1.44873 -0.972198)
(32.026 -1.74074 -1.12879)
(32.9759 -1.66392 -1.18261)
(33.6645 -1.21702 -1.18079)
(33.7507 -0.296332 -1.13952)
(32.4697 1.35322 -1.0635)
(27.1927 3.65913 -0.942107)
(31.3683 -1.50149 -0.377999)
(31.7891 -1.45693 -0.654345)
(32.6072 -1.74573 -0.759645)
(33.5596 -1.66057 -0.794656)
(34.2108 -1.19412 -0.792819)
(34.2321 -0.243303 -0.766376)
(32.8227 1.44997 -0.719105)
(27.2672 3.78492 -0.641469)
(31.7734 -1.51555 -0.216673)
(32.1818 -1.46061 -0.376289)
(32.9856 -1.74624 -0.436905)
(33.9295 -1.65536 -0.45627)
(34.559 -1.17761 -0.455304)
(34.5398 -0.208203 -0.440665)
(33.0508 1.51234 -0.413466)
(27.3224 3.8629 -0.367157)
(31.9628 -1.52117 -0.0699128)
(32.3651 -1.46077 -0.121715)
(33.1593 -1.74446 -0.141213)
(34.0956 -1.65108 -0.147303)
(34.7148 -1.16822 -0.146991)
(34.677 -0.18864 -0.142301)
(33.14 1.54759 -0.132864)
(27.3115 3.89789 -0.116263)
(2.79592 0.44729 11.8536)
(4.86045 0.909878 8.69506)
(5.83964 0.878713 5.80129)
(6.44035 0.735652 3.76159)
(6.8736 0.651417 2.55621)
(7.23715 0.717053 2.07665)
(7.66608 0.945264 2.24517)
(8.56508 1.20976 3.05763)
(1.87719 0.445006 10.541)
(3.42111 0.889258 9.21891)
(4.03473 0.991575 7.50021)
(4.33912 0.844632 6.15235)
(4.55085 0.637867 5.32968)
(4.78392 0.493821 4.99182)
(5.19564 0.450241 5.03773)
(6.33684 0.397767 5.1658)
(1.48812 0.400883 9.56832)
(2.89769 0.710369 9.09341)
(3.49052 0.88704 8.00556)
(3.75395 0.775442 7.04768)
(3.91077 0.55003 6.45654)
(4.09892 0.336111 6.22279)
(4.48543 0.183657 6.28106)
(5.60882 0.0413732 6.40346)
(1.40431 0.427462 8.34104)
(2.86973 0.646484 8.12236)
(3.57221 0.836729 7.21294)
(3.89095 0.731868 6.36581)
(4.0634 0.49808 5.83016)
(4.24965 0.250022 5.58288)
(4.61962 0.00954181 5.54984)
(5.66485 -0.285848 5.71544)
(-5.00426 0.48971 0.312437)
(-3.88678 0.78206 0.5516)
(-2.69007 0.947509 0.584731)
(-1.76352 0.866729 0.58009)
(-1.07647 0.676014 0.636701)
(-0.430616 0.457591 0.792481)
(0.580006 0.109538 1.06)
(3.13157 -1.15697 1.40224)
(-5.69036 0.366088 -0.100568)
(-5.40198 0.550181 -0.159937)
(-4.86901 0.719075 -0.223063)
(-4.3227 0.732275 -0.257651)
(-3.81169 0.668098 -0.223263)
(-3.23986 0.585411 -0.11131)
(-2.21249 0.393107 0.0647339)
(0.633995 -0.764493 0.311185)
(-6.05871 0.31616 -0.168322)
(-5.97158 0.430333 -0.259619)
(-5.64922 0.592264 -0.288604)
(-5.22737 0.663766 -0.28156)
(-4.75065 0.688255 -0.226397)
(-4.13651 0.694597 -0.121946)
(-3.07701 0.593578 0.00514647)
(-0.273751 -0.419132 0.132287)
(-6.32643 0.302063 -0.15378)
(-6.28968 0.378702 -0.2309)
(-6.04359 0.537118 -0.232036)
(-5.67257 0.648552 -0.199489)
(-5.20112 0.739657 -0.13604)
(-4.51524 0.812015 -0.0464376)
(-3.36655 0.758634 0.0450498)
(-0.653865 -0.161195 0.106596)
(-6.51972 0.300509 -0.115799)
(-6.49396 0.361728 -0.169942)
(-6.27568 0.523457 -0.156607)
(-5.91655 0.663362 -0.115771)
(-5.42705 0.798201 -0.0573661)
(-4.69186 0.912315 0.0097685)
(-3.48803 0.886079 0.0660638)
(-0.862374 0.0236586 0.0919281)
(-6.6446 0.303253 -0.07543)
(-6.61633 0.360997 -0.107845)
(-6.40372 0.529137 -0.09073)
(-6.04262 0.688341 -0.0541892)
(-5.53512 0.849575 -0.0089337)
(-4.76513 0.986514 0.0358915)
(-3.53801 0.973941 0.0668035)
(-0.975459 0.14554 0.0728681)
(-6.71631 0.306437 -0.0409874)
(-6.68304 0.365345 -0.0571489)
(-6.46848 0.539574 -0.0441877)
(-6.10246 0.710759 -0.0199141)
(-5.57901 0.885894 0.00795047)
(-4.79107 1.03402 0.0331046)
(-3.55669 1.02708 0.0480148)
(-1.03507 0.217793 0.0453395)
(-6.74741 0.308357 -0.0127891)
(-6.71041 0.368512 -0.017545)
(-6.49402 0.546041 -0.012899)
(-6.12739 0.722923 -0.00457851)
(-5.59741 0.904331 0.00460399)
(-4.80011 1.0572 0.0127046)
(-3.56153 1.05084 0.017131)
(-1.07258 0.251422 0.0146931)
(8.87858 -3.06564 -1.84163)
(8.39548 -1.4397 -1.50907)
(8.39153 -0.165534 -1.15763)
(8.49156 0.827599 -0.88375)
(8.60139 1.56348 -0.661979)
(8.69498 2.08351 -0.467311)
(8.762 2.40441 -0.287632)
(8.7914 2.49522 -0.100245)
(6.43872 -4.57465 -0.476454)
(5.49389 -3.75635 -0.428743)
(5.26495 -2.86973 -0.311113)
(5.21123 -2.1393 -0.232318)
(5.20702 -1.60145 -0.177493)
(5.21803 -1.22324 -0.128245)
(5.23434 -0.976785 -0.0781632)
(5.25332 -0.83697 -0.0261788)
(5.4943 -5.7006 0.113728)
(4.41579 -5.14581 0.0407351)
(4.06741 -4.47759 0.040903)
(3.92097 -3.94469 0.0294208)
(3.84776 -3.55998 0.0145756)
(3.80831 -3.29356 0.00514725)
(3.7877 -3.12379 0.00259622)
(3.77877 -3.02845 0.0015575)
(5.38669 -5.21383 0.50549)
(4.32241 -4.73173 0.273454)
(3.91985 -4.31553 0.17438)
(3.72159 -3.96769 0.119293)
(3.60643 -3.71461 0.0787914)
(3.53597 -3.5413 0.0487796)
(3.49441 -3.43348 0.0262989)
(3.47246 -3.38227 0.00831348)
)
;
        pressure        uniform 0;
        value           nonuniform List<vector> 
192
(
(0.000620728 0.000648328 0.000334982)
(0.00134971 0.00123107 0.000298597)
(0.0025123 0.00179476 0.000211244)
(0.00384041 0.00219691 7.69767e-05)
(0.0053158 0.00246712 -5.99359e-05)
(0.00685882 0.00261998 -0.000184404)
(0.00842062 0.00268779 -0.000284597)
(0.00996999 0.00271256 -0.000356502)
(0.000661714 0.000676179 0.000169466)
(0.00145339 0.00122443 0.000174396)
(0.00257509 0.00178764 0.000124935)
(0.00387336 0.00219222 3.78664e-05)
(0.00530516 0.00246446 -5.78635e-05)
(0.00680659 0.00262066 -0.000148518)
(0.00833098 0.00269209 -0.000224156)
(0.0098526 0.00272346 -0.000278985)
(0.000691153 0.000700044 8.17228e-05)
(0.00149655 0.00121963 8.51903e-05)
(0.00261198 0.00176902 5.46948e-05)
(0.0038899 0.00216931 -3.86922e-07)
(0.00529506 0.00244195 -6.45946e-05)
(0.00676838 0.00260297 -0.000127598)
(0.00826689 0.00268228 -0.000181997)
(0.00976746 0.00272528 -0.000222257)
(0.000705159 0.000711634 3.67899e-05)
(0.00151481 0.00121562 3.47991e-05)
(0.00262674 0.00175485 1.31131e-05)
(0.00389312 0.00214947 -2.32185e-05)
(0.00528226 0.00242132 -6.60369e-05)
(0.00673769 0.00258538 -0.000109225)
(0.00821879 0.0026706 -0.000147783)
(0.00970444 0.00272184 -0.000177127)
(0.000711058 0.000716402 1.46999e-05)
(0.00152083 0.00121217 9.40297e-06)
(0.00262929 0.00174536 -6.84948e-06)
(0.00388835 0.00213608 -3.14288e-05)
(0.00526752 0.00240693 -6.00822e-05)
(0.00671146 0.00257256 -8.94347e-05)
(0.00818071 0.00266127 -0.000116385)
(0.00965504 0.00271746 -0.000137387)
(0.000713293 0.000718008 4.69463e-06)
(0.00152169 0.00120939 -1.11202e-06)
(0.00262693 0.00173932 -1.27599e-05)
(0.003881 0.00212786 -2.89473e-05)
(0.00525376 0.00239802 -4.75097e-05)
(0.00669026 0.00256437 -6.66669e-05)
(0.00815149 0.0026549 -8.45951e-05)
(0.00961767 0.00271378 -9.87868e-05)
(0.000714007 0.000718353 9.00522e-07)
(0.00152094 0.00120746 -3.36114e-06)
(0.00262372 0.00173576 -1.04355e-05)
(0.00387453 0.00212323 -1.97429e-05)
(0.00524335 0.00239302 -3.02764e-05)
(0.00667528 0.0025597 -4.11815e-05)
(0.00813144 0.00265108 -5.15029e-05)
(0.00959227 0.00271132 -5.9748e-05)
(0.000714163 0.000718346 1.89558e-08)
(0.00152022 0.00120647 -1.52605e-06)
(0.00262167 0.0017341 -3.90303e-06)
(0.00387085 0.00212115 -6.95049e-06)
(0.00523776 0.0023908 -1.03757e-05)
(0.00666749 0.00255759 -1.39263e-05)
(0.00812116 0.00264929 -1.73041e-05)
(0.0095793 0.00271003 -2.00125e-05)
(0.000257466 0.000355015 0.000505242)
(0.00113671 0.000725292 0.000300967)
(0.00230734 0.00114965 0.000244597)
(0.00369516 0.00145299 0.000111322)
(0.00522557 0.00166729 -1.31679e-05)
(0.00681906 0.00179966 -0.000126142)
(0.00841668 0.0018695 -0.000215061)
(0.00998904 0.00190103 -0.00028597)
(5.75265e-05 9.87275e-05 0.000137518)
(0.000873827 0.000187922 0.000107239)
(0.00205215 0.00032899 5.97334e-05)
(0.00346765 0.000421021 5.58394e-06)
(0.00502332 0.000476823 -4.54788e-05)
(0.0066395 0.000500457 -9.1586e-05)
(0.00825461 0.00049974 -0.000132461)
(0.00982737 0.000488726 -0.000174341)
(3.91551e-05 -0.000139215 -0.000165855)
(0.000830576 -0.000232819 -0.000169293)
(0.00199372 -0.000389427 -0.000160402)
(0.00340065 -0.000519069 -0.000135564)
(0.00495044 -0.000633171 -0.00010822)
(0.00656365 -0.000728472 -8.35763e-05)
(0.0081772 -0.000806245 -6.66991e-05)
(0.00974307 -0.000867151 -5.64759e-05)
(0.000197046 -0.000420268 -0.000536875)
(0.000997834 -0.00077856 -0.000390212)
(0.00212264 -0.00122107 -0.00037126)
(0.00348213 -0.0015627 -0.000268253)
(0.00499318 -0.00183206 -0.00016706)
(0.0065765 -0.00202898 -7.29308e-05)
(0.00817 -0.00216765 -3.46433e-07)
(0.00972826 -0.00226735 4.39077e-05)
(0.000519716 -0.000656117 -0.000380294)
(0.00118294 -0.00126768 -0.000406024)
(0.00228622 -0.00187072 -0.000360002)
(0.00357561 -0.00231438 -0.000255061)
(0.00502464 -0.00263598 -0.0001397)
(0.00655369 -0.00284604 -3.13628e-05)
(0.0081079 -0.00297055 5.49262e-05)
(0.00964605 -0.0030393 0.000105367)
(0.000546562 -0.000680585 -0.00020669)
(0.00128874 -0.00126192 -0.000255118)
(0.00235185 -0.0018586 -0.00023751)
(0.00361031 -0.00230079 -0.000174466)
(0.00501447 -0.00261716 -9.75218e-05)
(0.00650035 -0.00282202 -2.29531e-05)
(0.0080165 -0.00294141 3.62269e-05)
(0.0095286 -0.00300821 6.82257e-05)
(0.000566471 -0.000703665 -0.000110323)
(0.00132599 -0.00125594 -0.000147608)
(0.0023843 -0.0018335 -0.00014262)
(0.00362253 -0.00226545 -0.000107898)
(0.0049996 -0.00257489 -6.0453e-05)
(0.00645673 -0.00277637 -1.2784e-05)
(0.00794618 -0.00289488 2.50612e-05)
(0.00943495 -0.00296223 4.23043e-05)
(0.00057345 -0.000712983 -5.7381e-05)
(0.00133712 -0.00124813 -8.23171e-05)
(0.00239213 -0.00181105 -8.10711e-05)
(0.00361919 -0.00223177 -6.15803e-05)
(0.00498032 -0.00253401 -3.32487e-05)
(0.00641945 -0.00273157 -3.95333e-06)
(0.00789077 -0.00284847 1.89706e-05)
(0.00936201 -0.00291531 2.65824e-05)
(0.000574344 -0.000714992 -2.88101e-05)
(0.00133727 -0.00124005 -4.42798e-05)
(0.00238858 -0.00179303 -4.38951e-05)
(0.00360861 -0.00220517 -3.26468e-05)
(0.00496003 -0.00250116 -1.58294e-05)
(0.00638775 -0.00269471 1.74921e-06)
(0.00784676 -0.00280931 1.50764e-05)
(0.00930491 -0.00287469 1.74074e-05)
(0.000573138 -0.000714134 -1.37237e-05)
(0.00133385 -0.00123308 -2.26524e-05)
(0.00238166 -0.0017796 -2.2381e-05)
(0.00359688 -0.0021859 -1.58877e-05)
(0.00494214 -0.00247722 -6.12678e-06)
(0.00636256 -0.00266741 4.04528e-06)
(0.0078133 -0.00277973 1.1421e-05)
(0.00926222 -0.00284342 1.1387e-05)
(0.000571687 -0.000712704 -5.89247e-06)
(0.00133034 -0.00122807 -1.04146e-05)
(0.0023755 -0.00177068 -1.01932e-05)
(0.00358756 -0.00217341 -6.78439e-06)
(0.00492905 -0.00246171 -1.68656e-06)
(0.00634502 -0.00264956 3.58086e-06)
(0.00779061 -0.00276014 7.23714e-06)
(0.00923359 -0.00282248 6.60904e-06)
(0.00057081 -0.000711777 -1.60996e-06)
(0.0013283 -0.00122547 -2.98023e-06)
(0.00237203 -0.00176624 -2.89214e-06)
(0.00358251 -0.00216726 -1.8259e-06)
(0.00492217 -0.0024541 -2.4032e-07)
(0.00633602 -0.00264076 1.38784e-06)
(0.00777911 -0.00275043 2.48805e-06)
(0.00921917 -0.00281203 2.18462e-06)
(0.0106731 0.00192823 -0.000280933)
(0.0105492 0.00194274 -0.000228374)
(0.0104641 0.00195464 -0.000185255)
(0.0103979 0.00195893 -0.000147943)
(0.0103445 0.00196075 -0.000114484)
(0.0103035 0.00196151 -8.2117e-05)
(0.0102754 0.0019619 -4.95886e-05)
(0.0102611 0.00196198 -1.65978e-05)
(0.0104805 0.000507562 -0.000165461)
(0.010366 0.000521509 -0.000141689)
(0.0102813 0.000535827 -0.00012236)
(0.0102132 0.0005488 -0.000102058)
(0.0101575 0.000559656 -8.08408e-05)
(0.0101144 0.000568025 -5.86101e-05)
(0.0100849 0.000573724 -3.55317e-05)
(0.0100699 0.000576628 -1.19036e-05)
(0.0103931 -0.000887307 -6.09814e-05)
(0.01028 -0.000868935 -6.92603e-05)
(0.0101907 -0.000846539 -7.03533e-05)
(0.0101178 -0.000822976 -6.43958e-05)
(0.0100588 -0.000801806 -5.33651e-05)
(0.0100135 -0.00078502 -3.94635e-05)
(0.00998269 -0.000773544 -2.41006e-05)
(0.00996707 -0.000767725 -8.09212e-06)
(0.0104041 -0.00230565 3.61779e-05)