/*--------------------------------*- C++ -*----------------------------------*\
| =========                 |                                                 |
| \\      /  F ield         | foam-extend: Open Source CFD                    |
|  \\    /   O peration     | Version:     3.1                                |
|   \\  /    A nd           | Web:         http://www.extend-project.de       |
|    \\/     M anipulation  |                                                 |
\*---------------------------------------------------------------------------*/
FoamFile
{
    version     2.0;
    format      ascii;
    class       volVectorField;
    location    "2.6";
    object      D_0;
}
// * * * * * * * * * * * * * * * * * * * * * * * * * * * * * * * * * * * * * //

dimensions      [0 1 0 0 0 0 0];

internalField   nonuniform List<vector> 
256
(
(0.000279587 0.000183298 0.000316465)
(0.000120764 3.50936e-05 9.5071e-05)
(0.000107161 -5.48445e-05 -0.000112627)
(0.000236291 -0.000204891 -0.000348658)
(0.0011655 0.000753681 0.000264899)
(0.000969504 0.000200562 9.60869e-05)
(0.000932683 -0.00023988 -0.00015273)
(0.00104821 -0.000792329 -0.000347047)
(0.00228417 0.00116103 0.000191676)
(0.00208836 0.000335241 5.18241e-05)
(0.00203837 -0.000391714 -0.000139681)
(0.00212887 -0.00122295 -0.000306201)
(0.003611 0.00147257 8.40163e-05)
(0.00343548 0.000430865 5.96784e-06)
(0.00337702 -0.000522448 -0.000118578)
(0.00342924 -0.00157166 -0.000224529)
(0.0050703 0.00167967 -2.44783e-05)
(0.00491377 0.000486718 -3.9194e-05)
(0.00484988 -0.000629371 -9.38767e-05)
(0.00487105 -0.00182832 -0.000136174)
(0.00659289 0.00180286 -0.000121831)
(0.00645373 0.000510543 -7.99547e-05)
(0.00638672 -0.000715523 -7.22297e-05)
(0.00638388 -0.00200912 -5.52782e-05)
(0.00812458 0.00186256 -0.000200072)
(0.00799744 0.000510515 -0.000116532)
(0.0079281 -0.000783064 -5.78408e-05)
(0.00791029 -0.0021287 7.2855e-06)
(0.00963769 0.00187972 -0.000258949)
(0.00950503 0.000497077 -0.000150533)
(0.00942917 -0.000834008 -5.26221e-05)
(0.00940905 -0.00220529 4.1533e-05)
(0.000313451 0.000180852 0.000157977)
(0.000159609 3.57762e-05 4.92933e-05)
(0.00014631 -5.01664e-05 -6.57456e-05)
(0.000266503 -0.000193399 -0.000188257)
(0.00124097 0.000746504 0.000150514)
(0.00102099 0.000201057 4.91758e-05)
(0.00098686 -0.000231425 -0.000100264)
(0.00112916 -0.000777333 -0.000219585)
(0.00234131 0.00117109 0.000107131)
(0.00214609 0.000342318 2.17167e-05)
(0.00209896 -0.00039167 -0.000100609)
(0.00219176 -0.00122633 -0.000204382)
(0.00363622 0.00148729 3.56902e-05)
(0.0034634 0.000440997 -1.11932e-05)
(0.0034077 -0.00052302 -8.99459e-05)
(0.00345948 -0.00157711 -0.000155711)
(0.00505439 0.00169775 -4.16564e-05)
(0.0049034 0.000499644 -4.48291e-05)
(0.00484187 -0.000628079 -7.52095e-05)
(0.00485905 -0.00183171 -9.66265e-05)
(0.00653575 0.0018216 -0.000113382)
(0.00640316 0.000525215 -7.62602e-05)
(0.00633823 -0.000710092 -6.192e-05)
(0.00632969 -0.00200624 -4.09117e-05)
(0.0080307 0.0018801 -0.000172473)
(0.00791149 0.000525635 -0.000104805)
(0.00784437 -0.000772553 -5.44327e-05)
(0.00781939 -0.00211746 1.43462e-06)
(0.00951685 0.00189502 -0.000216078)
(0.00939233 0.000511378 -0.000130151)
(0.00931892 -0.000819017 -5.63416e-05)
(0.00929195 -0.00218607 2.01629e-05)
(0.000328531 0.000186442 7.71914e-05)
(0.000165803 3.80839e-05 2.33669e-05)
(0.00015094 -5.08939e-05 -3.86822e-05)
(0.000276278 -0.00019801 -0.000101368)
(0.00127407 0.000739559 7.56646e-05)
(0.00103557 0.000200097 1.96226e-05)
(0.000999878 -0.000225247 -6.41524e-05)
(0.00115706 -0.000766903 -0.000131313)
(0.00236983 0.00116123 4.82348e-05)
(0.00216085 0.000342591 8.84996e-07)
(0.00211204 -0.000383645 -6.95249e-05)
(0.00221525 -0.00120962 -0.000127563)
(0.00364737 0.00147649 1.47943e-06)
(0.00346556 0.000442814 -2.24852e-05)
(0.00340797 -0.000512474 -6.59157e-05)
(0.00346509 -0.00155441 -0.000100345)
(0.00504167 0.00168908 -5.12994e-05)
(0.00488482 0.000503899 -4.69044e-05)
(0.00482122 -0.000614837 -5.86192e-05)
(0.00484026 -0.00180483 -6.38681e-05)
(0.00649679 0.00181681 -0.000101963)
(0.00636076 0.00053226 -7.04048e-05)
(0.00629372 -0.000694008 -5.18649e-05)
(0.00628439 -0.00197603 -2.82743e-05)
(0.00796699 0.00188051 -0.000144871)
(0.00784644 0.000535347 -9.22544e-05)
(0.00777735 -0.000753838 -4.96124e-05)
(0.00774936 -0.00208493 -2.02636e-06)
(0.00943411 0.00190152 -0.00017641)
(0.00930998 0.000523447 -0.000111784)
(0.00923409 -0.000798201 -5.59418e-05)
(0.00920113 -0.00215213 4.91776e-06)
(0.000333589 0.000189609 3.5776e-05)
(0.000164385 3.92431e-05 9.80042e-06)
(0.000148138 -5.12718e-05 -2.25813e-05)
(0.000277279 -0.000200567 -5.35166e-05)
(0.00128478 0.000735054 3.27708e-05)
(0.0010349 0.000199563 4.12864e-06)
(0.000997066 -0.000220357 -4.073e-05)
(0.00116176 -0.000758358 -7.61055e-05)
(0.00237693 0.00115119 1.35324e-05)
(0.00215776 0.000342134 -9.57697e-06)
(0.00210668 -0.000374678 -4.70583e-05)
(0.00221632 -0.00119138 -7.62874e-05)
(0.00364442 0.001464 -1.7746e-05)
(0.00345481 0.000443347 -2.63356e-05)
(0.00339492 -0.00049986 -4.70418e-05)
(0.00345616 -0.00152863 -6.12746e-05)
(0.00502445 0.00167718 -5.35684e-05)
(0.00486197 0.000506358 -4.39889e-05)
(0.00479607 -0.000599055 -4.42065e-05)
(0.00481711 -0.00177388 -3.95009e-05)
(0.00646315 0.00180787 -8.88579e-05)
(0.00632334 0.000537314 -6.13768e-05)
(0.00625407 -0.000675587 -4.16353e-05)
(0.0062449 -0.00194185 -1.77601e-05)
(0.00791696 0.00187615 -0.0001196)
(0.00779418 0.000543227 -7.80146e-05)
(0.00772287 -0.00073334 -4.25476e-05)
(0.0076933 -0.00204903 -2.57024e-06)
(0.00937034 0.0019024 -0.000142345)
(0.00924484 0.000534169 -9.32458e-05)
(0.00916588 -0.000776096 -5.05933e-05)
(0.00912904 -0.00211543 -2.46647e-06)
(0.000334804 0.000191009 1.51509e-05)
(0.000161699 3.98566e-05 3.24759e-06)
(0.000144468 -5.133e-05 -1.29294e-05)
(0.000275573 -0.000201373 -2.73971e-05)
(0.00128591 0.00073205 1.0622e-05)
(0.00102915 0.00019959 -2.67115e-06)
(0.000989553 -0.000216418 -2.54257e-05)
(0.00115798 -0.000751155 -4.27526e-05)
(0.00237413 0.00114431 -3.4436e-06)
(0.00214833 0.000342358 -1.28126e-05)
(0.00209537 -0.000366882 -3.10296e-05)
(0.00220849 -0.00117635 -4.38911e-05)
(0.00363484 0.00145501 -2.46199e-05)
(0.00343971 0.000444388 -2.47591e-05)
(0.003378 -0.000488561 -3.24397e-05)
(0.00344176 -0.00150699 -3.56032e-05)
(0.0050058 0.00166817 -4.88173e-05)
(0.00483907 0.000508892 -3.73369e-05)
(0.00477144 -0.000584777 -3.19166e-05)
(0.00479389 -0.00174737 -2.28467e-05)
(0.00643392 0.00180064 -7.30466e-05)
(0.00629102 0.000541847 -4.99432e-05)
(0.00622013 -0.000658918 -3.1616e-05)
(0.00621128 -0.00191213 -1.00262e-05)
(0.00787657 0.00187193 -9.46464e-05)
(0.00775174 0.000549946 -6.23063e-05)
(0.00767877 -0.000714857 -3.3951e-05)
(0.00764841 -0.00201742 -1.81269e-06)
(0.00931947 0.00190164 -0.000110711)
(0.00919247 0.000543098 -7.38518e-05)
(0.0091112 -0.000756199 -4.17603e-05)
(0.00907199 -0.00208279 -4.81676e-06)
(0.000334745 0.000191561 5.50346e-06)
(0.000159406 4.01973e-05 4.89501e-07)
(0.000141513 -5.12393e-05 -7.11173e-06)
(0.000273499 -0.000201377 -1.3363e-05)
(0.00128378 0.000730113 8.99052e-07)
(0.00102296 0.000199911 -4.47198e-06)
(0.000982116 -0.000213424 -1.51953e-05)
(0.00115233 -0.00074554 -2.29107e-05)
(0.0023683 0.00114013 -8.98539e-06)
(0.00213838 0.000343066 -1.15812e-05)
(0.00208409 -0.000360869 -1.94097e-05)
(0.00219902 -0.0011652 -2.39598e-05)
(0.00362414 0.00144954 -2.28591e-05)
(0.00342541 0.000445831 -1.968e-05)
(0.00336244 -0.000479753 -2.10338e-05)
(0.00342762 -0.00149095 -1.9453e-05)
(0.00498911 0.0016626 -3.85764e-05)
(0.00481948 0.000511455 -2.8179e-05)
(0.00475069 -0.000573569 -2.14483e-05)
(0.00477402 -0.0017275 -1.22207e-05)
(0.00641027 0.00179605 -5.44614e-05)
(0.00626518 0.000545818 -3.67992e-05)
(0.00619322 -0.000645778 -2.20711e-05)
(0.00618466 -0.00188954 -4.99821e-06)
(0.00784528 0.00186907 -6.88564e-05)
(0.00771889 0.000555415 -4.54024e-05)
(0.00764484 -0.000700252 -2.45519e-05)
(0.00761412 -0.00199303 -8.8061e-07)
(0.00928046 0.00190079 -7.96151e-05)
(0.00915216 0.000550078 -5.35486e-05)
(0.00906938 -0.00074044 -3.08504e-05)
(0.0090289 -0.00205729 -4.46544e-06)
(0.000334419 0.000191738 1.53368e-06)
(0.000157874 4.03826e-05 -3.09091e-07)
(0.000139573 -5.11209e-05 -3.50922e-06)
(0.000271898 -0.000201143 -5.88674e-06)
(0.00128136 0.00072895 -1.79381e-06)
(0.00101828 0.000200262 -3.55456e-06)
(0.000976647 -0.000211409 -8.02881e-06)
(0.00114765 -0.000741713 -1.10069e-05)
(0.00236306 0.00113781 -7.72619e-06)
(0.00213076 0.000343812 -7.7968e-06)
(0.00207563 -0.000356818 -1.06081e-05)
(0.00219145 -0.00115788 -1.16661e-05)
(0.00361562 0.00144656 -1.56587e-05)
(0.00341475 0.000447151 -1.25211e-05)
(0.00335099 -0.000473803 -1.17936e-05)
(0.00341692 -0.00148048 -9.42843e-06)
(0.00497682 0.00165957 -2.45718e-05)
(0.00480541 0.000513538 -1.74642e-05)
(0.00473591 -0.000565975 -1.23273e-05)
(0.00475974 -0.00171446 -5.74406e-06)
(0.00639364 0.00179355 -3.3623e-05)
(0.00624716 0.000548793 -2.2514e-05)
(0.00617457 -0.000636847 -1.30136e-05)
(0.0061662 -0.00187458 -2.10846e-06)
(0.00782378 0.00186746 -4.19081e-05)
(0.00769635 0.000559307 -2.76071e-05)
(0.00762168 -0.000690301 -1.48075e-05)
(0.0075908 -0.00197672 -2.80094e-07)
(0.00925381 0.00190025 -4.81206e-05)
(0.0091246 0.00055489 -3.24662e-05)
(0.00904093 -0.000729678 -1.88425e-05)
(0.00899984 -0.00204009 -2.94297e-06)
(0.00033419 0.000191778 2.49087e-07)
(0.000157122 4.0465e-05 -1.91602e-07)
(0.000138627 -5.10455e-05 -1.05191e-06)
(0.000271055 -0.000200964 -1.63898e-06)
(0.00127991 0.000728403 -9.53729e-07)
(0.00101583 0.000200476 -1.31538e-06)
(0.000973814 -0.000210396 -2.50389e-06)
(0.00114511 -0.000739779 -3.24159e-06)
(0.00236009 0.00113679 -2.93671e-06)
(0.00212671 0.000344266 -2.72801e-06)
(0.00207117 -0.000354785 -3.36917e-06)
(0.00218735 -0.00115425 -3.461e-06)
(0.00361099 0.00144527 -5.52544e-06)
(0.00340912 0.00044792 -4.2839e-06)
(0.003345 -0.000470816 -3.79633e-06)
(0.00341124 -0.00147532 -2.78399e-06)
(0.00497033 0.00165828 -8.42073e-06)
(0.00479809 0.000514696 -5.90923e-06)
(0.00472826 -0.000562157 -4.01893e-06)
(0.00475231 -0.00170802 -1.65598e-06)
(0.00638504 0.00179247 -1.13667e-05)
(0.00623791 0.000550385 -7.57522e-06)
(0.00616502 -0.00063235 -4.2975e-06)
(0.00615675 -0.00186716 -5.52814e-07)
(0.00781278 0.00186675 -1.40765e-05)
(0.00768486 0.000561335 -9.2635e-06)
(0.0076099 -0.00068528 -4.94412e-06)
(0.00757897 -0.00196859 -4.42827e-08)
(0.00924021 0.00189995 -1.61116e-05)
(0.00911057 0.000557355 -1.08791e-05)
(0.0090265 -0.000724234 -6.32846e-06)
(0.00898516 -0.00203147 -1.01084e-06)
)
;

boundaryField
{
    interface
    {
        type            tractionDisplacement;
        gradient        nonuniform List<vector> 
192
(
(0.0012504 8.90088e-08 -6.27537e-06)
(0.00125106 2.32615e-07 -7.48491e-06)
(0.0012496 5.25483e-07 -7.47543e-06)
(0.00124673 8.45864e-07 -7.27339e-06)
(0.00124237 1.23213e-06 -6.95727e-06)
(0.00123606 1.75972e-06 -6.48764e-06)
(0.00122701 2.65546e-06 -5.77696e-06)
(0.00121237 4.4017e-06 -4.57372e-06)
(0.00127836 1.58951e-07 -4.18175e-06)
(0.00127813 3.40733e-07 -4.98588e-06)
(0.00127606 6.81215e-07 -4.94782e-06)
(0.00127234 1.07974e-06 -4.77587e-06)
(0.0012667 1.57845e-06 -4.5173e-06)
(0.00125852 2.26978e-06 -4.14438e-06)
(0.00124668 3.43378e-06 -3.60938e-06)
(0.00122774 5.61186e-06 -2.83028e-06)
(0.0012969 2.0556e-07 -2.92788e-06)
(0.00129628 4.22773e-07 -3.50022e-06)
(0.00129375 8.10625e-07 -3.4639e-06)
(0.00128935 1.27314e-06 -3.32432e-06)
(0.00128271 1.85533e-06 -3.11929e-06)
(0.00127309 2.65704e-06 -2.83373e-06)
(0.00125927 3.97152e-06 -2.44508e-06)
(0.00123752 6.33252e-06 -1.9299e-06)
(0.00131022 2.36666e-07 -2.12187e-06)
(0.00130939 4.82114e-07 -2.53952e-06)
(0.00130652 9.12912e-07 -2.50899e-06)
(0.00130157 1.426e-06 -2.39958e-06)
(0.00129415 2.06871e-06 -2.2415e-06)
(0.00128345 2.94405e-06 -2.02736e-06)
(0.00126819 4.35007e-06 -1.74696e-06)
(0.00124452 6.81512e-06 -1.39307e-06)
(0.00131978 2.59652e-07 -1.51365e-06)
(0.00131882 5.26652e-07 -1.81147e-06)
(0.00131569 9.91037e-07 -1.78752e-06)
(0.00131032 1.54199e-06 -1.7059e-06)
(0.0013023 2.22756e-06 -1.58946e-06)
(0.00129082 3.15197e-06 -1.43486e-06)
(0.00127453 4.6157e-06 -1.23756e-06)
(0.00124954 7.14639e-06 -9.95544e-07)
(0.00132642 2.76131e-07 -1.01788e-06)
(0.00132536 5.58719e-07 -1.21811e-06)
(0.00132204 1.04754e-06 -1.20117e-06)
(0.00131638 1.62535e-06 -1.14496e-06)
(0.00130794 2.34023e-06 -1.06545e-06)
(0.0012959 3.29691e-06 -9.61283e-07)
(0.00127891 4.79762e-06 -8.30326e-07)
(0.00125304 7.37104e-06 -6.71486e-07)
(0.00133063 2.87035e-07 -5.86262e-07)
(0.00132951 5.79709e-07 -7.01327e-07)
(0.00132607 1.08477e-06 -6.91544e-07)
(0.00132021 1.68017e-06 -6.58841e-07)
(0.00131151 2.41383e-06 -6.12817e-07)
(0.00129912 3.39091e-06 -5.5309e-07)
(0.00128169 4.9157e-06 -4.77739e-07)
(0.00125526 7.51474e-06 -3.82182e-07)
(0.00133265 2.92824e-07 -1.90632e-07)
(0.00133149 5.90077e-07 -2.27698e-07)
(0.001328 1.10224e-06 -2.24725e-07)
(0.00132205 1.70638e-06 -2.14081e-07)
(0.00131322 2.44881e-06 -1.99112e-07)
(0.00130067 3.43614e-06 -1.79825e-07)
(0.00128303 4.97701e-06 -1.55001e-07)
(0.00125626 7.58408e-06 -1.20792e-07)
(1.09308e-05 7.23725e-08 0.00114973)
(1.30776e-05 1.27851e-07 0.00114889)
(1.31548e-05 1.98457e-07 0.00114824)
(1.29808e-05 2.92527e-07 0.0011473)
(1.2715e-05 4.04896e-07 0.00114595)
(1.23458e-05 5.36693e-07 0.00114413)
(1.18492e-05 6.86119e-07 0.00114175)
(1.13079e-05 8.03277e-07 0.00113874)
(1.00547e-05 2.11513e-08 0.0010997)
(1.20342e-05 3.77271e-08 0.00109949)
(1.21003e-05 5.67502e-08 0.0010993)
(1.19489e-05 8.24212e-08 0.00109902)
(1.17254e-05 1.12105e-07 0.00109863)
(1.14243e-05 1.44074e-07 0.00109811)
(1.10382e-05 1.71046e-07 0.00109746)
(1.0708e-05 1.6209e-07 0.00109671)
(1.00418e-05 -2.70428e-08 0.00105277)
(1.20188e-05 -4.56996e-08 0.00105298)
(1.20844e-05 -6.9588e-08 0.00105321)
(1.1933e-05 -1.00411e-07 0.00105354)
(1.171e-05 -1.3707e-07 0.001054)
(1.141e-05 -1.80176e-07 0.00105463)
(1.10258e-05 -2.2871e-07 0.00105544)
(1.06983e-05 -2.6355e-07 0.00105648)
(1.09054e-05 -8.04064e-08 0.00100291)
(1.30452e-05 -1.36982e-07 0.00100376)
(1.312e-05 -2.11694e-07 0.00100444)
(1.29457e-05 -3.09713e-07 0.00100544)
(1.26804e-05 -4.27843e-07 0.00100685)
(1.23126e-05 -5.69225e-07 0.00100876)
(1.18188e-05 -7.38586e-07 0.00101129)
(1.12818e-05 -8.99354e-07 0.00101456)
(-0.000903606 -9.63547e-08 6.85177e-06)
(-0.000902881 -2.51564e-07 8.12936e-06)
(-0.000904348 -5.72774e-07 8.11249e-06)
(-0.00090722 -9.20022e-07 7.89131e-06)
(-0.000911576 -1.33875e-06 7.54482e-06)
(-0.000917854 -1.91504e-06 7.02877e-06)
(-0.00092686 -2.91625e-06 6.2435e-06)
(-0.00094155 -4.95238e-06 4.89368e-06)
(-0.000876477 -1.72336e-07 4.42126e-06)
(-0.000876696 -3.68407e-07 5.23941e-06)
(-0.000878763 -7.40343e-07 5.19106e-06)
(-0.000882477 -1.17274e-06 5.00456e-06)
(-0.000888098 -1.71422e-06 4.72407e-06)
(-0.000896245 -2.4707e-06 4.31857e-06)
(-0.000908024 -3.77243e-06 3.7342e-06)
(-0.000927051 -6.30466e-06 2.87503e-06)
(-0.000858904 -2.23527e-07 3.02815e-06)
(-0.000859518 -4.57468e-07 3.59773e-06)
(-0.000862036 -8.80012e-07 3.55226e-06)
(-0.00086643 -1.38156e-06 3.40144e-06)
(-0.000873045 -2.0136e-06 3.18024e-06)
(-0.000882602 -2.89053e-06 2.87178e-06)
(-0.000896351 -4.35875e-06 2.45083e-06)
(-0.000918167 -7.09737e-06 1.88924e-06)
(-0.00084644 -2.57774e-07 2.16159e-06)
(-0.000847264 -5.21851e-07 2.57079e-06)
(-0.000850126 -9.90306e-07 2.53274e-06)
(-0.00085506 -1.54618e-06 2.41474e-06)
(-0.000862449 -2.24345e-06 2.24466e-06)
(-0.000873069 -3.20009e-06 2.01421e-06)
(-0.000888236 -4.76849e-06 1.71208e-06)
(-0.000911949 -7.62329e-06 1.32891e-06)
(-0.000837595 -2.83051e-07 1.52365e-06)
(-0.00083856 -5.70096e-07 1.81175e-06)
(-0.000841682 -1.07445e-06 1.78199e-06)
(-0.000847026 -1.67087e-06 1.69407e-06)
(-0.000854997 -2.41412e-06 1.56902e-06)
(-0.000866396 -3.42352e-06 1.40308e-06)
(-0.00088257 -5.05455e-06 1.19126e-06)
(-0.000907581 -7.98206e-06 9.30362e-07)
(-0.000831511 -3.01135e-07 1.01526e-06)
(-0.000832571 -6.04765e-07 1.20705e-06)
(-0.000835879 -1.13523e-06 1.18601e-06)
(-0.000841519 -1.76034e-06 1.1255e-06)
(-0.000849902 -2.53489e-06 1.04024e-06)
(-0.000861845 -3.57878e-06 9.28656e-07)
(-0.000878708 -5.24964e-06 7.88457e-07)
(-0.000904589 -8.22417e-06 6.17775e-07)
(-0.000827684 -3.13066e-07 5.81157e-07)
(-0.000828802 -6.27424e-07 6.90621e-07)
(-0.00083223 -1.17521e-06 6.7841e-07)
(-0.000838059 -1.81904e-06 6.43226e-07)
(-0.000846706 -2.61357e-06 5.93914e-07)
(-0.000858993 -3.67914e-06 5.30029e-07)
(-0.000876286 -5.37574e-06 4.49542e-07)
(-0.000902707 -8.37837e-06 3.46949e-07)
(-0.000825854 -3.19376e-07 1.88378e-07)
(-0.000827006 -6.38536e-07 2.23531e-07)
(-0.000830489 -1.19398e-06 2.19753e-07)
(-0.000836409 -1.8471e-06 2.083e-07)
(-0.000845182 -2.65092e-06 1.92268e-07)
(-0.000857629 -3.72725e-06 1.71653e-07)
(-0.000875121 -5.44102e-06 1.45178e-07)
(-0.000901879 -8.45211e-06 1.08378e-07)
(1.13077e-05 -0.00113956 -9.86196e-07)
(1.18661e-05 -0.00114323 -8.3836e-07)
(1.23873e-05 -0.00114616 -6.69958e-07)
(1.27835e-05 -0.00114847 -5.21832e-07)
(1.30767e-05 -0.00115024 -3.91006e-07)
(1.32868e-05 -0.00115152 -2.72808e-07)
(1.34306e-05 -0.00115236 -1.66012e-07)
(1.35055e-05 -0.00115283 -5.78898e-08)
(1.07333e-05 -0.00109747 -3.23353e-07)
(1.10861e-05 -0.00109878 -2.9851e-07)
(1.14951e-05 -0.00109989 -2.50886e-07)
(1.18192e-05 -0.0011008 -2.02547e-07)
(1.20647e-05 -0.00110151 -1.55909e-07)
(1.22434e-05 -0.00110204 -1.10734e-07)
(1.23687e-05 -0.0011024 -6.67961e-08)
(1.24387e-05 -0.00110257 -2.25708e-08)
(1.07338e-05 -0.00105712 1.29308e-07)
(1.10872e-05 -0.00105654 1.24779e-07)
(1.1494e-05 -0.00105609 9.54584e-08)
(1.18153e-05 -0.00105577 6.74789e-08)
(1.20582e-05 -0.00105555 4.5425e-08)
(1.22347e-05 -0.00105541 2.87838e-08)
(1.23586e-05 -0.00105532 1.65634e-08)
(1.24277e-05 -0.00105528 5.73912e-09)
(1.13263e-05 -0.00101504 7.95589e-07)
(1.18919e-05 -0.00101212 6.58727e-07)
(1.24086e-05 -0.00100987 5.05786e-07)
(1.27978e-05 -0.00100817 3.78169e-07)
(1.3084e-05 -0.00100692 2.73189e-07)
(1.32882e-05 -0.00100604 1.85436e-07)
(1.34278e-05 -0.00100548 1.12584e-07)
(1.35008e-05 -0.00100515 4.00141e-08)
)
;
        traction        nonuniform List<vector> 
192
(
(26.7942 0.00190733 -0.134472)
(26.8085 0.00498462 -0.160391)
(26.7772 0.0112604 -0.160188)
(26.7157 0.0181257 -0.155858)
(26.6222 0.0264028 -0.149084)
(26.487 0.0377082 -0.139021)
(26.293 0.0569026 -0.123792)
(25.9793 0.0943222 -0.0980083)
(27.3935 0.0034061 -0.0896089)
(27.3884 0.00730142 -0.10684)
(27.3441 0.0145975 -0.106025)
(27.2645 0.0231373 -0.10234)
(27.1437 0.033824 -0.0967993)
(26.9683 0.0486382 -0.0888082)
(26.7147 0.0735809 -0.077344)
(26.3087 0.120254 -0.0606489)
(27.7907 0.00440487 -0.0627403)
(27.7773 0.00905942 -0.0750048)
(27.7233 0.0173705 -0.0742265)
(27.6289 0.0272816 -0.0712353)
(27.4865 0.039757 -0.066842)
(27.2806 0.0569365 -0.0607228)
(26.9843 0.085104 -0.0523946)
(26.5182 0.135697 -0.0413549)
(28.0762 0.00507141 -0.0454687)
(28.0584 0.010331 -0.0544183)
(27.997 0.0195624 -0.0537641)
(27.8909 0.0305572 -0.0514196)
(27.7317 0.0443295 -0.0480322)
(27.5026 0.0630869 -0.0434433)
(27.1755 0.0932158 -0.0374349)
(26.6683 0.146038 -0.0298516)
(28.2811 0.00556398 -0.0324353)
(28.2603 0.0112854 -0.0388172)
(28.1933 0.0212365 -0.038304)
(28.0783 0.0330426 -0.0365551)
(27.9065 0.0477333 -0.0340599)
(27.6604 0.0675421 -0.0307469)
(27.3113 0.0989078 -0.0265191)
(26.7759 0.153137 -0.0213331)
(28.4234 0.00591708 -0.0218117)
(28.4006 0.0119725 -0.0261023)
(28.3295 0.0224473 -0.0257394)
(28.2081 0.034829 -0.0245348)
(28.0273 0.0501478 -0.0228311)
(27.7694 0.0706481 -0.0205989)
(27.4052 0.102806 -0.0177927)
(26.8508 0.157951 -0.014389)
(28.5135 0.00615074 -0.0125628)
(28.4894 0.0124223 -0.0150284)
(28.4158 0.023245 -0.0148188)
(28.2903 0.0360036 -0.014118)
(28.1037 0.0517248 -0.0131318)
(27.8383 0.0726623 -0.0118519)
(27.4647 0.105336 -0.0102373)
(26.8984 0.16103 -0.00818961)
(28.5567 0.00627479 -0.00408497)
(28.532 0.0126445 -0.00487923)
(28.4571 0.0236193 -0.00481554)
(28.3296 0.0365652 -0.00458744)
(28.1404 0.0524745 -0.00426669)
(27.8714 0.0736316 -0.00385339)
(27.4935 0.10665 -0.00332146)
(26.9199 0.162516 -0.00258841)
(0.234232 0.00155084 24.637)
(0.280235 0.00273965 24.6191)
(0.281888 0.00425265 24.6052)
(0.278159 0.00626843 24.5849)
(0.272465 0.00867633 24.5561)
(0.264553 0.0115006 24.5171)
(0.253912 0.0147025 24.4661)
(0.242312 0.0172131 24.4015)
(0.215458 0.000453242 23.565)
(0.257875 0.000808438 23.5605)
(0.259292 0.00121608 23.5564)
(0.256048 0.00176617 23.5504)
(0.251258 0.00240225 23.542)
(0.244806 0.00308729 23.5309)
(0.236532 0.00366528 23.517)
(0.229457 0.00347336 23.5009)
(0.215181 -0.00057949 22.5593)
(0.257546 -0.000979277 22.564)
(0.258951 -0.00149117 22.5688)
(0.255708 -0.00215167 22.5758)
(0.250929 -0.00293722 22.5858)
(0.244501 -0.00386092 22.5992)
(0.236268 -0.00490093 22.6167)
(0.22925 -0.00564749 22.6389)
(0.233687 -0.00172299 21.4909)
(0.279539 -0.00293532 21.5091)
(0.281144 -0.00453631 21.5238)
(0.277407 -0.00663671 21.5451)
(0.271722 -0.00916805 21.5754)
(0.263841 -0.0121977 21.6164)
(0.253261 -0.0158268 21.6704)
(0.241752 -0.0192719 21.7405)
(-19.363 -0.00206474 0.146824)
(-19.3475 -0.00539066 0.174201)
(-19.3789 -0.0122737 0.173839)
(-19.4404 -0.0197148 0.1691)
(-19.5338 -0.0286875 0.161675)
(-19.6683 -0.0410367 0.150616)
(-19.8613 -0.0624911 0.133789)
(-20.1761 -0.106122 0.104865)
(-18.7816 -0.00369291 0.0947413)
(-18.7863 -0.00789443 0.112273)
(-18.8306 -0.0158645 0.111237)
(-18.9102 -0.0251302 0.107241)
(-19.0307 -0.0367334 0.10123)
(-19.2052 -0.0529437 0.0925409)
(-19.4577 -0.0808377 0.0800185)
(-19.8654 -0.1351 0.0616077)
(-18.4051 -0.00478987 0.064889)
(-18.4182 -0.00980289 0.0770943)
(-18.4722 -0.0188574 0.0761199)
(-18.5664 -0.0296049 0.0728881)
(-18.7081 -0.0431486 0.0681481)
(-18.9129 -0.06194 0.0615382)
(-19.2075 -0.0934018 0.0525179)
(-19.675 -0.152086 0.0404836)
(-18.138 -0.00552373 0.0463197)
(-18.1556 -0.0111825 0.0550883)
(-18.217 -0.0212208 0.054273)
(-18.3227 -0.0331325 0.0517444)
(-18.481 -0.048074 0.0480998)
(-18.7086 -0.0685733 0.0431617)
(-19.0336 -0.102182 0.0366875)
(-19.5418 -0.163356 0.0284766)
(-17.9485 -0.00606538 0.0326497)
(-17.9691 -0.0122163 0.0388231)
(-18.036 -0.023024 0.0381856)
(-18.1506 -0.0358044 0.0363015)
(-18.3214 -0.0517312 0.0336219)
(-18.5656 -0.0733611 0.0300661)
(-18.9122 -0.108312 0.0255271)
(-19.4482 -0.171044 0.0199363)
(-17.8181 -0.00645288 0.0217555)
(-17.8408 -0.0129593 0.0258653)
(-17.9117 -0.0243264 0.0254145)
(-18.0325 -0.0377215 0.0241178)
(-18.2122 -0.0543192 0.0222908)
(-18.4681 -0.0766882 0.0198998)
(-18.8294 -0.112492 0.0168955)
(-19.3841 -0.176232 0.013238)
(-17.7361 -0.00670857 0.0124534)
(-17.7601 -0.0134448 0.014799)
(-17.8335 -0.0251831 0.0145374)
(-17.9584 -0.0389794 0.0137834)
(-18.1437 -0.0560052 0.0127267)
(-18.407 -0.0788387 0.0113578)
(-18.7775 -0.115194 0.00963305)
(-19.3437 -0.179537 0.00743463)
(-17.6969 -0.00684377 0.00403667)
(-17.7216 -0.0136829 0.00478996)
(-17.7962 -0.0255853 0.00470898)
(-17.9231 -0.0395806 0.00446357)
(-18.111 -0.0568055 0.00412003)
(-18.3778 -0.0798697 0.00367828)
(-18.7526 -0.116593 0.00311095)
(-19.326 -0.181117 0.00232238)
(0.242309 -24.4191 -0.0211328)
(0.254273 -24.4977 -0.0179648)
(0.265441 -24.5605 -0.0143563)
(0.273931 -24.61 -0.0111821)
(0.280215 -24.6479 -0.00837869)
(0.284717 -24.6755 -0.00584588)
(0.287799 -24.6935 -0.0035574)
(0.289404 -24.7035 -0.0012405)
(0.229999 -23.5171 -0.006929)
(0.237559 -23.5453 -0.00639663)
(0.246324 -23.5691 -0.00537612)
(0.253268 -23.5885 -0.00434029)
(0.25853 -23.6038 -0.00334091)
(0.262358 -23.6152 -0.00237288)
(0.265043 -23.6228 -0.00143135)
(0.266544 -23.6265 -0.00048366)
(0.23001 -22.6525 0.00277088)
(0.237582 -22.6402 0.00267384)
(0.2463 -22.6305 0.00204554)
(0.253185 -22.6237 0.00144598)
(0.25839 -22.6189 0.000973392)
(0.262173 -22.6158 0.000616796)
(0.264827 -22.614 0.00035493)
(0.266308 -22.6131 0.000122981)
(0.242706 -21.7508 0.0170483)
(0.254825 -21.6882 0.0141156)
(0.265899 -21.64 0.0108383)
(0.274239 -21.6037 0.00810362)
(0.280372 -21.5769 0.00585405)
(0.284748 -21.558 0.00397363)
(0.287739 -21.5459 0.00241252)
(0.289303 -21.5389 0.000857445)
)
;
        pressure        uniform 0;
        value           nonuniform List<vector> 
192
(
(0.000607861 0.000634872 0.000326747)
(0.00132135 0.00120238 0.000288838)
(0.00245665 0.00175133 0.000202176)
(0.0037515 0.00214253 7.0595e-05)
(0.00518844 0.00240535 -6.278e-05)
(0.00669012 0.00255414 -0.000183525)
(0.00820946 0.00262049 -0.0002804)
(0.00971646 0.00264531 -0.000349642)
(0.000647231 0.000661504 0.000164989)
(0.00142095 0.00119554 0.00016835)
(0.00251544 0.00174413 0.00011899)
(0.00378072 0.00213774 3.34578e-05)
(0.00517484 0.00240245 -6.00013e-05)
(0.00663584 0.00255432 -0.000148147)
(0.00811859 0.00262395 -0.000221459)
(0.00959839 0.00265488 -0.000274344)
(0.000675367 0.000684344 7.92622e-05)
(0.00146185 0.0011903 8.16923e-05)
(0.00254955 0.00172544 5.11322e-05)
(0.00379448 0.00211495 -3.11493e-06)
(0.00516228 0.00238006 -6.59417e-05)
(0.00659561 0.00253654 -0.000127341)
(0.00805288 0.00261366 -0.00018018)
(0.00951188 0.00265563 -0.000219041)
(0.000688575 0.000695287 3.54295e-05)
(0.00147873 0.00118588 3.28216e-05)
(0.00256249 0.00171107 1.10633e-05)
(0.00379573 0.00209508 -2.47975e-05)
(0.00514755 0.00235943 -6.67925e-05)
(0.00656313 0.00251883 -0.000108976)
(0.00800313 0.00260158 -0.000146501)
(0.00944726 0.00265139 -0.000174845)
(0.000693983 0.000699649 1.39462e-05)
(0.00148389 0.0011821 8.30716e-06)
(0.00256386 0.00170133 -7.9927e-06)
(0.00378956 0.00208155 -3.22941e-05)
(0.00513134 0.00234492 -6.04572e-05)
(0.00653543 0.00250581 -8.91829e-05)
(0.00796362 0.00259188 -0.000115455)
(0.00939642 0.00264638 -0.000135754)
(0.000695914 0.000701001 4.28412e-06)
(0.00148422 0.00117908 -1.70074e-06)
(0.00256074 0.00169507 -1.33714e-05)
(0.00378124 0.00207315 -2.93941e-05)
(0.00511653 0.00233584 -4.76682e-05)
(0.00651314 0.00249741 -6.64458e-05)
(0.00793328 0.00258519 -8.39449e-05)
(0.00935789 0.00264223 -9.7669e-05)
(0.00069645 0.000701194 6.96366e-07)
(0.00148315 0.00117699 -3.64853e-06)
(0.00255706 0.00169134 -1.07302e-05)
(0.00377418 0.00206836 -1.99498e-05)
(0.00510544 0.0023307 -3.03294e-05)
(0.00649744 0.00249256 -4.103e-05)
(0.00791247 0.00258113 -5.1113e-05)
(0.00933171 0.00263944 -5.90896e-05)
(0.000696523 0.000701116 -4.2956e-08)
(0.00148228 0.00117592 -1.61197e-06)
(0.0025548 0.00168959 -3.99031e-06)
(0.00377021 0.00206619 -7.01003e-06)
(0.00509952 0.00232838 -1.03867e-05)
(0.00648929 0.00249035 -1.38725e-05)
(0.00790181 0.00257922 -1.71737e-05)
(0.00931835 0.00263799 -1.97944e-05)
(0.00025347 0.000346197 0.000493442)
(0.00111502 0.000706852 0.000292003)
(0.00225878 0.00112088 0.000236039)
(0.00361229 0.00141692 0.000105608)
(0.00510302 0.00162628 -1.55605e-05)
(0.00665388 0.00175588 -0.000125063)
(0.00820798 0.00182466 -0.000210905)
(0.00973725 0.0018563 -0.000279098)
(5.82484e-05 9.63712e-05 0.000134802)
(0.000857983 0.000183013 0.000104896)
(0.00200931 0.000321093 5.82605e-05)
(0.00339009 0.000411645 5.41353e-06)
(0.0049058 0.000467104 -4.40801e-05)
(0.00647911 0.000491304 -8.84986e-05)
(0.00805048 0.000491804 -0.000127681)
(0.00958022 0.000482313 -0.000167755)
(4.00921e-05 -0.000135042 -0.000160555)
(0.000815357 -0.000226314 -0.000163383)
(0.00195194 -0.000378286 -0.000154242)
(0.00332456 -0.000503529 -0.000129633)
(0.0048348 -0.000613302 -0.000102517)
(0.00640551 -0.00070462 -7.79767e-05)
(0.00797558 -0.000778893 -6.09913e-05)
(0.00949872 -0.000836814 -5.05255e-05)
(0.000193625 -0.000408355 -0.000522108)
(0.000978219 -0.000757713 -0.000377497)
(0.00207755 -0.0011881 -0.000357813)
(0.00340407 -0.00151957 -0.00025654)
(0.00487672 -0.00178017 -0.000157212)
(0.00641851 -0.00197002 -6.48704e-05)
(0.0079693 -0.00210323 6.41574e-06)
(0.00948521 -0.00219872 4.99629e-05)
(0.000508237 -0.000640565 -0.000369485)
(0.00115791 -0.00123619 -0.000392496)
(0.00223589 -0.00182224 -0.000346137)
(0.00349397 -0.00225238 -0.000242804)
(0.0049062 -0.00256327 -0.000129583)
(0.00639518 -0.0027655 -2.33309e-05)
(0.00790774 -0.0028846 6.14065e-05)
(0.00940405 -0.00294972 0.000111199)
(0.000534079 -0.000664113 -0.000200349)
(0.00125951 -0.00123034 -0.000246037)
(0.00229765 -0.00181032 -0.000227581)
(0.00352513 -0.00223912 -0.000165108)
(0.00489342 -0.00254501 -8.92467e-05)
(0.00634022 -0.00274222 -1.5775e-05)
(0.00781556 -0.0028563 4.26788e-05)
(0.00928628 -0.00291936 7.45839e-05)
(0.000553048 -0.000686105 -0.000106562)
(0.00129466 -0.00122404 -0.000141779)
(0.00232748 -0.00178548 -0.000135822)
(0.00353478 -0.0022044 -0.000101011)
(0.00487636 -0.00250362 -5.38827e-05)
(0.00629491 -0.00269754 -6.58275e-06)
(0.00774404 -0.00281069 3.11189e-05)
(0.0091917 -0.00287409 4.85978e-05)
(0.000559476 -0.000694751 -5.51337e-05)
(0.00130461 -0.00121596 -7.8574e-05)
(0.00233369 -0.00176316 -7.64503e-05)
(0.00352966 -0.00217119 -5.65958e-05)
(0.0048554 -0.00246344 -2.81612e-05)
(0.00625614 -0.00265352 1.18103e-06)
(0.00768735 -0.00276504 2.4273e-05)
(0.00911756 -0.00282778 3.22819e-05)
(0.000560057 -0.000696373 -2.74648e-05)
(0.00130409 -0.00120769 -4.18839e-05)
(0.00232914 -0.00174518 -4.0789e-05)
(0.00351791 -0.00214487 -2.91195e-05)
(0.00483389 -0.00243103 -1.20359e-05)
(0.00622325 -0.0026172 5.76756e-06)
(0.00764219 -0.0027264 1.93791e-05)
(0.00905936 -0.00278761 2.21257e-05)
(0.000558671 -0.000695294 -1.29371e-05)
(0.00130028 -0.00120059 -2.11685e-05)
(0.00232161 -0.00173174 -2.03815e-05)
(0.00350541 -0.00212574 -1.3529e-05)
(0.00481515 -0.00240735 -3.49617e-06)
(0.00619718 -0.00259023 6.9223e-06)
(0.00760785 -0.00269716 1.4575e-05)
(0.00901579 -0.00275666 1.48853e-05)
(0.000557121 -0.000693742 -5.47965e-06)
(0.00129654 -0.0011955 -9.60223e-06)
(0.00231508 -0.0017228 -9.06969e-06)
(0.00349563 -0.00211331 -5.42607e-06)
(0.00480153 -0.00239198 -1.37607e-07)
(0.00617907 -0.00257256 5.30801e-06)
(0.00758456 -0.00267778 9.15669e-06)
(0.00898655 -0.00273592 8.75268e-06)
(0.000556198 -0.000692762 -1.48119e-06)
(0.00129439 -0.00119287 -2.72109e-06)
(0.00231144 -0.00171834 -2.5293e-06)
(0.00349036 -0.00210719 -1.38193e-06)
(0.00479441 -0.00238443 2.7125e-07)