/*--------------------------------*- C++ -*----------------------------------*\
| =========                 |                                                 |
| \\      /  F ield         | foam-extend: Open Source CFD                    |
|  \\    /   O peration     | Version:     3.1                                |
|   \\  /    A nd           | Web:         http://www.extend-project.de       |
|    \\/     M anipulation  |                                                 |
\*---------------------------------------------------------------------------*/
FoamFile
{
    version     2.0;
    format      ascii;
    class       volSymmTensorField;
    location    "2.6";
    object      epsilon;
}
// * * * * * * * * * * * * * * * * * * * * * * * * * * * * * * * * * * * * * //

dimensions      [0 0 0 0 0 0 0];

internalField   nonuniform List<symmTensor> 
256
(
(-0.00701217 0.00928716 -0.000417875 0.0267699 0.0049126 -0.0028797)
(-0.00233186 0.0079197 -0.00123777 0.00634756 0.00171123 -0.0010752)
(0.00122174 0.00739403 -0.00126558 -0.00726283 -0.00238757 0.00121355)
(0.00552046 0.0078543 -0.000514937 -0.026495 -0.00588539 0.00303966)
(-0.0123308 0.00387875 -0.000490477 0.0171054 -0.00148958 -0.00434356)
(-0.00492634 0.0101974 -0.00195237 0.00653956 -0.000663725 -0.00159981)
(0.00225847 0.00998847 -0.00201783 -0.00548439 0.000379956 0.00195934)
(0.00952267 0.00374 -0.000710597 -0.0161242 0.00109397 0.00485045)
(-0.0102923 0.0047344 -0.000208465 0.0158672 -0.000798131 -0.00253719)
(-0.00502845 0.00985439 -0.00133231 0.005902 -0.000324897 -0.0008647)
(0.00164932 0.0098616 -0.00137682 -0.00444076 5.64188e-05 0.00141482)
(0.00707406 0.00478841 -0.000425989 -0.0144842 0.000498253 0.00334104)
(-0.00878914 0.00413302 -0.000206871 0.0117489 -0.00116725 -0.0015002)
(-0.00450285 0.00896829 -0.00108839 0.00462452 -0.000400345 -0.000420462)
(0.000950123 0.00902827 -0.00111912 -0.00309731 0.00018872 0.00116073)
(0.0053526 0.00426018 -0.000439538 -0.0102297 0.000949802 0.00250999)
(-0.0070787 0.00357178 -0.000150252 0.00831076 -0.00107248 -0.000359554)
(-0.00389419 0.00769528 -0.000863255 0.00343597 -0.000347106 3.01258e-05)
(0.000380997 0.00778913 -0.000888526 -0.00199881 0.000179866 0.000823249)
(0.00359779 0.00375365 -0.000381725 -0.006783 0.000924919 0.00148899)
(-0.00572272 0.00274677 -0.000156945 0.00537013 -0.000936343 0.000541477)
(-0.00335529 0.00613975 -0.000738143 0.00239345 -0.000304523 0.000381711)
(-2.93424e-05 0.0062796 -0.000746939 -0.00112088 0.000158225 0.00053233)
(0.00227108 0.0030219 -0.00036296 -0.00389025 0.000845854 0.000630224)
(-0.00484423 0.00177278 -0.000225644 0.00340573 -0.000767737 0.00126926)
(-0.00303216 0.00442904 -0.00069335 0.00163277 -0.000293219 0.000679757)
(-0.000299226 0.00457472 -0.00067298 -0.000480244 9.91236e-05 0.000274616)
(0.00144936 0.00216301 -0.000370761 -0.00186911 0.000658987 -0.000101773)
(-0.00503078 0.000964347 -0.000308101 0.00239686 -0.000411577 0.00183061)
(-0.00360204 0.0024711 -0.000655298 0.00139764 -0.000182299 0.000920673)
(-0.000197426 0.00242543 -0.000643212 8.08903e-06 -3.90778e-06 4.36871e-05)
(0.00146104 0.00104708 -0.000431026 -0.000815822 0.00023886 -0.000701467)
(-0.00705596 0.0105843 -0.000270965 0.0259135 0.00305997 -0.00190217)
(-0.00214803 0.00955972 -0.000998611 0.00607976 0.000981093 -0.000716518)
(0.0011276 0.00911028 -0.00108479 -0.00637673 -0.00170594 0.000826207)
(0.00553061 0.00922835 -0.000471111 -0.0250382 -0.00404733 0.00212848)
(-0.0123558 0.00401451 -0.000399241 0.0186357 -0.000500728 -0.00341232)
(-0.00452821 0.0105633 -0.00183817 0.00726161 -0.000343375 -0.00126344)
(0.00208328 0.0104464 -0.00201788 -0.00636179 -0.000128308 0.00158433)
(0.00955909 0.0040222 -0.000819313 -0.0178628 -7.0542e-05 0.00403911)
(-0.0100951 0.00418007 -0.000180737 0.0159288 -0.0012522 -0.00248955)
(-0.00451394 0.00907761 -0.00145062 0.00596286 -0.000508222 -0.000883086)
(0.0015016 0.0091043 -0.00163753 -0.00460154 0.000227171 0.0013668)
(0.00698852 0.00423437 -0.000657318 -0.0146327 0.000927226 0.00337291)
(-0.00843695 0.00345871 -1.74947e-05 0.0118361 -0.00157773 -0.00137101)
(-0.00393734 0.00782574 -0.00102808 0.00466739 -0.000552355 -0.000456273)
(0.000800138 0.00788148 -0.00121996 -0.00316656 0.000394362 0.00104748)
(0.00512145 0.00356691 -0.00053478 -0.0103307 0.00141756 0.00240161)
(-0.00672364 0.00283329 0.000130493 0.00821935 -0.00157496 -0.000270898)
(-0.00334638 0.00646647 -0.000691822 0.00341162 -0.000520061 -5.1989e-05)
(0.000252535 0.00654595 -0.00088332 -0.00193409 0.000443048 0.000718384)
(0.00335312 0.00299013 -0.000394981 -0.00664031 0.00153448 0.00138574)
(-0.00537843 0.00208716 0.000202458 0.0052426 -0.00138522 0.000663116)
(-0.00284244 0.00503803 -0.000469718 0.00235057 -0.000451911 0.000292936)
(-0.000150002 0.00515929 -0.000643442 -0.000984562 0.000402692 0.000428836)
(0.00201047 0.00234257 -0.000292998 -0.00365069 0.00142072 0.000486884)
(-0.00452536 0.00124102 0.000191266 0.00324721 -0.00107088 0.00139542)
(-0.00256929 0.00357862 -0.000368425 0.00155522 -0.0003781 0.000577447)
(-0.000412766 0.00371577 -0.000511967 -0.000305027 0.000281683 0.000195016)
(0.00118987 0.00164911 -0.000233976 -0.00155278 0.0011055 -0.000238197)
(-0.00472279 0.000712382 0.000112994 0.00229806 -0.000571963 0.00193208)
(-0.00318874 0.00204681 -0.000371757 0.00134586 -0.000224222 0.000788716)
(-0.000343114 0.00199457 -0.000538043 0.000136792 9.91579e-05 -1.98483e-05)
(0.00118039 0.000815501 -0.000311449 -0.000582824 0.000528327 -0.000821955)
(-0.00739166 0.0111202 -0.000183751 0.026106 0.00154298 -0.00109535)
(-0.00227688 0.00998821 -0.000643736 0.00613214 0.000421065 -0.000390393)
(0.00120497 0.00951232 -0.000715138 -0.00622639 -0.00106566 0.00051579)
(0.00577701 0.00965996 -0.000331388 -0.0250677 -0.00233697 0.00129694)
(-0.0129966 0.00410002 -0.000326252 0.0182341 -0.00031521 -0.00209165)
(-0.00481365 0.0107588 -0.00125754 0.00726197 -0.000265389 -0.000710808)
(0.00226455 0.0106494 -0.00140925 -0.00623274 -0.000185394 0.00106231)
(0.0100744 0.00410771 -0.000640127 -0.0173585 -0.00016395 0.00261989)
(-0.0105786 0.00412635 -0.000218255 0.0158031 -0.000944656 -0.00167844)
(-0.00476098 0.00902259 -0.00109141 0.00600621 -0.000417442 -0.000504332)
(0.00165004 0.00904843 -0.00125304 -0.00455107 0.000151242 0.00102616)
(0.00737335 0.00415249 -0.000567825 -0.0143954 0.000670844 0.00241038)
(-0.00872215 0.00333666 -8.53352e-05 0.011793 -0.00126185 -0.000958442)
(-0.004092 0.00754566 -0.000800533 0.00470178 -0.000469238 -0.000209383)
(0.000846293 0.00759924 -0.000964325 -0.00309978 0.000346094 0.000852441)
(0.0052898 0.00342929 -0.000450367 -0.0101692 0.00115196 0.00182613)
(-0.00689481 0.00265473 3.62536e-05 0.00825086 -0.00131202 -0.000163661)
(-0.00344844 0.00609552 -0.000520818 0.00345908 -0.000448346 9.82896e-05)
(0.000230775 0.00617931 -0.000681124 -0.00186849 0.000426391 0.000635467)
(0.00338524 0.00281545 -0.000324416 -0.00653161 0.00132804 0.00112092)
(-0.00546296 0.00189474 0.000110701 0.00533821 -0.0011819 0.000556186)
(-0.00290386 0.00466206 -0.000322556 0.00240371 -0.000387481 0.000375212)
(-0.000224319 0.00480069 -0.000467522 -0.000918354 0.000412701 0.000433064)
(0.00193107 0.00218465 -0.000222249 -0.00358551 0.00127842 0.000460396)
(-0.00453805 0.00105293 0.000118997 0.00340878 -0.000919408 0.00113586)
(-0.00259932 0.00327178 -0.000237563 0.00161164 -0.000308488 0.000606577)
(-0.000532579 0.00344066 -0.000363718 -0.000246234 0.000308967 0.000274973)
(0.00101828 0.00153703 -0.000169507 -0.00152391 0.00102896 -7.27389e-05)
(-0.00467289 0.000619054 4.31484e-05 0.00246518 -0.000465601 0.00152885)
(-0.00321552 0.00189273 -0.000299756 0.00141534 -0.000162897 0.000769243)
(-0.000550841 0.00185886 -0.0004601 0.000187719 0.000114044 0.000167781)
(0.000905589 0.000772581 -0.000276149 -0.000568054 0.000484821 -0.000423598)
(-0.00763453 0.011318 -0.000105071 0.0262108 0.000681199 -0.000574152)
(-0.00238918 0.0100727 -0.000387305 0.00616306 0.000127565 -0.000187943)
(0.00124991 0.00956225 -0.00043519 -0.00614506 -0.000650578 0.000322524)
(0.00595373 0.00976751 -0.000207431 -0.0250479 -0.00128551 0.000755522)
(-0.0134699 0.00412667 -0.000202814 0.0178894 -0.000265548 -0.00111363)
(-0.00506472 0.0108528 -0.000795509 0.00723178 -0.000214749 -0.000330291)
(0.00236216 0.0107375 -0.000899687 -0.00604909 -0.000159279 0.000700131)
(0.0104343 0.0041309 -0.000425085 -0.0168906 -0.000108725 0.00158481)
(-0.0110049 0.00415202 -0.000159818 0.0156119 -0.000663458 -0.000892638)
(-0.00501949 0.00907876 -0.000747011 0.00601337 -0.000307963 -0.000190671)
(0.00172935 0.0091044 -0.000859037 -0.00440644 8.9492e-05 0.00073787)
(0.00768807 0.00417126 -0.00040605 -0.014052 0.000454473 0.00155141)
(-0.00905226 0.00333396 -7.99665e-05 0.0117182 -0.000890752 -0.000441735)
(-0.0043105 0.00753871 -0.00057716 0.00473546 -0.00034192 1.76609e-05)
(0.000869973 0.00759509 -0.00068757 -0.00298361 0.000253166 0.000666661)
(0.00549539 0.00342832 -0.00033034 -0.00993601 0.000819837 0.0012404)
(-0.00712184 0.00262632 3.53613e-06 0.00827992 -0.000950249 9.58403e-05)
(-0.00362684 0.00603969 -0.000387706 0.00351916 -0.000328128 0.000245019)
(0.000202838 0.00613298 -0.000492572 -0.00178091 0.000334541 0.000549764)
(0.00347312 0.00280321 -0.000237671 -0.00639451 0.000988633 0.000808493)
(-0.00560396 0.00184603 5.93497e-05 0.00545026 -0.000880527 0.000610521)
(-0.00304637 0.00458058 -0.000246503 0.00248149 -0.000286401 0.00045932)
(-0.000294274 0.00473857 -0.000339202 -0.000854872 0.000339066 0.000434136)
(0.0019156 0.00217249 -0.000159136 -0.00352366 0.000986966 0.000379083)
(-0.00460471 0.000990223 6.51121e-05 0.00358754 -0.000707404 0.00103986)
(-0.00271433 0.00319357 -0.000198859 0.00169943 -0.000229886 0.000647088)
(-0.000645586 0.0033887 -0.000280307 -0.000201902 0.000263022 0.000354484)
(0.000906071 0.0015324 -0.00012419 -0.00151021 0.00081917 3.63126e-05)
(-0.00468622 0.000588437 -1.38458e-05 0.0026626 -0.000377801 0.00133833)
(-0.0033357 0.00184892 -0.000299677 0.001517 -0.000125847 0.000795601)
(-0.000742434 0.00182499 -0.000411314 0.000219043 0.000100506 0.000339834)
(0.000692837 0.000772639 -0.000233638 -0.000590978 0.000395452 -0.000134924)
(-0.00778449 0.0113742 -5.39558e-05 0.0262361 0.000244588 -0.000273012)
(-0.00246243 0.0100448 -0.000221351 0.00618208 -4.40222e-06 -7.26809e-05)
(0.00126846 0.00950781 -0.000251478 -0.00607654 -0.000389494 0.000204509)
(0.00605075 0.00975696 -0.000121874 -0.0249576 -0.000682029 0.000432538)
(-0.0137791 0.00412354 -0.000111441 0.0176836 -0.000228881 -0.000511667)
(-0.0052318 0.0108727 -0.000475725 0.00722048 -0.000169018 -0.000101256)
(0.00240072 0.0107523 -0.000543095 -0.00589635 -0.00011851 0.000466833)
(0.0106414 0.00412842 -0.000261779 -0.0165683 -5.17991e-05 0.000935314)
(-0.0113141 0.00417074 -9.83098e-05 0.015473 -0.000458845 -0.000348523)
(-0.00520251 0.00912578 -0.000477665 0.00602241 -0.000216809 1.67869e-05)
(0.00175758 0.00915378 -0.000551029 -0.00426563 5.18403e-05 0.000532204)
(0.00788669 0.00419175 -0.00026449 -0.0137696 0.000307044 0.000957547)
(-0.00931963 0.00335346 -5.51721e-05 0.0116542 -0.000599026 -3.77744e-05)
(-0.00447784 0.00758605 -0.000387503 0.00476692 -0.000232761 0.000178671)
(0.000871246 0.00764744 -0.000458155 -0.00286645 0.000172368 0.000519497)
(0.00563931 0.00345578 -0.000220815 -0.00972067 0.000555061 0.000793446)
(-0.00732939 0.00263794 -4.66062e-06 0.00829287 -0.000645066 0.00033892)
(-0.00377148 0.00607305 -0.000272273 0.00357145 -0.000222519 0.000356016)
(0.000175322 0.0061755 -0.000337553 -0.00169099 0.000238852 0.000470143)
(0.00354672 0.00283201 -0.00016095 -0.0062538 0.000685765 0.000538544)
(-0.00575371 0.00184442 2.97918e-05 0.00552501 -0.00061217 0.00071364)
(-0.00316788 0.00459629 -0.000184856 0.00254742 -0.00019697 0.000529808)
(-0.000348228 0.00476896 -0.000241125 -0.000790833 0.000249105 0.000419576)
(0.00191944 0.00220038 -0.00010963 -0.00344595 0.000702365 0.00027555)
(-0.00470302 0.000973935 2.75193e-05 0.00370738 -0.000508165 0.00103999)
(-0.00281938 0.00319624 -0.000168701 0.00177118 -0.000162269 0.000691542)
(-0.000729808 0.00340806 -0.000217939 -0.000158468 0.000196237 0.000401)
(0.000841803 0.00155728 -9.28647e-05 -0.00147492 0.000595515 7.5737e-05)
(-0.00475371 0.000580961 -4.81723e-05 0.00279461 -0.000280133 0.00126813)
(-0.00345154 0.00184821 -0.000279 0.00159698 -9.15949e-05 0.00082979)
(-0.000880498 0.00182624 -0.000350559 0.000252476 7.41399e-05 0.000451118)
(0.000561646 0.000783731 -0.000191759 -0.000588237 0.000289786 3.16938e-05)
(-0.00786975 0.0113772 -2.42603e-05 0.0262273 5.09325e-05 -0.000106092)
(-0.00250728 0.00999187 -0.000119247 0.00619583 -4.69417e-05 -1.04185e-05)
(0.00127419 0.0094365 -0.000137262 -0.00601993 -0.00022395 0.000133727)
(0.00609728 0.00971401 -6.71647e-05 -0.0248522 -0.000344605 0.000246438)
(-0.0139646 0.00410885 -5.35934e-05 0.0175708 -0.000178726 -0.000164123)
(-0.00533606 0.0108577 -0.000266948 0.00722373 -0.000122646 2.71886e-05)
(0.00241199 0.0107339 -0.000308271 -0.00578342 -7.93669e-05 0.000321986)
(0.0107484 0.00411654 -0.000150067 -0.0163575 -1.66263e-05 0.000548937)
(-0.0115139 0.00417723 -5.18392e-05 0.0153924 -0.000303605 -1.10246e-05)
(-0.00532113 0.00914792 -0.00028366 0.00603701 -0.000143789 0.000140561)
(0.00176328 0.00917857 -0.000329224 -0.00415583 2.9567e-05 0.000396114)
(0.00799925 0.00420252 -0.000158504 -0.0135708 0.000200527 0.000583138)
(-0.00950342 0.0033688 -3.04473e-05 0.0116144 -0.000382365 0.000233119)
(-0.00459079 0.00762654 -0.00023995 0.00479467 -0.000148749 0.000280042)
(0.000864138 0.0076925 -0.000283102 -0.00277117 0.000109985 0.000415011)
(0.00572574 0.00347962 -0.000135402 -0.00955733 0.000356073 0.000493189)
(-0.00748189 0.00265308 -2.64821e-06 0.00829753 -0.000411727 0.00052249)
(-0.00387236 0.0061153 -0.000175943 0.00361129 -0.000141052 0.000430526)
(0.000153292 0.00622486 -0.00021498 -0.00161531 0.00015681 0.000407064)
(0.00359468 0.00286132 -0.000100326 -0.00613594 0.000444244 0.000340204)
(-0.00587241 0.00185244 1.58571e-05 0.00556628 -0.000397374 0.000816647)
(-0.00325519 0.00462959 -0.00012792 0.00259422 -0.000126479 0.000582221)
(-0.000385292 0.00481257 -0.000160861 -0.000735676 0.000166069 0.0003998)
(0.00192566 0.00222984 -7.05013e-05 -0.00337076 0.000461678 0.000181166)
(-0.00479069 0.000970387 9.35233e-06 0.003775 -0.000338462 0.00108261)
(-0.00289747 0.00321614 -0.000129539 0.00181968 -0.000106955 0.000730376)
(-0.000785551 0.00343881 -0.000158186 -0.000120702 0.000131395 0.000422942)
(0.000806069 0.00158205 -6.52543e-05 -0.00143109 0.000396396 7.43203e-05)
(-0.00482598 0.00057816 -5.12975e-05 0.00287354 -0.000192203 0.00127229)
(-0.00354026 0.00185594 -0.000223428 0.0016515 -6.24514e-05 0.000864298)
(-0.000969242 0.00183407 -0.000267226 0.000282807 4.87501e-05 0.000512043)
(0.000486203 0.000792993 -0.000142038 -0.000570521 0.000194032 0.000105886)
(-0.00791474 0.0113664 -9.23951e-06 0.026211 -1.14354e-05 -1.9396e-05)
(-0.00253279 0.00994733 -5.72353e-05 0.00620546 -4.27023e-05 2.10454e-05)
(0.00127481 0.00938044 -6.67713e-05 -0.00597957 -0.000114785 9.37589e-05)
(0.00611711 0.00967441 -3.28648e-05 -0.0247673 -0.000156892 0.000145514)
(-0.0140673 0.00409424 -2.20263e-05 0.0175132 -0.000113732 2.13798e-05)
(-0.00539628 0.0108355 -0.000132477 0.0072317 -7.45352e-05 9.38782e-05)
(0.00241282 0.0107097 -0.000154779 -0.0057093 -4.50416e-05 0.000238194)
(0.0107987 0.00410475 -7.57214e-05 -0.0162295 -1.51602e-06 0.000334721)
(-0.0116309 0.00417712 -2.32611e-05 0.0153516 -0.000174426 0.000177633)
(-0.00539137 0.00915401 -0.000147093 0.00605141 -8.23796e-05 0.00020772)
(0.00176138 0.00918671 -0.000171925 -0.00408253 1.53253e-05 0.000314089)
(0.00805767 0.00420632 -8.26489e-05 -0.0134467 0.000114436 0.000367585)
(-0.00961528 0.00337694 -1.39251e-05 0.011594 -0.000213382 0.000392511)
(-0.00465928 0.00765022 -0.000128499 0.00481568 -8.27806e-05 0.00033744)
(0.000856439 0.00771942 -0.000151766 -0.0027061 6.10105e-05 0.000349242)
(0.00577251 0.00349425 -7.18791e-05 -0.00945116 0.0001992 0.000313107)
(-0.00757854 0.00266314 -5.62201e-07 0.00829936 -0.000229042 0.000639168)
(-0.00393475 0.00614456 -9.74463e-05 0.0036379 -7.78911e-05 0.00047519)
(0.000138297 0.00625882 -0.000118212 -0.00156238 8.83274e-05 0.000364657)
(0.00362183 0.00288108 -5.4061e-05 -0.00605434 0.000249115 0.000213992)
(-0.00595118 0.00185895 7.86307e-06 0.00558638 -0.000223368 0.000892286)
(-0.00331016 0.00465508 -7.48082e-05 0.00262327 -7.05151e-05 0.000616447)
(-0.000408114 0.00484449 -9.20831e-05 -0.000696306 9.42155e-05 0.000383146)
(0.00193023 0.00225015 -3.91899e-05 -0.00331411 0.000260704 0.000113125)
(-0.00485287 0.000969563 1.61205e-06 0.00380855 -0.000193628 0.00112691)
(-0.00294762 0.00323234 -8.13558e-05 0.0018484 -6.08248e-05 0.000758561)
(-0.00081861 0.00346145 -9.63046e-05 -9.33689e-05 7.45387e-05 0.000431344)
(0.000787822 0.00159877 -3.89973e-05 -0.00139427 0.00022525 5.98031e-05)
(-0.00488163 0.000577061 -3.74097e-05 0.00291432 -0.000112594 0.0012973)
(-0.0035983 0.00186274 -0.000143045 0.00168376 -3.63802e-05 0.00089094)
(-0.00102076 0.00184014 -0.000166754 0.000305599 2.72823e-05 0.000541576)
(0.000446971 0.000798602 -8.73499e-05 -0.000550661 0.000110549 0.000132095)
(-0.0079339 0.0113579 -2.26501e-06 0.0262003 -1.01093e-05 1.72611e-05)
(-0.00254432 0.0099232 -1.68289e-05 0.00621049 -1.63814e-05 3.40513e-05)
(0.0012743 0.00935077 -1.98029e-05 -0.00595864 -3.5195e-05 7.57149e-05)
(0.00612399 0.00965221 -9.77307e-06 -0.0247211 -4.46459e-05 0.000101251)
(-0.0141125 0.0040857 -5.76309e-06 0.0174891 -3.90011e-05 0.000101128)
(-0.00542377 0.0108212 -3.97315e-05 0.00723737 -2.50155e-05 0.000121921)
(0.00241152 0.0106946 -4.67595e-05 -0.00567261 -1.45482e-05 0.000199797)
(0.0108181 0.00409787 -2.29187e-05 -0.0161687 9.12942e-07 0.000239476)
(-0.0116843 0.00417566 -6.50413e-06 0.015335 -5.70354e-05 0.000260977)
(-0.00542391 0.00915423 -4.52342e-05 0.00606009 -2.68728e-05 0.000236755)
(0.001759 0.00918801 -5.30994e-05 -0.00404605 4.75895e-06 0.000275599)
(0.00808219 0.00420708 -2.54789e-05 -0.0133871 3.73127e-05 0.000269612)
(-0.00966752 0.00338008 -3.95254e-06 0.011586 -6.87035e-05 0.000465099)
(-0.00469143 0.0076603 -4.02432e-05 0.004827 -2.65911e-05 0.000362976)
(0.000851862 0.00773115 -4.75747e-05 -0.00267341 1.95441e-05 0.000317648)
(0.0057927 0.0035008 -2.23967e-05 -0.00939934 6.41783e-05 0.000229347)
(-0.00762468 0.00266773 -4.72937e-08 0.00830011 -7.35754e-05 0.000694771)
(-0.00396433 0.0061585 -3.1111e-05 0.00365121 -2.4911e-05 0.000495862)
(0.000130761 0.00627504 -3.76109e-05 -0.00153545 2.8481e-05 0.000343565)
(0.00363384 0.00289052 -1.70107e-05 -0.00601316 8.02593e-05 0.00015329)
(-0.00598966 0.00186205 2.28708e-06 0.00559426 -7.21194e-05 0.000931183)
(-0.00333648 0.00466775 -2.46264e-05 0.00263706 -2.26698e-05 0.000633184)
(-0.000418937 0.00486019 -2.99896e-05 -0.000676028 3.0463e-05 0.000373958)
(0.00193248 0.00225998 -1.2575e-05 -0.00328425 8.42151e-05 7.81409e-05)
(-0.00488411 0.000969199 -2.57923e-07 0.00382166 -6.31365e-05 0.0011529)
(-0.00297183 0.00324051 -2.77762e-05 0.00186153 -1.9769e-05 0.000773142)
(-0.000833875 0.0034725 -3.23961e-05 -7.91289e-05 2.40891e-05 0.000433752)
(0.000780205 0.00160671 -1.30298e-05 -0.00137387 7.29456e-05 4.88304e-05)
(-0.00491029 0.000576794 -1.37557e-05 0.00293063 -3.74074e-05 0.00131569)
(-0.00362647 0.00186649 -4.91717e-05 0.00169853 -1.20025e-05 0.000905108)
(-0.00104432 0.00184299 -5.66614e-05 0.000317808 8.79671e-06 0.000553046)
(0.000430354 0.000800944 -2.9544e-05 -0.000538442 3.58623e-05 0.000138515)
)
;

boundaryField
{
    interface
    {
        type            calculated;
        value           nonuniform List<symmTensor> 
192
(
(-0.0258442 -4.8319e-06 0.000325782 0.0405127 0.00609601 -0.00353344)
(-0.0120367 2.52807e-06 0.000546579 0.0216149 -0.00179316 -0.00531262)
(-0.0128976 -3.51695e-06 0.000651313 0.0206715 -0.00108625 -0.00308951)
(-0.00998385 -2.8262e-05 0.000703017 0.0150151 -0.00164045 -0.00180694)
(-0.00791144 -7.90226e-05 0.000725266 0.0104551 -0.00153585 -0.000370201)
(-0.00608114 -0.000163175 0.000721358 0.00655989 -0.00134241 0.000762484)
(-0.00503164 -0.000307462 0.000684634 0.00409059 -0.0010535 0.00165029)
(-0.00448491 -0.000532091 0.000591782 0.00270645 -0.000543088 0.00230581)
(-0.0261985 1.72652e-05 0.000227793 0.0396308 0.00383916 -0.00233)
(-0.0139865 3.1749e-05 0.000384668 0.0231681 -0.000544865 -0.00417167)
(-0.0130995 2.77365e-05 0.000457084 0.020627 -0.00162882 -0.00301272)
(-0.0103945 -6.55019e-06 0.000491518 0.0150906 -0.00213168 -0.00157789)
(-0.0082057 -7.38545e-05 0.000503247 0.0103417 -0.00215466 -0.000149171)
(-0.00641886 -0.000183439 0.000494626 0.00643621 -0.00190479 0.00105995)
(-0.00536814 -0.000367394 0.000461647 0.00396939 -0.00145177 0.00198772)
(-0.0047617 -0.000630943 0.000394353 0.00264157 -0.000761997 0.00264414)
(-0.0272008 2.2722e-05 0.000160356 0.0400263 0.00195124 -0.00136029)
(-0.014618 3.98743e-05 0.000270017 0.0224303 -0.000322122 -0.00261443)
(-0.0135911 3.68211e-05 0.000316788 0.0203356 -0.00118863 -0.00211878)
(-0.0106637 -1.8067e-06 0.000336275 0.0149842 -0.00164963 -0.00120971)
(-0.00828792 -7.86624e-05 0.000340632 0.0103624 -0.00174478 -0.000190229)
(-0.00638378 -0.000203552 0.000332009 0.00657421 -0.00158817 0.00073535)
(-0.00526523 -0.000408867 0.000309115 0.00422757 -0.00123707 0.00147308)
(-0.00449036 -0.000685924 0.000268101 0.00288849 -0.000632884 0.00196245)
(-0.0278386 2.30515e-05 0.000115699 0.040238 0.000862859 -0.000713771)
(-0.0151197 4.05212e-05 0.000195293 0.0218785 -0.000288026 -0.00139963)
(-0.0140831 3.753e-05 0.000227713 0.0200144 -0.00082276 -0.00114879)
(-0.0110369 -3.7184e-06 0.000239768 0.0148406 -0.00114536 -0.000595203)
(-0.00853197 -8.65723e-05 0.000241216 0.0103712 -0.00124644 8.11206e-05)
(-0.00652284 -0.000220894 0.000234347 0.00670816 -0.00117064 0.000733343)
(-0.00532966 -0.000438733 0.0002192 0.00446837 -0.000948817 0.00127364)
(-0.00445134 -0.000721773 0.000193067 0.003142 -0.000516299 0.00163959)
(-0.0281739 2.2258e-05 8.24245e-05 0.0402968 0.000310389 -0.000339971)
(-0.0154514 3.90612e-05 0.000139785 0.0215604 -0.00026346 -0.00064873)
(-0.0144326 3.55124e-05 0.00016272 0.0197939 -0.000569102 -0.000466777)
(-0.0113342 -7.58165e-06 0.000170728 0.0147234 -0.000765582 -9.38935e-05)
(-0.00875693 -9.42914e-05 0.000171198 0.0103618 -0.000840982 0.000369757)
(-0.00667748 -0.000234548 0.000166337 0.00678749 -0.000810411 0.000835041)
(-0.00543007 -0.000460346 0.000156567 0.004618 -0.000681595 0.00123808)
(-0.00447656 -0.0007468 0.000139417 0.00330167 -0.000384804 0.00151101)
(-0.0283379 2.14238e-05 5.54569e-05 0.0402871 6.5197e-05 -0.000132808)
(-0.0156551 3.73424e-05 9.44734e-05 0.0213865 -0.00021321 -0.000214541)
(-0.01466 3.3116e-05 0.00011002 0.0196662 -0.000378724 -4.12251e-05)
(-0.0115416 -1.13044e-05 0.000115281 0.0146494 -0.000488708 0.000248061)
(-0.00892658 -0.000100554 0.00011549 0.0103481 -0.000536227 0.00059809)
(-0.00680698 -0.000244543 0.000112361 0.00682536 -0.000525924 0.000956728)
(-0.00552721 -0.000475499 0.000106289 0.00469701 -0.000454975 0.00127961)
(-0.00453442 -0.000764078 9.52441e-05 0.00339281 -0.000265234 0.00150151)
(-0.0284118 2.0894e-05 3.18471e-05 0.04026 -1.38921e-05 -2.54481e-05)
(-0.0157686 3.61015e-05 5.44676e-05 0.0212964 -0.0001382 1.67678e-05)
(-0.0147931 3.12126e-05 6.34706e-05 0.0195999 -0.000218835 0.000196513)
(-0.0116679 -1.4089e-05 6.64148e-05 0.0146096 -0.000273337 0.000450053)
(-0.00903476 -0.00010483 6.65539e-05 0.0103377 -0.000298654 0.000745366)
(-0.00689419 -0.000251117 6.48294e-05 0.0068405 -0.00029601 0.0010502)
(-0.00559703 -0.000485278 6.13264e-05 0.00473346 -0.000260932 0.00133156)
(-0.00458439 -0.000774836 5.47094e-05 0.00343767 -0.000155997 0.00152769)
(-0.028439 2.05614e-05 1.02852e-05 0.0402411 -1.25657e-05 1.98388e-05)
(-0.0158182 3.53379e-05 1.76411e-05 0.021258 -4.77559e-05 0.000115974)
(-0.0148531 3.00894e-05 2.05477e-05 0.0195723 -7.17883e-05 0.000301334)
(-0.0117262 -1.55821e-05 2.14824e-05 0.0145928 -8.81599e-05 0.000542037)
(-0.00908583 -0.000106997 2.15313e-05 0.0103324 -9.6048e-05 0.000815867)
(-0.00693648 -0.000254563 2.0982e-05 0.00684523 -9.56761e-05 0.00109899)
(-0.00563127 -0.000490541 1.97592e-05 0.00474663 -8.5221e-05 0.00136336)
(-0.00460965 -0.00077932 1.73846e-05 0.00345464 -5.19668e-05 0.00154936)
(-0.00715582 0.00837561 -0.000395605 0.0277485 -8.96305e-05 -0.0143009)
(-0.0126645 0.00380635 -0.000680274 0.0153909 -0.000141795 -0.00222668)
(-0.0107321 0.00522196 -0.000821291 0.0157855 -0.000151266 -0.00364315)
(-0.00925186 0.00469742 -0.000904722 0.0116563 -0.00014246 -0.00177995)
(-0.00749453 0.00416273 -0.000963842 0.00841503 -0.000139924 -0.000733088)
(-0.00609129 0.00325688 -0.00101183 0.00552925 -0.000155798 0.000278678)
(-0.00515845 0.00216563 -0.00106876 0.00362288 -0.000193283 0.000920668)
(-0.00530491 0.00114804 -0.00119276 0.00254643 -0.000238804 0.00169904)
(-0.00257614 0.00662166 -0.000255373 0.00665279 -7.13877e-05 -0.0032136)
(-0.00545881 0.00995681 -0.00046446 0.00583821 -0.00013119 -0.000685163)
(-0.00564014 0.0105499 -0.000553349 0.00588044 -0.000153535 -0.000511882)
(-0.00510179 0.00985986 -0.000598966 0.00459962 -0.000139718 4.68057e-05)
(-0.00444841 0.00861823 -0.000631912 0.00347774 -0.000116576 0.00039829)
(-0.00385563 0.00694485 -0.000666986 0.00245016 -0.000101337 0.000704641)
(-0.00346846 0.00504335 -0.000726207 0.00172139 -0.000100517 0.000930898)
(-0.00398553 0.0027806 -0.000887821 0.00146379 -0.000103666 0.00144228)
(0.00136325 0.00601385 -0.000198383 -0.00803727 -4.88101e-05 0.00400712)
(0.00254808 0.00966415 -0.000387277 -0.0045741 -0.000108959 0.000926305)
(0.00188929 0.0105388 -0.000471505 -0.00429666 -0.000140132 0.0012315)
(0.00112747 0.00992231 -0.000512244 -0.00301414 -0.000130525 0.000928982)
(0.000501477 0.00872684 -0.000539159 -0.00203757 -0.000103086 0.000723068)
(5.58855e-05 0.00711024 -0.00057012 -0.00122061 -7.66185e-05 0.000486662)
(-0.000242167 0.00521337 -0.000627969 -0.000618098 -5.94728e-05 0.000281276)
(-0.00015061 0.00275175 -0.000788394 -8.40456e-05 -4.90375e-05 -0.000141304)
(0.00564511 0.00681471 -0.000185949 -0.0279542 -4.32297e-05 0.0144973)
(0.00977745 0.00352138 -0.000385804 -0.01415 -0.000106674 0.00253791)
(0.00735547 0.00525496 -0.000482069 -0.0142782 -0.000140639 0.00428165)
(0.0056354 0.00483021 -0.000530339 -0.0100804 -0.00013291 0.00266797)
(0.0038303 0.00436698 -0.000559644 -0.00687963 -0.000103596 0.00176209)
(0.00246821 0.00356688 -0.000591051 -0.00408878 -7.13576e-05 0.000820835)
(0.0016085 0.00258032 -0.00064753 -0.00215651 -4.07163e-05 0.000107268)
(0.0015974 0.00124128 -0.000798093 -0.00101499 -7.18032e-06 -0.000654129)
(0.0231712 4.41742e-05 4.15814e-05 -0.0388156 -0.00730264 0.00372781)
(0.00971198 9.02725e-05 7.34679e-05 -0.0207927 0.00128661 0.00595745)
(0.0100327 0.00011473 7.87121e-05 -0.019344 0.000744132 0.00410834)
(0.00688144 0.000107901 7.92474e-05 -0.0134981 0.00141575 0.00305139)
(0.00469656 8.56999e-05 8.80397e-05 -0.00886281 0.00140521 0.00174084)
(0.00284113 6.03739e-05 0.000110329 -0.00493222 0.00129665 0.000638808)
(0.00170324 2.04368e-05 0.000147667 -0.00223318 0.00101532 -0.0002815)
(0.00144505 -0.000134703 0.000193754 -0.000939669 0.000400875 -0.00100443)
(0.0229048 2.12068e-05 -1.40864e-05 -0.0373794 -0.00500149 0.00264589)
(0.0114499 4.94565e-05 -2.34823e-05 -0.022579 -0.000114215 0.00503585)
(0.00987941 6.85232e-05 -3.20502e-05 -0.019366 0.00125944 0.00421263)
(0.00687686 6.99376e-05 -3.62921e-05 -0.0135748 0.00196568 0.00295997)
(0.00453128 6.23741e-05 -3.09068e-05 -0.00868624 0.00213824 0.00162334)
(0.00267824 5.44764e-05 -1.47698e-05 -0.00468019 0.00199813 0.000435556)
(0.001513 3.61037e-05 9.99571e-06 -0.00191029 0.00158162 -0.000514837)
(0.0013309 -0.000101416 4.31514e-05 -0.000701891 0.000791884 -0.001247)
(0.0237421 1.1048e-05 -2.29453e-05 -0.0376247 -0.00283554 0.00161192)
(0.0120628 2.93297e-05 -3.62503e-05 -0.0217626 -0.000179462 0.00326241)
(0.0103742 4.59974e-05 -4.02371e-05 -0.0189458 0.000904989 0.00299794)
(0.00715993 5.41748e-05 -3.90753e-05 -0.0133369 0.00154735 0.00223583)
(0.00460805 5.82997e-05 -3.10546e-05 -0.00854746 0.00178591 0.00130458)
(0.00260747 6.28543e-05 -1.61299e-05 -0.00462922 0.0017322 0.000428059)
(0.00132438 5.72413e-05 1.78349e-06 -0.00192236 0.00142488 -0.000280923)
(0.000963187 -6.08376e-05 1.86134e-05 -0.000722581 0.000714175 -0.000739515)
(0.0242292 7.15751e-06 -2.07954e-05 -0.0376852 -0.00151467 0.000924639)
(0.0125023 2.03635e-05 -3.18202e-05 -0.021117 -8.52636e-05 0.00193641)
(0.0107852 3.5902e-05 -3.19427e-05 -0.0184728 0.000618161 0.00188223)
(0.00744466 4.91576e-05 -2.73592e-05 -0.0130294 0.00108566 0.00147108)
(0.00474585 6.23848e-05 -1.83416e-05 -0.00837767 0.00130602 0.000896935)
(0.00261974 7.6612e-05 -5.62621e-06 -0.00456711 0.00131346 0.000320836)
(0.00122367 7.82583e-05 7.24284e-06 -0.00192486 0.00111862 -0.00014823)
(0.000746354 -2.79098e-05 1.51458e-05 -0.000769092 0.000577581 -0.000395363)
(0.024434 5.79189e-06 -1.55897e-05 -0.0375969 -0.000773007 0.000516746)
(0.0127714 1.69765e-05 -2.32426e-05 -0.0207068 -1.0296e-05 0.00110905)
(0.0110476 3.26469e-05 -2.13434e-05 -0.0181142 0.000425346 0.00111453)
(0.00764307 4.97069e-05 -1.56344e-05 -0.0127594 0.000732342 0.000886892)
(0.00485893 6.91114e-05 -7.39052e-06 -0.00820679 0.000897963 0.000540749)
(0.00264631 8.95187e-05 2.10977e-06 -0.00447807 0.000926548 0.000179327)
(0.00116697 9.53451e-05 1.00159e-05 -0.00188771 0.000808832 -0.000109325)
(0.000612733 -3.71827e-06 1.31132e-05 -0.000774852 0.000423627 -0.000204498)
(0.0244958 5.54823e-06 -1.01247e-05 -0.037465 -0.000372115 0.000283958)
(0.0129214 1.63334e-05 -1.46673e-05 -0.0204529 2.44305e-05 0.000621983)
(0.0112006 3.2752e-05 -1.22426e-05 -0.0178736 0.000282803 0.000635993)
(0.00776486 5.2464e-05 -7.13249e-06 -0.0125621 0.000470707 0.00049826)
(0.0049334 7.56609e-05 -7.54421e-07 -0.00806577 0.00058001 0.000280438)
(0.00266923 9.95183e-05 5.58552e-06 -0.00438908 0.000607113 5.06081e-05)
(0.00113769 0.000107412 9.92244e-06 -0.00183485 0.000538096 -0.000122099)