/*--------------------------------*- C++ -*----------------------------------*\
| =========                 |                                                 |
| \\      /  F ield         | foam-extend: Open Source CFD                    |
|  \\    /   O peration     | Version:     3.1                                |
|   \\  /    A nd           | Web:         http://www.extend-project.de       |
|    \\/     M anipulation  |                                                 |
\*---------------------------------------------------------------------------*/
FoamFile
{
    version     2.0;
    format      ascii;
    class       pointVectorField;
    location    "2.6";
    object      pointD;
}
// * * * * * * * * * * * * * * * * * * * * * * * * * * * * * * * * * * * * * //

dimensions      [0 1 0 0 0 0 0];

internalField   nonuniform List<vector> 
405
(
(0 0 0)
(0 0 0)
(0 0 0)
(0 0 0)
(0 0 0)
(0.000945077 0.00099971 0.000421434)
(0.000581382 0.000341739 0.000262742)
(0.000450271 -2.13461e-05 -2.25978e-05)
(0.000516153 -0.000392715 -0.000315559)
(0.000792995 -0.00104955 -0.000497924)
(0.00189054 0.00146903 0.000291814)
(0.00159251 0.000597963 0.000178134)
(0.00143757 -2.63334e-05 -4.06808e-05)
(0.00148619 -0.000655468 -0.000272792)
(0.00167139 -0.00153419 -0.000425347)
(0.00316206 0.00194708 0.00017817)
(0.00288057 0.000838163 0.000105309)
(0.00272854 -3.96212e-05 -5.76623e-05)
(0.00274979 -0.000923065 -0.00023387)
(0.00289042 -0.00204837 -0.000350734)
(0.00459349 0.00227616 2.43833e-05)
(0.00435292 0.00100453 1.45647e-05)
(0.00421051 -6.3599e-05 -7.09198e-05)
(0.0042066 -0.00113675 -0.000169774)
(0.00428874 -0.00242406 -0.000224917)
(0.00613339 0.00249187 -0.000119127)
(0.00592686 0.00111106 -6.90936e-05)
(0.00579423 -9.60907e-05 -8.22153e-05)
(0.00577094 -0.00130567 -0.000107947)
(0.00580843 -0.00269653 -0.000101559)
(0.00771194 0.00260998 -0.000241701)
(0.00753246 0.00116734 -0.000141312)
(0.00740874 -0.00013363 -9.35806e-05)
(0.00737184 -0.00143284 -5.58882e-05)
(0.00737741 -0.00287547 6.12137e-06)
(0.00928744 0.00266823 -0.000336526)
(0.00912192 0.00118975 -0.000201958)
(0.00900056 -0.000171233 -0.000107494)
(0.00895463 -0.0015271 -1.99034e-05)
(0.00894485 -0.00298883 8.37673e-05)
(0.010855 0.00269063 -0.000393051)
(0.0106649 0.00119781 -0.000242482)
(0.0105097 -0.000199299 -0.000121128)
(0.0104719 -0.00159492 -7.21223e-06)
(0.0104751 -0.00306486 0.000114469)
(0 0 0)
(0 0 0)
(0 0 0)
(0 0 0)
(0 0 0)
(0.00102139 0.000945002 0.00024436)
(0.000672512 0.000299423 0.000151241)
(0.000566835 -1.33792e-05 -1.88976e-05)
(0.0006196 -0.0003264 -0.000198247)
(0.000884488 -0.000966574 -0.000312032)
(0.00197262 0.00150948 0.000202293)
(0.00169417 0.000629212 0.000120303)
(0.00156941 -2.31045e-05 -3.61344e-05)
(0.00160463 -0.00067716 -0.000203728)
(0.00177744 -0.00156473 -0.000314664)
(0.00320029 0.00199288 0.000112755)
(0.00294324 0.000876399 6.35053e-05)
(0.0028214 -3.72252e-05 -4.9867e-05)
(0.00283117 -0.000954535 -0.000174805)
(0.002956 -0.00208612 -0.00025676)
(0.00458368 0.00233018 -7.39077e-07)
(0.00436468 0.00104965 -3.44849e-06)
(0.00424963 -5.94427e-05 -6.12066e-05)
(0.00423697 -0.00117219 -0.000130657)
(0.00430626 -0.00246708 -0.000166687)
(0.00607159 0.00254305 -0.00011268)
(0.0058846 0.00115536 -6.86084e-05)
(0.00577681 -8.83485e-05 -7.14396e-05)
(0.00574683 -0.00133383 -8.52794e-05)
(0.00577329 -0.0027303 -7.28844e-05)
(0.00760425 0.00265513 -0.000210418)
(0.0074418 0.00120791 -0.000126016)
(0.00734021 -0.000121437 -8.22687e-05)
(0.00729821 -0.001449 -4.75958e-05)
(0.00729461 -0.00289501 9.20929e-06)
(0.00914355 0.00270397 -0.00028606)
(0.0089924 0.00122286 -0.00017339)
(0.00889034 -0.000155332 -9.55655e-05)
(0.00884143 -0.001528 -2.46472e-05)
(0.00882476 -0.00298987 6.61864e-05)
(0.010694 0.00271956 -0.000329329)
(0.0105172 0.00122501 -0.000204114)
(0.0103799 -0.000181793 -0.000109348)
(0.0103392 -0.00158583 -2.2998e-05)
(0.0103359 -0.00305354 8.1129e-05)
(0 0 0)
(0 0 0)
(0 0 0)
(0 0 0)
(0 0 0)
(0.0010757 0.000955071 0.000127694)
(0.000707832 0.000298385 7.7469e-05)
(0.000596186 -1.06285e-05 -1.68236e-05)
(0.000653792 -0.000319811 -0.000117755)
(0.00093194 -0.000975528 -0.000179935)
(0.00203425 0.00150018 0.000109804)
(0.00173852 0.000628374 6.12225e-05)
(0.00160687 -1.92558e-05 -3.1887e-05)
(0.00164938 -0.000669228 -0.000132342)
(0.00183772 -0.00155249 -0.000195714)
(0.00323758 0.00197955 5.42773e-05)
(0.00297436 0.000879507 2.41326e-05)
(0.00285018 -3.23605e-05 -4.41097e-05)
(0.00286248 -0.000948254 -0.000119712)
(0.00299225 -0.00206459 -0.000165624)
(0.00459087 0.00231698 -2.12447e-05)
(0.00436857 0.0010553 -2.23206e-05)
(0.00425269 -5.24176e-05 -5.43813e-05)
(0.00424051 -0.00116374 -9.36646e-05)
(0.00431173 -0.00243957 -0.000110085)
(0.0060438 0.00253251 -9.96435e-05)
(0.00585599 0.00116369 -6.93716e-05)
(0.00574845 -7.84916e-05 -6.3846e-05)
(0.00571736 -0.00132182 -6.48979e-05)
(0.00574279 -0.00269761 -4.8428e-05)
(0.00754321 0.0026495 -0.000170567)
(0.00738119 0.00121848 -0.000112009)
(0.00728074 -0.000108606 -7.39818e-05)
(0.00723657 -0.00143245 -4.11566e-05)
(0.00722994 -0.00285867 6.38775e-06)
(0.00905448 0.00270578 -0.000226849)
(0.00890512 0.00123521 -0.000147459)
(0.0088049 -0.000139981 -8.65032e-05)
(0.00875301 -0.00150705 -2.93924e-05)
(0.00873156 -0.00295168 4.29545e-05)
(0.0105891 0.00272702 -0.000256883)
(0.0104152 0.00123868 -0.000169419)
(0.0102795 -0.000164534 -0.000100916)
(0.0102327 -0.00156117 -3.84878e-05)
(0.0102218 -0.00301335 4.148e-05)
(0 0 0)
(0 0 0)
(0 0 0)
(0 0 0)
(0 0 0)
(0.00110192 0.000961734 5.96255e-05)
(0.000719069 0.000298407 3.59352e-05)
(0.000600757 -9.07159e-06 -1.4338e-05)
(0.000661553 -0.000317078 -6.86754e-05)
(0.000950757 -0.00098018 -9.94074e-05)
(0.00206252 0.00148978 4.69493e-05)
(0.00175328 0.000624338 2.42626e-05)
(0.00161372 -1.58155e-05 -2.69921e-05)
(0.00166032 -0.000658798 -8.26327e-05)
(0.00185988 -0.00153716 -0.000113404)
(0.00325543 0.00196066 1.10506e-05)
(0.00298222 0.000874475 -8.42181e-07)
(0.00285174 -2.68522e-05 -3.75207e-05)
(0.00286639 -0.000932475 -7.83511e-05)
(0.00300454 -0.00203544 -9.82925e-05)
(0.00459009 0.00229551 -3.85592e-05)
(0.00436165 0.0010511 -3.27086e-05)
(0.004241 -4.44455e-05 -4.65485e-05)
(0.00422943 -0.00114346 -6.42533e-05)
(0.00430541 -0.00240153 -6.57951e-05)
(0.00602085 0.0025129 -9.18638e-05)
(0.00582991 0.00116203 -6.58432e-05)
(0.0057188 -6.77615e-05 -5.50191e-05)
(0.00568698 -0.00129801 -4.74962e-05)
(0.00571402 -0.00265421 -2.76097e-05)
(0.00749794 0.00263531 -0.000141651)
(0.00733492 0.00122046 -9.67348e-05)
(0.00723192 -9.51114e-05 -6.42139e-05)
(0.00718595 -0.00140597 -3.40109e-05)
(0.00717828 -0.00281282 6.82365e-06)
(0.0089894 0.0027 -0.000182291)
(0.008841 0.0012414 -0.00012293)
(0.00873887 -0.00012398 -7.56959e-05)
(0.00868384 -0.00147871 -2.99305e-05)
(0.00865848 -0.00290522 2.82296e-05)
(0.0105111 0.00272972 -0.000203619)
(0.0103391 0.00124955 -0.000139404)
(0.0102007 -0.000146222 -8.97917e-05)
(0.0101475 -0.00153201 -4.35936e-05)
(0.0101295 -0.00296753 1.88568e-05)
(0 0 0)
(0 0 0)
(0 0 0)
(0 0 0)
(0 0 0)
(0.00111297 0.000963956 2.3923e-05)
(0.000720522 0.000298302 1.42052e-05)
(0.000597714 -7.81224e-06 -1.14041e-05)
(0.00065991 -0.000314487 -3.93622e-05)
(0.000955546 -0.000979039 -5.3197e-05)
(0.00207292 0.001482 1.26164e-05)
(0.00175393 0.000621313 4.59963e-06)
(0.00160882 -1.25826e-05 -2.15677e-05)
(0.00165712 -0.000649345 -5.03177e-05)
(0.00186377 -0.00152307 -6.28908e-05)
(0.00325938 0.00194644 -1.20959e-05)
(0.00297772 0.000869963 -1.30083e-05)
(0.00284229 -2.14004e-05 -3.01866e-05)
(0.00285802 -0.000917029 -4.96737e-05)
(0.00300213 -0.00201026 -5.47983e-05)
(0.00458281 0.00227845 -4.51916e-05)
(0.00434813 0.00104677 -3.49571e-05)
(0.00422343 -3.65988e-05 -3.77122e-05)
(0.00421211 -0.00112319 -4.24832e-05)
(0.00429204 -0.00236803 -3.58263e-05)
(0.00599973 0.00249655 -8.11948e-05)
(0.00580464 0.00115945 -5.80784e-05)
(0.00569033 -5.74264e-05 -4.49094e-05)
(0.00565798 -0.0012742 -3.33132e-05)
(0.00568689 -0.00261536 -1.28205e-05)
(0.00746216 0.00262245 -0.000115707)
(0.00729668 0.00122076 -8.01564e-05)
(0.00719121 -8.23662e-05 -5.28355e-05)
(0.00714398 -0.00137973 -2.64028e-05)
(0.00713618 -0.00277101 7.96072e-06)
(0.00893975 0.00269279 -0.00014467)
(0.00879029 0.00124518 -9.92945e-05)
(0.00868601 -0.000109026 -6.27719e-05)
(0.00862866 -0.00145092 -2.66141e-05)
(0.00860111 -0.00286194 1.95092e-05)
(0.0104509 0.00272814 -0.000159448)
(0.0102783 0.00125703 -0.000111332)
(0.0101368 -0.000129081 -7.51649e-05)
(0.010079 -0.00150329 -4.08115e-05)
(0.0100567 -0.0029239 7.56013e-06)
(0 0 0)
(0 0 0)
(0 0 0)
(0 0 0)
(0 0 0)
(0.00111672 0.000963992 6.92137e-06)
(0.000718726 0.000298176 3.90191e-06)
(0.000593108 -6.73718e-06 -8.36937e-06)
(0.000655798 -0.000312119 -2.19486e-05)
(0.000954651 -0.000975565 -2.73665e-05)
(0.00207469 0.00147656 -2.8296e-06)
(0.00174943 0.000619593 -3.82948e-06)
(0.00160072 -9.72678e-06 -1.5998e-05)
(0.00164963 -0.000641794 -2.96673e-05)
(0.00186034 -0.00151144 -3.33021e-05)
(0.00325639 0.00193716 -1.99964e-05)
(0.00296889 0.000867332 -1.6094e-05)
(0.00283008 -1.65705e-05 -2.25685e-05)
(0.0028462 -0.000904617 -3.03174e-05)
(0.00299393 -0.00199093 -2.87026e-05)
(0.00457265 0.00226722 -4.1992e-05)
(0.00433325 0.00104425 -3.09582e-05)
(0.00420567 -2.97268e-05 -2.83925e-05)
(0.00419437 -0.0011067 -2.68669e-05)
(0.00427691 -0.00234236 -1.76226e-05)
(0.00598075 0.00248547 -6.59234e-05)
(0.00578218 0.00115807 -4.66876e-05)
(0.00566552 -4.85234e-05 -3.40561e-05)
(0.00563282 -0.00125458 -2.21492e-05)
(0.00566312 -0.00258513 -4.04041e-06)
(0.00743348 0.00261328 -8.92705e-05)
(0.0072656 0.00122129 -6.19699e-05)
(0.00715827 -7.15609e-05 -4.0363e-05)
(0.00711024 -0.00135792 -1.90306e-05)
(0.00710259 -0.00273779 8.07295e-06)
(0.00890123 0.00268686 -0.000109288)
(0.00875031 0.00124802 -7.54508e-05)
(0.00864434 -9.65026e-05 -4.82539e-05)
(0.0085855 -0.00142763 -2.10231e-05)
(0.0085568 -0.00282679 1.38229e-05)
(0.010404 0.0027257 -0.00011941)
(0.01023 0.00126248 -8.40131e-05)
(0.0100861 -0.000114786 -5.80699e-05)
(0.0100253 -0.00147898 -3.31207e-05)
(0.0100007 -0.0028878 2.8689e-06)
(0 0 0)
(0 0 0)
(0 0 0)
(0 0 0)
(0 0 0)
(0.00111748 0.000963303 2.805e-07)
(0.000716453 0.00029809 -6.69508e-08)
(0.000589167 -5.90493e-06 -5.44255e-06)
(0.000651957 -0.00031026 -1.15039e-05)
(0.000952256 -0.000971997 -1.31708e-05)
(0.00207332 0.00147298 -6.91712e-06)
(0.0017443 0.000618757 -5.54631e-06)
(0.00159339 -7.50179e-06 -1.0522e-05)
(0.00164245 -0.00063637 -1.63243e-05)
(0.00185534 -0.00150286 -1.64103e-05)
(0.00325154 0.00193154 -1.79714e-05)
(0.00296035 0.000866107 -1.34197e-05)
(0.00281942 -1.28217e-05 -1.49518e-05)
(0.00283562 -0.000895772 -1.71578e-05)
(0.0029854 -0.0019774 -1.38116e-05)
(0.00456316 0.00226053 -3.1619e-05)
(0.00432061 0.00104318 -2.27286e-05)
(0.00419117 -2.44425e-05 -1.89238e-05)
(0.00417981 -0.00109489 -1.56365e-05)
(0.00426391 -0.00232456 -7.62135e-06)
(0.00596566 0.00247878 -4.64086e-05)
(0.00576463 0.00115773 -3.25857e-05)
(0.00564643 -4.17565e-05 -2.2834e-05)
(0.00561348 -0.00124043 -1.34022e-05)
(0.00564469 -0.00256398 -4.68e-08)
(0.00741212 0.00260751 -6.09866e-05)
(0.00724242 0.00122212 -4.22696e-05)
(0.00713382 -6.34416e-05 -2.72189e-05)
(0.00708533 -0.00134204 -1.22203e-05)
(0.00707787 -0.00271421 6.57106e-06)
(0.00887322 0.00268277 -7.36582e-05)
(0.008721 0.00125024 -5.09149e-05)
(0.00861385 -8.71807e-05 -3.26831e-05)
(0.00855416 -0.00141054 -1.43375e-05)
(0.00852493 -0.00280144 9.16353e-06)
(0.0103699 0.00272354 -8.00599e-05)
(0.0101946 0.00126629 -5.64618e-05)
(0.0100489 -0.000104204 -3.94265e-05)
(0.00998643 -0.00146095 -2.29396e-05)
(0.00996068 -0.00286139 1.11091e-06)
(0 0 0)
(0 0 0)
(0 0 0)
(0 0 0)
(0 0 0)
(0.00111733 0.000962657 -9.91928e-07)
(0.000714821 0.000298045 -7.34159e-07)
(0.000586657 -5.37986e-06 -2.67091e-06)
(0.000649421 -0.000309086 -4.90028e-06)
(0.000950285 -0.000969506 -5.22432e-06)
(0.00207164 0.00147095 -4.80642e-06)
(0.00174066 0.00061841 -3.57972e-06)
(0.00158856 -6.09696e-06 -5.20649e-06)
(0.00163761 -0.000633116 -7.19986e-06)
(0.00185154 -0.00149762 -6.62005e-06)
(0.00324769 0.00192856 -1.0258e-05)
(0.00295451 0.000865647 -7.45005e-06)
(0.00281241 -1.04611e-05 -7.43612e-06)
(0.00282859 -0.000890508 -7.71317e-06)
(0.0029794 -0.0019694 -5.4239e-06)
(0.00455662 0.00225705 -1.68364e-05)
(0.00431232 0.00104287 -1.19543e-05)
(0.00418185 -2.11341e-05 -9.44996e-06)
(0.00417042 -0.00108786 -7.15965e-06)
(0.00425532 -0.00231412 -2.63429e-06)
(0.00595597 0.00247528 -2.394e-05)
(0.00575351 0.00115784 -1.67215e-05)
(0.00563445 -3.75502e-05 -1.14471e-05)
(0.00560137 -0.00123196 -6.29253e-06)
(0.00563306 -0.00255153 7.60455e-07)
(0.00739884 0.00260442 -3.09787e-05)
(0.00722805 0.00122284 -2.14334e-05)
(0.00711874 -5.843e-05 -1.36947e-05)
(0.00707001 -0.00133248 -5.95241e-06)
(0.00706269 -0.00270022 3.67347e-06)
(0.00885605 0.00268043 -3.71418e-05)
(0.00870299 0.00125168 -2.56678e-05)
(0.00859518 -8.14594e-05 -1.64858e-05)
(0.00853505 -0.0014002 -7.22967e-06)
(0.00850562 -0.00278627 4.62971e-06)
(0.0103491 0.0027221 -4.02643e-05)
(0.0101728 0.00126856 -2.84054e-05)
(0.0100261 -9.77292e-05 -1.9907e-05)
(0.00996283 -0.00144996 -1.16621e-05)
(0.00993656 -0.00284543 4.17236e-07)
(0 0 0)
(0 0 0)
(0 0 0)
(0 0 0)
(0 0 0)
(0.00111719 0.000962408 -0)
(0.000714242 0.000298031 -0)
(0.000585805 -5.2007e-06 0)
(0.000648548 -0.000308686 0)
(0.000949554 -0.000968626 0)
(0.00207095 0.00147028 -0)
(0.00173936 0.000618319 0)
(0.0015869 -5.61767e-06 0)
(0.00163593 -0.000632032 0)
(0.00185016 -0.00149586 0)
(0.00324626 0.00192762 -0)
(0.00295245 0.000865539 0)
(0.00280999 -9.65673e-06 0)
(0.00282616 -0.000888762 0)
(0.00297727 -0.00196675 0)
(0.00455431 0.00225597 -0)
(0.00430944 0.00104282 0)
(0.00417864 -2.00097e-05 0)
(0.00416719 -0.00108552 0)
(0.00425234 -0.00231068 0)
(0.00595263 0.00247419 -0)
(0.00574971 0.00115793 0)
(0.00563037 -3.61252e-05 0)
(0.00559724 -0.00122914 0)
(0.00562909 -0.00254743 0)
(0.00739433 0.00260344 -0)
(0.00722317 0.00122312 0)
(0.00711364 -5.67375e-05 0)
(0.00706484 -0.0013293 0)
(0.00705756 -0.0026956 0)
(0.00885023 0.00267966 -0)
(0.00869691 0.00125218 0)
(0.00858888 -7.95316e-05 0)
(0.00852862 -0.00139674 0)
(0.00849914 -0.00278123 0)
(0.010342 0.00272157 -0)
(0.0101655 0.0012693 -0)
(0.0100185 -9.55482e-05 0)
(0.0099549 -0.00144628 0)
(0.00992849 -0.00284011 0)
)
;

boundaryField
{
    interface
    {
        type            calculated;
    }
    symmetry
    {
        type            symmetryPlane;
    }
    bottom
    {
        type            fixedValue;
        value           uniform (0 0 0);
    }
}


// ************************************************************************* //
