/*--------------------------------*- C++ -*----------------------------------*\
| =========                 |                                                 |
| \\      /  F ield         | foam-extend: Open Source CFD                    |
|  \\    /   O peration     | Version:     3.1                                |
|   \\  /    A nd           | Web:         http://www.extend-project.de       |
|    \\/     M anipulation  |                                                 |
\*---------------------------------------------------------------------------*/
FoamFile
{
    version     2.0;
    format      ascii;
    class       volSymmTensorField;
    location    "2.6";
    object      sigma;
}
// * * * * * * * * * * * * * * * * * * * * * * * * * * * * * * * * * * * * * //

dimensions      [1 -1 -2 0 0 0 0];

internalField   nonuniform List<symmTensor> 
256
(
(191.028 66.3369 -2.98482 432.328 35.09 220.545)
(25.3511 56.5693 -8.8412 87.3469 12.223 34.3272)
(-60.2381 52.8145 -9.03989 -120.842 -17.0541 -60.2966)
(-216.781 56.1021 -3.67812 -445.463 -42.0385 -234.501)
(-81.9199 27.7054 -3.50341 128.339 -10.6399 -24.868)
(-34.9967 72.8386 -13.9455 46.9026 -4.74089 -11.2358)
(-1.96206 71.3462 -14.4131 -57.2682 2.71397 -4.09872)
(43.0032 26.7143 -5.07569 -140.189 7.81406 9.6302)
(-30.1207 33.8171 -1.48903 156.733 -5.70094 25.2729)
(-35.7911 70.3885 -9.51648 42.2836 -2.32069 -6.05)
(-7.88503 70.44 -9.83441 -51.3856 0.402991 -9.56005)
(-7.60024 34.203 -3.04278 -161.587 3.55895 -34.2647)
(-41.9282 29.5216 -1.47765 104.772 -8.33753 10.1356)
(-36.4317 64.0592 -7.77421 28.7638 -2.85961 -7.2718)
(-7.30556 64.4876 -7.99371 -36.2158 1.348 -5.80121)
(4.417 30.4299 -3.13956 -106.885 6.7843 -15.8874)
(-38.0978 25.5127 -1.07323 71.8269 -7.66057 9.89609)
(-33.9312 54.9663 -6.16611 18.4271 -2.47933 -5.90041)
(-8.62954 55.6366 -6.34662 -25.6282 1.28476 -5.47059)
(1.46674 26.8118 -2.72661 -72.6817 6.60657 -13.5961)
(-38.1781 19.6198 -1.12104 41.0566 -6.68817 6.56616)
(-32.2539 43.8553 -5.27245 8.80858 -2.17516 -5.56101)
(-9.03661 44.8543 -5.33528 -16.8333 1.13018 -5.02466)
(2.09425 21.585 -2.59257 -41.9152 6.04181 -9.62615)
(-37.0193 12.6627 -1.61174 21.9089 -5.48384 6.64838)
(-31.9387 31.636 -4.9525 1.38223 -2.09442 -5.42503)
(-9.34953 32.6766 -4.807 -10.6425 0.708026 -5.25065)
(2.90215 15.4501 -2.6483 -20.8012 4.70705 -8.17735)
(-47.4099 6.88819 -2.20072 5.64464 -2.93984 1.59998)
(-44.0679 17.6507 -4.6807 -8.35596 -1.30213 -11.7628)
(-3.4909 17.3245 -4.59437 -2.02294 -0.0279127 -1.76866)
(9.63252 7.47914 -3.07876 -6.63081 1.70614 -5.81399)
(191.819 75.6019 -1.93547 427.315 21.857 228.632)
(30.5886 68.2837 -7.13294 89.3586 7.00781 40.8137)
(-55.1303 65.0734 -7.74847 -108.733 -12.1853 -57.2832)
(-208.768 65.9168 -3.36508 -427.117 -28.9095 -233.069)
(-47.2904 28.675 -2.85172 174.077 -3.57663 16.5915)
(-11.345 75.4525 -13.1298 72.868 -2.45268 11.9748)
(-23.6079 74.6174 -14.4134 -83.9298 -0.916483 -27.1718)
(7.35572 28.73 -5.85224 -188.515 -0.503871 -32.0726)
(-24.3333 29.8576 -1.29098 161.551 -8.94429 29.9917)
(-24.1591 64.8401 -10.3616 50.6752 -3.63016 1.77557)
(-14.0334 65.0307 -11.6966 -57.6273 1.62265 -14.9963)
(-11.1008 30.2455 -4.69513 -165.538 6.62304 -36.9265)
(-31.2905 24.7051 -0.124962 113.517 -11.2695 19.1805)
(-24.2128 55.8981 -7.34345 37.2496 -3.94539 0.652004)
(-13.1268 56.2963 -8.71403 -41.4603 2.81687 -11.36)
(-3.52801 25.4779 -3.81986 -113.901 10.1254 -22.9555)
(-30.5287 20.2378 0.932092 76.207 -11.2497 15.5624)
(-23.7136 46.189 -4.94159 24.5579 -3.71472 -0.182175)
(-11.9557 46.7568 -6.30943 -27.5744 3.16463 -8.62823)
(-3.21267 21.3581 -2.82129 -74.5943 10.9606 -17.2654)
(-30.8847 14.9083 1.44613 44.9798 -9.89446 12.2692)
(-23.1451 35.9859 -3.35513 13.9478 -3.22794 -0.749563)
(-11.1533 36.8521 -4.59602 -17.1144 2.87637 -7.01872)
(-2.11569 16.7326 -2.09285 -42.5525 10.148 -12.9985)
(-30.6488 8.86443 1.36618 24.8696 -7.64911 11.6425)
(-24.5895 25.5615 -2.63161 4.87128 -2.70071 -2.11281)
(-10.4166 26.5412 -3.65691 -9.64701 2.01202 -6.07527)
(-0.0880977 11.7794 -1.67126 -19.6785 7.89643 -10.2886)
(-40.772 5.08844 0.8071 9.37691 -4.08545 6.76274)
(-37.8362 14.6201 -2.65541 -5.44621 -1.60159 -9.4258)
(-5.68181 14.2469 -3.84316 -2.25391 0.708271 -3.37277)
(5.22587 5.82501 -2.22463 -7.36854 3.77376 -9.07662)
(198.903 79.4303 -1.31251 438.172 11.0213 243.876)
(33.2348 71.3443 -4.59811 93.2992 3.00761 46.7097)
(-55.7592 67.9452 -5.10813 -108.84 -7.61186 -60.6819)
(-215.789 68.9997 -2.36705 -436.108 -16.6927 -247.789)
(-47.893 29.2859 -2.33037 175.184 -2.2515 29.9997)
(-9.56158 76.8483 -8.9824 76.6929 -1.89564 19.7444)
(-25.3371 76.0669 -10.0661 -86.0321 -1.32424 -33.9246)
(5.32731 29.3408 -4.57233 -190.622 -1.17107 -47.9189)
(-24.9037 29.4739 -1.55896 163.538 -6.74754 38.6692)
(-23.4228 64.447 -7.79579 53.4858 -2.98173 6.98187)
(-14.9979 64.6317 -8.95025 -59.2915 1.0803 -19.4542)
(-13.2136 29.6606 -4.05589 -168.704 4.79175 -48.6633)
(-32.1234 23.8333 -0.609537 114.414 -9.01321 23.3316)
(-23.5085 53.8976 -5.71809 39.3042 -3.3517 4.22444)
(-13.97 54.2803 -6.88804 -42.1563 2.4721 -13.9261)
(-5.83436 24.4949 -3.21691 -116.256 8.22832 -30.5748)
(-32.2145 18.9623 0.258955 75.9688 -9.37155 15.8651)
(-23.0755 43.5394 -3.72013 26.2639 -3.20247 2.25823)
(-12.6694 44.1379 -4.86517 -27.6641 3.04565 -9.77871)
(-4.75478 20.1103 -2.31725 -75.5894 9.486 -20.9285)
(-32.8578 13.5339 0.790725 44.2934 -8.44216 10.1361)
(-22.5266 33.3004 -2.30397 15.3846 -2.76772 0.89534)
(-11.7395 34.2906 -3.33944 -16.6969 2.94786 -7.04395)
(-3.26449 15.6047 -1.58749 -42.6686 9.13161 -13.7693)
(-32.3205 7.52093 0.84998 24.4425 -6.5672 8.20742)
(-24.0108 23.3698 -1.69688 6.06751 -2.20349 -1.11153)
(-11.0019 24.5761 -2.59799 -8.95653 2.20691 -5.23363)
(-0.989065 10.9788 -1.21077 -19.1475 7.34971 -8.78202)
(-43.0757 4.42181 0.308203 7.9105 -3.32572 1.2224)
(-37.6956 13.5195 -2.14112 -4.61804 -1.16355 -9.23304)
(-6.72515 13.2775 -3.28643 -1.44973 0.8146 -1.59214)
(5.23903 5.51843 -1.97249 -5.28699 3.46301 -4.25517)
(202.64 80.8428 -0.750504 444.392 4.86571 253.071)
(34.1622 71.9476 -2.76647 95.2497 0.911182 49.8853)
(-56.3954 68.3018 -3.1085 -109.217 -4.64699 -63.0195)
(-219.454 69.7679 -1.48165 -440.895 -9.18222 -256.584)
(-48.9874 29.4762 -1.44867 175.007 -1.89677 39.2717)
(-9.93705 77.5203 -5.68221 77.8951 -1.53392 23.8803)
(-25.7961 76.6964 -6.42634 -85.8764 -1.13771 -37.6677)
(4.93698 29.5064 -3.03632 -190.241 -0.776609 -58.2735)
(-25.5441 29.6573 -1.14156 164.576 -4.73898 46.6863)
(-24.3791 64.8483 -5.33579 54.4271 -2.19974 10.1125)
(-15.3507 65.0315 -6.13598 -59.1777 0.639229 -22.4327)
(-13.8353 29.7947 -2.90036 -169.121 3.24623 -57.6686)
(-32.8848 23.814 -0.571189 115.476 -6.36251 28.619)
(-24.4662 53.8479 -4.12257 40.1478 -2.44229 6.44927)
(-14.457 54.2507 -4.91122 -41.9826 1.80833 -15.9093)
(-6.46463 24.488 -2.35957 -116.689 5.85598 -36.8574)
(-32.9572 18.7594 0.0252581 77.0554 -6.78749 18.5977)
(-23.944 43.1406 -2.76933 27.0988 -2.34377 3.71212)
(-13.2412 43.807 -3.51837 -27.4108 2.38958 -10.7632)
(-5.37619 20.0229 -1.69765 -75.8593 7.06166 -24.4093)
(-33.5021 13.1859 0.423926 45.4566 -6.28948 10.887)
(-23.2678 32.7184 -1.76074 16.2169 -2.04572 1.77285)
(-12.3164 33.847 -2.42287 -16.3206 2.4219 -7.11344)
(-3.87396 15.5178 -1.13669 -42.7259 7.04976 -14.8491)
(-32.5666 7.07302 0.465086 25.9495 -5.05289 7.7517)
(-24.6426 22.8112 -1.42042 6.88425 -1.64205 -0.632448)
(-11.6543 24.205 -2.00219 -8.48509 1.87873 -4.5109)
(-1.63985 10.9457 -0.887069 -18.899 5.85121 -7.85241)
(-43.2629 4.20312 -0.0988984 9.2287 -2.69858 -0.230346)
(-38.442 13.2066 -2.14055 -3.77995 -0.898909 -8.93279)
(-7.92534 13.0356 -2.93796 -1.05765 0.717901 -0.194855)
(4.47647 5.51885 -1.66884 -4.69363 2.82466 -1.43611)
(204.09 81.2445 -0.385399 447.094 1.74705 257.744)
(34.5108 71.7484 -1.58108 96.2573 -0.0314444 51.5804)
(-56.7049 67.9129 -1.79627 -109.169 -2.7821 -64.3045)
(-220.7 69.6926 -0.87053 -442.188 -4.87164 -260.83)
(-49.9538 29.4539 -0.796006 174.78 -1.63487 44.8137)
(-10.4069 77.6619 -3.39803 78.538 -1.20727 26.2399)
(-26.1206 76.8018 -3.87925 -85.3854 -0.846501 -39.9341)
(4.70287 29.4887 -1.86985 -189.652 -0.369994 -64.6267)
(-26.3796 29.791 -0.702213 164.957 -3.27747 51.9456)
(-25.208 65.1842 -3.41189 54.97 -1.54864 12.0727)
(-15.6722 65.3841 -3.93592 -58.6952 0.370288 -24.4249)
(-14.0284 29.9411 -1.88922 -168.716 2.19317 -63.5223)
(-33.7568 23.9533 -0.394086 116.057 -4.27876 32.5421)
(-25.3024 54.186 -2.76788 40.7316 -1.66258 7.95842)
(-14.8583 54.6245 -3.27253 -41.5561 1.2312 -17.3708)
(-6.68928 24.6841 -1.57725 -116.403 3.96472 -41.3026)
(-33.747 18.8424 -0.0332901 77.8406 -4.60761 21.0266)
(-24.7107 43.379 -1.9448 27.7388 -1.58942 4.77141)
(-13.6837 44.1107 -2.41109 -27.0145 1.70608 -11.5779)
(-5.64542 20.2287 -1.14965 -75.6491 4.89832 -27.1324)
(-34.1703 13.1744 0.212799 46.392 -4.37264 12.0251)
(-23.9226 32.8306 -1.3204 16.9009 -1.40693 2.4894)
(-12.7657 34.064 -1.72232 -15.9272 1.77932 -7.2814)
(-4.16059 15.717 -0.783073 -42.4848 5.01689 -15.9027)
(-32.9595 6.95668 0.196566 27.1148 -3.62975 8.06198)
(-25.2336 22.8303 -1.20501 7.55618 -1.15906 -0.155543)
(-12.174 24.3433 -1.55671 -8.09301 1.40169 -4.0968)
(-1.94967 11.1234 -0.663319 -18.4977 4.25368 -7.42157)
(-43.8261 4.14972 -0.344088 10.0905 -2.00095 -0.812912)
(-39.2935 13.2015 -1.99286 -3.23258 -0.654249 -8.71253)
(-8.81648 13.0445 -2.50399 -0.723814 0.529571 0.695059)
(4.08465 5.59808 -1.36971 -4.1288 2.0699 0.299277)
(204.522 81.2659 -0.173288 448.072 0.363804 259.977)
(34.6356 71.3705 -0.851762 96.8007 -0.335298 52.4704)
(-56.7845 67.4035 -0.980442 -108.885 -1.59964 -64.9307)
(-220.855 69.3858 -0.479748 -441.923 -2.46146 -262.647)
(-50.575 29.3489 -0.38281 174.679 -1.27661 48.0002)
(-10.7596 77.5549 -1.90677 78.9532 -0.876046 27.5493)
(-26.3348 76.6708 -2.20193 -84.8735 -0.566907 -41.2635)
(4.48681 29.4038 -1.0719 -189.127 -0.118759 -68.3666)
(-26.9928 29.8373 -0.37028 165.195 -2.1686 55.1707)
(-25.7732 65.3423 -2.02614 55.3563 -1.02707 13.2389)
(-15.9257 65.5612 -2.3516 -58.205 0.211193 -25.6911)
(-14.1259 30.018 -1.13217 -168.198 1.43234 -67.0982)
(-34.3949 24.0629 -0.217481 116.447 -2.73118 35.1518)
(-25.8782 54.4753 -1.71393 41.1608 -1.06249 8.91347)
(-15.1421 54.9464 -2.02216 -41.1086 0.785606 -18.3502)
(-6.79331 24.8544 -0.967159 -115.958 2.54338 -44.1687)
(-34.3258 18.9506 -0.0189158 78.3843 -2.94091 22.8483)
(-25.239 43.6807 -1.25673 28.2156 -1.00751 5.49589)
(-13.9758 44.4633 -1.53557 -26.6087 1.12007 -12.1632)
(-5.7675 20.438 -0.716614 -75.2719 3.17317 -29.0137)
(-34.6528 13.2317 0.113265 47.0522 -2.83839 13.1262)
(-24.3763 33.0685 -0.913713 17.4052 -0.903421 3.03376)
(-13.0545 34.3755 -1.14901 -15.5572 1.18621 -7.44668)
(-4.30163 15.9274 -0.503581 -42.1332 3.2977 -16.7623)
(-33.2632 6.93134 0.0668024 27.9203 -2.41759 8.68896)
(-25.6592 22.9725 -0.925279 8.03473 -0.763966 0.253963)
(-12.5155 24.5629 -1.1299 -7.7666 0.938536 -3.88343)
(-2.10954 11.3003 -0.466102 -18.0893 2.8314 -7.33632)
(-44.1877 4.12971 -0.366411 10.8089 -1.37288 -0.628646)
(-39.9228 13.2567 -1.59591 -2.83873 -0.446081 -8.46163)
(-9.41447 13.1005 -1.90876 -0.471263 0.348215 1.16613)
(3.78099 5.66423 -1.01456 -3.76703 1.38594 1.06445)
(204.564 81.1882 -0.0659965 448.32 -0.0816813 260.96)
(34.676 71.0524 -0.408823 97.0921 -0.305017 52.9177)
(-56.7656 67.0031 -0.476938 -108.583 -0.819893 -65.2017)
(-220.659 69.1029 -0.234749 -441.261 -1.12066 -263.313)
(-50.9473 29.2446 -0.157331 174.628 -0.812368 49.686)
(-10.9834 77.3963 -0.946268 79.2164 -0.532394 28.232)
(-26.4554 76.4982 -1.10557 -84.4706 -0.321726 -41.9885)
(4.33298 29.3196 -0.540867 -188.726 -0.0108287 -70.4099)
(-27.3875 29.8366 -0.16615 165.344 -1.2459 56.9591)
(-26.1132 65.3858 -1.05067 55.621 -0.588425 13.8803)
(-16.0911 65.6193 -1.22803 -57.8332 0.109466 -26.4288)
(-14.1795 30.0451 -0.590349 -167.782 0.817403 -69.1087)
(-34.8055 24.121 -0.0994649 116.689 -1.52415 36.6787)
(-26.2258 54.6444 -0.91785 41.4526 -0.59129 9.46512)
(-15.3172 55.1387 -1.08404 -40.764 0.435789 -18.9401)
(-6.84699 24.9589 -0.513422 -115.587 1.42286 -45.8427)
(-34.704 19.0224 -0.00401572 78.7096 -1.63601 23.9939)
(-25.5575 43.8897 -0.696045 28.5328 -0.556365 5.94202)
(-14.1469 44.7059 -0.844373 -26.2946 0.63091 -12.53)
(-5.82296 20.5791 -0.38615 -74.9384 1.77939 -30.1646)
(-34.973 13.2782 0.0561648 47.4381 -1.59548 13.9089)
(-24.6503 33.2506 -0.534344 17.7314 -0.50368 3.39687)
(-13.219 34.6035 -0.657736 -15.2775 0.672968 -7.56717)
(-4.36633 16.0725 -0.279928 -41.8259 1.86217 -17.3456)
(-33.4835 6.92545 0.0115146 28.3838 -1.38306 9.22916)
(-25.921 23.0881 -0.581113 8.33623 -0.434463 0.551686)
(-12.7134 24.7247 -0.68789 -7.53314 0.532419 -3.78519)
(-2.18199 11.4198 -0.278552 -17.7684 1.60893 -7.38212)
(-44.4404 4.12186 -0.267212 11.2449 -0.804246 -0.305221)
(-40.3249 13.3053 -1.02175 -2.59589 -0.259858 -8.25893)
(-9.77084 13.1438 -1.1911 -0.296877 0.194874 1.38867)
(3.59844 5.7043 -0.623928 -3.52751 0.789638 1.34932)
(204.525 81.1281 -0.0161786 448.34 -0.0722092 261.319)
(34.6865 70.88 -0.120206 97.2209 -0.11701 53.1035)
(-56.7354 66.7912 -0.141449 -108.399 -0.251393 -65.2967)
(-220.484 68.9444 -0.0698076 -440.806 -0.318899 -263.504)
(-51.1214 29.1836 -0.0411649 174.605 -0.278579 50.4046)
(-11.0909 77.2942 -0.283796 79.3457 -0.178682 28.5211)
(-26.5076 76.3896 -0.333996 -84.2514 -0.103916 -42.3057)
(4.2554 29.2705 -0.163705 -188.508 0.00652101 -71.3062)
(-27.578 29.8261 -0.0464581 165.417 -0.407396 57.7455)
(-26.2719 65.3874 -0.323101 55.7567 -0.191948 14.1615)
(-16.1709 65.6286 -0.379282 -57.6355 0.0339925 -26.7666)
(-14.2035 30.0506 -0.181992 -167.556 0.266519 -70.0076)
(-35.0032 24.1434 -0.0282324 116.807 -0.490739 37.3726)
(-26.3881 54.7165 -0.287452 41.6007 -0.189936 9.7148)
(-15.3996 55.2225 -0.339819 -40.5801 0.139601 -19.2154)
(-6.87062 25.0057 -0.159977 -115.385 0.458417 -46.6089)
(-34.8876 19.0552 -0.000337812 78.8608 -0.525539 24.537)
(-25.7061 43.9893 -0.222221 28.6906 -0.177936 6.15241)
(-14.2249 44.8217 -0.268649 -26.1264 0.203435 -12.7049)
(-5.84453 20.6465 -0.121505 -74.7517 0.573281 -30.7056)
(-35.1293 13.3004 0.0163363 47.6129 -0.515139 14.3053)
(-24.7783 33.341 -0.175903 17.8899 -0.161927 3.57648)
(-13.2925 34.7157 -0.214211 -15.1289 0.217593 -7.62896)
(-4.39128 16.1427 -0.0898214 -41.6536 0.601537 -17.6365)
(-33.5942 6.92285 -0.0018423 28.5899 -0.450975 9.52733)
(-26.044 23.1465 -0.198401 8.48008 -0.141207 0.705867)
(-12.8027 24.8036 -0.231401 -7.41167 0.172065 -3.74823)
(-2.21049 11.4765 -0.09307 -17.5968 0.52104 -7.4346)
(-44.5587 4.11996 -0.0982552 11.4479 -0.267196 -0.0874287)
(-40.5151 13.3321 -0.351227 -2.47939 -0.0857318 -8.14672)
(-9.9376 13.1642 -0.404724 -0.208081 0.0628336 1.47218)
(3.50863 5.72103 -0.211028 -3.41135 0.256159 1.42406)
)
;

boundaryField
{
    interface
    {
        type            calculated;
        value           nonuniform List<symmTensor> 
192
(
(-25.5295 -0.0345136 2.32701 448.448 43.5429 133.833)
(-25.0384 0.0180576 3.90414 215.33 -12.8083 22.9906)
(-25.2052 -0.025121 4.65223 214.574 -7.75892 44.8524)
(-25.251 -0.201872 5.02155 153.313 -11.7175 33.1555)
(-25.4607 -0.564447 5.18047 105.729 -10.9704 28.4053)
(-25.7047 -1.16553 5.15256 64.5884 -9.58868 23.1783)
(-25.8082 -2.19616 4.89025 39.3505 -7.52503 21.9198)
(-24.5016 -3.80065 4.22701 26.8653 -3.8792 24.0036)
(-28.5275 0.123323 1.62709 441.681 27.4226 141.961)
(-28.3322 0.226779 2.74763 237.058 -3.89189 41.7736)
(-29.0721 0.198118 3.26489 211.832 -11.6344 42.9766)
(-29.7008 -0.0467871 3.51084 152.336 -15.2263 33.2753)
(-30.2287 -0.527532 3.59462 102.253 -15.3904 27.3179)
(-30.4589 -1.31028 3.53304 61.363 -13.6056 22.9611)
(-29.93 -2.62424 3.29748 36.7667 -10.3698 22.6119)
(-26.5261 -4.50674 2.81681 26.3544 -5.44283 26.3727)
(-30.5021 0.1623 1.1454 449.692 13.9374 154.073)
(-30.1581 0.284816 1.9287 234.473 -2.30087 55.5815)
(-30.9983 0.263008 2.26277 211.335 -8.49023 50.947)
(-31.7297 -0.012905 2.40196 151.47 -11.7831 35.7991)
(-32.2813 -0.561875 2.43309 100.935 -12.4627 25.5593)
(-32.3729 -1.45395 2.37149 60.1841 -11.3441 18.478)
(-31.3886 -2.92048 2.20797 36.4171 -8.8362 16.7421)
(-26.923 -4.89946 1.915 25.7831 -4.5206 19.1686)
(-31.9095 0.164654 0.826423 454.352 6.16328 161.839)
(-31.4379 0.289437 1.39495 232.835 -2.05733 66.5626)
(-32.2712 0.268072 1.62652 211.282 -5.87686 60.1164)
(-33.0001 -0.02656 1.71263 151.839 -8.18111 41.5836)
(-33.5098 -0.618374 1.72297 101.513 -8.90312 28.0123)
(-33.4679 -1.57781 1.67391 61.0392 -8.36173 18.3619)
(-32.1782 -3.13381 1.56571 37.8078 -6.77726 14.9882)
(-27.0775 -5.15552 1.37905 27.1606 -3.68785 16.4291)
(-32.913 0.158986 0.588746 456.163 2.21707 165.9)
(-32.362 0.279009 0.998467 232.008 -1.88186 73.3711)
(-33.1678 0.25366 1.16228 211.307 -4.06502 66.5878)
(-33.8831 -0.0541546 1.21949 152.243 -5.46844 46.4049)
(-34.341 -0.67351 1.22284 102.221 -6.00701 30.8497)
(-34.1956 -1.67534 1.18812 61.9828 -5.78865 19.4653)
(-32.7003 -3.28819 1.11833 39.0717 -4.86853 14.9294)
(-27.1736 -5.33428 0.995833 28.3852 -2.7486 15.5948)
(-33.6064 0.153027 0.396121 456.572 0.465693 167.858)
(-33.0086 0.266731 0.67481 231.574 -1.52293 77.2809)
(-33.7866 0.236543 0.785859 211.4 -2.70517 70.6332)
(-34.498 -0.080746 0.823435 152.58 -3.49077 49.7136)
(-34.9099 -0.718239 0.824926 102.766 -3.83019 33.1235)
(-34.6912 -1.74674 0.802575 62.6827 -3.7566 20.7639)
(-33.06 -3.39642 0.759207 39.9702 -3.24982 15.5602)
(-27.2473 -5.4577 0.680315 29.3758 -1.89453 15.8665)
(-34.0457 0.149243 0.227479 456.467 -0.0992292 168.714)
(-33.4246 0.257868 0.389054 231.325 -0.98714 79.3279)
(-34.1884 0.222947 0.453362 211.476 -1.56311 72.8802)
(-34.8873 -0.100636 0.474391 152.809 -1.95241 51.6692)
(-35.2726 -0.748789 0.475385 103.102 -2.13324 34.5854)
(-35.0084 -1.7937 0.463067 63.0965 -2.11436 21.7372)
(-33.2931 -3.46627 0.438045 40.4961 -1.8638 16.1968)
(-27.3031 -5.53454 0.390781 29.9973 -1.11426 16.3546)
(-34.2503 0.146867 0.0734656 456.322 -0.0897546 169.027)
(-33.6185 0.252413 0.126008 231.211 -0.341114 80.1968)
(-34.3727 0.214924 0.14677 211.523 -0.512773 73.8734)
(-35.0623 -0.111301 0.153446 152.931 -0.629714 52.5677)
(-35.4352 -0.764261 0.153795 103.267 -0.686057 35.2912)
(-35.15 -1.81831 0.149871 63.2908 -0.6834 22.2462)
(-33.3844 -3.50386 0.141137 40.7435 -0.608721 16.5772)
(-27.2925 -5.56657 0.124176 30.3095 -0.371192 16.7004)
(38.7695 59.8258 -2.82575 288.086 -0.640218 -12.267)
(-83.3212 27.1882 -4.8591 117.074 -1.01282 -8.76559)
(-56.5109 37.2997 -5.86637 132.9 -1.08047 -5.87567)
(-57.163 33.553 -6.4623 92.1813 -1.01757 -3.79211)
(-50.8551 29.7338 -6.88459 62.7846 -0.999458 -2.55906)
(-47.5571 23.2634 -7.22734 35.4468 -1.11284 -2.05736)
(-45.6303 15.4688 -7.63403 17.0935 -1.38059 -2.20806)
(-53.027 8.20029 -8.51975 3.05401 -1.70574 -2.99883)
(-6.07171 47.2976 -1.82409 59.8492 -0.509912 -10.625)
(-43.3596 71.1201 -3.31757 37.3334 -0.937072 -9.26212)
(-44.1664 75.3567 -3.95249 38.1234 -1.09668 -7.53602)
(-42.9465 70.4275 -4.27833 26.3492 -0.997988 -6.17087)
(-39.9512 61.5588 -4.51366 16.6642 -0.832688 -5.33191)
(-37.552 49.606 -4.76419 7.48938 -0.723837 -4.97864)
(-36.4343 36.0239 -5.18719 0.636056 -0.71798 -5.01032)
(-43.8888 19.8614 -6.34158 -4.9651 -0.740473 -5.11876)
(-28.3612 42.956 -1.41702 -95.5078 -0.348644 -9.47646)
(2.49041 69.0296 -2.76626 -48.3824 -0.778278 -9.09373)
(-3.3033 75.2769 -3.36789 -47.4886 -1.00094 -8.00178)
(-5.6279 70.8736 -3.65888 -35.2108 -0.932322 -7.04565)
(-8.03261 62.3346 -3.85114 -26.1686 -0.736326 -6.44981)
(-9.28745 50.7874 -4.07228 -18.4053 -0.547275 -6.21047)
(-10.001 37.2384 -4.48549 -12.6863 -0.424806 -6.26217)
(-6.44664 19.6553 -5.63139 -5.97118 -0.350268 -6.38017)
(-71.2749 48.6765 -1.32821 -311.27 -0.308784 -8.0446)
(43.6303 25.1527 -2.75575 -127.28 -0.761958 -8.08069)
(14.8091 37.5354 -3.44335 -139.717 -1.00456 -7.14674)
(14.8669 34.5015 -3.78814 -97.3887 -0.949356 -6.32906)
(8.97016 31.1927 -3.99746 -67.5294 -0.73997 -5.8028)
(6.20531 25.4777 -4.22179 -40.6303 -0.509697 -5.56165)
(5.19289 18.4309 -4.62522 -21.7 -0.290831 -5.53018)
(10.3855 8.86628 -5.70066 -8.2744 -0.051288 -5.69683)
(-4.72916 0.31553 0.29701 -447.492 -52.1617 -143.61)
(-3.81823 0.644804 0.524771 -221.709 9.19007 -30.6363)
(-2.66615 0.8195 0.562229 -212.499 5.31523 -44.9828)
(-1.77872 0.770721 0.566053 -147.347 10.1125 -29.1362)
(-1.10192 0.612142 0.628855 -97.9546 10.0372 -22.2142)
(-0.453143 0.431242 0.788064 -55.9771 9.2618 -16.184)
(0.573919 0.145977 1.05476 -27.5433 7.25231 -13.6028)
(3.19261 -0.962164 1.38395 -13.8411 2.86339 -14.3037)
(-5.37528 0.151477 -0.100617 -435.977 -35.7249 -150.082)
(-5.26117 0.35326 -0.16773 -248.324 -0.815824 -51.0758)
(-4.77473 0.489451 -0.22893 -213.67 8.99602 -45.2517)
(-4.2796 0.499554 -0.259229 -150.363 14.0406 -32.2574)
(-3.79979 0.445529 -0.220763 -98.2106 15.2731 -24.5707)
(-3.24691 0.389117 -0.105498 -55.8071 14.2724 -19.2661)
(-2.22328 0.257884 0.0713979 -26.6754 11.2973 -16.7078)
(0.677858 -0.724398 0.308224 -13.842 5.65632 -17.7357)
(-5.709 0.0789142 -0.163895 -444.043 -20.2538 -163.782)
(-5.80106 0.209498 -0.258931 -247.411 -1.28187 -68.6608)
(-5.52177 0.328553 -0.287408 -214.951 6.46421 -58.2096)
(-5.15941 0.386963 -0.279109 -151.565 11.0525 -40.3316)
(-4.72582 0.416427 -0.221819 -98.6938 12.7565 -28.322)
(-4.14224 0.448959 -0.115214 -55.8329 12.3729 -19.7094)
(-3.096 0.408866 0.0127392 -26.287 10.1777 -14.5624)
(-0.247375 -0.434554 0.132953 -12.2886 5.10125 -12.4095)
(-5.95313 0.0511251 -0.148538 -448.199 -10.819 -172.415)
(-6.10103 0.145454 -0.227287 -246.239 -0.609025 -81.572)
(-5.89693 0.256443 -0.228162 -214.882 4.41544 -69.4893)
(-5.59092 0.351126 -0.195423 -151.834 7.75474 -48.2594)
(-5.17085 0.445606 -0.131012 -98.9102 9.32872 -32.6631)
(-4.52385 0.547229 -0.0401872 -55.8585 9.38189 -20.9446)
(-3.39413 0.558988 0.0517346 -25.8836 7.99011 -13.1934)
(-0.641782 -0.199356 0.108184 -11.4664 4.12558 -8.7969)
(-6.13155 0.0413706 -0.111355 -449.209 -5.52148 -176.969)
(-6.29402 0.121261 -0.166019 -245.424 -0.0735428 -89.5967)
(-6.11784 0.233192 -0.152453 -214.417 3.03818 -77.0686)
(-5.82764 0.355049 -0.111674 -151.56 5.23102 -54.0861)
(-5.39507 0.493653 -0.0527894 -98.7216 6.41402 -36.2392)
(-4.70403 0.639419 0.0150698 -55.5924 6.6182 -22.3253)
(-3.5226 0.681037 0.0715421 -25.3417 5.77737 -12.639)
(-0.860728 -0.0265591 0.0936654 -10.7721 3.02591 -6.6981)
(-6.24795 0.0396302 -0.072319 -448.826 -2.65796 -179.19)
(-6.40998 0.116667 -0.104766 -244.798 0.174504 -94.2633)
(-6.24002 0.233943 -0.0874474 -213.913 2.02002 -81.7012)
(-5.95044 0.374743 -0.0509464 -151.143 3.36219 -57.8547)
(-5.50322 0.540435 -0.00538872 -98.3544 4.14293 -38.7387)
(-4.7804 0.710845 0.0398966 -55.197 4.33652 -23.4849)
(-3.57747 0.767229 0.0708746 -24.8099 3.84354 -12.5759)
(-0.980713 0.0890127 0.0743348 -10.2785 2.03484 -5.77137)
(-6.31533 0.0406059 -0.0392137 -448.122 -1.14851 -180.186)
(-6.47342 0.119152 -0.0552729 -244.341 0.194568 -96.7775)
(-6.30204 0.242118 -0.0421661 -213.513 1.1676 -84.2892)
(-6.00907 0.394881 -0.0178877 -150.79 1.88748 -60.0432)
(-5.54778 0.575209 0.0101674 -98.0178 2.32309 -40.2654)
(-4.80852 0.757772 0.0355921 -54.8493 2.44777 -24.2784)
(-3.59912 0.820083 0.0505254 -24.4042 2.18665 -12.6834)
(-1.04441 0.158043 0.0463023 -9.95078 1.16423 -5.43781)
(-6.3447 0.0416908 -0.0122209 -447.655 -0.314727 -180.555)
(-6.49948 0.12165 -0.0169235 -244.094 0.0795377 -97.8684)
(-6.32656 0.247791 -0.0122227 -213.294 0.383136 -85.4391)
(-6.03361 0.406164 -0.00389208 -150.596 0.60953 -61.04)
(-5.56662 0.593061 0.00535867 -97.8289 0.748864 -40.9832)
(-4.81866 0.780881 0.0135488 -54.6555 0.790948 -24.6761)
(-3.60529 0.843961 0.0179798 -24.189 0.708844 -12.7778)
(-1.08378 0.189637 0.0150311 -9.79682 0.378451 -5.36094)
(-57.4645 9.06017 -2.38987 -2.51101 -1.88452 -3.35449)
(-52.3016 8.48081 0.452952 -0.928641 -1.53776 0.245495)
(-52.862 8.39606 -0.131049 0.333706 -1.17698 -4.29365)
(-53.2212 8.43439 -0.576186 1.3217 -0.897844 -6.27146)
(-53.9315 8.49943 -0.792214 2.05472 -0.672447 -7.25214)
(-54.4841 8.56221 -0.716646 2.57323 -0.47473 -7.36542)
(-54.8587 8.61065 -0.487865 2.89351 -0.292064 -7.20285)
(-55.0721 8.63513 -0.173606 2.98434 -0.101708 -7.09132)
(-48.5436 6.6981 -4.43525 -4.18264 -0.506328 -10.898)
(-44.0768 5.70575 -2.83375 -3.42365 -0.447442 -10.2872)
(-44.1396 5.42531 -2.66832 -2.55635 -0.323971 -10.3975)
(-45.1331 5.32933 -2.82752 -1.83516 -0.241279 -10.2115)
(-46.1895 5.29417 -2.67271 -1.30288 -0.183757 -10.0899)
(-46.9867 5.28367 -2.14094 -0.928202 -0.132459 -9.91179)
(-47.4929 5.28611 -1.36727 -0.683695 -0.0806212 -9.74681)
(-47.7191 5.29725 -0.468946 -0.544412 -0.0269905 -9.63777)
(-3.8235 5.81378 -4.52674 -5.38486 0.0893477 -4.34521)
(-5.98807 4.70309 -4.2977 -4.88896 0.023832 -5.67306)
(-7.57302 4.31618 -4.11386 -4.24278 0.0283125 -3.46438)
(-9.07896 4.13872 -3.86541 -3.72061 0.0199062 -1.59814)
(-10.2057 4.04294 -3.35535 -3.34217 0.00759367 -0.435974)
(-10.9681 3.98781 -2.56804 -3.0796 0.000341826 0.160702)
(-11.4316 3.95722 -1.60203 -2.91208 -0.0002281 0.42871)
(-11.6442 3.94273 -0.543803 -2.81782 0.000625287 0.531561)
(12.7725 5.68817 -3.3992 -4.89632 0.480929 -6.52109)
(8.81968 4.5929 -2.89108 -4.47532 0.252609 -9.17817)
(7.70762 4.16538 -2.80649 -4.08692 0.157614 -4.02181)
(6.60334 3.9458 -2.46758 -3.75377 0.105953 -0.512503)
(5.90252 3.81488 -2.04741 -3.50963 0.0686891 1.58845)
(5.40181 3.73345 -1.51784 -3.34185 0.0417026 2.52515)
(5.08878 3.68499 -0.931565 -3.23728 0.0221064 2.86358)
(4.93443 3.65975 -0.314501 -3.18773 0.00692479 2.94859)
)
;
    }
    symmetry
    {
        type            symmetryPlane;
    }
    bottom
    {
        type            calculated;
        value           nonuniform List<symmTensor> 
32
(
(224.819 81.3348 0 337.228 92.5771 224.819)
(219.313 91.4065 0 328.969 46.2956 219.313)
(225.628 95.9237 0 338.442 22.6939 225.628)
(229.431 97.4805 0 344.147 10.5784 229.431)
(231.17 97.8925 0 346.755 4.52873 231.17)
(231.879 97.9153 0 347.819 1.68243 231.879)
(232.122 97.8455 0 348.182 0.493242 232.122)
(232.183 97.7909 0 348.275 0.0878902 232.183)
(42.5101 34.8458 0 63.7652 27.7028 42.5101)
(43.5222 46.4007 0 65.2834 14.3708 43.5222)
(46.258 48.3145 0 69.3871 6.8215 46.258)
(47.6006 47.9632 0 71.4009 2.86965 47.6006)
(48.2972 47.2202 0 72.4458 0.958891 48.2972)
(48.6785 46.5782 0 73.0177 0.152358 48.6785)
(48.8842 46.1481 0 73.3263 -0.0839952 48.8842)
(48.9753 45.9368 0 73.4629 -0.0537721 48.9753)
(-62.9405 30.929 0 -94.4107 -33.2373 -62.9405)
(-57.2923 42.5671 0 -85.9385 -19.4339 -57.2923)
(-58.2041 44.024 0 -87.3062 -11.4635 -58.2041)
(-58.7365 43.2674 0 -88.1048 -6.71496 -58.7365)
(-58.8778 42.2352 0 -88.3167 -3.86134 -58.8778)
(-58.8233 41.3986 0 -88.235 -2.1343 -58.8233)
(-58.717 40.8481 0 -88.0754 -1.058 -58.717)
(-58.6443 40.5796 0 -87.9664 -0.318063 -58.6443)
(-229.638 68.901 0 -344.456 -102.506 -229.638)
(-219.592 77.8768 0 -329.388 -55.4749 -219.592)
(-225.928 80.8398 0 -338.891 -29.9716 -225.928)
(-229.289 81.2071 0 -343.934 -15.8999 -229.289)
(-230.438 80.7607 0 -345.657 -8.1956 -230.438)
(-230.58 80.1899 0 -345.87 -4.03416 -230.58)
(-230.396 79.7443 0 -345.594 -1.79559 -230.396)
(-230.233 79.5089 0 -345.349 -0.503734 -230.233)
)
;
    }
}


// ************************************************************************* //
