/*--------------------------------*- C++ -*----------------------------------*\
| =========                 |                                                 |
| \\      /  F ield         | foam-extend: Open Source CFD                    |
|  \\    /   O peration     | Version:     3.1                                |
|   \\  /    A nd           | Web:         http://www.extend-project.de       |
|    \\/     M anipulation  |                                                 |
\*---------------------------------------------------------------------------*/
FoamFile
{
    version     2.0;
    format      ascii;
    class       volSymmTensorField;
    location    "2.6";
    object      sigmaCauchy;
}
// * * * * * * * * * * * * * * * * * * * * * * * * * * * * * * * * * * * * * //

dimensions      [1 -1 -2 0 0 0 0];

internalField   nonuniform List<symmTensor> 
256
(
(189.953 78.1575 -1.06378 446.01 39.6962 216.618)
(27.7275 58.4606 -8.34246 87.3913 12.3651 34.3295)
(-58.4944 50.5097 -9.6094 -120.374 -16.5932 -60.4719)
(-220.463 46.2592 -5.3939 -431.074 -36.4219 -239.345)
(-77.5065 35.3186 -3.68252 130.747 -11.1623 -24.561)
(-28.8626 75.3971 -13.9415 44.5782 -5.17311 -10.9575)
(3.4517 68.8902 -14.4097 -59.4283 2.36795 -3.86876)
(45.6529 20.0739 -5.04876 -137.323 7.61246 9.81944)
(-25.6292 42.9172 -1.72702 158.097 -6.2914 25.1276)
(-28.2565 73.4642 -9.50602 38.3074 -2.57531 -5.90951)
(-1.01978 67.796 -9.83961 -55.2153 0.197461 -9.46449)
(-4.75978 26.4726 -2.95723 -159.95 3.21455 -34.6037)
(-37.3759 37.4075 -2.01907 103.79 -8.79561 10.1698)
(-28.5993 66.8921 -7.89719 23.7833 -2.88994 -7.1932)
(-0.0204234 62.3325 -7.88042 -41.0493 1.33224 -5.74462)
(7.55492 24.0489 -2.7551 -107.554 6.47906 -15.9469)
(-34.0566 31.7907 -1.69095 69.8299 -7.8889 9.94285)
(-26.7505 57.3517 -6.33935 13.3178 -2.3223 -5.8758)
(-1.84319 54.095 -6.21809 -30.62 1.4396 -5.45628)
(4.47168 22.1457 -2.26741 -74.4299 6.47879 -13.6149)
(-35 24.2155 -1.73239 38.957 -6.71763 6.61286)
(-26.3774 45.7458 -5.46863 4.27248 -1.89154 -5.57043)
(-3.39205 43.9363 -5.22638 -21.3116 1.40266 -5.03548)
(4.64467 18.6841 -2.14217 -43.9119 6.08254 -9.62163)
(-34.8629 16.1005 -2.17279 20.3497 -5.39001 6.68233)
(-27.6714 33.1984 -5.16887 -2.11238 -1.74752 -5.45745)
(-5.23787 32.2783 -4.74559 -14.1161 1.03646 -5.27812)
(4.76358 13.8627 -2.28431 -22.4378 4.85402 -8.17819)
(-45.9069 9.99036 -2.63967 4.65963 -2.77397 1.59273)
(-41.5204 19.4424 -4.86818 -10.4556 -0.968145 -11.8343)
(-1.36168 17.2767 -4.59129 -3.93877 0.288559 -1.80208)
(10.5393 6.45615 -2.89663 -7.43676 1.90451 -5.82966)
(191.719 88.2465 -0.680221 439.845 24.5279 224.421)
(33.8692 70.4052 -6.83679 89.2672 7.05839 40.698)
(-52.3951 62.6927 -8.20451 -108.592 -11.9268 -57.5154)
(-211.186 55.3775 -4.62299 -414.497 -25.3807 -237.916)
(-43.4712 37.1225 -2.82053 178.05 -3.80473 16.463)
(-5.04382 78.6206 -13.1374 70.8001 -2.65817 12.0695)
(-17.9547 71.4989 -14.5067 -85.8456 -1.00629 -27.1795)
(9.43363 21.2931 -6.07503 -184.103 -0.35004 -32.4431)
(-20.4552 38.787 -1.69713 163.385 -9.43394 29.8035)
(-17.3892 67.9752 -10.4655 47.0413 -3.66176 1.87005)
(-7.82513 62.3489 -11.6273 -61.1439 1.66836 -14.9562)
(-8.76556 22.6769 -4.44847 -163.469 6.43679 -37.3012)
(-27.5765 32.4279 -0.800189 113.208 -11.711 19.163)
(-17.5893 58.7479 -7.54758 32.9007 -3.86066 0.702126)
(-6.95686 54.1935 -8.52754 -45.7 2.96555 -11.344)
(-1.11316 19.3035 -3.27228 -113.968 9.93718 -23.0775)
(-27.3452 26.2807 0.153069 74.8657 -11.5705 15.6068)
(-17.8639 48.5233 -5.18815 20.2322 -3.55931 -0.163631)
(-6.42027 45.365 -6.08439 -31.8164 3.37851 -8.63075)
(-0.964462 16.9975 -2.14065 -75.7494 10.8645 -17.2962)
(-28.4656 19.2991 0.697507 43.4787 -10.0936 12.3393)
(-18.4635 37.7985 -3.6032 10.1964 -3.04206 -0.748122)
(-6.6367 36.1145 -4.39475 -20.8354 3.11636 -7.03256)
(-0.234302 14.1331 -1.42842 -44.0019 10.151 -12.9918)
(-29.0974 12.1127 0.733098 23.7937 -7.76379 11.7157)
(-21.2356 27.0077 -2.86231 2.02965 -2.50566 -2.12222)
(-7.14718 26.3216 -3.52617 -12.4946 2.25433 -6.09492)
(1.28135 10.4831 -1.14295 -20.8963 7.96286 -10.2785)
(-39.6137 8.03722 0.357284 8.63869 -4.12385 6.80851)
(-35.7693 16.285 -2.83123 -7.19383 -1.40575 -9.46458)
(-3.95067 14.3274 -3.80012 -3.83958 0.958924 -3.39524)
(5.9075 5.02709 -1.94045 -7.98522 3.89948 -9.07853)
(198.839 92.808 -0.665429 450.79 12.4006 239.392)
(36.7616 73.6001 -4.47512 93.1949 3.01649 46.5411)
(-52.7926 65.5047 -5.39916 -108.765 -7.44113 -60.9836)
(-218.338 57.919 -3.10069 -423.521 -14.6003 -253.014)
(-43.9123 37.7967 -2.30743 178.96 -2.35977 29.8057)
(-3.08763 80.1148 -9.01408 74.6229 -1.99856 19.7423)
(-19.524 72.91 -10.1649 -87.9956 -1.32197 -34.0406)
(7.44206 21.8614 -4.75091 -186.449 -0.971805 -48.3983)
(-21.0554 38.41 -1.8643 165.418 -7.05356 38.4428)
(-16.7008 67.6599 -7.8986 49.933 -2.95849 7.01528)
(-8.85565 61.9387 -8.91108 -62.7553 1.17696 -19.4858)
(-11.0035 22.1349 -3.87611 -166.628 4.72734 -49.1201)
(-28.5203 31.5238 -1.13776 114.235 -9.30481 23.2809)
(-17.1813 56.8011 -5.89798 35.162 -3.25029 4.24556)
(-8.10336 52.2267 -6.73527 -46.2133 2.63392 -13.9463)
(-3.59109 18.4214 -2.77539 -116.228 8.12545 -30.759)
(-29.1958 24.9834 -0.367086 74.8098 -9.58918 15.8833)
(-17.628 45.9293 -3.93313 22.2237 -3.07099 2.26718)
(-7.53362 42.8231 -4.66415 -31.6419 3.23124 -9.79516)
(-2.70176 15.8695 -1.74148 -76.6004 9.42729 -20.9928)
(-30.6123 17.9319 0.181772 42.9828 -8.5812 10.179)
(-18.2466 35.1672 -2.51453 11.9355 -2.63544 0.897253)
(-7.60861 33.6447 -3.14884 -20.1398 3.12966 -7.05896)
(-1.55382 13.1229 -1.00886 -43.9763 9.13177 -13.7796)
(-30.9314 10.8064 0.339965 23.5446 -6.65075 8.25107)
(-20.973 24.8628 -1.88338 3.4795 -2.07424 -1.11577)
(-8.01837 24.4504 -2.46684 -11.5805 2.38147 -5.24826)
(0.262968 9.79669 -0.74171 -20.262 7.39471 -8.78027)
(-41.9914 7.39918 -0.0267034 7.25289 -3.33992 1.2344)
(-35.7791 15.2275 -2.26972 -6.23541 -1.01224 -9.26528)
(-5.12592 13.4677 -3.24742 -2.9238 1.02308 -1.60778)
(5.87563 4.8562 -1.73887 -5.86915 3.57707 -4.26495)
(202.488 94.5543 -0.46613 457.076 5.4875 248.526)
(37.7247 74.2483 -2.73606 95.1523 0.899344 49.7049)
(-53.4123 65.8598 -3.286 -109.164 -4.53377 -63.346)
(-222.189 58.5101 -1.88037 -428.346 -8.00316 -261.913)
(-44.9014 37.987 -1.47508 178.618 -1.9808 39.0793)
(-3.38616 80.8153 -5.73098 75.8269 -1.58703 23.8471)
(-19.9308 73.5763 -6.50407 -87.8805 -1.10505 -37.8211)
(7.06853 22.0714 -3.1361 -186.305 -0.623656 -58.7632)
(-21.655 38.5907 -1.37452 166.402 -4.94048 46.4596)
(-17.6159 68.0997 -5.42633 50.9008 -2.16401 10.1196)
(-9.19339 62.383 -6.11539 -62.6475 0.733716 -22.4961)
(-11.6433 22.3377 -2.76586 -167.183 3.22808 -58.1381)
(-29.273 31.51 -0.954998 115.318 -6.55349 28.5546)
(-18.1706 56.801 -4.26228 36.0656 -2.35104 6.45695)
(-8.63965 52.2537 -4.80276 -46.0054 1.94531 -15.9473)
(-4.25172 18.4932 -2.03874 -116.711 5.80231 -37.0636)
(-29.9617 24.8086 -0.432969 75.9568 -6.93199 18.6003)
(-18.5797 45.593 -2.93121 23.1454 -2.23473 3.71677)
(-8.19547 42.5553 -3.36651 -31.324 2.53722 -10.7862)
(-3.36094 15.8571 -1.26908 -76.8735 7.02838 -24.4914)
(-31.2984 17.637 -0.0293393 44.2202 -6.38288 10.9144)
(-19.0895 34.6556 -1.92088 12.8636 -1.94053 1.77463)
(-8.28177 33.2665 -2.27321 -19.6898 2.56124 -7.12855)
(-2.19513 13.1036 -0.695228 -44.0212 7.05244 -14.8709)
(-31.2295 10.4299 0.0781908 25.1275 -5.10806 7.78116)
(-21.6902 24.3764 -1.56223 4.37818 -1.53702 -0.635498)
(-8.74306 24.1476 -1.89694 -11.0495 2.01528 -4.52266)
(-0.405384 9.83501 -0.522662 -20.0056 5.88731 -7.85634)
(-42.2017 7.2498 -0.356601 8.60919 -2.69179 -0.228275)
(-36.56 14.9948 -2.23745 -5.35367 -0.757786 -8.96272)
(-6.36518 13.3136 -2.90926 -2.49754 0.900253 -0.205401)
(5.104 4.94517 -1.49076 -5.2764 2.92457 -1.44571)
(203.856 95.0696 -0.286832 459.793 1.97489 253.211)
(38.0413 74.0587 -1.59073 96.1725 -0.0501677 51.399)
(-53.7649 65.4955 -1.90222 -109.127 -2.70897 -64.636)
(-223.554 58.4397 -1.07782 -429.735 -4.23394 -266.144)
(-45.8103 37.9509 -0.850527 178.301 -1.71022 44.6416)
(-3.84882 80.9668 -3.4509 76.4875 -1.23563 26.1994)
(-20.2661 73.7315 -3.93433 -87.4086 -0.809411 -40.0964)
(6.82824 22.1159 -1.9145 -185.874 -0.270029 -65.0978)
(-22.4525 38.7172 -0.88096 166.737 -3.4151 51.7375)
(-18.417 68.4586 -3.48736 51.4649 -1.51619 12.0714)
(-9.5049 62.7904 -3.9247 -62.1746 0.446426 -24.4986)
(-11.8405 22.557 -1.78621 -166.903 2.18844 -63.9755)
(-30.1107 31.6594 -0.665848 115.892 -4.40371 32.4807)
(-18.9849 57.1759 -2.87137 36.6707 -1.59103 7.96181)
(-9.03108 52.6835 -3.19987 -45.5826 1.33521 -17.4148)
(-4.47196 18.7611 -1.35223 -116.5 3.93581 -41.5079)
(-30.7313 24.9243 -0.35417 76.7585 -4.70134 21.0254)
(-19.3383 45.8798 -2.06134 23.8074 -1.50511 4.77519)
(-8.63462 42.9133 -2.30543 -30.9261 1.81651 -11.6027)
(-3.62283 16.1253 -0.849239 -76.7055 4.88017 -27.2187)
(-31.9601 17.6776 -0.108422 45.1814 -4.43242 12.046)
(-19.7484 34.8231 -1.43597 13.5697 -1.32459 2.49185)
(-8.73236 33.5347 -1.616 -19.2921 1.88416 -7.2957)
(-2.47139 13.3563 -0.469622 -43.8063 5.02204 -15.929)
(-31.6287 10.3773 -0.0837681 26.3232 -3.662 8.08512)
(-22.2892 24.453 -1.3086 5.06917 -1.07245 -0.157421)
(-9.26516 24.337 -1.48194 -10.6533 1.50898 -4.10623)
(-0.702979 10.0666 -0.401864 -19.6243 4.28445 -7.42748)
(-42.7608 7.25996 -0.533709 9.48561 -1.98045 -0.814979)
(-37.4083 15.0545 -2.06316 -4.79642 -0.528383 -8.74064)
(-7.26445 13.3882 -2.48653 -2.15677 0.68252 0.689121)
(4.71485 5.08701 -1.24442 -4.72199 2.1539 0.292728)
(204.228 95.11 -0.155958 460.762 0.413895 255.47)
(38.1226 73.6787 -0.872415 96.7281 -0.352761 52.2897)
(-53.8932 65.0153 -1.04138 -108.85 -1.55485 -65.2606)
(-223.773 58.1983 -0.58223 -429.576 -2.13339 -267.915)
(-46.407 37.8288 -0.439803 178.16 -1.33882 47.8459)
(-4.22408 80.8636 -1.95216 76.9257 -0.89153 27.5086)
(-20.5137 73.6459 -2.23787 -86.9033 -0.536521 -41.4254)
(6.59686 22.0904 -1.08681 -185.446 -0.0601199 -68.8177)
(-23.0448 38.7564 -0.499241 166.954 -2.26106 54.9807)
(-18.9752 68.6323 -2.08325 51.8727 -1.00328 13.236)
(-9.76215 63.015 -2.34538 -61.6882 0.264995 -25.7664)
(-11.9429 22.6963 -1.05774 -166.474 1.43018 -67.5316)
(-30.7222 31.7773 -0.400354 116.278 -2.81112 35.0977)
(-19.5402 57.4913 -1.78572 37.1128 -1.01264 8.91636)
(-9.30133 53.0521 -1.97632 -45.1426 0.857025 -18.395)
(-4.56798 18.9901 -0.81768 -116.116 2.52708 -44.366)
(-31.2879 25.0568 -0.231236 77.3078 -2.99991 22.8485)
(-19.8442 46.2155 -1.3354 24.2896 -0.948386 5.50023)
(-8.90656 43.3091 -1.46755 -30.5311 1.196 -12.1878)
(-3.73067 16.3857 -0.5194 -76.3693 3.1634 -29.0983)
(-32.4284 17.7714 -0.100634 45.8516 -2.87535 13.1457)
(-20.1851 35.0988 -0.991801 14.0759 -0.844143 3.03726)
(-9.00198 33.8848 -1.08001 -18.9335 1.25971 -7.45985)
(-2.59581 13.6104 -0.297119 -43.4834 3.30308 -16.7892)
(-31.9288 10.3955 -0.123182 27.143 -2.4355 8.71029)
(-22.7053 24.634 -0.996103 5.54952 -0.698532 0.253423)
(-9.59419 24.593 -1.08192 -10.3352 1.01693 -3.89088)
(-0.84795 10.285 -0.293238 -19.2369 2.8552 -7.34223)
(-43.1158 7.28667 -0.497774 10.2128 -1.35136 -0.630762)
(-38.0296 15.1547 -1.64422 -4.40049 -0.34755 -8.48772)
(-7.86421 13.489 -1.89942 -1.90351 0.463559 1.16394)
(4.41379 5.19663 -0.932639 -4.36873 1.44877 1.06115)
(204.234 95.0211 -0.0734781 460.997 -0.090103 256.474)
(38.1286 73.3564 -0.425668 97.0286 -0.316852 52.7376)
(-53.9106 64.6381 -0.508265 -108.552 -0.795832 -65.5289)
(-223.608 57.9805 -0.280516 -429 -0.968704 -268.541)
(-46.7707 37.71 -0.198324 178.095 -0.853479 49.543)
(-4.47384 80.7065 -0.976373 77.2083 -0.540298 28.1922)
(-20.6661 73.5066 -1.12571 -86.5017 -0.302495 -42.1481)
(6.42907 22.0509 -0.543478 -185.103 0.0188921 -70.8466)
(-23.4302 38.75 -0.244539 167.097 -1.30002 56.7812)
(-19.3189 68.686 -1.08633 52.1552 -0.574362 13.8777)
(-9.93707 63.107 -1.22486 -61.3161 0.141076 -26.5033)
(-12.0016 22.768 -0.545055 -166.112 0.815766 -69.5275)
(-31.1172 31.8408 -0.205646 116.521 -1.56923 36.6306)
(-19.8771 57.6775 -0.960347 37.4144 -0.562256 9.46852)
(-9.46938 53.2771 -1.05884 -44.8023 0.477172 -18.9843)
(-4.6166 19.1356 -0.427605 -115.784 1.41416 -46.0327)
(-31.6512 25.1436 -0.125602 77.6361 -1.66875 23.9965)
(-20.1464 46.446 -0.741714 24.6093 -0.521557 5.94715)
(-9.06231 43.5814 -0.806592 -30.2255 0.675156 -12.5538)
(-3.77558 16.5627 -0.274322 -76.0641 1.77451 -30.2463)
(-32.738 17.8395 -0.0666802 46.2422 -1.61559 13.9286)
(-20.4447 35.3039 -0.579674 14.4008 -0.467957 3.40131)
(-9.1507 34.1387 -0.619344 -18.6636 0.716604 -7.57935)
(-2.64828 13.7862 -0.162983 -43.1964 1.86605 -17.3719)
(-32.1451 10.4151 -0.0988915 27.6138 -1.39178 9.25046)
(-22.9586 24.773 -0.622565 5.85023 -0.393687 0.552318)
(-9.7821 24.7782 -0.661546 -10.1087 0.580339 -3.7912)
(-0.910138 10.4327 -0.180619 -18.9303 1.624 -7.38745)
(-43.363 7.30738 -0.345023 10.6539 -0.788629 -0.306337)
(-38.4261 15.2305 -1.05022 -4.15712 -0.1975 -8.28331)
(-8.22186 13.5602 -1.18678 -1.729 0.266379 1.38908)
(4.23241 5.26425 -0.577827 -4.1343 0.828368 1.34835)
(204.177 94.9496 -0.0213451 461.009 -0.0807998 256.844)
(38.1208 73.1814 -0.126467 97.1621 -0.121154 52.9237)
(-53.8992 64.4387 -0.15108 -108.371 -0.243825 -65.6222)
(-223.445 57.8596 -0.0826754 -428.591 -0.275154 -268.709)
(-46.9426 37.6407 -0.0559012 178.067 -0.292922 50.2667)
(-4.59717 80.605 -0.294287 77.3485 -0.181129 28.4819)
(-20.7366 73.4155 -0.340475 -86.2824 -0.0973869 -42.4637)
(6.34365 22.0256 -0.163574 -184.913 0.0155003 -71.7358)
(-23.6177 38.7363 -0.0727908 167.169 -0.425277 57.5734)
(-19.482 68.6928 -0.335233 52.301 -0.18733 14.1592)
(-10.0238 63.1338 -0.378302 -61.1173 0.0443833 -26.8403)
(-12.0288 22.7966 -0.16677 -165.912 0.265851 -70.4189)
(-31.3081 31.8657 -0.0631289 116.64 -0.505335 37.3278)
(-20.0356 57.758 -0.301552 37.5682 -0.180428 9.7186)
(-9.54954 53.3776 -0.331784 -44.62 0.153129 -19.2591)
(-4.63812 19.2033 -0.131954 -115.601 0.455648 -46.7949)
(-31.8278 25.1833 -0.0400079 77.789 -0.536028 24.541)
(-20.2874 46.5558 -0.237226 24.7685 -0.166454 6.15802)
(-9.13315 43.7123 -0.256557 -30.0613 0.217962 -12.7282)
(-3.79203 16.6486 -0.0852538 -75.8912 0.571798 -30.7855)
(-32.8892 17.8714 -0.0237938 46.4192 -0.521482 14.3255)
(-20.5656 35.4052 -0.190794 14.5587 -0.149983 3.58144)
(-9.21638 34.2638 -0.201925 -18.5197 0.232075 -7.64061)
(-2.66723 13.8723 -0.0519675 -43.0342 0.602943 -17.6622)
(-32.2538 10.4237 -0.0381463 27.8233 -0.453493 9.54893)
(-23.0774 24.8421 -0.212077 5.99366 -0.127337 0.707172)
(-9.86669 24.8686 -0.223037 -9.99051 0.188211 -3.75347)
(-0.933844 10.5036 -0.0613878 -18.7654 0.526211 -7.43947)
(-43.4785 7.31818 -0.124198 10.8591 -0.261472 -0.0877371)
(-38.6135 15.2699 -0.360672 -4.04049 -0.0644046 -8.17013)
(-8.38965 13.594 -0.403478 -1.63994 0.0870522 1.47393)
(4.14277 5.29441 -0.196148 -4.02026 0.269256 1.42427)
)
;

boundaryField
{
    interface
    {
        type            calculated;
        value           nonuniform List<symmTensor> 
192
(
(-23.266 19.0989 4.38472 479.639 50.5999 132.942)
(-23.9819 9.18609 3.43314 223.487 -13.8586 22.7374)
(-23.8443 12.0464 4.25683 221.912 -8.88422 44.4501)
(-24.1323 9.8894 4.23369 156.87 -12.8536 33.0787)
(-24.6107 7.40912 4.30917 107.265 -11.8275 28.4728)
(-25.1885 4.49192 4.29568 65.1175 -10.186 23.3223)
(-25.5929 1.9219 4.11359 39.6418 -7.95659 22.0911)
(-24.5851 -0.524227 3.6425 27.2638 -4.19516 24.1778)
(-25.9644 20.2934 3.0089 471.645 31.4933 140.478)
(-27.0107 10.4554 2.66407 246.585 -4.33548 41.2495)
(-27.6076 11.9701 2.71861 219.137 -12.5737 42.6126)
(-28.4637 9.92727 2.62031 155.979 -16.1508 33.1957)
(-29.2883 7.26508 2.57491 103.8 -16.1029 27.3889)
(-29.8691 4.2763 2.54732 61.9225 -14.0958 23.0986)
(-29.677 1.49518 2.46131 37.1129 -10.711 22.7698)
(-26.6272 -1.16554 2.24526 26.8383 -5.68234 26.5407)
(-27.6689 21.5155 1.86047 480.348 16.0274 152.361)
(-28.7352 10.5251 1.86818 243.489 -2.55494 55.0442)
(-29.4568 11.9397 1.8483 218.482 -9.12492 50.5573)
(-30.4438 9.8493 1.71525 155.075 -12.4309 35.6748)
(-31.3189 7.11914 1.62566 102.497 -12.9721 25.5776)
(-31.7825 4.06692 1.58266 60.7861 -11.6952 18.554)
(-31.156 1.19398 1.5406 36.8255 -9.08112 16.8315)
(-27.0763 -1.60344 1.4863 26.3326 -4.69047 19.2594)
(-28.9008 22.1429 1.13302 485.399 7.09102 160.127)
(-29.938 10.5138 1.31096 241.488 -2.2598 66.0696)
(-30.6611 11.9179 1.31486 218.257 -6.31508 59.7426)
(-31.666 9.8134 1.21932 155.395 -8.62887 41.4443)
(-32.5179 7.06792 1.13794 103.086 -9.26231 28.0037)
(-32.8653 3.98506 1.09211 61.6768 -8.61394 18.4071)
(-31.9491 1.05969 1.06098 38.2644 -6.95688 15.0464)
(-27.2518 -1.79356 1.04495 27.7579 -3.81438 16.4903)
(-29.7985 22.4043 0.6857 487.339 2.5457 164.237)
(-30.8081 10.4868 0.904047 240.458 -2.0538 72.9296)
(-31.5078 11.8881 0.925999 218.167 -4.3718 66.248)
(-32.5111 9.78333 0.872191 155.761 -5.77403 46.273)
(-33.3236 7.03646 0.815104 103.802 -6.25482 30.834)
(-33.5799 3.93627 0.777219 62.645 -5.96646 19.4976)
(-32.4694 0.97473 0.75191 39.5611 -4.99836 14.9739)
(-27.3585 -1.9146 0.74627 29.0145 -2.84127 15.6437)
(-30.4297 22.4886 0.403716 487.75 0.528184 166.237)
(-31.4192 10.457 0.591975 239.916 -1.65696 76.8775)
(-32.0926 11.8606 0.61737 218.198 -2.91172 70.3231)
(-33.0986 9.76018 0.590702 156.078 -3.69033 49.5946)
(-33.8733 7.01292 0.555783 104.352 -3.99263 33.1095)
(-34.0644 3.90158 0.529255 63.3608 -3.87523 20.7925)
(-32.8257 0.91497 0.510164 40.4805 -3.33827 15.5998)
(-27.436 -1.99093 0.505711 30.0259 -1.95854 15.9121)
(-30.8343 22.503 0.211291 487.61 -0.120219 167.12)
(-31.8138 10.4328 0.33367 239.611 -1.07237 78.9474)
(-32.4735 11.8394 0.351852 218.242 -1.68323 72.5896)
(-33.4709 9.74336 0.339662 156.298 -2.06568 51.5605)
(-34.2237 6.99595 0.321434 104.692 -2.22543 34.5749)
(-34.3741 3.87645 0.306105 63.7837 -2.18239 21.7656)
(-33.0561 0.873103 0.292954 41.0185 -1.91513 16.2353)
(-27.493 -2.03865 0.286687 30.6595 -1.15158 16.4)
(-31.0241 22.4989 0.0650029 487.439 -0.105481 167.445)
(-31.9981 10.4184 0.106678 239.474 -0.37029 79.8265)
(-32.6485 11.8269 0.112847 218.277 -0.552228 73.592)
(-33.6382 9.7339 0.10925 156.416 -0.666431 52.4641)
(-34.3806 6.98648 0.1036 104.858 -0.715899 35.2829)
(-34.5124 3.86132 0.0985964 63.9823 -0.705506 22.275)
(-33.1466 0.847214 0.0933643 41.2719 -0.625448 16.6156)
(-27.4826 -2.05859 0.0893498 30.9767 -0.383289 16.7462)
(41.8736 69.1639 -1.99472 300.603 3.37666 -11.8034)
(-78.8872 34.3227 -4.55275 118.717 -1.57917 -8.66325)
(-51.0616 46.3679 -5.80118 133.524 -1.52474 -5.77336)
(-51.7904 41.4945 -6.5385 90.6222 -1.2434 -3.74334)
(-46.0001 36.139 -7.06421 60.2713 -0.905095 -2.55613)
(-43.688 27.9965 -7.47326 32.9131 -0.772278 -2.09447)
(-42.9154 19.0558 -7.92533 15.1868 -0.910408 -2.27804)
(-51.1694 11.441 -8.87831 1.89261 -1.14997 -3.10483)
(-4.08398 48.7275 -1.6158 59.8889 -0.429304 -10.5342)
(-37.2362 73.3922 -3.16275 34.8869 -1.69315 -9.18444)
(-35.8712 78.4441 -3.86689 33.8989 -1.64475 -7.46828)
(-34.1338 73.3143 -4.29636 20.949 -1.2534 -6.12843)
(-31.745 64.0363 -4.59844 11.0263 -0.789504 -5.31881)
(-30.7867 51.6021 -4.89095 2.42235 -0.466511 -4.99401)
(-31.4976 37.7122 -5.34577 -3.3065 -0.340314 -5.05199)
(-40.9806 21.8002 -6.54102 -7.29411 -0.294971 -5.19335)
(-26.9009 41.1348 -1.60522 -94.8392 -0.00778637 -9.55918)
(7.7997 66.9135 -2.91867 -50.6775 -1.45629 -9.06471)
(4.2226 72.6304 -3.46257 -51.5599 -1.52177 -7.97899)
(2.55074 68.6412 -3.67569 -40.4507 -1.20366 -7.02939)
(-0.293432 60.6593 -3.83916 -31.6731 -0.735046 -6.44805)
(-2.80751 49.724 -4.06 -23.4051 -0.340897 -6.2242)
(-5.26754 36.7054 -4.4884 -16.6025 -0.0956629 -6.29244)
(-4.01004 19.5192 -5.63013 -8.13014 0.0392769 -6.42616)
(-70.3537 40.8846 -1.81472 -297.491 4.36829 -8.40801)
(46.2104 19.035 -3.1236 -125.251 -1.09549 -8.10491)
(18.4344 29.7832 -3.59248 -138.728 -1.34989 -7.19767)
(18.6598 28.0053 -3.83842 -98.5493 -1.21955 -6.3584)
(12.6338 26.3309 -3.97351 -69.7217 -0.782244 -5.8301)
(9.31705 22.3732 -4.16558 -43.0193 -0.349547 -5.59043)
(7.47539 16.6395 -4.55963 -23.6459 -0.00123045 -5.56555)
(11.5034 7.69795 -5.60809 -9.22891 0.315347 -5.74079)
(-5.50752 -14.2205 -1.48862 -418.204 -44.1576 -145.143)
(-4.13669 -6.9117 0.747069 -213.456 8.73617 -31.1565)
(-3.13523 -9.07361 0.658236 -205.054 4.73252 -45.5882)
(-2.16228 -7.12902 1.05505 -143.59 9.41282 -29.3425)
(-1.38881 -5.1351 1.22006 -96.218 9.54639 -22.2618)
(-0.621878 -3.00829 1.38969 -55.3671 8.97558 -16.1551)
(0.473977 -1.62116 1.55805 -27.3586 7.09247 -13.558)
(3.00652 -2.00553 1.64668 -13.6401 2.74725 -14.261)
(-6.26676 -15.103 -1.40639 -408.398 -30.6972 -152.311)
(-5.70969 -8.23509 -0.297598 -238.432 -0.714484 -51.9393)
(-5.30725 -9.08622 0.0952621 -206.161 8.50672 -45.8649)
(-4.71886 -7.19676 0.447073 -146.473 13.4733 -32.4965)
(-4.11083 -4.98908 0.66075 -96.4563 14.8591 -24.6214)
(-3.41599 -2.78426 0.776914 -55.1903 14.0371 -19.2362)
(-2.29565 -1.25592 0.799635 -26.5057 11.1816 -16.6632)
(0.535039 -1.61249 0.722999 -13.674 5.58517 -17.6964)
(-6.69032 -15.9894 -0.91091 -415.914 -17.3341 -166.465)
(-6.28836 -8.41055 -0.357935 -238.02 -1.12617 -69.5978)
(-6.08479 -9.14781 -0.037812 -207.637 6.16061 -58.9024)
(-5.61745 -7.19433 0.282897 -147.749 10.6551 -40.6429)
(-5.03917 -4.88503 0.510116 -96.9748 12.4487 -28.4232)
(-4.29976 -2.60663 0.636002 -55.2348 12.1926 -19.7147)
(-3.14386 -0.996303 0.647031 -26.1379 10.0896 -14.5434)
(-0.344696 -1.1594 0.475194 -12.1644 5.05776 -12.3985)
(-6.98061 -16.3593 -0.536446 -419.863 -9.22198 -175.211)
(-6.6077 -8.43896 -0.263101 -237.258 -0.502742 -82.4868)
(-6.47598 -9.14243 -0.035182 -207.825 4.22121 -70.1858)
(-6.05602 -7.14252 0.212136 -148.147 7.48593 -48.5963)
(-5.48029 -4.77559 0.408951 -97.2569 9.11037 -32.7919)
(-4.66705 -2.44309 0.526908 -55.2993 9.24964 -20.9721)
(-3.41967 -0.779947 0.541258 -25.7666 7.92548 -13.19)
(-0.705303 -0.840268 0.371061 -11.3789 4.0982 -8.79648)
(-7.17829 -16.4348 -0.298611 -420.937 -4.68913 -179.761)
(-6.81043 -8.41492 -0.161891 -236.707 -0.0179454 -90.465)
(-6.70379 -9.09415 -0.00177189 -207.564 2.90744 -77.7356)
(-6.29339 -7.06331 0.175665 -147.992 5.0515 -54.4177)
(-5.69776 -4.6621 0.324984 -97.135 6.26427 -36.3744)
(-4.83376 -2.29584 0.416415 -55.0744 6.52506 -22.3621)
(-3.52996 -0.601667 0.422752 -25.2563 5.73199 -12.6425)
(-0.899617 -0.605453 0.281008 -10.7143 3.00893 -6.70016)
(-7.30032 -16.3919 -0.155477 -420.713 -2.2482 -181.951)
(-6.93028 -8.37145 -0.0857088 -236.247 0.197369 -95.0915)
(-6.82749 -9.03395 0.0223487 -207.201 1.93309 -82.3371)
(-6.41372 -6.98432 0.141368 -147.665 3.24672 -58.1724)
(-5.79884 -4.56212 0.243234 -96.8218 4.04546 -38.8711)
(-4.89928 -2.17834 0.304564 -54.7126 4.27475 -23.5238)
(-3.57174 -0.470096 0.303926 -24.7489 3.81329 -12.5818)
(-1.00328 -0.448526 0.198499 -10.2416 2.02421 -5.77319)
(-7.36791 -16.3265 -0.0717385 -420.159 -0.967157 -182.919)
(-6.99473 -8.33114 -0.0379567 -235.89 0.201327 -97.5794)
(-6.88882 -8.98309 0.0248457 -206.889 1.11702 -84.9029)
(-6.46935 -6.92348 0.0932191 -147.371 1.82243 -60.3489)
(-5.83783 -4.49014 0.151648 -96.5216 2.268 -40.3934)
(-4.91999 -2.09841 0.185898 -54.388 2.41246 -24.3168)
(-3.58517 -0.385622 0.183099 -24.3591 2.16924 -12.6896)
(-1.0572 -0.353398 0.116903 -9.92678 1.15832 -5.43895)
(-7.3964 -16.2848 -0.0204341 -419.777 -0.264144 -183.273)
(-7.02082 -8.30806 -0.010236 -235.691 0.0806278 -98.6575)
(-6.91251 -8.95512 0.0103148 -206.712 0.366457 -86.0417)
(-6.4921 -6.89147 0.0325128 -147.205 0.588474 -61.3393)
(-5.85374 -4.45316 0.0513283 -96.3509 0.731033 -41.1083)
(-4.9264 -2.0582 0.0622917 -54.2056 0.779466 -24.7138)
(-3.58752 -0.345684 0.0609761 -24.1515 0.703158 -12.7839)
(-1.09207 -0.309015 0.0379349 -9.77884 0.376572 -5.36166)
(-55.5471 12.2361 -2.80117 -3.80898 -1.6789 -3.39618)
(-50.5801 11.4495 0.129958 -2.13045 -1.51956 0.251524)
(-51.1537 11.4647 -0.351909 -0.851338 -1.13904 -4.31337)
(-51.5078 11.5679 -0.733755 0.141536 -0.841536 -6.29963)
(-52.2003 11.7013 -0.906201 0.874735 -0.6092 -7.28321)
(-52.7361 11.812 -0.796362 1.39235 -0.420915 -7.39589)
(-53.0981 11.8901 -0.536135 1.71145 -0.256453 -7.23195)
(-53.3053 11.9264 -0.189999 1.80145 -0.0892072 -7.11961)
(-47.2273 9.11043 -4.60007 -5.09598 -0.224086 -10.9727)
(-42.9765 7.93012 -2.95333 -4.21058 -0.266558 -10.3356)
(-43.0752 7.69683 -2.75115 -3.30759 -0.161016 -10.4393)
(-44.0636 7.68379 -2.88446 -2.57259 -0.0749061 -10.2505)
(-45.1093 7.72171 -2.7119 -2.03314 -0.0299072 -10.1263)
(-45.8983 7.76261 -2.16734 -1.65419 -0.0107004 -9.94551)
(-46.3991 7.79673 -1.38281 -1.40754 -0.0033768 -9.77833)
(-46.622 7.82289 -0.474104 -1.26807 -0.000574579 -9.668)
(-3.11416 5.67652 -4.50751 -6.02783 0.365658 -4.38207)
(-5.41119 4.72379 -4.2857 -5.41881 0.27783 -5.69903)
(-7.04169 4.46324 -4.11334 -4.73322 0.267663 -3.48425)
(-8.56674 4.39794 -3.8711 -4.19384 0.242389 -1.61224)
(-9.70523 4.38415 -3.36296 -3.8059 0.198929 -0.444527)
(-10.4764 4.38424 -2.57487 -3.53757 0.1457 0.156661)
(-10.9462 4.38737 -1.60651 -3.36667 0.0899873 0.427769)
(-11.1622 4.38922 -0.545306 -3.27078 0.031167 0.532202)
(13.4757 4.60395 -3.27182 -5.49326 0.698012 -6.5385)
(9.37202 3.77938 -2.80251 -4.96014 0.428085 -9.18053)
(8.19424 3.44927 -2.76203 -4.52164 0.329067 -4.03374)
(7.05212 3.32135 -2.44696 -4.16372 0.258712 -0.523501)
(6.32724 3.25162 -2.03848 -3.90453 0.196098 1.58147)
(5.81066 3.21354 -1.51407 -3.72753 0.13603 2.52206)
(5.48778 3.19225 -0.930025 -3.61751 0.0797895 2.86316)
(5.32839 3.18027 -0.314075 -3.56513 0.0263447 2.94949)
)
;
    }
    symmetry
    {
        type            symmetryPlane;
    }
    bottom
    {
        type            calculated;
        value           nonuniform List<symmTensor> 
32
(
(225.312 89.0148 4.35035 342.297 101.319 226.442)
(220.931 99.826 2.44268 333.848 50.56 217.345)
(227.545 105.014 1.25758 343.619 24.8444 222.526)
(231.408 106.874 0.596014 349.503 11.5978 225.98)
(233.141 107.397 0.256297 352.193 4.96843 227.612)
(233.831 107.451 0.0952459 353.291 1.84628 228.29)
(234.058 107.385 0.0279044 353.666 0.541329 228.523)
(234.112 107.327 0.00496951 353.762 0.0964609 228.582)
(43.0715 35.4679 0.543834 63.9497 28.1974 42.8198)
(44.6074 47.2489 0.375721 65.4759 14.6335 43.5106)
(47.429 49.2532 0.185773 69.6049 6.95403 46.1395)
(48.744 48.9221 0.0775965 71.632 2.92702 47.4517)
(49.3961 48.1781 0.0255295 72.684 0.978342 48.1394)
(49.7408 47.5305 0.00400144 73.2599 0.155473 48.5176)
(49.9227 47.0956 -0.00218568 73.5707 -0.0857198 48.7218)
(50.0022 46.8817 -0.00139284 73.7083 -0.0548781 48.8123)
(-62.6938 30.1114 -0.570635 -93.9861 -32.3587 -62.6115)
(-56.5219 41.5428 -0.459568 -85.5858 -18.9662 -57.3187)
(-57.3709 42.9478 -0.280329 -86.9426 -11.1833 -58.3745)
(-57.9442 42.2 -0.161372 -87.7351 -6.54931 -58.9589)
(-58.1355 41.1908 -0.0905787 -87.9457 -3.76586 -59.1179)
(-58.1191 40.3758 -0.0490746 -87.8649 -2.08157 -59.0685)
(-58.0369 39.8408 -0.0240038 -87.7069 -1.03191 -58.9631)
(-57.9757 39.5801 -0.00716877 -87.5989 -0.310228 -58.8903)
(-230.991 62.2557 -3.82879 -338.665 -92.6195 -227.869)
(-219.838 70.6944 -2.34493 -324.166 -50.3585 -221.46)
(-226.113 73.1689 -1.31378 -333.388 -27.1276 -229.17)
(-229.551 73.3867 -0.699759 -338.275 -14.3687 -232.988)
(-230.776 72.9444 -0.358644 -339.945 -7.4024 -234.274)
(-230.971 72.424 -0.175285 -340.153 -3.64348 -234.447)
(-230.819 72.0277 -0.0775868 -339.887 -1.62184 -234.263)
(-230.67 71.8205 -0.0217024 -339.651 -0.455024 -234.095)
)
;
    }
}


// ************************************************************************* //
