/*--------------------------------*- C++ -*----------------------------------*\
| =========                 |                                                 |
| \\      /  F ield         | foam-extend: Open Source CFD                    |
|  \\    /   O peration     | Version:     3.1                                |
|   \\  /    A nd           | Web:         http://www.extend-project.de       |
|    \\/     M anipulation  |                                                 |
\*---------------------------------------------------------------------------*/
FoamFile
{
    version     2.0;
    format      ascii;
    class       volVectorField;
    location    "2.6";
    object      U;
}
// * * * * * * * * * * * * * * * * * * * * * * * * * * * * * * * * * * * * * //

dimensions      [0 1 -1 0 0 0 0];

internalField   nonuniform List<vector> 
256
(
(5.08501e-05 4.56549e-05 7.55505e-05)
(1.19584e-05 1.0794e-05 1.88875e-05)
(1.09067e-05 -1.36478e-05 -3.70374e-05)
(4.86231e-05 -5.28335e-05 -0.000101126)
(0.0002429 0.000187417 8.00176e-05)
(0.000196672 5.03604e-05 2.03918e-05)
(0.000190426 -6.65554e-05 -5.58369e-05)
(0.000221766 -0.000210085 -0.000117396)
(0.000510409 0.000292711 7.20073e-05)
(0.00046287 8.02992e-05 1.22862e-05)
(0.000452336 -0.000113758 -5.66736e-05)
(0.000475927 -0.000333566 -0.000118168)
(0.000848837 0.000372803 4.90665e-05)
(0.000803525 9.76176e-05 9.2902e-07)
(0.000788738 -0.000159443 -5.51615e-05)
(0.000800705 -0.000441471 -0.000105609)
(0.00123757 0.000424792 1.98319e-05)
(0.00119382 0.000102874 -1.32739e-05)
(0.00117513 -0.000201525 -5.33051e-05)
(0.00117722 -0.000528657 -8.9764e-05)
(0.00165531 0.000453048 -1.0686e-05)
(0.00161309 9.85886e-05 -2.86615e-05)
(0.00159114 -0.000239334 -5.28235e-05)
(0.00158504 -0.000596857 -7.50624e-05)
(0.00208307 0.000462564 -3.8282e-05)
(0.00204212 8.74395e-05 -4.42527e-05)
(0.00201774 -0.000271934 -5.43305e-05)
(0.00200597 -0.000647648 -6.45757e-05)
(0.00250871 0.000458702 -6.22825e-05)
(0.00246556 7.24848e-05 -6.03162e-05)
(0.00243881 -0.000298883 -5.81679e-05)
(0.0024258 -0.000684271 -6.04132e-05)
(6.47134e-05 4.52724e-05 4.05777e-05)
(2.79362e-05 1.09519e-05 1.00451e-05)
(2.67489e-05 -1.14258e-05 -2.2729e-05)
(6.06556e-05 -4.79476e-05 -5.90517e-05)
(0.000277706 0.000184964 4.86714e-05)
(0.000224492 5.01719e-05 1.03471e-05)
(0.000218923 -6.27112e-05 -3.84779e-05)
(0.000258178 -0.000204088 -7.89328e-05)
(0.000549624 0.000294617 4.54939e-05)
(0.000499997 8.16342e-05 4.80921e-06)
(0.000489375 -0.000112687 -4.28013e-05)
(0.000514428 -0.000332995 -8.49251e-05)
(0.000885212 0.000377321 3.12394e-05)
(0.000838144 0.000100883 -3.69857e-06)
(0.00082284 -0.000158246 -4.40733e-05)
(0.00083526 -0.000441585 -8.06047e-05)
(0.00126629 0.000432134 1.13365e-05)
(0.00122143 0.000108448 -1.45436e-05)
(0.00120183 -0.000199079 -4.48171e-05)
(0.00120297 -0.000527917 -7.26954e-05)
(0.00167468 0.000462825 -1.02383e-05)
(0.00163172 0.000106389 -2.65768e-05)
(0.00160873 -0.000234795 -4.64302e-05)
(0.00160096 -0.000594002 -6.51901e-05)
(0.00209379 0.000474479 -3.04328e-05)
(0.00205257 9.71037e-05 -3.90177e-05)
(0.00202734 -0.00026518 -4.96501e-05)
(0.00201353 -0.000642381 -6.06718e-05)
(0.00251398 0.000472499 -4.88129e-05)
(0.00247091 8.34569e-05 -5.18674e-05)
(0.00244371 -0.000290687 -5.50498e-05)
(0.00242902 -0.000677374 -6.07036e-05)
(7.2019e-05 4.75888e-05 2.23726e-05)
(3.29811e-05 1.16367e-05 5.08354e-06)
(3.14361e-05 -1.15716e-05 -1.44018e-05)
(6.66147e-05 -4.96684e-05 -3.53265e-05)
(0.000297565 0.000185827 2.81265e-05)
(0.000239249 5.06972e-05 4.23707e-06)
(0.000233554 -6.08489e-05 -2.61346e-05)
(0.000277321 -0.000202843 -5.16433e-05)
(0.00057516 0.000294842 2.67248e-05)
(0.000521301 8.2769e-05 -5.41874e-08)
(0.000510302 -0.000110255 -3.13846e-05)
(0.000538746 -0.000330033 -5.91191e-05)
(0.000911566 0.000377418 1.80039e-05)
(0.00086129 0.000102846 -6.49693e-06)
(0.000845284 -0.0001549 -3.436e-05)
(0.000859598 -0.000436688 -5.97509e-05)
(0.00129029 0.000433307 5.14022e-06)
(0.00124293 0.000111761 -1.46476e-05)
(0.00122233 -0.000194559 -3.68468e-05)
(0.0012242 -0.000521525 -5.76127e-05)
(0.00169475 0.000466194 -9.3733e-06)
(0.00164983 0.000111447 -2.38296e-05)
(0.00162563 -0.000228964 -3.98649e-05)
(0.00161765 -0.00058655 -5.54339e-05)
(0.00210999 0.000481043 -2.35658e-05)
(0.00206729 0.000104054 -3.35617e-05)
(0.00204078 -0.000258205 -4.40636e-05)
(0.00202597 -0.000634618 -5.51488e-05)
(0.00252836 0.000482815 -3.73456e-05)
(0.00248421 9.21126e-05 -4.38748e-05)
(0.00245571 -0.000283098 -4.99313e-05)
(0.00243944 -0.000670244 -5.77799e-05)
(7.59298e-05 4.91912e-05 1.24847e-05)
(3.48601e-05 1.21067e-05 2.43366e-06)
(3.29759e-05 -1.17204e-05 -9.21068e-06)
(6.94596e-05 -5.10854e-05 -2.13284e-05)
(0.000309199 0.000187519 1.58285e-05)
(0.000247411 5.14978e-05 1.03567e-06)
(0.000241301 -5.96898e-05 -1.78055e-05)
(0.000287581 -0.000202728 -3.36957e-05)
(0.000591403 0.000295704 1.49283e-05)
(0.000534423 8.40036e-05 -2.43627e-06)
(0.000522933 -0.000107989 -2.27584e-05)
(0.000553511 -0.000327524 -4.07392e-05)
(0.000929839 0.000377798 9.43213e-06)
(0.000877089 0.000104608 -7.35507e-06)
(0.000860479 -0.000151557 -2.62775e-05)
(0.000876221 -0.000432059 -4.35965e-05)
(0.00130869 0.000434093 1.17486e-06)
(0.00125934 0.000114398 -1.34579e-05)
(0.00123793 -0.00019017 -2.94713e-05)
(0.00124038 -0.000515374 -4.46387e-05)
(0.0017121 0.000468461 -8.44731e-06)
(0.00166559 0.000115346 -2.03801e-05)
(0.00164045 -0.000223635 -3.30194e-05)
(0.0016324 -0.000579617 -4.55186e-05)
(0.00212608 0.000485746 -1.83158e-05)
(0.00208214 0.000109448 -2.78883e-05)
(0.00205459 -0.000252165 -3.74002e-05)
(0.00203911 -0.000627716 -4.75107e-05)
(0.00254425 0.000490386 -2.8542e-05)
(0.0024991 9.89934e-05 -3.60581e-05)
(0.00246944 -0.000276686 -4.29497e-05)
(0.00245212 -0.000664066 -5.12556e-05)
(7.82007e-05 5.02181e-05 6.99674e-06)
(3.57147e-05 1.2428e-05 1.08526e-06)
(3.35573e-05 -1.17974e-05 -5.85301e-06)
(7.08941e-05 -5.19598e-05 -1.28751e-05)
(0.000316243 0.000189172 8.69848e-06)
(0.000252137 5.23187e-05 -3.96188e-07)
(0.000245604 -5.88736e-05 -1.20092e-05)
(0.000293312 -0.000202811 -2.18187e-05)
(0.000601778 0.000297061 7.96268e-06)
(0.000542724 8.52626e-05 -3.14564e-06)
(0.000530779 -0.000106227 -1.6141e-05)
(0.000562527 -0.000325932 -2.765e-05)
(0.000942633 0.000378866 4.40166e-06)
(0.000888029 0.000106294 -6.83897e-06)
(0.000870856 -0.000148875 -1.94403e-05)
(0.000887355 -0.00042882 -3.10364e-05)
(0.00132247 0.0004354 -8.90315e-07)
(0.00127161 0.000116716 -1.13177e-05)
(0.00124957 -0.000186644 -2.2564e-05)
(0.00125235 -0.00051089 -3.33328e-05)
(0.00172607 0.000470713 -7.19405e-06)
(0.00167835 0.000118539 -1.64039e-05)
(0.0016525 -0.000219405 -2.59375e-05)
(0.00164434 -0.000574471 -3.54868e-05)
(0.00213999 0.00048961 -1.39466e-05)
(0.00209506 0.000113683 -2.20177e-05)
(0.00206674 -0.000247436 -2.98854e-05)
(0.0020508 -0.000622528 -3.82731e-05)
(0.0025585 0.000496183 -2.13329e-05)
(0.0025125 0.000104298 -2.82443e-05)
(0.00248193 -0.000271667 -3.46044e-05)
(0.00246378 -0.000659302 -4.20676e-05)
(7.95821e-05 5.08748e-05 3.85061e-06)
(3.61748e-05 1.26455e-05 4.37532e-07)
(3.38181e-05 -1.18299e-05 -3.5833e-06)
(7.16596e-05 -5.24748e-05 -7.56536e-06)
(0.000320578 0.000190528 4.60013e-06)
(0.000254975 5.30146e-05 -8.12527e-07)
(0.000248104 -5.83101e-05 -7.736e-06)
(0.000296617 -0.000202928 -1.35949e-05)
(0.000608398 0.000298452 4.00561e-06)
(0.000548014 8.63583e-05 -2.82245e-06)
(0.000535711 -0.000104992 -1.08006e-05)
(0.000568095 -0.000325041 -1.78847e-05)
(0.000951406 0.000380193 1.74405e-06)
(0.000895478 0.000107745 -5.41955e-06)
(0.000877833 -0.000146966 -1.34184e-05)
(0.000894691 -0.000426839 -2.0824e-05)
(0.00133232 0.000436939 -1.54894e-06)
(0.00128038 0.000118637 -8.51224e-06)
(0.00125782 -0.000184107 -1.59595e-05)
(0.00126065 -0.000508008 -2.31546e-05)
(0.00173651 0.000472849 -5.52475e-06)
(0.00168789 0.000121051 -1.20202e-05)
(0.00166151 -0.000216357 -1.86715e-05)
(0.00165318 -0.00057106 -2.53878e-05)
(0.00215076 0.000492743 -9.92965e-06)
(0.00210509 0.000116879 -1.59341e-05)
(0.00207621 -0.000244028 -2.17562e-05)
(0.0020599 -0.000618996 -2.79687e-05)
(0.00256976 0.000500526 -1.49488e-05)
(0.00252307 0.000108209 -2.03295e-05)
(0.00249183 -0.000268023 -2.53135e-05)
(0.00247307 -0.000655937 -3.10883e-05)
(8.04015e-05 5.12675e-05 1.92672e-06)
(3.64412e-05 1.27813e-05 1.51074e-07)
(3.39552e-05 -1.18406e-05 -1.93792e-06)
(7.20739e-05 -5.27593e-05 -3.97814e-06)
(0.000323162 0.000191471 2.19823e-06)
(0.000256651 5.35066e-05 -6.70182e-07)
(0.00024955 -5.7958e-05 -4.34091e-06)
(0.000298501 -0.000203029 -7.45477e-06)
(0.000612462 0.000299543 1.80377e-06)
(0.000551243 8.71524e-05 -1.89818e-06)
(0.000538695 -0.000104223 -6.21695e-06)
(0.000571429 -0.000324599 -1.00634e-05)
(0.000956865 0.000381336 5.39699e-07)
(0.000900126 0.000108804 -3.44635e-06)
(0.000882159 -0.000145767 -7.88274e-06)
(0.000899169 -0.000425757 -1.20119e-05)
(0.00133866 0.000438245 -1.27411e-06)
(0.00128602 0.000120011 -5.26941e-06)
(0.00126311 -0.000182495 -9.52224e-06)
(0.00126591 -0.000506354 -1.36561e-05)
(0.00174341 0.000474508 -3.4805e-06)
(0.00169421 0.000122794 -7.33461e-06)
(0.00166746 -0.000214407 -1.1262e-05)
(0.00165897 -0.000569038 -1.52456e-05)
(0.00215804 0.000494971 -5.97833e-06)
(0.00211187 0.000119035 -9.65174e-06)
(0.00208261 -0.000241838 -1.32111e-05)
(0.00206602 -0.000616842 -1.70092e-05)
(0.00257744 0.000503445 -8.8999e-06)
(0.00253028 0.0001108 -1.22712e-05)
(0.00249859 -0.000265662 -1.5412e-05)
(0.00247942 -0.000653819 -1.90275e-05)
(8.07855e-05 5.1452e-05 5.85287e-07)
(3.65682e-05 1.28467e-05 3.39964e-08)
(3.402e-05 -1.18428e-05 -6.13072e-07)
(7.22618e-05 -5.28853e-05 -1.24094e-06)
(0.000324385 0.000191953 6.47208e-07)
(0.000257447 5.37592e-05 -2.50909e-07)
(0.000250233 -5.77891e-05 -1.39992e-06)
(0.000299382 -0.000203086 -2.37638e-06)
(0.000614412 0.000300136 5.08656e-07)
(0.000552795 8.75671e-05 -6.64184e-07)
(0.000540129 -0.000103858 -2.03083e-06)
(0.000573039 -0.000324427 -3.2504e-06)
(0.000959481 0.000381984 1.01023e-07)
(0.000902359 0.000109361 -1.17928e-06)
(0.000884225 -0.000145192 -2.60143e-06)
(0.000901274 -0.000425289 -3.92924e-06)
(0.00134175 0.00043898 -4.79712e-07)
(0.00128878 0.000120727 -1.78251e-06)
(0.00126568 -0.000181714 -3.16624e-06)
(0.00126844 -0.000505607 -4.51533e-06)
(0.00174683 0.000475407 -1.18842e-06)
(0.00169734 0.00012369 -2.46518e-06)
(0.0016704 -0.000213457 -3.76384e-06)
(0.00166183 -0.000568101 -5.08352e-06)
(0.00216168 0.000496123 -1.99915e-06)
(0.00211527 0.000120128 -3.23289e-06)
(0.00208581 -0.000240761 -4.42887e-06)
(0.00206908 -0.000615818 -5.70481e-06)
(0.00258129 0.000504896 -2.95915e-06)
(0.00253391 0.000112105 -4.10303e-06)
(0.00250199 -0.000264486 -5.17259e-06)
(0.00248262 -0.00065278 -6.40033e-06)
)
;

boundaryField
{
    interface
    {
        type            calculated;
        value           nonuniform List<vector> 
192
(
(0.000128662 0.000134558 8.23517e-05)
(0.000283628 0.000286938 9.75873e-05)
(0.00055656 0.000434368 9.0672e-05)
(0.000889024 0.000543749 6.3817e-05)
(0.00127363 0.000617701 2.84412e-05)
(0.00168695 0.000658398 -8.78267e-06)
(0.00211166 0.000672976 -4.19731e-05)
(0.00253535 0.000672434 -6.8605e-05)
(0.000144824 0.000146753 4.47722e-05)
(0.00032445 0.000288845 6.0458e-05)
(0.000596464 0.000435104 5.94475e-05)
(0.000926462 0.000544718 4.40858e-05)
(0.00130315 0.00062006 2.1378e-05)
(0.00170748 0.00066335 -3.70409e-06)
(0.00212394 0.000681408 -2.69657e-05)
(0.00254211 0.000685854 -4.64104e-05)
(0.000157854 0.000157 2.46061e-05)
(0.000347031 0.000293308 3.49805e-05)
(0.000624208 0.000435798 3.56256e-05)
(0.000954168 0.000543553 2.72801e-05)
(0.00132777 0.000618917 1.34704e-05)
(0.00172772 0.000664288 -2.56945e-06)
(0.00214011 0.000686231 -1.81712e-05)
(0.00255588 0.000696477 -3.21627e-05)
(0.000165843 0.000163472 1.36043e-05)
(0.000360852 0.000297389 1.97754e-05)
(0.000642513 0.000437788 2.04976e-05)
(0.000973873 0.000543814 1.57899e-05)
(0.00134714 0.000618845 7.55529e-06)
(0.00174568 0.000665501 -2.49574e-06)
(0.00215661 0.000690221 -1.28204e-05)
(0.00257179 0.000704509 -2.2815e-05)
(0.000170749 0.000167529 7.53677e-06)
(0.000369433 0.00030067 1.09581e-05)
(0.000654314 0.000440242 1.14321e-05)
(0.000987879 0.000545283 8.6524e-06)
(0.00136178 0.000620047 3.74972e-06)
(0.00176026 0.000667464 -2.51869e-06)
(0.00217097 0.000693929 -9.30459e-06)
(0.00258621 0.000710804 -1.63285e-05)
(0.000173784 0.000170077 4.10519e-06)
(0.000374775 0.000303104 5.88725e-06)
(0.000661852 0.000442519 6.11479e-06)
(0.000997559 0.00054712 4.46828e-06)
(0.00137229 0.000621762 1.58553e-06)
(0.00177119 0.000669636 -2.21094e-06)
(0.00218216 0.00069713 -6.50256e-06)
(0.00259772 0.000715574 -1.11773e-05)
(0.000175571 0.000171588 2.04155e-06)
(0.000377968 0.000304709 2.87392e-06)
(0.000666509 0.000444216 2.94715e-06)
(0.00100356 0.000548679 2.06971e-06)
(0.00137906 0.000623278 5.30308e-07)
(0.00177844 0.000671416 -1.51484e-06)
(0.00218973 0.000699477 -3.89865e-06)
(0.0026056 0.000718802 -6.58408e-06)
(0.0001764 0.000172295 6.19117e-07)
(0.000379475 0.000305513 8.59242e-07)
(0.000668744 0.000445109 8.72818e-07)
(0.00100642 0.000549547 5.95446e-07)
(0.00138235 0.000624148 1.09541e-07)
(0.00178203 0.000672405 -5.37814e-07)
(0.00219351 0.000700713 -1.30371e-06)
(0.00260955 0.000720405 -2.18033e-06)
(3.99585e-05 8.81793e-05 0.000117999)
(0.000216948 0.000184393 8.96482e-05)
(0.000485632 0.000287655 8.55813e-05)
(0.000828628 0.000360747 5.71385e-05)
(0.00122548 0.000410078 2.39262e-05)
(0.00165185 0.000437779 -1.07888e-05)
(0.00208699 0.000448416 -4.1561e-05)
(0.00251789 0.000447278 -6.87181e-05)
(-7.21883e-06 2.35631e-05 2.71612e-05)
(0.000158436 4.90913e-05 2.3429e-05)
(0.000428349 7.89657e-05 1.47288e-05)
(0.000775564 9.37626e-05 1.70404e-06)
(0.00117516 9.71923e-05 -1.39876e-05)
(0.00160384 9.15359e-05 -3.08738e-05)
(0.00204125 7.93532e-05 -4.77971e-05)
(0.00247147 6.41329e-05 -6.58654e-05)
(-9.3702e-06 -4.17282e-05 -5.29947e-05)
(0.000152193 -6.50515e-05 -5.90948e-05)
(0.000417856 -0.000111405 -6.15998e-05)
(0.000760931 -0.000155401 -5.93079e-05)
(0.00115637 -0.00019869 -5.70314e-05)
(0.00158147 -0.000238519 -5.59963e-05)
(0.00201621 -0.000273519 -5.70785e-05)
(0.0024435 -0.000303361 -5.95035e-05)
(3.42072e-05 -0.000119131 -0.000147669)
(0.000196148 -0.000208471 -0.000127154)
(0.000450847 -0.000329624 -0.000134463)
(0.000780595 -0.000431307 -0.00011713)
(0.00116454 -0.000518914 -9.84766e-05)
(0.0015799 -0.00058957 -8.06037e-05)
(0.00200697 -0.000644209 -6.76218e-05)
(0.00243054 -0.000686295 -6.05522e-05)
(0.00011479 -0.000155521 -0.000108097)
(0.000250245 -0.000314843 -0.000135274)
(0.000503341 -0.0004848 -0.000138648)
(0.000816463 -0.00061999 -0.000122574)
(0.00118439 -0.000727045 -0.00010117)
(0.0015851 -0.00080542 -8.03195e-05)
(0.00200163 -0.000859454 -6.48026e-05)
(0.00241996 -0.000895777 -5.83212e-05)
(0.000124828 -0.000164719 -6.34098e-05)
(0.000292245 -0.000315756 -9.08127e-05)
(0.000541992 -0.000482775 -9.92913e-05)
(0.000851849 -0.000616699 -9.35811e-05)
(0.00121049 -0.000721471 -8.27511e-05)
(0.00160133 -0.000798057 -7.17812e-05)
(0.00200938 -0.000851147 -6.45187e-05)
(0.00242321 -0.000888524 -6.35822e-05)
(0.000134225 -0.000175602 -3.76143e-05)
(0.00031329 -0.000319052 -5.82947e-05)
(0.000568195 -0.000480219 -6.79872e-05)
(0.000877519 -0.000610483 -6.88679e-05)
(0.00123245 -0.000712718 -6.57025e-05)
(0.00161821 -0.000788312 -6.20121e-05)
(0.00202146 -0.000841844 -6.05762e-05)
(0.00243248 -0.000881306 -6.29351e-05)
(0.00013974 -0.00018232 -2.24727e-05)
(0.00032507 -0.000321716 -3.74312e-05)
(0.000584446 -0.000478976 -4.62078e-05)
(0.000895275 -0.000605811 -4.98452e-05)
(0.00124917 -0.00070579 -5.08751e-05)
(0.00163305 -0.000780455 -5.13436e-05)
(0.00203424 -0.000834337 -5.30241e-05)
(0.00244441 -0.000875289 -5.69955e-05)
(0.000142872 -0.000186191 -1.34535e-05)
(0.000331826 -0.000323598 -2.39592e-05)
(0.000594379 -0.000478599 -3.10608e-05)
(0.000907036 -0.000603055 -3.52726e-05)
(0.00126145 -0.0007013 -3.79343e-05)
(0.00164499 -0.000775123 -4.01834e-05)
(0.00204567 -0.000829084 -4.30272e-05)
(0.00245545 -0.000870763 -4.71838e-05)
(0.000144668 -0.000188401 -7.86585e-06)
(0.000335773 -0.000324871 -1.48383e-05)
(0.00060049 -0.000478656 -1.99952e-05)
(0.000914709 -0.000601642 -2.35871e-05)
(0.00126986 -0.000698685 -2.63061e-05)
(0.00165375 -0.000771837 -2.87702e-05)
(0.00205454 -0.000825653 -3.15402e-05)
(0.00246433 -0.000867584 -3.49836e-05)
(0.000145667 -0.000189615 -4.12819e-06)
(0.000338023 -0.000325677 -8.1241e-06)
(0.000604141 -0.000478839 -1.12349e-05)
(0.00091935 -0.000600978 -1.35832e-05)
(0.00127513 -0.000697303 -1.54895e-05)
(0.00165947 -0.000769999 -1.72715e-05)
(0.00206049 -0.000823633 -1.91954e-05)
(0.00247044 -0.000865611 -2.14365e-05)
(0.00014612 -0.000190156 -1.28766e-06)
(0.000339072 -0.000326073 -2.59133e-06)
(0.000605917 -0.000478974 -3.62849e-06)
(0.000921503 -0.000600723 -4.43974e-06)
(0.00127766 -0.000696714 -5.1157e-06)
(0.00166228 -0.000769175 -5.75647e-06)
(0.00206347 -0.000822694 -6.43822e-06)
(0.00247352 -0.000864646 -7.21195e-06)
(0.0027233 0.000454731 -7.17073e-05)
(0.00272996 0.000468862 -5.6657e-05)
(0.00274579 0.000481011 -4.42012e-05)
(0.00276285 0.00048984 -3.40483e-05)
(0.00277801 0.000496579 -2.56235e-05)
(0.00278995 0.000501517 -1.80315e-05)
(0.00279809 0.000504781 -1.07608e-05)
(0.00280216 0.000506375 -3.58047e-06)
(0.00266471 6.83913e-05 -6.68542e-05)
(0.00267192 7.93221e-05 -5.75272e-05)
(0.00268669 8.86045e-05 -4.89313e-05)
(0.00270257 9.61501e-05 -4.0221e-05)
(0.00271662 0.000102022 -3.14978e-05)
(0.00272764 0.000106337 -2.26601e-05)
(0.00273515 0.000109186 -1.36725e-05)
(0.00273893 0.000110623 -4.5703e-06)
(0.00263539 -0.000310871 -6.2251e-05)
(0.00264187 -0.00030264 -5.93233e-05)
(0.00265486 -0.000294961 -5.39224e-05)
(0.00266926 -0.000288456 -4.63919e-05)
(0.00268219 -0.000283319 -3.73262e-05)
(0.00269239 -0.000279551 -2.72619e-05)
(0.00269935 -0.000277093 -1.65785e-05)
(0.00270286 -0.000275854 -5.56095e-06)
(0.00263247 -0.000699804 -6.3027e-05)
(0.00263651 -0.000692581 -6.43104e-05)
(0.00264742 -0.00068617 -6.12595e-05)
(0.00266051 -0.000680502 -5.43267e-05)
(0.00267246 -0.000676051 -4.45101e-05)
(0.00268197 -0.000672813 -3.28387e-05)
(0.00268847 -0.000670736 -2.00749e-05)
(0.00269174 -0.000669695 -6.7509e-06)
)
;
    }
    symmetry
    {
        type            symmetryPlane;
    }
    bottom
    {
        type            calculated;
        value           uniform (0 0 0);
    }
}


// ************************************************************************* //
