/*--------------------------------*- C++ -*----------------------------------*\
| =========                 |                                                 |
| \\      /  F ield         | foam-extend: Open Source CFD                    |
|  \\    /   O peration     | Version:     3.1                                |
|   \\  /    A nd           | Web:         http://www.extend-project.de       |
|    \\/     M anipulation  |                                                 |
\*---------------------------------------------------------------------------*/
FoamFile
{
    version     2.0;
    format      ascii;
    class       volVectorField;
    location    "0.5";
    object      cellMotionU;
}
// * * * * * * * * * * * * * * * * * * * * * * * * * * * * * * * * * * * * * //

dimensions      [0 1 -1 0 0 0 0];

internalField   nonuniform List<vector> 
14592
(
(-2.95467e-10 -4.33619e-10 1.3249e-10)
(-8.59056e-10 -1.27173e-09 3.9174e-10)
(-1.38115e-09 -2.07982e-09 6.50923e-10)
(-1.8839e-09 -2.90846e-09 9.30658e-10)
(-2.38826e-09 -3.80674e-09 1.25097e-09)
(-2.91544e-09 -4.82721e-09 1.63296e-09)
(-3.48822e-09 -6.0319e-09 2.10044e-09)
(-4.13216e-09 -7.49842e-09 2.68154e-09)
(-4.87647e-09 -9.32987e-09 3.41062e-09)
(-5.75373e-09 -1.16654e-08 4.33089e-09)
(-6.79707e-09 -1.46929e-08 5.49856e-09)
(-8.03126e-09 -1.86617e-08 6.99144e-09)
(-9.45115e-09 -2.38768e-08 8.92761e-09)
(-1.09799e-08 -3.06356e-08 1.15002e-08)
(-1.24119e-08 -3.88998e-08 1.49711e-08)
(-1.33609e-08 -4.67e-08 1.89831e-08)
(-8.76453e-10 -1.27769e-09 3.92178e-10)
(-2.54794e-09 -3.7463e-09 1.15945e-09)
(-4.09524e-09 -6.12488e-09 1.92603e-09)
(-5.58288e-09 -8.55965e-09 2.7524e-09)
(-7.0717e-09 -1.11919e-08 3.69706e-09)
(-8.62289e-09 -1.41722e-08 4.82139e-09)
(-1.03017e-08 -1.76752e-08 6.19422e-09)
(-1.21809e-08 -2.19178e-08 7.89616e-09)
(-1.43429e-08 -2.71856e-08 1.00245e-08)
(-1.68795e-08 -3.38576e-08 1.26987e-08)
(-1.98838e-08 -4.24451e-08 1.60674e-08)
(-2.34262e-08 -5.36092e-08 2.0318e-08)
(-2.74911e-08 -6.81408e-08 2.56869e-08)
(-3.18357e-08 -8.67613e-08 3.24457e-08)
(-3.57234e-08 -1.09247e-07 4.06682e-08)
(-3.76474e-08 -1.30245e-07 4.8641e-08)
(-1.43348e-09 -2.06137e-09 6.38797e-10)
(-4.16559e-09 -6.04182e-09 1.8878e-09)
(-6.68975e-09 -9.8689e-09 3.13353e-09)
(-9.10852e-09 -1.37723e-08 4.47284e-09)
(-1.15177e-08 -1.79709e-08 5.9988e-09)
(-1.40123e-08 -2.26935e-08 7.80814e-09)
(-1.6692e-08 -2.81972e-08 1.0008e-08)
(-1.96665e-08 -3.47992e-08 1.27218e-08)
(-2.30573e-08 -4.2899e-08 1.60954e-08)
(-2.69982e-08 -5.30239e-08 2.0301e-08)
(-3.1625e-08 -6.58563e-08 2.55379e-08)
(-3.70476e-08 -8.2255e-08 3.20222e-08)
(-4.32813e-08 -1.03186e-07 3.99423e-08)
(-5.0097e-08 -1.29408e-07 4.93108e-08)
(-5.67006e-08 -1.60273e-07 5.94754e-08)
(-6.10344e-08 -1.88343e-07 6.75306e-08)
(-1.95254e-09 -2.75016e-09 8.64874e-10)
(-5.67071e-09 -8.05569e-09 2.55449e-09)
(-9.09622e-09 -1.31416e-08 4.23533e-09)
(-1.23631e-08 -1.83028e-08 6.03542e-09)
(-1.55948e-08 -2.38149e-08 8.07661e-09)
(-1.89116e-08 -2.99558e-08 1.04838e-08)
(-2.24367e-08 -3.70293e-08 1.33931e-08)
(-2.63019e-08 -4.53921e-08 1.69583e-08)
(-3.06496e-08 -5.54795e-08 2.13563e-08)
(-3.56317e-08 -6.78373e-08 2.67879e-08)
(-4.13999e-08 -8.31444e-08 3.34704e-08)
(-4.80844e-08 -1.02202e-07 4.16091e-08)
(-5.57559e-08 -1.25831e-07 5.13163e-08)
(-6.43698e-08 -1.54502e-07 6.24124e-08)
(-7.3622e-08 -1.87099e-07 7.39324e-08)
(-8.17647e-08 -2.15718e-07 8.27646e-08)
(-2.42261e-09 -3.31666e-09 1.06468e-09)
(-7.03097e-09 -9.70765e-09 3.14234e-09)
(-1.12619e-08 -1.58125e-08 5.20241e-09)
(-1.52728e-08 -2.19698e-08 7.39767e-09)
(-1.92066e-08 -2.84885e-08 9.87176e-09)
(-2.31991e-08 -3.56648e-08 1.27695e-08)
(-2.73854e-08 -4.38118e-08 1.62456e-08)
(-3.19045e-08 -5.3267e-08 2.04711e-08)
(-3.69006e-08 -6.44236e-08 2.56371e-08)
(-4.25197e-08 -7.7733e-08 3.19541e-08)
(-4.88985e-08 -9.37112e-08 3.96405e-08)
(-5.61447e-08 -1.129e-07 4.88902e-08)
(-6.43124e-08 -1.35755e-07 5.9798e-08)
(-7.33978e-08 -1.62342e-07 7.21975e-08)
(-8.3315e-08 -1.91419e-07 8.52712e-08)
(-9.26707e-08 -2.16369e-07 9.60594e-08)
(-2.83576e-09 -3.74128e-09 1.2342e-09)
(-8.22365e-09 -1.09426e-08 3.6397e-09)
(-1.31505e-08 -1.7794e-08 6.01544e-09)
(-1.77889e-08 -2.4658e-08 8.53193e-09)
(-2.22929e-08 -3.18524e-08 1.13473e-08)
(-2.68045e-08 -3.96704e-08 1.46176e-08)
(-3.146e-08 -4.83933e-08 1.85061e-08)
(-3.63935e-08 -5.8306e-08 2.31881e-08)
(-4.17363e-08 -6.96939e-08 2.88547e-08)
(-4.76119e-08 -8.28419e-08 3.57098e-08)
(-5.41221e-08 -9.80035e-08 4.39604e-08)
(-6.13239e-08 -1.15342e-07 5.3792e-08)
(-6.91932e-08 -1.34824e-07 6.53213e-08)
(-7.75855e-08 -1.56055e-07 7.85022e-08)
(-8.61813e-08 -1.77885e-07 9.2829e-08)
(-9.37366e-08 -1.96083e-07 1.05565e-07)
(-3.18758e-09 -4.01352e-09 1.37154e-09)
(-9.23613e-09 -1.17294e-08 4.04085e-09)
(-1.47432e-08 -1.90413e-08 6.66533e-09)
(-1.98887e-08 -2.63159e-08 9.42617e-09)
(-2.48298e-08 -3.38621e-08 1.24886e-08)
(-2.97073e-08 -4.1949e-08 1.60122e-08)
(-3.46506e-08 -5.08103e-08 2.01589e-08)
(-3.97802e-08 -6.0648e-08 2.50977e-08)
(-4.52066e-08 -7.16207e-08 3.10059e-08)
(-5.10248e-08 -8.38176e-08 3.80661e-08)
(-5.73035e-08 -9.72066e-08 4.64574e-08)
(-6.40694e-08 -1.11557e-07 5.63386e-08)
(-7.12865e-08 -1.26332e-07 6.78248e-08)
(-7.88232e-08 -1.40628e-07 8.09412e-08)
(-8.62889e-08 -1.53281e-07 9.53655e-08)
(-9.20381e-08 -1.62657e-07 1.08507e-07)
(-3.47672e-09 -4.1296e-09 1.47652e-09)
(-1.00653e-08 -1.20599e-08 4.34574e-09)
(-1.60372e-08 -1.95474e-08 7.1528e-09)
(-2.15725e-08 -2.69463e-08 1.00831e-08)
(-2.68256e-08 -3.45464e-08 1.33023e-08)
(-3.19298e-08 -4.25799e-08 1.69665e-08)
(-3.70022e-08 -5.12258e-08 2.12284e-08)
(-4.21454e-08 -6.06022e-08 2.62411e-08)
(-4.7446e-08 -7.07463e-08 3.21576e-08)
(-5.2971e-08 -8.15753e-08 3.91252e-08)
(-5.87644e-08 -9.28266e-08 4.72749e-08)
(-6.48531e-08 -1.03968e-07 5.67048e-08)
(-7.12975e-08 -1.14096e-07 6.746e-08)
(-7.83867e-08 -1.21901e-07 7.95125e-08)
(-8.71316e-08 -1.25981e-07 9.263e-08)
(-9.8604e-08 -1.26021e-07 1.04866e-07)
(-3.03144e-10 -4.46211e-10 1.26693e-10)
(-8.81757e-10 -1.30897e-09 3.74558e-10)
(-1.419e-09 -2.14225e-09 6.22293e-10)
(-1.9385e-09 -2.99885e-09 8.89631e-10)
(-2.46287e-09 -3.93046e-09 1.19574e-09)
(-3.01529e-09 -4.99268e-09 1.56086e-09)
(-3.62121e-09 -6.25094e-09 2.00776e-09)
(-4.30996e-09 -7.78769e-09 2.56329e-09)
(-5.11634e-09 -9.71142e-09 3.26002e-09)
(-6.08176e-09 -1.21678e-08 4.13841e-09)
(-7.25393e-09 -1.53513e-08 5.25024e-09)
(-8.68314e-09 -1.95094e-08 6.66552e-09)
(-1.04123e-08 -2.49204e-08 8.48728e-09)
(-1.24599e-08 -3.17738e-08 1.08764e-08)
(-1.47953e-08 -3.97438e-08 1.40292e-08)
(-1.71214e-08 -4.66429e-08 1.75836e-08)
(-8.99037e-10 -1.31451e-09 3.75011e-10)
(-2.61472e-09 -3.85575e-09 1.10858e-09)
(-4.20646e-09 -6.30789e-09 1.84131e-09)
(-5.74309e-09 -8.82429e-09 2.63105e-09)
(-7.29011e-09 -1.15537e-08 3.53383e-09)
(-8.9143e-09 -1.46546e-08 4.60848e-09)
(-1.06883e-08 -1.83118e-08 5.92085e-09)
(-1.26951e-08 -2.27554e-08 7.54785e-09)
(-1.50322e-08 -2.82851e-08 9.58158e-09)
(-1.78139e-08 -3.53e-08 1.21335e-08)
(-2.11695e-08 -4.43241e-08 1.53391e-08)
(-2.52275e-08 -5.60145e-08 1.93619e-08)
(-3.00685e-08 -7.10786e-08 2.43929e-08)
(-3.56037e-08 -8.99135e-08 3.06101e-08)
(-4.12981e-08 -1.11394e-07 3.79208e-08)
(-4.55849e-08 -1.29291e-07 4.46781e-08)
(-1.46983e-09 -2.12049e-09 6.10818e-10)
(-4.27293e-09 -6.21678e-09 1.80498e-09)
(-6.86817e-09 -1.01611e-08 2.99565e-09)
(-9.36468e-09 -1.41937e-08 4.27553e-09)
(-1.18653e-08 -1.85448e-08 5.73376e-09)
(-1.44733e-08 -2.34543e-08 7.46302e-09)
(-1.7299e-08 -2.91962e-08 9.56573e-09)
(-2.04658e-08 -3.61023e-08 1.21598e-08)
(-2.41153e-08 -4.45967e-08 1.53827e-08)
(-2.8409e-08 -5.52263e-08 1.93944e-08)
(-3.35233e-08 -6.86933e-08 2.43727e-08)
(-3.96245e-08 -8.58382e-08 3.04947e-08)
(-4.67987e-08 -1.07493e-07 3.7873e-08)
(-5.48644e-08 -1.33919e-07 4.63713e-08)
(-6.292e-08 -1.63097e-07 5.51018e-08)
(-6.84633e-08 -1.86202e-07 6.13193e-08)
(-2.00081e-09 -2.82795e-09 8.26961e-10)
(-5.81306e-09 -8.28589e-09 2.44228e-09)
(-9.33208e-09 -1.3525e-08 4.04871e-09)
(-1.27001e-08 -1.88537e-08 5.76875e-09)
(-1.60491e-08 -2.45605e-08 7.71909e-09)
(-1.95091e-08 -3.09381e-08 1.00194e-08)
(-2.32149e-08 -3.83067e-08 1.27999e-08)
(-2.7313e-08 -4.70416e-08 1.62072e-08)
(-3.19647e-08 -5.75991e-08 2.04081e-08)
(-3.7346e-08 -7.05469e-08 2.55878e-08)
(-4.36382e-08 -8.6573e-08 3.19365e-08)
(-5.10011e-08 -1.06449e-07 3.96079e-08)
(-5.9511e-08 -1.30828e-07 4.86112e-08)
(-6.90207e-08 -1.59613e-07 5.85564e-08)
(-7.87907e-08 -1.90176e-07 6.81183e-08)
(-8.63461e-08 -2.13155e-07 7.42571e-08)
(-2.48054e-09 -3.40892e-09 1.01791e-09)
(-7.20153e-09 -9.98064e-09 3.00405e-09)
(-1.15434e-08 -1.62654e-08 4.97274e-09)
(-1.56726e-08 -2.26173e-08 7.07008e-09)
(-1.97412e-08 -2.93584e-08 9.43369e-09)
(-2.38949e-08 -3.68019e-08 1.22023e-08)
(-2.82798e-08 -4.52729e-08 1.55241e-08)
(-3.30474e-08 -5.51286e-08 1.9562e-08)
(-3.83561e-08 -6.67755e-08 2.44967e-08)
(-4.43661e-08 -8.06783e-08 3.05219e-08)
(-5.12237e-08 -9.73506e-08 3.78264e-08)
(-5.90261e-08 -1.17288e-07 4.65461e-08)
(-6.77554e-08 -1.40772e-07 5.66509e-08)
(-7.71503e-08 -1.67328e-07 6.7695e-08)
(-8.64119e-08 -1.94332e-07 7.82993e-08)
(-9.32791e-08 -2.1385e-07 8.53026e-08)
(-2.90094e-09 -3.84365e-09 1.1799e-09)
(-8.4151e-09 -1.12442e-08 3.47923e-09)
(-1.3465e-08 -1.82929e-08 5.74929e-09)
(-1.82326e-08 -2.53669e-08 8.15323e-09)
(-2.28807e-08 -3.27985e-08 1.08424e-08)
(-2.75605e-08 -4.08934e-08 1.39665e-08)
(-3.24174e-08 -4.99466e-08 1.76819e-08)
(-3.75944e-08 -6.02515e-08 2.21563e-08)
(-4.32305e-08 -7.21026e-08 2.75706e-08)
(-4.94515e-08 -8.57832e-08 3.41136e-08)
(-5.63484e-08 -1.01527e-07 4.1965e-08)
(-6.39311e-08 -1.19436e-07 5.1254e-08)
(-7.2035e-08 -1.39305e-07 6.19672e-08)
(-8.01282e-08 -1.60281e-07 7.37343e-08)
(-8.69537e-08 -1.80088e-07 8.53066e-08)
(-9.0322e-08 -1.93394e-07 9.34149e-08)
(-3.25759e-09 -4.121e-09 1.31107e-09)
(-9.4413e-09 -1.20459e-08 3.86234e-09)
(-1.50785e-08 -1.95629e-08 6.36982e-09)
(-2.03581e-08 -2.70524e-08 9.0068e-09)
(-2.54457e-08 -3.48379e-08 1.19315e-08)
(-3.04893e-08 -4.31971e-08 1.52971e-08)
(-3.56253e-08 -5.2373e-08 1.9259e-08)
(-4.09791e-08 -6.25712e-08 2.39792e-08)
(-4.66627e-08 -7.39478e-08 2.96269e-08)
(-5.27642e-08 -8.65769e-08 3.63731e-08)
(-5.93276e-08 -1.00391e-07 4.43758e-08)
(-6.63139e-08 -1.15079e-07 5.37501e-08)
(-7.35196e-08 -1.29937e-07 6.45011e-08)
(-8.03779e-08 -1.43685e-07 7.63539e-08)
(-8.54424e-08 -1.54322e-07 8.82256e-08)
(-8.59686e-08 -1.59391e-07 9.67874e-08)
(-3.54935e-09 -4.23781e-09 1.41132e-09)
(-1.02777e-08 -1.23785e-08 4.15337e-09)
(-1.63825e-08 -2.007e-08 6.83503e-09)
(-2.20521e-08 -2.76809e-08 9.63341e-09)
(-2.74481e-08 -3.55109e-08 1.27075e-08)
(-3.27099e-08 -4.38012e-08 1.62068e-08)
(-3.79588e-08 -5.27337e-08 2.02785e-08)
(-4.32989e-08 -6.24247e-08 2.507e-08)
(-4.8814e-08 -7.28999e-08 3.07285e-08)
(-5.45587e-08 -8.40518e-08 3.73941e-08)
(-6.0548e-08 -9.55676e-08 4.51863e-08)
(-6.67449e-08 -1.06825e-07 5.41769e-08)
(-7.30668e-08 -1.1676e-07 6.43427e-08)
(-7.9448e-08 -1.2376e-07 7.54562e-08)
(-8.59676e-08 -1.25851e-07 8.67391e-08)
(-9.22746e-08 -1.22218e-07 9.55918e-08)
(-3.10013e-10 -4.57163e-10 1.16207e-10)
(-9.0208e-10 -1.34139e-09 3.43526e-10)
(-1.45291e-09 -2.19619e-09 5.70665e-10)
(-1.98742e-09 -3.0763e-09 8.15669e-10)
(-2.52966e-09 -4.03511e-09 1.09606e-09)
(-3.10459e-09 -5.13003e-09 1.43024e-09)
(-3.74002e-09 -6.42827e-09 1.83869e-09)
(-4.46871e-09 -8.01383e-09 2.34525e-09)
(-5.3307e-09 -9.99572e-09 2.97799e-09)
(-6.37575e-09 -1.25174e-08 3.77047e-09)
(-7.66572e-09 -1.57632e-08 4.76313e-09)
(-9.27596e-09 -1.99537e-08 6.0067e-09)
(-1.12957e-08 -2.53032e-08 7.57067e-09)
(-1.38288e-08 -3.18774e-08 9.55908e-09)
(-1.69717e-08 -3.91934e-08 1.20917e-08)
(-2.03799e-08 -4.52003e-08 1.48602e-08)
(-9.19236e-10 -1.34669e-09 3.4397e-10)
(-2.67446e-09 -3.95073e-09 1.01676e-09)
(-4.30606e-09 -6.46609e-09 1.68857e-09)
(-5.88656e-09 -9.05117e-09 2.41235e-09)
(-7.48554e-09 -1.18598e-08 3.23932e-09)
(-9.17473e-09 -1.50555e-08 4.22293e-09)
(-1.10333e-08 -1.88282e-08 5.42251e-09)
(-1.31534e-08 -2.34119e-08 6.90623e-09)
(-1.56461e-08 -2.91082e-08 8.75342e-09)
(-1.8647e-08 -3.63083e-08 1.1056e-08)
(-2.2319e-08 -4.551e-08 1.39178e-08)
(-2.68456e-08 -5.7294e-08 1.74501e-08)
(-3.23972e-08 -7.21934e-08 2.17599e-08)
(-3.90197e-08 -9.02708e-08 2.69064e-08)
(-4.6307e-08 -1.10005e-07 3.27146e-08)
(-5.23841e-08 -1.2565e-07 3.79002e-08)
(-1.5023e-09 -2.17188e-09 5.60276e-10)
(-4.36893e-09 -6.36891e-09 1.65547e-09)
(-7.02784e-09 -1.04138e-08 2.74717e-09)
(-9.59386e-09 -1.45553e-08 3.9202e-09)
(-1.21759e-08 -1.90309e-08 5.256e-09)
(-1.48845e-08 -2.40885e-08 6.83883e-09)
(-1.7839e-08 -3.00082e-08 8.76108e-09)
(-2.1175e-08 -3.71287e-08 1.1127e-08)
(-2.50513e-08 -4.58734e-08 1.40549e-08)
(-2.96538e-08 -5.67797e-08 1.7675e-08)
(-3.51934e-08 -7.05071e-08 2.21182e-08)
(-4.18838e-08 -8.77881e-08 2.74863e-08)
(-4.98664e-08 -1.09208e-07 3.37791e-08)
(-5.89963e-08 -1.34568e-07 4.07312e-08)
(-6.82961e-08 -1.61337e-07 4.74724e-08)
(-7.48493e-08 -1.81472e-07 5.19766e-08)
(-2.04391e-09 -2.8958e-09 7.58501e-10)
(-5.94025e-09 -8.4862e-09 2.23993e-09)
(-9.54293e-09 -1.3857e-08 3.71278e-09)
(-1.30012e-08 -1.93268e-08 5.28918e-09)
(-1.64544e-08 -2.51936e-08 7.07574e-09)
(-2.00405e-08 -3.17584e-08 9.18139e-09)
(-2.39043e-08 -3.93493e-08 1.17234e-08)
(-2.82042e-08 -4.83463e-08 1.48318e-08)
(-3.31167e-08 -5.92051e-08 1.86493e-08)
(-3.88358e-08 -7.24766e-08 2.3325e-08)
(-4.55623e-08 -8.87996e-08 2.89915e-08)
(-5.34677e-08 -1.0882e-07 3.57098e-08)
(-6.26106e-08 -1.32921e-07 4.3348e-08)
(-7.27469e-08 -1.60506e-07 5.13493e-08)
(-8.29188e-08 -1.88406e-07 5.8389e-08)
(-9.0493e-08 -2.08121e-07 6.22868e-08)
(-2.53219e-09 -3.48947e-09 9.33593e-10)
(-7.3537e-09 -1.0218e-08 2.75506e-09)
(-1.17946e-08 -1.66578e-08 4.55993e-09)
(-1.6029e-08 -2.31739e-08 6.48203e-09)
(-2.02168e-08 -3.00987e-08 8.6471e-09)
(-2.45115e-08 -3.77533e-08 1.11816e-08)
(-2.90678e-08 -4.64701e-08 1.42189e-08)
(-3.40466e-08 -5.66085e-08 1.79038e-08)
(-3.96155e-08 -6.85701e-08 2.23907e-08)
(-4.59406e-08 -8.27993e-08 2.78342e-08)
(-5.3164e-08 -9.97541e-08 3.43597e-08)
(-6.13501e-08 -1.19807e-07 4.19976e-08)
(-7.03829e-08 -1.42984e-07 5.05444e-08)
(-7.97855e-08 -1.68366e-07 5.93104e-08)
(-8.84611e-08 -1.92875e-07 6.6782e-08)
(-9.43319e-08 -2.09424e-07 7.06834e-08)
(-2.95895e-09 -3.93274e-09 1.08212e-09)
(-8.5856e-09 -1.15067e-08 3.19065e-09)
(-1.37451e-08 -1.87253e-08 5.27174e-09)
(-1.86272e-08 -2.59774e-08 7.47468e-09)
(-2.3402e-08 -3.36045e-08 9.93796e-09)
(-2.82276e-08 -4.19199e-08 1.2798e-08)
(-3.32558e-08 -5.12228e-08 1.61961e-08)
(-3.86348e-08 -6.18061e-08 2.02813e-08)
(-4.45053e-08 -7.39546e-08 2.52088e-08)
(-5.09863e-08 -8.79252e-08 3.1129e-08)
(-5.81417e-08 -1.03895e-07 3.81588e-08)
(-6.59103e-08 -1.21853e-07 4.63187e-08)
(-7.39672e-08 -1.41386e-07 5.54031e-08)
(-8.14803e-08 -1.61306e-07 6.47318e-08)
(-8.68522e-08 -1.79065e-07 7.27712e-08)
(-8.83645e-08 -1.90143e-07 7.70676e-08)
(-3.31978e-09 -4.21477e-09 1.20234e-09)
(-9.62367e-09 -1.23216e-08 3.54179e-09)
(-1.53766e-08 -2.00154e-08 5.84038e-09)
(-2.07747e-08 -2.76879e-08 8.25676e-09)
(-2.59901e-08 -3.56701e-08 1.09359e-08)
(-3.11762e-08 -4.42468e-08 1.40173e-08)
(-3.64733e-08 -5.36615e-08 1.76419e-08)
(-4.20079e-08 -6.41156e-08 2.19542e-08)
(-4.7887e-08 -7.57504e-08 2.71003e-08)
(-5.41818e-08 -8.86096e-08 3.32173e-08)
(-6.08947e-08 -1.02568e-07 4.04086e-08)
(-6.78951e-08 -1.17215e-07 4.8692e-08)
(-7.47945e-08 -1.31689e-07 5.78959e-08)
(-8.06999e-08 -1.44507e-07 6.74434e-08)
(-8.38249e-08 -1.53615e-07 7.59364e-08)
(-8.20473e-08 -1.57381e-07 8.0761e-08)
(-3.61377e-09 -4.33242e-09 1.29418e-09)
(-1.04661e-08 -1.26559e-08 3.80848e-09)
(-1.66888e-08 -2.0524e-08 6.26659e-09)
(-2.24767e-08 -2.83146e-08 8.8309e-09)
(-2.79968e-08 -3.63356e-08 1.16468e-08)
(-3.33922e-08 -4.48305e-08 1.4851e-08)
(-3.8786e-08 -5.39811e-08 1.85773e-08)
(-4.428e-08 -6.3895e-08 2.29578e-08)
(-4.99483e-08 -7.45801e-08 2.81208e-08)
(-5.58238e-08 -8.58948e-08 3.418e-08)
(-6.18747e-08 -9.74706e-08 4.12132e-08)
(-6.79733e-08 -1.08599e-07 4.92212e-08)
(-7.38668e-08 -1.18098e-07 5.80527e-08)
(-7.92063e-08 -1.24249e-07 6.72669e-08)
(-8.37954e-08 -1.25181e-07 7.58801e-08)
(-8.79176e-08 -1.20924e-07 8.18919e-08)
(-3.15938e-10 -4.66337e-10 1.01454e-10)
(-9.19617e-10 -1.36842e-09 2.99891e-10)
(-1.48217e-09 -2.24099e-09 4.98087e-10)
(-2.02961e-09 -3.13998e-09 7.11747e-10)
(-2.58721e-09 -4.11996e-09 9.56031e-10)
(-3.18142e-09 -5.23916e-09 1.24671e-09)
(-3.84212e-09 -6.56521e-09 1.60114e-09)
(-4.60505e-09 -8.18153e-09 2.0389e-09)
(-5.51491e-09 -1.01947e-08 2.58223e-09)
(-6.62903e-09 -1.27413e-08 3.25599e-09)
(-8.02211e-09 -1.59908e-08 4.08732e-09)
(-9.79194e-09 -2.01339e-08 5.10608e-09)
(-1.20674e-08 -2.53316e-08 6.34844e-09)
(-1.50185e-08 -3.15717e-08 7.86615e-09)
(-1.88236e-08 -3.83084e-08 9.71239e-09)
(-2.30574e-08 -4.36199e-08 1.16391e-08)
(-9.36646e-10 -1.37356e-09 3.00307e-10)
(-2.72599e-09 -4.03016e-09 8.87583e-10)
(-4.39194e-09 -6.59748e-09 1.47382e-09)
(-6.01019e-09 -9.23781e-09 2.10503e-09)
(-7.65373e-09 -1.21081e-08 2.82552e-09)
(-9.39848e-09 -1.53744e-08 3.68122e-09)
(-1.13292e-08 -1.92274e-08 4.72224e-09)
(-1.35459e-08 -2.38999e-08 6.00472e-09)
(-1.61719e-08 -2.96859e-08 7.59132e-09)
(-1.93616e-08 -3.69584e-08 9.54955e-09)
(-2.33084e-08 -4.61739e-08 1.1947e-08)
(-2.8246e-08 -5.78331e-08 1.48411e-08)
(-3.44245e-08 -7.23315e-08 1.82632e-08)
(-4.20027e-08 -8.95535e-08 2.21842e-08)
(-5.06587e-08 -1.07916e-07 2.63978e-08)
(-5.82121e-08 -1.22209e-07 2.99703e-08)
(-1.53029e-09 -2.21503e-09 4.89137e-10)
(-4.45163e-09 -6.49599e-09 1.44519e-09)
(-7.16536e-09 -1.06238e-08 2.39784e-09)
(-9.79107e-09 -1.4853e-08 3.42085e-09)
(-1.24428e-08 -1.94259e-08 4.58476e-09)
(-1.5237e-08 -2.45936e-08 5.96195e-09)
(-1.83006e-08 -3.0638e-08 7.6304e-09)
(-2.17799e-08 -3.78946e-08 9.67614e-09)
(-2.58481e-08 -4.67761e-08 1.2192e-08)
(-3.07128e-08 -5.77924e-08 1.52724e-08)
(-3.66164e-08 -7.15454e-08 1.89963e-08)
(-4.38181e-08 -8.86584e-08 2.3394e-08)
(-5.25191e-08 -1.09539e-07 2.83814e-08)
(-6.26338e-08 -1.33787e-07 3.36451e-08)
(-7.31678e-08 -1.58902e-07 3.84597e-08)
(-8.08461e-08 -1.77694e-07 4.14704e-08)
(-2.08099e-09 -2.95264e-09 6.62204e-10)
(-6.0497e-09 -8.65354e-09 1.95541e-09)
(-9.72429e-09 -1.41331e-08 3.24066e-09)
(-1.32599e-08 -1.9717e-08 4.61549e-09)
(-1.68018e-08 -2.57089e-08 6.1723e-09)
(-2.04947e-08 -3.24138e-08 8.0046e-09)
(-2.44913e-08 -4.0161e-08 1.02117e-08)
(-2.89598e-08 -4.93258e-08 1.29006e-08)
(-3.40891e-08 -6.03505e-08 1.61831e-08)
(-4.00886e-08 -7.37533e-08 2.01649e-08)
(-4.71771e-08 -9.01084e-08 2.49178e-08)
(-5.55442e-08 -1.09945e-07 3.04213e-08)
(-6.52589e-08 -1.33465e-07 3.64566e-08)
(-7.60698e-08 -1.59883e-07 4.24439e-08)
(-8.69797e-08 -1.86103e-07 4.73011e-08)
(-9.52192e-08 -2.04496e-07 4.96792e-08)
(-2.5766e-09 -3.55688e-09 8.15055e-10)
(-7.48448e-09 -1.04166e-08 2.40503e-09)
(-1.20103e-08 -1.69844e-08 3.98002e-09)
(-1.63347e-08 -2.36337e-08 5.65641e-09)
(-2.06236e-08 -3.07025e-08 7.54324e-09)
(-2.50366e-08 -3.8516e-08 9.74907e-09)
(-2.97353e-08 -4.74061e-08 1.23873e-08)
(-3.48875e-08 -5.77267e-08 1.55768e-08)
(-4.0667e-08 -6.98631e-08 1.94387e-08)
(-4.72444e-08 -8.4225e-08 2.40808e-08)
(-5.47588e-08 -1.01207e-07 2.95631e-08)
(-6.32578e-08 -1.21073e-07 3.58277e-08)
(-7.25851e-08 -1.43696e-07 4.25723e-08)
(-8.22093e-08 -1.68017e-07 4.90681e-08)
(-9.10364e-08 -1.91079e-07 5.40428e-08)
(-9.71438e-08 -2.06583e-07 5.6146e-08)
(-3.00875e-09 -4.0076e-09 9.44675e-10)
(-8.73193e-09 -1.17265e-08 2.78524e-09)
(-1.39853e-08 -1.90859e-08 4.60123e-09)
(-1.89649e-08 -2.64823e-08 6.52263e-09)
(-2.38465e-08 -3.42633e-08 8.66951e-09)
(-2.87934e-08 -4.27451e-08 1.11595e-08)
(-3.39618e-08 -5.22252e-08 1.41123e-08)
(-3.95027e-08 -6.2989e-08 1.76513e-08)
(-4.55561e-08 -7.53027e-08 2.18981e-08)
(-5.22329e-08 -8.93888e-08 2.69571e-08)
(-5.95747e-08 -1.05366e-07 3.28808e-08)
(-6.74733e-08 -1.23132e-07 3.95998e-08)
(-7.55267e-08 -1.42167e-07 4.67999e-08)
(-8.28265e-08 -1.6122e-07 5.37336e-08)
(-8.78445e-08 -1.77941e-07 5.90667e-08)
(-8.92735e-08 -1.88477e-07 6.13067e-08)
(-3.37309e-09 -4.29346e-09 1.0496e-09)
(-9.77993e-09 -1.25526e-08 3.09168e-09)
(-1.56318e-08 -2.0393e-08 5.09747e-09)
(-2.11305e-08 -2.8214e-08 7.20517e-09)
(-2.64529e-08 -3.63522e-08 9.54038e-09)
(-3.17565e-08 -4.50932e-08 1.22238e-08)
(-3.71831e-08 -5.46782e-08 1.53752e-08)
(-4.28582e-08 -6.52986e-08 1.91147e-08)
(-4.88817e-08 -7.70759e-08 2.35575e-08)
(-5.53073e-08 -9.00199e-08 2.87992e-08)
(-6.21013e-08 -1.03953e-07 3.48856e-08)
(-6.90697e-08 -1.18395e-07 4.17544e-08)
(-7.57312e-08 -1.3242e-07 4.91335e-08)
(-8.11197e-08 -1.44558e-07 5.63776e-08)
(-8.35841e-08 -1.53036e-07 6.227e-08)
(-8.15842e-08 -1.56801e-07 6.51367e-08)
(-3.66889e-09 -4.41175e-09 1.12977e-09)
(-1.06273e-08 -1.28886e-08 3.32436e-09)
(-1.69505e-08 -2.09032e-08 5.46941e-09)
(-2.28384e-08 -2.88407e-08 7.7061e-09)
(-2.84619e-08 -3.70123e-08 1.0161e-08)
(-3.39663e-08 -4.5663e-08 1.29522e-08)
(-3.94742e-08 -5.49695e-08 1.61939e-08)
(-4.50833e-08 -6.50286e-08 1.99967e-08)
(-5.08563e-08 -7.58273e-08 2.44625e-08)
(-5.68033e-08 -8.71914e-08 2.96714e-08)
(-6.28513e-08 -9.87067e-08 3.56563e-08)
(-6.8806e-08 -1.09611e-07 4.23574e-08)
(-7.43262e-08 -1.18684e-07 4.95518e-08)
(-7.90085e-08 -1.24264e-07 5.67582e-08)
(-8.28366e-08 -1.24779e-07 6.31515e-08)
(-8.67734e-08 -1.20773e-07 6.74857e-08)
(-3.20809e-10 -4.73665e-10 8.29956e-11)
(-9.34033e-10 -1.39001e-09 2.45298e-10)
(-1.5062e-09 -2.27649e-09 4.0735e-10)
(-2.06424e-09 -3.18998e-09 5.81909e-10)
(-2.63438e-09 -4.18559e-09 7.81248e-10)
(-3.24433e-09 -5.3218e-09 1.01801e-09)
(-3.92563e-09 -6.66582e-09 1.3058e-09)
(-4.71657e-09 -8.29958e-09 1.65958e-09)
(-5.66578e-09 -1.0326e-08 2.09547e-09)
(-6.83714e-09 -1.28744e-08 2.63005e-09)
(-8.31631e-09 -1.61012e-08 3.27904e-09)
(-1.02197e-08 -2.01746e-08 4.05601e-09)
(-1.27069e-08 -2.52222e-08 4.97365e-09)
(-1.59939e-08 -3.11901e-08 6.04962e-09)
(-2.03041e-08 -3.74986e-08 7.29945e-09)
(-2.5129e-08 -4.22874e-08 8.55086e-09)
(-9.50954e-10 -1.3951e-09 2.45656e-10)
(-2.7683e-09 -4.09342e-09 7.26034e-10)
(-4.46243e-09 -6.70159e-09 1.20534e-09)
(-6.11156e-09 -9.38432e-09 1.72105e-09)
(-7.79146e-09 -1.23002e-08 2.30903e-09)
(-9.58142e-09 -1.5616e-08 3.00604e-09)
(-1.15708e-08 -1.95212e-08 3.85147e-09)
(-1.38663e-08 -2.42441e-08 4.88816e-09)
(-1.66015e-08 -3.00687e-08 6.16141e-09)
(-1.99472e-08 -3.73485e-08 7.71592e-09)
(-2.41233e-08 -4.65038e-08 9.58858e-09)
(-2.94067e-08 -5.79782e-08 1.17977e-08)
(-3.61127e-08 -7.20892e-08 1.43279e-08)
(-4.44831e-08 -8.86517e-08 1.71095e-08)
(-5.42351e-08 -1.06113e-07 1.99557e-08)
(-6.29131e-08 -1.19577e-07 2.22481e-08)
(-1.55324e-09 -2.24947e-09 4.00152e-10)
(-4.51948e-09 -6.59726e-09 1.18215e-09)
(-7.2781e-09 -1.07903e-08 1.96107e-09)
(-9.95257e-09 -1.50868e-08 2.79694e-09)
(-1.2661e-08 -1.97318e-08 3.74689e-09)
(-1.55245e-08 -2.49771e-08 4.86881e-09)
(-1.86766e-08 -3.11028e-08 6.22424e-09)
(-2.22718e-08 -3.84373e-08 7.8785e-09)
(-2.64962e-08 -4.73792e-08 9.89882e-09)
(-3.15763e-08 -5.84095e-08 1.2346e-08)
(-3.77838e-08 -7.20821e-08 1.52578e-08)
(-4.54212e-08 -8.8947e-08 1.86185e-08)
(-5.47489e-08 -1.09328e-07 2.23094e-08)
(-6.57399e-08 -1.32789e-07 2.6042e-08)
(-7.73811e-08 -1.57003e-07 2.92789e-08)
(-8.60563e-08 -1.75286e-07 3.11793e-08)
(-2.1114e-09 -2.99804e-09 5.4172e-10)
(-6.13939e-09 -8.78712e-09 1.5995e-09)
(-9.8728e-09 -1.43521e-08 2.65041e-09)
(-1.34714e-08 -2.00238e-08 3.77383e-09)
(-1.70853e-08 -2.61087e-08 5.04456e-09)
(-2.08643e-08 -3.29127e-08 6.53764e-09)
(-2.49676e-08 -4.07623e-08 8.33125e-09)
(-2.95713e-08 -5.00245e-08 1.05069e-08)
(-3.48749e-08 -6.11236e-08 1.3145e-08)
(-4.11027e-08 -7.45465e-08 1.63122e-08)
(-4.84931e-08 -9.08146e-08 2.00341e-08)
(-5.72629e-08 -1.10386e-07 2.42459e-08)
(-6.75147e-08 -1.33392e-07 2.87146e-08)
(-7.90288e-08 -1.59055e-07 3.29477e-08)
(-9.07933e-08 -1.84509e-07 3.61718e-08)
(-9.98087e-08 -2.026e-07 3.76209e-08)
(-2.61295e-09 -3.61097e-09 6.66751e-10)
(-7.59154e-09 -1.05751e-08 1.96732e-09)
(-1.21868e-08 -1.72439e-08 3.25515e-09)
(-1.65843e-08 -2.39957e-08 4.62507e-09)
(-2.09547e-08 -3.1172e-08 6.16536e-09)
(-2.54626e-08 -3.90983e-08 7.96341e-09)
(-3.02746e-08 -4.81029e-08 1.01083e-08)
(-3.55637e-08 -5.85303e-08 1.26911e-08)
(-4.15098e-08 -7.07465e-08 1.57986e-08)
(-4.82887e-08 -8.51288e-08 1.94971e-08)
(-5.60447e-08 -1.02023e-07 2.37999e-08)
(-6.48301e-08 -1.21634e-07 2.86069e-08)
(-7.44962e-08 -1.43789e-07 3.36124e-08)
(-8.45339e-08 -1.67476e-07 3.82029e-08)
(-9.38879e-08 -1.89987e-07 4.14709e-08)
(-1.00563e-07 -2.05409e-07 4.26909e-08)
(-3.04948e-09 -4.06746e-09 7.72807e-10)
(-8.85157e-09 -1.19021e-08 2.27831e-09)
(-1.41815e-08 -1.93724e-08 3.76327e-09)
(-1.92401e-08 -2.68805e-08 5.3335e-09)
(-2.42076e-08 -3.47769e-08 7.08647e-09)
(-2.92508e-08 -4.33774e-08 9.11664e-09)
(-3.45291e-08 -5.29756e-08 1.15189e-08)
(-4.01954e-08 -6.38456e-08 1.43874e-08)
(-4.63892e-08 -7.62349e-08 1.78098e-08)
(-5.32169e-08 -9.03347e-08 2.18501e-08)
(-6.07103e-08 -1.06222e-07 2.65152e-08)
(-6.87459e-08 -1.23749e-07 3.16963e-08)
(-7.69115e-08 -1.42378e-07 3.70774e-08)
(-8.43256e-08 -1.60939e-07 4.20294e-08)
(-8.95692e-08 -1.77336e-07 4.55971e-08)
(-9.14096e-08 -1.87997e-07 4.69474e-08)
(-3.41664e-09 -4.35655e-09 8.58626e-10)
(-9.90753e-09 -1.27372e-08 2.52897e-09)
(-1.58398e-08 -2.06935e-08 4.16918e-09)
(-2.14198e-08 -2.86299e-08 5.89176e-09)
(-2.68278e-08 -3.68849e-08 7.79899e-09)
(-3.22238e-08 -4.57441e-08 9.9877e-09)
(-3.77503e-08 -5.54431e-08 1.25531e-08)
(-4.35311e-08 -6.61619e-08 1.55877e-08)
(-4.96601e-08 -7.80031e-08 1.91747e-08)
(-5.61785e-08 -9.09475e-08 2.33732e-08)
(-6.30317e-08 -1.04782e-07 2.81887e-08)
(-6.99972e-08 -1.18995e-07 3.35243e-08)
(-7.65746e-08 -1.3266e-07 3.91079e-08)
(-8.18344e-08 -1.44403e-07 4.44048e-08)
(-8.42918e-08 -1.52688e-07 4.85655e-08)
(-8.2592e-08 -1.56656e-07 5.05904e-08)
(-3.71387e-09 -4.47548e-09 9.24163e-10)
(-1.07587e-08 -1.30749e-08 2.71934e-09)
(-1.71636e-08 -2.12054e-08 4.47341e-09)
(-2.31321e-08 -2.92566e-08 6.30175e-09)
(-2.88377e-08 -3.75423e-08 8.30696e-09)
(-3.44268e-08 -4.63052e-08 1.05845e-08)
(-4.0021e-08 -5.57166e-08 1.32254e-08)
(-4.57133e-08 -6.58616e-08 1.63152e-08)
(-5.15567e-08 -7.67086e-08 1.99282e-08)
(-5.75436e-08 -8.80574e-08 2.41143e-08)
(-6.35744e-08 -9.94631e-08 2.88749e-08)
(-6.94214e-08 -1.10139e-07 3.41256e-08)
(-7.4721e-08 -1.18875e-07 3.96492e-08)
(-7.91101e-08 -1.2409e-07 4.50596e-08)
(-8.27574e-08 -1.24396e-07 4.98242e-08)
(-8.68676e-08 -1.2044e-07 5.32468e-08)
(-3.24537e-10 -4.79142e-10 6.15215e-11)
(-9.45054e-10 -1.40605e-09 1.81824e-10)
(-1.52458e-09 -2.30278e-09 3.01879e-10)
(-2.09069e-09 -3.22666e-09 4.31113e-10)
(-2.67038e-09 -4.23311e-09 5.78522e-10)
(-3.29228e-09 -5.38049e-09 7.53265e-10)
(-3.98926e-09 -6.7353e-09 9.65056e-10)
(-4.80157e-09 -8.37775e-09 1.22423e-09)
(-5.78103e-09 -1.04075e-08 1.54139e-09)
(-6.9967e-09 -1.29483e-08 1.92645e-09)
(-8.54281e-09 -1.61469e-08 2.38712e-09)
(-1.05497e-08 -2.01582e-08 2.92735e-09)
(-1.31982e-08 -2.5091e-08 3.54764e-09)
(-1.67314e-08 -3.08674e-08 4.24922e-09)
(-2.13885e-08 -3.68771e-08 5.03264e-09)
(-2.65841e-08 -4.12745e-08 5.79319e-09)
(-9.61884e-10 -1.41113e-09 1.82108e-10)
(-2.80064e-09 -4.1405e-09 5.3814e-10)
(-4.51628e-09 -6.77866e-09 8.93257e-10)
(-6.18893e-09 -9.49183e-09 1.27507e-09)
(-7.89645e-09 -1.24394e-08 1.70989e-09)
(-9.72073e-09 -1.57877e-08 2.22438e-09)
(-1.17546e-08 -1.97243e-08 2.84665e-09)
(-1.41102e-08 -2.44726e-08 3.60627e-09)
(-1.69292e-08 -3.03078e-08 4.53304e-09)
(-2.03955e-08 -3.75671e-08 5.65329e-09)
(-2.47507e-08 -4.66471e-08 6.98361e-09)
(-3.03045e-08 -5.79579e-08 8.52144e-09)
(-3.74192e-08 -7.17802e-08 1.02349e-08)
(-4.63852e-08 -8.79048e-08 1.20526e-08)
(-5.69153e-08 -1.04799e-07 1.38356e-08)
(-6.63188e-08 -1.17709e-07 1.52111e-08)
(-1.57078e-09 -2.27513e-09 2.96619e-10)
(-4.57129e-09 -6.67269e-09 8.76232e-10)
(-7.36414e-09 -1.09136e-08 1.45334e-09)
(-1.00757e-08 -1.52585e-08 2.07223e-09)
(-1.28271e-08 -1.99535e-08 2.77477e-09)
(-1.57432e-08 -2.52502e-08 3.6031e-09)
(-1.89621e-08 -3.14249e-08 4.60095e-09)
(-2.26453e-08 -3.87996e-08 5.81366e-09)
(-2.69891e-08 -4.77588e-08 7.28503e-09)
(-3.2236e-08 -5.87625e-08 9.05023e-09)
(-3.86823e-08 -7.23323e-08 1.11215e-08)
(-4.66671e-08 -8.89811e-08 1.34656e-08)
(-5.64973e-08 -1.09006e-07 1.59724e-08)
(-6.81824e-08 -1.31998e-07 1.8421e-08)
(-8.0662e-08 -1.55768e-07 2.04551e-08)
(-9.00203e-08 -1.73866e-07 2.15882e-08)
(-2.1346e-09 -3.03204e-09 4.01572e-10)
(-6.20783e-09 -8.88648e-09 1.18561e-09)
(-9.98603e-09 -1.45145e-08 1.96425e-09)
(-1.36325e-08 -2.02493e-08 2.79608e-09)
(-1.73007e-08 -2.63991e-08 3.73602e-09)
(-2.11447e-08 -3.32689e-08 4.83859e-09)
(-2.53283e-08 -4.1181e-08 6.15957e-09)
(-3.00339e-08 -5.04937e-08 7.7554e-09)
(-3.54702e-08 -6.16163e-08 9.67847e-09)
(-4.18745e-08 -7.50106e-08 1.19659e-08)
(-4.9505e-08 -9.11673e-08 1.46183e-08)
(-5.86064e-08 -1.10512e-07 1.75635e-08)
(-6.93167e-08 -1.33172e-07 2.0609e-08)
(-8.14409e-08 -1.5844e-07 2.33985e-08)
(-9.39214e-08 -1.83642e-07 2.5437e-08)
(-1.03507e-07 -2.01807e-07 2.63119e-08)
(-2.6407e-09 -3.65132e-09 4.94273e-10)
(-7.67314e-09 -1.06931e-08 1.45824e-09)
(-1.23212e-08 -1.74363e-08 2.41248e-09)
(-1.6774e-08 -2.42622e-08 3.42691e-09)
(-2.12059e-08 -3.15138e-08 4.56647e-09)
(-2.57849e-08 -3.95154e-08 5.89454e-09)
(-3.06814e-08 -4.85906e-08 7.47506e-09)
(-3.60729e-08 -5.90741e-08 9.37098e-09)
(-4.21443e-08 -7.13159e-08 1.16388e-08)
(-4.90786e-08 -8.567e-08 1.43147e-08)
(-5.703e-08 -1.02454e-07 1.73887e-08)
(-6.60662e-08 -1.2185e-07 2.07621e-08)
(-7.60614e-08 -1.43702e-07 2.41911e-08)
(-8.65322e-08 -1.67095e-07 2.72402e-08)
(-9.64133e-08 -1.89526e-07 2.93358e-08)
(-1.03538e-07 -2.05197e-07 3.00997e-08)
(-3.0805e-09 -4.11218e-09 5.72871e-10)
(-8.94268e-09 -1.2033e-08 1.68879e-09)
(-1.43307e-08 -1.95852e-08 2.78911e-09)
(-1.9449e-08 -2.71742e-08 3.95202e-09)
(-2.44809e-08 -3.51516e-08 5.24913e-09)
(-2.95958e-08 -4.38319e-08 6.74925e-09)
(-3.49554e-08 -5.3503e-08 8.5203e-09)
(-4.07139e-08 -6.44297e-08 1.0628e-08)
(-4.70114e-08 -7.6843e-08 1.31293e-08)
(-5.39541e-08 -9.09126e-08 1.6059e-08)
(-6.15733e-08 -1.06691e-07 1.9403e-08)
(-6.97486e-08 -1.2402e-07 2.3058e-08)
(-7.80814e-08 -1.42385e-07 2.67757e-08)
(-8.57244e-08 -1.6072e-07 3.0117e-08)