/*--------------------------------*- C++ -*----------------------------------*\
| =========                 |                                                 |
| \\      /  F ield         | foam-extend: Open Source CFD                    |
|  \\    /   O peration     | Version:     3.1                                |
|   \\  /    A nd           | Web:         http://www.extend-project.de       |
|    \\/     M anipulation  |                                                 |
\*---------------------------------------------------------------------------*/
FoamFile
{
    version     2.0;
    format      ascii;
    class       surfaceScalarField;
    location    "0.5";
    object      meshPhi;
}
// * * * * * * * * * * * * * * * * * * * * * * * * * * * * * * * * * * * * * //

dimensions      [0 3 -1 0 0 0 0];

internalField   nonuniform List<scalar> 
41600
(
1.57237e-07
2.43262e-08
1.21333e-09
-1.24443e-09
3.02796e-07
7.20117e-08
3.62804e-09
-3.72136e-09
4.35482e-07
1.18328e-07
6.08488e-09
-6.24203e-09
5.58724e-07
1.65066e-07
8.74839e-09
-8.97474e-09
6.7533e-07
2.14625e-07
1.18249e-08
-1.213e-08
7.87509e-07
2.69386e-07
1.55454e-08
-1.59429e-08
8.96803e-07
3.31891e-07
2.01931e-08
-2.07004e-08
1.00389e-06
4.05015e-07
2.61418e-08
-2.67808e-08
1.10827e-06
4.9214e-07
3.39182e-08
-3.47152e-08
1.20768e-06
5.97305e-07
4.43067e-08
-4.5293e-08
1.29751e-06
7.25345e-07
5.85414e-08
-5.97515e-08
1.37024e-06
8.81919e-07
7.86502e-08
-8.01128e-08
1.41589e-06
1.07313e-06
1.08011e-07
-1.09722e-07
1.42545e-06
1.30298e-06
1.51725e-07
-1.53662e-07
1.39801e-06
1.55629e-06
2.12673e-07
-2.15978e-07
2.15452e-06
3.68587e-07
-5.19411e-07
4.6912e-07
4.76226e-08
3.57775e-09
-3.66976e-09
9.03334e-07
1.40925e-07
1.06958e-08
-1.09718e-08
1.29907e-06
2.31415e-07
1.79261e-08
-1.83907e-08
1.66655e-06
3.22527e-07
2.574e-08
-2.64085e-08
2.01418e-06
4.18857e-07
3.47291e-08
-3.56293e-08
2.34861e-06
5.24912e-07
4.55497e-08
-4.67205e-08
2.67457e-06
6.45437e-07
5.89954e-08
-6.04873e-08
2.9944e-06
7.85711e-07
7.60971e-08
-7.79723e-08
3.30702e-06
9.51808e-07
9.82745e-08
-1.00608e-07
3.60651e-06
1.15076e-06
1.27585e-07
-1.30464e-07
3.88009e-06
1.39056e-06
1.67147e-07
-1.7067e-07
4.10636e-06
1.67958e-06
2.21841e-07
-2.26093e-07
4.25582e-06
2.02463e-06
2.99265e-07
-3.04252e-07
4.29912e-06
2.4242e-06
4.09747e-07
-4.15386e-07
4.22854e-06
2.84048e-06
5.5651e-07
-5.64828e-07
3.47454e-06
8.4725e-07
-1.08176e-06
7.73392e-07
6.88917e-08
5.78764e-09
-5.9372e-09
1.48904e-06
2.03765e-07
1.72947e-08
-1.77433e-08
2.141e-06
3.34307e-07
2.89511e-08
-2.97053e-08
2.74612e-06
4.6533e-07
4.14841e-08
-4.25679e-08
3.31829e-06
6.03265e-07
5.58079e-08
-5.72644e-08
3.86866e-06
7.54311e-07
7.29176e-08
-7.48073e-08
4.40549e-06
9.24859e-07
9.39874e-08
-9.63879e-08
4.93346e-06
1.12185e-06
1.20495e-07
-1.235e-07
5.45232e-06
1.35304e-06
1.54395e-07
-1.58116e-07
5.95468e-06
1.62704e-06
1.98373e-07
-2.02938e-07
6.42291e-06
1.95302e-06
2.5623e-07
-2.61778e-07
6.82585e-06
2.33925e-06
3.33381e-07
-3.40034e-07
7.118e-06
2.7895e-06
4.37193e-07
-4.44973e-07
7.24927e-06
3.29336e-06
5.7547e-07
-5.84211e-07
7.19775e-06
3.79545e-06
7.44856e-07
-7.55739e-07
4.51565e-06
9.87207e-07
-1.13842e-06
1.06524e-06
8.72509e-08
7.77376e-09
-7.97586e-09
2.05056e-06
2.57919e-07
2.32151e-08
-2.38209e-08
2.9476e-06
4.22697e-07
3.87987e-08
-3.98161e-08
3.77953e-06
5.87429e-07
5.54438e-08
-5.6903e-08
4.56553e-06
7.5991e-07
7.43045e-08
-7.62602e-08
5.32128e-06
9.47493e-07
9.66058e-08
-9.91347e-08
6.05889e-06
1.15755e-06
1.23745e-07
-1.26944e-07
6.78634e-06
1.39785e-06
1.57404e-07
-1.61387e-07
7.506e-06
1.67674e-06
1.99684e-07
-2.04582e-07
8.21222e-06
2.00314e-06
2.53267e-07
-2.59222e-07
8.88759e-06
2.38589e-06
3.21583e-07
-3.28734e-07
9.49828e-06
2.83188e-06
4.08868e-07
-4.17318e-07
9.99075e-06
3.34143e-06
5.1971e-07
-5.29425e-07
1.02984e-05
3.89772e-06
6.56632e-07
-6.67266e-07
1.03745e-05
4.43697e-06
8.10679e-07
-8.22104e-07
5.16598e-06
9.93273e-07
-1.10272e-06
1.34012e-06
1.01996e-07
9.4856e-09
-9.73391e-09
2.57907e-06
3.01317e-07
2.83053e-08
-2.9049e-08
3.70603e-06
4.93224e-07
4.72145e-08
-4.84617e-08
4.74995e-06
6.84204e-07
6.72544e-08
-6.9039e-08
5.73498e-06
8.82905e-07
8.97323e-08
-9.21165e-08
6.68113e-06
1.09726e-06
1.15994e-07
-1.19065e-07
7.60459e-06
1.33496e-06
1.47513e-07
-1.51377e-07
8.51734e-06
1.60376e-06
1.85969e-07
-1.9075e-07
9.42609e-06
1.91166e-06
2.33315e-07
-2.39145e-07
1.03301e-05
2.26682e-06
2.91816e-07
-2.98821e-07
1.12177e-05
2.67688e-06
3.63987e-07
-3.72263e-07
1.20608e-05
3.14713e-06
4.5229e-07
-4.61853e-07
1.28084e-05
3.67609e-06
5.58245e-07
-5.68904e-07
1.33832e-05
4.24479e-06
6.80111e-07
-6.91235e-07
1.36958e-05
4.78711e-06
8.06972e-07
-8.17357e-07
5.48859e-06
9.31914e-07
-9.95009e-07
1.59397e-06
1.12625e-07
1.08943e-08
-1.11816e-08
3.06672e-06
3.32499e-07
3.24803e-08
-3.33402e-08
4.40483e-06
5.43573e-07
5.40622e-08
-5.55017e-08
5.64236e-06
7.52597e-07
7.67372e-08
-7.87914e-08
6.8078e-06
9.68563e-07
1.01886e-07
-1.0462e-07
7.92511e-06
1.19946e-06
1.30884e-07
-1.34389e-07
9.01431e-06
1.45266e-06
1.65165e-07
-1.69552e-07
1.00916e-05
1.73524e-06
2.06271e-07
-2.1166e-07
1.11688e-05
2.054e-06
2.55846e-07
-2.62357e-07
1.2252e-05
2.41546e-06
3.1558e-07
-3.23306e-07
1.33393e-05
2.82532e-06
3.86996e-07
-3.95961e-07
1.44155e-05
3.28731e-06
4.70985e-07
-4.81072e-07
1.54437e-05
3.80021e-06
5.66854e-07
-5.77651e-07
1.63488e-05
4.34897e-06
6.7056e-07
-6.81095e-07
1.69918e-05
4.87438e-06
7.71568e-07
-7.79854e-07
5.5442e-06
8.52759e-07
-8.80181e-07
1.82332e-06
1.18841e-07
1.19922e-08
-1.23109e-08
3.50683e-06
3.50628e-07
3.57195e-08
-3.66724e-08
5.03432e-06
5.72492e-07
5.93181e-08
-6.09104e-08
6.44407e-06
7.91108e-07
8.38848e-08
-8.61505e-08
7.76809e-06
1.01536e-06
1.10808e-07
-1.13813e-07
9.03352e-06
1.25284e-06
1.41423e-07
-1.45257e-07
1.02635e-05
1.51014e-06
1.77057e-07
-1.81826e-07
1.14778e-05
1.79306e-06
2.19038e-07
-2.24858e-07
1.26927e-05
2.1066e-06
2.68664e-07
-2.75631e-07
1.39208e-05
2.4548e-06
3.2707e-07
-3.35239e-07
1.51701e-05
2.84047e-06
3.94981e-07
-4.04304e-07
1.64407e-05
3.26471e-06
4.72243e-07
-4.82476e-07
1.77173e-05
3.72619e-06
5.5707e-07
-5.67594e-07
1.89476e-05
4.218e-06
6.44987e-07
-6.54487e-07
1.99749e-05
4.70521e-06
7.27653e-07
-7.33422e-07
5.39584e-06
7.83671e-07
-7.83612e-07
2.02539e-06
1.27896e-08
-1.31321e-08
1.20542e-07
3.89412e-06
3.80574e-08
-3.90806e-08
3.55451e-07
5.587e-06
6.30534e-08
-6.47596e-08
5.7971e-07
7.14542e-06
8.88302e-08
-9.12505e-08
7.99648e-07
8.60392e-06
1.16735e-07
-1.19932e-07
1.02368e-06
9.99177e-06
1.48017e-07
-1.52077e-07
1.25864e-06
1.13341e-05
1.83858e-07
-1.88882e-07
1.51005e-06
1.26527e-05
2.25364e-07
-2.31453e-07
1.78212e-06
1.39665e-05
2.73503e-07
-2.80737e-07
2.07762e-06
1.52917e-05
3.28971e-07
-3.37372e-07
2.39752e-06
1.66417e-05
3.9195e-07
-4.01425e-07
2.74053e-06
1.80252e-05
4.61733e-07
-4.71975e-07
3.10227e-06
1.944e-05
5.36203e-07
-5.46527e-07
3.47398e-06
2.08515e-05
6.11256e-07
-6.20335e-07
3.83855e-06
2.21251e-05
6.80223e-07
-6.85592e-07
4.15133e-06
7.26264e-07
-7.08918e-07
4.8741e-06
1.59622e-07
2.54775e-08
1.13709e-09
3.07418e-07
7.54601e-08
3.39973e-09
4.42226e-07
1.24129e-07
5.7011e-09
5.67577e-07
1.73441e-07
8.1949e-09
6.86365e-07
2.25999e-07
1.10737e-08
8.00851e-07
2.84406e-07
1.45516e-08
9.12592e-07
3.51461e-07
1.88885e-08
1.02224e-06
4.30349e-07
2.44217e-08
1.12916e-06
5.24838e-07
3.16123e-08
1.23096e-06
6.3946e-07
4.11194e-08
1.32283e-06
7.79661e-07
5.3914e-08
1.39724e-06
9.51826e-07
7.14373e-08
1.44498e-06
1.16273e-06
9.57011e-08
1.45955e-06
1.41627e-06
1.28746e-07
1.44615e-06
1.69549e-06
1.6897e-07
2.18299e-06
2.43711e-07
4.76216e-07
4.98719e-08
3.35275e-09
9.17084e-07
1.47657e-07
1.00222e-08
1.31913e-06
2.42728e-07
1.67947e-08
1.69288e-06
3.38837e-07
2.41105e-08
2.04698e-06
4.40967e-07
3.25217e-08
2.38826e-06
5.54045e-07
4.26373e-08
2.7215e-06
6.83292e-07
5.51865e-08
3.04893e-06
8.34555e-07
7.11003e-08
3.36918e-06
1.0146e-06
9.16254e-08
3.67577e-06
1.23129e-06
1.18494e-07
3.95527e-06
1.49361e-06
1.54163e-07
4.18588e-06
1.81094e-06
2.02087e-07
4.33927e-06
2.19065e-06
2.66694e-07
4.39138e-06
2.63006e-06
3.51573e-07
4.34962e-06
3.08816e-06
4.50758e-07
3.61573e-06
5.92764e-07
7.85031e-07
7.21344e-08
5.42326e-09
1.51158e-06
2.13464e-07
1.62045e-08
2.17386e-06
3.50582e-07
2.7122e-08
2.78923e-06
4.88748e-07
3.88557e-08
3.37199e-06
6.34931e-07
5.22587e-08
3.93359e-06
7.95905e-07
6.82555e-08
4.48238e-06
9.78703e-07
8.79273e-08
5.0229e-06
1.19101e-06
1.12612e-07
5.55446e-06
1.44146e-06
1.44033e-07
6.06874e-06
1.73969e-06
1.8446e-07
6.54681e-06
2.09595e-06
2.36886e-07
6.95611e-06
2.51948e-06
3.05091e-07
7.25099e-06
3.0141e-06
3.93053e-07
7.38573e-06
3.56707e-06
5.02006e-07
7.35647e-06
4.11946e-06
6.20835e-07
4.71582e-06
7.46355e-07
1.08114e-06
9.13399e-08
7.28363e-09
2.08134e-06
2.70138e-07
2.17496e-08
2.99245e-06
4.43167e-07
3.63444e-08
3.83833e-06
6.16812e-07
5.19269e-08
4.63876e-06
7.99523e-07
6.95751e-08
5.40981e-06
9.99333e-07
9.0429e-08
6.1638e-06
1.22436e-06
1.15778e-07
6.90859e-06
1.48319e-06
1.47153e-07
7.64604e-06
1.78515e-06
1.86416e-07
8.36933e-06
2.14022e-06
2.35846e-07
9.05915e-06
2.55832e-06
2.9814e-07
9.67901e-06
3.04712e-06
3.76154e-07
1.01729e-05
3.60665e-06
4.71828e-07
1.04753e-05
4.21719e-06
5.82995e-07
1.05549e-05
4.81173e-06
6.95878e-07
5.4198e-06
7.97388e-07
1.35991e-06
1.06752e-07
8.88652e-09
2.61734e-06
3.15514e-07
2.65155e-08
3.76174e-06
5.16963e-07
4.42231e-08
4.82295e-06
7.18193e-07
6.29823e-08
5.82582e-06
9.28577e-07
8.4015e-08
6.79095e-06
1.15678e-06
1.08576e-07
7.73482e-06
1.41128e-06
1.3803e-07
8.66942e-06
1.70066e-06
1.73913e-07
9.60096e-06
2.03388e-06
2.17973e-07
1.05276e-05
2.42013e-06
2.72151e-07
1.14353e-05
2.86805e-06
3.38423e-07
1.22925e-05
3.38368e-06
4.18317e-07
1.30433e-05
3.96519e-06
5.11698e-07
1.36063e-05
4.59079e-06
6.14092e-07
1.38995e-05
5.19116e-06
7.11943e-07
5.78094e-06
7.89299e-07
1.61718e-06
1.17847e-07
1.0205e-08
3.11158e-06
3.48071e-07
3.04228e-08
4.47006e-06
5.69564e-07
5.0631e-08
5.72774e-06
7.89711e-07
7.18549e-08
6.91396e-06
1.01826e-06
9.53862e-08
8.05337e-06
1.26395e-06
1.22509e-07
9.16645e-06
1.5349e-06
1.54559e-07
1.02695e-05
1.83896e-06
1.92953e-07
1.13741e-05
2.18383e-06
2.39182e-07
1.24854e-05
2.57691e-06
2.94717e-07
1.35992e-05
3.02484e-06
3.60762e-07
1.46968e-05
3.53212e-06
4.37718e-07
1.57346e-05
4.09758e-06
5.24118e-07
1.66283e-05
4.70423e-06
6.14731e-07
1.72325e-05
5.28983e-06
6.97856e-07
5.86274e-06
7.57663e-07
1.84944e-06
1.24318e-07
1.12317e-08
3.55726e-06
3.66948e-07
3.34523e-08
5.10757e-06
5.99682e-07
5.55461e-08
6.53979e-06
8.29833e-07
7.85383e-08
7.88693e-06
1.06704e-06
1.03729e-07
9.17693e-06
1.31959e-06
1.32367e-07
1.04335e-05
1.59477e-06
1.65691e-07
1.16767e-05
1.89907e-06
2.04937e-07
1.29227e-05
2.2382e-06
2.51295e-07
1.41835e-05
2.61693e-06
3.05782e-07
1.54655e-05
3.03878e-06
3.68985e-07
1.67654e-05
3.50555e-06
4.40601e-07
1.80616e-05
4.0164e-06
5.18685e-07
1.92899e-05
4.56422e-06
5.98588e-07
2.0273e-05
5.11373e-06
6.71655e-07
5.72716e-06
7.24335e-07
2.05387e-06
1.19769e-08
1.26066e-07
3.94904e-06
3.56368e-08
3.71896e-07
5.66664e-06
5.9036e-08
6.07065e-07
7.2493e-06
8.31578e-08
8.38513e-07
8.73262e-06
1.09264e-07
1.07536e-06
1.01467e-05
1.38525e-07
1.32511e-06
1.15174e-05
1.7205e-07
1.59386e-06
1.28669e-05
2.10874e-07
1.88637e-06
1.42142e-05
2.55902e-07
2.20592e-06
1.55751e-05
3.07782e-07
2.55395e-06
1.6962e-05
3.66676e-07
2.92951e-06
1.83807e-05
4.31916e-07
3.32836e-06
1.98235e-05
5.01534e-07
3.74143e-06
2.12442e-05
5.71699e-07
4.15016e-06
2.24816e-05
6.35826e-07
4.50661e-06
6.89232e-07
5.15614e-06
1.61705e-07
2.65148e-08
1.01884e-09
3.11461e-07
7.85631e-08
3.04583e-09
4.48129e-07
1.29334e-07
5.10644e-09
5.75322e-07
1.8092e-07
7.33733e-09
6.95992e-07
2.36083e-07
9.90875e-09
8.12442e-07
2.97586e-07
1.30077e-08
9.26233e-07
3.6839e-07
1.68562e-08
1.03798e-06
4.51841e-07
2.1732e-08
1.147e-06
5.51847e-07
2.79956e-08
1.25078e-06
6.73003e-07
3.61216e-08
1.34452e-06
8.20618e-07
4.67291e-08
1.42095e-06
1.00043e-06
6.05749e-08
1.47175e-06
1.2174e-06
7.83916e-08
1.49224e-06
1.47141e-06
1.00226e-07
1.48872e-06
1.74028e-06
1.23471e-07
2.22284e-06
1.58072e-07
4.82417e-07
5.18993e-08
3.00399e-09
9.29117e-07
1.53718e-07
8.97863e-09
1.33669e-06
2.52886e-07
1.50426e-08
1.71591e-06
3.53413e-07
2.15873e-08
2.07561e-06
4.60588e-07
2.91013e-08
2.42272e-06
5.79636e-07
3.8117e-08
2.76205e-06
7.16082e-07
4.92583e-08
3.09573e-06
8.76061e-07
6.3295e-08
3.42217e-06
1.06657e-06
8.12048e-08
3.73461e-06
1.29556e-06
1.0424e-07
4.01939e-06
1.57164e-06
1.33965e-07
4.25522e-06
1.90283e-06
1.72157e-07
4.4158e-06
2.29291e-06
2.20233e-07
4.48157e-06
2.73156e-06
2.77381e-07
4.46345e-06
3.1683e-06
3.35954e-07
3.64141e-06
4.00651e-07
7.95206e-07
7.50586e-08
4.85892e-09
1.53132e-06
2.222e-07
1.45167e-08
2.20266e-06
3.65204e-07
2.42921e-08
2.82698e-06
5.09692e-07
3.47897e-08
3.41889e-06
6.63058e-07
4.67654e-08
3.99003e-06
8.32489e-07
6.10291e-08
4.54881e-06
1.02542e-06
7.85091e-08
5.09961e-06
1.24991e-06
1.00318e-07
5.64134e-06
1.51485e-06
1.27815e-07
6.16512e-06
1.82991e-06
1.6265e-07
6.65139e-06
2.20471e-06
2.06715e-07
7.06757e-06
2.64639e-06
2.61835e-07
7.3698e-06
3.15369e-06
3.28735e-07
7.51742e-06
3.70352e-06
4.04436e-07
7.51225e-06
4.22454e-06
4.77401e-07
4.73952e-06
5.3557e-07
1.09505e-06
9.50284e-08
6.52536e-09
2.1083e-06
2.81148e-07
1.94834e-08
3.03176e-06
4.61567e-07
3.25514e-08
3.88984e-06
6.43113e-07
4.64936e-08
4.70272e-06
8.34747e-07
6.22665e-08
5.48678e-06
1.04499e-06
8.08714e-08
6.25441e-06
1.28242e-06
1.03421e-07
7.01329e-06
1.55603e-06
1.31197e-07
7.76477e-06
1.87541e-06
1.65684e-07
8.50112e-06
2.25045e-06
2.08547e-07
9.2018e-06
2.69021e-06
2.61468e-07
9.82924e-06
3.19975e-06
3.25624e-07
1.03277e-05
3.77302e-06
4.0041e-07
1.06353e-05
4.37845e-06
4.80847e-07
1.07283e-05
4.93502e-06
5.54027e-07
5.44806e-06
6.04633e-07
1.37722e-06
1.11043e-07
7.96087e-09
2.65087e-06
3.28312e-07
2.37515e-08
3.8106e-06
5.38317e-07
3.96066e-08
4.88691e-06
7.48642e-07
5.63926e-08
5.90521e-06
9.69233e-07
7.51954e-08
6.88645e-06
1.20928e-06
9.71213e-08
7.84727e-06
1.47773e-06
1.23354e-07
8.79947e-06
1.78358e-06
1.55194e-07
9.7487e-06
2.136e-06
1.94049e-07
1.06919e-05
2.54399e-06
2.41355e-07
1.16133e-05
3.01518e-06
2.98317e-07
1.2479e-05
3.55278e-06
3.65296e-07
1.32309e-05
4.14852e-06
4.40585e-07
1.37884e-05
4.76823e-06
5.18306e-07
1.40782e-05
5.32791e-06
5.8628e-07
5.81868e-06
6.30306e-07
1.6375e-06
1.22561e-07
9.14129e-09
3.1509e-06
3.62118e-07
2.72498e-08
4.5273e-06
5.92959e-07
4.53437e-08
5.80259e-06
8.22991e-07
6.43366e-08
7.00677e-06
1.06256e-06
8.53786e-08
8.16495e-06
1.32091e-06
1.09606e-07
9.29782e-06
1.60666e-06
1.38184e-07
1.04216e-05
1.92799e-06
1.72327e-07
1.15472e-05
2.29275e-06
2.13256e-07
1.26785e-05
2.70809e-06
2.62079e-07
1.38092e-05
3.17956e-06
3.19507e-07
1.4917e-05
3.70889e-06
3.85288e-07
1.5954e-05
4.28868e-06
4.57225e-07
1.68322e-05
4.88998e-06
5.29714e-07
1.74145e-05
5.43573e-06
5.92431e-07
5.91299e-06
6.33376e-07
1.87231e-06
1.29266e-07
1.00602e-08
3.60149e-06
3.81679e-07
2.99611e-08
5.17187e-06
6.24177e-07
4.97429e-08
6.62377e-06
8.64593e-07
7.03195e-08
7.99093e-06
1.11316e-06
9.285e-08
9.3018e-06
1.37866e-06
1.18443e-07
1.05804e-05
1.66881e-06
1.4819e-07
1.18467e-05
1.99039e-06
1.83158e-07
1.31165e-05
2.34916e-06
2.24346e-07
1.44004e-05
2.74957e-06
2.7254e-07
1.57025e-05
3.19405e-06
3.28067e-07
1.70155e-05
3.68182e-06
3.90356e-07
1.83114e-05
4.2065e-06
4.573e-07
1.95185e-05
4.75027e-06
5.24446e-07
2.0464e-05
5.26364e-06
5.84191e-07
5.79032e-06
6.27646e-07
2.07882e-06
1.07266e-08
1.3106e-07
3.99724e-06
3.19151e-08
3.86751e-07
5.73662e-06
5.28648e-08
6.31728e-07
7.34055e-06
7.44531e-08
8.73433e-07
8.8454e-06
9.7806e-08
1.12155e-06
1.02819e-05
1.23967e-07
1.38405e-06
1.16762e-05
1.53917e-07
1.66737e-06
1.30505e-05
1.88564e-07
1.9765e-06
1.44234e-05
2.28681e-07
2.31469e-06
1.58097e-05
2.74789e-07
2.68298e-06
1.72193e-05
3.26945e-07
3.07931e-06
1.86542e-05
3.84442e-07
3.4971e-06
2.00998e-05
4.45415e-07
3.92258e-06
2.15008e-05
5.06414e-07
4.32861e-06
2.2695e-05
5.61565e-07
4.65545e-06
6.10596e-07
5.22767e-06
1.63471e-07
2.74123e-08
8.63236e-10
3.1489e-07
8.12439e-08
2.58028e-09
4.53135e-07
1.33817e-07
4.32467e-09
5.81878e-07
1.87326e-07
6.21092e-09
7.04121e-07
2.4465e-07
8.38064e-09
8.22189e-07
3.08653e-07
1.09867e-08
9.37646e-07
3.82375e-07
1.42051e-08
1.05108e-06
4.69204e-07
1.82462e-08
1.16176e-06
5.73005e-07
2.33634e-08
1.26716e-06
6.98185e-07
2.98533e-08
1.3625e-06
8.49586e-07
3.8034e-08
1.44079e-06
1.03203e-06
4.81652e-08
1.49434e-06
1.24902e-06
6.02464e-08
1.51929e-06
1.49889e-06
7.35936e-08
1.52158e-06
1.76029e-06
8.61263e-08
2.24871e-06
1.01885e-07
4.87674e-07
5.36539e-08
2.54514e-09
9.39322e-07
1.58956e-07
7.60615e-09
1.35158e-06
2.61635e-07
1.27397e-08
1.73541e-06
3.65902e-07
1.82737e-08
2.09978e-06
4.77265e-07
2.4615e-08
2.45169e-06
6.01143e-07
3.21993e-08
2.79596e-06
7.43203e-07
4.1523e-08
3.13464e-06
9.09646e-07
5.31709e-08
3.46599e-06
1.10738e-06
6.78338e-08
3.7831e-06
1.34395e-06
8.62978e-08
4.07238e-06
1.62704e-06
1.09359e-07
4.31311e-06
1.96283e-06
1.37569e-07
4.48056e-06
2.35211e-06
1.70629e-07
4.5573e-06
2.78113e-06
2.06217e-07
4.55347e-06
3.1998e-06
2.38401e-07
3.65228e-06
2.66617e-07
8.03833e-07
7.75902e-08
4.11667e-09
1.54806e-06
2.29752e-07
1.22976e-08
2.22707e-06
3.77805e-07
2.05734e-08
2.85893e-06
5.27649e-07
2.94511e-08
3.45848e-06
6.8699e-07
3.9561e-08
4.03748e-06
8.63272e-07
5.15677e-08
4.60432e-06
1.06412e-06
6.62131e-08
5.16329e-06
1.29767e-06
8.43481e-08
5.71299e-06
1.57264e-06
1.06941e-07
6.24421e-06
1.8981e-06
1.35033e-07
6.73718e-06
2.28228e-06
1.6956e-07
7.15975e-06
2.72968e-06
2.10914e-07
7.46977e-06
3.23464e-06
2.58012e-07
7.62929e-06
3.76896e-06
3.06709e-07
7.63995e-06
4.26096e-06
3.48353e-07
4.73639e-06
3.73343e-07
1.10685e-06
9.8223e-08
5.52845e-09
2.13117e-06
2.90671e-07
1.6505e-08
3.0651e-06
4.77435e-07
2.7569e-08
3.93345e-06
6.65681e-07
3.9362e-08
4.75672e-06
8.64749e-07
5.26828e-08
5.55147e-06
1.08347e-06
6.83565e-08
6.33009e-06
1.33062e-06
8.72779e-08
7.10009e-06
1.61526e-06
1.10436e-07
7.86236e-06
1.94673e-06
1.38902e-07
8.60859e-06
2.33414e-06
1.73731e-07
9.31755e-06
2.78482e-06
2.15714e-07
9.95147e-06
3.30055e-06
2.64805e-07
1.04557e-05
3.86999e-06
3.19064e-07
1.0771e-05
4.4553e-06
3.73128e-07
1.08754e-05
4.97485e-06
4.17426e-07
5.43651e-06
4.40944e-07
1.3919e-06
1.14762e-07
6.7445e-09
2.67933e-06
3.39388e-07
2.01205e-08
3.85205e-06
5.56743e-07
3.35451e-08
4.94109e-06
7.74795e-07
4.77463e-08
5.97225e-06
1.0039e-06
6.36332e-08
6.96672e-06
1.2536e-06
8.21211e-08
7.94116e-06
1.53302e-06
1.04169e-07
8.90714e-06
1.85121e-06
1.30793e-07
9.86976e-06
2.21702e-06
1.63024e-07
1.0825e-05
2.63853e-06
2.01784e-07
1.17561e-05
3.12145e-06
2.47588e-07
1.26276e-05
3.66538e-06
2.99964e-07
1.33816e-05
4.25635e-06
3.56477e-07
1.39396e-05
4.85341e-06
4.11504e-07
1.42327e-05
5.37176e-06
4.55934e-07
5.80601e-06
4.79991e-07
1.65474e-06
1.26648e-07
7.74434e-09
3.18429e-06
3.74281e-07
2.30836e-08
4.57588e-06
6.13164e-07
3.84048e-08
5.86603e-06
8.51604e-07
5.44763e-08
7.08521e-06
1.10038e-06
7.22631e-08
8.25879e-06
1.36908e-06
9.27093e-08
9.40752e-06
1.66651e-06
1.16768e-07
1.05474e-05
2.00085e-06
1.454e-07
1.16886e-05
2.37957e-06
1.79517e-07
1.28341e-05
2.80886e-06
2.19848e-07
1.39757e-05
3.29227e-06
2.66648e-07
1.5089e-05
3.82792e-06
3.19207e-07
1.61245e-05
4.40272e-06
3.75095e-07
1.69954e-05
4.98098e-06
4.29296e-07
1.75711e-05
5.48458e-06
4.73932e-07
5.90544e-06
5.00948e-07
1.89173e-06
1.3356e-07
8.52249e-09
3.63907e-06
3.94444e-07
2.53798e-08
5.2265e-06
6.4535e-07
4.21312e-08
6.69502e-06
8.94511e-07
5.95459e-08
8.07889e-06
1.15259e-06
7.85985e-08
9.40691e-06
1.4287e-06
1.00215e-07
1.07032e-05
1.73073e-06
1.25293e-07
1.19875e-05
2.06541e-06
1.54694e-07
1.32748e-05
2.4381e-06
1.89178e-07
1.45748e-05
2.85226e-06
2.29279e-07
1.58892e-05
3.30841e-06
2.75068e-07
1.7208e-05
3.80236e-06
3.25791e-07
1.85003e-05
4.32248e-06
3.79397e-07
1.96937e-05
4.8446e-06
4.32053e-07
2.06233e-05
5.31777e-06
4.77808e-07
5.79152e-06
5.10908e-07
2.10002e-06
9.08664e-09
1.35396e-07
4.03823e-06
2.70342e-08
3.99634e-07
5.79613e-06
4.47752e-08
6.53066e-07
7.41805e-06
6.30487e-08
9.03522e-07
8.94093e-06
8.28032e-08
1.16111e-06
1.03959e-05
1.04913e-07
1.43408e-06
1.18091e-05
1.30194e-07
1.72903e-06
1.32028e-05
1.59386e-07
2.05087e-06
1.45947e-05
1.93094e-07
2.40243e-06
1.59984e-05
2.31684e-07
2.7838e-06
1.74218e-05
2.75095e-07
3.19116e-06
1.88638e-05
3.22594e-07
3.61493e-06
2.03061e-05
3.72491e-07
4.03688e-06
2.16913e-05
4.21849e-07
4.42456e-06
2.28631e-05
4.65857e-07
4.71629e-06
5.05648e-07
5.23828e-06
1.64903e-07
2.81496e-08
6.76233e-10
3.17671e-07
8.34428e-08
2.02101e-09
4.5719e-07
1.37481e-07
3.38627e-09
5.87182e-07
1.92534e-07
4.86062e-09
7.10678e-07
2.51557e-07
6.55283e-09
8.30023e-07
3.17469e-07
8.578e-09
9.46776e-07
3.93332e-07
1.10646e-08
1.06151e-06
4.82495e-07
1.41583e-08
1.17346e-06
5.887e-07
1.80198e-08
1.28009e-06
7.16077e-07
2.28107e-08
1.37666e-06
8.68994e-07
2.86526e-08
1.45637e-06
1.0516e-06
3.55438e-08
1.51182e-06
1.26671e-06
4.32125e-08
1.53936e-06
1.51275e-06
5.09285e-08
1.54435e-06
1.77027e-06
5.73883e-08
2.2649e-06
6.44557e-08
4.91938e-07
5.50954e-08
1.99377e-09
9.47597e-07
1.63253e-07
5.95752e-09
1.36364e-06
2.6879e-07
9.97539e-09
1.75118e-06
3.76059e-07
1.43014e-08
2.11927e-06
4.90718e-07
1.9248e-08
2.47496e-06
6.18287e-07
2.51442e-08
2.82308e-06
7.64472e-07
3.23529e-08
3.16559e-06
9.35397e-07
4.12811e-08
3.50067e-06
1.13771e-06
5.23698e-08
3.82133e-06
1.37843e-06
6.60478e-08
4.11408e-06
1.66428e-06
8.26104e-08
4.3586e-06
2.00006e-06
1.0197e-07
4.53094e-06
2.38508e-06
1.23232e-07
4.61422e-06
2.80519e-06
1.44164e-07
4.61705e-06
3.21317e-06
1.61036e-07
3.65978e-06
1.72799e-07
8.10831e-07
7.96709e-08
3.22484e-09
1.56163e-06
2.3595e-07
9.63216e-09
2.24685e-06
3.88114e-07
1.61099e-08
2.88477e-06
5.42262e-07
2.30508e-08
3.49041e-06
7.06309e-07
3.09401e-08
4.07558e-06
8.87841e-07
4.02805e-08
4.64869e-06
1.09452e-06
5.16177e-08
5.21388e-06
1.33436e-06
6.55478e-08
5.76958e-06
1.61572e-06
8.26951e-08
6.30635e-06
1.94685e-06
1.03628e-07
6.80442e-06
2.33463e-06
1.28662e-07
7.232e-06
2.78151e-06
1.57466e-07
7.54787e-06
3.2795e-06
1.88435e-07
7.71489e-06
3.79934e-06
2.17978e-07
7.73314e-06
4.27273e-06
2.4063e-07
4.73193e-06
2.50563e-07
1.11641e-06
1.0085e-07
4.33079e-09
2.14972e-06
2.9849e-07
1.29279e-08
3.09211e-06
4.90423e-07
2.15888e-08
3.96872e-06
6.8406e-07
3.08111e-08
4.80027e-06
8.88995e-07
4.12108e-08
5.60341e-06
1.11422e-06
5.34146e-08
6.39053e-06
1.36856e-06
6.80849e-08
7.16895e-06
1.6609e-06
8.59216e-08
7.93925e-06
2.00009e-06
1.07624e-07
8.69268e-06
2.39425e-06
1.33772e-07
9.40772e-06
2.84899e-06
1.64576e-07
1.00467e-05
3.36357e-06
1.99414e-07
1.05556e-05
3.92366e-06
2.36128e-07
1.08765e-05
4.48988e-06
2.70345e-07
1.09871e-05
4.98434e-06
2.95926e-07
5.42191e-06
3.06287e-07
1.40382e-06
1.17821e-07
5.28342e-09
2.70242e-06
3.48486e-07
1.57601e-08
3.88564e-06
5.71836e-07
2.627e-08
4.98493e-06
7.96112e-07
3.73783e-08
6.02633e-06
1.03196e-06
4.97877e-08
7.03118e-06
1.28907e-06
6.41967e-08
8.01611e-06
1.57664e-06
8.13208e-08
8.99247e-06
1.90348e-06
1.01887e-07
9.96489e-06
2.27788e-06
1.26582e-07
1.09288e-05
2.7068e-06
1.55918e-07
1.18664e-05
3.19402e-06
1.89966e-07
1.27422e-05
3.7363e-06
2.27905e-07
1.34985e-05
4.31636e-06
2.67383e-07
1.40583e-05
4.89142e-06
3.03966e-07
1.43543e-05
5.38061e-06
3.31643e-07
5.78634e-06
3.44532e-07
1.66873e-06
1.30012e-07
6.06666e-09
3.21139e-06
3.8428e-07
1.80815e-08
4.61528e-06
6.29727e-07
3.00773e-08
5.91739e-06
8.74949e-07
4.26518e-08
7.1485e-06
1.13102e-06
5.65524e-08
8.33417e-06
1.40772e-06
7.25029e-08
9.49512e-06
1.71384e-06
9.12206e-08
1.0647e-05
2.05735e-06
1.13404e-07
1.17996e-05
2.44511e-06
1.39672e-07
1.29549e-05
2.88211e-06
1.70441e-07
1.41036e-05
3.36991e-06
2.05674e-07
1.52202e-05
3.90371e-06
2.44516e-07
1.62551e-05
4.46705e-06
2.84801e-07
1.71232e-05
5.02224e-06
3.22644e-07
1.76976e-05
5.49509e-06
3.52665e-07
5.88601e-06
3.69905e-07
1.90751e-06
1.37096e-07
6.67621e-09
3.66959e-06
4.04945e-07
1.98803e-08
5.27083e-06
6.6272e-07
3.29972e-08
6.75274e-06
9.18946e-07
4.66258e-08
8.14994e-06
1.18458e-06
6.15226e-08
9.49144e-06
1.46892e-06
7.84008e-08
1.08013e-05
1.77984e-06
9.79423e-08
1.2099e-05
2.12382e-06
1.20782e-07
1.3399e-05
2.50561e-06
1.4745e-07
1.47098e-05
2.92749e-06
1.78261e-07
1.60318e-05
3.38804e-06
2.13122e-07
1.73534e-05
3.8803e-06
2.51265e-07
1.86429e-05
4.38937e-06
2.90946e-07
1.98294e-05
4.88908e-06
3.29214e-07
2.0753e-05
5.33186e-06
3.61857e-07
5.77606e-06
3.85298e-07
2.11725e-06
7.11807e-09
1.38969e-07
4.07154e-06
2.11763e-08
4.10238e-07
5.84447e-06
3.50692e-08
6.70585e-07
7.4809e-06
4.93726e-08
9.28123e-07
9.01818e-06
6.48242e-08
1.19324e-06
1.04876e-05
8.21006e-08
1.47436e-06
1.19155e-05
1.01826e-07
1.77807e-06
1.33236e-05
1.24554e-07
2.10902e-06
1.47292e-05
1.50718e-07
2.46945e-06
1.61447e-05
1.80539e-07
2.85834e-06
1.75764e-05
2.13881e-07
3.2701e-06
1.90215e-05
2.50072e-07
3.69268e-06
2.04603e-05
2.87709e-07
4.10497e-06
2.18361e-05
3.24496e-07
4.47271e-06
2.29975e-05
3.56841e-07
4.73659e-06
3.86075e-07
5.22833e-06
1.65989e-07
2.87124e-08
4.64806e-10
3.19778e-07
8.51192e-08
1.38894e-09
4.6026e-07
1.40267e-07
2.32655e-09
5.91189e-07
1.96472e-07
3.33792e-09
7.15621e-07
2.5674e-07
4.4965e-09
8.35908e-07
3.24012e-07
5.87872e-09
9.53609e-07
4.01339e-07
7.56742e-09
1.06928e-06
4.92007e-07
9.65208e-09
1.18214e-06
5.99612e-07
1.22232e-08
1.28964e-06
7.28042e-07
1.5356e-08
1.38708e-06
8.81317e-07
1.90752e-08
1.46773e-06
1.06321e-06
2.32951e-08
1.52429e-06
1.27642e-06
2.77388e-08
1.55313e-06
1.51994e-06
3.18832e-08
1.55918e-06
1.77583e-06
3.50296e-08
2.27528e-06
3.80966e-08
4.9517e-07
5.61961e-08
1.37039e-09
9.53864e-07
1.6653e-07
4.09428e-09
1.37277e-06
2.7423e-07
6.85372e-09
1.76309e-06
3.83742e-07
9.82149e-09
2.13396e-06
5.00818e-07
1.32089e-08
2.49245e-06
6.31021e-07
1.72345e-08
2.84336e-06
7.80032e-07
2.21331e-08
3.18863e-06
9.53849e-07
2.81556e-08
3.52638e-06
1.15884e-06
3.55519e-08
3.84956e-06
1.40154e-06
4.45221e-08
4.14474e-06
1.68798e-06
5.51156e-08
4.39181e-06
2.02218e-06
6.7057e-08
4.5671e-06
2.40302e-06
7.95117e-08
4.65368e-06
2.81713e-06
9.09217e-08
4.6591e-06
3.21983e-06
9.92624e-08
3.66611e-06
1.03874e-07
8.16132e-07
8.126e-08
2.21656e-09
1.57191e-06
2.40677e-07
6.61976e-09
2.26181e-06
3.95954e-07
1.10689e-08
2.90429e-06
5.53322e-07
1.58314e-08
3.51446e-06
7.20824e-07
2.12356e-08
4.10419e-06
9.06106e-07
2.76167e-08
4.68186e-06
1.1168e-06
3.53288e-08
5.25152e-06
1.36071e-06
4.47422e-08
5.81147e-06
1.6458e-06
5.62137e-08
6.35216e-06
1.97964e-06
7.00089e-08
6.85379e-06
2.36806e-06
8.61452e-08
7.28479e-06
2.81232e-06
1.04129e-07
7.60432e-06
3.30366e-06
1.22606e-07
7.77524e-06
3.81349e-06
1.39142e-07
7.79643e-06
4.27683e-06
1.50725e-07
4.73062e-06
1.54303e-07
1.12366e-06
1.02857e-07
2.97676e-09
2.16377e-06
3.04456e-07
8.88499e-09
3.11255e-06
5.00306e-07
1.48341e-08
3.99536e-06
6.97981e-07
2.11634e-08
4.83308e-06
9.07229e-07
2.82903e-08
5.6424e-06
1.13711e-06
3.66339e-08
6.4357e-06
1.3964e-06
4.66267e-08
7.22014e-06
1.69374e-06
5.87076e-08
7.99607e-06
2.03746e-06
7.32811e-08
8.75451e-06
2.43482e-06
9.06187e-08
9.47375e-06
2.89014e-06
1.1067e-07
1.01162e-05
3.40114e-06
1.32754e-07
1.06283e-05
3.95236e-06
1.55181e-07
1.09524e-05
4.50502e-06
1.75035e-07
1.10655e-05
4.98508e-06
1.88851e-07
5.41275e-06
1.93164e-07
1.41285e-06
1.20159e-07
3.6316e-09
2.71991e-06
3.55432e-07
1.08318e-08
3.91107e-06
5.83329e-07
1.80518e-08
5.01805e-06
8.12271e-07
2.56772e-08
6.06708e-06
1.05308e-06
3.41854e-08
7.07958e-06
1.31552e-06
4.40449e-08
8.07211e-06
1.60872e-06
5.57264e-08
9.05585e-06
1.9412e-06
6.96911e-08
1.00351e-05
2.32068e-06
8.63433e-08
1.10048e-05
2.75311e-06
1.05925e-07
1.19469e-05
3.24082e-06
1.28322e-07
1.28257e-05
3.77882e-06
1.52775e-07
1.35837e-05
4.34846e-06
1.7752e-07
1.4145e-05
4.90746e-06
1.99622e-07
1.44426e-05
5.37915e-06
2.15575e-07
5.77186e-06
2.22223e-07
1.67935e-06
1.32585e-07
4.17002e-09
3.23193e-06
3.91918e-07
1.24276e-08
4.64512e-06
6.42347e-07
2.06694e-08
5.95622e-06
8.92662e-07
2.93034e-08
7.19623e-06
1.15412e-06
3.88382e-08
8.39079e-06
1.43657e-06
4.97617e-08
9.56057e-06
1.74873e-06
6.25491e-08
1.0721e-05
2.09827e-06
7.76491e-08
1.18815e-05
2.4914e-06
9.54352e-08
1.30432e-05
2.93209e-06
1.16107e-07
1.41964e-05
3.42036e-06
1.39524e-07
1.53153e-05
3.94957e-06
1.64961e-07
1.63503e-05
4.50179e-06
1.90843e-07
1.72177e-05
5.03972e-06
2.14596e-07
1.7792e-05
5.4934e-06
2.32969e-07
5.86964e-06
2.432e-07
1.91948e-06
1.39801e-07
4.58908e-09
3.69273e-06
4.12972e-07
1.36644e-08
5.30442e-06
6.75965e-07
2.26773e-08
6.7964e-06
9.37502e-07
3.20371e-08
8.20355e-06
1.20873e-06
4.22595e-08
9.55497e-06
1.49901e-06
5.38271e-08
1.08747e-05
1.81613e-06
6.71955e-08
1.21819e-05
2.16626e-06
8.27779e-08
1.34905e-05
2.55354e-06
1.00901e-07
1.48084e-05
2.97919e-06
1.21724e-07
1.61351e-05
3.4403e-06
1.45102e-07
1.74584e-05
3.9281e-06
1.70425e-07
1.87464e-05
4.42621e-06
1.9644e-07
1.99299e-05
4.90867e-06
2.21181e-07
2.08516e-05
5.33183e-06
2.42015e-07
5.76059e-06
2.56904e-07
2.13033e-06
4.89286e-09
1.41705e-07
4.09683e-06
1.45556e-08
4.18348e-07
5.88112e-06
2.41025e-08
6.83953e-07
7.52848e-06
3.39274e-08
9.46822e-07
9.07652e-06
4.45342e-08
1.21753e-06
1.05567e-05
5.63825e-08
1.50456e-06
1.19952e-05
6.98921e-08
1.81442e-06
1.34135e-05
8.54282e-08
2.15145e-06
1.48284e-05
1.03264e-07
2.5173e-06
1.62515e-05
1.23513e-07
2.90999e-06
1.76883e-05
1.46033e-07
3.32252e-06
1.91348e-05
1.70308e-07
3.74121e-06
2.05714e-05
1.95334e-07
4.14357e-06
2.19425e-05
2.19547e-07
4.49539e-06
2.30995e-05
2.40593e-07
4.74052e-06
2.59533e-07
5.21509e-06
1.66718e-07
2.9092e-08
2.3666e-10
3.21191e-07
8.62484e-08
7.07114e-10
4.62318e-07
1.42138e-07
1.18421e-09
5.93873e-07
1.99107e-07
1.69843e-09
7.18925e-07
2.60186e-07
2.28674e-09
8.39832e-07
3.28324e-07
2.98714e-09
9.58151e-07
4.0655e-07
3.83996e-09
1.07443e-06
4.98093e-07
4.88731e-09
1.18787e-06
6.06437e-07
6.16894e-09
1.29592e-06
7.35298e-07
7.71227e-09
1.39389e-06
8.88493e-07
9.51311e-09
1.47509e-06
1.06964e-06
1.15059e-08
1.53224e-06
1.28152e-06
1.35308e-08
1.56163e-06
1.52367e-06
1.53268e-08
1.56804e-06
1.77905e-06
1.65999e-08
2.28166e-06
1.77424e-08
4.97339e-07
5.69386e-08
6.97743e-10
9.5807e-07
1.68737e-07