/*--------------------------------*- C++ -*----------------------------------*\
| =========                 |                                                 |
| \\      /  F ield         | foam-extend: Open Source CFD                    |
|  \\    /   O peration     | Version:     3.1                                |
|   \\  /    A nd           | Web:         http://www.extend-project.de       |
|    \\/     M anipulation  |                                                 |
\*---------------------------------------------------------------------------*/
FoamFile
{
    version     2.0;
    format      ascii;
    class       volScalarField;
    location    "0.5";
    object      p;
}
// * * * * * * * * * * * * * * * * * * * * * * * * * * * * * * * * * * * * * //

dimensions      [0 2 -2 0 0 0 0];

internalField   nonuniform List<scalar> 
14592
(
0.240385
0.23838
0.235283
0.231629
0.227727
0.2237
0.21962
0.215533
0.211469
0.207457
0.203523
0.199698
0.196022
0.192552
0.189458
0.187271
0.241265
0.238657
0.235354
0.231619
0.227673
0.223616
0.219514
0.215407
0.211325
0.207298
0.203351
0.199517
0.19584
0.192385
0.18932
0.187179
0.24295
0.239504
0.235784
0.231827
0.227742
0.223596
0.219429
0.215273
0.211148
0.20708
0.203092
0.199215
0.195491
0.191983
0.18885
0.186606
0.244912
0.240616
0.236403
0.232158
0.227885
0.223611
0.219354
0.215124
0.210938
0.206808
0.202755
0.198802
0.194989
0.191371
0.188095
0.185644
0.246786
0.241741
0.237052
0.232513
0.228043
0.223631
0.219271
0.214958
0.210696
0.206491
0.202352
0.1983
0.194363
0.190592
0.187124
0.184413
0.248344
0.242708
0.237616
0.232818
0.228168
0.223626
0.219167
0.214768
0.210426
0.206136
0.201899
0.197728
0.193642
0.189683
0.185977
0.182957
0.249431
0.243386
0.238002
0.233011
0.22822
0.223574
0.219024
0.214552
0.210133
0.205756
0.201416
0.197114
0.192861
0.188683
0.184692
0.181297
0.24995
0.243692
0.238151
0.233049
0.228173
0.223454
0.218848
0.214313
0.209825
0.205366
0.200926
0.196493
0.192063
0.187639
0.183289
0.179333
0.241833
0.239711
0.236459
0.23265
0.228615
0.224486
0.220336
0.216214
0.212155
0.208192
0.204361
0.200713
0.197316
0.194275
0.191826
0.190522
0.242782
0.24001
0.236536
0.232641
0.228559
0.224399
0.220226
0.216085
0.212008
0.208029
0.204187
0.200532
0.197136
0.194108
0.191674
0.190395
0.244596
0.240925
0.237001
0.232866
0.228636
0.224379
0.220139
0.215945
0.211821
0.207799
0.203912
0.200208
0.196757
0.193661
0.191134
0.189714
0.246714
0.242126
0.237668
0.233224
0.228792
0.224399
0.220059
0.215786
0.211596
0.207506
0.203544
0.199752
0.196193
0.192961
0.190251
0.188555
0.248739
0.243344
0.23837
0.233609
0.228963
0.224421
0.219972
0.215608
0.211335
0.207159
0.203099
0.199188
0.19548
0.192057
0.189098
0.187055
0.250426
0.244393
0.238981
0.233939
0.2291
0.224417
0.219861
0.215403
0.21104
0.206767
0.202593
0.19854
0.194649
0.190989
0.187722
0.18527
0.251605
0.245129
0.2394
0.234148
0.229157
0.224362
0.219706
0.215168
0.210717
0.206345
0.20205
0.19784
0.193739
0.1898
0.186159
0.183217
0.252169
0.245463
0.239563
0.234191
0.229108
0.224234
0.219516
0.214907
0.210379
0.205912
0.201496
0.197125
0.192801
0.188541
0.184427
0.180757
0.243151
0.240928
0.23754
0.233594
0.229441
0.22522
0.221008
0.216855
0.212799
0.208879
0.205136
0.201631
0.198444
0.195689
0.193589
0.192567
0.244158
0.241246
0.237622
0.233585
0.229383
0.22513
0.220894
0.216723
0.212649
0.208714
0.20496
0.201448
0.198262
0.195516
0.193421
0.192395
0.246085
0.242219
0.238117
0.233826
0.229467
0.225112
0.220804
0.216576
0.212454
0.208472
0.20467
0.201104
0.197854
0.195029
0.192825
0.191638
0.248337
0.243499
0.238828
0.234207
0.229634
0.225134
0.220722
0.216409
0.212215
0.208159
0.204274
0.20061
0.197239
0.194258
0.191848
0.190365
0.250495
0.244799
0.239577
0.234618
0.229818
0.225159
0.220629
0.21622
0.211935
0.207784
0.203791
0.199993
0.196453
0.193256
0.190566
0.188709
0.252296
0.245919
0.240228
0.234971
0.229963
0.225155
0.22051
0.216
0.211617
0.207359
0.203238
0.199279
0.19553
0.192063
0.189024
0.186726
0.253555
0.246708
0.240677
0.235194
0.230026
0.225096
0.220346
0.215747
0.211268
0.2069
0.20264
0.198503
0.194514
0.190726
0.187262
0.18443
0.254159
0.247065
0.240851
0.235241
0.229974
0.22496
0.220141
0.215466
0.2109
0.206426
0.202029
0.197706
0.19346
0.189303
0.185298
0.181671
0.244302
0.241995
0.238492
0.23443
0.230175
0.225875
0.221609
0.217429
0.213375
0.209488
0.205815
0.202417
0.199378
0.19681
0.194908
0.194005
0.245359
0.24233
0.238579
0.234421
0.230115
0.225783
0.221492
0.217294
0.213222
0.209321
0.205636
0.202232
0.199193
0.19663
0.194727
0.193804
0.247379
0.243352
0.239099
0.234675
0.230205
0.225765
0.2214
0.217142
0.21302
0.209069
0.205333
0.20187
0.198762
0.196111
0.194089
0.192992
0.249746
0.244698
0.239848
0.235077
0.230382
0.225789
0.221314
0.216967
0.212769
0.208739
0.204914
0.201345
0.198104
0.195285
0.193041
0.191637
0.252016
0.246068
0.240636
0.23551
0.230576
0.225816
0.221217
0.216768
0.212472
0.208341
0.204398
0.200684
0.19726
0.194206
0.191663
0.189873
0.253912
0.24725
0.241323
0.235882
0.23073
0.225813
0.221091
0.216534
0.212134
0.207887
0.203805
0.199915
0.196264
0.192917
0.19
0.187754
0.25524
0.248081
0.241795
0.236117
0.230796
0.225751
0.220918
0.216266
0.211762
0.207394
0.203161
0.199076
0.195163
0.191468
0.188093
0.185291
0.255876
0.248459
0.241979
0.236166
0.230741
0.225606
0.220701
0.215966
0.211368
0.206885
0.202501
0.198212
0.194017
0.189921
0.185966
0.182329
0.245257
0.242883
0.239288
0.23513
0.230793
0.226428
0.222117
0.217914
0.21386
0.209997
0.206375
0.203053
0.200115
0.197663
0.195874
0.195024
0.246354
0.243231
0.239378
0.235121
0.230732
0.226333
0.221998
0.217776
0.213705
0.209828
0.206194
0.202866
0.199927
0.197478
0.195683
0.194804
0.24845
0.244294
0.239919
0.235386
0.230826
0.226316
0.221903
0.21762
0.213496
0.209568
0.20588
0.20249
0.199476
0.196934
0.195012
0.193951
0.250908
0.245694
0.240698
0.235805
0.23101
0.226342
0.221815
0.217439
0.213235
0.209224
0.205441
0.201939
0.198786
0.196066
0.193913
0.192538
0.253269
0.24712
0.241518
0.236256
0.231213
0.226371
0.221714
0.217231
0.212925
0.208806
0.204899
0.201244
0.197896
0.194931
0.192465
0.190697
0.255243
0.248351
0.242233
0.236643
0.231373
0.226367
0.221582
0.216987
0.21257
0.208329
0.204274
0.200432
0.196845
0.193571
0.190715
0.188483
0.256626
0.249219
0.242726
0.236888
0.231442
0.226302
0.221401
0.216704
0.212178
0.207809
0.203595
0.199544
0.19568
0.192039
0.188706
0.185905
0.25729
0.249613
0.242918
0.236939
0.231384
0.226151
0.221173
0.21639
0.211764
0.207271
0.202896
0.198628
0.194465
0.190401
0.186465
0.182803
0.245994
0.243569
0.239904
0.235675
0.231274
0.226859
0.222513
0.218293
0.214238
0.210392
0.206803
0.203533
0.200659
0.198278
0.196551
0.195727
0.24712
0.243928
0.239998
0.235666
0.231212
0.226763
0.222393
0.218153
0.21408
0.21022
0.206621
0.203344
0.200468
0.198088
0.196353
0.195493
0.249275
0.24502
0.240554
0.235939
0.231309
0.226746
0.222296
0.217993
0.213867
0.209954
0.206298
0.202956
0.200004
0.197527
0.195659
0.194613
0.251802
0.246462
0.241356
0.23637
0.2315
0.226774
0.222206
0.217808
0.213598
0.209599
0.205845
0.202387
0.199289
0.196629
0.194524
0.193159
0.254231
0.247931
0.2422
0.236835
0.231709
0.226804
0.222102
0.217593
0.213278
0.209167
0.205284
0.201666
0.198367
0.195453
0.193027
0.191265
0.256264
0.249199
0.242937
0.237233
0.231874
0.226799
0.221965
0.21734
0.21291
0.208672
0.204635
0.200823
0.197275
0.194043
0.191218
0.188986
0.257688
0.250094
0.243445
0.237486
0.231944
0.226731
0.221779
0.217048
0.212504
0.208132
0.203928
0.199899
0.196064
0.192453
0.189139
0.186329
0.258372
0.250501
0.243642
0.237538
0.231885
0.226575
0.221542
0.216721
0.212073
0.207572
0.2032
0.198946
0.1948
0.190753
0.18682
0.183134
0.246495
0.244036
0.240326
0.236047
0.231604
0.227155
0.222786
0.218553
0.214496
0.21066
0.207092
0.203853
0.201017
0.198677
0.196983
0.19617
0.247643
0.244403
0.240422
0.23604
0.231542
0.227058
0.222665
0.218412
0.214338
0.210488
0.206909
0.203663
0.200825
0.198484
0.19678
0.195929
0.249835
0.245516
0.240989
0.236318
0.231641
0.227042
0.222567
0.218249
0.214121
0.210217
0.206581
0.203268
0.200351
0.197911
0.196073
0.195031
0.252408
0.246985
0.241805
0.236757
0.231836
0.227071
0.222476
0.218062
0.213847
0.209855
0.206119
0.202687
0.199622
0.196994
0.194914
0.193552
0.254883
0.248483
0.242667
0.237231
0.232049
0.227101
0.22237
0.217842
0.21352
0.209413
0.205544
0.201949
0.198678
0.195792
0.193387
0.191624
0.256955
0.249777
0.243418
0.237638
0.232218
0.227096
0.222229
0.217583
0.213144
0.208906
0.204879
0.201086
0.19756
0.19435
0.19154
0.189304
0.258408
0.25069
0.243935
0.237895
0.232289
0.227027
0.222038
0.217284
0.212727
0.208352
0.204154
0.200138
0.19632
0.192724
0.189417
0.186598
0.259105
0.251105
0.244137
0.237948
0.232228
0.226867
0.221796
0.216949
0.212286
0.207778
0.203407
0.19916
0.195023
0.190984
0.187049
0.183344
0.246744
0.244263
0.240533
0.236232
0.231768
0.227302
0.222921
0.218682
0.214624
0.210793
0.207235
0.20401
0.201192
0.19887
0.197192
0.196381
0.247907
0.244638
0.240632
0.236225
0.231705
0.227204
0.222799
0.21854
0.214465
0.210619
0.20705
0.203817
0.200996
0.198673
0.196984
0.196132
0.250112
0.24576
0.241202
0.236504
0.231805
0.227188
0.2227
0.218376
0.214246
0.210346
0.206719
0.20342
0.200519
0.198095
0.196271
0.195228
0.252707
0.247243
0.242026
0.236947
0.232001
0.227216
0.222608
0.218186
0.21397
0.20998
0.206252
0.202833
0.199782
0.197169
0.195101
0.193737
0.255204
0.248756
0.242895
0.237425
0.232216
0.227247
0.222501
0.217964
0.213639
0.209534
0.205671
0.202087
0.198828
0.195954
0.193559
0.191794
0.257295
0.250064
0.243654
0.237835
0.232386
0.227242
0.222359
0.217703
0.213258
0.209021
0.204999
0.201213
0.197698
0.194497
0.191694
0.189454
0.258761
0.250986
0.244176
0.238095
0.232458
0.227172
0.222166
0.2174
0.212837
0.208461
0.204265
0.200255
0.196443
0.192853
0.18955
0.186725
0.259465
0.251406
0.24438
0.238148
0.232396
0.227011
0.221921
0.217061
0.21239
0.207879
0.203509
0.199264
0.195132
0.191094
0.187157
0.183436
0.230664
0.229869
0.228097
0.225627
0.222672
0.219354
0.215758
0.21194
0.207939
0.203777
0.199463
0.194998
0.190374
0.185582
0.180613
0.17547
0.230869
0.230012
0.228177
0.225658
0.222666
0.219318
0.215696
0.211857
0.207837
0.203658
0.199328
0.194848
0.190211
0.185408
0.180429
0.175277
0.2313
0.23032
0.228373
0.225764
0.222704
0.219305
0.215643
0.211771
0.207724
0.203521
0.199171
0.194674
0.190022
0.185207
0.180221
0.175067
0.231833
0.230713
0.228631
0.225911
0.222766
0.219302
0.215591
0.211679
0.207599
0.203369
0.198995
0.194478
0.189811
0.184986
0.179996
0.174846
0.232356
0.231109
0.228895
0.226062
0.222829
0.219297
0.215533
0.211579
0.207464
0.203204
0.198805
0.194268
0.189586
0.184752
0.179762
0.174621
0.232797
0.231447
0.229119
0.226186
0.222873
0.219278
0.215464
0.211469
0.20732
0.20303
0.198607
0.194049
0.189353
0.184512
0.179525
0.174398
0.2331
0.231678
0.229264
0.226255
0.222879
0.219233
0.215375
0.211346
0.207167
0.202851
0.198405
0.193829
0.189121
0.184276
0.179295
0.174186
0.233231
0.231769
0.229307
0.226251
0.222835
0.219155
0.215268
0.211212
0.207008
0.20267
0.198205
0.193614
0.188897
0.184051
0.17908
0.173992
0.230971
0.230096
0.228261
0.225748
0.222766
0.219431
0.215824
0.212
0.207997
0.203835
0.199525
0.195064
0.190445
0.185655
0.180683
0.175526
0.231202
0.230207
0.228306
0.225751
0.222738
0.219378
0.215749
0.211906
0.207885
0.203707
0.19938
0.194905
0.190273
0.185471
0.180488
0.175324
0.231712
0.230521
0.228492
0.225846
0.222767
0.219356
0.215688
0.211813
0.207765
0.203564
0.199217
0.194724
0.190077
0.185263
0.180273
0.175107
0.232331
0.230933
0.228752
0.225991
0.222826
0.21935
0.215632
0.211718
0.207637
0.203408
0.199037
0.194524
0.18986
0.185036
0.180042
0.17488
0.232931
0.23135
0.22902
0.226143
0.222888
0.219344
0.215573
0.211615
0.207499
0.20324
0.198844
0.194309
0.189629
0.184795
0.1798
0.174648
0.233432
0.231706
0.229249
0.226268
0.222931
0.219324
0.215502
0.211503
0.207352
0.203063
0.198641
0.194085
0.18939
0.184549
0.179557
0.174418
0.233775
0.231948
0.229399
0.226338
0.222937
0.219278
0.215412
0.211379
0.207197
0.202881
0.198435
0.193861
0.189152
0.184306
0.17932
0.1742
0.233926
0.232045
0.229442
0.226335
0.222893
0.219199
0.215304
0.211243
0.207036
0.202698
0.198232
0.193641
0.188923
0.184075
0.179098
0.174
0.231743
0.23072
0.228752
0.226136
0.223079
0.21969
0.216047
0.212203
0.20819
0.204029
0.199727
0.195281
0.190676
0.185894
0.180911
0.175715
0.23206
0.230839
0.22879
0.22613
0.223042
0.21963
0.215966
0.212103
0.208073
0.203896
0.199578
0.195117
0.190498
0.185702
0.180708
0.175504
0.23272
0.231205
0.228992
0.226229
0.223069
0.219605
0.215901
0.212005
0.207948
0.203746
0.199407
0.194927
0.190291
0.185483
0.180481
0.175275
0.233502
0.231684
0.22928
0.226385
0.223132
0.219598
0.215842
0.211905
0.207813
0.203582
0.199217
0.194714
0.190061
0.185239
0.180232
0.175031
0.234249
0.232167
0.229579
0.226552
0.2232
0.219592
0.21578
0.211798
0.207669
0.203406
0.199012
0.194485
0.189812
0.184979
0.17997
0.174779
0.234867
0.232579
0.229835
0.22669
0.223248
0.219573
0.215707
0.211681
0.207515
0.203219
0.198798
0.194246
0.189554
0.184711
0.179703
0.174528
0.235291
0.232861
0.230004
0.226769
0.223258
0.219527
0.215614
0.211551
0.207352
0.203027
0.198579
0.194004
0.189296
0.184445
0.179442
0.174287
0.235481
0.232976
0.230056
0.226769
0.223214
0.219445
0.215502
0.21141
0.207184
0.202833
0.198362
0.193769
0.189047
0.184192
0.179197
0.174067
0.23286
0.231658
0.229516
0.226754
0.223585
0.220115
0.216417
0.212539
0.208512
0.204355
0.20007
0.195651
0.191077
0.186314
0.181321
0.176061
0.233281
0.231802
0.229556
0.226745
0.223544
0.22005
0.216331
0.212435
0.208391
0.204217
0.199916
0.195481
0.190892
0.186116
0.181111
0.175842
0.23412
0.23224
0.229789
0.226857
0.223575
0.220024
0.216262
0.212332
0.208259
0.204059
0.199735
0.195279
0.190671
0.18588
0.180866
0.175595
0.235099
0.232814
0.230122
0.227035
0.223646
0.220019
0.216201
0.212226
0.208116
0.203883
0.19953
0.195048
0.190418
0.185611
0.180589
0.175324
0.236028
0.233391
0.230469
0.227226
0.223725
0.220016
0.216137
0.212112
0.207961
0.203693
0.199307
0.194796
0.190141
0.185317
0.180291
0.175038
0.236795
0.233882
0.230767
0.227385
0.223783
0.219999
0.216061
0.211988
0.207796
0.203491
0.199072
0.19453
0.189851
0.18501
0.179983
0.174748
0.237323
0.23422
0.230965
0.22748
0.223798
0.219953
0.215963
0.21185
0.207621
0.203282
0.19883
0.19426
0.189557
0.184703
0.179678
0.174467
0.237564
0.234363
0.231031
0.227485
0.223755
0.219868
0.215845
0.2117
0.20744
0.203071
0.198592
0.193996
0.189273
0.18441
0.17939
0.174208
0.234205
0.232822
0.230484
0.227551
0.224247
0.220677
0.216909
0.212991
0.208949
0.2048
0.200545
0.196174
0.191657
0.186943
0.181957
0.176616
0.234731
0.232992
0.23053
0.227541
0.224203
0.220608
0.21682
0.212882
0.208823
0.204657
0.200386
0.195999
0.191466
0.186738
0.18174
0.176391
0.235754
0.233513
0.2308
0.22767
0.22424
0.220582
0.216748
0.212774
0.208683
0.204489
0.200192
0.195781
0.191226
0.18648
0.18147
0.17612
0.236942
0.234194
0.231187
0.227876
0.224324
0.220581
0.216684
0.212661
0.208529
0.204299
0.199968
0.195525
0.190943
0.186174
0.181154
0.17581
0.238068
0.234879
0.231591
0.228097
0.224417
0.220582
0.216617
0.212539
0.208362
0.20409
0.199721
0.195241
0.190625
0.185832
0.180803
0.175473
0.238998
0.235463
0.231939
0.228284
0.224487
0.220567
0.216537
0.212405
0.208182
0.203867
0.199456
0.194937
0.190287
0.185468
0.180431
0.175122
0.23964
0.235867
0.232173
0.228396
0.22451
0.220521
0.216434
0.212257
0.20799
0.203635
0.199184
0.194626
0.189941
0.185098
0.180056
0.174774
0.239938
0.236042
0.232255
0.228409
0.224467
0.220431
0.216307
0.212093
0.207792
0.2034
0.198913
0.194321
0.189605
0.184741
0.179699
0.17445
0.235698
0.234139
0.2316
0.228483
0.22503
0.221348
0.217504
0.21354
0.209486
0.205354
0.201148
0.196854
0.192437
0.187823
0.182891
0.17747
0.236323
0.234337
0.231652
0.228473
0.224984
0.221275
0.217409
0.213427
0.209355
0.205206
0.200983
0.196673
0.192241
0.187613
0.182667
0.177244
0.237527
0.234945
0.231963
0.228621
0.225028
0.221251
0.217334
0.213313
0.209206
0.205027
0.200775
0.196437
0.191978
0.187328
0.182366
0.176941
0.238925
0.235738
0.232409
0.228858
0.225127
0.221253
0.217268
0.213193
0.20904
0.204819
0.200527
0.19615
0.191654
0.186973
0.181995
0.176577
0.240251
0.236537
0.232875
0.229113
0.225236
0.221259
0.217198
0.21306
0.208857
0.204588
0.200249
0.195824
0.191283
0.186564
0.181569
0.176166
0.241347
0.237219
0.233278
0.22933
0.22532
0.221248
0.217114
0.212915
0.208658
0.204338
0.199947
0.195471
0.190879
0.186118
0.181105
0.175724
0.242107
0.237694
0.23355
0.229463
0.225351
0.221202
0.217002
0.212753
0.208446
0.204076
0.199634
0.195105
0.190461
0.185657
0.180625
0.175273
0.242463
0.237902
0.23365
0.229482
0.225308
0.221106
0.216865
0.212574
0.208225
0.203811
0.199322
0.194743
0.19005
0.185206
0.180158
0.17484
0.237265
0.235543
0.232807
0.229504
0.225897
0.222098
0.218173
0.214166
0.210102
0.206
0.201865
0.197688
0.193435
0.189018
0.184246
0.178764
0.237984
0.235769
0.232865
0.229494
0.225848
0.222021
0.218075
0.214048
0.209967
0.205848
0.201696
0.197504
0.193237
0.188806
0.18401
0.178508
0.239361
0.236462
0.233218
0.229663
0.225901
0.221998
0.217997
0.213927
0.209809
0.205656
0.201472
0.197246
0.192947
0.188485
0.183665
0.178159
0.240961
0.237367
0.233723
0.229932
0.226015
0.222005
0.217928
0.213799
0.209629
0.205428
0.201196
0.196922
0.192573
0.188066
0.18322
0.177726
0.242482
0.23828
0.234253
0.230221
0.22614
0.222016
0.217854
0.213655
0.209428
0.20517
0.20088
0.196545
0.192132
0.187566
0.18269
0.177224
0.243741
0.239061
0.234711
0.230468
0.226239
0.222008
0.217764
0.213497
0.209207
0.204889
0.200534
0.196128
0.191642
0.187008
0.182094
0.176663
0.244616
0.239607
0.235023
0.230622
0.226278
0.22196
0.217643
0.213318
0.20897
0.204591
0.200171
0.195692
0.191127
0.186418
0.18146
0.176064
0.24503
0.239849
0.23514
0.230649
0.226234
0.221857
0.217494
0.213121
0.208723
0.204289
0.199807
0.195258
0.190615
0.185831
0.180824
0.175457
0.238846
0.236975
0.234051
0.230567
0.226809
0.222893
0.218889
0.21484
0.210774
0.206713
0.202672
0.198656
0.194655
0.190614
0.186348
0.181198
0.23965
0.237227
0.234116
0.230557
0.226757
0.222813
0.218786
0.214718
0.210634
0.206557
0.2025
0.198472
0.194462
0.190413
0.18612
0.180884
0.241188
0.238
0.234508
0.230746
0.226819
0.222791
0.218705
0.21459
0.210466
0.206352
0.202258
0.198192
0.194143
0.190052
0.185715
0.180456
0.242977
0.239012
0.235072
0.231047
0.226947
0.222803
0.218633
0.214452
0.210271
0.206102
0.201953
0.197825
0.193708
0.189545
0.18515
0.179902
0.244682
0.240036
0.235663
0.23137
0.227089
0.222818
0.218555
0.214296
0.21005
0.205815
0.201594
0.197387
0.193179
0.18892
0.184451
0.17923
0.246096
0.240913
0.236176
0.231647
0.227202
0.222812
0.218458
0.214123
0.209805
0.205498
0.201196
0.196896
0.192581
0.188204
0.183641
0.178445
0.247082
0.241527
0.236527
0.231821
0.227248
0.222762
0.218327
0.213926
0.209541
0.20516
0.200775
0.196375
0.191942
0.187433
0.182754
0.17756
0.24755
0.241802
0.23666
0.231854
0.227203
0.222652
0.218165
0.213709
0.209264
0.204816
0.20035
0.195852
0.191298
0.186648
0.181826
0.176581
0.249852
0.243586
0.238035
0.232917
0.228021
0.223277
0.218635
0.214057
0.209514
0.204985
0.200454
0.195901
0.191302
0.18662
0.181795
0.176608
0.24915
0.243079
0.237661
0.232621
0.227767
0.22304
0.218393
0.213793
0.209211
0.204628
0.200024
0.195375
0.190651
0.185805
0.180758
0.175366
0.247895
0.242217
0.237068
0.23219
0.227435
0.222762
0.218137
0.213533
0.20893
0.204308
0.199649
0.194932
0.190126
0.185193
0.180078
0.174706
0.246196
0.241096
0.236326
0.231675
0.22706
0.222468
0.217884
0.213292
0.20868
0.204034
0.199339
0.194575
0.18972
0.184744
0.179615
0.174298
0.244216
0.239853
0.235534
0.231144
0.22669
0.222191
0.217657
0.213085
0.208474
0.203814
0.199095
0.194303
0.189419
0.184426
0.179304
0.174042
0.242189
0.238665
0.234811
0.230677
0.226376
0.221965
0.217477
0.212927
0.208319
0.203653
0.19892
0.194111
0.189213
0.184214
0.179105
0.173886
0.240485
0.237781
0.234313
0.230372
0.226177
0.221826
0.217368
0.212832
0.208228
0.203558
0.198818
0.194
0.189095
0.184095
0.178996
0.173802
0.23962
0.237492
0.234199
0.230314
0.226142
0.2218
0.217346
0.21281
0.208205
0.203533
0.19879
0.193969
0.189062
0.184061
0.178964
0.173777
0.252064
0.24535
0.239438
0.234049
0.228945
0.224043
0.219286
0.214627
0.210036
0.205487
0.200961
0.19644
0.1919
0.187299
0.182558
0.177363
0.251306
0.244801
0.239036
0.233731
0.228673
0.223788
0.219024
0.21434
0.209703
0.205089
0.200474
0.195833
0.191131
0.186311
0.181274
0.175821
0.249949
0.243869
0.238396
0.233268
0.228316
0.223489
0.218747
0.214058
0.209394
0.204733
0.200052
0.195325
0.190517
0.185581
0.180445
0.17501
0.248112
0.242657
0.237597
0.232714
0.227913
0.223174
0.218475
0.213797
0.209121
0.20443
0.199703
0.194918
0.190046
0.185051
0.179889
0.174513
0.245975
0.241315
0.236744
0.232144
0.227516
0.222877
0.218231
0.213573
0.208896
0.204187
0.199431
0.194609
0.189701
0.184679
0.179521
0.174206
0.24379
0.240034
0.235967
0.231643
0.227179
0.222634
0.218037
0.213402
0.208727
0.204009
0.199236
0.194393
0.189465
0.184434
0.179287
0.174021
0.241957
0.239082
0.235432
0.231315
0.226966
0.222485
0.217921
0.213299
0.208628
0.203904
0.199122
0.194268
0.189331
0.184297
0.17916
0.173923
0.241025
0.238771
0.235309
0.231253
0.226929
0.222457
0.217897
0.213276
0.208603
0.203877
0.199091
0.194234
0.189293
0.184258
0.179123
0.173893
0.254047
0.246945
0.240719
0.235091
0.2298
0.224756
0.219895
0.215164
0.210528
0.20596
0.201438
0.196941
0.192442
0.187891
0.183183
0.177921
0.253239
0.24636
0.24029
0.234753
0.22951
0.224484
0.219615
0.214854
0.210167
0.205524
0.200899
0.196262
0.191575
0.186768
0.181721
0.176198
0.251792
0.245366
0.23961
0.23426
0.229131
0.224166
0.219319
0.214551
0.209832
0.205135
0.200432
0.195695
0.190883
0.185938
0.180776
0.175279
0.249834
0.244073
0.238759
0.233671
0.228703
0.223831
0.219028
0.214271
0.209537
0.204803
0.200048
0.195242
0.190353
0.185338
0.180143
0.174711
0.247558
0.242643
0.237852
0.233065
0.228281
0.223515
0.218768
0.214031
0.209293
0.204539
0.199748
0.1949
0.189967
0.184919
0.179724
0.17436
0.245236
0.241281
0.237026
0.232533
0.227923
0.223257
0.218562
0.213848
0.209112
0.204346
0.199535
0.194661
0.189704
0.184643
0.17946
0.17415
0.24329
0.240269
0.236458
0.232185
0.227698
0.223099
0.218438
0.213738
0.209004
0.204232
0.19941
0.194523
0.189554
0.184489
0.179317
0.174038
0.242301
0.239938
0.236328
0.23212
0.227658
0.22307
0.218413
0.213713
0.208978
0.204202
0.199376
0.194485
0.189513
0.184445
0.179275
0.174005
0.25576
0.248333
0.24184
0.236008
0.230557
0.225391
0.220439
0.215645
0.21097
0.206383
0.201862
0.197381
0.192909
0.188384
0.183679
0.178343
0.254908
0.247717
0.241389
0.235653
0.230253
0.225104
0.220143
0.215316
0.210584
0.205914
0.201278
0.196643
0.191961
0.187157
0.182092
0.1765
0.253384
0.246669
0.240673
0.235134
0.229853
0.224768
0.21983
0.214993
0.210225
0.205496
0.200774
0.196025
0.191206
0.186249
0.181059
0.175504
0.251323
0.245307
0.239778
0.234515
0.229403
0.224415
0.219522
0.214696
0.20991
0.20514
0.200358
0.195533
0.190628
0.185592
0.180365
0.174883
0.248931
0.243802
0.238824
0.233878
0.228959
0.224083
0.219248
0.214442
0.209651
0.204855
0.200034
0.195161
0.190206
0.185132
0.179906
0.174498
0.246492
0.24237
0.237957
0.233319
0.228583
0.223812
0.219031
0.214248
0.209458
0.204649
0.199804
0.194902
0.189919
0.184831
0.179616
0.174266
0.244451
0.241308
0.23736
0.232954
0.228347
0.223645
0.2189
0.214132
0.209343
0.204527
0.19967
0.194753
0.189756
0.184663
0.179458
0.174143
0.243415
0.24096
0.237225
0.232886
0.228306
0.223615
0.218874
0.214105
0.209315
0.204495
0.199633
0.194711
0.189711
0.184615
0.179412
0.174106
0.257168
0.249481
0.242773
0.236774
0.231193
0.225925
0.220899
0.216053
0.211344
0.206741
0.202217
0.197745
0.193287
0.188773
0.18406
0.178656
0.256281
0.248839
0.242303
0.236404
0.230875
0.225626
0.220589
0.215706
0.210937
0.206245
0.201598
0.19696
0.192279
0.187471
0.182383
0.176733
0.254695
0.247747
0.241557
0.235864
0.230459
0.225276
0.220261
0.215368
0.210559
0.205801
0.201062
0.196303
0.191474
0.186504
0.181288
0.175684
0.25255
0.246329
0.240626
0.23522
0.229991
0.224908
0.21994
0.215056
0.210227
0.205425
0.20062
0.195779
0.190858
0.185803
0.180548
0.175024
0.250063
0.244763
0.239634
0.234558
0.229529
0.224562
0.219653
0.21479
0.209954
0.205125
0.200277
0.195383
0.190408
0.185312
0.180058
0.174613
0.24753
0.243274
0.238733
0.233977
0.229138
0.224279
0.219427
0.214586
0.209751
0.204906
0.200033
0.195107
0.190102
0.18499
0.179748
0.174365
0.245413
0.242171
0.238114
0.233597
0.228892
0.224106
0.219291
0.214465
0.209631
0.204778
0.199891
0.194948
0.189928
0.18481
0.179579
0.174233
0.244339
0.241811
0.237973
0.233527
0.228849
0.224075
0.219263
0.214438
0.209601
0.204744
0.199852
0.194904
0.18988
0.184759
0.17953
0.174193
0.258246
0.250365
0.243493
0.237368
0.231687
0.226342
0.221258
0.216371
0.211636
0.20702
0.202493
0.198025
0.193574
0.189063
0.184335
0.178879
0.257333
0.249702
0.243009
0.236986
0.231359
0.226033
0.220937
0.216012
0.211213
0.206503
0.201846
0.197205
0.192522
0.187707
0.182599
0.176903
0.255699
0.248577
0.24224
0.236431
0.23093
0.225672
0.220598
0.215661
0.21082
0.206041
0.201287
0.196518
0.191681
0.186698
0.18146
0.175818
0.253491
0.247116
0.241281
0.235767
0.230448
0.225292
0.220266
0.215338
0.210475
0.205649
0.200826
0.19597
0.191036
0.185966
0.180689
0.175132
0.250932
0.245504
0.240261
0.235085
0.229972
0.224935
0.21997
0.215062
0.210192
0.205336
0.200468
0.195557
0.190565
0.185452
0.180176
0.174702
0.248328
0.243972
0.239334
0.234488
0.229569
0.224644
0.219737
0.214852
0.209981
0.205109
0.200213
0.195268
0.190245
0.185114
0.179851
0.174442
0.246154
0.242838
0.238697
0.234097
0.229316
0.224466
0.219596
0.214726
0.209856
0.204975
0.200064
0.195102
0.190063
0.184926
0.179673
0.174303
0.24505
0.242467
0.238552
0.234025
0.229273
0.224433
0.219567
0.214698
0.209825
0.20494
0.200024
0.195056
0.190012
0.184872
0.179622
0.174261
0.258976
0.250967
0.243984
0.237774
0.232026
0.226629
0.221505
0.216591
0.211838
0.207211
0.202681
0.198214
0.193766
0.189254
0.184516
0.179023
0.258045
0.250291
0.243491
0.237385
0.231691
0.226313
0.221177
0.216222
0.211403
0.20668
0.202017
0.197372
0.192686
0.187865
0.182742
0.177014
0.256379
0.249142
0.242707
0.236818
0.231254
0.225944
0.22083
0.215863
0.211001
0.206206
0.201442
0.196666
0.191822
0.186829
0.181576
0.175907
0.254129
0.247652
0.241729
0.236141
0.230761
0.225556
0.220491
0.215532
0.210647
0.205803
0.200968
0.196102
0.191158
0.186076
0.180784
0.175204
0.251521
0.246008
0.240689
0.235447
0.230276
0.225192
0.220188
0.21525
0.210356
0.205482
0.200599
0.195676
0.190673
0.185548
0.180256
0.174763
0.24887
0.244448
0.239744
0.234837
0.229866
0.224895
0.21995
0.215035
0.21014
0.205248
0.200337
0.195379
0.190344
0.1852
0.179921
0.174495
0.246658
0.243293
0.239096
0.23444
0.229608
0.224713
0.219806
0.214906
0.210012
0.205111
0.200184
0.195208
0.190156
0.185006
0.179738
0.174352
0.245534
0.242914
0.238947
0.234365
0.229563
0.224679
0.219777
0.214877
0.20998
0.205075
0.200142
0.19516
0.190104
0.18495
0.179685
0.174309
0.259335
0.251266
0.244225
0.237973
0.232192
0.226769
0.221627
0.216698
0.211937
0.207305
0.202773
0.198307
0.19386
0.189348
0.184607
0.179092
0.258395
0.250583
0.243727
0.23758
0.231854
0.22645
0.221295
0.216326
0.211497
0.206767
0.202101
0.197454
0.192767
0.187942
0.182812
0.177063
0.256713
0.249423
0.242935
0.237007
0.231412
0.226077
0.220944
0.215962
0.211089
0.206287
0.201518
0.196738
0.191891
0.186894
0.181632
0.175948
0.254443
0.247917
0.241948
0.236325
0.230915
0.225686
0.220602
0.215628
0.210731
0.205879
0.201037
0.196167
0.191218
0.186131
0.18083
0.175239
0.251812
0.246257
0.240898
0.235624
0.230425
0.225318
0.220296
0.215342
0.210437
0.205553
0.200664
0.195735
0.190727
0.185595
0.180295
0.174792
0.249139
0.244681
0.239946
0.235009
0.230011
0.225018
0.220055
0.215125
0.210218
0.205317
0.200398
0.195434
0.190392
0.185242
0.179956
0.174521
0.246913
0.243517
0.239294
0.23461
0.229752
0.224835
0.21991
0.214995
0.210089
0.205178
0.200243
0.19526
0.190202
0.185045
0.17977
0.174376
0.245774
0.243129
0.239142
0.234533
0.229706
0.224801
0.21988
0.214965
0.210056
0.205141
0.200201
0.195212
0.190149
0.184989
0.179716
0.174332
0.233174
0.231705
0.229233
0.226167
0.222737
0.219042
0.21514
0.211067
0.206847
0.202493
0.198013
0.193411
0.188688
0.183845
0.178885
0.17382
0.232931
0.231491
0.229048
0.226005
0.222589
0.218899
0.214996
0.210917
0.206688
0.202323
0.197834
0.193224
0.188499
0.18366
0.178714
0.173673
0.232524
0.231146
0.228769
0.225779
0.222401
0.218735
0.214843
0.210767
0.206536
0.202166
0.197671
0.193058
0.188332
0.183499
0.178567
0.173549
0.231992
0.230707
0.228427
0.225515
0.222192
0.218562
0.21469
0.210625
0.206397
0.202027
0.19753
0.192915
0.188191
0.183364
0.178446
0.173448
0.231394
0.230229
0.228064
0.225244
0.221986
0.218397
0.214551
0.2105
0.206278
0.201911
0.197413
0.192799
0.188077
0.183257
0.178349
0.173369
0.230809
0.229776
0.227731
0.225001
0.221805
0.218256
0.214436
0.210399
0.206185
0.20182
0.197324
0.192711
0.187992
0.183177
0.178278
0.173311
0.230348
0.22943
0.227483
0.224825
0.221676
0.218157
0.214356
0.21033
0.206122
0.20176
0.197266
0.192654
0.187936
0.183125
0.178232
0.173273
0.230134
0.229272
0.227373
0.224748
0.221619
0.218113
0.214319
0.210299
0.206093
0.201734
0.19724
0.192629
0.187912
0.183102
0.178212
0.173255
0.233866
0.23198
0.229368
0.226249
0.222795
0.219086
0.215175
0.211097
0.206873
0.202518
0.198037
0.193434
0.188709
0.183863
0.178898
0.173825
0.2336
0.231757
0.22918
0.226085
0.222645
0.218942
0.21503
0.210945
0.206712
0.202346
0.197855
0.193244
0.188516
0.183674
0.178723
0.173675
0.233149
0.231398
0.228896
0.225858
0.222456
0.218776
0.214876
0.210794
0.206559
0.202187
0.19769
0.193075
0.188347
0.183511
0.178574
0.17355
0.232555
0.23094
0.228547
0.225592
0.222246
0.218602
0.214723
0.210652
0.20642
0.202047
0.197547
0.19293
0.188204
0.183374
0.178451
0.173449
0.231879
0.23044
0.228179
0.225319
0.222039
0.218438
0.214583
0.210526
0.206301
0.20193
0.19743
0.192813
0.188088
0.183265
0.178354
0.173369