/*--------------------------------*- C++ -*----------------------------------*\
| =========                 |                                                 |
| \\      /  F ield         | foam-extend: Open Source CFD                    |
|  \\    /   O peration     | Version:     3.1                                |
|   \\  /    A nd           | Web:         http://www.extend-project.de       |
|    \\/     M anipulation  |                                                 |
\*---------------------------------------------------------------------------*/
FoamFile
{
    version     2.0;
    format      ascii;
    class       surfaceScalarField;
    location    "0.5";
    object      phi;
}
// * * * * * * * * * * * * * * * * * * * * * * * * * * * * * * * * * * * * * //

dimensions      [0 3 -1 0 0 0 0];

internalField   nonuniform List<scalar> 
41600
(
1.0176e-05
-4.63931e-06
-5.39167e-06
5.76042e-06
1.36951e-05
-3.92949e-06
-6.78973e-06
7.20012e-06
1.57797e-05
-2.41795e-06
-6.32778e-06
6.66111e-06
1.69318e-05
-1.4032e-06
-5.547e-06
5.7981e-06
1.75398e-05
-7.92566e-07
-4.80975e-06
4.99427e-06
1.78295e-05
-4.24376e-07
-4.20809e-06
4.34283e-06
1.7922e-05
-1.91637e-07
-3.76917e-06
3.86829e-06
1.78795e-05
-3.23004e-08
-3.50582e-06
3.58063e-06
1.77261e-05
9.33933e-08
-3.43207e-06
3.49204e-06
1.74656e-05
2.05961e-07
-3.57436e-06
3.62894e-06
1.70789e-05
3.23536e-07
-3.98011e-06
4.04321e-06
1.65142e-05
4.62293e-07
-4.73348e-06
4.8359e-06
1.56436e-05
6.42123e-07
-5.97867e-06
6.20716e-06
1.41038e-05
9.07063e-07
-7.93121e-06
8.56397e-06
1.0648e-05
1.35808e-06
-1.06273e-05
1.27251e-05
1.67199e-06
-1.12313e-05
1.88639e-05
1.91663e-05
-7.79819e-06
-7.30953e-06
7.87535e-06
2.21906e-05
-7.60243e-06
-1.0039e-05
1.06876e-05
2.43323e-05
-5.08634e-06
-9.5339e-06
1.00606e-05
2.56385e-05
-3.105e-06
-8.37236e-06
8.76791e-06
2.63599e-05
-1.80413e-06
-7.23598e-06
7.52613e-06
2.67017e-05
-9.78062e-07
-6.29827e-06
6.51021e-06
2.67927e-05
-4.38878e-07
-5.60459e-06
5.76083e-06
2.67048e-05
-6.2651e-08
-5.17203e-06
5.29026e-06
2.64633e-05
2.40049e-07
-5.01735e-06
5.1122e-06
2.60676e-05
5.16048e-07
-5.17583e-06
5.26145e-06
2.54847e-05
8.09753e-07
-5.71087e-06
5.80753e-06
2.4631e-05
1.1643e-06
-6.73567e-06
6.88737e-06
2.33085e-05
1.63499e-06
-8.44018e-06
8.76981e-06
2.10026e-05
2.31543e-06
-1.10823e-05
1.19798e-05
1.61126e-05
3.35001e-06
-1.45398e-05
1.7438e-05
4.16032e-06
-1.43451e-05
2.41125e-05
2.59673e-05
-8.72313e-06
-7.78288e-06
8.45757e-06
2.69948e-05
-9.39846e-06
-1.1089e-05
1.18575e-05
2.79448e-05
-6.64821e-06
-1.05569e-05
1.11687e-05
2.85811e-05
-4.19274e-06
-9.21212e-06
9.66355e-06
2.89272e-05
-2.47689e-06
-7.89906e-06
8.22571e-06
2.90534e-05
-1.34044e-06
-6.82399e-06
7.06022e-06
2.90156e-05
-5.73972e-07
-6.02992e-06
6.20282e-06
2.88494e-05
-2.68814e-08
-5.52615e-06
5.65656e-06
2.85549e-05
4.30734e-07
-5.32356e-06
5.42741e-06
2.8123e-05
8.54785e-07
-5.45227e-06
5.54541e-06
2.7513e-05
1.3154e-06
-5.97178e-06
6.07611e-06
2.66383e-05
1.87683e-06
-6.99023e-06
7.15242e-06
2.53048e-05
2.61984e-06
-8.68684e-06
9.03546e-06
2.30218e-05
3.66322e-06
-1.12892e-05
1.22245e-05
1.82811e-05
5.14252e-06
-1.45914e-05
1.75395e-05
6.13181e-06
-1.40171e-05
2.36668e-05
3.19926e-05
-8.14777e-06
-8.13118e-06
8.90012e-06
3.11252e-05
-9.40131e-06
-1.18081e-05
1.26783e-05
3.07044e-05
-6.90594e-06
-1.1197e-05
1.18756e-05
3.0464e-05
-4.44299e-06
-9.67037e-06
1.0161e-05
3.02747e-05
-2.63672e-06
-8.20077e-06
8.54982e-06
3.0082e-05
-1.39661e-06
-7.01309e-06
7.26202e-06
2.98604e-05
-5.32428e-07
-6.1395e-06
6.31955e-06
2.95911e-05
1.08553e-07
-5.57454e-06
5.70835e-06
2.92547e-05
6.61324e-07
-5.32244e-06
5.42832e-06
2.88239e-05
1.19178e-06
-5.39876e-06
5.49254e-06
2.82548e-05
1.78121e-06
-5.85269e-06
5.95599e-06
2.74682e-05
2.50581e-06
-6.77736e-06
6.93491e-06
2.62966e-05
3.45856e-06
-8.32747e-06
8.66044e-06
2.43184e-05
4.76211e-06
-1.06915e-05
1.15708e-05
2.02233e-05
6.51482e-06
-1.36325e-05
1.63553e-05
7.53972e-06
-1.29164e-05
2.17243e-05
3.70935e-05
-6.66077e-06
-8.47288e-06
9.32514e-06
3.47608e-05
-8.03184e-06
-1.24607e-05
1.3424e-05
3.31514e-05
-6.03636e-06
-1.17609e-05
1.25007e-05
3.2093e-05
-3.91057e-06
-1.00525e-05
1.05785e-05
3.13783e-05
-2.29048e-06
-8.42753e-06
8.79598e-06
3.08633e-05
-1.14088e-06
-7.12761e-06
7.38684e-06
3.04572e-05
-3.1161e-07
-6.17347e-06
6.35874e-06
3.00898e-05
3.39475e-07
-5.54527e-06
5.68181e-06
2.97266e-05
9.18489e-07
-5.23005e-06
5.33612e-06
2.93233e-05
1.50298e-06
-5.23468e-06
5.32673e-06
2.88355e-05
2.17071e-06
-5.59328e-06
5.69159e-06
2.81947e-05
3.00182e-06
-6.37936e-06
6.5241e-06
2.7262e-05
4.09321e-06
-7.7192e-06
8.01728e-06
2.5684e-05
5.56419e-06
-9.76275e-06
1.05387e-05
2.23376e-05
7.47899e-06
-1.22662e-05
1.46483e-05
8.50125e-06
-1.14929e-05
1.92182e-05
4.10533e-05
-4.62931e-06
-8.77381e-06
9.69373e-06
3.76875e-05
-5.70749e-06
-1.30184e-05
1.40598e-05
3.51752e-05
-4.31599e-06
-1.22408e-05
1.30328e-05
3.34656e-05
-2.75718e-06
-1.03722e-05
1.09284e-05
3.23198e-05
-1.52964e-06
-8.60733e-06
8.99232e-06
3.15369e-05
-6.25913e-07
-7.20348e-06
7.47138e-06
3.09816e-05
5.42105e-08
-6.17088e-06
6.36036e-06
3.05459e-05
6.37391e-07
-5.47532e-06
5.61313e-06
3.01781e-05
1.18068e-06
-5.09113e-06
5.19666e-06
2.98279e-05
1.76397e-06
-5.01155e-06
5.10077e-06
2.94524e-05
2.45505e-06
-5.25485e-06
5.34607e-06
2.89961e-05
3.33086e-06
-5.87296e-06
6.00022e-06
2.83484e-05
4.48874e-06
-6.9616e-06
7.21374e-06
2.72156e-05
6.05037e-06
-8.63315e-06
9.27977e-06
2.46348e-05
8.0753e-06
-1.0653e-05
1.26375e-05
9.1658e-06
-9.86787e-06
1.64076e-05
4.37422e-05
-2.28678e-06
-8.99909e-06
9.96695e-06
3.97231e-05
-2.78605e-06
-1.34254e-05
1.45231e-05
3.66159e-05
-2.03856e-06
-1.25865e-05
1.34163e-05
3.4468e-05
-1.18731e-06
-1.05952e-05
1.11732e-05
3.30297e-05
-4.8821e-07
-8.72144e-06
9.11829e-06
3.20766e-05
5.32177e-08
-7.23351e-06
7.50744e-06
3.14161e-05
5.22774e-07
-6.13207e-06
6.32409e-06
3.09566e-05
9.58507e-07
-5.37399e-06
5.51232e-06
3.06152e-05
1.4177e-06
-4.91985e-06
5.02425e-06
3.03428e-05
1.95051e-06
-4.75009e-06
4.8359e-06
3.01037e-05
2.61089e-06
-4.86669e-06
4.94993e-06
2.98603e-05
3.46647e-06
-5.29817e-06
5.40599e-06
2.95356e-05
4.61248e-06
-6.10608e-06
6.30704e-06
2.88972e-05
6.18623e-06
-7.36221e-06
7.86479e-06
2.71079e-05
8.31403e-06
-8.85445e-06
1.0405e-05
9.74373e-06
-8.09216e-06
1.34096e-05
4.5093e-05
-9.1269e-06
1.01205e-05
2.03226e-07
4.07586e-05
-1.36419e-05
1.47694e-05
4.20873e-07
3.7366e-05
-1.27591e-05
1.36084e-05
5.04665e-07
3.50129e-05
-1.06925e-05
1.12815e-05
5.76849e-07
3.34474e-05
-8.75132e-06
9.15383e-06
6.74731e-07
3.24123e-05
-7.20715e-06
7.4837e-06
8.11791e-07
3.17372e-05
-6.05691e-06
6.24977e-06
1.00505e-06
3.12955e-05
-5.24582e-06
5.38376e-06
1.2623e-06
3.10097e-05
-4.7263e-06
4.82909e-06
1.60069e-06
3.08342e-05
-4.46749e-06
4.54977e-06
2.04371e-06
3.07452e-05
-4.4554e-06
4.53084e-06
2.62442e-06
3.07306e-05
-4.69364e-06
4.78243e-06
3.3923e-06
3.07651e-05
-5.20359e-06
5.35281e-06
4.42879e-06
3.07207e-05
-6.00196e-06
6.35165e-06
5.88091e-06
2.99247e-05
-6.89113e-06
7.9559e-06
8.04525e-06
-6.19292e-06
1.01275e-05
1.08003e-05
1.07655e-05
-4.96032e-06
-4.87757e-06
1.43809e-05
-4.22607e-06
-6.17901e-06
1.64529e-05
-2.60693e-06
-5.79287e-06
1.75264e-05
-1.51309e-06
-5.10749e-06
1.80228e-05
-8.53255e-07
-4.45286e-06
1.8185e-05
-4.54994e-07
-3.91528e-06
1.81403e-05
-2.02636e-07
-3.52183e-06
1.79489e-05
-2.87312e-08
-3.2857e-06
1.76251e-05
1.11254e-07
-3.21951e-06
1.71552e-05
2.39921e-07
-3.34439e-06
1.64895e-05
3.79251e-07
-3.69367e-06
1.55234e-05
5.50893e-07
-4.31828e-06
1.40463e-05
7.84829e-07
-5.28637e-06
1.16186e-05
1.14386e-06
-6.64737e-06
7.4053e-06
1.72487e-06
-8.13891e-06
2.18629e-06
-7.47593e-06
2.03421e-05
-8.3111e-06
-6.56603e-06
2.33524e-05
-8.16958e-06
-9.10582e-06
2.54049e-05
-5.48339e-06
-8.70995e-06
2.65655e-05
-3.34942e-06
-7.69658e-06
2.71093e-05
-1.94353e-06
-6.68949e-06
2.72572e-05
-1.04904e-06
-5.85215e-06
2.71433e-05
-4.63259e-07
-5.23011e-06
2.68363e-05
-5.21078e-08
-4.84164e-06
2.6346e-05
2.86354e-07
-4.7021e-06
2.56475e-05
6.02281e-07
-4.83973e-06
2.46645e-05
9.50169e-07
-5.29875e-06
2.32411e-05
1.38524e-06
-6.14671e-06
2.10742e-05
1.98136e-06
-7.4698e-06
1.75879e-05
2.85404e-06
-9.30619e-06
1.18298e-05
4.11666e-06
-1.11735e-05
5.063e-06
-9.55037e-06
2.76407e-05
-9.27379e-06
-6.94144e-06
2.84948e-05
-1.00913e-05
-1.00213e-05
2.92445e-05
-7.16601e-06
-9.62389e-06
2.9663e-05
-4.52342e-06
-8.45665e-06
2.97843e-05
-2.66886e-06
-7.29504e-06
2.96843e-05
-1.43739e-06
-6.33561e-06
2.94179e-05
-6.03423e-07
-5.62335e-06
2.9014e-05
-4.43456e-09
-5.16989e-06
2.84552e-05
5.08618e-07
-4.98703e-06
2.7707e-05
9.95099e-07
-5.0969e-06
2.66846e-05
1.54087e-06
-5.54005e-06
2.52307e-05
2.22759e-06
-6.37869e-06
2.30526e-05
3.16094e-06
-7.68827e-06
1.96154e-05
4.48357e-06
-9.48158e-06
1.40768e-05
6.28107e-06
-1.12172e-05
7.4489e-06
-9.31842e-06
3.41237e-05
-8.64678e-06
-7.20849e-06
3.29472e-05
-1.00881e-05
-1.06348e-05
3.22138e-05
-7.44334e-06
-1.01863e-05
3.16793e-05
-4.79422e-06
-8.86509e-06
3.12175e-05
-2.84152e-06
-7.56632e-06
3.07703e-05
-1.49671e-06
-6.50658e-06
3.03056e-05
-5.55468e-07
-5.72276e-06
2.97895e-05
1.51581e-07
-5.21442e-06
2.91908e-05
7.70181e-07
-4.98537e-06
2.84531e-05
1.38132e-06
-5.04718e-06
2.74917e-05
2.08093e-06
-5.43136e-06
2.61635e-05
2.96697e-06
-6.18853e-06
2.42128e-05
4.16211e-06
-7.378e-06
2.11822e-05
5.81557e-06
-8.99282e-06
1.63668e-05
7.96427e-06
-1.05004e-05
9.18129e-06
-8.59212e-06
3.96151e-05
-7.06136e-06
-7.47688e-06
3.68735e-05
-8.6162e-06
-1.11911e-05
3.48565e-05
-6.50736e-06
-1.06799e-05
3.3435e-05
-4.22145e-06
-9.20385e-06
3.24034e-05
-2.46913e-06
-7.76832e-06
3.16082e-05
-1.22092e-06
-6.60818e-06
3.0946e-05
-3.15403e-07
-5.75133e-06
3.03323e-05
4.04896e-07
-5.18485e-06
2.97138e-05
1.05697e-06
-4.89843e-06
2.90226e-05
1.73316e-06
-4.89529e-06
2.81771e-05
2.52817e-06
-5.19504e-06
2.70528e-05
3.54633e-06
-5.83435e-06
2.54334e-05
4.9182e-06
-6.85595e-06
2.29311e-05
6.79404e-06
-8.23892e-06
1.89439e-05
9.17148e-06
-9.48617e-06
1.04008e-05
-7.66928e-06
4.38782e-05
-4.90735e-06
-7.71719e-06
4.00357e-05
-6.12483e-06
-1.16672e-05
3.70438e-05
-4.6565e-06
-1.10998e-05
3.49166e-05
-2.97973e-06
-9.48662e-06
3.34183e-05
-1.65057e-06
-7.92764e-06
3.23353e-05
-6.6722e-07
-6.67416e-06
3.15165e-05
7.82407e-08
-5.74577e-06
3.08367e-05
7.2729e-07
-5.11783e-06
3.02269e-05
1.34392e-06
-4.76828e-06
2.96145e-05
2.02296e-06
-4.689e-06
2.89255e-05
2.84954e-06
-4.88722e-06
2.80572e-05
3.92643e-06
-5.3848e-06
2.68331e-05
5.38863e-06
-6.20788e-06
2.49217e-05
7.3975e-06
-7.32523e-06
2.17767e-05
9.95456e-06
-8.29102e-06
1.12979e-05
-6.61299e-06
4.67728e-05
-2.42988e-06
-7.89892e-06
4.22347e-05
-2.99698e-06
-1.20152e-05
3.86008e-05
-2.2069e-06
-1.14021e-05
3.59987e-05
-1.2895e-06
-9.68336e-06
3.41846e-05
-5.30191e-07
-8.02778e-06
3.29206e-05
6.18403e-08
-6.69855e-06
3.19932e-05
5.81501e-07
-5.70789e-06
3.12969e-05
1.07147e-06
-5.02189e-06
3.07307e-05
1.59837e-06
-4.60805e-06
3.02269e-05
2.22386e-06
-4.44728e-06
2.97256e-05
3.01836e-06
-4.53414e-06
2.91531e-05
4.07551e-06
-4.87473e-06
2.83806e-05
5.5321e-06
-5.47704e-06
2.71359e-05
7.57991e-06
-6.29998e-06
2.48721e-05
1.03262e-05
-6.96229e-06
1.21714e-05
-5.45697e-06
4.82264e-05
-8.003e-06
2.00992e-07
4.33526e-05
-1.22004e-05
4.35331e-07
3.94106e-05
-1.15525e-05
5.28552e-07
3.65867e-05
-9.76818e-06
6.1003e-07
3.46367e-05
-8.05213e-06
7.20662e-07
3.32867e-05
-6.67161e-06
8.76256e-07
3.23499e-05
-5.63575e-06
1.09718e-06
3.16823e-05
-4.90091e-06
1.39411e-06
3.11918e-05
-4.42701e-06
1.78959e-06
3.08183e-05
-4.18574e-06
2.31557e-06
3.05221e-05
-4.15952e-06
3.01874e-06
3.027e-05
-4.33778e-06
3.97166e-06
3.00089e-05
-4.70674e-06
5.29634e-06
2.95887e-05
-5.20863e-06
7.20679e-06
2.85021e-05
-5.53258e-06
1.00543e-05
-4.27383e-06
1.36912e-05
1.1274e-05
-5.23502e-06
-4.24254e-06
1.4979e-05
-4.48411e-06
-5.39989e-06
1.70458e-05
-2.77325e-06
-5.08643e-06
1.80543e-05
-1.61052e-06
-4.50545e-06
1.8454e-05
-9.07305e-07
-3.94518e-06
1.85034e-05
-4.82235e-07
-3.48247e-06
1.83359e-05
-2.12151e-07
-3.14216e-06
1.80113e-05
-2.49565e-08
-2.93616e-06
1.75375e-05
1.2845e-07
-2.87415e-06
1.68913e-05
2.72244e-07
-2.97047e-06
1.601e-05
4.31912e-07
-3.24425e-06
1.47771e-05
6.3354e-07
-3.71899e-06
1.29903e-05
9.13947e-07
-4.41347e-06
1.03026e-05
1.34229e-06
-5.30201e-06
6.26668e-06
1.9963e-06
-6.09925e-06
2.47099e-06
-5.2225e-06
2.13559e-05
-8.74858e-06
-5.67798e-06
2.43643e-05
-8.66241e-06
-7.93593e-06
2.63481e-05
-5.83231e-06
-7.63471e-06
2.73871e-05
-3.56575e-06
-6.78028e-06
2.77774e-05
-2.06734e-06
-5.91977e-06
2.77543e-05
-1.11184e-06
-5.19946e-06
2.74575e-05
-4.83932e-07
-4.66152e-06
2.69548e-05
-4.09925e-08
-4.32289e-06
2.62455e-05
3.30716e-07
-4.19511e-06
2.52922e-05
6.83369e-07
-4.29756e-06
2.40002e-05
1.08014e-06
-4.65497e-06
2.21996e-05
1.58471e-06
-5.29727e-06
1.96064e-05
2.28114e-06
-6.24378e-06
1.57901e-05
3.28863e-06
-7.43623e-06
1.03316e-05
4.67579e-06
-8.3944e-06
5.58174e-06
-6.67931e-06
2.90841e-05
-9.74215e-06
-5.96752e-06
2.98007e-05
-1.06929e-05
-8.70757e-06
3.03864e-05
-7.62079e-06
-8.42103e-06
3.06211e-05
-4.81587e-06
-7.44123e-06
3.0548e-05
-2.83909e-06
-6.45021e-06
3.02487e-05
-1.52286e-06
-5.62535e-06
2.97788e-05
-6.28003e-07
-5.00938e-06
2.9162e-05
1.96965e-08
-4.61369e-06
2.83713e-05
5.82605e-07
-4.44822e-06
2.73571e-05
1.12625e-06
-4.52567e-06
2.6017e-05
1.7478e-06
-4.86758e-06
2.41814e-05
2.54055e-06
-5.49897e-06
2.15819e-05
3.62243e-06
-6.42998e-06
1.78357e-05
5.13644e-06
-7.5832e-06
1.26303e-05
7.10141e-06
-8.43743e-06
8.1764e-06
-6.51358e-06
3.59623e-05
-9.07038e-06
-6.1665e-06
3.45334e-05
-1.0684e-05
-9.21477e-06
3.35395e-05
-7.91519e-06
-8.89798e-06
3.2755e-05
-5.10463e-06
-7.79186e-06
3.20572e-05
-3.02277e-06
-6.68477e-06
3.13859e-05
-1.58437e-06
-5.77387e-06
3.07045e-05
-5.7325e-07
-5.09607e-06
2.99687e-05
1.9421e-07
-4.65313e-06
2.91394e-05
8.73475e-07
-4.44693e-06
2.81432e-05
1.55801e-06
-4.48275e-06
2.68795e-05
2.35513e-06
-4.77496e-06
2.51948e-05
3.37697e-06
-5.34029e-06
2.28581e-05
4.76027e-06
-6.17914e-06
1.95539e-05
6.65313e-06
-7.20534e-06
1.50585e-05
9.01056e-06
-7.91404e-06
1.00988e-05
-6.00377e-06
4.1791e-05
-7.40099e-06
-6.37185e-06
3.87131e-05
-9.12285e-06
-9.67427e-06
3.6354e-05
-6.92067e-06
-9.31528e-06
3.46227e-05
-4.49586e-06
-8.08129e-06
3.33163e-05
-2.62671e-06
-6.85805e-06
3.22746e-05
-1.29009e-06
-5.86072e-06
3.13845e-05
-3.15095e-07
-5.11941e-06
3.0551e-05
4.68569e-07
-4.6257e-06
2.97081e-05
1.18793e-06
-4.36996e-06
2.87738e-05
1.94749e-06
-4.35043e-06
2.76516e-05
2.85493e-06
-4.57268e-06
2.62083e-05
4.03035e-06
-5.04439e-06
2.42497e-05
5.62037e-06
-5.75745e-06
2.15119e-05
7.77535e-06
-6.62339e-06
1.78091e-05
1.04026e-05
-7.17542e-06
1.14851e-05
-5.36402e-06
4.6316e-05
-5.14288e-06
-6.55889e-06
4.20805e-05
-6.48626e-06
-1.00683e-05
3.86851e-05
-4.95486e-06
-9.67017e-06
3.62007e-05
-3.17559e-06
-8.32248e-06
3.43968e-05
-1.75635e-06
-6.99409e-06
3.30501e-05
-7.01423e-07
-5.91615e-06
3.19968e-05
1.04594e-07
-5.11213e-06
3.10993e-05
8.13545e-07
-4.56534e-06
3.0276e-05
1.4979e-06
-4.255e-06
2.94413e-05
2.26403e-06
-4.17084e-06
2.85082e-05
3.21034e-06
-4.30952e-06
2.73669e-05
4.45643e-06
-4.6696e-06
2.58588e-05
6.15613e-06
-5.23545e-06
2.37533e-05
8.47603e-06
-5.92043e-06
2.08432e-05
1.13295e-05
-6.30781e-06
1.25397e-05
-4.63688e-06
4.93881e-05
-2.55102e-06
-6.70178e-06
4.44222e-05
-3.17902e-06
-1.03565e-05
4.03443e-05
-2.35357e-06
-9.92552e-06
3.73535e-05
-1.37831e-06
-8.48985e-06
3.52135e-05
-5.65222e-07
-7.0789e-06
3.36763e-05
7.27923e-08
-5.93549e-06
3.25123e-05
6.38954e-07
-5.07833e-06
3.16047e-05
1.17904e-06
-4.47972e-06
3.08396e-05
1.76856e-06
-4.11358e-06
3.01382e-05
2.47844e-06
-3.96036e-06
2.94306e-05
3.39152e-06
-4.0077e-06
2.86385e-05
4.61847e-06
-4.24469e-06
2.76478e-05
6.3177e-06
-4.6479e-06
2.62622e-05
8.6959e-06
-5.13428e-06
2.41841e-05
1.17933e-05
-5.348e-06
1.35891e-05
-3.84918e-06
5.09306e-05
-6.78435e-06
1.99208e-07
4.5612e-05
-1.051e-05
4.49125e-07
4.12069e-05
-1.00521e-05
5.5123e-07
3.798e-05
-8.56122e-06
6.41539e-07
3.56966e-05
-7.09817e-06
7.64294e-07
3.40703e-05
-5.91003e-06
9.375e-07
3.29015e-05
-5.01267e-06
1.18465e-06
3.20325e-05
-4.37168e-06
1.51881e-06
3.13604e-05
-3.95366e-06
1.96735e-06
3.08163e-05
-3.73235e-06
2.56908e-06
3.03546e-05
-3.68707e-06
3.38078e-06
2.99425e-05
-3.79712e-06
4.4899e-06
2.95433e-05
-4.02932e-06
6.03944e-06
2.90662e-05
-4.30126e-06
8.26566e-06
2.81628e-05
-4.3265e-06
1.14907e-05
-3.07373e-06
1.53384e-05
1.16997e-05
-5.46341e-06
-3.50912e-06
1.54839e-05
-4.70152e-06
-4.48255e-06
1.75501e-05
-2.91468e-06
-4.238e-06
1.85061e-05
-1.69384e-06
-3.76757e-06
1.88248e-05
-9.53658e-07
-3.31027e-06
1.87786e-05
-5.0555e-07
-2.93066e-06
1.85063e-05
-2.20088e-07
-2.64987e-06
1.80692e-05
-2.1396e-08
-2.4776e-06
1.74717e-05
1.43979e-07
-2.42059e-06
1.66874e-05
3.0097e-07
-2.48715e-06
1.56512e-05
4.77868e-07
-2.68597e-06
1.42523e-05
7.03501e-07
-3.02362e-06
1.23161e-05
1.01773e-06
-3.49501e-06
9.57845e-06
1.48926e-06
-4.05358e-06
5.77233e-06
2.17918e-06
-4.47231e-06
2.65138e-06
-3.69042e-06
2.22044e-05
-9.1111e-06
-4.6746e-06
2.52176e-05
-9.07708e-06
-6.57352e-06
2.71493e-05
-6.12852e-06
-6.35259e-06
2.80893e-05
-3.75038e-06
-5.66379e-06
2.83515e-05
-2.17325e-06
-4.96237e-06
2.81836e-05
-1.16537e-06
-4.37175e-06
2.77309e-05
-5.0087e-07
-3.92807e-06
2.7063e-05
-3.11193e-08
-3.64524e-06
2.6173e-05
3.70598e-07
-3.53175e-06
2.50198e-05
7.54825e-07
-3.59817e-06
2.35056e-05
1.19236e-06
-3.85524e-06
2.14698e-05
1.75186e-06
-4.30985e-06
1.86719e-05
2.52144e-06
-4.94958e-06
1.48021e-05
3.61615e-06
-5.69333e-06
9.68463e-06
5.069e-06
-6.16677e-06
5.91887e-06
-4.72667e-06
3.02924e-05
-1.01292e-05
-4.8899e-06
3.09016e-05
-1.11985e-05
-7.19533e-06
3.13557e-05
-8.00665e-06
-6.99698e-06
3.14394e-05
-5.06529e-06
-6.21008e-06
3.12038e-05
-2.98451e-06
-5.40334e-06
3.07359e-05
-1.59546e-06
-4.72738e-06
3.00931e-05
-6.47902e-07
-4.21954e-06
2.92957e-05
4.19787e-08
-3.88935e-06
2.83138e-05
6.48648e-07
-3.74439e-06
2.7091e-05
1.24134e-06
-3.7894e-06
2.55225e-05
1.92567e-06
-4.03237e-06
2.34496e-05
2.80177e-06
-4.47604e-06
2.06501e-05
3.99187e-06
-5.10084e-06
1.68643e-05
5.6307e-06
-5.81195e-06
1.20187e-05
7.68369e-06
-6.2065e-06
8.64987e-06
-4.61016e-06
3.7502e-05
-9.41979e-06
-5.03294e-06
3.58707e-05
-1.11845e-05
-7.59749e-06
3.46647e-05
-8.31535e-06
-7.38326e-06
3.36736e-05
-5.36921e-06
-6.49685e-06
3.2778e-05
-3.17734e-06
-5.59628e-06
3.1917e-05
-1.65839e-06
-4.85004e-06
3.10511e-05
-5.86517e-07
-4.29149e-06
3.01297e-05
2.33418e-07
-3.9232e-06
2.91097e-05
9.6563e-07
-3.74387e-06
2.79103e-05
1.71282e-06
-3.75485e-06
2.64289e-05
2.59045e-06
-3.95836e-06
2.4523e-05
3.71885e-06
-4.35145e-06
2.20053e-05
5.23932e-06
-4.90887e-06
1.86739e-05
7.28893e-06
-5.53217e-06
1.45201e-05
9.7556e-06
-5.83214e-06
1.06955e-05
-4.24792e-06
4.36134e-05
-7.68079e-06
-5.18473e-06
4.02644e-05
-9.54807e-06
-7.96162e-06
3.76251e-05
-7.27097e-06
-7.72039e-06
3.56367e-05
-4.72948e-06
-6.73266e-06
3.40999e-05
-2.76067e-06
-5.73792e-06
3.28495e-05
-1.34778e-06
-4.92087e-06
3.17654e-05
-3.11923e-07
-4.30995e-06
3.07458e-05
5.26723e-07
-3.89938e-06
2.97169e-05
1.30452e-06
-3.67993e-06
2.85906e-05
2.13518e-06
-3.64654e-06
2.72685e-05
3.13534e-06
-3.79544e-06
2.5627e-05
4.43412e-06
-4.11817e-06
2.35109e-05
6.18351e-06
-4.58549e-06
2.07549e-05
8.52231e-06
-5.10076e-06
1.73565e-05
1.12823e-05
-5.3037e-06
1.21951e-05
-3.79582e-06
4.83579e-05
-5.33676e-06
-5.32534e-06
4.38051e-05
-6.78926e-06
-8.27431e-06
4.00783e-05
-5.20736e-06
-8.00702e-06
3.72971e-05
-3.34186e-06
-6.9289e-06
3.52367e-05
-1.84563e-06
-5.8487e-06
3.36671e-05
-7.28922e-07
-4.96544e-06
3.24132e-05
1.32676e-07
-4.30287e-06
3.13316e-05
8.91425e-07
-3.84843e-06
3.03309e-05
1.63484e-06
-3.58456e-06
2.93196e-05
2.47521e-06
-3.49956e-06
2.82089e-05
3.52019e-06
-3.58367e-06
2.68975e-05
4.89906e-06
-3.82315e-06
2.52591e-05
6.77257e-06
-4.18609e-06
2.31436e-05
9.2984e-06
-4.58104e-06
2.04896e-05
1.23135e-05
-4.68506e-06
1.3358e-05
-3.28608e-06
5.15786e-05
-2.65067e-06
-5.4338e-06
4.62673e-05
-3.33115e-06
-8.50328e-06
4.18246e-05
-2.47706e-06
-8.21313e-06
3.85105e-05
-1.45286e-06
-7.06478e-06
3.60968e-05
-5.93504e-07
-5.91728e-06
3.43277e-05
8.47282e-08
-4.98007e-06
3.29634e-05
6.9215e-07
-4.27352e-06
3.18758e-05
1.27588e-06
-3.77655e-06
3.09444e-05
1.91987e-06
-3.46726e-06
3.00849e-05
2.70169e-06
-3.32726e-06
2.92256e-05
3.71253e-06
-3.34081e-06
2.82962e-05
5.07274e-06
-3.48894e-06
2.72086e-05
6.94958e-06
-3.73727e-06
2.58273e-05
9.54696e-06
-4.00153e-06
2.39556e-05
1.28413e-05
-4.00408e-06
1.45234e-05
-2.74067e-06
5.31955e-05
-5.497e-06
1.97812e-07
4.75179e-05
-8.62521e-06
4.61658e-07
4.2732e-05
-8.31505e-06
5.7176e-07
3.917e-05
-7.12221e-06
6.70057e-07
3.66066e-05
-5.93202e-06
8.0377e-07
3.47465e-05
-4.95804e-06
9.92873e-07
3.33804e-05
-4.21802e-06
1.26353e-06
3.234e-05
-3.68594e-06
1.63061e-06
3.15152e-05
-3.33448e-06
2.12544e-06
3.08331e-05
-3.14035e-06
2.79183e-06
3.02479e-05
-3.08251e-06
3.69317e-06
2.97351e-05
-3.13672e-06
4.92512e-06
2.92811e-05
-3.26508e-06
6.63939e-06
2.88412e-05
-3.38927e-06
9.07488e-06
2.81248e-05
-3.28484e-06
1.2516e-05
-2.22046e-06
1.64314e-05
1.20413e-05
-5.64571e-06
-2.6985e-06
1.58914e-05
-4.87697e-06
-3.45573e-06
1.79596e-05
-3.02958e-06
-3.27661e-06
1.88748e-05
-1.76179e-06
-2.92096e-06
1.91289e-05
-9.91519e-07
-2.57287e-06
1.90055e-05
-5.24537e-07
-2.28267e-06
1.86488e-05
-2.26367e-07
-2.06681e-06
1.81217e-05
-1.80161e-08
-1.93248e-06
1.74279e-05
1.57132e-07
-1.88397e-06
1.65413e-05
3.24816e-07
-1.92532e-06
1.53992e-05
5.15223e-07
-2.05909e-06
1.39007e-05
7.5864e-07
-2.28379e-06
1.18963e-05
1.09599e-06
-2.58663e-06
9.17339e-06
1.59418e-06
-2.92481e-06
5.53699e-06
2.30439e-06
-3.1403e-06
2.77071e-06
-2.54058e-06
2.28854e-05
-9.3995e-06
-3.58235e-06
2.5906e-05
-9.41109e-06
-5.06002e-06
2.77993e-05
-6.36875e-06
-4.90671e-06
2.8662e-05
-3.90069e-06
-4.3876e-06
2.88219e-05
-2.25958e-06
-3.8542e-06
2.85373e-05
-1.20884e-06
-3.40287e-06
2.79591e-05
-5.14225e-07
-3.06193e-06
2.71588e-05
-2.1305e-08
-2.84174e-06
2.61282e-05
4.04068e-07
-2.74808e-06
2.48265e-05
8.13759e-07
-2.78542e-06
2.31598e-05
1.28307e-06
-2.95637e-06
2.09825e-05
1.88325e-06
-3.25709e-06
1.80914e-05
2.70341e-06
-3.66592e-06
1.42507e-05
3.85345e-06
-4.11188e-06
9.37996e-06
5.34361e-06
-4.33529e-06
6.14758e-06
-3.25763e-06
3.12624e-05
-1.04364e-05
-3.73349e-06
3.17898e-05
-1.16054e-05
-5.52841e-06
3.21418e-05
-8.31938e-06
-5.39839e-06
3.21064e-05
-5.26822e-06
-4.80713e-06
3.17408e-05
-3.10292e-06
-4.19439e-06
3.11371e-05
-1.65431e-06
-3.67818e-06
3.0355e-05
-6.63491e-07
-3.2882e-06
2.94127e-05
6.33928e-08
-3.03176e-06
2.82821e-05
7.03759e-07
-2.91346e-06
2.69042e-05
1.33602e-06
-2.93379e-06
2.51789e-05
2.06915e-06
-3.0931e-06
2.29634e-05
3.00698e-06
-3.38431e-06
2.00743e-05
4.27224e-06
-3.78059e-06
1.63266e-05
5.99087e-06
-4.2016e-06
1.17389e-05
8.09304e-06
-4.36825e-06
8.97277e-06
-3.17892e-06
3.87383e-05
-9.69664e-06
-3.83083e-06
3.69499e-05
-1.1587e-05
-5.82759e-06
3.55773e-05
-8.63956e-06
-5.69049e-06
3.44221e-05
-5.58435e-06
-5.02554e-06
3.33679e-05
-3.30303e-06
-4.342e-06
3.2354e-05
-1.71807e-06
-3.77232e-06
3.13387e-05
-5.96095e-07
-3.34365e-06
3.02697e-05
2.67519e-07
-3.05829e-06
2.91004e-05
1.0427e-06
-2.91353e-06
2.77496e-05
1.8401e-06
-2.90813e-06
2.61185e-05
2.78021e-06
-3.0383e-06
2.40798e-05
3.98753e-06
-3.29325e-06
2.14826e-05
5.6035e-06
-3.64294e-06
1.81931e-05
7.75371e-06
-4.00553e-06
1.42845e-05
1.02805e-05
-4.1111e-06
1.11021e-05
-2.92901e-06
4.50768e-05
-7.90224e-06
-3.93707e-06
4.15164e-05
-9.88975e-06
-6.09848e-06
3.86561e-05
-7.5546e-06
-5.94502e-06
3.6463e-05
-4.91926e-06
-5.20467e-06
3.47412e-05
-2.86932e-06
-4.44984e-06
3.33223e-05
-1.39381e-06
-3.82616e-06
3.20814e-05
-3.0783e-07
-3.3574e-06
3.09128e-05
5.76368e-07
-3.03954e-06
2.97381e-05
1.40192e-06
-2.86454e-06
2.84683e-05
2.28951e-06
-2.82609e-06
2.7008e-05
3.36155e-06
-2.91654e-06
2.52475e-05
4.75173e-06
-3.12184e-06
2.30635e-05
6.61231e-06
-3.41026e-06
2.03493e-05
9.0695e-06
-3.70238e-06
1.71709e-05
1.19027e-05
-3.74747e-06
1.26783e-05
-2.61737e-06
4.99974e-05
-5.4901e-06
-4.03706e-06
4.51972e-05
-7.03248e-06
-6.33135e-06
4.12085e-05
-5.41155e-06
-6.16139e-06
3.81905e-05
-3.4766e-06
-5.35359e-06
3.5924e-05
-1.91755e-06
-4.53395e-06
3.41744e-05
-7.49943e-07
-3.85965e-06
3.27584e-05
1.56641e-07
-3.35142e-06
3.15289e-05
9.57498e-07
-3e-06
3.03885e-05
1.74918e-06
-2.79147e-06
2.92442e-05
2.64897e-06
-2.71475e-06
2.80101e-05
3.7704e-06
-2.75833e-06
2.65963e-05
5.24766e-06
-2.9053e-06
2.49032e-05
7.24262e-06
-3.12332e-06
2.28279e-05
9.90159e-06
-3.33788e-06
2.03608e-05
1.30076e-05
-3.32285e-06
1.39143e-05
-2.268e-06
5.33376e-05
-2.72944e-06
-4.11487e-06
4.77567e-05
-3.45292e-06
-6.502e-06
4.30254e-05
-2.57647e-06
-6.31692e-06
3.94533e-05
-1.51268e-06
-5.45654e-06
3.68196e-05
-6.15441e-07
-4.58573e-06
3.48632e-05
9.62703e-08
-3.86988e-06
3.33367e-05
7.37695e-07
-3.32807e-06
3.21043e-05
1.3577e-06
-2.94434e-06
3.10416e-05
2.04625e-06
-2.70158e-06
3.00618e-05
2.88562e-06
-2.5842e-06
2.90962e-05
3.97219e-06
-2.57692e-06
2.80838e-05
5.4312e-06
-2.66015e-06
2.69582e-05
7.43223e-06
-2.80129e-06
2.56189e-05
1.01717e-05
-2.93234e-06
2.39e-05
1.35797e-05
-2.85725e-06
1.51582e-05
-1.89782e-06
5.50141e-05
-4.16053e-06
1.96763e-07
4.90565e-05
-6.5929e-06
4.72398e-07
4.39694e-05
-6.39367e-06
5.893e-07
4.01398e-05
-5.49976e-06
6.94409e-07
3.73514e-05
-4.59645e-06
8.37451e-07
3.53025e-05
-3.85301e-06
1.04009e-06
3.37767e-05
-3.28492e-06
1.33044e-06
3.25978e-05
-2.87425e-06
1.72487e-06
3.16517e-05
-2.59974e-06
2.25761e-06
3.08636e-05
-2.44241e-06
2.97577e-06
3.01904e-05
-2.38379e-06
3.94666e-06
2.96167e-05
-2.40165e-06
5.26986e-06
2.91469e-05
-2.46261e-06
7.09954e-06
2.8763e-05
-2.50468e-06
9.67106e-06
2.81857e-05
-2.36803e-06
1.32401e-05
-1.55278e-06
1.71797e-05
1.22983e-05
-5.78257e-06
-1.83064e-06
1.6199e-05
-5.01012e-06
-2.34634e-06
1.82701e-05
-3.11723e-06
-2.23043e-06
1.91555e-05
-1.81379e-06
-1.99261e-06
1.93614e-05
-1.02057e-06
-1.75816e-06
1.91799e-05
-5.39121e-07
-1.56205e-06
1.87598e-05
-2.31149e-07
-1.41552e-06
1.81658e-05
-1.52361e-08
-1.32326e-06
1.74022e-05
1.67286e-07
-1.28767e-06
1.64442e-05
3.42982e-07
-1.31035e-06
1.52331e-05
5.43202e-07
-1.39119e-06
1.36769e-05
7.98936e-07
-1.52647e-06
1.16434e-05
1.15135e-06
-1.7045e-06
8.948e-06
1.66588e-06
-1.89528e-06
5.42125e-06
2.38815e-06
-2.00171e-06
2.84881e-06
-1.601e-06
2.33976e-05
-9.61469e-06
-2.42613e-06
2.64256e-05
-9.66311e-06
-3.43506e-06
2.82919e-05
-6.55083e-06
-3.33941e-06
2.90978e-05
-4.01491e-06
-2.99232e-06
2.91812e-05
-2.32526e-06
-2.63298e-06
2.8809e-05
-1.24186e-06
-2.32787e-06
2.81365e-05
-5.24221e-07
-2.09639e-06
2.72377e-05
-1.27807e-08
-1.94535e-06
2.6105e-05
4.29819e-07
-1.87794e-06
2.46997e-05
8.58542e-07
-1.89565e-06
2.29333e-05
1.35083e-06
-1.99762e-06
2.06734e-05
1.97921e-06
-2.17747e-06
1.77425e-05
2.83261e-06
-2.41632e-06
1.39447e-05
4.01699e-06
-2.66518e-06
9.23248e-06
5.52907e-06
-2.76399e-06
6.30045e-06
-2.05317e-06
3.19916e-05
-1.06651e-05
-2.52037e-06
3.246e-05
-1.1912e-05
-3.7479e-06
3.27374e-05
-8.55615e-06
-3.67046e-06
3.26136e-05
-5.42223e-06
-3.27604e-06
3.21508e-05
-3.19285e-06
-2.86393e-06
3.14449e-05
-1.69883e-06
-2.51531e-06
3.05582e-05
-6.74977e-07
-2.25079e-06
2.95081e-05
8.08039e-08
-2.07525e-06
2.82693e-05
7.4615e-07
-1.99098e-06
2.6783e-05
1.40792e-06
-1.99692e-06
2.49551e-05
2.17632e-06
-2.09062e-06
2.26565e-05
3.15699e-06
-2.26355e-06
1.97302e-05
4.47189e-06
-2.49349e-06
1.60308e-05
6.24034e-06
-2.72559e-06
1.16083e-05
8.37095e-06
-2.78766e-06
9.19025e-06
-2.00502e-06
3.96676e-05
-9.90251e-06
-2.57948e-06
3.77643e-05
-1.189e-05
-3.94636e-06
3.62686e-05
-8.88493e-06
-3.86601e-06
3.49912e-05
-5.74754e-06
-3.4228e-06
3.38181e-05
-3.39834e-06
-2.96345e-06
3.2689e-05
-1.76302e-06
-2.57895e-06
3.15614e-05
-6.02682e-07
-2.28837e-06
3.03827e-05
2.94475e-07
-2.09327e-06
2.91045e-05
1.10208e-06
-1.99128e-06
2.76476e-05
1.93679e-06
-1.98008e-06
2.59183e-05
2.92201e-06
-2.05468e-06
2.38022e-05
4.18417e-06
-2.20437e-06
2.11729e-05
5.8634e-06
-2.40517e-06
1.79327e-05
8.07658e-06
-2.60159e-06
1.41816e-05
1.06377e-05
-2.62676e-06
1.13761e-05
-1.84804e-06
4.61767e-05
-8.06678e-06
-2.64621e-06
4.24615e-05
-1.01468e-05
-4.12636e-06
3.94372e-05
-7.76918e-06
-4.03652e-06
3.70912e-05
-5.0631e-06
-3.54307e-06
3.52305e-05
-2.95152e-06
-3.03597e-06
3.36845e-05
-1.42815e-06
-2.6151e-06
3.23258e-05
-3.03853e-07
-2.29747e-06
3.10459e-05
6.15286e-07
-2.08049e-06
2.97648e-05
1.47696e-06
-1.95824e-06
2.83939e-05
2.4068e-06
-1.92522e-06
2.68427e-05
3.53071e-06
-1.97407e-06
2.50128e-05
4.98444e-06
-2.09225e-06
2.28023e-05
6.91882e-06
-2.25516e-06
2.01353e-05
9.4503e-06
-2.40909e-06
1.70989e-05
1.23251e-05
-2.39847e-06
1.30032e-05
-1.65169e-06
5.12297e-05
-5.60397e-06
-2.70996e-06
4.6248e-05
-7.21532e-06
-4.2812e-06
4.20648e-05
-5.56587e-06
-4.18151e-06
3.88697e-05
-3.57852e-06
-3.64305e-06
3.64484e-05
-1.97166e-06
-3.09244e-06
3.45628e-05
-7.64836e-07
-2.63743e-06
3.30249e-05
1.7581e-07
-2.29316e-06
3.16847e-05
1.0091e-06
-2.05359e-06
3.04419e-05
1.83728e-06
-1.90896e-06
2.92035e-05
2.78113e-06
-1.85076e-06
2.78876e-05
3.95773e-06
-1.86935e-06
2.6414e-05
5.50341e-06
-1.95071e-06
2.47008e-05
7.57908e-06
-2.07034e-06
2.26692e-05
1.03218e-05
-2.17789e-06
2.03237e-05
1.34801e-05
-2.13226e-06
1.42873e-05
-1.43215e-06
5.46595e-05
-2.7879e-06
-2.75996e-06
4.88812e-05
-3.54425e-06
-4.3947e-06
4.39354e-05
-2.65133e-06
-4.28573e-06
4.01701e-05
-1.55758e-06
-3.71212e-06
3.73713e-05
-6.31508e-07
-3.12708e-06
3.52732e-05
1.07401e-07
-2.64401e-06
3.36244e-05
7.73473e-07
-2.27701e-06
3.22835e-05
1.42141e-06
-2.01574e-06
3.11239e-05
2.14367e-06
-1.84833e-06
3.00585e-05
3.02572e-06
-1.76344e-06
2.90217e-05
4.16693e-06
-1.74929e-06
2.79609e-05
5.69466e-06
-1.79055e-06
2.68235e-05
7.77827e-06
-1.86309e-06
2.55266e-05
1.06074e-05
-1.92095e-06
2.39083e-05
1.40819e-05
-1.84087e-06
1.55833e-05
-1.20034e-06
5.6381e-05
-2.7895e-06
1.96025e-07
5.02181e-05
-4.45516e-06
4.80889e-07
4.49071e-05
-4.3371e-06
6.03127e-07
4.08771e-05
-3.74099e-06
7.13594e-07
3.79192e-05
-3.13403e-06
8.63977e-07
3.57285e-05
-2.63232e-06
1.07744e-06
3.40818e-05
-2.24754e-06
1.38277e-06
3.27989e-05
-1.96812e-06
1.79819e-06
3.17629e-05