/*--------------------------------*- C++ -*----------------------------------*\
| =========                 |                                                 |
| \\      /  F ield         | foam-extend: Open Source CFD                    |
|  \\    /   O peration     | Version:     3.1                                |
|   \\  /    A nd           | Web:         http://www.extend-project.de       |
|    \\/     M anipulation  |                                                 |
\*---------------------------------------------------------------------------*/
FoamFile
{
    version     2.0;
    format      ascii;
    class       pointVectorField;
    location    "0.5";
    object      pointMotionU;
}
// * * * * * * * * * * * * * * * * * * * * * * * * * * * * * * * * * * * * * //

dimensions      [0 1 -1 0 0 0 0];

internalField   nonuniform List<vector> 
16859
(
(0 0 0)
(0 0 0)
(0 0 0)
(0 0 0)
(0 0 0)
(0 0 0)
(0 0 0)
(0 0 0)
(0 0 0)
(0 0 0)
(0 0 0)
(0 0 0)
(0 0 0)
(0 0 0)
(0 0 0)
(0 0 0)
(0 0 0)
(0 0 0)
(-1.12807e-09 -1.6544e-09 5.20518e-10)
(-2.18779e-09 -3.24981e-09 1.03523e-09)
(-3.18552e-09 -4.8323e-09 1.56996e-09)
(-4.16169e-09 -6.49556e-09 2.16464e-09)
(-5.1554e-09 -8.33429e-09 2.85942e-09)
(-6.2068e-09 -1.04537e-08 3.69784e-09)
(-7.35924e-09 -1.29802e-08 4.7297e-09)
(-8.66062e-09 -1.60754e-08 6.01411e-09)
(-1.01632e-08 -1.99517e-08 7.6227e-09)
(-1.19193e-08 -2.48915e-08 9.64366e-09)
(-1.39681e-08 -3.12602e-08 1.21871e-08)
(-1.63009e-08 -3.94923e-08 1.53923e-08)
(-1.87818e-08 -4.99844e-08 1.9432e-08)
(-2.09945e-08 -6.26956e-08 2.44675e-08)
(-2.19233e-08 -7.56962e-08 3.02749e-08)
(-1.84705e-08 -1.09497e-07 5.1214e-08)
(0 0 0)
(-2.22416e-09 -3.22872e-09 1.02296e-09)
(-4.31148e-09 -6.33904e-09 2.03356e-09)
(-6.27294e-09 -9.41767e-09 3.08174e-09)
(-8.18643e-09 -1.2643e-08 4.24481e-09)
(-1.01265e-08 -1.61932e-08 5.60008e-09)
(-1.21691e-08 -2.02626e-08 7.23059e-09)
(-1.43952e-08 -2.50811e-08 9.23044e-09)
(-1.68934e-08 -3.09372e-08 1.17096e-08)
(-1.97594e-08 -3.82044e-08 1.47985e-08)
(-2.30895e-08 -4.73695e-08 1.86508e-08)
(-2.69593e-08 -5.90482e-08 2.34427e-08)
(-3.13695e-08 -7.39457e-08 2.93594e-08)
(-3.61229e-08 -9.26454e-08 3.6539e-08)
(-4.05752e-08 -1.1489e-07 4.48811e-08)
(-4.31099e-08 -1.37258e-07 5.34516e-08)
(-3.49451e-08 -2.01896e-07 7.00365e-08)
(0 0 0)
(-3.26066e-09 -4.65251e-09 1.49179e-09)
(-6.31594e-09 -9.1269e-09 2.96332e-09)
(-9.17804e-09 -1.35408e-08 4.48535e-09)
(-1.19569e-08 -1.81415e-08 6.16807e-09)
(-1.47564e-08 -2.31704e-08 8.12045e-09)
(-1.76804e-08 -2.88837e-08 1.04581e-08)
(-2.08377e-08 -3.55757e-08 1.331e-08)
(-2.43449e-08 -4.36038e-08 1.68238e-08)
(-2.83258e-08 -5.34162e-08 2.11691e-08)
(-3.2904e-08 -6.55773e-08 2.65358e-08)
(-3.81813e-08 -8.07705e-08 3.31198e-08)
(-4.41873e-08 -9.97275e-08 4.10771e-08)
(-5.0773e-08 -1.2294e-07 5.03982e-08)
(-5.73854e-08 -1.4978e-07 6.06009e-08)
(-6.24373e-08 -1.75946e-07 7.00924e-08)
(-7.39784e-08 -2.46467e-07 8.71078e-08)
(0 0 0)
(-4.21341e-09 -5.86557e-09 1.91375e-09)
(-8.1535e-09 -1.14946e-08 3.79774e-09)
(-1.18293e-08 -1.70234e-08 5.73909e-09)
(-1.53758e-08 -2.27482e-08 7.87481e-09)
(-1.89182e-08 -2.89489e-08 1.03385e-08)
(-2.25788e-08 -3.59113e-08 1.32697e-08)
(-2.64823e-08 -4.3949e-08 1.68209e-08)
(-3.07586e-08 -5.34231e-08 2.11626e-08)
(-3.55409e-08 -6.4763e-08 2.64845e-08)
(-4.09581e-08 -7.84766e-08 3.29897e-08)
(-4.7115e-08 -9.51337e-08 4.08709e-08)
(-5.40518e-08 -1.1527e-07 5.02482e-08)
(-6.1671e-08 -1.39087e-07 6.10221e-08)
(-6.95744e-08 -1.65615e-07 7.25482e-08)
(-7.64077e-08 -1.90462e-07 8.2992e-08)
(-1.00882e-07 -2.57118e-07 1.06571e-07)
(0 0 0)
(-5.06419e-09 -6.82286e-09 2.27915e-09)
(-9.7887e-09 -1.33548e-08 4.51738e-09)
(-1.41747e-08 -1.97386e-08 6.81315e-09)
(-1.83744e-08 -2.62976e-08 9.32331e-09)
(-2.25258e-08 -3.33262e-08 1.21984e-08)
(-2.67604e-08 -4.11092e-08 1.55924e-08)
(-3.12072e-08 -4.99383e-08 1.96698e-08)
(-3.59953e-08 -6.01231e-08 2.46098e-08)
(-4.12509e-08 -7.19969e-08 3.06057e-08)
(-4.70879e-08 -8.59074e-08 3.78573e-08)
(-5.3588e-08 -1.02178e-07 4.6546e-08)
(-6.07604e-08 -1.21003e-07 5.67779e-08)
(-6.84677e-08 -1.422e-07 6.84547e-08)
(-7.62633e-08 -1.64604e-07 8.09821e-08)
(-8.2792e-08 -1.84516e-07 9.25527e-08)
(-1.12856e-07 -2.40055e-07 1.25455e-07)
(0 0 0)
(-5.8011e-09 -7.49538e-09 2.5821e-09)
(-1.1199e-08 -1.46532e-08 5.1107e-09)
(-1.61826e-08 -2.16116e-08 7.69034e-09)
(-2.09136e-08 -2.87017e-08 1.04905e-08)
(-2.55352e-08 -3.62118e-08 1.36709e-08)
(-3.01792e-08 -4.4402e-08 1.7391e-08)
(-3.49699e-08 -5.35135e-08 2.18164e-08)
(-4.00253e-08 -6.37688e-08 2.7122e-08)
(-4.54537e-08 -7.53612e-08 3.34904e-08)
(-5.13446e-08 -8.84263e-08 4.11028e-08)
(-5.77493e-08 -1.02983e-07 5.01188e-08)
(-6.46449e-08 -1.1883e-07 6.06317e-08)
(-7.18531e-08 -1.35366e-07 7.25708e-08)
(-7.88341e-08 -1.51301e-07 8.5446e-08)
(-8.40293e-08 -1.64005e-07 9.75462e-08)
(-1.09272e-07 -2.0536e-07 1.36288e-07)
(0 0 0)
(-6.41858e-09 -7.86949e-09 2.82057e-09)
(-1.23747e-08 -1.53663e-08 5.57405e-09)
(-1.78414e-08 -2.26162e-08 8.36609e-09)
(-2.29829e-08 -2.99424e-08 1.1372e-08)
(-2.7941e-08 -3.7612e-08 1.47533e-08)
(-3.28411e-08 -4.58467e-08 1.86667e-08)
(-3.77965e-08 -5.4824e-08 2.32699e-08)
(-4.29081e-08 -6.46686e-08 2.87223e-08)
(-4.82617e-08 -7.54288e-08 3.51825e-08)
(-5.39219e-08 -8.70342e-08 4.27981e-08)
(-5.99217e-08 -9.92261e-08 5.16866e-08)
(-6.62517e-08 -1.11455e-07 6.18991e-08)
(-7.2845e-08 -1.22764e-07 7.33469e-08)
(-7.95176e-08 -1.31723e-07 8.55953e-08)
(-8.53934e-08 -1.36555e-07 9.71007e-08)
(-1.05049e-07 -1.59578e-07 1.32146e-07)
(0 0 0)
(-6.91636e-09 -7.94496e-09 2.99593e-09)
(-1.33168e-08 -1.54975e-08 5.91081e-09)
(-1.91561e-08 -2.27667e-08 8.84695e-09)
(-2.4595e-08 -3.00564e-08 1.19793e-08)
(-2.97687e-08 -3.76045e-08 1.54651e-08)
(-3.47922e-08 -4.55898e-08 1.94518e-08)
(-3.97636e-08 -5.41278e-08 2.40813e-08)
(-4.47642e-08 -6.32559e-08 2.94894e-08)
(-4.98563e-08 -7.29048e-08 3.58007e-08)
(-5.50794e-08 -8.28515e-08 4.31152e-08)
(-6.04475e-08 -9.26525e-08 5.14853e-08)
(-6.59537e-08 -1.01556e-07 6.0872e-08)
(-7.15907e-08 -1.08415e-07 7.1056e-08)
(-7.73598e-08 -1.11671e-07 8.14239e-08)
(-8.28738e-08 -1.09383e-07 9.04034e-08)
(-1.58091e-07 -9.76495e-08 1.1733e-07)
(0 0 0)
(0 0 0)
(0 0 0)
(0 0 0)
(0 0 0)
(0 0 0)
(0 0 0)
(0 0 0)
(0 0 0)
(0 0 0)
(0 0 0)
(0 0 0)
(0 0 0)
(0 0 0)
(0 0 0)
(0 0 0)
(0 0 0)
(0 0 0)
(-1.15934e-09 -1.70633e-09 5.07433e-10)
(-2.25002e-09 -3.35374e-09 1.00907e-09)
(-3.28037e-09 -4.99189e-09 1.53012e-09)
(-4.29403e-09 -6.72002e-09 2.10962e-09)
(-5.33377e-09 -8.63907e-09 2.78698e-09)
(-6.44439e-09 -1.0862e-08 3.60504e-09)
(-7.67548e-09 -1.35257e-08 4.61301e-09)
(-9.0839e-09 -1.68056e-08 5.86954e-09)
(-1.07352e-08 -2.09343e-08 7.44604e-09)
(-1.27026e-08 -2.62225e-08 9.43104e-09)
(-1.50587e-08 -3.30755e-08 1.19363e-08)
(-1.78518e-08 -4.19832e-08 1.51063e-08)
(-2.10489e-08 -5.34149e-08 1.91254e-08)
(-2.44213e-08 -6.73819e-08 2.41568e-08)
(-2.72592e-08 -8.1571e-08 2.97022e-08)
(-3.64077e-08 -1.11696e-07 5.05885e-08)
(0 0 0)
(-2.28501e-09 -3.32937e-09 9.97209e-10)
(-4.43243e-09 -6.54022e-09 1.9821e-09)
(-6.45691e-09 -9.72602e-09 3.00338e-09)
(-8.44237e-09 -1.30756e-08 4.13666e-09)
(-1.04702e-08 -1.67785e-08 5.45775e-09)
(-1.26246e-08 -2.10432e-08 7.04838e-09)
(-1.49978e-08 -2.61183e-08 9.00146e-09)
(-1.76938e-08 -3.23169e-08 1.1426e-08)
(-2.08308e-08 -4.00471e-08 1.44516e-08)
(-2.45386e-08 -4.98435e-08 1.82316e-08)
(-2.89441e-08 -6.23875e-08 2.29421e-08)
(-3.41288e-08 -7.84715e-08 2.87685e-08)
(-4.00241e-08 -9.87823e-08 3.58447e-08)
(-4.61753e-08 -1.23104e-07 4.40217e-08)
(-5.12e-08 -1.47339e-07 5.1942e-08)
(-5.39335e-08 -1.9321e-07 6.4171e-08)
(0 0 0)
(-3.34797e-09 -4.79592e-09 1.45415e-09)
(-6.48914e-09 -9.41302e-09 2.88814e-09)
(-9.44062e-09 -1.3978e-08 4.37094e-09)
(-1.23205e-08 -1.87522e-08 6.0103e-09)
(-1.52417e-08 -2.39921e-08 7.91307e-09)
(-1.83187e-08 -2.99722e-08 1.0193e-08)
(-2.16741e-08 -3.70095e-08 1.29773e-08)
(-2.54426e-08 -4.54913e-08 1.64123e-08)
(-2.97733e-08 -5.59059e-08 2.06661e-08)
(-3.48249e-08 -6.88716e-08 2.59271e-08)
(-4.07495e-08 -8.51424e-08 3.23877e-08)
(-4.765e-08 -1.05539e-07 4.01955e-08)
(-5.54845e-08 -1.30647e-07 4.93181e-08)
(-6.38409e-08 -1.59842e-07 5.91918e-08)
(-7.12352e-08 -1.88066e-07 6.78349e-08)
(-8.44895e-08 -2.34055e-07 7.79254e-08)
(0 0 0)
(-4.32297e-09 -6.04369e-09 1.86531e-09)
(-8.37024e-09 -1.18491e-08 3.70103e-09)
(-1.21565e-08 -1.7563e-08 5.59208e-09)
(-1.58261e-08 -2.34978e-08 7.67237e-09)
(-1.95144e-08 -2.99502e-08 1.00729e-08)
(-2.33552e-08 -3.72256e-08 1.29309e-08)
(-2.74871e-08 -4.56603e-08 1.63968e-08)
(-3.20572e-08 -5.56443e-08 2.06396e-08)
(-3.72206e-08 -6.76432e-08 2.58476e-08)
(-4.31339e-08 -8.2211e-08 3.22218e-08)
(-4.99364e-08 -9.99745e-08 3.99505e-08)
(-5.77135e-08 -1.21537e-07 4.91437e-08)
(-6.6432e-08 -1.47171e-07 5.96775e-08)
(-7.57947e-08 -1.7591e-07 7.08439e-08)
(-8.45475e-08 -2.028e-07 8.05227e-08)
(-1.01365e-07 -2.44486e-07 9.27081e-08)
(0 0 0)
(-5.19116e-09 -7.02636e-09 2.22124e-09)
(-1.00391e-08 -1.37588e-08 4.40188e-09)
(-1.45506e-08 -2.03506e-08 6.6378e-09)
(-1.88881e-08 -2.71423e-08 9.08231e-09)
(-2.31997e-08 -3.44451e-08 1.18829e-08)
(-2.76276e-08 -4.25618e-08 1.51912e-08)
(-3.23132e-08 -5.18035e-08 1.91696e-08)
(-3.73993e-08 -6.25022e-08 2.3996e-08)
(-4.3027e-08 -7.50161e-08 2.9863e-08)
(-4.93255e-08 -8.97211e-08 3.69699e-08)
(-5.63886e-08 -1.0697e-07 4.54971e-08)
(-6.42315e-08 -1.26989e-07 5.55466e-08)
(-7.27173e-08 -1.49629e-07 6.70113e-08)
(-8.14181e-08 -1.73758e-07 7.92684e-08)
(-8.91223e-08 -1.95445e-07 9.02796e-08)
(-1.0138e-07 -2.27069e-07 1.0738e-07)
(0 0 0)
(-5.94046e-09 -7.71446e-09 2.51624e-09)
(-1.14729e-08 -1.50868e-08 4.97948e-09)
(-1.65914e-08 -2.22654e-08 7.49146e-09)
(-2.14677e-08 -2.95979e-08 1.02179e-08)
(-2.62544e-08 -3.7388e-08 1.33151e-08)
(-3.10927e-08 -4.59105e-08 1.69402e-08)
(-3.61165e-08 -5.54204e-08 2.1257e-08)
(-4.14529e-08 -6.61529e-08 2.64399e-08)
(-4.72176e-08 -7.83116e-08 3.26722e-08)
(-5.35031e-08 -9.20368e-08 4.0138e-08)
(-6.03547e-08 -1.07342e-07 4.90019e-08)
(-6.77259e-08 -1.24009e-07 5.93663e-08)
(-7.53911e-08 -1.41418e-07 7.11769e-08)
(-8.27483e-08 -1.58301e-07 8.39549e-08)
(-8.83746e-08 -1.72141e-07 9.57752e-08)
(-8.77664e-08 -1.88406e-07 1.16182e-07)
(0 0 0)
(-6.56558e-09 -8.09466e-09 2.74835e-09)
(-1.26625e-08 -1.58107e-08 5.43034e-09)
(-1.82683e-08 -2.3283e-08 8.14872e-09)
(-2.35565e-08 -3.08501e-08 1.10748e-08)
(-2.86771e-08 -3.8792e-08 1.43668e-08)
(-3.37633e-08 -4.7341e-08 1.81793e-08)
(-3.89347e-08 -5.66823e-08 2.26684e-08)
(-4.42972e-08 -6.69432e-08 2.79941e-08)
(-4.99379e-08 -7.81678e-08 3.43175e-08)
(-5.59167e-08 -9.02683e-08 4.17927e-08)
(-6.22524e-08 -1.02948e-07 5.05491e-08)
(-6.89099e-08 -1.15593e-07 6.06611e-08)
(-7.57981e-08 -1.27157e-07 7.2085e-08)
(-8.27664e-08 -1.36164e-07 8.44564e-08)
(-8.92274e-08 -1.41193e-07 9.61036e-08)
(-7.85385e-08 -1.37864e-07 1.14218e-07)
(0 0 0)
(-7.06677e-09 -8.16746e-09 2.91895e-09)
(-1.36101e-08 -1.59354e-08 5.75783e-09)
(-1.95883e-08 -2.3421e-08 8.61609e-09)
(-2.51705e-08 -3.09411e-08 1.16646e-08)
(-3.04988e-08 -3.87441e-08 1.50575e-08)
(-3.56939e-08 -4.70156e-08 1.89401e-08)
(-4.08578e-08 -5.58729e-08 2.34536e-08)
(-4.60733e-08 -6.53486e-08 2.87351e-08)
(-5.14e-08 -7.53576e-08 3.49132e-08)
(-5.68686e-08 -8.56449e-08 4.20968e-08)
(-6.24771e-08 -9.57083e-08 5.03544e-08)
(-6.81977e-08 -1.04699e-07 5.96751e-08)
(-7.40168e-08 -1.11327e-07 6.98887e-08)
(-8e-08 -1.1385e-07 8.04504e-08)
(-8.59476e-08 -1.10266e-07 8.9758e-08)
(-1.32246e-07 -7.54452e-08 1.07194e-07)
(0 0 0)
(0 0 0)
(0 0 0)
(0 0 0)
(0 0 0)
(0 0 0)
(0 0 0)
(0 0 0)
(0 0 0)
(0 0 0)
(0 0 0)
(0 0 0)
(0 0 0)
(0 0 0)
(0 0 0)
(0 0 0)
(0 0 0)
(0 0 0)
(-1.18769e-09 -1.75214e-09 4.75516e-10)
(-2.30651e-09 -3.44516e-09 9.4551e-10)
(-3.36656e-09 -5.13146e-09 1.43355e-09)
(-4.4143e-09 -6.9144e-09 1.97619e-09)
(-5.49575e-09 -8.89929e-09 2.61029e-09)
(-6.65987e-09 -1.12039e-08 3.37576e-09)
(-7.96197e-09 -1.39705e-08 4.31812e-09)
(-9.46714e-09 -1.73802e-08 5.49088e-09)
(-1.12536e-08 -2.16707e-08 6.9578e-09)
(-1.34143e-08 -2.71524e-08 8.79516e-09)
(-1.60549e-08 -3.42149e-08 1.10943e-08)
(-1.92792e-08 -4.32911e-08 1.39643e-08)
(-2.31476e-08 -5.46938e-08 1.75288e-08)
(-2.75673e-08 -6.80978e-08 2.18615e-08)
(-3.18713e-08 -8.09304e-08 2.64843e-08)
(-4.78599e-08 -1.06057e-07 4.36234e-08)
(0 0 0)
(-2.34019e-09 -3.41825e-09 9.3449e-10)
(-4.54227e-09 -6.71742e-09 1.85725e-09)
(-6.62415e-09 -9.99608e-09 2.81382e-09)
(-8.675e-09 -1.34508e-08 3.87502e-09)
(-1.07822e-08 -1.72792e-08 5.11173e-09)
(-1.30374e-08 -2.16985e-08 6.60011e-09)
(-1.55428e-08 -2.69668e-08 8.42608e-09)
(-1.84162e-08 -3.34071e-08 1.0689e-08)
(-2.1796e-08 -4.14352e-08 1.35041e-08)
(-2.58423e-08 -5.15842e-08 1.70018e-08)
(-3.07271e-08 -6.4505e-08 2.13204e-08)
(-3.6598e-08 -8.0884e-08 2.65812e-08)
(-4.34713e-08 -1.01124e-07 3.28163e-08)
(-5.09525e-08 -1.244e-07 3.97536e-08)
(-5.75382e-08 -1.46116e-07 4.61513e-08)
(-6.27452e-08 -1.84645e-07 5.63847e-08)
(0 0 0)
(-3.42713e-09 -4.92268e-09 1.36266e-09)
(-6.64638e-09 -9.66532e-09 2.70615e-09)
(-9.67918e-09 -1.43615e-08 4.09496e-09)
(-1.26507e-08 -1.9283e-08 5.62998e-09)
(-1.56816e-08 -2.46967e-08 7.41114e-09)
(-1.88958e-08 -3.08884e-08 9.54445e-09)
(-2.24274e-08 -3.81865e-08 1.21476e-08)
(-2.64268e-08 -4.69895e-08 1.53537e-08)
(-3.10637e-08 -5.77933e-08 1.93115e-08)
(-3.65242e-08 -7.12099e-08 2.41785e-08)
(-4.29941e-08 -8.79506e-08 3.00955e-08)
(-5.06083e-08 -1.08698e-07 3.71235e-08)
(-5.93235e-08 -1.33679e-07 4.5093e-08)
(-6.86037e-08 -1.61519e-07 5.32832e-08)
(-7.66561e-08 -1.86535e-07 5.9877e-08)
(-8.98439e-08 -2.23276e-07 6.65642e-08)
(0 0 0)
(-4.42219e-09 -6.20118e-09 1.74787e-09)
(-8.56677e-09 -1.21619e-08 3.46764e-09)
(-1.24532e-08 -1.80368e-08 5.23869e-09)
(-1.62342e-08 -2.415e-08 7.18642e-09)
(-2.00534e-08 -3.08103e-08 9.43339e-09)
(-2.40542e-08 -3.83345e-08 1.21075e-08)
(-2.83866e-08 -4.70698e-08 1.5348e-08)
(-3.32108e-08 -5.74157e-08 1.93086e-08)
(-3.86969e-08 -6.9841e-08 2.41554e-08)
(-4.50161e-08 -8.48873e-08 3.00536e-08)
(-5.23142e-08 -1.03128e-07 3.71307e-08)
(-6.06533e-08 -1.25018e-07 4.53901e-08)
(-6.98919e-08 -1.50461e-07 5.45264e-08)
(-7.94372e-08 -1.77749e-07 6.35843e-08)
(-8.76424e-08 -2.01314e-07 7.05246e-08)
(-1.01656e-07 -2.33751e-07 7.63228e-08)
(0 0 0)
(-5.30593e-09 -7.20633e-09 2.08126e-09)
(-1.02657e-08 -1.41153e-08 4.12401e-09)
(-1.4891e-08 -2.08883e-08 6.21786e-09)
(-1.93524e-08 -2.78782e-08 8.50639e-09)
(-2.38067e-08 -3.54078e-08 1.11277e-08)
(-2.84045e-08 -4.37903e-08 1.42231e-08)
(-3.32962e-08 -5.33451e-08 1.79432e-08)
(-3.86331e-08 -6.44088e-08 2.245e-08)
(-4.45624e-08 -7.73364e-08 2.79136e-08)
(-5.12111e-08 -9.24825e-08 3.44965e-08)
(-5.86488e-08 -1.1014e-07 4.23149e-08)
(-6.68111e-08 -1.30389e-07 5.13519e-08)
(-7.5356e-08 -1.52759e-07 6.12767e-08)
(-8.3422e-08 -1.75491e-07 7.11039e-08)
(-8.93773e-08 -1.94158e-07 7.87131e-08)
(-9.59873e-08 -2.18203e-07 8.56254e-08)
(0 0 0)
(-6.0662e-09 -7.90828e-09 2.3575e-09)
(-1.17202e-08 -1.54697e-08 4.6648e-09)
(-1.69606e-08 -2.28402e-08 7.01697e-09)
(-2.19671e-08 -3.03796e-08 9.56918e-09)
(-2.68997e-08 -3.84017e-08 1.24679e-08)
(-3.19068e-08 -4.71894e-08 1.58599e-08)
(-3.71278e-08 -5.70019e-08 1.98972e-08)
(-4.2693e-08 -6.80732e-08 2.47395e-08)
(-4.87156e-08 -8.05955e-08 3.05492e-08)
(-5.52714e-08 -9.46786e-08 3.74773e-08)
(-6.2358e-08 -1.10271e-07 4.56293e-08)
(-6.98123e-08 -1.27019e-07 5.49926e-08)
(-7.71445e-08 -1.44046e-07 6.52807e-08)
(-8.32354e-08 -1.5963e-07 7.55947e-08)
(-8.62214e-08 -1.70928e-07 8.37944e-08)
(-7.76548e-08 -1.82517e-07 9.16934e-08)
(0 0 0)
(-6.69793e-09 -8.2939e-09 2.57479e-09)
(-1.29218e-08 -1.62033e-08 5.0868e-09)
(-1.86528e-08 -2.38697e-08 7.63203e-09)
(-2.40718e-08 -3.16425e-08 1.03709e-08)
(-2.93351e-08 -3.98105e-08 1.34518e-08)
(-3.45807e-08 -4.86108e-08 1.70193e-08)
(-3.99311e-08 -5.82286e-08 2.12188e-08)
(-4.54906e-08 -6.87842e-08 2.61976e-08)
(-5.13374e-08 -8.03028e-08 3.21001e-08)
(-5.7506e-08 -9.26585e-08 3.90539e-08)
(-6.39585e-08 -1.05485e-07 4.71427e-08)
(-7.0537e-08 -1.18048e-07 5.63501e-08)
(-7.68909e-08 -1.29102e-07 6.64437e-08)
(-8.23656e-08 -1.36884e-07 7.67013e-08)
(-8.59088e-08 -1.39843e-07 8.52322e-08)
(-6.66906e-08 -1.35298e-07 9.27908e-08)
(0 0 0)
(-7.20192e-09 -8.36441e-09 2.73443e-09)
(-1.38739e-08 -1.63226e-08 5.3932e-09)
(-1.99768e-08 -2.39969e-08 8.0692e-09)
(-2.56863e-08 -3.17142e-08 1.09225e-08)
(-3.11492e-08 -3.97292e-08 1.40977e-08)
(-3.64895e-08 -4.82296e-08 1.7731e-08)
(-4.18095e-08 -5.73294e-08 2.19544e-08)
(-4.71873e-08 -6.70495e-08 2.68951e-08)
(-5.26699e-08 -7.72811e-08 3.26696e-08)
(-5.82607e-08 -8.77271e-08 3.93697e-08)
(-6.39029e-08 -9.78166e-08 4.70351e-08)
(-6.94627e-08 -1.06595e-07 5.56006e-08)
(-7.47177e-08 -1.12621e-07 6.47896e-08)
(-7.9338e-08 -1.13977e-07 7.38784e-08)
(-8.26031e-08 -1.08605e-07 8.12162e-08)
(-1.23092e-07 -7.49976e-08 9.5723e-08)
(0 0 0)
(0 0 0)
(0 0 0)
(0 0 0)
(0 0 0)
(0 0 0)
(0 0 0)
(0 0 0)
(0 0 0)
(0 0 0)
(0 0 0)
(0 0 0)
(0 0 0)
(0 0 0)
(0 0 0)
(0 0 0)
(0 0 0)
(0 0 0)
(-1.21262e-09 -1.79125e-09 4.26079e-10)
(-2.35621e-09 -3.5229e-09 8.47116e-10)
(-3.44239e-09 -5.24929e-09 1.28414e-09)
(-4.52003e-09 -7.07666e-09 1.76975e-09)
(-5.63799e-09 -9.113e-09 2.33668e-09)
(-6.84884e-09 -1.14783e-08 3.02001e-09)
(-8.21288e-09 -1.43164e-08 3.85912e-09)
(-9.80263e-09 -1.7808e-08 4.89905e-09)
(-1.17077e-08 -2.21852e-08 6.19114e-09)
(-1.40396e-08 -2.77427e-08 7.79263e-09)
(-1.69344e-08 -3.48318e-08 9.76491e-09)
(-2.05468e-08 -4.38048e-08 1.21704e-08)
(-2.50194e-08 -5.48315e-08 1.50644e-08)
(-3.03621e-08 -6.74108e-08 1.84481e-08)
(-3.58632e-08 -7.90442e-08 2.19184e-08)
(-5.68422e-08 -1.00049e-07 3.3744e-08)
(0 0 0)
(-2.3887e-09 -3.49415e-09 8.37344e-10)
(-4.63885e-09 -6.86816e-09 1.664e-09)
(-6.77116e-09 -1.02242e-08 2.52059e-09)
(-8.87932e-09 -1.37644e-08 3.4703e-09)
(-1.10558e-08 -1.7691e-08 4.57606e-09)
(-1.33987e-08 -2.22256e-08 5.90487e-09)
(-1.60187e-08 -2.76286e-08 7.53103e-09)
(-1.90459e-08 -3.42218e-08 9.53809e-09)
(-2.26366e-08 -4.2411e-08 1.20183e-08)
(-2.6978e-08 -5.27004e-08 1.50675e-08)
(-3.2283e-08 -6.5673e-08 1.87713e-08)
(-3.87598e-08 -8.18767e-08 2.3175e-08)
(-4.65025e-08 -1.01475e-07 2.82175e-08)
(-5.51739e-08 -1.23377e-07 3.35844e-08)
(-6.31147e-08 -1.43203e-07 3.8307e-08)
(-7.09814e-08 -1.79359e-07 4.53e-08)
(0 0 0)
(-3.49665e-09 -5.03098e-09 1.221e-09)
(-6.78449e-09 -9.88008e-09 2.42456e-09)
(-9.88864e-09 -1.46857e-08 3.66821e-09)
(-1.29403e-08 -1.9727e-08 5.04199e-09)
(-1.60666e-08 -2.52774e-08 6.63466e-09)
(-1.93993e-08 -3.16273e-08 8.5395e-09)
(-2.30824e-08 -3.91082e-08 1.08583e-08)
(-2.72792e-08 -4.81157e-08 1.37028e-08)
(-3.21769e-08 -5.91315e-08 1.71913e-08)
(-3.79844e-08 -7.27304e-08 2.14356e-08)
(-4.49158e-08 -8.9539e-08 2.65095e-08)
(-5.31346e-08 -1.10073e-07 3.23803e-08)
(-6.26095e-08 -1.3428e-07 3.87794e-08)
(-7.27581e-08 -1.605e-07 4.4991e-08)
(-8.16158e-08 -1.83353e-07 4.96377e-08)
(-9.64313e-08 -2.16838e-07 5.37919e-08)
(0 0 0)
(-4.50921e-09 -6.3358e-09 1.56613e-09)
(-8.73918e-09 -1.24284e-08 3.10674e-09)
(-1.27134e-08 -1.84377e-08 4.69266e-09)
(-1.65914e-08 -2.46967e-08 6.43583e-09)
(-2.05237e-08 -3.15207e-08 8.44516e-09)
(-2.46618e-08 -3.92318e-08 1.08333e-08)
(-2.91642e-08 -4.81788e-08 1.37208e-08)
(-3.42013e-08 -5.87562e-08 1.72365e-08)
(-3.99542e-08 -7.14155e-08 2.15116e-08)
(-4.66034e-08 -8.66559e-08 2.66597e-08)
(-5.42959e-08 -1.04963e-07 3.27311e-08)
(-6.30728e-08 -1.26623e-07 3.96206e-08)
(-7.27271e-08 -1.51274e-07 4.69008e-08)
(-8.25492e-08 -1.7695e-07 5.36016e-08)
(-9.08339e-08 -1.98405e-07 5.81697e-08)
(-1.05644e-07 -2.27819e-07 6.06892e-08)
(0 0 0)
(-5.40647e-09 -7.36023e-09 1.86479e-09)
(-1.04642e-08 -1.44192e-08 3.69468e-09)
(-1.51888e-08 -2.13439e-08 5.56963e-09)
(-1.97579e-08 -2.8496e-08 7.61784e-09)
(-2.43346e-08 -3.62048e-08 9.96211e-09)
(-2.90764e-08 -4.47877e-08 1.27271e-08)
(-3.41399e-08 -5.45638e-08 1.60433e-08)
(-3.96815e-08 -6.58621e-08 2.0047e-08)
(-4.58498e-08 -7.90169e-08 2.4872e-08)
(-5.27642e-08 -9.43389e-08 3.06274e-08)
(-6.04661e-08 -1.12037e-07 3.73482e-08)
(-6.8823e-08 -1.32047e-07 4.48966e-08)
(-7.73645e-08 -1.53683e-07 5.27873e-08)
(-8.50776e-08 -1.75017e-07 5.99553e-08)
(-9.04165e-08 -1.91958e-07 6.47383e-08)
(-9.72438e-08 -2.14156e-07 6.69062e-08)
(0 0 0)
(-6.17616e-09 -8.07411e-09 2.11221e-09)
(-1.19365e-08 -1.57964e-08 4.17901e-09)
(-1.7283e-08 -2.33279e-08 6.28524e-09)
(-2.24019e-08 -3.10369e-08 8.56949e-09)
(-2.7459e-08 -3.92429e-08 1.11622e-08)
(-3.26072e-08 -4.82311e-08 1.41929e-08)
(-3.79892e-08 -5.82583e-08 1.7794e-08)
(-4.37348e-08 -6.95478e-08 2.21001e-08)
(-4.99496e-08 -8.22681e-08 2.72394e-08)
(-5.66873e-08 -9.64852e-08 3.3313e-08)
(-6.38954e-08 -1.12073e-07 4.03492e-08)
(-7.13119e-08 -1.28563e-07 4.82159e-08)
(-7.82853e-08 -1.44939e-07 5.64604e-08)
(-8.35398e-08 -1.59426e-07 6.40629e-08)
(-8.54194e-08 -1.69561e-07 6.92947e-08)
(-7.67675e-08 -1.81445e-07 7.16683e-08)
(0 0 0)
(-6.81348e-09 -8.4645e-09 2.3068e-09)
(-1.31482e-08 -1.65385e-08 4.55691e-09)
(-1.8988e-08 -2.4368e-08 6.83597e-09)
(-2.45195e-08 -3.23099e-08 9.2874e-09)
(-2.99033e-08 -4.06575e-08 1.20434e-08)
(-3.52805e-08 -4.96484e-08 1.5232e-08)
(-4.07734e-08 -5.94629e-08 1.89802e-08)
(-4.64815e-08 -7.02079e-08 2.3413e-08)
(-5.24688e-08 -8.18829e-08 2.86453e-08)
(-5.87393e-08 -9.43192e-08 3.47631e-08)
(-6.51951e-08 -1.07085e-07 4.17862e-08)
(-7.15721e-08 -1.1936e-07 4.95998e-08)
(-7.73596e-08 -1.29823e-07 5.78331e-08)
(-8.17732e-08 -1.36761e-07 6.56632e-08)
(-8.40479e-08 -1.39047e-07 7.15673e-08)
(-6.5226e-08 -1.37079e-07 7.5082e-08)
(0 0 0)
(-7.31972e-09 -8.53316e-09 2.44973e-09)
(-1.41037e-08 -1.66534e-08 4.83123e-09)
(-2.03147e-08 -2.44866e-08 7.22738e-09)
(-2.61331e-08 -3.23662e-08 9.78134e-09)
(-3.17091e-08 -4.055e-08 1.2622e-08)
(-3.71675e-08 -4.92247e-08 1.58705e-08)
(-4.26084e-08 -5.84973e-08 1.96426e-08)
(-4.81022e-08 -6.83735e-08 2.4047e-08)
(-5.36785e-08 -7.87182e-08 2.91775e-08)
(-5.93078e-08 -8.91939e-08 3.50953e-08)
(-6.4875e-08 -9.91734e-08 4.17964e-08)
(-7.015e-08 -1.07637e-07 4.91535e-08)
(-7.4775e-08 -1.131e-07 5.6816e-08)
(-7.83108e-08 -1.13723e-07 6.40496e-08)
(-8.02044e-08 -1.07784e-07 6.95472e-08)
(-1.2278e-07 -7.72272e-08 8.14597e-08)
(0 0 0)
(0 0 0)
(0 0 0)
(0 0 0)
(0 0 0)
(0 0 0)
(0 0 0)
(0 0 0)
(0 0 0)
(0 0 0)
(0 0 0)
(0 0 0)
(0 0 0)
(0 0 0)
(0 0 0)
(0 0 0)
(0 0 0)
(0 0 0)
(-1.23365e-09 -1.82326e-09 3.61039e-10)
(-2.39812e-09 -3.58627e-09 7.17715e-10)
(-3.5063e-09 -5.34458e-09 1.08774e-09)
(-4.60906e-09 -7.20634e-09 1.49855e-09)
(-5.75759e-09 -9.28085e-09 1.97749e-09)
(-7.00749e-09 -1.16886e-08 2.55348e-09)
(-8.42333e-09 -1.45724e-08 3.2583e-09)
(-1.0084e-08 -1.8109e-08 4.12693e-09)
(-1.20892e-08 -2.25212e-08 5.19693e-09)
(-1.45667e-08 -2.80839e-08 6.50604e-09)
(-1.76794e-08 -3.51115e-08 8.08787e-09)
(-2.16259e-08 -4.38948e-08 9.96597e-09)
(-2.66142e-08 -5.45193e-08 1.2146e-08)
(-3.27245e-08 -6.64217e-08 1.45867e-08)
(-3.91786e-08 -7.72168e-08 1.69766e-08)
(-6.39194e-08 -9.49465e-08 2.46186e-08)
(0 0 0)
(-2.42958e-09 -3.55628e-09 7.09532e-10)
(-4.72022e-09 -6.99104e-09 1.40984e-09)
(-6.89494e-09 -1.04088e-08 2.13512e-09)
(-9.05114e-09 -1.40151e-08 2.93858e-09)
(-1.12855e-08 -1.80148e-08 3.87281e-09)
(-1.37015e-08 -2.26302e-08 4.99306e-09)
(-1.64169e-08 -2.81196e-08 6.35927e-09)
(-1.95722e-08 -3.47977e-08 8.03628e-09)
(-2.33396e-08 -4.30531e-08 1.00911e-08)
(-2.79303e-08 -5.33554e-08 1.2585e-08)
(-3.3595e-08 -6.62246e-08 1.55572e-08)
(-4.05973e-08 -8.21088e-08 1.89961e-08)
(-4.91036e-08 -1.01051e-07 2.27917e-08)
(-5.88266e-08 -1.21921e-07 2.66503e-08)
(-6.79575e-08 -1.4064e-07 2.98788e-08)
(-7.84833e-08 -1.76128e-07 3.41911e-08)
(0 0 0)
(-3.55519e-09 -5.11965e-09 1.03463e-09)
(-6.90074e-09 -1.00552e-08 2.05425e-09)
(-1.00648e-08 -1.49482e-08 3.1073e-09)
(-1.31834e-08 -2.00826e-08 4.26961e-09)
(-1.63891e-08 -2.57348e-08 5.61538e-09)
(-1.98199e-08 -3.21962e-08 7.22162e-09)
(-2.3628e-08 -3.97951e-08 9.17045e-09)
(-2.79877e-08 -4.89172e-08 1.15485e-08)
(-3.31011e-08 -6.00222e-08 1.44407e-08)
(-3.91986e-08 -7.36418e-08 1.79151e-08)
(-4.65229e-08 -9.03285e-08 2.19898e-08)
(-5.5275e-08 -1.10487e-07 2.65742e-08)
(-6.54611e-08 -1.3395e-07 3.13773e-08)
(-7.6505e-08 -1.59065e-07 3.57994e-08)
(-8.62997e-08 -1.80859e-07 3.89013e-08)
(-1.0324e-07 -2.1388e-07 4.13961e-08)
(0 0 0)
(-4.58241e-09 -6.44608e-09 1.32708e-09)
(-8.88411e-09 -1.26458e-08 2.63224e-09)
(-1.29319e-08 -1.87628e-08 3.97514e-09)
(-1.68907e-08 -2.51351e-08 5.45009e-09)
(-2.09168e-08 -3.20818e-08 7.14819e-09)
(-2.51675e-08 -3.9925e-08 9.16255e-09)
(-2.98086e-08 -4.90097e-08 1.15905e-08)
(-3.50186e-08 -5.97183e-08 1.45319e-08)
(-4.0988e-08 -7.24775e-08 1.80803e-08)
(-4.79071e-08 -8.77416e-08 2.23004e-08)
(-5.59322e-08 -1.05922e-07 2.71832e-08)
(-6.51097e-08 -1.27206e-07 3.25656e-08)
(-7.52328e-08 -1.5114e-07 3.80129e-08)
(-8.55892e-08 -1.75808e-07 4.27176e-08)
(-9.44389e-08 -1.96365e-07 4.56445e-08)
(-1.10976e-07 -2.25669e-07 4.68774e-08)
(0 0 0)
(-5.49092e-09 -7.48641e-09 1.58014e-09)
(-1.06308e-08 -1.46676e-08 3.13036e-09)
(-1.54385e-08 -2.17138e-08 4.71806e-09)
(-2.00969e-08 -2.89924e-08 6.45125e-09)
(-2.47744e-08 -3.6836e-08 8.43282e-09)
(-2.96334e-08 -4.55614e-08 1.07659e-08)
(-3.48348e-08 -5.54824e-08 1.35562e-08)
(-4.05387e-08 -6.69146e-08 1.69093e-08)
(-4.68947e-08 -8.01667e-08 2.09203e-08)
(-5.40181e-08 -9.55059e-08 2.56487e-08)
(-6.19371e-08 -1.13077e-07 3.10692e-08)
(-7.04947e-08 -1.32737e-07 3.69846e-08)
(-7.91953e-08 -1.5375e-07 4.28993e-08)
(-8.70436e-08 -1.74282e-07 4.79132e-08)
(-9.25939e-08 -1.90612e-07 5.09116e-08)
(-1.00963e-07 -2.13203e-07 5.16718e-08)
(0 0 0)
(-6.2684e-09 -8.21017e-09 1.78977e-09)
(-1.21178e-08 -1.60636e-08 3.5407e-09)
(-1.75528e-08 -2.37243e-08 5.3243e-09)
(-2.27647e-08 -3.15661e-08 7.25744e-09)
(-2.79234e-08 -3.99108e-08 9.44951e-09)
(-3.3185e-08 -4.90425e-08 1.20079e-08)
(-3.86936e-08 -5.92111e-08 1.50403e-08)
(-4.45777e-08 -7.06254e-08 1.86513e-08)
(-5.09354e-08 -8.34284e-08 2.29325e-08)
(-5.78042e-08 -9.76463e-08 2.79382e-08)
(-6.51008e-08 -1.13099e-07 3.36402e-08)
(-7.25193e-08 -1.29267e-07 3.98493e-08)
(-7.93722e-08 -1.45124e-07 4.60981e-08)
(-8.44338e-08 -1.59036e-07 5.15205e-08)
(-8.62665e-08 -1.68872e-07 5.49381e-08)
(-7.91149e-08 -1.81822e-07 5.59497e-08)
(0 0 0)
(-6.91028e-09 -8.60459e-09 1.95462e-09)
(-1.33376e-08 -1.6813e-08 3.86084e-09)
(-1.92679e-08 -2.47736e-08 5.79089e-09)
(-2.4892e-08 -3.28483e-08 7.86575e-09)
(-3.03736e-08 -4.13319e-08 1.01965e-08)
(-3.5855e-08 -5.04598e-08 1.28895e-08)
(-4.14572e-08 -6.04045e-08 1.60484e-08)
(-4.7274e-08 -7.12575e-08 1.97713e-08)
(-5.33562e-08 -8.29933e-08 2.41407e-08)
(-5.96835e-08 -9.54076e-08 2.9203e-08)
(-6.61183e-08 -1.08026e-07 3.49311e-08)
(-7.23444e-08 -1.19993e-07 4.11641e-08)
(-7.7817e-08 -1.30008e-07 4.75227e-08)
(-8.18291e-08 -1.36515e-07 5.33216e-08)
(-8.3913e-08 -1.38685e-07 5.75362e-08)
(-6.6653e-08 -1.37997e-07 6.04337e-08)
(0 0 0)
(-7.41827e-09 -8.67186e-09 2.07571e-09)
(-1.42958e-08 -1.69245e-08 4.09325e-09)
(-2.05965e-08 -2.48858e-08 6.12254e-09)
(-2.65042e-08 -3.28931e-08 8.28444e-09)
(-3.2171e-08 -4.12052e-08 1.06874e-08)
(-3.77215e-08 -5.00057e-08 1.34323e-08)
(-4.32524e-08 -5.93928e-08 1.66143e-08)
(-4.88255e-08 -6.93571e-08 2.03192e-08)
(-5.44544e-08 -7.97398e-08 2.46149e-08)
(-6.00822e-08 -9.01712e-08 2.95331e-08)
(-6.55526e-08 -9.99891e-08 3.5038e-08)
(-7.05849e-08 -1.08151e-07 4.0977e-08)
(-7.47893e-08 -1.13198e-07 4.70142e-08)
(-7.77933e-08 -1.13427e-07 5.25565e-08)
(-7.92942e-08 -1.07349e-07 5.67114e-08)
(-1.23265e-07 -7.72558e-08 6.73526e-08)
(0 0 0)
(0 0 0)
(0 0 0)
(0 0 0)
(0 0 0)
(0 0 0)
(0 0 0)
(0 0 0)
(0 0 0)
(0 0 0)
(0 0 0)
(0 0 0)
(0 0 0)
(0 0 0)
(0 0 0)
(0 0 0)
(0 0 0)
(0 0 0)
(-1.25038e-09 -1.84804e-09 2.82857e-10)
(-2.43146e-09 -3.63511e-09 5.62224e-10)
(-3.5571e-09 -5.41751e-09 8.51882e-10)
(-4.67975e-09 -7.30445e-09 1.17317e-09)
(-5.85244e-09 -9.40569e-09 1.54716e-09)
(-7.13318e-09 -1.18413e-08 1.99587e-09)
(-8.58997e-09 -1.47519e-08 2.54285e-09)
(-1.0307e-08 -1.83095e-08 3.21308e-09)
(-1.23923e-08 -2.27275e-08 4.0315e-09)
(-1.49873e-08 -2.82645e-08 5.02002e-09)
(-1.82768e-08 -3.52087e-08 6.19261e-09)
(-2.24937e-08 -4.38142e-08 7.54958e-09)
(-2.78921e-08 -5.41255e-08 9.07229e-09)
(-3.45903e-08 -6.55572e-08 1.07089e-08)
(-4.17344e-08 -7.57892e-08 1.2244e-08)
(-6.87742e-08 -9.0848e-08 1.6994e-08)
(0 0 0)
(-2.46208e-09 -3.60438e-09 5.55891e-10)
(-4.7849e-09 -7.08579e-09 1.10441e-09)
(-6.99325e-09 -1.05501e-08 1.67219e-09)
(-9.18743e-09 -1.42049e-08 2.3006e-09)
(-1.14674e-08 -1.82559e-08 3.0302e-09)
(-1.39409e-08 -2.29244e-08 3.90302e-09)
(-1.67314e-08 -2.84648e-08 4.96357e-09)
(-1.99882e-08 -3.5183e-08 6.25803e-09)
(-2.38966e-08 -4.34511e-08 7.8306e-09)
(-2.86886e-08 -5.37103e-08 9.71521e-09)
(-3.46472e-08 -6.64381e-08 1.19209e-08)
(-4.20826e-08 -8.20289e-08 1.44093e-08)
(-5.12171e-08 -1.00485e-07 1.70652e-08)
(-6.17873e-08 -1.20709e-07 1.96558e-08)
(-7.18362e-08 -1.38815e-07 2.17254e-08)
(-8.40574e-08 -1.73998e-07 2.42489e-08)
(0 0 0)
(-3.60169e-09 -5.18831e-09 8.10604e-10)
(-6.99305e-09 -1.01903e-08 1.60924e-09)
(-1.02045e-08 -1.51494e-08 2.43365e-09)
(-1.3376e-08 -2.03521e-08 3.34279e-09)
(-1.66441e-08 -2.6076e-08 4.39395e-09)
(-2.01518e-08 -3.26111e-08 5.64575e-09)
(-2.40578e-08 -4.02801e-08 7.15919e-09)
(-2.85455e-08 -4.94574e-08 8.99587e-09)
(-3.38302e-08 -6.05818e-08 1.12113e-08)
(-4.01617e-08 -7.4151e-08 1.38401e-08)
(-4.78114e-08 -9.06704e-08 1.68687e-08)
(-5.70188e-08 -1.10494e-07 2.01921e-08)
(-6.78308e-08 -1.33442e-07 2.35589e-08)
(-7.96741e-08 -1.57961e-07 2.65287e-08)
(-9.02864e-08 -1.79345e-07 2.85099e-08)
(-1.08641e-07 -2.12636e-07 2.99925e-08)
(0 0 0)
(-4.64051e-09 -6.53154e-09 1.03973e-09)
(-8.99908e-09 -1.28137e-08 2.06205e-09)
(-1.3105e-08 -1.90121e-08 3.11343e-09)
(-1.71274e-08 -2.5468e-08 4.26723e-09)
(-2.12268e-08 -3.25014e-08 5.59386e-09)
(-2.55652e-08 -4.04325e-08 7.16424e-09)
(-3.0314e-08 -4.95998e-08 9.05081e-09)
(-3.56584e-08 -6.03727e-08 1.13246e-08)
(-4.1798e-08 -7.31553e-08 1.4046e-08)
(-4.89348e-08 -8.83677e-08 1.72445e-08)
(-5.72412e-08 -1.06379e-07 2.08819e-08)
(-6.67856e-08 -1.27338e-07 2.47943e-08)
(-7.73865e-08 -1.50808e-07 2.86221e-08)
(-8.83404e-08 -1.7501e-07 3.17838e-08)
(-9.78137e-08 -1.95354e-07 3.36453e-08)
(-1.15499e-07 -2.25412e-07 3.43883e-08)
(0 0 0)
(-5.55789e-09 -7.58423e-09 1.238e-09)