/*--------------------------------*- C++ -*----------------------------------*\
| =========                 |                                                 |
| \\      /  F ield         | foam-extend: Open Source CFD                    |
|  \\    /   O peration     | Version:     3.1                                |
|   \\  /    A nd           | Web:         http://www.extend-project.de       |
|    \\/     M anipulation  |                                                 |
\*---------------------------------------------------------------------------*/
FoamFile
{
    version     2.0;
    format      ascii;
    class       surfaceVectorField;
    location    "0.5";
    object      Sf;
}
// * * * * * * * * * * * * * * * * * * * * * * * * * * * * * * * * * * * * * //

dimensions      [0 2 0 0 0 0 0];

internalField   nonuniform List<vector> 
41600
(
(0.000625359 -3.379e-06 -2.77649e-08)
(-3.5999e-07 0.000706503 -1.07756e-08)
(-4.84555e-08 -5.45124e-08 0.000705036)
(4.97839e-08 5.60069e-08 -0.000704998)
(0.000625704 -6.51062e-06 -5.37942e-08)
(-3.4706e-07 0.000706252 -3.23314e-08)
(-4.7773e-08 -1.62753e-07 0.00070532)
(4.91073e-08 1.67243e-07 -0.000705262)
(0.000626047 -9.37039e-06 -7.85272e-08)
(-3.43677e-07 0.000705977 -5.45844e-08)
(-4.93381e-08 -2.71941e-07 0.000705583)
(5.07518e-08 2.7952e-07 -0.000705504)
(0.000626405 -1.2033e-05 -1.03288e-07)
(-3.59911e-07 0.000705777 -7.92616e-08)
(-5.44744e-08 -3.88595e-07 0.000705892)
(5.60693e-08 3.99555e-07 -0.000705788)
(0.000626799 -1.45606e-05 -1.29172e-07)
(-3.95598e-07 0.000705638 -1.08524e-07)
(-6.32302e-08 -5.20774e-07 0.000706265)
(6.5106e-08 5.35632e-07 -0.00070613)
(0.000627249 -1.70036e-05 -1.56987e-07)
(-4.52313e-07 0.000705548 -1.44844e-07)
(-7.59802e-08 -6.77002e-07 0.000706718)
(7.8242e-08 6.96504e-07 -0.000706545)
(0.000627779 -1.93996e-05 -1.87157e-07)
(-5.33374e-07 0.000705496 -1.91328e-07)
(-9.34725e-08 -8.67049e-07 0.000707272)
(9.62391e-08 8.9219e-07 -0.00070705)
(0.00062842 -2.17707e-05 -2.19584e-07)
(-6.44304e-07 0.000705464 -2.52061e-07)
(-1.16964e-07 -1.1029e-06 0.000707952)
(1.20377e-07 1.13497e-06 -0.000707667)
(0.000629209 -2.4117e-05 -2.5346e-07)
(-7.92906e-07 0.000705431 -3.32727e-07)
(-1.48513e-07 -1.40023e-06 0.000708787)
(1.52753e-07 1.44087e-06 -0.00070842)
(0.000630194 -2.64077e-05 -2.87172e-07)
(-9.89964e-07 0.000705364 -4.41671e-07)
(-1.91578e-07 -1.78076e-06 0.000709812)
(1.96893e-07 1.8321e-06 -0.000709337)
(0.000631437 -2.85688e-05 -3.18736e-07)
(-1.24998e-06 0.000705221 -5.91766e-07)
(-2.52206e-07 -2.27671e-06 0.000711076)
(2.58942e-07 2.34152e-06 -0.000710453)
(0.000633019 -3.04741e-05 -3.47912e-07)
(-1.59125e-06 0.000704948 -8.04277e-07)
(-3.41163e-07 -2.93868e-06 0.000712643)
(3.49809e-07 3.02065e-06 -0.00071181)
(0.000635039 -3.19518e-05 -3.82928e-07)
(-2.03109e-06 0.000704499 -1.11646e-06)
(-4.76327e-07 -3.84869e-06 0.000714614)
(4.8771e-07 3.95286e-06 -0.000713463)
(0.000637566 -3.28377e-05 -4.57143e-07)
(-2.54468e-06 0.000703875 -1.59173e-06)
(-6.74927e-07 -5.12751e-06 0.000717135)
(6.92935e-07 5.26366e-06 -0.000715469)
(0.000640279 -3.30552e-05 -6.64637e-07)
(-2.77905e-06 0.000703118 -2.29384e-06)
(-8.56315e-07 -6.82963e-06 0.000720208)
(9.21675e-07 7.05376e-06 -0.000717707)
(-1.21523e-05 0.000700535 1.21017e-06)
(-2.99989e-06 -1.1025e-05 0.000727808)
(6.62474e-06 1.51834e-05 -0.000728099)
(0.000625339 -3.32184e-06 -8.26007e-08)
(-7.03125e-07 0.000709823 -2.10681e-08)
(-1.43805e-07 -5.27527e-08 0.000708404)
(1.47751e-07 5.42018e-08 -0.000708311)
(0.000625665 -6.39932e-06 -1.60027e-07)
(-6.77322e-07 0.000709325 -6.31724e-08)
(-1.41694e-07 -1.57375e-07 0.000708421)
(1.45655e-07 1.61725e-07 -0.000708313)
(0.000625987 -9.20784e-06 -2.3358e-07)
(-6.69589e-07 0.000708778 -1.06548e-07)
(-1.46165e-07 -2.6254e-07 0.000708392)
(1.50358e-07 2.69877e-07 -0.000708267)
(0.000626322 -1.18205e-05 -3.07208e-07)
(-6.99441e-07 0.000708379 -1.54512e-07)
(-1.61114e-07 -3.74282e-07 0.000708482)
(1.65839e-07 3.84873e-07 -0.000708334)
(0.000626687 -1.42986e-05 -3.84194e-07)
(-7.6627e-07 0.000708101 -2.11171e-07)
(-1.8662e-07 -5.00011e-07 0.000708694)
(1.92169e-07 5.14337e-07 -0.000708514)
(0.000627101 -1.66924e-05 -4.66983e-07)
(-8.72452e-07 0.000707923 -2.81234e-07)
(-2.23673e-07 -6.47366e-07 0.000709029)
(2.30354e-07 6.6612e-07 -0.00070881)
(0.000627583 -1.90414e-05 -5.56928e-07)
(-1.02376e-06 0.000707821 -3.70506e-07)
(-2.74269e-07 -8.24776e-07 0.000709494)
(2.82424e-07 8.48875e-07 -0.000709225)
(0.000628158 -2.13718e-05 -6.53857e-07)
(-1.22938e-06 0.000707764 -4.865e-07)
(-3.41701e-07 -1.04203e-06 0.000710091)
(3.51736e-07 1.07265e-06 -0.00070976)
(0.000628854 -2.36918e-05 -7.55468e-07)
(-1.50194e-06 0.000707712 -6.39504e-07)
(-4.31191e-07 -1.31089e-06 0.000710821)
(4.43623e-07 1.34951e-06 -0.000710413)
(0.000629707 -2.59831e-05 -8.56835e-07)
(-1.85774e-06 0.000707607 -8.44159e-07)
(-5.51112e-07 -1.64576e-06 0.000711675)
(5.66643e-07 1.69427e-06 -0.000711172)
(0.000630752 -2.81883e-05 -9.50924e-07)
(-2.31491e-06 0.000707366 -1.12219e-06)
(-7.15179e-07 -2.064e-06 0.000712635)
(7.34813e-07 2.12487e-06 -0.000712011)
(0.000632023 -3.0195e-05 -1.03279e-06)
(-2.88755e-06 0.000706878 -1.50745e-06)
(-9.45637e-07 -2.58485e-06 0.000713666)
(9.70844e-07 2.66142e-06 -0.000712881)
(0.000633522 -3.18224e-05 -1.11391e-06)
(-3.56276e-06 0.000706029 -2.05498e-06)
(-1.27369e-06 -3.2223e-06 0.000714726)
(1.30695e-06 3.31926e-06 -0.000713706)
(0.000635136 -3.28296e-05 -1.25865e-06)
(-4.20983e-06 0.000704758 -2.85144e-06)
(-1.70958e-06 -3.95919e-06 0.000715778)
(1.76059e-06 4.08355e-06 -0.000714374)
(0.000636368 -3.30091e-05 -1.67585e-06)
(-4.16886e-06 0.000703134 -3.99125e-06)
(-2.0189e-06 -4.68412e-06 0.000716763)
(2.17637e-06 4.84797e-06 -0.000714648)
(-1.0161e-05 0.000697231 -1.62168e-06)
(-5.25131e-06 -4.04299e-06 0.000716348)
(1.08523e-05 2.12415e-06 -0.000711607)
(0.000625304 -3.21012e-06 -1.35384e-07)
(-1.01394e-06 0.000713032 -3.03703e-08)
(-2.34612e-07 -4.93837e-08 0.000711678)
(2.41056e-07 5.07457e-08 -0.000711533)
(0.000625596 -6.18175e-06 -2.62243e-07)
(-9.75434e-07 0.000712293 -9.09945e-08)
(-2.30894e-07 -1.47118e-07 0.000711414)
(2.37359e-07 1.51203e-07 -0.00071126)
(0.000625881 -8.88979e-06 -3.82694e-07)
(-9.61643e-07 0.00071148 -1.5326e-07)
(-2.37631e-07 -2.4474e-07 0.000711079)
(2.44464e-07 2.51615e-07 -0.000710912)
(0.000626175 -1.14042e-05 -5.03228e-07)
(-1.00045e-06 0.000710883 -2.21789e-07)
(-2.61091e-07 -3.47427e-07 0.000710932)
(2.68775e-07 3.57321e-07 -0.000710744)
(0.000626489 -1.37841e-05 -6.29293e-07)
(-1.09012e-06 0.000710468 -3.02306e-07)
(-3.01207e-07 -4.6147e-07 0.000710959)
(3.10206e-07 4.74799e-07 -0.000710742)
(0.000626839 -1.60797e-05 -7.65048e-07)
(-1.23288e-06 0.000710202 -4.01276e-07)
(-3.59241e-07 -5.93025e-07 0.000711149)
(3.70039e-07 6.10381e-07 -0.000710893)
(0.000627237 -1.83327e-05 -9.12985e-07)
(-1.43528e-06 0.000710052 -5.26499e-07)
(-4.37807e-07 -7.48358e-07 0.00071149)
(4.50934e-07 7.70516e-07 -0.000711186)
(0.000627699 -2.05766e-05 -1.07325e-06)
(-1.70743e-06 0.00070998 -6.87883e-07)
(-5.41078e-07 -9.33884e-07 0.000711964)
(5.57148e-07 9.61807e-07 -0.000711602)
(0.000628241 -2.28335e-05 -1.24255e-06)
(-2.06289e-06 0.000709934 -8.98637e-07)
(-6.75226e-07 -1.15578e-06 0.000712543)
(6.95006e-07 1.19064e-06 -0.000712114)
(0.000628875 -2.51091e-05 -1.41289e-06)
(-2.517e-06 0.000709839 -1.17697e-06)
(-8.49147e-07 -1.41873e-06 0.000713176)
(8.73666e-07 1.46193e-06 -0.000712673)
(0.000629611 -2.73816e-05 -1.57078e-06)
(-3.08142e-06 0.000709585 -1.54873e-06)
(-1.07526e-06 -1.7226e-06 0.00071378)
(1.10601e-06 1.7759e-06 -0.000713196)
(0.000630435 -2.95839e-05 -1.69961e-06)
(-3.75061e-06 0.000709015 -2.05209e-06)
(-1.36895e-06 -2.05493e-06 0.00071422)
(1.40816e-06 2.12054e-06 -0.000713547)
(0.000631285 -3.15772e-05 -1.79195e-06)
(-4.46402e-06 0.000707942 -2.7459e-06)
(-1.73948e-06 -2.37514e-06 0.000714314)
(1.79082e-06 2.45585e-06 -0.000713531)
(0.000631998 -3.31324e-05 -1.88622e-06)
(-4.99755e-06 0.000706215 -3.72125e-06)
(-2.14107e-06 -2.59102e-06 0.000713879)
(2.21582e-06 2.68891e-06 -0.000712915)
(0.000632214 -3.39963e-05 -2.18474e-06)
(-4.56841e-06 0.000703898 -5.10536e-06)
(-2.25231e-06 -2.57739e-06 0.000712933)
(2.43523e-06 2.67693e-06 -0.00071152)
(-1.12641e-05 0.000698661 -2.33061e-06)
(-3.95799e-06 -1.78877e-06 0.000710463)
(7.66531e-06 1.44948e-06 -0.000708098)
(0.000625256 -3.04592e-06 -1.84817e-07)
(-1.27915e-06 0.000716076 -3.82697e-08)
(-3.18248e-07 -4.46425e-08 0.000714804)
(3.27005e-07 4.58815e-08 -0.000714612)
(0.000625501 -5.8622e-06 -3.57899e-07)
(-1.2284e-06 0.000715105 -1.14546e-07)
(-3.1267e-07 -1.32728e-07 0.000714252)
(3.21445e-07 1.36438e-07 -0.000714055)
(0.000625736 -8.42273e-06 -5.22084e-07)
(-1.20664e-06 0.000714034 -1.92555e-07)
(-3.20725e-07 -2.19904e-07 0.000713602)
(3.29978e-07 2.26129e-07 -0.000713399)
(0.000625974 -1.07924e-05 -6.86261e-07)
(-1.24851e-06 0.000713244 -2.7791e-07)
(-3.5076e-07 -3.10246e-07 0.000713204)
(3.61131e-07 3.19163e-07 -0.000712984)
(0.000626222 -1.30266e-05 -8.5798e-07)
(-1.35047e-06 0.00071269 -3.77532e-07)
(-4.02343e-07 -4.08637e-07 0.000713029)
(4.14441e-07 4.20576e-07 -0.000712782)
(0.000626489 -1.51738e-05 -1.04319e-06)
(-1.51373e-06 0.000712333 -4.99026e-07)
(-4.76586e-07 -5.19466e-07 0.000713051)
(4.91031e-07 5.3489e-07 -0.000712768)
(0.000626779 -1.72774e-05 -1.24583e-06)
(-1.74347e-06 0.000712136 -6.51341e-07)
(-5.75986e-07 -6.46595e-07 0.000713242)
(5.9344e-07 6.66087e-07 -0.000712915)
(0.000627099 -1.93779e-05 -1.46697e-06)
(-2.04843e-06 0.000712056 -8.45613e-07)
(-7.04337e-07 -7.92988e-07 0.00071357)
(7.2554e-07 8.17237e-07 -0.000713191)
(0.00062745 -2.15132e-05 -1.70343e-06)
(-2.43976e-06 0.00071204 -1.09628e-06)
(-8.666e-07 -9.59736e-07 0.000713985)
(8.92431e-07 9.89496e-07 -0.000713551)
(0.00062783 -2.37185e-05 -1.94551e-06)
(-2.9279e-06 0.000712009 -1.42277e-06)
(-1.06844e-06 -1.14392e-06 0.000714406)
(1.10004e-06 1.17997e-06 -0.000713918)
(0.000628224 -2.60215e-05 -2.17438e-06)
(-3.51526e-06 0.000711845 -1.85194e-06)
(-1.31465e-06 -1.33445e-06 0.000714708)
(1.35363e-06 1.37748e-06 -0.000714176)
(0.000628604 -2.84282e-05 -2.36028e-06)
(-4.17852e-06 0.000711371 -2.4226e-06)
(-1.604e-06 -1.50457e-06 0.000714697)
(1.65277e-06 1.55513e-06 -0.000714141)
(0.000628905 -3.08877e-05 -2.46755e-06)
(-4.82829e-06 0.000710343 -3.19443e-06)
(-1.91373e-06 -1.6018e-06 0.000714108)
(1.9761e-06 1.65992e-06 -0.000713552)
(0.000629031 -3.32293e-05 -2.4817e-06)
(-5.20913e-06 0.000708493 -4.26488e-06)
(-2.15261e-06 -1.54654e-06 0.00071268)
(2.23827e-06 1.60998e-06 -0.000712122)
(0.000628843 -3.50959e-05 -2.51921e-06)
(-4.55135e-06 0.000705715 -5.80305e-06)
(-2.0174e-06 -1.29573e-06 0.000710469)
(2.18907e-06 1.34523e-06 -0.000709734)
(-1.10769e-05 0.000701501 -2.97801e-06)
(-2.89232e-06 -4.8002e-07 0.000707285)
(5.88489e-06 -2.02711e-07 -0.000705929)
(0.000625199 -2.83444e-06 -2.29734e-07)
(-1.48856e-06 0.00071891 -4.44461e-08)
(-3.92602e-07 -3.88699e-08 0.000717734)
(4.0343e-07 3.99573e-08 -0.000717498)
(0.000625386 -5.45087e-06 -4.447e-07)
(-1.42652e-06 0.000717719 -1.32872e-07)
(-3.84892e-07 -1.15258e-07 0.000716892)
(3.95723e-07 1.18508e-07 -0.000716659)
(0.000625563 -7.82162e-06 -6.48314e-07)
(-1.39519e-06 0.000716399 -2.22875e-07)
(-3.9315e-07 -1.89921e-07 0.000715926)
(4.04538e-07 1.95349e-07 -0.000715692)
(0.000625736 -1.00044e-05 -8.51629e-07)
(-1.43404e-06 0.000715419 -3.20711e-07)
(-4.27468e-07 -2.65713e-07 0.000715269)
(4.40178e-07 2.7344e-07 -0.000715022)
(0.000625908 -1.20486e-05 -1.06415e-06)
(-1.53745e-06 0.000714724 -4.33994e-07)
(-4.86852e-07 -3.46023e-07 0.000714877)
(5.01602e-07 3.56279e-07 -0.000714608)
(0.000626081 -1.39987e-05 -1.29363e-06)
(-1.70435e-06 0.00071427 -5.70857e-07)
(-5.71893e-07 -4.33475e-07 0.000714714)
(5.89396e-07 4.4658e-07 -0.000714413)
(0.000626254 -1.58966e-05 -1.5457e-06)
(-1.93733e-06 0.000714017 -7.40565e-07)
(-6.84382e-07 -5.2974e-07 0.00071474)
(7.05368e-07 5.46071e-07 -0.000714399)
(0.000626422 -1.77858e-05 -1.82309e-06)
(-2.24171e-06 0.000713925 -9.54326e-07)
(-8.26861e-07 -6.35012e-07 0.000714911)
(8.52098e-07 6.54962e-07 -0.000714524)
(0.000626576 -1.97155e-05 -2.12409e-06)
(-2.62418e-06 0.000713945 -1.22643e-06)
(-1.00187e-06 -7.46976e-07 0.000715165)
(1.0322e-06 7.70867e-07 -0.000714734)
(0.000626701 -2.17455e-05 -2.43994e-06)
(-3.08944e-06 0.000714011 -1.57583e-06)
(-1.2104e-06 -8.58964e-07 0.000715415)
(1.24681e-06 8.86911e-07 -0.000714946)
(0.000626775 -2.39512e-05 -2.75064e-06)
(-3.63319e-06 0.000714019 -2.02885e-06)
(-1.4485e-06 -9.57004e-07 0.000715523)
(1.49229e-06 9.88682e-07 -0.000715035)
(0.00062677 -2.64189e-05 -3.01921e-06)
(-4.22634e-06 0.000713805 -2.62435e-06)
(-1.69982e-06 -1.01589e-06 0.000715283)
(1.75289e-06 1.05019e-06 -0.000714812)
(0.000626655 -2.92098e-05 -3.18687e-06)
(-4.77841e-06 0.000713099 -3.42468e-06)
(-1.91972e-06 -9.96555e-07 0.0007144)
(1.98507e-06 1.03113e-06 -0.000714002)
(0.000626405 -3.22353e-05 -3.17914e-06)
(-5.04442e-06 0.000711488 -4.53687e-06)
(-2.00198e-06 -8.54671e-07 0.000712522)
(2.08725e-06 8.8511e-07 -0.000712258)
(0.000625991 -3.49831e-05 -2.95522e-06)
(-4.28878e-06 0.000708451 -6.16205e-06)
(-1.70782e-06 -5.92556e-07 0.000709442)
(1.8597e-06 6.04874e-07 -0.000709307)
(-1.05424e-05 0.000705449 -3.23071e-06)
(-2.02356e-06 -8.525e-09 0.000706146)
(4.19871e-06 -4.6275e-07 -0.00070628)
(0.000625134 -2.58204e-06 -2.69176e-07)
(-1.63546e-06 0.000721491 -4.869e-08)
(-4.56205e-07 -3.2447e-08 0.000720426)
(4.68818e-07 3.33632e-08 -0.000720152)
(0.000625259 -4.96035e-06 -5.20758e-07)
(-1.56371e-06 0.000720094 -1.45384e-07)
(-4.46117e-07 -9.58789e-08 0.000719299)
(4.58711e-07 9.86094e-08 -0.000719035)
(0.000625372 -7.10516e-06 -7.58539e-07)
(-1.522e-06 0.000718539 -2.43311e-07)
(-4.53446e-07 -1.56852e-07 0.00071802)
(4.66638e-07 1.61387e-07 -0.000717762)
(0.000625476 -9.06483e-06 -9.95393e-07)
(-1.55268e-06 0.000717372 -3.49015e-07)
(-4.89674e-07 -2.17009e-07 0.000717101)
(5.04323e-07 2.23409e-07 -0.000716836)
(0.00062557 -1.08805e-05 -1.24252e-06)
(-1.64787e-06 0.000716532 -4.70339e-07)
(-5.53119e-07 -2.78295e-07 0.000716485)
(5.70018e-07 2.86691e-07 -0.000716202)
(0.000625649 -1.2589e-05 -1.50933e-06)
(-1.80353e-06 0.000715968 -6.15325e-07)
(-6.43612e-07 -3.41765e-07 0.000716124)
(6.6352e-07 3.52332e-07 -0.000715813)
(0.000625707 -1.42264e-05 -1.8032e-06)
(-2.01859e-06 0.000715642 -7.92826e-07)
(-7.61907e-07 -4.07334e-07 0.000715971)
(7.85563e-07 4.20255e-07 -0.000715625)
(0.000625731 -1.58319e-05 -2.12894e-06)
(-2.29375e-06 0.000715515 -1.01323e-06)
(-9.08951e-07 -4.73318e-07 0.000715976)
(9.37066e-07 4.88718e-07 -0.000715591)
(0.000625703 -1.74542e-05 -2.48752e-06)
(-2.63004e-06 0.00071555 -1.2895e-06)
(-1.08472e-06 -5.35705e-07 0.000716076)
(1.11797e-06 5.53542e-07 -0.000715654)
(0.000625601 -1.91609e-05 -2.87377e-06)
(-3.02648e-06 0.000715698 -1.63888e-06)
(-1.28613e-06 -5.87176e-07 0.000716187)
(1.32514e-06 6.0705e-07 -0.000715738)
(0.000625399 -2.10517e-05 -3.27221e-06)
(-3.47595e-06 0.000715889 -2.08597e-06)
(-1.50312e-06 -6.16155e-07 0.000716189)
(1.54853e-06 6.36978e-07 -0.000715734)
(0.000625076 -2.32718e-05 -3.64964e-06)
(-3.95649e-06 0.000716005 -2.66961e-06)
(-1.71134e-06 -6.06828e-07 0.000715907)
(1.76392e-06 6.26291e-07 -0.000715484)
(0.000624644 -2.60039e-05 -3.9422e-06)
(-4.40691e-06 0.000715818 -3.45801e-06)
(-1.85902e-06 -5.42474e-07 0.000715075)
(1.92026e-06 5.56382e-07 -0.000714749)
(0.000624164 -2.935e-05 -4.02972e-06)
(-4.6414e-06 0.000714832 -4.57602e-06)
(-1.84438e-06 -4.16392e-07 0.000713277)
(1.9205e-06 4.18356e-07 -0.000713151)
(0.00062371 -3.28692e-05 -3.64699e-06)
(-3.96683e-06 0.000711989 -6.25372e-06)
(-1.47861e-06 -2.56762e-07 0.000709838)
(1.61161e-06 2.37801e-07 -0.000710129)
(-9.88717e-06 0.000711048 -3.28647e-06)
(-1.49796e-06 4.14804e-08 0.000707262)
(3.14502e-06 -3.97819e-07 -0.000708908)
(0.000625067 -2.29621e-06 -3.02431e-07)
(-1.71655e-06 0.000723786 -5.09285e-08)
(-5.08256e-07 -2.57591e-08 0.000722843)
(5.22345e-07 2.64949e-08 -0.000722538)
(0.000625127 -4.4057e-06 -5.84671e-07)
(-1.63742e-06 0.000722201 -1.51887e-07)
(-4.95625e-07 -7.57664e-08 0.000721444)
(5.09661e-07 7.79504e-08 -0.000721156)
(0.000625176 -6.29628e-06 -8.50639e-07)
(-1.58574e-06 0.000720426 -2.5363e-07)
(-5.00993e-07 -1.22744e-07 0.000719864)
(5.15633e-07 1.26343e-07 -0.000719588)
(0.000625212 -8.00504e-06 -1.11459e-06)
(-1.60491e-06 0.000719076 -3.62639e-07)
(-5.36903e-07 -1.67216e-07 0.000718686)
(5.5307e-07 1.72232e-07 -0.000718408)
(0.00062523 -9.56239e-06 -1.38902e-06)
(-1.68472e-06 0.000718082 -4.86555e-07)
(-6.00941e-07 -2.09833e-07 0.00071784)
(6.19462e-07 2.16306e-07 -0.00071755)
(0.000625223 -1.09946e-05 -1.68461e-06)
(-1.81803e-06 0.000717393 -6.32907e-07)
(-6.92073e-07 -2.50347e-07 0.000717271)
(7.13718e-07 2.58324e-07 -0.000716958)
(0.000625178 -1.23265e-05 -2.01024e-06)
(-1.99953e-06 0.000716964 -8.09579e-07)
(-8.09925e-07 -2.87378e-07 0.000716926)
(8.35399e-07 2.96872e-07 -0.000716584)
(0.000625079 -1.35846e-05 -2.37261e-06)
(-2.22464e-06 0.000716763 -1.02544e-06)
(-9.53908e-07 -3.18093e-07 0.000716751)
(9.83814e-07 3.29025e-07 -0.000716376)
(0.000624903 -1.48024e-05 -2.77561e-06)
(-2.48791e-06 0.000716756 -1.29124e-06)
(-1.12192e-06 -3.37859e-07 0.000716686)
(1.1567e-06 3.49948e-07 -0.000716281)
(0.000624618 -1.6029e-05 -3.21885e-06)
(-2.78182e-06 0.000716912 -1.62116e-06)
(-1.30831e-06 -3.4008e-07 0.000716657)
(1.34814e-06 3.52667e-07 -0.000716231)
(0.000624194 -1.73437e-05 -3.69506e-06)
(-3.09609e-06 0.000717192 -2.03597e-06)
(-1.5005e-06 -3.16786e-07 0.000716569)
(1.54519e-06 3.28507e-07 -0.000716143)
(0.000623606 -1.88809e-05 -4.18498e-06)
(-3.41792e-06 0.000717534 -2.57133e-06)
(-1.67354e-06 -2.61285e-07 0.00071629)
(1.72243e-06 2.69492e-07 -0.000715898)
(0.000622879 -2.08676e-05 -4.64551e-06)
(-3.73227e-06 0.000717805 -3.29842e-06)
(-1.7813e-06 -1.75365e-07 0.000715625)
(1.83362e-06 1.75051e-07 -0.000715325)
(0.000622165 -2.36376e-05 -4.96513e-06)
(-3.98641e-06 0.00071762 -4.36875e-06)
(-1.74063e-06 -8.35848e-08 0.000714223)
(1.79989e-06 6.56681e-08 -0.000714111)
(0.000621778 -2.72999e-05 -4.68227e-06)
(-3.69014e-06 0.000715699 -6.08164e-06)
(-1.39187e-06 -4.36878e-08 0.00071112)
(1.50171e-06 -4.04953e-09 -0.000711575)
(-9.8551e-06 0.000721024 -3.19403e-06)
(-1.37612e-06 -8.95516e-08 0.000712206)
(2.71608e-06 -1.45173e-07 -0.000715456)
(0.000625 -1.98565e-06 -3.29075e-07)
(-5.4861e-07 -1.91659e-08 0.000724959)
(5.63855e-07 1.97208e-08 -0.000724629)
(-1.73163e-06 0.000725771 -5.11893e-08)
(0.000624996 -3.80516e-06 -6.35626e-07)
(-5.33379e-07 -5.60179e-08 0.000723307)
(5.48531e-07 5.76559e-08 -0.000723)
(-1.64824e-06 0.000724019 -1.525e-07)
(0.000624983 -5.42386e-06 -9.2341e-07)
(-5.35956e-07 -8.94954e-08 0.000721443)
(5.51687e-07 9.21635e-08 -0.000721155)
(-1.58846e-06 0.000722042 -2.54125e-07)
(0.000624955 -6.86598e-06 -1.20755e-06)
(-5.6963e-07 -1.19143e-07 0.000720013)
(5.86892e-07 1.22796e-07 -0.000719729)
(-1.59501e-06 0.000720515 -3.62192e-07)
(0.000624907 -8.14974e-06 -1.5013e-06)
(-6.3128e-07 -1.44509e-07 0.000718938)
(6.50911e-07 1.49104e-07 -0.000718647)
(-1.65563e-06 0.000719362 -4.83823e-07)
(0.000624826 -9.28886e-06 -1.81612e-06)
(-7.19014e-07 -1.64316e-07 0.000718154)
(7.41764e-07 1.69794e-07 -0.000717846)
(-1.76025e-06 0.000718526 -6.25735e-07)
(0.0006247 -1.02937e-05 -2.16167e-06)
(-8.31392e-07 -1.76262e-07 0.000717602)
(8.57905e-07 1.82505e-07 -0.000717272)
(-1.89957e-06 0.000717963 -7.94506e-07)
(0.000624508 -1.11725e-05 -2.54582e-06)
(-9.66511e-07 -1.76815e-07 0.000717227)
(9.97266e-07 1.83606e-07 -0.000716871)
(-2.06346e-06 0.000717635 -9.97083e-07)
(0.000624224 -1.1933e-05 -2.9743e-06)
(-1.12079e-06 -1.6111e-07 0.00071697)
(1.156e-06 1.68062e-07 -0.000716591)
(-2.23949e-06 0.000717509 -1.24139e-06)
(0.000623814 -1.25848e-05 -3.45013e-06)
(-1.28723e-06 -1.23134e-07 0.00071676)
(1.3267e-06 1.29591e-07 -0.000716368)
(-2.41159e-06 0.000717557 -1.5372e-06)
(0.000623234 -1.31433e-05 -3.97262e-06)
(-1.45297e-06 -5.66247e-08 0.00071651)
(1.49586e-06 6.15222e-08 -0.000716126)
(-2.55867e-06 0.000717745 -1.8982e-06)
(0.000622425 -1.36366e-05 -4.5359e-06)
(-1.5958e-06 4.2644e-08 0.000716094)
(1.6404e-06 -4.09494e-08 -0.000715755)
(-2.65328e-06 0.000718026 -2.34704e-06)
(0.000621304 -1.41258e-05 -5.12458e-06)
(-1.67902e-06 1.72222e-07 0.00071529)
(1.72287e-06 -1.76151e-07 -0.000715073)
(-2.6557e-06 0.000718298 -2.92711e-06)
(0.000619741 -1.47884e-05 -5.68259e-06)
(-1.64064e-06 3.14194e-07 0.000713598)
(1.6844e-06 -3.27729e-07 -0.000713684)
(-2.46657e-06 0.000718296 -3.72469e-06)
(0.000617506 -1.64195e-05 -5.83656e-06)
(-1.35731e-06 4.09406e-07 0.000709667)
(1.43751e-06 -4.48132e-07 -0.000710712)
(-1.53522e-06 0.000717369 -4.8834e-06)
(-1.86327e-06 -2.56414e-08 0.000723164)
(3.08628e-06 -1.08963e-07 -0.00072846)
(-1.39041e-05 0.000740661 -2.39314e-06)
(0.000625375 -3.43138e-06 -2.45523e-08)
(-3.78264e-07 0.000706553 -9.85244e-09)
(-4.53402e-08 -5.10078e-08 0.000705071)
(0.000625737 -6.61232e-06 -4.76754e-08)
(-3.65322e-07 0.000706295 -2.95236e-08)
(-4.46823e-08 -1.52268e-07 0.000705373)
(0.000626097 -9.51912e-06 -6.96872e-08)
(-3.63033e-07 0.000706014 -4.96934e-08)
(-4.61109e-08 -2.54352e-07 0.000705655)
(0.000626476 -1.22288e-05 -9.1614e-08)
(-3.8203e-07 0.000705809 -7.17735e-08)
(-5.08623e-08 -3.63321e-07 0.000705986)
(0.000626894 -1.48056e-05 -1.14289e-07)
(-4.22247e-07 0.000705668 -9.74801e-08)
(-5.89684e-08 -4.86658e-07 0.000706385)
(0.000627374 -1.73012e-05 -1.3829e-07)
(-4.85535e-07 0.000705576 -1.28634e-07)
(-7.07484e-08 -6.32233e-07 0.00070687)
(0.000627943 -1.97541e-05 -1.63866e-07)
(-5.7572e-07 0.00070552 -1.67306e-07)
(-8.68336e-08 -8.08971e-07 0.000707465)
(0.000628633 -2.21863e-05 -1.90853e-07)
(-6.98951e-07 0.000705482 -2.15858e-07)
(-1.08248e-07 -1.02763e-06 0.000708195)
(0.000629485 -2.45966e-05 -2.18639e-07)
(-8.64074e-07 0.000705437 -2.76922e-07)
(-1.36575e-07 -1.30185e-06 0.000709091)
(0.000630551 -2.69519e-05 -2.46339e-07)
(-1.08323e-06 0.000705349 -3.53146e-07)
(-1.74262e-07 -1.64973e-06 0.000710193)
(0.000631897 -2.9176e-05 -2.73636e-07)
(-1.37252e-06 0.000705169 -4.45931e-07)
(-2.25075e-07 -2.0962e-06 0.000711549)
(0.000633601 -3.11449e-05 -3.03063e-07)
(-1.75157e-06 0.000704831 -5.51463e-07)
(-2.94386e-07 -2.67624e-06 0.000713224)
(0.000635748 -3.27034e-05 -3.44579e-07)
(-2.23543e-06 0.000704271 -6.48663e-07)
(-3.87239e-07 -3.43636e-06 0.000715304)
(0.000638351 -3.37371e-05 -4.19391e-07)
(-2.7831e-06 0.00070345 -6.69209e-07)
(-4.94668e-07 -4.4193e-06 0.000717879)
(0.000641031 -3.42727e-05 -5.4327e-07)
(-3.00353e-06 0.000702399 -4.83259e-07)
(-5.32728e-07 -5.56807e-06 0.000720816)
(-8.57208e-06 0.000702552 -1.38085e-07)
(-1.3399e-06 -7.64058e-06 0.000728417)
(0.000625351 -3.37292e-06 -7.30743e-08)
(-7.38745e-07 0.000709922 -1.9274e-08)
(-1.3456e-07 -4.93608e-08 0.000708487)
(0.00062569 -6.49844e-06 -1.41891e-07)
(-7.12875e-07 0.000709411 -5.77206e-08)
(-1.32527e-07 -1.47235e-07 0.000708518)
(0.000626024 -9.3527e-06 -2.07391e-07)
(-7.07203e-07 0.000708851 -9.70579e-08)
(-1.36604e-07 -2.45558e-07 0.000708505)
(0.000626374 -1.20112e-05 -2.72634e-07)
(-7.42303e-07 0.000708444 -1.40008e-07)
(-1.50432e-07 -3.49938e-07 0.000708616)
(0.000626757 -1.45369e-05 -3.40114e-07)
(-8.17704e-07 0.000708161 -1.89833e-07)
(-1.74045e-07 -4.67263e-07 0.000708853)
(0.000627192 -1.69819e-05 -4.11577e-07)
(-9.36363e-07 0.000707978 -2.49992e-07)
(-2.08285e-07 -6.0459e-07 0.000709222)
(0.000627702 -1.93863e-05 -4.87801e-07)
(-1.10481e-06 0.000707869 -3.24339e-07)
(-2.54827e-07 -7.69635e-07 0.000709727)
(0.000628311 -2.17764e-05 -5.68326e-07)
(-1.33336e-06 0.000707801 -4.17151e-07)
(-3.16337e-07 -9.71208e-07 0.000710373)
(0.000629049 -2.41591e-05 -6.51239e-07)
(-1.63633e-06 0.000707728 -5.33068e-07)
(-3.96781e-07 -1.2196e-06 0.00071116)
(0.000629948 -2.65129e-05 -7.33444e-07)
(-2.03193e-06 0.000707584 -6.76323e-07)
(-5.01919e-07 -1.52679e-06 0.000712081)
(0.00063104 -2.87754e-05 -8.1244e-07)
(-2.5401e-06 0.000707273 -8.48117e-07)
(-6.39782e-07 -1.90601e-06 0.000713116)
(0.000632338 -3.08273e-05 -8.91612e-07)
(-3.17459e-06 0.000706668 -1.03881e-06)
(-8.19808e-07 -2.36924e-06 0.000714233)
(0.000633787 -3.24804e-05 -9.91266e-07)
(-3.91342e-06 0.000705621 -1.2063e-06)
(-1.04467e-06 -2.91882e-06 0.000715383)
(0.000635159 -3.34914e-05 -1.15919e-06)
(-4.59263e-06 0.000704027 -1.22844e-06)
(-1.27256e-06 -3.52458e-06 0.000716506)
(0.000635939 -3.36869e-05 -1.43801e-06)
(-4.51697e-06 0.000701995 -8.9877e-07)
(-1.28515e-06 -4.084e-06 0.000717457)
(-6.73675e-06 0.000697764 2.78479e-07)
(-2.37259e-06 -3.93059e-06 0.000717082)
(0.000625311 -3.25863e-06 -1.1983e-07)
(-1.06514e-06 0.000713178 -2.78002e-08)
(-2.19526e-07 -4.62064e-08 0.000711806)
(0.00062561 -6.2758e-06 -2.32651e-07)
(-1.02645e-06 0.000712419 -8.31892e-08)
(-2.15954e-07 -1.37633e-07 0.000711553)
(0.000625903 -9.02707e-06 -3.39991e-07)
(-1.01545e-06 0.000711587 -1.397e-07)
(-2.22086e-07 -2.289e-07 0.000711229)
(0.000626204 -1.15847e-05 -4.46876e-07)
(-1.06145e-06 0.000710979 -2.01136e-07)
(-2.43782e-07 -3.2482e-07 0.0007111)
(0.000626529 -1.40095e-05 -5.57438e-07)
(-1.16294e-06 0.000710555 -2.72026e-07)
(-2.80923e-07 -4.31244e-07 0.000711152)
(0.000626891 -1.63533e-05 -6.74622e-07)
(-1.32281e-06 0.000710283 -3.57121e-07)
(-3.34565e-07 -5.53874e-07 0.000711374)
(0.000627304 -1.86589e-05 -7.99836e-07)
(-1.54846e-06 0.000710125 -4.61554e-07)
(-4.06883e-07 -6.98471e-07 0.000711752)
(0.000627782 -2.096e-05 -9.32439e-07)
(-1.85139e-06 0.000710039 -5.90847e-07)
(-5.01197e-07 -8.70855e-07 0.00071227)
(0.000628339 -2.32776e-05 -1.06916e-06)
(-2.2469e-06 0.000709967 -7.507e-07)
(-6.2204e-07 -1.07649e-06 0.000712897)
(0.000628986 -2.56143e-05 -1.20389e-06)
(-2.75208e-06 0.000709821 -9.45639e-07)
(-7.75039e-07 -1.31926e-06 0.000713581)
(0.000629715 -2.79411e-05 -1.32881e-06)
(-3.37939e-06 0.000709476 -1.17515e-06)
(-9.65927e-07 -1.59852e-06 0.000714232)
(0.000630488 -3.01765e-05 -1.43945e-06)
(-4.1199e-06 0.000708751 -1.42293e-06)
(-1.19621e-06 -1.90291e-06 0.000714715)
(0.00063118 -3.21556e-05 -1.54692e-06)
(-4.89732e-06 0.000707424 -1.62948e-06)
(-1.4477e-06 -2.19935e-06 0.000714845)
(0.000631527 -3.3611e-05 -1.69438e-06)
(-5.44623e-06 0.000705313 -1.63774e-06)
(-1.63469e-06 -2.42156e-06 0.000714436)
(0.000631227 -3.42746e-05 -1.94388e-06)
(-4.97915e-06 0.000702575 -1.20482e-06)
(-1.48932e-06 -2.49429e-06 0.000713488)
(-7.10772e-06 0.000698628 3.31829e-07)
(-1.85005e-06 -2.20931e-06 0.000711585)
(0.000625258 -3.09065e-06 -1.63639e-07)
(-1.34347e-06 0.000716266 -3.50434e-08)
(-2.97777e-07 -4.17664e-08 0.000714975)
(0.000625504 -5.9488e-06 -3.1764e-07)
(-1.29235e-06 0.000715268 -1.04766e-07)
(-2.92432e-07 -1.24159e-07 0.000714428)
(0.000625741 -8.54889e-06 -4.64033e-07)
(-1.27379e-06 0.000714173 -1.75633e-07)
(-2.99739e-07 -2.05653e-07 0.000713785)
(0.00062598 -1.09579e-05 -6.097e-07)
(-1.32418e-06 0.000713367 -2.52244e-07)
(-3.27504e-07 -2.90035e-07 0.000713401)
(0.000626231 -1.32329e-05 -7.60344e-07)
(-1.44022e-06 0.000712804 -3.40076e-07)
(-3.75262e-07 -3.81855e-07 0.000713248)
(0.000626499 -1.54239e-05 -9.20147e-07)
(-1.62359e-06 0.000712439 -4.44701e-07)
(-4.4391e-07 -4.85192e-07 0.000713298)
(0.00062679 -1.75757e-05 -1.0913e-06)
(-1.88043e-06 0.000712234 -5.71941e-07)
(-5.35481e-07 -6.0363e-07 0.000713524)
(0.000627108 -1.97293e-05 -1.27324e-06)
(-2.22071e-06 0.00071214 -7.27868e-07)
(-6.52894e-07 -7.39926e-07 0.000713889)
(0.000627451 -2.19225e-05 -1.46163e-06)
(-2.65709e-06 0.000712095 -9.18305e-07)
(-7.99487e-07 -8.95146e-07 0.000714341)
(0.00062781 -2.41886e-05 -1.64713e-06)
(-3.20134e-06 0.00071201 -1.14719e-06)
(-9.7788e-07 -1.06687e-06 0.000714793)
(0.000628158 -2.65491e-05 -1.81473e-06)
(-3.85557e-06 0.000711748 -1.41192e-06)
(-1.18705e-06 -1.24582e-06 0.000715113)
(0.000628441 -2.89946e-05 -1.94556e-06)
(-4.59126e-06 0.000711103 -1.69114e-06)
(-1.41486e-06 -1.4106e-06 0.000715096)
(0.00062855 -3.14429e-05 -2.02584e-06)
(-5.30075e-06 0.000709793 -1.91498e-06)
(-1.61975e-06 -1.52217e-06 0.000714474)
(0.00062833 -3.36704e-05 -2.06831e-06)
(-5.68854e-06 0.000707523 -1.90869e-06)
(-1.69071e-06 -1.52931e-06 0.000712993)
(0.000627735 -3.52707e-05 -2.14732e-06)
(-5.01142e-06 0.000704298 -1.41241e-06)
(-1.39012e-06 -1.41831e-06 0.000710756)
(-6.69698e-06 0.000700809 2.68014e-07)
(-1.42614e-06 -1.08378e-06 0.000708109)
(0.000625194 -2.87439e-06 -2.03456e-07)
(-1.56307e-06 0.000719138 -4.07136e-08)
(-3.67338e-07 -3.63613e-08 0.000717943)
(0.000625377 -5.52805e-06 -3.94795e-07)
(-1.50039e-06 0.000717914 -1.21589e-07)
(-3.59967e-07 -1.07804e-07 0.0007171)
(0.00062555 -7.9337e-06 -5.76439e-07)
(-1.47234e-06 0.000716566 -2.03432e-07)
(-3.67413e-07 -1.77591e-07 0.000716135)
(0.000625718 -1.01508e-05 -7.56932e-07)
(-1.5204e-06 0.000715567 -2.9136e-07)
(-3.9912e-07 -2.48376e-07 0.000715488)
(0.000625884 -1.22305e-05 -9.43436e-07)
(-1.63902e-06 0.000714861 -3.91395e-07)
(-4.54097e-07 -3.23319e-07 0.000715115)
(0.000626049 -1.42185e-05 -1.14136e-06)
(-1.82748e-06 0.000714399 -5.09473e-07)
(-5.32757e-07 -4.0488e-07 0.000714977)
(0.00062621 -1.61582e-05 -1.35383e-06)
(-2.08904e-06 0.000714138 -6.51557e-07)
(-6.36485e-07 -4.9465e-07 0.000715032)
(0.000626359 -1.80943e-05 -1.58079e-06)
(-2.43006e-06 0.000714034 -8.23569e-07)
(-7.67073e-07 -5.92916e-07 0.000715233)
(0.000626484 -2.00769e-05 -1.81753e-06)
(-2.85837e-06 0.000714029 -1.03082e-06)
(-9.25734e-07 -6.97802e-07 0.000715515)
(0.000626563 -2.21661e-05 -2.05243e-06)
(-3.3796e-06 0.000714044 -1.27623e-06)
(-1.1111e-06 -8.0382e-07 0.000715779)
(0.000626563 -2.44348e-05 -2.26401e-06)
(-3.98897e-06 0.000713959 -1.55568e-06)
(-1.31506e-06 -8.99753e-07 0.000715878)
(0.000626439 -2.69598e-05 -2.41792e-06)
(-4.65238e-06 0.000713578 -1.84583e-06)
(-1.51419e-06 -9.6643e-07 0.000715591)
(0.000626134 -2.97754e-05 -2.46846e-06)
(-5.26277e-06 0.000712589 -2.07432e-06)
(-1.65315e-06 -9.7711e-07 0.00071461)
(0.000625602 -3.27332e-05 -2.38031e-06)
(-5.5391e-06 0.000710535 -2.06256e-06)
(-1.61877e-06 -9.08612e-07 0.000712588)
(0.0006249 -3.52201e-05 -2.22605e-06)
(-4.7883e-06 0.000706971 -1.54475e-06)
(-1.22892e-06 -7.78347e-07 0.00070942)
(-6.00016e-06 0.000704028 1.66807e-07)