/*--------------------------------*- C++ -*----------------------------------*\
| =========                 |                                                 |
| \\      /  F ield         | foam-extend: Open Source CFD                    |
|  \\    /   O peration     | Version:     3.1                                |
|   \\  /    A nd           | Web:         http://www.extend-project.de       |
|    \\/     M anipulation  |                                                 |
\*---------------------------------------------------------------------------*/
FoamFile
{
    version     2.0;
    format      ascii;
    class       volVectorField;
    location    "0.5";
    object      U;
}
// * * * * * * * * * * * * * * * * * * * * * * * * * * * * * * * * * * * * * //

dimensions      [0 1 -1 0 0 0 0];

internalField   nonuniform List<vector> 
14592
(
(0.0148413 -0.00524008 -0.00793657)
(0.0192887 -0.00381577 -0.00996514)
(0.0236915 -0.00213846 -0.00925403)
(0.0262763 -0.00117364 -0.00808236)
(0.0276086 -0.000636583 -0.00698268)
(0.0282734 -0.000325436 -0.00608747)
(0.0285437 -0.000131451 -0.00543374)
(0.0285557 2.22367e-06 -0.00503769)
(0.0283735 0.00010905 -0.00491789)
(0.0280173 0.000207316 -0.00511186)
(0.0274746 0.000310274 -0.00569052)
(0.0266944 0.000429594 -0.00678746)
(0.0255546 0.000577895 -0.0086544)
(0.0236528 0.00079029 -0.0117545)
(0.0200296 0.00116499 -0.0166944)
(0.0149211 0.00169402 -0.0202414)
(0.0293408 -0.0092225 -0.0107619)
(0.0331282 -0.00849186 -0.0147153)
(0.0372713 -0.00545884 -0.0139208)
(0.0400537 -0.00324292 -0.0121793)
(0.0416106 -0.00184704 -0.0104875)
(0.042405 -0.000981739 -0.00909483)
(0.0427108 -0.00042404 -0.00806332)
(0.0426814 -3.42449e-05 -0.0074143)
(0.0423901 0.000275953 -0.00716959)
(0.041855 0.000559991 -0.00737938)
(0.0410515 0.000861337 -0.00813961)
(0.0398972 0.0012211 -0.00963334)
(0.0382073 0.00168967 -0.0122033)
(0.0354229 0.00235678 -0.016453)
(0.0302316 0.00337671 -0.0229704)
(0.0225947 0.00452361 -0.0260958)
(0.0411854 -0.0118823 -0.0114543)
(0.0422282 -0.0123706 -0.0162275)
(0.0438393 -0.008548 -0.0153819)
(0.0451539 -0.00530152 -0.0133699)
(0.0459352 -0.00309226 -0.0114204)
(0.0462956 -0.00165458 -0.00982786)
(0.0463499 -0.000696486 -0.00865)
(0.0461727 -7.57057e-06 -0.00789649)
(0.0457926 0.000547199 -0.00758002)
(0.0452034 0.00106553 -0.00774417)
(0.0443705 0.00162458 -0.00848039)
(0.0432056 0.00229994 -0.00996806)
(0.0415275 0.00318451 -0.0125436)
(0.0388023 0.00441496 -0.0167848)
(0.0337736 0.00614688 -0.023164)
(0.0263643 0.00773373 -0.0257655)
(0.0517047 -0.0119705 -0.0119545)
(0.0502801 -0.01353 -0.0172491)
(0.0492355 -0.00979917 -0.01628)
(0.0487357 -0.00624255 -0.014003)
(0.048437 -0.00368099 -0.0118282)
(0.0481543 -0.00194609 -0.0100745)
(0.0478345 -0.000750756 -0.00878302)
(0.0474497 0.000138259 -0.00794149)
(0.0469727 0.000872031 -0.00755391)
(0.0463706 0.00157758 -0.00764237)
(0.0455933 0.00235309 -0.00828437)
(0.0445567 0.00329701 -0.00963855)
(0.0431032 0.00452769 -0.0120056)
(0.0407702 0.00620019 -0.0158953)
(0.0364621 0.00843408 -0.0216675)
(0.0301507 0.0102093 -0.0238347)
(0.0605126 -0.0103631 -0.0124371)
(0.0572701 -0.012388 -0.0181678)
(0.0540527 -0.00925093 -0.0170644)
(0.051911 -0.00597526 -0.0145255)
(0.0505667 -0.0035085 -0.0121291)
(0.0496357 -0.00177818 -0.0102164)
(0.0489335 -0.000544 -0.00881115)
(0.0483411 0.000409275 -0.00788053)
(0.0477803 0.00123202 -0.00740312)
(0.0471955 0.00205002 -0.00738935)
(0.0465227 0.00296993 -0.00789462)
(0.0456853 0.00410061 -0.00904767)
(0.0445528 0.0055707 -0.011101)
(0.0427361 0.00753524 -0.0144822)
(0.0392956 0.0100653 -0.0194538)
(0.0342393 0.0118589 -0.0212086)
(0.0672925 -0.00780165 -0.0128536)
(0.0628107 -0.00965871 -0.0189433)
(0.05801 -0.00732331 -0.0177253)
(0.054587 -0.00471729 -0.0149583)
(0.0523906 -0.00268235 -0.0123646)
(0.0509198 -0.00120413 -0.0103062)
(0.0498994 -9.77488e-05 -0.00879124)
(0.0491457 0.000789463 -0.00776623)
(0.0485387 0.00160547 -0.00719186)
(0.0480037 0.00245574 -0.00705865)
(0.0474736 0.00344131 -0.00739835)
(0.0468823 0.00467112 -0.00830505)
(0.0461272 0.00627681 -0.00997539)
(0.0448895 0.00841372 -0.0127468)
(0.0423586 0.0111277 -0.0168007)
(0.0385502 0.0129336 -0.018133)
(0.0718766 -0.00469572 -0.0131553)
(0.0666278 -0.00589298 -0.0194966)
(0.0608111 -0.00443364 -0.0181916)
(0.0565336 -0.00274117 -0.0152535)
(0.0537581 -0.00137112 -0.0125087)
(0.0519276 -0.000323251 -0.010334)
(0.0506951 0.000506818 -0.00872394)
(0.0498452 0.00123179 -0.00761236)
(0.0492466 0.00195703 -0.00694037)
(0.0488002 0.00276341 -0.00667981)
(0.0484446 0.00373568 -0.00683787)
(0.0481319 0.00497431 -0.0074704)
(0.047795 0.00661201 -0.00871067)
(0.0471933 0.00882274 -0.0107958)
(0.0456262 0.0117042 -0.0138332)
(0.0430586 0.0137709 -0.0147032)
(0.0741821 -0.00130543 -0.0133126)
(0.0685677 -0.00154909 -0.0197723)
(0.0622671 -0.000991917 -0.0184089)
(0.0575843 -0.000350258 -0.0153702)
(0.0545445 0.00021335 -0.0125352)
(0.05255 0.000709564 -0.0102852)
(0.0512421 0.00117437 -0.00860933)
(0.0503971 0.00167264 -0.00742531)
(0.049859 0.00224625 -0.00666274)
(0.0495341 0.00294548 -0.00627717)
(0.0493727 0.00383078 -0.00625166)
(0.0493537 0.00498422 -0.00660202)
(0.0494657 0.0065316 -0.00739007)
(0.0495964 0.00867863 -0.00873167)
(0.0492629 0.0117159 -0.0106338)
(0.0483444 0.0148176 -0.0108845)
(0.0157415 -0.00561855 -0.00730548)
(0.0203263 -0.00410608 -0.00923354)
(0.0247869 -0.00230386 -0.00863117)
(0.0272965 -0.00126357 -0.00758651)
(0.0284709 -0.000683741 -0.0065937)
(0.0289408 -0.00034763 -0.00578013)
(0.0289982 -0.000137562 -0.0051845)
(0.0287818 8.22977e-06 -0.00482521)
(0.0283466 0.000127365 -0.00472087)
(0.0276917 0.000239633 -0.0049047)
(0.0267688 0.000361495 -0.0054328)
(0.0254647 0.000509479 -0.00639852)
(0.023556 0.000706451 -0.00794562)
(0.0204952 0.00101115 -0.0102392)
(0.015347 0.0015331 -0.0130567)
(0.00972247 0.00201386 -0.0127924)
(0.031227 -0.0098444 -0.00982825)
(0.0350087 -0.00912975 -0.0135837)
(0.0390636 -0.00588468 -0.0129528)
(0.0416563 -0.00349659 -0.0114105)
(0.0429501 -0.00198797 -0.00988663)
(0.0434445 -0.00105133 -0.00862192)
(0.0434311 -0.000445853 -0.00768172)
(0.043065 -1.92269e-05 -0.00709142)
(0.042405 0.000325927 -0.00687369)
(0.0414392 0.000650386 -0.00707321)
(0.0400929 0.00100633 -0.00776553)
(0.0381983 0.00144762 -0.00907716)
(0.0354365 0.00204651 -0.0111984)
(0.0310695 0.00292828 -0.0143146)
(0.0238777 0.00424513 -0.0179124)
(0.0158829 0.00541159 -0.0164378)
(0.0439419 -0.0126406 -0.0103773)
(0.0447675 -0.0132849 -0.0149179)
(0.0460742 -0.00921244 -0.0142774)
(0.0470515 -0.00571723 -0.0125056)
(0.047479 -0.00332942 -0.0107531)
(0.0474796 -0.00177197 -0.00930803)
(0.0471727 -0.000730107 -0.00823414)
(0.0466275 2.65671e-05 -0.00754712)
(0.045854 0.00064419 -0.00726336)
(0.0448144 0.00123734 -0.00742005)
(0.0434223 0.00189803 -0.00808841)
(0.0415048 0.00272353 -0.00938999)
(0.0387511 0.00384008 -0.0115051)
(0.0344623 0.00542572 -0.0145893)
(0.027497 0.00760694 -0.0180347)
(0.0198354 0.00922179 -0.0161394)
(0.0552492 -0.0127023 -0.0107574)
(0.0534426 -0.0145149 -0.0157961)
(0.051892 -0.0105571 -0.0150752)
(0.0508992 -0.00673166 -0.013077)
(0.0501507 -0.00396314 -0.0111245)
(0.049451 -0.00208261 -0.00953362)
(0.0487386 -0.000781397 -0.00835562)
(0.047969 0.000195533 -0.00758773)
(0.047095 0.00101675 -0.00723653)
(0.0460535 0.00182698 -0.00732203)
(0.0447423 0.00274508 -0.00790288)
(0.043 0.00389836 -0.00908391)
(0.0405521 0.00544718 -0.0110209)
(0.0367926 0.00759314 -0.0138355)
(0.0307375 0.0104084 -0.0169142)
(0.024169 0.0122211 -0.0149429)
(0.0647185 -0.0109775 -0.0111337)
(0.0609825 -0.0132804 -0.0165846)
(0.0571008 -0.0099648 -0.015769)
(0.0543281 -0.00644372 -0.0135452)
(0.0524443 -0.00377707 -0.0113951)
(0.0510429 -0.00189987 -0.00965984)
(0.049919 -0.000553969 -0.00837698)
(0.0489334 0.00049591 -0.00752552)
(0.0479829 0.00142135 -0.00709045)
(0.0469801 0.00236478 -0.00708032)
(0.0458161 0.00345709 -0.00753541)
(0.0443457 0.0048409 -0.00853781)
(0.0423361 0.00669316 -0.0102132)
(0.0392764 0.00922068 -0.0126509)
(0.0343194 0.0124356 -0.0152724)
(0.0289737 0.0142687 -0.0133472)
(0.0720071 -0.00825547 -0.0114641)
(0.0669602 -0.0103513 -0.0172513)
(0.0613827 -0.00788964 -0.0163531)
(0.0572216 -0.00508888 -0.0139322)
(0.0544134 -0.00288764 -0.0116056)
(0.0524293 -0.00128146 -0.00973729)
(0.0509665 -7.09614e-05 -0.00835267)
(0.0498162 0.000912123 -0.00741308)
(0.0488319 0.00183417 -0.00688667)
(0.0479096 0.00281994 -0.00676483)
(0.0469427 0.00399531 -0.00706806)
(0.0458077 0.00550569 -0.00785262)
(0.0443167 0.00753636 -0.00921031)
(0.042049 0.0103025 -0.0111983)
(0.0382529 0.0137907 -0.013298)
(0.0341163 0.0156575 -0.0114716)
(0.0769348 -0.00496806 -0.0117054)
(0.0710783 -0.00631843 -0.0177271)
(0.0644138 -0.00478127 -0.0167646)
(0.0593269 -0.00296112 -0.0141949)
(0.055891 -0.00147667 -0.0117324)
(0.0535204 -0.000334298 -0.00975762)
(0.0518344 0.000578751 -0.00828489)
(0.050591 0.00138853 -0.00726327)
(0.0496341 0.00221528 -0.00664453)
(0.0488374 0.00315727 -0.00640342)
(0.0481075 0.00432353 -0.00654004)
(0.0473528 0.00585231 -0.00708228)
(0.046442 0.0079356 -0.00808344)
(0.0450558 0.0108231 -0.00956433)
(0.0425135 0.0145831 -0.011081)
(0.0395985 0.0168319 -0.00936387)
(0.0794128 -0.00138607 -0.0118314)
(0.0731705 -0.00167026 -0.0179633)
(0.0659884 -0.00108016 -0.0169547)
(0.0604627 -0.000387127 -0.0142964)
(0.0567416 0.000227545 -0.0117519)
(0.0541967 0.000774218 -0.0097072)
(0.0524361 0.00129303 -0.00817235)
(0.0512098 0.00185848 -0.00708209)
(0.0503372 0.00252157 -0.00637747)
(0.0497023 0.00334665 -0.00601905)
(0.0492328 0.00441588 -0.00598706)
(0.0488812 0.00584724 -0.00627977)
(0.0486016 0.00782832 -0.00690657)
(0.0482455 0.0106613 -0.0078409)
(0.0473539 0.014687 -0.00871504)
(0.0462135 0.0183418 -0.00709927)
(0.0165159 -0.00594377 -0.00648612)
(0.0212261 -0.00435892 -0.00824109)
(0.025747 -0.00244948 -0.00774421)
(0.0281987 -0.00134335 -0.00684208)
(0.0292387 -0.000725777 -0.00597571)
(0.0295379 -0.000367422 -0.00526149)
(0.0294056 -0.000142858 -0.00473635)
(0.0289848 1.39534e-05 -0.00441794)
(0.028325 0.000144499 -0.00432156)
(0.0274127 0.000269764 -0.00447138)
(0.0261823 0.000409094 -0.00490252)
(0.0245002 0.000582998 -0.00566341)
(0.0221339 0.000821217 -0.00680612)
(0.0186017 0.0011904 -0.00832684)
(0.0132965 0.00178629 -0.00981031)
(0.0081287 0.00228189 -0.00857079)
(0.0328496 -0.0103756 -0.00866869)
(0.0366379 -0.00968438 -0.0120857)
(0.040632 -0.006259 -0.0115985)
(0.0430715 -0.00372111 -0.0102746)
(0.0441415 -0.00211314 -0.00894729)
(0.0443737 -0.00111299 -0.00783781)
(0.0440769 -0.000464453 -0.00700893)
(0.0434098 -3.9931e-06 -0.00648573)
(0.0424225 0.00037277 -0.00628689)
(0.0410851 0.000733862 -0.0064451)
(0.0392988 0.00113826 -0.00700705)
(0.0368684 0.00164876 -0.00803717)
(0.0334665 0.00234956 -0.00959979)
(0.0284562 0.0033737 -0.0116574)
(0.0210965 0.00483163 -0.0134975)
(0.0138583 0.00595843 -0.0110518)
(0.0463144 -0.0132856 -0.00909248)
(0.0469673 -0.0140786 -0.0132273)
(0.0480288 -0.00979583 -0.0127588)
(0.048726 -0.00608469 -0.0112454)
(0.0488512 -0.00353965 -0.00972172)
(0.0485377 -0.00187554 -0.00845484)
(0.0479108 -0.000758307 -0.00750811)
(0.0470365 5.96905e-05 -0.00689837)
(0.0459137 0.000734723 -0.00664105)
(0.0444857 0.00139517 -0.00676029)
(0.0426405 0.00214449 -0.00729892)
(0.0401792 0.00309388 -0.00831627)
(0.0367862 0.0043851 -0.00986701)
(0.0318714 0.00619887 -0.0118896)
(0.0247783 0.0085851 -0.0136045)
(0.0179233 0.010059 -0.0108367)
(0.0583007 -0.0133227 -0.00937275)
(0.0561828 -0.0153687 -0.0139613)
(0.0542154 -0.0112221 -0.0134453)
(0.0528079 -0.0071636 -0.0117437)
(0.0516734 -0.00421274 -0.010048)
(0.0506096 -0.00220238 -0.00865377)
(0.0495493 -0.000805724 -0.00761529)
(0.0484365 0.000250771 -0.00693462)
(0.0472103 0.00115171 -0.00661629)
(0.045789 0.0020558 -0.00667244)
(0.0440443 0.00309754 -0.00713554)
(0.0417917 0.00442236 -0.00805304)
(0.0387545 0.006209 -0.00946527)
(0.0344315 0.00865862 -0.0112967)
(0.0282807 0.0117404 -0.0127875)
(0.0224619 0.0133404 -0.010032)
(0.0683398 -0.0114971 -0.00965865)
(0.0641999 -0.0140531 -0.0146195)
(0.0597672 -0.0105906 -0.0140399)
(0.0564606 -0.0068569 -0.0121496)
(0.0541128 -0.00401394 -0.0102832)
(0.0523005 -0.00200549 -0.00876239)
(0.0508035 -0.000558393 -0.00763086)
(0.0494671 0.000579524 -0.0068754)
(0.0481703 0.00159803 -0.00648297)
(0.0468054 0.00265372 -0.00645543)
(0.0452409 0.00389542 -0.00681145)
(0.0433109 0.00548679 -0.00758349)
(0.0407817 0.00762598 -0.00879634)
(0.0372361 0.0105194 -0.0103671)
(0.0322059 0.0140594 -0.0115939)
(0.0275099 0.0156395 -0.00897716)
(0.0760665 -0.00863825 -0.0099144)
(0.070557 -0.0109502 -0.0151768)
(0.0643339 -0.00838532 -0.0145402)
(0.0595464 -0.00541575 -0.0124842)
(0.0562112 -0.00306755 -0.010465)
(0.0537791 -0.00134676 -0.00882713)
(0.0519249 -4.2129e-05 -0.00760476)
(0.0504207 0.00102874 -0.00677111)
(0.0491009 0.00204745 -0.0062976)
(0.0478417 0.00315466 -0.00617247)
(0.0465162 0.00449472 -0.00639977)
(0.0449839 0.00623591 -0.00699544)
(0.0430564 0.00858803 -0.00796782)
(0.0403912 0.01177 -0.00923028)
(0.036541 0.0156439 -0.0101611)
(0.0329306 0.0172527 -0.007741)
(0.0812899 -0.00519692 -0.0101028)
(0.0749363 -0.00668509 -0.0155745)
(0.0675669 -0.00508426 -0.014892)
(0.0617923 -0.00315309 -0.0127104)
(0.0577871 -0.00156709 -0.0105731)
(0.0549449 -0.000339617 -0.0088414)
(0.0528587 0.000648812 -0.00754166)
(0.0512648 0.00153665 -0.00663349)
(0.0499886 0.00245618 -0.0060776)
(0.0488852 0.00351988 -0.00584837)
(0.047845 0.00485481 -0.00593472)
(0.0467638 0.00662309 -0.00633475)
(0.0455126 0.00904536 -0.0070383)
(0.0438342 0.0123859 -0.00795506)
(0.0412713 0.0166036 -0.00855803)
(0.0387533 0.0186546 -0.00635708)
(0.0839165 -0.00145253 -0.0102013)
(0.0771609 -0.00177264 -0.0157711)
(0.0692458 -0.00115469 -0.0150533)
(0.0630039 -0.000416338 -0.0127961)
(0.0586956 0.000244348 -0.0105868)
(0.0556707 0.000837234 -0.00879276)
(0.0535106 0.00140614 -0.0074367)
(0.0519449 0.00203349 -0.00646719)
(0.0507737 0.00277854 -0.00583493)
(0.0498659 0.00371686 -0.00550333)
(0.0491376 0.00494645 -0.00544715)
(0.0485359 0.00660802 -0.0056461)
(0.0480243 0.0089201 -0.00606877)
(0.0475104 0.0122136 -0.00661735)
(0.0466948 0.0167643 -0.00687192)
(0.0458807 0.0203993 -0.00492613)
(0.0171628 -0.00621514 -0.00551168)
(0.0219823 -0.00457219 -0.00703182)
(0.0265602 -0.00257335 -0.00663543)
(0.0289684 -0.00141159 -0.00588647)
(0.0298975 -0.000761862 -0.00516091)
(0.0300527 -0.00038441 -0.00455949)
(0.0297591 -0.000147314 -0.00411487)
(0.0291647 1.89726e-05 -0.00384215)
(0.0283171 0.000159574 -0.00375237)
(0.0271975 0.000296039 -0.00386053)
(0.0257357 0.000449945 -0.00418427)
(0.0237992 0.000644273 -0.00474116)
(0.0211767 0.000911979 -0.0055342)
(0.0174708 0.00132056 -0.0065023)
(0.012288 0.00195404 -0.00728243)
(0.00750038 0.00246352 -0.00604518)
(0.0342053 -0.0108165 -0.00732697)
(0.0380062 -0.0101514 -0.010286)
(0.0419591 -0.00657691 -0.00992167)
(0.0442776 -0.0039128 -0.00882808)
(0.0451629 -0.00222028 -0.00771832)
(0.0451744 -0.00116564 -0.00678472)
(0.0446367 -0.000479854 -0.00608324)
(0.0437141 1.02221e-05 -0.00563571)
(0.042453 0.000414039 -0.00545585)
(0.0408154 0.000806188 -0.00556364)
(0.0386966 0.00125038 -0.00598198)
(0.0359035 0.00181465 -0.00673293)
(0.0321406 0.00258836 -0.00781444)
(0.0268941 0.00370243 -0.00911852)
(0.0197316 0.00523395 -0.010046)
(0.0130861 0.00631964 -0.00782074)
(0.0482974 -0.0138187 -0.00764389)
(0.0488149 -0.0147457 -0.0112263)
(0.0496822 -0.0102907 -0.0108962)
(0.0501523 -0.00639803 -0.00965152)
(0.050027 -0.00371925 -0.0083795)
(0.0494492 -0.00196368 -0.00731416)
(0.0485508 -0.000781397 -0.00651319)
(0.0473967 8.965e-05 -0.00599177)
(0.0459811 0.000814149 -0.00576214)
(0.0442393 0.0015314 -0.00583597)
(0.0420512 0.00235287 -0.00623289)
(0.0392216 0.00339779 -0.00697036)
(0.0354694 0.00481371 -0.00803828)
(0.0303318 0.00677364 -0.00931051)
(0.0234614 0.00926791 -0.0101392)
(0.017227 0.010612 -0.00766686)
(0.0608519 -0.0138338 -0.00784359)
(0.058485 -0.0160854 -0.0118187)
(0.0561811 -0.0117857 -0.0114644)
(0.0544334 -0.00753158 -0.0100685)
(0.0529779 -0.00442563 -0.0086541)
(0.0516074 -0.00230382 -0.00748214)
(0.0502514 -0.000824667 -0.00660392)
(0.0488472 0.000300415 -0.00602339)
(0.0473257 0.00127007 -0.00574129)
(0.0455965 0.00225321 -0.00576227)
(0.043523 0.00339532 -0.00609779)
(0.0409244 0.00485214 -0.00675729)
(0.0375577 0.0068087 -0.00772263)
(0.033041 0.00945379 -0.00886223)
(0.0271117 0.012675 -0.00954689)
(0.0218734 0.0140744 -0.00709206)
(0.0713677 -0.0119241 -0.00805428)
(0.0669036 -0.0147009 -0.0123492)
(0.0620237 -0.0111205 -0.0119547)
(0.058277 -0.00720848 -0.0104064)
(0.0555422 -0.00421543 -0.00885036)
(0.0533837 -0.00209411 -0.007572)
(0.0515696 -0.000559052 -0.00661495)
(0.0499347 0.000654954 -0.0059707)
(0.0483468 0.00175322 -0.0056267)
(0.0466873 0.00290324 -0.00557867)
(0.0448175 0.00426611 -0.00582838)
(0.0425749 0.00601736 -0.006376)
(0.039756 0.00836228 -0.00719615)
(0.036049 0.0114928 -0.00815883)
(0.031223 0.0152047 -0.00868267)
(0.0270374 0.0165401 -0.00634692)
(0.0794606 -0.00895214 -0.00824652)
(0.0735798 -0.0114515 -0.0127989)
(0.0668319 -0.00880448 -0.0123669)
(0.061527 -0.00569323 -0.0106843)
(0.0577515 -0.00321975 -0.00900114)
(0.054942 -0.00140032 -0.00762421)
(0.052755 -1.45401e-05 -0.00658995)
(0.0509492 0.00113294 -0.00587967)
(0.0493468 0.00223485 -0.00546772)
(0.0478119 0.00344416 -0.00533945)
(0.046211 0.00491787 -0.00548653)
(0.0444065 0.00683718 -0.00589935)
(0.0422363 0.00942073 -0.00654561)
(0.0394454 0.0128746 -0.00730114)
(0.035775 0.0169578 -0.00764917)
(0.0325882 0.0183089 -0.00548122)
(0.0849312 -0.00538394 -0.0083894)
(0.0781789 -0.00699114 -0.0131199)
(0.0702363 -0.00533952 -0.0126564)
(0.0638931 -0.00331494 -0.0108715)
(0.0594119 -0.00164209 -0.0090898)
(0.0561718 -0.000341148 -0.00763369)
(0.0537459 0.000712426 -0.00653448)
(0.0518537 0.00166864 -0.00576038)
(0.050307 0.0026681 -0.0052792)
(0.048951 0.00383417 -0.00506548)
(0.0476698 0.0053061 -0.00510051)
(0.0463628 0.00725951 -0.00536435)
(0.0449234 0.00992649 -0.00581727)
(0.0431636 0.0135648 -0.00634239)
(0.0407629 0.0180385 -0.00649911)
(0.0385759 0.0198666 -0.00452234)
(0.0876821 -0.00150586 -0.00846414)
(0.080515 -0.00185655 -0.013278)
(0.072004 -0.00121567 -0.0127881)
(0.0651697 -0.000438743 -0.0109411)
(0.0603706 0.000261755 -0.00909898)
(0.0569409 0.00089506 -0.00759008)
(0.0544416 0.0015083 -0.00644237)
(0.0525866 0.0021894 -0.00561629)
(0.0511619 0.00300498 -0.00507113)
(0.0500272 0.00403863 -0.00477353)
(0.049095 0.00539872 -0.00469544)
(0.0483172 0.00723861 -0.00480661)
(0.0476796 0.00979004 -0.00505869)
(0.0471459 0.0133868 -0.00534143)
(0.0465142 0.0182376 -0.00530329)
(0.0459745 0.0217646 -0.0035599)
(0.0176813 -0.00643248 -0.00441329)
(0.022591 -0.00474451 -0.00564779)
(0.0272185 -0.00267408 -0.00534671)
(0.0295951 -0.00146729 -0.00475818)
(0.0304366 -0.000791371 -0.00418389)
(0.0304761 -0.000398282 -0.00370561)
(0.0300522 -0.000150837 -0.00334996)
(0.0293183 2.35092e-05 -0.00312869)
(0.0283225 0.000172103 -0.00304912)
(0.0270453 0.000317522 -0.00311902)
(0.0254182 0.000482731 -0.00334478)
(0.0233176 0.00069205 -0.00372735)
(0.0205572 0.000979783 -0.00425018)
(0.0168015 0.00141278 -0.00484584)
(0.0117652 0.0020685 -0.00524775)
(0.00722293 0.0025853 -0.00424161)
(0.035292 -0.0111678 -0.00584244)
(0.0391071 -0.0105278 -0.00824536)
(0.0430328 -0.00683488 -0.00798468)
(0.0452588 -0.00406892 -0.00712877)
(0.0459979 -0.00230767 -0.00625151)
(0.0458324 -0.0012085 -0.00550949)
(0.0451003 -0.000492126 -0.00494871)
(0.0439722 2.24838e-05 -0.00458627)
(0.0424946 0.000448133 -0.00443182)
(0.0406282 0.000865011 -0.004495)
(0.0382708 0.00133987 -0.00478351)
(0.0352422 0.00194359 -0.00529686)
(0.0312834 0.00276736 -0.0060073)
(0.0259708 0.00393838 -0.00680461)
(0.0190281 0.00551267 -0.00725207)
(0.0127604 0.00656549 -0.00549962)
(0.0498874 -0.0142418 -0.00606921)
(0.0503015 -0.0152826 -0.00897951)
(0.0510197 -0.0106918 -0.00875753)
(0.0513121 -0.00665292 -0.0077868)
(0.0509878 -0.00386556 -0.00678261)
(0.0501977 -0.00203529 -0.00593645)
(0.0490804 -0.000799769 -0.00529652)
(0.0477012 0.00011423 -0.00487501)
(0.0460535 0.000879388 -0.00468034)
(0.0440722 0.00164189 -0.00471566)
(0.0416377 0.00251878 -0.00498592)
(0.0385687 0.00363371 -0.00548683)
(0.0346225 0.00513572 -0.00618441)
(0.0294285 0.00718934 -0.00695525)
(0.0227945 0.00974572 -0.00732792)
(0.0169547 0.0109941 -0.00539211)
(0.0628978 -0.0142384 -0.00620533)
(0.060338 -0.0166614 -0.0094343)
(0.0577715 -0.0122421 -0.00920269)
(0.0557552 -0.00783073 -0.00811638)
(0.0540436 -0.00459883 -0.00700068)
(0.0524264 -0.00238595 -0.00607022)
(0.0508313 -0.000839181 -0.00536903)
(0.0491928 0.000341768 -0.00490122)
(0.0474378 0.00136742 -0.00466422)
(0.0454723 0.00241334 -0.00465802)
(0.0431616 0.00363241 -0.00488141)
(0.0403378 0.005186 -0.00532478)
(0.0367942 0.0072601 -0.00594976)
(0.0322349 0.0100309 -0.00663098)
(0.0265356 0.0133307 -0.00691003)
(0.0216681 0.0145803 -0.00498463)
(0.0737958 -0.0122614 -0.00635423)
(0.06908 -0.015221 -0.00984126)
(0.0638498 -0.0115494 -0.00958586)
(0.0597541 -0.00749403 -0.00838236)
(0.0567098 -0.00437901 -0.00715543)
(0.0542727 -0.00216531 -0.00614061)
(0.0522022 -0.00055802 -0.00537665)
(0.0503267 0.000718683 -0.00485775)
(0.0485076 0.00188122 -0.00457232)
(0.0466214 0.00310589 -0.00451278)
(0.0445302 0.00456161 -0.00467149)
(0.0420833 0.00643013 -0.00503342)
(0.0391097 0.00891767 -0.00555709)
(0.0353729 0.012201 -0.006121)
(0.0307578 0.0160093 -0.00630006)
(0.0269009 0.0171581 -0.00445905)
(0.0821824 -0.00919957 -0.00649278)
(0.0760134 -0.0118535 -0.0101866)
(0.068854 -0.00914327 -0.00990783)
(0.063138 -0.00591816 -0.00860081)
(0.05901 -0.00334274 -0.00727378)
(0.0558964 -0.00144241 -0.00618064)
(0.0534401 1.00601e-05 -0.00535524)
(0.0513908 0.00122034 -0.00478374)
(0.049563 0.00238954 -0.00444498)
(0.0478147 0.00367964 -0.0043236)
(0.0460126 0.00525577 -0.00440536)
(0.0440292 0.00730582 -0.00466968)
(0.0417302 0.0100501 -0.00507287)
(0.0389227 0.0136799 -0.00550077)
(0.0354378 0.0178818 -0.00557327)
(0.0325269 0.0190318 -0.00385351)
(0.0878513 -0.00553091 -0.00659665)
(0.0807896 -0.00723592 -0.0104331)
(0.0723974 -0.00554518 -0.0101336)
(0.0656021 -0.00344539 -0.00874748)
(0.0607397 -0.00170174 -0.0073427)
(0.0571788 -0.000340566 -0.00618635)
(0.0544778 0.000766818 -0.00530919)
(0.0523445 0.00177914 -0.00468714)
(0.0505813 0.00284328 -0.00429405)
(0.0490282 0.00409036 -0.00410697)
(0.0475691 0.00566728 -0.00410495)
(0.0461121 0.00775668 -0.00426186)
(0.0445739 0.0105939 -0.00453179)
(0.0428153 0.0144256 -0.00480964)
(0.0405785 0.0190476 -0.00476871)
(0.0386104 0.0206943 -0.00319037)
(0.0907018 -0.0015471 -0.00665103)
(0.0832154 -0.0019226 -0.0105541)
(0.0742373 -0.00126357 -0.0102358)
(0.0669321 -0.0004553 -0.00880119)
(0.0617393 0.000277913 -0.00734859)
(0.0579835 0.000944546 -0.00615067)
(0.0552099 0.00159456 -0.00523421)
(0.0531204 0.00231988 -0.00457063)
(0.0514918 0.00319255 -0.00412739)
(0.0501787 0.00430167 -0.00387593)
(0.0490937 0.00576185 -0.00378953)
(0.0481971 0.00773291 -0.00383668)
(0.0474953 0.0104511 -0.00396893)
(0.0469916 0.0142452 -0.00409068)
(0.0465283 0.0192741 -0.00393941)
(0.046174 0.0226974 -0.00254055)
(0.0180711 -0.00659634 -0.00321968)
(0.0230496 -0.00487587 -0.0041273)
(0.0277163 -0.00275131 -0.00391807)
(0.0300712 -0.00151019 -0.00349523)
(0.0308478 -0.000814221 -0.0030798)
(0.0308005 -0.000409104 -0.0027325)
(0.0302787 -0.000153642 -0.00247292)
(0.0294405 2.71304e-05 -0.00230928)
(0.0283358 0.000181614 -0.00224595)
(0.0269464 0.000333694 -0.00228621)
(0.0252076 0.000507086 -0.00243071)
(0.0230054 0.000726791 -0.00267414)
(0.0201731 0.00102765 -0.00299706)
(0.0164135 0.00147583 -0.00334636)
(0.0114904 0.00214528 -0.00354697)
(0.00709563 0.00266529 -0.00282368)
(0.0361086 -0.0114306 -0.00425126)
(0.0399365 -0.0108126 -0.0060204)
(0.0438445 -0.00703091 -0.00584755)
(0.0460039 -0.00418787 -0.00523372)
(0.0466346 -0.0023744 -0.00459941)
(0.0463363 -0.00124127 -0.00406062)
(0.0454583 -0.000501511 -0.00365139)
(0.0441763 3.18316e-05 -0.00338377)
(0.0425391 0.000473994 -0.00326378)
(0.0405094 0.00090921 -0.00329487)
(0.0379901 0.00140614 -0.00347719)
(0.0348148 0.00203716 -0.00380193)
(0.030753 0.00289392 -0.00423873)
(0.0254367 0.0041006 -0.00470255)
(0.0186614 0.00570065 -0.00490607)
(0.0126199 0.00672977 -0.00366536)
(0.0510818 -0.0145568 -0.00440056)
(0.0514212 -0.0156871 -0.0065456)
(0.0520308 -0.0109953 -0.0064066)
(0.0521925 -0.00684635 -0.00571248)
(0.05172 -0.00397671 -0.00498746)
(0.0507706 -0.00208963 -0.00437359)
(0.0494887 -0.000813591 -0.00390702)
(0.0479409 0.000132768 -0.00359652)
(0.0461222 0.000928852 -0.00344689)
(0.0439695 0.00172486 -0.00345729)
(0.0413674 0.00264154 -0.00362571)
(0.038149 0.00380492 -0.00394055)
(0.0341013 0.00536391 -0.00436705)
(0.0289101 0.0074766 -0.00481125)
(0.0224543 0.0100699 -0.00496251)
(0.0168505 0.0112533 -0.00359548)
(0.0644343 -0.0145391 -0.00448629)
(0.0617334 -0.017095 -0.00686729)
(0.0589741 -0.0125875 -0.00672588)
(0.0567586 -0.00805763 -0.00595022)
(0.0548555 -0.00473028 -0.00514536)
(0.0530529 -0.00244806 -0.00447068)
(0.0512777 -0.000849774 -0.00395978)
(0.0494638 0.000373588 -0.0036159)
(0.0475364 0.00144144 -0.00343559)
(0.0454013 0.00253371 -0.00341634)
(0.0429288 0.00380801 -0.00355198)
(0.0399642 0.00542858 -0.00382765)
(0.0363287 0.00758068 -0.00420623)
(0.0317787 0.0104308 -0.00459302)
(0.0262523 0.0137767 -0.00468519)
(0.0216076 0.0149242 -0.00332316)
(0.0756193 -0.0125116 -0.00458401)
(0.0707191 -0.0156122 -0.00715526)
(0.0652312 -0.0118737 -0.00700041)
(0.0608756 -0.00771048 -0.00614161)
(0.0575994 -0.00450295 -0.00525684)
(0.0549525 -0.00221882 -0.00452114)
(0.0526889 -0.000556465 -0.00396473)
(0.0506329 0.00076808 -0.00358373)
(0.0486425 0.00197879 -0.00336876)
(0.0465928 0.00325843 -0.00331183)
(0.0443499 0.00478072 -0.00340273)
(0.0417749 0.00673046 -0.0036235)
(0.0387216 0.00931275 -0.00393589)
(0.0349989 0.0126928 -0.00424855)
(0.0305425 0.0165569 -0.0042795)
(0.0268845 0.0175768 -0.00297191)
(0.0842263 -0.00938285 -0.00467669)
(0.0778461 -0.0121555 -0.00739979)
(0.0703838 -0.00939923 -0.00723104)
(0.0643612 -0.00608839 -0.00629865)
(0.0599688 -0.00343558 -0.00534182)
(0.0566261 -0.00147335 -0.00454936)
(0.0539667 2.99274e-05 -0.00394842)
(0.0517343 0.00128788 -0.00352935)
(0.0497391 0.00250756 -0.00327621)
(0.0478362 0.00385715 -0.00317573)
(0.0458953 0.00550667 -0.0032136)
(0.0437989 0.00764732 -0.0033689)
(0.041434 0.0104985 -0.00360299)
(0.038645 0.0142396 -0.00383036)
(0.0353005 0.0185106 -0.0037974)
(0.032558 0.0195194 -0.00256939)
(0.090044 -0.00563951 -0.00474674)
(0.0827557 -0.00741942 -0.00757427)
(0.0740327 -0.00570017 -0.00739264)
(0.0669 -0.00354369 -0.00640387)
(0.0617514 -0.00174627 -0.00539095)
(0.0579487 -0.000339336 -0.00455246)
(0.05504 0.000809485 -0.00391399)
(0.0527251 0.00186447 -0.0034585)
(0.0508004 0.00297715 -0.00316656)
(0.0491036 0.00428383 -0.00301991)
(0.0475207 0.00593598 -0.00300021)
(0.0459681 0.00811959 -0.0030837)
(0.0443803 0.0110701 -0.00323157)
(0.0426472 0.0150244 -0.00336547)
(0.0405346 0.0197339 -0.00326565)
(0.0387015 0.0212509 -0.0021318)
(0.0929692 -0.00157716 -0.00478345)
(0.0852492 -0.00197148 -0.00765973)
(0.0759273 -0.00129895 -0.00746545)
(0.0682705 -0.000466896 -0.00644196)
(0.062782 0.000291293 -0.0053945)
(0.0587808 0.000983226 -0.00452622)
(0.0558002 0.00166163 -0.00385881)
(0.0535336 0.00242067 -0.00337318)
(0.0517522 0.00333617 -0.00304542)
(0.050308 0.00450079 -0.00285362)
(0.0491152 0.00603272 -0.00277607)
(0.0481419 0.00809471 -0.00278642)
(0.0474095 0.0109238 -0.00284565)
(0.0469451 0.0148433 -0.00288326)
(0.0466077 0.0199791 -0.00272102)
(0.0463704 0.0233239 -0.00170939)
(0.0183343 -0.00671018 -0.00195163)
(0.0233569 -0.00497074 -0.00249498)
(0.0280483 -0.00280767 -0.00237808)
(0.030391 -0.001542 -0.00212626)
(0.0311252 -0.000831678 -0.00187602)
(0.0310201 -0.000417848 -0.00166635)
(0.0304331 -0.000156542 -0.00150913)
(0.0295258 2.88882e-05 -0.00140912)
(0.0283498 0.000187572 -0.00136847)
(0.0268887 0.000344274 -0.00138829)
(0.0250814 0.00052317 -0.00146752)
(0.0228208 0.000749624 -0.00160085)
(0.0199528 0.00105873 -0.00177436)
(0.0162002 0.00151637 -0.00195655)
(0.0113511 0.0021945 -0.00205165)
(0.00704054 0.00271561 -0.0016151)
(0.0366564 -0.0116061 -0.00257983)
(0.0404925 -0.0110074 -0.00365031)
(0.0443882 -0.00716494 -0.00355397)
(0.0465051 -0.0042694 -0.00318595)
(0.0470644 -0.00242051 -0.00280268)
(0.0466776 -0.00126424 -0.00247647)
(0.0457023 -0.000508508 -0.00222796)
(0.0443182 3.75707e-05 -0.00206406)
(0.0425764 0.00049093 -0.00198777)
(0.0404421 0.000938323 -0.00199979)
(0.0378231 0.00144956 -0.0020981)
(0.0345631 0.00209775 -0.00227443)
(0.0304498 0.00297462 -0.00250734)
(0.0251446 0.00420258 -0.00274628)
(0.0184781 0.00581787 -0.00283283)
(0.0125648 0.00683147 -0.00209224)
(0.0518783 -0.0147632 -0.00265665)
(0.052169 -0.0159578 -0.00396269)
(0.052708 -0.0111985 -0.00388763)
(0.0527843 -0.00697581 -0.0034729)
(0.0522138 -0.00405128 -0.0030365)
(0.0511583 -0.00212614 -0.00266577)
(0.0497666 -0.000822903 -0.00238301)
(0.0481069 0.000145138 -0.00219345)
(0.0461761 0.000961791 -0.00209927)
(0.0439134 0.00177976 -0.00209876)
(0.0412079 0.00272196 -0.00218856)
(0.0379032 0.00391558 -0.00235876)
(0.0338047 0.00550907 -0.00258536)
(0.0286288 0.00765657 -0.00281263)
(0.0222878 0.0102711 -0.00286853)
(0.0168176 0.0114139 -0.00205516)
(0.0654566 -0.0147367 -0.00269984)
(0.0626639 -0.0173855 -0.00415483)
(0.0597801 -0.012819 -0.00407799)
(0.0574329 -0.00820968 -0.00361446)
(0.0554026 -0.0048184 -0.00313078)
(0.0534766 -0.00248962 -0.00272382)
(0.0515812 -0.00085668 -0.00241457)
(0.0496508 0.000395164 -0.002205)
(0.0476101 0.00149105 -0.00209254)
(0.0453661 0.00261369 -0.00207447)
(0.0427934 0.00392342 -0.00214513)
(0.0397472 0.00558592 -0.00229283)
(0.0360662 0.00778544 -0.00249249)
(0.0315345 0.0106825 -0.00268794)
(0.026119 0.0140548 -0.0027109)
(0.0216005 0.0151387 -0.00190096)
(0.0768314 -0.0126764 -0.00275337)
(0.0718114 -0.0158743 -0.0043279)
(0.0661575 -0.0120913 -0.00424271)