/*--------------------------------*- C++ -*----------------------------------*\
| =========                 |                                                 |
| \\      /  F ield         | foam-extend: Open Source CFD                    |
|  \\    /   O peration     | Version:     3.1                                |
|   \\  /    A nd           | Web:         http://www.extend-project.de       |
|    \\/     M anipulation  |                                                 |
\*---------------------------------------------------------------------------*/
FoamFile
{
    version     2.0;
    format      ascii;
    class       volVectorField;
    location    "3.4";
    object      D;
}
// * * * * * * * * * * * * * * * * * * * * * * * * * * * * * * * * * * * * * //

dimensions      [0 1 0 0 0 0 0];

internalField   nonuniform List<vector> 
256
(
(0.00026147 0.000173838 0.000295344)
(0.000112075 3.36908e-05 8.83519e-05)
(9.94441e-05 -5.10116e-05 -0.000105792)
(0.000221239 -0.000191569 -0.000325471)
(0.00109383 0.000713931 0.000237766)
(0.00090778 0.000191485 8.33856e-05)
(0.00087239 -0.000223913 -0.000147562)
(0.000981466 -0.000743366 -0.000327479)
(0.00214729 0.00110304 0.000159255)
(0.00196031 0.000321942 3.44408e-05)
(0.00191186 -0.000364835 -0.00014115)
(0.00199731 -0.00114858 -0.000293676)
(0.00340143 0.00140387 4.72562e-05)
(0.00323217 0.000416757 -1.70437e-05)
(0.00317504 -0.000485396 -0.000128071)
(0.00322433 -0.00147713 -0.000222321)
(0.00478662 0.00160791 -6.66592e-05)
(0.00463355 0.000474827 -6.86993e-05)
(0.00457042 -0.000583396 -0.000112075)
(0.00459014 -0.00171952 -0.000144774)
(0.00623806 0.00173377 -0.000171001)
(0.00609956 0.00050301 -0.000116995)
(0.00603244 -0.000661833 -9.93193e-05)
(0.00602897 -0.00189057 -7.41253e-05)
(0.00770434 0.0017999 -0.000258074)
(0.00757526 0.000508597 -0.000162503)
(0.00750453 -0.000722706 -9.40845e-05)
(0.00748615 -0.00200346 -2.09542e-05)
(0.00915959 0.00182491 -0.000328931)
(0.00902183 0.000501611 -0.0002076)
(0.00894227 -0.000767385 -9.88559e-05)
(0.00892091 -0.00207468 4.04875e-06)
(0.000293603 0.000172409 0.000146495)
(0.000147836 3.52734e-05 4.55983e-05)
(0.000134942 -4.59432e-05 -6.13487e-05)
(0.000247862 -0.000180278 -0.000174551)
(0.00116282 0.000710677 0.000131895)
(0.000953796 0.000195364 4.03992e-05)
(0.00092056 -0.00021309 -9.7146e-05)
(0.00105422 -0.000726459 -0.00020654)
(0.0021971 0.00111762 8.25821e-05)
(0.00201035 0.000333724 7.99126e-06)
(0.00196445 -0.000360258 -0.000102633)
(0.00205177 -0.00114734 -0.000196092)
(0.00341924 0.00142419 5.8804e-06)
(0.0032523 0.000432689 -3.0481e-05)
(0.0031978 -0.000480234 -9.86691e-05)
(0.00324654 -0.00147674 -0.000155121)
(0.00476357 0.00163251 -7.72272e-05)
(0.00461561 0.000494423 -7.03507e-05)
(0.00455488 -0.00057553 -9.13936e-05)
(0.00457074 -0.00171626 -0.00010468)
(0.00617389 0.00175999 -0.00015571)
(0.00604155 0.000525132 -0.000108796)
(0.00597663 -0.000649173 -8.59277e-05)
(0.00596764 -0.00188048 -5.76149e-05)
(0.00760311 0.00182589 -0.000222788)
(0.00748158 0.00053187 -0.00014538)
(0.00741329 -0.000704352 -8.66233e-05)
(0.00738786 -0.00198444 -2.36712e-05)
(0.00903071 0.00184939 -0.000276524)
(0.00890087 0.000524445 -0.000180209)
(0.00882405 -0.000744178 -9.72794e-05)
(0.00879581 -0.0020472 -1.33154e-05)
(0.000308243 0.000177819 7.05511e-05)
(0.000153441 3.77783e-05 2.11248e-05)
(0.000138554 -4.6278e-05 -3.59968e-05)
(0.000255813 -0.000184132 -9.32072e-05)
(0.00119354 0.000705362 6.28509e-05)
(0.000966173 0.000196152 1.32807e-05)
(0.000930633 -0.000205489 -6.27223e-05)
(0.00107755 -0.000714475 -0.000123265)
(0.00222221 0.00111067 2.99656e-05)
(0.00202154 0.000336987 -9.97648e-06)
(0.00197322 -0.000349508 -7.21584e-05)
(0.00206972 -0.00112799 -0.000122905)
(0.00342666 0.00141738 -2.1999e-05)
(0.00325022 0.000438535 -3.84458e-05)
(0.00319314 -0.000465934 -7.40238e-05)
(0.00324637 -0.00145053 -0.000101469)
(0.00474716 0.00162869 -8.03205e-05)
(0.00459257 0.000503532 -6.85363e-05)
(0.00452906 -0.000557709 -7.29779e-05)
(0.00454616 -0.00168508 -7.18098e-05)
(0.00613137 0.00176085 -0.000137136)
(0.00599461 0.000537715 -9.8297e-05)
(0.00592689 -0.00062786 -7.29185e-05)
(0.00591659 -0.0018453 -4.33797e-05)
(0.00753584 0.00183282 -0.000186945)
(0.00741192 0.00054767 -0.000127097)
(0.00734098 -0.000679948 -7.76916e-05)
(0.0073121 -0.00194641 -2.43303e-05)
(0.00894444 0.00186342 -0.000226782)
(0.00881401 0.000543008 -0.000154426)
(0.00873401 -0.000717422 -9.12655e-05)
(0.00869925 -0.00200746 -2.44157e-05)
(0.000313393 0.000180877 3.17751e-05)
(0.000152108 3.9036e-05 8.34213e-06)
(0.000135542 -4.6399e-05 -2.1025e-05)
(0.000255948 -0.000186112 -4.87112e-05)
(0.00120364 0.00070166 2.38514e-05)
(0.000964856 0.000196579 -5.76983e-07)
(0.00092656 -0.000199689 -4.03852e-05)
(0.00107984 -0.000704743 -7.14537e-05)
(0.00222805 0.00110242 6.338e-08)
(0.00201699 0.000338388 -1.80871e-05)
(0.00196572 -0.000338815 -4.99389e-05)
(0.0020676 -0.00110799 -7.42227e-05)
(0.00342206 0.00140758 -3.57914e-05)
(0.00323741 0.000441742 -3.91933e-05)
(0.00317733 -0.000450848 -5.43054e-05)
(0.00323381 -0.00142241 -6.36116e-05)
(0.00472814 0.00162027 -7.64859e-05)
(0.00456732 0.000509364 -6.1686e-05)
(0.0045008 -0.000538818 -5.65522e-05)
(0.00451917 -0.00165125 -4.71692e-05)
(0.00609591 0.0017561 -0.000117045)
(0.00595464 0.000546731 -8.43626e-05)
(0.00588396 -0.000605823 -5.94888e-05)
(0.00587317 -0.0018078 -3.12016e-05)
(0.00748405 0.0018334 -0.00015351)
(0.00735712 0.000560006 -0.000106741)
(0.00728324 -0.000655481 -6.61604e-05)
(0.00725217 -0.00190692 -2.18987e-05)
(0.00887928 0.00187006 -0.000182889)
(0.00874664 0.000558651 -0.000128184)
(0.00866281 -0.000691105 -7.99594e-05)
(0.00862359 -0.00196707 -2.73972e-05)
(0.000314863 0.000182242 1.26885e-05)
(0.000149663 3.97151e-05 2.26495e-06)
(0.00013191 -4.62852e-05 -1.20842e-05)
(0.000253814 -0.000186537 -2.46376e-05)
(0.00120488 0.000699118 4.46102e-06)
(0.000959131 0.00019717 -6.13299e-06)
(0.000918626 -0.000195157 -2.56617e-05)
(0.00107483 -0.000696704 -4.02674e-05)
(0.00222502 0.00109662 -1.31327e-05)
(0.00200714 0.000339765 -1.92656e-05)
(0.00195348 -0.000329904 -3.37545e-05)
(0.00205803 -0.00109175 -4.34023e-05)
(0.00341195 0.00140033 -3.79789e-05)
(0.00322149 0.00044452 -3.46635e-05)
(0.00315904 -0.000437933 -3.85368e-05)
(0.0032173 -0.0013992 -3.84213e-05)
(0.00470878 0.00161362 -6.61058e-05)
(0.0045433 0.000514163 -5.10924e-05)
(0.00447449 -0.000522483 -4.19527e-05)
(0.0044936 -0.00162286 -2.97108e-05)
(0.00606593 0.00175184 -9.45379e-05)
(0.00592107 0.000553989 -6.78836e-05)
(0.00584819 -0.000586748 -4.59426e-05)
(0.00583712 -0.00177596 -2.13343e-05)
(0.00744301 0.00183276 -0.000120614)
(0.00731347 0.00056985 -8.47186e-05)
(0.00723736 -0.000634353 -5.27374e-05)
(0.00720494 -0.00187307 -1.76693e-05)
(0.00882818 0.00187355 -0.000141729)
(0.00869344 0.000571097 -0.000100972)
(0.00860667 -0.000668384 -6.48867e-05)
(0.00856455 -0.00193219 -2.49032e-05)
(0.000315067 0.000182792 4.01449e-06)
(0.000147607 4.01016e-05 -1.58337e-07)
(0.000129053 -4.60812e-05 -6.69066e-06)
(0.000251518 -0.0001863 -1.1852e-05)
(0.0012031 0.000697466 -3.15701e-06)
(0.000953205 0.000197829 -6.87444e-06)
(0.000911133 -0.000191782 -1.56304e-05)
(0.00106856 -0.00069054 -2.17146e-05)
(0.00221939 0.00109309 -1.55395e-05)
(0.00199725 0.000341178 -1.61294e-05)
(0.00194188 -0.000323182 -2.16269e-05)
(0.00204766 -0.00107981 -2.42137e-05)
(0.00340127 0.00139593 -3.20657e-05)
(0.00320699 0.000447051 -2.67183e-05)
(0.00314289 -0.000428099 -2.56494e-05)
(0.00320202 -0.00138215 -2.20382e-05)
(0.00469198 0.00160956 -5.06382e-05)
(0.00452332 0.000518179 -3.80006e-05)
(0.00445294 -0.000509971 -2.88731e-05)
(0.00447241 -0.00160179 -1.76632e-05)
(0.00604212 0.00174921 -6.95619e-05)
(0.00589474 0.000559739 -4.9635e-05)
(0.00582038 -0.000572085 -3.25593e-05)
(0.00580911 -0.00175206 -1.35943e-05)
(0.00741166 0.00183233 -8.71567e-05)
(0.00728019 0.000577389 -6.14251e-05)
(0.00720259 -0.000618077 -3.82054e-05)
(0.00716937 -0.00184737 -1.27001e-05)
(0.00878947 0.00187564 -0.000101459)
(0.00865303 0.000580443 -7.28616e-05)
(0.0085643 -0.000650834 -4.75251e-05)
(0.00852047 -0.00190542 -1.92298e-05)
(0.000314939 0.000182978 7.30038e-07)
(0.000146249 4.03165e-05 -6.82712e-07)
(0.000127198 -4.5894e-05 -3.32621e-06)
(0.000249803 -0.000185927 -5.14817e-06)
(0.00120101 0.000696473 -4.1072e-06)
(0.000948792 0.000198375 -4.97686e-06)
(0.000905727 -0.000189539 -8.39556e-06)
(0.00106359 -0.000686385 -1.0513e-05)
(0.00221443 0.00109114 -1.15264e-05)
(0.00198981 0.00034233 -1.05088e-05)
(0.00193336 -0.000318716 -1.20495e-05)
(0.00203965 -0.00107201 -1.20591e-05)
(0.00339295 0.00139357 -2.10562e-05)
(0.00319639 0.000449002 -1.67343e-05)
(0.00313124 -0.000421551 -1.46726e-05)
(0.00319074 -0.00137107 -1.1216e-05)
(0.00467979 0.00160743 -3.16948e-05)
(0.00450919 0.000521115 -2.33568e-05)
(0.00443783 -0.000501616 -1.68907e-05)
(0.00445744 -0.00158806 -9.23815e-06)
(0.00602558 0.00174789 -4.25784e-05)
(0.0058766 0.000563773 -3.02214e-05)
(0.00580134 -0.000562269 -1.94133e-05)
(0.00578993 -0.00173637 -7.48748e-06)
(0.00739032 0.00183222 -5.27807e-05)
(0.00725759 0.000582527 -3.72203e-05)
(0.0071791 -0.000607158 -2.30955e-05)
(0.00714542 -0.00183034 -7.58057e-06)
(0.00876325 0.00187692 -6.10907e-05)
(0.00862566 0.000586694 -4.40214e-05)
(0.00853574 -0.000639033 -2.89094e-05)
(0.00849099 -0.00188753 -1.19773e-05)
(0.000314813 0.000183025 -5.36833e-09)
(0.000145587 4.04135e-05 -3.14198e-07)
(0.000126298 -4.57862e-05 -1.00218e-06)
(0.000248912 -0.000185684 -1.4193e-06)
(0.00119975 0.000696007 -1.70628e-06)
(0.000946494 0.000198678 -1.78706e-06)
(0.00090295 -0.00018842 -2.64363e-06)
(0.00106093 -0.000684299 -3.11341e-06)
(0.00221164 0.00109029 -4.18262e-06)
(0.0019859 0.000342969 -3.62988e-06)
(0.00192893 -0.000316491 -3.86836e-06)
(0.0020354 -0.00106816 -3.63184e-06)
(0.00338846 0.00139257 -7.30409e-06)
(0.00319084 0.000450061 -5.68705e-06)
(0.00312519 -0.000418288 -4.7747e-06)
(0.00318483 -0.00136563 -3.41972e-06)
(0.00467341 0.00160655 -1.0776e-05)
(0.00450189 0.000522666 -7.87346e-06)
(0.00443007 -0.000497449 -5.55864e-06)
(0.00444972 -0.00158131 -2.8597e-06)
(0.00601708 0.00174736 -1.43338e-05)
(0.00586735 0.000565856 -1.0145e-05)
(0.00579166 -0.000557367 -6.44886e-06)
(0.00578018 -0.00172862 -2.38374e-06)
(0.00737946 0.0018322 -1.76819e-05)
(0.00724614 0.000585137 -1.24671e-05)
(0.00716723 -0.000601696 -7.72277e-06)
(0.00713334 -0.00182189 -2.5133e-06)
(0.00874992 0.00187748 -2.04108e-05)
(0.00861179 0.000589842 -1.4724e-05)
(0.00852133 -0.000633112 -9.69404e-06)
(0.00847616 -0.00187862 -4.05191e-06)
)
;

boundaryField
{
    interface
    {
        type            tractionDisplacement;
        gradient        nonuniform List<vector> 
192
(
(0.0246416 0.0340955 0.000654132)
(0.0118214 0.0338878 0.00151146)
(0.0131443 0.0446395 0.00035086)
(0.0108422 0.0508095 -0.0016016)
(0.00927256 0.0552314 -0.00363988)
(0.00781532 0.0574175 -0.00556843)
(0.00700698 0.0582029 -0.0071253)
(0.00658624 0.0591679 -0.00798513)
(0.0251236 0.0362293 0.000461241)
(0.0136687 0.0338135 0.00118483)
(0.0133302 0.0432345 0.000634781)
(0.0112182 0.049222 -0.000521583)
(0.0095382 0.0535256 -0.00183204)
(0.00813987 0.0559005 -0.00316267)
(0.00736254 0.0570412 -0.00431788)
(0.00690863 0.0587264 -0.00504343)
(0.0261177 0.0375329 0.000103815)
(0.0142673 0.0338838 0.000343789)
(0.0137665 0.0425038 4.24919e-05)
(0.0114312 0.0482478 -0.000589426)
(0.00956567 0.05242 -0.00141414)
(0.00805715 0.0548536 -0.00228622)
(0.00722587 0.0561786 -0.00308686)
(0.00661449 0.0582996 -0.00364578)
(0.0267424 0.0381301 -6.63863e-05)
(0.014742 0.0338586 -7.57553e-05)
(0.014224 0.0421323 -0.000309276)
(0.0117663 0.0476423 -0.000701589)
(0.00977434 0.0517134 -0.00121448)
(0.00816729 0.0541488 -0.00177709)
(0.00727276 0.0555645 -0.00232092)
(0.00656859 0.0579257 -0.00274023)
(0.0270682 0.0383657 -0.000120928)
(0.0150531 0.0337818 -0.000231689)
(0.0145505 0.0418873 -0.000429211)
(0.0120387 0.0472652 -0.000697037)
(0.00997592 0.0512646 -0.00102915)
(0.00830255 0.0536829 -0.00139774)
(0.00736073 0.0551331 -0.00177155)
(0.00658448 0.0576175 -0.0020863)
(0.0272264 0.0384369 -0.000112766)
(0.0152423 0.0336901 -0.000234498)
(0.0147626 0.0417114 -0.000387749)
(0.0122295 0.0470215 -0.000570662)
(0.0101305 0.0509776 -0.000785302)
(0.0084193 0.053377 -0.00102282)
(0.00744894 0.0548337 -0.00127069)
(0.00663381 0.0573787 -0.00148998)
(0.027297 0.0384461 -7.52401e-05)
(0.0153466 0.0336141 -0.00016193)
(0.0148858 0.0415932 -0.000258912)
(0.0123458 0.0468705 -0.000367652)
(0.0102294 0.0508032 -0.000490684)
(0.00849843 0.0531885 -0.000626091)
(0.00751246 0.0546428 -0.000769441)
(0.00667672 0.0572163 -0.000899574)
(0.0273226 0.0384413 -2.59465e-05)
(0.0153916 0.0335724 -5.67886e-05)
(0.0149408 0.0415335 -8.9897e-05)
(0.012399 0.0467974 -0.000126147)
(0.010276 0.0507199 -0.000166486)
(0.0085366 0.0530983 -0.000210775)
(0.00754311 0.0545501 -0.000257885)
(0.00669742 0.0571322 -0.000301039)
(-0.00187177 0.0119616 0.0131558)
(-0.00353472 -0.00388418 0.0019339)
(-0.00151853 -0.00344744 0.00319165)
(0.000640943 -0.00468351 0.0014361)
(0.00318172 -0.00457641 0.000426964)
(0.00549832 -0.00413644 -0.000553811)
(0.00736626 -0.00350019 -0.00118822)
(0.00875661 -0.00244335 -0.00198047)
(-0.00465059 0.00440087 0.00285908)
(-0.00824123 -0.00158726 0.000552445)
(-0.00572509 -0.00138344 0.000340473)
(-0.00310767 -0.00180559 -0.000227305)
(-0.000184747 -0.00187552 -0.000602109)
(0.00245372 -0.0018933 -0.000932256)
(0.00468837 -0.00192625 -0.00118928)
(0.0065588 -0.00170688 -0.00172338)
(-0.0049968 -0.00615016 -0.00369613)
(-0.00871564 0.000804502 -0.000898315)
(-0.00634593 0.00075469 -0.00120625)
(-0.00373075 0.00114619 -0.000969464)
(-0.000834403 0.000915548 -0.000817692)
(0.00182614 0.000496322 -0.000632017)
(0.00413331 -6.90714e-05 -0.000471479)
(0.00597904 -0.000690352 -8.28913e-05)
(-0.00314778 -0.0152901 -0.0131058)
(-0.0051544 0.00243026 -0.00239245)
(-0.0037006 0.00241761 -0.00398878)
(-0.00167943 0.00370556 -0.00253744)
(0.000718296 0.00341719 -0.00173065)
(0.00300277 0.00272885 -0.000882084)
(0.00496536 0.00165769 -0.000230513)
(0.00639353 0.000101278 0.000502058)
(0.0204916 -0.0325729 -0.00150616)
(0.0083481 -0.0332936 -0.00327077)
(0.00818364 -0.0451 -0.00279577)
(0.0050246 -0.0514311 -0.00110927)
(0.0027975 -0.0557496 0.000833389)
(0.000974872 -0.0576023 0.00283128)
(-0.000112879 -0.057757 0.00460333)
(-0.000334805 -0.0569803 0.00585401)
(0.0201227 -0.0350892 -0.000840987)
(0.00989033 -0.0339191 -0.00183236)
(0.00809203 -0.0438984 -0.00153673)
(0.00509072 -0.049964 -0.000444817)
(0.00273768 -0.054049 0.000879722)
(0.000915558 -0.0559818 0.00228555)
(-0.000216914 -0.0563789 0.0035671)
(-0.000398447 -0.0560667 0.00460454)
(0.020772 -0.0362836 -0.000335254)
(0.0104242 -0.034176 -0.000658819)
(0.00855816 -0.0432333 -0.000448899)
(0.0053879 -0.0490049 0.00016551)
(0.00286272 -0.052899 0.00101328)
(0.00090668 -0.0548324 0.00194082)
(-0.000341391 -0.0553393 0.00284305)
(-0.000707741 -0.0551647 0.00365793)
(0.0211397 -0.0366559 -8.10777e-05)
(0.0108005 -0.0341658 -9.11638e-05)
(0.00892278 -0.0428821 0.000115127)
(0.00565638 -0.048403 0.000511311)
(0.00300854 -0.0521629 0.00104507)
(0.000939848 -0.0540537 0.00164768)
(-0.000416535 -0.0545721 0.00226474)
(-0.000893416 -0.0544094 0.00286833)
(0.0212776 -0.0366563 2.23619e-05)
(0.0110244 -0.0340528 0.000129683)
(0.00914611 -0.0426271 0.000319934)
(0.00583165 -0.0480198 0.000596269)
(0.00311334 -0.0516906 0.000943778)
(0.000968732 -0.0535322 0.00133816)
(-0.000465312 -0.0540252 0.00175693)
(-0.00101149 -0.0538253 0.00219133)
(0.0213034 -0.0365337 4.91918e-05)
(0.0111444 -0.0339188 0.000171472)
(0.0092706 -0.0424325 0.000323339)
(0.00593323 -0.0477662 0.00051372)
(0.00317635 -0.0513852 0.000738346)
(0.000987348 -0.0531875 0.000990696)
(-0.000494204 -0.0536484 0.00126357)
(-0.00107476 -0.0534023 0.00155601)
(0.02129 -0.0364092 3.98935e-05)
(0.0112024 -0.0338105 0.000127596)
(0.00933394 -0.0422978 0.000224618)
(0.00598685 -0.0476061 0.000338011)
(0.00321022 -0.0511979 0.000466412)
(0.000997548 -0.0529748 0.000608951)
(-0.000509987 -0.0534107 0.000764354)
(-0.00110612 -0.0531283 0.000933482)
(0.0212754 -0.0363368 1.4787e-05)
(0.0112253 -0.0337515 4.60715e-05)
(0.00936014 -0.0422287 7.93258e-05)
(0.00600968 -0.0475276 0.000117129)
(0.00322474 -0.051108 0.000159129)
(0.00100188 -0.0528726 0.000205428)
(-0.00051665 -0.0532954 0.000256112)
(-0.0011188 -0.0529936 0.000311498)
(0.0590967 0.000574498 -0.00179817)
(0.0588548 0.000384043 -0.00102132)
(0.0586089 0.000771112 -0.000771169)
(0.0583338 0.00100641 -0.000504608)
(0.058065 0.00118851 -0.00034539)
(0.0578454 0.00129957 -0.000228344)
(0.057692 0.00136262 -0.000132482)
(0.0576116 0.00138701 -4.34688e-05)
(0.0544381 0.000642562 -0.00117439)
(0.0542718 0.000506956 -0.000851829)
(0.0540128 0.000639649 -0.000771902)
(0.0536937 0.000785061 -0.000628059)
(0.0533582 0.000915093 -0.000487806)
(0.0530775 0.00100865 -0.000346835)
(0.0528818 0.00106821 -0.000207247)
(0.0527839 0.00109784 -6.87108e-05)
(0.0536198 -0.00150005 -0.000626215)
(0.0533472 -0.00130745 -0.000898491)
(0.0529022 -0.00122271 -0.000984004)
(0.0524416 -0.00114049 -0.000927029)
(0.0520188 -0.00106503 -0.000767598)
(0.0516826 -0.00100259 -0.000562364)
(0.051454 -0.000958343 -0.000339997)
(0.0513392 -0.000934529 -0.00011339)
(0.0560418 -0.0022189 -0.000356599)
(0.055403 -0.00188298 -0.00126351)
(0.0546533 -0.00194075 -0.00145747)
(0.053984 -0.00195244 -0.00139313)
(0.0534358 -0.00194439 -0.00115436)
(0.0530272 -0.00191775 -0.000844639)
(0.0527581 -0.00189109 -0.000510042)
(0.0526243 -0.00187501 -0.000170159)
)
;
        traction        nonuniform List<vector> 
192
(
(21.399 -0.671258 -2.33267)
(21.4635 -0.777691 -4.04116)
(21.3516 -1.10476 -4.83464)
(21.551 -1.19831 -5.27377)
(22.0663 -1.018 -5.51392)
(22.7748 -0.459904 -5.56301)
(23.4203 0.68044 -5.34954)
(22.506 2.54623 -4.67216)
(24.2068 -1.00217 -1.68683)
(24.6131 -1.13578 -2.93979)
(25.2626 -1.51776 -3.5212)
(26.1793 -1.60717 -3.8324)
(27.2201 -1.3523 -3.98172)
(28.1431 -0.621242 -3.9742)
(28.3332 0.861124 -3.76601)
(25.1929 3.16105 -3.25638)
(26.0354 -1.15702 -1.21253)
(26.4047 -1.28405 -2.10449)
(27.206 -1.68678 -2.48896)
(28.304 -1.7647 -2.67674)
(29.4625 -1.4517 -2.75411)
(30.3468 -0.603903 -2.72935)
(30.1461 1.07131 -2.58529)
(25.8735 3.54483 -2.27126)
(27.3538 -1.23518 -0.88732)
(27.6607 -1.34942 -1.54216)
(28.4815 -1.76336 -1.81181)
(29.6218 -1.82983 -1.93408)
(30.7951 -1.47628 -1.9803)
(31.6035 -0.55151 -1.95983)
(31.1354 1.24019 -1.86864)
(26.1879 3.80177 -1.66682)
(28.3068 -1.27886 -0.638682)
(28.5733 -1.38026 -1.11378)
(29.3841 -1.79855 -1.30504)
(30.5255 -1.85696 -1.38774)
(31.6877 -1.47679 -1.4185)
(32.4312 -0.502163 -1.40608)
(31.7868 1.36451 -1.35102)
(26.3918 3.98113 -1.21807)
(28.9764 -1.30421 -0.432968)
(29.2165 -1.39497 -0.75744)
(30.0135 -1.81447 -0.886858)
(31.1463 -1.86779 -0.941473)
(32.2936 -1.47083 -0.962358)
(32.9909 -0.46422 -0.956031)
(32.2329 1.45133 -0.923893)
(26.5393 4.10386 -0.838136)
(29.4045 -1.31918 -0.249689)
(29.6313 -1.40242 -0.43836)
(30.4185 -1.82162 -0.512974)
(31.5433 -1.87195 -0.544071)
(32.6801 -1.46507 -0.556434)
(33.3484 -0.438748 -0.55358)
(32.5213 1.50711 -0.535137)
(26.644 4.17895 -0.483441)
(29.6044 -1.32534 -0.0807797)
(29.8245 -1.40423 -0.14226)
(30.6031 -1.82277 -0.166295)
(31.7206 -1.87208 -0.176228)
(32.8538 -1.46073 -0.180298)
(33.5082 -0.423247 -0.179447)
(32.6363 1.54005 -0.172717)
(26.6521 4.2113 -0.154002)
(2.70658 0.552145 9.58308)
(4.67199 0.983827 6.25982)
(5.61244 0.934301 3.0889)
(6.2494 0.736433 0.701003)
(6.78715 0.607945 -0.89469)
(7.30081 0.659404 -1.74019)
(7.90799 0.905532 -1.83499)
(9.0254 1.17969 -1.06911)
(1.75183 0.493178 8.57399)
(3.18592 0.957364 7.22212)
(3.73935 1.09092 5.38056)
(4.02055 0.947847 3.84902)
(4.24641 0.724983 2.81531)
(4.52843 0.554324 2.27439)
(5.0338 0.476924 2.14784)
(6.37287 0.34946 2.10758)
(1.35473 0.396662 7.88234)
(2.65804 0.756742 7.4342)
(3.19319 0.979363 6.31241)
(3.42314 0.899969 5.25655)
(3.57108 0.677672 4.54845)
(3.77514 0.442308 4.20043)
(4.21495 0.247812 4.15105)
(5.48998 0.0192468 4.11757)
(1.27276 0.385844 6.95034)
(2.63679 0.665027 6.80017)
(3.28378 0.906015 5.91871)
(3.57262 0.849954 5.04236)
(3.73662 0.635414 4.44653)
(3.93418 0.376178 4.12759)
(4.34452 0.0999979 4.00906)
(5.51354 -0.276464 3.9921)
(-4.23599 0.407659 0.295157)
(-3.29077 0.705147 0.542917)
(-2.26917 0.910692 0.565934)
(-1.48432 0.896157 0.537989)
(-0.896351 0.758584 0.564399)
(-0.313946 0.569757 0.685773)
(0.688464 0.257962 0.915864)
(3.60753 -1.01897 1.21646)
(-4.98552 0.289247 -0.0806787)
(-4.81951 0.478816 -0.114267)
(-4.46177 0.677337 -0.181964)
(-4.07101 0.744865 -0.233058)
(-3.69128 0.726738 -0.221639)
(-3.22136 0.675653 -0.138689)
(-2.24541 0.531629 0.00104723)
(0.884348 -0.585176 0.169876)
(-5.40734 0.241925 -0.144826)
(-5.43773 0.369383 -0.216643)
(-5.27693 0.558559 -0.252658)
(-5.01379 0.672914 -0.260951)
(-4.67543 0.731767 -0.224399)
(-4.17177 0.766695 -0.144952)
(-3.11349 0.705788 -0.0493753)
(-0.12826 -0.24068 0.0109861)
(-5.71124 0.228272 -0.136363)
(-5.79492 0.323501 -0.203807)
(-5.71268 0.508874 -0.217392)
(-5.4991 0.654812 -0.201417)
(-5.15957 0.767845 -0.154886)
(-4.60865 0.862066 -0.0870943)
(-3.48511 0.85329 -0.0256267)
(-0.572642 0.0125197 -0.0111645)
(-5.9354 0.225863 -0.107013)
(-6.03601 0.307301 -0.15944)
(-5.98651 0.494967 -0.160694)
(-5.78998 0.66424 -0.136375)
(-5.43716 0.81393 -0.0929738)
(-4.8487 0.945215 -0.0426611)
(-3.69226 0.968228 -0.00928745)
(-0.843432 0.195002 -0.0205904)
(-6.0881 0.227307 -0.0729322)
(-6.1924 0.304782 -0.107719)
(-6.15416 0.497541 -0.103536)
(-5.96029 0.683252 -0.0807341)
(-5.59381 0.855972 -0.047375)
(-4.98149 1.00863 -0.014373)
(-3.81408 1.04802 0.0008204)
(-1.02322 0.317851 -0.0205074)
(-6.18129 0.229432 -0.0411787)
(-6.28526 0.307029 -0.0601422)
(-6.24976 0.504717 -0.0557007)
(-6.05397 0.700797 -0.0403412)
(-5.67768 0.886536 -0.0200613)
(-5.05143 1.05015 -0.00202907)
(-3.88357 1.09728 0.00366421)
(-1.13593 0.392796 -0.0150224)
(-6.22394 0.230907 -0.0131315)
(-6.32654 0.309151 -0.0190089)
(-6.29145 0.509463 -0.0172515)
(-6.09438 0.710432 -0.0119687)
(-5.71421 0.902039 -0.0053101)
(-5.08349 1.07076 0.00030237)
(-3.91304 1.11992 0.00178363)
(-1.1968 0.428074 -0.00583229)
(9.73635 0.158553 -2.39717)
(9.34871 1.96347 -2.00169)
(9.42328 3.40727 -1.57365)
(9.58784 4.53747 -1.22945)
(9.74859 5.37769 -0.936523)
(9.87984 5.97124 -0.667712)
(9.97168 6.33529 -0.410327)
(10.0123 6.43855 -0.141681)
(6.84133 -1.96248 -0.79785)
(5.91776 -1.04651 -0.699798)
(5.71984 -0.0459422 -0.536517)
(5.69229 0.781831 -0.42166)
(5.70727 1.39337 -0.331086)
(5.73174 1.82311 -0.242325)
(5.75748 2.10258 -0.148106)
(5.78208 2.26315 -0.0495064)
(5.67656 -3.64457 -0.0969123)
(4.57778 -2.98669 -0.131476)
(4.22932 -2.25272 -0.107592)
(4.08039 -1.66277 -0.10012)
(4.00023 -1.23853 -0.0945302)
(3.95287 -0.947221 -0.0779164)
(3.92602 -0.762957 -0.0485528)
(3.91329 -0.658277 -0.0153329)
(5.48622 -3.54852 0.332236)
(4.38253 -3.03678 0.121185)
(3.96882 -2.57446 0.0355057)
(3.75577 -2.19996 -0.00998757)
(3.62244 -1.93396 -0.0349726)
(3.53384 -1.75852 -0.0398377)
(3.47776 -1.65351 -0.0292669)
(3.44709 -1.60626 -0.0103512)
)
;
        pressure        uniform 0;
        value           nonuniform List<vector> 
192
(
(0.000569491 0.000600032 0.000303521)
(0.0012416 0.00113753 0.000256659)
(0.00231159 0.00166103 0.000163641)
(0.00353696 0.00203899 2.72362e-05)
(0.00490252 0.0022983 -0.000112158)
(0.00633575 0.00245149 -0.000240606)
(0.00779192 0.00252743 -0.00034714)
(0.00924192 0.00256451 -0.000428745)
(0.000607649 0.000625275 0.00015226)
(0.00133368 0.00113335 0.000146705)
(0.00236373 0.00165805 9.05169e-05)
(0.00355946 0.00203947 -6.39383e-07)
(0.0048828 0.00230158 -0.000100128)
(0.00627564 0.00245874 -0.000195244)
(0.00769515 0.0025389 -0.000276761)
(0.00911707 0.00258347 -0.000339567)
(0.000634714 0.00064698 7.18488e-05)
(0.00137188 0.00112891 6.71483e-05)
(0.00239429 0.00164196 3.04967e-05)
(0.00356955 0.00202048 -2.93669e-05)
(0.00486673 0.00228394 -9.79972e-05)
(0.00623209 0.00244652 -0.000165714)
(0.00762616 0.00253505 -0.000225531)
(0.00902712 0.00259216 -0.000272354)
(0.000647673 0.000657504 3.09453e-05)
(0.00138792 0.00112489 2.29045e-05)
(0.00240585 0.00162907 -3.80256e-06)
(0.00356913 0.00200311 -4.45613e-05)
(0.00485031 0.00226668 -9.16669e-05)
(0.00619801 0.00243296 -0.000139259)
(0.00757496 0.00252796 -0.000182522)
(0.00896139 0.00259413 -0.000217142)
(0.000653216 0.000661813 1.11769e-05)
(0.00139305 0.00112139 1.5649e-06)
(0.0024069 0.00162021 -1.84978e-05)
(0.00356244 0.00199115 -4.66918e-05)
(0.00483348 0.00225443 -7.89701e-05)
(0.00616971 0.00242287 -0.00011201)
(0.00753502 0.00252192 -0.000142759)
(0.00891049 0.00259376 -0.000167808)
(0.000655396 0.000663254 2.60491e-06)
(0.00139363 0.00111859 -6.08823e-06)
(0.00240392 0.00161448 -2.03864e-05)
(0.00355414 0.0019837 -3.9199e-05)
(0.00481861 0.00224678 -6.04544e-05)
(0.00614736 0.00241642 -8.23471e-05)
(0.00750477 0.00251775 -0.00010304)
(0.00887239 0.00259287 -0.000120084)
(0.000656152 0.000663554 -2.10463e-07)
(0.00139284 0.00111665 -6.13133e-06)
(0.0024005 0.00161106 -1.47628e-05)
(0.00354727 0.00197945 -2.56518e-05)
(0.00480766 0.00224247 -3.78283e-05)
(0.00613181 0.00241274 -5.04045e-05)
(0.00748423 0.00251525 -6.23987e-05)
(0.00884671 0.00259213 -7.23354e-05)
(0.000656346 0.000663541 -3.29699e-07)
(0.00139214 0.00111566 -2.41614e-06)
(0.0023984 0.00160946 -5.30634e-06)
(0.00354345 0.00197754 -8.88093e-06)
(0.00480186 0.00224054 -1.2857e-05)
(0.00612379 0.00241109 -1.69685e-05)
(0.00747374 0.00251408 -2.09054e-05)
(0.00883363 0.00259163 -2.41738e-05)
(0.000238073 0.000323358 0.000459792)
(0.00104965 0.000665379 0.00026194)
(0.00212831 0.00105995 0.000199151)
(0.00340944 0.00134533 6.52074e-05)
(0.00482639 0.0015507 -6.13222e-05)
(0.00630679 0.00168206 -0.000177924)
(0.00779641 0.00175614 -0.000272927)
(0.00926905 0.00179437 -0.000353687)
(5.39429e-05 8.87016e-05 0.00012409)
(0.000804765 0.000171644 9.02911e-05)
(0.00188874 0.000304649 3.86967e-05)
(0.00319333 0.000394187 -1.9885e-05)
(0.00463124 0.000451383 -7.62257e-05)
(0.00613023 0.000479344 -0.000128648)
(0.00763386 0.000484519 -0.000177369)
(0.00910381 0.000480275 -0.000229143)
(3.69841e-05 -0.000127889 -0.000151994)
(0.000763444 -0.000213856 -0.000158791)
(0.00183254 -0.000355401 -0.000156228)
(0.0031284 -0.000471068 -0.00014019)
(0.00455999 -0.000571952 -0.000122296)
(0.00605527 -0.000655629 -0.00010722)
(0.00755619 -0.00072357 -9.9978e-05)
(0.009017 -0.000776015 -9.98921e-05)
(0.000181892 -0.000382695 -0.000489294)
(0.000917036 -0.000712988 -0.000357384)
(0.00195106 -0.00111836 -0.000343536)
(0.00320334 -0.00143081 -0.000254039)
(0.00459912 -0.0016768 -0.000166407)
(0.0060665 -0.00185646 -8.51513e-05)
(0.00754822 -0.00198274 -2.38356e-05)
(0.00900082 -0.00207342 1.03245e-05)
(0.000477384 -0.00059873 -0.000344298)
(0.00108582 -0.00115954 -0.000368363)
(0.00209961 -0.00171233 -0.000328623)
(0.00328714 -0.00212002 -0.000236187)
(0.00462511 -0.00241639 -0.000134357)
(0.00604115 -0.0026106 -3.87342e-05)
(0.00748474 -0.00272542 3.65874e-05)
(0.00891672 -0.00278694 7.72239e-05)
(0.000499396 -0.000618892 -0.000185063)
(0.00117785 -0.00115045 -0.000229445)
(0.00215292 -0.00169607 -0.000215301)
(0.00331017 -0.00210129 -0.000160682)
(0.00460496 -0.00239188 -9.36832e-05)
(0.00597908 -0.00258025 -2.90454e-05)
(0.00738515 -0.00268918 2.09175e-05)
(0.00879083 -0.00274803 4.42414e-05)
(0.000515462 -0.000637677 -9.73978e-05)
(0.00120786 -0.00114168 -0.0001315)
(0.0021767 -0.00166841 -0.000128516)
(0.00331372 -0.00206309 -9.94002e-05)
(0.00458195 -0.00234632 -5.91438e-05)
(0.00592792 -0.0025307 -1.91194e-05)
(0.00730783 -0.00263816 1.12079e-05)
(0.00869041 -0.00269702 2.13085e-05)
(0.000520194 -0.000644311 -4.97247e-05)
(0.00121485 -0.00113182 -7.25932e-05)
(0.00217914 -0.00164402 -7.27836e-05)
(0.00330452 -0.00202745 -5.72202e-05)
(0.00455678 -0.00230329 -3.41058e-05)
(0.00588491 -0.00248347 -1.06056e-05)
(0.00724697 -0.00258907 6.41054e-06)
(0.00861242 -0.00264719 8.45697e-06)
(0.000519784 -0.00064474 -2.4358e-05)
(0.00121263 -0.00112236 -3.86463e-05)
(0.00217235 -0.00162459 -3.94032e-05)
(0.0032902 -0.00199945 -3.09679e-05)
(0.00453252 -0.00226899 -1.79135e-05)
(0.00584923 -0.00244511 -4.60731e-06)
(0.00719913 -0.00254839 4.29231e-06)
(0.00855191 -0.00260501 2.48847e-06)
(0.00051781 -0.000642971 -1.12371e-05)
(0.00120786 -0.00111453 -1.95712e-05)
(0.00216354 -0.00161021 -2.01719e-05)
(0.00327618 -0.00197922 -1.56167e-05)
(0.00451211 -0.00224411 -8.43383e-06)
(0.00582145 -0.0024169 -1.21062e-06)
(0.00716319 -0.00251797 3.09451e-06)
(0.00850704 -0.00257294 2.20284e-07)
(0.000515928 -0.000641042 -4.6495e-06)
(0.00120362 -0.00110902 -8.91803e-06)
(0.00215633 -0.00160073 -9.2514e-06)
(0.00326558 -0.00196615 -6.99083e-06)
(0.00449756 -0.00222803 -3.408e-06)
(0.0058024 -0.00239855 1.24409e-07)
(0.00713904 -0.00249797 1.97386e-06)
(0.00847716 -0.00255163 -3.08811e-07)
(0.000514854 -0.000639894 -1.23446e-06)
(0.00120124 -0.00110619 -2.53751e-06)
(0.0021524 -0.00159602 -2.64027e-06)
(0.00325995 -0.00195973 -1.95561e-06)
(0.00449003 -0.00222016 -8.7059e-07)
(0.00579271 -0.00238953 1.84103e-07)
(0.00712688 -0.00248808 6.88106e-07)
(0.00846218 -0.00254104 -1.58186e-07)
(0.0098983 0.00183209 -0.000351408)
(0.0097664 0.00185419 -0.000289291)
(0.00967705 0.00187306 -0.000236422)
(0.00960846 0.00188264 -0.000189196)
(0.00955399 0.0018884 -0.000146047)
(0.00951254 0.00189188 -0.000104313)
(0.0094844 0.00189395 -6.27468e-05)
(0.00947006 0.00189482 -2.09541e-05)
(0.00970231 0.000509643 -0.00022228)
(0.00957927 0.000530782 -0.000190857)
(0.00948917 0.000551004 -0.000164075)
(0.00941781 0.000568465 -0.000136035)
(0.00936042 0.000582536 -0.00010707)
(0.0093165 0.000593051 -7.7197e-05)
(0.00928668 0.000600047 -4.66119e-05)
(0.00927159 0.000603565 -1.55829e-05)
(0.00961251 -0.000786136 -0.000106684)
(0.0094909 -0.000760522 -0.000108511)
(0.00939529 -0.000732706 -0.000103566)
(0.00931833 -0.000705361 -9.15472e-05)
(0.0092569 -0.000681697 -7.44817e-05)