/*--------------------------------*- C++ -*----------------------------------*\
| =========                 |                                                 |
| \\      /  F ield         | foam-extend: Open Source CFD                    |
|  \\    /   O peration     | Version:     3.1                                |
|   \\  /    A nd           | Web:         http://www.extend-project.de       |
|    \\/     M anipulation  |                                                 |
\*---------------------------------------------------------------------------*/
FoamFile
{
    version     2.0;
    format      ascii;
    class       volVectorField;
    location    "3.4";
    object      D_0;
}
// * * * * * * * * * * * * * * * * * * * * * * * * * * * * * * * * * * * * * //

dimensions      [0 1 0 0 0 0 0];

internalField   nonuniform List<vector> 
256
(
(0.000263412 0.000174859 0.000297138)
(0.000113072 3.39032e-05 8.89556e-05)
(0.000100302 -5.12798e-05 -0.000106312)
(0.00022272 -0.000192729 -0.000327301)
(0.00110124 0.000718195 0.000239493)
(0.000914013 0.000192697 8.42908e-05)
(0.000878376 -0.00022511 -0.000147882)
(0.000988058 -0.000747749 -0.000328622)
(0.00216121 0.0011095 0.000160891)
(0.00197308 0.000323898 3.54659e-05)
(0.00192434 -0.000366861 -0.000140927)
(0.00201029 -0.00115531 -0.000293955)
(0.00342269 0.00141191 4.87147e-05)
(0.00325246 0.000419163 -1.58231e-05)
(0.00319504 -0.000488202 -0.000127217)
(0.00324465 -0.0014858 -0.000221516)
(0.00481562 0.00161685 -6.52493e-05)
(0.00466179 0.000477395 -6.71906e-05)
(0.00459841 -0.000586913 -0.000110528)
(0.00461834 -0.00172967 -0.000142863)
(0.00627482 0.00174308 -0.000169431)
(0.0061358 0.0005055 -0.000115065)
(0.00606852 -0.000666009 -9.70364e-05)
(0.0060652 -0.00190188 -7.11559e-05)
(0.00774868 0.00180917 -0.000256085)
(0.00761933 0.000510816 -0.00015998)
(0.0075486 -0.000727518 -9.10049e-05)
(0.00753043 -0.00201572 -1.6995e-05)
(0.00921123 0.00183389 -0.000326168)
(0.00907347 0.000503385 -0.000204257)
(0.00899418 -0.000772875 -9.48823e-05)
(0.00897323 -0.00208779 8.97429e-06)
(0.000295562 0.000173365 0.000147304)
(0.00014891 3.5434e-05 4.5885e-05)
(0.000135908 -4.62512e-05 -6.16439e-05)
(0.000249459 -0.000181422 -0.000175462)
(0.00117029 0.000714674 0.00013287)
(0.000959986 0.000196372 4.09343e-05)
(0.000926511 -0.00021446 -9.72812e-05)
(0.00106091 -0.000730956 -0.000207108)
(0.00221082 0.0011238 8.35852e-05)
(0.00202294 0.000335407 8.7111e-06)
(0.00197673 -0.000362589 -0.000102345)
(0.00206452 -0.00115436 -0.000196011)
(0.00344 0.00143187 6.85031e-06)
(0.00327211 0.000434755 -2.95363e-05)
(0.00321728 -0.000483406 -9.78495e-05)
(0.00326628 -0.00148575 -0.00015419)
(0.00479177 0.00164103 -7.62191e-05)
(0.00464306 0.00049659 -6.91095e-05)
(0.00458203 -0.00057945 -8.9977e-05)
(0.004598 -0.00172678 -0.000102837)
(0.0062096 0.00176879 -0.000154517)
(0.00607675 0.00052716 -0.000107157)
(0.00601161 -0.000653776 -8.38673e-05)
(0.00600267 -0.00189216 -5.48686e-05)
(0.00764623 0.00183456 -0.00022122)
(0.00752445 0.000533569 -0.000143213)
(0.00745608 -0.0007096 -8.38729e-05)
(0.00743074 -0.00199706 -2.00651e-05)
(0.00908102 0.0018577 -0.00027431)
(0.00895121 0.000525664 -0.000177359)
(0.00887459 -0.000750079 -9.38055e-05)
(0.00884665 -0.00206062 -8.92205e-06)
(0.000310139 0.000178767 7.08829e-05)
(0.000154442 3.7927e-05 2.12558e-05)
(0.000139466 -4.66115e-05 -3.61374e-05)
(0.000257412 -0.000185301 -9.36074e-05)
(0.00120082 0.000709155 6.33471e-05)
(0.000972116 0.000197033 1.35995e-05)
(0.000936367 -0.000206925 -6.27102e-05)
(0.00108413 -0.000718953 -0.000123423)
(0.00223553 0.00111654 3.05272e-05)
(0.0020337 0.000338466 -9.46704e-06)
(0.0019851 -0.000351966 -7.18064e-05)
(0.00208214 -0.00113502 -0.000122559)
(0.00344677 0.00142469 -2.13983e-05)
(0.00326937 0.000440339 -3.77089e-05)
(0.00321198 -0.000469276 -7.32305e-05)
(0.00326552 -0.00145957 -0.000100453)
(0.00477445 0.0016368 -7.9634e-05)
(0.00461913 0.000505399 -6.75149e-05)
(0.00455534 -0.000561826 -7.16796e-05)
(0.00457259 -0.00169566 -7.00533e-05)
(0.00616595 0.00176922 -0.000136264)
(0.00602871 0.000539421 -9.69165e-05)
(0.00596079 -0.000632672 -7.10723e-05)
(0.00595057 -0.00185705 -4.08719e-05)
(0.00757765 0.00184103 -0.000185757)
(0.00745352 0.000549033 -0.000125271)
(0.00738253 -0.000685397 -7.5273e-05)
(0.00735374 -0.00195911 -2.11084e-05)
(0.0089933 0.00187121 -0.000225084)
(0.00886294 0.000543886 -0.000152063)
(0.00878316 -0.000723499 -8.82958e-05)
(0.00874872 -0.00202094 -2.05957e-05)
(0.000315199 0.000181808 3.18795e-05)
(0.000153014 3.91759e-05 8.39906e-06)
(0.000136373 -4.67446e-05 -2.10722e-05)
(0.0002575 -0.000187287 -4.88381e-05)
(0.00121064 0.0007053 2.40768e-05)
(0.000970505 0.000197381 -3.79017e-07)
(0.000932027 -0.000201145 -4.02875e-05)
(0.00108622 -0.000709161 -7.13741e-05)
(0.00224088 0.00110805 3.52303e-07)
(0.00202866 0.000339731 -1.772e-05)
(0.00197714 -0.000341315 -4.95664e-05)
(0.00207963 -0.00111494 -7.37389e-05)
(0.00344149 0.00141458 -3.54411e-05)
(0.00325588 0.000443371 -3.86219e-05)
(0.00319553 -0.00045425 -5.35743e-05)
(0.00325239 -0.00143137 -6.25994e-05)
(0.00475455 0.00162804 -7.60398e-05)
(0.00459302 0.000511034 -6.08652e-05)
(0.00452625 -0.000543006 -5.54077e-05)
(0.00454483 -0.00166175 -4.55657e-05)
(0.00612944 0.00176412 -0.000116434)
(0.0059877 0.00054823 -8.3239e-05)
(0.00591686 -0.000610705 -5.78972e-05)
(0.0059062 -0.00181948 -2.89916e-05)
(0.00752465 0.00184125 -0.000152646)
(0.00739753 0.00056116 -0.000105259)
(0.00732362 -0.000660989 -6.41146e-05)
(0.00729271 -0.00191953 -1.91193e-05)
(0.00892677 0.00187746 -0.000181632)
(0.00879422 0.000559315 -0.000126294)
(0.00871064 -0.000697226 -7.75077e-05)
(0.00867177 -0.00198044 -2.41795e-05)
(0.000316582 0.000183151 1.26937e-05)
(0.000150487 3.98479e-05 2.28841e-06)
(0.000132667 -4.66363e-05 -1.20821e-05)
(0.000255311 -0.000187706 -2.46328e-05)
(0.0012116 0.000702642 4.54587e-06)
(0.000964506 0.000197924 -6.00542e-06)
(0.000923841 -0.000196612 -2.55313e-05)
(0.00108099 -0.000701054 -4.00832e-05)
(0.0022374 0.00110206 -1.29979e-05)
(0.00201835 0.000341023 -1.90015e-05)
(0.00196447 -0.000332404 -3.34084e-05)
(0.00206968 -0.0010986 -4.29003e-05)
(0.00343076 0.00140711 -3.7786e-05)
(0.00323934 0.000446038 -3.4233e-05)
(0.00317665 -0.000441339 -3.79121e-05)
(0.00323534 -0.00140804 -3.75134e-05)
(0.00473443 0.00162114 -6.58304e-05)
(0.00456823 0.000515709 -5.0462e-05)
(0.0044992 -0.000526675 -4.10068e-05)
(0.00451857 -0.00163323 -2.8348e-05)
(0.00609854 0.0017596 -9.41309e-05)
(0.00595323 0.000555363 -6.7016e-05)
(0.00588021 -0.000591626 -4.46517e-05)
(0.00586931 -0.0017875 -1.95051e-05)
(0.00748254 0.00184034 -0.000120016)
(0.00735283 0.000570882 -8.35794e-05)
(0.00727672 -0.000639843 -5.11048e-05)
(0.0072445 -0.00188552 -1.54091e-05)
(0.00887446 0.00188066 -0.000140842)
(0.00873983 0.000571634 -9.9536e-05)
(0.00865334 -0.000674473 -6.29672e-05)
(0.00861161 -0.00194538 -2.23339e-05)
(0.000316715 0.000183684 3.98674e-06)
(0.000148366 4.02293e-05 -1.49119e-07)
(0.000129753 -4.64346e-05 -6.66984e-06)
(0.000252966 -0.000187461 -1.18005e-05)
(0.00120959 0.000700906 -3.1365e-06)
(0.000958358 0.000198554 -6.79269e-06)
(0.000916142 -0.000193228 -1.55082e-05)
(0.00107454 -0.000694827 -2.15208e-05)
(0.0022314 0.00109841 -1.54843e-05)
(0.00200809 0.000342386 -1.59481e-05)
(0.00195252 -0.000325667 -2.13482e-05)
(0.002059 -0.00108656 -2.37878e-05)
(0.00341957 0.00140255 -3.19664e-05)
(0.00322434 0.000448503 -2.64157e-05)
(0.00316002 -0.000431487 -2.51713e-05)
(0.00321961 -0.00139087 -2.13228e-05)
(0.00471702 0.00161692 -5.04792e-05)
(0.00454764 0.000519654 -3.75542e-05)
(0.00447705 -0.000514138 -2.8166e-05)
(0.00449682 -0.00161203 -1.66242e-05)
(0.00607401 0.0017568 -6.93092e-05)
(0.00592617 0.000561044 -4.90199e-05)
(0.00585169 -0.000576926 -3.16082e-05)
(0.00584064 -0.00176345 -1.22249e-05)
(0.00745036 0.00183974 -8.67709e-05)
(0.00731872 0.000578355 -6.06208e-05)
(0.00724115 -0.000623515 -3.7017e-05)
(0.00720814 -0.00185964 -1.10297e-05)
(0.00883479 0.00188256 -0.000100877)
(0.00869847 0.000580912 -7.18565e-05)
(0.00861004 -0.000656861 -4.61469e-05)
(0.00856663 -0.00191842 -1.73551e-05)
(0.000316538 0.000183856 7.02996e-07)
(0.000146966 4.04408e-05 -6.79304e-07)
(0.000127859 -4.62479e-05 -3.30631e-06)
(0.000251216 -0.000187079 -5.09979e-06)
(0.00120733 0.000699859 -4.10877e-06)
(0.000953792 0.000199083 -4.93033e-06)
(0.000910593 -0.000190976 -8.31056e-06)
(0.00106944 -0.000690627 -1.03726e-05)
(0.00222617 0.00109639 -1.15078e-05)
(0.0020004 0.00034351 -1.04019e-05)
(0.00194376 -0.000321184 -1.18693e-05)
(0.00205077 -0.00107869 -1.17769e-05)
(0.00341089 0.0014001 -2.10108e-05)
(0.00321338 0.000450419 -1.6554e-05)
(0.00314803 -0.000424916 -1.43724e-05)
(0.00320803 -0.00137971 -1.07595e-05)
(0.00470442 0.00161468 -3.16141e-05)
(0.00453308 0.000522552 -2.30903e-05)
(0.00446153 -0.000505754 -1.64535e-05)
(0.00448147 -0.0015982 -8.58778e-06)
(0.00605697 0.00175537 -4.24423e-05)
(0.00590754 0.000565045 -2.98544e-05)
(0.00583216 -0.000567072 -1.88309e-05)
(0.00582099 -0.00174764 -6.63993e-06)
(0.00742844 0.00183951 -5.25666e-05)
(0.00729554 0.000583463 -3.67419e-05)
(0.00721709 -0.000612546 -2.23736e-05)
(0.00718364 -0.00184248 -6.55526e-06)
(0.0088079 0.00188373 -6.07628e-05)
(0.00867043 0.000587132 -4.34273e-05)
(0.00858083 -0.000645001 -2.80796e-05)
(0.00853651 -0.00190039 -1.0836e-05)
(0.000316387 0.000183896 -1.5925e-08)
(0.000146282 4.05361e-05 -3.13337e-07)
(0.00012694 -4.61402e-05 -9.94339e-07)
(0.000250307 -0.000186832 -1.40043e-06)
(0.00120599 0.000699365 -1.70893e-06)
(0.000951416 0.000199378 -1.77187e-06)
(0.000907744 -0.000189852 -2.61336e-06)
(0.00106672 -0.000688516 -3.06268e-06)
(0.00222325 0.00109549 -4.17871e-06)
(0.00199635 0.000344136 -3.59448e-06)
(0.0019392 -0.000318949 -3.80613e-06)
(0.0020464 -0.0010748 -3.53334e-06)
(0.00340621 0.00139905 -7.29127e-06)
(0.00320766 0.000451462 -5.62711e-06)
(0.00314182 -0.00042164 -4.67241e-06)
(0.00320196 -0.00137423 -3.26302e-06)
(0.00469783 0.00161375 -1.07514e-05)
(0.00452557 0.000524088 -7.78477e-06)
(0.00445357 -0.00050157 -5.41071e-06)
(0.00447356 -0.0015914 -2.63835e-06)
(0.00604822 0.0017548 -1.4291e-05)
(0.00589803 0.000567115 -1.0023e-05)
(0.00582223 -0.000562146 -6.2527e-06)
(0.005811 -0.00173983 -2.09683e-06)
(0.00741728 0.00183945 -1.76134e-05)
(0.00728379 0.000586062 -1.23084e-05)
(0.00720492 -0.000607053 -7.48066e-06)
(0.00717129 -0.00183397 -2.16765e-06)
(0.00879423 0.00188423 -2.03051e-05)
(0.00865623 0.000590267 -1.45276e-05)
(0.00856609 -0.000639045 -9.41702e-06)
(0.00852137 -0.00189139 -3.66871e-06)
)
;

boundaryField
{
    interface
    {
        type            tractionDisplacement;
        gradient        nonuniform List<vector> 
192
(
(0.0012504 8.90088e-08 -6.27537e-06)
(0.00125106 2.32615e-07 -7.48491e-06)
(0.0012496 5.25483e-07 -7.47543e-06)
(0.00124673 8.45864e-07 -7.27339e-06)
(0.00124237 1.23213e-06 -6.95727e-06)
(0.00123606 1.75972e-06 -6.48764e-06)
(0.00122701 2.65546e-06 -5.77696e-06)
(0.00121237 4.4017e-06 -4.57372e-06)
(0.00127836 1.58951e-07 -4.18175e-06)
(0.00127813 3.40733e-07 -4.98588e-06)
(0.00127606 6.81215e-07 -4.94782e-06)
(0.00127234 1.07974e-06 -4.77587e-06)
(0.0012667 1.57845e-06 -4.5173e-06)
(0.00125852 2.26978e-06 -4.14438e-06)
(0.00124668 3.43378e-06 -3.60938e-06)
(0.00122774 5.61186e-06 -2.83028e-06)
(0.0012969 2.0556e-07 -2.92788e-06)
(0.00129628 4.22773e-07 -3.50022e-06)
(0.00129375 8.10625e-07 -3.4639e-06)
(0.00128935 1.27314e-06 -3.32432e-06)
(0.00128271 1.85533e-06 -3.11929e-06)
(0.00127309 2.65704e-06 -2.83373e-06)
(0.00125927 3.97152e-06 -2.44508e-06)
(0.00123752 6.33252e-06 -1.9299e-06)
(0.00131022 2.36666e-07 -2.12187e-06)
(0.00130939 4.82114e-07 -2.53952e-06)
(0.00130652 9.12912e-07 -2.50899e-06)
(0.00130157 1.426e-06 -2.39958e-06)
(0.00129415 2.06871e-06 -2.2415e-06)
(0.00128345 2.94405e-06 -2.02736e-06)
(0.00126819 4.35007e-06 -1.74696e-06)
(0.00124452 6.81512e-06 -1.39307e-06)
(0.00131978 2.59652e-07 -1.51365e-06)
(0.00131882 5.26652e-07 -1.81147e-06)
(0.00131569 9.91037e-07 -1.78752e-06)
(0.00131032 1.54199e-06 -1.7059e-06)
(0.0013023 2.22756e-06 -1.58946e-06)
(0.00129082 3.15197e-06 -1.43486e-06)
(0.00127453 4.6157e-06 -1.23756e-06)
(0.00124954 7.14639e-06 -9.95544e-07)
(0.00132642 2.76131e-07 -1.01788e-06)
(0.00132536 5.58719e-07 -1.21811e-06)
(0.00132204 1.04754e-06 -1.20117e-06)
(0.00131638 1.62535e-06 -1.14496e-06)
(0.00130794 2.34023e-06 -1.06545e-06)
(0.0012959 3.29691e-06 -9.61283e-07)
(0.00127891 4.79762e-06 -8.30326e-07)
(0.00125304 7.37104e-06 -6.71486e-07)
(0.00133063 2.87035e-07 -5.86262e-07)
(0.00132951 5.79709e-07 -7.01327e-07)
(0.00132607 1.08477e-06 -6.91544e-07)
(0.00132021 1.68017e-06 -6.58841e-07)
(0.00131151 2.41383e-06 -6.12817e-07)
(0.00129912 3.39091e-06 -5.5309e-07)
(0.00128169 4.9157e-06 -4.77739e-07)
(0.00125526 7.51474e-06 -3.82182e-07)
(0.00133265 2.92824e-07 -1.90632e-07)
(0.00133149 5.90077e-07 -2.27698e-07)
(0.001328 1.10224e-06 -2.24725e-07)
(0.00132205 1.70638e-06 -2.14081e-07)
(0.00131322 2.44881e-06 -1.99112e-07)
(0.00130067 3.43614e-06 -1.79825e-07)
(0.00128303 4.97701e-06 -1.55001e-07)
(0.00125626 7.58408e-06 -1.20792e-07)
(1.09308e-05 7.23725e-08 0.00114973)
(1.30776e-05 1.27851e-07 0.00114889)
(1.31548e-05 1.98457e-07 0.00114824)
(1.29808e-05 2.92527e-07 0.0011473)
(1.2715e-05 4.04896e-07 0.00114595)
(1.23458e-05 5.36693e-07 0.00114413)
(1.18492e-05 6.86119e-07 0.00114175)
(1.13079e-05 8.03277e-07 0.00113874)
(1.00547e-05 2.11513e-08 0.0010997)
(1.20342e-05 3.77271e-08 0.00109949)
(1.21003e-05 5.67502e-08 0.0010993)
(1.19489e-05 8.24212e-08 0.00109902)
(1.17254e-05 1.12105e-07 0.00109863)
(1.14243e-05 1.44074e-07 0.00109811)
(1.10382e-05 1.71046e-07 0.00109746)
(1.0708e-05 1.6209e-07 0.00109671)
(1.00418e-05 -2.70428e-08 0.00105277)
(1.20188e-05 -4.56996e-08 0.00105298)
(1.20844e-05 -6.9588e-08 0.00105321)
(1.1933e-05 -1.00411e-07 0.00105354)
(1.171e-05 -1.3707e-07 0.001054)
(1.141e-05 -1.80176e-07 0.00105463)
(1.10258e-05 -2.2871e-07 0.00105544)
(1.06983e-05 -2.6355e-07 0.00105648)
(1.09054e-05 -8.04064e-08 0.00100291)
(1.30452e-05 -1.36982e-07 0.00100376)
(1.312e-05 -2.11694e-07 0.00100444)
(1.29457e-05 -3.09713e-07 0.00100544)
(1.26804e-05 -4.27843e-07 0.00100685)
(1.23126e-05 -5.69225e-07 0.00100876)
(1.18188e-05 -7.38586e-07 0.00101129)
(1.12818e-05 -8.99354e-07 0.00101456)
(-0.000903606 -9.63547e-08 6.85177e-06)
(-0.000902881 -2.51564e-07 8.12936e-06)
(-0.000904348 -5.72774e-07 8.11249e-06)
(-0.00090722 -9.20022e-07 7.89131e-06)
(-0.000911576 -1.33875e-06 7.54482e-06)
(-0.000917854 -1.91504e-06 7.02877e-06)
(-0.00092686 -2.91625e-06 6.2435e-06)
(-0.00094155 -4.95238e-06 4.89368e-06)
(-0.000876477 -1.72336e-07 4.42126e-06)
(-0.000876696 -3.68407e-07 5.23941e-06)
(-0.000878763 -7.40343e-07 5.19106e-06)
(-0.000882477 -1.17274e-06 5.00456e-06)
(-0.000888098 -1.71422e-06 4.72407e-06)
(-0.000896245 -2.4707e-06 4.31857e-06)
(-0.000908024 -3.77243e-06 3.7342e-06)
(-0.000927051 -6.30466e-06 2.87503e-06)
(-0.000858904 -2.23527e-07 3.02815e-06)
(-0.000859518 -4.57468e-07 3.59773e-06)
(-0.000862036 -8.80012e-07 3.55226e-06)
(-0.00086643 -1.38156e-06 3.40144e-06)
(-0.000873045 -2.0136e-06 3.18024e-06)
(-0.000882602 -2.89053e-06 2.87178e-06)
(-0.000896351 -4.35875e-06 2.45083e-06)
(-0.000918167 -7.09737e-06 1.88924e-06)
(-0.00084644 -2.57774e-07 2.16159e-06)
(-0.000847264 -5.21851e-07 2.57079e-06)
(-0.000850126 -9.90306e-07 2.53274e-06)
(-0.00085506 -1.54618e-06 2.41474e-06)
(-0.000862449 -2.24345e-06 2.24466e-06)
(-0.000873069 -3.20009e-06 2.01421e-06)
(-0.000888236 -4.76849e-06 1.71208e-06)
(-0.000911949 -7.62329e-06 1.32891e-06)
(-0.000837595 -2.83051e-07 1.52365e-06)
(-0.00083856 -5.70096e-07 1.81175e-06)
(-0.000841682 -1.07445e-06 1.78199e-06)
(-0.000847026 -1.67087e-06 1.69407e-06)
(-0.000854997 -2.41412e-06 1.56902e-06)
(-0.000866396 -3.42352e-06 1.40308e-06)
(-0.00088257 -5.05455e-06 1.19126e-06)
(-0.000907581 -7.98206e-06 9.30362e-07)
(-0.000831511 -3.01135e-07 1.01526e-06)
(-0.000832571 -6.04765e-07 1.20705e-06)
(-0.000835879 -1.13523e-06 1.18601e-06)
(-0.000841519 -1.76034e-06 1.1255e-06)
(-0.000849902 -2.53489e-06 1.04024e-06)
(-0.000861845 -3.57878e-06 9.28656e-07)
(-0.000878708 -5.24964e-06 7.88457e-07)
(-0.000904589 -8.22417e-06 6.17775e-07)
(-0.000827684 -3.13066e-07 5.81157e-07)
(-0.000828802 -6.27424e-07 6.90621e-07)
(-0.00083223 -1.17521e-06 6.7841e-07)
(-0.000838059 -1.81904e-06 6.43226e-07)
(-0.000846706 -2.61357e-06 5.93914e-07)
(-0.000858993 -3.67914e-06 5.30029e-07)
(-0.000876286 -5.37574e-06 4.49542e-07)
(-0.000902707 -8.37837e-06 3.46949e-07)
(-0.000825854 -3.19376e-07 1.88378e-07)
(-0.000827006 -6.38536e-07 2.23531e-07)
(-0.000830489 -1.19398e-06 2.19753e-07)
(-0.000836409 -1.8471e-06 2.083e-07)
(-0.000845182 -2.65092e-06 1.92268e-07)
(-0.000857629 -3.72725e-06 1.71653e-07)
(-0.000875121 -5.44102e-06 1.45178e-07)
(-0.000901879 -8.45211e-06 1.08378e-07)
(1.13077e-05 -0.00113956 -9.86196e-07)
(1.18661e-05 -0.00114323 -8.3836e-07)
(1.23873e-05 -0.00114616 -6.69958e-07)
(1.27835e-05 -0.00114847 -5.21832e-07)
(1.30767e-05 -0.00115024 -3.91006e-07)
(1.32868e-05 -0.00115152 -2.72808e-07)
(1.34306e-05 -0.00115236 -1.66012e-07)
(1.35055e-05 -0.00115283 -5.78898e-08)
(1.07333e-05 -0.00109747 -3.23353e-07)
(1.10861e-05 -0.00109878 -2.9851e-07)
(1.14951e-05 -0.00109989 -2.50886e-07)
(1.18192e-05 -0.0011008 -2.02547e-07)
(1.20647e-05 -0.00110151 -1.55909e-07)
(1.22434e-05 -0.00110204 -1.10734e-07)
(1.23687e-05 -0.0011024 -6.67961e-08)
(1.24387e-05 -0.00110257 -2.25708e-08)
(1.07338e-05 -0.00105712 1.29308e-07)
(1.10872e-05 -0.00105654 1.24779e-07)
(1.1494e-05 -0.00105609 9.54584e-08)
(1.18153e-05 -0.00105577 6.74789e-08)
(1.20582e-05 -0.00105555 4.5425e-08)
(1.22347e-05 -0.00105541 2.87838e-08)
(1.23586e-05 -0.00105532 1.65634e-08)
(1.24277e-05 -0.00105528 5.73912e-09)
(1.13263e-05 -0.00101504 7.95589e-07)
(1.18919e-05 -0.00101212 6.58727e-07)
(1.24086e-05 -0.00100987 5.05786e-07)
(1.27978e-05 -0.00100817 3.78169e-07)
(1.3084e-05 -0.00100692 2.73189e-07)
(1.32882e-05 -0.00100604 1.85436e-07)
(1.34278e-05 -0.00100548 1.12584e-07)
(1.35008e-05 -0.00100515 4.00141e-08)
)
;
        traction        nonuniform List<vector> 
192
(
(26.7942 0.00190733 -0.134472)
(26.8085 0.00498462 -0.160391)
(26.7772 0.0112604 -0.160188)
(26.7157 0.0181257 -0.155858)
(26.6222 0.0264028 -0.149084)
(26.487 0.0377082 -0.139021)
(26.293 0.0569026 -0.123792)
(25.9793 0.0943222 -0.0980083)
(27.3935 0.0034061 -0.0896089)
(27.3884 0.00730142 -0.10684)
(27.3441 0.0145975 -0.106025)
(27.2645 0.0231373 -0.10234)
(27.1437 0.033824 -0.0967993)
(26.9683 0.0486382 -0.0888082)
(26.7147 0.0735809 -0.077344)
(26.3087 0.120254 -0.0606489)
(27.7907 0.00440487 -0.0627403)
(27.7773 0.00905942 -0.0750048)
(27.7233 0.0173705 -0.0742265)
(27.6289 0.0272816 -0.0712353)
(27.4865 0.039757 -0.066842)
(27.2806 0.0569365 -0.0607228)
(26.9843 0.085104 -0.0523946)
(26.5182 0.135697 -0.0413549)
(28.0762 0.00507141 -0.0454687)
(28.0584 0.010331 -0.0544183)
(27.997 0.0195624 -0.0537641)
(27.8909 0.0305572 -0.0514196)
(27.7317 0.0443295 -0.0480322)
(27.5026 0.0630869 -0.0434433)
(27.1755 0.0932158 -0.0374349)
(26.6683 0.146038 -0.0298516)
(28.2811 0.00556398 -0.0324353)
(28.2603 0.0112854 -0.0388172)
(28.1933 0.0212365 -0.038304)
(28.0783 0.0330426 -0.0365551)
(27.9065 0.0477333 -0.0340599)
(27.6604 0.0675421 -0.0307469)
(27.3113 0.0989078 -0.0265191)
(26.7759 0.153137 -0.0213331)
(28.4234 0.00591708 -0.0218117)
(28.4006 0.0119725 -0.0261023)
(28.3295 0.0224473 -0.0257394)
(28.2081 0.034829 -0.0245348)
(28.0273 0.0501478 -0.0228311)
(27.7694 0.0706481 -0.0205989)
(27.4052 0.102806 -0.0177927)
(26.8508 0.157951 -0.014389)
(28.5135 0.00615074 -0.0125628)
(28.4894 0.0124223 -0.0150284)
(28.4158 0.023245 -0.0148188)
(28.2903 0.0360036 -0.014118)
(28.1037 0.0517248 -0.0131318)
(27.8383 0.0726623 -0.0118519)
(27.4647 0.105336 -0.0102373)
(26.8984 0.16103 -0.00818961)
(28.5567 0.00627479 -0.00408497)
(28.532 0.0126445 -0.00487923)
(28.4571 0.0236193 -0.00481554)
(28.3296 0.0365652 -0.00458744)
(28.1404 0.0524745 -0.00426669)
(27.8714 0.0736316 -0.00385339)
(27.4935 0.10665 -0.00332146)
(26.9199 0.162516 -0.00258841)
(0.234232 0.00155084 24.637)
(0.280235 0.00273965 24.6191)
(0.281888 0.00425265 24.6052)
(0.278159 0.00626843 24.5849)
(0.272465 0.00867633 24.5561)
(0.264553 0.0115006 24.5171)
(0.253912 0.0147025 24.4661)
(0.242312 0.0172131 24.4015)
(0.215458 0.000453242 23.565)
(0.257875 0.000808438 23.5605)
(0.259292 0.00121608 23.5564)
(0.256048 0.00176617 23.5504)
(0.251258 0.00240225 23.542)
(0.244806 0.00308729 23.5309)
(0.236532 0.00366528 23.517)
(0.229457 0.00347336 23.5009)
(0.215181 -0.00057949 22.5593)
(0.257546 -0.000979277 22.564)
(0.258951 -0.00149117 22.5688)
(0.255708 -0.00215167 22.5758)
(0.250929 -0.00293722 22.5858)
(0.244501 -0.00386092 22.5992)
(0.236268 -0.00490093 22.6167)
(0.22925 -0.00564749 22.6389)
(0.233687 -0.00172299 21.4909)
(0.279539 -0.00293532 21.5091)
(0.281144 -0.00453631 21.5238)
(0.277407 -0.00663671 21.5451)
(0.271722 -0.00916805 21.5754)
(0.263841 -0.0121977 21.6164)
(0.253261 -0.0158268 21.6704)
(0.241752 -0.0192719 21.7405)
(-19.363 -0.00206474 0.146824)
(-19.3475 -0.00539066 0.174201)
(-19.3789 -0.0122737 0.173839)
(-19.4404 -0.0197148 0.1691)
(-19.5338 -0.0286875 0.161675)
(-19.6683 -0.0410367 0.150616)
(-19.8613 -0.0624911 0.133789)
(-20.1761 -0.106122 0.104865)
(-18.7816 -0.00369291 0.0947413)
(-18.7863 -0.00789443 0.112273)
(-18.8306 -0.0158645 0.111237)
(-18.9102 -0.0251302 0.107241)
(-19.0307 -0.0367334 0.10123)
(-19.2052 -0.0529437 0.0925409)
(-19.4577 -0.0808377 0.0800185)
(-19.8654 -0.1351 0.0616077)
(-18.4051 -0.00478987 0.064889)
(-18.4182 -0.00980289 0.0770943)
(-18.4722 -0.0188574 0.0761199)
(-18.5664 -0.0296049 0.0728881)
(-18.7081 -0.0431486 0.0681481)
(-18.9129 -0.06194 0.0615382)
(-19.2075 -0.0934018 0.0525179)
(-19.675 -0.152086 0.0404836)
(-18.138 -0.00552373 0.0463197)
(-18.1556 -0.0111825 0.0550883)
(-18.217 -0.0212208 0.054273)
(-18.3227 -0.0331325 0.0517444)
(-18.481 -0.048074 0.0480998)
(-18.7086 -0.0685733 0.0431617)
(-19.0336 -0.102182 0.0366875)
(-19.5418 -0.163356 0.0284766)
(-17.9485 -0.00606538 0.0326497)
(-17.9691 -0.0122163 0.0388231)
(-18.036 -0.023024 0.0381856)
(-18.1506 -0.0358044 0.0363015)
(-18.3214 -0.0517312 0.0336219)
(-18.5656 -0.0733611 0.0300661)
(-18.9122 -0.108312 0.0255271)
(-19.4482 -0.171044 0.0199363)
(-17.8181 -0.00645288 0.0217555)
(-17.8408 -0.0129593 0.0258653)
(-17.9117 -0.0243264 0.0254145)
(-18.0325 -0.0377215 0.0241178)
(-18.2122 -0.0543192 0.0222908)
(-18.4681 -0.0766882 0.0198998)
(-18.8294 -0.112492 0.0168955)
(-19.3841 -0.176232 0.013238)
(-17.7361 -0.00670857 0.0124534)
(-17.7601 -0.0134448 0.014799)
(-17.8335 -0.0251831 0.0145374)
(-17.9584 -0.0389794 0.0137834)
(-18.1437 -0.0560052 0.0127267)
(-18.407 -0.0788387 0.0113578)
(-18.7775 -0.115194 0.00963305)
(-19.3437 -0.179537 0.00743463)
(-17.6969 -0.00684377 0.00403667)
(-17.7216 -0.0136829 0.00478996)
(-17.7962 -0.0255853 0.00470898)
(-17.9231 -0.0395806 0.00446357)
(-18.111 -0.0568055 0.00412003)
(-18.3778 -0.0798697 0.00367828)
(-18.7526 -0.116593 0.00311095)
(-19.326 -0.181117 0.00232238)
(0.242309 -24.4191 -0.0211328)
(0.254273 -24.4977 -0.0179648)
(0.265441 -24.5605 -0.0143563)
(0.273931 -24.61 -0.0111821)
(0.280215 -24.6479 -0.00837869)
(0.284717 -24.6755 -0.00584588)
(0.287799 -24.6935 -0.0035574)
(0.289404 -24.7035 -0.0012405)
(0.229999 -23.5171 -0.006929)
(0.237559 -23.5453 -0.00639663)
(0.246324 -23.5691 -0.00537612)
(0.253268 -23.5885 -0.00434029)
(0.25853 -23.6038 -0.00334091)
(0.262358 -23.6152 -0.00237288)
(0.265043 -23.6228 -0.00143135)
(0.266544 -23.6265 -0.00048366)
(0.23001 -22.6525 0.00277088)
(0.237582 -22.6402 0.00267384)
(0.2463 -22.6305 0.00204554)
(0.253185 -22.6237 0.00144598)
(0.25839 -22.6189 0.000973392)
(0.262173 -22.6158 0.000616796)
(0.264827 -22.614 0.00035493)
(0.266308 -22.6131 0.000122981)
(0.242706 -21.7508 0.0170483)
(0.254825 -21.6882 0.0141156)
(0.265899 -21.64 0.0108383)
(0.274239 -21.6037 0.00810362)
(0.280372 -21.5769 0.00585405)
(0.284748 -21.558 0.00397363)
(0.287739 -21.5459 0.00241252)
(0.289303 -21.5389 0.000857445)
)
;
        pressure        uniform 0;
        value           nonuniform List<vector> 
192
(
(0.000573481 0.000603754 0.000305363)
(0.00124992 0.00114439 0.000258485)
(0.00232652 0.0016708 0.00016528)
(0.00355899 0.00205067 2.85639e-05)
(0.00493211 0.00231106 -0.000110988)
(0.00637287 0.00246462 -0.000239348)
(0.00783644 0.00254043 -0.000345491)
(0.00929362 0.00257709 -0.00042634)
(0.00061162 0.000628976 0.000153079)
(0.00134219 0.00113988 0.00014769)
(0.00237843 0.0016674 9.14546e-05)
(0.00358098 0.00205066 1.47232e-07)
(0.00491153 0.00231382 -9.94164e-05)
(0.00631166 0.00247131 -0.000194446)
(0.00773837 0.00255127 -0.000275665)
(0.00916736 0.00259533 -0.000337904)
(0.000638627 0.000650631 7.21627e-05)
(0.00138022 0.00113517 6.75799e-05)
(0.00240861 0.0016509 3.09237e-05)
(0.00359043 0.00203119 -2.89916e-05)
(0.00489457 0.00229566 -9.76307e-05)
(0.00626699 0.00245856 -0.000165248)
(0.00766808 0.00254689 -0.000224827)
(0.00907598 0.00260343 -0.000271227)
(0.000651472 0.000661059 3.10215e-05)
(0.001396 0.00113093 2.30395e-05)
(0.00241971 0.00163767 -3.6712e-06)
(0.00358936 0.00201343 -4.44433e-05)
(0.00487729 0.00227799 -9.15283e-05)
(0.00623186 0.00244458 -0.000139027)
(0.00761567 0.00253937 -0.000182109)
(0.00900888 0.00260492 -0.000216419)
(0.000656891 0.000665262 1.11535e-05)
(0.00140085 0.00112724 1.56071e-06)
(0.00242032 0.00162855 -1.85116e-05)
(0.00358205 0.00200117 -4.67074e-05)
(0.00485971 0.00226542 -7.896e-05)
(0.00620266 0.00243417 -0.000111924)
(0.00757467 0.002533 -0.000142543)
(0.00895678 0.0026042 -0.000167375)
(0.000658965 0.000666611 2.55393e-06)
(0.00140121 0.0011243 -6.13984e-06)
(0.00241697 0.00162264 -2.04504e-05)
(0.00357325 0.00199352 -3.92625e-05)
(0.00484424 0.00225755 -6.04972e-05)
(0.0061796 0.0024275 -8.23364e-05)
(0.0075436 0.0025286 -0.000102944)
(0.00891773 0.00260305 -0.000119846)
(0.000659644 0.000666846 -2.52413e-07)
(0.00140026 0.00112226 -6.17916e-06)
(0.00241329 0.00161909 -1.48204e-05)
(0.00356602 0.00198915 -2.57096e-05)
(0.00483289 0.00225311 -3.78732e-05)
(0.00616356 0.00242367 -5.04185e-05)
(0.00752248 0.00252595 -6.23644e-05)
(0.00889138 0.00260214 -7.22216e-05)
(0.000659799 0.000666799 -3.45398e-07)
(0.00139947 0.00112122 -2.43464e-06)
(0.00241105 0.00161743 -5.32832e-06)
(0.00356201 0.00198717 -8.90332e-06)
(0.00482689 0.00225112 -1.28752e-05)
(0.00615529 0.00242195 -1.69768e-05)
(0.00751171 0.00252471 -2.08981e-05)
(0.00887797 0.00260157 -2.41409e-05)
(0.000239916 0.00032537 0.000462738)
(0.00105686 0.000669503 0.000263912)
(0.00214222 0.00106639 0.000201168)
(0.00343085 0.00135335 6.69524e-05)
(0.00485567 0.00155974 -5.96508e-05)
(0.00634391 0.00169159 -0.000176102)
(0.00784114 0.00176577 -0.00027066)
(0.00932103 0.00180389 -0.000350634)
(5.46553e-05 8.94176e-05 0.000125042)
(0.000810519 0.000172921 9.13505e-05)
(0.00190129 0.000306732 3.98894e-05)
(0.00321363 0.000396735 -1.85017e-05)
(0.00465971 0.000454146 -7.45352e-05)
(0.00616686 0.0004821 -0.000126504)
(0.0076784 0.000487099 -0.000174582)
(0.0091559 0.000482544 -0.000225502)
(3.75391e-05 -0.000128383 -0.000152646)
(0.000768963 -0.000214747 -0.00015907)
(0.00184482 -0.000357113 -0.000155957)
(0.00314847 -0.000473525 -0.000139234)
(0.00458829 -0.000575117 -0.0001206)
(0.00609185 -0.000659444 -0.000104733)
(0.00760086 -0.000727986 -9.66336e-05)
(0.00906951 -0.000781067 -9.55813e-05)
(0.000183223 -0.000384711 -0.000491984)
(0.000923509 -0.000716847 -0.0003586)
(0.00196415 -0.0011246 -0.000343981)
(0.00322403 -0.00143892 -0.000253266)
(0.00462794 -0.00168645 -0.000164446)
(0.00610355 -0.00186731 -8.20511e-05)
(0.00759342 -0.00199457 -1.96896e-05)
(0.00905408 -0.00208614 1.55143e-05)
(0.000480334 -0.000602682 -0.000346155)
(0.00109296 -0.0011667 -0.000369523)
(0.00211311 -0.00172262 -0.000328759)
(0.00330776 -0.00213258 -0.000235012)
(0.00465349 -0.00243063 -0.000131861)
(0.0060775 -0.00262605 -3.50001e-05)
(0.00752914 -0.00274185 4.14318e-05)
(0.00896919 -0.00280434 8.31034e-05)
(0.000502465 -0.000622916 -0.000185989)
(0.00118521 -0.00115765 -0.000230001)
(0.00216619 -0.00170645 -0.000215084)
(0.00333023 -0.002114 -0.000159452)
(0.00463241 -0.00240631 -9.13876e-05)
(0.00601423 -0.00259595 -2.57104e-05)
(0.00742816 -0.00270589 2.52163e-05)
(0.00884184 -0.00276573 4.94242e-05)
(0.000518556 -0.000641737 -9.77839e-05)
(0.00121515 -0.00114878 -0.000131587)
(0.00218968 -0.00167867 -0.000127999)
(0.00333322 -0.0020757 -9.80935e-05)
(0.00460859 -0.00236069 -5.69774e-05)
(0.00596204 -0.00254637 -1.60922e-05)
(0.00734961 -0.00265486 1.50494e-05)
(0.00874003 -0.00271471 2.58472e-05)
(0.000523246 -0.000648333 -4.98229e-05)
(0.00122198 -0.00113879 -7.2416e-05)
(0.00219178 -0.0016541 -7.21152e-05)
(0.00332349 -0.00203987 -5.59281e-05)
(0.00458268 -0.00231748 -3.21279e-05)
(0.00591811 -0.00249897 -7.93106e-06)
(0.00728767 -0.0026056 9.74515e-06)
(0.00866079 -0.00266471 1.23181e-05)
(0.000522771 -0.000648694 -2.43215e-05)
(0.00121958 -0.0011292 -3.83641e-05)
(0.00218466 -0.00163449 -3.87294e-05)
(0.00330867 -0.00201168 -2.98121e-05)
(0.00455778 -0.00228297 -1.62285e-05)
(0.00588163 -0.00246039 -2.38267e-06)
(0.00723889 -0.00256468 7.02196e-06)
(0.00859918 -0.00262227 5.60384e-06)
(0.000520737 -0.000646855 -1.11584e-05)
(0.00121464 -0.00112124 -1.92965e-05)
(0.00217556 -0.00161996 -1.9609e-05)
(0.00329425 -0.00199128 -1.47077e-05)
(0.00453685 -0.0022579 -7.14694e-06)
(0.00585322 -0.00243198 4.604e-07)
(0.0072022 -0.00253404 5.1219e-06)
(0.00855344 -0.00258997 2.50828e-06)
(0.000518808 -0.000644872 -4.58316e-06)
(0.00121028 -0.00111564 -8.72518e-06)
(0.00216815 -0.00161036 -8.8815e-06)
(0.00328336 -0.00197807 -6.41184e-06)
(0.00452194 -0.00224169 -2.60186e-06)
(0.00583372 -0.00241347 1.16041e-06)
(0.00717753 -0.00251386 3.22178e-06)
(0.00852295 -0.00256847 1.08995e-06)
(0.000517711 -0.000643696 -1.20935e-06)
(0.00120784 -0.00111277 -2.4687e-06)
(0.00216411 -0.00160559 -2.51173e-06)
(0.00327759 -0.00197159 -1.75708e-06)
(0.00451422 -0.00223374 -5.96248e-07)