/*--------------------------------*- C++ -*----------------------------------*\
| =========                 |                                                 |
| \\      /  F ield         | foam-extend: Open Source CFD                    |
|  \\    /   O peration     | Version:     3.1                                |
|   \\  /    A nd           | Web:         http://www.extend-project.de       |
|    \\/     M anipulation  |                                                 |
\*---------------------------------------------------------------------------*/
FoamFile
{
    version     2.0;
    format      ascii;
    class       pointVectorField;
    location    "3.4";
    object      pointD;
}
// * * * * * * * * * * * * * * * * * * * * * * * * * * * * * * * * * * * * * //

dimensions      [0 1 0 0 0 0 0];

internalField   nonuniform List<vector> 
405
(
(0 0 0)
(0 0 0)
(0 0 0)
(0 0 0)
(0 0 0)
(0.000871756 0.000919265 0.000374401)
(0.000536608 0.000312271 0.000234028)
(0.000414784 -2.03497e-05 -2.41008e-05)
(0.000474839 -0.000359357 -0.000289366)
(0.000729712 -0.000959507 -0.000453195)
(0.00174502 0.00135346 0.000242185)
(0.00146787 0.000550405 0.00014752)
(0.00132237 -2.3241e-05 -4.65078e-05)
(0.00136602 -0.000600152 -0.000253985)
(0.00153737 -0.00140563 -0.000388376)
(0.00291879 0.00179919 0.000124362)
(0.00265496 0.000776028 7.07926e-05)
(0.00251075 -3.19082e-05 -6.94016e-05)
(0.00252883 -0.000843911 -0.000223498)
(0.00265975 -0.00187791 -0.000323194)
(0.00424363 0.00211077 -3.08166e-05)
(0.0040151 0.000935401 -2.30564e-05)
(0.00387824 -4.93624e-05 -8.96492e-05)
(0.00387271 -0.00103766 -0.000170733)
(0.00395012 -0.00222369 -0.000211947)
(0.00567339 0.00232044 -0.000177175)
(0.00547366 0.00104087 -0.00011103)
(0.00534418 -7.42135e-05 -0.000108597)
(0.00532022 -0.00119021 -0.000120269)
(0.00535639 -0.00247508 -0.000102875)
(0.00714424 0.00244173 -0.000304761)
(0.00696682 0.00110052 -0.000189217)
(0.00684389 -0.000103834 -0.000128304)
(0.00680655 -0.0013046 -7.90461e-05)
(0.00681275 -0.00264059 -8.02713e-06)
(0.00861769 0.00250882 -0.000407747)
(0.00845079 0.00112883 -0.000258281)
(0.00832772 -0.000133698 -0.000151595)
(0.00828056 -0.00138893 -5.33453e-05)
(0.00827172 -0.00274518 5.86028e-05)
(0.0100901 0.00254115 -0.000475978)
(0.00989603 0.00114493 -0.000309993)
(0.00973577 -0.000153229 -0.000175771)
(0.0096943 -0.00144796 -5.09264e-05)
(0.00969716 -0.00281341 7.90421e-05)
(0 0 0)
(0 0 0)
(0 0 0)
(0 0 0)
(0 0 0)
(0.000938105 0.000874046 0.000214786)
(0.000616652 0.000278333 0.000133654)
(0.000518603 -9.768e-06 -1.92642e-05)
(0.000566516 -0.000296954 -0.000180736)
(0.000810112 -0.000881902 -0.000281792)
(0.00181265 0.00139749 0.000164381)
(0.00155416 0.000585973 9.72144e-05)
(0.00143769 -1.49475e-05 -4.02843e-05)
(0.00146925 -0.00061598 -0.000189035)
(0.00162905 -0.0014296 -0.000285433)
(0.00294294 0.00184939 7.01887e-05)
(0.00270252 0.00081923 3.62352e-05)
(0.00258804 -2.32012e-05 -5.94521e-05)
(0.00259614 -0.000867564 -0.000167217)
(0.00271246 -0.00190743 -0.000235198)
(0.00422044 0.00216959 -4.64221e-05)
(0.00401306 0.000985898 -3.46656e-05)
(0.00390397 -3.82323e-05 -7.7098e-05)
(0.00389124 -0.00106428 -0.000132138)
(0.00395685 -0.00225739 -0.000156227)
(0.00559918 0.00237753 -0.000162034)
(0.00541905 0.00109145 -0.00010443)
(0.00531558 -5.90675e-05 -9.41946e-05)
(0.00528648 -0.0012096 -9.62387e-05)
(0.00531258 -0.00249978 -7.39549e-05)
(0.00702461 0.00249414 -0.000264938)
(0.00686467 0.00114852 -0.000167656)
(0.0067656 -8.3682e-05 -0.000112454)
(0.00672469 -0.00131213 -6.779e-05)
(0.00672253 -0.00265136 -2.56868e-06)
(0.00846152 0.00255358 -0.000348053)
(0.00830966 0.00117083 -0.000222751)
(0.00820796 -0.000109012 -0.000134067)
(0.00815936 -0.00138105 -5.38419e-05)
(0.00814436 -0.00273739 4.47426e-05)
(0.00991669 0.00257998 -0.000401778)
(0.00973657 0.00118168 -0.000263459)
(0.00959625 -0.000126558 -0.000157083)
(0.0095533 -0.00142995 -6.1178e-05)
(0.0095503 -0.00279312 5.0607e-05)
(0 0 0)
(0 0 0)
(0 0 0)
(0 0 0)
(0 0 0)
(0.000986981 0.000883627 0.000109491)
(0.000647432 0.000278854 6.65244e-05)
(0.000543242 -5.779e-06 -1.71013e-05)
(0.000595018 -0.000289518 -0.000106847)
(0.000850142 -0.000887173 -0.000160852)
(0.0018659 0.00139057 8.37169e-05)
(0.00159094 0.000588319 4.48736e-05)
(0.00146759 -8.26457e-06 -3.53707e-05)
(0.00150527 -0.000605576 -0.000122933)
(0.00167883 -0.00141415 -0.000176191)
(0.00297176 0.00183999 2.27518e-05)
(0.00272495 0.000826474 3.18962e-06)
(0.00260788 -1.42497e-05 -5.22996e-05)
(0.00261788 -0.000857316 -0.000115384)
(0.00273838 -0.00188221 -0.000150975)
(0.00421964 0.00216137 -5.70328e-05)
(0.00400842 0.000996495 -4.7685e-05)
(0.0038982 -2.62785e-05 -6.81098e-05)
(0.00388559 -0.001051 -9.6268e-05)
(0.0039527 -0.00222564 -0.000103227)
(0.00556432 0.0023727 -0.000139771)
(0.00538254 0.00110536 -9.95468e-05)
(0.00527897 -4.36838e-05 -8.36498e-05)
(0.00524857 -0.00119217 -7.50877e-05)
(0.00527348 -0.00246229 -5.0248e-05)
(0.00695726 0.00249481 -0.000215812)
(0.00679673 0.00116524 -0.000147769)
(0.00669843 -6.48684e-05 -0.000100341)
(0.00665525 -0.00128975 -5.90197e-05)
(0.00664999 -0.00260957 -4.00987e-06)
(0.00836637 0.0025624 -0.000278553)
(0.00821531 0.00118981 -0.000190019)
(0.00811509 -8.73635e-05 -0.000119997)
(0.00806342 -0.00135393 -5.4824e-05)
(0.00804355 -0.0026931 2.44188e-05)
(0.00980624 0.00259504 -0.000317164)
(0.00962797 0.00120226 -0.000220161)
(0.00948866 -0.00010286 -0.000141752)
(0.00943924 -0.00139892 -7.09549e-05)
(0.00942847 -0.00274642 1.57688e-05)
(0 0 0)
(0 0 0)
(0 0 0)
(0 0 0)
(0 0 0)
(0.00101055 0.000889571 4.82117e-05)
(0.000656925 0.000279408 2.88999e-05)
(0.000545983 -3.53873e-06 -1.47448e-05)
(0.000600056 -0.000285915 -6.20958e-05)
(0.00086459 -0.00088887 -8.7804e-05)
(0.00188998 0.00138121 2.91867e-05)
(0.00160213 0.000586027 1.26714e-05)
(0.00147071 -3.17429e-06 -3.00706e-05)
(0.00151136 -0.000593587 -7.71314e-05)
(0.00169464 -0.00139648 -0.000101348)
(0.00298471 0.00182366 -1.18085e-05)
(0.00272814 0.000824212 -1.6683e-05)
(0.00260445 -6.1816e-06 -4.45161e-05)
(0.00261586 -0.000839253 -7.65794e-05)
(0.00274352 -0.00185074 -8.94801e-05)
(0.00421393 0.00214355 -6.58981e-05)
(0.00399644 0.000995887 -5.28073e-05)
(0.00388098 -1.5017e-05 -5.82151e-05)
(0.00386823 -0.00102782 -6.77399e-05)
(0.00393924 -0.00218504 -6.24675e-05)
(0.00553678 0.00235753 -0.000123659)
(0.00535146 0.00110791 -9.04837e-05)
(0.00524373 -2.91085e-05 -7.18524e-05)
(0.00521197 -0.00116496 -5.69372e-05)
(0.00523789 -0.00241595 -3.07437e-05)
(0.0069078 0.00248562 -0.000178256)
(0.00674568 0.00117191 -0.000126392)
(0.00664417 -4.71238e-05 -8.65946e-05)
(0.00659864 -0.00125944 -4.96337e-05)
(0.00659191 -0.00256035 -3.02667e-06)
(0.00829741 0.00256233 -0.000224387)
(0.00814666 0.00120113 -0.000158322)
(0.00804384 -6.68277e-05 -0.000103941)
(0.00798852 -0.00132148 -5.16398e-05)
(0.0079644 -0.00264286 1.1846e-05)
(0.00972515 0.00260426 -0.000252722)
(0.00954812 0.00121879 -0.000181432)
(0.00940515 -7.96498e-05 -0.000123806)
(0.00934861 -0.00136531 -7.06395e-05)
(0.0093304 -0.00269643 -2.93351e-06)
(0 0 0)
(0 0 0)
(0 0 0)
(0 0 0)
(0 0 0)
(0.00102046 0.0008914 1.66479e-05)
(0.000657818 0.000279549 9.58414e-06)
(0.0005423 -1.8789e-06 -1.19074e-05)
(0.000597133 -0.000282703 -3.55282e-05)
(0.000866864 -0.000885808 -4.63306e-05)
(0.00189843 0.00137389 5.42248e-07)
(0.00160121 0.000583964 -3.60243e-06)
(0.00146406 1.04199e-06 -2.42254e-05)
(0.00150558 -0.000583095 -4.73858e-05)
(0.00169474 -0.0013807 -5.58566e-05)
(0.00298608 0.00181088 -2.83884e-05)
(0.00272126 0.00082142 -2.47561e-05)
(0.00259232 8.64373e-07 -3.59681e-05)
(0.00260404 -0.000822357 -4.95242e-05)
(0.00273655 -0.00182388 -5.00937e-05)
(0.00420384 0.00212884 -6.54725e-05)
(0.00398006 0.000993948 -5.03746e-05)
(0.00386015 -5.03659e-06 -4.72478e-05)
(0.00384694 -0.00100573 -4.62825e-05)
(0.003921 -0.00214979 -3.50518e-05)
(0.00551288 0.00234424 -0.000105476)
(0.00532314 0.00110826 -7.73999e-05)
(0.00521172 -1.62031e-05 -5.86201e-05)
(0.00517881 -0.00113897 -4.1669e-05)
(0.00520586 -0.00237521 -1.68081e-05)
(0.00686942 0.00247643 -0.000144137)
(0.0067044 0.00117558 -0.000103677)
(0.00659988 -3.14786e-05 -7.10043e-05)
(0.00655252 -0.00123077 -3.95541e-05)
(0.00654506 -0.00251651 -1.12752e-06)
(0.00824546 0.00255944 -0.000177558)
(0.00809315 0.00120867 -0.00012742)
(0.00798759 -4.87148e-05 -8.55449e-05)
(0.00792941 -0.00129107 -4.44515e-05)
(0.0079026 -0.00259741 5.41207e-06)
(0.00966343 0.00260767 -0.000197787)
(0.00948517 0.00123051 -0.000144587)
(0.00933837 -5.90144e-05 -0.000102283)
(0.00927653 -0.00133376 -6.25432e-05)
(0.00925354 -0.00265045 -1.04491e-05)
(0 0 0)
(0 0 0)
(0 0 0)
(0 0 0)
(0 0 0)
(0.00102382 0.000891262 2.31461e-06)
(0.00065594 0.000279554 8.88267e-07)
(0.000537541 -5.61271e-07 -8.87097e-06)
(0.000592429 -0.000279923 -1.98173e-05)
(0.000864522 -0.00088115 -2.34532e-05)
(0.00189938 0.00136867 -1.08519e-05)
(0.00159614 0.000582779 -9.47133e-06)
(0.00145523 4.48962e-06 -1.81345e-05)
(0.00149677 -0.000574854 -2.82839e-05)
(0.0016891 -0.00136792 -2.94482e-05)
(0.00298185 0.00180238 -3.11938e-05)
(0.00271131 0.00081981 -2.44367e-05)
(0.00257877 6.67447e-06 -2.70431e-05)
(0.00259029 -0.000809003 -3.09554e-05)
(0.00272557 -0.00180337 -2.65399e-05)
(0.00419217 0.00211901 -5.63288e-05)
(0.00396364 0.000992919 -4.21579e-05)
(0.00384056 3.17825e-06 -3.56859e-05)
(0.00382684 -0.00098806 -3.03557e-05)
(0.00390275 -0.00212294 -1.8233e-05)
(0.00549229 0.00233512 -8.34453e-05)
(0.00529891 0.00110879 -6.09319e-05)
(0.0051848 -5.65229e-06 -4.44924e-05)
(0.00515103 -0.00111799 -2.89538e-05)
(0.00517883 -0.00234378 -8.04132e-06)
(0.00683922 0.00246974 -0.000110039)
(0.00667152 0.00117839 -7.94416e-05)
(0.00656475 -1.87872e-05 -5.41384e-05)
(0.00651613 -0.00120746 -2.93428e-05)
(0.00650825 -0.00248209 3.92223e-07)
(0.00820567 0.00255658 -0.000133423)
(0.00805156 0.00121413 -9.63671e-05)
(0.00794388 -3.41086e-05 -6.54165e-05)
(0.00788378 -0.00126621 -3.47321e-05)
(0.00785531 -0.00256108 2.5239e-06)
(0.00961588 0.00260887 -0.000147532)
(0.00943586 0.00123897 -0.000108657)
(0.00928604 -4.2369e-05 -7.83257e-05)
(0.00922076 -0.00130774 -4.95392e-05)
(0.00919487 -0.00261311 -1.11394e-05)
(0 0 0)
(0 0 0)
(0 0 0)
(0 0 0)
(0 0 0)
(0.00102451 0.000890512 -2.45628e-06)
(0.000653747 0.000279541 -1.9015e-06)
(0.00053362 4.15663e-07 -5.8419e-06)
(0.000588322 -0.000277806 -1.04088e-05)
(0.000861304 -0.000876889 -1.1094e-05)
(0.00189773 0.0013652 -1.18422e-05)
(0.00159087 0.000582235 -9.10247e-06)
(0.00144765 7.06165e-06 -1.2024e-05)
(0.00148894 -0.000568995 -1.57753e-05)
(0.00168284 -0.00135862 -1.44781e-05)
(0.00297646 0.00179717 -2.5e-05)
(0.00270231 0.000819162 -1.87848e-05)
(0.00256748 1.10017e-05 -1.80111e-05)
(0.00257868 -0.000799573 -1.79407e-05)
(0.00271541 -0.00178908 -1.30077e-05)
(0.00418192 0.0021131 -4.07834e-05)
(0.00395023 0.00099273 -3.00331e-05)
(0.0038251 9.26375e-06 -2.3862e-05)
(0.00381094 -0.000975538 -1.82802e-05)
(0.00388786 -0.00210438 -8.61234e-06)
(0.00547636 0.0023296 -5.77586e-05)
(0.00528041 0.00110961 -4.19609e-05)
(0.00516454 2.10796e-06 -2.98688e-05)
(0.00513017 -0.00110303 -1.82149e-05)
(0.00515838 -0.0023219 -3.23201e-06)
(0.00681704 0.00246554 -7.45477e-05)
(0.00664735 0.00118063 -5.38224e-05)
(0.00653907 -9.52041e-06 -3.64719e-05)
(0.00648965 -0.00119071 -1.93295e-05)
(0.00648152 -0.00245785 9.9554e-07)
(0.00817702 0.0025545 -8.94646e-05)
(0.0080214 0.00121802 -6.4752e-05)
(0.00791228 -2.35062e-05 -4.4158e-05)
(0.007851 -0.00124822 -2.36529e-05)
(0.00782161 -0.00253513 1.24496e-06)
(0.00958166 0.00260914 -9.84648e-05)
(0.00940003 0.00124473 -7.27173e-05)
(0.00924811 -3.03201e-05 -5.28807e-05)
(0.00918076 -0.00128873 -3.39637e-05)
(0.00915326 -0.00258609 -8.51102e-06)
(0 0 0)
(0 0 0)
(0 0 0)
(0 0 0)
(0 0 0)
(0.00102437 0.000889852 -2.27191e-06)
(0.000652204 0.000279533 -1.60621e-06)
(0.000531162 1.0178e-06 -2.89105e-06)
(0.000585675 -0.000276492 -4.44518e-06)
(0.00085891 -0.000874036 -4.33488e-06)
(0.00189597 0.00136321 -7.15416e-06)
(0.00158723 0.000582033 -5.30315e-06)
(0.00144275 8.64816e-06 -5.98246e-06)
(0.00148382 -0.000565502 -7.0343e-06)
(0.0016784 -0.00135299 -5.8368e-06)
(0.00297241 0.00179438 -1.36505e-05)
(0.0026963 0.000818992 -1.00787e-05)
(0.00256021 1.36647e-05 -8.99064e-06)
(0.00257117 -0.00079399 -8.21147e-06)
(0.00270856 -0.00178066 -5.20953e-06)
(0.00417506 0.00211 -2.13045e-05)
(0.00394162 0.00099287 -1.55603e-05)
(0.00381533 1.29926e-05 -1.19435e-05)
(0.00380088 -0.000968123 -8.57877e-06)
(0.00387828 -0.00209352 -3.30626e-06)
(0.00546628 0.00232671 -2.95146e-05)
(0.00526886 0.00111033 -2.13724e-05)
(0.00515199 6.83846e-06 -1.49885e-05)
(0.00511727 -0.00109413 -8.78507e-06)
(0.00514568 -0.00230907 -9.9252e-07)
(0.00680339 0.00246329 -3.76693e-05)
(0.00663251 0.00118212 -2.71786e-05)
(0.00652338 -3.89976e-06 -1.83418e-05)
(0.00647353 -0.00118071 -9.58069e-06)
(0.00646526 -0.00244353 7.42619e-07)
(0.00815958 0.00255327 -4.49533e-05)
(0.00800302 0.00122038 -3.25496e-05)
(0.00789307 -1.70999e-05 -2.22318e-05)
(0.00783117 -0.00123742 -1.19431e-05)
(0.00780132 -0.00251968 5.48742e-07)
(0.00956082 0.00260907 -4.93543e-05)
(0.00937818 0.0012481 -3.64739e-05)
(0.00922507 -2.30485e-05 -2.66164e-05)
(0.0091566 -0.00127726 -1.72006e-05)
(0.00912831 -0.00256987 -4.48475e-06)
(0 0 0)
(0 0 0)
(0 0 0)
(0 0 0)
(0 0 0)
(0.00102424 0.000889601 -0)
(0.00065166 0.000279531 -0)
(0.000530332 1.22115e-06 -0)
(0.000584772 -0.000276047 0)
(0.000858049 -0.000873044 0)
(0.00189527 0.00136256 -0)
(0.00158595 0.000581986 0)
(0.00144107 9.1839e-06 0)
(0.00148205 -0.000564343 0)
(0.00167682 -0.00135111 0)
(0.00297093 0.0017935 -0)
(0.00269421 0.000818972 0)
(0.00255772 1.45628e-05 0)
(0.00256859 -0.000792143 0)
(0.00270618 -0.00177787 0)
(0.00417265 0.00210904 -0)
(0.00393865 0.00099296 0)
(0.003812 1.42474e-05 -0)
(0.00379745 -0.000965671 0)
(0.00387499 -0.00208995 0)
(0.00546283 0.00232582 -0)
(0.00526493 0.00111061 0)
(0.00514774 8.42638e-06 0)
(0.00511291 -0.00109119 0)
(0.00514137 -0.00230484 0)
(0.00679877 0.00246258 -0)
(0.00662751 0.00118264 0)
(0.00651809 -2.01737e-06 0)
(0.0064681 -0.00117739 0)
(0.00645979 -0.00243881 0)
(0.00815369 0.00255286 -0)
(0.00799683 0.00122117 0)
(0.00788662 -1.49572e-05 0)
(0.00782452 -0.00123383 0)
(0.00779453 -0.00251456 0)
(0.00955378 0.00260897 -0)
(0.00937083 0.00124919 -0)
(0.00921733 -2.06145e-05 0)
(0.00914852 -0.00127342 0)
(0.00911998 -0.00256447 0)
)
;

boundaryField
{
    interface
    {
        type            calculated;
    }
    symmetry
    {
        type            symmetryPlane;
    }
    bottom
    {
        type            fixedValue;
        value           uniform (0 0 0);
    }
}


// ************************************************************************* //
