/*--------------------------------*- C++ -*----------------------------------*\
| =========                 |                                                 |
| \\      /  F ield         | foam-extend: Open Source CFD                    |
|  \\    /   O peration     | Version:     3.1                                |
|   \\  /    A nd           | Web:         http://www.extend-project.de       |
|    \\/     M anipulation  |                                                 |
\*---------------------------------------------------------------------------*/
FoamFile
{
    version     2.0;
    format      ascii;
    class       volSymmTensorField;
    location    "3.4";
    object      sigma;
}
// * * * * * * * * * * * * * * * * * * * * * * * * * * * * * * * * * * * * * //

dimensions      [1 -1 -2 0 0 0 0];

internalField   nonuniform List<symmTensor> 
256
(
(175.835 61.0774 -2.6623 397.819 31.3456 203.51)
(23.392 52.0187 -8.10896 80.6215 10.8699 32.0734)
(-54.7374 48.4704 -8.28469 -110.034 -15.6323 -54.5338)
(-197.808 51.4907 -3.36971 -407.31 -38.1254 -213.98)
(-74.7691 25.5355 -3.03995 119.894 -10.4669 -20.6392)
(-31.9886 66.926 -12.7961 44.3954 -4.68865 -8.91494)
(-1.57319 65.4807 -13.2424 -51.8178 2.2748 -2.78752)
(39.5747 24.5651 -4.66666 -128.757 7.13825 9.29241)
(-27.5151 31.2319 -1.13799 146.831 -5.82693 26.1065)
(-33.2059 64.766 -8.7487 40.3749 -2.43541 -3.94116)
(-7.19873 64.7595 -9.09978 -46.2963 0.16781 -7.58194)
(-6.72215 31.4729 -2.83998 -148.355 3.24223 -30.711)
(-38.6899 27.4678 -1.10111 99.9352 -8.17631 12.9319)
(-34.2426 59.2066 -7.18519 28.1394 -2.88475 -4.79012)
(-6.94926 59.5516 -7.44563 -32.4122 1.0627 -3.9817)
(4.08705 28.1657 -2.95156 -98.5211 6.21345 -13.869)
(-35.6158 23.9463 -0.722283 70.3463 -7.50309 13.3803)
(-32.4228 51.1867 -5.75208 18.782 -2.48879 -3.25173)
(-8.43672 51.7854 -5.97153 -22.7072 1.05969 -3.49534)
(1.24273 25.0432 -2.60346 -67.2768 6.12878 -11.6694)
(-36.2898 18.602 -0.791333 42.4469 -6.56633 10.8619)
(-31.4309 41.2998 -4.99608 9.94867 -2.18045 -2.70606)
(-9.12367 42.2704 -5.08312 -14.6449 0.96496 -2.9266)
(1.69199 20.459 -2.51702 -38.9477 5.69874 -7.9003)
(-35.7013 12.1515 -1.33982 25.1963 -5.48428 11.6233)
(-31.9216 30.3489 -4.79631 2.9582 -2.15094 -2.42783)
(-9.86272 31.3768 -4.6475 -8.95886 0.586995 -3.0324)
(2.37079 14.9851 -2.62993 -19.1677 4.52242 -6.39453)
(-47.0336 7.00903 -1.94589 9.29372 -3.17537 6.73491)
(-45.0096 17.4951 -4.54062 -6.35949 -1.47933 -8.54734)
(-4.68699 16.9909 -4.47083 -0.400329 -0.150448 0.651194)
(9.06565 7.47203 -3.11398 -5.05629 1.606 -3.55389)
(177.762 69.2558 -1.60273 395.292 19.1582 211.997)
(29.3128 62.3214 -6.4682 84.3418 6.05464 38.9688)
(-49.4777 59.2472 -7.08144 -97.8097 -11.1306 -51.3054)
(-189.952 60.0802 -3.08983 -389.409 -25.9858 -212.24)
(-42.6845 26.0986 -2.21091 162.647 -4.35983 17.5031)
(-9.73322 68.8358 -11.8732 69.2016 -2.82505 12.5618)
(-21.0991 68.0362 -13.1961 -75.3657 -1.11019 -23.8609)
(6.96382 26.1681 -5.39355 -172.364 -0.380269 -29.062)
(-21.6072 27.3275 -0.682288 152.179 -9.20376 30.9128)
(-21.7875 59.2192 -9.31895 48.9968 -3.86909 3.56063)
(-12.6696 59.4027 -10.7551 -51.4885 1.22252 -12.6483)
(-10.0697 27.6305 -4.35943 -151.694 6.12208 -33.506)
(-28.1881 22.7824 0.464328 108.943 -11.2595 21.8973)
(-22.0793 51.2691 -6.56097 36.8851 -4.09507 2.93161)
(-12.0934 51.6444 -8.0649 -36.8031 2.37718 -9.16741)
(-3.37487 23.4053 -3.58895 -104.82 9.38703 -20.7563)
(-27.8072 18.8268 1.50554 75.3985 -11.1673 19.3911)
(-21.901 42.6672 -4.36298 25.4334 -3.82142 2.55754)
(-11.2546 43.2225 -5.89755 -24.1103 2.76911 -6.48222)
(-3.26236 19.801 -2.70685 -68.98 10.2515 -15.5064)
(-28.5927 13.9811 2.02753 47.1893 -9.85169 17.0809)
(-21.7289 33.5956 -2.91591 15.81 -3.34005 2.40007)
(-10.7543 34.4824 -4.34969 -14.4544 2.54724 -4.79925)
(-2.37162 15.7414 -2.06618 -39.4419 9.58504 -11.4743)
(-28.6613 8.32507 1.95 29.2408 -7.74614 17.4248)
(-23.715 24.2891 -2.2615 7.36181 -2.89275 1.3969)
(-10.3812 25.3 -3.4947 -7.44332 1.71843 -3.67516)
(-0.440426 11.3482 -1.70794 -17.8415 7.49589 -8.64377)
(-39.7506 5.17743 1.45836 13.9092 -4.41055 12.7898)
(-37.955 14.4351 -2.21439 -2.71582 -1.90834 -5.63468)
(-6.3224 13.9003 -3.67236 -0.170281 0.44341 -0.643082)
(4.90776 5.80741 -2.30017 -5.54712 3.51985 -6.74095)
(184.224 72.6992 -1.05232 405.427 9.30775 225.976)
(32.0063 64.9163 -4.10832 88.601 2.38064 44.7168)
(-49.747 61.5781 -4.62167 -97.2005 -6.96059 -54.0671)
(-195.768 62.6029 -2.1515 -396.402 -14.8451 -225.081)
(-43.4174 26.5562 -1.77855 163.92 -3.04534 29.6569)
(-8.01128 69.867 -7.99234 73.3341 -2.31472 19.9144)
(-22.5875 69.0965 -9.12027 -76.6298 -1.47777 -29.8608)
(4.9662 26.623 -4.16821 -173.89 -0.988031 -43.6957)
(-22.3971 26.9072 -0.990362 154.21 -7.18297 38.6202)
(-21.0895 58.6264 -6.87437 52.0937 -3.32469 8.50346)
(-13.5608 58.7969 -8.12366 -52.5123 0.70943 -16.6546)
(-12.1005 26.9857 -3.71302 -154.21 4.44425 -44.402)
(-29.3105 21.9279 -0.0686557 109.881 -9.22077 25.3891)
(-21.4151 49.2209 -4.96611 39.234 -3.62476 6.39647)
(-12.886 49.5726 -6.25735 -37.0305 2.02634 -11.4592)
(-5.61672 22.3991 -2.96461 -106.704 7.63024 -27.9485)
(-29.7961 17.6 0.773939 75.2134 -9.47931 19.2891)
(-21.2881 40.0298 -3.12835 27.4342 -3.43357 5.02699)
(-11.9207 40.6074 -4.42247 -23.8285 2.6074 -7.45172)
(-4.81242 18.5543 -2.15935 -69.6739 8.8446 -19.0798)
(-30.9288 12.6422 1.29412 46.5222 -8.53575 14.6644)
(-21.1139 30.9219 -1.82402 17.5484 -2.98969 4.18935)
(-11.2873 31.9335 -3.03091 -13.7307 2.54687 -4.67701)
(-3.55734 14.6143 -1.50368 -39.3518 8.54994 -12.3309)
(-30.699 6.96365 1.35018 28.8608 -6.71231 13.7832)
(-23.1387 22.0746 -1.25809 8.83126 -2.45786 2.59977)
(-10.9277 23.3311 -2.346 -6.51774 1.8431 -2.70184)
(-1.40253 10.545 -1.17191 -17.1758 6.86712 -7.28402)
(-42.5558 4.50743 0.88818 12.3533 -3.58411 6.88557)
(-38.0207 13.3224 -1.59837 -1.80226 -1.43586 -5.43231)
(-7.52565 12.928 -2.98861 0.676741 0.548965 1.06866)
(4.71726 5.49702 -1.93949 -3.50009 3.16456 -2.21775)
(187.588 73.9698 -0.559082 411.128 3.77389 234.4)
(32.9405 65.3599 -2.42574 90.693 0.484795 47.8057)
(-50.1314 61.7172 -2.77263 -97.0435 -4.27216 -55.929)
(-198.595 63.092 -1.33083 -399.713 -8.06461 -232.517)
(-44.5334 26.6771 -1.02432 163.872 -2.54799 38.1605)
(-8.41219 70.3395 -4.9585 74.7746 -1.90895 23.8547)
(-23.0038 69.503 -5.73897 -76.0168 -1.27886 -33.1062)
(4.51504 26.7104 -2.73511 -173.151 -0.651122 -53.1158)
(-23.1211 27.0364 -0.678319 155.368 -5.19799 45.9445)
(-22.0916 58.8655 -4.60743 53.2765 -2.55173 11.479)
(-13.967 59.0239 -5.47958 -52.019 0.322992 -19.2711)
(-12.711 27.0451 -2.62028 -154.178 3.00294 -52.5748)
(-30.1805 21.8838 -0.119885 111.069 -6.67876 30.1773)
(-22.4504 49.0658 -3.49032 40.2952 -2.75887 8.52712)
(-13.4366 49.425 -4.36925 -36.5412 1.41312 -13.1823)
(-6.26133 22.3374 -2.13848 -106.767 5.40751 -33.6665)
(-30.6769 17.3897 0.457706 76.4171 -7.01798 21.7127)
(-22.2605 39.5656 -2.24559 28.457 -2.63162 6.45597)
(-12.5564 40.199 -3.10374 -23.3147 1.97784 -8.24579)
(-5.45136 18.4235 -1.54474 -69.6409 6.53878 -22.213)
(-31.7422 12.287 0.845815 47.7928 -6.47765 15.2431)
(-21.9792 30.291 -1.31657 18.5405 -2.31719 5.09993)
(-11.9339 31.437 -2.10318 -13.1519 2.02427 -4.60026)
(-4.19154 14.494 -1.04081 -39.1738 6.52819 -13.2048)
(-31.1027 6.49037 0.889262 30.5266 -5.23413 13.2523)
(-23.9252 21.4699 -0.995699 9.7716 -1.91239 3.12279)
(-11.678 22.9229 -1.71448 -5.91511 1.51612 -1.88504)
(-2.08675 10.493 -0.823618 -16.7524 5.38199 -6.22839)
(-42.9075 4.29138 0.407402 13.8648 -2.93413 5.37509)
(-38.9998 12.9942 -1.60264 -0.859826 -1.1475 -5.14117)
(-8.92147 12.6682 -2.58265 1.13837 0.467474 2.44594)
(3.85886 5.48661 -1.59039 -2.79605 2.52589 0.606817)
(188.855 74.3321 -0.250579 413.565 1.04791 238.665)
(33.301 65.119 -1.35275 91.7955 -0.326234 49.4727)
(-50.2721 61.2464 -1.5739 -96.6326 -2.58137 -56.8869)
(-199.329 62.8756 -0.772053 -400.061 -4.21854 -235.896)
(-45.5304 26.6233 -0.488431 163.678 -2.12632 43.2307)
(-8.90414 70.3804 -2.89398 75.5696 -1.51012 26.1227)
(-23.3129 69.4919 -3.4049 -75.2252 -0.972165 -35.0198)
(4.22573 26.6544 -1.66393 -172.284 -0.307755 -58.8092)
(-24.0078 27.1331 -0.353083 155.83 -3.67578 50.7545)
(-22.9637 59.0935 -2.8749 53.9887 -1.85576 13.3574)
(-14.3415 59.262 -3.45247 -51.2835 0.115516 -20.9785)
(-12.9252 27.1396 -1.68607 -153.455 2.01154 -57.7828)
(-31.1201 21.9949 -0.0465972 111.755 -4.60137 33.7427)
(-23.3524 49.311 -2.28035 41.0374 -1.9592 9.97859)
(-13.9021 49.6985 -2.85075 -35.8947 0.908197 -14.4157)
(-6.52465 22.4849 -1.4104 -106.215 3.63365 -37.6013)
(-31.5611 17.4532 0.304127 77.3033 -4.87184 23.8873)
(-23.1132 39.7303 -1.52451 29.2345 -1.87123 7.49119)
(-13.0684 40.4215 -2.06912 -22.7354 1.35778 -8.88079)
(-5.76083 18.5842 -1.02851 -69.2085 4.49456 -24.5545)
(-32.5337 12.2582 0.545076 48.823 -4.59131 16.2096)
(-22.7399 30.3436 -0.950444 19.3375 -1.67298 5.81875)
(-12.4617 31.5912 -1.4412 -12.6192 1.43256 -4.62864)
(-4.52911 14.655 -0.700767 -38.7661 4.59103 -13.982)
(-31.621 6.35222 0.534819 31.8204 -3.81642 13.4512)
(-24.6494 21.4428 -0.838889 10.531 -1.40936 3.59748)
(-12.3002 23.0173 -1.28899 -5.43445 1.08413 -1.38393)
(-2.45768 10.6476 -0.601105 -16.2303 3.85413 -5.59795)
(-43.6417 4.24497 0.0650938 14.8381 -2.20061 4.64488)
(-40.0553 12.9776 -1.52352 -0.247921 -0.864734 -4.98972)
(-9.9959 12.6545 -2.16699 1.51323 0.31583 3.31297)
(3.3536 5.55278 -1.2859 -2.1549 1.81206 2.42341)
(189.204 74.354 -0.0843337 414.425 -0.070925 240.696)
(33.4401 64.743 -0.707304 92.4066 -0.532218 50.3626)
(-50.2438 60.7112 -0.841769 -96.1122 -1.50173 -57.2985)
(-199.182 62.4968 -0.420139 -399.215 -2.09891 -237.182)
(-46.1843 26.5062 -0.176048 163.57 -1.61672 46.1363)
(-9.27276 70.2279 -1.57864 76.0803 -1.09645 27.3951)
(-23.5196 69.3051 -1.89667 -74.5149 -0.667199 -36.1073)
(3.97176 26.5526 -0.942947 -171.553 -0.0985055 -62.106)
(-24.6565 27.158 -0.129186 156.11 -2.46769 53.704)
(-23.5618 59.1876 -1.66211 54.4844 -1.26064 14.4861)
(-14.6329 59.3714 -2.02565 -50.6244 0.0232314 -22.0346)
(-13.0463 27.1846 -0.999717 -152.715 1.29935 -60.8991)
(-31.8009 22.084 0.0269201 112.216 -2.99506 36.1192)
(-23.9749 49.5355 -1.37252 41.5739 -1.29781 10.9048)
(-14.2342 49.9515 -1.72666 -35.2995 0.546503 -15.2158)
(-6.66739 22.6204 -0.855668 -105.587 2.31073 -40.0733)
(-32.199 17.545 0.221706 77.926 -3.17043 25.528)
(-23.7015 39.9749 -0.953576 29.8071 -1.23734 8.20059)
(-13.4149 40.7123 -1.28645 -22.2075 0.857394 -9.31808)
(-5.92549 18.7592 -0.633587 -68.683 2.88432 -26.1134)
(-33.0963 12.3003 0.352925 49.5627 -3.03196 17.1723)
(-23.2684 30.5332 -0.639218 19.9212 -1.12156 6.35622)
(-12.8131 31.852 -0.935463 -12.1577 0.920431 -4.67715)
(-4.72167 14.8356 -0.444693 -38.3073 2.98447 -14.5873)
(-32.0073 6.31077 0.313771 32.7294 -2.57689 13.9721)
(-25.1714 21.5489 -0.646884 11.0709 -0.964119 3.98694)
(-12.7233 23.2008 -0.919321 -5.05066 0.694643 -1.09775)
(-2.67721 10.8057 -0.418652 -15.7443 2.53163 -5.31593)
(-44.119 4.23127 -0.0650874 15.6454 -1.52724 4.68975)
(-40.8292 13.0242 -1.23658 0.194584 -0.606829 -4.81181)
(-10.7334 12.6909 -1.64158 1.79398 0.185642 3.77467)
(2.95653 5.6078 -0.948675 -1.73452 1.19067 3.30462)
(189.214 74.2873 -0.0155831 414.627 -0.320604 241.584)
(33.492 64.4375 -0.329292 92.7423 -0.419241 50.8183)
(-50.1614 60.306 -0.401534 -95.6679 -0.778488 -57.4402)
(-198.82 62.1778 -0.203297 -398.222 -0.941509 -237.545)
(-46.5818 26.3982 -0.03884 163.505 -1.01174 47.6659)
(-9.50625 70.0513 -0.762176 76.3998 -0.665993 28.0663)
(-23.6371 69.1083 -0.936014 -73.9913 -0.386637 -36.6812)
(3.7926 26.4619 -0.471187 -171.02 -0.00936615 -63.8799)
(-25.0741 27.1464 -0.0255665 156.276 -1.42944 55.3354)
(-23.9232 59.1971 -0.84094 54.8132 -0.733449 15.1134)
(-14.8225 59.3936 -1.04135 -50.1489 -0.0061444 -22.6344)
(-13.1191 27.194 -0.516785 -152.159 0.73448 -62.6189)
(-32.2383 22.1302 0.0450817 112.499 -1.6937 37.5066)
(-24.3519 49.6662 -0.716786 41.9304 -0.740913 11.4447)
(-14.4407 50.1029 -0.91046 -34.8645 0.288799 -15.6835)
(-6.75069 22.7036 -0.450463 -105.102 1.28307 -41.486)
(-32.6137 17.6065 0.139824 78.3014 -1.78834 26.5576)
(-24.0575 40.1477 -0.513913 30.1838 -0.704871 8.63934)
(-13.6221 40.9157 -0.694346 -21.8194 0.467928 -9.58122)
(-6.01446 18.8785 -0.338572 -68.2603 1.60503 -27.04)
(-33.4663 12.337 0.200523 50.0021 -1.72579 17.8574)
(-23.5894 30.6837 -0.366343 20.2976 -0.645284 6.71234)
(-13.02 32.0469 -0.525775 -11.8232 0.506772 -4.71495)
(-4.82639 14.9617 -0.245341 -37.938 1.67085 -14.9863)
(-32.2803 6.29502 0.161281 33.2604 -1.48931 14.4275)
(-25.4944 21.6414 -0.40811 11.4115 -0.562956 4.26444)
(-12.9766 23.3386 -0.555031 -4.78315 0.379863 -0.947458)
(-2.79601 10.913 -0.249476 -15.3789 1.42444 -5.21491)
(-44.4492 4.22878 -0.0840552 16.1342 -0.902394 4.89695)
(-41.3244 13.0678 -0.797832 0.467985 -0.360384 -4.66855)
(-11.1851 12.7206 -1.02202 1.98395 0.0939335 3.99317)
(2.70316 5.64003 -0.582869 -1.46077 0.669152 3.68319)
(189.163 74.2351 0.00011278 414.633 -0.148552 241.906)
(33.5087 64.2741 -0.0948594 92.8929 -0.154569 51.0104)
(-50.1021 60.0946 -0.117585 -95.4185 -0.240401 -57.4746)
(-198.572 62.0041 -0.0600324 -397.617 -0.265273 -237.597)
(-46.7691 26.3365 -0.0026632 163.471 -0.344238 48.3146)
(-9.61833 69.9436 -0.224568 76.5554 -0.223426 28.3532)
(-23.6883 68.9913 -0.27975 -73.7151 -0.12639 -36.9259)
(3.70198 26.4108 -0.141769 -170.739 0.00516292 -64.6494)
(-25.2758 27.1317 -0.000398377 156.354 -0.469095 56.0505)
(-24.0924 59.1844 -0.25473 54.9783 -0.241035 15.3904)
(-14.9141 59.3878 -0.318622 -49.9019 -0.0050604 -22.904)
(-13.1537 27.1918 -0.158473 -151.865 0.238209 -63.3779)
(-32.4494 22.1474 0.0194555 112.633 -0.548896 38.1348)
(-24.5286 49.7208 -0.22117 42.1086 -0.241125 11.6905)
(-14.5386 50.168 -0.282673 -34.6379 0.0899946 -15.8974)
(-6.78998 22.7406 -0.139617 -104.845 0.411634 -42.1231)
(-32.8153 17.6344 0.0473861 78.4759 -0.578558 27.0434)
(-24.2243 40.2301 -0.161572 30.3697 -0.229118 8.84679)
(-13.7182 41.013 -0.218643 -21.6165 0.148228 -9.70317)
(-6.05405 18.9355 -0.105979 -68.0319 0.514895 -27.4677)
(-33.6467 12.3544 0.0643945 50.2028 -0.560832 18.2028)
(-23.74 30.759 -0.119458 20.4801 -0.210849 6.88772)
(-13.1147 32.1431 -0.169692 -11.6491 0.16113 -4.73435)
(-4.87278 15.0229 -0.0784177 -37.7377 0.537214 -15.1821)
(-32.4167 6.28782 0.0480981 33.4983 -0.488225 14.6781)
(-25.6471 21.6887 -0.139882 11.5741 -0.1854 4.4063)
(-13.0937 23.4058 -0.186146 -4.64602 0.120268 -0.883896)
(-2.84916 10.964 -0.0832534 -15.1871 0.458879 -5.19063)
(-44.606 4.23011 -0.0372397 16.3603 -0.301088 5.04853)
(-41.5598 13.0927 -0.275443 0.599156 -0.119861 -4.58974)
(-11.4007 12.7339 -0.347084 2.07935 0.0287691 4.07419)
(2.57569 5.65276 -0.197057 -1.32915 0.215563 3.80774)
)
;

boundaryField
{
    interface
    {
        type            calculated;
        value           nonuniform List<symmTensor> 
192
(
(-22.6686 -0.0745024 2.40384 412.978 38.7762 124.265)
(-22.0567 0.0411478 4.08766 200.301 -12.7343 23.9625)
(-22.0041 0.128944 4.91933 201.181 -7.95076 45.3448)
(-22.0653 0.0795034 5.38334 146.334 -11.4985 35.7852)
(-22.47 -0.224171 5.64928 103.787 -10.7548 32.4798)
(-23.0544 -0.868754 5.72309 66.7928 -9.42498 28.5934)
(-23.5811 -2.0627 5.53225 44.2622 -7.50813 28.3667)
(-22.5202 -3.89649 4.85563 32.2985 -4.13523 30.9572)
(-25.6729 0.101911 1.73481 407.793 23.9568 131.816)
(-25.4052 0.290378 2.97238 220.588 -4.97146 40.9711)
(-26.0483 0.410234 3.57283 198.953 -11.9787 43.5887)
(-26.836 0.304472 3.90161 145.598 -15.1852 35.9044)
(-27.7501 -0.117357 4.07132 100.61 -15.2497 31.4777)
(-28.5319 -0.963925 4.08612 63.7548 -13.5107 28.398)
(-28.5745 -2.4911 3.89752 41.9063 -10.4247 29.139)
(-25.2336 -4.65787 3.384 31.9604 -5.75875 33.6467)
(-27.6752 0.153168 1.25311 414.954 11.7575 142.664)
(-27.2903 0.375394 2.13873 218.289 -3.32158 53.2691)
(-28.0788 0.51409 2.53558 198.604 -9.02144 50.4118)
(-29.0275 0.384334 2.73246 144.832 -11.999 37.6428)
(-30.0388 -0.105567 2.8236 99.3497 -12.5398 29.1781)
(-30.7618 -1.07217 2.8146 62.5632 -11.3934 23.4728)
(-30.3936 -2.77701 2.68441 41.5775 -8.92711 22.863)
(-25.8898 -5.06662 2.36578 31.4287 -4.75357 26.0106)
(-29.1175 0.163248 0.921355 419.008 4.79394 149.645)
(-28.6189 0.398287 1.57559 216.742 -2.86001 63.2154)
(-29.4256 0.545781 1.85525 198.662 -6.41986 58.6546)
(-30.402 0.402273 1.98311 145.31 -8.52899 42.7345)
(-31.4122 -0.130628 2.0379 100.018 -9.13116 31.1687)
(-32.0433 -1.17232 2.02763 63.4945 -8.52556 23.0551)
(-31.3928 -2.98239 1.94547 43.1098 -6.91372 20.9062)
(-26.1957 -5.33035 1.73899 33.0207 -3.9003 23.1294)
(-30.1533 0.162464 0.665554 420.494 1.35369 153.27)
(-29.5836 0.399928 1.14293 215.892 -2.46925 69.3792)
(-30.3803 0.549274 1.34256 198.73 -4.52591 64.5007)
(-31.3486 0.396718 1.42931 145.802 -5.82586 47.0503)
(-32.337 -0.163322 1.46569 100.816 -6.28225 33.6314)
(-32.892 -1.25245 1.45992 64.5311 -5.99704 23.8935)
(-32.0547 -3.12971 1.41078 44.516 -5.02282 20.6534)
(-26.3968 -5.51283 1.27365 34.41 -2.92941 22.1165)
(-30.8768 0.159148 0.45223 420.742 -0.0635842 154.992)
(-30.262 0.395221 0.779593 215.405 -1.92046 72.9053)
(-31.0455 0.543537 0.915427 198.824 -3.04576 68.1524)
(-31.9996 0.385075 0.973037 146.198 -3.78247 50.029)
(-32.9665 -0.191923 0.997667 101.434 -4.07279 35.6383)
(-33.468 -1.31116 0.995631 65.3147 -3.94707 24.9849)
(-32.5104 -3.23208 0.967284 45.5328 -3.38805 21.1167)
(-26.5451 -5.63782 0.878131 35.5274 -2.03597 22.2231)
(-31.3372 0.156859 0.261155 420.564 -0.387001 155.728)
(-30.6985 0.390706 0.452016 215.111 -1.21678 74.7395)
(-31.4729 0.537041 0.530656 198.891 -1.76988 70.1753)
(-32.4156 0.374902 0.563652 146.454 -2.13909 51.7832)
(-33.3683 -0.212192 0.578243 101.814 -2.29487 36.9282)
(-33.8364 -1.34995 0.577871 65.7856 -2.24421 25.8138)
(-32.8056 -3.29794 0.561578 46.1364 -1.95837 21.6254)
(-26.6516 -5.71487 0.50767 36.2257 -1.20542 22.5744)
(-31.5518 0.155231 0.0845457 420.393 -0.181175 155.991)
(-30.9015 0.387158 0.146829 214.972 -0.41619 75.5136)
(-31.6676 0.532194 0.172228 198.931 -0.581885 71.067)
(-32.6017 0.368854 0.18282 146.587 -0.693576 52.5875)
(-33.5489 -0.222838 0.187643 102 -0.742345 37.5496)
(-34.0013 -1.37117 0.187616 66.0086 -0.729132 26.2489)
(-32.9235 -3.33437 0.181584 46.4226 -0.642284 21.938)
(-26.6605 -5.74561 0.162094 36.5755 -0.403076 22.8456)
(35.7785 55.3765 -2.73601 264.405 -0.696502 -9.88658)
(-76.6261 25.3172 -4.67772 108.803 -1.07876 -6.31172)
(-52.4922 34.6541 -5.63946 124.146 -1.11838 -3.13293)
(-53.6274 31.3948 -6.26943 87.4396 -1.0007 -0.714056)
(-48.4607 28.0584 -6.79176 60.9972 -0.939935 0.901184)
(-46.1808 22.1891 -7.2781 36.1398 -1.04385 1.75992)
(-45.2039 14.9809 -7.85549 19.3157 -1.33546 1.8666)
(-53.5673 8.35071 -8.95553 5.76375 -1.67451 1.11618)
(-5.51815 43.8163 -1.71174 54.7916 -0.541154 -8.63557)
(-40.1842 65.6765 -3.10618 34.9693 -0.997494 -7.25671)
(-41.48 69.6282 -3.67309 36.0355 -1.17965 -5.40853)
(-40.9206 65.356 -3.96863 25.4163 -1.07931 -3.86382)
(-38.7741 57.559 -4.21066 16.629 -0.894177 -2.81737)
(-37.2375 46.9144 -4.50381 8.1395 -0.757582 -2.26426)
(-37.0402 34.7201 -5.0156 1.65557 -0.719348 -2.1255)
(-45.4627 19.7323 -6.36638 -3.40425 -0.671043 -2.06846)
(-25.6382 39.7087 -1.2993 -87.2542 -0.357656 -7.81335)
(2.21873 63.6373 -2.55313 -44.2338 -0.811856 -7.43579)
(-3.31227 69.4386 -3.09093 -43.151 -1.07297 -6.31128)
(-5.7358 65.6572 -3.34002 -31.8428 -1.02879 -5.25593)
(-8.26517 58.2033 -3.5149 -23.5624 -0.831571 -4.54308)
(-9.8005 48.0212 -3.74536 -16.5224 -0.619122 -4.1891)
(-10.975 35.8901 -4.20776 -11.3591 -0.454988 -4.13226)
(-8.10235 19.3381 -5.50492 -4.65017 -0.297629 -4.09093)
(-64.7654 44.9146 -1.21152 -284.885 -0.297303 -6.72459)
(40.105 23.3142 -2.5429 -117.314 -0.760513 -6.768)
(13.7369 34.6731 -3.17318 -128.571 -1.04588 -5.86869)
(13.67 32.0496 -3.47998 -89.929 -1.0305 -5.01428)
(8.12526 29.2321 -3.67248 -62.6429 -0.836875 -4.42461)
(5.40869 24.2304 -3.90166 -37.9477 -0.594607 -4.10858)
(4.29255 17.9359 -4.34163 -20.371 -0.34161 -3.98896)
(9.2829 8.86985 -5.54055 -7.16824 -0.0254754 -3.96902)
(-4.0226 0.272788 0.282398 -409.744 -47.1631 -131.142)
(-3.23909 0.598814 0.521155 -203.893 8.54928 -27.7681)
(-2.25577 0.811993 0.547594 -195.712 4.98296 -40.8789)
(-1.50456 0.822127 0.526423 -136.407 9.38791 -26.365)
(-0.926577 0.70954 0.557756 -91.28 9.4137 -19.9307)
(-0.342159 0.551751 0.681695 -52.5674 8.81579 -14.2473)
(0.673774 0.297468 0.910126 -25.815 7.03 -11.642)
(3.65512 -0.811646 1.19442 -11.9034 2.76866 -11.6029)
(-4.73224 0.117972 -0.0807987 -398.348 -31.9622 -137.012)
(-4.70407 0.318258 -0.120335 -227.816 -0.439358 -46.8489)
(-4.38351 0.484623 -0.186131 -196.589 8.49139 -41.6065)
(-4.03664 0.543582 -0.233276 -139.119 13.1652 -29.7724)
(-3.68522 0.528107 -0.218025 -91.5478 14.4087 -22.7268)
(-3.23348 0.495119 -0.131854 -52.4437 13.5901 -17.7792)
(-2.26362 0.404176 0.00851081 -24.9611 10.8386 -15.167)
(0.913763 -0.534412 0.165531 -11.9784 5.39903 -15.3364)
(-5.12147 0.0497621 -0.141237 -404.661 -17.8685 -149.292)
(-5.29488 0.18598 -0.215653 -226.652 -0.880092 -63.1546)
(-5.16822 0.333213 -0.250786 -197.428 6.16474 -53.7283)
(-4.95588 0.42927 -0.257543 -139.978 10.4011 -37.4912)
(-4.65608 0.485427 -0.21872 -91.7999 12.0266 -26.5024)
(-4.18122 0.537816 -0.137007 -52.301 11.7056 -18.4587)
(-3.13786 0.532567 -0.0408251 -24.4125 9.63081 -13.2804)
(-0.114539 -0.247253 0.0112831 -10.4212 4.77488 -10.3845)
(-5.40323 0.0232727 -0.131983 -407.513 -9.37242 -156.868)
(-5.63524 0.127856 -0.200289 -225.218 -0.326143 -74.9325)
(-5.58608 0.266466 -0.213136 -196.982 4.23237 -64.0336)
(-5.42803 0.390448 -0.196545 -139.911 7.29974 -44.7574)
(-5.13417 0.499471 -0.148818 -91.7317 8.76372 -30.4561)
(-4.61927 0.612614 -0.0796461 -52.1131 8.80365 -19.4988)
(-3.51627 0.662004 -0.0179 -23.8544 7.46228 -11.8156)
(-0.571637 -0.0186188 -0.00952773 -9.46308 3.79041 -6.74822)
(-5.61298 0.0128377 -0.103154 -407.684 -4.6717 -160.742)
(-5.8655 0.1041 -0.155606 -224.147 0.0920416 -82.1421)
(-5.84908 0.242224 -0.156184 -196.212 2.90597 -70.8241)
(-5.71148 0.387812 -0.131546 -139.373 4.9095 -49.9499)
(-5.40914 0.533416 -0.0874672 -91.3237 5.99278 -33.5638)
(-4.86143 0.685111 -0.0363093 -51.6836 6.15687 -20.5437)
(-3.72903 0.767522 -0.00285186 -23.1957 5.33189 -11.0194)
(-0.851763 0.149355 -0.0186212 -8.64744 2.73528 -4.48204)
(-5.75694 0.00953234 -0.0701231 -406.788 -2.18251 -162.546)
(-6.01537 0.0970877 -0.104643 -223.318 0.257458 -86.2655)
(-6.01059 0.238777 -0.0999113 -195.481 1.92042 -74.8928)
(-5.87796 0.400016 -0.0768822 -138.766 3.14058 -53.2227)
(-5.56502 0.568895 -0.0430905 -90.8043 3.84742 -35.6555)
(-4.99624 0.74298 -0.00955273 -51.1807 4.00204 -21.3795)
(-3.85478 0.842073 0.00565065 -22.5837 3.51192 -10.6982)
(-1.03779 0.262799 -0.0187556 -8.06389 1.81526 -3.35383)
(-5.84529 0.00907007 -0.0395259 -405.795 -0.911495 -163.304)
(-6.10465 0.0968637 -0.0582313 -222.728 0.229211 -88.4524)
(-6.10299 0.242694 -0.0534325 -194.934 1.10327 -77.1256)
(-5.96987 0.413967 -0.0379137 -138.292 1.75508 -55.0823)
(-5.64886 0.596103 -0.0173706 -90.3759 2.14638 -36.8986)
(-5.06766 0.781758 0.000972206 -50.7696 2.2451 -21.9344)
(-3.92671 0.888461 0.00665938 -22.1289 1.98375 -10.6076)
(-1.15426 0.331939 -0.0138369 -7.67998 1.02924 -2.86156)
(-5.88589 0.0094603 -0.0125928 -405.196 -0.243341 -163.566)
(-6.14441 0.0979602 -0.0183694 -222.417 0.0885213 -89.3902)
(-6.14336 0.246089 -0.0164874 -194.643 0.360741 -78.1049)
(-6.00961 0.422114 -0.0111446 -138.038 0.565262 -55.9156)
(-5.68549 0.610197 -0.0043947 -90.1419 0.689902 -37.4709)
(-5.10049 0.80114 0.00132134 -50.5466 0.723048 -22.2085)
(-3.9573 0.909952 0.00279809 -21.8896 0.640677 -10.5965)
(-1.21686 0.364097 -0.00541285 -7.49586 0.333033 -2.69718)
(-57.8515 9.71742 -2.11056 0.704399 -2.44083 1.55022)
(-52.4529 9.23204 1.17544 2.47335 -2.03134 5.72179)
(-53.3837 9.2219 0.529176 3.9056 -1.5929 0.917454)
(-53.9651 9.32167 0.00723557 5.03087 -1.24324 -1.16938)
(-54.8743 9.43533 -0.318827 5.86816 -0.94656 -2.33153)
(-55.5688 9.53429 -0.367525 6.46022 -0.674718 -2.61784)
(-56.0377 9.60683 -0.275772 6.82374 -0.414458 -2.59655)
(-56.3014 9.64252 -0.103026 6.92714 -0.143036 -2.5689)
(-49.7952 6.94207 -4.25556 -1.59202 -0.829396 -7.31507)
(-44.9055 5.96971 -2.30654 -0.730308 -0.719514 -6.42432)
(-45.2424 5.71872 -2.02237 0.252258 -0.54957 -6.59798)
(-46.5313 5.64772 -2.18653 1.07102 -0.430389 -6.46803)
(-47.8321 5.63107 -2.11435 1.67679 -0.336916 -6.45548)
(-48.8042 5.63372 -1.71422 2.10274 -0.246099 -6.38465)
(-49.4226 5.64547 -1.10183 2.38009 -0.150251 -6.3034)
(-49.7002 5.66203 -0.37922 2.54001 -0.0502077 -6.23757)
(-5.24444 5.86427 -4.39924 -3.34423 -0.124862 -1.58663)
(-7.06768 4.73051 -4.09745 -2.74308 -0.149647 -2.7092)
(-8.87776 4.34376 -3.76388 -2.02986 -0.120271 -0.642914)
(-10.6475 4.16414 -3.44597 -1.45032 -0.109092 1.13039)
(-12.0076 4.06202 -2.95785 -1.03255 -0.100768 2.20599)
(-12.9482 3.99969 -2.25372 -0.745505 -0.0820411 2.74406)
(-13.5334 3.96343 -1.40362 -0.563855 -0.050918 2.97545)
(-13.8065 3.94537 -0.476274 -0.460482 -0.0161046 3.06104)
(12.067 5.67412 -3.45602 -3.24893 0.304124 -4.03849)
(8.25974 4.54062 -2.97942 -2.79702 0.0997517 -6.61055)
(6.95866 4.10228 -2.76437 -2.3606 0.0194195 -1.7523)
(5.66971 3.86912 -2.36556 -2.00025 -0.0220507 1.64032)
(4.78215 3.72149 -1.9381 -1.74339 -0.0437329 3.71277)
(4.12567 3.62341 -1.43194 -1.57404 -0.0458042 4.67965)
(3.6989 3.56165 -0.878184 -1.47285 -0.0327425 5.0555)
(3.48413 3.52841 -0.296409 -1.42763 -0.0114931 5.16133)
)
;
    }
    symmetry
    {
        type            symmetryPlane;
    }
    bottom
    {
        type            calculated;
        value           nonuniform List<symmTensor> 
32
(
(207.166 74.7058 0 310.749 84.384 207.166)
(203.319 83.8866 0 304.979 41.8557 203.319)
(209.238 88.0695 0 313.858 20.1575 209.238)
(212.749 89.5409 0 319.123 9.07861 212.749)
(214.334 89.9609 0 321.501 3.62527 214.334)
(214.972 90.0191 0 322.457 1.147 214.972)
(215.183 89.9827 0 322.774 0.208582 215.183)
(215.234 89.9467 0 322.85 -0.00153381 215.234)
(39.4867 32.0215 0 59.2301 25.2434 39.4867)
(41.4635 42.2389 0 62.1953 13.0281 41.4635)
(44.3371 43.8404 0 66.5057 6.03566 44.3371)
(45.7431 43.4594 0 68.6146 2.38346 45.7431)
(46.485 42.761 0 69.7274 0.64713 46.485)
(46.8999 42.1735 0 70.3499 -0.0452391 46.8999)
(47.1281 41.7855 0 70.6922 -0.195061 47.1281)
(47.2304 41.5963 0 70.8456 -0.0897707 47.2304)
(-57.2163 28.4126 0 -85.8244 -30.2264 -57.2163)
(-51.4056 38.5549 0 -77.1083 -17.5282 -51.4056)
(-51.8544 39.5869 0 -77.7817 -10.2848 -51.8544)
(-52.0689 38.7262 0 -78.1034 -6.00716 -52.0689)
(-51.9973 37.6886 0 -77.9959 -3.45262 -51.9973)
(-51.8038 36.8723 0 -77.7057 -1.91162 -51.8038)
(-51.6138 36.3422 0 -77.4207 -0.950347 -51.6138)
(-51.502 36.0851 0 -77.2529 -0.286336 -51.502)
(-210.178 63.2113 0 -315.267 -92.9917 -210.178)
(-200.345 70.8176 0 -300.517 -49.8717 -200.345)
(-205.498 73.0894 0 -308.247 -26.6306 -205.498)
(-208.013 73.128 0 -312.02 -13.9175 -208.013)
(-208.622 72.5183 0 -312.932 -7.0393 -208.622)
(-208.43 71.8623 0 -312.644 -3.38628 -208.43)
(-208.053 71.3723 0 -312.08 -1.47091 -208.053)
(-207.802 71.1176 0 -311.703 -0.405514 -207.802)
)
;
    }
}


// ************************************************************************* //
