/*--------------------------------*- C++ -*----------------------------------*\
| =========                 |                                                 |
| \\      /  F ield         | foam-extend: Open Source CFD                    |
|  \\    /   O peration     | Version:     3.1                                |
|   \\  /    A nd           | Web:         http://www.extend-project.de       |
|    \\/     M anipulation  |                                                 |
\*---------------------------------------------------------------------------*/
FoamFile
{
    version     2.0;
    format      ascii;
    class       volSymmTensorField;
    location    "3.4";
    object      sigmaCauchy;
}
// * * * * * * * * * * * * * * * * * * * * * * * * * * * * * * * * * * * * * //

dimensions      [1 -1 -2 0 0 0 0];

internalField   nonuniform List<symmTensor> 
256
(
(174.879 71.0628 -1.09525 409.408 35.1159 200.129)
(25.3963 53.6194 -7.70455 80.6666 10.9824 32.0666)
(-53.2572 46.543 -8.76654 -109.653 -15.2437 -54.6754)
(-200.823 43.2102 -4.80705 -395.277 -33.4531 -218.014)
(-71.0308 32.0331 -3.24121 121.999 -10.9741 -20.3904)
(-26.8021 69.1302 -12.8213 42.4533 -5.05672 -8.6862)
(2.99814 63.4345 -13.254 -53.6489 2.00493 -2.5942)
(41.8265 18.9645 -4.63983 -126.343 6.98638 9.45399)
(-23.7073 39.0611 -1.39869 148.084 -6.38797 25.9754)
(-26.8116 67.4516 -8.77395 37.0322 -2.6457 -3.828)
(-1.37988 62.5724 -9.12153 -49.5512 0.0227887 -7.50104)
(-4.28831 24.9342 -2.76388 -146.988 2.97927 -30.9938)
(-34.776 34.3673 -1.62876 99.178 -8.61458 12.9604)
(-27.5418 61.7347 -7.32748 23.9167 -2.89814 -4.72794)
(-0.731191 57.789 -7.36937 -36.5394 1.08115 -3.93502)
(6.78913 22.7439 -2.62266 -99.1094 5.98304 -13.9201)
(-32.0858 29.5735 -1.32664 68.6843 -7.7339 13.4295)
(-26.2062 53.3785 -5.94212 14.4027 -2.33571 -3.23371)
(-2.57859 50.5518 -5.88246 -27.0077 1.22416 -3.48553)
(3.85814 21.0574 -2.2076 -68.7998 6.04529 -11.6881)
(-33.4542 22.8695 -1.40311 40.6494 -6.61463 10.9204)
(-26.2574 43.1035 -5.21251 6.00342 -1.91199 -2.71603)
(-4.17085 41.5758 -5.01177 -18.5558 1.23122 -2.93975)
(3.94928 17.9725 -2.12446 -40.7105 5.75655 -7.90073)
(-33.722 15.4865 -1.92589 23.8332 -5.41521 11.6801)
(-28.0647 31.9024 -5.04273 -0.148419 -1.82126 -2.45714)
(-6.16976 31.142 -4.62063 -12.0547 0.902712 -3.06201)
(4.06214 13.6373 -2.3093 -20.6485 4.67184 -6.40209)
(-45.5486 10.1015 -2.44946 8.38031 -3.03099 6.75786)
(-42.5865 19.32 -4.7786 -8.29235 -1.16295 -8.61475)
(-2.72408 17.1021 -4.49981 -2.15075 0.148797 0.615893)
(9.92002 6.64121 -2.95749 -5.81535 1.79917 -3.57737)
(177.543 79.9575 -0.596794 406.036 21.3198 208.353)
(32.0344 64.1481 -6.23825 84.3001 6.0953 38.8571)
(-47.1909 57.2936 -7.4637 -97.7171 -10.9153 -51.4894)
(-191.914 51.2913 -4.12671 -378.924 -23.0832 -216.253)
(-39.4991 33.2969 -2.24872 166.143 -4.62933 17.3786)
(-4.47033 71.5787 -11.9199 67.5119 -3.00587 12.6323)
(-16.3621 65.4725 -13.2926 -77.0017 -1.16366 -23.8637)
(8.72035 19.9328 -5.57357 -168.679 -0.236486 -29.3696)
(-18.3633 35.0133 -1.0974 153.887 -9.69994 30.7429)
(-16.1033 61.9744 -9.45198 45.9791 -3.90084 3.63371)
(-7.44639 57.2097 -10.718 -54.4696 1.28761 -12.6153)
(-8.08535 21.2567 -4.14616 -149.967 5.99005 -33.8212)
(-25.0368 29.5447 -0.186693 108.81 -11.7112 21.8839)
(-16.4734 53.825 -6.7808 33.2365 -4.02616 2.97033)
(-6.86485 49.944 -7.92832 -40.4077 2.53087 -9.15629)
(-1.31083 18.1792 -3.11828 -104.89 9.25323 -20.8632)
(-25.0612 24.255 0.758743 74.3397 -11.5117 19.4445)
(-16.8926 44.8239 -4.62045 21.7618 -3.68999 2.57316)
(-6.51174 42.129 -5.72589 -27.7451 2.97818 -6.4877)
(-1.32056 16.0916 -2.11737 -69.9794 10.1929 -15.5379)
(-26.4636 18.0768 1.29871 45.9453 -10.0859 17.1707)
(-17.657 35.3381 -3.17806 12.5788 -3.18015 2.4048)
(-6.82215 33.9541 -4.19757 -17.6845 2.77813 -4.81499)
(-0.719246 13.5291 -1.48517 -40.7123 9.60839 -11.4746)
(-27.2658 11.5035 1.31057 28.3362 -7.90118 17.5311)
(-20.7243 25.7447 -2.51747 4.86104 -2.72317 1.39544)
(-7.46875 25.2316 -3.40737 -9.96477 1.94963 -3.6964)
(0.795531 10.2702 -1.24401 -18.9364 7.57256 -8.64216)
(-38.6121 8.14094 0.960675 13.2333 -4.48769 12.8793)
(-36.0052 16.1438 -2.43599 -4.31645 -1.74168 -5.66332)
(-4.73458 14.127 -3.66606 -1.61207 0.676022 -0.667076)
(5.55029 5.18428 -2.05483 -6.12702 3.6475 -6.75217)
(184.015 84.0165 -0.552493 416.272 10.3836 222.111)
(34.911 66.8669 -4.02319 88.5613 2.38357 44.5602)
(-47.2861 59.5987 -4.86542 -97.1704 -6.81834 -54.3054)
(-197.833 53.4278 -2.74733 -386.012 -13.1451 -229.375)
(-40.1033 33.8113 -1.81629 167.278 -3.2025 29.4811)
(-2.63576 72.7114 -8.05761 71.666 -2.41097 19.9044)
(-17.7451 66.5321 -9.21967 -78.3094 -1.45837 -29.9519)
(6.73997 20.3849 -4.30907 -170.427 -0.811916 -44.0935)
(-19.1828 34.6046 -1.31573 155.986 -7.51504 38.4204)
(-15.4766 61.4671 -7.00727 49.169 -3.31453 8.52708)
(-8.42312 56.6233 -8.11115 -55.4432 0.810923 -16.6803)
(-10.2346 20.6799 -3.55494 -152.492 4.4078 -44.7849)
(-26.2538 28.6711 -0.590247 109.879 -9.53675 25.3473)
(-16.089 51.8415 -5.16708 35.7842 -3.54835 6.41271)
(-7.94324 47.9389 -6.14984 -40.4686 2.18281 -11.4775)
(-3.71188 17.2862 -2.58416 -106.697 7.5617 -28.1074)
(-27.1887 23.02 0.164395 74.327 -9.72745 19.3162)
(-16.6494 42.252 -3.35853 24.0284 -3.33094 5.03652)
(-7.54603 39.6013 -4.27299 -27.2236 2.78273 -7.46747)
(-3.05051 14.9709 -1.66224 -70.5492 8.8112 -19.1392)
(-28.947 16.7573 0.69593 45.4572 -8.71055 14.7229)
(-17.4125 32.7281 -2.0534 14.5981 -2.88556 4.19659)
(-7.71135 31.5026 -2.89034 -16.7067 2.71722 -4.69156)
(-2.06352 12.524 -1.00265 -40.4965 8.56445 -12.3447)
(-29.4468 10.1922 0.834651 28.1294 -6.83406 13.8522)
(-20.445 23.5862 -1.4706 6.56945 -2.35589 2.60472)
(-8.28285 23.3594 -2.25965 -8.83229 2.00459 -2.71583)
(-0.277283 9.58365 -0.76763 -18.1772 6.91866 -7.28747)
(-41.4745 7.51616 0.517725 11.7557 -3.63539 6.92904)
(-36.2102 15.0849 -1.76627 -3.27999 -1.31797 -5.45465)
(-6.06192 13.2656 -2.98344 -0.660854 0.734439 1.05422)
(5.31481 5.00882 -1.74456 -4.04805 3.27516 -2.23177)
(187.295 85.5642 -0.357232 422.035 4.21886 230.491)
(35.8623 67.3524 -2.41619 90.6663 0.468494 47.6394)
(-47.6687 59.7525 -2.92223 -97.0369 -4.1771 -56.1854)
(-200.803 53.8219 -1.6497 -389.412 -7.11887 -236.87)
(-41.1336 33.9316 -1.09352 167.102 -2.6731 37.9894)
(-2.99068 73.2181 -5.03277 73.1229 -1.96347 23.8202)
(-18.1377 66.9918 -5.81846 -77.7311 -1.23843 -33.2267)
(6.29298 20.5373 -2.81089 -169.904 -0.51707 -53.5198)
(-19.8755 34.7358 -0.932186 157.116 -5.42917 45.7463)
(-16.4606 61.7535 -4.72487 50.3905 -2.53205 11.4826)
(-8.83627 56.9111 -5.48063 -54.9509 0.41654 -19.3219)
(-10.8685 20.8257 -2.5015 -152.59 3.00037 -52.9655)
(-27.1167 28.64 -0.508823 111.1 -6.89743 30.1243)
(-17.165 51.7449 -3.65297 36.9116 -2.69263 8.53386)
(-8.55313 47.8617 -4.29821 -39.9437 1.54177 -13.2139)
(-4.39029 17.317 -1.86255 -106.81 5.37556 -33.842)
(-28.0881 22.8448 0.00180882 75.5953 -7.19252 21.7247)
(-17.7042 41.8583 -2.42841 25.1389 -2.55001 6.46317)
(-8.27336 39.2671 -2.99629 -26.6468 2.11388 -8.26551)
(-3.7289 14.9267 -1.17731 -70.5216 6.5226 -22.2859)
(-29.7951 16.4613 0.393056 46.8035 -6.60325 15.2842)
(-18.375 32.1748 -1.49836 15.6848 -2.23845 5.1078)
(-8.45263 31.0801 -1.99835 -16.0568 2.15132 -4.61313)
(-2.73082 12.4807 -0.663449 -40.3079 6.54099 -13.2269)
(-29.897 9.7982 0.494281 29.8749 -5.32312 13.303)
(-21.3131 23.0608 -1.16297 7.59146 -1.83366 3.12891)
(-9.10401 23.0254 -1.6499 -8.17163 1.63829 -1.89454)
(-0.980106 9.60924 -0.515853 -17.7466 5.42223 -6.23486)
(-41.8419 7.38246 0.120833 13.3073 -2.96183 5.40302)
(-37.2177 14.8472 -1.73352 -2.29452 -1.04025 -5.16174)
(-7.4948 13.0995 -2.5839 -0.165722 0.624487 2.43854)
(4.44588 5.0911 -1.44744 -3.3442 2.62017 0.595979)
(188.49 86.0191 -0.197119 424.486 1.17408 234.772)
(36.1892 67.1215 -1.37387 91.7838 -0.348515 49.3057)
(-47.8522 59.3127 -1.66429 -96.6381 -2.51922 -57.1459)
(-201.625 53.6486 -0.93514 -389.882 -3.71358 -240.217)
(-42.0824 33.864 -0.570676 166.838 -2.23235 43.0789)
(-3.48793 73.273 -2.96497 73.9425 -1.54281 26.0832)
(-18.4689 67.0379 -3.46289 -76.9553 -0.931712 -35.1467)
(5.99153 20.5552 -1.69574 -169.181 -0.219667 -59.1959)
(-20.731 34.8283 -0.548864 157.55 -3.83952 50.5736)
(-17.3192 62.0105 -2.97192 51.132 -1.83802 13.3553)
(-9.21505 57.2124 -3.45848 -54.2203 0.188979 -21.0368)
(-11.0915 21.0044 -1.5959 -151.985 2.01692 -58.1579)
(-28.0263 28.7659 -0.327643 111.791 -4.75125 33.6928)
(-18.0566 52.0335 -2.4047 37.6826 -1.90884 9.98291)
(-9.02125 48.1999 -2.80736 -39.2957 1.00423 -14.4513)
(-4.6551 17.5462 -1.21812 -106.327 3.61916 -37.7746)
(-28.953 22.9456 -0.0218078 76.5049 -4.99125 23.8953)
(-18.5561 42.0775 -1.66146 25.9444 -1.80986 7.49845)
(-8.79119 39.5519 -1.99891 -26.0612 1.45778 -8.90099)
(-4.03657 15.1589 -0.773412 -70.1274 4.48822 -24.6298)
(-30.5787 16.489 0.218448 47.8643 -4.6775 16.243)
(-19.1438 32.2881 -1.0868 16.5088 -1.613 5.82754)
(-8.98797 31.292 -1.37148 -15.5157 1.52617 -4.63974)
(-3.06294 12.7028 -0.436555 -39.9228 4.60328 -14.0068)
(-30.4196 9.73003 0.244945 31.204 -3.87627 13.4932)
(-22.0469 23.0968 -0.965078 8.37386 -1.34566 3.6046)
(-9.73229 23.1758 -1.24772 -7.68345 1.1778 -1.39019)
(-1.3422 9.82318 -0.384693 -17.2419 3.88733 -5.60479)
(-42.5662 7.40909 -0.14765 14.297 -2.20899 4.66522)
(-38.2661 14.9031 -1.62151 -1.67154 -0.769108 -5.009)
(-8.57747 13.1565 -2.17389 0.217879 0.445116 3.31125)
(3.9413 5.22458 -1.18924 -2.71171 1.8901 2.41734)
(188.788 86.0552 -0.0909212 425.339 -0.077658 236.827)
(36.288 66.7448 -0.734212 92.408 -0.552366 50.1963)
(-47.8682 58.8087 -0.89456 -96.1253 -1.46313 -57.5552)
(-201.524 53.351 -0.499398 -389.155 -1.84231 -241.452)
(-42.7153 33.73 -0.24978 166.699 -1.69971 46.0006)
(-3.88218 73.1267 -1.63602 74.4791 -1.1164 27.356)
(-18.7116 66.8996 -1.93567 -76.2501 -0.635425 -36.2333)
(5.72013 20.5187 -0.952038 -168.543 -0.046094 -62.475)
(-21.3623 34.8473 -0.270091 157.818 -2.5797 53.5393)
(-17.9177 62.1238 -1.73467 51.6534 -1.24819 14.4834)
(-9.51772 57.3736 -2.03215 -53.562 0.0744657 -22.0937)
(-11.2203 21.1187 -0.935392 -151.327 1.30422 -61.2566)
(-28.6837 28.8658 -0.164687 112.256 -3.0941 36.0759)
(-18.6667 52.2883 -1.46051 38.2373 -1.26369 10.9094)
(-9.34868 48.5044 -1.7019 -38.7037 0.611758 -15.2515)
(-4.79455 17.747 -0.729017 -105.754 2.30403 -40.2393)
(-29.5704 23.0648 0.0025756 77.1388 -3.24874 25.5369)
(-19.1288 42.3601 -1.0488 26.5279 -1.19522 8.20876)
(-9.12574 39.8906 -1.24415 -25.539 0.925353 -9.33749)
(-4.19197 15.3909 -0.467795 -69.638 2.88252 -26.1867)
(-31.1273 16.5713 0.132201 48.6183 -3.08837 17.2034)
(-19.6602 32.5194 -0.734139 17.0994 -1.07907 6.36608)
(-9.32675 31.5955 -0.89331 -15.0606 0.985133 -4.68672)
(-3.24338 12.9319 -0.272945 -39.4884 2.99467 -14.6121)
(-30.8015 9.73704 0.115098 32.1313 -2.61515 14.0109)
(-22.5617 23.2459 -0.735298 8.91953 -0.916297 3.9952)
(-10.1469 23.3992 -0.896031 -7.30413 0.762066 -1.10165)
(-1.54988 10.0265 -0.278126 -16.7736 2.55686 -5.32197)
(-43.0329 7.44883 -0.213532 15.1145 -1.52733 4.70834)
(-39.0295 15.0002 -1.30535 -1.22566 -0.531786 -4.82939)
(-9.31704 13.2418 -1.65012 0.501302 0.282227 3.77719)
(3.54534 5.32704 -0.8877 -2.29813 1.2487 3.30263)
(188.767 85.9783 -0.0346105 425.529 -0.357707 237.734)
(36.3092 66.4364 -0.349276 92.7529 -0.432767 50.6523)
(-47.818 58.4268 -0.429064 -95.6859 -0.757495 -57.6941)
(-201.182 53.1029 -0.238122 -388.252 -0.82392 -241.774)
(-43.105 33.6079 -0.088691 166.622 -1.06478 47.5403)
(-4.14127 72.953 -0.799108 74.819 -0.677039 28.0282)
(-18.8602 66.7371 -0.958427 -75.7273 -0.366871 -36.805)
(5.52646 20.4755 -0.471641 -168.065 0.0176597 -64.2365)
(-21.772 34.8305 -0.1109 157.982 -1.49548 55.1814)
(-18.2859 62.1454 -0.885848 52.002 -0.726429 15.1112)
(-9.72001 57.4317 -1.04602 -53.0846 0.0237568 -22.6927)
(-11.2996 21.1766 -0.478056 -150.821 0.737191 -62.9637)
(-29.1073 28.9186 -0.0669682 112.543 -1.75061 37.4687)
(-19.0377 52.4382 -0.769433 38.6067 -0.721483 11.4499)
(-9.5533 48.691 -0.897998 -38.2701 0.326375 -15.7185)
(-4.87572 17.875 -0.378289 -105.304 1.28001 -41.6457)
(-29.9712 23.1431 0.0130594 77.5208 -1.83297 26.5684)
(-19.473 42.5567 -0.570213 26.9106 -0.680457 8.64836)
(-9.3231 40.1263 -0.672147 -25.1558 0.50724 -9.59977)
(-4.27372 15.5495 -0.245335 -69.24 1.60482 -27.1109)
(-31.4868 16.632 0.0725024 49.0652 -1.75777 17.8882)
(-19.9703 32.6953 -0.422501 17.4781 -0.619931 6.72306)
(-9.52222 31.8186 -0.50373 -14.7325 0.544844 -4.72344)
(-3.33887 13.0915 -0.149049 -39.1364 1.67755 -15.0104)
(-31.07 9.75013 0.0449219 32.6721 -1.51044 14.4656)
(-22.8779 23.3643 -0.460662 9.26199 -0.533217 4.27369)
(-10.3928 23.5624 -0.543743 -7.04085 0.420734 -0.949779)
(-1.66043 10.1642 -0.170939 -16.4203 1.44024 -5.22005)
(-43.3549 7.47912 -0.172363 15.6089 -0.900052 4.91565)
(-39.5171 15.0745 -0.838809 -0.950913 -0.312786 -4.68464)
(-9.77025 13.3019 -1.02858 0.692835 0.153534 3.99848)
(3.29219 5.38963 -0.549469 -2.02823 0.704829 3.68388)
(188.703 85.9163 -0.0084834 425.527 -0.165886 238.065)
(36.3099 66.2711 -0.10208 92.9084 -0.159292 50.8445)
(-47.7751 58.2277 -0.126123 -95.4389 -0.23375 -57.7267)
(-200.941 52.9686 -0.0697183 -387.694 -0.231641 -241.804)
(-43.2901 33.5384 -0.0201606 166.585 -0.362462 48.1935)
(-4.26829 72.8465 -0.237275 74.9855 -0.226988 28.3157)
(-18.9289 66.6377 -0.287057 -75.4508 -0.119722 -37.0483)
(5.42793 20.4491 -0.141138 -167.81 0.0134268 -65)
(-21.9711 34.8128 -0.0289983 158.061 -0.490961 55.9015)
(-18.4604 62.1385 -0.269932 52.178 -0.238797 15.3886)
(-9.81965 57.444 -0.320294 -52.8359 0.00474108 -22.9616)
(-11.3379 21.1992 -0.145532 -150.551 0.239027 -63.7163)
(-29.3123 28.9387 -0.0174808 112.68 -0.567489 38.0996)
(-19.2125 52.5021 -0.238716 38.792 -0.23484 11.6962)
(-9.65116 48.7739 -0.278905 -38.0437 0.102242 -15.9318)
(-4.91425 17.9346 -0.116149 -105.065 0.410729 -42.2793)
(-30.1662 23.1787 0.00582902 77.6986 -0.593054 27.0553)
(-19.6342 42.6504 -0.180228 27.0997 -0.221128 8.85627)
(-9.41451 40.2398 -0.211769 -24.9552 0.161087 -9.72123)
(-4.3098 15.6264 -0.0758934 -69.0237 0.514952 -27.537)
(-31.6621 16.6603 0.0223734 49.2694 -0.571162 18.2338)
(-20.1154 32.7826 -0.138073 17.6617 -0.202408 6.8989)
(-9.61126 31.9287 -0.16289 -14.5614 0.173712 -4.74231)
(-3.38072 13.1698 -0.0474224 -38.9445 0.539545 -15.2057)
(-31.2042 9.75579 0.00968985 32.9145 -0.494911 14.7161)
(-23.0272 23.4236 -0.157344 9.42538 -0.175282 4.41612)
(-10.5065 23.6421 -0.182835 -6.90565 0.133988 -0.885431)
(-1.70974 10.2304 -0.0580306 -16.2342 0.464269 -5.19524)
(-43.5074 7.49513 -0.0667265 15.8374 -0.299825 5.06763)
(-39.7489 15.1136 -0.289089 -0.819259 -0.103552 -4.60498)
(-9.98691 13.3299 -0.34948 0.789229 0.0489196 4.08087)
(3.16445 5.41721 -0.186428 -1.8981 0.227608 3.80974)
)
;

boundaryField
{
    interface
    {
        type            calculated;
        value           nonuniform List<symmTensor> 
192
(
(-20.845 16.0788 4.05707 439.368 44.5132 123.407)
(-21.1969 7.85307 3.63561 207.292 -13.7536 23.7352)
(-20.8907 10.4873 4.50933 207.557 -9.03863 44.9941)
(-21.1232 8.88507 4.63034 149.503 -12.5895 35.7277)
(-21.7261 6.90327 4.80871 105.211 -11.6012 32.5668)
(-22.5798 4.38066 4.87864 67.3197 -10.0398 28.7686)
(-23.3735 1.95032 4.73531 44.5756 -7.97254 28.5877)
(-22.6086 -0.607861 4.20998 32.7172 -4.48374 31.196)
(-23.5833 17.1426 2.82706 433.291 27.2175 130.489)
(-24.313 8.98728 2.83636 228.786 -5.47493 40.5095)
(-24.8198 10.5193 3.02913 205.331 -12.9119 43.2722)
(-25.7601 9.02346 3.055 148.859 -16.1001 35.8466)
(-26.8905 6.87746 3.10251 102.05 -15.9768 31.5694)
(-27.9549 4.25815 3.13492 64.3106 -14.0366 28.5688)
(-28.2997 1.5724 3.06289 42.274 -10.8115 29.3489)
(-25.3197 -1.26409 2.77289 32.4662 -6.03759 33.8838)
(-25.3525 18.1795 1.79518 441.031 13.3686 141.167)
(-26.1056 9.0761 2.03079 226.071 -3.64035 52.8013)
(-26.774 10.5398 2.11124 204.867 -9.67393 50.0742)
(-27.8968 9.00757 2.06755 148.073 -12.6564 37.5421)
(-29.1456 6.79476 2.0481 100.811 -13.0715 29.2132)
(-30.1705 4.09663 2.04996 63.1638 -11.7798 23.5721)
(-30.1257 1.29332 2.02104 42.012 -9.21335 22.9882)
(-26.0192 -1.70303 1.91252 32.0055 -4.95805 26.1485)
(-26.6409 18.707 1.13083 445.398 5.44677 148.161)
(-27.3636 9.07926 1.45904 224.216 -3.11378 62.7893)
(-28.0549 10.5476 1.53072 204.79 -6.88281 58.3321)
(-29.2212 9.01024 1.49541 148.52 -8.99435 42.6199)
(-30.4841 6.78151 1.4662 101.498 -9.514 31.176)
(-31.4324 4.04344 1.4565 64.1348 -8.8086 23.1195)
(-31.1205 1.17446 1.4409 43.5987 -7.12811 20.9926)
(-26.3405 -1.88697 1.38635 33.6518 -4.05662 23.2277)
(-27.5817 18.9258 0.709694 446.977 1.52732 151.832)
(-28.2784 9.06077 1.0285 223.19 -2.67776 68.9992)
(-28.9614 10.5357 1.09563 204.766 -4.85566 64.2084)
(-30.1291 9.00528 1.08033 148.988 -6.14979 46.9418)
(-31.3802 6.77593 1.06044 102.31 -6.5511 33.6306)
(-32.2632 4.01559 1.05081 65.1997 -6.19959 23.9427)
(-31.7754 1.10279 1.04114 45.0427 -5.17989 20.7221)
(-26.5486 -2.00206 1.00942 35.078 -3.04564 22.1969)
(-28.2476 18.9957 0.4321 447.216 -0.0858649 153.593)
(-28.9236 9.03616 0.68536 222.608 -2.07839 72.5589)
(-29.5937 10.5185 0.73967 204.809 -3.26989 67.8862)
(-30.7526 8.99786 0.736759 149.371 -3.99707 49.9314)
(-31.9884 6.77057 0.726689 102.936 -4.25143 35.638)
(-32.8249 3.99655 0.720284 66.0018 -4.08367 25.0289)
(-32.2239 1.0541 0.713952 46.0839 -3.49597 21.1784)
(-26.6985 -2.073 0.692601 36.2196 -2.11693 22.2974)
(-28.6754 19.0075 0.231745 447.003 -0.449952 154.352)
(-29.3399 9.01516 0.390895 222.263 -1.3154 74.4131)
(-30.0008 10.5033 0.425061 204.85 -1.9008 69.9259)
(-31.1514 8.99075 0.426115 149.621 -2.262 51.6942)
(-32.3764 6.76504 0.421991 103.323 -2.39718 36.9304)
(-33.1838 3.98173 0.418509 66.4835 -2.32312 25.8567)
(-32.514 1.01985 0.413124 46.7016 -2.02134 21.6847)
(-26.8046 -2.11658 0.39677 36.932 -1.25289 22.647)
(-28.8756 19.0039 0.072191 446.806 -0.20954 154.626)
(-29.534 9.00215 0.125764 222.103 -0.449669 75.1961)
(-30.1865 10.4933 0.137003 204.88 -0.624958 70.8254)
(-31.3297 8.98573 0.137603 149.753 -0.733587 52.5029)
(-32.5507 6.76091 0.13651 103.512 -0.775608 37.5534)
(-33.3444 3.97105 0.135366 66.7118 -0.754863 26.2917)
(-32.6301 0.996849 0.132565 46.9948 -0.662867 21.9967)
(-26.813 -2.13334 0.124946 37.2876 -0.418526 22.918)
(38.412 63.2649 -2.05374 274.896 2.56318 -9.54766)
(-72.8362 31.4054 -4.44695 110.216 -1.59362 -6.23166)
(-47.8178 42.4535 -5.61947 124.736 -1.52805 -3.06568)
(-48.9569 38.3337 -6.38039 86.1606 -1.2001 -0.687879)
(-44.1683 33.7855 -7.00252 58.8665 -0.8439 0.889891)
(-42.6796 26.5652 -7.56181 33.9435 -0.714262 1.71732)
(-42.6626 18.4348 -8.196 17.6249 -0.876812 1.79624)
(-51.7028 11.5606 -9.37808 4.68038 -1.12094 1.01408)
(-3.82159 45.0187 -1.5399 54.8134 -0.490749 -8.56836)
(-34.9721 67.6248 -2.99096 32.9065 -1.63485 -7.19214)
(-34.4005 72.3151 -3.62687 32.4648 -1.6345 -5.35342)
(-33.3405 67.9252 -4.01839 20.8174 -1.27795 -3.82944)
(-31.6303 59.8287 -4.3258 11.777 -0.831557 -2.80765)
(-31.2461 48.8103 -4.66422 3.71457 -0.504318 -2.27888)
(-32.5488 36.3856 -5.21445 -1.86395 -0.354238 -2.16417)
(-42.6824 21.6967 -6.61466 -5.55107 -0.236398 -2.13863)
(-24.388 38.1702 -1.462 -86.6947 -0.0611697 -7.87442)
(6.72114 61.8602 -2.68429 -46.1759 -1.36754 -7.41006)
(3.08647 67.2371 -3.18236 -46.6147 -1.48709 -6.29037)
(1.2662 63.8219 -3.37118 -36.3254 -1.23097 -5.24198)
(-1.56383 56.8513 -3.5262 -28.315 -0.802364 -4.54261)
(-4.09582 47.1968 -3.7601 -20.9 -0.413997 -4.20349)
(-6.70754 35.5325 -4.23925 -14.8602 -0.14115 -4.16355)
(-5.84591 19.3714 -5.52926 -6.62836 0.0712107 -4.14218)
(-63.9406 38.328 -1.63426 -273.326 3.62815 -7.00059)
(42.31 18.1378 -2.84392 -115.597 -1.02936 -6.78596)
(16.8448 28.1047 -3.30036 -127.751 -1.30969 -5.9065)
(16.9439 26.5237 -3.52592 -90.9432 -1.23477 -5.03732)
(11.3223 25.0754 -3.6591 -64.5583 -0.852176 -4.44815)
(8.1709 21.5644 -3.86206 -40.0642 -0.440247 -4.13612)
(6.37202 16.4036 -4.29389 -22.1381 -0.0746778 -4.02531)
(10.3359 7.9067 -5.46205 -8.0679 0.313335 -4.01857)
(-4.62336 -11.9796 -1.20649 -385.169 -40.5075 -132.421)
(-3.48271 -5.80175 0.718939 -196.911 8.1734 -28.2023)
(-2.61093 -7.59192 0.647955 -189.414 4.50363 -41.3875)
(-1.79041 -5.93954 0.958298 -133.213 8.80801 -26.541)
(-1.13596 -4.25651 1.08115 -89.7986 9.00427 -19.9731)
(-0.459358 -2.45531 1.2193 -52.051 8.57633 -14.2245)
(0.610989 -1.25655 1.36689 -25.6705 6.89783 -11.6064)
(3.50885 -1.702 1.43411 -11.742 2.67384 -11.5709)
(-5.42514 -12.6556 -1.15043 -375.329 -27.8328 -138.864)
(-5.05546 -6.91374 -0.21105 -219.502 -0.355796 -47.5726)
(-4.79879 -7.62127 0.109118 -190.26 8.08769 -42.1249)
(-4.3762 -6.02199 0.388335 -135.819 12.6944 -29.9798)
(-3.92165 -4.15268 0.559501 -90.0506 14.0626 -22.7754)
(-3.35496 -2.26546 0.653253 -51.919 13.3931 -17.7587)
(-2.30272 -0.908782 0.662099 -24.8289 10.744 -15.134)
(0.812051 -1.27337 0.538944 -11.8503 5.34498 -15.3098)
(-5.88468 -13.3216 -0.740211 -381.315 -15.5065 -151.5)
(-5.6796 -7.04267 -0.280192 -218.793 -0.754132 -63.9379)
(-5.61075 -7.65682 -0.0192145 -191.294 5.91411 -54.3122)
(-5.31355 -6.01118 0.239816 -136.759 10.072 -37.7591)
(-4.89701 -4.05763 0.426271 -90.3435 11.7706 -26.5939)
(-4.29449 -2.1005 0.526199 -51.7985 11.5565 -18.4681)
(-3.15693 -0.66932 0.519166 -24.3009 9.56126 -13.2687)
(-0.175256 -0.828224 0.310647 -10.3351 4.74625 -10.3802)
(-6.20189 -13.5628 -0.434262 -384.108 -8.10309 -159.153)
(-6.03658 -7.04369 -0.214725 -217.732 -0.241382 -75.6933)
(-6.04262 -7.62767 -0.0329753 -191.091 4.073 -64.6171)
(-5.79256 -5.94868 0.16523 -136.819 7.07928 -45.0448)
(-5.373 -3.95146 0.325707 -90.3415 8.58487 -30.5696)
(-4.72171 -1.94929 0.416544 -51.6491 8.69735 -19.5264)
(-3.51672 -0.464599 0.407354 -23.7734 7.41469 -11.8165)
(-0.601923 -0.510815 0.213864 -9.41179 3.77654 -6.75143)
(-6.42643 -13.573 -0.243338 -384.421 -4.02365 -163.011)
(-6.27554 -7.00454 -0.140744 -216.903 0.136131 -82.8612)
(-6.31197 -7.56604 -0.0166373 -190.513 2.80026 -71.3805)
(-6.07731 -5.86463 0.12308 -136.396 4.7646 -50.2313)
(-5.6432 -3.84176 0.242925 -89.9975 5.87273 -33.6819)
(-4.95341 -1.81281 0.311581 -51.2582 6.08457 -20.5785)
(-3.71426 -0.295594 0.297756 -23.1438 5.30099 -11.0254)
(-0.859828 -0.275741 0.136452 -8.62403 2.73003 -4.48598)
(-6.57493 -13.4998 -0.128805 -383.721 -1.8709 -164.782)
(-6.42935 -6.95447 -0.0812582 -216.23 0.275748 -86.9497)
(-6.47544 -7.50002 0.000587772 -189.915 1.85135 -75.4218)
(-6.24243 -5.7848 0.0927631 -135.874 3.04897 -53.4916)
(-5.7938 -3.74594 0.173088 -89.5285 3.77098 -35.7709)
(-5.07964 -1.70299 0.217873 -50.786 3.95562 -21.4158)
(-3.82908 -0.170772 0.20264 -22.5537 3.49271 -10.7055)
(-1.03103 -0.116002 0.0818069 -8.05984 1.81374 -3.35661)
(-6.66373 -13.4215 -0.0606447 -382.891 -0.776898 -165.514)
(-6.52007 -6.91202 -0.0396364 -215.734 0.234818 -89.1139)
(-6.56787 -7.44735 0.00732557 -189.452 1.06363 -77.6356)
(-6.33238 -5.72486 0.0596393 -135.454 1.70416 -55.341)
(-5.87344 -3.67711 0.105024 -89.1337 2.10387 -37.0101)
(-5.14514 -1.62783 0.129263 -50.3956 2.2192 -21.9703)
(-3.89408 -0.089841 0.117707 -22.113 1.97322 -10.615)
(-1.1385 -0.0172272 0.0424711 -7.68789 1.02903 -2.86325)
(-6.7038 -13.3751 -0.0175132 -382.383 -0.206443 -165.762)
(-6.56016 -6.88829 -0.0114694 -215.468 0.0894991 -90.0408)
(-6.60787 -7.41886 0.00384449 -189.201 0.347762 -78.6055)
(-6.37088 -5.69351 0.0207299 -135.226 0.548897 -56.1689)
(-5.90784 -3.64189 0.0352583 -88.9163 0.676258 -37.5801)
(-5.17497 -1.58982 0.0427731 -50.1828 0.714724 -22.2438)
(-3.9214 -0.0509622 0.0386424 -21.8805 0.637316 -10.6038)
(-1.19693 0.0294101 0.0127102 -7.50938 0.333077 -2.69829)
(-55.8815 12.896 -2.62113 -0.570037 -2.2516 1.5402)
(-50.6724 12.213 0.77365 1.27892 -2.04567 5.77047)
(-51.5961 12.3256 0.246407 2.72228 -1.58959 0.927567)
(-52.1582 12.5052 -0.199621 3.84841 -1.22043 -1.17397)
(-53.0386 12.6985 -0.470796 4.68314 -0.912104 -2.3428)
(-53.7082 12.8533 -0.474256 5.27225 -0.642714 -2.63034)
(-54.1593 12.9604 -0.340194 5.6332 -0.392315 -2.6086)
(-54.4143 13.0101 -0.124785 5.73505 -0.135065 -2.58058)
(-48.4592 9.38804 -4.48655 -2.4581 -0.570678 -7.38335)
(-43.789 8.22601 -2.47907 -1.48072 -0.574705 -6.46277)
(-44.1514 8.03849 -2.14958 -0.467237 -0.428813 -6.63048)
(-45.4245 8.06373 -2.28057 0.362918 -0.306824 -6.49847)
(-46.706 8.12989 -2.18295 0.974627 -0.221186 -6.48389)
(-47.6636 8.19057 -1.76189 1.40417 -0.153812 -6.41067)
(-48.2724 8.23816 -1.13019 1.68322 -0.0914458 -6.32739)
(-48.5446 8.27183 -0.388641 1.84315 -0.0300437 -6.26035)
(-4.56017 5.91896 -4.41643 -3.95753 0.131867 -1.62633)
(-6.51098 4.91958 -4.11407 -3.24693 0.0802763 -2.73766)
(-8.36299 4.66412 -3.7878 -2.49701 0.0876364 -0.662049)
(-10.1485 4.60357 -3.47258 -1.9012 0.0790084 1.11932)
(-11.5177 4.58982 -2.98237 -1.47386 0.0588826 2.20175)
(-12.465 4.58756 -2.27296 -1.18059 0.038506 2.74495)
(-13.055 4.58838 -1.41563 -0.995123 0.0236929 2.97968)
(-13.3307 4.58843 -0.480288 -0.889807 0.00913118 3.06693)
(12.731 4.79808 -3.35475 -3.81542 0.513978 -4.06523)
(8.77774 3.90914 -2.91104 -3.2529 0.27063 -6.62274)
(7.41211 3.57316 -2.73752 -2.76945 0.17971 -1.76801)
(6.0854 3.43521 -2.36062 -2.38496 0.117387 1.62892)
(5.17335 3.35363 -1.94243 -2.11259 0.0711974 3.70718)
(4.50035 3.30291 -1.43827 -1.933 0.0389654 4.6788)
(4.06309 3.27129 -0.882947 -1.82536 0.0190242 5.05767)
(3.84285 3.25285 -0.298112 -1.77669 0.00592236 5.16492)
)
;
    }
    symmetry
    {
        type            symmetryPlane;
    }
    bottom
    {
        type            calculated;
        value           nonuniform List<symmTensor> 
32
(
(207.541 81.206 3.63328 315.071 91.7263 208.429)
(204.606 91.05 2.02229 309.186 45.4299 201.562)
(210.774 95.809 1.02327 318.322 21.9289 206.538)
(214.337 97.5417 0.468783 323.741 9.88982 209.761)
(215.922 98.0592 0.188112 326.188 3.95162 211.261)
(216.548 98.1467 0.0595602 327.173 1.25056 211.874)
(216.749 98.115 0.010827 327.499 0.227433 212.078)
(216.795 98.0777 -7.95849e-05 327.577 -0.00167246 212.128)
(39.958 32.5526 0.455193 59.3897 25.6621 39.7394)
(42.3518 42.9745 0.309972 62.3708 13.255 41.4424)
(45.2866 44.6568 0.149108 66.7067 6.14806 44.2241)
(46.6652 44.2944 0.058382 68.8289 2.42926 45.6039)
(47.3684 43.5958 0.015598 69.949 0.659764 46.338)
(47.7526 43.0042 -0.00107549 70.5756 -0.0461302 46.75)
(47.9609 42.6126 -0.00459475 70.9202 -0.198922 46.9767)
(48.0536 42.4214 -0.00210505 71.0747 -0.0915515 47.0782)
(-57.0023 27.7298 -0.477102 -85.4742 -29.5 -56.9432)
(-50.7687 37.7225 -0.375742 -76.8249 -17.1497 -51.4244)
(-51.1759 38.7248 -0.226355 -77.4937 -10.0608 -51.9883)
(-51.4292 37.8793 -0.129331 -77.8135 -5.87579 -52.2429)
(-51.4009 36.8655 -0.0723417 -77.7071 -3.37721 -52.1839)
(-51.2396 36.07 -0.0391871 -77.4192 -1.87003 -51.9934)
(-51.0697 35.5543 -0.0192019 -77.1365 -0.929745 -51.8035)
(-50.9673 35.3046 -0.00574465 -76.97 -0.280142 -51.6912)
(-211.277 57.6313 -3.19543 -310.435 -84.7829 -208.748)
(-200.547 64.8587 -1.92232 -296.183 -45.6753 -201.922)
(-205.665 66.7811 -1.05855 -303.707 -24.3321 -208.185)
(-208.25 66.7391 -0.553285 -307.374 -12.7016 -211.052)
(-208.923 66.1642 -0.277485 -308.262 -6.42251 -211.755)
(-208.776 65.5715 -0.132281 -307.985 -3.08985 -211.577)
(-208.426 65.1356 -0.0570701 -307.438 -1.34237 -211.194)
(-208.186 64.9107 -0.0156781 -307.073 -0.370122 -210.935)
)
;
    }
}


// ************************************************************************* //
