/*--------------------------------*- C++ -*----------------------------------*\
| =========                 |                                                 |
| \\      /  F ield         | foam-extend: Open Source CFD                    |
|  \\    /   O peration     | Version:     3.1                                |
|   \\  /    A nd           | Web:         http://www.extend-project.de       |
|    \\/     M anipulation  |                                                 |
\*---------------------------------------------------------------------------*/
FoamFile
{
    version     2.0;
    format      ascii;
    class       volScalarField;
    location    "3.4";
    object      sigmaEq;
}
// * * * * * * * * * * * * * * * * * * * * * * * * * * * * * * * * * * * * * //

dimensions      [1 -1 -2 0 0 0 0];

internalField   nonuniform List<scalar> 
256
(
240.956
107.347
105.148
230.463
180.553
136.378
125.975
161.813
164.181
130.187
119.765
142.355
131.123
116.695
107.432
107.379
101.625
99.786
91.9462
77.4042
76.678
80.9625
74.4564
52.2102
60.0398
62.4805
55.323
33.2823
56.7818
48.997
30.8236
19.6161
237.786
120.322
115.342
220.721
188.522
140.107
131.208
170.699
162.261
121.181
111.558
140.525
127.998
103.405
94.3661
103.81
97.2226
85.1083
77.3388
71.9553
72.5097
67.3095
60.9468
46.3834
56.6342
51.2475
44.7176
28.1249
54.4584
42.4053
25.6098
16.6562
239.911
123.916
116.835
218.322
187.964
141.341
130.994
166.84
162.686
120.631
109.439
137.599
128.258
100.73
90.1197
100.827
97.3786
81.5848
72.3944
69.0407
72.4516
63.7341
56.3212
43.7149
56.2387
48.4399
41.359
25.8805
53.3529
41.7108
24.4898
13.8062
241.154
124.627
116.048
216.608
187.603
142.143
130.279
163.742
163.023
121.474
108.702
134.924
128.995
101.166
89.0591
98.4704
98.279
81.6864
71.1984
66.9255
73.3307
63.654
55.2686
41.8452
56.9465
48.5021
40.8016
24.3051
53.803
42.754
24.8633
12.258
241.583
124.356
114.748
214.955
187.664
142.464
129.419
161.687
163.51
122.299
108.33
132.994
129.877
102.14
88.9344
96.7896
99.3728
82.6305
71.2148
65.4697
74.459
64.4805
55.3987
40.5821
57.9868
49.2875
41.1005
23.2821
54.7384
43.9637
25.5188
11.5497
241.587
123.866
113.563
213.511
187.806
142.502
128.603
160.295
163.96
122.849
108.032
131.677
130.623
102.951
88.9905
95.6545
100.282
83.5175
71.4825
64.5059
75.4065
65.3093
55.7683
39.7691
58.8905
50.0405
41.5168
22.6555
55.6577
44.9134
26.0199
11.1828
241.464
123.457
112.718
212.462
187.916
142.438
127.984
159.406
164.28
123.152
107.792
130.846
131.135
103.467
89.0332
94.9484
100.896
84.1159
71.7011
63.9151
76.045
65.8827
56.0631
39.2849
59.5109
50.5555
41.8175
22.3002
56.32
45.5293
26.3159
10.9623
241.37
123.236
112.286
211.915
187.97
142.381
127.653
158.968
164.442
123.28
107.654
130.442
131.389
103.709
89.0465
94.6079
101.198
84.4057
71.8097
63.6327
76.357
66.1637
56.212
39.0578
59.8146
50.8071
41.9636
22.1382
56.6495
45.8265
26.4463
10.8487
)
;

boundaryField
{
    interface
    {
        type            calculated;
        value           nonuniform List<scalar> 
192
(
389.736
204.608
198.944
149.822
111.649
80.4154
63.6448
55.6861
382.309
220.661
200.688
153.587
114.583
84.288
67.9773
59.7443
387.245
216.939
200.044
153.413
114.375
83.7027
66.8356
56.2654
390.814
214.791
199.566
153.633
115.013
84.4621
67.608
56.2018
392.523
213.966
199.558
154.106
115.856
85.4554
68.6758
56.7701
393.148
213.693
199.772
154.635
116.629
86.3452
69.6417
57.5698
393.286
213.605
199.987
155.043
117.175
86.9586
70.3048
58.1779
393.278
213.575
200.104
155.251
117.444
87.257
70.6203
58.4695
272.064
168.172
169.176
135.326
107.319
82.2662
64.8475
61.0266
98.0013
131.262
138.212
127.203
111.198
91.4368
71.1255
55.8382
99.7414
118.208
126.388
116.891
102.503
84.1174
62.9892
35.0317
265.808
145.777
146.581
110.758
82.9675
58.0154
38.6602
23.5873
368.602
190.165
177.545
125.42
84.1196
49.2959
26.0407
16.332
351.325
205.312
177.176
126.309
83.8641
49.7221
27.2345
17.5831
351.814
198.85
173.495
123.377
81.2546
47.3742
24.876
13.2073
352.125
194.429
170.047
120.432
78.6049
44.7665
21.9567
10.2661
351.31
191.873
167.68
118.247
76.5749
42.651
19.4226
8.25617
350.065
190.321
166.144
116.788
75.1775
41.1639
17.5659
6.96786
348.969
189.39
165.209
115.898
74.3129
40.2401
16.3866
6.15367
348.351
188.945
164.762
115.475
73.9003
39.7999
15.8211
5.74916
61.5919
58.9753
58.1669
58.4679
59.4044
60.3439
61.0388
61.3729
47.764
43.0901
43.7759
45.547
47.1542
48.3291
49.0756
49.4384
13.0888
11.6798
12.5484
14.236
15.5647
16.3376
16.7237
16.8788
19.4933
16.3546
12.4484
10.2888
9.46419
9.02751
8.71643
8.53167
)
;
    }
    symmetry
    {
        type            symmetryPlane;
    }
    bottom
    {
        type            calculated;
        value           nonuniform List<scalar> 
32
(
220.985
191.576
188.236
188.721
189.217
189.387
189.385
189.348
73.3323
79.3181
79.7915
78.7802
77.6336
76.7184
76.1148
75.8186
77.3379
77.7289
75.4382
72.6995
70.5194
68.9969
68.0512
67.6001
221.299
180.392
169.444
165.655
163.726
162.443
161.586
161.149
)
;
    }
}


// ************************************************************************* //
