/*--------------------------------*- C++ -*----------------------------------*\
| =========                 |                                                 |
| \\      /  F ield         | foam-extend: Open Source CFD                    |
|  \\    /   O peration     | Version:     3.1                                |
|   \\  /    A nd           | Web:         http://www.extend-project.de       |
|    \\/     M anipulation  |                                                 |
\*---------------------------------------------------------------------------*/
FoamFile
{
    version     2.0;
    format      ascii;
    class       volScalarField;
    location    "3.4";
    object      sigmaCauchyEq;
}
// * * * * * * * * * * * * * * * * * * * * * * * * * * * * * * * * * * * * * //

dimensions      [1 -1 -2 0 0 0 0];

internalField   nonuniform List<scalar> 
256
(
261.863
109.067
102.61
209.268
183.087
137.028
124.636
158.666
167.783
130.53
118.569
138.493
132.672
116.68
106.597
105.5
102.216
99.5691
91.3795
76.4578
76.6703
80.6331
74.106
51.8428
59.8282
62.1267
55.123
33.1805
56.3485
48.5539
30.7868
19.6383
258.191
122.453
112.811
201.384
192.958
141.657
129.122
165.679
166.092
121.879
110.287
136.587
129.871
103.733
93.5121
101.8
97.9878
85.165
76.8173
71.0069
72.65
67.2093
60.6504
46.0181
56.5418
51.0644
44.5647
28.0232
54.1455
42.0961
25.5734
16.6511
260.859
126.226
114.254
198.935
192.065
142.923
128.913
162.081
166.37
121.319
108.207
133.772
130.039
101.047
89.3175
98.8774
98.0861
81.6434
71.9135
68.1362
72.5625
63.6469
56.0505
43.3737
56.1309
48.2748
41.2155
25.7872
53.0071
41.4096
24.4464
13.8033
262.386
126.98
113.483
197.287
191.378
143.672
128.256
159.292
166.519
122.101
107.518
131.294
130.664
101.437
88.2925
96.6304
98.9326
81.7174
70.7375
66.0784
73.4212
63.554
55.005
41.5303
56.8377
48.3317
40.6552
24.2206
53.459
42.4416
24.8107
12.2538
262.899
126.71
112.225
195.814
191.218
143.946
127.453
157.455
166.854
122.879
107.187
129.531
131.451
102.376
88.193
95.0479
99.9764
82.64
70.7657
64.6734
74.5264
64.3685
55.1372
40.2896
57.8707
49.1091
40.9498
23.2047
54.3865
43.6364
25.4596
11.5453
262.901
126.212
111.082
194.57
191.229
143.954
126.683
156.205
167.207
123.4
106.919
128.331
132.133
103.166
88.2673
93.984
100.851
83.5133
71.0419
63.7473
75.4556
65.1886
55.508
39.4933
58.7666
49.8553
41.3631
22.5832
55.2984
44.5742
25.9564
11.1786
262.75
125.795
110.27
193.678
191.267
143.872
126.096
155.4
167.472
123.687
106.699
127.573
132.607
103.67
88.3221
93.3225
101.442
84.1038
71.2662
63.1805
76.0816
65.7566
55.8041
39.0198
59.3806
50.3655
41.6621
22.2312
55.9544
45.1821
26.2499
10.9583
262.635
125.569
109.855
193.216
191.289
143.808
125.781
155.001
167.609
123.808
106.572
127.202
132.844
103.908
88.3414
93.0034
101.734
84.3902
71.3777
62.9098
76.3874
66.0352
55.9537
38.798
59.6807
50.6148
41.8077
22.0709
56.2804
45.4755
26.3792
10.8448
)
;

boundaryField
{
    interface
    {
        type            calculated;
        value           nonuniform List<scalar> 
192
(
415.917
211.546
205.217
153.042
113.071
80.8316
63.6843
55.6209
406.458
228.497
206.868
156.779
115.94
84.6618
67.9835
59.6688
411.239
224.099
205.887
156.426
115.646
84.0403
66.8233
56.1671
414.736
221.409
205.055
156.451
116.186
84.7574
67.5847
56.1087
416.336
220.246
204.793
156.775
116.953
85.7154
68.6414
56.682
416.841
219.773
204.849
157.206
117.673
86.5782
69.5962
57.4833
416.883
219.576
204.975
157.557
118.186
87.1735
70.2504
58.0909
416.822
219.498
205.053
157.74
118.44
87.4633
70.5614
58.3824
285.668
169.641
171.942
136.38
107.599
82.04
64.4531
60.4511
99.1303
131.331
138.233
126.888
110.727
90.8955
70.6124
55.3242
97.7805
117.293
125.266
116.057
101.883
83.7027
62.7321
34.9619
251.916
143.551
143.329
109.104
82.0889
57.6616
38.5625
23.6203
343.325
183.159
171.437
122.364
82.7457
48.8284
25.9224
16.3192
328.761
197.031
170.988
123.126
82.4363
49.206
27.0763
17.5371
329.755
191.171
167.594
120.327
79.8969
46.8929
24.737
13.1761
330.387
187.27
164.497
117.568
77.3424
44.3336
21.8443
10.245
329.867
185.056
162.399
115.541
75.396
42.2608
19.3323
8.2414
328.875
183.717
161.044
114.193
74.0598
40.8052
17.4913
6.95672
327.962
182.91
160.218
113.372
73.2339
39.9013
16.3217
6.14461
327.439
182.522
159.822
112.982
72.8398
39.4707
15.7609
5.74106
60.953
58.4318
57.6173
57.9172
58.8432
59.7711
60.4566
60.7849
47.324
42.7371
43.4203
45.1703
46.7565
47.9155
48.652
49.0102
13.0718
11.661
12.5247
14.2065
15.5306
16.2999
16.6838
16.8378
19.5346
16.3744
12.464
10.2966
9.46715
9.02807
8.71571
8.53032
)
;
    }
    symmetry
    {
        type            symmetryPlane;
    }
    bottom
    {
        type            calculated;
        value           nonuniform List<scalar> 
32
(
237.765
205.764
202.544
203.293
203.931
204.156
204.168
204.131
74.412
80.5455
81.1102
80.1222
78.9766
78.0568
77.4488
77.1501
75.7007
76.2495
73.9901
71.2985
69.1626
67.6745
66.7519
66.3122
204.08
167.052
156.621
152.98
151.169
150
149.233
148.845
)
;
    }
}


// ************************************************************************* //
