/*--------------------------------*- C++ -*----------------------------------*\
| =========                 |                                                 |
| \\      /  F ield         | foam-extend: Open Source CFD                    |
|  \\    /   O peration     | Version:     3.1                                |
|   \\  /    A nd           | Web:         http://www.extend-project.de       |
|    \\/     M anipulation  |                                                 |
\*---------------------------------------------------------------------------*/
FoamFile
{
    version     2.0;
    format      ascii;
    class       volVectorField;
    location    "3.4";
    object      U;
}
// * * * * * * * * * * * * * * * * * * * * * * * * * * * * * * * * * * * * * //

dimensions      [0 1 -1 0 0 0 0];

internalField   nonuniform List<vector> 
256
(
(-1.94138e-05 -1.02069e-05 -1.79428e-05)
(-9.96599e-06 -2.12382e-06 -6.03648e-06)
(-8.58074e-06 2.68194e-06 5.20119e-06)
(-1.48081e-05 1.16024e-05 1.83035e-05)
(-7.40278e-05 -4.26359e-05 -1.72736e-05)
(-6.23312e-05 -1.21216e-05 -9.05214e-06)
(-5.9863e-05 1.19766e-05 3.20666e-06)
(-6.59198e-05 4.38284e-05 1.14321e-05)
(-0.000139167 -6.46153e-05 -1.63511e-05)
(-0.0001277 -1.95603e-05 -1.02512e-05)
(-0.000124777 2.0262e-05 -2.23069e-06)
(-0.00012973 6.73273e-05 2.7909e-06)
(-0.000212618 -8.03549e-05 -1.45851e-05)
(-0.000202909 -2.40623e-05 -1.22061e-05)
(-0.000200003 2.80683e-05 -8.54732e-06)
(-0.000203196 8.6682e-05 -8.04905e-06)
(-0.000290064 -8.94029e-05 -1.40991e-05)
(-0.000282373 -2.56759e-05 -1.5087e-05)
(-0.000279878 3.51684e-05 -1.54758e-05)
(-0.000281917 0.000101543 -1.91065e-05)
(-0.000367638 -9.30895e-05 -1.56971e-05)
(-0.00036239 -2.49006e-05 -1.93046e-05)
(-0.000360824 4.1756e-05 -2.28293e-05)
(-0.000362376 0.000113111 -2.96937e-05)
(-0.000443438 -9.27222e-05 -1.98955e-05)
(-0.000440712 -2.219e-05 -2.52353e-05)
(-0.000440739 4.81161e-05 -3.07966e-05)
(-0.000442766 0.000122596 -3.95922e-05)
(-0.000516409 -8.97832e-05 -2.76333e-05)
(-0.000516425 -1.77395e-05 -3.34313e-05)
(-0.000519174 5.49001e-05 -3.97361e-05)
(-0.000523198 0.000131091 -4.92555e-05)
(-1.95875e-05 -9.55643e-06 -8.08707e-06)
(-1.07434e-05 -1.60618e-06 -2.86645e-06)
(-9.65724e-06 3.07944e-06 2.95223e-06)
(-1.59742e-05 1.14486e-05 9.10916e-06)
(-7.47325e-05 -3.99685e-05 -9.7475e-06)
(-6.18934e-05 -1.00799e-05 -5.3505e-06)
(-5.95087e-05 1.37015e-05 1.35196e-06)
(-6.68902e-05 4.49762e-05 5.67706e-06)
(-0.00013719 -6.17825e-05 -1.00314e-05)
(-0.000125873 -1.68289e-05 -7.19844e-06)
(-0.000122801 2.331e-05 -2.88316e-06)
(-0.000127427 7.0188e-05 -8.09411e-07)
(-0.000207642 -7.6785e-05 -9.69906e-06)
(-0.00019807 -2.06522e-05 -9.44727e-06)
(-0.000194806 3.17209e-05 -8.19561e-06)
(-0.000197361 9.00861e-05 -9.31662e-06)
(-0.000281947 -8.51352e-05 -1.00806e-05)
(-0.000274509 -2.16639e-05 -1.24123e-05)
(-0.000271501 3.92022e-05 -1.41657e-05)
(-0.00027261 0.000105198 -1.84324e-05)
(-0.000357062 -8.80138e-05 -1.1929e-05)
(-0.000352031 -2.02841e-05 -1.63945e-05)
(-0.000349816 4.60225e-05 -2.06036e-05)
(-0.000350323 0.000116814 -2.74628e-05)
(-0.00043114 -8.67567e-05 -1.56799e-05)
(-0.000428678 -1.69878e-05 -2.16671e-05)
(-0.000427959 5.24775e-05 -2.75048e-05)
(-0.000428839 0.000126182 -3.60617e-05)
(-0.000503104 -8.30497e-05 -2.21421e-05)
(-0.000503341 -1.21894e-05 -2.85019e-05)
(-0.00050537 5.90033e-05 -3.47395e-05)
(-0.000508423 0.00013425 -4.39333e-05)
(-1.89638e-05 -9.4772e-06 -3.31775e-06)
(-1.0003e-05 -1.48732e-06 -1.30964e-06)
(-9.11713e-06 3.33519e-06 1.40666e-06)
(-1.59923e-05 1.16837e-05 4.00275e-06)
(-7.27655e-05 -3.79344e-05 -4.96118e-06)
(-5.94324e-05 -8.80674e-06 -3.18805e-06)
(-5.73355e-05 1.43623e-05 -1.20738e-07)
(-6.58008e-05 4.47794e-05 1.58026e-06)
(-0.000133162 -5.87388e-05 -5.61574e-06)
(-0.000121561 -1.47818e-05 -5.09441e-06)
(-0.000118734 2.45849e-05 -3.52057e-06)
(-0.000124157 7.026e-05 -3.46657e-06)
(-0.000201127 -7.30597e-05 -6.00706e-06)
(-0.000191519 -1.8039e-05 -7.36914e-06)
(-0.000188472 3.34176e-05 -7.93281e-06)
(-0.000191555 9.03949e-05 -1.01646e-05)
(-0.000272919 -8.10301e-05 -6.86559e-06)
(-0.000265631 -1.86795e-05 -1.02146e-05)
(-0.000262836 4.11741e-05 -1.29833e-05)
(-0.000264319 0.000105769 -1.75645e-05)
(-0.000345809 -8.36357e-05 -8.71746e-06)
(-0.000341072 -1.70605e-05 -1.38046e-05)
(-0.000339059 4.81121e-05 -1.84618e-05)
(-0.000339817 0.000117564 -2.50783e-05)
(-0.000418117 -8.20629e-05 -1.18732e-05)
(-0.000416036 -1.36344e-05 -1.82626e-05)
(-0.000415478 5.44857e-05 -2.41855e-05)
(-0.000416462 0.000126929 -3.22193e-05)
(-0.000488661 -7.78823e-05 -1.69791e-05)
(-0.000489283 -8.78479e-06 -2.36346e-05)
(-0.000491489 6.07626e-05 -2.96969e-05)
(-0.000494629 0.000134823 -3.81995e-05)
(-1.8061e-05 -9.30538e-06 -1.04381e-06)
(-9.06162e-06 -1.3989e-06 -5.69357e-07)
(-8.31081e-06 3.45607e-06 4.71874e-07)
(-1.55254e-05 1.17464e-05 1.26925e-06)
(-6.99451e-05 -3.64004e-05 -2.25405e-06)
(-5.64895e-05 -8.02482e-06 -1.97966e-06)
(-5.46707e-05 1.45554e-05 -9.76831e-07)
(-6.38099e-05 4.41864e-05 -7.95922e-07)
(-0.000128391 -5.62822e-05 -2.88923e-06)
(-0.000116681 -1.34274e-05 -3.67019e-06)
(-0.000114168 2.49931e-05 -3.72542e-06)
(-0.000120298 6.94518e-05 -4.83817e-06)
(-0.00019432 -7.00223e-05 -3.50295e-06)
(-0.0001847 -1.62821e-05 -5.71411e-06)
(-0.000181985 3.40175e-05 -7.31069e-06)
(-0.000185715 8.95642e-05 -1.01216e-05)
(-0.000264161 -7.77018e-05 -4.4616e-06)
(-0.00025695 -1.66943e-05 -8.20845e-06)
(-0.000254499 4.18872e-05 -1.14451e-05)
(-0.000256567 0.000104989 -1.60352e-05)
(-0.000335236 -8.01753e-05 -6.10996e-06)
(-0.00033067 -1.49851e-05 -1.12365e-05)
(-0.000329011 4.88257e-05 -1.59163e-05)
(-0.000330297 0.000116792 -2.21002e-05)
(-0.000405937 -7.84652e-05 -8.64376e-06)
(-0.000404098 -1.15388e-05 -1.48181e-05)
(-0.000403894 5.50813e-05 -2.04576e-05)
(-0.000405358 0.000126055 -2.77934e-05)
(-0.000474888 -7.40058e-05 -1.2573e-05)
(-0.0004758 -6.63261e-06 -1.8903e-05)
(-0.000478368 6.12103e-05 -2.45165e-05)
(-0.000481876 0.000133754 -3.21769e-05)
(-1.71899e-05 -9.09856e-06 -5.19679e-08)
(-8.23174e-06 -1.32857e-06 -2.34537e-07)
(-7.57281e-06 3.51141e-06 -2.0055e-08)
(-1.49648e-05 1.1696e-05 -4.76299e-08)
(-6.71701e-05 -3.52407e-05 -8.48521e-07)
(-5.37508e-05 -7.54237e-06 -1.27572e-06)
(-5.21484e-05 1.4544e-05 -1.30378e-06)
(-6.16948e-05 4.35009e-05 -1.84116e-06)
(-0.000123852 -5.4471e-05 -1.34835e-06)
(-0.000112149 -1.2581e-05 -2.641e-06)
(-0.000109906 2.50008e-05 -3.4601e-06)
(-0.000116555 6.84382e-05 -5.02051e-06)
(-0.000188098 -6.77907e-05 -1.9285e-06)
(-0.000178507 -1.51796e-05 -4.30503e-06)
(-0.000176086 3.40612e-05 -6.24757e-06)
(-0.000180361 8.83866e-05 -9.07805e-06)
(-0.000256479 -7.52597e-05 -2.75431e-06)
(-0.000249278 -1.54667e-05 -6.30391e-06)
(-0.000247103 4.19249e-05 -9.45951e-06)
(-0.000249693 0.000103712 -1.3627e-05)
(-0.000326077 -7.76546e-05 -4.07056e-06)
(-0.000321569 -1.37435e-05 -8.67625e-06)
(-0.000320184 4.87807e-05 -1.29084e-05)
(-0.00032195 0.000115386 -1.8292e-05)
(-0.000395357 -7.5853e-05 -5.98688e-06)
(-0.000393629 -1.03157e-05 -1.13917e-05)
(-0.000393691 5.48909e-05 -1.63261e-05)
(-0.000395564 0.000124451 -2.26016e-05)
(-0.000462831 -7.11816e-05 -8.87442e-06)
(-0.0004639 -5.36723e-06 -1.43611e-05)
(-0.00046675 6.08902e-05 -1.91952e-05)
(-0.000470598 0.000131915 -2.56929e-05)
(-1.64791e-05 -8.91455e-06 2.77521e-07)
(-7.5921e-06 -1.27655e-06 -9.2174e-08)
(-6.99693e-06 3.53334e-06 -2.08221e-07)
(-1.44762e-05 1.16063e-05 -5.15353e-07)
(-6.48627e-05 -3.44028e-05 -2.05127e-07)
(-5.15359e-05 -7.24954e-06 -8.17531e-07)
(-5.00917e-05 1.44578e-05 -1.22241e-06)
(-5.98807e-05 4.2878e-05 -1.93862e-06)
(-0.000120086 -5.32094e-05 -5.52443e-07)
(-0.000108448 -1.2076e-05 -1.8129e-06)
(-0.000106416 2.48528e-05 -2.78662e-06)
(-0.000113425 6.74995e-05 -4.25848e-06)
(-0.000182997 -6.62528e-05 -9.93273e-07)
(-0.000173477 -1.45251e-05 -3.02588e-06)
(-0.00017129 3.38748e-05 -4.78174e-06)
(-0.000175974 8.72505e-05 -7.15378e-06)
(-0.00025042 -7.35817e-05 -1.58992e-06)
(-0.00024317 -1.47543e-05 -4.46437e-06)
(-0.000241175 4.16756e-05 -7.07041e-06)
(-0.000244158 0.000102423 -1.03898e-05)
(-0.000318858 -7.59379e-05 -2.52668e-06)
(-0.000314337 -1.30593e-05 -6.15128e-06)
(-0.00031313 4.84158e-05 -9.51066e-06)
(-0.000315268 0.000113922 -1.36942e-05)
(-0.000386968 -7.40717e-05 -3.85775e-06)
(-0.000385274 -9.66511e-06 -8.04353e-06)
(-0.000385511 5.43815e-05 -1.18837e-05)
(-0.000387704 0.000122776 -1.67044e-05)
(-0.00045322 -6.92442e-05 -5.82427e-06)
(-0.000454364 -4.68937e-06 -1.00503e-05)
(-0.000457412 6.02683e-05 -1.37817e-05)
(-0.000461562 0.000130027 -1.87473e-05)
(-1.59886e-05 -8.78106e-06 2.70421e-07)
(-7.16435e-06 -1.24261e-06 -3.40815e-08)
(-6.60996e-06 3.53948e-06 -1.99049e-07)
(-1.4129e-05 1.15241e-05 -4.8379e-07)
(-6.3237e-05 -3.38571e-05 1.56543e-08)
(-4.99998e-05 -7.08324e-06 -4.6533e-07)
(-4.86608e-05 1.43673e-05 -8.50017e-07)
(-5.85869e-05 4.24132e-05 -1.4041e-06)
(-0.000117416 -5.24125e-05 -1.8605e-07)
(-0.000105854 -1.17968e-05 -1.06916e-06)
(-0.00010397 2.46884e-05 -1.80151e-06)
(-0.000111208 6.67937e-05 -2.82246e-06)
(-0.000179388 -6.52933e-05 -4.53777e-07)
(-0.000169954 -1.4167e-05 -1.8029e-06)
(-0.000167933 3.36555e-05 -3.00136e-06)
(-0.000172888 8.63815e-05 -4.56424e-06)
(-0.000246277 -7.25386e-05 -8.06731e-07)
(-0.000238957 -1.43755e-05 -2.66553e-06)
(-0.000237059 4.13868e-05 -4.37164e-06)
(-0.000240298 0.000101418 -6.50366e-06)
(-0.000313902 -7.48834e-05 -1.36104e-06)
(-0.00030934 -1.27207e-05 -3.67015e-06)
(-0.000308231 4.80228e-05 -5.82448e-06)
(-0.00031061 0.000112765 -8.47556e-06)
(-0.000381174 -7.29788e-05 -2.14133e-06)
(-0.000379479 -9.36011e-06 -4.78342e-06)
(-0.000379823 5.38757e-05 -7.21899e-06)
(-0.000382243 0.000121454 -1.02531e-05)
(-0.000446556 -6.80519e-05 -3.27962e-06)
(-0.000447726 -4.37152e-06 -5.94011e-06)
(-0.0004509 5.96792e-05 -8.29751e-06)
(-0.00045527 0.000128554 -1.14133e-05)
(-1.57404e-05 -8.71137e-06 1.05567e-07)
(-6.95145e-06 -1.22591e-06 -8.6024e-09)
(-6.4169e-06 3.54009e-06 -7.83756e-08)
(-1.39508e-05 1.14766e-05 -1.88717e-07)
(-6.24053e-05 -3.35867e-05 2.64504e-08)
(-4.92191e-05 -7.00788e-06 -1.51952e-07)
(-4.7932e-05 1.43128e-05 -3.02738e-07)
(-5.79198e-05 4.21662e-05 -5.07317e-07)
(-0.00011605 -5.20254e-05 -3.90946e-08)
(-0.000104529 -1.1673e-05 -3.54023e-07)
(-0.000102718 2.45878e-05 -6.22285e-07)
(-0.000110066 6.64174e-05 -9.85056e-07)
(-0.000177561 -6.48335e-05 -1.28176e-07)
(-0.000168159 -1.40104e-05 -5.99335e-07)
(-0.000166217 3.35189e-05 -1.02286e-06)
(-0.000171304 8.59147e-05 -1.56696e-06)
(-0.000244144 -7.20447e-05 -2.4518e-07)
(-0.000236799 -1.42158e-05 -8.86838e-07)
(-0.000234953 4.12068e-05 -1.47931e-06)
(-0.00023832 0.000100873 -2.21347e-06)
(-0.000311374 -7.43846e-05 -4.28016e-07)
(-0.000306789 -1.25867e-05 -1.22012e-06)
(-0.000305727 4.77833e-05 -1.96157e-06)
(-0.000308232 0.000112136 -2.8691e-06)
(-0.000378216 -7.24629e-05 -6.84364e-07)
(-0.000376515 -9.2465e-06 -1.58692e-06)
(-0.000376909 5.3575e-05 -2.42105e-06)
(-0.000379444 0.000120737 -3.45643e-06)
(-0.000443153 -6.74913e-05 -1.05627e-06)
(-0.000444325 -4.2537e-06 -1.96417e-06)
(-0.000447553 5.93335e-05 -2.77025e-06)
(-0.000452028 0.000127756 -3.83202e-06)
)
;

boundaryField
{
    interface
    {
        type            calculated;
        value           nonuniform List<vector> 
192
(
(-3.99054e-05 -3.72233e-05 -1.8421e-05)
(-8.31826e-05 -6.8587e-05 -1.82602e-05)
(-0.000149259 -9.76584e-05 -1.63856e-05)
(-0.000220346 -0.000116736 -1.32764e-05)
(-0.000295867 -0.000127592 -1.16959e-05)
(-0.000371236 -0.000131344 -1.25826e-05)
(-0.000445197 -0.000129986 -1.6496e-05)
(-0.000516931 -0.000125804 -2.40514e-05)
(-3.97139e-05 -3.70082e-05 -8.18312e-06)
(-8.50668e-05 -6.53166e-05 -9.84191e-06)
(-0.000146997 -9.34862e-05 -9.37689e-06)
(-0.000215208 -0.000111976 -7.86615e-06)
(-0.000287338 -0.00012234 -7.11281e-06)
(-0.000360189 -0.00012563 -7.97447e-06)
(-0.000432212 -0.000123702 -1.09582e-05)
(-0.000502947 -0.000118581 -1.66293e-05)
(-3.91252e-05 -3.65101e-05 -3.13904e-06)
(-8.3418e-05 -6.26519e-05 -4.316e-06)
(-0.000143182 -8.93303e-05 -4.26979e-06)
(-0.000208828 -0.000107138 -3.75251e-06)
(-0.000278373 -0.000117204 -3.66499e-06)
(-0.000348984 -0.000120419 -4.65382e-06)
(-0.000419207 -0.000118366 -7.03132e-06)
(-0.000488624 -0.000112633 -1.12777e-05)
(-3.79922e-05 -3.55444e-05 -7.62078e-07)
(-8.0782e-05 -6.0386e-05 -1.35018e-06)
(-0.000138616 -8.59924e-05 -1.31368e-06)
(-0.000202212 -0.000103195 -1.1798e-06)
(-0.000269769 -0.00011302 -1.38569e-06)
(-0.00033852 -0.000116192 -2.31822e-06)
(-0.000407077 -0.000114075 -4.13009e-06)
(-0.000474884 -0.000107937 -7.22282e-06)
(-3.67567e-05 -3.44901e-05 2.33275e-07)
(-7.80758e-05 -5.85238e-05 4.18846e-08)
(-0.000134195 -8.34303e-05 1.37708e-07)
(-0.000196129 -0.000100265 1.55348e-07)
(-0.000262248 -0.000109915 -1.01257e-07)
(-0.000329485 -0.000113011 -8.56148e-07)
(-0.000396578 -0.000110813 -2.1594e-06)
(-0.000462901 -0.000104355 -4.33042e-06)
(-3.56837e-05 -3.35754e-05 5.09824e-07)
(-7.57739e-05 -5.70952e-05 5.16092e-07)
(-0.000130483 -8.15607e-05 6.40115e-07)
(-0.00019109 -9.82246e-05 6.35523e-07)
(-0.000256343 -0.00010776 4.27266e-07)
(-0.000322374 -0.000110764 -1.07311e-07)
(-0.000388268 -0.000108493 -9.64551e-07)
(-0.000453359 -0.0001018 -2.38198e-06)
(-3.49181e-05 -3.29172e-05 4.19495e-07)
(-7.41304e-05 -5.61254e-05 4.78299e-07)
(-0.00012783 -8.03323e-05 5.75827e-07)
(-0.000187487 -9.69447e-05 5.77885e-07)
(-0.000252332 -0.000106413 4.48623e-07)
(-0.000317497 -0.000109334 1.40156e-07)
(-0.000382534 -0.000107016 -3.43085e-07)
(-0.000446751 -0.000100175 -1.1377e-06)
(-3.45235e-05 -3.25758e-05 1.56993e-07)
(-7.3284e-05 -5.56342e-05 1.85012e-07)
(-0.000126471 -7.97213e-05 2.19803e-07)
(-0.000185682 -9.63266e-05 2.23935e-07)
(-0.000250247 -0.000105772 1.81758e-07)
(-0.000315006 -0.000108641 8.35376e-08)
(-0.000379609 -0.000106299 -7.36915e-08)
(-0.000443383 -9.93942e-05 -3.29056e-07)
(-1.84308e-05 -2.01229e-05 -2.94652e-05)
(-7.20536e-05 -4.12398e-05 -1.9719e-05)
(-0.000139079 -6.44391e-05 -2.01709e-05)
(-0.000214057 -8.02159e-05 -1.74492e-05)
(-0.00029287 -9.03519e-05 -1.67142e-05)
(-0.000371219 -9.52521e-05 -1.82167e-05)
(-0.000447226 -9.62439e-05 -2.26694e-05)
(-0.000519787 -9.51945e-05 -3.05303e-05)
(-7.12374e-06 -7.1599e-06 -9.51266e-06)
(-5.75421e-05 -1.27669e-05 -1.05936e-05)
(-0.000125464 -2.08249e-05 -1.19268e-05)
(-0.000203005 -2.54827e-05 -1.38333e-05)
(-0.000284666 -2.7631e-05 -1.69049e-05)
(-0.000366267 -2.75603e-05 -2.14414e-05)
(-0.000445417 -2.5799e-05 -2.78675e-05)
(-0.000520817 -2.26884e-05 -3.64098e-05)
(-5.55015e-06 4.94331e-06 6.51595e-06)
(-5.51872e-05 8.90487e-06 2.78933e-06)
(-0.000122844 1.71166e-05 -2.71578e-06)
(-0.000200699 2.45687e-05 -9.55287e-06)
(-0.000283025 3.16587e-05 -1.69666e-05)
(-0.000365782 3.81461e-05 -2.48688e-05)
(-0.000446707 4.41619e-05 -3.34437e-05)
(-0.00052506 5.05259e-05 -4.31072e-05)
(-1.33084e-05 2.01584e-05 2.68944e-05)
(-6.47303e-05 3.8587e-05 1.21521e-05)
(-0.000130944 6.2359e-05 4.45769e-06)
(-0.000206983 8.10995e-05 -7.73167e-06)
(-0.000288147 9.64448e-05 -1.96124e-05)
(-0.000370468 0.000108561 -3.10018e-05)
(-0.000451961 0.000118371 -4.146e-05)
(-0.000532562 0.000127279 -5.18983e-05)
(-2.94996e-05 3.95177e-05 1.85642e-05)
(-7.14734e-05 7.1595e-05 1.15918e-05)
(-0.000134996 0.000102906 1.3609e-06)
(-0.000206277 0.000125625 -1.17476e-05)
(-0.000283737 0.00014242 -2.49556e-05)
(-0.000363488 0.000154538 -3.7341e-05)
(-0.000444016 0.000164292 -4.84437e-05)
(-0.000524721 0.000174003 -5.87953e-05)
(-3.06931e-05 4.02344e-05 9.2613e-06)
(-7.35883e-05 7.20188e-05 5.56557e-06)
(-0.000132699 0.000103841 -2.16607e-06)
(-0.000200577 0.000127157 -1.22907e-05)
(-0.00027449 0.000144347 -2.29565e-05)
(-0.00035154 0.000156962 -3.33503e-05)
(-0.000430159 0.000167143 -4.29873e-05)
(-0.000510108 0.000176998 -5.18283e-05)
(-3.09398e-05 4.05993e-05 3.86024e-06)
(-7.29188e-05 7.1051e-05 8.67628e-07)
(-0.000129838 0.000102591 -5.17659e-06)
(-0.000195073 0.00012613 -1.30676e-05)
(-0.000266397 0.000143677 -2.16639e-05)
(-0.000341132 0.000156699 -3.02722e-05)
(-0.000417778 0.000167038 -3.84148e-05)
(-0.000496244 0.000176973 -4.53863e-05)
(-3.05206e-05 4.02215e-05 9.81824e-07)
(-7.1298e-05 6.97114e-05 -1.77196e-06)
(-0.000126436 0.000100811 -6.6835e-06)
(-0.000189684 0.000124274 -1.29205e-05)
(-0.000259053 0.000141899 -1.97788e-05)
(-0.000331986 0.000154986 -2.67456e-05)
(-0.000407071 0.000165329 -3.33462e-05)
(-0.000483734 0.000175219 -3.86111e-05)
(-2.98782e-05 3.95373e-05 -3.64984e-07)
(-6.94503e-05 6.83331e-05 -2.82244e-06)
(-0.000123067 9.89998e-05 -6.73727e-06)
(-0.000184742 0.00012229 -1.15578e-05)
(-0.000252583 0.000139831 -1.68501e-05)
(-0.000324021 0.000152812 -2.22464e-05)
(-0.000397632 0.000162958 -2.72965e-05)
(-0.000472734 0.000172669 -3.11537e-05)
(-2.9265e-05 3.88425e-05 -7.8713e-07)
(-6.78142e-05 6.71291e-05 -2.74701e-06)
(-0.000120213 9.74273e-05 -5.62915e-06)
(-0.00018068 0.000120535 -9.09008e-06)
(-0.000247379 0.00013793 -1.28689e-05)
(-0.000317665 0.000150729 -1.67102e-05)
(-0.000390075 0.000160675 -2.02739e-05)
(-0.00046398 0.000170215 -2.28799e-05)
(-2.88078e-05 3.83067e-05 -6.63404e-07)
(-6.6627e-05 6.62483e-05 -1.92848e-06)
(-0.000118174 9.62778e-05 -3.69894e-06)
(-0.000177813 0.000119243 -5.78989e-06)
(-0.000243743 0.000136511 -8.06139e-06)
(-0.000313224 0.000149146 -1.036e-05)
(-0.000384835 0.00015893 -1.24793e-05)
(-0.000457893 0.000168346 -1.39876e-05)
(-2.85669e-05 3.80197e-05 -2.51102e-07)
(-6.60088e-05 6.57854e-05 -6.88104e-07)
(-0.000117119 9.56735e-05 -1.2854e-06)
(-0.000176336 0.00011856 -1.9853e-06)
(-0.000241878 0.000135755 -2.74342e-06)
(-0.00031096 0.000148302 -3.50977e-06)
(-0.000382148 0.000158001 -4.21246e-06)
(-0.000454748 0.000167346 -4.70616e-06)
(-0.000551874 -8.76358e-05 -3.42187e-05)
(-0.000537576 -8.1015e-05 -2.72628e-05)
(-0.000522075 -7.5447e-05 -2.11906e-05)
(-0.000507274 -7.13666e-05 -1.58736e-05)
(-0.000494315 -6.83681e-05 -1.13612e-05)
(-0.000483982 -6.63069e-05 -7.54794e-06)
(-0.00047682 -6.50336e-05 -4.28856e-06)
(-0.000473166 -6.44352e-05 -1.38716e-06)
(-0.000553333 -1.46792e-05 -3.90355e-05)
(-0.000539216 -9.36398e-06 -3.23506e-05)
(-0.000524117 -5.76886e-06 -2.65217e-05)
(-0.000509635 -3.4752e-06 -2.0999e-05)
(-0.000496848 -2.09157e-06 -1.58355e-05)
(-0.000486594 -1.33224e-06 -1.10178e-05)
(-0.000479456 -9.63383e-07 -6.48533e-06)
(-0.000475799 -8.20535e-07 -2.13946e-06)
(-0.000557448 5.9144e-05 -4.44142e-05)
(-0.000542933 6.27347e-05 -3.75304e-05)
(-0.000528257 6.46145e-05 -3.15102e-05)
(-0.000514298 6.51521e-05 -2.55874e-05)
(-0.000501875 6.49018e-05 -1.97885e-05)
(-0.000491866 6.43187e-05 -1.40846e-05)
(-0.000484883 6.3749e-05 -8.43352e-06)
(-0.000481297 6.34111e-05 -2.80782e-06)
(-0.000564928 0.000135273 -5.34461e-05)
(-0.000549874 0.000137834 -4.60906e-05)
(-0.000535552 0.000138563 -3.92436e-05)
(-0.000522124 0.000137518 -3.24423e-05)
(-0.000510148 0.000135672 -2.55702e-05)
(-0.000500528 0.000133756 -1.85061e-05)
(-0.00049383 0.000132257 -1.12149e-05)
(-0.00049038 0.000131442 -3.75721e-06)
)
;
    }
    symmetry
    {
        type            symmetryPlane;
    }
    bottom
    {
        type            calculated;
        value           uniform (0 0 0);
    }
}


// ************************************************************************* //
