/*--------------------------------*- C++ -*----------------------------------*\
| =========                 |                                                 |
| \\      /  F ield         | foam-extend: Open Source CFD                    |
|  \\    /   O peration     | Version:     3.1                                |
|   \\  /    A nd           | Web:         http://www.extend-project.de       |
|    \\/     M anipulation  |                                                 |
\*---------------------------------------------------------------------------*/
FoamFile
{
    version     2.0;
    format      ascii;
    class       volVectorField;
    location    "1.3";
    object      cellMotionU;
}
// * * * * * * * * * * * * * * * * * * * * * * * * * * * * * * * * * * * * * //

dimensions      [0 1 -1 0 0 0 0];

internalField   nonuniform List<vector> 
14592
(
(1.67247e-10 -6.19263e-11 1.02129e-12)
(4.86191e-10 -1.80261e-10 2.84778e-12)
(7.82115e-10 -2.90526e-10 4.16312e-12)
(1.06829e-09 -3.96965e-10 4.74689e-12)
(1.35773e-09 -5.02468e-10 4.24708e-12)
(1.6643e-09 -6.08314e-10 2.10412e-12)
(2.00397e-09 -7.13545e-10 -2.53777e-12)
(2.39638e-09 -8.14189e-10 -1.09349e-11)
(2.86639e-09 -9.01117e-10 -2.48057e-11)
(3.44571e-09 -9.57205e-10 -4.62786e-11)
(4.17378e-09 -9.52026e-10 -7.74123e-11)
(5.09633e-09 -8.33192e-10 -1.1863e-10)
(6.25864e-09 -5.13e-10 -1.64507e-10)
(7.68657e-09 1.51141e-10 -1.9341e-10)
(9.33004e-09 1.35507e-09 -1.46904e-10)
(1.08185e-08 3.02625e-09 5.8026e-11)
(4.95499e-10 -1.83171e-10 3.15455e-12)
(1.44024e-09 -5.33399e-10 8.82864e-12)
(2.31599e-09 -8.59953e-10 1.30269e-11)
(3.16128e-09 -1.17569e-09 1.51391e-11)
(4.01366e-09 -1.48943e-09 1.41783e-11)
(4.91275e-09 -1.80532e-09 8.55735e-12)
(5.90398e-09 -2.12173e-09 -4.18819e-12)
(7.04283e-09 -2.4287e-09 -2.77151e-11)
(8.39931e-09 -2.703e-09 -6.71709e-11)
(1.00626e-08 -2.90129e-09 -1.29306e-10)
(1.21433e-08 -2.94671e-09 -2.21761e-10)
(1.4769e-08 -2.7117e-09 -3.50539e-10)
(1.8061e-08 -1.99336e-09 -5.13382e-10)
(2.20649e-08 -4.97661e-10 -6.86656e-10)
(2.65509e-08 2.08375e-09 -8.07547e-10)
(3.03276e-08 5.31517e-09 -7.86452e-10)
(8.09768e-10 -2.98297e-10 5.56415e-12)
(2.35256e-09 -8.68723e-10 1.56763e-11)
(3.77931e-09 -1.40127e-09 2.34827e-11)
(5.15088e-09 -1.9174e-09 2.81442e-11)
(6.52578e-09 -2.43235e-09 2.82302e-11)
(7.96467e-09 -2.9544e-09 2.13758e-11)
(9.53585e-09 -3.48413e-09 3.8199e-12)
(1.13214e-08 -4.01009e-09 -3.01189e-11)
(1.34239e-08 -4.50555e-09 -8.88139e-11)
(1.59723e-08 -4.91782e-09 -1.83969e-10)
(1.91256e-08 -5.15769e-09 -3.3108e-10)
(2.30656e-08 -5.08179e-09 -5.48833e-10)
(2.79616e-08 -4.48099e-09 -8.5717e-10)
(3.38606e-08 -3.09862e-09 -1.27528e-09)
(4.03737e-08 -7.79751e-10 -1.8228e-09)
(4.56855e-08 1.82096e-09 -2.44428e-09)
(1.10233e-09 -4.0334e-10 8.38202e-12)
(3.20046e-09 -1.17503e-09 2.37961e-11)
(5.13437e-09 -1.89665e-09 3.6285e-11)
(6.983e-09 -2.59825e-09 4.50076e-11)
(8.8208e-09 -3.30192e-09 4.83834e-11)
(1.07229e-08 -4.02185e-09 4.36545e-11)
(1.27708e-08 -4.76286e-09 2.63163e-11)
(1.5061e-08 -5.51896e-09 -1.0669e-11)
(1.77107e-08 -6.26918e-09 -7.80256e-11)
(2.08642e-08 -6.97141e-09 -1.91756e-10)
(2.4697e-08 -7.55451e-09 -3.7511e-10)
(2.94079e-08 -7.91103e-09 -6.61144e-10)
(3.51836e-08 -7.89508e-09 -1.0959e-09)
(4.20879e-08 -7.35437e-09 -1.74151e-09)
(4.97166e-08 -6.24401e-09 -2.66499e-09)
(5.60399e-08 -4.99027e-09 -3.73741e-09)
(1.36727e-09 -4.94645e-10 1.16669e-11)
(3.96669e-09 -1.44168e-09 3.33844e-11)
(6.35314e-09 -2.32887e-09 5.1802e-11)
(8.61868e-09 -3.19461e-09 6.63481e-11)
(1.08483e-08 -4.0681e-09 7.564e-11)
(1.31245e-08 -4.97047e-09 7.70184e-11)
(1.55303e-08 -5.91179e-09 6.59031e-11)
(1.81645e-08 -6.89634e-09 3.49557e-11)
(2.11404e-08 -7.91563e-09 -2.73769e-11)
(2.4591e-08 -8.94906e-09 -1.39225e-10)
(2.86727e-08 -9.9617e-09 -3.28609e-10)
(3.35585e-08 -1.09082e-08 -6.38248e-10)
(3.94029e-08 -1.17299e-08 -1.1339e-09)
(4.62698e-08 -1.23821e-08 -1.91094e-09)
(5.38328e-08 -1.28619e-08 -3.07242e-09)
(6.02263e-08 -1.31989e-08 -4.44573e-09)
(1.60055e-09 -5.68793e-10 1.54091e-11)
(4.63962e-09 -1.6585e-09 4.43998e-11)
(7.41737e-09 -2.68152e-09 6.99633e-11)
(1.00341e-08 -3.68355e-09 9.20638e-11)
(1.25807e-08 -4.70101e-09 1.09854e-10)
(1.51325e-08 -5.75777e-09 1.21152e-10)
(1.77733e-08 -6.87438e-09 1.2214e-10)
(2.0595e-08 -8.0644e-09 1.06455e-10)
(2.36897e-08 -9.33468e-09 6.35583e-11)
(2.71575e-08 -1.0687e-08 -2.35416e-11)
(3.11082e-08 -1.21247e-08 -1.82567e-10)
(3.56389e-08 -1.36596e-08 -4.57179e-10)
(4.08058e-08 -1.53122e-08 -9.18806e-10)
(4.66032e-08 -1.71325e-08 -1.67927e-09)
(5.27839e-08 -1.91382e-08 -2.87375e-09)
(5.80544e-08 -2.09625e-08 -4.35503e-09)
(1.80004e-09 -6.22761e-10 1.95141e-11)
(5.21337e-09 -1.81676e-09 5.65679e-11)
(8.31853e-09 -2.93996e-09 9.02752e-11)
(1.122e-08 -4.04432e-09 1.21357e-10)
(1.40018e-08 -5.16889e-09 1.49685e-10)
(1.67373e-08 -6.3441e-09 1.74028e-10)
(1.95094e-08 -7.59857e-09 1.92067e-10)
(2.23893e-08 -8.95317e-09 1.99266e-10)
(2.54415e-08 -1.0425e-08 1.87874e-10)
(2.87212e-08 -1.20312e-08 1.45084e-10)
(3.22742e-08 -1.3801e-08 4.92508e-11)
(3.60938e-08 -1.57742e-08 -1.34605e-10)
(4.00935e-08 -1.80188e-08 -4.65684e-10)
(4.40921e-08 -2.06547e-08 -1.04382e-09)
(4.7753e-08 -2.37715e-08 -2.00948e-09)
(5.04631e-08 -2.68291e-08 -3.29781e-09)
(1.96539e-09 -6.54138e-10 2.38383e-11)
(5.68735e-09 -1.9094e-09 6.94266e-11)
(9.05651e-09 -3.09216e-09 1.11905e-10)
(1.21761e-08 -4.25855e-09 1.52844e-10)
(1.51243e-08 -5.45002e-09 1.93023e-10)
(1.79742e-08 -6.70285e-09 2.32574e-10)
(2.07948e-08 -8.04828e-09 2.70835e-10)
(2.36383e-08 -9.51138e-09 3.05703e-10)
(2.65413e-08 -1.11134e-08 3.33147e-10)
(2.95171e-08 -1.28746e-08 3.46213e-10)
(3.25506e-08 -1.48256e-08 3.33278e-10)
(3.5549e-08 -1.69978e-08 2.74096e-10)
(3.83065e-08 -1.94428e-08 1.359e-10)
(4.04608e-08 -2.22653e-08 -1.40679e-10)
(4.14298e-08 -2.56351e-08 -6.61923e-10)
(4.06937e-08 -2.94172e-08 -1.48764e-09)
(1.6861e-10 -6.48509e-11 9.49894e-13)
(4.9014e-10 -1.8887e-10 2.63862e-12)
(7.88481e-10 -3.04662e-10 3.82319e-12)
(1.0771e-09 -4.16887e-10 4.27427e-12)
(1.3692e-09 -5.28683e-10 3.63228e-12)
(1.67879e-09 -6.41432e-10 1.32541e-12)
(2.022e-09 -7.54172e-10 -3.527e-12)
(2.41843e-09 -8.62378e-10 -1.22248e-11)
(2.8927e-09 -9.55967e-10 -2.65907e-11)
(3.47562e-09 -1.01563e-09 -4.89699e-11)
(4.20426e-09 -1.007e-09 -8.19043e-11)
(5.11894e-09 -8.71706e-10 -1.26954e-10)
(6.25289e-09 -5.14756e-10 -1.81569e-10)
(7.60631e-09 2.04652e-10 -2.32372e-10)
(9.08213e-09 1.432e-09 -2.46119e-10)
(1.03004e-08 2.95633e-09 -1.89286e-10)
(4.99477e-10 -1.91853e-10 2.93927e-12)
(1.45173e-09 -5.58826e-10 8.20135e-12)
(2.33449e-09 -9.01852e-10 1.20041e-11)
(3.1868e-09 -1.2348e-09 1.37195e-11)
(4.04671e-09 -1.56728e-09 1.23378e-11)
(4.95431e-09 -1.90401e-09 6.23736e-12)
(5.95535e-09 -2.24325e-09 -7.10117e-12)
(7.10521e-09 -2.57386e-09 -3.14444e-11)
(8.47311e-09 -2.87025e-09 -7.21903e-11)
(1.01455e-08 -3.0832e-09 -1.36579e-10)
(1.22262e-08 -3.12657e-09 -2.33334e-10)
(1.48267e-08 -2.85717e-09 -3.70599e-10)
(1.80321e-08 -2.05478e-09 -5.50274e-10)
(2.18095e-08 -4.29097e-10 -7.55875e-10)
(2.57864e-08 2.22008e-09 -9.34518e-10)
(2.87577e-08 5.19708e-09 -1.00111e-09)
(8.16061e-10 -3.12406e-10 5.20294e-12)
(2.37072e-09 -9.1027e-10 1.46167e-11)
(3.80838e-09 -1.46972e-09 2.17602e-11)
(5.19069e-09 -2.01408e-09 2.57595e-11)
(6.57684e-09 -2.56005e-09 2.51523e-11)
(8.02814e-09 -3.11711e-09 1.75319e-11)
(9.6132e-09 -3.68556e-09 -9.01421e-13)
(1.14138e-08 -4.25379e-09 -3.59741e-11)
(1.35307e-08 -4.79126e-09 -9.62596e-11)
(1.60886e-08 -5.23977e-09 -1.93974e-10)
(1.92354e-08 -5.49785e-09 -3.45461e-10)
(2.31279e-08 -5.40422e-09 -5.70645e-10)
(2.78785e-08 -4.72806e-09 -8.89175e-10)
(3.34115e-08 -3.21152e-09 -1.30887e-09)
(3.91181e-08 -7.91966e-10 -1.79468e-09)
(4.31802e-08 1.66209e-09 -2.18545e-09)
(1.11048e-09 -4.22481e-10 7.86623e-12)
(3.22385e-09 -1.23135e-09 2.22869e-11)
(5.17153e-09 -1.9895e-09 3.38343e-11)
(7.03326e-09 -2.72964e-09 4.16221e-11)
(8.88421e-09 -3.47616e-09 4.40318e-11)
(1.08001e-08 -4.24476e-09 3.82876e-11)
(1.28631e-08 -5.04164e-09 1.98652e-11)
(1.51679e-08 -5.86031e-09 -1.83151e-11)
(1.78294e-08 -6.6783e-09 -8.70655e-11)
(2.09854e-08 -7.44839e-09 -2.02516e-10)
(2.47975e-08 -8.09101e-09 -3.88073e-10)
(2.94329e-08 -8.48189e-09 -6.76175e-10)
(3.50113e-08 -8.45408e-09 -1.10741e-09)
(4.14515e-08 -7.83812e-09 -1.71724e-09)
(4.80891e-08 -6.61388e-09 -2.47931e-09)
(5.28846e-08 -5.31606e-09 -3.12898e-09)
(1.37671e-09 -5.18162e-10 1.09913e-11)
(3.99363e-09 -1.51083e-09 3.14062e-11)
(6.39545e-09 -2.44311e-09 4.85867e-11)
(8.67483e-09 -3.35661e-09 6.1909e-11)
(1.09172e-08 -4.28363e-09 6.99461e-11)
(1.32054e-08 -5.24722e-09 7.00542e-11)
(1.56255e-08 -6.2618e-09 5.77344e-11)
(1.82695e-08 -7.32999e-09 2.56891e-11)
(2.12483e-08 -8.44521e-09 -3.74624e-11)
(2.46861e-08 -9.58483e-09 -1.49531e-10)
(2.87265e-08 -1.07128e-08 -3.37482e-10)
(3.35031e-08 -1.17704e-08 -6.41769e-10)
(3.91047e-08 -1.26823e-08 -1.1188e-09)
(4.54543e-08 -1.33678e-08 -1.82875e-09)
(5.19733e-08 -1.37571e-08 -2.76275e-09)
(5.67778e-08 -1.38377e-08 -3.59863e-09)
(1.6107e-09 -5.95833e-10 1.45652e-11)
(4.66841e-09 -1.73826e-09 4.19258e-11)
(7.46185e-09 -2.8133e-09 6.59433e-11)
(1.00914e-08 -3.87076e-09 8.65037e-11)
(1.26473e-08 -4.9501e-09 1.02726e-10)
(1.5213e-08 -6.08184e-09 1.12569e-10)
(1.78636e-08 -7.28621e-09 1.12223e-10)
(2.06853e-08 -8.57951e-09 9.55398e-11)
(2.37685e-08 -9.97231e-09 5.25317e-11)
(2.72066e-08 -1.14713e-08 -3.30137e-11)
(3.10873e-08 -1.30815e-08 -1.86908e-10)
(3.54674e-08 -1.48095e-08 -4.48535e-10)
(4.03461e-08 -1.66698e-08 -8.78044e-10)
(4.55966e-08 -1.86679e-08 -1.54955e-09)
(5.07729e-08 -2.06789e-08 -2.48424e-09)
(5.45808e-08 -2.21289e-08 -3.38323e-09)
(1.81038e-09 -6.52433e-10 1.84965e-11)
(5.24248e-09 -1.9043e-09 5.35824e-11)
(8.3626e-09 -3.08475e-09 8.5415e-11)
(1.12741e-08 -4.25001e-09 1.14612e-10)
(1.40668e-08 -5.44526e-09 1.41101e-10)
(1.68145e-08 -6.70549e-09 1.63763e-10)
(1.95855e-08 -8.05875e-09 1.80166e-10)
(2.24557e-08 -9.53314e-09 1.86358e-10)
(2.54824e-08 -1.11507e-08 1.75287e-10)
(2.87107e-08 -1.29354e-08 1.35533e-10)
(3.21603e-08 -1.49222e-08 4.78701e-11)
(3.57904e-08 -1.71575e-08 -1.17111e-10)
(3.94561e-08 -1.97118e-08 -4.06215e-10)
(4.28773e-08 -2.26729e-08 -8.83461e-10)
(4.55921e-08 -2.5968e-08 -1.58668e-09)
(4.7067e-08 -2.87154e-08 -2.31153e-09)
(1.97551e-09 -6.85424e-10 2.26427e-11)
(5.71556e-09 -2.00153e-09 6.59284e-11)
(9.0986e-09 -3.24498e-09 1.06191e-10)
(1.22265e-08 -4.47595e-09 1.44919e-10)
(1.5185e-08 -5.74397e-09 1.82956e-10)
(1.80388e-08 -7.0869e-09 2.20354e-10)
(2.08506e-08 -8.53883e-09 2.56634e-10)
(2.36745e-08 -1.01328e-08 2.90234e-10)
(2.65382e-08 -1.18955e-08 3.17975e-10)
(2.94425e-08 -1.38546e-08 3.34541e-10)
(3.2349e-08 -1.60496e-08 3.3118e-10)
(3.51301e-08 -1.85208e-08 2.9352e-10)
(3.75242e-08 -2.13276e-08 2.00738e-10)
(3.90844e-08 -2.45595e-08 2.38788e-11)
(3.91445e-08 -2.82659e-08 -2.60202e-10)
(3.73207e-08 -3.19612e-08 -5.77699e-10)
(1.69582e-10 -6.75899e-11 8.53382e-13)
(4.92919e-10 -1.96922e-10 2.36521e-12)
(7.92851e-10 -3.17965e-10 3.40676e-12)
(1.08288e-09 -4.35696e-10 3.76245e-12)
(1.37618e-09 -5.53553e-10 3.09499e-12)
(1.68666e-09 -6.73115e-10 8.73644e-13)
(2.03012e-09 -7.93425e-10 -3.71195e-12)
(2.42549e-09 -9.09835e-10 -1.18546e-11)
(2.89597e-09 -1.0117e-09 -2.52126e-11)
(3.46969e-09 -1.07876e-09 -4.59161e-11)
(4.17873e-09 -1.07546e-09 -7.63054e-11)
(5.05436e-09 -9.42796e-10 -1.18048e-10)
(6.11484e-09 -5.89574e-10 -1.7012e-10)
(7.33998e-09 1.08124e-10 -2.25473e-10)
(8.62197e-09 1.25482e-09 -2.69091e-10)
(9.6449e-09 2.61949e-09 -2.88017e-10)
(5.02299e-10 -1.99941e-10 2.64542e-12)
(1.4598e-09 -5.82719e-10 7.36316e-12)
(2.34714e-09 -9.4126e-10 1.07261e-11)
(3.20346e-09 -1.29058e-09 1.2137e-11)
(4.06674e-09 -1.64117e-09 1.06534e-11)
(4.9767e-09 -1.99829e-09 4.77929e-12)
(5.97818e-09 -2.36043e-09 -7.79439e-12)
(7.12458e-09 -2.71622e-09 -3.0494e-11)
(8.4811e-09 -3.03867e-09 -6.81646e-11)
(1.01266e-08 -3.27642e-09 -1.27236e-10)
(1.21505e-08 -3.33968e-09 -2.15266e-10)
(1.46387e-08 -3.08349e-09 -3.39057e-10)
(1.76331e-08 -2.29515e-09 -4.99791e-10)
(2.10425e-08 -7.21165e-10 -6.84012e-10)
(2.44672e-08 1.75321e-09 -8.53484e-10)
(2.68979e-08 4.40455e-09 -9.50567e-10)
(8.20519e-10 -3.25643e-10 4.69316e-12)
(2.38341e-09 -9.49196e-10 1.3166e-11)
(3.82817e-09 -1.53404e-09 1.95303e-11)
(5.21649e-09 -2.10527e-09 2.2962e-11)
(6.60742e-09 -2.6811e-09 2.21051e-11)
(8.06166e-09 -3.27203e-09 1.4759e-11)
(9.64637e-09 -3.87937e-09 -2.5328e-12)
(1.14402e-08 -4.49099e-09 -3.49602e-11)
(1.35377e-08 -5.07574e-09 -9.00863e-11)
(1.6052e-08 -5.57208e-09 -1.78337e-10)
(1.91096e-08 -5.8746e-09 -3.13055e-10)
(2.28285e-08 -5.81775e-09 -5.08783e-10)
(2.72579e-08 -5.17523e-09 -7.75403e-10)
(3.22362e-08 -3.71952e-09 -1.1037e-09)
(3.71208e-08 -1.46001e-09 -1.4386e-09)
(4.03998e-08 7.19952e-10 -1.65212e-09)
(1.1162e-09 -4.40365e-10 7.11886e-12)
(3.24008e-09 -1.28406e-09 2.01478e-11)
(5.19656e-09 -2.07669e-09 3.05154e-11)
(7.06536e-09 -2.85349e-09 3.73897e-11)
(8.92134e-09 -3.64093e-09 3.92881e-11)
(1.08393e-08 -4.4567e-09 3.36966e-11)
(1.28995e-08 -5.30821e-09 1.65963e-11)
(1.51928e-08 -6.19013e-09 -1.82125e-11)
(1.78262e-08 -7.07944e-09 -7.9945e-11)
(2.09233e-08 -7.92764e-09 -1.8188e-10)
(2.46195e-08 -8.65037e-09 -3.42103e-10)
(2.90372e-08 -9.11797e-09 -5.82942e-10)
(3.42227e-08 -9.1593e-09 -9.25264e-10)
(3.9997e-08 -8.61136e-09 -1.36929e-09)
(4.56584e-08 -7.48244e-09 -1.8486e-09)
(4.95255e-08 -6.3222e-09 -2.16812e-09)
(1.38327e-09 -5.40101e-10 9.97761e-12)
(4.01211e-09 -1.57563e-09 2.84858e-11)
(6.42353e-09 -2.55033e-09 4.40153e-11)
(8.70996e-09 -3.50917e-09 5.59769e-11)
(1.09562e-08 -4.48712e-09 6.3094e-11)
(1.32439e-08 -5.5101e-09 6.30129e-11)
(1.56562e-08 -6.59413e-09 5.18569e-11)
(1.82826e-08 -7.74537e-09 2.34472e-11)
(2.12241e-08 -8.95795e-09 -3.15377e-11)
(2.45906e-08 -1.02105e-08 -1.26989e-10)
(2.84949e-08 -1.1463e-08 -2.82659e-10)
(3.30267e-08 -1.26508e-08 -5.24943e-10)
(3.82046e-08 -1.36869e-08 -8.82961e-10)
(4.38594e-08 -1.44677e-08 -1.36918e-09)
(4.93841e-08 -1.48958e-08 -1.92379e-09)
(5.32558e-08 -1.49685e-08 -2.32251e-09)
(1.61767e-09 -6.21138e-10 1.32537e-11)
(4.68785e-09 -1.81284e-09 3.81424e-11)
(7.49083e-09 -2.93696e-09 5.99556e-11)
(1.01264e-08 -4.04691e-09 7.86063e-11)
(1.26838e-08 -5.1858e-09 9.33319e-11)
(1.52448e-08 -6.38726e-09 1.02426e-10)
(1.78866e-08 -7.67671e-09 1.02828e-10)
(2.06854e-08 -9.07216e-09 8.94882e-11)
(2.37227e-08 -1.05877e-08 5.47287e-11)
(2.70744e-08 -1.22317e-08 -1.32188e-11)
(3.08031e-08 -1.40114e-08 -1.3118e-10)
(3.49246e-08 -1.59289e-08 -3.22741e-10)
(3.93796e-08 -1.79842e-08 -6.16559e-10)
(4.39705e-08 -2.01401e-08 -1.03233e-09)
(4.82481e-08 -2.21953e-08 -1.53319e-09)
(5.12487e-08 -2.3557e-08 -1.92826e-09)
(1.81736e-09 -6.80139e-10 1.6869e-11)
(5.26177e-09 -1.98611e-09 4.88614e-11)
(8.3907e-09 -3.22051e-09 7.78797e-11)
(1.13066e-08 -4.44371e-09 1.04525e-10)
(1.40984e-08 -5.70554e-09 1.28799e-10)
(1.68436e-08 -7.04614e-09 1.5001e-10)
(1.96026e-08 -8.49672e-09 1.66283e-10)
(2.24392e-08 -1.00867e-08 1.74823e-10)
(2.54065e-08 -1.18449e-08 1.71027e-10)
(2.85384e-08 -1.38028e-08 1.47847e-10)
(3.18284e-08 -1.59987e-08 9.5043e-11)
(3.51952e-08 -1.84753e-08 -3.22962e-13)
(3.84544e-08 -2.12959e-08 -1.53783e-10)
(4.12801e-08 -2.45047e-08 -3.74363e-10)
(4.3241e-08 -2.79356e-08 -6.37942e-10)
(4.41036e-08 -3.06462e-08 -8.38319e-10)
(1.98218e-09 -7.14526e-10 2.0687e-11)
(5.73387e-09 -2.08771e-09 6.02239e-11)
(9.12467e-09 -3.38807e-09 9.70257e-11)
(1.22557e-08 -4.68093e-09 1.32479e-10)
(1.52131e-08 -6.02057e-09 1.67532e-10)
(1.80598e-08 -7.44903e-09 2.02494e-10)
(2.08503e-08 -9.00376e-09 2.37275e-10)
(2.36351e-08 -1.07235e-08 2.7159e-10)
(2.64337e-08 -1.26408e-08 3.04444e-10)
(2.92352e-08 -1.47909e-08 3.34695e-10)
(3.19762e-08 -1.72178e-08 3.60962e-10)
(3.45017e-08 -1.99641e-08 3.83824e-10)
(3.65175e-08 -2.30845e-08 4.09195e-10)
(3.75493e-08 -2.66381e-08 4.55767e-10)
(3.69729e-08 -3.06029e-08 5.63231e-10)
(3.46536e-08 -3.44242e-08 7.64122e-10)
(1.7023e-10 -7.00563e-11 7.34613e-13)
(4.94735e-10 -2.04201e-10 2.03334e-12)
(7.95577e-10 -3.29982e-10 2.92233e-12)
(1.08618e-09 -4.52748e-10 3.21276e-12)
(1.37959e-09 -5.76209e-10 2.61644e-12)
(1.68939e-09 -7.02146e-10 6.86372e-13)
(2.03081e-09 -8.29795e-10 -3.25234e-12)
(2.42171e-09 -9.54511e-10 -1.01692e-11)
(2.88345e-09 -1.06563e-09 -2.13842e-11)
(3.44093e-09 -1.14281e-09 -3.85374e-11)
(4.12098e-09 -1.15075e-09 -6.33613e-11)
(4.94684e-09 -1.03231e-09 -9.7062e-11)
(5.92626e-09 -7.0205e-10 -1.39179e-10)
(7.02997e-09 -4.93177e-11 -1.86404e-10)
(8.15601e-09 1.01203e-09 -2.33244e-10)
(9.04027e-09 2.26443e-09 -2.73945e-10)
(5.04173e-10 -2.07252e-10 2.27923e-12)
(1.46504e-09 -6.04201e-10 6.34139e-12)
(2.35498e-09 -9.7683e-10 9.21903e-12)
(3.21291e-09 -1.3411e-09 1.03981e-11)
(4.07635e-09 -1.70834e-09 9.0761e-12)
(4.98417e-09 -2.08456e-09 3.99585e-12)
(5.97954e-09 -2.46877e-09 -6.74589e-12)
(7.11283e-09 -2.84976e-09 -2.59067e-11)
(8.44399e-09 -3.20064e-09 -5.72839e-11)
(1.00427e-08 -3.46968e-09 -1.0569e-10)
(1.19838e-08 -3.56791e-09 -1.76437e-10)
(1.43303e-08 -3.35417e-09 -2.73673e-10)
(1.70948e-08 -2.62868e-09 -3.96931e-10)
(2.01628e-08 -1.1663e-09 -5.36029e-10)
(2.316e-08 1.11311e-09 -6.67558e-10)
(2.52396e-08 3.53138e-09 -7.57085e-10)
(8.23446e-10 -3.37507e-10 4.05379e-12)
(2.39157e-09 -9.84234e-10 1.13634e-11)
(3.84027e-09 -1.59204e-09 1.68384e-11)
(5.23086e-09 -2.18774e-09 1.97695e-11)
(6.62166e-09 -2.79097e-09 1.90139e-11)
(8.07198e-09 -3.41361e-09 1.27426e-11)
(9.64644e-09 -4.05772e-09 -1.83455e-12)
(1.14191e-08 -4.71228e-09 -2.88333e-11)
(1.34766e-08 -5.346e-09 -7.3976e-11)
(1.59186e-08 -5.89771e-09 -1.4476e-10)
(1.88496e-08 -6.26204e-09 -2.49883e-10)
(2.23553e-08 -6.27684e-09 -3.97115e-10)
(2.64431e-08 -5.72675e-09 -5.87831e-10)
(3.09218e-08 -4.40829e-09 -8.06679e-10)
(3.5197e-08 -2.35538e-09 -1.00844e-09)
(3.80053e-08 -3.94142e-10 -1.11892e-09)
(1.11993e-09 -4.56438e-10 6.16151e-12)
(3.25039e-09 -1.3315e-09 1.74335e-11)
(5.21164e-09 -2.15527e-09 2.63974e-11)
(7.08281e-09 -2.96534e-09 3.23492e-11)
(8.93776e-09 -3.79036e-09 3.40572e-11)
(1.08495e-08 -4.64982e-09 2.94891e-11)
(1.28952e-08 -5.55294e-09 1.5465e-11)
(1.51601e-08 -6.49581e-09 -1.27389e-11)
(1.77414e-08 -7.45651e-09 -6.18204e-11)
(2.07469e-08 -8.38693e-09 -1.40734e-10)
(2.42868e-08 -9.20292e-09 -2.6039e-10)
(2.84469e-08 -9.77523e-09 -4.31591e-10)
(3.32284e-08 -9.93606e-09 -6.58822e-10)
(3.84226e-08 -9.53019e-09 -9.26347e-10)
(4.33882e-08 -8.57188e-09 -1.17706e-09)
(4.67248e-08 -7.57068e-09 -1.31019e-09)
(1.38749e-09 -5.59843e-10 8.65388e-12)
(4.02367e-09 -1.63381e-09 2.47114e-11)
(6.44008e-09 -2.64686e-09 3.81907e-11)
(8.72835e-09 -3.64682e-09 4.8622e-11)
(1.09721e-08 -4.67156e-09 5.49804e-11)
(1.32507e-08 -5.74926e-09 5.54519e-11)
(1.56442e-08 -6.89902e-09 4.70829e-11)
(1.82358e-08 -8.12896e-09 2.54475e-11)
(2.1116e-08 -9.4356e-09 -1.57765e-11)
(2.43787e-08 -1.07994e-08 -8.51085e-11)
(2.81111e-08 -1.21802e-08 -1.9306e-10)
(3.23686e-08 -1.35118e-08 -3.50695e-10)
(3.71306e-08 -1.47017e-08 -5.6421e-10)
(4.22074e-08 -1.56352e-08 -8.21952e-10)
(4.70602e-08 -1.61976e-08 -1.07252e-09)
(5.04357e-08 -1.63641e-08 -1.21601e-09)
(1.62206e-09 -6.43803e-10 1.15196e-11)
(4.69976e-09 -1.87985e-09 3.31532e-11)
(7.5074e-09 -3.04816e-09 5.21473e-11)
(1.01438e-08 -4.20584e-09 6.84708e-11)
(1.26967e-08 -5.39921e-09 8.15976e-11)
(1.52458e-08 -6.6654e-09 9.03165e-11)
(1.78654e-08 -8.03334e-09 9.25537e-11)
(2.06244e-08 -9.52412e-09 8.5002e-11)
(2.35937e-08 -1.11547e-08 6.31888e-11)
(2.68346e-08 -1.2937e-08 2.1161e-11)
(3.03871e-08 -1.48805e-08 -4.76049e-11)
(3.42394e-08 -1.69846e-08 -1.49491e-10)
(3.83064e-08 -1.924e-08 -2.86465e-10)
(4.23876e-08 -2.1585e-08 -4.48122e-10)
(4.61145e-08 -2.3781e-08 -6.01365e-10)
(4.8752e-08 -2.52114e-08 -6.92415e-10)
(1.82166e-09 -7.04989e-10 1.46823e-11)
(5.27328e-09 -2.05957e-09 4.2538e-11)
(8.40614e-09 -3.34257e-09 6.78545e-11)
(1.13215e-08 -4.61853e-09 9.12165e-11)
(1.4107e-08 -5.94079e-09 1.12816e-10)
(1.68385e-08 -7.35433e-09 1.32354e-10)
(1.95728e-08 -8.89307e-09 1.48895e-10)
(2.23644e-08 -1.05908e-08 1.61151e-10)
(2.52586e-08 -1.24804e-08 1.676e-10)
(2.82769e-08 -1.46006e-08 1.66644e-10)
(3.13952e-08 -1.6991e-08 1.58394e-10)
(3.45108e-08 -1.96937e-08 1.4632e-10)
(3.74292e-08 -2.27656e-08 1.41621e-10)
(3.98426e-08 -2.62262e-08 1.67496e-10)
(4.14171e-08 -2.98679e-08 2.51833e-10)
(4.21062e-08 -3.27085e-08 3.71458e-10)
(1.98619e-09 -7.40685e-10 1.80228e-11)
(5.74438e-09 -2.16493e-09 5.24961e-11)
(9.13821e-09 -3.51671e-09 8.46354e-11)
(1.22675e-08 -4.86529e-09 1.15763e-10)
(1.52169e-08 -6.2696e-09 1.46862e-10)
(1.80483e-08 -7.77567e-09 1.78616e-10)
(2.08104e-08 -9.42534e-09 2.11508e-10)
(2.35464e-08 -1.12607e-08 2.46645e-10)
(2.62681e-08 -1.33197e-08 2.8561e-10)
(2.89591e-08 -1.56479e-08 3.31999e-10)
(3.15383e-08 -1.82903e-08 3.92707e-10)
(3.38351e-08 -2.12885e-08 4.82478e-10)
(3.55588e-08 -2.46981e-08 6.29366e-10)
(3.62636e-08 -2.8562e-08 8.80175e-10)
(3.54226e-08 -3.2831e-08 1.28725e-09)
(3.30541e-08 -3.69095e-08 1.80081e-09)
(1.70626e-10 -7.21574e-11 5.96061e-13)
(4.95805e-10 -2.10385e-10 1.6504e-12)
(7.9706e-10 -3.40239e-10 2.37177e-12)
(1.08769e-09 -4.67346e-10 2.61179e-12)
(1.3805e-09 -5.95682e-10 2.14528e-12)
(1.68872e-09 -7.27284e-10 6.29117e-13)
(2.02691e-09 -8.61564e-10 -2.44014e-12)
(2.41184e-09 -9.94098e-10 -7.76873e-12)
(2.86304e-09 -1.11441e-09 -1.62783e-11)
(3.40259e-09 -1.20253e-09 -2.90578e-11)
(4.05318e-09 -1.22405e-09 -4.71782e-11)
(4.8327e-09 -1.12389e-09 -7.13071e-11)
(5.74344e-09 -8.21007e-10 -1.01212e-10)
(6.75429e-09 -2.11787e-10 -1.35698e-10)
(7.77222e-09 7.84451e-10 -1.73869e-10)
(8.56551e-09 1.96609e-09 -2.13135e-10)
(5.05304e-10 -2.13444e-10 1.85177e-12)
(1.4681e-09 -6.22525e-10 5.14941e-12)
(2.35918e-09 -1.00718e-09 7.49065e-12)
(3.21709e-09 -1.38432e-09 8.46664e-12)
(4.07871e-09 -1.76608e-09 7.45452e-12)
(4.98183e-09 -2.15916e-09 3.4999e-12)
(5.96774e-09 -2.56321e-09 -4.8064e-12)
(7.08368e-09 -2.96771e-09 -1.9447e-11)
(8.38448e-09 -3.34631e-09 -4.30179e-11)
(9.93196e-09 -3.64843e-09 -7.86177e-11)
(1.17892e-08 -3.78709e-09 -1.29315e-10)
(1.40046e-08 -3.62612e-09 -1.96979e-10)
(1.65765e-08 -2.97541e-09 -2.8033e-10)
(1.93881e-08 -1.62406e-09 -3.72956e-10)
(2.20997e-08 5.02476e-10 -4.63124e-10)
(2.39674e-08 2.77489e-09 -5.32121e-10)
(8.25201e-10 -3.47623e-10 3.29569e-12)
(2.39628e-09 -1.01406e-09 9.24235e-12)
(3.84664e-09 -1.6415e-09 1.37066e-11)
(5.23699e-09 -2.25826e-09 1.61354e-11)
(6.62462e-09 -2.88532e-09 1.5652e-11)
(8.06719e-09 -3.53572e-09 1.08946e-11)
(9.62647e-09 -4.2129e-09 -1.74958e-13)
(1.13718e-08 -4.90671e-09 -2.041e-11)
(1.33823e-08 -5.58727e-09 -5.35916e-11)
(1.57459e-08 -6.19467e-09 -1.04228e-10)
(1.85509e-08 -6.62616e-09 -1.76842e-10)
(2.18622e-08 -6.72436e-09 -2.74096e-10)
(2.56692e-08 -6.28275e-09 -3.9325e-10)
(2.97836e-08 -5.10844e-09 -5.2102e-10)
(3.3671e-08 -3.23176e-09 -6.29657e-10)
(3.62197e-08 -1.41686e-09 -6.83167e-10)
(1.12212e-09 -4.70101e-10 5.01795e-12)
(3.25623e-09 -1.37182e-09 1.42037e-11)
(5.21935e-09 -2.22221e-09 2.15302e-11)
(7.08977e-09 -3.06092e-09 2.64613e-11)
(8.94003e-09 -3.91847e-09 2.80817e-11)
(1.08411e-08 -4.81616e-09 2.4914e-11)
(1.28665e-08 -5.76504e-09 1.47332e-11)
(1.50961e-08 -6.76301e-09 -5.59295e-12)
(1.76179e-08 -7.78986e-09 -4.01739e-11)
(2.05268e-08 -8.79956e-09 -9.38713e-11)
(2.39144e-08 -9.70991e-09 -1.71449e-10)
(2.78453e-08 -1.03948e-08 -2.75482e-10)
(3.23043e-08 -1.069e-08 -4.02141e-10)
(3.70922e-08 -1.04422e-08 -5.34846e-10)
(4.164e-08 -9.65411e-09 -6.39636e-10)
(4.47081e-08 -8.7832e-09 -6.78422e-10)
(1.38992e-09 -5.76577e-10 7.0586e-12)
(4.03005e-09 -1.68332e-09 2.01611e-11)
(6.44819e-09 -2.72907e-09 3.12006e-11)
(8.7349e-09 -3.76438e-09 3.98399e-11)
(1.09722e-08 -4.82939e-09 4.53697e-11)
(1.32372e-08 -5.95493e-09 4.65315e-11)
(1.56061e-08 -7.16223e-09 4.14258e-11)
(1.81567e-08 -8.4625e-09 2.73641e-11)
(2.09695e-08 -9.85432e-09 9.66635e-13)
(2.41261e-08 -1.13211e-08 -4.1443e-11)
(2.76961e-08 -1.28244e-08 -1.02899e-10)
(3.17182e-08 -1.42991e-08 -1.83766e-10)
(3.61628e-08 -1.5651e-08 -2.78207e-10)
(4.08596e-08 -1.67574e-08 -3.70088e-10)
(4.5347e-08 -1.74841e-08 -4.33131e-10)
(4.85093e-08 -1.77639e-08 -4.47596e-10)
(1.62453e-09 -6.63079e-10 9.40465e-12)
(4.70611e-09 -1.93679e-09 2.70846e-11)
(7.51501e-09 -3.14285e-09 4.26552e-11)
(1.01488e-08 -4.34138e-09 5.61683e-11)
(1.26934e-08 -5.58163e-09 6.73317e-11)
(1.52259e-08 -6.90355e-09 7.54508e-11)
(1.78171e-08 -8.33933e-09 7.93886e-11)
(2.05322e-08 -9.91429e-09 7.76458e-11)
(2.34294e-08 -1.16468e-08 6.85043e-11)
(2.65631e-08 -1.35554e-08 5.11809e-11)
(2.99561e-08 -1.56486e-08 2.68014e-11)
(3.35887e-08 -1.79281e-08 6.31267e-13)
(3.73788e-08 -2.03804e-08 -1.52469e-11)
(4.11605e-08 -2.29302e-08 -2.56448e-12)
(4.46483e-08 -2.53121e-08 4.96755e-11)
(4.72004e-08 -2.68644e-08 1.1015e-10)
(1.82399e-09 -7.26084e-10 1.1999e-11)
(5.27909e-09 -2.12194e-09 3.47843e-11)
(8.41253e-09 -3.44642e-09 5.55524e-11)
(1.13241e-08 -4.76733e-09 7.48755e-11)
(1.40992e-08 -6.14143e-09 9.30477e-11)
(1.68105e-08 -7.61632e-09 1.1017e-10)
(1.95181e-08 -9.23304e-09 1.26208e-10)
(2.22628e-08 -1.10248e-08 1.41168e-10)
(2.5085e-08 -1.30317e-08 1.56055e-10)
(2.79986e-08 -1.52964e-08 1.7372e-10)
(3.09664e-08 -1.78587e-08 2.01347e-10)
(3.38888e-08 -2.07669e-08 2.52945e-10)
(3.6586e-08 -2.40744e-08 3.5292e-10)
(3.88006e-08 -2.77895e-08 5.33263e-10)
(4.0292e-08 -3.16801e-08 8.05162e-10)
(4.10692e-08 -3.4707e-08 1.06952e-09)
(1.98823e-09 -7.62815e-10 1.47423e-11)
(5.74931e-09 -2.23056e-09 4.295e-11)
(9.14291e-09 -3.62599e-09 6.93301e-11)
(1.22672e-08 -5.02223e-09 9.50307e-11)
(1.5204e-08 -6.48084e-09 1.2105e-10)
(1.80183e-08 -8.05484e-09 1.48336e-10)
(2.07528e-08 -9.7883e-09 1.77892e-10)
(2.34379e-08 -1.17234e-08 2.11693e-10)
(2.60881e-08 -1.39082e-08 2.5344e-10)
(2.86772e-08 -1.63916e-08 3.09793e-10)
(3.11215e-08 -1.9222e-08 3.93321e-10)
(3.3253e-08 -2.24461e-08 5.26549e-10)
(3.48048e-08 -2.61207e-08 7.46984e-10)
(3.53882e-08 -3.02842e-08 1.10714e-09)
(3.45718e-08 -3.48749e-08 1.64747e-09)
(3.24174e-08 -3.92425e-08 2.26813e-09)
(1.70842e-10 -7.3811e-11 4.40146e-13)
(4.96361e-10 -2.15277e-10 1.21871e-12)
(7.97718e-10 -3.48343e-10 1.75489e-12)
(1.08807e-09 -4.78904e-10 1.94205e-12)
(1.38001e-09 -6.11159e-10 1.62316e-12)
(1.68641e-09 -7.47347e-10 5.6419e-13)
(2.02123e-09 -8.8711e-10 -1.57096e-12)
(2.4003e-09 -1.02625e-09 -5.23598e-12)
(2.84173e-09 -1.1546e-09 -1.09963e-11)
(3.36554e-09 -1.25268e-09 -1.94767e-11)
(3.99172e-09 -1.28693e-09 -3.12331e-11)
(4.73524e-09 -1.20385e-09 -4.65607e-11)
(5.59643e-09 -9.24886e-10 -6.53799e-11)
(6.54522e-09 -3.49236e-10 -8.76252e-11)
(7.49553e-09 6.0364e-10 -1.14347e-10)
(8.23308e-09 1.74365e-09 -1.44613e-10)
(5.05919e-10 -2.18346e-10 1.36714e-12)
(1.46966e-09 -6.36959e-10 3.80602e-12)
(2.361e-09 -1.03114e-09 5.54575e-12)
(3.21805e-09 -1.41852e-09 6.29863e-12)
(4.07708e-09 -1.81191e-09 5.6327e-12)
(4.97482e-09 -2.21864e-09 2.90043e-12)
(5.95091e-09 -2.63907e-09 -2.82874e-12)
(7.04993e-09 -3.0633e-09 -1.28057e-11)
(8.32269e-09 -3.46598e-09 -2.85886e-11)
(9.82526e-09 -3.79774e-09 -5.18753e-11)
(1.16134e-08 -3.97389e-09 -8.41202e-11)
(1.37277e-08 -3.86196e-09 -1.25849e-10)
(1.61619e-08 -3.27726e-09 -1.75882e-10)
(1.88056e-08 -2.01354e-09 -2.31136e-10)
(2.1346e-08 9.10293e-12 -2.8749e-10)
(2.30948e-08 2.19669e-09 -3.3592e-10)
(8.26134e-10 -3.55578e-10 2.4366e-12)
(2.39862e-09 -1.03756e-09 6.83647e-12)
(3.84928e-09 -1.68053e-09 1.01571e-11)
(5.23812e-09 -2.31401e-09 1.20119e-11)
(6.62146e-09 -2.9601e-09 1.18028e-11)
(8.05536e-09 -3.633e-09 8.61904e-12)
(9.59908e-09 -4.33716e-09 1.15697e-12)
(1.1318e-08 -5.06377e-09 -1.23355e-11)
(1.32855e-08 -5.78427e-09 -3.39921e-11)
(1.55811e-08 -6.44073e-09 -6.60694e-11)
(1.82831e-08 -6.93304e-09 -1.1029e-10)
(2.14465e-08 -7.10787e-09 -1.66663e-10)
(2.50572e-08 -6.76338e-09 -2.31795e-10)
(2.8941e-08 -5.7081e-09 -2.97347e-10)
(3.26098e-08 -3.9589e-09 -3.50102e-10)
(3.50311e-08 -2.23331e-09 -3.75613e-10)
(1.12327e-09 -4.80852e-10 3.71252e-12)
(3.25905e-09 -1.4036e-09 1.05153e-11)
(5.22233e-09 -2.275e-09 1.59693e-11)
(7.09049e-09 -3.13641e-09 1.97102e-11)
(8.93481e-09 -4.01993e-09 2.11318e-11)
(1.08243e-08 -4.94842e-09 1.92831e-11)
(1.28294e-08 -5.9345e-09 1.28036e-11)
(1.50254e-08 -6.97792e-09 -9.708e-14)
(1.74936e-08 -8.06043e-09 -2.1497e-11)
(2.03196e-08 -9.13817e-09 -5.33582e-11)
(2.35848e-08 -1.01317e-08 -9.66762e-11)
(2.73452e-08 -1.09177e-08 -1.50024e-10)
(3.15862e-08 -1.13342e-08 -2.07655e-10)
(3.61305e-08 -1.12241e-08 -2.58278e-10)
(4.04639e-08 -1.05724e-08 -2.87294e-10)
(4.34209e-08 -9.79201e-09 -2.87985e-10)
(1.39115e-09 -5.89765e-10 5.22564e-12)
(4.03299e-09 -1.72228e-09 1.49404e-11)
(6.45097e-09 -2.79386e-09 2.31595e-11)
(8.73457e-09 -3.85713e-09 2.9685e-11)
(1.09643e-08 -4.95433e-09 3.40743e-11)
(1.32153e-08 -6.11812e-09 3.55947e-11)
(1.55602e-08 -7.37206e-09 3.31822e-11)
(1.80722e-08 -8.72957e-09 2.55443e-11)
(2.08257e-08 -1.01921e-08 1.14165e-11)
(2.3893e-08 -1.17454e-08 -9.78464e-12)
(2.73356e-08 -1.33535e-08 -3.69045e-11)
(3.11883e-08 -1.49536e-08 -6.554e-11)
(3.54297e-08 -1.64506e-08 -8.67976e-11)
(3.99203e-08 -1.77136e-08 -8.88169e-11)
(4.42547e-08 -1.85867e-08 -6.52606e-11)
(4.73648e-08 -1.89595e-08 -3.20728e-11)
(1.62572e-09 -6.7823e-10 6.96943e-12)
(4.70883e-09 -1.98159e-09 2.00825e-11)
(7.51709e-09 -3.21741e-09 3.16798e-11)
(1.01468e-08 -4.4483e-09 4.1849e-11)
(1.26824e-08 -5.72587e-09 5.04853e-11)
(1.51987e-08 -7.09245e-09 5.72924e-11)
(1.77631e-08 -8.58275e-09 6.18474e-11)
(2.04364e-08 -1.02249e-08 6.38102e-11)
(2.32736e-08 -1.20425e-08 6.34342e-11)
(2.63184e-08 -1.40543e-08 6.25749e-11)
(2.95901e-08 -1.62729e-08 6.61215e-11)
(3.3072e-08 -1.87023e-08 8.37242e-11)
(3.67007e-08 -2.13273e-08 1.30451e-10)
(4.03524e-08 -2.4063e-08 2.21284e-10)
(4.37998e-08 -2.6619e-08 3.50534e-10)
(4.64088e-08 -2.82831e-08 4.56721e-10)
(1.82503e-09 -7.42661e-10 8.89613e-12)
(5.2813e-09 -2.17102e-09 2.58027e-11)
(8.41352e-09 -3.52815e-09 4.12691e-11)
(1.13202e-08 -4.88474e-09 5.57697e-11)
(1.4085e-08 -6.29999e-09 6.9664e-11)
(1.67783e-08 -7.82449e-09 8.32423e-11)
(1.94571e-08 -9.50187e-09 9.69502e-11)
(2.21621e-08 -1.13708e-08 1.11668e-10)
(2.49253e-08 -1.34741e-08 1.29577e-10)
(2.77528e-08 -1.5854e-08 1.55516e-10)