/*--------------------------------*- C++ -*----------------------------------*\
| =========                 |                                                 |
| \\      /  F ield         | foam-extend: Open Source CFD                    |
|  \\    /   O peration     | Version:     3.1                                |
|   \\  /    A nd           | Web:         http://www.extend-project.de       |
|    \\/     M anipulation  |                                                 |
\*---------------------------------------------------------------------------*/
FoamFile
{
    version     2.0;
    format      ascii;
    class       surfaceScalarField;
    location    "1.3";
    object      meshPhi;
}
// * * * * * * * * * * * * * * * * * * * * * * * * * * * * * * * * * * * * * //

dimensions      [0 3 -1 0 0 0 0];

internalField   nonuniform List<scalar> 
41600
(
-1.34186e-07
-1.76889e-08
-9.02873e-10
9.2171e-10
-2.5835e-07
-5.24403e-08
-2.71002e-09
2.76599e-09
-3.71554e-07
-8.6435e-08
-4.57452e-09
4.66694e-09
-4.76816e-07
-1.2116e-07
-6.63669e-09
6.76564e-09
-5.7654e-07
-1.58571e-07
-9.07206e-09
9.23792e-09
-6.72592e-07
-2.00669e-07
-1.20821e-08
1.22842e-08
-7.66177e-07
-2.49664e-07
-1.59185e-08
1.61531e-08
-8.57584e-07
-3.08121e-07
-2.09147e-08
2.11721e-08
-9.45829e-07
-3.7911e-07
-2.75342e-08
2.77941e-08
-1.02818e-06
-4.66319e-07
-3.6448e-08
3.66731e-08
-1.0997e-06
-5.7409e-07
-4.8668e-08
4.87907e-08
-1.15248e-06
-7.0713e-07
-6.57739e-08
6.56674e-08
-1.1761e-06
-8.69589e-07
-9.02634e-08
8.96698e-08
-1.16183e-06
-1.06232e-06
-1.25726e-07
1.24141e-07
-1.10987e-06
-1.26836e-06
-1.73612e-07
1.70704e-07
-1.68868e-06
-2.85153e-07
3.9204e-07
-4.00108e-07
-3.43839e-08
-2.68626e-09
2.74222e-09
-7.70203e-07
-1.01902e-07
-8.05561e-09
8.22191e-09
-1.10755e-06
-1.67837e-07
-1.35806e-08
1.38553e-08
-1.42112e-06
-2.34971e-07
-1.96737e-08
2.00569e-08
-1.71801e-06
-3.06969e-07
-2.68456e-08
2.73377e-08
-2.00389e-06
-3.8754e-07
-3.56741e-08
3.62732e-08
-2.28253e-06
-4.80737e-07
-4.68714e-08
4.75661e-08
-2.55508e-06
-5.91188e-07
-6.13632e-08
6.21241e-08
-2.81912e-06
-7.24319e-07
-8.04036e-08
8.11707e-08
-3.06717e-06
-8.86498e-07
-1.0575e-07
1.06415e-07
-3.28602e-06
-1.08503e-06
-1.39949e-07
1.40319e-07
-3.4539e-06
-1.32727e-06
-1.86753e-07
1.86483e-07
-3.54055e-06
-1.618e-06
-2.51669e-07
2.50072e-07
-3.51863e-06
-1.95368e-06
-3.4185e-07
3.37556e-07
-3.38525e-06
-2.3008e-06
-4.58649e-07
4.49984e-07
-2.7822e-06
-6.73404e-07
8.43558e-07
-6.59284e-07
-4.93578e-08
-4.38154e-09
4.47292e-09
-1.2687e-06
-1.46206e-07
-1.31222e-08
1.3394e-08
-1.82366e-06
-2.40515e-07
-2.2078e-08
2.2527e-08
-2.33886e-06
-3.3605e-07
-3.19043e-08
3.25297e-08
-2.82619e-06
-4.37831e-07
-4.34e-08
4.42024e-08
-3.29533e-06
-5.50871e-07
-5.74532e-08
5.84289e-08
-3.75296e-06
-6.80512e-07
-7.51322e-08
7.62619e-08
-4.20184e-06
-8.32674e-07
-9.77817e-08
9.90158e-08
-4.63957e-06
-1.01411e-06
-1.27151e-07
1.28391e-07
-5.05661e-06
-1.23259e-06
-1.65577e-07
1.66646e-07
-5.43488e-06
-1.49674e-06
-2.16217e-07
2.16807e-07
-5.74389e-06
-1.81448e-06
-2.83253e-07
2.82833e-07
-5.93872e-06
-2.1891e-06
-3.71932e-07
3.695e-07
-5.97422e-06
-2.61185e-06
-4.87453e-07
4.81024e-07
-5.83742e-06
-3.03997e-06
-6.26606e-07
6.12817e-07
-3.59333e-06
-8.19866e-07
9.32582e-07
-9.07741e-07
-6.19724e-08
-5.92563e-09
6.04942e-09
-1.74585e-06
-1.83429e-07
-1.77173e-08
1.8086e-08
-2.50772e-06
-3.01246e-07
-2.9732e-08
3.03411e-08
-3.21376e-06
-4.19859e-07
-4.28224e-08
4.36703e-08
-3.88086e-06
-5.45246e-07
-5.80124e-08
5.90995e-08
-4.5228e-06
-6.83218e-07
-7.64121e-08
7.77323e-08
-5.14949e-06
-8.39747e-07
-9.93145e-08
1.0084e-07
-5.76636e-06
-1.02124e-06
-1.28285e-07
1.29947e-07
-6.37327e-06
-1.23481e-06
-1.65273e-07
1.66933e-07
-6.96255e-06
-1.48838e-06
-2.12726e-07
2.14134e-07
-7.51563e-06
-1.79043e-06
-2.73668e-07
2.74393e-07
-7.99981e-06
-2.14827e-06
-3.51571e-07
3.5088e-07
-8.36508e-06
-2.56391e-06
-4.49697e-07
4.46281e-07
-8.55261e-06
-3.02589e-06
-5.69191e-07
5.6058e-07
-8.52635e-06
-3.48965e-06
-7.01794e-07
6.83468e-07
-4.04481e-06
-8.64474e-07
9.48533e-07
-1.14117e-06
-7.1728e-08
-7.26791e-09
7.42054e-09
-2.19346e-06
-2.12145e-07
-2.16911e-08
2.21458e-08
-3.14833e-06
-3.4784e-07
-3.62928e-08
3.70442e-08
-4.03173e-06
-4.83572e-07
-5.207e-08
5.31157e-08
-4.86517e-06
-6.25808e-07
-7.01987e-08
7.15376e-08
-5.6662e-06
-7.8061e-07
-9.19157e-08
9.35382e-08
-6.44818e-06
-9.53975e-07
-1.18612e-07
1.20484e-07
-7.22026e-06
-1.15209e-06
-1.51911e-07
1.53943e-07
-7.98642e-06
-1.38154e-06
-1.93737e-07
1.95751e-07
-8.74404e-06
-1.6493e-06
-2.46352e-07
2.48023e-07
-9.4798e-06
-1.96256e-06
-3.12304e-07
3.13061e-07
-1.01662e-05
-2.3275e-06
-3.94082e-07
3.92953e-07
-1.07582e-05
-2.74576e-06
-4.92994e-07
4.88306e-07
-1.11892e-05
-3.20642e-06
-6.06731e-07
5.95541e-07
-1.13818e-05
-3.66848e-06
-7.22926e-07
7.00264e-07
-4.18025e-06
-8.55969e-07
9.14006e-07
-1.3562e-06
-7.83783e-08
-8.37699e-09
8.55496e-09
-2.60565e-06
-2.31675e-07
-2.49549e-08
2.54844e-08
-3.73777e-06
-3.79296e-07
-4.1623e-08
4.24968e-08
-4.78321e-06
-5.25959e-07
-5.94622e-08
6.06761e-08
-5.76728e-06
-6.78173e-07
-7.97279e-08
8.12783e-08
-6.71094e-06
-8.41833e-07
-1.03701e-07
1.05576e-07
-7.63098e-06
-1.02248e-06
-1.32771e-07
1.34931e-07
-8.54034e-06
-1.22547e-06
-1.68494e-07
1.70834e-07
-9.4478e-06
-1.45614e-06
-2.12624e-07
2.1493e-07
-1.03571e-05
-1.7197e-06
-2.67099e-07
2.68977e-07
-1.12645e-05
-2.02116e-06
-3.33934e-07
3.34684e-07
-1.21551e-05
-2.36486e-06
-4.1486e-07
4.13268e-07
-1.29986e-05
-2.75222e-06
-5.10134e-07
5.0413e-07
-1.37321e-05
-3.17602e-06
-6.15779e-07
6.01875e-07
-1.42337e-05
-3.60662e-06
-7.16398e-07
6.89648e-07
-4.05734e-06
-8.32993e-07
8.78504e-07
-1.551e-06
-8.18685e-08
-9.24308e-09
9.44195e-09
-2.9788e-06
-2.41842e-07
-2.74822e-08
2.80729e-08
-4.2705e-06
-3.95336e-07
-4.56846e-08
4.66571e-08
-5.46051e-06
-5.46782e-07
-6.49598e-08
6.63076e-08
-6.57734e-06
-7.02413e-07
-8.65828e-08
8.83026e-08
-7.64478e-06
-8.67634e-07
-1.11817e-07
1.13896e-07
-8.68237e-06
-1.04717e-06
-1.41972e-07
1.44363e-07
-9.70623e-06
-1.24518e-06
-1.78445e-07
1.81032e-07
-1.07292e-05
-1.46527e-06
-2.22728e-07
2.25277e-07
-1.17608e-05
-1.71037e-06
-2.76374e-07
2.78447e-07
-1.28065e-05
-1.98252e-06
-3.40874e-07
3.41692e-07
-1.38665e-05
-2.28288e-06
-4.17406e-07
4.15609e-07
-1.49291e-05
-2.61087e-06
-5.05969e-07
4.99204e-07
-1.59527e-05
-2.9622e-06
-6.03002e-07
5.8725e-07
-1.68076e-05
-3.32647e-06
-6.93731e-07
6.63882e-07
-3.72257e-06
-8.22848e-07
8.68482e-07
-1.72401e-06
-9.87141e-09
1.00862e-08
-8.22298e-08
-3.30964e-06
-2.92904e-08
2.99275e-08
-2.42764e-07
-4.74153e-06
-4.85165e-08
4.95632e-08
-3.96273e-07
-6.05714e-06
-6.86477e-08
7.0097e-08
-5.46744e-07
-7.28739e-06
-9.09341e-08
9.27828e-08
-6.99894e-07
-8.45798e-06
-1.16566e-07
1.18798e-07
-8.60413e-07
-9.59026e-06
-1.46714e-07
1.49279e-07
-1.03204e-06
-1.07023e-05
-1.82559e-07
1.85337e-07
-1.2176e-06
-1.18094e-05
-2.25282e-07
2.28034e-07
-1.41885e-06
-1.29244e-05
-2.76001e-07
2.78288e-07
-1.63627e-06
-1.40574e-05
-3.35631e-07
3.36683e-07
-1.86866e-06
-1.52159e-05
-4.04654e-07
4.03164e-07
-2.11283e-06
-1.63949e-05
-4.82417e-07
4.76193e-07
-2.36302e-06
-1.75584e-05
-5.65026e-07
5.50555e-07
-2.60943e-06
-1.85819e-05
-6.38871e-07
6.12308e-07
-2.83968e-06
-8.27975e-07
8.86782e-07
-2.97748e-06
-1.36386e-07
-1.86297e-08
-8.49816e-10
-2.62623e-07
-5.52641e-08
-2.5512e-09
-3.77821e-07
-9.12069e-08
-4.30779e-09
-4.85133e-07
-1.28101e-07
-6.2528e-09
-5.87043e-07
-1.68091e-07
-8.55264e-09
-6.85455e-07
-2.13376e-07
-1.13977e-08
-7.81614e-07
-2.66408e-07
-1.50241e-08
-8.75787e-07
-3.30052e-07
-1.97399e-08
-9.6691e-07
-4.07748e-07
-2.59613e-08
-1.05211e-06
-5.03643e-07
-3.4263e-08
-1.12627e-06
-6.2261e-07
-4.54474e-08
-1.18151e-06
-7.69898e-07
-6.06166e-08
-1.20817e-06
-9.50011e-07
-8.11536e-08
-1.20003e-06
-1.16339e-06
-1.08172e-07
-1.16347e-06
-1.39164e-06
-1.39621e-07
-1.73837e-06
-1.91438e-07
-4.06646e-07
-3.62082e-08
-2.52856e-09
-7.82887e-07
-1.07373e-07
-7.5838e-09
-1.12611e-06
-1.77063e-07
-1.27889e-08
-1.44576e-06
-2.48365e-07
-1.8536e-08
-1.74917e-06
-3.25299e-07
-2.53095e-08
-2.04205e-06
-4.11933e-07
-3.36558e-08
-2.32833e-06
-5.12759e-07
-4.42443e-08
-2.60912e-06
-6.32945e-07
-5.79326e-08
-2.88176e-06
-7.78572e-07
-7.5851e-08
-3.13839e-06
-9.56796e-07
-9.95101e-08
-3.36515e-06
-1.17578e-06
-1.30927e-07
-3.53993e-06
-1.44363e-06
-1.72689e-07
-3.63373e-06
-1.76524e-06
-2.27678e-07
-3.62459e-06
-2.13562e-06
-2.97458e-07
-3.5252e-06
-2.51888e-06
-3.75787e-07
-2.91927e-06
-4.74896e-07
-6.69994e-07
-5.19665e-08
-4.12442e-09
-1.28942e-06
-1.54016e-07
-1.23535e-08
-1.85394e-06
-2.53663e-07
-2.07904e-08
-2.37911e-06
-3.55095e-07
-3.00587e-08
-2.87704e-06
-4.63801e-07
-4.0917e-08
-3.35753e-06
-5.85268e-07
-5.42056e-08
-3.82763e-06
-7.25426e-07
-7.09317e-08
-4.29006e-06
-8.909e-07
-9.23487e-08
-4.7421e-06
-1.08925e-06
-1.20045e-07
-5.17356e-06
-1.32923e-06
-1.56042e-07
-5.56524e-06
-1.62045e-06
-2.02844e-07
-5.8854e-06
-1.97154e-06
-2.63265e-07
-6.08934e-06
-2.38556e-06
-3.39615e-07
-6.13666e-06
-2.85155e-06
-4.31254e-07
-6.03362e-06
-3.32412e-06
-5.27723e-07
-3.78973e-06
-6.19816e-07
-9.22449e-07
-6.52432e-08
-5.5781e-09
-1.7741e-06
-1.93194e-07
-1.66791e-08
-2.549e-06
-3.17633e-07
-2.79964e-08
-3.26851e-06
-4.43502e-07
-4.03427e-08
-3.94977e-06
-5.77322e-07
-5.46902e-08
-4.60703e-06
-7.25472e-07
-7.20916e-08
-5.25065e-06
-8.94596e-07
-9.37719e-08
-5.8861e-06
-1.09187e-06
-1.21202e-07
-6.51291e-06
-1.32526e-06
-1.56168e-07
-7.12265e-06
-1.60371e-06
-2.00814e-07
-7.69525e-06
-1.93672e-06
-2.57564e-07
-8.19595e-06
-2.33234e-06
-3.28662e-07
-8.57301e-06
-2.79227e-06
-4.14857e-07
-8.76934e-06
-3.30281e-06
-5.12548e-07
-8.76607e-06
-3.81685e-06
-6.08146e-07
-4.30086e-06
-6.90615e-07
-1.15949e-06
-7.54893e-08
-6.84138e-09
-2.22853e-06
-2.23368e-07
-2.04185e-08
-3.19949e-06
-3.66631e-07
-3.41702e-08
-4.09931e-06
-5.10578e-07
-4.90475e-08
-4.94999e-06
-6.62276e-07
-6.61699e-08
-5.76984e-06
-8.28401e-07
-8.67126e-08
-6.57271e-06
-1.01562e-06
-1.11999e-07
-7.3679e-06
-1.23087e-06
-1.43567e-07
-8.15924e-06
-1.48158e-06
-1.83206e-07
-8.94336e-06
-1.77569e-06
-2.32938e-07
-9.70552e-06
-2.12135e-06
-2.94854e-07
-1.04158e-05
-2.52561e-06
-3.70511e-07
-1.10254e-05
-2.99013e-06
-4.59317e-07
-1.14651e-05
-3.50237e-06
-5.5545e-07
-1.16665e-05
-4.01864e-06
-6.42997e-07
-4.48987e-06
-7.16267e-07
-1.37743e-06
-8.24446e-08
-7.88376e-09
-2.64646e-06
-2.43817e-07
-2.34861e-08
-3.79727e-06
-3.99608e-07
-3.91806e-08
-4.86162e-06
-5.55068e-07
-5.59997e-08
-5.86561e-06
-7.17319e-07
-7.51398e-08
-6.83098e-06
-8.92853e-07
-9.78186e-08
-7.77515e-06
-1.08785e-06
-1.25366e-07
-8.71143e-06
-1.30836e-06
-1.5927e-07
-9.64862e-06
-1.56045e-06
-2.01188e-07
-1.059e-05
-1.85017e-06
-2.52905e-07
-1.15309e-05
-2.18345e-06
-3.1614e-07
-1.24541e-05
-2.5655e-06
-3.91994e-07
-1.33246e-05
-2.99833e-06
-4.7937e-07
-1.40732e-05
-3.47433e-06
-5.71713e-07
-1.45732e-05
-3.96166e-06
-6.51417e-07
-4.41101e-06
-7.22674e-07
-1.57459e-06
-8.60822e-08
-8.69678e-09
-3.02432e-06
-2.54417e-07
-2.58584e-08
-4.33684e-06
-4.16339e-07
-4.29945e-08
-5.5478e-06
-5.76788e-07
-6.11653e-08
-6.68662e-06
-7.42588e-07
-8.15832e-08
-7.77793e-06
-9.19707e-07
-1.05452e-07
-8.84207e-06
-1.11345e-06
-1.34035e-07
-9.89567e-06
-1.32857e-06
-1.68682e-07
-1.09518e-05
-1.56926e-06
-2.10826e-07
-1.20199e-05
-1.83909e-06
-2.61942e-07
-1.3105e-05
-2.14083e-06
-3.23367e-07
-1.42055e-05
-2.4764e-06
-3.95891e-07
-1.53058e-05
-2.84601e-06
-4.78556e-07
-1.63572e-05
-3.24622e-06
-5.65793e-07
-1.72129e-05
-3.66666e-06
-6.41075e-07
-4.10458e-06
-7.30198e-07
-1.74957e-06
-9.28623e-09
-8.64336e-08
-3.35897e-06
-2.75545e-08
-2.55302e-07
-4.81332e-06
-4.56506e-08
-4.17175e-07
-6.15135e-06
-6.46231e-08
-5.76513e-07
-7.40499e-06
-8.56589e-08
-7.39586e-07
-8.60089e-06
-1.09897e-07
-9.11599e-07
-9.76124e-06
-1.38476e-07
-1.09679e-06
-1.09047e-05
-1.72546e-07
-1.29844e-06
-1.2047e-05
-2.13262e-07
-1.51877e-06
-1.3201e-05
-2.6172e-07
-1.75869e-06
-1.43766e-05
-3.18778e-07
-2.01741e-06
-1.55799e-05
-3.84702e-07
-2.29212e-06
-1.68022e-05
-4.58202e-07
-2.57738e-06
-1.79994e-05
-5.33909e-07
-2.86346e-06
-1.90207e-05
-5.96675e-07
-3.13732e-06
-7.37884e-07
-3.30619e-06
-1.38338e-07
-1.94836e-08
-7.6443e-10
-2.66422e-07
-5.78244e-08
-2.2951e-09
-3.83404e-07
-9.55231e-08
-3.87601e-09
-4.92551e-07
-1.34353e-07
-5.62717e-09
-5.96415e-07
-1.7661e-07
-7.69777e-09
-6.96932e-07
-2.24643e-07
-1.02567e-08
-7.95376e-07
-2.81064e-07
-1.35094e-08
-8.92013e-07
-3.48912e-07
-1.77153e-08
-9.85753e-07
-4.31786e-07
-2.32061e-08
-1.07373e-06
-5.3394e-07
-3.04013e-08
-1.15086e-06
-6.60158e-07
-3.98058e-08
-1.20954e-06
-8.15131e-07
-5.19516e-08
-1.24111e-06
-1.00185e-06
-6.7187e-08
-1.24115e-06
-1.21755e-06
-8.51025e-08
-1.21682e-06
-1.43999e-06
-1.03102e-07
-1.79374e-06
-1.26913e-07
-4.12453e-07
-3.78647e-08
-2.27462e-09
-7.94176e-07
-1.12335e-07
-6.82282e-09
-1.14267e-06
-1.85416e-07
-1.15075e-08
-1.46778e-06
-2.60442e-07
-1.66823e-08
-1.777e-06
-3.4172e-07
-2.27819e-08
-2.07612e-06
-4.33589e-07
-3.02917e-08
-2.36918e-06
-5.40831e-07
-3.97957e-08
-2.65729e-06
-6.68924e-07
-5.20186e-08
-2.93767e-06
-8.24219e-07
-6.78652e-08
-3.20257e-06
-1.01404e-06
-8.84425e-08
-3.43807e-06
-1.24635e-06
-1.1501e-07
-3.62246e-06
-1.52803e-06
-1.48746e-07
-3.72912e-06
-1.86093e-06
-1.90074e-07
-3.74046e-06
-2.23389e-06
-2.37129e-07
-3.67184e-06
-2.6035e-06
-2.82681e-07
-2.97232e-06
-3.2566e-07
-6.79516e-07
-5.4337e-08
-3.71034e-09
-1.30788e-06
-1.61108e-07
-1.11141e-08
-1.88101e-06
-2.65578e-07
-1.87076e-08
-2.41511e-06
-3.72286e-07
-2.70538e-08
-2.92249e-06
-4.87094e-07
-3.68346e-08
-3.41312e-06
-6.15849e-07
-4.87978e-08
-3.89428e-06
-7.64877e-07
-6.38262e-08
-4.36869e-06
-9.41187e-07
-8.29855e-08
-4.83346e-06
-1.15268e-06
-1.07561e-07
-5.27851e-06
-1.40828e-06
-1.39044e-07
-5.6842e-06
-1.7172e-06
-1.78982e-07
-6.01879e-06
-2.08627e-06
-2.28491e-07
-6.23986e-06
-2.5143e-06
-2.87119e-07
-6.3118e-06
-2.98192e-06
-3.50748e-07
-6.24533e-06
-3.43334e-06
-4.08691e-07
-3.84387e-06
-4.47812e-07
-9.35512e-07
-6.82137e-08
-5.01814e-09
-1.7993e-06
-2.02061e-07
-1.50057e-08
-2.58593e-06
-3.32488e-07
-2.51915e-08
-3.31751e-06
-4.64856e-07
-3.63102e-08
-4.01144e-06
-6.06124e-07
-4.92369e-08
-4.68237e-06
-7.63099e-07
-6.49123e-08
-5.34099e-06
-9.42877e-07
-8.44156e-08
-5.99279e-06
-1.15305e-06
-1.09009e-07
-6.63724e-06
-1.40192e-06
-1.40158e-07
-7.26555e-06
-1.69857e-06
-1.79467e-07
-7.85677e-06
-2.05188e-06
-2.28423e-07
-8.37585e-06
-2.46789e-06
-2.87707e-07
-8.77172e-06
-2.94344e-06
-3.55702e-07
-8.99037e-06
-3.45528e-06
-4.26228e-07
-9.01877e-06
-3.94408e-06
-4.86549e-07
-4.36065e-06
-5.24803e-07
-1.17575e-06
-7.89066e-08
-6.15437e-09
-2.25981e-06
-2.33562e-07
-1.83689e-08
-3.24526e-06
-3.83673e-07
-3.07449e-08
-4.15982e-06
-5.34987e-07
-4.4143e-08
-5.02595e-06
-6.95058e-07
-5.95733e-08
-5.86259e-06
-8.71027e-07
-7.80904e-08
-6.68393e-06
-1.07001e-06
-1.00867e-07
-7.4994e-06
-1.29934e-06
-1.29236e-07
-8.31282e-06
-1.56674e-06
-1.64691e-07
-9.12004e-06
-1.8802e-06
-2.08778e-07
-9.90528e-06
-2.24726e-06
-2.62801e-07
-1.06379e-05
-2.673e-06
-3.27062e-07
-1.12674e-05
-3.15423e-06
-3.99188e-07
-1.17243e-05
-3.66876e-06
-4.71765e-07
-1.19461e-05
-4.15969e-06
-5.30693e-07
-4.56074e-06
-5.70478e-07
-1.39631e-06
-8.61436e-08
-7.09135e-09
-2.6829e-06
-2.54856e-07
-2.11264e-08
-3.85051e-06
-4.18044e-07
-3.52494e-08
-4.93187e-06
-5.81403e-07
-5.03963e-08
-5.95371e-06
-7.52553e-07
-6.76493e-08
-6.93843e-06
-9.38434e-07
-8.81037e-08
-7.90388e-06
-1.14565e-06
-1.12945e-07
-8.86364e-06
-1.38062e-06
-1.43479e-07
-9.82654e-06
-1.64964e-06
-1.81113e-07
-1.07951e-05
-1.95875e-06
-2.27253e-07
-1.17637e-05
-2.31328e-06
-2.83013e-07
-1.27136e-05
-2.71671e-06
-3.48557e-07
-1.36056e-05
-3.16673e-06
-4.21488e-07
-1.43669e-05
-3.64705e-06
-4.94367e-07
-1.48743e-05
-4.1124e-06
-5.52163e-07
-4.49588e-06
-5.98796e-07
-1.5956e-06
-8.99172e-08
-7.8216e-09
-3.06497e-06
-2.65856e-07
-2.3257e-08
-4.39621e-06
-4.35413e-07
-3.86753e-08
-5.62603e-06
-6.03961e-07
-5.50402e-08
-6.78456e-06
-7.78796e-07
-7.34482e-08
-7.89709e-06
-9.66307e-07
-9.49822e-08
-8.98461e-06
-1.17219e-06
-1.2078e-07
-1.00641e-05
-1.40151e-06
-1.52042e-07
-1.11486e-05
-1.65862e-06
-1.90004e-07
-1.22472e-05
-1.94698e-06
-2.35857e-07
-1.3364e-05
-2.26884e-06
-2.90505e-07
-1.44948e-05
-2.62457e-06
-3.54056e-07
-1.56194e-05
-3.01091e-06
-4.24572e-07
-1.66823e-05
-3.41738e-06
-4.95886e-07
-1.75355e-05
-3.8212e-06
-5.54129e-07
-4.20086e-06
-6.21869e-07
-1.77235e-06
-8.35064e-09
-9.02618e-08
-3.40302e-06
-2.4779e-08
-2.66713e-07
-4.87756e-06
-4.1059e-08
-4.3617e-07
-6.23579e-06
-5.81445e-08
-6.03494e-07
-7.5104e-06
-7.71085e-08
-7.75403e-07
-8.7288e-06
-9.8979e-08
-9.57486e-07
-9.91387e-06
-1.2479e-07
-1.15432e-06
-1.10846e-05
-1.55577e-07
-1.36942e-06
-1.22569e-05
-1.92348e-07
-1.6051e-06
-1.34433e-05
-2.36005e-07
-1.86209e-06
-1.46529e-05
-2.87122e-07
-2.13909e-06
-1.58889e-05
-3.45497e-07
-2.43192e-06
-1.71381e-05
-4.09161e-07
-2.73236e-06
-1.83488e-05
-4.72386e-07
-3.02527e-06
-1.93637e-05
-5.22284e-07
-3.28775e-06
-6.35387e-07
-3.40258e-06
-1.40019e-07
-2.02276e-08
-6.49858e-10
-2.697e-07
-6.00524e-08
-1.95119e-09
-3.88228e-07
-9.92687e-08
-3.29533e-09
-4.98956e-07
-1.39752e-07
-4.78389e-09
-6.04504e-07
-1.83913e-07
-6.5424e-09
-7.0684e-07
-2.34204e-07
-8.71066e-09
-8.07254e-07
-2.93326e-07
-1.14544e-08
-9.06022e-07
-3.64382e-07
-1.49736e-08
-1.00206e-06
-4.50983e-07
-1.95059e-08
-1.09258e-06
-5.57278e-07
-2.5316e-08
-1.17259e-06
-6.87709e-07
-3.26528e-08
-1.2347e-06
-8.46237e-07
-4.16416e-08
-1.27088e-06
-1.03474e-06
-5.20748e-08
-1.27729e-06
-1.24947e-06
-6.30865e-08
-1.2601e-06
-1.46898e-06
-7.27406e-08
-1.83516e-06
-8.38787e-08
-4.17452e-07
-3.9308e-08
-1.9338e-09
-8.03916e-07
-1.16655e-07
-5.80075e-09
-1.15699e-06
-1.92668e-07
-9.784e-09
-1.48679e-06
-2.70877e-07
-1.41834e-08
-1.80101e-06
-3.55805e-07
-1.93651e-08
-2.10552e-06
-4.5198e-07
-2.57315e-08
-2.40442e-06
-5.64344e-07
-3.37549e-08
-2.69883e-06
-6.98485e-07
-4.39967e-08
-2.98591e-06
-8.60744e-07
-5.7108e-08
-3.25833e-06
-1.05826e-06
-7.37902e-08
-3.50227e-06
-1.29831e-06
-9.46475e-08
-3.69632e-06
-1.58626e-06
-1.19852e-07
-3.81542e-06
-1.9216e-06
-1.48532e-07
-3.84344e-06
-2.29063e-06
-1.7791e-07
-3.79323e-06
-2.65025e-06
-2.0259e-07
-3.01226e-06
-2.20467e-07
-6.87705e-07
-5.64021e-08
-3.15454e-09
-1.32382e-06
-1.67282e-07
-9.4496e-09
-1.90443e-06
-2.75928e-07
-1.59065e-08
-2.44618e-06
-3.87144e-07
-2.30036e-08
-2.96169e-06
-5.07087e-07
-3.13157e-08
-3.46108e-06
-6.41854e-07
-4.14646e-08
-3.95173e-06
-7.9798e-07
-5.4168e-08
-4.43638e-06
-9.82598e-07
-7.02574e-08
-4.91206e-06
-1.20359e-06
-9.06677e-08
-5.36928e-06
-1.46961e-06
-1.16352e-07
-5.78819e-06
-1.78878e-06
-1.48019e-07
-6.1371e-06
-2.16574e-06
-1.85578e-07
-6.37535e-06
-2.59579e-06
-2.27188e-07
-6.46883e-06
-3.0555e-06
-2.68105e-07
-6.42562e-06
-3.48834e-06
-3.00423e-07
-3.87642e-06
-3.15159e-07
-9.46695e-07
-7.07967e-08
-4.26656e-09
-1.82102e-06
-2.09774e-07
-1.27586e-08
-2.61782e-06
-3.4539e-07
-2.14202e-08
-3.35977e-06
-4.83323e-07
-3.08765e-08
-4.06464e-06
-6.30874e-07
-4.18667e-08
-4.74736e-06
-7.95147e-07
-5.51757e-08
-5.41881e-06
-9.83479e-07
-7.16875e-08
-6.08454e-06
-1.20358e-06
-9.23967e-08
-6.74413e-06
-1.46374e-06
-1.18386e-07
-7.38865e-06
-1.77257e-06
-1.50696e-07
-7.99656e-06
-2.1376e-06
-1.89978e-07
-8.53318e-06
-2.56229e-06
-2.35805e-07
-8.94825e-06
-3.03927e-06
-2.85475e-07
-9.1885e-06
-3.54007e-06
-3.32777e-07
-9.23957e-06
-4.0037e-06
-3.68331e-07
-4.38666e-06
-3.84658e-07
-1.18963e-06
-8.18799e-08
-5.23259e-09
-2.28674e-06
-2.42434e-07
-1.5618e-08
-3.28474e-06
-3.98483e-07
-2.61422e-08
-4.21203e-06
-5.56117e-07
-3.7538e-08
-5.09153e-06
-7.23269e-07
-5.06614e-08
-5.9426e-06
-9.07396e-07
-6.6398e-08
-6.7797e-06
-1.11585e-06
-8.5714e-08
-7.61238e-06
-1.35608e-06
-1.09672e-07
-8.44465e-06
-1.63573e-06
-1.39396e-07
-9.27147e-06
-1.96219e-06
-1.7591e-07
-1.00763e-05
-2.3416e-06
-2.19792e-07
-1.0829e-05
-2.77645e-06
-2.70458e-07
-1.14781e-05
-3.25896e-06
-3.24815e-07
-1.19536e-05
-3.76107e-06
-3.75956e-07
-1.21938e-05
-4.22338e-06
-4.13476e-07
-4.58512e-06
-4.34922e-07
-1.4125e-06
-8.93703e-08
-6.02895e-09
-2.71429e-06
-2.64479e-07
-1.79616e-08
-3.89647e-06
-4.34083e-07
-2.99711e-08
-4.99253e-06
-6.04225e-07
-4.28556e-08
-6.02981e-06
-7.82913e-07
-5.75356e-08
-7.03114e-06
-9.77398e-07
-7.49342e-08
-8.0147e-06
-1.1945e-06
-9.60334e-08
-8.99432e-06
-1.44072e-06
-1.21889e-07
-9.97883e-06
-1.72223e-06
-1.53583e-07
-1.09699e-05
-2.04445e-06
-1.9207e-07
-1.19614e-05
-2.41141e-06
-2.3788e-07
-1.29335e-05
-2.82403e-06
-2.90497e-07
-1.38448e-05
-3.27558e-06
-3.47063e-07
-1.4621e-05
-3.74386e-06
-4.00924e-07
-1.51407e-05
-4.18033e-06
-4.40979e-07
-4.5232e-06
-4.72232e-07
-1.6137e-06
-9.32661e-08
-6.64931e-09
-3.10006e-06
-2.75836e-07
-1.97717e-08
-4.4475e-06
-4.52022e-07
-3.28822e-08
-5.69363e-06
-6.27534e-07
-4.68048e-08
-6.86919e-06
-8.10042e-07
-6.24739e-08
-7.99995e-06
-1.00622e-06
-8.08027e-08
-9.10733e-06
-1.22197e-06
-1.02741e-07
-1.02086e-05
-1.46241e-06
-1.29275e-07
-1.13167e-05
-1.73172e-06
-1.6137e-07
-1.24403e-05
-2.0328e-06
-1.99857e-07
-1.35826e-05
-2.36664e-06
-2.45186e-07
-1.47373e-05
-2.73127e-06
-2.9695e-07
-1.58811e-05
-3.11955e-06
-3.5287e-07
-1.69564e-05
-3.51563e-06
-4.07505e-07
-1.78164e-05
-3.89272e-06
-4.50658e-07
-4.23217e-06
-5.02438e-07
-1.79198e-06
-7.09853e-09
-9.36068e-08
-3.44105e-06
-2.10641e-08
-2.76675e-07
-4.93307e-06
-3.49069e-08
-4.52723e-07
-6.30879e-06
-4.94435e-08
-6.26928e-07
-7.60152e-06
-6.55883e-08
-8.06356e-07
-8.83924e-06
-8.4211e-08
-9.96858e-07
-1.00453e-05
-1.06183e-07
-1.20319e-06
-1.12391e-05
-1.32363e-07
-1.42892e-06
-1.24362e-05
-1.63551e-07
-1.67612e-06
-1.3649e-05
-2.00381e-07
-1.94501e-06
-1.48855e-05
-2.43105e-07
-2.23315e-06
-1.61465e-05
-2.91173e-07
-2.53435e-06
-1.74157e-05
-3.42418e-07
-2.83716e-06
-1.86381e-05
-3.91813e-07
-3.12198e-06
-1.96551e-05
-4.29675e-07
-3.36189e-06
-5.18879e-07
-3.43383e-06
-1.41401e-07
-2.08424e-08
-5.1046e-10
-2.72395e-07
-6.18909e-08
-1.53263e-09
-3.92192e-07
-1.0235e-07
-2.58823e-09
-5.04213e-07
-1.44171e-07
-3.75661e-09
-6.1115e-07
-1.89847e-07
-5.13501e-09
-7.14994e-07
-2.41897e-07
-6.82987e-09
-8.1703e-07
-3.03055e-07
-8.96361e-09
-9.17554e-07
-3.76421e-07
-1.16772e-08
-1.0155e-06
-4.65539e-07
-1.51244e-08
-1.10816e-06
-5.74379e-07
-1.94503e-08
-1.19059e-06
-7.07042e-07
-2.47391e-08
-1.2555e-06
-8.66983e-07
-3.09163e-08
-1.29505e-06
-1.05566e-06
-3.76103e-08
-1.30536e-06
-1.26955e-06
-4.40389e-08
-1.29152e-06
-1.48871e-06
-4.90343e-08
-1.86538e-06
-5.44172e-08
-4.21554e-07
-4.05002e-08
-1.51906e-09
-8.11919e-07
-1.20218e-07
-4.5566e-09
-1.16875e-06
-1.98633e-07
-7.68498e-09
-1.50235e-06
-2.79412e-07
-1.11385e-08
-1.8207e-06
-3.67246e-07
-1.52012e-08
-2.1297e-06
-4.66785e-07
-2.01802e-08
-2.4334e-06
-5.8302e-07
-2.64253e-08
-2.733e-06
-7.21523e-07
-3.43336e-08
-3.02566e-06
-8.885e-07
-4.43291e-08
-3.30436e-06
-1.09074e-06
-5.67963e-08
-3.55536e-06
-1.33486e-06
-7.19196e-08
-3.75735e-06
-1.62514e-06
-8.93924e-08
-3.88578e-06
-1.95997e-06
-1.08017e-07
-3.92423e-06
-2.32553e-06
-1.254e-07
-3.88284e-06
-2.68081e-06
-1.38222e-07
-3.04486e-06
-1.45393e-07
-6.94416e-07
-5.81073e-08
-2.47811e-09
-1.33691e-06
-1.72376e-07
-7.42318e-09
-1.92365e-06
-2.84441e-07
-1.24947e-08
-2.4716e-06
-3.99302e-07
-1.80671e-08
-2.99385e-06
-5.23348e-07
-2.45873e-08
-3.50052e-06
-6.62824e-07
-3.25304e-08
-3.99893e-06
-8.2432e-07
-4.24308e-08
-4.49197e-06
-1.01495e-06
-5.48815e-08
-4.97671e-06
-1.2424e-06
-7.0498e-08
-5.44398e-06
-1.51482e-06
-8.98065e-08
-5.87385e-06
-1.83931e-06
-1.12981e-07
-6.23464e-06
-2.21883e-06
-1.39389e-07
-6.48617e-06
-2.64692e-06
-1.66976e-07
-6.59378e-06
-3.09937e-06
-1.91858e-07
-6.56221e-06
-3.52179e-06
-2.09073e-07
-3.90349e-06
-2.13652e-07
-9.55843e-07
-7.29292e-08
-3.35189e-09
-1.83887e-06
-2.16141e-07
-1.00232e-08
-2.644e-06
-3.56013e-07
-1.68269e-08
-3.39447e-06
-4.98465e-07
-2.42535e-08
-4.10843e-06
-6.51053e-07
-3.2879e-08
-4.80082e-06
-8.21042e-07
-4.33044e-08
-5.48269e-06
-1.01585e-06
-5.61927e-08
-6.15975e-06
-1.24316e-06
-7.22611e-08
-6.8317e-06
-1.51101e-06
-9.22338e-08
-7.4895e-06
-1.82735e-06
-1.16694e-07
-8.11119e-06
-2.19836e-06
-1.45762e-07
-8.66234e-06
-2.6255e-06
-1.78549e-07
-9.09273e-06
-3.09904e-06
-2.12377e-07
-9.34825e-06
-3.58909e-06
-2.42333e-07
-9.41182e-06
-4.03679e-06
-2.6239e-07
-4.40591e-06
-2.68749e-07
-1.20099e-06
-8.43371e-08
-4.11098e-09
-2.30889e-06
-2.49763e-07
-1.227e-08
-3.31722e-06
-4.10693e-07
-2.05373e-08
-4.25504e-06
-5.73472e-07
-2.94887e-08
-5.14559e-06
-7.46302e-07
-3.97927e-08
-6.00838e-06
-9.36823e-07
-5.21318e-08
-6.85825e-06
-1.15248e-06
-6.72351e-08
-7.70485e-06
-1.40065e-06
-8.58775e-08
-8.55231e-06
-1.68869e-06
-1.08826e-07
-9.39498e-06
-2.02319e-06
-1.3667e-07
-1.02158e-05
-2.40888e-06
-1.69514e-07
-1.09849e-05
-2.84607e-06
-2.06424e-07
-1.16499e-05
-3.3242e-06
-2.44532e-07
-1.21401e-05
-3.81327e-06
-2.78485e-07
-1.23922e-05
-4.2559e-06
-3.01416e-07
-4.59879e-06
-3.12994e-07
-1.42579e-06
-9.2041e-08
-4.73648e-09
-2.74014e-06
-2.72437e-07
-1.41109e-08
-3.93432e-06
-4.47317e-07
-2.35453e-08
-5.04251e-06
-6.22982e-07
-3.36675e-08
-6.09248e-06
-8.07724e-07
-4.51986e-08
-7.10732e-06
-1.00898e-06
-5.88542e-08
-8.10558e-06
-1.23362e-06
-7.53791e-08
-9.10119e-06
-1.4881e-06
-9.5553e-08
-1.0103e-05
-1.77821e-06
-1.20131e-07
-1.11121e-05
-2.10862e-06
-1.49679e-07
-1.21217e-05
-2.48191e-06
-1.84326e-07
-1.31115e-05
-2.89681e-06
-2.23288e-07
-1.40386e-05
-3.34371e-06
-2.63991e-07
-1.4828e-05
-3.79819e-06
-3.01354e-07
-1.5358e-05
-4.21329e-06
-3.27888e-07
-4.53474e-06
-3.48634e-07
-1.62858e-06
-9.60402e-08
-5.22359e-09
-3.12895e-06
-2.84096e-07
-1.55323e-08
-4.48975e-06
-4.65737e-07
-2.58319e-08
-5.74929e-06
-6.46927e-07
-3.67715e-08
-6.93885e-06
-8.35608e-07
-4.90848e-08
-8.0845e-06
-1.03862e-06
-6.34813e-08
-9.20798e-06
-1.26195e-06
-8.06869e-08
-1.03267e-05
-1.5106e-06
-1.01438e-07
-1.14537e-05
-1.7884e-06
-1.26423e-07
-1.25969e-05
-2.09749e-06
-1.56148e-07
-1.37591e-05
-2.43752e-06
-1.90735e-07
-1.49324e-05
-2.80442e-06
-2.29568e-07
-1.60917e-05
-3.18838e-06
-2.70605e-07
-1.71788e-05
-3.57122e-06
-3.09714e-07
-1.80472e-05
-3.92699e-06
-3.39976e-07
-4.24338e-06
-3.77805e-07
-1.80814e-06
-5.57631e-09
-9.63792e-08
-3.47237e-06
-1.65471e-08
-2.84926e-07
-4.97881e-06
-2.74227e-08
-4.66403e-07
-6.36892e-06
-3.88464e-08
-6.46227e-07
-7.67655e-06
-5.15368e-08
-8.31716e-07
-8.93006e-06
-6.61715e-08
-1.02889e-06
-1.01532e-05
-8.34223e-08
-1.24255e-06
-1.13654e-05
-1.03938e-07
-1.47617e-06
-1.25824e-05
-1.28292e-07
-1.73149e-06
-1.38159e-05
-1.56875e-07
-2.00798e-06
-1.50731e-05
-1.89706e-07
-2.30203e-06
-1.63532e-05
-2.26118e-07
-2.60558e-06
-1.76379e-05
-2.64203e-07
-2.90484e-06
-1.88711e-05
-3.00114e-07
-3.17804e-06
-1.98938e-05
-3.27115e-07
-3.39846e-06
-3.9357e-07
-3.44305e-06
-1.42456e-07
-2.13137e-08
-3.51561e-10
-2.74457e-07
-6.3299e-08
-1.05549e-09
-3.95224e-07
-1.04704e-07
-1.78223e-09
-5.08224e-07
-1.4753e-07
-2.58608e-09
-6.16229e-07
-1.9433e-07
-3.53316e-09
-7.2124e-07
-2.47658e-07
-4.69475e-09
-8.2452e-07
-3.1025e-07
-6.15051e-09
-9.26392e-07
-3.85174e-07
-7.98826e-09
-1.02581e-06
-4.75887e-07
-1.02963e-08
-1.1201e-06
-5.86196e-07
-1.31428e-08
-1.20432e-06
-7.19957e-07
-1.65343e-08
-1.27122e-06
-8.80383e-07
-2.035e-08
-1.31294e-06
-1.06892e-06
-2.42706e-08
-1.32533e-06
-1.28263e-06
-2.77684e-08
-1.31289e-06
-1.50262e-06
-3.02338e-08
-1.88697e-06
-3.28505e-08
-4.24685e-07
-4.14136e-08
-1.04623e-09
-8.18036e-07
-1.22947e-07
-3.13812e-09
-1.17774e-06
-2.03188e-07
-5.29199e-09
-1.51419e-06
-2.85896e-07
-7.66819e-09
-1.83572e-06
-3.75882e-07
-1.04602e-08
-2.14822e-06
-4.77875e-07
-1.38742e-08
-2.4556e-06
-5.96846e-07
-1.81381e-08
-2.75917e-06
-7.38297e-07
-2.35002e-08
-3.05616e-06
-9.08275e-07
-3.02054e-08
-3.33963e-06
-1.11325e-06
-3.84338e-08
-3.59587e-06
-1.35933e-06
-4.81773e-08
-3.80356e-06
-1.65023e-06
-5.90461e-08
-3.93806e-06
-1.98415e-06
-7.00598e-08
-3.98223e-06
-2.34795e-06
-7.96172e-08
-3.94451e-06
-2.70234e-06
-8.59394e-08
-3.07061e-06
-8.86795e-08
-6.99512e-07
-5.9412e-08
-1.70681e-09
-1.3469e-06
-1.76274e-07
-5.11252e-09
-1.93831e-06
-2.9094e-07
-8.60439e-09
-2.49092e-06
-4.08542e-07
-1.24391e-08
-3.01841e-06
-5.35643e-07
-1.69219e-08
-3.53074e-06
-6.78563e-07
-2.2372e-08
-4.03505e-06
-8.43853e-07
-2.91389e-08
-4.53451e-06
-1.03855e-06
-3.75962e-08
-5.02623e-06
-1.27012e-06
-4.81031e-08
-5.5011e-06
-1.54622e-06
-6.09076e-08
-5.93913e-06
-1.87317e-06
-7.59495e-08
-6.30856e-06
-2.25305e-06
-9.2563e-08
-6.56898e-06
-2.67884e-06
-1.09152e-07
-6.6847e-06
-3.12686e-06
-1.23143e-07
-6.65825e-06
-3.5449e-06
-1.31801e-07
-3.92671e-06
-1.32685e-07
-9.62758e-07
-7.45587e-08
-2.30878e-09
-1.85253e-06
-2.21017e-07
-6.90374e-09
-2.66404e-06
-3.64143e-07
-1.15887e-08
-3.421e-06
-5.10006e-07
-1.67006e-08
-4.14201e-06
-6.66354e-07
-2.26336e-08
-4.84178e-06
-8.40514e-07
-2.97923e-08
-5.53152e-06
-1.03989e-06
-3.86127e-08
-6.2172e-06
-1.27209e-06
-4.95511e-08
-6.89851e-06
-1.54484e-06
-6.30369e-08
-7.56629e-06
-1.86547e-06
-7.93502e-08
-8.19841e-06
-2.23918e-06
-9.8386e-08
-8.76029e-06
-2.66623e-06
-1.19301e-07
-9.20129e-06
-3.13597e-06
-1.40091e-07
-9.46621e-06
-3.61885e-06
-1.57519e-07
-9.53596e-06
-4.05848e-06
-1.68155e-07
-4.4234e-06
-1.70325e-07
-1.20961e-06
-8.62203e-08
-2.83181e-09
-2.32593e-06
-2.55389e-07
-8.45183e-09
-3.34218e-06
-4.20055e-07
-1.41453e-08
-4.28809e-06
-5.86724e-07
-2.03083e-08
-5.18713e-06
-7.63786e-07
-2.73988e-08
-6.05874e-06
-9.58968e-07
-3.58783e-08
-6.91824e-06
-1.17972e-06
-4.62294e-08
-7.77535e-06
-1.43331e-06
-5.89489e-08
-8.63416e-06
-1.72671e-06
-7.45013e-08
-9.48877e-06
-2.06583e-06
-9.31807e-08
-1.03218e-05
-2.45428e-06
-1.14886e-07
-1.1103e-05
-2.89098e-06
-1.38773e-07
-1.17795e-05
-3.36418e-06
-1.62742e-07
-1.22797e-05
-3.84396e-06
-1.83277e-07
-1.25385e-05
-4.27561e-06
-1.96332e-07
-4.61083e-06
-2.02378e-07
-1.43596e-06
-9.4094e-08
-3.26267e-09
-2.76003e-06
-2.78551e-07
-9.71985e-09
-3.96342e-06
-4.57463e-07
-1.62176e-08
-5.08092e-06
-6.37308e-07
-2.3188e-08
-6.14055e-06
-8.26567e-07
-3.11257e-08
-7.16561e-06
-1.03277e-06
-4.05178e-08
-8.17497e-06
-1.2628e-06
-5.18596e-08
-9.18263e-06
-1.52292e-06
-6.56543e-08
-1.01973e-05
-1.81857e-06
-8.23694e-08