/*--------------------------------*- C++ -*----------------------------------*\
| =========                 |                                                 |
| \\      /  F ield         | foam-extend: Open Source CFD                    |
|  \\    /   O peration     | Version:     3.1                                |
|   \\  /    A nd           | Web:         http://www.extend-project.de       |
|    \\/     M anipulation  |                                                 |
\*---------------------------------------------------------------------------*/
FoamFile
{
    version     2.0;
    format      ascii;
    class       volScalarField;
    location    "1.3";
    object      p;
}
// * * * * * * * * * * * * * * * * * * * * * * * * * * * * * * * * * * * * * //

dimensions      [0 2 -2 0 0 0 0];

internalField   nonuniform List<scalar> 
14592
(
0.0377288
0.0377312
0.0378933
0.0380627
0.038151
0.038135
0.0380288
0.0378598
0.0376565
0.0374373
0.0372042
0.0369418
0.0366049
0.0360992
0.0352376
0.0338527
0.0376082
0.0375307
0.0376849
0.0378906
0.0380239
0.0380486
0.0379752
0.0378333
0.0376531
0.037456
0.0372507
0.0370278
0.0367515
0.0363347
0.0355075
0.033655
0.0374462
0.0372952
0.0374286
0.0376747
0.0378589
0.0379248
0.0378809
0.0377596
0.0375974
0.0374216
0.0372494
0.0370813
0.0368916
0.0365954
0.0358541
0.033603
0.0373169
0.0371118
0.0372048
0.0374675
0.0376855
0.0377783
0.0377515
0.037639
0.0374828
0.0373146
0.0371601
0.0370305
0.0369122
0.0367296
0.0361312
0.0337081
0.0372274
0.0369887
0.0370334
0.0372871
0.0375169
0.0376194
0.0375947
0.0374777
0.0373097
0.0371285
0.0369661
0.0368428
0.0367619
0.0366712
0.0362689
0.0338789
0.0371565
0.0369013
0.036904
0.0371342
0.0373572
0.0374522
0.0374138
0.0372772
0.0370771
0.0368582
0.036654
0.0364914
0.0363939
0.0363426
0.0361597
0.0339518
0.0370789
0.0368165
0.0367888
0.0369928
0.0371979
0.0372729
0.0372112
0.037035
0.036787
0.0365046
0.036219
0.0359551
0.0357516
0.0356116
0.0355954
0.0334841
0.0369767
0.0367112
0.0366653
0.0368488
0.037034
0.0370852
0.0369846
0.0367624
0.0364521
0.0360838
0.0356785
0.0352406
0.0347955
0.0342552
0.0341223
0.0305928
0.0379447
0.0379442
0.0381208
0.0383173
0.0384391
0.0384626
0.0384062
0.0383041
0.038192
0.0380981
0.0380364
0.0380093
0.038001
0.0379589
0.0378273
0.0378252
0.0378266
0.0377378
0.0379003
0.0381326
0.038302
0.0383702
0.0383509
0.0382803
0.0381966
0.0381307
0.038104
0.0381253
0.0381868
0.0382348
0.038145
0.0382319
0.0376724
0.0375068
0.0376419
0.0379121
0.0381328
0.0382437
0.0382561
0.0382086
0.0381463
0.0381067
0.0381212
0.0382107
0.0383805
0.0385808
0.0386306
0.0388498
0.0375574
0.0373391
0.0374284
0.0377098
0.0379616
0.0380975
0.0381256
0.0380863
0.0380303
0.038
0.0380375
0.0381768
0.0384401
0.0387951
0.0390231
0.0394291
0.0374855
0.0372377
0.0372751
0.0375403
0.0377981
0.0379388
0.0379648
0.0379166
0.037846
0.0378002
0.037829
0.0379786
0.0382909
0.0387662
0.0391786
0.0398057
0.0374302
0.0371704
0.0371641
0.0373985
0.0376417
0.037768
0.0377745
0.0377013
0.03759
0.0374984
0.0374766
0.0375785
0.0378663
0.0383817
0.0389292
0.0397117
0.037361
0.0370974
0.0370596
0.0372614
0.037479
0.0375759
0.0375527
0.0374312
0.0372618
0.0370931
0.0369714
0.0369466
0.0370911
0.0374724
0.0379852
0.0383668
0.0372566
0.0369909
0.0369339
0.0371107
0.0373029
0.0373726
0.0372982
0.0371202
0.0368759
0.0366026
0.0363325
0.036088
0.0359144
0.035772
0.0358705
0.0330833
0.0381684
0.0381667
0.0383585
0.0385822
0.0387368
0.0387983
0.0387888
0.0387483
0.0387184
0.0387353
0.0388191
0.0389808
0.0392158
0.0394897
0.0397783
0.0401971
0.0380534
0.0379563
0.0381286
0.0383875
0.038592
0.0387017
0.0387333
0.0387284
0.0387321
0.0387815
0.038905
0.0391188
0.039422
0.0397707
0.0401125
0.0406716
0.037908
0.0377317
0.0378713
0.038166
0.0384223
0.038576
0.0386409
0.0386614
0.0386891
0.0387684
0.038938
0.0392256
0.0396425
0.0401451
0.0406473
0.0414269
0.0378077
0.0375807
0.0376706
0.0379722
0.0382569
0.0384335
0.0385125
0.03854
0.0385738
0.0386629
0.0388577
0.0391993
0.0397157
0.040377
0.0410663
0.042108
0.0377532
0.0375008
0.0375368
0.0378162
0.0381015
0.0382782
0.0383507
0.0383644
0.0383804
0.0384508
0.0386342
0.0389848
0.0395495
0.0403243
0.0411705
0.0424626
0.037713
0.0374528
0.0374445
0.037687
0.0379508
0.0381062
0.0381534
0.0381372
0.0381033
0.0381195
0.0382436
0.0385362
0.0390622
0.0398482
0.040743
0.0421203
0.0376516
0.0373906
0.0373507
0.0375554
0.0377861
0.0379027
0.037914
0.0378404
0.037739
0.0376659
0.0376739
0.0378182
0.0381682
0.0387615
0.0394467
0.0401339
0.0375448
0.0372827
0.0372227
0.0373984
0.0375987
0.0376852
0.0376323
0.0374921
0.0373041
0.03711
0.0369462
0.0368365
0.0368153
0.0367994
0.0368512
0.0335928
0.0383843
0.0383825
0.0385892
0.0388386
0.0390238
0.0391199
0.039152
0.039165
0.0392047
0.0393124
0.0395107
0.0398129
0.0402158
0.0406899
0.0412096
0.0417752
0.0382726
0.0381695
0.038352
0.038636
0.0388732
0.0390206
0.0390975
0.0391496
0.0392272
0.0393708
0.0396117
0.0399669
0.0404339
0.0409695
0.0415367
0.0422243
0.0381358
0.037952
0.0380977
0.0384159
0.0387053
0.0388977
0.0390093
0.0390885
0.039192
0.0393676
0.0396567
0.0400863
0.0406638
0.0413429
0.0420633
0.0429814
0.0380494
0.0378169
0.0379103
0.038232
0.0385475
0.0387612
0.0388851
0.0389698
0.0390786
0.0392634
0.039577
0.0400596
0.0407334
0.0415611
0.0424545
0.043649
0.0380111
0.0377567
0.0377952
0.0380902
0.0384017
0.038611
0.0387241
0.0387899
0.0388781
0.0390402
0.0393384
0.0398251
0.0405398
0.0414636
0.0424803
0.0439238
0.0379844
0.0377261
0.0377204
0.0379738
0.0382578
0.0384397
0.038522
0.0385541
0.0385826
0.0386828
0.0389132
0.0393313
0.0399914
0.0408953
0.0418962
0.0433605
0.0379298
0.0376733
0.0376362
0.0378476
0.0380923
0.0382279
0.0382673
0.0382331
0.0381862
0.0381865
0.0382874
0.0385396
0.0389977
0.0396613
0.0403398
0.0409391
0.0378206
0.0375636
0.0375061
0.0376851
0.0378943
0.0379943
0.0379603
0.0378506
0.037707
0.0375731
0.0374844
0.0374581
0.0375098
0.0375075
0.037426
0.0336449
0.0385775
0.0385762
0.0387963
0.0390682
0.0392802
0.039406
0.0394729
0.0395295
0.0396242
0.0398018
0.0400845
0.0404847
0.040997
0.0415902
0.0422302
0.0428483
0.038469
0.0383616
0.0385536
0.0388598
0.0391252
0.039305
0.0394196
0.0395182
0.0396545
0.0398701
0.040197
0.0406499
0.0412218
0.0418668
0.0425443
0.0432688
0.03834
0.0381508
0.0383029
0.038642
0.0389602
0.0391858
0.0393363
0.0394632
0.0396265
0.0398753
0.0402505
0.0407759
0.041452
0.0422276
0.0430445
0.0440023
0.0382657
0.0380297
0.0381277
0.0384679
0.0388105
0.0390558
0.039217
0.0393478
0.0395154
0.0397718
0.0401696
0.0407445
0.0415101
0.0424204
0.0433906
0.0446308
0.0382412
0.0379865
0.0380293
0.0383393
0.0386742
0.0389114
0.0390579
0.0391647
0.0393092
0.0395391
0.039917
0.0404899
0.041287
0.0422754
0.0433386
0.0448272
0.038226
0.0379704
0.0379694
0.0382346
0.0385371
0.0387417
0.0388528
0.0389236
0.0389987
0.0391599
0.0394624
0.0399572
0.0406859
0.0416293
0.0426349
0.0440899
0.038177
0.0379253
0.0378934
0.0381134
0.0383714
0.0385233
0.0385853
0.0385817
0.0385753
0.038628
0.0387908
0.0391065
0.039614
0.0402832
0.0408968
0.0413681
0.0380653
0.0378138
0.0377612
0.037946
0.0381643
0.0382759
0.0382566
0.0381699
0.0380588
0.0379671
0.0379274
0.037948
0.0380266
0.0379927
0.0377707
0.0335688
0.0387352
0.0387347
0.0389657
0.0392559
0.0394893
0.0396385
0.0397324
0.0398217
0.0399567
0.0401843
0.040525
0.0409895
0.0415688
0.0422295
0.0429297
0.0435637
0.0386293
0.0385192
0.0387191
0.0390433
0.0393314
0.0395366
0.0396804
0.039814
0.0399934
0.0402602
0.0406459
0.0411623
0.0417976
0.0425029
0.0432315
0.0439628
0.0385066
0.0383141
0.0384718
0.0388281
0.0391694
0.0394211
0.0396015
0.0397643
0.0399713
0.0402717
0.0407051
0.0412913
0.0420247
0.0428498
0.0437057
0.0446782
0.0384421
0.0382042
0.0383069
0.0386624
0.039027
0.0392971
0.0394869
0.039652
0.0398622
0.0401687
0.0406223
0.0412539
0.0420696
0.0430169
0.0440077
0.0452703
0.0384284
0.0381743
0.0382217
0.0385448
0.0388989
0.0391581
0.0393299
0.0394664
0.039652
0.0399285
0.040358
0.0409821
0.0418208
0.0428313
0.0438911
0.0454065
0.0384221
0.0381695
0.0381737
0.0384496
0.0387677
0.0389901
0.0391231
0.0392229
0.0393302
0.0395323
0.0398804
0.040419
0.0411787
0.0421268
0.0431054
0.0445385
0.0383773
0.0381302
0.0381039
0.0383325
0.0386022
0.0387667
0.0388459
0.0388643
0.0388857
0.0389732
0.0391741
0.0395241
0.0400496
0.0407009
0.0412449
0.041611
0.0382635
0.038017
0.03797
0.0381612
0.0383879
0.0385091
0.0385001
0.0384293
0.0383403
0.038276
0.0382657
0.0383099
0.0383922
0.0383157
0.0379779
0.0334709
0.0388467
0.0388479
0.0390871
0.0393903
0.0396387
0.0398041
0.0399161
0.0400272
0.0401884
0.0404479
0.0408247
0.0413276
0.041945
0.0426412
0.0433692
0.0440069
0.0387428
0.0386325
0.038839
0.0391764
0.0394806
0.0397034
0.0398669
0.0400237
0.0402312
0.0405307
0.0409528
0.041507
0.0421781
0.0429145
0.0436639
0.0443913
0.0386245
0.0384313
0.0385944
0.0389639
0.0393219
0.0395918
0.0397924
0.0399788
0.0402142
0.0405471
0.0410162
0.0416381
0.0424026
0.0432514
0.0441208
0.0451022
0.0385666
0.038329
0.0384363
0.0388042
0.0391852
0.0394728
0.0396817
0.0398693
0.040107
0.0404447
0.0409319
0.0415958
0.0424372
0.043399
0.0443885
0.0456682
0.0385602
0.038308
0.03836
0.0386941
0.0390631
0.039338
0.0395267
0.0396824
0.0398942
0.0401994
0.0406593
0.0413115
0.0421696
0.0431842
0.0442263
0.045765
0.0385599
0.0383107
0.0383199
0.0386053
0.0389361
0.0391716
0.0393192
0.0394376
0.0395647
0.0397916
0.040166
0.0407275
0.0414996
0.0424411
0.0433909
0.0448066
0.0385179
0.0382752
0.0382542
0.0384908
0.0387707
0.0389449
0.0390353
0.0390676
0.039106
0.0392139
0.0394362
0.0398032
0.0403326
0.0409636
0.0414533
0.0417461
0.0384025
0.0381607
0.0381188
0.0383167
0.0385513
0.0386798
0.0386777
0.0386166
0.0385407
0.0384923
0.0384979
0.0385525
0.0386302
0.0385181
0.0380966
0.0333947
0.0389016
0.0389023
0.0391435
0.0394526
0.0397085
0.0398824
0.0400038
0.0401257
0.0402996
0.0405742
0.0409674
0.0414872
0.0421205
0.0428307
0.043569
0.0442097
0.0387983
0.0386866
0.0388934
0.0392363
0.0395483
0.0397798
0.0399532
0.0401214
0.0403423
0.040657
0.0410956
0.041666
0.0423516
0.0430998
0.043857
0.0445875
0.0386822
0.0384879
0.0386497
0.0390236
0.0393895
0.0396685
0.0398791
0.0400773
0.0403264
0.0406745
0.0411594
0.0417961
0.0425724
0.0434287
0.044302
0.0452927
0.0386275
0.03839
0.0384953
0.0388666
0.0392551
0.0395514
0.0397699
0.0399686
0.0402196
0.0405718
0.0410737
0.0417508
0.042601
0.0435649
0.0445493
0.0458498
0.0386249
0.0383738
0.038424
0.0387603
0.0391359
0.0394184
0.0396156
0.0397812
0.0400052
0.0403237
0.0407968
0.0414601
0.0423239
0.0433351
0.044363
0.0459301
0.0386276
0.0383803
0.0383881
0.0386747
0.0390108
0.0392527
0.0394075
0.0395349
0.039672
0.0399102
0.0402958
0.040866
0.0416404
0.0425738
0.0435068
0.0449227
0.0385871
0.0383468
0.0383246
0.0385615
0.0388455
0.0390249
0.0391204
0.0391596
0.0392063
0.0393236
0.0395549
0.0399277
0.0404556
0.0410722
0.0415304
0.0417786
0.038471
0.0382317
0.0381887
0.038386
0.0386235
0.0387552
0.0387569
0.0387008
0.0386314
0.0385904
0.0386028
0.0386608
0.0387332
0.0386011
0.0381098
0.0333113
0.0373421
0.0374547
0.0375707
0.0375928
0.0374864
0.0372418
0.0368612
0.0363499
0.03571
0.0349379
0.0340221
0.0329446
0.0316821
0.0302147
0.0285303
0.0266532
0.0373062
0.0374404
0.0375842
0.0376229
0.0375231
0.0372781
0.036893
0.0363753
0.0357289
0.0349504
0.0340303
0.0329487
0.031683
0.0302139
0.0285263
0.0266473
0.0372461
0.0373946
0.0375719
0.0376385
0.0375535
0.0373117
0.0369219
0.0363958
0.0357401
0.0349537
0.0340255
0.0329401
0.0316745
0.0302102
0.0285289
0.0266617
0.037173
0.0373218
0.0375231
0.0376155
0.0375462
0.037309
0.0369154
0.0363807
0.0357143
0.0349173
0.0339813
0.0328912
0.0316249
0.0301656
0.0284924
0.0266376
0.0370926
0.0372352
0.0374504
0.0375618
0.037505
0.037271
0.0368732
0.0363296
0.0356521
0.0348437
0.0338982
0.0328016
0.0315334
0.0300783
0.0284156
0.0265791
0.0370098
0.0371462
0.037369
0.0374925
0.037443
0.037209
0.0368052
0.0362511
0.035561
0.03474
0.0337832
0.0326787
0.0314077
0.0299574
0.0283087
0.0264964
0.0369291
0.0370613
0.0372879
0.0374172
0.0373697
0.0371321
0.0367194
0.0361531
0.0354492
0.0346141
0.0336449
0.0325315
0.0312577
0.0298135
0.0281836
0.0264024
0.0368551
0.036985
0.0372121
0.0373417
0.0372909
0.037046
0.0366225
0.036043
0.0353244
0.0344747
0.0334925
0.0323702
0.0310945
0.0296587
0.0280525
0.0263092
0.0372766
0.0373786
0.0374968
0.0375257
0.0374284
0.0371928
0.0368196
0.0363141
0.0356786
0.0349091
0.0339933
0.0329139
0.0316446
0.0301645
0.0284579
0.0265552
0.0372109
0.0373187
0.0374609
0.0375085
0.0374235
0.0371937
0.0368214
0.0363134
0.0356735
0.0348995
0.0339795
0.0328936
0.0316183
0.0301345
0.0284228
0.0265217
0.0371264
0.0372324
0.0374044
0.0374831
0.0374183
0.0371974
0.0368252
0.0363124
0.0356659
0.0348837
0.0339564
0.0328669
0.0315908
0.0301111
0.0284037
0.0265136
0.0370409
0.0371331
0.0373249
0.0374318
0.0373871
0.037175
0.0368027
0.0362841
0.035629
0.0348381
0.0339035
0.0328097
0.0315327
0.0300577
0.0283569
0.0264802
0.0369544
0.0370291
0.0372306
0.0373586
0.0373297
0.0371244
0.0367508
0.0362264
0.0355616
0.0347608
0.0338174
0.0327178
0.0314391
0.0299687
0.0282778
0.026419
0.0368681
0.0369285
0.0371341
0.0372757
0.0372569
0.0370541
0.0366782
0.0361443
0.0354685
0.0346561
0.0337024
0.0325955
0.0313148
0.0298498
0.0281737
0.0263399
0.0367847
0.0368362
0.0370432
0.0371918
0.0371772
0.036974
0.0365893
0.0360449
0.0353563
0.0345308
0.0335654
0.0324504
0.0311679
0.0297104
0.0280552
0.0262543
0.0367107
0.0367562
0.036963
0.0371126
0.0370957
0.0368857
0.0364917
0.0359348
0.0352323
0.0343927
0.0334151
0.032292
0.0310089
0.0295615
0.0279334
0.0261729
0.0372145
0.0373016
0.0374252
0.0374684
0.0373883
0.0371706
0.0368157
0.0363293
0.0357137
0.0349647
0.0340684
0.0330002
0.0317268
0.030217
0.0284372
0.0264229
0.0371258
0.0372057
0.0373531
0.0374202
0.0373586
0.0371524
0.036803
0.0363178
0.0357005
0.0349501
0.0340491
0.0329757
0.0316964
0.0301828
0.0283933
0.0263777
0.0370123
0.0370758
0.0372514
0.0373561
0.0373222
0.0371314
0.0367873
0.0363012
0.0356816
0.0349236
0.0340178
0.032942
0.0316621
0.0301529
0.0283637
0.0263599
0.0369042
0.0369405
0.0371314
0.0372696
0.0372622
0.037086
0.0367463
0.0362571
0.0356315
0.0348673
0.0339555
0.0328763
0.0315956
0.0300908
0.0283048
0.0263131
0.0368027
0.0368106
0.0370052
0.0371675
0.0371811
0.0370164
0.0366796
0.0361886
0.0355532
0.03478
0.03386
0.0327751
0.0314925
0.0299921
0.0282145
0.0262413
0.0367069
0.0366926
0.0368858
0.0370631
0.0370903
0.0369318
0.0365941
0.0360951
0.0354503
0.0346658
0.033735
0.0326423
0.031357
0.0298625
0.0281013
0.0261571
0.0366176
0.0365891
0.0367796
0.0369645
0.0369978
0.0368399
0.0364961
0.0359868
0.0353292
0.0345308
0.033587
0.0324848
0.031197
0.0297108
0.0279753
0.0260721
0.0365385
0.0365023
0.0366907
0.036877
0.0369092
0.0367454
0.0363919
0.0358698
0.0351972
0.0343831
0.033425
0.0323126
0.0310232
0.0295483
0.0278475
0.0259959
0.0371862
0.0372537
0.0373812
0.0374417
0.0373839
0.0371911
0.0368642
0.0364095
0.0358296
0.035121
0.034264
0.0332265
0.0319603
0.0304121
0.028511
0.0262858
0.0370837
0.0371312
0.0372813
0.0373706
0.0373369
0.0371608
0.0368435
0.0363938
0.0358169
0.0351076
0.0342483
0.0332079
0.0319368
0.0303863
0.0284714
0.0262477
0.0369458
0.0369631
0.0371372
0.03727
0.0372712
0.0371169
0.0368104
0.0363638
0.0357864
0.0350743
0.034213
0.0331726
0.0319021
0.0303568
0.0284349
0.0262186
0.0368159
0.0367954
0.0369775
0.0371474
0.0371813
0.0370472
0.0367497
0.0363039
0.0357235
0.0350068
0.034141
0.0330983
0.0318271
0.0302853
0.0283596
0.0261501
0.0366994
0.0366432
0.0368206
0.0370154
0.0370744
0.036956
0.0366647
0.0362188
0.0356306
0.0349056
0.0340316
0.0329829
0.0317087
0.0301706
0.02825
0.02606
0.0365944
0.0365113
0.0366795
0.0368887
0.0369636
0.0368537
0.0365629
0.0361105
0.0355124
0.0347751
0.0338886
0.03283
0.0315514
0.0300191
0.0281168
0.0259645
0.0364989
0.0363988
0.0365589
0.0367742
0.0368558
0.0367475
0.0364514
0.0359879
0.0353755
0.0346216
0.0337186
0.0326467
0.0313626
0.0298388
0.0279696
0.0258744
0.036414
0.0363052
0.0364605
0.0366763
0.0367574
0.0366425
0.0363357
0.0358576
0.0352273
0.0344538
0.0335315
0.0324439
0.031154
0.029641
0.0278176
0.0257958
0.037201
0.0372479
0.0373778
0.0374567
0.0374242
0.0372613
0.0369697
0.0365573
0.0360282
0.0353788
0.0345845
0.0336038
0.0323668
0.0307842
0.0287238
0.0261705
0.0370892
0.0371022
0.0372505
0.037362
0.0373589
0.0372179
0.0369406
0.0365372
0.0360147
0.0353669
0.0345732
0.0335921
0.0323515
0.0307678
0.0286904
0.0261486
0.0369335
0.0369034
0.0370679
0.0372259
0.037264
0.0371508
0.0368893
0.0364933
0.0359735
0.0353269
0.0345346
0.0335563
0.0323173
0.0307361
0.0286399
0.0260911
0.0367886
0.0367127
0.036875
0.0370702
0.0371451
0.0370568
0.0368084
0.0364165
0.0358964
0.0352472
0.0344522
0.0334727
0.0322323
0.0306503
0.028538
0.0259847
0.0366635
0.0365477
0.0366948
0.0369121
0.0370141
0.036944
0.0367041
0.0363136
0.0357868
0.0351294
0.0343258
0.0333393
0.0320941
0.0305131
0.0284003
0.025869
0.0365544
0.03641
0.0365391
0.0367665
0.0368842
0.0368235
0.0365845
0.0361875
0.0356495
0.0349775
0.0341585
0.0331587
0.031906
0.0303303
0.0282387
0.0257631
0.0364557
0.036294
0.0364087
0.0366382
0.0367614
0.0367017
0.036457
0.0360467
0.035491
0.034798
0.0339567
0.0329372
0.0316738
0.0301071
0.0280586
0.0256721
0.0363647
0.0361952
0.0363019
0.0365296
0.0366513
0.0365834
0.0363256
0.0358977
0.0353197
0.0346005
0.0337314
0.0326867
0.0314092
0.0298521
0.0278638
0.02559
0.0372644
0.037294
0.0374275
0.037526
0.0375209
0.0373914
0.0371406
0.0367795
0.0363157
0.0357453
0.0350428
0.0341564
0.0329907
0.0313968
0.029142
0.0260644
0.0371465
0.0371288
0.037275
0.0374084
0.0374376
0.0373351
0.0371033
0.0367554
0.0363011
0.0357363
0.0350383
0.0341549
0.0329862
0.0313809
0.0290837
0.0259649
0.0369805
0.036909
0.0370615
0.037242
0.0373168
0.0372471
0.0370356
0.036699
0.0362511
0.0356914
0.0349993
0.0341228
0.0329562
0.0313365
0.0289819
0.0257644
0.0368293
0.0367066
0.0368457
0.0370603
0.0371739
0.0371318
0.0369364
0.0366064
0.0361605
0.0356003
0.034908
0.0340326
0.0328641
0.0312297
0.0288298
0.0255466
0.0367038
0.03654
0.0366532
0.0368838
0.0370235
0.0370002
0.0368139
0.036486
0.0360333
0.0354644
0.034763
0.03388
0.0327057
0.0310656
0.0286541
0.025376
0.0365972
0.0364057
0.0364924
0.0367259
0.0368785
0.036863
0.0366758
0.0363406
0.0358741
0.0352871
0.0345658
0.0336648
0.0324797
0.0308442
0.0284605
0.0252668
0.0364996
0.036292
0.0363585
0.036588
0.0367427
0.036726
0.0365322
0.0361781
0.035689
0.0350741
0.0343216
0.0333905
0.0321866
0.0305626
0.0282453
0.025219
0.0364038
0.0361901
0.0362452
0.0364691
0.0366191
0.0365919
0.0363809
0.0360053
0.0354871
0.0348363
0.0340427
0.0330698
0.0318361
0.0302222
0.0280011
0.0252161
0.0373775
0.0373941
0.0375341
0.037654
0.0376782
0.0375846
0.0373793
0.0370772
0.0366916
0.0362222
0.0356465
0.0349099
0.0338972
0.0323853
0.0299501
0.0259874
0.0372564
0.0372137
0.0373595
0.0375155
0.0375782
0.0375166
0.0373348
0.0370505
0.0366781
0.036219
0.0356539
0.034928
0.0339198
0.0323788
0.0298043
0.0254112
0.0370869
0.0369818
0.037124
0.0373257
0.0374368
0.0374117
0.037254
0.0369843
0.0366223
0.0361731
0.035621
0.034912
0.033916
0.0323408
0.0296201
0.0247537
0.0369375
0.0367784
0.0368966
0.0371271
0.0372766
0.0372802
0.03714
0.0368786
0.0365203
0.0360732
0.0355255
0.0348248
0.0338361
0.0322359
0.0294253
0.02425
0.0368191
0.03662
0.0367028
0.0369413
0.0371135
0.0371342
0.0370021
0.0367421
0.0363762
0.0359194
0.0353628
0.0346564
0.0336679
0.032061
0.0292366
0.023945
0.0367209
0.0364968
0.0365461
0.0367787
0.0369585
0.0369834
0.036846
0.0365772
0.0361932
0.0357131
0.0351307
0.0344004
0.0334
0.0317995
0.0290321
0.0238157
0.0366281
0.0363903
0.0364145
0.0366357
0.0368124
0.0368319
0.0366869
0.0363904
0.0359765
0.0354589
0.0348322
0.034055
0.033021
0.0314278
0.028783
0.0238671
0.0365304
0.0362868
0.0362967
0.0365075
0.0366752
0.0366803
0.0365115
0.0361883
0.0357364
0.0351694
0.0344812
0.033632
0.0325307
0.0309198
0.0284493
0.0241318
0.0375354
0.0375432
0.0376928
0.0378365
0.0378919
0.0378365
0.0376798
0.0374428
0.037146
0.0367968
0.036383
0.035863
0.0351368
0.0339775
0.0318222
0.0272158
0.0374136
0.0373512
0.0374997
0.0376797
0.0377772
0.0377583
0.0376298
0.0374153
0.0371362
0.0368031
0.0364083
0.0359134
0.0352187
0.0340697
0.031719
0.0259813
0.037246
0.0371147
0.0372504
0.0374737
0.0376212
0.0376414
0.0375401
0.0373433
0.0370784
0.036761
0.0363891
0.0359296
0.0352806
0.0341424
0.0316365
0.0248789
0.0371046
0.0369186
0.0370211
0.0372671
0.0374511
0.0374996
0.037416
0.0372281
0.0369684
0.0366558
0.036295
0.0358582
0.0352454
0.0341268
0.0315721
0.024187
0.0369989
0.0367757
0.0368353
0.0370805
0.0372821
0.0373446
0.0372667
0.0370779
0.0368088
0.0364852
0.0361161
0.0356793
0.0350844
0.0339938
0.0314982
0.0238399
0.0369132
0.036669
0.0366898
0.0369201
0.0371225
0.0371839
0.0370975
0.0368944
0.0366009
0.0362473
0.0358451
0.0353774
0.0347707
0.033699
0.0313451
0.0237194
0.0368275
0.0365726
0.0365651
0.0367763
0.0369685
0.0370179
0.0369156
0.0366804
0.0363487
0.0359453
0.0354814
0.0349416
0.034272
0.0331709
0.0310116
0.0237382
0.0367275
0.0364681
0.0364441
0.0366398
0.0368178
0.0368482
0.036716
0.0364447
0.0360635
0.0355934
0.0350406
0.0343813
0.0335685
0.0323026
0.0303074
0.0237081
0.0368447
0.0365767
0.0365244
0.0366977
0.0368647
0.0368877
0.0367506
0.0364778
0.0360977
0.0356312
0.0350838
0.0344293
0.0336236
0.0323412
0.0303398
0.0232733
0.0367036
0.0364225
0.0363792
0.0365551
0.0367086
0.0367056
0.0365313
0.0362069
0.0357562
0.0351925
0.0345075
0.0336565
0.0325392
0.0308716
0.0282314
0.023537
0.0365533
0.0362776
0.0362605
0.0364487
0.0365907
0.0365616
0.0363496
0.0359749
0.0354584
0.0348092
0.0340133
0.0330295
0.0317579
0.0300806
0.0276788
0.0248333
0.0364415
0.0361835
0.0362093
0.0364112
0.0365364
0.0364764
0.0362245
0.0358007
0.0352251
0.0345061
0.0336311
0.0325714
0.0312529
0.0296465
0.0275271
0.0252311
0.0364022
0.0361819
0.0362598
0.0364637
0.036559
0.0364596
0.0361636
0.0356917
0.0350643
0.0342903
0.0333614
0.0322593
0.0309344
0.0293818
0.0274625
0.0253946
0.0364558
0.0362958
0.036417
0.0365987
0.0366473
0.0365001
0.0361581
0.0356422
0.0349725
0.0341582
0.0331949
0.0320706
0.0307536
0.0292451
0.0274742
0.0255726
0.0365884
0.036509
0.036652
0.0367899
0.0367819
0.0365841
0.0361999
0.0356498
0.034952
0.0341151
0.033136
0.0320053
0.0307018
0.0292261
0.0275449
0.0257369
0.0367121
0.0367183
0.0368709
0.036975
0.0369246
0.0366889
0.0362761
0.0357069
0.0349981
0.0341565
0.0331782
0.0320527
0.0307615
0.0293
0.0276473
0.0258567
0.0371112
0.0368418
0.0367758
0.0369395
0.0371094
0.0371443
0.0370281
0.0367902
0.0364622
0.0360694
0.0356225
0.0350998
0.0344546
0.0333073
0.0311588
0.0228364
0.0369413
0.0366587
0.0366
0.036766
0.0369217
0.0369278
0.0367698
0.0364721
0.0360606
0.0355499
0.0349318
0.0341551
0.033101
0.0313992
0.0284915
0.0228415
0.036762
0.036477
0.036443
0.0366239
0.0367702
0.03675
0.0365515
0.0361971
0.0357088
0.0350955
0.0343401
0.0333925
0.0321323
0.0303984
0.0278028
0.0246129
0.036616
0.0363436
0.0363532
0.0365534
0.0366868
0.0366372
0.036397
0.0359886
0.0354326
0.0347367
0.0338846
0.0328409
0.0315155
0.0298684
0.0276206
0.0251801
0.0365468
0.0363083
0.036374
0.036583
0.0366905
0.0366026
0.036317
0.0358564
0.0352417
0.0344816
0.0335645
0.0324676
0.0311296
0.0295435
0.02753
0.02536
0.0365799
0.036401
0.0365168
0.0367091
0.0367722
0.0366365
0.036303
0.0357947
0.0351324
0.0343257
0.0333673
0.0322421
0.0309099
0.0293712
0.0275304
0.0255507
0.0367029
0.0366091
0.0367543
0.0369061
0.0369122
0.0367241
0.036346
0.0358003
0.0351066
0.0342736
0.0332963
0.0321623
0.0308442
0.0293415
0.0276064
0.0257343
0.0368249
0.0368256
0.036987
0.037106
0.0370681
0.0368396
0.0364302
0.0358634
0.0351575
0.0343192
0.0333428
0.0322148
0.0309113
0.0294249
0.0277246
0.0258729
0.0373858
0.0371196
0.037048
0.0372075
0.0373813
0.0374257
0.037326
0.037117
0.0368328
0.0365009
0.0361326
0.0357009
0.0351395
0.0339936
0.0316338
0.0223462
0.0371887
0.0369087
0.0368423
0.0370032
0.0371613
0.0371741
0.0370282
0.0367517
0.0363723
0.035905
0.0353389
0.0346127
0.0335855
0.0318121
0.0286626
0.022338
0.0369824
0.0366918
0.0366477
0.036825
0.036975
0.0369611
0.0367721
0.036433
0.0359673
0.0353829
0.0346587
0.0337348
0.032471
0.0306682
0.0278932
0.0244119
0.0368026
0.0365204
0.0365196
0.03672
0.0368605
0.0368184
0.0365864
0.0361891
0.0356482
0.0349703
0.0341354
0.0331009
0.031762
0.0300672
0.0276965
0.025119
0.0367039
0.0364518
0.0365095
0.0367242
0.0368424
0.0367634
0.0364851
0.0360322
0.0354268
0.034677
0.033768
0.0326725
0.0313185
0.029696
0.0275932
0.0253279
0.0367162
0.0365226
0.0366353
0.0368382
0.0369141
0.0367876
0.0364602
0.0359566
0.0352993
0.0344974
0.0335415
0.0324132
0.0310647
0.0294951
0.0275884
0.0255351
0.0368287
0.0367236
0.0368722
0.0370373
0.0370562
0.0368763
0.0365023
0.0359588
0.0352671
0.034436
0.0334586
0.0323199
0.0309866
0.0294569
0.0276705
0.0257374
0.0369483
0.0369453
0.037116
0.0372496
0.0372233
0.0370008
0.0365934
0.0360271
0.0353221
0.0344852
0.033509
0.0323771
0.0310605
0.0295494
0.0278034
0.0258935
0.0376487
0.0373878
0.037316
0.0374759
0.0376546
0.037707
0.0376204
0.0374338
0.0371835
0.0368973
0.0365839
0.0362066
0.0356783
0.0344799
0.0319044
0.021843
0.0374267
0.0371515
0.037083
0.0372429
0.0374042
0.0374221
0.0372851
0.0370244
0.0366693
0.036234
0.0357039
0.0350062
0.0339803
0.0321232
0.0287614
0.0219243
0.0371971
0.0369029
0.0368539
0.0370305
0.0371845
0.0371752
0.0369926
0.0366644
0.0362152
0.0356518
0.0349487
0.0340362
0.0327579
0.0308843
0.027952
0.0242349
0.0369858
0.0366968
0.03669
0.0368924
0.0370395
0.037003
0.0367765
0.0363866
0.0358563
0.0351912
0.0343672
0.0333351
0.0319778
0.0302341
0.0277539
0.0250571
0.0368597
0.0365976
0.0366505
0.0368714
0.0369991
0.036927
0.0366536
0.0362056
0.0356064
0.0348632
0.0339586
0.0328609
0.0314888
0.02983
0.0276478
0.0252983
0.0368525
0.0366475
0.0367591
0.036972
0.0370593
0.0369403
0.036617
0.036116
0.0354613
0.0346618
0.0337062
0.0325729
0.0312076
0.0296083
0.0276425
0.0255235
0.0369547
0.0368409
0.0369934
0.037171
0.0372013
0.0370281
0.0366567
0.0361139
0.0354226
0.0345916
0.0336125
0.0324679
0.0311196
0.0295642
0.0277314
0.0257431
0.0370715
0.0370662
0.0372461
0.0373934
0.0373776
0.0371601
0.0367535
0.0361865
0.0354809
0.0346437
0.0336662
0.0325293
0.0311995
0.0296649
0.0278772
0.0259145
0.0378824
0.037627
0.0375579
0.0377209
0.0379052
0.0379643
0.0378873
0.0377172
0.0374911
0.0372364
0.0369582
0.0366093
0.036085
0.0348164
0.0320501
0.0213841
0.0376405
0.0373692
0.0373014
0.0374628
0.037628
0.0376501
0.037519
0.0372693
0.0369312
0.0365177
0.0360098
0.0353247
0.0342859
0.0323462
0.0288067
0.0215794
0.0373883
0.0370933
0.0370425
0.0372205
0.0373785
0.0373728
0.0371942
0.0368733
0.0364352
0.0358856
0.0351949
0.0342849
0.0329864
0.0310471
0.0279842
0.0240837
0.037151
0.0368577
0.0368477
0.0370532
0.0372061
0.0371739
0.0369508
0.0365656
0.0360421
0.0353849
0.0345666
0.0335322
0.0321547
0.0303656
0.027794
0.0249994
0.0370014
0.036732
0.0367823
0.0370093
0.0371451
0.0370785
0.0368082
0.0363631
0.0357673
0.0350277
0.0341245
0.033022
0.031632
0.02994
0.0276912
0.0252715
0.0369772
0.0367637
0.0368752
0.0370971
0.037194
0.0370811
0.0367604
0.0362606
0.0356068
0.0348079
0.0338508
0.0327115
0.0313303
0.0297043
0.0276886
0.0255142
0.0370702
0.0369497
0.0371063
0.0372947
0.0373348
0.0371671
0.0367973
0.0362542
0.0355621
0.03473
0.0337483
0.0325974
0.0312351
0.0296568
0.0277843
0.025749
0.0371844
0.0371777
0.0373658
0.037525
0.0375184
0.0373051
0.0368987
0.0363302
0.0356231
0.0347846
0.0338048
0.0326623
0.0313202
0.0297643
0.0279408
0.0259331
0.0380719
0.0378216
0.0377561
0.0379234
0.0381132
0.0381778
0.0381073
0.0379481
0.0377381
0.0375035
0.0372456
0.036909
0.0363756
0.0350409
0.032126
0.0210213
0.0378147
0.0375469
0.0374811
0.0376454
0.0378145
0.0378397
0.0377124
0.0374697
0.0371424
0.0367423
0.0362468
0.0355646
0.0345078
0.0324977
0.028822
0.0213147
0.0375443
0.0372494
0.0371987
0.0373791
0.037541
0.0375378
0.0373615
0.0370448
0.0366135
0.0360721
0.0353875
0.034475
0.033156
0.0311619
0.0279991
0.0239655
0.0372865
0.0369907
0.0369793
0.0371881
0.0373461
0.037317
0.0370957
0.036713
0.0361934
0.0355404
0.0347242
0.0336851
0.0322891
0.0304623
0.0278204
0.0249521
0.0371184
0.0368441
0.0368932
0.0371255
0.0372679
0.0372054
0.0369369
0.036493
0.0358988
0.0351607
0.034257
0.033149
0.0317432
0.0300236
0.0277233
0.0252494
0.0370805
0.036861
0.0369731
0.0372024
0.037307
0.0371986
0.0368795
0.0363799
0.0357259
0.0349265
0.0339672
0.032822
0.0314272
0.0297793
0.0277247
0.0255069
0.037166
0.0370409
0.037201
0.0373982
0.0374461
0.0372825
0.0369137
0.0363698
0.0356764
0.0348426
0.033858
0.0327013
0.031327
0.02973
0.0278263
0.0257541
0.037278
0.0372706
0.0374655
0.0376344
0.0376352
0.037425
0.0370185
0.0364484
0.0357394
0.0348991
0.0339166
0.0327689
0.0314162
0.029843
0.027991
0.0259478
0.0382048
0.0379593
0.0378976
0.0380701
0.0382658
0.0383349
0.0382686
0.0381157
0.037915
0.0376915
0.0374442
0.0371119
0.0365674
0.0351844
0.0321699
0.0207881
0.0379372
0.0376729
0.0376098
0.0377782
0.0379521
0.0379802
0.037855
0.037616
0.0372946
0.0369017
0.036412
0.0357288
0.0346564
0.0325951
0.0288261
0.021138
0.0376543
0.0373608
0.0373113
0.0374954
0.0376617
0.0376608
0.0374857
0.0371708
0.0367429
0.0362054
0.0355231
0.0346066
0.0332709
0.0312364
0.0280049
0.023885
0.0373824
0.0370862
0.0370753
0.0372882
0.037451
0.0374243
0.0372039
0.036822
0.0363039
0.0356526
0.0348363
0.0337922
0.0323817
0.0305274
0.0278382
0.0249215
0.0372016
0.0369254
0.036975
0.0372125
0.0373605
0.0373009
0.0370332
0.0365893
0.0359953
0.0352572
0.034352
0.033239
0.0318213
0.030082
0.027747
0.0252361
0.0371543
0.0369323
0.0370461
0.0372816
0.0373921
0.0372867
0.0369683
0.0364682
0.0358133
0.0350127
0.0340511
0.0329009
0.0314962
0.0298324
0.0277514
0.0255035
0.0372346
0.0371079
0.0372714
0.0374754
0.037529
0.0373681
0.0369995
0.0364545
0.0357596
0.0349241
0.0339368
0.0327754
0.0313926
0.029782
0.0278568
0.0257588
0.037345
0.0373381
0.0375382
0.0377141
0.03772
0.037512
0.0371052
0.0365335
0.0358227
0.0349807
0.0339959
0.032844
0.0314836
0.0298978
0.0280262
0.0259584
0.0382703
0.0380273
0.0379638
0.038135
0.0383327
0.038404
0.0383399
0.0381904