/*--------------------------------*- C++ -*----------------------------------*\
| =========                 |                                                 |
| \\      /  F ield         | foam-extend: Open Source CFD                    |
|  \\    /   O peration     | Version:     3.1                                |
|   \\  /    A nd           | Web:         http://www.extend-project.de       |
|    \\/     M anipulation  |                                                 |
\*---------------------------------------------------------------------------*/
FoamFile
{
    version     2.0;
    format      ascii;
    class       surfaceScalarField;
    location    "1.3";
    object      phi;
}
// * * * * * * * * * * * * * * * * * * * * * * * * * * * * * * * * * * * * * //

dimensions      [0 3 -1 0 0 0 0];

internalField   nonuniform List<scalar> 
41600
(
1.19397e-05
-1.7719e-07
-2.27287e-06
2.32116e-06
1.29042e-05
-1.12452e-06
-5.26644e-06
5.42646e-06
1.44002e-05
-1.67062e-06
-6.8865e-06
7.06114e-06
1.59728e-05
-1.70149e-06
-7.52823e-06
7.6571e-06
1.72857e-05
-1.38089e-06
-7.61461e-06
7.68254e-06
1.81975e-05
-9.27848e-07
-7.49739e-06
7.51349e-06
1.87092e-05
-4.92574e-07
-7.43409e-06
7.4149e-06
1.8878e-05
-1.30504e-07
-7.60461e-06
7.56633e-06
1.87806e-05
1.38733e-07
-8.14295e-06
8.10161e-06
1.8488e-05
3.19306e-07
-9.17605e-06
9.14933e-06
1.80589e-05
4.10497e-07
-1.08532e-05
1.08718e-05
1.7547e-05
3.78792e-07
-1.339e-05
1.35231e-05
1.69481e-05
1.58247e-07
-1.71067e-05
1.75473e-05
1.58955e-05
-3.29805e-07
-2.23219e-05
2.37044e-05
1.23243e-05
-8.68959e-07
-2.82971e-05
3.27372e-05
-1.01015e-06
-2.61779e-05
4.04808e-05
3.32352e-05
-4.59651e-07
-2.84261e-06
3.03621e-06
3.44439e-05
-2.90235e-06
-9.12599e-06
9.69514e-06
3.65562e-05
-4.46391e-06
-1.3504e-05
1.4185e-05
3.89757e-05
-4.72243e-06
-1.56727e-05
1.62741e-05
4.11363e-05
-3.99208e-06
-1.62401e-05
1.66907e-05
4.27098e-05
-2.80715e-06
-1.59786e-05
1.62845e-05
4.36061e-05
-1.58677e-06
-1.55338e-05
1.57317e-05
4.38732e-05
-5.28398e-07
-1.53679e-05
1.54987e-05
4.35913e-05
3.19663e-07
-1.58052e-05
1.59062e-05
4.28223e-05
9.78179e-07
-1.71037e-05
1.72138e-05
4.15781e-05
1.47897e-06
-1.95338e-05
1.97096e-05
3.97749e-05
1.82153e-06
-2.34523e-05
2.38127e-05
3.7083e-05
1.97293e-06
-2.93817e-05
3.0259e-05
3.2326e-05
1.87126e-06
-3.78399e-05
4.03958e-05
2.18804e-05
1.40969e-06
-4.73177e-05
5.54846e-05
-7.20304e-07
-4.12369e-05
6.56945e-05
5.12894e-05
-5.32519e-07
-2.0626e-06
2.28007e-06
5.13763e-05
-3.78713e-06
-8.90034e-06
9.69821e-06
5.21313e-05
-6.26376e-06
-1.4872e-05
1.59169e-05
5.34029e-05
-6.97543e-06
-1.84942e-05
1.94756e-05
5.47795e-05
-6.14317e-06
-1.98937e-05
2.06682e-05
5.58769e-05
-4.46012e-06
-1.98715e-05
2.04272e-05
5.64799e-05
-2.57467e-06
-1.92936e-05
1.96786e-05
5.652e-05
-8.42806e-07
-1.88391e-05
1.91133e-05
5.59958e-05
6.25474e-07
-1.89831e-05
1.92015e-05
5.48963e-05
1.86219e-06
-2.0076e-05
2.02916e-05
5.31498e-05
2.94207e-06
-2.24463e-05
2.27297e-05
5.05519e-05
3.92663e-06
-2.64974e-05
2.69902e-05
4.65828e-05
4.85673e-06
-3.28205e-05
3.39058e-05
3.96673e-05
5.72878e-06
-4.20911e-05
4.51491e-05
2.55204e-05
5.91289e-06
-5.28719e-05
6.25155e-05
1.01418e-06
-4.61799e-05
7.51254e-05
6.64496e-05
-4.85621e-07
-1.36926e-06
1.5465e-06
6.54404e-05
-3.65325e-06
-7.6861e-06
8.56147e-06
6.43956e-05
-6.47345e-06
-1.42889e-05
1.55433e-05
6.3734e-05
-7.54766e-06
-1.89359e-05
2.01697e-05
6.3457e-05
-6.85975e-06
-2.11233e-05
2.21169e-05
6.33321e-05
-5.05053e-06
-2.14543e-05
2.21697e-05
6.31089e-05
-2.84398e-06
-2.0883e-05
2.13755e-05
6.26089e-05
-6.89915e-07
-2.02465e-05
2.05935e-05
6.17245e-05
1.23866e-06
-2.01426e-05
2.04138e-05
6.03414e-05
2.98633e-06
-2.09893e-05
2.12482e-05
5.82988e-05
4.65856e-06
-2.31473e-05
2.34734e-05
5.52971e-05
6.38224e-06
-2.70387e-05
2.75849e-05
5.07079e-05
8.2785e-06
-3.32855e-05
3.44528e-05
4.27403e-05
1.04438e-05
-4.27044e-05
4.5957e-05
2.66268e-05
1.18053e-05
-5.41474e-05
6.43686e-05
4.39029e-06
-4.81961e-05
7.94465e-05
7.86836e-05
-4.32166e-07
-9.6965e-07
1.09809e-06
7.70432e-05
-2.89736e-06
-6.65707e-06
7.54161e-06
7.45885e-05
-5.39212e-06
-1.34308e-05
1.48042e-05
7.21221e-05
-6.48578e-06
-1.87165e-05
2.0121e-05
7.00855e-05
-5.96914e-06
-2.15011e-05
2.26472e-05
6.85232e-05
-4.30689e-06
-2.21307e-05
2.29494e-05
6.72623e-05
-2.13401e-06
-2.15705e-05
2.21214e-05
6.60848e-05
1.11303e-07
-2.07715e-05
2.11478e-05
6.47866e-05
2.25231e-06
-2.0433e-05
2.07176e-05
6.31656e-05
4.34256e-06
-2.10212e-05
2.1286e-05
6.09775e-05
6.518e-06
-2.29125e-05
2.32411e-05
5.78389e-05
8.97261e-06
-2.653e-05
2.70783e-05
5.30292e-05
1.1919e-05
-3.25019e-05
3.36712e-05
4.45528e-05
1.56521e-05
-4.17663e-05
4.50345e-05
2.70426e-05
1.89375e-05
-5.3506e-05
6.38839e-05
9.79629e-06
-4.86296e-05
8.14355e-05
8.78782e-05
-3.91773e-07
-7.63575e-07
8.54335e-07
8.59563e-05
-1.84927e-06
-5.98228e-06
6.85607e-06
8.26186e-05
-3.49919e-06
-1.27636e-05
1.42084e-05
7.88358e-05
-4.22755e-06
-1.84248e-05
1.99493e-05
7.53804e-05
-3.77195e-06
-2.16123e-05
2.28705e-05
7.25748e-05
-2.39397e-06
-2.24443e-05
2.3337e-05
7.038e-05
-5.2606e-07
-2.18618e-05
2.24487e-05
6.85986e-05
1.50703e-06
-2.08923e-05
2.12779e-05
6.6968e-05
3.60212e-06
-2.03026e-05
2.05834e-05
6.52321e-05
5.82503e-06
-2.05985e-05
2.0852e-05
6.3089e-05
8.35151e-06
-2.21536e-05
2.24632e-05
6.00951e-05
1.14512e-05
-2.53709e-05
2.58863e-05
5.54529e-05
1.54533e-05
-3.08499e-05
3.19577e-05
4.69595e-05
2.10227e-05
-3.96184e-05
4.27411e-05
2.83105e-05
2.74031e-05
-5.12838e-05
6.14672e-05
1.86649e-05
-4.75434e-05
8.14866e-05
9.39933e-05
-3.46703e-07
-6.56056e-07
7.22953e-07
9.19614e-05
-6.80011e-07
-5.58314e-06
6.44571e-06
8.81473e-05
-1.17217e-06
-1.23281e-05
1.38153e-05
8.3568e-05
-1.25132e-06
-1.81826e-05
1.97856e-05
7.91972e-05
-7.35457e-07
-2.1596e-05
2.29303e-05
7.55586e-05
3.00894e-07
-2.2526e-05
2.34698e-05
7.27493e-05
1.67578e-06
-2.18849e-05
2.24923e-05
7.0593e-05
3.27536e-06
-2.07365e-05
2.11245e-05
6.88325e-05
5.09113e-06
-1.9892e-05
2.01635e-05
6.71903e-05
7.23197e-06
-1.98661e-05
2.01013e-05
6.53575e-05
9.90575e-06
-2.10088e-05
2.12873e-05
6.28984e-05
1.34569e-05
-2.36732e-05
2.41266e-05
5.9e-05
1.83702e-05
-2.83733e-05
2.93549e-05
5.14212e-05
2.58416e-05
-3.61151e-05
3.88751e-05
3.25694e-05
3.68094e-05
-4.71243e-05
5.65698e-05
3.47158e-05
-4.4245e-05
7.86246e-05
9.70295e-05
-5.95206e-07
6.50056e-07
-2.77907e-07
9.49545e-05
-5.37722e-06
6.23472e-06
5.37538e-07
9.09439e-05
-1.20839e-05
1.35913e-05
1.33104e-06
8.60269e-05
-1.79928e-05
1.96329e-05
2.02546e-06
8.12688e-05
-2.14688e-05
2.28386e-05
2.65286e-06
7.73041e-05
-2.24017e-05
2.33642e-05
3.30319e-06
7.42848e-05
-2.16626e-05
2.22777e-05
4.0801e-06
7.20816e-05
-2.03413e-05
2.07262e-05
5.0936e-06
7.0454e-05
-1.92536e-05
1.95138e-05
6.45847e-06
6.9151e-05
-1.88951e-05
1.91099e-05
8.32022e-06
6.79235e-05
-1.95678e-05
1.98093e-05
1.08917e-05
6.64855e-05
-2.15336e-05
2.19036e-05
1.45249e-05
6.42214e-05
-2.5149e-05
2.5939e-05
1.98443e-05
5.94634e-05
-3.10639e-05
3.31342e-05
2.85292e-05
4.43343e-05
-4.0475e-05
4.79465e-05
4.4467e-05
-3.6761e-05
6.79887e-05
6.89746e-05
1.2718e-05
-2.15859e-07
-2.1364e-06
1.36122e-05
-1.25115e-06
-4.90952e-06
1.50291e-05
-1.86086e-06
-6.44255e-06
1.65025e-05
-1.91253e-06
-7.08911e-06
1.76763e-05
-1.56982e-06
-7.21854e-06
1.83946e-05
-1.06948e-06
-7.14628e-06
1.86528e-05
-5.82197e-07
-7.1101e-06
1.85027e-05
-1.75738e-07
-7.2787e-06
1.8004e-05
1.30377e-07
-7.77465e-06
1.71982e-05
3.36339e-07
-8.70664e-06
1.60841e-05
4.46526e-07
-1.01856e-05
1.46129e-05
4.28529e-07
-1.23473e-05
1.26287e-05
2.16115e-07
-1.53386e-05
9.67396e-06
-2.4085e-07
-1.91264e-05
4.75617e-06
-9.97665e-07
-2.23816e-05
-2.36793e-06
-1.79449e-05
3.54838e-05
-4.9666e-07
-2.57606e-06
3.65265e-05
-3.12902e-06
-8.29086e-06
3.8423e-05
-4.88516e-06
-1.23761e-05
4.05824e-05
-5.2445e-06
-1.45002e-05
4.24227e-05
-4.49569e-06
-1.51545e-05
4.35949e-05
-3.20572e-06
-1.50146e-05
4.39949e-05
-1.847e-06
-1.4669e-05
4.36559e-05
-6.54555e-07
-1.45501e-05
4.26335e-05
3.09514e-07
-1.4962e-05
4.09355e-05
1.06451e-06
-1.61339e-05
3.84775e-05
1.64999e-06
-1.82793e-05
3.50187e-05
2.06823e-06
-2.16332e-05
3.00211e-05
2.27289e-06
-2.6441e-05
2.23939e-05
2.14469e-06
-3.25982e-05
1.03238e-05
1.28482e-06
-3.753e-05
-2.03366e-06
-2.80237e-05
5.48562e-05
-5.56609e-07
-1.8199e-06
5.47448e-05
-4.00484e-06
-7.91315e-06
5.51633e-05
-6.76578e-06
-1.34098e-05
5.60003e-05
-7.67492e-06
-1.69008e-05
5.68719e-05
-6.87291e-06
-1.83881e-05
5.73972e-05
-5.06995e-06
-1.85327e-05
5.73502e-05
-2.98484e-06
-1.81088e-05
5.66416e-05
-1.03645e-06
-1.77485e-05
5.52334e-05
6.34994e-07
-1.79004e-05
5.30479e-05
2.05776e-06
-1.88837e-05
4.98983e-05
3.31904e-06
-2.09658e-05
4.5397e-05
4.49091e-06
-2.44187e-05
3.87782e-05
5.60425e-06
-2.95331e-05
2.85562e-05
6.53403e-06
-3.62585e-05
1.24227e-05
6.29826e-06
-4.17518e-05
6.89402e-07
-3.08872e-05
7.11271e-05
-5.13649e-07
-1.19254e-06
6.99607e-05
-3.81631e-06
-6.70827e-06
6.85316e-05
-6.9236e-06
-1.27019e-05
6.7294e-05
-8.24406e-06
-1.71291e-05
6.6324e-05
-7.63786e-06
-1.93884e-05
6.54442e-05
-5.72953e-06
-1.9915e-05
6.44204e-05
-3.30532e-06
-1.95387e-05
6.30572e-05
-8.86567e-07
-1.90331e-05
6.1204e-05
1.31071e-06
-1.89651e-05
5.8666e-05
3.3277e-06
-1.97212e-05
5.5151e-05
5.28754e-06
-2.16008e-05
5.01522e-05
7.34188e-06
-2.48909e-05
4.27535e-05
9.62613e-06
-2.99086e-05
3.11925e-05
1.20837e-05
-3.6693e-05
1.26795e-05
1.31542e-05
-4.24903e-05
5.32866e-06
-3.17079e-05
8.42346e-05
-4.75755e-07
-8.49119e-07
8.25035e-05
-3.01155e-06
-5.73069e-06
7.96845e-05
-5.73308e-06
-1.18024e-05
7.65686e-05
-7.05384e-06
-1.67909e-05
7.36919e-05
-6.6344e-06
-1.96279e-05
7.12058e-05
-4.89845e-06
-2.04757e-05
6.89981e-05
-2.5218e-06
-2.01462e-05
6.68498e-05
6.40688e-12
-1.95098e-05
6.45187e-05
2.44104e-06
-1.92322e-05
6.17115e-05
4.86292e-06
-1.97493e-05
5.80398e-05
7.42515e-06
-2.13784e-05
5.28928e-05
1.03667e-05
-2.44079e-05
4.52234e-05
1.39585e-05
-2.91649e-05
3.2966e-05
1.83597e-05
-3.5785e-05
1.26554e-05
2.1679e-05
-4.17202e-05
1.24151e-05
-3.14625e-05
9.40686e-05
-4.49813e-07
-6.80346e-07
9.2109e-05
-1.93083e-06
-5.10346e-06
8.84536e-05
-3.72069e-06
-1.11206e-05
8.40031e-05
-4.60464e-06
-1.64235e-05
7.96187e-05
-4.21725e-06
-1.96451e-05
7.57638e-05
-2.77403e-06
-2.07138e-05
7.25049e-05
-7.30676e-07
-2.03941e-05
6.9674e-05
1.55649e-06
-1.96179e-05
6.69704e-05
3.95496e-06
-1.9113e-05
6.4053e-05
6.54249e-06
-1.93607e-05
6.04704e-05
9.53503e-06
-2.06809e-05
5.55405e-05
1.32724e-05
-2.33467e-05
4.81173e-05
1.82031e-05
-2.76714e-05
3.57744e-05
2.49745e-05
-3.38902e-05
1.38839e-05
3.20686e-05
-3.97829e-05
2.38208e-05
-3.01662e-05
0.000100602
-4.1201e-07
-5.94754e-07
9.85632e-05
-7.38861e-07
-4.73655e-06
9.44729e-05
-1.2789e-06
-1.06796e-05
8.92338e-05
-1.41284e-06
-1.61353e-05
8.38952e-05
-9.05132e-07
-1.95695e-05
7.9134e-05
2.1046e-07
-2.07493e-05
7.51939e-05
1.72184e-06
-2.03973e-05
7.19469e-05
3.53484e-06
-1.94678e-05
6.91148e-05
5.62763e-06
-1.87326e-05
6.63427e-05
8.13494e-06
-1.86865e-05
6.31838e-05
1.13206e-05
-1.96354e-05
5.89713e-05
1.56288e-05
-2.18172e-05
5.25716e-05
2.17194e-05
-2.54898e-05
4.13321e-05
3.10533e-05
-3.09544e-05
1.89153e-05
4.39166e-05
-3.65555e-05
4.4304e-05
-2.75809e-05
0.000103844
-5.4468e-07
-3.44425e-07
0.000101775
-4.54639e-06
4.99299e-07
9.75116e-05
-1.04345e-05
1.33544e-06
9.19455e-05
-1.59271e-05
2.08761e-06
8.62077e-05
-1.942e-05
2.78386e-06
8.11109e-05
-2.06143e-05
3.5198e-06
7.69445e-05
-2.0179e-05
4.40462e-06
7.36591e-05
-1.90948e-05
5.57373e-06
7.10069e-05
-1.81384e-05
7.16462e-06
6.8676e-05
-1.77908e-05
9.36151e-06
6.63105e-05
-1.8323e-05
1.24412e-05
6.34399e-05
-1.99098e-05
1.68756e-05
5.92227e-05
-2.27033e-05
2.34908e-05
5.14942e-05
-2.68955e-05
3.46134e-05
3.31337e-05
-3.19443e-05
5.37464e-05
-2.2849e-05
8.50378e-05
1.33814e-05
-2.5144e-07
-1.9183e-06
1.42146e-05
-1.36618e-06
-4.37649e-06
1.55667e-05
-2.03718e-06
-5.75745e-06
1.69588e-05
-2.11321e-06
-6.36806e-06
1.80143e-05
-1.75485e-06
-6.51918e-06
1.85629e-05
-1.21347e-06
-6.48139e-06
1.85947e-05
-6.78658e-07
-6.46318e-06
1.816e-05
-2.30715e-07
-6.61332e-06
1.73097e-05
1.11689e-07
-7.03601e-06
1.60742e-05
3.44481e-07
-7.81563e-06
1.44299e-05
4.81223e-07
-9.02251e-06
1.23078e-05
4.97234e-07
-1.07224e-05
9.57106e-06
3.40957e-07
-1.29429e-05
5.98208e-06
-4.83847e-08
-1.5489e-05
1.55376e-06
-8.78285e-07
-1.7075e-05
-2.56595e-06
-1.26252e-05
3.74106e-05
-5.30803e-07
-2.24647e-06
3.83159e-05
-3.32713e-06
-7.23523e-06
4.00373e-05
-5.26217e-06
-1.08725e-05
4.19833e-05
-5.72422e-06
-1.28352e-05
4.35528e-05
-4.97085e-06
-1.3508e-05
4.43756e-05
-3.59258e-06
-1.34583e-05
4.43345e-05
-2.10912e-06
-1.31974e-05
4.34536e-05
-7.91618e-07
-1.31082e-05
4.17769e-05
2.83889e-07
-1.34575e-05
3.9286e-05
1.13475e-06
-1.44333e-05
3.58616e-05
1.81183e-06
-1.61855e-05
3.12371e-05
2.32811e-06
-1.88396e-05
2.49387e-05
2.64436e-06
-2.24459e-05
1.6297e-05
2.61563e-06
-2.66205e-05
5.16598e-06
1.57166e-06
-2.88489e-05
-2.18099e-06
-1.97898e-05
5.79146e-05
-5.81274e-07
-1.55517e-06
5.76465e-05
-4.189e-06
-6.78325e-06
5.77967e-05
-7.20247e-06
-1.16197e-05
5.82773e-05
-8.30195e-06
-1.48037e-05
5.87214e-05
-7.54522e-06
-1.62578e-05
5.87492e-05
-5.64678e-06
-1.65062e-05
5.81257e-05
-3.38447e-06
-1.62099e-05
5.67477e-05
-1.2357e-06
-1.59265e-05
5.45567e-05
6.28551e-07
-1.6054e-05
5.14395e-05
2.23136e-06
-1.68632e-05
4.71644e-05
3.67277e-06
-1.85516e-05
4.13073e-05
5.0393e-06
-2.12728e-05
3.31553e-05
6.36391e-06
-2.51007e-05
2.16921e-05
7.46337e-06
-2.96431e-05
6.51643e-06
7.03362e-06
-3.20381e-05
9.46664e-07
-2.15986e-05
7.51345e-05
-5.4412e-07
-1.01204e-06
7.38528e-05
-3.95114e-06
-5.66435e-06
7.21281e-05
-7.30553e-06
-1.08742e-05
7.04251e-05
-8.85554e-06
-1.48725e-05
6.88715e-05
-8.34181e-06
-1.70382e-05
6.73355e-05
-6.36064e-06
-1.76651e-05
6.56012e-05
-3.7462e-06
-1.74427e-05
6.34655e-05
-1.08436e-06
-1.70487e-05
6.0753e-05
1.36553e-06
-1.69897e-05
5.72233e-05
3.63884e-06
-1.75989e-05
5.2527e-05
5.87278e-06
-1.91045e-05
4.61067e-05
8.24127e-06
-2.16727e-05
3.70699e-05
1.08893e-05
-2.53972e-05
2.40998e-05
1.3679e-05
-2.99385e-05
6.41289e-06
1.46603e-05
-3.24301e-05
6.32538e-06
-2.18856e-05
8.89857e-05
-5.20588e-07
-7.27474e-07
8.71959e-05
-3.1052e-06
-4.78682e-06
8.41106e-05
-6.01618e-06
-1.00064e-05
8.04825e-05
-7.54377e-06
-1.44746e-05
7.69062e-05
-7.22719e-06
-1.71662e-05
7.36206e-05
-5.44087e-06
-1.81099e-05
7.05732e-05
-2.88815e-06
-1.79569e-05
6.75542e-05
-1.12361e-07
-1.74629e-05
6.43052e-05
2.60758e-06
-1.72253e-05
6.0478e-05
5.34129e-06
-1.76245e-05
5.56171e-05
8.26271e-06
-1.89075e-05
4.90477e-05
1.16461e-05
-2.12432e-05
3.97143e-05
1.5795e-05
-2.47372e-05
2.59427e-05
2.07882e-05
-2.91227e-05
6.27546e-06
2.42658e-05
-3.16586e-05
1.45151e-05
-2.14313e-05
9.93634e-05
-5.06095e-07
-5.93368e-07
9.73866e-05
-1.99762e-06
-4.23422e-06
9.35117e-05
-3.90068e-06
-9.36122e-06
8.85482e-05
-4.92406e-06
-1.40797e-05
8.34006e-05
-4.60802e-06
-1.71166e-05
7.86427e-05
-3.11699e-06
-1.82798e-05
7.44415e-05
-9.22657e-07
-1.81584e-05
7.06704e-05
1.59727e-06
-1.75564e-05
6.70101e-05
4.27773e-06
-1.71228e-05
6.30733e-05
7.20407e-06
-1.72867e-05
5.83359e-05
1.06209e-05
-1.83016e-05
5.20437e-05
1.49187e-05
-2.03272e-05
4.3018e-05
2.06171e-05
-2.34678e-05
2.91328e-05
2.83322e-05
-2.7549e-05
7.65016e-06
3.6041e-05
-3.00754e-05
2.75226e-05
-2.02839e-05
0.000106252
-4.72099e-07
-5.26923e-07
0.000104219
-7.86337e-07
-3.91409e-06
9.99479e-05
-1.36229e-06
-8.94719e-06
9.42126e-05
-1.54483e-06
-1.37793e-05
8.8089e-05
-1.04961e-06
-1.70043e-05
8.23663e-05
1.38758e-07
-1.82823e-05
7.74289e-05
1.76468e-06
-1.81473e-05
7.32036e-05
3.77448e-06
-1.74196e-05
6.94133e-05
6.12452e-06
-1.67891e-05
6.56617e-05
8.96918e-06
-1.66999e-05
6.14341e-05
1.26135e-05
-1.74005e-05
5.59946e-05
1.75696e-05
-1.90286e-05
4.81823e-05
2.46029e-05
-2.16632e-05
3.55134e-05
3.52736e-05
-2.52268e-05
1.32754e-05
4.94122e-05
-2.76887e-05
5.01962e-05
-1.84131e-05
0.00010967
-4.86671e-07
-4.01673e-07
0.000107615
-3.74737e-06
4.70093e-07
0.000103192
-8.71818e-06
1.3443e-06
9.71443e-05
-1.35719e-05
2.14779e-06
9.06157e-05
-1.68474e-05
2.90639e-06
8.45583e-05
-1.81405e-05
3.72233e-06
7.93805e-05
-1.79434e-05
4.70694e-06
7.51239e-05
-1.70856e-05
6.02184e-06
7.15524e-05
-1.62654e-05
7.823e-06
6.8324e-05
-1.59194e-05
1.03262e-05
6.50317e-05
-1.6274e-05
1.38567e-05
6.11536e-05
-1.74279e-05
1.89658e-05
5.58628e-05
-1.94028e-05
2.65932e-05
4.70443e-05
-2.21276e-05
3.93242e-05
2.8821e-05
-2.45514e-05
6.02425e-05
-1.51923e-05
9.32033e-05
1.39315e-05
-2.82542e-07
-1.62787e-06
1.47121e-05
-1.46565e-06
-3.69147e-06
1.60114e-05
-2.19218e-06
-4.86457e-06
1.73386e-05
-2.29341e-06
-5.40182e-06
1.82974e-05
-1.92499e-06
-5.55302e-06
1.87041e-05
-1.34963e-06
-5.53847e-06
1.85449e-05
-7.73423e-07
-5.53058e-06
1.78725e-05
-2.88361e-07
-5.6525e-06
1.67357e-05
8.79475e-08
-5.98714e-06
1.51682e-05
3.47217e-07
-6.59535e-06
1.31475e-05
5.13787e-07
-7.51561e-06
1.06222e-05
5.71226e-07
-8.76829e-06
7.5204e-06
4.8134e-07
-1.03225e-05
3.80899e-06
1.75111e-07
-1.19527e-05
3.69229e-08
-6.69988e-07
-1.26329e-05
-2.43056e-06
-8.90048e-06
3.90153e-05
-5.6061e-07
-1.86347e-06
3.98075e-05
-3.49318e-06
-5.99992e-06
4.13883e-05
-5.58473e-06
-9.06078e-06
4.31629e-05
-6.14401e-06
-1.07592e-05
4.45111e-05
-5.39591e-06
-1.13853e-05
4.50425e-05
-3.94659e-06
-1.13928e-05
4.46292e-05
-2.35559e-06
-1.12019e-05
4.32914e-05
-9.26848e-07
-1.11319e-05
4.10735e-05
2.50399e-07
-1.14021e-05
3.79532e-05
1.19126e-06
-1.2157e-05
3.38156e-05
1.95893e-06
-1.3493e-05
2.84297e-05
2.5784e-06
-1.54608e-05
2.14572e-05
3.01975e-06
-1.80119e-05
1.26116e-05
3.11108e-06
-2.07109e-05
2.60995e-06
2.0143e-06
-2.15316e-05
-1.96709e-06
-1.40436e-05
6.04633e-05
-6.04476e-07
-1.27081e-06
6.00713e-05
-4.33918e-06
-5.54533e-06
6.00098e-05
-7.56739e-06
-9.57548e-06
6.02045e-05
-8.8398e-06
-1.23026e-05
6.02982e-05
-8.13553e-06
-1.36119e-05
5.99101e-05
-6.16439e-06
-1.39004e-05
5.87992e-05
-3.75142e-06
-1.37031e-05
5.68553e-05
-1.42574e-06
-1.34837e-05
5.40132e-05
6.12343e-07
-1.35739e-05
5.01503e-05
2.37997e-06
-1.4189e-05
4.50343e-05
3.98877e-06
-1.54655e-05
3.82757e-05
5.53862e-06
-1.74744e-05
2.93065e-05
7.06455e-06
-2.01762e-05
1.75451e-05
8.33146e-06
-2.31021e-05
3.5993e-06
7.83035e-06
-2.39084e-05
1.3996e-06
-1.52568e-05
7.84721e-05
-5.73983e-07
-8.24536e-07
7.71038e-05
-4.05906e-06
-4.5762e-06
7.51536e-05
-7.61793e-06
-8.87347e-06
7.30826e-05
-9.37102e-06
-1.22702e-05
7.10525e-05
-8.9507e-06
-1.4193e-05
6.89679e-05
-6.91915e-06
-1.48257e-05
6.66316e-05
-4.14525e-06
-1.47125e-05
6.38403e-05
-1.26983e-06
-1.44134e-05
6.04111e-05
1.40511e-06
-1.43532e-05
5.60854e-05
3.90906e-06
-1.48023e-05
5.05054e-05
6.3885e-06
-1.59242e-05
4.31385e-05
9.03372e-06
-1.78009e-05
3.32216e-05
1.19909e-05
-2.04068e-05
1.98679e-05
1.50498e-05
-2.33032e-05
3.36957e-06
1.60086e-05
-2.411e-05
7.25099e-06
-1.53271e-05
9.29397e-05
-5.63153e-07
-5.98927e-07
9.11095e-05
-3.17982e-06
-3.83585e-06
8.783e-05
-6.24333e-06
-8.10145e-06
8.38058e-05
-7.95034e-06
-1.18711e-05
7.96643e-05
-7.73332e-06
-1.4242e-05
7.57126e-05
-5.91575e-06
-1.51616e-05
7.19536e-05
-3.21693e-06
-1.51261e-05
6.81929e-05
-2.17726e-07
-1.47543e-05
6.41758e-05
2.7474e-06
-1.45505e-05
5.95281e-05
5.758e-06
-1.48257e-05
5.37783e-05
8.99272e-06
-1.57619e-05
4.62651e-05
1.27492e-05
-1.74454e-05
3.60391e-05
1.73414e-05
-1.98617e-05
2.18254e-05
2.27677e-05
-2.26268e-05
3.25344e-06
2.63584e-05
-2.34364e-05
1.61726e-05
-1.48777e-05
0.000103768
-5.57559e-07
-4.9622e-07
0.000101782
-2.05091e-06
-3.37677e-06
9.77553e-05
-4.04217e-06
-7.53587e-06
9.24043e-05
-5.18468e-06
-1.14944e-05
8.66474e-05
-4.93723e-06
-1.41558e-05
8.1142e-05
-3.41527e-06
-1.52748e-05
7.61419e-05
-1.09313e-06
-1.52821e-05
7.15707e-05
1.62944e-06
-1.48324e-05
6.71056e-05
4.55785e-06
-1.44682e-05
6.23457e-05
7.78073e-06
-1.45495e-05
5.67442e-05
1.15594e-05
-1.52668e-05
4.95523e-05
1.6316e-05
-1.67021e-05
3.96719e-05
2.26e-05
-1.8846e-05
2.53188e-05
3.09657e-05
-2.13939e-05
4.778e-06
3.90413e-05
-2.22175e-05
3.01629e-05
-1.39678e-05
0.000110952
-5.25103e-07
-4.46237e-07
0.000108924
-8.23733e-07
-3.11297e-06
0.000104535
-1.42518e-06
-7.17524e-06
9.84327e-05
-1.64843e-06
-1.12133e-05
9.16884e-05
-1.16662e-06
-1.40306e-05
8.51762e-05
7.00519e-08
-1.52555e-05
7.93946e-05
1.80389e-06
-1.52627e-05
7.43345e-05
3.98516e-06
-1.47153e-05
6.97351e-05
6.56063e-06
-1.41925e-05
6.51878e-05
9.69688e-06
-1.40687e-05
6.0157e-05
1.37251e-05
-1.45353e-05
5.39098e-05
1.91976e-05
-1.5663e-05
4.53531e-05
2.69282e-05
-1.74349e-05
3.22527e-05
3.84811e-05
-1.96418e-05
1.07683e-05
5.33394e-05
-2.05025e-05
5.40247e-05
-1.26429e-05
0.000114516
-4.15019e-07
-4.49965e-07
0.000112471
-2.97494e-06
4.48333e-07
0.000107949
-6.97636e-06
1.35559e-06
0.00010155
-1.10245e-05
2.20331e-06
9.44022e-05
-1.38825e-05
3.01586e-06
8.75542e-05
-1.51231e-05
3.90062e-06
8.15239e-05
-1.50846e-05
4.97546e-06
7.64376e-05
-1.44337e-05
6.41953e-06
7.20862e-05
-1.37579e-05
8.40451e-06
6.81224e-05
-1.34284e-05
1.11696e-05
6.41258e-05
-1.36245e-05
1.50722e-05
5.95816e-05
-1.43948e-05
2.07087e-05
5.37343e-05
-1.56958e-05
2.90686e-05
4.46198e-05
-1.73618e-05
4.28298e-05
2.70475e-05
-1.837e-05
6.47303e-05
-1.03927e-05
9.84211e-05
1.43695e-05
-3.08281e-07
-1.27672e-06
1.51066e-05
-1.54721e-06
-2.88137e-06
1.63641e-05
-2.32074e-06
-3.80127e-06
1.76411e-05
-2.44536e-06
-4.23345e-06
1.85246e-05
-2.07109e-06
-4.36542e-06
1.8819e-05
-1.46895e-06
-4.364e-06
1.85083e-05
-8.58575e-07
-4.36122e-06
1.76491e-05
-3.42083e-07
-4.45125e-06
1.62932e-05
6.39774e-08
-4.69522e-06
1.44849e-05
3.47169e-07
-5.13425e-06
1.22131e-05
5.42273e-07
-5.78603e-06
9.45385e-06
6.39238e-07
-6.64831e-06
6.19591e-06
6.08979e-07
-7.67349e-06
2.5389e-06
3.74235e-07
-8.66991e-06
-7.43968e-07
-4.4553e-07
-8.90455e-06
-2.25328e-06
-6.09801e-06
4.02982e-05
-5.85265e-07
-1.43698e-06
4.10001e-05
-3.62605e-06
-4.62298e-06
4.2471e-05
-5.84693e-06
-7.0055e-06
4.41127e-05
-6.49142e-06
-8.35485e-06
4.52877e-05
-5.75388e-06
-8.8775e-06
4.55879e-05
-4.24997e-06
-8.91201e-06
4.48775e-05
-2.57101e-06
-8.77906e-06
4.31766e-05
-1.04873e-06
-8.72433e-06
4.05376e-05
2.1584e-07
-8.91499e-06
3.69467e-05
1.23532e-06
-9.4542e-06
3.23113e-05
2.08408e-06
-1.03995e-05
2.64537e-05
2.79694e-06
-1.17609e-05
1.91596e-05
3.35077e-06
-1.34595e-05
1.03962e-05
3.55084e-06
-1.51241e-05
1.24861e-06
2.46012e-06
-1.52896e-05
-1.67726e-06
-9.67603e-06
6.2502e-05
-6.24755e-07
-9.69656e-07
6.20142e-05
-4.45669e-06
-4.22684e-06
6.17899e-05
-7.85844e-06
-7.33967e-06
6.1763e-05
-9.27796e-06
-9.48916e-06
6.15811e-05
-8.62558e-06
-1.05583e-05
6.0862e-05
-6.6016e-06
-1.08297e-05
5.93605e-05
-4.06683e-06
-1.07058e-05
5.69649e-05
-1.59343e-06
-1.05434e-05
5.36125e-05
5.92109e-07
-1.05978e-05
4.91862e-05
2.5009e-06
-1.10283e-05
4.34748e-05
4.25352e-06
-1.19235e-05
3.61449e-05
5.95971e-06
-1.33074e-05
2.67674e-05
7.65473e-06
-1.51026e-05
1.50534e-05
9.06345e-06
-1.69007e-05
2.03989e-06
8.55634e-06
-1.69911e-05
1.85827e-06
-1.0501e-05
8.11405e-05
-6.00779e-07
-6.28687e-07
7.97077e-05
-4.14229e-06
-3.45784e-06
7.75889e-05
-7.86265e-06
-6.75046e-06
7.52362e-05
-9.78495e-06
-9.41045e-06
7.28328e-05
-9.45008e-06
-1.09651e-05
7.03108e-05
-7.38578e-06
-1.15197e-05
6.74906e-05
-4.48452e-06
-1.14746e-05
6.41737e-05
-1.43166e-06
-1.12582e-05
6.01804e-05
1.43214e-06
-1.11999e-05
5.52512e-05
4.1307e-06
-1.15029e-05
4.90432e-05
6.8152e-06
-1.22779e-05
4.1074e-05
9.6859e-06
-1.35578e-05
3.07114e-05
1.28854e-05
-1.52748e-05
1.73608e-05
1.61479e-05
-1.70371e-05
1.77582e-06
1.71246e-05
-1.70933e-05
8.02554e-06
-1.0497e-05
9.60995e-05
-6.00564e-07
-4.60949e-07
9.42403e-05
-3.23727e-06
-2.88174e-06
9.0821e-05
-6.41832e-06
-6.12646e-06
8.64995e-05
-8.27246e-06
-9.06206e-06
8.19191e-05
-8.14391e-06
-1.09678e-05
7.74381e-05
-6.30895e-06
-1.17575e-05
7.31069e-05
-3.49479e-06
-1.17847e-05
6.87482e-05
-3.08464e-07
-1.15188e-05
6.41246e-05
2.8585e-06
-1.13533e-05
5.88526e-05
6.10002e-06
-1.1523e-05
5.24706e-05
9.59062e-06
-1.21553e-05
4.43577e-05
1.3641e-05
-1.32876e-05
3.36793e-05
1.85633e-05
-1.48612e-05
1.94334e-05
2.42909e-05
-1.65239e-05
1.72287e-06
2.79673e-05
-1.65686e-05
1.74387e-05
-1.01367e-05
0.000107287
-6.017e-07
-3.8657e-07
0.000105294
-2.09205e-06
-2.52872e-06
0.000101163
-4.14914e-06
-5.67426e-06
9.55274e-05
-5.38802e-06
-8.74317e-06
8.93025e-05
-5.20106e-06
-1.08738e-05
8.32057e-05
-3.6598e-06
-1.18272e-05
7.75623e-05
-1.23585e-06
-1.18976e-05
7.23476e-05
1.65396e-06
-1.15801e-05
6.72428e-05
4.78731e-06
-1.12922e-05
6.18535e-05
8.25393e-06
-1.13142e-05
5.56358e-05
1.23224e-05
-1.17809e-05
4.78727e-05
1.74308e-05
-1.27288e-05
3.75607e-05
2.41357e-05
-1.41064e-05
2.31479e-05
3.29329e-05
-1.56232e-05
3.35237e-06
4.12383e-05
-1.56929e-05
3.20493e-05
-9.46757e-06
0.000114707
-5.69546e-07
-3.50816e-07
0.000112681
-8.52307e-07
-2.3271e-06
0.000108215
-1.47078e-06
-5.38736e-06
0.000101848
-1.72615e-06
-8.50806e-06
9.46309e-05
-1.25689e-06
-1.07579e-05
8.74977e-05
1.67989e-08
-1.17988e-05
8.10377e-05
1.83771e-06
-1.18762e-05
7.53038e-05
4.16021e-06
-1.14876e-05
7.00588e-05
6.92143e-06
-1.10816e-05
6.4899e-05
1.02943e-05
-1.09494e-05
5.92919e-05
1.46244e-05
-1.12302e-05
5.25311e-05
2.04845e-05
-1.1956e-05
4.36031e-05
2.87041e-05
-1.30753e-05
3.04448e-05
4.08254e-05
-1.43759e-05
9.57619e-06
5.61152e-05
-1.45108e-05
5.66526e-05
-8.56066e-06
0.000118387
-3.2793e-07
-4.89563e-07
0.000116348
-2.22118e-06
4.3256e-07
0.000111763
-5.2294e-06
1.36736e-06
0.000105114
-8.35295e-06
2.25157e-06
9.74985e-05
-1.06329e-05
3.10864e-06
9.00295e-05
-1.16878e-05
4.05045e-06
8.33153e-05
-1.17337e-05
5.20102e-06
7.75578e-05
-1.12685e-05
6.75256e-06
7.25811e-05
-1.07481e-05
8.88836e-06
6.80464e-05
-1.0463e-05
1.18636e-05
6.35386e-05
-1.05468e-05
1.60546e-05
5.85673e-05
-1.10199e-05
2.20809e-05
5.24493e-05
-1.18201e-05
3.09464e-05
4.33299e-05
-1.27811e-05
4.53641e-05
2.63309e-05
-1.30916e-05
6.78359e-05
-7.01992e-06
0.000102018
1.46964e-05
-3.28248e-07
-8.77677e-07
1.54e-05
-1.61025e-06
-1.97478e-06
1.66263e-05
-2.42076e-06
-2.60678e-06
1.78669e-05
-2.56494e-06
-2.90908e-06
1.86955e-05
-2.18773e-06
-3.0063e-06
1.89074e-05
-1.5658e-06
-3.01008e-06
1.84848e-05
-9.29141e-07
-3.0095e-06
1.74894e-05
-3.87963e-07
-3.06794e-06
1.59773e-05
4.22524e-08
-3.22536e-06
1.40055e-05
3.44835e-07
-3.50721e-06
1.15754e-05
5.63734e-07
-3.91974e-06
8.6881e-06
6.92951e-07
-4.45394e-06
5.37465e-06
7.08959e-07
-5.069e-06
1.80942e-06
5.27482e-07
-5.63216e-06
-1.14973e-06
-2.65012e-07
-5.68038e-06
-2.10651e-06
-3.8254e-06
4.12591e-05
-6.04271e-07
-9.76684e-07
4.18932e-05
-3.72607e-06
-3.14129e-06
4.32832e-05
-6.04624e-06
-4.76998e-06
4.48278e-05
-6.75899e-06
-5.70547e-06
4.58758e-05
-6.03342e-06
-6.07974e-06
4.60051e-05
-4.49022e-06
-6.1169e-06
4.5074e-05
-2.74426e-06
-6.03283e-06
4.31049e-05
-1.1491e-06
-5.9941e-06
4.01607e-05
1.84536e-07
-6.11307e-06
3.62401e-05
1.26667e-06
-6.4555e-06
3.12766e-05
2.18059e-06
-7.05285e-06
2.51401e-05
2.96798e-06
-7.89946e-06
1.77059e-05
3.60983e-06
-8.92616e-06
9.08815e-06
3.89469e-06
-9.87356e-06
5.12554e-07
2.82542e-06
-9.80448e-06
-1.41955e-06
-6.09398e-06
6.40298e-05
-6.40913e-07
-6.54134e-07
6.34713e-05
-4.54332e-06
-2.85114e-06
6.31285e-05
-8.07577e-06
-4.96735e-06
6.29397e-05
-9.61043e-06
-6.44892e-06
6.2555e-05
-9.00308e-06
-7.20393e-06
6.159e-05
-6.94307e-06
-7.41183e-06
5.97973e-05
-4.31653e-06
-7.34091e-06
5.70664e-05
-1.72887e-06
-7.23269e-06
5.33414e-05
5.72019e-07
-7.26026e-06
4.85165e-05
2.5917e-06
-7.52839e-06
4.24063e-05
4.45689e-06
-8.08958e-06
3.473e-05
6.28375e-06
-8.94687e-06
2.51602e-05
8.10685e-06
-1.00298e-05
1.35799e-05
9.62408e-06
-1.10498e-05
1.18503e-06
9.13638e-06
-1.09072e-05
2.23408e-06
-6.62325e-06
8.31396e-05
-6.22478e-07
-4.2367e-07
8.16602e-05
-4.20287e-06
-2.31887e-06
7.94211e-05
-8.04257e-06
-4.5446e-06
7.68646e-05
-1.00951e-05
-6.36926e-06
7.41869e-05
-9.8307e-06
-7.45978e-06
7.13398e-05
-7.74674e-06
-7.86886e-06
6.81576e-05
-4.75053e-06
-7.85836e-06
6.44486e-05
-1.56071e-06
-7.71743e-06
6.00417e-05
1.44908e-06
-7.67006e-06
5.46837e-05
4.29873e-06
-7.85197e-06
4.80534e-05
7.14054e-06
-8.33118e-06
3.97165e-05
1.018e-05
-9.11725e-06
2.91389e-05
1.35551e-05
-1.01455e-05
1.58985e-05
1.69631e-05
-1.11357e-05
9.2596e-07
1.7972e-05
-1.09564e-05
8.61284e-06
-6.60284e-06
9.8466e-05
-6.30476e-07
-3.12376e-07
9.65858e-05
-3.27901e-06
-1.92535e-06
9.30695e-05
-6.54516e-06
-4.10759e-06
8.85363e-05
-8.51111e-06
-6.11295e-06
8.36359e-05
-8.45395e-06
-7.4441e-06
7.87622e-05
-6.61077e-06
-8.01976e-06
7.40032e-05
-3.71166e-06
-8.06453e-06
6.91956e-05
-3.78333e-07
-7.89355e-06
6.41259e-05
2.94045e-06
-7.77489e-06
5.84088e-05
6.35966e-06
-7.86687e-06
5.16004e-05
1.00432e-05
-8.24959e-06
4.31212e-05
1.43081e-05
-8.93638e-06
3.22234e-05
1.94609e-05
-9.86923e-06
1.80657e-05
2.53898e-05
-1.07929e-05
9.43058e-07
2.9127e-05
-1.06009e-05
1.83594e-05
-6.35829e-06
0.000109923
-6.36466e-07
-2.6389e-07
0.000107923
-2.12203e-06
-1.68611e-06
0.000103722
-4.22542e-06
-3.79321e-06
9.78872e-05
-5.53664e-06
-5.88263e-06
9.13241e-05
-5.39814e-06
-7.36651e-06
8.47901e-05
-3.84583e-06
-8.05812e-06
7.86643e-05
-1.34619e-06
-8.13735e-06
7.29688e-05
1.67182e-06
-7.9347e-06
6.73901e-05
4.96152e-06
-7.73461e-06
6.15496e-05
8.61324e-06
-7.72728e-06
5.49147e-05
1.28966e-05
-7.9994e-06
4.68021e-05
1.82566e-05
-8.56471e-06
3.62804e-05
2.52476e-05
-9.3713e-06
2.19299e-05
3.4323e-05
-1.02059e-05
2.62474e-06
4.2777e-05
-1.00377e-05
3.33607e-05
-5.91501e-06
0.000117519
-6.0407e-07
-2.40772e-07
0.000115492
-8.72943e-07
-1.55005e-06
0.000110976
-1.50201e-06
-3.59446e-06
0.000104426
-1.78088e-06
-5.7142e-06
9.68706e-05
-1.32198e-06
-7.27815e-06
8.92804e-05
-2.2251e-08
-8.03221e-06
8.23128e-05
1.86472e-06
-8.11956e-06
7.60733e-05
4.295e-06
-7.87124e-06
7.03483e-05
7.19771e-06
-7.59278e-06
6.47468e-05
1.07483e-05
-7.48298e-06
5.87471e-05
1.52989e-05
-7.63281e-06
5.16709e-05
2.14313e-05
-8.05459e-06
4.25652e-05
2.99767e-05
-8.69879e-06
2.94614e-05
4.24567e-05
-9.40573e-06
9.00224e-06
5.80161e-05
-9.29074e-06
5.84371e-05
-5.33839e-06
0.000121286
-2.25719e-07
-5.19988e-07
0.000119248
-1.47836e-06
4.218e-07
0.000114624
-3.48516e-06
1.37794e-06
0.000107804
-5.6043e-06
2.29025e-06
9.98556e-05
-7.18796e-06
3.18152e-06
9.19302e-05
-7.95189e-06
4.16722e-06
8.47049e-05
-8.02011e-06
5.37642e-06