/*--------------------------------*- C++ -*----------------------------------*\
| =========                 |                                                 |
| \\      /  F ield         | foam-extend: Open Source CFD                    |
|  \\    /   O peration     | Version:     3.1                                |
|   \\  /    A nd           | Web:         http://www.extend-project.de       |
|    \\/     M anipulation  |                                                 |
\*---------------------------------------------------------------------------*/
FoamFile
{
    version     2.0;
    format      ascii;
    class       pointVectorField;
    location    "1.3";
    object      pointMotionU;
}
// * * * * * * * * * * * * * * * * * * * * * * * * * * * * * * * * * * * * * //

dimensions      [0 1 -1 0 0 0 0];

internalField   nonuniform List<vector> 
16859
(
(0 0 0)
(0 0 0)
(0 0 0)
(0 0 0)
(0 0 0)
(0 0 0)
(0 0 0)
(0 0 0)
(0 0 0)
(0 0 0)
(0 0 0)
(0 0 0)
(0 0 0)
(0 0 0)
(0 0 0)
(0 0 0)
(0 0 0)
(0 0 0)
(6.43544e-10 -2.33704e-10 4.04536e-12)
(1.24885e-09 -4.54269e-10 7.39566e-12)
(1.82107e-09 -6.63222e-10 9.57982e-12)
(2.38541e-09 -8.67449e-10 1.00875e-11)
(2.96741e-09 -1.07104e-09 8.09779e-12)
(3.59523e-09 -1.27474e-09 2.32934e-12)
(4.30224e-09 -1.47475e-09 -9.12598e-12)
(5.12991e-09 -1.66047e-09 -2.8949e-11)
(6.13076e-09 -1.81081e-09 -6.0605e-11)
(7.37046e-09 -1.88814e-09 -1.07892e-10)
(8.92692e-09 -1.82935e-09 -1.733e-10)
(1.08805e-08 -1.53483e-09 -2.53648e-10)
(1.32826e-08 -8.62104e-10 -3.30247e-10)
(1.60742e-08 3.41564e-10 -3.51039e-10)
(1.88572e-08 2.00559e-09 -2.08864e-10)
(2.64108e-08 1.20016e-08 2.51325e-09)
(0 0 0)
(1.26783e-09 -4.59314e-10 8.46776e-12)
(2.45888e-09 -8.92983e-10 1.56022e-11)
(3.58215e-09 -1.30435e-09 2.05477e-11)
(4.68589e-09 -1.70738e-09 2.23972e-11)
(5.81838e-09 -2.1108e-09 1.96505e-11)
(7.03213e-09 -2.51736e-09 9.92113e-12)
(8.38866e-09 -2.9219e-09 -1.04071e-11)
(9.96374e-09 -3.30803e-09 -4.65589e-11)
(1.18526e-08 -3.64247e-09 -1.05639e-10)
(1.41736e-08 -3.86629e-09 -1.96404e-10)
(1.70667e-08 -3.88315e-09 -3.27665e-10)
(2.06743e-08 -3.54788e-09 -5.03634e-10)
(2.50816e-08 -2.67148e-09 -7.13563e-10)
(3.01585e-08 -1.0982e-09 -9.13165e-10)
(3.51819e-08 9.69852e-10 -9.78758e-10)
(4.54465e-08 8.12921e-09 -2.47909e-09)
(0 0 0)
(1.8573e-09 -6.69596e-10 1.35866e-11)
(3.59886e-09 -1.30225e-09 2.5305e-11)
(5.2351e-09 -1.90353e-09 3.40726e-11)
(6.83357e-09 -2.49474e-09 3.8796e-11)
(8.46043e-09 -3.0901e-09 3.75625e-11)
(1.01859e-08 -3.6962e-09 2.72301e-11)
(1.20905e-08 -4.31027e-09 2.90997e-12)
(1.42718e-08 -4.91723e-09 -4.2707e-11)
(1.68503e-08 -5.48439e-09 -1.20131e-10)
(1.99741e-08 -5.95414e-09 -2.437e-10)
(2.38165e-08 -6.23532e-09 -4.31496e-10)
(2.85532e-08 -6.19814e-09 -7.032e-10)
(3.42896e-08 -5.6914e-09 -1.07284e-09)
(4.08645e-08 -4.62847e-09 -1.52826e-09)
(4.74043e-08 -3.22587e-09 -1.94159e-09)
(6.1532e-08 1.17759e-09 -4.95734e-09)
(0 0 0)
(2.39869e-09 -8.57346e-10 1.95983e-11)
(4.64261e-09 -1.66816e-09 3.69303e-11)
(6.74065e-09 -2.44064e-09 5.08917e-11)
(8.77485e-09 -3.2035e-09 6.04779e-11)
(1.08234e-08 -3.97725e-09 6.37275e-11)
(1.29658e-08 -4.77366e-09 5.7236e-11)
(1.52904e-08 -5.59569e-09 3.55262e-11)
(1.79021e-08 -6.43588e-09 -9.86103e-12)
(2.09252e-08 -7.27264e-09 -9.17129e-11)
(2.45098e-08 -8.06759e-09 -2.2875e-10)
(2.8827e-08 -8.76244e-09 -4.47333e-10)
(3.40472e-08 -9.2787e-09 -7.82348e-10)
(4.02755e-08 -9.53325e-09 -1.27232e-09)
(4.7366e-08 -9.48541e-09 -1.93129e-09)
(5.44822e-08 -9.19615e-09 -2.61338e-09)
(7.02935e-08 -8.75473e-09 -6.82695e-09)
(0 0 0)
(2.8823e-09 -1.01575e-09 2.65534e-11)
(5.57142e-09 -1.97744e-09 5.0591e-11)
(8.07161e-09 -2.89615e-09 7.12081e-11)
(1.04746e-08 -3.80779e-09 8.77872e-11)
(1.2863e-08 -4.73852e-09 9.86879e-11)
(1.5317e-08 -5.70582e-09 1.00812e-10)
(1.79249e-08 -6.72076e-09 8.90008e-11)
(2.07846e-08 -7.78661e-09 5.49692e-11)
(2.40053e-08 -8.89793e-09 -1.43365e-11)
(2.77114e-08 -1.00422e-08 -1.39042e-10)
(3.20345e-08 -1.12027e-08 -3.49132e-10)
(3.70909e-08 -1.23597e-08 -6.87764e-10)
(4.29396e-08 -1.34963e-08 -1.20955e-09)
(4.94479e-08 -1.45882e-08 -1.95056e-09)
(5.59633e-08 -1.54703e-08 -2.77215e-09)
(7.13704e-08 -1.86833e-08 -7.6126e-09)
(0 0 0)
(3.30215e-09 -1.1386e-09 3.43481e-11)
(6.3741e-09 -2.21791e-09 6.607e-11)
(9.21288e-09 -3.25188e-09 9.46632e-11)
(1.19135e-08 -4.28208e-09 1.20142e-10)
(1.45561e-08 -5.33902e-09 1.41521e-10)
(1.7219e-08 -6.44661e-09 1.5659e-10)
(1.99844e-08 -7.62411e-09 1.61389e-10)
(2.2932e-08 -8.88432e-09 1.49164e-10)
(2.61415e-08 -1.0236e-08 1.08939e-10)
(2.96922e-08 -1.16882e-08 2.30735e-11)
(3.36479e-08 -1.3256e-08 -1.35554e-10)
(3.80288e-08 -1.49619e-08 -4.07554e-10)
(4.27843e-08 -1.68372e-08 -8.48359e-10)
(4.77244e-08 -1.88702e-08 -1.50464e-09)
(5.24117e-08 -2.07129e-08 -2.26963e-09)
(6.46911e-08 -2.6762e-08 -7.27104e-09)
(0 0 0)
(3.6559e-09 -1.22071e-09 4.27412e-11)
(7.04668e-09 -2.37919e-09 8.2858e-11)
(1.01596e-08 -3.4918e-09 1.20394e-10)
(1.30875e-08 -4.60384e-09 1.56161e-10)
(1.59072e-08 -5.74973e-09 1.90139e-10)
(1.86932e-08 -6.95889e-09 2.21439e-10)
(2.15146e-08 -8.25576e-09 2.47861e-10)
(2.44287e-08 -9.65877e-09 2.65178e-10)
(2.74806e-08 -1.11837e-08 2.66243e-10)
(3.06993e-08 -1.28494e-08 2.39317e-10)
(3.40758e-08 -1.46799e-08 1.65851e-10)
(3.75268e-08 -1.67051e-08 1.80501e-11)
(4.08658e-08 -1.89644e-08 -2.42479e-10)
(4.37638e-08 -2.14576e-08 -6.51648e-10)
(4.58357e-08 -2.38302e-08 -1.1438e-09)
(5.06485e-08 -3.20009e-08 -5.08055e-09)
(0 0 0)
(3.94387e-09 -1.25817e-09 5.13754e-11)
(7.59068e-09 -2.4535e-09 1.00201e-10)
(1.09155e-08 -3.60373e-09 1.47136e-10)
(1.40086e-08 -4.75684e-09 1.93914e-10)
(1.69437e-08 -5.95054e-09 2.41658e-10)
(1.97863e-08 -7.21648e-09 2.90926e-10)
(2.25901e-08 -8.58043e-09 3.41474e-10)
(2.5392e-08 -1.00622e-08 3.9198e-10)
(2.82085e-08 -1.16771e-08 4.397e-10)
(3.10278e-08 -1.34381e-08 4.79989e-10)
(3.3788e-08 -1.53532e-08 5.05298e-10)
(3.6345e-08 -1.74184e-08 5.05997e-10)
(3.84456e-08 -1.96041e-08 4.74433e-10)
(3.97041e-08 -2.17916e-08 4.21742e-10)
(3.9696e-08 -2.35333e-08 4.55871e-10)
(3.08424e-08 -3.37917e-08 -1.68771e-09)
(0 0 0)
(0 0 0)
(0 0 0)
(0 0 0)
(0 0 0)
(0 0 0)
(0 0 0)
(0 0 0)
(0 0 0)
(0 0 0)
(0 0 0)
(0 0 0)
(0 0 0)
(0 0 0)
(0 0 0)
(0 0 0)
(0 0 0)
(0 0 0)
(6.49607e-10 -2.45287e-10 3.82093e-12)
(1.26068e-09 -4.77106e-10 6.93883e-12)
(1.83864e-09 -6.97407e-10 8.85857e-12)
(2.40926e-09 -9.13705e-10 9.03085e-12)
(2.9987e-09 -1.13049e-09 6.57474e-12)
(3.63582e-09 -1.34855e-09 1.07978e-13)
(4.3548e-09 -1.56353e-09 -1.24566e-11)
(5.19801e-09 -1.76323e-09 -3.41271e-11)
(6.2189e-09 -1.92306e-09 -6.89737e-11)
(7.48376e-09 -1.99846e-09 -1.21929e-10)
(9.06999e-09 -1.91331e-09 -1.97643e-10)
(1.10547e-08 -1.54424e-09 -2.97126e-10)
(1.34803e-08 -7.06962e-10 -4.10043e-10)
(1.62636e-08 8.13982e-10 -5.01389e-10)
(1.88865e-08 2.94885e-09 -5.0744e-10)
(2.43965e-08 1.15135e-08 4.03958e-10)
(0 0 0)
(1.27948e-09 -4.82107e-10 8.02248e-12)
(2.48153e-09 -9.37946e-10 1.4698e-11)
(3.61565e-09 -1.37172e-09 1.91264e-11)
(4.73112e-09 -1.79871e-09 2.03283e-11)
(5.87731e-09 -2.22853e-09 1.6695e-11)
(7.10795e-09 -2.6642e-09 5.66059e-12)
(8.48591e-09 -3.09989e-09 -1.67098e-11)
(1.00884e-08 -3.51685e-09 -5.62205e-11)
(1.2012e-08 -3.8764e-09 -1.2105e-10)
(1.43759e-08 -4.10895e-09 -2.2197e-10)
(1.73177e-08 -4.09844e-09 -3.71618e-10)
(2.09715e-08 -3.66529e-09 -5.81541e-10)
(2.53983e-08 -2.56493e-09 -8.55156e-10)
(3.04009e-08 -5.71436e-10 -1.17504e-09)
(3.49953e-08 2.08662e-09 -1.47394e-09)
(4.13384e-08 8.71305e-09 -2.06614e-09)
(0 0 0)
(1.87368e-09 -7.02889e-10 1.29261e-11)
(3.63055e-09 -1.36797e-09 2.39684e-11)
(5.28164e-09 -2.00215e-09 3.19854e-11)
(6.89578e-09 -2.62877e-09 3.57871e-11)
(8.54051e-09 -3.26359e-09 3.33236e-11)
(1.02875e-08 -3.91406e-09 2.1232e-11)
(1.22187e-08 -4.57723e-09 -5.76601e-12)
(1.44331e-08 -5.23607e-09 -5.5687e-11)
(1.70522e-08 -5.85299e-09 -1.40354e-10)
(2.02236e-08 -6.36036e-09 -2.76597e-10)
(2.41163e-08 -6.64856e-09 -4.87265e-10)
(2.88925e-08 -6.55684e-09 -8.012e-10)
(3.46207e-08 -5.8879e-09 -1.24987e-09)
(4.10391e-08 -4.50622e-09 -1.85237e-09)
(4.69051e-08 -2.6665e-09 -2.5342e-09)
(5.55059e-08 1.66739e-09 -3.84698e-09)
(0 0 0)
(2.41865e-09 -9.00056e-10 1.87292e-11)
(4.681e-09 -1.75256e-09 3.51789e-11)
(6.79643e-09 -2.56751e-09 4.81766e-11)
(8.84833e-09 -3.37643e-09 5.66093e-11)
(1.09163e-08 -4.20209e-09 5.83703e-11)
(1.30813e-08 -5.05817e-09 4.98402e-11)
(1.54329e-08 -5.94841e-09 2.51588e-11)
(1.80759e-08 -6.86484e-09 -2.48317e-11)
(2.11349e-08 -7.7836e-09 -1.14209e-10)
(2.47571e-08 -8.66048e-09 -2.64204e-10)
(2.91066e-08 -9.42594e-09 -5.06141e-10)
(3.43365e-08 -9.98264e-09 -8.84762e-10)
(4.05114e-08 -1.02203e-08 -1.45789e-09)
(4.73803e-08 -1.00709e-08 -2.2741e-09)
(5.37059e-08 -9.61552e-09 -3.23819e-09)
(6.3258e-08 -8.14298e-09 -5.12117e-09)
(0 0 0)
(2.90459e-09 -1.06645e-09 2.5482e-11)
(5.61393e-09 -2.07774e-09 4.84406e-11)
(8.13251e-09 -3.0472e-09 6.78995e-11)
(1.05531e-08 -4.01418e-09 8.31288e-11)
(1.29602e-08 -5.00818e-09 9.23694e-11)
(1.54353e-08 -6.04969e-09 9.23407e-11)
(1.80656e-08 -7.15146e-09 7.75581e-11)
(2.09481e-08 -8.31842e-09 3.91901e-11)
(2.41901e-08 -9.54656e-09 -3.68507e-11)
(2.79104e-08 -1.08238e-08 -1.72795e-10)
(3.22288e-08 -1.21319e-08 -4.0303e-10)
(3.72404e-08 -1.34482e-08 -7.80136e-10)
(4.29637e-08 -1.47531e-08 -1.37862e-09)
(4.91773e-08 -1.60198e-08 -2.2724e-09)
(5.48826e-08 -1.70854e-08 -3.37395e-09)
(6.39321e-08 -1.83016e-08 -5.70003e-09)
(0 0 0)
(3.32556e-09 -1.19557e-09 3.30802e-11)
(6.41828e-09 -2.3307e-09 6.35345e-11)
(9.27492e-09 -3.42198e-09 9.07871e-11)
(1.19918e-08 -4.51518e-09 1.14754e-10)
(1.46515e-08 -5.64531e-09 1.34372e-10)
(1.73312e-08 -6.83953e-09 1.4727e-10)
(2.01101e-08 -8.11988e-09 1.49275e-10)
(2.30671e-08 -9.50336e-09 1.3334e-10)
(2.62771e-08 -1.10033e-08 8.78611e-11)
(2.98097e-08 -1.2635e-08 -6.16253e-12)
(3.37112e-08 -1.44211e-08 -1.79005e-10)
(3.79729e-08 -1.63969e-08 -4.78889e-10)
(4.24973e-08 -1.86185e-08 -9.79396e-10)
(4.70184e-08 -2.11114e-08 -1.76601e-09)
(5.08835e-08 -2.35398e-08 -2.78949e-09)
(5.72873e-08 -2.71671e-08 -5.32462e-09)
(0 0 0)
(3.67934e-09 -1.28193e-09 4.12835e-11)
(7.09044e-09 -2.50054e-09 7.99512e-11)
(1.02198e-08 -3.67506e-09 1.15975e-10)
(1.31623e-08 -4.85584e-09 1.50095e-10)
(1.59957e-08 -6.08224e-09 1.82217e-10)
(1.87912e-08 -7.38694e-09 2.11334e-10)
(2.16157e-08 -8.79861e-09 2.35191e-10)
(2.45242e-08 -1.03416e-08 2.49514e-10)
(2.75543e-08 -1.2038e-08 2.46987e-10)
(3.07218e-08 -1.39158e-08 2.15386e-10)
(3.39947e-08 -1.6012e-08 1.34661e-10)
(3.72516e-08 -1.83781e-08 -2.75448e-11)
(4.02443e-08 -2.10974e-08 -3.2273e-10)
(4.25487e-08 -2.42539e-08 -8.20458e-10)
(4.36713e-08 -2.7582e-08 -1.52333e-09)
(4.34602e-08 -3.37467e-08 -3.37772e-09)
(0 0 0)
(3.9665e-09 -1.32143e-09 4.9736e-11)
(7.63246e-09 -2.57901e-09 9.69382e-11)
(1.09721e-08 -3.7937e-09 1.42201e-10)
(1.40769e-08 -5.01871e-09 1.87191e-10)
(1.70202e-08 -6.29656e-09 2.32952e-10)
(1.98648e-08 -7.66295e-09 2.79997e-10)
(2.2662e-08 -9.14872e-09 3.28147e-10)
(2.54445e-08 -1.07798e-08 3.76211e-10)
(2.822e-08 -1.25782e-08 4.21669e-10)
(3.09619e-08 -1.45659e-08 4.60132e-10)
(3.35837e-08 -1.67625e-08 4.84095e-10)
(3.59013e-08 -1.91811e-08 4.82756e-10)
(3.75961e-08 -2.1822e-08 4.43388e-10)
(3.81832e-08 -2.46146e-08 3.62538e-10)
(3.71303e-08 -2.71584e-08 3.17116e-10)
(2.36511e-08 -3.65864e-08 -1.50135e-10)
(0 0 0)
(0 0 0)
(0 0 0)
(0 0 0)
(0 0 0)
(0 0 0)
(0 0 0)
(0 0 0)
(0 0 0)
(0 0 0)
(0 0 0)
(0 0 0)
(0 0 0)
(0 0 0)
(0 0 0)
(0 0 0)
(0 0 0)
(0 0 0)
(6.54028e-10 -2.56332e-10 3.49292e-12)
(1.26919e-09 -4.98936e-10 6.31339e-12)
(1.85096e-09 -7.30187e-10 7.9784e-12)
(2.42528e-09 -9.58241e-10 7.94827e-12)
(3.01841e-09 -1.18804e-09 5.36446e-12)
(3.65914e-09 -1.42057e-09 -1.11522e-12)
(4.38118e-09 -1.65122e-09 -1.35161e-11)
(5.22578e-09 -1.86688e-09 -3.47643e-11)
(6.24383e-09 -2.04091e-09 -6.8845e-11)
(7.49633e-09 -2.1251e-09 -1.20676e-10)
(9.05008e-09 -2.03808e-09 -1.95188e-10)
(1.09618e-08 -1.65179e-09 -2.94624e-10)
(1.32374e-08 -7.87639e-10 -4.12701e-10)
(1.574e-08 7.26711e-10 -5.25878e-10)
(1.79573e-08 2.72973e-09 -5.92048e-10)
(2.25479e-08 1.01129e-08 -5.12428e-10)
(0 0 0)
(1.28797e-09 -5.03843e-10 7.353e-12)
(2.49783e-09 -9.80926e-10 1.34194e-11)
(3.63912e-09 -1.43632e-09 1.73219e-11)
(4.76143e-09 -1.8866e-09 1.80993e-11)
(5.91426e-09 -2.3424e-09 1.41897e-11)
(7.15115e-09 -2.80725e-09 3.11672e-12)
(8.53405e-09 -3.27518e-09 -1.89069e-11)
(1.01379e-08 -3.72613e-09 -5.7456e-11)
(1.20545e-08 -4.11832e-09 -1.2037e-10)
(1.43928e-08 -4.3764e-09 -2.17942e-10)
(1.72707e-08 -4.37574e-09 -3.6211e-10)
(2.07841e-08 -3.92842e-09 -5.63164e-10)
(2.4925e-08 -2.79509e-09 -8.21351e-10)
(2.93977e-08 -8.0264e-10 -1.11033e-09)
(3.32321e-08 1.70918e-09 -1.3523e-09)
(3.81632e-08 7.21834e-09 -1.64362e-09)
(0 0 0)
(1.88557e-09 -7.34631e-10 1.18893e-11)
(3.65325e-09 -1.43077e-09 2.19832e-11)
(5.31402e-09 -2.09664e-09 2.91701e-11)
(6.93705e-09 -2.75763e-09 3.22847e-11)
(8.58996e-09 -3.43113e-09 2.93494e-11)
(1.03441e-08 -4.12571e-09 1.71514e-11)
(1.228e-08 -4.83883e-09 -9.32276e-12)
(1.44931e-08 -5.55266e-09 -5.76333e-11)
(1.70982e-08 -6.22692e-09 -1.38812e-10)
(2.02293e-08 -6.78837e-09 -2.68274e-10)
(2.40286e-08 -7.11819e-09 -4.66089e-10)
(2.86081e-08 -7.04476e-09 -7.54813e-10)
(3.39467e-08 -6.36753e-09 -1.15014e-09)
(3.9655e-08 -4.97893e-09 -1.63353e-09)
(4.45095e-08 -3.20808e-09 -2.08786e-09)
(5.11318e-08 4.35239e-10 -2.59807e-09)
(0 0 0)
(2.43303e-09 -9.40758e-10 1.72913e-11)
(4.70822e-09 -1.83314e-09 3.24155e-11)
(6.83472e-09 -2.68894e-09 4.42332e-11)
(8.8961e-09 -3.54244e-09 5.16553e-11)
(1.09718e-08 -4.41868e-09 5.26698e-11)
(1.31426e-08 -5.33347e-09 4.38743e-11)
(1.5496e-08 -6.29196e-09 1.98073e-11)
(1.81321e-08 -7.28653e-09 -2.79712e-11)
(2.11671e-08 -8.29251e-09 -1.12199e-10)
(2.47325e-08 -9.26253e-09 -2.51556e-10)
(2.89617e-08 -1.01196e-08 -4.72293e-10)
(3.3953e-08 -1.07543e-08 -8.08012e-10)
(3.96768e-08 -1.10409e-08 -1.29061e-09)
(4.57489e-08 -1.08949e-08 -1.9133e-09)
(5.09519e-08 -1.04083e-08 -2.52983e-09)
(5.83662e-08 -9.08019e-09 -3.28007e-09)
(0 0 0)
(2.92046e-09 -1.11474e-09 2.3606e-11)
(5.64365e-09 -2.17343e-09 4.48209e-11)
(8.17346e-09 -3.19159e-09 6.26958e-11)
(1.06025e-08 -4.21194e-09 7.65161e-11)
(1.30156e-08 -5.26736e-09 8.46443e-11)
(1.54942e-08 -6.38149e-09 8.40798e-11)
(1.81216e-08 -7.56924e-09 6.98301e-11)
(2.09888e-08 -8.83758e-09 3.40104e-11)
(2.41943e-08 -1.01845e-08 -3.5645e-11)
(2.78395e-08 -1.15984e-08 -1.57782e-10)
(3.20123e-08 -1.30573e-08 -3.59827e-10)
(3.67555e-08 -1.45288e-08 -6.79836e-10)
(4.20027e-08 -1.59685e-08 -1.1604e-09)
(4.74193e-08 -1.72894e-08 -1.81151e-09)
(5.20352e-08 -1.82624e-08 -2.49282e-09)
(5.90778e-08 -1.91654e-08 -3.47295e-09)
(0 0 0)
(3.34198e-09 -1.24979e-09 3.07332e-11)
(6.44861e-09 -2.43822e-09 5.89871e-11)
(9.31551e-09 -3.58438e-09 8.41992e-11)
(1.20392e-08 -4.73828e-09 1.06291e-10)
(1.47039e-08 -5.93952e-09 1.24352e-10)
(1.73843e-08 -7.21864e-09 1.3629e-10)
(2.01535e-08 -8.60025e-09 1.38463e-10)
(2.30844e-08 -1.01053e-08 1.24959e-10)
(2.62435e-08 -1.17522e-08 8.63005e-11)
(2.96824e-08 -1.35606e-08 7.65596e-12)
(3.34152e-08 -1.55536e-08 -1.33175e-10)
(3.73868e-08 -1.77627e-08 -3.68287e-10)
(4.14308e-08 -2.02198e-08 -7.37446e-10)
(4.52034e-08 -2.28682e-08 -1.26102e-09)
(4.81075e-08 -2.5239e-08 -1.83854e-09)
(5.29106e-08 -2.83306e-08 -2.87317e-09)
(0 0 0)
(3.69552e-09 -1.34017e-09 3.84434e-11)
(7.1199e-09 -2.61613e-09 7.44259e-11)
(1.02581e-08 -3.84992e-09 1.07914e-10)
(1.32062e-08 -5.09705e-09 1.39646e-10)
(1.60429e-08 -6.40177e-09 1.69656e-10)
(1.88338e-08 -7.7998e-09 1.97153e-10)
(2.16402e-08 -9.3237e-09 2.20454e-10)
(2.45122e-08 -1.10034e-08 2.36505e-10)
(2.74783e-08 -1.28677e-08 2.40214e-10)
(3.0536e-08 -1.4951e-08 2.23514e-10)
(3.36233e-08 -1.72949e-08 1.74447e-10)
(3.65785e-08 -1.99524e-08 7.63629e-11)
(3.90975e-08 -2.29912e-08 -9.06845e-11)
(4.07091e-08 -2.64224e-08 -3.36116e-10)
(4.1004e-08 -2.98231e-08 -6.09672e-10)
(3.97117e-08 -3.57737e-08 -9.93066e-10)
(0 0 0)
(3.98183e-09 -1.38157e-09 4.63961e-11)
(7.66002e-09 -2.69854e-09 9.04178e-11)
(1.10073e-08 -3.97495e-09 1.32632e-10)
(1.4116e-08 -5.26933e-09 1.74673e-10)
(1.70581e-08 -6.62882e-09 2.17633e-10)
(1.98916e-08 -8.09278e-09 2.62212e-10)
(2.26639e-08 -9.69711e-09 3.08796e-10)
(2.54022e-08 -1.14738e-08 3.57315e-10)
(2.81041e-08 -1.34512e-08 4.07317e-10)
(3.07261e-08 -1.56582e-08 4.58133e-10)
(3.31569e-08 -1.81198e-08 5.09224e-10)
(3.51787e-08 -2.08513e-08 5.62517e-10)
(3.64314e-08 -2.38404e-08 6.28314e-10)
(3.64058e-08 -2.69611e-08 7.41413e-10)
(3.46431e-08 -2.969e-08 1.00811e-09)
(2.00293e-08 -3.96613e-08 2.16732e-09)
(0 0 0)
(0 0 0)
(0 0 0)
(0 0 0)
(0 0 0)
(0 0 0)
(0 0 0)
(0 0 0)
(0 0 0)
(0 0 0)
(0 0 0)
(0 0 0)
(0 0 0)
(0 0 0)
(0 0 0)
(0 0 0)
(0 0 0)
(0 0 0)
(6.5705e-10 -2.66489e-10 3.07552e-12)
(1.27487e-09 -5.19051e-10 5.54479e-12)
(1.85879e-09 -7.6048e-10 6.97018e-12)
(2.43467e-09 -9.99566e-10 6.86611e-12)
(3.02846e-09 -1.24175e-09 4.47003e-12)
(3.6683e-09 -1.48835e-09 -1.39638e-12)
(4.38666e-09 -1.73484e-09 -1.24884e-11)
(5.22235e-09 -1.96787e-09 -3.13018e-11)
(6.22187e-09 -2.16011e-09 -6.11673e-11)
(7.43849e-09 -2.26245e-09 -1.06083e-10)
(8.92587e-09 -2.19344e-09 -1.69906e-10)
(1.07203e-08 -1.8292e-09 -2.54295e-10)
(1.28011e-08 -1.0068e-09 -3.54957e-10)
(1.50164e-08 4.11695e-10 -4.57488e-10)
(1.69135e-08 2.24374e-09 -5.36954e-10)
(2.08005e-08 8.92029e-09 -7.25706e-10)
(0 0 0)
(1.29374e-09 -5.23822e-10 6.48773e-12)
(2.50864e-09 -1.0205e-09 1.18171e-11)
(3.65395e-09 -1.49597e-09 1.51949e-11)
(4.77901e-09 -1.96809e-09 1.57608e-11)
(5.93277e-09 -2.44852e-09 1.21364e-11)
(7.16753e-09 -2.94158e-09 2.16625e-12)
(8.54285e-09 -3.44168e-09 -1.73936e-11)
(1.01292e-08 -3.92857e-09 -5.12214e-11)
(1.201e-08 -4.35954e-09 -1.05707e-10)
(1.42802e-08 -4.6577e-09 -1.88864e-10)
(1.70336e-08 -4.69774e-09 -3.09229e-10)
(2.03287e-08 -4.29636e-09 -4.72477e-10)
(2.41107e-08 -3.23361e-09 -6.74125e-10)
(2.80603e-08 -1.37813e-09 -8.88005e-10)
(3.13253e-08 9.09923e-10 -1.05638e-09)
(3.53957e-08 5.78524e-09 -1.22864e-09)
(0 0 0)
(1.8936e-09 -7.63783e-10 1.0519e-11)
(3.66818e-09 -1.48855e-09 1.94249e-11)
(5.33424e-09 -2.18383e-09 2.57175e-11)
(6.96057e-09 -2.87695e-09 2.83631e-11)
(8.61392e-09 -3.58697e-09 2.56375e-11)
(1.03639e-08 -4.32384e-09 1.47875e-11)
(1.22878e-08 -5.08603e-09 -8.39765e-12)
(1.44751e-08 -5.85607e-09 -5.00985e-11)
(1.70294e-08 -6.59317e-09 -1.18988e-10)
(2.00661e-08 -7.22255e-09 -2.26473e-10)
(2.36966e-08 -7.62364e-09 -3.85873e-10)
(2.79856e-08 -7.62586e-09 -6.08704e-10)
(3.28536e-08 -7.03899e-09 -8.94526e-10)
(3.78854e-08 -5.77985e-09 -1.21034e-09)
(4.20135e-08 -4.1872e-09 -1.46565e-09)
(4.75291e-08 -1.0325e-09 -1.66097e-09)
(0 0 0)
(2.44264e-09 -9.78122e-10 1.53418e-11)
(4.7259e-09 -1.90725e-09 2.87423e-11)
(6.8582e-09 -2.80089e-09 3.91838e-11)
(8.92255e-09 -3.69597e-09 4.5718e-11)
(1.09972e-08 -4.61986e-09 4.66279e-11)
(1.31609e-08 -5.59047e-09 3.90695e-11)
(1.54972e-08 -6.61489e-09 1.85963e-11)
(1.80994e-08 -7.687e-09 -2.14304e-11)
(2.10713e-08 -8.78285e-09 -9.05404e-11)
(2.45234e-08 -9.85426e-09 -2.0173e-10)
(2.85556e-08 -1.08216e-08 -3.71238e-10)
(3.32176e-08 -1.15717e-08 -6.15469e-10)
(3.84213e-08 -1.19738e-08 -9.40116e-10)
(4.37604e-08 -1.19391e-08 -1.31386e-09)
(4.81861e-08 -1.15556e-08 -1.63003e-09)
(5.44265e-08 -1.04864e-08 -1.89542e-09)
(0 0 0)
(2.93092e-09 -1.15905e-09 2.09984e-11)
(5.66263e-09 -2.26137e-09 3.98621e-11)
(8.19799e-09 -3.32462e-09 5.5756e-11)
(1.06287e-08 -4.39478e-09 6.8089e-11)
(1.30384e-08 -5.50774e-09 7.5526e-11)
(1.55066e-08 -6.6903e-09 7.56846e-11)
(1.81124e-08 -7.96034e-09 6.46971e-11)
(2.09386e-08 -9.32726e-09 3.67163e-11)
(2.40709e-08 -1.07913e-08 -1.67533e-11)
(2.75899e-08 -1.2342e-08 -1.07437e-10)
(3.15521e-08 -1.39556e-08 -2.50469e-10)
(3.59575e-08 -1.55926e-08 -4.62512e-10)
(4.06921e-08 -1.71906e-08 -7.52998e-10)
(4.54135e-08 -1.86297e-08 -1.10031e-09)
(4.93161e-08 -1.96559e-08 -1.41123e-09)
(5.53549e-08 -2.06214e-08 -1.75894e-09)
(0 0 0)
(3.3526e-09 -1.29951e-09 2.73965e-11)
(6.46755e-09 -2.53697e-09 5.25881e-11)
(9.33914e-09 -3.73397e-09 7.50993e-11)
(1.20628e-08 -4.94437e-09 9.49344e-11)
(1.47222e-08 -6.21173e-09 1.11467e-10)
(1.73901e-08 -7.57047e-09 1.23216e-10)
(2.01331e-08 -9.04835e-09 1.27631e-10)
(2.30156e-08 -1.06698e-08 1.20873e-10)
(2.60929e-08 -1.24579e-08 9.73595e-11)
(2.93983e-08 -1.44358e-08 4.961e-11)
(3.2918e-08 -1.66265e-08 -3.14828e-11)
(3.65638e-08 -1.90553e-08 -1.5519e-10)
(4.01399e-08 -2.17322e-08 -3.25172e-10)
(4.33164e-08 -2.45519e-08 -5.25281e-10)
(4.56538e-08 -2.69981e-08 -7.0066e-10)
(4.98567e-08 -3.008e-08 -9.88486e-10)
(0 0 0)
(3.70576e-09 -1.39354e-09 3.43264e-11)
(7.13779e-09 -2.72223e-09 6.64732e-11)
(1.02796e-08 -4.01092e-09 9.64523e-11)
(1.32263e-08 -5.31952e-09 1.25027e-10)
(1.60562e-08 -6.69672e-09 1.52464e-10)
(1.88314e-08 -8.18224e-09 1.7846e-10)
(2.16061e-08 -9.81217e-09 2.02307e-10)
(2.4423e-08 -1.16211e-08 2.22908e-10)
(2.73018e-08 -1.36446e-08 2.38802e-10)
(3.02241e-08 -1.59225e-08 2.48652e-10)
(3.31039e-08 -1.84972e-08 2.52648e-10)
(3.57564e-08 -2.14194e-08 2.55321e-10)
(3.78645e-08 -2.47397e-08 2.70599e-10)
(3.89881e-08 -2.84256e-08 3.27276e-10)
(3.88643e-08 -3.19982e-08 4.46564e-10)
(3.74966e-08 -3.8219e-08 8.04896e-10)
(0 0 0)
(3.99125e-09 -1.43665e-09 4.14783e-11)
(7.67614e-09 -2.80816e-09 8.08613e-11)
(1.10259e-08 -4.1416e-09 1.18711e-10)
(1.41317e-08 -5.50013e-09 1.56608e-10)
(1.70644e-08 -6.93528e-09 1.95774e-10)
(1.9878e-08 -8.49058e-09 2.37248e-10)
(2.26143e-08 -1.02064e-08 2.82223e-10)
(2.52941e-08 -1.21199e-08 3.32283e-10)
(2.79067e-08 -1.42663e-08 3.90035e-10)
(3.03953e-08 -1.668e-08 4.60197e-10)
(3.26304e-08 -1.93886e-08 5.51908e-10)
(3.43796e-08 -2.24066e-08 6.83291e-10)
(3.52797e-08 -2.57093e-08 8.88372e-10)
(3.48576e-08 -2.9139e-08 1.22441e-09)
(3.27714e-08 -3.21335e-08 1.76884e-09)
(1.81675e-08 -4.28611e-08 3.80548e-09)
(0 0 0)
(0 0 0)
(0 0 0)
(0 0 0)
(0 0 0)
(0 0 0)
(0 0 0)
(0 0 0)
(0 0 0)
(0 0 0)
(0 0 0)
(0 0 0)
(0 0 0)
(0 0 0)
(0 0 0)
(0 0 0)
(0 0 0)
(0 0 0)
(6.58948e-10 -2.75401e-10 2.5783e-12)
(1.27829e-09 -5.36725e-10 4.64528e-12)
(1.86312e-09 -7.87166e-10 5.83419e-12)
(2.439e-09 -1.0361e-09 5.74534e-12)
(3.03139e-09 -1.2895e-09 3.76128e-12)
(3.66749e-09 -1.54907e-09 -1.05438e-12)
(4.37813e-09 -1.81065e-09 -1.00648e-11)
(5.19934e-09 -2.06111e-09 -2.51515e-11)
(6.17299e-09 -2.27337e-09 -4.87249e-11)
(7.34496e-09 -2.39892e-09 -8.35162e-11)
(8.75806e-09 -2.35843e-09 -1.31918e-10)
(1.04347e-08 -2.03368e-09 -1.9463e-10)
(1.23421e-08 -1.27374e-09 -2.68744e-10)
(1.43328e-08 4.33732e-11 -3.46504e-10)
(1.60083e-08 1.74294e-09 -4.1445e-10)
(1.9424e-08 7.99526e-09 -6.44663e-10)
(0 0 0)
(1.29735e-09 -5.41339e-10 5.44672e-12)
(2.5151e-09 -1.05526e-09 9.9177e-12)
(3.66202e-09 -1.54848e-09 1.27508e-11)
(4.78692e-09 -2.04006e-09 1.32427e-11)
(5.93774e-09 -2.54272e-09 1.02876e-11)
(7.16506e-09 -3.06168e-09 2.1923e-12)
(8.52539e-09 -3.59211e-09 -1.35247e-11)
(1.0084e-08 -4.11437e-09 -4.0315e-11)
(1.19159e-08 -4.58628e-09 -8.26574e-11)
(1.41026e-08 -4.93194e-09 -1.45745e-10)
(1.67185e-08 -5.02885e-09 -2.34342e-10)
(1.97978e-08 -4.70112e-09 -3.50127e-10)
(2.3266e-08 -3.74374e-09 -4.87077e-10)
(2.68181e-08 -2.04251e-09 -6.26059e-10)
(2.97079e-08 6.12558e-11 -7.32763e-10)
(3.32966e-08 4.59544e-09 -8.32987e-10)
(0 0 0)
(1.89855e-09 -7.89331e-10 8.84793e-12)
(3.67697e-09 -1.53926e-09 1.63402e-11)
(5.34501e-09 -2.26051e-09 2.16473e-11)
(6.97067e-09 -2.98223e-09 2.39369e-11)
(8.61932e-09 -3.72509e-09 2.18503e-11)
(1.03582e-08 -4.50055e-09 1.32703e-11)
(1.22606e-08 -5.30842e-09 -4.93633e-12)
(1.4409e-08 -6.13243e-09 -3.7163e-11)
(1.68961e-08 -6.93279e-09 -8.91786e-11)
(1.98203e-08 -7.63585e-09 -1.67826e-10)
(2.32687e-08 -8.12311e-09 -2.79695e-10)
(2.7277e-08 -8.22879e-09 -4.27671e-10)
(3.17446e-08 -7.77144e-09 -6.04025e-10)
(3.62807e-08 -6.67506e-09 -7.8061e-10)
(3.99543e-08 -5.25467e-09 -9.05786e-10)
(4.48924e-08 -2.4103e-09 -9.57094e-10)
(0 0 0)
(2.44848e-09 -1.01085e-09 1.29299e-11)
(4.73611e-09 -1.97223e-09 2.42329e-11)
(6.87031e-09 -2.89928e-09 3.30754e-11)
(8.93306e-09 -3.83129e-09 3.87189e-11)
(1.10009e-08 -4.79791e-09 3.98548e-11)
(1.31499e-08 -5.81916e-09 3.43773e-11)
(1.5459e-08 -6.90431e-09 1.91318e-11)
(1.80137e-08 -8.04918e-09 -1.03183e-11)
(2.09058e-08 -9.23163e-09 -5.97902e-11)
(2.42277e-08 -1.04049e-08 -1.3619e-10)
(2.80547e-08 -1.14901e-08 -2.46267e-10)
(3.24094e-08 -1.23745e-08 -3.93229e-10)
(3.71871e-08 -1.29259e-08 -5.69634e-10)
(4.2014e-08 -1.30488e-08 -7.46789e-10)
(4.5983e-08 -1.28073e-08 -8.71706e-10)
(5.16581e-08 -1.19804e-08 -9.10896e-10)
(0 0 0)
(2.93715e-09 -1.19784e-09 1.77279e-11)
(5.67327e-09 -2.33844e-09 3.36732e-11)
(8.21002e-09 -3.44144e-09 4.71687e-11)
(1.06379e-08 -4.55579e-09 5.78013e-11)
(1.30384e-08 -5.72019e-09 6.46291e-11)
(1.54884e-08 -6.96434e-09 6.60212e-11)
(1.80625e-08 -8.30917e-09 5.94786e-11)
(2.08352e-08 -9.76673e-09 4.15237e-11)
(2.38804e-08 -1.13402e-08 7.80291e-12)
(2.7262e-08 -1.30214e-08 -4.6416e-11)
(3.10154e-08 -1.47867e-08 -1.25058e-10)
(3.51208e-08 -1.6594e-08 -2.28435e-10)
(3.94593e-08 -1.83709e-08 -3.48188e-10)
(4.37314e-08 -1.99775e-08 -4.61894e-10)
(4.72618e-08 -2.11315e-08 -5.37508e-10)
(5.29221e-08 -2.22834e-08 -5.72723e-10)
(0 0 0)
(3.35876e-09 -1.34301e-09 2.31619e-11)
(6.47777e-09 -2.62348e-09 4.44896e-11)
(9.34989e-09 -3.86526e-09 6.36326e-11)
(1.20691e-08 -5.12566e-09 8.0703e-11)
(1.4717e-08 -6.45157e-09 9.53961e-11)
(1.73643e-08 -7.88124e-09 1.06926e-10)
(2.00726e-08 -9.44587e-09 1.1401e-10)
(2.28975e-08 -1.11732e-08 1.15048e-10)
(2.58846e-08 -1.3091e-08 1.08522e-10)
(2.9053e-08 -1.52254e-08 9.39934e-11)
(3.23736e-08 -1.76005e-08 7.37716e-11)
(3.5749e-08 -2.0239e-08 5.56839e-11)
(3.89938e-08 -2.31389e-08 5.60648e-11)
(4.18358e-08 -2.61691e-08 9.60119e-11)
(4.39502e-08 -2.87764e-08 1.71298e-10)
(4.81534e-08 -3.20715e-08 2.62214e-10)
(0 0 0)
(3.71147e-09 -1.44021e-09 2.90515e-11)
(7.14693e-09 -2.81511e-09 5.62966e-11)
(1.02882e-08 -4.15208e-09 8.18082e-11)
(1.32289e-08 -5.51473e-09 1.06357e-10)
(1.60458e-08 -6.95583e-09 1.30432e-10)
(1.87993e-08 -8.51946e-09 1.54276e-10)
(2.15367e-08 -1.02447e-08 1.78182e-10)
(2.42929e-08 -1.21703e-08 2.02974e-10)
(2.70811e-08 -1.43384e-08 2.30697e-10)
(2.9872e-08 -1.67927e-08 2.66157e-10)
(3.25694e-08 -1.95775e-08 3.19595e-10)
(3.49885e-08 -2.27436e-08 4.10634e-10)
(3.68359e-08 -2.63337e-08 5.71546e-10)
(3.77393e-08 -3.0295e-08 8.38919e-10)
(3.75379e-08 -3.41097e-08 1.18893e-09)
(3.66676e-08 -4.08125e-08 1.90147e-09)
(0 0 0)
(3.99624e-09 -1.48479e-09 3.51302e-11)
(7.68374e-09 -2.90407e-09 6.85298e-11)
(1.1032e-08 -4.28758e-09 1.00744e-10)
(1.41307e-08 -5.70242e-09 1.33248e-10)
(1.70495e-08 -7.20447e-09 1.6735e-10)
(1.98394e-08 -8.84147e-09 2.04402e-10)
(2.25359e-08 -1.0657e-08 2.46295e-10)
(2.51542e-08 -1.26933e-08 2.961e-10)
(2.76783e-08 -1.49919e-08 3.59094e-10)
(3.00437e-08 -1.7592e-08 4.44566e-10)
(3.21153e-08 -2.05239e-08 5.69121e-10)
(3.36659e-08 -2.38038e-08 7.61524e-10)
(3.43599e-08 -2.74026e-08 1.0669e-09)
(3.37888e-08 -3.11497e-08 1.54182e-09)
(3.17002e-08 -3.44628e-08 2.21841e-09)
(1.7781e-08 -4.60383e-08 4.57635e-09)
(0 0 0)
(0 0 0)
(0 0 0)
(0 0 0)
(0 0 0)
(0 0 0)
(0 0 0)
(0 0 0)
(0 0 0)
(0 0 0)
(0 0 0)
(0 0 0)
(0 0 0)
(0 0 0)
(0 0 0)
(0 0 0)
(0 0 0)
(0 0 0)
(6.6002e-10 -2.82732e-10 2.00899e-12)
(1.28008e-09 -5.51281e-10 3.62187e-12)
(1.86501e-09 -8.09187e-10 4.55836e-12)
(2.44002e-09 -1.06635e-09 4.51999e-12)
(3.02998e-09 -1.32921e-09 3.05482e-12)
(3.66117e-09 -1.59992e-09 -5.06799e-13)
(4.36281e-09 -1.87474e-09 -7.11136e-12)
(5.16843e-09 -2.14104e-09 -1.80133e-11)
(6.11601e-09 -2.37238e-09 -3.47325e-11)
(7.24591e-09 -2.52143e-09 -5.88536e-11)
(8.59383e-09 -2.51113e-09 -9.15704e-11)
(1.01749e-08 -2.22756e-09 -1.32967e-10)
(1.19535e-08 -1.52617e-09 -1.81374e-10)
(1.37921e-08 -2.89392e-10 -2.33526e-10)
(1.5329e-08 1.32177e-09 -2.83182e-10)
(1.84434e-08 7.32805e-09 -4.8256e-10)
(0 0 0)
(1.29936e-09 -5.55743e-10 4.24786e-12)
(2.51843e-09 -1.08387e-09 7.74085e-12)
(3.66544e-09 -1.59178e-09 9.97481e-12)
(4.78853e-09 -2.0996e-09 1.04294e-11)
(5.93456e-09 -2.62098e-09 8.30419e-12)
(7.15232e-09 -3.16207e-09 2.40445e-12)
(8.4954e-09 -3.71895e-09 -8.96005e-12)
(1.00245e-08 -4.27296e-09 -2.80284e-11)
(1.18075e-08 -4.78313e-09 -5.75057e-11)
(1.39161e-08 -5.17548e-09 -1.00185e-10)
(1.64123e-08 -5.33089e-09 -1.5805e-10)
(1.93187e-08 -5.07924e-09 -2.30663e-10)
(2.25583e-08 -4.22293e-09 -3.13067e-10)
(2.58495e-08 -2.64953e-09 -3.94275e-10)
(2.85169e-08 -6.73989e-10 -4.57249e-10)
(3.18675e-08 3.68303e-09 -5.22653e-10)
(0 0 0)
(1.90127e-09 -8.10326e-10 6.90869e-12)
(3.6814e-09 -1.58097e-09 1.27707e-11)
(5.34934e-09 -2.32371e-09 1.69593e-11)
(6.97214e-09 -3.06924e-09 1.8871e-11)
(8.61369e-09 -3.83968e-09 1.75433e-11)
(1.03388e-08 -4.64793e-09 1.15225e-11)
(1.2217e-08 -5.49526e-09 -1.24898e-12)
(1.43246e-08 -6.36693e-09 -2.34757e-11)
(1.67456e-08 -7.2249e-09 -5.83699e-11)
(1.9566e-08 -7.99769e-09 -1.09131e-10)
(2.28586e-08 -8.5699e-09 -1.77736e-10)
(2.66468e-08 -8.78e-09 -2.62691e-10)
(3.08313e-08 -8.45018e-09 -3.55822e-10)
(3.50567e-08 -7.4998e-09 -4.39729e-10)
(3.84799e-08 -6.21261e-09 -4.91446e-10)
(4.31728e-08 -3.55354e-09 -4.90952e-10)
(0 0 0)
(2.45161e-09 -1.03772e-09 1.01081e-11)
(4.74106e-09 -2.02566e-09 1.89634e-11)
(6.87475e-09 -2.98031e-09 2.59457e-11)
(8.93347e-09 -3.94303e-09 3.05434e-11)
(1.0992e-08 -4.9454e-09 3.18693e-11)
(1.31236e-08 -6.00945e-09 2.8552e-11)
(1.5403e-08 -7.14652e-09 1.86594e-11)
(1.79091e-08 -8.35464e-09 -2.76138e-13)
(2.07244e-08 -9.61394e-09 -3.09937e-11)
(2.39287e-08 -1.08799e-08 -7.58316e-11)
(2.75845e-08 -1.20761e-08 -1.35375e-10)
(3.17058e-08 -1.30912e-08 -2.06201e-10)
(3.6196e-08 -1.37911e-08 -2.78243e-10)
(4.07246e-08 -1.4069e-08 -3.34322e-10)
(4.44695e-08 -1.39579e-08 -3.587e-10)
(4.99569e-08 -1.33091e-08 -3.14849e-10)
(0 0 0)
(2.94038e-09 -1.22968e-09 1.38734e-11)
(5.67816e-09 -2.40178e-09 2.63785e-11)
(8.21376e-09 -3.5376e-09 3.70351e-11)
(1.06363e-08 -4.6886e-09 4.56036e-11)
(1.30253e-08 -5.8959e-09 5.15172e-11)
(1.54548e-08 -7.19169e-09 5.38375e-11)
(1.79953e-08 -8.59973e-09 5.12713e-11)
(2.07149e-08 -1.01351e-08 4.23279e-11)
(2.36787e-08 -1.18038e-08 2.58475e-11)
(2.694e-08 -1.36002e-08 1.95565e-12)
(3.0525e-08 -1.55026e-08 -2.6443e-11)