/*--------------------------------*- C++ -*----------------------------------*\
| =========                 |                                                 |
| \\      /  F ield         | foam-extend: Open Source CFD                    |
|  \\    /   O peration     | Version:     3.1                                |
|   \\  /    A nd           | Web:         http://www.extend-project.de       |
|    \\/     M anipulation  |                                                 |
\*---------------------------------------------------------------------------*/
FoamFile
{
    version     2.0;
    format      ascii;
    class       surfaceVectorField;
    location    "1.3";
    object      Sf;
}
// * * * * * * * * * * * * * * * * * * * * * * * * * * * * * * * * * * * * * //

dimensions      [0 2 0 0 0 0 0];

internalField   nonuniform List<vector> 
41600
(
(0.000625785 -4.55286e-06 -3.243e-08)
(-7.85104e-07 0.000707678 -2.04628e-08)
(4.84122e-09 5.44637e-09 0.000705869)
(-4.91966e-09 -5.53462e-09 -0.000705817)
(0.000626538 -8.76873e-06 -6.24176e-08)
(-7.52418e-07 0.000707341 -6.12502e-08)
(4.68745e-09 1.61646e-08 0.000706585)
(-4.75762e-09 -1.642e-08 -0.000706494)
(0.000627274 -1.26105e-05 -9.01157e-08)
(-7.3637e-07 0.000706967 -1.02935e-07)
(4.74589e-09 2.677e-08 0.000707255)
(-4.79869e-09 -2.7164e-08 -0.000707124)
(0.000628032 -1.61738e-05 -1.16585e-07)
(-7.57853e-07 0.000706689 -1.48472e-07)
(5.05502e-09 3.77817e-08 0.000707977)
(-5.07402e-09 -3.82573e-08 -0.000707802)
(0.000628846 -1.95361e-05 -1.4275e-07)
(-8.14196e-07 0.000706488 -2.01505e-07)
(5.41596e-09 4.95437e-08 0.000708786)
(-5.37066e-09 -4.99918e-08 -0.000708559)
(0.000629751 -2.27616e-05 -1.69248e-07)
(-9.05368e-07 0.000706351 -2.66036e-07)
(5.39317e-09 6.17015e-08 0.000709716)
(-5.23805e-09 -6.19282e-08 -0.000709423)
(0.000630784 -2.58954e-05 -1.95591e-07)
(-1.0326e-06 0.000706258 -3.46725e-07)
(4.2132e-09 7.25713e-08 0.000710798)
(-3.89123e-09 -7.22675e-08 -0.000710425)
(0.000631982 -2.89548e-05 -2.20271e-07)
(-1.1992e-06 0.000706183 -4.49207e-07)
(5.9624e-10 7.82182e-08 0.000712062)
(-1.3833e-11 -7.69054e-08 -0.000711588)
(0.000633391 -3.1923e-05 -2.40754e-07)
(-1.41002e-06 0.00070609 -5.80943e-07)
(-7.91228e-09 7.06383e-08 0.000713543)
(8.91658e-09 -6.75493e-08 -0.000712941)
(0.000635059 -3.4727e-05 -2.52223e-07)
(-1.66968e-06 0.000705923 -7.52238e-07)
(-2.5973e-08 3.41053e-08 0.000715267)
(2.75722e-08 -2.80833e-08 -0.000714503)
(0.000637042 -3.72259e-05 -2.48496e-07)
(-1.98477e-06 0.000705613 -9.78399e-07)
(-6.22373e-08 -6.14928e-08 0.000717264)
(6.45242e-08 7.19476e-08 -0.000716289)
(0.0006394 -3.91909e-05 -2.24912e-07)
(-2.36066e-06 0.000705074 -1.28489e-06)
(-1.32056e-07 -2.72097e-07 0.000719569)
(1.34848e-07 2.88501e-07 -0.000718308)
(0.000642191 -4.03191e-05 -1.87252e-07)
(-2.79355e-06 0.00070423 -1.71788e-06)
(-2.61977e-07 -6.98525e-07 0.000722237)
(2.6443e-07 7.21508e-07 -0.000720557)
(0.000645417 -4.03543e-05 -1.77161e-07)
(-3.22783e-06 0.000703131 -2.36201e-06)
(-4.83136e-07 -1.50363e-06 0.000725387)
(4.84979e-07 1.53288e-06 -0.000723035)
(0.00064861 -3.93557e-05 -3.47458e-07)
(-3.22516e-06 0.00070206 -3.33073e-06)
(-7.3864e-07 -2.82649e-06 0.000729065)
(7.70416e-07 2.89263e-06 -0.000725564)
(-1.24752e-05 0.0006972 -6.63897e-07)
(-3.07969e-06 -6.84764e-06 0.00073634)
(6.53307e-06 1.053e-05 -0.00073441)
(0.000625751 -4.48275e-06 -9.67297e-08)
(-1.53634e-06 0.000712161 -4.01208e-08)
(1.42691e-08 5.15857e-09 0.0007104)
(-1.45094e-08 -5.25248e-09 -0.000710284)
(0.000626471 -8.63444e-06 -1.86305e-07)
(-1.47152e-06 0.000711493 -1.20006e-07)
(1.37586e-08 1.52433e-08 0.00071074)
(-1.39828e-08 -1.55255e-08 -0.000710592)
(0.000627173 -1.2417e-05 -2.69261e-07)
(-1.43848e-06 0.00071075 -2.01477e-07)
(1.39073e-08 2.512e-08 0.000710996)
(-1.40935e-08 -2.55881e-08 -0.000710815)
(0.000627893 -1.59242e-05 -3.48616e-07)
(-1.47813e-06 0.000710197 -2.90249e-07)
(1.48777e-08 3.54083e-08 0.000711398)
(-1.49727e-08 -3.60339e-08 -0.000711177)
(0.000628664 -1.92373e-05 -4.27401e-07)
(-1.58522e-06 0.000709802 -3.93387e-07)
(1.60572e-08 4.65966e-08 0.00071196)
(-1.59737e-08 -4.73002e-08 -0.000711689)
(0.000629517 -2.2421e-05 -5.07538e-07)
(-1.75832e-06 0.000709535 -5.18633e-07)
(1.6267e-08 5.86164e-08 0.000712697)
(-1.58969e-08 -5.92712e-08 -0.000712365)
(0.000630483 -2.55207e-05 -5.87609e-07)
(-1.99966e-06 0.000709359 -6.74797e-07)
(1.36576e-08 7.07633e-08 0.000713617)
(-1.2801e-08 -7.11302e-08 -0.000713209)
(0.000631597 -2.85631e-05 -6.6368e-07)
(-2.31477e-06 0.000709225 -8.72669e-07)
(4.93914e-09 8.12761e-08 0.00071472)
(-3.26093e-09 -8.08577e-08 -0.000714221)
(0.000632894 -3.15479e-05 -7.28102e-07)
(-2.7103e-06 0.000709073 -1.12612e-06)
(-1.63571e-08 8.60547e-08 0.000715999)
(1.9312e-08 -8.40395e-08 -0.000715389)
(0.000634413 -3.44366e-05 -7.67423e-07)
(-3.19271e-06 0.000708807 -1.45367e-06)
(-6.19885e-08 7.69594e-08 0.000717418)
(6.67484e-08 -7.21706e-08 -0.000716678)
(0.000636186 -3.7128e-05 -7.63576e-07)
(-3.76542e-06 0.000708295 -1.88213e-06)
(-1.52855e-07 3.99294e-08 0.000718921)
(1.59806e-07 -3.07131e-08 -0.000718021)
(0.000638236 -3.94421e-05 -6.98982e-07)
(-4.41881e-06 0.000707372 -2.45336e-06)
(-3.24489e-07 -4.70649e-08 0.000720416)
(3.33455e-07 6.29221e-08 -0.000719312)
(0.000640537 -4.11094e-05 -5.78097e-07)
(-5.10472e-06 0.000705872 -3.23847e-06)
(-6.32335e-07 -2.11963e-07 0.0007218)
(6.41785e-07 2.37314e-07 -0.0007204)
(0.000642936 -4.18291e-05 -4.87315e-07)
(-5.63639e-06 0.000703812 -4.36044e-06)
(-1.12577e-06 -4.70863e-07 0.000723072)
(1.13582e-06 5.09614e-07 -0.000721165)
(0.000644823 -4.1494e-05 -7.84419e-07)
(-5.18833e-06 0.000701668 -5.99404e-06)
(-1.63305e-06 -7.78255e-07 0.000724478)
(1.70881e-06 8.35712e-07 -0.000721517)
(-1.20875e-05 0.00069342 -4.02645e-06)
(-5.1447e-06 3.72582e-07 0.000722574)
(1.04267e-05 -2.41207e-06 -0.000716749)
(0.000625687 -4.34663e-06 -1.5927e-07)
(-2.22277e-06 0.000716508 -5.80759e-08)
(2.30865e-08 4.75543e-09 0.000714808)
(-2.34984e-08 -4.85488e-09 -0.000714631)
(0.000626343 -8.37039e-06 -3.06994e-07)
(-2.12703e-06 0.000715517 -1.73606e-07)
(2.21584e-08 1.40201e-08 0.000714745)
(-2.25537e-08 -1.43174e-08 -0.000714543)
(0.00062698 -1.20325e-05 -4.43846e-07)
(-2.07556e-06 0.000714413 -2.91148e-07)
(2.24164e-08 2.31085e-08 0.000714558)
(-2.27541e-08 -2.35846e-08 -0.000714332)
(0.00062763 -1.54279e-05 -5.75081e-07)
(-2.128e-06 0.000713593 -4.18801e-07)
(2.42212e-08 3.27957e-08 0.000714608)
(-2.44201e-08 -3.34071e-08 -0.000714348)
(0.00062832 -1.86385e-05 -7.06589e-07)
(-2.27541e-06 0.000713013 -5.66641e-07)
(2.65779e-08 4.38187e-08 0.000714891)
(-2.65368e-08 -4.45287e-08 -0.000714586)
(0.000629075 -2.17261e-05 -8.4125e-07)
(-2.51371e-06 0.000712624 -7.45534e-07)
(2.80119e-08 5.67746e-08 0.000715396)
(-2.75616e-08 -5.75134e-08 -0.000715034)
(0.000629919 -2.47423e-05 -9.77186e-07)
(-2.84492e-06 0.000712375 -9.67595e-07)
(2.63833e-08 7.23436e-08 0.000716106)
(-2.51645e-08 -7.29157e-08 -0.000715677)
(0.000630877 -2.77318e-05 -1.10957e-06)
(-3.27469e-06 0.000712215 -1.24753e-06)
(1.75939e-08 9.12569e-08 0.000716998)
(-1.5053e-08 -9.13119e-08 -0.000716491)
(0.000631971 -3.07214e-05 -1.22675e-06)
(-3.80915e-06 0.000712061 -1.60389e-06)
(-6.17675e-09 1.14648e-07 0.000718027)
(1.07572e-08 -1.13614e-07 -0.000717432)
(0.000633224 -3.37238e-05 -1.30907e-06)
(-4.45283e-06 0.000711806 -2.061e-06)
(-5.85918e-08 1.44939e-07 0.000719114)
(6.6124e-08 -1.41874e-07 -0.000718425)
(0.000634645 -3.67138e-05 -1.32761e-06)
(-5.19814e-06 0.000711279 -2.65265e-06)
(-1.62376e-07 1.87916e-07 0.000720123)
(1.73805e-07 -1.81225e-07 -0.000719334)
(0.000636217 -3.96073e-05 -1.24721e-06)
(-6.00693e-06 0.000710253 -3.42864e-06)
(-3.52983e-07 2.57988e-07 0.000720851)
(3.68791e-07 -2.45082e-07 -0.000719956)
(0.000637864 -4.22328e-05 -1.0481e-06)
(-6.7706e-06 0.000708474 -4.46918e-06)
(-6.75915e-07 3.89613e-07 0.000721046)
(6.95417e-07 -3.66496e-07 -0.000720014)
(0.000639386 -4.43114e-05 -7.92155e-07)
(-7.18277e-06 0.000705852 -5.90986e-06)
(-1.14539e-06 6.5259e-07 0.000720576)
(1.16971e-06 -6.14229e-07 -0.000719283)
(0.000640322 -4.55522e-05 -8.57782e-07)
(-6.2108e-06 0.000702866 -7.97303e-06)
(-1.53441e-06 1.11822e-06 0.000719877)
(1.62022e-06 -1.07621e-06 -0.000717832)
(-1.45347e-05 0.000695942 -5.25341e-06)
(-3.28822e-06 2.42451e-06 0.000715703)
(6.47063e-06 -3.07981e-06 -0.000712794)
(0.000625595 -4.14357e-06 -2.18257e-07)
(-2.81689e-06 0.000720651 -7.35398e-08)
(3.11322e-08 4.28321e-09 0.000719029)
(-3.17145e-08 -4.37584e-09 -0.000718795)
(0.000626161 -7.97419e-06 -4.21109e-07)
(-2.69259e-06 0.000719348 -2.19704e-07)
(2.98819e-08 1.27263e-08 0.000718539)
(-3.0441e-08 -1.29975e-08 -0.00071829)
(0.000626708 -1.14565e-05 -6.08774e-07)
(-2.62205e-06 0.000717896 -3.68004e-07)
(3.04416e-08 2.1277e-08 0.00071789)
(-3.09146e-08 -2.17075e-08 -0.000717626)
(0.00062726 -1.46811e-05 -7.89766e-07)
(-2.68027e-06 0.000716818 -5.28488e-07)
(3.33849e-08 3.07798e-08 0.000717566)
(-3.3698e-08 -3.13618e-08 -0.000717276)
(0.000627839 -1.77213e-05 -9.72791e-07)
(-2.85357e-06 0.000716054 -7.13611e-07)
(3.75673e-08 4.22411e-08 0.000717542)
(-3.76285e-08 -4.29817e-08 -0.000717212)
(0.00062846 -2.06417e-05 -1.16146e-06)
(-3.13533e-06 0.000715545 -9.36423e-07)
(4.1706e-08 5.69204e-08 0.000717781)
(-4.12663e-08 -5.77874e-08 -0.000717401)
(0.000629139 -2.35057e-05 -1.35481e-06)
(-3.52538e-06 0.00071524 -1.21132e-06)
(4.38921e-08 7.65765e-08 0.000718251)
(-4.24959e-08 -7.74798e-08 -0.000717814)
(0.000629888 -2.63755e-05 -1.54879e-06)
(-4.02722e-06 0.000715085 -1.5555e-06)
(4.05987e-08 1.04053e-07 0.000718912)
(-3.75929e-08 -1.04854e-07 -0.00071841)
(0.000630718 -2.93107e-05 -1.73089e-06)
(-4.64452e-06 0.000714997 -1.99037e-06)
(2.57195e-08 1.44813e-07 0.000719692)
(-2.01422e-08 -1.45226e-07 -0.000719124)
(0.000631633 -3.23715e-05 -1.87875e-06)
(-5.37692e-06 0.000714867 -2.54374e-06)
(-1.12205e-08 2.09348e-07 0.000720487)
(2.06817e-08 -2.08749e-07 -0.000719857)
(0.000632627 -3.56236e-05 -1.95633e-06)
(-6.20774e-06 0.000714528 -3.25348e-06)
(-8.63442e-08 3.17046e-07 0.000721123)
(1.01352e-07 -3.14204e-07 -0.000720445)
(0.000633675 -3.91103e-05 -1.91195e-06)
(-7.07706e-06 0.000713732 -4.17426e-06)
(-2.2119e-07 5.03282e-07 0.000721338)
(2.4328e-07 -4.95919e-07 -0.000720637)
(0.000634706 -4.28033e-05 -1.68861e-06)
(-7.83136e-06 0.000712152 -5.39183e-06)
(-4.38141e-07 8.25375e-07 0.00072079)
(4.68004e-07 -8.09829e-07 -0.000720091)
(0.000635585 -4.64799e-05 -1.2774e-06)
(-8.09991e-06 0.000709501 -7.05219e-06)
(-7.26187e-07 1.35208e-06 0.000719223)
(7.64853e-07 -1.32463e-06 -0.000718491)
(0.000636067 -4.95529e-05 -9.28386e-07)
(-6.77073e-06 0.000705914 -9.42639e-06)
(-9.19483e-07 2.07606e-06 0.000717015)
(9.97334e-07 -2.05046e-06 -0.000715911)
(-1.55186e-05 0.000701046 -6.30099e-06)
(-1.6596e-06 3.39269e-06 0.000712191)
(3.67733e-06 -4.34734e-06 -0.000711221)
(0.000625481 -3.87386e-06 -2.72371e-07)
(-3.29697e-06 0.000724525 -8.59653e-08)
(3.85649e-08 4.06556e-09 0.000722998)
(-3.93129e-08 -4.15973e-09 -0.000722713)
(0.000625936 -7.44913e-06 -5.25746e-07)
(-3.14751e-06 0.000722924 -2.56581e-07)
(3.71919e-08 1.21796e-08 0.00072207)
(-3.79086e-08 -1.24592e-08 -0.000721779)
(0.000626373 -1.06919e-05 -7.6034e-07)
(-3.05782e-06 0.000721139 -4.29119e-07)
(3.83069e-08 2.06249e-08 0.000720949)
(-3.89362e-08 -2.11008e-08 -0.000720653)
(0.000626807 -1.3682e-05 -9.87881e-07)
(-3.11405e-06 0.000719809 -6.15095e-07)
(4.27216e-08 3.03164e-08 0.000720236)
(-4.32091e-08 -3.10203e-08 -0.000719921)
(0.000627252 -1.64863e-05 -1.21893e-06)
(-3.29801e-06 0.000718859 -8.28508e-07)
(4.94155e-08 4.24719e-08 0.000719879)
(-4.96605e-08 -4.34356e-08 -0.000719533)
(0.000627716 -1.91707e-05 -1.45887e-06)
(-3.59977e-06 0.00071823 -1.08374e-06)
(5.75051e-08 5.86988e-08 0.000719828)
(-5.72276e-08 -5.99584e-08 -0.000719441)
(0.000628205 -2.18029e-05 -1.70883e-06)
(-4.01565e-06 0.000717874 -1.39633e-06)
(6.57323e-08 8.13774e-08 0.000720041)
(-6.44426e-08 -8.29707e-08 -0.000719606)
(0.000628719 -2.44526e-05 -1.9671e-06)
(-4.54454e-06 0.000717737 -1.78445e-06)
(7.22575e-08 1.14608e-07 0.000720464)
(-6.92588e-08 -1.16553e-07 -0.000719977)
(0.000629254 -2.72029e-05 -2.22415e-06)
(-5.18525e-06 0.00071775 -2.27064e-06)
(7.43682e-08 1.65884e-07 0.000721019)
(-6.85293e-08 -1.6814e-07 -0.000720481)
(0.0006298 -3.0158e-05 -2.45994e-06)
(-5.93309e-06 0.000717824 -2.88421e-06)
(6.75064e-08 2.48657e-07 0.000721591)
(-5.72e-08 -2.51023e-07 -0.000721015)
(0.000630344 -3.34604e-05 -2.63921e-06)
(-6.76879e-06 0.000717832 -3.66569e-06)
(4.57099e-08 3.86198e-07 0.000722017)
(-2.86301e-08 -3.88083e-07 -0.000721426)
(0.00063087 -3.7287e-05 -2.70094e-06)
(-7.62969e-06 0.000717558 -4.67452e-06)
(4.82618e-09 6.1703e-07 0.000722039)
(2.18413e-08 -6.1685e-07 -0.000721477)
(0.000631355 -4.17773e-05 -2.55447e-06)
(-8.35442e-06 0.000716637 -6.00525e-06)
(-5.88605e-08 9.97143e-07 0.000721284)
(9.71824e-08 -9.91938e-07 -0.000720817)
(0.000631756 -4.68178e-05 -2.09842e-06)
(-8.55188e-06 0.000714528 -7.81959e-06)
(-1.39443e-07 1.57947e-06 0.000719329)
(1.90055e-07 -1.56582e-06 -0.000719018)
(0.000631958 -5.15325e-05 -1.31351e-06)
(-7.04175e-06 0.000710616 -1.04208e-05)
(-1.98871e-07 2.32455e-06 0.00071601)
(2.67778e-07 -2.31162e-06 -0.000715801)
(-1.58964e-05 0.000708274 -6.90021e-06)
(-2.06031e-07 3.44083e-06 0.000711317)
(8.96908e-07 -4.14588e-06 -0.000713012)
(0.000625351 -3.54365e-06 -3.21093e-07)
(-3.64671e-06 0.000728069 -9.49082e-08)
(4.57795e-08 4.05269e-09 0.000726655)
(-4.67035e-08 -4.15738e-09 -0.000726325)
(0.000625681 -6.80782e-06 -6.19383e-07)
(-3.47681e-06 0.000726188 -2.82989e-07)
(4.43956e-08 1.21598e-08 0.000725285)
(-4.52903e-08 -1.24785e-08 -0.000724961)
(0.000625993 -9.75562e-06 -8.95941e-07)
(-3.3689e-06 0.000724087 -4.72493e-07)
(4.62027e-08 2.06467e-08 0.000723693)
(-4.7031e-08 -2.11964e-08 -0.000723373)
(0.000626296 -1.24567e-05 -1.16461e-06)
(-3.41667e-06 0.00072251 -6.75801e-07)
(5.23036e-08 3.04671e-08 0.00072258)
(-5.30227e-08 -3.12805e-08 -0.00072225)
(0.000626596 -1.49706e-05 -1.43784e-06)
(-3.59757e-06 0.000721374 -9.07775e-07)
(6.18975e-08 4.28987e-08 0.000721875)
(-6.24248e-08 -4.4045e-08 -0.000721522)
(0.000626894 -1.73547e-05 -1.72352e-06)
(-3.89738e-06 0.000720616 -1.1832e-06)
(7.4567e-08 5.96404e-08 0.000721518)
(-7.46247e-08 -6.12182e-08 -0.000721133)
(0.000627185 -1.96682e-05 -2.0253e-06)
(-4.30745e-06 0.00072019 -1.51755e-06)
(8.99385e-08 8.32009e-08 0.000721458)
(-8.90323e-08 -8.53213e-08 -0.000721035)
(0.000627458 -2.19755e-05 -2.34543e-06)
(-4.82042e-06 0.000720047 -1.9287e-06)
(1.08143e-07 1.17665e-07 0.000721633)
(-1.05605e-07 -1.20507e-07 -0.000721169)
(0.000627696 -2.43615e-05 -2.68005e-06)
(-5.42848e-06 0.00072014 -2.43859e-06)
(1.2997e-07 1.7e-07 0.000721968)
(-1.24628e-07 -1.73834e-07 -0.000721465)
(0.000627875 -2.69499e-05 -3.01621e-06)
(-6.12236e-06 0.000720417 -3.07583e-06)
(1.56681e-07 2.51889e-07 0.000722363)
(-1.46733e-07 -2.56979e-07 -0.000721836)
(0.000627974 -2.9925e-05 -3.32773e-06)
(-6.88496e-06 0.000720814 -3.88142e-06)
(1.91415e-07 3.82046e-07 0.000722694)
(-1.74122e-07 -3.88505e-07 -0.000722167)
(0.000627986 -3.35492e-05 -3.56039e-06)
(-7.66973e-06 0.00072119 -4.91908e-06)
(2.44047e-07 5.89247e-07 0.000722757)
(-2.15444e-07 -5.9669e-07 -0.00072228)
(0.000627948 -3.81427e-05 -3.61656e-06)
(-8.36033e-06 0.000721237 -6.29838e-06)
(3.25157e-07 9.15e-07 0.000722229)
(-2.81482e-07 -9.217e-07 -0.00072188)
(0.000627964 -4.38957e-05 -3.31644e-06)
(-8.62863e-06 0.000720283 -8.21488e-06)
(4.26581e-07 1.40015e-06 0.000720583)
(-3.65536e-07 -1.40202e-06 -0.000720487)
(0.000628102 -5.00428e-05 -2.24351e-06)
(-7.24759e-06 0.000716762 -1.10055e-05)
(4.63841e-07 2.02008e-06 0.000716814)
(-3.96739e-07 -2.01932e-06 -0.000717302)
(-1.61531e-05 0.000718594 -7.22632e-06)
(1.00891e-06 2.92378e-06 0.000713655)
(-1.36489e-06 -3.4241e-06 -0.000718311)
(0.00062521 -3.16374e-06 -3.63094e-07)
(-3.85571e-06 0.000731233 -1.00077e-07)
(5.29836e-08 4.08147e-09 0.000729947)
(-5.40975e-08 -4.19173e-09 -0.000729579)
(0.000625406 -6.07068e-06 -6.99784e-07)
(-3.67152e-06 0.000729095 -2.98122e-07)
(5.15836e-08 1.22136e-08 0.000728146)
(-5.2675e-08 -1.25467e-08 -0.000727794)
(0.000625586 -8.68146e-06 -1.01191e-06)
(-3.54829e-06 0.000726698 -4.96995e-07)
(5.40789e-08 2.06516e-08 0.00072609)
(-5.51289e-08 -2.12272e-08 -0.000725753)
(0.000625754 -1.10517e-05 -1.3148e-06)
(-3.58348e-06 0.000724881 -7.09343e-07)
(6.18736e-08 3.03235e-08 0.000724576)
(-6.28616e-08 -3.11934e-08 -0.00072424)
(0.000625908 -1.32271e-05 -1.6228e-06)
(-3.75041e-06 0.000723551 -9.50083e-07)
(7.43552e-08 4.24272e-08 0.000723516)
(-7.5238e-08 -4.36788e-08 -0.000723165)
(0.000626041 -1.5251e-05 -1.94577e-06)
(-4.03029e-06 0.000722642 -1.23363e-06)
(9.15342e-08 5.84561e-08 0.000722838)
(-9.20393e-08 -6.02088e-08 -0.000722464)
(0.000626142 -1.71648e-05 -2.29048e-06)
(-4.40832e-06 0.000722106 -1.5745e-06)
(1.1383e-07 8.04995e-08 0.000722482)
(-1.1351e-07 -8.2934e-08 -0.00072208)
(0.00062619 -1.90146e-05 -2.6637e-06)
(-4.86993e-06 0.0007219 -1.98905e-06)
(1.42878e-07 1.11661e-07 0.000722384)
(-1.41163e-07 -1.15073e-07 -0.00072195)
(0.000626156 -2.08619e-05 -3.06694e-06)
(-5.39871e-06 0.000721992 -2.49674e-06)
(1.81947e-07 1.56622e-07 0.000722472)
(-1.77733e-07 -1.61452e-07 -0.00072201)
(0.000626002 -2.28017e-05 -3.49603e-06)
(-5.977e-06 0.000722364 -3.1226e-06)
(2.36023e-07 2.22277e-07 0.000722672)
(-2.27489e-07 -2.29116e-07 -0.000722196)
(0.000625686 -2.49828e-05 -3.9396e-06)
(-6.58521e-06 0.000723005 -3.90336e-06)
(3.13376e-07 3.18163e-07 0.000722896)
(-2.97735e-07 -3.27849e-07 -0.00072243)
(0.000625183 -2.76356e-05 -4.36892e-06)
(-7.19343e-06 0.000723856 -4.9006e-06)
(4.30922e-07 4.56284e-07 0.000723002)
(-4.03803e-07 -4.70024e-07 -0.000722591)
(0.000624539 -3.11444e-05 -4.72142e-06)
(-7.76005e-06 0.000724765 -6.23332e-06)
(6.08091e-07 6.51954e-07 0.000722768)
(-5.64024e-07 -6.70592e-07 -0.000722481)
(0.000624001 -3.60723e-05 -4.82311e-06)
(-8.15875e-06 0.000725233 -8.14826e-06)
(8.32858e-07 9.25211e-07 0.000721769)
(-7.65639e-07 -9.47041e-07 -0.000721734)
(0.000624121 -4.25574e-05 -3.89679e-06)
(-7.43914e-06 0.000723269 -1.10976e-05)
(9.59827e-07 1.29432e-06 0.000718501)
(-8.87406e-07 -1.3156e-06 -0.000719335)
(-1.78433e-05 0.000736381 -7.27752e-06)
(2.0729e-06 1.99669e-06 0.000721884)
(-3.22959e-06 -2.32507e-06 -0.000729892)
(0.000625065 -2.7411e-06 -3.97325e-07)
(6.01778e-08 4.07657e-09 0.000732831)
(-6.14903e-08 -4.19137e-09 -0.000732432)
(-3.91929e-06 0.000733974 -1.0144e-07)
(0.000625123 -5.25636e-06 -7.65049e-07)
(5.87079e-08 1.21602e-08 0.000730621)
(-5.99977e-08 -1.2501e-08 -0.000730249)
(-3.72855e-06 0.000731611 -3.01918e-07)
(0.000625171 -7.50116e-06 -1.10549e-06)
(6.17681e-08 2.04063e-08 0.000728122)
(-6.30496e-08 -2.09907e-08 -0.000727776)
(-3.59514e-06 0.000728944 -5.02613e-07)
(0.000625206 -9.51168e-06 -1.43508e-06)
(7.10669e-08 2.96187e-08 0.000726214)
(-7.23495e-08 -3.05059e-08 -0.000725878)
(-3.61646e-06 0.000726893 -7.15924e-07)
(0.000625219 -1.13177e-05 -1.76917e-06)
(8.605e-08 4.07737e-08 0.000724794)
(-8.73082e-08 -4.20417e-08 -0.000724454)
(-3.76275e-06 0.000725358 -9.56179e-07)
(0.000625201 -1.29434e-05 -2.1191e-06)
(1.06985e-07 5.49137e-08 0.000723781)
(-1.07992e-07 -5.66911e-08 -0.000723428)
(-4.01065e-06 0.000724269 -1.23682e-06)
(0.000625132 -1.44076e-05 -2.49473e-06)
(1.34828e-07 7.33875e-08 0.000723104)
(-1.35224e-07 -7.59045e-08 -0.000722732)
(-4.33929e-06 0.000723573 -1.57081e-06)
(0.000624987 -1.57289e-05 -2.9055e-06)
(1.71949e-07 9.79226e-08 0.000722694)
(-1.71236e-07 -1.01489e-07 -0.000722301)
(-4.72607e-06 0.000723225 -1.9719e-06)
(0.00062473 -1.69291e-05 -3.356e-06)
(2.22506e-07 1.30404e-07 0.000722483)
(-2.19704e-07 -1.3545e-07 -0.000722074)
(-5.14423e-06 0.000723197 -2.45555e-06)
(0.000624308 -1.80362e-05 -3.8492e-06)
(2.92525e-07 1.72522e-07 0.000722405)
(-2.86011e-07 -1.79768e-07 -0.000721994)
(-5.56176e-06 0.000723478 -3.04033e-06)
(0.000623649 -1.90825e-05 -4.38699e-06)
(3.90859e-07 2.24789e-07 0.000722375)
(-3.78214e-07 -2.35494e-07 -0.000721989)
(-5.93865e-06 0.000724062 -3.75183e-06)
(0.000622651 -2.01173e-05 -4.96622e-06)
(5.32479e-07 2.82638e-07 0.000722238)
(-5.0989e-07 -2.9907e-07 -0.000721929)
(-6.21828e-06 0.000724908 -4.63053e-06)
(0.000621165 -2.12447e-05 -5.57366e-06)
(7.3267e-07 3.29808e-07 0.000721707)
(-6.94796e-07 -3.55979e-07 -0.000721583)
(-6.3118e-06 0.000725918 -5.74993e-06)
(0.000618954 -2.27259e-05 -6.12917e-06)
(9.7457e-07 3.35118e-07 0.000720073)
(-9.1466e-07 -3.78359e-07 -0.000720414)
(-6.00769e-06 0.000726757 -7.25097e-06)
(0.000615775 -2.57619e-05 -5.99041e-06)
(1.12409e-06 2.8578e-07 0.000715181)
(-1.0562e-06 -3.51052e-07 -0.000717062)
(-4.32736e-06 0.00072637 -9.35545e-06)
(3.0366e-06 6.5537e-07 0.00073958)
(-4.70696e-06 -8.31025e-07 -0.00075171)
(-2.64902e-05 0.000770813 -6.17496e-06)
(0.00062582 -4.61342e-06 -2.79453e-08)
(-8.19812e-07 0.000707739 -1.87596e-08)
(4.58761e-09 5.16106e-09 0.000705916)
(0.000626607 -8.8858e-06 -5.39643e-08)
(-7.86899e-07 0.000707398 -5.61181e-08)
(4.45088e-09 1.53278e-08 0.000706667)
(0.00062738 -1.278e-05 -7.78179e-08)
(-7.72491e-07 0.000707021 -9.41059e-08)
(4.52972e-09 2.54238e-08 0.000707373)
(0.000628179 -1.63933e-05 -1.0015e-07)
(-7.98512e-07 0.00070674 -1.35168e-07)
(4.87864e-09 3.5993e-08 0.000708135)
(0.000629041 -1.9805e-05 -1.21772e-07)
(-8.62359e-07 0.000706539 -1.82287e-07)
(5.3097e-09 4.74346e-08 0.00070899)
(0.000630005 -2.30804e-05 -1.42689e-07)
(-9.64258e-07 0.000706403 -2.38445e-07)
(5.44842e-09 5.95279e-08 0.000709975)
(0.000631111 -2.62633e-05 -1.6209e-07)
(-1.10595e-06 0.00070631 -3.06828e-07)
(4.63878e-09 7.09201e-08 0.000711124)
(0.000632401 -2.93684e-05 -1.78598e-07)
(-1.29129e-06 0.00070623 -3.90824e-07)
(1.75606e-09 7.8308e-08 0.00071247)
(0.000633924 -3.23748e-05 -1.8991e-07)
(-1.52611e-06 0.000706127 -4.93703e-07)
(-5.27302e-09 7.49052e-08 0.000714048)
(0.000635735 -3.52019e-05 -1.9269e-07)
(-1.81624e-06 0.000705939 -6.1828e-07)
(-2.01426e-08 4.76672e-08 0.000715888)
(0.000637892 -3.77006e-05 -1.84706e-07)
(-2.17003e-06 0.00070559 -7.65599e-07)
(-4.94597e-08 -2.75708e-08 0.000718022)
(0.000640458 -3.96402e-05 -1.6828e-07)
(-2.59455e-06 0.000704986 -9.30214e-07)
(-1.03585e-07 -1.93238e-07 0.000720483)
(0.000643478 -4.07375e-05 -1.59693e-07)
(-3.08536e-06 0.000704042 -1.08673e-06)
(-1.96344e-07 -5.17723e-07 0.000723315)
(0.000646902 -4.08124e-05 -2.00401e-07)
(-3.57556e-06 0.000702785 -1.15745e-06)
(-3.31253e-07 -1.08845e-06 0.000726585)
(0.000650208 -4.01091e-05 -3.34775e-07)
(-3.60659e-06 0.00070152 -1.00022e-06)
(-4.38792e-07 -1.92489e-06 0.0007302)
(-9.41644e-06 0.000699641 -5.68518e-07)
(-1.3605e-06 -3.83503e-06 0.000737601)
(0.000625785 -4.54246e-06 -8.35608e-08)
(-1.60412e-06 0.000712281 -3.68123e-08)
(1.35105e-08 4.87572e-09 0.000710502)
(0.000626538 -8.75008e-06 -1.61443e-07)
(-1.53875e-06 0.000711607 -1.10007e-07)
(1.30361e-08 1.43969e-08 0.000710872)
(0.000627275 -1.25848e-05 -2.33006e-07)
(-1.50879e-06 0.000710857 -1.84225e-07)
(1.32312e-08 2.37184e-08 0.000711158)
(0.000628034 -1.61422e-05 -3.00322e-07)
(-1.55711e-06 0.000710299 -2.64263e-07)
(1.42919e-08 3.34681e-08 0.000711594)
(0.00062885 -1.95053e-05 -3.65568e-07)
(-1.67861e-06 0.000709904 -3.55907e-07)
(1.56645e-08 4.41849e-08 0.000712199)
(0.000629759 -2.27399e-05 -4.28958e-07)
(-1.8724e-06 0.00070964 -4.65043e-07)
(1.63371e-08 5.59389e-08 0.000712987)
(0.000630793 -2.58906e-05 -4.88316e-07)
(-2.1413e-06 0.000709463 -5.97729e-07)
(1.47242e-08 6.82403e-08 0.000713968)
(0.000631991 -2.89821e-05 -5.3958e-07)
(-2.49214e-06 0.000709323 -7.60139e-07)
(7.98807e-09 7.97225e-08 0.000715141)
(0.00063339 -3.20095e-05 -5.75523e-07)
(-2.93309e-06 0.000709153 -9.5848e-07)
(-9.22298e-09 8.71982e-08 0.0007165)
(0.000635031 -3.49272e-05 -5.85958e-07)
(-3.47227e-06 0.000708849 -1.19773e-06)
(-4.63465e-08 8.41881e-08 0.000718008)
(0.000636942 -3.76258e-05 -5.63558e-07)
(-4.11503e-06 0.000708269 -1.47824e-06)
(-1.19466e-07 5.93506e-08 0.000719611)
(0.000639127 -3.99128e-05 -5.09177e-07)
(-4.85131e-06 0.00070723 -1.78619e-06)
(-2.52301e-07 -4.30364e-09 0.000721217)
(0.000641508 -4.1511e-05 -4.57789e-07)
(-5.62575e-06 0.000705554 -2.06858e-06)
(-4.72463e-07 -1.26262e-07 0.000722731)
(0.000643802 -4.21311e-05 -5.08845e-07)
(-6.22166e-06 0.000703248 -2.17748e-06)
(-7.74141e-07 -3.13827e-07 0.000724143)
(0.000645341 -4.17409e-05 -7.76973e-07)
(-5.80158e-06 0.00070088 -1.8675e-06)
(-9.77536e-07 -5.28466e-07 0.000725613)
(-8.62202e-06 0.000694377 -5.01935e-07)
(-2.24851e-06 -3.9776e-08 0.00072391)
(0.000625718 -4.40423e-06 -1.38015e-07)
(-2.32049e-06 0.000716686 -5.33146e-08)
(2.18294e-08 4.47721e-09 0.000714963)
(0.000626404 -8.48163e-06 -2.66409e-07)
(-2.22386e-06 0.000715685 -1.59197e-07)
(2.09579e-08 1.32068e-08 0.000714922)
(0.000627073 -1.21936e-05 -3.84622e-07)
(-2.17667e-06 0.00071457 -2.66356e-07)
(2.1286e-08 2.18016e-08 0.000714758)
(0.000627758 -1.56373e-05 -4.96542e-07)
(-2.24125e-06 0.000713745 -3.81673e-07)
(2.31994e-08 3.10229e-08 0.000714837)
(0.000628489 -1.88974e-05 -6.05651e-07)
(-2.40897e-06 0.000713167 -5.13341e-07)
(2.58132e-08 4.15964e-08 0.000715157)
(0.000629293 -2.20362e-05 -7.12562e-07)
(-2.67623e-06 0.000712781 -6.69615e-07)
(2.78859e-08 5.41421e-08 0.000715707)
(0.000630196 -2.5105e-05 -8.14118e-07)
(-3.04573e-06 0.000712535 -8.58766e-07)
(2.75997e-08 6.94127e-08 0.000716468)
(0.000631225 -2.81478e-05 -9.03864e-07)
(-3.52479e-06 0.000712369 -1.08912e-06)
(2.15221e-08 8.83066e-08 0.000717417)
(0.000632404 -3.11882e-05 -9.7002e-07)
(-4.12125e-06 0.000712196 -1.36887e-06)
(3.30249e-09 1.12154e-07 0.000718504)
(0.000633752 -3.42343e-05 -9.96168e-07)
(-4.84135e-06 0.000711897 -1.70408e-06)
(-3.81518e-08 1.43337e-07 0.000719647)
(0.000635273 -3.72495e-05 -9.65759e-07)
(-5.67795e-06 0.000711285 -2.09313e-06)
(-1.20199e-07 1.87041e-07 0.000720708)
(0.000636924 -4.01313e-05 -8.66797e-07)
(-6.58863e-06 0.000710115 -2.5129e-06)
(-2.66148e-07 2.54682e-07 0.000721479)
(0.000638567 -4.2676e-05 -7.23811e-07)
(-7.44888e-06 0.000708119 -2.88489e-06)
(-4.96358e-07 3.69378e-07 0.000721719)
(0.000639891 -4.45597e-05 -6.40646e-07)
(-7.90768e-06 0.000705216 -3.00503e-06)
(-7.82795e-07 5.68465e-07 0.00072132)
(0.000640426 -4.54779e-05 -7.75278e-07)
(-6.95193e-06 0.000702048 -2.55798e-06)
(-9.19569e-07 8.68726e-07 0.000720702)
(-9.83185e-06 0.000696059 -7.03633e-07)
(-1.37903e-06 1.5014e-06 0.000717031)
(0.000625621 -4.19672e-06 -1.89509e-07)
(-2.94016e-06 0.000720883 -6.75515e-08)
(2.94153e-08 4.04458e-09 0.000719233)
(0.000626214 -8.0773e-06 -3.65616e-07)
(-2.81467e-06 0.000719566 -2.01623e-07)
(2.82476e-08 1.20186e-08 0.000718758)
(0.000626788 -1.16059e-05 -5.27898e-07)
(-2.74919e-06 0.0007181 -3.37031e-07)
(2.89006e-08 2.01139e-08 0.000718123)
(0.00062737 -1.48763e-05 -6.82531e-07)
(-2.82222e-06 0.000717017 -4.82269e-07)
(3.19466e-08 2.91499e-08 0.000717822)
(0.000627983 -1.79639e-05 -8.34604e-07)
(-3.02033e-06 0.000716256 -6.47485e-07)
(3.63594e-08 4.00804e-08 0.000717828)
(0.000628644 -2.09338e-05 -9.85054e-07)
(-3.33703e-06 0.000715754 -8.42582e-07)
(4.11124e-08 5.41016e-08 0.000718104)
(0.000629371 -2.38506e-05 -1.13033e-06)
(-3.77307e-06 0.000715455 -1.07732e-06)
(4.46682e-08 7.29264e-08 0.000718615)
(0.000630176 -2.67766e-05 -1.26228e-06)
(-4.3335e-06 0.0007153 -1.36144e-06)
(4.41786e-08 9.9291e-08 0.000719316)
(0.000631069 -2.97716e-05 -1.36637e-06)
(-5.02373e-06 0.000715198 -1.70412e-06)
(3.47746e-08 1.38187e-07 0.000720132)
(0.000632054 -3.28935e-05 -1.4214e-06)
(-5.84497e-06 0.000715029 -2.11169e-06)
(8.081e-09 1.98928e-07 0.00072095)
(0.000633117 -3.61991e-05 -1.39729e-06)
(-6.7798e-06 0.00071461 -2.58086e-06)
(-4.76698e-08 2.98245e-07 0.000721587)
(0.000634215 -3.97134e-05 -1.26156e-06)
(-7.76145e-06 0.000713668 -3.08163e-06)
(-1.46297e-07 4.6433e-07 0.000721771)
(0.000635238 -4.33627e-05 -1.00089e-06)
(-8.61393e-06 0.000711857 -3.5172e-06)
(-2.96464e-07 7.36433e-07 0.000721162)
(0.000635988 -4.68455e-05 -6.73273e-07)
(-8.91518e-06 0.000708905 -3.64393e-06)
(-4.68514e-07 1.14598e-06 0.000719534)
(0.000636247 -4.94921e-05 -4.65847e-07)
(-7.60576e-06 0.000705124 -3.09611e-06)
(-5.24438e-07 1.64687e-06 0.000717346)
(-1.00778e-05 0.000699993 -9.54465e-07)
(-6.23006e-07 2.30655e-06 0.000712875)
(0.000625503 -3.92209e-06 -2.36566e-07)
(-3.44054e-06 0.000724805 -7.89919e-08)
(3.64276e-08 3.83162e-09 0.000723246)
(0.000625979 -7.54272e-06 -4.56901e-07)
(-3.2895e-06 0.000723188 -2.35635e-07)
(3.51364e-08 1.14685e-08 0.000722324)
(0.000626437 -1.08279e-05 -6.60095e-07)
(-3.20524e-06 0.000721386 -3.93396e-07)
(3.63326e-08 1.94071e-08 0.000721209)
(0.000626895 -1.38598e-05 -8.5449e-07)
(-3.278e-06 0.000720051 -5.61911e-07)
(4.07951e-08 2.85238e-08 0.00072051)
(0.000627366 -1.67066e-05 -1.04689e-06)
(-3.48954e-06 0.000719106 -7.52667e-07)
(4.76042e-08 3.99663e-08 0.000720176)
(0.00062786 -1.94366e-05 -1.23902e-06)
(-3.82995e-06 0.000718487 -9.76626e-07)
(5.61166e-08 5.52316e-08 0.000720154)
(0.000628384 -2.21186e-05 -1.42758e-06)
(-4.29611e-06 0.000718142 -1.24426e-06)
(6.54662e-08 7.65613e-08 0.000720396)
(0.000628937 -2.48243e-05 -1.60414e-06)
(-4.8884e-06 0.000718012 -1.56578e-06)
(7.42902e-08 1.07744e-07 0.000720845)
(0.000629514 -2.76395e-05 -1.75369e-06)
(-5.60733e-06 0.000718024 -1.95069e-06)
(8.06477e-08 1.55511e-07 0.000721415)
(0.000630105 -3.067e-05 -1.85186e-06)
(-6.44968e-06 0.000718076 -2.40534e-06)
(8.13024e-08 2.31738e-07 0.000721983)
(0.000630694 -3.40572e-05 -1.85712e-06)
(-7.39569e-06 0.000718027 -2.92577e-06)
(7.26514e-08 3.5621e-07 0.000722367)
(0.00063126 -3.79622e-05 -1.71184e-06)
(-8.37543e-06 0.000717631 -3.47962e-06)
(5.2893e-08 5.59797e-07 0.000722292)
(0.000631771 -4.24833e-05 -1.34862e-06)
(-9.20385e-06 0.000716494 -3.96196e-06)
(2.00327e-08 8.8171e-07 0.000721366)
(0.000632172 -4.7411e-05 -7.43015e-07)
(-9.43564e-06 0.000714069 -4.10715e-06)
(-2.01817e-08 1.34313e-06 0.000719187)
(0.000632365 -5.16913e-05 -8.42795e-08)
(-7.95347e-06 0.000709852 -3.51096e-06)
(-4.39549e-08 1.876e-06 0.000715767)
(-9.87912e-06 0.000705796 -1.23455e-06)
(4.56657e-08 2.46639e-06 0.000711219)
(0.000625367 -3.58658e-06 -2.78869e-07)
(-3.8047e-06 0.000728392 -8.72456e-08)