/*--------------------------------*- C++ -*----------------------------------*\
| =========                 |                                                 |
| \\      /  F ield         | foam-extend: Open Source CFD                    |
|  \\    /   O peration     | Version:     3.1                                |
|   \\  /    A nd           | Web:         http://www.extend-project.de       |
|    \\/     M anipulation  |                                                 |
\*---------------------------------------------------------------------------*/
FoamFile
{
    version     2.0;
    format      ascii;
    class       volVectorField;
    location    "1.3";
    object      U;
}
// * * * * * * * * * * * * * * * * * * * * * * * * * * * * * * * * * * * * * //

dimensions      [0 1 -1 0 0 0 0];

internalField   nonuniform List<vector> 
14592
(
(0.0184653 6.10845e-05 -0.00327069)
(0.019698 -0.00028501 -0.007617)
(0.0217097 -0.000471167 -0.00993462)
(0.0242375 -0.000488738 -0.0108109)
(0.0265632 -0.000365114 -0.0108813)
(0.0283014 -0.00018977 -0.0106649)
(0.0293703 -2.69949e-05 -0.0105337)
(0.0298336 9.16745e-05 -0.0107425)
(0.0298056 0.000165789 -0.0114796)
(0.0294046 0.000185308 -0.0129233)
(0.0287314 0.000114189 -0.0152915)
(0.0278757 -0.00010908 -0.0189169)
(0.0269185 -0.000588764 -0.0243544)
(0.0257858 -0.00140974 -0.0324183)
(0.0231972 -0.00208931 -0.0429963)
(0.0141485 -0.000781736 -0.0429578)
(0.0523375 -0.000517362 -0.00414082)
(0.0537902 -0.00309731 -0.0132914)
(0.056396 -0.00448973 -0.0195804)
(0.0600483 -0.00452232 -0.0226023)
(0.0637548 -0.00364752 -0.023295)
(0.0667113 -0.00242402 -0.0228068)
(0.0685979 -0.00123733 -0.0220757)
(0.0694085 -0.000250675 -0.02176)
(0.0692644 0.000515316 -0.0223148)
(0.06829 0.00108563 -0.0241037)
(0.0665555 0.00146339 -0.0275202)
(0.0640315 0.00160449 -0.0331214)
(0.0605139 0.0013919 -0.0418414)
(0.0553896 0.00063542 -0.0551676)
(0.0457261 -0.000644202 -0.0729085)
(0.0215391 -0.00178448 -0.0682726)
(0.0816218 -0.000535635 -0.00301994)
(0.0818797 -0.0048754 -0.0130141)
(0.0823425 -0.00788926 -0.0216142)
(0.0837492 -0.00853688 -0.0267003)
(0.0858489 -0.00729948 -0.028542)
(0.0878463 -0.00512258 -0.0283534)
(0.0891885 -0.00279803 -0.0273997)
(0.0896514 -0.000725337 -0.0266502)
(0.0891959 0.000988473 -0.0267727)
(0.0878305 0.00238728 -0.0282608)
(0.0855165 0.00353509 -0.0315942)
(0.0820863 0.00445556 -0.0374126)
(0.0771244 0.00510339 -0.0467949)
(0.0697553 0.00530434 -0.0616649)
(0.0564155 0.00428483 -0.0825774)
(0.0231533 -0.000330835 -0.0772958)
(0.106206 -0.000290502 -0.00199814)
(0.105518 -0.00502327 -0.0112621)
(0.103607 -0.00902351 -0.0207933)
(0.10175 -0.0104023 -0.0273409)
(0.100823 -0.00929997 -0.0302801)
(0.100522 -0.00671462 -0.0305656)
(0.1003 -0.00367334 -0.0296017)
(0.0997683 -0.000785386 -0.028585)
(0.0986987 0.00174942 -0.0283548)
(0.0969336 0.00396651 -0.0294985)
(0.0942904 0.00598411 -0.0325444)
(0.0904707 0.00791143 -0.0381679)
(0.0849109 0.00980445 -0.0475111)
(0.0765823 0.0115781 -0.0627936)
(0.0617244 0.0116683 -0.0854646)
(0.0228222 0.00326606 -0.0815089)
(0.12592 -1.9352e-05 -0.00139606)
(0.124845 -0.00403864 -0.00975268)
(0.121379 -0.0079991 -0.0195482)
(0.116775 -0.00970634 -0.0270109)
(0.112815 -0.00892357 -0.0307844)
(0.109905 -0.00643497 -0.031474)
(0.107737 -0.00323969 -0.0305142)
(0.105909 -1.49051e-05 -0.029266)
(0.104064 0.00299765 -0.0287094)
(0.10189 0.00582028 -0.0294974)
(0.0990702 0.00861509 -0.0321787)
(0.0951846 0.0115789 -0.0374306)
(0.0895409 0.0148837 -0.0463995)
(0.0809322 0.0186363 -0.0614894)
(0.0655962 0.0207527 -0.085084)
(0.0222695 0.00919587 -0.0830748)
(0.140679 0.000186508 -0.00107832)
(0.139526 -0.00255569 -0.00874643)
(0.135273 -0.00561572 -0.0185619)
(0.128853 -0.00706529 -0.0265654)
(0.122571 -0.00648391 -0.0309047)
(0.117462 -0.00435748 -0.0318707)
(0.113551 -0.00145839 -0.0308743)
(0.110535 0.00164936 -0.0293872)
(0.108007 0.00474493 -0.0284851)
(0.105554 0.00787837 -0.0288714)
(0.102773 0.0112552 -0.0310858)
(0.0991508 0.0151709 -0.0357682)
(0.0939107 0.0199482 -0.0440006)
(0.085593 0.0260995 -0.0582326)
(0.0707811 0.0316044 -0.081927)
(0.0233604 0.0188099 -0.0820822)
(0.150492 0.000333665 -0.000909929)
(0.149359 -0.000914874 -0.00813885)
(0.144782 -0.00251808 -0.0179006)
(0.137363 -0.00321105 -0.0261828)
(0.129643 -0.00261974 -0.0308431)
(0.123083 -0.000956831 -0.0319478)
(0.118 0.00135125 -0.0308695)
(0.114204 0.00397046 -0.0291389)
(0.111301 0.00679314 -0.0278887)
(0.108855 0.00992646 -0.0278321)
(0.106437 0.0136215 -0.0294703)
(0.103513 0.0182858 -0.0333572)
(0.0993799 0.0244505 -0.0404208)
(0.0921379 0.0334172 -0.0528714)
(0.0802329 0.0445361 -0.0754609)
(0.0291926 0.0361621 -0.0772245)
(0.155384 0.00044521 -0.000815525)
(0.154278 0.000748411 -0.00781477)
(0.149614 0.000880584 -0.0175096)
(0.141814 0.0012349 -0.0258679)
(0.133503 0.00198448 -0.0306222)
(0.126355 0.00314629 -0.0317376)
(0.120831 0.00467525 -0.0305354)
(0.116823 0.00654289 -0.0285746)
(0.113988 0.00881581 -0.0269952)
(0.111914 0.0116577 -0.0264823)
(0.110236 0.015346 -0.0274655)
(0.108513 0.0203492 -0.0303537)
(0.106542 0.0274224 -0.0358279)
(0.101543 0.0384478 -0.0452511)
(0.0994558 0.0590142 -0.0648497)
(0.0458553 0.0629729 -0.0645696)
(0.0197335 7.25087e-06 -0.0031371)
(0.0208889 -0.000386636 -0.00724293)
(0.0227794 -0.000580265 -0.00948582)
(0.0251635 -0.000590143 -0.0103976)
(0.0272999 -0.000445779 -0.0105424)
(0.028772 -0.000244329 -0.0103953)
(0.0294836 -5.84653e-05 -0.0103082)
(0.0294927 7.67576e-05 -0.0105278)
(0.0288987 0.000158124 -0.0112333)
(0.0277877 0.000180278 -0.012587)
(0.0261955 0.000104564 -0.0147652)
(0.0240944 -0.00012959 -0.0180028)
(0.0213811 -0.000619517 -0.0225999)
(0.0176011 -0.00142146 -0.0286698)
(0.0114113 -0.00231891 -0.0345584)
(0.00345656 -0.00312778 -0.0295463)
(0.0559958 -0.000574979 -0.00381279)
(0.0572624 -0.00338719 -0.012285)
(0.0595541 -0.00496151 -0.0182789)
(0.0628081 -0.00505771 -0.0213218)
(0.0660462 -0.00413026 -0.0221828)
(0.0684274 -0.00278353 -0.0218843)
(0.0695999 -0.00145649 -0.0213006)
(0.0695384 -0.000344169 -0.0210646)
(0.0683382 0.000522272 -0.0216183)
(0.0660693 0.00117345 -0.0233015)
(0.0626938 0.00161672 -0.0264485)
(0.0579961 0.00181203 -0.0314682)
(0.0515084 0.00164036 -0.0388821)
(0.0420353 0.000921443 -0.0488633)
(0.0264406 -0.0005852 -0.058072)
(0.00676995 -0.00388665 -0.0472264)
(0.0873792 -0.000544333 -0.00269678)
(0.0874543 -0.00518127 -0.0117466)
(0.087485 -0.00856372 -0.0198229)
(0.0882318 -0.00942905 -0.0248522)
(0.0895538 -0.00818844 -0.0268995)
(0.0906867 -0.00583402 -0.0269841)
(0.0910609 -0.0032536 -0.0262611)
(0.0904242 -0.000921014 -0.0256564)
(0.0886958 0.00102475 -0.0258213)
(0.0858107 0.00262803 -0.0272266)
(0.0815999 0.00396514 -0.0302912)
(0.0756725 0.00507242 -0.0354968)
(0.067308 0.00589895 -0.0434787)
(0.0549321 0.00620017 -0.0546006)
(0.034089 0.00495168 -0.0652064)
(0.00712019 -0.00146278 -0.0532068)
(0.113703 -0.000268123 -0.00175434)
(0.112915 -0.00523023 -0.00995909)
(0.110595 -0.00965896 -0.0187768)
(0.107919 -0.0113746 -0.0251697)
(0.105921 -0.0103597 -0.0283228)
(0.104442 -0.00761368 -0.028942)
(0.102983 -0.004264 -0.0282744)
(0.101147 -0.00102111 -0.0274535)
(0.098657 0.0018593 -0.027301)
(0.0952634 0.00440852 -0.0283844)
(0.0906311 0.00676506 -0.0311735)
(0.0842076 0.00906769 -0.0361839)
(0.0750788 0.011392 -0.044116)
(0.0614803 0.0135267 -0.0555434)
(0.0379107 0.0135713 -0.0669766)
(0.00606436 0.00384599 -0.0555625)
(0.134785 4.57142e-06 -0.00122889)
(0.133691 -0.00414254 -0.00849161)
(0.129921 -0.00847173 -0.0174317)
(0.124472 -0.0105319 -0.0246443)
(0.119247 -0.00989218 -0.0286265)
(0.114883 -0.00728805 -0.0296983)
(0.111216 -0.00379195 -0.0290911)
(0.107882 -0.000179955 -0.028082)
(0.104486 0.00324856 -0.0276328)
(0.100617 0.00650567 -0.0283813)
(0.0957871 0.00978553 -0.0308231)
(0.0893016 0.0133394 -0.0354786)
(0.0800725 0.0174104 -0.0430693)
(0.0662108 0.021976 -0.0543629)
(0.0412273 0.0244346 -0.0662336)
(0.00516938 0.011982 -0.0558407)
(0.150558 0.000202271 -0.000965228)
(0.149427 -0.00258994 -0.00753675)
(0.144982 -0.00590387 -0.0163978)
(0.13777 -0.00763239 -0.0240706)
(0.130133 -0.00718244 -0.0286073)
(0.123382 -0.00496898 -0.0299928)
(0.117764 -0.00180494 -0.0293977)
(0.113078 0.00167463 -0.0281903)
(0.108904 0.00520555 -0.0274223)
(0.104731 0.00883675 -0.0277918)
(0.0999822 0.0128223 -0.0297938)
(0.0938683 0.0175437 -0.0339217)
(0.0851767 0.0234717 -0.0408616)
(0.0719537 0.0310731 -0.051546)
(0.0468371 0.0376256 -0.0634157)
(0.00631819 0.0247014 -0.0540267)
(0.161041 0.000344684 -0.000829661)
(0.159947 -0.000906841 -0.00696794)
(0.155256 -0.00263669 -0.0157142)
(0.147112 -0.00348071 -0.0236098)
(0.138018 -0.00295242 -0.0284562)
(0.129717 -0.00120907 -0.0300052)
(0.122804 0.00132532 -0.0293671)
(0.117242 0.00427204 -0.027947)
(0.112655 0.00750513 -0.0268568)
(0.108525 0.0111558 -0.0268105)
(0.104262 0.0155438 -0.0282763)
(0.0990837 0.0212011 -0.0316845)
(0.0918267 0.0288961 -0.0376096)
(0.0805182 0.0401562 -0.0470445)
(0.0583972 0.0534354 -0.0583061)
(0.0129191 0.0468613 -0.0493558)
(0.166268 0.000456576 -0.000751688)
(0.165206 0.000783333 -0.00666461)
(0.160469 0.00091398 -0.0153173)
(0.15199 0.00126954 -0.0232637)
(0.14231 0.00205804 -0.0282001)
(0.1334 0.00331903 -0.0297778)
(0.126018 0.00502684 -0.0290335)
(0.120231 0.00715142 -0.0274033)
(0.115746 0.00977646 -0.0260055)
(0.112093 0.0131108 -0.0255318)
(0.108778 0.0175167 -0.0263935)
(0.105177 0.0236218 -0.0289137)
(0.100689 0.0324638 -0.0334778)
(0.0928891 0.0467099 -0.0408202)
(0.0835197 0.0714638 -0.0509665)
(0.0295901 0.0776494 -0.0397706)
(0.0208143 -4.42118e-05 -0.00288345)
(0.0219016 -0.000485074 -0.00660544)
(0.0236905 -0.000689888 -0.00867631)
(0.0259575 -0.000696214 -0.00956545)
(0.027936 -0.000534773 -0.00975668)
(0.0291781 -0.000309786 -0.00966654)
(0.029573 -0.000102287 -0.00961174)
(0.0291764 4.9052e-05 -0.00981615)
(0.0280818 0.000137792 -0.0104373)
(0.026362 0.000166244 -0.0116059)
(0.0240282 9.69362e-05 -0.0134398)
(0.0210187 -0.000120665 -0.0160633)
(0.0172088 -0.000560802 -0.0195654)
(0.0122325 -0.00126625 -0.0237216)
(0.00560522 -0.00228126 -0.0266561)
(-0.000681672 -0.00355159 -0.0202582)
(0.0591272 -0.0006266 -0.0033909)
(0.0602381 -0.00364459 -0.0109417)
(0.0622738 -0.00539094 -0.0164047)
(0.0652028 -0.0055581 -0.0192979)
(0.0680509 -0.0045943 -0.0202328)
(0.0699383 -0.00314108 -0.0200851)
(0.0704827 -0.00168646 -0.0196325)
(0.0696437 -0.000456792 -0.0194508)
(0.0675042 0.000504951 -0.0199404)
(0.0641098 0.00123635 -0.0213895)
(0.0593769 0.00175296 -0.0240434)
(0.0530384 0.00202892 -0.0281383)
(0.044611 0.00196483 -0.0338464)
(0.0330259 0.0013767 -0.0407365)
(0.016835 -0.000322631 -0.0451403)
(0.000300494 -0.00422449 -0.0323342)
(0.0923091 -0.0005534 -0.00234265)
(0.0922397 -0.00544063 -0.0102559)
(0.0919303 -0.00915609 -0.0175221)
(0.0921428 -0.0102367 -0.0222342)
(0.0928152 -0.00901569 -0.0243163)
(0.0932055 -0.00651503 -0.0245917)
(0.0927291 -0.00370608 -0.0240685)
(0.0911131 -0.0011335 -0.0235853)
(0.0882516 0.00103026 -0.0237381)
(0.08404 0.00282841 -0.0249392)
(0.0782489 0.00435045 -0.0275113)
(0.0704176 0.0056504 -0.0317485)
(0.0597942 0.00668405 -0.0378939)
(0.0448415 0.00715475 -0.0455668)
(0.0230738 0.00565283 -0.050602)
(-0.000290984 -0.00148632 -0.0358784)
(0.120119 -0.000253222 -0.00150953)
(0.11926 -0.00539672 -0.00854917)
(0.116636 -0.0101988 -0.0163776)
(0.113314 -0.0122322 -0.0223021)
(0.11043 -0.0113236 -0.0254328)
(0.107941 -0.0084548 -0.0262582)
(0.105395 -0.00483481 -0.0258368)
(0.102395 -0.00126704 -0.0251877)
(0.0986379 0.00193529 -0.0250669)
(0.0938203 0.00479575 -0.0259805)
(0.0875286 0.00746865 -0.0283003)
(0.0791187 0.0101182 -0.0323499)
(0.0676243 0.0128288 -0.0384218)
(0.051206 0.0152963 -0.0462548)
(0.0263068 0.0151609 -0.0516998)
(-0.00185625 0.00464681 -0.0368744)
(0.142371 1.89693e-05 -0.00106661)
(0.141264 -0.00421978 -0.00719982)
(0.137292 -0.0088598 -0.0150415)
(0.131202 -0.011243 -0.0216653)
(0.124949 -0.0107562 -0.0255714)
(0.119348 -0.0080722 -0.0268595)
(0.114366 -0.00431679 -0.0265381)
(0.109685 -0.000354292 -0.0257443)
(0.104901 0.00345976 -0.0253665)
(0.099545 0.00711961 -0.0259801)
(0.0930372 0.0108416 -0.0279854)
(0.0845707 0.0149171 -0.031712)
(0.0729911 0.0196209 -0.0374754)
(0.0562464 0.0248218 -0.0451469)
(0.0295296 0.0273583 -0.0508166)
(-0.00292572 0.0141307 -0.0364856)
(0.159009 0.000210704 -0.00085406)
(0.157894 -0.00260898 -0.00633994)
(0.15334 -0.00613001 -0.0140372)
(0.145555 -0.00810818 -0.0210327)
(0.13684 -0.00779326 -0.0254495)
(0.128704 -0.00552114 -0.0270605)
(0.121593 -0.00213043 -0.0267873)
(0.115415 0.00168445 -0.0258385)
(0.109765 0.00561659 -0.0251805)
(0.104076 0.00970471 -0.0254555)
(0.0976801 0.0142358 -0.0270705)
(0.0896678 0.0196518 -0.0303367)
(0.0787555 0.0264991 -0.035557)
(0.0627997 0.0351643 -0.0427418)
(0.0355804 0.0422859 -0.0484141)
(-0.00152959 0.0288031 -0.0347124)
(0.170067 0.000352341 -0.000747458)
(0.168994 -0.000890269 -0.00583362)
(0.164259 -0.00271873 -0.0133805)
(0.155613 -0.00369539 -0.0205427)
(0.145445 -0.00323282 -0.0252403)
(0.135689 -0.00143063 -0.0270237)
(0.12718 0.00130174 -0.0267376)
(0.120043 0.0045461 -0.0256123)
(0.113942 0.00815548 -0.0246723)
(0.108321 0.0122767 -0.0245799)
(0.102505 0.0172778 -0.0257288)
(0.0956021 0.0237743 -0.0283887)
(0.0863839 0.0326672 -0.0328013)
(0.0728219 0.0455129 -0.0390901)
(0.0483813 0.0600229 -0.0444953)
(0.00597283 0.0536584 -0.0312601)
(0.175581 0.000469135 -0.000684001)
(0.17454 0.000823166 -0.00556308)
(0.169793 0.000958473 -0.0130035)
(0.160856 0.00131689 -0.0201937)
(0.150118 0.0021385 -0.0249707)
(0.139747 0.00348525 -0.0267892)
(0.130754 0.00535554 -0.0264202)
(0.123377 0.00771605 -0.0251139)
(0.117405 0.0106639 -0.0239032)
(0.112346 0.0144431 -0.0234364)
(0.107639 0.0194784 -0.0240689)
(0.102585 0.0265024 -0.0260013)
(0.0965333 0.0367158 -0.029367)
(0.0872551 0.0531017 -0.0342601)
(0.0763457 0.0801011 -0.039425)
(0.0232073 0.0856718 -0.0250108)
(0.0217106 -9.05281e-05 -0.00252092)
(0.0227384 -0.000574284 -0.00573635)
(0.0244427 -0.000791739 -0.00754998)
(0.0266155 -0.00079771 -0.00836116)
(0.0284668 -0.000623127 -0.00856841)
(0.0295185 -0.000378143 -0.00852025)
(0.0296472 -0.000151525 -0.00848657)
(0.0289098 1.4588e-05 -0.00865867)
(0.0274014 0.000110784 -0.00916583)
(0.0251975 0.000148368 -0.010105)
(0.0223126 9.22065e-05 -0.0115435)
(0.0186963 -9.71884e-05 -0.0135269)
(0.0142681 -0.000474818 -0.0160297)
(0.00884402 -0.0010827 -0.0187291)
(0.00255673 -0.00209323 -0.0200371)
(-0.00248445 -0.00345433 -0.0142638)
(0.0617337 -0.000670621 -0.0028884)
(0.0627151 -0.00386319 -0.00932103)
(0.0645437 -0.00576338 -0.014055)
(0.0672116 -0.0060018 -0.016644)
(0.0697439 -0.00501536 -0.0175582)
(0.0712235 -0.00347421 -0.0175158)
(0.0712405 -0.00190897 -0.0171747)
(0.0697452 -0.000575014 -0.0170298)
(0.0668203 0.000472952 -0.0174212)
(0.0625118 0.00127996 -0.0185772)
(0.0567351 0.00187103 -0.0206606)
(0.0492465 0.00223664 -0.0237791)
(0.0396521 0.00229728 -0.0279088)
(0.0272076 0.00185373 -0.0324387)
(0.0116264 0.000125053 -0.0342253)
(-0.00263388 -0.0040101 -0.0228829)
(0.0964139 -0.000561699 -0.00196072)
(0.0962293 -0.0056522 -0.00859649)
(0.0956532 -0.00965497 -0.0148242)
(0.0954404 -0.0109351 -0.0189915)
(0.095585 -0.00974798 -0.0209445)
(0.0953597 -0.00713204 -0.0213207)
(0.0941679 -0.00412797 -0.0209588)
(0.0917234 -0.00134407 -0.0205775)
(0.0879103 0.00101452 -0.0206895)
(0.0826135 0.00298906 -0.0216335)
(0.0755936 0.00468183 -0.0236392)
(0.0664068 0.00616505 -0.0268578)
(0.0543903 0.00740413 -0.0313035)
(0.0383241 0.00805647 -0.0363457)
(0.017115 0.00647619 -0.038332)
(-0.0036469 -0.00107472 -0.0251846)
(0.12546 -0.000243661 -0.00125779)
(0.124545 -0.005526 -0.00706961)
(0.121696 -0.0106406 -0.0137032)
(0.117872 -0.0129579 -0.018895)
(0.114275 -0.0121613 -0.0217822)
(0.110949 -0.00920356 -0.0226791)
(0.107486 -0.00535668 -0.0224428)
(0.103499 -0.00150519 -0.0219408)
(0.0986731 0.00198201 -0.021828)
(0.0926863 0.00511906 -0.0225279)
(0.0851007 0.0080719 -0.0243149)
(0.0752736 0.0110251 -0.0273648)
(0.0623134 0.0140668 -0.0317269)
(0.0446358 0.0168152 -0.0368373)
(0.0201175 0.0166213 -0.0389796)
(-0.00541146 0.00555806 -0.0255831)
(0.148683 2.68228e-05 -0.000898573)
(0.147565 -0.00427499 -0.00589751)
(0.143455 -0.0091675 -0.012474)
(0.136887 -0.0118323 -0.0182336)
(0.12982 -0.0114948 -0.0218027)
(0.123201 -0.00876082 -0.0231353)
(0.11711 -0.00479103 -0.0230184)
(0.111282 -0.000526187 -0.0224112)
(0.105322 0.00362734 -0.0220868)
(0.0987418 0.00764062 -0.0225318)
(0.0909228 0.0117437 -0.0240492)
(0.0810448 0.0162553 -0.0268222)
(0.0680146 0.0214605 -0.0309202)
(0.0499583 0.0271302 -0.0358759)
(0.0234105 0.0297445 -0.0381168)
(-0.00649871 0.0159162 -0.0250199)
(0.166042 0.000214364 -0.000732538)
(0.164931 -0.00261726 -0.00516348)
(0.160317 -0.00630133 -0.0115658)
(0.152121 -0.00849304 -0.0176105)
(0.142568 -0.00830643 -0.0216222)
(0.133304 -0.00600036 -0.0232597)
(0.124937 -0.00242257 -0.0232118)
(0.117488 0.00168034 -0.0224911)
(0.110585 0.00596318 -0.0219323)
(0.10364 0.0104474 -0.0220908)
(0.0959511 0.0154394 -0.0232805)
(0.0865863 0.0214188 -0.0256743)
(0.0743155 0.0289636 -0.0293417)
(0.0571011 0.0383661 -0.0339359)
(0.029847 0.0458421 -0.0362049)
(-0.00485296 0.0318177 -0.023545)
(0.177578 0.000357629 -0.000650856)
(0.17651 -0.000869497 -0.00473542)
(0.171764 -0.00277183 -0.0109771)
(0.162773 -0.00385979 -0.0171388)
(0.151784 -0.00345982 -0.0213898)
(0.140854 -0.00161454 -0.0231931)
(0.131011 0.00128119 -0.0231526)
(0.12253 0.00478198 -0.0222924)
(0.115138 0.00871722 -0.0215003)
(0.108273 0.0132412 -0.0213525)
(0.10123 0.0187512 -0.02216)
(0.0930937 0.0259127 -0.0240714)
(0.0826905 0.0356886 -0.0271294)
(0.0680944 0.0495856 -0.0311145)
(0.0434324 0.0647989 -0.0333413)
(0.00326695 0.0582858 -0.0211016)
(0.183332 0.000481626 -0.000600605)
(0.182293 0.000863417 -0.00450604)
(0.177561 0.00100742 -0.0106415)
(0.168321 0.00137007 -0.0168136)
(0.156785 0.0022192 -0.0211301)
(0.145239 0.00363963 -0.0229669)
(0.1349 0.00564818 -0.0228669)
(0.12617 0.00821306 -0.0218597)
(0.118924 0.0114393 -0.0208431)
(0.112684 0.0155954 -0.0203867)
(0.106866 0.0211461 -0.020779)
(0.100758 0.0288855 -0.0221283)
(0.0937693 0.0400926 -0.024424)
(0.0838291 0.057855 -0.027503)
(0.0730016 0.0861224 -0.0299059)
(0.020731 0.0907259 -0.016879)
(0.0224247 -0.000129723 -0.00206458)
(0.0234028 -0.00065002 -0.00467251)
(0.0250386 -0.000879552 -0.00615811)
(0.0271379 -0.000887008 -0.00684278)
(0.0288906 -0.000702847 -0.00703738)
(0.0297928 -0.0004418 -0.00701656)
(0.0297103 -0.000199241 -0.00699581)
(0.0287034 -2.03861e-05 -0.00712778)
(0.0268736 8.28195e-05 -0.00751164)
(0.0243084 0.000130652 -0.00821471)
(0.0210386 8.97632e-05 -0.00926924)
(0.0170417 -7.01833e-05 -0.0106775)
(0.0122936 -0.000391247 -0.0123709)
(0.00676015 -0.000919372 -0.0140477)
(0.000895645 -0.00189185 -0.014521)
(-0.00333104 -0.00328579 -0.00995979)
(0.063817 -0.000706319 -0.00231902)
(0.0646941 -0.00403996 -0.00747902)
(0.0663595 -0.0060694 -0.0113241)
(0.0688241 -0.00637278 -0.0134779)
(0.0711102 -0.00537383 -0.0142857)
(0.0722685 -0.00376354 -0.0143045)
(0.0718656 -0.00210743 -0.014057)
(0.0698472 -0.000685893 -0.013941)
(0.0663037 0.00043563 -0.0142265)
(0.0612959 0.00130918 -0.0150827)
(0.0547615 0.00196821 -0.0166098)
(0.046509 0.00241755 -0.0188389)
(0.0362557 0.00259257 -0.0216666)
(0.0235407 0.00227801 -0.024518)
(0.00868614 0.000582934 -0.02501)
(-0.00406743 -0.00370132 -0.0160875)
(0.0996957 -0.00056876 -0.00155436)
(0.0994208 -0.00581758 -0.00681124)
(0.0986403 -0.0100553 -0.0118248)
(0.098099 -0.0115077 -0.0152599)
(0.0978308 -0.0103599 -0.0169388)
(0.097118 -0.00765732 -0.0173308)
(0.0953544 -0.00449508 -0.0170926)
(0.0922466 -0.00153518 -0.0168006)
(0.0876796 0.00098757 -0.0168672)
(0.0815452 0.00311217 -0.0175529)
(0.0736216 0.00495172 -0.0190117)
(0.0635169 0.00659403 -0.0213059)
(0.0506875 0.0080129 -0.0243499)
(0.0342175 0.00883093 -0.0275243)
(0.013748 0.00726186 -0.0280227)
(-0.00529482 -0.000584735 -0.0176548)
(0.129729 -0.000237887 -0.000995727)
(0.12877 -0.00562281 -0.00554407)
(0.125756 -0.0109866 -0.0108353)
(0.121554 -0.0135426 -0.0150832)
(0.117403 -0.0128512 -0.0175356)
(0.113414 -0.00983252 -0.0183784)
(0.109216 -0.00580454 -0.0182665)
(0.104434 -0.00171833 -0.017892)
(0.0987576 0.00200642 -0.0177844)
(0.0918644 0.00537486 -0.0182756)
(0.0833229 0.00856058 -0.0195576)
(0.0725319 0.0117629 -0.0217124)
(0.058709 0.0150715 -0.0246781)
(0.040545 0.0180479 -0.0278719)
(0.0166671 0.0178716 -0.0284068)
(-0.00714535 0.00639237 -0.0178081)
(0.153728 3.04515e-05 -0.000719016)
(0.152599 -0.00431311 -0.00459296)
(0.148394 -0.00940192 -0.00979479)
(0.141476 -0.0122988 -0.0144772)
(0.133786 -0.0120951 -0.0174878)
(0.126366 -0.00933305 -0.0187061)
(0.119386 -0.00519473 -0.0187128)
(0.112632 -0.000683354 -0.0182659)
(0.105731 0.00375243 -0.0179947)
(0.0981971 0.00805802 -0.0182832)
(0.0894064 0.012471 -0.0193493)
(0.0785679 0.0173268 -0.0212832)
(0.0646846 0.0229112 -0.0240392)
(0.0461074 0.0289212 -0.0271044)
(0.0200662 0.0316218 -0.0276774)
(-0.0082123 0.0173337 -0.0172914)
(0.171664 0.000215192 -0.000594835)
(0.170549 -0.00261901 -0.00400551)
(0.165899 -0.00642627 -0.00903588)
(0.157414 -0.00879115 -0.0139249)
(0.147231 -0.00871724 -0.0172929)
(0.137086 -0.00639429 -0.0187741)
(0.127715 -0.00267017 -0.0188548)
(0.119239 0.00166632 -0.0183312)
(0.111329 0.00623846 -0.0178751)
(0.103399 0.0110462 -0.0179362)
(0.0947474 0.0164056 -0.0187445)
(0.0844602 0.0228177 -0.0203855)
(0.0713922 0.0308685 -0.0228199)
(0.0536692 0.040772 -0.0256326)
(0.0268064 0.0484859 -0.0262489)
(-0.00635112 0.0340253 -0.0161668)
(0.183583 0.000361135 -0.000534575)
(0.182507 -0.000848445 -0.00366551)
(0.177763 -0.0028038 -0.00854733)
(0.168539 -0.00398047 -0.0135129)
(0.156943 -0.00363549 -0.0170714)
(0.145102 -0.00176083 -0.0186966)
(0.134195 0.00126363 -0.0187957)
(0.124629 0.00497342 -0.0181681)
(0.116194 0.00917428 -0.0175313)
(0.108348 0.0140228 -0.017353)
(0.100384 0.0199313 -0.0178671)
(0.0914009 0.0275922 -0.0191469)
(0.0803044 0.0379908 -0.0211446)
(0.0653017 0.0525749 -0.0235598)
(0.0409079 0.0682167 -0.024228)
(0.00220712 0.0615294 -0.0144739)
(0.189528 0.000492396 -0.000496494)
(0.18848 0.000899985 -0.0034828)
(0.183767 0.00105455 -0.00827004)
(0.17433 0.00142215 -0.0132349)
(0.16221 0.00229321 -0.0168437)
(0.149758 0.00377303 -0.0184988)
(0.138347 0.00589346 -0.018557)
(0.128522 0.00862524 -0.017817)
(0.120246 0.0120773 -0.0170059)
(0.113067 0.0165336 -0.0165893)
(0.106404 0.0224821 -0.0167896)
(0.0995633 0.0307499 -0.0176588)
(0.0920281 0.042646 -0.0191265)
(0.0818506 0.0612866 -0.0209671)
(0.0714914 0.0903254 -0.021925)
(0.0197943 0.0941545 -0.0115731)
(0.0229578 -0.000160732 -0.0015312)
(0.0238972 -0.000710563 -0.00345171)
(0.0254812 -0.000950634 -0.00455332)
(0.0275267 -0.000960469 -0.00507216)
(0.0292078 -0.000769774 -0.00523001)
(0.0300005 -0.000496579 -0.00522443)
(0.0297623 -0.000241525 -0.00521183)
(0.0285574 -5.24331e-05 -0.00530281)
(0.0264954 5.6626e-05 -0.00556686)
(0.023678 0.000114109 -0.00604759)
(0.0201554 8.71715e-05 -0.00675696)
(0.0159325 -4.7848e-05 -0.00768054)
(0.0110319 -0.000325027 -0.00874928)
(0.00551613 -0.000794815 -0.00973429)
(-1.41763e-05 -0.00172996 -0.0098343)
(-0.00374373 -0.00314251 -0.00659862)
(0.0653773 -0.000733492 -0.00169566)
(0.0661752 -0.0041745 -0.00546527)
(0.0677196 -0.00630468 -0.00829825)
(0.070035 -0.00666168 -0.00991276)
(0.072141 -0.00565705 -0.0105434)
(0.0730626 -0.00399589 -0.0105858)
(0.0723484 -0.00227026 -0.0104181)
(0.0699421 -0.000780494 -0.0103306)
(0.0659452 0.000398959 -0.0105185)
(0.060438 0.00132611 -0.011097)
(0.0533864 0.00204067 -0.012123)
(0.0446521 0.0025583 -0.0135929)
(0.0340459 0.00282424 -0.015396)
(0.0212992 0.00261009 -0.0170913)
(0.00702519 0.000958324 -0.0170489)
(-0.00479 -0.00343926 -0.0107172)
(0.102155 -0.00057424 -0.00112617)
(0.101812 -0.00593943 -0.00493181)
(0.100883 -0.0103558 -0.00860076)
(0.100102 -0.0119447 -0.0111578)
(0.0995303 -0.0108342 -0.0124452)
(0.0984566 -0.00807058 -0.0127809)
(0.0962672 -0.00478896 -0.0126346)
(0.0926655 -0.00169315 -0.0124265)
(0.0875424 0.00095748 -0.0124574)
(0.0808043 0.00319967 -0.012911)
(0.0722556 0.00515473 -0.0138837)
(0.06156 0.0069222 -0.0153922)
(0.0482769 0.008482 -0.0173329)
(0.0317051 0.00943285 -0.0192214)
(0.011835 0.00790291 -0.0191228)
(-0.00614427 -0.00017027 -0.0117646)
(0.132928 -0.000234554 -0.000720823)
(0.131934 -0.00569154 -0.0039848)
(0.128803 -0.0112409 -0.00782988)
(0.12433 -0.0139821 -0.0109738)
(0.119775 -0.0133791 -0.0128386)
(0.115295 -0.0103215 -0.013522)
(0.110548 -0.00615874 -0.0134826)
(0.105172 -0.00189224 -0.0132224)
(0.0988647 0.00201572 -0.0131298)
(0.091315 0.00556302 -0.0134425)
(0.082109 0.00892769 -0.0142857)
(0.0706939 0.0123191 -0.0156909)
(0.056384 0.0158272 -0.0175695)
(0.0380724 0.0189767 -0.0194563)
(0.0147283 0.0188462 -0.0193477)
(-0.00804232 0.00705328 -0.0118223)
(0.157509 3.17623e-05 -0.000524562)
(0.156365 -0.0043382 -0.00328539)
(0.152097 -0.00957026 -0.00704178)
(0.144935 -0.0126443 -0.0104901)
(0.136795 -0.0125493 -0.0127675)
(0.128784 -0.00977398 -0.0137394)
(0.121142 -0.00551196 -0.0137995)
(0.113693 -0.00081413 -0.0134937)
(0.10609 0.00383911 -0.0132854)
(0.0978624 0.00836861 -0.0134513)
(0.0883936 0.0130153 -0.0141377)
(0.0769318 0.0181247 -0.0153831)
(0.0625662 0.02398 -0.0171112)
(0.04382 0.0302281 -0.0189036)
(0.0182218 0.0330068 -0.0188069)
(-0.00909068 0.0183871 -0.0114336)
(0.175877 0.000214726 -0.000438338)
(0.174751 -0.00261752 -0.00285765)
(0.17008 -0.0065125 -0.00647224)
(0.1614 -0.00900787 -0.0100581)
(0.150769 -0.00902418 -0.0125969)
(0.139979 -0.00669514 -0.0137709)
(0.129857 -0.00286414 -0.0138955)
(0.120611 0.00164805 -0.0135419)
(0.111949 0.00644145 -0.0132009)
(0.103297 0.0114945 -0.0132028)
(0.09397 0.0171265 -0.0137044)
(0.0830819 0.0238497 -0.0147432)
(0.0695625 0.0322498 -0.01625)
(0.0516663 0.0424851 -0.0178784)
(0.0251874 0.0503596 -0.017826)
(-0.0070527 0.0355878 -0.0106434)
(0.188084 0.000363396 -0.00039688)
(0.186993 -0.000830108 -0.00261143)
(0.182253 -0.00282143 -0.00610744)
(0.172878 -0.00406391 -0.0097393)
(0.160854 -0.00376291 -0.0124155)
(0.148351 -0.00186958 -0.0137005)
(0.136653 0.00124958 -0.0138458)
(0.12627 0.00511762 -0.0134212)
(0.117054 0.009519 -0.0129523)
(0.108485 0.0146103 -0.0127837)
(0.0998693 0.0208099 -0.0130781)
(0.0903306 0.0288233 -0.0138679)
(0.0788415 0.0396411 -0.0150834)
(0.0637118 0.0546664 -0.0164649)
(0.0396325 0.0705804 -0.0164803)
(0.00181733 0.0637598 -0.00951896)
(0.194173 0.000500782 -0.00037015)
(0.193107 0.000929859 -0.0024788)
(0.188412 0.00109467 -0.00590099)
(0.17885 0.0014671 -0.00952709)
(0.166323 0.00235456 -0.0122384)
(0.153215 0.0038789 -0.0135466)
(0.141008 0.00608343 -0.0136663)
(0.13036 0.00894153 -0.0131632)
(0.121308 0.0125633 -0.012571)
(0.113432 0.0172417 -0.0122343)
(0.106166 0.0234769 -0.0123114)
(0.0988374 0.032112 -0.0128242)
(0.090994 0.0444642 -0.0136945)
(0.080767 0.0636547 -0.0147263)
(0.0708778 0.0931788 -0.0149892)
(0.0194862 0.096465 -0.00759512)
(0.0233108 -0.000182983 -0.00093458)
(0.0242246 -0.00075675 -0.0021012)
(0.0257737 -0.00100585 -0.00277193)
(0.0277836 -0.00101877 -0.00309322)
(0.0294186 -0.000824297 -0.00319558)
(0.0301401 -0.000542497 -0.00319678)
(0.0298 -0.000278119 -0.00319077)
(0.0284661 -8.12682e-05 -0.0032438)
(0.0262545 3.22194e-05 -0.00339667)
(0.023279 9.75375e-05 -0.00367353)
(0.0196052 8.10531e-05 -0.00407731)
(0.0152586 -3.66382e-05 -0.00459366)
(0.0102918 -0.000284965 -0.0051751)
(0.00482125 -0.000717216 -0.0056839)
(-0.000489929 -0.00162413 -0.00566412)
(-0.00393829 -0.00304674 -0.0037512)
(0.0664133 -0.000751414 -0.00102586)
(0.0671591 -0.00426759 -0.0033088)
(0.068624 -0.0064676 -0.00502956)
(0.0708411 -0.00686332 -0.00602225)
(0.07283 -0.00585753 -0.00642052)
(0.0735971 -0.00416317 -0.00645774)
(0.0726783 -0.00239021 -0.00636126)
(0.0700168 -0.000853278 -0.00630654)
(0.0657242 0.000366474 -0.00641059)
(0.0598978 0.00133152 -0.00674002)
(0.0525268 0.00208533 -0.00732294)
(0.0435132 0.00265055 -0.00814765)
(0.0327307 0.00297832 -0.00913615)
(0.0200231 0.00283167 -0.0100203)
(0.00613539 0.00121337 -0.00986402)
(-0.00514016 -0.00326665 -0.00611974)
(0.103788 -0.00057673 -0.00067516)
(0.1034 -0.006019 -0.00296803)
(0.102376 -0.0105554 -0.00518664)
(0.101438 -0.0122386 -0.00675055)
(0.100668 -0.0111581 -0.0075546)
(0.0993574 -0.00835686 -0.00777845)
(0.0968873 -0.00499587 -0.00770126)
(0.0929597 -0.00180772 -0.00757701)
(0.0874723 0.000930609 -0.0075874)
(0.0803453 0.00325365 -0.00784094)
(0.0714061 0.00528822 -0.0083898)
(0.0603615 0.00714145 -0.00923393)
(0.0468416 0.00879715 -0.010297)
(0.0302724 0.00983975 -0.0112812)
(0.0107976 0.00834613 -0.0110721)
(-0.00657709 0.000111175 -0.00672209)
(0.135054 -0.000231851 -0.000429565)
(0.134035 -0.00573443 -0.00238613)
(0.130832 -0.0114065 -0.00470079)
(0.126183 -0.0142732 -0.00661507)
(0.121364 -0.0137344 -0.00777319)
(0.116562 -0.0106556 -0.00821561)
(0.111453 -0.00640421 -0.00820954)
(0.105683 -0.00201612 -0.00805742)
(0.0989611 0.00201647 -0.00799473)
(0.0909867 0.00568545 -0.00816363)
(0.0813637 0.00917124 -0.00863416)
(0.0695777 0.0126893 -0.00941529)
(0.0550106 0.0163298 -0.010439)
(0.0366778 0.0195958 -0.0114156)
(0.0136853 0.0195095 -0.0111879)
(-0.00850642 0.00750244 -0.00674628)
(0.160023 3.2521e-05 -0.000312568)
(0.158865 -0.00435237 -0.00196087)
(0.15456 -0.00967757 -0.00421341)
(0.147243 -0.0128701 -0.006305)
(0.138812 -0.0128519 -0.00771397)
(0.130415 -0.0100726 -0.00833704)
(0.122335 -0.00573022 -0.00839683)
(0.114425 -0.000907523 -0.00822073)
(0.106359 0.00389278 -0.00808928)
(0.0976803 0.00857338 -0.00816993)
(0.0877844 0.0133762 -0.00854605)
(0.0759512 0.018652 -0.00923138)
(0.0613303 0.0246815 -0.0101653)
(0.0425507 0.0310813 -0.0110842)
(0.0172448 0.0339179 -0.010859)
(-0.00954546 0.0190873 -0.00651352)
(0.17868 0.000214196 -0.000262018)
(0.17754 -0.00261455 -0.00170226)
(0.172859 -0.00656553 -0.00386335)
(0.164057 -0.00914732 -0.00603186)
(0.153139 -0.00922648 -0.00759816)
(0.141929 -0.00689746 -0.00834762)
(0.131313 -0.00299718 -0.00845101)