/*--------------------------------*- C++ -*----------------------------------*\
| =========                 |                                                 |
| \\      /  F ield         | foam-extend: Open Source CFD                    |
|  \\    /   O peration     | Version:     3.1                                |
|   \\  /    A nd           | Web:         http://www.extend-project.de       |
|    \\/     M anipulation  |                                                 |
\*---------------------------------------------------------------------------*/
FoamFile
{
    version     2.0;
    format      ascii;
    class       volVectorField;
    location    "2.2";
    object      cellMotionU;
}
// * * * * * * * * * * * * * * * * * * * * * * * * * * * * * * * * * * * * * //

dimensions      [0 1 -1 0 0 0 0];

internalField   nonuniform List<vector> 
14592
(
(-1.27315e-11 2.07538e-11 2.40383e-12)
(-3.78141e-11 6.04887e-11 7.16815e-12)
(-6.34454e-11 9.76724e-11 1.21177e-11)
(-9.2153e-11 1.33807e-10 1.77671e-11)
(-1.26762e-10 1.6999e-10 2.46759e-11)
(-1.70789e-10 2.06855e-10 3.35203e-11)
(-2.28902e-10 2.44394e-10 4.51727e-11)
(-3.07526e-10 2.81743e-10 6.08192e-11)
(-4.15551e-10 3.1653e-10 8.20863e-11)
(-5.65151e-10 3.44043e-10 1.11223e-10)
(-7.724e-10 3.55692e-10 1.5127e-10)
(-1.05704e-09 3.36568e-10 2.06088e-10)
(-1.44006e-09 2.61913e-10 2.79861e-10)
(-1.93594e-09 9.23147e-11 3.74756e-10)
(-2.52984e-09 -2.24797e-10 4.82914e-10)
(-3.08185e-09 -6.69006e-10 5.64034e-10)
(-3.71432e-11 6.14592e-11 7.06761e-12)
(-1.10264e-10 1.79181e-10 2.10723e-11)
(-1.84796e-10 2.8939e-10 3.55931e-11)
(-2.67956e-10 3.9663e-10 5.21259e-11)
(-3.67759e-10 5.04237e-10 7.22827e-11)
(-4.94102e-10 6.14204e-10 9.79923e-11)
(-6.60062e-10 7.26883e-10 1.31741e-10)
(-8.83518e-10 8.40248e-10 1.76879e-10)
(-1.18912e-09 9.48363e-10 2.37982e-10)
(-1.6105e-09 1.03939e-09 3.21385e-10)
(-2.19182e-09 1.09153e-09 4.35625e-10)
(-2.98666e-09 1.06824e-09 5.91764e-10)
(-4.04891e-09 9.11795e-10 8.02473e-10)
(-5.40399e-09 5.41178e-10 1.07762e-09)
(-6.96793e-09 -1.21619e-10 1.40831e-09)
(-8.29423e-09 -9.50904e-10 1.7062e-09)
(-5.8713e-11 1.00063e-10 1.13525e-11)
(-1.74089e-10 2.9175e-10 3.38164e-11)
(-2.91074e-10 4.71391e-10 5.70262e-11)
(-4.2058e-10 6.46535e-10 8.33121e-11)
(-5.74568e-10 8.22872e-10 1.15157e-10)
(-7.67587e-10 1.00412e-09 1.55488e-10)
(-1.01861e-09 1.19188e-09 2.08052e-10)
(-1.35322e-09 1.38427e-09 2.77774e-10)
(-1.80636e-09 1.57499e-09 3.71396e-10)
(-2.42522e-09 1.74995e-09 4.98054e-10)
(-3.2713e-09 1.88394e-09 6.70136e-10)
(-4.41816e-09 1.93522e-09 9.03721e-10)
(-5.93646e-09 1.84255e-09 1.21799e-09)
(-7.84583e-09 1.53319e-09 1.63062e-09)
(-9.98449e-09 9.73646e-10 2.13871e-09)
(-1.16731e-08 3.57674e-10 2.62673e-09)
(-7.59815e-11 1.35198e-10 1.50538e-11)
(-2.24896e-10 3.94292e-10 4.4788e-11)
(-3.74696e-10 6.37416e-10 7.53484e-11)
(-5.38566e-10 8.75047e-10 1.09688e-10)
(-7.30654e-10 1.1153e-09 1.50896e-10)
(-9.67764e-10 1.36414e-09 2.02555e-10)
(-1.27126e-09 1.62505e-09 2.69119e-10)
(-1.66932e-09 1.89843e-09 3.5636e-10)
(-2.19962e-09 2.18044e-09 4.71955e-10)
(-2.91216e-09 2.46093e-09 6.26172e-10)
(-3.87121e-09 2.7205e-09 8.32629e-10)
(-5.15315e-09 2.92746e-09 1.10893e-09)
(-6.83146e-09 3.03641e-09 1.47613e-09)
(-8.92652e-09 2.99752e-09 1.95401e-09)
(-1.12636e-08 2.79607e-09 2.53886e-09)
(-1.31037e-08 2.55349e-09 3.09364e-09)
(-8.80308e-11 1.65604e-10 1.80323e-11)
(-2.59969e-10 4.8313e-10 5.35719e-11)
(-4.31104e-10 7.81479e-10 8.98447e-11)
(-6.15314e-10 1.07388e-09 1.30188e-10)
(-8.27029e-10 1.37085e-09 1.77999e-10)
(-1.08278e-09 1.6808e-09 2.37135e-10)
(-1.40269e-09 2.00962e-09 3.12172e-10)
(-1.8123e-09 2.36133e-09 4.08929e-10)
(-2.34425e-09 2.73676e-09 5.34773e-10)
(-3.04015e-09 3.1336e-09 6.99244e-10)
(-3.95143e-09 3.54493e-09 9.14495e-10)
(-5.13753e-09 3.95838e-09 1.19566e-09)
(-6.65601e-09 4.3554e-09 1.56046e-09)
(-8.52832e-09 4.71282e-09 2.02574e-09)
(-1.06292e-08 5.01078e-09 2.58964e-09)
(-1.2339e-08 5.22864e-09 3.12988e-09)
(-9.45549e-11 1.90137e-10 2.0221e-11)
(-2.78435e-10 5.54855e-10 5.99619e-11)
(-4.59043e-10 8.98051e-10 1.0019e-10)
(-6.49466e-10 1.23524e-09 1.44371e-10)
(-8.62749e-10 1.5792e-09 1.95952e-10)
(-1.11297e-09 1.94036e-09 2.58649e-10)
(-1.41617e-09 2.32755e-09 3.36755e-10)
(-1.79106e-09 2.74794e-09 4.35333e-10)
(-2.25941e-09 3.20808e-09 5.60525e-10)
(-2.84565e-09 3.71406e-09 7.19618e-10)
(-3.57526e-09 4.27308e-09 9.21079e-10)
(-4.47104e-09 4.89508e-09 1.17419e-09)
(-5.54609e-09 5.59406e-09 1.48805e-09)
(-6.79066e-09 6.38411e-09 1.86933e-09)
(-8.13322e-09 7.25093e-09 2.31322e-09)
(-9.26004e-09 8.01011e-09 2.73837e-09)
(-9.58109e-11 2.07808e-10 2.1618e-11)
(-2.81176e-10 6.06618e-10 6.39723e-11)
(-4.6034e-10 9.82387e-10 1.06439e-10)
(-6.4445e-10 1.3524e-09 1.52399e-10)
(-8.43989e-10 1.73114e-09 2.05117e-10)
(-1.06923e-09 2.13069e-09 2.67912e-10)
(-1.33051e-09 2.56183e-09 3.44393e-10)
(-1.63778e-09 3.03454e-09 4.38509e-10)
(-1.9994e-09 3.55912e-09 5.54531e-10)
(-2.41931e-09 4.14783e-09 6.96797e-10)
(-2.89189e-09 4.81785e-09 8.6909e-10)
(-3.39298e-09 5.59567e-09 1.07322e-09)
(-3.86669e-09 6.52412e-09 1.30658e-09)
(-4.21206e-09 7.6663e-09 1.55789e-09)
(-4.29856e-09 9.06992e-09 1.80099e-09)
(-4.12712e-09 1.04702e-08 1.9802e-09)
(-9.25286e-11 2.17864e-10 2.22836e-11)
(-2.70483e-10 6.36225e-10 6.57992e-11)
(-4.3923e-10 1.03084e-09 1.08962e-10)
(-6.07318e-10 1.4202e-09 1.54931e-10)
(-7.82045e-10 1.81961e-09 2.06586e-10)
(-9.69523e-10 2.24223e-09 2.66719e-10)
(-1.17422e-09 2.69971e-09 3.38084e-10)
(-1.39777e-09 3.20308e-09 4.23354e-10)
(-1.63663e-09 3.76378e-09 5.2489e-10)
(-1.87781e-09 4.39535e-09 6.44214e-10)
(-2.09144e-09 5.11598e-09 7.80932e-10)
(-2.2183e-09 5.95343e-09 9.30808e-10)
(-2.14903e-09 6.95411e-09 1.08228e-09)
(-1.69121e-09 8.20222e-09 1.21061e-09)
(-5.46983e-10 9.84073e-09 1.27056e-09)
(1.3774e-09 1.18202e-08 1.20869e-09)
(-1.26139e-11 2.17018e-11 2.32195e-12)
(-3.75029e-11 6.3281e-11 6.92698e-12)
(-6.30527e-11 1.02262e-10 1.17166e-11)
(-9.1868e-11 1.40283e-10 1.71974e-11)
(-1.26888e-10 1.78527e-10 2.392e-11)
(-1.71801e-10 2.17675e-10 3.25511e-11)
(-2.3155e-10 2.57747e-10 4.3959e-11)
(-3.12956e-10 2.9775e-10 5.93164e-11)
(-4.25495e-10 3.35088e-10 8.02408e-11)
(-5.82103e-10 3.64477e-10 1.08954e-10)
(-7.99713e-10 3.7622e-10 1.48433e-10)
(-1.09866e-09 3.53516e-10 2.02418e-10)
(-1.49917e-09 2.68557e-10 2.74831e-10)
(-2.01124e-09 7.875e-11 3.67429e-10)
(-2.60777e-09 -2.6523e-10 4.72605e-10)
(-3.13778e-09 -7.19313e-10 5.56211e-10)
(-3.67523e-11 6.42743e-11 6.82803e-12)
(-1.09206e-10 1.87437e-10 2.03601e-11)
(-1.8339e-10 3.03e-10 3.44134e-11)
(-2.66724e-10 4.15846e-10 5.04522e-11)
(-3.67526e-10 5.29586e-10 7.00627e-11)
(-4.96172e-10 6.46431e-10 9.51547e-11)
(-6.66472e-10 7.66774e-10 1.28196e-10)
(-8.97401e-10 8.88341e-10 1.72502e-10)
(-1.2152e-09 1.00469e-09 2.32629e-10)
(-1.6556e-09 1.10244e-09 3.14798e-10)
(-2.26513e-09 1.15731e-09 4.27364e-10)
(-3.0988e-09 1.1281e-09 5.80834e-10)
(-4.20786e-09 9.50414e-10 7.86461e-10)
(-5.6032e-09 5.37394e-10 1.05019e-09)
(-7.16357e-09 -1.79025e-10 1.35366e-09)
(-8.41638e-09 -1.02566e-09 1.60318e-09)
(-5.79369e-11 1.04636e-10 1.09651e-11)
(-1.71942e-10 3.05221e-10 3.26722e-11)
(-2.88021e-10 4.93596e-10 5.51321e-11)
(-4.1735e-10 6.77918e-10 8.06298e-11)
(-5.72296e-10 8.64372e-10 1.1161e-10)
(-7.68055e-10 1.05711e-09 1.5098e-10)
(-1.02458e-09 1.25774e-09 2.02432e-10)
(-1.36897e-09 1.46454e-09 2.70896e-10)
(-1.83833e-09 1.67034e-09 3.63016e-10)
(-2.48277e-09 1.85982e-09 4.8783e-10)
(-3.36707e-09 2.00469e-09 6.57304e-10)
(-4.56689e-09 2.05846e-09 8.86462e-10)
(-6.14901e-09 1.953e-09 1.19136e-09)
(-8.11207e-09 1.61032e-09 1.58058e-09)
(-1.02426e-08 1.00574e-09 2.02773e-09)
(-1.18354e-08 3.68312e-10 2.39489e-09)
(-7.46614e-11 1.4139e-10 1.45391e-11)
(-2.21163e-10 4.12522e-10 4.32688e-11)
(-3.69081e-10 6.67483e-10 7.28374e-11)
(-5.31832e-10 9.17607e-10 1.06142e-10)
(-7.23947e-10 1.17178e-09 1.46234e-10)
(-9.62847e-10 1.4365e-09 1.96656e-10)
(-1.27088e-09 1.71572e-09 2.61836e-10)
(-1.67769e-09 2.01002e-09 3.47519e-10)
(-2.22314e-09 2.31546e-09 4.61339e-10)
(-2.96015e-09 2.62096e-09 6.13393e-10)
(-3.95656e-09 2.90541e-09 8.16861e-10)
(-5.29151e-09 3.13361e-09 1.08792e-09)
(-7.03631e-09 3.2549e-09 1.44348e-09)
(-9.19368e-09 3.21245e-09 1.89141e-09)
(-1.1543e-08 2.9847e-09 2.39861e-09)
(-1.33241e-08 2.69407e-09 2.80498e-09)
(-8.59916e-11 1.73196e-10 1.74145e-11)
(-2.54096e-10 5.05466e-10 5.17459e-11)
(-4.21918e-10 8.18383e-10 8.68386e-11)
(-6.03427e-10 1.12622e-09 1.25961e-10)
(-8.13288e-10 1.44052e-09 1.72482e-10)
(-1.06842e-09 1.77037e-09 2.30195e-10)
(-1.38964e-09 2.12268e-09 3.03707e-10)
(-1.8035e-09 2.50186e-09 3.98791e-10)
(-2.34417e-09 2.90951e-09 5.22844e-10)
(-3.05538e-09 3.34357e-09 6.8531e-10)
(-3.99126e-09 3.7971e-09 8.97984e-10)
(-5.21421e-09 4.25694e-09 1.17477e-09)
(-6.78315e-09 4.70136e-09 1.52939e-09)
(-8.71424e-09 5.0966e-09 1.96681e-09)
(-1.08619e-08 5.39118e-09 2.45485e-09)
(-1.25948e-08 5.51969e-09 2.84454e-09)
(-9.16287e-11 1.98843e-10 1.9524e-11)
(-2.6992e-10 5.80537e-10 5.7912e-11)
(-4.45371e-10 9.40491e-10 9.68235e-11)
(-6.30953e-10 1.29556e-09 1.39667e-10)
(-8.39674e-10 1.65961e-09 1.89845e-10)
(-1.08566e-09 2.04424e-09 2.51062e-10)
(-1.38509e-09 2.4592e-09 3.27602e-10)
(-1.75694e-09 2.91303e-09 4.24604e-10)
(-2.22331e-09 3.41341e-09 5.48256e-10)
(-2.80907e-09 3.96813e-09 7.05933e-10)
(-3.54032e-09 4.58633e-09 9.06059e-10)
(-4.441e-09 5.28006e-09 1.15735e-09)
(-5.52719e-09 6.06329e-09 1.46654e-09)
(-6.79757e-09 6.9372e-09 1.83193e-09)
(-8.20109e-09 7.83089e-09 2.22424e-09)
(-9.44719e-09 8.46289e-09 2.53222e-09)
(-9.18787e-11 2.17329e-10 2.08705e-11)
(-2.69647e-10 6.34702e-10 6.17779e-11)
(-4.41515e-10 1.02884e-09 1.02848e-10)
(-6.18268e-10 1.41852e-09 1.47419e-10)
(-8.10004e-10 1.81938e-09 1.98698e-10)
(-1.02665e-09 2.24496e-09 2.60029e-10)
(-1.27804e-09 2.70723e-09 3.35049e-10)
(-1.57346e-09 3.21771e-09 4.27808e-10)
(-1.92022e-09 3.78858e-09 5.42753e-10)
(-2.32065e-09 4.43454e-09 6.84494e-10)
(-2.76667e-09 5.17606e-09 8.57158e-10)
(-3.23125e-09 6.04413e-09 1.06303e-09)
(-3.65774e-09 7.08459e-09 1.29972e-09)
(-3.95758e-09 8.34885e-09 1.55457e-09)
(-4.05682e-09 9.8117e-09 1.79361e-09)
(-4.0562e-09 1.10527e-08 1.94507e-09)
(-8.75319e-11 2.27858e-10 2.15128e-11)
(-2.55747e-10 6.65651e-10 6.3532e-11)
(-4.14939e-10 1.07959e-09 1.05278e-10)
(-5.72982e-10 1.48958e-09 1.49843e-10)
(-7.36519e-10 1.91242e-09 2.00106e-10)
(-9.10855e-10 2.3625e-09 2.58861e-10)
(-1.09942e-09 2.85298e-09 3.28945e-10)
(-1.30237e-09 3.39652e-09 4.1318e-10)
(-1.51393e-09 4.00658e-09 5.14191e-10)
(-1.71772e-09 4.69922e-09 6.33915e-10)
(-1.87885e-09 5.49615e-09 7.7269e-10)
(-1.93121e-09 6.4295e-09 9.27525e-10)
(-1.75861e-09 7.54903e-09 1.08929e-09)
(-1.17399e-09 8.92907e-09 1.23849e-09)
(5.64634e-11 1.06416e-08 1.34158e-09)
(1.84396e-09 1.24468e-08 1.36134e-09)
(-1.24515e-11 2.25699e-11 2.14952e-12)
(-3.70498e-11 6.58338e-11 6.41326e-12)
(-6.23958e-11 1.06471e-10 1.08534e-11)
(-9.11366e-11 1.46217e-10 1.59419e-11)
(-1.26278e-10 1.86341e-10 2.21932e-11)
(-1.71616e-10 2.2758e-10 3.02293e-11)
(-2.32249e-10 2.69951e-10 4.08531e-11)
(-3.15225e-10 3.1241e-10 5.51411e-11)
(-4.303e-10 3.52179e-10 7.45513e-11)
(-5.90707e-10 3.83636e-10 1.01035e-10)
(-8.13522e-10 3.96557e-10 1.37114e-10)
(-1.11869e-09 3.73489e-10 1.85766e-10)
(-1.52497e-09 2.86466e-10 2.49807e-10)
(-2.03953e-09 9.49738e-11 3.30008e-10)
(-2.63368e-09 -2.42654e-10 4.20402e-10)
(-3.16488e-09 -6.73331e-10 4.96528e-10)
(-3.6231e-11 6.68421e-11 6.31986e-12)
(-1.07744e-10 1.95014e-10 1.88508e-11)
(-1.81229e-10 3.15477e-10 3.18774e-11)
(-2.64214e-10 4.33453e-10 4.67682e-11)
(-3.65196e-10 5.52805e-10 6.50057e-11)
(-4.94827e-10 6.75901e-10 8.83695e-11)
(-6.67343e-10 8.03182e-10 1.19143e-10)
(-9.0232e-10 9.3227e-10 1.60373e-10)
(-1.22678e-09 1.05624e-09 2.16154e-10)
(-1.67725e-09 1.16093e-09 2.91953e-10)
(-2.30066e-09 1.2206e-09 3.94762e-10)
(-3.15101e-09 1.19237e-09 5.32757e-10)
(-4.27525e-09 1.01126e-09 7.13349e-10)
(-5.6756e-09 5.95023e-10 9.37367e-10)
(-7.22364e-09 -1.07593e-10 1.18458e-09)
(-8.46586e-09 -9.05803e-10 1.38115e-09)
(-5.69657e-11 1.08832e-10 1.01498e-11)
(-1.69181e-10 3.17558e-10 3.02485e-11)
(-2.83822e-10 5.13941e-10 5.10675e-11)
(-4.12185e-10 7.06666e-10 7.4741e-11)
(-5.66851e-10 9.02354e-10 1.03555e-10)
(-7.6337e-10 1.10544e-09 1.40216e-10)
(-1.02224e-09 1.31779e-09 1.88158e-10)
(-1.37135e-09 1.53747e-09 2.51887e-10)
(-1.84883e-09 1.75699e-09 3.37403e-10)
(-2.50591e-09 1.95988e-09 4.52573e-10)
(-3.40802e-09 2.11619e-09 6.07321e-10)
(-4.62968e-09 2.17698e-09 8.12918e-10)
(-6.23232e-09 2.07244e-09 1.07882e-09)
(-8.20316e-09 1.72742e-09 1.40336e-09)
(-1.03187e-08 1.13096e-09 1.75149e-09)
(-1.18965e-08 5.27606e-10 2.01157e-09)
(-7.31044e-11 1.47053e-10 1.34568e-11)
(-2.16686e-10 4.29205e-10 4.00562e-11)
(-3.62078e-10 6.9502e-10 6.74638e-11)
(-5.22756e-10 9.56579e-10 9.83874e-11)
(-7.13406e-10 1.22338e-09 1.35679e-10)
(-9.51739e-10 1.50244e-09 1.82648e-10)
(-1.26056e-09 1.79803e-09 2.43405e-10)
(-1.67024e-09 2.11093e-09 3.23231e-10)
(-2.22153e-09 2.43689e-09 4.28992e-10)
(-2.96848e-09 2.76412e-09 5.69487e-10)
(-3.97972e-09 3.06975e-09 7.55487e-10)
(-5.33408e-09 3.31583e-09 9.98743e-10)
(-7.09954e-09 3.44779e-09 1.30808e-09)
(-9.27148e-09 3.40533e-09 1.67848e-09)
(-1.16246e-08 3.16844e-09 2.06593e-09)
(-1.34188e-08 2.87301e-09 2.34398e-09)
(-8.37005e-11 1.80132e-10 1.61163e-11)
(-2.47444e-10 5.25929e-10 4.79017e-11)
(-4.11272e-10 8.52172e-10 8.04273e-11)
(-5.89077e-10 1.17411e-09 1.16755e-10)
(-7.95515e-10 1.50407e-09 1.60031e-10)
(-1.04759e-09 1.85191e-09 2.13818e-10)
(-1.3663e-09 2.22501e-09 2.8239e-10)
(-1.77851e-09 2.62834e-09 3.71087e-10)
(-2.31883e-09 3.06363e-09 4.86583e-10)
(-3.03156e-09 3.52849e-09 6.37099e-10)
(-3.97149e-09 4.01487e-09 8.32221e-10)
(-5.20176e-09 4.50658e-09 1.08169e-09)
(-6.78233e-09 4.97542e-09 1.39158e-09)
(-8.73226e-09 5.37542e-09 1.7543e-09)
(-1.09157e-08 5.63987e-09 2.12623e-09)
(-1.2715e-08 5.71548e-09 2.38979e-09)
(-8.84712e-11 2.06819e-10 1.80684e-11)
(-2.60676e-10 6.0403e-10 5.36053e-11)
(-4.30333e-10 9.7934e-10 8.96708e-11)
(-6.10127e-10 1.35068e-09 1.29454e-10)
(-8.12819e-10 1.73294e-09 1.76147e-10)
(-1.0523e-09 2.13855e-09 2.33226e-10)
(-1.3445e-09 2.57818e-09 3.04708e-10)
(-1.70807e-09 3.06102e-09 3.95358e-10)
(-2.16472e-09 3.59544e-09 5.1082e-10)
(-2.73887e-09 4.18948e-09 6.57569e-10)
(-3.45633e-09 4.85175e-09 8.42441e-10)
(-4.34188e-09 5.59156e-09 1.07128e-09)
(-5.41621e-09 6.41443e-09 1.34556e-09)
(-6.69227e-09 7.30137e-09 1.65496e-09)
(-8.14879e-09 8.14902e-09 1.96196e-09)
(-9.51e-09 8.68276e-09 2.17635e-09)
(-8.77576e-11 2.26036e-10 1.93129e-11)
(-2.57516e-10 6.6038e-10 5.71796e-11)
(-4.21561e-10 1.07132e-09 9.52457e-11)
(-5.90142e-10 1.47885e-09 1.36633e-10)
(-7.72845e-10 1.89981e-09 1.84371e-10)
(-9.78978e-10 2.34862e-09 2.41599e-10)
(-1.21763e-09 2.83837e-09 3.11758e-10)
(-1.49707e-09 3.38153e-09 3.9866e-10)
(-1.82321e-09 3.99117e-09 5.06431e-10)
(-2.19656e-09 4.68272e-09 6.39212e-10)
(-2.60714e-09 5.4766e-09 8.00432e-10)
(-3.0271e-09 6.40128e-09 9.91266e-10)
(-3.40421e-09 7.49346e-09 1.2078e-09)
(-3.66886e-09 8.77991e-09 1.43603e-09)
(-3.79088e-09 1.01905e-08 1.64401e-09)
(-3.89778e-09 1.13019e-08 1.7738e-09)
(-8.2402e-11 2.36969e-10 1.99046e-11)
(-2.40604e-10 6.92573e-10 5.88012e-11)
(-3.89849e-10 1.12413e-09 9.7489e-11)
(-5.37255e-10 1.55294e-09 1.38884e-10)
(-6.88648e-10 1.99687e-09 1.85687e-10)
(-8.48404e-10 2.47152e-09 2.40564e-10)
(-1.01874e-09 2.99108e-09 3.06223e-10)
(-1.19816e-09 3.56928e-09 3.85381e-10)
(-1.37866e-09 4.22057e-09 4.80568e-10)
(-1.54088e-09 4.96175e-09 5.93676e-10)
(-1.64635e-09 5.81437e-09 7.2508e-10)
(-1.62594e-09 6.80789e-09 8.72204e-10)
(-1.36474e-09 7.98258e-09 1.02741e-09)
(-6.90709e-10 9.38742e-09 1.17579e-09)
(5.88024e-10 1.1047e-08 1.29541e-09)
(2.34321e-09 1.27096e-08 1.36217e-09)
(-1.22647e-11 2.33348e-11 1.89144e-12)
(-3.65179e-11 6.80864e-11 5.64449e-12)
(-6.15785e-11 1.10176e-10 9.55503e-12)
(-9.01099e-11 1.51436e-10 1.40401e-11)
(-1.25149e-10 1.93205e-10 1.95528e-11)
(-1.70537e-10 2.3626e-10 2.6636e-11)
(-2.31441e-10 2.80638e-10 3.59833e-11)
(-3.14991e-10 3.25254e-10 4.85072e-11)
(-4.31013e-10 3.67235e-10 6.54091e-11)
(-5.92724e-10 4.008e-10 8.82356e-11)
(-8.16946e-10 4.15556e-10 1.18867e-10)
(-1.12289e-09 3.94127e-10 1.59335e-10)
(-1.52783e-09 3.09444e-10 2.11265e-10)
(-2.03696e-09 1.23813e-10 2.74637e-10)
(-2.62087e-09 -1.99316e-10 3.45164e-10)
(-3.1415e-09 -6.06849e-10 4.06242e-10)
(-3.56449e-11 6.91101e-11 5.56143e-12)
(-1.06064e-10 2.01674e-10 1.65903e-11)
(-1.78623e-10 3.26453e-10 2.80632e-11)
(-2.60883e-10 4.48927e-10 4.11889e-11)
(-3.6141e-10 5.7317e-10 5.72723e-11)
(-4.90975e-10 7.01702e-10 7.7868e-11)
(-6.63984e-10 8.3502e-10 1.04951e-10)
(-9.00221e-10 9.70647e-10 1.41098e-10)
(-1.22688e-09 1.10144e-09 1.89687e-10)
(-1.68044e-09 1.21275e-09 2.55023e-10)
(-2.30718e-09 1.27836e-09 3.42267e-10)
(-3.15905e-09 1.25535e-09 4.56803e-10)
(-4.27889e-09 1.08054e-09 6.02326e-10)
(-5.663e-09 6.7785e-10 7.76463e-10)
(-7.17975e-09 6.8657e-12 9.61777e-10)
(-8.38705e-09 -7.43045e-10 1.10622e-09)
(-5.59031e-11 1.12514e-10 8.93117e-12)
(-1.66119e-10 3.28412e-10 2.66203e-11)
(-2.78998e-10 5.31829e-10 4.49568e-11)
(-4.05848e-10 7.31908e-10 6.58256e-11)
(-5.59308e-10 9.35627e-10 9.12397e-11)
(-7.55049e-10 1.14771e-09 1.23568e-10)
(-1.01375e-09 1.37011e-09 1.65777e-10)
(-1.36353e-09 1.6009e-09 2.21685e-10)
(-1.84268e-09 1.83223e-09 2.96223e-10)
(-2.50235e-09 2.04703e-09 3.95552e-10)
(-3.4071e-09 2.21443e-09 5.26853e-10)
(-4.6289e-09 2.28478e-09 6.97141e-10)
(-6.22389e-09 2.18909e-09 9.0994e-10)
(-8.17144e-09 1.8569e-09 1.15781e-09)
(-1.02427e-08 1.28646e-09 1.40822e-09)
(-1.17683e-08 7.21436e-10 1.58273e-09)
(-7.14587e-11 1.52036e-10 1.18405e-11)
(-2.11905e-10 4.43881e-10 3.52513e-11)
(-3.54423e-10 7.19218e-10 5.93907e-11)
(-5.12417e-10 9.90761e-10 8.66531e-11)
(-7.00549e-10 1.26854e-09 1.19552e-10)
(-9.36558e-10 1.55996e-09 1.6099e-10)
(-1.24331e-09 1.86957e-09 2.14516e-10)
(-1.65126e-09 2.1982e-09 2.84619e-10)
(-2.20117e-09 2.54134e-09 3.76928e-10)
(-2.94687e-09 2.8865e-09 4.98287e-10)
(-3.95615e-09 3.20954e-09 6.56318e-10)
(-5.30574e-09 3.47061e-09 8.57833e-10)
(-7.05959e-09 3.61324e-09 1.10467e-09)
(-9.20708e-09 3.57667e-09 1.3848e-09)
(-1.15183e-08 3.34442e-09 1.65707e-09)
(-1.32614e-08 3.05768e-09 1.83499e-09)
(-8.13534e-11 1.86239e-10 1.41808e-11)
(-2.40578e-10 5.43902e-10 4.21545e-11)
(-4.0012e-10 8.8184e-10 7.0803e-11)
(-5.73661e-10 1.21608e-09 1.02833e-10)
(-7.75681e-10 1.55964e-09 1.41027e-10)
(-1.02301e-09 1.92288e-09 1.88506e-10)
(-1.33647e-09 2.3137e-09 2.48985e-10)
(-1.74267e-09 2.73718e-09 3.26999e-10)
(-2.27588e-09 3.19501e-09 4.28033e-10)
(-2.97981e-09 3.68415e-09 5.58441e-10)
(-3.90846e-09 4.19495e-09 7.24846e-10)
(-5.12384e-09 4.70811e-09 9.3236e-10)
(-6.68481e-09 5.1902e-09 1.18048e-09)
(-8.60996e-09 5.58821e-09 1.45495e-09)
(-1.07639e-08 5.83185e-09 1.71471e-09)
(-1.25301e-08 5.88147e-09 1.88026e-09)
(-8.53167e-11 2.13818e-10 1.58975e-11)
(-2.51402e-10 6.24673e-10 4.71729e-11)
(-4.15099e-10 1.01342e-09 7.89403e-11)
(-5.88704e-10 1.39896e-09 1.14024e-10)
(-7.84588e-10 1.79697e-09 1.55251e-10)
(-1.0162e-09 2.22059e-09 2.05679e-10)
(-1.29894e-09 2.68101e-09 2.68811e-10)
(-1.65075e-09 3.18787e-09 3.48719e-10)
(-2.09238e-09 3.74958e-09 4.50061e-10)
(-2.6471e-09 4.37368e-09 5.77823e-10)
(-3.33949e-09 5.06707e-09 7.36577e-10)
(-4.19369e-09 5.83505e-09 9.28735e-10)
(-5.23181e-09 6.67527e-09 1.15114e-09)
(-6.47218e-09 7.55633e-09 1.38906e-09)
(-7.90164e-09 8.36506e-09 1.60784e-09)
(-9.24398e-09 8.84668e-09 1.74617e-09)
(-8.37234e-11 2.33684e-10 1.6992e-11)
(-2.45612e-10 6.82931e-10 5.03182e-11)
(-4.01856e-10 1.10858e-09 8.38488e-11)
(-5.6211e-10 1.5317e-09 1.20358e-10)
(-7.35325e-10 1.96997e-09 1.62527e-10)
(-9.30087e-10 2.43868e-09 2.13138e-10)
(-1.15455e-09 2.95154e-09 2.7521e-10)
(-1.41576e-09 3.52156e-09 3.52033e-10)
(-1.71801e-09 4.16201e-09 4.4704e-10)
(-2.05984e-09 4.88789e-09 5.63425e-10)
(-2.42913e-09 5.71784e-09 7.03283e-10)
(-2.7967e-09 6.67595e-09 8.66044e-10)
(-3.11173e-09 7.78983e-09 1.0459e-09)
(-3.31134e-09 9.07152e-09 1.22827e-09)
(-3.37623e-09 1.04393e-08 1.38644e-09)
(-3.43895e-09 1.14942e-08 1.48104e-09)
(-7.74637e-11 2.44986e-10 1.75131e-11)
(-2.2599e-10 7.16186e-10 5.17442e-11)
(-3.65546e-10 1.16319e-09 8.58274e-11)
(-5.02433e-10 1.60834e-09 1.22349e-10)
(-6.41637e-10 2.07054e-09 1.63719e-10)
(-7.86524e-10 2.56616e-09 2.12308e-10)
(-9.38037e-10 3.11014e-09 2.70518e-10)
(-1.09303e-09 3.71677e-09 3.4073e-10)
(-1.2413e-09 4.40068e-09 4.25093e-10)
(-1.36077e-09 5.1782e-09 5.25055e-10)
(-1.40996e-09 6.069e-09 6.4053e-10)
(-1.31719e-09 7.09786e-09 7.68589e-10)
(-9.67119e-10 8.29561e-09 9.01791e-10)
(-1.91121e-10 9.69672e-09 1.02701e-09)
(1.19817e-09 1.13167e-08 1.1269e-09)
(3.07099e-09 1.29363e-08 1.18336e-09)
(-1.20772e-11 2.39726e-11 1.55729e-12)
(-3.59754e-11 6.99608e-11 4.64765e-12)
(-6.07196e-11 1.13263e-10 7.86842e-12)
(-8.89703e-11 1.5578e-10 1.15633e-11)
(-1.23766e-10 1.9891e-10 1.6103e-11)
(-1.68957e-10 2.43468e-10 2.19275e-11)
(-2.29714e-10 2.89503e-10 2.95913e-11)
(-3.13158e-10 3.35916e-10 3.98048e-11)
(-4.29054e-10 3.7979e-10 5.3476e-11)
(-5.90445e-10 4.15294e-10 7.17137e-11)
(-8.13745e-10 4.32071e-10 9.57704e-11)
(-1.11738e-09 4.13071e-10 1.26844e-10)
(-1.51736e-09 3.32252e-10 1.65653e-10)
(-2.01742e-09 1.54104e-10 2.11731e-10)
(-2.58771e-09 -1.55126e-10 2.62131e-10)
(-3.09418e-09 -5.44468e-10 3.06121e-10)
(-3.50608e-11 7.09951e-11 4.57891e-12)
(-1.04373e-10 2.07232e-10 1.36595e-11)
(-1.7593e-10 3.35598e-10 2.31096e-11)
(-2.57274e-10 4.61804e-10 3.39232e-11)
(-3.56967e-10 5.90096e-10 4.71687e-11)
(-4.85785e-10 7.23108e-10 6.41083e-11)
(-6.58131e-10 8.61385e-10 8.63176e-11)
(-8.93743e-10 1.00242e-09 1.15807e-10)
(-1.21963e-09 1.13894e-09 1.5512e-10)
(-1.67178e-09 1.25614e-09 2.07327e-10)
(-2.29534e-09 1.32777e-09 2.7582e-10)
(-3.14014e-09 1.31154e-09 3.63607e-10)
(-4.2455e-09 1.14649e-09 4.71793e-10)
(-5.60362e-09 7.61194e-10 5.96753e-10)
(-7.08151e-09 1.20703e-10 7.25224e-10)
(-8.24899e-09 -5.9214e-10 8.23114e-10)
(-5.48656e-11 1.1559e-10 7.35268e-12)
(-1.63098e-10 3.37458e-10 2.19182e-11)
(-2.74141e-10 5.46726e-10 3.70216e-11)
(-3.99237e-10 7.52902e-10 5.42158e-11)
(-5.5098e-10 9.6326e-10 7.51504e-11)
(-7.44998e-10 1.18272e-09 1.0175e-10)
(-1.00191e-09 1.41335e-09 1.36376e-10)
(-1.34969e-09 1.65318e-09 1.82019e-10)
(-1.82632e-09 1.89419e-09 2.42366e-10)
(-2.48218e-09 2.11898e-09 3.21787e-10)
(-3.3803e-09 2.29634e-09 4.24859e-10)
(-4.58977e-09 2.37681e-09 5.55128e-10)
(-6.16218e-09 2.29295e-09 7.12331e-10)
(-8.0714e-09 1.97813e-09 8.87347e-10)
(-1.00866e-08 1.43491e-09 1.05454e-09)
(-1.15545e-08 9.00286e-10 1.16341e-09)
(-6.98836e-11 1.56188e-10 9.74819e-12)
(-2.073e-10 4.56102e-10 2.90244e-11)
(-3.46937e-10 7.39358e-10 4.8909e-11)
(-5.02055e-10 1.01918e-09 7.13742e-11)
(-6.87178e-10 1.306e-09 9.84836e-11)
(-9.19894e-10 1.60753e-09 1.32592e-10)
(-1.22288e-09 1.92852e-09 1.76543e-10)
(-1.62627e-09 2.26979e-09 2.3383e-10)
(-2.17031e-09 2.62662e-09 3.08673e-10)
(-2.90785e-09 2.986e-09 4.0585e-10)
(-3.90504e-09 3.32299e-09 5.30054e-10)
(-5.23585e-09 3.59681e-09 6.84185e-10)
(-6.96014e-09 3.75053e-09 8.65859e-10)
(-9.06256e-09 3.72419e-09 1.06137e-09)
(-1.13114e-08 3.50347e-09 1.23806e-09)
(-1.29906e-08 3.22866e-09 1.34206e-09)
(-7.91524e-11 1.91319e-10 1.16747e-11)
(-2.3411e-10 5.58878e-10 3.47083e-11)
(-3.89505e-10 9.06525e-10 5.8309e-11)
(-5.58746e-10 1.25095e-09 8.47089e-11)
(-7.56037e-10 1.60567e-09 1.16194e-10)
(-9.97891e-10 1.9815e-09 1.55302e-10)
(-1.30472e-09 2.38656e-09 2.05017e-10)
(-1.70255e-09 2.82605e-09 2.68873e-10)
(-2.22483e-09 3.30141e-09 3.5097e-10)
(-2.91407e-09 3.80897e-09 4.55692e-10)
(-3.82257e-09 4.33773e-09 5.86899e-10)
(-5.01016e-09 4.86629e-09 7.46091e-10)
(-6.53323e-09 5.35834e-09 9.28923e-10)
(-8.40834e-09 5.75826e-09 1.11973e-09)
(-1.05008e-08 5.99593e-09 1.28566e-09)
(-1.22079e-08 6.0379e-09 1.37835e-09)
(-8.24104e-11 2.19653e-10 1.30879e-11)
(-2.42831e-10 6.41856e-10 3.88415e-11)
(-4.00924e-10 1.04177e-09 6.50136e-11)
(-5.68556e-10 1.43905e-09 9.39391e-11)
(-7.57646e-10 1.84998e-09 1.2794e-10)
(-9.81115e-10 2.28821e-09 1.69518e-10)
(-1.25367e-09 2.76531e-09 2.21485e-10)
(-1.59234e-09 3.29104e-09 2.87038e-10)
(-2.01666e-09 3.87364e-09 3.69647e-10)
(-2.54828e-09 4.51988e-09 4.72698e-10)
(-3.2099e-09 5.23499e-09 5.98596e-10)
(-4.02374e-09 6.02128e-09 7.47052e-10)
(-5.01071e-09 6.87191e-09 9.12186e-10)
(-6.18965e-09 7.7508e-09 1.07865e-09)
(-7.55154e-09 8.54463e-09 1.21862e-09)
(-8.83622e-09 9.00976e-09 1.29557e-09)
(-8.00616e-11 2.40052e-10 1.39895e-11)
(-2.34781e-10 7.01696e-10 4.14321e-11)
(-3.83847e-10 1.13956e-09 6.90611e-11)
(-5.36309e-10 1.57553e-09 9.91693e-11)
(-7.00484e-10 2.02802e-09 1.33968e-10)
(-8.84189e-10 2.51284e-09 1.75742e-10)
(-1.09461e-09 3.04416e-09 2.2693e-10)
(-1.33752e-09 3.63516e-09 2.90125e-10)
(-1.61554e-09 4.29895e-09 3.67891e-10)
(-1.92512e-09 5.0497e-09 4.62324e-10)
(-2.25173e-09 5.90418e-09 5.74166e-10)
(-2.56385e-09 6.88311e-09 7.01327e-10)
(-2.809e-09 8.00918e-09 8.36761e-10)
(-2.92411e-09 9.29019e-09 9.66346e-10)
(-2.89303e-09 1.06476e-08 1.0688e-09)
(-2.86988e-09 1.16982e-08 1.12166e-09)
(-7.30309e-11 2.51647e-10 1.44187e-11)
(-2.1286e-10 7.35846e-10 4.26079e-11)
(-3.43641e-10 1.19565e-09 7.06954e-11)
(-4.70911e-10 1.65432e-09 1.00824e-10)
(-5.98834e-10 2.13144e-09 1.34988e-10)
(-7.29814e-10 2.64405e-09 1.75141e-10)
(-8.63581e-10 3.20749e-09 2.23243e-10)
(-9.95412e-10 3.83625e-09 2.81187e-10)
(-1.1131e-09 4.54476e-09 3.50579e-10)
(-1.19206e-09 5.34845e-09 4.32273e-10)
(-1.18792e-09 6.26495e-09 5.25576e-10)
(-1.02602e-09 7.31544e-09 6.27045e-10)
(-5.88125e-10 8.52585e-09 7.29073e-10)
(2.97742e-10 9.92764e-09 8.19106e-10)
(1.82388e-09 1.15449e-08 8.81713e-10)
(3.8477e-09 1.31846e-08 9.05667e-10)
(-1.19114e-11 2.44662e-11 1.15995e-12)
(-3.5493e-11 7.14144e-11 3.46154e-12)
(-5.9942e-11 1.1565e-10 5.86095e-12)
(-8.79068e-11 1.59137e-10 8.6129e-12)
(-1.22415e-10 2.03312e-10 1.19912e-11)
(-1.67299e-10 2.49021e-10 1.63184e-11)
(-2.27706e-10 2.96325e-10 2.19927e-11)
(-3.10699e-10 3.44125e-10 2.9515e-11)
(-4.25936e-10 3.89489e-10 3.95015e-11)
(-5.86239e-10 4.26595e-10 5.26666e-11)
(-8.07625e-10 4.45189e-10 6.97545e-11)
(-1.10788e-09 4.28567e-10 9.13671e-11)
(-1.50211e-09 3.51504e-10 1.17691e-10)
(-1.99318e-09 1.79909e-10 1.48156e-10)
(-2.55122e-09 -1.1852e-10 1.80911e-10)
(-3.04559e-09 -4.94816e-10 2.09644e-10)
(-3.45494e-11 7.24589e-11 3.41009e-12)
(-1.0288e-10 2.11531e-10 1.01742e-11)
(-1.73514e-10 3.42669e-10 1.72137e-11)
(-2.53949e-10 4.71749e-10 2.5268e-11)
(-3.52705e-10 6.03148e-10 3.51266e-11)
(-4.80502e-10 7.39586e-10 4.77129e-11)
(-6.51653e-10 8.81654e-10 6.41598e-11)
(-8.8573e-10 1.02684e-09 8.58849e-11)
(-1.20941e-09 1.16781e-09 1.14608e-10)
(-1.65808e-09 1.28976e-09 1.52303e-10)
(-2.27577e-09 1.36662e-09 2.00939e-10)
(-3.11053e-09 1.35685e-09 2.61909e-10)
(-4.1993e-09 1.20125e-09 3.34983e-10)
(-5.53195e-09 8.31378e-10 4.16731e-10)
(-6.97599e-09 2.14637e-10 4.98238e-10)
(-8.11179e-09 -4.72364e-10 5.59251e-10)
(-5.39654e-11 1.17968e-10 5.47651e-12)
(-1.60465e-10 3.44456e-10 1.63254e-11)
(-2.69851e-10 5.58239e-10 2.7577e-11)
(-3.93274e-10 7.69107e-10 4.03852e-11)
(-5.43231e-10 9.84546e-10 5.59701e-11)
(-7.35228e-10 1.20963e-09 7.57369e-11)
(-9.8971e-10 1.44651e-09 1.01395e-10)
(-1.33434e-09 1.69321e-09 1.35035e-10)
(-1.80658e-09 1.94161e-09 1.7916e-10)
(-2.45589e-09 2.17417e-09 2.3653e-10)
(-3.34372e-09 2.35971e-09 3.09716e-10)
(-4.53678e-09 2.44925e-09 4.00034e-10)
(-6.08351e-09 2.3768e-09 5.0562e-10)
(-7.95498e-09 2.07819e-09 6.18463e-10)
(-9.92167e-09 1.55724e-09 7.2093e-10)
(-1.13458e-08 1.04379e-09 7.83676e-10)
(-6.85377e-11 1.59399e-10 7.26046e-12)
(-2.03343e-10 4.65557e-10 2.16187e-11)
(-3.40444e-10 7.54919e-10 3.64333e-11)
(-4.92927e-10 1.0411e-09 5.31708e-11)
(-6.75136e-10 1.33483e-09 7.33572e-11)
(-9.04438e-10 1.64405e-09 9.87186e-11)
(-1.2032e-09 1.97362e-09 1.31305e-10)
(-1.60109e-09 2.32438e-09 1.73573e-10)
(-2.13763e-09 2.69142e-09 2.28357e-10)
(-2.86451e-09 3.06146e-09 2.98645e-10)
(-3.84614e-09 3.40914e-09 3.86907e-10)
(-5.15404e-09 3.69348e-09 4.93707e-10)
(-6.84517e-09 3.85776e-09 6.15204e-10)
(-8.90213e-09 3.8429e-09 7.39648e-10)
(-1.10957e-08 3.63493e-09 8.4443e-10)
(-1.27266e-08 3.37033e-09 8.99603e-10)
(-7.72941e-11 1.95251e-10 8.69524e-12)
(-2.28635e-10 5.70453e-10 2.58537e-11)
(-3.80456e-10 9.25589e-10 4.3438e-11)
(-5.45893e-10 1.27782e-09 6.31114e-11)
(-7.38856e-10 1.64108e-09 8.65641e-11)
(-9.75498e-10 2.02642e-09 1.15664e-10)
(-1.27575e-09 2.44218e-09 1.52559e-10)
(-1.66498e-09 2.89354e-09 1.99741e-10)
(-2.17565e-09 3.38176e-09 2.5995e-10)
(-2.84892e-09 3.90263e-09 3.35866e-10)
(-3.73529e-09 4.4444e-09 4.29325e-10)
(-4.89242e-09 4.98457e-09 5.39799e-10)
(-6.37472e-09 5.48581e-09 6.61911e-10)
(-8.19847e-09 5.89194e-09 7.82297e-10)
(-1.02341e-08 6.13285e-09 8.78048e-10)
(-1.18966e-08 6.17505e-09 9.23423e-10)
(-7.99887e-11 2.24164e-10 9.74869e-12)
(-2.35668e-10 6.55135e-10 2.8933e-11)
(-3.89022e-10 1.06366e-09 4.84365e-11)
(-5.51513e-10 1.46993e-09 6.9996e-11)
(-7.34635e-10 1.89071e-09 9.53371e-11)
(-9.50784e-10 2.33999e-09 1.26298e-10)
(-1.21399e-09 2.82953e-09 1.64919e-10)
(-1.54037e-09 3.36916e-09 2.13445e-10)
(-1.94822e-09 3.96683e-09 2.74191e-10)
(-2.45758e-09 4.6287e-09 3.49154e-10)
(-3.08918e-09 5.3589e-09 4.39205e-10)
(-3.86319e-09 6.15813e-09 5.42663e-10)
(-4.79911e-09 7.01795e-09 6.5321e-10)
(-5.91691e-09 7.90158e-09 7.5778e-10)
(-7.21554e-09 8.69689e-09 8.36766e-10)
(-8.45684e-09 9.1619e-09 8.71978e-10)
(-7.704e-11 2.44974e-10 1.04204e-11)
(-2.2583e-10 7.16197e-10 3.08646e-11)
(-3.68913e-10 1.16347e-09 5.14559e-11)
(-5.14812e-10 1.6093e-09 7.39035e-11)
(-6.71266e-10 2.07259e-09 9.98554e-11)
(-8.4541e-10 2.56957e-09 1.30993e-10)
(-1.04355e-09 3.11462e-09 1.69095e-10)
(-1.2703e-09 3.72097e-09 2.15986e-10)
(-1.52679e-09 4.40145e-09 2.73364e-10)
(-1.80753e-09 5.1695e-09 3.42377e-10)
(-2.09572e-09 6.04062e-09 4.22851e-10)
(-2.35744e-09 7.03379e-09 5.12058e-10)
(-2.53825e-09 8.17032e-09 6.03152e-10)
(-2.57508e-09 9.45896e-09 6.84091e-10)
(-2.45866e-09 1.08264e-08 7.39424e-10)
(-2.37088e-09 1.18924e-08 7.59599e-10)
(-6.94055e-11 2.56804e-10 1.07404e-11)