/*--------------------------------*- C++ -*----------------------------------*\
| =========                 |                                                 |
| \\      /  F ield         | foam-extend: Open Source CFD                    |
|  \\    /   O peration     | Version:     3.1                                |
|   \\  /    A nd           | Web:         http://www.extend-project.de       |
|    \\/     M anipulation  |                                                 |
\*---------------------------------------------------------------------------*/
FoamFile
{
    version     2.0;
    format      ascii;
    class       volScalarField;
    location    "2.2";
    object      p;
}
// * * * * * * * * * * * * * * * * * * * * * * * * * * * * * * * * * * * * * //

dimensions      [0 2 -2 0 0 0 0];

internalField   nonuniform List<scalar> 
14592
(
0.025488
0.0252907
0.0251188
0.0250101
0.0249717
0.0249941
0.0250521
0.0251163
0.02516
0.0251631
0.02511
0.0249817
0.0247444
0.0243245
0.0236111
0.0226821
0.0255069
0.0252854
0.0250987
0.0249779
0.0249274
0.024946
0.0250091
0.025085
0.0251446
0.0251654
0.0251318
0.0250265
0.0248201
0.0244416
0.0237252
0.0225775
0.0254854
0.0252433
0.0250341
0.024889
0.0248298
0.0248487
0.0249235
0.0250195
0.0251031
0.0251503
0.0251479
0.0250837
0.0249348
0.0246258
0.0239124
0.0224799
0.0254416
0.0251848
0.0249577
0.0247937
0.0247165
0.024729
0.0248092
0.0249196
0.0250225
0.0250915
0.0251156
0.0250873
0.0249913
0.0247533
0.0240811
0.0224701
0.0253821
0.0251164
0.0248786
0.0246966
0.0246022
0.0245998
0.0246731
0.0247852
0.0248942
0.0249725
0.0250082
0.0249975
0.024935
0.0247593
0.0241675
0.0225047
0.0253043
0.0250356
0.0247926
0.0245995
0.0244854
0.0244629
0.0245183
0.0246165
0.0247167
0.0247852
0.0248092
0.024787
0.0247246
0.0245828
0.0240898
0.0224816
0.0252128
0.0249409
0.024694
0.0244914
0.02436
0.0243144
0.0243448
0.0244181
0.0244914
0.0245276
0.0245113
0.024437
0.0243215
0.0241473
0.0237415
0.0221931
0.0251086
0.0248337
0.0245821
0.0243696
0.0242214
0.0241527
0.0241546
0.0241944
0.0242276
0.0242124
0.024127
0.0239515
0.0236981
0.0233155
0.0228632
0.0206505
0.0256876
0.0254818
0.0253063
0.0252013
0.0251773
0.0252261
0.0253243
0.0254433
0.025558
0.0256515
0.0257153
0.0257427
0.0257203
0.0256103
0.0253897
0.0252548
0.0257099
0.0254778
0.025286
0.0251665
0.0251295
0.0251737
0.0252771
0.0254094
0.0255425
0.0256572
0.0257442
0.0257985
0.0258096
0.0257342
0.0255379
0.0255021
0.0256916
0.0254393
0.0252256
0.0250839
0.0250349
0.0250779
0.0251931
0.0253472
0.0255082
0.0256548
0.0257804
0.025886
0.0259695
0.0259832
0.0258424
0.0258811
0.0256503
0.0253839
0.0251543
0.0249942
0.0249289
0.0249649
0.0250849
0.025254
0.0254363
0.0256087
0.0257678
0.0259207
0.0260755
0.0261853
0.0261235
0.0262259
0.0255891
0.0253159
0.025078
0.0249042
0.0248225
0.0248434
0.0249549
0.0251238
0.0253118
0.0254938
0.0256672
0.0258442
0.0260447
0.0262345
0.0262508
0.0264077
0.025508
0.025232
0.0249905
0.0248079
0.0247097
0.0247102
0.0248011
0.0249522
0.0251255
0.0252934
0.025451
0.0256133
0.0258119
0.0260347
0.0260955
0.0262781
0.0254105
0.0251304
0.0248856
0.024695
0.0245802
0.0245562
0.0246178
0.0247369
0.024875
0.025
0.0251038
0.0251971
0.0253191
0.0254797
0.0254906
0.0254769
0.0252969
0.0250129
0.0247629
0.0245619
0.024429
0.0243785
0.0244057
0.0244824
0.0245684
0.0246256
0.0246377
0.0245966
0.0245274
0.0244068
0.0241315
0.0225811
0.0258851
0.0256722
0.0254957
0.0253973
0.0253896
0.0254663
0.0256052
0.0257782
0.0259607
0.0261376
0.0263038
0.0264583
0.0265951
0.0266897
0.0267356
0.0268165
0.0259095
0.0256695
0.0254756
0.025361
0.0253394
0.0254105
0.0255547
0.0257426
0.0259463
0.0261477
0.0263403
0.0265241
0.0266934
0.026817
0.0268965
0.0270935
0.0258947
0.0256346
0.0254193
0.0252838
0.0252487
0.0253181
0.0254747
0.0256866
0.0259219
0.0261604
0.0263979
0.0266386
0.0268841
0.0270959
0.027251
0.027567
0.0258556
0.0255823
0.0253528
0.0252007
0.0251509
0.0252137
0.0253754
0.0256034
0.0258626
0.0261306
0.0264064
0.0267009
0.0270239
0.0273329
0.0275755
0.0279898
0.0257931
0.0255148
0.0252791
0.0251166
0.0250526
0.0251011
0.0252537
0.0254805
0.0257454
0.0260229
0.0263147
0.026636
0.0270075
0.0273915
0.0276983
0.0281699
0.0257109
0.0254281
0.0251898
0.025021
0.0249433
0.024972
0.0251021
0.0253076
0.0255525
0.0258126
0.0260844
0.0263862
0.0267495
0.0271484
0.0274502
0.0279038
0.0256066
0.02532
0.0250786
0.0249029
0.0248095
0.0248124
0.02491
0.0250775
0.0252796
0.0254865
0.0256926
0.0259107
0.026177
0.0264769
0.0266223
0.0267409
0.0254829
0.0251923
0.0249453
0.0247585
0.0246456
0.0246192
0.0246766
0.0247933
0.0249318
0.025056
0.0251508
0.0252086
0.0252475
0.0252147
0.0249154
0.0231424
0.0260693
0.0258511
0.0256755
0.0255849
0.0255939
0.0256977
0.0258751
0.0260978
0.0263409
0.0265895
0.0268388
0.0270895
0.0273353
0.0275554
0.0277386
0.0278865
0.0260959
0.0258498
0.0256562
0.0255478
0.0255418
0.0256392
0.0258221
0.0260611
0.026328
0.026604
0.0268818
0.0271639
0.0274411
0.0276858
0.0278989
0.0281453
0.0260839
0.0258179
0.0256025
0.0254752
0.0254555
0.0255511
0.0257472
0.0260125
0.0263146
0.0266322
0.0269609
0.0273008
0.0276521
0.0279759
0.0282644
0.0286199
0.0260459
0.0257684
0.0255406
0.0253984
0.0253657
0.0254557
0.0256576
0.0259405
0.026269
0.026619
0.0269883
0.0273848
0.0278127
0.0282248
0.0285889
0.0290379
0.0259848
0.0257016
0.0254691
0.0253192
0.0252748
0.0253518
0.0255448
0.0258262
0.0261615
0.0265195
0.026905
0.0273283
0.0278017
0.0282766
0.0286841
0.0291765
0.0259002
0.0256125
0.0253781
0.0252239
0.0251683
0.0252265
0.0253962
0.025653
0.0259617
0.0263017
0.0266631
0.0270615
0.0275185
0.027989
0.0283526
0.0287936
0.0257898
0.0254983
0.025261
0.0251007
0.02503
0.0250617
0.0251956
0.02541
0.0256703
0.0259473
0.0262329
0.0265356
0.0268798
0.0272222
0.027361
0.0273905
0.025657
0.0253613
0.0251177
0.0249456
0.0248541
0.0248538
0.024943
0.025099
0.0252857
0.0254669
0.0256257
0.025749
0.025842
0.0258195
0.0254245
0.0233748
0.0262299
0.0260082
0.0258345
0.0257516
0.0257761
0.0259041
0.0261152
0.0263806
0.0266743
0.0269806
0.0272935
0.0276119
0.0279275
0.0282182
0.0284656
0.028633
0.0262588
0.0260082
0.0258165
0.0257142
0.0257226
0.0258436
0.0260603
0.0263431
0.0266627
0.0269989
0.0273424
0.0276932
0.0280392
0.0283508
0.0286199
0.0288747
0.026249
0.0259789
0.0257637
0.0256453
0.0256403
0.0257596
0.0259904
0.0263017
0.0266595
0.0270407
0.0274376
0.0278471
0.0282631
0.0286445
0.0289877
0.0293326
0.0262125
0.0259318
0.0257061
0.025574
0.0255577
0.0256724
0.02591
0.0262402
0.0266264
0.0270427
0.0274817
0.0279475
0.0284357
0.0288939
0.0292949
0.0297257
0.0261528
0.0258658
0.0256365
0.0254987
0.025473
0.0255763
0.0258055
0.0261339
0.0265257
0.0269502
0.0274057
0.0278964
0.028425
0.0289331
0.0293579
0.0298195
0.0260657
0.0257744
0.025544
0.0254034
0.0253685
0.0254542
0.0256597
0.0259619
0.0263263
0.0267273
0.0271545
0.0276153
0.0281198
0.0286073
0.0289602
0.0293476
0.0259502
0.025655
0.0254216
0.0252754
0.025226
0.0252847
0.0254521
0.025708
0.0260175
0.0263497
0.0266931
0.027049
0.0274292
0.0277685
0.0278535
0.0277825
0.0258095
0.02551
0.0252698
0.0251109
0.0250396
0.025064
0.0251827
0.025374
0.0256017
0.025828
0.0260328
0.026196
0.0263101
0.0262647
0.0257642
0.0234905
0.0263584
0.0261344
0.0259628
0.025887
0.0259243
0.0260722
0.0263102
0.0266092
0.0269419
0.0272912
0.0276492
0.0280124
0.0283699
0.0286978
0.0289737
0.0291432
0.0263889
0.0261356
0.0259453
0.0258492
0.0258699
0.0260102
0.0262539
0.0265713
0.0269314
0.0273125
0.0277033
0.0280989
0.0284861
0.0288328
0.0291297
0.0293733
0.0263816
0.0261087
0.0258954
0.0257836
0.025791
0.0259298
0.0261885
0.0265359
0.0269367
0.0273651
0.0278095
0.0282651
0.028718
0.0291251
0.0294795
0.0298128
0.0263471
0.0260636
0.0258398
0.0257165
0.025714
0.0258493
0.0261157
0.0264832
0.026914
0.0273803
0.027867
0.0283769
0.0288974
0.0293718
0.029775
0.0301816
0.0262874
0.0259978
0.0257717
0.0256442
0.0256342
0.0257594
0.026018
0.0263838
0.0268193
0.0272917
0.0277966
0.0283292
0.028885
0.0293987
0.0298117
0.0302391
0.0261984
0.0259048
0.0256778
0.0255486
0.0255312
0.0256397
0.0258747
0.0262129
0.02662
0.0270661
0.0275385
0.0280371
0.0285624
0.0290438
0.029366
0.0297045
0.0260788
0.0257813
0.0255513
0.0254167
0.025385
0.0254663
0.0256614
0.0259507
0.0262983
0.026671
0.0270537
0.0274408
0.0278341
0.028154
0.0281815
0.0280318
0.0259319
0.0256298
0.0253926
0.0252446
0.02519
0.0252354
0.0253789
0.0255988
0.0258582
0.0261178
0.0263534
0.0265389
0.0266567
0.0265801
0.0259911
0.0235552
0.0264481
0.0262231
0.0260534
0.025983
0.0260299
0.0261919
0.026449
0.0267711
0.0271304
0.0275081
0.027895
0.0282851
0.0286659
0.0290118
0.0292983
0.0294649
0.0264795
0.0262253
0.0260356
0.0259458
0.0259759
0.0261302
0.0263933
0.0267347
0.0271226
0.0275335
0.0279545
0.0283774
0.0287875
0.0291509
0.0294565
0.029689
0.0264745
0.0262003
0.0259901
0.0258827
0.0258996
0.0260529
0.0263316
0.0267045
0.0271347
0.0275945
0.0280696
0.0285529
0.0290256
0.0294431
0.0297972
0.0301167
0.0264413
0.0261562
0.0259343
0.025818
0.0258263
0.0259769
0.0262643
0.0266583
0.0271197
0.0276176
0.0281364
0.0286725
0.0292092
0.0296871
0.0300827
0.0304677
0.0263814
0.0260905
0.0258669
0.0257473
0.0257493
0.0258909
0.0261711
0.0265636
0.02703
0.0275358
0.0280702
0.028627
0.029195
0.029705
0.0301011
0.0305007
0.0262909
0.0259963
0.025772
0.0256511
0.0256467
0.0257725
0.026029
0.0263933
0.02683
0.0273067
0.0278073
0.0283272
0.0288606
0.0293307
0.0296244
0.0299262
0.0261685
0.0258699
0.0256425
0.0255163
0.0254978
0.025596
0.0258115
0.026125
0.0264994
0.0268994
0.0273067
0.0277109
0.0281071
0.0284078
0.0283909
0.0281865
0.0260173
0.025714
0.0254789
0.0253388
0.0252967
0.0253577
0.0255197
0.0257606
0.0260427
0.0263247
0.0265795
0.0267767
0.0268919
0.0267888
0.0261366
0.0235949
0.0264927
0.0262668
0.0260974
0.0260291
0.0260801
0.0262485
0.0265144
0.0268477
0.0272196
0.0276107
0.028011
0.0284129
0.0288033
0.0291561
0.0294465
0.0296135
0.0265243
0.026269
0.0260786
0.0259906
0.0260243
0.0261847
0.0264565
0.0268092
0.0272101
0.0276349
0.0280695
0.0285043
0.0289236
0.0292934
0.0296027
0.0298329
0.0265206
0.0262452
0.0260349
0.0259287
0.025949
0.026108
0.0263954
0.0267797
0.0272235
0.0276976
0.0281866
0.0286815
0.0291616
0.0295822
0.0299372
0.0302526
0.0264882
0.0262019
0.02598
0.0258657
0.0258778
0.0260345
0.0263306
0.0267362
0.0272114
0.0277237
0.0282567
0.0288038
0.0293458
0.0298233
0.0302165
0.0305934
0.0264283
0.0261366
0.0259133
0.0257963
0.0258029
0.025951
0.0262401
0.0266441
0.0271242
0.0276449
0.0281923
0.0287589
0.0293303
0.0298362
0.0302261
0.0306145
0.0263373
0.0260419
0.0258181
0.0257003
0.0257011
0.0258338
0.0260993
0.0264746
0.0269241
0.0274144
0.0279271
0.0284555
0.0289902
0.0294524
0.0297348
0.0300218
0.0262135
0.0259142
0.0256873
0.0255642
0.0255512
0.0256563
0.0258802
0.0262038
0.0265897
0.0270015
0.0274191
0.0278297
0.0282248
0.0285132
0.0284759
0.0282431
0.0260601
0.025756
0.0255214
0.0253843
0.0253473
0.0254147
0.0255842
0.0258337
0.0261253
0.0264167
0.0266795
0.0268808
0.0269922
0.0268729
0.0261772
0.0235841
0.0246607
0.0246235
0.0245901
0.0245633
0.0245322
0.0244796
0.0243844
0.0242253
0.0239816
0.0236345
0.0231659
0.0225579
0.0217927
0.0208569
0.0197409
0.0184663
0.0246647
0.024626
0.0245965
0.0245742
0.0245489
0.0245023
0.0244124
0.0242575
0.0240172
0.0236728
0.0232067
0.0226016
0.0218396
0.0209082
0.019794
0.0185222
0.0246506
0.0246055
0.0245773
0.0245636
0.0245512
0.0245189
0.0244425
0.0242986
0.0240665
0.0237281
0.023267
0.022668
0.021914
0.0209954
0.0198937
0.0186388
0.0246206
0.0245639
0.02453
0.0245194
0.0245181
0.0245012
0.0244407
0.0243105
0.0240886
0.0237573
0.0233015
0.0227079
0.0219611
0.0210549
0.0199673
0.0187322
0.0245789
0.0245093
0.0244644
0.0244503
0.0244535
0.0244473
0.0244002
0.0242826
0.0240705
0.0237458
0.0232944
0.022705
0.0219636
0.0210674
0.0199931
0.0187769
0.0245289
0.024448
0.024391
0.0243695
0.024372
0.0243709
0.0243321
0.0242231
0.0240179
0.0236977
0.0232491
0.0226623
0.0219252
0.0210376
0.0199777
0.0187819
0.0244735
0.0243846
0.0243173
0.0242879
0.0242866
0.0242858
0.0242498
0.0241443
0.0239418
0.0236229
0.0231747
0.0225888
0.0218555
0.0209764
0.0199335
0.0187617
0.0244161
0.0243225
0.0242485
0.0242127
0.0242066
0.0242028
0.0241649
0.0240578
0.0238533
0.023532
0.0230817
0.0224956
0.0217658
0.0208961
0.0198734
0.01873
0.0246698
0.0246131
0.0245646
0.0245279
0.0244918
0.024438
0.0243441
0.0241873
0.0239459
0.0236002
0.0231314
0.0225211
0.0217506
0.0208066
0.0196767
0.0183884
0.0246727
0.024609
0.0245594
0.0245212
0.0244863
0.0244357
0.0243458
0.0241927
0.0239545
0.0236112
0.023144
0.0225352
0.0217662
0.0208258
0.0196977
0.0184159
0.0246566
0.0245815
0.0245266
0.0244911
0.0244641
0.0244255
0.0243483
0.0242066
0.0239772
0.0236404
0.0231785
0.0225757
0.0218135
0.0208853
0.0197676
0.0185022
0.0246272
0.0245378
0.0244725
0.0244341
0.0244148
0.0243891
0.0243267
0.0241988
0.0239805
0.0236518
0.0231958
0.0225988
0.0218434
0.0209272
0.0198221
0.0185772
0.0245881
0.0244851
0.0244063
0.0243611
0.0243419
0.0243238
0.024274
0.0241591
0.0239515
0.0236306
0.0231802
0.0225885
0.0218392
0.0209335
0.0198413
0.0186144
0.0245409
0.024427
0.0243353
0.0242806
0.0242581
0.0242432
0.0242005
0.024094
0.0238941
0.0235788
0.0231325
0.0225448
0.0218011
0.0209056
0.0198291
0.0186237
0.0244878
0.0243663
0.0242644
0.0242007
0.024173
0.0241572
0.0241166
0.0240138
0.0238171
0.0235042
0.0230596
0.0224744
0.0217363
0.0208513
0.0197945
0.0186152
0.0244314
0.0243056
0.0241975
0.0241274
0.0240945
0.0240752
0.0240326
0.0239284
0.0237304
0.023416
0.0229706
0.0223866
0.0216541
0.0207807
0.0197477
0.0185994
0.0246994
0.0246175
0.0245479
0.0244966
0.024455
0.0244029
0.0243161
0.0241695
0.0239398
0.0236055
0.0231455
0.0225382
0.0217595
0.0207886
0.019601
0.0182255
0.0247017
0.0246094
0.0245351
0.0244808
0.0244382
0.0243886
0.0243061
0.0241644
0.0239391
0.0236083
0.0231509
0.0225454
0.021769
0.0208025
0.0196167
0.0182533
0.0246807
0.0245732
0.0244888
0.0244324
0.0243954
0.0243574
0.0242887
0.0241602
0.0239457
0.0236232
0.0231729
0.0225763
0.0218074
0.0208556
0.0196776
0.0183298
0.0246473
0.024523
0.0244232
0.0243584
0.0243267
0.0242996
0.0242465
0.0241335
0.0239319
0.0236192
0.023176
0.0225855
0.0218235
0.0208828
0.0197135
0.0183838
0.0246062
0.0244672
0.0243505
0.024274
0.0242371
0.0242174
0.0241763
0.024077
0.0238878
0.0235844
0.0231478
0.0225632
0.0218075
0.0208773
0.0197197
0.0184091
0.0245578
0.0244081
0.0242764
0.0241869
0.0241436
0.0241239
0.0240893
0.0239989
0.0238182
0.0235214
0.0230896
0.0225095
0.0217598
0.0208409
0.0197006
0.0184153
0.0245029
0.0243465
0.024204
0.0241033
0.0240522
0.0240294
0.023996
0.0239092
0.0237321
0.023438
0.0230083
0.0224309
0.0216874
0.0207809
0.019665
0.0184129
0.0244438
0.0242843
0.0241357
0.0240277
0.02397
0.0239426
0.0239065
0.0238179
0.0236393
0.0233437
0.0229129
0.0223366
0.0215996
0.020707
0.0196223
0.018411
0.0247575
0.0246497
0.0245566
0.02449
0.0244427
0.024395
0.0243202
0.0241915
0.0239832
0.0236715
0.0232323
0.0226381
0.0218543
0.0208431
0.019555
0.0180067
0.0247611
0.0246405
0.0245409
0.0244698
0.0244212
0.0243757
0.024306
0.0241833
0.0239811
0.0236748
0.0232402
0.0226507
0.0218714
0.0208682
0.0195823
0.0180493
0.0247358
0.0245974
0.0244839
0.0244064
0.0243616
0.0243274
0.0242727
0.0241652
0.023976
0.0236802
0.0232547
0.0226744
0.0219044
0.0209154
0.0196331
0.0181124
0.0246969
0.0245403
0.0244078
0.0243182
0.0242735
0.0242489
0.0242101
0.0241199
0.023945
0.0236608
0.0232439
0.0226714
0.0219088
0.02093
0.01965
0.01814
0.0246509
0.0244797
0.0243278
0.0242218
0.0241689
0.0241482
0.0241202
0.0240434
0.0238825
0.0236086
0.0231991
0.0226326
0.0218758
0.0209066
0.0196351
0.0181444
0.0245985
0.0244172
0.0242492
0.0241267
0.0240629
0.0240392
0.0240159
0.0239478
0.0237954
0.0235281
0.0231231
0.0225605
0.0218092
0.0208517
0.0195994
0.0181418
0.02454
0.0243524
0.0241733
0.0240374
0.0239627
0.023933
0.0239089
0.0238432
0.0236935
0.0234281
0.0230239
0.0224627
0.0217169
0.0207737
0.0195527
0.0181433
0.0244772
0.0242865
0.0241012
0.0239569
0.0238738
0.0238375
0.023809
0.0237401
0.0235874
0.0233187
0.0229114
0.0223493
0.0216089
0.0206824
0.0195034
0.0181559
0.0248474
0.0247148
0.0245984
0.0245162
0.0244632
0.0244226
0.0243643
0.02426
0.0240823
0.023805
0.0234006
0.0228339
0.0220559
0.0209999
0.0195752
0.0177512
0.0248532
0.0247056
0.0245809
0.0244927
0.0244388
0.024398
0.0243448
0.0242478
0.0240778
0.0238078
0.0234102
0.0228505
0.0220795
0.0210339
0.0196137
0.0178049
0.0248255
0.0246584
0.0245164
0.0244177
0.0243633
0.024333
0.024295
0.0242145
0.0240595
0.0238021
0.0234155
0.0228665
0.0221061
0.0210706
0.0196445
0.0178232
0.024782
0.0245966
0.0244334
0.0243182
0.024259
0.0242354
0.024212
0.0241497
0.0240093
0.0237651
0.0233887
0.0228479
0.022094
0.0210628
0.0196287
0.0177995
0.0247309
0.0245321
0.0243491
0.0242139
0.0241422
0.0241181
0.0241026
0.0240511
0.0239262
0.0236926
0.0233235
0.0227877
0.0220384
0.0210128
0.0195827
0.01777
0.0246733
0.0244656
0.0242672
0.0241134
0.0240266
0.0239948
0.0239809
0.0239367
0.0238184
0.0235901
0.0232242
0.0226903
0.0219451
0.0209305
0.019523
0.0177573
0.0246094
0.0243963
0.0241876
0.0240193
0.0239185
0.0238771
0.0238588
0.0238141
0.023696
0.0234671
0.0230992
0.0225636
0.021822
0.0208243
0.0194584
0.0177714
0.0245406
0.0243248
0.0241102
0.0239327
0.0238216
0.023771
0.0237452
0.0236944
0.0235704
0.0233346
0.0229594
0.0224185
0.0216795
0.0207024
0.0193938
0.0178127
0.0249692
0.024815
0.0246779
0.0245824
0.0245271
0.0244952
0.0244578
0.0243848
0.0242474
0.0240177
0.0236665
0.0231503
0.0224018
0.021313
0.0197213
0.0174868
0.0249778
0.0248063
0.0246592
0.0245556
0.024497
0.0244646
0.0244323
0.0243675
0.0242396
0.0240198
0.023677
0.0231694
0.0224301
0.0213451
0.0197433
0.0174667
0.0249497
0.0247577
0.0245908
0.0244728
0.0244097
0.0243851
0.0243672
0.0243198
0.0242085
0.0240032
0.0236741
0.0231786
0.0224482
0.0213574
0.0197159
0.0173327
0.0249036
0.0246941
0.0245051
0.0243673
0.0242948
0.0242729
0.0242671
0.0242364
0.024141
0.0239501
0.0236325
0.0231453
0.022419
0.0213165
0.0196413
0.0171782
0.0248485
0.0246271
0.0244196
0.0242601
0.0241715
0.0241448
0.0241424
0.0241213
0.0240387
0.0238576
0.0235469
0.0230633
0.0223396
0.021233
0.019553
0.0170754
0.0247856
0.0245568
0.0243362
0.0241576
0.0240502
0.0240093
0.0240051
0.0239875
0.0239093
0.0237311
0.0234211
0.022936
0.0222144
0.021116
0.0194659
0.0170461
0.0247153
0.024482
0.0242527
0.0240598
0.0239363
0.0238825
0.0238684
0.0238452
0.0237631
0.0235797
0.0232627
0.0227701
0.022049
0.0209701
0.0193835
0.0170973
0.024639
0.0244032
0.0241687
0.0239662
0.0238305
0.0237643
0.0237385
0.0237047
0.0236115
0.0234152
0.0230836
0.022577
0.0218525
0.0207998
0.0193058
0.017233
0.0251205
0.0249484
0.024795
0.0246902
0.0246358
0.0246173
0.0246063
0.0245721
0.0244856
0.0243197
0.0240449
0.0236154
0.0229496
0.0218899
0.020147
0.0173337
0.0251322
0.0249406
0.0247755
0.0246608
0.0246007
0.0245805
0.0245744
0.0245495
0.0244744
0.0243203
0.0240567
0.0236384
0.0229825
0.0219116
0.0200815
0.0169873
0.0251054
0.0248929
0.0247065
0.0245741
0.024506
0.0244906
0.0244978
0.0244908
0.0244343
0.0242974
0.0240513
0.0236497
0.0230049
0.0219084
0.0199564
0.016477
0.0250587
0.0248297
0.0246217
0.0244673
0.0243866
0.0243698
0.0243864
0.0243948
0.0243548
0.024234
0.0240022
0.0236124
0.0229745
0.0218522
0.0198166
0.0160551
0.0250009
0.0247615
0.0245375
0.0243618
0.0242624
0.0242355
0.0242519
0.0242674
0.0242374
0.0241258
0.0239012
0.0235157
0.0228823
0.0217495
0.0196964
0.0158115
0.0249334
0.0246876
0.0244532
0.0242599
0.0241397
0.0240967
0.0241041
0.0241173
0.0240885
0.0239761
0.0237485
0.0233579
0.0227253
0.0215982
0.0195906
0.0157358
0.0248561
0.0246065
0.0243654
0.024159
0.0240216
0.0239609
0.0239537
0.0239556
0.0239164
0.0237918
0.0235492
0.0231409
0.0225014
0.0213906
0.0194877
0.0158219
0.024771
0.0245192
0.0242733
0.0240572
0.023906
0.0238292
0.0238054
0.0237903
0.0237325
0.0235854
0.0233156
0.0228753
0.0222139
0.0211166
0.0193797
0.0161221
0.025296
0.0251097
0.0249448
0.0248356
0.0247864
0.0247866
0.0248076
0.0248196
0.0247946
0.0247079
0.0245356
0.0242401
0.0237498
0.0229024
0.0213247
0.0182357
0.0253111
0.0251031
0.0249249
0.0248045
0.0247474
0.0247437
0.0247697
0.0247922
0.0247806
0.0247086
0.0245512
0.0242724
0.0237998
0.0229527
0.0212319
0.0174925
0.0252867
0.0250577
0.0248575
0.024717
0.0246493
0.0246481
0.0246864
0.0247276
0.0247368
0.0246861
0.0245524
0.0243013
0.0238587
0.0230104
0.0211276
0.0166704
0.0252409
0.0249964
0.024776
0.024612
0.0245307
0.0245253
0.0245704
0.0246265
0.0246535
0.0246208
0.0245067
0.0242779
0.0238606
0.0230158
0.0210459
0.0160912
0.0251819
0.0249279
0.0246943
0.0245115
0.0244105
0.0243911
0.0244324
0.0244938
0.0245267
0.0245036
0.0243985
0.0241796
0.0237784
0.0229473
0.02098
0.0157905
0.02511
0.0248505
0.0246092
0.0244117
0.024289
0.0242519
0.0242789
0.024329
0.0243616
0.0243333
0.024221
0.0239937
0.0235935
0.0227775
0.0208841
0.015682
0.0250242
0.0247626
0.0245164
0.0243075
0.0241677
0.0241093
0.0241164
0.0241498
0.0241629
0.0241129
0.023974
0.0237135
0.0232885
0.0224698
0.0207086
0.0156809
0.0249298
0.0246657
0.0244149
0.0241963
0.0240411
0.0239631
0.0239478
0.0239567
0.023941
0.0238553
0.0236703
0.0233466
0.0228529
0.0219634
0.0203747
0.015717
0.0249964
0.0247192
0.0244614
0.0242378
0.0240739
0.0239839
0.0239581
0.0239622
0.0239491
0.0238722
0.0237011
0.0233937
0.0229255
0.022067
0.0205621
0.0160217
0.0248844
0.0246056
0.0243408
0.0241064
0.0239297
0.0238236
0.0237751
0.0237466
0.0236889
0.0235522
0.0232999
0.0228791
0.0222429
0.021169
0.0194529
0.0162192
0.0247827
0.0245033
0.0242327
0.0239909
0.023808
0.0236936
0.0236297
0.0235753
0.0234795
0.0232934
0.0229788
0.0224908
0.0217819
0.0207419
0.0192299
0.0171738
0.0247002
0.0244231
0.0241511
0.0239101
0.0237301
0.0236157
0.0235432
0.0234687
0.0233417
0.0231172
0.0227594
0.0222381
0.0215119
0.0205493
0.0192275
0.0176587
0.0246453
0.0243741
0.0241092
0.0238797
0.0237113
0.0236021
0.0235237
0.0234313
0.0232772
0.0230216
0.0226335
0.0220939
0.0213696
0.0204631
0.0192858
0.0179484
0.024619
0.0243598
0.0241129
0.0239043
0.0237518
0.0236477
0.0235614
0.0234505
0.0232718
0.0229908
0.0225812
0.0220303
0.0213137
0.0204451
0.0193734
0.0181746
0.0246087
0.0243723
0.0241498
0.0239668
0.0238322
0.0237336
0.0236408
0.023515
0.0233181
0.02302
0.0225983
0.0220422
0.0213344
0.0204877
0.019474
0.0183413
0.0245875
0.0243785
0.0241785
0.0240178
0.0239021
0.0238154
0.0237266
0.0235989
0.0233975
0.0230952
0.022672
0.022117
0.0214158
0.0205753
0.0195745
0.0184483
0.0251723
0.0248852
0.0246278
0.0244132
0.0242608
0.0241839
0.0241761
0.0242072
0.0242335
0.0242102
0.024109
0.0238904
0.0235262
0.0227679
0.0211622
0.0161422
0.0250454
0.0247567
0.0244903
0.0242608
0.0240901
0.0239907
0.0239528
0.0239425
0.0239121
0.0238118
0.0236037
0.0232303
0.0226341
0.0215482
0.0196683
0.0159342
0.0249291
0.0246393
0.0243644
0.0241223
0.023939
0.0238251
0.0237661
0.0237234
0.0236463
0.023484
0.0231955
0.0227295
0.0220292
0.0209548
0.0193298
0.0170258
0.0248339
0.024545
0.0242656
0.0240188
0.0238328
0.0237146
0.0236438
0.0235778
0.0234647
0.0232566
0.0229145
0.0224035
0.0216747
0.0206852
0.0192869
0.0175978
0.0247667
0.0244839
0.0242087
0.023969
0.0237912
0.0236767
0.0235995
0.0235148
0.0233725
0.0231298
0.0227519
0.0222174
0.0214864
0.0205597
0.0193268
0.0179167
0.0247321
0.0244605
0.0242011
0.0239805
0.0238183
0.0237097
0.0236258
0.023523
0.0233553
0.0230851
0.0226829
0.0221344
0.02141
0.0205251
0.0194134
0.0181648
0.024716
0.0244669
0.024232
0.0240379
0.0238957
0.0237952
0.0237066
0.0235895
0.0234032
0.0231148
0.0226991
0.0221446
0.0214296
0.0205691
0.019525
0.0183535
0.0246932
0.0244722
0.0242609
0.0240909
0.0239701
0.0238838
0.023801
0.0236828
0.0234922
0.0231995
0.0227825
0.0222293
0.0215225
0.0206697
0.0196419
0.018479
0.0253467
0.0250517
0.024796
0.0245933
0.0244572
0.0243992
0.0244145
0.0244758
0.0245416
0.0245677
0.0245255
0.0243719
0.0240658
0.0233219
0.0215818
0.0161317
0.0252053
0.0249085
0.0246421
0.0244206
0.0242608
0.0241738
0.0241514
0.0241619
0.024159
0.0240919
0.0239209
0.0235818
0.0230043
0.0218834
0.0198569
0.0157677
0.0250744
0.024776
0.024499
0.0242601
0.0240814
0.0239732
0.0239231
0.023894
0.0238354
0.0236946
0.0234277
0.0229767
0.022276
0.0211606
0.0194307
0.0169247
0.0249658
0.0246678
0.0243838
0.024135
0.0239476
0.02383
0.0237638
0.0237072
0.0236075
0.0234141
0.0230849
0.0225801
0.0218444
0.0208247
0.0193541
0.0175568
0.0248878
0.0245949
0.0243124
0.0240665
0.0238834
0.0237668
0.0236925
0.0236159
0.0234848
0.0232535
0.022884
0.0223522
0.0216126
0.0206642
0.0193795
0.0179028
0.0248442
0.0245627
0.0242939
0.0240649
0.0238961
0.0237854
0.0237049
0.0236102
0.0234529
0.0231924
0.0227962
0.0222488
0.0215158
0.0206141
0.019465
0.0181701
0.0248228
0.024563
0.0243189
0.0241167
0.0239694
0.0238685
0.0237847
0.0236764
0.0235001
0.0232205
0.0228101
0.022256
0.0215334
0.0206588
0.0195861
0.0183778
0.0247977
0.0245675
0.0243478
0.0241714
0.0240477
0.0239633
0.0238869
0.0237783
0.023598
0.023314
0.0229024
0.0223501
0.021637
0.0207716
0.019718
0.0185203
0.0255094
0.0252087
0.0249553
0.024765
0.0246471
0.0246104
0.0246509
0.0247426
0.024845
0.0249132
0.0249162
0.0248046
0.0245232
0.0237536
0.0218688
0.0160528
0.025355
0.0250519
0.0247862
0.0245738
0.0244272
0.0243554
0.0243508
0.0243829
0.0244056
0.0243668
0.024224
0.0239058
0.0233305
0.0221632
0.0200044
0.0156436
0.0252105
0.0249053
0.0246273
0.0243933
0.0242219
0.0241225
0.0240836
0.0240689
0.0240277
0.0239051
0.0236543
0.0232112
0.0225025
0.0213441
0.0195205
0.0168547
0.0250894
0.024784
0.024497
0.0242487
0.0240631
0.0239489
0.0238892
0.0238426
0.0237554
0.0235744
0.0232546
0.0227522
0.0220062
0.0209556
0.0194203
0.0175319
0.0250012
0.0247001
0.0244125
0.0241633
0.023978
0.0238615
0.0237916
0.0237232
0.0236024
0.0233807
0.0230175
0.0224862
0.0217368
0.0207666
0.0194359
0.0179015
0.0249487
0.0246597
0.0243842
0.0241495
0.0239769
0.0238657
0.0237894
0.0237026
0.0235548
0.0233028
0.0229114
0.0223638
0.0216219
0.0207038
0.0195214
0.0181854
0.024923
0.0246547
0.0244036
0.0241959
0.0240455
0.0239455
0.023867
0.023767
0.0236
0.0233282
0.022922
0.0223676
0.0216373
0.0207492
0.0196505
0.018409
0.0248956
0.0246582
0.0244326
0.0242519
0.024127
0.0240455
0.0239758
0.0238764
0.0237056
0.0234294
0.0230222
0.0224699
0.0217502
0.0208725
0.0197952
0.0185659
0.0256518
0.025347
0.0250959
0.024917
0.0248163
0.0248004
0.0248649
0.0249843
0.025118
0.0252196
0.0252548
0.0251672
0.0248899
0.0240785
0.0220619
0.0159536
0.0254862
0.0251782
0.0249137
0.0247099
0.0245763
0.0245198
0.0245329
0.024585
0.0246299
0.0246135
0.0244904
0.0241825
0.0235991
0.0223827
0.0201113
0.0155428
0.0253297
0.0250193
0.024741
0.0245123
0.024349
0.0242593
0.0242319
0.024231
0.0242048
0.0240967
0.0238568
0.0234159
0.0226947
0.0214954
0.019593
0.0168051
0.0251974
0.0248864
0.0245976
0.0243511
0.0241688
0.0240593
0.0240067
0.0239697
0.0238932
0.0237222
0.0234086
0.0229056
0.0221478
0.0210683
0.0194786
0.0175181
0.0251002
0.024793
0.024502
0.0242513
0.0240655
0.0239507
0.0238855
0.0238248
0.023713
0.0234992
0.0231403
0.0226079
0.0218484
0.0208583
0.0194889
0.0179072
0.0250413
0.0247454
0.0244652
0.024227
0.0240523
0.0239418
0.0238698
0.0237903
0.0236508
0.0234057
0.0230179
0.0224694
0.021719
0.0207858
0.0195753
0.0182049
0.0250105
0.024736
0.0244798
0.0242685
0.0241165
0.0240181
0.0239447
0.0238523
0.0236934
0.0234282
0.0230252
0.02247
0.0217325
0.0208321
0.0197112
0.0184415
0.0249815
0.0247387
0.0245088
0.0243256
0.0242007
0.0241224
0.0240591
0.023968
0.0238055
0.0235359
0.0231321
0.0225793
0.0218533
0.0209642
0.0198665
0.0186101
0.0257662
0.0254585
0.0252095
0.0250401
0.0249539
0.0249557
0.0250406
0.0251828
0.0253411
0.0254672
0.0255236
0.0254482
0.025165
0.0243118
0.0221909
0.0158678
0.0255916
0.0252801
0.0250167
0.0248203
0.0246979
0.024655
0.0246833
0.0247523
0.0248147
0.0248148
0.0247043
0.0244
0.0238043
0.0225444
0.0201859
0.0154674
0.0254254
0.0251113
0.0248331
0.0246092
0.0244533
0.0243726
0.0243556
0.0243663
0.0243522
0.0242546
0.0240215
0.0235795
0.022845
0.0216108
0.0196478
0.0167722
0.0252841
0.0249692
0.0246794
0.0244349
0.0242562
0.0241517
0.0241056
0.0240768
0.0240091
0.0238453
0.0235356
0.0230303
0.0222612
0.0211576
0.0195259
0.0175121
0.0251794
0.0248681
0.0245749
0.0243238
0.0241387
0.0240261
0.0239654
0.0239112
0.0238066
0.0235987
0.0232426
0.0227083
0.0219398
0.020933
0.0195335
0.0179159
0.0251157
0.0248149
0.0245314
0.0242913
0.0241157
0.0240064
0.0239384
0.023865
0.0237321
0.0234925
0.0231071
0.0225572
0.0217995
0.020854
0.0196213
0.0182243
0.0250811
0.0248019
0.0245423
0.0243288
0.0241762
0.0240796
0.0240107
0.0239246
0.0237722
0.0235121
0.0231115
0.0225553
0.0218116
0.020901
0.0197625
0.0184706
0.0250506
0.0248039
0.0245713
0.0243867
0.0242623
0.0241871
0.0241293
0.0240451
0.0238893
0.0236249
0.0232235
0.0226699
0.0219385
0.0210399
0.0199258
0.0186481
0.0258459
0.0255367
0.0252895
0.0251269
0.0250515
0.0250668
0.0251672
0.0253265
0.0255026
0.0256454
0.0257151
0.0256455
0.0253546
0.0244701
0.0222789
0.0158176
0.0256651
0.0253516
0.0250893
0.0248983
0.0247846
0.0247523
0.0247925
0.0248744
0.0249498
0.0249614
0.0248587
0.024555
0.0239483
0.0226562
0.0202378
0.0154223
0.0254923
0.0251759
0.0248981
0.024678
0.0245281
0.0244548
0.0244463
0.0244663
0.0244614
0.0243712
0.0241422
0.0236981
0.0229525
0.0216925
0.0196879
0.0167563
0.0253446
0.0250274
0.0247373
0.0244949
0.0243196
0.0242197
0.0241794
0.0241573
0.0240963
0.0239377
0.0236302
0.0231224
0.0223444
0.0212231
0.0195631
0.017515
0.0252347
0.024921
0.0246268
0.0243762
0.0241925
0.0240825
0.024026
0.0239771
0.0238779
0.0236742
0.0233197
0.0227836
0.0220083
0.0209894
0.0195696
0.0179277
0.0251677
0.024864
0.024579
0.0243382
0.024163
0.0240554
0.0239909
0.0239222
0.0237942
0.0235584
0.0231745
0.0226232
0.0218601
0.0209056
0.0196578
0.0182422
0.0251306
0.0248486
0.0245873
0.024373
0.0242206
0.024126
0.0240606
0.0239792
0.0238315
0.023575
0.0231758
0.0226186
0.0218705
0.0209523
0.0198016
0.0184941
0.025099
0.02485
0.0246159
0.0244309
0.0243074
0.0242346
0.0241809
0.0241016
0.0239506
0.0236898
0.02329
0.0227354
0.022
0.0210945
0.0199691
0.0186764
0.0258859
0.0255759
0.0253288