/*--------------------------------*- C++ -*----------------------------------*\
| =========                 |                                                 |
| \\      /  F ield         | foam-extend: Open Source CFD                    |
|  \\    /   O peration     | Version:     3.1                                |
|   \\  /    A nd           | Web:         http://www.extend-project.de       |
|    \\/     M anipulation  |                                                 |
\*---------------------------------------------------------------------------*/
FoamFile
{
    version     2.0;
    format      ascii;
    class       surfaceScalarField;
    location    "2.2";
    object      phi;
}
// * * * * * * * * * * * * * * * * * * * * * * * * * * * * * * * * * * * * * //

dimensions      [0 3 -1 0 0 0 0];

internalField   nonuniform List<scalar> 
41600
(
1.18165e-05
7.75108e-09
-1.07686e-06
1.06343e-06
1.16153e-05
2.10364e-07
-2.21948e-06
2.2103e-06
1.13317e-05
2.81548e-07
-3.16947e-06
3.1715e-06
1.11241e-05
2.05691e-07
-4.05508e-06
4.057e-06
1.10826e-05
5.73512e-08
-4.86043e-06
4.84452e-06
1.12192e-05
-8.73457e-08
-5.57226e-06
5.52302e-06
1.148e-05
-1.73765e-07
-6.21499e-06
6.12799e-06
1.17816e-05
-1.80803e-07
-6.85019e-06
6.72934e-06
1.2047e-05
-1.22268e-07
-7.57285e-06
7.42977e-06
1.22292e-05
-3.59703e-08
-8.50834e-06
8.36209e-06
1.23317e-05
1.32754e-08
-9.81205e-06
9.69626e-06
1.23942e-05
-4.46108e-08
-1.16799e-05
1.16621e-05
1.24369e-05
-2.99142e-07
-1.43298e-05
1.45863e-05
1.21375e-05
-7.48634e-07
-1.78123e-05
1.88603e-05
9.75019e-06
-9.52978e-07
-2.09926e-05
2.43329e-05
4.03018e-08
-1.72301e-05
2.67214e-05
3.30364e-05
9.48811e-08
-1.25058e-06
1.27342e-06
3.27324e-05
4.20542e-07
-3.46792e-06
3.56177e-06
3.23433e-05
4.85451e-07
-5.76362e-06
5.94884e-06
3.20515e-05
2.41589e-07
-8.09891e-06
8.35476e-06
3.1984e-05
-1.38163e-07
-1.0294e-05
1.0557e-05
3.21801e-05
-5.05993e-07
-1.2198e-05
1.24206e-05
3.25526e-05
-6.96542e-07
-1.37832e-05
1.39335e-05
3.29448e-05
-6.46364e-07
-1.5143e-05
1.52164e-05
3.31857e-05
-3.79487e-07
-1.64757e-05
1.6492e-05
3.31339e-05
1.52856e-08
-1.80635e-05
1.80641e-05
3.26853e-05
4.11318e-07
-2.02597e-05
2.03102e-05
3.17439e-05
6.6824e-07
-2.34825e-05
2.3711e-05
3.00705e-05
6.35968e-07
-2.8187e-05
2.89253e-05
2.67452e-05
2.37731e-07
-3.44208e-05
3.67597e-05
1.8938e-05
-2.1037e-07
-3.95305e-05
4.65951e-05
3.21961e-07
-2.99871e-05
4.79838e-05
5.14025e-05
9.71618e-08
-9.48893e-07
9.78187e-07
5.11796e-05
5.00477e-07
-3.02663e-06
3.16959e-06
5.07655e-05
5.80735e-07
-5.59372e-06
5.91256e-06
5.02625e-05
2.61606e-07
-8.60053e-06
9.08348e-06
4.98371e-05
-2.96425e-07
-1.1732e-05
1.23157e-05
4.95873e-05
-8.41768e-07
-1.46569e-05
1.52425e-05
4.95053e-05
-1.12527e-06
-1.71619e-05
1.76727e-05
4.94709e-05
-1.01352e-06
-1.92206e-05
1.96222e-05
4.92945e-05
-5.05792e-07
-2.09986e-05
2.13012e-05
4.87632e-05
2.94439e-07
-2.28277e-05
2.30799e-05
4.76591e-05
1.22879e-06
-2.51648e-05
2.54514e-05
4.57221e-05
2.12902e-06
-2.85765e-05
2.90527e-05
4.24923e-05
2.82332e-06
-3.37146e-05
3.47571e-05
3.66344e-05
3.14304e-06
-4.08776e-05
4.38303e-05
2.47911e-05
2.7642e-06
-4.70272e-05
5.58959e-05
1.45317e-06
-3.55266e-05
5.79806e-05
6.67047e-05
4.93528e-08
-7.29271e-07
7.46146e-07
6.65852e-05
5.07308e-07
-2.32238e-06
2.435e-06
6.618e-05
6.63343e-07
-4.498e-06
4.82061e-06
6.54611e-05
3.99271e-07
-7.42019e-06
8.00142e-06
6.4532e-05
-1.47377e-07
-1.08728e-05
1.16529e-05
6.35545e-05
-7.24195e-07
-1.44404e-05
1.53003e-05
6.26411e-05
-1.02674e-06
-1.77228e-05
1.85377e-05
6.17915e-05
-8.53962e-07
-2.04915e-05
2.11815e-05
6.08859e-05
-1.49882e-07
-2.27698e-05
2.33195e-05
5.9708e-05
1.01761e-06
-2.48378e-05
2.52925e-05
5.79801e-05
2.50213e-06
-2.71823e-05
2.76368e-05
5.53217e-05
4.15919e-06
-3.04579e-05
3.10861e-05
5.11229e-05
5.84236e-06
-3.54654e-05
3.66452e-05
4.37152e-05
7.39649e-06
-4.28472e-05
4.60015e-05
2.91813e-05
7.7364e-06
-4.9751e-05
5.93127e-05
3.99e-06
-3.80725e-05
6.28187e-05
7.8911e-05
-6.105e-09
-6.16881e-07
6.2685e-07
7.88595e-05
4.99615e-07
-1.84657e-06
1.90581e-06
7.8504e-05
7.69556e-07
-3.5268e-06
3.77603e-06
7.76684e-05
6.90332e-07
-6.03024e-06
6.57481e-06
7.63542e-05
3.31943e-07
-9.34749e-06
1.01823e-05
7.47041e-05
-7.90647e-08
-1.31371e-05
1.41421e-05
7.29202e-05
-2.55837e-07
-1.69066e-05
1.79196e-05
7.11422e-05
3.2521e-08
-2.02447e-05
2.11362e-05
6.93721e-05
8.97823e-07
-2.29968e-05
2.37192e-05
6.74706e-05
2.33804e-06
-2.53246e-05
2.59056e-05
6.5165e-05
4.26895e-06
-2.76885e-05
2.82273e-05
6.20128e-05
6.62723e-06
-3.07799e-05
3.14641e-05
5.73115e-05
9.34496e-06
-3.54837e-05
3.66824e-05
4.91142e-05
1.24634e-05
-4.27617e-05
4.58921e-05
3.28194e-05
1.43365e-05
-5.01368e-05
5.98315e-05
8.19957e-06
-3.88484e-05
6.47789e-05
8.80396e-05
-4.18125e-08
-5.53291e-07
5.58754e-07
8.8018e-05
5.02841e-07
-1.58222e-06
1.60058e-06
8.77221e-05
8.96941e-07
-2.90204e-06
3.07055e-06
8.6885e-05
1.05956e-06
-4.97967e-06
5.44755e-06
8.53835e-05
1.02367e-06
-7.99267e-06
8.80244e-06
8.33041e-05
9.46148e-07
-1.17276e-05
1.27818e-05
8.08734e-05
1.05386e-06
-1.56968e-05
1.68177e-05
7.8332e-05
1.55185e-06
-1.93777e-05
2.03998e-05
7.58183e-05
2.58017e-06
-2.2457e-05
2.32884e-05
7.33004e-05
4.20477e-06
-2.49743e-05
2.56254e-05
7.05696e-05
6.43455e-06
-2.732e-05
2.78851e-05
6.71807e-05
9.34484e-06
-3.01791e-05
3.08505e-05
6.23982e-05
1.2994e-05
-3.445e-05
3.55834e-05
5.40706e-05
1.78513e-05
-4.13485e-05
4.42882e-05
3.66144e-05
2.23582e-05
-4.89189e-05
5.83534e-05
1.48409e-05
-3.81901e-05
6.46572e-05
9.41143e-05
-5.54793e-08
-5.08708e-07
5.13271e-07
9.41011e-05
5.21012e-07
-1.42498e-06
1.42002e-06
9.38606e-05
1.02721e-06
-2.52738e-06
2.63768e-06
9.30812e-05
1.44404e-06
-4.29801e-06
4.69285e-06
9.15558e-05
1.78992e-06
-7.01946e-06
7.77866e-06
8.93017e-05
2.14715e-06
-1.05895e-05
1.16426e-05
8.65409e-05
2.64695e-06
-1.45614e-05
1.57291e-05
8.35716e-05
3.43119e-06
-1.83662e-05
1.94562e-05
8.06314e-05
4.62694e-06
-2.1586e-05
2.24795e-05
7.78e-05
6.35176e-06
-2.41512e-05
2.48357e-05
7.49645e-05
8.71198e-06
-2.6373e-05
2.6931e-05
7.17441e-05
1.19537e-05
-2.8891e-05
2.95026e-05
6.7438e-05
1.6302e-05
-3.25409e-05
3.3539e-05
5.98894e-05
2.28483e-05
-3.86701e-05
4.12218e-05
4.2138e-05
3.14242e-05
-4.61098e-05
5.47953e-05
2.62117e-05
-3.58686e-05
6.22948e-05
9.71454e-05
-4.71953e-07
4.7549e-07
-5.12155e-08
9.71409e-05
-1.31158e-06
1.29501e-06
5.42091e-07
9.69506e-05
-2.28896e-06
2.36778e-06
1.1387e-06
9.62504e-05
-3.87674e-06
4.22675e-06
1.79421e-06
9.4796e-05
-6.39564e-06
7.11568e-06
2.52427e-06
9.25687e-05
-9.79899e-06
1.08357e-05
3.33778e-06
8.97796e-05
-1.3671e-05
1.48483e-05
4.25873e-06
8.67556e-05
-1.74288e-05
1.85441e-05
5.33984e-06
8.37954e-05
-2.06036e-05
2.15214e-05
6.66934e-06
8.10692e-05
-2.30545e-05
2.37451e-05
8.38743e-06
7.85724e-05
-2.50186e-05
2.55505e-05
1.06769e-05
7.60954e-05
-2.70515e-05
2.75729e-05
1.39092e-05
7.31255e-05
-2.98534e-05
3.06526e-05
1.84726e-05
6.79901e-05
-3.46122e-05
3.64835e-05
2.61124e-05
5.31664e-05
-4.14258e-05
4.82864e-05
3.93873e-05
-3.1158e-05
5.51692e-05
5.02081e-05
1.26181e-05
-1.54681e-08
-1.04092e-06
1.23586e-05
1.68283e-07
-2.12828e-06
1.19814e-05
2.32686e-07
-3.02493e-06
1.16468e-05
1.47901e-07
-3.86836e-06
1.14519e-05
-1.64346e-08
-4.64913e-06
1.14115e-05
-1.79707e-07
-5.35215e-06
1.14693e-05
-2.8005e-07
-5.9927e-06
1.15307e-05
-2.91927e-07
-6.61967e-06
1.14988e-05
-2.28827e-07
-7.31218e-06
1.12991e-05
-1.34746e-07
-8.17388e-06
1.08891e-05
-7.61284e-08
-9.32595e-06
1.024e-05
-1.34558e-07
-1.08961e-05
9.26507e-06
-3.90564e-07
-1.29644e-05
7.62172e-06
-8.43908e-07
-1.53251e-05
4.51459e-06
-1.28915e-06
-1.65963e-05
-1.18552e-06
-1.17876e-05
3.5322e-05
5.9313e-08
-1.17786e-06
3.49153e-05
3.51683e-07
-3.24461e-06
3.43572e-05
3.92407e-07
-5.36517e-06
3.38159e-05
1.29395e-07
-7.53917e-06
3.34351e-05
-3.13803e-07
-9.6158e-06
3.32534e-05
-7.39274e-07
-1.14567e-05
3.31828e-05
-9.73905e-07
-1.30187e-05
3.30509e-05
-9.37045e-07
-1.43659e-05
3.26551e-05
-6.48683e-07
-1.56601e-05
3.18028e-05
-2.06251e-07
-1.71397e-05
3.03194e-05
2.41409e-07
-1.90938e-05
2.79975e-05
5.32508e-07
-2.18276e-05
2.44663e-05
4.96353e-07
-2.55427e-05
1.89382e-05
3.67125e-08
-2.97733e-05
1.02889e-05
-7.8033e-07
-3.13901e-05
-1.21294e-06
-2.04292e-05
5.49769e-05
5.7647e-08
-8.85232e-07
5.46616e-05
4.30733e-07
-2.79034e-06
5.40808e-05
4.8933e-07
-5.10984e-06
5.33195e-05
1.34214e-07
-7.8441e-06
5.25235e-05
-5.03266e-07
-1.07465e-05
5.1794e-05
-1.14496e-06
-1.35218e-05
5.11254e-05
-1.51032e-06
-1.59568e-05
5.03911e-05
-1.4309e-06
-1.79926e-05
4.93762e-05
-8.88763e-07
-1.97436e-05
4.78174e-05
5.46381e-09
-2.14806e-05
4.5409e-05
1.06937e-06
-2.35843e-05
4.17591e-05
2.09582e-06
-2.64899e-05
3.62339e-05
2.87368e-06
-3.05668e-05
2.76757e-05
3.15238e-06
-3.54351e-05
1.47176e-05
2.45147e-06
-3.7301e-05
5.3221e-07
-2.3883e-05
7.13496e-05
8.40077e-09
-6.82913e-07
7.11533e-05
4.47416e-07
-2.14273e-06
7.06206e-05
5.96096e-07
-4.07204e-06
6.96867e-05
3.12782e-07
-6.66486e-06
6.84116e-05
-3.10623e-07
-9.79036e-06
6.69304e-05
-9.9325e-07
-1.31109e-05
6.53517e-05
-1.39829e-06
-1.62562e-05
6.36808e-05
-1.27518e-06
-1.89763e-05
6.17909e-05
-5.31919e-07
-2.12367e-05
5.94302e-05
7.68297e-07
-2.32399e-05
5.62335e-05
2.46614e-06
-2.53823e-05
5.16722e-05
4.37919e-06
-2.818e-05
4.49096e-05
6.3255e-06
-3.21547e-05
3.4391e-05
8.00255e-06
-3.71788e-05
1.83468e-05
8.09902e-06
-3.93543e-05
4.03582e-06
-2.52552e-05
8.44077e-05
-4.37787e-08
-5.79383e-07
8.42828e-05
4.51471e-07
-1.72575e-06
8.38287e-05
7.28065e-07
-3.20468e-06
8.2841e-05
6.45876e-07
-5.37555e-06
8.12481e-05
2.44668e-07
-8.30992e-06
7.91345e-05
-2.48114e-07
-1.17687e-05
7.66716e-05
-5.1328e-07
-1.53287e-05
7.40008e-05
-2.68015e-07
-1.8581e-05
7.11418e-05
6.45001e-07
-2.13147e-05
6.79379e-05
2.25133e-06
-2.36037e-05
6.40491e-05
4.46894e-06
-2.58025e-05
5.88832e-05
7.21941e-06
-2.84542e-05
5.1472e-05
1.04336e-05
-3.21806e-05
3.98712e-05
1.39768e-05
-3.71352e-05
2.16416e-05
1.57614e-05
-3.95696e-05
9.4902e-06
-2.54632e-05
9.41754e-05
-7.27262e-08
-5.21995e-07
9.40754e-05
4.68582e-07
-1.49934e-06
9.36922e-05
8.77824e-07
-2.66863e-06
9.27469e-05
1.05401e-06
-4.44249e-06
9.10427e-05
1.00872e-06
-7.05247e-06
8.85734e-05
8.93814e-07
-1.04003e-05
8.55037e-05
9.58582e-07
-1.4099e-05
8.20607e-05
1.45182e-06
-1.76545e-05
7.84022e-05
2.55698e-06
-2.07106e-05
7.45116e-05
4.3811e-06
-2.32134e-05
7.01379e-05
6.9585e-06
-2.54358e-05
6.47003e-05
1.03835e-05
-2.79057e-05
5.71914e-05
1.47743e-05
-3.12817e-05
4.53051e-05
2.04979e-05
-3.59832e-05
2.54422e-05
2.52965e-05
-3.85911e-05
1.78579e-05
-2.47356e-05
0.000100679
-8.13083e-08
-4.7801e-07
0.000100581
5.03713e-07
-1.36197e-06
0.000100253
1.02919e-06
-2.35151e-06
9.93921e-05
1.46806e-06
-3.85085e-06
9.77227e-05
1.83097e-06
-6.17229e-06
9.51542e-05
2.20001e-06
-9.32714e-06
9.18185e-05
2.71924e-06
-1.29864e-05
8.79834e-05
3.55862e-06
-1.66379e-05
8.39057e-05
4.87971e-06
-1.98311e-05
7.96987e-05
6.84154e-06
-2.24047e-05
7.52406e-05
9.59409e-06
-2.45504e-05
7.00388e-05
1.34456e-05
-2.67513e-05
6.31652e-05
1.87399e-05
-2.96329e-05
5.21255e-05
2.67054e-05
-3.3838e-05
3.14703e-05
3.63992e-05
-3.65572e-05
3.20494e-05
-2.30374e-05
0.000103925
-4.42026e-07
-7.33917e-08
0.000103833
-1.25974e-06
5.43647e-07
0.000103557
-2.14494e-06
1.16106e-06
0.000102791
-3.48319e-06
1.8405e-06
0.00010123
-5.61145e-06
2.60728e-06
9.87452e-05
-8.59177e-06
3.47798e-06
9.5445e-05
-1.21349e-05
4.4834e-06
9.16142e-05
-1.57263e-05
5.68691e-06
8.75727e-05
-1.8877e-05
7.19455e-06
8.35396e-05
-2.13605e-05
9.18064e-06
7.9538e-05
-2.33005e-05
1.18776e-05
7.52858e-05
-2.51141e-05
1.57603e-05
7.0141e-05
-2.73305e-05
2.13618e-05
6.19777e-05
-3.06669e-05
3.09234e-05
4.40638e-05
-3.35524e-05
4.64398e-05
-2.03032e-05
5.9996e-05
1.33016e-05
-3.92559e-08
-9.55177e-07
1.29862e-05
1.28281e-07
-1.94115e-06
1.25247e-05
1.83803e-07
-2.74723e-06
1.20784e-05
8.81684e-08
-3.51018e-06
1.17493e-05
-9.40502e-08
-4.22598e-06
1.15544e-05
-2.77883e-07
-4.8794e-06
1.14352e-05
-3.95479e-07
-5.47806e-06
1.12892e-05
-4.16337e-07
-6.05728e-06
1.10067e-05
-3.52342e-07
-6.67734e-06
1.04985e-05
-2.4966e-07
-7.41607e-06
9.70692e-06
-1.77085e-07
-8.35726e-06
8.5942e-06
-2.13511e-07
-9.56991e-06
7.09808e-06
-4.24365e-07
-1.10439e-05
5.06644e-06
-8.095e-07
-1.24839e-05
2.44745e-06
-1.29589e-06
-1.26814e-05
-1.35099e-06
-8.27267e-06
3.72769e-05
2.66426e-08
-1.05981e-06
3.67763e-05
2.86928e-07
-2.9027e-06
3.60689e-05
3.02683e-07
-4.77664e-06
3.5315e-05
1.05835e-08
-6.70766e-06
3.46659e-05
-4.85957e-07
-8.57479e-06
3.41603e-05
-9.71743e-07
-1.02573e-05
3.37073e-05
-1.25667e-06
-1.17046e-05
3.31219e-05
-1.24229e-06
-1.29546e-05
3.21804e-05
-9.41735e-07
-1.41293e-05
3.06633e-05
-4.57705e-07
-1.54145e-05
2.83709e-05
4.87996e-08
-1.70273e-05
2.50922e-05
4.06237e-07
-1.91686e-05
2.05393e-05
4.51692e-07
-2.18659e-05
1.43484e-05
8.2247e-08
-2.44741e-05
6.69389e-06
-7.84369e-07
-2.42471e-05
-1.45639e-06
-1.44551e-05
5.80379e-05
2.24104e-08
-7.9009e-07
5.76372e-05
3.67055e-07
-2.46975e-06
5.69107e-05
4.05226e-07
-4.4859e-06
5.59309e-05
1.36826e-08
-6.8674e-06
5.48256e-05
-6.95747e-07
-9.43142e-06
5.36927e-05
-1.43198e-06
-1.19286e-05
5.25241e-05
-1.88433e-06
-1.41606e-05
5.11873e-05
-1.84934e-06
-1.60487e-05
4.9451e-05
-1.28801e-06
-1.7661e-05
4.70253e-05
-3.11267e-07
-1.92013e-05
4.35747e-05
8.78874e-07
-2.09638e-05
3.86916e-05
2.05298e-06
-2.32536e-05
3.1825e-05
2.98613e-06
-2.62346e-05
2.2326e-05
3.39984e-06
-2.92537e-05
1.04698e-05
2.6601e-06
-2.88893e-05
5.10066e-07
-1.67982e-05
7.53286e-05
-2.76127e-08
-6.09287e-07
7.50583e-05
3.92909e-07
-1.89833e-06
7.44101e-05
5.34652e-07
-3.55323e-06
7.32958e-05
2.31202e-07
-5.76803e-06
7.17386e-05
-4.53373e-07
-8.47553e-06
6.98445e-05
-1.23441e-06
-1.14143e-05
6.77098e-05
-1.74308e-06
-1.42628e-05
6.5339e-05
-1.68155e-06
-1.67733e-05
6.26046e-05
-9.2021e-07
-1.88701e-05
5.92414e-05
4.94121e-07
-2.06821e-05
5.48563e-05
2.38835e-06
-2.25067e-05
4.88974e-05
4.55464e-06
-2.47227e-05
4.05733e-05
6.78574e-06
-2.76302e-05
2.88403e-05
8.70438e-06
-3.07503e-05
1.37849e-05
8.8086e-06
-3.04475e-05
4.49918e-06
-1.75853e-05
8.91172e-05
-7.33477e-08
-5.19929e-07
8.89206e-05
4.08069e-07
-1.54434e-06
8.83695e-05
6.91067e-07
-2.80998e-06
8.7248e-05
6.10016e-07
-4.63292e-06
8.54331e-05
1.77011e-07
-7.12538e-06
8.29519e-05
-3.87098e-07
-1.01348e-05
7.99369e-05
-7.38881e-07
-1.33178e-05
7.65192e-05
-5.46034e-07
-1.62988e-05
7.27329e-05
3.92231e-07
-1.88409e-05
6.84243e-05
2.13739e-06
-2.09383e-05
6.32462e-05
4.60937e-06
-2.28455e-05
5.65857e-05
7.71925e-06
-2.49584e-05
4.7483e-05
1.13845e-05
-2.76767e-05
3.44463e-05
1.53568e-05
-3.07508e-05
1.70021e-05
1.72571e-05
-3.05739e-05
1.0702e-05
-1.75688e-05
9.94364e-05
-9.99428e-08
-4.66934e-07
9.92588e-05
4.3979e-07
-1.35341e-06
9.87818e-05
8.63575e-07
-2.36417e-06
9.77321e-05
1.05637e-06
-3.83912e-06
9.58662e-05
1.00929e-06
-6.0189e-06
9.30986e-05
8.66702e-07
-8.88648e-06
8.95281e-05
8.85194e-07
-1.21525e-05
8.53472e-05
1.36774e-06
-1.53874e-05
8.07241e-05
2.52753e-06
-1.82228e-05
7.56731e-05
4.5185e-06
-2.05435e-05
6.99547e-05
7.3976e-06
-2.25057e-05
6.29864e-05
1.12724e-05
-2.44905e-05
5.37495e-05
1.62865e-05
-2.69469e-05
4.02825e-05
2.27072e-05
-2.98667e-05
2.0933e-05
2.78547e-05
-2.98393e-05
2.01339e-05
-1.6956e-05
0.000106308
-1.05441e-07
-4.2602e-07
0.000106128
4.92273e-07
-1.23494e-06
0.000105704
1.03775e-06
-2.10192e-06
0.000104754
1.50078e-06
-3.34463e-06
0.000102967
1.88429e-06
-5.26027e-06
0.000100168
2.26749e-06
-7.9294e-06
9.63961e-05
2.80274e-06
-1.11318e-05
9.18705e-05
3.6863e-06
-1.44309e-05
8.68483e-05
5.1106e-06
-1.7392e-05
8.14824e-05
7.27417e-06
-1.97944e-05
7.56882e-05
1.03639e-05
-2.17225e-05
6.89938e-05
1.47291e-05
-2.35136e-05
6.04741e-05
2.07823e-05
-2.56091e-05
4.78286e-05
2.97565e-05
-2.82418e-05
2.73563e-05
4.02099e-05
-2.84401e-05
3.57104e-05
-1.58051e-05
0.000109738
-3.93243e-07
-9.28648e-08
0.000109564
-1.14501e-06
5.50835e-07
0.000109192
-1.92723e-06
1.19224e-06
0.000108347
-3.03481e-06
1.89754e-06
0.000106698
-4.7782e-06
2.69975e-06
0.000104032
-7.28001e-06
3.62234e-06
0.000100357
-1.03602e-05
4.70258e-06
9.5897e-05
-1.35937e-05
6.0138e-06
9.09692e-05
-1.65166e-05
7.67793e-06
8.58378e-05
-1.88532e-05
9.89826e-06
8.05853e-05
-2.06308e-05
1.29466e-05
7.49699e-05
-2.21352e-05
1.73657e-05
6.83978e-05
-2.3751e-05
2.37749e-05
5.87876e-05
-2.58807e-05
3.45806e-05
4.07048e-05
-2.65605e-05
5.13007e-05
-1.41137e-05
6.48636e-05
1.38683e-05
-6.04266e-08
-8.23698e-07
1.35015e-05
9.27442e-08
-1.6671e-06
1.29659e-05
1.39646e-07
-2.35124e-06
1.24238e-05
3.26876e-08
-3.00076e-06
1.19811e-05
-1.67033e-07
-3.61624e-06
1.16568e-05
-3.71412e-07
-4.18373e-06
1.13914e-05
-5.07471e-07
-4.70521e-06
1.10776e-05
-5.39538e-07
-5.20388e-06
1.05994e-05
-4.77052e-07
-5.72213e-06
9.86348e-06
-3.66071e-07
-6.31406e-06
8.81403e-06
-2.75522e-07
-7.03229e-06
7.43072e-06
-2.79745e-07
-7.90686e-06
5.70373e-06
-4.28136e-07
-8.88877e-06
3.63939e-06
-7.23399e-07
-9.69617e-06
1.52444e-06
-1.15572e-06
-9.41077e-06
-1.2196e-06
-5.8291e-06
3.89031e-05
-2.72796e-09
-9.00442e-07
3.83188e-05
2.31002e-07
-2.45667e-06
3.74813e-05
2.28099e-07
-4.02754e-06
3.65494e-05
-9.6217e-08
-5.64683e-06
3.56766e-05
-6.40789e-07
-7.22821e-06
3.49027e-05
-1.18419e-06
-8.67068e-06
3.41344e-05
-1.52012e-06
-9.92353e-06
3.31779e-05
-1.53297e-06
-1.10047e-05
3.17982e-05
-1.22708e-06
-1.19995e-05
2.97675e-05
-7.06179e-07
-1.30438e-05
2.68879e-05
-1.32436e-07
-1.42908e-05
2.29956e-05
3.02321e-07
-1.58584e-05
1.79284e-05
4.68278e-07
-1.76951e-05
1.16676e-05
2.46155e-07
-1.91828e-05
4.9837e-06
-5.15084e-07
-1.82038e-05
-1.27606e-06
-1.02846e-05
6.05866e-05
-8.99917e-09
-6.66712e-07
6.01093e-05
3.11524e-07
-2.07288e-06
5.9258e-05
3.32481e-07
-3.73898e-06
5.80947e-05
-9.04128e-08
-5.70996e-06
5.67357e-05
-8.61973e-07
-7.85124e-06
5.52728e-05
-1.68432e-06
-9.96562e-06
5.36946e-05
-2.22076e-06
-1.18818e-05
5.18639e-05
-2.23518e-06
-1.35158e-05
4.95415e-05
-1.66613e-06
-1.48995e-05
4.64293e-05
-6.19504e-07
-1.61758e-05
4.22005e-05
6.89968e-07
-1.75573e-05
3.64831e-05
2.01695e-06
-1.92509e-05
2.8881e-05
3.13482e-06
-2.12989e-05
1.9167e-05
3.74382e-06
-2.30374e-05
8.43468e-06
3.10029e-06
-2.17723e-05
8.14142e-07
-1.19357e-05
7.86423e-05
-5.57008e-08
-5.14794e-07
7.83055e-05
3.45572e-07
-1.59558e-06
7.75546e-05
4.81851e-07
-2.95169e-06
7.62882e-05
1.63815e-07
-4.75595e-06
7.45023e-05
-5.70072e-07
-6.98152e-06
7.22767e-05
-1.43674e-06
-9.43628e-06
6.96926e-05
-2.0417e-06
-1.18577e-05
6.67516e-05
-2.04521e-06
-1.40223e-05
6.33303e-05
-1.28113e-06
-1.58339e-05
5.91668e-05
2.27151e-07
-1.73652e-05
5.38775e-05
2.29471e-06
-1.88221e-05
4.69473e-05
4.69528e-06
-2.04709e-05
3.77211e-05
7.20103e-06
-2.24702e-05
2.56074e-05
9.37902e-06
-2.42718e-05
1.16317e-05
9.58839e-06
-2.29599e-05
5.08269e-06
-1.24243e-05
9.30424e-05
-9.859e-08
-4.40336e-07
9.278e-05
3.71071e-07
-1.30747e-06
9.21375e-05
6.59789e-07
-2.34538e-06
9.08978e-05
5.83075e-07
-3.81252e-06
8.89033e-05
1.28431e-07
-5.82932e-06
8.61335e-05
-4.94026e-07
-8.30782e-06
8.26816e-05
-9.2258e-07
-1.0985e-05
7.86625e-05
-7.8534e-07
-1.35396e-05
7.41295e-05
1.45693e-07
-1.57347e-05
6.89348e-05
2.01742e-06
-1.75339e-05
6.27665e-05
4.70358e-06
-1.90861e-05
5.50505e-05
8.12331e-06
-2.06704e-05
4.49383e-05
1.21716e-05
-2.25352e-05
3.13667e-05
1.65095e-05
-2.43096e-05
1.48728e-05
1.8563e-05
-2.30547e-05
1.1744e-05
-1.23458e-05
0.000103822
-1.23038e-07
-3.93739e-07
0.000103575
4.16522e-07
-1.15162e-06
0.000103007
8.53304e-07
-1.98945e-06
0.000101857
1.06364e-06
-3.16996e-06
9.98567e-05
1.02075e-06
-4.91103e-06
9.68608e-05
8.5775e-07
-7.24234e-06
9.29031e-05
8.4462e-07
-9.96193e-06
8.81443e-05
1.30341e-06
-1.27174e-05
8.27451e-05
2.49777e-06
-1.51757e-05
7.67681e-05
4.62255e-06
-1.71716e-05
7.00106e-05
7.74904e-06
-1.87936e-05
6.19475e-05
1.19932e-05
-2.02973e-05
5.16527e-05
1.74981e-05
-2.19785e-05
3.75306e-05
2.44332e-05
-2.36683e-05
1.89451e-05
2.98472e-05
-2.25379e-05
2.181e-05
-1.18859e-05
0.000111
-1.25636e-07
-3.582e-07
0.00011075
4.85073e-07
-1.05308e-06
0.000110232
1.04949e-06
-1.77999e-06
0.000109189
1.53628e-06
-2.77475e-06
0.000107299
1.94209e-06
-4.29155e-06
0.000104326
2.34115e-06
-6.43948e-06
0.00010023
2.89193e-06
-9.08297e-06
9.5172e-05
3.80858e-06
-1.18784e-05
8.94023e-05
5.31363e-06
-1.44382e-05
8.3113e-05
7.63922e-06
-1.65218e-05
7.62797e-05
1.1001e-05
-1.81411e-05
6.85032e-05
1.57728e-05
-1.95168e-05
5.89483e-05
2.23948e-05
-2.09508e-05
4.55829e-05
3.20477e-05
-2.24909e-05
2.56368e-05
4.29589e-05
-2.16058e-05
3.81282e-05
-1.11239e-05
0.000114583
-3.30104e-07
-1.09414e-07
0.00011434
-9.77401e-07
5.60594e-07
0.000113874
-1.63778e-06
1.22609e-06
0.000112944
-2.52494e-06
1.95691e-06
0.000111214
-3.89811e-06
2.7921e-06
0.000108413
-5.89865e-06
3.76056e-06
0.000104467
-8.42801e-06
4.90519e-06
9.95329e-05
-1.1158e-05
6.30736e-06
9.39119e-05
-1.36839e-05
8.10192e-06
8.7907e-05
-1.5724e-05
1.05149e-05
8.16723e-05
-1.72414e-05
1.38463e-05
7.50485e-05
-1.84185e-05
1.86799e-05
6.75419e-05
-1.95258e-05
2.56761e-05
5.72242e-05
-2.07928e-05
3.72775e-05
3.93853e-05
-2.04356e-05
5.46729e-05
-1.00348e-05
6.79801e-05
1.43194e-05
-7.72603e-08
-6.53419e-07
1.39082e-05
6.28541e-08
-1.3188e-06
1.33108e-05
1.00978e-07
-1.85476e-06
1.26898e-05
-1.47798e-08
-2.36505e-06
1.21551e-05
-2.29721e-07
-2.85178e-06
1.17277e-05
-4.52731e-07
-3.3036e-06
1.13481e-05
-6.06238e-07
-3.71932e-06
1.09066e-05
-6.49714e-07
-4.11275e-06
1.02855e-05
-5.89681e-07
-4.51132e-06
9.39311e-06
-4.71859e-07
-4.9498e-06
8.18246e-06
-3.62642e-07
-5.45899e-06
6.65539e-06
-3.3241e-07
-6.04739e-06
4.84638e-06
-4.19028e-07
-6.66073e-06
2.85498e-06
-6.28064e-07
-7.0767e-06
1.09036e-06
-9.87119e-07
-6.65904e-06
-1.05198e-06
-3.9984e-06
4.02021e-05
-2.59137e-08
-7.06166e-07
3.95461e-05
1.84754e-07
-1.92258e-06
3.86027e-05
1.57509e-07
-3.14068e-06
3.75251e-05
-1.84538e-07
-4.39946e-06
3.6473e-05
-7.70006e-07
-5.63585e-06
3.54867e-05
-1.36389e-06
-6.7732e-06
3.4471e-05
-1.7465e-06
-7.76757e-06
3.32275e-05
-1.78674e-06
-8.62416e-06
3.15159e-05
-1.47949e-06
-9.39812e-06
2.9111e-05
-9.29027e-07
-1.01817e-05
2.58319e-05
-2.98076e-07
-1.10763e-05
2.15664e-05
2.22332e-07
-1.21476e-05
1.62629e-05
5.11337e-07
-1.3322e-05
1.01158e-05
4.42483e-07
-1.41063e-05
4.11908e-06
-1.84213e-07
-1.301e-05
-1.0059e-06
-7.11111e-06
6.26242e-05
-3.21474e-08
-5.21028e-07
6.20832e-05
2.66053e-07
-1.61319e-06
6.11265e-05
2.71307e-07
-2.89606e-06
5.98153e-05
-1.74402e-07
-4.4089e-06
5.82549e-05
-9.96327e-07
-6.06446e-06
5.65326e-05
-1.89154e-06
-7.71572e-06
5.46339e-05
-2.50237e-06
-9.22718e-06
5.24187e-05
-2.56434e-06
-1.0523e-05
4.96463e-05
-1.99447e-06
-1.16122e-05
4.60214e-05
-8.9202e-07
-1.25879e-05
4.12387e-05
5.20397e-07
-1.35931e-05
3.49827e-05
1.98914e-06
-1.47617e-05
2.69942e-05
3.28431e-06
-1.60835e-05
1.73219e-05
4.08808e-06
-1.70106e-05
7.39163e-06
3.57491e-06
-1.56012e-05
1.1828e-06
-8.25934e-06
8.12926e-05
-7.62404e-08
-4.02991e-07
8.08995e-05
3.06979e-07
-1.24333e-06
8.0061e-05
4.37895e-07
-2.27979e-06
7.86702e-05
1.11206e-07
-3.65083e-06
7.67036e-05
-6.60069e-07
-5.35117e-06
7.42204e-05
-1.59642e-06
-7.24821e-06
7.12882e-05
-2.28407e-06
-9.14377e-06
6.79051e-05
-2.3477e-06
-1.08558e-05
6.39526e-05
-1.58545e-06
-1.22904e-05
5.9185e-05
-8.56248e-09
-1.34811e-05
5.32402e-05
2.20217e-06
-1.45591e-05
4.56611e-05
4.80258e-06
-1.57052e-05
3.59265e-05
7.5465e-06
-1.69978e-05
2.37489e-05
9.95803e-06
-1.79641e-05
1.05502e-05
1.02967e-05
-1.6483e-05
5.62756e-06
-8.57736e-06
9.61836e-05
-1.18514e-07
-3.44047e-07
9.58654e-05
3.41261e-07
-1.0235e-06
9.51423e-05
6.34857e-07
-1.81928e-06
9.38019e-05
5.63785e-07
-2.9247e-06
9.16641e-05
9.57803e-08
-4.44728e-06
8.8673e-05
-5.71542e-07
-6.34165e-06
8.48884e-05
-1.06462e-06
-8.41989e-06
8.04119e-05
-9.79684e-07
-1.04311e-05
7.52969e-05
-3.27469e-08
-1.21725e-05
6.94325e-05
1.9044e-06
-1.35824e-05
6.25392e-05
4.7627e-06
-1.47533e-05
5.41038e-05
8.43239e-06
-1.58648e-05
4.3398e-05
1.27857e-05
-1.70685e-05
2.96533e-05
1.74147e-05
-1.80215e-05
1.38434e-05
1.9617e-05
-1.65651e-05
1.25745e-05
-8.50248e-06
0.000107332
-1.4153e-07
-3.06665e-07
0.000107027
3.98596e-07
-9.03995e-07
0.000106378
8.46219e-07
-1.55189e-06
0.000105138
1.07291e-06
-2.43948e-06
0.000103027
1.03758e-06
-3.74172e-06
9.98572e-05
8.61649e-07
-5.50578e-06
9.56106e-05
8.20033e-07
-7.59994e-06
9.04117e-05
1.25966e-06
-9.75786e-06
8.44292e-05
2.47888e-06
-1.17047e-05
7.77461e-05
4.69892e-06
-1.32831e-05
7.02216e-05
8.01649e-06
-1.45229e-05
6.13999e-05
1.25463e-05
-1.55894e-05
5.04623e-05
1.84179e-05
-1.66733e-05
3.60721e-05
2.57218e-05
-1.75851e-05
1.80369e-05
3.13393e-05
-1.62251e-05
2.30311e-05
-8.18505e-06
0.000114755
-1.4189e-07
-2.78472e-07
0.000114447
4.80881e-07
-8.27436e-07
0.000113846
1.06179e-06
-1.39443e-06
0.000112718
1.56997e-06
-2.14364e-06
0.000110738
1.99716e-06
-3.27145e-06
0.000107632
2.41213e-06
-4.88413e-06
0.000103299
2.97641e-06
-6.9059e-06
9.78473e-05
3.91845e-06
-9.08575e-06
9.15158e-05
5.48427e-06
-1.11121e-05
8.4527e-05
7.93231e-06
-1.27664e-05
7.69217e-05
1.15008e-05
-1.40201e-05
6.83833e-05
1.65771e-05
-1.50092e-05
5.81788e-05
2.36054e-05
-1.59338e-05
4.44763e-05
3.37097e-05
-1.67763e-05
2.49175e-05
4.49195e-05
-1.56273e-05
3.98081e-05
-7.69551e-06
0.000118461
-2.56335e-07
-1.22664e-07
0.000118162
-7.68242e-07
5.70723e-07
0.000117614
-1.28592e-06
1.25807e-06
0.000116602
-1.95512e-06
2.01193e-06
0.000114797
-2.97258e-06
2.87598e-06
0.000111895
-4.46733e-06
3.88321e-06
0.000107756
-6.39368e-06
5.08072e-06
0.000102477
-8.51666e-06
6.55605e-06
9.63396e-05
-1.05157e-05
8.4539e-06
8.96743e-05
-1.2143e-05
1.10165e-05
8.27038e-05
-1.33328e-05
1.45626e-05
7.53554e-05
-1.41934e-05
1.97003e-05
6.72377e-05
-1.49072e-05
2.71046e-05
5.65494e-05
-1.56112e-05
3.92163e-05
3.89197e-05
-1.49094e-05
5.70231e-05
-6.99244e-06
7.01524e-05
1.4656e-05
-8.97102e-08
-4.52495e-07
1.42097e-05
3.96335e-08
-9.12195e-07
1.35638e-05
7.16324e-08
-1.2805e-06
1.28827e-05
-5.232e-08
-1.63157e-06
1.22785e-05
-2.79722e-07
-1.96788e-06
1.17745e-05
-5.18177e-07
-2.28141e-06
1.13117e-05
-6.86529e-07
-2.57e-06
1.078e-05
-7.40149e-07
-2.84095e-06
1.00617e-05
-6.8284e-07
-3.11017e-06
9.06892e-06
-5.59256e-07
-3.39775e-06
7.76468e-06
-4.3475e-07
-3.72e-06
6.16828e-06
-3.73792e-07
-4.0772e-06
4.34327e-06
-4.0918e-07
-4.42654e-06
2.43536e-06
-5.49443e-07
-4.61934e-06
8.89599e-07
-8.53057e-07
-4.26022e-06
-9.15484e-07
-2.5123e-06
4.11742e-05
-4.19236e-08
-4.84834e-07
4.04631e-05
1.483e-07
-1.32011e-06
3.94361e-05
1.08622e-07
-2.15064e-06
3.82484e-05
-2.52712e-07
-3.01142e-06
3.70619e-05
-8.69729e-07
-3.85937e-06
3.59182e-05
-1.50405e-06
-4.6436e-06
3.47214e-05
-1.92524e-06
-5.3321e-06
3.32708e-05
-1.98953e-06
-5.9241e-06
3.13249e-05
-1.68336e-06
-6.45168e-06
2.86645e-05
-1.10966e-06
-6.9709e-06
2.51287e-05
-4.32598e-07
-7.54267e-06
2.06476e-05
1.61991e-07
-8.2023e-06
1.52471e-05
5.55323e-07
-8.88593e-06
9.23298e-06
6.17796e-07
-9.25944e-06
3.69033e-06
5.86713e-08
-8.3791e-06
-7.61929e-07
-4.49391e-06
6.41514e-05
-4.83631e-08
-3.57296e-07
6.3559e-05
2.31639e-07
-1.10417e-06
6.25228e-05
2.25122e-07
-1.97637e-06
6.10981e-05
-2.36836e-07
-3.00003e-06
5.9387e-05
-1.09679e-06
-4.12633e-06
5.74733e-05
-2.0487e-06
-5.25734e-06
5.53397e-05
-2.71944e-06
-6.29944e-06
5.2845e-05
-2.82197e-06
-7.19582e-06
4.97494e-05
-2.255e-06
-7.94488e-06
4.57661e-05
-1.11331e-06
-8.601e-06
4.06112e-05
3.82434e-07
-9.2532e-06
3.40222e-05
1.96695e-06
-9.97773e-06
2.58393e-05
3.4085e-06
-1.07537e-05
1.6276e-05
4.37383e-06
-1.12033e-05
6.84998e-06
3.97072e-06
-1.00873e-05
1.50223e-06
-5.23067e-06
8.32803e-05
-9.19077e-08
-2.76641e-07
8.28427e-05
2.77414e-07
-8.51543e-07
8.19344e-05
4.06059e-07
-1.5524e-06
8.04481e-05
7.32192e-08
-2.47458e-06
7.83464e-05
-7.24399e-07
-3.62187e-06
7.56743e-05
-1.71319e-06
-4.91162e-06
7.24885e-05
-2.46583e-06
-6.21163e-06
6.87842e-05
-2.57958e-06
-7.39392e-06
6.44478e-05
-1.82404e-06
-8.38487e-06
5.9254e-05
-2.07069e-07
-9.19352e-06
5.28596e-05
2.12247e-06
-9.90472e-06
4.48648e-05
4.87776e-06
-1.06212e-05
3.48494e-05
7.80789e-06
-1.13818e-05
2.27076e-05
1.04051e-05
-1.18536e-05
1.00076e-05
1.08581e-05
-1.06704e-05
6.06171e-06
-5.42767e-06
9.85398e-05
-1.33648e-07
-2.35504e-07
9.81776e-05
3.18904e-07
-7.02813e-07
9.73904e-05
6.16233e-07
-1.2422e-06
9.59697e-05
5.51142e-07
-1.98201e-06
9.37233e-05
7.576e-08
-3.00096e-06
9.05708e-05
-6.23573e-07
-4.27885e-06
8.6547e-05
-1.16619e-06
-5.69564e-06
8.17405e-05
-1.12421e-06
-7.08008e-06
7.6209e-05
-1.79894e-07
-8.28503e-06
6.98651e-05
1.81029e-06
-9.25585e-06
6.24709e-05
4.79668e-06
-1.00334e-05
5.35648e-05
8.6527e-06
-1.07336e-05
4.25141e-05
1.32315e-05
-1.14414e-05
2.87286e-05
1.80768e-05
-1.19077e-05
1.3353e-05
2.04021e-05
-1.07336e-05
1.31877e-05
-5.37593e-06
0.000109964
-1.55397e-07
-2.09441e-07
0.000109615
3.85668e-07
-6.21638e-07
0.000108901
8.4168e-07
-1.06367e-06
0.000107588
1.08211e-06
-1.65714e-06
0.00010539
1.05516e-06
-2.52318e-06
0.000102093
8.72051e-07
-3.70474e-06
9.76416e-05
8.09394e-07
-5.12405e-06
9.21308e-05
1.2326e-06
-6.60386e-06
8.57306e-05
2.4652e-06
-7.94971e-06
7.85451e-05
4.75208e-06
-9.03938e-06
7.0486e-05
8.20726e-06
-9.87435e-06
6.11597e-05
1.29429e-05
-1.05533e-05
4.9835e-05
1.90732e-05
-1.11902e-05
3.53336e-05
2.66321e-05
-1.16391e-05
1.76397e-05
3.2401e-05
-1.05301e-05
2.38885e-05
-5.17859e-06
0.000117571
-1.54084e-07
-1.89915e-07
0.00011722
4.78696e-07
-5.69202e-07
0.000116553
1.07276e-06
-9.58317e-07
0.000115353
1.59839e-06
-1.4602e-06
0.0001133
2.04379e-06
-2.20743e-06
0.000110097
2.47292e-06
-3.28173e-06
0.000105597
3.04836e-06
-4.64531e-06
9.98709e-05
4.00878e-06
-6.13532e-06
9.31418e-05
5.61714e-06
-7.53496e-06
8.56562e-05
8.1517e-06
-8.68039e-06
7.75095e-05
1.1867e-05
-9.53316e-06
6.84565e-05
1.7157e-05
-1.01702e-05
5.78479e-05
2.44615e-05
-1.07135e-05
4.39778e-05
3.48602e-05
-1.11343e-05
2.46524e-05
4.62721e-05
-1.0173e-05
4.09591e-05
-4.88312e-06
0.000121369
-1.74682e-07
-1.32605e-07
0.000121028
-5.28537e-07
5.79635e-07
0.000120415
-8.84967e-07
1.28483e-06
0.000119335
-1.33393e-06
2.05752e-06
0.000117468
-2.00663e-06
2.94476e-06
0.00011449
-2.99901e-06
3.98241e-06
0.000110218
-4.29427e-06
5.22049e-06
0.000104702
-5.74251e-06
6.75083e-06
9.8202e-05
-7.12299e-06
8.72481e-06
9.10684e-05
-8.25324e-06
1.13956e-05