/*--------------------------------*- C++ -*----------------------------------*\
| =========                 |                                                 |
| \\      /  F ield         | foam-extend: Open Source CFD                    |
|  \\    /   O peration     | Version:     3.1                                |
|   \\  /    A nd           | Web:         http://www.extend-project.de       |
|    \\/     M anipulation  |                                                 |
\*---------------------------------------------------------------------------*/
FoamFile
{
    version     2.0;
    format      ascii;
    class       pointVectorField;
    location    "2.2";
    object      pointMotionU;
}
// * * * * * * * * * * * * * * * * * * * * * * * * * * * * * * * * * * * * * //

dimensions      [0 1 -1 0 0 0 0];

internalField   nonuniform List<vector> 
16859
(
(0 0 0)
(0 0 0)
(0 0 0)
(0 0 0)
(0 0 0)
(0 0 0)
(0 0 0)
(0 0 0)
(0 0 0)
(0 0 0)
(0 0 0)
(0 0 0)
(0 0 0)
(0 0 0)
(0 0 0)
(0 0 0)
(0 0 0)
(0 0 0)
(-4.95913e-11 7.85033e-11 9.40533e-12)
(-9.92016e-11 1.52804e-10 1.89376e-11)
(-1.52045e-10 2.2356e-10 2.9308e-11)
(-2.13138e-10 2.93275e-10 4.15467e-11)
(-2.88352e-10 3.63623e-10 5.68238e-11)
(-3.85177e-10 4.35314e-10 7.65924e-11)
(-5.13662e-10 5.07743e-10 1.02762e-10)
(-6.87552e-10 5.78298e-10 1.37908e-10)
(-9.25608e-10 6.41229e-10 1.85542e-10)
(-1.25277e-09 6.85808e-10 2.50374e-10)
(-1.70025e-09 6.93691e-10 3.38424e-10)
(-2.30225e-09 6.35823e-10 4.56468e-10)
(-3.08423e-09 4.71064e-10 6.09399e-10)
(-4.03156e-09 1.56242e-10 7.9201e-10)
(-5.01329e-09 -2.92709e-10 9.66932e-10)
(-7.52388e-09 -2.60415e-09 1.08753e-09)
(0 0 0)
(-9.53681e-11 1.54277e-10 1.82878e-11)
(-1.90525e-10 3.00349e-10 3.67878e-11)
(-2.91392e-10 4.39603e-10 5.6846e-11)
(-4.07275e-10 5.7708e-10 8.04141e-11)
(-5.48944e-10 7.16285e-10 1.09686e-10)
(-7.30002e-10 8.5902e-10 1.47363e-10)
(-9.68515e-10 1.00481e-09 1.96953e-10)
(-1.289e-09 1.14985e-09 2.63157e-10)
(-1.72469e-09 1.28524e-09 3.5233e-10)
(-2.31948e-09 1.39418e-09 4.72976e-10)
(-3.12782e-09 1.44825e-09 6.3602e-10)
(-4.20811e-09 1.40388e-09 8.5409e-10)
(-5.59906e-09 1.20385e-09 1.13766e-09)
(-7.25771e-09 7.99926e-10 1.48247e-09)
(-8.93183e-09 2.3723e-10 1.83291e-09)
(-1.17798e-08 -1.23218e-09 3.01162e-09)
(0 0 0)
(-1.34112e-10 2.2476e-10 2.62012e-11)
(-2.67355e-10 4.37694e-10 5.2626e-11)
(-4.07449e-10 6.41008e-10 8.11162e-11)
(-5.66695e-10 8.42306e-10 1.14348e-10)
(-7.59063e-10 1.04716e-09 1.55282e-10)
(-1.00186e-09 1.25904e-09 2.07501e-10)
(-1.31766e-09 1.47872e-09 2.75573e-10)
(-1.73658e-09 1.70337e-09 3.65516e-10)
(-2.29888e-09 1.92483e-09 4.85343e-10)
(-3.05707e-09 2.12694e-09 6.4565e-10)
(-4.07571e-09 2.28229e-09 8.59984e-10)
(-5.42316e-09 2.34962e-09 1.14417e-09)
(-7.14228e-09 2.27714e-09 1.51214e-09)
(-9.17264e-09 2.02581e-09 1.96119e-09)
(-1.12025e-08 1.62878e-09 2.42663e-09)
(-1.44138e-08 8.6616e-10 3.81106e-09)
(0 0 0)
(-1.6349e-10 2.8746e-10 3.28033e-11)
(-3.24957e-10 5.59999e-10 6.57505e-11)
(-4.928e-10 8.20704e-10 1.01e-10)
(-6.80716e-10 1.0797e-09 1.41702e-10)
(-9.03823e-10 1.34479e-09 1.9127e-10)
(-1.18027e-09 1.62153e-09 2.5371e-10)
(-1.53299e-09 1.91305e-09 3.34001e-10)
(-1.99167e-09 2.21944e-09 4.38508e-10)
(-2.59482e-09 2.5367e-09 5.75464e-10)
(-3.39138e-09 2.85517e-09 7.55448e-10)
(-4.44024e-09 3.15741e-09 9.91641e-10)
(-5.80328e-09 3.41624e-09 1.29915e-09)
(-7.52045e-09 3.59478e-09 1.69113e-09)
(-9.54051e-09 3.65344e-09 2.16451e-09)
(-1.15839e-08 3.55522e-09 2.65411e-09)
(-1.47642e-08 3.71101e-09 4.12944e-09)
(0 0 0)
(-1.82299e-10 3.4006e-10 3.78864e-11)
(-3.60983e-10 6.6273e-10 7.57456e-11)
(-5.44002e-10 9.71981e-10 1.1586e-10)
(-7.4485e-10 1.28025e-09 1.61597e-10)
(-9.77815e-10 1.5975e-09 2.16486e-10)
(-1.25922e-09 1.93156e-09 2.84521e-10)
(-1.60861e-09 2.28835e-09 3.70459e-10)
(-2.04979e-09 2.67182e-09 4.80102e-10)
(-2.61166e-09 3.08395e-09 6.20561e-10)
(-3.32824e-09 3.52446e-09 8.00416e-10)
(-4.23704e-09 3.99053e-09 1.02958e-09)
(-5.3736e-09 4.47543e-09 1.31832e-09)
(-6.75696e-09 4.96352e-09 1.67398e-09)
(-8.35123e-09 5.41352e-09 2.09034e-09)
(-9.98792e-09 5.69433e-09 2.51275e-09)
(-1.27368e-08 6.82095e-09 3.91874e-09)
(0 0 0)
(-1.90495e-10 3.80511e-10 4.13845e-11)
(-3.75507e-10 7.41857e-10 8.24938e-11)
(-5.61587e-10 1.0888e-09 1.25557e-10)
(-7.60702e-10 1.4357e-09 1.73919e-10)
(-9.84779e-10 1.79432e-09 2.30941e-10)
(-1.2464e-09 2.17448e-09 3.00246e-10)
(-1.55919e-09 2.58458e-09 3.85882e-10)
(-1.93765e-09 3.03209e-09 4.9243e-10)
(-2.3963e-09 3.52436e-09 6.24966e-10)
(-2.94725e-09 4.06967e-09 7.88772e-10)
(-3.59576e-09 4.67873e-09 9.88546e-10)
(-4.33296e-09 5.36529e-09 1.22666e-09)
(-5.12654e-09 6.14053e-09 1.49954e-09)
(-5.9158e-09 6.98056e-09 1.79001e-09)
(-6.64842e-09 7.6895e-09 2.0493e-09)
(-7.96345e-09 9.9556e-09 3.05464e-09)
(0 0 0)
(-1.89061e-10 4.07154e-10 4.33635e-11)
(-3.70713e-10 7.94106e-10 8.61516e-11)
(-5.49472e-10 1.16624e-09 1.30397e-10)
(-7.34896e-10 1.53922e-09 1.79229e-10)
(-9.3569e-10 1.92607e-09 2.3564e-10)
(-1.15984e-09 2.33791e-09 3.0264e-10)
(-1.41424e-09 2.78464e-09 3.83311e-10)
(-1.7035e-09 3.27574e-09 4.80715e-10)
(-2.0275e-09 3.82133e-09 5.97601e-10)
(-2.37693e-09 4.43379e-09 7.35707e-10)
(-2.72578e-09 5.13e-09 8.94388e-10)
(-3.01987e-09 5.93395e-09 1.06806e-09)
(-3.16288e-09 6.87583e-09 1.24168e-09)
(-3.01651e-09 7.96846e-09 1.38361e-09)
(-2.52278e-09 9.05138e-09 1.43958e-09)
(1.45198e-11 1.30778e-08 1.27965e-09)
(0 0 0)
(-1.79749e-10 4.18799e-10 4.39943e-11)
(-3.50334e-10 8.17135e-10 8.70923e-11)
(-5.13957e-10 1.20077e-09 1.31031e-10)
(-6.7738e-10 1.586e-09 1.78591e-10)
(-8.45923e-10 1.98636e-09 2.32281e-10)
(-1.02317e-09 2.41338e-09 2.94406e-10)
(-1.21009e-09 2.87723e-09 3.67025e-10)
(-1.40334e-09 3.38736e-09 4.51745e-10)
(-1.59219e-09 3.95323e-09 5.49257e-10)
(-1.75367e-09 4.58513e-09 6.58472e-10)
(-1.84496e-09 5.29503e-09 7.74992e-10)
(-1.79306e-09 6.09619e-09 8.88532e-10)
(-1.48436e-09 6.99736e-09 9.78839e-10)
(-7.71041e-10 7.97472e-09 1.01021e-09)
(4.36591e-10 8.84458e-09 9.26002e-10)
(1.0067e-08 1.52103e-08 -1.23769e-10)
(0 0 0)
(0 0 0)
(0 0 0)
(0 0 0)
(0 0 0)
(0 0 0)
(0 0 0)
(0 0 0)
(0 0 0)
(0 0 0)
(0 0 0)
(0 0 0)
(0 0 0)
(0 0 0)
(0 0 0)
(0 0 0)
(0 0 0)
(0 0 0)
(-4.92422e-11 8.2303e-11 9.26649e-12)
(-9.86641e-11 1.60306e-10 1.86673e-11)
(-1.51645e-10 2.34816e-10 2.89175e-11)
(-2.13417e-10 3.08557e-10 4.10532e-11)
(-2.90177e-10 3.83372e-10 5.62606e-11)
(-3.8992e-10 4.60046e-10 7.60239e-11)
(-5.23471e-10 5.37904e-10 1.02308e-10)
(-7.05752e-10 6.14009e-10 1.37788e-10)
(-9.57233e-10 6.81798e-10 1.86141e-10)
(-1.3052e-09 7.28831e-10 2.52362e-10)
(-1.78374e-09 7.3339e-10 3.42968e-10)
(-2.42984e-09 6.59974e-10 4.65631e-10)
(-3.26968e-09 4.55518e-10 6.26878e-10)
(-4.28088e-09 5.77323e-11 8.24017e-10)
(-5.27653e-09 -5.19323e-10 1.01874e-09)
(-7.50406e-09 -3.13298e-09 1.28853e-09)
(0 0 0)
(-9.45048e-11 1.6175e-10 1.80165e-11)
(-1.89094e-10 3.1511e-10 3.62599e-11)
(-2.89977e-10 4.61766e-10 5.60836e-11)
(-4.06831e-10 6.07218e-10 7.94511e-11)
(-5.5099e-10 7.55328e-10 1.08587e-10)
(-7.36934e-10 9.08099e-10 1.4625e-10)
(-9.84085e-10 1.06504e-09 1.96055e-10)
(-1.319e-09 1.22193e-09 2.62882e-10)
(-1.77791e-09 1.36872e-09 3.5339e-10)
(-2.40876e-09 1.48614e-09 4.7658e-10)
(-3.27097e-09 1.54102e-09 6.44203e-10)
(-4.42718e-09 1.4812e-09 8.7026e-10)
(-5.91477e-09 1.23555e-09 1.16746e-09)
(-7.66864e-09 7.39084e-10 1.53413e-09)
(-9.32454e-09 5.4269e-11 1.90802e-09)
(-1.17214e-08 -1.67838e-09 2.67035e-09)
(0 0 0)
(-1.32438e-10 2.35659e-10 2.58099e-11)
(-2.6439e-10 4.59235e-10 5.18649e-11)
(-4.03917e-10 6.73389e-10 8.00177e-11)
(-5.63742e-10 8.86436e-10 1.12962e-10)
(-7.58488e-10 1.10453e-09 1.53701e-10)
(-1.00648e-09 1.33154e-09 2.05897e-10)
(-1.33188e-09 1.56847e-09 2.74261e-10)
(-1.76718e-09 1.81234e-09 3.65053e-10)
(-2.35614e-09 2.05417e-09 4.86681e-10)
(-3.15611e-09 2.27588e-09 6.50363e-10)
(-4.23751e-09 2.44637e-09 8.70615e-10)
(-5.67377e-09 2.51812e-09 1.16471e-09)
(-7.50535e-09 2.431e-09 1.54856e-09)
(-9.6411e-09 2.1417e-09 2.02066e-09)
(-1.16229e-08 1.71832e-09 2.50351e-09)
(-1.44673e-08 6.93398e-10 3.3691e-09)
(0 0 0)
(-1.60634e-10 3.01411e-10 3.23087e-11)
(-3.19661e-10 5.87595e-10 6.47897e-11)
(-4.85789e-10 8.62251e-10 9.96155e-11)
(-6.7306e-10 1.13646e-09 1.3996e-10)
(-8.97157e-10 1.41884e-09 1.89283e-10)
(-1.17713e-09 1.71568e-09 2.51692e-10)
(-1.53729e-09 2.03067e-09 3.32333e-10)
(-2.00945e-09 2.36434e-09 4.37858e-10)
(-2.63518e-09 2.71282e-09 5.76949e-10)
(-3.46776e-09 3.06613e-09 7.60873e-10)
(-4.57158e-09 3.40595e-09 1.00384e-09)
(-6.01396e-09 3.70377e-09 1.32238e-09)
(-7.83499e-09 3.92234e-09 1.73135e-09)
(-9.95829e-09 4.02858e-09 2.22799e-09)
(-1.19579e-08 4.02461e-09 2.73221e-09)
(-1.50071e-08 3.75566e-09 3.6128e-09)
(0 0 0)
(-1.77883e-10 3.56575e-10 3.73092e-11)
(-3.52553e-10 6.95426e-10 7.46261e-11)
(-5.32147e-10 1.02128e-09 1.14251e-10)
(-7.3032e-10 1.34775e-09 1.59577e-10)
(-9.6167e-10 1.68587e-09 2.14188e-10)
(-1.24306e-09 2.04449e-09 2.82191e-10)
(-1.59485e-09 2.43057e-09 3.6853e-10)
(-2.04212e-09 2.84922e-09 4.7932e-10)
(-2.61554e-09 3.3037e-09 6.22159e-10)
(-3.35159e-09 3.79555e-09 8.06362e-10)
(-4.29098e-09 4.32468e-09 1.04292e-09)
(-5.47293e-09 4.88921e-09 1.34363e-09)
(-6.91866e-09 5.48265e-09 1.71773e-09)
(-8.58105e-09 6.08102e-09 2.15988e-09)
(-1.01822e-08 6.59109e-09 2.60353e-09)
(-1.31038e-08 7.13087e-09 3.41846e-09)
(0 0 0)
(-1.84202e-10 3.99001e-10 4.07476e-11)
(-3.63271e-10 7.7849e-10 8.1261e-11)
(-5.43767e-10 1.1441e-09 1.23791e-10)
(-7.37544e-10 1.51155e-09 1.71708e-10)
(-9.56482e-10 1.89388e-09 2.28438e-10)
(-1.21318e-09 2.30222e-09 2.97721e-10)
(-1.52132e-09 2.74639e-09 3.8381e-10)
(-1.89544e-09 3.23564e-09 4.91615e-10)
(-2.34994e-09 3.77968e-09 6.26722e-10)
(-2.8965e-09 4.3904e-09 7.95186e-10)
(-3.53925e-09 5.08455e-09 1.00288e-09)
(-4.26707e-09 5.88679e-09 1.25391e-09)
(-5.04397e-09 6.82823e-09 1.54722e-09)
(-5.8022e-09 7.91807e-09 1.86844e-09)
(-6.44441e-09 8.99852e-09 2.16592e-09)
(-8.29891e-09 1.05951e-08 2.71099e-09)
(0 0 0)
(-1.80682e-10 4.26944e-10 4.26898e-11)
(-3.54236e-10 8.33335e-10 8.48506e-11)
(-5.24979e-10 1.22551e-09 1.2854e-10)
(-7.0205e-10 1.62062e-09 1.76916e-10)
(-8.93717e-10 2.0331e-09 2.33038e-10)
(-1.10744e-09 2.47554e-09 3.00043e-10)
(-1.34935e-09 2.95953e-09 3.81222e-10)
(-1.62287e-09 3.49666e-09 4.79978e-10)
(-1.9259e-09 4.09995e-09 5.99576e-10)
(-2.24569e-09 4.78618e-09 7.42551e-10)
(-2.55029e-09 5.57981e-09 9.09493e-10)
(-2.77509e-09 6.5188e-09 1.09678e-09)
(-2.80583e-09 7.66083e-09 1.29262e-09)
(-2.47621e-09 9.07085e-09 1.47077e-09)
(-1.72032e-09 1.06474e-08 1.58733e-09)
(4.09922e-12 1.37542e-08 1.48391e-09)
(0 0 0)
(-1.6921e-10 4.3915e-10 4.3305e-11)
(-3.29473e-10 8.57495e-10 8.57646e-11)
(-4.82588e-10 1.26179e-09 1.29144e-10)
(-6.34604e-10 1.66987e-09 1.76255e-10)
(-7.90051e-10 2.09672e-09 2.29677e-10)
(-9.51521e-10 2.55541e-09 2.91844e-10)
(-1.1186e-09 3.05783e-09 3.65029e-10)
(-1.28583e-09 3.61552e-09 4.51171e-10)
(-1.43924e-09 4.24068e-09 5.51472e-10)
(-1.5506e-09 4.94758e-09 6.65616e-10)
(-1.56852e-09 5.75441e-09 7.90405e-10)
(-1.40575e-09 6.68494e-09 9.17462e-10)
(-9.24716e-10 7.7665e-09 1.02966e-09)
(6.00246e-11 9.0059e-09 1.09652e-09)
(1.66952e-09 1.02432e-08 1.07277e-09)
(1.04544e-08 1.56412e-08 6.48949e-10)
(0 0 0)
(0 0 0)
(0 0 0)
(0 0 0)
(0 0 0)
(0 0 0)
(0 0 0)
(0 0 0)
(0 0 0)
(0 0 0)
(0 0 0)
(0 0 0)
(0 0 0)
(0 0 0)
(0 0 0)
(0 0 0)
(0 0 0)
(0 0 0)
(-4.86826e-11 8.5849e-11 8.76926e-12)
(-9.76765e-11 1.67312e-10 1.76729e-11)
(-1.50473e-10 2.45328e-10 2.73973e-11)
(-2.12441e-10 3.22823e-10 3.89357e-11)
(-2.89989e-10 4.01786e-10 5.34267e-11)
(-3.91441e-10 4.83076e-10 7.22953e-11)
(-5.2811e-10 5.65966e-10 9.74208e-11)
(-7.15612e-10 6.47281e-10 1.31346e-10)
(-9.75317e-10 7.19878e-10 1.77519e-10)
(-1.33548e-09 7.70214e-10 2.40533e-10)
(-1.83073e-09 7.74768e-10 3.26176e-10)
(-2.497e-09 6.95618e-10 4.40816e-10)
(-3.35546e-09 4.78091e-10 5.88836e-10)
(-4.37236e-09 6.43082e-11 7.64989e-10)
(-5.35282e-09 -5.14674e-10 9.33757e-10)
(-7.74886e-09 -2.92388e-09 1.26098e-09)
(0 0 0)
(-9.32438e-11 1.68723e-10 1.7049e-11)
(-1.86813e-10 3.28895e-10 3.43269e-11)
(-2.87107e-10 4.82464e-10 5.31333e-11)
(-4.04028e-10 6.35341e-10 7.53503e-11)
(-5.49268e-10 7.91709e-10 1.03116e-10)
(-7.37862e-10 9.5375e-10 1.39077e-10)
(-9.90066e-10 1.12097e-09 1.86694e-10)
(-1.33364e-09 1.28882e-09 2.50605e-10)
(-1.80635e-09 1.44639e-09 3.37048e-10)
(-2.45789e-09 1.57275e-09 4.54256e-10)
(-3.34865e-09 1.63193e-09 6.12514e-10)
(-4.53943e-09 1.56813e-09 8.22986e-10)
(-6.05857e-09 1.30774e-09 1.09294e-09)
(-7.82046e-09 7.91392e-10 1.41164e-09)
(-9.44708e-09 1.02461e-10 1.7139e-09)
(-1.19954e-08 -1.43529e-09 2.23269e-09)
(0 0 0)
(-1.3022e-10 2.45828e-10 2.44223e-11)
(-2.60266e-10 4.79346e-10 4.90968e-11)
(-3.98408e-10 7.03617e-10 7.58032e-11)
(-5.57596e-10 9.27589e-10 1.07126e-10)
(-7.52838e-10 1.15793e-09 1.45952e-10)
(-1.00307e-09 1.39885e-09 1.95798e-10)
(-1.33338e-09 1.65154e-09 2.61182e-10)
(-1.77761e-09 1.91286e-09 3.48055e-10)
(-2.38132e-09 2.17312e-09 4.64289e-10)
(-3.20389e-09 2.41273e-09 6.20095e-10)
(-4.31721e-09 2.59785e-09 8.27988e-10)
(-5.79328e-09 2.67709e-09 1.10116e-09)
(-7.66349e-09 2.58642e-09 1.44725e-09)
(-9.81529e-09 2.28286e-09 1.85011e-09)
(-1.17767e-08 1.8453e-09 2.22519e-09)
(-1.48702e-08 9.03695e-10 2.79209e-09)
(0 0 0)
(-1.5714e-10 3.14426e-10 3.05689e-11)
(-3.13013e-10 6.1335e-10 6.13263e-11)
(-4.76476e-10 9.01012e-10 9.43607e-11)
(-6.61709e-10 1.18934e-09 1.32719e-10)
(-8.84661e-10 1.48768e-09 1.79732e-10)
(-1.16484e-09 1.80291e-09 2.39351e-10)
(-1.5273e-09 2.13917e-09 3.16524e-10)
(-2.0049e-09 2.49721e-09 4.17591e-10)
(-2.64071e-09 2.87302e-09 5.50698e-10)
(-3.48979e-09 3.25582e-09 7.26087e-10)
(-4.61827e-09 3.62546e-09 9.55876e-10)
(-6.09383e-09 3.94981e-09 1.25221e-09)
(-7.95273e-09 4.18506e-09 1.62079e-09)
(-1.01076e-08 4.28704e-09 2.04242e-09)
(-1.21252e-08 4.24987e-09 2.42882e-09)
(-1.56156e-08 3.93157e-09 2.99424e-09)
(0 0 0)
(-1.72794e-10 3.71978e-10 3.52967e-11)
(-3.42699e-10 7.25928e-10 7.063e-11)
(-5.17882e-10 1.06724e-09 1.08215e-10)
(-7.11942e-10 1.41059e-09 1.5131e-10)
(-9.39508e-10 1.76791e-09 2.03373e-10)
(-1.21757e-09 2.14892e-09 2.68369e-10)
(-1.56675e-09 2.56135e-09 3.51073e-10)
(-2.01251e-09 3.01103e-09 4.57354e-10)
(-2.58609e-09 3.5018e-09 5.94394e-10)
(-3.32479e-09 4.03546e-09 7.70716e-10)
(-4.27046e-09 4.6114e-09 9.9568e-10)
(-5.46427e-09 5.22491e-09 1.27757e-09)
(-6.93126e-09 5.86015e-09 1.61801e-09)
(-8.63227e-09 6.46868e-09 1.99723e-09)
(-1.0299e-08 6.92592e-09 2.33892e-09)
(-1.38855e-08 7.26596e-09 2.85332e-09)
(0 0 0)
(-1.77256e-10 4.16239e-10 3.8546e-11)
(-3.49655e-10 8.12646e-10 7.69023e-11)
(-5.23623e-10 1.19563e-09 1.17241e-10)
(-7.10702e-10 1.5821e-09 1.62803e-10)
(-9.2248e-10 1.98621e-09 2.16901e-10)
(-1.17125e-09 2.42015e-09 2.83167e-10)
(-1.47028e-09 2.89481e-09 3.65745e-10)
(-1.83361e-09 3.4206e-09 4.69409e-10)
(-2.27487e-09 4.00844e-09 5.99538e-10)
(-2.80481e-09 4.67143e-09 7.61813e-10)
(-3.42683e-09 5.42707e-09 9.61342e-10)
(-4.131e-09 6.29835e-09 1.20061e-09)
(-4.88961e-09 7.30576e-09 1.47499e-09)
(-5.66135e-09 8.42341e-09 1.76293e-09)
(-6.38714e-09 9.43767e-09 2.00648e-09)
(-9.06414e-09 1.06775e-08 2.37215e-09)
(0 0 0)
(-1.71714e-10 4.45384e-10 4.03797e-11)
(-3.36519e-10 8.6989e-10 8.02925e-11)
(-4.98409e-10 1.2807e-09 1.21729e-10)
(-6.65932e-10 1.69628e-09 1.67733e-10)
(-8.46721e-10 2.13226e-09 2.21272e-10)
(-1.04746e-09 2.60245e-09 2.8542e-10)
(-1.27325e-09 3.1197e-09 3.6343e-10)
(-1.52604e-09 3.69695e-09 4.58695e-10)
(-1.80162e-09 4.34876e-09 5.74505e-10)
(-2.08443e-09 5.09355e-09 7.13467e-10)
(-2.33915e-09 5.95706e-09 8.76353e-10)
(-2.49925e-09 6.97615e-09 1.06e-09)
(-2.45684e-09 8.1979e-09 1.25385e-09)
(-2.07885e-09 9.64831e-09 1.43491e-09)
(-1.36747e-09 1.11523e-08 1.56445e-09)
(-2.72137e-10 1.37705e-08 1.61805e-09)
(0 0 0)
(-1.58181e-10 4.58105e-10 4.09582e-11)
(-3.07583e-10 8.95085e-10 8.11512e-11)
(-4.49496e-10 1.31858e-09 1.22293e-10)
(-5.89125e-10 1.74777e-09 1.67102e-10)
(-7.3006e-10 2.1989e-09 2.18092e-10)
(-8.73734e-10 2.68627e-09 2.77678e-10)
(-1.01818e-09 3.22306e-09 3.48163e-10)
(-1.1558e-09 3.82218e-09 4.31587e-10)
(-1.26958e-09 4.49721e-09 5.2936e-10)
(-1.32717e-09 5.26377e-09 6.4157e-10)
(-1.27209e-09 6.14063e-09 7.65807e-10)
(-1.01249e-09 7.14929e-09 8.95335e-10)
(-4.1258e-10 8.3052e-09 1.01661e-09)
(6.8908e-10 9.57777e-09 1.10687e-09)
(2.35663e-09 1.07318e-08 1.13339e-09)
(1.08931e-08 1.55343e-08 1.16289e-09)
(0 0 0)
(0 0 0)
(0 0 0)
(0 0 0)
(0 0 0)
(0 0 0)
(0 0 0)
(0 0 0)
(0 0 0)
(0 0 0)
(0 0 0)
(0 0 0)
(0 0 0)
(0 0 0)
(0 0 0)
(0 0 0)
(0 0 0)
(0 0 0)
(-4.79848e-11 8.90368e-11 7.92576e-12)
(-9.63806e-11 1.73612e-10 1.59777e-11)
(-1.48743e-10 2.54776e-10 2.47812e-11)
(-2.10509e-10 3.35632e-10 3.5239e-11)
(-2.88199e-10 4.18297e-10 4.83826e-11)
(-3.90309e-10 5.03696e-10 6.54935e-11)
(-5.28392e-10 5.9108e-10 8.82428e-11)
(-7.18366e-10 6.77116e-10 1.18849e-10)
(-9.81898e-10 7.54317e-10 1.60238e-10)
(-1.34732e-09 8.08591e-10 2.16141e-10)
(-1.8487e-09 8.15802e-10 2.90955e-10)
(-2.52002e-09 7.37985e-10 3.88959e-10)
(-3.37858e-09 5.22668e-10 5.12033e-10)
(-4.38656e-09 1.18989e-10 6.54168e-10)
(-5.353e-09 -4.33782e-10 7.8789e-10)
(-7.71539e-09 -2.69761e-09 1.09153e-09)
(0 0 0)
(-9.17305e-11 1.74991e-10 1.54088e-11)
(-1.83969e-10 3.41283e-10 3.10336e-11)
(-2.83216e-10 5.01057e-10 4.80593e-11)
(-3.99472e-10 6.60578e-10 6.81969e-11)
(-5.44604e-10 8.24296e-10 9.33834e-11)
(-7.33922e-10 9.94558e-10 1.26002e-10)
(-9.88072e-10 1.17087e-09 1.6913e-10)
(-1.33531e-09 1.34848e-09 2.26812e-10)
(-1.81391e-09 1.51591e-09 3.04324e-10)
(-2.4737e-09 1.65129e-09 4.08303e-10)
(-3.37419e-09 1.71749e-09 5.46396e-10)
(-4.57293e-09 1.65812e-09 7.25605e-10)
(-6.09164e-09 1.40192e-09 9.47633e-10)
(-7.83719e-09 8.98072e-10 1.19804e-09)
(-9.43695e-09 2.40288e-10 1.42373e-09)
(-1.1883e-08 -1.14647e-09 1.78573e-09)
(0 0 0)
(-1.2768e-10 2.54963e-10 2.20718e-11)
(-2.55421e-10 4.97412e-10 4.43851e-11)
(-3.91583e-10 7.30757e-10 6.85635e-11)
(-5.49183e-10 9.64484e-10 9.6957e-11)
(-7.43378e-10 1.20569e-09 1.32185e-10)
(-9.93361e-10 1.45889e-09 1.77416e-10)
(-1.32459e-09 1.72539e-09 2.3667e-10)
(-1.77143e-09 2.0019e-09 3.15139e-10)
(-2.3799e-09 2.27819e-09 4.19462e-10)
(-3.20962e-09 2.53357e-09 5.57789e-10)
(-4.33168e-09 2.73252e-09 7.39172e-10)
(-5.81503e-09 2.82183e-09 9.71176e-10)
(-7.68474e-09 2.73709e-09 1.25348e-09)
(-9.8211e-09 2.43918e-09 1.56371e-09)
(-1.17573e-08 2.01496e-09 1.8322e-09)
(-1.47146e-08 1.15064e-09 2.19855e-09)
(0 0 0)
(-1.53313e-10 3.26114e-10 2.76257e-11)
(-3.05609e-10 6.36477e-10 5.54391e-11)
(-4.65771e-10 9.35791e-10 8.53474e-11)
(-6.47936e-10 1.23671e-09 1.20124e-10)
(-8.68074e-10 1.54917e-09 1.62794e-10)
(-1.14579e-09 1.88052e-09 2.16925e-10)
(-1.5063e-09 2.23523e-09 2.8693e-10)
(-1.98271e-09 2.61408e-09 3.78348e-10)
(-2.61832e-09 3.01272e-09 4.98042e-10)
(-3.46827e-09 3.41935e-09 6.54117e-10)
(-4.59832e-09 3.81176e-09 8.5508e-10)
(-6.07486e-09 4.15426e-09 1.10714e-09)
(-7.93184e-09 4.39793e-09 1.40744e-09)
(-1.00807e-08 4.4939e-09 1.72981e-09)
(-1.20938e-08 4.44054e-09 2.00176e-09)
(-1.54813e-08 4.10052e-09 2.35469e-09)
(0 0 0)
(-1.6742e-10 3.85807e-10 3.18969e-11)
(-3.32184e-10 7.53304e-10 6.38476e-11)
(-5.0237e-10 1.10845e-09 9.78773e-11)
(-6.91352e-10 1.46681e-09 1.36956e-10)
(-9.13562e-10 1.84108e-09 1.84231e-10)
(-1.18579e-09 2.24164e-09 2.43293e-10)
(-1.52845e-09 2.67674e-09 3.18421e-10)
(-1.96672e-09 3.15253e-09 4.14764e-10)
(-2.53149e-09 3.6728e-09 5.38386e-10)
(-3.25961e-09 4.23859e-09 6.96e-10)
(-4.19273e-09 4.84703e-09 8.93945e-10)
(-5.37273e-09 5.48831e-09 1.1356e-09)
(-6.82817e-09 6.13655e-09 1.41554e-09)
(-8.5288e-09 6.72909e-09 1.70824e-09)
(-1.02158e-08 7.14081e-09 1.95051e-09)
(-1.37748e-08 7.3587e-09 2.27266e-09)
(0 0 0)
(-1.70126e-10 4.31708e-10 3.48317e-11)
(-3.35592e-10 8.43284e-10 6.95155e-11)
(-5.02578e-10 1.2418e-09 1.06041e-10)
(-6.82177e-10 1.64518e-09 1.47367e-10)
(-8.85504e-10 2.06848e-09 1.96519e-10)
(-1.12428e-09 2.52469e-09 2.56801e-10)
(-1.41108e-09 3.02543e-09 3.31954e-10)
(-1.75896e-09 3.58167e-09 4.26206e-10)
(-2.18036e-09 4.20454e-09 5.44142e-10)
(-2.68462e-09 4.90665e-09 6.90229e-10)
(-3.27421e-09 5.70328e-09 8.67693e-10)
(-3.94045e-09 6.61138e-09 1.07621e-09)
(-4.66281e-09 7.63805e-09 1.30762e-09)
(-5.41745e-09 8.73594e-09 1.53879e-09)
(-6.16217e-09 9.68576e-09 1.72227e-09)
(-8.86228e-09 1.07321e-08 1.9781e-09)
(0 0 0)
(-1.62708e-10 4.61924e-10 3.64873e-11)
(-3.18659e-10 9.02665e-10 7.25783e-11)
(-4.71434e-10 1.33012e-09 1.10102e-10)
(-6.28893e-10 1.76387e-09 1.51841e-10)
(-7.97907e-10 2.22054e-09 2.00519e-10)
(-9.84231e-10 2.71483e-09 2.58953e-10)
(-1.19174e-09 3.26042e-09 3.30115e-10)
(-1.42078e-09 3.87094e-09 4.17059e-10)
(-1.66501e-09 4.56129e-09 5.22653e-10)
(-1.90633e-09 5.34947e-09 6.48958e-10)
(-2.10716e-09 6.25896e-09 7.96088e-10)
(-2.20081e-09 7.32018e-09 9.60321e-10)
(-2.08582e-09 8.56556e-09 1.13145e-09)
(-1.64751e-09 9.99693e-09 1.29003e-09)
(-9.09431e-10 1.14312e-08 1.40654e-09)
(2.9463e-10 1.38706e-08 1.51941e-09)
(0 0 0)
(-1.47288e-10 4.75099e-10 3.7009e-11)
(-2.85909e-10 9.28774e-10 7.33536e-11)
(-4.16587e-10 1.36941e-09 1.10614e-10)
(-5.43616e-10 1.81733e-09 1.51284e-10)
(-6.69579e-10 2.28981e-09 1.97681e-10)
(-7.94675e-10 2.80207e-09 2.52044e-10)
(-9.15341e-10 3.36814e-09 3.16515e-10)
(-1.02186e-09 4.00154e-09 3.92992e-10)
(-1.09449e-09 4.71617e-09 4.82781e-10)
(-1.09757e-09 5.527e-09 5.8595e-10)
(-9.71243e-10 6.45021e-09 7.00307e-10)
(-6.21974e-10 7.50039e-09 8.19934e-10)
(8.24106e-11 8.67808e-09 9.33544e-10)
(1.2902e-09 9.92806e-09 1.02335e-09)
(3.05208e-09 1.09968e-08 1.06348e-09)
(1.20603e-08 1.57188e-08 1.11361e-09)
(0 0 0)
(0 0 0)
(0 0 0)
(0 0 0)
(0 0 0)
(0 0 0)
(0 0 0)
(0 0 0)
(0 0 0)
(0 0 0)
(0 0 0)
(0 0 0)
(0 0 0)
(0 0 0)
(0 0 0)
(0 0 0)
(0 0 0)
(0 0 0)
(-4.7236e-11 9.17735e-11 6.76476e-12)
(-9.49531e-11 1.79017e-10 1.36394e-11)
(-1.46733e-10 2.62877e-10 2.11599e-11)
(-2.08028e-10 3.46601e-10 3.0096e-11)
(-2.85394e-10 4.32413e-10 4.13224e-11)
(-3.87377e-10 5.21298e-10 5.59137e-11)
(-5.25592e-10 6.12503e-10 7.5246e-11)
(-7.15986e-10 7.02609e-10 1.011e-10)
(-9.80134e-10 7.83961e-10 1.35734e-10)
(-1.34597e-09 8.42284e-10 1.81864e-10)
(-1.84654e-09 8.53482e-10 2.4241e-10)
(-2.51381e-09 7.80458e-10 3.19729e-10)
(-3.36209e-09 5.73463e-10 4.13927e-10)
(-4.35113e-09 1.86648e-10 5.19513e-10)
(-5.29329e-09 -3.38974e-10 6.17073e-10)
(-7.5863e-09 -2.49474e-09 8.49002e-10)
(0 0 0)
(-9.01399e-11 1.80369e-10 1.31513e-11)
(-1.80914e-10 3.51911e-10 2.64918e-11)
(-2.78857e-10 5.16993e-10 4.10366e-11)
(-3.93974e-10 6.82175e-10 5.82458e-11)
(-5.38165e-10 8.52129e-10 7.97626e-11)
(-7.26802e-10 1.02934e-09 1.07586e-10)
(-9.80599e-10 1.21332e-09 1.4425e-10)
(-1.32782e-09 1.3992e-09 1.92999e-10)
(-1.80655e-09 1.57519e-09 2.57888e-10)
(-2.46592e-09 1.719e-09 3.43699e-10)
(-3.3637e-09 1.79329e-09 4.55344e-10)
(-4.55407e-09 1.74248e-09 5.96211e-10)
(-6.0536e-09 1.4985e-09 7.64502e-10)
(-7.76475e-09 1.01669e-09 9.46319e-10)
(-9.32016e-09 3.92594e-10 1.10334e-09)
(-1.16405e-08 -8.94578e-10 1.33251e-09)
(0 0 0)
(-1.25081e-10 2.628e-10 1.8838e-11)
(-2.50385e-10 5.12903e-10 3.78893e-11)
(-3.84274e-10 7.54002e-10 5.85458e-11)
(-5.39715e-10 9.96029e-10 8.28143e-11)
(-7.31839e-10 1.24642e-09 1.12919e-10)
(-9.79832e-10 1.50994e-09 1.51519e-10)
(-1.30914e-09 1.78797e-09 2.0193e-10)
(-1.75401e-09 2.0771e-09 2.68308e-10)
(-2.36014e-09 2.36669e-09 3.55735e-10)
(-3.18627e-09 2.63537e-09 4.69989e-10)
(-4.30158e-09 2.84681e-09 6.16622e-10)
(-5.77152e-09 2.94735e-09 7.98508e-10)
(-7.61585e-09 2.87369e-09 1.01069e-09)
(-9.71017e-09 2.59016e-09 1.23138e-09)
(-1.15927e-08 2.18582e-09 1.41027e-09)
(-1.43788e-08 1.38032e-09 1.61806e-09)
(0 0 0)
(-1.49501e-10 3.36137e-10 2.35779e-11)
(-2.98155e-10 6.56298e-10 4.73257e-11)
(-4.54778e-10 9.6556e-10 7.28797e-11)
(-6.33343e-10 1.27717e-09 1.02611e-10)
(-8.49667e-10 1.60154e-09 1.39092e-10)
(-1.12319e-09 1.94636e-09 1.85321e-10)
(-1.4789e-09 2.31631e-09 2.44945e-10)
(-1.94957e-09 2.7121e-09 3.22399e-10)
(-2.57789e-09 3.12896e-09 4.22909e-10)
(-3.41803e-09 3.55417e-09 5.52124e-10)
(-4.5341e-09 3.96387e-09 7.14936e-10)
(-5.98998e-09 4.32007e-09 9.12709e-10)
(-7.81654e-09 4.57133e-09 1.13779e-09)
(-9.92298e-09 4.66785e-09 1.36472e-09)
(-1.18858e-08 4.61158e-09 1.54148e-09)
(-1.50987e-08 4.27191e-09 1.72516e-09)
(0 0 0)
(-1.62195e-10 3.9766e-10 2.72231e-11)
(-3.21888e-10 7.76755e-10 5.45042e-11)
(-4.86984e-10 1.14371e-09 8.35833e-11)
(-6.70532e-10 1.5148e-09 1.17004e-10)
(-8.86619e-10 1.90333e-09 1.57445e-10)
(-1.15163e-09 2.32014e-09 2.07937e-10)
(-1.48543e-09 2.7738e-09 2.72024e-10)
(-1.91249e-09 3.27051e-09 3.5384e-10)
(-2.4627e-09 3.81368e-09 4.5799e-10)
(-3.17165e-09 4.40323e-09 5.89046e-10)
(-4.07953e-09 5.03399e-09 7.50285e-10)
(-5.22708e-09 5.69203e-09 9.41055e-10)
(-6.64287e-09 6.34557e-09 1.1521e-09)
(-8.29887e-09 6.92687e-09 1.35881e-09)
(-9.94159e-09 7.31578e-09 1.51596e-09)
(-1.33526e-08 7.48501e-09 1.67825e-09)
(0 0 0)
(-1.63331e-10 4.44963e-10 2.97279e-11)
(-3.22126e-10 8.69519e-10 5.93438e-11)
(-4.82259e-10 1.28127e-09 9.05606e-11)
(-6.54307e-10 1.69897e-09 1.25916e-10)
(-8.48811e-10 2.13838e-09 1.67993e-10)
(-1.0768e-09 2.61305e-09 2.19594e-10)
(-1.34993e-09 3.13502e-09 2.83834e-10)
(-1.68007e-09 3.71539e-09 3.64125e-10)
(-2.07811e-09 4.36498e-09 4.63943e-10)
(-2.55158e-09 5.0952e-09 5.86221e-10)
(-3.10122e-09 5.9186e-09 7.32121e-10)
(-3.71755e-09 6.84696e-09 8.98832e-10)
(-4.38165e-09 7.87957e-09 1.07625e-09)
(-5.07459e-09 8.9622e-09 1.24316e-09)
(-5.76264e-09 9.88254e-09 1.36581e-09)
(-8.3236e-09 1.08706e-08 1.50539e-09)
(0 0 0)
(-1.54262e-10 4.76092e-10 3.11412e-11)
(-3.01855e-10 9.30719e-10 6.19604e-11)
(-4.45917e-10 1.37236e-09 9.4036e-11)
(-5.93594e-10 1.82149e-09 1.2976e-10)
(-7.50956e-10 2.29549e-09 1.71468e-10)
(-9.22776e-10 2.80971e-09 2.21562e-10)
(-1.11167e-09 3.37828e-09 2.8254e-10)
(-1.31631e-09 4.01503e-09 3.56892e-10)
(-1.52828e-09 4.73452e-09 4.46787e-10)
(-1.727e-09 5.55348e-09 5.5343e-10)
(-1.87242e-09 6.49243e-09 6.7595e-10)
(-1.89628e-09 7.57621e-09 8.09721e-10)
(-1.69751e-09 8.82912e-09 9.44431e-10)
(-1.16405e-09 1.02473e-08 1.06311e-09)
(-3.2643e-10 1.16592e-08 1.14438e-09)
(1.14236e-09 1.41218e-08 1.21761e-09)
(0 0 0)
(-1.37197e-10 4.89651e-10 3.15869e-11)
(-2.65788e-10 9.57602e-10 6.26247e-11)
(-3.85929e-10 1.41284e-09 9.44817e-11)
(-5.01018e-10 1.87661e-09 1.29306e-10)
(-6.12648e-10 2.36696e-09 1.69098e-10)
(-7.19811e-10 2.89979e-09 2.15781e-10)
(-8.17413e-10 3.48956e-09 2.71181e-10)
(-8.93771e-10 4.14996e-09 3.3687e-10)
(-9.2668e-10 4.89447e-09 4.13829e-10)
(-8.77589e-10 5.73663e-09 5.01834e-10)
(-6.83729e-10 6.68945e-09 5.98523e-10)
(-2.49328e-10 7.76162e-09 6.98133e-10)
(5.58366e-10 8.94508e-09 7.90216e-10)
(1.8869e-09 1.01775e-08 8.58932e-10)
(3.78681e-09 1.12105e-08 8.8183e-10)
(1.3412e-08 1.60933e-08 8.44358e-10)
(0 0 0)
(0 0 0)
(0 0 0)
(0 0 0)
(0 0 0)
(0 0 0)
(0 0 0)
(0 0 0)
(0 0 0)
(0 0 0)
(0 0 0)
(0 0 0)
(0 0 0)
(0 0 0)
(0 0 0)
(0 0 0)
(0 0 0)
(0 0 0)
(-4.65289e-11 9.39809e-11 5.32986e-12)
(-9.35838e-11 1.83376e-10 1.07472e-11)
(-1.44747e-10 2.69402e-10 1.66742e-11)
(-2.05456e-10 3.55425e-10 2.37153e-11)
(-2.8225e-10 4.43752e-10 3.25514e-11)
(-3.83655e-10 5.35416e-10 4.40088e-11)
(-5.21236e-10 6.29673e-10 5.9125e-11)
(-7.10821e-10 7.23067e-10 7.92036e-11)
(-9.73709e-10 8.07889e-10 1.05828e-10)
(-1.33727e-09 8.69871e-10 1.40776e-10)
(-1.83351e-09 8.85213e-10 1.85748e-10)
(-2.49269e-09 8.17797e-10 2.4175e-10)
(-3.32702e-09 6.20015e-10 3.08007e-10)
(-4.29496e-09 2.48941e-10 3.8018e-10)
(-5.21255e-09 -2.55059e-10 4.4562e-10)
(-7.4437e-09 -2.33081e-09 6.08567e-10)
(0 0 0)
(-8.8656e-11 1.84706e-10 1.03617e-11)
(-1.78028e-10 3.60476e-10 2.08744e-11)
(-2.74637e-10 5.29823e-10 3.2338e-11)
(-3.88438e-10 6.99538e-10 4.58992e-11)
(-5.31281e-10 8.74465e-10 6.2838e-11)
(-7.18468e-10 1.05719e-09 8.46918e-11)
(-9.70593e-10 1.24727e-09 1.13371e-10)
(-1.31567e-09 1.43973e-09 1.51248e-10)
(-1.79125e-09 1.62268e-09 2.01152e-10)
(-2.44546e-09 1.77372e-09 2.6617e-10)
(-3.33426e-09 1.85573e-09 3.49027e-10)
(-4.50896e-09 1.81428e-09 4.50731e-10)
(-5.98259e-09 1.58391e-09 5.68114e-10)
(-7.65555e-09 1.12334e-09 6.89991e-10)
(-9.1672e-09 5.26521e-10 7.91168e-10)
(-1.13961e-08 -6.96455e-10 9.31018e-10)
(0 0 0)
(-1.22697e-10 2.69117e-10 1.48422e-11)
(-2.45717e-10 5.25383e-10 2.98556e-11)
(-3.77375e-10 7.72708e-10 4.61378e-11)
(-5.30521e-10 1.02137e-09 6.52655e-11)
(-7.2016e-10 1.27908e-09 8.89724e-11)
(-9.6532e-10 1.55075e-09 1.19306e-10)
(-1.2912e-09 1.83784e-09 1.58767e-10)
(-1.73163e-09 2.13684e-09 2.10388e-10)
(-2.33158e-09 2.43689e-09 2.77691e-10)
(-3.14848e-09 2.71625e-09 3.64327e-10)
(-4.24941e-09 2.93834e-09 4.73129e-10)
(-5.69663e-09 3.04981e-09 6.04095e-10)
(-7.50623e-09 2.98865e-09 7.50855e-10)
(-9.55188e-09 2.72121e-09 8.95757e-10)
(-1.138e-08 2.3353e-09 1.00593e-09)
(-1.40473e-08 1.56968e-09 1.11694e-09)
(0 0 0)
(-1.46065e-10 3.44214e-10 1.8577e-11)
(-2.91385e-10 6.7226e-10 3.72923e-11)
(-4.44665e-10 9.89504e-10 5.74375e-11)
(-6.19655e-10 1.30965e-09 8.08771e-11)
(-8.31933e-10 1.64346e-09 1.09618e-10)
(-1.10063e-09 1.99889e-09 1.45975e-10)
(-1.45031e-09 2.38069e-09 1.92697e-10)
(-1.91311e-09 2.78953e-09 2.53022e-10)
(-2.53075e-09 3.22025e-09 3.30538e-10)
(-3.35596e-09 3.65949e-09 4.28711e-10)
(-4.45077e-09 4.08243e-09 5.49703e-10)
(-5.87645e-09 4.45e-09 6.92071e-10)
(-7.66129e-09 4.71006e-09 8.46999e-10)
(-9.71422e-09 4.81294e-09 9.93772e-10)
(-1.16207e-08 4.76121e-09 1.09876e-09)
(-1.47171e-08 4.42814e-09 1.18251e-09)
(0 0 0)
(-1.57561e-10 4.0721e-10 2.14495e-11)
(-3.1271e-10 7.95634e-10 4.29506e-11)
(-4.73145e-10 1.17205e-09 6.58785e-11)
(-6.51563e-10 1.55329e-09 9.22349e-11)
(-8.61653e-10 1.9531e-09 1.24116e-10)
(-1.1193e-09 2.38264e-09 1.63864e-10)
(-1.44371e-09 2.85064e-09 2.14161e-10)
(-1.85842e-09 3.36322e-09 2.78019e-10)
(-2.39208e-09 3.92338e-09 3.58574e-10)
(-3.07863e-09 4.53009e-09 4.58504e-10)
(-3.9563e-09 5.1766e-09 5.78805e-10)
(-5.06389e-09 5.84676e-09 7.16608e-10)
(-6.42905e-09 6.50643e-09 8.61974e-10)
(-8.0259e-09 7.08697e-09 9.94792e-10)
(-9.61198e-09 7.47088e-09 1.08608e-09)
(-1.29291e-08 7.62575e-09 1.15138e-09)
(0 0 0)
(-1.57388e-10 4.55638e-10 2.34238e-11)
(-3.10307e-10 8.90632e-10 4.67669e-11)
(-4.64318e-10 1.31299e-09 7.13847e-11)