/*--------------------------------*- C++ -*----------------------------------*\
| =========                 |                                                 |
| \\      /  F ield         | foam-extend: Open Source CFD                    |
|  \\    /   O peration     | Version:     3.1                                |
|   \\  /    A nd           | Web:         http://www.extend-project.de       |
|    \\/     M anipulation  |                                                 |
\*---------------------------------------------------------------------------*/
FoamFile
{
    version     2.0;
    format      ascii;
    class       surfaceVectorField;
    location    "2.2";
    object      Sf;
}
// * * * * * * * * * * * * * * * * * * * * * * * * * * * * * * * * * * * * * //

dimensions      [0 2 0 0 0 0 0];

internalField   nonuniform List<vector> 
41600
(
(0.000625431 -2.32718e-06 -1.55057e-08)
(-4.30965e-07 0.000705452 -1.05623e-08)
(9.04406e-09 1.01746e-08 0.000704544)
(-9.24364e-09 -1.03991e-08 -0.000704518)
(0.000625844 -4.48457e-06 -2.98546e-08)
(-4.12588e-07 0.000705283 -3.1603e-08)
(8.96873e-09 3.04365e-08 0.000704944)
(-9.1642e-09 -3.11055e-08 -0.000704898)
(0.000626247 -6.45156e-06 -4.29674e-08)
(-4.02678e-07 0.000705093 -5.30403e-08)
(9.46361e-09 5.11623e-08 0.000705317)
(-9.65661e-09 -5.22682e-08 -0.000705251)
(0.00062666 -8.27437e-06 -5.51601e-08)
(-4.12598e-07 0.000704949 -7.63147e-08)
(1.07374e-08 7.38638e-08 0.000705714)
(-1.0926e-08 -7.53993e-08 -0.000705626)
(0.000627101 -9.99046e-06 -6.68279e-08)
(-4.40774e-07 0.000704843 -1.03225e-07)
(1.27094e-08 1.00197e-07 0.000706154)
(-1.28793e-08 -1.02137e-07 -0.000706039)
(0.000627588 -1.16336e-05 -7.83661e-08)
(-4.8709e-07 0.00070477 -1.35777e-07)
(1.51808e-08 1.31508e-07 0.000706655)
(-1.53064e-08 -1.33781e-07 -0.000706508)
(0.000628139 -1.32287e-05 -8.94517e-08)
(-5.51678e-07 0.000704723 -1.76272e-07)
(1.77951e-08 1.68522e-07 0.000707235)
(-1.78449e-08 -1.70996e-07 -0.000707047)
(0.000628775 -1.47869e-05 -9.93179e-08)
(-6.35743e-07 0.000704686 -2.27454e-07)
(1.99873e-08 2.10942e-07 0.000707908)
(-1.99009e-08 -2.13379e-07 -0.000707671)
(0.000629516 -1.63046e-05 -1.06964e-07)
(-7.4149e-07 0.000704645 -2.93047e-07)
(2.05328e-08 2.56492e-07 0.000708693)
(-2.01897e-08 -2.58452e-07 -0.000708392)
(0.000630386 -1.77504e-05 -1.10088e-07)
(-8.70693e-07 0.000704571 -3.783e-07)
(1.69195e-08 2.98767e-07 0.000709602)
(-1.61889e-08 -2.99526e-07 -0.000709221)
(0.000631413 -1.90624e-05 -1.05773e-07)
(-1.02764e-06 0.000704436 -4.91283e-07)
(4.29652e-09 3.23253e-07 0.000710653)
(-3.09797e-09 -3.21836e-07 -0.000710166)
(0.000632629 -2.01365e-05 -9.18411e-08)
(-1.21764e-06 0.000704194 -6.46104e-07)
(-2.601e-08 3.00563e-07 0.000711866)
(2.76142e-08 -2.95935e-07 -0.000711233)
(0.000634071 -2.08261e-05 -7.07269e-08)
(-1.44355e-06 0.000703806 -8.69287e-07)
(-8.96742e-08 1.74625e-07 0.000713272)
(9.1322e-08 -1.66139e-07 -0.000712424)
(0.000635755 -2.10012e-05 -6.15254e-08)
(-1.68573e-06 0.000703287 -1.21061e-06)
(-2.06689e-07 -1.49755e-07 0.000714945)
(2.08481e-07 1.62595e-07 -0.000713743)
(0.000637465 -2.06977e-05 -1.34837e-07)
(-1.73062e-06 0.000702784 -1.73738e-06)
(-3.58175e-07 -7.69901e-07 0.000716929)
(3.78263e-07 8.07332e-07 -0.000715118)
(-6.95075e-06 0.000700636 -5.05656e-07)
(-1.66073e-06 -2.9579e-06 0.000721194)
(3.35915e-06 4.84812e-06 -0.000720234)
(0.000625414 -2.29589e-06 -4.64219e-08)
(-8.44178e-07 0.000707749 -2.06979e-08)
(2.66162e-08 9.59254e-09 0.000706861)
(-2.72142e-08 -9.81627e-09 -0.000706804)
(0.00062581 -4.42619e-06 -8.95257e-08)
(-8.07768e-07 0.000707414 -6.18953e-08)
(2.63121e-08 2.85986e-08 0.000707071)
(-2.69061e-08 -2.92744e-08 -0.000706998)
(0.000626195 -6.36892e-06 -1.29148e-07)
(-7.87534e-07 0.000707037 -1.03799e-07)
(2.76918e-08 4.78493e-08 0.000707234)
(-2.82915e-08 -4.8994e-08 -0.000707144)
(0.000626589 -8.16927e-06 -1.66077e-07)
(-8.0589e-07 0.000706751 -1.49184e-07)
(3.14025e-08 6.88126e-08 0.000707465)
(-3.19969e-08 -7.04431e-08 -0.000707356)
(0.000627009 -9.86884e-06 -2.01726e-07)
(-8.59941e-07 0.000706545 -2.01578e-07)
(3.71456e-08 9.30642e-08 0.000707776)
(-3.76956e-08 -9.51776e-08 -0.000707642)
(0.000627471 -1.15011e-05 -2.37211e-07)
(-9.4851e-07 0.000706405 -2.64883e-07)
(4.43767e-08 1.21867e-07 0.000708179)
(-4.48321e-08 -1.2445e-07 -0.000708014)
(0.000627991 -1.3089e-05 -2.71461e-07)
(-1.07202e-06 0.000706314 -3.43449e-07)
(5.23557e-08 1.56297e-07 0.000708677)
(-5.25916e-08 -1.59271e-07 -0.000708476)
(0.000628588 -1.46474e-05 -3.02518e-07)
(-1.2326e-06 0.000706247 -4.42651e-07)
(5.96673e-08 1.971e-07 0.000709274)
(-5.94466e-08 -2.00189e-07 -0.000709027)
(0.000629278 -1.61792e-05 -3.26971e-07)
(-1.43272e-06 0.000706179 -5.6944e-07)
(6.30026e-08 2.43798e-07 0.000709968)
(-6.19934e-08 -2.46495e-07 -0.000709667)
(0.00063008 -1.76706e-05 -3.38549e-07)
(-1.67492e-06 0.000706064 -7.33209e-07)
(5.59635e-08 2.93522e-07 0.000710744)
(-5.37741e-08 -2.95071e-07 -0.000710377)
(0.000631011 -1.90766e-05 -3.29073e-07)
(-1.96192e-06 0.000705841 -9.48175e-07)
(2.67359e-08 3.39728e-07 0.000711578)
(-2.30615e-08 -3.39054e-07 -0.00071113)
(0.00063208 -2.03144e-05 -2.90266e-07)
(-2.29205e-06 0.000705428 -1.23757e-06)
(-4.52608e-08 3.70304e-07 0.000712427)
(5.04486e-08 -3.65966e-07 -0.000711874)
(0.000633278 -2.12529e-05 -2.23607e-07)
(-2.64823e-06 0.000704735 -1.64244e-06)
(-1.93846e-07 3.67439e-07 0.000713236)
(2.00029e-07 -3.57512e-07 -0.000712529)
(0.000634529 -2.17354e-05 -1.68094e-07)
(-2.94417e-06 0.000703751 -2.2353e-06)
(-4.54514e-07 3.15906e-07 0.000713991)
(4.62715e-07 -2.97238e-07 -0.000713022)
(0.000635505 -2.17023e-05 -2.8536e-07)
(-2.75759e-06 0.000702716 -3.11604e-06)
(-7.6165e-07 2.32693e-07 0.000714797)
(8.12395e-07 -1.97556e-07 -0.000713301)
(-6.44446e-06 0.000699076 -2.37333e-06)
(-2.68578e-06 9.49213e-07 0.000713965)
(5.13421e-06 -2.03842e-06 -0.000711362)
(0.00062538 -2.23042e-06 -7.68913e-08)
(-1.22273e-06 0.000709979 -2.99573e-08)
(4.28555e-08 8.66934e-09 0.000709119)
(-4.38455e-08 -8.88674e-09 -0.000709033)
(0.000625742 -4.30002e-06 -1.48559e-07)
(-1.16904e-06 0.000709484 -8.95606e-08)
(4.21837e-08 2.57585e-08 0.000709126)
(-4.31758e-08 -2.64129e-08 -0.000709026)
(0.000626093 -6.18612e-06 -2.14527e-07)
(-1.13797e-06 0.000708924 -1.50093e-07)
(4.42546e-08 4.2915e-08 0.000709062)
(-4.52584e-08 -4.40032e-08 -0.00070895)
(0.000626451 -7.93612e-06 -2.76337e-07)
(-1.16257e-06 0.000708503 -2.15491e-07)
(5.01604e-08 6.15214e-08 0.000709112)
(-5.1162e-08 -6.30379e-08 -0.000708984)
(0.00062683 -9.593e-06 -3.37105e-07)
(-1.23795e-06 0.000708204 -2.90839e-07)
(5.93131e-08 8.30382e-08 0.000709281)
(-6.02874e-08 -8.50106e-08 -0.000709131)
(0.000627243 -1.11865e-05 -3.98074e-07)
(-1.36111e-06 0.000708001 -3.81642e-07)
(7.10763e-08 1.08823e-07 0.000709565)
(-7.19452e-08 -1.11276e-07 -0.000709387)
(0.000627704 -1.27418e-05 -4.57525e-07)
(-1.5324e-06 0.000707872 -4.93895e-07)
(8.47587e-08 1.40388e-07 0.000709957)
(-8.5282e-08 -1.43257e-07 -0.000709748)
(0.000628225 -1.42831e-05 -5.13204e-07)
(-1.75397e-06 0.000707791 -6.3496e-07)
(9.86387e-08 1.79335e-07 0.00071045)
(-9.8419e-08 -1.8245e-07 -0.000710202)
(0.000628819 -1.58236e-05 -5.59315e-07)
(-2.0277e-06 0.000707723 -8.14171e-07)
(1.08736e-07 2.27522e-07 0.000711026)
(-1.07256e-07 -2.30562e-07 -0.000710735)
(0.000629496 -1.7373e-05 -5.8683e-07)
(-2.35529e-06 0.000707616 -1.04392e-06)
(1.07535e-07 2.87431e-07 0.000711651)
(-1.04123e-07 -2.89805e-07 -0.000711312)
(0.000630261 -1.89206e-05 -5.82807e-07)
(-2.73291e-06 0.000707389 -1.34212e-06)
(8.18925e-08 3.62933e-07 0.000712261)
(-7.58116e-08 -3.63556e-07 -0.000711871)
(0.000631102 -2.04262e-05 -5.30884e-07)
(-3.14257e-06 0.000706931 -1.73614e-06)
(1.01656e-08 4.61562e-07 0.000712757)
(-8.69282e-10 -4.58608e-07 -0.000712311)
(0.000631975 -2.18055e-05 -4.21073e-07)
(-3.53438e-06 0.000706104 -2.27161e-06)
(-1.38132e-07 6.00141e-07 0.000713001)
(1.50903e-07 -5.90704e-07 -0.000712482)
(0.000632769 -2.29108e-05 -2.79039e-07)
(-3.75636e-06 0.000704836 -3.02636e-06)
(-3.83375e-07 8.13317e-07 0.000712888)
(4.02122e-07 -7.93171e-07 -0.000712239)
(0.000633216 -2.35918e-05 -2.6795e-07)
(-3.26745e-06 0.000703369 -4.12266e-06)
(-6.34427e-07 1.14025e-06 0.000712595)
(6.97443e-07 -1.11266e-06 -0.000711599)
(-7.56708e-06 0.000700525 -2.98142e-06)
(-1.5254e-06 1.93896e-06 0.000710605)
(2.73878e-06 -2.25904e-06 -0.000709949)
(0.00062533 -2.12967e-06 -1.05875e-07)
(-1.5515e-06 0.000712109 -3.79319e-08)
(5.72605e-08 7.51778e-09 0.000711285)
(-5.86164e-08 -7.71214e-09 -0.000711171)
(0.000625644 -4.10277e-06 -2.0504e-07)
(-1.48197e-06 0.000711458 -1.13393e-07)
(5.62119e-08 2.23629e-08 0.000711075)
(-5.75683e-08 -2.29414e-08 -0.000710952)
(0.000625948 -5.90019e-06 -2.96161e-07)
(-1.44023e-06 0.000710723 -1.89915e-07)
(5.88762e-08 3.73189e-08 0.000710775)
(-6.02359e-08 -3.82735e-08 -0.000710644)
(0.000626255 -7.56734e-06 -3.82609e-07)
(-1.46797e-06 0.000710171 -2.72415e-07)
(6.67171e-08 5.3559e-08 0.000710634)
(-6.80951e-08 -5.49102e-08 -0.00071049)
(0.000626576 -9.13982e-06 -4.69105e-07)
(-1.55758e-06 0.000709778 -3.67217e-07)
(7.89646e-08 7.24101e-08 0.000710645)
(-8.03661e-08 -7.42128e-08 -0.000710482)
(0.000626921 -1.06503e-05 -5.56185e-07)
(-1.70494e-06 0.000709514 -4.80891e-07)
(9.51449e-08 9.52913e-08 0.000710792)
(-9.64369e-08 -9.75796e-08 -0.000710606)
(0.000627299 -1.21333e-05 -6.42474e-07)
(-1.90938e-06 0.000709357 -6.20586e-07)
(1.1473e-07 1.23848e-07 0.000711062)
(-1.1561e-07 -1.26621e-07 -0.000710849)
(0.000627717 -1.36208e-05 -7.26473e-07)
(-2.17178e-06 0.000709282 -7.94973e-07)
(1.3636e-07 1.60275e-07 0.00071144)
(-1.36376e-07 -1.63517e-07 -0.000711196)
(0.00062818 -1.51422e-05 -8.0136e-07)
(-2.49285e-06 0.000709248 -1.01488e-06)
(1.5719e-07 2.08309e-07 0.000711894)
(-1.55637e-07 -2.11895e-07 -0.000711618)
(0.000628692 -1.67233e-05 -8.56607e-07)
(-2.87146e-06 0.000709201 -1.2945e-06)
(1.71486e-07 2.74562e-07 0.000712377)
(-1.67371e-07 -2.78081e-07 -0.000712071)
(0.00062925 -1.83927e-05 -8.75862e-07)
(-3.29862e-06 0.000709061 -1.65372e-06)
(1.69524e-07 3.70469e-07 0.000712806)
(-1.61503e-07 -3.72972e-07 -0.000712475)
(0.000629837 -2.01688e-05 -8.35054e-07)
(-3.74309e-06 0.000708706 -2.12207e-06)
(1.36948e-07 5.16322e-07 0.000713055)
(-1.23565e-07 -5.15908e-07 -0.00071271)
(0.000630408 -2.2037e-05 -7.05942e-07)
(-4.12562e-06 0.000707966 -2.74641e-06)
(5.43097e-08 7.44084e-07 0.000712936)
(-3.40603e-08 -7.3752e-07 -0.00071259)
(0.000630878 -2.3884e-05 -4.79322e-07)
(-4.25641e-06 0.000706667 -3.60629e-06)
(-8.81421e-08 1.0908e-06 0.000712272)
(1.1847e-07 -1.07415e-06 -0.000711919)
(0.000631095 -2.5424e-05 -2.51724e-07)
(-3.54852e-06 0.000704888 -4.84739e-06)
(-2.36469e-07 1.55156e-06 0.000711213)
(3.00437e-07 -1.5307e-06 -0.000710716)
(-7.95082e-06 0.000703154 -3.46274e-06)
(-5.27493e-07 2.33873e-06 0.000708864)
(1.05547e-06 -2.8032e-06 -0.000709431)
(0.000625269 -1.99096e-06 -1.32715e-07)
(-1.81856e-06 0.0007141 -4.43742e-08)
(6.97843e-08 6.54158e-09 0.000713323)
(-7.14698e-08 -6.71811e-09 -0.000713184)
(0.000625524 -3.83196e-06 -2.57348e-07)
(-1.73512e-06 0.000713299 -1.32559e-07)
(6.84544e-08 1.94855e-08 0.000712889)
(-7.0135e-08 -2.0013e-08 -0.000712745)
(0.000625768 -5.50583e-06 -3.72272e-07)
(-1.68304e-06 0.000712397 -2.21789e-07)
(7.16633e-08 3.2546e-08 0.000712347)
(-7.33602e-08 -3.34411e-08 -0.0007122)
(0.000626012 -7.05085e-06 -4.82858e-07)
(-1.71006e-06 0.000711718 -3.1777e-07)
(8.11884e-08 4.67059e-08 0.000712005)
(-8.29518e-08 -4.80184e-08 -0.000711849)
(0.000626263 -8.5009e-06 -5.93777e-07)
(-1.80642e-06 0.00071123 -4.27575e-07)
(9.6239e-08 6.31478e-08 0.000711844)
(-9.8075e-08 -6.49346e-08 -0.000711672)
(0.000626526 -9.89294e-06 -7.05717e-07)
(-1.96673e-06 0.000710908 -5.58362e-07)
(1.16518e-07 8.31451e-08 0.000711841)
(-1.18276e-07 -8.54705e-08 -0.000711652)
(0.000626806 -1.12617e-05 -8.19311e-07)
(-2.18831e-06 0.000710729 -7.17983e-07)
(1.4178e-07 1.08272e-07 0.000711982)
(-1.43153e-07 -1.11219e-07 -0.000711771)
(0.000627105 -1.26409e-05 -9.3416e-07)
(-2.46957e-06 0.000710665 -9.1578e-07)
(1.7165e-07 1.41014e-07 0.000712241)
(-1.72164e-07 -1.4466e-07 -0.000712005)
(0.000627419 -1.4071e-05 -1.04434e-06)
(-2.80867e-06 0.000710682 -1.16312e-06)
(2.0534e-07 1.85797e-07 0.00071258)
(-2.04143e-07 -1.90159e-07 -0.000712321)
(0.000627746 -1.55991e-05 -1.13983e-06)
(-3.20205e-06 0.000710734 -1.47482e-06)
(2.40583e-07 2.50523e-07 0.000712945)
(-2.36395e-07 -2.55445e-07 -0.00071267)
(0.000628078 -1.72897e-05 -1.20452e-06)
(-3.64009e-06 0.000710757 -1.8721e-06)
(2.7341e-07 3.48825e-07 0.00071326)
(-2.64276e-07 -3.53727e-07 -0.000712977)
(0.000628407 -1.92261e-05 -1.20873e-06)
(-4.08916e-06 0.000710646 -2.38643e-06)
(2.99787e-07 5.03651e-07 0.0007134)
(-2.8301e-07 -5.06895e-07 -0.000713132)
(0.000628714 -2.14718e-05 -1.10677e-06)
(-4.45977e-06 0.00071021 -3.0671e-06)
(3.10257e-07 7.49057e-07 0.000713169)
(-2.8296e-07 -7.47528e-07 -0.00071295)
(0.000628961 -2.39675e-05 -8.46185e-07)
(-4.54491e-06 0.000709152 -3.99763e-06)
(2.89047e-07 1.11729e-06 0.00071231)
(-2.47701e-07 -1.10698e-06 -0.000712179)
(0.000629063 -2.62902e-05 -3.92744e-07)
(-3.71382e-06 0.000707196 -5.33845e-06)
(2.11567e-07 1.58466e-06 0.000710714)
(-1.47957e-07 -1.56952e-06 -0.000710676)
(-8.10578e-06 0.000706742 -3.69268e-06)
(3.36313e-07 2.25469e-06 0.000708436)
(-5.33501e-07 -2.58278e-06 -0.000710505)
(0.000625198 -1.81701e-06 -1.57389e-07)
(-2.01465e-06 0.000715917 -4.90498e-08)
(8.07578e-08 5.76845e-09 0.000715198)
(-8.27478e-08 -5.93453e-09 -0.000715036)
(0.000625385 -3.49364e-06 -3.04943e-07)
(-1.91993e-06 0.000714977 -1.46405e-07)
(7.91749e-08 1.71492e-08 0.000714537)
(-8.1162e-08 -1.76513e-08 -0.000714376)
(0.000625562 -5.01072e-06 -4.41808e-07)
(-1.85814e-06 0.000713915 -2.44645e-07)
(8.28061e-08 2.85352e-08 0.000713753)
(-8.48387e-08 -2.93918e-08 -0.000713593)
(0.000625736 -6.40375e-06 -5.73987e-07)
(-1.88149e-06 0.000713112 -3.49907e-07)
(9.37263e-08 4.07375e-08 0.000713204)
(-9.5871e-08 -4.19838e-08 -0.00071304)
(0.00062591 -7.70632e-06 -7.05347e-07)
(-1.97817e-06 0.000712534 -4.69596e-07)
(1.11151e-07 5.47348e-08 0.000712863)
(-1.13431e-07 -5.64366e-08 -0.000712689)
(0.000626085 -8.94712e-06 -8.39365e-07)
(-2.14025e-06 0.000712151 -6.11183e-07)
(1.3494e-07 7.16034e-08 0.000712705)
(-1.37222e-07 -7.38637e-08 -0.000712518)
(0.000626261 -1.0152e-05 -9.79089e-07)
(-2.36241e-06 0.000711937 -7.82713e-07)
(1.65241e-07 9.27453e-08 0.000712704)
(-1.67227e-07 -9.56871e-08 -0.0007125)
(0.000626433 -1.13517e-05 -1.12475e-06)
(-2.64022e-06 0.000711869 -9.93391e-07)
(2.02765e-07 1.20325e-07 0.000712832)
(-2.04e-07 -1.24118e-07 -0.000712609)
(0.000626593 -1.25876e-05 -1.27331e-06)
(-2.96872e-06 0.000711923 -1.25427e-06)
(2.48739e-07 1.58061e-07 0.000713053)
(-2.48317e-07 -1.62923e-07 -0.000712813)
(0.000626729 -1.39212e-05 -1.41743e-06)
(-3.34182e-06 0.000712073 -1.57978e-06)
(3.04348e-07 2.12386e-07 0.000713317)
(-3.00798e-07 -2.18471e-07 -0.000713068)
(0.000626832 -1.5444e-05 -1.54474e-06)
(-3.75226e-06 0.000712287 -1.99126e-06)
(3.71009e-07 2.93953e-07 0.000713567)
(-3.61907e-07 -3.01166e-07 -0.00071332)
(0.0006269 -1.72841e-05 -1.62757e-06)
(-4.17572e-06 0.000712494 -2.52218e-06)
(4.53701e-07 4.20053e-07 0.000713708)
(-4.3518e-07 -4.2766e-07 -0.000713489)
(0.000626952 -1.95907e-05 -1.61586e-06)
(-4.54431e-06 0.000712523 -3.22847e-06)
(5.53083e-07 6.1811e-07 0.00071357)
(-5.20645e-07 -6.23946e-07 -0.000713421)
(0.000627033 -2.2453e-05 -1.42074e-06)
(-4.67669e-06 0.000712014 -4.20814e-06)
(6.44406e-07 9.18361e-07 0.000712865)
(-5.92857e-07 -9.17904e-07 -0.000712849)
(0.000627148 -2.54887e-05 -8.17128e-07)
(-3.89625e-06 0.000710225 -5.63538e-06)
(6.25394e-07 1.31142e-06 0.000711078)
(-5.58669e-07 -1.30444e-06 -0.000711385)
(-8.30088e-06 0.000711821 -3.79482e-06)
(1.0681e-06 1.8883e-06 0.000709577)
(-1.81247e-06 -2.1182e-06 -0.000713231)
(0.000625121 -1.61421e-06 -1.78926e-07)
(-2.13355e-06 0.000717532 -5.17701e-08)
(9.04492e-08 5.10075e-09 0.00071688)
(-9.27207e-08 -5.25153e-09 -0.000716698)
(0.000625235 -3.09979e-06 -3.46234e-07)
(-2.03106e-06 0.000716463 -1.54402e-07)
(8.85556e-08 1.50988e-08 0.000715996)
(-9.08285e-08 -1.55514e-08 -0.00071582)
(0.00062534 -4.43726e-06 -5.01908e-07)
(-1.96141e-06 0.000715253 -2.57703e-07)
(9.24195e-08 2.49364e-08 0.000714973)
(-9.47637e-08 -2.57054e-08 -0.000714804)
(0.00062544 -5.65678e-06 -6.51233e-07)
(-1.97926e-06 0.000714333 -3.67899e-07)
(1.04378e-07 3.52604e-08 0.000714217)
(-1.06876e-07 -3.63859e-08 -0.00071405)
(0.000625536 -6.78163e-06 -7.98825e-07)
(-2.07052e-06 0.00071366 -4.92358e-07)
(1.23619e-07 4.68389e-08 0.000713694)
(-1.26331e-07 -4.83914e-08 -0.000713524)
(0.000625623 -7.82914e-06 -9.51763e-07)
(-2.22446e-06 0.000713201 -6.38561e-07)
(1.50141e-07 6.04731e-08 0.00071337)
(-1.52957e-07 -6.25598e-08 -0.00071319)
(0.000625696 -8.81744e-06 -1.11402e-06)
(-2.43281e-06 0.000712928 -8.14176e-07)
(1.84412e-07 7.71603e-08 0.000713211)
(-1.87062e-07 -7.99313e-08 -0.000713018)
(0.000625745 -9.76893e-06 -1.28685e-06)
(-2.68798e-06 0.000712824 -1.02752e-06)
(2.27856e-07 9.82832e-08 0.000713188)
(-2.2995e-07 -1.01959e-07 -0.000712981)
(0.000625758 -1.07143e-05 -1.47031e-06)
(-2.98109e-06 0.000712873 -1.28846e-06)
(2.83002e-07 1.25914e-07 0.000713269)
(-2.8367e-07 -1.30804e-07 -0.000713051)
(0.000625716 -1.17003e-05 -1.66083e-06)
(-3.30187e-06 0.000713066 -1.60964e-06)
(3.53163e-07 1.63232e-07 0.000713416)
(-3.50855e-07 -1.69705e-07 -0.000713196)
(0.000625598 -1.28066e-05 -1.85278e-06)
(-3.64228e-06 0.000713401 -2.01021e-06)
(4.42809e-07 2.14931e-07 0.000713593)
(-4.34988e-07 -2.23465e-07 -0.000713382)
(0.000625394 -1.41511e-05 -2.03089e-06)
(-3.9893e-06 0.000713849 -2.52278e-06)
(5.61749e-07 2.87517e-07 0.000713734)
(-5.44108e-07 -2.98789e-07 -0.000713555)
(0.000625135 -1.59253e-05 -2.16255e-06)
(-4.31841e-06 0.000714311 -3.209e-06)
(7.18768e-07 3.91475e-07 0.00071372)
(-6.85329e-07 -4.05737e-07 -0.000713608)
(0.000624955 -1.84178e-05 -2.16169e-06)
(-4.55457e-06 0.000714522 -4.19474e-06)
(8.90555e-07 5.45535e-07 0.00071334)
(-8.33005e-07 -5.60846e-07 -0.000713354)
(0.000625116 -2.16852e-05 -1.63063e-06)
(-4.12915e-06 0.000713505 -5.711e-06)
(9.42021e-07 7.77472e-07 0.000711851)
(-8.69359e-07 -7.90125e-07 -0.000712306)
(-9.4021e-06 0.000720744 -3.77453e-06)
(1.78661e-06 1.30408e-06 0.000713674)
(-2.94599e-06 -1.47592e-06 -0.000719118)
(0.000625041 -1.38675e-06 -1.96484e-07)
(9.90112e-08 4.50576e-09 0.000718342)
(-1.01538e-07 -4.6418e-09 -0.000718145)
(-2.17207e-06 0.000718919 -5.25231e-08)
(0.000625079 -2.66317e-06 -3.79658e-07)
(9.67349e-08 1.328e-08 0.000717247)
(-9.92572e-08 -1.36808e-08 -0.000717062)
(-2.06634e-06 0.000717739 -1.56515e-07)
(0.000625112 -3.80743e-06 -5.49855e-07)
(1.00604e-07 2.17247e-08 0.000715997)
(-1.03222e-07 -2.23959e-08 -0.000715824)
(-1.99202e-06 0.000716398 -2.60878e-07)
(0.000625139 -4.8359e-06 -7.12131e-07)
(1.13215e-07 3.03023e-08 0.000715039)
(-1.16035e-07 -3.12861e-08 -0.000714873)
(-2.00363e-06 0.000715362 -3.71761e-07)
(0.000625157 -5.75921e-06 -8.73069e-07)
(1.33653e-07 3.95563e-08 0.000714329)
(-1.36755e-07 -4.09135e-08 -0.000714164)
(-2.08529e-06 0.000714585 -4.96325e-07)
(0.00062516 -6.58694e-06 -1.04073e-06)
(1.61938e-07 4.99106e-08 0.000713825)
(-1.65248e-07 -5.17309e-08 -0.000713654)
(-2.22413e-06 0.000714031 -6.41545e-07)
(0.00062514 -7.32863e-06 -1.21918e-06)
(1.98703e-07 6.18038e-08 0.000713491)
(-2.02004e-07 -6.42413e-08 -0.000713312)
(-2.40891e-06 0.000713672 -8.14196e-07)
(0.000625082 -7.9926e-06 -1.41139e-06)
(2.45595e-07 7.57094e-08 0.000713294)
(-2.48539e-07 -7.89617e-08 -0.000713108)
(-2.62793e-06 0.000713491 -1.02126e-06)
(0.00062497 -8.58878e-06 -1.61871e-06)
(3.05417e-07 9.19321e-08 0.000713204)
(-3.07205e-07 -9.62548e-08 -0.000713014)
(-2.86717e-06 0.000713474 -1.27059e-06)
(0.000624777 -9.13113e-06 -1.84143e-06)
(3.81865e-07 1.10355e-07 0.000713186)
(-3.81061e-07 -1.1619e-07 -0.000713001)
(-3.10955e-06 0.000713614 -1.57159e-06)
(0.000624464 -9.63827e-06 -2.08042e-06)
(4.79686e-07 1.29989e-07 0.000713207)
(-4.74013e-07 -1.3815e-07 -0.00071304)
(-3.3352e-06 0.000713917 -1.93756e-06)
(0.000623977 -1.01347e-05 -2.33337e-06)
(6.07316e-07 1.46439e-07 0.000713186)
(-5.92942e-07 -1.58518e-07 -0.000713066)
(-3.51626e-06 0.000714358 -2.38976e-06)
(0.000623233 -1.06782e-05 -2.59289e-06)
(7.71881e-07 1.47524e-07 0.000712961)
(-7.43072e-07 -1.66587e-07 -0.000712944)
(-3.60332e-06 0.000714874 -2.96599e-06)
(0.000622101 -1.14203e-05 -2.81917e-06)
(9.51009e-07 1.12639e-07 0.000712166)
(-8.99658e-07 -1.44907e-07 -0.000712397)
(-3.47337e-06 0.000715296 -3.73798e-06)
(0.000620431 -1.2968e-05 -2.68783e-06)
(1.03024e-06 4.15962e-08 0.000709706)
(-9.63401e-07 -9.30209e-08 -0.000710736)
(-2.52693e-06 0.000715104 -4.81242e-06)
(2.58001e-06 4.25542e-07 0.000722544)
(-4.03198e-06 -5.73034e-07 -0.000730227)
(-1.45319e-05 0.000738559 -3.13836e-06)
(0.000625449 -2.35572e-06 -1.29892e-08)
(-4.48857e-07 0.000705481 -9.61311e-09)
(8.51126e-09 9.57517e-09 0.000704567)
(0.00062588 -4.53975e-06 -2.51383e-08)
(-4.30334e-07 0.000705311 -2.87479e-08)
(8.44461e-09 2.86482e-08 0.000704984)
(0.000626302 -6.531e-06 -3.60615e-08)
(-4.21158e-07 0.000705119 -4.81301e-08)
(8.92435e-09 4.8178e-08 0.000705376)
(0.000626736 -8.37612e-06 -4.58515e-08)
(-4.33236e-07 0.000704974 -6.89203e-08)
(1.01618e-08 6.9626e-08 0.000705793)
(0.000627201 -1.01134e-05 -5.4949e-08)
(-4.65037e-07 0.000704868 -9.25804e-08)
(1.20737e-08 9.45978e-08 0.000706256)
(0.000627719 -1.17771e-05 -6.32443e-08)
(-5.16562e-07 0.000704796 -1.20547e-07)
(1.44938e-08 1.24421e-07 0.000706784)
(0.000628308 -1.33911e-05 -7.0162e-08)
(-5.88186e-07 0.000704748 -1.5436e-07)
(1.71274e-08 1.5991e-07 0.000707396)
(0.000628989 -1.49652e-05 -7.50055e-08)
(-6.81361e-07 0.000704709 -1.95666e-07)
(1.94523e-08 2.00972e-07 0.000708109)
(0.000629788 -1.6494e-05 -7.66531e-08)
(-7.98827e-07 0.000704665 -2.46014e-07)
(2.03924e-08 2.45746e-07 0.000708941)
(0.000630731 -1.79419e-05 -7.32832e-08)
(-9.43082e-07 0.000704583 -3.06827e-07)
(1.78938e-08 2.88915e-07 0.000709906)
(0.000631847 -1.92433e-05 -6.36853e-08)
(-1.11982e-06 0.000704431 -3.79082e-07)
(7.9852e-09 3.18527e-07 0.000711023)
(0.000633172 -2.02923e-05 -4.83797e-08)
(-1.33606e-06 0.000704163 -4.61173e-07)
(-1.5805e-08 3.11148e-07 0.000712312)
(0.000634742 -2.09516e-05 -3.42092e-08)
(-1.59598e-06 0.000703733 -5.42375e-07)
(-6.31271e-08 2.25661e-07 0.000713801)
(0.000636552 -2.11278e-05 -4.04483e-08)
(-1.8764e-06 0.000703148 -5.86037e-07)
(-1.40106e-07 3.55673e-09 0.000715537)
(0.000638361 -2.09453e-05 -8.80428e-08)
(-1.95008e-06 0.000702561 -5.18451e-07)
(-2.17279e-07 -3.88837e-07 0.000717495)
(-5.43109e-06 0.00070177 -2.64806e-07)
(-7.72841e-07 -1.46415e-06 0.000721789)
(0.000625432 -2.32445e-06 -3.90786e-08)
(-8.7918e-07 0.000707806 -1.88597e-08)
(2.50364e-08 9.01403e-09 0.000706909)
(0.000625846 -4.48163e-06 -7.57191e-08)
(-8.42414e-07 0.00070747 -5.63309e-08)
(2.47451e-08 2.68582e-08 0.000707135)
(0.00062625 -6.44925e-06 -1.0884e-07)
(-8.23552e-07 0.00070709 -9.41718e-08)
(2.60699e-08 4.49149e-08 0.000707313)
(0.000626664 -8.2729e-06 -1.38858e-07)
(-8.46024e-07 0.000706802 -1.34677e-07)
(2.96528e-08 6.45952e-08 0.000707561)
(0.000627108 -9.99499e-06 -1.66814e-07)
(-9.07094e-07 0.000706596 -1.80704e-07)
(3.52175e-08 8.74368e-08 0.000707893)
(0.000627599 -1.16493e-05 -1.92503e-07)
(-1.00582e-06 0.000706457 -2.35169e-07)
(4.23095e-08 1.14722e-07 0.000708319)
(0.000628156 -1.32582e-05 -2.14341e-07)
(-1.1428e-06 0.000706365 -3.01002e-07)
(5.0301e-08 1.47559e-07 0.000708846)
(0.000628797 -1.48353e-05 -2.30167e-07)
(-1.3209e-06 0.000706296 -3.81137e-07)
(5.79293e-08 1.86789e-07 0.000709475)
(0.000629543 -1.63806e-05 -2.36155e-07)
(-1.54336e-06 0.000706221 -4.78618e-07)
(6.23923e-08 2.32328e-07 0.000710206)
(0.000630411 -1.7877e-05 -2.2676e-07)
(-1.81382e-06 0.000706091 -5.96108e-07)
(5.83114e-08 2.82034e-07 0.000711024)
(0.000631419 -1.92761e-05 -1.98616e-07)
(-2.1367e-06 0.00070584 -7.34521e-07)
(3.57996e-08 3.30361e-07 0.000711905)
(0.000632569 -2.04889e-05 -1.50118e-07)
(-2.51149e-06 0.000705379 -8.88803e-07)
(-2.05478e-08 3.67119e-07 0.000712806)
(0.000633832 -2.13802e-05 -9.51825e-08)
(-2.92026e-06 0.000704614 -1.03603e-06)
(-1.31769e-07 3.77791e-07 0.000713674)
(0.000635071 -2.18001e-05 -8.00687e-08)
(-3.26417e-06 0.000703534 -1.10629e-06)
(-3.06316e-07 3.49874e-07 0.000714496)
(0.000635932 -2.17182e-05 -1.56646e-07)
(-3.10725e-06 0.000702418 -9.72692e-07)
(-4.65355e-07 2.93892e-07 0.000715328)
(-4.82822e-06 0.000699316 -2.61584e-07)
(-1.26347e-06 5.98775e-07 0.000714589)
(0.000625397 -2.25849e-06 -6.51442e-08)
(-1.2733e-06 0.000710065 -2.73149e-08)
(4.02802e-08 8.12804e-09 0.000709193)
(0.000625776 -4.35426e-06 -1.26017e-07)
(-1.21906e-06 0.000709567 -8.15399e-08)
(3.96321e-08 2.41526e-08 0.000709212)
(0.000626145 -6.26443e-06 -1.81335e-07)
(-1.18993e-06 0.000709003 -1.36263e-07)
(4.16202e-08 4.02594e-08 0.00070916)
(0.000626522 -8.03748e-06 -2.32225e-07)
(-1.22037e-06 0.000708579 -1.94816e-07)
(4.7303e-08 5.77689e-08 0.000709223)
(0.000626924 -9.71784e-06 -2.80208e-07)
(-1.30576e-06 0.000708281 -2.61255e-07)
(5.61526e-08 7.807e-08 0.000709409)
(0.000627365 -1.13349e-05 -3.24946e-07)
(-1.44324e-06 0.000708081 -3.39672e-07)
(6.76597e-08 1.02473e-07 0.000709714)
(0.000627859 -1.29132e-05 -3.63939e-07)
(-1.63336e-06 0.000707952 -4.34038e-07)
(8.12478e-08 1.32471e-07 0.000710129)
(0.00062842 -1.44764e-05 -3.93491e-07)
(-1.87925e-06 0.000707869 -5.48299e-07)
(9.54652e-08 1.69715e-07 0.000710647)
(0.000629062 -1.60357e-05 -4.06985e-07)
(-2.18365e-06 0.000707792 -6.86493e-07)
(1.07021e-07 2.16123e-07 0.000711248)
(0.000629796 -1.75984e-05 -3.95751e-07)
(-2.54948e-06 0.000707667 -8.519e-07)
(1.0938e-07 2.74036e-07 0.000711895)
(0.000630624 -1.91481e-05 -3.51995e-07)
(-2.97384e-06 0.000707405 -1.04457e-06)
(9.14205e-08 3.46898e-07 0.000712527)
(0.000631524 -2.06361e-05 -2.66888e-07)
(-3.43791e-06 0.000706888 -1.2549e-06)
(3.64902e-08 4.40552e-07 0.000713038)
(0.000632428 -2.19624e-05 -1.4765e-07)
(-3.88665e-06 0.000705975 -1.44767e-06)
(-7.54777e-08 5.65374e-07 0.000713293)
(0.000633173 -2.29571e-05 -4.09113e-08)
(-4.14692e-06 0.000704604 -1.52505e-06)
(-2.45828e-07 7.3764e-07 0.0007132)
(0.000633497 -2.34569e-05 -1.43471e-08)
(-3.68077e-06 0.000703095 -1.32493e-06)
(-3.84659e-07 9.63699e-07 0.00071292)
(-5.32277e-06 0.000700261 -3.85531e-07)
(-7.26988e-07 1.37835e-06 0.000711116)
(0.000625346 -2.15563e-06 -9.0104e-08)
(-1.61542e-06 0.000712221 -3.46236e-08)
(5.37953e-08 7.05869e-09 0.000711382)
(0.000625675 -4.1535e-06 -1.74189e-07)
(-1.54525e-06 0.000711566 -1.0338e-07)
(5.27936e-08 2.09948e-08 0.000711181)
(0.000625995 -5.97373e-06 -2.50874e-07)
(-1.50585e-06 0.000710825 -1.72746e-07)
(5.53659e-08 3.50454e-08 0.000710888)
(0.000626319 -7.66374e-06 -3.22528e-07)
(-1.54085e-06 0.000710272 -2.46835e-07)
(6.29035e-08 5.03296e-08 0.000710757)
(0.00062666 -9.26011e-06 -3.91437e-07)
(-1.64284e-06 0.000709882 -3.30714e-07)
(7.47029e-08 6.80925e-08 0.000710783)
(0.000627029 -1.07945e-05 -4.56553e-07)
(-1.80753e-06 0.000709621 -4.29237e-07)
(9.04367e-08 8.96718e-08 0.000710947)
(0.000627436 -1.23017e-05 -5.14654e-07)
(-2.03473e-06 0.000709466 -5.4704e-07)
(1.09732e-07 1.16668e-07 0.000711233)
(0.000627887 -1.38141e-05 -5.60858e-07)
(-2.32621e-06 0.000709391 -6.88772e-07)
(1.31513e-07 1.51216e-07 0.000711627)
(0.000628391 -1.53603e-05 -5.86648e-07)
(-2.68354e-06 0.00070935 -8.58882e-07)
(1.53437e-07 1.96765e-07 0.000712092)
(0.000628949 -1.69644e-05 -5.80796e-07)
(-3.10672e-06 0.000709286 -1.06071e-06)
(1.70457e-07 2.5928e-07 0.00071258)
(0.000629558 -1.86505e-05 -5.28148e-07)
(-3.58704e-06 0.000709113 -1.29335e-06)
(1.74445e-07 3.48943e-07 0.000713002)
(0.000630194 -2.04284e-05 -4.10324e-07)
(-4.09061e-06 0.0007087 -1.54332e-06)
(1.53364e-07 4.82433e-07 0.000713225)
(0.000630799 -2.22599e-05 -2.14021e-07)
(-4.52847e-06 0.000707869 -1.7651e-06)
(9.14912e-08 6.82072e-07 0.000713057)
(0.000631264 -2.39934e-05 3.90978e-08)
(-4.68546e-06 0.000706464 -1.83976e-06)
(-1.5266e-08 9.64455e-07 0.000712334)
(0.000631465 -2.53023e-05 2.69717e-07)
(-3.99967e-06 0.000704654 -1.5819e-06)
(-1.18113e-07 1.30114e-06 0.000711239)
(-5.32074e-06 0.000702246 -5.08085e-07)
(-2.39489e-07 1.73487e-06 0.000708942)
(0.000625282 -2.01489e-06 -1.13082e-07)
(-1.89322e-06 0.000714237 -4.05286e-08)
(6.55491e-08 6.13587e-09 0.000713442)
(0.00062555 -3.87883e-06 -2.19231e-07)
(-1.80897e-06 0.000713432 -1.21009e-07)
(6.42699e-08 1.82641e-08 0.000713013)
(0.000625808 -5.57453e-06 -3.16468e-07)
(-1.75947e-06 0.000712523 -2.02092e-07)
(6.73627e-08 3.04846e-08 0.000712474)
(0.000626066 -7.1416e-06 -4.08499e-07)
(-1.79475e-06 0.000711842 -2.8846e-07)
(7.64952e-08 4.37307e-08 0.000712139)
(0.000626334 -8.61305e-06 -4.97764e-07)
(-1.90491e-06 0.000711357 -3.85817e-07)
(9.09402e-08 5.91165e-08 0.000711988)
(0.000626617 -1.00263e-05 -5.8243e-07)
(-2.08442e-06 0.000711039 -4.99447e-07)
(1.10546e-07 7.78371e-08 0.000711996)
(0.00062692 -1.14184e-05 -6.59884e-07)
(-2.33112e-06 0.000710865 -6.34384e-07)
(1.35259e-07 1.01391e-07 0.000712146)
(0.000627244 -1.28239e-05 -7.25159e-07)
(-2.64413e-06 0.000710805 -7.95561e-07)
(1.64869e-07 1.321e-07 0.000712413)
(0.00062759 -1.42837e-05 -7.68745e-07)
(-3.02229e-06 0.000710821 -9.8747e-07)
(1.98817e-07 1.73999e-07 0.000712752)
(0.000627951 -1.58448e-05 -7.7672e-07)
(-3.4632e-06 0.000710864 -1.21328e-06)
(2.35165e-07 2.34235e-07 0.000713106)
(0.000628325 -1.75709e-05 -7.27893e-07)
(-3.95772e-06 0.000710863 -1.4716e-06)
(2.70587e-07 3.24763e-07 0.000713389)
(0.000628702 -1.95354e-05 -5.91052e-07)
(-4.46829e-06 0.000710703 -1.74671e-06)
(3.00455e-07 4.64838e-07 0.000713467)
(0.000629065 -2.17797e-05 -3.23747e-07)
(-4.89346e-06 0.000710182 -1.98654e-06)
(3.12217e-07 6.79936e-07 0.000713123)
(0.000629382 -2.41998e-05 9.32303e-08)
(-4.99897e-06 0.000709016 -2.05879e-06)
(2.85065e-07 9.85127e-07 0.000712112)
(0.000629589 -2.62884e-05 5.78087e-07)
(-4.19036e-06 0.000706988 -1.76237e-06)
(1.9618e-07 1.33944e-06 0.000710409)
(-5.14482e-06 0.000705081 -6.18153e-07)
(1.96573e-07 1.73754e-06 0.000708036)
(0.000625209 -1.83889e-06 -1.34171e-07)