/*--------------------------------*- C++ -*----------------------------------*\
| =========                 |                                                 |
| \\      /  F ield         | foam-extend: Open Source CFD                    |
|  \\    /   O peration     | Version:     3.1                                |
|   \\  /    A nd           | Web:         http://www.extend-project.de       |
|    \\/     M anipulation  |                                                 |
\*---------------------------------------------------------------------------*/
FoamFile
{
    version     2.0;
    format      ascii;
    class       volVectorField;
    location    "2.2";
    object      U;
}
// * * * * * * * * * * * * * * * * * * * * * * * * * * * * * * * * * * * * * //

dimensions      [0 1 -1 0 0 0 0];

internalField   nonuniform List<vector> 
14592
(
(0.0189649 -8.93748e-06 -0.00152903)
(0.0187516 0.000218021 -0.003169)
(0.018318 0.000335062 -0.00453757)
(0.0178824 0.000332485 -0.00580535)
(0.0176652 0.000268242 -0.00694458)
(0.017744 0.000176889 -0.0079372)
(0.0180735 9.29415e-05 -0.00882545)
(0.0185328 3.45449e-05 -0.00970346)
(0.0189845 -2.77319e-06 -0.0107132)
(0.0193251 -4.47936e-05 -0.0120406)
(0.01952 -0.000133787 -0.0139216)
(0.0196101 -0.000335625 -0.0166693)
(0.0196995 -0.000718911 -0.0206957)
(0.0197011 -0.0012395 -0.0263525)
(0.0183327 -0.00129769 -0.0325525)
(0.012271 0.000341306 -0.0293113)
(0.0529417 0.000123446 -0.00179727)
(0.052591 0.000503278 -0.00501144)
(0.0519782 0.000591587 -0.00835417)
(0.0513478 0.000366316 -0.0117406)
(0.0510045 -1.54905e-05 -0.0148827)
(0.0510897 -0.000357884 -0.0175732)
(0.0515509 -0.000529446 -0.0197814)
(0.0521773 -0.000485414 -0.0216594)
(0.0526908 -0.000264527 -0.0235085)
(0.0528346 3.58494e-05 -0.0257503)
(0.0524187 0.000279333 -0.0289124)
(0.0513044 0.000299573 -0.0336537)
(0.0493533 -8.96624e-05 -0.0408187)
(0.0460086 -0.000960414 -0.0511108)
(0.0385687 -0.00165162 -0.0617555)
(0.0213846 6.99738e-06 -0.0506803)
(0.0822538 0.000263102 -0.00136904)
(0.0820378 0.000775363 -0.00439977)
(0.0814972 0.000846451 -0.00817485)
(0.0806793 0.000409706 -0.0125746)
(0.0798434 -0.000316853 -0.017113)
(0.0792345 -0.000983273 -0.0212889)
(0.0789336 -0.00130728 -0.0248085)
(0.0788354 -0.00116036 -0.0276612)
(0.0786809 -0.000577291 -0.0301148)
(0.0781401 0.000292383 -0.0326732)
(0.0768763 0.00122792 -0.0360216)
(0.0745335 0.00199049 -0.0410379)
(0.0706978 0.00231714 -0.0488739)
(0.0644873 0.00196151 -0.0608061)
(0.0522621 0.000925838 -0.0739329)
(0.0265346 0.000831706 -0.0600054)
(0.106673 0.000306435 -0.00104978)
(0.106601 0.000908336 -0.0033694)
(0.106199 0.00105055 -0.00659644)
(0.105259 0.000591444 -0.0109265)
(0.103843 -0.000269731 -0.0159813)
(0.102205 -0.00112301 -0.0211242)
(0.1006 -0.00156302 -0.025774)
(0.0991417 -0.00134605 -0.0296308)
(0.097742 -0.000440488 -0.0327717)
(0.0961279 0.00101341 -0.0356416)
(0.0939138 0.00277623 -0.0389788)
(0.0905949 0.00459776 -0.0437927)
(0.0855489 0.00621177 -0.0514379)
(0.0776883 0.00728685 -0.0637911)
(0.0626165 0.00671217 -0.0786055)
(0.0306235 0.00345224 -0.0645026)
(0.126179 0.000320181 -0.000888823)
(0.126179 0.00097362 -0.00265749)
(0.125912 0.00126382 -0.00515701)
(0.124982 0.000999953 -0.00890312)
(0.123201 0.000302628 -0.013817)
(0.120709 -0.000456992 -0.0193334)
(0.11783 -0.000840681 -0.0247143)
(0.114886 -0.000523751 -0.0293885)
(0.112024 0.000616074 -0.0331889)
(0.109145 0.00251908 -0.0364025)
(0.105936 0.0050045 -0.039743)
(0.101841 0.00789156 -0.0442791)
(0.0961095 0.0109858 -0.051463)
(0.0875224 0.0140839 -0.0636564)
(0.0711348 0.0150084 -0.0795241)
(0.0344293 0.00814337 -0.0661966)
(0.140792 0.000338744 -0.000798876)
(0.140805 0.00103256 -0.00225802)
(0.140635 0.0014951 -0.00421444)
(0.13981 0.00154987 -0.00734836)
(0.137935 0.00125255 -0.0118548)
(0.134976 0.000873043 -0.0173388)
(0.131228 0.000786266 -0.0230448)
(0.127124 0.00132276 -0.0282273)
(0.123027 0.00267136 -0.0324857)
(0.119044 0.00487994 -0.0359482)
(0.115021 0.00788505 -0.0392377)
(0.110435 0.0116682 -0.0434176)
(0.104521 0.0161874 -0.0499341)
(0.0959548 0.0216811 -0.0614638)
(0.0796102 0.0253992 -0.0778042)
(0.0389812 0.0155843 -0.0656417)
(0.15053 0.000363037 -0.000737718)
(0.150538 0.00109727 -0.0020229)
(0.150433 0.00172257 -0.0036458)
(0.14974 0.00213572 -0.0063279)
(0.147945 0.00235689 -0.0104279)
(0.144867 0.00254943 -0.0157068)
(0.14073 0.00296469 -0.0214503)
(0.13601 0.00386185 -0.0268295)
(0.131207 0.00544083 -0.0312914)
(0.126604 0.00783719 -0.0348103)
(0.122242 0.0111314 -0.0379013)
(0.117678 0.015542 -0.0415607)
(0.112324 0.0212599 -0.0471216)
(0.104613 0.0293933 -0.0572907)
(0.0905351 0.0379261 -0.0734268)
(0.0464712 0.0283475 -0.0624369)
(0.155398 0.000387758 -0.000687101)
(0.155409 0.0011534 -0.00185678)
(0.155363 0.00191768 -0.00328839)
(0.1548 0.00267857 -0.00569907)
(0.153161 0.00345044 -0.00951138)
(0.150195 0.00429157 -0.0145669)
(0.146077 0.00530804 -0.0201883)
(0.141293 0.00663885 -0.0255174)
(0.136421 0.0084391 -0.0299234)
(0.131855 0.0108958 -0.0332768)
(0.12783 0.0142157 -0.0359874)
(0.124004 0.0188419 -0.0389187)
(0.120376 0.0252215 -0.043195)
(0.114644 0.0354092 -0.0509723)
(0.108443 0.0523204 -0.0657478)
(0.0630823 0.0490003 -0.0547729)
(0.0202704 -3.79103e-05 -0.0015126)
(0.019996 0.000177814 -0.00310924)
(0.0194415 0.000296065 -0.0044303)
(0.0188262 0.00029752 -0.00566651)
(0.0183824 0.000229047 -0.00680011)
(0.0181968 0.000131315 -0.00780981)
(0.0182246 4.01909e-05 -0.00872327)
(0.0183342 -2.51876e-05 -0.00961879)
(0.0183642 -6.84908e-05 -0.0106204)
(0.0181745 -0.000116287 -0.011891)
(0.0176749 -0.000216258 -0.0136268)
(0.0168228 -0.000430866 -0.0160545)
(0.0155806 -0.000821863 -0.019371)
(0.0136202 -0.00133935 -0.0234061)
(0.00992166 -0.00170102 -0.026249)
(0.00458694 -0.00141191 -0.0199599)
(0.0566353 8.28236e-05 -0.00172843)
(0.056181 0.000419824 -0.00478253)
(0.0553547 0.000482108 -0.00793129)
(0.0543843 0.000221014 -0.0111479)
(0.0535857 -0.000207109 -0.014196)
(0.0531148 -0.000597977 -0.0168679)
(0.0529207 -0.000802417 -0.0191098)
(0.0527804 -0.00076414 -0.0210322)
(0.0523797 -0.000522013 -0.0228909)
(0.0513984 -0.000185887 -0.0250572)
(0.0495536 8.92283e-05 -0.027988)
(0.0465716 0.000119208 -0.0321967)
(0.0421091 -0.000288969 -0.0381298)
(0.0352194 -0.00119725 -0.0453648)
(0.0238381 -0.00224485 -0.0494821)
(0.00965694 -0.00212439 -0.0348411)
(0.0880024 0.000224083 -0.00130262)
(0.0876946 0.000686844 -0.00412878)
(0.0869548 0.00072174 -0.00759821)
(0.0857971 0.000220849 -0.0116791)
(0.0844561 -0.000604023 -0.015975)
(0.083162 -0.00138422 -0.0200366)
(0.0820037 -0.00179581 -0.0235559)
(0.0808782 -0.00167416 -0.026468)
(0.0795055 -0.00104251 -0.0289698)
(0.0775001 -6.74612e-05 -0.0314906)
(0.0744206 0.000996388 -0.0346283)
(0.0697446 0.0018646 -0.0390985)
(0.0628147 0.00223386 -0.0456227)
(0.0522008 0.00181228 -0.0540066)
(0.0347935 0.000437888 -0.0589288)
(0.0134542 -0.000937511 -0.0412693)
(0.114128 0.000275987 -0.00100457)
(0.113975 0.00083874 -0.00316279)
(0.113416 0.000961309 -0.00606388)
(0.112212 0.000451407 -0.00996843)
(0.110356 -0.000521416 -0.0146375)
(0.108039 -0.00152847 -0.0195372)
(0.105493 -0.00210695 -0.0241144)
(0.102839 -0.00194922 -0.028022)
(0.0999994 -0.000987768 -0.0312475)
(0.0966778 0.000638948 -0.0341335)
(0.0923974 0.0026537 -0.0373114)
(0.0864766 0.00475135 -0.0416205)
(0.0780135 0.00661117 -0.0480123)
(0.0652254 0.00776304 -0.0567324)
(0.0437973 0.00694964 -0.0623884)
(0.0168266 0.00282918 -0.0441543)
(0.134998 0.000301576 -0.000854571)
(0.134911 0.000928583 -0.00253149)
(0.134509 0.00122075 -0.00475547)
(0.133392 0.000939565 -0.00805038)
(0.131288 0.000163146 -0.0124737)
(0.128218 -0.000733887 -0.0176196)
(0.124426 -0.00126119 -0.0228349)
(0.120215 -0.00101743 -0.0275287)
(0.115763 0.000182954 -0.0314344)
(0.110989 0.00230483 -0.0347167)
(0.105525 0.00515513 -0.0379583)
(0.0986581 0.00851418 -0.0420445)
(0.0893401 0.0121603 -0.0480667)
(0.075607 0.0156706 -0.056723)
(0.0518603 0.0165273 -0.0629089)
(0.0202807 0.00910996 -0.0449091)
(0.150636 0.000329985 -0.000771703)
(0.150555 0.00101267 -0.00218768)
(0.150248 0.00149156 -0.00393604)
(0.149277 0.00156032 -0.00664048)
(0.147184 0.00123281 -0.0106066)
(0.143782 0.00077301 -0.0156253)
(0.139226 0.000591979 -0.021077)
(0.133885 0.001087 -0.0262326)
(0.12814 0.00252159 -0.0306065)
(0.122151 0.00498967 -0.034185)
(0.11576 0.00845209 -0.0374399)
(0.108332 0.0128923 -0.0412402)
(0.0987986 0.0183137 -0.0467145)
(0.0852073 0.024744 -0.054963)
(0.0606784 0.0287461 -0.0614336)
(0.0247732 0.0187082 -0.0438974)
(0.161061 0.000364229 -0.000711486)
(0.160972 0.00110461 -0.00198235)
(0.160721 0.00175362 -0.00345049)
(0.159898 0.00219665 -0.00573995)
(0.157956 0.0024314 -0.00928788)
(0.154555 0.00261349 -0.014046)
(0.149735 0.00301668 -0.0194691)
(0.143864 0.00394771 -0.0247835)
(0.137448 0.00566753 -0.0293627)
(0.130834 0.00837252 -0.0330351)
(0.124102 0.0121966 -0.0361571)
(0.116768 0.0174184 -0.0395317)
(0.107929 0.0243733 -0.0442157)
(0.0957884 0.0341664 -0.0516069)
(0.0730484 0.0436896 -0.0581184)
(0.0325662 0.0346946 -0.0409094)
(0.166274 0.00039975 -0.000662141)
(0.166189 0.00118898 -0.00183184)
(0.165994 0.00198037 -0.00313822)
(0.165311 0.00277617 -0.00518309)
(0.163569 0.00359185 -0.00844752)
(0.160361 0.00448855 -0.0129606)
(0.155665 0.00558444 -0.0182302)
(0.149835 0.00704467 -0.023473)
(0.143442 0.00906142 -0.0279984)
(0.136956 0.0118767 -0.0315364)
(0.130691 0.0157669 -0.0343408)
(0.124344 0.0212978 -0.037109)
(0.117608 0.0291206 -0.0407288)
(0.108592 0.0418525 -0.0466136)
(0.0947802 0.0611654 -0.0530875)
(0.0494862 0.0584601 -0.0353411)
(0.0213856 -6.24888e-05 -0.00142539)
(0.0210518 0.000138565 -0.00290938)
(0.0203853 0.000254913 -0.00412649)
(0.0196106 0.000255857 -0.00527395)
(0.0189684 0.000181396 -0.00634246)
(0.0185521 7.53223e-05 -0.00730974)
(0.0183167 -2.58218e-05 -0.00819106)
(0.0181226 -0.000101163 -0.00904546)
(0.0177918 -0.000152895 -0.00997112)
(0.0171622 -0.000206727 -0.0110955)
(0.0161203 -0.000308912 -0.0125605)
(0.014602 -0.000514335 -0.0144973)
(0.0125578 -0.000864078 -0.0169346)
(0.00976494 -0.00131086 -0.0194748)
(0.00591351 -0.0017396 -0.02026)
(0.0019448 -0.00167636 -0.0136434)
(0.0597966 4.76363e-05 -0.00159208)
(0.0592455 0.000341295 -0.00437819)
(0.0582276 0.000375386 -0.00722405)
(0.056963 7.64089e-05 -0.0101486)
(0.0557758 -0.000401512 -0.0129596)
(0.0548294 -0.000845844 -0.0154705)
(0.0540718 -0.00109126 -0.017612)
(0.0532685 -0.00106879 -0.0194539)
(0.0520787 -0.000814823 -0.0211961)
(0.0501437 -0.000446977 -0.0231381)
(0.0471379 -0.00013065 -0.0256349)
(0.0427582 -4.93399e-05 -0.0290343)
(0.0366674 -0.000374899 -0.0334664)
(0.0281542 -0.00116238 -0.0380603)
(0.0166432 -0.00227636 -0.0386013)
(0.00524935 -0.0024674 -0.0239276)
(0.0929267 0.000190381 -0.00118947)
(0.0925327 0.000605072 -0.00373263)
(0.0916133 0.000604146 -0.00680857)
(0.0901637 4.29208e-05 -0.0104405)
(0.0883996 -0.000877913 -0.0143261)
(0.0865331 -0.00177396 -0.0180776)
(0.0846496 -0.00228295 -0.0213983)
(0.0826433 -0.00220332 -0.0241859)
(0.0802199 -0.00154213 -0.0265663)
(0.076961 -0.000475342 -0.0288742)
(0.0723791 0.000716874 -0.0315864)
(0.0659074 0.00172657 -0.0352216)
(0.0568745 0.00224585 -0.0401325)
(0.0440385 0.00197432 -0.0454923)
(0.0262532 0.000540821 -0.0460817)
(0.00828707 -0.00119248 -0.0280258)
(0.120517 0.000251241 -0.000919006)
(0.120284 0.000774981 -0.00286278)
(0.119578 0.000878589 -0.00539515)
(0.118142 0.000325645 -0.00879401)
(0.115925 -0.00074759 -0.0129267)
(0.113056 -0.00190154 -0.017371)
(0.109732 -0.00262377 -0.0216325)
(0.106069 -0.00254407 -0.025352)
(0.101995 -0.00155341 -0.0284452)
(0.09721 0.000219107 -0.0311435)
(0.0912052 0.00246771 -0.0339381)
(0.0832512 0.00484643 -0.0374615)
(0.0724086 0.00700239 -0.0422808)
(0.0569387 0.00839842 -0.0478703)
(0.0346876 0.00756903 -0.0487313)
(0.0112499 0.00307309 -0.0295932)
(0.142556 0.000285718 -0.000784999)
(0.142387 0.000887762 -0.00231799)
(0.141849 0.00118158 -0.00425161)
(0.140552 0.000890873 -0.00706376)
(0.138182 5.05925e-05 -0.0108954)
(0.134657 -0.000970089 -0.0154772)
(0.130136 -0.00163976 -0.0202661)
(0.124881 -0.00148479 -0.0246994)
(0.119084 -0.000254249 -0.0284516)
(0.11269 0.00204637 -0.0315661)
(0.105337 0.00521975 -0.0344718)
(0.0962832 0.0090139 -0.0378342)
(0.0844454 0.0131715 -0.0423683)
(0.0677495 0.0171296 -0.047913)
(0.0426846 0.0180697 -0.0490631)
(0.0145714 0.0102418 -0.0297587)
(0.159076 0.000323361 -0.000709335)
(0.15891 0.000996731 -0.00202546)
(0.15846 0.00149058 -0.0035599)
(0.157331 0.00157786 -0.00584017)
(0.155046 0.00123368 -0.0092114)
(0.151306 0.000707191 -0.0136045)
(0.146131 0.000436365 -0.0185452)
(0.139801 0.00087655 -0.0233748)
(0.132686 0.00236463 -0.0275706)
(0.124994 0.00504363 -0.0310047)
(0.116616 0.0089001 -0.0339784)
(0.106927 0.0139147 -0.0371331)
(0.0948504 0.0200936 -0.0412476)
(0.0782311 0.0272894 -0.0465261)
(0.0518718 0.0316021 -0.0479158)
(0.0191924 0.0211557 -0.0288102)
(0.17009 0.000369142 -0.000651639)
(0.169916 0.00111653 -0.0018466)
(0.169515 0.00178867 -0.00315362)
(0.168537 0.0022642 -0.00507446)
(0.166451 0.0025198 -0.00804959)
(0.162809 0.00269875 -0.012159)
(0.157489 0.00309022 -0.0170229)
(0.15073 0.00404016 -0.0219674)
(0.142998 0.00586766 -0.0263561)
(0.134693 0.00882923 -0.029909)
(0.12597 0.0131041 -0.0328155)
(0.116406 0.0190088 -0.0356532)
(0.105126 0.0269503 -0.0391738)
(0.0902021 0.037919 -0.0439211)
(0.0651305 0.0481225 -0.0455541)
(0.0274081 0.0389036 -0.0267281)
(0.175597 0.000413484 -0.00060504)
(0.17543 0.00122875 -0.00171213)
(0.175085 0.00204983 -0.00288609)
(0.174254 0.00288284 -0.00459745)
(0.172398 0.00374315 -0.00731212)
(0.169015 0.00469305 -0.0111768)
(0.163915 0.00585911 -0.015871)
(0.157301 0.00742992 -0.0207293)
(0.149691 0.00963073 -0.0250683)
(0.141604 0.0127523 -0.0285212)
(0.133453 0.0171276 -0.0311877)
(0.125041 0.0234017 -0.0335635)
(0.116098 0.0323477 -0.0362967)
(0.104919 0.0467454 -0.0401459)
(0.0886426 0.0673093 -0.0423545)
(0.0446765 0.0636772 -0.0234055)
(0.022312 -8.3703e-05 -0.00127006)
(0.021923 0.000102951 -0.00257909)
(0.0211561 0.000216598 -0.00364364)
(0.0202431 0.000214357 -0.0046517)
(0.0194322 0.000133222 -0.00560131)
(0.0188216 1.76637e-05 -0.00647111)
(0.0183672 -9.49044e-05 -0.00726687)
(0.0179244 -0.000181572 -0.00802901)
(0.0173059 -0.000242491 -0.00882903)
(0.0163407 -0.000301218 -0.00975845)
(0.0149124 -0.00039893 -0.01091)
(0.0129691 -0.000585343 -0.0123459)
(0.0104982 -0.0008797 -0.0140104)
(0.00743014 -0.00123889 -0.0154783)
(0.00390303 -0.00161679 -0.0152681)
(0.000909534 -0.00155023 -0.00960827)
(0.0624286 1.83009e-05 -0.00139428)
(0.06179 0.000271981 -0.00381605)
(0.0606026 0.000279199 -0.0062689)
(0.0590875 -5.4831e-05 -0.00879609)
(0.0575757 -0.000580495 -0.0112514)
(0.0562347 -0.00107797 -0.0134759)
(0.0550113 -0.00136724 -0.0153952)
(0.0536626 -0.00136647 -0.0170461)
(0.0518314 -0.00110741 -0.0185731)
(0.0491414 -0.000711424 -0.0202014)
(0.0452588 -0.000348588 -0.022188)
(0.0399101 -0.000191726 -0.0247475)
(0.0328517 -0.000389541 -0.0278399)
(0.0237108 -0.00099546 -0.0305379)
(0.0128339 -0.00200618 -0.0294393)
(0.00341062 -0.00225235 -0.016997)
(0.0970282 0.000163782 -0.00103406)
(0.0965564 0.000534777 -0.00322302)
(0.0954788 0.00050148 -0.00583444)
(0.0937814 -0.00011189 -0.0089215)
(0.0916669 -0.00111911 -0.0122621)
(0.0893322 -0.00212373 -0.0155392)
(0.0868556 -0.00272999 -0.0184872)
(0.0841268 -0.00270105 -0.0209864)
(0.0808436 -0.00202506 -0.0231036)
(0.0765745 -0.000880594 -0.0250809)
(0.0708278 0.000434327 -0.0272732)
(0.0630606 0.00160364 -0.0300359)
(0.0526928 0.00232576 -0.0334948)
(0.038858 0.00229514 -0.0366755)
(0.0216764 0.000991578 -0.0352661)
(0.00611848 -0.000885201 -0.0198186)
(0.125838 0.000230653 -0.000799334)
(0.125534 0.000720196 -0.00247538)
(0.124695 0.000808236 -0.00460285)
(0.123057 0.000221166 -0.00744195)
(0.120542 -0.000936698 -0.0109323)
(0.117229 -0.0022217 -0.0147562)
(0.11328 -0.00308045 -0.0184979)
(0.108798 -0.00308624 -0.0218185)
(0.103717 -0.00208765 -0.02459)
(0.0977466 -0.000195891 -0.0269503)
(0.0903867 0.00226166 -0.0292523)
(0.0809335 0.00490854 -0.0319486)
(0.0685239 0.0073732 -0.0353489)
(0.0517339 0.00907258 -0.0386789)
(0.02986 0.00838859 -0.0372865)
(0.00894358 0.00365676 -0.0207492)
(0.148854 0.000272379 -0.000685514)
(0.148614 0.000852706 -0.00202176)
(0.147949 0.00114831 -0.00364615)
(0.146485 0.000854612 -0.00596183)
(0.143888 -3.37192e-05 -0.00914125)
(0.140004 -0.00115893 -0.0130221)
(0.134911 -0.00195822 -0.0171773)
(0.128824 -0.00189671 -0.0211093)
(0.121941 -0.000658377 -0.0244751)
(0.114238 0.00178055 -0.0272381)
(0.105388 0.00522707 -0.0296796)
(0.094702 0.00940171 -0.0322733)
(0.0811688 0.0140105 -0.0354665)
(0.0629217 0.0183875 -0.0387703)
(0.0379315 0.0195071 -0.0375178)
(0.0122801 0.0113513 -0.0207073)
(0.166111 0.000320077 -0.00061731)
(0.165872 0.000985167 -0.00177828)
(0.16529 0.00149156 -0.00308174)
(0.164002 0.00159927 -0.00494643)
(0.161542 0.00124924 -0.00770279)
(0.157538 0.000671444 -0.0113706)
(0.151891 0.000319855 -0.015609)
(0.144795 0.000701335 -0.0198629)
(0.13659 0.00221846 -0.0236291)
(0.127526 0.00505856 -0.0266997)
(0.117572 0.00923658 -0.0292416)
(0.106176 0.0147264 -0.0317001)
(0.0923625 0.021513 -0.0345917)
(0.0740776 0.0293062 -0.0377411)
(0.0474511 0.033908 -0.0366882)
(0.0170592 0.023062 -0.0199591)
(0.177615 0.000375595 -0.000565404)
(0.177371 0.00113073 -0.00162613)
(0.176833 0.00182374 -0.00275084)
(0.175697 0.00233124 -0.00432039)
(0.173465 0.00261172 -0.00672849)
(0.169631 0.00279415 -0.0101209)
(0.163943 0.0031748 -0.0142563)
(0.156514 0.00413388 -0.0185846)
(0.147756 0.00603808 -0.022517)
(0.138099 0.00920111 -0.0257171)
(0.127795 0.0138367 -0.0282443)
(0.116528 0.0202842 -0.0304867)
(0.103556 0.0289721 -0.0329604)
(0.0870214 0.0407575 -0.0358148)
(0.0612992 0.0514178 -0.0350908)
(0.0255747 0.0418331 -0.0185755)
(0.183367 0.000427319 -0.000524235)
(0.183134 0.00126813 -0.00151007)
(0.182654 0.00211818 -0.00252831)
(0.181668 0.00298744 -0.00392688)
(0.179687 0.00389066 -0.00611081)
(0.176163 0.00488959 -0.00927877)
(0.170776 0.00611708 -0.0132459)
(0.163589 0.00777821 -0.0174833)
(0.155044 0.0101269 -0.0213705)
(0.145687 0.0134946 -0.0245029)
(0.136033 0.0182559 -0.0268635)
(0.126016 0.0251044 -0.0287776)
(0.115511 0.0348719 -0.030704)
(0.102988 0.0503468 -0.0330608)
(0.0858018 0.0716231 -0.0331106)
(0.042984 0.0670159 -0.0165039)
(0.0230507 -0.000101693 -0.00105459)
(0.0226135 7.21317e-05 -0.00213422)
(0.0217616 0.000181865 -0.00300562)
(0.0207339 0.00017737 -0.00383292)
(0.0197854 8.99741e-05 -0.00461863)
(0.0190186 -3.48138e-05 -0.0053443)
(0.0183913 -0.00015852 -0.00600951)
(0.0177565 -0.000256174 -0.00663937)
(0.0169229 -0.000325628 -0.00728195)
(0.0157187 -0.000388061 -0.00799832)
(0.014035 -0.000480032 -0.00884421)
(0.0118423 -0.000643228 -0.00984139)
(0.00917133 -0.000884096 -0.0109092)
(0.00606464 -0.00116257 -0.0116874)
(0.00287496 -0.00146727 -0.0111072)
(0.000486042 -0.00138188 -0.00671954)
(0.0645321 -5.16511e-06 -0.00114262)
(0.0638184 0.00021479 -0.00311808)
(0.0624902 0.000199926 -0.00510357)
(0.0607695 -0.000164799 -0.00715146)
(0.0589952 -0.000732448 -0.00915633)
(0.05734 -0.00127784 -0.0109914)
(0.0557496 -0.0016086 -0.0125875)
(0.0539755 -0.00163093 -0.0139583)
(0.051652 -0.00137075 -0.0152009)
(0.0483987 -0.000950335 -0.0164738)
(0.0438936 -0.000540683 -0.0179527)
(0.0379117 -0.00030466 -0.0197592)
(0.0303148 -0.000370074 -0.0217918)
(0.0209949 -0.000793736 -0.023256)
(0.0107598 -0.00166019 -0.0216527)
(0.00260373 -0.0019367 -0.011998)
(0.100308 0.000142954 -0.00084305)
(0.0997709 0.000477837 -0.00261558)
(0.0985607 0.00041917 -0.00470695)
(0.0966581 -0.00023736 -0.00717671)
(0.094263 -0.00131709 -0.00987052)
(0.0915592 -0.0024157 -0.0125443)
(0.0886178 -0.00311007 -0.0149783)
(0.0853246 -0.00313209 -0.0170556)
(0.0813749 -0.00245025 -0.0188012)
(0.0763374 -0.00124365 -0.020379)
(0.0697351 0.000181494 -0.0220361)
(0.0610772 0.00150351 -0.0240081)
(0.0499019 0.00243068 -0.0263061)
(0.0356637 0.00264904 -0.0280587)
(0.0191472 0.0015282 -0.0260292)
(0.00516109 -0.000449198 -0.0139873)
(0.130094 0.000213789 -0.000652618)
(0.129731 0.000675316 -0.00201173)
(0.128778 0.000750824 -0.00370288)
(0.12697 0.000139212 -0.00594544)
(0.124215 -0.00108534 -0.00872126)
(0.120556 -0.00247941 -0.0118037)
(0.116123 -0.00345771 -0.0148661)
(0.111006 -0.00354497 -0.0176174)
(0.105142 -0.00254755 -0.0199176)
(0.098262 -0.00056608 -0.0218372)
(0.0898923 0.00206459 -0.023611)
(0.0793822 0.00494727 -0.0255509)
(0.0659795 0.00769399 -0.0278158)
(0.0485663 0.00968638 -0.0296642)
(0.0272273 0.00919128 -0.0275551)
(0.00795868 0.00427919 -0.0145862)
(0.153894 0.000262337 -0.000559946)
(0.153595 0.000824497 -0.0016528)
(0.15282 0.00112125 -0.00294715)
(0.151209 0.000828942 -0.00475833)
(0.148424 -9.31308e-05 -0.0072524)
(0.144261 -0.00130128 -0.0103416)
(0.138733 -0.00221097 -0.0137099)
(0.132013 -0.00223701 -0.0169503)
(0.124291 -0.00101004 -0.0197457)
(0.115579 0.0015352 -0.0220194)
(0.105606 0.00520088 -0.0239382)
(0.0937525 0.00968803 -0.0258225)
(0.079114 0.0146696 -0.0279469)
(0.0600681 0.0194038 -0.0297846)
(0.0354121 0.0207204 -0.0277402)
(0.0113565 0.0122997 -0.0145021)
(0.171739 0.000319298 -0.00050248)
(0.171443 0.000977613 -0.00145905)
(0.170747 0.00149358 -0.00250823)
(0.169316 0.0016209 -0.00396201)
(0.166702 0.00127208 -0.00610085)
(0.162488 0.000657418 -0.00898716)
(0.15649 0.000239587 -0.0123916)
(0.148818 0.000564928 -0.0158773)
(0.139787 0.00208772 -0.0190089)
(0.129678 0.00504785 -0.0215506)
(0.118532 0.00947583 -0.0235782)
(0.1059 0.0153376 -0.0253847)
(0.0909279 0.0225901 -0.0273059)
(0.0717325 0.0308354 -0.029064)
(0.0452021 0.0356851 -0.0271788)
(0.0162764 0.0245039 -0.0139662)
(0.183634 0.000382278 -0.000459256)
(0.183336 0.00114501 -0.00133605)
(0.182684 0.00185558 -0.00225054)
(0.181403 0.00239164 -0.00347612)
(0.179034 0.00269723 -0.00533173)
(0.175043 0.00288727 -0.00797771)
(0.169086 0.00326058 -0.0112738)
(0.161168 0.00422235 -0.0148029)
(0.151643 0.00618134 -0.0180668)
(0.140962 0.00949032 -0.0207319)
(0.12946 0.0143979 -0.0227775)
(0.116945 0.0212544 -0.024449)
(0.102819 0.0304844 -0.026093)
(0.0853562 0.0428334 -0.0277044)
(0.0594548 0.0538179 -0.0261353)
(0.0250055 0.0439185 -0.0130664)
(0.189582 0.000439869 -0.000425381)
(0.189299 0.00130363 -0.00124146)
(0.188708 0.00217943 -0.00207429)
(0.18758 0.00308102 -0.00316798)
(0.185476 0.00402251 -0.00484397)
(0.181833 0.00506416 -0.00730119)
(0.17624 0.00634231 -0.0104481)
(0.168644 0.0080745 -0.013892)
(0.159413 0.010537 -0.0171171)
(0.149097 0.0140907 -0.0197401)
(0.138302 0.0191416 -0.0216788)
(0.127092 0.0264122 -0.0231319)
(0.115493 0.0367559 -0.0244145)
(0.102141 0.0529286 -0.0257694)
(0.0845779 0.0746579 -0.0249237)
(0.0424898 0.0693214 -0.0117269)
(0.0236028 -0.000115589 -0.000789483)
(0.0231272 4.72818e-05 -0.00159469)
(0.0222082 0.000154819 -0.00224053)
(0.0210919 0.000147035 -0.00285491)
(0.0200387 5.38216e-05 -0.00344153)
(0.0191552 -7.91479e-05 -0.00398625)
(0.0184006 -0.000212606 -0.00448592)
(0.0176278 -0.000319771 -0.00495456)
(0.0166446 -0.000396351 -0.0054217)
(0.0152818 -0.000461252 -0.00592472)
(0.0134406 -0.000547217 -0.00649468)
(0.0111126 -0.000689731 -0.00713458)
(0.00836154 -0.000887475 -0.00777215)
(0.00529539 -0.00110364 -0.00814612)
(0.00235815 -0.00135488 -0.00755111)
(0.000321574 -0.00124881 -0.00446172)
(0.0661075 -2.33008e-05 -0.000846849)
(0.0653351 0.000170321 -0.00230873)
(0.0638966 0.000137061 -0.00376736)
(0.0620176 -0.000250729 -0.00527513)
(0.0600455 -0.000851853 -0.00675786)
(0.0581561 -0.00143658 -0.00812433)
(0.0562954 -0.00180256 -0.0093191)
(0.0542119 -0.00184593 -0.0103433)
(0.051536 -0.00158695 -0.0112565)
(0.0478899 -0.00114753 -0.0121615)
(0.0429697 -0.000697165 -0.0131696)
(0.0365961 -0.000392002 -0.0143472)
(0.0287158 -0.000344597 -0.0155911)
(0.0193877 -0.000616335 -0.016317)
(0.00964617 -0.00134982 -0.0148462)
(0.00226768 -0.00166314 -0.00802523)
(0.102767 0.000126688 -0.000623235)
(0.102177 0.000434632 -0.00192813)
(0.100864 0.000356484 -0.00345661)
(0.0988045 -0.0003319 -0.00525484)
(0.0961969 -0.00146734 -0.00722787)
(0.0932189 -0.00264044 -0.00920267)
(0.0899358 -0.00340712 -0.0110153)
(0.0862305 -0.00347395 -0.012569)
(0.0817979 -0.00279225 -0.013866)
(0.0762139 -0.00153977 -0.0150077)
(0.0690214 -2.50497e-05 -0.0161552)
(0.0597826 0.00142501 -0.0174533)
(0.0481385 0.00252649 -0.0188746)
(0.0337672 0.00295628 -0.0197622)
(0.0177661 0.00200713 -0.0179042)
(0.00473705 -5.86276e-05 -0.00937119)
(0.133286 0.000201517 -0.000483091)
(0.132877 0.000641617 -0.00148445)
(0.131834 0.000708993 -0.00271305)
(0.129892 8.00141e-05 -0.00433257)
(0.126954 -0.0011935 -0.00634537)
(0.12304 -0.0026713 -0.00860162)
(0.118254 -0.00374511 -0.0108675)
(0.112675 -0.00390153 -0.012921)
(0.106243 -0.00291233 -0.0146395)
(0.0987098 -0.000864966 -0.0160489)
(0.0896328 0.00189797 -0.0172989)
(0.0784146 0.00496792 -0.0185873)
(0.0644044 0.00794296 -0.0199925)
(0.0467074 0.0101771 -0.0209394)
(0.0258104 0.00984729 -0.0189865)
(0.0075537 0.00480061 -0.00975945)
(0.157674 0.000255997 -0.000413595)
(0.15733 0.00080393 -0.00122378)
(0.156468 0.00110122 -0.00216692)
(0.154738 0.000812364 -0.00346658)
(0.151806 -0.000131659 -0.00525714)
(0.147435 -0.00140084 -0.00749703)
(0.141594 -0.00239665 -0.00997131)
(0.134419 -0.00249556 -0.0123802)
(0.126093 -0.00128514 -0.0144719)
(0.116655 0.00133432 -0.016159)
(0.105887 0.00516192 -0.0175312)
(0.0932407 0.00988579 -0.0187946)
(0.0779053 0.0151515 -0.0201124)
(0.0584486 0.0201633 -0.0210578)
(0.034102 0.0216497 -0.0191334)
(0.0110172 0.013027 -0.00968998)
(0.175959 0.000319663 -0.000370203)
(0.17562 0.000973204 -0.00108237)
(0.174836 0.00149634 -0.00185274)
(0.173289 0.0016402 -0.00289474)
(0.170549 0.00129604 -0.00441869)
(0.166176 0.00065681 -0.00649372)
(0.159926 0.000189017 -0.00897714)
(0.151848 0.000467124 -0.0115567)
(0.142228 0.00198637 -0.013897)
(0.131371 0.00502691 -0.0157938)
(0.119378 0.00963573 -0.0172639)
(0.105897 0.015769 -0.0184893)
(0.0901756 0.0233581 -0.0196805)
(0.0704783 0.03193 -0.0205901)
(0.0440952 0.0369749 -0.0187814)
(0.0160464 0.0255391 -0.0093382)
(0.188149 0.000388085 -0.000337906)
(0.187811 0.00115749 -0.000991693)
(0.18707 0.00188173 -0.00166797)
(0.185672 0.00244091 -0.0025483)
(0.183187 0.0027686 -0.0038644)
(0.179073 0.00296762 -0.00575424)
(0.172924 0.00333667 -0.00814445)
(0.164667 0.0042977 -0.0107461)
(0.154603 0.006291 -0.0131835)
(0.143191 0.00970054 -0.0151797)
(0.130839 0.0148006 -0.0166797)
(0.117456 0.0219465 -0.0178288)
(0.102568 0.0315515 -0.0188486)
(0.0845658 0.044281 -0.0196933)
(0.0586247 0.0554987 -0.0181322)
(0.0249264 0.0453666 -0.00877366)
(0.194244 0.000450085 -0.000312775)
(0.193924 0.00133257 -0.000921668)
(0.193247 0.00222913 -0.00154004)
(0.192004 0.00315686 -0.00232703)
(0.189794 0.00412945 -0.00351264)
(0.186053 0.00520542 -0.00526055)
(0.180315 0.00652259 -0.00753431)
(0.172441 0.00830715 -0.010067)
(0.162733 0.010851 -0.0124747)
(0.151739 0.0145363 -0.0144468)
(0.140131 0.0197909 -0.0158841)
(0.128082 0.0273538 -0.0168991)
(0.115744 0.0380832 -0.0176951)
(0.101883 0.0547007 -0.0184177)
(0.0841521 0.0767332 -0.0174056)
(0.0424604 0.0709 -0.00791862)
(0.0239687 -0.000124551 -0.000484806)
(0.0234664 2.97019e-05 -0.000979087)
(0.0225017 0.000136628 -0.00137294)
(0.0213252 0.000123864 -0.00174752)
(0.0202018 2.48774e-05 -0.00210634)
(0.0192407 -0.000115253 -0.00244072)
(0.0184029 -0.000256754 -0.00274766)
(0.0175418 -0.00037148 -0.00303385)
(0.0164654 -0.000453511 -0.00331474)
(0.0150076 -0.000519984 -0.00360986)
(0.0130779 -0.000601008 -0.0039342)
(0.0106831 -0.000729682 -0.00428536)
(0.00790735 -0.00089853 -0.0046158)
(0.00489184 -0.00107279 -0.00477154)
(0.00211327 -0.00128449 -0.00435606)
(0.000265818 -0.00116501 -0.0025394)
(0.0671546 -3.57393e-05 -0.000515999)
(0.066342 0.000139582 -0.00140891)
(0.064828 9.24021e-05 -0.00229434)
(0.0628412 -0.000310613 -0.00321025)
(0.0607372 -0.000935646 -0.00411354)
(0.058693 -0.00154912 -0.00494962)
(0.0566552 -0.00194138 -0.00568306)
(0.0543711 -0.00200121 -0.0063109)
(0.0514702 -0.00174439 -0.00686441)
(0.0475785 -0.00129202 -0.00740013)
(0.0424065 -0.000813328 -0.007979)
(0.0358103 -0.000457871 -0.0086336)
(0.0277925 -0.000330631 -0.00929209)
(0.0185064 -0.000497488 -0.00960576)
(0.00908267 -0.00114002 -0.00861688)
(0.00213953 -0.0014787 -0.00459124)
(0.104404 0.000115274 -0.000379065)
(0.103776 0.000405765 -0.00117334)
(0.102393 0.000314174 -0.00209816)
(0.100229 -0.000394232 -0.00318274)
(0.0974781 -0.00156714 -0.00437711)
(0.0943185 -0.00279205 -0.00557894)
(0.0908114 -0.00361044 -0.00668792)
(0.0868379 -0.00371097 -0.0076411)
(0.0820938 -0.003032 -0.00843307)
(0.0761605 -0.00174804 -0.00911759)
(0.0686007 -0.000173129 -0.00978508)
(0.0590166 0.00136801 -0.0105118)
(0.0471174 0.00259368 -0.0112705)
(0.032715 0.00317241 -0.0116648)
(0.0170545 0.00234325 -0.0104244)
(0.00457177 0.000216104 -0.00537128)
(0.135414 0.000193804 -0.000294025)
(0.134972 0.000619869 -0.000903745)
(0.133866 0.000683633 -0.00164456)
(0.131833 4.36348e-05 -0.00261559)
(0.128771 -0.00126157 -0.00382561)
(0.124687 -0.00279586 -0.00519041)
(0.119671 -0.00393634 -0.00657082)
(0.113792 -0.00414341 -0.00782902)
(0.106994 -0.00316444 -0.00888253)
(0.0990399 -0.00107713 -0.00973579)
(0.0895154 0.00177731 -0.010473)
(0.0778666 0.00497631 -0.0112)
(0.0635105 0.00811006 -0.0119523)
(0.0456902 0.0105141 -0.0123782)
(0.0250921 0.010305 -0.0110673)
(0.00741193 0.00516443 -0.00559035)
(0.160194 0.000252574 -0.000251382)
(0.159819 0.000790946 -0.000746531)
(0.158896 0.0010888 -0.00131618)
(0.157084 0.000803924 -0.00209216)
(0.15405 -0.00015239 -0.00316122)
(0.149541 -0.0014611 -0.00450737)
(0.143496 -0.0025157 -0.00600732)
(0.136028 -0.00266693 -0.00747946)
(0.127311 -0.0014724 -0.00876361)
(0.117408 0.00119026 -0.00979476)
(0.106137 0.00512602 -0.0106109)
(0.0929983 0.0100084 -0.0113292)
(0.0772546 0.0154651 -0.0120348)
(0.0575925 0.020666 -0.0124619)
(0.0334626 0.0222745 -0.0111629)
(0.0109249 0.0135144 -0.00554864)
(0.178772 0.000320384 -0.000224687)