/*--------------------------------*- C++ -*----------------------------------*\
| =========                 |                                                 |
| \\      /  F ield         | foam-extend: Open Source CFD                    |
|  \\    /   O peration     | Version:     3.1                                |
|   \\  /    A nd           | Web:         http://www.extend-project.de       |
|    \\/     M anipulation  |                                                 |
\*---------------------------------------------------------------------------*/
FoamFile
{
    version     2.0;
    format      ascii;
    class       volVectorField;
    location    "0.7";
    object      D;
}
// * * * * * * * * * * * * * * * * * * * * * * * * * * * * * * * * * * * * * //

dimensions      [0 1 0 0 0 0 0];

internalField   nonuniform List<vector> 
256
(
(0.000693192 0.000276387 0.000777966)
(0.000307098 -1.00664e-05 0.000284793)
(0.000238051 -0.000189265 -0.000182596)
(0.000465391 -0.000511389 -0.000741199)
(0.00260374 0.00132372 0.000885515)
(0.00215084 0.000205109 0.000469123)
(0.00202977 -0.000696025 -0.000109058)
(0.00221328 -0.00185818 -0.000571751)
(0.00493028 0.00196328 0.000940767)
(0.00448562 0.000315403 0.000533239)
(0.00433401 -0.00115764 5.17637e-05)
(0.00445167 -0.00286992 -0.000373236)
(0.0076088 0.00237501 0.000898222)
(0.00721469 0.000317878 0.000576087)
(0.00704243 -0.00159124 0.000202679)
(0.00706551 -0.00370881 -0.000126492)
(0.0104806 0.00255227 0.000831152)
(0.0101304 0.000226342 0.000598375)
(0.00994243 -0.0019789 0.00033424)
(0.00988993 -0.00435243 9.91829e-05)
(0.013408 0.00255647 0.000766615)
(0.0130961 7.16495e-05 0.000612409)
(0.0128965 -0.00231829 0.000439839)
(0.0127859 -0.0048357 0.000284941)
(0.016288 0.00244158 0.000724883)
(0.0160052 -0.000119386 0.000626477)
(0.0157986 -0.00260849 0.000522706)
(0.01565 -0.00519019 0.000424605)
(0.0190647 0.00226231 0.000715522)
(0.0187909 -0.000324262 0.000646016)
(0.0185812 -0.00285552 0.000592211)
(0.0184214 -0.00545796 0.000523045)
(0.000758844 0.000255686 0.000416935)
(0.000405071 -3.17504e-05 0.000159879)
(0.000351312 -0.000200374 -0.000112882)
(0.000576217 -0.000504264 -0.000424996)
(0.00283397 0.0012335 0.000585942)
(0.00232406 0.000128506 0.000311028)
(0.00220809 -0.000748846 -5.93646e-05)
(0.00245214 -0.0018996 -0.000365355)
(0.00517157 0.00189389 0.000681021)
(0.00472056 0.000234247 0.000397695)
(0.00456885 -0.00124635 5.91093e-05)
(0.00468905 -0.00296748 -0.000239511)
(0.00783158 0.00231087 0.000699058)
(0.00743188 0.000239985 0.000456591)
(0.00725624 -0.00168386 0.00017897)
(0.00727545 -0.00381403 -6.98896e-05)
(0.0106625 0.00249869 0.000684179)
(0.0103116 0.000157876 0.000494831)
(0.0101187 -0.00206553 0.00028506)
(0.010056 -0.00445283 9.3766e-05)
(0.0135467 0.00251026 0.000662075)
(0.0132362 1.20449e-05 0.000521847)
(0.013032 -0.0023948 0.000371956)
(0.0129106 -0.00492482 0.000231734)
(0.016392 0.00240021 0.000649426)
(0.0161123 -0.000172857 0.000545551)
(0.0159026 -0.00267655 0.000441358)
(0.0157449 -0.00526969 0.000338443)
(0.019152 0.0022245 0.00065463)
(0.018881 -0.000373847 0.000572001)
(0.0186695 -0.00291954 0.000499015)
(0.0185041 -0.00553336 0.000417379)
(0.000795164 0.000267283 0.000235805)
(0.000431101 -3.21644e-05 9.46095e-05)
(0.000382345 -0.000208096 -6.63132e-05)
(0.000627849 -0.000523963 -0.000245)
(0.0029535 0.0012002 0.000383281)
(0.00241029 9.46379e-05 0.00020801)
(0.00229861 -0.000772261 -2.33729e-05)
(0.00258279 -0.0019259 -0.000218421)
(0.00532766 0.00183933 0.00048098)
(0.00485111 0.000183554 0.000290439)
(0.00469967 -0.00128882 6.31865e-05)
(0.00484476 -0.00300631 -0.000138779)
(0.00799286 0.00224425 0.000527667)
(0.00757751 0.000181052 0.0003525)
(0.00740008 -0.00173499 0.000154519)
(0.0074311 -0.00385709 -2.5711e-05)
(0.0108129 0.00243091 0.000546528)
(0.0104532 9.79058e-05 0.000397939)
(0.0102577 -0.00211961 0.000237241)
(0.010199 -0.00449878 8.72417e-05)
(0.0136796 0.00244745 0.000554109)
(0.0133655 -4.52966e-05 0.000432388)
(0.0131588 -0.00244903 0.000306737)
(0.0130369 -0.00497338 0.000185437)
(0.0165098 0.00234619 0.000562395)
(0.0162299 -0.000226198 0.000461548)
(0.0160184 -0.00273062 0.000363459)
(0.0158578 -0.00532281 0.000263899)
(0.0192639 0.00218076 0.000577458)
(0.0189952 -0.00042319 0.00048994)
(0.0187823 -0.0029744 0.00041057)
(0.0186122 -0.00559328 0.000324392)
(0.000813607 0.000275328 0.000138367)
(0.000438598 -3.16423e-05 5.81823e-05)
(0.00039148 -0.000212402 -3.74525e-05)
(0.000651884 -0.000538117 -0.000141107)
(0.00301875 0.00118905 0.000252295)
(0.00245535 7.88456e-05 0.000141453)
(0.00234615 -0.000784442 -3.16981e-06)
(0.00265468 -0.00194458 -0.000126164)
(0.00542346 0.00180774 0.000336588)
(0.00492931 0.000153719 0.000210345)
(0.00477852 -0.00131178 6.00395e-05)
(0.00494198 -0.00302763 -7.39864e-05)
(0.00810406 0.00219798 0.000389741)
(0.00767632 0.000141227 0.000266575)
(0.00749829 -0.00176588 0.000128186)
(0.00754048 -0.00388148 1.16906e-06)
(0.0109284 0.00237783 0.000423207)
(0.0105612 5.28451e-05 0.000310999)
(0.0103645 -0.00215577 0.000191214)
(0.0103114 -0.00452706 7.78311e-05)
(0.0137932 0.00239435 0.000445885)
(0.0134755 -9.16885e-05 0.000346357)
(0.0132676 -0.0024887 0.000245335)
(0.0131473 -0.00500662 0.000146199)
(0.0166204 0.00229799 0.000465029)
(0.0163398 -0.000271434 0.000375977)
(0.0161272 -0.00277288 0.000290325)
(0.0159656 -0.00536227 0.000202495)
(0.0193748 0.00213967 0.000484235)
(0.019107 -0.000466171 0.000402556)
(0.0188931 -0.00301899 0.000327728)
(0.0187202 -0.00563958 0.00024742)
(0.000823601 0.000280061 8.29747e-05)
(0.000441041 -3.12642e-05 3.65373e-05)
(0.000394544 -0.000215027 -2.02945e-05)
(0.000664409 -0.000547122 -8.07795e-05)
(0.0030566 0.00118601 0.000165489)
(0.00248049 7.12077e-05 9.59643e-05)
(0.00237258 -0.000791573 6.02425e-06)
(0.00269605 -0.00195816 -7.07669e-05)
(0.00548367 0.00179203 0.000231487)
(0.00497826 0.000136764 0.000149079)
(0.00482798 -0.00132566 5.1262e-05)
(0.00500329 -0.00304327 -3.61329e-05)
(0.00818031 0.00217065 0.000279265)
(0.00774408 0.000115943 0.000194915)
(0.00756586 -0.00178596 0.000100566)
(0.00761599 -0.00389966 1.35093e-05)
(0.0110143 0.00234298 0.000314273)
(0.0106415 2.17953e-05 0.000232997)
(0.0104443 -0.00218094 0.000146899)
(0.0103956 -0.00454859 6.46983e-05)
(0.013884 0.0023568 0.000340802)
(0.0135633 -0.000125662 0.000264326)
(0.0133548 -0.00251781 0.000187362)
(0.0132362 -0.00503237 0.000111168)
(0.0167141 0.00226178 0.000362617)
(0.0164323 -0.000306052 0.000290511)
(0.0162191 -0.00280499 0.000221438)
(0.016057 -0.00539287 0.000150339)
(0.0194714 0.00210706 0.000381327)
(0.0192035 -0.000500116 0.000312796)
(0.0189888 -0.00305348 0.000249727)
(0.018814 -0.00567524 0.000182405)
(0.000829389 0.000282862 4.90921e-05)
(0.000442064 -3.10438e-05 2.25134e-05)
(0.000395855 -0.000216663 -1.04118e-05)
(0.000671562 -0.00055274 -4.50179e-05)
(0.00307936 0.00118604 0.000104492)
(0.00249533 6.74812e-05 6.23701e-05)
(0.0023881 -0.000796047 8.26724e-06)
(0.00272067 -0.00196788 -3.80226e-05)
(0.00552185 0.00178509 0.000151268)
(0.00500936 0.000127384 9.97181e-05)
(0.00485938 -0.00133453 3.87726e-05)
(0.00504205 -0.00305522 -1.57861e-05)
(0.0082316 0.00215606 0.000187876)
(0.00778984 0.000100686 0.00013315)
(0.00761154 -0.00179928 7.21938e-05)
(0.00766675 -0.00391392 1.57202e-05)
(0.0110753 0.00232241 0.000216773)
(0.0106987 1.82294e-06 0.000161842)
(0.0105012 -0.00219828 0.000103954)
(0.0104554 -0.00456548 4.8375e-05)
(0.0139517 0.00233305 0.000239812)
(0.0136287 -0.000148595 0.000185963)
(0.0134197 -0.00253844 0.000132023)
(0.0133022 -0.00505226 7.83619e-05)
(0.0167863 0.00223756 0.000258669)
(0.0165034 -0.000330278 0.000206121)
(0.0162895 -0.00282812 0.000155855)
(0.0161272 -0.00541598 0.000104051)
(0.0195472 0.00208417 0.000273724)
(0.0192787 -0.000524522 0.000222671)
(0.0190631 -0.00307855 0.000175587)
(0.0188873 -0.00570164 0.000125471)
(0.000832717 0.000284454 2.61047e-05)
(0.000442616 -3.09267e-05 1.23359e-05)
(0.000396558 -0.00021763 -4.78934e-06)
(0.000675655 -0.000556031 -2.26564e-05)
(0.00309262 0.00118691 5.79237e-05)
(0.00250396 6.57179e-05 3.52926e-05)
(0.00239708 -0.000798772 6.38822e-06)
(0.00273488 -0.00197424 -1.83756e-05)
(0.00554479 0.00178246 8.57253e-05)
(0.00502812 0.000122474 5.74019e-05)
(0.00487831 -0.00133995 2.4044e-05)
(0.00506524 -0.00306346 -5.87469e-06)
(0.00826352 0.00214901 0.000108452)
(0.00781846 9.21614e-05 7.76354e-05)
(0.00764009 -0.00180759 4.34316e-05)
(0.00769827 -0.00392395 1.16465e-05)
(0.0111145 0.00231147 0.000127102)
(0.0107356 -9.87024e-06 9.53393e-05)
(0.0105379 -0.00220928 6.19853e-05)
(0.0104938 -0.00457734 2.98462e-05)
(0.0139965 0.00231962 0.000142361)
(0.013672 -0.000162502 0.000110418)
(0.0134626 -0.00255168 7.85038e-05)
(0.0133458 -0.005066 4.66714e-05)
(0.016835 0.00222321 0.000154845)
(0.0165512 -0.000345369 0.00012302)
(0.0163369 -0.0028431 9.25936e-05)
(0.0161744 -0.00543162 6.12265e-05)
(0.019599 0.00207007 0.000164447)
(0.0193297 -0.000540049 0.000133133)
(0.0191134 -0.00309487 0.000104226)
(0.018937 -0.00571923 7.35044e-05)
(0.000834257 0.000285183 8.20708e-06)
(0.000442882 -3.08762e-05 3.94007e-06)
(0.000396894 -0.00021808 -1.37039e-06)
(0.000677548 -0.000557557 -6.89259e-06)
(0.00309878 0.00118756 1.85796e-05)
(0.00250799 6.50164e-05 1.14408e-05)
(0.00240127 -0.00080008 2.35228e-06)
(0.00274147 -0.0019774 -5.44009e-06)
(0.00555563 0.00178167 2.7794e-05)
(0.00503703 0.000120377 1.87561e-05)
(0.00488728 -0.00134255 8.13665e-06)
(0.00507616 -0.00306766 -1.39932e-06)
(0.0082789 0.00214625 3.54761e-05)
(0.00783228 8.83643e-05 2.55206e-05)
(0.00765388 -0.0018116 1.44934e-05)
(0.00771341 -0.00392913 4.2289e-06)
(0.0111338 0.00230682 4.18882e-05)
(0.0107538 -1.52331e-05 3.14933e-05)
(0.0105558 -0.00221463 2.05973e-05)
(0.0105126 -0.00458346 1.00796e-05)
(0.0140188 0.00231365 4.7194e-05)
(0.0136935 -0.000169021 3.6611e-05)
(0.013484 -0.00255817 2.60508e-05)
(0.0133674 -0.00507302 1.5505e-05)
(0.0168596 0.00221662 5.15352e-05)
(0.0165752 -0.000352562 4.08886e-05)
(0.0163606 -0.00285045 3.07117e-05)
(0.016198 -0.00543953 2.02196e-05)
(0.0196251 0.00206341 5.4819e-05)
(0.0193554 -0.000547552 4.42833e-05)
(0.0191388 -0.0031029 3.45529e-05)
(0.0189619 -0.00572802 2.42185e-05)
)
;

boundaryField
{
    interface
    {
        type            tractionDisplacement;
        gradient        nonuniform List<vector> 
192
(
(0.0630282 0.0766049 0.0034358)
(0.0271149 0.0722043 0.00907967)
(0.0302623 0.0938325 0.00966219)
(0.0239468 0.104611 0.00814197)
(0.0197284 0.111528 0.00619386)
(0.0157293 0.113358 0.00423687)
(0.0129795 0.111961 0.00282245)
(0.0119422 0.109507 0.00221512)
(0.062953 0.0830346 0.0021267)
(0.0316394 0.0745202 0.0062329)
(0.0301602 0.0930442 0.00757461)
(0.0242536 0.103331 0.00719116)
(0.0196134 0.109833 0.00628579)
(0.0156426 0.111909 0.0051596)
(0.0129318 0.111057 0.00426743)
(0.0119736 0.109409 0.00390562)
(0.0658472 0.0866777 0.00119388)
(0.033201 0.076603 0.00360332)
(0.0312519 0.0932233 0.00485887)
(0.0248179 0.102923 0.00532084)
(0.0197273 0.109028 0.00519206)
(0.0155125 0.11114 0.00481497)
(0.0126798 0.110574 0.00445717)
(0.011568 0.10946 0.00433762)
(0.0679126 0.0887626 0.000657089)
(0.0343965 0.0778784 0.00211386)
(0.0322812 0.0939039 0.00307359)
(0.0254913 0.103048 0.00370905)
(0.0200592 0.108855 0.00398667)
(0.0155943 0.110889 0.0040464)
(0.0126025 0.110421 0.00403532)
(0.0113525 0.109566 0.00408894)
(0.0692076 0.0899801 0.00036602)
(0.0352186 0.0787099 0.0012601)
(0.0330212 0.094542 0.00194416)
(0.026018 0.103402 0.00251636)
(0.0203714 0.109004 0.00290139)
(0.0157227 0.110936 0.00313552)
(0.0126023 0.110467 0.00328236)
(0.0112532 0.109708 0.0034157)
(0.0699998 0.0907016 0.000205044)
(0.0357497 0.0792477 0.000747038)
(0.0335136 0.0950327 0.00120208)
(0.026383 0.103766 0.00163055)
(0.0206053 0.109249 0.00196861)
(0.0158395 0.111097 0.00221517)
(0.012634 0.110592 0.00239171)
(0.0112327 0.109851 0.00253493)
(0.0704569 0.0911137 0.00010571)
(0.036063 0.079573 0.000399987)
(0.0338098 0.0953582 0.000660399)
(0.0266076 0.104041 0.00092117)
(0.0207549 0.109463 0.00114259)
(0.0159214 0.111255 0.00131616)
(0.0126668 0.110715 0.00144663)
(0.0112413 0.109966 0.00155055)
(0.0706666 0.0913031 3.28549e-05)
(0.0362073 0.0797273 0.000126484)
(0.0339478 0.0955197 0.000211283)
(0.0267136 0.104186 0.000298496)
(0.0208268 0.109582 0.000374823)
(0.0159626 0.111347 0.000436354)
(0.0126859 0.110787 0.000483451)
(0.0112504 0.110029 0.000520928)
(-0.00532753 0.036588 0.0368561)
(-0.013297 0.000293436 0.00692038)
(-0.0116395 0.00187956 0.0109887)
(-0.00992445 -0.00156291 0.00737667)
(-0.00699292 -0.0019774 0.00574217)
(-0.00436028 -0.0017567 0.00414136)
(-0.00240403 -0.000803146 0.00313707)
(-0.00129255 0.000523139 0.00241673)
(-0.0111909 0.019201 0.0121857)
(-0.0215205 0.00401057 0.0046662)
(-0.0176032 0.00451728 0.00478414)
(-0.0138355 0.0028001 0.00394279)
(-0.00944462 0.00191444 0.00358987)
(-0.00574375 0.00133876 0.00329347)
(-0.00294827 0.00119797 0.00313344)
(-0.00110432 0.0015125 0.00269954)
(-0.012155 -0.00623971 -0.00351653)
(-0.0219041 0.00872532 0.00136092)
(-0.0177555 0.00791601 0.000859914)
(-0.0135321 0.00770812 0.0016212)
(-0.00908163 0.00622523 0.00216892)
(-0.00541755 0.00477128 0.00273177)
(-0.00271085 0.00359609 0.00319306)
(-0.00097928 0.00289338 0.0038015)
(-0.00828229 -0.0302017 -0.0251381)
(-0.01341 0.0114837 -0.00196603)
(-0.0117477 0.0101643 -0.00533741)
(-0.00898603 0.011614 -0.00187049)
(-0.00589627 0.0097306 9.32339e-06)
(-0.00337154 0.00758183 0.00184924)
(-0.00171283 0.00546424 0.00315976)
(-0.0009337 0.00389774 0.00405291)
(0.0416567 -0.0764784 -0.00412766)
(0.0145351 -0.0770941 -0.00970898)
(0.0123186 -0.10027 -0.0103844)
(0.00452453 -0.10991 -0.00843145)
(-0.000663484 -0.115083 -0.00619419)
(-0.00449226 -0.115337 -0.0041089)
(-0.00656068 -0.112937 -0.00268927)
(-0.00675827 -0.109953 -0.00211507)
(0.0419854 -0.0854023 -0.00300339)
(0.0177469 -0.0800699 -0.00701735)
(0.0120965 -0.099156 -0.00778835)
(0.00464314 -0.108409 -0.00705279)
(-0.000790432 -0.113285 -0.00596274)
(-0.00457271 -0.113944 -0.00483804)
(-0.00659209 -0.112179 -0.00405885)
(-0.00671345 -0.109963 -0.00380885)
(0.044182 -0.0914161 -0.00171852)
(0.0189238 -0.0820951 -0.00416946)
(0.0131215 -0.0992992 -0.00514304)
(0.00518895 -0.107948 -0.00527887)
(-0.00063572 -0.112495 -0.0049822)
(-0.00466907 -0.113246 -0.00457501)
(-0.00684489 -0.111784 -0.00426838)
(-0.00717525 -0.110002 -0.00420677)
(0.0457713 -0.0949536 -0.000969828)
(0.0198965 -0.0835499 -0.00247662)
(0.0140281 -0.0999989 -0.00331703)
(0.00576986 -0.108084 -0.00374024)
(-0.00036775 -0.112365 -0.00387996)
(-0.00463784 -0.113056 -0.00388663)
(-0.00697624 -0.111682 -0.00387854)
(-0.00746094 -0.110099 -0.0039493)
(0.0467761 -0.0970453 -0.000559426)
(0.0205756 -0.0845677 -0.00149281)
(0.014659 -0.100698 -0.00213064)
(0.00619767 -0.108465 -0.00257751)
(-0.000146662 -0.112545 -0.00286175)
(-0.00459072 -0.113134 -0.00303717)
(-0.00705445 -0.111747 -0.0031588)
(-0.00764602 -0.110227 -0.00328131)
(0.0473915 -0.0982957 -0.000324172)
(0.0210144 -0.0852454 -0.000893103)
(0.015064 -0.101254 -0.00133159)
(0.00647431 -0.108857 -0.00168865)
(-5.72764e-07 -0.112806 -0.00195968)
(-0.0045563 -0.113304 -0.00215675)
(-0.00710089 -0.111869 -0.00230124)
(-0.00774947 -0.110354 -0.00242346)
(0.0477453 -0.0990137 -0.000171221)
(0.021272 -0.0856597 -0.000481196)
(0.0153012 -0.101629 -0.000736561)
(0.00663523 -0.109153 -0.000960454)
(8.33675e-05 -0.113027 -0.00114361)
(-0.00453782 -0.11346 -0.00128495)
(-0.00712893 -0.111982 -0.00139095)
(-0.00780579 -0.110455 -0.00147729)
(0.047907 -0.0993443 -5.3811e-05)
(0.0213901 -0.0858568 -0.000152608)
(0.0154098 -0.101815 -0.000236413)
(0.0067082 -0.109308 -0.000312198)
(0.000120495 -0.113148 -0.000376073)
(-0.00453075 -0.113549 -0.000426487)
(-0.00714285 -0.112047 -0.000464605)
(-0.00783221 -0.11051 -0.000495526)
(0.108167 -0.00749253 0.000831223)
(0.108482 -0.00740794 0.0010848)
(0.108754 -0.00697881 0.00101042)
(0.10897 -0.00669498 0.000856892)
(0.109143 -0.00652834 0.000621369)
(0.109288 -0.00646062 0.00039585)
(0.109396 -0.00644306 0.000211634)
(0.109453 -0.00644446 6.57797e-05)
(0.104162 -0.00717128 0.00157505)
(0.104831 -0.00711694 0.00150237)
(0.105224 -0.00700798 0.00130202)
(0.105462 -0.00691897 0.001054)
(0.105607 -0.00687413 0.000779916)
(0.105712 -0.00686667 0.000522386)
(0.105787 -0.00687566 0.000295902)
(0.105827 -0.00688479 9.54584e-05)
(0.103976 -0.00917397 0.00250355)
(0.104643 -0.00910326 0.00198542)
(0.105016 -0.00917611 0.00159491)
(0.105233 -0.00927261 0.00121854)
(0.105361 -0.00936905 0.000895214)
(0.105453 -0.0094478 0.000610577)
(0.105518 -0.00950315 0.000354748)
(0.105554 -0.00953154 0.000116265)
(0.107729 -0.00966446 0.00318214)
(0.108064 -0.00954944 0.00236025)
(0.108279 -0.00991287 0.00184334)
(0.108448 -0.0101945 0.00137322)
(0.108581 -0.0104149 0.00101331)
(0.108695 -0.0105593 0.000703111)
(0.108781 -0.0106465 0.000416398)
(0.108828 -0.0106869 0.00013801)
)
;
        traction        nonuniform List<vector> 
192
(
(188.025 -15.2635 -3.26143)
(188.708 -13.8184 -5.29342)
(188.018 -17.752 -5.53223)
(186.996 -19.393 -5.07721)
(185.708 -20.2864 -4.42968)
(184.159 -20.1593 -3.69702)
(182.18 -19.3158 -2.97271)
(179.203 -18.0101 -2.25228)
(192.553 -17.015 -2.11059)
(193.337 -14.6925 -3.53088)
(192.75 -18.0053 -3.85738)
(191.63 -19.5263 -3.66546)
(190.091 -20.2663 -3.29702)
(188.118 -20.0703 -2.82844)
(185.484 -19.1479 -2.34171)
(181.457 -17.7314 -1.88154)
(195.353 -18.0868 -1.38269)
(196.094 -15.3301 -2.27606)
(195.5 -18.2732 -2.56348)
(194.317 -19.6467 -2.57205)
(192.633 -20.2549 -2.41176)
(190.402 -19.9859 -2.16156)
(187.358 -19.0094 -1.872)
(182.711 -17.562 -1.58764)
(197.305 -18.7449 -0.939473)
(198.005 -15.7392 -1.52505)
(197.371 -18.5665 -1.7422)
(196.131 -19.8047 -1.80849)
(194.338 -20.3145 -1.76609)
(191.929 -19.9739 -1.65061)
(188.61 -18.9443 -1.49092)
(183.559 -17.4652 -1.3173)
(198.687 -19.1561 -0.640239)
(199.361 -16.0145 -1.02749)
(198.685 -18.8041 -1.18209)
(197.392 -19.9669 -1.2534)
(195.516 -20.4071 -1.26064)
(192.978 -20.0068 -1.21645)
(189.468 -18.9279 -1.13374)
(184.143 -17.4134 -1.03001)
(199.64 -19.4141 -0.418484)
(200.298 -16.1972 -0.66638)
(199.59 -18.9778 -0.769468)
(198.254 -20.1018 -0.826425)
(196.315 -20.4981 -0.847309)
(193.686 -20.0541 -0.83548)
(190.048 -18.9352 -0.795373)
(184.538 -17.3888 -0.735973)
(200.242 -19.5673 -0.236945)
(200.891 -16.3097 -0.375234)
(200.161 -19.0908 -0.434498)
(198.796 -20.196 -0.470445)
(196.816 -20.5672 -0.488063)
(194.13 -20.0949 -0.487737)
(190.41 -18.9481 -0.470004)
(184.782 -17.3789 -0.437977)
(200.527 -19.6373 -0.0763695)
(201.166 -16.3619 -0.120486)
(200.427 -19.1455 -0.139873)
(199.049 -20.2433 -0.15219)
(197.05 -20.6032 -0.158887)
(194.337 -20.1171 -0.159882)
(190.576 -18.9544 -0.154839)
(184.871 -17.3732 -0.144003)
(5.33949 -6.38518 168.658)
(8.36214 -0.0763974 166.941)
(8.29892 -0.455458 166.059)
(7.77646 0.0716804 165.627)
(6.92051 0.146295 165.384)
(6.04479 0.164523 165.201)
(5.24979 0.104002 164.995)
(4.65947 -0.0200974 164.644)
(5.69016 -3.09138 162.176)
(8.95842 -0.610823 161.335)
(8.48379 -0.750453 160.643)
(7.66842 -0.514101 160.14)
(6.64378 -0.378932 159.753)
(5.68096 -0.261717 159.436)
(4.84825 -0.179255 159.139)
(4.27176 -0.16157 158.744)
(5.69996 1.01655 155.616)
(8.89417 -1.29301 155.092)
(8.41914 -1.19079 154.459)
(7.56263 -1.18407 153.957)
(6.5496 -0.961121 153.578)
(5.6036 -0.720061 153.295)
(4.78481 -0.488828 153.095)
(4.20868 -0.286655 152.916)
(5.33436 4.43902 147.54)
(7.95712 -1.51385 146.861)
(7.89964 -1.38504 146.227)
(7.28051 -1.64046 145.863)
(6.46438 -1.39001 145.712)
(5.65847 -1.07862 145.738)
(4.93623 -0.742305 145.921)
(4.37887 -0.440276 146.26)
(-128.247 9.85286 2.89416)
(-126.073 10.0813 4.60837)
(-124.988 12.7271 4.77916)
(-124.896 13.8282 4.43831)
(-125.391 14.4301 3.96839)
(-126.387 14.4462 3.45122)
(-127.788 14.0339 2.95173)
(-129.876 13.2414 2.43822)
(-125.914 10.5532 1.70585)
(-124.994 10.0889 2.80019)
(-124.308 12.2833 2.9498)
(-124.154 13.3128 2.8007)
(-124.436 13.8245 2.56095)
(-125.191 13.8189 2.27757)
(-126.365 13.3874 1.99557)
(-128.251 12.5243 1.73571)
(-124.152 11.0266 1.09045)
(-123.576 10.1075 1.81008)
(-123.037 12.0518 1.97859)
(-122.907 12.9961 1.95911)
(-123.166 13.4454 1.85088)
(-123.895 13.4221 1.70213)
(-125.052 12.9873 1.53969)
(-126.958 12.1224 1.38992)
(-122.656 11.2742 0.755639)
(-122.152 10.1176 1.24772)
(-121.659 11.9307 1.3926)
(-121.564 12.7855 1.42002)
(-121.859 13.186 1.38407)
(-122.632 13.1412 1.31192)
(-123.846 12.6984 1.22087)
(-125.839 11.8305 1.13142)
(-121.528 11.3966 0.522156)
(-121.051 10.1215 0.854154)
(-120.576 11.8635 0.963641)
(-120.508 12.661 1.00183)
(-120.837 13.024 0.999031)
(-121.656 12.9581 0.96886)
(-122.925 12.5029 0.920953)
(-124.989 11.625 0.86952)
(-120.726 11.4561 0.343974)
(-120.261 10.1199 0.558414)
(-119.796 11.8237 0.633463)
(-119.745 12.5874 0.666415)
(-120.099 12.9252 0.674594)
(-120.955 12.8425 0.664487)
(-122.266 12.375 0.640843)
(-124.382 11.4858 0.612413)
(-120.21 11.4842 0.195715)
(-119.749 10.1163 0.31597)
(-119.289 11.8002 0.359498)
(-119.248 12.5452 0.380808)
(-119.62 12.868 0.388911)
(-120.501 12.774 0.386797)
(-121.839 12.2968 0.375987)
(-123.992 11.4 0.359451)
(-119.962 11.4952 0.0632507)
(-119.506 10.114 0.101748)
(-119.048 11.79 0.115951)
(-119.013 12.5269 0.123256)
(-119.394 12.8428 0.126424)
(-120.285 12.7429 0.126373)
(-121.637 12.2585 0.123179)
(-123.837 11.3638 0.116722)
(-13.0937 -162.821 -0.456663)
(-12.9621 -162.472 -0.458779)
(-12.7758 -162.248 -0.392676)
(-12.6256 -162.082 -0.318453)
(-12.5164 -161.967 -0.236769)
(-12.4433 -161.89 -0.160715)
(-12.3999 -161.848 -0.0956844)
(-12.3847 -161.863 -0.0331752)
(-12.1537 -156.116 -0.0822511)
(-12.1533 -155.649 -0.171752)
(-12.0379 -155.312 -0.173488)
(-11.9262 -155.051 -0.148339)
(-11.8364 -154.864 -0.113927)
(-11.7723 -154.735 -0.0786743)
(-11.7312 -154.654 -0.0466326)
(-11.7089 -154.618 -0.0158598)
(-11.7202 -149.932 0.0498714)
(-11.7188 -149.351 -0.0410106)
(-11.6056 -148.911 -0.062823)
(-11.4928 -148.556 -0.053675)
(-11.4006 -148.291 -0.0422263)
(-11.3337 -148.104 -0.0299784)
(-11.2906 -147.983 -0.0179307)
(-11.2684 -147.923 -0.00601789)
(-11.7508 -143.42 0.222861)
(-11.6336 -142.572 0.108462)
(-11.4583 -141.941 0.0554159)
(-11.308 -141.426 0.0420646)
(-11.1935 -141.034 0.0284667)
(-11.1133 -140.753 0.0174711)
(-11.0627 -140.57 0.00950415)
(-11.0379 -140.475 0.00314341)
)
;
        pressure        uniform 0;
        value           nonuniform List<vector> 
192
(
(0.00148104 0.00123395 0.000820914)
(0.00294267 0.00222627 0.000999011)
(0.00530856 0.00313619 0.00106154)
(0.00790813 0.00368265 0.000999997)
(0.0107272 0.00394637 0.000908575)
(0.0136047 0.00397345 0.000819576)
(0.0164502 0.00384109 0.000760164)
(0.0192139 0.00363114 0.000743211)
(0.00154576 0.00129362 0.000443519)
(0.00322946 0.002165 0.000663853)
(0.00554857 0.00305695 0.000775703)
(0.00813475 0.00360251 0.000788948)
(0.0109076 0.0038716 0.000762751)
(0.0137422 0.00390913 0.00072657)
(0.0165537 0.00378843 0.000702769)
(0.0193016 0.00359211 0.000703451)
(0.00161825 0.00135076 0.000250728)
(0.00336852 0.00215774 0.000428322)
(0.00571831 0.00300462 0.000541716)
(0.00830308 0.00353079 0.000594178)
(0.0110594 0.00379376 0.000611429)
(0.0138735 0.00383669 0.000614297)
(0.0166683 0.00372836 0.00061811)
(0.0194085 0.00354902 0.000631678)
(0.00166251 0.00138486 0.00014658)
(0.0034487 0.00216253 0.000278718)
(0.00582698 0.00298154 0.000375007)
(0.0084227 0.00348608 0.000436104)
(0.0111791 0.00373852 0.00047304)
(0.0139881 0.00378046 0.000496465)
(0.0167779 0.00367825 0.00051547)
(0.0195167 0.00350925 0.000535346)
(0.0016887 0.00140481 8.75499e-05)
(0.00349684 0.00216988 0.00018124)
(0.00589644 0.00297381 0.000255789)
(0.00850554 0.00346318 0.00031072)
(0.0112689 0.00370553 0.00035054)
(0.0140806 0.0037435 0.000379996)
(0.0168716 0.00364262 0.000403647)
(0.0196121 0.00347841 0.000424023)
(0.00170439 0.00141663 5.16551e-05)
(0.00352623 0.00217664 0.00011383)
(0.00594077 0.002973 0.000166294)
(0.00856138 0.00345314 0.000208258)
(0.0113328 0.00368803 0.00024138)
(0.0141497 0.00372176 0.000267502)
(0.0169442 0.00361997 0.000288565)
(0.0196876 0.00345731 0.000305411)
(0.00171343 0.00142338 2.74261e-05)
(0.0035434 0.00218157 6.29236e-05)
(0.00596741 0.00297444 9.39803e-05)
(0.00859612 0.00344953 0.000119966)
(0.011374 0.00367975 0.000141384)
(0.0141955 0.0037103 0.000158813)
(0.0169934 0.00360715 0.000172928)
(0.0197395 0.00344464 0.000183829)
(0.00171759 0.00142647 8.61777e-06)
(0.00355137 0.00218415 2.01607e-05)
(0.00597998 0.00297567 3.0435e-05)
(0.00861282 0.00344857 3.92073e-05)
(0.0113941 0.00367659 4.65734e-05)
(0.0142183 0.00370548 5.26484e-05)
(0.0170181 0.00360146 5.75783e-05)
(0.0197657 0.00343877 6.13306e-05)
(0.000626598 0.000733737 0.00123867)
(0.00243753 0.00132738 0.00097202)
(0.00478478 0.00198678 0.00107813)
(0.00748474 0.00235548 0.000990431)
(0.0103932 0.00252756 0.000902929)
(0.0133535 0.00253452 0.000818382)
(0.0162579 0.00243154 0.000764096)
(0.0190485 0.00226885 0.000745731)
(0.000167212 0.000229946 0.000437114)
(0.00188183 0.000255241 0.00052745)
(0.00426558 0.000371869 0.00059304)
(0.00704175 0.00035288 0.000625372)
(0.0100124 0.000250273 0.000643249)
(0.0130244 8.8384e-05 0.000653578)
(0.0159683 -0.000104411 0.000665645)
(0.0187771 -0.000305355 0.000679761)
(8.61135e-05 -0.000267262 -0.000226553)
(0.00175597 -0.000586958 -9.20463e-05)
(0.00411206 -0.00105869 6.25126e-05)
(0.00687328 -0.00149489 0.000222944)
(0.00982891 -0.00190109 0.000361352)
(0.0128288 -0.00225865 0.000473986)
(0.0157647 -0.00256354 0.00056262)
(0.018569 -0.00281935 0.00063973)
(0.000361863 -0.00088891 -0.00105543)
(0.00204566 -0.00171464 -0.000596327)
(0.00430482 -0.00274287 -0.000439954)
(0.00695319 -0.00356364 -0.000149873)
(0.00981623 -0.0042308 9.92994e-05)
(0.0127437 -0.00474093 0.000308056)
(0.0156286 -0.00512189 0.000464102)
(0.0184097 -0.00540924 0.000573706)
(0.000986101 -0.00146737 -0.000792795)
(0.00239497 -0.00282186 -0.000693114)
(0.00460565 -0.0041233 -0.000503042)
(0.00712207 -0.00508269 -0.000231885)
(0.00988164 -0.00579096 2.17554e-05)
(0.0127297 -0.00627741 0.00023358)
(0.015568 -0.00660191 0.000390989)
(0.0183369 -0.00683238 0.000496606)
(0.00110103 -0.00157179 -0.000462538)
(0.00267398 -0.00290047 -0.000453072)
(0.00484025 -0.00420693 -0.000336865)
(0.00733349 -0.00516915 -0.000158049)
(0.0100461 -0.00586889 1.92318e-05)
(0.0128535 -0.00634911 0.000171258)
(0.0156625 -0.00667193 0.000287707)
(0.0184202 -0.0069079 0.000369768)
(0.00118012 -0.00166666 -0.000266481)
(0.00281933 -0.00295209 -0.000270539)
(0.00500878 -0.00424755 -0.000203067)
(0.00749596 -0.00520643 -9.16968e-05)
(0.010191 -0.00590496 2.49642e-05)
(0.0129785 -0.00638895 0.000128249)
(0.0157722 -0.00672011 0.000210544)
(0.0185225 -0.00696831 0.000271807)
(0.00122403 -0.00172504 -0.00015323)
(0.00290338 -0.00298896 -0.000157121)
(0.00511733 -0.00427761 -0.000115449)
(0.0076126 -0.00523254 -4.55839e-05)
(0.0103068 -0.00593162 2.93315e-05)
(0.0130893 -0.00641982 9.76156e-05)
(0.0158784 -0.00675829 0.000154013)
(0.0186269 -0.00701582 0.000198053)
(0.00124911 -0.00176019 -8.77723e-05)
(0.00295325 -0.00301525 -8.94271e-05)
(0.00518653 -0.004302 -6.27659e-05)
(0.00769346 -0.00525548 -1.87096e-05)
(0.0103938 -0.00595539 2.89265e-05)
(0.0131788 -0.00644654 7.32034e-05)
(0.0159688 -0.0067897 0.000110854)
(0.0187185 -0.00705307 0.000141389)
(0.00126396 -0.00178144 -4.90701e-05)
(0.00298335 -0.00303345 -4.91864e-05)
(0.00523035 -0.0043209 -3.2431e-05)
(0.00774768 -0.00527464 -5.38787e-06)
(0.0104554 -0.00597556 2.38791e-05)
(0.0132453 -0.00646855 5.14026e-05)
(0.0160385 -0.00681435 7.52857e-05)
(0.0187904 -0.00708107 9.51779e-05)
(0.00127247 -0.0017937 -2.47966e-05)
(0.00300078 -0.00304499 -2.43906e-05)
(0.0052565 -0.00433381 -1.50817e-05)
(0.00778121 -0.00528836 -3.59137e-07)
(0.0104949 -0.00599017 1.55511e-05)
(0.0132891 -0.00648424 3.06095e-05)
(0.0160853 -0.0068314 4.38396e-05)
(0.0188394 -0.00709992 5.50383e-05)
(0.00127639 -0.00179936 -7.56523e-06)
(0.00300884 -0.00305061 -7.34769e-06)
(0.00526878 -0.00434035 -4.35448e-06)
(0.00779726 -0.00529549 3.2642e-07)
(0.0105141 -0.00599781 5.37867e-06)
(0.0133108 -0.00649239 1.01739e-05)
(0.0161088 -0.00684012 1.4412e-05)
(0.018864 -0.0071094 1.80244e-05)
(0.0204167 0.00216865 0.000725912)
(0.020508 0.0021319 0.00066819)
(0.0206233 0.00209353 0.000590088)
(0.0207369 0.00205598 0.000494946)
(0.0208357 0.00202546 0.000389094)
(0.0209133 0.00200341 0.000278672)
(0.0209664 0.00198954 0.000167092)
(0.0209933 0.00198286 5.56412e-05)
(0.0200929 -0.000413902 0.000665704)
(0.0201914 -0.000462809 0.000590781)
(0.0203105 -0.00051079 0.000506215)
(0.0204253 -0.000552658 0.000415731)
(0.0205236 -0.000586043 0.000322545)
(0.0206001 -0.000610356 0.000229201)
(0.020652 -0.000625994 0.000136832)
(0.0206782 -0.000633612 4.54765e-05)
(0.0198809 -0.00297019 0.000623505)
(0.0199776 -0.00303333 0.000523832)
(0.020095 -0.0030891 0.000430506)
(0.0202085 -0.0031349 0.000342959)
(0.0203058 -0.00317059 0.000260917)
(0.0203812 -0.00319665 0.000183219)
(0.0204324 -0.00321366 0.000108661)
(0.0204582 -0.00322204 3.60063e-05)
(0.019768 -0.00557877 0.000562821)
(0.0198549 -0.00565273 0.000446882)
(0.0199657 -0.00571719 0.000347434)
(0.0200757 -0.00576701 0.000264585)
(0.0201713 -0.00580542 0.000195071)
(0.020246 -0.00583363 0.00013426)
(0.0202967 -0.00585231 7.87094e-05)
(0.0203223 -0.00586161 2.59436e-05)
)
;
    }
    symmetry
    {
        type            symmetryPlane;
    }
    bottom
    {
        type            fixedDisplacement;
        value           uniform (0 0 0);
    }
}


// ************************************************************************* //
