/*--------------------------------*- C++ -*----------------------------------*\
| =========                 |                                                 |
| \\      /  F ield         | foam-extend: Open Source CFD                    |
|  \\    /   O peration     | Version:     3.1                                |
|   \\  /    A nd           | Web:         http://www.extend-project.de       |
|    \\/     M anipulation  |                                                 |
\*---------------------------------------------------------------------------*/
FoamFile
{
    version     2.0;
    format      ascii;
    class       volVectorField;
    location    "0.7";
    object      D_0;
}
// * * * * * * * * * * * * * * * * * * * * * * * * * * * * * * * * * * * * * //

dimensions      [0 1 0 0 0 0 0];

internalField   nonuniform List<vector> 
256
(
(0.00060392 0.00020614 0.000675808)
(0.000279277 -2.674e-05 0.000273008)
(0.000210592 -0.000166468 -9.83648e-05)
(0.000372863 -0.000416749 -0.000537247)
(0.00216151 0.0010349 0.000788479)
(0.00179015 0.000136789 0.000466234)
(0.00168207 -0.000573812 1.3643e-05)
(0.00181846 -0.00148922 -0.000347764)
(0.00402426 0.00152186 0.000854097)
(0.00366527 0.000214842 0.000538242)
(0.00353598 -0.000943276 0.000166244)
(0.00362224 -0.00228739 -0.00016146)
(0.00613669 0.00183181 0.000836003)
(0.00582478 0.000213625 0.000586976)
(0.00568379 -0.00128102 0.000300372)
(0.00569832 -0.00293527 4.80504e-05)
(0.00837857 0.00195938 0.000797206)
(0.0081064 0.000142336 0.00061588)
(0.00795691 -0.00157666 0.000412936)
(0.00791439 -0.00342238 0.000231974)
(0.0106465 0.00195509 0.000760162)
(0.0104076 2.45222e-05 0.000636951)
(0.0102517 -0.00183127 0.000502028)
(0.0101652 -0.00378124 0.000379768)
(0.0128659 0.00186091 0.000740583)
(0.0126514 -0.000120563 0.000657482)
(0.0124916 -0.00204724 0.000572095)
(0.0123761 -0.0040409 0.000489884)
(0.0149993 0.00171893 0.000745106)
(0.0147931 -0.000277062 0.00068198)
(0.0146317 -0.00223163 0.000631938)
(0.014507 -0.00423682 0.000569173)
(0.00064992 0.000184265 0.000367358)
(0.000354192 -4.94198e-05 0.000157299)
(0.000300163 -0.000181753 -5.86845e-05)
(0.000466434 -0.000420732 -0.000301185)
(0.00234875 0.000951597 0.000532263)
(0.00192767 6.34735e-05 0.00031751)
(0.00182003 -0.000628785 2.80681e-05)
(0.00200098 -0.0015358 -0.000209989)
(0.00421702 0.00145851 0.000630875)
(0.00385162 0.000141552 0.000409758)
(0.00372042 -0.00102271 0.000147334)
(0.00380682 -0.00237438 -8.39413e-05)
(0.00631522 0.00177388 0.000661866)
(0.00599791 0.000144526 0.000472112)
(0.00585329 -0.00136152 0.000257459)
(0.00586382 -0.00302611 6.49556e-05)
(0.00852614 0.00191043 0.000663736)
(0.00825306 8.15046e-05 0.000513992)
(0.00809943 -0.00165146 0.000350852)
(0.00804885 -0.00350846 0.00020141)
(0.0107624 0.00191183 0.000658592)
(0.0105244 -2.935e-05 0.000544979)
(0.0103651 -0.0018982 0.000426046)
(0.0102708 -0.0038586 0.000313602)
(0.0129573 0.00182125 0.000659924)
(0.0127449 -0.00016985 0.00057242)
(0.012583 -0.00210812 0.000486329)
(0.0124616 -0.00411145 0.00040001)
(0.0150797 0.00168206 0.00067414)
(0.0148754 -0.0003234 0.000601678)
(0.014713 -0.00228993 0.000537896)
(0.0145851 -0.00430492 0.000466173)
(0.000677683 0.000193125 0.000211871)
(0.000374552 -5.0397e-05 9.65016e-05)
(0.00032535 -0.000188736 -3.05474e-05)
(0.000509464 -0.000437682 -0.000168479)
(0.00244646 0.000920412 0.000356197)
(0.00199777 3.13662e-05 0.000218121)
(0.00189214 -0.000652615 3.72209e-05)
(0.00210393 -0.00156181 -0.000114474)
(0.00434518 0.00140955 0.000455257)
(0.00395831 9.48711e-05 0.000305143)
(0.00382562 -0.00106313 0.000128112)
(0.00392988 -0.00241211 -2.93194e-05)
(0.00644814 0.00171536 0.000508532)
(0.00611772 9.11982e-05 0.000369621)
(0.00597048 -0.00140922 0.000215069)
(0.00598879 -0.00306829 7.40137e-05)
(0.00865144 0.00185127 0.000536343)
(0.00837104 2.74107e-05 0.000417002)
(0.00821466 -0.00170175 0.000290285)
(0.0081662 -0.00355365 0.00017125)
(0.0108751 0.00185659 0.00055333)
(0.0106341 -8.14527e-05 0.000453438)
(0.0104726 -0.00194893 0.000352247)
(0.0103774 -0.00390645 0.000253523)
(0.0130594 0.00177272 0.000569635)
(0.0128469 -0.000218979 0.000484577)
(0.0126837 -0.00215907 0.00040304)
(0.01256 -0.00416334 0.000319234)
(0.0151783 0.00164137 0.000590282)
(0.0149758 -0.000369465 0.000514805)
(0.0148126 -0.00234167 0.000446817)
(0.0146816 -0.0043623 0.000372251)
(0.000692636 0.000199613 0.000127153)
(0.000381029 -5.01912e-05 6.15643e-05)
(0.000333438 -0.000192423 -1.3853e-05)
(0.000529784 -0.000449215 -9.37429e-05)
(0.00250088 0.000909443 0.000239868)
(0.00203586 1.60906e-05 0.000151821)
(0.00193172 -0.000665104 3.84433e-05)
(0.0021625 -0.00157935 -5.75452e-05)
(0.00442572 0.00138077 0.000325087)
(0.00402434 6.66883e-05 0.00022458)
(0.00389123 -0.00108626 0.000106695)
(0.004009 -0.00243429 1.29743e-06)
(0.00654207 0.00167416 0.000381654)
(0.0062014 5.41874e-05 0.000282692)
(0.00605282 -0.00143993 0.0001735)
(0.0060788 -0.00309478 7.27648e-05)
(0.00874975 0.0018044 0.000419664)
(0.00846309 -1.42066e-05 0.000328232)
(0.00830518 -0.00173743 0.000232482)
(0.00826015 -0.0035844 0.000141108)
(0.0109728 0.00180955 0.000447207)
(0.0107288 -0.000124408 0.00036455)
(0.010566 -0.0019879 0.000282104)
(0.0104715 -0.0039419 0.000200324)
(0.0131555 0.00172938 0.000470709)
(0.0129424 -0.000261221 0.000395242)
(0.0127783 -0.00220043 0.000323556)
(0.0126535 -0.00420414 0.000249182)
(0.0152753 0.00160352 0.000493362)
(0.0150738 -0.000409981 0.000423225)
(0.01491 -0.00238496 0.00035946)
(0.0147768 -0.00440863 0.000290248)
(0.000701168 0.000203488 7.79835e-05)
(0.000383645 -5.00142e-05 3.98849e-05)
(0.000336717 -0.000194655 -4.97781e-06)
(0.000540733 -0.000456497 -5.17282e-05)
(0.00253336 0.00090595 0.00016056)
(0.00205819 8.33405e-06 0.000104866)
(0.00195493 -0.000672621 3.40393e-05)
(0.00219743 -0.00159207 -2.62679e-05)
(0.00447755 0.00136591 0.000227423)
(0.00406708 5.0054e-05 0.000161104)
(0.00393394 -0.00110091 8.379e-05)
(0.00406056 -0.00245071 1.43594e-05)
(0.00660783 0.00164913 0.000277052)
(0.00626025 2.99087e-05 0.000208434)
(0.00611102 -0.00146082 0.000133192)
(0.00614256 -0.00311493 6.32281e-05)
(0.00882404 0.00177284 0.000314302)
(0.00853286 -4.37054e-05 0.000247229)
(0.00837409 -0.00176326 0.000177553)
(0.00833186 -0.00360842 0.000110376)
(0.0110517 0.00177555 0.000343222)
(0.0108053 -0.000156612 0.000279048)
(0.0106417 -0.00201743 0.000215525)
(0.010548 -0.00397004 0.000151935)
(0.0132373 0.00169627 0.000367332)
(0.0130234 -0.000294148 0.000305876)
(0.0128586 -0.00223267 0.000247681)
(0.0127331 -0.00423658 0.000187092)
(0.0153601 0.00157324 0.000388203)
(0.0151587 -0.000442421 0.000329316)
(0.0149942 -0.0024192 0.000275559)
(0.0148596 -0.00444524 0.000217504)
(0.000706318 0.000205805 4.704e-05)
(0.000385051 -4.99237e-05 2.51387e-05)
(0.000338461 -0.000196054 -9.21323e-07)
(0.000547208 -0.000461064 -2.78187e-05)
(0.00255345 0.000905392 0.000103019)
(0.00207198 4.27687e-06 6.90074e-05)
(0.00196924 -0.000677453 2.61781e-05)
(0.00221893 -0.00160124 -1.04435e-05)
(0.00451113 0.00135887 0.000150548)
(0.00409502 4.04162e-05 0.000108657)
(0.00396194 -0.00111054 6.01218e-05)
(0.00409413 -0.00246315 1.63475e-05)
(0.0066528 0.00163519 0.000188191)
(0.00630082 1.4725e-05 0.000143199)
(0.00615126 -0.00147507 9.41261e-05)
(0.00618642 -0.00313051 4.82121e-05)
(0.00887746 0.00175359 0.000218168)
(0.00858326 -6.32419e-05 0.00017237)
(0.00842398 -0.00178148 0.000125047)
(0.00838363 -0.00362706 7.91031e-05)
(0.011111 0.00175343 0.000242331)
(0.0108628 -0.000178877 0.000196769)
(0.0106986 -0.00203877 0.000151851)
(0.0106054 -0.00399172 0.000106652)
(0.0133007 0.00167364 0.000262367)
(0.0130859 -0.000317635 0.000217345)
(0.0129205 -0.0022563 0.000174754)
(0.0127946 -0.00426122 0.000130362)
(0.0154268 0.00155166 0.000278775)
(0.015225 -0.000466097 0.000234802)
(0.0150599 -0.00244449 0.000194585)
(0.0149243 -0.00447269 0.000151275)
(0.000709361 0.000207131 2.53625e-05)
(0.00038591 -4.98856e-05 1.39679e-05)
(0.000339508 -0.000196888 3.71851e-07)
(0.000551008 -0.000463763 -1.35968e-05)
(0.00256539 0.000905767 5.77307e-05)
(0.00208026 2.20324e-06 3.93428e-05)
(0.00197782 -0.000680436 1.63554e-05)
(0.00223166 -0.00160727 -3.36252e-06)
(0.00453162 0.00135586 8.60493e-05)
(0.00411223 3.51328e-05 6.28625e-05)
(0.00397921 -0.00111652 3.61372e-05)
(0.00411465 -0.00247163 1.19446e-05)
(0.00668112 0.0016281 0.000109316)
(0.00632654 5.95585e-06 8.3785e-05)
(0.00617682 -0.00148408 5.60546e-05)
(0.0062141 -0.00314127 2.99917e-05)
(0.00891213 0.00174297 0.00012845)
(0.00861609 -7.498e-05 0.000101778)
(0.00845651 -0.00179318 7.43137e-05)
(0.00841726 -0.00363995 4.75324e-05)
(0.0111504 0.00174056 0.000144196)
(0.0109011 -0.000192663 0.000117011)
(0.0107365 -0.00205264 9.02718e-05)
(0.0106436 -0.00400657 6.32878e-05)
(0.0133437 0.00165992 0.000157239)
(0.0131282 -0.000332509 0.000129865)
(0.0129623 -0.00227176 0.00010398)
(0.0128362 -0.00427788 7.69905e-05)
(0.0154726 0.00153816 0.000167602)
(0.0152703 -0.000481357 0.000140568)
(0.0151046 -0.00246111 0.000115824)
(0.0149684 -0.00449105 8.92188e-05)
(0.000710791 0.000207741 8.0308e-06)
(0.000386337 -4.98725e-05 4.49021e-06)
(0.000340023 -0.000197279 2.65637e-07)
(0.000552791 -0.000465023 -4.06765e-06)
(0.002571 0.000906146 1.86185e-05)
(0.0020842 1.32407e-06 1.27981e-05)
(0.0019819 -0.000681876 5.55048e-06)
(0.00223765 -0.00161027 -6.77272e-07)
(0.0045414 0.0013548 2.80165e-05)
(0.00412049 3.27955e-05 2.05884e-05)
(0.00398751 -0.00111941 1.2052e-05)
(0.00412443 -0.00247594 4.30813e-06)
(0.00669485 0.00162518 3.58681e-05)
(0.00633906 1.95504e-06 2.7587e-05)
(0.00618927 -0.00148846 1.86131e-05)
(0.00622753 -0.00314678 1.01586e-05)
(0.00892921 0.00173832 4.24188e-05)
(0.0086323 -8.04616e-05 3.36575e-05)
(0.00847256 -0.00179892 2.4652e-05)
(0.00843382 -0.00364654 1.58514e-05)
(0.0111701 0.00173472 4.78596e-05)
(0.0109202 -0.000199217 3.88264e-05)
(0.0107555 -0.00205947 2.99508e-05)
(0.0106626 -0.00401412 2.09822e-05)
(0.0133653 0.00165353 5.23664e-05)
(0.0131495 -0.000339679 4.31897e-05)
(0.0129834 -0.0022794 3.45132e-05)
(0.0128571 -0.00428629 2.54664e-05)
(0.0154958 0.00153171 5.5898e-05)
(0.0152932 -0.000488797 4.67894e-05)
(0.0151272 -0.00246934 3.84502e-05)
(0.0149906 -0.00450026 2.94897e-05)
)
;

boundaryField
{
    interface
    {
        type            tractionDisplacement;
        gradient        nonuniform List<vector> 
192
(
(0.0012504 8.90088e-08 -6.27537e-06)
(0.00125106 2.32615e-07 -7.48491e-06)
(0.0012496 5.25483e-07 -7.47543e-06)
(0.00124673 8.45864e-07 -7.27339e-06)
(0.00124237 1.23213e-06 -6.95727e-06)
(0.00123606 1.75972e-06 -6.48764e-06)
(0.00122701 2.65546e-06 -5.77696e-06)
(0.00121237 4.4017e-06 -4.57372e-06)
(0.00127836 1.58951e-07 -4.18175e-06)
(0.00127813 3.40733e-07 -4.98588e-06)
(0.00127606 6.81215e-07 -4.94782e-06)
(0.00127234 1.07974e-06 -4.77587e-06)
(0.0012667 1.57845e-06 -4.5173e-06)
(0.00125852 2.26978e-06 -4.14438e-06)
(0.00124668 3.43378e-06 -3.60938e-06)
(0.00122774 5.61186e-06 -2.83028e-06)
(0.0012969 2.0556e-07 -2.92788e-06)
(0.00129628 4.22773e-07 -3.50022e-06)
(0.00129375 8.10625e-07 -3.4639e-06)
(0.00128935 1.27314e-06 -3.32432e-06)
(0.00128271 1.85533e-06 -3.11929e-06)
(0.00127309 2.65704e-06 -2.83373e-06)
(0.00125927 3.97152e-06 -2.44508e-06)
(0.00123752 6.33252e-06 -1.9299e-06)
(0.00131022 2.36666e-07 -2.12187e-06)
(0.00130939 4.82114e-07 -2.53952e-06)
(0.00130652 9.12912e-07 -2.50899e-06)
(0.00130157 1.426e-06 -2.39958e-06)
(0.00129415 2.06871e-06 -2.2415e-06)
(0.00128345 2.94405e-06 -2.02736e-06)
(0.00126819 4.35007e-06 -1.74696e-06)
(0.00124452 6.81512e-06 -1.39307e-06)
(0.00131978 2.59652e-07 -1.51365e-06)
(0.00131882 5.26652e-07 -1.81147e-06)
(0.00131569 9.91037e-07 -1.78752e-06)
(0.00131032 1.54199e-06 -1.7059e-06)
(0.0013023 2.22756e-06 -1.58946e-06)
(0.00129082 3.15197e-06 -1.43486e-06)
(0.00127453 4.6157e-06 -1.23756e-06)
(0.00124954 7.14639e-06 -9.95544e-07)
(0.00132642 2.76131e-07 -1.01788e-06)
(0.00132536 5.58719e-07 -1.21811e-06)
(0.00132204 1.04754e-06 -1.20117e-06)
(0.00131638 1.62535e-06 -1.14496e-06)
(0.00130794 2.34023e-06 -1.06545e-06)
(0.0012959 3.29691e-06 -9.61283e-07)
(0.00127891 4.79762e-06 -8.30326e-07)
(0.00125304 7.37104e-06 -6.71486e-07)
(0.00133063 2.87035e-07 -5.86262e-07)
(0.00132951 5.79709e-07 -7.01327e-07)
(0.00132607 1.08477e-06 -6.91544e-07)
(0.00132021 1.68017e-06 -6.58841e-07)
(0.00131151 2.41383e-06 -6.12817e-07)
(0.00129912 3.39091e-06 -5.5309e-07)
(0.00128169 4.9157e-06 -4.77739e-07)
(0.00125526 7.51474e-06 -3.82182e-07)
(0.00133265 2.92824e-07 -1.90632e-07)
(0.00133149 5.90077e-07 -2.27698e-07)
(0.001328 1.10224e-06 -2.24725e-07)
(0.00132205 1.70638e-06 -2.14081e-07)
(0.00131322 2.44881e-06 -1.99112e-07)
(0.00130067 3.43614e-06 -1.79825e-07)
(0.00128303 4.97701e-06 -1.55001e-07)
(0.00125626 7.58408e-06 -1.20792e-07)
(1.09308e-05 7.23725e-08 0.00114973)
(1.30776e-05 1.27851e-07 0.00114889)
(1.31548e-05 1.98457e-07 0.00114824)
(1.29808e-05 2.92527e-07 0.0011473)
(1.2715e-05 4.04896e-07 0.00114595)
(1.23458e-05 5.36693e-07 0.00114413)
(1.18492e-05 6.86119e-07 0.00114175)
(1.13079e-05 8.03277e-07 0.00113874)
(1.00547e-05 2.11513e-08 0.0010997)
(1.20342e-05 3.77271e-08 0.00109949)
(1.21003e-05 5.67502e-08 0.0010993)
(1.19489e-05 8.24212e-08 0.00109902)
(1.17254e-05 1.12105e-07 0.00109863)
(1.14243e-05 1.44074e-07 0.00109811)
(1.10382e-05 1.71046e-07 0.00109746)
(1.0708e-05 1.6209e-07 0.00109671)
(1.00418e-05 -2.70428e-08 0.00105277)
(1.20188e-05 -4.56996e-08 0.00105298)
(1.20844e-05 -6.9588e-08 0.00105321)
(1.1933e-05 -1.00411e-07 0.00105354)
(1.171e-05 -1.3707e-07 0.001054)
(1.141e-05 -1.80176e-07 0.00105463)
(1.10258e-05 -2.2871e-07 0.00105544)
(1.06983e-05 -2.6355e-07 0.00105648)
(1.09054e-05 -8.04064e-08 0.00100291)
(1.30452e-05 -1.36982e-07 0.00100376)
(1.312e-05 -2.11694e-07 0.00100444)
(1.29457e-05 -3.09713e-07 0.00100544)
(1.26804e-05 -4.27843e-07 0.00100685)
(1.23126e-05 -5.69225e-07 0.00100876)
(1.18188e-05 -7.38586e-07 0.00101129)
(1.12818e-05 -8.99354e-07 0.00101456)
(-0.000903606 -9.63547e-08 6.85177e-06)
(-0.000902881 -2.51564e-07 8.12936e-06)
(-0.000904348 -5.72774e-07 8.11249e-06)
(-0.00090722 -9.20022e-07 7.89131e-06)
(-0.000911576 -1.33875e-06 7.54482e-06)
(-0.000917854 -1.91504e-06 7.02877e-06)
(-0.00092686 -2.91625e-06 6.2435e-06)
(-0.00094155 -4.95238e-06 4.89368e-06)
(-0.000876477 -1.72336e-07 4.42126e-06)
(-0.000876696 -3.68407e-07 5.23941e-06)
(-0.000878763 -7.40343e-07 5.19106e-06)
(-0.000882477 -1.17274e-06 5.00456e-06)
(-0.000888098 -1.71422e-06 4.72407e-06)
(-0.000896245 -2.4707e-06 4.31857e-06)
(-0.000908024 -3.77243e-06 3.7342e-06)
(-0.000927051 -6.30466e-06 2.87503e-06)
(-0.000858904 -2.23527e-07 3.02815e-06)
(-0.000859518 -4.57468e-07 3.59773e-06)
(-0.000862036 -8.80012e-07 3.55226e-06)
(-0.00086643 -1.38156e-06 3.40144e-06)
(-0.000873045 -2.0136e-06 3.18024e-06)
(-0.000882602 -2.89053e-06 2.87178e-06)
(-0.000896351 -4.35875e-06 2.45083e-06)
(-0.000918167 -7.09737e-06 1.88924e-06)
(-0.00084644 -2.57774e-07 2.16159e-06)
(-0.000847264 -5.21851e-07 2.57079e-06)
(-0.000850126 -9.90306e-07 2.53274e-06)
(-0.00085506 -1.54618e-06 2.41474e-06)
(-0.000862449 -2.24345e-06 2.24466e-06)
(-0.000873069 -3.20009e-06 2.01421e-06)
(-0.000888236 -4.76849e-06 1.71208e-06)
(-0.000911949 -7.62329e-06 1.32891e-06)
(-0.000837595 -2.83051e-07 1.52365e-06)
(-0.00083856 -5.70096e-07 1.81175e-06)
(-0.000841682 -1.07445e-06 1.78199e-06)
(-0.000847026 -1.67087e-06 1.69407e-06)
(-0.000854997 -2.41412e-06 1.56902e-06)
(-0.000866396 -3.42352e-06 1.40308e-06)
(-0.00088257 -5.05455e-06 1.19126e-06)
(-0.000907581 -7.98206e-06 9.30362e-07)
(-0.000831511 -3.01135e-07 1.01526e-06)
(-0.000832571 -6.04765e-07 1.20705e-06)
(-0.000835879 -1.13523e-06 1.18601e-06)
(-0.000841519 -1.76034e-06 1.1255e-06)
(-0.000849902 -2.53489e-06 1.04024e-06)
(-0.000861845 -3.57878e-06 9.28656e-07)
(-0.000878708 -5.24964e-06 7.88457e-07)
(-0.000904589 -8.22417e-06 6.17775e-07)
(-0.000827684 -3.13066e-07 5.81157e-07)
(-0.000828802 -6.27424e-07 6.90621e-07)
(-0.00083223 -1.17521e-06 6.7841e-07)
(-0.000838059 -1.81904e-06 6.43226e-07)
(-0.000846706 -2.61357e-06 5.93914e-07)
(-0.000858993 -3.67914e-06 5.30029e-07)
(-0.000876286 -5.37574e-06 4.49542e-07)
(-0.000902707 -8.37837e-06 3.46949e-07)
(-0.000825854 -3.19376e-07 1.88378e-07)
(-0.000827006 -6.38536e-07 2.23531e-07)
(-0.000830489 -1.19398e-06 2.19753e-07)
(-0.000836409 -1.8471e-06 2.083e-07)
(-0.000845182 -2.65092e-06 1.92268e-07)
(-0.000857629 -3.72725e-06 1.71653e-07)
(-0.000875121 -5.44102e-06 1.45178e-07)
(-0.000901879 -8.45211e-06 1.08378e-07)
(1.13077e-05 -0.00113956 -9.86196e-07)
(1.18661e-05 -0.00114323 -8.3836e-07)
(1.23873e-05 -0.00114616 -6.69958e-07)
(1.27835e-05 -0.00114847 -5.21832e-07)
(1.30767e-05 -0.00115024 -3.91006e-07)
(1.32868e-05 -0.00115152 -2.72808e-07)
(1.34306e-05 -0.00115236 -1.66012e-07)
(1.35055e-05 -0.00115283 -5.78898e-08)
(1.07333e-05 -0.00109747 -3.23353e-07)
(1.10861e-05 -0.00109878 -2.9851e-07)
(1.14951e-05 -0.00109989 -2.50886e-07)
(1.18192e-05 -0.0011008 -2.02547e-07)
(1.20647e-05 -0.00110151 -1.55909e-07)
(1.22434e-05 -0.00110204 -1.10734e-07)
(1.23687e-05 -0.0011024 -6.67961e-08)
(1.24387e-05 -0.00110257 -2.25708e-08)
(1.07338e-05 -0.00105712 1.29308e-07)
(1.10872e-05 -0.00105654 1.24779e-07)
(1.1494e-05 -0.00105609 9.54584e-08)
(1.18153e-05 -0.00105577 6.74789e-08)
(1.20582e-05 -0.00105555 4.5425e-08)
(1.22347e-05 -0.00105541 2.87838e-08)
(1.23586e-05 -0.00105532 1.65634e-08)
(1.24277e-05 -0.00105528 5.73912e-09)
(1.13263e-05 -0.00101504 7.95589e-07)
(1.18919e-05 -0.00101212 6.58727e-07)
(1.24086e-05 -0.00100987 5.05786e-07)
(1.27978e-05 -0.00100817 3.78169e-07)
(1.3084e-05 -0.00100692 2.73189e-07)
(1.32882e-05 -0.00100604 1.85436e-07)
(1.34278e-05 -0.00100548 1.12584e-07)
(1.35008e-05 -0.00100515 4.00141e-08)
)
;
        traction        nonuniform List<vector> 
192
(
(26.7942 0.00190733 -0.134472)
(26.8085 0.00498462 -0.160391)
(26.7772 0.0112604 -0.160188)
(26.7157 0.0181257 -0.155858)
(26.6222 0.0264028 -0.149084)
(26.487 0.0377082 -0.139021)
(26.293 0.0569026 -0.123792)
(25.9793 0.0943222 -0.0980083)
(27.3935 0.0034061 -0.0896089)
(27.3884 0.00730142 -0.10684)
(27.3441 0.0145975 -0.106025)
(27.2645 0.0231373 -0.10234)
(27.1437 0.033824 -0.0967993)
(26.9683 0.0486382 -0.0888082)
(26.7147 0.0735809 -0.077344)
(26.3087 0.120254 -0.0606489)
(27.7907 0.00440487 -0.0627403)
(27.7773 0.00905942 -0.0750048)
(27.7233 0.0173705 -0.0742265)
(27.6289 0.0272816 -0.0712353)
(27.4865 0.039757 -0.066842)
(27.2806 0.0569365 -0.0607228)
(26.9843 0.085104 -0.0523946)
(26.5182 0.135697 -0.0413549)
(28.0762 0.00507141 -0.0454687)
(28.0584 0.010331 -0.0544183)
(27.997 0.0195624 -0.0537641)
(27.8909 0.0305572 -0.0514196)
(27.7317 0.0443295 -0.0480322)
(27.5026 0.0630869 -0.0434433)
(27.1755 0.0932158 -0.0374349)
(26.6683 0.146038 -0.0298516)
(28.2811 0.00556398 -0.0324353)
(28.2603 0.0112854 -0.0388172)
(28.1933 0.0212365 -0.038304)
(28.0783 0.0330426 -0.0365551)
(27.9065 0.0477333 -0.0340599)
(27.6604 0.0675421 -0.0307469)
(27.3113 0.0989078 -0.0265191)
(26.7759 0.153137 -0.0213331)
(28.4234 0.00591708 -0.0218117)
(28.4006 0.0119725 -0.0261023)
(28.3295 0.0224473 -0.0257394)
(28.2081 0.034829 -0.0245348)
(28.0273 0.0501478 -0.0228311)
(27.7694 0.0706481 -0.0205989)
(27.4052 0.102806 -0.0177927)
(26.8508 0.157951 -0.014389)
(28.5135 0.00615074 -0.0125628)
(28.4894 0.0124223 -0.0150284)
(28.4158 0.023245 -0.0148188)
(28.2903 0.0360036 -0.014118)
(28.1037 0.0517248 -0.0131318)
(27.8383 0.0726623 -0.0118519)
(27.4647 0.105336 -0.0102373)
(26.8984 0.16103 -0.00818961)
(28.5567 0.00627479 -0.00408497)
(28.532 0.0126445 -0.00487923)
(28.4571 0.0236193 -0.00481554)
(28.3296 0.0365652 -0.00458744)
(28.1404 0.0524745 -0.00426669)
(27.8714 0.0736316 -0.00385339)
(27.4935 0.10665 -0.00332146)
(26.9199 0.162516 -0.00258841)
(0.234232 0.00155084 24.637)
(0.280235 0.00273965 24.6191)
(0.281888 0.00425265 24.6052)
(0.278159 0.00626843 24.5849)
(0.272465 0.00867633 24.5561)
(0.264553 0.0115006 24.5171)
(0.253912 0.0147025 24.4661)
(0.242312 0.0172131 24.4015)
(0.215458 0.000453242 23.565)
(0.257875 0.000808438 23.5605)
(0.259292 0.00121608 23.5564)
(0.256048 0.00176617 23.5504)
(0.251258 0.00240225 23.542)
(0.244806 0.00308729 23.5309)
(0.236532 0.00366528 23.517)
(0.229457 0.00347336 23.5009)
(0.215181 -0.00057949 22.5593)
(0.257546 -0.000979277 22.564)
(0.258951 -0.00149117 22.5688)
(0.255708 -0.00215167 22.5758)
(0.250929 -0.00293722 22.5858)
(0.244501 -0.00386092 22.5992)
(0.236268 -0.00490093 22.6167)
(0.22925 -0.00564749 22.6389)
(0.233687 -0.00172299 21.4909)
(0.279539 -0.00293532 21.5091)
(0.281144 -0.00453631 21.5238)
(0.277407 -0.00663671 21.5451)
(0.271722 -0.00916805 21.5754)
(0.263841 -0.0121977 21.6164)
(0.253261 -0.0158268 21.6704)
(0.241752 -0.0192719 21.7405)
(-19.363 -0.00206474 0.146824)
(-19.3475 -0.00539066 0.174201)
(-19.3789 -0.0122737 0.173839)
(-19.4404 -0.0197148 0.1691)
(-19.5338 -0.0286875 0.161675)
(-19.6683 -0.0410367 0.150616)
(-19.8613 -0.0624911 0.133789)
(-20.1761 -0.106122 0.104865)
(-18.7816 -0.00369291 0.0947413)
(-18.7863 -0.00789443 0.112273)
(-18.8306 -0.0158645 0.111237)
(-18.9102 -0.0251302 0.107241)
(-19.0307 -0.0367334 0.10123)
(-19.2052 -0.0529437 0.0925409)
(-19.4577 -0.0808377 0.0800185)
(-19.8654 -0.1351 0.0616077)
(-18.4051 -0.00478987 0.064889)
(-18.4182 -0.00980289 0.0770943)
(-18.4722 -0.0188574 0.0761199)
(-18.5664 -0.0296049 0.0728881)
(-18.7081 -0.0431486 0.0681481)
(-18.9129 -0.06194 0.0615382)
(-19.2075 -0.0934018 0.0525179)
(-19.675 -0.152086 0.0404836)
(-18.138 -0.00552373 0.0463197)
(-18.1556 -0.0111825 0.0550883)
(-18.217 -0.0212208 0.054273)
(-18.3227 -0.0331325 0.0517444)
(-18.481 -0.048074 0.0480998)
(-18.7086 -0.0685733 0.0431617)
(-19.0336 -0.102182 0.0366875)
(-19.5418 -0.163356 0.0284766)
(-17.9485 -0.00606538 0.0326497)
(-17.9691 -0.0122163 0.0388231)
(-18.036 -0.023024 0.0381856)
(-18.1506 -0.0358044 0.0363015)
(-18.3214 -0.0517312 0.0336219)
(-18.5656 -0.0733611 0.0300661)
(-18.9122 -0.108312 0.0255271)
(-19.4482 -0.171044 0.0199363)
(-17.8181 -0.00645288 0.0217555)
(-17.8408 -0.0129593 0.0258653)
(-17.9117 -0.0243264 0.0254145)
(-18.0325 -0.0377215 0.0241178)
(-18.2122 -0.0543192 0.0222908)
(-18.4681 -0.0766882 0.0198998)
(-18.8294 -0.112492 0.0168955)
(-19.3841 -0.176232 0.013238)
(-17.7361 -0.00670857 0.0124534)
(-17.7601 -0.0134448 0.014799)
(-17.8335 -0.0251831 0.0145374)
(-17.9584 -0.0389794 0.0137834)
(-18.1437 -0.0560052 0.0127267)
(-18.407 -0.0788387 0.0113578)
(-18.7775 -0.115194 0.00963305)
(-19.3437 -0.179537 0.00743463)
(-17.6969 -0.00684377 0.00403667)
(-17.7216 -0.0136829 0.00478996)
(-17.7962 -0.0255853 0.00470898)
(-17.9231 -0.0395806 0.00446357)
(-18.111 -0.0568055 0.00412003)
(-18.3778 -0.0798697 0.00367828)
(-18.7526 -0.116593 0.00311095)
(-19.326 -0.181117 0.00232238)
(0.242309 -24.4191 -0.0211328)
(0.254273 -24.4977 -0.0179648)
(0.265441 -24.5605 -0.0143563)
(0.273931 -24.61 -0.0111821)
(0.280215 -24.6479 -0.00837869)
(0.284717 -24.6755 -0.00584588)
(0.287799 -24.6935 -0.0035574)
(0.289404 -24.7035 -0.0012405)
(0.229999 -23.5171 -0.006929)
(0.237559 -23.5453 -0.00639663)
(0.246324 -23.5691 -0.00537612)
(0.253268 -23.5885 -0.00434029)
(0.25853 -23.6038 -0.00334091)
(0.262358 -23.6152 -0.00237288)
(0.265043 -23.6228 -0.00143135)
(0.266544 -23.6265 -0.00048366)
(0.23001 -22.6525 0.00277088)
(0.237582 -22.6402 0.00267384)
(0.2463 -22.6305 0.00204554)
(0.253185 -22.6237 0.00144598)
(0.25839 -22.6189 0.000973392)
(0.262173 -22.6158 0.000616796)
(0.264827 -22.614 0.00035493)
(0.266308 -22.6131 0.000122981)
(0.242706 -21.7508 0.0170483)
(0.254825 -21.6882 0.0141156)
(0.265899 -21.64 0.0108383)
(0.274239 -21.6037 0.00810362)
(0.280372 -21.5769 0.00585405)
(0.284748 -21.558 0.00397363)
(0.287739 -21.5459 0.00241252)
(0.289303 -21.5389 0.000857445)
)
;
        pressure        uniform 0;
        value           nonuniform List<vector> 
192
(
(0.00125235 0.00102289 0.000709631)
(0.00242617 0.00176962 0.000878156)
(0.00431965 0.00246436 0.000950315)
(0.00636446 0.00286575 0.000917431)
(0.00856291 0.00304972 0.000860677)
(0.0107912 0.00305379 0.000805972)
(0.0129847 0.00293982 0.000774145)
(0.0151095 0.0027702 0.000773771)
(0.00129237 0.00106611 0.000388662)
(0.00266151 0.00171191 0.000595381)
(0.00451146 0.00239273 0.000708218)
(0.00654687 0.00279594 0.00073532)
(0.00870992 0.00298508 0.000728764)
(0.0109068 0.00299763 0.000713326)
(0.013076 0.00289253 0.000706807)
(0.0151903 0.00273299 0.000718167)
(0.00134783 0.00111277 0.000224176)
(0.00277458 0.00170354 0.000393356)
(0.00465036 0.00234588 0.000505794)
(0.00668549 0.00273397 0.00056407)
(0.00883651 0.00291862 0.000590989)
(0.0110184 0.00293556 0.000604727)
(0.0131758 0.00283993 0.000618026)
(0.015285 0.00269321 0.000637957)
(0.00138312 0.00114147 0.000134175)
(0.00284069 0.00170659 0.000262239)
(0.00474091 0.00232475 0.000357794)
(0.00678599 0.00269463 0.000421195)
(0.00893802 0.00287059 0.000462338)
(0.0111168 0.00288656 0.000490814)
(0.013271 0.00279555 0.000514554)
(0.0153797 0.00265679 0.000538089)
(0.00140459 0.00115866 8.20558e-05)
(0.0028812 0.00171235 0.000174275)
(0.00479988 0.00231707 0.000248598)
(0.00685678 0.00267373 0.000304401)
(0.00901522 0.00284098 0.000345824)
(0.0111969 0.00285343 0.000377345)
(0.0133526 0.00276326 0.000403175)
(0.0154633 0.00262826 0.000425653)
(0.00141776 0.00116907 4.94092e-05)
(0.00290647 0.00171786 0.000111353)
(0.00483818 0.00231556 0.000163905)
(0.00690517 0.00266392 0.00020619)
(0.00907076 0.00282454 0.000239808)
(0.0112571 0.00283321 0.000266635)
(0.0134161 0.00274215 0.000288624)
(0.0155297 0.0026084 0.000306674)
(0.00142547 0.00117511 2.66183e-05)
(0.00292146 0.00172196 6.22726e-05)
(0.00486149 0.00231624 9.34899e-05)
(0.00693558 0.00265991 0.000119593)
(0.00910676 0.00281631 0.00014111)
(0.0112972 0.00282213 0.000158719)
(0.0134593 0.00272986 0.000173188)
(0.0155754 0.00259626 0.000184724)
(0.00142906 0.0011779 8.42648e-06)
(0.00292848 0.00172412 2.00674e-05)
(0.00487258 0.00231702 3.04135e-05)
(0.00695028 0.00265861 3.92161e-05)
(0.00912447 0.00281298 4.65881e-05)
(0.0113172 0.00281731 5.26888e-05)
(0.0134811 0.00272429 5.77087e-05)
(0.0155986 0.00259056 6.16614e-05)
(0.0005508 0.00061424 0.00107034)
(0.00203213 0.00104369 0.000859633)
(0.0039116 0.00154764 0.0009711)
(0.00604022 0.00182051 0.000916197)
(0.00830943 0.00194467 0.000862278)
(0.0106009 0.00194317 0.000810331)
(0.0128371 0.00185865 0.00078173)
(0.0149792 0.00172833 0.000780418)
(0.000169278 0.00020607 0.000419003)
(0.00158016 0.000185128 0.000519075)
(0.00349579 0.000265425 0.000594992)
(0.00569177 0.000243975 0.000635308)
(0.00801497 0.000163824 0.000661286)
(0.0103501 4.08671e-05 0.000679817)
(0.0126187 -0.000104925 0.0006991)
(0.0147762 -0.000258407 0.000719926)
(9.26351e-05 -0.00018371 -0.000108824)
(0.00146772 -0.000474782 3.38309e-05)
(0.00336432 -0.000858314 0.000184788)
(0.00555325 -0.0012028 0.000326655)
(0.00786849 -0.00151432 0.000444959)
(0.0101968 -0.00178318 0.00053959)
(0.0124607 -0.00200995 0.000614067)
(0.0146158 -0.00220009 0.000679279)
(0.000295768 -0.000662227 -0.000767891)
(0.00168764 -0.00135878 -0.000360202)
(0.00350884 -0.0021781 -0.000202204)
(0.00561032 -0.00281851 4.17245e-05)
(0.00785459 -0.00332658 0.000244369)
(0.0101277 -0.00370709 0.000409753)
(0.0123526 -0.00398678 0.000532096)
(0.0144896 -0.00419582 0.00061888)
(0.00078606 -0.00117342 -0.000577512)
(0.00196192 -0.00226487 -0.000442059)
(0.00374227 -0.00327719 -0.000260794)
(0.00574274 -0.00401035 -3.33889e-05)
(0.00790891 -0.00453904 0.000170421)
(0.010123 -0.00489381 0.000336099)
(0.0123137 -0.00512598 0.000457722)
(0.0144425 -0.00529072 0.000541051)
(0.000890865 -0.00126479 -0.000330758)
(0.00217462 -0.00233639 -0.00027854)
(0.00392423 -0.00335416 -0.000159389)
(0.00590862 -0.00408786 -4.55963e-06)
(0.00804152 -0.00460957 0.000141026)
(0.0102274 -0.00495962 0.000262529)
(0.0123988 -0.00519083 0.000355017)
(0.0145212 -0.00535976 0.000422451)
(0.000957935 -0.00134044 -0.000185463)
(0.00228946 -0.00238029 -0.000155903)
(0.00405687 -0.00339378 -8.03994e-05)
(0.00603805 -0.00412644 2.07909e-05)
(0.00815954 -0.00464831 0.000119837)
(0.0103325 -0.005002 0.000204939)
(0.0124945 -0.00524009 0.000272558)
(0.0146135 -0.0054185 0.000325217)
(0.000995142 -0.0013867 -0.000103514)
(0.0023577 -0.00241173 -8.27796e-05)
(0.0041446 -0.00342304 -3.25944e-05)
(0.00613311 -0.00415487 3.40733e-05)
(0.00825547 -0.00467861 0.000100276)
(0.0104263 -0.00503648 0.000158628)
(0.0125864 -0.00528078 0.00020679)
(0.0147058 -0.00546658 0.000246422)
(0.00101678 -0.00141487 -5.75223e-05)
(0.00239934 -0.00243457 -4.19214e-05)
(0.00420216 -0.00344661 -8.02911e-06)
(0.00620067 -0.00417919 3.59211e-05)
(0.00832889 -0.00470493 7.97267e-05)
(0.0105029 -0.00506598 0.000119008)
(0.0126651 -0.00531447 0.000152421)
(0.0147867 -0.00550508 0.000181076)
(0.00102986 -0.00143219 -3.12706e-05)
(0.00242514 -0.00245068 -2.00552e-05)
(0.00423958 -0.0034648 2.02458e-06)
(0.00624699 -0.00419894 2.99796e-05)
(0.00838181 -0.00472651 5.78237e-05)
(0.0105604 -0.00508973 8.30622e-05)
(0.0127259 -0.00534075 0.000104982)
(0.0148502 -0.00553424 0.000124309)
(0.00103749 -0.00144234 -1.54586e-05)
(0.0024404 -0.00246104 -8.63908e-06)
(0.00426235 -0.0034772 3.89368e-06)
(0.00627611 -0.00421284 1.94888e-05)
(0.0084161 -0.0047418 3.4999e-05)
(0.0105986 -0.00510637 4.91463e-05)
(0.012767 -0.0053588 6.15905e-05)
(0.0148937 -0.0055539 7.27435e-05)
(0.00104104 -0.00144707 -4.65911e-06)
(0.00244755 -0.00246613 -2.36666e-06)
(0.00427317 -0.00348348 1.70333e-06)
(0.00629019 -0.00422 6.72316e-06)
(0.00843294 -0.00474971 1.17109e-05)
(0.0106176 -0.00511492 1.62737e-05)
(0.0127877 -0.00536798 2.03116e-05)
(0.0149156 -0.0055638 2.39563e-05)
(0.0160359 0.00164521 0.000756956)
(0.0161197 0.00160932 0.000688524)
(0.0162213 0.00157288 0.000603785)
(0.0163208 0.00153792 0.000504924)
(0.0164077 0.00150936 0.000396854)
(0.0164762 0.0014885 0.000284519)
(0.0165233 0.00147521 0.000170802)
(0.0165471 0.00146878 5.69184e-05)
(0.0157945 -0.000347565 0.000700974)
(0.0158836 -0.000393142 0.000620451)
(0.0159883 -0.000437922 0.000531602)