/*--------------------------------*- C++ -*----------------------------------*\
| =========                 |                                                 |
| \\      /  F ield         | foam-extend: Open Source CFD                    |
|  \\    /   O peration     | Version:     3.1                                |
|   \\  /    A nd           | Web:         http://www.extend-project.de       |
|    \\/     M anipulation  |                                                 |
\*---------------------------------------------------------------------------*/
FoamFile
{
    version     2.0;
    format      ascii;
    class       volSymmTensorField;
    location    "0.7";
    object      epsilon;
}
// * * * * * * * * * * * * * * * * * * * * * * * * * * * * * * * * * * * * * //

dimensions      [0 0 0 0 0 0 0];

internalField   nonuniform List<symmTensor> 
256
(
(-0.0155775 0.0214563 -0.000950331 0.0517137 0.0136833 -0.00754337)
(-0.00547463 0.0180689 -0.00254055 0.00914545 0.00619847 -0.00371296)
(0.00170334 0.0161963 -0.00268069 -0.0184849 -0.00296908 0.00106809)
(0.0101002 0.0160136 -0.00106251 -0.0576293 -0.0110329 0.00486085)
(-0.0260663 0.00791177 -0.00102749 0.0284323 -0.00142744 -0.0120409)
(-0.0110098 0.0217299 -0.00375188 0.00847584 -0.000375013 -0.00621854)
(0.00321047 0.0213506 -0.00403564 -0.0150303 0.00170288 0.00112553)
(0.0173963 0.0081147 -0.00131623 -0.0354084 0.00297399 0.00704977)
(-0.0202646 0.00949468 -0.000380246 0.025405 -2.44009e-05 -0.00861781)
(-0.0104828 0.0200243 -0.00218879 0.0069011 0.000204901 -0.00491321)
(0.00211854 0.0201281 -0.00232608 -0.0126718 0.000702432 -0.000236754)
(0.0120713 0.00960671 -0.00051022 -0.0310948 0.00116749 0.00363414)
(-0.0162212 0.00783031 -0.00035864 0.016371 -0.00112095 -0.00712439)
(-0.00872293 0.0173362 -0.00151741 0.00404154 -0.000220712 -0.00443834)
(0.000859779 0.017435 -0.00157679 -0.00981478 0.000664869 -0.00106658)
(0.00831252 0.00801376 -0.000422853 -0.0219529 0.00166663 0.00168899)
(-0.0120189 0.00648868 -0.000188296 0.00930635 -0.001099 -0.00532201)
(-0.00703466 0.0140544 -0.000910889 0.00164033 -0.000281243 -0.00387589)
(-0.000242318 0.0140881 -0.00095395 -0.00743923 0.000411963 -0.00195599)
(0.00459402 0.00655826 -0.000235544 -0.0148132 0.00127147 -0.000460037)
(-0.00882737 0.00474024 -0.00012232 0.00356412 -0.000971342 -0.00397225)
(-0.00572448 0.0104497 -0.000509037 -0.000250802 -0.000302578 -0.00346909)
(-0.00114042 0.0104489 -0.000538033 -0.0055012 0.000226122 -0.00265211)
(0.0017903 0.00477441 -0.000148399 -0.00908087 0.000892808 -0.00211297)
(-0.00675523 0.00290005 -9.85718e-05 -0.000158207 -0.000655284 -0.00299725)
(-0.00485156 0.00677703 -0.000217803 -0.00151872 -0.000258605 -0.00317372)
(-0.00176915 0.00676468 -0.000230266 -0.00409753 7.79676e-05 -0.0031877)
(3.87348e-06 0.00293656 -9.73851e-05 -0.00528377 0.000457439 -0.0033389)
(-0.00634986 0.00107639 -4.74219e-05 -0.00155247 -0.000205387 -0.00243917)
(-0.00493075 0.00305619 9.45405e-05 -0.00208118 -9.75454e-05 -0.00301704)
(-0.00159731 0.00301939 9.33497e-05 -0.00337637 -4.60138e-06 -0.00357382)
(-0.000257735 0.00106016 -2.28462e-05 -0.00381806 8.37088e-05 -0.00413276)
(-0.0156743 0.0247785 -0.000744915 0.0470385 0.00976143 -0.00470763)
(-0.00509619 0.0222994 -0.00210868 0.00567225 0.00446335 -0.00217663)
(0.0015884 0.0206584 -0.00225716 -0.0192225 -0.00194658 0.00100571)
(0.0102567 0.0196829 -0.000882631 -0.0572762 -0.00779775 0.00369765)
(-0.0263046 0.00893854 -0.00114247 0.0310768 0.0022115 -0.00921701)
(-0.0104788 0.0235049 -0.00371315 0.00941044 0.00149673 -0.00449617)
(0.00281368 0.0231911 -0.00396518 -0.0174429 0.0014487 0.0013676)
(0.0175924 0.0091235 -0.00138452 -0.0395808 0.000946427 0.00639305)
(-0.0202439 0.00896904 -0.00064278 0.0252943 0.000212822 -0.00842494)
(-0.0100409 0.0194375 -0.00263018 0.00685802 0.000613085 -0.00455262)
(0.00161889 0.0194862 -0.00279038 -0.0131005 0.00146026 0.00011927)
(0.0118628 0.00900983 -0.000877477 -0.031478 0.00209833 0.00417659)
(-0.0159444 0.00706412 -0.000324038 0.0166748 -0.000923315 -0.00698492)
(-0.00835405 0.0160053 -0.00157124 0.00426796 6.57279e-05 -0.00427187)
(0.000304925 0.0160575 -0.00167524 -0.00981128 0.00123295 -0.00100838)
(0.00781794 0.00717646 -0.000496066 -0.0220343 0.00236043 0.00179249)
(-0.0117804 0.00555675 -1.44922e-05 0.00933985 -0.00130508 -0.00541928)
(-0.00678164 0.0125211 -0.000744753 0.00179682 -0.000231645 -0.00388914)
(-0.000716833 0.0125388 -0.000819301 -0.00715345 0.000890352 -0.00194665)
(0.00413116 0.00560757 -0.000144729 -0.0144337 0.00201786 -0.000371465)
(-0.00861909 0.00394296 0.000174955 0.00354324 -0.00122843 -0.00409491)
(-0.00554848 0.00910857 -0.000153116 -0.000165871 -0.000332689 -0.00353296)
(-0.0014982 0.00911144 -0.000201259 -0.00519136 0.000545798 -0.00265657)
(0.00140392 0.00398718 9.22789e-05 -0.00868314 0.00143868 -0.00206896)
(-0.00660629 0.00233326 0.000285186 -0.000215496 -0.000839165 -0.00316154)
(-0.00474279 0.00581421 0.00026455 -0.00152245 -0.000287081 -0.00328259)
(-0.00198353 0.00581568 0.000243849 -0.0038771 0.000264459 -0.00317187)
(-0.000247365 0.00239899 0.000254928 -0.00500812 0.000790646 -0.00327573)
(-0.00622018 0.000860603 0.000406495 -0.00150075 -0.000304017 -0.00268179)
(-0.00484604 0.00261674 0.000643556 -0.00204765 -0.000112946 -0.00320752)
(-0.0017219 0.00258749 0.000642071 -0.00327219 9.24642e-05 -0.00358674)
(-0.000421114 0.000854664 0.00041792 -0.00372562 0.000258909 -0.00409721)
(-0.0163452 0.0262432 -0.000508374 0.0471394 0.00616133 -0.00280468)
(-0.00523316 0.0238075 -0.0014216 0.00498687 0.00291115 -0.00127764)
(0.00190184 0.0222693 -0.00153663 -0.0198184 -0.00104223 0.000644567)
(0.0109621 0.0213278 -0.000648389 -0.0587601 -0.00467763 0.00233559)
(-0.0275698 0.00949878 -0.000931478 0.0296707 0.00244839 -0.00604305)
(-0.0109048 0.0246327 -0.00265124 0.00863139 0.00160251 -0.00293892)
(0.00340037 0.0243083 -0.00282556 -0.0180974 0.00116038 0.00085117)
(0.0189313 0.0095249 -0.00111145 -0.0394333 0.00046028 0.00421901)
(-0.0211938 0.00910794 -0.000667606 0.0246523 0.000937962 -0.00639754)
(-0.0105004 0.0199606 -0.00206774 0.00652677 0.000949883 -0.00347546)
(0.00200281 0.0200117 -0.00217132 -0.0135204 0.00133699 -8.83634e-05)
(0.0127134 0.00914793 -0.000794451 -0.0316427 0.00151215 0.00295592)
(-0.0164649 0.00703737 -0.000354038 0.0163794 -0.000109734 -0.0059251)
(-0.00866388 0.0159921 -0.00128011 0.00412318 0.000414783 -0.00363086)
(0.00040913 0.0160534 -0.00135577 -0.00997063 0.00119597 -0.00104705)
(0.00815655 0.00715663 -0.000454452 -0.0221144 0.00182928 0.00127799)
(-0.0120495 0.00539481 -6.88601e-05 0.00930768 -0.000616247 -0.005102)
(-0.0069861 0.0122627 -0.000565524 0.00179578 6.6815e-05 -0.00357759)
(-0.000751953 0.012295 -0.000619024 -0.00720353 0.000903896 -0.00187168)
(0.00419 0.00546871 -0.000141451 -0.0145151 0.00163239 -0.00035276)
(-0.00869243 0.00375417 0.000140909 0.00370599 -0.000715547 -0.00429667)
(-0.00565469 0.00877792 -1.68264e-05 -9.78846e-05 -0.000105679 -0.00346109)
(-0.00159398 0.0087995 -4.99345e-05 -0.00520355 0.000586896 -0.00251333)
(0.00129928 0.00382686 9.69621e-05 -0.00882563 0.00119782 -0.00168959)
(-0.00654365 0.00216899 0.000280577 8.97471e-05 -0.000527928 -0.00371173)
(-0.0047674 0.00554467 0.00038498 -0.00141476 -0.000136131 -0.00338611)
(-0.00208739 0.00556443 0.000371045 -0.00389631 0.000313063 -0.00299759)
(-0.000423534 0.00226527 0.000264984 -0.00522993 0.000686982 -0.00267592)
(-0.00604702 0.00081804 0.000404031 -0.00117416 -0.000191495 -0.00346361)
(-0.00479842 0.00251721 0.000704936 -0.0019105 -5.8768e-05 -0.00343634)
(-0.00183548 0.00249629 0.000703402 -0.0032938 0.000108291 -0.00339165)
(-0.000648058 0.000820548 0.000409847 -0.00393078 0.000224237 -0.00335963)
(-0.0168901 0.0269941 -0.0003226 0.0475467 0.0038965 -0.00169983)
(-0.00536957 0.0244819 -0.000909872 0.00475609 0.00192521 -0.00079387)
(0.00212688 0.0229905 -0.000987405 -0.0201664 -0.000493682 0.000365942)
(0.0115095 0.0221511 -0.000422753 -0.0598035 -0.00270871 0.00138507)
(-0.0285352 0.00980317 -0.000634859 0.0287693 0.00206639 -0.00392501)
(-0.0112359 0.0253685 -0.00176402 0.00812661 0.00136586 -0.00198682)
(0.00384752 0.0250501 -0.00187651 -0.0183825 0.000893023 0.000407004)
(0.0199755 0.00978441 -0.000756705 -0.039178 0.000269923 0.0025279)
(-0.0219796 0.00935985 -0.000507534 0.0239642 0.00117278 -0.00463703)
(-0.0108597 0.0205239 -0.00146623 0.00614197 0.000983792 -0.00264059)
(0.00235394 0.0205767 -0.00152829 -0.0137728 0.00106385 -0.000317449)
(0.0135032 0.00939178 -0.000583372 -0.0316185 0.000968534 0.00177326)
(-0.0170243 0.00718154 -0.000290653 0.015955 0.000436263 -0.00476519)
(-0.00895558 0.0163345 -0.000942552 0.00388305 0.000591756 -0.00302861)
(0.000583897 0.0164065 -0.000987263 -0.0101479 0.000980626 -0.0010974)
(0.00863659 0.00730987 -0.000348506 -0.0221631 0.0012116 0.000668421)
(-0.0123743 0.00545905 -7.12511e-05 0.00915469 -1.84739e-05 -0.00455625)
(-0.00719303 0.012432 -0.000414187 0.00169317 0.000289018 -0.0032257)
(-0.000702205 0.0124775 -0.000444738 -0.00733286 0.000765078 -0.00179525)
(0.00439383 0.00554869 -0.000110747 -0.0146424 0.00110975 -0.000469728)
(-0.00882516 0.00376588 0.000105173 0.00377941 -0.000208073 -0.0042544)
(-0.00577852 0.00883637 2.01136e-05 -9.56573e-05 9.88932e-05 -0.0033278)
(-0.00161532 0.0088712 2.09941e-06 -0.00530409 0.000518515 -0.00236225)
(0.00131324 0.00385527 8.30973e-05 -0.00902496 0.000833387 -0.00144956)
(-0.00652669 0.00215333 0.000231333 0.000325192 -0.000196447 -0.00402966)
(-0.00481862 0.00555607 0.000349164 -0.00134195 1.00506e-05 -0.00341938)
(-0.00214296 0.00558675 0.000341885 -0.00397987 0.000294914 -0.00281078)
(-0.00053221 0.00226468 0.000225169 -0.00548089 0.000495378 -0.00221026)
(-0.00592523 0.000821408 0.000338099 -0.000893622 -7.96933e-05 -0.00399192)
(-0.0047968 0.0025277 0.000597632 -0.00180282 -6.50575e-06 -0.0035724)
(-0.00190986 0.00251155 0.000596168 -0.00336798 0.000109829 -0.00318493)
(-0.000833137 0.000827302 0.000342583 -0.00417364 0.000174553 -0.00276879)
(-0.0172561 0.0274061 -0.000197165 0.0478854 0.00247702 -0.00108862)
(-0.00546431 0.0248193 -0.000564398 0.00466497 0.00127995 -0.00053495)
(0.00226606 0.0233496 -0.000612425 -0.0203787 -0.00019505 0.000183102)
(0.0118737 0.0225916 -0.000261403 -0.0604815 -0.0015403 0.000809106)
(-0.029189 0.00998342 -0.000405675 0.0283174 0.00158027 -0.00267246)
(-0.0114495 0.0258274 -0.00112505 0.00785248 0.00105689 -0.00143662)
(0.00413362 0.0255166 -0.00119357 -0.0185396 0.000658912 0.000104749)
(0.0206865 0.00994762 -0.000482019 -0.0390651 0.000173985 0.00145877)
(-0.0225314 0.00955259 -0.00034537 0.0234999 0.00109226 -0.00345995)
(-0.0110865 0.0209547 -0.00097671 0.00585851 0.000853357 -0.00208996)
(0.00259625 0.0210106 -0.00101303 -0.0139358 0.000787716 -0.000484417)
(0.0140776 0.00958252 -0.000390377 -0.0316033 0.000598237 0.000953088)
(-0.0174448 0.00733324 -0.000206507 0.0155917 0.000634877 -0.00388175)
(-0.00914951 0.0166827 -0.000645081 0.00366341 0.000599877 -0.00258032)
(0.000725527 0.0167614 -0.000670473 -0.0102941 0.000738359 -0.00113376)
(0.00902461 0.00746742 -0.000239003 -0.0221975 0.000750337 0.000195007)
(-0.0126436 0.00556722 -5.45987e-05 0.00896552 0.000299319 -0.00405346)
(-0.00733909 0.012683 -0.000283761 0.00156383 0.000374247 -0.00292755)
(-0.000643989 0.0127357 -0.000300548 -0.00745748 0.00059007 -0.00173435)
(0.00459359 0.00566521 -7.55293e-05 -0.0147375 0.000693647 -0.000607706)
(-0.00895927 0.00383186 7.47143e-05 0.00376072 0.000104716 -0.00410803)
(-0.00587353 0.008999 2.85791e-05 -0.000137959 0.00020711 -0.00318074)
(-0.00161327 0.00904029 1.89232e-05 -0.00540668 0.000413158 -0.00224246)
(0.0013673 0.00392926 6.37953e-05 -0.00916897 0.000527656 -0.00132534)
(-0.0065524 0.00218478 0.000171421 0.000436901 2.8298e-05 -0.00415357)
(-0.00486844 0.00565157 0.00027219 -0.00131941 9.93041e-05 -0.0033928)
(-0.00217439 0.00568707 0.000267885 -0.00406238 0.000245213 -0.00265989)
(-0.000580132 0.00230264 0.000168548 -0.00565639 0.000319158 -0.00191007)
(-0.00588362 0.000838126 0.00025527 -0.000733216 8.36538e-06 -0.00427018)
(-0.00481946 0.00257145 0.000455241 -0.00174941 2.99406e-05 -0.00361329)
(-0.00195659 0.00255728 0.000452488 -0.00344095 9.3569e-05 -0.00300902)
(-0.000938468 0.000845098 0.000255787 -0.0043513 0.000113481 -0.00236005)
(-0.0174856 0.027642 -0.000114472 0.0481303 0.00153105 -0.000757411)
(-0.00552491 0.0250026 -0.000334457 0.00462916 0.000821727 -0.000397799)
(0.00235034 0.0235434 -0.000362205 -0.0205119 -5.2311e-05 7.17417e-05)
(0.0121012 0.0228395 -0.000152856 -0.0609175 -0.000847929 0.000478182)
(-0.0296027 0.0100904 -0.00024265 0.0281109 0.00110149 -0.00196291)
(-0.0115823 0.0261056 -0.000679462 0.0077116 0.000743316 -0.00112819)
(0.00431033 0.0257992 -0.000718625 -0.0186381 0.000452705 -8.23552e-05)
(0.0211379 0.0100454 -0.000287409 -0.0390433 0.000112783 0.000830301)
(-0.0228871 0.00968075 -0.00021439 0.0232332 0.00085143 -0.00274117)
(-0.011225 0.0212443 -0.000606995 0.00567987 0.000642967 -0.00175253)
(0.0027522 0.0213023 -0.00062722 -0.0140444 0.000538405 -0.000590065)
(0.0144544 0.00971034 -0.000240361 -0.0316194 0.000355063 0.000447679)
(-0.0177226 0.00744722 -0.000130763 0.0153429 0.00058997 -0.00329733)
(-0.00926934 0.0169448 -0.000407727 0.00350246 0.000492991 -0.00228209)
(0.000824039 0.0170271 -0.000421527 -0.0104007 0.000509665 -0.00115437)
(0.00929098 0.00758459 -0.000148885 -0.0222301 0.000440031 -0.000114371)
(-0.0128299 0.00565861 -3.41392e-05 0.00880356 0.000372044 -0.00367929)
(-0.00743265 0.0128941 -0.000178465 0.00145192 0.000343573 -0.00270988)
(-0.000597796 0.0129504 -0.000187382 -0.0075531 0.000414408 -0.0016894)
(0.00474146 0.00576063 -4.534e-05 -0.014799 0.0004059 -0.000714985)
(-0.00906184 0.00389514 5.12364e-05 0.00370386 0.000218433 -0.003951)
(-0.00593894 0.00915066 2.66313e-05 -0.000191975 0.000219001 -0.00305425)
(-0.00160629 0.00919482 2.14456e-05 -0.00548618 0.000297048 -0.00215621)
(0.00141752 0.00399604 4.55752e-05 -0.00925557 0.000309522 -0.00126606)
(-0.00658866 0.00221982 0.000117133 0.000469119 0.000123863 -0.0041694)
(-0.00490977 0.00574622 0.000190281 -0.00132587 0.000123466 -0.00334131)
(-0.00219342 0.00578361 0.000187401 -0.00412602 0.000181112 -0.00254903)
(-0.000600529 0.00233992 0.000115275 -0.00576137 0.000187363 -0.00173247)
(-0.00588436 0.000852076 0.000178242 -0.000660093 4.81054e-05 -0.00437479)
(-0.00485073 0.00261201 0.000317004 -0.00173373 4.21184e-05 -0.00359587)
(-0.00198641 0.00259863 0.000313566 -0.00350002 7.00673e-05 -0.00287621)
(-0.000995367 0.000859223 0.000176249 -0.00446679 6.59124e-05 -0.00210884)
(-0.0176191 0.0277746 -5.90858e-05 0.0482891 0.000838045 -0.000586959)
(-0.00556043 0.0251032 -0.000175695 0.0046166 0.000461977 -0.000328288)
(0.0023986 0.0236493 -0.000189845 -0.0205916 -4.07841e-07 9.32694e-06)
(0.012233 0.0229776 -7.92392e-05 -0.0611809 -0.000421291 0.000300714)
(-0.0298443 0.0101509 -0.000127671 0.0280255 0.000648131 -0.00158621)
(-0.0116593 0.0262643 -0.0003611 0.00764353 0.000439867 -0.000964983)
(0.00441265 0.02596 -0.000380885 -0.0186988 0.000264976 -0.000188137)
(0.0214019 0.0101003 -0.000150714 -0.039056 6.46296e-05 0.000488703)
(-0.023097 0.0097572 -0.000115216 0.0230962 0.000533303 -0.00234029)
(-0.0113043 0.0214182 -0.000328149 0.00557945 0.000395888 -0.00156249)
(0.00284459 0.0214772 -0.000338166 -0.0141123 0.000313237 -0.000650091)
(0.0146787 0.00978654 -0.000128505 -0.0316462 0.000187584 0.000165782)
(-0.0178881 0.00751912 -7.08187e-05 0.0151967 0.000401814 -0.00295423)
(-0.00933808 0.017111 -0.000222479 0.00340235 0.000318482 -0.0021045)
(0.000884797 0.0171949 -0.000229226 -0.0104693 0.000298239 -0.00116423)
(0.0094528 0.00765798 -7.9942e-05 -0.0222577 0.00022908 -0.000292309)
(-0.0129434 0.00571916 -1.7733e-05 0.00869371 0.000281856 -0.00344271)
(-0.00748744 0.0130344 -9.6561e-05 0.00137486 0.000234788 -0.00257169)
(-0.000567653 0.0130924 -0.000100878 -0.00761558 0.000245271 -0.0016597)
(0.00483419 0.00582296 -2.32555e-05 -0.0148358 0.000209913 -0.000781918)
(-0.00912815 0.00393888 3.02166e-05 0.00364961 0.000186641 -0.00383235)
(-0.00597943 0.00925543 1.8516e-05 -0.00023613 0.000159302 -0.00296501)
(-0.00160069 0.00930069 1.59188e-05 -0.00553809 0.000178497 -0.00210066)
(0.00145169 0.00404114 2.74192e-05 -0.00930216 0.000159514 -0.00123824)
(-0.00661934 0.00224476 6.78952e-05 0.000467292 0.000115968 -0.00414748)
(-0.00493904 0.00581227 0.000111837 -0.00134074 9.53465e-05 -0.0032928)
(-0.00220508 0.00585022 0.000110053 -0.00416777 0.000110555 -0.00247652)
(-0.000608861 0.00236535 6.66649e-05 -0.00581769 9.56798e-05 -0.00163421)
(-0.00589934 0.000860883 0.000105084 -0.000635541 4.61009e-05 -0.00439666)
(-0.00487817 0.0026395 0.000186827 -0.00173578 3.37323e-05 -0.00356091)
(-0.00200494 0.00262631 0.00018404 -0.00354029 4.29978e-05 -0.00278733)
(-0.00102398 0.000867915 0.000102759 -0.00453338 3.27771e-05 -0.00196587)
(-0.0176803 0.027835 -1.82238e-05 0.0483673 0.000267264 -0.000514967)
(-0.00557677 0.0251487 -5.46704e-05 0.00461313 0.000149357 -0.000299223)
(0.00242066 0.0236971 -5.8987e-05 -0.0206293 4.66334e-06 -1.85071e-05)
(0.0122934 0.0230403 -2.44749e-05 -0.0613059 -0.000127108 0.000223757)
(-0.0299554 0.0101783 -3.9755e-05 0.0279964 0.000213818 -0.00142397)
(-0.0116945 0.0263367 -0.000112981 0.00761632 0.000145504 -0.000894771)
(0.00445967 0.0260331 -0.000118977 -0.0187282 8.72795e-05 -0.000235529)
(0.0215235 0.0101251 -4.68033e-05 -0.0390697 2.11588e-05 0.000339447)
(-0.0231939 0.00979272 -3.62324e-05 0.0230397 0.000180975 -0.00216245)
(-0.0113405 0.0214991 -0.000103494 0.00553497 0.000133363 -0.00147752)
(0.00288753 0.0215585 -0.000106492 -0.0141451 0.000102802 -0.000676965)
(0.0147828 0.00982185 -4.02845e-05 -0.0316644 5.86305e-05 4.09653e-05)
(-0.0179648 0.00755338 -2.23369e-05 0.0151306 0.00014123 -0.00279741)
(-0.0093694 0.0171903 -7.04573e-05 0.00335524 0.000109629 -0.00202239)
(0.000913577 0.0172749 -7.24683e-05 -0.0105028 9.81491e-05 -0.00116794)
(0.0095286 0.00769277 -2.51096e-05 -0.0222736 7.09332e-05 -0.000372218)
(-0.0129965 0.00574862 -5.44669e-06 0.00863961 0.000103169 -0.00332988)
(-0.00751267 0.0131029 -3.04075e-05 0.00133644 8.28108e-05 -0.00250529)
(-0.00055306 0.0131614 -3.16937e-05 -0.00764612 8.11754e-05 -0.00164488)
(0.00487811 0.00585305 -7.11992e-06 -0.0148532 6.46704e-05 -0.000813052)
(-0.0091602 0.00396046 9.96232e-06 0.00361862 7.11559e-05 -0.00377033)
(-0.00599876 0.00930727 6.56901e-06 -0.000260083 5.76374e-05 -0.00291947)
(-0.00159789 0.00935286 5.77202e-06 -0.0055634 5.95141e-05 -0.00207339)
(0.0014683 0.00406314 9.10085e-06 -0.00932227 4.89605e-05 -0.00122692)
(-0.0066361 0.00225703 2.21424e-05 0.000459867 4.54565e-05 -0.00412771)
(-0.00495414 0.0058449 3.67947e-05 -0.00135113 3.52806e-05 -0.00326459)
(-0.00221085 0.0058829 3.6177e-05 -0.00418825 3.71255e-05 -0.00244057)
(-0.000612095 0.00237755 2.16886e-05 -0.00584187 2.91198e-05 -0.0015904)
(-0.0059104 0.000864933 3.4582e-05 -0.000630655 1.80669e-05 -0.00439378)
(-0.00489367 0.00265292 6.16578e-05 -0.00174061 1.25863e-05 -0.0035366)
(-0.00201418 0.00263966 6.05959e-05 -0.00356058 1.44703e-05 -0.00274266)
(-0.00103634 0.000871775 3.35977e-05 -0.00456354 9.80379e-06 -0.00190117)
)
;

boundaryField
{
    interface
    {
        type            calculated;
        value           nonuniform List<symmTensor> 
192
(
(-0.0581019 -1.3541e-05 0.000388528 0.0811275 0.0166809 -0.00897501)
(-0.0240994 -2.33098e-05 0.000512292 0.0364953 -0.00150772 -0.0142111)
(-0.0253555 -6.04042e-05 0.000529525 0.0341594 -5.03741e-05 -0.0100128)
(-0.0181552 -8.94838e-05 0.000502823 0.0217754 -0.00159 -0.00812788)
(-0.0132954 -0.000116576 0.00046117 0.0124126 -0.00157464 -0.0058109)
(-0.00917159 -0.000145529 0.000408164 0.0047297 -0.0013764 -0.00407011)
(-0.00662367 -0.000187088 0.000342986 -0.000105185 -0.000883459 -0.00283152)
(-0.00587259 -0.000256873 0.000258724 -0.0016807 -0.000264896 -0.00214381)
(-0.0575218 -6.72278e-06 0.000251708 0.0766117 0.0119796 -0.00568411)
(-0.0283428 -2.55736e-05 0.00033258 0.0392321 0.00284219 -0.01107)
(-0.0253481 -6.66087e-05 0.0003404 0.0337875 0.000192918 -0.00999347)
(-0.0185949 -0.000105288 0.000322335 0.0220398 -0.00135288 -0.00807626)
(-0.0133697 -0.000141735 0.000294426 0.012387 -0.00182867 -0.00598233)
(-0.0092451 -0.000181823 0.000259011 0.00471522 -0.00168867 -0.00422135)
(-0.00667219 -0.000238395 0.000215533 -0.000104455 -0.00111578 -0.00298751)
(-0.00590916 -0.000327736 0.000163038 -0.00157568 -0.000391056 -0.00234825)
(-0.0599221 -5.57672e-06 0.000170554 0.0776078 0.00752317 -0.00340304)
(-0.0297094 -2.8778e-05 0.000224412 0.0372594 0.00303417 -0.0073039)
(-0.0264064 -7.44762e-05 0.000229025 0.0327946 0.00109343 -0.00765217)
(-0.0191992 -0.000118855 0.000216374 0.0215953 -0.000262343 -0.00693783)
(-0.0135757 -0.000161498 0.000197311 0.0123062 -0.000890542 -0.0057772)
(-0.00920453 -0.000208595 0.000173201 0.00493678 -0.000982938 -0.0046598)
(-0.0064761 -0.000273316 0.000143919 0.00033628 -0.000695742 -0.0038439)
(-0.00550087 -0.000370367 0.000110339 -0.001139 -0.000239973 -0.0034693)
(-0.061667 -6.2294e-06 0.000120595 0.0786423 0.00471476 -0.00204865)
(-0.0307702 -3.20777e-05 0.000158388 0.0360659 0.00250708 -0.00470201)
(-0.0273465 -8.11156e-05 0.000161317 0.0318706 0.00138716 -0.00549071)
(-0.0198501 -0.000129298 0.000152058 0.021025 0.000463155 -0.0055445)
(-0.0139253 -0.000176098 0.000138471 0.0120956 -9.487e-05 -0.00517417)
(-0.00931635 -0.000227767 0.00012151 0.00503387 -0.000308199 -0.00469845)
(-0.00641852 -0.000297454 0.000101223 0.000657527 -0.000261154 -0.00433517)
(-0.00527728 -0.000398673 7.85711e-05 -0.000776646 -9.41653e-05 -0.00421729)
(-0.0627645 -7.12605e-06 8.47511e-05 0.0793815 0.00297107 -0.00129802)
(-0.0315 -3.48098e-05 0.000111261 0.0354905 0.00189151 -0.00316081)
(-0.0280051 -8.62421e-05 0.000113181 0.031286 0.0012908 -0.00404012)
(-0.0203304 -0.000137057 0.000106484 0.0205589 0.000732022 -0.00446639)
(-0.0142187 -0.000186679 9.68482e-05 0.0118531 0.000327605 -0.00458498)
(-0.00944082 -0.000241374 8.49822e-05 0.00501127 0.000102869 -0.00456615)
(-0.00641596 -0.000314257 7.0979e-05 0.000806742 2.92658e-05 -0.00454696)
(-0.00516613 -0.000418051 5.55634e-05 -0.000572666 1.87413e-05 -0.00462398)
(-0.0634364 -7.87692e-06 5.64851e-05 0.0798788 0.00182344 -0.000891729)
(-0.0319703 -3.68255e-05 7.41348e-05 0.035237 0.00130725 -0.00228973)
(-0.0284356 -8.99296e-05 7.53772e-05 0.0309661 0.00100392 -0.00315745)
(-0.0206499 -0.000142534 7.08384e-05 0.0202514 0.00069136 -0.00375365)
(-0.0144233 -0.000194034 6.43775e-05 0.0116515 0.000432959 -0.00414034)
(-0.00954037 -0.000250712 5.64977e-05 0.00494032 0.000254996 -0.00439866)
(-0.00643595 -0.000325672 4.72667e-05 0.000849512 0.000152049 -0.00460023)
(-0.00513281 -0.000431103 3.71343e-05 -0.000479689 6.79664e-05 -0.00479268)
(-0.0638239 -8.41032e-06 3.23149e-05 0.0801872 0.000993334 -0.000683279)
(-0.0322467 -3.81415e-05 4.23264e-05 0.0351364 0.000765463 -0.00182936)
(-0.0286914 -9.22894e-05 4.30522e-05 0.0308085 0.000627737 -0.00266832)
(-0.0208409 -0.000146017 4.04606e-05 0.0200757 0.000473079 -0.00333772)
(-0.0145478 -0.00019868 3.67683e-05 0.0115172 0.000332528 -0.00385935)
(-0.00960504 -0.000256588 3.22836e-05 0.00487285 0.000222392 -0.00426738)
(-0.00645665 -0.000332871 2.69809e-05 0.000847497 0.000143445 -0.00459278)
(-0.00513071 -0.000439202 2.0958e-05 -0.000447772 6.30034e-05 -0.00484431)
(-0.0640016 -8.84745e-06 1.04547e-05 0.0803355 0.000316041 -0.000595461)
(-0.0323736 -3.88695e-05 1.36442e-05 0.0351037 0.000251974 -0.00163179)
(-0.0288095 -9.33964e-05 1.38902e-05 0.0307456 0.000212838 -0.0024524)
(-0.0209294 -0.000147652 1.30648e-05 0.0199975 0.000166504 -0.00314857)
(-0.0146058 -0.000200875 1.18784e-05 0.0114517 0.000122187 -0.0037257)
(-0.00963606 -0.000259427 1.04371e-05 0.00483442 8.52129e-05 -0.00419798)
(-0.00646845 -0.000336586 8.6955e-06 0.000838088 5.62913e-05 -0.00457752)
(-0.00513383 -0.000443015 6.59539e-06 -0.0004409 2.44688e-05 -0.00485262)
(-0.0158288 0.0191038 -0.000649208 0.0563514 -1.95157e-05 -0.0354934)
(-0.0265228 0.00726056 -0.000876557 0.0249958 -4.83618e-05 -0.00680799)
(-0.0207809 0.0100207 -0.000907886 0.0252716 -4.93769e-05 -0.0108588)
(-0.016708 0.00850906 -0.000868102 0.0159878 -5.23063e-05 -0.00729899)
(-0.0123574 0.00724923 -0.000810971 0.00929873 -5.55845e-05 -0.00569928)
(-0.00904978 0.00536704 -0.000744718 0.00368198 -6.0565e-05 -0.00412174)
(-0.00686612 0.0033303 -0.000675347 5.17409e-05 -6.82081e-05 -0.00312894)
(-0.00639281 0.00125473 -0.000616799 -0.00145092 -7.53347e-05 -0.00241284)
(-0.00590531 0.0148847 -0.000544953 0.0121416 -1.64798e-05 -0.0118645)
(-0.0117578 0.020638 -0.000768041 0.00709081 -3.56458e-05 -0.0044157)
(-0.0111618 0.0208239 -0.000791355 0.00682707 -4.39454e-05 -0.00460755)
(-0.00922614 0.0185031 -0.000761029 0.00378906 -4.90168e-05 -0.00383538)
(-0.00737148 0.0152881 -0.000715295 0.00152141 -5.28868e-05 -0.00353699)
(-0.00593735 0.0114782 -0.000662584 -0.000283592 -5.67861e-05 -0.00327066)
(-0.00495973 0.00750119 -0.000607718 -0.00145804 -6.25553e-05 -0.00312347)
(-0.00497663 0.00340619 -0.000567655 -0.00204638 -6.91807e-05 -0.00269414)
(0.00199881 0.0128575 -0.000523585 -0.0181006 -1.5072e-05 0.00361605)
(0.00393146 0.0201688 -0.000755401 -0.0130786 -4.02903e-05 -0.00108203)
(0.00280041 0.0209866 -0.000779647 -0.0125076 -5.28587e-05 -0.000670584)
(0.00142902 0.0186519 -0.000753863 -0.00988181 -5.98654e-05 -0.00149862)
(0.000180362 0.0153448 -0.000710571 -0.00771244 -6.34894e-05 -0.00210595)
(-0.000857497 0.0114838 -0.000659102 -0.00577743 -6.58579e-05 -0.00270198)
(-0.00162232 0.00748575 -0.000603887 -0.00429823 -6.98978e-05 -0.00317782)
(-0.00154023 0.0033668 -0.000560438 -0.00346687 -7.98296e-05 -0.00378961)
(0.0103253 0.0134513 -0.000543219 -0.0588015 -2.91041e-05 0.0259444)
(0.0179282 0.00734325 -0.00080786 -0.0312298 -7.8052e-05 0.00212381)
(0.0126843 0.010211 -0.000833895 -0.0308826 -8.37442e-05 0.00547232)
(0.00889252 0.00876561 -0.000811613 -0.021919 -8.67538e-05 0.00198006)
(0.00502359 0.00735095 -0.000766904 -0.0152025 -8.47704e-05 5.54019e-05)
(0.0020837 0.00540864 -0.000710946 -0.00950914 -8.1089e-05 -0.00181311)
(0.000154287 0.00335779 -0.000647087 -0.00563794 -7.84386e-05 -0.00313837)
(-0.000203858 0.00123414 -0.000585897 -0.00397848 -8.19642e-05 -0.00403666)
(0.0454574 6.08099e-05 0.000306939 -0.0823814 -0.0144163 0.00627094)
(0.0176596 7.1224e-05 0.000454139 -0.0441584 0.00314001 0.0092819)
(0.0174754 5.15396e-05 0.000469251 -0.0396915 0.00133844 0.00513842)
(0.0106104 2.55918e-05 0.000461229 -0.0271612 0.0022141 0.00275546)
(0.00597793 1.14285e-06 0.000438782 -0.0176688 0.00177999 7.32484e-05)
(0.00217757 -2.53804e-05 0.000406185 -0.0100599 0.00129456 -0.00198552)
(-0.000158137 -6.70095e-05 0.00036328 -0.00519872 0.000668847 -0.00348686)
(-0.000688324 -0.000156396 0.000302132 -0.00362144 0.000127397 -0.00441745)
(0.0465181 3.29522e-05 0.00017242 -0.0823065 -0.010316 0.00476183)
(0.0211346 3.65473e-05 0.000257777 -0.0483658 0.000410362 0.00842251)
(0.017116 1.51572e-05 0.000267586 -0.0398376 0.00226933 0.0058658)
(0.0105551 -1.13512e-05 0.000262699 -0.0272211 0.00288022 0.00295166)
(0.00564436 -3.90166e-05 0.000250418 -0.0172609 0.00257341 0.000228347)
(0.00194104 -7.06199e-05 0.000231817 -0.00968705 0.00188873 -0.00192223)
(-0.000270049 -0.000121921 0.000206606 -0.00498049 0.0010408 -0.00343732)
(-0.000637745 -0.000231512 0.000174287 -0.0035763 0.000323974 -0.00442065)
(0.049338 2.21369e-05 0.000113309 -0.0846491 -0.00624601 0.00303316)
(0.0224813 2.14736e-05 0.000173689 -0.0474852 -5.64484e-05 0.00564012)
(0.018151 -8.6514e-07 0.000181878 -0.0396988 0.0014674 0.00428049)
(0.0110427 -2.81941e-05 0.000178981 -0.0272058 0.00205333 0.0023007)
(0.00570441 -5.81867e-05 0.000170422 -0.017342 0.00193267 0.000309424)
(0.00176459 -9.3537e-05 0.000157393 -0.00991567 0.00145872 -0.00134118)
(-0.000564535 -0.000150796 0.000140075 -0.00534014 0.000835708 -0.00254934)
(-0.00109042 -0.00026944 0.000119523 -0.00388562 0.000257368 -0.00335069)
(0.0513274 1.92368e-05 8.18686e-05 -0.0862749 -0.00365642 0.00180154)
(0.0235878 1.56827e-05 0.000126752 -0.0468077 -0.000139298 0.00341622)
(0.0191319 -9.2236e-06 0.000133664 -0.0394629 0.000818527 0.00268359)
(0.0116346 -3.87193e-05 0.000131912 -0.0271502 0.00123612 0.00146027)
(0.00595276 -7.1124e-05 0.000125548 -0.0174476 0.00120953 0.000137943)
(0.00177126 -0.000109387 0.000115768 -0.0101586 0.000935534 -0.00101988)
(-0.000707924 -0.000170736 0.000103038 -0.005679 0.000552784 -0.0019136)
(-0.0013644 -0.000295306 8.85284e-05 -0.00420636 0.000181656 -0.00254596)
(0.0525791 1.81583e-05 5.82193e-05 -0.0873217 -0.00211256 0.00106134)
(0.0243643 1.27925e-05 9.027e-05 -0.0464892 -0.000124554 0.00201894)
(0.0198388 -1.43079e-05 9.54942e-05 -0.0393296 0.000434065 0.00157488)
(0.0121025 -4.58441e-05 9.44703e-05 -0.0271052 0.000685996 0.000794004)
(0.00619058 -8.02863e-05 9.00072e-05 -0.0175114 0.000684652 -7.98806e-05)
(0.00182408 -0.000120715 8.30513e-05 -0.0103113 0.000536686 -0.000877339)
(-0.000780917 -0.000184873 7.40716e-05 -0.00589414 0.00031918 -0.00152579)
(-0.00153644 -0.000313556 6.406e-05 -0.00442577 0.000101716 -0.00201225)
(0.0533456 1.76151e-05 3.90022e-05 -0.0879883 -0.00118579 0.000640379)
(0.0248689 1.10944e-05 6.04321e-05 -0.0463717 -8.86028e-05 0.00120503)
(0.0203046 -1.75616e-05 6.40278e-05 -0.0392886 0.000220342 0.000895322)
(0.0124216 -5.06396e-05 6.34492e-05 -0.0270891 0.000358148 0.000356832)
(0.00636395 -8.65885e-05 6.05254e-05 -0.0175446 0.000359022 -0.00025269)
(0.00187525 -0.000128535 5.59185e-05 -0.0103907 0.000281101 -0.000824855)
(-0.000815642 -0.000194589 4.9969e-05 -0.0060114 0.000163767 -0.00131095)
(-0.00162747 -0.000326061 4.33463e-05 -0.0045605 4.76842e-05 -0.00170011)
(0.053787 1.73245e-05 2.23832e-05 -0.0883879 -0.00060021 0.000416838)
(0.0251671 1.01048e-05 3.46094e-05 -0.0463421 -5.15709e-05 0.000766782)
(0.0205827 -1.95338e-05 3.6693e-05 -0.0392909 0.000101629 0.000519028)
(0.0126149 -5.36268e-05 3.63967e-05 -0.0270906 0.000168103 0.000105598)