/*--------------------------------*- C++ -*----------------------------------*\
| =========                 |                                                 |
| \\      /  F ield         | foam-extend: Open Source CFD                    |
|  \\    /   O peration     | Version:     3.1                                |
|   \\  /    A nd           | Web:         http://www.extend-project.de       |
|    \\/     M anipulation  |                                                 |
\*---------------------------------------------------------------------------*/
FoamFile
{
    version     2.0;
    format      ascii;
    class       volSymmTensorField;
    location    "0.7";
    object      sigma;
}
// * * * * * * * * * * * * * * * * * * * * * * * * * * * * * * * * * * * * * //

dimensions      [1 -1 -2 0 0 0 0];

internalField   nonuniform List<symmTensor> 
256
(
(297.202 153.259 -6.78808 777.853 97.7375 354.588)
(-39.7066 129.063 -18.1468 64.7225 44.2748 -27.1232)
(-212.312 115.688 -19.1478 -356.514 -21.2077 -216.85)
(-537.401 114.383 -7.58939 -1021.18 -78.8064 -574.826)
(-324.401 56.5126 -7.33922 64.8748 -10.196 -224.219)
(-203.678 155.214 -26.7991 -64.4945 -2.67866 -169.454)
(-129.844 152.504 -28.826 -260.135 12.1634 -144.736)
(-32.3463 57.9622 -9.40163 -409.523 21.2428 -106.25)
(-194.425 67.8191 -2.71605 131.787 -0.174292 -111.234)
(-196.233 143.031 -15.6342 -72.0626 1.46358 -156.45)
(-139.011 143.772 -16.6148 -244.656 5.01737 -155.834)
(-133.624 68.6194 -3.64443 -441.954 8.33918 -193.89)
(-215.502 55.9308 -2.56172 17.2992 -8.00676 -150.525)
(-192.588 123.83 -10.8387 -101.414 -1.57652 -161.984)
(-137.024 124.535 -11.2628 -213.271 4.74906 -150.784)
(-111.36 57.2411 -3.02038 -327.541 11.9045 -158.671)
(-200.629 46.3477 -1.34497 -48.3054 -7.85 -152.794)
(-182.679 100.389 -6.50635 -120.715 -2.00888 -160.117)
(-139.41 100.63 -6.81393 -190.816 2.9426 -151.65)
(-119.746 46.8447 -1.68245 -258.37 9.08193 -155.847)
(-194.988 33.8589 -0.873716 -106.478 -6.93816 -160.309)
(-175.809 74.6407 -3.63598 -136.711 -2.16127 -159.699)
(-140.913 74.6353 -3.84309 -172.062 1.61516 -151.711)
(-121.548 34.1029 -1.05999 -199.2 6.3772 -149.429)
(-189.833 20.7146 -0.704084 -142.711 -4.6806 -162.99)
(-170.997 48.4074 -1.55573 -147.191 -1.84718 -159.012)
(-141.985 48.3191 -1.64476 -158.616 0.556912 -152.118)
(-123.098 20.9754 -0.695608 -160.867 3.26742 -146.975)
(-193.092 7.68847 -0.338728 -158.825 -1.46705 -165.159)
(-178.491 21.8299 0.675289 -158.137 -0.696753 -164.821)
(-133.516 21.5671 0.666783 -146.224 -0.032867 -147.634)
(-119.106 7.57259 -0.163187 -144.537 0.59792 -146.785)
(268.849 176.99 -5.32082 716.797 69.7245 347.182)
(-59.2666 159.282 -15.062 17.6509 31.8811 -38.4125)
(-226.203 147.56 -16.1225 -374.852 -13.9041 -230.365)
(-545.621 140.592 -6.3045 -1028 -55.6982 -592.471)
(-251.387 63.8467 -8.16046 158.48 15.7964 -129.333)
(-154.343 167.892 -26.5225 -12.2765 10.691 -111.609)
(-169.354 165.651 -28.3227 -314.044 10.3478 -179.683)
(-97.1292 65.1678 -9.88943 -505.509 6.76019 -177.125)
(-192.807 64.0646 -4.59128 132.466 1.52016 -108.386)
(-182.228 138.839 -18.787 -61.5214 4.37918 -143.026)
(-150.755 139.187 -19.9313 -255.894 10.4304 -161.467)
(-135.817 64.3559 -6.26769 -445.395 14.9881 -190.719)
(-203.239 50.458 -2.31456 29.7547 -6.59511 -139.243)
(-179.071 114.323 -11.2231 -88.914 0.469485 -149.913)
(-148.032 114.697 -11.966 -220.291 8.80678 -157.413)
(-121.642 51.2604 -3.54333 -334.872 16.8602 -164.68)
(-196.429 39.6911 -0.103516 -45.5703 -9.32197 -150.993)
(-175.211 89.4367 -5.31966 -113.936 -1.65461 -154.55)
(-145.362 89.5628 -5.85215 -191.338 6.35966 -154.147)
(-122.978 40.0541 -1.03378 -255.584 14.4133 -155.139)
(-192.576 28.164 1.24968 -105.702 -8.77451 -160.26)
(-171.736 65.0612 -1.09368 -133.289 -2.37635 -157.34)
(-144.218 65.0817 -1.43756 -170.597 3.89856 -152.492)
(-123.517 28.4799 0.659135 -195.568 10.2763 -148.324)
(-189.807 16.6661 2.03704 -144.158 -5.99404 -165.201)
(-170.275 41.5301 1.88964 -147.272 -2.05058 -159.845)
(-143.204 41.5405 1.74178 -156.729 1.88899 -151.692)
(-123.641 17.1356 1.82091 -157.647 5.64747 -145.272)
(-193.04 6.14717 2.90354 -159.33 -2.17155 -167.766)
(-178.918 18.691 4.59683 -158.929 -0.806759 -167.214)
(-134.883 18.482 4.58622 -145.956 0.660459 -148.203)
(-120.778 6.10474 2.98514 -144.382 1.84935 -147.036)
(283.098 187.451 -3.63124 736.56 44.0095 379.816)
(-59.1501 170.054 -10.1543 13.85 20.794 -30.8965)
(-233.158 159.067 -10.9759 -388.303 -7.4445 -242.139)
(-571.162 152.341 -4.63135 -1069.18 -33.4116 -632.78)
(-253.245 67.8484 -6.65341 155.616 17.4885 -99.4822)
(-152.354 175.948 -18.9374 -12.8095 11.4465 -95.4546)
(-173.51 173.631 -20.1825 -327.066 8.28845 -191.719)
(-97.3898 68.035 -7.93892 -514.28 3.28771 -202.478)
(-193.371 65.0567 -4.76861 134.101 6.69973 -87.6834)
(-181.419 142.575 -14.7696 -59.796 6.78488 -131.241)
(-151.493 142.941 -15.5094 -262.373 9.54994 -166.43)
(-137.38 65.3423 -5.67465 -454.21 10.801 -207.077)
(-203.472 50.267 -2.52885 31.1294 -0.783817 -128.188)
(-178.621 114.229 -9.14366 -87.2852 2.96273 -142.671)
(-148.628 114.667 -9.6841 -222.77 8.54265 -159.03)
(-122.88 51.1188 -3.24608 -339.101 13.0663 -172.013)
(-198.123 38.5344 -0.491858 -45.5714 -4.40177 -148.498)
(-175.157 87.5908 -4.03946 -112.429 0.47725 -150.81)
(-145.759 87.8218 -4.4216 -191.842 6.4564 -153.757)
(-122.613 39.0622 -1.01037 -256.221 11.6599 -155.061)
(-194.705 26.8155 1.00649 -106.144 -5.11105 -163.306)
(-172.015 62.6994 -0.120188 -132.323 -0.754854 -156.346)
(-144.398 62.8536 -0.356675 -170.181 4.19212 -150.965)
(-122.376 27.3347 0.692587 -194.696 8.55586 -143.725)
(-191.964 15.4928 2.00412 -144.582 -3.77092 -171.736)
(-170.742 39.6048 2.74986 -146.795 -0.972365 -160.876)
(-143.214 39.7459 2.65032 -156.135 2.23616 -149.715)
(-122.017 16.1805 1.89274 -156.348 4.90701 -138.105)
(-195.833 5.84314 2.88594 -161.027 -1.36782 -177.38)
(-179.207 17.9801 5.03526 -158.579 -0.419772 -169.478)
(-134.838 17.8306 5.0243 -145.255 0.773509 -145.954)
(-118.036 5.86106 2.92748 -141.484 1.60169 -137.404)
(293.026 192.815 -2.30428 753.288 27.8321 401.527)
(-58.4591 174.871 -6.49909 13.8671 13.7515 -25.7755)
(-237.287 164.218 -7.05289 -396.524 -3.5263 -249.865)
(-587.916 158.222 -3.01967 -1097.3 -19.3479 -660.234)
(-256.549 70.0227 -4.53471 152.768 14.7599 -80.7627)
(-153.058 181.204 -12.6001 -14.7543 9.75616 -86.9931)
(-174.346 178.929 -13.4037 -333.131 6.37874 -198.921)
(-95.5267 69.8886 -5.40503 -518.052 1.92802 -220.152)
(-194.889 66.856 -3.62525 133.28 8.37698 -71.014)
(-182.689 146.599 -10.4731 -61.2482 7.02709 -123.981)
(-150.848 146.977 -10.9164 -266.039 7.59892 -169.929)
(-137.005 67.0842 -4.16694 -459.303 6.9181 -220.791)
(-204.953 51.2967 -2.07609 30.6138 3.11616 -117.388)
(-179.699 116.675 -6.73251 -87.9945 4.22683 -137.363)
(-148.135 117.189 -7.05188 -224.79 7.00447 -160.144)
(-121.997 52.2134 -2.48933 -341.994 8.65431 -178.912)
(-199.471 38.9932 -0.508936 -45.6927 -0.131957 -143.628)
(-176.03 88.8001 -2.95848 -112.557 2.06442 -147.692)
(-145.449 89.1249 -3.1767 -192.811 5.46485 -153.256)
(-121.734 39.6335 -0.791049 -257.707 7.9268 -156.474)
(-195.896 26.8991 0.751236 -105.863 -1.48623 -163.248)
(-172.732 63.1169 0.143669 -132.14 0.70638 -155.227)
(-144.133 63.3657 0.0149958 -170.481 3.70368 -149.468)
(-121.495 27.5376 0.593552 -195.339 5.95277 -141.229)
(-192.779 15.3809 1.65238 -143.837 -1.40319 -174.943)
(-171.275 39.6862 2.49403 -146.442 0.0717901 -161.281)
(-142.93 39.9054 2.44204 -156.051 2.10653 -147.7)
(-121.278 16.1763 1.60835 -156.626 3.53841 -133.264)
(-196.763 5.8672 2.41499 -160.823 -0.569238 -182.953)
(-179.577 18.055 4.2688 -158.192 -0.0464696 -170.832)
(-134.539 17.9396 4.25834 -144.954 0.784495 -143.646)
(-117.03 5.9093 2.44702 -140.891 1.24681 -130.857)
(298.752 195.758 -1.40832 764.048 17.693 414.234)
(-58.0922 177.281 -4.03142 14.2598 9.14252 -22.8825)
(-239.949 166.783 -4.37446 -401.697 -1.39321 -254.828)
(-598.026 161.369 -1.86717 -1114.85 -11.0021 -677.059)
(-259.121 71.3101 -2.89768 151.639 11.2877 -69.7176)
(-153.691 184.481 -8.03609 -15.8201 7.54922 -82.1708)
(-174.777 182.262 -8.52553 -336.729 4.70651 -203.555)
(-93.9504 71.0544 -3.44299 -520.748 1.24275 -231.292)
(-196.53 68.2328 -2.46693 132.264 7.80185 -60.306)
(-183.732 149.676 -6.9765 -62.6957 6.09541 -119.471)
(-150.369 150.076 -7.23595 -268.456 5.62654 -172.374)
(-136.197 68.4466 -2.78841 -462.489 4.27312 -229.944)
(-206.532 52.3803 -1.47505 29.4434 4.53483 -109.653)
(-180.588 119.162 -4.60772 -89.0674 4.28483 -133.665)
(-147.709 119.724 -4.78909 -226.421 5.27399 -160.989)
(-120.937 53.3387 -1.70716 -343.952 5.35955 -184.005)
(-200.761 39.7659 -0.389991 -46.4105 2.13799 -139.403)
(-176.748 90.5931 -2.02686 -113.156 2.67319 -145.237)
(-145.112 90.9696 -2.14677 -193.779 4.21479 -152.9)
(-120.783 40.4658 -0.539495 -258.862 4.95462 -157.935)
(-196.946 27.3704 0.533674 -106.089 0.747973 -162.294)
(-173.271 64.2786 0.204136 -132.303 1.47936 -154.037)
(-143.844 64.5735 0.135166 -170.939 2.95113 -148.338)
(-120.62 28.0661 0.45568 -195.879 3.76897 -139.853)
(-193.504 15.6056 1.22444 -143.58 0.202129 -176.369)
(-171.641 40.3683 1.94422 -146.291 0.709315 -161.101)
(-142.626 40.6219 1.91347 -156.112 1.75152 -146.094)
(-120.524 16.4474 1.20391 -156.783 2.2797 -130.023)
(-197.555 5.98661 1.82336 -160.766 0.0597527 -186.03)
(-179.884 18.3675 3.25172 -157.955 0.213861 -171.269)
(-134.069 18.2663 3.23206 -144.672 0.66835 -141.587)
(-115.987 6.03641 1.82705 -140.364 0.810579 -126.141)
(302.064 197.443 -0.817657 770.75 10.936 421.551)
(-57.943 178.59 -2.38898 14.5861 5.86948 -21.3208)
(-241.637 168.167 -2.58718 -404.939 -0.37365 -257.913)
(-604.107 163.139 -1.09183 -1125.67 -6.05663 -687.129)
(-260.8 72.0743 -1.73321 151.44 7.8678 -63.3728)
(-154.144 186.469 -4.8533 -16.3303 5.3094 -79.4716)
(-175.071 184.28 -5.13304 -338.988 3.2336 -206.447)
(-92.9457 71.7527 -2.05292 -522.811 0.805596 -238)
(-197.695 69.1482 -1.53136 131.736 6.08164 -53.7956)
(-184.43 151.745 -4.33568 -63.6812 4.59262 -116.77)
(-150.088 152.16 -4.48014 -270.064 3.84575 -173.961)
(-135.572 69.3596 -1.71686 -464.671 2.53617 -235.621)
(-207.69 53.1944 -0.934019 28.4922 4.21407 -104.653)
(-181.195 121.034 -2.91234 -89.9678 3.52136 -131.286)
(-147.414 121.622 -3.01091 -227.591 3.64046 -161.546)
(-120.114 54.1756 -1.06346 -345.265 3.14308 -187.295)
(-201.723 40.4186 -0.243851 -47.1979 2.65746 -136.361)
(-177.242 92.1004 -1.27475 -113.781 2.4541 -143.508)
(-144.846 92.5027 -1.33844 -194.526 2.96006 -152.643)
(-120.025 41.1474 -0.323857 -259.6 2.89929 -159)
(-197.713 27.8224 0.365974 -106.529 1.56024 -161.207)
(-173.638 65.3619 0.190224 -132.588 1.56429 -153.033)
(-143.598 65.6773 0.153183 -171.311 2.12177 -147.526)
(-119.934 28.5431 0.325537 -196.17 2.21087 -139.102)
(-194.047 15.8558 0.836664 -143.634 0.884739 -176.766)
(-171.883 41.0444 1.35915 -146.284 0.8819 -160.68)
(-142.36 41.3115 1.33858 -156.164 1.29366 -144.9)
(-119.923 16.7137 0.823394 -156.786 1.33831 -128.009)
(-198.02 6.08625 1.27316 -160.704 0.34361 -187.238)
(-180.081 18.6572 2.26431 -157.817 0.300846 -171.118)
(-133.655 18.5616 2.23976 -144.466 0.50048 -140.011)
(-115.267 6.13731 1.25892 -140.063 0.470803 -123.22)
(303.908 198.39 -0.422042 774.681 5.98604 425.566)
(-57.8904 179.308 -1.25496 14.8027 3.29984 -20.518)
(-242.634 168.923 -1.35604 -406.85 -0.00291315 -259.7)
(-607.581 164.126 -0.565995 -1131.97 -3.00922 -692.812)
(-261.816 72.5063 -0.911935 151.54 4.62951 -59.9726)
(-154.434 187.602 -2.57929 -16.5567 3.14191 -78.0461)
(-175.257 185.429 -2.72061 -340.339 1.89268 -208.12)
(-92.3498 72.1453 -1.07653 -524.192 0.46164 -241.73)
(-198.422 69.6943 -0.822972 131.53 3.8093 -50.1597)
(-184.851 152.987 -2.34392 -64.2522 2.82777 -115.266)
(-149.936 153.409 -2.41547 -271.056 2.23741 -174.898)
(-135.177 69.9039 -0.917891 -466.069 1.33989 -238.84)
(-208.424 53.708 -0.505848 27.8966 2.8701 -101.753)
(-181.561 122.221 -1.58914 -90.5578 2.27487 -129.892)
(-147.234 122.821 -1.63733 -228.335 2.13028 -161.87)
(-119.583 54.6999 -0.571014 -346.087 1.63628 -189.191)
(-202.344 40.8512 -0.126664 -47.7933 2.01326 -134.482)
(-177.543 93.1032 -0.689722 -114.241 1.67706 -142.43)
(-144.668 93.5168 -0.72056 -195.01 1.75193 -152.468)
(-119.521 41.5926 -0.166111 -260.021 1.49938 -159.636)
(-198.214 28.1349 0.215833 -106.944 1.33315 -160.387)
(-173.861 66.1102 0.132257 -132.838 1.13787 -152.33)
(-143.425 66.4335 0.113705 -171.55 1.27498 -146.997)
(-119.47 28.8653 0.195852 -196.283 1.13939 -138.683)
(-194.417 16.034 0.484965 -143.798 0.828345 -176.761)
(-172.03 41.5162 0.798834 -146.328 0.681046 -160.271)
(-142.17 41.7873 0.786091 -156.189 0.789678 -144.109)
(-119.503 16.8954 0.476178 -156.709 0.683427 -126.827)
(-198.303 6.14917 0.750599 -160.704 0.329292 -187.57)
(-180.199 18.8535 1.33448 -157.754 0.240945 -170.79)
(-133.358 18.7594 1.31457 -144.324 0.307127 -138.946)
(-114.789 6.19939 0.73399 -139.856 0.234122 -121.516)
(304.742 198.821 -0.13017 776.51 1.90903 427.351)
(-57.875 179.634 -0.390503 14.91 1.06683 -20.1782)
(-243.097 169.265 -0.421335 -407.74 0.0333095 -260.52)
(-609.17 164.574 -0.174821 -1134.88 -0.907912 -695.382)
(-262.294 72.7023 -0.283965 151.647 1.52727 -58.4986)
(-154.575 188.119 -0.807004 -16.6405 1.03932 -77.434)
(-175.347 185.951 -0.849838 -340.975 0.623425 -208.884)
(-92.0718 72.3223 -0.334309 -524.881 0.151134 -243.387)
(-198.765 69.948 -0.258803 131.474 1.29268 -48.541)
(-185.048 153.565 -0.739241 -64.5087 0.952591 -114.598)
(-149.869 153.989 -0.760658 -271.53 0.7343 -175.329)
(-134.989 70.156 -0.287746 -466.755 0.41879 -240.288)
(-208.773 53.9527 -0.159549 27.6225 1.00879 -100.434)
(-181.732 122.788 -0.503266 -90.8418 0.783067 -129.253)
(-147.148 123.392 -0.517631 -228.694 0.701065 -162.016)
(-119.327 54.9484 -0.179354 -346.485 0.506665 -190.047)
(-202.644 41.0616 -0.0389049 -48.1 0.736919 -133.596)
(-177.684 93.5924 -0.217196 -114.476 0.591505 -141.917)
(-144.58 94.0101 -0.226384 -195.245 0.579825 -152.379)
(-119.273 41.8075 -0.0508566 -260.211 0.461931 -159.924)
(-198.457 28.289 0.0711594 -107.18 0.508257 -159.958)
(-173.967 66.4805 0.0469215 -132.976 0.411696 -151.972)
(-143.338 66.8061 0.0412287 -171.663 0.425101 -146.734)
(-119.239 29.0224 0.065006 -196.315 0.349718 -138.491)
(-194.6 16.1216 0.15816 -143.914 0.324689 -176.683)
(-172.099 41.7493 0.26282 -146.363 0.252004 -160.031)
(-142.073 42.0207 0.258407 -156.197 0.265182 -143.714)
(-119.292 16.9825 0.154918 -156.647 0.207999 -126.28)
(-198.429 6.17809 0.247014 -160.717 0.129049 -187.596)
(-180.253 18.9494 0.440413 -157.731 0.0899019 -170.56)
(-133.207 18.8547 0.432828 -144.253 0.10336 -138.411)
(-114.56 6.22697 0.239984 -139.754 0.0700271 -120.737)
)
;

boundaryField
{
    interface
    {
        type            calculated;
        value           nonuniform List<symmTensor> 
192
(
(-214.29 -0.0967218 2.7752 780.206 119.149 136.617)
(-198.069 -0.166499 3.65923 234.75 -10.7694 -127.438)
(-198.38 -0.431458 3.78232 226.726 -0.359815 -88.7891)
(-194.075 -0.63917 3.59159 91.1437 -11.3572 -122.451)
(-190.591 -0.832689 3.29407 -6.96219 -11.2474 -137.13)
(-187.111 -1.03949 2.91546 -87.8164 -9.83144 -150.672)
(-183.889 -1.33635 2.4499 -137.328 -6.31042 -156.802)
(-180.477 -1.83481 1.84803 -150.535 -1.89212 -153.843)
(-219.358 -0.0480199 1.79791 738.738 85.5686 150.911)
(-205.03 -0.182668 2.37557 277.648 20.3014 -81.6529)
(-203.259 -0.475776 2.43143 219.138 1.37799 -93.583)
(-198.982 -0.752057 2.30239 91.2659 -9.66343 -123.849)
(-195 -1.01239 2.10304 -11.0234 -13.0619 -142.233)
(-191.054 -1.29874 1.85008 -91.3374 -12.062 -155.17)
(-187.146 -1.70282 1.53952 -140.234 -7.96986 -160.827)
(-182.681 -2.34097 1.16456 -151.728 -2.79326 -157.246)
(-223.977 -0.0398337 1.21824 758.379 53.7369 179.73)
(-208.694 -0.205557 1.60294 269.654 21.6726 -48.655)
(-206.674 -0.531973 1.63589 216.19 7.81021 -72.7153)
(-202.019 -0.848962 1.54553 89.37 -1.87388 -114.438)
(-197.637 -1.15355 1.40936 -12.7663 -6.36101 -141.933)
(-193.283 -1.48996 1.23715 -92.2736 -7.02099 -160.821)
(-188.882 -1.95226 1.02799 -140.222 -4.96958 -170.081)
(-183.709 -2.64548 0.788137 -152.552 -1.71409 -169.197)
(-227.24 -0.0444957 0.861395 774.968 33.6769 198.605)
(-211.305 -0.229126 1.13135 266.095 17.9077 -25.1042)
(-209.14 -0.579397 1.15227 213.839 9.90829 -53.0277)
(-204.21 -0.923559 1.08613 87.7556 3.30825 -102.027)
(-199.521 -1.25784 0.989078 -13.6574 -0.677643 -137.013)
(-194.844 -1.6269 0.867925 -92.3428 -2.20142 -161.859)
(-190.078 -2.12467 0.723018 -139.534 -1.86538 -175.196)
(-184.427 -2.84766 0.561222 -152.279 -0.672609 -176.855)
(-229.474 -0.0509004 0.605365 785.854 21.222 209.572)
(-213.148 -0.248642 0.794723 265.356 13.5108 -10.7247)
(-210.881 -0.616015 0.808433 212.627 9.22002 -39.703)
(-205.758 -0.978981 0.760598 86.3085 5.22873 -92.4438)
(-200.856 -1.33342 0.691773 -14.6287 2.34004 -132.044)
(-195.944 -1.7241 0.607016 -92.7152 0.734777 -161.125)
(-190.916 -2.24469 0.506993 -139.326 0.209042 -177.566)
(-184.941 -2.98608 0.396881 -152.13 0.133866 -181.068)
(-230.965 -0.0562637 0.403465 792.714 13.0246 215.782)
(-214.403 -0.263039 0.529534 265.649 9.33749 -2.39878)
(-212.07 -0.642354 0.538409 212.228 7.17083 -31.5111)
(-206.816 -1.0181 0.505989 85.3363 4.93829 -86.1283)
(-201.769 -1.38596 0.459839 -15.5202 3.09257 -128.319)
(-196.698 -1.7908 0.403555 -93.265 1.8214 -159.972)
(-191.495 -2.32623 0.337619 -139.456 1.08606 -178.383)
(-185.308 -3.07931 0.265245 -152.072 0.485474 -182.879)
(-231.886 -0.0600737 0.230821 796.764 7.09525 219.118)
(-215.186 -0.272439 0.302331 266.122 5.4676 2.08091)
(-212.813 -0.65921 0.307516 212.186 4.48383 -26.9339)
(-207.478 -1.04298 0.289005 84.7833 3.37914 -82.4552)
(-202.341 -1.41914 0.262631 -16.1624 2.3752 -125.995)
(-197.173 -1.83277 0.230597 -93.7591 1.58852 -159.046)
(-191.861 -2.37765 0.192721 -139.688 1.02461 -178.548)
(-185.545 -3.13716 0.1497 -152.095 0.450025 -183.499)
(-232.318 -0.0631961 0.0746764 798.661 2.25743 220.583)
(-215.549 -0.27764 0.0974582 266.432 1.79981 4.0351)
(-213.159 -0.667117 0.0992158 212.234 1.52027 -24.8938)
(-207.787 -1.05466 0.0933198 84.5478 1.18932 -80.7815)
(-202.609 -1.43482 0.0848455 -16.4835 0.872768 -124.894)
(-197.395 -1.85305 0.074551 -94.0344 0.608664 -158.552)
(-192.03 -2.40419 0.0621107 -139.84 0.402081 -178.523)
(-185.633 -3.1644 0.0471099 -152.112 0.174777 -183.624)
(-41.2162 136.456 -4.6372 474.356 -0.139398 -181.678)
(-308.52 51.8612 -6.26112 59.4705 -0.345441 -167.7)
(-239.408 71.5767 -6.4849 89.5389 -0.352692 -168.536)
(-233.904 60.779 -6.20073 -0.362362 -0.373617 -166.696)
(-213.382 51.7802 -5.79265 -58.6946 -0.397032 -165.823)
(-200.206 38.336 -5.31941 -109.265 -0.432607 -165.006)
(-191.091 23.7878 -4.82391 -141.678 -0.487201 -164.397)
(-192.185 8.96239 -4.40571 -156.886 -0.538105 -163.757)
(-122.584 106.319 -3.89252 6.32314 -0.117713 -165.149)
(-213.738 147.415 -5.48601 -79.1045 -0.254613 -161.294)
(-207.474 148.742 -5.65253 -78.9818 -0.313896 -160.658)
(-198.365 132.165 -5.43592 -105.399 -0.35012 -159.859)
(-186.754 109.2 -5.10925 -123.234 -0.377763 -159.365)
(-178.004 81.9868 -4.73274 -137.62 -0.405615 -158.956)
(-171.73 53.5799 -4.34084 -146.718 -0.446824 -158.614)
(-174.364 24.3299 -4.05468 -153.433 -0.494148 -158.06)
(-164.091 91.8396 -3.73989 -307.658 -0.107657 -152.539)
(-118.049 144.063 -5.39572 -239.55 -0.287788 -153.86)
(-128.251 149.904 -5.5689 -237.594 -0.377562 -153.044)
(-131.956 133.228 -5.38474 -212.747 -0.42761 -152.867)
(-136.398 109.606 -5.0755 -192.775 -0.453496 -152.729)
(-139.509 82.0274 -4.70787 -174.652 -0.470413 -152.684)
(-141.565 53.4697 -4.31348 -160.678 -0.49927 -152.675)
(-136.669 24.0486 -4.00313 -150.431 -0.570211 -152.736)
(-248.131 96.0807 -3.88013 -741.894 -0.207886 -136.566)
(-31.6253 52.4518 -5.77043 -382.754 -0.557514 -144.514)
(-91.1971 72.9354 -5.95639 -402.389 -0.598173 -142.711)
(-94.2887 62.6115 -5.79724 -314.371 -0.61967 -143.663)
(-108.738 52.5068 -5.47789 -253.21 -0.605503 -144.225)
(-117.096 38.6332 -5.07818 -199.902 -0.579207 -144.93)
(-122.07 23.9842 -4.62205 -163.443 -0.560276 -145.589)
(-118.87 8.81532 -4.18498 -145.832 -0.585459 -146.248)
(-113.205 0.434356 2.19242 -1026.34 -102.974 -393.108)
(-119.815 0.508743 3.24385 -561.372 22.4287 -179.656)
(-119.141 0.36814 3.35179 -527.477 9.56026 -207.263)
(-121.288 0.182798 3.29449 -391.085 15.815 -177.395)
(-123.266 0.0081632 3.13415 -292.171 12.7142 -165.442)
(-125.416 -0.181288 2.90132 -212.826 9.24687 -155.152)
(-127.468 -0.47864 2.59486 -163.473 4.77748 -151.245)
(-129.591 -1.11711 2.15809 -150.542 0.909979 -156.228)
(-110.965 0.235373 1.23157 -1031.14 -73.6854 -409.224)
(-117.735 0.261052 1.84126 -614.166 2.93116 -208.535)
(-118.541 0.108266 1.91133 -525.352 16.2095 -198.899)
(-120.526 -0.0810803 1.87642 -390.357 20.573 -174.837)
(-122.372 -0.27869 1.7887 -285.981 18.3815 -161.058)
(-124.253 -0.504428 1.65584 -207.311 13.4909 -151.848)
(-126.041 -0.870863 1.47576 -159.687 7.43429 -148.664)
(-127.908 -1.65366 1.24491 -148.898 2.3141 -154.929)
(-108.699 0.15812 0.809348 -1065.75 -44.6144 -439.448)
(-116.044 0.153383 1.24064 -615.805 -0.403203 -236.339)
(-117.026 -0.00617957 1.29913 -530.239 10.4814 -216.101)
(-119.158 -0.201386 1.27844 -392.361 14.6666 -181.6)
(-121.086 -0.415619 1.2173 -285.703 13.8048 -159.621)
(-123 -0.668121 1.12424 -206.43 10.4195 -145.184)
(-124.804 -1.07711 1.00054 -158.915 5.96935 -138.981)
(-126.742 -1.92457 0.853735 -146.708 1.83835 -142.887)
(-106.89 0.137406 0.584775 -1089.76 -26.1173 -460.646)
(-114.425 0.112019 0.90537 -617.251 -0.994986 -258.508)
(-115.449 -0.0658829 0.954742 -533.983 5.84662 -232.937)
(-117.686 -0.276567 0.942231 -394.72 8.82942 -190.36)
(-119.722 -0.508029 0.896768 -286.867 8.63951 -161.256)
(-121.737 -0.781334 0.826914 -206.95 6.68239 -141.673)
(-123.635 -1.21954 0.735989 -159.143 3.94845 -132.247)
(-125.699 -2.10933 0.632346 -145.998 1.29754 -134.139)
(-105.595 0.129702 0.415852 -1104.89 -15.0897 -473.579)
(-113.197 0.0913749 0.644786 -619.294 -0.889675 -272.807)
(-114.236 -0.102199 0.682101 -536.868 3.10046 -244.693)
(-116.534 -0.327458 0.674788 -396.59 4.89997 -197.31)
(-118.648 -0.573473 0.642909 -287.948 4.89037 -163.437)
(-120.75 -0.86225 0.593223 -207.431 3.83347 -140.045)
(-122.733 -1.32052 0.529083 -159.256 2.27985 -128.054)
(-124.896 -2.23968 0.457572 -145.534 0.726541 -128.294)
(-104.709 0.125822 0.278587 -1114.24 -8.46996 -481.174)
(-112.332 0.0792456 0.431658 -621.194 -0.632877 -281.36)
(-113.377 -0.12544 0.457341 -539.043 1.57387 -252.015)
(-115.711 -0.361711 0.453208 -397.931 2.5582 -201.888)
(-117.876 -0.618489 0.432324 -288.652 2.56444 -165.138)
(-120.038 -0.918109 0.399418 -207.652 2.00786 -139.325)
(-122.083 -1.38992 0.356921 -159.196 1.16976 -125.621)
(-124.312 -2.329 0.309616 -145.262 0.340601 -124.831)
(-104.152 0.123747 0.15988 -1119.69 -4.28722 -485.367)
(-111.78 0.0721769 0.24721 -622.56 -0.368363 -286.068)
(-112.826 -0.139527 0.262093 -540.495 0.725921 -256.138)
(-115.181 -0.383048 0.259976 -398.791 1.20073 -204.533)
(-117.377 -0.646825 0.248152 -289.045 1.19776 -166.186)
(-119.577 -0.953408 0.229525 -207.7 0.926868 -138.99)
(-121.661 -1.43419 0.204993 -159.062 0.517554 -124.277)
(-123.934 -2.38499 0.175464 -145.08 0.127329 -122.904)
(-103.887 0.121998 0.0518259 -1122.21 -1.30858 -487.235)
(-111.519 0.0683001 0.0799049 -623.265 -0.120255 -288.148)
(-112.565 -0.146266 0.0847215 -541.224 0.209144 -257.983)
(-114.93 -0.393245 0.084068 -399.218 0.349096 -205.73)
(-117.142 -0.660324 0.0802447 -289.225 0.34617 -166.676)
(-119.359 -0.97049 0.0742819 -207.699 0.2648 -138.856)
(-121.461 -1.45784 0.0661659 -158.971 0.142358 -123.682)
(-123.783 -2.41105 0.0550951 -145.009 0.0298203 -122.07)
(-198.124 4.61425 0.057338 -162.091 -0.306692 -166.751)
(-197.562 4.75549 3.49884 -161.688 -0.264252 -169.263)
(-198.798 4.9477 3.3752 -161.266 -0.208289 -178.362)
(-199.535 5.10493 2.8088 -160.966 -0.159877 -184.506)
(-200.213 5.22358 2.13387 -160.768 -0.119296 -187.94)
(-200.64 5.30869 1.50969 -160.652 -0.0839434 -189.297)
(-200.886 5.36375 0.900756 -160.594 -0.0535738 -189.635)
(-201.012 5.38961 0.298464 -160.604 -0.0198637 -189.658)
(-181.272 4.18931 2.01357 -155.504 0.172589 -164.503)
(-180.98 4.24284 6.03208 -154.997 0.0744814 -166.618)
(-181.047 4.37986 6.09544 -154.597 0.0429315 -169.283)
(-181.387 4.4977 5.03778 -154.287 0.0290009 -170.996)
(-181.708 4.58846 3.80941 -154.072 0.0188778 -171.628)
(-181.923 4.65442 2.66122 -153.932 0.0112664 -171.521)
(-182.046 4.69841 1.57785 -153.848 0.0047728 -171.161)
(-182.099 4.72319 0.522922 -153.813 0.000809926 -170.897)
(-132.096 3.97564 2.01793 -150.16 0.435498 -150.223)
(-133.249 4.01454 6.06151 -149.534 0.268129 -150.968)
(-133.49 4.13838 6.11041 -149.102 0.188646 -148.801)
(-133.224 4.24767 5.03612 -148.768 0.140839 -146.398)
(-132.753 4.33282 3.78653 -148.528 0.102115 -144.211)
(-132.315 4.39491 2.62807 -148.362 0.0692059 -142.519)
(-131.999 4.43596 1.55015 -148.256 0.0399776 -141.369)
(-131.839 4.45761 0.512301 -148.204 0.0130076 -140.789)
(-116.009 3.80924 0.282244 -143.774 0.692112 -148.178)
(-117.233 3.87969 3.68278 -142.875 0.459767 -148.401)
(-116.123 4.02457 3.47163 -142.355 0.33342 -139.768)
(-115.342 4.14898 2.8645 -141.924 0.251882 -132.939)
(-114.425 4.24443 2.13797 -141.598 0.184684 -127.939)
(-113.715 4.31309 1.48511 -141.358 0.126449 -124.779)
(-113.233 4.35763 0.873564 -141.198 0.0742159 -122.935)
(-112.997 4.37945 0.287206 -141.114 0.0246149 -122.087)
)
;
    }
    symmetry
    {
        type            symmetryPlane;
    }
    bottom
    {
        type            calculated;
        value           nonuniform List<symmTensor> 
32
(
(368.997 198.055 0 553.496 222.276 368.997)
(329.473 216.813 0 494.209 119.124 329.473)
(340.179 227.19 0 510.268 67.3727 340.179)
(349.262 232.459 0 523.893 39.5334 349.262)
(354.978 235.314 0 532.467 23.707 354.978)
(358.485 236.968 0 537.728 14.0263 358.485)
(360.519 237.919 0 540.779 7.4585 360.519)
(361.46 238.359 0 542.19 2.34488 361.46)
(-3.48076 87.7423 0 -5.22115 81.3694 -3.48076)
(-27.5707 115.735 0 -41.356 45.6797 -27.5707)
(-27.8069 123.172 0 -41.7103 27.0313 -27.8069)
(-27.1682 125.314 0 -40.7522 16.6235 -27.1682)
(-26.7326 126.012 0 -40.099 10.4392 -26.7326)
(-26.4779 126.304 0 -39.7168 6.43239 -26.4779)
(-26.3383 126.462 0 -39.5075 3.52455 -26.3383)
(-26.2761 126.538 0 -39.4142 1.12573 -26.2761)
(-210.551 68.0145 0 -315.827 -52.1704 -210.551)
(-220.939 100.375 0 -331.409 -32.252 -220.939)
(-228.961 109.241 0 -343.441 -18.9466 -228.961)
(-233.613 111.851 0 -350.419 -10.7007 -233.613)
(-236.497 112.727 0 -354.745 -5.79842 -236.497)
(-238.301 113.101 0 -357.451 -2.97479 -238.301)
(-239.364 113.302 0 -359.046 -1.36838 -239.364)
(-239.859 113.398 0 -359.789 -0.39154 -239.859)
(-537.474 132.969 0 -806.212 -211.771 -537.474)
(-541.242 164.633 0 -811.863 -121.427 -541.242)
(-565.5 179.386 0 -848.25 -70 -565.5)
(-581.417 186.253 0 -872.126 -40.3162 -581.417)
(-591.12 189.831 0 -886.68 -23.0798 -591.12)
(-597.027 191.875 0 -895.54 -12.8623 -597.027)
(-600.438 193.044 0 -900.657 -6.47325 -600.438)
(-602.009 193.585 0 -903.014 -1.96931 -602.009)
)
;
    }
}


// ************************************************************************* //
