/*--------------------------------*- C++ -*----------------------------------*\
| =========                 |                                                 |
| \\      /  F ield         | foam-extend: Open Source CFD                    |
|  \\    /   O peration     | Version:     3.1                                |
|   \\  /    A nd           | Web:         http://www.extend-project.de       |
|    \\/     M anipulation  |                                                 |
\*---------------------------------------------------------------------------*/
FoamFile
{
    version     2.0;
    format      ascii;
    class       volSymmTensorField;
    location    "0.7";
    object      sigmaCauchy;
}
// * * * * * * * * * * * * * * * * * * * * * * * * * * * * * * * * * * * * * //

dimensions      [1 -1 -2 0 0 0 0];

internalField   nonuniform List<symmTensor> 
256
(
(305.804 203.868 6.4033 823.854 122.101 347.606)
(-26.4185 133.443 -13.5518 61.9983 44.4554 -25.2474)
(-206.689 101.989 -19.9966 -351.574 -20.0274 -220.318)
(-564.106 71.2526 -13.233 -949.914 -55.8041 -605.066)
(-300.599 81.3701 -6.17079 60.7072 -9.57824 -221.219)
(-176.078 157.677 -24.5938 -78.2714 -4.25425 -168.069)
(-109.146 135.683 -26.8457 -265.945 9.07788 -145.557)
(-27.246 28.7818 -8.65348 -390.41 17.977 -108.585)
(-171.608 95.7086 -1.60194 125.858 -0.596306 -109.79)
(-165.331 146.415 -13.8606 -91.1683 0.0988196 -155.894)
(-114.317 126.318 -15.3873 -256.934 2.83819 -157.015)
(-128.893 36.5221 -3.25946 -429.207 5.44897 -198.401)
(-195.931 76.5671 -2.80444 5.54657 -8.44293 -149.45)
(-163.566 125.499 -10.0476 -122.313 -2.32653 -161.861)
(-112.645 109.593 -10.1032 -228.916 3.33509 -151.75)
(-104.938 31.9102 -1.90001 -325.171 9.48151 -160.983)
(-185.462 59.7834 -1.94953 -60.4143 -8.03034 -152.387)
(-158.626 100.582 -6.21509 -139.936 -2.33133 -160.312)
(-118.663 89.0774 -6.02624 -206.372 2.21312 -152.44)
(-113.496 29.0969 -0.671618 -261.044 7.63412 -157.275)
(-184.832 41.0927 -1.50899 -116.127 -6.84167 -160.502)
(-158.281 73.9688 -3.60361 -152.069 -2.21226 -160.095)
(-125.486 66.7401 -3.37436 -185.157 1.32013 -152.297)
(-116.523 23.6241 -0.306799 -203.491 5.68476 -150.14)
(-184.151 24.2408 -1.10663 -148.851 -4.49709 -163.626)
(-160.17 47.7515 -1.61775 -157.665 -1.81052 -159.529)
(-132.402 43.6536 -1.44423 -167.846 0.463887 -152.526)
(-120.056 15.7282 -0.320029 -164.448 3.0468 -147.232)
(-190.658 10.6631 -0.398463 -161.925 -1.39207 -166.069)
(-173.788 22.431 0.625373 -163.533 -0.783608 -165.493)
(-129.873 19.0402 0.643341 -150.589 -0.150403 -147.848)
(-118.726 4.50421 -0.145593 -145.897 0.578883 -146.772)
(285.419 227.851 4.4292 752.389 84.3699 339.057)
(-40.6087 161.219 -11.4183 13.8586 31.3728 -37.5768)
(-216.034 130.083 -16.691 -369.586 -13.2334 -234.688)
(-569.008 89.8855 -10.7946 -958.272 -39.9355 -624.626)
(-227.281 92.6406 -4.94544 159.188 17.0022 -127.466)
(-123.485 172.397 -23.4491 -25.6456 9.64661 -110.641)
(-146.753 144.835 -26.2608 -318.367 8.1212 -182.037)
(-94.6358 31.8041 -9.93024 -479.28 5.29888 -182.377)
(-170.859 91.9456 -3.31971 127.056 1.72309 -106.977)
(-152.243 142.622 -16.7187 -80.1554 3.82751 -142.497)
(-127.136 121.539 -17.9613 -267.571 8.92778 -162.937)
(-132.033 32.6128 -5.05604 -431.562 12.4641 -195.294)
(-185.205 71.4898 -2.40632 19.4697 -6.64329 -138.222)
(-152.412 116.84 -10.226 -108.504 0.20403 -149.752)
(-126.129 100.479 -10.3368 -234.782 7.80598 -158.544)
(-116.811 26.7946 -1.87909 -331.305 14.7124 -167.187)
(-183.017 53.2705 -0.890783 -56.2364 -9.32736 -150.571)
(-153.942 90.3905 -5.04365 -131.446 -1.79668 -154.699)
(-127.303 79.2061 -4.74529 -205.425 5.70016 -154.986)
(-118.198 23.5782 0.497932 -257.258 12.9101 -156.561)
(-183.862 35.5316 0.341321 -114.116 -8.71835 -160.436)
(-156.573 64.9854 -1.19979 -146.992 -2.52635 -157.706)
(-130.998 58.2752 -0.84573 -182.247 3.41074 -153.1)
(-119.642 19.0469 1.73021 -198.968 9.33975 -149.028)
(-185.101 20.2769 1.37323 -149.446 -6.00466 -165.83)
(-161.055 41.2272 1.64095 -156.489 -2.30155 -160.355)
(-135.07 37.6112 1.91419 -164.83 1.445 -152.118)
(-121.325 12.5426 2.31836 -160.571 5.0874 -145.54)
(-190.973 9.16215 2.61272 -162.139 -2.39133 -168.642)
(-174.884 19.4541 4.33453 -163.762 -1.27159 -167.867)
(-131.816 16.2829 4.44652 -149.792 0.125041 -148.439)
(-120.641 3.30252 2.97788 -145.498 1.44852 -147.053)
(301.619 241.58 2.77907 771.485 53.4 369.79)
(-38.2126 171.602 -7.68422 9.76879 20.4425 -30.5837)
(-221.302 139.764 -11.2167 -382.702 -7.14805 -246.915)
(-596.376 96.1657 -7.41093 -995.995 -23.5842 -668.034)
(-227.235 96.7566 -3.61319 154.92 18.71 -98.6111)
(-119.093 179.912 -16.2735 -26.6975 10.779 -95.1526)
(-149.235 151.173 -18.5919 -331.263 6.70519 -194.655)
(-94.6232 33.1989 -8.12073 -488.324 2.6086 -207.888)
(-170.646 93.0837 -3.03132 128.324 7.19077 -86.8341)
(-150.1 146.178 -12.7139 -78.7447 6.42328 -131.16)
(-127.001 124.381 -13.8228 -274.099 8.42552 -168.197)
(-133.793 32.7707 -4.83525 -440.1 9.1499 -211.8)
(-185.224 71.3934 -1.97433 20.9 -0.681916 -127.494)
(-151.788 116.812 -7.97338 -106.79 2.7758 -142.745)
(-126.766 100.217 -8.21444 -237.117 7.76304 -160.295)
(-118.277 26.4029 -1.98608 -335.315 11.5444 -174.623)
(-184.878 52.2831 -0.680845 -56.0041 -4.37918 -148.188)
(-154.262 88.7836 -3.56493 -129.604 0.309169 -151.058)
(-128.149 77.5608 -3.39396 -205.588 5.86623 -154.662)
(-118.107 22.6117 0.203427 -257.588 10.5234 -156.559)
(-186.29 34.4178 0.531952 -114.349 -5.11224 -163.449)
(-157.386 62.8985 -0.0781306 -145.616 -0.995688 -156.734)
(-131.697 56.2541 0.20336 -181.411 3.66905 -151.618)
(-118.728 17.979 1.56516 -197.755 7.78052 -144.531)
(-187.557 19.3624 1.5741 -149.773 -3.85322 -172.234)
(-161.946 39.5268 2.57608 -155.697 -1.33601 -161.362)
(-135.446 35.9891 2.81269 -163.889 1.70591 -150.186)
(-119.839 11.6175 2.31432 -158.96 4.38288 -138.511)
(-193.932 8.99615 2.65627 -163.955 -1.61011 -178.076)
(-175.328 18.8619 4.78068 -163.34 -0.944573 -170.071)
(-131.852 15.7324 4.87698 -148.961 0.184469 -146.239)
(-117.835 3.08823 2.91648 -142.445 1.2046 -137.587)
(312.369 249.23 1.84754 788.456 33.898 390.689)
(-36.4288 176.327 -4.84352 9.64506 13.5403 -25.6689)
(-224.719 143.96 -7.09108 -390.714 -3.45699 -254.854)
(-614.889 98.789 -4.63973 -1021.54 -13.509 -697.241)
(-229.197 99.0437 -2.14437 151.147 15.7662 -80.427)
(-118.187 184.759 -10.5318 -29.0412 9.33034 -87.0431)
(-148.891 155.514 -12.2277 -337.409 5.25615 -202.088)
(-92.4762 34.0625 -5.55708 -492.565 1.54133 -225.44)
(-171.245 94.8922 -1.92631 126.894 8.88902 -70.5571)
(-150.082 149.843 -8.70592 -80.5835 6.75408 -124.22)
(-125.391 127.692 -9.61726 -277.97 6.75836 -171.854)
(-133.304 33.7273 -3.65895 -445.352 5.86618 -225.475)
(-186.14 72.4169 -1.17976 20.1346 3.23483 -117.001)
(-152.08 119.06 -5.57829 -107.765 4.04165 -137.648)
(-125.677 102.291 -5.88362 -239.326 6.39062 -161.505)
(-117.294 27.011 -1.68532 -338.275 7.64776 -181.525)
(-185.958 52.8088 -0.233011 -56.2094 -0.156296 -143.473)
(-154.75 89.9511 -2.36361 -129.873 1.86254 -148.049)
(-127.546 78.633 -2.33452 -206.656 4.96708 -154.221)
(-117.173 22.8964 0.0118695 -259.048 7.13915 -158.01)
(-187.403 34.6476 0.686811 -114.117 -1.56862 -163.403)
(-157.964 63.3723 0.336983 -145.496 0.431971 -155.651)
(-131.319 56.6683 0.492346 -181.731 3.23464 -150.166)
(-117.819 18.0049 1.18755 -198.307 5.38014 -142.109)
(-188.401 19.4336 1.48265 -149.101 -1.54226 -175.344)
(-162.444 39.6995 2.44225 -155.39 -0.296149 -161.753)
(-135.113 36.1147 2.59661 -163.792 1.62246 -148.211)
(-119.077 11.4994 1.90693 -159.119 3.11867 -133.775)
(-194.92 9.14604 2.27071 -163.884 -0.793955 -183.493)
(-175.685 19.0171 4.08288 -163.019 -0.509881 -171.38)
(-131.506 15.8346 4.15055 -148.654 0.2712 -143.973)
(-116.76 3.08778 2.44303 -141.764 0.909015 -131.164)
(318.524 253.618 1.26794 799.543 21.6049 403.051)
(-35.4921 178.715 -2.92732 9.95941 9.01992 -22.8607)
(-227.057 145.988 -4.31846 -395.754 -1.43686 -259.926)
(-626.238 100.004 -2.78502 -1037.36 -7.6381 -715.05)
(-230.87 100.516 -1.15306 149.507 12.0464 -69.6419)
(-117.791 187.812 -6.52643 -30.375 7.27917 -82.3946)
(-148.562 158.248 -7.68619 -341.096 3.9228 -206.817)
(-90.7047 34.5206 -3.54305 -495.499 0.988363 -236.435)
(-172.173 96.3084 -1.04825 125.402 8.23573 -60.0653)
(-150.152 152.631 -5.59453 -82.3515 5.88647 -119.9)
(-124.149 130.266 -6.29247 -280.587 5.01357 -174.378)
(-132.355 34.471 -2.49188 -448.69 3.60367 -234.539)
(-187.195 73.4682 -0.545016 18.6801 4.63134 -109.478)
(-152.209 121.315 -3.6146 -109.138 4.10844 -134.097)
(-124.627 104.418 -3.92458 -241.193 4.80526 -162.412)
(-116.072 27.6915 -1.23085 -340.35 4.71297 -186.583)
(-186.917 53.5796 0.0936968 -57.0852 2.07924 -139.384)
(-154.949 91.6072 -1.43752 -130.718 2.46776 -145.686)
(-126.766 80.2007 -1.5077 -207.833 3.81915 -153.908)
(-116.088 23.4257 -0.0547223 -260.268 4.43428 -159.477)
(-188.278 35.175 0.710398 -114.45 0.621787 -162.491)
(-158.187 64.4868 0.468352 -145.847 1.21711 -154.501)
(-130.746 57.7091 0.511353 -182.341 2.57079 -149.07)
(-116.844 18.3356 0.821671 -198.858 3.37417 -140.768)
(-189.064 19.7551 1.23756 -148.942 0.0421112 -176.729)
(-162.637 40.393 1.98101 -155.378 0.387336 -161.574)
(-134.641 36.7438 2.04866 -163.948 1.36155 -146.636)
(-118.254 11.649 1.39182 -159.248 1.97609 -130.593)
(-195.713 9.35334 1.76174 -163.929 -0.13291 -186.481)
(-175.923 19.37 3.13756 -162.87 -0.155747 -171.796)
(-130.957 16.123 3.16124 -148.406 0.268564 -141.943)
(-115.657 3.15043 1.81968 -141.188 0.557128 -126.521)
(322.082 256.205 0.850821 806.523 13.3754 410.203)
(-35.0241 180.02 -1.68061 10.2386 5.80075 -21.3364)
(-228.581 147.055 -2.50769 -398.911 -0.45205 -263.072)
(-633.122 100.613 -1.59391 -1047.05 -4.19565 -725.703)
(-231.976 101.463 -0.55551 149.038 8.39033 -63.4252)
(-117.601 189.684 -3.8318 -31.061 5.14345 -79.7818)
(-148.384 159.89 -4.57139 -343.419 2.714 -209.75)
(-89.5837 34.7319 -2.11198 -497.64 0.633118 -243.041)
(-172.851 97.2937 -0.488609 124.56 6.40064 -53.6712)
(-150.187 154.511 -3.35748 -83.5712 4.44237 -117.308)
(-123.338 131.99 -3.84419 -282.347 3.42574 -176.005)
(-131.624 34.9335 -1.55038 -450.951 2.12124 -240.143)
(-187.966 74.2657 -0.167011 17.5053 4.28027 -104.611)
(-152.241 123.003 -2.16379 -110.282 3.37583 -131.812)
(-123.849 106.009 -2.42137 -242.557 3.3078 -163.004)
(-115.113 28.1891 -0.797132 -341.755 2.74416 -189.837)
(-187.613 54.2076 0.234809 -58.0135 2.59173 -136.443)
(-155.007 92.9786 -0.791193 -131.561 2.27993 -144.024)
(-126.117 81.5063 -0.894368 -208.77 2.67237 -153.681)
(-115.206 23.8721 -0.0511693 -261.078 2.5733 -160.535)
(-188.888 35.6323 0.613803 -114.985 1.43444 -161.451)
(-158.26 65.4975 0.441209 -146.309 1.35085 -153.533)
(-130.234 58.6651 0.422531 -182.867 1.84401 -148.282)
(-116.061 18.6627 0.533267 -199.191 1.95657 -140.033)
(-189.536 20.0444 0.930278 -149.069 0.739885 -177.12)
(-162.709 41.0499 1.43155 -155.499 0.634558 -161.163)
(-134.211 37.3521 1.44293 -164.101 1.01251 -145.463)
(-117.589 11.8276 0.929842 -159.256 1.13688 -128.609)
(-196.161 9.50625 1.26127 -163.925 0.1935 -187.653)
(-176.05 19.6776 2.20254 -162.798 0.0331232 -171.643)
(-130.474 16.3791 2.19676 -148.234 0.217871 -140.387)
(-114.899 3.19887 1.24861 -140.859 0.296708 -123.641)
(324.069 257.687 0.495946 810.648 7.32787 414.132)
(-34.7928 180.741 -0.857277 10.4274 3.26516 -20.5506)
(-229.492 147.628 -1.29433 -400.771 -0.067336 -264.894)
(-637.07 100.928 -0.813928 -1052.65 -2.08419 -731.725)
(-232.653 102.034 -0.232582 149 4.93422 -60.0877)
(-117.515 190.763 -1.98909 -31.3952 3.05152 -78.3986)
(-148.297 160.815 -2.39786 -344.809 1.59485 -211.441)
(-88.9221 34.8186 -1.10696 -499.029 0.358854 -246.712)
(-173.278 97.9071 -0.190212 124.17 4.00226 -50.096)
(-150.2 155.645 -1.76317 -84.2932 2.73659 -115.863)
(-122.859 133.016 -2.04907 -283.437 1.99136 -176.96)
(-131.162 35.1855 -0.834002 -452.377 1.11196 -243.319)
(-188.453 74.7782 -0.0106147 16.763 2.90786 -101.788)
(-152.237 124.071 -1.12753 -111.035 2.1795 -130.474)
(-123.354 107.01 -1.29525 -243.431 1.93085 -163.348)
(-114.492 28.4892 -0.438105 -342.631 1.41888 -191.708)
(-188.06 54.618 0.209438 -58.707 1.96429 -134.628)
(-155.013 93.884 -0.376604 -132.173 1.56156 -142.988)
(-125.68 82.3677 -0.459605 -209.387 1.57707 -153.524)
(-114.615 24.1634 -0.0301185 -261.552 1.32041 -161.163)
(-189.281 35.9336 0.411573 -115.463 1.24347 -160.668)
(-158.279 66.186 0.307263 -146.683 0.99956 -152.856)
(-129.874 59.3198 0.275243 -183.216 1.10627 -147.768)
(-115.529 18.8904 0.299585 -199.34 0.997556 -139.619)
(-189.853 20.2339 0.575411 -149.277 0.729079 -177.123)
(-162.735 41.4995 0.861277 -155.63 0.526127 -160.765)
(-133.908 37.7715 0.851693 -164.198 0.620841 -144.685)
(-117.124 11.9565 0.528497 -159.189 0.569356 -127.442)
(-196.426 9.59713 0.757254 -163.952 0.233924 -187.976)
(-176.118 19.8806 1.30575 -162.775 0.0788037 -171.32)
(-130.13 16.5487 1.2917 -148.114 0.139134 -139.336)
(-114.4 3.22691 0.725126 -140.637 0.133085 -121.958)
(324.969 258.369 0.163292 812.577 2.33791 415.879)
(-34.6956 181.069 -0.262049 10.5215 1.05627 -20.2176)
(-229.916 147.885 -0.398596 -401.636 0.00909064 -265.73)
(-638.878 101.066 -0.249325 -1055.24 -0.629045 -734.453)
(-232.974 102.303 -0.0619364 149.049 1.62734 -58.6397)
(-117.482 191.258 -0.613988 -31.5305 1.01057 -77.804)
(-148.261 161.232 -0.744523 -345.463 0.526269 -212.212)
(-88.6143 34.8478 -0.343637 -499.709 0.116784 -248.343)
(-173.48 98.2006 -0.0470506 124.03 1.35712 -48.5036)
(-150.205 156.175 -0.546876 -84.6237 0.921989 -115.22)
(-122.638 133.49 -0.641011 -283.958 0.653174 -177.4)
(-130.943 35.2941 -0.262233 -453.069 0.345954 -244.746)
(-188.684 75.026 0.0108099 16.4173 1.02102 -100.504)
(-152.228 124.582 -0.347604 -111.401 0.749954 -129.86)
(-123.116 107.484 -0.40554 -243.854 0.634569 -163.503)
(-114.191 28.6267 -0.139218 -343.054 0.437563 -192.552)
(-188.274 54.8168 0.0808062 -59.0631 0.719075 -133.774)
(-155.009 94.3239 -0.109213 -132.484 0.551214 -142.495)
(-125.463 82.7855 -0.140325 -209.688 0.521161 -153.443)
(-114.325 24.303 -0.00986798 -261.769 0.404896 -161.447)
(-189.471 36.0784 0.144 -115.731 0.476085 -160.26)
(-158.283 66.5242 0.109235 -146.884 0.363946 -152.511)
(-129.693 59.642 0.0950533 -183.385 0.368581 -147.513)
(-115.264 19.0027 0.0962353 -199.391 0.304213 -139.428)
(-190.009 20.323 0.193981 -149.413 0.289637 -177.052)
(-162.744 41.7193 0.286809 -155.708 0.199369 -160.532)
(-133.754 37.977 0.280773 -164.242 0.208987 -144.296)
(-116.892 12.0198 0.170458 -159.134 0.1712 -126.901)
(-196.542 9.63721 0.251515 -163.975 0.0965126 -188.003)
(-176.146 19.9782 0.432219 -162.771 0.0356652 -171.094)
(-129.957 16.6299 0.425701 -148.053 0.0476915 -138.807)
(-114.162 3.23849 0.236604 -140.528 0.0370463 -121.187)
)
;

boundaryField
{
    interface
    {
        type            calculated;
        value           nonuniform List<symmTensor> 
192
(
(-181.303 89.0427 16.7762 893.739 157.358 143.771)
(-186.804 32.3373 3.25801 250.595 -10.1966 -124.408)
(-184.899 40.9311 4.53611 239.051 -0.573196 -87.3615)
(-184.912 29.2955 2.66749 92.5725 -12.1767 -121.102)
(-184.702 19.2784 2.13601 -9.28028 -11.7214 -136.462)
(-184.231 9.85276 1.80413 -90.4292 -9.94962 -150.711)
(-182.915 3.71401 1.71602 -138.894 -6.33155 -157.415)
(-180.131 1.40723 1.61661 -151.455 -2.00713 -154.691)
(-185.142 91.7913 12.2046 839.883 108.998 152.962)
(-190.976 37.7578 4.6912 297.296 22.3556 -79.837)
(-189.758 40.2269 3.25755 230.929 1.7395 -92.0608)
(-189.586 29.3684 1.65898 92.8395 -9.8617 -122.548)
(-189.17 18.8144 0.863008 -13.3049 -13.0798 -141.556)
(-188.246 9.49013 0.606015 -93.8979 -11.8698 -155.22)
(-186.267 3.35102 0.714648 -141.75 -7.79435 -161.448)
(-182.437 1.0296 0.908711 -152.608 -2.79135 -158.073)
(-187.058 98.3093 8.05321 862.678 68.6597 179.347)
(-193.666 38.2271 3.95832 287.337 23.6904 -47.8017)
(-192.521 40.2379 3.00031 227.243 8.52706 -71.7919)
(-192.299 29.3005 1.72572 90.7439 -1.81111 -113.486)
(-191.741 18.6692 0.921078 -15.0969 -6.30935 -141.355)
(-190.545 9.40315 0.559404 -94.8987 -6.87102 -160.783)
(-188.15 3.29403 0.525249 -141.872 -4.83687 -170.488)
(-183.727 0.770875 0.627689 -153.557 -1.69841 -169.747)
(-188.395 102.893 5.24805 882.439 43.2068 197.441)
(-195.528 38.6196 3.04376 282.678 19.5578 -24.7461)
(-194.372 40.412 2.60042 224.224 10.6793 -52.536)
(-194.122 29.3084 1.76586 88.9198 3.46171 -101.422)
(-193.457 18.6618 1.10977 -16.0226 -0.655979 -136.608)
(-192.074 9.43228 0.713405 -95.0031 -2.16086 -161.817)
(-189.401 3.33925 0.544099 -141.283 -1.82517 -175.459)
(-184.59 0.69278 0.490529 -153.391 -0.671057 -177.188)
(-189.383 105.823 3.40178 895.574 27.3004 208.187)
(-196.837 39.0313 2.21749 281.441 14.7568 -10.5797)
(-195.659 40.6399 2.06501 222.592 9.89654 -39.4374)
(-195.386 29.3379 1.57371 87.3033 5.39623 -92.0712)
(-194.644 18.6526 1.11056 -17.0163 2.33245 -131.792)
(-193.129 9.43174 0.76128 -95.3779 0.697926 -161.121)
(-190.264 3.34786 0.544062 -141.117 0.177913 -177.762)
(-185.185 0.63997 0.402182 -153.299 0.11323 -181.274)
(-190.089 107.657 2.13013 903.935 16.7809 214.342)
(-197.737 39.3778 1.504 281.527 10.2003 -2.34706)
(-196.536 40.8646 1.48337 221.963 7.68365 -31.3613)
(-196.245 29.3882 1.21454 86.2158 5.07915 -85.898)
(-195.451 18.6385 0.919591 -17.9248 3.0733 -128.181)
(-193.848 9.4058 0.659523 -95.9167 1.75626 -160.018)
(-190.852 3.32683 0.464863 -141.255 1.02566 -178.563)
(-185.589 0.602619 0.307622 -153.261 0.454839 -183.03)
(-190.545 108.738 1.17461 908.909 9.14902 217.669)
(-198.305 39.6192 0.870219 281.923 5.97359 2.09074)
(-197.087 41.0366 0.888778 221.805 4.80084 -26.8426)
(-196.784 29.4373 0.758342 85.5933 3.47115 -82.3058)
(-195.958 18.6279 0.597345 -18.5795 2.35846 -125.929)
(-194.299 9.37575 0.440169 -96.3998 1.53423 -159.135)
(-191.221 3.29763 0.309682 -141.482 0.972699 -178.733)
(-185.84 0.574017 0.191774 -153.288 0.424855 -183.635)
(-190.761 109.242 0.37545 911.249 2.91192 219.132)
(-198.568 39.7411 0.284064 282.21 1.96656 4.02828)
(-197.342 41.1284 0.295005 221.806 1.62733 -24.8275)
(-197.035 29.4668 0.256501 85.3256 1.2212 -80.6689)
(-196.194 18.6229 0.205648 -18.9074 0.866436 -124.864)
(-194.511 9.35715 0.153406 -96.6688 0.58816 -158.663)
(-191.392 3.27679 0.107771 -141.629 0.382253 -178.715)
(-185.933 0.5575 0.0638807 -153.302 0.165426 -183.757)
(-19.6641 175.932 1.48422 517.139 24.8465 -167.849)
(-285.633 74.9041 -3.99466 55.0477 -1.04379 -166.9)
(-214.781 98.7081 -5.1731 81.0967 -0.729965 -166.006)
(-212.833 81.0123 -5.39063 -13.6456 -1.00551 -165.574)
(-196.738 65.0837 -5.33612 -72.1764 -0.573905 -165.343)
(-188.904 45.5538 -5.00997 -119.938 -0.227916 -165.175)
(-184.661 27.3698 -4.57297 -148.527 -0.0906644 -164.979)
(-189.449 11.9643 -4.17045 -160.262 -0.0921646 -164.634)
(-112.386 109.621 -2.16111 3.26451 1.79213 -162.157)
(-187.16 148.927 -4.0136 -92.617 -3.2199 -161.3)
(-174.786 151.692 -4.41287 -98.6083 -2.63138 -160.602)
(-166.955 133.272 -4.70797 -127.247 -1.91001 -160.093)
(-160.303 108.895 -4.67639 -143.721 -1.09639 -159.714)
(-158.578 80.9457 -4.44244 -154.192 -0.527235 -159.409)
(-159.656 52.7218 -4.11552 -158.142 -0.234033 -159.124)
(-169.063 24.8562 -3.85251 -159.241 -0.133872 -158.736)
(-159.907 81.4728 -4.10273 -302.79 -0.209456 -155.577)
(-98.4276 129.012 -5.45718 -246.265 -3.89257 -155.047)
(-101.846 132.077 -5.39912 -250.361 -3.35848 -154.416)
(-105.376 117.385 -5.06404 -229.262 -2.36588 -153.922)
(-113.459 96.9824 -4.74648 -209.411 -1.37508 -153.548)
(-122.369 73.2412 -4.42441 -188.799 -0.682972 -153.274)
(-130.864 48.2284 -4.09537 -170.733 -0.316991 -153.082)
(-132.591 21.2707 -3.86665 -155.263 -0.203579 -152.91)
(-251.81 62.9654 -4.89334 -675.676 14.8915 -148.004)
(-27.2802 25.704 -7.25638 -367.881 -3.07353 -146.813)
(-83.6665 40.4969 -6.37627 -391.172 -3.1072 -146.193)
(-86.2175 36.4755 -5.94602 -312.893 -2.37365 -145.846)
(-101.047 33.7112 -5.38576 -256.533 -1.35859 -145.696)
(-111.08 27.2853 -4.91733 -204.75 -0.608491 -145.725)
(-118.433 18.1702 -4.47862 -167.438 -0.228917 -145.911)
(-118.263 5.53145 -4.10614 -147.377 -0.143034 -146.253)
(-132.717 -55.7785 -4.08244 -888.182 -69.6504 -409.061)
(-128.631 -29.2755 4.03947 -519.824 17.9497 -186.376)
(-129.132 -35.8752 3.01882 -491.519 6.06607 -213.348)
(-128.537 -26.7541 4.13781 -372.57 12.3854 -180.765)
(-128.269 -18.0224 4.02565 -283.299 10.5487 -167.282)
(-128.337 -9.68633 3.63541 -209.577 8.05201 -155.981)
(-129.092 -4.33572 2.92748 -162.707 4.20982 -151.496)
(-131.021 -3.26578 2.09854 -150.291 0.66549 -156.212)
(-131.496 -62.7262 -3.8324 -891.686 -50.8287 -427.825)
(-128.076 -34.3077 1.32145 -564.319 1.4707 -216.732)
(-128.366 -35.4998 2.54779 -489.278 12.9421 -204.904)
(-127.72 -26.5791 3.36835 -371.724 17.5677 -178.196)
(-127.185 -17.4106 3.37693 -277.424 16.3537 -162.816)
(-127.065 -9.37086 2.89069 -204.212 12.3446 -152.623)
(-127.653 -4.40302 2.11419 -158.921 6.89055 -148.89)
(-129.438 -3.76496 1.32975 -148.537 2.10351 -154.892)
(-130.709 -69.3752 -2.41966 -917.692 -30.3287 -460.502)
(-126.843 -35.5743 0.658929 -567.029 -0.918633 -244.403)
(-127.175 -36.2713 1.60491 -494.101 8.40585 -222.129)
(-126.496 -26.961 2.28684 -373.635 12.6141 -185.027)
(-125.906 -17.5552 2.39201 -277.035 12.3576 -161.485)
(-125.764 -9.51979 2.08267 -203.155 9.57416 -146.123)
(-126.352 -4.63362 1.53365 -157.938 5.5491 -139.426)
(-128.155 -3.91025 0.941899 -146.157 1.67236 -143.119)
(-129.856 -73.687 -1.36096 -935.591 -17.5747 -482.825)
(-125.553 -36.5088 0.441176 -569.322 -1.19851 -266.253)
(-125.903 -37.0906 1.00968 -497.946 4.60786 -238.816)
(-125.209 -27.4811 1.46704 -375.943 7.54389 -193.748)
(-124.63 -17.9144 1.58337 -278.062 7.70385 -163.156)
(-124.526 -9.81732 1.42364 -203.496 6.12 -142.709)
(-125.17 -4.91911 1.09195 -157.977 3.65508 -132.834)
(-127.055 -4.12041 0.707958 -145.275 1.16887 -134.547)
(-129.133 -76.3677 -0.73297 -946.728 -10.1025 -496.289)
(-124.552 -37.2327 0.315841 -571.696 -0.986631 -280.281)
(-124.914 -37.7636 0.630765 -500.845 2.37113 -250.4)
(-124.212 -27.9408 0.900974 -377.766 4.13074 -200.618)
(-123.645 -18.244 0.988127 -279.041 4.32176 -165.329)
(-123.575 -10.0667 0.916151 -203.856 3.48476 -141.122)
(-124.27 -5.12972 0.732694 -157.965 2.09176 -128.716)
(-126.221 -4.2815 0.502785 -144.691 0.6378 -128.806)
(-128.582 -78.0184 -0.379528 -953.531 -5.66055 -504.163)
(-123.832 -37.7539 0.216325 -573.658 -0.687364 -288.657)
(-124.206 -38.2683 0.381491 -502.954 1.15602 -257.595)
(-123.498 -28.2932 0.529159 -379.053 2.11809 -205.127)
(-122.94 -18.4883 0.583417 -279.679 2.23781 -167.008)
(-122.894 -10.2378 0.553783 -204.007 1.8053 -140.414)
(-123.625 -5.26491 0.458221 -157.832 1.05824 -126.32)
(-125.626 -4.40096 0.330464 -144.343 0.284724 -125.396)
(-128.213 -78.9814 -0.179088 -957.456 -2.86501 -508.51)
(-123.365 -38.0881 0.125616 -574.991 -0.398367 -293.265)
(-123.747 -38.6015 0.203668 -504.324 0.510567 -261.644)
(-123.036 -28.5287 0.275515 -379.865 0.975672 -207.727)
(-122.483 -18.6458 0.303895 -280.032 1.03106 -168.038)
(-122.452 -10.3404 0.293024 -204.017 0.823055 -140.081)
(-123.206 -5.34233 0.247723 -157.658 0.459903 -124.992)
(-125.244 -4.47601 0.182484 -144.117 0.0975072 -123.496)
(-128.033 -79.4286 -0.0527068 -959.264 -0.874769 -510.448)
(-123.144 -38.251 0.0405899 -575.661 -0.129996 -295.301)
(-123.53 -38.7661 0.0633505 -505.002 0.142762 -263.455)
(-122.818 -28.6456 0.084699 -380.264 0.280138 -208.903)
(-122.268 -18.7219 0.0934234 -280.193 0.295245 -168.518)
(-122.243 -10.3876 0.0908328 -204 0.233078 -139.947)
(-123.009 -5.37882 0.0774505 -157.551 0.124731 -124.404)
(-125.092 -4.50978 0.0565625 -144.026 0.0206769 -122.673)
(-196.224 7.95725 0.102089 -164.619 -0.314715 -167.763)
(-195.665 8.07773 3.38156 -164.287 -0.626721 -170.219)
(-196.963 8.43939 3.2439 -164.105 -0.551719 -179.089)
(-197.749 8.70422 2.68634 -163.971 -0.441946 -185.054)
(-198.438 8.91398 2.03501 -163.881 -0.333511 -188.383)
(-198.854 9.05591 1.43815 -163.822 -0.236833 -189.696)
(-199.085 9.14299 0.85767 -163.791 -0.145544 -190.023)
(-199.201 9.18104 0.284042 -163.812 -0.0504166 -190.046)
(-180.049 6.45303 1.97029 -157.623 -0.0325915 -165.184)
(-179.735 6.53162 5.77749 -157.175 -0.52528 -167.255)
(-179.799 6.71703 5.82498 -156.864 -0.562794 -169.846)
(-180.133 6.90194 4.81131 -156.626 -0.472374 -171.505)
(-180.441 7.04755 3.63886 -156.456 -0.361713 -172.11)
(-180.638 7.1496 2.54353 -156.339 -0.255962 -171.999)
(-180.745 7.21449 1.50886 -156.266 -0.154321 -171.644)
(-180.789 7.24818 0.500181 -156.234 -0.0520182 -171.385)
(-132.311 1.94714 1.94561 -150.941 0.210024 -150.408)
(-133.376 2.13912 5.78102 -150.387 -0.353021 -151.165)
(-133.54 2.31827 5.82331 -149.969 -0.440754 -149.056)
(-133.231 2.42875 4.80085 -149.627 -0.382785 -146.698)
(-132.736 2.48733 3.61194 -149.37 -0.295111 -144.544)
(-132.284 2.51961 2.5087 -149.187 -0.20836 -142.874)
(-131.959 2.53763 1.48063 -149.068 -0.124459 -141.739)
(-131.794 2.54731 0.489482 -149.009 -0.0414519 -141.166)
(-116.499 0.726996 0.275562 -144.33 0.641507 -148.072)
(-117.632 0.995611 3.48209 -143.51 0.0677413 -148.317)
(-116.405 1.06601 3.28693 -142.886 -0.0520653 -139.887)
(-115.534 1.14427 2.72395 -142.378 -0.0770091 -133.198)
(-114.563 1.17076 2.04127 -141.989 -0.0677197 -128.282)
(-113.821 1.18446 1.42221 -141.71 -0.0520784 -125.168)
(-113.323 1.19124 0.838171 -141.527 -0.0320098 -123.348)
(-113.079 1.19503 0.275831 -141.433 -0.0105247 -122.51)
)
;
    }
    symmetry
    {
        type            symmetryPlane;
    }
    bottom
    {
        type            calculated;
        value           nonuniform List<symmTensor> 
32
(
(384.171 228.749 25.9885 565.734 256.724 390.182)
(350.45 246.815 15.1542 504.318 135.608 331.195)
(363.378 259.65 8.99165 521.179 76.9986 335.724)
(373.515 266.558 5.40475 535.432 45.3325 342.654)
(379.79 270.398 3.28334 544.397 27.2416 347.53)
(383.618 272.647 1.95716 549.896 16.1382 350.669)
(385.838 273.944 1.04518 553.085 8.58785 352.531)
(386.866 274.545 0.329244 554.56 2.70086 353.401)
(0.82803 87.614 3.99844 -5.21694 81.2505 0.224455)
(-20.1644 114.394 2.95092 -41.251 45.1507 -26.4762)
(-19.4105 121.733 1.85841 -41.603 26.7156 -27.4708)
(-18.4711 123.884 1.16286 -40.6491 16.4338 -27.0829)
(-17.9352 124.597 0.734363 -39.9987 10.322 -26.7388)
(-17.6378 124.899 0.453561 -39.6182 6.36086 -26.5207)
(-17.4753 125.063 0.248839 -39.4097 3.48557 -26.3967)
(-17.402 125.141 0.079527 -39.3169 1.11331 -26.3405)
(-211.274 61.9999 -1.92841 -311.045 -47.5569 -212.309)
(-219.07 91.0608 -1.75694 -326.096 -29.2592 -223.974)
(-226.368 98.7364 -1.12201 -337.723 -17.1247 -232.642)
(-230.873 100.877 -0.648393 -344.465 -9.65078 -237.589)
(-233.755 101.53 -0.353946 -348.643 -5.22247 -240.618)
(-235.579 101.781 -0.182142 -351.256 -2.67705 -242.499)
(-236.657 101.912 -0.0839197 -352.795 -1.23081 -243.605)
(-237.158 101.975 -0.0240308 -353.512 -0.352096 -244.118)
(-551.243 102.953 -14.5859 -773.228 -163.966 -537.171)
(-549.976 127.209 -10.3396 -779.112 -93.8243 -556.368)
(-573.666 136.78 -6.46795 -812.694 -53.3743 -587.717)
(-589.751 140.771 -3.85768 -834.581 -30.4712 -606.738)
(-599.694 142.702 -2.24731 -847.87 -17.3498 -617.904)
(-605.782 143.762 -1.2647 -855.94 -9.63704 -624.563)
(-609.304 144.362 -0.640021 -860.594 -4.8408 -628.369)
(-610.926 144.638 -0.195206 -862.735 -1.47138 -630.113)
)
;
    }
}


// ************************************************************************* //
