/*--------------------------------*- C++ -*----------------------------------*\
| =========                 |                                                 |
| \\      /  F ield         | foam-extend: Open Source CFD                    |
|  \\    /   O peration     | Version:     3.1                                |
|   \\  /    A nd           | Web:         http://www.extend-project.de       |
|    \\/     M anipulation  |                                                 |
\*---------------------------------------------------------------------------*/
FoamFile
{
    version     2.0;
    format      ascii;
    class       volScalarField;
    location    "0.7";
    object      sigmaCauchyEq;
}
// * * * * * * * * * * * * * * * * * * * * * * * * * * * * * * * * * * * * * //

dimensions      [1 -1 -2 0 0 0 0];

internalField   nonuniform List<scalar> 
256
(
646.532
260.032
229.807
399.777
358.352
292.065
279
335.625
318.447
264.154
254.316
279.765
226.305
221.818
216.501
206.484
153.369
175.688
172.624
141.221
94.0948
128.534
126.814
86.8414
52.6307
82.8455
81.6809
47.6765
32.7271
40.017
38.325
28.718
610.781
290.051
270.533
402.917
383.97
315.549
299.731
353.999
314.971
257.865
247.988
280.187
223.528
207.573
200.313
201.38
147.611
158.496
153.924
132.827
88.2904
113.123
110.487
78.6391
47.9875
71.7019
70.2141
41.737
31.2353
35.9374
33.9912
26.9175
614.044
302.931
285.84
407.15
377.633
324.263
310.904
356.036
312.293
262.319
253.915
282.06
221.866
206.999
200.287
201.38
146.58
155.645
151.101
132.047
87.6758
109.558
106.827
77.6569
47.5406
68.9066
67.269
40.3387
30.7646
35.3112
32.6733
23.8365
620.733
309.253
292.952
410.543
374.699
330.367
318.474
357.957
310.271
267.254
260.154
284.013
220.989
210.24
204.316
202.823
146.608
157.473
153.295
133.147
88.3069
110.368
107.761
78.5925
48.4621
69.2219
67.523
40.8368
31.7406
35.4991
32.2458
22.836
626.288
312.63
296.637
413.035
374.304
334.525
323.416
360.168
309.502
271.196
265.028
286.02
220.641
213.647
208.413
204.524
146.867
160.152
156.382
134.61
89.0293
112.255
109.836
79.8836
49.4208
70.3784
68.7003
41.8518
32.7694
35.899
32.3034
23.0896
630.255
314.56
298.7
414.746
374.777
337.209
326.52
362.041
309.408
273.938
268.379
287.706
220.546
216.236
211.521
205.969
147.032
162.374
158.955
135.833
89.4595
113.95
111.721
80.9296
49.9887
71.4554
69.8464
42.715
33.3663
36.2328
32.5128
23.6436
632.785
315.658
299.856
415.821
375.345
338.806
328.336
363.339
309.539
275.621
270.424
288.88
220.545
217.885
213.506
206.968
147.094
163.835
160.664
136.654
89.6347
115.091
113.011
81.6047
50.227
72.1806
70.6442
43.2733
33.6116
36.4401
32.6993
24.0845
634.018
316.166
300.385
416.341
375.686
339.551
329.176
363.995
309.653
276.415
271.386
289.474
220.559
218.673
214.459
207.47
147.105
164.542
161.497
137.058
89.6804
115.647
113.647
81.9268
50.2929
72.5306
71.038
43.5363
33.6793
36.5349
32.7999
24.3091
)
;

boundaryField
{
    interface
    {
        type            calculated;
        value           nonuniform List<scalar> 
192
(
1005.4
414.005
391.133
257.689
161.797
85.8846
40.448
27.6741
937.971
449.82
387.709
261.175
162.479
87.0076
41.357
28.0299
945.992
434.274
381.054
258.093
161.274
87.1504
41.7108
26.3728
959.079
426.413
375.805
255.128
160.242
87.6561
43.3958
28.2972
969.389
423.789
373.177
253.097
159.378
87.8696
44.6311
30.1507
976.536
423.318
372.145
251.922
158.656
87.7378
45.1486
31.1597
980.996
423.509
371.837
251.304
158.127
87.4622
45.2164
31.5339
983.137
423.72
371.779
251.039
157.847
87.2614
45.1548
31.6158
695.972
326.487
323.733
228.637
159.326
99.9189
57.3755
35.0006
240.172
271.623
272.093
233.908
189.498
140.5
91.6052
44.7187
202.527
258.376
263.567
230.481
187.769
139.528
90.6968
43.2266
497.06
302.907
290.367
213.391
150.761
95.0589
53.4865
30.9612
679.898
370.627
334.509
228.459
144.447
75.0599
31.8442
23.813
678.256
403.776
335.85
229.889
142.247
73.3408
31.2838
24.2408
696.979
399.544
336.119
229.591
141.876
73.4038
30.3232
18.3173
711.771
397.86
336.676
229.832
142.348
74.4221
31.6202
17.554
721.723
398.395
337.925
230.543
143.058
75.4136
33.1515
18.8961
728.096
399.557
339.294
231.358
143.678
76.0939
34.2393
20.3315
731.882
400.567
340.361
232.008
144.106
76.4775
34.8573
21.2707
733.648
401.118
340.927
232.355
144.317
76.6424
35.1249
21.7066
33.1611
32.6327
32.5269
33.5084
34.6255
35.2521
35.5105
35.5716
22.959
24.7408
25.1972
25.2432
25.1788
25.0619
24.9463
24.8765
18.9809
20.4344
19.3443
17.7956
16.6631
16.0279
15.7155
15.5899
29.9295
29.2661
25.82
24.1798
24.0991
24.5022
24.8922
25.1001
)
;
    }
    symmetry
    {
        type            symmetryPlane;
    }
    bottom
    {
        type            calculated;
        value           nonuniform List<scalar> 
32
(
623.407
515.383
500.312
501.577
505.025
507.952
509.914
510.882
207.159
213.896
216.765
217.327
217.404
217.459
217.54
217.598
167.869
195.978
204.624
207.351
208.482
209.113
209.504
209.699
407.05
355.465
344.632
344.021
345.562
347.159
348.298
348.872
)
;
    }
}


// ************************************************************************* //
