/*--------------------------------*- C++ -*----------------------------------*\
| =========                 |                                                 |
| \\      /  F ield         | foam-extend: Open Source CFD                    |
|  \\    /   O peration     | Version:     3.1                                |
|   \\  /    A nd           | Web:         http://www.extend-project.de       |
|    \\/     M anipulation  |                                                 |
\*---------------------------------------------------------------------------*/
FoamFile
{
    version     2.0;
    format      ascii;
    class       volVectorField;
    location    "0.7";
    object      U;
}
// * * * * * * * * * * * * * * * * * * * * * * * * * * * * * * * * * * * * * //

dimensions      [0 1 -1 0 0 0 0];

internalField   nonuniform List<vector> 
256
(
(0.000892724 0.000702467 0.00102158)
(0.00027821 0.000166737 0.000117853)
(0.000274587 -0.000227972 -0.000842315)
(0.000925283 -0.000946408 -0.00203952)
(0.0044223 0.00288812 0.000970359)
(0.00360684 0.000683204 2.88882e-05)
(0.00347702 -0.00122213 -0.00122701)
(0.00394822 -0.00368965 -0.00223988)
(0.0090602 0.00441428 0.000866705)
(0.00820358 0.00100561 -5.00339e-05)
(0.00798026 -0.00214367 -0.0011448)
(0.00829424 -0.00582532 -0.00211776)
(0.0147211 0.005432 0.000622192)
(0.0138991 0.00104253 -0.000108895)
(0.0135864 -0.00310221 -0.000976928)
(0.0136719 -0.0077354 -0.00174543)
(0.0210206 0.00592898 0.000339459)
(0.0202405 0.000840066 -0.000175045)
(0.0198552 -0.00402249 -0.000786958)
(0.0197554 -0.00930054 -0.00132791)
(0.0276159 0.00601384 6.45291e-05)
(0.0268858 0.000471272 -0.00024542)
(0.0264482 -0.00487022 -0.000621899)
(0.0262062 -0.0105446 -0.000948267)
(0.0342209 0.00580673 -0.000156999)
(0.0335378 1.17716e-05 -0.00031005)
(0.0330695 -0.00561247 -0.000493887)
(0.0327384 -0.011493 -0.000652791)
(0.0406537 0.00543379 -0.000295837)
(0.0399777 -0.000471998 -0.000359632)
(0.0394946 -0.00623895 -0.000397267)
(0.0391436 -0.0122114 -0.000461286)
(0.00108924 0.000714214 0.000495765)
(0.000508788 0.000176694 2.5802e-05)
(0.000511494 -0.000186216 -0.000541975)
(0.00109783 -0.00083532 -0.00123811)
(0.00485223 0.002819 0.000536785)
(0.00396396 0.000650323 -6.48122e-05)
(0.00388056 -0.00120061 -0.000874327)
(0.00451157 -0.00363801 -0.00155366)
(0.00954552 0.00435386 0.000501453)
(0.00868943 0.000926948 -0.00012063)
(0.00848434 -0.0022364 -0.000882252)
(0.00882229 -0.00593099 -0.0015557)
(0.0151635 0.00536986 0.000371917)
(0.0143397 0.000954585 -0.000155214)
(0.0140295 -0.00322342 -0.000784884)
(0.0141163 -0.00787928 -0.00134845)
(0.0213633 0.00588261 0.000204432)
(0.0205858 0.00076371 -0.000191608)
(0.0201927 -0.00414064 -0.000657928)
(0.0200713 -0.00944366 -0.00107644)
(0.027843 0.00598435 3.48281e-05)
(0.0271184 0.000413949 -0.000231316)
(0.0266691 -0.00496602 -0.000540894)
(0.026398 -0.0106622 -0.000818682)
(0.034347 0.00578961 -0.00010498)
(0.0336741 -3.00692e-05 -0.000268691)
(0.0331954 -0.00568436 -0.000449704)
(0.0328335 -0.0115824 -0.00061567)
(0.0407226 0.00542436 -0.000195102)
(0.0400565 -0.000504471 -0.000296767)
(0.0395656 -0.00629618 -0.00038881)
(0.0391906 -0.0122845 -0.000487945)
(0.00117481 0.000741581 0.000239338)
(0.000565491 0.000182326 -1.89217e-05)
(0.000569952 -0.000193604 -0.000357658)
(0.00118386 -0.00086281 -0.000765211)
(0.00507042 0.00279793 0.000270832)
(0.0041252 0.000632716 -0.000101114)
(0.00406469 -0.00119646 -0.000605938)
(0.00478853 -0.00364096 -0.00103947)
(0.00982474 0.00429782 0.000257232)
(0.00892804 0.000886831 -0.000147038)
(0.00874055 -0.00225691 -0.000649259)
(0.00914885 -0.00594197 -0.0010946)
(0.0154472 0.00528883 0.000191354)
(0.0145978 0.000898539 -0.000171213)
(0.0142959 -0.0032577 -0.000605495)
(0.0144231 -0.00788793 -0.000997247)
(0.0216142 0.00579644 0.000101848)
(0.0208219 0.000704951 -0.000190633)
(0.0204301 -0.00417857 -0.000530442)
(0.0203278 -0.00945135 -0.000840079)
(0.0280445 0.00590857 7.79847e-06)
(0.0273135 0.000361561 -0.000210499)
(0.0268617 -0.00500104 -0.000455092)
(0.0265943 -0.0106693 -0.000680861)
(0.0345032 0.00573463 -7.23966e-05)
(0.0338303 -7.21908e-05 -0.000230293)
(0.0333472 -0.00571545 -0.00039581)
(0.0329784 -0.0115948 -0.000553345)
(0.0408563 0.00539392 -0.000128243)
(0.0401938 -0.000537256 -0.000248644)
(0.0396966 -0.00632725 -0.000362466)
(0.039306 -0.0123099 -0.000478586)
(0.00120971 0.000757145 0.000112136)
(0.000575699 0.000185488 -3.382e-05)
(0.000580416 -0.000199793 -0.000235994)
(0.001221 -0.000889027 -0.000473639)
(0.00517871 0.00279603 0.00012427)
(0.00419488 0.00062755 -0.000103686)
(0.00414428 -0.00119338 -0.000416131)
(0.00492182 -0.00365228 -0.000686183)
(0.00997746 0.00426969 0.000115005)
(0.00904968 0.000870306 -0.000142342)
(0.0088729 -0.00225514 -0.000466553)
(0.00932981 -0.00593338 -0.000752838)
(0.0156199 0.00523817 8.08703e-05)
(0.0147492 0.000870392 -0.000161175)
(0.0144547 -0.00325954 -0.000453142)
(0.0146168 -0.00786701 -0.000715958)
(0.0217863 0.00573431 3.54286e-05)
(0.020981 0.000670517 -0.000172331)
(0.0205931 -0.00418346 -0.000412678)
(0.0205125 -0.00942654 -0.000632765)
(0.0282039 0.00584799 -1.32171e-05)
(0.0274665 0.000327191 -0.000181926)
(0.0270158 -0.00500804 -0.000367693)
(0.0267584 -0.0106472 -0.000541257)
(0.0346483 0.00568609 -5.67977e-05)
(0.0339735 -0.000102129 -0.000192653)
(0.0334893 -0.00572452 -0.000332307)
(0.0331209 -0.0115812 -0.000466874)
(0.0409947 0.0053615 -9.12766e-05)
(0.0403322 -0.000561901 -0.000206692)
(0.0398313 -0.00634029 -0.000317329)
(0.0394335 -0.0123095 -0.000428284)
(0.00122432 0.000765724 4.99112e-05)
(0.000573958 0.0001875 -3.34758e-05)
(0.000578264 -0.000203723 -0.000153167)
(0.00123676 -0.000906252 -0.000290513)
(0.00523238 0.00280057 4.92845e-05)
(0.00422304 0.000628736 -8.90188e-05)
(0.00417653 -0.00118952 -0.00028015)
(0.0049862 -0.00366087 -0.00044499)
(0.0100612 0.00426121 4.06414e-05)
(0.00911179 0.000867095 -0.000120247)
(0.00894041 -0.00224753 -0.00032528)
(0.00942727 -0.00592557 -0.000504924)
(0.0157248 0.0052152 2.2134e-05)
(0.0148382 0.000860346 -0.000135186)
(0.0145484 -0.00325138 -0.000326258)
(0.0147342 -0.00784728 -0.000497188)
(0.0219022 0.00570133 -2.89151e-07)
(0.0210865 0.000655006 -0.000142327)
(0.0207019 -0.00417681 -0.000306544)
(0.0206375 -0.00940169 -0.000456777)
(0.0283232 0.00581253 -2.42024e-05)
(0.0275798 0.000309499 -0.000147222)
(0.0271307 -0.00500381 -0.000281628)
(0.0268822 -0.0106233 -0.000407671)
(0.0347673 0.00565509 -4.71471e-05)
(0.0340895 -0.000119042 -0.00015365)
(0.0336051 -0.00572317 -0.000262425)
(0.0332388 -0.0115629 -0.000367532)
(0.0411133 0.00533826 -6.87578e-05)
(0.040449 -0.000576947 -0.000165199)
(0.0399457 -0.0063428 -0.000258316)
(0.0395449 -0.0122999 -0.000350995)
(0.00123071 0.000770572 2.05207e-05)
(0.000570129 0.0001888 -2.62535e-05)
(0.000573941 -0.000206091 -9.49045e-05)
(0.00124354 -0.000916759 -0.000171992)
(0.00525917 0.00280653 1.47381e-05)
(0.00423351 0.000632043 -6.63732e-05)
(0.0041886 -0.00118595 -0.000179109)
(0.00501741 -0.00366642 -0.000275792)
(0.0101072 0.00426225 7.19593e-06)
(0.00914336 0.000869675 -8.93921e-05)
(0.00897441 -0.0022399 -0.000213493)
(0.00947922 -0.00592077 -0.000321336)
(0.015788 0.00520867 -3.14822e-06)
(0.0148903 0.000859608 -0.000100488)
(0.0146028 -0.00324213 -0.000219323)
(0.0148033 -0.00783417 -0.000324919)
(0.0219781 0.00568819 -1.39554e-05)
(0.0211547 0.000650649 -0.000105286)
(0.0207719 -0.00416802 -0.000210923)
(0.020718 -0.00938422 -0.000307281)
(0.0284072 0.00579618 -2.51933e-05)
(0.0276589 0.000302824 -0.000108053)
(0.0272107 -0.00499664 -0.000198282)
(0.0269683 -0.0106054 -0.0002829)
(0.0348558 0.00563928 -3.69792e-05)
(0.0341749 -0.000126437 -0.000112238)
(0.0336902 -0.00571821 -0.000188997)
(0.0333259 -0.0115476 -0.00026311)
(0.0412036 0.00532515 -5.0507e-05)
(0.0405365 -0.000584252 -0.000121307)
(0.0400315 -0.00634067 -0.000189982)
(0.0396298 -0.0122895 -0.00025804)
(0.00123356 0.00077323 7.42224e-06)
(0.000567053 0.000189588 -1.632e-05)
(0.000570504 -0.000207419 -5.16119e-05)
(0.00124647 -0.000922683 -9.05959e-05)
(0.00527232 0.00281144 1.93012e-06)
(0.00423698 0.000635147 -4.05029e-05)
(0.00419264 -0.00118337 -9.96716e-05)
(0.00503224 -0.00366971 -0.000150131)
(0.0101317 0.00426602 -3.23962e-06)
(0.00915891 0.000873412 -5.46064e-05)
(0.00899096 -0.00223431 -0.000120931)
(0.0095059 -0.00591829 -0.000178193)
(0.015824 0.00520913 -8.6379e-06)
(0.0149192 0.000862055 -6.14962e-05)
(0.0146328 -0.00323508 -0.00012623)
(0.0148417 -0.00782678 -0.000183452)
(0.022024 0.00568499 -1.34876e-05)
(0.0211954 0.000651097 -6.43881e-05)
(0.0208135 -0.00416095 -0.000123285)
(0.0207657 -0.0093739 -0.000176862)
(0.0284605 0.00579052 -1.83443e-05)
(0.0277086 0.00030161 -6.59321e-05)
(0.0272608 -0.00499045 -0.000117679)
(0.027022 -0.0105943 -0.000166164)
(0.0349137 0.00563288 -2.394e-05)
(0.0342302 -0.000128599 -6.84509e-05)
(0.0337452 -0.00571336 -0.000113859)
(0.0333823 -0.0115374 -0.00015764)
(0.0412635 0.00531916 -3.15491e-05)
(0.0405939 -0.000586915 -7.43421e-05)
(0.0400878 -0.00633759 -0.000115979)
(0.0396859 -0.0122817 -0.000157144)
(0.00123466 0.00077442 1.76277e-06)
(0.000565446 0.000189963 -5.50144e-06)
(0.000568715 -0.000208011 -1.63603e-05)
(0.00124758 -0.000925343 -2.82495e-05)
(0.00527774 0.00281414 -3.89058e-07)
(0.00423791 0.000636924 -1.35732e-05)
(0.00419375 -0.00118204 -3.1982e-05)
(0.00503821 -0.00367125 -4.76282e-05)
(0.0101423 0.00426874 -2.2256e-06)
(0.00916533 0.000875815 -1.83228e-05)
(0.0089977 -0.00223142 -3.91535e-05)
(0.00951721 -0.00591727 -5.70745e-05)
(0.0158404 0.0052107 -3.92058e-06)
(0.0149321 0.000864093 -2.06636e-05)
(0.0146461 -0.00323137 -4.1197e-05)
(0.0148588 -0.00782352 -5.92969e-05)
(0.0220457 0.005685 -5.30692e-06)
(0.0212145 0.000652285 -2.16423e-05)
(0.0208328 -0.00415715 -4.0547e-05)
(0.0207878 -0.00936921 -5.7718e-05)
(0.0284863 0.00578926 -6.65555e-06)
(0.0277326 0.000301966 -2.21544e-05)
(0.0272848 -0.004987 -3.89995e-05)
(0.0270477 -0.0105891 -5.4772e-05)
(0.0349421 0.00563093 -8.31208e-06)
(0.0342573 -0.00012883 -2.30118e-05)
(0.0337721 -0.00571053 -3.80148e-05)
(0.0334098 -0.0115324 -5.24676e-05)
(0.0412931 0.00531696 -1.07899e-05)
(0.0406221 -0.000587548 -2.50615e-05)
(0.0401154 -0.00633557 -3.89729e-05)
(0.0397134 -0.0122777 -5.2712e-05)
)
;

boundaryField
{
    interface
    {
        type            calculated;
        value           nonuniform List<vector> 
192
(
(0.00228698 0.00211058 0.00111282)
(0.00516502 0.00456649 0.00120855)
(0.00988902 0.00671834 0.0011123)
(0.0154368 0.00816903 0.000825658)
(0.0216433 0.00896652 0.00047898)
(0.0281342 0.00919663 0.000136037)
(0.0346552 0.00901269 -0.000139816)
(0.0410443 0.0086094 -0.000305599)
(0.00253382 0.00227505 0.000548566)
(0.00567947 0.0045309 0.000684725)
(0.0103712 0.00664218 0.000674852)
(0.0158787 0.00806569 0.000536276)
(0.0219771 0.00886516 0.000339867)
(0.0283543 0.00911502 0.000132444)
(0.0347768 0.008959 -4.03877e-05)
(0.0411129 0.00859119 -0.000147169)
(0.00270425 0.00237982 0.000265519)
(0.00593931 0.00454199 0.000349663)
(0.0106795 0.00658745 0.000359216)
(0.0161759 0.00796823 0.000301079)
(0.0222294 0.00875148 0.000204396)
(0.0285505 0.00901131 9.56986e-05)
(0.034925 0.0088843 8.31574e-07)
(0.0412352 0.00855808 -6.27912e-05)
(0.00279398 0.00243393 0.000124049)
(0.0060801 0.00455936 0.000164789)
(0.0108606 0.00656787 0.000172138)
(0.0163671 0.00791449 0.000149091)
(0.022411 0.00867935 0.000107023)
(0.0287128 0.00893894 5.65139e-05)
(0.035069 0.00882702 9.16719e-06)
(0.0413693 0.00852463 -2.74272e-05)
(0.00284107 0.00246148 5.49406e-05)
(0.00615631 0.00457534 6.96561e-05)
(0.0109655 0.0065674 7.1905e-05)
(0.0164876 0.00789451 6.31899e-05)
(0.0225369 0.00864552 4.71599e-05)
(0.0288372 0.00890075 2.65118e-05)
(0.0351898 0.0087936 4.71329e-06)
(0.0414873 0.00850156 -1.63046e-05)
(0.0028663 0.00247561 2.24596e-05)
(0.00619769 0.00458776 2.47712e-05)
(0.0110259 0.00657439 2.38894e-05)
(0.0165621 0.00789226 2.06722e-05)
(0.0226208 0.00863487 1.57276e-05)
(0.0289261 0.00888548 8.66391e-06)
(0.0352809 0.00877816 -5.9341e-07)
(0.0415789 0.0084891 -1.26361e-05)
(0.00287954 0.0024827 8.07843e-06)
(0.00621945 0.00459611 6.51018e-06)
(0.0110592 0.00658196 4.90442e-06)
(0.0166054 0.00789619 3.73344e-06)
(0.0226721 0.00863444 2.74337e-06)
(0.028983 0.00888171 9.40881e-07)
(0.035341 0.00877285 -2.60154e-06)
(0.0416404 0.00848383 -8.95371e-06)
(0.00288527 0.00248567 1.91289e-06)
(0.00622885 0.0046003 9.32916e-07)
(0.0110739 0.00658651 2.14866e-07)
(0.0166253 0.00789964 -8.77837e-08)
(0.0226965 0.00863611 -1.46495e-07)
(0.0290107 0.00888169 -4.03988e-07)
(0.0353706 0.00877168 -1.30373e-06)
(0.0416709 0.00848206 -3.3079e-06)
(0.000757988 0.00119497 0.00168332)
(0.004054 0.00283691 0.00112387)
(0.00873183 0.00439138 0.00107026)
(0.0144452 0.00534965 0.000742334)
(0.0208379 0.00582891 0.000406511)
(0.0275261 0.00591347 8.05133e-05)
(0.0342082 0.00572897 -0.000176341)
(0.0406926 0.00540515 -0.000346869)
(-2.06649e-05 0.000238766 0.00018111)
(0.00301672 0.000701129 8.375e-05)
(0.00769791 0.00106443 -1.95168e-05)
(0.0134998 0.00108905 -9.93693e-05)
(0.0199742 0.000864487 -0.000180369)
(0.0267426 0.000475169 -0.00026239)
(0.0334962 5.13777e-06 -0.000334548)
(0.0400086 -0.00046948 -0.000401658)
(-6.52162e-05 -0.000835519 -0.00117729)
(0.00288255 -0.00112176 -0.00125877)
(0.00747742 -0.00200378 -0.00122276)
(0.0132003 -0.00292091 -0.00103711)
(0.0196043 -0.00386766 -0.000836068)
(0.0263192 -0.00475472 -0.000656043)
(0.0330393 -0.00553584 -0.000514474)
(0.0395316 -0.00619264 -0.000395496)
(0.000660942 -0.00226683 -0.00287535)
(0.00358014 -0.00355858 -0.00236125)
(0.00795982 -0.00564762 -0.0023775)
(0.0134286 -0.00745125 -0.00191598)
(0.0196163 -0.00904216 -0.00145069)
(0.0261599 -0.0103383 -0.00101697)
(0.0327596 -0.0113511 -0.000679934)
(0.0392006 -0.0121342 -0.000451739)
(0.00200041 -0.00293948 -0.00215282)
(0.00433045 -0.00556988 -0.00251055)
(0.00863378 -0.00846106 -0.00242247)
(0.0137933 -0.0107233 -0.00198496)
(0.0197272 -0.0125193 -0.00148666)
(0.0260675 -0.013836 -0.00102519)
(0.0325428 -0.0147593 -0.000667329)
(0.0389437 -0.0154166 -0.000444446)
(0.00210169 -0.00307005 -0.00131781)
(0.00499353 -0.00564083 -0.00174533)
(0.00916022 -0.00852765 -0.00177477)
(0.0142487 -0.0108129 -0.0015349)
(0.0200459 -0.0125932 -0.00121794)
(0.026261 -0.0138949 -0.000912713)
(0.0326372 -0.014811 -0.000673097)
(0.0389898 -0.0154814 -0.000526833)
(0.0022219 -0.00326227 -0.000810186)
(0.00529872 -0.00571797 -0.00114636)
(0.00951908 -0.00853769 -0.00122668)
(0.0145791 -0.0107999 -0.00112488)
(0.0203149 -0.0125666 -0.000948724)
(0.0264603 -0.0138695 -0.000766896)
(0.0327776 -0.0148003 -0.000620135)
(0.0390902 -0.0154981 -0.0005341)
(0.00228883 -0.00338337 -0.00049716)
(0.0054568 -0.00577227 -0.000743416)
(0.0097273 -0.00854576 -0.000828549)
(0.0147949 -0.0107767 -0.000796572)
(0.0205134 -0.0125301 -0.000709449)
(0.0266304 -0.0138334 -0.000610122)
(0.0329193 -0.0147752 -0.000527765)
(0.0392105 -0.0154924 -0.000483689)
(0.00232333 -0.00345317 -0.0003025)
(0.00553911 -0.00580679 -0.000475057)
(0.00984366 -0.00855389 -0.000547368)
(0.0149279 -0.0107629 -0.000546306)
(0.0206488 -0.0125046 -0.000508003)
(0.0267593 -0.0138056 -0.000458043)
(0.0330378 -0.0147523 -0.000415668)
(0.0393181 -0.0154799 -0.000396873)
(0.00234101 -0.00349249 -0.000177995)
(0.00558206 -0.00582767 -0.000291313)
(0.00990774 -0.00856099 -0.000344556)
(0.0150069 -0.010757 -0.000353675)
(0.0207361 -0.0124905 -0.000339446)
(0.0268489 -0.0137882 -0.000316596)
(0.0331256 -0.014736 -0.000296961)
(0.0394015 -0.0154683 -0.000291309)
(0.00234981 -0.00351364 -9.33804e-05)
(0.00560381 -0.00583948 -0.000157515)
(0.00994152 -0.0085661 -0.000189754)
(0.015051 -0.0107552 -0.00019848)
(0.0207878 -0.0124837 -0.000194479)
(0.0269048 -0.0137787 -0.000185367)
(0.0331826 -0.014726 -0.000177509)
(0.0394572 -0.0154602 -0.000177052)
(0.00235346 -0.0035229 -2.90612e-05)
(0.00561295 -0.00584483 -4.98104e-05)
(0.00995609 -0.00856873 -6.05781e-05)
(0.0150707 -0.0107549 -6.39674e-05)
(0.0208117 -0.0124811 -6.33226e-05)
(0.0269314 -0.0137746 -6.09981e-05)
(0.0332104 -0.0147214 -5.89952e-05)
(0.0394846 -0.015456 -5.93191e-05)
(0.0438084 0.00523436 -0.000310434)
(0.0438825 0.00522586 -0.000203342)
(0.0440204 0.00520643 -0.000136974)
(0.0441607 0.00518066 -9.97849e-05)
(0.0442802 0.00516104 -7.76039e-05)
(0.0443711 0.00514912 -5.84629e-05)
(0.0444315 0.00514322 -3.70934e-05)
(0.0444613 0.00514077 -1.27718e-05)
(0.0429845 -0.00066337 -0.000352696)
(0.0430784 -0.000696665 -0.000296704)
(0.0432215 -0.000728678 -0.000253866)
(0.0433607 -0.000752081 -0.000214675)
(0.0434759 -0.000766373 -0.000174098)
(0.0435616 -0.000773528 -0.000129228)
(0.0436177 -0.000776327 -7.97468e-05)
(0.0436454 -0.000777109 -2.69714e-05)
(0.0424882 -0.00651583 -0.000364825)
(0.0425738 -0.00657033 -0.000380598)
(0.0427083 -0.00660605 -0.000366314)
(0.0428417 -0.00662325 -0.000327639)
(0.0429529 -0.006629 -0.000269962)
(0.0430358 -0.00662903 -0.000199942)
(0.0430902 -0.00662724 -0.000122523)
(0.0431169 -0.00662581 -4.12422e-05)
(0.0422693 -0.0125263 -0.000411369)
(0.0423205 -0.0125938 -0.000476163)
(0.0424334 -0.0126325 -0.000483589)
(0.0425577 -0.0126415 -0.000442013)
(0.0426659 -0.0126386 -0.000365783)
(0.0427488 -0.012632 -0.000270171)
(0.0428037 -0.0126263 -0.000164862)
(0.0428308 -0.012623 -5.53451e-05)
)
;
    }
    symmetry
    {
        type            symmetryPlane;
    }
    bottom
    {
        type            calculated;
        value           uniform (0 0 0);
    }
}


// ************************************************************************* //
