/*--------------------------------*- C++ -*----------------------------------*\
| =========                 |                                                 |
| \\      /  F ield         | foam-extend: Open Source CFD                    |
|  \\    /   O peration     | Version:     3.1                                |
|   \\  /    A nd           | Web:         http://www.extend-project.de       |
|    \\/     M anipulation  |                                                 |
\*---------------------------------------------------------------------------*/
FoamFile
{
    version     2.0;
    format      ascii;
    class       volVectorField;
    location    "3.2";
    object      D;
}
// * * * * * * * * * * * * * * * * * * * * * * * * * * * * * * * * * * * * * //

dimensions      [0 1 0 0 0 0 0];

internalField   nonuniform List<vector> 
256
(
(0.000266525 0.000176788 0.000300672)
(0.000114422 3.43001e-05 9.00337e-05)
(0.000101484 -5.18706e-05 -0.000107585)
(0.000225299 -0.000195044 -0.000331318)
(0.00111397 0.000726213 0.000243334)
(0.00092468 0.000194837 8.59138e-05)
(0.000888693 -0.000227782 -0.000149202)
(0.000999628 -0.000756602 -0.000332188)
(0.00218608 0.00112169 0.00016479)
(0.00199594 0.000327277 3.72799e-05)
(0.00194674 -0.000371393 -0.000141531)
(0.00203368 -0.00116905 -0.00029654)
(0.0034618 0.00142705 5.23348e-05)
(0.00328984 0.000423209 -1.37673e-05)
(0.00323191 -0.000494495 -0.000126936)
(0.00328209 -0.00150361 -0.000222595)
(0.00487008 0.00163365 -6.18569e-05)
(0.00471484 0.000481563 -6.4826e-05)
(0.00465096 -0.000594796 -0.000109278)
(0.00467115 -0.00175061 -0.000142346)
(0.00634499 0.0017605 -0.000166055)
(0.0062049 0.000509359 -0.000112259)
(0.00613718 -0.000675322 -9.4799e-05)
(0.00613393 -0.00192519 -6.91211e-05)
(0.00783433 0.00182643 -0.000252397)
(0.00770423 0.000514055 -0.000156542)
(0.0076332 -0.000738113 -8.77529e-05)
(0.00761504 -0.00204084 -1.3602e-05)
(0.00931175 0.00185053 -0.000321697)
(0.00917357 0.000505771 -0.000199924)
(0.00909425 -0.000784682 -9.05433e-05)
(0.00907347 -0.00211436 1.35979e-05)
(0.00029898 0.00017519 0.000149093)
(0.000150708 3.57511e-05 4.64411e-05)
(0.000137585 -4.68576e-05 -6.24131e-05)
(0.00025248 -0.000183644 -0.000177689)
(0.00118392 0.000722268 0.000135253)
(0.000971298 0.000198195 4.19342e-05)
(0.000937516 -0.000217315 -9.80989e-05)
(0.00107349 -0.000739894 -0.000209339)
(0.00223648 0.00113559 8.62255e-05)
(0.00204658 0.000338382 1.00051e-05)
(0.00199992 -0.000367545 -0.00010266)
(0.00208871 -0.00116851 -0.000197611)
(0.00347962 0.00144655 9.49705e-06)
(0.00331 0.000438325 -2.79373e-05)
(0.00325464 -0.00049022 -9.74605e-05)
(0.00330417 -0.00150408 -0.000154709)
(0.00484639 0.00165732 -7.35788e-05)
(0.0046963 0.000500232 -6.7157e-05)
(0.0046347 -0.000587902 -8.87911e-05)
(0.00465085 -0.00174829 -0.00010213)
(0.0062796 0.00178563 -0.000151748)
(0.0061457 0.000530448 -0.000104755)
(0.00608005 -0.000663671 -8.18457e-05)
(0.00607105 -0.00191604 -5.29494e-05)
(0.00773144 0.00185117 -0.000218097)
(0.00760895 0.000536189 -0.000140222)
(0.00754021 -0.000720777 -8.09897e-05)
(0.00751475 -0.00202272 -1.70256e-05)
(0.00918098 0.00187361 -0.000270501)
(0.00905077 0.00052741 -0.0001736)
(0.00897405 -0.00076244 -9.00464e-05)
(0.00894619 -0.0020877 -4.89371e-06)
(0.00031364 0.00018063 7.17986e-05)
(0.000156286 3.82367e-05 2.15469e-05)
(0.000141219 -4.7258e-05 -3.65823e-05)
(0.000260608 -0.000187602 -9.48237e-05)
(0.0012147 0.000716532 6.47736e-05)
(0.000983564 0.000198687 1.42232e-05)
(0.000947561 -0.000209867 -6.31495e-05)
(0.00109713 -0.000727927 -0.000124691)
(0.00226142 0.00112797 3.22443e-05)
(0.0020575 0.000341166 -8.54552e-06)
(0.00200849 -0.000357105 -7.18701e-05)
(0.00210671 -0.00114925 -0.00012339)
(0.00348646 0.0014389 -1.95372e-05)
(0.00330731 0.000443555 -3.647e-05)
(0.00324943 -0.000476338 -7.27423e-05)
(0.00330361 -0.001478 -0.000100507)
(0.00482893 0.00165257 -7.76455e-05)
(0.00467222 0.000508643 -6.59166e-05)
(0.00460791 -0.000570566 -7.0548e-05)
(0.0046254 -0.0017173 -6.91857e-05)
(0.00623557 0.00178552 -0.000134067)
(0.00609731 0.00054229 -9.48902e-05)
(0.00602891 -0.000642871 -6.92527e-05)
(0.00601868 -0.0018811 -3.90585e-05)
(0.00766228 0.00185708 -0.000183211)
(0.0075375 0.00055123 -0.000122726)
(0.00746615 -0.000696874 -7.27508e-05)
(0.00743726 -0.00198495 -1.84072e-05)
(0.00909253 0.00188654 -0.00022197)
(0.00896183 0.000545214 -0.000148901)
(0.00888198 -0.000736141 -8.51059e-05)
(0.00884762 -0.0020482 -1.71523e-05)
(0.000318685 0.000183688 3.2344e-05)
(0.000154809 3.94818e-05 8.55434e-06)
(0.000138096 -4.74143e-05 -2.1315e-05)
(0.000260744 -0.000189641 -4.94765e-05)
(0.00122451 0.000712549 2.49213e-05)
(0.000981879 0.000198945 2.23803e-08)
(0.000943192 -0.000204124 -4.04861e-05)
(0.00109933 -0.000718141 -7.20288e-05)
(0.00226671 0.00111922 1.44955e-06)
(0.00205234 0.000342263 -1.7059e-05)
(0.00200047 -0.000346527 -4.94741e-05)
(0.00210427 -0.00112914 -7.40649e-05)
(0.00348099 0.00142845 -3.41631e-05)
(0.00329362 0.000446358 -3.76723e-05)
(0.00323283 -0.000461417 -5.30522e-05)
(0.00329044 -0.00144977 -6.23541e-05)
(0.00480873 0.00164341 -7.45852e-05)
(0.00464581 0.000514013 -5.95891e-05)
(0.00457856 -0.000551872 -5.43769e-05)
(0.00459747 -0.00168337 -4.46299e-05)
(0.00619859 0.00178 -0.000114754)
(0.00605586 0.000550822 -8.1588e-05)
(0.00598458 -0.000621037 -5.63184e-05)
(0.00597397 -0.0018435 -2.7332e-05)
(0.00760866 0.00185687 -0.000150654)
(0.00748093 0.00056308 -0.00010318)
(0.00740671 -0.000672593 -6.19852e-05)
(0.00737575 -0.00194535 -1.67779e-05)
(0.00902524 0.00189235 -0.000179184)
(0.0088924 0.000560362 -0.000123736)
(0.0088088 -0.000709989 -7.48855e-05)
(0.00877005 -0.00200769 -2.13008e-05)
(0.000320024 0.000185034 1.29245e-05)
(0.00015222 4.01505e-05 2.37303e-06)
(0.000134341 -4.73193e-05 -1.22046e-05)
(0.000258553 -0.000190087 -2.49481e-05)
(0.00122536 0.000709807 5.04026e-06)
(0.000975741 0.000199438 -5.74288e-06)
(0.000934897 -0.000199604 -2.55931e-05)
(0.00109409 -0.000710019 -4.03788e-05)
(0.00226305 0.00111307 -1.23094e-05)
(0.00204184 0.000343458 -1.85328e-05)
(0.00198763 -0.000337638 -3.32473e-05)
(0.00209425 -0.00111275 -4.29426e-05)
(0.00347 0.00142075 -3.69324e-05)
(0.0032768 0.00044889 -3.35273e-05)
(0.00321371 -0.000448538 -3.74256e-05)
(0.00327325 -0.00142637 -3.71371e-05)
(0.00478826 0.00163624 -6.48039e-05)
(0.00462067 0.000518529 -4.94864e-05)
(0.00455119 -0.000535578 -4.01334e-05)
(0.00457097 -0.00165475 -2.74644e-05)
(0.00616722 0.00177519 -9.29033e-05)
(0.00602093 0.000557788 -6.57384e-05)
(0.00594751 -0.000601994 -4.33622e-05)
(0.00593674 -0.00181142 -1.80855e-05)
(0.00756597 0.00185566 -0.000118537)
(0.00743567 0.000572634 -8.19705e-05)
(0.00735929 -0.000651474 -4.94044e-05)
(0.00732707 -0.00191123 -1.34875e-05)
(0.00897221 0.00189523 -0.000139018)
(0.00883733 0.000572508 -9.75749e-05)
(0.00875085 -0.000687256 -6.09177e-05)
(0.00870928 -0.0019725 -2.00376e-05)
(0.000320114 0.000185562 4.09727e-06)
(0.000150049 4.05289e-05 -1.02873e-07)
(0.000131384 -4.7125e-05 -6.72527e-06)
(0.000256194 -0.000189854 -1.1943e-05)
(0.00122323 0.000708015 -2.85612e-06)
(0.000969461 0.000200041 -6.6256e-06)
(0.000927086 -0.000196222 -1.55056e-05)
(0.00108758 -0.00070377 -2.16272e-05)
(0.00225686 0.00110931 -1.50705e-05)
(0.00203138 0.000344769 -1.56334e-05)
(0.00197552 -0.000330902 -2.11861e-05)
(0.00208346 -0.00110066 -2.37099e-05)
(0.00345856 0.00141605 -3.14264e-05)
(0.00326155 0.000451283 -2.59265e-05)
(0.00319685 -0.000438684 -2.47797e-05)
(0.00325735 -0.00140913 -2.09542e-05)
(0.00477051 0.00163184 -4.97995e-05)
(0.00459974 0.000522389 -3.68647e-05)
(0.00452874 -0.000523037 -2.75017e-05)
(0.00454898 -0.00163346 -1.5905e-05)
(0.00614228 0.0017722 -6.84768e-05)
(0.00599347 0.000563377 -4.81111e-05)
(0.00591861 -0.000587284 -3.0652e-05)
(0.00590774 -0.00178726 -1.11354e-05)
(0.00753329 0.00185485 -8.57585e-05)
(0.00740107 0.000580013 -5.94787e-05)
(0.00732325 -0.000635127 -3.57776e-05)
(0.00729029 -0.00188523 -9.59628e-06)
(0.00893194 0.00189691 -9.96241e-05)
(0.00879538 0.000581687 -7.04745e-05)
(0.00870699 -0.000669617 -4.46762e-05)
(0.00866378 -0.00194539 -1.56764e-05)
(0.000319907 0.00018573 7.51289e-07)
(0.000148615 4.07382e-05 -6.55993e-07)
(0.00012946 -4.69422e-05 -3.3277e-06)
(0.00025443 -0.000189476 -5.15586e-06)
(0.00122089 0.000706932 -3.96597e-06)
(0.000964798 0.000200555 -4.83673e-06)
(0.000921451 -0.000193968 -8.29119e-06)
(0.00108243 -0.00069955 -1.03972e-05)
(0.0022515 0.00110723 -1.12879e-05)
(0.00202354 0.000345866 -1.02199e-05)
(0.00196662 -0.000326412 -1.17535e-05)
(0.00207514 -0.00109275 -1.16884e-05)
(0.0034497 0.00141351 -2.07132e-05)
(0.0032504 0.000453164 -1.62656e-05)
(0.00318469 -0.000432101 -1.41197e-05)
(0.00324563 -0.0013979 -1.04986e-05)
(0.00475765 0.00162952 -3.12269e-05)
(0.00458493 0.000525247 -2.26791e-05)
(0.00451299 -0.000514635 -1.60383e-05)
(0.00453343 -0.00161956 -8.12026e-06)
(0.00612493 0.00177066 -4.19609e-05)
(0.00597453 0.000567332 -2.93106e-05)
(0.0058988 -0.000577405 -1.82426e-05)
(0.00588785 -0.00177136 -5.95456e-06)
(0.00751101 0.00185451 -5.19781e-05)
(0.00737753 0.000585074 -3.60602e-05)
(0.00729885 -0.000624126 -2.16196e-05)
(0.00726549 -0.00186796 -5.66916e-06)
(0.00890461 0.00189794 -6.00333e-05)
(0.00876692 0.000587856 -4.26066e-05)
(0.00867738 -0.000657719 -2.7194e-05)
(0.00863328 -0.00192724 -9.8114e-06)
(0.000319741 0.000185767 -2.49185e-09)
(0.000147914 4.08323e-05 -3.0619e-07)
(0.000128526 -4.68361e-05 -9.99581e-07)
(0.000253514 -0.000189231 -1.41455e-06)
(0.00121949 0.000706421 -1.66521e-06)
(0.000962372 0.000200844 -1.74162e-06)
(0.000918557 -0.000192841 -2.604e-06)
(0.00107967 -0.000697428 -3.06461e-06)
(0.00224851 0.0011063 -4.10979e-06)
(0.00201942 0.000346481 -3.53478e-06)
(0.00196199 -0.000324171 -3.76445e-06)
(0.00207072 -0.00108884 -3.49704e-06)
(0.00344494 0.00141243 -7.19621e-06)
(0.00324458 0.000454194 -5.53175e-06)
(0.00317838 -0.000428815 -4.58518e-06)
(0.00323949 -0.00139239 -3.16947e-06)
(0.00475091 0.00162854 -1.06258e-05)
(0.00457728 0.000526767 -7.64812e-06)
(0.0045049 -0.000510438 -5.26948e-06)
(0.00452541 -0.00161271 -2.47645e-06)
(0.00611601 0.00177004 -1.41337e-05)
(0.00596486 0.000569384 -9.84208e-06)
(0.00588872 -0.000572463 -6.05417e-06)
(0.00587773 -0.0017635 -1.86297e-06)
(0.00749965 0.00185439 -1.74206e-05)
(0.00736559 0.000587654 -1.20818e-05)
(0.00728651 -0.000618612 -7.22755e-06)
(0.00725297 -0.00185938 -1.86778e-06)
(0.00889071 0.00189838 -2.00659e-05)
(0.00875248 0.000590971 -1.42556e-05)
(0.00866242 -0.000651739 -9.12123e-06)
(0.00861794 -0.00191818 -3.32407e-06)
)
;

boundaryField
{
    interface
    {
        type            tractionDisplacement;
        gradient        nonuniform List<vector> 
192
(
(0.0251021 0.0346818 0.00067701)
(0.0120307 0.0344706 0.00156556)
(0.0133738 0.0454015 0.000396812)
(0.0110195 0.0516638 -0.00157741)
(0.00940618 0.0561403 -0.00363618)
(0.00790298 0.0583368 -0.00558021)
(0.00705679 0.0591028 -0.00714501)
(0.00661315 0.0600381 -0.00800926)
(0.0255796 0.0368461 0.000472323)
(0.0139059 0.0343979 0.00121165)
(0.0135539 0.0439773 0.000656901)
(0.0113913 0.0500567 -0.000515812)
(0.00966379 0.0544158 -0.00184461)
(0.00821787 0.0568062 -0.0031924)
(0.00739911 0.0579337 -0.00436156)
(0.00692294 0.0595882 -0.0051005)
(0.0265834 0.038157 0.000106846)
(0.0145134 0.0344667 0.000349261)
(0.0139964 0.0432323 4.27492e-05)
(0.0116075 0.0490663 -0.000599845)
(0.0096924 0.0532935 -0.00143778)
(0.00813508 0.0557446 -0.00232315)
(0.00726149 0.05706 -0.00313643)
(0.00662926 0.0591489 -0.00370917)
(0.027211 0.0387501 -6.72105e-05)
(0.0149943 0.0344355 -8.00995e-05)
(0.0144596 0.0428507 -0.000319856)
(0.0119467 0.0484489 -0.000720554)
(0.00990442 0.0525745 -0.00124286)
(0.00824671 0.0550276 -0.00181557)
(0.00730838 0.0564347 -0.00237032)
(0.00658277 0.0587621 -0.00280267)
(0.0275354 0.0389776 -0.000123094)
(0.0153088 0.0343513 -0.000239168)
(0.0147899 0.0425971 -0.000442788)
(0.0122223 0.048063 -0.000717614)
(0.0101091 0.0521165 -0.00105662)
(0.00838386 0.0545519 -0.00143299)
(0.00739715 0.0559935 -0.00181553)
(0.00659917 0.0584421 -0.00214114)
(0.0276906 0.0390407 -0.000114908)
(0.0154997 0.034253 -0.000241466)
(0.0150043 0.0424142 -0.000399644)
(0.0124155 0.0478127 -0.000588134)
(0.0102659 0.0518228 -0.000807645)
(0.00850223 0.0542387 -0.001051)
(0.00748629 0.0556862 -0.00130522)
(0.00664925 0.0581938 -0.00153263)
(0.0277586 0.0390437 -7.6704e-05)
(0.0156047 0.0341722 -0.000166618)
(0.0151287 0.042291 -0.000266757)
(0.0125337 0.047657 -0.000379146)
(0.0103658 0.0516438 -0.000505167)
(0.00858244 0.0540453 -0.000644266)
(0.00755061 0.0554899 -0.000791473)
(0.00669292 0.0580249 -0.000926602)
(0.0277827 0.0390356 -2.64666e-05)
(0.0156499 0.0341279 -5.84318e-05)
(0.0151843 0.0422287 -9.26322e-05)
(0.0125878 0.0475814 -0.00013013)
(0.0104128 0.0515581 -0.000171513)
(0.00862118 0.0539526 -0.000217045)
(0.00758171 0.0553944 -0.000265458)
(0.00671414 0.0579374 -0.0003103)
(-0.00190923 0.0122048 0.0134177)
(-0.00361788 -0.00390121 0.00199106)
(-0.0015741 -0.00344532 0.0032788)
(0.000611257 -0.00468973 0.00149995)
(0.00317993 -0.00456719 0.000482447)
(0.0055155 -0.00410758 -0.000504382)
(0.00739207 -0.00344658 -0.00113795)
(0.00877861 -0.0023548 -0.00193023)
(-0.0047307 0.00451184 0.00293357)
(-0.00838767 -0.00157118 0.000584887)
(-0.00582719 -0.00135567 0.000375136)
(-0.0031654 -0.00177806 -0.000194944)
(-0.000196789 -0.00184095 -0.000567475)
(0.00247699 -0.0018483 -0.000893192)
(0.00473269 -0.00186565 -0.00114263)
(0.00660249 -0.00162317 -0.00167214)
(-0.00508168 -0.00622817 -0.00374043)
(-0.00886003 0.000862766 -0.000894438)
(-0.00644233 0.000816706 -0.00120364)
(-0.0037772 0.00121741 -0.000956504)
(-0.000830769 0.00098554 -0.000795414)
(0.00186875 0.000565501 -0.000599186)
(0.00419966 3.17855e-06 -0.000427373)
(0.00604824 -0.000612899 -2.54135e-05)
(-0.00319887 -0.0155371 -0.0133201)
(-0.00522344 0.00252207 -0.00241689)
(-0.00373321 0.00250971 -0.00403903)
(-0.00166648 0.00381808 -0.00255735)
(0.000777883 0.00352113 -0.00173219)
(0.0030993 0.0028204 -0.000865271)
(0.00508447 0.00173892 -0.000200552)
(0.00651709 0.000171835 0.000547076)
(0.0208397 -0.0331989 -0.00152581)
(0.00848208 -0.0339177 -0.00331186)
(0.00831019 -0.045921 -0.00281909)
(0.00509563 -0.0523421 -0.0010942)
(0.00283355 -0.0567138 0.000887585)
(0.000987933 -0.0585807 0.00291968)
(-0.000104386 -0.0587343 0.00471496)
(-0.00032322 -0.0579676 0.005978)
(0.0204699 -0.0357579 -0.000854279)
(0.0100525 -0.0345463 -0.00185834)
(0.00821883 -0.0446894 -0.00154972)
(0.00516483 -0.0508431 -0.000432754)
(0.00277476 -0.0549814 0.000917931)
(0.000930423 -0.056936 0.00234791)
(-0.000207103 -0.0573426 0.0036478)
(-0.000384069 -0.0570521 0.00470109)
(0.0211307 -0.0369743 -0.000339736)
(0.0105968 -0.0348011 -0.000665029)
(0.00869507 -0.0440068 -0.00044519)
(0.0054692 -0.0498634 0.000185433)
(0.00290413 -0.0538105 0.00105155)
(0.00092341 -0.0557689 0.00199683)
(-0.000331992 -0.0562885 0.00291536)
(-0.000695284 -0.0561413 0.00374597)
(0.0215055 -0.037352 -8.06324e-05)
(0.0109823 -0.0347859 -8.67604e-05)
(0.00907013 -0.0436444 0.000128775)
(0.00574715 -0.0492473 0.000537122)
(0.00305781 -0.0530592 0.00108424)
(0.00096317 -0.0549753 0.00170037)
(-0.000400793 -0.055508 0.00233146)
(-0.00087746 -0.0553757 0.00294851)
(0.0216464 -0.0373501 2.48477e-05)
(0.011213 -0.0346665 0.00013816)
(0.00930174 -0.0433804 0.000336777)
(0.00593074 -0.0488537 0.00062272)
(0.00317025 -0.0525757 0.000980347)
(0.000998855 -0.0544423 0.00138521)
(-0.000443342 -0.0549495 0.00181507)
(-0.000990954 -0.054781 0.00226106)
(0.0216731 -0.0372227 5.1936e-05)
(0.0113375 -0.0345265 0.000179831)
(0.00943216 -0.0431784 0.000338376)
(0.00603869 -0.0485921 0.000535956)
(0.00323951 -0.0522618 0.000767956)
(0.00102343 -0.0540887 0.00102791)
(-0.000466896 -0.0545636 0.00130889)
(-0.00104947 -0.0543495 0.00160991)
(0.0216597 -0.0370939 4.18785e-05)
(0.0113982 -0.0344135 0.000133418)
(0.00949925 -0.0430385 0.000234727)
(0.00609651 -0.0484264 0.00035263)
(0.0032776 -0.0520688 0.000485601)
(0.0010376 -0.05387 0.000632772)
(-0.000478815 -0.0543197 0.000793142)
(-0.00107739 -0.0540696 0.00096751)
(0.0216449 -0.037019 1.54993e-05)
(0.0114223 -0.034352 4.81342e-05)
(0.00952725 -0.0429666 8.28621e-05)
(0.00612141 -0.0483452 0.000122201)
(0.00329425 -0.0519759 0.000165745)
(0.00104401 -0.0537647 0.00021361)
(-0.000483495 -0.0542013 0.000265964)
(-0.00108834 -0.0539319 0.000323114)
(0.0599546 0.000524609 -0.00168804)
(0.0596974 0.000336864 -0.000935594)
(0.0594352 0.00071807 -0.00070042)
(0.0591439 0.000950497 -0.000449098)
(0.0588609 0.0011299 -0.000303582)
(0.05863 0.00123889 -0.000199364)
(0.0584688 0.0013005 -0.000115514)
(0.0583845 0.0013242 -3.79041e-05)
(0.0553124 0.000578745 -0.00107946)
(0.055132 0.000447372 -0.000786481)
(0.0548578 0.000576885 -0.000722642)
(0.0545236 0.000719911 -0.000592176)
(0.0541744 0.000847909 -0.000462499)
(0.0538824 0.000940028 -0.000330177)
(0.0536789 0.000998667 -0.000197836)
(0.053577 0.00102783 -6.56815e-05)
(0.0545162 -0.00158703 -0.000544325)
(0.054235 -0.00138644 -0.000848848)
(0.053779 -0.00130422 -0.000951346)
(0.053306 -0.00122397 -0.000907299)
(0.052871 -0.00114998 -0.000756268)
(0.0525244 -0.00108839 -0.00055631)
(0.0522886 -0.00104458 -0.000337136)
(0.0521701 -0.00102095 -0.000112569)
(0.0570031 -0.00230632 -0.000280906)
(0.0563618 -0.00196125 -0.00122256)
(0.055605 -0.0020228 -0.00143622)
(0.054926 -0.00203574 -0.00138565)
(0.0543674 -0.00202814 -0.00115399)
(0.05395 -0.00200125 -0.000847005)
(0.0536749 -0.00197422 -0.00051237)
(0.0535379 -0.00195787 -0.00017108)
)
;
        traction        nonuniform List<vector> 
192
(
(21.8792 -0.706576 -2.33412)
(21.9869 -0.795928 -4.0273)
(21.9062 -1.10002 -4.80651)
(22.0998 -1.16254 -5.22997)
(22.571 -0.961706 -5.45381)
(23.2033 -0.400965 -5.485)
(23.7552 0.722015 -5.2573)
(22.7527 2.55521 -4.57549)
(24.6974 -1.03932 -1.67861)
(25.1404 -1.14989 -2.91277)
(25.8105 -1.50431 -3.47887)
(26.7021 -1.56074 -3.77544)
(27.6744 -1.28279 -3.91189)
(28.4826 -0.546984 -3.89046)
(28.5435 0.914891 -3.67261)
(25.3139 3.17535 -3.16332)
(26.5255 -1.19422 -1.20147)
(26.9278 -1.29439 -2.07607)
(27.743 -1.66673 -2.44847)
(28.8066 -1.7104 -2.62562)
(29.8923 -1.37309 -2.69379)
(30.6448 -0.519161 -2.65907)
(30.3003 1.13452 -2.50814)
(25.9386 3.56525 -2.1947)
(27.8415 -1.27193 -0.876637)
(28.1788 -1.35679 -1.51661)
(29.0076 -1.73827 -1.77679)
(30.1007 -1.76952 -1.89111)
(31.2199 -1.39195 -1.93021)
(31.8801 -0.45942 -1.90233)
(31.2578 1.31027 -1.80594)
(26.2195 3.82712 -1.60476)
(28.792 -1.31516 -0.62979)
(29.0873 -1.38561 -1.09307)
(29.9022 -1.7701 -1.27731)
(30.9887 -1.79213 -1.35454)
(32.1115 -1.38807 -1.37888)
(32.6965 -0.404945 -1.36127)
(31.8899 1.43972 -1.30236)
(26.4011 4.01042 -1.17)
(29.4588 -1.34012 -0.426434)
(29.7278 -1.39907 -0.742432)
(30.5272 -1.78409 -0.867122)
(31.6034 -1.79955 -0.918539)
(32.714 -1.3783 -0.933246)
(33.2493 -0.363585 -0.923793)
(32.3239 1.5302 -0.88914)
(26.5335 4.1361 -0.803925)
(29.8859 -1.35494 -0.245745)
(30.1415 -1.40592 -0.429383)
(30.9313 -1.79059 -0.501304)
(32.0066 -1.8013 -0.530822)
(33.0892 -1.36885 -0.538687)
(33.6012 -0.336249 -0.534211)
(32.6047 1.58823 -0.514406)
(26.6286 4.21318 -0.463204)
(30.0853 -1.36103 -0.0794878)
(30.3344 -1.40748 -0.139303)
(31.1157 -1.79144 -0.162452)
(32.1866 -1.80029 -0.171847)
(33.2582 -1.36278 -0.174486)
(33.7584 -0.319825 -0.173058)
(32.7161 1.62216 -0.165892)
(26.6329 4.24658 -0.147409)
(2.74961 0.539594 9.93375)
(4.75363 0.97987 6.61107)
(5.71642 0.939962 3.45634)
(6.36002 0.760236 1.09677)
(6.88829 0.646294 -0.458307)
(7.37955 0.702889 -1.25643)
(7.95464 0.945942 -1.30456)
(9.02927 1.218 -0.512669)
(1.79813 0.488203 8.86697)
(3.27196 0.949231 7.50341)
(3.85037 1.07974 5.66236)
(4.14866 0.939657 4.14136)
(4.38308 0.722356 3.12645)
(4.66405 0.556543 2.61072)
(5.15538 0.483642 2.51632)
(6.45721 0.368493 2.52129)
(1.40087 0.398281 8.1257)
(2.74313 0.74807 7.66327)
(3.30219 0.962013 6.53521)
(3.55154 0.877529 5.4833)
(3.71426 0.65509 4.78446)
(3.92671 0.42241 4.44982)
(4.36407 0.232828 4.42099)
(5.61604 0.017441 4.42945)
(1.31806 0.391899 7.1435)
(2.72081 0.656845 6.9723)
(3.39039 0.885889 6.07296)
(3.69788 0.819125 5.18818)
(3.87746 0.599559 4.59057)
(4.08578 0.339985 4.27398)
(4.49819 0.0662448 4.16555)
(5.65361 -0.30081 4.18926)
(-4.31979 0.421299 0.313274)
(-3.33157 0.716557 0.568496)
(-2.2584 0.913802 0.59618)
(-1.42952 0.884167 0.575802)
(-0.802747 0.730966 0.612433)
(-0.191239 0.529369 0.745168)
(0.85267 0.196361 0.985864)
(3.79786 -1.1209 1.29781)
(-5.08093 0.300621 -0.0758497)
(-4.89935 0.488815 -0.108425)
(-4.51512 0.682886 -0.175288)
(-4.09197 0.739653 -0.223156)
(-3.68018 0.709096 -0.206415)
(-3.17182 0.643317 -0.116951)
(-2.15302 0.475314 0.0281369)
(1.04754 -0.69723 0.216421)
(-5.51713 0.252773 -0.144209)
(-5.53783 0.378253 -0.215244)
(-5.35239 0.563793 -0.249167)
(-5.05973 0.668802 -0.254126)
(-4.69021 0.715661 -0.213528)
(-4.1535 0.734559 -0.130086)
(-3.06864 0.654127 -0.0295358)
(0.0250176 -0.353458 0.043437)
(-5.83029 0.239192 -0.135883)
(-5.90574 0.331834 -0.201836)
(-5.80006 0.513985 -0.212755)
(-5.55756 0.651818 -0.193328)
(-5.18545 0.754378 -0.143067)
(-4.59618 0.83416 -0.0710867)
(-3.42394 0.80149 -0.00340826)
(-0.424321 -0.102769 0.0164181)
(-6.06047 0.237073 -0.105979)
(-6.15302 0.315759 -0.156301)
(-6.08017 0.500604 -0.154666)
(-5.85425 0.662677 -0.127069)
(-5.46763 0.802927 -0.0804585)
(-4.83977 0.920477 -0.0268282)
(-3.62878 0.917876 0.0104147)
(-0.697744 0.0793353 0.00416263)
(-6.21648 0.238876 -0.0715657)
(-6.31227 0.313763 -0.104168)
(-6.24993 0.504093 -0.0974086)
(-6.02554 0.683173 -0.0718928)
(-5.62341 0.847061 -0.0360568)
(-4.96731 0.985891 -0.0007354)
(-3.74773 0.998583 0.0170992)
(-0.871402 0.201231 -0.000760758)
(-6.3111 0.241301 -0.0400524)
(-6.40604 0.31656 -0.0574041)
(-6.34559 0.512129 -0.0512289)
(-6.1183 0.70185 -0.0341031)
(-5.70553 0.878855 -0.0122809)
(-5.03638 1.02883 0.00702751)
(-3.81269 1.04825 0.0143126)
(-0.979798 0.275363 -0.00254551)
(-6.35425 0.24294 -0.0127066)
(-6.44747 0.318987 -0.0179981)
(-6.38704 0.51734 -0.0156431)
(-6.15794 0.712084 -0.00975601)
(-5.74066 0.894998 -0.00256948)
(-5.06628 1.04996 0.0034973)
(-3.83943 1.07079 0.00544044)
(-1.03945 0.310144 -0.00164886)
(9.67326 -0.160883 -2.28716)
(9.2645 1.65737 -1.90551)
(9.32654 3.10706 -1.49283)
(9.48188 4.2422 -1.16266)
(9.63554 5.08627 -0.883982)
(9.76157 5.68281 -0.629767)
(9.85006 6.04951 -0.387385)
(9.88925 6.15515 -0.134023)
(6.84579 -2.28262 -0.718365)
(5.90702 -1.36785 -0.63461)
(5.70178 -0.366355 -0.483202)
(5.66888 0.46313 -0.378034)
(5.67981 1.07645 -0.296676)
(5.70123 1.50775 -0.217322)
(5.7249 1.78856 -0.132923)
(5.7485 1.94975 -0.044439)
(5.73453 -3.93806 -0.0393481)
(4.63035 -3.28795 -0.0851193)
(4.28009 -2.55382 -0.0690139)
(4.13028 -1.96303 -0.0682396)
(4.05018 -1.53675 -0.0689284)
(4.00291 -1.24342 -0.0590544)
(3.97628 -1.05736 -0.036981)
(3.96387 -0.951597 -0.0114535)
(5.57621 -3.77089 0.381971)
(4.47578 -3.25938 0.161832)
(4.06475 -2.80626 0.0694664)
(3.85418 -2.43689 0.0197814)
(3.72307 -2.17263 -0.00997845)
(3.63683 -1.99682 -0.021107)
(3.5827 -1.891 -0.0175133)
(3.55312 -1.84286 -0.00634179)
)
;
        pressure        uniform 0;
        value           nonuniform List<vector> 
192
(
(0.000580301 0.000610311 0.000309135)
(0.00126436 0.0011571 0.000262903)
(0.00235326 0.00168921 0.00016975)
(0.00359955 0.00207285 3.26172e-05)
(0.00498766 0.00233541 -0.000107309)
(0.00644378 0.00248971 -0.000235808)
(0.00792254 0.00256522 -0.00034171)
(0.00939442 0.002601 -0.000421813)
(0.000618724 0.000635766 0.000154997)
(0.00135774 0.00115224 0.000150399)
(0.00240591 0.00168531 9.44368e-05)
(0.00362201 0.00207226 3.0494e-06)
(0.00496719 0.00233752 -9.66364e-05)
(0.00638232 0.00249571 -0.000191653)
(0.00782393 0.00257534 -0.000272617)
(0.00926751 0.00261847 -0.000334257)
(0.000645932 0.000657593 7.31341e-05)
(0.00139612 0.00114737 6.91394e-05)
(0.00243637 0.00166838 3.27787e-05)
(0.00363155 0.00205223 -2.70353e-05)
(0.00495009 0.00231874 -9.56178e-05)
(0.00633725 0.00248232 -0.000163107)
(0.00775305 0.00257033 -0.000222417)
(0.00917539 0.0026259 -0.000268334)
(0.000658822 0.000668065 3.15039e-05)
(0.00141193 0.00114299 2.39201e-05)
(0.00244745 0.00165485 -2.54865e-06)
(0.00363032 0.00203406 -4.31701e-05)
(0.00493254 0.00230059 -9.0121e-05)
(0.00630167 0.00246785 -0.000137448)
(0.00770002 0.00256231 -0.000180283)
(0.00910752 0.00262688 -0.000214217)
(0.000664216 0.000672254 1.13859e-05)
(0.00141672 0.0011392 2.05066e-06)
(0.00244792 0.00164554 -1.78442e-05)
(0.00362278 0.00202153 -4.59025e-05)
(0.00491462 0.0022877 -7.80116e-05)
(0.00627202 0.00245709 -0.000110816)
(0.00765844 0.00255558 -0.000141231)
(0.0090547 0.00262576 -0.000165782)
(0.000666246 0.00067357 2.66092e-06)
(0.00141697 0.00113618 -5.87445e-06)
(0.00244441 0.00163949 -2.0066e-05)
(0.00361376 0.00201371 -3.87781e-05)
(0.00489883 0.00227963 -5.98951e-05)
(0.00624856 0.00245018 -8.16142e-05)
(0.00762687 0.00255093 -0.000102074)
(0.00901505 0.00262433 -0.000118782)
(0.000666889 0.000673776 -2.07511e-07)
(0.00141594 0.00113408 -6.0487e-06)
(0.00244061 0.00163586 -1.46223e-05)
(0.00360637 0.00200923 -2.54525e-05)
(0.00488722 0.00227506 -3.75415e-05)
(0.00623221 0.00244623 -5.00143e-05)
(0.00760539 0.00254813 -6.18716e-05)
(0.00898828 0.00262325 -7.16159e-05)
(0.000667025 0.000673712 -3.33324e-07)
(0.00141512 0.00113302 -2.39561e-06)
(0.00243831 0.00163416 -5.26769e-06)
(0.00360228 0.0020072 -8.82284e-06)
(0.00488107 0.00227302 -1.27697e-05)
(0.00622378 0.00244444 -1.68467e-05)
(0.00759443 0.00254682 -2.07389e-05)
(0.00897464 0.0026226 -2.39447e-05)
(0.00024266 0.000329349 0.000468393)
(0.00106875 0.000677448 0.000268222)
(0.00216641 0.00107862 0.000205775)
(0.00346944 0.00136843 7.10842e-05)
(0.00490983 0.00157656 -5.58263e-05)
(0.00641394 0.00170915 -0.00017236)
(0.00792673 0.00178335 -0.000266622)
(0.00942149 0.00182109 -0.000345825)
(5.52885e-05 9.0698e-05 0.000126703)
(0.000819834 0.000175197 9.32249e-05)
(0.0019231 0.000310331 4.19691e-05)
(0.00325027 0.000400984 -1.62041e-05)
(0.00471238 0.000458551 -7.19194e-05)
(0.00623586 0.000486256 -0.000123424)
(0.00776339 0.000490734 -0.000170825)
(0.0092561 0.000485482 -0.000220826)
(3.79631e-05 -0.000129723 -0.00015434)
(0.000777943 -0.000216998 -0.000160383)
(0.00186622 -0.000361184 -0.000156576)
(0.00318469 -0.000479278 -0.000138892)
(0.00464057 -0.000582477 -0.000119221)
(0.00616054 -0.000668253 -0.000102289)
(0.0076857 -0.000738074 -9.30951e-05)
(0.00916985 -0.000792343 -9.0861e-05)
(0.000185314 -0.000389258 -0.00049782)
(0.000934335 -0.000725076 -0.000362399)
(0.00198701 -0.00113767 -0.000347028)
(0.00326126 -0.00145588 -0.000254562)
(0.00468088 -0.0017066 -0.000163998)
(0.00617267 -0.00188994 -7.9937e-05)
(0.0076786 -0.0020191 -1.61089e-05)
(0.00915493 -0.00211221 2.04364e-05)
(0.000485796 -0.00061003 -0.000350391)
(0.00110565 -0.00118057 -0.000373586)
(0.00213756 -0.00174306 -0.000331778)
(0.00334579 -0.00215788 -0.000236273)
(0.00470657 -0.00245953 -0.000131251)
(0.00614628 -0.00265745 -3.2625e-05)
(0.00761374 -0.00277502 4.5335e-05)
(0.00906943 -0.00283896 8.83229e-05)
(0.000508354 -0.000630618 -0.000188368)
(0.00119915 -0.00117172 -0.000232568)
(0.00219145 -0.00172713 -0.000216982)
(0.00336874 -0.00213962 -0.000160119)
(0.00468554 -0.00243556 -9.06561e-05)
(0.00608269 -0.00262774 -2.36005e-05)
(0.00751217 -0.00273951 2.85718e-05)
(0.00894139 -0.00280085 5.38699e-05)
(0.000524742 -0.00064978 -9.90704e-05)
(0.00122959 -0.00116294 -0.000133003)
(0.0022154 -0.00169933 -0.000128955)
(0.00337198 -0.0021013 -9.81888e-05)
(0.0046617 -0.00238993 -5.60414e-05)
(0.00603022 -0.00257821 -1.40981e-05)
(0.00743311 -0.00268856 1.80348e-05)
(0.00883893 -0.00274997 2.96724e-05)
(0.000529562 -0.000656541 -5.04844e-05)
(0.00123661 -0.00115297 -7.31133e-05)
(0.00221765 -0.0016747 -7.24552e-05)
(0.00336228 -0.00206536 -5.56401e-05)
(0.00463569 -0.00234661 -3.10769e-05)
(0.00598601 -0.00253069 -6.07738e-06)
(0.00737074 -0.0026392 1.23654e-05)
(0.00875908 -0.00269988 1.55555e-05)
(0.000529133 -0.000656963 -2.46375e-05)
(0.00123425 -0.00114335 -3.86518e-05)
(0.00221053 -0.00165501 -3.87329e-05)
(0.00334739 -0.00203704 -2.93531e-05)
(0.0046106 -0.00231195 -1.52101e-05)
(0.00594923 -0.00249195 -7.70383e-07)
(0.00732152 -0.0025981 9.20096e-06)
(0.00869689 -0.00265727 8.22564e-06)
(0.000527108 -0.000655137 -1.12938e-05)
(0.0012293 -0.00113535 -1.93793e-05)
(0.00220137 -0.00164039 -1.94801e-05)
(0.00333284 -0.00201653 -1.42547e-05)
(0.00458947 -0.00228674 -6.30558e-06)
(0.00592053 -0.00246337 1.71345e-06)
(0.00728445 -0.00256727 6.76484e-06)
(0.00865066 -0.00262476 4.44741e-06)
(0.000525176 -0.00065315 -4.63238e-06)
(0.00122491 -0.00112972 -8.72948e-06)
(0.00219388 -0.00163073 -8.75428e-06)
(0.00332184 -0.00200323 -6.09076e-06)
(0.0045744 -0.00227042 -2.05025e-06)
(0.00590082 -0.00244473 1.95509e-06)
(0.0072595 -0.00254695 4.24511e-06)
(0.00861982 -0.00260311 2.28248e-06)
(0.000524075 -0.000651968 -1.22081e-06)
(0.00122245 -0.00112683 -2.46293e-06)
(0.00218981 -0.00162593 -2.46126e-06)
(0.00331601 -0.0019967 -1.64196e-06)
(0.00456659 -0.00226241 -4.04641e-07)
(0.00589078 -0.00243556 8.07145e-07)
(0.00724692 -0.0025369 1.45677e-06)
(0.00860433 -0.00259233 7.14862e-07)
(0.0100612 0.00185708 -0.000342798)
(0.00992719 0.00187782 -0.000282196)
(0.00983547 0.00189552 -0.000230725)
(0.00976453 0.00190423 -0.000184797)
(0.00970797 0.00190936 -0.000142813)
(0.00966481 0.0019124 -0.000102116)
(0.00963547 0.0019142 -6.14773e-05)
(0.00962052 0.00191494 -2.05397e-05)
(0.00986497 0.000513006 -0.000213417)
(0.00973992 0.000533002 -0.000183431)
(0.00964755 0.000552425 -0.000157934)
(0.00957394 0.000569361 -0.000131138)
(0.00951451 0.000583107 -0.000103356)
(0.00946891 0.000593438 -7.46017e-05)
(0.0094379 0.00060034 -4.50795e-05)
(0.00942219 0.000603819 -1.50766e-05)
(0.0097757 -0.00080452 -9.73474e-05)
(0.00965199 -0.00077977 -0.000100657)
(0.00955422 -0.000752444 -9.69977e-05)
(0.00947512 -0.000725289 -8.62268e-05)
(0.00941174 -0.000701631 -7.03711e-05)
(0.00936355 -0.000683221 -5.163e-05)