/*--------------------------------*- C++ -*----------------------------------*\
| =========                 |                                                 |
| \\      /  F ield         | foam-extend: Open Source CFD                    |
|  \\    /   O peration     | Version:     3.1                                |
|   \\  /    A nd           | Web:         http://www.extend-project.de       |
|    \\/     M anipulation  |                                                 |
\*---------------------------------------------------------------------------*/
FoamFile
{
    version     2.0;
    format      ascii;
    class       volScalarField;
    location    "3.2";
    object      sigmaEq;
}
// * * * * * * * * * * * * * * * * * * * * * * * * * * * * * * * * * * * * * //

dimensions      [1 -1 -2 0 0 0 0];

internalField   nonuniform List<scalar> 
256
(
245.383
109.422
107.056
234.485
183.727
138.872
128.285
164.573
166.949
132.459
121.902
144.763
133.143
118.583
109.251
109.17
102.922
101.209
93.3709
78.673
77.3043
81.8885
75.4583
53.0617
60.1042
62.8815
55.9129
33.8717
56.4391
48.7711
31.0648
20.3231
241.985
122.534
117.493
224.686
191.74
142.623
133.619
173.684
164.916
123.287
113.564
142.952
129.904
105.089
95.9883
105.585
98.4022
86.3434
78.5703
73.1899
73.0278
68.1015
61.8065
47.2185
56.5985
51.5874
45.2376
28.7234
54.0436
42.1753
25.8161
17.3538
244.021
126.111
119.018
222.293
191.076
143.8
133.409
169.826
165.257
122.661
111.419
140.048
130.093
102.318
91.6847
102.622
98.5034
82.726
73.5625
70.2945
72.9335
64.4448
57.1231
44.5646
56.1886
48.7192
41.8281
26.4672
52.9549
41.4433
24.5943
14.4105
245.191
126.764
118.204
220.57
190.643
144.543
132.671
166.718
165.534
123.451
110.663
137.38
130.786
102.705
90.6029
100.278
99.376
82.7843
72.3417
68.1889
73.7983
64.3269
56.0417
42.6921
56.8948
48.7497
41.2322
24.8527
53.4166
42.4544
24.8702
12.7441
245.55
126.43
116.861
218.893
190.659
144.81
131.778
164.654
165.984
124.236
110.271
135.453
131.645
103.651
90.4639
98.6058
100.457
83.7079
72.3446
66.7372
74.9218
65.137
56.1548
41.4179
57.9359
49.5193
41.5041
23.7823
54.3611
43.641
25.4514
11.9145
245.498
125.888
115.636
217.423
190.771
144.804
130.931
163.255
166.413
124.756
109.954
134.137
132.378
104.442
90.5075
97.4763
101.361
84.5833
72.6026
65.7749
75.8683
65.9581
56.5131
40.5931
58.8415
50.2639
41.9021
23.1141
55.2869
44.5732
25.8988
11.4521
245.335
125.443
114.762
216.351
190.863
144.71
130.286
162.36
166.722
125.038
109.698
133.307
132.884
104.945
90.5402
96.7733
101.972
85.1742
72.8137
65.1846
76.5072
66.5274
56.8006
40.1005
59.4641
50.7741
42.1912
22.7304
55.9545
45.1772
26.1592
11.1698
245.22
125.203
114.314
215.792
190.908
144.637
129.943
161.918
166.878
125.157
109.552
132.902
133.135
105.181
90.5478
96.4341
102.272
85.4601
72.9183
64.9024
76.8197
66.8066
56.9459
39.8692
59.7693
51.0234
42.3316
22.5544
56.287
45.4685
26.2719
11.0263
)
;

boundaryField
{
    interface
    {
        type            calculated;
        value           nonuniform List<scalar> 
192
(
396.809
208.193
202.309
152.156
113.092
81.0347
63.6415
55.3108
389
224.407
203.955
155.85
115.931
84.8071
67.8438
59.2483
393.876
220.544
203.224
155.62
115.697
84.2292
66.7333
55.8456
397.387
218.313
202.686
155.8
116.318
84.9881
67.5152
55.8109
399.026
217.444
202.644
156.252
117.155
85.9834
68.5888
56.4013
399.584
217.145
202.841
156.773
117.927
86.8763
69.5591
57.2155
399.673
217.043
203.047
157.181
118.471
87.4926
70.2262
57.8345
399.638
217.007
203.161
157.389
118.741
87.793
70.5444
58.1327
277.186
171.147
172.069
137.427
108.709
82.9673
64.9803
60.7288
99.9989
133.656
140.597
129.215
112.732
92.4272
71.5297
55.5584
101.433
120.384
128.642
118.862
104.073
85.2224
63.6218
35.3013
270.348
148.23
149.054
112.603
84.3174
58.9351
39.2946
24.3357
375.056
193.351
180.497
127.462
85.4954
50.1907
26.7744
17.1634
357.623
208.85
180.194
128.437
85.309
50.7055
28.0329
18.4281
358.166
202.342
176.527
125.533
82.7332
48.3904
25.6838
13.9826
358.502
197.887
173.083
122.602
80.0989
45.7941
22.7742
11.0079
357.679
195.315
170.72
120.428
78.0767
43.6758
20.2296
8.94298
356.411
193.756
169.189
118.978
76.6855
42.1852
18.3583
7.6022
355.292
192.819
168.257
118.095
75.8253
41.2583
17.1689
6.75265
354.66
192.371
167.811
117.676
75.415
40.8172
16.5989
6.33258
61.1228
58.4486
57.6628
57.9768
58.9216
59.8662
60.5652
60.902
47.2098
42.5738
43.2347
44.9752
46.5541
47.7048
48.4341
48.7881
13.1779
11.6795
12.2928
13.7759
14.9599
15.6227
15.9318
16.047
20.4222
17.2493
13.2664
10.9759
9.99601
9.43666
9.04857
8.827
)
;
    }
    symmetry
    {
        type            symmetryPlane;
    }
    bottom
    {
        type            calculated;
        value           nonuniform List<scalar> 
32
(
225.058
194.983
191.465
191.858
192.284
192.397
192.356
192.298
74.806
80.825
81.2371
80.1429
78.9217
77.9491
77.3077
76.9928
78.7551
79.2239
76.8908
74.0876
71.8498
70.2831
69.3082
68.8425
225.266
183.699
172.58
168.735
166.774
165.466
164.59
164.143
)
;
    }
}


// ************************************************************************* //
