/*--------------------------------*- C++ -*----------------------------------*\
| =========                 |                                                 |
| \\      /  F ield         | foam-extend: Open Source CFD                    |
|  \\    /   O peration     | Version:     3.1                                |
|   \\  /    A nd           | Web:         http://www.extend-project.de       |
|    \\/     M anipulation  |                                                 |
\*---------------------------------------------------------------------------*/
FoamFile
{
    version     2.0;
    format      ascii;
    class       volSymmTensorField;
    location    "3.2";
    object      sigma;
}
// * * * * * * * * * * * * * * * * * * * * * * * * * * * * * * * * * * * * * //

dimensions      [1 -1 -2 0 0 0 0];

internalField   nonuniform List<symmTensor> 
256
(
(178.955 62.2275 -2.72957 404.933 31.9763 207.053)
(23.8663 53.0209 -8.26497 82.1602 11.1174 32.6357)
(-55.6361 49.4123 -8.44517 -111.836 -15.8623 -55.4766)
(-201.337 52.4575 -3.4342 -414.48 -38.7489 -217.824)
(-76.1904 25.9987 -3.14431 121.841 -10.591 -21.3255)
(-32.553 68.1598 -13.0572 45.1466 -4.72791 -9.25364)
(-1.58273 66.7051 -13.5097 -52.6946 2.36198 -2.96013)
(40.3049 25.0387 -4.76138 -130.905 7.33502 9.37507)
(-28.0297 31.7576 -1.23069 149.187 -5.88476 26.1754)
(-33.7121 65.9127 -8.95658 41.0426 -2.4417 -4.217)
(-7.23152 65.9233 -9.30526 -47.0683 0.214184 -7.85168)
(-6.76681 32.0398 -2.90544 -150.837 3.36151 -31.3634)
(-39.3393 27.8744 -1.20739 101.368 -8.28855 12.6654)
(-34.6766 60.189 -7.37784 28.5768 -2.90957 -5.11783)
(-6.89599 60.5586 -7.63477 -32.9334 1.11775 -4.20743)
(4.29839 28.6352 -3.02327 -100.108 6.37535 -14.2415)
(-36.1107 24.2499 -0.82908 71.1758 -7.60884 13.0249)
(-32.714 51.9602 -5.92608 19.0392 -2.51468 -3.59053)
(-8.32142 52.5841 -6.14476 -23.0626 1.10582 -3.73613)
(1.46487 25.4138 -2.67105 -68.338 6.27192 -12.0331)
(-36.6622 18.7961 -0.898392 42.727 -6.65443 10.3696)
(-31.5683 41.8477 -5.15487 10.0432 -2.20204 -3.0731)
(-8.91563 42.8401 -5.24668 -14.8713 1.00463 -3.18065)
(1.9875 20.7087 -2.58277 -39.5802 5.81622 -8.23297)
(-35.9249 12.2448 -1.44047 25.1147 -5.53998 11.0277)
(-31.8757 30.6722 -4.93859 2.93691 -2.15821 -2.82249)
(-9.51883 31.7266 -4.8018 -9.10833 0.626635 -3.31015)
(2.72423 15.1134 -2.69049 -19.5965 4.61519 -6.77128)
(-47.1649 7.00949 -2.05064 8.99211 -3.15784 6.01821)
(-44.8321 17.6108 -4.68855 -6.55267 -1.45081 -9.05049)
(-4.08354 17.1663 -4.62977 -0.513341 -0.112116 0.36157)
(9.59888 7.52703 -3.17267 -5.35091 1.66069 -3.95618)
(180.713 70.5317 -1.6633 401.998 19.5543 215.514)
(29.7012 63.4896 -6.60135 85.6244 6.20901 39.4998)
(-50.4553 60.363 -7.21623 -99.6895 -11.2837 -52.3294)
(-193.493 61.187 -3.14233 -396.529 -26.3935 -216.176)
(-43.5698 26.5764 -2.33083 165.224 -4.3476 17.5096)
(-9.99072 70.1003 -12.1365 70.2318 -2.79889 12.5962)
(-21.528 69.2899 -13.4564 -76.8019 -1.05155 -24.4072)
(7.07454 26.6526 -5.48723 -175.399 -0.283238 -29.6463)
(-22.1005 27.7884 -0.805336 154.474 -9.28981 31.0301)
(-22.2191 60.2748 -9.56405 49.6534 -3.87226 3.38229)
(-12.8992 60.464 -10.987 -52.4807 1.31395 -13.0248)
(-10.2346 28.119 -4.43933 -154.335 6.32418 -34.2161)
(-28.7534 23.1196 0.336913 110.378 -11.3883 21.7372)
(-22.463 52.1334 -6.77754 37.3034 -4.11219 2.6885)
(-12.2595 52.5195 -8.262 -37.5331 2.47668 -9.51381)
(-3.37441 23.7899 -3.65708 -106.62 9.62722 -21.2726)
(-28.2871 19.0643 1.376 76.1524 -11.2937 19.073)
(-22.21 43.3311 -4.55726 25.618 -3.83828 2.25205)
(-11.3464 43.8975 -6.06692 -24.6345 2.86559 -6.81701)
(-3.21635 20.0908 -2.75954 -70.1843 10.4841 -15.9708)
(-28.9744 14.1288 1.89141 47.3729 -9.94834 16.6065)
(-21.9377 34.0666 -3.09689 15.7956 -3.34344 2.03286)
(-10.7642 34.9629 -4.50161 -14.8449 2.63931 -5.14646)
(-2.26635 15.9324 -2.10826 -40.2195 9.78947 -11.9206)
(-28.9478 8.40241 1.80568 29.0037 -7.79174 16.7877)
(-23.7954 24.582 -2.44161 7.19156 -2.86813 0.957129)
(-10.2676 25.609 -3.64294 -7.75384 1.81093 -4.05284)
(-0.278608 11.4473 -1.74425 -18.4051 7.66629 -9.13907)
(-39.9452 5.17394 1.28558 13.4894 -4.3747 12.0029)
(-37.9058 14.5477 -2.4299 -3.02322 -1.84697 -6.20601)
(-5.94403 14.0695 -3.84587 -0.419726 0.523011 -1.05097)
(5.25013 5.8559 -2.34361 -5.96191 3.62738 -7.28756)
(187.217 73.9957 -1.09768 412.141 9.51462 229.664)
(32.3802 66.1006 -4.19929 89.8217 2.46694 45.2819)
(-50.7865 62.7191 -4.71261 -99.192 -7.03904 -55.2009)
(-199.444 63.7515 -2.18976 -403.726 -15.0552 -229.274)
(-44.2738 27.0324 -1.87886 166.466 -3.0212 29.9241)
(-8.26284 71.1311 -8.18736 74.3146 -2.27748 20.0452)
(-23.0748 70.3526 -9.30951 -78.2076 -1.4237 -30.5499)
(5.0317 27.1054 -4.24499 -177.035 -0.906968 -44.539)
(-22.8604 27.3482 -1.10355 156.501 -7.2331 38.9354)
(-21.5219 59.6609 -7.0785 52.7074 -3.30701 8.39137)
(-13.8327 59.8383 -8.31313 -53.6238 0.802849 -17.1298)
(-12.3119 27.4592 -3.78699 -156.977 4.6229 -45.2981)
(-29.835 22.2417 -0.184934 111.321 -9.30783 25.3743)
(-21.8036 50.0472 -5.15752 39.6062 -3.61726 6.18898)
(-13.0989 50.4108 -6.42861 -37.8589 2.13594 -11.8815)
(-5.66767 22.7671 -3.02916 -108.614 7.85316 -28.5873)
(-30.2375 17.8122 0.657383 75.9742 -9.56906 19.0726)
(-21.608 40.6551 -3.30443 27.573 -3.4246 4.73182)
(-12.0649 41.2451 -4.57348 -24.4388 2.72131 -7.85193)
(-4.80833 18.8268 -2.21231 -70.963 9.07431 -19.612)
(-31.2596 12.7691 1.17453 46.7236 -8.60526 14.2763)
(-21.338 31.3645 -1.99196 17.4892 -2.96892 3.81323)
(-11.3538 32.3857 -3.16978 -14.1945 2.66053 -5.08544)
(-3.48965 14.7916 -1.54861 -40.1938 8.76598 -12.8135)
(-30.9247 7.03281 1.22342 28.6434 -6.74581 13.2293)
(-23.2305 22.3569 -1.43292 8.62546 -2.4176 2.14598)
(-10.8644 23.6269 -2.48896 -6.88008 1.95228 -3.12956)
(-1.27142 10.6354 -1.21592 -17.7816 7.0546 -7.79526)
(-42.6581 4.49816 0.730367 11.9806 -3.55943 6.22226)
(-37.9374 13.432 -1.81864 -2.10213 -1.38063 -5.96529)
(-7.13599 13.0934 -3.16838 0.434311 0.624644 0.685808)
(5.08622 5.54238 -2.00054 -3.89292 3.2735 -2.70292)
(190.578 75.2511 -0.590312 417.806 3.87396 238.162)
(33.301 66.5209 -2.48394 91.8714 0.534226 48.3822)
(-51.2042 62.8422 -2.83006 -99.1003 -4.30313 -57.1349)
(-202.337 64.2432 -1.35508 -407.139 -8.15339 -236.867)
(-45.3785 27.1437 -1.09777 166.381 -2.53118 38.5926)
(-8.66924 71.5887 -5.0923 75.7056 -1.87308 24.0279)
(-23.5054 70.7477 -5.86716 -77.6592 -1.22837 -33.8873)
(4.56271 27.1854 -2.78812 -176.347 -0.574498 -54.1552)
(-23.5711 27.4678 -0.767845 157.643 -5.22491 46.4114)
(-22.5256 59.8885 -4.76129 53.8499 -2.52431 11.4038)
(-14.2451 60.0561 -5.62147 -53.1938 0.407621 -19.8239)
(-12.9434 27.5139 -2.67706 -157.022 3.15191 -53.6487)
(-30.6873 22.1889 -0.214764 112.51 -6.72887 30.2845)
(-22.8374 49.8806 -3.64312 40.6358 -2.73569 8.34409)
(-13.6572 50.254 -4.50615 -37.4269 1.51559 -13.6702)
(-6.33387 22.7021 -2.19111 -108.756 5.59549 -34.4467)
(-31.1014 17.5935 0.361743 77.1851 -7.07138 21.5839)
(-22.5767 40.1805 -2.39108 28.5731 -2.60601 6.17216)
(-12.7106 40.8284 -3.23002 -23.9741 2.08842 -8.70323)
(-5.46937 18.6936 -1.59001 -71.0018 6.74039 -22.8534)
(-32.0502 12.4063 0.746901 48.0084 -6.52007 14.9226)
(-22.1953 30.7266 -1.45913 18.4674 -2.28353 4.72729)
(-12.0092 31.8836 -2.22373 -13.6525 2.13673 -5.05747)
(-4.14431 14.6698 -1.08044 -40.0746 6.7262 -13.7708)
(-31.3009 6.55728 0.782172 30.3194 -5.25544 12.758)
(-23.9995 21.7516 -1.1498 9.56163 -1.86835 2.67747)
(-11.6149 23.2169 -1.84428 -6.29671 1.62113 -2.34344)
(-1.97287 10.581 -0.864568 -17.4025 5.55739 -6.80073)
(-42.9798 4.27857 0.268797 13.4914 -2.91318 4.7745)
(-38.883 13.1035 -1.80462 -1.16092 -1.09856 -5.6461)
(-8.50705 12.8336 -2.75395 0.891198 0.535813 2.07093)
(4.22939 5.53081 -1.65299 -3.21521 2.62788 0.104322)
(191.818 75.5883 -0.271091 420.177 1.09246 242.441)
(33.6487 66.2482 -1.38836 92.9407 -0.296809 50.0475)
(-51.3626 62.3446 -1.60841 -98.7243 -2.58626 -58.1374)
(-203.089 64.0151 -0.786177 -407.514 -4.24216 -240.324)
(-46.3659 27.0786 -0.538882 166.163 -2.11725 43.7603)
(-9.16481 71.6086 -2.98115 76.4657 -1.48 26.3139)
(-23.8205 70.7179 -3.48723 -76.9022 -0.927947 -35.8645)
(4.26336 27.12 -1.69733 -175.508 -0.238445 -59.9835)
(-24.4515 27.5564 -0.418047 158.09 -3.69048 51.3185)
(-23.3965 60.1051 -2.98316 54.5342 -1.82754 13.3015)
(-14.6205 60.2845 -3.55165 -52.4952 0.186219 -21.5918)
(-13.1654 27.6039 -1.72504 -156.345 2.13131 -58.9921)
(-31.6173 22.2957 -0.11773 113.194 -4.62807 33.9367)
(-23.7357 50.1207 -2.3934 41.3577 -1.93104 9.81035)
(-14.1232 50.5237 -2.95202 -36.8154 0.994802 -14.9588)
(-6.60507 22.8487 -1.44843 -108.255 3.78353 -38.503)
(-31.9769 17.654 0.230348 78.0764 -4.90036 23.8271)
(-23.4241 40.3434 -1.63626 29.3384 -1.84013 7.21641)
(-13.2232 41.0505 -2.16684 -23.4242 1.45299 -9.3874)
(-5.78625 18.8557 -1.06276 -70.6169 4.65827 -25.2983)
(-32.8279 12.3745 0.467824 49.0495 -4.61452 15.9473)
(-22.9467 30.7795 -1.06342 19.2596 -1.63686 5.45319)
(-12.5356 32.0391 -1.5383 -13.1405 1.53008 -5.12689)
(-4.48704 14.833 -0.732492 -39.7056 4.75534 -14.6339)
(-31.7994 6.41829 0.449746 31.6225 -3.82842 13.0134)
(-24.7069 21.727 -0.964988 10.3221 -1.36865 3.16581)
(-12.2292 23.3137 -1.39762 -5.82587 1.17377 -1.86756)
(-2.34641 10.736 -0.63603 -16.91 4.0013 -6.2376)
(-43.6864 4.22889 -0.0476367 14.4719 -2.18391 4.11092)
(-39.9089 13.087 -1.69316 -0.545796 -0.82461 -5.46265)
(-9.55448 12.8218 -2.31459 1.26676 0.37216 2.94579)
(3.73724 5.59728 -1.34155 -2.59011 1.89752 1.89235)
(192.135 75.5864 -0.0969621 420.969 -0.0533338 244.458)
(33.777 65.8436 -0.727846 93.5269 -0.514555 50.931)
(-51.343 61.7844 -0.861235 -98.2209 -1.49556 -58.5753)
(-202.94 63.6221 -0.427623 -406.661 -2.09395 -241.643)
(-47.0116 26.9514 -0.208153 166.039 -1.61269 46.721)
(-9.53611 71.4357 -1.63175 76.9532 -1.074 27.5921)
(-24.0303 70.5122 -1.94604 -76.2102 -0.632588 -36.9947)
(4.00246 27.0094 -0.96205 -174.792 -0.0428626 -63.3687)
(-25.0972 27.5745 -0.172058 158.359 -2.47591 54.3256)
(-23.9935 60.1883 -1.73222 55.0122 -1.2373 14.4388)
(-14.912 60.3839 -2.08941 -51.8575 0.0764755 -22.692)
(-13.2897 27.6446 -1.02367 -155.631 1.38808 -62.2029)
(-32.2932 22.3809 -0.021507 113.654 -3.00854 36.3694)
(-24.3555 50.3406 -1.44892 41.8818 -1.27268 10.7442)
(-14.4545 50.773 -1.79488 -36.2408 0.611928 -15.801)
(-6.75042 22.9835 -0.880079 -107.657 2.42051 -41.0663)
(-32.6095 17.7436 0.169585 78.7029 -3.18442 25.5169)
(-24.0082 40.5874 -1.03195 29.9043 -1.20947 7.93186)
(-13.5681 41.3414 -1.35497 -22.9134 0.929891 -9.86287)
(-5.9526 19.0321 -0.656495 -70.1207 3.00501 -26.9399)
(-33.3817 12.4154 0.29735 49.7967 -3.0436 16.9557)
(-23.4681 30.9705 -0.720716 19.8418 -1.09081 5.99777)
(-12.884 32.3019 -1.00589 -12.6904 0.994771 -5.20717)
(-4.6799 15.0155 -0.466893 -39.2707 3.10664 -15.3114)
(-32.1734 6.37647 0.251958 32.5373 -2.58291 13.581)
(-25.2167 21.8356 -0.739957 10.8642 -0.93184 3.56901)
(-12.6451 23.5 -1.00029 -5.44696 0.762284 -1.60096)
(-2.56486 10.8952 -0.444162 -16.4429 2.64141 -6.01479)
(-44.1462 4.2127 -0.148243 15.2835 -1.51471 4.2109)
(-40.6629 13.1339 -1.36389 -0.101026 -0.576953 -5.25765)
(-10.2718 12.8603 -1.75358 1.54852 0.227447 3.41122)
(3.35125 5.6532 -0.990597 -2.18228 1.25435 2.73971)
(192.119 75.5024 -0.0223432 421.119 -0.314826 245.329)
(33.8213 65.5177 -0.339738 93.8459 -0.409616 51.3804)
(-51.2643 61.3609 -0.411221 -97.784 -0.771089 -58.7314)
(-202.569 63.2919 -0.206745 -405.652 -0.930476 -242.017)
(-47.4035 26.8362 -0.0564374 165.964 -1.01031 48.2794)
(-9.77162 71.2437 -0.790376 77.2586 -0.652186 28.264)
(-24.1492 70.3009 -0.961842 -75.6956 -0.364559 -37.5946)
(3.81918 26.9122 -0.480642 -174.267 0.0266613 -65.1952)
(-25.5146 27.5582 -0.0496184 158.518 -1.43374 55.988)
(-24.3545 60.1893 -0.879851 55.3308 -0.71829 15.0691)
(-15.1018 60.3979 -1.07649 -51.3934 0.0269607 -23.3205)
(-13.3634 27.6506 -0.529362 -155.088 0.789286 -63.9815)
(-32.7289 22.4237 0.0172255 113.937 -1.69989 37.7895)
(-24.7311 50.4671 -0.760573 42.2315 -0.723945 11.2872)
(-14.6603 50.921 -0.949411 -35.817 0.329487 -16.2968)
(-6.83408 23.0658 -0.463755 -107.189 1.35028 -42.5385)
(-33.0202 17.8028 0.10882 79.0816 -1.79447 26.5782)
(-24.3611 40.759 -0.560207 30.2778 -0.686001 8.37412)
(-13.7739 41.5445 -0.73471 -22.5344 0.513148 -10.1519)
(-6.04116 19.152 -0.351537 -69.7144 1.67901 -27.9227)
(-33.7454 12.4515 0.166974 50.2413 -1.73097 17.6726)
(-23.7843 31.1221 -0.415518 20.218 -0.624973 6.35921)
(-13.0883 32.4982 -0.568295 -12.3618 0.553095 -5.26651)
(-4.78332 15.1428 -0.258368 -38.9149 1.74593 -15.7607)
(-32.4386 6.3605 0.123818 33.072 -1.49189 14.0703)
(-25.5321 21.9298 -0.465071 11.2066 -0.542372 3.85696)
(-12.8931 23.6397 -0.604785 -5.18162 0.421738 -1.4641)
(-2.68116 11.0032 -0.264908 -16.0883 1.49188 -5.95572)
(-44.4651 4.20845 -0.134794 15.776 -0.894545 4.45893)
(-41.1456 13.1776 -0.876432 0.174193 -0.341965 -5.09471)
(-10.7098 12.8914 -1.09154 1.73982 0.119588 3.63133)
(3.10723 5.68604 -0.608822 -1.91546 0.708234 3.09251)
(192.053 75.4413 -0.00200704 421.097 -0.147337 245.64)
(33.8342 65.3439 -0.0980377 93.9882 -0.151489 51.5688)
(-51.2063 61.14 -0.120491 -97.5371 -0.237334 -58.7721)
(-202.314 63.1123 -0.0610107 -405.035 -0.260316 -242.073)
(-47.5881 26.7708 -0.00825208 165.925 -0.34392 48.9403)
(-9.88481 71.1278 -0.233362 77.4074 -0.218769 28.5503)
(-24.201 70.176 -0.287731 -75.4231 -0.118802 -37.8516)
(3.72671 26.8577 -0.144584 -173.989 0.0176258 -65.9892)
(-25.7166 27.5411 -0.00815568 158.593 -0.470443 56.7164)
(-24.5237 60.1719 -0.267168 55.4914 -0.235801 15.3468)
(-15.1935 60.3876 -0.329801 -51.1513 0.00617512 -23.6042)
(-13.3982 27.6465 -0.162356 -154.801 0.256764 -64.7685)
(-32.9395 22.4388 0.0103636 114.071 -0.550696 38.4326)
(-24.9072 50.5192 -0.235407 42.4068 -0.235168 11.5342)
(-14.7578 50.984 -0.295299 -35.5953 0.103799 -16.5247)
(-6.87314 23.1021 -0.143804 -106.94 0.434288 -43.2046)
(-33.2195 17.8293 0.0371564 79.2581 -0.580269 27.0797)
(-24.5263 40.8405 -0.176844 30.4624 -0.222483 8.58318)
(-13.8691 41.6413 -0.231929 -22.3354 0.163583 -10.2868)
(-6.08015 19.2091 -0.110124 -69.4934 0.539829 -28.3783)
(-33.9224 12.4687 0.05324 50.445 -0.562276 18.0345)
(-23.9324 31.1979 -0.135859 20.4008 -0.203781 6.53743)
(-13.1815 32.595 -0.183863 -12.1901 0.176843 -5.29673)
(-4.82863 15.2046 -0.0826502 -38.7206 0.562522 -15.9821)
(-32.5712 6.35319 0.0355841 33.3121 -0.488907 14.3387)
(-25.6809 21.9778 -0.15903 11.3703 -0.178341 4.00445)
(-13.0075 23.7079 -0.202896 -5.04522 0.134425 -1.4073)
(-2.7326 11.0545 -0.0883949 -15.9013 0.481595 -5.95289)
(-44.6162 4.20889 -0.0542277 16.0045 -0.298388 4.6324)
(-41.375 13.2025 -0.301967 0.306463 -0.113636 -5.00546)
(-10.9186 12.9055 -0.370607 1.83608 0.0374133 3.71293)
(2.98448 5.69901 -0.205845 -1.78717 0.228731 3.20306)
)
;

boundaryField
{
    interface
    {
        type            calculated;
        value           nonuniform List<symmTensor> 
192
(
(-23.2013 -0.0694389 2.40593 420.313 39.554 126.318)
(-22.6039 0.028501 4.07279 203.588 -12.8844 23.9777)
(-22.5839 0.0822412 4.89076 204.313 -8.03526 45.5681)
(-22.6303 -0.00332426 5.34001 148.326 -11.6581 35.672)
(-22.9832 -0.328978 5.59059 104.879 -10.9037 32.1498)
(-23.4852 -0.973537 5.64718 67.1119 -9.54744 28.0399)
(-23.9145 -2.14481 5.44237 44.0716 -7.58739 27.6372)
(-22.7637 -3.93924 4.76141 31.9015 -4.12481 30.1124)
(-26.2199 0.104755 1.72674 414.811 24.4444 133.976)
(-25.9618 0.271401 2.94443 224.166 -4.96187 41.3504)
(-26.6225 0.353343 3.52965 201.988 -12.1042 43.8271)
(-27.3756 0.209581 3.84441 147.548 -15.3709 35.8493)
(-28.2124 -0.236139 4.00205 101.643 -15.4318 31.1972)
(-28.8718 -1.08313 4.0036 64.0404 -13.6544 27.9185)
(-28.7803 -2.58225 3.80574 41.6732 -10.5068 28.4778)
(-25.3485 -4.70061 3.29293 31.5553 -5.74018 32.8384)
(-28.2256 0.153969 1.24222 421.976 12.0049 145.011)
(-27.8447 0.351663 2.11005 221.798 -3.30531 53.9422)
(-28.6436 0.4503 2.49489 201.614 -9.10428 50.8757)
(-29.5477 0.281646 2.68151 146.782 -12.1323 37.755)
(-30.4765 -0.233232 2.764 100.394 -12.6782 29.0227)
(-31.0593 -1.20079 2.74553 62.8801 -11.5081 23.1109)
(-30.5419 -2.87557 2.60877 41.3766 -9.00019 22.3257)
(-25.9476 -5.11246 2.29104 31.0587 -4.75016 25.3501)
(-29.6677 0.162616 0.910865 425.991 4.90576 152.09)
(-29.1698 0.371148 1.55017 220.205 -2.85674 64.0951)
(-29.9807 0.47688 1.82048 201.656 -6.47412 59.3156)
(-30.8989 0.29421 1.94065 147.274 -8.61451 43.015)
(-31.8453 -0.264319 1.98872 101.073 -9.22271 31.1278)
(-32.3191 -1.30768 1.97135 63.8374 -8.60574 22.7908)
(-31.5086 -3.08648 1.88421 42.9294 -6.97046 20.4596)
(-26.2193 -5.3791 1.67858 32.6577 -3.89917 22.5611)
(-30.7022 0.160966 0.656842 427.409 1.3968 155.751)
(-30.1314 0.370596 1.12249 219.329 -2.47518 70.3829)
(-30.9282 0.477023 1.31527 201.715 -4.56325 65.2938)
(-31.8301 0.284536 1.39676 147.777 -5.87935 47.4549)
(-32.7696 -0.3017 1.42701 101.879 -6.33944 33.6825)
(-33.1564 -1.39266 1.41624 64.891 -6.04974 23.7113)
(-32.1509 -3.23809 1.3634 44.3491 -5.06368 20.2864)
(-26.3977 -5.5641 1.22697 34.0553 -2.92946 21.6346)
(-31.4234 0.157134 0.445835 427.588 -0.0516183 157.481)
(-30.8078 0.364574 0.76485 218.825 -1.92935 73.9784)
(-31.5896 0.469355 0.896109 201.804 -3.07118 69.0257)
(-32.4755 0.269543 0.950707 148.18 -3.81517 50.513)
(-33.396 -0.33416 0.969334 102.504 -4.1071 35.7578)
(-33.7257 -1.45461 0.96432 65.6851 -3.97993 24.8661)
(-32.5943 -3.34357 0.93354 45.3737 -3.4152 20.8142)
(-26.5308 -5.69109 0.844984 35.1784 -2.03593 21.8124)
(-31.8832 0.154651 0.257297 427.356 -0.386162 158.213)
(-31.2435 0.35944 0.443222 218.519 -1.22391 75.8482)
(-32.0166 0.462157 0.519273 201.866 -1.78498 71.092)
(-32.8982 0.256534 0.550822 148.434 -2.15702 52.308)
(-33.7864 -0.357672 0.561004 102.896 -2.31328 37.0978)
(-34.0885 -1.49509 0.559107 66.1633 -2.26225 25.7393)
(-32.8818 -3.41132 0.541495 45.9822 -1.97381 21.369)
(-26.6276 -5.76951 0.488101 35.8813 -1.20523 22.2159)
(-32.0973 0.152951 0.0832833 427.156 -0.181841 158.473)
(-31.4465 0.355626 0.143937 218.374 -0.418846 76.6372)
(-32.2113 0.456974 0.168487 201.904 -0.58692 72.0029)
(-33.0872 0.249174 0.178586 148.566 -0.699352 53.1315)
(-33.9625 -0.36986 0.182008 103.088 -0.748194 37.7432)
(-34.2508 -1.51713 0.181437 66.39 -0.734892 26.1969)
(-32.996 -3.44857 0.174983 46.271 -0.647274 21.7058)
(-26.6326 -5.80101 0.155729 36.2334 -0.402935 22.5145)
(36.4021 56.4243 -2.78006 269.245 -0.691724 -10.2546)
(-77.9819 25.7682 -4.75932 110.69 -1.07772 -6.66597)
(-53.3397 35.2299 -5.74433 126.234 -1.1299 -3.50457)
(-54.3984 31.8533 -6.38032 88.8097 -1.03191 -1.1119)
(-49.0085 28.4091 -6.89271 61.8401 -0.986566 0.464174)
(-46.5224 22.4144 -7.35676 36.5111 -1.09551 1.27702)
(-45.3376 15.0837 -7.90281 19.3863 -1.38328 1.33809)
(-53.5582 8.35102 -8.96066 5.63031 -1.71944 0.562779)
(-5.57382 44.6757 -1.75629 55.9408 -0.538945 -8.9322)
(-40.8042 66.8844 -3.18913 35.6623 -0.991502 -7.53981)
(-42.0275 70.8509 -3.78227 36.7269 -1.17304 -5.69191)
(-41.3433 66.4269 -4.09567 25.9121 -1.07779 -4.15694)
(-39.021 58.4127 -4.34693 16.966 -0.899935 -3.1285)
(-37.2943 47.5175 -4.63965 8.33566 -0.769262 -2.59978)
(-36.8882 35.0649 -5.13801 1.75114 -0.735854 -2.49256)
(-45.1413 19.8483 -6.45179 -3.47498 -0.6995 -2.48001)
(-26.039 40.5051 -1.34294 -88.5883 -0.357623 -8.05361)
(2.35326 64.8373 -2.63429 -44.8779 -0.806201 -7.66523)
(-3.18734 70.6898 -3.197 -43.7846 -1.06076 -6.53426)
(-5.55644 66.7664 -3.46682 -32.2717 -1.01382 -5.48289)
(-8.02185 59.0959 -3.65772 -23.8397 -0.818292 -4.77903)
(-9.45744 48.6579 -3.89759 -16.6697 -0.609891 -4.43812)
(-10.4859 36.27 -4.35827 -11.4252 -0.451442 -4.40162)
(-7.38038 19.5167 -5.6326 -4.72299 -0.307433 -4.40242)
(-65.8861 45.7767 -1.25395 -289.75 -0.299574 -6.90752)
(40.9044 23.7772 -2.62361 -119.168 -0.757142 -6.93906)
(14.1341 35.3059 -3.27679 -130.619 -1.03278 -6.02106)
(14.1453 32.5901 -3.60378 -91.2758 -1.00917 -5.15917)
(8.58806 29.6692 -3.81335 -63.5126 -0.812245 -4.5679)
(5.92055 24.5279 -4.05451 -38.4168 -0.570867 -4.25426)
(4.88263 18.0872 -4.49741 -20.6196 -0.320978 -4.14469)
(10.035 8.92925 -5.68316 -7.30714 -0.0144871 -4.16563)
(-4.0985 0.281146 0.299647 -416.96 -47.9388 -133.514)
(-3.27847 0.606876 0.545741 -207.328 8.78816 -28.337)
(-2.2452 0.813829 0.577014 -198.978 5.14737 -41.712)
(-1.45043 0.811698 0.563666 -138.623 9.61678 -26.9793)
(-0.833023 0.686415 0.605284 -92.7543 9.61854 -20.4828)
(-0.218406 0.518334 0.740479 -53.4916 8.98194 -14.7677)
(0.840645 0.246347 0.979158 -26.4822 7.15382 -12.2061)
(3.85116 -0.898606 1.27416 -12.4719 2.83377 -12.2708)
(-4.81833 0.122801 -0.0761659 -405.518 -32.4671 -139.506)
(-4.77997 0.322589 -0.114847 -231.763 -0.325094 -47.7254)
(-4.43433 0.484331 -0.179692 -199.949 8.75295 -42.4459)
(-4.05621 0.533728 -0.223438 -141.459 13.4842 -30.4505)
(-3.67297 0.507602 -0.202762 -93.1092 14.7178 -23.3361)
(-3.18239 0.462505 -0.110086 -53.4516 13.8576 -18.366)
(-2.16844 0.351036 0.0354379 -25.7052 11.0527 -15.8073)
(1.08312 -0.635997 0.211188 -12.577 5.52448 -16.0784)
(-5.22038 0.053042 -0.140586 -411.986 -18.1257 -152.004)
(-5.38979 0.188078 -0.214305 -230.644 -0.783624 -64.2998)
(-5.23993 0.331134 -0.247309 -200.878 6.38797 -54.7538)
(-4.99955 0.418594 -0.250655 -142.406 10.6835 -38.277)
(-4.66918 0.464256 -0.207715 -93.4343 12.3172 -27.1557)
(-4.16107 0.502779 -0.121986 -53.3712 11.9761 -19.0543)
(-3.09028 0.480495 -0.0209178 -25.2156 9.86182 -13.9229)
(0.0448323 -0.351337 0.0430911 -11.0213 4.90592 -11.064)
(-5.51038 0.0260162 -0.131431 -414.909 -9.47748 -159.725)
(-5.7401 0.128857 -0.198273 -229.236 -0.232482 -76.3062)
(-5.66897 0.263507 -0.208436 -200.498 4.41546 -65.2666)
(-5.48372 0.379977 -0.188354 -142.416 7.53182 -45.7052)
(-5.15818 0.480009 -0.136854 -93.437 9.01226 -31.2263)
(-4.60506 0.581128 -0.0634885 -53.2407 9.04672 -20.1775)
(-3.45249 0.610336 0.00435536 -24.6903 7.67703 -12.5053)
(-0.417235 -0.126077 0.0175638 -10.1006 3.91481 -7.45513)
(-5.72551 0.0155162 -0.102068 -415.09 -4.69627 -163.679)
(-5.97609 0.104917 -0.15241 -228.183 0.178382 -83.6761)
(-5.93779 0.239396 -0.150089 -199.772 3.0526 -72.2224)
(-5.77269 0.378336 -0.122145 -141.932 5.09229 -51.0463)
(-5.43768 0.516005 -0.074824 -93.0816 6.19182 -34.4592)
(-4.85085 0.656425 -0.0203417 -52.8568 6.35643 -21.3277)
(-3.66307 0.717234 0.0168934 -24.0679 5.5115 -11.793)
(-0.700098 0.0410039 0.00576646 -9.31894 2.84035 -5.2456)
(-5.87244 0.0123912 -0.0687346 -414.177 -2.17283 -165.523)
(-6.12856 0.0982893 -0.101054 -227.364 0.32746 -87.9036)
(-6.10119 0.236715 -0.0937404 -199.068 2.02911 -76.4072)
(-5.94006 0.391901 -0.067974 -141.36 3.2738 -54.4321)
(-5.59271 0.553542 -0.0316789 -92.5956 3.9932 -36.6536)
(-4.98054 0.716495 0.00418311 -52.3806 4.14963 -22.2526)
(-3.78603 0.792749 0.0219667 -23.4813 3.64563 -11.5504)
(-0.880054 0.153592 0.00072699 -8.75818 1.89374 -4.1747)
(-5.96207 0.0121563 -0.0383956 -413.161 -0.895696 -166.3)
(-6.21863 0.0985727 -0.0554751 -226.778 0.27473 -90.1518)
(-6.19358 0.241466 -0.048939 -198.536 1.17047 -78.7122)
(-6.03102 0.406998 -0.0316375 -140.905 1.83651 -56.3655)
(-5.67484 0.582037 -0.00953388 -92.1869 2.23548 -37.967)
(-5.05116 0.756696 0.0100909 -51.9878 2.33555 -22.8732)
(-3.85348 0.839733 0.0173312 -23.041 2.06579 -11.5158)
(-0.992239 0.222009 -0.00151938 -8.38937 1.07743 -3.72659)
(-6.00312 0.0126876 -0.0121682 -412.549 -0.236496 -166.569)
(-6.25851 0.0999674 -0.0173536 -226.468 0.104291 -91.1178)
(-6.23369 0.245331 -0.0148725 -198.251 0.383507 -79.7258)
(-6.07 0.415772 -0.0089194 -140.66 0.592697 -57.2348)
(-5.7101 0.596834 -0.00163526 -91.9617 0.719901 -38.5745)
(-5.08186 0.776705 0.00453706 -51.7723 0.7535 -23.1799)
(-3.88135 0.861251 0.00646277 -22.8085 0.668287 -11.5335)
(-1.05363 0.253662 -0.00128227 -8.21336 0.349272 -3.58646)
(-57.9149 9.67284 -2.22484 0.391831 -2.3321 0.808334)
(-52.5093 9.16361 0.978379 2.17224 -1.93623 4.95868)
(-53.3666 9.13932 0.344928 3.60985 -1.51316 0.270184)
(-53.9095 9.22864 -0.157216 4.73972 -1.17742 -1.74249)
(-54.7886 9.33432 -0.453769 5.58063 -0.894836 -2.83205)
(-55.4634 9.42744 -0.467594 6.17551 -0.637391 -3.05831)
(-55.9198 9.49621 -0.336967 6.54156 -0.391902 -2.99269)
(-56.1771 9.53022 -0.123525 6.64729 -0.135507 -2.94079)
(-49.5819 6.96566 -4.41797 -1.90391 -0.75073 -7.90854)
(-44.7572 5.97718 -2.55413 -1.04514 -0.654957 -7.04443)
(-45.0476 5.71783 -2.27968 -0.0622266 -0.496847 -7.15806)
(-46.2901 5.64058 -2.42557 0.757951 -0.38729 -6.98394)
(-47.554 5.61917 -2.31663 1.36531 -0.302948 -6.92789)
(-48.5013 5.61826 -1.86669 1.79269 -0.221428 -6.82151)
(-49.1043 5.62758 -1.19616 2.07129 -0.135275 -6.71493)
(-49.3747 5.64296 -0.411073 2.23179 -0.0452101 -6.6359)
(-4.58703 5.94115 -4.56805 -3.62939 -0.0677295 -1.99598)
(-6.55368 4.80171 -4.29421 -3.03709 -0.103818 -3.17899)
(-8.33287 4.41234 -3.97331 -2.32416 -0.0822367 -1.05696)
(-10.0592 4.23113 -3.64904 -1.74399 -0.0777226 0.750196)
(-11.3802 4.12844 -3.13436 -1.32429 -0.075598 1.85358)
(-12.2919 4.06572 -2.3883 -1.03528 -0.0635041 2.40952)
(-12.8578 4.02935 -1.48734 -0.851861 -0.0395468 2.65145)
(-13.1213 4.01143 -0.504627 -0.747405 -0.0122929 2.74196)
(12.7489 5.77966 -3.51675 -3.46118 0.35318 -4.42819)
(8.8247 4.64877 -3.03185 -3.01023 0.139548 -7.09379)
(7.54703 4.21305 -2.84082 -2.58344 0.0525342 -2.16144)
(6.2834 3.98216 -2.44662 -2.22843 0.00693706 1.25242)
(5.42662 3.83644 -2.01083 -1.97342 -0.0193915 3.32762)
(4.79613 3.74042 -1.48716 -1.80372 -0.0275607 4.28414)
(4.38818 3.68037 -0.912553 -1.70171 -0.0212884 4.64876)
(4.18298 3.64809 -0.308071 -1.65559 -0.0075846 4.74774)
)
;
    }
    symmetry
    {
        type            symmetryPlane;
    }
    bottom
    {
        type            calculated;
        value           nonuniform List<symmTensor> 
32
(
(210.853 76.15 0 316.279 85.9063 210.853)
(206.723 85.4228 0 310.084 42.5979 206.723)
(212.659 89.6114 0 318.988 20.5139 212.659)
(216.163 91.0527 0 324.244 9.24116 216.163)
(217.722 91.4355 0 326.583 3.69272 217.722)
(218.33 91.4612 0 327.495 1.17065 218.33)
(218.518 91.4021 0 327.777 0.214654 218.518)
(218.556 91.3546 0 327.834 -0.000711958 218.556)
(40.2229 32.6921 0 60.3344 25.7239 40.2229)
(42.0537 43.0595 0 63.0806 13.2689 42.0537)
(44.9037 44.653 0 67.3556 6.15626 44.9037)
(46.2923 44.2313 0 69.4384 2.4441 46.2923)
(47.0195 43.4916 0 70.5293 0.678009 47.0195)
(47.4231 42.8712 0 71.1346 -0.0293924 47.4231)
(47.6435 42.4613 0 71.4653 -0.187427 47.6435)
(47.7419 42.2613 0 71.6128 -0.0874828 47.7419)
(-58.1577 28.9955 0 -87.2366 -30.7386 -58.1577)
(-52.4078 39.3099 0 -78.6117 -17.8323 -52.4078)
(-52.9342 40.3483 0 -79.4013 -10.4521 -52.9342)
(-53.1925 39.4561 0 -79.7887 -6.08999 -53.1925)
(-53.145 38.3832 0 -79.7176 -3.48703 -53.145)
(-52.9644 37.5381 0 -79.4466 -1.92151 -52.9644)
(-52.7808 36.9885 0 -79.1712 -0.950772 -52.7808)
(-52.6715 36.7218 0 -79.0072 -0.285594 -52.6715)
(-213.83 64.3713 0 -320.744 -94.6623 -213.83)
(-203.98 72.1371 0 -305.969 -50.7683 -203.98)
(-209.277 74.4596 0 -313.916 -27.0925 -209.277)
(-211.869 74.4982 0 -317.803 -14.1361 -211.869)
(-212.507 73.8722 0 -318.76 -7.12803 -212.507)
(-212.321 73.1982 0 -318.482 -3.41228 -212.321)
(-211.943 72.6944 0 -317.914 -1.4731 -211.943)
(-211.688 72.4325 0 -317.533 -0.404157 -211.688)
)
;
    }
}


// ************************************************************************* //
