/*--------------------------------*- C++ -*----------------------------------*\
| =========                 |                                                 |
| \\      /  F ield         | foam-extend: Open Source CFD                    |
|  \\    /   O peration     | Version:     3.1                                |
|   \\  /    A nd           | Web:         http://www.extend-project.de       |
|    \\/     M anipulation  |                                                 |
\*---------------------------------------------------------------------------*/
FoamFile
{
    version     2.0;
    format      ascii;
    class       volSymmTensorField;
    location    "3.2";
    object      sigmaCauchy;
}
// * * * * * * * * * * * * * * * * * * * * * * * * * * * * * * * * * * * * * //

dimensions      [1 -1 -2 0 0 0 0];

internalField   nonuniform List<symmTensor> 
256
(
(177.98 72.5845 -1.09945 416.938 35.8944 203.556)
(25.9482 54.6831 -7.84314 82.2075 11.2358 32.6293)
(-54.0974 47.4163 -8.94289 -111.445 -15.463 -55.6235)
(-204.463 43.8795 -4.91982 -402.021 -33.9194 -222.009)
(-72.3153 32.7244 -3.34796 124.014 -11.1073 -21.0658)
(-27.1764 70.4419 -13.0795 43.1337 -5.10707 -9.01593)
(3.15779 64.5861 -13.5184 -54.5935 2.08015 -2.75977)
(42.6385 19.2391 -4.73047 -128.413 7.17123 9.54214)
(-24.086 39.8531 -1.49549 150.476 -6.45571 26.0408)
(-27.0917 68.6878 -8.97824 37.5805 -2.65661 -4.09899)
(-1.20497 63.6566 -9.32396 -50.4389 0.0629845 -7.76765)
(-4.2487 25.2718 -2.8229 -149.426 3.08333 -31.6557)
(-35.2966 34.994 -1.74734 100.581 -8.73244 12.6948)
(-27.7503 62.7943 -7.52021 24.2087 -2.92009 -5.05291)
(-0.465546 58.7283 -7.55186 -37.2019 1.1373 -4.1588)
(7.09014 23.0234 -2.67918 -100.716 6.13332 -14.2938)
(-32.4755 30.0393 -1.44658 69.4587 -7.83885 13.0738)
(-26.3013 54.2101 -6.11708 14.5166 -2.35295 -3.57185)
(-2.27477 51.2972 -6.04836 -27.5031 1.27758 -3.7258)
(4.16131 21.2854 -2.25814 -69.9066 6.18377 -12.0516)
(-33.7528 23.1662 -1.52096 40.8757 -6.69718 10.4262)
(-26.2452 43.6884 -5.37165 5.97731 -1.92172 -3.08393)
(-3.81531 42.1052 -5.16786 -18.9013 1.28203 -3.19426)
(4.30836 18.1248 -2.17365 -41.391 5.87518 -8.23274)
(-33.9038 15.6384 -2.03289 23.7153 -5.46342 11.0805)
(-27.9218 32.2447 -5.18362 -0.255448 -1.81594 -2.8538)
(-5.72622 31.4583 -4.76722 -12.2905 0.954905 -3.34087)
(4.45658 13.6966 -2.35497 -21.1116 4.76874 -6.77828)
(-45.6636 10.1391 -2.55232 8.06064 -3.00525 6.03515)
(-42.3659 19.4447 -4.92088 -8.53036 -1.12198 -9.12065)
(-2.06994 17.2398 -4.65125 -2.30985 0.20013 0.324459)
(10.4737 6.63472 -3.00509 -6.1252 1.85972 -3.97956)
(180.508 81.6177 -0.617459 413.106 21.7999 211.75)
(32.5271 65.3787 -6.36063 85.5778 6.25205 39.3857)
(-48.0836 58.3351 -7.61031 -99.5919 -11.0618 -52.5217)
(-195.535 52.078 -4.21327 -385.657 -23.3924 -220.343)
(-40.2644 34.0247 -2.36426 168.829 -4.61647 17.3829)
(-4.53357 72.9351 -12.1792 68.4772 -2.98297 12.6701)
(-16.619 66.6304 -13.5511 -78.495 -1.10931 -24.4108)
(8.89206 20.1947 -5.66898 -171.583 -0.141873 -29.9657)
(-18.7382 35.7319 -1.22912 156.228 -9.7911 30.8556)
(-16.3315 63.1176 -9.6957 46.5253 -3.90083 3.45858)
(-7.49136 58.1879 -10.943 -55.5655 1.38025 -12.9906)
(-8.18422 21.5207 -4.21326 -152.546 6.18057 -34.5423)
(-25.4958 30.0947 -0.330076 110.23 -11.8424 21.7229)
(-16.665 54.7642 -6.99885 33.5267 -4.03538 2.72875)
(-6.85316 50.7513 -8.11532 -41.2596 2.63603 -9.50213)
(-1.24442 18.3799 -3.16512 -106.688 9.48376 -21.3825)
(-25.4573 24.6461 0.611339 75.0541 -11.636 19.1254)
(-17.0394 45.5422 -4.81708 21.8237 -3.69598 2.26768)
(-6.45046 42.754 -5.88414 -28.3872 3.08335 -6.82253)
(-1.21638 16.2473 -2.14557 -71.2105 10.42 -16.0023)
(-26.7882 18.3196 1.14734 46.0884 -10.1767 16.6941)
(-17.743 35.8423 -3.36041 12.4628 -3.17131 2.03639)
(-6.71321 34.3987 -4.33857 -18.1739 2.88041 -5.16271)
(-0.568916 13.6306 -1.50359 -41.5223 9.81118 -11.9198)
(-27.5204 11.6319 1.15657 28.0711 -7.93877 16.8896)
(-20.7234 26.0524 -2.69638 4.61811 -2.6858 0.953393)
(-7.27325 25.5123 -3.54526 -10.3477 2.05307 -4.075)
(0.986529 10.3082 -1.25976 -19.5246 7.74371 -9.13608)
(-38.794 8.16912 0.787345 12.7992 -4.44195 12.0854)
(-35.9177 16.263 -2.64583 -4.66304 -1.66612 -6.23787)
(-4.31241 14.2642 -3.83075 -1.90187 0.768389 -1.07645)
(5.90778 5.17883 -2.08382 -6.55361 3.75838 -7.29775)
(187.023 85.7088 -0.577784 423.343 10.6341 225.675)
(35.3941 68.1141 -4.10897 89.7754 2.47109 45.1215)
(-48.2365 60.6622 -4.96303 -99.157 -6.89256 -55.4499)
(-201.596 54.241 -2.80393 -392.946 -13.2998 -233.734)
(-40.8374 34.5348 -1.9134 169.925 -3.17546 29.7437)
(-2.6911 74.0659 -8.24965 72.5806 -2.37381 20.0357)
(-18.0593 67.6885 -9.40726 -79.9428 -1.40545 -30.6453)
(6.86572 20.6431 -4.38641 -173.443 -0.730928 -44.9521)
(-19.5312 35.2994 -1.43518 158.323 -7.5661 38.7295)
(-15.7097 62.5876 -7.20988 49.6747 -3.29192 8.41611)
(-8.51515 57.5784 -8.29428 -56.6543 0.907215 -17.1568)
(-10.3852 20.9287 -3.61782 -155.193 4.57891 -45.6948)
(-26.6776 29.1939 -0.718678 111.308 -9.62318 25.3306)
(-16.2955 52.7409 -5.35894 36.0345 -3.53236 6.20562)
(-7.9889 48.7082 -6.31131 -41.4118 2.29851 -11.9005)
(-3.7027 17.4713 -2.62994 -108.599 7.77769 -28.7513)
(-27.553 23.3831 0.0337475 75.053 -9.81374 19.0985)
(-16.8191 42.9308 -3.53564 24.0525 -3.31165 4.74088)
(-7.54911 40.1888 -4.41274 -27.9433 2.90455 -7.86832)
(-2.9941 15.1108 -1.69281 -71.8593 9.0367 -19.6726)
(-29.2269 16.9779 0.563902 45.6228 -8.77417 14.333)
(-17.5241 33.2034 -2.22154 14.4447 -2.85378 3.81918)
(-7.66926 31.9198 -3.01786 -17.2618 2.8396 -5.10072)
(-1.95551 12.6135 -1.02516 -41.3663 8.7791 -12.8268)
(-29.6453 10.3113 0.699496 27.887 -6.86005 13.2951)
(-20.4622 23.8829 -1.64372 6.29607 -2.30409 2.14884)
(-8.14429 23.6285 -2.39214 -9.26188 2.1233 -3.14453)
(-0.120027 9.61505 -0.791865 -18.8046 7.10693 -7.79795)
(-41.5677 7.53694 0.358673 11.3703 -3.60127 6.26101)
(-36.0922 15.2006 -1.98181 -3.61657 -1.24899 -5.99027)
(-5.63166 13.4011 -3.15574 -0.941432 0.822414 0.669857)
(5.69785 5.00285 -1.79298 -4.45181 3.38821 -2.71692)
(190.297 87.242 -0.379822 429.065 4.33934 234.13)
(36.3304 68.5752 -2.47219 91.8377 0.518593 48.212)
(-48.6546 60.7997 -2.98297 -99.0883 -4.20554 -57.4027)
(-204.64 54.634 -1.68247 -396.448 -7.17961 -241.389)
(-41.856 34.6415 -1.1661 169.707 -2.65397 38.4167)
(-3.05293 74.5554 -5.16467 73.9878 -1.92645 23.9929)
(-18.468 68.1365 -5.94485 -79.4282 -1.18786 -34.0133)
(6.39992 20.7893 -2.86255 -172.975 -0.44099 -54.5748)
(-20.2118 35.4176 -1.02663 159.434 -5.45552 46.2071)
(-16.6973 62.8605 -4.87735 50.8572 -2.49977 11.4076)
(-8.93698 57.8563 -5.61697 -56.2233 0.504113 -19.877)
(-11.0419 21.0707 -2.54878 -155.369 3.14387 -54.0538)
(-27.5244 29.1518 -0.612392 112.53 -6.94575 30.2292)
(-17.3733 52.6315 -3.8054 37.1324 -2.66188 8.35068)
(-8.60997 48.6211 -4.42662 -40.9416 1.64958 -13.7032)
(-4.40446 17.4991 -1.89983 -108.79 5.55847 -34.6282)
(-28.4374 23.1985 -0.104254 76.3298 -7.24228 21.5946)
(-17.874 42.5262 -2.57376 25.143 -2.51551 6.1787)
(-8.29018 39.8461 -3.11261 -27.4128 2.23114 -8.72391)
(-3.6962 15.0641 -1.20402 -71.9022 6.72101 -22.9283)
(-30.0544 16.6743 0.284989 46.9849 -6.6404 14.9622)
(-18.4821 32.6431 -1.64022 15.5201 -2.19539 4.73394)
(-8.42266 31.4918 -2.1087 -16.6463 2.27113 -5.0712)
(-2.64446 12.5687 -0.684043 -41.2354 6.73787 -13.7931)
(-30.0696 9.91518 0.380598 29.6436 -5.33787 12.8062)
(-21.3152 23.3573 -1.31517 7.31551 -1.77955 2.68179)
(-8.9678 23.2934 -1.77046 -8.61895 1.7516 -2.35396)
(-0.840973 9.63868 -0.539817 -18.4175 5.59841 -6.80698)
(-41.9066 7.39904 -0.0190919 12.9218 -2.93223 4.79884)
(-37.068 14.9622 -1.93159 -2.63151 -0.978698 -5.66884)
(-7.04142 13.2353 -2.74904 -0.450312 0.704203 2.06203)
(4.82988 5.08463 -1.49941 -3.77407 2.7262 0.093007)
(191.461 87.6675 -0.214686 431.445 1.22699 238.426)
(36.6411 68.3109 -1.40867 92.922 -0.318682 49.8766)
(-48.8591 60.3339 -1.70019 -98.7241 -2.52273 -58.408)
(-205.486 54.4512 -0.9525 -396.949 -3.72481 -244.812)
(-42.7959 34.5591 -0.621666 169.414 -2.22188 43.6041)
(-3.55694 74.5873 -3.05104 74.7733 -1.51128 26.2737)
(-18.8086 68.1649 -3.54341 -78.6861 -0.887059 -35.9972)
(6.08707 20.7999 -1.72679 -172.284 -0.15157 -60.3853)
(-21.0618 35.4989 -0.617805 159.851 -3.85337 51.1319)
(-17.557 63.1047 -3.0791 51.5719 -1.80575 13.2993)
(-9.31884 58.1482 -3.55309 -55.5284 0.262114 -21.6528)
(-11.2741 21.2465 -1.62697 -154.811 2.13244 -59.381)
(-28.425 29.2716 -0.404923 113.219 -4.77602 33.8846)
(-18.2629 52.9141 -2.51705 37.8844 -1.87463 9.81435)
(-9.08013 48.9556 -2.90178 -40.3275 1.09503 -14.996)
(-4.67783 17.7282 -1.24413 -108.358 3.76524 -38.6823)
(-29.2941 23.2958 -0.102558 77.2448 -5.01653 23.8339)
(-18.7219 42.7434 -1.7725 25.9373 -1.77168 7.22301)
(-8.80975 40.1304 -2.08853 -26.8558 1.55824 -9.40866)
(-4.01158 15.2978 -0.793176 -71.5558 4.64951 -25.3759)
(-30.825 16.6992 0.134767 48.0571 -4.69639 15.9795)
(-19.2428 32.7569 -1.19869 16.3401 -1.56934 5.46089)
(-8.95743 31.7052 -1.46026 -16.1253 1.62957 -5.13887)
(-2.98176 12.793 -0.453271 -40.8893 4.76678 -14.6592)
(-30.5732 9.84642 0.154989 30.9822 -3.88295 13.0533)
(-22.0331 23.396 -1.08941 8.09939 -1.29669 3.17137)
(-9.58886 23.4466 -1.34891 -8.14038 1.27431 -1.87482)
(-1.20573 9.85326 -0.406146 -17.9427 4.03529 -6.24452)
(-42.6042 7.42211 -0.261554 13.9188 -2.18507 4.12846)
(-38.088 15.0181 -1.78811 -2.00503 -0.718307 -5.48369)
(-8.09802 13.2946 -2.31674 -0.0659 0.511153 2.94269)
(4.33817 5.21858 -1.23656 -3.15781 1.97916 1.88557)
(191.725 87.6746 -0.103034 432.225 -0.0573342 240.47)
(36.7262 67.9043 -0.754524 93.5214 -0.534442 50.7609)
(-48.8868 59.8059 -0.914468 -98.2281 -1.45629 -58.8435)
(-205.385 54.1432 -0.507654 -396.218 -1.83293 -246.078)
(-43.4216 34.4122 -0.282899 169.258 -1.69498 46.5816)
(-3.95717 74.4191 -1.68856 75.2877 -1.09274 27.5523)
(-19.0576 68.0088 -1.98352 -77.9985 -0.600388 -37.1263)
(5.8074 20.7568 -0.968761 -171.663 0.00813373 -63.752)
(-21.6911 35.5089 -0.315962 160.108 -2.58724 54.1557)
(-18.1565 63.206 -1.80406 52.0769 -1.22188 14.4359)
(-9.62386 58.3 -2.09249 -54.8903 0.129444 -22.7538)
(-11.4071 21.3579 -0.953358 -154.18 1.38977 -62.5736)
(-29.0779 29.3664 -0.217283 113.683 -3.10603 36.3241)
(-18.8716 53.1637 -1.53623 38.4277 -1.23422 10.7484)
(-9.408 49.2568 -1.7651 -39.7553 0.68013 -15.8383)
(-4.82031 17.9289 -0.744704 -107.817 2.41105 -41.238)
(-29.9065 23.4124 -0.0541333 77.8827 -3.26026 25.5248)
(-19.291 43.0251 -1.12638 26.5148 -1.16225 7.93943)
(-9.14341 40.4696 -1.30674 -26.3503 1.00159 -9.88331)
(-4.16872 15.5315 -0.4803 -71.0964 3.00144 -27.0155)
(-31.3651 16.7803 0.0723487 48.8188 -3.09682 16.9859)
(-19.7525 32.9898 -0.814615 16.9295 -1.04283 6.00666)
(-9.29346 32.011 -0.957639 -15.6816 1.06376 -5.21757)
(-3.16237 13.0241 -0.284351 -40.4795 3.11627 -15.3368)
(-30.9431 9.85316 0.0499075 31.9153 -2.61726 13.6182)
(-22.5361 23.5477 -0.826986 8.64724 -0.877893 3.57592)
(-9.99636 23.6731 -0.971608 -7.76603 0.834838 -1.60577)
(-1.41224 10.0578 -0.293944 -17.4939 2.66727 -6.02104)
(-43.054 7.45918 -0.297622 14.7408 -1.50941 4.22721)
(-38.8322 15.1154 -1.43049 -1.55675 -0.493857 -5.27666)
(-8.81807 13.382 -1.75876 0.218501 0.331377 3.41254)
(3.95313 5.32197 -0.923653 -2.75703 1.31513 2.73697)
(191.676 87.5761 -0.041583 432.36 -0.351381 241.361)
(36.7376 67.5746 -0.359688 93.85 -0.422991 51.2108)
(-48.8425 59.4067 -0.438815 -97.796 -0.749816 -58.9967)
(-205.035 53.8871 -0.241493 -395.302 -0.811833 -246.409)
(-43.8067 34.281 -0.10713 169.17 -1.06306 48.1503)
(-4.22082 74.2291 -0.82703 75.6142 -0.662444 28.2252)
(-19.2102 67.8327 -0.98325 -77.4841 -0.344513 -37.7239)
(5.60863 20.7087 -0.479399 -171.194 0.0525961 -65.5656)
(-22.1013 35.486 -0.136829 160.265 -1.49938 55.8292)
(-18.526 63.2184 -0.924343 52.4163 -0.709492 15.0667)
(-9.82802 58.3506 -1.07903 -54.4236 0.0578819 -23.3814)
(-11.488 21.4135 -0.486894 -153.689 0.789992 -64.339)
(-29.5003 29.415 -0.0972676 113.97 -1.75584 37.7498)
(-19.2422 53.3091 -0.81275 38.7912 -0.701926 11.2922)
(-9.61291 49.4403 -0.933879 -39.3324 0.368795 -16.3333)
(-4.90214 18.0567 -0.386271 -107.385 1.34552 -42.7035)
(-30.3037 23.4881 -0.0205737 78.2682 -1.83757 26.5881)
(-19.6327 43.2205 -0.615939 26.8947 -0.658518 8.38261)
(-9.33968 40.7052 -0.708895 -25.976 0.554695 -10.1714)
(-4.25009 15.691 -0.25202 -70.7153 1.67773 -27.9955)
(-31.7184 16.8405 0.0364875 49.2711 -1.76099 17.7027)
(-20.058 33.1669 -0.470977 17.3081 -0.596282 6.36906)
(-9.48645 32.2358 -0.542545 -15.3593 0.593771 -5.27578)
(-3.25645 13.1852 -0.155573 -40.1414 1.75229 -15.7853)
(-31.204 9.86604 0.00546395 32.4599 -1.51064 14.1069)
(-22.8448 23.6679 -0.516752 8.99156 -0.50887 3.86502)
(-10.2371 23.8386 -0.59024 -7.50502 0.465773 -1.46725)
(-1.52022 10.1964 -0.18054 -17.1516 1.5081 -5.96109)
(-43.3651 7.48761 -0.223713 15.2392 -0.888888 4.47568)
(-39.308 15.1897 -0.916125 -1.28008 -0.289381 -5.11199)
(-9.25809 13.4437 -1.09609 0.411327 0.183743 3.6356)
(3.70921 5.38517 -0.571835 -2.49425 0.745617 3.09249)
(191.596 87.5028 -0.0107506 432.329 -0.16465 241.683)
(36.7332 67.3984 -0.105261 93.9972 -0.156162 51.3993)
(-48.802 59.1987 -0.129018 -97.5515 -0.23061 -59.0356)
(-204.787 53.7486 -0.0705876 -394.734 -0.226582 -246.442)
(-43.9896 34.2067 -0.0260663 169.128 -0.362071 48.8159)
(-4.35033 74.114 -0.245989 75.7744 -0.22206 28.5122)
(-19.2807 67.7259 -0.294687 -77.2109 -0.112039 -37.9795)
(5.50774 20.6799 -0.143343 -170.942 0.0254843 -66.3532)
(-22.301 35.4651 -0.0373947 160.341 -0.492179 56.5629)
(-18.7016 63.2066 -0.282236 52.5882 -0.232971 15.3449)
(-9.9287 58.3588 -0.330753 -54.1794 0.0163117 -23.6643)
(-11.5269 21.4349 -0.148143 -153.425 0.256895 -65.1193)
(-29.7051 29.4327 -0.0273811 114.107 -0.568962 38.3957)
(-19.417 53.3703 -0.252788 38.974 -0.228023 11.5396)
(-9.71095 49.5213 -0.290498 -39.1106 0.116616 -16.5606)
(-4.9406 18.116 -0.118551 -107.153 0.432809 -43.366)
(-30.4966 23.5222 -0.00526059 78.4483 -0.594249 27.0908)
(-19.7927 43.3133 -0.195295 27.0828 -0.213471 8.59216)
(-9.43045 40.8184 -0.223841 -25.7792 0.177184 -10.3058)
(-4.28559 15.7683 -0.0779375 -70.5066 0.539524 -28.4495)
(-31.8904 16.8686 0.0104105 49.4783 -0.571948 18.0648)
(-20.2008 33.2547 -0.154227 17.492 -0.194221 6.5478)
(-9.57408 32.3467 -0.17582 -15.1907 0.190297 -5.30542)
(-3.29716 13.2642 -0.0494825 -39.9558 0.564738 -16.0061)
(-31.3345 9.87159 -0.00348552 32.7045 -0.494791 14.3754)
(-22.9904 23.728 -0.176196 9.15607 -0.166954 4.01318)
(-10.3482 23.9192 -0.198497 -7.37059 0.149214 -1.40961)
(-1.56779 10.2631 -0.0612266 -16.9704 0.487128 -5.95771)
(-43.5123 7.50268 -0.0839283 15.4701 -0.29601 4.64973)
(-39.5341 15.2288 -0.315188 -1.14728 -0.0956427 -5.02177)
(-9.46818 13.4725 -0.372337 0.508568 0.059105 3.71866)
(3.5861 5.41299 -0.194018 -2.36754 0.241356 3.20437)
)
;

boundaryField
{
    interface
    {
        type            calculated;
        value           nonuniform List<symmTensor> 
192
(
(-21.2943 16.6833 4.12776 447.658 45.5191 125.441)
(-21.7072 8.11638 3.60894 210.821 -13.9245 23.7451)
(-21.4244 10.7958 4.47165 210.901 -9.14435 45.2068)
(-21.6556 9.08553 4.56705 151.595 -12.7697 35.6117)
(-22.2206 7.00586 4.72956 106.346 -11.7621 32.2351)
(-23.0048 4.40286 4.78557 67.655 -10.1668 28.2124)
(-23.7088 1.93819 4.6343 44.3931 -8.0521 27.8527)
(-22.8572 -0.611691 4.11436 32.3268 -4.47162 30.3426)
(-24.0402 17.7621 2.86326 441.2 27.8342 132.611)
(-24.8259 9.27232 2.80789 232.64 -5.469 40.8754)
(-25.3486 10.8037 2.97175 208.572 -13.0533 43.5012)
(-26.2681 9.20403 2.97428 150.909 -16.3 35.7884)
(-27.3365 6.95664 3.00761 103.126 -16.1663 31.2874)
(-28.2925 4.25897 3.03005 64.6135 -14.1815 28.0866)
(-28.5119 1.54363 2.95563 42.0501 -10.8911 28.6822)
(-25.4437 -1.27368 2.67659 32.0687 -6.01546 33.0666)
(-25.8066 18.8185 1.80635 448.947 13.6817 143.469)
(-26.6145 9.35273 2.00129 229.837 -3.62455 53.46)
(-27.2929 10.8108 2.05944 208.077 -9.7663 50.5276)
(-28.3857 9.17507 1.99826 150.121 -12.7986 37.6502)
(-29.568 6.86115 1.9679 101.898 -13.2143 29.0562)
(-30.4674 4.08608 1.96232 63.4988 -11.8945 23.2083)
(-30.2825 1.25617 1.93163 41.8209 -9.28371 22.4474)
(-26.0879 -1.71732 1.832 31.6434 -4.9512 25.4825)
(-27.0918 19.35 1.12928 453.272 5.58809 150.561)
(-27.8678 9.34828 1.43136 227.924 -3.11136 63.6557)
(-28.5635 10.8091 1.48706 207.977 -6.94312 58.9829)
(-29.6868 9.16949 1.43945 150.58 -9.08536 42.8959)
(-30.902 6.84094 1.40186 102.595 -9.60805 31.1333)
(-31.7083 4.02641 1.38617 64.4962 -8.88829 22.8537)
(-31.2459 1.13228 1.36852 43.4284 -7.18244 20.5434)
(-26.3759 -1.90479 1.32063 33.2967 -4.05244 22.6555)
(-28.0301 19.5645 0.703409 454.773 1.5814 154.271)
(-28.7787 9.32397 1.00514 226.864 -2.6851 69.9912)
(-29.4624 10.7905 1.06122 207.939 -4.8971 64.9922)
(-30.5794 9.15852 1.03799 151.057 -6.20673 47.3422)
(-31.7974 6.83032 1.01098 103.414 -6.60968 33.68)
(-32.5281 3.99414 0.996962 65.5783 -6.25174 23.7592)
(-31.8818 1.05681 0.9853 44.8859 -5.21887 20.3531)
(-26.5619 -2.0226 0.958335 34.731 -3.04329 21.7121)
(-28.6936 19.6277 0.425509 454.932 -0.0712426 156.041)
(-29.4216 9.29511 0.667959 226.26 -2.08875 73.6214)
(-30.0906 10.769 0.715099 207.974 -3.29808 68.7511)
(-31.1973 9.14651 0.707674 151.446 -4.03192 50.4117)
(-32.4025 6.82081 0.691099 104.049 -4.28647 35.7562)
(-33.0831 3.97209 0.682039 66.391 -4.11607 24.9092)
(-32.3183 1.00524 0.674242 45.9348 -3.5218 20.8744)
(-26.6968 -2.09562 0.656137 35.8782 -2.11518 21.8844)
(-29.1207 19.6339 0.227131 454.656 -0.449255 156.799)
(-29.837 9.2714 0.380301 225.901 -1.32361 75.5119)
(-30.497 10.7514 0.41045 208.009 -1.91753 70.8349)
(-31.6025 9.13589 0.409288 151.694 -2.28114 52.2157)
(-32.7794 6.81165 0.400529 104.447 -2.41594 37.0988)
(-33.4365 3.95566 0.395678 66.8801 -2.34086 25.7815)
(-32.6008 0.969169 0.389476 46.5574 -2.036 21.4271)
(-26.7934 -2.14062 0.375133 36.5952 -1.25168 22.2866)
(-29.3207 19.6272 0.0705821 454.426 -0.210512 157.069)
(-30.0309 9.25705 0.12224 225.734 -0.452716 76.3101)
(-30.6826 10.7403 0.132171 208.036 -0.630538 71.754)
(-31.7836 9.12918 0.132042 151.825 -0.739749 53.0437)
(-32.9493 6.80579 0.129482 104.642 -0.781568 37.746)
(-33.5946 3.94418 0.127843 67.112 -0.760523 26.2391)
(-32.7134 0.945362 0.124775 46.8532 -0.667601 21.7634)
(-26.7981 -2.15814 0.117877 36.9531 -0.418056 22.5852)
(39.1405 64.6105 -2.06839 280.129 2.70189 -9.89591)
(-74.0561 32.0718 -4.51796 112.153 -1.60608 -6.58201)
(-48.5035 43.2964 -5.72017 126.842 -1.54768 -3.43225)
(-49.5789 39.0161 -6.49103 87.486 -1.23459 -1.08294)
(-44.5931 34.3041 -7.10528 59.6416 -0.886359 0.453798)
(-42.9352 26.8992 -7.64215 34.2513 -0.757478 1.2335)
(-42.7486 18.603 -8.24343 17.653 -0.915487 1.26557)
(-51.6771 11.6036 -9.38204 4.52646 -1.15798 0.457423)
(-3.81139 45.9269 -1.57685 55.9664 -0.483503 -8.86103)
(-35.4029 68.9035 -3.06808 33.5256 -1.65061 -7.47223)
(-34.7003 73.6294 -3.73107 33.03 -1.64191 -5.63407)
(-33.5116 69.0763 -4.14286 21.1561 -1.28115 -4.1209)
(-31.6562 60.7442 -4.46051 11.9565 -0.833194 -3.11842)
(-31.1345 49.4541 -4.79831 3.77706 -0.506476 -2.61531)
(-32.2893 36.7532 -5.33408 -1.86333 -0.359505 -2.5331)
(-42.3156 21.8247 -6.6966 -5.67058 -0.254627 -2.55284)
(-24.7391 38.9131 -1.5115 -88.0161 -0.0555047 -8.11741)
(7.02353 62.9992 -2.76889 -46.8932 -1.38341 -7.63799)
(3.44076 68.4096 -3.28915 -47.3725 -1.49037 -6.5121)
(1.685 64.8617 -3.49567 -36.9086 -1.22211 -5.46795)
(-1.10534 57.687 -3.66513 -28.7476 -0.785928 -4.77829)
(-3.58437 47.7891 -3.90745 -21.1803 -0.395337 -4.45301)
(-6.10625 35.8749 -4.38403 -15.0225 -0.125411 -4.43404)
(-5.06919 19.5079 -5.65062 -6.75119 0.073839 -4.45479)
(-65.0294 38.9547 -1.69073 -277.797 3.75225 -7.19629)
(43.1917 18.4178 -2.93468 -117.4 -1.03952 -6.95742)
(17.353 28.5072 -3.40671 -129.777 -1.31013 -6.0602)
(17.531 26.8709 -3.64866 -92.3256 -1.22137 -5.18285)
(11.887 25.3646 -3.79605 -65.4876 -0.826358 -4.59224)
(8.76288 21.7592 -4.00933 -40.5923 -0.408019 -4.28296)
(7.01436 16.4806 -4.443 -22.4281 -0.0418897 -4.18265)
(11.1141 7.8994 -5.5968 -8.22458 0.337649 -4.21683)
(-4.72856 -12.4075 -1.23782 -391.512 -41.0605 -134.848)
(-3.53436 -6.01871 0.753508 -200.108 8.38803 -28.7863)
(-2.61949 -7.88106 0.684374 -192.463 4.64057 -42.2379)
(-1.75353 -6.18128 1.01395 -135.318 9.00841 -27.1601)
(-1.05742 -4.45071 1.14953 -91.2176 9.18846 -20.5252)
(-0.347615 -2.59985 1.2985 -52.9502 8.7287 -14.7426)
(0.766395 -1.38245 1.45397 -26.3227 7.01176 -12.1673)
(3.68898 -1.84788 1.52645 -12.2933 2.73084 -12.2352)
(-5.54482 -13.1091 -1.18045 -381.661 -28.1994 -141.433)
(-5.1483 -7.16426 -0.204702 -223.156 -0.249699 -48.4755)
(-4.87077 -7.90293 0.130735 -193.397 8.32439 -42.9821)
(-4.41456 -6.2579 0.424223 -138.042 12.9888 -30.6637)
(-3.92474 -4.33679 0.605055 -91.5548 14.3535 -23.3846)
(-3.31572 -2.40413 0.704609 -52.9009 13.6486 -18.3428)
(-2.21849 -1.03213 0.714702 -25.558 10.9503 -15.7708)
(0.965029 -1.43101 0.602181 -12.4311 5.46424 -16.048)
(-6.02082 -13.7988 -0.757966 -387.784 -15.6875 -154.299)
(-5.79292 -7.29591 -0.277216 -222.503 -0.662581 -65.1119)
(-5.70457 -7.93812 -0.00252077 -194.522 6.11881 -55.358)
(-5.37654 -6.24616 0.269127 -139.068 10.3351 -38.5532)
(-4.92559 -4.24059 0.464232 -91.9196 12.0462 -27.249)
(-4.28626 -2.23995 0.568484 -52.8416 11.817 -19.0624)
(-3.11974 -0.789496 0.563388 -25.0889 9.78561 -13.9091)
(-0.0314936 -0.984516 0.358083 -10.918 4.87258 -11.0578)
(-6.34798 -14.048 -0.441779 -390.645 -8.17118 -162.099)
(-6.16057 -7.29665 -0.209606 -221.477 -0.152736 -77.0952)
(-6.14815 -7.90858 -0.0169566 -194.39 4.24184 -65.871)
(-5.86778 -6.18297 0.191483 -139.206 7.29647 -46.002)
(-5.41232 -4.13286 0.359639 -91.989 8.82143 -31.3427)
(-4.71883 -2.0857 0.455522 -52.7502 8.93204 -20.2049)
(-3.4629 -0.585001 0.450393 -24.5946 7.62366 -12.5049)
(-0.462837 -0.670083 0.25427 -10.0323 3.8971 -7.45737)
(-6.5785 -14.0577 -0.244829 -390.973 -4.03303 -166.037)
(-6.40558 -7.25582 -0.133841 -220.674 0.217342 -84.4219)
(-6.42353 -7.84539 -0.00110384 -193.861 2.93584 -72.7988)
(-6.15805 -6.0974 0.14656 -138.839 4.93607 -51.337)
(-5.68679 -4.02124 0.272566 -91.6988 6.0625 -34.5805)
(-4.9537 -1.9468 0.3454 -52.4058 6.27747 -21.3628)
(-3.65781 -0.414964 0.333944 -24.002 5.47601 -11.7983)
(-0.723088 -0.435874 0.171367 -9.27907 2.83199 -5.24911)
(-6.73 -13.9807 -0.127571 -390.263 -1.85667 -167.847)
(-6.56206 -7.20345 -0.074333 -220.016 0.341286 -88.6132)
(-6.58886 -7.7772 0.0139267 -193.294 1.95197 -76.9553)
(-6.32389 -6.01562 0.111869 -138.354 3.17411 -54.7099)
(-5.83622 -3.9233 0.19667 -91.2647 3.91009 -36.772)
(-5.07439 -1.83499 0.244404 -51.9615 4.09836 -22.2892)
(-3.76952 -0.289325 0.230777 -23.4381 3.62305 -11.5573)
(-0.887968 -0.277302 0.108876 -8.73814 1.88993 -4.17731)
(-6.81992 -13.8986 -0.0590131 -389.418 -0.760628 -168.596)
(-6.65353 -7.15896 -0.0346158 -219.527 0.277318 -90.8377)
(-6.68114 -7.72256 0.0163033 -192.847 1.12589 -79.2404)
(-6.41271 -5.95401 0.0721232 -137.955 1.78072 -56.6326)
(-5.91391 -3.85302 0.120201 -90.8906 2.18894 -38.0814)
(-5.13882 -1.75838 0.146081 -51.59 2.3067 -22.9094)
(-3.82982 -0.207875 0.135491 -23.0126 2.0532 -11.5229)
(-0.991019 -0.179472 0.0593624 -8.3816 1.07582 -3.72821)
(-6.86032 -13.85 -0.0168304 -388.9 -0.199792 -168.85)
(-6.6937 -7.13408 -0.00965691 -219.263 0.104204 -91.7924)
(-6.7208 -7.69296 0.00698517 -192.603 0.368859 -80.2441)
(-6.45032 -5.92172 0.025042 -137.737 0.574702 -57.4963)
(-5.9468 -3.81698 0.0404733 -90.6825 0.70491 -38.6864)
(-5.16639 -1.71972 0.0485597 -51.3852 0.744189 -23.2154)
(-3.85434 -0.168991 0.0446796 -22.787 0.664236 -11.5404)
(-1.04819 -0.133432 0.01837 -8.21134 0.348849 -3.58754)
(-55.9319 12.885 -2.7259 -0.900315 -2.13417 0.791374)
(-50.7199 12.1755 0.583138 0.964165 -1.93987 4.9999)
(-51.5735 12.2718 0.0671235 2.41441 -1.49898 0.275373)
(-52.0992 12.4399 -0.360285 3.54613 -1.14439 -1.75068)
(-52.9508 12.6246 -0.602993 4.38518 -0.851676 -2.84604)
(-53.6019 12.7732 -0.572518 4.97763 -0.598823 -3.07294)
(-54.0413 12.8764 -0.400391 5.34145 -0.365703 -3.00649)
(-54.2902 12.9243 -0.144971 5.44578 -0.126169 -2.95401)
(-48.234 9.42319 -4.63962 -2.78871 -0.47904 -7.98033)
(-43.6309 8.24474 -2.71923 -1.81057 -0.49457 -7.08643)
(-43.9494 8.04727 -2.40095 -0.795335 -0.360352 -7.19339)
(-45.1783 8.06536 -2.51487 0.0370247 -0.248957 -7.01666)
(-46.4247 8.12622 -2.38164 0.650862 -0.174588 -6.95809)
(-47.3589 8.18302 -1.91186 1.08221 -0.119575 -6.84893)
(-47.9533 8.22801 -1.22306 1.36277 -0.0705405 -6.74003)
(-48.2187 8.26041 -0.420012 1.52338 -0.0230423 -6.65965)
(-3.88498 5.94575 -4.57627 -4.2582 0.201743 -2.03752)
(-5.98181 4.95008 -4.30404 -3.5546 0.140054 -3.20898)
(-7.80487 4.69289 -3.99217 -2.80411 0.139909 -1.07773)
(-9.54862 4.6309 -3.67184 -2.20724 0.123928 0.737509)
(-10.8801 4.61655 -3.15609 -1.77775 0.0957392 1.84789)
(-11.7997 4.61387 -2.40561 -1.48236 0.0659126 2.40919)
(-12.3712 4.61454 -1.49822 -1.29505 0.0405645 2.65465)
(-12.6378 4.61473 -0.508265 -1.18863 0.0148028 2.74693)
(13.4371 4.83752 -3.40481 -4.04502 0.569832 -4.45486)
(9.36392 3.96224 -2.9551 -3.48253 0.316078 -7.10519)
(8.0205 3.6293 -2.80795 -3.00803 0.219525 -2.17751)
(6.71815 3.49414 -2.43717 -2.62862 0.15295 1.24017)
(5.8361 3.4144 -2.01178 -2.35794 0.101267 3.32101)
(5.18852 3.36564 -1.4911 -2.17798 0.0615114 4.28228)
(4.76974 3.33562 -0.915861 -2.06956 0.0331357 4.64998)
(4.55889 3.3181 -0.309285 -2.02 0.0107292 4.75044)
)
;
    }
    symmetry
    {
        type            symmetryPlane;
    }
    bottom
    {
        type            calculated;
        value           nonuniform List<symmTensor> 
32
(
(211.256 82.8937 3.77225 320.752 93.514 212.168)
(208.07 92.8395 2.09682 314.43 46.2964 204.911)
(214.26 97.6152 1.06009 323.598 22.3461 209.872)
(217.815 99.3193 0.485458 329.009 10.0801 213.081)
(219.371 99.7967 0.194843 331.417 4.0304 214.554)
(219.964 99.8481 0.0617903 332.357 1.27799 215.137)
(220.14 99.7908 0.011323 332.647 0.234354 215.319)
(220.172 99.7403 -3.75366e-05 332.706 -0.000777311 215.355)
(40.7148 33.2444 0.47362 60.4999 26.1585 40.4855)
(42.9783 43.82 0.321862 63.261 13.5032 42.033)
(45.8905 45.4952 0.154919 67.5616 6.27237 44.7881)
(47.2493 45.0913 0.0609351 69.6577 2.49162 46.1499)
(47.9352 44.3504 0.0166228 70.7558 0.691399 46.8692)
(48.306 43.7251 -0.000710373 71.3653 -0.0299778 47.2698)
(48.5052 43.311 -0.00448666 71.6982 -0.191177 47.4888)
(48.5934 43.1087 -0.00208434 71.8468 -0.089237 47.5865)
(-57.9331 28.2872 -0.495075 -86.8746 -29.9878 -57.8752)
(-51.7459 38.4446 -0.389693 -78.317 -17.4398 -52.4282)
(-52.2301 39.4512 -0.234426 -79.1011 -10.2197 -53.0744)
(-52.5297 38.5746 -0.133564 -79.4861 -5.95394 -53.3744)
(-52.5281 37.5265 -0.0743974 -79.4158 -3.40919 -53.3402)
(-52.3816 36.7031 -0.0400946 -79.1471 -1.87876 -53.1628)
(-52.2192 36.1686 -0.019549 -78.8739 -0.929695 -52.9792)
(-52.1199 35.9095 -0.00582991 -78.7111 -0.279277 -52.8695)
(-214.968 58.5902 -3.31081 -315.74 -86.1608 -212.35)
(-204.19 65.957 -1.9923 -301.474 -46.4189 -205.619)
(-209.453 67.9148 -1.09649 -309.205 -24.7111 -212.067)
(-212.117 67.869 -0.572187 -312.981 -12.8782 -215.024)
(-212.823 67.2789 -0.286066 -313.913 -6.49183 -215.76)
(-212.685 66.6707 -0.135697 -313.644 -3.10799 -215.589)
(-212.334 66.2234 -0.0581812 -313.095 -1.34197 -215.204)
(-212.092 65.9926 -0.0159055 -312.726 -0.368223 -214.942)
)
;
    }
}


// ************************************************************************* //
