/*--------------------------------*- C++ -*----------------------------------*\
| =========                 |                                                 |
| \\      /  F ield         | foam-extend: Open Source CFD                    |
|  \\    /   O peration     | Version:     3.1                                |
|   \\  /    A nd           | Web:         http://www.extend-project.de       |
|    \\/     M anipulation  |                                                 |
\*---------------------------------------------------------------------------*/
FoamFile
{
    version     2.0;
    format      ascii;
    class       surfaceScalarField;
    location    "1.7";
    object      meshPhi;
}
// * * * * * * * * * * * * * * * * * * * * * * * * * * * * * * * * * * * * * //

dimensions      [0 3 -1 0 0 0 0];

internalField   nonuniform List<scalar> 
41600
(
-4.51657e-08
-9.52376e-09
-8.75642e-11
9.00804e-11
-8.69585e-08
-2.81633e-08
-2.65602e-10
2.73229e-10
-1.25018e-07
-4.61766e-08
-4.57169e-10
4.70311e-10
-1.60309e-07
-6.41954e-08
-6.82411e-10
7.0202e-10
-1.93611e-07
-8.30678e-08
-9.68522e-10
9.96204e-10
-2.25518e-07
-1.03595e-07
-1.35191e-09
1.39003e-09
-2.56411e-07
-1.26577e-07
-1.88556e-09
1.93743e-09
-2.86393e-07
-1.52854e-07
-2.65105e-09
2.72114e-09
-3.15182e-07
-1.83334e-07
-3.77878e-09
3.87287e-09
-3.41941e-07
-2.19006e-07
-5.48332e-09
5.60849e-09
-3.65089e-07
-2.60925e-07
-8.12612e-09
8.28951e-09
-3.8217e-07
-3.10165e-07
-1.23244e-08
1.25286e-08
-3.90077e-07
-3.67659e-07
-1.91168e-08
1.93469e-08
-3.86284e-07
-4.33536e-07
-3.00623e-08
3.02772e-08
-3.71704e-07
-5.02771e-07
-4.6076e-08
4.65247e-08
-6.61679e-07
-8.94683e-08
1.29157e-07
-1.34743e-07
-1.86378e-08
-2.60823e-10
2.68273e-10
-2.59406e-07
-5.51045e-08
-7.89892e-10
8.12467e-10
-3.72914e-07
-9.03137e-08
-1.35687e-09
1.39574e-09
-4.7815e-07
-1.2548e-07
-2.02089e-09
2.0788e-09
-5.77451e-07
-1.62236e-07
-2.86021e-09
2.94179e-09
-6.72617e-07
-2.02112e-07
-3.97759e-09
4.08967e-09
-7.64843e-07
-2.4662e-07
-5.52012e-09
5.67219e-09
-8.54554e-07
-2.97327e-07
-7.71011e-09
7.91485e-09
-9.41089e-07
-3.559e-07
-1.08949e-08
1.11689e-08
-1.02224e-06
-4.24099e-07
-1.56317e-08
1.59959e-08
-1.09369e-06
-5.03687e-07
-2.28309e-08
2.3308e-08
-1.14855e-06
-5.96178e-07
-3.39841e-08
3.45894e-08
-1.17778e-06
-7.02183e-07
-5.14574e-08
5.21699e-08
-1.17339e-06
-8.19605e-07
-7.84693e-08
7.92099e-08
-1.13653e-06
-9.36388e-07
-1.16117e-07
1.17373e-07
-1.10958e-06
-1.97099e-07
2.61921e-07
-2.22132e-07
-2.69729e-08
-4.23057e-10
4.35114e-10
-4.27594e-07
-7.9726e-08
-1.27813e-09
1.31465e-09
-6.14604e-07
-1.30592e-07
-2.18796e-09
2.25075e-09
-7.87929e-07
-1.81284e-07
-3.24478e-09
3.33811e-09
-9.51452e-07
-2.34108e-07
-4.5671e-09
4.69821e-09
-1.10823e-06
-2.91193e-07
-6.30576e-09
6.48529e-09
-1.26041e-06
-3.54615e-07
-8.67032e-09
8.91283e-09
-1.40903e-06
-4.26482e-07
-1.19663e-08
1.22913e-08
-1.55357e-06
-5.08981e-07
-1.66526e-08
1.7086e-08
-1.69128e-06
-6.04338e-07
-2.34328e-08
2.40079e-08
-1.81631e-06
-7.14621e-07
-3.33926e-08
3.41488e-08
-1.91882e-06
-8.41236e-07
-4.81799e-08
4.91545e-08
-1.98514e-06
-9.83726e-07
-7.01306e-08
7.13298e-08
-2.00168e-06
-1.13709e-06
-1.01808e-07
1.03175e-07
-1.96663e-06
-1.28363e-06
-1.42482e-07
1.4439e-07
-1.49336e-06
-2.08038e-07
2.54829e-07
-3.0599e-07
-3.42004e-08
-5.64983e-10
5.81114e-10
-5.88916e-07
-1.01055e-07
-1.70176e-09
1.75058e-09
-8.46293e-07
-1.65413e-07
-2.89966e-09
2.98342e-09
-1.0847e-06
-2.29374e-07
-4.27444e-09
4.39859e-09
-1.30953e-06
-2.95767e-07
-5.96938e-09
6.14321e-09
-1.52515e-06
-3.67163e-07
-8.1592e-09
8.39611e-09
-1.73483e-06
-4.46012e-07
-1.10752e-08
1.13936e-08
-1.94057e-06
-5.34743e-07
-1.50378e-08
1.54622e-08
-2.14266e-06
-6.35795e-07
-2.05021e-08
2.1065e-08
-2.33898e-06
-7.51562e-07
-2.81185e-08
2.88618e-08
-2.52389e-06
-8.84132e-07
-3.88077e-08
3.97824e-08
-2.68699e-06
-1.03464e-06
-5.38172e-08
5.50773e-08
-2.81243e-06
-1.20178e-06
-7.46159e-08
7.61929e-08
-2.8818e-06
-1.37862e-06
-1.022e-07
1.04059e-07
-2.88543e-06
-1.54432e-06
-1.34293e-07
1.36566e-07
-1.77141e-06
-1.79558e-07
2.18002e-07
-3.8505e-07
-4.00521e-08
-6.80293e-10
6.99803e-10
-7.40917e-07
-1.183e-07
-2.04202e-09
2.101e-09
-1.06441e-06
-1.93491e-07
-3.46026e-09
3.56124e-09
-1.36378e-06
-2.67981e-07
-5.06327e-09
5.21248e-09
-1.64588e-06
-3.44957e-07
-7.00315e-09
7.21114e-09
-1.91635e-06
-4.27253e-07
-9.45469e-09
9.73659e-09
-2.17971e-06
-5.17497e-07
-1.26344e-08
1.30108e-08
-2.43921e-06
-6.18202e-07
-1.68219e-08
1.73202e-08
-2.69659e-06
-7.31801e-07
-2.23825e-08
2.3038e-08
-2.95143e-06
-8.6059e-07
-2.97846e-08
3.06422e-08
-3.20015e-06
-1.00648e-06
-3.96009e-08
4.07138e-08
-3.43454e-06
-1.17042e-06
-5.24618e-08
5.38839e-08
-3.63988e-06
-1.35096e-06
-6.88096e-08
7.05736e-08
-3.79446e-06
-1.54075e-06
-8.8256e-08
9.03188e-08
-3.87426e-06
-1.71772e-06
-1.07912e-07
1.10212e-07
-1.95267e-06
-1.328e-07
1.61082e-07
-4.58173e-07
-4.43283e-08
-7.66151e-10
7.8826e-10
-8.81395e-07
-1.30881e-07
-2.29108e-09
2.35784e-09
-1.26574e-06
-2.13894e-07
-3.85831e-09
3.97231e-09
-1.62095e-06
-2.95857e-07
-5.5986e-09
5.76638e-09
-1.95518e-06
-3.80143e-07
-7.65943e-09
7.8921e-09
-2.27527e-06
-4.69677e-07
-1.01979e-08
1.05112e-08
-2.58692e-06
-5.67066e-07
-1.33917e-08
1.38068e-08
-2.89478e-06
-6.7469e-07
-1.74477e-08
1.79925e-08
-3.20231e-06
-7.94726e-07
-2.26021e-08
2.33113e-08
-3.51143e-06
-9.29105e-07
-2.90997e-08
3.00155e-08
-3.82192e-06
-1.07934e-06
-3.71412e-08
3.83104e-08
-4.13006e-06
-1.24621e-06
-4.67851e-08
4.82477e-08
-4.42604e-06
-1.42872e-06
-5.76767e-08
5.94452e-08
-4.68897e-06
-1.62127e-06
-6.85241e-08
7.05249e-08
-4.87821e-06
-1.80394e-06
-7.62421e-08
7.83242e-08
-2.04521e-06
-8.48924e-08
1.05945e-07
-5.24382e-07
-4.69014e-08
-8.2289e-10
8.46802e-10
-1.00846e-06
-1.38428e-07
-2.45093e-09
2.52303e-09
-1.44754e-06
-2.26053e-07
-4.10025e-09
4.22299e-09
-1.85261e-06
-3.12282e-07
-5.89656e-09
6.07636e-09
-2.23289e-06
-4.00514e-07
-7.97375e-09
8.22163e-09
-2.59619e-06
-4.93606e-07
-1.04615e-08
1.07929e-08
-2.94925e-06
-5.93987e-07
-1.34893e-08
1.39244e-08
-3.29789e-06
-7.03713e-07
-1.71842e-08
1.77494e-08
-3.64709e-06
-8.24476e-07
-2.1655e-08
2.23818e-08
-4.00105e-06
-9.57551e-07
-2.69495e-08
2.78737e-08
-4.36288e-06
-1.10369e-06
-3.29773e-08
3.41351e-08
-4.734e-06
-1.263e-06
-3.94043e-08
4.08198e-08
-5.11187e-06
-1.43468e-06
-4.54324e-08
4.70939e-08
-5.48313e-06
-1.61605e-06
-4.94085e-08
5.12108e-08
-5.80111e-06
-1.79562e-06
-4.84315e-08
5.01992e-08
-2.05793e-06
-4.84633e-08
6.5327e-08
-5.82873e-07
-8.53317e-10
8.78277e-10
-4.77133e-08
-1.12059e-06
-2.5312e-09
2.60632e-09
-1.40784e-07
-1.60763e-06
-4.20593e-09
4.33338e-09
-2.29749e-07
-2.05591e-06
-5.99351e-09
6.17928e-09
-3.17032e-07
-2.47543e-06
-8.00991e-09
8.2643e-09
-4.0592e-07
-2.8747e-06
-1.03552e-08
1.06924e-08
-4.99082e-07
-3.2611e-06
-1.31127e-08
1.35513e-08
-5.98649e-07
-3.64119e-06
-1.63409e-08
1.69041e-08
-7.06233e-07
-4.02087e-06
-2.005e-08
2.07643e-08
-8.22877e-07
-4.40559e-06
-2.41537e-08
2.50472e-08
-9.48953e-07
-4.80037e-06
-2.83951e-08
2.9494e-08
-1.08398e-06
-5.20946e-06
-3.2253e-08
3.35713e-08
-1.22635e-06
-5.63456e-06
-3.47789e-08
3.63055e-08
-1.3729e-06
-6.06814e-06
-3.43021e-08
3.59868e-08
-1.51764e-06
-6.47152e-06
-2.82911e-08
3.01321e-08
-1.64611e-06
-3.26695e-08
4.86309e-08
-1.93362e-06
-4.58136e-08
-9.94896e-09
-8.17475e-11
-8.82107e-08
-2.9435e-08
-2.47929e-10
-1.26836e-07
-4.83096e-08
-4.26587e-10
-1.62679e-07
-6.72619e-08
-6.36347e-10
-1.96538e-07
-8.72093e-08
-9.02254e-10
-2.29012e-07
-1.09024e-07
-1.25757e-09
-2.60477e-07
-1.33586e-07
-1.7502e-09
-2.91012e-07
-1.61825e-07
-2.45266e-09
-3.20288e-07
-1.94753e-07
-3.47828e-09
-3.47401e-07
-2.33482e-07
-5.00751e-09
-3.70699e-07
-2.79212e-07
-7.32901e-09
-3.87731e-07
-3.33172e-07
-1.08962e-08
-3.95645e-07
-3.96431e-07
-1.63666e-08
-3.92763e-07
-4.69071e-07
-2.44487e-08
-3.81949e-07
-5.45699e-07
-3.48341e-08
-6.73442e-07
-5.56774e-08
-1.3667e-07
-1.94679e-08
-2.43546e-10
-2.63131e-07
-5.75864e-08
-7.37456e-10
-3.78322e-07
-9.4474e-08
-1.2663e-09
-4.85202e-07
-1.31456e-07
-1.88478e-09
-5.86161e-07
-1.70297e-07
-2.66503e-09
-6.83023e-07
-2.12664e-07
-3.70101e-09
-7.76971e-07
-2.60218e-07
-5.12566e-09
-8.68362e-07
-3.14695e-07
-7.13658e-09
-9.56407e-07
-3.77952e-07
-1.00355e-08
-1.0387e-06
-4.51967e-07
-1.42902e-08
-1.11068e-06
-5.38741e-07
-2.06245e-08
-1.16537e-06
-6.40004e-07
-3.01251e-08
-1.19423e-06
-7.56445e-07
-4.42572e-08
-1.19117e-06
-8.85626e-07
-6.43451e-08
-1.16223e-06
-1.01485e-06
-8.90121e-08
-1.15651e-06
-1.27896e-07
-2.25291e-07
-2.81698e-08
-3.9508e-10
-4.33698e-07
-8.33031e-08
-1.19338e-09
-6.23468e-07
-1.36583e-07
-2.04204e-09
-7.9949e-07
-1.89878e-07
-3.02646e-09
-9.6574e-07
-2.4568e-07
-4.25589e-09
-1.12532e-06
-3.0631e-07
-5.86829e-09
-1.28038e-06
-3.74047e-07
-8.05298e-09
-1.43186e-06
-4.51228e-07
-1.10813e-08
-1.57904e-06
-5.4029e-07
-1.53512e-08
-1.71887e-06
-6.4374e-07
-2.145e-08
-1.84507e-06
-7.63925e-07
-3.02326e-08
-1.94745e-06
-9.02452e-07
-4.28749e-08
-2.01254e-06
-1.0588e-06
-6.07338e-08
-2.0286e-06
-1.22732e-06
-8.45096e-08
-1.99969e-06
-1.38958e-06
-1.11478e-07
-1.55896e-06
-1.42886e-07
-3.10306e-07
-3.57113e-08
-5.27644e-10
-5.97253e-07
-1.05568e-07
-1.58893e-09
-8.58398e-07
-1.72963e-07
-2.70624e-09
-1.10049e-06
-2.40186e-07
-3.98676e-09
-1.32906e-06
-3.10296e-07
-5.56256e-09
-1.54855e-06
-3.86093e-07
-7.59338e-09
-1.76225e-06
-4.7027e-07
-1.02881e-08
-1.97207e-06
-5.65521e-07
-1.39306e-08
-2.17809e-06
-6.74573e-07
-1.89135e-08
-2.3778e-06
-8.00131e-07
-2.57741e-08
-2.56499e-06
-9.4458e-07
-3.52233e-08
-2.72855e-06
-1.10925e-06
-4.8105e-08
-2.85221e-06
-1.29269e-06
-6.51141e-08
-2.91844e-06
-1.48715e-06
-8.59249e-08
-2.9227e-06
-1.67104e-06
-1.07189e-07
-1.85445e-06
-1.282e-07
-3.90422e-07
-4.18125e-08
-6.35327e-10
-7.51292e-07
-1.23556e-07
-1.90652e-09
-1.07946e-06
-2.02272e-07
-3.22913e-09
-1.38342e-06
-2.80534e-07
-4.72193e-09
-1.67019e-06
-3.61785e-07
-6.52502e-09
-1.94552e-06
-4.49113e-07
-8.79813e-09
-2.21399e-06
-5.45409e-07
-1.17365e-08
-2.4788e-06
-6.53465e-07
-1.55866e-08
-2.74149e-06
-7.76018e-07
-2.06605e-08
-3.00127e-06
-9.1568e-07
-2.73373e-08
-3.25393e-06
-1.07468e-06
-3.60367e-08
-3.49029e-06
-1.25418e-06
-4.7115e-08
-3.6945e-06
-1.45265e-06
-6.05296e-08
-3.84414e-06
-1.66196e-06
-7.51546e-08
-3.9177e-06
-1.85906e-06
-8.77648e-08
-2.04931e-06
-9.8211e-08
-4.6448e-07
-4.6266e-08
-7.15469e-10
-8.93569e-07
-1.36662e-07
-2.13884e-09
-1.2834e-06
-2.23541e-07
-3.60006e-09
-1.64398e-06
-3.09622e-07
-5.22023e-09
-1.98369e-06
-3.9855e-07
-7.13509e-09
-2.3095e-06
-4.93512e-07
-9.48798e-09
-2.62725e-06
-5.9738e-07
-1.24387e-08
-2.94155e-06
-7.12807e-07
-1.61681e-08
-3.25576e-06
-8.4226e-07
-2.08733e-08
-3.57151e-06
-9.87977e-07
-2.67409e-08
-3.88799e-06
-1.15179e-06
-3.38832e-08
-4.20051e-06
-1.33475e-06
-4.22182e-08
-4.49763e-06
-1.536e-06
-5.11647e-08
-4.75617e-06
-1.74946e-06
-5.91614e-08
-4.93339e-06
-1.9541e-06
-6.33182e-08
-2.1526e-06
-6.54287e-08
-5.31486e-07
-4.89403e-08
-7.684e-10
-1.02217e-06
-1.44507e-07
-2.28781e-09
-1.46741e-06
-2.36185e-07
-3.82518e-09
-1.8785e-06
-3.26712e-07
-5.49696e-09
-2.2649e-06
-4.1976e-07
-7.4262e-09
-2.63465e-06
-5.18447e-07
-9.73112e-09
-2.99459e-06
-6.25449e-07
-1.25275e-08
-3.35061e-06
-7.43071e-07
-1.59238e-08
-3.70767e-06
-8.7326e-07
-2.00052e-08
-4.06976e-06
-1.01755e-06
-2.47898e-08
-4.43961e-06
-1.17697e-06
-3.01515e-08
-4.81781e-06
-1.35191e-06
-3.57158e-08
-5.20031e-06
-1.54188e-06
-4.06367e-08
-5.57075e-06
-1.74436e-06
-4.32873e-08
-5.87565e-06
-1.94761e-06
-4.12314e-08
-2.17218e-06
-3.96001e-08
-5.90627e-07
-7.96761e-10
-4.97763e-08
-1.13554e-06
-2.36249e-09
-1.46932e-07
-1.62927e-06
-3.92316e-09
-2.39985e-07
-2.08407e-06
-5.58626e-09
-3.31584e-07
-2.51021e-06
-7.45822e-09
-4.25284e-07
-2.91643e-06
-9.63004e-09
-5.23994e-07
-3.31027e-06
-1.21754e-08
-6.3007e-07
-3.69839e-06
-1.51413e-08
-7.45333e-07
-4.08671e-06
-1.85263e-08
-8.71027e-07
-4.48061e-06
-2.22349e-08
-1.0077e-06
-4.88483e-06
-2.60071e-08
-1.15504e-06
-5.30304e-06
-2.93343e-08
-1.31154e-06
-5.73566e-06
-3.13096e-08
-1.47404e-06
-6.17229e-06
-3.04094e-08
-1.63621e-06
-6.566e-06
-2.45781e-08
-1.7824e-06
-2.72588e-08
-2.03587e-06
-4.63795e-08
-1.03345e-08
-7.29256e-11
-8.93057e-08
-3.05873e-08
-2.21114e-10
-1.28426e-07
-5.02384e-08
-3.8018e-10
-1.64747e-07
-7.00245e-08
-5.66414e-10
-1.99079e-07
-9.09185e-08
-8.01516e-10
-2.32024e-07
-1.13846e-07
-1.11381e-09
-2.63949e-07
-1.39736e-07
-1.54312e-09
-2.9491e-07
-1.69565e-07
-2.14776e-09
-3.24542e-07
-2.0438e-07
-3.01485e-09
-3.51901e-07
-2.45292e-07
-4.27463e-09
-3.75321e-07
-2.93429e-07
-6.11711e-09
-3.92437e-07
-3.49792e-07
-8.80111e-09
-4.00705e-07
-4.14876e-07
-1.26183e-08
-3.99059e-07
-4.87583e-07
-1.77082e-08
-3.90778e-07
-5.61083e-07
-2.34754e-08
-6.86401e-07
-3.29979e-08
-1.38353e-07
-2.02206e-08
-2.17309e-10
-2.66387e-07
-5.98353e-08
-6.57823e-10
-3.8305e-07
-9.82364e-08
-1.12876e-09
-4.91354e-07
-1.3684e-07
-1.67806e-09
-5.93724e-07
-1.77518e-07
-2.36827e-09
-6.91993e-07
-2.22038e-07
-3.27949e-09
-7.87323e-07
-2.72157e-07
-4.52232e-09
-8.80005e-07
-3.29696e-07
-6.25553e-09
-9.69143e-07
-3.96572e-07
-8.71083e-09
-1.0522e-06
-4.74754e-07
-1.22246e-08
-1.12454e-06
-5.66094e-07
-1.72678e-08
-1.17934e-06
-6.71842e-07
-2.44456e-08
-1.20878e-06
-7.91549e-07
-3.43581e-08
-1.20826e-06
-9.20521e-07
-4.70794e-08
-1.18503e-06
-1.04344e-06
-6.08129e-08
-1.16833e-06
-7.78981e-08
-2.28048e-07
-2.92553e-08
-3.52578e-10
-4.39034e-07
-8.65448e-08
-1.06468e-09
-6.31214e-07
-1.42002e-07
-1.82056e-09
-8.0957e-07
-1.97624e-07
-2.69514e-09
-9.78141e-07
-2.56052e-07
-3.7833e-09
-1.14005e-06
-3.19749e-07
-5.20276e-09
-1.29741e-06
-3.91127e-07
-7.11094e-09
-1.45107e-06
-4.72635e-07
-9.72577e-09
-1.60014e-06
-5.66786e-07
-1.3352e-08
-1.74134e-06
-6.76062e-07
-1.84071e-08
-1.86816e-06
-8.02576e-07
-2.5434e-08
-1.9704e-06
-9.47232e-07
-3.50466e-08
-2.03527e-06
-1.10788e-06
-4.76694e-08
-2.05269e-06
-1.27576e-06
-6.28337e-08
-2.02859e-06
-1.42896e-06
-7.78523e-08
-1.57322e-06
-9.06926e-08
-3.14072e-07
-3.70815e-08
-4.70942e-10
-6.04538e-07
-1.09657e-07
-1.41773e-09
-8.68972e-07
-1.79793e-07
-2.41304e-09
-1.11425e-06
-2.49935e-07
-3.55099e-09
-1.346e-06
-3.23326e-07
-4.94639e-09
-1.5687e-06
-4.02938e-07
-6.73568e-09
-1.78561e-06
-4.91621e-07
-9.09249e-09
-1.99852e-06
-5.92199e-07
-1.22444e-08
-2.2073e-06
-7.0748e-07
-1.64893e-08
-2.40909e-06
-8.4013e-07
-2.22006e-08
-2.59727e-06
-9.92232e-07
-2.9806e-08
-2.7604e-06
-1.16427e-06
-3.9674e-08
-2.88231e-06
-1.35284e-06
-5.17861e-08
-2.94662e-06
-1.54651e-06
-6.50951e-08
-2.95125e-06
-1.71963e-06
-7.67537e-08
-1.8732e-06
-8.45223e-08
-3.95108e-07
-4.3409e-08
-5.67106e-10
-7.60353e-07
-1.28319e-07
-1.70122e-09
-1.09262e-06
-2.10217e-07
-2.8795e-09
-1.40054e-06
-2.91857e-07
-4.20635e-09
-1.69127e-06
-3.76887e-07
-5.80369e-09
-1.97063e-06
-4.68586e-07
-7.80797e-09
-2.24316e-06
-5.70014e-07
-1.03814e-08
-2.51197e-06
-6.84103e-07
-1.37206e-08
-2.77835e-06
-8.13666e-07
-1.80576e-08
-3.04108e-06
-9.61264e-07
-2.36429e-08
-3.29535e-06
-1.1288e-06
-3.06916e-08
-3.53122e-06
-1.31654e-06
-3.92457e-08
-3.73212e-06
-1.52089e-06
-4.88524e-08
-3.87569e-06
-1.72979e-06
-5.81243e-08
-3.94315e-06
-1.91567e-06
-6.45855e-08
-2.07422e-06
-6.75421e-08
-4.69981e-07
-4.80238e-08
-6.3868e-10
-9.04202e-07
-1.41903e-07
-1.90859e-09
-1.29882e-06
-2.32274e-07
-3.21041e-09
-1.66405e-06
-3.22046e-07
-4.65069e-09
-2.00841e-06
-4.15083e-07
-6.34766e-09
-2.33897e-06
-5.14769e-07
-8.42375e-09
-2.66155e-06
-6.2415e-07
-1.10116e-08
-2.98071e-06
-7.46013e-07
-1.42533e-08
-3.29952e-06
-8.82895e-07
-1.82892e-08
-3.61918e-06
-1.03697e-06
-2.3223e-08
-3.93816e-06
-1.20975e-06
-2.9051e-08
-4.25061e-06
-1.40143e-06
-3.55388e-08
-4.54353e-06
-1.60921e-06
-4.19587e-08
-4.79228e-06
-1.82312e-06
-4.68348e-08
-4.95639e-06
-2.01733e-06
-4.81491e-08
-2.18485e-06
-4.762e-08
-5.37685e-07
-5.07904e-08
-6.8596e-10
-1.03414e-06
-1.50021e-07
-2.04158e-09
-1.48476e-06
-2.45362e-07
-3.41128e-09
-1.90107e-06
-3.39744e-07
-4.89762e-09
-2.29269e-06
-4.37064e-07
-6.60784e-09
-2.66777e-06
-5.40633e-07
-8.64288e-09
-3.0332e-06
-6.5329e-07
-1.10983e-08
-3.39478e-06
-7.77464e-07
-1.40569e-08
-3.75727e-06
-9.15153e-07
-1.75696e-08
-4.12421e-06
-1.06782e-06
-2.16132e-08
-4.49754e-06
-1.23619e-06
-2.60187e-08
-4.87655e-06
-1.41988e-06
-3.03787e-08
-5.25497e-06
-1.61668e-06
-3.38721e-08
-5.61351e-06
-1.82065e-06
-3.5146e-08
-5.89939e-06
-2.01528e-06
-3.26377e-08
-2.2117e-06
-3.13513e-08
-5.97394e-07
-7.11311e-10
-5.16491e-08
-1.1486e-06
-2.1083e-09
-1.5251e-07
-1.64818e-06
-3.49877e-09
-2.4926e-07
-2.10864e-06
-4.97754e-09
-3.44737e-07
-2.54043e-06
-6.6374e-09
-4.42711e-07
-2.95242e-06
-8.556e-09
-5.46277e-07
-3.35222e-06
-1.07935e-08
-6.57938e-07
-3.74643e-06
-1.33819e-08
-7.79616e-07
-4.14079e-06
-1.63042e-08
-9.12584e-07
-4.54028e-06
-1.9453e-08
-1.05731e-06
-4.9489e-06
-2.25702e-08
-1.21316e-06
-5.36897e-06
-2.51787e-08
-1.37791e-06
-5.7986e-06
-2.64752e-08
-1.54699e-06
-6.2239e-06
-2.52564e-08
-1.71127e-06
-6.59681e-06
-2.02096e-08
-1.85094e-06
-2.3128e-08
-2.08051e-06
-4.68582e-08
-1.06701e-08
-6.15066e-11
-9.02318e-08
-3.1589e-08
-1.86423e-10
-1.29769e-07
-5.1911e-08
-3.20237e-10
-1.66489e-07
-7.241e-08
-4.7633e-10
-2.01208e-07
-9.41001e-08
-6.72296e-10
-2.34529e-07
-1.17942e-07
-9.30539e-10
-2.66807e-07
-1.4489e-07
-1.28152e-09
-2.9808e-07
-1.75932e-07
-1.76786e-09
-3.27954e-07
-2.12094e-07
-2.4493e-09
-3.55458e-07
-2.54413e-07
-3.40761e-09
-3.78933e-07
-3.03853e-07
-4.74723e-09
-3.96094e-07
-3.61101e-07
-6.58211e-09
-4.04603e-07
-4.2617e-07
-8.98655e-09
-4.03681e-07
-4.97458e-07
-1.18766e-08
-3.96589e-07
-5.68369e-07
-1.47848e-08
-6.93943e-07
-1.90193e-08
-1.39776e-07
-2.08758e-08
-1.83322e-10
-2.6914e-07
-6.17905e-08
-5.54731e-10
-3.87042e-07
-1.01499e-07
-9.5101e-10
-4.96532e-07
-1.4149e-07
-1.4116e-09
-6.00057e-07
-1.83714e-07
-1.98731e-09
-6.9945e-07
-2.30006e-07
-2.74154e-09
-7.9584e-07
-2.82172e-07
-3.75898e-09
-8.89463e-07
-3.42051e-07
-5.15556e-09
-9.79334e-07
-4.1152e-07
-7.08978e-09
-1.06283e-06
-4.92402e-07
-9.771e-09
-1.1353e-06
-5.86223e-07
-1.34517e-08
-1.19009e-06
-6.9362e-07
-1.83796e-08
-1.21988e-06
-8.13165e-07
-2.46485e-08
-1.22081e-06
-9.39093e-07
-3.18815e-08
-1.20022e-06
-1.05625e-06
-3.8749e-08
-1.17368e-06
-4.57809e-08
-2.3038e-07
-3.02001e-08
-2.97494e-10
-4.43544e-07
-8.93634e-08
-8.98002e-10
-6.37753e-07
-1.46702e-07
-1.53423e-09
-8.18054e-07
-2.04315e-07
-2.26794e-09
-9.88522e-07
-2.64957e-07
-3.1763e-09
-1.15228e-06
-3.31183e-07
-4.35264e-09
-1.31141e-06
-4.05473e-07
-5.91755e-09
-1.46665e-06
-4.90298e-07
-8.02995e-09
-1.61697e-06
-5.88111e-07
-1.08969e-08
-1.7589e-06
-7.01186e-07
-1.47727e-08
-1.88584e-06
-8.31167e-07
-1.99313e-08
-1.98767e-06
-9.78078e-07
-2.65748e-08
-2.05214e-06
-1.13836e-06
-3.46051e-08
-2.07011e-06
-1.30166e-06
-4.32271e-08
-2.04802e-06
-1.44612e-06
-5.05849e-08
-1.57773e-06
-5.49552e-08
-3.17255e-07
-3.82743e-08
-3.97438e-10
-6.10694e-07
-1.13214e-07
-1.196e-09
-8.77897e-07
-1.85719e-07
-2.034e-09
-1.12583e-06
-2.58361e-07
-2.98913e-09
-1.36018e-06
-3.34521e-07
-4.15493e-09
-1.58543e-06
-4.17285e-07
-5.63978e-09
-1.80478e-06
-5.09582e-07
-7.57671e-09
-2.01991e-06
-6.14261e-07
-1.0131e-08
-2.23048e-06
-7.34051e-07
-1.3502e-08
-2.43335e-06
-8.71364e-07
-1.79066e-08
-2.62159e-06
-1.02771e-06
-2.35309e-08
-2.78363e-06
-1.20251e-06
-3.04063e-08
-2.90359e-06
-1.39064e-06
-3.81544e-08
-2.96604e-06
-1.57875e-06
-4.56668e-08
-2.97015e-06
-1.74119e-06
-5.10836e-08
-1.87907e-06
-5.28518e-08
-3.9907e-07
-4.47992e-08
-4.78672e-10
-7.68011e-07
-1.32462e-07
-1.43539e-09
-1.10371e-06
-2.17114e-07
-2.42768e-09
-1.41494e-06
-3.01649e-07
-3.54189e-09
-1.70891e-06
-3.89873e-07
-4.87754e-09
-1.99146e-06
-4.85192e-07
-6.54326e-09
-2.26709e-06
-5.90752e-07
-8.66313e-09
-2.53876e-06
-7.09509e-07
-1.13786e-08
-2.80748e-06
-8.44184e-07
-1.48398e-08
-3.07168e-06
-9.97057e-07
-1.91761e-08
-3.32603e-06
-1.16941e-06
-2.44331e-08
-3.56012e-06
-1.36036e-06
-3.04461e-08
-3.75719e-06
-1.56447e-06
-3.66094e-08
-3.89558e-06
-1.76756e-06
-4.17061e-08
-3.95883e-06
-1.94202e-06
-4.42005e-08
-2.08383e-06
-4.38807e-08
-4.74633e-07
-4.95547e-08
-5.39163e-10
-9.1319e-07
-1.46463e-07
-1.61059e-09
-1.31184e-06
-2.39858e-07
-2.70716e-09
-1.68095e-06
-3.32798e-07
-3.91719e-09
-2.0291e-06
-4.29314e-07
-5.33739e-09
-2.36343e-06
-5.32924e-07
-7.06531e-09
-2.68971e-06
-6.46762e-07
-9.202e-09
-3.01231e-06
-7.73636e-07
-1.18479e-08
-3.33404e-06
-9.15986e-07
-1.50859e-08
-3.65563e-06
-1.07569e-06
-1.89445e-08
-3.97487e-06
-1.25365e-06
-2.33311e-08
-4.28506e-06
-1.44892e-06
-2.79315e-08
-4.57247e-06
-1.65689e-06
-3.20344e-08
-4.81268e-06
-1.86545e-06
-3.44798e-08
-4.9684e-06
-2.04862e-06
-3.40779e-08
-2.19999e-06
-3.25867e-08
-5.42926e-07
-5.24024e-08
-5.79153e-10
-1.04427e-06
-1.54821e-07
-1.72305e-09
-1.49942e-06
-2.53336e-07
-2.87704e-09
-1.92007e-06
-3.51032e-07
-4.12633e-09
-2.31597e-06
-4.51976e-07
-5.5588e-09
-2.6953e-06
-5.5961e-07
-7.25486e-09
-3.06491e-06
-6.76863e-07
-9.28693e-09
-3.43046e-06
-8.06175e-07
-1.17105e-08
-3.79641e-06
-9.49447e-07
-1.4544e-08
-4.16578e-06
-1.10786e-06
-1.77303e-08
-4.53972e-06
-1.28155e-06
-2.10766e-08
-4.91641e-06
-1.46908e-06
-2.41876e-08
-5.28832e-06
-1.66661e-06
-2.6357e-08
-5.63572e-06
-1.86619e-06
-2.65927e-08
-5.90927e-06
-2.05097e-06
-2.40236e-08
-2.23294e-06
-2.30619e-08
-6.03119e-07
-6.00634e-10
-5.32815e-08
-1.15965e-06
-1.77959e-09
-1.57369e-07
-1.66417e-06
-2.95133e-09
-2.57325e-07
-2.12936e-06
-4.19475e-09
-3.56139e-07
-2.56579e-06
-5.58607e-09
-4.57746e-07
-2.98239e-06
-7.18712e-09
-5.6537e-07
-3.38675e-06
-9.04287e-09
-6.81592e-07
-3.78534e-06
-1.11705e-08
-8.08343e-07
-4.18361e-06
-1.35399e-08
-9.46796e-07
-4.58601e-06
-1.60392e-08
-1.09715e-06
-4.99572e-06
-1.84262e-08
-1.25825e-06
-5.41388e-06
-2.02837e-08
-1.42693e-06
-5.83706e-06
-2.09583e-08
-1.59723e-06
-6.25045e-06
-1.95853e-08
-1.75834e-06
-6.60872e-06
-1.54075e-08
-1.88978e-06
-1.80343e-08
-2.10731e-06
-4.72454e-08
-1.09473e-08
-4.79784e-11
-9.09802e-08
-3.24154e-08
-1.4536e-10
-1.30852e-07
-5.32873e-08
-2.49456e-10
-1.67889e-07
-7.4364e-08
-3.7041e-10
-2.02911e-07
-9.66889e-08
-5.21365e-10
-2.36517e-07
-1.21242e-07
-7.18612e-10
-2.69054e-07
-1.48987e-07
-9.83448e-10
-3.0054e-07
-1.80897e-07
-1.34414e-09
-3.3056e-07
-2.17953e-07
-1.83742e-09
-3.58126e-07
-2.61096e-07
-2.50808e-09
-3.81581e-07
-3.11119e-07
-3.4033e-09
-3.98691e-07
-3.68468e-07
-4.55598e-09
-4.07222e-07
-4.32898e-07
-5.94939e-09
-4.06493e-07
-5.02759e-07
-7.464e-09
-3.99707e-07
-5.7199e-07
-8.82395e-09
-6.97904e-07
-1.06615e-08
-1.40927e-07
-2.14169e-08
-1.43029e-10
-2.71365e-07
-6.34036e-08
-4.32627e-10
-3.90261e-07
-1.04184e-07
-7.4098e-10
-5.00694e-07
-1.45299e-07
-1.09804e-09
-6.0512e-07
-1.88757e-07
-1.54181e-09
-7.05366e-07
-2.3643e-07
-2.11848e-09
-8.02531e-07
-2.90139e-07
-2.88728e-09
-8.96796e-07
-3.51697e-07
-3.92505e-09
-9.87109e-07
-4.22895e-07
-5.32871e-09
-1.07079e-06
-5.05365e-07
-7.2111e-09
-1.14316e-06
-6.00307e-07
-9.6799e-09
-1.19769e-06
-7.07876e-07
-1.2787e-08
-1.22732e-06
-8.26117e-07
-1.64277e-08
-1.22849e-06
-9.49058e-07
-2.02035e-08
-1.20844e-06
-1.0624e-06
-2.3343e-08
-1.17661e-06
-2.60233e-08
-2.32265e-07
-3.09806e-08
-2.32154e-10
-4.47186e-07
-9.1689e-08
-7.00485e-10
-6.43024e-07
-1.50571e-07
-1.19571e-09
-8.24869e-07
-2.09799e-07
-1.7648e-09
-9.96818e-07
-2.72208e-07
-2.46561e-09
-1.16199e-06
-3.40409e-07
-3.36621e-09
-1.32239e-06
-4.16899e-07
-4.55104e-09
-1.4787e-06
-5.04114e-07
-6.12509e-09
-1.62976e-06
-6.04383e-07
-8.21355e-09
-1.77197e-06
-7.19709e-07
-1.09481e-08
-1.89864e-06
-8.51275e-07
-1.44281e-08
-1.99974e-06
-9.98416e-07
-1.86406e-08
-2.06334e-06
-1.15678e-06
-2.33164e-08
-2.08075e-06
-1.31564e-06
-2.77729e-08
-2.0586e-06
-1.4542e-06
-3.0963e-08
-1.58002e-06
-3.19538e-08
-3.19829e-07
-3.92598e-08
-3.10207e-10
-6.15665e-07
-1.1615e-07
-9.33136e-10
-8.85091e-07
-1.90598e-07
-1.58562e-09
-1.13513e-06
-2.6527e-07
-2.32689e-09
-1.37151e-06
-3.43645e-07
-3.22723e-09
-1.59869e-06
-4.28874e-07
-4.3658e-09
-1.81982e-06
-5.23912e-07
-5.83579e-09
-2.03645e-06
-6.3156e-07
-7.74568e-09
-2.24806e-06
-7.54395e-07
-1.0213e-08
-2.45129e-06
-8.94503e-07
-1.33395e-08
-2.63901e-06
-1.05283e-06
-1.71612e-08
-2.79959e-06
-1.22795e-06
-2.1551e-08
-2.91743e-06
-1.41378e-06
-2.60681e-08
-2.97771e-06
-1.59646e-06
-2.98605e-08
-2.9804e-06
-1.75158e-06
-3.19119e-08
-1.88201e-06
-3.14893e-08
-4.02272e-07
-4.59481e-08
-3.73684e-10
-7.74197e-07
-1.35883e-07
-1.12014e-09
-1.11266e-06
-2.22795e-07
-1.89301e-09
-1.42651e-06
-3.09684e-07
-2.75827e-09
-1.72301e-06
-4.00468e-07
-3.79088e-09
-2.00798e-06
-4.98626e-07
-5.07035e-09
-2.28585e-06
-6.07331e-07
-6.6834e-09
-2.55943e-06
-7.29488e-07
-8.72165e-09
-2.82951e-06
-8.67645e-07
-1.12687e-08
-3.09418e-06
-1.02373e-06
-1.43684e-08
-3.34776e-06
-1.1984e-06
-1.79706e-08
-3.57958e-06
-1.38986e-06
-2.18389e-08
-3.77296e-06
-1.59159e-06
-2.54209e-08
-3.90706e-06
-1.78886e-06
-2.78409e-08
-3.967e-06
-1.95541e-06
-2.82882e-08
-2.08917e-06
-2.69542e-08
-4.78393e-07
-5.08205e-08
-4.20984e-10
-9.20451e-07
-1.50231e-07
-1.2571e-09
-1.32234e-06
-2.46109e-07
-2.11147e-09
-1.69453e-06
-3.41627e-07
-3.05173e-09
-2.04565e-06
-4.40937e-07
-4.15089e-09
-2.38284e-06
-5.47633e-07
-5.48049e-09
-2.71178e-06
-6.64879e-07
-7.11081e-09
-3.0367e-06
-7.9543e-07
-9.105e-09
-3.3601e-06
-9.41545e-07
-1.15017e-08
-3.68233e-06
-1.10474e-06
-1.42814e-08
-4.00064e-06
-1.28529e-06
-1.73144e-08
-4.30786e-06
-1.48133e-06
-2.02939e-08
-4.59009e-06
-1.68716e-06
-2.26421e-08
-4.82373e-06
-1.89012e-06
-2.35627e-08
-4.97396e-06
-2.06552e-06
-2.24409e-08
-2.20914e-06
-2.08479e-08
-5.47166e-07
-5.37358e-08
-4.52286e-10
-1.05245e-06
-1.58787e-07
-1.34514e-09
-1.51125e-06
-2.59912e-07
-2.24452e-09
-1.93536e-06
-3.60309e-07
-3.21587e-09
-2.3346e-06
-4.64168e-07
-4.32569e-09
-2.71715e-06
-5.75012e-07
-5.63301e-09
-3.0898e-06
-6.95796e-07
-7.18774e-09
-3.45803e-06
-8.28909e-07
-9.02201e-09
-3.82597e-06
-9.76076e-07
-1.1132e-08
-4.1962e-06
-1.13812e-06
-1.34459e-08
-4.56924e-06
-1.31459e-06
-1.57802e-08
-4.94257e-06
-1.50318e-06
-1.78e-08
-5.3082e-06
-1.69906e-06
-1.8967e-08
-5.64707e-06
-1.89369e-06
-1.86198e-08
-5.91289e-06
-2.07139e-06
-1.63182e-08
-2.24644e-06
-1.55655e-08
-6.07753e-07
-4.6914e-10
-5.46323e-08
-1.16859e-06
-1.38952e-09
-1.61386e-07
-1.67709e-06
-2.30302e-09
-2.6398e-07
-2.14604e-06
-3.27033e-09
-3.65517e-07
-2.58611e-06
-4.34932e-09
-4.70053e-07
-3.00622e-06
-5.58541e-09
-5.80893e-07
-3.41391e-06
-7.00896e-09
-7.00641e-07
-3.81547e-06
-8.62577e-09
-8.31177e-07
-4.21605e-06
-1.04006e-08
-9.73511e-07
-4.6196e-06
-1.223e-08
-1.12752e-06
-5.02863e-06
-1.39084e-08
-1.2915e-06
-5.44346e-06
-1.51034e-08
-1.46154e-06
-5.86003e-06
-1.53305e-08
-1.63076e-06
-6.26395e-06
-1.40101e-08
-1.78785e-06
-6.61283e-06
-1.07238e-08
-1.91309e-06
-1.26962e-08
-2.12512e-06
-4.75379e-08
-1.11599e-08
-3.28634e-11
-9.1545e-08
-3.30486e-08
-9.95289e-11
-1.31667e-07
-5.43393e-08
-1.70657e-10
-1.6894e-07
-7.58516e-08
-2.53022e-10
-2.04183e-07
-9.86474e-08
-3.55284e-10
-2.37993e-07
-1.23717e-07
-4.8791e-10
-2.70706e-07
-1.52021e-07
-6.64083e-10
-3.02329e-07
-1.84512e-07
-9.00404e-10
-3.32426e-07
-2.2212e-07
-1.21679e-09
-3.59997e-07
-2.65701e-07
-1.63441e-09
-3.83386e-07
-3.15919e-07
-2.16973e-09
-4.0038e-07
-3.73072e-07
-2.82245e-09
-4.08793e-07
-4.36827e-07
-3.55664e-09
-4.07979e-07
-5.0564e-07
-4.2846e-09
-4.01127e-07
-5.7388e-07
-4.87095e-09
-6.99967e-07
-5.63941e-09
-1.41796e-07
-2.1832e-08
-9.79853e-11
-2.73043e-07
-6.46395e-08
-2.96271e-10
-3.92686e-07
-1.06237e-07
-5.07016e-10
-5.03818e-07
-1.482e-07
-7.50253e-10
-6.08903e-07
-1.92574e-07
-1.05105e-09
-7.09756e-07
-2.41249e-07
-1.43913e-09
-8.0745e-07
-2.96043e-07
-1.9512e-09
-9.02124e-07
-3.58728e-07
-2.63228e-09
-9.9267e-07
-4.30998e-07
-3.53458e-09
-1.07636e-06
-5.1432e-07
-4.71e-09
-1.14851e-06
-6.09642e-07
-6.19089e-09
-1.20263e-06
-7.16832e-07
-7.95515e-09
-1.2318e-06
-8.33732e-07
-9.87394e-09
-1.23256e-06
-9.5452e-07
-1.16726e-08
-1.21219e-06
-1.06564e-06
-1.29743e-08
-1.17847e-06
-1.38944e-08
-2.33688e-07
-3.15793e-08
-1.5907e-10
-4.49934e-07
-9.34713e-08
-4.79792e-10
-6.46994e-07
-1.53529e-07
-8.18347e-10
-8.29985e-07
-2.13976e-07
-1.20621e-09
-1.00302e-06
-2.77699e-07
-1.6816e-09
-1.16918e-06
-3.47336e-07
-2.28842e-09
-1.33047e-06
-4.25377e-07
-3.07899e-09
-1.48745e-06
-5.14202e-07
-4.11457e-09
-1.6389e-06
-6.16003e-07
-5.46154e-09
-1.7811e-06
-7.32549e-07
-7.17629e-09
-1.90731e-06
-8.64669e-07
-9.27382e-09
-2.00756e-06
-1.01128e-06
-1.16755e-08
-2.07007e-06
-1.16771e-06
-1.4138e-08
-2.08642e-06
-1.3234e-06
-1.62185e-08
-2.06343e-06
-1.45853e-06
-1.74142e-08
-1.58185e-06
-1.73305e-08
-3.21772e-07
-4.0016e-08
-2.12589e-10
-6.19416e-07
-1.184e-07
-6.39264e-10
-8.90508e-07
-1.9433e-07
-1.08547e-09
-1.14212e-06
-2.70535e-07
-1.59096e-09
-1.37997e-06
-3.50559e-07
-2.20228e-09
-1.60853e-06
-4.37586e-07
-2.97054e-09
-1.83086e-06
-5.34562e-07
-3.95346e-09
-2.04844e-06
-6.44219e-07
-5.21381e-09
-2.26058e-06
-7.68969e-07
-6.8118e-09
-2.46376e-06
-9.10612e-07
-8.78281e-09
-2.65074e-06
-1.06967e-06
-1.11001e-08
-2.80985e-06
-1.24419e-06
-1.36152e-08
-2.92569e-06
-1.42768e-06
-1.59859e-08
-2.98389e-06
-1.60646e-06
-1.76809e-08
-2.98496e-06
-1.75731e-06
-1.8226e-08
-1.88451e-06
-1.73736e-08
-4.04691e-07
-4.683e-08
-2.56134e-10
-7.78864e-07
-1.38506e-07
-7.67522e-10
-1.1194e-06
-2.27143e-07
-1.29622e-09
-1.4352e-06
-3.15811e-07
-1.88662e-09
-1.73354e-06
-4.08503e-07
-2.58846e-09
-2.02023e-06
-5.08737e-07
-3.45315e-09
-2.29963e-06
-6.19676e-07
-4.53425e-09
-2.57441e-06
-7.44146e-07
-5.88396e-09
-2.84518e-06
-8.84516e-07
-7.54148e-09
-3.10977e-06
-1.04239e-06
-9.50757e-09
-3.3623e-06
-1.21797e-06
-1.1707e-08
-3.59196e-06
-1.40887e-06
-1.39346e-08
-3.78227e-06
-1.60813e-06
-1.5796e-08
-3.91301e-06
-1.80119e-06
-1.6758e-08
-3.97039e-06
-1.96307e-06
-1.64543e-08
-2.09331e-06
-1.5195e-08
-4.81234e-07
-5.17924e-08
-2.88603e-10
-9.25932e-07
-1.5312e-07
-8.61537e-10
-1.33026e-06
-2.50895e-07
-1.44618e-09
-1.70472e-06
-3.48365e-07
-2.08812e-09
-2.05802e-06
-4.49761e-07
-2.83595e-09
-2.39723e-06
-5.58721e-07
-3.73599e-09
-2.72799e-06
-6.78398e-07
-4.83138e-09
-3.05436e-06
-8.11467e-07
-6.1568e-09
-3.37862e-06
-9.60002e-07
-7.72461e-09
-3.70079e-06
-1.12519e-06
-9.49962e-09