/*--------------------------------*- C++ -*----------------------------------*\
| =========                 |                                                 |
| \\      /  F ield         | foam-extend: Open Source CFD                    |
|  \\    /   O peration     | Version:     3.1                                |
|   \\  /    A nd           | Web:         http://www.extend-project.de       |
|    \\/     M anipulation  |                                                 |
\*---------------------------------------------------------------------------*/
FoamFile
{
    version     2.0;
    format      ascii;
    class       volScalarField;
    location    "1.7";
    object      p;
}
// * * * * * * * * * * * * * * * * * * * * * * * * * * * * * * * * * * * * * //

dimensions      [0 2 -2 0 0 0 0];

internalField   nonuniform List<scalar> 
14592
(
0.0260206
0.0258509
0.025787
0.0258219
0.025902
0.0259727
0.0259958
0.0259545
0.0258473
0.0256851
0.0254674
0.0251848
0.0248043
0.0242479
0.0233832
0.0222106
0.0260083
0.0257918
0.0256957
0.02572
0.0258083
0.0258996
0.0259478
0.025931
0.0258467
0.0257055
0.02551
0.0252546
0.024911
0.0244024
0.0235169
0.0219151
0.0259423
0.0256861
0.0255534
0.0255678
0.0256716
0.0257917
0.0258717
0.0258831
0.0258222
0.0257052
0.0255399
0.0253273
0.0250446
0.0246044
0.0237046
0.0216264
0.0258664
0.0255885
0.0254244
0.0254213
0.0255293
0.025668
0.0257712
0.0258039
0.0257631
0.0256577
0.0255129
0.0253328
0.0251007
0.024725
0.0238616
0.0214639
0.0257947
0.0255104
0.0253252
0.0252987
0.0253967
0.0255381
0.0256505
0.0256919
0.0256555
0.0255533
0.0254121
0.0252429
0.0250399
0.0247193
0.0239494
0.0214068
0.0257229
0.0254399
0.0252435
0.0251951
0.0252758
0.0254072
0.0255145
0.0255512
0.0255044
0.025388
0.0252285
0.0250409
0.024836
0.0245469
0.0239155
0.0213911
0.0256489
0.0253745
0.0251611
0.0250913
0.0251546
0.02527
0.0253632
0.0253817
0.0253108
0.0251614
0.0249573
0.024712
0.0244554
0.0241319
0.0236584
0.0212137
0.0255578
0.0252773
0.0250636
0.0249867
0.0250275
0.0251225
0.0251941
0.0251878
0.0250829
0.024884
0.0246097
0.0242577
0.0238639
0.0233015
0.022898
0.0196381
0.0262038
0.0260235
0.0259562
0.0259996
0.0260998
0.0262001
0.0262608
0.0262661
0.0262185
0.0261307
0.0260148
0.0258729
0.0256923
0.0254283
0.0250458
0.0247758
0.0261959
0.0259657
0.0258617
0.0258912
0.0259984
0.0261202
0.0262086
0.0262416
0.0262201
0.0261578
0.0260679
0.0259562
0.0258119
0.0255806
0.0251761
0.0248806
0.0261362
0.0258668
0.0257241
0.0257404
0.025861
0.0260117
0.0261334
0.0261972
0.0262021
0.0261688
0.0261149
0.0260544
0.0259823
0.0258331
0.0254516
0.0250697
0.026067
0.0257793
0.0256067
0.025604
0.0257263
0.0258935
0.0260375
0.0261221
0.0261445
0.0261284
0.0260998
0.0260801
0.0260723
0.0260081
0.0256649
0.0252169
0.0260003
0.0257109
0.0255214
0.0254957
0.0256052
0.0257714
0.0259212
0.0260123
0.0260405
0.0260224
0.0259972
0.0259917
0.0260201
0.0260256
0.0257434
0.0252456
0.0259343
0.0256471
0.0254504
0.0254039
0.025494
0.0256456
0.0257848
0.0258654
0.0258777
0.0258402
0.025791
0.0257622
0.0257834
0.0258191
0.0255943
0.0250634
0.0258596
0.0255836
0.0253716
0.0253028
0.025374
0.025505
0.0256234
0.0256791
0.0256584
0.0255781
0.0254717
0.0253691
0.0253149
0.0252904
0.0250656
0.0242977
0.0257629
0.0254807
0.0252702
0.0251979
0.025241
0.0253438
0.0254331
0.0254551
0.0253903
0.0252469
0.0250504
0.024811
0.0245708
0.0242411
0.0238626
0.0211841
0.0263905
0.0262024
0.0261344
0.0261883
0.0263097
0.02644
0.0265376
0.026587
0.0265932
0.0265712
0.0265394
0.0265043
0.0264593
0.0263765
0.0262451
0.0262008
0.026387
0.0261462
0.0260378
0.0260748
0.026202
0.0263547
0.0264826
0.026563
0.0265986
0.026606
0.0266027
0.0265988
0.0265877
0.0265221
0.02637
0.0263188
0.0263335
0.0260544
0.0259058
0.0259276
0.0260669
0.0262487
0.0264116
0.0265254
0.0265906
0.0266306
0.0266669
0.0267168
0.0267763
0.0267841
0.0266616
0.0265657
0.0262709
0.0259768
0.0258005
0.0258028
0.0259424
0.0261393
0.0263238
0.0264581
0.0265378
0.0265999
0.0266641
0.0267573
0.0268822
0.0269691
0.0268793
0.0267451
0.0262106
0.0259179
0.0257287
0.0257093
0.0258347
0.0260278
0.0262152
0.0263542
0.026443
0.0264951
0.0265608
0.0266674
0.0268265
0.0269721
0.0269127
0.0267197
0.0261499
0.0258601
0.0256674
0.0256291
0.025734
0.025909
0.0260808
0.0262035
0.0262696
0.0262986
0.0263345
0.0264112
0.0265534
0.0267066
0.026637
0.0263515
0.0260759
0.0257982
0.0255914
0.0255305
0.025615
0.0257663
0.0259112
0.0260022
0.0260263
0.0260037
0.0259713
0.0259605
0.0260072
0.0260626
0.0258679
0.0251766
0.0259716
0.0256896
0.0254858
0.0254249
0.0254778
0.025592
0.0257002
0.0257488
0.0257192
0.0256214
0.0254829
0.0253136
0.0251428
0.0248486
0.0243419
0.0213013
0.026569
0.026375
0.0263081
0.0263732
0.0265155
0.0266741
0.0268058
0.0268946
0.0269465
0.0269777
0.0270098
0.0270491
0.0270895
0.0271067
0.0270954
0.0271052
0.0265693
0.0263205
0.02621
0.0262558
0.0264029
0.0265848
0.0267491
0.0268721
0.0269565
0.0270206
0.0270826
0.0271528
0.0272218
0.0272473
0.0272102
0.0271848
0.0265215
0.0262354
0.0260841
0.026113
0.0262714
0.0264831
0.0266842
0.0268429
0.0269596
0.027059
0.0271623
0.0272855
0.0274193
0.0275018
0.0274757
0.0273976
0.0264648
0.0261668
0.02599
0.026
0.026158
0.026384
0.0266064
0.0267854
0.0269155
0.027039
0.0271704
0.0273356
0.0275296
0.0276771
0.0276682
0.0275381
0.0264122
0.0261167
0.0259302
0.0259204
0.0260637
0.0262839
0.0265068
0.0266887
0.0268284
0.0269363
0.0270664
0.0272415
0.0274632
0.0276529
0.0276453
0.0274339
0.0263563
0.0260641
0.0258773
0.0258507
0.0259732
0.0261729
0.0263758
0.0265361
0.0266477
0.0267282
0.0268228
0.0269609
0.0271551
0.0273293
0.0272625
0.0269155
0.0262803
0.0260032
0.0258034
0.0257547
0.0258552
0.0260288
0.0261996
0.0263224
0.0263835
0.0264047
0.0264219
0.0264615
0.0265447
0.0265909
0.0263193
0.0254758
0.0261702
0.0258891
0.0256932
0.0256463
0.0257143
0.0258425
0.0259697
0.0260421
0.0260412
0.025977
0.025876
0.0257422
0.025589
0.0252582
0.0245853
0.0211611
0.0267271
0.0265294
0.0264645
0.0265403
0.0267013
0.0268851
0.0270463
0.0271679
0.0272562
0.0273271
0.0274047
0.0274915
0.0275798
0.0276455
0.0276821
0.0276969
0.0267315
0.0264766
0.0263654
0.0264199
0.026585
0.0267927
0.0269885
0.0271469
0.0272706
0.027378
0.0274855
0.0276024
0.0277155
0.027783
0.0277865
0.027745
0.0266883
0.0263973
0.0262449
0.0262816
0.0264575
0.0266956
0.0269299
0.0271263
0.0272848
0.0274287
0.027578
0.0277458
0.0279163
0.028026
0.0280229
0.0279149
0.0266365
0.0263364
0.0261606
0.026179
0.0263544
0.0266066
0.0268621
0.0270792
0.0272528
0.0274186
0.0275949
0.0278016
0.0280251
0.0281853
0.028182
0.0280043
0.0265915
0.0262936
0.0261109
0.0261115
0.0262724
0.0265175
0.0267714
0.0269887
0.0271659
0.0273179
0.0274904
0.0277025
0.0279461
0.0281327
0.0281076
0.0278312
0.026539
0.0262453
0.0260648
0.0260508
0.0261909
0.0264137
0.0266442
0.0268358
0.0269828
0.0271008
0.0272325
0.0274014
0.0276083
0.0277609
0.0276428
0.0272027
0.0264615
0.026185
0.0259923
0.0259569
0.0260738
0.0262688
0.026463
0.0266125
0.026702
0.0267539
0.0268011
0.0268632
0.0269481
0.0269515
0.0265785
0.0255884
0.0263461
0.0260661
0.0258776
0.0258449
0.0259292
0.0260722
0.0262169
0.0263092
0.02633
0.0262886
0.0262088
0.026088
0.0259253
0.0255351
0.0247087
0.0209842
0.0268551
0.0266552
0.0265926
0.0266775
0.026854
0.0270581
0.0272426
0.0273895
0.0275048
0.027604
0.0277109
0.0278256
0.027938
0.0280236
0.0280745
0.0280795
0.0268635
0.026604
0.026493
0.026555
0.026735
0.0269636
0.0271842
0.0273701
0.0275229
0.0276602
0.0277978
0.0279421
0.0280768
0.0281597
0.0281715
0.0281067
0.0268237
0.0265294
0.026377
0.0264206
0.0266112
0.0268708
0.0271313
0.027357
0.0275466
0.0277214
0.0279002
0.0280929
0.0282785
0.0283924
0.0283846
0.0282419
0.0267766
0.0264746
0.0263004
0.0263266
0.0265169
0.0267905
0.0270723
0.0273189
0.0275248
0.0277197
0.0279239
0.0281521
0.0283839
0.0285363
0.0285142
0.0282886
0.026737
0.0264375
0.0262584
0.0262687
0.0264448
0.0267105
0.0269893
0.0272339
0.0274382
0.0276207
0.0278189
0.0280484
0.0282936
0.0284601
0.0283995
0.0280634
0.0266855
0.0263923
0.0262174
0.0262148
0.0263706
0.0266129
0.0268657
0.0270812
0.0272539
0.0273972
0.0275502
0.0277315
0.0279328
0.028052
0.0278762
0.0273589
0.0266078
0.0263323
0.0261459
0.0261225
0.0262543
0.0264676
0.0266808
0.0268509
0.0269606
0.0270324
0.0270959
0.0271646
0.0272365
0.0271925
0.0267306
0.02563
0.0264883
0.0262094
0.0260272
0.0260071
0.0261062
0.0262626
0.0264219
0.0265296
0.0265655
0.0265383
0.0264688
0.0263485
0.0261664
0.0257184
0.024772
0.0208326
0.0269455
0.0267447
0.0266844
0.0267761
0.0269639
0.0271823
0.027383
0.0275471
0.0276802
0.0277975
0.0279215
0.0280512
0.0281745
0.0282664
0.0283182
0.0283122
0.0269562
0.0266949
0.0265851
0.0266534
0.0268445
0.0270881
0.0273261
0.0275307
0.0277027
0.0278587
0.0280145
0.0281737
0.0283178
0.0284046
0.0284134
0.0283281
0.026919
0.0266235
0.0264722
0.026522
0.026724
0.0269993
0.0272784
0.0275242
0.0277343
0.0279287
0.0281248
0.0283303
0.028521
0.0286313
0.0286119
0.0284406
0.0268752
0.0265726
0.0264004
0.0264336
0.0266358
0.0269254
0.0272261
0.027493
0.02772
0.0279333
0.0281535
0.0283918
0.0286236
0.0287643
0.0287212
0.0284586
0.026839
0.0265391
0.0263635
0.0263818
0.0265704
0.0268519
0.0271487
0.0274123
0.0276348
0.0278358
0.0280482
0.0282848
0.0285251
0.0286717
0.0285795
0.0281992
0.0267882
0.0264958
0.0263255
0.0263323
0.0265008
0.0267584
0.0270276
0.0272599
0.0274495
0.027608
0.0277723
0.0279571
0.0281486
0.0282394
0.0280184
0.0274467
0.0267103
0.026436
0.0262544
0.0262408
0.026385
0.0266127
0.0268403
0.027025
0.0271478
0.0272313
0.0273024
0.027371
0.0274283
0.0273473
0.0268213
0.0256467
0.026588
0.0263103
0.0261328
0.0261224
0.0262338
0.0264018
0.0265725
0.0266911
0.0267369
0.0267176
0.0266521
0.0265281
0.0263275
0.0258361
0.0248063
0.0207303
0.0269901
0.0267885
0.026728
0.0268221
0.0270148
0.02724
0.0274487
0.0276213
0.0277629
0.0278884
0.0280198
0.0281552
0.0282816
0.0283743
0.0284249
0.0284148
0.0270016
0.0267388
0.0266276
0.0266975
0.0268932
0.0271436
0.0273899
0.0276034
0.0277844
0.0279487
0.0281123
0.0282769
0.0284232
0.0285095
0.0285162
0.0284236
0.0269658
0.0266693
0.0265164
0.0265671
0.0267732
0.0270552
0.0273429
0.0275981
0.0278179
0.0280212
0.0282243
0.028434
0.0286244
0.0287305
0.0287052
0.0285226
0.0269239
0.0266207
0.0264476
0.0264818
0.026688
0.0269842
0.0272933
0.0275697
0.0278065
0.0280281
0.0282548
0.0284959
0.0287249
0.0288571
0.0288037
0.0285259
0.0268897
0.0265892
0.0264136
0.0264336
0.0266263
0.0269141
0.0272187
0.0274909
0.0277219
0.0279312
0.028149
0.0283871
0.0286222
0.0287562
0.0286486
0.02825
0.0268394
0.0265472
0.0263775
0.0263864
0.0265594
0.026823
0.027099
0.0273385
0.0275362
0.0277012
0.0278697
0.0280544
0.0282384
0.0283123
0.028069
0.0274753
0.0267615
0.0264878
0.0263069
0.0262953
0.0264437
0.0266773
0.0269109
0.027102
0.0272303
0.0273187
0.0273925
0.0274592
0.0275068
0.0274047
0.026845
0.0256305
0.0266379
0.026361
0.0261844
0.0261771
0.0262924
0.026464
0.0266389
0.0267619
0.0268118
0.0267959
0.0267314
0.0266045
0.026392
0.0258773
0.024785
0.0206484
0.0255165
0.025532
0.0255865
0.0256343
0.0256387
0.0255725
0.0254172
0.0251621
0.0248012
0.0243295
0.0237402
0.023024
0.0221683
0.0211632
0.0200018
0.0187109
0.0255085
0.0255267
0.0255933
0.0256537
0.0256683
0.025609
0.0254576
0.0252043
0.0248441
0.0243732
0.0237856
0.0230729
0.0222218
0.0212238
0.0200666
0.0187811
0.0254767
0.0254928
0.0255741
0.0256569
0.0256931
0.02565
0.0255081
0.0252588
0.0248993
0.0244282
0.0238416
0.0231323
0.0222884
0.0213035
0.0201599
0.0188927
0.0254297
0.0254348
0.025522
0.0256238
0.0256825
0.0256585
0.0255291
0.0252856
0.0249275
0.0244552
0.0238675
0.0231601
0.0223216
0.0213483
0.0202178
0.018971
0.025374
0.0253646
0.0254492
0.0255622
0.0256385
0.0256312
0.0255137
0.0252764
0.0249194
0.0244458
0.0238564
0.023149
0.0223135
0.0213489
0.0202311
0.019002
0.0253144
0.0252919
0.0253702
0.0254881
0.0255755
0.0255801
0.0254714
0.0252384
0.0248816
0.0244057
0.0238134
0.0231045
0.0222707
0.0213131
0.0202088
0.0189996
0.0252546
0.0252228
0.0252952
0.0254137
0.0255065
0.0255174
0.025413
0.0251811
0.0248226
0.024343
0.0237467
0.0230353
0.0222027
0.0212521
0.0201638
0.0189777
0.0251977
0.0251605
0.0252286
0.025346
0.0254396
0.0254515
0.0253469
0.0251129
0.0247504
0.0242658
0.0236649
0.0229508
0.02212
0.0211772
0.0201081
0.0189492
0.0254981
0.0254927
0.025535
0.0255784
0.0255839
0.0255214
0.0253699
0.0251175
0.0247574
0.0242845
0.0236918
0.0229699
0.0221051
0.0210883
0.0199091
0.0186023
0.0254816
0.0254677
0.0255137
0.0255644
0.0255792
0.0255252
0.0253801
0.0251319
0.0247742
0.0243026
0.0237108
0.0229916
0.0221297
0.0211191
0.0199438
0.0186473
0.0254409
0.0254144
0.0254664
0.0255349
0.0255709
0.0255351
0.0254025
0.025161
0.0248058
0.0243361
0.0237464
0.0230292
0.0221729
0.0211747
0.0200105
0.0187339
0.0253914
0.0253463
0.0253967
0.0254802
0.0255377
0.0255222
0.0254042
0.0251707
0.0248199
0.0243495
0.0237594
0.0230451
0.0221941
0.0212071
0.0200542
0.0187956
0.0253374
0.0252727
0.0253146
0.0254058
0.0254796
0.0254816
0.0253773
0.0251526
0.0248038
0.024334
0.0237435
0.0230303
0.0221828
0.021205
0.0200641
0.0188235
0.0252803
0.0251995
0.0252304
0.0253242
0.0254085
0.0254231
0.025329
0.0251097
0.0247631
0.0242927
0.0237006
0.0229872
0.0221425
0.0211731
0.0200467
0.0188267
0.0252229
0.0251315
0.0251554
0.0252472
0.0253356
0.0253565
0.0252678
0.0250511
0.0247042
0.0242315
0.0236367
0.0229224
0.0220807
0.0211199
0.0200121
0.018817
0.0251672
0.0250693
0.0250874
0.0251779
0.0252674
0.02529
0.0252018
0.0249839
0.024634
0.0241575
0.0235595
0.0228441
0.0220061
0.0210554
0.0199707
0.018805
0.0254813
0.0254493
0.0254766
0.025517
0.0255281
0.0254753
0.0253349
0.0250934
0.0247433
0.0242786
0.0236911
0.0229676
0.022089
0.0210387
0.0197927
0.0183926
0.0254578
0.0254097
0.0254357
0.0254821
0.0255037
0.0254621
0.0253311
0.0250965
0.0247508
0.0242885
0.0237048
0.0229851
0.0221097
0.021067
0.0198236
0.0184393
0.0254034
0.0253341
0.0253596
0.0254225
0.0254675
0.025448
0.0253333
0.0251088
0.0247682
0.0243121
0.0237289
0.0230133
0.0221445
0.0211153
0.0198793
0.0185143
0.025343
0.0252484
0.0252648
0.02534
0.0254078
0.0254117
0.0253153
0.0251023
0.0247692
0.0243125
0.0237316
0.0230198
0.0221563
0.0211384
0.0199096
0.0185616
0.0252823
0.0251638
0.0251651
0.0252442
0.025328
0.0253514
0.0252715
0.0250693
0.0247405
0.0242864
0.0237064
0.0229963
0.0221365
0.0211279
0.0199093
0.0185799
0.0252209
0.0250839
0.0250702
0.0251478
0.0252409
0.025278
0.0252105
0.0250159
0.0246902
0.0242365
0.0236555
0.0229456
0.0220889
0.0210897
0.0198872
0.018582
0.0251601
0.0250145
0.024987
0.0250604
0.0251574
0.0252015
0.0251403
0.0249494
0.0246243
0.0241687
0.0235851
0.0228742
0.0220209
0.0210323
0.0198534
0.01858
0.0251
0.0249486
0.0249154
0.024986
0.0250833
0.0251291
0.0250689
0.0248773
0.0245493
0.0240897
0.0235023
0.02279
0.0219413
0.0209651
0.0198174
0.0185832
0.0254872
0.0254255
0.0254353
0.0254726
0.0254913
0.0254524
0.0253293
0.0251067
0.0247764
0.0243313
0.0237601
0.0230446
0.0221533
0.0210534
0.0196926
0.0181083
0.0254617
0.0253788
0.0253823
0.0254247
0.0254551
0.0254298
0.0253187
0.0251055
0.0247822
0.024343
0.0237778
0.0230679
0.0221825
0.0210932
0.0197344
0.0181732
0.0253958
0.0252846
0.0252814
0.0253386
0.0253942
0.0253944
0.0253036
0.0251041
0.0247888
0.0243565
0.0237959
0.0230934
0.0222165
0.0211421
0.0197852
0.0182401
0.0253231
0.0251826
0.0251634
0.0252293
0.025308
0.0253342
0.025265
0.0250802
0.0247749
0.0243452
0.023788
0.0230904
0.0222194
0.0211553
0.0197987
0.0182659
0.0252532
0.0250874
0.0250471
0.025112
0.0252053
0.0252522
0.0252018
0.0250301
0.0247311
0.0243052
0.0237494
0.0230538
0.0221861
0.0211307
0.0197808
0.0182678
0.0251858
0.0250007
0.0249419
0.0250006
0.0251009
0.0251609
0.0251243
0.0249617
0.0246665
0.0242411
0.023684
0.0229877
0.0221225
0.0210772
0.0197454
0.018265
0.0251216
0.0249301
0.024852
0.0249027
0.0250049
0.0250722
0.0250414
0.0248824
0.0245875
0.0241593
0.0235981
0.0228992
0.0220366
0.0210039
0.0197033
0.0182698
0.0250579
0.0248591
0.024775
0.0248211
0.0249222
0.0249901
0.0249603
0.0248
0.0245012
0.0240671
0.0234997
0.022797
0.0219376
0.0209201
0.0196624
0.0182886
0.0255253
0.0254347
0.025424
0.0254569
0.0254838
0.0254616
0.0253602
0.025163
0.0248612
0.024447
0.0239066
0.0232126
0.022318
0.0211591
0.0196424
0.0177613
0.0255001
0.0253817
0.0253601
0.0253962
0.0254352
0.0254284
0.0253417
0.0251567
0.0248645
0.0244595
0.0239266
0.0232407
0.0223549
0.0212103
0.019697
0.0178446
0.0254269
0.0252749
0.0252389
0.0252858
0.0253499
0.025371
0.025308
0.0251403
0.0248601
0.0244633
0.0239386
0.0232625
0.0223867
0.0212531
0.0197328
0.0178787
0.0253451
0.0251627
0.0251039
0.0251538
0.0252389
0.0252869
0.0252479
0.0250974
0.0248285
0.0244379
0.0239185
0.023248
0.0223774
0.0212479
0.0197169
0.0178611
0.0252681
0.025062
0.0249777
0.0250203
0.0251163
0.0251839
0.0251646
0.0250285
0.0247679
0.0243814
0.0238636
0.0231944
0.0223259
0.0212011
0.0196722
0.0178375
0.0251957
0.0249726
0.0248676
0.0248986
0.0249971
0.0250759
0.0250696
0.0249433
0.0246859
0.024299
0.0237786
0.0231069
0.0222396
0.0211249
0.0196175
0.0178331
0.0251275
0.0249011
0.0247742
0.0247931
0.0248898
0.0249732
0.024972
0.0248477
0.0245893
0.0241975
0.02367
0.0229924
0.022126
0.0210273
0.0195621
0.0178575
0.0250588
0.0248252
0.0246923
0.0247044
0.0247977
0.02488
0.0248779
0.0247507
0.0244861
0.024085
0.0235468
0.0228607
0.0219945
0.0209154
0.0195093
0.017908
0.0255993
0.0254826
0.0254528
0.0254819
0.0255183
0.0255149
0.0254391
0.0252731
0.0250079
0.0246381
0.0241455
0.0234952
0.0226204
0.0214076
0.0196932
0.0173386
0.0255761
0.0254258
0.0253795
0.0254089
0.0254569
0.0254706
0.0254122
0.0252612
0.0250085
0.02465
0.0241675
0.0235275
0.0226629
0.0214575
0.0197306
0.0173417
0.0254999
0.0253124
0.0252443
0.0252791
0.0253505
0.0253933
0.0253613
0.025231
0.0249947
0.0246459
0.0241748
0.0235468
0.0226916
0.0214773
0.0197102
0.0172167
0.025414
0.0251967
0.0251006
0.0251317
0.0252203
0.0252891
0.0252823
0.0251709
0.0249472
0.0246074
0.0241436
0.0235217
0.02267
0.0214411
0.019638
0.0170691
0.0253337
0.0250962
0.0249726
0.0249901
0.025084
0.0251694
0.0251813
0.0250839
0.0248695
0.024534
0.0240719
0.0234501
0.0225993
0.0213643
0.0195556
0.0169806
0.0252585
0.0250083
0.024864
0.0248649
0.0249557
0.0250481
0.0250703
0.0249828
0.0247686
0.0244309
0.0239639
0.0233363
0.0224855
0.0212581
0.0194803
0.0169757
0.025187
0.0249372
0.0247708
0.0247559
0.0248401
0.0249331
0.0249579
0.0248685
0.024651
0.0243045
0.0238254
0.0231861
0.0223335
0.021127
0.0194156
0.0170623
0.0251128
0.0248565
0.0246844
0.0246606
0.0247384
0.0248272
0.0248479
0.0247528
0.0245252
0.0241636
0.0236662
0.0230092
0.0221505
0.0209726
0.0193586
0.0172386
0.0257097
0.025571
0.0255257
0.0255533
0.0256012
0.0256195
0.0255732
0.0254441
0.0252244
0.0249127
0.0244908
0.0239208
0.0231193
0.021914
0.0199993
0.0169139
0.0256895
0.0255124
0.0254447
0.0254691
0.0255278
0.0255645
0.0255381
0.0254271
0.0252239
0.0249254
0.0245167
0.0239606
0.0231721
0.0219559
0.0199471
0.016509
0.0256142
0.0253979
0.0253022
0.0253262
0.0254056
0.0254717
0.0254738
0.0253861
0.0252014
0.0249169
0.0245246
0.0239862
0.0232111
0.0219614
0.019828
0.0159369
0.0255286
0.0252846
0.0251579
0.0251721
0.025264
0.0253539
0.0253811
0.0253137
0.0251434
0.0248694
0.0244876
0.0239594
0.0231921
0.0219093
0.0196948
0.0154889
0.0254488
0.025189
0.0250352
0.0250307
0.0251219
0.025224
0.0252674
0.0252133
0.0250515
0.0247816
0.0244017
0.0238744
0.0231111
0.0218132
0.0195894
0.0152532
0.0253733
0.0251055
0.0249331
0.0249084
0.0249909
0.0250943
0.0251434
0.0250955
0.024932
0.0246568
0.0242687
0.0237316
0.0229688
0.0216749
0.0195096
0.0152189
0.0252991
0.025036
0.0248426
0.0247996
0.0248707
0.0249695
0.0250177
0.0249628
0.0247906
0.0245005
0.0240924
0.0235329
0.0227624
0.0214871
0.0194428
0.0153897
0.0252192
0.0249501
0.0247524
0.0246991
0.0247597
0.02485
0.0248892
0.0248244
0.024636
0.024322
0.0238831
0.0232867
0.0224913
0.0212315
0.0193719
0.0158203
0.0258526
0.0256964
0.0256397
0.0256692
0.0257317
0.0257747
0.0257616
0.0256746
0.0255087
0.0252682
0.0249415
0.0244998
0.0238684
0.0228736
0.0210969
0.0175739
0.0258361
0.0256371
0.0255528
0.0255753
0.0256474
0.02571
0.0257193
0.0256536
0.0255069
0.0252836
0.0249746
0.0245538
0.0239483
0.0229537
0.0210186
0.0166397
0.0257646
0.0255257
0.0254084
0.0254253
0.0255153
0.025607
0.0256466
0.0256068
0.0254824
0.0252766
0.0249905
0.0245995
0.0240274
0.0230268
0.0209235
0.0156418
0.0256828
0.0254191
0.0252698
0.0252722
0.0253701
0.0254829
0.0255468
0.0255278
0.0254196
0.025226
0.0249553
0.0245849
0.0240389
0.0230337
0.0208522
0.0149699
0.0256062
0.0253314
0.0251575
0.0251378
0.0252297
0.0253498
0.0254266
0.025419
0.0253175
0.0251276
0.0248598
0.0244947
0.0239644
0.0229657
0.0208087
0.0146428
0.025532
0.0252542
0.025065
0.0250234
0.0251016
0.0252173
0.0252946
0.0252878
0.0251809
0.0249817
0.0247011
0.0243221
0.0237932
0.0228058
0.0207577
0.0145731
0.0254565
0.0251866
0.0249785
0.0249168
0.02498
0.0250851
0.025155
0.0251364
0.0250138
0.0247913
0.0244795
0.0240617
0.0235089
0.022517
0.0206483
0.0146903
0.0253722
0.0250952
0.0248846
0.0248133
0.0248604
0.0249517
0.025007
0.0249716
0.0248247
0.0245664
0.0242055
0.0237185
0.0230949
0.0220185
0.0203799
0.0148982
0.0254513
0.0251661
0.0249474
0.0248606
0.0248918
0.0249712
0.0250215
0.0249861
0.0248408
0.024584
0.0242254
0.0237373
0.0231191
0.0220245
0.0204131
0.0148338
0.0253417
0.0250497
0.0248274
0.0247389
0.0247664
0.0248346
0.0248646
0.0247995
0.0246134
0.0243011
0.0238628
0.0232613
0.0224605
0.0211679
0.0192631
0.0156188
0.0252406
0.0249424
0.0247214
0.0246403
0.0246714
0.0247331
0.0247452
0.0246522
0.024429
0.0240701
0.0235717
0.0229078
0.0220313
0.0208252
0.0191353
0.0170166
0.0251656
0.0248655
0.0246555
0.0245919
0.024632
0.0246886
0.0246824
0.0245619
0.0243052
0.0239093
0.0233707
0.0226801
0.0217949
0.0207023
0.0192361
0.017647
0.0251325
0.0248405
0.0246551
0.0246153
0.0246628
0.0247095
0.0246808
0.0245313
0.0242435
0.0238174
0.0232523
0.0225496
0.0216773
0.0206565
0.0193612
0.0179875
0.0251469
0.0248794
0.0247304
0.0247115
0.0247565
0.0247835
0.0247264
0.0245471
0.0242319
0.0237825
0.0232007
0.0224928
0.0216386
0.0206651
0.0194988
0.0182633
0.0251905
0.0249666
0.0248601
0.024857
0.0248918
0.0248939
0.0248077
0.0246021
0.0242667
0.0238035
0.0232154
0.022509
0.0216731
0.0207296
0.019639
0.0184751
0.0252048
0.0250347
0.0249679
0.0249833
0.0250175
0.0250071
0.0249045
0.0246846
0.0243399
0.0238729
0.023287
0.0225864
0.0217632
0.0208305
0.0197613
0.0186069
0.0256436
0.0253562
0.025139
0.0250526
0.0250835
0.0251668
0.0252288
0.0252138
0.0250979
0.0248811
0.0245764
0.0241588
0.023621
0.0225835
0.0207815
0.0144775
0.0255164
0.0252208
0.0249964
0.0249041
0.0249282
0.0249973
0.0250349
0.0249839
0.0248179
0.0245313
0.0241251
0.0235558
0.0227774
0.0214296
0.0193155
0.015011
0.025396
0.0250912
0.0248631
0.0247737
0.0247991
0.0248608
0.0248788
0.0247962
0.0245865
0.0242429
0.0237606
0.0231066
0.0222247
0.0209578
0.0191268
0.0167254
0.0253013
0.0249911
0.0247687
0.0246935
0.0247278
0.0247856
0.024786
0.0246744
0.0244271
0.0240399
0.0235079
0.0228178
0.0219185
0.020787
0.0192246
0.0175194
0.0252509
0.0249452
0.0247436
0.0246915
0.0247354
0.0247861
0.0247654
0.0246244
0.0243435
0.023922
0.0233579
0.0226515
0.0217632
0.0207154
0.0193498
0.0179044
0.0252523
0.0249687
0.0248026
0.0247738
0.0248184
0.024852
0.024804
0.0246326
0.0243224
0.0238748
0.0232909
0.0225771
0.021707
0.0207119
0.0194954
0.0182088
0.0252878
0.0250478
0.0249273
0.0249186
0.0249562
0.0249664
0.0248892
0.0246904
0.0243585
0.0238955
0.0233041
0.0225913
0.0217412
0.0207796
0.0196522
0.0184483
0.0252982
0.0251154
0.0250393
0.0250531
0.0250927
0.0250909
0.0249965
0.0247823
0.0244403
0.0239733
0.0233845
0.0226784
0.0218436
0.0208948
0.0197938
0.0186017
0.0258397
0.025552
0.0253399
0.0252608
0.0252982
0.0253894
0.0254642
0.025468
0.0253771
0.0251922
0.0249267
0.0245507
0.0240414
0.0229694
0.0209656
0.0140781
0.0256957
0.0253982
0.0251757
0.0250862
0.025113
0.0251866
0.0252323
0.0251938
0.025044
0.024777
0.0243928
0.0238399
0.02306
0.0216368
0.0193399
0.0145792
0.0255566
0.0252471
0.0250164
0.0249248
0.0249497
0.0250139
0.0250378
0.0249638
0.0247642
0.0244314
0.0239589
0.0233066
0.0224097
0.0210773
0.0191175
0.0164872
0.0254426
0.0251247
0.0248949
0.0248134
0.0248456
0.0249061
0.0249123
0.0248079
0.0245672
0.0241853
0.023656
0.0229618
0.0220445
0.0208704
0.0192181
0.0174068
0.0253749
0.0250587
0.0248455
0.0247855
0.024828
0.0248832
0.0248697
0.0247355
0.0244593
0.0240399
0.0234744
0.0227618
0.0218557
0.0207792
0.0193486
0.0178376
0.0253632
0.0250669
0.0248878
0.0248522
0.0248977
0.0249379
0.0248981
0.0247332
0.0244264
0.0239789
0.0233912
0.0226699
0.0217833
0.0207663
0.0195032
0.0181691
0.0253907
0.0251377
0.0250064
0.0249941
0.0250354
0.0250534
0.0249845
0.0247914
0.0244618
0.0239977
0.0234018
0.0226814
0.0218169
0.0208371
0.0196751
0.0184331
0.0253972
0.0252043
0.0251215
0.0251354
0.025181
0.0251878
0.0251012
0.0248918
0.0245514
0.0240829
0.0234902
0.0227775
0.0219305
0.0209654
0.0198341
0.0186062
0.0260267
0.0257393
0.0255337
0.0254655
0.025514
0.025616
0.025704
0.0257243
0.0256533
0.0254911
0.0252494
0.0248912
0.0243785
0.0232394
0.021042
0.0136772
0.0258671
0.0255687
0.02535
0.0252672
0.025301
0.0253817
0.0254361
0.0254081
0.0252706
0.0250166
0.0246443
0.0240942
0.0232972
0.0217949
0.0193372
0.0142347
0.0257108
0.0253979
0.0251672
0.0250776
0.0251057
0.0251745
0.0252045
0.0251374
0.0249449
0.0246183
0.0241495
0.0234919
0.0225733
0.0211774
0.0191045
0.0162949
0.0255791
0.0252553
0.0250211
0.0249374
0.0249704
0.0250349
0.0250468
0.024948
0.0247116
0.024332
0.0238017
0.0230996
0.0221616
0.0209457
0.019214
0.0173131
0.0254952
0.0251709
0.0249498
0.0248851
0.0249283
0.0249885
0.0249815
0.0248527
0.0245795
0.0241602
0.0235912
0.0228703
0.0219457
0.0208411
0.0193535
0.0177855
0.0254711
0.025165
0.0249765
0.0249364
0.024984
0.0250306
0.0249982
0.0248387
0.024534
0.0240852
0.0234926
0.0227629
0.0218601
0.0208219
0.0195177
0.0181414
0.0254915
0.025228
0.0250887
0.0250744
0.0251199
0.0251455
0.025084
0.0248958
0.0245675
0.0241013
0.0235002
0.0227717
0.0218932
0.0208959
0.0197028
0.0184265
0.0254943
0.0252935
0.0252061
0.0252213
0.0252731
0.0252881
0.0252087
0.0250034
0.0246637
0.0241931
0.0235956
0.0228756
0.0220165
0.0210356
0.0198768
0.0186163
0.0261925
0.0259056
0.0257064
0.02565
0.0257111
0.0258249
0.0259254
0.0259594
0.0259029
0.0257552
0.0255255
0.0251698
0.0246375
0.0234239
0.0210597
0.0133178
0.0260192
0.0257204
0.025506
0.0254314
0.025474
0.0255631
0.0256259
0.0256065
0.0254775
0.0252308
0.0248627
0.0243065
0.0234852
0.021908
0.0193159
0.0139548
0.025848
0.0255328
0.0253033
0.0252177
0.025251
0.0253254
0.0253612
0.0252997
0.0251116
0.0247876
0.024318
0.0236505
0.022708
0.0212547
0.0190879
0.016142
0.0257011
0.0253728
0.0251364
0.0250527
0.0250884
0.0251574
0.0251745
0.02508
0.0248461
0.0244665
0.0239327
0.0232208
0.0222619
0.0210082
0.0192105
0.0172378
0.0256032
0.0252727
0.0250463
0.0249792
0.0250243
0.0250894
0.0250881
0.0249637
0.0246921
0.0242715
0.0236978
0.0229678
0.0220258
0.0208957
0.0193605
0.0177455
0.0255682
0.0252548
0.0250594
0.0250167
0.0250668
0.0251194
0.0250934
0.0249383
0.0246347
0.0241839
0.0235861
0.022848
0.0219303
0.0208729
0.0195344
0.0181226
0.0255825
0.025311
0.0251657
0.0251507
0.0252003
0.0252327
0.0251777
0.0249935
0.0246658
0.0241973
0.0235909
0.0228546
0.0219632
0.0209502
0.0197307
0.0184251
0.0255823
0.0253754
0.0252849
0.0253019
0.0253596
0.0253821
0.025309
0.0251072
0.0247676
0.0242945
0.0236921
0.022965
0.0220947
0.0210994
0.0199168
0.0186283
0.0263267
0.0260404
0.0258467
0.0258011
0.025874
0.0259988
0.0261099
0.0261544
0.0261078
0.0259684
0.025743
0.0253818
0.0248255
0.0235461
0.0210537
0.0130365
0.0261428
0.0258437
0.0256331
0.0255665
0.0256179
0.025715
0.025785
0.0257721
0.0256485
0.0254052
0.0250366
0.0244707
0.0236244
0.0219848
0.01929
0.0137438
0.0259588
0.0256426
0.0254148
0.0253338
0.0253727
0.0254527
0.0254937
0.0254362
0.0252507
0.0249268
0.0244539
0.0237754
0.0228106
0.0213103
0.0190718
0.0160289
0.0258005
0.025469
0.0252316
0.0251492
0.0251882
0.0252616
0.0252832
0.0251918
0.0249591
0.0245782
0.0240399
0.023318
0.0223408
0.0210561
0.0192079
0.0171823
0.0256913
0.0253565
0.0251267
0.0250589
0.0251062
0.0251758
0.0251792
0.025058
0.0247871
0.0243647
0.0237861
0.0230477
0.0220908
0.0209397
0.019368
0.0177168
0.0256476
0.0253291
0.0251291
0.0250851
0.0251378
0.0251954
0.0251746
0.0250228
0.0247198
0.0242669
0.0236641
0.0229185
0.0219883
0.0209153
0.01955
0.0181106
0.0256573
0.0253799
0.0252306
0.0252154
0.0252687
0.0253068
0.0252571
0.025076
0.0247486
0.0242778
0.0236666
0.0229234
0.0220214
0.0209955
0.0197552
0.0184265
0.0256546
0.0254434
0.025351
0.0253699
0.0254327
0.0254614
0.0253934
0.0251943
0.0248547
0.0243792
0.0237723
0.0230389
0.0221591
0.0211519
0.0199505
0.0186398
0.0264209
0.0261354
0.0259458
0.0259087
0.025992
0.0261264
0.0262461
0.0262982
0.026258
0.0261228
0.0258979
0.0255299
0.0249536
0.0236274
0.0210496
0.0128583
0.0262297
0.0259306
0.0257231
0.0256632
0.0257227
0.0258273
0.0259035
0.0258955
0.0257752
0.025533
0.0251622
0.0245873
0.0237212
0.0220367
0.0192717
0.0136072
0.0260365
0.0257202
0.0254942
0.0254176
0.0254624
0.0255479
0.0255934
0.0255391
0.0253549
0.0250303
0.0245535
0.0238657
0.0228834
0.0213488
0.0190611
0.0159566
0.0258704
0.0255373
0.0253
0.0252199
0.0252628
0.0253407
0.0253661
0.0252771
0.0250449
0.0246623
0.0241198
0.0233897
0.0223985
0.0210914
0.0192093
0.0171497
0.0257536
0.0254164
0.0251852
0.0251182
0.0251686
0.0252422
0.0252495
0.0251305
0.0248599
0.0244355
0.0238528
0.0231075
0.0221396
0.0209734
0.0193773
0.0177017
0.0257038
0.0253826
0.0251804
0.0251368
0.0251923
0.0252541
0.0252372
0.0250877
0.0247848
0.0243299
0.0237232
0.0229716
0.0220324
0.020948
0.0195646
0.0181058
0.0257104
0.0254298
0.0252786
0.0252643
0.0253208
0.0253632
0.0253173
0.0251383
0.0248109
0.024338
0.0237231
0.0229747
0.022065
0.0210296
0.0197751
0.0184301
0.0257063
0.0254925
0.0253993
0.02542
0.0254866
0.0255199
0.0254555
0.0252583
0.0249184
0.0244409
0.0238306
0.0230924
0.0222058
0.0211898
0.0199754
0.0186492
0.026468
0.026183