/*--------------------------------*- C++ -*----------------------------------*\
| =========                 |                                                 |
| \\      /  F ield         | foam-extend: Open Source CFD                    |
|  \\    /   O peration     | Version:     3.1                                |
|   \\  /    A nd           | Web:         http://www.extend-project.de       |
|    \\/     M anipulation  |                                                 |
\*---------------------------------------------------------------------------*/
FoamFile
{
    version     2.0;
    format      ascii;
    class       surfaceScalarField;
    location    "1.7";
    object      phi;
}
// * * * * * * * * * * * * * * * * * * * * * * * * * * * * * * * * * * * * * //

dimensions      [0 3 -1 0 0 0 0];

internalField   nonuniform List<scalar> 
41600
(
1.16985e-05
1.27513e-07
-1.31871e-06
1.30347e-06
1.15916e-05
7.73676e-08
-3.14972e-06
3.17927e-06
1.17684e-05
-2.33123e-07
-4.57379e-06
4.6301e-06
1.22791e-05
-5.55591e-07
-5.58833e-06
5.63327e-06
1.2992e-05
-7.20594e-07
-6.22935e-06
6.23702e-06
1.3721e-05
-6.9244e-07
-6.60895e-06
6.57241e-06
1.43175e-05
-5.22634e-07
-6.87921e-06
6.80538e-06
1.47018e-05
-2.86845e-07
-7.20045e-06
7.10295e-06
1.48484e-05
-4.15663e-08
-7.72547e-06
7.62039e-06
1.48062e-05
1.30221e-07
-8.60046e-06
8.51244e-06
1.46284e-05
2.1563e-07
-9.98549e-06
9.94766e-06
1.43909e-05
1.53568e-07
-1.20743e-05
1.21582e-05
1.41233e-05
-1.26682e-07
-1.51183e-05
1.55126e-05
1.35075e-05
-6.66782e-07
-1.92703e-05
2.05529e-05
1.06375e-05
-1.06074e-06
-2.34668e-05
2.73976e-05
-2.93703e-07
-1.99738e-05
3.12436e-05
3.29797e-05
2.45034e-07
-1.54301e-06
1.59218e-06
3.28892e-05
-8.56933e-08
-5.24407e-06
5.49764e-06
3.32131e-05
-9.62849e-07
-8.86824e-06
9.27405e-06
3.40462e-05
-1.82824e-06
-1.17718e-05
1.22113e-05
3.52243e-05
-2.27464e-06
-1.37118e-05
1.40878e-05
3.645e-05
-2.18631e-06
-1.48006e-05
1.50688e-05
3.74442e-05
-1.6792e-06
-1.53532e-05
1.55156e-05
3.80235e-05
-9.51166e-07
-1.57568e-05
1.58418e-05
3.80996e-05
-1.648e-07
-1.63934e-05
1.64406e-05
3.76708e-05
5.02906e-07
-1.76211e-05
1.76772e-05
3.67291e-05
1.02758e-06
-1.97825e-05
1.99123e-05
3.52297e-05
1.32399e-06
-2.32639e-05
2.35929e-05
3.29356e-05
1.30949e-06
-2.85421e-05
2.94001e-05
2.88181e-05
9.12319e-07
-3.58939e-05
3.84323e-05
1.98077e-05
1.79132e-07
-4.29808e-05
5.07512e-05
-4.21388e-07
-3.43592e-05
5.5298e-05
5.13807e-05
2.47138e-07
-1.04919e-06
1.10041e-06
5.11083e-05
-1.82029e-07
-4.64773e-06
5.01647e-06
5.09054e-05
-1.43206e-06
-9.09184e-06
9.76393e-06
5.10275e-05
-2.76003e-06
-1.32985e-05
1.41082e-05
5.1517e-05
-3.53637e-06
-1.65173e-05
1.72895e-05
5.22004e-05
-3.49906e-06
-1.85381e-05
1.91675e-05
5.28088e-05
-2.74994e-06
-1.95841e-05
2.00464e-05
5.30979e-05
-1.56544e-06
-2.01156e-05
2.04407e-05
5.28912e-05
-1.98681e-07
-2.06606e-05
2.09012e-05
5.20868e-05
1.08056e-06
-2.17305e-05
2.19571e-05
5.05706e-05
2.25001e-06
-2.38008e-05
2.40946e-05
4.81547e-05
3.23005e-06
-2.7372e-05
2.78818e-05
4.43983e-05
3.972e-06
-3.30544e-05
3.41484e-05
3.78541e-05
4.3996e-06
-4.13767e-05
4.44336e-05
2.48326e-05
3.85071e-06
-4.98823e-05
5.92322e-05
5.78852e-07
-3.99468e-05
6.55675e-05
6.67181e-05
1.87984e-07
-6.84128e-07
6.98961e-07
6.63002e-05
-1.14016e-07
-3.49489e-06
3.84472e-06
6.5458e-05
-1.35864e-06
-7.75442e-06
8.52328e-06
6.44964e-05
-2.82873e-06
-1.24879e-05
1.35182e-05
6.37024e-05
-3.79926e-06
-1.66201e-05
1.76769e-05
6.31652e-05
-3.87037e-06
-1.95329e-05
2.04415e-05
6.27727e-05
-3.05189e-06
-2.11911e-05
2.18856e-05
6.23125e-05
-1.60747e-06
-2.19895e-05
2.24917e-05
6.15839e-05
1.4987e-07
-2.25173e-05
2.28974e-05
6.03609e-05
1.97472e-06
-2.33998e-05
2.37286e-05
5.84456e-05
3.78519e-06
-2.5206e-05
2.55862e-05
5.55239e-05
5.55492e-06
-2.85205e-05
2.91173e-05
5.10255e-05
7.28605e-06
-3.40368e-05
3.52211e-05
4.32021e-05
8.99374e-06
-4.25517e-05
4.5781e-05
2.77854e-05
9.33218e-06
-5.1886e-05
6.18212e-05
3.16974e-06
-4.2238e-05
7.01969e-05
7.89604e-05
1.11724e-07
-5.21296e-07
5.02638e-07
7.8521e-05
4.88828e-08
-2.64077e-06
2.91727e-06
7.72842e-05
-8.77347e-07
-6.38412e-06
7.13965e-06
7.544e-05
-2.10891e-06
-1.11345e-05
1.22589e-05
7.34031e-05
-2.9919e-06
-1.57555e-05
1.69851e-05
7.15153e-05
-3.08068e-06
-1.93262e-05
2.04243e-05
6.98971e-05
-2.28641e-06
-2.15244e-05
2.23772e-05
6.84618e-05
-7.83869e-07
-2.26065e-05
2.32181e-05
6.70391e-05
1.13142e-06
-2.31658e-05
2.3607e-05
6.53613e-05
3.28637e-06
-2.38792e-05
2.42453e-05
6.31511e-05
5.59405e-06
-2.54021e-05
2.58034e-05
5.99936e-05
8.1014e-06
-2.83744e-05
2.89855e-05
5.52187e-05
1.08768e-05
-3.35264e-05
3.47106e-05
4.68176e-05
1.4177e-05
-4.18867e-05
4.51045e-05
2.98421e-05
1.62772e-05
-5.16719e-05
6.17024e-05
7.63545e-06
-4.27182e-05
7.19576e-05
8.8112e-05
4.89494e-08
-4.60656e-07
4.20766e-07
8.77111e-05
2.43865e-07
-2.14209e-06
2.34808e-06
8.63255e-05
-1.96216e-07
-5.40951e-06
6.11396e-06
8.3964e-05
-8.96707e-07
-9.97755e-06
1.11268e-05
8.10478e-05
-1.40215e-06
-1.47895e-05
1.6116e-05
7.80799e-05
-1.33541e-06
-1.87607e-05
1.99833e-05
7.53847e-05
-5.51473e-07
-2.1339e-05
2.22993e-05
7.30653e-05
8.5462e-07
-2.2628e-05
2.3309e-05
7.09928e-05
2.7308e-06
-2.31867e-05
2.36598e-05
6.89376e-05
4.97143e-06
-2.37224e-05
2.40925e-05
6.65828e-05
7.56406e-06
-2.49317e-05
2.53164e-05
6.34467e-05
1.06617e-05
-2.74841e-05
2.80599e-05
5.87874e-05
1.44181e-05
-3.20973e-05
3.32154e-05
5.03766e-05
1.9533e-05
-3.99735e-05
4.30283e-05
3.22756e-05
2.4617e-05
-4.98682e-05
5.96293e-05
1.50219e-05
-4.17085e-05
7.16339e-05
9.41859e-05
1.41699e-08
-4.29452e-07
3.83543e-07
9.38504e-05
4.21532e-07
-1.86637e-06
2.02423e-06
9.24412e-05
5.56501e-07
-4.80134e-06
5.45778e-06
8.9855e-05
5.43019e-07
-9.1651e-06
1.03116e-05
8.64584e-05
6.19072e-07
-1.40047e-05
1.538e-05
8.28353e-05
9.89763e-07
-1.81647e-05
1.94626e-05
7.94595e-05
1.79597e-06
-2.09467e-05
2.1975e-05
7.65479e-05
3.04344e-06
-2.23363e-05
2.30592e-05
7.40834e-05
4.70904e-06
-2.28352e-05
2.33214e-05
7.1885e-05
6.81223e-06
-2.3156e-05
2.35136e-05
6.96545e-05
9.44599e-06
-2.39998e-05
2.43485e-05
6.69158e-05
1.28981e-05
-2.60261e-05
2.65284e-05
6.28997e-05
1.74462e-05
-2.98807e-05
3.08687e-05
5.5355e-05
2.43928e-05
-3.68013e-05
3.94862e-05
3.69621e-05
3.40215e-05
-4.6375e-05
5.53633e-05
2.82608e-05
-3.88115e-05
6.87743e-05
9.72149e-05
-4.01185e-07
3.51652e-07
1.96046e-09
9.69033e-05
-1.70704e-06
1.84191e-06
5.98305e-07
9.55372e-05
-4.45804e-06
5.08625e-06
1.29438e-06
9.29249e-05
-8.67907e-06
9.81357e-06
2.02084e-06
8.94004e-05
-1.34629e-05
1.48548e-05
2.75162e-06
8.55548e-05
-1.76483e-05
1.89784e-05
3.50525e-06
8.19404e-05
-2.04654e-05
2.1525e-05
4.35077e-06
7.8863e-05
-2.18325e-05
2.25736e-05
5.3797e-06
7.63794e-05
-2.22088e-05
2.26951e-05
6.70633e-06
7.43743e-05
-2.22794e-05
2.26168e-05
8.47991e-06
7.26201e-05
-2.27137e-05
2.3018e-05
1.08959e-05
7.07973e-05
-2.41045e-05
2.45055e-05
1.432e-05
6.82656e-05
-2.69756e-05
2.77679e-05
1.91857e-05
6.32637e-05
-3.22429e-05
3.42193e-05
2.74182e-05
4.81673e-05
-4.09265e-05
4.80124e-05
4.20322e-05
-3.26734e-05
5.97463e-05
5.67984e-05
1.24918e-05
1.00269e-07
-1.2722e-06
1.2305e-05
2.39246e-08
-2.98682e-06
1.23696e-05
-3.14892e-07
-4.32353e-06
1.27504e-05
-6.70381e-07
-5.29879e-06
1.33187e-05
-8.58853e-07
-5.93881e-06
1.38787e-05
-8.33611e-07
-6.33526e-06
1.42663e-05
-6.46537e-07
-6.62028e-06
1.43858e-05
-3.82077e-07
-6.93796e-06
1.41958e-05
-1.09591e-07
-7.42579e-06
1.37137e-05
9.1949e-08
-8.21037e-06
1.29514e-05
1.92661e-07
-9.41578e-06
1.19037e-05
1.37088e-07
-1.11637e-05
1.04764e-05
-1.38264e-07
-1.35527e-05
8.30003e-06
-6.5424e-07
-1.64397e-05
4.47349e-06
-1.24228e-06
-1.8398e-05
-1.67267e-06
-1.34574e-05
3.52555e-05
2.11212e-07
-1.43994e-06
3.50237e-05
-1.66764e-07
-4.82157e-06
3.51263e-05
-1.12607e-06
-8.15971e-06
3.56777e-05
-2.09667e-06
-1.08969e-05
3.6526e-05
-2.62785e-06
-1.2791e-05
3.7368e-05
-2.56625e-06
-1.391e-05
3.79047e-05
-2.02092e-06
-1.45155e-05
3.7925e-05
-1.20869e-06
-1.49505e-05
3.73074e-05
-3.23083e-07
-1.55623e-05
3.60038e-05
4.46414e-07
-1.6672e-05
3.39291e-05
1.04967e-06
-1.85648e-05
3.09163e-05
1.39783e-06
-2.15118e-05
2.65674e-05
1.39888e-06
-2.57304e-05
1.99885e-05
9.42643e-07
-3.09118e-05
9.82889e-06
-8.49061e-08
-3.39785e-05
-1.97114e-06
-2.31536e-05
5.49579e-05
2.12079e-07
-9.68978e-07
5.45657e-05
-2.47133e-07
-4.17518e-06
5.41214e-05
-1.5929e-06
-8.18073e-06
5.38795e-05
-3.07838e-06
-1.20749e-05
5.39034e-05
-4.00805e-06
-1.5161e-05
5.40374e-05
-4.04765e-06
-1.71907e-05
5.40129e-05
-3.26792e-06
-1.83126e-05
5.35656e-05
-1.96076e-06
-1.89162e-05
5.24826e-05
-4.26492e-07
-1.94742e-05
5.06049e-05
1.04986e-06
-2.04562e-05
4.77225e-05
2.39876e-06
-2.22675e-05
4.35e-05
3.53444e-06
-2.52861e-05
3.72932e-05
4.39317e-06
-2.98419e-05
2.77989e-05
4.78816e-06
-3.57279e-05
1.33265e-05
3.86928e-06
-3.9364e-05
-1.75923e-07
-2.65502e-05
7.1373e-05
1.49587e-07
-6.47914e-07
7.08867e-05
-1.56829e-07
-3.09889e-06
6.98525e-05
-1.46725e-06
-6.8458e-06
6.85222e-05
-3.09274e-06
-1.11432e-05
6.71825e-05
-4.2464e-06
-1.50421e-05
6.59581e-05
-4.4366e-06
-1.79196e-05
6.47724e-05
-3.61423e-06
-1.96591e-05
6.34248e-05
-2.04077e-06
-2.05619e-05
6.16826e-05
-5.938e-08
-2.11422e-05
5.92737e-05
2.02952e-06
-2.19706e-05
5.5882e-05
4.12933e-06
-2.35448e-05
5.10236e-05
6.19571e-06
-2.63233e-05
4.38733e-05
8.23404e-06
-3.07273e-05
3.27636e-05
1.00899e-05
-3.67438e-05
1.54437e-05
1.01016e-05
-4.07984e-05
3.50423e-06
-2.76507e-05
8.44644e-05
7.0959e-08
-5.14061e-07
8.39927e-05
1.8113e-08
-2.34401e-06
8.26374e-05
-9.33495e-07
-5.5626e-06
8.04813e-05
-2.27734e-06
-9.79376e-06
7.78896e-05
-3.32016e-06
-1.409e-05
7.52302e-05
-3.53018e-06
-1.75733e-05
7.2686e-05
-2.74644e-06
-1.9848e-05
7.02201e-05
-1.12179e-06
-2.10595e-05
6.76724e-05
1.0326e-06
-2.17101e-05
6.47199e-05
3.5026e-06
-2.23998e-05
6.09759e-05
6.1914e-06
-2.37201e-05
5.58349e-05
9.14378e-06
-2.61815e-05
4.8332e-05
1.24708e-05
-3.02602e-05
3.64263e-05
1.62533e-05
-3.61445e-05
1.71226e-05
1.82011e-05
-4.04676e-05
9.35346e-06
-2.7547e-05
9.42475e-05
7.28952e-09
-4.66762e-07
9.38238e-05
2.21298e-07
-1.92161e-06
9.23789e-05
-2.16599e-07
-4.68148e-06
8.9781e-05
-9.72896e-07
-8.68405e-06
8.63514e-05
-1.57878e-06
-1.31014e-05
8.25888e-05
-1.5911e-06
-1.69371e-05
7.88897e-05
-8.0365e-07
-1.95826e-05
7.54362e-05
7.2477e-07
-2.10211e-05
7.21483e-05
2.83489e-06
-2.1701e-05
6.87648e-05
5.41351e-06
-2.22498e-05
6.48671e-05
8.45131e-06
-2.32938e-05
5.9775e-05
1.2128e-05
-2.53763e-05
5.24411e-05
1.66948e-05
-2.89874e-05
4.04426e-05
2.27859e-05
-3.45077e-05
1.95551e-05
2.81774e-05
-3.8957e-05
1.87045e-05
-2.64591e-05
0.000100738
-1.90273e-08
-4.40595e-07
0.00010038
4.06014e-07
-1.69276e-06
9.89476e-05
5.57623e-07
-4.14322e-06
9.61857e-05
5.44979e-07
-7.92099e-06
9.23326e-05
5.90675e-07
-1.2321e-05
8.79314e-05
9.565e-07
-1.63111e-05
8.35259e-05
1.80737e-06
-1.91522e-05
7.94366e-05
3.18457e-06
-2.07068e-05
7.57169e-05
5.07472e-06
-2.13553e-05
7.21888e-05
7.51157e-06
-2.17259e-05
6.84735e-05
1.06183e-05
-2.24515e-05
6.39001e-05
1.4751e-05
-2.40757e-05
5.74404e-05
2.03225e-05
-2.70486e-05
4.64447e-05
2.88773e-05
-3.1897e-05
2.48154e-05
3.97665e-05
-3.63348e-05
3.5221e-05
-2.4285e-05
0.000103974
-4.12794e-07
-1.92237e-08
0.000103636
-1.5574e-06
5.94301e-07
0.000102263
-3.83916e-06
1.31154e-06
9.95214e-05
-7.46962e-06
2.07764e-06
9.55828e-05
-1.1797e-05
2.86338e-06
9.09933e-05
-1.57949e-05
3.69261e-06
8.63638e-05
-1.86675e-05
4.63906e-06
8.21166e-05
-2.0211e-05
5.81022e-06
7.8401e-05
-2.07606e-05
7.3421e-06
7.51304e-05
-2.09164e-05
9.41925e-06
7.2033e-05
-2.12872e-05
1.22891e-05
6.8625e-05
-2.23766e-05
1.64311e-05
6.41042e-05
-2.45463e-05
2.2414e-05
5.61615e-05
-2.82825e-05
3.28596e-05
3.77607e-05
-3.27106e-05
4.99513e-05
-2.0505e-05
6.82319e-05
1.31673e-05
7.44865e-08
-1.16591e-06
1.29088e-05
-2.849e-08
-2.69982e-06
1.28762e-05
-3.94893e-07
-3.89602e-06
1.31459e-05
-7.83515e-07
-4.78494e-06
1.35903e-05
-9.97715e-07
-5.3855e-06
1.4004e-05
-9.79575e-07
-5.7694e-06
1.42094e-05
-7.79998e-07
-6.04566e-06
1.40985e-05
-4.90783e-07
-6.33631e-06
1.36207e-05
-1.90748e-07
-6.75727e-06
1.27791e-05
3.91679e-08
-7.40794e-06
1.15763e-05
1.62954e-07
-8.37586e-06
9.9954e-06
1.37143e-07
-9.71999e-06
7.96084e-06
-7.77689e-08
-1.14404e-05
5.30122e-06
-5.09087e-07
-1.3271e-05
1.97327e-06
-1.14773e-06
-1.39223e-05
-1.80556e-06
-9.29029e-06
3.72031e-05
1.78736e-07
-1.28644e-06
3.6849e-05
-2.43892e-07
-4.25208e-06
3.67655e-05
-1.2777e-06
-7.19339e-06
3.70811e-05
-2.34766e-06
-9.64843e-06
3.76511e-05
-2.96475e-06
-1.13939e-05
3.81641e-05
-2.93844e-06
-1.24642e-05
3.83022e-05
-2.36707e-06
-1.30665e-05
3.78322e-05
-1.482e-06
-1.34894e-05
3.66116e-05
-5.02773e-07
-1.40296e-05
3.45714e-05
3.63998e-07
-1.49567e-05
3.16041e-05
1.0536e-06
-1.64881e-05
2.75328e-05
1.48551e-06
-1.87889e-05
2.20364e-05
1.58208e-06
-2.18938e-05
1.46563e-05
1.22149e-06
-2.52623e-05
5.52724e-06
8.10676e-08
-2.60783e-05
-2.11547e-06
-1.61955e-05
5.80204e-05
1.78329e-07
-8.60091e-07
5.75268e-05
-3.09382e-07
-3.61615e-06
5.68861e-05
-1.73606e-06
-7.08168e-06
5.63476e-05
-3.36326e-06
-1.05208e-05
5.59848e-05
-4.44051e-06
-1.33225e-05
5.56519e-05
-4.56521e-06
-1.52309e-05
5.50783e-05
-3.77239e-06
-1.63338e-05
5.39861e-05
-2.36189e-06
-1.69441e-05
5.21345e-05
-6.61838e-07
-1.74636e-05
4.93442e-05
9.87672e-07
-1.82895e-05
4.53659e-05
2.51545e-06
-1.9751e-05
3.98459e-05
3.82598e-06
-2.21067e-05
3.22043e-05
4.85773e-06
-2.54759e-05
2.16412e-05
5.38189e-06
-2.93252e-05
8.27607e-06
4.34024e-06
-3.02581e-05
-3.09121e-08
-1.84465e-05
7.53583e-05
1.10671e-07
-5.86328e-07
7.48109e-05
-1.99783e-07
-2.66114e-06
7.36265e-05
-1.55996e-06
-5.83745e-06
7.20074e-05
-3.31826e-06
-9.5692e-06
7.02264e-05
-4.64123e-06
-1.30603e-05
6.84264e-05
-4.95413e-06
-1.57307e-05
6.65575e-05
-4.14638e-06
-1.74162e-05
6.44331e-05
-2.46874e-06
-1.83306e-05
6.18003e-05
-2.72217e-07
-1.8899e-05
5.83776e-05
2.04769e-06
-1.9608e-05
5.37937e-05
4.42331e-06
-2.08688e-05
4.75307e-05
6.78153e-06
-2.30159e-05
3.87858e-05
9.13026e-06
-2.62549e-05
2.63733e-05
1.12322e-05
-3.01817e-05
1.00367e-05
1.11637e-05
-3.12852e-05
4.20347e-06
-1.89867e-05
8.91764e-05
3.10187e-08
-4.79941e-07
8.86673e-05
-1.37148e-08
-2.02101e-06
8.7222e-05
-9.78498e-07
-4.69869e-06
8.48347e-05
-2.41252e-06
-8.3122e-06
8.18109e-05
-3.59789e-06
-1.21095e-05
7.85198e-05
-3.9283e-06
-1.5308e-05
7.51867e-05
-3.17107e-06
-1.74903e-05
7.18189e-05
-1.44832e-06
-1.87121e-05
6.82886e-05
9.18572e-07
-1.93705e-05
6.42388e-05
3.67462e-06
-1.9977e-05
5.92504e-05
6.71528e-06
-2.10236e-05
5.26682e-05
1.00787e-05
-2.28965e-05
4.35064e-05
1.38947e-05
-2.58628e-05
3.01367e-05
1.81378e-05
-2.96804e-05
1.16224e-05
2.01422e-05
-3.09318e-05
1.08908e-05
-1.86904e-05
9.95018e-05
-3.16023e-08
-4.41074e-07
9.90415e-05
1.99422e-07
-1.6744e-06
9.75498e-05
-2.29069e-07
-3.93926e-06
9.47882e-05
-1.02535e-06
-7.30957e-06
9.09761e-05
-1.71727e-06
-1.11699e-05
8.65801e-05
-1.80765e-06
-1.46618e-05
8.20387e-05
-1.02957e-06
-1.71827e-05
7.76017e-05
5.98576e-07
-1.8631e-05
7.32482e-05
2.91419e-06
-1.93431e-05
6.8718e-05
5.79844e-06
-1.98435e-05
6.35612e-05
9.23806e-06
-2.06599e-05
5.70489e-05
1.34271e-05
-2.22124e-05
4.80855e-05
1.86713e-05
-2.48007e-05
3.45451e-05
2.55312e-05
-2.83608e-05
1.41903e-05
3.12772e-05
-2.97372e-05
2.14426e-05
-1.77675e-05
0.000106351
-5.34769e-08
-4.15153e-07
0.000105951
3.9514e-07
-1.4891e-06
0.000104497
5.65918e-07
-3.48347e-06
0.000101622
5.60663e-07
-6.63265e-06
9.74436e-05
5.84576e-07
-1.04443e-05
9.24383e-05
9.40346e-07
-1.40537e-05
8.71821e-05
1.82465e-06
-1.67502e-05
8.20798e-05
3.31272e-06
-1.83187e-05
7.72596e-05
5.40232e-06
-1.90233e-05
7.25779e-05
8.13895e-06
-1.93848e-05
6.76396e-05
1.16652e-05
-1.99403e-05
6.17313e-05
1.63778e-05
-2.11181e-05
5.37908e-05
2.27732e-05
-2.32101e-05
4.12949e-05
3.24599e-05
-2.63297e-05
1.9892e-05
4.41988e-05
-2.78535e-05
3.95238e-05
-1.62528e-05
0.000109763
-3.91937e-07
-3.85214e-08
0.000109381
-1.37749e-06
5.97746e-07
0.000107995
-3.22505e-06
1.33695e-06
0.000105179
-6.23232e-06
2.13955e-06
0.000100958
-9.9663e-06
2.97467e-06
9.5803e-05
-1.35696e-05
3.87052e-06
9.03445e-05
-1.62918e-05
4.90739e-06
8.50968e-05
-1.78579e-05
6.20726e-06
8.03014e-05
-1.84882e-05
7.92532e-06
7.59258e-05
-1.8677e-05
1.02751e-05
7.17052e-05
-1.89452e-05
1.35437e-05
6.71245e-05
-1.96997e-05
1.82816e-05
6.13987e-05
-2.1186e-05
2.51387e-05
5.21728e-05
-2.35994e-05
3.70027e-05
3.36859e-05
-2.54846e-05
5.54596e-05
-1.37432e-05
7.3851e-05
1.37268e-05
5.16749e-08
-1.00503e-06
1.34055e-05
-7.60171e-08
-2.30249e-06
1.32901e-05
-4.67228e-07
-3.31336e-06
1.34668e-05
-8.86695e-07
-4.07495e-06
1.38086e-05
-1.12658e-06
-4.60078e-06
1.41017e-05
-1.11821e-06
-4.9443e-06
1.41572e-05
-9.10482e-07
-5.19064e-06
1.38587e-05
-6.00795e-07
-5.43699e-06
1.31539e-05
-2.77902e-07
-5.77458e-06
1.20413e-05
-1.79723e-08
-6.27735e-06
1.05355e-05
1.32559e-07
-7.00263e-06
8.63565e-06
1.47776e-07
-7.96794e-06
6.32477e-06
-1.34936e-09
-9.12818e-06
3.59854e-06
-3.27797e-07
-1.0217e-05
8.39102e-07
-9.3073e-07
-1.02322e-05
-1.61448e-06
-6.43984e-06
3.88235e-05
1.49667e-07
-1.08776e-06
3.83649e-05
-3.12115e-07
-3.5574e-06
3.81267e-05
-1.40969e-06
-6.01264e-06
3.82488e-05
-2.56808e-06
-8.08923e-06
3.85907e-05
-3.26621e-06
-9.59617e-06
3.88325e-05
-3.27904e-06
-1.05452e-05
3.86403e-05
-2.69209e-06
-1.10927e-05
3.7765e-05
-1.74717e-06
-1.14677e-05
3.60532e-05
-6.86115e-07
-1.19096e-05
3.34362e-05
2.72401e-07
-1.263e-05
2.98161e-05
1.04962e-06
-1.37851e-05
2.50602e-05
1.57972e-06
-1.5465e-05
1.89774e-05
1.8018e-06
-1.76141e-05
1.14779e-05
1.58769e-06
-1.96783e-05
3.44329e-06
4.62906e-07
-1.94374e-05
-1.83041e-06
-1.13952e-05
6.05699e-05
1.47961e-07
-7.24577e-07
5.99906e-05
-3.64531e-07
-2.98443e-06
5.91905e-05
-1.85638e-06
-5.83484e-06
5.84136e-05
-3.60478e-06
-8.70713e-06
5.77377e-05
-4.81572e-06
-1.10971e-05
5.70217e-05
-5.02559e-06
-1.27684e-05
5.59927e-05
-4.23282e-06
-1.37641e-05
5.43633e-05
-2.73911e-06
-1.43227e-05
5.18806e-05
-9.00196e-07
-1.47668e-05
4.83624e-05
9.11376e-07
-1.54103e-05
4.35624e-05
2.60736e-06
-1.65088e-05
3.71697e-05
4.09369e-06
-1.82279e-05
2.87518e-05
5.31504e-06
-2.05713e-05
1.7953e-05
6.01306e-06
-2.29517e-05
5.80417e-06
4.99009e-06
-2.26364e-05
4.25922e-07
-1.29636e-05
7.8676e-05
7.65782e-08
-5.00863e-07
7.80743e-05
-2.39469e-07
-2.18457e-06
7.67703e-05
-1.63509e-06
-4.75472e-06
7.49263e-05
-3.50191e-06
-7.82806e-06
7.27958e-05
-4.97308e-06
-1.07724e-05
7.05293e-05
-5.40272e-06
-1.3087e-05
6.80958e-05
-4.62122e-06
-1.45943e-05
6.5324e-05
-2.86294e-06
-1.54351e-05
6.19544e-05
-4.85643e-07
-1.59439e-05
5.7717e-05
2.04225e-06
-1.65015e-05
5.22296e-05
4.6661e-06
-1.744e-05
4.50064e-05
7.29153e-06
-1.89906e-05
3.53703e-05
9.92507e-06
-2.12288e-05
2.25829e-05
1.22702e-05
-2.36514e-05
7.43373e-06
1.22327e-05
-2.33786e-05
4.98655e-06
-1.32321e-05
9.31015e-05
-7.25572e-09
-4.18554e-07
9.25518e-05
-4.33915e-08
-1.66739e-06
9.10334e-05
-1.01285e-06
-3.80252e-06
8.84731e-05
-2.51622e-06
-6.73754e-06
8.51181e-05
-3.82233e-06
-9.90531e-06
8.13251e-05
-4.26394e-06
-1.26538e-05
7.73466e-05
-3.54217e-06
-1.45909e-05
7.32294e-05
-1.7465e-06
-1.57113e-05
6.88819e-05
7.99583e-07
-1.63083e-05
6.39455e-05
3.80472e-06
-1.68031e-05
5.80081e-05
7.15293e-06
-1.7573e-05
5.04334e-05
1.08719e-05
-1.89021e-05
4.03281e-05
1.50927e-05
-2.09252e-05
2.64764e-05
1.97056e-05
-2.32641e-05
9.04098e-06
2.18089e-05
-2.30725e-05
1.22006e-05
-1.29292e-05
0.000103879
-7.11898e-08
-3.85338e-07
0.000103375
1.80114e-07
-1.39385e-06
0.000101841
-2.3567e-07
-3.18218e-06
9.89623e-05
-1.05935e-06
-5.88801e-06
9.48681e-05
-1.82035e-06
-9.07771e-06
8.99812e-05
-1.9823e-06
-1.20565e-05
8.47604e-05
-1.22157e-06
-1.42825e-05
7.95089e-05
4.84127e-07
-1.56103e-05
7.427e-05
2.97057e-06
-1.62752e-05
6.88072e-05
6.11671e-06
-1.66926e-05
6.26835e-05
9.89847e-06
-1.72817e-05
5.51871e-05
1.45128e-05
-1.83569e-05
4.52855e-05
2.02848e-05
-2.00912e-05
3.11943e-05
2.76929e-05
-2.22569e-05
1.17528e-05
3.36909e-05
-2.21777e-05
2.34659e-05
-1.22225e-05
0.000111025
-8.18218e-08
-3.63946e-07
0.000110578
3.8738e-07
-1.24943e-06
0.000109096
5.78269e-07
-2.81517e-06
0.000106147
5.79466e-07
-5.32255e-06
0.000101737
5.94716e-07
-8.44925e-06
9.62745e-05
9.37726e-07
-1.15116e-05
9.0341e-05
1.84618e-06
-1.38845e-05
8.44065e-05
3.42453e-06
-1.53247e-05
7.86711e-05
5.68154e-06
-1.59989e-05
7.30454e-05
8.6721e-06
-1.63144e-05
6.7158e-05
1.25477e-05
-1.67022e-05
6.03168e-05
1.77247e-05
-1.74888e-05
5.15122e-05
2.47366e-05
-1.88572e-05
3.84491e-05
3.5173e-05
-2.07467e-05
1.77399e-05
4.74059e-05
-2.08593e-05
4.23584e-05
-1.1187e-05
0.000114586
-3.43993e-07
-5.33523e-08
0.000114152
-1.16072e-06
6.05007e-07
0.000112746
-2.6062e-06
1.36545e-06
0.000109882
-4.98857e-06
2.19991e-06
0.000105471
-8.04003e-06
3.07912e-06
9.98957e-05
-1.10882e-05
4.0316e-06
9.37845e-05
-1.34804e-05
5.14589e-06
8.77186e-05
-1.49236e-05
6.55626e-06
8.20246e-05
-1.55461e-05
8.43341e-06
7.67378e-05
-1.57312e-05
1.10131e-05
7.16319e-05
-1.58998e-05
1.46082e-05
6.62164e-05
-1.63693e-05
1.98097e-05
5.97685e-05
-1.73039e-05
2.73025e-05
5.00303e-05
-1.87565e-05
4.00682e-05
3.19747e-05
-1.93084e-05
5.92852e-05
-9.46357e-06
7.74484e-05
1.41721e-05
3.23798e-08
-7.97084e-07
1.37981e-05
-1.16201e-07
-1.81234e-06
1.36148e-05
-5.28104e-07
-2.60195e-06
1.37167e-05
-9.74133e-07
-3.20273e-06
1.39774e-05
-1.23735e-06
-3.62412e-06
1.41762e-05
-1.23952e-06
-3.90352e-06
1.41154e-05
-1.02704e-06
-4.10284e-06
1.36737e-05
-7.01353e-07
-4.29399e-06
1.28009e-05
-3.57677e-07
-4.54404e-06
1.14967e-05
-6.88882e-08
-4.90426e-06
9.79677e-06
1.05067e-07
-5.40778e-06
7.72152e-06
1.61816e-07
-6.05452e-06
5.30415e-06
7.91035e-08
-6.7899e-06
2.64344e-06
-1.57296e-07
-7.39895e-06
2.83996e-07
-6.9876e-07
-7.17397e-06
-1.39989e-06
-4.35556e-06
4.01183e-05
1.25151e-07
-8.51136e-07
3.95737e-05
-3.68717e-07
-2.76025e-06
3.92108e-05
-1.51775e-06
-4.66008e-06
3.91795e-05
-2.74996e-06
-6.28212e-06
3.93418e-05
-3.51892e-06
-7.47694e-06
3.93706e-05
-3.56975e-06
-8.24375e-06
3.89189e-05
-2.97499e-06
-8.69296e-06
3.7727e-05
-1.98334e-06
-8.99384e-06
3.56389e-05
-8.54203e-07
-9.32499e-06
3.25967e-05
1.85133e-07
-9.84182e-06
2.85253e-05
1.04251e-06
-1.06512e-05
2.33493e-05
1.66782e-06
-1.1795e-05
1.69939e-05
2.0133e-06
-1.31928e-05
9.60397e-06
1.94245e-06
-1.43882e-05
2.36288e-06
8.94943e-07
-1.379e-05
-1.48102e-06
-7.80192e-06
6.26084e-05
1.21699e-07
-5.65783e-07
6.19586e-05
-4.10266e-07
-2.29313e-06
6.10321e-05
-1.95215e-06
-4.47389e-06
6.00689e-05
-3.79855e-06
-6.69542e-06
5.91488e-05
-5.12283e-06
-8.57301e-06
5.81322e-05
-5.41027e-06
-9.91127e-06
5.67438e-05
-4.62545e-06
-1.07252e-05
5.46905e-05
-3.06818e-06
-1.11845e-05
5.17202e-05
-1.12245e-06
-1.15282e-05
4.76531e-05
8.34494e-07
-1.19926e-05
4.22681e-05
2.67739e-06
-1.27586e-05
3.53147e-05
4.32167e-06
-1.39284e-05
2.64993e-05
5.71747e-06
-1.54601e-05
1.57598e-05
6.58415e-06
-1.68538e-05
4.50637e-06
5.63427e-06
-1.61223e-05
8.88206e-07
-8.88217e-06
8.13281e-05
4.93979e-08
-3.96285e-07
8.06802e-05
-2.73411e-07
-1.67357e-06
7.9282e-05
-1.69312e-06
-3.61558e-06
7.72663e-05
-3.64424e-06
-5.96659e-06
7.48677e-05
-5.23761e-06
-8.25912e-06
7.22385e-05
-5.76978e-06
-1.00983e-05
6.93603e-05
-5.01888e-06
-1.13227e-05
6.60748e-05
-3.20015e-06
-1.20176e-05
6.21345e-05
-6.99392e-07
-1.24267e-05
5.72749e-05
2.02491e-06
-1.28323e-05
5.11356e-05
4.85688e-06
-1.34802e-05
4.32828e-05
7.70812e-06
-1.45242e-05
3.31688e-05
1.05803e-05
-1.59777e-05
2.03603e-05
1.31343e-05
-1.73931e-05
6.10149e-06
1.31671e-05
-1.66526e-05
5.68078e-06
-9.03371e-06
9.62412e-05
-3.85953e-08
-3.34074e-07
9.56524e-05
-6.88762e-08
-1.28317e-06
9.40743e-05
-1.03802e-06
-2.87947e-06
9.13851e-05
-2.59216e-06
-5.10048e-06
8.77829e-05
-3.99504e-06
-7.54567e-06
8.36063e-05
-4.5321e-06
-9.71483e-06
7.91243e-05
-3.84777e-06
-1.128e-05
7.44188e-05
-2.00026e-06
-1.22056e-05
6.94223e-05
6.84775e-07
-1.2696e-05
6.38094e-05
3.89779e-06
-1.3063e-05
5.71817e-05
7.49886e-06
-1.35874e-05
4.89486e-05
1.15054e-05
-1.44662e-05
3.83244e-05
1.60413e-05
-1.5762e-05
2.43784e-05
2.09346e-05
-1.71183e-05
7.75533e-06
2.31401e-05
-1.64224e-05
1.32324e-05
-8.78637e-06
0.000107379
-1.01113e-07
-3.06567e-07
0.000106833
1.63731e-07
-1.08005e-06
0.00010526
-2.38503e-07
-2.40836e-06
0.000102296
-1.0794e-06
-4.43757e-06
9.79983e-05
-1.8935e-06
-6.88109e-06
9.27442e-05
-2.11605e-06
-9.21841e-06
8.69994e-05
-1.37569e-06
-1.10098e-05
8.11078e-05
3.87487e-07
-1.21064e-05
7.51709e-05
3.00765e-06
-1.26611e-05
6.8989e-05
6.36573e-06
-1.29787e-05
6.21554e-05
1.04221e-05
-1.33714e-05
5.39988e-05
1.53687e-05
-1.40636e-05
4.35711e-05
2.15305e-05
-1.51526e-05
2.93284e-05
2.93184e-05
-1.63981e-05
1.05842e-05
3.54982e-05
-1.57917e-05
2.49368e-05
-8.28433e-06
0.000114764
-1.0407e-07
-2.90695e-07
0.00011427
3.82012e-07
-9.73989e-07
0.000112758
5.91568e-07
-2.13274e-06
0.000109756
6.00841e-07
-4.00106e-06
0.000105184
6.12238e-07
-6.38278e-06
9.9387e-05
9.44233e-07
-8.77501e-06
9.29372e-05
1.86911e-06
-1.06794e-05
8.63527e-05
3.51731e-06
-1.18701e-05
7.9896e-05
5.90686e-06
-1.24414e-05
7.35372e-05
9.10011e-06
-1.269e-05
6.6945e-05
1.32501e-05
-1.2938e-05
5.94688e-05
1.87789e-05
-1.34228e-05
5.01694e-05
2.62299e-05
-1.42573e-05
3.69208e-05
3.71563e-05
-1.5336e-05
1.67636e-05
4.96989e-05
-1.49027e-05
4.43258e-05
-7.59715e-06
0.000118445
-2.75045e-07
-6.46461e-08
0.000117961
-9.077e-07
6.13558e-07
0.000116528
-1.9752e-06
1.39301e-06
0.00011363
-3.7437e-06
2.25436e-06
0.000109092
-6.06037e-06
3.17044e-06
0.000103215
-8.43627e-06
4.16922e-06
9.66113e-05
-1.03539e-05
5.34644e-06
8.99085e-05
-1.15499e-05
6.84637e-06
8.35057e-05
-1.2088e-05
8.85147e-06
7.75061e-05
-1.22449e-05
1.16134e-05
7.17327e-05
-1.23369e-05
1.54606e-05
6.57364e-05
-1.25989e-05
2.10048e-05
5.88617e-05
-1.31384e-05
2.89392e-05
4.89346e-05
-1.39547e-05
4.22817e-05
3.1277e-05
-1.39019e-05
6.195e-05
-6.42968e-06
7.99575e-05
1.45039e-05
1.88117e-08
-5.52647e-07
1.40892e-05
-1.47965e-07
-1.2497e-06
1.3854e-05
-5.75982e-07
-1.79075e-06
1.38997e-05
-1.04323e-06
-2.20512e-06
1.41003e-05
-1.32584e-06
-2.49896e-06
1.42303e-05
-1.33775e-06
-2.69571e-06
1.40857e-05
-1.12285e-06
-2.83544e-06
1.35423e-05
-7.8529e-07
-2.96528e-06
1.25533e-05
-4.26043e-07
-3.12893e-06
1.11236e-05
-1.15931e-07
-3.35867e-06
9.30608e-06
8.15411e-08
-3.67181e-06
7.14127e-06
1.7311e-07
-4.06281e-06
4.69496e-06
1.44246e-07
-4.48784e-06
2.12124e-06
-2.41644e-08
-4.80106e-06
1.52637e-08
-5.09825e-07
-4.55817e-06
-1.23008e-06
-2.70863e-06
4.10878e-05
1.06639e-07
-5.83375e-07
4.04768e-05
-4.12392e-07
-1.88483e-06
4.00197e-05
-1.60015e-06
-3.17881e-06
3.98741e-05
-2.88946e-06
-4.29029e-06
3.9904e-05
-3.71522e-06
-5.1175e-06
3.97764e-05
-3.79883e-06
-5.6551e-06
3.91348e-05
-3.20126e-06
-5.97293e-06
3.77131e-05
-2.17533e-06
-6.18211e-06
3.53562e-05
-9.92946e-07
-6.40114e-06
3.20189e-05
1.09952e-07
-6.73048e-06
2.76535e-05
1.0334e-06
-7.23759e-06
2.2232e-05
1.73831e-06
-7.9387e-06
1.57631e-05
2.18573e-06
-8.76545e-06
8.5233e-06
2.23103e-06
-9.40356e-06
1.80289e-06
1.25968e-06
-8.83907e-06
-1.18218e-06
-4.89494e-06
6.41358e-05
1.00823e-07
-3.8713e-07
6.34314e-05
-4.45368e-07
-1.55574e-06
6.24101e-05
-2.0232e-06
-3.0295e-06
6.13096e-05
-3.94327e-06
-4.54114e-06
6.02101e-05
-5.35614e-06
-5.83264e-06
5.89728e-05
-5.70754e-06
-6.76518e-06
5.73201e-05
-4.9338e-06
-7.34e-06
5.49564e-05
-3.33123e-06
-7.66494e-06
5.16318e-05
-1.29916e-06
-7.89746e-06
4.71779e-05
7.66384e-07
-8.19502e-06
4.13994e-05
2.72629e-06
-8.67304e-06
3.41013e-05
4.49752e-06
-9.38954e-06
2.50923e-05
6.03378e-06
-1.02992e-05
1.44823e-05
7.03837e-06
-1.10513e-05
3.82233e-06
6.16405e-06
-1.03667e-05
1.28676e-06
-5.58175e-06
8.33165e-05
2.43415e-08
-2.73202e-07
8.26306e-05
-2.99593e-07
-1.13348e-06
8.11614e-05
-1.7349e-06
-2.43469e-06
7.90206e-05
-3.74722e-06
-4.02188e-06
7.64281e-05
-5.43394e-06
-5.58875e-06
7.35342e-05
-6.04836e-06
-6.86358e-06
7.0329e-05
-5.32644e-06
-7.72477e-06
6.66645e-05
-3.46578e-06
-8.21859e-06
6.2309e-05
-8.68303e-07
-8.50213e-06
5.70055e-05
2.00271e-06
-8.76507e-06
5.04214e-05
4.99592e-06
-9.16579e-06
4.21724e-05
8.0217e-06
-9.79936e-06
3.18097e-05
1.10763e-05
-1.06575e-05
1.90827e-05
1.3792e-05
-1.14199e-05
5.41231e-06
1.38959e-05
-1.0714e-05
6.22454e-06
-5.66783e-06
9.8595e-05
-6.69733e-08
-2.3122e-07
9.79727e-05
-8.85718e-08
-8.71846e-07
9.63475e-05
-1.05523e-06
-1.93397e-06
9.35659e-05
-2.64422e-06
-3.42184e-06
8.97881e-05
-4.11926e-06
-5.08261e-06
8.53354e-05
-4.73147e-06
-6.57896e-06
8.04857e-05
-4.08072e-06
-7.67607e-06
7.53468e-05
-2.19823e-06
-8.33422e-06
6.98747e-05
5.89639e-07
-8.68186e-06
6.3776e-05
3.96009e-06
-8.92171e-06
5.6673e-05
7.7531e-06
-9.24158e-06
4.80198e-05
1.19749e-05
-9.76618e-06
3.71157e-05
1.674e-05
-1.05216e-05
2.32012e-05
2.18346e-05
-1.12464e-05
7.1114e-06
2.41271e-05
-1.05638e-05
1.39885e-05
-5.49939e-06
0.000110003
-1.24429e-07
-2.12569e-07
0.000109421
1.50854e-07
-7.37421e-07
0.000107814
-2.39127e-07
-1.61751e-06
0.00010479
-1.08976e-06
-2.96815e-06
0.00010035
-1.9422e-06
-4.61862e-06
9.48363e-05
-2.21168e-06
-6.22428e-06
8.87126e-05
-1.49047e-06
-7.47636e-06
8.23511e-05
3.12875e-07
-8.25596e-06
7.59017e-05
3.03073e-06
-8.65279e-06
6.92002e-05
6.5476e-06
-8.86478e-06
6.18731e-05
1.08084e-05
-9.09954e-06
5.32896e-05
1.5997e-05
-9.50229e-06
4.25707e-05
2.24313e-05
-1.0125e-05
2.83167e-05
3.04746e-05
-1.07841e-05
1.00281e-05
3.67857e-05
-1.01618e-05
2.59671e-05
-5.17803e-06
0.000117568
-1.20738e-07
-2.01473e-07
0.000117034
3.78363e-07
-6.67723e-07
0.000115493
6.03458e-07
-1.43397e-06
0.000112453
6.21507e-07
-2.67202e-06
0.000107771
6.30484e-07
-4.27389e-06
0.000101741
9.55047e-07
-5.91205e-06
9.49217e-05
1.89028e-06
-7.24042e-06
8.78629e-05
3.58906e-06
-8.08745e-06
8.08759e-05
6.07629e-06
-8.49997e-06
7.39841e-05
9.41972e-06
-8.67028e-06
6.68966e-05
1.37703e-05
-8.81231e-06
5.90035e-05
1.95491e-05
-9.0818e-06
4.94238e-05
2.72977e-05
-9.54407e-06
3.61323e-05
3.85388e-05
-1.01087e-05
1.63387e-05
5.12846e-05
-9.608e-06
4.56724e-05
-4.75179e-06
0.00012134
-1.9068e-07
-7.29467e-08
0.000120813
-6.23743e-07
6.21445e-07
0.000119353
-1.3289e-06
1.41645e-06
0.000116429
-2.49722e-06
2.299e-06
0.000111808
-4.05195e-06
3.24349e-06
0.000105725
-5.67603e-06
4.2778e-06
9.87713e-05
-7.0126e-06
5.50264e-06
9.16051e-05
-7.86462e-06
7.07e-06