/*--------------------------------*- C++ -*----------------------------------*\
| =========                 |                                                 |
| \\      /  F ield         | foam-extend: Open Source CFD                    |
|  \\    /   O peration     | Version:     3.1                                |
|   \\  /    A nd           | Web:         http://www.extend-project.de       |
|    \\/     M anipulation  |                                                 |
\*---------------------------------------------------------------------------*/
FoamFile
{
    version     2.0;
    format      ascii;
    class       pointVectorField;
    location    "1.7";
    object      pointMotionU;
}
// * * * * * * * * * * * * * * * * * * * * * * * * * * * * * * * * * * * * * //

dimensions      [0 1 -1 0 0 0 0];

internalField   nonuniform List<vector> 
16859
(
(0 0 0)
(0 0 0)
(0 0 0)
(0 0 0)
(0 0 0)
(0 0 0)
(0 0 0)
(0 0 0)
(0 0 0)
(0 0 0)
(0 0 0)
(0 0 0)
(0 0 0)
(0 0 0)
(0 0 0)
(0 0 0)
(0 0 0)
(0 0 0)
(3.43054e-10 1.54565e-10 -7.21291e-12)
(6.53195e-10 3.00639e-10 -1.33947e-11)
(9.20448e-10 4.39246e-10 -1.78457e-11)
(1.14401e-09 5.74907e-10 -1.96922e-11)
(1.31926e-09 7.10275e-10 -1.72991e-11)
(1.43592e-09 8.45599e-10 -7.74933e-12)
(1.47535e-09 9.7762e-10 1.40044e-11)
(1.40656e-09 1.09745e-09 5.65317e-11)
(1.18061e-09 1.18699e-09 1.3417e-10)
(7.23592e-10 1.21313e-09 2.7049e-10)
(-6.97765e-11 1.11917e-09 5.03169e-10)
(-1.33479e-09 8.14866e-10 8.89171e-10)
(-3.20804e-09 1.72732e-10 1.50423e-09)
(-5.7248e-09 -9.34985e-10 2.41345e-09)
(-8.56854e-09 -2.42955e-09 3.53466e-09)
(-1.59665e-08 -8.38133e-09 7.64173e-09)
(0 0 0)
(6.86598e-10 3.04408e-10 -1.49284e-11)
(1.30835e-09 5.92349e-10 -2.79214e-11)
(1.84646e-09 8.66167e-10 -3.77668e-11)
(2.30083e-09 1.13525e-09 -4.29997e-11)
(2.66447e-09 1.40562e-09 -4.08021e-11)
(2.92032e-09 1.67924e-09 -2.61028e-11)
(3.03674e-09 1.95224e-09 9.88103e-12)
(2.96066e-09 2.21179e-09 8.20224e-11)
(2.6079e-09 2.4305e-09 2.15096e-10)
(1.85077e-09 2.55773e-09 4.49643e-10)
(5.05894e-10 2.50736e-09 8.50184e-10)
(-1.66647e-09 2.14528e-09 1.51412e-09)
(-4.9186e-09 1.29164e-09 2.57173e-09)
(-9.3441e-09 -2.09596e-10 4.13933e-09)
(-1.44497e-08 -2.20879e-09 6.09252e-09)
(-2.76009e-08 -8.07472e-09 1.48982e-08)
(0 0 0)
(1.03054e-09 4.44896e-10 -2.35275e-11)
(1.96606e-09 8.66286e-10 -4.44366e-11)
(2.78096e-09 1.2683e-09 -6.1325e-11)
(3.47846e-09 1.66569e-09 -7.26217e-11)
(4.05303e-09 2.06898e-09 -7.50937e-11)
(4.48686e-09 2.48405e-09 -6.27992e-11)
(4.74489e-09 2.91066e-09 -2.5408e-11)
(4.76712e-09 3.33956e-09 5.45015e-11)
(4.45764e-09 3.74746e-09 2.05711e-10)
(3.6702e-09 4.08916e-09 4.74823e-10)
(2.19239e-09 4.28706e-09 9.3514e-10)
(-2.60289e-10 4.22186e-09 1.696e-09)
(-4.0052e-09 3.74001e-09 2.9019e-09)
(-9.20897e-09 2.72231e-09 4.67956e-09)
(-1.5395e-08 1.28109e-09 6.8843e-09)
(-3.23046e-08 -1.7634e-09 1.68592e-08)
(0 0 0)
(1.37307e-09 5.71256e-10 -3.31703e-11)
(2.62327e-09 1.1132e-09 -6.33022e-11)
(3.72057e-09 1.6322e-09 -8.91797e-11)
(4.67455e-09 2.14869e-09 -1.09683e-10)
(5.48544e-09 2.67872e-09 -1.22031e-10)
(6.14155e-09 3.23415e-09 -1.2083e-10)
(6.61506e-09 3.82225e-09 -9.65845e-11)
(6.85603e-09 4.44437e-09 -3.33372e-11)
(6.78342e-09 5.09344e-09 9.49342e-11)
(6.27294e-09 5.74982e-09 3.29562e-10)
(5.14239e-09 6.37562e-09 7.33985e-10)
(3.14102e-09 6.90873e-09 1.39995e-09)
(-3.06126e-11 7.26247e-09 2.44348e-09)
(-4.58297e-09 7.34578e-09 3.95504e-09)
(-1.0223e-08 7.07692e-09 5.78298e-09)
(-2.61897e-08 8.28027e-09 1.43178e-08)
(0 0 0)
(1.71056e-09 6.78758e-10 -4.37633e-11)
(3.27295e-09 1.32379e-09 -8.43142e-11)
(4.65499e-09 1.94391e-09 -1.20966e-10)
(5.87517e-09 2.56519e-09 -1.53542e-10)
(6.94332e-09 3.2095e-09 -1.80447e-10)
(7.85941e-09 3.8957e-09 -1.98011e-10)
(8.61178e-09 4.64062e-09 -1.99457e-10)
(9.17426e-09 5.45992e-09 -1.73362e-10)
(9.5022e-09 6.369e-09 -1.01417e-10)
(9.52682e-09 7.38393e-09 4.45097e-11)
(9.14744e-09 8.52189e-09 3.05553e-10)
(8.22216e-09 9.79781e-09 7.37192e-10)
(6.56417e-09 1.1207e-08 1.40182e-09)
(3.98573e-09 1.26646e-08 2.33063e-09)
(4.78229e-10 1.37847e-08 3.38662e-09)
(-1.04705e-08 1.91021e-08 8.46435e-09)
(0 0 0)
(2.03768e-09 7.62942e-10 -5.49803e-11)
(3.90439e-09 1.48916e-09 -1.06758e-10)
(5.56753e-09 2.18984e-09 -1.55413e-10)
(7.0561e-09 2.89598e-09 -2.02029e-10)
(8.39166e-09 3.6347e-09 -2.46648e-10)
(9.58903e-09 4.43135e-09 -2.87971e-10)
(1.06571e-08 5.31169e-09 -3.22911e-10)
(1.16003e-08 6.30474e-09 -3.45956e-10)
(1.24199e-08 7.44668e-09 -3.48419e-10)
(1.31177e-08 8.78649e-09 -3.17818e-10)
(1.36991e-08 1.03926e-08 -2.38047e-10)
(1.41735e-08 1.23557e-08 -9.19566e-11)
(1.45398e-08 1.47663e-08 1.30274e-10)
(1.47279e-08 1.75914e-08 4.09888e-10)
(1.44202e-08 2.01983e-08 6.4711e-10)
(1.10272e-08 2.90294e-08 2.39961e-09)
(0 0 0)
(2.34789e-09 8.19941e-10 -6.63321e-11)
(4.50434e-09 1.60156e-09 -1.29568e-10)
(6.43725e-09 2.35801e-09 -1.90651e-10)
(8.18642e-09 3.12389e-09 -2.52024e-10)
(9.78528e-09 3.93015e-09 -3.15458e-10)
(1.12635e-08 4.80665e-09 -3.82101e-10)
(1.26499e-08 5.7851e-09 -4.52505e-10)
(1.39773e-08 6.90272e-09 -5.26719e-10)
(1.52887e-08 8.20759e-09 -6.04601e-10)
(1.66472e-08 9.76616e-09 -6.8665e-10)
(1.81491e-08 1.16734e-08 -7.75914e-10)
(1.99378e-08 1.40628e-08 -8.8166e-10)
(2.22032e-08 1.71018e-08 -1.02484e-09)
(2.51054e-08 2.09002e-08 -1.24136e-09)
(2.83681e-08 2.49512e-08 -1.57426e-09)
(3.33469e-08 4.04945e-08 -1.75593e-09)
(0 0 0)
(2.634e-09 8.46771e-10 -7.72555e-11)
(5.05833e-09 1.65504e-09 -1.51534e-10)
(7.24151e-09 2.43922e-09 -2.24599e-10)
(9.23302e-09 3.23582e-09 -3.0014e-10)
(1.10766e-08 4.07759e-09 -3.81453e-10)
(1.28138e-08 4.99616e-09 -4.71715e-10)
(1.44889e-08 6.02484e-09 -5.74319e-10)
(1.61543e-08 7.2019e-09 -6.93331e-10)
(1.7879e-08 8.57479e-09 -8.34225e-10)
(1.97593e-08 1.02052e-08 -1.00507e-09)
(2.19333e-08 1.21745e-08 -1.21837e-09)
(2.45933e-08 1.45841e-08 -1.49344e-09)
(2.79839e-08 1.7535e-08 -1.85807e-09)
(3.23363e-08 2.1022e-08 -2.34491e-09)
(3.76278e-08 2.44626e-08 -2.99033e-09)
(6.69148e-08 5.18665e-08 -3.22169e-09)
(0 0 0)
(0 0 0)
(0 0 0)
(0 0 0)
(0 0 0)
(0 0 0)
(0 0 0)
(0 0 0)
(0 0 0)
(0 0 0)
(0 0 0)
(0 0 0)
(0 0 0)
(0 0 0)
(0 0 0)
(0 0 0)
(0 0 0)
(0 0 0)
(3.47284e-10 1.59399e-10 -7.4685e-12)
(6.61078e-10 3.10026e-10 -1.39946e-11)
(9.31178e-10 4.52928e-10 -1.89962e-11)
(1.15665e-09 5.92705e-10 -2.17609e-11)
(1.33258e-09 7.31907e-10 -2.08842e-11)
(1.44815e-09 8.70392e-10 -1.37897e-11)
(1.48385e-09 1.00403e-09 4.06871e-12)
(1.40737e-09 1.12225e-09 4.05424e-11)
(1.16798e-09 1.20385e-09 1.08991e-10)
(6.89692e-10 1.21001e-09 2.31772e-10)
(-1.34054e-10 1.07377e-09 4.45322e-10)
(-1.4358e-09 6.86167e-10 8.06004e-10)
(-3.33642e-09 -1.13632e-10 1.39098e-09)
(-5.81772e-09 -1.50436e-09 2.26878e-09)
(-8.36232e-09 -3.39663e-09 3.33286e-09)
(-1.23257e-08 -1.08597e-08 5.56839e-09)
(0 0 0)
(6.95191e-10 3.14007e-10 -1.54046e-11)
(1.32443e-09 6.11021e-10 -2.90445e-11)
(1.86854e-09 8.93477e-10 -3.99325e-11)
(2.32725e-09 1.17099e-09 -4.69124e-11)
(2.69315e-09 1.4495e-09 -4.7607e-11)
(2.9484e-09 1.73039e-09 -3.75964e-11)
(3.06005e-09 2.00852e-09 -9.05629e-12)
(2.97314e-09 2.26845e-09 5.15129e-11)
(2.60104e-09 2.47815e-09 1.67018e-10)
(1.81367e-09 2.57865e-09 3.75681e-10)
(4.27303e-10 2.46941e-09 7.39673e-10)
(-1.79009e-09 1.99201e-09 1.3553e-09)
(-5.05909e-09 9.28528e-10 2.35573e-09)
(-9.37253e-09 -9.20719e-10 3.86487e-09)
(-1.38625e-08 -3.33618e-09 5.72015e-09)
(-2.08721e-08 -1.00402e-08 1.01578e-08)
(0 0 0)
(1.04372e-09 4.59105e-10 -2.41601e-11)
(1.99088e-09 8.93999e-10 -4.59413e-11)
(2.81545e-09 1.30904e-09 -6.42557e-11)
(3.52062e-09 1.71946e-09 -7.79617e-11)
(4.10059e-09 2.13591e-09 -8.44394e-11)
(4.53694e-09 2.5639e-09 -7.8653e-11)
(4.7936e-09 3.0021e-09 -5.16048e-11)
(4.80929e-09 3.43905e-09 1.22187e-11)
(4.48691e-09 3.8475e-09 1.39007e-10)
(3.6802e-09 4.17551e-09 3.72162e-10)
(2.18092e-09 4.33474e-09 7.81787e-10)
(-2.7975e-10 4.19031e-09 1.47591e-09)
(-3.97362e-09 3.5713e-09 2.60376e-09)
(-8.94058e-09 2.35994e-09 4.30568e-09)
(-1.42434e-08 7.96892e-10 6.40617e-09)
(-2.37378e-08 -2.75954e-09 1.12419e-08)
(0 0 0)
(1.39108e-09 5.89792e-10 -3.38736e-11)
(2.65741e-09 1.14947e-09 -6.50003e-11)
(3.76861e-09 1.68583e-09 -9.25422e-11)
(4.73457e-09 2.22015e-09 -1.15895e-10)
(5.55568e-09 2.76901e-09 -1.3301e-10)
(6.22024e-09 3.34443e-09 -1.39579e-10)
(6.70052e-09 3.95345e-09 -1.277e-10)
(6.94702e-09 4.59673e-09 -8.36902e-11)
(6.88058e-09 5.26589e-09 1.53901e-11)
(6.38202e-09 5.93957e-09 2.07094e-10)
(5.28133e-09 6.57833e-09 5.51173e-10)
(3.35462e-09 7.12102e-09 1.13822e-09)
(3.59799e-10 7.49185e-09 2.09119e-09)
(-3.78455e-09 7.64231e-09 3.52218e-09)
(-8.35748e-09 7.63412e-09 5.27898e-09)
(-1.7165e-08 7.85973e-09 9.17968e-09)
(0 0 0)
(1.73354e-09 7.01174e-10 -4.44413e-11)
(3.31678e-09 1.36779e-09 -8.59943e-11)
(4.71739e-09 2.00936e-09 -1.24386e-10)
(5.95464e-09 2.6532e-09 -1.59998e-10)
(7.03912e-09 3.32223e-09 -1.92034e-10)
(7.97178e-09 4.03625e-09 -2.17996e-10)
(8.74248e-09 4.8131e-09 -2.32833e-10)
(9.328e-09 5.66984e-09 -2.27566e-10)
(9.68963e-09 6.62433e-09 -1.87182e-10)
(9.77024e-09 7.69755e-09 -8.75515e-11)
(9.49129e-09 8.91659e-09 1.08664e-10)
(8.75062e-09 1.03162e-08 4.56155e-10)
(7.42902e-09 1.19295e-08 1.02617e-09)
(5.45127e-09 1.37378e-08 1.87896e-09)
(3.09343e-09 1.54673e-08 2.91729e-09)
(-2.15493e-09 1.84815e-08 4.93196e-09)
(0 0 0)
(2.06561e-09 7.88598e-10 -5.55384e-11)
(3.95793e-09 1.53967e-09 -1.08211e-10)
(5.64446e-09 2.26536e-09 -1.58517e-10)
(7.15551e-09 2.99833e-09 -2.08106e-10)
(8.51409e-09 3.76728e-09 -2.5782e-10)
(9.73698e-09 4.59929e-09 -3.0754e-10)
(1.08362e-08 5.52239e-09 -3.55891e-10)
(1.18212e-08 6.56908e-09 -3.99779e-10)
(1.27034e-08 7.7816e-09 -4.33738e-10)
(1.3502e-08 9.21998e-09 -4.49135e-10)
(1.42531e-08 1.09735e-08 -4.33388e-10)
(1.50172e-08 1.31716e-08 -3.6966e-10)
(1.58686e-08 1.59726e-08 -2.3826e-10)
(1.68205e-08 1.94428e-08 -2.45293e-11)
(1.76007e-08 2.30175e-08 2.46103e-10)
(1.74596e-08 2.74568e-08 4.62802e-10)
(0 0 0)
(2.38052e-09 8.47997e-10 -6.66871e-11)
(4.56712e-09 1.65694e-09 -1.30609e-10)
(6.52806e-09 2.44116e-09 -1.93112e-10)
(8.3049e-09 3.23727e-09 -2.57171e-10)
(9.93316e-09 4.07824e-09 -3.25314e-10)
(1.14452e-08 4.99631e-09 -3.9979e-10)
(1.28741e-08 6.02635e-09 -4.82739e-10)
(1.42596e-08 7.21053e-09 -5.7642e-10)
(1.56566e-08 8.6052e-09 -6.83576e-10)
(1.71487e-08 1.02917e-08 -8.08057e-10)
(1.88673e-08 1.23923e-08 -9.55782e-10)
(2.10121e-08 1.50927e-08 -1.1357e-09)
(2.38557e-08 1.86592e-08 -1.35866e-09)
(2.76424e-08 2.33758e-08 -1.62635e-09)
(3.19639e-08 2.888e-08 -1.88707e-09)
(3.63213e-08 3.8207e-08 -2.75085e-09)
(0 0 0)
(2.67086e-09 8.76212e-10 -7.73438e-11)
(5.12942e-09 1.71327e-09 -1.52023e-10)
(7.34474e-09 2.52694e-09 -2.26164e-10)
(9.36844e-09 3.35597e-09 -3.03934e-10)
(1.12467e-08 4.2354e-09 -3.89297e-10)
(1.30244e-08 5.19957e-09 -4.86402e-10)
(1.47503e-08 6.28538e-09 -6.00014e-10)
(1.64841e-08 7.5365e-09 -7.36074e-10)
(1.83068e-08 9.009e-09 -9.02429e-10)
(2.03345e-08 1.07793e-08 -1.10977e-09)
(2.27366e-08 1.29544e-08 -1.37257e-09)
(2.57543e-08 1.56818e-08 -1.70922e-09)
(2.97009e-08 1.91446e-08 -2.13877e-09)
(3.48786e-08 2.34708e-08 -2.66812e-09)
(4.11961e-08 2.81776e-08 -3.27323e-09)
(6.69439e-08 5.00079e-08 -4.09844e-09)
(0 0 0)
(0 0 0)
(0 0 0)
(0 0 0)
(0 0 0)
(0 0 0)
(0 0 0)
(0 0 0)
(0 0 0)
(0 0 0)
(0 0 0)
(0 0 0)
(0 0 0)
(0 0 0)
(0 0 0)
(0 0 0)
(0 0 0)
(0 0 0)
(3.50984e-10 1.63429e-10 -7.44715e-12)
(6.68002e-10 3.17775e-10 -1.409e-11)
(9.40655e-10 4.64004e-10 -1.95065e-11)
(1.1679e-09 6.06653e-10 -2.3213e-11)
(1.34463e-09 7.48003e-10 -2.41743e-11)
(1.45975e-09 8.87342e-10 -2.04332e-11)
(1.49339e-09 1.01948e-09 -8.49553e-12)
(1.41297e-09 1.13207e-09 1.7683e-11)
(1.16802e-09 1.20103e-09 6.83191e-11)
(6.84563e-10 1.18314e-09 1.60209e-10)
(-1.37595e-10 1.00522e-09 3.19724e-10)
(-1.41454e-09 5.51215e-10 5.84601e-10)
(-3.23069e-09 -3.42277e-10 9.97675e-10)
(-5.50464e-09 -1.8344e-09 1.57218e-09)
(-7.6937e-09 -3.77387e-09 2.1837e-09)
(-1.13704e-08 -1.04696e-08 3.15973e-09)
(0 0 0)
(7.02697e-10 3.2202e-10 -1.53074e-11)
(1.33853e-09 6.2646e-10 -2.9113e-11)
(1.88798e-09 9.15638e-10 -4.073e-11)
(2.35065e-09 1.19909e-09 -4.94284e-11)
(2.71886e-09 1.48235e-09 -5.35192e-11)
(2.97438e-09 1.76583e-09 -4.97308e-11)
(3.08382e-09 2.04259e-09 -3.21815e-11)
(2.99212e-09 2.29423e-09 9.31469e-12)
(2.61385e-09 2.48394e-09 9.19504e-11)
(1.82367e-09 2.54561e-09 2.43933e-10)
(4.51376e-10 2.36893e-09 5.09477e-10)
(-1.70208e-09 1.78497e-09 9.51852e-10)
(-4.78628e-09 5.73132e-10 1.64306e-09)
(-8.67324e-09 -1.43656e-09 2.60584e-09)
(-1.24469e-08 -3.93841e-09 3.6331e-09)
(-1.81412e-08 -1.00816e-08 5.21971e-09)
(0 0 0)
(1.05522e-09 4.70994e-10 -2.38884e-11)
(2.01259e-09 9.16976e-10 -4.57621e-11)
(2.84569e-09 1.34221e-09 -6.49372e-11)
(3.55769e-09 1.76197e-09 -8.08419e-11)
(4.14262e-09 2.18649e-09 -9.17725e-11)
(4.58187e-09 2.62022e-09 -9.42144e-11)
(4.8393e-09 3.05984e-09 -8.1722e-11)
(4.85434e-09 3.49057e-09 -4.30843e-11)
(4.53285e-09 3.87995e-09 4.05814e-11)
(3.73707e-09 4.16844e-09 2.00111e-10)
(2.27986e-09 4.2575e-09 4.8358e-10)
(-5.98925e-11 4.00115e-09 9.5942e-10)
(-3.45685e-09 3.22326e-09 1.70493e-09)
(-7.79349e-09 1.82355e-09 2.74266e-09)
(-1.20825e-08 1.03802e-10 3.84524e-09)
(-1.94612e-08 -3.56773e-09 5.39188e-09)
(0 0 0)
(1.40674e-09 6.05348e-10 -3.33024e-11)
(2.68716e-09 1.17964e-09 -6.42924e-11)
(3.81053e-09 1.72969e-09 -9.25965e-11)
(4.78692e-09 2.27702e-09 -1.18254e-10)
(5.61691e-09 2.83798e-09 -1.4025e-10)
(6.28902e-09 3.42374e-09 -1.55983e-10)
(6.77621e-09 4.03967e-09 -1.60378e-10)
(7.03107e-09 4.68359e-09 -1.44445e-10)
(6.97972e-09 5.34281e-09 -9.3032e-11)
(6.5156e-09 5.98966e-09 1.84164e-11)
(5.49648e-09 6.576e-09 2.27746e-10)
(3.75627e-09 7.02907e-09 5.88048e-10)
(1.16258e-09 7.2578e-09 1.15787e-09)
(-2.20054e-09 7.19404e-09 1.95034e-09)
(-5.57963e-09 6.9032e-09 2.78376e-09)
(-1.14055e-08 6.30408e-09 3.89424e-09)
(0 0 0)
(1.75349e-09 7.20049e-10 -4.34396e-11)
(3.35488e-09 1.40454e-09 -8.44644e-11)
(4.77161e-09 2.06316e-09 -1.23279e-10)
(6.02348e-09 2.72374e-09 -1.60914e-10)
(7.12167e-09 3.40931e-09 -1.97614e-10)
(8.06798e-09 4.13925e-09 -2.32591e-10)
(8.8539e-09 4.93038e-09 -2.63582e-10)
(9.45973e-09 5.798e-09 -2.86143e-10)
(9.85431e-09 6.75726e-09 -2.92568e-10)
(9.99629e-09 7.82514e-09 -2.70435e-10)
(9.83877e-09 9.02233e-09 -2.01023e-10)
(9.33981e-09 1.03708e-08 -5.90596e-11)
(8.48506e-09 1.18724e-08 1.81325e-10)
(7.34254e-09 1.34354e-08 5.20622e-10)
(6.19535e-09 1.47146e-08 8.67351e-10)
(4.83642e-09 1.62789e-08 1.20689e-09)
(0 0 0)
(2.08982e-09 8.1028e-10 -5.39902e-11)
(4.00435e-09 1.58203e-09 -1.05598e-10)
(5.71106e-09 2.32778e-09 -1.55775e-10)
(7.24114e-09 3.08098e-09 -2.06761e-10)
(8.61863e-09 3.87084e-09 -2.60359e-10)
(9.86174e-09 4.72454e-09 -3.18012e-10)
(1.09849e-08 5.66986e-09 -3.80857e-10)
(1.20023e-08 6.73874e-09 -4.4978e-10)
(1.2934e-08 7.97247e-09 -5.25506e-10)
(1.38162e-08 9.4296e-09 -6.08817e-10)
(1.47158e-08 1.11957e-08 -7.01009e-10)
(1.57461e-08 1.33876e-08 -8.04737e-10)
(1.70609e-08 1.61197e-08 -9.2526e-10)
(1.87565e-08 1.93348e-08 -1.07052e-09)
(2.05171e-08 2.231e-08 -1.23524e-09)
(2.4649e-08 2.48251e-08 -1.68427e-09)
(0 0 0)
(2.40877e-09 8.71796e-10 -6.45079e-11)
(4.62147e-09 1.70358e-09 -1.26723e-10)
(6.60647e-09 2.51025e-09 -1.88382e-10)
(8.40655e-09 3.32951e-09 -2.52958e-10)
(1.00586e-08 4.19516e-09 -3.23791e-10)
(1.15969e-08 5.14001e-09 -4.04454e-10)
(1.30574e-08 6.19938e-09 -4.99176e-10)
(1.44846e-08 7.4158e-09 -6.13432e-10)
(1.59423e-08 8.84608e-09 -7.54764e-10)
(1.75293e-08 1.05719e-08 -9.33869e-10)
(1.94022e-08 1.27146e-08 -1.16578e-09)
(2.17984e-08 1.54497e-08 -1.47024e-09)
(2.50315e-08 1.90001e-08 -1.86779e-09)
(2.93462e-08 2.35088e-08 -2.36123e-09)
(3.41976e-08 2.83836e-08 -2.86881e-09)
(4.12615e-08 3.57799e-08 -3.93844e-09)
(0 0 0)
(2.70275e-09 9.01275e-10 -7.44906e-11)
(5.1909e-09 1.76251e-09 -1.46762e-10)
(7.43375e-09 2.6002e-09 -2.19257e-10)
(9.48435e-09 3.45441e-09 -2.96517e-10)
(1.13905e-08 4.36124e-09 -3.83148e-10)
(1.31991e-08 5.35594e-09 -4.84336e-10)
(1.49617e-08 6.47627e-09 -6.06469e-10)
(1.67427e-08 7.76677e-09 -7.57901e-10)
(1.86301e-08 9.28459e-09 -9.49905e-10)
(2.07516e-08 1.11073e-08 -1.19766e-09)
(2.32933e-08 1.33417e-08 -1.52077e-09)
(2.6516e-08 1.61282e-08 -1.94167e-09)
(3.07391e-08 1.96165e-08 -2.47811e-09)
(3.62063e-08 2.38286e-08 -3.12172e-09)
(4.26184e-08 2.80939e-08 -3.8023e-09)
(6.83898e-08 4.87394e-08 -4.76849e-09)
(0 0 0)
(0 0 0)
(0 0 0)
(0 0 0)
(0 0 0)
(0 0 0)
(0 0 0)
(0 0 0)
(0 0 0)
(0 0 0)
(0 0 0)
(0 0 0)
(0 0 0)
(0 0 0)
(0 0 0)
(0 0 0)
(0 0 0)
(0 0 0)
(3.54107e-10 1.66617e-10 -7.08645e-12)
(6.73845e-10 3.23816e-10 -1.35352e-11)
(9.48632e-10 4.72399e-10 -1.9097e-11)
(1.17732e-09 6.16711e-10 -2.35384e-11)
(1.35465e-09 7.58635e-10 -2.62548e-11)
(1.4693e-09 8.96732e-10 -2.60454e-11)
(1.50117e-09 1.02462e-09 -2.07558e-11)
(1.41766e-09 1.12814e-09 -6.72013e-12)
(1.16891e-09 1.18056e-09 2.20423e-11)
(6.83022e-10 1.13525e-09 7.47986e-11)
(-1.34968e-10 9.15497e-10 1.64715e-10)
(-1.39094e-09 4.03825e-10 3.07382e-10)
(-3.15475e-09 -5.56615e-10 5.12999e-10)
(-5.3394e-09 -2.10079e-09 7.65322e-10)
(-7.44515e-09 -4.03899e-09 9.88444e-10)
(-1.14003e-08 -1.05033e-08 1.24233e-09)
(0 0 0)
(7.09026e-10 3.2837e-10 -1.45184e-11)
(1.35041e-09 6.38524e-10 -2.78503e-11)
(1.9043e-09 9.32484e-10 -3.96278e-11)
(2.37017e-09 1.21947e-09 -4.95789e-11)
(2.74007e-09 1.50428e-09 -5.68031e-11)
(2.99546e-09 1.78604e-09 -5.94138e-11)
(3.10269e-09 2.05565e-09 -5.39702e-11)
(3.00688e-09 2.29139e-09 -3.45987e-11)
(2.62413e-09 2.45169e-09 8.26111e-12)
(1.83383e-09 2.46422e-09 8.93401e-11)
(4.76953e-10 2.21205e-09 2.29372e-10)
(-1.62362e-09 1.52284e-09 4.52409e-10)
(-4.58457e-09 1.84997e-10 7.72635e-10)
(-8.25713e-09 -1.93566e-09 1.15956e-09)
(-1.1797e-08 -4.47418e-09 1.48797e-09)
(-1.74762e-08 -1.03465e-08 1.68211e-09)
(0 0 0)
(1.06489e-09 4.8044e-10 -2.255e-11)
(2.03083e-09 9.34989e-10 -4.35178e-11)
(2.87099e-09 1.36755e-09 -6.26373e-11)
(3.58844e-09 1.79303e-09 -7.99274e-11)
(4.17699e-09 2.22077e-09 -9.47064e-11)
(4.6178e-09 2.65358e-09 -1.0525e-10)
(4.87465e-09 3.08536e-09 -1.08249e-10)
(4.8877e-09 3.49709e-09 -9.79813e-11)
(4.56566e-09 3.85011e-09 -6.51719e-11)
(3.77843e-09 4.0766e-09 4.27642e-12)
(2.35622e-09 4.06845e-09 1.29704e-10)
(1.11504e-10 3.67208e-09 3.32306e-10)
(-3.07864e-09 2.71428e-09 6.20929e-10)
(-7.05683e-09 1.12312e-09 9.5701e-10)
(-1.09265e-08 -7.3588e-10 1.21437e-09)
(-1.79752e-08 -4.46272e-09 1.09228e-09)
(0 0 0)
(1.4199e-09 6.17754e-10 -3.12654e-11)
(2.7121e-09 1.2034e-09 -6.0729e-11)
(3.84548e-09 1.7634e-09 -8.84762e-11)
(4.83012e-09 2.31897e-09 -1.1518e-10)
(5.66655e-09 2.88555e-09 -1.40933e-10)
(6.34327e-09 3.47258e-09 -1.6507e-10)
(6.83355e-09 4.08243e-09 -1.85877e-10)
(7.09138e-09 4.70827e-09 -2.00178e-10)
(7.04703e-09 5.33044e-09 -2.02821e-10)
(6.60402e-09 5.9115e-09 -1.86313e-10)
(5.64191e-09 6.39032e-09 -1.41355e-10)
(4.03618e-09 6.67898e-09 -6.0329e-11)
(1.71957e-09 6.67376e-09 5.21853e-11)
(-1.16618e-09 6.31195e-09 1.58758e-10)
(-3.95956e-09 5.72599e-09 1.85362e-10)
(-8.99455e-09 4.70346e-09 -2.84963e-10)
(0 0 0)
(1.77022e-09 7.35167e-10 -4.05554e-11)
(3.38673e-09 1.43363e-09 -7.92456e-11)
(4.81666e-09 2.10478e-09 -1.16718e-10)
(6.07999e-09 2.77632e-09 -1.54594e-10)
(7.1881e-09 3.47048e-09 -1.94172e-10)
(8.14303e-09 4.20501e-09 -2.36503e-10)
(8.93696e-09 4.99384e-09 -2.82498e-10)
(9.55211e-09 5.84763e-09 -3.33106e-10)
(9.96208e-09 6.77435e-09 -3.89699e-10)
(1.01363e-08 7.78003e-09 -4.54895e-10)
(1.00501e-08 8.86874e-09 -5.34243e-10)
(9.70305e-09 1.00373e-08 -6.39321e-10)
(9.14652e-09 1.12532e-08 -7.91925e-10)
(8.51564e-09 1.23978e-08 -1.02229e-09)
(8.02981e-09 1.31993e-08 -1.32186e-09)
(7.98632e-09 1.39788e-08 -2.24209e-09)
(0 0 0)
(2.11008e-09 8.27723e-10 -5.01384e-11)
(4.0431e-09 1.61574e-09 -9.84501e-11)
(5.76626e-09 2.37641e-09 -1.46267e-10)
(7.31118e-09 3.14325e-09 -1.96308e-10)
(8.70229e-09 3.94488e-09 -2.51268e-10)
(9.9583e-09 4.80709e-09 -3.14162e-10)
(1.10945e-08 5.75509e-09 -3.88817e-10)
(1.21271e-08 6.81646e-09 -4.80608e-10)
(1.30804e-08 8.02549e-09 -5.97612e-10)
(1.39995e-08 9.42922e-09 -7.5236e-10)
(1.49686e-08 1.10938e-08 -9.64231e-10)
(1.61314e-08 1.3102e-08 -1.26172e-09)
(1.76873e-08 1.55127e-08 -1.68061e-09)
(1.97813e-08 1.82068e-08 -2.24279e-09)
(2.20704e-08 2.05325e-08 -2.86455e-09)
(2.76374e-08 2.18587e-08 -4.28076e-09)
(0 0 0)
(2.4324e-09 8.9103e-10 -5.96171e-11)
(4.66678e-09 1.74089e-09 -1.17479e-10)
(6.67135e-09 2.56447e-09 -1.75613e-10)
(8.48951e-09 3.39973e-09 -2.37815e-10)
(1.01587e-08 4.28013e-09 -3.08096e-10)
(1.17138e-08 5.23741e-09 -3.91242e-10)
(1.31915e-08 6.30466e-09 -4.93549e-10)
(1.46378e-08 7.52058e-09 -6.23885e-10)
(1.61193e-08 8.93542e-09 -7.95162e-10)
(1.77398e-08 1.06196e-08 -1.02629e-09)
(1.96639e-08 1.26743e-08 -1.34419e-09)
(2.21399e-08 1.5238e-08 -1.78425e-09)
(2.54902e-08 1.84675e-08 -2.38366e-09)
(2.99549e-08 2.24202e-08 -3.15052e-09)
(3.49617e-08 2.65505e-08 -3.95555e-09)
(4.24292e-08 3.24046e-08 -5.82133e-09)
(0 0 0)
(2.72942e-09 9.21621e-10 -6.85498e-11)
(5.24215e-09 1.80212e-09 -1.35389e-10)
(7.50736e-09 2.65811e-09 -2.03144e-10)
(9.57887e-09 3.5301e-09 -2.76517e-10)
(1.15051e-08 4.45409e-09 -3.60543e-10)
(1.33335e-08 5.46454e-09 -4.6125e-10)
(1.51162e-08 6.5974e-09 -5.86469e-10)
(1.6918e-08 7.89388e-09 -7.46891e-10)
(1.88276e-08 9.40529e-09 -9.57348e-10)
(2.09732e-08 1.11991e-08 -1.23813e-09)
(2.35397e-08 1.33641e-08 -1.61547e-09)
(2.67804e-08 1.60081e-08 -2.11892e-09)
(3.0991e-08 1.92257e-08 -2.76985e-09)
(3.63597e-08 2.29736e-08 -3.54891e-09)
(4.25043e-08 2.66186e-08 -4.32854e-09)
(6.65232e-08 4.55946e-08 -5.56983e-09)
(0 0 0)
(0 0 0)
(0 0 0)
(0 0 0)
(0 0 0)
(0 0 0)
(0 0 0)
(0 0 0)
(0 0 0)
(0 0 0)
(0 0 0)
(0 0 0)
(0 0 0)
(0 0 0)
(0 0 0)
(0 0 0)
(0 0 0)
(0 0 0)
(3.56625e-10 1.68998e-10 -6.34138e-12)
(6.78531e-10 3.28241e-10 -1.2216e-11)
(9.54965e-10 4.78307e-10 -1.75274e-11)
(1.18465e-09 6.23271e-10 -2.22587e-11)
(1.36214e-09 7.64531e-10 -2.61987e-11)
(1.4758e-09 8.99853e-10 -2.88576e-11)
(1.50519e-09 1.02163e-09 -2.93535e-11)
(1.41727e-09 1.11389e-09 -2.62797e-11)
(1.16178e-09 1.14756e-09 -1.76152e-11)
(6.66558e-10 1.07327e-09 -8.7033e-13)
(-1.63757e-10 8.12009e-10 2.60628e-11)
(-1.43697e-09 2.46376e-10 6.24802e-11)
(-3.23109e-09 -7.74979e-10 9.99834e-11)
(-5.48121e-09 -2.37404e-09 1.17453e-10)
(-7.7104e-09 -4.34693e-09 9.28481e-11)
(-1.23502e-08 -1.09809e-08 -1.06821e-10)
(0 0 0)
(7.14119e-10 3.33121e-10 -1.29543e-11)
(1.35992e-09 6.47381e-10 -2.50443e-11)
(1.91723e-09 9.44388e-10 -3.61772e-11)
(2.38531e-09 1.23286e-09 -4.64675e-11)
(2.75588e-09 1.51671e-09 -5.57221e-11)
(3.00988e-09 1.79355e-09 -6.33346e-11)
(3.11305e-09 2.05196e-09 -6.8153e-11)
(3.00982e-09 2.26684e-09 -6.83543e-11)
(2.61578e-09 2.39203e-09 -6.14473e-11)
(1.81037e-09 2.34983e-09 -4.47454e-11)
(4.35136e-10 2.01851e-09 -1.70664e-11)
(-1.68765e-09 1.22501e-09 1.70088e-11)
(-4.68335e-09 -2.32663e-10 3.93104e-11)
(-8.43309e-09 -2.4628e-09 1.18814e-11)
(-1.2129e-08 -5.0656e-09 -9.4213e-11)
(-1.85605e-08 -1.09153e-08 -5.99161e-10)
(0 0 0)
(1.07266e-09 4.87532e-10 -2.00363e-11)
(2.0454e-09 9.48272e-10 -3.89287e-11)
(2.89098e-09 1.38558e-09 -5.67569e-11)
(3.61223e-09 1.81369e-09 -7.40141e-11)
(4.20255e-09 2.24078e-09 -9.09035e-11)
(4.64249e-09 2.66761e-09 -1.07309e-10)
(4.8951e-09 3.08491e-09 -1.22793e-10)
(4.89977e-09 3.46892e-09 -1.36688e-10)
(4.56492e-09 3.77448e-09 -1.48472e-10)
(3.76127e-09 3.92567e-09 -1.5883e-10)
(2.32168e-09 3.80616e-09 -1.72167e-10)
(6.2233e-11 3.25818e-09 -2.0161e-10)
(-3.14227e-09 2.11677e-09 -2.76262e-10)
(-7.15984e-09 3.42176e-10 -4.41389e-10)
(-1.11404e-08 -1.64264e-09 -7.05327e-10)
(-1.89494e-08 -5.41028e-09 -1.639e-09)
(0 0 0)
(1.43046e-09 6.27109e-10 -2.76448e-11)
(2.732e-09 1.22102e-09 -5.40002e-11)
(3.87303e-09 1.78757e-09 -7.95055e-11)
(4.86345e-09 2.34729e-09 -1.053e-10)
(5.70337e-09 2.91424e-09 -1.32381e-10)
(6.38069e-09 3.49551e-09 -1.61744e-10)
(6.86787e-09 4.08969e-09 -1.94642e-10)
(7.11813e-09 4.6842e-09 -2.33079e-10)
(7.06151e-09 5.25117e-09 -2.80788e-10)
(6.60279e-09 5.74213e-09 -3.4507e-10)
(5.62562e-09 6.08289e-09 -4.4e-10)
(4.01284e-09 6.17382e-09 -5.91036e-10)
(1.70316e-09 5.91037e-09 -8.3808e-10)
(-1.17455e-09 5.25928e-09 -1.222e-09)
(-4.00467e-09 4.43679e-09 -1.70093e-09)
(-9.62537e-09 3.23293e-09 -2.96684e-09)
(0 0 0)
(1.78363e-09 7.46627e-10 -3.56791e-11)
(3.41212e-09 1.45533e-09 -7.00384e-11)
(4.85212e-09 2.1349e-09 -1.04029e-10)
(6.12351e-09 2.81237e-09 -1.39643e-10)
(7.23731e-09 3.50856e-09 -1.78958e-10)
(8.19494e-09 4.23874e-09 -2.24499e-10)
(8.9877e-09 5.01271e-09 -2.79816e-10)
(9.59681e-09 5.8347e-09 -3.50442e-10)
(9.99509e-09 6.70301e-09 -4.45503e-10)
(1.01522e-08 7.60975e-09 -5.80307e-10)
(1.00461e-08 8.54002e-09 -7.80012e-10)
(9.68231e-09 9.46809e-09 -1.08322e-09)
(9.12066e-09 1.03443e-08 -1.53942e-09)
(8.49731e-09 1.10678e-08 -2.17941e-09)
(8.00984e-09 1.14803e-08 -2.89907e-09)
(7.6491e-09 1.18356e-08 -4.49977e-09)
(0 0 0)
(2.12631e-09 8.41019e-10 -4.3898e-11)
(4.07395e-09 1.64106e-09 -8.65151e-11)
(5.80967e-09 2.41194e-09 -1.29393e-10)
(7.36505e-09 3.1866e-09 -1.7546e-10)
(8.76425e-09 3.99235e-09 -2.27967e-10)
(1.00253e-08 4.85249e-09 -2.91054e-10)
(1.11624e-08 5.78802e-09 -3.70596e-10)
(1.21901e-08 6.81979e-09 -4.75515e-10)
(1.31306e-08 7.97145e-09 -6.19813e-10)
(1.40262e-08 9.27378e-09 -8.25523e-10)
(1.49579e-08 1.07686e-08 -1.12635e-09)
(1.60657e-08 1.25049e-08 -1.57004e-09)
(1.75451e-08 1.45048e-08 -2.21175e-09)
(1.95397e-08 1.66446e-08 -3.07431e-09)
(2.17228e-08 1.84032e-08 -4.00888e-09)
(2.70289e-08 1.88949e-08 -5.99079e-09)
(0 0 0)
(2.45132e-09 9.05772e-10 -5.19678e-11)
(4.70285e-09 1.76911e-09 -1.02707e-10)
(6.72236e-09 2.60445e-09 -1.54335e-10)
(8.55332e-09 3.44935e-09 -2.10666e-10)
(1.02329e-08 4.33608e-09 -2.76003e-10)
(1.17952e-08 5.29404e-09 -3.55838e-10)
(1.32754e-08 6.35228e-09 -4.57838e-10)
(1.47172e-08 7.54278e-09 -5.93265e-10)
(1.61827e-08 8.90501e-09 -7.79001e-10)
(1.77689e-08 1.04922e-08 -1.04018e-09)
(1.96287e-08 1.23786e-08 -1.41288e-09)
(2.1991e-08 1.46625e-08 -1.94449e-09)
(2.51482e-08 1.74496e-08 -2.68463e-09)
(2.93072e-08 2.07664e-08 -3.64542e-09)
(3.39221e-08 2.41788e-08 -4.66552e-09)
(4.04908e-08 2.85934e-08 -7.01695e-09)
(0 0 0)
(2.75079e-09 9.37301e-10 -5.95216e-11)
(5.28296e-09 1.83227e-09 -1.17831e-10)
(7.56528e-09 2.7012e-09 -1.77528e-10)
(9.65169e-09 3.58432e-09 -2.43137e-10)
(1.15903e-08 4.51667e-09 -3.19726e-10)
(1.34277e-08 5.53062e-09 -4.1364e-10)
(1.52142e-08 6.65839e-09 -5.33456e-10)
(1.7011e-08 7.93494e-09 -6.9124e-10)
(1.89009e-08 9.40146e-09 -9.0412e-10)
(2.10011e-08 1.11092e-08 -1.1959e-09)
(2.34783e-08 1.31219e-08 -1.59769e-09)
(2.65539e-08 1.55103e-08 -2.14475e-09)
(3.04741e-08 1.83242e-08 -2.86265e-09)
(3.53667e-08 2.14964e-08 -3.72755e-09)
(4.08277e-08 2.44888e-08 -4.5753e-09)
(6.20816e-08 4.14412e-08 -6.14357e-09)
(0 0 0)
(0 0 0)
(0 0 0)
(0 0 0)
(0 0 0)
(0 0 0)
(0 0 0)
(0 0 0)
(0 0 0)
(0 0 0)
(0 0 0)
(0 0 0)
(0 0 0)
(0 0 0)
(0 0 0)
(0 0 0)
(0 0 0)
(0 0 0)
(3.58533e-10 1.70659e-10 -5.20078e-12)
(6.82056e-10 3.31254e-10 -1.00901e-11)
(9.59647e-10 4.82124e-10 -1.46761e-11)
(1.18988e-09 6.27042e-10 -1.90803e-11)
(1.36706e-09 7.66916e-10 -2.33636e-11)
(1.47919e-09 8.98737e-10 -2.75427e-11)
(1.50517e-09 1.01374e-09 -3.16432e-11)
(1.411e-09 1.09437e-09 -3.58416e-11)
(1.14476e-09 1.1095e-09 -4.0795e-11)
(6.31354e-10 1.00754e-09 -4.8338e-11)
(-2.30125e-10 7.07734e-10 -6.27816e-11)
(-1.55834e-09 9.24608e-11 -9.28636e-11)
(-3.45117e-09 -9.87538e-10 -1.53198e-10)
(-5.87088e-09 -2.65118e-09 -2.59703e-10)
(-8.33548e-09 -4.6915e-09 -4.01265e-10)
(-1.38313e-08 -1.17083e-08 -8.00243e-10)
(0 0 0)
(7.17976e-10 3.36445e-10 -1.05991e-11)
(1.36706e-09 6.53435e-10 -2.06248e-11)
(1.92679e-09 9.52123e-10 -3.01641e-11)
(2.39612e-09 1.24067e-09 -3.95627e-11)
(2.76633e-09 1.52204e-09 -4.90972e-11)
(3.01765e-09 1.79237e-09 -5.90444e-11)
(3.11465e-09 2.03802e-09 -6.98406e-11)
(2.99993e-09 2.23076e-09 -8.2431e-11)
(2.58614e-09 2.3204e-09 -9.89979e-11)
(1.74756e-09 2.22473e-09 -1.24372e-10)
(3.16439e-10 1.8184e-09 -1.68467e-10)
(-1.90254e-09 9.28148e-10 -2.49587e-10)
(-5.06571e-09 -6.41422e-10 -3.95996e-10)
(-9.09409e-09 -2.98346e-09 -6.34889e-10)
(-1.31637e-08 -5.67658e-09 -9.35594e-10)
(-2.06558e-08 -1.16493e-08 -1.67728e-09)
(0 0 0)
(1.07854e-09 4.92516e-10 -1.63372e-11)
(2.05634e-09 9.574e-10 -3.19223e-11)
(2.90574e-09 1.39739e-09 -4.70402e-11)
(3.6292e-09 1.82597e-09 -6.24298e-11)
(4.21953e-09 2.25001e-09 -7.88351e-11)
(4.65629e-09 2.6682e-09 -9.7183e-11)
(4.90096e-09 3.06813e-09 -1.18924e-10)
(4.89044e-09 3.42149e-09 -1.46686e-10)
(4.52921e-09 3.67711e-09 -1.85487e-10)
(3.68152e-09 3.75201e-09 -2.44868e-10)
(2.16911e-09 3.52352e-09 -3.42177e-10)
(-2.1163e-10 2.83224e-09 -5.06259e-10)
(-3.61881e-09 1.52321e-09 -7.77033e-10)
(-7.96033e-09 -4.14265e-10 -1.18516e-09)
(-1.23618e-08 -2.51095e-09 -1.66784e-09)
(-2.13743e-08 -6.34092e-09 -2.82993e-09)
(0 0 0)
(1.43845e-09 6.33718e-10 -2.24502e-11)
(2.74692e-09 1.23321e-09 -4.40635e-11)
(3.89335e-09 1.80359e-09 -6.54505e-11)
(4.88723e-09 2.3645e-09 -8.79229e-11)
(5.72798e-09 2.92847e-09 -1.12946e-10)
(6.40229e-09 3.50006e-09 -1.42478e-10)
(6.8807e-09 4.07396e-09 -1.79548e-10)
(7.11335e-09 4.6318e-09 -2.29271e-10)
(7.02546e-09 5.13772e-09 -3.00593e-10)
(6.51412e-09 5.53317e-09 -4.09076e-10)
(5.45067e-09 5.73336e-09 -5.80702e-10)
(3.69811e-09 5.63227e-09 -8.55039e-10)
(1.16534e-09 5.13329e-09 -1.28093e-09)
(-2.05035e-09 4.24078e-09 -1.88424e-09)
(-5.30068e-09 3.24481e-09 -2.55771e-09)
(-1.20993e-08 1.96379e-09 -4.01852e-09)
(0 0 0)
(1.79376e-09 7.54771e-10 -2.8854e-11)
(3.43115e-09 1.47046e-09 -5.68633e-11)
(4.87826e-09 2.15511e-09 -8.5065e-11)
(6.15459e-09 2.8348e-09 -1.15471e-10)
(7.27037e-09 3.5287e-09 -1.50435e-10)
(8.22567e-09 4.24926e-09 -1.93165e-10)
(9.00946e-09 5.00184e-09 -2.48544e-10)
(9.59919e-09 5.78386e-09 -3.24481e-10)
(9.96164e-09 6.58377e-09 -4.34092e-10)
(1.00569e-08 7.3803e-09 -5.98952e-10)
(9.84798e-09 8.14234e-09 -8.531e-10)
(9.31842e-09 8.82933e-09 -1.24534e-09)
(8.49982e-09 9.39027e-09 -1.83105e-09)
(7.50849e-09 9.76169e-09 -2.62889e-09)
(6.59604e-09 9.88986e-09 -3.48696e-09)
(5.16445e-09 1.00346e-08 -5.21852e-09)
(0 0 0)
(2.13858e-09 8.50529e-10 -3.53579e-11)
(4.09708e-09 1.65886e-09 -6.99056e-11)