/*--------------------------------*- C++ -*----------------------------------*\
| =========                 |                                                 |
| \\      /  F ield         | foam-extend: Open Source CFD                    |
|  \\    /   O peration     | Version:     3.1                                |
|   \\  /    A nd           | Web:         http://www.extend-project.de       |
|    \\/     M anipulation  |                                                 |
\*---------------------------------------------------------------------------*/
FoamFile
{
    version     2.0;
    format      ascii;
    class       volVectorField;
    location    "1.7";
    object      U;
}
// * * * * * * * * * * * * * * * * * * * * * * * * * * * * * * * * * * * * * //

dimensions      [0 1 -1 0 0 0 0];

internalField   nonuniform List<vector> 
14592
(
(0.0186928 0.000182318 -0.00187371)
(0.0185386 0.000327468 -0.00452581)
(0.018566 0.000244419 -0.00658324)
(0.0191257 7.68749e-05 -0.00802687)
(0.0201454 -5.08993e-05 -0.00891595)
(0.02133 -9.82046e-05 -0.00942385)
(0.0223986 -7.89023e-05 -0.00977813)
(0.0231701 -2.90945e-05 -0.0102133)
(0.0235629 1.12932e-05 -0.01095)
(0.0236049 1.36713e-05 -0.0122043)
(0.0233806 -7.08527e-05 -0.014214)
(0.0229996 -0.000306088 -0.0172921)
(0.0225952 -0.000768526 -0.0219081)
(0.0221334 -0.00142531 -0.0286153)
(0.0203187 -0.00164999 -0.0365838)
(0.0129025 0.000230374 -0.0340133)
(0.0527014 0.000296494 -0.00222981)
(0.0525219 -4.49271e-05 -0.0076433)
(0.0526446 -0.000904641 -0.0129229)
(0.0535301 -0.00169801 -0.0170961)
(0.0551755 -0.00205375 -0.0198246)
(0.0571482 -0.00190565 -0.0213022)
(0.0589489 -0.00139498 -0.0220101)
(0.0602002 -0.000720237 -0.0225205)
(0.0606855 -5.1265e-05 -0.0233877)
(0.060354 0.000508269 -0.0251302)
(0.0592135 0.00086244 -0.0282542)
(0.0572518 0.000909883 -0.0333704)
(0.0543686 0.000510134 -0.0413578)
(0.0500518 -0.000441095 -0.0533451)
(0.0415197 -0.00156415 -0.0674175)
(0.0207172 -0.000970916 -0.0578743)
(0.0821267 0.000464807 -0.0015237)
(0.0818994 -0.000170399 -0.00683859)
(0.0814538 -0.00181366 -0.0133709)
(0.0812416 -0.00344239 -0.019467)
(0.0816637 -0.00430146 -0.0240399)
(0.0826082 -0.00414651 -0.0268284)
(0.0836709 -0.00317024 -0.0282032)
(0.0844115 -0.00173925 -0.0288582)
(0.0844815 -0.000199508 -0.0295641)
(0.083674 0.00124721 -0.0310654)
(0.0818379 0.00244601 -0.0340538)
(0.0787793 0.00330051 -0.0393094)
(0.0741563 0.00368796 -0.0479233)
(0.0671786 0.00341965 -0.0615928)
(0.0543186 0.00199239 -0.0788037)
(0.0239895 -0.000471066 -0.0672513)
(0.106641 0.000506764 -0.000983821)
(0.106442 -4.16585e-05 -0.00516514)
(0.105441 -0.00194615 -0.0114883)
(0.103786 -0.0040761 -0.0184055)
(0.102183 -0.0054001 -0.0243219)
(0.101027 -0.00542481 -0.0283835)
(0.100279 -0.00424615 -0.0306061)
(0.0996355 -0.0022832 -0.0316108)
(0.0987397 7.13991e-06 -0.0322726)
(0.0972506 0.00232923 -0.0334867)
(0.0948476 0.00450193 -0.0360933)
(0.0911727 0.00645934 -0.0409898)
(0.0856947 0.00813837 -0.0493772)
(0.0774391 0.00939615 -0.0634292)
(0.0625265 0.00862304 -0.0825251)
(0.0255652 0.00208372 -0.0713834)
(0.126199 0.000471858 -0.000737639)
(0.126092 0.000236522 -0.00389484)
(0.124869 -0.00136252 -0.00950171)
(0.122216 -0.00340145 -0.0164994)
(0.118828 -0.0048304 -0.0231604)
(0.115495 -0.00500236 -0.0281744)
(0.112619 -0.00384583 -0.0311525)
(0.110199 -0.00170292 -0.0325359)
(0.107999 0.00100887 -0.0332172)
(0.105648 0.00394506 -0.0341815)
(0.102726 0.00694887 -0.036381)
(0.0987229 0.0100179 -0.0407922)
(0.0929593 0.0131693 -0.048649)
(0.0842587 0.0164802 -0.0624676)
(0.0687159 0.0174719 -0.0826541)
(0.026633 0.00691351 -0.0726896)
(0.140828 0.000420903 -0.000645202)
(0.140801 0.000533064 -0.00313928)
(0.139595 -0.000415351 -0.00806536)
(0.136485 -0.00185233 -0.0148397)
(0.131961 -0.00292842 -0.0218155)
(0.126992 -0.00301619 -0.0274213)
(0.122322 -0.00192789 -0.0309365)
(0.118296 0.000156848 -0.0325971)
(0.114874 0.00293446 -0.0332601)
(0.111732 0.00614291 -0.0339604)
(0.108445 0.00969869 -0.0357056)
(0.104401 0.0137202 -0.039509)
(0.0988517 0.0183356 -0.0465629)
(0.0903154 0.0241096 -0.0595546)
(0.0753695 0.0283016 -0.0801473)
(0.0286963 0.0149933 -0.071718)
(0.150554 0.00038887 -0.00060344)
(0.150587 0.000819282 -0.00271774)
(0.149493 0.000621004 -0.00715944)
(0.146265 8.2034e-05 -0.0136618)
(0.141198 -0.000273065 -0.0207066)
(0.135291 6.95686e-06 -0.026602)
(0.129506 0.00111391 -0.0304098)
(0.124429 0.00301917 -0.0322051)
(0.120206 0.00558172 -0.0327724)
(0.116632 0.00872353 -0.0331572)
(0.113354 0.0124922 -0.0343721)
(0.109705 0.0171884 -0.0374022)
(0.1051 0.0231007 -0.0433195)
(0.0973929 0.0317057 -0.0546522)
(0.0854146 0.0413026 -0.0747977)
(0.0344259 0.0297443 -0.0678047)
(0.155417 0.000382292 -0.000565465)
(0.155466 0.00111787 -0.00247762)
(0.154473 0.00169304 -0.00664647)
(0.151317 0.00218211 -0.0129491)
(0.146156 0.00273947 -0.0199313)
(0.13997 0.00354263 -0.0258766)
(0.133802 0.00472063 -0.0297417)
(0.128378 0.00634992 -0.0315055)
(0.123987 0.00849657 -0.0318952)
(0.120529 0.0112795 -0.0319188)
(0.117783 0.014896 -0.0325417)
(0.115094 0.0198084 -0.0346334)
(0.112624 0.0265315 -0.0390881)
(0.106523 0.0372486 -0.0475619)
(0.104353 0.0567778 -0.0659116)
(0.0498417 0.052928 -0.0580939)
(0.0199948 0.000147044 -0.00185062)
(0.0197518 0.000275404 -0.00438566)
(0.0196239 0.000189945 -0.00635946)
(0.019986 1.74315e-05 -0.00778196)
(0.0207865 -0.000114918 -0.0086968)
(0.0217231 -0.000161728 -0.00924867)
(0.0224932 -0.000136795 -0.00964028)
(0.0228911 -7.87833e-05 -0.010089)
(0.0228106 -3.21634e-05 -0.0108018)
(0.0222453 -3.23636e-05 -0.0119727)
(0.0212267 -0.000123982 -0.0138022)
(0.0197743 -0.000369503 -0.0165105)
(0.0178636 -0.000829783 -0.0203297)
(0.0151512 -0.00144808 -0.0251976)
(0.0104366 -0.00189729 -0.0291814)
(0.00402825 -0.00176853 -0.0229804)
(0.0563983 0.000253365 -0.00212055)
(0.0560669 -0.000158497 -0.00715612)
(0.0559003 -0.00110771 -0.0121166)
(0.0563722 -0.00199639 -0.0161418)
(0.0575223 -0.00241564 -0.0188806)
(0.0589254 -0.00227251 -0.0204566)
(0.0600588 -0.00171101 -0.0212783)
(0.0605074 -0.000951935 -0.0218659)
(0.0600066 -0.000191802 -0.0227391)
(0.0584481 0.000443881 -0.0243818)
(0.0557491 0.000852333 -0.0272397)
(0.0517481 0.000925755 -0.0317774)
(0.0461233 0.000528112 -0.0384704)
(0.0378815 -0.000434032 -0.0471637)
(0.0244424 -0.00186625 -0.0535922)
(0.00770112 -0.00318886 -0.0397792)
(0.087888 0.000430441 -0.00143112)
(0.0875468 -0.000264706 -0.00623791)
(0.0868258 -0.00205379 -0.0122324)
(0.08612 -0.00388662 -0.0179976)
(0.0858611 -0.00492053 -0.0224962)
(0.0859824 -0.00483241 -0.0253909)
(0.0860984 -0.00379373 -0.0269395)
(0.0857538 -0.00220263 -0.0277443)
(0.0845543 -0.000455925 -0.0285178)
(0.0822238 0.00119553 -0.0299593)
(0.0784973 0.00257539 -0.0326967)
(0.0729955 0.00356878 -0.0373575)
(0.0651133 0.00403802 -0.0446103)
(0.0534412 0.00371759 -0.0545556)
(0.0341717 0.00192431 -0.0622857)
(0.00972648 -0.00209173 -0.0462779)
(0.114105 0.000473718 -0.000949645)
(0.113845 -8.67272e-05 -0.00463904)
(0.112666 -0.00211116 -0.0102904)
(0.110573 -0.00448068 -0.0166968)
(0.108219 -0.00606186 -0.0224169)
(0.106052 -0.00623541 -0.0265538)
(0.104104 -0.00503028 -0.0289868)
(0.102118 -0.00287838 -0.0302044)
(0.0997214 -0.000297373 -0.0309906)
(0.096516 0.00236224 -0.0321978)
(0.0920553 0.00487549 -0.0345882)
(0.085763 0.0071565 -0.0389102)
(0.0767935 0.00913678 -0.0459729)
(0.063504 0.0104995 -0.0562324)
(0.0408372 0.00942148 -0.0648374)
(0.0106229 0.00182606 -0.0488266)
(0.135016 0.000435662 -0.00074792)
(0.134865 0.000222416 -0.0034967)
(0.133563 -0.00143221 -0.00838427)
(0.130602 -0.00366448 -0.014734)
(0.126517 -0.0053504 -0.0210732)
(0.122093 -0.00570803 -0.02611)
(0.117828 -0.00456521 -0.0293159)
(0.11383 -0.00224207 -0.0309652)
(0.109918 0.00079763 -0.0318343)
(0.105692 0.00416314 -0.0328327)
(0.100601 0.0076539 -0.0348517)
(0.0939153 0.0112583 -0.0387175)
(0.0845802 0.0150305 -0.0453121)
(0.0708271 0.0188178 -0.0554338)
(0.0464286 0.0196704 -0.0645716)
(0.0113907 0.00845909 -0.0491594)
(0.150661 0.000390317 -0.000679273)
(0.150579 0.000532426 -0.00284872)
(0.149349 -0.000418307 -0.00705845)
(0.146059 -0.00196727 -0.0130982)
(0.140954 -0.00323113 -0.019648)
(0.134915 -0.0034715 -0.0252192)
(0.128767 -0.00239843 -0.0289659)
(0.123003 -0.000147835 -0.0309342)
(0.117703 0.00296741 -0.0318343)
(0.112564 0.00664801 -0.0326163)
(0.107057 0.0108004 -0.0342252)
(0.100362 0.0155604 -0.0375314)
(0.0912914 0.0211641 -0.0434173)
(0.078034 0.0279966 -0.052982)
(0.0533385 0.0324649 -0.0623258)
(0.0134481 0.0190034 -0.0476326)
(0.161063 0.000374715 -0.000644649)
(0.161025 0.000830423 -0.00249612)
(0.159931 0.000653729 -0.00624176)
(0.156614 7.50898e-05 -0.011964)
(0.151079 -0.000361835 -0.0185122)
(0.144173 -0.000145797 -0.0243269)
(0.136901 0.000993129 -0.0283642)
(0.130019 0.00306989 -0.0304967)
(0.123839 0.00595932 -0.0313426)
(0.118226 0.00958141 -0.0318551)
(0.112759 0.0140098 -0.0329866)
(0.106616 0.0196128 -0.0356005)
(0.0986974 0.0268669 -0.0404927)
(0.0870883 0.0373463 -0.0489485)
(0.0649219 0.048008 -0.0581402)
(0.0195613 0.0375339 -0.0438742)
(0.166265 0.000388328 -0.000609177)
(0.166231 0.00114653 -0.00228999)
(0.165246 0.00175114 -0.00577978)
(0.162056 0.00226479 -0.0112887)
(0.156509 0.00285176 -0.0177414)
(0.149393 0.00370551 -0.0235808)
(0.141779 0.00498951 -0.0276722)
(0.134564 0.0068108 -0.0297905)
(0.12823 0.00926143 -0.0304893)
(0.122789 0.0124971 -0.0306816)
(0.118 0.0167755 -0.0312796)
(0.11312 0.0226922 -0.033074)
(0.107794 0.0309652 -0.0367029)
(0.0990218 0.0445884 -0.0432769)
(0.0884186 0.0669115 -0.0521704)
(0.0346686 0.0637767 -0.0364534)
(0.0211049 0.000112295 -0.00174097)
(0.0207811 0.000221777 -0.00406236)
(0.0205168 0.000131016 -0.00587175)
(0.0207091 -4.91691e-05 -0.00720332)
(0.0213225 -0.000188802 -0.00808876)
(0.0220459 -0.000237882 -0.00864363)
(0.0225566 -0.00020984 -0.00903936)
(0.0226284 -0.000145547 -0.00946527)
(0.0221384 -9.32443e-05 -0.010101)
(0.0210634 -9.32175e-05 -0.0111056)
(0.0194169 -0.000180307 -0.0126246)
(0.0171997 -0.000407609 -0.0147762)
(0.0143683 -0.000811653 -0.0176071)
(0.0106624 -0.00132568 -0.0207765)
(0.00566677 -0.00183095 -0.0223207)
(0.000821665 -0.00201719 -0.0154495)
(0.059562 0.000212151 -0.00193758)
(0.059097 -0.000266648 -0.00644726)
(0.0586846 -0.00130044 -0.0109167)
(0.0588106 -0.00228284 -0.0146177)
(0.0595453 -0.00277049 -0.017215)
(0.0604643 -0.00264285 -0.0187766)
(0.0610209 -0.00204284 -0.0196335)
(0.060767 -0.00121007 -0.0202338)
(0.0594029 -0.000364759 -0.021035)
(0.0567898 0.000345373 -0.0224552)
(0.0528118 0.000820974 -0.0248454)
(0.0472743 0.000963029 -0.0285024)
(0.0398539 0.000665084 -0.03357)
(0.0297352 -0.000159313 -0.039353)
(0.0159868 -0.00168739 -0.041584)
(0.00238687 -0.00343932 -0.026972)
(0.0928202 0.000395551 -0.00129763)
(0.0923785 -0.000353555 -0.00550614)
(0.0914308 -0.00227053 -0.0107996)
(0.0903251 -0.00429187 -0.016011)
(0.089507 -0.0054989 -0.0202064)
(0.088937 -0.00549168 -0.0230178)
(0.0882391 -0.00441345 -0.0246059)
(0.0869473 -0.00268528 -0.0254663)
(0.084632 -0.000748926 -0.0262196)
(0.080981 0.00109621 -0.0274806)
(0.0756812 0.00265988 -0.029768)
(0.0682996 0.00382429 -0.0335255)
(0.0582122 0.0044649 -0.0390459)
(0.0441002 0.00428972 -0.0457044)
(0.0242181 0.00234965 -0.0484034)
(0.00350963 -0.00216209 -0.0309885)
(0.120498 0.000438705 -0.00088128)
(0.120175 -0.000132515 -0.00405331)
(0.118852 -0.00225263 -0.0089325)
(0.116419 -0.00483178 -0.0146178)
(0.113471 -0.00665516 -0.0198723)
(0.110471 -0.00698674 -0.0238305)
(0.107502 -0.00578269 -0.0262807)
(0.104347 -0.0034756 -0.0275805)
(0.10063 -0.000637158 -0.0283945)
(0.095931 0.00233879 -0.0294731)
(0.0897476 0.0051777 -0.0314615)
(0.0814245 0.00778354 -0.0349186)
(0.0700707 0.0100894 -0.040273)
(0.0539819 0.0116935 -0.0471321)
(0.0302346 0.0104772 -0.050267)
(0.00392301 0.00235231 -0.0322043)
(0.142569 0.000399343 -0.000718969)
(0.142363 0.000203247 -0.00306606)
(0.140989 -0.00148674 -0.00719866)
(0.137803 -0.00387804 -0.0127324)
(0.133193 -0.00579611 -0.018474)
(0.127899 -0.0063402 -0.0232368)
(0.122473 -0.00523639 -0.0264273)
(0.117107 -0.00277111 -0.0281755)
(0.111692 0.000555753 -0.0291144)
(0.105832 0.00431503 -0.0300335)
(0.0989147 0.00825577 -0.0317018)
(0.090136 0.0123567 -0.0347542)
(0.0783758 0.0166837 -0.0397082)
(0.0616711 0.0209453 -0.0464334)
(0.0357024 0.0217809 -0.0498867)
(0.00453345 0.0100057 -0.0319561)
(0.159089 0.000361918 -0.000664724)
(0.158936 0.000527429 -0.00252719)
(0.157664 -0.000413595 -0.00603128)
(0.154254 -0.00204649 -0.011214)
(0.148738 -0.00347314 -0.0170741)
(0.141878 -0.00386264 -0.0222928)
(0.134519 -0.00282532 -0.0259928)
(0.127267 -0.000445222 -0.0280731)
(0.120321 0.00296688 -0.0290824)
(0.113435 0.00707179 -0.0298367)
(0.106049 0.0117615 -0.0311562)
(0.0972716 0.0171761 -0.0337233)
(0.085847 0.0236014 -0.0380908)
(0.069717 0.0312739 -0.0443964)
(0.0429499 0.0360191 -0.0480407)
(0.0067483 0.0220326 -0.0305285)
(0.170072 0.000364883 -0.000633083)
(0.169946 0.000841605 -0.00223883)
(0.168823 0.000692108 -0.00532622)
(0.165453 8.96051e-05 -0.0101819)
(0.15961 -0.000415296 -0.0159861)
(0.151964 -0.000261554 -0.0213956)
(0.1435 0.000892756 -0.0253643)
(0.135091 0.00311025 -0.0276219)
(0.127204 0.00628668 -0.0286144)
(0.119799 0.0103374 -0.0291542)
(0.112469 0.0153497 -0.0300728)
(0.104342 0.0217283 -0.0320589)
(0.09425 0.030056 -0.0356333)
(0.0801847 0.0418485 -0.0411751)
(0.0554579 0.0532224 -0.0449212)
(0.013422 0.0425964 -0.0278342)
(0.175562 0.000397705 -0.000600728)
(0.175432 0.00117952 -0.00206665)
(0.174419 0.00181578 -0.00492671)
(0.171219 0.00235619 -0.00957111)
(0.165438 0.00297155 -0.0152641)
(0.157655 0.00386957 -0.020675)
(0.148901 0.00524469 -0.0246899)
(0.140184 0.00723444 -0.0269468)
(0.13216 0.00995561 -0.0278266)
(0.12497 0.0135943 -0.0281018)
(0.118422 0.0184518 -0.0285758)
(0.111768 0.0252041 -0.0298965)
(0.104558 0.0346958 -0.0324943)
(0.0940838 0.0502241 -0.0368219)
(0.0810286 0.0740236 -0.0409408)
(0.0287393 0.0696335 -0.023122)
(0.0220257 8.015e-05 -0.00154982)
(0.0216301 0.000171372 -0.00357234)
(0.0212485 7.42742e-05 -0.0051479)
(0.0212977 -0.000114775 -0.00632591)
(0.0217557 -0.000263251 -0.00712925)
(0.0223032 -0.000316679 -0.00764616)
(0.0226001 -0.000287761 -0.00801422)
(0.0224042 -0.000218997 -0.00838884)
(0.0215852 -0.000161196 -0.00891622)
(0.0201146 -0.000159226 -0.00971713)
(0.0180126 -0.000233817 -0.0108894)
(0.0152976 -0.00042946 -0.0124781)
(0.0119647 -0.000759641 -0.0144351)
(0.00790684 -0.00116834 -0.0163622)
(0.00323775 -0.00162618 -0.0166571)
(-0.000482606 -0.00182323 -0.0106912)
(0.0621952 0.000175284 -0.00168701)
(0.0616147 -0.000362596 -0.00554694)
(0.0609955 -0.00147107 -0.00938502)
(0.060836 -0.00253948 -0.0126121)
(0.0612308 -0.00309455 -0.0149309)
(0.0617523 -0.00298909 -0.0163699)
(0.0618319 -0.00236213 -0.0171851)
(0.0609953 -0.00146819 -0.0177423)
(0.0589208 -0.000548 -0.0184215)
(0.0554611 0.000232794 -0.019561)
(0.050507 0.000782188 -0.0214194)
(0.0438963 0.00101445 -0.0241644)
(0.0353962 0.000854853 -0.0277556)
(0.0245242 0.000211543 -0.0313771)
(0.0114391 -0.00123705 -0.0314926)
(7.48501e-05 -0.00311126 -0.0189171)
(0.0969269 0.000363822 -0.00112466)
(0.0963975 -0.000431058 -0.00466369)
(0.0952627 -0.00245458 -0.00913456)
(0.093835 -0.00464085 -0.0136146)
(0.0925668 -0.00600834 -0.0173096)
(0.0914334 -0.00608672 -0.0198625)
(0.0900635 -0.00498787 -0.0213591)
(0.0879826 -0.00314794 -0.0221869)
(0.084742 -0.00104671 -0.0228583)
(0.080017 0.000974484 -0.0238764)
(0.0734908 0.00271468 -0.0256504)
(0.0647541 0.00406103 -0.0284721)
(0.0532763 0.00490886 -0.0324073)
(0.0380857 0.00495105 -0.036614)
(0.0188177 0.00307154 -0.0367541)
(0.000767339 -0.00168834 -0.0216281)
(0.125821 0.000404588 -0.000777193)
(0.12544 -0.000174659 -0.00341113)
(0.123996 -0.00236734 -0.00745689)
(0.121298 -0.00512145 -0.0122687)
(0.117885 -0.00716036 -0.0168379)
(0.114218 -0.00764582 -0.0203901)
(0.110412 -0.00646202 -0.0226716)
(0.106284 -0.00403321 -0.0239261)
(0.101468 -0.000973065 -0.0246887)
(0.0955434 0.00228157 -0.0255726)
(0.0880041 0.00541543 -0.0271031)
(0.0781987 0.00832581 -0.0296751)
(0.0653074 0.0109491 -0.0334715)
(0.0478915 0.0128277 -0.037799)
(0.0245436 0.011648 -0.0381009)
(0.0010061 0.00317121 -0.0222388)
(0.148864 0.000365598 -0.000650198)
(0.148599 0.000182975 -0.00259418)
(0.147154 -0.00152684 -0.00596413)
(0.143798 -0.00404348 -0.0105759)
(0.138795 -0.00616072 -0.0155086)
(0.132822 -0.006879 -0.0197413)
(0.126458 -0.005829 -0.0226864)
(0.119961 -0.0032571 -0.0243675)
(0.113291 0.000310995 -0.0252675)
(0.106082 0.00441148 -0.0260454)
(0.0977189 0.0087465 -0.0273169)
(0.0874019 0.0132819 -0.0295521)
(0.0740635 0.0180815 -0.0330231)
(0.0558935 0.0227535 -0.0372393)
(0.030054 0.0236787 -0.0377173)
(0.00162024 0.0114549 -0.0218431)
(0.166113 0.000340169 -0.000604872)
(0.165887 0.000521437 -0.0021606)
(0.16456 -0.000403828 -0.00498529)
(0.161059 -0.00209711 -0.00924895)
(0.155252 -0.00365767 -0.0142303)
(0.147772 -0.0041832 -0.0188306)
(0.139456 -0.00319321 -0.0222254)
(0.130983 -0.000717914 -0.0242234)
(0.122665 0.00293975 -0.0252201)
(0.114331 0.00740782 -0.0258789)
(0.105446 0.0125561 -0.0268695)
(0.0951257 0.0185186 -0.0287087)
(0.0821639 0.0255934 -0.0317192)
(0.0645527 0.0338913 -0.0356435)
(0.037614 0.0388803 -0.0362956)
(0.00401749 0.0243841 -0.0206972)
(0.177578 0.000358641 -0.000575887)
(0.177367 0.000852102 -0.00193153)
(0.176193 0.00073154 -0.00440361)
(0.172781 0.000118482 -0.00836158)
(0.166733 -0.000440898 -0.0132556)
(0.158548 -0.000343586 -0.0179955)
(0.149159 0.000814063 -0.0216226)
(0.139512 0.00314071 -0.0237939)
(0.130205 0.00655526 -0.0248022)
(0.12131 0.0109678 -0.0253005)
(0.112479 0.0164667 -0.0259735)
(0.102865 0.0234715 -0.0273528)
(0.0913511 0.0326097 -0.0297642)
(0.0759705 0.0452933 -0.0331946)
(0.0507145 0.0571133 -0.0340804)
(0.011082 0.0461298 -0.0188507)
(0.183311 0.000406378 -0.00054853)
(0.183088 0.00121215 -0.00179228)
(0.182023 0.00188001 -0.0040728)
(0.17881 0.00244851 -0.00783686)
(0.172886 0.00308934 -0.0126182)
(0.164634 0.00402489 -0.0173435)
(0.155009 0.00547507 -0.0210068)
(0.145082 0.00760507 -0.0231863)
(0.135656 0.0105533 -0.0241147)
(0.127007 0.0145293 -0.0244077)
(0.119026 0.019861 -0.0247324)
(0.111012 0.027268 -0.0256008)
(0.102557 0.0376558 -0.0272983)
(0.09112 0.054408 -0.0299701)
(0.0774207 0.0790383 -0.0314815)
(0.0264297 0.073356 -0.0157234)
(0.0227595 5.2237e-05 -0.00128649)
(0.0223034 0.000127645 -0.00293836)
(0.0218245 2.44717e-05 -0.00422327)
(0.0217576 -0.000173158 -0.00519518)
(0.0220917 -0.000330594 -0.00587037)
(0.022501 -0.000389285 -0.00631276)
(0.0226313 -0.000360968 -0.00662628)
(0.0222292 -0.000289359 -0.00693047)
(0.0211619 -0.000227407 -0.00733671)
(0.0194036 -0.000222694 -0.00793174)
(0.0169924 -0.00028051 -0.0087757)
(0.013977 -0.000442734 -0.00987446)
(0.0103975 -0.00070639 -0.0111484)
(0.00626899 -0.00102228 -0.0122504)
(0.00197081 -0.00140643 -0.0120017)
(-0.0010364 -0.00159855 -0.00736097)
(0.0643001 0.000144199 -0.00137778)
(0.0636234 -0.000442427 -0.00448705)
(0.062836 -0.00161264 -0.00758328)
(0.0624486 -0.00275453 -0.0102158)
(0.062575 -0.00337036 -0.0121407)
(0.0627842 -0.00328924 -0.0133627)
(0.0624889 -0.00264477 -0.0140687)
(0.0611952 -0.00170274 -0.01454)
(0.0585696 -0.00072133 -0.0150717)
(0.0544703 0.000122866 -0.0159215)
(0.0488138 0.000743936 -0.0172702)
(0.0414931 0.00106742 -0.0192014)
(0.0323858 0.00104331 -0.0216039)
(0.0212874 0.000572911 -0.0237491)
(0.00891049 -0.000753863 -0.022992)
(-0.000995038 -0.00270867 -0.0132067)
(0.100211 0.000337295 -0.000916234)
(0.099608 -0.000494479 -0.00372938)
(0.0983222 -0.00260221 -0.0072892)
(0.0966418 -0.00492438 -0.0109026)
(0.0950227 -0.00643035 -0.0139376)
(0.0934487 -0.00658963 -0.0160822)
(0.0915494 -0.00548354 -0.0173719)
(0.0888446 -0.00355716 -0.0180924)
(0.0848797 -0.00132244 -0.01864)
(0.0793307 0.00085147 -0.0194028)
(0.0718988 0.00274864 -0.0206858)
(0.062232 0.0042645 -0.0226715)
(0.0499211 0.00531247 -0.0253198)
(0.0343163 0.00557187 -0.0278428)
(0.0157783 0.00381696 -0.0269378)
(-0.000516498 -0.00111479 -0.0150974)
(0.130078 0.000374693 -0.000641889)
(0.129644 -0.000210464 -0.0027176)
(0.128101 -0.00245573 -0.00589294)
(0.125199 -0.00534843 -0.00972532)
(0.121432 -0.00756757 -0.0134401)
(0.117251 -0.00819064 -0.0163974)
(0.112789 -0.00703679 -0.018348)
(0.10789 -0.00451669 -0.0194448)
(0.102208 -0.00127251 -0.0200942)
(0.0953362 0.00221075 -0.020764)
(0.0867826 0.00559423 -0.0218608)
(0.075943 0.00876771 -0.0236529)
(0.0621023 0.0116696 -0.0261927)
(0.0441116 0.0138034 -0.0287858)
(0.0213874 0.0127283 -0.0279123)
(-0.000317214 0.00398232 -0.0154296)
(0.1539 0.00033767 -0.000544832)
(0.153582 0.000164494 -0.00207782)
(0.152069 -0.00155488 -0.00468991)
(0.148584 -0.00416573 -0.00831771)
(0.14329 -0.00644457 -0.0122885)
(0.136806 -0.00731389 -0.0157849)
(0.129716 -0.00632163 -0.0182867)
(0.122331 -0.00367384 -0.0197542)
(0.114667 8.93802e-05 -0.0205335)
(0.106401 0.00446647 -0.0211409)
(0.0969508 0.00912607 -0.0220417)
(0.0855508 0.0140179 -0.0235726)
(0.0712218 0.0191968 -0.0258643)
(0.0523717 0.0242012 -0.0283737)
(0.0269854 0.0252485 -0.0275978)
(0.0003432 0.0126575 -0.0150667)
(0.171731 0.000323592 -0.000506451)
(0.171439 0.000515504 -0.00174486)
(0.170056 -0.000392203 -0.00391714)
(0.166482 -0.0021265 -0.00723665)
(0.160467 -0.00379195 -0.0112121)
(0.152534 -0.00443303 -0.0149871)
(0.14349 -0.00349287 -0.0178571)
(0.134064 -0.000952144 -0.0196004)
(0.12466 0.00289549 -0.0204825)
(0.11519 0.00765903 -0.0210099)
(0.105166 0.0131773 -0.0216986)
(0.093748 0.0195726 -0.0229269)
(0.0798085 0.0271373 -0.0248774)
(0.061476 0.0358888 -0.0271941)
(0.0347953 0.0410794 -0.0265634)
(0.00289547 0.0261491 -0.0142244)
(0.183585 0.000353883 -0.000483603)
(0.183297 0.000860863 -0.00157119)
(0.182065 0.000767682 -0.00346385)
(0.178615 0.000152736 -0.0065228)
(0.172428 -0.000447442 -0.0104031)
(0.16386 -0.000397863 -0.0142732)
(0.153779 0.000755708 -0.0173299)
(0.143173 0.00316236 -0.0192263)
(0.132746 0.00676311 -0.0201355)
(0.122677 0.0114641 -0.0205507)
(0.112696 0.0173466 -0.021003)
(0.102008 0.0248307 -0.0218888)
(0.089576 0.0345544 -0.0234095)
(0.0735312 0.0478372 -0.0254203)
(0.0482859 0.059954 -0.0250391)
(0.0102339 0.0486464 -0.0129864)
(0.189512 0.0004145 -0.000461129)
(0.189208 0.00124159 -0.00146353)
(0.188084 0.00193807 -0.00320491)
(0.18485 0.00253295 -0.00610119)
(0.178834 0.00319612 -0.00987879)
(0.17026 0.00416197 -0.0137267)
(0.159994 0.00567091 -0.0168096)
(0.149138 0.00791141 -0.0187182)
(0.138607 0.0110391 -0.0195751)
(0.128803 0.0152813 -0.0198412)
(0.119712 0.0209796 -0.0200369)
(0.110695 0.0288748 -0.0205519)
(0.101421 0.0398924 -0.0215745)
(0.0894727 0.0574304 -0.0231237)
(0.0756972 0.082577 -0.0233533)
(0.0255777 0.0759227 -0.0108606)
(0.0233073 2.93073e-05 -0.000963494)
(0.0228037 9.22501e-05 -0.00218666)
(0.0222501 -1.63078e-05 -0.00313626)
(0.0220951 -0.000221618 -0.00386045)
(0.0223368 -0.000387219 -0.00437027)
(0.0226448 -0.000451105 -0.00470839)
(0.0226542 -0.000424026 -0.00494677)
(0.0221042 -0.000350412 -0.0051694)
(0.0208624 -0.00028423 -0.00545408)
(0.0189094 -0.000274796 -0.00585852)
(0.0163017 -0.000319217 -0.00641581)
(0.0131157 -0.000453359 -0.00711796)
(0.00942806 -0.000665332 -0.00789091)
(0.00532993 -0.000909947 -0.00847902)
(0.00131485 -0.00123135 -0.00809258)
(-0.00126986 -0.001425 -0.00482731)
(0.0658768 0.000119586 -0.00101925)
(0.0651253 -0.000504408 -0.00329904)
(0.0642096 -0.00172214 -0.00556944)
(0.0636512 -0.00292208 -0.00751475)
(0.0635787 -0.00358794 -0.00895521)
(0.0635583 -0.00352945 -0.00988407)
(0.0629882 -0.00287459 -0.0104273)
(0.0613607 -0.0018969 -0.0107826)
(0.0583372 -0.000867164 -0.0111593)
(0.0537857 2.85271e-05 -0.0117371)
(0.0476535 0.00070912 -0.0126354)
(0.039888 0.00111011 -0.0138892)
(0.0304577 0.00119753 -0.0153857)
(0.0193442 0.000866046 -0.0165775)
(0.00751341 -0.00035332 -0.0156654)
(-0.00149483 -0.00237254 -0.00875638)
(0.102672 0.00031609 -0.000676654)
(0.102011 -0.000542805 -0.00271998)
(0.100611 -0.00271258 -0.00530528)
(0.0987426 -0.00513855 -0.00795276)
(0.0968656 -0.00675442 -0.010206)
(0.0949682 -0.00698222 -0.0118239)
(0.0926795 -0.00587685 -0.0128136)
(0.089516 -0.00388799 -0.0133687)
(0.0850212 -0.00155188 -0.0137685)
(0.0788803 0.000742059 -0.0142904)
(0.0708207 0.00276631 -0.0151417)
(0.0605478 0.00442171 -0.0164308)
(0.0477583 0.00563515 -0.0180894)
(0.0320309 0.0060744 -0.0195111)
(0.0140797 0.00443875 -0.018421)
(-0.00112026 -0.000625532 -0.010024)
(0.133271 0.000351405 -0.000478965)
(0.132793 -0.000238026 -0.00197787)
(0.131172 -0.00251925 -0.00425977)
(0.128119 -0.00551433 -0.00704102)
(0.124095 -0.0078728 -0.00977773)
(0.119541 -0.0086078 -0.0119942)
(0.114598 -0.00748528 -0.0134832)
(0.10913 -0.00490149 -0.0143323)
(0.102812 -0.00151947 -0.0148223)
(0.0952544 0.00214037 -0.0152858)
(0.0859886 0.0057192 -0.016007)
(0.0744627 0.00909983 -0.0171594)
(0.0600573 0.0122218 -0.0187412)
(0.0418411 0.0145622 -0.0202018)
(0.0196435 0.013595 -0.0190958)
(-0.000921147 0.00464096 -0.0102198)
(0.157678 0.000318174 -0.000409074)
(0.157313 0.000150111 -0.00151843)
(0.155744 -0.00157297 -0.00337931)
(0.152162 -0.00425024 -0.00598757)
(0.146661 -0.00665095 -0.00889081)
(0.139813 -0.00764021 -0.011496)
(0.132197 -0.00670039 -0.0133974)
(0.124159 -0.00400236 -0.0145333)
(0.11576 -9.42956e-05 -0.0151341)
(0.106725 0.00449247 -0.0155617)
(0.0965046 0.00939982 -0.0161464)
(0.084378 0.0145622 -0.0171142)
(0.0694478 0.0200247 -0.0185228)
(0.0502972 0.025279 -0.0199262)
(0.0253298 0.0264401 -0.0188737)
(-0.000208036 0.013567 -0.00994767)
(0.175944 0.000311811 -0.000379757)
(0.175597 0.000510579 -0.00128276)
(0.174162 -0.000381093 -0.00282229)
(0.170531 -0.00214128 -0.00519045)
(0.164373 -0.00388359 -0.00807791)
(0.156124 -0.00461487 -0.0108765)
(0.146559 -0.00371929 -0.0130501)
(0.136436 -0.0011367 -0.014399)
(0.126232 0.00285014 -0.0150875)
(0.11593 0.00783498 -0.0154677)
(0.105093 0.0136303 -0.0159062)
(0.0929295 0.0203444 -0.0166627)
(0.0783863 0.0282589 -0.0178379)
(0.059713 0.0373274 -0.0191212)
(0.0333255 0.0426743 -0.0181758)
(0.00246184 0.0274093 -0.00937697)
(0.188089 0.00034975 -0.000363334)
(0.18774 0.00086746 -0.00116101)
(0.186454 0.000797364 -0.00249879)
(0.182968 0.00018511 -0.00466914)
(0.176687 -0.000443177 -0.00747346)
(0.167859 -0.000430763 -0.0103316)
(0.15729 0.000715506 -0.0126409)
(0.145989 0.00317706 -0.0141093)
(0.134739 0.00691391 -0.0148272)
(0.123806 0.0118283 -0.015136)
(0.112996 0.0179926 -0.0154131)
(0.101569 0.0258209 -0.0159351)
(0.08856 0.0359478 -0.016823)
(0.0721889 0.0496262 -0.0179251)
(0.047075 0.0619478 -0.01718)
(0.00999104 0.0503927 -0.00857715)
(0.194164 0.000421061 -0.000346668)
(0.193796 0.00126546 -0.00108449)
(0.192615 0.00198538 -0.00231357)
(0.189357 0.00260245 -0.00436163)
(0.183282 0.00328411 -0.00708398)
(0.174494 0.00427277 -0.00991982)
(0.163781 0.00582466 -0.0122466)
(0.152255 0.00814633 -0.0137269)
(0.140913 0.0114061 -0.0144136)
(0.130256 0.0158434 -0.0146231)
(0.120357 0.0218066 -0.0147264)
(0.11064 0.0300446 -0.0149999)
(0.100839 0.0414844 -0.0155622)
(0.0886289 0.0595185 -0.016395)
(0.0749437 0.0850022 -0.0161126)
(0.0253321 0.077676 -0.0071748)
(0.0236702 1.48562e-05 -0.00059144)
(0.0231342 6.65862e-05 -0.00133883)
(0.0225304 -4.76174e-05 -0.00191581)
(0.022316 -0.000260199 -0.00235789)
(0.0224965 -0.000433242 -0.00267216)
(0.0227383 -0.000501852 -0.0028825)
(0.0226699 -0.000476079 -0.00303052)
(0.0220254 -0.00040108 -0.0031653)
(0.0206737 -0.00033175 -0.00333214)
(0.018602 -0.000317434 -0.0035637)
(0.0158806 -0.000352838 -0.00387607)
(0.0126054 -0.000467659 -0.00426)
(0.00887691 -0.000645741 -0.00466627)
(0.00482706 -0.000844438 -0.00494283)
(0.000991846 -0.00112317 -0.00464237)
(-0.00136188 -0.00131677 -0.00272394)
(0.0669238 0.000103748 -0.00061925)
(0.0661209 -0.000546879 -0.00200458)
(0.0651202 -0.00179794 -0.00338048)
(0.0644478 -0.00303897 -0.00456461)
(0.0642441 -0.00374159 -0.00544914)
(0.0640736 -0.00370129 -0.00602537)
(0.0633246 -0.00304128 -0.00636484)
(0.0614803 -0.00204003 -0.00658358)
(0.058201 -0.000976745 -0.00680574)
(0.0533629 -4.49188e-05 -0.00713622)
(0.0469389 0.000677956 -0.00764273)
(0.0389172 0.00113413 -0.00833703)
(0.0293271 0.0012988 -0.00914103)
(0.0182578 0.00106163 -0.00972449)
(0.00678292 -8.29698e-05 -0.00905568)
(-0.00171553 -0.00214615 -0.00498091)
(0.104309 0.000301665 -0.000409756)
(0.103607 -0.00057452 -0.00164401)
(0.102131 -0.0027848 -0.00320129)
(0.100138 -0.00528062 -0.00480352)
(0.0980916 -0.00697326 -0.00617984)
(0.0959828 -0.00725166 -0.00717882)
(0.0934397 -0.00615075 -0.00779648)
(0.0899768 -0.00412194 -0.00814342)
(0.0851374 -0.00171691 -0.00838418)
(0.0786161 0.000658744 -0.0086843)
(0.070164 0.00277177 -0.00916256)
(0.0595296 0.00452542 -0.00987586)
(0.0464833 0.00585486 -0.0107704)
(0.0307421 0.00641981 -0.0114747)
(0.0131816 0.00487096 -0.0106756)
(-0.0013886 -0.000285537 -0.00570815)
(0.135396 0.000335859 -0.000291322)
(0.134886 -0.000255619 -0.00119324)
(0.133212 -0.00255843 -0.00255829)
(0.13006 -0.00562011 -0.00423022)
(0.125868 -0.0080734 -0.00589292)
(0.121071 -0.0088881 -0.00725581)
(0.115815 -0.00779188 -0.00818249)
(0.109974 -0.00516908 -0.0087154)
(0.10324 -0.00169672 -0.00901685)
(0.0952391 0.00208373 -0.00928636)
(0.0855234 0.00579657 -0.00968874)
(0.0735816 0.00931944 -0.0103215)
(0.0588627 0.0125923 -0.0111704)
(0.0405709 0.0150762 -0.0118932)
(0.0187308 0.0141908 -0.011072)
(-0.00118006 0.00509305 -0.00581364)
(0.160194 0.000305403 -0.000249559)
(0.159795 0.000140812 -0.00091797)
(0.158186 -0.00158228 -0.00202495)
(0.154538 -0.00430077 -0.00358254)
(0.148904 -0.00678247 -0.00533698)
(0.141822 -0.00785529 -0.00693259)
(0.133865 -0.00695574 -0.00811268)
(0.1254 -0.00422847 -0.00882598)
(0.116521 -0.000226559 -0.00920289)
(0.106986 0.00450128 -0.00945373)
(0.0962748 0.00957575 -0.00977608)
(0.0837031 0.0149195 -0.0103)
(0.0684324 0.0205703 -0.0110476)
(0.049158 0.025992 -0.0117366)
(0.0244833 0.0272376 -0.0109419)
(-0.000426631 0.0141731 -0.00564952)
(0.178751 0.000303932 -0.000232199)
(0.178364 0.000507116 -0.000778566)