/*--------------------------------*- C++ -*----------------------------------*\
| =========                 |                                                 |
| \\      /  F ield         | foam-extend: Open Source CFD                    |
|  \\    /   O peration     | Version:     3.1                                |
|   \\  /    A nd           | Web:         http://www.extend-project.de       |
|    \\/     M anipulation  |                                                 |
\*---------------------------------------------------------------------------*/
FoamFile
{
    version     2.0;
    format      ascii;
    class       volVectorField;
    location    "0.9";
    object      D;
}
// * * * * * * * * * * * * * * * * * * * * * * * * * * * * * * * * * * * * * //

dimensions      [0 1 0 0 0 0 0];

internalField   nonuniform List<vector> 
256
(
(0.000733013 0.000382287 0.0008262)
(0.000301512 3.34655e-05 0.000246089)
(0.000249238 -0.000196233 -0.00032333)
(0.00057026 -0.000606385 -0.00100904)
(0.00299198 0.00168517 0.000880015)
(0.0024656 0.000323343 0.000356852)
(0.00234587 -0.000799549 -0.000359385)
(0.00259605 -0.00224449 -0.000931615)
(0.00582079 0.00252879 0.00088207)
(0.00529125 0.000491005 0.000376862)
(0.00512739 -0.00135002 -0.00022612)
(0.00529229 -0.0034905 -0.000757284)
(0.00915031 0.00308464 0.000781577)
(0.00866621 0.000513497 0.000387458)
(0.0084667 -0.00188605 -7.89865e-05)
(0.00850883 -0.00455319 -0.000488308)
(0.0127741 0.0033441 0.000657586)
(0.0123316 0.000409254 0.000383735)
(0.0121037 -0.00238017 6.09062e-05)
(0.0120465 -0.00539155 -0.000222695)
(0.0165105 0.00337751 0.000540518)
(0.0161071 0.00021702 0.000375223)
(0.0158582 -0.002824 0.000177483)
(0.0157245 -0.00603828 5.81689e-06)
(0.0202173 0.00325264 0.000454896)
(0.0198453 -2.61827e-05 0.000369189)
(0.0195839 -0.00320967 0.000269271)
(0.019401 -0.00652311 0.00018103)
(0.0238123 0.00303901 0.000412787)
(0.0234469 -0.000287724 0.000370352)
(0.0231791 -0.00353859 0.000342977)
(0.0229834 -0.00689139 0.000300284)
(0.000826854 0.000367644 0.000429841)
(0.000426473 1.98485e-05 0.000129215)
(0.000386035 -0.000193673 -0.000203051)
(0.000689648 -0.000573505 -0.000589093)
(0.00325895 0.00160546 0.000555871)
(0.00267238 0.000262573 0.000216734)
(0.00256561 -0.000830024 -0.000241127)
(0.00289584 -0.00225862 -0.000619587)
(0.00610279 0.00246918 0.000606491)
(0.00556854 0.000419206 0.000260966)
(0.00540819 -0.00143102 -0.000158799)
(0.00557974 -0.00358066 -0.000526977)
(0.00940383 0.00302937 0.000579365)
(0.00891533 0.000442634 0.000290186)
(0.00871355 -0.00197599 -5.0426e-05)
(0.00875239 -0.0046573 -0.000353032)
(0.01297 0.00330036 0.000521499)
(0.0125279 0.000348145 0.000305582)
(0.0122942 -0.00246466 5.61151e-05)
(0.0122238 -0.00549141 -0.000167201)
(0.0166442 0.00334306 0.00046029)
(0.0162433 0.000166903 0.000313659)
(0.015988 -0.00289537 0.000147392)
(0.0158387 -0.00612305 -2.80637e-06)
(0.0202988 0.0032247 0.000414782)
(0.0199318 -6.79901e-05 0.000320735)
(0.0196655 -0.0032684 0.000220032)
(0.0194677 -0.00659285 0.000125657)
(0.0238652 0.00301556 0.000394799)
(0.023505 -0.000324295 0.000331814)
(0.0232341 -0.00358983 0.000275772)
(0.0230279 -0.00695265 0.000214086)
(0.000872972 0.000382325 0.00023225)
(0.00045777 2.11117e-05 6.84911e-05)
(0.000420888 -0.000200533 -0.000126849)
(0.000745589 -0.000593042 -0.000347719)
(0.00339453 0.00157618 0.000342706)
(0.00276909 0.000235024 0.000130847)
(0.00266967 -0.000843831 -0.000152899)
(0.00305021 -0.00227443 -0.00039226)
(0.00627524 0.0024176 0.000403313)
(0.00571194 0.000375865 0.000176137)
(0.00555502 -0.00146267 -0.000101256)
(0.00576067 -0.00360569 -0.00034553)
(0.00957695 0.00296443 0.000414296)
(0.0090704 0.00039096 0.000211492)
(0.00886862 -0.00201574 -2.56337e-05)
(0.0089252 -0.00468345 -0.000238523)
(0.0131238 0.0032345 0.000400608)
(0.0126712 0.000296165 0.000236799)
(0.0124354 -0.00250623 5.18415e-05)
(0.0123721 -0.00551822 -0.000116893)
(0.0167703 0.00328421 0.00037922)
(0.0163648 0.000119231 0.000255046)
(0.0161068 -0.0029353 0.000120379)
(0.0159577 -0.00615042 -5.23247e-06)
(0.0204004 0.00317795 0.00036293)
(0.020033 -0.000109583 0.000270018)
(0.0197641 -0.00330624 0.000175734)
(0.0195623 -0.00662346 8.40231e-05)
(0.0239547 0.00298273 0.000358208)
(0.0235967 -0.000360203 0.000284603)
(0.0233233 -0.00362732 0.000216658)
(0.0231099 -0.00699001 0.000145436)
(0.000893954 0.000391883 0.000128621)
(0.000464746 2.23951e-05 3.68581e-05)
(0.000428822 -0.000204781 -7.82909e-05)
(0.000770262 -0.000608466 -0.000205217)
(0.00346426 0.00156723 0.000211271)
(0.00281454 0.000223072 8.03665e-05)
(0.00271856 -0.000850207 -9.46504e-05)
(0.00312891 -0.00228716 -0.000243264)
(0.00637445 0.00238819 0.000265198)
(0.00579048 0.000352208 0.000118742)
(0.00563594 -0.0014756 -6.10828e-05)
(0.00586602 -0.00361385 -0.000219172)
(0.00968874 0.00292016 0.000290248)
(0.00916765 0.000358649 0.000152247)
(0.00896671 -0.00203375 -8.98859e-06)
(0.00903948 -0.00468936 -0.000154029)
(0.0132354 0.00318384 0.000298851)
(0.0127739 0.000259855 0.000179447)
(0.0125378 -0.00252743 4.61727e-05)
(0.0124837 -0.00552464 -7.65301e-05)
(0.0168748 0.00323508 0.000299793)
(0.0164648 8.31028e-05 0.000201016)
(0.0162059 -0.00295831 9.62171e-05)
(0.0160604 -0.00615983 -3.06232e-06)
(0.0204969 0.00313619 0.000300259)
(0.0201282 -0.000142896 0.000218443)
(0.0198581 -0.00333058 0.000137081)
(0.0196558 -0.00663826 5.68777e-05)
(0.0240475 0.00295066 0.000303747)
(0.0236901 -0.000389922 0.000232718)
(0.023415 -0.00365343 0.000166363)
(0.0231981 -0.00701187 9.7888e-05)
(0.000904037 0.000397369 7.23808e-05)
(0.000465414 2.32582e-05 2.0214e-05)
(0.000429667 -0.000207357 -4.73609e-05)
(0.000781857 -0.000618236 -0.000120182)
(0.00350147 0.00156575 0.000129952)
(0.00283631 0.000218358 4.98976e-05)
(0.00274182 -0.000853083 -5.71043e-05)
(0.00317018 -0.00229615 -0.000147963)
(0.00643237 0.00237474 0.000172211)
(0.00583486 0.000340568 7.93912e-05)
(0.00568158 -0.00148115 -3.50175e-05)
(0.00592711 -0.00361885 -0.000135202)
(0.00976062 0.0028957 0.000198553)
(0.00922935 0.000340472 0.000107131)
(0.00902909 -0.00204231 2.96116e-07)
(0.00911315 -0.00469193 -9.56921e-05)
(0.0133144 0.00315263 0.000214908)
(0.0128461 0.000237364 0.000131289)
(0.0126102 -0.00253876 3.85372e-05)
(0.0125632 -0.00552715 -4.71832e-05)
(0.0169559 0.0032024 0.000225274)
(0.016542 5.90351e-05 0.000151376)
(0.016283 -0.00297196 7.38394e-05)
(0.016141 -0.00616451 -1.43727e-07)
(0.0205778 0.00310643 0.000233024)
(0.0202075 -0.000166377 0.000167491)
(0.0199369 -0.00334614 0.000102817)
(0.0197351 -0.0066468 3.87789e-05)
(0.0241286 0.00292601 0.00023953)
(0.0237707 -0.000411813 0.000179429)
(0.0234945 -0.00367089 0.000122969)
(0.0232759 -0.00702532 6.50862e-05)
(0.000909243 0.000400548 4.03363e-05)
(0.000464748 2.38085e-05 1.10972e-05)
(0.000428979 -0.000208909 -2.74706e-05)
(0.000787749 -0.000624166 -6.82697e-05)
(0.00352196 0.00156694 7.76386e-05)
(0.00284716 0.000216862 3.03175e-05)
(0.00275329 -0.000854422 -3.2896e-05)
(0.00319246 -0.00230229 -8.64413e-05)
(0.00646657 0.00236992 0.000107372)
(0.00586042 0.000335454 5.09023e-05)
(0.00570772 -0.00148366 -1.88245e-05)
(0.00596268 -0.00362286 -7.96498e-05)
(0.00980634 0.00288413 0.000128795)
(0.00926831 0.000331168 7.1223e-05)
(0.00906841 -0.0020466 3.97329e-06)
(0.00915962 -0.00469446 -5.63481e-05)
(0.0133683 0.00313599 0.000144577)
(0.0128952 0.000224699 8.96716e-05)
(0.0126595 -0.00254505 2.90129e-05)
(0.0126172 -0.00552954 -2.71373e-05)
(0.0170148 0.00318352 0.000156276)
(0.0165979 4.45243e-05 0.000105421)
(0.0163387 -0.00298011 5.23769e-05)
(0.0161992 -0.00616807 1.59978e-06)
(0.0206394 0.00308806 0.000165162)
(0.0202674 -0.000181294 0.000117995)
(0.0199963 -0.00335589 7.15727e-05)
(0.0197951 -0.00665255 2.55624e-05)
(0.0241916 0.00290976 0.0001714)
(0.0238326 -0.0004263 0.000126696)
(0.0235556 -0.00368213 8.45728e-05)
(0.0233362 -0.00703398 4.15334e-05)
(0.000911987 0.000402322 2.04803e-05)
(0.000464096 2.41354e-05 5.6109e-06)
(0.000428281 -0.000209792 -1.41768e-05)
(0.000790819 -0.000627533 -3.48369e-05)
(0.00353307 0.00156857 4.13486e-05)
(0.00285264 0.000216617 1.64246e-05)
(0.00275902 -0.000855062 -1.68339e-05)
(0.00320432 -0.00230617 -4.49339e-05)
(0.00648601 0.00236888 5.88896e-05)
(0.00587469 0.00033352 2.85293e-05)
(0.00572223 -0.00148482 -8.96525e-06)
(0.00598258 -0.00362582 -4.15869e-05)
(0.00983364 0.00287951 7.253e-05)
(0.00929148 0.000326887 4.08307e-05)
(0.00909171 -0.00204876 3.83913e-06)
(0.00918706 -0.00469674 -2.93039e-05)
(0.0134019 0.00312822 8.33516e-05)
(0.0129259 0.00021827 5.2266e-05)
(0.0126902 -0.00254846 1.8017e-05)
(0.0126506 -0.00553173 -1.37115e-05)
(0.017053 0.00317392 9.18385e-05)
(0.0166341 3.66794e-05 6.21693e-05)
(0.0163748 -0.00298473 3.13234e-05)
(0.0162367 -0.00617083 1.75233e-06)
(0.0206805 0.00307811 9.83245e-05)
(0.0203072 -0.000189735 7.00468e-05)
(0.0200358 -0.00336157 4.22429e-05)
(0.0198349 -0.00665639 1.46863e-05)
(0.0242343 0.00290047 0.000102567)
(0.0238741 -0.000434797 7.52613e-05)
(0.0235965 -0.00368878 4.94867e-05)
(0.0233768 -0.00703936 2.31964e-05)
(0.000913191 0.000403125 6.27994e-06)
(0.00046375 2.42887e-05 1.72169e-06)
(0.000427909 -0.000210192 -4.36403e-06)
(0.000792158 -0.000629057 -1.06753e-05)
(0.003538 0.00156961 1.29894e-05)
(0.00285499 0.000216684 5.21432e-06)
(0.00276145 -0.000855327 -5.15138e-06)
(0.00320953 -0.00230806 -1.38962e-05)
(0.00649487 0.00236895 1.87777e-05)
(0.00588116 0.000332948 9.20444e-06)
(0.00572877 -0.00148529 -2.61461e-06)
(0.00599157 -0.0036274 -1.28845e-05)
(0.00984645 0.00287807 2.34329e-05)
(0.00930233 0.000325288 1.33148e-05)
(0.0091026 -0.00204967 1.51681e-06)
(0.00919983 -0.00469808 -9.04855e-06)
(0.0134181 0.00312532 2.72385e-05)
(0.0129407 0.000215649 1.71771e-05)
(0.0127049 -0.00254996 6.10802e-06)
(0.0126666 -0.00553304 -4.15031e-06)
(0.0170717 0.00317004 3.02871e-05)
(0.0166519 3.33199e-05 2.05431e-05)
(0.0163924 -0.00298683 1.04278e-05)
(0.016255 -0.00617235 7.24667e-07)
(0.0207009 0.00307385 3.26219e-05)
(0.0203269 -0.000193473 2.32153e-05)
(0.0200553 -0.00336417 1.39684e-05)
(0.0198546 -0.00665835 4.80517e-06)
(0.0242556 0.00289629 3.41046e-05)
(0.0238948 -0.000438656 2.4945e-05)
(0.0236168 -0.00369186 1.62902e-05)
(0.023397 -0.00704195 7.46833e-06)
)
;

boundaryField
{
    interface
    {
        type            tractionDisplacement;
        gradient        nonuniform List<vector> 
192
(
(0.0723071 0.0853407 0.00410131)
(0.0336822 0.0861126 0.0107384)
(0.0376364 0.11391 0.0110904)
(0.030955 0.129804 0.00894745)
(0.026234 0.140471 0.00613558)
(0.0214843 0.144557 0.00328046)
(0.0180307 0.144081 0.00111634)
(0.016503 0.142012 0.000102389)
(0.0731475 0.092843 0.00249366)
(0.0386394 0.0883647 0.00712388)
(0.0375426 0.112821 0.00838462)
(0.031224 0.12793 0.00772855)
(0.0260383 0.138055 0.00635735)
(0.0213425 0.142403 0.00468856)
(0.0179562 0.142637 0.00330386)
(0.0165459 0.141708 0.00264121)
(0.0767443 0.0969904 0.00130879)
(0.0405318 0.0903932 0.00392319)
(0.0388793 0.112813 0.00512708)
(0.0318938 0.127176 0.00544227)
(0.0261561 0.13682 0.00506446)
(0.0211561 0.141204 0.00438816)
(0.0176269 0.141812 0.00374569)
(0.0160311 0.141612 0.00342962)
(0.0791879 0.0992385 0.000652909)
(0.0419879 0.0916063 0.00214048)
(0.0401544 0.11335 0.00303768)
(0.0327355 0.127083 0.0035765)
(0.02659 0.136388 0.00371695)
(0.021288 0.140693 0.00361511)
(0.0175681 0.14144 0.00344145)
(0.0158044 0.141587 0.00336355)
(0.0806646 0.100469 0.000319633)
(0.0429853 0.0923616 0.00116975)
(0.0410773 0.113872 0.0017846)
(0.0334116 0.127296 0.00228319)
(0.0270126 0.136383 0.00258443)
(0.0214912 0.140586 0.00272607)
(0.0176162 0.141345 0.0027751)
(0.0157297 0.141619 0.00281655)
(0.0815364 0.101151 0.000155199)
(0.0436252 0.0928241 0.000636978)
(0.0416923 0.114272 0.00103044)
(0.0338879 0.127565 0.00140324)
(0.0273376 0.136532 0.0016874)
(0.0216774 0.140652 0.00187852)
(0.0176989 0.141377 0.00199471)
(0.0157467 0.141675 0.00207558)
(0.0820245 0.101519 7.0761e-05)
(0.0440002 0.0930909 0.000319396)
(0.0420625 0.114535 0.000538004)
(0.0341841 0.127779 0.000763212)
(0.0275492 0.136687 0.000953077)
(0.0218091 0.140753 0.00109574)
(0.0177704 0.141441 0.00119218)
(0.0157865 0.14173 0.00125924)
(0.0822437 0.101683 2.0552e-05)
(0.044172 0.0932136 9.75657e-05)
(0.0422349 0.114663 0.000167641)
(0.0343244 0.127893 0.000242553)
(0.0276518 0.136779 0.000308338)
(0.0218756 0.140818 0.000359762)
(0.0178094 0.141485 0.000395714)
(0.0158119 0.141762 0.000420931)
(-0.00653573 0.0370023 0.0396819)
(-0.0163601 -0.00139307 0.00786846)
(-0.014187 0.000343058 0.011876)
(-0.011675 -0.00327632 0.00760704)
(-0.00758126 -0.00379755 0.00539142)
(-0.00375674 -0.0035509 0.00324674)
(-0.000769426 -0.00239123 0.00185989)
(0.00110716 -0.000466374 0.000718401)
(-0.0138941 0.0158381 0.0102941)
(-0.0267499 0.00278909 0.00434939)
(-0.0220841 0.00394989 0.00404022)
(-0.017109 0.00250522 0.00300458)
(-0.0112146 0.00153687 0.00245672)
(-0.00605278 0.000789674 0.00201528)
(-0.00199109 0.00049266 0.0017584)
(0.000814178 0.000872963 0.00110475)
(-0.0152787 -0.015781 -0.00865393)
(-0.0271101 0.00790554 0.000267823)
(-0.0221769 0.00809564 -0.00086209)
(-0.0166941 0.00877368 3.68742e-05)
(-0.0107178 0.00726565 0.000658356)
(-0.00559414 0.00549294 0.00136261)
(-0.00163345 0.00388374 0.00196949)
(0.000980536 0.00271617 0.0028796)
(-0.010902 -0.0465893 -0.0340235)
(-0.0165916 0.0106497 -0.00387833)
(-0.0145214 0.010615 -0.00884537)
(-0.0105879 0.0137075 -0.00461775)
(-0.00616592 0.0118894 -0.0023163)
(-0.00240102 0.00933519 6.19025e-05)
(0.000227776 0.00653054 0.00181638)
(0.00155551 0.00400852 0.00323948)
(0.0515439 -0.094093 -0.00499206)
(0.0184367 -0.0926702 -0.0118336)
(0.0159918 -0.124081 -0.0127526)
(0.00610995 -0.138054 -0.00994823)
(-0.000604215 -0.146399 -0.00664093)
(-0.00558602 -0.148149 -0.00343123)
(-0.0082386 -0.146102 -0.0010817)
(-0.00853259 -0.142925 4.01231e-05)
(0.050611 -0.104733 -0.00356845)
(0.0226535 -0.0969261 -0.00842211)
(0.0158141 -0.122384 -0.00932169)
(0.00641038 -0.135779 -0.0080187)
(-0.000635595 -0.143633 -0.00622757)
(-0.00560492 -0.14588 -0.00437341)
(-0.00827806 -0.144704 -0.00298954)
(-0.00851126 -0.142673 -0.00234006)
(0.0529004 -0.111858 -0.00199697)
(0.024064 -0.0996075 -0.00479148)
(0.0171766 -0.122304 -0.00581759)
(0.00726396 -0.134884 -0.00569116)
(-0.00026914 -0.142272 -0.00498471)
(-0.00559578 -0.144631 -0.00414)
(-0.00853004 -0.143868 -0.00344254)
(-0.00911622 -0.14243 -0.0030772)
(0.0546272 -0.115932 -0.00106471)
(0.0252569 -0.101311 -0.0026637)
(0.0183647 -0.122972 -0.00349043)
(0.00812252 -0.134803 -0.0037691)
(0.000210124 -0.141836 -0.0036833)
(-0.00543403 -0.144121 -0.00343767)
(-0.00861225 -0.143479 -0.00318761)
(-0.00943881 -0.142302 -0.00304486)
(0.0557073 -0.11822 -0.000566287)
(0.026101 -0.102407 -0.00148013)
(0.0191939 -0.123652 -0.00207127)
(0.00874654 -0.135077 -0.00242425)
(0.000591968 -0.141855 -0.00257953)
(-0.00527838 -0.144015 -0.00260843)
(-0.00863621 -0.14336 -0.00257968)
(-0.00962146 -0.142261 -0.00255339)
(0.0563532 -0.119507 -0.000300763)
(0.0266488 -0.103087 -0.000817107)
(0.0197281 -0.124182 -0.00120404)
(0.00915044 -0.135409 -0.00149655)
(0.000845478 -0.142029 -0.00169115)
(-0.00516647 -0.144079 -0.00180288)
(-0.00863643 -0.143367 -0.00185589)
(-0.00970321 -0.14227 -0.00188043)
(0.056715 -0.120207 -0.000147891)
(0.0269706 -0.103482 -0.000413485)
(0.0200416 -0.12453 -0.000631177)
(0.00938675 -0.13567 -0.00081585)
(0.000994009 -0.142202 -0.000957151)
(-0.00509932 -0.144176 -0.00105295)
(-0.00863216 -0.143411 -0.00110895)
(-0.0097379 -0.142295 -0.00113998)
(0.0568771 -0.120517 -4.46973e-05)
(0.0271181 -0.103663 -0.000126809)
(0.0201854 -0.124701 -0.000197006)
(0.00949456 -0.135808 -0.000259518)
(0.00106119 -0.142302 -0.00030991)
(-0.00506897 -0.144238 -0.000345889)
(-0.0086296 -0.143444 -0.000367973)
(-0.0097526 -0.142312 -0.000381083)
(0.140864 -0.00911588 0.000279359)
(0.141113 -0.00903991 0.000602653)
(0.141315 -0.00849442 0.00053713)
(0.141437 -0.00814273 0.000440505)
(0.141513 -0.0079327 0.000271753)
(0.141575 -0.00784385 0.000131042)
(0.141623 -0.00781707 4.62484e-05)
(0.141649 -0.00781681 9.53902e-06)
(0.134838 -0.00873363 0.00122424)
(0.135517 -0.00870703 0.00102333)
(0.135834 -0.00859482 0.000761086)
(0.135946 -0.00848445 0.000532741)
(0.135952 -0.00841496 0.000329655)
(0.135937 -0.00838757 0.000178975)
(0.135928 -0.00838289 8.17148e-05)
(0.135926 -0.00838488 2.27612e-05)
(0.134326 -0.0119718 0.00235489)
(0.135 -0.0118179 0.00146131)
(0.135244 -0.0119307 0.000927696)
(0.135292 -0.0120522 0.000536233)
(0.13525 -0.0121584 0.000298477)
(0.135203 -0.0122358 0.000156097)
(0.135174 -0.0122861 7.27504e-05)
(0.135163 -0.0123103 2.08684e-05)
(0.139693 -0.0131164 0.00315358)
(0.139933 -0.0128544 0.00171739)
(0.139941 -0.0133353 0.000998368)
(0.139909 -0.0136855 0.000503158)
(0.139869 -0.0139433 0.000257342)
(0.139852 -0.0140979 0.000131683)
(0.139853 -0.0141838 6.41106e-05)
(0.139857 -0.014221 1.92501e-05)
)
;
        traction        nonuniform List<vector> 
192
(
(126.038 -11.4611 -3.7275)
(126.974 -10.997 -5.97174)
(126.858 -14.3283 -6.37649)
(126.636 -15.9224 -6.0761)
(126.28 -16.8074 -5.5202)
(125.688 -16.716 -4.80252)
(124.476 -15.7399 -3.96528)
(121.42 -13.9341 -2.94399)
(131.101 -13.1527 -2.47571)
(132.518 -11.9691 -4.01713)
(132.889 -14.9439 -4.38896)
(132.851 -16.459 -4.25546)
(132.399 -17.203 -3.90556)
(131.366 -16.9602 -3.40415)
(129.156 -15.7174 -2.79872)
(124.03 -13.5161 -2.10613)
(134.192 -14.1523 -1.64204)
(135.618 -12.5792 -2.61943)
(136.085 -15.3283 -2.89909)
(136.087 -16.7283 -2.89075)
(135.542 -17.341 -2.70641)
(134.211 -16.97 -2.40536)
(131.38 -15.5638 -2.01785)
(125.12 -13.1988 -1.57172)
(136.32 -14.7478 -1.12495)
(137.702 -12.9558 -1.77004)
(138.16 -15.6382 -1.96515)
(138.142 -16.9352 -1.99156)
(137.5 -17.4503 -1.90652)
(135.951 -16.9767 -1.73632)
(132.716 -15.4545 -1.49683)
(125.75 -12.9856 -1.20427)
(137.818 -15.1118 -0.771055)
(139.166 -13.2011 -1.20032)
(139.594 -15.8656 -1.33192)
(139.536 -17.1049 -1.36189)
(138.809 -17.5524 -1.32517)
(137.099 -17.0015 -1.23127)
(133.587 -15.3914 -1.08518)
(126.145 -12.8428 -0.892816)
(138.846 -15.3358 -0.50553)
(140.174 -13.3594 -0.781228)
(140.572 -16.0231 -0.865564)
(140.476 -17.2327 -0.889109)
(139.682 -17.6375 -0.87419)
(137.857 -17.0324 -0.823555)
(134.159 -15.3583 -0.736988)
(126.397 -12.7503 -0.615011)
(139.495 -15.467 -0.286374)
(140.811 -13.4549 -0.440287)
(141.189 -16.1225 -0.487316)
(141.064 -17.3176 -0.501943)
(140.224 -17.6976 -0.496676)
(138.326 -17.0582 -0.471913)
(134.51 -15.3417 -0.425374)
(126.548 -12.6954 -0.354903)
(139.8 -15.5257 -0.0921871)
(141.107 -13.4978 -0.141247)
(141.473 -16.1688 -0.156304)
(141.334 -17.3583 -0.161307)
(140.472 -17.7271 -0.160185)
(138.539 -17.0704 -0.152866)
(134.661 -15.3295 -0.137903)
(126.577 -12.6658 -0.113681)
(5.75441 -3.82721 105.216)
(9.23571 0.404592 102.13)
(9.68974 0.0690015 100.38)
(9.56432 0.3399 99.6163)
(9.11405 0.379063 99.3993)
(8.60107 0.429411 99.5376)
(8.13011 0.490214 99.9251)
(7.92538 0.539352 100.382)
(5.63922 -1.38961 100.225)
(9.18165 -0.0457784 98.7402)
(9.27282 -0.275727 97.5506)
(8.89135 -0.264519 96.8409)
(8.29488 -0.253481 96.4782)
(7.71584 -0.205318 96.3776)
(7.23464 -0.122776 96.4639)
(7.11092 -0.0541292 96.5351)
(5.56756 1.61523 95.085)
(9.06875 -0.621693 94.2653)
(9.19287 -0.746228 93.3127)
(8.79454 -0.952836 92.6386)
(8.19605 -0.927819 92.2492)
(7.61337 -0.833134 92.1079)
(7.11827 -0.686605 92.1948)
(6.95923 -0.497454 92.4479)
(5.38727 4.12595 88.223)
(8.50877 -0.783684 87.0546)
(8.94504 -0.988304 85.8321)
(8.70889 -1.46851 85.1074)
(8.24707 -1.48815 84.8607)
(7.75551 -1.39237 84.9553)
(7.30913 -1.23314 85.3985)
(7.11652 -1.0414 86.4245)
(-70.3619 6.94117 2.91475)
(-67.0923 6.82469 4.67361)
(-64.762 8.42853 4.97147)
(-63.5544 8.91779 4.81213)
(-63.0647 9.10541 4.53901)
(-63.1816 8.90758 4.20706)
(-63.6357 8.2444 3.85377)
(-64.5123 6.75091 3.37689)
(-69.4718 7.23966 1.59359)
(-68.142 6.79033 2.65775)
(-66.6983 8.19957 2.83065)
(-65.6082 8.74147 2.72656)
(-64.8676 8.8893 2.55924)
(-64.5261 8.63884 2.36055)
(-64.2476 7.84542 2.15773)
(-63.7947 5.97512 1.95905)
(-68.4891 7.45345 1.02777)
(-67.687 6.73258 1.74799)
(-66.5181 7.99352 1.91718)
(-65.477 8.51537 1.89935)
(-64.6479 8.63091 1.81078)
(-64.1175 8.35163 1.69264)
(-63.5189 7.49935 1.56195)
(-62.5643 5.49432 1.43665)
(-67.4268 7.555 0.742727)
(-66.7108 6.67897 1.2607)
(-65.5935 7.84263 1.40667)
(-64.5581 8.30252 1.42356)
(-63.693 8.37856 1.38307)
(-63.0888 8.06934 1.31247)
(-62.3501 7.17311 1.22406)
(-61.1853 5.08338 1.13161)
(-66.5603 7.58648 0.53117)
(-65.8643 6.63563 0.892764)
(-64.7547 7.74076 1.00239)
(-63.7126 8.15368 1.02656)
(-62.8267 8.19467 1.01022)
(-62.1854 7.85822 0.969446)
(-61.368 6.92652 0.911916)
(-60.0721 4.77166 0.847778)
(-65.9153 7.58617 0.358424)
(-65.2242 6.59935 0.597)
(-64.1112 7.67022 0.671405)
(-63.0606 8.05252 0.691813)
(-62.1616 8.06797 0.686104)
(-61.4999 7.71055 0.663425)
(-60.635 6.7521 0.627795)
(-59.2538 4.54981 0.585122)
(-65.4862 7.57691 0.206852)
(-64.7944 6.5727 0.342384)
(-63.6761 7.62402 0.384991)
(-62.6187 7.98801 0.397806)
(-61.7122 7.98737 0.396142)
(-61.039 7.6159 0.384992)
(-60.1454 6.63838 0.365052)
(-58.7198 4.40756 0.335458)
(-65.2782 7.57003 0.0671942)
(-64.587 6.55874 0.110852)
(-63.4675 7.60185 0.124558)
(-62.4076 7.95779 0.128829)
(-61.4985 7.95003 0.128506)
(-60.8172 7.57099 0.125293)
(-59.9063 6.5788 0.118684)
(-58.5102 4.34663 0.106057)
(-5.11269 -97.0192 -0.447071)
(-4.8896 -95.4523 -0.434299)
(-4.48529 -94.2995 -0.337124)
(-4.13134 -93.4041 -0.251794)
(-3.85831 -92.741 -0.178355)
(-3.66297 -92.2736 -0.119275)
(-3.53869 -91.9846 -0.0756935)
(-3.48926 -91.9104 -0.029011)
(-5.22997 -93.1821 0.308519)
(-5.3096 -92.0897 0.136165)
(-5.05814 -91.146 0.0955504)
(-4.79956 -90.3704 0.0767438)
(-4.58803 -89.7854 0.0600148)
(-4.43156 -89.3667 0.0433597)
(-4.3264 -89.092 0.0248265)
(-4.26633 -88.9494 0.00742254)
(-5.1596 -89.6856 0.534209)
(-5.24966 -88.7159 0.364766)
(-5.02448 -87.8672 0.282946)
(-4.78465 -87.148 0.229889)
(-4.58487 -86.5918 0.176293)
(-4.4358 -86.1874 0.124413)
(-4.33661 -85.9198 0.0746325)
(-4.2838 -85.7755 0.0251096)
(-5.09603 -84.5396 0.787175)
(-5.00106 -83.1804 0.578791)
(-4.69825 -82.1476 0.442407)
(-4.4112 -81.2764 0.354713)
(-4.18217 -80.5934 0.268984)
(-4.01532 -80.0935 0.187601)
(-3.90691 -79.7646 0.111282)
(-3.85424 -79.5963 0.0371636)
)
;
        pressure        uniform 0;
        value           nonuniform List<vector> 
192
(
(0.00163685 0.00144905 0.000877466)
(0.00341301 0.00276158 0.00101425)
(0.00629124 0.00395266 0.0010207)
(0.00953725 0.00470718 0.00089342)
(0.013102 0.00509999 0.000734281)
(0.0167791 0.00518448 0.000581523)
(0.0204426 0.00505366 0.000468851)
(0.0240186 0.00481416 0.000414066)
(0.0017412 0.00152818 0.000461012)
(0.00374194 0.00271002 0.00064492)
(0.00657207 0.00387944 0.000711299)
(0.00979413 0.0046285 0.000675972)
(0.0132955 0.00502604 0.000600966)
(0.0169109 0.0051231 0.000518897)
(0.0205233 0.00500765 0.00045608)
(0.024072 0.00478691 0.000427815)
(0.00183228 0.0015947 0.00024861)
(0.00390117 0.0027061 0.000391746)
(0.00676123 0.00382776 0.000467401)
(0.00997562 0.00455413 0.000482324)
(0.0134507 0.00494474 0.000463914)
(0.0170348 0.00504926 0.000434073)
(0.0206208 0.0049506 0.000409751)
(0.0241551 0.00475288 0.000401079)
(0.0018838 0.00163236 0.000136782)
(0.00398911 0.00271231 0.000238027)
(0.00687638 0.00380506 0.000303169)
(0.0100979 0.00450869 0.000334955)
(0.0135678 0.0048887 0.000345313)
(0.0171409 0.00499374 0.000344982)
(0.0207165 0.00490419 0.000343277)
(0.024245 0.00472049 0.000345791)
(0.00191235 0.00165323 7.63762e-05)
(0.00403879 0.00272027 0.000144574)
(0.00694583 0.00379815 0.000194518)
(0.0101783 0.00448689 0.000227093)
(0.0136521 0.00485742 0.000247214)
(0.0172246 0.00495972 0.00025935)
(0.0207981 0.00487325 0.000267713)
(0.0243252 0.00469625 0.000274737)
(0.00192845 0.00166493 4.22763e-05)
(0.00406728 0.00272724 8.56008e-05)
(0.00698773 0.00379832 0.000120253)
(0.0102299 0.00447869 0.000146336)
(0.01371 0.00484263 0.000165669)
(0.0172857 0.00494166 0.000179758)
(0.0208606 0.00485527 0.000190096)
(0.0243885 0.0046807 0.000197345)
(0.00193729 0.00167131 2.13648e-05)
(0.00408307 0.00273221 4.53411e-05)
(0.00701179 0.00380056 6.56146e-05)
(0.0102609 0.00447674 8.20701e-05)
(0.0137463 0.00483681 9.52651e-05)
(0.0173256 0.00493333 0.000105535)
(0.0209026 0.00484611 0.000113227)
(0.0244316 0.00467209 0.000118307)
(0.00194124 0.00167416 6.53684e-06)
(0.00409015 0.00273478 1.42089e-05)
(0.00702281 0.00380225 2.08732e-05)
(0.0102755 0.00447674 2.64648e-05)
(0.0137638 0.00483505 3.10927e-05)
(0.0173452 0.00493026 3.47841e-05)
(0.0209235 0.00484241 3.75683e-05)
(0.0244533 0.00466831 3.93662e-05)
(0.000651316 0.000844815 0.00132222)
(0.00278748 0.00166776 0.000978371)
(0.00564345 0.00253307 0.00103052)
(0.00900437 0.00304369 0.000876665)
(0.0126793 0.00329663 0.000724979)
(0.0164635 0.00333312 0.000581102)
(0.0202076 0.00322275 0.000478145)
(0.0238261 0.00303318 0.000421767)
(0.000127836 0.000231442 0.000374765)
(0.00213123 0.000358207 0.00041122)
(0.00501519 0.000540379 0.000427365)
(0.00845235 0.000544812 0.000425015)
(0.0121914 0.000428464 0.000414444)
(0.0160314 0.000226891 0.000400413)
(0.0198204 -2.00244e-05 0.000391169)
(0.0234571 -0.000276812 0.000384162)
(5.82536e-05 -0.000393496 -0.000431504)
(0.00200699 -0.000700729 -0.000356037)
(0.00485018 -0.00124883 -0.000236897)
(0.00825802 -0.00177638 -7.85256e-05)
(0.0119697 -0.00228935 6.91356e-05)
(0.0157883 -0.00275534 0.000194516)
(0.0195635 -0.00316113 0.00029389)
(0.0231913 -0.00350463 0.000378972)
(0.000433985 -0.00118875 -0.00143434)
(0.00238866 -0.00211137 -0.000980094)
(0.00511078 -0.00335781 -0.000867851)
(0.00837648 -0.00438185 -0.00054603)
(0.0119694 -0.00524293 -0.000251649)
(0.0156944 -0.00592159 6.59066e-06)
(0.0194038 -0.00644147 0.000203735)
(0.0230029 -0.00684128 0.000340778)
(0.00121456 -0.00178255 -0.00107144)
(0.00282651 -0.00340287 -0.00107953)
(0.00549219 -0.00504152 -0.000916691)
(0.0085852 -0.00627886 -0.000612661)
(0.0120389 -0.00722154 -0.000305707)
(0.0156546 -0.00789014 -3.70735e-05)
(0.019298 -0.00834937 0.000167509)
(0.0228768 -0.00867795 0.000300786)
(0.00132229 -0.00188266 -0.000633699)
(0.00317901 -0.0034702 -0.000724863)
(0.00577742 -0.00511046 -0.000643498)
(0.00883252 -0.00635454 -0.000453266)
(0.0122158 -0.00728682 -0.000245045)
(0.0157686 -0.00794655 -5.7474e-05)
(0.0193642 -0.00840165 8.82878e-05)
(0.0229215 -0.00873606 0.000184835)
(0.00140684 -0.00199127 -0.000372682)
(0.00335101 -0.00351953 -0.000452154)
(0.00597538 -0.00513449 -0.00041825)
(0.009016 -0.0063695 -0.000309663)
(0.0123688 -0.00729661 -0.000179202)
(0.0158877 -0.00795831 -5.69824e-05)
(0.0194557 -0.00842182 4.09913e-05)
(0.022996 -0.00877038 0.000106971)
(0.0014531 -0.00205762 -0.000218526)
(0.00344462 -0.00355355 -0.00027656)
(0.00609558 -0.00515101 -0.000262802)
(0.00914101 -0.00637439 -0.000201143)
(0.0124863 -0.00729758 -0.000122571)
(0.0159925 -0.00796133 -4.60332e-05)
(0.0195482 -0.00843175 1.70326e-05)
(0.0230801 -0.00879065 5.98272e-05)
(0.0014782 -0.00209599 -0.00012726)
(0.00349644 -0.00357623 -0.000166464)
(0.00616703 -0.0051645 -0.000161093)
(0.00922249 -0.00638039 -0.000125995)
(0.0125706 -0.00730033 -7.94273e-05)
(0.016075 -0.0079647 -3.2749e-05)
(0.0196271 -0.0084388 6.53297e-06)
(0.0231556 -0.00880359 3.31689e-05)
(0.00149216 -0.00211801 -7.20293e-05)
(0.00352557 -0.00359088 -9.66552e-05)
(0.00620928 -0.00517513 -9.47003e-05)
(0.009274 -0.00638708 -7.5055e-05)
(0.0126278 -0.0073049 -4.82766e-05)
(0.0161346 -0.00796906 -2.09362e-05)
(0.0196871 -0.00844464 2.36382e-06)
(0.0232149 -0.00881235 1.80281e-05)
(0.00149976 -0.00213011 -3.66855e-05)
(0.00354145 -0.00359969 -5.01025e-05)
(0.0062331 -0.00518244 -4.94767e-05)
(0.0093044 -0.00639261 -3.9502e-05)
(0.0126631 -0.00730926 -2.56759e-05)
(0.016173 -0.00797303 -1.14096e-05)
(0.019727 -0.00844903 8.24397e-07)
(0.0232551 -0.00881804 8.94664e-06)
(0.00150312 -0.00213552 -1.1234e-05)
(0.0035485 -0.00360384 -1.54813e-05)
(0.00624389 -0.00518616 -1.53471e-05)
(0.00931852 -0.00639568 -1.22925e-05)
(0.0126799 -0.00731181 -8.02419e-06)
(0.0161917 -0.00797533 -3.59895e-06)
(0.0197467 -0.0084514 2.05514e-07)
(0.0232751 -0.00882086 2.70479e-06)
(0.0255731 0.00292506 0.000416279)
(0.0256291 0.00290256 0.000402333)
(0.0257211 0.00287655 0.000364923)
(0.0258154 0.00284887 0.000309253)
(0.0258975 0.00282685 0.000242927)
(0.0259613 0.00281171 0.000173038)
(0.0260046 0.00280275 0.000103145)
(0.0260262 0.00279858 3.42238e-05)
(0.0251324 -0.000396895 0.000385655)
(0.0251989 -0.000433133 0.000344605)
(0.0252947 -0.000467638 0.000294116)
(0.0253894 -0.000495978 0.000239377)
(0.0254701 -0.000517 0.00018355)
(0.0255318 -0.000531145 0.000128933)
(0.0255732 -0.000539583 7.62827e-05)
(0.0255939 -0.000543467 2.52295e-05)
(0.0248581 -0.00368823 0.000372413)
(0.0249216 -0.00373756 0.000294038)
(0.0250139 -0.00377645 0.000228254)
(0.0251062 -0.00380408 0.000173066)
(0.0251851 -0.00382287 0.0001267)
(0.0252456 -0.00383508 8.6524e-05)
(0.0252861 -0.00384236 5.03961e-05)
(0.0253064 -0.00384574 1.6551e-05)
(0.0247296 -0.00705535 0.000339704)
(0.0247771 -0.00711333 0.000235553)
(0.0248592 -0.0071567 0.000157916)
(0.024947 -0.00718294 0.000104177)
(0.0250242 -0.00719961 6.8303e-05)
(0.0250844 -0.0072102 4.31795e-05)
(0.0251249 -0.00721665 2.39977e-05)
(0.0251452 -0.00721972 7.70896e-06)
)
;
    }
    symmetry
    {
        type            symmetryPlane;
    }
    bottom
    {
        type            fixedDisplacement;
        value           uniform (0 0 0);
    }
}


// ************************************************************************* //
