/*--------------------------------*- C++ -*----------------------------------*\
| =========                 |                                                 |
| \\      /  F ield         | foam-extend: Open Source CFD                    |
|  \\    /   O peration     | Version:     3.1                                |
|   \\  /    A nd           | Web:         http://www.extend-project.de       |
|    \\/     M anipulation  |                                                 |
\*---------------------------------------------------------------------------*/
FoamFile
{
    version     2.0;
    format      ascii;
    class       volVectorField;
    location    "0.9";
    object      D_0;
}
// * * * * * * * * * * * * * * * * * * * * * * * * * * * * * * * * * * * * * //

dimensions      [0 1 0 0 0 0 0];

internalField   nonuniform List<vector> 
256
(
(0.000739493 0.000337814 0.000830273)
(0.000315089 1.05168e-05 0.000274363)
(0.00025148 -0.00020068 -0.000263792)
(0.000534854 -0.000580303 -0.000911439)
(0.00290032 0.00155069 0.000917515)
(0.00239127 0.000268343 0.000429571)
(0.00226499 -0.000778927 -0.000242652)
(0.0024874 -0.00212959 -0.000780851)
(0.00557009 0.00231363 0.000951395)
(0.00506334 0.000407705 0.000476269)
(0.00489791 -0.00130718 -8.76021e-05)
(0.00504143 -0.0033023 -0.000585455)
(0.00868023 0.00280866 0.000880968)
(0.00822302 0.000414947 0.000506769)
(0.00802799 -0.00181447 6.90568e-05)
(0.00805829 -0.00429122 -0.000316479)
(0.0120414 0.00302832 0.000784942)
(0.0116284 0.000307522 0.000518555)
(0.0114102 -0.00227644 0.000211235)
(0.0113495 -0.00506281 -6.09968e-05)
(0.0154883 0.00304136 0.000693092)
(0.0151153 0.000122035 0.000522971)
(0.01488 -0.00268706 0.000327276)
(0.0147495 -0.00565183 0.000153936)
(0.0188939 0.00291122 0.000628813)
(0.0185524 -0.000108051 0.000528334)
(0.0183069 -0.00304146 0.000418387)
(0.0181311 -0.00608985 0.000317081)
(0.0221869 0.00270254 0.000603681)
(0.0218538 -0.000354063 0.000540259)
(0.0216034 -0.00334346 0.000493311)
(0.021415 -0.00642226 0.000430109)
(0.00082215 0.000319621 0.00043835)
(0.000430988 -8.06205e-06 0.000149238)
(0.000381826 -0.000205455 -0.000165245)
(0.000655193 -0.000559673 -0.000529555)
(0.0031589 0.00146115 0.000593959)
(0.00258933 0.00019558 0.00027464)
(0.00247285 -0.000823669 -0.000156034)
(0.00276868 -0.00216013 -0.000512559)
(0.00584341 0.00224451 0.000672941)
(0.005331 0.000325938 0.000345067)
(0.00516751 -0.00139762 -4.9839e-05)
(0.00531596 -0.00340219 -0.000397705)
(0.0089302 0.00274422 0.000671503)
(0.00846777 0.000335125 0.000393206)
(0.00826987 -0.00191176 7.0354e-05)
(0.00829657 -0.00440251 -0.000218262)
(0.0122412 0.00297532 0.000636542)
(0.011828 0.000237663 0.00042299)
(0.0116042 -0.00236779 0.00018193)
(0.0115315 -0.0051694 -3.63422e-05)
(0.0156342 0.0029971 0.000595513)
(0.0152632 6.25595e-05 0.000442675)
(0.0150222 -0.00276634 0.000275186)
(0.0148781 -0.00574479 0.000120681)
(0.0189956 0.00287292 0.000567052)
(0.0186581 -0.000159986 0.000459822)
(0.0184084 -0.0031099 0.000349507)
(0.0182204 -0.00617022 0.000242731)
(0.0222657 0.00266845 0.000560815)
(0.0219366 -0.000401258 0.000480434)
(0.0216836 -0.0034061 0.000409165)
(0.021487 -0.00649641 0.000330022)
(0.000865012 0.000333204 0.000242564)
(0.000461003 -7.74568e-06 8.4177e-05)
(0.000416471 -0.000213165 -0.000101381)
(0.000711656 -0.000580262 -0.000310469)
(0.00329199 0.00142824 0.00037831)
(0.00268527 0.000163013 0.000176588)
(0.00257517 -0.000843863 -9.17673e-05)
(0.0029182 -0.00218322 -0.000318552)
(0.00601553 0.00218848 0.000463068)
(0.00547501 0.000275828 0.000244803)
(0.00531367 -0.00143764 -1.85435e-05)
(0.00549289 -0.00343726 -0.000251946)
(0.00910625 0.0026746 0.000495655)
(0.00862648 0.000275978 0.000297316)
(0.00842781 -0.00196093 6.95058e-05)
(0.00846992 -0.00444081 -0.000136869)
(0.0124023 0.00290435 0.000500709)
(0.0119793 0.000177536 0.000335699)
(0.0117532 -0.00241975 0.000153711)
(0.0116863 -0.00520987 -1.46459e-05)
(0.0157726 0.00293213 0.000495503)
(0.0153975 5.83504e-06 0.000364383)
(0.0151539 -0.00281776 0.000226118)
(0.0150096 -0.00578717 9.44612e-05)
(0.019114 0.00281862 0.000492932)
(0.0187764 -0.000211632 0.000388403)
(0.0185245 -0.00316036 0.000284957)
(0.0183329 -0.00621692 0.000181689)
(0.0223755 0.00262656 0.000499588)
(0.0220487 -0.000448001 0.000411782)
(0.0217937 -0.00345697 0.000331545)
(0.021591 -0.00655039 0.000245606)
(0.000885629 0.000342289 0.000138618)
(0.000468751 -6.87544e-06 4.90706e-05)
(0.000425663 -0.000217695 -6.0991e-05)
(0.000737398 -0.000595844 -0.000182039)
(0.00336284 0.00141765 0.000242095)
(0.00273318 0.000148234 0.000115791)
(0.00262636 -0.000854068 -5.1112e-05)
(0.00299768 -0.00220047 -0.000193289)
(0.00611828 0.00215639 0.000315808)
(0.00555804 0.000247259 0.000172918)
(0.00539844 -0.00145738 2.02587e-07)
(0.00559999 -0.00345409 -0.000153052)
(0.00922425 0.00262682 0.000358469)
(0.00873065 0.000237315 0.000221012)
(0.00853221 -0.0019879 6.36782e-05)
(0.00858858 -0.00445856 -7.96339e-05)
(0.0125232 0.00284937 0.000382225)
(0.0120916 0.000133721 0.000259542)
(0.0118649 -0.00245149 0.000125889)
(0.0118057 -0.00523031 7.53942e-07)
(0.0158894 0.00287765 0.000396142)
(0.0155101 -3.88659e-05 0.000290233)
(0.0152655 -0.00285258 0.00018064)
(0.015124 -0.00581208 7.45853e-05)
(0.0192256 0.00277028 0.000407705)
(0.018887 -0.000254497 0.000315648)
(0.018634 -0.00319747 0.000225853)
(0.0184416 -0.00624812 0.000135179)
(0.0224857 0.00258676 0.000420597)
(0.0221598 -0.000488 0.000337808)
(0.0219034 -0.00349641 0.000261325)
(0.0216974 -0.00658902 0.000180476)
(0.000896206 0.000347568 8.08444e-05)
(0.000470553 -6.27356e-06 2.93262e-05)
(0.000427934 -0.000220462 -3.58151e-05)
(0.000750261 -0.000605788 -0.000106037)
(0.00340253 0.00141526 0.000154648)
(0.00275833 0.000141585 7.62619e-05)
(0.00265307 -0.000859669 -2.68391e-05)
(0.00304163 -0.00221293 -0.000114858)
(0.00618094 0.00214104 0.000212296)
(0.0056079 0.000231875 0.000120196)
(0.00544933 -0.00146829 8.86224e-06)
(0.00566513 -0.00346601 -8.9866e-05)
(0.00930309 0.00259944 0.000252318)
(0.00879986 0.000213871 0.000159515)
(0.00860176 -0.00200398 5.35596e-05)
(0.00866813 -0.00447097 -4.31951e-05)
(0.0126113 0.00281428 0.000280457)
(0.0121734 0.000104717 0.000192864)
(0.0119465 -0.00247202 9.81238e-05)
(0.0118933 -0.00524481 8.82673e-06)
(0.0159816 0.00284011 0.000300926)
(0.0155989 -7.04908e-05 0.00022047)
(0.0153538 -0.00287667 0.000138014)
(0.015215 -0.0058302 5.75581e-05)
(0.0193197 0.00273473 0.000317401)
(0.0189797 -0.000286376 0.000243249)
(0.018726 -0.00322434 0.000171307)
(0.0185336 -0.00627101 9.836e-05)
(0.0225819 0.00255556 0.000331387)
(0.0222556 -0.000518868 0.000261797)
(0.0219982 -0.00352568 0.000197186)
(0.0217903 -0.00661728 0.000129284)
(0.00090204 0.000350664 4.66445e-05)
(0.000470876 -5.90172e-06 1.73855e-05)
(0.000428428 -0.000222168 -2.01523e-05)
(0.000757281 -0.000611936 -6.00057e-05)
(0.00342557 0.00141589 9.55321e-05)
(0.00277227 0.000138717 4.8522e-05)
(0.00266776 -0.000862978 -1.3048e-05)
(0.00306674 -0.00222172 -6.56123e-05)
(0.00621957 0.0021348 0.000136252)
(0.00563841 0.000223981 7.9312e-05)
(0.00548037 -0.00147479 1.05854e-05)
(0.00570492 -0.00347521 -5.03258e-05)
(0.00935497 0.00258554 0.000167452)
(0.00884541 0.000200493 0.000107993)
(0.0086475 -0.00201403 4.02927e-05)
(0.00872023 -0.00448093 -2.16316e-05)
(0.0126728 0.0027944 0.000191692)
(0.0122306 8.68857e-05 0.000133201)
(0.0120036 -0.00248549 7.02449e-05)
(0.0119544 -0.00525636 1.06646e-05)
(0.0160496 0.0028172 0.000210679)
(0.0156642 -9.10469e-05 0.000154565)
(0.0154188 -0.00289305 9.73587e-05)
(0.0152818 -0.00584416 4.12974e-05)
(0.0193918 0.00271165 0.000225912)
(0.0190504 -0.000307998 0.000172166)
(0.0187961 -0.00324305 0.000120124)
(0.0186038 -0.00628798 6.72899e-05)
(0.022657 0.00253415 0.000237622)
(0.0223298 -0.000540498 0.000185852)
(0.0220715 -0.00354632 0.000137669)
(0.0218626 -0.00663763 8.71823e-05)
(0.000905279 0.000352409 2.43431e-05)
(0.000470912 -5.68905e-06 9.29107e-06)
(0.00042854 -0.000223162 -1.01338e-05)
(0.000761161 -0.000615497 -3.05512e-05)
(0.00343861 0.00141719 5.21502e-05)
(0.00278 0.000137575 2.70972e-05)
(0.00267585 -0.000864915 -5.59274e-06)
(0.0030808 -0.00222741 -3.34893e-05)
(0.0062423 0.00213283 7.62783e-05)
(0.00565631 0.00022019 4.5275e-05)
(0.0054985 -0.00147859 7.93589e-06)
(0.0057281 -0.00348163 -2.51555e-05)
(0.00938676 0.00257928 9.57921e-05)
(0.00887335 0.000193437 6.26209e-05)
(0.00867551 -0.00202007 2.49501e-05)
(0.00875192 -0.00448816 -9.55268e-06)
(0.012712 0.00278434 0.000111716)
(0.012267 7.68934e-05 7.81868e-05)
(0.01204 -0.00249376 4.22188e-05)
(0.011993 -0.00526469 8.09305e-06)
(0.0160943 0.00280473 0.000124621)
(0.015707 -0.000103083 9.15595e-05)
(0.0154615 -0.0029033 5.79552e-05)
(0.0153255 -0.00585393 2.49478e-05)
(0.0194403 0.0026984 0.000134978)
(0.0190977 -0.000321085 0.000102566)
(0.018843 -0.00325488 7.1205e-05)
(0.0186508 -0.00629944 3.93587e-05)
(0.0227081 0.00252127 0.000142563)
(0.0223799 -0.000553937 0.000110875)
(0.0221209 -0.00355945 8.13462e-05)
(0.0219114 -0.00665101 5.04525e-05)
(0.000906748 0.000353204 7.57795e-06)
(0.000470914 -5.59187e-06 2.93247e-06)
(0.000428575 -0.000223621 -3.07219e-06)
(0.00076292 -0.000617133 -9.35288e-06)
(0.00344458 0.00141806 1.65973e-05)
(0.00278352 0.000137197 8.73012e-06)
(0.00267952 -0.000865827 -1.51185e-06)
(0.00308717 -0.00223021 -1.02496e-05)
(0.00625289 0.00213243 2.45803e-05)
(0.00566467 0.000218688 1.47358e-05)
(0.00550694 -0.00148038 2.8978e-06)
(0.00573884 -0.00348494 -7.59507e-06)
(0.00940192 0.002577 3.1195e-05)
(0.0088867 0.000190434 2.05318e-05)
(0.00868886 -0.00202292 8.44154e-06)
(0.00876696 -0.00449196 -2.64084e-06)
(0.0127311 0.00278024 3.67071e-05)
(0.0122848 7.24584e-05 2.57832e-05)
(0.0120577 -0.00249772 1.40855e-05)
(0.0120117 -0.00526907 2.97282e-06)
(0.0161164 0.00279937 4.12376e-05)
(0.0157283 -0.000108582 3.03228e-05)
(0.0154825 -0.00290823 1.92443e-05)
(0.015347 -0.00585898 8.35149e-06)
(0.0194646 0.00269246 4.48744e-05)
(0.0191214 -0.000327197 3.40568e-05)
(0.0188664 -0.0032606 2.35923e-05)
(0.0186742 -0.00630524 1.29657e-05)
(0.0227338 0.00251528 4.74825e-05)
(0.022405 -0.000560324 3.68354e-05)
(0.0221457 -0.00356583 2.69072e-05)
(0.0219359 -0.00665766 1.65269e-05)
)
;

boundaryField
{
    interface
    {
        type            tractionDisplacement;
        gradient        nonuniform List<vector> 
192
(
(0.0012504 8.90088e-08 -6.27537e-06)
(0.00125106 2.32615e-07 -7.48491e-06)
(0.0012496 5.25483e-07 -7.47543e-06)
(0.00124673 8.45864e-07 -7.27339e-06)
(0.00124237 1.23213e-06 -6.95727e-06)
(0.00123606 1.75972e-06 -6.48764e-06)
(0.00122701 2.65546e-06 -5.77696e-06)
(0.00121237 4.4017e-06 -4.57372e-06)
(0.00127836 1.58951e-07 -4.18175e-06)
(0.00127813 3.40733e-07 -4.98588e-06)
(0.00127606 6.81215e-07 -4.94782e-06)
(0.00127234 1.07974e-06 -4.77587e-06)
(0.0012667 1.57845e-06 -4.5173e-06)
(0.00125852 2.26978e-06 -4.14438e-06)
(0.00124668 3.43378e-06 -3.60938e-06)
(0.00122774 5.61186e-06 -2.83028e-06)
(0.0012969 2.0556e-07 -2.92788e-06)
(0.00129628 4.22773e-07 -3.50022e-06)
(0.00129375 8.10625e-07 -3.4639e-06)
(0.00128935 1.27314e-06 -3.32432e-06)
(0.00128271 1.85533e-06 -3.11929e-06)
(0.00127309 2.65704e-06 -2.83373e-06)
(0.00125927 3.97152e-06 -2.44508e-06)
(0.00123752 6.33252e-06 -1.9299e-06)
(0.00131022 2.36666e-07 -2.12187e-06)
(0.00130939 4.82114e-07 -2.53952e-06)
(0.00130652 9.12912e-07 -2.50899e-06)
(0.00130157 1.426e-06 -2.39958e-06)
(0.00129415 2.06871e-06 -2.2415e-06)
(0.00128345 2.94405e-06 -2.02736e-06)
(0.00126819 4.35007e-06 -1.74696e-06)
(0.00124452 6.81512e-06 -1.39307e-06)
(0.00131978 2.59652e-07 -1.51365e-06)
(0.00131882 5.26652e-07 -1.81147e-06)
(0.00131569 9.91037e-07 -1.78752e-06)
(0.00131032 1.54199e-06 -1.7059e-06)
(0.0013023 2.22756e-06 -1.58946e-06)
(0.00129082 3.15197e-06 -1.43486e-06)
(0.00127453 4.6157e-06 -1.23756e-06)
(0.00124954 7.14639e-06 -9.95544e-07)
(0.00132642 2.76131e-07 -1.01788e-06)
(0.00132536 5.58719e-07 -1.21811e-06)
(0.00132204 1.04754e-06 -1.20117e-06)
(0.00131638 1.62535e-06 -1.14496e-06)
(0.00130794 2.34023e-06 -1.06545e-06)
(0.0012959 3.29691e-06 -9.61283e-07)
(0.00127891 4.79762e-06 -8.30326e-07)
(0.00125304 7.37104e-06 -6.71486e-07)
(0.00133063 2.87035e-07 -5.86262e-07)
(0.00132951 5.79709e-07 -7.01327e-07)
(0.00132607 1.08477e-06 -6.91544e-07)
(0.00132021 1.68017e-06 -6.58841e-07)
(0.00131151 2.41383e-06 -6.12817e-07)
(0.00129912 3.39091e-06 -5.5309e-07)
(0.00128169 4.9157e-06 -4.77739e-07)
(0.00125526 7.51474e-06 -3.82182e-07)
(0.00133265 2.92824e-07 -1.90632e-07)
(0.00133149 5.90077e-07 -2.27698e-07)
(0.001328 1.10224e-06 -2.24725e-07)
(0.00132205 1.70638e-06 -2.14081e-07)
(0.00131322 2.44881e-06 -1.99112e-07)
(0.00130067 3.43614e-06 -1.79825e-07)
(0.00128303 4.97701e-06 -1.55001e-07)
(0.00125626 7.58408e-06 -1.20792e-07)
(1.09308e-05 7.23725e-08 0.00114973)
(1.30776e-05 1.27851e-07 0.00114889)
(1.31548e-05 1.98457e-07 0.00114824)
(1.29808e-05 2.92527e-07 0.0011473)
(1.2715e-05 4.04896e-07 0.00114595)
(1.23458e-05 5.36693e-07 0.00114413)
(1.18492e-05 6.86119e-07 0.00114175)
(1.13079e-05 8.03277e-07 0.00113874)
(1.00547e-05 2.11513e-08 0.0010997)
(1.20342e-05 3.77271e-08 0.00109949)
(1.21003e-05 5.67502e-08 0.0010993)
(1.19489e-05 8.24212e-08 0.00109902)
(1.17254e-05 1.12105e-07 0.00109863)
(1.14243e-05 1.44074e-07 0.00109811)
(1.10382e-05 1.71046e-07 0.00109746)
(1.0708e-05 1.6209e-07 0.00109671)
(1.00418e-05 -2.70428e-08 0.00105277)
(1.20188e-05 -4.56996e-08 0.00105298)
(1.20844e-05 -6.9588e-08 0.00105321)
(1.1933e-05 -1.00411e-07 0.00105354)
(1.171e-05 -1.3707e-07 0.001054)
(1.141e-05 -1.80176e-07 0.00105463)
(1.10258e-05 -2.2871e-07 0.00105544)
(1.06983e-05 -2.6355e-07 0.00105648)
(1.09054e-05 -8.04064e-08 0.00100291)
(1.30452e-05 -1.36982e-07 0.00100376)
(1.312e-05 -2.11694e-07 0.00100444)
(1.29457e-05 -3.09713e-07 0.00100544)
(1.26804e-05 -4.27843e-07 0.00100685)
(1.23126e-05 -5.69225e-07 0.00100876)
(1.18188e-05 -7.38586e-07 0.00101129)
(1.12818e-05 -8.99354e-07 0.00101456)
(-0.000903606 -9.63547e-08 6.85177e-06)
(-0.000902881 -2.51564e-07 8.12936e-06)
(-0.000904348 -5.72774e-07 8.11249e-06)
(-0.00090722 -9.20022e-07 7.89131e-06)
(-0.000911576 -1.33875e-06 7.54482e-06)
(-0.000917854 -1.91504e-06 7.02877e-06)
(-0.00092686 -2.91625e-06 6.2435e-06)
(-0.00094155 -4.95238e-06 4.89368e-06)
(-0.000876477 -1.72336e-07 4.42126e-06)
(-0.000876696 -3.68407e-07 5.23941e-06)
(-0.000878763 -7.40343e-07 5.19106e-06)
(-0.000882477 -1.17274e-06 5.00456e-06)
(-0.000888098 -1.71422e-06 4.72407e-06)
(-0.000896245 -2.4707e-06 4.31857e-06)
(-0.000908024 -3.77243e-06 3.7342e-06)
(-0.000927051 -6.30466e-06 2.87503e-06)
(-0.000858904 -2.23527e-07 3.02815e-06)
(-0.000859518 -4.57468e-07 3.59773e-06)
(-0.000862036 -8.80012e-07 3.55226e-06)
(-0.00086643 -1.38156e-06 3.40144e-06)
(-0.000873045 -2.0136e-06 3.18024e-06)
(-0.000882602 -2.89053e-06 2.87178e-06)
(-0.000896351 -4.35875e-06 2.45083e-06)
(-0.000918167 -7.09737e-06 1.88924e-06)
(-0.00084644 -2.57774e-07 2.16159e-06)
(-0.000847264 -5.21851e-07 2.57079e-06)
(-0.000850126 -9.90306e-07 2.53274e-06)
(-0.00085506 -1.54618e-06 2.41474e-06)
(-0.000862449 -2.24345e-06 2.24466e-06)
(-0.000873069 -3.20009e-06 2.01421e-06)
(-0.000888236 -4.76849e-06 1.71208e-06)
(-0.000911949 -7.62329e-06 1.32891e-06)
(-0.000837595 -2.83051e-07 1.52365e-06)
(-0.00083856 -5.70096e-07 1.81175e-06)
(-0.000841682 -1.07445e-06 1.78199e-06)
(-0.000847026 -1.67087e-06 1.69407e-06)
(-0.000854997 -2.41412e-06 1.56902e-06)
(-0.000866396 -3.42352e-06 1.40308e-06)
(-0.00088257 -5.05455e-06 1.19126e-06)
(-0.000907581 -7.98206e-06 9.30362e-07)
(-0.000831511 -3.01135e-07 1.01526e-06)
(-0.000832571 -6.04765e-07 1.20705e-06)
(-0.000835879 -1.13523e-06 1.18601e-06)
(-0.000841519 -1.76034e-06 1.1255e-06)
(-0.000849902 -2.53489e-06 1.04024e-06)
(-0.000861845 -3.57878e-06 9.28656e-07)
(-0.000878708 -5.24964e-06 7.88457e-07)
(-0.000904589 -8.22417e-06 6.17775e-07)
(-0.000827684 -3.13066e-07 5.81157e-07)
(-0.000828802 -6.27424e-07 6.90621e-07)
(-0.00083223 -1.17521e-06 6.7841e-07)
(-0.000838059 -1.81904e-06 6.43226e-07)
(-0.000846706 -2.61357e-06 5.93914e-07)
(-0.000858993 -3.67914e-06 5.30029e-07)
(-0.000876286 -5.37574e-06 4.49542e-07)
(-0.000902707 -8.37837e-06 3.46949e-07)
(-0.000825854 -3.19376e-07 1.88378e-07)
(-0.000827006 -6.38536e-07 2.23531e-07)
(-0.000830489 -1.19398e-06 2.19753e-07)
(-0.000836409 -1.8471e-06 2.083e-07)
(-0.000845182 -2.65092e-06 1.92268e-07)
(-0.000857629 -3.72725e-06 1.71653e-07)
(-0.000875121 -5.44102e-06 1.45178e-07)
(-0.000901879 -8.45211e-06 1.08378e-07)
(1.13077e-05 -0.00113956 -9.86196e-07)
(1.18661e-05 -0.00114323 -8.3836e-07)
(1.23873e-05 -0.00114616 -6.69958e-07)
(1.27835e-05 -0.00114847 -5.21832e-07)
(1.30767e-05 -0.00115024 -3.91006e-07)
(1.32868e-05 -0.00115152 -2.72808e-07)
(1.34306e-05 -0.00115236 -1.66012e-07)
(1.35055e-05 -0.00115283 -5.78898e-08)
(1.07333e-05 -0.00109747 -3.23353e-07)
(1.10861e-05 -0.00109878 -2.9851e-07)
(1.14951e-05 -0.00109989 -2.50886e-07)
(1.18192e-05 -0.0011008 -2.02547e-07)
(1.20647e-05 -0.00110151 -1.55909e-07)
(1.22434e-05 -0.00110204 -1.10734e-07)
(1.23687e-05 -0.0011024 -6.67961e-08)
(1.24387e-05 -0.00110257 -2.25708e-08)
(1.07338e-05 -0.00105712 1.29308e-07)
(1.10872e-05 -0.00105654 1.24779e-07)
(1.1494e-05 -0.00105609 9.54584e-08)
(1.18153e-05 -0.00105577 6.74789e-08)
(1.20582e-05 -0.00105555 4.5425e-08)
(1.22347e-05 -0.00105541 2.87838e-08)
(1.23586e-05 -0.00105532 1.65634e-08)
(1.24277e-05 -0.00105528 5.73912e-09)
(1.13263e-05 -0.00101504 7.95589e-07)
(1.18919e-05 -0.00101212 6.58727e-07)
(1.24086e-05 -0.00100987 5.05786e-07)
(1.27978e-05 -0.00100817 3.78169e-07)
(1.3084e-05 -0.00100692 2.73189e-07)
(1.32882e-05 -0.00100604 1.85436e-07)
(1.34278e-05 -0.00100548 1.12584e-07)
(1.35008e-05 -0.00100515 4.00141e-08)
)
;
        traction        nonuniform List<vector> 
192
(
(26.7942 0.00190733 -0.134472)
(26.8085 0.00498462 -0.160391)
(26.7772 0.0112604 -0.160188)
(26.7157 0.0181257 -0.155858)
(26.6222 0.0264028 -0.149084)
(26.487 0.0377082 -0.139021)
(26.293 0.0569026 -0.123792)
(25.9793 0.0943222 -0.0980083)
(27.3935 0.0034061 -0.0896089)
(27.3884 0.00730142 -0.10684)
(27.3441 0.0145975 -0.106025)
(27.2645 0.0231373 -0.10234)
(27.1437 0.033824 -0.0967993)
(26.9683 0.0486382 -0.0888082)
(26.7147 0.0735809 -0.077344)
(26.3087 0.120254 -0.0606489)
(27.7907 0.00440487 -0.0627403)
(27.7773 0.00905942 -0.0750048)
(27.7233 0.0173705 -0.0742265)
(27.6289 0.0272816 -0.0712353)
(27.4865 0.039757 -0.066842)
(27.2806 0.0569365 -0.0607228)
(26.9843 0.085104 -0.0523946)
(26.5182 0.135697 -0.0413549)
(28.0762 0.00507141 -0.0454687)
(28.0584 0.010331 -0.0544183)
(27.997 0.0195624 -0.0537641)
(27.8909 0.0305572 -0.0514196)
(27.7317 0.0443295 -0.0480322)
(27.5026 0.0630869 -0.0434433)
(27.1755 0.0932158 -0.0374349)
(26.6683 0.146038 -0.0298516)
(28.2811 0.00556398 -0.0324353)
(28.2603 0.0112854 -0.0388172)
(28.1933 0.0212365 -0.038304)
(28.0783 0.0330426 -0.0365551)
(27.9065 0.0477333 -0.0340599)
(27.6604 0.0675421 -0.0307469)
(27.3113 0.0989078 -0.0265191)
(26.7759 0.153137 -0.0213331)
(28.4234 0.00591708 -0.0218117)
(28.4006 0.0119725 -0.0261023)
(28.3295 0.0224473 -0.0257394)
(28.2081 0.034829 -0.0245348)
(28.0273 0.0501478 -0.0228311)
(27.7694 0.0706481 -0.0205989)
(27.4052 0.102806 -0.0177927)
(26.8508 0.157951 -0.014389)
(28.5135 0.00615074 -0.0125628)
(28.4894 0.0124223 -0.0150284)
(28.4158 0.023245 -0.0148188)
(28.2903 0.0360036 -0.014118)
(28.1037 0.0517248 -0.0131318)
(27.8383 0.0726623 -0.0118519)
(27.4647 0.105336 -0.0102373)
(26.8984 0.16103 -0.00818961)
(28.5567 0.00627479 -0.00408497)
(28.532 0.0126445 -0.00487923)
(28.4571 0.0236193 -0.00481554)
(28.3296 0.0365652 -0.00458744)
(28.1404 0.0524745 -0.00426669)
(27.8714 0.0736316 -0.00385339)
(27.4935 0.10665 -0.00332146)
(26.9199 0.162516 -0.00258841)
(0.234232 0.00155084 24.637)
(0.280235 0.00273965 24.6191)
(0.281888 0.00425265 24.6052)
(0.278159 0.00626843 24.5849)
(0.272465 0.00867633 24.5561)
(0.264553 0.0115006 24.5171)
(0.253912 0.0147025 24.4661)
(0.242312 0.0172131 24.4015)
(0.215458 0.000453242 23.565)
(0.257875 0.000808438 23.5605)
(0.259292 0.00121608 23.5564)
(0.256048 0.00176617 23.5504)
(0.251258 0.00240225 23.542)
(0.244806 0.00308729 23.5309)
(0.236532 0.00366528 23.517)
(0.229457 0.00347336 23.5009)
(0.215181 -0.00057949 22.5593)
(0.257546 -0.000979277 22.564)
(0.258951 -0.00149117 22.5688)
(0.255708 -0.00215167 22.5758)
(0.250929 -0.00293722 22.5858)
(0.244501 -0.00386092 22.5992)
(0.236268 -0.00490093 22.6167)
(0.22925 -0.00564749 22.6389)
(0.233687 -0.00172299 21.4909)
(0.279539 -0.00293532 21.5091)
(0.281144 -0.00453631 21.5238)
(0.277407 -0.00663671 21.5451)
(0.271722 -0.00916805 21.5754)
(0.263841 -0.0121977 21.6164)
(0.253261 -0.0158268 21.6704)
(0.241752 -0.0192719 21.7405)
(-19.363 -0.00206474 0.146824)
(-19.3475 -0.00539066 0.174201)
(-19.3789 -0.0122737 0.173839)
(-19.4404 -0.0197148 0.1691)
(-19.5338 -0.0286875 0.161675)
(-19.6683 -0.0410367 0.150616)
(-19.8613 -0.0624911 0.133789)
(-20.1761 -0.106122 0.104865)
(-18.7816 -0.00369291 0.0947413)
(-18.7863 -0.00789443 0.112273)
(-18.8306 -0.0158645 0.111237)
(-18.9102 -0.0251302 0.107241)
(-19.0307 -0.0367334 0.10123)
(-19.2052 -0.0529437 0.0925409)
(-19.4577 -0.0808377 0.0800185)
(-19.8654 -0.1351 0.0616077)
(-18.4051 -0.00478987 0.064889)
(-18.4182 -0.00980289 0.0770943)
(-18.4722 -0.0188574 0.0761199)
(-18.5664 -0.0296049 0.0728881)
(-18.7081 -0.0431486 0.0681481)
(-18.9129 -0.06194 0.0615382)
(-19.2075 -0.0934018 0.0525179)
(-19.675 -0.152086 0.0404836)
(-18.138 -0.00552373 0.0463197)
(-18.1556 -0.0111825 0.0550883)
(-18.217 -0.0212208 0.054273)
(-18.3227 -0.0331325 0.0517444)
(-18.481 -0.048074 0.0480998)
(-18.7086 -0.0685733 0.0431617)
(-19.0336 -0.102182 0.0366875)
(-19.5418 -0.163356 0.0284766)
(-17.9485 -0.00606538 0.0326497)
(-17.9691 -0.0122163 0.0388231)
(-18.036 -0.023024 0.0381856)
(-18.1506 -0.0358044 0.0363015)
(-18.3214 -0.0517312 0.0336219)
(-18.5656 -0.0733611 0.0300661)
(-18.9122 -0.108312 0.0255271)
(-19.4482 -0.171044 0.0199363)
(-17.8181 -0.00645288 0.0217555)
(-17.8408 -0.0129593 0.0258653)
(-17.9117 -0.0243264 0.0254145)
(-18.0325 -0.0377215 0.0241178)
(-18.2122 -0.0543192 0.0222908)
(-18.4681 -0.0766882 0.0198998)
(-18.8294 -0.112492 0.0168955)
(-19.3841 -0.176232 0.013238)
(-17.7361 -0.00670857 0.0124534)
(-17.7601 -0.0134448 0.014799)
(-17.8335 -0.0251831 0.0145374)
(-17.9584 -0.0389794 0.0137834)
(-18.1437 -0.0560052 0.0127267)
(-18.407 -0.0788387 0.0113578)
(-18.7775 -0.115194 0.00963305)
(-19.3437 -0.179537 0.00743463)
(-17.6969 -0.00684377 0.00403667)
(-17.7216 -0.0136829 0.00478996)
(-17.7962 -0.0255853 0.00470898)
(-17.9231 -0.0395806 0.00446357)
(-18.111 -0.0568055 0.00412003)
(-18.3778 -0.0798697 0.00367828)
(-18.7526 -0.116593 0.00311095)
(-19.326 -0.181117 0.00232238)
(0.242309 -24.4191 -0.0211328)
(0.254273 -24.4977 -0.0179648)
(0.265441 -24.5605 -0.0143563)
(0.273931 -24.61 -0.0111821)
(0.280215 -24.6479 -0.00837869)
(0.284717 -24.6755 -0.00584588)
(0.287799 -24.6935 -0.0035574)
(0.289404 -24.7035 -0.0012405)
(0.229999 -23.5171 -0.006929)
(0.237559 -23.5453 -0.00639663)
(0.246324 -23.5691 -0.00537612)
(0.253268 -23.5885 -0.00434029)
(0.25853 -23.6038 -0.00334091)
(0.262358 -23.6152 -0.00237288)
(0.265043 -23.6228 -0.00143135)
(0.266544 -23.6265 -0.00048366)
(0.23001 -22.6525 0.00277088)
(0.237582 -22.6402 0.00267384)
(0.2463 -22.6305 0.00204554)
(0.253185 -22.6237 0.00144598)
(0.25839 -22.6189 0.000973392)
(0.262173 -22.6158 0.000616796)
(0.264827 -22.614 0.00035493)
(0.266308 -22.6131 0.000122981)
(0.242706 -21.7508 0.0170483)
(0.254825 -21.6882 0.0141156)
(0.265899 -21.64 0.0108383)
(0.274239 -21.6037 0.00810362)
(0.280372 -21.5769 0.00585405)
(0.284748 -21.558 0.00397363)
(0.287739 -21.5459 0.00241252)
(0.289303 -21.5389 0.000857445)
)
;
        pressure        uniform 0;
        value           nonuniform List<vector> 
192
(
(0.00161918 0.00138308 0.000879434)
(0.00329556 0.00257376 0.00104702)
(0.00601163 0.00365612 0.00108753)
(0.00903743 0.00432382 0.000994003)
(0.0123405 0.00465719 0.00086766)
(0.0157304 0.00470831 0.000745061)
(0.0190956 0.00456566 0.00065793)
(0.0223718 0.00432688 0.000622488)
(0.00170685 0.00145529 0.000468427)
(0.00361557 0.00251405 0.000681149)
(0.00628355 0.00357539 0.000777568)
(0.00929098 0.0042394 0.000769956)
(0.0125381 0.00457796 0.000720706)
(0.0158747 0.00464104 0.000661943)
(0.0191963 0.00451242 0.000619041)
(0.022451 0.00429038 0.000606399)
(0.00179211 0.00151925 0.000258936)
(0.00377115 0.00250809 0.000427651)
(0.00647142 0.0035209 0.000528785)
(0.00947501 0.00416265 0.000566884)
(0.0127007 0.00449413 0.000569071)
(0.0160111 0.00456362 0.000557387)
(0.019311 0.00444993 0.000548624)
(0.0225548 0.00424844 0.000552684)
(0.00184223 0.00155642 0.000147254)
(0.00385926 0.00251388 0.000270156)
(0.00658914 0.00349703 0.000356247)
(0.00960282 0.00411542 0.000406901)
(0.0128265 0.00443556 0.000433721)
(0.0161291 0.00450449 0.000447671)
(0.0194216 0.00439844 0.000458299)
(0.0226622 0.00420939 0.000471249)
(0.001871 0.00157762 8.54106e-05)
(0.00391081 0.00252197 0.000170792)
(0.0066626 0.00348946 0.000237124)
(0.00968944 0.00409199 0.000284383)
(0.0129193 0.00440166 0.000317253)
(0.0162235 0.00446682 0.00034041)
(0.019516 0.00436281 0.000358377)
(0.0227572 0.00417953 0.000373685)
(0.00188779 0.00158989 4.90701e-05)
(0.00394149 0.00252923 0.000104792)
(0.00670845 0.0034892 0.000151201)
(0.00974678 0.00408241 0.000187807)
(0.0129845 0.00438455 0.000216286)
(0.0162934 0.00444556 0.000238299)
(0.0195888 0.00434093 0.000255599)
(0.0228322 0.00415957 0.000268907)
(0.00189727 0.00159675 2.55422e-05)
(0.00395904 0.00253448 5.69884e-05)
(0.00673552 0.00349117 8.43355e-05)
(0.00978196 0.00407946 0.000107128)
(0.013026 0.00437701 0.000125843)
(0.0163395 0.00443491 0.000140915)
(0.0196379 0.00432901 0.000152847)
(0.0228836 0.00414791 0.000161633)
(0.00190158 0.00159986 7.94261e-06)
(0.00396707 0.0025372 1.81082e-05)
(0.00674814 0.00349272 2.71332e-05)
(0.00979873 0.00407893 3.48418e-05)
(0.0130462 0.00437435 4.13173e-05)
(0.0163623 0.00443064 4.66193e-05)
(0.0196626 0.00432388 5.08302e-05)
(0.0229096 0.0041426 5.38763e-05)
(0.000662832 0.000813883 0.00132708)
(0.0027072 0.00154582 0.00101388)
(0.00540134 0.00233048 0.00110008)
(0.00853814 0.00277968 0.000978656)
(0.0119443 0.00299295 0.00085777)
(0.0154325 0.00300869 0.000741728)
(0.0188698 0.00289204 0.000661984)
(0.0221819 0.00270425 0.000624898)
(0.000152539 0.000237899 0.000420377)
(0.00207794 0.000314554 0.00048876)
(0.0048053 0.000464811 0.000534075)
(0.00802114 0.000451382 0.000552463)
(0.0114927 0.000331572 0.000558459)
(0.0150366 0.000137212 0.000558141)
(0.0185177 -9.58456e-05 0.000560836)
(0.021849 -0.000337369 0.000565769)
(7.33309e-05 -0.000343209 -0.000342583)
(0.00194682 -0.000669016 -0.000231176)
(0.00463836 -0.00120138 -8.70073e-05)
(0.00783099 -0.00170589 8.04003e-05)
(0.0112803 -0.00218766 0.000230127)
(0.0148066 -0.00261947 0.000354369)
(0.0182762 -0.00299201 0.000452385)
(0.0216006 -0.00330594 0.000537014)
(0.000409695 -0.00107942 -0.00129447)
(0.00229246 -0.00198428 -0.000817706)
(0.00487022 -0.00316596 -0.000676712)
(0.00793011 -0.00412572 -0.000357827)
(0.0112695 -0.00492172 -7.53075e-05)
(0.0147096 -0.00554145 0.000166918)
(0.0181185 -0.00601138 0.000349884)
(0.0214158 -0.00636985 0.00047769)
(0.00113626 -0.00168643 -0.000970999)
(0.00269868 -0.00322952 -0.000921523)
(0.00522192 -0.00475539 -0.000737078)
(0.00812408 -0.00589597 -0.000437625)
(0.0113383 -0.00675398 -0.000146601)
(0.0146814 -0.00735498 0.00010224)
(0.0180327 -0.00776343 0.000289398)
(0.0213136 -0.00805542 0.000413078)
(0.00125232 -0.00179404 -0.000572593)
(0.00302805 -0.00330768 -0.000613655)
(0.00549383 -0.0048374 -0.000510069)
(0.00836509 -0.00598318 -0.000317778)
(0.0115193 -0.00683139 -0.000117567)
(0.0148094 -0.00742464 5.83792e-05)
(0.0181216 -0.00783024 0.00019408)
(0.0213861 -0.00812831 0.000286848)
(0.00133772 -0.00190111 -0.000334912)
(0.00319425 -0.00336184 -0.000377505)
(0.00568622 -0.00487332 -0.000324282)
(0.00854749 -0.00601308 -0.00020962)
(0.0116774 -0.0068583 -8.1236e-05)
(0.0149403 -0.00745477 3.56558e-05)
(0.0182308 -0.00786929 0.000129076)
(0.0214831 -0.00818129 0.000195449)
(0.00138492 -0.00196704 -0.000195513)
(0.00328772 -0.00340007 -0.000227324)
(0.00580687 -0.00489944 -0.000198268)
(0.00867542 -0.00603157 -0.000129718)
(0.0118016 -0.00687541 -4.99772e-05)
(0.0150559 -0.00747543 2.5126e-05)
(0.018338 -0.00789759 8.71325e-05)
(0.0215855 -0.00821999 0.000132639)
(0.00141132 -0.00200614 -0.000113554)
(0.0033415 -0.00342663 -0.000134688)
(0.00588143 -0.00492067 -0.000117968)
(0.00876174 -0.00604854 -7.67472e-05)
(0.011893 -0.00689148 -2.78177e-05)
(0.0151481 -0.00749363 1.93669e-05)
(0.0184293 -0.00792036 5.93607e-05)
(0.021676 -0.00824904 8.94571e-05)
(0.00142654 -0.00202928 -6.42132e-05)
(0.003373 -0.00344453 -7.70992e-05)
(0.00592728 -0.00493719 -6.73878e-05)
(0.00881821 -0.00606345 -4.31019e-05)
(0.0119566 -0.00690607 -1.40045e-05)
(0.0152158 -0.0075093 1.44633e-05)
(0.0184991 -0.00793834 3.90254e-05)
(0.021747 -0.00827044 5.78184e-05)
(0.00143509 -0.00204239 -3.27136e-05)
(0.00339079 -0.00345567 -3.95301e-05)
(0.00595401 -0.00494849 -3.43995e-05)
(0.00885245 -0.00607445 -2.15667e-05)
(0.0119967 -0.00691711 -6.13512e-06)
(0.01526 -0.00752084 9.08253e-06)
(0.0185459 -0.00795094 2.23516e-05)
(0.0217952 -0.00828476 3.25948e-05)
(0.00143896 -0.00204835 -1.00227e-05)
(0.00339889 -0.00346103 -1.21414e-05)
(0.00596638 -0.00495421 -1.0531e-05)
(0.00886864 -0.00608025 -6.51423e-06)
(0.0120161 -0.006923 -1.67867e-06)
(0.0152818 -0.00752694 3.10633e-06)
(0.0185692 -0.00795743 7.29944e-06)
(0.0218194 -0.00829193 1.05452e-05)
(0.0237947 0.00259276 0.000611492)
(0.0238773 0.00255972 0.000572239)
(0.0239904 0.00252408 0.000510035)
(0.0241031 0.00248833 0.000429317)
(0.024201 0.00245951 0.000337393)
(0.0242776 0.00243906 0.000241176)
(0.0243298 0.00242643 0.000144311)
(0.0243561 0.00242041 4.79952e-05)
(0.0233975 -0.000459141 0.000559011)
(0.0234893 -0.000505811 0.000497401)
(0.0236062 -0.000551175 0.000425727)
(0.0237198 -0.000589949 0.000348581)