/*--------------------------------*- C++ -*----------------------------------*\
| =========                 |                                                 |
| \\      /  F ield         | foam-extend: Open Source CFD                    |
|  \\    /   O peration     | Version:     3.1                                |
|   \\  /    A nd           | Web:         http://www.extend-project.de       |
|    \\/     M anipulation  |                                                 |
\*---------------------------------------------------------------------------*/
FoamFile
{
    version     2.0;
    format      ascii;
    class       volSymmTensorField;
    location    "0.9";
    object      epsilon;
}
// * * * * * * * * * * * * * * * * * * * * * * * * * * * * * * * * * * * * * //

dimensions      [0 0 0 0 0 0 0];

internalField   nonuniform List<symmTensor> 
256
(
(-0.0181298 0.0235651 -0.00110268 0.063527 0.0140352 -0.0080463)
(-0.0060286 0.0195726 -0.00307267 0.0123389 0.00498064 -0.00335562)
(0.00276088 0.0178846 -0.0032732 -0.021843 -0.00619444 0.00246624)
(0.0129363 0.0186028 -0.00130956 -0.0694155 -0.0160714 0.00705732)
(-0.0304873 0.00926105 -0.00128041 0.0389949 -0.00189435 -0.0128066)
(-0.0120853 0.0249727 -0.00469196 0.0130795 -0.000682925 -0.00553756)
(0.0054181 0.0243796 -0.0050359 -0.0162329 0.00176104 0.00355176)
(0.0228696 0.00879949 -0.00167458 -0.041594 0.00326893 0.010848)
(-0.0240392 0.0112657 -0.000568437 0.0351811 -0.0003884 -0.0089733)
(-0.0115054 0.023774 -0.00293329 0.0111168 2.70414e-05 -0.00418479)
(0.00420609 0.0238224 -0.00305238 -0.0137862 0.000692756 0.0018086)
(0.0167479 0.0114006 -0.000685865 -0.0375589 0.00131484 0.00677485)
(-0.0192304 0.00966134 -0.000513749 0.0244309 -0.00156633 -0.00704675)
(-0.00943397 0.0212547 -0.00213178 0.00776927 -0.00033806 -0.00354526)
(0.00278591 0.0213416 -0.00220688 -0.0103468 0.000836493 0.000856404)
(0.0124674 0.00983211 -0.000629908 -0.0265808 0.00222513 0.00448773)
(-0.0141377 0.00823451 -0.000318057 0.0155821 -0.00155597 -0.00474787)
(-0.00738753 0.0177892 -0.00140774 0.00479423 -0.000382202 -0.0028297)
(0.00153227 0.0178362 -0.00147694 -0.00746462 0.000596687 -0.000266855)
(0.00804344 0.00834891 -0.000417557 -0.0177942 0.00185785 0.0017625)
(-0.0101407 0.00621015 -0.00024961 0.00816027 -0.00139261 -0.00294071)
(-0.00573672 0.0136748 -0.000923482 0.00234547 -0.000393391 -0.00228086)
(0.00051802 0.0137056 -0.000981453 -0.00507477 0.000399919 -0.0011771)
(0.00465184 0.00630865 -0.000324237 -0.0105081 0.00144051 -0.000420508)
(-0.00746821 0.0039142 -0.000249132 0.00315964 -0.00100473 -0.00157898)
(-0.00460821 0.00921094 -0.000574756 0.000618119 -0.000350789 -0.00186461)
(-0.000169717 0.00924067 -0.000605052 -0.00332769 0.000216742 -0.00191839)
(0.00247441 0.00404773 -0.000269756 -0.00554211 0.0008906 -0.00213172)
(-0.00700195 0.00159684 -0.000224216 0.00104301 -0.000354723 -0.000761525)
(-0.00482978 0.00438323 -0.000207842 -0.000167063 -0.000138545 -0.00164295)
(0.000196092 0.00434761 -0.000220668 -0.00236955 4.80524e-05 -0.00250702)
(0.00227187 0.00158263 -0.000199365 -0.00338982 0.000251108 -0.00333816)
(-0.0182577 0.0276622 -0.000872946 0.059575 0.00958733 -0.00502984)
(-0.00555985 0.0247771 -0.00258752 0.00997698 0.00321605 -0.00191444)
(0.00258691 0.023382 -0.00282302 -0.0207548 -0.00462556 0.00200918)
(0.0130266 0.023026 -0.0011538 -0.0669888 -0.0118124 0.00533958)
(-0.0307022 0.0104139 -0.00144922 0.0417578 0.00157748 -0.00971463)
(-0.0113732 0.0271104 -0.00470207 0.013706 0.000719317 -0.00381405)
(0.00490153 0.0267199 -0.00503978 -0.0197654 0.000610244 0.00351566)
(0.0230444 0.0102183 -0.00180633 -0.0473292 1.04928e-06 0.00981706)
(-0.0238668 0.0106159 -0.000930892 0.0349059 -0.000410806 -0.00860364)
(-0.0108136 0.0229839 -0.00354438 0.0108196 0.000236244 -0.00365786)
(0.00363197 0.022956 -0.00371253 -0.0146692 0.00135981 0.00232334)
(0.0165406 0.0105824 -0.00119071 -0.0383905 0.00224905 0.00754163)
(-0.01878 0.00861924 -0.000511875 0.0245898 -0.00155463 -0.00676603)
(-0.00883529 0.0194515 -0.00228065 0.00781128 -0.000147826 -0.00326883)
(0.00210904 0.0194632 -0.0024197 -0.0106374 0.00144921 0.000987895)
(0.0118552 0.00868059 -0.000778507 -0.0270035 0.00306334 0.00467326)
(-0.0137446 0.00696548 -0.0001158 0.0154909 -0.00191738 -0.00475034)
(-0.00694244 0.0156825 -0.00126436 0.00484155 -0.000363681 -0.00277641)
(0.000914593 0.0156819 -0.0013893 -0.0072821 0.00123325 -0.000204666)
(0.00742768 0.00701209 -0.000357511 -0.0175058 0.00291176 0.00190123)
(-0.00980179 0.00509015 0.000131426 0.0080398 -0.00176509 -0.00298771)
(-0.00540767 0.0117916 -0.000519687 0.00236574 -0.000418537 -0.00230844)
(3.93333e-06 0.0118039 -0.000618836 -0.00476023 0.000900778 -0.00115111)
(0.00408555 0.00517045 -5.77826e-05 -0.010081 0.00230973 -0.000373768)
(-0.00720853 0.00309202 0.000263287 0.00300541 -0.00123322 -0.00169136)
(-0.00438018 0.00783428 5.79703e-06 0.000560185 -0.000340092 -0.0019627)
(-0.000534743 0.00787035 -5.34925e-05 -0.00303851 0.000556289 -0.00187096)
(0.0020436 0.00325341 0.000158223 -0.00515193 0.00148031 -0.00207018)
(-0.00676714 0.00127274 0.000374597 0.00105164 -0.000465498 -0.000994411)
(-0.00464544 0.00375418 0.000438074 -0.000154793 -0.000118965 -0.00185874)
(-7.4081e-05 0.00372794 0.000401835 -0.00220464 0.000241002 -0.00249021)
(0.00193462 0.0012778 0.000332631 -0.00320359 0.000590053 -0.00329807)
(-0.019087 0.029426 -0.000610204 0.0600445 0.00570088 -0.00291551)
(-0.00573311 0.0265521 -0.00176401 0.00959241 0.0018477 -0.00103895)
(0.00294407 0.0252681 -0.00194608 -0.0210044 -0.0029599 0.00134397)
(0.0138102 0.0249048 -0.000850748 -0.0683067 -0.00738697 0.00345555)
(-0.0322155 0.0109918 -0.00117865 0.0403249 0.00180357 -0.00613723)
(-0.0118598 0.0283639 -0.00338857 0.0130608 0.000847301 -0.00228126)
(0.00563232 0.0280333 -0.00364449 -0.0202446 0.000324338 0.00246803)
(0.0246605 0.010756 -0.00147469 -0.04683 -0.000459618 0.00671283)
(-0.024981 0.0107726 -0.000924851 0.034187 0.000344499 -0.00622002)
(-0.0113021 0.023535 -0.00280488 0.0104747 0.000523898 -0.00254906)
(0.00418738 0.0235076 -0.00293409 -0.0151069 0.00111379 0.00176096)
(0.0176779 0.0106879 -0.00110334 -0.0384431 0.0014702 0.0056535)
(-0.0194114 0.00855593 -0.000552263 0.0242035 -0.000650885 -0.00544002)
(-0.00917036 0.0193485 -0.00188561 0.007629 0.000185651 -0.00255771)
(0.00230314 0.0193598 -0.0019892 -0.0108229 0.00132345 0.000755641)
(0.0123536 0.00861085 -0.000710201 -0.0270626 0.00232033 0.00375051)
(-0.0140902 0.00673767 -0.000197524 0.0154123 -0.00109991 -0.00428727)
(-0.00717958 0.0152789 -0.00101327 0.00481594 -4.56402e-05 -0.00239628)
(0.000899677 0.0152866 -0.00110078 -0.00735119 0.00120374 -0.000214797)
(0.00755206 0.00679804 -0.000331402 -0.0175958 0.0023634 0.00172437)
(-0.00992168 0.00482595 6.83086e-05 0.00821456 -0.00111525 -0.00316264)
(-0.00554784 0.0113099 -0.000326463 0.00243334 -0.000147861 -0.00218729)
(-0.000124763 0.0113419 -0.000391897 -0.00477254 0.000935886 -0.00101756)
(0.00396444 0.0049412 -2.97579e-05 -0.0102487 0.00196076 -2.19008e-05)
(-0.00715967 0.00285908 0.000237882 0.00337873 -0.000808624 -0.00231272)
(-0.00443161 0.00745054 0.000170874 0.00068633 -0.000138797 -0.00203848)
(-0.000705158 0.00751458 0.000131712 -0.00304887 0.000615932 -0.00164432)
(0.00179166 0.00307259 0.000185156 -0.0054161 0.00131876 -0.00135722)
(-0.00657644 0.00120528 0.000350474 0.00145255 -0.000302413 -0.00190221)
(-0.00461775 0.00361113 0.000510229 4.20534e-06 -4.22301e-05 -0.00205204)
(-0.000281793 0.00360356 0.000479733 -0.00222942 0.000255511 -0.00215028)
(0.00158878 0.00123648 0.000320533 -0.00345708 0.000524342 -0.00228486)
(-0.0197453 0.0302728 -0.000392624 0.0606206 0.00336229 -0.00167408)
(-0.00590528 0.0272736 -0.0011368 0.00949049 0.00107429 -0.000569472)
(0.00320634 0.026036 -0.00125965 -0.0212218 -0.00183051 0.000866972)
(0.0144449 0.0257922 -0.000557344 -0.069319 -0.00447975 0.00213943)
(-0.0333807 0.0112988 -0.000808011 0.0394339 0.00149154 -0.00374348)
(-0.0122563 0.0291476 -0.00227095 0.0126912 0.000736207 -0.00136414)
(0.00618382 0.0288523 -0.0024457 -0.0203081 0.000210827 0.00162032)
(0.0259327 0.0110529 -0.00101576 -0.0462197 -0.000447465 0.00427663)
(-0.0259392 0.0110422 -0.000700909 0.0334921 0.000673049 -0.00419337)
(-0.0117125 0.0241401 -0.00200453 0.0101647 0.000598147 -0.00173767)
(0.00466474 0.0241243 -0.00209385 -0.0152185 0.000816055 0.0011759)
(0.0187116 0.0109527 -0.000822789 -0.0381634 0.000845226 0.00379921)
(-0.0201114 0.00871069 -0.000454126 0.0237587 1.78958e-05 -0.00405854)
(-0.009508 0.019712 -0.00140819 0.00742617 0.000384878 -0.00194929)
(0.00256875 0.0197361 -0.00147359 -0.0109193 0.00102573 0.0004609)
(0.0130266 0.0087757 -0.000549885 -0.0269697 0.00149812 0.00265923)
(-0.0145213 0.00680426 -0.000188492 0.0152626 -0.000359648 -0.00359375)
(-0.00743445 0.0154516 -0.000772339 0.00474105 0.000202202 -0.00202415)
(0.000992873 0.015475 -0.000822518 -0.00743698 0.000977986 -0.000276252)
(0.00787462 0.00688378 -0.000261507 -0.0176618 0.00161791 0.00132688)
(-0.0101287 0.00483351 2.9611e-05 0.00832972 -0.000471717 -0.0030563)
(-0.00571919 0.0113643 -0.000236816 0.00246786 8.55457e-05 -0.00203284)
(-0.000144161 0.0114147 -0.000271278 -0.00484935 0.000796565 -0.000917195)
(0.00402497 0.00497431 -1.80547e-05 -0.0104414 0.0014038 0.000110389)
(-0.00718507 0.0028355 0.000178208 0.00368921 -0.000377894 -0.002635)
(-0.00452616 0.00746186 0.000158421 0.000794889 3.05173e-05 -0.00204897)
(-0.000791202 0.00754495 0.000139305 -0.00312388 0.000547518 -0.00143232)
(0.00166713 0.00307795 0.000158214 -0.00569844 0.000989558 -0.000854498)
(-0.00647365 0.0012088 0.000267176 0.00180363 -0.000156477 -0.00246125)
(-0.00466127 0.00362798 0.000397919 0.000135487 1.53042e-05 -0.00214104)
(-0.000413617 0.00363141 0.000379987 -0.00232336 0.000234089 -0.0018334)
(0.00134199 0.00125268 0.000256433 -0.00376339 0.000416879 -0.00152221)
(-0.0201799 0.0306985 -0.000241499 0.061037 0.00199119 -0.000988896)
(-0.00602523 0.0275848 -0.000707588 0.00947367 0.000637699 -0.000326126)
(0.00336731 0.0263652 -0.000783926 -0.0213552 -0.00110291 0.000554068)
(0.0148688 0.0262281 -0.00034522 -0.0699506 -0.00267243 0.00132495)
(-0.0341672 0.0114708 -0.000518344 0.0390168 0.00111227 -0.00233603)
(-0.0125188 0.0296095 -0.00145615 0.0125263 0.000571505 -0.000854546)
(0.00652967 0.0293339 -0.00156666 -0.02029 0.000146587 0.00103788)
(0.0267978 0.0112204 -0.000652198 -0.0458562 -0.000342655 0.00269895)
(-0.0266225 0.0112435 -0.000478835 0.0330598 0.000700853 -0.00285817)
(-0.0119825 0.0245967 -0.00134666 0.00997238 0.000542008 -0.00122936)
(0.00498166 0.0245927 -0.00140476 -0.0152292 0.000568321 0.000733011)
(0.0194579 0.0111596 -0.000557993 -0.0379249 0.000466092 0.00247643)
(-0.0206489 0.00887793 -0.00032679 0.0234192 0.000327278 -0.00303524)
(-0.0097404 0.020097 -0.000979205 0.00727224 0.000431158 -0.00152573)
(0.00277223 0.0201329 -0.00101924 -0.0109574 0.000736261 0.000210532)
(0.0135643 0.00895457 -0.000384054 -0.0268479 0.000903337 0.00178502)
(-0.0148868 0.00692937 -0.000147432 0.0151026 6.78662e-05 -0.00298658)
(-0.0076184 0.0157413 -0.000551359 0.00466137 0.000308794 -0.00173411)
(0.00108829 0.0157764 -0.000579616 -0.00749261 0.000725625 -0.000353667)
(0.00818096 0.0070233 -0.000186848 -0.0176681 0.00101975 0.000923303)
(-0.0103375 0.00491388 8.56294e-06 0.00835313 -6.22933e-05 -0.00284704)
(-0.00585163 0.0115633 -0.00017285 0.00246698 0.000205786 -0.00188137)
(-0.000130837 0.011625 -0.000190669 -0.00491185 0.000611061 -0.00086437)
(0.00413748 0.00507048 -1.39048e-05 -0.0105485 0.000919092 9.96975e-05)
(-0.00726437 0.00287594 0.000118142 0.00385153 -8.46078e-05 -0.0027276)
(-0.00461219 0.00758893 0.00011036 0.000850018 0.000124344 -0.0020035)
(-0.000834075 0.00768256 0.000101214 -0.00318959 0.000432054 -0.00128289)
(0.00163356 0.00313494 0.000111992 -0.00587528 0.000671439 -0.000574757)
(-0.00647399 0.0012315 0.000180999 0.0020048 -4.14947e-05 -0.00271653)
(-0.00472621 0.0036914 0.000270327 0.000205631 4.99969e-05 -0.00213714)
(-0.000489565 0.00370038 0.00025916 -0.00240637 0.000185875 -0.00159189)
(0.0012214 0.00128259 0.000176716 -0.00397452 0.000289206 -0.00103153)
(-0.0204482 0.0309202 -0.000140459 0.0613173 0.00115656 -0.000621109)
(-0.00610238 0.0277252 -0.000419579 0.00948609 0.00037591 -0.000203975)
(0.00346305 0.0265121 -0.000463817 -0.0214328 -0.000635827 0.000359079)
(0.0151312 0.0264498 -0.000201688 -0.0703318 -0.00153937 0.000845026)
(-0.0346625 0.0115653 -0.000310743 0.0388502 0.000758792 -0.00154805)
(-0.0126852 0.0298713 -0.0008824 0.012468 0.000401399 -0.000584079)
(0.00673841 0.0296051 -0.000947344 -0.0202623 9.98215e-05 0.000665521)
(0.0273425 0.0113108 -0.000390948 -0.0456682 -0.000231107 0.00174509)
(-0.0270677 0.0113734 -0.000299222 0.0328375 0.000571254 -0.00205588)
(-0.0121531 0.0248965 -0.000843481 0.00987412 0.000417456 -0.000934615)
(0.0051792 0.0248996 -0.000878481 -0.0152155 0.000372013 0.000434215)
(0.0199447 0.0112946 -0.00034759 -0.0377798 0.000248066 0.00163291)
(-0.0210108 0.00900282 -0.00021088 0.02321 0.000378611 -0.00237256)
(-0.00988922 0.0203868 -0.000628835 0.00717696 0.000369224 -0.00125996)
(0.0029083 0.0204302 -0.000652127 -0.0109673 0.000489815 2.91036e-05)
(0.0139313 0.00908765 -0.000244379 -0.0267537 0.000516393 0.0011883)
(-0.0151459 0.00703573 -9.92583e-05 0.014977 0.000222007 -0.00254712)
(-0.00773964 0.0159882 -0.000361708 0.0046004 0.000296709 -0.00153458)
(0.00116009 0.0160305 -0.000377189 -0.00752048 0.000493309 -0.000421534)
(0.00840611 0.00713867 -0.000120671 -0.0176455 0.00060167 0.000609061)
(-0.0104998 0.00499167 1.48843e-06 0.00833092 0.000116095 -0.00263967)
(-0.00594402 0.0117517 -0.000117356 0.00245133 0.000220465 -0.00175793)
(-0.00011291 0.01182 -0.000126488 -0.00494911 0.000424713 -0.000840381)
(0.0042362 0.00515754 -9.26082e-06 -0.0105889 0.000557636 3.74274e-05)
(-0.00734778 0.00292098 7.3417e-05 0.00391391 5.5749e-05 -0.00270223)
(-0.00468013 0.0077148 6.71153e-05 0.000868808 0.000143816 -0.00193788)
(-0.000856001 0.00781433 6.25954e-05 -0.00323319 0.000305379 -0.00118573)
(0.00163447 0.0031893 7.21082e-05 -0.00596463 0.000417161 -0.000440327)
(-0.00651728 0.00125042 0.000115948 0.00209838 1.6732e-05 -0.00277654)
(-0.00479019 0.00374954 0.000169495 0.000232149 5.70274e-05 -0.00208334)
(-0.000532244 0.00376159 0.000162091 -0.0024673 0.000131879 -0.00142695)
(0.00116918 0.00130574 0.000113604 -0.00410144 0.000182268 -0.000757249)
(-0.0206021 0.0310352 -7.24324e-05 0.0614913 0.00060496 -0.000434206)
(-0.00614784 0.0277898 -0.0002202 0.00950379 0.000200244 -0.000146003)
(0.00351683 0.0265789 -0.000242802 -0.0214754 -0.000326126 0.000246736)
(0.0152813 0.0265625 -0.000104298 -0.0705492 -0.000793218 0.000581342)
(-0.0349504 0.0116146 -0.000163606 0.038797 0.000439837 -0.00113558)
(-0.012783 0.0300112 -0.000469744 0.0124555 0.000237058 -0.000449505)
(0.00685678 0.029749 -0.000503212 -0.0202416 5.89864e-05 0.000447352)
(0.027658 0.011357 -0.000205599 -0.0455794 -0.000131351 0.00121237)
(-0.0273322 0.0114486 -0.000161763 0.0327389 0.000364964 -0.00161558)
(-0.0122535 0.0250718 -0.00045873 0.00983161 0.000259883 -0.000777477)
(0.00529337 0.0250786 -0.000477064 -0.0152009 0.000210595 0.000253119)
(0.0202327 0.0113726 -0.000187447 -0.0377045 0.000119971 0.0011463)
(-0.0212297 0.00908065 -0.00011625 0.0230996 0.000277674 -0.00199026)
(-0.00997726 0.0205689 -0.000347643 0.00712696 0.000243015 -0.00110949)
(0.00298992 0.0206164 -0.000359628 -0.0109668 0.000279597 -8.58376e-05)
(0.0141535 0.00917012 -0.00013364 -0.0266958 0.000263326 0.000829431)
(-0.0153071 0.00710588 -5.59746e-05 0.0148978 0.000196735 -0.00227414)
(-0.00781256 0.0161524 -0.000202887 0.00456288 0.000206166 -0.00141331)
(0.00120558 0.0161984 -0.000210566 -0.00753181 0.00028528 -0.000469226)
(0.00854727 0.00721377 -6.65682e-05 -0.0176205 0.000313202 0.00040481)
(-0.0106065 0.00504523 -3.83327e-07 0.00830094 0.000130627 -0.00248746)
(-0.00600194 0.0118819 -6.76749e-05 0.00243574 0.000160356 -0.0016734)
(-9.95533e-05 0.0119535 -7.20108e-05 -0.00496763 0.000248884 -0.000830777)
(0.00430318 0.00521614 -5.14944e-06 -0.0105969 0.000295515 -2.23702e-05)
(-0.00741203 0.00295283 3.9481e-05 0.00392857 7.89772e-05 -0.00264641)
(-0.00472662 0.00780238 3.49763e-05 0.000871029 0.000107793 -0.00188023)
(-0.00086739 0.00790487 3.28095e-05 -0.00325789 0.000180601 -0.00112807)
(0.0016441 0.00322601 3.95492e-05 -0.00600283 0.000224028 -0.00038235)
(-0.00656444 0.00126248 6.40826e-05 0.00213157 2.82972e-05 -0.00275834)
(-0.00483922 0.00378899 9.25034e-05 0.000236602 4.25854e-05 -0.00202362)
(-0.000555486 0.00380237 8.80511e-05 -0.00250536 7.80987e-05 -0.00132507)
(0.00115032 0.00131991 6.25861e-05 -0.00416828 9.84219e-05 -0.00061591)
(-0.020672 0.0310849 -2.23107e-05 0.0615751 0.00018841 -0.000356152)
(-0.00616884 0.0278157 -6.84462e-05 0.00951509 6.31234e-05 -0.000123136)
(0.00354107 0.0266054 -7.53472e-05 -0.0214943 -9.99984e-05 0.000195548)
(0.0153495 0.0266107 -3.21464e-05 -0.0706485 -0.000244308 0.000464953)
(-0.0350823 0.0116356 -5.09387e-05 0.0387855 0.000144005 -0.000960065)
(-0.0128281 0.030072 -0.000147055 0.0124562 7.8323e-05 -0.000394546)
(0.00691039 0.0298113 -0.000157311 -0.020231 1.96073e-05 0.000346915)
(0.0278022 0.0113764 -6.39089e-05 -0.0455448 -4.24358e-05 0.000974929)
(-0.0274548 0.0114827 -5.1038e-05 0.0327039 0.000124814 -0.00142273)
(-0.0123 0.0251518 -0.000145138 0.00981715 8.79511e-05 -0.000710175)
(0.00534561 0.02516 -0.000150796 -0.0151925 6.82125e-05 0.000168089)
(0.0203659 0.0114079 -5.90184e-05 -0.0376734 3.56646e-05 0.000925404)
(-0.0213321 0.00911733 -3.70451e-05 0.0230539 0.000100212 -0.00181766)
(-0.0100182 0.0206551 -0.000110905 0.00710653 8.4273e-05 -0.0010424)
(0.00302795 0.0207043 -0.000114576 -0.0109647 9.08793e-05 -0.000141144)
(0.0142573 0.00920879 -4.23987e-05 -0.0266691 8.05859e-05 0.000662762)
(-0.0153836 0.00713982 -1.80554e-05 0.0148607 7.54685e-05 -0.00214533)
(-0.00784677 0.0162322 -6.5221e-05 0.00454571 7.31347e-05 -0.00135668)
(0.00122728 0.0162798 -6.75335e-05 -0.00753531 9.32937e-05 -0.000493408)
(0.00861428 0.00724983 -2.12429e-05 -0.0176057 9.68391e-05 0.000305908)
(-0.0106587 0.00507152 -3.74444e-07 0.00828239 5.32131e-05 -0.0024089)
(-0.00602979 0.0119461 -2.21196e-05 0.00242687 5.79341e-05 -0.00163096)
(-9.28279e-05 0.0120191 -2.33959e-05 -0.00497484 8.18928e-05 -0.000827583)
(0.0043361 0.00524461 -1.70654e-06 -0.0105958 9.21605e-05 -5.62421e-05)
(-0.00744586 0.00296845 1.22668e-05 0.00392828 3.36012e-05 -0.00260813)
(-0.00475009 0.00784557 1.06684e-05 0.000869255 3.93874e-05 -0.00184762)
(-0.000872469 0.00794914 1.00157e-05 -0.00326874 5.96658e-05 -0.00110115)
(0.00165069 0.0032435 1.24071e-05 -0.00601578 7.02673e-05 -0.000361709)
(-0.00659217 0.00126819 2.02476e-05 0.00213915 1.21045e-05 -0.00273275)
(-0.00486522 0.00380843 2.92587e-05 0.000234849 1.54733e-05 -0.00198696)
(-0.000566112 0.00382197 2.77461e-05 -0.00252336 2.5846e-05 -0.00127638)
(0.00114435 0.00132616 1.96872e-05 -0.00419633 3.09797e-05 -0.000556748)
)
;

boundaryField
{
    interface
    {
        type            calculated;
        value           nonuniform List<symmTensor> 
192
(
(-0.0660431 -1.6705e-05 0.000486046 0.0985686 0.0176319 -0.00980201)
(-0.0293496 -4.12864e-05 0.0006697 0.0500543 -0.00199452 -0.0155283)
(-0.0303789 -9.49446e-05 0.000719453 0.0468141 -0.000510867 -0.0107894)
(-0.0220114 -0.000143955 0.00070794 0.0320231 -0.00222168 -0.00835657)
(-0.016005 -0.000195168 0.000673646 0.0202039 -0.00224562 -0.00539358)
(-0.0107997 -0.000256419 0.000618395 0.0102216 -0.00199834 -0.00305904)
(-0.00748783 -0.000349447 0.000536209 0.00369208 -0.00137816 -0.00132926)
(-0.00628323 -0.000498419 0.000410399 0.00113028 -0.000474618 -0.000318623)
(-0.0661592 2.57437e-06 0.000324011 0.0947408 0.0122161 -0.00623126)
(-0.0339633 -2.92546e-05 0.000446986 0.0529486 0.00228911 -0.0120283)
(-0.0304385 -8.66112e-05 0.000472934 0.0462638 -0.000543766 -0.0105975)
(-0.0225237 -0.000148485 0.000461298 0.0321273 -0.00219388 -0.0081552)
(-0.0161495 -0.000214756 0.000433699 0.0200397 -0.00269172 -0.00545262)
(-0.0109645 -0.000296877 0.00039167 0.0101065 -0.00246405 -0.0031)
(-0.00761688 -0.000420371 0.000331577 0.00361201 -0.00168668 -0.00138319)
(-0.00636492 -0.000603063 0.000248543 0.00120817 -0.00063395 -0.000452583)
(-0.069095 7.49149e-06 0.000221826 0.0962202 0.00727866 -0.00364689)
(-0.0356172 -2.75087e-05 0.000303543 0.0508116 0.00244053 -0.00768975)
(-0.0317469 -8.87878e-05 0.000317865 0.0451295 0.000428806 -0.00777257)
(-0.0232835 -0.000157968 0.000306901 0.0315441 -0.000943533 -0.00668637)
(-0.0164414 -0.00023423 0.000285616 0.0198945 -0.00154707 -0.00510006)
(-0.0109534 -0.000329639 0.000254906 0.0103529 -0.00155248 -0.0035612)
(-0.00740926 -0.000469929 0.000213137 0.00416458 -0.00110914 -0.00239501)
(-0.0058698 -0.000664966 0.000159625 0.00175707 -0.000415763 -0.00180552)
(-0.0711282 7.7496e-06 0.000157301 0.0974817 0.00428014 -0.00209417)
(-0.0369083 -2.94406e-05 0.000214741 0.0495475 0.00195041 -0.00468259)
(-0.0329196 -9.36441e-05 0.000223359 0.0441494 0.000838413 -0.00522066)
(-0.0241182 -0.00016758 0.000213816 0.0309174 -4.5247e-05 -0.00497911)
(-0.0169286 -0.000250414 0.000197314 0.0196717 -0.000546303 -0.00429817)
(-0.0111576 -0.000354243 0.000174705 0.0104975 -0.000682422 -0.00352598)
(-0.00740522 -0.000504522 0.000145341 0.00458619 -0.00053396 -0.00291392)
(-0.00565044 -0.000705477 0.000109174 0.0022144 -0.00022002 -0.00262834)
(-0.0723642 6.98916e-06 0.000110712 0.0983147 0.00252417 -0.00123368)
(-0.0377954 -3.19978e-05 0.000151209 0.0489657 0.00142187 -0.00290588)
(-0.0337486 -9.85411e-05 0.000156682 0.0435675 0.000862851 -0.00352579)
(-0.0247487 -0.000175803 0.000149083 0.0304539 0.00036615 -0.00368864)
(-0.0173443 -0.000263031 0.000136726 0.0194478 2.70507e-05 -0.00355498)
(-0.0113744 -0.000372308 0.000120416 0.0105173 -0.000134224 -0.00330623)
(-0.00746793 -0.000528922 9.99113e-05 0.00479604 -0.000144473 -0.00309076)
(-0.00557406 -0.000733195 7.51293e-05 0.00246964 -6.60049e-05 -0.00302219)
(-0.0730966 6.17958e-06 7.38427e-05 0.0988434 0.00145987 -0.000770852)
(-0.0383652 -3.41947e-05 0.000100942 0.0487317 0.000955402 -0.00190965)
(-0.0342936 -0.000102528 0.000104393 0.0432768 0.000697152 -0.00250633)
(-0.0251763 -0.000182099 9.89556e-05 0.0301751 0.000442865 -0.00284908)
(-0.017642 -0.000272236 9.03845e-05 0.0192764 0.000240579 -0.00300733)
(-0.0115492 -0.00038503 7.9329e-05 0.0104792 0.000109539 -0.00306347)
(-0.00754658 -0.000545721 6.56855e-05 0.00487117 4.50871e-05 -0.00308898)
(-0.00558462 -0.000751954 4.92911e-05 0.00258634 1.31553e-05 -0.00313972)
(-0.0735074 5.57729e-06 4.22323e-05 0.0991582 0.000761036 -0.000535494)
(-0.0386991 -3.57258e-05 5.77039e-05 0.0486536 0.000548721 -0.00138843)
(-0.0346187 -0.000105254 5.96212e-05 0.0431505 0.000442957 -0.00194797)
(-0.0254358 -0.0001863 5.64108e-05 0.0300303 0.00032793 -0.00236528)
(-0.0178276 -0.000278237 5.14117e-05 0.0191694 0.000224203 -0.00266585)
(-0.011665 -0.000393195 4.50306e-05 0.0104341 0.000142737 -0.00288038)
(-0.00760908 -0.000556436 3.71039e-05 0.00488495 8.4616e-05 -0.0030346)
(-0.00561745 -0.00076361 2.73244e-05 0.00262702 3.14747e-05 -0.00314168)
(-0.073692 5.09579e-06 1.36478e-05 0.099306 0.000236581 -0.000437161)
(-0.038852 -3.66107e-05 1.86128e-05 0.0486345 0.000178879 -0.00116675)
(-0.0347691 -0.000106612 1.92217e-05 0.0431065 0.000151091 -0.00170382)
(-0.0255569 -0.000188336 1.81773e-05 0.0299708 0.000118644 -0.00214723)
(-0.0179153 -0.000281135 1.65537e-05 0.0191196 8.70559e-05 -0.00250465)
(-0.0117215 -0.000397248 1.44849e-05 0.0104069 5.96994e-05 -0.00278499)
(-0.0076418 -0.000562068 1.18492e-05 0.00488171 3.73417e-05 -0.00299333)
(-0.00563857 -0.000768905 8.43676e-06 0.00263594 1.39027e-05 -0.00312107)
(-0.0184376 0.0206576 -0.000747262 0.0677041 -5.32732e-05 -0.0381886)
(-0.0310954 0.00849934 -0.00108579 0.0354194 -0.000111987 -0.00770271)
(-0.0247754 0.0119222 -0.00118408 0.0351525 -0.000123158 -0.0117048)
(-0.0199272 0.0105773 -0.00119135 0.0241279 -0.000134844 -0.00750459)
(-0.0146542 0.00927177 -0.00117526 0.0156614 -0.000147438 -0.00534094)
(-0.0105062 0.00709429 -0.00114672 0.00837139 -0.000163785 -0.0032281)
(-0.00768848 0.00454232 -0.00111401 0.00349157 -0.000188232 -0.001855)
(-0.00713263 0.00186148 -0.00110533 0.00121821 -0.000222033 -0.000717421)
(-0.00656232 0.0156302 -0.000598718 0.0144471 -4.0621e-05 -0.0100192)
(-0.0130332 0.0236059 -0.000917172 0.0120621 -7.65007e-05 -0.00397827)
(-0.0124343 0.0247808 -0.000996517 0.0112551 -8.88202e-05 -0.0037804)
(-0.0101658 0.0228023 -0.00100987 0.0076579 -9.33063e-05 -0.00285057)
(-0.00792136 0.0194651 -0.0010049 0.00475613 -9.69874e-05 -0.00238964)
(-0.00610966 0.0151136 -0.000991912 0.00236616 -0.000102719 -0.00199462)
(-0.00483921 0.0102485 -0.000977332 0.000734308 -0.000114796 -0.00175475)
(-0.00497304 0.00488247 -0.000995833 -0.000102602 -0.000135373 -0.00110343)
(0.00313901 0.0137373 -0.000562846 -0.0230055 -2.89991e-05 0.00893261)
(0.00634183 0.0228292 -0.000893498 -0.0130988 -6.43632e-05 0.000130941)
(0.00505715 0.0249038 -0.000976035 -0.0132443 -7.71543e-05 0.00114114)
(0.00351618 0.0229599 -0.000996672 -0.0101714 -7.91212e-05 0.000140962)
(0.00209785 0.019561 -0.000995035 -0.00766334 -7.73354e-05 -0.000574308)
(0.00092843 0.0151721 -0.000983699 -0.00536049 -7.58036e-05 -0.00133095)
(8.33546e-05 0.0102878 -0.000967966 -0.00358946 -7.913e-05 -0.00195868)
(0.000342351 0.00484872 -0.000979571 -0.0025116 -9.5321e-05 -0.00287128)
(0.0132563 0.0154666 -0.000574391 -0.0724728 -4.25144e-05 0.035747)
(0.0235679 0.00771944 -0.000947804 -0.0356823 -9.84241e-05 0.0040802)
(0.0175068 0.0121845 -0.00103201 -0.036914 -9.71593e-05 0.00904626)
(0.0132205 0.0108485 -0.00105988 -0.026242 -8.78241e-05 0.00477841)
(0.00863327 0.0094584 -0.00105975 -0.0181182 -7.41267e-05 0.00240867)
(0.00509269 0.0072309 -0.00104613 -0.0109831 -6.07517e-05 -1.54452e-05)
(0.00274823 0.00468193 -0.00102251 -0.00602804 -4.80653e-05 -0.00179338)
(0.00242757 0.001846 -0.00101499 -0.00365233 -4.41227e-05 -0.00322498)
(0.0573115 8.92447e-05 0.000327091 -0.0989594 -0.0202312 0.00876079)
(0.0229705 0.000100908 0.000515071 -0.0524867 0.00344588 0.0136019)
(0.023899 7.59803e-05 0.000552264 -0.0488521 0.00156452 0.00872055)
(0.0157075 3.11531e-05 0.000565161 -0.0337704 0.00301221 0.00590932)
(0.0101343 -1.49138e-05 0.000564115 -0.0220333 0.00262438 0.00250153)
(0.00540946 -6.70597e-05 0.000552226 -0.0122757 0.0020814 -0.000226167)
(0.00246875 -0.000153977 0.000527776 -0.00581997 0.00127746 -0.0023272)
(0.0017176 -0.000350298 0.000472979 -0.00333026 0.000363813 -0.00374375)
(0.0573826 4.43026e-05 0.000171802 -0.0969179 -0.0148936 0.00666044)
(0.0276429 4.73702e-05 0.000275819 -0.0582812 -0.000642076 0.0123757)
(0.0234715 2.32369e-05 0.000294705 -0.0493465 0.00252857 0.00973083)
(0.0156811 -1.51746e-05 0.000297929 -0.0341639 0.00384776 0.00621023)
(0.00969918 -6.00939e-05 0.000295603 -0.0217085 0.00377289 0.00270718)
(0.00506085 -0.00011437 0.000288113 -0.011884 0.00304723 -0.000186757)
(0.00223024 -0.000211052 0.000274583 -0.00550556 0.00194776 -0.00232433)
(0.00170543 -0.00044206 0.000253815 -0.00320248 0.000757255 -0.00379698)
(0.0605578 2.4925e-05 0.000112942 -0.0992605 -0.00927716 0.0043295)
(0.0293259 2.1208e-05 0.00018864 -0.0568947 -0.00103796 0.00851202)
(0.0248202 -5.97009e-07 0.000204335 -0.048965 0.00150024 0.00735454)
(0.0164033 -3.53226e-05 0.000206886 -0.0340861 0.00272312 0.00506804)
(0.00986396 -7.91901e-05 0.000204256 -0.0217894 0.00288085 0.00256024)
(0.00488754 -0.000135049 0.000197847 -0.0121628 0.00243217 0.000380809)
(0.00186134 -0.00023766 0.000187595 -0.00595508 0.00163625 -0.00127232)
(0.00107321 -0.000483585 0.000174428 -0.00359483 0.000642299 -0.00237432)
(0.06284 2.00144e-05 8.45839e-05 -0.100929 -0.00559127 0.00265999)
(0.0307114 1.23204e-05 0.000143498 -0.055773 -0.000875671 0.00538881)
(0.0261005 -1.0876e-05 0.000157269 -0.048394 0.000746952 0.00493741)
(0.0172485 -4.59984e-05 0.000159965 -0.0338502 0.00163343 0.00363606)
(0.0102756 -9.08406e-05 0.000157585 -0.0218229 0.00185728 0.00204728)
(0.004972 -0.000148776 0.00015181 -0.0124112 0.00164666 0.000576083)
(0.00172305 -0.000256279 0.000143071 -0.00635205 0.001167 -0.000586237)
(0.000735346 -0.000512903 0.000132389 -0.00400185 0.000489153 -0.00136554)
(0.0642471 1.85543e-05 6.2004e-05 -0.101949 -0.00331996 0.00163364)
(0.0316863 8.77418e-06 0.00010535 -0.0551616 -0.000637451 0.00337928)
(0.0270252 -1.60812e-05 0.000115929 -0.0479979 0.000340759 0.00321869)
(0.0179106 -5.25633e-05 0.000118206 -0.0336226 0.000908035 0.00247936)
(0.0106568 -9.89145e-05 0.000116369 -0.0217874 0.00109717 0.0015039)
(0.00510914 -0.000158757 0.000111815 -0.0125291 0.00101805 0.00055325)
(0.00168047 -0.000269847 0.000105089 -0.00657888 0.000752246 -0.000226287)
(0.000547199 -0.000534139 9.71606e-05 -0.00426493 0.000323662 -0.000742719)
(0.0650821 1.79839e-05 4.24591e-05 -0.102558 -0.00190741 0.00103531)
(0.0323177 7.02424e-06 7.20069e-05 -0.0548596 -0.00042085 0.00217745)
(0.0276339 -1.90918e-05 7.93257e-05 -0.0477778 0.00014172 0.00213361)
(0.0183613 -5.68534e-05 8.09767e-05 -0.0334653 0.00047724 0.00169453)
(0.0109334 -0.000104539 7.97063e-05 -0.0217286 0.000606716 0.00107894)
(0.00522787 -0.000165843 7.65187e-05 -0.0125603 0.000584158 0.000455611)
(0.00167961 -0.000279419 7.18204e-05 -0.00668244 0.000444814 -6.95025e-05)
(0.000465964 -0.000548934 6.62405e-05 -0.00441431 0.00019454 -0.000413922)
(0.0655481 1.77586e-05 2.46968e-05 -0.102902 -0.000982005 0.000710123)
(0.0326886 6.11606e-06 4.17895e-05 -0.054721 -0.000237308 0.00151377)
(0.0279965 -2.08373e-05 4.60247e-05 -0.0476707 5.15865e-05 0.00151462)
(0.0186343 -5.95207e-05 4.69931e-05 -0.0333747 0.000226071 0.00122681)
(0.0111057 -0.000108137 4.62424e-05 -0.0216794 0.000298913 0.000803885)
(0.0053076 -0.000170427 4.44087e-05 -0.0125558 0.000295473 0.000364555)
(0.00168904 -0.000285741 4.15753e-05 -0.00672052 0.000229119 -1.08048e-05)
(0.000434083 -0.000558348 3.75377e-05 -0.0044887 0.000100706 -0.000253926)