/*--------------------------------*- C++ -*----------------------------------*\
| =========                 |                                                 |
| \\      /  F ield         | foam-extend: Open Source CFD                    |
|  \\    /   O peration     | Version:     3.1                                |
|   \\  /    A nd           | Web:         http://www.extend-project.de       |
|    \\/     M anipulation  |                                                 |
\*---------------------------------------------------------------------------*/
FoamFile
{
    version     2.0;
    format      ascii;
    class       pointVectorField;
    location    "0.9";
    object      pointD;
}
// * * * * * * * * * * * * * * * * * * * * * * * * * * * * * * * * * * * * * //

dimensions      [0 1 0 0 0 0 0];

internalField   nonuniform List<vector> 
405
(
(0 0 0)
(0 0 0)
(0 0 0)
(0 0 0)
(0 0 0)
(0.00238183 0.00232787 0.00124305)
(0.00142446 0.000775556 0.000771645)
(0.00108108 -0.000126144 -3.89152e-07)
(0.00122197 -0.00109859 -0.000800493)
(0.0018487 -0.00281733 -0.00131237)
(0.00466121 0.00335056 0.00114088)
(0.00389434 0.00127485 0.000711869)
(0.0035009 -0.000262743 6.14126e-05)
(0.00358915 -0.00185469 -0.00061022)
(0.00396489 -0.00408929 -0.00107764)
(0.00775261 0.00431159 0.00107883)
(0.00702884 0.00166549 0.000689891)
(0.00664394 -0.000485006 0.000134239)
(0.00664887 -0.00269122 -0.000432326)
(0.00688176 -0.00550817 -0.00084882)
(0.0111993 0.00485937 0.000895091)
(0.0105819 0.0018284 0.000610276)
(0.0102179 -0.000773114 0.000207517)
(0.0101434 -0.00342263 -0.000201767)
(0.0102074 -0.00659022 -0.000502521)
(0.0148697 0.0050963 0.000711891)
(0.0143414 0.00182128 0.000530235)
(0.0139952 -0.00109733 0.000269627)
(0.0138554 -0.0040523 4.64834e-06)
(0.0137932 -0.00742318 -0.00018548)
(0.0185826 0.00508193 0.000557103)
(0.0181307 0.00169069 0.000462707)
(0.0178009 -0.0014274 0.000319997)
(0.0176125 -0.00456988 0.000174683)
(0.0174627 -0.0080206 7.69568e-05)
(0.0222327 0.00491605 0.000457573)
(0.0218278 0.00148977 0.000418811)
(0.0215081 -0.00174065 0.000362048)
(0.0212904 -0.00498713 0.000304343)
(0.0210985 -0.0084478 0.000265746)
(0.0257932 0.00469438 0.000426538)
(0.0253648 0.00126663 0.000412362)
(0.0250065 -0.00202013 0.000403936)
(0.0248097 -0.00532976 0.000394303)
(0.0246424 -0.0087918 0.000380699)
(0 0 0)
(0 0 0)
(0 0 0)
(0 0 0)
(0 0 0)
(0.00263325 0.00211221 0.000749411)
(0.0017096 0.000584974 0.000455102)
(0.00142659 -0.000172531 -2.22503e-05)
(0.00153732 -0.00096281 -0.000534529)
(0.00213559 -0.00263457 -0.000877385)
(0.00500457 0.00332593 0.000847791)
(0.00427153 0.00122309 0.000516983)
(0.0039306 -0.000364312 2.82478e-05)
(0.00397637 -0.00199811 -0.000477612)
(0.00431878 -0.00425626 -0.000841147)
(0.00804867 0.00429195 0.000825348)
(0.00736488 0.00162229 0.000520622)
(0.00701965 -0.000597094 0.000100142)
(0.00698114 -0.00286559 -0.000329992)
(0.00717183 -0.00569635 -0.000656529)
(0.0114322 0.00486543 0.00072616)
(0.0108424 0.001809 0.000488374)
(0.0105024 -0.000874169 0.000169321)
(0.0103887 -0.00360004 -0.000155453)
(0.0104181 -0.00678544 -0.00040417)
(0.0150219 0.0051084 0.000608917)
(0.0145136 0.00181329 0.000444762)
(0.0141817 -0.00117786 0.000227512)
(0.0140097 -0.00420106 6.87646e-06)
(0.0139195 -0.00758626 -0.000161325)
(0.018664 0.00509222 0.000506338)
(0.0182248 0.00168596 0.000406162)
(0.0179029 -0.00148846 0.000274123)
(0.0176909 -0.00468434 0.000140484)
(0.0175214 -0.00814693 4.03122e-05)
(0.0222641 0.0049156 0.000441703)
(0.0218653 0.00147821 0.000383669)
(0.0215489 -0.00178909 0.000312518)
(0.0213178 -0.00507081 0.000241139)
(0.0211151 -0.00854126 0.000185354)
(0.0258077 0.00468706 0.000426453)
(0.0253834 0.0012494 0.000387218)
(0.0250278 -0.00206395 0.000349178)
(0.0248216 -0.00539862 0.000310427)
(0.0246468 -0.00886932 0.000273254)
(0 0 0)
(0 0 0)
(0 0 0)
(0 0 0)
(0 0 0)
(0.00280415 0.00213475 0.000436572)
(0.00183488 0.000558771 0.000263245)
(0.00154599 -0.000191188 -2.23299e-05)
(0.00167794 -0.000970958 -0.000334073)
(0.00231479 -0.00271591 -0.000545849)
(0.0052441 0.00328083 0.000553842)
(0.00446918 0.00117014 0.000336633)
(0.00411506 -0.00040936 1.63254e-05)
(0.00418562 -0.00203587 -0.000317304)
(0.0045707 -0.00430867 -0.000559691)
(0.00827576 0.00422246 0.000584249)
(0.00757813 0.00156366 0.000367781)
(0.00722645 -0.000657095 7.53332e-05)
(0.00719542 -0.00292657 -0.000225022)
(0.00740033 -0.00574225 -0.000456169)
(0.011629 0.00478835 0.000555794)
(0.0110324 0.00175082 0.000369978)
(0.0106871 -0.00093559 0.000134494)
(0.0105732 -0.00366413 -0.000105469)
(0.0106083 -0.00682687 -0.000296794)
(0.015173 0.00503579 0.000504462)
(0.0146644 0.00176157 0.000359088)
(0.014329 -0.00123389 0.000185852)
(0.0141521 -0.00426058 1.04495e-05)
(0.0140602 -0.00762207 -0.000134676)
(0.0187724 0.00503265 0.0004547)
(0.0183358 0.00164231 0.000347085)
(0.0180122 -0.00153709 0.000227875)
(0.0177938 -0.00473689 0.000108147)
(0.0176191 -0.00818208 3.70567e-06)
(0.0223428 0.00487451 0.000423681)
(0.0219482 0.00144236 0.000342236)
(0.0216317 -0.00183173 0.000261921)
(0.0213944 -0.00511885 0.000182175)
(0.0211844 -0.00858248 0.000105271)
(0.0258787 0.0046603 0.00042157)
(0.025461 0.00121958 0.000351494)
(0.0251073 -0.0021037 0.000290253)
(0.0248929 -0.00544601 0.00022894)
(0.024708 -0.00891691 0.000162876)
(0 0 0)
(0 0 0)
(0 0 0)
(0 0 0)
(0 0 0)
(0.00290159 0.00216137 0.000253791)
(0.00189148 0.000552403 0.000153926)
(0.00159301 -0.000199719 -1.70159e-05)
(0.00174161 -0.000982807 -0.000205144)
(0.0024139 -0.00278049 -0.00032998)
(0.00538197 0.00326281 0.000350086)
(0.00457432 0.00114192 0.000216073)
(0.00420815 -0.000430768 1.20256e-05)
(0.00429813 -0.00205168 -0.000201264)
(0.00471665 -0.00433964 -0.000352441)
(0.00842779 0.00417391 0.000396962)
(0.00770698 0.00152101 0.000253959)
(0.00734585 -0.00068876 5.77072e-05)
(0.00732721 -0.00294751 -0.000144277)
(0.00755699 -0.00575735 -0.000297964)
(0.011773 0.00472407 0.000406626)
(0.0111635 0.00170107 0.000272998)
(0.0108115 -0.000972191 0.000105422)
(0.0107036 -0.00368735 -6.53229e-05)
(0.010753 -0.00683452 -0.000203145)
(0.0152986 0.00496911 0.00039707)
(0.0147849 0.001712 0.000281348)
(0.0144451 -0.00127111 0.000148365)
(0.01427 -0.00428505 1.41116e-05)
(0.0141838 -0.00762846 -0.000101197)
(0.0188782 0.00497445 0.000383021)
(0.0184417 0.00159791 0.000285841)
(0.0181157 -0.00157257 0.000184242)
(0.0178964 -0.0047628 8.27522e-05)
(0.017721 -0.0081933 -1.12479e-05)
(0.0224343 0.00483204 0.000374975)
(0.0220434 0.00140562 0.000291366)
(0.0217261 -0.00186502 0.000212702)
(0.0214859 -0.00514765 0.000135008)
(0.02127 -0.00860365 5.62055e-05)
(0.0259673 0.0046327 0.000379545)
(0.0255552 0.00119045 0.000301917)
(0.025201 -0.00213604 0.000233703)
(0.0249816 -0.00548004 0.000165853)
(0.0247871 -0.0089494 9.27837e-05)
(0 0 0)
(0 0 0)
(0 0 0)
(0 0 0)
(0 0 0)
(0.00295601 0.00217954 0.00014894)
(0.00191809 0.000551165 9.11951e-05)
(0.00161248 -0.000203543 -1.12588e-05)
(0.00177126 -0.00099068 -0.000124254)
(0.00246809 -0.00282085 -0.000197203)
(0.00546253 0.00325895 0.000220072)
(0.00463109 0.00112877 0.000138379)
(0.00425676 -0.00044073 1.00678e-05)
(0.00435876 -0.00205951 -0.000124182)
(0.00480092 -0.00436132 -0.00021673)
(0.0085246 0.0041497 0.000264934)
(0.00778481 0.00149634 0.000172965)
(0.00741696 -0.000705115 4.40898e-05)
(0.00740739 -0.00295585 -8.8611e-05)
(0.00765653 -0.00576757 -0.000187758)
(0.011874 0.00468543 0.000288644)
(0.011252 0.00166858 0.000196584)
(0.0108951 -0.00099324 8.07664e-05)
(0.0107929 -0.00369692 -3.71771e-05)
(0.0108551 -0.00683818 -0.000132284)
(0.0153963 0.0049249 0.000299215)
(0.0148759 0.00167666 0.000212744)
(0.014533 -0.00129464 0.000114737)
(0.0143607 -0.00429657 1.59809e-05)
(0.0142811 -0.00763099 -7.01952e-05)
(0.01897 0.00493273 0.000303831)
(0.018531 0.00156412 0.000224585)
(0.0182033 -0.00159677 0.000143535)
(0.0179845 -0.00477705 6.28007e-05)
(0.0178107 -0.00819915 -1.38042e-05)
(0.0225212 0.00479855 0.00030788)
(0.0221309 0.00137603 0.00023433)
(0.0218126 -0.00188901 0.000165914)
(0.0215712 -0.00516541 9.84827e-05)
(0.0213528 -0.0086162 2.91404e-05)
(0.0260535 0.0046079 0.000314715)
(0.0256431 0.00116569 0.000243777)
(0.0252877 -0.00215998 0.000180673)
(0.0250656 -0.00550238 0.000118062)
(0.0248665 -0.0089698 5.12512e-05)
(0 0 0)
(0 0 0)
(0 0 0)
(0 0 0)
(0 0 0)
(0.00298671 0.00219142 8.72068e-05)
(0.00193129 0.000551612 5.39792e-05)
(0.00162092 -0.000205186 -6.66319e-06)
(0.00178575 -0.000995577 -7.34609e-05)
(0.00249809 -0.00284528 -0.000115602)
(0.00550991 0.003261 0.000136236)
(0.00466264 0.00112357 8.72103e-05)
(0.00428289 -0.000445135 8.33329e-06)
(0.00439211 -0.00206406 -7.41372e-05)
(0.00484958 -0.00437669 -0.000129728)
(0.00858544 0.00414051 0.00017205)
(0.00783235 0.00148402 0.000114447)
(0.00745997 -0.000713257 3.23843e-05)
(0.00745617 -0.00296023 -5.20581e-05)
(0.0077182 -0.00577678 -0.000114211)
(0.0119426 0.00466641 0.000196578)
(0.0113111 0.00165027 0.000135769)
(0.0109508 -0.00100488 5.88917e-05)
(0.0108526 -0.00370198 -1.93176e-05)
(0.0109237 -0.00684318 -8.21885e-05)
(0.0154681 0.00490036 0.000212998)
(0.0149418 0.00165502 0.000152349)
(0.0145966 -0.00130878 8.39406e-05)
(0.0144265 -0.00430314 1.51128e-05)
(0.014352 -0.00763475 -4.53473e-05)
(0.0190422 0.00490748 0.000224229)
(0.0186003 0.00154204 0.000165252)
(0.0182712 -0.00161228 0.000105361)
(0.0180531 -0.00478575 4.58004e-05)
(0.017881 -0.0082043 -1.11971e-05)
(0.0225931 0.00477637 0.000232473)
(0.0222019 0.00135556 0.000175091)
(0.0218827 -0.0019051 0.000121693)
(0.0216407 -0.00517671 6.91116e-05)
(0.0214212 -0.00862484 1.50235e-05)
(0.0261261 0.00458987 0.000238558)
(0.0257152 0.0011476 0.000182112)
(0.0253581 -0.00217652 0.000131427)
(0.0251348 -0.00551694 8.11767e-05)
(0.0249335 -0.00898323 2.80299e-05)
(0 0 0)
(0 0 0)
(0 0 0)
(0 0 0)
(0 0 0)
(0.00300402 0.00219892 4.86458e-05)
(0.00193811 0.000552476 3.04068e-05)
(0.00162478 -0.000205845 -3.49089e-06)
(0.00179311 -0.000998544 -4.07324e-05)
(0.00251473 -0.00285967 -6.38681e-05)
(0.00553747 0.00326458 7.92024e-05)
(0.00468031 0.0011221 5.14279e-05)
(0.00429715 -0.00044694 6.08175e-06)
(0.00441054 -0.00206689 -4.12664e-05)
(0.00487735 -0.00438704 -7.27337e-05)
(0.0086226 0.00413858 0.000103568)
(0.00786093 0.00147868 6.98841e-05)
(0.00748562 -0.000717101 2.14385e-05)
(0.00748525 -0.00296297 -2.83583e-05)
(0.00775519 -0.00578432 -6.46835e-05)
(0.0119868 0.00465872 0.000122335)
(0.0113489 0.00164111 8.54056e-05)
(0.0109863 -0.00101098 3.86042e-05)
(0.0108905 -0.00370517 -8.95731e-06)
(0.0109673 -0.00684846 -4.71274e-05)
(0.0155169 0.00488861 0.000136557)
(0.0149864 0.00164323 9.81964e-05)
(0.0146395 -0.00131677 5.50323e-05)
(0.0144709 -0.00430731 1.16542e-05)
(0.0143996 -0.00763906 -2.65746e-05)
(0.0190936 0.00489409 0.000147154)
(0.0186493 0.00152922 0.000108404)
(0.018319 -0.00162152 6.91435e-05)
(0.0181014 -0.00479127 3.01396e-05)
(0.0179304 -0.00820894 -7.28938e-06)
(0.0226458 0.00476354 0.000154744)
(0.0222534 0.00134303 0.000115931)
(0.0219332 -0.00191506 7.97342e-05)
(0.0216909 -0.00518383 4.41067e-05)
(0.021471 -0.00863101 7.54074e-06)
(0.02618 0.00457852 0.000158934)
(0.0257677 0.00113593 0.00012035)
(0.0254092 -0.00218704 8.5534e-05)
(0.0251853 -0.00552607 5.10243e-05)
(0.0249831 -0.00899196 1.47111e-05)
(0 0 0)
(0 0 0)
(0 0 0)
(0 0 0)
(0 0 0)
(0.00301294 0.00220312 2.18629e-05)
(0.00194147 0.000553169 1.37587e-05)
(0.00162652 -0.000206081 -1.44432e-06)
(0.00179669 -0.00100015 -1.81085e-05)
(0.00252321 -0.00286729 -2.83758e-05)
(0.00555195 0.00326745 3.65094e-05)
(0.00468943 0.00112197 2.39222e-05)
(0.00430437 -0.000447591 3.22593e-06)
(0.00441993 -0.00206849 -1.83583e-05)
(0.00489174 -0.00439303 -3.26019e-05)
(0.00864276 0.00413907 4.87557e-05)
(0.00787633 0.00147676 3.31887e-05)
(0.00749937 -0.000718737 1.07069e-05)
(0.00750079 -0.00296457 -1.2381e-05)
(0.00777497 -0.00578922 -2.91546e-05)
(0.0120116 0.00465633 5.87232e-05)
(0.0113701 0.00163715 4.12677e-05)
(0.0110062 -0.00101384 1.91337e-05)
(0.0109117 -0.00370706 -3.34167e-06)
(0.0109915 -0.00685234 -2.13737e-05)
(0.0155452 0.00488386 6.66693e-05)
(0.0150122 0.00163768 4.81089e-05)
(0.0146644 -0.00132076 2.7254e-05)
(0.0144964 -0.00430974 6.31143e-06)
(0.0144269 -0.00764236 -1.21771e-05)
(0.0191242 0.00488803 7.27786e-05)
(0.0186783 0.00152284 5.36308e-05)
(0.0183473 -0.00162631 3.42421e-05)
(0.0181299 -0.0047944 1.49914e-05)
(0.0179596 -0.0082122 -3.49465e-06)
(0.0226777 0.00475723 7.71171e-05)
(0.0222843 0.00133651 5.76357e-05)
(0.0219634 -0.00192038 3.94321e-05)
(0.0217209 -0.0051878 2.1518e-05)
(0.021501 -0.00863483 3.17034e-06)
(0.0262129 0.00457249 7.91853e-05)
(0.0257995 0.00112957 5.97202e-05)
(0.0254399 -0.00219279 4.21148e-05)
(0.0252157 -0.00553112 2.46634e-05)
(0.0250133 -0.00899698 6.34672e-06)
(0 0 0)
(0 0 0)
(0 0 0)
(0 0 0)
(0 0 0)
(0.0030157 0.00220447 0)
(0.00194248 0.000553427 -0)
(0.00162702 -0.000206137 0)
(0.00179776 -0.00100066 0)
(0.00252581 -0.00286968 0)
(0.00555648 0.00326851 0)
(0.00469225 0.00112205 -0)
(0.00430659 -0.000447746 0)
(0.00442283 -0.00206902 0)
(0.00489619 -0.004395 0)
(0.00864916 0.00413949 0)
(0.0078812 0.00147631 -0)
(0.00750371 -0.000719181 0)
(0.00750569 -0.00296511 0)
(0.0077812 -0.00579092 0)
(0.0120196 0.00465589 0)
(0.0113769 0.00163608 -0)
(0.0110126 -0.00101467 0)
(0.0109185 -0.00370769 0)
(0.0109992 -0.00685375 0)
(0.0155545 0.00488266 0)
(0.0150206 0.00163608 -0)
(0.0146725 -0.00132195 0)
(0.0145047 -0.00431055 0)
(0.0144358 -0.00764357 0)
(0.0191344 0.00488634 0)
(0.0186879 0.00152094 -0)
(0.0183566 -0.00162779 0)
(0.0181393 -0.00479543 0)
(0.0179692 -0.00821336 0)
(0.0226884 0.00475536 0)
(0.0222946 0.0013345 -0)
(0.0219735 -0.00192204 0)
(0.0217309 -0.00518908 0)
(0.0215109 -0.00863613 0)
(0.0262239 0.0045706 0)
(0.0258101 0.00112756 0)
(0.0254501 -0.0021946 0)
(0.0252258 -0.00553273 0)
(0.0250233 -0.00899862 0)
)
;

boundaryField
{
    interface
    {
        type            calculated;
    }
    symmetry
    {
        type            symmetryPlane;
    }
    bottom
    {
        type            fixedValue;
        value           uniform (0 0 0);
    }
}


// ************************************************************************* //
