/*--------------------------------*- C++ -*----------------------------------*\
| =========                 |                                                 |
| \\      /  F ield         | foam-extend: Open Source CFD                    |
|  \\    /   O peration     | Version:     3.1                                |
|   \\  /    A nd           | Web:         http://www.extend-project.de       |
|    \\/     M anipulation  |                                                 |
\*---------------------------------------------------------------------------*/
FoamFile
{
    version     2.0;
    format      ascii;
    class       volScalarField;
    location    "0.9";
    object      sigmaCauchyEq;
}
// * * * * * * * * * * * * * * * * * * * * * * * * * * * * * * * * * * * * * //

dimensions      [1 -1 -2 0 0 0 0];

internalField   nonuniform List<scalar> 
256
(
785.287
287.35
268.885
463.794
469.317
351.166
326.556
410.792
421.139
325.454
306.462
350.316
307.5
281.022
269.333
266.57
214.075
229.01
221.981
188.237
136.302
172.847
169.076
120.612
80.5856
115.729
113.574
69.9747
54.2207
59.9126
56.0542
44.2516
757.483
332.771
309.97
460.126
497.683
377.399
352.355
432.997
415.175
315.9
298.397
352.555
302.113
260.77
247.489
261.44
205.43
204.723
195.987
178.201
127.774
150.659
145.639
109.935
73.5877
99.1817
96.5228
61.4781
51.3641
52.9
48.381
40.4638
767.816
350.687
324.311
458.665
490.431
387.274
363.94
432.792
411.542
320.098
304.077
353.122
299.365
258.805
246.055
260.477
203.678
200.05
191.205
176.594
126.81
145.328
140.041
108.246
73.0475
95.0953
92.1826
59.5473
50.7092
51.8641
46.24
36.2855
778.168
358.436
330.249
459.006
487.454
394.044
371.278
433.095
409.391
325.391
310.249
353.681
298.324
262.189
249.939
260.952
203.788
201.944
193.212
176.997
127.789
146.237
140.845
108.699
74.4072
95.6203
92.4968
59.7764
51.8351
52.4528
46.0173
35.1739
785.433
361.962
332.85
459.743
487.431
398.493
375.781
434.404
408.975
329.748
315.045
354.776
298.313
266.086
254.176
261.951
204.491
205.17
196.576
177.95
129.058
148.701
143.28
109.641
75.8678
97.3427
94.102
60.5992
53.1096
53.424
46.5581
35.5542
790.145
363.654
334.048
460.374
488.346
401.256
378.422
435.731
409.376
332.8
318.27
355.887
298.704
269.128
257.413
262.926
205.163
207.927
199.443
178.816
129.996
150.951
145.543
110.434
76.8564
98.9327
95.6527
61.3067
53.9789
54.2537
47.1939
36.1917
792.975
364.484
334.613
460.804
489.265
402.843
379.869
436.697
409.929
334.671
320.189
356.715
299.121
271.086
259.465
263.633
205.63
209.761
201.349
179.407
130.545
152.478
147.093
110.942
77.3952
100.007
96.7223
61.7523
54.4554
54.8085
47.6622
36.6547
794.308
364.834
334.843
461.018
489.794
403.566
380.508
437.19
410.278
335.55
321.073
357.143
299.369
272.027
260.44
263.995
205.861
210.654
202.274
179.696
130.787
153.224
147.856
111.179
77.6171
100.529
97.2462
61.9543
54.6527
55.0808
47.8974
36.8755
)
;

boundaryField
{
    interface
    {
        type            calculated;
        value           nonuniform List<scalar> 
192
(
1238.64
561.893
527.386
360.392
234.433
132.824
70.1736
48.2502
1175.4
600.983
521.964
362.809
234.461
133.923
71.2785
49.1145
1191.58
582.652
513.463
358.146
232.402
133.809
71.7387
46.9796
1209.56
573.849
507.551
354.63
231.289
134.648
73.8718
48.7179
1222.4
571.304
505.079
352.788
230.805
135.394
75.5319
50.4367
1230.77
571.238
504.529
352.098
230.613
135.802
76.4356
51.4702
1235.76
571.819
504.69
351.947
230.543
135.95
76.8084
51.9309
1238.1
572.253
504.905
351.954
230.519
135.98
76.9149
52.0732
830.407
433.853
428.231
311.896
222.649
144.791
87.7829
58.4095
257.031
327.648
336.271
297.723
248.187
189.894
128.566
67.341
251.029
297.647
317.629
287.649
242.708
187.155
126.865
63.7743
616.033
365.7
363.129
274.341
200.374
131.814
78.6843
48.6796
817.645
453.211
425.02
300.848
198.753
110.584
52.9526
37.8088
802.218
497.072
428.237
304.612
197.458
109.46
52.5835
38.2314
820.073
489.771
426.847
303.465
196.435
109.074
51.4547
31.0025
835.427
486.158
425.9
302.592
196.034
109.374
52.1504
30.0483
845.66
485.836
426.32
302.506
196.05
109.703
52.9861
31.1089
852.004
486.605
427.263
302.834
196.19
109.884
53.5108
32.2732
855.645
487.418
428.109
303.207
196.32
109.943
53.7506
32.9936
857.3
487.881
428.576
303.427
196.387
109.949
53.8306
33.3025
55.2602
53.7115
53.5506
54.5143
55.7734
56.6213
57.0979
57.2786
37.806
37.742
38.1772
38.761
39.3577
39.843
40.1783
40.3518
28.0603
26.6944
24.446
22.8892
22.3291
22.3178
22.4588
22.5594
46.2689
43.4958
38.5752
36.698
36.9036
37.5522
38.076
38.3328
)
;
    }
    symmetry
    {
        type            symmetryPlane;
    }
    bottom
    {
        type            calculated;
        value           nonuniform List<scalar> 
32
(
711.476
604.828
596.576
601.586
606.647
610.159
612.285
613.278
197.309
223.9
232.8
234.674
234.619
234.206
233.873
233.704
210.615
221.475
223.733
222.827
221.736
221.003
220.601
220.429
500.692
418.125
392.745
386.003
384.75
384.941
385.345
385.594
)
;
    }
}


// ************************************************************************* //
