/*--------------------------------*- C++ -*----------------------------------*\
| =========                 |                                                 |
| \\      /  F ield         | foam-extend: Open Source CFD                    |
|  \\    /   O peration     | Version:     3.1                                |
|   \\  /    A nd           | Web:         http://www.extend-project.de       |
|    \\/     M anipulation  |                                                 |
\*---------------------------------------------------------------------------*/
FoamFile
{
    version     2.0;
    format      ascii;
    class       volSymmTensorField;
    location    "0.9";
    object      sigma;
}
// * * * * * * * * * * * * * * * * * * * * * * * * * * * * * * * * * * * * * //

dimensions      [1 -1 -2 0 0 0 0];

internalField   nonuniform List<symmTensor> 
256
(
(404.086 168.322 -7.87629 987.348 100.251 476.111)
(-0.852199 139.804 -21.9476 130.344 35.576 18.2406)
(-217.649 127.747 -23.38 -393.392 -44.246 -219.754)
(-613.624 132.877 -9.35403 -1201.85 -114.795 -655.617)
(-279.18 66.1504 -9.14579 217.122 -13.531 -152.889)
(-151.229 178.376 -33.514 28.5194 -4.87804 -104.459)
(-65.0578 174.14 -35.9707 -219.708 12.5788 -78.3887)
(50.835 62.8535 -11.9613 -409.619 23.3495 -35.0338)
(-140.728 80.4695 -4.06026 282.274 -2.77429 -33.1148)
(-147.517 169.815 -20.9521 14.0705 0.193153 -95.2264)
(-80.978 170.16 -21.8027 -209.494 4.94826 -98.1029)
(-80.8874 81.4331 -4.89904 -468.793 9.3917 -152.124)
(-163.735 69.0096 -3.66964 148.131 -11.1881 -76.7088)
(-141.814 151.82 -15.227 -18.9332 -2.41471 -99.7513)
(-75.8788 152.44 -15.7634 -169.684 5.97495 -89.661)
(-48.4574 70.2294 -4.49934 -327.373 15.8938 -105.455)
(-148.175 58.8179 -2.27184 64.1083 -11.1141 -81.1056)
(-130.24 127.065 -10.0553 -43.227 -2.73002 -97.6837)
(-77.6153 127.401 -10.5496 -141.879 4.26205 -90.4662)
(-56.6647 59.6351 -2.98255 -241.219 13.2704 -101.529)
(-142.736 44.3582 -1.78293 -12.0145 -9.94721 -91.3072)
(-122.007 97.6769 -6.5963 -64.2769 -2.80994 -97.3221)
(-78.2119 97.8974 -7.01038 -118.16 2.85657 -90.3198)
(-56.4414 45.0618 -2.31598 -164.727 10.2893 -92.6724)
(-137.452 27.9586 -1.77952 -61.539 -7.17664 -95.3864)
(-116.554 65.7924 -4.1054 -79.2234 -2.50564 -96.9571)
(-78.5808 66.0048 -4.3218 -101.138 1.54816 -91.0713)
(-56.6031 28.9124 -1.92683 -113.864 6.36143 -89.5041)
(-146.021 11.406 -1.60154 -88.5567 -2.53374 -101.446)
(-129.353 31.3088 -1.48459 -96.0475 -0.989608 -106.59)
(-65.4634 31.0544 -1.5762 -83.7894 0.343231 -84.7713)
(-47.431 11.3045 -1.42404 -87.8717 1.79363 -87.5026)
(387.981 197.587 -6.23533 943.929 68.4809 482.466)
(-3.96057 176.979 -18.4823 107.017 22.9718 22.0781)
(-212.361 167.014 -20.1644 -379.087 -33.0397 -216.487)
(-601.562 164.471 -8.24144 -1173.1 -84.3745 -656.469)
(-200.144 74.3852 -10.3515 317.427 11.2677 -50.233)
(-102.398 193.646 -33.5862 76.7393 5.13798 -48.4039)
(-127.107 190.856 -35.9985 -303.3 4.35889 -137.006)
(-42.0795 72.9879 -12.9023 -544.747 0.00749485 -136.56)
(-135.684 75.828 -6.64923 284.121 -2.93433 -26.6616)
(-129.409 164.171 -25.317 25.114 1.68746 -78.2968)
(-98.5413 163.971 -26.5181 -229.264 9.71291 -107.889)
(-86.2558 75.5884 -8.5051 -478.621 16.0647 -150.534)
(-147.804 61.566 -3.65625 161.98 -11.1045 -61.9899)
(-124.436 138.939 -16.2904 -5.53159 -1.0559 -84.6752)
(-92.6571 139.023 -17.2836 -183.703 10.3515 -100.665)
(-64.9639 62.0042 -5.56076 -342.526 21.881 -116.263)
(-141.092 49.7534 -0.827145 67.7335 -13.6956 -76.8466)
(-119.264 112.018 -9.03115 -35.0931 -2.59772 -89.5071)
(-87.3554 112.013 -9.92354 -145.903 8.80894 -95.3501)
(-63.7581 50.0864 -2.55365 -241.854 20.7983 -103.233)
(-137.866 36.3582 0.938756 -10.4257 -12.6078 -89.1936)
(-115.06 84.2254 -3.71205 -59.5357 -2.98955 -92.9227)
(-84.3634 84.3136 -4.42026 -118.393 6.43413 -92.6137)
(-61.8059 36.9318 -0.412733 -162.995 16.4981 -93.6582)
(-135.696 22.0858 1.88062 -62.7397 -8.80872 -96.288)
(-113.897 55.9592 0.0414074 -78.6086 -2.42923 -96.6292)
(-81.594 56.2168 -0.382089 -99.4781 3.97349 -91.1384)
(-59.3817 23.2387 1.13017 -110.778 10.5736 -88.7658)
(-144.193 9.09098 2.67569 -88.3441 -3.32499 -102.959)
(-128.31 26.8156 3.1291 -96.2338 -0.849748 -108.405)
(-68.6567 26.6281 2.87025 -83.875 1.72145 -85.9147)
(-51.4247 9.12717 2.37594 -88.1263 4.21467 -88.8011)
(407.121 210.186 -4.3586 972.346 40.7206 522.632)
(-0.660169 189.658 -12.6 108.808 13.1979 32.8695)
(-217.776 180.487 -13.9005 -388.836 -21.1422 -229.205)
(-630.512 177.891 -6.07677 -1217.06 -52.7641 -704.473)
(-201.936 78.513 -8.41893 316.21 12.8826 -15.6629)
(-100.144 202.599 -24.2041 77.8607 6.05215 -31.7257)
(-133.258 200.238 -26.0321 -318.093 2.3167 -155.86)
(-44.6636 76.8284 -10.5335 -555.31 -3.28298 -172.861)
(-135.778 76.9472 -6.60608 286.851 2.4607 -1.77112)
(-128.964 168.107 -20.0349 26.5846 3.74213 -66.4425)
(-100.927 167.912 -20.9578 -238.743 7.95565 -118.258)
(-89.6103 76.3424 -7.88102 -490.475 10.5014 -175.499)
(-147.91 61.1138 -3.94474 163.625 -4.64918 -48.1139)
(-124.061 138.203 -13.4687 -4.06522 1.32608 -76.8274)
(-94.4651 138.284 -14.2085 -188.223 9.45319 -105.519)
(-68.3105 61.5061 -5.07286 -349.855 16.5738 -129.761)
(-143.005 48.1262 -1.41089 67.7276 -7.8565 -72.9836)
(-119.282 109.135 -7.23767 -33.5993 -0.326001 -85.1152)
(-88.8067 109.19 -7.86268 -147.742 8.59814 -96.7673)
(-64.9045 48.5574 -2.36716 -244.532 16.8814 -106.531)
(-140.437 34.471 0.487919 -10.8927 -7.96606 -92.1584)
(-115.367 80.7848 -2.33188 -58.3587 -1.05615 -91.3633)
(-85.3891 81.0136 -2.79926 -118.588 6.6849 -91.7662)
(-61.7703 35.2943 -0.212556 -163.293 14.0054 -90.2442)
(-138.193 20.422 1.69916 -62.9185 -5.77588 -103.572)
(-114.279 53.2182 1.22053 -77.7228 -0.991409 -97.1857)
(-82.1562 53.6756 0.940802 -98.897 4.39952 -88.8645)
(-58.3689 21.9471 1.32254 -109.853 9.41969 -80.8609)
(-147.348 8.60914 2.50338 -89.9976 -2.16009 -113.96)
(-128.207 25.7938 3.64449 -95.1926 -0.301644 -109.88)
(-68.6056 25.7397 3.42666 -82.5172 1.82508 -81.952)
(-47.9823 8.83202 2.28952 -84.0242 3.7453 -75.6512)
(418.98 216.234 -2.80446 993.022 24.0164 548.06)
(0.901471 194.811 -8.12002 110.871 7.67349 39.0144)
(-222.076 185.971 -8.99752 -396.563 -13.0751 -238.786)
(-650.175 184.23 -3.98103 -1248.49 -31.9982 -738.071)
(-205.438 80.7055 -5.77151 314.667 10.6538 6.25686)
(-100.819 208.197 -16.221 77.3775 5.25862 -23.0181)
(-134.458 206.088 -17.4693 -323.686 1.50591 -167.054)
(-43.4858 78.9492 -7.25543 -558.86 -3.19618 -198.172)
(-137.287 78.8732 -5.00649 287.222 4.8075 18.0405)
(-130.597 172.429 -14.318 25.6682 4.27248 -59.3484)
(-100.649 172.317 -14.9561 -242.672 5.82897 -125.569)
(-89.9535 78.2333 -5.87706 -496.203 6.03733 -196.471)
(-149.529 62.2192 -3.24376 163.829 0.127827 -34.8651)
(-125.502 140.8 -10.0585 -4.54351 2.74913 -71.5111)
(-94.3606 140.972 -10.5256 -190.704 7.32661 -109.417)
(-68.1508 62.6836 -3.92775 -353.838 10.7008 -142.203)
(-144.472 48.6018 -1.34637 68.2699 -2.56892 -66.4186)
(-120.497 110.368 -5.51671 -33.5288 1.4443 -81.8517)
(-88.9131 110.536 -5.87513 -149.126 6.98561 -97.9783)
(-64.6142 49.1698 -1.86791 -247.017 11.5565 -111.384)
(-141.709 34.5251 0.211507 -9.8631 -3.36941 -91.1918)
(-116.339 81.1735 -1.69154 -57.8605 0.611041 -90.0084)
(-85.4684 81.5336 -1.9377 -119.077 5.68975 -90.9901)
(-61.3358 35.5308 -0.128962 -164.667 10.0272 -89.2971)
(-138.906 20.2536 1.27292 -61.2321 -2.69924 -106.405)
(-114.905 53.299 1.13158 -76.8972 0.217981 -97.2105)
(-82.0429 53.8925 0.995037 -98.7049 3.91084 -86.6223)
(-57.8893 21.9854 1.1301 -110.501 7.06827 -75.9009)
(-148.116 8.63431 1.9084 -88.9922 -1.11769 -119.456)
(-128.535 25.9142 2.84228 -94.2726 0.109316 -110.534)
(-68.2456 25.9387 2.71419 -81.8866 1.67206 -78.3869)
(-46.7517 8.94773 1.83167 -83.2187 2.97771 -67.2103)
(425.405 219.275 -1.72499 1005.53 14.2228 562.483)
(1.56715 197.034 -5.0542 112.274 4.55499 42.275)
(-225.003 188.323 -5.59947 -401.593 -7.87793 -245.098)
(-661.75 187.343 -2.46586 -1267.6 -19.0888 -758.492)
(-208.143 81.9344 -3.70246 314.599 7.94475 19.2218)
(-101.521 211.496 -10.4011 77.3733 4.08218 -18.2044)
(-135.109 209.528 -11.1904 -326.678 1.04705 -174.336)
(-42.2928 80.1458 -4.65856 -561.25 -2.44754 -214.428)
(-139.03 80.3106 -3.42025 287.272 5.0061 30.7153)
(-131.867 175.691 -9.61901 24.9531 3.87149 -55.0593)
(-100.338 175.662 -10.034 -244.701 4.05944 -130.686)
(-89.4507 79.7115 -3.98566 -499.328 3.32923 -210.747)
(-151.277 63.4138 -2.33422 163.495 2.3377 -25.4653)
(-126.63 143.55 -6.99432 -5.11108 3.0797 -67.9537)
(-94.1224 143.806 -7.28027 -192.191 5.25901 -112.42)
(-67.3774 63.9612 -2.74324 -356.036 6.45241 -151.515)
(-145.918 49.4955 -1.05309 68.2924 0.484758 -60.9159)
(-121.433 112.438 -3.93828 -33.7208 2.20567 -79.4028)
(-88.769 112.689 -4.14011 -150.061 5.18303 -99.0688)
(-63.9059 50.1665 -1.33463 -248.542 7.28391 -115.746)
(-142.86 35.0991 0.0611639 -9.35523 -0.444952 -89.3565)
(-117.026 82.595 -1.23464 -57.6076 1.4699 -88.6672)
(-85.3211 83.036 -1.36192 -119.471 4.36472 -90.5606)
(-60.6079 36.2177 -0.0993203 -165.508 6.56494 -89.4492)
(-139.609 20.5424 0.843869 -60.2097 -0.604342 -107.203)
(-115.311 54.2066 0.788283 -76.2951 0.888171 -96.6774)
(-81.7656 54.8754 0.72296 -98.5907 3.0861 -84.9714)
(-57.1384 22.3924 0.799942 -110.773 4.79599 -72.9122)
(-148.896 8.79643 1.29285 -88.333 -0.296391 -122.057)
(-128.869 26.3671 1.93091 -93.6415 0.357121 -110.376)
(-67.6088 26.4313 1.85115 -81.3003 1.32768 -75.4826)
(-45.3422 9.16139 1.26225 -82.4559 2.06576 -61.4346)
(428.912 220.859 -1.00328 1012.95 8.26111 570.535)
(1.83646 198.037 -2.99699 113.183 2.68507 43.9679)
(-226.845 189.372 -3.31298 -404.672 -4.54162 -249.016)
(-668.428 188.927 -1.44063 -1278.88 -10.9955 -770.472)
(-209.881 82.6092 -2.21959 315.21 5.41995 26.6513)
(-102.055 213.366 -6.30286 77.6112 2.86713 -15.6182)
(-135.56 211.465 -6.76675 -328.422 0.713011 -178.938)
(-41.5618 80.7917 -2.79248 -563.067 -1.65076 -224.4)
(-140.285 81.2386 -2.1373 287.609 4.08038 38.3711)
(-132.716 177.832 -6.02487 24.6213 2.98183 -52.5839)
(-100.179 177.855 -6.27486 -245.856 2.65723 -134.072)
(-88.9985 80.6758 -2.48278 -501.316 1.7719 -219.797)
(-152.554 64.3058 -1.50628 163.309 2.70437 -19.4235)
(-127.383 145.62 -4.49168 -5.48193 2.63731 -65.7456)
(-93.9389 145.93 -4.65805 -193.05 3.49868 -114.505)
(-66.692 64.9118 -1.74557 -357.299 3.68852 -157.713)
(-146.985 50.2552 -0.708988 68.1786 1.58576 -56.9939)
(-122.052 114.202 -2.58363 -33.9089 2.11935 -77.7301)
(-88.5983 114.504 -2.69421 -150.602 3.52364 -99.8956)
(-63.2469 50.9905 -0.861934 -249.33 4.29765 -118.94)
(-143.692 35.6548 0.0106316 -9.18677 0.829253 -87.5481)
(-117.466 83.9406 -0.838258 -57.4994 1.57475 -87.5656)
(-85.1266 84.4283 -0.903488 -119.671 3.03366 -90.3228)
(-59.9591 36.8396 -0.0661487 -165.852 3.98312 -89.9503)
(-140.143 20.8641 0.524407 -59.702 0.398207 -106.96)
(-115.561 55.1057 0.479395 -75.9257 1.02726 -95.9734)
(-81.4703 55.8167 0.44711 -98.4502 2.18128 -83.8254)
(-56.4751 22.7807 0.515059 -110.754 2.97972 -71.2951)
(-149.344 8.93155 0.828203 -87.8036 0.119515 -122.624)
(-129.092 26.7824 1.21068 -93.2186 0.407339 -109.758)
(-67.0375 26.8685 1.1578 -80.8593 0.941991 -73.4282)
(-44.3559 9.32673 0.81146 -82.0032 1.30192 -58.1162)
(430.772 221.68 -0.517374 1017.15 4.32114 574.828)
(1.94337 198.498 -1.57285 113.741 1.43031 44.8136)
(-227.906 189.849 -1.7343 -406.422 -2.32947 -251.264)
(-672.084 189.732 -0.744989 -1285.16 -5.66584 -777.084)
(-210.917 82.9613 -1.16861 315.851 3.14169 30.6177)
(-102.406 214.366 -3.35532 77.8681 1.69327 -14.3104)
(-135.843 212.493 -3.59437 -329.403 0.421331 -181.625)
(-41.1427 81.1216 -1.46857 -564.267 -0.93822 -230.04)
(-141.071 81.7754 -1.15545 288.008 2.60689 42.6187)
(-133.23 179.084 -3.27664 24.5209 1.85631 -51.2583)
(-100.11 179.133 -3.4076 -246.498 1.50425 -136.112)
(-88.7021 81.2331 -1.33891 -502.539 0.856933 -225.033)
(-153.36 64.8618 -0.830359 163.278 1.98339 -15.9353)
(-127.834 146.921 -2.48316 -5.6614 1.73582 -64.4932)
(-93.8243 147.26 -2.56877 -193.515 1.99712 -115.794)
(-66.2312 65.5008 -0.954571 -358.012 1.8809 -161.403)
(-147.672 50.7563 -0.399819 68.0777 1.40525 -54.579)
(-122.418 115.374 -1.44919 -34.0222 1.47261 -76.7093)
(-88.4667 115.703 -1.50404 -150.877 2.03772 -100.43)
(-62.7823 51.5269 -0.475487 -249.695 2.23716 -120.943)
(-144.233 36.0373 -0.00273805 -9.17935 0.933052 -86.2394)
(-117.722 84.8704 -0.483392 -57.4533 1.1454 -86.8043)
(-84.9677 85.3821 -0.514363 -119.74 1.77774 -90.1907)
(-59.4932 37.2582 -0.0367817 -165.923 2.11082 -90.39)
(-140.513 21.0916 0.282007 -59.5085 0.564123 -106.473)
(-115.702 55.7313 0.249831 -75.7186 0.769951 -95.3704)
(-81.2435 56.4634 0.234353 -98.3185 1.29 -83.1055)
(-55.9861 23.0429 0.282494 -110.607 1.6002 -70.4608)
(-149.62 9.0177 0.457733 -87.506 0.202123 -122.434)
(-129.226 27.0642 0.660739 -92.9705 0.304181 -109.115)
(-66.6237 27.1598 0.628936 -80.5513 0.557848 -72.1207)
(-43.696 9.42796 0.447044 -81.686 0.703013 -56.3119)
(431.584 222.035 -0.159362 1019.06 1.34579 576.698)
(1.98127 198.683 -0.488901 114.009 0.450881 45.1649)
(-228.389 190.039 -0.538195 -407.213 -0.714274 -252.285)
(-673.705 190.076 -0.229617 -1287.98 -1.74506 -780.023)
(-211.4 83.1117 -0.363848 316.227 1.02861 32.3301)
(-102.58 214.8 -1.05039 78.0227 0.55945 -13.7682)
(-135.978 212.938 -1.12365 -329.845 0.140052 -182.86)
(-40.9508 81.2603 -0.456492 -564.858 -0.303113 -232.574)
(-141.444 82.019 -0.364557 288.261 0.891525 44.4995)
(-133.472 179.656 -1.0367 24.508 0.628222 -50.6872)
(-100.086 179.715 -1.07711 -246.786 0.487232 -137.068)
(-88.5603 81.485 -0.42156 -503.126 0.254747 -227.421)
(-153.743 65.1238 -0.264608 163.3 0.715802 -14.3539)
(-128.045 147.536 -0.792177 -5.72549 0.60195 -63.9321)
(-93.7698 147.888 -0.818401 -193.717 0.649138 -116.406)
(-66.0059 65.7771 -0.302848 -358.338 0.575613 -163.11)
(-148.001 50.9987 -0.128967 68.0301 0.539061 -53.4417)
(-122.587 115.944 -0.465864 -34.0698 0.522391 -76.2296)
(-88.3971 116.284 -0.482382 -150.987 0.666384 -100.688)
(-62.5483 51.7845 -0.151735 -249.834 0.691708 -121.894)
(-144.494 36.2251 -0.0026746 -9.20021 0.380094 -85.5665)
(-117.84 85.3295 -0.157997 -57.4349 0.413815 -86.4194)
(-84.8809 85.8509 -0.167113 -119.752 0.584949 -90.1291)
(-59.2555 37.4615 -0.0121896 -165.912 0.65829 -90.6293)
(-140.695 21.2032 0.0876198 -59.451 0.240008 -106.14)
(-115.764 56.0398 0.0762029 -75.6261 0.281339 -95.0324)
(-81.1228 56.7796 0.0715408 -98.2391 0.426184 -82.7563)
(-55.735 23.1678 0.0886219 -110.495 0.501909 -70.1092)
(-149.741 9.05851 0.144626 -87.3742 0.0864605 -122.173)
(-129.285 27.203 0.208991 -92.8558 0.110523 -108.726)
(-66.4131 27.2998 0.198187 -80.3934 0.184615 -71.4865)
(-43.3793 9.47255 0.140623 -81.527 0.221284 -55.53)
)
;

boundaryField
{
    interface
    {
        type            calculated;
        value           nonuniform List<symmTensor> 
192
(
(-147.115 -0.119321 3.47175 1028.68 125.942 254.607)
(-135.692 -0.294903 4.78357 431.478 -14.2466 -36.9686)
(-136.339 -0.678176 5.13895 415.04 -3.64905 3.58622)
(-133.579 -1.02825 5.05672 252.382 -15.8692 -36.0445)
(-131.389 -1.39405 4.81176 127.246 -16.0401 -55.5933)
(-129.101 -1.83156 4.41711 21.051 -14.2738 -73.8106)
(-126.699 -2.49605 3.83006 -46.8424 -9.84398 -82.7091)
(-123.046 -3.56014 2.93142 -70.0919 -3.39013 -80.4412)
(-153.275 0.0183883 2.31437 996.011 87.2576 274.782)
(-143.21 -0.208962 3.19275 477.59 16.3508 13.4686)
(-142.736 -0.618651 3.3781 405.138 -3.88404 -1.01473)
(-140.192 -1.06061 3.29499 250.172 -15.6706 -37.56)
(-137.673 -1.53397 3.09785 120.821 -19.2266 -61.2671)
(-134.859 -2.12055 2.79765 15.6476 -17.6004 -78.6847)
(-131.379 -3.00265 2.36841 -51.1721 -12.0477 -86.8521)
(-125.597 -4.30759 1.77531 -71.5036 -4.52821 -83.3661)
(-158.133 0.0535106 1.58447 1022.69 51.9904 309.354)
(-147.199 -0.19649 2.16817 470.15 17.4323 52.283)
(-146.622 -0.634199 2.27047 402.495 3.0629 24.6235)
(-143.822 -1.12835 2.19215 247.804 -6.73952 -25.2708)
(-140.966 -1.67307 2.04012 118.575 -11.0505 -59.9571)
(-137.693 -2.35456 1.82075 14.4953 -11.0891 -84.8909)
(-133.49 -3.35663 1.52241 -50.82 -7.92241 -97.6741)
(-126.474 -4.74975 1.14018 -71.996 -2.96974 -97.443)
(-161.496 0.0553543 1.12358 1042.86 30.5724 331.604)
(-149.965 -0.21029 1.53386 467.576 13.9315 80.2187)
(-149.295 -0.668887 1.59542 401.198 5.98866 48.5545)
(-146.272 -1.197 1.52726 246.839 -0.323193 -9.56424)
(-143.135 -1.78867 1.40939 118.296 -3.90216 -52.9171)
(-139.498 -2.5303 1.24789 15.1806 -4.87444 -84.9869)
(-134.794 -3.60373 1.03815 -49.1406 -3.814 -102.713)
(-126.994 -5.03912 0.779812 -70.8169 -1.57157 -105.408)
(-163.79 0.0499226 0.790799 1055.34 18.0298 344.285)
(-151.905 -0.228556 1.08006 467.818 10.1562 97.3062)
(-151.159 -0.703865 1.11916 401.099 6.16322 64.7178)
(-147.97 -1.25573 1.06488 246.334 2.61536 2.45947)
(-144.624 -1.87879 0.976616 118.177 0.19322 -46.1286)
(-140.721 -2.65934 0.860113 15.6484 -0.958741 -83.0914)
(-135.666 -3.77802 0.713652 -48.0662 -1.03195 -104.4)
(-127.338 -5.23711 0.536638 -69.8828 -0.471464 -109.11)
(-165.319 0.0441398 0.527448 1062.82 10.4276 351.293)
(-153.225 -0.244248 0.721014 468.896 6.8243 107.172)
(-152.427 -0.732343 0.745666 401.647 4.97966 74.6244)
(-149.12 -1.30071 0.706826 246.247 3.16332 10.3602)
(-145.628 -1.94454 0.645604 118.074 1.71842 -41.0949)
(-141.543 -2.75021 0.566636 15.8027 0.78242 -80.931)
(-136.253 -3.898 0.469182 -47.5544 0.322051 -104.413)
(-127.576 -5.3711 0.352079 -69.2118 0.0939662 -110.112)
(-166.262 0.0398378 0.301659 1067.06 5.43597 354.965)
(-154.05 -0.255184 0.412171 469.898 3.91944 112.455)
(-153.22 -0.751818 0.425866 402.274 3.16398 80.1419)
(-149.838 -1.33072 0.402934 246.348 2.34236 14.9511)
(-146.254 -1.98741 0.367227 118.01 1.60145 -37.9563)
(-142.055 -2.80854 0.321647 15.7957 1.01955 -79.3076)
(-136.618 -3.97454 0.265028 -47.375 0.6044 -103.943)
(-127.726 -5.45436 0.195174 -68.8372 0.224819 -110.042)
(-166.702 0.0363985 0.097484 1069 1.68986 356.547)
(-154.432 -0.261505 0.132949 470.471 1.27771 114.748)
(-153.586 -0.761513 0.137298 402.668 1.07922 82.5946)
(-150.169 -1.34526 0.129838 246.457 0.847457 17.043)
(-146.542 -2.0081 0.118241 117.993 0.621828 -36.4664)
(-142.29 -2.83748 0.103463 15.77 0.426424 -78.4579)
(-136.776 -4.01477 0.0846369 -47.3224 0.266726 -103.573)
(-127.757 -5.49218 0.0602626 -68.6533 0.0993049 -109.775)
(26.5584 147.554 -5.33759 641.857 -0.380523 -114.52)
(-270.378 60.7095 -7.75562 204.728 -0.799909 -103.287)
(-195.934 85.1583 -8.45772 232.122 -0.879699 -102.573)
(-189.536 75.5519 -8.50966 125.144 -0.96317 -100.803)
(-166.584 66.2269 -8.39475 49.9568 -1.05313 -100.06)
(-151.658 50.6735 -8.19088 -16.8178 -1.16989 -99.6713)
(-141.373 32.4451 -7.95721 -61.516 -1.34451 -99.7058)
(-145.688 13.2963 -7.89521 -86.0391 -1.58595 -99.865)
(-77.365 111.644 -4.27656 72.7023 -0.29015 -102.057)
(-163.798 168.613 -6.55123 15.4539 -0.546434 -99.1204)
(-159.668 177.006 -7.11798 9.54202 -0.63443 -97.8545)
(-149.163 162.873 -7.21333 -21.8506 -0.666473 -96.9111)
(-135.936 139.037 -7.17782 -45.3829 -0.692767 -96.4241)
(-125.614 107.955 -7.08509 -65.0721 -0.733704 -96.2205)
(-118.275 73.2039 -6.98094 -78.4642 -0.819972 -96.2432)
(-123.794 34.8748 -7.1131 -89.0054 -0.966952 -96.1541)
(-133.777 98.1238 -4.02033 -320.524 -0.207137 -92.3943)
(-49.3586 163.066 -6.38213 -188.22 -0.459737 -93.7221)
(-64.5348 177.884 -6.97168 -195.259 -0.551102 -92.5063)
(-67.9451 163.999 -7.11908 -165.713 -0.565151 -92.0538)
(-72.7268 139.721 -7.10739 -142.45 -0.552396 -91.8137)
(-75.6972 108.372 -7.02642 -120.618 -0.541454 -91.8356)
(-77.4729 73.484 -6.91404 -103.707 -0.565214 -92.0588)
(-69.5622 34.6337 -6.99694 -89.9476 -0.680865 -92.5167)
(-240.591 110.475 -4.10279 -852.942 -0.303674 -79.9433)
(53.5689 55.1389 -6.77003 -369.647 -0.703029 -85.6292)
(-22.9653 87.0324 -7.37147 -411.685 -0.693995 -83.3976)
(-23.3264 77.4894 -7.57058 -305.201 -0.627315 -83.6269)
(-39.4229 67.56 -7.56961 -230.505 -0.529476 -83.8843)
(-47.9927 51.6493 -7.47239 -162.82 -0.433941 -84.4794)
(-52.8439 33.4423 -7.30366 -115.532 -0.343324 -85.284)
(-46.2279 13.1857 -7.2499 -89.6558 -0.315162 -86.6033)
(-60.4497 0.637462 2.33637 -1176.67 -144.508 -407.24)
(-63.2717 0.720768 3.67908 -602.252 24.6134 -130.19)
(-61.1857 0.542716 3.94474 -580.836 11.1751 -169.603)
(-61.4254 0.222522 4.03687 -414.839 21.5158 -131.413)
(-61.8621 -0.106527 4.02939 -291.631 18.7455 -116.382)
(-62.6816 -0.478998 3.94447 -189.004 14.8672 -102.936)
(-63.4863 -1.09984 3.76983 -122.692 9.1247 -97.7431)
(-64.2516 -2.50213 3.37842 -100.308 2.59866 -103.261)
(-59.7642 0.316447 1.22715 -1161.91 -106.383 -422.065)
(-63.4451 0.338358 1.97014 -677.188 -4.58626 -172.496)
(-62.977 0.165978 2.10503 -583.106 18.0612 -161.125)
(-63.3152 -0.10839 2.12806 -419.351 27.484 -130.964)
(-63.6081 -0.429242 2.11145 -287.949 26.9492 -113.551)
(-63.9931 -0.816931 2.05795 -185.028 21.7659 -101.476)
(-64.0647 -1.50752 1.9613 -119.32 13.9126 -96.5974)
(-63.4473 -3.15757 1.81297 -98.5038 5.40896 -102.75)
(-58.4912 0.178036 0.806727 -1200.05 -66.2654 -460.122)
(-62.7696 0.151485 1.34743 -678.631 -7.414 -211.44)
(-62.5733 -0.00426435 1.45954 -589.611 10.716 -187.328)
(-63.043 -0.252304 1.47776 -423.682 19.4508 -144.009)
(-63.3311 -0.565644 1.45897 -289.426 20.5775 -115.501)
(-63.5815 -0.964634 1.4132 -185.37 17.3726 -95.7724)
(-63.3627 -1.69757 1.33997 -119.194 11.6875 -85.7459)
(-62.2762 -3.45418 1.24592 -95.6193 4.58785 -86.9014)
(-57.2791 0.14296 0.604171 -1227.06 -39.9376 -487.136)
(-61.6713 0.0880025 1.02499 -679.417 -6.2548 -242.547)
(-61.511 -0.0776856 1.12335 -593.614 5.33537 -212.676)
(-62.0192 -0.32856 1.1426 -427.01 11.6673 -159.251)
(-62.3169 -0.648862 1.12561 -291.592 13.2663 -121.091)
(-62.53 -1.06269 1.08436 -186.696 11.7619 -93.9295)
(-62.1959 -1.83056 1.02194 -119.875 8.33575 -78.6908)
(-60.9196 -3.66359 0.945637 -94.7568 3.49395 -75.9259)
(-56.3573 0.132531 0.442886 -1243.48 -23.714 -503.597)
(-60.7558 0.0626727 0.752497 -681.098 -4.55322 -262.949)
(-60.5917 -0.114866 0.828065 -596.471 2.43399 -230.638)
(-61.1051 -0.375452 0.844328 -429.199 6.48596 -171.328)
(-61.4039 -0.706532 0.831208 -293.149 7.83695 -126.782)
(-61.6025 -1.13398 0.79868 -187.59 7.27178 -94.1446)
(-61.2067 -1.92748 0.750637 -120.202 5.37319 -74.8264)
(-59.8121 -3.81528 0.694004 -94.1844 2.31187 -69.0258)
(-55.7019 0.128456 0.30328 -1253.13 -13.6243 -513.179)
(-60.0801 0.0501732 0.514335 -682.775 -3.00607 -275.367)
(-59.9044 -0.13637 0.566612 -598.56 1.01228 -242.05)
(-60.4128 -0.406096 0.578405 -430.603 3.40886 -179.461)
(-60.7087 -0.746709 0.56933 -294.008 4.33368 -131.097)
(-60.8986 -1.18459 0.546562 -187.957 4.17255 -94.9862)
(-60.4648 -1.99585 0.513003 -120.194 3.17724 -72.9584)
(-58.9897 -3.92096 0.473146 -93.8488 1.38957 -65.2746)
(-55.2787 0.126847 0.176406 -1258.49 -7.01432 -518.407)
(-59.6344 0.0436861 0.298496 -683.989 -1.69505 -282.312)
(-59.4479 -0.148838 0.328748 -599.927 0.368475 -248.604)
(-59.9498 -0.425148 0.335665 -431.442 1.61479 -184.289)
(-60.2424 -0.772411 0.330303 -294.421 2.13509 -133.827)
(-60.4262 -1.21734 0.317205 -188.022 2.11052 -95.7337)
(-59.9681 -2.04101 0.296967 -120.036 1.63657 -72.1098)
(-58.45 -3.9882 0.268126 -93.6128 0.719328 -63.3644)
(-55.0761 0.125566 0.0574811 -1260.9 -2.16024 -520.712)
(-59.4208 0.0400994 0.0970938 -684.612 -0.546486 -285.41)
(-59.2302 -0.155034 0.106834 -600.607 0.0877385 -251.576)
(-59.7293 -0.434463 0.109043 -431.843 0.472709 -186.518)
(-60.021 -0.784713 0.107248 -294.589 0.639143 -135.131)
(-60.199 -1.2334 0.10311 -188.007 0.640584 -96.147)
(-59.7247 -2.06771 0.0961812 -119.915 0.500874 -71.7903)
(-58.2374 -4.02007 0.0836345 -93.5225 0.220786 -62.6064)
(-155.432 8.58924 -1.2538 -95.9374 -0.407721 -105.589)
(-152.864 8.61014 3.19211 -94.3517 -0.3554 -106.953)
(-153.803 8.85015 2.86427 -93.0404 -0.258506 -116.968)
(-154.354 9.07435 2.14155 -92.0364 -0.182397 -123.055)
(-155.037 9.2518 1.44398 -91.3043 -0.12862 -126.019)
(-155.49 9.38238 0.936378 -90.801 -0.0886398 -126.73)
(-155.761 9.46841 0.525626 -90.4953 -0.059949 -126.53)
(-155.914 9.50922 0.16774 -90.4154 -0.0242323 -126.273)
(-134.208 7.36515 0.070706 -92.3575 0.426932 -106.583)
(-132.612 7.19828 4.64164 -91.2686 0.243342 -108.405)
(-132.252 7.34492 4.59454 -90.2771 0.182965 -110.136)
(-132.518 7.50359 3.39769 -89.4572 0.143857 -110.934)
(-132.86 7.63331 2.25346 -88.8428 0.106459 -110.796)
(-133.106 7.73025 1.41082 -88.4081 0.072231 -110.091)
(-133.246 7.79676 0.776851 -88.1254 0.040099 -109.329)
(-133.298 7.83711 0.247785 -87.9788 0.0121537 -108.856)
(-63.3765 6.94935 -0.0265661 -89.6572 0.753101 -88.8743)
(-65.9516 6.78633 4.38733 -88.656 0.508505 -89.8252)
(-66.2349 6.91992 4.34524 -87.8061 0.382607 -85.4398)
(-65.8 7.06825 3.22872 -87.0902 0.295201 -81.2375)
(-65.0783 7.19068 2.13434 -86.5397 0.21844 -77.8177)
(-64.4217 7.28202 1.32572 -86.1393 0.150245 -75.4005)
(-63.9508 7.34315 0.724098 -85.8739 0.0885301 -73.8684)
(-63.7061 7.37574 0.229708 -85.73 0.0294783 -73.1203)
(-41.3159 6.77596 -1.005 -84.6187 1.06416 -88.5214)
(-44.2787 6.69512 2.99166 -83.2047 0.737543 -89.2394)
(-42.7286 6.86389 2.64097 -82.2426 0.544806 -76.5238)
(-41.4763 7.03347 2.03084 -81.4146 0.416098 -66.9482)
(-40.0074 7.16848 1.37117 -80.7606 0.307453 -60.2826)
(-38.8761 7.26662 0.881729 -80.2743 0.21149 -56.3299)
(-38.1178 7.33025 0.489098 -79.9507 0.124599 -54.1625)
(-37.7491 7.36017 0.154554 -79.784 0.0414557 -53.2125)
)
;
    }
    symmetry
    {
        type            symmetryPlane;
    }
    bottom
    {
        type            calculated;
        value           nonuniform List<symmTensor> 
32
(
(499.348 209.432 0 749.021 236.057 499.348)
(466.045 236.244 0 699.067 122.812 466.045)
(480.928 249.421 0 721.393 66.3571 480.928)
(492.176 255.415 0 738.264 36.7488 492.176)
(498.955 258.296 0 748.432 20.6802 498.955)
(502.971 259.784 0 754.457 11.5247 502.971)
(505.237 260.568 0 757.856 5.85152 505.237)
(506.267 260.912 0 759.401 1.79427 506.267)
(45.2218 86.1462 0 67.8326 70.3111 45.2218)
(31.7798 121.849 0 47.6697 36.9186 31.7798)
(33.9421 130.791 0 50.9131 19.5689 33.9421)
(35.5532 132.784 0 53.3298 10.5309 35.5532)
(36.5264 132.976 0 54.7896 5.77544 36.5264)
(37.1151 132.785 0 55.6727 3.17064 37.1151)
(37.4576 132.599 0 56.1864 1.60311 37.4576)
(37.6172 132.5 0 56.4257 0.491913 37.6172)
(-214.887 71.2108 0 -322.33 -92.3799 -214.887)
(-210.929 110.296 0 -316.393 -58.0145 -210.929)
(-218.508 120.254 0 -327.763 -36.2427 -218.508)
(-223.432 122.521 0 -335.148 -22.3688 -223.432)
(-226.472 122.762 0 -339.708 -13.5317 -226.472)
(-228.311 122.565 0 -342.467 -7.84875 -228.311)
(-229.356 122.366 0 -344.034 -4.0505 -229.356)
(-229.828 122.26 0 -344.743 -1.24687 -229.828)
(-614.791 162.932 0 -922.187 -288.298 -614.791)
(-602.792 197.042 0 -904.188 -168.312 -602.792)
(-630.745 213.025 0 -946.118 -99.3484 -630.745)
(-649.417 220.075 0 -974.126 -58.6334 -649.417)
(-660.477 223.388 0 -990.716 -34.3376 -660.477)
(-666.942 225.071 0 -1000.41 -19.5056 -666.942)
(-670.533 225.948 0 -1005.8 -9.95339 -670.533)
(-672.141 226.331 0 -1008.21 -3.05009 -672.141)
)
;
    }
}


// ************************************************************************* //
