/*--------------------------------*- C++ -*----------------------------------*\
| =========                 |                                                 |
| \\      /  F ield         | foam-extend: Open Source CFD                    |
|  \\    /   O peration     | Version:     3.1                                |
|   \\  /    A nd           | Web:         http://www.extend-project.de       |
|    \\/     M anipulation  |                                                 |
\*---------------------------------------------------------------------------*/
FoamFile
{
    version     2.0;
    format      ascii;
    class       volSymmTensorField;
    location    "0.9";
    object      sigmaCauchy;
}
// * * * * * * * * * * * * * * * * * * * * * * * * * * * * * * * * * * * * * //

dimensions      [1 -1 -2 0 0 0 0];

internalField   nonuniform List<symmTensor> 
256
(
(409.279 240.024 7.51233 1059.5 131.456 460.999)
(14.9713 147.709 -17.909 128.019 35.8738 19.4569)
(-210.427 110.189 -26.4326 -386.434 -40.2454 -223.026)
(-652.018 73.5183 -18.9726 -1097.89 -74.6644 -696.116)
(-248.235 107.563 -7.95039 222.311 -13.8768 -149.788)
(-113.511 187.768 -31.6872 11.5261 -7.38339 -102.426)
(-34.9783 154.217 -34.7038 -229.728 9.22819 -77.7998)
(61.469 21.5215 -11.5993 -385.295 20.6692 -35.5147)
(-109.146 128.093 -2.96387 280.847 -4.08176 -32.4169)
(-102.573 180.127 -19.2396 -12.2891 -1.79926 -94.1616)
(-43.4852 147.647 -20.9464 -228.826 2.291 -98.4114)
(-71.0859 33.6835 -4.69534 -450.925 5.92758 -156.42)
(-134.341 106.324 -4.4811 134.849 -12.4773 -75.6869)
(-96.9996 159.12 -14.5751 -49.7328 -3.49958 -99.1781)
(-37.0546 132.375 -14.4794 -194.609 4.24334 -89.9383)
(-36.3317 30.7543 -2.78813 -324.641 12.6365 -107.15)
(-123.875 84.7181 -3.60971 47.5742 -11.7836 -80.5166)
(-91.0649 131.198 -9.92314 -73.0262 -3.08598 -97.4981)
(-42.9225 111.311 -9.48525 -167.254 3.47708 -90.7647)
(-44.8269 30.7726 -1.16035 -246.035 11.2528 -102.481)
(-125.308 59.6895 -3.11841 -26.4596 -9.989 -91.1502)
(-91.9072 99.4429 -6.70638 -89.1025 -2.67539 -97.3738)
(-51.039 86.5496 -6.23288 -140.108 2.72655 -90.5403)
(-46.5899 27.1718 -0.748548 -172.03 9.3785 -93.024)
(-126.895 36.4718 -2.70148 -71.189 -6.88968 -95.6133)
(-96.8084 66.6434 -4.27179 -96.7551 -2.17714 -97.1505)
(-60.5986 59.0301 -3.86225 -117.003 1.72447 -91.1892)
(-50.1264 19.2757 -0.932408 -119.84 6.15575 -89.5138)
(-140.777 18.3057 -1.83406 -93.4515 -2.27069 -101.973)
(-119.912 33.5972 -1.50867 -105.163 -0.819195 -106.951)
(-57.6491 26.9342 -1.4508 -91.401 0.478248 -84.7393)
(-45.5226 5.18288 -1.15281 -89.9487 1.90572 -87.2928)
(403.164 272.898 4.75232 1004.23 87.1461 465.889)
(19.3708 184.113 -15.6004 103.178 22.6967 22.5452)
(-197.732 146.341 -22.9153 -373.621 -30.4738 -220.328)
(-631.96 96.3203 -16.3189 -1077.33 -56.7265 -697.592)
(-169.608 121.259 -6.90823 328.91 12.5843 -49.0689)
(-60.3533 205.312 -31.1866 59.733 3.8144 -47.1529)
(-94.4029 164.6 -35.1081 -310.657 2.49842 -138.627)
(-35.4113 25.398 -14.1664 -508.559 -0.0528985 -141.419)
(-105.672 123.084 -5.63167 283.477 -3.14705 -26.0683)
(-86.1194 174.626 -23.4975 -0.551628 1.14385 -77.3681)
(-63.0286 140.68 -24.7898 -247.237 8.37733 -108.61)
(-78.2806 28.1022 -7.23891 -458.413 13.4327 -154.982)
(-121.229 98.9893 -4.412 151.088 -11.6414 -61.1824)
(-83.8013 146.959 -15.4626 -34.0989 -1.19473 -84.1674)
(-58.2572 119.555 -15.3209 -206.269 9.50461 -101.207)
(-55.7665 23.6237 -3.00057 -337.244 19.2643 -118.313)
(-119.95 75.4774 -2.47952 53.7542 -14.0816 -76.3162)
(-85.0815 116.9 -8.89613 -61.8428 -2.57034 -89.336)
(-57.6106 97.4578 -8.24302 -168.409 8.31944 -95.7465)
(-54.7639 23.1021 0.25095 -244.569 18.8799 -104.217)
(-123.11 51.6155 -0.78465 -22.5815 -12.7746 -89.0616)
(-89.3291 86.6384 -3.92147 -81.3268 -2.98477 -92.9766)
(-61.3982 74.5558 -3.24346 -137.543 6.09966 -92.8831)
(-54.2719 20.732 1.90397 -168.473 15.3044 -94.0163)
(-126.999 30.5208 0.652047 -70.7272 -8.92529 -96.5292)
(-97.1977 57.1731 -0.245027 -93.7674 -2.57657 -96.8252)
(-66.4446 50.4539 0.25655 -113.178 3.62851 -91.2843)
(-54.41 14.8176 2.56152 -115.453 9.86097 -88.7829)
(-139.679 15.9246 2.20626 -92.588 -3.61415 -103.464)
(-120.157 29.2427 2.95138 -104.241 -1.2855 -108.746)
(-61.9876 23.1399 3.01412 -90.4841 1.23022 -85.907)
(-50.0423 3.63681 2.8156 -89.735 3.72807 -88.6109)
(424.588 290.908 2.44523 1032.4 52.022 503.892)
(25.6918 197.003 -10.8757 104.504 12.9779 32.9685)
(-200.649 157.954 -15.757 -383.41 -19.4519 -233.737)
(-663.187 102.844 -11.3238 -1117.74 -34.8052 -750.244)
(-169.203 125.838 -5.28152 325.535 14.4038 -15.2984)
(-54.9951 213.985 -22.1769 59.9901 5.33641 -31.1942)
(-98.1077 172.081 -25.4921 -325.559 1.23371 -158.337)
(-37.4029 27.2995 -11.8223 -519.859 -2.57881 -178.325)
(-104.972 124.433 -5.04111 285.521 2.90227 -1.65483)
(-84.0578 178.409 -18.2437 0.411818 3.57413 -66.0163)
(-64.305 143.401 -19.5882 -256.763 7.17154 -119.468)
(-81.9494 27.8095 -7.1768 -469.851 9.0806 -180.389)
(-121.286 98.5856 -3.79874 152.785 -4.68772 -47.6272)
(-83.5078 146.296 -12.4149 -32.4172 1.40435 -76.5848)
(-60.3967 118.471 -12.4977 -210.419 8.95294 -106.292)
(-59.5591 22.8149 -3.19715 -344.119 14.8622 -132.104)
(-122.291 74.0098 -2.1444 54.2013 -7.97128 -72.5881)
(-85.99 114.327 -6.80569 -59.6708 -0.266731 -85.0613)
(-60.0492 94.7612 -6.3187 -169.536 8.21886 -97.2685)
(-56.4824 21.6428 -0.141602 -246.678 15.5006 -107.666)
(-126.231 50.0396 -0.502194 -22.5528 -8.0632 -92.0369)
(-90.7114 83.5906 -2.28233 -79.3312 -1.15757 -91.4532)
(-63.4869 71.5853 -1.6707 -136.93 6.28374 -92.0897)
(-54.7425 19.2507 1.71377 -168.206 13.0412 -90.7175)
(-129.976 29.2575 0.922261 -70.5553 -5.92171 -103.74)
(-98.3837 54.7776 1.10439 -92.2394 -1.30813 -97.3749)
(-67.7398 48.224 1.5774 -111.969 3.90398 -89.0543)
(-53.7351 13.6252 2.57281 -114.074 8.75733 -81.0032)
(-143.02 15.6754 2.1982 -94.2581 -2.45378 -114.349)
(-120.316 28.4223 3.51841 -102.994 -0.829274 -110.188)
(-62.1175 22.4716 3.55988 -88.9125 1.25013 -81.9985)
(-46.5844 3.45675 2.67261 -85.4893 3.28184 -75.6211)
(437.252 300.335 1.28906 1053.7 30.81 528.486)
(28.5563 202.322 -7.10345 106.367 7.53197 38.9909)
(-204.026 162.461 -10.1599 -391.066 -11.9943 -243.651)
(-685.334 105.169 -7.20302 -1146.22 -20.7846 -786.396)
(-171.158 128.389 -3.41127 322.642 11.9215 6.31338)
(-53.6818 219.389 -14.6902 58.922 4.87267 -22.8171)
(-97.6934 176.982 -17.1107 -331.493 0.851829 -169.852)
(-35.7217 28.2478 -8.22213 -524.421 -2.47758 -203.676)
(-105.437 126.514 -3.43739 284.948 5.41433 17.9227)
(-84.0853 182.474 -12.79 -1.08052 4.23026 -59.2282)
(-62.7268 147.036 -13.9658 -261.081 5.33902 -127.018)
(-82.0732 28.7964 -5.55935 -476.031 5.308 -201.44)
(-122.269 99.7537 -2.56233 152.562 0.28987 -34.6085)
(-83.9947 148.753 -8.97803 -33.2731 2.84512 -71.4632)
(-59.5287 120.668 -9.22404 -213.184 6.99652 -110.33)
(-59.2409 23.4132 -2.77359 -348.272 9.66209 -144.644)
(-123.46 74.6364 -1.34282 54.6222 -2.58391 -66.1573)
(-86.7696 115.588 -4.89788 -59.7706 1.47323 -81.8954)
(-59.8186 95.8607 -4.64901 -171.048 6.6898 -98.5514)
(-56.1317 21.8976 -0.382805 -249.162 10.642 -112.6)
(-127.407 50.3705 -0.106266 -21.538 -3.45894 -91.099)
(-91.545 84.1307 -1.42008 -78.8814 0.473045 -90.131)
(-63.4607 72.023 -1.00232 -137.438 5.32866 -91.3531)
(-54.3023 19.2544 1.22774 -169.491 9.33177 -89.8457)
(-130.7 29.4308 0.939238 -68.887 -2.8549 -106.514)
(-98.9626 55.0509 1.18874 -91.446 -0.0999119 -97.3942)
(-67.5716 48.4389 1.54957 -111.777 3.45843 -86.8444)
(-53.2596 13.5115 2.06081 -114.613 6.5483 -76.1261)
(-143.795 15.9465 1.75388 -93.358 -1.35924 -119.737)
(-120.586 28.7063 2.79735 -102.145 -0.327983 -110.818)
(-61.6819 22.6944 2.85056 -88.3084 1.19609 -78.4718)
(-45.2937 3.50997 2.14348 -84.6346 2.60364 -67.2757)
(444.001 305.345 0.721391 1066.8 18.2939 542.595)
(29.804 204.65 -4.44916 107.68 4.47087 42.2123)
(-206.62 164.299 -6.29871 -396.036 -7.21262 -250.113)
(-698.672 106.044 -4.39518 -1163.44 -12.2797 -808.117)
(-172.85 129.995 -2.05232 321.897 8.88857 19.1879)
(-53.1833 222.629 -9.3131 58.5677 3.87616 -18.1429)
(-97.3881 179.893 -10.9439 -334.757 0.644628 -177.244)
(-34.2214 28.6593 -5.3123 -527.41 -1.89437 -219.818)
(-106.356 128.146 -2.10852 284.322 5.56756 30.5249)
(-84.155 185.564 -8.43368 -2.24683 3.86955 -55.0969)
(-61.4045 149.897 -9.34585 -263.489 3.74338 -132.233)
(-81.3286 29.597 -3.85908 -479.599 2.95861 -215.637)
(-123.377 101.024 -1.50999 151.781 2.54708 -25.3293)
(-84.1404 151.35 -6.04787 -34.2816 3.14757 -68.0229)
(-58.437 123.104 -6.35323 -215.065 5.03104 -113.404)
(-58.2011 24.1867 -2.08231 -350.762 5.84163 -153.945)
(-124.471 75.6321 -0.678846 54.3875 0.502814 -60.7479)
(-86.9988 117.587 -3.29851 -60.3339 2.20202 -79.5152)
(-59.0435 97.7343 -3.24015 -172.326 4.95836 -99.6827)
(-55.2085 22.5285 -0.423996 -250.855 6.70805 -116.98)
(-128.294 51.1186 0.146292 -21.1878 -0.529705 -89.3)
(-91.765 85.5739 -0.869237 -78.9198 1.33202 -88.8188)
(-62.8851 73.3572 -0.652043 -138.1 4.07908 -90.9482)
(-53.421 19.6848 0.774375 -170.417 6.09937 -90.0279)
(-131.271 29.9394 0.807456 -67.979 -0.747443 -107.29)
(-99.0781 56.0368 0.944623 -91.0645 0.624021 -96.8638)
(-67.015 49.3384 1.16063 -111.856 2.73527 -85.2136)
(-52.4101 13.7503 1.42754 -114.914 4.43164 -73.1762)
(-144.512 16.2966 1.26015 -92.8042 -0.479264 -122.283)
(-120.769 29.2589 1.94734 -101.65 0.0367944 -110.653)
(-60.9024 23.1532 1.97001 -87.8194 0.98472 -75.5904)
(-43.8168 3.62306 1.48162 -83.8683 1.80442 -61.5449)
(447.646 308.075 0.424134 1074.68 10.641 550.511)
(30.3451 205.72 -2.64095 108.549 2.63848 43.8925)
(-208.346 165.076 -3.71371 -399.077 -4.15413 -254.098)
(-706.476 106.378 -2.55389 -1173.54 -7.03355 -820.779)
(-173.96 130.993 -1.14492 322.201 6.05885 26.5976)
(-53.0154 224.505 -5.58283 58.6026 2.75949 -15.6144)
(-97.2975 181.53 -6.60319 -336.684 0.469196 -181.876)
(-33.327 28.7948 -3.20213 -529.526 -1.28194 -229.676)
(-107.049 129.281 -1.17787 284.255 4.50902 38.1653)
(-84.2009 187.622 -5.19206 -2.89 2.98858 -52.6991)
(-60.5662 151.79 -5.8245 -264.924 2.45602 -135.655)
(-80.7086 30.0852 -2.44092 -481.873 1.58452 -224.59)
(-124.17 102.009 -0.789531 151.264 2.88493 -19.3474)
(-84.144 153.314 -3.77256 -35.0057 2.67528 -65.8803)
(-57.5901 124.954 -4.04404 -216.252 3.34428 -115.518)
(-57.2967 24.7673 -1.38673 -352.264 3.34081 -160.101)
(-125.177 76.4617 -0.261117 54.044 1.60772 -56.8854)
(-87.0057 119.275 -2.05034 -60.86 2.09904 -77.8869)
(-58.3151 99.3342 -2.08631 -173.19 3.36392 -100.53)
(-54.349 23.0826 -0.339283 -251.819 3.95292 -120.164)
(-128.883 51.7687 0.244353 -21.1742 0.757521 -87.5261)
(-91.7589 86.8973 -0.496756 -79.0991 1.46073 -87.7404)
(-62.2745 74.6052 -0.412728 -138.574 2.83062 -90.7242)
(-52.6161 20.1228 0.455076 -170.879 3.69202 -90.5355)
(-131.669 30.3832 0.622215 -67.5757 0.282653 -107.049)
(-99.0414 56.9599 0.653255 -90.9098 0.834219 -96.1678)
(-66.4461 50.1993 0.757743 -111.914 1.93903 -84.0794)
(-51.6463 14.0217 0.901912 -114.956 2.74558 -71.5744)
(-144.894 16.5569 0.855854 -92.3416 -0.0113726 -122.834)
(-120.855 29.7315 1.25187 -101.339 0.191678 -110.039)
(-60.2077 23.5489 1.2475 -87.4676 0.716364 -73.5495)
(-42.7846 3.70519 0.949622 -83.4213 1.13308 -58.2458)
(449.569 309.54 0.231066 1079.19 5.56984 554.737)
(30.5814 206.223 -1.38368 109.09 1.40754 44.7339)
(-209.368 165.41 -1.93859 -400.806 -2.13016 -256.376)
(-710.785 106.509 -1.31932 -1179.15 -3.61343 -827.746)
(-174.635 131.573 -0.564144 322.715 3.50904 30.5628)
(-52.979 225.529 -2.94573 58.7478 1.64171 -14.3301)
(-97.2911 182.394 -3.50025 -337.774 0.289098 -184.568)
(-32.8251 28.8182 -1.6918 -530.862 -0.731583 -235.237)
(-107.492 129.986 -0.576219 284.437 2.87063 42.4131)
(-84.2334 188.843 -2.785 -3.1817 1.86168 -51.41)
(-60.0932 152.894 -3.1528 -265.745 1.39075 -137.705)
(-80.3139 30.3415 -1.32936 -483.253 0.768565 -229.756)
(-124.665 102.649 -0.357424 151.027 2.10097 -15.8885)
(-84.1139 154.557 -2.03827 -35.4187 1.75305 -64.6621)
(-57.0486 126.116 -2.21936 -216.937 1.90613 -116.819)
(-56.6941 25.1183 -0.779523 -353.129 1.70258 -163.753)
(-125.621 77.011 -0.0659802 53.7851 1.42073 -54.5055)
(-86.9577 120.395 -1.10189 -61.2079 1.45274 -76.892)
(-57.8037 100.397 -1.15395 -173.689 1.94157 -101.073)
(-53.7462 23.4495 -0.209714 -252.311 2.05456 -122.151)
(-129.257 52.1993 0.202776 -21.2763 0.88536 -86.2428)
(-91.7026 87.8015 -0.248012 -79.2567 1.07107 -86.995)
(-61.8226 75.4645 -0.227638 -138.839 1.65692 -90.5991)
(-52.039 20.4322 0.23548 -171.041 1.9524 -90.9734)
(-131.942 30.6724 0.389415 -67.4518 0.489729 -106.571)
(-98.9808 57.5896 0.378617 -90.8517 0.653324 -95.5728)
(-66.028 50.7919 0.418727 -111.923 1.14943 -83.3659)
(-51.0867 14.2173 0.488681 -114.859 1.47111 -70.745)
(-145.122 16.7155 0.494865 -92.0803 0.123482 -122.645)
(-120.893 30.0436 0.69707 -101.164 0.180028 -109.403)
(-59.7116 23.8099 0.684 -87.2196 0.430615 -72.2495)
(-42.0977 3.75291 0.521102 -83.11 0.609684 -56.4492)
(450.407 310.187 0.0739686 1081.26 1.73516 556.577)
(30.6726 206.429 -0.429366 109.351 0.444135 45.0838)
(-209.838 165.538 -0.600592 -401.588 -0.653168 -257.409)
(-712.703 106.555 -0.406611 -1181.65 -1.1115 -830.84)
(-174.953 131.84 -0.168829 323.048 1.14833 32.2768)
(-52.9791 225.981 -0.917513 58.8526 0.544192 -13.7964)
(-97.2995 182.766 -1.09285 -338.267 0.098013 -185.802)
(-32.5986 28.8131 -0.527244 -531.503 -0.236942 -237.733)
(-107.703 130.321 -0.1713 284.598 0.980215 44.2957)
(-84.2514 189.406 -0.874345 -3.28512 0.630091 -50.8534)
(-59.8814 153.397 -0.994632 -266.118 0.450387 -138.662)
(-80.1277 30.4481 -0.42063 -483.907 0.228731 -232.108)
(-124.899 102.96 -0.100603 150.952 0.756321 -14.3191)
(-84.0926 155.149 -0.642 -35.5972 0.606697 -64.1156)
(-56.7888 126.666 -0.705018 -217.248 0.618957 -117.434)
(-56.4008 25.2787 -0.250661 -353.527 0.52078 -165.44)
(-125.831 77.279 -0.00761415 53.659 0.544565 -53.3845)
(-86.9226 120.94 -0.345889 -61.3726 0.514488 -76.4242)
(-57.5467 100.913 -0.36813 -173.913 0.63426 -101.335)
(-53.4439 23.6264 -0.0706657 -252.514 0.634673 -123.093)
(-129.435 52.4073 0.076182 -21.3521 0.363513 -85.5832)
(-91.6636 88.246 -0.0746874 -79.3405 0.388137 -86.6181)
(-61.5893 75.8881 -0.0728949 -138.951 0.544927 -90.5404)
(-51.7454 20.5859 0.072016 -171.078 0.608181 -91.2102)
(-132.076 30.8089 0.131276 -67.4278 0.214557 -106.245)
(-98.9431 57.8975 0.1231 -90.8329 0.242488 -95.2395)
(-65.8126 51.0822 0.132587 -111.914 0.380297 -83.0196)
(-50.801 14.3134 0.15301 -114.774 0.460946 -70.3947)
(-145.217 16.7878 0.160163 -91.9638 0.0605019 -122.389)
(-120.904 30.1951 0.222939 -101.085 0.0701025 -109.019)
(-59.4611 23.935 0.216742 -87.0909 0.143657 -71.6188)
(-41.7692 3.77286 0.163837 -82.9538 0.191749 -55.67)
)
;

boundaryField
{
    interface
    {
        type            calculated;
        value           nonuniform List<symmTensor> 
192
(
(-115.11 123.404 21.4684 1206.72 177.4 258.882)
(-122.746 52.6405 4.21025 469.346 -15.0111 -35.8689)
(-119.765 66.9425 5.84978 444.934 -5.21022 3.38362)
(-120.935 50.8675 3.30135 261.836 -18.334 -35.3492)
(-122.496 35.221 2.60661 127.732 -17.7095 -54.9618)
(-124.147 19.6112 2.28961 18.9165 -15.1141 -73.5251)
(-124.503 8.82066 2.32586 -48.3738 -10.2501 -82.8634)
(-122.095 3.93628 2.36484 -70.7024 -3.72025 -80.8287)
(-118.701 129.842 15.2833 1160.35 118.48 273.469)
(-127.517 60.0398 5.85687 521.089 18.6431 13.2005)
(-126.062 65.8102 3.89186 434.064 -4.41697 -1.05816)
(-127.312 50.6828 1.72374 259.82 -16.9909 -36.9275)
(-128.855 34.3803 0.651174 121.399 -20.1201 -60.6471)
(-129.983 19.0161 0.402595 13.6563 -17.9324 -78.4453)
(-129.303 8.24424 0.724067 -52.5486 -12.135 -87.0563)
(-124.806 3.36038 1.19433 -71.9479 -4.66207 -83.7691)
(-120.238 139.671 9.67771 1192.69 70.8717 305.679)
(-130.474 60.7781 4.74433 510.325 19.8634 51.4253)
(-129.281 65.8539 3.46478 430.043 3.41994 24.161)
(-130.624 50.5035 1.80894 256.986 -7.25228 -24.9544)
(-132.085 34.1179 0.780343 119.084 -11.4856 -59.4796)
(-132.876 18.8867 0.392881 12.5274 -11.2382 -84.6465)
(-131.547 8.2021 0.484924 -52.2148 -7.93962 -97.763)
(-125.956 2.99486 0.783447 -72.4341 -3.03145 -97.6797)
(-121.352 146.132 5.98714 1217.73 41.8554 327.414)
(-132.452 61.4037 3.50949 505.92 15.8922 79.225)
(-131.304 66.1835 2.93786 427.58 6.65838 47.9149)
(-132.689 50.5677 1.9165 255.557 -0.403266 -9.47927)
(-134.059 34.1747 1.13051 118.71 -4.09965 -52.5917)
(-134.613 19.0195 0.699105 13.2151 -4.9746 -84.7702)
(-132.867 8.36974 0.572199 -50.5629 -3.84587 -102.717)
(-126.596 2.95983 0.602992 -71.2769 -1.61208 -105.502)
(-122.239 150.029 3.68009 1233.45 24.7416 340.093)
(-133.827 62.021 2.47237 505.372 11.5937 96.355)
(-132.672 66.5894 2.29249 426.801 6.84093 64.0663)
(-134.07 50.7126 1.73815 254.71 2.72604 2.43979)
(-135.368 34.2704 1.21999 118.506 0.120392 -45.9041)
(-135.756 19.1271 0.843744 13.6868 -1.04008 -82.9127)
(-133.73 8.4769 0.625119 -49.4923 -1.08587 -104.369)
(-126.995 2.95475 0.500104 -70.3465 -0.511823 -109.126)
(-122.907 152.338 2.20069 1242.98 14.3229 347.188)
(-134.766 62.5211 1.6339 506.161 7.79197 106.287)
(-133.59 66.9738 1.62485 427.013 5.52296 74.0042)
(-134.987 50.8857 1.35092 254.414 3.31936 10.2983)
(-136.235 34.3578 1.04226 118.339 1.70365 -40.9324)
(-136.515 19.1866 0.76654 13.8443 0.719304 -80.7903)
(-134.302 8.52124 0.55625 -48.9712 0.263848 -104.379)
(-127.251 2.95829 0.38607 -69.6669 0.056269 -110.101)
(-123.353 153.641 1.17349 1248.43 7.46834 350.928)
(-135.359 62.8614 0.928619 507.082 4.47535 111.617)
(-134.162 67.2616 0.964073 427.497 3.50812 79.5502)
(-135.554 51.0315 0.844675 254.402 2.46271 14.8722)
(-136.772 34.4235 0.685284 118.232 1.60614 -37.8295)
(-136.985 19.2131 0.520878 13.8381 0.979608 -79.1958)
(-134.657 8.5293 0.375937 -48.7806 0.561537 -103.919)
(-127.404 2.95537 0.239934 -69.2809 0.198744 -110.029)
(-123.566 154.231 0.368394 1250.94 2.32172 352.543)
(-135.633 63.0308 0.300164 507.644 1.459 113.933)
(-134.423 67.4132 0.318069 427.841 1.1966 82.0175)
(-135.812 51.113 0.285369 254.464 0.891752 16.9579)
(-137.017 34.4589 0.236627 118.194 0.625627 -36.356)
(-137.2 19.2219 0.182387 13.8126 0.412893 -78.3613)
(-134.811 8.52323 0.130996 -48.7201 0.251307 -103.556)
(-127.435 2.95091 0.078889 -69.0893 0.0904138 -109.765)
(51.0174 203.812 1.66798 711.169 29.5286 -104.173)
(-240.735 99.5196 -4.86247 208.08 -2.56568 -102.054)
(-161.081 131.959 -6.92813 227.385 -2.19717 -100.279)
(-157.392 112.561 -7.69027 109.379 -2.29422 -99.5101)
(-139.53 92.1762 -8.06092 31.1393 -1.42088 -99.3188)
(-132.049 66.1726 -8.02831 -33.0776 -0.71684 -99.4885)
(-129.335 41.2121 -7.83648 -72.4757 -0.439085 -99.9009)
(-139.809 20.366 -7.77537 -91.4764 -0.508946 -100.372)
(-65.3428 117.728 -2.7621 70.6895 0.723507 -100.196)
(-127.599 177.074 -5.01775 -1.28994 -5.04612 -98.6515)
(-111.916 187.24 -5.81037 -17.5772 -4.32658 -97.4568)
(-100.369 169.819 -6.5207 -54.3271 -3.13937 -96.742)
(-92.5773 142.765 -6.8308 -77.4323 -1.76947 -96.3991)
(-92.0507 109.389 -6.87601 -92.111 -0.759252 -96.326)
(-96.1563 73.909 -6.81177 -97.7585 -0.225093 -96.4377)
(-113.235 37.1736 -6.94157 -98.9451 -0.0784231 -96.5269)
(-127.812 85.0324 -4.82159 -312.531 1.89343 -95.0605)
(-20.7525 146.15 -7.31131 -199.692 -5.18848 -94.1376)
(-24.1264 155.358 -7.34408 -215.738 -4.76142 -93.2048)
(-25.2228 142.997 -7.05278 -192.355 -3.42969 -92.5572)
(-34.0241 122.222 -6.8582 -169.895 -1.8852 -92.186)
(-45.2624 95.7135 -6.73059 -144.581 -0.70771 -92.065)
(-57.2993 65.561 -6.64986 -121.161 -0.0350076 -92.1725)
(-60.8402 30.0314 -6.81485 -98.3916 0.191318 -92.4411)
(-243.732 64.7139 -5.47261 -755.265 29.1579 -89.5691)
(63.2306 17.715 -9.48555 -351.824 -3.26317 -86.9343)
(-8.69498 39.004 -8.39167 -397.351 -3.85263 -85.7515)
(-8.26743 37.0124 -8.09682 -304.547 -3.18841 -85.0639)
(-24.9016 37.1763 -7.59561 -236.878 -1.66651 -84.8272)
(-36.1593 32.3847 -7.28555 -171.382 -0.385234 -84.931)
(-45.1087 22.7823 -7.07412 -122.404 0.366142 -85.3853)
(-43.8307 6.57342 -7.06856 -92.117 0.649484 -86.4193)
(-78.0047 -81.5984 -7.41373 -981.981 -89.9301 -423.871)
(-71.2061 -42.6658 4.83127 -545.809 20.3555 -136.198)
(-72.0432 -55.9381 3.44893 -527.682 6.84721 -175.872)
(-70.1114 -43.8523 5.64869 -386.375 16.5385 -134.394)
(-68.2728 -31.2721 5.9209 -277.201 15.3557 -117.799)
(-66.5585 -18.1839 5.69885 -183.081 12.8802 -103.403)
(-65.6852 -9.36164 4.87 -120.496 8.06527 -97.7364)
(-66.2231 -7.347 3.60925 -98.7822 2.03599 -103.021)
(-78.821 -89.9669 -6.90678 -971.887 -68.7383 -443.019)
(-73.2679 -50.8341 0.655798 -607.262 -4.51032 -180.878)
(-73.8307 -55.3852 2.94088 -529.219 14.2805 -167.313)
(-72.0471 -43.6172 4.75249 -390.263 23.3389 -134.03)
(-69.8319 -30.1772 5.2416 -273.834 23.9553 -114.904)
(-67.7443 -17.4304 4.80701 -179.301 19.9943 -101.898)
(-66.2306 -9.07117 3.72632 -117.171 12.9953 -96.5692)
(-65.5521 -7.79803 2.39555 -96.8457 4.97201 -102.491)
(-79.3903 -98.8349 -4.46196 -999.493 -42.0608 -485.541)
(-73.134 -52.6818 0.0179635 -610.553 -6.45187 -220.143)
(-73.76 -56.3255 1.77175 -535.852 8.5406 -193.875)
(-71.9447 -44.1019 3.25796 -394.473 16.6958 -147.364)
(-69.5849 -30.2993 3.82163 -275.189 18.46 -117.057)
(-67.3198 -17.5386 3.60357 -179.458 16.0697 -96.3813)
(-65.5108 -9.27693 2.83587 -116.836 10.9843 -85.9227)
(-64.3098 -7.82492 1.7586 -93.7978 4.25801 -86.9052)
(-79.3261 -104.479 -2.60337 -1018.9 -24.9947 -514.59)
(-72.3624 -53.8881 0.0199075 -612.945 -5.3078 -251.103)
(-72.9869 -57.3234 1.10285 -540.361 4.18046 -219.224)
(-71.103 -44.7479 2.11023 -397.879 9.98121 -162.687)
(-68.6738 -30.7529 2.59008 -277.245 11.8898 -122.744)
(-66.3272 -17.9211 2.54291 -180.603 10.8767 -94.6422)
(-64.3787 -9.64357 2.08964 -117.326 7.83402 -78.983)
(-62.953 -8.08337 1.35191 -92.765 3.24655 -76.069)
(-79.0566 -107.826 -1.46203 -1030.6 -14.7184 -531.932)
(-71.6588 -54.7701 0.0684694 -615.431 -3.82635 -271.249)
(-72.278 -58.1263 0.697158 -543.555 1.83756 -237.031)
(-70.3381 -45.3005 1.311 -400.171 5.50102 -174.716)
(-67.8606 -31.165 1.64934 -278.746 6.99318 -128.445)
(-65.4615 -18.2428 1.67822 -181.387 6.70716 -94.894)
(-63.4265 -9.91892 1.43586 -117.532 5.04017 -75.1694)
(-61.86 -8.29941 0.969589 -92.0752 2.14167 -69.233)
(-78.7597 -109.775 -0.789896 -1037.43 -8.41907 -541.914)
(-71.1136 -55.3783 0.0820075 -617.454 -2.51642 -283.458)
(-71.7322 -58.717 0.431549 -545.794 0.713788 -248.289)
(-69.7524 -45.7158 0.780934 -401.638 2.85873 -182.77)
(-67.2384 -31.46 0.992334 -279.588 3.84475 -132.736)
(-64.8031 -18.4549 1.03616 -181.699 3.8347 -95.7399)
(-62.7126 -10.0912 0.914447 -117.458 2.97165 -73.3195)
(-61.0585 -8.46731 0.640518 -91.664 1.28116 -65.5077)
(-78.5234 -110.855 -0.386201 -1041.19 -4.32557 -547.329)
(-70.7414 -55.755 0.0608586 -618.798 -1.417 -290.27)
(-71.361 -59.1005 0.235558 -547.209 0.231771 -254.737)
(-69.3562 -45.9895 0.412192 -402.506 1.33917 -187.536)
(-66.8178 -31.6448 0.525304 -279.997 1.88386 -135.438)
(-64.3584 -18.5762 0.55772 -181.742 1.933 -96.4817)
(-62.2335 -10.1865 0.501583 -117.269 1.52635 -72.4756)
(-60.5353 -8.574 0.354995 -91.3847 0.660681 -63.6073)
(-78.4019 -111.34 -0.115824 -1042.87 -1.33112 -549.711)
(-70.5611 -55.9348 0.0213597 -619.46 -0.456613 -293.306)
(-71.1838 -59.288 0.0741165 -547.896 0.0485495 -257.657)
(-69.168 -46.1243 0.127805 -402.916 0.389306 -189.733)
(-66.6183 -31.7324 0.163149 -280.165 0.562135 -136.727)
(-64.1441 -18.6301 0.174786 -181.721 0.58556 -96.8903)
(-61.9994 -10.2318 0.158382 -117.134 0.466434 -72.1567)
(-60.3309 -8.62168 0.110359 -91.2757 0.202726 -62.8528)
(-150.784 15.9014 -1.20706 -100.182 -0.240425 -106.242)
(-148.286 15.8096 3.11313 -98.5939 -0.797121 -107.56)
(-149.21 16.3563 2.80958 -97.5082 -0.66042 -117.416)
(-149.732 16.789 2.10878 -96.665 -0.487178 -123.38)
(-150.356 17.152 1.42942 -96.0464 -0.340039 -126.278)
(-150.746 17.406 0.931427 -95.6104 -0.230155 -126.97)
(-150.966 17.5654 0.524052 -95.3415 -0.141305 -126.772)
(-151.093 17.6353 0.167125 -95.2768 -0.0504642 -126.52)
(-130.998 12.2659 0.158879 -95.657 0.409351 -106.956)
(-129.463 12.0697 4.54261 -94.5455 -0.368773 -108.737)
(-129.06 12.3039 4.49254 -93.6313 -0.429726 -110.43)
(-129.266 12.6009 3.33515 -92.8902 -0.316613 -111.201)
(-129.549 12.8484 2.22478 -92.3323 -0.205337 -111.056)
(-129.743 13.0269 1.40089 -91.9328 -0.127019 -110.356)
(-129.844 13.1431 0.774579 -91.6706 -0.0713008 -109.602)
(-129.874 13.2061 0.247541 -91.5349 -0.0236543 -109.135)
(-62.4274 3.15744 0.0639163 -90.9116 0.7232 -88.8094)
(-64.9379 3.44275 4.27875 -89.9805 -0.0878645 -89.7773)
(-65.1226 3.71148 4.22067 -89.1636 -0.212284 -85.4633)
(-64.623 3.88955 3.13658 -88.4623 -0.153339 -81.3082)
(-63.8612 3.98535 2.07578 -87.9131 -0.0828874 -77.9175)
(-63.1781 4.04005 1.29106 -87.5115 -0.0394575 -75.5175)
(-62.6902 4.07201 0.706043 -87.2452 -0.016055 -73.9953)
(-62.4363 4.09007 0.22417 -87.1017 -0.00387006 -73.2516)
(-40.6997 0.539246 -0.854048 -85.4386 1.16927 -88.2181)
(-43.587 1.04111 2.91894 -84.1359 0.312764 -88.9537)
(-41.9392 1.11984 2.55484 -83.104 0.155373 -76.4401)
(-40.6089 1.22378 1.96858 -82.2385 0.109566 -66.9758)
(-39.0948 1.24219 1.33405 -81.5507 0.0959229 -60.3639)
(-37.9356 1.24792 0.860459 -81.0466 0.0735374 -56.4343)
(-37.1611 1.24899 0.478285 -80.7145 0.0472614 -54.2764)
(-36.7848 1.24964 0.151321 -80.5446 0.0168335 -53.3297)
)
;
    }
    symmetry
    {
        type            symmetryPlane;
    }
    bottom
    {
        type            calculated;
        value           nonuniform List<symmTensor> 
32
(
(510.862 253.356 29.6807 771.929 285.564 517.983)
(486.062 282.486 17.3281 719.628 146.851 461.737)
(503.873 299.801 9.90167 743.457 79.7605 469.29)
(516.298 308.213 5.62326 761.409 44.3453 478.024)
(523.587 312.425 3.20292 772.225 25.014 483.839)
(527.842 314.663 1.79613 778.632 13.9592 487.434)
(530.227 315.86 0.914984 782.248 7.09321 489.503)
(531.307 316.39 0.280972 783.892 2.17579 490.452)
(49.2851 87.7824 3.41501 68.0142 71.6465 47.8883)
(40.0861 123.476 2.53196 47.7454 37.4113 32.4966)
(43.5165 132.656 1.44107 50.9991 19.8479 34.1005)
(45.4193 134.767 0.787505 53.4253 10.6881 35.5521)
(46.4182 135.016 0.43257 54.8915 5.86404 36.4773)
(46.9765 134.855 0.237154 55.7787 3.22006 37.0502)
(47.2899 134.685 0.119745 56.2948 1.62834 37.3868)
(47.4342 134.593 0.0367169 56.5354 0.499685 37.5443)
(-215.559 64.7838 -3.57379 -317.27 -84.0424 -213.678)
(-207.635 100.525 -3.47847 -311.491 -52.875 -212.419)
(-214.219 109.218 -2.36663 -322.505 -32.9165 -221.358)
(-219.008 111.023 -1.48711 -329.658 -20.2697 -226.882)
(-222.118 111.085 -0.900961 -334.072 -12.2446 -230.193)
(-224.046 110.813 -0.5216 -336.743 -7.09613 -232.158)
(-225.153 110.579 -0.268702 -338.26 -3.66032 -233.262)
(-225.656 110.458 -0.0826366 -338.946 -1.12651 -233.758)
(-632.529 120.861 -24.0766 -877.451 -213.856 -603.534)
(-611.875 147.157 -17.0012 -862.703 -125.7 -617.256)
(-639.015 156.592 -10.794 -901.231 -73.0297 -657.126)
(-658.024 160.048 -6.55994 -926.708 -42.6409 -680.899)
(-669.522 161.42 -3.89225 -941.716 -24.8123 -694.245)
(-676.318 162.025 -2.22527 -950.46 -14.0418 -701.803)
(-680.113 162.316 -1.13927 -955.306 -7.15028 -705.925)
(-681.816 162.438 -0.349612 -957.474 -2.18905 -707.754)
)
;
    }
}


// ************************************************************************* //
