/*--------------------------------*- C++ -*----------------------------------*\
| =========                 |                                                 |
| \\      /  F ield         | foam-extend: Open Source CFD                    |
|  \\    /   O peration     | Version:     3.1                                |
|   \\  /    A nd           | Web:         http://www.extend-project.de       |
|    \\/     M anipulation  |                                                 |
\*---------------------------------------------------------------------------*/
FoamFile
{
    version     2.0;
    format      ascii;
    class       volScalarField;
    location    "0.9";
    object      sigmaEq;
}
// * * * * * * * * * * * * * * * * * * * * * * * * * * * * * * * * * * * * * //

dimensions      [1 -1 -2 0 0 0 0];

internalField   nonuniform List<scalar> 
256
(
647.076
280.98
294.942
644.855
462.076
353.533
342.584
440.193
405.573
328.973
320.892
384.894
303.968
285.589
279.755
284.183
214.685
233.583
229.24
197.528
138.634
176.9
173.731
124.662
82.753
118.749
116.259
71.5378
56.0786
61.8023
57.059
44.9419
629.909
326.615
339.563
633.248
479.652
375.889
377.651
480.198
399.702
318.401
314.653
388.579
297.536
264.014
258.504
280.171
205.695
208.266
202.96
187.322
129.817
153.928
149.848
113.753
75.5469
101.716
98.8384
62.882
53.0944
54.547
49.2705
41.1384
636.473
344.014
356.489
639.943
475.247
386.257
390.937
479.379
397.303
323.118
320.929
389.411
295.363
262.321
257.133
279.272
204.193
203.643
198.096
185.652
128.896
148.512
144.147
112.038
74.9578
97.5071
94.4292
60.9506
52.3843
53.4493
47.1042
36.8669
643.518
351.544
363.759
646.573
474.553
393.514
398.799
478.231
396.49
328.978
327.268
389.47
295.052
266.111
261.095
279.505
204.592
205.76
200.166
185.988
129.942
149.5
145.003
112.511
76.3044
98.0382
94.7858
61.2252
53.4867
54.038
46.899
35.7656
648.59
354.983
367.036
651.314
475.89
398.254
403.494
478.507
397.044
333.724
332.119
390.049
295.642
270.322
265.406
280.244
205.564
209.192
203.617
186.871
131.3
152.074
147.521
113.467
77.7855
99.8085
96.4546
62.0858
54.7736
55.0341
47.4664
36.1735
651.912
356.632
368.58
654.384
477.538
401.174
406.205
479.228
398.031
337.012
335.364
390.816
296.439
273.573
268.694
281.028
206.439
212.1
206.552
187.677
132.318
154.417
149.851
114.263
78.8022
101.45
98.0574
62.8154
55.6619
55.8923
48.1247
36.8327
653.916
357.438
369.32
656.206
478.823
402.838
407.675
479.871
398.898
339.013
337.287
391.449
297.096
275.653
270.774
281.618
207.037
214.031
208.5
188.225
132.925
156.008
151.444
114.767
79.3649
102.562
99.1601
63.2707
56.1546
56.4695
48.6078
37.3077
654.861
357.776
369.625
657.055
479.503
403.592
408.32
480.225
399.381
339.949
338.171
391.792
297.453
276.648
271.763
281.925
207.332
214.969
209.445
188.493
133.197
156.787
152.226
115
79.5999
103.104
99.6995
63.4761
56.3606
56.7537
48.85
37.5334
)
;

boundaryField
{
    interface
    {
        type            calculated;
        value           nonuniform List<scalar> 
192
(
1057.9
525.465
496.554
348.812
232.122
134.092
71.7824
49.613
1017.34
559.917
492.631
351.605
232.49
135.35
72.9636
50.5151
1033.92
546.524
486.688
348.069
230.838
135.31
73.3845
48.2401
1050.03
541.094
483.103
345.682
230.133
136.237
75.5223
49.9461
1061.13
540.401
482.174
344.701
229.988
137.067
77.2007
51.6707
1068.21
541.28
482.519
344.576
230.048
137.55
78.1253
52.7166
1072.39
542.308
483.149
344.752
230.141
137.755
78.5154
53.1862
1074.33
542.914
483.559
344.905
230.195
137.815
78.6311
53.3322
742.094
430.695
417.082
310.353
224.238
147.592
90.2185
60.41
253.542
331.877
340.793
303.36
253.639
194.588
131.977
69.3975
270.645
308.195
330.59
297.697
250.226
192.187
129.855
64.9714
731.997
385.794
392.622
290.309
209.426
136.007
80.3994
49.4197
1020.68
510.656
475.262
326.348
210.576
114.906
54.283
38.5817
990.271
567.203
479.697
330.956
209.312
113.814
53.9721
39.0307
1009.53
556.775
477.423
329.481
208.142
113.412
52.8422
31.6335
1027.19
550.192
475.014
328.018
207.555
113.694
53.565
30.6911
1039.25
548.034
474.318
327.412
207.405
114.002
54.4233
31.7931
1046.84
547.784
474.571
327.382
207.414
114.158
54.9584
32.9872
1051.24
548.072
475.041
327.543
207.457
114.194
55.2004
33.7232
1053.26
548.316
475.346
327.667
207.481
114.187
55.2798
34.0385
57.3155
55.6637
55.412
56.3345
57.5989
58.4646
58.9579
59.1483
39.0098
38.9194
39.344
39.9282
40.5368
41.0384
41.3876
41.5689
28.5884
27.2045
24.9121
23.3311
22.7686
22.7636
22.9111
23.0154
46.9418
44.1533
39.1311
37.2543
37.4929
38.1677
38.7065
38.9697
)
;
    }
    symmetry
    {
        type            symmetryPlane;
    }
    bottom
    {
        type            calculated;
        value           nonuniform List<scalar> 
32
(
600.909
516.702
507.607
510.217
513.491
515.855
517.306
517.988
193.922
221.096
229.687
231.395
231.26
230.804
230.447
230.268
228.821
240.24
243.434
242.931
242.04
241.419
241.082
240.94
650.753
540.651
514.985
510.929
512.153
514.116
515.615
516.38
)
;
    }
}


// ************************************************************************* //
