/*--------------------------------*- C++ -*----------------------------------*\
| =========                 |                                                 |
| \\      /  F ield         | foam-extend: Open Source CFD                    |
|  \\    /   O peration     | Version:     3.1                                |
|   \\  /    A nd           | Web:         http://www.extend-project.de       |
|    \\/     M anipulation  |                                                 |
\*---------------------------------------------------------------------------*/
FoamFile
{
    version     2.0;
    format      ascii;
    class       volVectorField;
    location    "0.9";
    object      U;
}
// * * * * * * * * * * * * * * * * * * * * * * * * * * * * * * * * * * * * * //

dimensions      [0 1 -1 0 0 0 0];

internalField   nonuniform List<vector> 
256
(
(-6.4805e-05 0.000444727 -4.07285e-05)
(-0.000135777 0.000229487 -0.00028274)
(-2.24181e-05 4.44765e-05 -0.000595378)
(0.000354065 -0.000260825 -0.000976029)
(0.000916558 0.00134478 -0.000375)
(0.000743315 0.000550009 -0.000727188)
(0.000808769 -0.000206215 -0.00116733)
(0.00108651 -0.00114903 -0.00150764)
(0.00250694 0.00215155 -0.000693247)
(0.00227902 0.000833003 -0.000994069)
(0.00229487 -0.000428452 -0.00138518)
(0.00250866 -0.00188206 -0.00171829)
(0.00470078 0.00275976 -0.000993908)
(0.00443193 0.000985497 -0.00119311)
(0.00438708 -0.000715884 -0.00148043)
(0.00450537 -0.00261968 -0.00171829)
(0.00732701 0.00315781 -0.00127356)
(0.00703195 0.00101731 -0.0013482)
(0.00693477 -0.00103735 -0.00150329)
(0.0069694 -0.00328742 -0.00161698)
(0.0102224 0.00336148 -0.00152574)
(0.00991723 0.000949851 -0.00147749)
(0.00978167 -0.00136942 -0.00149793)
(0.00975001 -0.00386448 -0.00148119)
(0.0132336 0.0034142 -0.00173917)
(0.0129287 0.000818683 -0.00159144)
(0.0127701 -0.0016821 -0.00149116)
(0.0126991 -0.00433251 -0.00136051)
(0.0162541 0.00336472 -0.00190894)
(0.0159312 0.00066339 -0.00169907)
(0.0157568 -0.00195125 -0.00150334)
(0.0156845 -0.00469128 -0.00129825)
(4.70399e-05 0.00048023 -8.50893e-05)
(-4.51541e-05 0.000279106 -0.000200229)
(4.20831e-05 0.000117819 -0.00037806)
(0.000344552 -0.000138323 -0.000595386)
(0.00100054 0.00144311 -0.00038088)
(0.000830464 0.000669922 -0.000579054)
(0.000927578 -6.35521e-05 -0.000850935)
(0.00127161 -0.000984932 -0.00107028)
(0.00259375 0.00224669 -0.000664501)
(0.00237542 0.000932673 -0.000841011)
(0.00240686 -0.000333981 -0.0010896)
(0.0026378 -0.00178464 -0.00129272)
(0.00473625 0.00285157 -0.000921383)
(0.00447566 0.00107509 -0.0010302)
(0.00443682 -0.000642306 -0.0012078)
(0.00455815 -0.00254795 -0.0013477)
(0.00728812 0.00325034 -0.00115043)
(0.0069993 0.00110481 -0.00117408)
(0.00689988 -0.000968718 -0.00125815)
(0.00692246 -0.00322012 -0.00130858)
(0.0100999 0.00345962 -0.00135222)
(0.0098006 0.00104344 -0.00129015)
(0.009658 -0.00129027 -0.00127793)
(0.00960528 -0.00378266 -0.00123487)
(0.0130326 0.00351777 -0.0015227)
(0.012737 0.000919962 -0.00139087)
(0.0125709 -0.001585 -0.00129475)
(0.012473 -0.00422628 -0.00117074)
(0.015995 0.00347112 -0.00166016)
(0.015684 0.000769626 -0.0014862)
(0.0155052 -0.0018373 -0.00133393)
(0.0154094 -0.00456239 -0.00115936)
(7.95993e-05 0.000491209 -0.000103142)
(-3.23331e-05 0.000288574 -0.000156858)
(4.41697e-05 0.000126325 -0.000254688)
(0.000339327 -0.0001278 -0.000372504)
(0.00102534 0.00147942 -0.000356031)
(0.000838219 0.000720103 -0.00045741)
(0.000945068 3.16462e-07 -0.000611317)
(0.00132016 -0.000912096 -0.000737078)
(0.0025971 0.00229114 -0.000597558)
(0.00236932 0.00100037 -0.000686661)
(0.00241355 -0.000250278 -0.000827123)
(0.00267775 -0.00168423 -0.000935839)
(0.00470701 0.00289831 -0.000813593)
(0.00443917 0.00114982 -0.000858247)
(0.00440813 -0.000548044 -0.000951396)
(0.00455273 -0.00242648 -0.00101654)
(0.00721444 0.00330154 -0.00100101)
(0.00691953 0.0011863 -0.000989006)
(0.00682251 -0.000864895 -0.0010187)
(0.00685837 -0.00308346 -0.00102247)
(0.00997716 0.00352085 -0.00116283)
(0.00967311 0.00113396 -0.00109337)
(0.0095288 -0.00117537 -0.00105739)
(0.00948008 -0.00363243 -0.000996937)
(0.012864 0.00359329 -0.00130002)
(0.0125658 0.00102049 -0.00118385)
(0.0123958 -0.00145882 -0.00109223)
(0.0122939 -0.00406538 -0.000976659)
(0.0157924 0.00356169 -0.0014138)
(0.0154806 0.000877982 -0.00127179)
(0.0152964 -0.00170346 -0.00114887)
(0.0151896 -0.00439616 -0.0010017)
(8.32449e-05 0.000495942 -9.99735e-05)
(-4.00524e-05 0.000292705 -0.000122125)
(3.1594e-05 0.00012914 -0.000172999)
(0.000328639 -0.000126222 -0.000231779)
(0.00101422 0.00149577 -0.000308234)
(0.000813534 0.00074838 -0.000354247)
(0.000922021 3.86181e-05 -0.000435385)
(0.00131229 -0.000866874 -0.000499745)
(0.0025617 0.00231798 -0.000506103)
(0.0023244 0.00104949 -0.000541761)
(0.00237497 -0.00018224 -0.000612854)
(0.00266025 -0.00159758 -0.0006612)
(0.00464481 0.00293336 -0.000682206)
(0.00437008 0.00121334 -0.000687648)
(0.00434501 -0.000458573 -0.000726668)
(0.00450903 -0.00230801 -0.000743953)
(0.00712249 0.00334467 -0.000833742)
(0.00682238 0.00126133 -0.00080095)
(0.00672929 -0.000759415 -0.000797161)
(0.0067801 -0.00294326 -0.00077284)
(0.00985466 0.00357435 -0.000963491)
(0.00954665 0.00121969 -0.000892168)
(0.0094039 -0.00105731 -0.000844227)
(0.00936439 -0.00347753 -0.000776477)
(0.0127128 0.00365913 -0.00107446)
(0.0124119 0.00111601 -0.000972055)
(0.0122414 -0.00133113 -0.000887715)
(0.0121428 -0.00390143 -0.000783012)
(0.0156173 0.003639 -0.0011685)
(0.015303 0.000980784 -0.0010509)
(0.015116 -0.00157026 -0.000949619)
(0.0150073 -0.00422847 -0.000825881)
(7.83072e-05 0.000498008 -8.46352e-05)
(-5.13901e-05 0.000295317 -9.11218e-05)
(1.73295e-05 0.000131054 -0.000115458)
(0.000315954 -0.000124485 -0.000141449)
(0.000989389 0.0015049 -0.000246958)
(0.000779801 0.000767723 -0.000263643)
(0.000887513 6.58638e-05 -0.000302652)
(0.00128554 -0.000832231 -0.000331048)
(0.0025143 0.00233707 -0.000400848)
(0.00226957 0.00108693 -0.000408052)
(0.00232251 -0.000128663 -0.000438797)
(0.00261979 -0.00152835 -0.00045336)
(0.00457528 0.00296255 -0.000537649)
(0.00429488 0.00126601 -0.000523842)
(0.00427329 -0.000383272 -0.000532635)
(0.00445021 -0.00220958 -0.00052497)
(0.00703152 0.00338352 -0.000655489)
(0.0067271 0.00132648 -0.00061575)
(0.00663717 -0.000667428 -0.000595866)
(0.00669936 -0.00282342 -0.000560099)
(0.00974308 0.00362288 -0.000756517)
(0.00943172 0.00129526 -0.000690932)
(0.00929113 -0.000952919 -0.000641751)
(0.00926001 -0.00334313 -0.000577018)
(0.0125816 0.00371702 -0.000843768)
(0.0122781 0.00119998 -0.000757583)
(0.0121086 -0.00121801 -0.000684904)
(0.0120147 -0.0037579 -0.000595811)
(0.015467 0.00370444 -0.000918578)
(0.0151504 0.00107055 -0.000823679)
(0.0149628 -0.00145212 -0.000742171)
(0.0148557 -0.00408038 -0.000641976)
(7.20278e-05 0.000498845 -6.30816e-05)
(-6.12724e-05 0.000297102 -6.28832e-05)
(5.50993e-06 0.000132587 -7.31828e-05)
(0.00030468 -0.000122302 -8.26402e-05)
(0.00096396 0.00151052 -0.000178935)
(0.000748877 0.000781448 -0.000182045)
(0.0008553 8.55554e-05 -0.00019848)
(0.00125714 -0.000805742 -0.00020829)
(0.00247002 0.00235112 -0.000288794)
(0.00222003 0.00111474 -0.000284097)
(0.00227355 -8.87797e-05 -0.000294099)
(0.00257752 -0.0014765 -0.000293239)
(0.0045137 0.00298592 -0.000386568)
(0.004229 0.00130676 -0.000367701)
(0.00420911 -0.000325636 -0.000363194)
(0.00439393 -0.0021353 -0.000347165)
(0.00695435 0.00341582 -0.000471149)
(0.00664651 0.00137814 -0.000435291)
(0.00655858 -0.000595663 -0.00041232)
(0.00662836 -0.00273177 -0.000378018)
(0.0096515 0.0036632 -0.00054403)
(0.00933744 0.00135571 -0.000491433)
(0.00919858 -0.000870615 -0.000449818)
(0.00917364 -0.00323912 -0.000396976)
(0.0124759 0.00376404 -0.000607501)
(0.0121703 0.00126704 -0.000541715)
(0.012002 -0.0011284 -0.000485511)
(0.0119124 -0.0036457 -0.000417275)
(0.0153466 0.00375616 -0.000662216)
(0.015028 0.00114198 -0.000591558)
(0.0148407 -0.00135811 -0.000530958)
(0.0147363 -0.00396346 -0.000456488)
(6.70753e-05 0.000499134 -3.86277e-05)
(-6.81592e-05 0.000298244 -3.68017e-05)
(-2.59056e-06 0.000133699 -4.04299e-05)
(0.000296573 -0.000120359 -4.28569e-05)
(0.000944567 0.00151388 -0.000108015)
(0.000726343 0.000790416 -0.000106726)
(0.00083168 9.85334e-05 -0.000112412)
(0.00123523 -0.000787656 -0.000114446)
(0.0024371 0.00236053 -0.000173887)
(0.00218382 0.00113329 -0.000167457)
(0.00223727 -6.22909e-05 -0.000169011)
(0.0025448 -0.00144192 -0.000164315)
(0.00446881 0.00300227 -0.000232621)
(0.00418123 0.0013345 -0.000217902)
(0.00416208 -0.000286902 -0.00021111)
(0.00435137 -0.00208585 -0.000197512)
(0.00689905 0.00343881 -0.000283646)
(0.00658883 0.00141377 -0.000259208)
(0.00650198 -0.000546949 -0.000242019)
(0.0065763 -0.00267041 -0.000218045)
(0.00958674 0.00369189 -0.000327829)
(0.00927078 0.00139762 -0.000293903)
(0.00913301 -0.000814366 -0.000266318)
(0.00911201 -0.00316896 -0.000231955)
(0.0124017 0.00379705 -0.000366531)
(0.0120947 0.0013135 -0.000325191)
(0.0119273 -0.00106691 -0.000289621)
(0.0118408 -0.00356949 -0.000246724)
(0.0152621 0.00379192 -0.000399964)
(0.0149422 0.0011914 -0.000356142)
(0.0147555 -0.00129332 -0.000318595)
(0.0146535 -0.00388347 -0.000272561)
(6.44318e-05 0.000499209 -1.29801e-05)
(-7.16423e-05 0.000298806 -1.21078e-05)
(-6.66126e-06 0.000134287 -1.29185e-05)
(0.000292384 -0.000119239 -1.32243e-05)
(0.000934274 0.00151547 -3.60791e-05)
(0.000714631 0.000794865 -3.5158e-05)
(0.000819374 0.000105 -3.63953e-05)
(0.00122356 -0.000778471 -3.64658e-05)
(0.00241976 0.00236527 -5.80265e-05)
(0.0021649 0.00114259 -5.53138e-05)
(0.00221821 -4.907e-05 -5.5124e-05)
(0.00252729 -0.00142462 -5.28948e-05)
(0.00444531 0.00301067 -7.7621e-05)
(0.00415631 0.00134854 -7.21697e-05)
(0.00413741 -0.000267474 -6.92473e-05)
(0.00432873 -0.00206117 -6.40771e-05)
(0.00687028 0.00345071 -9.46862e-05)
(0.00655887 0.00143191 -8.60614e-05)
(0.00647248 -0.000522396 -7.97745e-05)
(0.00654891 -0.00263972 -7.12313e-05)
(0.00955322 0.00370671 -0.000109505)
(0.0092363 0.00141902 -9.77966e-05)
(0.00909905 -0.000785905 -8.81645e-05)
(0.00907996 -0.00313374 -7.62682e-05)
(0.0123634 0.00381398 -0.000122524)
(0.0120557 0.00133724 -0.000108415)
(0.0118888 -0.0010357 -9.62392e-05)
(0.0118039 -0.00353108 -8.16051e-05)
(0.0152184 0.00381005 -0.000133779)
(0.0148979 0.00121668 -0.000118904)
(0.0147116 -0.00126031 -0.00010617)
(0.0146109 -0.00384295 -9.05852e-05)
)
;

boundaryField
{
    interface
    {
        type            calculated;
        value           nonuniform List<vector> 
192
(
(0.000176756 0.000659696 -1.9681e-05)
(0.00117448 0.00187817 -0.000327725)
(0.00279613 0.00296546 -0.000668261)
(0.00499818 0.00383368 -0.00100583)
(0.00761501 0.00442797 -0.00133379)
(0.0104862 0.00476164 -0.00163537)
(0.0134709 0.00488001 -0.00189079)
(0.0164679 0.00487272 -0.00208421)
(0.000343461 0.000728879 -7.41498e-05)
(0.00126371 0.00195969 -0.000362293)
(0.00288521 0.00304049 -0.00066269)
(0.00503144 0.003891 -0.000939842)
(0.00757351 0.0044808 -0.00119741)
(0.0103625 0.00482059 -0.00143046)
(0.0132699 0.00495233 -0.00162961)
(0.0162103 0.00496535 -0.00178584)
(0.000401617 0.000754509 -0.000103263)
(0.00130023 0.00198006 -0.000359042)
(0.00289809 0.00306861 -0.000613837)
(0.00500614 0.00391479 -0.000845596)
(0.00749996 0.00450618 -0.00105157)
(0.0102374 0.00485632 -0.00123314)
(0.013098 0.00500665 -0.00138873)
(0.0160028 0.00504438 -0.00151605)
(0.000415693 0.000759434 -0.000104713)
(0.00129852 0.00198434 -0.000321285)
(0.00287246 0.00308028 -0.00053078)
(0.00495113 0.00393277 -0.000719468)
(0.00741306 0.00453139 -0.000884078)
(0.0101181 0.00489253 -0.0010269)
(0.0129489 0.00505748 -0.00115022)
(0.0158283 0.00511105 -0.00125457)
(0.000413447 0.000756058 -9.03437e-05)
(0.00127977 0.00198304 -0.000262187)
(0.00283229 0.00308684 -0.000426053)
(0.00488817 0.00394903 -0.0005729)
(0.00732754 0.00455758 -0.000700389)
(0.0100108 0.00492908 -0.000810599)
(0.012821 0.00510442 -0.000906642)
(0.0156802 0.00516718 -0.000989484)
(0.000406579 0.000750494 -6.7938e-05)
(0.00125788 0.00198008 -0.000191911)
(0.00279277 0.00309118 -0.000309479)
(0.00483152 0.00396285 -0.000414717)
(0.00725489 0.00458089 -0.000506169)
(0.00992309 0.004961 -0.000585417)
(0.0127185 0.00514341 -0.00065503)
(0.0155622 0.00521134 -0.000715623)
(0.000400219 0.000745684 -4.17735e-05)
(0.00124036 0.00197734 -0.000116473)
(0.00276268 0.00309393 -0.000187209)
(0.00478981 0.00397282 -0.000250577)
(0.00720266 0.00459799 -0.000305783)
(0.00986108 0.00498418 -0.000353797)
(0.0126466 0.00517104 -0.000396207)
(0.0154797 0.00524178 -0.000433264)
(0.0003966 0.000743006 -1.40577e-05)
(0.00123085 0.00197576 -3.89926e-05)
(0.00274661 0.00309527 -6.26007e-05)
(0.00476783 0.00397802 -8.37699e-05)
(0.00717542 0.00460696 -0.000102245)
(0.00982893 0.00499627 -0.000118352)
(0.0126095 0.00518526 -0.000132619)
(0.015437 0.00525711 -0.0001451)
(-0.000115157 0.000309326 -4.85199e-05)
(0.000802811 0.00121942 -0.0003551)
(0.00242108 0.00202595 -0.000695607)
(0.00466228 0.00264002 -0.00101991)
(0.00735059 0.00303685 -0.00132791)
(0.0103103 0.00324436 -0.00160626)
(0.0133781 0.00330712 -0.00183839)
(0.0164422 0.0032893 -0.00203132)
(-0.000247031 -6.45742e-05 -0.000456117)
(0.000532871 0.000436533 -0.000775402)
(0.002099 0.000755681 -0.00106711)
(0.00431212 0.000934302 -0.00127447)
(0.0069872 0.000968923 -0.00144015)
(0.00994787 0.000896788 -0.00157727)
(0.0130265 0.000758212 -0.00169666)
(0.0160815 0.000605565 -0.00181607)
(-0.000150773 -0.000502872 -0.000889208)
(0.000601772 -0.000317134 -0.00124861)
(0.00211817 -0.000474455 -0.00149889)
(0.00427036 -0.000704904 -0.00158926)
(0.00689401 -0.00101686 -0.00160991)
(0.00981664 -0.00135865 -0.00159853)
(0.0128725 -0.0016912 -0.00158495)
(0.0159076 -0.00198692 -0.00158042)
(0.000242899 -0.00109337 -0.00139861)
(0.000961971 -0.00127091 -0.00162388)
(0.0024056 -0.00191852 -0.0019114)
(0.00446369 -0.00256124 -0.00188203)
(0.00699896 -0.00321213 -0.00176341)
(0.00984801 -0.0038014 -0.00160328)
(0.0128528 -0.00430092 -0.00146149)
(0.0158709 -0.00471438 -0.00136912)
(0.000782974 -0.000961173 -0.00100444)
(0.00127833 -0.00173349 -0.00158012)
(0.00270274 -0.00286132 -0.00179614)
(0.00461119 -0.00382896 -0.00175036)
(0.00700614 -0.00467555 -0.00159106)
(0.00973244 -0.00535154 -0.00139313)
(0.0126534 -0.00585945 -0.0012189)
(0.0156314 -0.00622535 -0.00112292)
(0.000699635 -0.000886257 -0.000611056)
(0.00150956 -0.00162515 -0.00111208)
(0.00283592 -0.00273061 -0.00133429)
(0.00467432 -0.00371366 -0.00135488)
(0.0069655 -0.00455425 -0.00127479)
(0.00959174 -0.00521917 -0.00115853)
(0.0124266 -0.0057141 -0.00105792)
(0.0153547 -0.00607747 -0.00102014)
(0.000691239 -0.000901636 -0.000377692)
(0.00156757 -0.00157685 -0.000746484)
(0.00289153 -0.00261176 -0.000939674)
(0.00468509 -0.00356419 -0.00100043)
(0.00691378 -0.00438311 -0.000979659)
(0.00947375 -0.00503539 -0.000926382)
(0.0122492 -0.00552522 -0.00088085)
(0.0151288 -0.00589096 -0.000884777)
(0.000681774 -0.000905768 -0.000230125)
(0.00156901 -0.00153488 -0.000492361)
(0.00288711 -0.00251566 -0.000645347)
(0.00465588 -0.00342829 -0.000714245)
(0.00684762 -0.00422173 -0.000725941)
(0.00936647 -0.00485902 -0.000711591)
(0.0121023 -0.00534163 -0.000701)
(0.0149462 -0.00570657 -0.000728117)
(0.000668805 -0.000898497 -0.000137065)
(0.00154939 -0.00149607 -0.000317765)
(0.00285601 -0.00243832 -0.000431251)
(0.0046074 -0.00331848 -0.00049248)
(0.00677618 -0.00408856 -0.000516095)
(0.00926911 -0.00471071 -0.000521159)
(0.0119785 -0.00518446 -0.000528277)
(0.0147963 -0.00554548 -0.000562882)
(0.000656211 -0.000887223 -7.81605e-05)
(0.00152572 -0.00146351 -0.00019556)
(0.00281992 -0.00237941 -0.000273125)
(0.00455795 -0.0032363 -0.000319531)
(0.00671152 -0.00398825 -0.000342721)
(0.00918782 -0.00459761 -0.000353995)
(0.0118798 -0.00506296 -0.000366616)
(0.0146793 -0.00541907 -0.000397903)
(0.000646677 -0.000877268 -3.97192e-05)
(0.00150658 -0.00144023 -0.000105723)
(0.00279089 -0.00233957 -0.000150772)
(0.0045195 -0.00318162 -0.000179353)
(0.00666334 -0.0039215 -0.000195408)
(0.00912945 -0.00452185 -0.000204921)
(0.0118107 -0.00498089 -0.000215272)
(0.0145984 -0.00533286 -0.000236482)
(0.000641614 -0.000871631 -1.21134e-05)
(0.00149616 -0.00142814 -3.3399e-05)
(0.00277508 -0.00231947 -4.81611e-05)
(0.00449877 -0.00315431 -5.77829e-05)
(0.00663779 -0.00388818 -6.34552e-05)
(0.00909899 -0.00448393 -6.70528e-05)
(0.011775 -0.00493965 -7.09392e-05)
(0.0145569 -0.00528925 -7.84038e-05)
(0.0177842 0.00332304 -0.00195213)
(0.0175175 0.00342834 -0.00169906)
(0.0173073 0.0035247 -0.00145113)
(0.0171235 0.00360541 -0.00120064)
(0.0169647 0.00367333 -0.000944669)
(0.016837 0.00372657 -0.000681376)
(0.0167473 0.00376321 -0.000411664)
(0.0167009 0.00378164 -0.000137713)
(0.0173488 0.000622463 -0.00173356)
(0.0170967 0.000726781 -0.00152796)
(0.0168846 0.000835367 -0.00131611)
(0.0166962 0.000939711 -0.00109204)
(0.0165326 0.00103146 -0.000858209)
(0.0164008 0.00110465 -0.000617345)
(0.0163085 0.00115538 -0.000372005)
(0.0162609 0.00118137 -0.000124253)
(0.0171531 -0.0020627 -0.00153047)
(0.0168964 -0.00194275 -0.00138244)
(0.0166755 -0.00181025 -0.00120417)
(0.0164816 -0.00167734 -0.00100327)
(0.0163154 -0.0015586 -0.000787859)
(0.0161829 -0.00146352 -0.000565229)
(0.0160906 -0.00139771 -0.00033968)
(0.0160431 -0.00136406 -0.000113275)
(0.0171657 -0.00484132 -0.00132185)
(0.0168808 -0.00470226 -0.00121909)
(0.0166448 -0.0045406 -0.00107133)
(0.016447 -0.00437489 -0.000893831)
(0.0162821 -0.00422721 -0.000699699)
(0.0161527 -0.00410954 -0.000499651)
(0.0160632 -0.00402856 -0.00029904)
(0.0160172 -0.0039874 -9.94934e-05)
)
;
    }
    symmetry
    {
        type            symmetryPlane;
    }
    bottom
    {
        type            calculated;
        value           uniform (0 0 0);
    }
}


// ************************************************************************* //
