/*--------------------------------*- C++ -*----------------------------------*\
| =========                 |                                                 |
| \\      /  F ield         | foam-extend: Open Source CFD                    |
|  \\    /   O peration     | Version:     3.1                                |
|   \\  /    A nd           | Web:         http://www.extend-project.de       |
|    \\/     M anipulation  |                                                 |
\*---------------------------------------------------------------------------*/
FoamFile
{
    version     2.0;
    format      ascii;
    class       volVectorField;
    location    "3.6";
    object      D;
}
// * * * * * * * * * * * * * * * * * * * * * * * * * * * * * * * * * * * * * //

dimensions      [0 1 0 0 0 0 0];

internalField   nonuniform List<vector> 
256
(
(0.000260768 0.000174252 0.000296323)
(0.000111071 3.37855e-05 8.84131e-05)
(9.86186e-05 -5.12954e-05 -0.000106684)
(0.000221194 -0.000192269 -0.000327461)
(0.00109333 0.000715546 0.00023971)
(0.00090717 0.000191658 8.34443e-05)
(0.000871971 -0.000225305 -0.000149457)
(0.000981555 -0.00074635 -0.000331329)
(0.00214877 0.00110565 0.000161638)
(0.00196169 0.000322064 3.43808e-05)
(0.00191337 -0.00036723 -0.000143669)
(0.00199916 -0.00115355 -0.000298848)
(0.00340662 0.0014072 4.95669e-05)
(0.0032372 0.000416683 -1.74435e-05)
(0.00318004 -0.000488763 -0.000131189)
(0.0032294 -0.00148391 -0.000228472)
(0.00479687 0.00161165 -6.4878e-05)
(0.00464348 0.000474462 -6.96896e-05)
(0.00458011 -0.000587622 -0.000115853)
(0.00459963 -0.00172773 -0.00015177)
(0.00625425 0.00173767 -0.000170132)
(0.00611518 0.00050233 -0.000118836)
(0.00604756 -0.000666736 -0.000103896)
(0.00604357 -0.00189975 -8.196e-05)
(0.00772676 0.00180377 -0.000258417)
(0.00759683 0.00050765 -0.000165467)
(0.00752524 -0.000728025 -9.96652e-05)
(0.007506 -0.0020131 -2.97294e-05)
(0.00918813 0.00182867 -0.000330848)
(0.00904908 0.000500558 -0.000212026)
(0.00896814 -0.000772759 -0.000105692)
(0.00894546 -0.00208429 -5.89848e-06)
(0.000293573 0.000172853 0.000147401)
(0.000147584 3.54027e-05 4.57334e-05)
(0.000134851 -4.60901e-05 -6.19598e-05)
(0.000248375 -0.000180809 -0.000176073)
(0.00116417 0.000712425 0.00013348)
(0.00095492 0.000195669 4.05163e-05)
(0.00092193 -0.000214163 -9.85839e-05)
(0.00105632 -0.000729126 -0.000209547)
(0.00220131 0.00112053 8.45776e-05)
(0.00201437 0.000334084 7.97107e-06)
(0.00196865 -0.000362336 -0.000104694)
(0.00205647 -0.00115206 -0.000200345)
(0.00342774 0.001428 7.90999e-06)
(0.00326057 0.000432993 -3.08e-05)
(0.00320611 -0.000483245 -0.000101334)
(0.00325509 -0.00148327 -0.000160393)
(0.00477749 0.00163693 -7.55157e-05)
(0.00462916 0.000494592 -7.11685e-05)
(0.00456828 -0.000579334 -9.4722e-05)
(0.0045841 -0.00172421 -0.000110876)
(0.00619392 0.00176476 -0.000154628)
(0.00606099 0.000525139 -0.000110324)
(0.00599568 -0.000653575 -9.00314e-05)
(0.00598634 -0.00188936 -6.47347e-05)
(0.00762945 0.00183082 -0.000222598)
(0.00750705 0.000531753 -0.000147836)
(0.00743803 -0.000709114 -9.16469e-05)
(0.00741192 -0.00199375 -3.17693e-05)
(0.00906322 0.00185439 -0.000277564)
(0.00893209 0.00052432 -0.000183834)
(0.00885404 -0.000749025 -0.000103344)
(0.00882464 -0.00205655 -2.2425e-05)
(0.000308681 0.000178391 7.13497e-05)
(0.00015361 3.79438e-05 2.12737e-05)
(0.000138864 -4.64098e-05 -3.64705e-05)
(0.000256727 -0.000184752 -9.44288e-05)
(0.00119635 0.000707457 6.4139e-05)
(0.000968644 0.000196605 1.34044e-05)
(0.000933346 -0.00020647 -6.38506e-05)
(0.00108108 -0.000717282 -0.000125646)
(0.00222866 0.00111402 3.1601e-05)
(0.00202772 0.000337584 -9.99598e-06)
(0.00197958 -0.000351447 -7.38566e-05)
(0.00207665 -0.00113282 -0.000126386)
(0.00343804 0.00142168 -2.02814e-05)
(0.00326129 0.000439146 -3.87331e-05)
(0.00320424 -0.000468764 -7.63045e-05)
(0.00325775 -0.00145711 -0.000105933)
(0.00476443 0.00163365 -7.87716e-05)
(0.00460941 0.000504073 -6.92429e-05)
(0.00454573 -0.000561294 -7.5898e-05)
(0.0045628 -0.00169303 -7.72101e-05)
(0.00615508 0.00176624 -0.000135992)
(0.00601768 0.000538159 -9.95818e-05)
(0.00594955 -0.000632021 -7.65594e-05)
(0.00593889 -0.00185415 -4.97135e-05)
(0.0075661 0.00183849 -0.000186418)
(0.00744127 0.000548043 -0.000129117)
(0.00736959 -0.000684481 -8.21318e-05)
(0.00734 -0.00195572 -3.15931e-05)
(0.00898111 0.00186931 -0.000227163)
(0.00884937 0.000543417 -0.000157336)
(0.00876812 -0.000722092 -9.6512e-05)
(0.00873218 -0.0020169 -3.24887e-05)
(0.000314174 0.000181564 3.24385e-05)
(0.000152549 3.92322e-05 8.4748e-06)
(0.000136109 -4.6533e-05 -2.14019e-05)
(0.000257156 -0.000186827 -4.96857e-05)
(0.00120759 0.000704098 2.48805e-05)
(0.000968361 0.000197154 -4.72016e-07)
(0.000930286 -0.000200663 -4.12816e-05)
(0.00108443 -0.000707788 -7.3343e-05)
(0.00223632 0.0011062 1.37378e-06)
(0.00202491 0.000339174 -1.81146e-05)
(0.00197379 -0.000340728 -5.13259e-05)
(0.00207627 -0.00111306 -7.70415e-05)
(0.00343584 0.00141235 -3.43844e-05)
(0.00325083 0.000442582 -3.94499e-05)
(0.00319075 -0.00045363 -5.62138e-05)
(0.0032475 -0.00142921 -6.73106e-05)
(0.00474827 0.0016257 -7.51558e-05)
(0.004587 0.000510158 -6.22832e-05)
(0.00452027 -0.000542343 -5.90329e-05)
(0.00453857 -0.00165939 -5.17354e-05)
(0.00612287 0.00176198 -0.000115963)
(0.00598093 0.000547446 -8.54139e-05)
(0.00590979 -0.000609929 -6.25966e-05)
(0.00589858 -0.00181684 -3.66271e-05)
(0.00751786 0.00183962 -0.000152841)
(0.00739001 0.000560671 -0.000108353)
(0.00731534 -0.000659988 -6.99254e-05)
(0.00728351 -0.00191646 -2.81391e-05)
(0.00891981 0.0018766 -0.000182874)
(0.00878584 0.000559381 -0.000130455)
(0.00870072 -0.000695788 -8.43259e-05)
(0.00866026 -0.00197682 -3.4262e-05)
(0.000315896 0.00018302 1.32056e-05)
(0.000150294 3.99351e-05 2.36986e-06)
(0.000132655 -4.64254e-05 -1.23768e-05)
(0.00025524 -0.000187332 -2.53879e-05)
(0.0012097 0.000701844 5.24913e-06)
(0.000963414 0.000197838 -6.05478e-06)
(0.00092311 -0.000196155 -2.6357e-05)
(0.00108022 -0.000699983 -4.17255e-05)
(0.00223471 0.00110077 -1.21269e-05)
(0.00201642 0.00034069 -1.92985e-05)
(0.00196288 -0.000331844 -3.48461e-05)
(0.00206803 -0.0010971 -4.56037e-05)
(0.00342765 0.00140549 -3.68816e-05)
(0.00323678 0.000445519 -3.48796e-05)
(0.0031743 -0.000440743 -4.00588e-05)
(0.00323282 -0.00140628 -4.1351e-05)
(0.00473126 0.00161944 -6.50334e-05)
(0.00456529 0.000515122 -5.15705e-05)
(0.00449623 -0.000526043 -4.39466e-05)
(0.00451524 -0.00163127 -3.33717e-05)
(0.00609557 0.00175811 -9.36091e-05)
(0.00595004 0.000554867 -6.87011e-05)
(0.00587666 -0.000590908 -4.84423e-05)
(0.00586512 -0.00178529 -2.57158e-05)
(0.00747981 0.0018394 -0.00011995)
(0.00734933 0.000570682 -8.59446e-05)
(0.00727241 -0.000638946 -5.5745e-05)
(0.00723917 -0.00188296 -2.27106e-05)
(0.008872 0.00188057 -0.000141521)
(0.00873593 0.000572011 -0.000102667)
(0.00864783 -0.000673184 -6.83231e-05)
(0.00860441 -0.00194236 -3.04026e-05)
(0.000316279 0.000183639 4.38283e-06)
(0.000148369 4.0339e-05 -8.41841e-08)
(0.000129921 -4.62278e-05 -6.90157e-06)
(0.000253098 -0.000187158 -1.2387e-05)
(0.00120855 0.000700411 -2.59989e-06)
(0.00095805 0.000198563 -6.82265e-06)
(0.000916163 -0.00019281 -1.61315e-05)
(0.00107453 -0.000694012 -2.27595e-05)
(0.00223013 0.00109752 -1.48272e-05)
(0.00200753 0.0003422 -1.61608e-05)
(0.00195227 -0.00032517 -2.24193e-05)
(0.00205865 -0.0010854 -2.58016e-05)
(0.00341841 0.00140139 -3.12798e-05)
(0.00322369 0.000448156 -2.68826e-05)
(0.00315953 -0.000430969 -2.67613e-05)
(0.00321889 -0.0013895 -2.41685e-05)
(0.00471622 0.00161568 -4.98522e-05)
(0.00454706 0.000519241 -3.83498e-05)
(0.00447641 -0.000513605 -3.03344e-05)
(0.00449573 -0.00161049 -2.03433e-05)
(0.00607383 0.00175578 -6.88532e-05)
(0.00592577 0.000560713 -5.02185e-05)
(0.00585088 -0.000576341 -3.43894e-05)
(0.0058391 -0.00176171 -1.68134e-05)
(0.00745078 0.00183928 -8.66082e-05)
(0.00731838 0.000578312 -6.22848e-05)
(0.00723994 -0.000622794 -4.03944e-05)
(0.00720584 -0.00185761 -1.6401e-05)
(0.00883586 0.001883 -0.000101208)
(0.0086981 0.000581456 -7.40329e-05)
(0.00860801 -0.000655783 -4.99989e-05)
(0.00856284 -0.00191598 -2.3242e-05)
(0.000316267 0.000183871 9.50275e-07)
(0.000147093 4.05652e-05 -6.38957e-07)
(0.000128143 -4.60456e-05 -3.45406e-06)
(0.000251483 -0.000186826 -5.46973e-06)
(0.00120686 0.000699564 -3.7751e-06)
(0.000954001 0.000199149 -4.94803e-06)
(0.00091111 -0.000190594 -8.69942e-06)
(0.00106993 -0.000689995 -1.11437e-05)
(0.00222587 0.00109577 -1.11013e-05)
(0.00200075 0.000343411 -1.05314e-05)
(0.00194439 -0.000320747 -1.25316e-05)
(0.00205129 -0.00107779 -1.3021e-05)
(0.00341104 0.00139924 -2.05836e-05)
(0.00321402 0.000450172 -1.68372e-05)
(0.0031488 -0.000424477 -1.53509e-05)
(0.00320852 -0.00137863 -1.25117e-05)
(0.00470523 0.00161376 -3.12152e-05)
(0.00453411 0.000522236 -2.35695e-05)
(0.00446247 -0.000505321 -1.7783e-05)
(0.0044819 -0.00159698 -1.08739e-05)
(0.00605868 0.00175465 -4.21354e-05)
(0.00590902 0.000564797 -3.05711e-05)
(0.00583322 -0.000566615 -2.05292e-05)
(0.00582127 -0.00174626 -9.45523e-06)
(0.00743103 0.00183936 -5.24225e-05)
(0.00729737 0.000583495 -3.77293e-05)
(0.00721802 -0.000611985 -2.44247e-05)
(0.00718343 -0.00184085 -9.84066e-06)
(0.00881141 0.00188451 -6.09001e-05)
(0.00867249 0.000587757 -4.47082e-05)
(0.00858121 -0.000644109 -3.04009e-05)
(0.00853507 -0.0018984 -1.44177e-05)
(0.000316197 0.00018394 6.78921e-08)
(0.000146471 4.06676e-05 -2.99775e-07)
(0.000127282 -4.59405e-05 -1.04506e-06)
(0.00025064 -0.000186605 -1.52666e-06)
(0.0012058 0.00069917 -1.59592e-06)
(0.000951882 0.000199472 -1.77789e-06)
(0.000908508 -0.00018949 -2.7456e-06)
(0.00106746 -0.00068798 -3.32453e-06)
(0.00222342 0.00109501 -4.04125e-06)
(0.00199716 0.000344079 -3.63809e-06)
(0.00194028 -0.000318547 -4.03033e-06)
(0.00204735 -0.00107404 -3.95424e-06)
(0.00340702 0.00139834 -7.14637e-06)
(0.00320894 0.00045126 -5.72212e-06)
(0.00314322 -0.000421248 -5.00278e-06)
(0.00320306 -0.00137331 -3.85475e-06)
(0.00469944 0.00161298 -1.06148e-05)
(0.00452741 0.000523814 -7.94489e-06)
(0.00445529 -0.000501197 -5.85872e-06)
(0.00447476 -0.00159036 -3.40966e-06)
(0.00605088 0.00175422 -1.41832e-05)
(0.00590047 0.000566902 -1.02615e-05)
(0.00582424 -0.000561765 -6.82377e-06)
(0.0058122 -0.00173865 -3.04568e-06)
(0.00742096 0.00183945 -1.75577e-05)
(0.00728671 0.000586124 -1.26357e-05)
(0.00720694 -0.000606585 -8.16838e-06)
(0.00717214 -0.00183256 -3.27315e-06)
(0.00879897 0.00188517 -2.03406e-05)
(0.00865952 0.000590923 -1.49503e-05)
(0.00856768 -0.00063826 -1.01924e-05)
(0.00852113 -0.00188965 -4.87077e-06)
)
;

boundaryField
{
    interface
    {
        type            tractionDisplacement;
        gradient        nonuniform List<vector> 
192
(
(0.0246684 0.0340793 0.000683032)
(0.011845 0.0339218 0.00158784)
(0.0131686 0.0447355 0.000456928)
(0.0108659 0.0509606 -0.00147961)
(0.00929953 0.055425 -0.00351369)
(0.00784807 0.0576372 -0.00544551)
(0.0070473 0.0584342 -0.00700878)
(0.00663675 0.059401 -0.00787067)
(0.0251596 0.0362637 0.00048225)
(0.0136979 0.0338828 0.00124342)
(0.0133569 0.043354 0.000721094)
(0.0112436 0.0493854 -0.000414505)
(0.00956663 0.053723 -0.00171159)
(0.00817529 0.0561192 -0.00303388)
(0.00740879 0.05727 -0.00418307)
(0.00696593 0.0589649 -0.00489918)
(0.0261757 0.0376074 0.000119902)
(0.0143018 0.0339825 0.00038989)
(0.0137975 0.0426474 0.000112656)
(0.0114581 0.0484286 -0.000498279)
(0.00959335 0.0526291 -0.00130685)
(0.00808997 0.0550803 -0.00216664)
(0.00726883 0.0564138 -0.0029569)
(0.00666626 0.0585495 -0.00350346)
(0.0268197 0.0382365 -5.4273e-05)
(0.0147819 0.0339811 -4.01e-05)
(0.0142586 0.0422979 -0.000253509)
(0.0117944 0.0478408 -0.000626991)
(0.00980126 0.0519363 -0.00112413)
(0.00819807 0.0543863 -0.00167356)
(0.0073133 0.0558094 -0.00220551)
(0.00661732 0.0581879 -0.00261174)
(0.027161 0.0384966 -0.000112008)
(0.0150977 0.0339231 -0.000205004)
(0.0145882 0.0420713 -0.000386685)
(0.0120677 0.0474794 -0.000639044)
(0.0100022 0.0515007 -0.000957549)
(0.00833172 0.0539316 -0.00131427)
(0.00739929 0.0553882 -0.0016771)
(0.00663073 0.0578915 -0.00198016)
(0.0273306 0.0385855 -0.000106616)
(0.0152906 0.0338455 -0.000215927)
(0.0148028 0.0419096 -0.000357796)
(0.0122594 0.0472485 -0.000529294)
(0.0101563 0.0512247 -0.000733505)
(0.00844731 0.0536353 -0.000961774)
(0.00748605 0.0550978 -0.00120095)
(0.0066784 0.0576623 -0.00141112)
(0.0274088 0.0386063 -7.16245e-05)
(0.0153974 0.0337789 -0.000150955)
(0.0149276 0.0418009 -0.00024107)
(0.0123762 0.0471063 -0.000342824)
(0.010255 0.0510582 -0.000459368)
(0.00852569 0.0534538 -0.000588945)
(0.00754862 0.0549134 -0.000726759)
(0.00672022 0.0575069 -0.000851131)
(0.0274382 0.0386072 -2.47468e-05)
(0.0154436 0.0337419 -5.31495e-05)
(0.0149835 0.041746 -8.39595e-05)
(0.0124298 0.0470376 -0.000117857)
(0.0103013 0.0509789 -0.000156009)
(0.00856347 0.0533672 -0.000198309)
(0.00757879 0.0548242 -0.000243521)
(0.00674031 0.0574263 -0.000284709)
(-0.00190965 0.0120223 0.0131771)
(-0.0036298 -0.00385405 0.00194221)
(-0.00164594 -0.0034379 0.00319954)
(0.000497695 -0.00469895 0.00143767)
(0.00303756 -0.00461401 0.00041978)
(0.00536307 -0.00419096 -0.000571883)
(0.00724433 -0.00356692 -0.00121842)
(0.00865008 -0.00252504 -0.00201893)
(-0.00469359 0.00440056 0.00285385)
(-0.00834143 -0.00158507 0.000548179)
(-0.00585306 -0.00138701 0.00033412)
(-0.00325055 -0.00181931 -0.00023734)
(-0.000331125 -0.00190162 -0.000617768)
(0.00231172 -0.00193217 -0.000955095)
(0.00455642 -0.00197856 -0.00122092)
(0.00644527 -0.00177481 -0.00176362)
(-0.00504131 -0.00622057 -0.00373485)
(-0.00881695 0.000779924 -0.0009124)
(-0.0064764 0.000734806 -0.00122722)
(-0.0038788 0.00112939 -0.000993409)
(-0.00098941 0.000894831 -0.000845309)
(0.00167186 0.000467753 -0.00066367)
(0.00398584 -0.000109282 -0.000508505)
(0.00584595 -0.000741562 -0.000125942)
(-0.00319116 -0.0154347 -0.0131698)
(-0.00525727 0.00237169 -0.00241557)
(-0.00384233 0.00237424 -0.00402442)
(-0.00184633 0.00367921 -0.0025716)
(0.000536432 0.00339592 -0.00176412)
(0.00281371 0.00270634 -0.000913685)
(0.0047748 0.00162672 -0.000259905)
(0.00620695 6.41283e-05 0.000468874)
(0.0205554 -0.0326026 -0.00153879)
(0.00838086 -0.0333301 -0.00335941)
(0.00821454 -0.0452033 -0.00292495)
(0.00503712 -0.0515806 -0.00126474)
(0.00279157 -0.0559317 0.000660123)
(0.000949746 -0.0577955 0.00264723)
(-0.000157349 -0.0579382 0.00441337)
(-0.00038722 -0.0571246 0.00565848)
(0.0201823 -0.0351749 -0.000863842)
(0.00993053 -0.0340007 -0.00189852)
(0.00812305 -0.0440305 -0.00163674)
(0.00510353 -0.0501342 -0.00056895)
(0.00273124 -0.0542443 0.000737958)
(0.000889629 -0.0561826 0.00213118)
(-0.000261728 -0.0565645 0.0034029)
(-0.000452584 -0.056214 0.0044278)
(0.0208467 -0.036414 -0.000352543)
(0.0104672 -0.0342927 -0.000709132)
(0.00859187 -0.0433921 -0.0005273)
(0.00540212 -0.0491951 6.38263e-05)
(0.00285648 -0.0531085 0.0008933)
(0.000880149 -0.0550436 0.00180616)
(-0.000387359 -0.0555343 0.00269511)
(-0.000762939 -0.0553216 0.00349555)
(0.0212284 -0.0368213 -9.41987e-05)
(0.010846 -0.0343091 -0.000129886)
(0.00895744 -0.0430648 5.33885e-05)
(0.00566962 -0.0486125 0.000428884)
(0.00299977 -0.0523879 0.000945155)
(0.000909608 -0.0542781 0.00153276)
(-0.00046694 -0.054779 0.00213584)
(-0.000952881 -0.0545778 0.00272529)
(0.0213774 -0.0368481 1.2495e-05)
(0.0110721 -0.0342166 0.000100381)
(0.00918105 -0.0428297 0.00027253)
(0.00584317 -0.0482465 0.000531812)
(0.00310145 -0.0519304 0.000864232)
(0.000934429 -0.0537696 0.00124525)
(-0.000520428 -0.0542444 0.00165156)
(-0.0010756 -0.0540055 0.00207318)
(0.0214115 -0.0367446 4.22113e-05)
(0.0111937 -0.0340979 0.000150745)
(0.00930553 -0.0426505 0.000289536)
(0.00594304 -0.0480067 0.00046726)
(0.00316164 -0.0516373 0.000680382)
(0.000949525 -0.053436 0.000922308)
(-0.000553181 -0.053878 0.00118538)
(-0.00114259 -0.0535924 0.00146808)
(0.0214036 -0.0366325 3.57056e-05)
(0.0112528 -0.0339997 0.00011519)
(0.00936882 -0.0425262 0.000204305)
(0.00599538 -0.0478563 0.000309926)
(0.00319343 -0.0514588 0.000431159)
(0.000957116 -0.0532314 0.00056713)
(-0.000571721 -0.0536478 0.000716325)
(-0.00117653 -0.0533254 0.000879382)
(0.0213917 -0.0365662 1.33897e-05)
(0.0112762 -0.0339457 4.1938e-05)
(0.00939498 -0.0424624 7.25472e-05)
(0.00601756 -0.0477828 0.00010773)
(0.00320689 -0.0513734 0.000147296)
(0.000960177 -0.0531333 0.00019136)
(-0.000579774 -0.0535363 0.000239925)
(-0.00119051 -0.0531943 0.000293267)
(0.0593329 0.000573321 -0.00188883)
(0.0591073 0.000383339 -0.00109191)
(0.0588784 0.000778528 -0.000828893)
(0.0586194 0.0010184 -0.000549774)
(0.0583645 0.00120383 -0.000379674)
(0.0581561 0.00131693 -0.000252387)
(0.0580104 0.00138115 -0.000146706)
(0.0579339 0.00140603 -4.81609e-05)
(0.0546276 0.000655995 -0.00124864)
(0.0544822 0.000517945 -0.000903285)
(0.054242 0.000653538 -0.000810504)
(0.0539396 0.000801206 -0.000656155)
(0.0536183 0.000933027 -0.000507735)
(0.053349 0.00102772 -0.000360079)
(0.0531613 0.00108792 -0.000214803)
(0.0530674 0.00111783 -7.11591e-05)
(0.0537873 -0.00148415 -0.000682263)
(0.0535316 -0.00129921 -0.000931559)
(0.0531022 -0.00121384 -0.00100551)
(0.0526561 -0.00113128 -0.000939549)
(0.0522466 -0.00105547 -0.000774256)
(0.0519213 -0.00099288 -0.000565559)
(0.0517005 -0.000948612 -0.000341315)
(0.0515896 -0.000924804 -0.00011373)
(0.0561854 -0.00220951 -0.000401723)
(0.0555551 -0.00188284 -0.00128436)
(0.0548158 -0.00194133 -0.0014659)
(0.0541589 -0.00195466 -0.00139265)
(0.0536226 -0.00194792 -0.00114946)
(0.0532241 -0.00192226 -0.000838984)
(0.0529622 -0.00189626 -0.000505854)
(0.0528321 -0.00188052 -0.000168638)
)
;
        traction        nonuniform List<vector> 
192
(
(21.155 -0.65941 -2.33555)
(21.1898 -0.782328 -4.05788)
(21.0635 -1.13802 -4.86312)
(21.2848 -1.26389 -5.31379)
(21.8564 -1.10542 -5.56638)
(22.6457 -0.55132 -5.62692)
(23.3765 0.605807 -5.42086)
(22.5247 2.50687 -4.74203)
(23.9722 -0.993475 -1.69669)
(24.3561 -1.1473 -2.96578)
(25.0017 -1.56197 -3.55941)
(25.9575 -1.68772 -3.88088)
(27.0755 -1.45769 -4.04009)
(28.1102 -0.731339 -4.04035)
(28.4103 0.770674 -3.83584)
(25.3237 3.11419 -3.32196)
(25.8131 -1.15147 -1.22374)
(26.1642 -1.30092 -2.1301)
(26.9666 -1.73848 -2.52406)
(28.1082 -1.85404 -2.7193)
(29.3556 -1.56732 -2.80325)
(30.3604 -0.724675 -2.78381)
(30.2768 0.971368 -2.64196)
(26.0521 3.49219 -2.32445)
(27.1413 -1.23208 -0.897455)
(27.432 -1.37014 -1.56432)
(28.2565 -1.82036 -1.8413)
(29.4437 -1.92521 -1.96911)
(30.7096 -1.59856 -2.02019)
(31.6432 -0.679272 -2.00359)
(31.2952 1.13377 -1.91398)
(26.3938 3.74469 -1.70941)
(28.1013 -1.27745 -0.646824)
(28.3523 -1.40355 -1.13133)
(29.1677 -1.85913 -1.32805)
(30.3594 -1.95658 -1.4148)
(31.6127 -1.60359 -1.44897)
(32.4859 -0.634837 -1.43946)
(31.9638 1.25331 -1.38563)
(26.6149 3.9205 -1.25062)
(28.776 -1.30399 -0.438802)
(28.9998 -1.41999 -0.769987)
(29.8017 -1.87752 -0.903254)
(30.9862 -1.97009 -0.960701)
(32.2252 -1.60064 -0.983664)
(33.0543 -0.600444 -0.97946)
(32.4203 1.33662 -0.94825)
(26.7733 4.04052 -0.861009)
(29.2067 -1.31963 -0.253148)
(29.4167 -1.42847 -0.445807)
(30.2092 -1.88623 -0.522717)
(31.3866 -1.97585 -0.555461)
(32.615 -1.59673 -0.568957)
(33.4167 -0.577295 -0.567403)
(32.7148 1.39012 -0.549525)
(26.8848 4.11378 -0.496834)
(29.4078 -1.3261 -0.0819008)
(29.6106 -1.43077 -0.144698)
(30.3949 -1.88812 -0.169495)
(31.5663 -1.97676 -0.179957)
(32.7887 -1.59321 -0.184397)
(33.5785 -0.562901 -0.183984)
(32.8327 1.42203 -0.177442)
(26.8952 4.14526 -0.158339)
(2.67377 0.555405 9.40594)
(4.60506 0.982371 6.08642)
(5.52612 0.922197 2.90903)
(6.1593 0.707134 0.504288)
(6.70964 0.565237 -1.11925)
(7.24833 0.612729 -2.0014)
(7.88873 0.863149 -2.13394)
(9.04551 1.14316 -1.38811)
(1.71808 0.493774 8.42211)
(3.11816 0.959946 7.08135)
(3.65056 1.09421 5.2431)
(3.91967 0.947468 3.7066)
(4.14274 0.719693 2.65985)
(4.43146 0.545952 2.09834)
(4.95478 0.466589 1.94352)
(6.32873 0.331715 1.86428)
(1.32225 0.395075 7.74789)
(2.59233 0.760027 7.31052)
(3.10722 0.987936 6.19499)
(3.32278 0.911383 5.13799)
(3.46168 0.688873 4.42344)
(3.66305 0.452097 4.06421)
(4.10947 0.255206 3.99619)
(5.40592 0.0180415 3.92632)
(1.24218 0.38215 6.83086)
(2.57289 0.667812 6.69504)
(3.20049 0.916594 5.82778)
(3.47505 0.867796 4.95812)
(3.62827 0.656755 4.3632)
(3.8197 0.3981 4.04129)
(4.2312 0.121111 3.91273)
(5.41143 -0.261036 3.86331)
(-4.13806 0.398018 0.289776)
(-3.22109 0.6947 0.53244)
(-2.23086 0.904614 0.552363)
(-1.47146 0.900017 0.519617)
(-0.904273 0.772914 0.53884)
(-0.339392 0.592808 0.651313)
(0.635435 0.294965 0.871121)
(3.50913 -0.950088 1.1562)
(-4.84249 0.281781 -0.0761179)
(-4.68042 0.470298 -0.109053)
(-4.33468 0.670223 -0.176735)
(-3.95583 0.7441 -0.229599)
(-3.58743 0.733701 -0.222052)
(-3.13463 0.691438 -0.144833)
(-2.18879 0.561581 -0.0122365)
(0.851793 -0.513072 0.138257)
(-5.23426 0.235332 -0.138832)
(-5.26192 0.362471 -0.210056)
(-5.10786 0.552238 -0.247436)
(-4.85349 0.67154 -0.258188)
(-4.5259 0.73715 -0.225139)
(-4.04054 0.780729 -0.149951)
(-3.01664 0.732364 -0.0603106)
(-0.133148 -0.169202 -0.0111647)
(-5.51498 0.22172 -0.131524)
(-5.59384 0.317198 -0.199246)
(-5.51608 0.502741 -0.214984)
(-5.31044 0.652424 -0.201908)
(-4.98298 0.770681 -0.158806)
(-4.4541 0.872216 -0.0950083)
(-3.37159 0.878092 -0.0387841)
(-0.557343 0.0834456 -0.031347)
(-5.72195 0.219052 -0.103886)
(-5.8172 0.300875 -0.157364)
(-5.77171 0.488282 -0.161099)
(-5.5835 0.660401 -0.139678)
(-5.24432 0.814334 -0.0992757)
(-4.68051 0.952373 -0.0519766)
(-3.57105 0.9901 -0.0220433)
(-0.824643 0.264804 -0.0392269)
(-5.86309 0.220142 -0.0713058)
(-5.96222 0.29783 -0.107463)
(-5.92848 0.489898 -0.105555)
(-5.74385 0.677857 -0.0852124)
(-5.39263 0.854265 -0.0542256)
(-4.80656 1.01341 -0.0234555)
(-3.68837 1.06829 -0.0105777)
(-1.00139 0.38723 -0.035097)
(-5.94941 0.221959 -0.0405117)
(-6.0486 0.299514 -0.0605823)
(-6.01828 0.496167 -0.0577012)
(-5.83283 0.694148 -0.0439689)
(-5.47315 0.883297 -0.0251879)
(-4.87547 1.05347 -0.00848699)
(-3.75681 1.11677 -0.00412277)
(-1.11361 0.462324 -0.0244317)
(-5.98891 0.223263 -0.0129631)
(-6.08699 0.301313 -0.0192574)
(-6.05745 0.500406 -0.0180448)
(-5.87124 0.703125 -0.0133252)
(-5.50831 0.898095 -0.00716424)
(-4.90627 1.07335 -0.00195792)
(-3.78604 1.13917 -0.00092629)
(-1.17452 0.49788 -0.00899974)
(9.81892 0.321201 -2.47473)
(9.45422 2.12552 -2.06989)
(9.54226 3.5685 -1.63116)
(9.71595 4.69604 -1.2769)
(9.88326 5.5334 -0.973647)
(10.0191 6.12433 -0.694356)
(10.1137 6.48592 -0.426393)
(10.1555 6.58665 -0.147053)
(6.86861 -1.77061 -0.858497)
(5.96447 -0.845064 -0.750931)
(5.77705 0.158632 -0.579038)
(5.75652 0.986515 -0.456597)
(5.77677 1.59752 -0.358501)
(5.80504 2.02646 -0.262144)
(5.83329 2.30507 -0.160129)
(5.85918 2.46519 -0.0535329)
(5.65167 -3.45736 -0.144643)
(4.56468 -2.78886 -0.171389)
(4.22232 -2.05234 -0.141236)
(4.07672 -1.46278 -0.127918)
(3.99911 -1.03962 -0.116472)
(3.95352 -0.749576 -0.0939383)
(3.92774 -0.566415 -0.0583382)
(3.91547 -0.462345 -0.0186141)
(5.42639 -3.39664 0.288399)
(4.32853 -2.87824 0.0847862)
(3.91663 -2.40468 0.0046167)
(3.70526 -2.02079 -0.0366222)
(3.57221 -1.75361 -0.0563318)
(3.48363 -1.57698 -0.055754)
(3.42747 -1.4713 -0.0391516)
(3.39676 -1.42388 -0.0136997)
)
;
        pressure        uniform 0;
        value           nonuniform List<vector> 
192
(
(0.000569123 0.000600243 0.000304861)
(0.0012414 0.00113957 0.000259558)
(0.00231338 0.00166485 0.000167349)
(0.00354244 0.00204421 3.10718e-05)
(0.00491312 0.00230446 -0.000108799)
(0.00635235 0.00245813 -0.0002382)
(0.00781485 0.0025342 -0.000346027)
(0.00927109 0.00257118 -0.000429231)
(0.000608068 0.000626149 0.000153429)
(0.0013354 0.00113596 0.000149023)
(0.00236827 0.00166246 9.35913e-05)
(0.00356828 0.00204532 2.72867e-06)
(0.00489708 0.00230847 -9.69106e-05)
(0.00629612 0.00246625 -0.000192552)
(0.00772206 0.0025467 -0.000274887)
(0.0091503 0.00259145 -0.000338804)
(0.000635877 0.000648484 7.28484e-05)
(0.00137512 0.00113224 6.90126e-05)
(0.00240113 0.00164711 3.30092e-05)
(0.00358126 0.00202704 -2.65099e-05)
(0.00488434 0.00229152 -9.51072e-05)
(0.00625621 0.00245474 -0.000163075)
(0.00765696 0.00254366 -0.000223379)
(0.00906444 0.00260118 -0.000270956)
(0.00064942 0.00065952 3.17601e-05)
(0.00139236 0.00112886 2.43792e-05)
(0.00241455 0.00163492 -1.79509e-06)
(0.00358327 0.00201036 -4.22218e-05)
(0.00487079 0.0022749 -8.92074e-05)
(0.00622534 0.00244181 -0.000136883)
(0.00760928 0.00253724 -0.00018041)
(0.00900253 0.00260395 -0.000215521)
(0.000655408 0.000664227 1.18055e-05)
(0.00139842 0.00112588 2.68658e-06)
(0.00241707 0.00162666 -1.69605e-05)
(0.0035785 0.00199898 -4.48697e-05)
(0.00485629 0.0022632 -7.70028e-05)
(0.00619972 0.00243225 -0.000110037)
(0.0075723 0.00253175 -0.000140914)
(0.00895488 0.00260421 -0.000166273)
(0.000657912 0.000665959 3.05013e-06)
(0.00139968 0.00112348 -5.29897e-06)
(0.00241517 0.00162139 -1.92997e-05)
(0.00357165 0.001992 -3.78959e-05)
(0.00484318 0.00225599 -5.9021e-05)
(0.00617942 0.00242622 -8.08754e-05)
(0.00754436 0.002528 -0.00010162)
(0.00891934 0.00260378 -0.000118847)
(0.000658878 0.00066645 5.49684e-08)
(0.00139933 0.0011218 -5.66204e-06)
(0.00241246 0.00161828 -1.41147e-05)
(0.00356574 0.00198807 -2.48689e-05)
(0.00483342 0.00225199 -3.69573e-05)
(0.00616525 0.00242282 -4.94972e-05)
(0.00752538 0.00252578 -6.1507e-05)
(0.00889541 0.00260334 -7.15392e-05)
(0.000659175 0.000666531 -2.41443e-07)
(0.00139885 0.00112094 -2.26029e-06)
(0.00241071 0.00161684 -5.09074e-06)
(0.00356239 0.00198631 -8.61959e-06)
(0.00482821 0.00225021 -1.25649e-05)
(0.00615793 0.00242131 -1.6662e-05)
(0.0075157 0.00252475 -2.06017e-05)
(0.00888323 0.002603 -2.38994e-05)
(0.000236898 0.000324531 0.000461036)
(0.00104796 0.00066737 0.000263988)
(0.0021282 0.00106268 0.000201632)
(0.00341284 0.00134847 6.75378e-05)
(0.00483484 0.00155398 -5.96307e-05)
(0.00632128 0.00168528 -0.00017728)
(0.00781732 0.00175918 -0.000273647)
(0.00929625 0.0017971 -0.000356085)
(5.24008e-05 8.87925e-05 0.000124086)
(0.000802902 0.000171844 9.02966e-05)
(0.00188853 0.000304727 3.85573e-05)
(0.00319656 0.000393941 -2.04103e-05)
(0.00463935 0.000450692 -7.74117e-05)
(0.00614408 0.000478178 -0.000130774)
(0.00765378 0.000482918 -0.000180729)
(0.00912965 0.000478373 -0.000234071)
(3.56021e-05 -0.000129053 -0.00015337)
(0.000761759 -0.000215556 -0.000160862)
(0.00183241 -0.000358045 -0.000159009)
(0.00313155 -0.000474646 -0.000143606)
(0.00456775 -0.000576436 -0.000126419)
(0.00606846 -0.000660889 -0.000112192)
(0.00757507 -0.000729391 -0.000106022)
(0.00904122 -0.000782029 -0.000107266)
(0.000181304 -0.000385203 -0.000492083)
(0.000915839 -0.000716704 -0.000361523)
(0.00195113 -0.00112387 -0.000349153)
(0.00320633 -0.00143792 -0.000260617)
(0.00460634 -0.00168528 -0.000173822)
(0.00607874 -0.00186592 -9.33811e-05)
(0.00756569 -0.00199276 -3.29782e-05)
(0.00902305 -0.00208349 -3.75474e-08)
(0.000478137 -0.000599801 -0.000346696)
(0.00108632 -0.00116298 -0.000373321)
(0.00210184 -0.00171859 -0.00033541)
(0.00329237 -0.00212867 -0.000244281)
(0.00463453 -0.00242687 -0.000143519)
(0.00605544 -0.0026222 -4.88696e-05)
(0.00750403 -0.00273732 2.54377e-05)
(0.00894062 -0.00279835 6.48326e-05)
(0.000500654 -0.000620496 -0.000186871)
(0.00118045 -0.00115414 -0.000233278)
(0.00215801 -0.00170244 -0.000220804)
(0.00331889 -0.00210995 -0.000167505)
(0.00461824 -0.00240226 -0.000101651)
(0.00599746 -0.00259164 -3.80949e-05)
(0.00740864 -0.00270081 1.07669e-05)
(0.00881898 -0.00275923 3.29225e-05)
(0.00051731 -0.000639927 -9.88356e-05)
(0.00121192 -0.00114594 -0.00013451)
(0.00218405 -0.00167522 -0.000132977)
(0.00332528 -0.00207205 -0.000105135)
(0.0045985 -0.00235689 -6.60439e-05)
(0.00594989 -0.00254219 -2.71365e-05)
(0.00733516 -0.0026499 2.09571e-06)
(0.00872265 -0.00270842 1.12057e-05)
(0.000522511 -0.000647093 -5.08632e-05)
(0.00122 -0.00113665 -7.49666e-05)
(0.00218823 -0.00165137 -7.63742e-05)
(0.00331837 -0.00203687 -6.19495e-05)
(0.00457606 -0.00231424 -3.9921e-05)
(0.00590995 -0.00249531 -1.74677e-05)
(0.00727767 -0.0026012 -1.44118e-06)
(0.00864835 -0.00265905 -1.9582e-07)
(0.000522457 -0.000647933 -2.52317e-05)
(0.00121862 -0.00112769 -4.04707e-05)
(0.0021828 -0.00163247 -4.2197e-05)
(0.00330586 -0.00200936 -3.47033e-05)
(0.00455401 -0.0022804 -2.25688e-05)
(0.0058768 -0.00245741 -1.01501e-05)
(0.00723266 -0.00256102 -2.06615e-06)
(0.00859097 -0.00261743 -4.48779e-06)
(0.000520742 -0.000646465 -1.18594e-05)
(0.00121445 -0.00112024 -2.08752e-05)
(0.00217497 -0.00161853 -2.21824e-05)
(0.00329318 -0.00198958 -1.83278e-05)
(0.00453526 -0.00225595 -1.18385e-05)
(0.00585097 -0.00242966 -5.28455e-06)
(0.00719893 -0.00253108 -1.58381e-06)
(0.00854856 -0.00258589 -4.89096e-06)
(0.000519027 -0.000644732 -5.0234e-06)
(0.00121059 -0.00111499 -9.70387e-06)
(0.0021684 -0.00160936 -1.04672e-05)
(0.00328346 -0.00197683 -8.6376e-06)
(0.00452182 -0.00224022 -5.48441e-06)
(0.00583323 -0.00241165 -2.3661e-06)
(0.00717629 -0.00251145 -8.86599e-07)
(0.00852037 -0.00256497 -3.42544e-06)
(0.000518037 -0.000643683 -1.35929e-06)
(0.00120841 -0.0011123 -2.8003e-06)
(0.00216479 -0.00160482 -3.0474e-06)
(0.00327828 -0.00197059 -2.50813e-06)
(0.00451484 -0.00223252 -1.56846e-06)
(0.0058242 -0.00240282 -6.53679e-07)
(0.00716489 -0.00250176 -2.74084e-07)
(0.00850624 -0.00255458 -1.20493e-06)
(0.00992979 0.00183583 -0.000354458)
(0.00980206 0.00185918 -0.000291213)
(0.00971709 0.00187904 -0.000237524)
(0.00965255 0.00188933 -0.000189747)
(0.00960156 0.00189562 -0.000146267)
(0.00956282 0.00189946 -0.000104363)
(0.00953654 0.00190177 -6.27339e-05)
(0.00952315 0.00190275 -2.09426e-05)
(0.00973192 0.000508758 -0.000227634)
(0.00961312 0.000530794 -0.000195125)
(0.00952739 0.000551586 -0.000167467)
(0.00946009 0.000569396 -0.000138657)
(0.00940616 0.000583674 -0.000109014)
(0.00936496 0.000594303 -7.85338e-05)
(0.00933701 0.000601356 -4.73932e-05)
(0.00932286 0.000604896 -1.58398e-05)
(0.00964049 -0.000791311 -0.00011422)
(0.00952319 -0.000765265 -0.000114989)
(0.0094319 -0.000737265 -0.000109081)
(0.00935892 -0.000709929 -9.60703e-05)
(0.00930091 -0.000686378 -7.80013e-05)