/*--------------------------------*- C++ -*----------------------------------*\
| =========                 |                                                 |
| \\      /  F ield         | foam-extend: Open Source CFD                    |
|  \\    /   O peration     | Version:     3.1                                |
|   \\  /    A nd           | Web:         http://www.extend-project.de       |
|    \\/     M anipulation  |                                                 |
\*---------------------------------------------------------------------------*/
FoamFile
{
    version     2.0;
    format      ascii;
    class       volVectorField;
    location    "3.6";
    object      D_0;
}
// * * * * * * * * * * * * * * * * * * * * * * * * * * * * * * * * * * * * * //

dimensions      [0 1 0 0 0 0 0];

internalField   nonuniform List<vector> 
256
(
(0.000260646 0.000173685 0.000295174)
(0.000111421 3.36607e-05 8.81977e-05)
(9.88959e-05 -5.10371e-05 -0.000105963)
(0.000220791 -0.000191483 -0.000325657)
(0.00109148 0.000713252 0.000237974)
(0.000905734 0.000191184 8.31471e-05)
(0.000870488 -0.00022407 -0.000148151)
(0.00097957 -0.000743162 -0.000328539)
(0.00214374 0.00110206 0.000159658)
(0.00195706 0.000321397 3.41301e-05)
(0.00190875 -0.000365115 -0.000142121)
(0.00199418 -0.0011484 -0.000295466)
(0.00339705 0.00140268 4.76936e-05)
(0.00322803 0.000416 -1.75281e-05)
(0.00317097 -0.000485801 -0.000129439)
(0.0032202 -0.00147704 -0.00022478)
(0.00478178 0.00160658 -6.63885e-05)
(0.00462883 0.000473909 -6.94745e-05)
(0.00456569 -0.000583904 -0.000113881)
(0.00458528 -0.0017195 -0.000147862)
(0.00623305 0.00173238 -0.000171095)
(0.00609451 0.000501994 -0.000118193)
(0.00602727 -0.000662394 -0.000101624)
(0.00602356 -0.00189055 -7.7825e-05)
(0.00769931 0.00179849 -0.000258716)
(0.00757002 0.000507557 -0.000164272)
(0.00749898 -0.000723231 -9.69813e-05)
(0.00748024 -0.00200332 -2.52833e-05)
(0.00915457 0.00182354 -0.000330355)
(0.00901636 0.000500657 -0.000210128)
(0.00893623 -0.000767731 -0.000102463)
(0.00891428 -0.00207428 -9.85142e-07)
(0.000293017 0.000172285 0.000146588)
(0.000147432 3.52703e-05 4.55639e-05)
(0.00013463 -4.5908e-05 -6.1484e-05)
(0.000247583 -0.000180136 -0.000174838)
(0.00116112 0.000710122 0.000132193)
(0.000952394 0.000195168 4.02898e-05)
(0.00091932 -0.000213083 -9.76257e-05)
(0.00105303 -0.000726108 -0.000207465)
(0.0021946 0.00111683 8.30281e-05)
(0.00200812 0.00033334 7.78325e-06)
(0.00196238 -0.000360337 -0.00010346)
(0.00204975 -0.00114699 -0.000197657)
(0.00341621 0.00142327 6.35704e-06)
(0.00324948 0.000432163 -3.08572e-05)
(0.0031951 -0.000480408 -9.98658e-05)
(0.00324385 -0.00147646 -0.000157303)
(0.00476031 0.00163155 -7.68673e-05)
(0.00461244 0.000493809 -7.09878e-05)
(0.00455175 -0.000575773 -9.30012e-05)
(0.00456757 -0.00171605 -0.000107462)
(0.0061706 0.00175905 -0.000155622)
(0.0060382 0.000524492 -0.0001098)
(0.00597322 -0.000649435 -8.80001e-05)
(0.00596408 -0.00188025 -6.09943e-05)
(0.00759989 0.00182503 -0.000223121)
(0.00747812 0.000531275 -0.000146866)
(0.0074096 -0.000704555 -8.92259e-05)
(0.0073839 -0.00198409 -2.76547e-05)
(0.00902755 0.00184866 -0.000277481)
(0.00889725 0.000523981 -0.00018231)
(0.00881994 -0.000744222 -0.000100465)
(0.00879119 -0.00204662 -1.78916e-05)
(0.000307845 0.000177744 7.07458e-05)
(0.000153212 3.77915e-05 2.11413e-05)
(0.000138404 -4.62301e-05 -3.61278e-05)
(0.00025568 -0.000184016 -9.35353e-05)
(0.00119243 0.000704991 6.3181e-05)
(0.000965333 0.000196045 1.32367e-05)
(0.000929947 -0.000205431 -6.31338e-05)
(0.00107691 -0.000714184 -0.000124084)
(0.00222064 0.00111013 3.0409e-05)
(0.00202023 0.000336747 -1.01236e-05)
(0.00197206 -0.000349503 -7.28733e-05)
(0.00206861 -0.00112768 -0.000124271)
(0.00342488 0.00141675 -2.15299e-05)
(0.00324862 0.000438193 -3.87516e-05)
(0.00319164 -0.000465997 -7.50757e-05)
(0.00324488 -0.00145026 -0.000103385)
(0.00474538 0.00162805 -7.99298e-05)
(0.00459086 0.000503136 -6.90717e-05)
(0.00452738 -0.000557821 -7.44057e-05)
(0.00454443 -0.00168486 -7.42807e-05)
(0.00612976 0.00176026 -0.000136937)
(0.00599292 0.000537322 -9.91407e-05)
(0.00592511 -0.00062798 -7.47637e-05)
(0.00591466 -0.00184505 -4.6407e-05)
(0.00753443 0.00183236 -0.000187053)
(0.00741026 0.000547343 -0.000128331)
(0.00733908 -0.000680018 -7.99891e-05)
(0.00730991 -0.00194605 -2.79005e-05)
(0.00894322 0.00186315 -0.00022736)
(0.00881232 0.00054283 -0.000156132)
(0.00873182 -0.000717359 -9.40105e-05)
(0.00869654 -0.00200691 -2.84497e-05)
(0.000313145 0.000180849 3.19874e-05)
(0.000152005 3.90628e-05 8.37447e-06)
(0.000135509 -4.63486e-05 -2.11484e-05)
(0.000255937 -0.000186029 -4.90298e-05)
(0.00120302 0.000701459 2.41658e-05)
(0.000964479 0.000196538 -5.9287e-07)
(0.000926322 -0.000199624 -4.07381e-05)
(0.00107965 -0.000704557 -7.21648e-05)
(0.00222728 0.0011021 4.67013e-07)
(0.00201645 0.000338254 -1.81966e-05)
(0.00196531 -0.000338791 -5.0548e-05)
(0.00206723 -0.0011078 -7.53889e-05)
(0.00342135 0.0014072 -3.53647e-05)
(0.00323687 0.000441532 -3.94416e-05)
(0.00317687 -0.00045088 -5.52058e-05)
(0.00323335 -0.00142225 -6.52506e-05)
(0.00472767 0.00161989 -7.61093e-05)
(0.00456691 0.000509114 -6.21265e-05)
(0.00450039 -0.000538892 -5.77782e-05)
(0.00451868 -0.00165113 -4.92943e-05)
(0.0060958 0.00175579 -0.0001168)
(0.00595443 0.000546492 -8.50513e-05)
(0.00588364 -0.000605908 -6.10694e-05)
(0.00587267 -0.00180765 -3.38139e-05)
(0.0074843 0.00183325 -0.000153481)
(0.00735711 0.000559842 -0.000107732)
(0.00728295 -0.00065553 -6.81079e-05)
(0.00725158 -0.00190668 -2.49703e-05)
(0.00887989 0.00187013 -0.000183205)
(0.00874676 0.000558646 -0.000129527)
(0.00866239 -0.000691042 -8.22385e-05)
(0.00862263 -0.00196667 -3.0819e-05)
(0.000314732 0.000182253 1.28763e-05)
(0.000149654 3.97525e-05 2.29697e-06)
(0.000131964 -4.62355e-05 -1.21913e-05)
(0.000253899 -0.000186485 -2.4913e-05)
(0.00120466 0.000699055 4.72776e-06)
(0.000959117 0.000197177 -6.13862e-06)
(0.000918738 -0.000195102 -2.59515e-05)
(0.00107499 -0.000696625 -4.08525e-05)
(0.0022249 0.00109649 -1.27967e-05)
(0.00200723 0.000339705 -1.93482e-05)
(0.00195368 -0.000329891 -3.42494e-05)
(0.00205826 -0.00109169 -4.43499e-05)
(0.00341213 0.00140016 -3.7622e-05)
(0.00322181 0.000444397 -3.48582e-05)
(0.00315943 -0.000437977 -3.92674e-05)
(0.00321766 -0.00139919 -3.9751e-05)
(0.0047094 0.00161345 -6.57782e-05)
(0.00454396 0.000514006 -5.14377e-05)
(0.00447513 -0.000522573 -4.29463e-05)
(0.00449413 -0.00162287 -3.14377e-05)
(0.00606707 0.00175174 -9.42956e-05)
(0.00592211 0.000553842 -6.84176e-05)
(0.0058491 -0.000586859 -4.72178e-05)
(0.00583781 -0.00177596 -2.34574e-05)
(0.00744466 0.00183283 -0.000120518)
(0.00731485 0.000569778 -8.54755e-05)
(0.00723846 -0.000634445 -5.42933e-05)
(0.00720569 -0.00187301 -2.01554e-05)
(0.00883034 0.00187387 -0.000141878)
(0.00869511 0.000571191 -0.000101981)
(0.00860779 -0.000668378 -6.66782e-05)
(0.00856509 -0.00193201 -2.76425e-05)
(0.000315022 0.000182834 4.15759e-06)
(0.000147664 4.01469e-05 -1.33473e-07)
(0.000129169 -4.60334e-05 -6.77353e-06)
(0.000251674 -0.000186274 -1.20626e-05)
(0.00120318 0.000697507 -2.95677e-06)
(0.000953461 0.000197868 -6.87704e-06)
(0.000911504 -0.000191741 -1.58475e-05)
(0.00106898 -0.000690551 -2.21521e-05)
(0.00221977 0.0010931 -1.52893e-05)
(0.00199781 0.000341168 -1.61889e-05)
(0.00194255 -0.000323193 -2.19942e-05)
(0.00204834 -0.00107987 -2.4916e-05)
(0.00340212 0.00139592 -3.17983e-05)
(0.00320797 0.000446985 -2.68593e-05)
(0.00314392 -0.000428173 -2.61897e-05)
(0.003203 -0.00138227 -2.30215e-05)
(0.00469342 0.00160955 -5.0386e-05)
(0.00452481 0.000518077 -3.82491e-05)
(0.00445439 -0.000510098 -2.96056e-05)
(0.00447372 -0.00160195 -1.89397e-05)
(0.00604423 0.00174927 -6.93614e-05)
(0.00589675 0.000559645 -5.00152e-05)
(0.00582224 -0.000572244 -3.3495e-05)
(0.00581073 -0.00175223 -1.51618e-05)
(0.00741441 0.00183256 -8.70486e-05)
(0.00728267 0.000577366 -6.19574e-05)
(0.00720478 -0.000618231 -3.93382e-05)
(0.00717117 -0.00184748 -1.45286e-05)
(0.00879286 0.00187615 -0.000101513)
(0.00865593 0.00058059 -7.35622e-05)
(0.00856663 -0.000650903 -4.88139e-05)
(0.0085222 -0.00190543 -2.12284e-05)
(0.000314951 0.00018304 8.18671e-07)
(0.000146349 4.03669e-05 -6.67412e-07)
(0.000127353 -4.58478e-05 -3.37857e-06)
(0.000250005 -0.000185918 -5.27983e-06)
(0.00120128 0.000696584 -3.98376e-06)
(0.000949225 0.000198434 -4.97844e-06)
(0.000906269 -0.000189511 -8.5304e-06)
(0.00106419 -0.000686461 -1.07839e-05)
(0.00221514 0.00109125 -1.13727e-05)
(0.00199069 0.000342349 -1.05453e-05)
(0.00193434 -0.000318748 -1.22761e-05)
(0.00204064 -0.00107216 -1.24917e-05)
(0.00339424 0.00139366 -2.08911e-05)
(0.00319781 0.000448969 -1.68201e-05)
(0.00313271 -0.000421653 -1.50047e-05)
(0.00319214 -0.0013713 -1.18203e-05)
(0.00468179 0.00160752 -3.15363e-05)
(0.00451123 0.000521044 -2.35067e-05)
(0.00443983 -0.00050178 -1.73397e-05)
(0.00445928 -0.00158833 -1.00221e-05)
(0.00602835 0.00174805 -4.24472e-05)
(0.00587927 0.000563706 -3.04489e-05)
(0.00580385 -0.000562474 -1.99848e-05)
(0.00579218 -0.00173666 -8.44882e-06)
(0.00739383 0.00183255 -5.27003e-05)
(0.00726083 0.000582528 -3.7536e-05)
(0.00718203 -0.000607369 -2.37836e-05)
(0.00714795 -0.00183059 -8.69884e-06)
(0.00876748 0.00187754 -6.11023e-05)
(0.0086294 0.000586867 -4.44335e-05)
(0.0085389 -0.000639167 -2.96863e-05)
(0.00849352 -0.0018877 -1.31935e-05)
(0.000314852 0.000183098 2.45726e-08)
(0.000145707 4.04663e-05 -3.09072e-07)
(0.000126473 -4.5741e-05 -1.02008e-06)
(0.000249137 -0.000185685 -1.46406e-06)
(0.00120011 0.000696152 -1.66464e-06)
(0.000947015 0.000198746 -1.78765e-06)
(0.000903577 -0.000188399 -2.68939e-06)
(0.00106162 -0.000684408 -3.2052e-06)
(0.00221251 0.00109044 -4.13082e-06)
(0.00198693 0.000343001 -3.6422e-06)
(0.00193005 -0.000316535 -3.945e-06)
(0.00203653 -0.00106836 -3.77798e-06)
(0.00338998 0.00139271 -7.24831e-06)
(0.00319249 0.000450042 -5.71587e-06)
(0.00312688 -0.000418407 -4.88678e-06)
(0.00318645 -0.00136591 -3.62364e-06)
(0.0046757 0.00160669 -1.07219e-05)
(0.00450422 0.000522609 -7.92356e-06)
(0.00443235 -0.000497635 -5.70991e-06)
(0.00445183 -0.00158165 -3.12404e-06)
(0.00602018 0.00174757 -1.42882e-05)
(0.00587035 0.0005658 -1.02207e-05)
(0.0057945 -0.000557599 -6.641e-06)
(0.00578275 -0.00172898 -2.70763e-06)
(0.00738334 0.00183259 -1.76525e-05)
(0.00724975 0.000585148 -1.25717e-05)
(0.00717053 -0.000601939 -7.95351e-06)
(0.00713624 -0.00182222 -2.88954e-06)
(0.00875457 0.00187816 -2.04111e-05)
(0.00861596 0.000590024 -1.486e-05)
(0.00852491 -0.000633283 -9.95358e-06)
(0.00847912 -0.00187887 -4.46007e-06)
)
;

boundaryField
{
    interface
    {
        type            tractionDisplacement;
        gradient        nonuniform List<vector> 
192
(
(0.0012504 8.90088e-08 -6.27537e-06)
(0.00125106 2.32615e-07 -7.48491e-06)
(0.0012496 5.25483e-07 -7.47543e-06)
(0.00124673 8.45864e-07 -7.27339e-06)
(0.00124237 1.23213e-06 -6.95727e-06)
(0.00123606 1.75972e-06 -6.48764e-06)
(0.00122701 2.65546e-06 -5.77696e-06)
(0.00121237 4.4017e-06 -4.57372e-06)
(0.00127836 1.58951e-07 -4.18175e-06)
(0.00127813 3.40733e-07 -4.98588e-06)
(0.00127606 6.81215e-07 -4.94782e-06)
(0.00127234 1.07974e-06 -4.77587e-06)
(0.0012667 1.57845e-06 -4.5173e-06)
(0.00125852 2.26978e-06 -4.14438e-06)
(0.00124668 3.43378e-06 -3.60938e-06)
(0.00122774 5.61186e-06 -2.83028e-06)
(0.0012969 2.0556e-07 -2.92788e-06)
(0.00129628 4.22773e-07 -3.50022e-06)
(0.00129375 8.10625e-07 -3.4639e-06)
(0.00128935 1.27314e-06 -3.32432e-06)
(0.00128271 1.85533e-06 -3.11929e-06)
(0.00127309 2.65704e-06 -2.83373e-06)
(0.00125927 3.97152e-06 -2.44508e-06)
(0.00123752 6.33252e-06 -1.9299e-06)
(0.00131022 2.36666e-07 -2.12187e-06)
(0.00130939 4.82114e-07 -2.53952e-06)
(0.00130652 9.12912e-07 -2.50899e-06)
(0.00130157 1.426e-06 -2.39958e-06)
(0.00129415 2.06871e-06 -2.2415e-06)
(0.00128345 2.94405e-06 -2.02736e-06)
(0.00126819 4.35007e-06 -1.74696e-06)
(0.00124452 6.81512e-06 -1.39307e-06)
(0.00131978 2.59652e-07 -1.51365e-06)
(0.00131882 5.26652e-07 -1.81147e-06)
(0.00131569 9.91037e-07 -1.78752e-06)
(0.00131032 1.54199e-06 -1.7059e-06)
(0.0013023 2.22756e-06 -1.58946e-06)
(0.00129082 3.15197e-06 -1.43486e-06)
(0.00127453 4.6157e-06 -1.23756e-06)
(0.00124954 7.14639e-06 -9.95544e-07)
(0.00132642 2.76131e-07 -1.01788e-06)
(0.00132536 5.58719e-07 -1.21811e-06)
(0.00132204 1.04754e-06 -1.20117e-06)
(0.00131638 1.62535e-06 -1.14496e-06)
(0.00130794 2.34023e-06 -1.06545e-06)
(0.0012959 3.29691e-06 -9.61283e-07)
(0.00127891 4.79762e-06 -8.30326e-07)
(0.00125304 7.37104e-06 -6.71486e-07)
(0.00133063 2.87035e-07 -5.86262e-07)
(0.00132951 5.79709e-07 -7.01327e-07)
(0.00132607 1.08477e-06 -6.91544e-07)
(0.00132021 1.68017e-06 -6.58841e-07)
(0.00131151 2.41383e-06 -6.12817e-07)
(0.00129912 3.39091e-06 -5.5309e-07)
(0.00128169 4.9157e-06 -4.77739e-07)
(0.00125526 7.51474e-06 -3.82182e-07)
(0.00133265 2.92824e-07 -1.90632e-07)
(0.00133149 5.90077e-07 -2.27698e-07)
(0.001328 1.10224e-06 -2.24725e-07)
(0.00132205 1.70638e-06 -2.14081e-07)
(0.00131322 2.44881e-06 -1.99112e-07)
(0.00130067 3.43614e-06 -1.79825e-07)
(0.00128303 4.97701e-06 -1.55001e-07)
(0.00125626 7.58408e-06 -1.20792e-07)
(1.09308e-05 7.23725e-08 0.00114973)
(1.30776e-05 1.27851e-07 0.00114889)
(1.31548e-05 1.98457e-07 0.00114824)
(1.29808e-05 2.92527e-07 0.0011473)
(1.2715e-05 4.04896e-07 0.00114595)
(1.23458e-05 5.36693e-07 0.00114413)
(1.18492e-05 6.86119e-07 0.00114175)
(1.13079e-05 8.03277e-07 0.00113874)
(1.00547e-05 2.11513e-08 0.0010997)
(1.20342e-05 3.77271e-08 0.00109949)
(1.21003e-05 5.67502e-08 0.0010993)
(1.19489e-05 8.24212e-08 0.00109902)
(1.17254e-05 1.12105e-07 0.00109863)
(1.14243e-05 1.44074e-07 0.00109811)
(1.10382e-05 1.71046e-07 0.00109746)
(1.0708e-05 1.6209e-07 0.00109671)
(1.00418e-05 -2.70428e-08 0.00105277)
(1.20188e-05 -4.56996e-08 0.00105298)
(1.20844e-05 -6.9588e-08 0.00105321)
(1.1933e-05 -1.00411e-07 0.00105354)
(1.171e-05 -1.3707e-07 0.001054)
(1.141e-05 -1.80176e-07 0.00105463)
(1.10258e-05 -2.2871e-07 0.00105544)
(1.06983e-05 -2.6355e-07 0.00105648)
(1.09054e-05 -8.04064e-08 0.00100291)
(1.30452e-05 -1.36982e-07 0.00100376)
(1.312e-05 -2.11694e-07 0.00100444)
(1.29457e-05 -3.09713e-07 0.00100544)
(1.26804e-05 -4.27843e-07 0.00100685)
(1.23126e-05 -5.69225e-07 0.00100876)
(1.18188e-05 -7.38586e-07 0.00101129)
(1.12818e-05 -8.99354e-07 0.00101456)
(-0.000903606 -9.63547e-08 6.85177e-06)
(-0.000902881 -2.51564e-07 8.12936e-06)
(-0.000904348 -5.72774e-07 8.11249e-06)
(-0.00090722 -9.20022e-07 7.89131e-06)
(-0.000911576 -1.33875e-06 7.54482e-06)
(-0.000917854 -1.91504e-06 7.02877e-06)
(-0.00092686 -2.91625e-06 6.2435e-06)
(-0.00094155 -4.95238e-06 4.89368e-06)
(-0.000876477 -1.72336e-07 4.42126e-06)
(-0.000876696 -3.68407e-07 5.23941e-06)
(-0.000878763 -7.40343e-07 5.19106e-06)
(-0.000882477 -1.17274e-06 5.00456e-06)
(-0.000888098 -1.71422e-06 4.72407e-06)
(-0.000896245 -2.4707e-06 4.31857e-06)
(-0.000908024 -3.77243e-06 3.7342e-06)
(-0.000927051 -6.30466e-06 2.87503e-06)
(-0.000858904 -2.23527e-07 3.02815e-06)
(-0.000859518 -4.57468e-07 3.59773e-06)
(-0.000862036 -8.80012e-07 3.55226e-06)
(-0.00086643 -1.38156e-06 3.40144e-06)
(-0.000873045 -2.0136e-06 3.18024e-06)
(-0.000882602 -2.89053e-06 2.87178e-06)
(-0.000896351 -4.35875e-06 2.45083e-06)
(-0.000918167 -7.09737e-06 1.88924e-06)
(-0.00084644 -2.57774e-07 2.16159e-06)
(-0.000847264 -5.21851e-07 2.57079e-06)
(-0.000850126 -9.90306e-07 2.53274e-06)
(-0.00085506 -1.54618e-06 2.41474e-06)
(-0.000862449 -2.24345e-06 2.24466e-06)
(-0.000873069 -3.20009e-06 2.01421e-06)
(-0.000888236 -4.76849e-06 1.71208e-06)
(-0.000911949 -7.62329e-06 1.32891e-06)
(-0.000837595 -2.83051e-07 1.52365e-06)
(-0.00083856 -5.70096e-07 1.81175e-06)
(-0.000841682 -1.07445e-06 1.78199e-06)
(-0.000847026 -1.67087e-06 1.69407e-06)
(-0.000854997 -2.41412e-06 1.56902e-06)
(-0.000866396 -3.42352e-06 1.40308e-06)
(-0.00088257 -5.05455e-06 1.19126e-06)
(-0.000907581 -7.98206e-06 9.30362e-07)
(-0.000831511 -3.01135e-07 1.01526e-06)
(-0.000832571 -6.04765e-07 1.20705e-06)
(-0.000835879 -1.13523e-06 1.18601e-06)
(-0.000841519 -1.76034e-06 1.1255e-06)
(-0.000849902 -2.53489e-06 1.04024e-06)
(-0.000861845 -3.57878e-06 9.28656e-07)
(-0.000878708 -5.24964e-06 7.88457e-07)
(-0.000904589 -8.22417e-06 6.17775e-07)
(-0.000827684 -3.13066e-07 5.81157e-07)
(-0.000828802 -6.27424e-07 6.90621e-07)
(-0.00083223 -1.17521e-06 6.7841e-07)
(-0.000838059 -1.81904e-06 6.43226e-07)
(-0.000846706 -2.61357e-06 5.93914e-07)
(-0.000858993 -3.67914e-06 5.30029e-07)
(-0.000876286 -5.37574e-06 4.49542e-07)
(-0.000902707 -8.37837e-06 3.46949e-07)
(-0.000825854 -3.19376e-07 1.88378e-07)
(-0.000827006 -6.38536e-07 2.23531e-07)
(-0.000830489 -1.19398e-06 2.19753e-07)
(-0.000836409 -1.8471e-06 2.083e-07)
(-0.000845182 -2.65092e-06 1.92268e-07)
(-0.000857629 -3.72725e-06 1.71653e-07)
(-0.000875121 -5.44102e-06 1.45178e-07)
(-0.000901879 -8.45211e-06 1.08378e-07)
(1.13077e-05 -0.00113956 -9.86196e-07)
(1.18661e-05 -0.00114323 -8.3836e-07)
(1.23873e-05 -0.00114616 -6.69958e-07)
(1.27835e-05 -0.00114847 -5.21832e-07)
(1.30767e-05 -0.00115024 -3.91006e-07)
(1.32868e-05 -0.00115152 -2.72808e-07)
(1.34306e-05 -0.00115236 -1.66012e-07)
(1.35055e-05 -0.00115283 -5.78898e-08)
(1.07333e-05 -0.00109747 -3.23353e-07)
(1.10861e-05 -0.00109878 -2.9851e-07)
(1.14951e-05 -0.00109989 -2.50886e-07)
(1.18192e-05 -0.0011008 -2.02547e-07)
(1.20647e-05 -0.00110151 -1.55909e-07)
(1.22434e-05 -0.00110204 -1.10734e-07)
(1.23687e-05 -0.0011024 -6.67961e-08)
(1.24387e-05 -0.00110257 -2.25708e-08)
(1.07338e-05 -0.00105712 1.29308e-07)
(1.10872e-05 -0.00105654 1.24779e-07)
(1.1494e-05 -0.00105609 9.54584e-08)
(1.18153e-05 -0.00105577 6.74789e-08)
(1.20582e-05 -0.00105555 4.5425e-08)
(1.22347e-05 -0.00105541 2.87838e-08)
(1.23586e-05 -0.00105532 1.65634e-08)
(1.24277e-05 -0.00105528 5.73912e-09)
(1.13263e-05 -0.00101504 7.95589e-07)
(1.18919e-05 -0.00101212 6.58727e-07)
(1.24086e-05 -0.00100987 5.05786e-07)
(1.27978e-05 -0.00100817 3.78169e-07)
(1.3084e-05 -0.00100692 2.73189e-07)
(1.32882e-05 -0.00100604 1.85436e-07)
(1.34278e-05 -0.00100548 1.12584e-07)
(1.35008e-05 -0.00100515 4.00141e-08)
)
;
        traction        nonuniform List<vector> 
192
(
(26.7942 0.00190733 -0.134472)
(26.8085 0.00498462 -0.160391)
(26.7772 0.0112604 -0.160188)
(26.7157 0.0181257 -0.155858)
(26.6222 0.0264028 -0.149084)
(26.487 0.0377082 -0.139021)
(26.293 0.0569026 -0.123792)
(25.9793 0.0943222 -0.0980083)
(27.3935 0.0034061 -0.0896089)
(27.3884 0.00730142 -0.10684)
(27.3441 0.0145975 -0.106025)
(27.2645 0.0231373 -0.10234)
(27.1437 0.033824 -0.0967993)
(26.9683 0.0486382 -0.0888082)
(26.7147 0.0735809 -0.077344)
(26.3087 0.120254 -0.0606489)
(27.7907 0.00440487 -0.0627403)
(27.7773 0.00905942 -0.0750048)
(27.7233 0.0173705 -0.0742265)
(27.6289 0.0272816 -0.0712353)
(27.4865 0.039757 -0.066842)
(27.2806 0.0569365 -0.0607228)
(26.9843 0.085104 -0.0523946)
(26.5182 0.135697 -0.0413549)
(28.0762 0.00507141 -0.0454687)
(28.0584 0.010331 -0.0544183)
(27.997 0.0195624 -0.0537641)
(27.8909 0.0305572 -0.0514196)
(27.7317 0.0443295 -0.0480322)
(27.5026 0.0630869 -0.0434433)
(27.1755 0.0932158 -0.0374349)
(26.6683 0.146038 -0.0298516)
(28.2811 0.00556398 -0.0324353)
(28.2603 0.0112854 -0.0388172)
(28.1933 0.0212365 -0.038304)
(28.0783 0.0330426 -0.0365551)
(27.9065 0.0477333 -0.0340599)
(27.6604 0.0675421 -0.0307469)
(27.3113 0.0989078 -0.0265191)
(26.7759 0.153137 -0.0213331)
(28.4234 0.00591708 -0.0218117)
(28.4006 0.0119725 -0.0261023)
(28.3295 0.0224473 -0.0257394)
(28.2081 0.034829 -0.0245348)
(28.0273 0.0501478 -0.0228311)
(27.7694 0.0706481 -0.0205989)
(27.4052 0.102806 -0.0177927)
(26.8508 0.157951 -0.014389)
(28.5135 0.00615074 -0.0125628)
(28.4894 0.0124223 -0.0150284)
(28.4158 0.023245 -0.0148188)
(28.2903 0.0360036 -0.014118)
(28.1037 0.0517248 -0.0131318)
(27.8383 0.0726623 -0.0118519)
(27.4647 0.105336 -0.0102373)
(26.8984 0.16103 -0.00818961)
(28.5567 0.00627479 -0.00408497)
(28.532 0.0126445 -0.00487923)
(28.4571 0.0236193 -0.00481554)
(28.3296 0.0365652 -0.00458744)
(28.1404 0.0524745 -0.00426669)
(27.8714 0.0736316 -0.00385339)
(27.4935 0.10665 -0.00332146)
(26.9199 0.162516 -0.00258841)
(0.234232 0.00155084 24.637)
(0.280235 0.00273965 24.6191)
(0.281888 0.00425265 24.6052)
(0.278159 0.00626843 24.5849)
(0.272465 0.00867633 24.5561)
(0.264553 0.0115006 24.5171)
(0.253912 0.0147025 24.4661)
(0.242312 0.0172131 24.4015)
(0.215458 0.000453242 23.565)
(0.257875 0.000808438 23.5605)
(0.259292 0.00121608 23.5564)
(0.256048 0.00176617 23.5504)
(0.251258 0.00240225 23.542)
(0.244806 0.00308729 23.5309)
(0.236532 0.00366528 23.517)
(0.229457 0.00347336 23.5009)
(0.215181 -0.00057949 22.5593)
(0.257546 -0.000979277 22.564)
(0.258951 -0.00149117 22.5688)
(0.255708 -0.00215167 22.5758)
(0.250929 -0.00293722 22.5858)
(0.244501 -0.00386092 22.5992)
(0.236268 -0.00490093 22.6167)
(0.22925 -0.00564749 22.6389)
(0.233687 -0.00172299 21.4909)
(0.279539 -0.00293532 21.5091)
(0.281144 -0.00453631 21.5238)
(0.277407 -0.00663671 21.5451)
(0.271722 -0.00916805 21.5754)
(0.263841 -0.0121977 21.6164)
(0.253261 -0.0158268 21.6704)
(0.241752 -0.0192719 21.7405)
(-19.363 -0.00206474 0.146824)
(-19.3475 -0.00539066 0.174201)
(-19.3789 -0.0122737 0.173839)
(-19.4404 -0.0197148 0.1691)
(-19.5338 -0.0286875 0.161675)
(-19.6683 -0.0410367 0.150616)
(-19.8613 -0.0624911 0.133789)
(-20.1761 -0.106122 0.104865)
(-18.7816 -0.00369291 0.0947413)
(-18.7863 -0.00789443 0.112273)
(-18.8306 -0.0158645 0.111237)
(-18.9102 -0.0251302 0.107241)
(-19.0307 -0.0367334 0.10123)
(-19.2052 -0.0529437 0.0925409)
(-19.4577 -0.0808377 0.0800185)
(-19.8654 -0.1351 0.0616077)
(-18.4051 -0.00478987 0.064889)
(-18.4182 -0.00980289 0.0770943)
(-18.4722 -0.0188574 0.0761199)
(-18.5664 -0.0296049 0.0728881)
(-18.7081 -0.0431486 0.0681481)
(-18.9129 -0.06194 0.0615382)
(-19.2075 -0.0934018 0.0525179)
(-19.675 -0.152086 0.0404836)
(-18.138 -0.00552373 0.0463197)
(-18.1556 -0.0111825 0.0550883)
(-18.217 -0.0212208 0.054273)
(-18.3227 -0.0331325 0.0517444)
(-18.481 -0.048074 0.0480998)
(-18.7086 -0.0685733 0.0431617)
(-19.0336 -0.102182 0.0366875)
(-19.5418 -0.163356 0.0284766)
(-17.9485 -0.00606538 0.0326497)
(-17.9691 -0.0122163 0.0388231)
(-18.036 -0.023024 0.0381856)
(-18.1506 -0.0358044 0.0363015)
(-18.3214 -0.0517312 0.0336219)
(-18.5656 -0.0733611 0.0300661)
(-18.9122 -0.108312 0.0255271)
(-19.4482 -0.171044 0.0199363)
(-17.8181 -0.00645288 0.0217555)
(-17.8408 -0.0129593 0.0258653)
(-17.9117 -0.0243264 0.0254145)
(-18.0325 -0.0377215 0.0241178)
(-18.2122 -0.0543192 0.0222908)
(-18.4681 -0.0766882 0.0198998)
(-18.8294 -0.112492 0.0168955)
(-19.3841 -0.176232 0.013238)
(-17.7361 -0.00670857 0.0124534)
(-17.7601 -0.0134448 0.014799)
(-17.8335 -0.0251831 0.0145374)
(-17.9584 -0.0389794 0.0137834)
(-18.1437 -0.0560052 0.0127267)
(-18.407 -0.0788387 0.0113578)
(-18.7775 -0.115194 0.00963305)
(-19.3437 -0.179537 0.00743463)
(-17.6969 -0.00684377 0.00403667)
(-17.7216 -0.0136829 0.00478996)
(-17.7962 -0.0255853 0.00470898)
(-17.9231 -0.0395806 0.00446357)
(-18.111 -0.0568055 0.00412003)
(-18.3778 -0.0798697 0.00367828)
(-18.7526 -0.116593 0.00311095)
(-19.326 -0.181117 0.00232238)
(0.242309 -24.4191 -0.0211328)
(0.254273 -24.4977 -0.0179648)
(0.265441 -24.5605 -0.0143563)
(0.273931 -24.61 -0.0111821)
(0.280215 -24.6479 -0.00837869)
(0.284717 -24.6755 -0.00584588)
(0.287799 -24.6935 -0.0035574)
(0.289404 -24.7035 -0.0012405)
(0.229999 -23.5171 -0.006929)
(0.237559 -23.5453 -0.00639663)
(0.246324 -23.5691 -0.00537612)
(0.253268 -23.5885 -0.00434029)
(0.25853 -23.6038 -0.00334091)
(0.262358 -23.6152 -0.00237288)
(0.265043 -23.6228 -0.00143135)
(0.266544 -23.6265 -0.00048366)
(0.23001 -22.6525 0.00277088)
(0.237582 -22.6402 0.00267384)
(0.2463 -22.6305 0.00204554)
(0.253185 -22.6237 0.00144598)
(0.25839 -22.6189 0.000973392)
(0.262173 -22.6158 0.000616796)
(0.264827 -22.614 0.00035493)
(0.266308 -22.6131 0.000122981)
(0.242706 -21.7508 0.0170483)
(0.254825 -21.6882 0.0141156)
(0.265899 -21.64 0.0108383)
(0.274239 -21.6037 0.00810362)
(0.280372 -21.5769 0.00585405)
(0.284748 -21.558 0.00397363)
(0.287739 -21.5459 0.00241252)
(0.289303 -21.5389 0.000857445)
)
;
        pressure        uniform 0;
        value           nonuniform List<vector> 
192
(
(0.000568185 0.000599011 0.000303469)
(0.00123908 0.00113624 0.000257188)
(0.00230785 0.00165952 0.000164529)
(0.00353245 0.00203741 2.8273e-05)
(0.00489763 0.00229672 -0.000111234)
(0.00633077 0.00244995 -0.000240038)
(0.00778701 0.00252595 -0.000347137)
(0.0092371 0.0025631 -0.000429527)
(0.000606632 0.0006245 0.000152447)
(0.0013318 0.00113236 0.000147268)
(0.00236105 0.00165687 9.13775e-05)
(0.00355632 0.00203825 3.82516e-07)
(0.0048795 0.00230041 -9.91282e-05)
(0.00627241 0.00245767 -0.000194447)
(0.00769208 0.00253797 -0.000276334)
(0.00911415 0.00258274 -0.000339696)
(0.000633984 0.000646448 7.21225e-05)
(0.00137061 0.00112826 6.7708e-05)
(0.00239256 0.00164118 3.13009e-05)
(0.00356765 0.00201966 -2.84135e-05)
(0.00486491 0.00228317 -9.70208e-05)
(0.00623052 0.00244586 -0.000164846)
(0.0076249 0.00253457 -0.000224899)
(0.00902613 0.00259197 -0.00027211)
(0.000647187 0.000657187 3.12213e-05)
(0.00138716 0.00112454 2.34082e-05)
(0.00240493 0.00162864 -3.09809e-06)
(0.00356831 0.00200265 -4.37252e-05)
(0.00484979 0.00226627 -9.07849e-05)
(0.00619792 0.00243266 -0.000138426)
(0.00757535 0.00252784 -0.000181829)
(0.0089622 0.00259436 -0.000216711)
(0.000652927 0.000661671 1.14139e-05)
(0.0013927 0.00112129 1.97939e-06)
(0.00240664 0.00162007 -1.79248e-05)
(0.0035625 0.00199099 -4.60092e-05)
(0.00483403 0.0022543 -7.82349e-05)
(0.00617087 0.00242285 -0.000111288)
(0.0075368 0.0025221 -0.000142116)
(0.00891284 0.00259432 -0.000167336)
(0.000655257 0.000663244 2.78282e-06)
(0.0013936 0.00111867 -5.78244e-06)
(0.00240417 0.00161456 -1.99655e-05)
(0.00355487 0.00198378 -3.86955e-05)
(0.00481998 0.00224688 -5.99041e-05)
(0.00614948 0.00241661 -8.17938e-05)
(0.00750764 0.00251815 -0.000102526)
(0.00887596 0.00259367 -0.000119675)
(0.000656111 0.000663633 -1.01061e-07)
(0.00139302 0.00111685 -5.94452e-06)
(0.00240108 0.00161129 -1.45061e-05)
(0.00354845 0.00197969 -2.53435e-05)
(0.00480959 0.00224272 -3.74885e-05)
(0.00613458 0.00241308 -5.00578e-05)
(0.00748784 0.00251579 -6.20692e-05)
(0.00885111 0.00259308 -7.20619e-05)
(0.000656355 0.000663664 -2.92829e-07)
(0.00139242 0.00111593 -2.35333e-06)
(0.00239915 0.00160976 -5.22e-06)
(0.00354485 0.00197785 -8.77707e-06)
(0.00480407 0.00224087 -1.27422e-05)
(0.00612689 0.00241149 -1.68504e-05)
(0.00747774 0.00251469 -2.07921e-05)
(0.00883847 0.00259267 -2.40779e-05)
(0.000237105 0.000323193 0.000459381)
(0.00104692 0.000664881 0.000262114)
(0.00212418 0.00105902 0.000199478)
(0.00340436 0.00134408 6.55694e-05)
(0.0048208 0.00154919 -6.11589e-05)
(0.00630105 0.00168037 -0.00017817)
(0.0077907 0.00175434 -0.000273783)
(0.00926343 0.00179247 -0.000355365)
(5.31765e-05 8.85244e-05 0.000123812)
(0.000802404 0.000171337 8.9989e-05)
(0.00188498 0.000304054 3.83095e-05)
(0.00318853 0.00039333 -2.04607e-05)
(0.00462579 0.000450294 -7.71226e-05)
(0.00612442 0.000478079 -0.000130009)
(0.00762787 0.000483143 -0.000179355)
(0.00909769 0.000478875 -0.000231934)
(3.63226e-05 -0.000128166 -0.0001523)
(0.000761219 -0.000214213 -0.000159455)
(0.00182889 -0.000355861 -0.000157307)
(0.00312365 -0.000471649 -0.000141694)
(0.00455446 -0.000572654 -0.000124268)
(0.00604924 -0.000656422 -0.000109725)
(0.0075498 -0.000724388 -0.000103118)
(0.00901018 -0.000776716 -0.00010379)
(0.00018129 -0.000383013 -0.000489517)
(0.000914707 -0.000713202 -0.000358526)
(0.00194724 -0.00111852 -0.000345436)
(0.00319833 -0.001431 -0.000256642)
(0.00459325 -0.00167703 -0.000169659)
(0.00605999 -0.00185668 -8.903e-05)
(0.00754116 -0.00198286 -2.83503e-05)
(0.00899306 -0.00207329 5.06398e-06)
(0.000476793 -0.000597962 -0.000344626)
(0.00108391 -0.00115868 -0.000369823)
(0.00209646 -0.00171157 -0.000331044)
(0.00328297 -0.00211945 -0.000239465)
(0.00462017 -0.00241598 -0.000138408)
(0.0060356 -0.00261022 -4.35016e-05)
(0.00747859 -0.00272486 3.11266e-05)
(0.00890981 -0.0027859 7.10113e-05)
(0.000498956 -0.000618298 -0.000185451)
(0.00117664 -0.00114967 -0.000230676)
(0.00215088 -0.00169533 -0.000217364)
(0.00330745 -0.00210069 -0.000163519)
(0.0046017 -0.00239138 -9.72474e-05)
(0.00597537 -0.00257974 -3.33056e-05)
(0.00738094 -0.00268844 1.59769e-05)
(0.00878591 -0.00274684 3.86219e-05)
(0.000515231 -0.000637308 -9.78096e-05)
(0.0012072 -0.00114114 -0.000132571)
(0.00217557 -0.00166787 -0.000130291)
(0.00331219 -0.00206263 -0.000101868)
(0.00458012 -0.00234592 -6.22851e-05)
(0.00592584 -0.00253024 -2.29172e-05)
(0.00730539 -0.00263748 6.77592e-06)
(0.0086874 -0.00269591 1.63173e-05)
(0.000520146 -0.000644148 -5.0112e-05)
(0.00121464 -0.00113153 -7.35106e-05)
(0.00217874 -0.00164373 -7.42868e-05)
(0.00330399 -0.00202722 -5.93191e-05)
(0.00455617 -0.00230309 -3.6799e-05)
(0.00588422 -0.0024832 -1.38818e-05)
(0.00724609 -0.00258859 2.58413e-06)
(0.00861114 -0.00264631 4.18994e-06)
(0.000519886 -0.000644748 -2.46882e-05)
(0.00121278 -0.0011223 -3.93946e-05)
(0.00217255 -0.00162456 -4.06182e-05)
(0.00329048 -0.00199946 -3.26657e-05)
(0.00453291 -0.00226902 -2.00998e-05)
(0.0058497 -0.00244508 -7.2725e-06)
(0.00719956 -0.00254816 1.18584e-06)
(0.00855209 -0.00260441 -9.51416e-07)
(0.000518025 -0.00064311 -1.14877e-05)
(0.00120828 -0.00111464 -2.01275e-05)
(0.00216418 -0.00161039 -2.10692e-05)
(0.00327707 -0.00197946 -1.68695e-05)
(0.00451326 -0.00224436 -1.00487e-05)
(0.00582283 -0.0024171 -3.18008e-06)
(0.00716466 -0.00251799 8.03177e-07)
(0.00850838 -0.00257262 -2.30193e-06)
(0.000516217 -0.000641268 -4.80568e-06)
(0.00120421 -0.00110925 -9.26123e-06)
(0.00215727 -0.00160105 -9.8026e-06)
(0.00326687 -0.00196654 -7.75966e-06)
(0.00449923 -0.00222845 -4.39902e-06)
(0.00580439 -0.00239892 -1.08362e-06)
(0.00714122 -0.00249818 5.70559e-07)
(0.0084793 -0.00255151 -1.84771e-06)
(0.000515181 -0.000640165 -1.28747e-06)
(0.00120193 -0.00110649 -2.65355e-06)
(0.00215348 -0.00159642 -2.82623e-06)
(0.00326145 -0.00196021 -2.21482e-06)