/*--------------------------------*- C++ -*----------------------------------*\
| =========                 |                                                 |
| \\      /  F ield         | foam-extend: Open Source CFD                    |
|  \\    /   O peration     | Version:     3.1                                |
|   \\  /    A nd           | Web:         http://www.extend-project.de       |
|    \\/     M anipulation  |                                                 |
\*---------------------------------------------------------------------------*/
FoamFile
{
    version     2.0;
    format      ascii;
    class       volSymmTensorField;
    location    "3.6";
    object      epsilon;
}
// * * * * * * * * * * * * * * * * * * * * * * * * * * * * * * * * * * * * * //

dimensions      [0 0 0 0 0 0 0];

internalField   nonuniform List<symmTensor> 
256
(
(-0.00647854 0.00853001 -0.000371203 0.0246551 0.00441501 -0.00259979)
(-0.00216894 0.00725378 -0.00113502 0.00584849 0.00152332 -0.000951112)
(0.00111757 0.00676055 -0.00115991 -0.00667658 -0.00221085 0.00114753)
(0.00508997 0.0071983 -0.00047119 -0.0243504 -0.00538696 0.0028235)
(-0.011462 0.00356721 -0.000420421 0.0158506 -0.00145271 -0.00387842)
(-0.00461681 0.00935887 -0.00178765 0.00607893 -0.000654224 -0.00138371)
(0.00204296 0.00915515 -0.00185045 -0.00504085 0.0003165 0.00187622)
(0.00876972 0.00342537 -0.000650035 -0.0148994 0.000985754 0.00452965)
(-0.00968025 0.00437719 -0.000150622 0.0147806 -0.000805555 -0.00217056)
(-0.00477543 0.0090727 -0.00121529 0.00552385 -0.000338733 -0.000676042)
(0.00144671 0.00906932 -0.00126456 -0.00407182 2.12375e-05 0.00140121)
(0.00651436 0.00440529 -0.000391266 -0.0134097 0.000441895 0.00316614)
(-0.00839382 0.00386039 -0.000143193 0.0110562 -0.00113742 -0.00116063)
(-0.00435819 0.00830838 -0.000992211 0.00437458 -0.000401774 -0.000227207)
(0.000764963 0.00835331 -0.0010289 -0.00283143 0.000147555 0.00119757)
(0.00491719 0.00394929 -0.000405567 -0.00951726 0.000862096 0.00242582)
(-0.00692344 0.00337382 -8.89005e-05 0.00794795 -0.00104536 -4.69389e-05)
(-0.00386972 0.00719449 -0.000788674 0.00330495 -0.000346671 0.000232725)
(0.000198836 0.00727467 -0.000819249 -0.00181267 0.000147137 0.000918782)
(0.00328065 0.00351781 -0.000355827 -0.00634812 0.00085199 0.00150842)
(-0.00578059 0.00262666 -9.83374e-05 0.0052782 -0.00091589 0.000855032)
(-0.00344866 0.00581247 -0.000681366 0.0023619 -0.000304183 0.000607284)
(-0.000227192 0.005945 -0.000692634 -0.000991867 0.000133424 0.000682752)
(0.0020256 0.00287826 -0.000343399 -0.00366199 0.000792771 0.000732605)
(-0.00507185 0.00171967 -0.000176138 0.00349361 -0.000765648 0.00160986)
(-0.00324269 0.00427499 -0.000653165 0.00167464 -0.000301424 0.000942376)
(-0.000540019 0.00441507 -0.000630345 -0.000378465 7.90522e-05 0.000478334)
(0.00122509 0.00211068 -0.000359694 -0.00174894 0.000627015 6.4922e-05)
(-0.00538804 0.000992295 -0.000260406 0.00255359 -0.000446771 0.00222228)
(-0.00395506 0.00246453 -0.000614287 0.00152021 -0.000210381 0.0012362)
(-0.000532495 0.0023862 -0.000602222 0.000135759 -2.54259e-05 0.000304732)
(0.00120087 0.00104916 -0.000427052 -0.000708451 0.000218907 -0.000478291)
(-0.00652592 0.0096989 -0.000223622 0.0239899 0.00271081 -0.00172671)
(-0.00200143 0.00872504 -0.000906356 0.0057126 0.000851163 -0.000648476)
(0.00102567 0.00829862 -0.000992796 -0.00577651 -0.0015786 0.000766923)
(0.0050909 0.00842467 -0.00043328 -0.0229266 -0.00368548 0.00196202)
(-0.0114923 0.0036601 -0.000306485 0.0173251 -0.000588661 -0.00305954)
(-0.00424307 0.00964988 -0.00166111 0.00681517 -0.000392431 -0.00112117)
(0.00187702 0.00953784 -0.00184727 -0.00577419 -0.000165834 0.00148661)
(0.00879042 0.0036661 -0.00075458 -0.0164274 -8.40191e-05 0.0037382)
(-0.00949784 0.00383945 -8.8782e-05 0.0148949 -0.00127143 -0.00214554)
(-0.0042791 0.00831111 -0.00129751 0.00563548 -0.000538152 -0.000730926)
(0.001314 0.00833533 -0.0014997 -0.00416821 0.000164581 0.00131824)
(0.0064294 0.003877 -0.000607164 -0.013498 0.000834643 0.00315481)
(-0.008064 0.00320879 7.54489e-05 0.0111866 -0.00156449 -0.00105148)
(-0.00380027 0.00720473 -0.000905396 0.00446058 -0.000570827 -0.000296166)
(0.000639074 0.00725525 -0.00111779 -0.00285473 0.000327799 0.00105658)
(0.00470309 0.00328863 -0.000497633 -0.00957223 0.00129744 0.00228811)
(-0.0065856 0.00265796 0.000224486 0.00790808 -0.00155634 3.17315e-05)
(-0.00331422 0.00600354 -0.000592592 0.0033236 -0.000534128 0.000120833)
(9.97882e-05 0.00607908 -0.000809927 -0.00171703 0.000382836 0.000784524)
(0.00305703 0.00278626 -0.000372823 -0.00618204 0.00142164 0.00137383)
(-0.00544918 0.0019783 0.000300223 0.00520303 -0.00137574 0.000970942)
(-0.00291382 0.00473148 -0.000385937 0.00236203 -0.000468708 0.000488657)
(-0.000314006 0.00485367 -0.000589575 -0.000828645 0.00035072 0.000548378)
(0.0017881 0.00221775 -0.000282248 -0.00340278 0.00132937 0.000558634)
(-0.00476141 0.0011808 0.000291406 0.00339259 -0.00108372 0.00173872)
(-0.00274661 0.00342138 -0.000290469 0.00163953 -0.000408696 0.000813707)
(-0.000615908 0.00356031 -0.000466152 -0.000177436 0.0002326 0.000369952)
(0.000988096 0.00159983 -0.000231328 -0.00141238 0.00103591 -9.84134e-05)
(-0.00508592 0.00073461 0.000227131 0.00248736 -0.000621762 0.00234672)
(-0.00350669 0.00203248 -0.000276008 0.00148869 -0.000273938 0.00109507)
(-0.000642138 0.00195033 -0.000483839 0.000275682 5.36613e-05 0.000229723)
(0.000939516 0.000815176 -0.000311403 -0.000465823 0.000481546 -0.000606172)
(-0.00684773 0.0101964 -0.000146824 0.0242029 0.00132763 -0.000992486)
(-0.0021331 0.00910632 -0.000576635 0.00580631 0.000336999 -0.000352672)
(0.00108513 0.00864272 -0.000649121 -0.00559142 -0.000990951 0.000475199)
(0.00530485 0.00879209 -0.000302093 -0.0228889 -0.00211699 0.00118709)
(-0.0121078 0.00373124 -0.000246659 0.0170001 -0.000407032 -0.0018647)
(-0.00453202 0.00980976 -0.00111913 0.00687075 -0.000321802 -0.000621601)
(0.00201998 0.00970206 -0.00127823 -0.00559783 -0.000217952 0.00099284)
(0.00924134 0.00373728 -0.0005839 -0.0159111 -0.000167554 0.00240898)
(-0.00996941 0.00378648 -0.000133047 0.0148244 -0.000988536 -0.00142357)
(-0.00453258 0.00823977 -0.000956952 0.00572371 -0.000462882 -0.000389597)
(0.00142781 0.00826205 -0.00113329 -0.00407184 9.02028e-05 0.000991094)
(0.00676591 0.00379184 -0.000517862 -0.0132288 0.00059716 0.002241)
(-0.00835515 0.00309327 -7.66465e-07 0.011188 -0.00127784 -0.000696069)
(-0.00396763 0.00692566 -0.0006842 0.00453399 -0.000505981 -7.13814e-05)
(0.000661882 0.00697266 -0.000866989 -0.00275126 0.000275567 0.000866487)
(0.00484381 0.00315103 -0.000411182 -0.00937944 0.00104712 0.0017302)
(-0.00677363 0.00248884 0.000120058 0.00797579 -0.00131829 0.000104467)
(-0.00343246 0.00563848 -0.000421898 0.0034037 -0.000480981 0.000261781)
(6.17034e-05 0.00571698 -0.000605685 -0.00162106 0.000356826 0.000702696)
(0.00307358 0.00261333 -0.000296941 -0.00604345 0.00121951 0.00110532)
(-0.00555941 0.00179212 0.000195269 0.00532995 -0.00118977 0.000842261)
(-0.00299365 0.00435837 -0.00023493 0.00244269 -0.000420876 0.000571634)
(-0.000400176 0.00449803 -0.000406912 -0.00073842 0.000347443 0.00055416)
(0.00170042 0.00206039 -0.000203892 -0.0033108 0.00117913 0.000518828)
(-0.00480381 0.000990091 0.000205253 0.00358714 -0.000937385 0.00146098)
(-0.00279559 0.00311043 -0.000150998 0.00171795 -0.000348574 0.000849774)
(-0.000745368 0.00328408 -0.000306488 -0.000101961 0.000247923 0.000454275)
(0.000810852 0.00148725 -0.000155963 -0.00136288 0.000943854 5.40548e-05)
(-0.00506666 0.000641402 0.000145424 0.00268605 -0.00050411 0.00191707)
(-0.0035573 0.00187624 -0.000190071 0.00157707 -0.000206949 0.00107691)
(-0.000864537 0.00181394 -0.000388461 0.000339422 6.89117e-05 0.000415778)
(0.000656918 0.000772047 -0.000259591 -0.000436716 0.000431245 -0.000223944)
(-0.00708009 0.0103858 -7.80324e-05 0.0243172 0.000548248 -0.00051253)
(-0.0022479 0.00918102 -0.000341217 0.00585911 7.10497e-05 -0.000165202)
(0.00111517 0.00867441 -0.00039029 -0.00548583 -0.000611298 0.000297262)
(0.00545466 0.00887084 -0.000187232 -0.0228208 -0.00115988 0.00068753)
(-0.012563 0.00375327 -0.000141797 0.0167049 -0.00034099 -0.000967138)
(-0.00478938 0.00988761 -0.000695089 0.00687765 -0.000265823 -0.000269723)
(0.00208423 0.0097706 -0.000805394 -0.00538846 -0.000189044 0.00065865)
(0.00954733 0.00375451 -0.000383654 -0.0154417 -0.000116126 0.00145195)
(-0.0103839 0.00380905 -9.06492e-05 0.0146789 -0.000712821 -0.000707728)
(-0.00480102 0.00828224 -0.000641134 0.00576608 -0.000355703 -9.94804e-05)
(0.00147242 0.00830263 -0.000764496 -0.00389945 3.56898e-05 0.000724603)
(0.00703216 0.00380419 -0.000365701 -0.0128717 0.000396648 0.00144366)
(-0.00868255 0.00309042 -9.8269e-06 0.011151 -0.000922728 -0.000230254)
(-0.00420034 0.00691043 -0.000479986 0.00459842 -0.000385635 0.000140654)
(0.00065585 0.00695821 -0.000604669 -0.00260946 0.000188528 0.000696526)
(0.00501087 0.00314508 -0.000296568 -0.00912832 0.000735136 0.00118567)
(-0.00700688 0.00246174 7.33674e-05 0.00803526 -0.000973398 0.000331715)
(-0.00362897 0.00557767 -0.00030142 0.00348931 -0.000369305 0.00040259)
(8.4763e-06 0.00566371 -0.000423574 -0.0015112 0.000267255 0.000629506)
(0.00313273 0.00259662 -0.000212058 -0.0058873 0.000894831 0.000818112)
(-0.00571393 0.00174377 0.000129739 0.00546807 -0.000900702 0.0008772)
(-0.00315719 0.00427212 -0.000167438 0.00254149 -0.000326937 0.000657116)
(-0.000492203 0.00443049 -0.000279845 -0.000657405 0.000273136 0.000567127)
(0.00166303 0.0020443 -0.000140275 -0.00323243 0.000894098 0.00045446)
(-0.00488813 0.000924271 0.000137908 0.0037946 -0.000729264 0.00135008)
(-0.00293336 0.00302625 -0.000117974 0.00182409 -0.000271796 0.000894452)
(-0.000878345 0.00322756 -0.000221013 -4.48203e-05 0.000201942 0.000544817)
(0.000681093 0.00148036 -0.000108314 -0.00133682 0.000734962 0.000176707)
(-0.00509974 0.000611747 7.51361e-05 0.00291665 -0.000412 0.00170989)
(-0.00370502 0.00183051 -0.000194831 0.00170138 -0.000165648 0.00110439)
(-0.00107936 0.00177784 -0.000334844 0.000386507 5.8184e-05 0.000592649)
(0.000427398 0.000770894 -0.000211695 -0.000446182 0.000342002 7.08391e-05)
(-0.00722465 0.0104451 -3.49964e-05 0.0243524 0.000161995 -0.000234)
(-0.00232352 0.00915639 -0.000190855 0.0058917 -4.32418e-05 -5.71275e-05)
(0.00112323 0.00861725 -0.000222196 -0.00540154 -0.000371653 0.000190365)
(0.00553254 0.00884806 -0.000108915 -0.0227009 -0.000614362 0.000392235)
(-0.0128623 0.00374954 -6.7348e-05 0.0165273 -0.000285589 -0.000411996)
(-0.0049629 0.00990215 -0.000406315 0.00688943 -0.000210593 -5.51357e-05)
(0.00209856 0.00977775 -0.000478645 -0.00522003 -0.000144418 0.000447409)
(0.0097145 0.00375032 -0.000233821 -0.0151168 -6.31356e-05 0.000858135)
(-0.0106858 0.00382601 -4.63186e-05 0.0145705 -0.000502684 -0.000209178)
(-0.00499346 0.00832105 -0.000399913 0.00579921 -0.000259008 9.49186e-05)
(0.00147375 0.00834276 -0.000481755 -0.00374153 7.60216e-06 0.000539225)
(0.00719105 0.00382051 -0.00023553 -0.0125818 0.000261311 0.000901628)
(-0.00894751 0.00310853 -1.3792e-06 0.0111153 -0.000633846 0.000136343)
(-0.00437951 0.00694988 -0.000312931 0.00465196 -0.00027423 0.000292522)
(0.000632113 0.00700148 -0.000394013 -0.00247585 0.000118328 0.000566642)
(0.00511934 0.00316784 -0.000195611 -0.00890373 0.000488925 0.00078134)
(-0.00721759 0.00247249 4.95189e-05 0.00807248 -0.000673892 0.000547705)
(-0.00378766 0.00560419 -0.000203684 0.00356052 -0.000263036 0.000509382)
(-4.15795e-05 0.00569817 -0.000281399 -0.00140689 0.000180831 0.00056505)
(0.00317652 0.00262044 -0.000141008 -0.00573712 0.000610019 0.000581911)
(-0.00587209 0.00174092 8.4876e-05 0.00556484 -0.000636811 0.000961114)
(-0.00329452 0.00428146 -0.00012009 0.00262348 -0.000236483 0.000727385)
(-0.000566453 0.00445395 -0.000190438 -0.000582021 0.00019093 0.000566617)
(0.00164169 0.00206751 -9.40561e-05 -0.00314733 0.000624166 0.000378888)
(-0.00499834 0.000905513 8.52213e-05 0.00393888 -0.000530492 0.00133368)
(-0.00305556 0.00302326 -0.000100565 0.00191095 -0.000200598 0.000939456)
(-0.000981154 0.00324157 -0.000165316 7.58595e-06 0.000142577 0.000603164)
(0.000595229 0.0015023 -7.87045e-05 -0.00129625 0.000522693 0.000239823)
(-0.00518121 0.000605835 2.34708e-05 0.00307589 -0.000308459 0.00162007)
(-0.00384145 0.0018286 -0.000189449 0.00180055 -0.000124945 0.00113478)
(-0.00123805 0.0017762 -0.00028153 0.000432434 3.81477e-05 0.000708684)
(0.000275698 0.000780291 -0.00017102 -0.000435499 0.000243512 0.000252369)
(-0.00730769 0.0104543 -1.18049e-05 0.0243527 8.67673e-07 -7.92216e-05)
(-0.00237035 0.00911014 -0.000100182 0.00591409 -7.28408e-05 1.87241e-06)
(0.00112192 0.00854849 -0.00011927 -0.00533505 -0.000217644 0.000127209)
(0.00556637 0.00880035 -5.94836e-05 -0.0225784 -0.00031084 0.000223817)
(-0.0130431 0.00373585 -2.40442e-05 0.0164302 -0.000217787 -9.06308e-05)
(-0.00507247 0.00988714 -0.000222093 0.00690668 -0.000153076 6.65395e-05)
(0.00209324 0.00975786 -0.000267185 -0.00509747 -9.96432e-05 0.000318507)
(0.009794 0.00373864 -0.000132831 -0.0149035 -2.84918e-05 0.000509121)
(-0.0108815 0.00383196 -1.60256e-05 0.0145084 -0.000336839 0.000100895)
(-0.00511945 0.00833925 -0.000231157 0.005829 -0.000176138 0.000212176)
(0.00146035 0.00836304 -0.000282759 -0.00362139 -3.45254e-06 0.000419247)
(0.00727448 0.00382903 -0.000139851 -0.0123786 0.000166483 0.000565492)
(-0.00912974 0.00312286 7.26427e-06 0.011094 -0.000411568 0.000382733)
(-0.00450113 0.00698509 -0.000187935 0.00469421 -0.000181877 0.000388979)
(0.000606513 0.00704058 -0.000238382 -0.00237068 6.94097e-05 0.000477038)
(0.00517815 0.00318836 -0.000118755 -0.00873583 0.000307984 0.000516073)
(-0.00737171 0.00248671 3.5813e-05 0.00809467 -0.000437503 0.000711452)
(-0.00389836 0.00564105 -0.000126799 0.00361327 -0.000174181 0.000581252)
(-8.07376e-05 0.00574139 -0.000174426 -0.00132268 0.000112531 0.000515647)
(0.00319986 0.00264594 -8.68389e-05 -0.00561538 0.000388448 0.000414381)
(-0.00599568 0.00174774 5.53728e-05 0.00562313 -0.000419606 0.00104812)
(-0.00339258 0.00430957 -8.03961e-05 0.00268173 -0.000158765 0.000778853)
(-0.000619135 0.00449194 -0.000123002 -0.000520164 0.000121163 0.000559379)
(0.00162623 0.00209332 -5.95799e-05 -0.00306994 0.000402976 0.000311807)
(-0.00509307 0.000900214 5.12531e-05 0.00402568 -0.000357474 0.00136121)
(-0.00314511 0.00303884 -7.84842e-05 0.00197078 -0.000137358 0.000976881)
(-0.00105127 0.00326794 -0.000117818 5.10018e-05 9.01056e-05 0.000635261)
(0.000540298 0.00152469 -5.48171e-05 -0.00125109 0.000341157 0.000262103)
(-0.00526171 0.000604361 1.27929e-06 0.00317609 -0.00021379 0.00160638)
(-0.00394376 0.0018355 -0.000155719 0.00186988 -8.77265e-05 0.00116398)
(-0.0013426 0.00178153 -0.000213773 0.000471636 2.14432e-05 0.000774056)
(0.000181587 0.000788063 -0.000126225 -0.000413501 0.00015889 0.0003436)
(-0.00735198 0.0104488 -2.20738e-06 0.0243433 -3.84585e-05 1.26561e-06)
(-0.00239727 0.00907145 -4.68408e-05 0.00592892 -5.773e-05 3.19884e-05)
(0.0011182 0.00849569 -5.71097e-05 -0.00528897 -0.000113479 9.20171e-05)
(0.00557851 0.00875912 -2.8894e-05 -0.0224843 -0.00014205 0.00013337)
(-0.0131437 0.00372249 -5.13723e-06 0.0163809 -0.000136545 8.10866e-05)
(-0.00513637 0.00986654 -0.000107463 0.00692259 -9.30497e-05 0.000130377)
(0.00208369 0.00973437 -0.000132141 -0.00501785 -5.79949e-05 0.000245053)
(0.00982723 0.00372757 -6.65481e-05 -0.0147737 -1.02985e-05 0.000317773)
(-0.0109964 0.00383194 -2.41357e-06 0.0144778 -0.000194902 0.00027433)
(-0.00519463 0.00834388 -0.000116941 0.00585213 -0.00010256 0.000276475)
(0.00144625 0.0083694 -0.000145428 -0.00354228 -5.10864e-06 0.000348269)
(0.00731402 0.00383179 -7.24072e-05 -0.0122519 9.32153e-05 0.000374738)
(-0.00924072 0.00313054 8.32893e-06 0.0110847 -0.000232349 0.000527634)
(-0.00457523 0.00700588 -9.79557e-05 0.00472376 -0.000103927 0.000444104)
(0.000586753 0.00706421 -0.000125594 -0.00230017 3.58653e-05 0.000421934)
(0.00520641 0.00320101 -6.25764e-05 -0.00862754 0.000169791 0.000360012)
(-0.0074692 0.0024962 2.23493e-05 0.00810759 -0.00024636 0.000815401)
(-0.00396691 0.00566698 -6.80573e-05 0.00364775 -9.93276e-05 0.000624536)
(-0.00010707 0.00577155 -9.3928e-05 -0.00126514 6.06692e-05 0.000483268)
(0.00320998 0.00266328 -4.64165e-05 -0.00553252 0.000214873 0.00031047)
(-0.00607709 0.0017535 3.15732e-05 0.00565459 -0.000238462 0.00111247)
(-0.00345414 0.00433172 -4.59266e-05 0.00271804 -9.1434e-05 0.000812211)
(-0.000652364 0.00452025 -6.89182e-05 -0.000477206 6.60215e-05 0.000551874)
(0.00161547 0.00211134 -3.28597e-05 -0.00301321 0.000224414 0.000264174)
(-0.00515904 0.000898372 2.69323e-05 0.00407218 -0.000206312 0.00139411)
(-0.00320218 0.00305232 -4.99065e-05 0.00200694 -8.02524e-05 0.00100339)
(-0.00109395 0.00328772 -7.11831e-05 8.15541e-05 4.86815e-05 0.000650959)
(0.000508188 0.0015399 -3.27271e-05 -0.00121444 0.000191008 0.000265504)
(-0.00532163 0.000604313 -5.50918e-06 0.00323116 -0.000126217 0.00161759)
(-0.00400992 0.00184188 -0.000101144 0.00191203 -5.21177e-05 0.00118594)
(-0.00140479 0.00178584 -0.000133329 0.000500008 1.03397e-05 0.000806969)
(0.000128561 0.000792637 -7.76322e-05 -0.000391549 8.87981e-05 0.00038331)
(-0.00737099 0.0104435 2.20007e-09 0.0243362 -1.86642e-05 3.52945e-05)
(-0.00240954 0.00905058 -1.35345e-05 0.00593639 -2.13259e-05 4.45339e-05)
(0.0011156 0.00846802 -1.67673e-05 -0.00526543 -3.51634e-05 7.6275e-05)
(0.00558177 0.00873649 -8.55478e-06 -0.0224343 -4.05619e-05 9.39828e-05)
(-0.0131882 0.00371472 -2.841e-07 0.0163605 -4.64994e-05 0.000154887)
(-0.00516574 0.00985348 -3.17109e-05 0.00693185 -3.1228e-05 0.000157435)
(0.0020774 0.00971998 -3.95501e-05 -0.00497867 -1.90046e-05 0.000211737)
(0.00983845 0.00372122 -2.00578e-05 -0.0147121 -2.30199e-06 0.000233367)
(-0.0110488 0.00383068 3.20623e-07 0.0144658 -6.39278e-05 0.00035088)
(-0.00522963 0.00834374 -3.54212e-05 0.00586474 -3.37186e-05 0.000304495)
(0.00143794 0.00837019 -4.45108e-05 -0.00350321 -2.16145e-06 0.000315372)
(0.0073293 0.00383219 -2.22266e-05 -0.0121912 3.00874e-05 0.00028888)
(-0.00929254 0.00313354 3.38191e-06 0.0110816 -7.52371e-05 0.000593484)
(-0.00461012 0.00701475 -3.01898e-05 0.004739 -3.38383e-05 0.000468801)
(0.000576247 0.00707454 -3.89761e-05 -0.00226508 1.10277e-05 0.000395856)
(0.00521741 0.00320668 -1.94066e-05 -0.00857491 5.42646e-05 0.000288328)
(-0.00751565 0.00250055 7.53999e-06 0.00811366 -7.96319e-05 0.000864772)
(-0.00399946 0.00567937 -2.13477e-05 0.00366475 -3.23036e-05 0.000644642)
(-0.000120218 0.005786 -2.95394e-05 -0.00123622 1.9084e-05 0.000467417)
(0.00321341 0.00267157 -1.45301e-05 -0.00549108 6.87101e-05 0.000261261)
(-0.00611667 0.00175625 1.01656e-05 0.00566809 -7.74304e-05 0.00114553)
(-0.00348358 0.00434281 -1.49556e-05 0.00273532 -2.98912e-05 0.000828455)
(-0.000668357 0.00453423 -2.22096e-05 -0.00045539 2.08667e-05 0.000547452)
(0.0016099 0.00212009 -1.04988e-05 -0.00298368 7.19471e-05 0.000239864)
(-0.0051918 0.00089755 8.17449e-06 0.00409171 -6.7588e-05 0.00141398)
(-0.00322962 0.00305922 -1.71801e-05 0.00202375 -2.64377e-05 0.00101691)
(-0.00111401 0.00329738 -2.38913e-05 9.72476e-05 1.53037e-05 0.000657125)
(0.000493427 0.00154715 -1.09338e-05 -0.0011944 6.13682e-05 0.00026394)
(-0.00535191 0.000604647 -3.13093e-06 0.00325456 -4.21009e-05 0.00162842)
(-0.00404181 0.0018455 -3.50319e-05 0.00193175 -1.73369e-05 0.00119738)
(-0.00143373 0.00178779 -4.53251e-05 0.000514945 3.07748e-06 0.000820166)
(0.000104758 0.000794455 -2.62641e-05 -0.000378466 2.85204e-05 0.000396907)
)
;

boundaryField
{
    interface
    {
        type            calculated;
        value           nonuniform List<symmTensor> 
192
(
(-0.0237832 -1.08455e-05 0.000336914 0.0372992 0.00546868 -0.00319329)
(-0.0111982 7.6095e-06 0.000574527 0.0200217 -0.0017619 -0.00474877)
(-0.0120811 2.42043e-05 0.000692529 0.019249 -0.00109709 -0.00264713)
(-0.00950732 2.17064e-05 0.000759012 0.0141362 -0.00159909 -0.00140119)
(-0.00771415 -1.81771e-05 0.000797916 0.0100162 -0.00149889 -3.36449e-06)
(-0.00614142 -0.000108555 0.000809821 0.00648247 -0.00131537 0.00112451)
(-0.00529064 -0.000278806 0.000784152 0.00424924 -0.00104816 0.00203872)
(-0.00481951 -0.000540975 0.000689241 0.00290413 -0.000580605 0.00274716)
(-0.0241855 1.41437e-05 0.000244261 0.0366084 0.00339623 -0.00211003)
(-0.0130293 4.32316e-05 0.000419719 0.0215119 -0.00066229 -0.00372801)
(-0.0123276 6.47528e-05 0.000505416 0.0192657 -0.00165112 -0.00257914)
(-0.00996088 5.47968e-05 0.000552772 0.0142563 -0.00210819 -0.00117808)
(-0.00807632 -1.37901e-06 0.00057782 0.00995687 -0.00212427 0.000224858)
(-0.00656259 -0.000120175 0.00058092 0.00641262 -0.00188566 0.00143578)
(-0.00573267 -0.000337658 0.000555012 0.00419168 -0.00145639 0.00240116)
(-0.00519124 -0.000647524 0.000482531 0.00287831 -0.000808821 0.00313264)
(-0.0251259 2.15776e-05 0.000177017 0.0369985 0.00168167 -0.00123067)
(-0.0136221 5.56843e-05 0.000302942 0.0208684 -0.000435214 -0.00232848)
(-0.0127929 8.00664e-05 0.000359754 0.0190406 -0.00123705 -0.00179975)
(-0.0102197 6.6889e-05 0.000388259 0.0141984 -0.00165978 -0.00088728)
(-0.00816157 1.2972e-06 0.000401845 0.0100157 -0.00174142 0.000130982)
(-0.00653798 -0.000134294 0.000401263 0.00658284 -0.00158556 0.00106925)
(-0.00564678 -0.000376846 0.000383319 0.00448917 -0.00124345 0.0018437)
(-0.00492388 -0.000704368 0.000338239 0.00316433 -0.00066522 0.00239631)
(-0.0257291 2.31575e-05 0.000130423 0.0372074 0.000699825 -0.000636618)
(-0.0140953 5.92666e-05 0.000223623 0.0203734 -0.000376029 -0.00121749)
(-0.0132624 8.50405e-05 0.00026373 0.0187722 -0.000875931 -0.000922595)
(-0.0105803 7.00108e-05 0.000282315 0.0140973 -0.00117489 -0.000342725)
(-0.00840391 -1.53943e-06 0.000290583 0.0100577 -0.0012635 0.000354804)
(-0.00668413 -0.000147619 0.000289623 0.00674529 -0.00118248 0.00103448)
(-0.00572679 -0.000404978 0.00027831 0.0047649 -0.000959909 0.00161598)
(-0.0048991 -0.000740922 0.000249037 0.00345707 -0.000544514 0.00204307)
(-0.0260511 2.31369e-05 9.433e-05 0.0372727 0.00021148 -0.000291895)
(-0.0144083 5.97279e-05 0.000162413 0.020085 -0.000326853 -0.000527704)
(-0.0135967 8.5882e-05 0.000191068 0.0185855 -0.000615176 -0.00030173)
(-0.0108676 6.96518e-05 0.000203704 0.0140116 -0.000799328 0.000106765)
(-0.00862554 -5.64603e-06 0.000209205 0.0100756 -0.000866119 0.000603935)
(-0.00684184 -0.000158335 0.00020875 0.00684985 -0.00082898 0.00110603)
(-0.00583658 -0.000425119 0.000202018 0.00494467 -0.000695188 0.00155336)
(-0.00493107 -0.000766142 0.000182548 0.0036485 -0.000407966 0.00188433)
(-0.0262127 2.27239e-05 6.41382e-05 0.0372726 6.60154e-06 -0.00010049)
(-0.0146009 5.92181e-05 0.000110859 0.0199264 -0.00025548 -0.000127999)
(-0.0138149 8.53203e-05 0.000130372 0.0184774 -0.000412951 8.67414e-05)
(-0.0110679 6.82812e-05 0.000138777 0.0139582 -0.000517271 0.000414607)
(-0.00879251 -9.3446e-06 0.000142462 0.0100818 -0.000559729 0.000803614)
(-0.0069728 -0.000166182 0.000142435 0.00690772 -0.000544022 0.00120365)
(-0.00593943 -0.000439085 0.000138576 0.00504755 -0.000467693 0.00157212)
(-0.00499263 -0.000783378 0.000125902 0.00376446 -0.000283019 0.00184956)
(-0.026288 2.24238e-05 3.70513e-05 0.0372538 -4.49514e-05 -1.26442e-06)
(-0.0147083 5.86711e-05 6.42998e-05 0.0198438 -0.000162348 8.49785e-05)
(-0.0139425 8.45616e-05 7.56038e-05 0.0184217 -0.000239616 0.000303719)
(-0.01119 6.70077e-05 8.0419e-05 0.0139304 -0.00029188 0.00059629)
(-0.00889886 -1.19955e-05 8.25874e-05 0.0100841 -0.000314676 0.000932496)
(-0.00706052 -0.000171365 8.26929e-05 0.00693639 -0.000308675 0.00128042)
(-0.00601213 -0.000448064 8.04782e-05 0.00510018 -0.000269846 0.00160745)
(-0.00504375 -0.000793982 7.28019e-05 0.00382596 -0.000167377 0.00185681)
(-0.0263165 2.22036e-05 1.1995e-05 0.0372397 -2.23002e-05 4.05449e-05)
(-0.0147551 5.82133e-05 2.08889e-05 0.0198085 -5.56038e-05 0.000176198)
(-0.0139999 8.39518e-05 2.45424e-05 0.0183986 -7.87267e-05 0.000399189)
(-0.0112463 6.62288e-05 2.60874e-05 0.0139191 -9.45346e-05 0.000678756)
(-0.00894883 -1.33957e-05 2.68031e-05 0.0100849 -0.000101675 0.00099396)
(-0.00710275 -0.000174217 2.68527e-05 0.00694786 -0.000100181 0.00132063)
(-0.00604719 -0.00045306 2.60302e-05 0.00512136 -8.84243e-05 0.00163042)
(-0.00506867 -0.000798191 2.32508e-05 0.00385111 -5.59486e-05 0.00186825)
(-0.00661152 0.00771684 -0.000378348 0.0254564 -9.76955e-05 -0.0130161)
(-0.0117765 0.00352677 -0.000645413 0.0142363 -0.000150713 -0.00192631)
(-0.0101003 0.00485076 -0.000777348 0.0146744 -0.000154621 -0.00318716)
(-0.00884147 0.00440804 -0.000865171 0.0109435 -0.000135727 -0.00142547)
(-0.00733484 0.00394996 -0.000940174 0.00802026 -0.000125435 -0.000404434)
(-0.00615378 0.00313083 -0.00101175 0.00540235 -0.000139619 0.00059521)
(-0.00539714 0.00211872 -0.0010971 0.00367095 -0.000181297 0.00125176)
(-0.00567594 0.00118172 -0.00125647 0.00268387 -0.000229868 0.00206156)
(-0.00239869 0.00608725 -0.000234946 0.00604853 -7.57266e-05 -0.00282908)
(-0.00512586 0.00916923 -0.000425379 0.00539575 -0.000139904 -0.000511983)
(-0.00537074 0.00974505 -0.000501722 0.00547574 -0.000165344 -0.000315973)
(-0.00495483 0.00916575 -0.000541404 0.00432787 -0.000150644 0.000244306)
(-0.00443791 0.00808679 -0.000574913 0.00332181 -0.000123955 0.000619821)
(-0.00397767 0.00660112 -0.000616887 0.00239129 -0.000104398 0.00096009)
(-0.00371849 0.00489119 -0.00069101 0.00173291 -9.8874e-05 0.001234)
(-0.00438209 0.0027809 -0.000884991 0.00157292 -9.13375e-05 0.00178752)
(0.0012474 0.00551528 -0.00017743 -0.00744578 -4.98647e-05 0.00377388)
(0.00230381 0.00888128 -0.000348303 -0.00424363 -0.000113944 0.00095199)
(0.00165607 0.00971501 -0.000420661 -0.00396345 -0.000151101 0.00124922)
(0.000910346 0.0092032 -0.000453445 -0.00277306 -0.000145152 0.00100206)
(0.000286268 0.00817188 -0.000476618 -0.00186539 -0.000117383 0.000846556)
(-0.000176818 0.00675139 -0.000508474 -0.00110501 -8.73696e-05 0.000665397)
(-0.000520522 0.00505013 -0.000574105 -0.000532823 -6.40715e-05 0.000516584)
(-0.000524618 0.00271759 -0.000758718 3.66222e-05 -4.10033e-05 0.000143312)
(0.00520685 0.00626213 -0.000165446 -0.0257405 -4.11737e-05 0.0133807)
(0.00900627 0.00323852 -0.00034713 -0.0131254 -0.000106548 0.00243512)
(0.00677278 0.00484651 -0.000432576 -0.0132413 -0.000147464 0.00404272)
(0.00517438 0.00448899 -0.000473413 -0.00939458 -0.000146174 0.00258338)
(0.0034895 0.00410264 -0.000498773 -0.0064508 -0.000119432 0.00177158)
(0.00220029 0.00340635 -0.000529947 -0.00386449 -8.55165e-05 0.000921723)
(0.00136274 0.00252514 -0.000591674 -0.00204428 -4.99793e-05 0.000272662)
(0.00131664 0.00124591 -0.000761095 -0.000911276 -5.03847e-06 -0.000449499)
(0.0212993 3.72604e-05 3.87986e-05 -0.0356801 -0.00666719 0.00345604)
(0.00897707 8.26739e-05 7.1517e-05 -0.0192354 0.00117362 0.00554786)
(0.00927423 0.000113035 7.47735e-05 -0.0179388 0.000678133 0.0038722)
(0.00638089 0.0001157 7.11269e-05 -0.0125983 0.00130153 0.00292253)
(0.00435986 0.000101254 7.4509e-05 -0.00834073 0.00130843 0.00173546)
(0.00262386 8.02506e-05 9.06283e-05 -0.00469042 0.00122694 0.000728798)
(0.00153082 4.64005e-05 0.000121212 -0.00212984 0.000976297 -0.000123089)
(0.00126047 -0.000104728 0.000158966 -0.000850868 0.00038068 -0.000791111)
(0.021005 1.6103e-05 -1.06948e-05 -0.0342658 -0.00453703 0.00243667)
(0.0105597 4.3964e-05 -1.61351e-05 -0.0208114 -0.000105817 0.0046521)
(0.00912672 6.7548e-05 -2.53653e-05 -0.0179116 0.0011558 0.0039234)
(0.00637343 7.67057e-05 -3.2237e-05 -0.0126305 0.00181866 0.00279569)
(0.00420646 7.55985e-05 -3.06642e-05 -0.00814212 0.00199805 0.00158161)
(0.00247054 7.21178e-05 -1.94144e-05 -0.00441774 0.00188599 0.000491539)
(0.00134387 6.11629e-05 -7.47188e-07 -0.00178459 0.0015005 -0.000385859)
(0.00113733 -6.49829e-05 1.87941e-05 -0.000601836 0.000742666 -0.00104274)
(0.021727 6.81239e-06 -1.89654e-05 -0.0344102 -0.00255209 0.00147273)
(0.0111102 2.58168e-05 -2.9304e-05 -0.020014 -0.000163843 0.00299002)
(0.00957036 4.66679e-05 -3.44306e-05 -0.0174738 0.000828172 0.00276804)
(0.00662679 6.08729e-05 -3.57417e-05 -0.0123656 0.00142708 0.00208955)
(0.00427121 6.96872e-05 -3.08187e-05 -0.00797329 0.00165864 0.00125086)
(0.00239707 7.81459e-05 -1.99899e-05 -0.00433656 0.0016157 0.000457309)
(0.00115838 7.89452e-05 -7.3452e-06 -0.00177142 0.00132618 -0.000179181)
(0.0007737 -2.46662e-05 -1.51393e-06 -0.000605727 0.000653879 -0.000563461)
(0.0221316 3.20395e-06 -1.78285e-05 -0.0344011 -0.00135219 0.000838569)
(0.0114934 1.78585e-05 -2.74381e-05 -0.0193848 -7.98106e-05 0.00176393)
(0.00992485 3.74777e-05 -2.9553e-05 -0.0169968 0.0005602 0.001732)
(0.00686738 5.54465e-05 -2.76544e-05 -0.0120454 0.000992539 0.00137738)
(0.00437696 7.14541e-05 -2.14716e-05 -0.00778641 0.00119988 0.000873761)
(0.00238425 8.82169e-05 -1.23593e-05 -0.00425804 0.00120703 0.000368973)
(0.00103582 9.69222e-05 -4.44005e-06 -0.00176059 0.00102118 -3.14926e-05)
(0.000540657 7.41366e-06 -4.1673e-06 -0.00063869 0.000515914 -0.000211522)
(0.0222848 1.76809e-06 -1.40247e-05 -0.0342715 -0.000684801 0.000465589)
(0.0117187 1.45749e-05 -2.15243e-05 -0.0189812 -1.4281e-05 0.00100746)
(0.0101404 3.40848e-05 -2.19651e-05 -0.0166366 0.000379568 0.00103126)
(0.00702424 5.4962e-05 -1.89372e-05 -0.0117705 0.000661116 0.000848515)
(0.00445502 7.59525e-05 -1.32018e-05 -0.00760886 0.000814002 0.000561007)
(0.00238123 9.80236e-05 -6.47196e-06 -0.00416363 0.000838194 0.000263113)
(0.0009523 0.000111324 -2.26217e-06 -0.0017194 0.000724918 3.82378e-05)
(0.000385421 3.07927e-05 -5.22682e-06 -0.000637857 0.000369858 1.13739e-06)
(0.0223158 1.29137e-06 -9.60251e-06 -0.0341167 -0.000327489 0.000254913)
(0.0118377 1.35532e-05 -1.46353e-05 -0.0187295 1.62446e-05 0.000567568)
(0.0102584 3.35095e-05 -1.43009e-05 -0.0163947 0.000248301 0.000601791)
(0.00711313 5.64953e-05 -1.14332e-05 -0.0115714 0.000419272 0.000505166)
(0.00450007 8.06613e-05 -7.04659e-06 -0.00746645 0.000518775 0.000340677)
(0.00237811 0.000105823 -2.67174e-06 -0.00407477 0.000541318 0.000169971)
(0.000899095 0.000121554 -8.62456e-07 -0.001667 0.000474705 5.71595e-05)