/*--------------------------------*- C++ -*----------------------------------*\
| =========                 |                                                 |
| \\      /  F ield         | foam-extend: Open Source CFD                    |
|  \\    /   O peration     | Version:     3.1                                |
|   \\  /    A nd           | Web:         http://www.extend-project.de       |
|    \\/     M anipulation  |                                                 |
\*---------------------------------------------------------------------------*/
FoamFile
{
    version     2.0;
    format      ascii;
    class       pointVectorField;
    location    "3.6";
    object      pointD;
}
// * * * * * * * * * * * * * * * * * * * * * * * * * * * * * * * * * * * * * //

dimensions      [0 1 0 0 0 0 0];

internalField   nonuniform List<vector> 
405
(
(0 0 0)
(0 0 0)
(0 0 0)
(0 0 0)
(0 0 0)
(0.000870638 0.000920958 0.000376705)
(0.000535041 0.000313135 0.000234852)
(0.000413166 -2.09928e-05 -2.49623e-05)
(0.000473626 -0.000361629 -0.00029196)
(0.000729424 -0.000963033 -0.000457417)
(0.00174441 0.00135663 0.00024559)
(0.0014669 0.000551655 0.000148618)
(0.0013214 -2.42574e-05 -4.77543e-05)
(0.00136528 -0.000603544 -0.000257637)
(0.0015372 -0.00141112 -0.000394616)
(0.00292073 0.00180367 0.000128193)
(0.00265653 0.000777453 7.18292e-05)
(0.00251226 -3.35057e-05 -7.11171e-05)
(0.00253036 -0.00084862 -0.000228096)
(0.00266155 -0.00188579 -0.000331071)
(0.00424987 0.00211613 -2.72546e-05)
(0.0040209 0.00093677 -2.24787e-05)
(0.0038838 -5.16122e-05 -9.19619e-05)
(0.00387799 -0.00104357 -0.000176116)
(0.00395526 -0.00223355 -0.000220998)
(0.00568524 0.00232627 -0.00017445)
(0.00548489 0.00104203 -0.000111274)
(0.00535491 -7.71138e-05 -0.000111699)
(0.00533032 -0.00119713 -0.000126454)
(0.00536592 -0.00248639 -0.000112931)
(0.0071624 0.00244768 -0.000303303)
(0.00698412 0.00110139 -0.000190608)
(0.00686035 -0.000107296 -0.000132429)
(0.00682199 -0.00131224 -8.61432e-05)
(0.00682717 -0.00265268 -1.90509e-05)
(0.00864231 0.00251461 -0.000407862)
(0.00847425 0.00112939 -0.000261133)
(0.00834993 -0.000137532 -0.000157022)
(0.00830125 -0.00139692 -6.15758e-05)
(0.00829096 -0.00275727 4.64412e-05)
(0.0101209 0.00254678 -0.000478078)
(0.0099252 0.00114542 -0.000314687)
(0.00976303 -0.000157004 -0.000182737)
(0.00971946 -0.00145585 -6.04266e-05)
(0.00972053 -0.00282517 6.5672e-05)
(0 0 0)
(0 0 0)
(0 0 0)
(0 0 0)
(0 0 0)
(0.000938496 0.00087548 0.000216718)
(0.000616574 0.000278949 0.000134378)
(0.000518514 -1.00423e-05 -1.98222e-05)
(0.000566851 -0.000298176 -0.000182637)
(0.000811389 -0.000884352 -0.000285041)
(0.00181461 0.00140071 0.00016738)
(0.00155572 0.000587204 9.82147e-05)
(0.00143926 -1.56948e-05 -4.12615e-05)
(0.00147118 -0.000618765 -0.000192059)
(0.00163165 -0.00143454 -0.000290703)
(0.00294809 0.00185421 7.36853e-05)
(0.00270728 0.000820903 3.72251e-05)
(0.00259275 -2.44687e-05 -6.08472e-05)
(0.00260104 -0.000871796 -0.000171118)
(0.00271778 -0.00191491 -0.000242)
(0.00423023 0.00217562 -4.29773e-05)
(0.00402239 0.000987816 -3.40023e-05)
(0.00391312 -4.00292e-05 -7.9025e-05)
(0.00390035 -0.00106976 -0.000136826)
(0.00396601 -0.00226694 -0.000164239)
(0.00561466 0.00238433 -0.000159116)
(0.00543392 0.00109344 -0.000104396)
(0.00533006 -6.1343e-05 -9.6815e-05)
(0.00530066 -0.00121604 -0.00010173)
(0.00532642 -0.00251074 -8.30337e-05)
(0.00704634 0.00250132 -0.000262916)
(0.00688555 0.00115049 -0.00016853)
(0.00678582 -8.63223e-05 -0.000115963)
(0.00674429 -0.00131918 -7.41791e-05)
(0.00674139 -0.00266299 -1.269e-05)
(0.00848957 0.00256088 -0.000347237)
(0.00833658 0.00117274 -0.000224824)
(0.00823381 -0.00011183 -0.000138689)
(0.00818418 -0.00138833 -6.12712e-05)
(0.00816807 -0.00274893 3.34899e-05)
(0.00995094 0.00258729 -0.000402647)
(0.00976922 0.00118364 -0.000267108)
(0.00962718 -0.000129256 -0.000162992)
(0.00958263 -0.00143714 -6.9652e-05)
(0.00957818 -0.00280437 3.83395e-05)
(0 0 0)
(0 0 0)
(0 0 0)
(0 0 0)
(0 0 0)
(0.000988616 0.000885708 0.000111078)
(0.000648442 0.000279593 6.71622e-05)
(0.000544219 -5.93901e-06 -1.74921e-05)
(0.000596436 -0.000290638 -0.00010832)
(0.000852582 -0.000890125 -0.000163374)
(0.00186998 0.00139444 8.61589e-05)
(0.00159452 0.000589797 4.57117e-05)
(0.00147115 -8.80911e-06 -3.61362e-05)
(0.00150925 -0.000608213 -0.000125364)
(0.00168361 -0.00141943 -0.000180392)
(0.00297974 0.00184548 2.57048e-05)
(0.00273246 0.000828506 4.03115e-06)
(0.00261532 -1.5248e-05 -5.34685e-05)
(0.00262557 -0.000861383 -0.000118656)
(0.00274656 -0.00188992 -0.000156605)
(0.00423274 0.00216809 -5.39497e-05)
(0.00402102 0.000998885 -4.70754e-05)
(0.0039106 -2.7729e-05 -6.97754e-05)
(0.00389801 -0.00105628 -0.000100334)
(0.00396523 -0.00223529 -0.000110084)
(0.00558344 0.00238024 -0.000136911)
(0.00540102 0.00110794 -9.94031e-05)
(0.00529706 -4.55326e-05 -8.5941e-05)
(0.00526642 -0.00119837 -7.99681e-05)
(0.00529102 -0.00247325 -5.82316e-05)
(0.00698283 0.00250284 -0.000213473)
(0.00682144 0.00116792 -0.000148312)
(0.00672248 -6.70121e-05 -0.000103404)
(0.00667875 -0.00129652 -6.47725e-05)
(0.00667279 -0.00262114 -1.30922e-05)
(0.00839844 0.00257075 -0.000277006)
(0.00824621 0.00119257 -0.000191483)
(0.00814495 -8.96473e-05 -0.00012397)
(0.00809232 -0.00136096 -6.14889e-05)
(0.00807136 -0.00270459 1.42477e-05)
(0.00984478 0.00260358 -0.000316885)
(0.00966492 0.00120515 -0.000222832)
(0.0095239 -0.000105037 -0.000146665)
(0.00947289 -0.00140595 -7.83404e-05)
(0.00946063 -0.00275773 4.87493e-06)
(0 0 0)
(0 0 0)
(0 0 0)
(0 0 0)
(0 0 0)
(0.0010132 0.000892276 4.95001e-05)
(0.000658745 0.000280306 2.94361e-05)
(0.000547721 -3.64254e-06 -1.50405e-05)
(0.000602249 -0.000287091 -6.32635e-05)
(0.000867935 -0.000892403 -8.97938e-05)
(0.00189579 0.00138578 3.11515e-05)
(0.00160732 0.000587786 1.3352e-05)
(0.00147583 -3.59874e-06 -3.06866e-05)
(0.00151693 -0.000596282 -7.90914e-05)
(0.00170105 -0.0014023 -0.000104707)
(0.00299505 0.00182986 -9.37938e-06)
(0.00273795 0.000826591 -1.59981e-05)
(0.00261414 -7.01037e-06 -4.54993e-05)
(0.00262582 -0.000843347 -7.92965e-05)
(0.00275398 -0.00185888 -9.4109e-05)
(0.00422992 0.00215095 -6.32616e-05)
(0.00401189 0.000998668 -5.22878e-05)
(0.00389619 -1.6259e-05 -5.96448e-05)
(0.00388345 -0.0010331 -7.12048e-05)
(0.00395455 -0.00219501 -6.82623e-05)
(0.00555917 0.00236574 -0.000121068)
(0.00537321 0.00111093 -9.03005e-05)
(0.00526505 -3.07188e-05 -7.38261e-05)
(0.00523302 -0.00117112 -6.11716e-05)
(0.0052586 -0.00242716 -3.76422e-05)
(0.00693695 0.00249436 -0.000175936)
(0.00677397 0.00117508 -0.00012671)
(0.00667177 -4.90124e-05 -8.92099e-05)
(0.00662566 -0.0012662 -5.46608e-05)
(0.00661817 -0.00257215 -1.09874e-05)
(0.0083333 0.00257151 -0.000222567)
(0.00818142 0.00120444 -0.00015932)
(0.00807753 -6.88546e-05 -0.00010727)
(0.00802121 -0.00132853 -5.74223e-05)
(0.00799596 -0.00265464 2.91611e-06)
(0.00976784 0.0026138 -0.000251855)
(0.00958928 0.00122234 -0.000183349)
(0.00944457 -8.1553e-05 -0.000127819)
(0.00938636 -0.00137241 -7.69084e-05)
(0.00936659 -0.00270808 -1.2361e-05)
(0 0 0)
(0 0 0)
(0 0 0)
(0 0 0)
(0 0 0)
(0.0010239 0.000894623 1.76578e-05)
(0.000660247 0.000280586 1.00114e-05)
(0.000544597 -1.95208e-06 -1.21374e-05)
(0.0005999 -0.000283963 -3.64449e-05)
(0.000870898 -0.000889842 -4.78831e-05)
(0.0019056 0.00137908 2.07755e-06)
(0.00160768 0.000585971 -3.07043e-06)
(0.0014704 6.83369e-07 -2.47188e-05)
(0.00151238 -0.000585915 -4.89405e-05)
(0.00170241 -0.00138705 -5.85021e-05)
(0.00299835 0.00181773 -2.64618e-05)
(0.00273293 0.000824096 -2.42202e-05)
(0.00260383 1.27513e-07 -3.67734e-05)
(0.00261579 -0.000826575 -5.17189e-05)
(0.00274882 -0.00183252 -5.3806e-05)
(0.00422221 0.00213686 -6.33254e-05)
(0.00399787 0.000997045 -4.99548e-05)
(0.00387768 -6.17224e-06 -4.84294e-05)
(0.00386446 -0.00101111 -4.91276e-05)
(0.00393857 -0.00216022 -3.97856e-05)
(0.00553803 0.00235304 -0.000103283)
(0.00534765 0.0011116 -7.72163e-05)
(0.00523578 -1.77037e-05 -6.02484e-05)
(0.00520256 -0.00114525 -4.51835e-05)
(0.00522921 -0.00238684 -2.25269e-05)
(0.00690166 0.00248576 -0.000142061)
(0.0067358 0.0011791 -0.000103847)
(0.00663056 -3.32631e-05 -7.31403e-05)
(0.00658257 -0.00123767 -4.37377e-05)
(0.00657427 -0.00252874 -7.78128e-06)
(0.00828475 0.00256929 -0.00017578)
(0.00813132 0.00121237 -0.000128076)
(0.00802467 -5.06451e-05 -8.82174e-05)
(0.00796545 -0.00129831 -4.92292e-05)
(0.00793741 -0.00260967 -2.04774e-06)
(0.00970986 0.00261797 -0.000196706)
(0.00953009 0.0012345 -0.000145921)
(0.00938152 -6.08092e-05 -0.000105436)
(0.00931794 -0.00134107 -6.76281e-05)
(0.00929329 -0.00266263 -1.823e-05)
(0 0 0)
(0 0 0)
(0 0 0)
(0 0 0)
(0 0 0)
(0.00102785 0.000894887 3.0608e-06)
(0.000658818 0.000280699 1.20574e-06)
(0.000540247 -6.17934e-07 -9.04482e-06)
(0.000595616 -0.000281263 -2.05033e-05)
(0.000869066 -0.000885581 -2.46092e-05)
(0.00190758 0.00137435 -9.71814e-06)
(0.00160356 0.00058498 -9.0802e-06)
(0.00146248 4.16395e-06 -1.85113e-05)
(0.00150448 -0.000577809 -2.94555e-05)
(0.00169771 -0.00137473 -3.14313e-05)
(0.0029956 0.00180976 -2.97564e-05)
(0.00272442 0.000822717 -2.40421e-05)
(0.00259167 5.97994e-06 -2.76634e-05)
(0.00260342 -0.000813376 -3.26263e-05)
(0.0027392 -0.00181249 -2.93526e-05)
(0.0042124 0.00212754 -5.46974e-05)
(0.0039833 0.000996256 -4.18412e-05)
(0.00385991 2.08484e-06 -3.65979e-05)
(0.00384615 -0.000993612 -3.25419e-05)
(0.00392207 -0.00213382 -2.18596e-05)
(0.00551965 0.00234442 -8.17342e-05)
(0.00532563 0.00111237 -6.07735e-05)
(0.00521104 -7.11927e-06 -4.57441e-05)
(0.00517692 -0.00112446 -3.16696e-05)
(0.00520426 -0.00235586 -1.24605e-05)
(0.00687395 0.00247956 -0.000108362)
(0.00670544 0.00118214 -7.95212e-05)
(0.00659793 -2.05519e-05 -5.5765e-05)
(0.00654864 -0.00121457 -3.25765e-05)
(0.00653984 -0.00249479 -4.77116e-06)
(0.00824772 0.00256694 -0.000131914)
(0.00809252 0.00121809 -9.67772e-05)
(0.00798374 -3.60308e-05 -6.74238e-05)
(0.00792256 -0.0012737 -3.84022e-05)
(0.00789278 -0.00257385 -3.25718e-06)
(0.00966537 0.00261975 -0.000146511)
(0.00948387 0.00124326 -0.000109544)
(0.00933226 -4.41488e-05 -8.06543e-05)
(0.00926519 -0.00131532 -5.33925e-05)
(0.00923755 -0.00262585 -1.71172e-05)
(0 0 0)
(0 0 0)
(0 0 0)
(0 0 0)
(0 0 0)
(0.00102895 0.000894422 -1.96398e-06)
(0.000656934 0.000280763 -1.69196e-06)
(0.000536606 3.67333e-07 -5.96004e-06)
(0.000591797 -0.000279209 -1.08683e-05)
(0.000866202 -0.000881606 -1.18655e-05)
(0.00190666 0.00137124 -1.10938e-05)
(0.00159897 0.000584574 -8.8458e-06)
(0.00145553 6.75029e-06 -1.22806e-05)
(0.00149729 -0.000572065 -1.65635e-05)
(0.0016921 -0.00136578 -1.58072e-05)
(0.00299125 0.00180494 -2.40448e-05)
(0.00271643 0.000822234 -1.85255e-05)
(0.00258137 1.03221e-05 -1.84344e-05)
(0.00259279 -0.000804085 -1.90707e-05)
(0.00273 -0.00179858 -1.49037e-05)
(0.00420349 0.00212201 -3.96858e-05)
(0.00397122 0.000996236 -2.98212e-05)
(0.00384576 8.17912e-06 -2.44836e-05)
(0.00383153 -0.000981247 -1.97659e-05)
(0.00390843 -0.00211565 -1.10721e-05)
(0.00550532 0.00233925 -5.65877e-05)
(0.00530874 0.00111336 -4.18456e-05)
(0.00519237 6.38074e-07 -3.07181e-05)
(0.00515762 -0.00110967 -2.00652e-05)
(0.00518532 -0.00233437 -6.2434e-06)
(0.0068536 0.00247571 -7.33749e-05)
(0.00668311 0.00118455 -5.38529e-05)
(0.00657408 -1.13023e-05 -3.75677e-05)
(0.00652396 -0.00119802 -2.1531e-05)
(0.00651485 -0.00247096 -2.53026e-06)
(0.00822112 0.00256523 -8.83784e-05)
(0.00806443 0.00122215 -6.49868e-05)
(0.00795419 -2.54565e-05 -4.54967e-05)
(0.0078918 -0.00125594 -2.614e-05)
(0.00786104 -0.00254835 -2.6967e-06)
(0.00963342 0.00262043 -9.76876e-05)
(0.00945033 0.00124922 -7.3256e-05)
(0.00929661 -3.21257e-05 -5.44157e-05)
(0.00922743 -0.00129657 -3.65515e-05)
(0.00919813 -0.00259929 -1.25634e-05)
(0 0 0)
(0 0 0)
(0 0 0)
(0 0 0)
(0 0 0)
(0.00102906 0.000893931 -2.0272e-06)
(0.000655572 0.0002808 -1.50219e-06)
(0.000534311 9.73142e-07 -2.9511e-06)
(0.00058932 -0.000277935 -4.6761e-06)
(0.000864017 -0.000878927 -4.72172e-06)
(0.00190534 0.00136947 -6.78193e-06)
(0.00159572 0.000584454 -5.17612e-06)
(0.00145101 8.3418e-06 -6.1128e-06)
(0.00149254 -0.000568647 -7.4313e-06)
(0.00168805 -0.00136037 -6.50469e-06)
(0.00298783 0.00180238 -1.31735e-05)
(0.00271103 0.000822162 -9.95016e-06)
(0.0025747 1.29879e-05 -9.20555e-06)
(0.00258586 -0.000798597 -8.78215e-06)
(0.00272374 -0.0017904 -6.16508e-06)
(0.00419744 0.00211915 -2.07527e-05)
(0.0039634 0.000996476 -1.54542e-05)
(0.00383678 1.19048e-05 -1.22586e-05)
(0.00382225 -0.00097394 -9.33067e-06)
(0.0038996 -0.00210504 -4.54965e-06)
(0.0054962 0.00233658 -2.89203e-05)
(0.00529816 0.00111417 -2.13119e-05)
(0.00518078 5.35632e-06 -1.54177e-05)
(0.00514567 -0.00110089 -9.7224e-06)
(0.00517352 -0.0023218 -2.51816e-06)
(0.00684106 0.00247367 -3.7067e-05)
(0.00666939 0.00118613 -2.71871e-05)
(0.0065595 -5.70406e-06 -1.8893e-05)
(0.00650893 -0.00118816 -1.06951e-05)
(0.00649965 -0.00245692 -1.04512e-06)
(0.00820493 0.00256422 -4.43868e-05)
(0.00804731 0.0012246 -3.26555e-05)
(0.00793624 -1.90802e-05 -2.29012e-05)
(0.0078732 -0.0012453 -1.31986e-05)
(0.00784195 -0.00253319 -1.44776e-06)
(0.00961397 0.00262059 -4.89372e-05)
(0.00942989 0.00125269 -3.67274e-05)
(0.00927497 -2.48839e-05 -2.73786e-05)
(0.00920466 -0.00128526 -1.85002e-05)
(0.00917452 -0.00258338 -6.53077e-06)
(0 0 0)
(0 0 0)
(0 0 0)
(0 0 0)
(0 0 0)
(0.00102901 0.000893737 -0)
(0.000655088 0.000280813 -0)
(0.000533536 1.17749e-06 -0)
(0.000588472 -0.000277504 0)
(0.000863225 -0.000877992 0)
(0.00190478 0.00136889 -0)
(0.00159457 0.000584434 0)
(0.00144946 8.87861e-06 -0)
(0.0014909 -0.000567513 0)
(0.0016866 -0.00135856 0)
(0.00298655 0.00180158 -0)
(0.00270914 0.000822174 0)
(0.0025724 1.38859e-05 0)
(0.00258348 -0.000796784 0)
(0.00272154 -0.0017877 0)
(0.0041953 0.00211826 -0)
(0.0039607 0.000996599 0)
(0.00383372 1.31572e-05 -0)
(0.00381908 -0.000971527 0)
(0.00389656 -0.00210156 0)
(0.00549307 0.00233576 -0)
(0.00529455 0.00111448 0)
(0.00517685 6.93842e-06 0)
(0.00514162 -0.00109799 0)
(0.00516952 -0.00231767 0)
(0.00683681 0.00247303 -0)
(0.00666476 0.00118667 0)
(0.00655459 -3.83112e-06 0)
(0.00650388 -0.00118489 0)
(0.00649454 -0.00245229 0)
(0.00819946 0.00256388 -0)
(0.00804154 0.00122542 0)
(0.00793021 -1.69497e-05 0)
(0.00786697 -0.00124176 0)
(0.00783557 -0.00252817 0)
(0.0096074 0.00262058 -0)
(0.009423 0.00125382 -0)
(0.00926771 -2.24622e-05 0)
(0.00919704 -0.00128149 0)
(0.00916664 -0.00257809 0)
)
;

boundaryField
{
    interface
    {
        type            calculated;
    }
    symmetry
    {
        type            symmetryPlane;
    }
    bottom
    {
        type            fixedValue;
        value           uniform (0 0 0);
    }
}


// ************************************************************************* //
