/*--------------------------------*- C++ -*----------------------------------*\
| =========                 |                                                 |
| \\      /  F ield         | foam-extend: Open Source CFD                    |
|  \\    /   O peration     | Version:     3.1                                |
|   \\  /    A nd           | Web:         http://www.extend-project.de       |
|    \\/     M anipulation  |                                                 |
\*---------------------------------------------------------------------------*/
FoamFile
{
    version     2.0;
    format      ascii;
    class       volSymmTensorField;
    location    "3.6";
    object      sigma;
}
// * * * * * * * * * * * * * * * * * * * * * * * * * * * * * * * * * * * * * //

dimensions      [1 -1 -2 0 0 0 0];

internalField   nonuniform List<symmTensor> 
256
(
(176.25 60.9287 -2.65145 398.633 31.5358 203.955)
(23.4853 51.8127 -8.10726 80.7526 10.8808 32.184)
(-55.0385 48.2897 -8.28507 -110.711 -15.7918 -54.8244)
(-198.456 51.4164 -3.36564 -408.744 -38.4783 -214.645)
(-74.5832 25.4801 -3.00301 120.506 -10.3765 -20.4149)
(-31.8572 66.8491 -12.7689 44.541 -4.67303 -8.76359)
(-1.43121 65.3939 -13.2175 -52.0299 2.26071 -2.6222)
(39.7826 24.4669 -4.64311 -129.283 7.0411 9.49646)
(-27.2911 31.2656 -1.07587 147.429 -5.75396 26.3495)
(-33.0763 64.805 -8.68061 40.49 -2.41952 -3.79496)
(-7.15066 64.7808 -9.03259 -46.5687 0.151696 -7.47562)
(-6.74338 31.4664 -2.79476 -149.058 3.15639 -30.6593)
(-38.502 27.5742 -1.02281 100.427 -8.12442 13.1636)
(-34.1416 59.3455 -7.08722 28.2353 -2.86982 -4.63459)
(-6.94882 59.6665 -7.34929 -32.6373 1.05396 -3.85881)
(4.06221 28.2092 -2.89691 -99.041 6.15783 -13.7333)
(-35.488 24.0987 -0.635003 70.7362 -7.46684 13.6299)
(-32.3844 51.3892 -5.63338 18.8632 -2.47622 -3.08119)
(-8.50905 51.9619 -5.85178 -22.877 1.05098 -3.36659)
(1.16092 25.1272 -2.54162 -67.616 6.08564 -11.4978)
(-36.2522 18.7618 -0.70241 42.7391 -6.54207 11.1451)
(-31.4828 41.5177 -4.8669 10.0212 -2.17273 -2.51182)
(-9.28433 42.4643 -4.94739 -14.7463 0.953029 -2.78473)
(1.5572 20.559 -2.45285 -39.0684 5.66265 -7.67845)
(-35.7758 12.2834 -1.25813 25.4061 -5.46891 11.9507)
(-32.1003 30.5357 -4.66546 3.02349 -2.15303 -2.20697)
(-10.1452 31.5362 -4.50247 -8.99119 0.564658 -2.8712)
(2.19457 15.0763 -2.56925 -19.0485 4.47868 -6.09236)
(-47.2314 7.08782 -1.86004 9.4946 -3.19122 7.12805)
(-45.374 17.6038 -4.38776 -6.26495 -1.50272 -8.29358)
(-5.11789 17.0443 -4.30158 -0.344638 -0.181614 0.862306)
(8.77946 7.494 -3.05037 -4.85854 1.56362 -3.21455)
(178.204 69.2779 -1.5973 396.173 19.3629 212.484)
(29.4569 62.3217 -6.47397 84.557 6.07973 39.1208)
(-49.587 59.2758 -7.0914 -98.174 -11.2757 -51.4352)
(-190.404 60.1762 -3.09486 -390.529 -26.3248 -212.753)
(-42.4702 26.1436 -2.18918 163.368 -4.20472 17.7637)
(-9.58017 68.9277 -11.865 69.4072 -2.80308 12.7191)
(-21.0294 68.1274 -13.1948 -75.6809 -1.18453 -23.8181)
(7.09138 26.1864 -5.38985 -173.036 -0.600136 -28.9959)
(-21.3915 27.4246 -0.634157 152.842 -9.08167 31.1249)
(-21.63 59.3651 -9.26795 49.1884 -3.84394 3.71413)
(-12.5567 59.538 -10.7122 -51.7154 1.17558 -12.5265)
(-9.98753 27.6929 -4.33688 -152.326 5.96173 -33.3775)
(-28.0119 22.92 0.538921 109.493 -11.1749 22.0775)
(-21.9428 51.4624 -6.46712 37.0633 -4.07734 3.08656)
(-11.9935 51.8232 -7.98423 -36.9493 2.34142 -9.01134)
(-3.27832 23.4902 -3.55452 -105.245 9.26741 -20.5282)
(-27.6941 18.9855 1.60347 75.8321 -11.1167 19.5725)
(-21.8128 42.8824 -4.2328 25.6001 -3.8152 2.72325)
(-11.1832 43.422 -5.78519 -24.1605 2.73454 -6.29225)
(-3.18085 19.9018 -2.66302 -69.1742 10.1546 -15.2037)
(-28.5687 14.1307 2.14445 47.5185 -9.82674 17.2894)
(-21.7149 33.7963 -2.75669 15.9697 -3.34792 2.58848)
(-10.7325 34.6691 -4.21125 -14.4085 2.50514 -4.57263)
(-2.31427 15.8411 -2.01605 -39.392 9.49548 -11.0962)
(-28.7259 8.43432 2.08147 29.517 -7.74083 17.7037)
(-23.8096 24.4384 -2.07478 7.52 -2.91926 1.62125)
(-10.4478 25.4308 -3.32966 -7.31586 1.66143 -3.40595)
(-0.409319 11.4274 -1.65234 -17.5556 7.39933 -8.1701)
(-39.9257 5.24721 1.62237 14.1692 -4.44116 13.1646)
(-38.2326 14.5177 -1.97149 -2.55127 -1.9567 -5.36286)
(-6.54002 13.9309 -3.45599 0.0158376 0.383295 -0.312445)
(4.81828 5.82268 -2.2243 -5.21985 3.43961 -6.22234)
(184.84 72.8316 -1.04875 406.63 9.48309 226.663)
(32.1999 65.0452 -4.11882 88.9099 2.40713 44.9172)
(-49.8362 61.7337 -4.63658 -97.5258 -7.07822 -54.1928)
(-196.351 62.8007 -2.15781 -397.735 -15.1213 -225.763)
(-43.234 26.6517 -1.76185 164.679 -2.90737 29.9312)
(-7.84117 70.0697 -7.99376 73.6071 -2.29859 20.0904)
(-22.5003 69.3004 -9.13023 -76.9133 -1.5568 -29.8371)
(5.14092 26.6948 -4.17072 -174.52 -1.19681 -43.6616)
(-22.1896 27.0463 -0.950335 154.909 -7.06097 38.8522)
(-20.9252 58.8555 -6.83537 52.334 -3.3063 8.66758)
(-13.4148 59.0146 -8.09495 -52.698 0.644305 -16.5342)
(-11.9846 27.0846 -3.69901 -154.804 4.26543 -44.3055)
(-29.1548 22.0948 -0.00547475 110.439 -9.12741 25.5529)
(-21.2691 49.469 -4.88714 39.4567 -3.61415 6.56123)
(-12.7421 49.8047 -6.19278 -37.1217 1.96834 -11.2807)
(-5.479 22.5074 -2.93701 -107.074 7.47945 -27.719)
(-29.717 17.7774 0.857557 75.636 -9.41637 19.4123)
(-21.1889 40.2749 -3.01356 27.6409 -3.43558 5.19861)
(-11.7972 40.8356 -4.32632 -23.817 2.54876 -7.21871)
(-4.68213 18.6666 -2.12101 -69.8038 8.7108 -18.7411)
(-30.9558 12.8008 1.39478 46.8254 -8.49837 14.7704)
(-21.0877 31.1312 -1.67807 17.7433 -3.00626 4.37857)
(-11.2075 32.1288 -2.90652 -13.6235 2.48174 -4.39078)
(-3.44776 14.717 -1.45637 -39.2422 8.42233 -11.8877)
(-30.8227 7.07208 1.46609 29.1126 -6.69561 13.9258)
(-23.2236 22.2173 -1.07855 9.01595 -2.48981 2.81467)
(-10.9391 23.4577 -2.1892 -6.34335 1.77088 -2.37023)
(-1.32206 10.6232 -1.11402 -16.8487 6.74182 -6.72776)
(-42.8125 4.58144 1.03874 12.564 -3.60079 7.07128)
(-38.3139 13.4017 -1.35765 -1.63984 -1.47821 -5.21243)
(-7.73723 12.9567 -2.77472 0.862477 0.492227 1.40788)
(4.63882 5.51462 -1.85422 -3.17285 3.08032 -1.65305)
(188.351 74.1846 -0.557374 412.618 3.91605 235.262)
(33.1724 65.5787 -2.43726 91.0796 0.507498 48.0488)
(-50.2259 61.96 -2.78778 -97.3758 -4.36642 -56.0681)
(-199.304 63.3632 -1.33737 -401.272 -8.28485 -233.355)
(-44.3818 26.8091 -1.01284 164.675 -2.43564 38.4459)
(-8.2306 70.6258 -4.96492 75.1053 -1.89874 24.0527)
(-22.9067 69.79 -5.75281 -76.283 -1.35031 -33.0894)
(4.73229 26.8179 -2.74039 -173.761 -0.829468 -53.0919)
(-22.9249 27.2075 -0.647494 156.095 -5.09158 46.1908)
(-21.9275 59.1589 -4.57953 53.5518 -2.54073 11.655)
(-13.803 59.3045 -5.46068 -52.1735 0.254927 -19.1446)
(-12.5683 27.1728 -2.61215 -154.739 2.8332 -52.4862)
(-30.0433 22.0744 -0.0701922 111.625 -6.59092 30.3302)
(-22.3062 49.3602 -3.42847 40.5421 -2.75454 8.70089)
(-13.2737 49.7015 -4.31906 -36.5973 1.34663 -12.9831)
(-6.09072 22.4649 -2.11834 -107.085 5.25097 -33.4136)
(-30.6192 17.5839 0.524053 76.8246 -6.95284 21.7993)
(-22.1651 39.8405 -2.153 28.6798 -2.63789 6.6318)
(-12.4141 40.4551 -3.02553 -23.2689 1.90896 -7.97814)
(-5.28696 18.5473 -1.5147 -69.7158 6.39165 -21.82)
(-31.7947 12.4555 0.926704 48.0767 -6.43358 15.2848)
(-21.9595 30.5152 -1.19599 18.7453 -2.33527 5.28548)
(-11.8369 31.6464 -1.99889 -13.0169 1.95097 -4.27025)
(-4.04891 14.6022 -1.00197 -39.0165 6.38641 -12.6815)
(-31.2501 6.60194 0.985055 30.7694 -5.20903 13.3086)
(-24.0214 21.6161 -0.842672 9.96044 -1.9414 3.32015)
(-11.6789 23.054 -1.57867 -5.72513 1.44244 -1.51344)
(-1.97821 10.574 -0.77367 -16.3919 5.24973 -5.58097)
(-43.1868 4.36962 0.536686 14.0732 -2.94286 5.45343)
(-39.3111 13.075 -1.39165 -0.693912 -1.1832 -4.95811)
(-9.14121 12.6989 -2.39174 1.32927 0.4156 2.80171)
(3.79648 5.50638 -1.51211 -2.44338 2.44287 1.24963)
(189.735 74.608 -0.249974 415.286 1.1571 239.668)
(33.5613 65.4028 -1.36325 92.2414 -0.30887 49.7498)
(-50.376 61.5518 -1.58712 -96.9815 -2.65467 -57.0394)
(-200.14 63.2005 -0.777964 -401.808 -4.3883 -236.857)
(-45.4018 26.7824 -0.481057 164.524 -2.03992 43.5288)
(-8.71497 70.7297 -2.90225 75.9445 -1.50423 26.3405)
(-23.2111 69.8411 -3.41889 -75.4867 -1.03156 -35.005)
(4.47229 26.788 -1.67015 -172.894 -0.450968 -58.7875)
(-23.8189 27.3286 -0.330847 156.583 -3.5906 51.0138)
(-22.8009 59.4361 -2.85652 54.2897 -1.85006 13.5447)
(-14.1668 59.5911 -3.44111 -51.4189 0.0543011 -20.842)
(-12.7657 27.2893 -1.68235 -154 1.8665 -57.6901)
(-30.9952 22.2038 -0.00985144 112.31 -4.52747 33.8895)
(-23.2112 49.642 -2.23522 41.2993 -1.95879 10.1604)
(-13.7291 50.0106 -2.81438 -35.9288 0.845201 -14.1968)
(-6.334 22.6274 -1.39722 -106.499 3.49232 -37.3197)
(-31.5171 17.6606 0.353707 77.6977 -4.81352 23.9493)
(-23.0227 40.0299 -1.45489 29.4643 -1.87883 7.67044)
(-12.9173 40.7012 -2.01 -22.6695 1.29165 -8.58425)
(-5.57756 18.7174 -1.0072 -69.2464 4.35728 -24.1105)
(-32.6027 12.4351 0.606257 49.0897 -4.54865 16.206)
(-22.7274 30.5818 -0.857787 19.544 -1.68917 6.00047)
(-12.3583 31.8139 -1.36027 -12.4695 1.36379 -4.26497)
(-4.37 14.7679 -0.671829 -38.5773 4.45833 -13.39)
(-31.785 6.46795 0.608724 32.0523 -3.78923 13.4437)
(-24.7563 21.5947 -0.718323 10.7188 -1.43284 3.77956)
(-12.2997 23.1541 -1.18083 -5.2373 1.01841 -0.983164)
(-2.33684 10.7307 -0.562175 -15.8474 3.73352 -4.87546)
(-43.9409 4.32739 0.167649 15.0384 -2.20328 4.63969)
(-40.3834 13.0615 -1.35321 -0.0834224 -0.892466 -4.83893)
(-10.2279 12.6872 -2.01093 1.70408 0.272484 3.6773)
(3.29167 5.57351 -1.22157 -1.7883 1.73937 3.12504)
(190.171 74.6733 -0.084321 416.317 0.00619767 241.803)
(33.7206 65.0724 -0.715585 92.8952 -0.520291 50.6651)
(-50.3566 61.0606 -0.851927 -96.4778 -1.5546 -57.4616)
(-200.071 62.8597 -0.424883 -401.105 -2.22028 -238.232)
(-46.0717 26.6846 -0.171744 164.452 -1.55562 46.4457)
(-9.07832 70.6225 -1.58638 76.487 -1.0934 27.6289)
(-23.4157 69.699 -1.90846 -74.7779 -0.711737 -36.0924)
(4.23766 26.7046 -0.948793 -172.173 -0.203513 -62.0829)
(-24.4718 27.3711 -0.114469 156.885 -2.40599 53.974)
(-23.4001 59.5661 -1.65112 54.8032 -1.25813 14.683)
(-14.4518 59.736 -2.01971 -50.7499 -0.024661 -21.8882)
(-12.8767 27.3502 -0.998936 -153.256 1.18916 -60.798)
(-31.6835 22.3061 0.0518876 112.772 -2.93977 36.2628)
(-23.8358 49.8935 -1.34239 41.8451 -1.29912 11.0935)
(-14.0554 50.2898 -1.70273 -35.321 0.495784 -14.9802)
(-6.46475 22.774 -0.848247 -105.85 2.19988 -39.7653)
(-32.1635 17.7622 0.255807 78.3107 -3.12502 25.5734)
(-23.6145 40.2932 -0.90571 30.0399 -1.24415 8.38267)
(-13.2591 41.0099 -1.2459 -22.1301 0.803794 -8.99924)
(-5.73164 18.8996 -0.620278 -68.6976 2.77463 -25.6279)
(-33.1754 12.4839 0.39552 49.8162 -2.99719 17.1375)
(-23.2611 30.7826 -0.574258 20.1268 -1.13404 6.5348)
(-12.707 32.0853 -0.878583 -12 0.865449 -4.28902)
(-4.55404 14.9523 -0.425571 -38.0981 2.8784 -13.9428)
(-32.1818 6.4301 0.366093 32.9522 -2.55339 13.9203)
(-25.2858 21.706 -0.560602 11.2562 -0.981126 4.15697)
(-12.7234 23.3425 -0.841556 -4.85006 0.643611 -0.676785)
(-2.55053 10.8906 -0.391551 -15.3462 2.43683 -4.53764)
(-44.4297 4.31687 0.00913776 15.8403 -1.52707 4.62808)
(-41.1684 13.1107 -1.11228 0.357675 -0.626618 -4.6845)
(-10.9743 12.7252 -1.52695 1.98447 0.153166 4.14461)
(2.89256 5.62902 -0.901608 -1.35807 1.13493 4.0498)
(190.237 74.6346 -0.015767 416.632 -0.274704 242.76)
(33.7856 64.7961 -0.334577 93.2584 -0.412357 51.1375)
(-50.2808 60.6835 -0.407926 -96.0463 -0.810565 -57.6107)
(-199.76 62.5651 -0.206386 -400.209 -1.01464 -238.654)
(-46.479 26.5892 -0.0366945 164.411 -0.97532 47.9838)
(-9.3084 70.4753 -0.767593 76.827 -0.664641 28.3112)
(-23.5323 69.5312 -0.943862 -74.2576 -0.414249 -36.6654)
(4.07006 26.6255 -0.475344 -171.651 -0.0735606 -63.8547)
(-24.8916 27.371 -0.0172398 157.067 -1.39216 55.6133)
(-23.7621 59.5992 -0.835291 55.1433 -0.732571 15.3173)
(-14.6376 59.7814 -1.03877 -50.27 -0.0364903 -22.4803)
(-12.9441 27.3699 -0.517194 -152.7 0.665824 -62.5104)
(-32.1252 22.361 0.0594924 113.056 -1.65964 37.6487)
(-24.2141 50.042 -0.699684 42.2073 -0.742333 11.6383)
(-14.2587 50.4586 -0.897103 -34.8795 0.256181 -15.4359)
(-6.54164 22.8644 -0.446974 -105.356 1.2128 -41.1587)
(-32.5828 17.83 0.159638 78.68 -1.75972 26.5929)
(-23.9725 40.4784 -0.486123 30.4179 -0.709483 8.8235)
(-13.464 41.2253 -0.670914 -21.7359 0.433351 -9.24727)
(-5.81536 19.0234 -0.331546 -68.2618 1.53481 -26.5262)
(-33.5512 12.525 0.225523 50.2466 -1.7033 17.8029)
(-23.5852 30.9408 -0.328047 20.5019 -0.6531 6.88879)
(-12.9126 32.2875 -0.492273 -11.6614 0.471582 -4.31086)
(-4.65466 15.081 -0.234712 -37.7167 1.60295 -14.3068)
(-32.4609 6.41694 0.192374 33.4763 -1.47366 14.3473)
(-25.6134 21.8023 -0.356475 11.5946 -0.573231 4.42638)
(-12.9773 23.4837 -0.50845 -4.58086 0.347725 -0.513678)
(-2.66654 10.9993 -0.233765 -14.971 1.36434 -4.4)
(-44.7669 4.31652 -0.0393513 16.3245 -0.901551 4.79896)
(-41.67 13.1563 -0.722456 0.629688 -0.372269 -4.55666)
(-11.4315 12.756 -0.952348 2.17415 0.0738547 4.36674)
(2.63717 5.66169 -0.554516 -1.0779 0.634272 4.45681)
(190.214 74.5962 1.57148e-05 416.694 -0.133316 243.116)
(33.8088 64.647 -0.096675 93.4226 -0.152328 51.3379)
(-50.225 60.4859 -0.119767 -95.8037 -0.251167 -57.6487)
(-199.538 62.4035 -0.0611056 -399.652 -0.289728 -238.736)
(-46.6709 26.5337 -0.00202929 164.391 -0.332138 48.6369)
(-9.41879 70.382 -0.226506 76.9926 -0.223057 28.6039)
(-23.5833 69.4284 -0.282501 -73.9838 -0.135747 -36.9095)
(3.9848 26.5802 -0.14327 -171.376 -0.0164428 -64.623)
(-25.0944 27.362 0.00229016 157.153 -0.456627 56.3323)
(-23.9316 59.5981 -0.253009 55.314 -0.240847 15.5979)
(-14.7276 59.787 -0.317934 -50.0215 -0.0154389 -22.7459)
(-12.9765 27.3728 -0.158762 -152.409 0.21491 -63.2653)
(-32.3383 22.3824 0.0241565 113.192 -0.537408 38.2762)
(-24.3913 50.1054 -0.215642 42.3882 -0.241702 11.8868)
(-14.3551 50.5324 -0.2784 -34.6503 0.0787691 -15.6436)
(-6.57819 22.9049 -0.138618 -105.095 0.387605 -41.7859)
(-32.7864 17.861 0.0538571 78.8515 -0.568799 27.0738)
(-24.1401 40.567 -0.152483 30.6042 -0.23074 9.03207)
(-13.559 41.3286 -0.210996 -21.5305 0.136314 -9.36163)
(-5.85284 19.0827 -0.103786 -68.0277 0.490786 -26.9396)
(-33.7341 12.5447 0.0726116 50.4428 -0.553074 18.1388)
(-23.7371 31.0201 -0.106826 20.6836 -0.213508 7.06312)
(-13.0068 32.3874 -0.15864 -11.4856 0.149048 -4.32241)
(-4.69953 15.1435 -0.0749915 -37.5108 0.513908 -14.4855)
(-32.6002 6.41107 0.0583892 33.7106 -0.482772 14.584)
(-25.7682 21.8516 -0.122715 11.7559 -0.188841 4.56419)
(-13.0949 23.5527 -0.170652 -4.44304 0.109312 -0.443918)
(-2.71879 11.0511 -0.0780984 -14.7747 0.438344 -4.35799)
(-44.9269 4.31891 -0.0223638 16.5479 -0.300721 4.93264)
(-41.9084 13.1821 -0.250228 0.759962 -0.123835 -4.48558)
(-11.6498 12.7699 -0.323751 2.26931 0.021982 4.44946)
(2.50827 5.67468 -0.187601 -0.94333 0.203717 4.59505)
)
;

boundaryField
{
    interface
    {
        type            calculated;
        value           nonuniform List<symmTensor> 
192
(
(-22.4119 -0.0774676 2.40653 413.891 39.062 124.659)
(-21.7781 0.0543536 4.10376 201.221 -12.585 24.2895)
(-21.7117 0.172888 4.94663 202.075 -7.83634 45.6739)
(-21.799 0.155046 5.42152 147.084 -11.4221 36.102)
(-22.2635 -0.129836 5.6994 104.382 -10.7064 32.8136)
(-22.9308 -0.775391 5.78444 67.2398 -9.39552 28.9687)
(-23.5427 -1.99147 5.60109 44.5992 -7.48687 28.8098)
(-22.5427 -3.86411 4.92315 32.6262 -4.14718 31.505)
(-25.4267 0.101026 1.74472 408.815 24.2588 132.255)
(-25.1432 0.308797 2.99799 221.58 -4.73064 41.2945)
(-25.7843 0.46252 3.61011 199.882 -11.7937 43.8478)
(-26.6154 0.391406 3.94837 146.364 -15.0585 36.1188)
(-27.6109 -0.00985004 4.12729 101.198 -15.1734 31.6833)
(-28.5068 -0.858392 4.14943 64.1732 -13.469 28.6243)
(-28.6596 -2.41184 3.96437 42.2286 -10.4028 29.4391)
(-25.37 -4.62517 3.44665 32.2696 -5.77729 34.0863)
(-27.4432 0.154126 1.26441 416.303 12.0119 143.237)
(-27.0454 0.397745 2.16387 219.315 -3.10867 53.623)
(-27.8372 0.571903 2.56967 199.545 -8.83609 50.6856)
(-28.8339 0.477779 2.77328 145.581 -11.8556 37.8259)
(-29.938 0.00926571 2.87032 99.8998 -12.4387 29.2945)
(-30.7838 -0.959241 2.86617 62.9363 -11.3254 23.5535)
(-30.5328 -2.69176 2.73799 41.8668 -8.88175 22.9706)
(-26.074 -5.0312 2.41599 31.6989 -4.75157 26.2131)
(-28.897 0.16541 0.931594 420.65 4.99875 150.335)
(-28.3864 0.423333 1.5973 217.818 -2.68592 63.5977)
(-29.1989 0.607432 1.88379 199.62 -6.25665 58.9423)
(-30.2265 0.500077 2.01654 146.042 -8.39204 42.8988)
(-31.3331 -0.0109959 2.07559 100.536 -9.02499 31.2291)
(-32.0918 -1.05442 2.06874 63.8327 -8.4463 23.0412)
(-31.5614 -2.8927 1.98793 43.3793 -6.85649 20.887)
(-26.4072 -5.2923 1.77883 33.2797 -3.88939 23.1798)
(-29.9415 0.165264 0.673786 422.372 1.51057 154.053)
(-29.3593 0.426628 1.16009 217.022 -2.33466 69.7879)
(-30.1626 0.613443 1.36477 199.71 -4.39411 64.8018)
(-31.1854 0.497513 1.45503 146.523 -5.70948 47.2027)
(-32.2687 -0.0403288 1.49432 101.311 -6.18657 33.6562)
(-32.9555 -1.13096 1.49107 64.8423 -5.92129 23.8151)
(-32.2406 -3.03657 1.44298 44.7684 -4.96563 20.5447)
(-26.6254 -5.47244 1.30392 34.6573 -2.91404 22.056)
(-30.6712 0.162313 0.45813 422.795 0.0471539 155.845)
(-30.0424 0.422986 0.791853 216.581 -1.82486 73.3354)
(-30.8328 0.609431 0.931225 199.827 -2.94965 68.465)
(-31.8426 0.487723 0.991261 146.915 -3.6948 50.1751)
(-32.9048 -0.0667471 1.01759 101.912 -3.99806 35.6389)
(-33.5404 -1.18701 1.01739 65.6062 -3.88587 24.8628)
(-32.7067 -3.13632 0.989827 45.7717 -3.34066 20.9472)
(-26.7847 -5.59556 0.899301 35.7659 -2.02156 22.088)
(-31.1352 0.16017 0.264652 422.735 -0.321081 156.627)
(-30.4813 0.419079 0.459284 216.319 -1.15963 75.1849)
(-31.2628 0.604011 0.540027 199.91 -1.71154 70.4962)
(-32.2621 0.478627 0.574422 147.17 -2.08486 51.926)
(-33.3099 -0.0856822 0.58991 102.283 -2.24769 36.9141)
(-33.9137 -1.22404 0.590664 66.0642 -2.20482 25.6644)
(-33.008 -3.20046 0.574844 46.3656 -1.92747 21.4175)
(-26.8979 -5.6713 0.520013 36.4572 -1.19555 22.3919)
(-31.3512 0.158597 0.0856783 422.621 -0.159287 156.914)
(-30.6852 0.41581 0.149206 216.198 -0.39717 75.9669)
(-31.4588 0.599656 0.175303 199.959 -0.562333 71.392)
(-32.4506 0.473063 0.186338 147.302 -0.675247 52.7281)
(-33.4906 -0.0956835 0.191451 102.465 -0.726248 37.5293)
(-34.0805 -1.24441 0.191805 66.281 -0.715575 26.0865)
(-33.1288 -3.23614 0.18593 46.6466 -0.631602 21.7114)
(-26.9091 -5.70136 0.166077 36.8035 -0.399633 22.6403)
(36.043 55.1203 -2.70249 265.1 -0.697825 -9.70435)
(-76.4964 25.1912 -4.6101 109.31 -1.07652 -6.13781)
(-52.3318 34.6483 -5.55248 124.631 -1.10443 -2.95207)
(-53.4886 31.486 -6.17979 87.8325 -0.969478 -0.517192)
(-48.3777 28.214 -6.71553 61.3016 -0.895967 1.12522)
(-46.1872 22.3631 -7.22678 36.3566 -0.99728 2.01984)
(-45.3285 15.1337 -7.8364 19.4436 -1.29498 2.16364)
(-53.8352 8.44085 -8.9748 5.87767 -1.64191 1.43261)
(-5.40838 43.4804 -1.67818 54.929 -0.540904 -8.48259)
(-40.0717 65.4945 -3.03842 35.0826 -0.999312 -7.11548)
(-41.3763 69.6075 -3.58373 36.0986 -1.18103 -5.2708)
(-40.8582 65.4697 -3.86717 25.4468 -1.07603 -3.72152)
(-38.7891 57.7628 -4.10652 16.6374 -0.88539 -2.66248)
(-37.3589 47.1509 -4.40633 8.13369 -0.745699 -2.08919)
(-37.2975 34.9371 -4.93579 1.64111 -0.706243 -1.92252)
(-45.8956 19.8636 -6.32136 -3.3598 -0.652411 -1.82695)
(-25.7258 39.3948 -1.26736 -87.8199 -0.356176 -7.67944)
(2.34396 63.4377 -2.48788 -44.4235 -0.813883 -7.3119)
(-3.28764 69.393 -3.00472 -43.4271 -1.07929 -6.19374)
(-5.79251 65.7371 -3.23889 -32.1025 -1.0368 -5.13738)
(-8.4204 58.3705 -3.40441 -23.7894 -0.838448 -4.41835)
(-10.0692 48.2242 -3.63196 -16.6992 -0.624069 -4.0534)
(-11.386 36.0724 -4.10075 -11.4739 -0.457653 -3.97812)
(-8.67133 19.4113 -5.41941 -4.66247 -0.292881 -3.90039)
(-64.9929 44.7295 -1.18176 -286.045 -0.294098 -6.608)
(40.2736 23.1323 -2.4795 -117.809 -0.761059 -6.6631)
(13.7222 34.6179 -3.08983 -129.236 -1.05332 -5.77825)
(13.5767 32.0642 -3.38152 -90.4872 -1.0441 -4.93041)
(7.92902 29.3046 -3.56266 -63.0731 -0.853088 -4.3418)
(5.10965 24.3311 -3.78534 -38.2102 -0.610832 -4.02298)
(3.89272 18.0367 -4.22624 -20.4431 -0.356995 -3.89354)
(8.7741 8.89936 -5.43639 -7.13959 -0.0359891 -3.84119)
(-3.92895 0.266146 0.277133 -410.925 -47.6228 -131.381)
(-3.17044 0.590528 0.510836 -204.688 8.383 -27.6648)
(-2.21803 0.807391 0.534096 -196.597 4.84381 -40.8039)
(-1.49222 0.826428 0.508049 -137.058 9.29663 -26.1948)
(-0.935417 0.723245 0.532207 -91.6539 9.34592 -19.6812)
(-0.369043 0.573219 0.647345 -52.6139 8.76389 -13.9052)
(0.618552 0.331432 0.865798 -25.5291 6.97355 -11.1951)
(3.55325 -0.748059 1.13547 -11.5277 2.71915 -11.1009)
(-4.5958 0.115021 -0.0763917 -399.387 -32.4074 -137.226)
(-4.56804 0.314028 -0.115251 -228.647 -0.755836 -46.765)
(-4.25884 0.482486 -0.181181 -197.39 8.25569 -41.4254)
(-3.9233 0.547898 -0.230264 -139.666 12.9904 -29.4786)
(-3.58308 0.53999 -0.21903 -91.7872 14.2718 -22.332)
(-3.14857 0.515127 -0.138674 -52.3505 13.4713 -17.2843)
(-2.20931 0.436878 -0.00533706 -24.5555 10.7179 -14.5645)
(0.877351 -0.464163 0.134243 -11.5453 5.30476 -14.6946)
(-4.9566 0.04866 -0.135467 -405.937 -18.2292 -149.63)
(-5.1233 0.184406 -0.209314 -227.439 -1.17031 -63.1248)
(-5.00267 0.333342 -0.245933 -198.175 5.91552 -53.5907)
(-4.79822 0.434806 -0.255298 -140.458 10.1935 -37.2071)
(-4.50875 0.497766 -0.220134 -91.9695 11.8474 -26.0827)
(-4.05209 0.558185 -0.142785 -52.1494 11.5407 -17.9075)
(-3.04336 0.563894 -0.0524657 -23.9705 9.47273 -12.5974)
(-0.123398 -0.176187 -0.0108138 -9.97645 4.67057 -9.67455)
(-5.21637 0.0228854 -0.127346 -409.022 -9.65853 -157.309)
(-5.43923 0.127561 -0.195986 -225.997 -0.570076 -74.9353)
(-5.39384 0.267698 -0.211093 -197.692 4.00143 -63.9142)
(-5.24259 0.396047 -0.197531 -140.334 7.08956 -44.4569)
(-4.96008 0.510386 -0.153369 -91.8413 8.5706 -29.9829)
(-4.46687 0.630121 -0.0882804 -51.9118 8.62168 -18.8617)
(-3.40514 0.692301 -0.0317147 -23.3795 7.29413 -11.0288)
(-0.560369 0.0529547 -0.0297664 -8.98428 3.6851 -5.93308)
(-5.40973 0.0126292 -0.100176 -409.383 -4.89144 -161.261)
(-5.65235 0.104107 -0.153745 -224.938 -0.102007 -82.1615)
(-5.63916 0.243463 -0.156894 -196.904 2.7112 -70.7046)
(-5.50858 0.392586 -0.135266 -139.757 4.72226 -49.6209)
(-5.21898 0.542518 -0.0942984 -91.3896 5.8143 -33.0333)
(-4.6954 0.700169 -0.0462283 -51.4444 5.9871 -19.8248)
(-3.61014 0.795168 -0.0161583 -22.6937 5.17799 -10.1392)
(-0.836973 0.219948 -0.0373344 -8.1461 2.64184 -3.58185)
(-5.54261 0.00922406 -0.0685894 -408.632 -2.33921 -163.121)
(-5.7912 0.0968085 -0.104538 -224.129 0.116033 -86.2922)
(-5.79008 0.239353 -0.102149 -196.169 1.77358 -74.7659)
(-5.66528 0.403538 -0.0816659 -139.126 2.9948 -52.865)
(-5.36659 0.576152 -0.0503328 -90.8417 3.70554 -35.0766)
(-4.82347 0.755879 -0.0190839 -50.9154 3.86656 -20.5959)
(-3.73137 0.868246 -0.0061604 -22.0606 3.39075 -9.74519)
(-1.01995 0.333087 -0.0334198 -7.5434 1.7432 -2.3869)
(-5.62435 0.00858344 -0.0389067 -407.736 -1.00574 -163.915)
(-5.87418 0.0961396 -0.0587583 -223.556 0.143081 -88.4822)
(-5.87683 0.242495 -0.0555615 -195.625 1.01218 -76.9913)
(-5.75257 0.416345 -0.0417255 -138.641 1.66305 -54.7035)
(-5.4471 0.601893 -0.0227358 -90.3973 2.0558 -36.2861)
(-4.89384 0.793154 -0.00575978 -50.4894 2.15846 -21.1083)
(-3.80223 0.913844 -0.00138199 -21.5922 1.90689 -9.60688)
(-1.13595 0.402367 -0.023298 -7.1472 0.984051 -1.85126)
(-5.66191 0.00885385 -0.012439 -407.186 -0.274825 -164.195)
(-5.91113 0.0969583 -0.0186461 -223.256 0.0595876 -89.4212)
(-5.91475 0.245432 -0.017323 -195.337 0.329893 -77.9663)
(-5.79034 0.423873 -0.0125625 -138.382 0.533855 -55.5256)
(-5.48236 0.6153 -0.00632903 -90.156 0.658849 -36.8414)
(-4.92539 0.811828 -0.00103147 -50.2586 0.693323 -21.3606)
(-3.83258 0.935061 2.30065e-06 -21.3463 0.614412 -9.5725)
(-1.19862 0.43478 -0.00859882 -6.9571 0.317678 -1.66583)
(-58.1507 9.79048 -2.01427 0.872795 -2.51682 1.94601)
(-52.7535 9.32787 1.36568 2.64237 -2.09808 6.08827)
(-53.7352 9.3307 0.706696 4.07433 -1.64894 1.10827)
(-54.3399 9.43929 0.161891 5.19733 -1.28936 -1.09651)
(-55.2676 9.55928 -0.194756 6.03205 -0.982569 -2.34811)
(-55.973 9.66266 -0.276943 6.62173 -0.700526 -2.69506)
(-56.4482 9.73793 -0.220932 6.98294 -0.430007 -2.71255)
(-56.7154 9.77481 -0.0847388 7.0839 -0.148233 -2.70464)
(-50.2264 6.95923 -4.07965 -1.3986 -0.889035 -6.99707)
(-45.2782 6.00573 -2.02226 -0.526434 -0.769834 -6.10386)
(-45.6345 5.76491 -1.73943 0.459708 -0.591324 -6.34571)
(-46.9485 5.70078 -1.9364 1.27888 -0.464637 -6.26642)
(-48.2699 5.68931 -1.91071 1.88433 -0.363759 -6.29566)
(-49.2552 5.69573 -1.56454 2.30964 -0.265492 -6.25479)
(-49.8812 5.70997 -1.01066 2.58624 -0.162011 -6.19298)
(-50.1622 5.7278 -0.348656 2.74576 -0.0541454 -6.13673)
(-5.70042 5.82989 -4.20876 -3.15737 -0.171882 -1.28601)
(-7.38699 4.70739 -3.84443 -2.54528 -0.188886 -2.34829)
(-9.20902 4.32661 -3.51159 -1.82925 -0.15327 -0.297252)
(-11.002 4.15036 -3.21847 -1.24994 -0.136309 1.47394)
(-12.3831 4.05087 -2.77 -0.833137 -0.122232 2.54432)
(-13.3383 3.99039 -2.11466 -0.547266 -0.097711 3.07806)
(-13.9325 3.95528 -1.31867 -0.366667 -0.0604886 3.30671)
(-14.21 3.93772 -0.447757 -0.263881 -0.0193139 3.39095)
(11.6829 5.60629 -3.38568 -3.09931 0.261306 -3.71647)
(7.99464 4.47841 -2.88607 -2.64069 0.0643497 -6.17001)
(6.6969 4.04135 -2.65803 -2.1929 -0.0105422 -1.27964)
(5.405 3.80946 -2.26571 -1.82304 -0.0478612 2.16702)
(4.50276 3.66214 -1.85449 -1.56494 -0.0644226 4.27666)
(3.83391 3.56411 -1.36982 -1.39437 -0.06123 5.27169)
(3.39858 3.50227 -0.840342 -1.29251 -0.042329 5.66616)
(3.17928 3.46901 -0.28372 -1.24711 -0.0147418 5.78097)
)
;
    }
    symmetry
    {
        type            symmetryPlane;
    }
    bottom
    {
        type            calculated;
        value           nonuniform List<symmTensor> 
32
(
(207.656 74.5052 0 311.484 84.6636 207.656)
(203.845 83.8781 0 305.768 42.1146 203.845)
(209.919 88.1946 0 314.879 20.3856 209.919)
(213.569 89.7639 0 320.353 9.26815 213.569)
(215.267 90.256 0 322.9 3.77302 215.267)
(215.989 90.3655 0 323.983 1.25224 215.989)
(216.256 90.362 0 324.384 0.271507 216.256)
(216.335 90.3421 0 324.502 0.0193978 216.335)
(39.5855 31.7345 0 59.3782 25.2609 39.5855)
(41.6088 42.167 0 62.4132 13.0667 41.6088)
(44.5296 43.8885 0 66.7944 6.0782 44.5296)
(45.9743 43.5854 0 68.9614 2.42137 45.9743)
(46.7459 42.9411 0 70.1188 0.677104 46.7459)
(47.1824 42.391 0 70.7736 -0.0240526 47.1824)
(47.4245 42.0267 0 71.1368 -0.182559 47.4245)
(47.5337 41.8489 0 71.3005 -0.08565 47.5337)
(-57.5381 28.1767 0 -86.3072 -30.4811 -57.5381)
(-51.5705 38.5288 0 -77.3557 -17.7028 -51.5705)
(-51.999 39.6755 0 -77.9985 -10.4201 -51.999)
(-52.2138 38.8882 0 -78.3207 -6.11484 -52.2138)
(-52.1476 37.9014 0 -78.2213 -3.53624 -52.1476)
(-51.9603 37.1203 0 -77.9404 -1.97188 -51.9603)
(-51.7754 36.6124 0 -77.6631 -0.986874 -51.7754)
(-51.6663 36.3662 0 -77.4995 -0.298589 -51.6663)
(-210.907 63.1982 0 -316.361 -93.5602 -210.907)
(-200.908 70.9644 0 -301.361 -50.3064 -200.908)
(-206.164 73.3506 0 -309.246 -26.9797 -206.164)
(-208.785 73.4732 0 -313.178 -14.1959 -208.785)
(-209.482 72.9256 0 -314.224 -7.25367 -209.482)
(-209.358 72.3138 0 -314.037 -3.53914 -209.358)
(-209.028 71.8522 0 -313.542 -1.56278 -209.028)
(-208.799 71.6115 0 -313.199 -0.43619 -208.799)
)
;
    }
}


// ************************************************************************* //
