/*--------------------------------*- C++ -*----------------------------------*\
| =========                 |                                                 |
| \\      /  F ield         | foam-extend: Open Source CFD                    |
|  \\    /   O peration     | Version:     3.1                                |
|   \\  /    A nd           | Web:         http://www.extend-project.de       |
|    \\/     M anipulation  |                                                 |
\*---------------------------------------------------------------------------*/
FoamFile
{
    version     2.0;
    format      ascii;
    class       volSymmTensorField;
    location    "3.6";
    object      sigmaCauchy;
}
// * * * * * * * * * * * * * * * * * * * * * * * * * * * * * * * * * * * * * //

dimensions      [1 -1 -2 0 0 0 0];

internalField   nonuniform List<symmTensor> 
256
(
(175.263 70.9225 -1.07583 410.274 35.336 200.565)
(25.4762 53.4123 -7.70345 80.7993 10.9934 32.1771)
(-53.5729 46.3539 -8.77108 -110.317 -15.3943 -54.9666)
(-201.514 43.1096 -4.81648 -396.615 -33.7448 -218.698)
(-70.8464 32.0038 -3.19759 122.637 -10.884 -20.168)
(-26.6728 69.0594 -12.7929 42.5941 -5.04537 -8.53381)
(3.13787 63.3339 -13.2324 -53.8609 1.9888 -2.42663)
(42.0345 18.8356 -4.62337 -126.834 6.89631 9.66046)
(-23.4743 39.1339 -1.32924 148.695 -6.32003 26.215)
(-26.6656 67.4987 -8.70437 37.1321 -2.63768 -3.68113)
(-1.31834 62.5729 -9.05722 -49.8323 0.000401388 -7.39364)
(-4.30763 24.8822 -2.72614 -147.66 2.89476 -30.9444)
(-34.5664 34.5129 -1.54525 99.6638 -8.57149 13.1909)
(-27.407 61.8816 -7.22864 23.9863 -2.89328 -4.57157)
(-0.701745 57.8841 -7.27473 -36.7848 1.06343 -3.81106)
(6.77373 22.7452 -2.57305 -99.6189 5.92398 -13.7849)
(-31.928 29.7609 -1.2356 69.0552 -7.70705 13.6794)
(-26.1231 53.5893 -5.82302 14.4499 -2.33377 -3.06194)
(-2.61227 50.7145 -5.76424 -27.2062 1.20541 -3.35566)
(3.79156 21.1123 -2.14973 -69.1446 5.99725 -11.5165)
(-33.3857 23.0589 -1.31169 40.9179 -6.59845 11.2053)
(-26.264 43.3316 -5.08363 6.04021 -1.91414 -2.51998)
(-4.29208 41.7658 -4.8781 -18.6888 1.2094 -2.79645)
(3.83178 18.0632 -2.06406 -40.8457 5.71574 -7.67851)
(-33.7709 15.6456 -1.84262 24.0222 -5.40573 12.0107)
(-28.2056 32.1046 -4.91334 -0.113988 -1.83177 -2.23381)
(-6.42121 31.3103 -4.47916 -12.1142 0.871279 -2.899)
(3.90092 13.7399 -2.25404 -20.5451 4.62446 -6.09947)
(-45.7266 10.2133 -2.36382 8.56765 -3.05187 7.15546)
(-42.9253 19.4572 -4.62884 -8.21733 -1.19463 -8.35823)
(-3.14341 17.1801 -4.33561 -2.10784 0.108414 0.829516)
(9.63677 6.68746 -2.90137 -5.62405 1.75348 -3.23729)
(177.969 80.0118 -0.579318 406.967 21.5503 208.826)
(32.1794 64.1536 -6.24309 84.5156 6.11995 39.0086)
(-47.2985 57.3124 -7.47974 -98.077 -11.0561 -51.6189)
(-192.385 51.3448 -4.14818 -379.973 -23.377 -216.782)
(-39.2787 33.379 -2.21789 166.892 -4.47145 17.6358)
(-4.3011 71.6812 -11.9108 67.7085 -2.98807 12.7903)
(-16.277 65.5441 -13.2971 -77.3196 -1.23935 -23.8197)
(8.85422 19.9095 -5.58184 -169.311 -0.445259 -29.3038)
(-18.1318 35.1563 -1.0412 154.563 -9.58064 30.9511)
(-15.9176 62.1319 -9.39994 46.1515 -3.88202 3.788)
(-7.30775 57.3233 -10.6794 -54.7103 1.23642 -12.492)
(-7.99341 21.2694 -4.13345 -150.573 5.83425 -33.6942)
(-24.8362 29.7263 -0.106245 109.354 -11.6337 22.062)
(-16.2986 54.0297 -6.6865 33.3866 -4.01694 3.12603)
(-6.73034 50.1035 -7.85076 -40.5774 2.48863 -8.99897)
(-1.20029 18.2206 -3.09116 -105.308 9.13398 -20.6355)
(-24.9191 24.4517 0.860487 74.7568 -11.4702 19.6253)
(-16.7619 45.0504 -4.49057 21.8957 -3.69382 2.73984)
(-6.40196 42.3163 -5.61619 -27.8247 2.93564 -6.2966)
(-1.22227 16.1642 -2.07919 -70.1813 10.0946 -15.2353)
(-26.4118 18.2582 1.41813 46.2544 -10.0706 17.38)
(-17.6037 35.5515 -3.01998 12.7067 -3.19892 2.59469)
(-6.76497 34.1383 -4.06229 -17.6681 2.72719 -4.58714)
(-0.645135 13.6206 -1.44055 -40.6767 9.51689 -11.0967)
(-27.3091 11.6429 1.4439 28.5963 -7.9054 17.8125)
(-20.7892 25.9113 -2.33311 4.99393 -2.76118 1.62201)
(-7.51024 25.3713 -3.24691 -9.86024 1.88302 -3.42564)
(0.840015 10.3605 -1.19551 -18.6644 7.47389 -8.16881)
(-38.7694 8.24585 1.12511 13.4818 -4.52893 13.2585)
(-36.2626 16.2551 -2.19705 -4.16774 -1.80355 -5.38863)
(-4.94421 14.1796 -3.45526 -1.43553 0.604376 -0.334155)
(5.46367 5.22133 -1.9874 -5.80503 3.56398 -6.2336)
(184.621 84.2057 -0.537893 417.538 10.5804 222.776)
(35.1161 67.0063 -4.03255 88.8701 2.40962 44.7595)
(-47.3628 59.7417 -4.88574 -97.4937 -6.9331 -54.4317)
(-198.431 53.5646 -2.76773 -387.268 -13.3855 -230.083)
(-39.9067 33.9526 -1.79118 168.064 -3.06171 29.7522)
(-2.43553 72.9299 -8.05822 71.9268 -2.39843 20.0805)
(-17.6284 66.7146 -9.23551 -78.6007 -1.53833 -29.9277)
(6.92776 20.4091 -4.32313 -171.023 -1.01033 -44.0608)
(-18.9542 34.7961 -1.26759 156.696 -7.3943 38.6486)
(-15.273 61.7117 -6.96735 49.3858 -3.30137 8.69165)
(-8.24007 56.8187 -8.08769 -55.6484 0.742787 -16.559)
(-10.1041 20.7257 -3.55177 -153.065 4.23493 -44.6905)
(-26.0701 28.8862 -0.520584 110.43 -9.44826 25.5092)
(-15.8975 52.104 -5.08775 35.9754 -3.54481 6.57803)
(-7.75749 48.1522 -6.08958 -40.5879 2.11995 -11.2979)
(-3.55682 17.3499 -2.56564 -107.064 7.41303 -27.8787)
(-27.0785 23.238 0.252723 74.732 -9.67146 19.4387)
(-16.5042 42.5109 -3.2441 24.2004 -3.34161 5.20892)
(-7.3806 39.8182 -4.18074 -27.244 2.71769 -7.23351)
(-2.90174 15.0552 -1.63159 -70.6889 8.67749 -18.8008)
(-28.9452 16.95 0.800066 45.7403 -8.68099 14.8292)
(-17.3465 32.9523 -1.90856 14.761 -2.91201 4.38696)
(-7.59527 31.6964 -2.77011 -16.6296 2.64445 -4.4043)
(-1.93667 12.6188 -0.962711 -40.4019 8.43582 -11.9016)
(-29.5492 10.3335 0.953498 28.3663 -6.82553 13.9961)
(-20.5011 23.7478 -1.29304 6.7301 -2.39888 2.82133)
(-8.26964 23.4952 -2.10766 -8.68015 1.92339 -2.38291)
(-0.183434 9.67253 -0.717732 -17.8639 6.79145 -6.73135)
(-41.7122 7.62778 0.670074 11.9547 -3.66177 7.11694)
(-36.4831 15.1943 -1.5283 -3.13294 -1.37371 -5.23268)
(-6.26495 13.3163 -2.77391 -0.484427 0.666405 1.39547)
(5.23973 5.04748 -1.66661 -3.72637 3.1872 -1.66656)
(188.052 85.856 -0.346693 423.601 4.37766 231.325)
(36.1135 67.586 -2.42681 91.0525 0.490773 47.8809)
(-47.7436 59.9803 -2.94175 -97.3684 -4.2692 -56.3257)
(-201.528 54.0171 -1.66735 -390.884 -7.31116 -237.741)
(-40.963 34.1169 -1.07501 167.931 -2.55831 38.2718)
(-2.76809 73.5244 -5.03857 73.4386 -1.95615 24.0178)
(-18.0004 67.2559 -5.83745 -78.0093 -1.31045 -33.21)
(6.52839 20.592 -2.82603 -170.484 -0.686548 -53.4977)
(-19.6534 34.9654 -0.893984 157.851 -5.32314 45.9891)
(-16.2476 62.0655 -4.69623 50.6384 -2.52523 11.6587)
(-8.62596 57.1691 -5.46687 -55.1297 0.34634 -19.1949)
(-10.7068 20.8974 -2.50363 -153.134 2.83669 -52.8794)
(-26.9478 28.8825 -0.452651 111.647 -6.8128 30.2754)
(-16.9682 52.0563 -3.5908 37.1232 -2.69397 8.70801)
(-8.34141 48.1199 -4.2527 -40.0319 1.4716 -13.0141)
(-4.19908 17.3989 -1.85195 -107.128 5.22195 -33.59)
(-27.997 23.0819 0.0733551 75.9836 -7.1324 21.8105)
(-17.5582 42.149 -2.33606 25.3243 -2.56334 6.6396)
(-8.0846 39.5127 -2.92251 -26.6359 2.03991 -7.99709)
(-3.5439 15.0224 -1.15593 -70.6084 6.37644 -21.8932)
(-29.8175 16.6657 0.478105 47.0667 -6.56513 15.3259)
(-18.313 32.4154 -1.37861 15.8563 -2.26473 5.29425)
(-8.31698 31.2885 -1.89854 -15.9535 2.07168 -4.28223)
(-2.56976 12.5809 -0.632853 -40.1665 6.39883 -12.7037)
(-30.0226 9.94473 0.593639 30.103 -5.30456 13.3597)
(-21.3794 23.2274 -1.01131 7.75589 -1.87208 3.32758)
(-9.07899 23.166 -1.51862 -8.00456 1.55686 -1.52177)
(-0.857478 9.7006 -0.473969 -17.4003 5.28846 -5.58733)
(-42.1015 7.50055 0.252394 13.5039 -2.97884 5.48253)
(-37.5073 14.96 -1.52437 -2.14429 -1.08764 -4.97716)
(-7.70467 13.1529 -2.39643 0.0154666 0.562629 2.79613)
(4.38762 5.13213 -1.3755 -2.99748 2.53377 1.23965)
(189.365 86.3876 -0.189981 426.293 1.29545 235.742)
(36.4741 67.4231 -1.38378 92.2291 -0.331528 49.581)
(-47.9316 59.601 -1.68084 -96.987 -2.59088 -57.2999)
(-202.453 53.8862 -0.949349 -391.534 -3.8624 -241.217)
(-41.9303 34.0828 -0.557851 167.709 -2.14403 43.3741)
(-3.2496 73.6455 -2.97282 74.3004 -1.53914 26.3004)
(-18.3191 67.3628 -3.48102 -77.2318 -0.991412 -35.1323)
(6.25988 20.6316 -1.7098 -169.765 -0.35575 -59.1764)
(-20.5123 35.0872 -0.520553 158.309 -3.75431 50.8295)
(-17.1002 62.3743 -2.95297 51.4021 -1.83547 13.5426)
(-8.98683 57.5185 -3.45156 -54.3838 0.126298 -20.9001)
(-10.9097 21.0956 -1.60091 -152.516 1.87725 -58.0679)
(-27.8667 29.0297 -0.285184 112.335 -4.6794 33.8378)
(-17.8569 52.3834 -2.35929 37.9059 -1.91275 10.165)
(-8.79366 48.4938 -2.77532 -39.3655 0.938541 -14.2319)
(-4.4412 17.6423 -1.21362 -106.614 3.48082 -37.4941)
(-28.8734 23.198 0.0326748 76.8785 -4.93639 23.9565)
(-18.4109 42.3944 -1.59195 26.1343 -1.82289 7.67816)
(-8.58957 39.8214 -1.944 -26.0327 1.38778 -8.60385)
(-3.83086 15.264 -0.760351 -70.1788 4.35221 -24.1862)
(-30.6163 16.7034 0.28375 48.1094 -4.63915 16.2391)
(-19.0865 32.544 -0.994671 16.6803 -1.63556 6.00997)
(-8.84338 31.5141 -1.2947 -15.3993 1.45243 -4.27532)
(-2.88429 12.8079 -0.415448 -39.7506 4.47057 -13.4149)
(-30.5613 9.88231 0.322427 31.421 -3.85398 13.4857)
(-22.1224 23.2703 -0.845373 8.53641 -1.37657 3.78767)
(-9.70436 23.3223 -1.14345 -7.51012 1.10589 -0.988401)
(-1.20659 9.91679 -0.353024 -16.8734 3.76562 -4.88202)
(-42.8449 7.53308 -0.0427224 14.4851 -2.21814 4.66052)
(-38.5712 15.0204 -1.45233 -1.5233 -0.806196 -4.85719)
(-8.7983 13.2127 -2.02042 0.398559 0.39367 3.67714)
(3.8841 5.26694 -1.13012 -2.35124 1.81463 3.12)
(189.751 86.4784 -0.0864718 427.325 0.00770654 237.897)
(36.5969 67.0942 -0.742153 92.8959 -0.540739 50.4967)
(-47.9531 59.1395 -0.907065 -96.4914 -1.51483 -57.7201)
(-202.43 53.6186 -0.509892 -390.945 -1.94909 -242.545)
(-42.5759 33.973 -0.24163 167.606 -1.63723 46.3073)
(-3.63279 73.5469 -1.64351 74.8672 -1.1149 27.5891)
(-18.5541 67.2681 -1.95049 -76.5301 -0.6801 -36.2189)
(6.01028 20.6101 -0.963543 -169.136 -0.145871 -62.4543)
(-21.1451 35.1277 -0.250902 158.598 -2.51782 53.806)
(-17.6944 62.5253 -1.7233 51.9391 -1.24788 14.6802)
(-9.27777 57.7148 -2.0296 -53.7183 0.0256302 -21.9473)
(-11.0261 21.2235 -0.941197 -151.855 1.1982 -61.1584)
(-28.5293 29.1453 -0.135317 112.799 -3.04005 36.2178)
(-18.4647 52.6666 -1.43017 38.4676 -1.26804 11.0982)
(-9.11091 48.8246 -1.68141 -38.7634 0.559214 -15.0156)
(-4.56672 17.8532 -0.728425 -106.022 2.19567 -39.9325)
(-29.4975 23.3284 0.0406225 77.5014 -3.20558 25.5815)
(-18.9837 42.6966 -1.00098 26.7188 -1.20585 8.39118)
(-8.91625 40.1782 -1.20701 -25.5011 0.869051 -9.01821)
(-3.97426 15.5029 -0.461161 -69.6671 2.77402 -25.7018)
(-31.1738 16.7932 0.178217 48.8494 -3.0565 17.1682)
(-19.6059 32.7872 -0.669479 17.2686 -1.09608 6.5452)
(-9.1772 31.8283 -0.839739 -14.9378 0.92662 -4.29795)
(-3.05531 13.0408 -0.260155 -39.2965 2.88876 -13.9677)
(-30.9529 9.89401 0.170424 32.3389 -2.59503 13.9589)
(-22.6434 23.4252 -0.649504 9.07876 -0.938629 4.16596)
(-10.1181 23.5507 -0.82123 -7.12817 0.706567 -0.679792)
(-1.40787 10.1219 -0.256726 -16.3902 2.46131 -4.54335)
(-43.3223 7.57722 -0.137274 15.2969 -1.53179 4.6467)
(-39.3443 15.1211 -1.18169 -1.07934 -0.558356 -4.70146)
(-9.54568 13.3 -1.53732 0.681244 0.243837 4.14843)
(3.48658 5.37024 -0.8445 -1.92789 1.19093 4.04886)
(189.787 86.4368 -0.0322332 427.634 -0.307051 238.871)
(36.6336 66.8164 -0.354394 93.2684 -0.426078 50.9694)
(-47.9075 58.7848 -0.436854 -96.065 -0.788868 -57.8665)
(-202.139 53.3898 -0.244594 -390.134 -0.888417 -242.927)
(-42.9733 33.8667 -0.0842644 167.554 -1.02754 47.8554)
(-3.88475 73.4042 -0.804396 75.2265 -0.676608 28.2724)
(-18.6984 67.1338 -0.968115 -76.0119 -0.394531 -36.7899)
(5.82968 20.5763 -0.479219 -168.67 -0.0433369 -64.2139)
(-21.5552 35.1251 -0.0998515 158.778 -1.45804 55.456)
(-18.0596 62.5717 -0.879979 52.2974 -0.726856 15.3149)
(-9.47296 57.7957 -1.04555 -53.2383 -0.00711241 -22.5387)
(-11.0985 21.29 -0.482546 -151.351 0.671166 -62.8583)
(-28.9557 29.2084 -0.0498011 113.086 -1.71722 37.6091)
(-18.8339 52.8351 -0.752202 38.8411 -0.724697 11.6437)
(-9.30942 49.0285 -0.886837 -38.3251 0.292703 -15.4708)
(-4.64025 17.9876 -0.379135 -105.564 1.21137 -41.3198)
(-29.9019 23.414 0.0354076 77.8764 -1.80561 26.6027)
(-19.3277 42.9062 -0.542436 27.1013 -0.687335 8.83279)
(-9.10898 40.426 -0.650915 -25.1133 0.471072 -9.26549)
(-4.04984 15.6659 -0.242612 -69.2567 1.53543 -26.5976)
(-31.5383 16.8591 0.0997413 49.2867 -1.73695 17.8332)
(-19.9174 32.9713 -0.384353 17.6449 -0.630444 6.89994)
(-9.36986 32.0588 -0.472344 -14.6064 0.50755 -4.31881)
(-3.14608 13.2031 -0.142505 -38.9326 1.60982 -14.331)
(-31.2272 9.91037 0.0779949 32.8726 -1.49678 14.3849)
(-22.9631 23.5478 -0.409268 9.41839 -0.546683 4.43619)
(-10.3636 23.7175 -0.499013 -6.86378 0.385908 -0.515228)
(-1.51521 10.2611 -0.158849 -16.0272 1.37972 -4.40481)
(-43.6509 7.61041 -0.126304 15.7866 -0.901975 4.81736)
(-39.8376 15.198 -0.763759 -0.80635 -0.328764 -4.57242)
(-10.0035 13.3615 -0.959997 0.872213 0.129875 4.37314)
(3.23176 5.43351 -0.523504 -1.65162 0.668731 4.45851)
(189.751 86.3921 -0.00774407 427.691 -0.149096 239.236)
(36.6419 66.666 -0.103846 93.4373 -0.157118 51.1699)
(-47.8671 58.599 -0.128769 -95.825 -0.24428 -57.9029)
(-201.924 53.2649 -0.0719092 -389.623 -0.253234 -242.988)
(-43.1621 33.8049 -0.0187713 167.53 -0.350091 48.513)
(-4.00829 73.3129 -0.239175 75.4025 -0.226925 28.5656)
(-18.7651 67.0482 -0.290425 -75.7385 -0.12909 -37.0326)
(5.73724 20.5545 -0.143783 -168.421 -0.00710274 -64.9762)
(-21.7544 35.1144 -0.0253968 158.865 -0.478432 56.18)
(-18.2327 62.5772 -0.268139 52.4781 -0.239041 15.5959)
(-9.5693 57.8193 -0.320324 -52.989 -0.0058048 -22.8037)
(-11.1339 21.3167 -0.147201 -151.084 0.216626 -63.6068)
(-29.162 29.2337 -0.0118433 113.224 -0.556207 38.2393)
(-19.0078 52.9083 -0.233144 39.0281 -0.23601 11.8925)
(-9.40443 49.1199 -0.275385 -38.0969 0.090672 -15.6779)
(-4.67544 18.0504 -0.116632 -105.32 0.387268 -41.9437)
(-30.0984 23.4533 0.0131714 78.0509 -0.583701 27.0848)
(-19.4886 43.0064 -0.17114 27.2901 -0.2235 9.04178)
(-9.19824 40.5454 -0.20488 -24.9108 0.148649 -9.3794)
(-4.08335 15.745 -0.0751823 -69.035 0.49114 -27.0096)
(-31.7158 16.89 0.0313671 49.4862 -0.563946 18.1693)
(-20.0632 33.0627 -0.125484 17.8271 -0.205962 7.07468)
(-9.45762 32.1727 -0.152565 -14.4341 0.160931 -4.32988)
(-3.18608 13.2826 -0.0454032 -38.7353 0.516304 -14.5092)
(-31.364 9.91767 0.0206696 33.1113 -0.490107 14.6215)
(-23.114 23.6093 -0.140249 9.58016 -0.179784 4.57448)
(-10.4772 23.7989 -0.167969 -6.7282 0.122137 -0.444748)
(-1.56339 10.3281 -0.0541143 -15.8366 0.443598 -4.36228)
(-43.8064 7.62782 -0.0513779 16.0123 -0.300375 4.95128)
(-40.0718 15.2383 -0.263972 -0.675789 -0.108892 -4.50063)
(-10.2225 13.3903 -0.326509 0.96823 0.0409363 4.45712)
(3.10277 5.46148 -0.177779 -1.51857 0.215358 4.598)
)
;

boundaryField
{
    interface
    {
        type            calculated;
        value           nonuniform List<symmTensor> 
192
(
(-20.6003 16.0968 4.07538 440.382 44.8531 123.804)
(-20.921 7.8985 3.65997 208.266 -13.5983 24.0536)
(-20.5963 10.5853 4.54785 208.494 -8.92396 45.3152)
(-20.8479 9.01482 4.6767 150.271 -12.519 36.0393)
(-21.506 7.0459 4.86498 105.806 -11.5604 32.8982)
(-22.4416 4.51298 4.94411 67.7591 -10.0174 29.1445)
(-23.3231 2.05446 4.80714 44.9046 -7.9573 29.0339)
(-22.6238 -0.541847 4.27849 33.0413 -4.50066 31.7491)
(-23.346 17.1929 2.8545 434.425 27.5655 130.925)
(-24.0527 9.05271 2.87397 229.839 -5.22413 40.825)
(-24.5519 10.6336 3.07856 206.306 -12.7249 43.5237)
(-25.5287 9.16997 3.11115 149.645 -15.9774 36.056)
(-26.7354 7.03626 3.16534 102.638 -15.9068 31.7726)
(-27.9126 4.40563 3.20346 64.7209 -14.0014 28.7952)
(-28.37 1.68999 3.13464 42.5883 -10.7953 29.6514)
(-25.447 -1.19208 2.8395 32.7725 -6.06092 34.3284)
(-25.1253 18.2673 1.8218 442.532 13.6603 141.73)
(-25.8611 9.15492 2.0669 227.158 -3.41856 53.1481)
(-26.5272 10.6672 2.15728 205.853 -9.48517 50.3411)
(-27.6913 9.16461 2.11844 148.84 -12.5145 37.7208)
(-29.028 6.96285 2.1028 101.361 -12.9743 29.3273)
(-30.1746 4.25265 2.10804 63.5288 -11.7162 23.652)
(-30.2494 1.41883 2.08083 42.2938 -9.17219 23.0961)
(-26.1945 -1.62725 1.96795 32.2735 -4.95978 26.3527)
(-26.4215 18.8264 1.15321 447.229 5.6804 148.837)
(-27.1305 9.16912 1.48991 225.355 -2.93241 63.1649)
(-27.822 10.6857 1.57001 205.793 -6.7158 58.6136)
(-29.033 9.17545 1.53869 149.269 -8.85731 42.7802)
(-30.3878 6.95647 1.51231 102.016 -9.40977 31.2342)
(-31.4626 4.20589 1.50481 64.4648 -8.73207 23.1044)
(-31.2733 1.3065 1.49011 43.8611 -7.07378 20.9728)
(-26.543 -1.8064 1.43152 33.9093 -4.04858 23.2784)
(-27.3678 19.0696 0.726921 449.073 1.70524 152.6)
(-28.0525 9.15935 1.05276 224.385 -2.53758 69.4013)
(-28.7366 10.6823 1.12664 205.792 -4.72042 64.5035)
(-29.9526 9.17689 1.11463 149.725 -6.03263 47.0904)
(-31.2942 6.9561 1.0968 102.803 -6.45625 33.6532)
(-32.3081 4.18288 1.08878 65.5026 -6.12544 23.8629)
(-31.9453 1.23987 1.07969 45.2882 -5.12459 20.6124)
(-26.7682 -1.91763 1.04458 35.3241 -3.03234 22.136)
(-28.0378 19.1572 0.444142 449.51 0.0391118 154.429)
(-28.7017 9.14125 0.702628 223.851 -1.97886 72.9827)
(-29.3731 10.6717 0.761923 205.858 -3.1711 68.1931)
(-30.582 9.17409 0.761543 150.104 -3.90849 50.074)
(-31.9089 6.95443 0.752739 103.413 -4.17696 35.6365)
(-32.8786 4.16747 0.747571 66.2848 -4.02336 24.9054)
(-32.4041 1.19492 0.741634 46.3159 -3.44975 21.0076)
(-26.929 -1.98554 0.717686 36.4573 -2.10389 22.1614)
(-28.4676 19.1804 0.238809 449.427 -0.375803 155.235)
(-29.12 9.12453 0.401137 223.54 -1.25591 74.8522)
(-29.7825 10.6608 0.438358 205.917 -1.84078 70.2412)
(-30.9839 9.17002 0.440974 150.353 -2.2071 51.8336)
(-32.3 6.9513 0.43756 103.79 -2.35001 36.9142)
(-33.2423 4.15507 0.434868 66.7535 -2.28415 25.7059)
(-32.7002 1.1631 0.429712 46.924 -1.99106 21.4753)
(-27.0418 -2.02711 0.411633 37.1628 -1.24378 22.4632)
(-28.6687 19.1824 0.0744939 449.295 -0.18496 155.532)
(-29.3147 9.11365 0.129127 223.398 -0.429875 75.6431)
(-29.9692 10.653 0.141394 205.956 -0.604835 71.1449)
(-31.1645 9.1665 0.142509 150.484 -0.715013 52.64)
(-32.4744 6.94834 0.141655 103.975 -0.759495 37.5311)
(-33.4048 4.14557 0.140783 66.9755 -0.741428 26.1278)
(-32.8192 1.14117 0.138056 47.2121 -0.652373 21.7685)
(-27.0526 -2.0429 0.129794 37.515 -0.415324 22.7113)
(38.6497 63.0083 -2.0219 275.649 2.58462 -9.37013)
(-72.7136 31.3013 -4.37371 110.748 -1.59291 -6.05833)
(-47.6513 42.483 -5.52834 125.232 -1.52069 -2.88557)
(-48.7974 38.4617 -6.28566 86.5452 -1.17803 -0.490627)
(-44.0539 33.9743 -6.92127 59.1492 -0.807991 1.11525)
(-42.6521 26.767 -7.50609 34.1337 -0.672355 1.97948)
(-42.7574 18.6127 -8.17395 17.7288 -0.837039 2.09616)
(-51.9477 11.6817 -9.39508 4.77896 -1.08558 1.33401)
(-3.73057 44.68 -1.50796 54.9542 -0.490531 -8.41659)
(-34.8697 67.4481 -2.92091 33.0173 -1.64146 -7.05177)
(-34.285 72.3009 -3.53567 32.5139 -1.64537 -5.21619)
(-33.2442 68.0449 -3.91533 20.8213 -1.28616 -3.68698)
(-31.5967 60.0389 -4.22041 11.7494 -0.833816 -2.65182)
(-31.3158 49.0554 -4.56606 3.66988 -0.501314 -2.10217)
(-32.7607 36.6167 -5.13482 -1.91334 -0.346958 -1.95903)
(-43.084 21.8566 -6.56974 -5.52889 -0.219787 -1.89447)
(-24.4922 37.8525 -1.42875 -87.2423 -0.0497342 -7.74016)
(6.83591 61.6492 -2.62195 -46.364 -1.37286 -7.28672)
(3.11937 67.1714 -3.09851 -46.8978 -1.5014 -6.1732)
(1.23713 63.8815 -3.27208 -36.6045 -1.24982 -5.12349)
(-1.67824 57.0036 -3.41765 -28.5714 -0.820412 -4.41737)
(-4.32066 47.3948 -3.64908 -21.1104 -0.428859 -4.06672)
(-7.08199 35.7233 -4.13557 -15.0054 -0.15153 -4.00788)
(-6.39899 19.4713 -5.448 -6.65621 0.0710872 -3.94997)
(-64.1887 38.1287 -1.60298 -274.376 3.68586 -6.88255)
(42.4722 17.9303 -2.7861 -116.059 -1.02661 -6.68086)
(16.8288 28.0062 -3.2205 -128.385 -1.31853 -5.81552)
(16.8571 26.4962 -3.4314 -91.4903 -1.25523 -4.95289)
(11.1397 25.1174 -3.55293 -64.9936 -0.876952 -4.36437)
(7.88866 21.6539 -3.74973 -40.3417 -0.464959 -4.04907)
(5.98724 16.5148 -4.18338 -22.2275 -0.0973196 -3.92793)
(9.82911 7.96208 -5.36426 -8.04694 0.297255 -3.88847)
(-4.52749 -12.0338 -1.22925 -386.201 -40.8811 -132.649)
(-3.41455 -5.8429 0.70169 -197.646 8.02324 -28.1017)
(-2.57614 -7.65375 0.624123 -190.235 4.37559 -41.3171)
(-1.78073 -5.9861 0.933018 -133.828 8.72135 -26.3734)
(-1.14567 -4.27739 1.05018 -90.1574 8.93978 -19.7253)
(-0.48436 -2.44365 1.18039 -52.0961 8.52798 -13.8839)
(0.560979 -1.20674 1.31649 -25.3901 6.8458 -11.1616)
(3.4157 -1.61336 1.36693 -11.3754 2.6291 -11.0717)
(-5.28553 -12.7258 -1.16465 -376.235 -28.2116 -139.077)
(-4.91863 -6.96571 -0.218862 -220.263 -0.651183 -47.4913)
(-4.67537 -7.68485 0.10167 -190.998 7.8647 -41.9475)
(-4.2643 -6.07001 0.381961 -136.332 12.5263 -29.6882)
(-3.81957 -4.17377 0.551164 -90.2773 13.9302 -22.3822)
(-3.26777 -2.25291 0.639649 -51.826 13.2784 -17.2654)
(-2.2432 -0.858901 0.639833 -24.4293 10.6274 -14.5338)
(0.784851 -1.17812 0.497755 -11.427 5.25487 -14.6709)
(-5.71656 -13.416 -0.750051 -382.429 -15.8145 -151.847)
(-5.50644 -7.0992 -0.286194 -219.515 -1.02564 -63.9118)
(-5.44558 -7.72236 -0.0274732 -191.983 5.67816 -54.1787)
(-5.1566 -6.05957 0.230823 -137.209 9.87241 -37.4775)
(-4.74922 -4.07833 0.415251 -90.5025 11.5971 -26.1758)
(-4.16277 -2.08762 0.511408 -51.648 11.3963 -17.9183)
(-3.05731 -0.62164 0.497844 -23.8652 9.40732 -12.5875)
(-0.174897 -0.733357 0.279641 -9.9003 4.64544 -9.67203)
(-6.01185 -13.678 -0.441826 -385.428 -8.34842 -159.609)
(-5.83848 -7.10485 -0.220942 -218.447 -0.469651 -75.7006)
(-5.85018 -7.69592 -0.0431776 -191.746 3.85455 -64.5021)
(-5.60736 -5.99814 0.15262 -137.213 6.87753 -44.7468)
(-5.19823 -3.97341 0.310472 -90.4414 8.39787 -30.0979)
(-4.5668 -1.9389 0.3978 -51.449 8.52016 -18.8905)
(-3.4005 -0.417887 0.383602 -23.3048 7.25051 -11.0308)
(-0.581372 -0.415175 0.185636 -8.94301 3.67436 -5.93716)
(-6.22012 -13.7044 -0.249467 -385.91 -4.21292 -163.549)
(-6.05999 -7.07038 -0.147239 -217.631 -0.0454527 -82.8855)
(-6.10159 -7.63772 -0.0276862 -191.151 2.61618 -71.2655)
(-5.87444 -5.91603 0.108863 -136.751 4.58503 -49.9048)
(-5.45229 -3.86547 0.225988 -90.0539 5.69994 -33.1528)
(-4.78497 -1.80449 0.292055 -51.0198 5.91911 -19.8606)
(-3.5905 -0.25117 0.275419 -22.6475 5.15046 -10.1459)
(-0.835853 -0.180489 0.111045 -8.13248 2.63921 -3.58608)
(-6.3577 -13.6428 -0.133593 -385.338 -2.0064 -165.377)
(-6.20266 -7.02448 -0.0872005 -216.976 0.143414 -86.9817)
(-6.2544 -7.57521 -0.00942674 -190.55 1.71264 -75.2997)
(-6.02975 -5.83849 0.079753 -136.207 2.90925 -53.1367)
(-5.59468 -3.77152 0.1577 -89.5564 3.63364 -35.1934)
(-4.90458 -1.69651 0.200572 -50.5212 3.82355 -20.6331)
(-3.7009 -0.127445 0.183709 -22.0359 3.37413 -9.75309)
(-1.00403 -0.0205289 0.0621028 -7.54897 1.74363 -2.38967)
(-6.44003 -13.5722 -0.0637539 -384.594 -0.858611 -166.146)
(-6.28706 -6.98511 -0.0438218 -216.496 0.154227 -89.1492)
(-6.3412 -7.52534 0.000386537 -190.089 0.977614 -77.5062)
(-6.11514 -5.7805 0.0506197 -135.775 1.61599 -54.9651)
(-5.67107 -3.70424 0.0944203 -89.1454 2.01622 -36.3992)
(-4.96914 -1.62258 0.11752 -50.1154 2.13472 -21.145)
(-3.76488 -0.0469649 0.105136 -21.5813 1.89797 -9.61474)
(-1.11101 0.0787941 0.0298779 -7.16461 0.985041 -1.8528)
(-6.47715 -13.5295 -0.0185923 -384.13 -0.233777 -166.413)
(-6.32434 -6.96299 -0.0129703 -216.24 0.062426 -90.0774)
(-6.37878 -7.49836 0.00138294 -189.84 0.318637 -78.4719)
(-6.1517 -5.75021 0.0175331 -135.543 0.518813 -55.7819)
(-5.70414 -3.66977 0.0315218 -88.9205 0.646206 -36.9523)
(-4.99775 -1.58517 0.038694 -49.8947 0.685736 -21.3968)
(-3.79197 -0.0081775 0.0342952 -21.342 0.611597 -9.58015)
(-1.16948 0.125897 0.00846229 -6.98007 0.318123 -1.66676)
(-56.157 13.0064 -2.52929 -0.416398 -2.33336 1.94093)
(-50.9468 12.3458 0.96192 1.43086 -2.12431 6.14164)
(-51.919 12.4754 0.423295 2.87237 -1.6571 1.12077)
(-52.5028 12.666 -0.0448849 3.9951 -1.2766 -1.09986)
(-53.4002 12.8676 -0.346289 4.82639 -0.956155 -2.35891)
(-54.0797 13.0281 -0.383142 5.41246 -0.674372 -2.70761)
(-54.5364 13.1388 -0.284942 5.77068 -0.411395 -2.72502)
(-54.7946 13.19 -0.106345 5.86988 -0.141437 -2.71693)
(-48.8766 9.44621 -4.31555 -2.27088 -0.63969 -7.06197)
(-44.1479 8.30062 -2.1987 -1.28465 -0.640231 -6.13902)
(-44.5274 8.12524 -1.86924 -0.268721 -0.485689 -6.37581)
(-45.8236 8.15951 -2.03206 0.561 -0.354295 -6.29516)
(-47.1239 8.23265 -1.98027 1.17174 -0.25866 -6.32296)
(-48.0933 8.29833 -1.61273 1.60016 -0.180937 -6.28017)
(-48.7086 8.34917 -1.03927 1.87815 -0.107883 -6.21667)
(-48.9836 8.38446 -0.35815 2.03751 -0.0355435 -6.1594)
(-5.01858 5.91877 -4.23227 -3.77116 0.0753565 -1.32304)
(-6.832 4.92467 -3.86595 -3.0501 0.0283814 -2.37421)
(-8.69418 4.67627 -3.53889 -2.29801 0.0421189 -0.314086)
(-10.5013 4.62053 -3.24733 -1.70287 0.0406369 1.4649)
(-11.8899 4.61059 -2.796 -1.27685 0.0283173 2.54179)
(-12.8506 4.61095 -2.13484 -0.985009 0.0161644 3.08032)
(-13.4487 4.61335 -1.3312 -0.800749 0.0100752 3.31204)
(-13.7283 4.61412 -0.451939 -0.69609 0.00456841 3.39779)
(12.3379 4.75758 -3.29319 -3.66191 0.467276 -3.74234)
(8.50481 3.86855 -2.82513 -3.09266 0.230506 -6.18188)
(7.14324 3.5342 -2.63656 -2.59804 0.144536 -1.29441)
(5.81452 3.39806 -2.2647 -2.20429 0.0867845 2.15688)
(4.88856 3.31743 -1.86165 -1.93081 0.0465495 4.27246)
(4.2038 3.2673 -1.37811 -1.75009 0.0206297 5.2722)
(3.7584 3.23597 -0.846277 -1.64182 0.00768005 5.66957)
(3.53385 3.21769 -0.285815 -1.59298 0.00208741 5.78574)
)
;
    }
    symmetry
    {
        type            symmetryPlane;
    }
    bottom
    {
        type            calculated;
        value           nonuniform List<symmTensor> 
32
(
(208.001 81.0032 3.63577 315.827 92.0476 208.933)
(205.117 91.0593 2.03474 309.996 45.7202 202.086)
(211.449 95.9704 1.03642 319.372 22.1829 207.205)
(215.158 97.8156 0.479815 325.006 10.0995 210.561)
(216.86 98.4162 0.196446 327.628 4.11415 212.169)
(217.573 98.5631 0.0652842 328.743 1.36583 212.863)
(217.832 98.5694 0.0141547 329.156 0.296167 213.121)
(217.907 98.5507 0.00101107 329.277 0.0211602 213.198)
(40.0459 32.2621 0.451431 59.5387 25.6809 39.8381)
(42.4929 42.9039 0.310368 62.59 13.295 41.5875)
(45.4803 44.7094 0.150328 66.9971 6.19188 44.4156)
(46.9012 44.427 0.0594843 69.1779 2.46813 45.8338)
(47.6364 43.7842 0.0163898 70.3429 0.690398 46.5973)
(48.0436 43.2311 -0.000574786 71.0019 -0.0245292 47.0306)
(48.2668 42.8638 -0.00432527 71.3676 -0.186195 47.2711)
(48.3668 42.6844 -0.00202071 71.5325 -0.08736 47.3795)
(-57.3342 27.4958 -0.477107 -85.953 -29.7445 -57.2591)
(-50.936 37.6943 -0.37922 -77.0705 -17.3194 -51.5871)
(-51.3176 38.809 -0.229842 -77.7089 -10.1926 -52.1324)
(-51.5682 38.0353 -0.132197 -78.0292 -5.98074 -52.3881)
(-51.5434 37.0713 -0.0745107 -77.9308 -3.45879 -52.335)
(-51.3871 36.3102 -0.0406934 -77.6522 -1.92884 -52.151)
(-51.2216 35.8162 -0.0200878 -77.377 -0.965414 -51.9663)
(-51.1216 35.577 -0.006037 -77.2146 -0.29211 -51.8569)
(-212.031 57.6001 -3.21397 -311.495 -85.2726 -209.444)
(-201.115 64.9764 -1.94294 -297.002 -46.0615 -202.479)
(-206.331 66.9992 -1.07615 -304.675 -24.6435 -208.861)
(-209.019 67.0304 -0.566956 -308.497 -12.9511 -211.843)
(-209.779 66.5094 -0.287505 -309.514 -6.61548 -212.641)
(-209.698 65.9552 -0.139102 -309.335 -3.22794 -212.534)
(-209.393 65.5442 -0.0610339 -308.855 -1.42558 -212.198)
(-209.176 65.3315 -0.0169787 -308.524 -0.397938 -211.964)
)
;
    }
}


// ************************************************************************* //
