/*--------------------------------*- C++ -*----------------------------------*\
| =========                 |                                                 |
| \\      /  F ield         | foam-extend: Open Source CFD                    |
|  \\    /   O peration     | Version:     3.1                                |
|   \\  /    A nd           | Web:         http://www.extend-project.de       |
|    \\/     M anipulation  |                                                 |
\*---------------------------------------------------------------------------*/
FoamFile
{
    version     2.0;
    format      ascii;
    class       volVectorField;
    location    "3.6";
    object      U;
}
// * * * * * * * * * * * * * * * * * * * * * * * * * * * * * * * * * * * * * //

dimensions      [0 1 -1 0 0 0 0];

internalField   nonuniform List<vector> 
256
(
(1.21849e-06 5.67076e-06 1.14858e-05)
(-3.50153e-06 1.24742e-06 2.15404e-06)
(-2.77293e-06 -2.58242e-06 -7.21202e-06)
(4.03239e-06 -7.85552e-06 -1.80377e-05)
(1.85455e-05 2.29388e-05 1.73648e-05)
(1.43602e-05 4.73977e-06 2.97266e-06)
(1.48313e-05 -1.23519e-05 -1.3058e-05)
(1.98483e-05 -3.18831e-05 -2.79009e-05)
(5.03339e-05 3.58806e-05 1.98013e-05)
(4.62826e-05 6.676e-06 2.5068e-06)
(4.61912e-05 -2.11546e-05 -1.5479e-05)
(4.97756e-05 -5.14635e-05 -3.38222e-05)
(9.56715e-05 4.52261e-05 1.87333e-05)
(9.17019e-05 6.8298e-06 8.45949e-07)
(9.0654e-05 -2.96267e-05 -1.74934e-05)
(9.20639e-05 -6.87102e-05 -3.69138e-05)
(0.000150956 5.0673e-05 1.51058e-05)
(0.000146527 5.52993e-06 -2.15109e-06)
(0.00014424 -3.71734e-05 -1.97239e-05)
(0.000143504 -8.22861e-05 -3.9089e-05)
(0.000211975 5.29166e-05 9.62921e-06)
(0.000206706 3.35715e-06 -6.42446e-06)
(0.00020295 -4.34193e-05 -2.27154e-05)
(0.000200104 -9.19961e-05 -4.13496e-05)
(0.000274535 5.27916e-05 2.98884e-06)
(0.000268129 9.23157e-07 -1.19528e-05)
(0.000262592 -4.79418e-05 -2.68389e-05)
(0.000257625 -9.77307e-05 -4.44612e-05)
(0.000335556 5.12992e-05 -4.92615e-06)
(0.000327175 -9.95198e-07 -1.89806e-05)
(0.000319121 -5.02796e-05 -3.2287e-05)
(0.000311838 -0.000100117 -4.91333e-05)
(5.5595e-06 5.67474e-06 8.12627e-06)
(1.5199e-06 1.32382e-06 1.69491e-06)
(2.21255e-06 -1.821e-06 -4.7573e-06)
(7.92366e-06 -6.73388e-06 -1.23471e-05)
(3.05431e-05 2.30343e-05 1.28674e-05)
(2.52613e-05 5.0158e-06 2.26521e-06)
(2.60978e-05 -1.08017e-05 -9.58239e-06)
(3.28713e-05 -3.0173e-05 -2.08148e-05)
(6.70914e-05 3.70043e-05 1.5495e-05)
(6.25096e-05 7.43885e-06 1.87821e-06)
(6.27211e-05 -1.99835e-05 -1.23478e-05)
(6.72622e-05 -5.06842e-05 -2.6874e-05)
(0.000115269 4.73162e-05 1.55295e-05)
(0.00011086 8.29576e-06 5.71883e-07)
(0.000110133 -2.83698e-05 -1.46844e-05)
(0.000112425 -6.81442e-05 -3.08963e-05)
(0.000171844 5.38006e-05 1.35155e-05)
(0.000167186 7.82162e-06 -1.80791e-06)
(0.000165294 -3.56037e-05 -1.72086e-05)
(0.000165335 -8.16286e-05 -3.41396e-05)
(0.000233205 5.70362e-05 9.93285e-06)
(0.000227859 6.47264e-06 -5.24334e-06)
(0.000224605 -4.14053e-05 -2.03129e-05)
(0.000222518 -9.10397e-05 -3.74035e-05)
(0.000295648 5.78993e-05 5.22947e-06)
(0.00028923 4.78086e-06 -9.70316e-06)
(0.000284317 -4.55834e-05 -2.42093e-05)
(0.000280168 -9.65937e-05 -4.11456e-05)
(0.000356757 5.73324e-05 -8.31768e-07)
(0.000348407 3.3833e-06 -1.52431e-05)
(0.000341021 -4.80245e-05 -2.87948e-05)
(0.00033453 -9.93031e-05 -4.53348e-05)
(8.36428e-06 6.46956e-06 6.03851e-06)
(3.97723e-06 1.5233e-06 1.32431e-06)
(4.60153e-06 -1.79695e-06 -3.4264e-06)
(1.0467e-05 -7.35488e-06 -8.93482e-06)
(3.92306e-05 2.46542e-05 9.57986e-06)
(3.31047e-05 5.60009e-06 1.67689e-06)
(3.39955e-05 -1.03918e-05 -7.16865e-06)
(4.16157e-05 -3.09825e-05 -1.56108e-05)
(8.02142e-05 3.89069e-05 1.19199e-05)
(7.49524e-05 8.37568e-06 1.27651e-06)
(7.52005e-05 -1.94453e-05 -9.83328e-06)
(8.0416e-05 -5.13455e-05 -2.1155e-05)
(0.000131614 4.93639e-05 1.24857e-05)
(0.000126739 9.53023e-06 1.84323e-07)
(0.000125996 -2.76673e-05 -1.22888e-05)
(0.000128669 -6.85021e-05 -2.54726e-05)
(0.000190438 5.60759e-05 1.15825e-05)
(0.000185452 9.37708e-06 -1.7119e-06)
(0.000183492 -3.47258e-05 -1.49231e-05)
(0.000183669 -8.17176e-05 -2.92944e-05)
(0.00025322 5.97224e-05 9.45636e-06)
(0.000247671 8.36782e-06 -4.41071e-06)
(0.000244336 -4.04072e-05 -1.79566e-05)
(0.000242216 -9.09994e-05 -3.30653e-05)
(0.000316659 6.12529e-05 6.35429e-06)
(0.000310116 6.9998e-06 -7.86486e-06)
(0.000305148 -4.46321e-05 -2.14262e-05)
(0.000300904 -9.67293e-05 -3.6926e-05)
(0.000378845 6.16004e-05 1.96979e-06)
(0.000370462 5.87248e-06 -1.20383e-05)
(0.000363036 -4.73289e-05 -2.50154e-05)
(0.000356417 -9.99368e-05 -4.03904e-05)
(1.02848e-05 7.1474e-06 4.5114e-06)
(5.43557e-06 1.69407e-06 1.00332e-06)
(5.99628e-06 -1.84462e-06 -2.53545e-06)
(1.21948e-05 -7.97716e-06 -6.55962e-06)
(4.56546e-05 2.63966e-05 7.14678e-06)
(3.88139e-05 6.16065e-06 1.20853e-06)
(3.96443e-05 -1.03897e-05 -5.43519e-06)
(4.7814e-05 -3.23051e-05 -1.17823e-05)
(9.03875e-05 4.09422e-05 9.06768e-06)
(8.4587e-05 9.20132e-06 8.19759e-07)
(8.47578e-05 -1.93651e-05 -7.77951e-06)
(9.03333e-05 -5.26136e-05 -1.65264e-05)
(0.000144873 5.14262e-05 9.80328e-06)
(0.000139627 1.04958e-05 -8.33533e-08)
(0.000138767 -2.74977e-05 -1.00795e-05)
(0.000141581 -6.95581e-05 -2.06e-05)
(0.000206086 5.81285e-05 9.5347e-06)
(0.000200869 1.04397e-05 -1.56686e-06)
(0.000198753 -3.4502e-05 -1.25474e-05)
(0.000198879 -8.26077e-05 -2.44108e-05)
(0.000270677 6.18923e-05 8.36718e-06)
(0.000264998 9.53279e-06 -3.62638e-06)
(0.000261488 -4.021e-05 -1.52716e-05)
(0.000259179 -9.18988e-05 -2.81323e-05)
(0.000335565 6.37629e-05 6.40226e-06)
(0.000328963 8.29382e-06 -6.21247e-06)
(0.000323824 -4.45734e-05 -1.8175e-05)
(0.000319319 -9.78852e-05 -3.16889e-05)
(0.000399228 6.46711e-05 3.30571e-06)
(0.000390831 7.35033e-06 -9.27782e-06)
(0.000383212 -4.74635e-05 -2.08739e-05)
(0.000376273 -0.000101515 -3.44302e-05)
(1.16383e-05 7.67267e-06 3.29216e-06)
(6.39952e-06 1.82566e-06 7.28977e-07)
(6.91214e-06 -1.89827e-06 -1.85544e-06)
(1.3407e-05 -8.47356e-06 -4.74831e-06)
(5.03729e-05 2.78883e-05 5.21377e-06)
(4.29676e-05 6.61312e-06 8.38357e-07)
(4.37234e-05 -1.05255e-05 -4.05484e-06)
(5.22863e-05 -3.35756e-05 -8.73043e-06)
(9.8106e-05 4.27644e-05 6.69716e-06)
(9.19006e-05 9.85223e-06 4.97884e-07)
(9.19769e-05 -1.95266e-05 -5.96717e-06)
(9.77532e-05 -5.40397e-05 -1.25377e-05)
(0.000155256 5.32863e-05 7.4033e-06)
(0.000149732 1.12146e-05 -2.13376e-07)
(0.00014875 -2.76603e-05 -7.91355e-06)
(0.000151594 -7.0948e-05 -1.59996e-05)
(0.000218626 5.99258e-05 7.4473e-06)
(0.000213266 1.11627e-05 -1.32794e-06)
(0.000211018 -3.46951e-05 -1.00029e-05)
(0.000211037 -8.39588e-05 -1.93403e-05)
(0.000285018 6.36792e-05 6.86472e-06)
(0.000279269 1.02494e-05 -2.83528e-06)
(0.000275614 -4.04952e-05 -1.22456e-05)
(0.000273103 -9.33329e-05 -2.25839e-05)
(0.000351421 6.57008e-05 5.67479e-06)
(0.0003448 9.03879e-06 -4.69125e-06)
(0.000339521 -4.5014e-05 -1.45167e-05)
(0.000334773 -9.95659e-05 -2.5552e-05)
(0.00041656 6.69428e-05 3.56264e-06)
(0.000408172 8.1959e-06 -6.85695e-06)
(0.000400404 -4.80655e-05 -1.64497e-05)
(0.000393208 -0.00010354 -2.76012e-05)
(1.25744e-05 8.05524e-06 2.25238e-06)
(7.04575e-06 1.92089e-06 4.92888e-07)
(7.52532e-06 -1.94435e-06 -1.28043e-06)
(1.42443e-05 -8.84002e-06 -3.24443e-06)
(5.37064e-05 2.90324e-05 3.56878e-06)
(4.58895e-05 6.94471e-06 5.43906e-07)
(4.65855e-05 -1.06901e-05 -2.83935e-06)
(5.54252e-05 -3.46167e-05 -6.07386e-06)
(0.000103679 4.42081e-05 4.62065e-06)
(9.71843e-05 1.03229e-05 2.80797e-07)
(9.71827e-05 -1.97711e-05 -4.25072e-06)
(0.000103078 -5.53246e-05 -8.85633e-06)
(0.000162904 5.47829e-05 5.18558e-06)
(0.000157191 1.1716e-05 -2.32087e-07)
(0.000156114 -2.79594e-05 -5.71613e-06)
(0.000158947 -7.23087e-05 -1.14702e-05)
(0.000228045 6.13647e-05 5.33749e-06)
(0.000222589 1.16345e-05 -1.00775e-06)
(0.000220239 -3.50635e-05 -7.28785e-06)
(0.000220147 -8.53613e-05 -1.40359e-05)
(0.000295957 6.50725e-05 5.08229e-06)
(0.000290167 1.06779e-05 -2.03303e-06)
(0.000286407 -4.09688e-05 -8.94358e-06)
(0.00028372 -9.48383e-05 -1.65159e-05)
(0.000363673 6.71507e-05 4.40451e-06)
(0.000357048 9.45311e-06 -3.27398e-06)
(0.000351668 -4.56233e-05 -1.05619e-05)
(0.000346716 -0.000101264 -1.87244e-05)
(0.00043007 6.85812e-05 3.04693e-06)
(0.000421696 8.65979e-06 -4.70622e-06)
(0.000413831 -4.87998e-05 -1.18503e-05)
(0.000406441 -0.000105487 -2.01357e-05)
(1.31642e-05 8.30566e-06 1.31604e-06)
(7.44689e-06 1.98276e-06 2.84548e-07)
(7.90665e-06 -1.97752e-06 -7.54906e-07)
(1.47741e-05 -9.08194e-06 -1.89893e-06)
(5.58417e-05 2.9801e-05 2.08652e-06)
(4.77579e-05 7.15981e-06 3.04077e-07)
(4.84146e-05 -1.08265e-05 -1.69019e-06)
(5.74318e-05 -3.53475e-05 -3.59791e-06)
(0.0001073 4.5197e-05 2.71423e-06)
(0.00010062 1.06249e-05 1.38281e-07)
(0.000100565 -1.99903e-05 -2.555e-06)
(0.000106528 -5.62767e-05 -5.29303e-06)
(0.000167939 5.58196e-05 3.07491e-06)
(0.000162107 1.20293e-05 -1.7125e-07)
(0.000160967 -2.82424e-05 -3.46184e-06)
(0.000163778 -7.33627e-05 -6.91356e-06)
(0.000234328 6.23624e-05 3.21076e-06)
(0.000228812 1.19154e-05 -6.28284e-07)
(0.000226394 -3.54152e-05 -4.43307e-06)
(0.000226217 -8.64789e-05 -8.51817e-06)
(0.000303329 6.60274e-05 3.11831e-06)
(0.000297517 1.09151e-05 -1.22261e-06)
(0.000293689 -4.1406e-05 -5.44412e-06)
(0.00029088 -9.60426e-05 -1.00641e-05)
(0.000371998 6.81203e-05 2.77761e-06)
(0.000365377 9.66632e-06 -1.93306e-06)
(0.000359937 -4.6159e-05 -6.41044e-06)
(0.000354856 -0.000102601 -1.14182e-05)
(0.000439297 6.96485e-05 2.02192e-06)
(0.000430938 8.89326e-06 -2.74712e-06)
(0.000423016 -4.94204e-05 -7.14639e-06)
(0.000415497 -0.00010698 -1.22427e-05)
(1.34501e-05 8.42937e-06 4.33196e-07)
(7.63971e-06 2.01319e-06 9.29718e-08)
(8.09006e-06 -1.99486e-06 -2.49853e-07)
(1.50312e-05 -9.20239e-06 -6.26074e-07)
(5.68843e-05 3.01859e-05 6.87131e-07)
(4.86699e-05 7.26518e-06 9.76081e-08)
(4.93075e-05 -1.09025e-05 -5.62051e-07)
(5.84115e-05 -3.57233e-05 -1.1933e-06)
(0.000109084 4.56975e-05 8.95778e-07)
(0.000102313 1.07717e-05 4.10254e-08)
(0.000102231 -2.01163e-05 -8.53308e-07)
(0.000108226 -5.678e-05 -1.76264e-06)
(0.00017044 5.63482e-05 1.01941e-06)
(0.00016455 1.21792e-05 -6.24231e-08)
(0.000163377 -2.84087e-05 -1.15995e-06)
(0.000166175 -7.39324e-05 -2.31109e-06)
(0.000237466 6.28719e-05 1.07185e-06)
(0.000231923 1.20457e-05 -2.13341e-07)
(0.000229472 -3.56224e-05 -1.48805e-06)
(0.000229249 -8.70909e-05 -2.85621e-06)
(0.000307035 6.65116e-05 1.05073e-06)
(0.000301214 1.10196e-05 -4.07981e-07)
(0.000297353 -4.16601e-05 -1.82766e-06)
(0.000294479 -9.67029e-05 -3.38047e-06)
(0.000376203 6.86042e-05 9.47783e-07)
(0.000369585 9.7547e-06 -6.39118e-07)
(0.000364117 -4.64643e-05 -2.14873e-06)
(0.000358969 -0.000103327 -3.83609e-06)
(0.000443966 7.01697e-05 7.0565e-07)
(0.000435621 8.98786e-06 -9.02903e-07)
(0.000427672 -4.97682e-05 -2.3878e-06)
(0.000420089 -0.000107781 -4.10701e-06)
)
;

boundaryField
{
    interface
    {
        type            calculated;
        value           nonuniform List<vector> 
192
(
(9.38187e-06 1.23266e-05 1.39128e-05)
(2.31471e-05 3.32857e-05 2.37045e-05)
(5.52871e-05 5.32761e-05 2.82058e-05)
(9.9918e-05 6.802e-05 2.7988e-05)
(0.000154894 7.74507e-05 2.43506e-05)
(0.000215756 8.18843e-05 1.8373e-05)
(0.000278399 8.24531e-05 1.11071e-05)
(0.00033987 8.08205e-05 2.95819e-06)
(1.4362e-05 1.649e-05 9.81829e-06)
(3.59449e-05 3.59985e-05 1.75415e-05)
(7.21598e-05 5.58524e-05 2.21377e-05)
(0.000119605 7.0728e-05 2.34616e-05)
(0.000175793 8.05698e-05 2.21758e-05)
(0.000237072 8.57041e-05 1.89467e-05)
(0.000299795 8.72456e-05 1.44749e-05)
(0.000361422 8.71323e-05 8.92393e-06)
(1.89337e-05 2.03559e-05 7.25969e-06)
(4.51544e-05 3.97667e-05 1.30466e-05)
(8.56933e-05 5.93372e-05 1.7083e-05)
(0.000136102 7.38336e-05 1.90367e-05)
(0.000194357 8.34721e-05 1.91364e-05)
(0.000256892 8.87544e-05 1.77177e-05)
(0.000320548 9.09071e-05 1.5198e-05)
(0.0003831 9.20755e-05 1.15401e-05)
(2.23306e-05 2.33381e-05 5.38796e-06)
(5.20567e-05 4.31814e-05 9.71024e-06)
(9.62207e-05 6.28499e-05 1.303e-05)
(0.000149509 7.70216e-05 1.50342e-05)
(0.000209993 8.63551e-05 1.57747e-05)
(0.000274222 9.15512e-05 1.54338e-05)
(0.00033928 9.39729e-05 1.41978e-05)
(0.000403252 9.5887e-05 1.18969e-05)
(2.48095e-05 2.55618e-05 3.91586e-06)
(5.71716e-05 4.59698e-05 7.07192e-06)
(0.000104222 6.59156e-05 9.64293e-06)
(0.000160025 7.99056e-05 1.13956e-05)
(0.000222522 8.89816e-05 1.23212e-05)
(0.000288477 9.40332e-05 1.25092e-05)
(0.000355006 9.65355e-05 1.2016e-05)
(0.00042041 9.88688e-05 1.06269e-05)
(2.65537e-05 2.71459e-05 2.6731e-06)
(6.08016e-05 4.80631e-05 4.83464e-06)
(0.000110004 6.83126e-05 6.6589e-06)
(0.000167766 8.2235e-05 7.99557e-06)
(0.000231944 9.11301e-05 8.83109e-06)
(0.000299359 9.60409e-05 9.18445e-06)
(0.000367167 9.85422e-05 9.06455e-06)
(0.00043381 0.000101099 8.27587e-06)
(2.76631e-05 2.81674e-05 1.56029e-06)
(6.31325e-05 4.94549e-05 2.82481e-06)
(0.000113766 6.99442e-05 3.91428e-06)
(0.000172864 8.38545e-05 4.74657e-06)
(0.00023823 9.26398e-05 5.3118e-06)
(0.000306695 9.74452e-05 5.6056e-06)
(0.000375434 9.99214e-05 5.62168e-06)
(0.000442967 0.000102588 5.22669e-06)
(2.82038e-05 2.86676e-05 5.13863e-07)
(6.4271e-05 5.01485e-05 9.3037e-07)
(0.00011562 7.07683e-05 1.29263e-06)
(0.000175396 8.4682e-05 1.57483e-06)
(0.000241368 9.3416e-05 1.77321e-06)
(0.000310383 9.81659e-05 1.88409e-06)
(0.000379611 0.000100622 1.90347e-06)
(0.000447598 0.000103327 1.78469e-06)
(-2.07666e-06 1.33855e-05 1.6552e-05)
(1.04187e-05 2.48898e-05 1.87383e-05)
(4.02011e-05 3.65403e-05 2.15406e-05)
(8.47477e-05 4.38955e-05 1.96838e-05)
(0.000140392 4.78811e-05 1.52818e-05)
(0.000202387 4.91201e-05 8.89997e-06)
(0.000266108 4.84174e-05 1.35812e-06)
(0.000328269 4.63024e-05 -7.19647e-06)
(-7.75726e-06 2.6806e-06 2.74629e-06)
(4.98386e-06 5.07649e-06 3.07512e-06)
(3.54511e-05 6.72978e-06 2.47761e-06)
(8.03802e-05 6.11447e-06 5.03899e-07)
(0.000135591 3.97762e-06 -2.89155e-06)
(0.000196612 9.84344e-07 -7.65093e-06)
(0.000259112 -2.25137e-06 -1.37432e-05)
(0.00031957 -5.0215e-06 -2.13687e-05)
(-7.20479e-06 -8.8699e-06 -1.06934e-05)
(5.39755e-06 -1.34295e-05 -1.4069e-05)
(3.52448e-05 -2.18403e-05 -1.70212e-05)
(7.90893e-05 -2.99658e-05 -1.91238e-05)
(0.000132856 -3.7824e-05 -2.15082e-05)
(0.000192179 -4.46703e-05 -2.46637e-05)
(0.000252692 -5.00262e-05 -2.90401e-05)
(0.000310376 -5.31282e-05 -3.47536e-05)
(1.4417e-07 -2.18916e-05 -2.56632e-05)
(1.13222e-05 -3.50274e-05 -2.99713e-05)
(3.88669e-05 -5.34788e-05 -3.71711e-05)
(7.99167e-05 -6.919e-05 -3.97522e-05)
(0.000130899 -8.25009e-05 -4.16337e-05)
(0.000187495 -9.24699e-05 -4.35105e-05)
(0.000245246 -9.89784e-05 -4.62795e-05)
(0.000299851 -0.000102 -5.10153e-05)
(1.34332e-05 -1.83931e-05 -2.0701e-05)
(2.41065e-05 -4.29427e-05 -3.49817e-05)
(5.38064e-05 -7.01803e-05 -4.36544e-05)
(9.39931e-05 -9.21477e-05 -4.8162e-05)
(0.000143593 -0.000108944 -5.11081e-05)
(0.000198448 -0.000119761 -5.36806e-05)
(0.000254459 -0.000124684 -5.68893e-05)
(0.000308114 -0.000124514 -6.1787e-05)
(1.69853e-05 -2.19799e-05 -1.41996e-05)
(3.80569e-05 -4.46058e-05 -2.60235e-05)
(7.13036e-05 -7.11147e-05 -3.4403e-05)
(0.000114416 -9.26628e-05 -3.98596e-05)
(0.000165401 -0.000108808 -4.40388e-05)
(0.000220831 -0.000119021 -4.78934e-05)
(0.000276992 -0.000123657 -5.21001e-05)
(0.000330715 -0.000123889 -5.69947e-05)
(2.07971e-05 -2.61853e-05 -1.02596e-05)
(4.71434e-05 -4.79735e-05 -1.93843e-05)
(8.47911e-05 -7.35002e-05 -2.68624e-05)
(0.000130862 -9.42112e-05 -3.26727e-05)
(0.000183811 -0.000109659 -3.75879e-05)
(0.000240513 -0.0001195 -4.21933e-05)
(0.000297655 -0.000124278 -4.68021e-05)
(0.000352506 -0.000125097 -5.11163e-05)
(2.3646e-05 -2.94475e-05 -7.51172e-06)
(5.36463e-05 -5.11847e-05 -1.45598e-05)
(9.49157e-05 -7.63794e-05 -2.08733e-05)
(0.000143828 -9.64877e-05 -2.63044e-05)
(0.00019894 -0.000111482 -3.12193e-05)
(0.00025729 -0.000121164 -3.58589e-05)
(0.000315814 -0.000126126 -4.02531e-05)
(0.000372064 -0.000127379 -4.38576e-05)
(2.57182e-05 -3.18518e-05 -5.43458e-06)
(5.83655e-05 -5.38822e-05 -1.07612e-05)
(0.000102464 -7.91483e-05 -1.57884e-05)
(0.000153823 -9.89968e-05 -2.03764e-05)
(0.000210969 -0.000113762 -2.46901e-05)
(0.000271006 -0.000123392 -2.87762e-05)
(0.000331009 -0.000128555 -3.252e-05)
(0.000388733 -0.000130134 -3.53638e-05)
(2.71733e-05 -3.35535e-05 -3.71627e-06)
(6.16848e-05 -5.59603e-05 -7.47739e-06)
(0.000107866 -8.14661e-05 -1.11325e-05)
(0.000161134 -0.00010127 -1.4583e-05)
(0.000219951 -0.000115958 -1.78982e-05)
(0.000281435 -0.0001256 -2.10447e-05)
(0.000342723 -0.000130902 -2.38698e-05)
(0.000401748 -0.000132702 -2.58903e-05)
(2.81027e-05 -3.46472e-05 -2.17724e-06)
(6.38091e-05 -5.73697e-05 -4.42637e-06)
(0.000111361 -8.31163e-05 -6.64567e-06)
(0.000165925 -0.000102963 -8.77938e-06)
(0.000225923 -0.000117647 -1.08539e-05)
(0.000288459 -0.000127315 -1.28249e-05)
(0.000350714 -0.000132709 -1.45716e-05)
(0.000410658 -0.000134639 -1.57773e-05)
(2.85562e-05 -3.51831e-05 -7.18221e-07)
(6.4847e-05 -5.80813e-05 -1.46754e-06)
(0.00011308 -8.39713e-05 -2.21173e-06)
(0.000168301 -0.00010386 -2.93309e-06)
(0.000228904 -0.000118555 -3.63754e-06)
(0.000291987 -0.000128244 -4.30669e-06)
(0.000354751 -0.00013368 -4.89705e-06)
(0.000415176 -0.000135666 -5.29662e-06)
(0.000365195 5.0631e-05 -1.02785e-05)
(0.000387408 5.67345e-05 -5.00244e-06)
(0.000410539 6.15418e-05 -1.4336e-06)
(0.000431897 6.49228e-05 6.46317e-07)
(0.000450075 6.74133e-05 1.54032e-06)
(0.000464264 6.91814e-05 1.62391e-06)
(0.000473962 7.03209e-05 1.17722e-06)
(0.00047887 7.08707e-05 4.26396e-07)
(0.00035342 -7.69171e-07 -2.33039e-05)
(0.000376007 3.48105e-06 -1.82574e-05)
(0.000399259 6.1496e-06 -1.43053e-05)
(0.000420658 7.77053e-06 -1.09308e-05)
(0.00043887 8.72742e-06 -8.03226e-06)
(0.00045309 9.26011e-06 -5.48993e-06)
(0.000462818 9.53157e-06 -3.19587e-06)
(0.000467749 9.64292e-06 -1.0487e-06)
(0.000343982 -5.025e-05 -3.54263e-05)
(0.000367012 -4.84521e-05 -3.06551e-05)
(0.000390037 -4.77377e-05 -2.62376e-05)
(0.000411119 -4.78673e-05 -2.15912e-05)
(0.00042913 -4.84614e-05 -1.68298e-05)
(0.000443228 -4.91952e-05 -1.20296e-05)
(0.000452887 -4.98188e-05 -7.21866e-06)
(0.000457788 -5.01689e-05 -2.40607e-06)
(0.000335837 -0.000100611 -5.15448e-05)
(0.000359118 -0.000100356 -4.6415e-05)
(0.000381675 -0.000101091 -4.08023e-05)
(0.000402299 -0.000102803 -3.4356e-05)
(0.00041998 -0.000104929 -2.72771e-05)
(0.000433847 -0.00010695 -1.97715e-05)
(0.000443356 -0.000108488 -1.19754e-05)
(0.000448183 -0.00010931 -4.01035e-06)
)
;
    }
    symmetry
    {
        type            symmetryPlane;
    }
    bottom
    {
        type            calculated;
        value           uniform (0 0 0);
    }
}


// ************************************************************************* //
