/*--------------------------------*- C++ -*----------------------------------*\
| =========                 |                                                 |
| \\      /  F ield         | foam-extend: Open Source CFD                    |
|  \\    /   O peration     | Version:     3.1                                |
|   \\  /    A nd           | Web:         http://www.extend-project.de       |
|    \\/     M anipulation  |                                                 |
\*---------------------------------------------------------------------------*/
FoamFile
{
    version     2.0;
    format      ascii;
    class       volVectorField;
    location    "0.4";
    object      D;
}
// * * * * * * * * * * * * * * * * * * * * * * * * * * * * * * * * * * * * * //

dimensions      [0 1 0 0 0 0 0];

internalField   nonuniform List<vector> 
256
(
(0.000355702 7.33339e-05 0.000384061)
(0.000180441 -4.22511e-05 0.000188256)
(0.000126702 -0.000103559 2.01878e-05)
(0.00017073 -0.000212963 -0.000173381)
(0.00112739 0.000433514 0.000471119)
(0.000935448 1.35699e-05 0.000341029)
(0.00086208 -0.000301328 0.00014834)
(0.000901685 -0.00070707 -5.02322e-06)
(0.00199553 0.00061101 0.00053191)
(0.0018144 2.51551e-05 0.000405503)
(0.0017329 -0.000481268 0.000256339)
(0.00174986 -0.00106855 0.000125975)
(0.00293101 0.000710509 0.000548354)
(0.00277782 5.20187e-06 0.000451775)
(0.00269521 -0.000638491 0.000341611)
(0.00268202 -0.00134837 0.000245569)
(0.00388885 0.000730527 0.000554308)
(0.00375764 -4.37807e-05 0.000484402)
(0.00367474 -0.00077315 0.000408165)
(0.00363804 -0.00155212 0.000340366)
(0.00483225 0.000697672 0.000560478)
(0.0047179 -0.000111004 0.000511267)
(0.0046344 -0.000888411 0.000459483)
(0.00457976 -0.00170011 0.000411835)
(0.00573959 0.000631008 0.000573117)
(0.00563654 -0.000188865 0.000536424)
(0.00555242 -0.000987866 0.000500244)
(0.0054856 -0.00180927 0.000464258)
(0.0066049 0.000548258 0.00059379)
(0.00650603 -0.000271484 0.00056231)
(0.00642145 -0.00107613 0.000536491)
(0.00634991 -0.00189664 0.000504975)
(0.000366947 5.44855e-05 0.000213549)
(0.000209657 -6.08925e-05 0.000112323)
(0.000166585 -0.000119445 1.57609e-05)
(0.000220885 -0.000225976 -8.79038e-05)
(0.00121504 0.000377199 0.00032998)
(0.000995205 -3.92183e-05 0.000240862)
(0.000917673 -0.000346789 0.000118601)
(0.0009727 -0.000749434 1.89746e-05)
(0.0020795 0.000567049 0.000407333)
(0.00189396 -2.40748e-05 0.000317359)
(0.00180927 -0.000533841 0.000211438)
(0.00182363 -0.00112509 0.000118392)
(0.00300787 0.000670177 0.000446652)
(0.00285098 -4.03606e-05 0.000370417)
(0.00276532 -0.000689028 0.000286306)
(0.00274868 -0.00140379 0.000211116)
(0.00395277 0.000695224 0.000469139)
(0.00382045 -8.42573e-05 0.00040872)
(0.00373503 -0.000819326 0.000345281)
(0.00369421 -0.00160344 0.00028681)
(0.00488454 0.000665281 0.000486554)
(0.00477003 -0.000147786 0.000439004)
(0.0046849 -0.000930348 0.000391349)
(0.00462708 -0.00174674 0.000345384)
(0.0057838 0.000600486 0.000505096)
(0.00568112 -0.000223353 0.000465879)
(0.0055963 -0.00102708 0.000428645)
(0.00552783 -0.00185289 0.000390268)
(0.00664614 0.000519174 0.000527343)
(0.00654773 -0.000304537 0.000492602)
(0.00646315 -0.00111437 0.000462206)
(0.00639138 -0.00193936 0.000427635)
(0.000377398 5.72908e-05 0.000127337)
(0.000218075 -6.25208e-05 7.22966e-05)
(0.000178531 -0.000123756 1.6252e-05)
(0.000242995 -0.00023475 -4.14744e-05)
(0.00126091 0.000354618 0.000229884)
(0.00102735 -6.22089e-05 0.000171393)
(0.000949112 -0.000365749 9.52936e-05)
(0.0010168 -0.000768664 3.21893e-05)
(0.00213956 0.000534489 0.000305013)
(0.00194291 -5.61063e-05 0.00024251)
(0.00185536 -0.000563164 0.000170337)
(0.00187517 -0.00115297 0.000106051)
(0.00306955 0.000632973 0.000353155)
(0.00290585 -7.5914e-05 0.000295336)
(0.00281736 -0.000722538 0.000233311)
(0.00280197 -0.00143549 0.000176482)
(0.0040112 0.000658108 0.000385473)
(0.00387502 -0.000120077 0.000335163)
(0.0037873 -0.00085424 0.000284026)
(0.00374587 -0.00163727 0.000235397)
(0.00493805 0.000630126 0.000410249)
(0.00482185 -0.000182606 0.000366724)
(0.00473521 -0.000965541 0.000324486)
(0.00467617 -0.00178212 0.0002824)
(0.00583344 0.000568241 0.000432754)
(0.00573052 -0.000256833 0.000393942)
(0.00564501 -0.00106241 0.000357885)
(0.0055755 -0.00189007 0.000319928)
(0.00669477 0.000490154 0.000455575)
(0.00659715 -0.000336624 0.000419863)
(0.00651253 -0.00114992 0.000388183)
(0.00644004 -0.00197859 0.000352772)
(0.000384179 5.9974e-05 7.94057e-05)
(0.000221496 -6.28537e-05 4.83237e-05)
(0.000183142 -0.00012576 1.53766e-05)
(0.000253626 -0.000240059 -1.77515e-05)
(0.00128748 0.000345536 0.000160829)
(0.00104639 -7.34997e-05 0.000122871)
(0.000968304 -0.000375521 7.51264e-05)
(0.00104406 -0.000780047 3.50686e-05)
(0.00217921 0.000514694 0.000225102)
(0.00197546 -7.60656e-05 0.000182239)
(0.00188653 -0.000580961 0.000133525)
(0.00191095 -0.00117016 8.96474e-05)
(0.00311555 0.000606256 0.0002717)
(0.00294674 -0.000101346 0.000229182)
(0.00285648 -0.000745718 0.000184234)
(0.00284293 -0.00145736 0.00014229)
(0.00405933 0.00062841 0.000306115)
(0.00391994 -0.000148281 0.00026613)
(0.00383064 -0.000880764 0.000226139)
(0.00378941 -0.00166271 0.000187312)
(0.00498603 0.000600183 0.000333138)
(0.00486827 -0.00021174 0.000295931)
(0.0047805 -0.000994121 0.000260309)
(0.00472089 -0.00181054 0.000224196)
(0.00588092 0.000539795 0.000356456)
(0.00577765 -0.000285814 0.00032136)
(0.00569155 -0.0010923 0.000288979)
(0.00562125 -0.00192117 0.000254624)
(0.00674291 0.00046405 0.000377997)
(0.0066458 -0.000364831 0.000344715)
(0.00656103 -0.0011806 0.000315014)
(0.00648776 -0.00201199 0.000282091)
(0.000388563 6.1661e-05 5.05527e-05)
(0.000223442 -6.30133e-05 3.25191e-05)
(0.000185613 -0.000126942 1.30043e-05)
(0.000259696 -0.000243359 -6.41632e-06)
(0.00130428 0.000341725 0.000111202)
(0.00105869 -7.95952e-05 8.67863e-05)
(0.00098086 -0.00038141 5.67923e-05)
(0.00106165 -0.000787965 3.13632e-05)
(0.00220594 0.000503627 0.000161721)
(0.00199797 -8.84053e-05 0.000132764)
(0.00190848 -0.000592568 0.000100315)
(0.00193611 -0.0011825 7.07714e-05)
(0.00314915 0.000589113 0.000201117)
(0.00297703 -0.000118701 0.000170795)
(0.00288581 -0.00076205 0.000139058)
(0.00287378 -0.00147377 0.000109009)
(0.00409697 0.000607496 0.000231996)
(0.00395537 -0.000168946 0.000201775)
(0.0038651 -0.000900591 0.000171803)
(0.0038242 -0.00168253 0.000142285)
(0.00502581 0.000577748 0.000256881)
(0.00490685 -0.000234155 0.000227239)
(0.0048183 -0.00101636 0.000199021)
(0.00475837 -0.0018332 0.000170128)
(0.00592202 0.000517566 0.00027799)
(0.00581837 -0.000308808 0.000248913)
(0.00573176 -0.00111612 0.000222136)
(0.00566084 -0.00194624 0.000193646)
(0.00678556 0.000443066 0.000296454)
(0.00668861 -0.000387636 0.000268274)
(0.00660356 -0.00120535 0.000243059)
(0.00652956 -0.00203899 0.000215241)
(0.00039144 6.27022e-05 3.14587e-05)
(0.000224767 -6.31238e-05 2.10558e-05)
(0.000187225 -0.000127687 9.71386e-06)
(0.000263502 -0.000245454 -1.56098e-06)
(0.00131523 0.000340217 7.31314e-05)
(0.00106693 -8.30286e-05 5.79924e-05)
(0.000989309 -0.000385194 3.97069e-05)
(0.00107321 -0.000793611 2.40541e-05)
(0.00222395 0.000497686 0.000109162)
(0.0020135 -9.5936e-05 9.04911e-05)
(0.0019238 -0.000600265 6.98087e-05)
(0.00195352 -0.00119149 5.07901e-05)
(0.00317285 0.000578812 0.000138541)
(0.00299874 -0.000130013 0.000118198)
(0.00290703 -0.000773324 9.7062e-05)
(0.00289605 -0.0014859 7.6824e-05)
(0.0041247 0.000593959 0.000162438)
(0.00398172 -0.000183105 0.000141326)
(0.00389087 -0.00091474 0.00012049)
(0.00385023 -0.00169737 9.97679e-05)
(0.00505623 0.000562447 0.000182083)
(0.00493645 -0.000250079 0.000160625)
(0.00484738 -0.00103261 0.000140249)
(0.00478723 -0.0018503 0.000119266)
(0.00595434 0.000501834 0.000198659)
(0.00585033 -0.000325542 0.000177057)
(0.00576329 -0.00113375 0.000157171)
(0.00569189 -0.00196514 0.000135996)
(0.00681961 0.000427818 0.000212674)
(0.00672258 -0.000404509 0.000191437)
(0.00663721 -0.00122384 0.000172416)
(0.00656261 -0.00205931 0.000151495)
(0.000393227 6.3311e-05 1.73345e-05)
(0.00022565 -6.31984e-05 1.18939e-05)
(0.000188273 -0.000128135 5.95875e-06)
(0.000265827 -0.000246715 4.0594e-08)
(0.00132199 0.000339702 4.16551e-05)
(0.00107213 -8.49097e-05 3.33725e-05)
(0.000994668 -0.000387518 2.34817e-05)
(0.00108038 -0.000797312 1.49497e-05)
(0.00223526 0.000494689 6.31827e-05)
(0.00202342 -0.000100262 5.26894e-05)
(0.00193365 -0.000605041 4.11626e-05)
(0.00196462 -0.00119744 3.04805e-05)
(0.0031881 0.000573109 8.11981e-05)
(0.00301287 -0.000136784 6.94655e-05)
(0.00292092 -0.000780456 5.73385e-05)
(0.00291058 -0.001494 4.56363e-05)
(0.004143 0.000586032 9.61747e-05)
(0.00399921 -0.000191861 8.3687e-05)
(0.00390805 -0.000923848 7.13989e-05)
(0.00386757 -0.00170731 5.91037e-05)
(0.00507674 0.000553129 0.000108645)
(0.00495646 -0.000260168 9.56735e-05)
(0.00486706 -0.0010432 8.33723e-05)
(0.00480675 -0.00186174 7.06642e-05)
(0.0059765 0.000491983 0.000119151)
(0.00587221 -0.000336326 0.000105888)
(0.00578488 -0.00114534 9.3678e-05)
(0.00571313 -0.00197777 8.06765e-05)
(0.00684321 0.000418073 0.000127855)
(0.00674601 -0.000415519 0.000114705)
(0.00666035 -0.00123606 0.000102924)
(0.00658531 -0.00207288 8.99898e-05)
(0.000394088 6.35948e-05 5.54959e-06)
(0.000226096 -6.32363e-05 3.85287e-06)
(0.000188798 -0.000128348 2.00409e-06)
(0.000266941 -0.000247313 1.55415e-07)
(0.00132524 0.000339571 1.35421e-05)
(0.00107468 -8.57479e-05 1.09032e-05)
(0.00099729 -0.000388635 7.77004e-06)
(0.00108384 -0.000799153 5.05583e-06)
(0.00224074 0.00049345 2.06973e-05)
(0.00202827 -0.00010224 1.73084e-05)
(0.00193849 -0.000607342 1.36019e-05)
(0.00197003 -0.00120042 1.01526e-05)
(0.00319559 0.00057059 2.67577e-05)
(0.00301986 -0.00013995 2.29201e-05)
(0.00292781 -0.000783918 1.89641e-05)
(0.00291777 -0.00149805 1.51315e-05)
(0.00415209 0.000582402 3.1847e-05)
(0.00400795 -0.000196029 2.77127e-05)
(0.00391664 -0.000928306 2.36504e-05)
(0.00387624 -0.0017123 1.95738e-05)
(0.00508706 0.000548756 3.61107e-05)
(0.00496654 -0.000265038 3.17721e-05)
(0.00487698 -0.00104841 2.76601e-05)
(0.00481659 -0.00186748 2.34059e-05)
(0.00598775 0.000487278 3.97018e-05)
(0.00588331 -0.000341584 3.52332e-05)
(0.00579581 -0.00115108 3.11194e-05)
(0.00572388 -0.00198409 2.67392e-05)
(0.00685525 0.000413356 4.26485e-05)
(0.00675794 -0.00042093 3.82006e-05)
(0.00667211 -0.00124213 3.42156e-05)
(0.00659683 -0.00207966 2.98445e-05)
)
;

boundaryField
{
    interface
    {
        type            tractionDisplacement;
        gradient        nonuniform List<vector> 
192
(
(0.0262704 0.0363 0.00109555)
(0.00930994 0.0285768 0.00298823)
(0.0105799 0.0350572 0.00322469)
(0.00779639 0.0365 0.0026678)
(0.00623806 0.0371722 0.00212811)
(0.00494712 0.0364806 0.00164694)
(0.00421633 0.0352586 0.00136663)
(0.0040807 0.0341002 0.00128878)
(0.0254914 0.0386208 0.000730209)
(0.0114076 0.0297073 0.00227394)
(0.0105576 0.0346509 0.00282308)
(0.00803476 0.0361229 0.00262426)
(0.00628723 0.0366979 0.00234101)
(0.00499044 0.0361432 0.00202707)
(0.0042514 0.0350927 0.00181423)
(0.00411068 0.0341303 0.00175722)
(0.0263461 0.040063 0.000451668)
(0.0119355 0.030701 0.00138836)
(0.0109247 0.0347021 0.00191813)
(0.00824321 0.036016 0.00209609)
(0.00634318 0.0364688 0.00206418)
(0.00496779 0.0359488 0.00196225)
(0.00418376 0.0349905 0.00187741)
(0.00398412 0.034181 0.00187253)
(0.0270294 0.0409649 0.000278259)
(0.0123249 0.0313044 0.000881253)
(0.0112563 0.0350222 0.00129906)
(0.00846646 0.0361037 0.00156055)
(0.00644942 0.0364449 0.00167554)
(0.00498994 0.0358983 0.00171064)
(0.0041504 0.0349717 0.00172506)
(0.00389868 0.0342471 0.00176785)
(0.0274781 0.0415389 0.000173865)
(0.0125865 0.0317089 0.000569657)
(0.0114829 0.0353292 0.000878292)
(0.00862416 0.0362773 0.00111979)
(0.006537 0.0365277 0.00127554)
(0.00501661 0.0359383 0.00136928)
(0.00413393 0.0350109 0.00143321)
(0.0038453 0.0343239 0.00149925)
(0.0277632 0.041905 0.000107792)
(0.0127533 0.0319811 0.000361947)
(0.0116285 0.0355689 0.000574015)
(0.00872528 0.0364486 0.00075816)
(0.00659544 0.0366398 0.000895451)
(0.00503748 0.0360126 0.000992466)
(0.00412754 0.035073 0.00106467)
(0.00381951 0.0343984 0.0011305)
(0.0279326 0.0421259 5.96656e-05)
(0.0128507 0.0321516 0.000203255)
(0.0117136 0.03573 0.000327509)
(0.00878375 0.0365765 0.000441095)
(0.00662928 0.036734 0.000531641)
(0.00505025 0.0360814 0.000600148)
(0.00412541 0.0351298 0.000653232)
(0.00380875 0.0344572 0.000700165)
(0.0280118 0.0422307 1.91908e-05)
(0.0128951 0.0322341 6.57881e-05)
(0.0117525 0.0358107 0.000106745)
(0.0088102 0.0366436 0.000145014)
(0.00664446 0.0367861 0.00017637)
(0.00505604 0.036121 0.000200755)
(0.00412485 0.0351627 0.000219973)
(0.00380509 0.0344895 0.000236839)
(-0.00189196 0.0197768 0.0175104)
(-0.00422332 0.00105535 0.00289282)
(-0.00350243 0.00192412 0.00517163)
(-0.00295887 0.000307529 0.00373843)
(-0.00213123 0.000240937 0.00332669)
(-0.00152071 0.000352778 0.00291516)
(-0.00116874 0.000661411 0.00272027)
(-0.00104867 0.000910871 0.00265266)
(-0.0038308 0.0132199 0.00809876)
(-0.00705381 0.00289786 0.00274549)
(-0.00532872 0.00276197 0.00317507)
(-0.00405837 0.0016989 0.0028567)
(-0.00274654 0.00132671 0.00281617)
(-0.00180794 0.00113176 0.00277739)
(-0.00121977 0.00110953 0.00278395)
(-0.000895116 0.00117624 0.00272547)
(-0.0039979 0.00439529 0.00248226)
(-0.00728355 0.00522202 0.00162977)
(-0.00548925 0.00412695 0.00191307)
(-0.00401016 0.00336206 0.00220417)
(-0.00267907 0.00259584 0.00244542)
(-0.0017527 0.00202237 0.00264734)
(-0.00119179 0.00165716 0.00280138)
(-0.000885702 0.00153776 0.00294354)
(-0.00236178 -0.00314117 -0.00584934)
(-0.00436403 0.00681448 0.00050995)
(-0.00354513 0.00524798 4.32607e-05)
(-0.00272126 0.00472951 0.00127218)
(-0.00190973 0.00364308 0.00194584)
(-0.00136934 0.00274262 0.00250292)
(-0.00111246 0.00206651 0.00286185)
(-0.00105445 0.00180011 0.00301174)
(0.0143165 -0.0273376 -0.0013302)
(0.00466459 -0.0293416 -0.00305125)
(0.00340081 -0.0353637 -0.00301127)
(0.000756765 -0.0371802 -0.00245855)
(-0.000934953 -0.0375141 -0.0019309)
(-0.00213087 -0.0366023 -0.00153481)
(-0.00278215 -0.0352419 -0.00135081)
(-0.00283682 -0.0340242 -0.00134673)
(0.0155804 -0.0303124 -0.00103182)
(0.00551083 -0.0297452 -0.00228559)
(0.00326698 -0.0350405 -0.00237572)
(0.000692542 -0.0368035 -0.00223565)
(-0.00104926 -0.0371411 -0.00202545)
(-0.00219875 -0.0363832 -0.00183873)
(-0.00278853 -0.0351929 -0.00175771)
(-0.00279082 -0.0341186 -0.00180557)
(0.0166312 -0.0323236 -0.000594524)
(0.00593377 -0.0301072 -0.00144333)
(0.00354349 -0.0350961 -0.00172787)
(0.000757209 -0.0367226 -0.00182388)
(-0.00110193 -0.0370104 -0.00182283)
(-0.00229846 -0.0363001 -0.00180368)
(-0.00289559 -0.0351984 -0.00181764)
(-0.00290867 -0.0342285 -0.00189802)
(0.0173177 -0.0335234 -0.000355974)
(0.00626841 -0.0305105 -0.000930877)
(0.00380411 -0.0353143 -0.00122887)
(0.000864194 -0.0368076 -0.00141259)
(-0.00109737 -0.0370407 -0.00152125)
(-0.00235162 -0.0363251 -0.00159608)
(-0.00297341 -0.0352551 -0.00166872)
(-0.00300482 -0.0343402 -0.0017657)
(0.017752 -0.0342705 -0.000223434)
(0.00649399 -0.0308476 -0.000613186)
(0.00398563 -0.0355537 -0.000863094)
(0.000951599 -0.0369596 -0.00105153)
(-0.00108353 -0.0371432 -0.00118895)
(-0.00238525 -0.0364046 -0.00129411)
(-0.00303162 -0.0353361 -0.00138437)
(-0.00308086 -0.0344434 -0.00147783)
(0.0180257 -0.0347456 -0.00014045)
(0.00663751 -0.0310963 -0.000396022)
(0.00410154 -0.0357571 -0.000578746)
(0.00100946 -0.0371103 -0.000730298)
(-0.00107358 -0.0372568 -0.000850367)
(-0.00240828 -0.0364941 -0.000946103)
(-0.00307303 -0.0354158 -0.00102616)
(-0.0031338 -0.034529 -0.00110221)
(0.0181884 -0.0350332 -7.87057e-05)
(0.00672142 -0.0312587 -0.000224995)
(0.00416915 -0.0358999 -0.000335422)
(0.00104302 -0.037224 -0.000431431)
(-0.00106867 -0.0373469 -0.000510538)
(-0.00242376 -0.0365659 -0.000574897)
(-0.00310023 -0.0354771 -0.000628324)
(-0.00316779 -0.0345902 -0.000677427)
(0.0182646 -0.0351701 -2.54794e-05)
(0.00675983 -0.0313388 -7.32542e-05)
(0.00420001 -0.0359729 -0.000110129)
(0.00105804 -0.0372841 -0.000142835)
(-0.00106707 -0.0373956 -0.000170229)
(-0.00243183 -0.0366049 -0.000192709)
(-0.0031139 -0.0355099 -0.000211328)
(-0.00318463 -0.0346221 -0.000228255)
(0.033577 -0.0033355 0.000967322)
(0.033703 -0.00328812 0.00103116)
(0.0338201 -0.003134 0.000951371)
(0.0339255 -0.00302476 0.000811809)
(0.0340184 -0.00295716 0.000625398)
(0.0340981 -0.00292652 0.000432494)
(0.0341576 -0.00291626 0.000250521)
(0.0341894 -0.00291453 8.17317e-05)
(0.0326736 -0.00316451 0.00118971)
(0.0329051 -0.00311589 0.00119666)
(0.0330767 -0.00304798 0.0010926)
(0.0332107 -0.00300018 0.000926823)
(0.0333148 -0.00297749 0.000722932)
(0.0333964 -0.00297376 0.000509532)
(0.0334545 -0.00297824 0.000300646)
(0.0334851 -0.0029827 9.91607e-05)
(0.0326592 -0.00344104 0.00147425)
(0.0328952 -0.00341218 0.0013978)
(0.0330758 -0.0033938 0.00125486)
(0.0332181 -0.00339962 0.00105136)
(0.0333278 -0.0034202 0.00082209)
(0.033412 -0.00344469 0.000584648)
(0.0334707 -0.00346536 0.000348419)
(0.0335011 -0.00347702 0.000115608)
(0.0334988 -0.00332986 0.00169384)
(0.0336494 -0.00329581 0.00158097)
(0.0337981 -0.0033582 0.00141438)
(0.0339306 -0.00342015 0.0011791)
(0.0340403 -0.00348066 0.000924914)
(0.0341272 -0.00352854 0.00066195)
(0.0341882 -0.00356181 0.000397028)
(0.0342198 -0.00357884 0.000132227)
)
;
        traction        nonuniform List<vector> 
192
(
(161.85 -6.01325 -1.27598)
(161.878 -4.67641 -1.89893)
(161.138 -5.64092 -1.89506)
(159.995 -5.77082 -1.67175)
(158.617 -5.78809 -1.41506)
(157.089 -5.5976 -1.153)
(155.466 -5.33863 -0.918874)
(153.751 -5.11081 -0.721391)
(164.362 -6.47116 -0.806718)
(164.227 -4.88368 -1.26298)
(163.353 -5.57274 -1.33596)
(162.026 -5.6806 -1.22795)
(160.421 -5.65743 -1.08336)
(158.631 -5.4672 -0.923171)
(156.721 -5.21556 -0.775423)
(154.683 -4.99858 -0.656175)
(165.92 -6.77255 -0.530055)
(165.704 -5.06689 -0.823804)
(164.749 -5.58248 -0.90662)
(163.315 -5.64573 -0.891908)
(161.577 -5.58645 -0.826324)
(159.631 -5.38795 -0.740786)
(157.543 -5.13887 -0.654171)
(155.305 -4.93472 -0.583035)
(167.011 -6.9696 -0.364428)
(166.754 -5.18479 -0.563204)
(165.743 -5.64038 -0.632557)
(164.235 -5.65118 -0.648429)
(162.404 -5.56151 -0.62819)
(160.349 -5.3483 -0.587997)
(158.137 -5.09534 -0.540865)
(155.76 -4.8966 -0.499892)
(167.781 -7.0992 -0.250563)
(167.5 -5.26628 -0.385691)
(166.45 -5.69686 -0.438659)
(164.889 -5.67535 -0.461449)
(162.993 -5.56184 -0.461589)
(160.862 -5.33392 -0.446336)
(158.564 -5.07416 -0.423231)
(156.091 -4.87542 -0.401309)
(168.31 -7.18382 -0.164734)
(168.014 -5.32211 -0.25309)
(166.937 -5.74155 -0.290263)
(165.34 -5.70169 -0.310305)
(163.4 -5.57217 -0.316916)
(161.217 -5.33258 -0.313261)
(158.861 -5.06606 -0.303309)
(156.322 -4.86502 -0.292679)
(168.643 -7.23551 -0.0936723)
(168.338 -5.3574 -0.143606)
(167.245 -5.77195 -0.165789)
(165.626 -5.72217 -0.179088)
(163.657 -5.58309 -0.185259)
(161.442 -5.33577 -0.185643)
(159.05 -5.06417 -0.182058)
(156.47 -4.86074 -0.177418)
(168.8 -7.25948 -0.0302922)
(168.489 -5.37418 -0.0463071)
(167.39 -5.7873 -0.0537373)
(165.76 -5.73315 -0.0584104)
(163.779 -5.58964 -0.0608309)
(161.549 -5.3385 -0.0613868)
(159.139 -5.06405 -0.0605736)
(156.537 -4.85929 -0.0592398)
(2.35556 -3.06824 150.393)
(3.17488 -0.273305 149.992)
(2.9279 -0.438843 149.787)
(2.54361 -0.216457 149.584)
(2.06974 -0.212058 149.365)
(1.61009 -0.225601 149.111)
(1.18934 -0.270085 148.815)
(0.816282 -0.338433 148.475)
(2.43068 -1.93621 145.207)
(3.35187 -0.436026 145.032)
(2.95681 -0.421698 144.88)
(2.49013 -0.268163 144.725)
(1.97628 -0.209891 144.569)
(1.50333 -0.174166 144.404)
(1.08569 -0.163042 144.232)
(0.731277 -0.183262 144.009)
(2.4226 -0.602588 140.254)
(3.34729 -0.681577 140.184)
(2.95073 -0.497061 140.065)
(2.46021 -0.36439 139.961)
(1.94793 -0.235413 139.871)
(1.47946 -0.134738 139.794)
(1.06755 -0.0606328 139.715)
(0.715811 -0.0238873 139.582)
(2.33365 0.470526 134.751)
(3.104 -0.763187 134.746)
(2.84416 -0.504145 134.7)
(2.42957 -0.391704 134.72)
(1.96707 -0.212287 134.784)
(1.52406 -0.0614875 134.881)
(1.11995 0.0638354 134.986)
(0.753837 0.144995 135.035)
(-123.252 3.40654 1.25008)
(-122.969 3.73555 1.76444)
(-123.45 4.4488 1.68961)
(-124.406 4.68952 1.47357)
(-125.62 4.77049 1.22508)
(-126.992 4.7131 0.979117)
(-128.443 4.61361 0.758602)
(-129.942 4.54551 0.568513)
(-121.204 3.65156 0.750286)
(-121.233 3.65373 1.08393)
(-121.839 4.25763 1.06179)
(-122.886 4.47012 0.965454)
(-124.218 4.53897 0.841045)
(-125.747 4.49698 0.710141)
(-127.4 4.42275 0.589425)
(-129.159 4.3831 0.486096)
(-119.912 3.82666 0.47018)
(-120.047 3.62631 0.693765)
(-120.726 4.17515 0.711737)
(-121.85 4.36091 0.676243)
(-123.275 4.41805 0.616182)
(-124.921 4.3812 0.547522)
(-126.714 4.32133 0.480341)
(-128.645 4.30194 0.420977)
(-118.974 3.92643 0.316562)
(-119.15 3.62839 0.469981)
(-119.878 4.14049 0.496715)
(-121.067 4.30281 0.488258)
(-122.572 4.35008 0.461904)
(-124.311 4.31288 0.427015)
(-126.213 4.25983 0.38992)
(-128.269 4.25241 0.355056)
(-118.314 3.98532 0.214164)
(-118.511 3.63738 0.318446)
(-119.273 4.12777 0.343045)
(-120.508 4.27443 0.345726)
(-122.07 4.31358 0.336318)
(-123.877 4.27394 0.320018)
(-125.856 4.22311 0.30051)
(-128.001 4.22179 0.28059)
(-117.864 4.02136 0.138974)
(-118.074 3.64613 0.206846)
(-118.857 4.12455 0.225582)
(-120.124 4.26152 0.231213)
(-121.726 4.29484 0.229247)
(-123.579 4.25254 0.222434)
(-125.611 4.20185 0.212788)
(-127.816 4.20343 0.201965)
(-117.583 4.04262 0.078332)
(-117.8 3.65252 0.116466)
(-118.596 4.12472 0.128103)
(-119.883 4.25614 0.132752)
(-121.509 4.2858 0.133208)
(-123.392 4.24147 0.130835)
(-125.457 4.19029 0.126594)
(-127.7 4.19326 0.121229)
(-117.45 4.05221 0.0252232)
(-117.673 3.65579 0.0373859)
(-118.475 4.12568 0.0413545)
(-119.77 4.25454 0.0431257)
(-121.408 4.28242 0.0435455)
(-123.304 4.23699 0.0430424)
(-125.385 4.18527 0.0418889)
(-127.648 4.18906 0.0402355)
(-4.4754 -149.106 -0.360215)
(-4.4408 -149.348 -0.324623)
(-4.41398 -149.52 -0.281627)
(-4.39705 -149.653 -0.234614)
(-4.38769 -149.757 -0.181558)
(-4.38377 -149.833 -0.127688)
(-4.38286 -149.884 -0.0756848)
(-4.3833 -149.913 -0.0251781)
(-4.12399 -143.971 -0.25129)
(-4.10142 -144.054 -0.248229)
(-4.0889 -144.116 -0.223632)
(-4.08254 -144.164 -0.188905)
(-4.0798 -144.204 -0.148147)
(-4.07959 -144.234 -0.105366)
(-4.08047 -144.255 -0.0628494)
(-4.08111 -144.267 -0.020921)
(-3.98535 -138.865 -0.169548)
(-3.96344 -138.803 -0.197156)
(-3.95264 -138.763 -0.18709)
(-3.9478 -138.732 -0.159849)
(-3.94611 -138.711 -0.126716)
(-3.9464 -138.699 -0.0910339)
(-3.94745 -138.692 -0.0547447)
(-3.94835 -138.69 -0.018306)
(-4.05538 -133.792 -0.0933083)
(-4.02688 -133.578 -0.146802)
(-4.00746 -133.431 -0.150047)
(-3.99657 -133.316 -0.130674)
(-3.99107 -133.233 -0.105229)
(-3.98897 -133.175 -0.0765959)
(-3.98854 -133.138 -0.0465985)
(-3.98864 -133.121 -0.0157114)
)
;
        pressure        uniform 0;
        value           nonuniform List<vector> 
192
(
(0.000684082 0.000527083 0.000397756)
(0.00124376 0.000790724 0.000508472)
(0.00212778 0.00104923 0.000572218)
(0.00302846 0.00116676 0.000581702)
(0.00396682 0.00119518 0.00058091)
(0.00489409 0.00115368 0.000581065)
(0.00579229 0.00107174 0.0005902)
(0.00665591 0.00097451 0.000609899)
(0.000685589 0.000537245 0.000222676)
(0.00135764 0.00074854 0.000358404)
(0.00221147 0.00100019 0.000442621)
(0.0031083 0.00112171 0.000479455)
(0.00403136 0.00115395 0.000498401)
(0.00494692 0.00111707 0.000511893)
(0.00583694 0.00103914 0.000527774)
(0.00669753 0.000945802 0.000549308)
(0.000706725 0.000558078 0.000132983)
(0.0014101 0.000738381 0.000247239)
(0.00227612 0.000968266 0.000328989)
(0.00317259 0.00108317 0.000379357)
(0.00409049 0.00111397 0.000411275)
(0.00500014 0.00107949 0.000434777)
(0.00588574 0.00100562 0.000456222)
(0.00674457 0.000917416 0.000478981)
(0.000722047 0.000572035 8.2884e-05)
(0.00144154 0.000736841 0.000171845)
(0.00231991 0.000952471 0.00024134)
(0.00322139 0.00105755 0.000291207)
(0.00413994 0.00108397 0.000327059)
(0.0050484 0.00104891 0.000354521)
(0.0059328 0.000976942 0.000378019)
(0.00679165 0.000892139 0.000400095)
(0.000732039 0.000580897 5.2726e-05)
(0.00146161 0.000738087 0.000118323)
(0.00234948 0.000945243 0.000172699)
(0.00325695 0.00104258 0.000215114)
(0.00417868 0.00106409 0.00024794)
(0.00508852 0.00102698 0.000273997)
(0.0059737 0.000955202 0.000295905)
(0.00683362 0.000872114 0.000315195)
(0.00073848 0.000586515 3.28061e-05)
(0.00147465 0.000739981 7.76557e-05)
(0.00236931 0.000942297 0.000116338)
(0.00328192 0.00103442 0.000148018)
(0.00420714 0.00105196 0.000173631)
(0.0051192 0.00101261 0.000194489)
(0.00600593 0.000940247 0.000211967)
(0.00686736 0.000857798 0.000226805)
(0.000742385 0.000589885 1.80803e-05)
(0.00148262 0.000741597 4.41958e-05)
(0.00238168 0.000941314 6.72765e-05)
(0.0032979 0.00103032 8.67118e-05)
(0.00422586 0.00104521 0.00010282)
(0.00513987 0.00100415 0.000116146)
(0.00602807 0.000931106 0.000127316)
(0.00689082 0.000848788 0.000136607)
(0.000744236 0.000591478 5.78948e-06)
(0.00148642 0.000742498 1.43645e-05)
(0.00238765 0.000941083 2.20316e-05)
(0.00330571 0.00102863 2.85704e-05)
(0.00423515 0.00104223 3.40516e-05)
(0.00515026 0.00100027 3.86201e-05)
(0.00603931 0.000926811 4.24515e-05)
(0.00690281 0.000844474 4.5609e-05)
(0.000332053 0.000320544 0.000602941)
(0.0010746 0.000446706 0.000507279)
(0.00195175 0.000635062 0.000596555)
(0.00289402 0.000714353 0.000595085)
(0.00386221 0.000733539 0.000595892)
(0.00481324 0.000702081 0.000596918)
(0.00572498 0.000639275 0.000607121)
(0.00659179 0.000559644 0.000626948)
(0.000132556 0.000122998 0.00028949)
(0.000847275 4.97931e-05 0.000375348)
(0.0017478 5.96797e-05 0.000445192)
(0.00272709 2.64381e-05 0.000487484)
(0.00372331 -2.71968e-05 0.000519604)
(0.0046953 -9.68566e-05 0.000545984)
(0.0056213 -0.000174996 0.000571223)
(0.00649484 -0.000256781 0.000596379)
(7.6728e-05 -4.86182e-05 5.12161e-05)
(0.000771035 -0.000236053 0.000168712)
(0.00166428 -0.000429681 0.000280253)
(0.00264508 -0.000596465 0.000369163)
(0.00364125 -0.000740702 0.000438733)
(0.00461249 -0.000863131 0.000492575)
(0.00553752 -0.000967152 0.000535261)
(0.00641038 -0.0010569 0.000573285)
(0.000141207 -0.000252227 -0.000246497)
(0.000847135 -0.000621889 1.35116e-06)
(0.00170554 -0.00100295 0.000126516)
(0.002648 -0.00128925 0.000261471)
(0.00361417 -0.00150658 0.000364689)
(0.00456265 -0.00166583 0.000443122)
(0.00547169 -0.00178344 0.000500031)
(0.00633673 -0.00187413 0.000542621)
(0.000349686 -0.000554682 -0.000190008)
(0.000959992 -0.00107384 -4.31638e-05)
(0.00179237 -0.00151059 8.83341e-05)
(0.00269148 -0.00181312 0.000214837)
(0.00362636 -0.00202105 0.00031623)
(0.00455313 -0.00215764 0.00039265)
(0.00545082 -0.0022498 0.000447373)
(0.00631445 -0.00232194 0.00048814)
(0.00041564 -0.000604881 -0.000100802)
(0.00104159 -0.00112125 -9.59525e-06)
(0.00186447 -0.00156309 8.86952e-05)
(0.00275733 -0.00186384 0.00018317)
(0.0036811 -0.0020677 0.000261491)
(0.00459959 -0.00220153 0.0003224)
(0.00549297 -0.0022928 0.000368297)
(0.0063565 -0.00236585 0.000405066)
(0.000450884 -0.000638795 -4.8906e-05)
(0.00109097 -0.001145 1.41477e-05)
(0.00191946 -0.00159167 8.44522e-05)
(0.00281144 -0.00189452 0.000153683)
(0.00373209 -0.0020999 0.000212612)
(0.00464744 -0.00223587 0.000259854)
(0.0055393 -0.00233005 0.000297208)
(0.00640368 -0.00240645 0.000329047)
(0.000470097 -0.000659102 -2.22011e-05)
(0.00112242 -0.00116143 2.34326e-05)
(0.0019585 -0.00161159 7.42866e-05)
(0.00285374 -0.00191746 0.000124633)
(0.00377569 -0.00212572 0.000168296)
(0.0046915 -0.0022646 0.000204245)
(0.00558409 -0.00236186 0.000233765)
(0.0064502 -0.00244125 0.00026002)
(0.000481596 -0.00067174 -9.20924e-06)
(0.00114283 -0.00117356 2.36984e-05)
(0.00198593 -0.00162692 5.99827e-05)
(0.00288567 -0.00193577 9.58651e-05)
(0.00381066 -0.00214682 0.000127423)
(0.00472856 -0.00228826 0.000153951)
(0.00562295 -0.00238794 0.000176341)
(0.00649105 -0.00246953 0.000196769)
(0.000488823 -0.000679774 -3.3166e-06)
(0.00115618 -0.00118232 1.91038e-05)
(0.00200479 -0.00163845 4.35558e-05)
(0.00290866 -0.00194978 6.76953e-05)
(0.00383681 -0.00216309 8.91383e-05)
(0.00475712 -0.00230647 0.00010744)
(0.00565348 -0.00240784 0.000123169)
(0.00652343 -0.00249093 0.000137717)
(0.000493181 -0.00068463 -9.43227e-07)
(0.0011644 -0.00118805 1.21373e-05)
(0.00201673 -0.00164619 2.62877e-05)
(0.00292362 -0.0019593 4.02434e-05)
(0.00385422 -0.00217415 5.2722e-05)
(0.00477645 -0.00231882 6.3478e-05)
(0.00567438 -0.00242124 7.28224e-05)
(0.00654571 -0.00250526 8.1522e-05)
(0.000495249 -0.000686939 -1.63077e-07)
(0.00116834 -0.00119089 4.14015e-06)
(0.00202253 -0.00165008 8.77594e-06)
(0.00293099 -0.0019641 1.33461e-05)
(0.0038629 -0.00217974 1.7446e-05)
(0.00478619 -0.00232504 2.0997e-05)
(0.00568496 -0.00242797 2.40976e-05)
(0.00655703 -0.00251244 2.69913e-05)
(0.00702461 0.000506564 0.000605881)
(0.00706743 0.000478072 0.000540233)
(0.00711752 0.000450979 0.000467467)
(0.00716698 0.000426241 0.000388145)
(0.00721079 0.000406101 0.000304272)
(0.00724584 0.000391236 0.00021808)
(0.00727018 0.000381619 0.000130987)
(0.00728261 0.000376924 4.36701e-05)
(0.00691444 -0.00031104 0.000577182)
(0.00695904 -0.000343485 0.00050756)
(0.0070106 -0.000374723 0.00043352)
(0.00706094 -0.000402333 0.000356301)
(0.00710504 -0.000424855 0.00027731)
(0.00714004 -0.000441681 0.000197806)
(0.00716419 -0.000452747 0.000118463)
(0.0071765 -0.000458214 3.94401e-05)
(0.00682969 -0.00111914 0.000554919)
(0.00687434 -0.00115702 0.000479679)
(0.00692598 -0.00119234 0.000403868)
(0.00697625 -0.0012231 0.000328156)
(0.00702016 -0.00124811 0.000253335)
(0.00705485 -0.0012669 0.000179724)
(0.00707873 -0.00127938 0.000107279)
(0.00709087 -0.00128559 3.56607e-05)
(0.00676864 -0.00193826 0.000526148)
(0.006812 -0.00198056 0.000447397)
(0.00686251 -0.00202057 0.000370452)
(0.00691189 -0.00205475 0.00029683)
(0.00695507 -0.00208249 0.000226803)
(0.0069892 -0.00210342 0.000159769)
(0.00701266 -0.0021174 9.49527e-05)
(0.00702458 -0.0021244 3.14973e-05)
)
;