/*--------------------------------*- C++ -*----------------------------------*\
| =========                 |                                                 |
| \\      /  F ield         | foam-extend: Open Source CFD                    |
|  \\    /   O peration     | Version:     3.1                                |
|   \\  /    A nd           | Web:         http://www.extend-project.de       |
|    \\/     M anipulation  |                                                 |
\*---------------------------------------------------------------------------*/
FoamFile
{
    version     2.0;
    format      ascii;
    class       volVectorField;
    location    "0.4";
    object      D_0;
}
// * * * * * * * * * * * * * * * * * * * * * * * * * * * * * * * * * * * * * //

dimensions      [0 1 0 0 0 0 0];

internalField   nonuniform List<vector> 
256
(
(0.000227715 2.76954e-05 0.000237265)
(0.0001202 -3.77165e-05 0.000129238)
(7.9447e-05 -6.92922e-05 4.08098e-05)
(8.67573e-05 -0.000125868 -5.97669e-05)
(0.000665635 0.000206478 0.000302008)
(0.000549012 -1.93742e-05 0.000241425)
(0.000494756 -0.000181727 0.000145661)
(0.000500446 -0.000391443 6.89934e-05)
(0.00113325 0.00027567 0.000350523)
(0.00102326 -2.79722e-05 0.000291887)
(0.000964029 -0.000285833 0.000222142)
(0.000956553 -0.000585627 0.000161526)
(0.00161543 0.00030372 0.000372134)
(0.00152186 -5.3166e-05 0.000328861)
(0.00146295 -0.000376497 0.000279723)
(0.00143968 -0.000732939 0.000237403)
(0.00209357 0.000290477 0.000386775)
(0.00201237 -9.39065e-05 0.000355819)
(0.00195413 -0.000455469 0.000322797)
(0.00191886 -0.00084062 0.000293692)
(0.00255325 0.000251939 0.000400381)
(0.00248106 -0.000143819 0.000378039)
(0.00242299 -0.000524872 0.000355234)
(0.00237875 -0.000921095 0.000334143)
(0.00298857 0.00019854 0.00041619)
(0.00292209 -0.000198757 0.000398193)
(0.00286389 -0.000586967 0.000380887)
(0.00281358 -0.000984194 0.00036343)
(0.00340133 0.000139164 0.000434824)
(0.00333697 -0.000255729 0.000418135)
(0.00327847 -0.000644255 0.000404125)
(0.00322556 -0.0010387 0.000387397)
(0.000228949 1.33082e-05 0.000133165)
(0.0001334 -5.17831e-05 7.79919e-05)
(0.000100413 -8.19967e-05 2.76692e-05)
(0.000117119 -0.000137395 -2.51519e-05)
(0.000712861 0.000166904 0.000215384)
(0.000579213 -5.74763e-05 0.000172678)
(0.00052096 -0.000216422 0.000112351)
(0.000532603 -0.000424767 6.31746e-05)
(0.00117575 0.000243638 0.000272801)
(0.00106264 -6.31161e-05 0.000230449)
(0.00100064 -0.000323022 0.000180646)
(0.000990452 -0.00062503 0.000136917)
(0.00165376 0.00027418 0.000306382)
(0.00155746 -8.54777e-05 0.000271028)
(0.00149613 -0.000411357 0.000232833)
(0.00147003 -0.000770361 0.000198864)
(0.00212532 0.000264364 0.000328723)
(0.00204295 -0.000122566 0.000300759)
(0.00198284 -0.000486831 0.000272351)
(0.00194485 -0.000874564 0.000246157)
(0.00257968 0.00022792 0.000346849)
(0.00250693 -0.000169867 0.000324296)
(0.00244769 -0.000553239 0.000302483)
(0.0024016 -0.000951759 0.000281236)
(0.00301161 0.000175881 0.000364333)
(0.00294496 -0.000223209 0.000344825)
(0.00288629 -0.000613541 0.000326754)
(0.00283524 -0.00101291 0.000307903)
(0.0034233 0.000117388 0.000382762)
(0.00335897 -0.000279292 0.00036474)
(0.00330051 -0.000670199 0.000349001)
(0.00324774 -0.0010668 0.000331096)
(0.000233431 1.40586e-05 8.07452e-05)
(0.000137471 -5.32718e-05 5.10781e-05)
(0.000106997 -8.48154e-05 2.22004e-05)
(0.000130002 -0.000142411 -6.77752e-06)
(0.000737609 0.00015051 0.000152951)
(0.000596171 -7.39712e-05 0.000124376)
(0.000536849 -0.000230629 8.70125e-05)
(0.000554524 -0.000438738 5.60954e-05)
(0.00120804 0.000220784 0.000207557)
(0.00108833 -8.58099e-05 0.00017753)
(0.00102375 -0.000344306 0.000143333)
(0.00101512 -0.000645372 0.000112763)
(0.00168645 0.000248607 0.000244819)
(0.00158598 -0.000110361 0.000217134)
(0.00152224 -0.000435318 0.000188373)
(0.00149564 -0.000793534 0.000161989)
(0.00215611 0.000239028 0.00027129)
(0.00207123 -0.000147494 0.00024707)
(0.00200923 -0.000511529 0.0002234)
(0.00197004 -0.000899055 0.000200765)
(0.00260788 0.000203799 0.000292102)
(0.00253388 -0.000194096 0.00027072)
(0.0024734 -0.000577938 0.000250712)
(0.00242615 -0.00097699 0.000230566)
(0.00303786 0.000153334 0.000310527)
(0.00297081 -0.000246625 0.0002909)
(0.00291155 -0.000638168 0.000273109)
(0.00285979 -0.00103887 0.000254187)
(0.00344901 9.64473e-05 0.000328342)
(0.00338492 -0.000301928 0.000309896)
(0.00332639 -0.000694785 0.000293713)
(0.00327334 -0.00109352 0.000275515)
(0.000237007 1.52673e-05 5.13547e-05)
(0.000139488 -5.3663e-05 3.47245e-05)
(0.00010982 -8.60128e-05 1.79014e-05)
(0.000136167 -0.000145211 1.40174e-06)
(0.000752361 0.000143565 0.000108879)
(0.000606848 -8.2088e-05 9.00578e-05)
(0.000547322 -0.000237778 6.66438e-05)
(0.000568924 -0.000446366 4.70301e-05)
(0.00123008 0.000206801 0.000155258)
(0.00110628 -9.99517e-05 0.000134253)
(0.00104033 -0.000357289 0.000110941)
(0.00103335 -0.000657846 8.97814e-05)
(0.00171173 0.000230241 0.000190002)
(0.00160819 -0.000128172 0.000169113)
(0.00154286 -0.000452102 0.00014783)
(0.00151638 -0.000809751 0.000127824)
(0.00218229 0.000218819 0.00021627)
(0.00209539 -0.000167126 0.000196447)
(0.002032 -0.000530575 0.000177402)
(0.00199221 -0.000917858 0.000158736)
(0.00263378 0.000183355 0.000237106)
(0.00255868 -0.000214365 0.000218359)
(0.00249722 -0.00059828 0.00020102)
(0.00244917 -0.000997668 0.000183248)
(0.00306331 0.000133601 0.000254925)
(0.00299589 -0.000266876 0.000236912)
(0.00293609 -0.00065925 0.000220682)
(0.00288367 -0.00106099 0.000203297)
(0.0034747 7.78802e-05 0.000271157)
(0.00341076 -0.000321774 0.000253893)
(0.00335205 -0.000716214 0.000238707)
(0.00329855 -0.00111671 0.000221741)
(0.000239554 1.608e-05 3.33161e-05)
(0.000140839 -5.38572e-05 2.3691e-05)
(0.000111508 -8.66975e-05 1.37787e-05)
(0.000139757 -0.000146928 4.11351e-06)
(0.000762052 0.000140413 7.63466e-05)
(0.000614154 -8.65061e-05 6.40817e-05)
(0.000554624 -0.000241991 4.93377e-05)
(0.000578663 -0.000451442 3.68249e-05)
(0.00124535 0.000198759 0.0001127)
(0.00111919 -0.00010875 9.82483e-05)
(0.0010526 -0.000365692 8.25449e-05)
(0.00104685 -0.000666501 6.80803e-05)
(0.00173066 0.000218218 0.000141563)
(0.00162517 -0.000140406 0.000126348)
(0.00155893 -0.000463911 0.000111034)
(0.00153269 -0.000821642 9.63582e-05)
(0.00220319 0.000204345 0.000164392)
(0.00211492 -0.000181602 0.00014908)
(0.00205064 -0.000544832 0.000134476)
(0.00201052 -0.000932304 0.000119917)
(0.00265558 0.000167827 0.000182831)
(0.00257967 -0.000230047 0.000167619)
(0.00251751 -0.000614155 0.000153597)
(0.00246891 -0.00101405 0.000139076)
(0.00308562 0.000118049 0.00019841)
(0.00301785 -0.000283004 0.000183302)
(0.00295759 -0.000676111 0.000169702)
(0.00290461 -0.00107882 0.000155097)
(0.00349771 6.29337e-05 0.000212047)
(0.00343376 -0.000337843 0.000197329)
(0.00337481 -0.000733586 0.000184366)
(0.00332081 -0.00113554 0.000169946)
(0.000241314 1.66017e-05 2.10506e-05)
(0.000141825 -5.39792e-05 1.54903e-05)
(0.000112672 -8.71246e-05 9.73812e-06)
(0.000142058 -0.000148024 4.10362e-06)
(0.00076856 0.000138986 5.07261e-05)
(0.000619238 -8.90213e-05 4.30362e-05)
(0.000559751 -0.000244646 3.40071e-05)
(0.000585289 -0.000454982 2.62456e-05)
(0.00125587 0.000194258 7.66254e-05)
(0.00112834 -0.000114167 6.71654e-05)
(0.00106146 -0.000371197 5.7049e-05)
(0.00105653 -0.000672606 4.76064e-05)
(0.00174423 0.000210783 9.79548e-05)
(0.00163759 -0.000148446 8.75804e-05)
(0.00157086 -0.000472002 7.72227e-05)
(0.00154483 -0.000830194 6.71525e-05)
(0.00221879 0.000194754 0.000115342)
(0.00212967 -0.000191599 0.000104476)
(0.00206486 -0.000554962 9.4148e-05)
(0.00202454 -0.000942901 8.37338e-05)
(0.00267244 0.000157033 0.000129612)
(0.00259598 -0.000241263 0.000118455)
(0.00253334 -0.000625726 0.000108178)
(0.00248435 -0.00102623 9.74721e-05)
(0.00310332 0.00010689 0.000141625)
(0.00303527 -0.000294803 0.000130295)
(0.00297464 -0.000688594 0.000120092)
(0.00292121 -0.00109216 0.000109129)
(0.00351626 5.19881e-05 0.000151864)
(0.00345221 -0.000349772 0.000140701)
(0.00339298 -0.000746576 0.000130863)
(0.00333853 -0.0011497 0.000119954)
(0.000242435 1.69148e-05 1.17198e-05)
(0.000142493 -5.40547e-05 8.80308e-06)
(0.00011344 -8.73817e-05 5.79092e-06)
(0.000143483 -0.00014869 2.81693e-06)
(0.000772654 0.000138376 2.90832e-05)
(0.000622524 -9.04127e-05 2.4841e-05)
(0.000563081 -0.000246254 1.99345e-05)
(0.00058949 -0.000457275 1.56734e-05)
(0.00126256 0.000191878 4.45505e-05)
(0.00113428 -0.000117304 3.91769e-05)
(0.00106727 -0.000374578 3.34917e-05)
(0.00106284 -0.000676569 2.81319e-05)
(0.00175306 0.000206545 5.75687e-05)
(0.00164579 -0.000153295 5.15194e-05)
(0.00157879 -0.000477082 4.55115e-05)
(0.00155291 -0.000835775 3.96143e-05)
(0.00222917 0.000189011 6.83774e-05)
(0.00213957 -0.000197824 6.18844e-05)
(0.00207445 -0.000561449 5.57242e-05)
(0.00203402 -0.000949867 4.94691e-05)
(0.00268389 0.000150341 7.73454e-05)
(0.0026071 -0.000248412 7.05443e-05)
(0.00254416 -0.000633244 6.428e-05)
(0.00249491 -0.00103428 5.77329e-05)
(0.00311554 9.98096e-05 8.48897e-05)
(0.00304729 -0.000302442 7.78896e-05)
(0.0029864 -0.000696782 7.15823e-05)
(0.00293265 -0.001101 6.48062e-05)
(0.00352921 4.493e-05 9.12145e-05)
(0.00346502 -0.000357581 8.42682e-05)
(0.00340556 -0.000755159 7.81465e-05)
(0.00335077 -0.00115911 7.13724e-05)
(0.000242981 1.7063e-05 3.77139e-06)
(0.000142832 -5.40913e-05 2.85975e-06)
(0.000113825 -8.75037e-05 1.92053e-06)
(0.000144172 -0.000149008 9.88086e-07)
(0.000774641 0.000138158 9.48497e-06)
(0.000624147 -9.10369e-05 8.12728e-06)
(0.000564729 -0.000247019 6.56861e-06)
(0.00059154 -0.000458408 5.20728e-06)
(0.00126583 0.000190856 1.4625e-05)
(0.00113722 -0.000118746 1.288e-05)
(0.00107016 -0.000376194 1.10436e-05)
(0.00106596 -0.000678526 9.30313e-06)
(0.00175742 0.000204631 1.89955e-05)
(0.00164987 -0.000155573 1.70059e-05)
(0.00158276 -0.000479534 1.5035e-05)
(0.00155695 -0.000838535 1.30913e-05)
(0.00223436 0.000186338 2.26559e-05)
(0.00214455 -0.0002008 2.04954e-05)
(0.00207928 -0.000564611 1.84474e-05)
(0.00203879 -0.000953321 1.6361e-05)
(0.00268967 0.000147162 2.57093e-05)
(0.00261273 -0.000251876 2.34251e-05)
(0.00254965 -0.000636938 2.13211e-05)
(0.00250027 -0.00103828 1.9119e-05)
(0.00312177 9.63964e-05 2.8278e-05)
(0.00305341 -0.000306178 2.5912e-05)
(0.00299238 -0.000700827 2.37796e-05)
(0.00293847 -0.00110541 2.14892e-05)
(0.00353584 4.14921e-05 3.04141e-05)
(0.00347157 -0.000361428 2.80586e-05)
(0.00341198 -0.000759417 2.59828e-05)
(0.00335701 -0.0011638 2.36882e-05)
)
;

boundaryField
{
    interface
    {
        type            tractionDisplacement;
        gradient        nonuniform List<vector> 
192
(
(0.0012504 8.90088e-08 -6.27537e-06)
(0.00125106 2.32615e-07 -7.48491e-06)
(0.0012496 5.25483e-07 -7.47543e-06)
(0.00124673 8.45864e-07 -7.27339e-06)
(0.00124237 1.23213e-06 -6.95727e-06)
(0.00123606 1.75972e-06 -6.48764e-06)
(0.00122701 2.65546e-06 -5.77696e-06)
(0.00121237 4.4017e-06 -4.57372e-06)
(0.00127836 1.58951e-07 -4.18175e-06)
(0.00127813 3.40733e-07 -4.98588e-06)
(0.00127606 6.81215e-07 -4.94782e-06)
(0.00127234 1.07974e-06 -4.77587e-06)
(0.0012667 1.57845e-06 -4.5173e-06)
(0.00125852 2.26978e-06 -4.14438e-06)
(0.00124668 3.43378e-06 -3.60938e-06)
(0.00122774 5.61186e-06 -2.83028e-06)
(0.0012969 2.0556e-07 -2.92788e-06)
(0.00129628 4.22773e-07 -3.50022e-06)
(0.00129375 8.10625e-07 -3.4639e-06)
(0.00128935 1.27314e-06 -3.32432e-06)
(0.00128271 1.85533e-06 -3.11929e-06)
(0.00127309 2.65704e-06 -2.83373e-06)
(0.00125927 3.97152e-06 -2.44508e-06)
(0.00123752 6.33252e-06 -1.9299e-06)
(0.00131022 2.36666e-07 -2.12187e-06)
(0.00130939 4.82114e-07 -2.53952e-06)
(0.00130652 9.12912e-07 -2.50899e-06)
(0.00130157 1.426e-06 -2.39958e-06)
(0.00129415 2.06871e-06 -2.2415e-06)
(0.00128345 2.94405e-06 -2.02736e-06)
(0.00126819 4.35007e-06 -1.74696e-06)
(0.00124452 6.81512e-06 -1.39307e-06)
(0.00131978 2.59652e-07 -1.51365e-06)
(0.00131882 5.26652e-07 -1.81147e-06)
(0.00131569 9.91037e-07 -1.78752e-06)
(0.00131032 1.54199e-06 -1.7059e-06)
(0.0013023 2.22756e-06 -1.58946e-06)
(0.00129082 3.15197e-06 -1.43486e-06)
(0.00127453 4.6157e-06 -1.23756e-06)
(0.00124954 7.14639e-06 -9.95544e-07)
(0.00132642 2.76131e-07 -1.01788e-06)
(0.00132536 5.58719e-07 -1.21811e-06)
(0.00132204 1.04754e-06 -1.20117e-06)
(0.00131638 1.62535e-06 -1.14496e-06)
(0.00130794 2.34023e-06 -1.06545e-06)
(0.0012959 3.29691e-06 -9.61283e-07)
(0.00127891 4.79762e-06 -8.30326e-07)
(0.00125304 7.37104e-06 -6.71486e-07)
(0.00133063 2.87035e-07 -5.86262e-07)
(0.00132951 5.79709e-07 -7.01327e-07)
(0.00132607 1.08477e-06 -6.91544e-07)
(0.00132021 1.68017e-06 -6.58841e-07)
(0.00131151 2.41383e-06 -6.12817e-07)
(0.00129912 3.39091e-06 -5.5309e-07)
(0.00128169 4.9157e-06 -4.77739e-07)
(0.00125526 7.51474e-06 -3.82182e-07)
(0.00133265 2.92824e-07 -1.90632e-07)
(0.00133149 5.90077e-07 -2.27698e-07)
(0.001328 1.10224e-06 -2.24725e-07)
(0.00132205 1.70638e-06 -2.14081e-07)
(0.00131322 2.44881e-06 -1.99112e-07)
(0.00130067 3.43614e-06 -1.79825e-07)
(0.00128303 4.97701e-06 -1.55001e-07)
(0.00125626 7.58408e-06 -1.20792e-07)
(1.09308e-05 7.23725e-08 0.00114973)
(1.30776e-05 1.27851e-07 0.00114889)
(1.31548e-05 1.98457e-07 0.00114824)
(1.29808e-05 2.92527e-07 0.0011473)
(1.2715e-05 4.04896e-07 0.00114595)
(1.23458e-05 5.36693e-07 0.00114413)
(1.18492e-05 6.86119e-07 0.00114175)
(1.13079e-05 8.03277e-07 0.00113874)
(1.00547e-05 2.11513e-08 0.0010997)
(1.20342e-05 3.77271e-08 0.00109949)
(1.21003e-05 5.67502e-08 0.0010993)
(1.19489e-05 8.24212e-08 0.00109902)
(1.17254e-05 1.12105e-07 0.00109863)
(1.14243e-05 1.44074e-07 0.00109811)
(1.10382e-05 1.71046e-07 0.00109746)
(1.0708e-05 1.6209e-07 0.00109671)
(1.00418e-05 -2.70428e-08 0.00105277)
(1.20188e-05 -4.56996e-08 0.00105298)
(1.20844e-05 -6.9588e-08 0.00105321)
(1.1933e-05 -1.00411e-07 0.00105354)
(1.171e-05 -1.3707e-07 0.001054)
(1.141e-05 -1.80176e-07 0.00105463)
(1.10258e-05 -2.2871e-07 0.00105544)
(1.06983e-05 -2.6355e-07 0.00105648)
(1.09054e-05 -8.04064e-08 0.00100291)
(1.30452e-05 -1.36982e-07 0.00100376)
(1.312e-05 -2.11694e-07 0.00100444)
(1.29457e-05 -3.09713e-07 0.00100544)
(1.26804e-05 -4.27843e-07 0.00100685)
(1.23126e-05 -5.69225e-07 0.00100876)
(1.18188e-05 -7.38586e-07 0.00101129)
(1.12818e-05 -8.99354e-07 0.00101456)
(-0.000903606 -9.63547e-08 6.85177e-06)
(-0.000902881 -2.51564e-07 8.12936e-06)
(-0.000904348 -5.72774e-07 8.11249e-06)
(-0.00090722 -9.20022e-07 7.89131e-06)
(-0.000911576 -1.33875e-06 7.54482e-06)
(-0.000917854 -1.91504e-06 7.02877e-06)
(-0.00092686 -2.91625e-06 6.2435e-06)
(-0.00094155 -4.95238e-06 4.89368e-06)
(-0.000876477 -1.72336e-07 4.42126e-06)
(-0.000876696 -3.68407e-07 5.23941e-06)
(-0.000878763 -7.40343e-07 5.19106e-06)
(-0.000882477 -1.17274e-06 5.00456e-06)
(-0.000888098 -1.71422e-06 4.72407e-06)
(-0.000896245 -2.4707e-06 4.31857e-06)
(-0.000908024 -3.77243e-06 3.7342e-06)
(-0.000927051 -6.30466e-06 2.87503e-06)
(-0.000858904 -2.23527e-07 3.02815e-06)
(-0.000859518 -4.57468e-07 3.59773e-06)
(-0.000862036 -8.80012e-07 3.55226e-06)
(-0.00086643 -1.38156e-06 3.40144e-06)
(-0.000873045 -2.0136e-06 3.18024e-06)
(-0.000882602 -2.89053e-06 2.87178e-06)
(-0.000896351 -4.35875e-06 2.45083e-06)
(-0.000918167 -7.09737e-06 1.88924e-06)
(-0.00084644 -2.57774e-07 2.16159e-06)
(-0.000847264 -5.21851e-07 2.57079e-06)
(-0.000850126 -9.90306e-07 2.53274e-06)
(-0.00085506 -1.54618e-06 2.41474e-06)
(-0.000862449 -2.24345e-06 2.24466e-06)
(-0.000873069 -3.20009e-06 2.01421e-06)
(-0.000888236 -4.76849e-06 1.71208e-06)
(-0.000911949 -7.62329e-06 1.32891e-06)
(-0.000837595 -2.83051e-07 1.52365e-06)
(-0.00083856 -5.70096e-07 1.81175e-06)
(-0.000841682 -1.07445e-06 1.78199e-06)
(-0.000847026 -1.67087e-06 1.69407e-06)
(-0.000854997 -2.41412e-06 1.56902e-06)
(-0.000866396 -3.42352e-06 1.40308e-06)
(-0.00088257 -5.05455e-06 1.19126e-06)
(-0.000907581 -7.98206e-06 9.30362e-07)
(-0.000831511 -3.01135e-07 1.01526e-06)
(-0.000832571 -6.04765e-07 1.20705e-06)
(-0.000835879 -1.13523e-06 1.18601e-06)
(-0.000841519 -1.76034e-06 1.1255e-06)
(-0.000849902 -2.53489e-06 1.04024e-06)
(-0.000861845 -3.57878e-06 9.28656e-07)
(-0.000878708 -5.24964e-06 7.88457e-07)
(-0.000904589 -8.22417e-06 6.17775e-07)
(-0.000827684 -3.13066e-07 5.81157e-07)
(-0.000828802 -6.27424e-07 6.90621e-07)
(-0.00083223 -1.17521e-06 6.7841e-07)
(-0.000838059 -1.81904e-06 6.43226e-07)
(-0.000846706 -2.61357e-06 5.93914e-07)
(-0.000858993 -3.67914e-06 5.30029e-07)
(-0.000876286 -5.37574e-06 4.49542e-07)
(-0.000902707 -8.37837e-06 3.46949e-07)
(-0.000825854 -3.19376e-07 1.88378e-07)
(-0.000827006 -6.38536e-07 2.23531e-07)
(-0.000830489 -1.19398e-06 2.19753e-07)
(-0.000836409 -1.8471e-06 2.083e-07)
(-0.000845182 -2.65092e-06 1.92268e-07)
(-0.000857629 -3.72725e-06 1.71653e-07)
(-0.000875121 -5.44102e-06 1.45178e-07)
(-0.000901879 -8.45211e-06 1.08378e-07)
(1.13077e-05 -0.00113956 -9.86196e-07)
(1.18661e-05 -0.00114323 -8.3836e-07)
(1.23873e-05 -0.00114616 -6.69958e-07)
(1.27835e-05 -0.00114847 -5.21832e-07)
(1.30767e-05 -0.00115024 -3.91006e-07)
(1.32868e-05 -0.00115152 -2.72808e-07)
(1.34306e-05 -0.00115236 -1.66012e-07)
(1.35055e-05 -0.00115283 -5.78898e-08)
(1.07333e-05 -0.00109747 -3.23353e-07)
(1.10861e-05 -0.00109878 -2.9851e-07)
(1.14951e-05 -0.00109989 -2.50886e-07)
(1.18192e-05 -0.0011008 -2.02547e-07)
(1.20647e-05 -0.00110151 -1.55909e-07)
(1.22434e-05 -0.00110204 -1.10734e-07)
(1.23687e-05 -0.0011024 -6.67961e-08)
(1.24387e-05 -0.00110257 -2.25708e-08)
(1.07338e-05 -0.00105712 1.29308e-07)
(1.10872e-05 -0.00105654 1.24779e-07)
(1.1494e-05 -0.00105609 9.54584e-08)
(1.18153e-05 -0.00105577 6.74789e-08)
(1.20582e-05 -0.00105555 4.5425e-08)
(1.22347e-05 -0.00105541 2.87838e-08)
(1.23586e-05 -0.00105532 1.65634e-08)
(1.24277e-05 -0.00105528 5.73912e-09)
(1.13263e-05 -0.00101504 7.95589e-07)
(1.18919e-05 -0.00101212 6.58727e-07)
(1.24086e-05 -0.00100987 5.05786e-07)
(1.27978e-05 -0.00100817 3.78169e-07)
(1.3084e-05 -0.00100692 2.73189e-07)
(1.32882e-05 -0.00100604 1.85436e-07)
(1.34278e-05 -0.00100548 1.12584e-07)
(1.35008e-05 -0.00100515 4.00141e-08)
)
;
        traction        nonuniform List<vector> 
192
(
(26.7942 0.00190733 -0.134472)
(26.8085 0.00498462 -0.160391)
(26.7772 0.0112604 -0.160188)
(26.7157 0.0181257 -0.155858)
(26.6222 0.0264028 -0.149084)
(26.487 0.0377082 -0.139021)
(26.293 0.0569026 -0.123792)
(25.9793 0.0943222 -0.0980083)
(27.3935 0.0034061 -0.0896089)
(27.3884 0.00730142 -0.10684)
(27.3441 0.0145975 -0.106025)
(27.2645 0.0231373 -0.10234)
(27.1437 0.033824 -0.0967993)
(26.9683 0.0486382 -0.0888082)
(26.7147 0.0735809 -0.077344)
(26.3087 0.120254 -0.0606489)
(27.7907 0.00440487 -0.0627403)
(27.7773 0.00905942 -0.0750048)
(27.7233 0.0173705 -0.0742265)
(27.6289 0.0272816 -0.0712353)
(27.4865 0.039757 -0.066842)
(27.2806 0.0569365 -0.0607228)
(26.9843 0.085104 -0.0523946)
(26.5182 0.135697 -0.0413549)
(28.0762 0.00507141 -0.0454687)
(28.0584 0.010331 -0.0544183)
(27.997 0.0195624 -0.0537641)
(27.8909 0.0305572 -0.0514196)
(27.7317 0.0443295 -0.0480322)
(27.5026 0.0630869 -0.0434433)
(27.1755 0.0932158 -0.0374349)
(26.6683 0.146038 -0.0298516)
(28.2811 0.00556398 -0.0324353)
(28.2603 0.0112854 -0.0388172)
(28.1933 0.0212365 -0.038304)
(28.0783 0.0330426 -0.0365551)
(27.9065 0.0477333 -0.0340599)
(27.6604 0.0675421 -0.0307469)
(27.3113 0.0989078 -0.0265191)
(26.7759 0.153137 -0.0213331)
(28.4234 0.00591708 -0.0218117)
(28.4006 0.0119725 -0.0261023)
(28.3295 0.0224473 -0.0257394)
(28.2081 0.034829 -0.0245348)
(28.0273 0.0501478 -0.0228311)
(27.7694 0.0706481 -0.0205989)
(27.4052 0.102806 -0.0177927)
(26.8508 0.157951 -0.014389)
(28.5135 0.00615074 -0.0125628)
(28.4894 0.0124223 -0.0150284)
(28.4158 0.023245 -0.0148188)
(28.2903 0.0360036 -0.014118)
(28.1037 0.0517248 -0.0131318)
(27.8383 0.0726623 -0.0118519)
(27.4647 0.105336 -0.0102373)
(26.8984 0.16103 -0.00818961)
(28.5567 0.00627479 -0.00408497)
(28.532 0.0126445 -0.00487923)
(28.4571 0.0236193 -0.00481554)
(28.3296 0.0365652 -0.00458744)
(28.1404 0.0524745 -0.00426669)
(27.8714 0.0736316 -0.00385339)
(27.4935 0.10665 -0.00332146)
(26.9199 0.162516 -0.00258841)
(0.234232 0.00155084 24.637)
(0.280235 0.00273965 24.6191)
(0.281888 0.00425265 24.6052)
(0.278159 0.00626843 24.5849)
(0.272465 0.00867633 24.5561)
(0.264553 0.0115006 24.5171)
(0.253912 0.0147025 24.4661)
(0.242312 0.0172131 24.4015)
(0.215458 0.000453242 23.565)
(0.257875 0.000808438 23.5605)
(0.259292 0.00121608 23.5564)
(0.256048 0.00176617 23.5504)
(0.251258 0.00240225 23.542)
(0.244806 0.00308729 23.5309)
(0.236532 0.00366528 23.517)
(0.229457 0.00347336 23.5009)
(0.215181 -0.00057949 22.5593)
(0.257546 -0.000979277 22.564)
(0.258951 -0.00149117 22.5688)
(0.255708 -0.00215167 22.5758)
(0.250929 -0.00293722 22.5858)
(0.244501 -0.00386092 22.5992)
(0.236268 -0.00490093 22.6167)
(0.22925 -0.00564749 22.6389)
(0.233687 -0.00172299 21.4909)
(0.279539 -0.00293532 21.5091)
(0.281144 -0.00453631 21.5238)
(0.277407 -0.00663671 21.5451)
(0.271722 -0.00916805 21.5754)
(0.263841 -0.0121977 21.6164)
(0.253261 -0.0158268 21.6704)
(0.241752 -0.0192719 21.7405)
(-19.363 -0.00206474 0.146824)
(-19.3475 -0.00539066 0.174201)
(-19.3789 -0.0122737 0.173839)
(-19.4404 -0.0197148 0.1691)
(-19.5338 -0.0286875 0.161675)
(-19.6683 -0.0410367 0.150616)
(-19.8613 -0.0624911 0.133789)
(-20.1761 -0.106122 0.104865)
(-18.7816 -0.00369291 0.0947413)
(-18.7863 -0.00789443 0.112273)
(-18.8306 -0.0158645 0.111237)
(-18.9102 -0.0251302 0.107241)
(-19.0307 -0.0367334 0.10123)
(-19.2052 -0.0529437 0.0925409)
(-19.4577 -0.0808377 0.0800185)
(-19.8654 -0.1351 0.0616077)
(-18.4051 -0.00478987 0.064889)
(-18.4182 -0.00980289 0.0770943)
(-18.4722 -0.0188574 0.0761199)
(-18.5664 -0.0296049 0.0728881)
(-18.7081 -0.0431486 0.0681481)
(-18.9129 -0.06194 0.0615382)
(-19.2075 -0.0934018 0.0525179)
(-19.675 -0.152086 0.0404836)
(-18.138 -0.00552373 0.0463197)
(-18.1556 -0.0111825 0.0550883)
(-18.217 -0.0212208 0.054273)
(-18.3227 -0.0331325 0.0517444)
(-18.481 -0.048074 0.0480998)
(-18.7086 -0.0685733 0.0431617)
(-19.0336 -0.102182 0.0366875)
(-19.5418 -0.163356 0.0284766)
(-17.9485 -0.00606538 0.0326497)
(-17.9691 -0.0122163 0.0388231)
(-18.036 -0.023024 0.0381856)
(-18.1506 -0.0358044 0.0363015)
(-18.3214 -0.0517312 0.0336219)
(-18.5656 -0.0733611 0.0300661)
(-18.9122 -0.108312 0.0255271)
(-19.4482 -0.171044 0.0199363)
(-17.8181 -0.00645288 0.0217555)
(-17.8408 -0.0129593 0.0258653)
(-17.9117 -0.0243264 0.0254145)
(-18.0325 -0.0377215 0.0241178)
(-18.2122 -0.0543192 0.0222908)
(-18.4681 -0.0766882 0.0198998)
(-18.8294 -0.112492 0.0168955)
(-19.3841 -0.176232 0.013238)
(-17.7361 -0.00670857 0.0124534)
(-17.7601 -0.0134448 0.014799)
(-17.8335 -0.0251831 0.0145374)
(-17.9584 -0.0389794 0.0137834)
(-18.1437 -0.0560052 0.0127267)
(-18.407 -0.0788387 0.0113578)
(-18.7775 -0.115194 0.00963305)
(-19.3437 -0.179537 0.00743463)
(-17.6969 -0.00684377 0.00403667)
(-17.7216 -0.0136829 0.00478996)
(-17.7962 -0.0255853 0.00470898)
(-17.9231 -0.0395806 0.00446357)
(-18.111 -0.0568055 0.00412003)
(-18.3778 -0.0798697 0.00367828)
(-18.7526 -0.116593 0.00311095)
(-19.326 -0.181117 0.00232238)
(0.242309 -24.4191 -0.0211328)
(0.254273 -24.4977 -0.0179648)
(0.265441 -24.5605 -0.0143563)
(0.273931 -24.61 -0.0111821)
(0.280215 -24.6479 -0.00837869)
(0.284717 -24.6755 -0.00584588)
(0.287799 -24.6935 -0.0035574)
(0.289404 -24.7035 -0.0012405)
(0.229999 -23.5171 -0.006929)
(0.237559 -23.5453 -0.00639663)
(0.246324 -23.5691 -0.00537612)
(0.253268 -23.5885 -0.00434029)
(0.25853 -23.6038 -0.00334091)
(0.262358 -23.6152 -0.00237288)
(0.265043 -23.6228 -0.00143135)
(0.266544 -23.6265 -0.00048366)
(0.23001 -22.6525 0.00277088)
(0.237582 -22.6402 0.00267384)
(0.2463 -22.6305 0.00204554)
(0.253185 -22.6237 0.00144598)
(0.25839 -22.6189 0.000973392)
(0.262173 -22.6158 0.000616796)
(0.264827 -22.614 0.00035493)
(0.266308 -22.6131 0.000122981)
(0.242706 -21.7508 0.0170483)
(0.254825 -21.6882 0.0141156)
(0.265899 -21.64 0.0108383)
(0.274239 -21.6037 0.00810362)
(0.280372 -21.5769 0.00585405)
(0.284748 -21.558 0.00397363)
(0.287739 -21.5459 0.00241252)
(0.289303 -21.5389 0.000857445)
)
;
        pressure        uniform 0;
        value           nonuniform List<vector> 
192
(
(0.00041954 0.000304652 0.000243517)
(0.000727793 0.000403719 0.00031993)
(0.00120623 0.000508814 0.00036987)
(0.00166921 0.000536183 0.00038763)
(0.00213789 0.000520565 0.000399191)
(0.00259012 0.000473009 0.000410297)
(0.00302178 0.000409712 0.00042493)
(0.00343431 0.000342739 0.000443436)
(0.000412571 0.000304737 0.000137578)
(0.000791055 0.000372522 0.000230064)
(0.00124875 0.00047347 0.000291255)
(0.00170975 0.000504366 0.000323143)
(0.00217041 0.000491705 0.000343622)
(0.00261721 0.000447282 0.000359831)
(0.00304532 0.000386365 0.000376104)
(0.00345661 0.000321288 0.00039425)
(0.000421983 0.000314964 8.36616e-05)
(0.000819217 0.000363493 0.000162171)
(0.00128342 0.000450691 0.000220441)
(0.00174389 0.000478062 0.000258781)
(0.00220166 0.000464906 0.000284934)
(0.0026454 0.000422002 0.00030502)
(0.00307126 0.000363234 0.000322865)
(0.00348163 0.000300692 0.000340632)
(0.000429844 0.000322411 5.32645e-05)
(0.000836404 0.000360926 0.000114957)
(0.00130754 0.000438917 0.00016424)
(0.00177065 0.000460246 0.000200697)
(0.00222858 0.000444492 0.000227629)
(0.00267151 0.000401193 0.000248588)
(0.00309657 0.00034335 0.000266414)
(0.00350682 0.000282552 0.000282879)
(0.00043528 0.000327368 3.45697e-05)
(0.000847699 0.000360712 8.04081e-05)
(0.0013242 0.000433033 0.000118925)
(0.00179056 0.000449371 0.000149395)
(0.00225005 0.000430505 0.000173187)
(0.00269351 0.000385855 0.000192149)
(0.00311881 0.000328 0.000208065)
(0.00352951 0.000268102 0.000222093)
(0.000438911 0.000330618 2.18565e-05)
(0.00085522 0.000361281 5.3372e-05)
(0.00133559 0.000430225 8.07703e-05)
(0.00180475 0.000443082 0.000103335)
(0.00226602 0.000421609 0.000121588)
(0.00271051 0.000375489 0.000136432)
(0.00313648 0.000317205 0.00014886)
(0.0035479 0.000257645 0.000159505)
(0.00044116 0.000332611 1.21759e-05)
(0.000859899 0.000361932 3.05922e-05)
(0.00134279 0.000428989 4.69434e-05)
(0.00181392 0.000439703 6.07271e-05)
(0.0022766 0.00041646 7.21129e-05)
(0.00272203 0.000369211 8.14954e-05)
(0.0031487 0.00031047 8.9356e-05)
(0.00356078 0.000250976 9.59749e-05)
(0.000442237 0.000333566 3.91952e-06)
(0.000862152 0.000362329 9.97687e-06)
(0.00134628 0.000428539 1.54093e-05)
(0.00181843 0.00043824 2.00383e-05)
(0.00228188 0.000414119 2.38994e-05)
(0.00272785 0.000366273 2.71018e-05)
(0.00315493 0.000307261 2.97866e-05)
(0.00356739 0.000247753 3.20294e-05)
(0.000215829 0.000186811 0.000372099)
(0.000640598 0.000219345 0.000323568)
(0.00111369 0.000295811 0.000390757)
(0.00159912 0.000311344 0.000402413)
(0.00208192 0.000297392 0.000415153)
(0.0025445 0.000259104 0.000426774)
(0.00298105 0.000207163 0.000442054)
(0.00339384 0.000148624 0.000460893)
(9.59652e-05 7.80992e-05 0.000199446)
(0.000505841 8.17348e-06 0.000265196)
(0.000992866 -2.47812e-06 0.00032002)
(0.00149951 -3.68582e-05 0.000354788)
(0.00199764 -8.09072e-05 0.00038184)
(0.00247104 -0.0001327 0.00040411)
(0.00291446 -0.00018815 0.000424601)
(0.00333036 -0.000244937 0.000444485)
(5.43894e-05 -1.04156e-05 7.45507e-05)
(0.000449573 -0.000136197 0.00016258)
(0.000932102 -0.000250718 0.000242684)
(0.00144087 -0.000349665 0.00030217)
(0.00193982 -0.000435266 0.000347005)
(0.00241331 -0.000509257 0.000380795)
(0.0028564 -0.000573959 0.000407464)
(0.00327187 -0.000631686 0.00043139)
(7.27419e-05 -0.000114383 -8.16195e-05)
(0.000473868 -0.000333216 7.87139e-05)
(0.000936499 -0.000541953 0.000171298)
(0.00142493 -0.000697415 0.000255023)
(0.0019085 -0.000814524 0.000315685)
(0.00237068 -0.000901986 0.000359361)
(0.002806 -0.000969541 0.000390591)
(0.00321757 -0.00102488 0.000414978)
(0.000172395 -0.000304348 -6.78746e-05)
(0.000525197 -0.00059125 5.09566e-05)
(0.0009693 -0.000815903 0.000144925)
(0.00143516 -0.000968117 0.000224096)
(0.00190361 -0.00107159 0.000283031)
(0.00235646 -0.00114206 0.000324969)
(0.00278767 -0.00119451 0.000354444)
(0.00319962 -0.00124081 0.000377841)
(0.000215654 -0.000334685 -3.18258e-05)
(0.000561097 -0.000624677 4.92485e-05)
(0.001002 -0.000853215 0.000123465)
(0.00146457 -0.00100343 0.000186116)
(0.00192855 -0.00110389 0.000234323)
(0.00237867 -0.00117216 0.00026998)
(0.00280925 -0.00122358 0.000296568)
(0.00322214 -0.00126974 0.000319063)
(0.000236094 -0.000352624 -1.06054e-05)
(0.000585561 -0.000639385 4.69997e-05)
(0.00102801 -0.000873733 0.000102309)
(0.00149003 -0.0010262 0.000150988)
(0.00195297 -0.00112793 0.000189585)
(0.00240232 -0.00119732 0.0002192)
(0.00283301 -0.00124998 0.000242398)
(0.0032471 -0.00129736 0.000262945)
(0.000246929 -0.000363139 -9.38032e-07)
(0.000601946 -0.000649064 4.09404e-05)
(0.00104758 -0.000887324 8.19396e-05)
(0.001511 -0.00104294 0.00011887)
(0.00197476 -0.00114707 0.000149036)
(0.00242472 -0.00121837 0.000172938)
(0.00285624 -0.0012727 0.000192354)
(0.00327168 -0.00132141 0.000210016)
(0.000253459 -0.000369745 2.59901e-06)
(0.000612987 -0.00065614 3.26684e-05)
(0.001062 -0.000897358 6.23426e-05)
(0.00152755 -0.00105574 8.94391e-05)
(0.00199285 -0.00116219 0.000112113)
(0.002444 -0.00123534 0.000130554)
(0.00287665 -0.00129115 0.00014592)
(0.00329337 -0.00134101 0.000160077)
(0.000257629 -0.000374018 3.12502e-06)
(0.000620429 -0.000661252 2.34868e-05)
(0.00107226 -0.000904702 4.36491e-05)
(0.00153986 -0.0010652 6.22249e-05)
(0.00200673 -0.0011735 7.80415e-05)
(0.00245912 -0.00124811 9.11562e-05)
(0.00289285 -0.00130505 0.000102269)
(0.00331066 -0.00135577 0.000112557)
(0.000260179 -0.00037664 2.25835e-06)
(0.000625104 -0.000664605 1.40786e-05)
(0.0010789 -0.000909561 2.57991e-05)
(0.00154802 -0.00107148 3.66591e-05)
(0.00201611 -0.00118102 4.60105e-05)
(0.00246947 -0.00125662 5.38617e-05)
(0.00290403 -0.00131431 6.05819e-05)
(0.00332261 -0.00136561 6.681e-05)
(0.000261398 -0.000377899 8.05686e-07)
(0.000627368 -0.00066627 4.68385e-06)
(0.00108217 -0.000911983 8.53118e-06)
(0.00155209 -0.00107461 1.21061e-05)
(0.00202083 -0.00118478 1.52013e-05)
(0.00247472 -0.00126087 1.78159e-05)
(0.00290971 -0.00131892 2.00643e-05)