/*--------------------------------*- C++ -*----------------------------------*\
| =========                 |                                                 |
| \\      /  F ield         | foam-extend: Open Source CFD                    |
|  \\    /   O peration     | Version:     3.1                                |
|   \\  /    A nd           | Web:         http://www.extend-project.de       |
|    \\/     M anipulation  |                                                 |
\*---------------------------------------------------------------------------*/
FoamFile
{
    version     2.0;
    format      ascii;
    class       volSymmTensorField;
    location    "0.4";
    object      epsilon;
}
// * * * * * * * * * * * * * * * * * * * * * * * * * * * * * * * * * * * * * //

dimensions      [0 0 0 0 0 0 0];

internalField   nonuniform List<symmTensor> 
256
(
(-0.00640175 0.0102025 -0.000384917 0.0185697 0.00701473 -0.00366276)
(-0.00261535 0.00887968 -0.000945503 0.00215368 0.0043417 -0.00230961)
(-2.87201e-05 0.00763658 -0.000960458 -0.00764533 0.00110686 -0.000594831)
(0.00308806 0.00670781 -0.000364372 -0.0221296 -0.00166394 0.000775292)
(-0.010731 0.00325366 -0.000362461 0.00652928 -0.000585892 -0.00585213)
(-0.0053526 0.00930687 -0.00130222 0.000638654 -4.04573e-05 -0.00392395)
(-0.000275627 0.0092529 -0.00140065 -0.00742451 0.000841871 -0.0014094)
(0.0047953 0.00391317 -0.000451463 -0.0144658 0.00140327 0.000633264)
(-0.00823533 0.00375005 -6.17768e-05 0.00568774 0.000159549 -0.00428829)
(-0.00520266 0.00788538 -0.000630344 0.00017776 0.000210204 -0.00322906)
(-0.000829527 0.0079866 -0.000726686 -0.00614981 0.000389244 -0.00181295)
(0.00252133 0.0037945 -0.000172358 -0.0118458 0.000585462 -0.000645855)
(-0.0067828 0.00276289 -8.49067e-05 0.00226268 -0.000333679 -0.00381649)
(-0.00455393 0.00623685 -0.000394203 -0.000944583 -4.75614e-05 -0.0030984)
(-0.00139027 0.00630965 -0.000422514 -0.00506441 0.000233639 -0.00216098)
(0.000925649 0.00289117 -0.000109057 -0.00839216 0.000526277 -0.00141871)
(-0.00531947 0.00208882 -2.11639e-05 -2.7289e-05 -0.000289114 -0.00324548)
(-0.00395504 0.00459079 -0.00018376 -0.00175433 -7.88936e-05 -0.00292208)
(-0.00184479 0.00461381 -0.000198014 -0.00419384 9.84351e-05 -0.00245622)
(-0.000464744 0.00211397 -3.94923e-05 -0.00589746 0.000300119 -0.00211492)
(-0.00430788 0.0013634 1.0363e-06 -0.00170435 -0.000237827 -0.00290347)
(-0.00352606 0.00307041 -5.72746e-05 -0.00231339 -9.34785e-05 -0.00283254)
(-0.00220229 0.00307002 -6.19137e-05 -0.00352506 1.2047e-05 -0.00267287)
(-0.00144306 0.00136867 -7.18587e-06 -0.00410054 0.000130234 -0.00259192)
(-0.00370407 0.000739779 1.4577e-05 -0.00262534 -0.000131563 -0.00270848)
(-0.00325906 0.00177188 2.75567e-05 -0.00262316 -7.64382e-05 -0.00279001)
(-0.00245372 0.00176483 2.81213e-05 -0.00305613 -3.95498e-05 -0.00282286)
(-0.00203179 0.00074114 1.08314e-05 -0.00302244 -9.44055e-06 -0.00289677)
(-0.00358195 0.000217608 3.83742e-05 -0.00281617 -3.64493e-05 -0.00262668)
(-0.00324935 0.000704262 0.000120172 -0.00271983 -3.36848e-05 -0.00277802)
(-0.00247921 0.000695361 0.000124795 -0.00282906 -3.34337e-05 -0.00291125)
(-0.00216099 0.000219373 3.97398e-05 -0.00271884 -4.40614e-05 -0.00305599)
(-0.00642266 0.0112835 -0.000284272 0.0155009 0.00527601 -0.00229144)
(-0.00248484 0.0102774 -0.000746726 -0.00059719 0.00340086 -0.00140633)
(-5.23353e-05 0.00910506 -0.000755151 -0.00954471 0.00119934 -0.000287638)
(0.00321604 0.00798079 -0.000252227 -0.023663 -0.000750822 0.000637075)
(-0.0108717 0.00364244 -0.000341615 0.00793012 0.00147237 -0.00454316)
(-0.0052082 0.009863 -0.00120998 0.00143232 0.00133867 -0.00299124)
(-0.000416973 0.00973917 -0.00128613 -0.00781253 0.00145555 -0.00102692)
(0.00489234 0.00407207 -0.000420609 -0.015475 0.00138774 0.000621084)
(-0.00833804 0.00349532 -9.2143e-05 0.00572427 0.000415473 -0.00428856)
(-0.00514846 0.007618 -0.000710717 0.000324185 0.000558688 -0.00315037)
(-0.00106282 0.00771074 -0.000812274 -0.00604682 0.000885915 -0.00173262)
(0.00238187 0.00358638 -0.000255813 -0.0117198 0.00114732 -0.000531004)
(-0.00676282 0.00251771 -1.02486e-05 0.00250311 -0.000138743 -0.00379574)
(-0.00451263 0.00580438 -0.000333275 -0.00071249 0.000167896 -0.00306965)
(-0.00161557 0.00587166 -0.000386292 -0.00485265 0.000532805 -0.00217041)
(0.000724258 0.00263169 -9.17842e-05 -0.00817967 0.000859605 -0.00143157)
(-0.00530506 0.00181433 7.78724e-05 5.75494e-05 -0.000317231 -0.00331327)
(-0.00394142 0.00415003 -6.88731e-05 -0.00161007 -3.02933e-05 -0.00295869)
(-0.00201614 0.00418391 -9.739e-05 -0.00397091 0.000266415 -0.00248192)
(-0.000628398 0.00186084 2.56702e-05 -0.00562669 0.000534992 -0.00212208)
(-0.00428887 0.0011577 0.000120935 -0.0016555 -0.000310497 -0.00297081)
(-0.00352011 0.00272567 9.81337e-05 -0.00222737 -0.000107101 -0.00287731)
(-0.00230872 0.0027394 8.44089e-05 -0.00335765 8.14724e-05 -0.00269554)
(-0.00155339 0.00118497 9.16901e-05 -0.00389801 0.000246642 -0.0025977)
(-0.00369381 0.000607618 0.000142486 -0.00259523 -0.000205096 -0.00278273)
(-0.00325803 0.00154479 0.000203936 -0.00258578 -0.00010993 -0.00284455)
(-0.00249415 0.00155024 0.000200707 -0.00296956 -2.46484e-05 -0.00284093)
(-0.00207725 0.000630646 0.000129716 -0.0029259 3.1842e-05 -0.0028963)
(-0.00356999 0.000170294 0.00018017 -0.00276813 -7.88311e-05 -0.00272126)
(-0.00324365 0.000602133 0.000315712 -0.00268693 -5.78072e-05 -0.00285913)
(-0.00247865 0.000598205 0.000321285 -0.0027953 -3.44055e-05 -0.00294993)
(-0.00216551 0.000178222 0.000183147 -0.00269709 -3.61457e-05 -0.00307919)
(-0.00664469 0.0117787 -0.000181635 0.0151964 0.0035574 -0.00142135)
(-0.00253481 0.010805 -0.000479079 -0.00121531 0.00240004 -0.000888444)
(6.96686e-05 0.00967218 -0.000487193 -0.0101384 0.00105923 -0.000229211)
(0.00351627 0.00860822 -0.000180755 -0.0245335 -0.000143332 0.000332319)
(-0.0113484 0.00389321 -0.000280689 0.00718185 0.00164643 -0.00314176)
(-0.00540194 0.0102875 -0.000824233 0.000904455 0.00139552 -0.00210969)
(-0.00024222 0.0100978 -0.000861237 -0.00830125 0.00131113 -0.000863891)
(0.00535873 0.00413932 -0.000311424 -0.0156842 0.00111412 0.000212266)
(-0.00872786 0.00352002 -0.000136994 0.00544142 0.000793335 -0.00348264)
(-0.00538818 0.00780078 -0.000535472 0.000158587 0.000787124 -0.00258096)
(-0.00101896 0.00789549 -0.000587911 -0.00625458 0.000932622 -0.00155021)
(0.00258669 0.00364881 -0.00020209 -0.0118949 0.00100474 -0.000648212)
(-0.00697356 0.00250589 -2.7514e-05 0.00242276 0.00022242 -0.00343309)
(-0.00467731 0.00580594 -0.000246182 -0.000759549 0.000368433 -0.00276455)
(-0.00165586 0.00588364 -0.00028364 -0.00491384 0.000598026 -0.00203124)
(0.000758781 0.00263008 -7.70591e-05 -0.00823713 0.000765102 -0.00139227)
(-0.0054175 0.0017585 5.8133e-05 8.30594e-05 -5.82052e-05 -0.00324228)
(-0.0040481 0.00407743 -1.66013e-05 -0.00158764 0.000114305 -0.00282421)
(-0.00207794 0.00412335 -3.86461e-05 -0.00397385 0.000323107 -0.00237122)
(-0.000668248 0.00182426 2.51955e-05 -0.00565483 0.000480201 -0.00197876)
(-0.00432522 0.00109853 0.000112911 -0.00157312 -0.000149427 -0.00307166)
(-0.0035759 0.00263237 0.000140021 -0.00218474 -1.72139e-05 -0.00285054)
(-0.00236342 0.00265751 0.000128548 -0.00334856 0.00012345 -0.00260962)
(-0.0016175 0.00114121 9.25475e-05 -0.0039357 0.000223187 -0.00240264)
(-0.00368101 0.000557086 0.000146361 -0.00248328 -0.00012495 -0.00298317)
(-0.00327383 0.00146785 0.000247152 -0.00253769 -6.12335e-05 -0.00289014)
(-0.00252728 0.00148222 0.000243968 -0.00296728 4.89507e-06 -0.00278485)
(-0.00213499 0.000594351 0.000136276 -0.00298321 3.41726e-05 -0.00269383)
(-0.00351806 0.000156395 0.000189195 -0.00265331 -5.07468e-05 -0.00299652)
(-0.00322596 0.000572115 0.000352146 -0.0026288 -3.93944e-05 -0.00297027)
(-0.00249688 0.000571397 0.00035696 -0.00278743 -2.14289e-05 -0.00293915)
(-0.00221735 0.000167117 0.000191453 -0.00274022 -3.05445e-05 -0.00290743)
(-0.00682905 0.0120592 -0.000108282 0.0152142 0.0024066 -0.000922273)
(-0.00258285 0.0110751 -0.000293787 -0.00145237 0.00169521 -0.000607271)
(0.000151593 0.0099616 -0.000299141 -0.010415 0.000876091 -0.00021701)
(0.0037242 0.00894463 -0.000112516 -0.0250428 0.00013697 0.000113806)
(-0.0116914 0.0040276 -0.000183027 0.00665745 0.00142509 -0.00220335)
(-0.00553734 0.0105828 -0.000524962 0.000518611 0.00118661 -0.001555)
(-0.000105361 0.01037 -0.000541524 -0.00861682 0.00105024 -0.000775861)
(0.00570806 0.00422121 -0.000197918 -0.01581 0.000840732 -0.000103862)
(-0.00901565 0.00361509 -0.000105291 0.0050758 0.000877843 -0.00274203)
(-0.00555553 0.00801501 -0.000362484 -0.000101261 0.000789177 -0.00210621)
(-0.000951694 0.00810187 -0.000385503 -0.00648784 0.000811139 -0.00138965)
(0.00279768 0.0037359 -0.000134093 -0.0120679 0.000769692 -0.000756371)
(-0.00717682 0.00255442 -2.41047e-05 0.00222582 0.000436139 -0.0029806)
(-0.00481679 0.00592763 -0.000165466 -0.000905461 0.000453859 -0.0024407)
(-0.00165408 0.00600929 -0.000184959 -0.00505768 0.000551232 -0.00186832)
(0.000849812 0.00268278 -5.07888e-05 -0.00836241 0.000590324 -0.0013536)
(-0.0055319 0.00177524 4.50971e-05 1.67796e-05 0.00015728 -0.00305161)
(-0.00414484 0.00413138 6.77746e-06 -0.00164949 0.000215587 -0.00264242)
(-0.00210566 0.00418319 -5.95109e-06 -0.00406026 0.000318191 -0.00222725)
(-0.000661788 0.00184906 2.52802e-05 -0.00575672 0.000370092 -0.00184458)
(-0.00436826 0.00109596 9.44701e-05 -0.00155067 1.83689e-05 -0.0030717)
(-0.00363111 0.00264349 0.000134147 -0.00219449 6.94236e-05 -0.00277998)
(-0.00239668 0.00267464 0.000126903 -0.00340206 0.000141107 -0.0024939)
(-0.00165382 0.00114637 8.06538e-05 -0.00402884 0.000171356 -0.00221887)
(-0.00367041 0.000545357 0.000128762 -0.00240532 -2.20653e-05 -0.00311001)
(-0.00329348 0.00146068 0.000228062 -0.00251618 -1.23392e-06 -0.00290165)
(-0.00255334 0.0014797 0.000225338 -0.00300082 3.11441e-05 -0.00270384)
(-0.00218793 0.000589877 0.000120051 -0.00307062 2.79646e-05 -0.00250014)
(-0.00346893 0.000153924 0.000170579 -0.00255495 -1.51642e-05 -0.00320395)
(-0.0032177 0.000567829 0.000319512 -0.00258522 -1.54835e-05 -0.00304351)
(-0.00251469 0.000568704 0.000321736 -0.0028005 -5.33602e-06 -0.00289854)
(-0.00227696 0.000165632 0.000169107 -0.00280334 -2.04107e-05 -0.00273508)
(-0.0069548 0.0122318 -6.29336e-05 0.0152789 0.00162443 -0.000645179)
(-0.0026149 0.0112348 -0.000175656 -0.00156716 0.00118368 -0.000451164)
(0.000201564 0.0101317 -0.000178627 -0.0105744 0.000680468 -0.000211385)
(0.00385833 0.00914265 -6.64179e-05 -0.0253724 0.000222092 -8.46117e-06)
(-0.0119202 0.00410984 -0.000111578 0.00635891 0.00111422 -0.0016422)
(-0.00561824 0.010779 -0.000321154 0.000280401 0.000920672 -0.00122045)
(-1.5195e-05 0.0105593 -0.000328252 -0.00882173 0.000789076 -0.000717001)
(0.00594178 0.00428541 -0.000118393 -0.0159197 0.000610198 -0.00028214)
(-0.00920766 0.0036921 -6.86196e-05 0.00479703 0.000783564 -0.00223065)
(-0.00565294 0.00818431 -0.00022881 -0.000318897 0.000674351 -0.0017749)
(-0.000896932 0.00826589 -0.000238416 -0.006678 0.000638083 -0.00126584)
(0.00295382 0.00380597 -8.14097e-05 -0.0122128 0.000555129 -0.0008113)
(-0.0073213 0.00260782 -1.42977e-05 0.0020248 0.000481076 -0.0026134)
(-0.00490455 0.00605185 -0.00010109 -0.00106147 0.000436461 -0.00218028)
(-0.00164173 0.00613349 -0.000110481 -0.00520352 0.000453125 -0.00172693)
(0.000929922 0.00273602 -2.79548e-05 -0.00848691 0.000425066 -0.00130912)
(-0.00562065 0.00180791 3.53536e-05 -8.8835e-05 0.000257783 -0.00285439)
(-0.00421077 0.00421069 1.84312e-05 -0.00174147 0.000247011 -0.00247331)
(-0.00211766 0.0042641 1.15721e-05 -0.00416317 0.000276383 -0.0020949)
(-0.000643496 0.00188406 2.3843e-05 -0.00586188 0.000265989 -0.00173268)
(-0.0044073 0.00111136 7.33363e-05 -0.00157638 0.000120064 -0.00302217)
(-0.00367208 0.00268596 0.000112391 -0.0022344 0.000116565 -0.00269589)
(-0.00241774 0.00271908 0.000107905 -0.00347087 0.00013624 -0.00238459)
(-0.00167289 0.00116455 6.40642e-05 -0.00411862 0.000122758 -0.00207207)
(-0.00366994 0.000549016 0.000102076 -0.00237351 5.14278e-05 -0.00316863)
(-0.00331169 0.00147885 0.000186066 -0.00251899 4.0478e-05 -0.00288524)
(-0.00257411 0.00149932 0.000183483 -0.00304345 4.47397e-05 -0.00262333)
(-0.00222615 0.000596096 9.45547e-05 -0.00314691 2.05256e-05 -0.00234543)
(-0.0034417 0.000156207 0.000138238 -0.00249731 1.50446e-05 -0.00332879)
(-0.00321849 0.00057388 0.000259942 -0.00256519 3.98545e-06 -0.00307334)
(-0.00253176 0.000575049 0.000259637 -0.00282295 4.96827e-06 -0.00284498)
(-0.00232357 0.000167644 0.000133801 -0.00286006 -1.45088e-05 -0.00258943)
(-0.00703428 0.012341 -3.50286e-05 0.0153411 0.00105213 -0.000492807)
(-0.00263462 0.011336 -0.000101079 -0.00162819 0.000785097 -0.000363929)
(0.000232122 0.010239 -0.000102553 -0.0106739 0.000483105 -0.000205859)
(0.00394211 0.00926565 -3.72455e-05 -0.0255919 0.00020489 -7.11128e-05)
(-0.0120632 0.00416163 -6.3601e-05 0.00619554 0.000789567 -0.00131784)
(-0.00566544 0.0109063 -0.000186988 0.00013791 0.000649777 -0.00102283)
(4.23014e-05 0.0106842 -0.000189807 -0.0089566 0.000546803 -0.000674501)
(0.00608983 0.00432948 -6.66917e-05 -0.0160121 0.000414158 -0.000370563)
(-0.00932634 0.00374502 -3.95953e-05 0.00461455 0.00059966 -0.00190822)
(-0.00570804 0.00830149 -0.000134581 -0.000472146 0.000504427 -0.0015607)
(-0.000857999 0.00838025 -0.000138368 -0.00681602 0.000454152 -0.00117655)
(0.00305661 0.00385511 -4.55706e-05 -0.0123256 0.000372986 -0.000828002)
(-0.00741162 0.00264883 -5.74782e-06 0.00186902 0.000409478 -0.00235901)
(-0.00495555 0.00614633 -5.59947e-05 -0.00118807 0.000350447 -0.00199623)
(-0.00162896 0.00622724 -6.0339e-05 -0.00532079 0.000332625 -0.00161966)
(0.00098617 0.00277605 -1.29259e-05 -0.00858761 0.000284629 -0.00126446)
(-0.00567816 0.0018364 2.66262e-05 -0.000189476 0.000254249 -0.00269817)
(-0.00425129 0.00427789 2.09059e-05 -0.00182778 0.000217943 -0.00234192)
(-0.00212247 0.00433143 1.73175e-05 -0.00425222 0.000211493 -0.00199082)
(-0.000628061 0.0019129 1.98752e-05 -0.00594714 0.000178075 -0.0016461)
(-0.00443477 0.00112779 5.25727e-05 -0.00161969 0.000145658 -0.00296272)
(-0.0036995 0.0027273 8.39465e-05 -0.00228084 0.000119203 -0.00262067)
(-0.00243125 0.00276073 8.11621e-05 -0.00353253 0.000112121 -0.00229629)
(-0.00168464 0.00118162 4.63917e-05 -0.0041885 8.2379e-05 -0.0019644)
(-0.00367337 0.000555837 7.34504e-05 -0.00237031 7.87363e-05 -0.00318536)
(-0.00332686 0.0014998 0.000135735 -0.00253366 5.44966e-05 -0.00285716)
(-0.00259024 0.00152035 0.000133453 -0.00308221 4.41763e-05 -0.00255504)
(-0.00225342 0.00060331 6.74124e-05 -0.0032035 1.41927e-05 -0.00223284)
(-0.00342998 0.000158645 0.000101458 -0.00247092 2.798e-05 -0.00338813)
(-0.0032248 0.000580925 0.000190188 -0.0025615 1.30742e-05 -0.00307356)
(-0.00254703 0.000581944 0.000188502 -0.0028467 8.99251e-06 -0.00279228)
(-0.00235775 0.000169554 9.60102e-05 -0.00290447 -9.73813e-06 -0.00248049)
(-0.00708076 0.0124071 -1.7539e-05 0.0153869 0.000594138 -0.00041292)
(-0.00264581 0.0113979 -5.20276e-05 -0.00166042 0.000449867 -0.00031711)
(0.000249918 0.0103045 -5.26728e-05 -0.0107339 0.000288064 -0.000201062)
(0.00399119 0.00933958 -1.87146e-05 -0.0257291 0.000137485 -0.000100676)
(-0.0121461 0.00419268 -3.21877e-05 0.00611074 0.000469588 -0.00114173)
(-0.00569149 0.0109833 -9.6671e-05 5.75084e-05 0.00038557 -0.000912656)
(7.65264e-05 0.0107602 -9.76586e-05 -0.00903988 0.000321231 -0.000646101)
(0.00617692 0.00435672 -3.34673e-05 -0.0160784 0.000240398 -0.000409653)
(-0.00939415 0.00377752 -1.98034e-05 0.00450763 0.000372511 -0.00172313)
(-0.0057377 0.00837381 -6.94504e-05 -0.000567039 0.000309546 -0.00143419)
(-0.000833459 0.00845111 -7.08099e-05 -0.00690485 0.000270869 -0.00111881)
(0.00311782 0.00388565 -2.24826e-05 -0.0124027 0.000214798 -0.000827283)
(-0.00746296 0.00267512 -1.35102e-06 0.00176799 0.000269022 -0.00220437)
(-0.00498317 0.006207 -2.69169e-05 -0.00127315 0.000224013 -0.00188133)
(-0.00161955 0.00628729 -2.87917e-05 -0.0054002 0.000202327 -0.00154875)
(0.00102043 0.00280157 -4.89373e-06 -0.00865684 0.000163536 -0.00122887)
(-0.00571112 0.00185561 1.67547e-05 -0.00026256 0.000179156 -0.00259551)
(-0.00427404 0.00432302 1.58103e-05 -0.00189062 0.000146742 -0.00225481)
(-0.00212429 0.00437632 1.40704e-05 -0.0043149 0.000132233 -0.00192052)
(-0.000618374 0.00193194 1.31392e-05 -0.00600536 0.000102463 -0.00158688)
(-0.00445129 0.0011396 3.16765e-05 -0.00165802 0.000111474 -0.0029159)
(-0.00371607 0.00275644 5.176e-05 -0.00231821 8.62036e-05 -0.00256629)
(-0.00243961 0.00278969 5.0193e-05 -0.00357688 7.33626e-05 -0.00223534)
(-0.00169219 0.00119336 2.80564e-05 -0.00423497 4.76893e-05 -0.00189365)
(-0.00367727 0.000561267 4.41612e-05 -0.00237772 6.49645e-05 -0.00318445)
(-0.00333778 0.00151513 8.22561e-05 -0.00254916 4.35999e-05 -0.00283106)
(-0.00260157 0.00153537 8.06636e-05 -0.00311061 3.16854e-05 -0.00250601)
(-0.00227131 0.000608424 4.02226e-05 -0.00324021 8.51361e-06 -0.00215931)
(-0.00342673 0.000160268 6.18749e-05 -0.00246235 2.4282e-05 -0.00341054)
(-0.00323212 0.00058595 0.000115722 -0.00256504 1.22789e-05 -0.0030622)
(-0.0025588 0.00058674 0.000114043 -0.00286572 7.6662e-06 -0.00275089)
(-0.00238026 0.000170738 5.76153e-05 -0.0029345 -5.65544e-06 -0.00240779)
(-0.00710218 0.0124385 -5.32774e-06 0.0154109 0.000192415 -0.000378633)
(-0.00265085 0.0114277 -1.60252e-05 -0.00167448 0.000146694 -0.000296632)
(0.000258161 0.010336 -1.62026e-05 -0.0107625 9.56639e-05 -0.000198296)
(0.00401394 0.00937472 -5.69053e-06 -0.0257956 4.78936e-05 -0.000112191)
(-0.012184 0.00420735 -9.81681e-06 0.00607468 0.000155726 -0.00106449)
(-0.00570306 0.0110197 -2.98063e-05 2.11904e-05 0.000127727 -0.000863351)
(9.25408e-05 0.0107963 -3.00335e-05 -0.00907986 0.000105941 -0.000631795)
(0.00621727 0.00436973 -1.01561e-05 -0.0161129 7.88418e-05 -0.000423776)
(-0.00942482 0.00379294 -5.9677e-06 0.00445867 0.000126006 -0.00163926)
(-0.00575067 0.00840818 -2.13288e-05 -0.000612058 0.000104142 -0.00137568)
(-0.00082166 0.00848484 -2.16552e-05 -0.00694821 8.99522e-05 -0.00109048)
(0.00314623 0.00390021 -6.73642e-06 -0.0124418 7.01613e-05 -0.000823542)
(-0.00748601 0.0026878 -1.03139e-07 0.00171906 9.32691e-05 -0.00213205)
(-0.00499525 0.00623628 -7.86879e-06 -0.00131528 7.6794e-05 -0.00182653)
(-0.00161471 0.00631624 -8.39093e-06 -0.00543989 6.7837e-05 -0.00151366)
(0.00103642 0.00281385 -1.18035e-06 -0.00869188 5.33666e-05 -0.00120936)
(-0.0057259 0.00186505 5.71495e-06 -0.000300085 6.39762e-05 -0.00254545)
(-0.0042842 0.0043452 5.81421e-06 -0.00192305 5.14968e-05 -0.00221184)
(-0.00212491 0.00439832 5.29208e-06 -0.00434683 4.49441e-05 -0.00188531)
(-0.000613939 0.00194122 4.56653e-06 -0.00603463 3.34842e-05 -0.0015568)
(-0.00445888 0.00114553 1.05728e-05 -0.00167951 4.11344e-05 -0.00289096)
(-0.00372386 0.00277101 1.74707e-05 -0.00233847 3.11868e-05 -0.00253815)
(-0.00244369 0.00280408 1.69593e-05 -0.00359975 2.54834e-05 -0.00220438)
(-0.00169606 0.00119914 9.37107e-06 -0.004258 1.56593e-05 -0.00185852)
(-0.00367961 0.000564056 1.4713e-05 -0.0023841 2.4654e-05 -0.00318064)
(-0.00334351 0.00152284 2.75211e-05 -0.00255852 1.63927e-05 -0.00281589)
(-0.00260749 0.00154283 2.69492e-05 -0.00312546 1.14475e-05 -0.00248046)
(-0.00228031 0.000610915 1.33431e-05 -0.00325821 2.86314e-06 -0.00212291)
(-0.00342641 0.000161003 2.07702e-05 -0.00246083 9.36032e-06 -0.00341655)
(-0.00323675 0.000588408 3.88225e-05 -0.00256866 4.84518e-06 -0.00305299)
(-0.00256526 0.000589048 3.81462e-05 -0.00287618 2.93716e-06 -0.00272826)
(-0.00239156 0.000171244 1.91823e-05 -0.00294966 -1.85486e-06 -0.00237133)
)
;

boundaryField
{
    interface
    {
        type            calculated;
        value           nonuniform List<symmTensor> 
192
(
(-0.0252659 -2.43266e-06 0.000157719 0.0301323 0.0080887 -0.00416269)
(-0.00885382 1.66096e-06 0.000199138 0.00837187 -0.00068264 -0.00654897)
(-0.00990426 -9.26918e-06 0.000193349 0.00807863 0.000169498 -0.00466076)
(-0.00709631 -1.58051e-05 0.000174424 0.00343072 -0.000482443 -0.00406634)
(-0.00552546 -2.00917e-05 0.000150635 0.000484044 -0.000411943 -0.0033366)
(-0.00426811 -2.24272e-05 0.000124819 -0.00170298 -0.000327989 -0.00289467)
(-0.00358492 -2.30745e-05 9.85103e-05 -0.00284701 -0.000166618 -0.00264397)
(-0.00349014 -2.13495e-05 7.29481e-05 -0.0029685 -3.82201e-05 -0.00254306)
(-0.0244204 -5.95127e-06 9.83308e-05 0.0271667 0.00606988 -0.00262612)
(-0.0108987 -7.06276e-06 0.000125172 0.00980221 0.00166342 -0.0051356)
(-0.00989753 -2.04373e-05 0.000122804 0.0079863 0.000416719 -0.00473318)
(-0.0073466 -3.04302e-05 0.000112351 0.00366578 -0.000270478 -0.00407414)
(-0.00559136 -3.70608e-05 9.88447e-05 0.000548973 -0.000456446 -0.00342922)
(-0.00432276 -4.10254e-05 8.38921e-05 -0.00165038 -0.000417163 -0.00297311)
(-0.00362497 -4.28345e-05 6.84301e-05 -0.00279896 -0.000254457 -0.00271941)
(-0.00351825 -4.21523e-05 5.35438e-05 -0.00290448 -8.63329e-05 -0.00262984)
(-0.0251964 -7.62761e-06 6.5194e-05 0.0271966 0.00405604 -0.00163024)
(-0.011392 -1.14002e-05 8.35102e-05 0.00885103 0.00185207 -0.00356334)
(-0.010261 -2.75038e-05 8.28901e-05 0.0075667 0.000862033 -0.00387678)
(-0.00755847 -3.96496e-05 7.68816e-05 0.00354907 0.000185773 -0.00373537)
(-0.00565594 -4.78248e-05 6.87896e-05 0.000567185 -0.000126405 -0.00343234)
(-0.00430737 -5.28066e-05 5.95983e-05 -0.00154384 -0.000208955 -0.00317118)
(-0.00356108 -5.52791e-05 4.99241e-05 -0.00264576 -0.000152562 -0.00302325)
(-0.00339026 -5.50423e-05 4.06931e-05 -0.00275819 -5.1449e-05 -0.00300742)
(-0.025825 -8.67644e-06 4.55799e-05 0.027455 0.00271513 -0.00104524)
(-0.0117586 -1.40287e-05 5.85392e-05 0.00822072 0.00159242 -0.00246833)
(-0.0105788 -3.21136e-05 5.85611e-05 0.00711033 0.000971948 -0.00302301)
(-0.00777766 -4.58304e-05 5.48527e-05 0.00330573 0.000463587 -0.00323364)
(-0.0057631 -5.51327e-05 4.96999e-05 0.000486421 0.000150227 -0.00325117)
(-0.00433168 -6.08681e-05 4.37249e-05 -0.00150999 4.97577e-06 -0.00321877)
(-0.00352879 -6.38318e-05 3.73385e-05 -0.00253873 -2.43033e-05 -0.00321874)
(-0.00330309 -6.39114e-05 3.12609e-05 -0.00263366 -8.40658e-06 -0.00329165)
(-0.0262378 -9.39058e-06 3.17561e-05 0.0276807 0.00181758 -0.00072104)
(-0.0120044 -1.57392e-05 4.08245e-05 0.00787649 0.00123998 -0.00181542)
(-0.0107925 -3.5163e-05 4.10528e-05 0.00678525 0.000871732 -0.00243346)
(-0.00792832 -4.99844e-05 3.87234e-05 0.00306733 0.000531734 -0.00281925)
(-0.00584768 -6.01037e-05 3.54104e-05 0.000363531 0.000282904 -0.00304466)
(-0.00435731 -6.63995e-05 3.15129e-05 -0.00153508 0.00013436 -0.00319136)
(-0.00351148 -6.97434e-05 2.72978e-05 -0.00249209 6.5959e-05 -0.00332026)
(-0.00324772 -7.00888e-05 2.32882e-05 -0.00256004 2.74523e-05 -0.00346959)
(-0.0264998 -9.87142e-06 2.10348e-05 0.0278494 0.00117054 -0.000543701)
(-0.0121606 -1.68485e-05 2.70435e-05 0.00769469 0.000876673 -0.00144048)
(-0.0109282 -3.71467e-05 2.72948e-05 0.00658142 0.000668272 -0.00206453)
(-0.00802267 -5.271e-05 2.58748e-05 0.00288848 0.000458197 -0.00253316)
(-0.00590205 -6.33934e-05 2.38146e-05 0.00024843 0.000286902 -0.0028778)
(-0.00437585 -7.00878e-05 2.13651e-05 -0.00158222 0.000168919 -0.00314147)
(-0.00350339 -7.37131e-05 1.86903e-05 -0.00248301 9.85126e-05 -0.00336171)
(-0.00321996 -7.42647e-05 1.61399e-05 -0.00252498 4.12897e-05 -0.00356148)
(-0.0266552 -1.01839e-05 1.19998e-05 0.027961 0.000658778 -0.000451433)
(-0.0122512 -1.75231e-05 1.53856e-05 0.00760325 0.000520814 -0.00123873)
(-0.0110066 -3.83385e-05 1.55842e-05 0.0064655 0.000415444 -0.00185496)
(-0.00807616 -5.43613e-05 1.48344e-05 0.00277502 0.000302433 -0.00236099)
(-0.00593248 -6.54005e-05 1.3716e-05 0.000165884 0.000203986 -0.00276837)
(-0.00438638 -7.23534e-05 1.23736e-05 -0.00162461 0.000130382 -0.00309913)
(-0.00349964 -7.61708e-05 1.08882e-05 -0.00248873 8.06317e-05 -0.00337451)
(-0.0032076 -7.6853e-05 9.44463e-06 -0.00251225 3.41698e-05 -0.00360256)
(-0.0267278 -1.04149e-05 3.88296e-06 0.0280166 0.000213023 -0.000412065)
(-0.0122924 -1.78704e-05 4.95389e-06 0.00756526 0.000172639 -0.00115083)
(-0.0110422 -3.88686e-05 5.03521e-06 0.00641337 0.000140573 -0.00176073)
(-0.0081 -5.51164e-05 4.8089e-06 0.00272078 0.000105028 -0.0022811)
(-0.00594576 -6.63327e-05 4.45959e-06 0.000123825 7.30572e-05 -0.00271525)
(-0.00439088 -7.34199e-05 4.03685e-06 -0.00164844 4.82247e-05 -0.00307609)
(-0.00349811 -7.73626e-05 3.56166e-06 -0.00249485 3.05019e-05 -0.00337684)
(-0.00320306 -7.80836e-05 3.08451e-06 -0.00250911 1.29735e-05 -0.00361702)
(-0.00649482 0.00944055 -0.000295392 0.0213654 2.47421e-06 -0.0171597)
(-0.0108636 0.00303263 -0.000357539 0.0047177 7.36172e-06 -0.00287917)
(-0.00835234 0.00397921 -0.000338486 0.00556815 1.12589e-05 -0.00515027)
(-0.00689811 0.00297679 -0.000295204 0.00202971 1.43426e-05 -0.00372702)
(-0.00538481 0.00230697 -0.0002458 -7.02232e-05 1.62881e-05 -0.00331886)
(-0.00434249 0.00151881 -0.000194017 -0.00169811 1.74898e-05 -0.0029097)
(-0.00371039 0.000833313 -0.000142491 -0.00259577 1.908e-05 -0.00271567)
(-0.00357276 0.000254397 -9.30818e-05 -0.00280942 2.51831e-05 -0.00264818)
(-0.00276678 0.00783546 -0.000262893 0.00445979 -1.26354e-06 -0.00797124)
(-0.00560525 0.00899967 -0.000325392 -0.00044382 -2.53394e-06 -0.00271265)
(-0.00539091 0.0082196 -0.00030542 5.12219e-07 -3.48111e-06 -0.00315202)
(-0.00467529 0.00661737 -0.000265762 -0.00116042 -3.86224e-06 -0.00284294)
(-0.00401885 0.00494547 -0.000220453 -0.00185845 -3.98899e-06 -0.00280755)
(-0.00355674 0.00333001 -0.000173338 -0.00236278 -3.9646e-06 -0.00277125)
(-0.00326593 0.00193594 -0.000126899 -0.00263076 -3.7126e-06 -0.00277871)
(-0.00324405 0.000782829 -8.40728e-05 -0.00272288 -8.51486e-07 -0.00272067)
(6.66042e-05 0.00654922 -0.000258775 -0.00615614 -3.52713e-06 -0.00246153)
(-4.06082e-05 0.00896599 -0.000322647 -0.00733282 -1.17715e-05 -0.00158828)
(-0.000587776 0.00833581 -0.000302678 -0.00633547 -1.77685e-05 -0.00188765)
(-0.00120138 0.00670255 -0.000263484 -0.00527149 -2.1862e-05 -0.00218805)
(-0.0017159 0.00496519 -0.000218285 -0.00438577 -2.43925e-05 -0.00243548)
(-0.00213005 0.0033225 -0.000171193 -0.0036642 -2.61447e-05 -0.00264026)
(-0.00243191 0.00192187 -0.000124748 -0.00312805 -2.79823e-05 -0.00279537)
(-0.00248898 0.000770893 -8.16673e-05 -0.00285186 -2.93915e-05 -0.00293763)
(0.00313471 0.00584813 -0.000276162 -0.0211516 -9.8162e-06 0.00587417)
(0.0049577 0.00377667 -0.000346557 -0.0135965 -2.99581e-05 -0.000477079)
(0.00274773 0.00401844 -0.000326075 -0.0120538 -3.78358e-05 -2.32051e-05)
(0.0011166 0.00312578 -0.00028474 -0.00860338 -4.37515e-05 -0.00125649)
(-0.000338215 0.00232392 -0.000236141 -0.00615047 -4.71972e-05 -0.00193549)
(-0.00137252 0.00151192 -0.000184907 -0.00429659 -4.96346e-05 -0.00249509)
(-0.00201323 0.000822038 -0.000133495 -0.00313171 -5.25776e-05 -0.002855)
(-0.00217518 0.000251797 -8.34125e-05 -0.0027516 -5.71479e-05 -0.00300503)
(0.0147935 1.20024e-05 0.000147525 -0.0317165 -0.00279909 0.00128382)
(0.00511059 2.07603e-05 0.000191179 -0.0174875 0.001531 0.00139268)
(0.00403643 1.43765e-05 0.000181945 -0.0143331 0.000663233 -0.000208112)
(0.00145126 9.96726e-06 0.000161887 -0.00963934 0.000675112 -0.00114561)
(-0.000228997 7.85315e-06 0.000136618 -0.00637734 0.000411892 -0.00200721)
(-0.00145755 7.92521e-06 0.000109267 -0.00407205 0.000197093 -0.00259089)
(-0.00215637 1.0548e-05 8.16031e-05 -0.00277525 3.84922e-06 -0.00295484)
(-0.00225307 1.57014e-05 5.48597e-05 -0.00255539 -5.39476e-05 -0.00313521)
(0.0161618 4.815e-06 8.48366e-05 -0.0333153 -0.00158116 0.000993536)
(0.00597102 9.60567e-06 0.000111018 -0.0185135 0.00126072 0.0012642)
(0.00388905 4.7446e-07 0.000106716 -0.0141594 0.00122591 -5.3601e-05)
(0.00137253 -6.7525e-06 9.58403e-05 -0.00941948 0.000996461 -0.00114428)
(-0.00035693 -1.0965e-05 8.2017e-05 -0.0060979 0.000654624 -0.00200039)
(-0.00153278 -1.21943e-05 6.67496e-05 -0.00387487 0.000319982 -0.00259042)
(-0.00216383 -1.01418e-05 5.09654e-05 -0.00269275 4.88524e-05 -0.00295379)
(-0.00220326 -4.94439e-06 3.52352e-05 -0.00254566 -4.7769e-05 -0.00316408)
(0.017292 1.99718e-06 5.40452e-05 -0.034468 -0.000664187 0.000558637)
(0.00640564 4.73266e-06 7.16401e-05 -0.018465 0.00095647 0.000653071)
(0.00416713 -6.49611e-06 6.95493e-05 -0.0142788 0.000993816 -0.000269472)
(0.00143343 -1.53555e-05 6.30234e-05 -0.00946212 0.000811988 -0.00112037)
(-0.000414776 -2.08056e-05 5.44838e-05 -0.00613625 0.00053283 -0.0018113)
(-0.00163534 -2.28122e-05 4.4902e-05 -0.00394137 0.000254951 -0.00231499)
(-0.00227028 -2.11202e-05 3.48458e-05 -0.00278645 3.34204e-05 -0.00265514)
(-0.00231684 -1.58877e-05 2.46143e-05 -0.00261474 -4.69799e-05 -0.00289146)
(0.0180296 8.35685e-07 3.71119e-05 -0.0351859 -0.000186132 0.0002464)
(0.00675394 2.23083e-06 4.94254e-05 -0.018439 0.000696622 0.000172358)
(0.00443565 -1.07176e-05 4.83078e-05 -0.0144029 0.000711711 -0.000484829)
(0.00154296 -2.08606e-05 4.40504e-05 -0.00956624 0.000577234 -0.00112442)
(-0.000409605 -2.72037e-05 3.83401e-05 -0.00623912 0.000370663 -0.00166744)
(-0.00168782 -2.97497e-05 3.18534e-05 -0.00405122 0.000167587 -0.00208526)
(-0.00234613 -2.83084e-05 2.49784e-05 -0.00290003 1.09951e-05 -0.00239462)
(-0.00240912 -2.30826e-05 1.78857e-05 -0.00269989 -3.91985e-05 -0.00264385)
(0.0184968 1.96317e-07 2.53899e-05 -0.0356606 1.91895e-05 7.28371e-05)
(0.00699105 7.40033e-07 3.38313e-05 -0.0184722 0.000495248 -0.000102195)
(0.00462598 -1.34033e-05 3.32004e-05 -0.0145152 0.000487396 -0.000612899)
(0.00163561 -2.44724e-05 3.0416e-05 -0.00967191 0.000386403 -0.0011174)
(-0.000392424 -3.14616e-05 2.66138e-05 -0.00633926 0.000240585 -0.00155806)
(-0.00171892 -3.4401e-05 2.22501e-05 -0.00414667 0.000100403 -0.00191377)
(-0.00240175 -3.31561e-05 1.75842e-05 -0.00298999 -4.37202e-06 -0.00219769)
(-0.00248185 -2.79735e-05 1.27102e-05 -0.00277001 -3.3623e-05 -0.0024476)
(0.0187918 -1.92171e-07 1.65505e-05 -0.0359785 7.99732e-05 -1.64523e-05)
(0.0071431 -1.79493e-07 2.20359e-05 -0.0185273 0.000331891 -0.000242589)
(0.0047494 -1.51014e-05 2.16828e-05 -0.01461 0.00031548 -0.000672381)
(0.00169883 -2.67966e-05 1.993e-05 -0.00975927 0.000244155 -0.0010972)