/*--------------------------------*- C++ -*----------------------------------*\
| =========                 |                                                 |
| \\      /  F ield         | foam-extend: Open Source CFD                    |
|  \\    /   O peration     | Version:     3.1                                |
|   \\  /    A nd           | Web:         http://www.extend-project.de       |
|    \\/     M anipulation  |                                                 |
\*---------------------------------------------------------------------------*/
FoamFile
{
    version     2.0;
    format      ascii;
    class       pointVectorField;
    location    "0.4";
    object      pointD;
}
// * * * * * * * * * * * * * * * * * * * * * * * * * * * * * * * * * * * * * //

dimensions      [0 1 0 0 0 0 0];

internalField   nonuniform List<vector> 
405
(
(0 0 0)
(0 0 0)
(0 0 0)
(0 0 0)
(0 0 0)
(0.000925702 0.000789105 0.000580634)
(0.00059662 0.00023501 0.000443764)
(0.000456899 -2.79701e-05 0.000221192)
(0.000459026 -0.000289697 -6.30452e-06)
(0.000612803 -0.000791303 -0.000149957)
(0.00163748 0.000938596 0.000590748)
(0.00140535 0.00029781 0.000481093)
(0.0012576 -0.000139065 0.000317376)
(0.001247 -0.000572642 0.000144208)
(0.00132675 -0.00121683 2.60427e-05)
(0.00253774 0.00112194 0.000632648)
(0.00233017 0.000358883 0.000531079)
(0.00219606 -0.000235007 0.000395523)
(0.00216573 -0.000829585 0.000259351)
(0.00220276 -0.0015995 0.000159807)
(0.00346583 0.0011844 0.000625463)
(0.00330166 0.000361783 0.000549516)
(0.00318418 -0.000334481 0.000453746)
(0.00313713 -0.00103325 0.000358514)
(0.00312998 -0.00186475 0.000285646)
(0.00440763 0.00117814 0.000619999)
(0.00427352 0.000327892 0.0005646)
(0.00416809 -0.000431972 0.000499224)
(0.00410764 -0.00119406 0.00043478)
(0.00406925 -0.00204943 0.000382245)
(0.00532638 0.00111905 0.000620854)
(0.00521371 0.000267376 0.000580312)
(0.00511665 -0.000525534 0.000536261)
(0.00504609 -0.00131989 0.000492747)
(0.00498646 -0.00217366 0.000453541)
(0.00621024 0.00103295 0.000633631)
(0.00610823 0.000191785 0.000600418)
(0.00601601 -0.000613958 0.000569037)
(0.00593908 -0.00142041 0.0005378)
(0.00586909 -0.0022617 0.000504467)
(0.00706251 0.000944202 0.000655149)
(0.00695738 0.000110806 0.000625145)
(0.00686094 -0.000698128 0.000601482)
(0.00678704 -0.00150784 0.000577754)
(0.00672 -0.00234106 0.00054696)
(0 0 0)
(0 0 0)
(0 0 0)
(0 0 0)
(0 0 0)
(0.000992767 0.000650898 0.000371827)
(0.000673228 0.000101218 0.000285147)
(0.000549224 -0.000124989 0.00014817)
(0.00054238 -0.00034582 6.94455e-06)
(0.000691726 -0.000838663 -8.58922e-05)
(0.00173516 0.000897169 0.000470429)
(0.00150706 0.000245526 0.000380637)
(0.00137012 -0.000210974 0.000254934)
(0.00134622 -0.00066417 0.00012413)
(0.0014146 -0.00131719 3.10676e-05)
(0.002619 0.00108447 0.000518999)
(0.00241888 0.000315583 0.000434913)
(0.00229248 -0.000297088 0.000330094)
(0.00225086 -0.000911052 0.000224593)
(0.00227641 -0.00168766 0.000143759)
(0.00353374 0.0011594 0.000535117)
(0.00337342 0.000330405 0.000466721)
(0.00325965 -0.000385399 0.000387085)
(0.00320416 -0.00110346 0.000308153)
(0.00318907 -0.00194143 0.000243932)
(0.0044598 0.00115497 0.000543067)
(0.00432805 0.000300235 0.000489234)
(0.00422439 -0.000474758 0.000430959)
(0.00415852 -0.0012517 0.000373584)
(0.00411504 -0.00211198 0.000323193)
(0.00536756 0.00109541 0.000552733)
(0.00525572 0.00024043 0.000509728)
(0.0051592 -0.000563089 0.000466537)
(0.00508604 -0.00136784 0.000423933)
(0.00502413 -0.00222544 0.00038268)
(0.00624567 0.0010078 0.000569295)
(0.00614323 0.000163836 0.00053207)
(0.00605059 -0.00064921 0.0004981)
(0.0059735 -0.00146295 0.00046434)
(0.00590368 -0.0023076 0.000427219)
(0.00709722 0.000918758 0.000592094)
(0.00699138 8.25277e-05 0.000557714)
(0.00689438 -0.000732672 0.000529835)
(0.00682117 -0.00154875 0.000502036)
(0.00675515 -0.0023853 0.000467071)
(0 0 0)
(0 0 0)
(0 0 0)
(0 0 0)
(0 0 0)
(0.00104001 0.000645561 0.000240325)
(0.000708822 7.73441e-05 0.000187203)
(0.000582773 -0.000147572 0.000105348)
(0.00058316 -0.00036682 2.09616e-05)
(0.000749771 -0.000877483 -3.62888e-05)
(0.00181383 0.000863843 0.000344313)
(0.0015693 0.000206468 0.000280542)
(0.00142385 -0.000248894 0.000195974)
(0.00140246 -0.000700712 0.00010891)
(0.00147912 -0.00135525 4.4425e-05)
(0.00269212 0.00104333 0.000407605)
(0.00248627 0.000276029 0.000342222)
(0.00235513 -0.000338128 0.000265877)
(0.00231209 -0.000953238 0.000189179)
(0.00233817 -0.00172828 0.0001275)
(0.00360068 0.0011182 0.000442122)
(0.00343671 0.000291984 0.000383007)
(0.00331966 -0.000425718 0.00031982)
(0.00326197 -0.00114564 0.000257341)
(0.00324549 -0.00198149 0.000202739)
(0.00451723 0.00111612 0.000464087)
(0.00438424 0.000264252 0.000412628)
(0.00427872 -0.000513023 0.000361844)
(0.00421072 -0.00129238 0.000311892)
(0.00416506 -0.00215125 0.000264089)
(0.00541743 0.00106033 0.000482666)
(0.00530542 0.000206695 0.000437525)
(0.00520812 -0.000599494 0.000395989)
(0.0051335 -0.00140715 0.000355043)
(0.00506983 -0.00226506 0.00031194)
(0.00629119 0.000976997 0.000503071)
(0.00618933 0.000132089 0.000461632)
(0.00609669 -0.000684391 0.000426151)
(0.00601897 -0.00150184 0.00039094)
(0.00594811 -0.00234879 0.000349904)
(0.00714307 0.000891471 0.000526536)
(0.00703865 5.27106e-05 0.000487195)
(0.00694249 -0.000766894 0.000456157)
(0.00686871 -0.00158762 0.000425349)
(0.00680164 -0.00242774 0.000385777)
(0 0 0)
(0 0 0)
(0 0 0)
(0 0 0)
(0 0 0)
(0.0010701 0.000651334 0.000158738)
(0.000727909 6.95419e-05 0.000126543)
(0.00059905 -0.000156484 7.71167e-05)
(0.000604571 -0.000376788 2.62601e-05)
(0.000783593 -0.000901083 -8.38169e-06)
(0.00186192 0.00084899 0.000247353)
(0.00160741 0.000185182 0.00020498)
(0.00145643 -0.000269159 0.000149162)
(0.00143829 -0.000719654 9.21548e-05)
(0.00152284 -0.00137742 4.90798e-05)
(0.0027475 0.00101537 0.000310223)
(0.00253435 0.000247373 0.00026303)
(0.00239833 -0.000365227 0.000208834)
(0.00235584 -0.000978546 0.000154485)
(0.00238578 -0.00175381 0.000109264)
(0.0036561 0.00108467 0.000352225)
(0.0034879 0.000260016 0.000305282)
(0.00336742 -0.00045611 0.00025669)
(0.00330899 -0.00117451 0.000208649)
(0.00329324 -0.0020094 0.000164806)
(0.00456974 0.00108158 0.000381908)
(0.00443496 0.000231765 0.000337365)
(0.00432734 -0.000544671 0.000294864)
(0.00425825 -0.00132341 0.000253033)
(0.00421168 -0.00218152 0.000211252)
(0.00546677 0.00102774 0.000405885)
(0.00535459 0.000175169 0.000363819)
(0.00525632 -0.000631421 0.000326202)
(0.00518076 -0.00143978 0.000289101)
(0.00511558 -0.00229809 0.000248768)
(0.00633869 0.00094803 0.000428329)
(0.00623789 0.000102268 0.000387833)
(0.00614515 -0.000716167 0.000353743)
(0.00606683 -0.00153588 0.000319934)
(0.00599432 -0.0023849 0.00028001)
(0.00719152 0.000866285 0.000450558)
(0.00708901 2.50409e-05 0.000411358)
(0.00699344 -0.000798124 0.000380461)
(0.00691916 -0.00162269 0.000349827)
(0.00685024 -0.00246621 0.000310743)
(0 0 0)
(0 0 0)
(0 0 0)
(0 0 0)
(0 0 0)
(0.00108931 0.000656965 0.000106444)
(0.000739315 6.62418e-05 8.65612e-05)
(0.000608493 -0.000161074 5.635e-05)
(0.000617119 -0.000382633 2.53205e-05)
(0.000804234 -0.000916458 3.93016e-06)
(0.00189313 0.00084316 0.000176052)
(0.00163193 0.000173502 0.000147939)
(0.00147784 -0.000281003 0.000111302)
(0.00146212 -0.000731392 7.40762e-05)
(0.00155242 -0.00139338 4.53501e-05)
(0.00278693 0.000999461 0.00023009)
(0.00256838 0.000228647 0.000196827)
(0.00242931 -0.000383227 0.000159014)
(0.00238763 -0.000995637 0.000121106)
(0.00242096 -0.00177293 8.86918e-05)
(0.00369924 0.00106205 0.00027033)
(0.00352751 0.00023675 0.000234851)
(0.00340464 -0.0004783 0.00019864)
(0.00334604 -0.00119569 0.000162766)
(0.00333144 -0.00203144 0.000129054)
(0.00461389 0.00105599 0.000300879)
(0.00447732 0.000206339 0.000264901)
(0.00436812 -0.00056937 0.000231043)
(0.00429843 -0.0013476 0.000197649)
(0.0042516 -0.00220635 0.000163479)
(0.00551085 0.00100201 0.00032561)
(0.00539824 0.000149347 0.000289738)
(0.00529916 -0.000657427 0.000257986)
(0.00522293 -0.00146626 0.00022663)
(0.00515677 -0.00232566 0.000192075)
(0.00638294 0.000924099 0.000347304)
(0.00628273 7.71736e-05 0.00031152)
(0.00618979 -0.000742683 0.000281556)
(0.00611091 -0.0015641 0.000251849)
(0.00603707 -0.00241514 0.000216724)
(0.00723728 0.00084474 0.000366627)
(0.00713594 1.28849e-06 0.000331507)
(0.0070406 -0.000824597 0.000303776)
(0.00696584 -0.00165211 0.000276281)
(0.00689544 -0.00249852 0.000241544)
(0 0 0)
(0 0 0)
(0 0 0)
(0 0 0)
(0 0 0)
(0.0011017 0.00066137 7.03776e-05)
(0.000746668 6.4693e-05 5.80873e-05)
(0.000614605 -0.000163749 3.96964e-05)
(0.000625133 -0.000386453 2.08322e-05)
(0.000817357 -0.000926847 7.56908e-06)
(0.00191376 0.000841402 0.000121254)
(0.00164831 0.000167036 0.000102906)
(0.00149244 -0.0002883 7.9332e-05)
(0.00147837 -0.000739375 5.54502e-05)
(0.00157243 -0.00140531 3.65852e-05)
(0.00281441 0.000991135 0.000163042)
(0.00259239 0.000217023 0.000140349)
(0.00245155 -0.000395158 0.000114811)
(0.00241057 -0.00100773 8.92048e-05)
(0.00244627 -0.00178773 6.67747e-05)
(0.00373117 0.00104826 0.000196176)
(0.00355707 0.000221077 0.000170773)
(0.00343271 -0.000493934 0.000145063)
(0.00337413 -0.00121129 0.000119537)
(0.00336045 -0.00204886 9.50304e-05)
(0.00464838 0.00103891 0.000222514)
(0.00451051 0.000188171 0.000195545)
(0.00440025 -0.000587573 0.000170316)
(0.00433021 -0.00136596 0.000145376)
(0.00428329 -0.00222616 0.000119488)
(0.00554684 0.000983758 0.00024409)
(0.0054338 0.000130126 0.000216181)
(0.00533409 -0.000677178 0.000191551)
(0.00525738 -0.00148671 0.000167201)
(0.00519053 -0.00234763 0.000140225)
(0.00642015 0.00090634 0.000262468)
(0.00632018 5.79737e-05 0.000233932)
(0.00622696 -0.000763195 0.000210058)
(0.00614759 -0.00158609 0.000186395)
(0.00607273 -0.00243906 0.000158499)
(0.00727622 0.000828183 0.000277612)
(0.00717543 -1.72996e-05 0.000249367)
(0.00708002 -0.000845385 0.000227044)
(0.00700482 -0.00167523 0.000204908)
(0.00693329 -0.00252403 0.000177161)
(0 0 0)
(0 0 0)
(0 0 0)
(0 0 0)
(0 0 0)
(0.00110953 0.000664495 4.31845e-05)
(0.000751421 6.3959e-05 3.59868e-05)
(0.000618619 -0.000165349 2.5397e-05)
(0.0006303 -0.000388953 1.45431e-05)
(0.000825647 -0.000933691 6.7453e-06)
(0.00192706 0.000841297 7.63664e-05)
(0.00165905 0.00016352 6.52096e-05)
(0.00150218 -0.000292769 5.10882e-05)
(0.00148914 -0.000744734 3.68043e-05)
(0.00158553 -0.00141375 2.52711e-05)
(0.0028327 0.000987087 0.000104586)
(0.00260859 0.000210163 9.0366e-05)
(0.00246674 -0.00040276 7.4527e-05)
(0.00242627 -0.00101599 5.86378e-05)
(0.00246345 -0.00179843 4.44455e-05)
(0.0037532 0.00104047 0.000127795)
(0.00357765 0.000211269 0.000111379)
(0.00345243 -0.000504266 9.48707e-05)
(0.00339391 -0.00122212 7.84526e-05)
(0.00338083 -0.00206158 6.24497e-05)
(0.00467302 0.00102848 0.000146772)
(0.00453431 0.000176294 0.000128832)
(0.0044234 -0.000599951 0.000112103)
(0.00435314 -0.00137889 9.5539e-05)
(0.00430615 -0.00224063 7.81946e-05)
(0.00557327 0.000972026 0.00016248)
(0.00545991 0.00011716 0.000143473)
(0.00535976 -0.000690877 0.000126714)
(0.0052827 -0.00150123 0.000110134)
(0.00521536 -0.00236359 9.17273e-05)
(0.00644804 0.000894485 0.000175674)
(0.0063481 4.47266e-05 0.000155928)
(0.00625461 -0.000777612 0.00013941)
(0.00617483 -0.00160176 0.000123043)
(0.00609925 -0.00245632 0.000103808)
(0.00730568 0.000816775 0.000185975)
(0.00720506 -3.0393e-05 0.000166334)
(0.00710945 -0.000860177 0.000150818)
(0.00703386 -0.00169178 0.000135431)
(0.00696154 -0.00254241 0.000116238)
(0 0 0)
(0 0 0)
(0 0 0)
(0 0 0)
(0 0 0)
(0.00111392 0.000666365 2.06075e-05)
(0.000754137 6.36359e-05 1.7263e-05)
(0.000620948 -0.000166216 1.24046e-05)
(0.000633253 -0.000390391 7.42701e-06)
(0.000830293 -0.000937626 3.79278e-06)
(0.00193459 0.000841623 3.69671e-05)
(0.00166522 0.000161781 3.16688e-05)
(0.00150782 -0.000295212 2.50362e-05)
(0.00149537 -0.000747858 1.83319e-05)
(0.001593 -0.0014188 1.28353e-05)
(0.00284324 0.000985337 5.11476e-05)
(0.00261801 0.000206575 4.42774e-05)
(0.00247566 -0.000406999 3.66813e-05)
(0.00243548 -0.00102083 2.90585e-05)
(0.00247347 -0.00180492 2.21633e-05)
(0.00376616 0.0010366 6.30385e-05)
(0.00358983 0.000205939 5.49703e-05)
(0.00346416 -0.000510144 4.68921e-05)
(0.0034057 -0.00122852 3.88497e-05)
(0.00339293 -0.00206932 3.09394e-05)
(0.00468778 0.00102296 7.29096e-05)
(0.00454863 0.000169653 6.39528e-05)
(0.00443736 -0.000607107 5.56159e-05)
(0.00436698 -0.00138657 4.73537e-05)
(0.00431994 -0.00224944 3.86607e-05)
(0.00558938 0.000965583 8.11336e-05)
(0.00547582 0.000109754 7.15218e-05)
(0.00537541 -0.000698893 6.30496e-05)
(0.00529814 -0.00150989 5.46644e-05)
(0.00523049 -0.00237327 4.53488e-05)
(0.00646525 0.000887795 8.7996e-05)
(0.00636527 3.70414e-05 7.79229e-05)
(0.00627158 -0.000786121 6.94955e-05)
(0.00619154 -0.00161113 6.11484e-05)
(0.00611552 -0.00246672 5.13583e-05)
(0.00732398 0.000810188 9.31848e-05)
(0.00722337 -3.81045e-05 8.31401e-05)
(0.00712757 -0.000868983 7.52109e-05)
(0.00705171 -0.00170169 6.73475e-05)
(0.00697892 -0.00255348 5.75645e-05)
(0 0 0)
(0 0 0)
(0 0 0)
(0 0 0)
(0 0 0)
(0.00111533 0.000666988 0)
(0.000755025 6.35454e-05 -0)
(0.000621716 -0.000166492 0)
(0.000634218 -0.000390862 0)
(0.000831795 -0.000938913 0)
(0.00193704 0.00084179 0)
(0.00166723 0.000161258 -0)
(0.00150968 -0.000295991 0)
(0.00149741 -0.000748888 0)
(0.00159544 -0.00142048 0)
(0.00284668 0.000984859 0)
(0.00262111 0.000205463 -0)
(0.00247861 -0.000408362 0)
(0.00243853 -0.00102243 0)
(0.00247676 -0.00180709 0)
(0.00377043 0.00103543 0)
(0.00359387 0.000204253 -0)
(0.00346806 -0.000512051 0)
(0.00340961 -0.00123064 0)
(0.00339695 -0.00207192 0)
(0.0046927 0.00102125 0)
(0.00455341 0.000167523 0)
(0.00444203 -0.000609446 0)
(0.00437161 -0.00138912 0)
(0.00432454 -0.00225239 0)
(0.00559478 0.00096354 0)
(0.00548117 0.000107353 0)
(0.00538066 -0.000701527 0)
(0.00530332 -0.00151277 0)
(0.00523557 -0.0023765 0)
(0.00647106 0.000885643 0)
(0.00637106 3.453e-05 -0)
(0.00627729 -0.00078893 0)
(0.00619716 -0.00161424 0)
(0.00612099 -0.0024702 0)
(0.00733018 0.000808042 0)
(0.00722956 -4.06451e-05 0)
(0.00713368 -0.000871903 0)
(0.00705772 -0.00170499 0)
(0.00698477 -0.00255717 0)
)
;

boundaryField
{
    interface
    {
        type            calculated;
    }
    symmetry
    {
        type            symmetryPlane;
    }
    bottom
    {
        type            fixedValue;
        value           uniform (0 0 0);
    }
}


// ************************************************************************* //
