/*--------------------------------*- C++ -*----------------------------------*\
| =========                 |                                                 |
| \\      /  F ield         | foam-extend: Open Source CFD                    |
|  \\    /   O peration     | Version:     3.1                                |
|   \\  /    A nd           | Web:         http://www.extend-project.de       |
|    \\/     M anipulation  |                                                 |
\*---------------------------------------------------------------------------*/
FoamFile
{
    version     2.0;
    format      ascii;
    class       volSymmTensorField;
    location    "0.4";
    object      sigma;
}
// * * * * * * * * * * * * * * * * * * * * * * * * * * * * * * * * * * * * * //

dimensions      [1 -1 -2 0 0 0 0];

internalField   nonuniform List<symmTensor> 
256
(
(75.7755 72.8749 -2.74941 254.143 50.1052 95.3398)
(-58.2709 63.4263 -6.75359 -24.2064 31.0121 -56.0871)
(-118.332 54.547 -6.86042 -172.736 7.90614 -122.376)
(-238.888 47.9129 -2.60266 -419.014 -11.8853 -255.408)
(-220.277 23.2405 -2.58901 -96.9888 -4.18494 -185.427)
(-161.631 66.4777 -9.30159 -118.837 -0.288981 -151.427)
(-132.105 66.0922 -10.0046 -183.168 6.01336 -140.203)
(-94.8517 27.9512 -3.22474 -232.431 10.0234 -124.581)
(-156.479 26.7861 -0.441263 -57.0288 1.13964 -128.286)
(-155.076 56.3242 -4.50246 -116.644 1.50146 -140.979)
(-131.529 57.0472 -5.19062 -169.531 2.78032 -138.554)
(-124.424 27.1036 -1.23113 -227.047 4.18187 -147.047)
(-167.543 19.7349 -0.606477 -102.933 -2.38342 -146.355)
(-155.341 44.5489 -2.81574 -129.56 -0.339724 -144.945)
(-133.011 45.0689 -3.01795 -159.255 1.66885 -138.516)
(-120.32 20.6512 -0.778982 -186.876 3.75912 -137.065)
(-160.743 14.9201 -0.151171 -122.941 -2.0651 -145.928)
(-151.557 32.7914 -1.31257 -135.837 -0.563525 -144.179)
(-134.532 32.9558 -1.41439 -151.311 0.703108 -138.9)
(-124.421 15.0998 -0.282088 -163.226 2.14371 -136.208)
(-158.138 9.7386 0.00740211 -139.541 -1.69876 -148.106)
(-149.072 21.9315 -0.409104 -140.41 -0.667704 -144.118)
(-135.734 21.9287 -0.442241 -145.182 0.08605 -139.095)
(-126.529 9.77619 -0.0513276 -145.511 0.930244 -134.735)
(-155.57 5.28414 0.104122 -147.865 -0.939733 -148.459)
(-147.168 12.6563 0.196834 -142.626 -0.545987 -143.818)
(-136.565 12.6059 0.200867 -140.868 -0.282499 -139.202)
(-128.098 5.29385 0.0773674 -135.174 -0.0674325 -134.277)
(-154.511 1.55434 0.274102 -149.041 -0.260352 -147.688)
(-148.17 5.03044 0.858371 -144.387 -0.240606 -144.803)
(-135.13 4.96687 0.891395 -137.629 -0.238812 -138.216)
(-128.805 1.56695 0.283856 -132.789 -0.314724 -135.198)
(51.0774 80.5967 -2.03051 207.674 37.6858 80.5862)
(-81.8683 73.4097 -5.33375 -68.385 24.2918 -74.1646)
(-141.584 65.0362 -5.39394 -209.386 8.56668 -143.264)
(-260.027 57.0056 -1.80162 -452.02 -5.36301 -278.448)
(-184.58 26.0174 -2.44011 -50.2815 10.517 -139.376)
(-133.875 70.45 -8.64271 -86.4423 9.56194 -118.039)
(-135.213 69.5655 -9.18661 -188.038 10.3968 -139.57)
(-107.364 29.0862 -3.00435 -252.845 9.91246 -137.873)
(-158.162 24.9665 -0.658165 -57.7171 2.96767 -129.237)
(-150.698 54.4143 -5.07655 -111.608 3.99063 -136.426)
(-133.91 55.0767 -5.80196 -169.51 6.32797 -138.694)
(-123.972 25.617 -1.82724 -224.698 8.19512 -144.778)
(-163.384 17.9836 -0.073204 -97.1984 -0.991019 -142.19)
(-150.73 41.4599 -2.38054 -123.586 1.19926 -140.423)
(-134.949 41.9404 -2.75923 -158.071 3.80575 -138.912)
(-121.784 18.7978 -0.655601 -185.383 6.14004 -137.182)
(-160.19 12.9595 0.556231 -121.886 -2.26594 -145.963)
(-149.727 29.643 -0.491951 -133.075 -0.216381 -142.707)
(-135.386 29.885 -0.695643 -149.349 1.90297 -138.713)
(-124.162 13.2917 0.183358 -159.864 3.82137 -134.832)
(-157.995 8.26925 0.863819 -139.185 -2.21784 -148.58)
(-148.355 19.4691 0.700955 -139.121 -0.765006 -143.764)
(-135.947 19.5672 0.602921 -143.439 0.581946 -138.71)
(-126.083 8.46407 0.654929 -142.83 1.76173 -133.542)
(-155.981 4.34013 1.01776 -148.134 -1.46497 -149.473)
(-147.391 11.0342 1.45669 -142.589 -0.785211 -144.438)
(-136.453 11.0732 1.43362 -139.849 -0.17606 -138.93)
(-127.687 4.50461 0.926544 -133.749 0.227443 -133.537)
(-154.92 1.21639 1.28693 -149.192 -0.563079 -148.857)
(-148.736 4.30095 2.25508 -144.76 -0.412908 -145.99)
(-135.189 4.27289 2.29489 -137.451 -0.245753 -138.555)
(-128.922 1.27301 1.30819 -132.719 -0.258183 -135.448)
(54.4009 84.1337 -1.29739 210.409 25.41 91.7104)
(-84.3709 77.1783 -3.422 -74.946 17.1431 -72.6112)
(-146.616 69.087 -3.47995 -219.53 7.5659 -148.751)
(-270.382 61.4873 -1.29111 -470.737 -1.0238 -293.124)
(-185.463 27.8086 -2.00492 -53.1048 11.7602 -126.845)
(-132.973 73.4823 -5.88738 -87.9278 9.968 -109.457)
(-136.121 72.1268 -6.15169 -193.685 9.36521 -140.561)
(-106.198 29.5666 -2.22446 -256.505 7.95803 -142.958)
(-159.043 25.143 -0.978528 -57.8339 5.66668 -121.577)
(-150.066 55.7199 -3.8248 -110.446 5.62231 -130.015)
(-133.332 56.3964 -4.19936 -170.729 6.66159 -137.126)
(-123.758 26.063 -1.4435 -227.198 7.17674 -146.865)
(-163.867 17.8992 -0.196528 -96.7501 1.58872 -138.578)
(-150.572 41.471 -1.75844 -122.588 2.63166 -136.91)
(-134.698 42.026 -2.026 -157.969 4.27161 -137.379)
(-121.303 18.7863 -0.550422 -185.56 5.46501 -136.668)
(-161.221 12.5607 0.415235 -121.931 -0.415751 -145.684)
(-149.771 29.1245 -0.118581 -132.197 0.816468 -141.029)
(-135.171 29.4525 -0.276044 -148.713 2.30791 -137.266)
(-123.371 13.0304 0.179968 -158.989 3.43001 -132.732)
(-159.037 7.84663 0.806504 -139.379 -1.06734 -150.083)
(-148.559 18.8026 1.00015 -138.622 -0.122956 -143.378)
(-135.762 18.9822 0.918201 -142.798 0.881785 -137.52)
(-125.209 8.15147 0.661054 -141.767 1.59419 -130.817)
(-156.971 3.97919 1.04544 -148.416 -0.892502 -151.986)
(-147.694 10.4846 1.76537 -142.436 -0.437382 -144.953)
(-136.329 10.5873 1.74263 -139.472 0.0349648 -138.169)
(-126.85 4.24536 0.973401 -132.909 0.24409 -130.842)
(-156.099 1.11711 1.35139 -149.922 -0.362477 -152.374)
(-149.114 4.08653 2.51533 -144.849 -0.281389 -147.288)
(-135.313 4.0814 2.54972 -137.388 -0.153064 -138.472)
(-128.195 1.19369 1.36752 -131.93 -0.218175 -133.124)
(57.833 86.137 -0.773446 215.284 17.19 100.024)
(-84.7703 79.1081 -2.09848 -76.6954 12.1086 -70.659)
(-148.638 71.1543 -2.13672 -224.114 6.2578 -151.271)
(-276.324 63.8902 -0.803688 -481.803 0.978358 -302.113)
(-186.899 28.7686 -1.30734 -55.8363 10.1792 -119.128)
(-133.463 75.5912 -3.74973 -90.2061 8.47581 -105.018)
(-136.439 74.0714 -3.86803 -197.235 7.5017 -141.228)
(-105.026 30.1515 -1.4137 -258.727 6.00523 -146.54)
(-159.853 25.8221 -0.752078 -59.1999 6.27031 -115.042)
(-150.582 57.2501 -2.58917 -111.623 5.63698 -125.944)
(-132.929 57.8705 -2.75359 -172.473 5.79385 -136.057)
(-123.253 26.685 -0.957808 -229.436 5.4978 -148.639)
(-164.572 18.2459 -0.172176 -97.4099 3.11528 -134.599)
(-151.019 42.3402 -1.1819 -123.081 3.24185 -134.047)
(-134.388 42.9235 -1.32114 -158.699 3.93737 -135.918)
(-120.59 19.1627 -0.362777 -186.392 4.2166 -136.329)
(-161.895 12.6803 0.322122 -122.262 1.12343 -144.179)
(-150.131 29.5099 0.0484105 -132.307 1.53991 -139.399)
(-134.943 29.8799 -0.0425078 -148.904 2.27279 -135.811)
(-122.771 13.2076 0.180573 -159.163 2.64351 -131.22)
(-159.639 7.82829 0.674787 -139.514 0.131207 -150.378)
(-148.873 18.8821 0.958192 -138.612 0.495883 -142.794)
(-135.586 19.1046 0.90645 -142.767 1.0079 -136.28)
(-124.692 8.18836 0.576098 -141.656 1.22397 -128.728)
(-157.442 3.89541 0.91973 -148.406 -0.157609 -153.439)
(-147.972 10.4334 1.62901 -142.42 -0.00881373 -145.173)
(-136.21 10.5693 1.60956 -139.406 0.222458 -137.285)
(-126.467 4.21341 0.85751 -132.772 0.199747 -128.697)
(-156.604 1.09946 1.21842 -150.076 -0.108316 -154.711)
(-149.361 4.05592 2.28223 -144.843 -0.110596 -148.117)
(-135.301 4.06217 2.29811 -137.343 -0.0381144 -138.043)
(-127.912 1.18308 1.20791 -131.672 -0.145791 -131.185)
(60.0216 87.3697 -0.449525 218.834 11.6031 105.09)
(-84.8668 80.2488 -1.25468 -77.3829 8.45485 -69.4115)
(-149.763 72.3696 -1.2759 -226.734 4.86049 -152.712)
(-279.906 65.3047 -0.474413 -488.697 1.58637 -307.526)
(-188.051 29.356 -0.796986 -57.4862 7.95874 -114.637)
(-133.82 76.9932 -2.29396 -91.6869 6.57623 -102.407)
(-136.593 75.4235 -2.34465 -199.497 5.63626 -141.606)
(-104.131 30.6101 -0.845667 -260.284 4.35856 -148.587)
(-160.644 26.3721 -0.49014 -60.6109 5.59688 -110.809)
(-151.046 58.4593 -1.63436 -112.945 4.81679 -123.345)
(-132.703 59.0421 -1.70297 -173.997 4.55774 -135.338)
(-122.762 27.1855 -0.581498 -231.095 3.9652 -149.656)
(-165.294 18.6273 -0.102126 -98.5358 3.43626 -131.666)
(-151.408 43.2275 -0.722069 -123.958 3.11758 -131.949)
(-134.186 43.8106 -0.78915 -159.628 3.23661 -134.795)
(-120.016 19.543 -0.199677 -187.279 3.03619 -136.01)
(-162.489 12.9136 0.252526 -122.976 1.84131 -142.73)
(-150.442 30.0764 0.131651 -132.804 1.76436 -138.032)
(-134.779 30.4578 0.0826577 -149.39 1.97416 -134.617)
(-122.283 13.4576 0.170307 -159.557 1.89992 -130.063)
(-160.136 7.93826 0.523831 -139.915 0.857603 -150.242)
(-149.12 19.1854 0.802796 -138.851 0.832607 -142.147)
(-135.458 19.422 0.770751 -142.98 0.97314 -135.221)
(-124.286 8.31824 0.457602 -141.756 0.876846 -127.137)
(-157.815 3.92155 0.729114 -148.555 0.367341 -154.234)
(-148.168 10.5632 1.32904 -142.506 0.289128 -145.122)
(-136.113 10.7094 1.3106 -139.466 0.319569 -136.465)
(-126.165 4.25783 0.675391 -132.742 0.146611 -127.017)
(-156.981 1.11576 0.987411 -150.235 0.107461 -156.174)
(-149.518 4.09914 1.85673 -144.852 0.0284675 -148.481)
(-135.222 4.10749 1.85455 -137.302 0.0354877 -137.46)
(-127.641 1.19746 0.955722 -131.473 -0.103635 -129.54)
(61.3832 88.1499 -0.250204 221.207 7.51521 108.108)
(-84.915 80.9714 -0.721991 -77.7262 5.60784 -68.6958)
(-150.451 73.1358 -0.73252 -228.351 3.45075 -153.579)
(-282.14 66.1832 -0.266039 -493.097 1.4635 -310.806)
(-188.816 29.7259 -0.454293 -58.3966 5.63976 -112.064)
(-134.044 77.9023 -1.33563 -92.5916 4.64126 -100.883)
(-136.681 76.3156 -1.35576 -200.959 3.90573 -141.801)
(-103.541 30.9249 -0.476369 -261.412 2.95827 -149.687)
(-161.188 26.7502 -0.282824 -61.6106 4.28328 -108.202)
(-151.356 59.2963 -0.961294 -113.957 3.60305 -121.732)
(-132.565 59.8589 -0.98834 -175.123 3.24394 -134.841)
(-122.409 27.5365 -0.325504 -232.282 2.66419 -150.157)
(-165.82 18.9202 -0.0410558 -99.53 2.92484 -129.73)
(-151.68 43.9024 -0.399962 -124.77 2.50319 -130.542)
(-134.055 44.4803 -0.430993 -160.426 2.37589 -133.989)
(-119.612 19.8289 -0.0923279 -187.996 2.03306 -135.688)
(-162.927 13.1172 0.190187 -123.722 1.81606 -141.641)
(-150.666 30.5564 0.149328 -133.355 1.55674 -137.028)
(-134.668 30.9388 0.123696 -149.88 1.51067 -133.727)
(-121.933 13.6636 0.141966 -159.927 1.27196 -129.205)
(-160.494 8.05564 0.375519 -140.386 1.04041 -149.979)
(-149.296 19.4807 0.599618 -139.163 0.851451 -141.591)
(-135.367 19.7195 0.579729 -143.233 0.800867 -134.403)
(-123.998 8.44014 0.331369 -141.883 0.588422 -125.996)
(-158.082 3.97026 0.524645 -148.774 0.562402 -154.596)
(-148.302 10.7129 0.969536 -142.636 0.389261 -144.947)
(-136.037 10.8596 0.953236 -139.551 0.315545 -135.786)
(-125.95 4.30936 0.481517 -132.736 0.101376 -125.803)
(-157.2 1.13318 0.724701 -150.35 0.199857 -156.901)
(-149.604 4.14946 1.35848 -144.866 0.0933873 -148.523)
(-135.136 4.15675 1.34644 -137.277 0.0642322 -136.888)
(-127.451 1.2111 0.685787 -131.356 -0.0695581 -128.328)
(62.1828 88.6219 -0.125278 222.666 4.24384 109.81)
(-84.9465 81.4138 -0.371626 -77.908 3.21334 -68.3129)
(-150.859 73.6038 -0.376235 -229.315 2.0576 -154.08)
(-283.471 66.7113 -0.133676 -495.759 0.982034 -312.699)
(-189.288 29.9477 -0.229912 -58.8819 3.3542 -110.685)
(-134.177 78.4518 -0.690507 -93.1127 2.75407 -100.042)
(-136.731 76.8587 -0.697562 -201.848 2.29451 -141.893)
(-103.181 31.1194 -0.239052 -262.148 1.71713 -150.228)
(-161.525 26.9823 -0.141453 -62.2262 2.66079 -106.732)
(-151.54 59.8129 -0.496074 -114.606 2.21104 -120.8)
(-132.484 60.3651 -0.505785 -175.851 1.93478 -134.522)
(-122.189 27.7546 -0.16059 -233.05 1.53427 -150.369)
(-166.155 19.108 -0.00965017 -100.219 1.92158 -128.593)
(-151.846 44.3357 -0.192263 -125.346 1.60009 -129.69)
(-133.975 44.9092 -0.205655 -160.98 1.44519 -133.47)
(-119.358 20.0112 -0.0349552 -188.481 1.16812 -135.424)
(-163.211 13.2543 0.119677 -124.293 1.27969 -140.956)
(-150.807 30.8787 0.112931 -133.782 1.04816 -136.384)
(-134.598 31.2595 0.100503 -150.245 0.944524 -133.143)
(-121.711 13.7996 0.0938518 -160.19 0.731876 -128.629)
(-160.726 8.13998 0.226261 -140.775 0.796242 -149.759)
(-149.409 19.6888 0.369715 -139.424 0.61574 -141.196)
(-135.309 19.9263 0.358522 -143.432 0.524019 -133.85)
(-123.813 8.52397 0.200403 -141.975 0.340638 -125.252)
(-158.258 4.00905 0.315437 -148.976 0.464032 -154.738)
(-148.384 10.8224 0.587544 -142.751 0.311428 -144.765)
(-135.985 10.9669 0.576169 -139.621 0.226324 -135.303)
(-125.807 4.34589 0.287305 -132.728 0.0608115 -125.007)
(-157.329 1.14477 0.441963 -150.44 0.173443 -157.213)
(-149.649 4.18536 0.826589 -144.884 0.0877061 -148.435)
(-135.069 4.191 0.814595 -137.261 0.0547586 -136.441)
(-127.324 1.21956 0.411538 -131.283 -0.040396 -127.521)
(62.5564 88.8464 -0.0380553 223.364 1.3744 110.582)
(-84.9628 81.6267 -0.114466 -77.9887 1.04782 -68.1469)
(-151.051 73.8289 -0.115733 -229.77 0.683313 -154.311)
(-284.098 66.9623 -0.0406466 -497.024 0.342097 -313.571)
(-189.512 30.0525 -0.0701201 -59.0928 1.11233 -110.087)
(-134.239 78.712 -0.212902 -93.3519 0.912339 -99.67)
(-136.755 77.1164 -0.214525 -202.272 0.756722 -141.929)
(-103.011 31.2123 -0.0725439 -262.512 0.563155 -150.447)
(-161.683 27.0924 -0.0426264 -62.5153 0.900046 -106.072)
(-151.625 60.0584 -0.152349 -114.921 0.743871 -120.375)
(-132.445 60.606 -0.15468 -176.206 0.642515 -134.365)
(-122.085 27.8587 -0.0481173 -233.428 0.501152 -150.441)
(-166.314 19.1986 -0.000736705 -100.564 0.666208 -128.072)
(-151.924 44.5449 -0.0562057 -125.638 0.548529 -129.29)
(-133.937 45.116 -0.0599352 -161.26 0.48455 -133.215)
(-119.237 20.0989 -0.00843108 -188.725 0.38119 -135.279)
(-163.348 13.3218 0.0408211 -124.592 0.456973 -140.631)
(-150.874 31.0371 0.0415301 -134.009 0.367835 -136.072)
(-134.565 31.4166 0.0378006 -150.435 0.32103 -132.853)
(-121.605 13.8659 0.0326181 -160.324 0.239173 -128.34)
(-160.84 8.18235 0.0755203 -140.987 0.293817 -149.64)
(-149.463 19.7929 0.124791 -139.567 0.222763 -140.994)
(-135.281 20.0291 0.121138 -143.538 0.182024 -133.571)
(-123.723 8.56528 0.0669362 -142.023 0.111852 -124.883)
(-158.345 4.02897 0.105093 -149.091 0.1761 -154.781)
(-148.424 10.8775 0.196579 -142.817 0.117091 -144.655)
(-135.959 11.0202 0.192494 -139.659 0.0817679 -135.052)
(-125.737 4.36368 0.095308 -132.722 0.020451 -124.613)
(-157.386 1.15002 0.148359 -150.489 0.0668594 -157.315)
(-149.668 4.20292 0.277303 -144.896 0.0346085 -148.355)
(-135.033 4.20748 0.272473 -137.254 0.0209797 -136.197)
(-127.262 1.22317 0.137016 -131.248 -0.013249 -127.117)
)
;

boundaryField
{
    interface
    {
        type            calculated;
        value           nonuniform List<symmTensor> 
192
(
(-170.418 -0.0173761 1.12656 225.284 57.7764 -19.6805)
(-163.683 0.011864 1.42242 -40.6428 -4.876 -147.22)
(-163.407 -0.0662085 1.38107 -34.9582 1.2107 -125.954)
(-161.144 -0.112894 1.24589 -85.9511 -3.44602 -139.501)
(-159.154 -0.143512 1.07597 -116.229 -2.94245 -143.519)
(-157.14 -0.160194 0.891562 -138.818 -2.34278 -147.33)
(-155.262 -0.164818 0.703645 -149.991 -1.19013 -148.541)
(-153.525 -0.152497 0.521058 -149.799 -0.273 -146.76)
(-172.714 -0.0425091 0.702363 195.765 43.3563 -17.0409)
(-166.879 -0.0504483 0.894088 -19.0146 11.8816 -125.713)
(-165.617 -0.14598 0.877168 -37.8752 2.97656 -128.729)
(-163.261 -0.217358 0.802506 -84.6009 -1.93198 -139.886)
(-160.961 -0.26472 0.706034 -117.102 -3.26033 -145.517)
(-158.68 -0.293038 0.599229 -139.592 -2.97973 -149.04)
(-156.512 -0.305961 0.488787 -150.612 -1.81755 -150.044)
(-154.453 -0.301088 0.382456 -150.069 -0.616664 -148.107)
(-174.689 -0.054483 0.465672 199.547 28.9717 -6.35939)
(-168.576 -0.08143 0.596501 -23.9832 13.2291 -112.657)
(-167.166 -0.196456 0.592072 -39.8255 6.15738 -121.565)
(-164.628 -0.283212 0.549154 -85.2889 1.32695 -137.321)
(-162.13 -0.341606 0.491354 -117.679 -0.902896 -146.247)
(-159.658 -0.37719 0.425702 -139.919 -1.49253 -151.543)
(-157.295 -0.394851 0.3566 -150.757 -1.08973 -153.453)
(-155.014 -0.393159 0.290665 -150.499 -0.367493 -152.28)
(-176.111 -0.0619746 0.32557 204.46 19.3938 0.887285)
(-169.793 -0.100205 0.418137 -27.0837 11.3744 -103.434)
(-168.299 -0.229383 0.418294 -41.9478 6.94248 -114.329)
(-165.634 -0.32736 0.391805 -86.4674 3.31134 -133.177)
(-162.991 -0.393805 0.355 -118.352 1.07305 -145.049)
(-160.375 -0.434772 0.312321 -140.221 0.0355412 -152.426)
(-157.866 -0.455942 0.266704 -150.794 -0.173595 -155.652)
(-155.428 -0.45651 0.223292 -150.646 -0.060047 -155.346)
(-177.101 -0.0670756 0.22683 208.031 12.9827 5.16151)
(-170.651 -0.112423 0.291604 -28.6447 8.85697 -97.8726)
(-169.1 -0.251164 0.293234 -43.5444 6.22665 -109.392)
(-166.349 -0.357031 0.276596 -87.8083 3.7981 -129.855)
(-163.609 -0.429312 0.252932 -119.243 2.02074 -143.588)
(-160.892 -0.474282 0.225092 -140.733 0.959715 -152.563)
(-158.28 -0.498167 0.194984 -150.998 0.471136 -156.914)
(-155.731 -0.500634 0.166345 -150.819 0.196088 -157.316)
(-177.771 -0.0705101 0.150248 210.437 8.36101 7.62909)
(-171.238 -0.120347 0.193168 -29.4143 6.26195 -94.6655)
(-169.648 -0.265334 0.194963 -44.5797 4.77337 -106.337)
(-166.838 -0.3765 0.18482 -88.9016 3.27284 -127.628)
(-164.035 -0.45281 0.170104 -120.103 2.0493 -142.433)
(-161.249 -0.500627 0.152608 -141.295 1.20656 -152.432)
(-158.569 -0.526522 0.133502 -151.28 0.703662 -157.557)
(-155.949 -0.530462 0.115285 -150.984 0.294927 -158.388)
(-178.189 -0.0727421 0.0857128 211.926 4.70556 8.98034)
(-171.604 -0.125165 0.109897 -29.7865 3.7201 -92.9435)
(-169.992 -0.273846 0.111316 -45.1908 2.96745 -104.623)
(-167.146 -0.388295 0.10596 -89.6373 2.16024 -126.323)
(-164.303 -0.467146 0.0979714 -120.743 1.45704 -141.702)
(-161.476 -0.51681 0.088383 -141.749 0.931303 -152.281)
(-158.753 -0.544077 0.0777731 -151.532 0.57594 -157.859)
(-156.089 -0.54895 0.0674616 -151.122 0.24407 -158.91)
(-178.387 -0.0743919 0.0277355 212.644 1.52159 9.58222)
(-171.774 -0.127646 0.035385 -29.9336 1.23313 -92.1914)
(-170.153 -0.277633 0.0359658 -45.47 1.00409 -103.856)
(-167.29 -0.393688 0.0343493 -89.9992 0.750198 -125.727)
(-164.429 -0.473805 0.0318542 -121.075 0.521837 -141.354)
(-161.584 -0.524428 0.0288346 -141.995 0.344462 -152.192)
(-158.841 -0.55259 0.0254405 -151.675 0.217871 -157.975)
(-156.153 -0.55774 0.0220322 -151.196 0.0926679 -159.11)
(-79.0929 67.4325 -2.10994 119.909 0.0176729 -155.271)
(-206.526 21.6616 -2.55385 -95.231 0.0525837 -149.494)
(-173.009 28.4229 -2.41776 -73.5771 0.080421 -150.137)
(-172.064 21.2628 -2.1086 -108.294 0.102447 -149.413)
(-163.804 16.4784 -1.75572 -125.843 0.116343 -149.047)
(-158.879 10.8487 -1.38584 -139.991 0.124927 -148.645)
(-155.386 5.95224 -1.01779 -147.424 0.136286 -148.281)
(-154.525 1.81712 -0.66487 -149.072 0.179879 -147.921)
(-109.452 55.9675 -1.87781 -57.8334 -0.00902531 -146.626)
(-165.205 64.2834 -2.32423 -128.338 -0.0180996 -144.543)
(-160.541 58.7114 -2.18157 -122.031 -0.024865 -144.549)
(-157.376 47.267 -1.8983 -132.27 -0.0275874 -144.288)
(-152.775 35.3248 -1.57467 -137.344 -0.0284928 -144.123)
(-149.559 23.7858 -1.23813 -141.031 -0.0283186 -143.949)
(-147.262 13.8282 -0.906419 -142.726 -0.0265186 -143.782)
(-147.28 5.59164 -0.60052 -143.558 -0.00608205 -143.542)
(-121.682 46.7802 -1.84839 -166.13 -0.0251938 -139.74)
(-128.314 64.0428 -2.30462 -180.402 -0.0840824 -139.369)
(-130.068 59.5415 -2.16198 -171.123 -0.126918 -139.353)
(-132.309 47.8754 -1.88203 -161.381 -0.156157 -139.356)
(-134.216 35.4656 -1.55918 -153.286 -0.174232 -139.355)
(-135.708 23.7322 -1.22281 -146.666 -0.186748 -139.352)
(-136.733 13.7276 -0.891058 -141.705 -0.199873 -139.329)
(-136.042 5.50638 -0.583338 -138.634 -0.209939 -139.247)
(-151.077 41.7724 -1.97258 -324.551 -0.0701157 -131.509)
(-94.815 26.9762 -2.47541 -227.345 -0.213987 -133.635)
(-113.649 28.7031 -2.32911 -219.375 -0.270256 -133.441)
(-116.928 22.327 -2.03386 -186.356 -0.312511 -133.879)
(-122.761 16.5994 -1.68672 -164.277 -0.337123 -134.17)
(-126.435 10.7994 -1.32077 -147.321 -0.354533 -134.453)
(-128.665 5.8717 -0.953536 -136.654 -0.375554 -134.678)
(-128.848 1.79855 -0.595803 -132.966 -0.408199 -134.776)
(-117.748 0.0857313 1.05375 -449.962 -19.9935 -214.246)
(-120.414 0.148288 1.36557 -281.829 10.9357 -146.971)
(-121.237 0.102689 1.2996 -252.449 4.73738 -151.556)
(-122.972 0.0711947 1.15634 -202.191 4.82223 -141.521)
(-124.686 0.0560939 0.97584 -168.603 2.94209 -137.388)
(-126.418 0.0566087 0.780479 -145.093 1.40781 -134.513)
(-128.066 0.0753432 0.582879 -132.487 0.0274945 -133.77)
(-129.574 0.112153 0.391855 -131.734 -0.38534 -135.875)
(-115.416 0.0343928 0.605976 -468.824 -11.294 -223.76)
(-118.469 0.0686119 0.792987 -293.358 9.00517 -152.089)
(-119.705 0.003389 0.762254 -248.623 8.75648 -147.867)
(-121.499 -0.0482321 0.684573 -198.585 7.11758 -139.477)
(-123.338 -0.0783215 0.585835 -164.345 4.67588 -135.077)
(-125.207 -0.0871018 0.476783 -141.936 2.28559 -132.761)
(-127.033 -0.0724415 0.364038 -130.811 0.348946 -132.675)
(-128.78 -0.0353171 0.25168 -131.226 -0.341207 -135.643)
(-113.876 0.0142656 0.386037 -483.591 -4.74419 -233.4)
(-117.192 0.0338047 0.511715 -294.84 6.83193 -158.282)
(-118.537 -0.0464008 0.49678 -250.293 7.09868 -150.227)
(-120.462 -0.109682 0.450167 -198.287 5.79991 -138.703)
(-122.425 -0.148612 0.38917 -163.292 3.80593 -132.4)
(-124.42 -0.162944 0.320729 -140.891 1.82108 -129.274)
(-126.386 -0.150859 0.248899 -130.073 0.238717 -129.135)
(-128.307 -0.113484 0.175816 -130.434 -0.335571 -132.411)
(-112.787 0.00596918 0.265085 -492.898 -1.32952 -239.81)
(-116.224 0.0159345 0.353039 -296.174 4.97587 -163.236)
(-117.632 -0.0765546 0.345056 -252.193 5.08365 -152.778)
(-119.66 -0.149004 0.314646 -199.012 4.1231 -138.713)
(-121.728 -0.194312 0.273858 -163.367 2.64759 -130.713)
(-123.832 -0.212498 0.227525 -140.713 1.19705 -126.671)
(-125.912 -0.202203 0.178417 -129.869 0.0785367 -126.258)
(-127.963 -0.164876 0.127755 -130.04 -0.279989 -129.64)
(-112.036 0.00140227 0.181357 -498.875 0.137068 -243.636)
(-115.54 0.00528595 0.241652 -297.42 3.53749 -166.206)
(-116.987 -0.0957375 0.237146 -253.71 3.4814 -154.408)
(-119.084 -0.174803 0.217257 -199.852 2.76002 -138.749)
(-121.228 -0.224726 0.190099 -163.705 1.71846 -129.554)
(-123.412 -0.245721 0.158929 -140.753 0.717162 -124.804)
(-125.576 -0.23683 0.125601 -129.778 -0.0312287 -124.118)
(-127.72 -0.199811 0.0907869 -129.778 -0.240164 -127.475)
(-111.532 -0.00137265 0.118218 -502.749 0.571237 -245.877)
(-115.074 -0.00128209 0.1574 -298.434 2.37065 -167.829)
(-116.548 -0.107867 0.154877 -254.829 2.25343 -155.275)
(-118.689 -0.191404 0.142357 -200.533 1.74396 -138.661)
(-120.884 -0.244511 0.125029 -164.024 1.0533 -128.722)
(-123.123 -0.267491 0.10499 -140.82 0.40377 -123.513)
(-125.345 -0.259662 0.0834141 -129.714 -0.0709679 -122.633)
(-127.552 -0.222989 0.0606261 -129.62 -0.185605 -125.956)
(-111.22 -0.00307915 0.0666923 -505.112 0.493165 -247.123)
(-114.784 -0.00515397 0.0884534 -299.132 1.36546 -168.643)
(-116.273 -0.115017 0.0872503 -255.564 1.26697 -155.675)
(-118.441 -0.201329 0.0803999 -200.991 0.963153 -138.524)
(-120.668 -0.256439 0.0707754 -164.245 0.568716 -128.162)
(-122.942 -0.280692 0.0595939 -140.864 0.203551 -122.688)
(-125.2 -0.2736 0.0474837 -129.664 -0.060297 -121.689)
(-127.447 -0.237147 0.0344458 -129.525 -0.117719 -124.986)
(-111.072 -0.00441355 0.0214614 -506.243 0.185923 -247.684)
(-114.65 -0.00717281 0.0282844 -299.488 0.446143 -168.98)
(-116.145 -0.118189 0.0279648 -255.931 0.409028 -155.827)
(-118.325 -0.205858 0.0258172 -201.221 0.308134 -138.433)
(-120.567 -0.261951 0.022751 -164.357 0.179857 -127.88)
(-122.857 -0.286827 0.0191821 -140.886 0.0620138 -122.285)
(-125.133 -0.280244 0.0152983 -129.637 -0.0227816 -121.23)
(-127.401 -0.24371 0.0110078 -129.483 -0.040293 -124.514)
(-154.982 0.546339 0.428133 -148.651 -0.214022 -147.501)
(-155.44 0.607504 1.50843 -148.869 -0.168614 -148.878)
(-156.176 0.656473 1.56268 -148.979 -0.137422 -152.354)
(-156.609 0.692845 1.41175 -149.068 -0.111347 -154.952)
(-156.924 0.719049 1.15327 -149.143 -0.0864217 -156.585)
(-157.105 0.737195 0.855193 -149.206 -0.0617841 -157.389)
(-157.201 0.748618 0.525932 -149.251 -0.0374571 -157.713)
(-157.242 0.753915 0.177362 -149.279 -0.012696 -157.811)
(-148.586 0.593042 1.27322 -143.526 -0.0786073 -144.605)
(-148.955 0.651313 2.73984 -143.587 -0.0743113 -145.788)
(-149.271 0.690102 2.93667 -143.621 -0.0646409 -147.39)
(-149.525 0.717023 2.63816 -143.65 -0.0538877 -148.506)
(-149.695 0.735885 2.1444 -143.68 -0.0427233 -149.058)
(-149.789 0.748811 1.57455 -143.707 -0.0309963 -149.191)
(-149.836 0.757015 0.961974 -143.729 -0.018939 -149.132)
(-149.855 0.761184 0.323542 -143.742 -0.00643273 -149.058)
(-135.066 0.563435 1.31788 -138.581 0.0363472 -138.868)
(-135.182 0.615859 2.80959 -138.506 -0.00177252 -139.474)
(-135.418 0.650286 3.00188 -138.457 -0.0115652 -139.719)
(-135.486 0.673852 2.675 -138.427 -0.0127003 -139.542)
(-135.457 0.690199 2.15278 -138.413 -0.0115925 -139.109)
(-135.398 0.701315 1.56579 -138.408 -0.00912491 -138.612)
(-135.345 0.708286 0.950003 -138.408 -0.00591575 -138.195)
(-135.317 0.711608 0.318378 -138.409 -0.00210125 -137.961)
(-128.792 0.439529 0.455872 -133.525 0.134339 -135.976)
(-128.814 0.480755 1.5859 -133.3 0.0656328 -136.361)
(-128.655 0.515388 1.63176 -133.173 0.0400132 -134.767)
(-128.594 0.540421 1.43604 -133.078 0.0277781 -133.152)
(-128.473 0.558056 1.13863 -133.015 0.0190719 -131.693)
(-128.365 0.570057 0.821248 -132.972 0.0123698 -130.572)
(-128.283 0.577551 0.495281 -132.946 0.00676424 -129.808)
(-128.242 0.581181 0.165399 -132.934 0.00206136 -129.421)
)
;
    }
    symmetry
    {
        type            symmetryPlane;
    }
    bottom
    {
        type            calculated;
        value           nonuniform List<symmTensor> 
32
(
(96.583 101.629 0 144.874 109.732 96.583)
(70.645 104.842 0 105.967 61.0139 70.645)
(72.8776 107.828 0 109.316 36.3819 72.8776)
(75.7415 109.765 0 113.612 22.6874 75.7415)
(77.6623 111.018 0 116.494 14.4436 77.6623)
(78.8892 111.84 0 118.334 8.98819 78.8892)
(79.6211 112.351 0 119.432 4.95271 79.6211)
(79.9658 112.597 0 119.949 1.5856 79.9658)
(-45.0968 51.5546 0 -67.6452 53.7874 -45.0968)
(-66.8357 59.9019 0 -100.254 32.0922 -66.8357)
(-68.8607 62.3072 0 -103.291 20.6562 -68.8607)
(-69.3027 63.2847 0 -103.954 13.8068 -69.3027)
(-69.503 63.8405 0 -104.255 9.29116 -69.503)
(-69.6296 64.2191 0 -104.444 6.01594 -69.6296)
(-69.71 64.4713 0 -104.565 3.39825 -69.71)
(-69.7496 64.5989 0 -104.624 1.10082 -69.7496)
(-117.111 36.2005 0 -175.666 5.76796 -117.111)
(-134.576 47.5958 0 -201.865 4.50311 -134.576)
(-139.266 51.0088 0 -208.899 4.64344 -139.266)
(-141.458 52.3263 0 -212.188 4.39332 -141.458)
(-142.758 53.0322 0 -214.136 3.71553 -142.758)
(-143.576 53.4929 0 -215.363 2.77539 -143.576)
(-144.068 53.7924 0 -216.102 1.7025 -144.068)
(-144.301 53.9423 0 -216.451 0.572597 -144.301)
(-238.606 48.7799 0 -357.909 -49.5373 -238.606)
(-253.34 63.1099 0 -380.01 -25.1154 -253.34)
(-262.988 69.4271 0 -394.482 -11.8498 -262.988)
(-268.764 72.4646 0 -403.146 -5.07185 -268.764)
(-272.332 74.1989 0 -408.498 -1.83324 -272.332)
(-274.59 75.2863 0 -411.885 -0.445994 -274.59)
(-275.947 75.9505 0 -413.92 0.0115983 -275.947)
(-276.589 76.269 0 -414.884 0.0444044 -276.589)
)
;
    }
}


// ************************************************************************* //
