/*--------------------------------*- C++ -*----------------------------------*\
| =========                 |                                                 |
| \\      /  F ield         | foam-extend: Open Source CFD                    |
|  \\    /   O peration     | Version:     3.1                                |
|   \\  /    A nd           | Web:         http://www.extend-project.de       |
|    \\/     M anipulation  |                                                 |
\*---------------------------------------------------------------------------*/
FoamFile
{
    version     2.0;
    format      ascii;
    class       volScalarField;
    location    "0.4";
    object      sigmaCauchyEq;
}
// * * * * * * * * * * * * * * * * * * * * * * * * * * * * * * * * * * * * * //

dimensions      [1 -1 -2 0 0 0 0];

internalField   nonuniform List<scalar> 
256
(
241.004
125.973
104.936
173.862
113.205
118.302
119.975
128.948
97.7892
99.9497
100.936
99.4669
64.422
77.5537
78.6236
67.1075
40.5319
56.2653
56.8431
41.7218
22.5978
37.2741
37.443
22.839
11.4197
21.4672
21.3592
10.9554
6.56912
9.18077
8.87262
6.04462
220.169
131.994
125.385
186.663
124.662
127.251
126.709
135.487
97.1687
97.5227
97.8419
98.0246
64.217
73.0963
73.1265
64.0164
39.0962
51.3916
51.3658
38.231
21.2189
33.3948
33.2801
20.1574
10.4647
19.0196
18.873
9.61928
6.45208
8.79311
8.60415
6.28905
216.424
134.432
132.762
194.014
122.605
130.682
131.449
137.888
96.7057
99.5714
100.384
99.7327
64.2902
73.2914
73.4273
64.3742
39.1323
50.7643
50.6982
38.0661
21.0689
32.459
32.3216
19.7917
9.99949
18.2612
18.1068
8.93656
5.96442
8.75967
8.47818
5.27896
216.433
136.027
136.393
198.284
121.307
133.11
134.916
139.745
96.0452
101.699
103.145
101.565
64.2856
74.6872
75.1608
65.5733
39.3493
51.4933
51.5854
38.8444
21.2636
32.6699
32.6222
20.2797
10.0511
18.1908
18.0567
8.9705
6.21721
8.67036
8.152
4.44682
217.3
137.172
138.491
201.011
120.875
134.82
137.341
141.303
95.6063
103.338
105.359
103.132
64.1852
76.0298
76.8825
66.8175
39.4755
52.4339
52.7504
39.7967
21.4559
33.1929
33.2781
20.9919
10.2296
18.3605
18.2771
9.37266
6.6092
8.53269
7.81266
4.10902
218.195
137.995
139.804
202.801
120.78
135.971
138.969
142.498
95.3317
104.46
106.931
104.332
64.0279
77.0144
78.2059
67.8281
39.4579
53.1904
53.7311
40.6077
21.5156
33.6695
33.8951
21.6259
10.3124
18.5477
18.5366
9.82403
6.82278
8.36638
7.54412
4.14595
218.864
138.538
140.602
203.911
120.788
136.682
139.977
143.302
95.167
105.146
107.921
105.135
63.8791
77.6296
79.0683
68.5181
39.3729
53.6794
54.3947
41.1702
21.4805
33.9903
34.3308
22.0727
10.2957
18.6757
18.7343
10.1724
6.87386
8.21646
7.36804
4.3097
219.215
138.81
140.985
204.447
120.808
137.021
140.459
143.705
95.0882
105.47
108.398
105.536
63.7907
77.921
79.4887
68.8648
39.3056
53.9136
54.7233
41.4543
21.4342
34.1455
34.5503
22.2996
10.2563
18.7361
18.8369
10.3572
6.86451
8.12837
7.28263
4.42978
)
;

boundaryField
{
    interface
    {
        type            calculated;
        value           nonuniform List<scalar> 
192
(
368.355
113.665
112.044
65.3588
36.6909
15.8283
6.32065
5.72696
333.572
131.371
111.521
67.9862
37.5982
16.6833
6.74632
5.5589
331.898
125.648
109.639
67.7354
37.6733
16.7288
5.82121
3.91506
334.514
122.268
107.677
66.9946
37.5574
16.921
6.08354
4.63081
337.226
120.766
106.385
66.1703
37.237
16.9556
6.54201
5.70874
339.33
120.119
105.609
65.4772
36.8046
16.7805
6.72756
6.35454
340.726
119.844
105.163
64.9823
36.4084
16.5156
6.67531
6.62949
341.418
119.74
104.956
64.7241
36.1749
16.3281
6.57576
6.71151
275.989
99.4199
99.9973
64.7684
42.2152
24.0552
12.3929
6.69597
122.057
111.432
103.254
81.5524
60.2998
40.3233
23.4203
10.0291
86.4071
115.545
105.18
83.579
61.364
40.7019
23.3327
9.68171
183.679
121.046
104.047
70.5985
45.2234
25.288
12.158
6.02794
272.264
141.948
112.766
68.9432
37.9245
15.8683
5.10179
5.43352
286.53
151.453
111.965
67.714
35.9995
14.5313
4.88557
5.85811
297.714
151.556
113.282
67.9889
36.0226
14.4764
3.26909
3.497
305.038
151.98
114.673
68.845
36.7312
15.2409
3.69721
1.9345
309.878
152.786
115.934
69.8027
37.5651
16.1479
4.93974
2.18569
313.064
153.604
116.963
70.623
38.278
16.9038
6.00126
3.11465
315.024
154.223
117.682
71.2029
38.7767
17.4204
6.71118
3.83094
315.963
154.548
118.048
71.4994
39.0297
17.6792
7.06264
4.199
6.80579
6.86204
6.61894
7.0912
7.65528
7.94966
8.03514
8.03634
5.01762
6.49391
6.93894
6.92988
6.67206
6.29192
5.92725
5.70548
4.27047
6.09983
6.31933
5.78515
4.97403
4.15251
3.47467
3.07988
6.20243
6.9263
6.02635
5.0667
4.44724
4.20214
4.1753
4.20592
)
;
    }
    symmetry
    {
        type            symmetryPlane;
    }
    bottom
    {
        type            calculated;
        value           nonuniform List<scalar> 
32
(
273.247
218.8
206
203.48
203.58
204.226
204.808
205.128
128.831
119.334
115.769
114.41
114.011
114.003
114.109
114.189
82.681
101.437
107.018
109.235
110.402
111.126
111.577
111.798
154.687
156.849
162.095
165.963
168.572
170.291
171.346
171.85
)
;
    }
}


// ************************************************************************* //
