/*--------------------------------*- C++ -*----------------------------------*\
| =========                 |                                                 |
| \\      /  F ield         | foam-extend: Open Source CFD                    |
|  \\    /   O peration     | Version:     3.1                                |
|   \\  /    A nd           | Web:         http://www.extend-project.de       |
|    \\/     M anipulation  |                                                 |
\*---------------------------------------------------------------------------*/
FoamFile
{
    version     2.0;
    format      ascii;
    class       volSymmTensorField;
    location    "0.4";
    object      sigmaCauchy;
}
// * * * * * * * * * * * * * * * * * * * * * * * * * * * * * * * * * * * * * //

dimensions      [1 -1 -2 0 0 0 0];

internalField   nonuniform List<symmTensor> 
256
(
(79.0477 80.5228 0.186436 259.312 54.3227 95.6478)
(-55.2824 63.3558 -5.23303 -25.1371 30.7507 -55.273)
(-117.211 51.6992 -6.34428 -172.02 7.28401 -123.162)
(-242.898 40.6427 -2.88174 -408.822 -10.6865 -260.613)
(-216.319 25.5613 -2.36396 -100.407 -3.84715 -185.148)
(-157.133 65.0408 -8.63932 -121.805 -0.476849 -151.463)
(-129.225 62.1133 -9.26448 -183.826 5.27297 -140.939)
(-95.1256 23.1444 -2.85855 -228.979 8.98372 -125.77)
(-152.996 29.1742 -0.226504 -59.6677 1.14993 -128.07)
(-150.707 55.3547 -4.06395 -119.972 1.3047 -141.2)
(-128.469 53.6085 -4.76706 -171.193 2.36055 -139.222)
(-124.57 22.6021 -1.03001 -225.305 3.57068 -148.311)
(-165.159 21.1783 -0.589933 -105.559 -2.32247 -146.465)
(-151.908 43.6204 -2.6086 -132.706 -0.414783 -145.285)
(-130.45 42.4078 -2.75278 -161.257 1.43676 -139.094)
(-120.205 17.5163 -0.596754 -186.605 3.3709 -137.875)
(-159.274 15.6343 -0.179962 -125.011 -2.01411 -146.24)
(-149.199 32.002 -1.22411 -138.414 -0.591872 -144.583)
(-132.737 31.0859 -1.28143 -153.181 0.592684 -139.395)
(-124.31 13.1442 -0.179249 -163.625 1.9514 -136.779)
(-157.469 9.96712 -0.0311537 -140.975 -1.64929 -148.571)
(-147.717 21.3341 -0.386015 -142.311 -0.671963 -144.556)
(-134.7 20.7547 -0.393586 -146.692 0.0404974 -139.523)
(-126.522 8.75094 -0.0097429 -146.127 0.854774 -135.131)
(-155.454 5.31538 0.08172 -148.78 -0.914555 -149.001)
(-146.608 12.2932 0.187682 -143.905 -0.549321 -144.267)
(-136.169 11.978 0.197349 -141.959 -0.299391 -139.58)
(-128.244 4.86238 0.0722297 -135.772 -0.0768077 -134.568)
(-154.691 1.66552 0.264897 -149.655 -0.262742 -148.249)
(-148.169 4.94536 0.826446 -145.185 -0.263742 -145.27)
(-135.248 4.69784 0.854049 -138.291 -0.262755 -138.552)
(-129.173 1.37931 0.25737 -133.219 -0.310563 -135.446)
(55.7776 87.3403 0.207443 210.691 40.0659 80.5591)
(-78.1965 72.1596 -4.07971 -69.2696 23.7457 -73.936)
(-140.159 60.9516 -4.86848 -207.958 7.91496 -144.572)
(-264.412 48.0508 -1.91413 -440.416 -4.82036 -284.571)
(-180.253 28.9466 -1.76214 -52.8353 10.5364 -139.085)
(-128.777 69.5282 -7.70177 -89.1851 9.22025 -118.015)
(-131.992 65.2557 -8.32267 -188.586 9.60958 -140.457)
(-107.913 23.8406 -2.62928 -248.724 9.00541 -139.374)
(-154.784 27.4269 -0.38426 -60.2921 2.98297 -129.018)
(-146.452 53.6078 -4.54863 -114.867 3.81014 -136.615)
(-130.956 51.7578 -5.23739 -171.181 5.88633 -139.38)
(-124.175 21.2648 -1.47089 -222.949 7.51922 -146.014)
(-161.117 19.5655 -0.0280127 -99.6708 -0.952379 -142.266)
(-147.523 40.759 -2.14043 -126.599 1.11368 -140.718)
(-132.605 39.502 -2.43365 -160.029 3.54775 -139.487)
(-121.78 15.857 -0.399582 -185.094 5.71276 -137.981)
(-158.875 13.7629 0.49244 -123.835 -2.21284 -146.255)
(-147.612 29.0295 -0.426587 -135.507 -0.255321 -143.083)
(-133.795 28.2374 -0.551985 -151.136 1.7564 -139.197)
(-124.132 11.5322 0.324239 -160.235 3.57808 -135.376)
(-157.439 8.56181 0.773107 -140.531 -2.1709 -149.031)
(-147.181 18.9943 0.675133 -140.899 -0.789598 -144.185)
(-135.058 18.5549 0.626218 -144.863 0.497457 -139.126)
(-126.127 7.57179 0.697144 -143.411 1.64206 -133.921)
(-155.937 4.41303 0.940702 -149.001 -1.44731 -150.006)
(-146.945 10.743 1.38865 -143.785 -0.815614 -144.88)
(-136.145 10.5341 1.38538 -140.869 -0.232124 -139.301)
(-127.863 4.1364 0.899089 -134.314 0.181393 -133.822)
(-155.127 1.34862 1.22711 -149.804 -0.585254 -149.403)
(-148.787 4.24954 2.1614 -145.53 -0.472135 -146.447)
(-135.347 4.03536 2.2036 -138.08 -0.312839 -138.885)
(-129.306 1.10013 1.2448 -133.137 -0.289018 -135.695)
(59.4716 91.1017 0.256805 213.169 27.0177 91.223)
(-80.3556 75.6475 -2.51958 -75.783 16.7355 -72.661)
(-145.013 64.5409 -3.04543 -217.857 7.00919 -150.223)
(-275.091 51.5432 -1.26364 -458.297 -0.976632 -299.684)
(-180.743 30.6507 -1.3258 -55.7332 11.7267 -126.909)
(-127.473 72.349 -5.06425 -90.6383 9.65747 -109.65)
(-132.706 67.4845 -5.45121 -194.076 8.70634 -141.595)
(-106.786 24.1014 -1.92595 -252.26 7.26241 -144.465)
(-155.489 27.6121 -0.597475 -60.3875 5.64313 -121.537)
(-145.581 54.8653 -3.29456 -113.69 5.41772 -130.332)
(-130.243 52.9411 -3.69045 -172.361 6.249 -137.879)
(-123.984 21.5833 -1.13779 -225.366 6.61843 -148.123)
(-161.524 19.5102 -0.0492351 -99.1944 1.5673 -138.735)
(-147.294 40.7905 -1.48928 -125.576 2.51076 -137.27)
(-132.324 39.572 -1.717 -159.904 4.01638 -137.99)
(-121.304 15.8228 -0.325987 -185.234 5.10528 -137.485)
(-159.903 13.4098 0.426779 -123.868 -0.41403 -145.995)
(-147.659 28.5618 -0.0282853 -134.599 0.74284 -141.43)
(-133.591 27.8363 -0.136454 -150.469 2.15076 -137.77)
(-123.338 11.2872 0.304948 -159.32 3.21877 -133.301)
(-158.511 8.1852 0.758269 -140.733 -1.05745 -150.515)
(-147.418 18.3788 0.985742 -140.372 -0.175563 -143.803)
(-134.896 18.0089 0.939194 -144.185 0.781797 -137.951)
(-125.244 7.27884 0.697912 -142.302 1.48368 -131.229)
(-156.969 4.0917 0.983753 -149.308 -0.894853 -152.477)
(-147.284 10.2312 1.69583 -143.616 -0.488694 -145.385)
(-136.041 10.0755 1.68969 -140.461 -0.0378432 -138.55)
(-127.015 3.88688 0.94709 -133.429 0.193894 -131.163)
(-156.348 1.26883 1.29092 -150.583 -0.391514 -152.865)
(-149.188 4.05378 2.41313 -145.63 -0.352708 -147.722)
(-135.476 3.85683 2.45151 -138.01 -0.23202 -138.805)
(-128.558 1.02554 1.30586 -132.319 -0.255152 -133.403)
(63.0865 93.3463 0.298945 217.999 18.3015 99.3226)
(-80.5594 77.467 -1.45793 -77.5157 11.8224 -70.8339)
(-146.933 66.3758 -1.79518 -222.326 5.80763 -152.82)
(-281.259 53.3632 -0.716903 -468.858 0.78493 -308.912)
(-181.915 31.548 -0.750615 -58.5221 10.1337 -119.428)
(-127.685 74.2858 -3.10184 -92.911 8.22516 -105.353)
(-132.87 69.1963 -3.33786 -197.532 6.98751 -142.349)
(-105.614 24.5099 -1.18943 -254.426 5.48253 -148.032)
(-156.117 28.2455 -0.375871 -61.7706 6.22344 -115.164)
(-145.879 56.2821 -2.12842 -114.866 5.44125 -126.38)
(-129.706 54.2594 -2.34319 -174.065 5.44486 -136.873)
(-123.479 22.0626 -0.72647 -227.538 5.06879 -149.913)
(-162.12 19.8392 0.0245907 -99.842 3.05077 -134.862)
(-147.609 41.6061 -0.919948 -126.07 3.10548 -134.485)
(-131.924 40.3853 -1.05886 -160.619 3.70794 -136.573)
(-120.575 16.1215 -0.191147 -186.029 3.93667 -137.166)
(-160.529 13.5343 0.392243 -124.194 1.0775 -144.537)
(-147.953 28.9337 0.156948 -134.71 1.44484 -139.842)
(-133.314 28.2273 0.0832968 -150.65 2.12384 -136.348)
(-122.718 11.4268 0.276594 -159.462 2.47624 -131.818)
(-159.105 8.18462 0.672937 -140.88 0.101844 -150.811)
(-147.709 18.465 0.96666 -140.364 0.425266 -143.234)
(-134.697 18.1202 0.93113 -144.141 0.908278 -136.735)
(-124.707 7.29869 0.604127 -142.158 1.13303 -129.176)
(-157.456 4.02946 0.885449 -149.324 -0.183047 -153.9)
(-147.562 10.1929 1.57813 -143.607 -0.0706644 -145.602)
(-135.913 10.0565 1.56789 -140.383 0.147775 -137.682)
(-126.613 3.84723 0.836336 -133.258 0.153875 -129.055)
(-156.88 1.26478 1.16774 -150.776 -0.141398 -155.153)
(-149.443 4.03409 2.19283 -145.64 -0.180513 -148.533)
(-135.46 3.84007 2.21327 -137.959 -0.11383 -138.383)
(-128.253 1.01465 1.15757 -132.037 -0.182369 -131.497)
(65.388 94.7554 0.283564 221.548 12.3659 104.288)
(-80.5353 78.5514 -0.807478 -78.1979 8.25776 -69.6481)
(-147.995 67.4531 -1.01988 -224.879 4.51548 -154.307)
(-284.986 54.4127 -0.377696 -475.417 1.32517 -314.478)
(-182.891 32.1083 -0.376097 -60.2119 7.91657 -115.075)
(-127.856 75.5769 -1.81424 -94.3948 6.38717 -102.827)
(-132.91 70.3903 -1.96086 -199.738 5.25438 -142.78)
(-104.708 24.834 -0.683305 -255.935 3.97637 -150.071)
(-156.775 28.7554 -0.172642 -63.2049 5.54599 -111.044)
(-146.18 57.3905 -1.27061 -116.192 4.65115 -123.865)
(-129.372 55.3027 -1.39429 -175.559 4.28419 -136.201)
(-122.979 22.445 -0.416184 -229.144 3.6504 -150.941)
(-162.751 20.1882 0.0916852 -100.964 3.3579 -132.018)
(-147.882 42.4254 -0.497432 -126.951 2.98921 -132.452)
(-131.638 41.1841 -0.583891 -161.537 3.04774 -135.49)
(-119.982 16.4235 -0.0771199 -186.884 2.82919 -136.865)
(-161.072 13.752 0.346514 -124.903 1.77297 -143.139)
(-148.193 29.4636 0.238671 -135.214 1.66725 -138.516)
(-133.093 28.7531 0.186914 -151.132 1.84629 -135.185)
(-122.208 11.6305 0.239159 -159.831 1.77459 -130.686)
(-159.583 8.29362 0.551295 -141.286 0.806152 -150.69)
(-147.92 18.7544 0.826362 -140.611 0.758155 -142.609)
(-134.536 18.4111 0.796623 -144.351 0.884735 -135.7)
(-124.281 7.40383 0.477887 -142.233 0.806889 -127.613)
(-157.833 4.06337 0.718489 -149.49 0.327911 -154.681)
(-147.745 10.3217 1.29839 -143.702 0.226947 -145.554)
(-135.799 10.1857 1.28257 -140.438 0.252612 -136.878)
(-126.293 3.8802 0.660195 -133.206 0.109136 -127.405)
(-157.273 1.28878 0.951115 -150.961 0.0734754 -156.586)
(-149.601 4.0818 1.78751 -145.66 -0.0331441 -148.889)
(-135.374 3.88313 1.78895 -137.914 -0.0289098 -137.81)
(-127.964 1.02633 0.918143 -131.818 -0.134507 -129.88)
(66.8231 95.6569 0.228525 223.931 8.01468 107.255)
(-80.5057 79.2415 -0.425741 -78.5404 5.47864 -68.9647)
(-148.641 68.1317 -0.554862 -226.456 3.20761 -155.203)
(-287.313 55.0559 -0.185441 -479.591 1.23112 -317.862)
(-183.543 32.4693 -0.162456 -61.1494 5.60709 -112.581)
(-127.958 76.4172 -1.00697 -95.3057 4.50993 -101.351)
(-132.919 71.1768 -1.09638 -201.164 3.64247 -143.008)
(-104.107 25.0521 -0.366496 -257.019 2.6964 -151.168)
(-157.23 29.1072 -0.047408 -64.224 4.24033 -108.509)
(-146.38 58.1547 -0.7018 -117.209 3.47909 -122.306)
(-129.157 56.0264 -0.774868 -176.664 3.04862 -135.737)
(-122.616 22.7082 -0.215313 -230.289 2.4488 -151.453)
(-163.215 20.4519 0.115682 -101.958 2.85505 -130.147)
(-148.07 43.0429 -0.230606 -127.769 2.40047 -131.092)
(-131.443 41.7829 -0.284993 -162.327 2.23619 -134.714)
(-119.562 16.6474 -0.010894 -187.573 1.89067 -136.558)
(-161.474 13.935 0.277464 -125.645 1.74983 -142.093)
(-148.361 29.9066 0.237437 -135.771 1.47492 -137.546)
(-132.935 29.1876 0.201233 -151.62 1.41308 -134.32)
(-121.842 11.7975 0.187927 -160.182 1.18477 -129.847)
(-159.926 8.40197 0.411543 -141.758 0.987123 -150.445)
(-148.064 19.0309 0.626511 -140.929 0.787176 -142.071)
(-134.415 18.6825 0.602304 -144.603 0.731823 -134.901)
(-123.976 7.5044 0.345215 -142.344 0.538771 -126.492)
(-158.099 4.11221 0.5273 -149.718 0.522054 -155.04)
(-147.864 10.4655 0.953955 -143.839 0.336653 -145.386)
(-135.706 10.3242 0.936544 -140.521 0.263037 -136.213)
(-126.063 3.92214 0.471646 -133.184 0.0737917 -126.211)
(-157.5 1.30976 0.701454 -151.089 0.170119 -157.298)
(-149.684 4.1334 1.31028 -145.679 0.0452509 -148.93)
(-135.28 3.92902 1.30064 -137.883 0.0155036 -137.247)
(-127.761 1.03719 0.660078 -131.686 -0.0927115 -128.688)
(67.6686 96.2054 0.146421 225.4 4.52772 108.931)
(-80.4891 79.6653 -0.202044 -78.723 3.13988 -68.5987)
(-149.022 68.5461 -0.271699 -227.395 1.91316 -155.722)
(-288.698 55.4398 -0.0817393 -482.109 0.827858 -319.82)
(-183.948 32.6895 -0.0585298 -61.6522 3.33379 -111.247)
(-128.016 76.9267 -0.498905 -95.8329 2.67679 -100.539)
(-132.92 71.6544 -0.547519 -202.033 2.14017 -143.12)
(-103.739 25.1839 -0.17543 -257.723 1.56398 -151.71)
(-157.513 29.3246 0.00229515 -64.8531 2.6327 -107.08)
(-146.495 58.6255 -0.341141 -117.863 2.13477 -121.408)
(-129.026 56.4728 -0.380681 -177.38 1.81782 -135.438)
(-122.388 22.8687 -0.0974997 -231.027 1.40854 -151.674)
(-163.511 20.6197 0.0907815 -102.648 1.87464 -129.049)
(-148.182 43.437 -0.0876861 -128.349 1.53436 -130.27)
(-131.321 42.1641 -0.118537 -162.876 1.35963 -134.215)
(-119.297 16.7879 0.0115679 -188.04 1.08466 -136.306)
(-161.735 14.0556 0.179654 -126.211 1.23321 -141.437)
(-148.465 30.2015 0.170238 -136.201 0.994179 -136.925)
(-132.834 29.4756 0.148173 -151.983 0.883523 -133.752)
(-121.608 11.9068 0.120246 -160.432 0.680337 -129.284)
(-160.148 8.47695 0.254498 -142.144 0.757536 -150.24)
(-148.155 19.2237 0.390006 -141.193 0.572647 -141.69)
(-134.337 18.8702 0.373812 -144.801 0.480215 -134.361)
(-123.78 7.57364 0.208571 -142.427 0.310884 -125.76)
(-158.274 4.14859 0.321463 -149.922 0.43464 -155.184)
(-147.936 10.5693 0.581028 -143.958 0.276443 -145.21)
(-135.642 10.4227 0.567688 -140.589 0.192946 -135.74)
(-125.911 3.95231 0.281874 -133.166 0.0439402 -125.428)
(-157.631 1.32258 0.429352 -151.185 0.153178 -157.604)
(-149.726 4.16929 0.798372 -145.699 0.0570746 -148.844)
(-135.207 3.96053 0.787688 -137.863 0.0244473 -136.808)
(-127.625 1.04364 0.396619 -131.603 -0.054674 -127.893)
(68.0644 96.4672 0.0501461 226.105 1.46661 109.691)
(-80.4821 79.8696 -0.0591946 -78.8043 1.02395 -68.4401)
(-149.201 68.7453 -0.0812243 -227.839 0.635421 -155.962)
(-289.351 55.6216 -0.0228266 -483.304 0.28858 -320.725)
(-184.141 32.7946 -0.0136068 -61.8717 1.10541 -110.668)
(-128.043 77.1683 -0.149948 -96.0756 0.886828 -100.179)
(-132.919 71.8808 -0.165402 -202.447 0.705861 -143.165)
(-103.565 25.246 -0.0517018 -258.069 0.512731 -151.93)
(-157.646 29.4282 0.00563674 -65.1492 0.890331 -106.439)
(-146.548 58.8491 -0.100874 -118.181 0.718164 -120.998)
(-128.964 56.6846 -0.113477 -177.73 0.603584 -135.292)
(-122.28 22.9442 -0.027567 -231.39 0.459796 -151.751)
(-163.653 20.7003 0.0337248 -102.994 0.649769 -128.547)
(-148.233 43.6266 -0.0209027 -128.643 0.525969 -129.884)
(-131.263 42.3471 -0.0309886 -163.153 0.455757 -133.97)
(-119.171 16.8547 0.0067103 -188.274 0.353679 -136.166)
(-161.861 14.1141 0.0620351 -126.509 0.440393 -141.126)
(-148.514 30.3456 0.0613498 -136.429 0.349046 -136.624)
(-132.785 29.6161 0.0538792 -152.172 0.300296 -133.472)
(-121.495 11.9597 0.0412401 -160.56 0.222107 -129)
(-160.256 8.5138 0.0860338 -142.356 0.279799 -150.13)
(-148.198 19.3195 0.132255 -141.338 0.207644 -141.495)
(-134.298 18.9631 0.126537 -144.906 0.167028 -134.089)
(-123.685 7.60768 0.0696542 -142.469 0.101932 -125.399)
(-158.36 4.16664 0.107866 -150.038 0.165424 -155.229)
(-147.97 10.621 0.194904 -144.024 0.104853 -145.105)
(-135.61 10.4715 0.189942 -140.625 0.0703322 -135.494)
(-125.836 3.96702 0.0935935 -133.156 0.0147752 -125.041)
(-157.689 1.32808 0.144399 -151.235 0.0596929 -157.705)
(-149.743 4.18662 0.268033 -145.711 0.0241028 -148.766)
(-135.168 3.97556 0.263613 -137.854 0.0107 -136.569)
(-127.559 1.04624 0.132136 -131.563 -0.0180666 -127.497)
)
;

boundaryField
{
    interface
    {
        type            calculated;
        value           nonuniform List<symmTensor> 
192
(
(-161.399 14.9844 3.62482 238.127 63.6727 -17.2621)
(-161.842 3.46021 1.26825 -41.6895 -4.53285 -146.373)
(-161.08 4.37726 1.48325 -35.9174 1.29021 -125.62)
(-160.006 2.55575 1.12486 -87.3013 -3.37011 -139.46)
(-158.674 1.39973 0.957018 -117.367 -2.87622 -143.771)
(-157.176 0.485768 0.788402 -139.589 -2.28388 -147.789)
(-155.562 0.0185558 0.643954 -150.494 -1.16858 -149.11)
(-153.841 -0.0246893 0.4999 -150.254 -0.282313 -147.34)
(-163.907 14.6838 2.64838 206.05 46.8525 -15.8847)
(-164.168 4.32605 1.30397 -19.6594 11.989 -125.139)
(-163.302 4.22515 1.04571 -38.8955 3.06442 -128.376)
(-162.038 2.55369 0.759983 -85.9711 -1.84453 -139.846)
(-160.481 1.29471 0.595478 -118.261 -3.15232 -145.762)
(-158.721 0.376857 0.489564 -140.381 -2.88133 -149.495)
(-156.821 -0.0977279 0.418821 -151.13 -1.76282 -150.607)
(-154.778 -0.145939 0.3575 -150.541 -0.606871 -148.674)
(-165.424 15.4337 1.81515 209.981 31.3186 -5.87076)
(-165.648 4.32339 1.05934 -24.6985 13.2773 -112.465)
(-164.703 4.16795 0.868112 -40.8515 6.18883 -121.411)
(-163.33 2.51259 0.629465 -86.6538 1.34212 -137.364)
(-161.639 1.23757 0.470784 -118.857 -0.859501 -146.496)
(-159.722 0.318433 0.371546 -140.75 -1.43929 -151.955)
(-157.645 -0.160556 0.311947 -151.332 -1.05505 -153.947)
(-155.403 -0.229174 0.271384 -151.029 -0.360178 -152.762)
(-166.484 16.0403 1.24878 215.197 20.9958 1.09742)
(-166.7 4.31752 0.819869 -27.834 11.4005 -103.495)
(-165.7 4.13452 0.71453 -42.9728 6.94112 -114.366)
(-164.253 2.47149 0.543038 -87.8027 3.27146 -133.341)
(-162.469 1.19631 0.407454 -119.519 1.05304 -145.345)
(-160.442 0.279658 0.313455 -141.069 0.035073 -152.829)
(-158.241 -0.19942 0.253119 -151.41 -0.170684 -156.098)
(-155.861 -0.280199 0.211909 -151.221 -0.0603929 -155.759)
(-167.231 16.4594 0.852803 219.01 14.0707 5.25221)
(-167.447 4.33134 0.60585 -29.4098 8.87316 -98.0772)
(-166.408 4.11683 0.554099 -44.5685 6.21314 -109.559)
(-164.909 2.43168 0.440981 -89.1147 3.73709 -130.119)
(-163.06 1.15647 0.338917 -120.387 1.96722 -143.938)
(-160.957 0.243955 0.259696 -141.579 0.92504 -152.976)
(-158.669 -0.231507 0.2042 -151.633 0.450273 -157.336)
(-156.193 -0.317402 0.163288 -151.423 0.187536 -157.685)
(-167.745 16.7384 0.556744 221.589 9.06818 7.66496)
(-167.961 4.35071 0.416176 -30.1864 6.2722 -94.9512)
(-166.897 4.11055 0.393554 -45.6038 4.75868 -106.584)
(-165.363 2.40163 0.323839 -90.1868 3.21527 -127.962)
(-163.469 1.12224 0.254721 -121.224 1.99129 -142.83)
(-161.314 0.212958 0.196317 -142.131 1.16214 -152.863)
(-158.968 -0.257843 0.152326 -151.921 0.67424 -157.971)
(-156.427 -0.343835 0.1173 -151.602 0.283013 -158.735)
(-168.068 16.9105 0.315695 223.191 5.10575 8.9903)
(-168.285 4.3668 0.242789 -30.5622 3.72588 -93.273)
(-167.206 4.10951 0.234495 -46.2155 2.95701 -104.916)
(-165.65 2.3824 0.197056 -90.9096 2.12074 -126.701)
(-163.728 1.09793 0.157519 -121.848 1.41473 -142.13)
(-161.54 0.190238 0.122228 -142.575 0.89672 -152.726)
(-159.157 -0.276852 0.0942813 -152.173 0.552095 -158.273)
(-156.575 -0.361309 0.0706443 -151.745 0.234294 -159.247)
(-168.221 16.9924 0.102299 223.964 1.65133 9.58156)
(-168.436 4.37537 0.0795205 -30.7108 1.23502 -92.5402)
(-167.351 4.11003 0.0776303 -46.4952 1.00038 -104.171)
(-165.785 2.3733 0.0659106 -91.2655 0.736276 -126.125)
(-163.851 1.08561 0.0531124 -122.172 0.506536 -141.798)
(-161.648 0.178404 0.0413781 -142.815 0.331628 -152.646)
(-159.248 -0.286913 0.0318343 -152.314 0.208873 -158.389)
(-156.643 -0.370038 0.0234461 -151.821 0.0889623 -159.444)
(-74.1139 73.2192 -0.692959 123.675 5.37593 -150.314)
(-202.579 23.686 -2.14423 -98.0973 0.0484246 -149.983)
(-169.405 30.6509 -2.15474 -76.6576 0.158051 -149.779)
(-169.546 22.5998 -1.93104 -111.06 0.0959062 -149.578)
(-162.219 17.1324 -1.63767 -128.051 0.12939 -149.362)
(-158.125 11.0443 -1.30295 -141.509 0.147362 -149.109)
(-155.221 5.96679 -0.958938 -148.39 0.155766 -148.813)
(-154.693 1.91792 -0.623113 -149.707 0.1908 -148.474)
(-107.225 55.7797 -1.21592 -59.3171 0.900251 -145.203)
(-160.804 62.5633 -1.92629 -131.091 -0.430561 -145.023)
(-155.935 57.549 -1.86691 -125.438 -0.270938 -144.872)
(-153.677 46.1656 -1.70319 -135.486 -0.177073 -144.719)
(-150.195 34.4088 -1.44988 -140.027 -0.0877622 -144.566)
(-148.055 23.1061 -1.15696 -143.025 -0.0388528 -144.402)
(-146.619 13.4191 -0.85399 -144.072 -0.0173449 -144.231)
(-147.237 5.48483 -0.567767 -144.377 0.00654498 -144.009)
(-121.098 44.4886 -1.67835 -165.953 -0.330432 -140.251)
(-125.573 60.1631 -2.03567 -181.019 -0.742483 -140.178)
(-126.836 55.9008 -1.94584 -172.752 -0.556352 -140.06)
(-129.551 44.9952 -1.72044 -163.411 -0.387085 -139.956)
(-132.251 33.4095 -1.44881 -155.214 -0.267942 -139.868)
(-134.561 22.4329 -1.15196 -148.236 -0.207148 -139.793)
(-136.268 13.0343 -0.849286 -142.845 -0.188863 -139.715)
(-136.137 5.21526 -0.564541 -139.333 -0.189043 -139.582)
(-152.295 36.1489 -2.00588 -315.493 0.412531 -134.747)
(-95.1906 22.3789 -2.47103 -224.31 -0.870402 -134.745)
(-113.491 24.0631 -2.24287 -217.554 -0.727107 -134.697)
(-116.679 19.019 -1.95619 -186.052 -0.539675 -134.719)
(-122.552 14.4837 -1.62251 -164.657 -0.410682 -134.783)
(-126.378 9.6665 -1.27756 -147.941 -0.34943 -134.881)
(-128.787 5.3883 -0.930668 -137.266 -0.342578 -134.986)
(-129.2 1.59979 -0.592359 -133.401 -0.37325 -135.035)
(-123.517 -8.17595 0.430485 -428.347 -17.4359 -218.282)
(-123.142 -4.27253 1.53767 -275.005 9.6231 -148.946)
(-123.673 -4.27308 1.3166 -247.741 3.9941 -153.091)
(-124.591 -2.73313 1.23875 -200.102 4.31428 -142.499)
(-125.764 -1.52568 1.02231 -167.86 2.68572 -138.01)
(-127.098 -0.605001 0.790445 -145.074 1.3014 -134.906)
(-128.525 -0.0792763 0.555866 -132.797 0.00916205 -134.036)
(-130.016 0.0357808 0.357139 -132.112 -0.377388 -136.105)
(-121.546 -9.64634 0.187261 -445.042 -9.83036 -228.13)
(-121.426 -4.78151 0.93676 -285.695 8.00156 -154.199)
(-122.059 -4.24196 0.954543 -244.018 7.94611 -149.357)
(-123.068 -2.73781 0.868105 -196.58 6.59841 -140.41)
(-124.359 -1.53017 0.707619 -163.68 4.39596 -135.662)
(-125.854 -0.668119 0.526414 -141.95 2.1667 -133.129)
(-127.485 -0.19852 0.353448 -131.121 0.327478 -132.928)
(-129.239 -0.115814 0.2195 -131.592 -0.330072 -135.861)
(-120.314 -10.7432 0.174338 -458.158 -4.14027 -237.934)
(-120.248 -4.96039 0.62392 -287.184 6.10267 -160.335)
(-120.952 -4.39588 0.656169 -245.594 6.47101 -151.709)
(-122.035 -2.82063 0.60238 -196.245 5.39441 -139.65)
(-123.418 -1.58937 0.492031 -162.593 3.58483 -133.019)
(-125.029 -0.731204 0.364487 -140.863 1.72649 -129.693)
(-126.802 -0.270931 0.243427 -130.338 0.221118 -129.446)
(-128.727 -0.180745 0.150921 -130.763 -0.326427 -132.684)
(-119.416 -11.442 0.173916 -466.402 -1.19768 -244.415)
(-119.359 -5.11464 0.436016 -288.519 4.44814 -165.23)
(-120.112 -4.54914 0.456106 -247.402 4.62922 -154.25)
(-121.256 -2.92173 0.419863 -196.91 3.83005 -139.672)
(-122.717 -1.66412 0.34424 -162.619 2.48877 -131.363)
(-124.422 -0.79464 0.256871 -140.639 1.12996 -127.134)
(-126.303 -0.329908 0.174245 -130.09 0.0662225 -126.62)
(-128.353 -0.228558 0.11101 -130.333 -0.274555 -129.962)
(-118.782 -11.8949 0.149626 -471.668 0.0663088 -248.286)
(-118.727 -5.23887 0.301721 -289.726 3.16077 -168.165)
(-119.513 -4.67196 0.310886 -248.839 3.16318 -155.874)
(-120.701 -3.00976 0.284998 -197.694 2.55726 -139.718)
(-122.218 -1.7287 0.234374 -162.912 1.60982 -130.227)
(-123.99 -0.844716 0.176594 -140.641 0.672159 -125.299)
(-125.948 -0.371985 0.122038 -129.965 -0.0389489 -124.517)
(-128.086 -0.261579 0.0798439 -130.043 -0.236673 -127.835)
(-118.349 -12.1901 0.111659 -475.062 0.448806 -250.562)
(-118.295 -5.33087 0.198107 -290.69 2.1166 -169.774)
(-119.102 -4.76278 0.201307 -249.891 2.04303 -156.741)
(-120.32 -3.07614 0.183598 -198.328 1.61156 -139.64)
(-121.876 -1.77672 0.151309 -163.196 0.983072 -129.412)
(-123.694 -0.879992 0.115003 -140.681 0.375169 -124.03)
(-125.704 -0.399956 0.0807063 -129.879 -0.0755076 -123.056)
(-127.902 -0.284187 0.0539078 -129.865 -0.183423 -126.342)
(-118.078 -12.3711 0.0679348 -477.125 0.396467 -251.832)
(-118.025 -5.39124 0.112031 -291.345 1.21836 -170.583)
(-118.844 -4.82243 0.112836 -250.578 1.14685 -157.145)
(-120.081 -3.11988 0.10256 -198.754 0.888217 -139.511)
(-121.661 -1.80787 0.0846366 -163.395 0.529229 -128.864)
(-123.508 -0.901999 0.0647189 -140.708 0.187634 -123.218)
(-125.551 -0.416789 0.0458504 -129.815 -0.0626763 -122.127)
(-127.787 -0.298114 0.0308474 -129.757 -0.116493 -125.387)
(-117.951 -12.4583 0.0226252 -478.109 0.150331 -252.406)
(-117.899 -5.42125 0.0360101 -291.677 0.39795 -170.918)
(-118.724 -4.85176 0.0361445 -250.919 0.36995 -157.299)
(-119.969 -3.14136 0.0328116 -198.968 0.283858 -139.425)
(-121.561 -1.82297 0.027088 -163.496 0.167104 -128.587)
(-123.421 -0.912378 0.0207683 -140.722 0.0568974 -122.822)
(-125.479 -0.424677 0.0147644 -129.781 -0.0235216 -121.676)
(-127.735 -0.304562 0.00988644 -129.709 -0.0398921 -124.924)
(-155.205 0.7264 0.414021 -149.214 -0.221635 -148.068)
(-155.667 0.792092 1.4526 -149.46 -0.211938 -149.427)
(-156.436 0.860234 1.50049 -149.634 -0.180586 -152.832)
(-156.898 0.907512 1.352 -149.77 -0.149044 -155.373)
(-157.232 0.941718 1.10248 -149.875 -0.116725 -156.968)
(-157.422 0.964033 0.816802 -149.952 -0.0843138 -157.754)
(-157.521 0.977368 0.502142 -150.004 -0.0514178 -158.07)
(-157.563 0.983268 0.169317 -150.034 -0.0174239 -158.167)
(-148.848 0.726187 1.22606 -144.071 -0.115022 -145.07)
(-149.216 0.790971 2.63464 -144.157 -0.156188 -146.236)
(-149.544 0.838072 2.82119 -144.222 -0.152069 -147.805)
(-149.809 0.872684 2.53272 -144.272 -0.132129 -148.898)
(-149.984 0.896852 2.05801 -144.313 -0.106366 -149.437)
(-150.08 0.91269 1.51103 -144.344 -0.0779394 -149.567)
(-150.127 0.922292 0.923227 -144.366 -0.0477615 -149.509)
(-150.146 0.926969 0.310529 -144.378 -0.0161541 -149.437)
(-135.497 0.42956 1.26756 -138.953 -0.0064508 -139.2)
(-135.607 0.483091 2.70157 -138.893 -0.0897739 -139.797)
(-135.837 0.524793 2.88584 -138.855 -0.105603 -140.04)
(-135.9 0.551156 2.57161 -138.826 -0.0970624 -139.867)
(-135.868 0.567201 2.06998 -138.807 -0.080083 -139.441)
(-135.806 0.576821 1.50599 -138.795 -0.05937 -138.952)
(-135.75 0.58229 0.913962 -138.789 -0.0366001 -138.542)
(-135.72 0.584735 0.306346 -138.787 -0.0124189 -138.313)
(-129.255 0.269851 0.43546 -133.876 0.118418 -136.216)
(-129.271 0.31512 1.52052 -133.664 0.0161562 -136.593)
(-129.091 0.346907 1.56616 -133.518 -0.0128718 -135.032)
(-129.008 0.372086 1.38039 -133.405 -0.0206517 -133.45)
(-128.87 0.387322 1.09617 -133.323 -0.0207047 -132.019)
(-128.749 0.396817 0.791657 -133.266 -0.0170878 -130.918)
(-128.66 0.402269 0.477879 -133.229 -0.0113106 -130.168)
(-128.614 0.404806 0.159662 -133.212 -0.00402426 -129.788)
)
;
    }
    symmetry
    {
        type            symmetryPlane;
    }
    bottom
    {
        type            calculated;
        value           nonuniform List<symmTensor> 
32
(
(101.887 105.752 6.3346 145.724 114.183 102.859)
(76.558 107.953 3.61958 106.429 62.8242 72.4448)
(79.1256 111.129 2.22032 109.817 37.4955 73.2942)
(82.2016 113.257 1.40998 114.157 23.4091 75.6713)
(84.2612 114.639 0.908125 117.068 14.9147 77.3993)
(85.5805 115.546 0.569404 118.927 9.286 78.5412)
(86.3705 116.108 0.31522 120.036 5.11833 79.2337)
(86.7434 116.378 0.101143 120.559 1.63885 79.5624)
(-43.7705 50.5781 1.54338 -67.4166 52.7686 -43.6395)
(-65.172 58.2204 1.06662 -99.7652 31.1914 -66.5915)
(-67.0535 60.5052 0.713885 -102.774 20.0588 -68.9702)
(-67.4316 61.4427 0.48462 -103.431 13.4049 -69.5472)
(-67.5948 61.9769 0.328975 -103.729 9.01994 -69.8073)
(-67.6957 62.3411 0.214268 -103.917 5.84001 -69.9629)
(-67.759 62.5837 0.121508 -104.036 3.29875 -70.0579)
(-67.7899 62.7065 0.0394389 -104.095 1.06857 -70.1036)
(-117.367 34.4199 0.115007 -174.211 5.48425 -118.071)
(-134.63 44.9056 0.117758 -199.936 4.24859 -135.864)
(-139.23 48.0252 0.130048 -206.831 4.37184 -140.647)
(-141.393 49.2175 0.126182 -210.053 4.1323 -142.885)
(-142.679 49.8524 0.108134 -211.962 3.49275 -144.215)
(-143.487 50.2672 0.0814651 -213.164 2.60803 -145.053)
(-143.972 50.5375 0.0502492 -213.886 1.59948 -145.558)
(-144.201 50.6731 0.0169467 -214.229 0.537894 -145.798)
(-241.454 43.8915 -1.30767 -351.811 -44.573 -241.414)
(-255.854 56.3949 -0.855867 -373.141 -22.443 -257.664)
(-265.423 61.7586 -0.443599 -387.074 -10.541 -267.946)
(-271.198 64.2847 -0.198003 -395.404 -4.49933 -274.013)
(-274.775 65.7121 -0.0732431 -400.545 -1.62355 -277.737)
(-277.039 66.6037 -0.0180739 -403.797 -0.394558 -280.09)
(-278.399 67.148 0.000474072 -405.751 0.0102541 -281.503)
(-279.042 67.409 0.00182244 -406.676 0.039246 -282.172)
)
;
    }
}


// ************************************************************************* //
