/*--------------------------------*- C++ -*----------------------------------*\
| =========                 |                                                 |
| \\      /  F ield         | foam-extend: Open Source CFD                    |
|  \\    /   O peration     | Version:     3.1                                |
|   \\  /    A nd           | Web:         http://www.extend-project.de       |
|    \\/     M anipulation  |                                                 |
\*---------------------------------------------------------------------------*/
FoamFile
{
    version     2.0;
    format      ascii;
    class       volVectorField;
    location    "0.4";
    object      U;
}
// * * * * * * * * * * * * * * * * * * * * * * * * * * * * * * * * * * * * * //

dimensions      [0 1 -1 0 0 0 0];

internalField   nonuniform List<vector> 
256
(
(0.00127987 0.000456385 0.00146796)
(0.000602406 -4.53458e-05 0.00059018)
(0.000472547 -0.00034267 -0.00020622)
(0.000839725 -0.000870946 -0.00113614)
(0.00461752 0.00227036 0.00169111)
(0.00386436 0.000329441 0.00099604)
(0.00367324 -0.00119601 2.67881e-05)
(0.00401239 -0.00315626 -0.000740166)
(0.0086228 0.0033534 0.00181386)
(0.00791147 0.000531272 0.00113616)
(0.00768866 -0.00195435 0.000341976)
(0.00793303 -0.00482919 -0.000355512)
(0.0131558 0.00406789 0.0017622)
(0.0125596 0.000583678 0.00122914)
(0.0123226 -0.00261994 0.000618877)
(0.0124234 -0.00615427 8.16571e-05)
(0.0179528 0.00440051 0.00167533)
(0.0174528 0.000501258 0.00128583)
(0.0172061 -0.00317681 0.000853681)
(0.0171919 -0.007115 0.000466739)
(0.02279 0.00445732 0.00160097)
(0.0223685 0.000328152 0.00133228)
(0.0221141 -0.00363539 0.00104249)
(0.0220101 -0.00779013 0.000776927)
(0.0275102 0.00432467 0.00156927)
(0.0271445 9.89123e-05 0.00138231)
(0.0268853 -0.00400899 0.00119356)
(0.0267201 -0.00825079 0.00100828)
(0.0320357 0.00409094 0.00158966)
(0.0316906 -0.000157552 0.00144176)
(0.0314298 -0.00431872 0.00132366)
(0.0312434 -0.0085794 0.00117578)
(0.00137997 0.000411773 0.000803838)
(0.000762568 -9.10942e-05 0.000343309)
(0.000661724 -0.000374483 -0.000119083)
(0.00103765 -0.000885813 -0.00062752)
(0.00502179 0.00210295 0.00114596)
(0.00415992 0.00018258 0.000681839)
(0.00396713 -0.00130367 6.25007e-05)
(0.00440097 -0.00324667 -0.000442)
(0.0090375 0.00323411 0.00134532)
(0.00831317 0.000390413 0.000869097)
(0.00808627 -0.00210819 0.000307927)
(0.00833176 -0.00500056 -0.00018525)
(0.0135411 0.00395997 0.00140269)
(0.0129352 0.00045117 0.000993884)
(0.012692 -0.00277671 0.000534735)
(0.0127865 -0.00633432 0.000122519)
(0.0182745 0.0043086 0.00140416)
(0.017775 0.000383091 0.00107961)
(0.0175219 -0.00332495 0.000729303)
(0.0174936 -0.00728871 0.000406527)
(0.0230486 0.0043736 0.00139705)
(0.022631 0.000220803 0.00114708)
(0.022372 -0.00377109 0.000888661)
(0.0222548 -0.00794977 0.000641472)
(0.0277219 0.00424605 0.00140764)
(0.0273616 -1.43571e-06 0.00121054)
(0.0271002 -0.00413537 0.00101891)
(0.0269258 -0.00839983 0.000823654)
(0.0322284 0.00401786 0.00144581)
(0.0318875 -0.000252448 0.00127862)
(0.0316264 -0.00444171 0.00113205)
(0.0314364 -0.00872561 0.000965396)
(0.00143967 0.000432322 0.000465916)
(0.000806039 -9.24905e-05 0.000212185)
(0.000715338 -0.000389406 -5.94836e-05)
(0.00112993 -0.000923389 -0.000346969)
(0.005233 0.00204108 0.00076933)
(0.00431175 0.000117622 0.000470175)
(0.00412262 -0.0013512 8.28115e-05)
(0.00462277 -0.00329927 -0.00023906)
(0.00931518 0.00313705 0.000974558)
(0.00854572 0.000297036 0.000649802)
(0.00831608 -0.00218858 0.00027004)
(0.00860047 -0.00507597 -6.71282e-05)
(0.0138309 0.00384366 0.00108336)
(0.0131988 0.00034447 0.00078202)
(0.0129512 -0.00287221 0.000449382)
(0.0130634 -0.00641956 0.000144931)
(0.0185509 0.0041908 0.00114184)
(0.0180378 0.000274172 0.000880938)
(0.0177807 -0.00342712 0.000606262)
(0.0177583 -0.00738215 0.000346325)
(0.0233016 0.00426327 0.00118147)
(0.0228797 0.000114897 0.000960037)
(0.022618 -0.00387603 0.000737739)
(0.0225003 -0.00805127 0.00051834)
(0.0279558 0.00414907 0.00122227)
(0.0275971 -0.000102074 0.00103042)
(0.0273346 -0.00424243 0.000847764)
(0.0271571 -0.00851201 0.000657412)
(0.0324575 0.00393707 0.00127233)
(0.0321222 -0.000346955 0.00109967)
(0.0318614 -0.00455137 0.000944693)
(0.0316669 -0.00885072 0.000772568)
(0.00147172 0.000447067 0.00028051)
(0.00082008 -9.19075e-05 0.000135992)
(0.000733217 -0.000397471 -2.52479e-05)
(0.00117459 -0.000948483 -0.000191532)
(0.00535116 0.0020197 0.000519501)
(0.00439542 8.58833e-05 0.000328135)
(0.00420982 -0.00137743 8.48261e-05)
(0.00475138 -0.00333681 -0.000119616)
(0.0094913 0.00307893 0.000698442)
(0.00869181 0.00023886 0.000479854)
(0.00846199 -0.00223672 0.000225842)
(0.00877606 -0.00512314 -1.34002e-06)
(0.0140382 0.00376015 0.000816982)
(0.0133855 0.000268267 0.000600695)
(0.0131361 -0.00293616 0.000364038)
(0.0132655 -0.00647614 0.000144666)
(0.0187704 0.00409591 0.000898447)
(0.0182455 0.000188451 0.000696829)
(0.0179863 -0.00350189 0.000487368)
(0.017972 -0.00744853 0.000285759)
(0.0235225 0.00416827 0.00096032)
(0.0230959 2.6248e-05 0.000775722)
(0.0228328 -0.00395841 0.000592895)
(0.0227172 -0.00812867 0.000409472)
(0.028176 0.00406194 0.0010153)
(0.0278177 -0.000189379 0.000844478)
(0.0275546 -0.00433052 0.000682966)
(0.0273758 -0.00860181 0.000513269)
(0.0326821 0.0038617 0.0010684)
(0.0323505 -0.000430569 0.000908227)
(0.0320897 -0.00464386 0.00076307)
(0.031892 -0.00895286 0.0006035)
(0.00149008 0.00045581 0.000172366)
(0.00082603 -9.15608e-05 8.82805e-05)
(0.000741046 -0.000402449 -7.74372e-06)
(0.00119939 -0.000964312 -0.000105298)
(0.0054223 0.00201312 0.000348553)
(0.00444541 6.91098e-05 0.000227045)
(0.00426236 -0.00139419 7.45459e-05)
(0.00482988 -0.00336522 -5.46172e-05)
(0.00960587 0.00304869 0.000490208)
(0.00878788 0.000203447 0.000345156)
(0.00855882 -0.00226876 0.000177698)
(0.00889269 -0.00516002 2.69105e-05)
(0.0141849 0.00370895 0.000595537)
(0.0135187 0.000217051 0.000444467)
(0.0132688 -0.0029814 0.000280239)
(0.0134108 -0.00652128 0.000126509)
(0.0189378 0.00403151 0.000676032)
(0.0184045 0.000126567 0.000526955)
(0.0181446 -0.00355759 0.000373274)
(0.0181368 -0.00750221 0.000223681)
(0.0237023 0.00409922 0.000740494)
(0.0232718 -4.10866e-05 0.000596202)
(0.0230079 -0.00402207 0.000454239)
(0.0228947 -0.00819152 0.000310516)
(0.0283641 0.00399518 0.0007958)
(0.0280052 -0.000258032 0.000656115)
(0.0277417 -0.00440007 0.000524338)
(0.0275624 -0.00867422 0.000385484)
(0.0328784 0.00380132 0.000844069)
(0.0325485 -0.00049793 0.000709447)
(0.0322875 -0.00471767 0.000586926)
(0.0320875 -0.00903444 0.000452951)
(0.00150126 0.000461004 0.000104081)
(0.000829418 -9.14464e-05 5.56548e-05)
(0.000745534 -0.000405621 -2.42589e-07)
(0.00121444 -0.000974301 -5.66459e-05)
(0.00546671 0.0020123 0.000224053)
(0.0044769 5.99275e-05 0.000149562)
(0.00429558 -0.00140547 5.69983e-05)
(0.00487923 -0.0033863 -2.19156e-05)
(0.00968086 0.00303428 0.00032537)
(0.00885163 0.000182305 0.000233257)
(0.00862343 -0.00229067 0.000127597)
(0.00896994 -0.0051888 3.18369e-05)
(0.0142862 0.00368028 0.000405862)
(0.0136115 0.000184332 0.000306175)
(0.0133618 -0.00301322 0.000198394)
(0.0135121 -0.0065571 9.67143e-05)
(0.0190591 0.00399204 0.000470961)
(0.0185204 8.49443e-05 0.000368504)
(0.0182601 -0.00359778 0.000263417)
(0.018257 -0.00754474 0.000160342)
(0.0238379 0.00405414 0.000524716)
(0.0234047 -8.81586e-05 0.000421704)
(0.0231404 -0.00406881 0.000320713)
(0.0230288 -0.00824065 0.000217941)
(0.0285102 0.00394944 0.000570341)
(0.0281506 -0.000307385 0.000467624)
(0.0278865 -0.00445161 0.000370787)
(0.0277069 -0.00872983 0.000268668)
(0.0330335 0.0037583 0.000608092)
(0.0327037 -0.000547371 0.000507365)
(0.0324422 -0.00477265 0.00041553)
(0.0322407 -0.00909613 0.000315408)
(0.00150792 0.000463962 5.61465e-05)
(0.00083156 -9.14369e-05 3.09079e-05)
(0.000748334 -0.000407536 1.67824e-06)
(0.00122344 -0.00098025 -2.77633e-05)
(0.00549334 0.00201326 0.000125718)
(0.0044961 5.50307e-05 8.53152e-05)
(0.00431586 -0.00141264 3.54719e-05)
(0.00490893 -0.00340038 -7.23663e-06)
(0.009727 0.0030281 0.000186321)
(0.00889132 0.000170412 0.000135125)
(0.00866378 -0.00230464 7.67092e-05)
(0.00901776 -0.00520874 2.34854e-05)
(0.0143504 0.00366564 0.000236295)
(0.0136708 0.000165105 0.000179461)
(0.0134213 -0.00303374 0.00011827)
(0.0135767 -0.00658221 6.02194e-05)
(0.0191382 0.00397021 0.000277972)
(0.0185964 5.96283e-05 0.000218025)
(0.018336 -0.00362399 0.000156747)
(0.0183356 -0.00757446 9.6346e-05)
(0.0239285 0.00402788 0.000312993)
(0.0234936 -0.000117561 0.000251291)
(0.023229 -0.00409952 0.000190923)
(0.0231184 -0.00827461 0.000129313)
(0.0286096 0.00392174 0.000342612)
(0.0282493 -0.000338835 0.000279983)
(0.0279848 -0.00448562 0.000220957)
(0.0278048 -0.0087677 0.000158703)
(0.03314 0.00373143 0.000366408)
(0.0328099 -0.00057938 0.000304372)
(0.0325478 -0.00480903 0.000247775)
(0.0323453 -0.00913766 0.000186174)
(0.00151107 0.000465318 1.7782e-05)
(0.00083264 -9.14499e-05 9.93124e-06)
(0.000749729 -0.000408443 8.35604e-07)
(0.0012277 -0.000983045 -8.32671e-06)
(0.00550595 0.00201413 4.05715e-05)
(0.00450532 5.28902e-05 2.77589e-05)
(0.00432561 -0.00141616 1.20143e-05)
(0.00492303 -0.00340745 -1.51454e-06)
(0.00974912 0.00302594 6.07222e-05)
(0.00891051 0.000165056 4.42839e-05)
(0.00868331 -0.00231148 2.55835e-05)
(0.00904076 -0.00521894 8.49422e-06)
(0.0143817 0.00365959 7.76221e-05)
(0.0136999 0.00015623 5.91418e-05)
(0.0134505 -0.00304384 3.92906e-05)
(0.0136082 -0.00659514 2.04023e-05)
(0.0191773 0.00396064 9.19111e-05)
(0.018634 4.7711e-05 7.21726e-05)
(0.0183736 -0.00363695 5.20299e-05)
(0.0183745 -0.00758975 3.21281e-05)
(0.0239739 0.00401594 0.000104014)
(0.0235381 -0.000131619 8.34702e-05)
(0.0232733 -0.00411474 6.33897e-05)
(0.0231632 -0.00829196 4.28693e-05)
(0.0286598 0.00390882 0.000114238)
(0.0282991 -0.000354055 9.3212e-05)
(0.0280343 -0.0045025 7.33975e-05)
(0.0278542 -0.00878688 5.24998e-05)
(0.033194 0.00371863 0.000122344)
(0.0328637 -0.000595028 0.00010142)
(0.0326012 -0.00482712 8.23276e-05)
(0.0323982 -0.00915855 6.15626e-05)
)
;

boundaryField
{
    interface
    {
        type            calculated;
        value           nonuniform List<vector> 
192
(
(0.00264543 0.00222432 0.00154239)
(0.00515969 0.00387005 0.00188542)
(0.00921549 0.00540411 0.00202348)
(0.0135926 0.00630576 0.00194072)
(0.0182894 0.00674615 0.00181719)
(0.0230397 0.00680671 0.00170768)
(0.0277051 0.00662028 0.00165271)
(0.032216 0.00631771 0.00166463)
(0.00273018 0.00232509 0.000850979)
(0.0056658 0.00376018 0.0012834)
(0.00962716 0.00526716 0.00151366)
(0.0139855 0.00617348 0.00156312)
(0.0186095 0.00662242 0.00154779)
(0.0232971 0.00669789 0.00152062)
(0.0279163 0.0065278 0.0015167)
(0.0324092 0.00624514 0.00155058)
(0.00284742 0.00243114 0.000493211)
(0.00590885 0.00374887 0.000850682)
(0.00992704 0.00517575 0.00108549)
(0.014287 0.0060511 0.00120575)
(0.0188883 0.00649063 0.00126342)
(0.0235474 0.00657484 0.00129756)
(0.0281447 0.00642389 0.00133357)
(0.0326294 0.00616724 0.00138349)
(0.00292202 0.00249624 0.000296195)
(0.00605134 0.00375915 0.000568882)
(0.0101237 0.00513554 0.000771004)
(0.0145074 0.00597306 0.000905099)
(0.0191136 0.00639479 0.0009943)
(0.023769 0.00647719 0.00105933)
(0.0283622 0.00633592 0.00111605)
(0.0328482 0.00609587 0.00117216)
(0.00296759 0.0025353 0.000181563)
(0.00613914 0.00377375 0.000379145)
(0.0102527 0.0051221 0.000537746)
(0.0146639 0.00593208 0.000657189)
(0.0192862 0.00633588 0.000747524)
(0.0239501 0.00641122 0.000818473)
(0.0285489 0.00627202 0.000878405)
(0.0330412 0.00604012 0.000931018)
(0.00299569 0.00255897 0.000109496)
(0.00619428 0.003787 0.000242837)
(0.0103372 0.00512072 0.000355673)
(0.0147717 0.00591337 0.000446833)
(0.0194112 0.00630347 0.00052043)
(0.0240869 0.00637116 0.000580576)
(0.0286945 0.00623042 0.000631068)
(0.0331946 0.00600153 0.000673001)
(0.00301225 0.00257274 5.90444e-05)
(0.00622723 0.00379665 0.000136035)
(0.010389 0.00512326 0.000203331)
(0.0148398 0.00590613 0.000259847)
(0.0194926 0.00628746 0.000307073)
(0.0241783 0.00634936 0.000346511)
(0.0287937 0.00620635 0.000379603)
(0.0333004 0.00597812 0.000406324)
(0.00301998 0.00257913 1.86996e-05)
(0.00624273 0.00380169 4.3876e-05)
(0.0104137 0.00512544 6.62232e-05)
(0.0148729 0.00590395 8.53207e-05)
(0.0195327 0.00628109 0.000101522)
(0.0242241 0.00633995 0.000115183)
(0.0288438 0.00619551 0.000126648)
(0.0333542 0.0059672 0.000135796)
(0.00116224 0.00133733 0.00230842)
(0.00433998 0.00227361 0.00183711)
(0.00838061 0.00339251 0.00205798)
(0.012949 0.00403009 0.00192672)
(0.0178029 0.00436147 0.00180739)
(0.0226875 0.00442977 0.00170144)
(0.0274393 0.00432113 0.00165066)
(0.0319795 0.0041102 0.00166055)
(0.000365909 0.000448987 0.000900447)
(0.00341434 0.000416197 0.00110152)
(0.00754929 0.000621578 0.00125171)
(0.0122758 0.000632963 0.00132696)
(0.0172568 0.000537104 0.00137764)
(0.0222427 0.000358436 0.00141874)
(0.0270683 0.000131539 0.00146622)
(0.0316448 -0.000118438 0.00151893)
(0.000223386 -0.000382025 -0.000233346)
(0.00321462 -0.000998557 6.13196e-05)
(0.00732178 -0.00178963 0.000375683)
(0.0120422 -0.002468 0.000669922)
(0.0170143 -0.00305436 0.000917275)
(0.0219919 -0.00353874 0.0011178)
(0.0268113 -0.00393193 0.00127797)
(0.0313851 -0.00425219 0.00141895)
(0.000684656 -0.00137845 -0.00164878)
(0.00373267 -0.00288673 -0.000773627)
(0.00769043 -0.00460994 -0.00044782)
(0.0122308 -0.00591832 6.44761e-05)
(0.0170567 -0.00692057 0.000490044)
(0.0219197 -0.0076384 0.000837608)
(0.0266569 -0.00813901 0.0010944)
(0.0311915 -0.00849257 0.00127643)
(0.00177291 -0.00250334 -0.00122134)
(0.00434795 -0.00482589 -0.000941204)
(0.00823066 -0.0069469 -0.000565908)
(0.0125632 -0.00845001 -9.25938e-05)
(0.0172275 -0.00949455 0.000331985)
(0.0219667 -0.0101557 0.000676808)
(0.0266315 -0.0105528 0.000929287)
(0.0311483 -0.0108113 0.00110299)
(0.00199986 -0.00270196 -0.000689758)
(0.00480488 -0.00496572 -0.000588438)
(0.00862467 -0.00709876 -0.000347703)
(0.0129277 -0.00860403 -2.94608e-05)
(0.0175255 -0.00963807 0.000271685)
(0.0222092 -0.0102937 0.000524193)
(0.0268372 -0.0106922 0.000717292)
(0.0313436 -0.010961 0.00086003)
(0.0021479 -0.00286171 -0.000383006)
(0.00505411 -0.0050562 -0.00032852)
(0.00891449 -0.00717937 -0.00017857)
(0.0132141 -0.00868322 2.69489e-05)
(0.0177913 -0.00971971 0.000230274)
(0.0224512 -0.0103855 0.000406546)
(0.0270629 -0.0108006 0.000548102)
(0.0315657 -0.0110909 0.00066102)
(0.00223167 -0.00295963 -0.000212631)
(0.00520471 -0.00512364 -0.000175077)
(0.00910926 -0.00724265 -7.65305e-05)
(0.0134274 -0.0087452 5.7629e-05)
(0.0180093 -0.00978653 0.000192608)
(0.0226678 -0.0104623 0.000313063)
(0.0272785 -0.0108916 0.000414103)
(0.0317852 -0.0111983 0.000500044)
(0.00228137 -0.00301995 -0.000118083)
(0.00529839 -0.00517419 -8.96998e-05)
(0.00923937 -0.00729567 -2.35995e-05)
(0.0135812 -0.00880025 6.42596e-05)
(0.018178 -0.00984621 0.000153102)
(0.0228456 -0.0105292 0.000233972)
(0.027463 -0.0109679 0.000304205)
(0.0319768 -0.0112852 0.000366916)
(0.00231194 -0.00305757 -6.44162e-05)
(0.00535752 -0.00521064 -4.383e-05)
(0.00932535 -0.00733748 -9.33458e-07)
(0.0136881 -0.00884578 5.4704e-05)
(0.0183009 -0.00989583 0.000110969)
(0.02298 -0.0105836 0.000162838)
(0.0276063 -0.0110279 0.000208996)
(0.0321277 -0.0113515 0.000251602)
(0.00233003 -0.0030799 -3.20157e-05)
(0.00539298 -0.00523441 -1.94135e-05)
(0.00937833 -0.0073663 4.88616e-06)
(0.013756 -0.00887813 3.58429e-05)
(0.0183811 -0.00993127 6.7115e-05)
(0.0230698 -0.010622 9.61624e-05)
(0.0277035 -0.0110693 0.000122406)
(0.032231 -0.0113965 0.00014712)
(0.0023385 -0.00309039 -9.68763e-06)
(0.00540972 -0.00524618 -5.43704e-06)
(0.0094037 -0.00738098 2.44765e-06)
(0.013789 -0.00889486 1.24001e-05)
(0.0184207 -0.00994965 2.24464e-05)
(0.0231147 -0.0106417 3.18111e-05)
(0.0277525 -0.0110905 4.03332e-05)
(0.0322833 -0.0114192 4.84327e-05)
(0.0342272 0.00396836 0.00161474)
(0.034428 0.00389784 0.00147655)
(0.0346642 0.00382621 0.00130159)
(0.0348949 0.00375723 0.00109362)
(0.0350965 0.00370079 0.000863084)
(0.035256 0.00365959 0.000620806)
(0.0353658 0.00363339 0.000373534)
(0.0354216 0.00362075 0.000124623)
(0.0338145 -0.000274885 0.00148229)
(0.0340272 -0.000367591 0.00131958)
(0.0342724 -0.000459076 0.00113693)
(0.034508 -0.000540413 0.000939596)
(0.0347113 -0.000606596 0.000733583)
(0.0348707 -0.000655733 0.000524128)
(0.0349798 -0.000687841 0.000314144)
(0.0350351 -0.000703636 0.000104622)
(0.0335536 -0.00446655 0.00138423)
(0.0337662 -0.00458845 0.00118552)
(0.0340119 -0.00469881 0.000990898)
(0.0342478 -0.00479283 0.000800686)
(0.034451 -0.00486841 0.000615885)
(0.0346098 -0.00492492 0.000435961)
(0.0347183 -0.00496242 0.000259909)
(0.0347732 -0.00498109 8.63477e-05)
(0.0334356 -0.00872729 0.00125157)
(0.0336379 -0.00887215 0.00102969)
(0.0338764 -0.00900391 0.000827306)
(0.0341084 -0.00911143 0.000647488)
(0.0343094 -0.00919736 0.000486996)
(0.0344672 -0.009262 0.000339721)
(0.034575 -0.00930536 0.000200791)
(0.0346296 -0.00932712 6.64393e-05)
)
;
    }
    symmetry
    {
        type            symmetryPlane;
    }
    bottom
    {
        type            calculated;
        value           uniform (0 0 0);
    }
}


// ************************************************************************* //
