/*--------------------------------*- C++ -*----------------------------------*\
| =========                 |                                                 |
| \\      /  F ield         | foam-extend: Open Source CFD                    |
|  \\    /   O peration     | Version:     3.1                                |
|   \\  /    A nd           | Web:         http://www.extend-project.de       |
|    \\/     M anipulation  |                                                 |
\*---------------------------------------------------------------------------*/
FoamFile
{
    version     2.0;
    format      ascii;
    class       volScalarField;
    location    "3.7";
    object      p;
}
// * * * * * * * * * * * * * * * * * * * * * * * * * * * * * * * * * * * * * //

dimensions      [0 2 -2 0 0 0 0];

internalField   nonuniform List<scalar> 
14592
(
0.0241947
0.0240051
0.0238185
0.0236503
0.0235063
0.0233906
0.0233068
0.0232566
0.0232388
0.0232453
0.0232564
0.0232339
0.0231077
0.0227505
0.0219714
0.0208492
0.0242148
0.0240073
0.0238212
0.0236589
0.0235205
0.0234091
0.0233283
0.02328
0.023263
0.0232698
0.0232816
0.0232605
0.0231387
0.0227863
0.0219431
0.0205192
0.0242067
0.0239838
0.0237931
0.0236314
0.0234935
0.0233816
0.0232997
0.023251
0.0232364
0.0232514
0.0232816
0.0232939
0.0232232
0.0229327
0.0220645
0.0202853
0.0241702
0.0239339
0.0237346
0.023568
0.0234254
0.0233081
0.0232206
0.023168
0.0231545
0.0231804
0.0232384
0.0233037
0.0233198
0.023153
0.0223686
0.0203603
0.024105
0.0238577
0.0236486
0.0234738
0.023323
0.0231964
0.023099
0.0230373
0.023019
0.02305
0.023132
0.0232521
0.0233699
0.023373
0.0227899
0.0206951
0.0240126
0.0237563
0.0235373
0.0233522
0.0231899
0.0230498
0.0229367
0.0228579
0.0228233
0.0228428
0.0229271
0.0230758
0.0232734
0.0234439
0.0231433
0.021102
0.023897
0.0236335
0.0234054
0.0232086
0.0230319
0.0228737
0.0227381
0.0226316
0.0225644
0.0225467
0.0225934
0.022709
0.0229067
0.0231475
0.0231581
0.021202
0.0237652
0.0234967
0.0232604
0.0230513
0.022858
0.0226777
0.0225131
0.0223688
0.0222525
0.0221701
0.0221326
0.0221282
0.0221796
0.0221803
0.0223309
0.0195269
0.0244297
0.0242313
0.0240439
0.0238844
0.0237594
0.0236739
0.0236332
0.0236417
0.0237017
0.0238108
0.0239579
0.0241181
0.0242446
0.02425
0.02404
0.0237958
0.0244528
0.0242348
0.0240466
0.0238932
0.0237741
0.0236935
0.0236563
0.0236672
0.0237285
0.0238382
0.0239856
0.0241462
0.0242756
0.0242838
0.0240693
0.0239006
0.0244466
0.0242126
0.0240194
0.0238668
0.023749
0.0236689
0.0236323
0.0236449
0.0237116
0.0238341
0.0240075
0.0242141
0.0244136
0.0245188
0.0243814
0.0243141
0.0244093
0.024162
0.0239598
0.0238024
0.0236806
0.0235964
0.0235562
0.023568
0.0236407
0.0237823
0.0239973
0.02428
0.0246065
0.0248844
0.0249126
0.0249966
0.02434
0.0240815
0.0238691
0.0237031
0.0235732
0.0234801
0.0234313
0.0234366
0.0235093
0.0236642
0.0239177
0.0242798
0.0247473
0.0252513
0.025517
0.025786
0.0242395
0.0239718
0.0237488
0.0235717
0.0234293
0.023322
0.023257
0.0232453
0.0233029
0.0234498
0.0237131
0.0241189
0.0246921
0.0254033
0.0259292
0.0263861
0.0241126
0.0238374
0.0236042
0.0234137
0.0232549
0.0231269
0.0230364
0.0229935
0.0230142
0.0231184
0.0233372
0.0237027
0.0242668
0.0250476
0.0257526
0.0261118
0.0239668
0.023686
0.0234435
0.0232385
0.0230599
0.0229057
0.0227807
0.0226925
0.0226536
0.0226774
0.0227878
0.0229948
0.0233477
0.0237999
0.0243577
0.0227174
0.0246561
0.0244507
0.0242642
0.0241149
0.02401
0.0239554
0.0239581
0.0240245
0.0241602
0.0243667
0.0246387
0.0249586
0.0252901
0.0255628
0.0256937
0.0257178
0.0246821
0.0244559
0.0242674
0.0241243
0.0240256
0.0239764
0.0239833
0.0240526
0.02419
0.0243972
0.024669
0.0249883
0.0253205
0.0255965
0.0257526
0.0258927
0.024678
0.0244353
0.0242415
0.0240995
0.0240029
0.0239555
0.0239645
0.0240378
0.0241837
0.024408
0.0247117
0.0250847
0.0254991
0.0258859
0.0261674
0.0264864
0.0246403
0.0243843
0.0241813
0.0240347
0.0239349
0.0238845
0.023892
0.0239678
0.0241245
0.0243755
0.0247323
0.0251978
0.0257578
0.0263375
0.026823
0.0273637
0.0245671
0.0242999
0.0240863
0.023931
0.023823
0.0237644
0.0237646
0.0238364
0.0239976
0.0242694
0.0246767
0.0252394
0.025964
0.0267852
0.0275194
0.0282844
0.0244591
0.0241825
0.0239577
0.0237902
0.023669
0.0235952
0.0235787
0.0236337
0.0237812
0.0240481
0.0244714
0.0250872
0.0259296
0.0269574
0.027923
0.0288638
0.0243212
0.0240369
0.0238009
0.0236185
0.0234787
0.0233818
0.0233368
0.0233572
0.0234637
0.0236829
0.0240557
0.0246235
0.0254449
0.0265124
0.0275489
0.0282416
0.024162
0.0238715
0.023625
0.0234259
0.0232633
0.023136
0.0230511
0.0230189
0.0230559
0.0231806
0.0234244
0.0238028
0.0243662
0.0250338
0.0257295
0.0239145
0.0248637
0.0246529
0.0244684
0.0243297
0.0242443
0.0242191
0.0242623
0.0243821
0.024586
0.0248782
0.0252561
0.025705
0.0261907
0.0266456
0.026974
0.0270935
0.0248925
0.0246599
0.0244723
0.0243398
0.024261
0.0242417
0.0242896
0.0244128
0.0246187
0.0249115
0.0252886
0.0257361
0.0262207
0.0266788
0.027039
0.0272693
0.0248904
0.024641
0.0244478
0.0243169
0.024241
0.0242246
0.0242762
0.0244055
0.0246225
0.024936
0.0253496
0.0258544
0.0264256
0.0269965
0.0274929
0.0279093
0.0248524
0.0245898
0.0243874
0.0242521
0.0241737
0.0241555
0.0242075
0.0243421
0.0245743
0.0249205
0.0253953
0.0260032
0.0267277
0.0274936
0.0281985
0.0288437
0.0247758
0.0245021
0.0242888
0.0241445
0.024058
0.0240321
0.024078
0.0242109
0.0244514
0.0248244
0.0253584
0.026074
0.0269742
0.0279818
0.0289249
0.0297892
0.024661
0.0243778
0.0241527
0.0239954
0.0238949
0.023853
0.0238817
0.0239979
0.0242257
0.0245962
0.02515
0.0259238
0.0269453
0.0281489
0.0292919
0.0303018
0.0245132
0.0242219
0.0239848
0.0238111
0.0236901
0.0236228
0.0236203
0.0236987
0.023882
0.0242005
0.0246986
0.0254169
0.0264059
0.027622
0.0287631
0.0294307
0.0243415
0.0240435
0.0237947
0.0236024
0.0234557
0.0233543
0.0233069
0.0233262
0.0234314
0.0236436
0.0239963
0.0245023
0.0252011
0.0259693
0.0266632
0.0245444
0.0250429
0.0248285
0.0246462
0.0245172
0.0244493
0.02445
0.0245283
0.0246936
0.0249548
0.0253171
0.0257786
0.0263251
0.0269193
0.027489
0.0279321
0.0280832
0.0250741
0.0248366
0.0246508
0.024528
0.0244671
0.024474
0.0245576
0.0247267
0.02499
0.0253526
0.0258116
0.0263569
0.0269492
0.0275232
0.027992
0.0282509
0.0250738
0.0248195
0.0246277
0.024507
0.0244496
0.0244605
0.0245491
0.0247259
0.0250025
0.0253885
0.0258893
0.0264905
0.0271699
0.027854
0.0284566
0.0288968
0.0250357
0.0247683
0.0245673
0.0244424
0.0243831
0.0243933
0.0244838
0.0246684
0.0249635
0.0253868
0.0259533
0.0266651
0.0274986
0.0283729
0.0291774
0.0298408
0.0249563
0.0246779
0.0244656
0.0243316
0.0242645
0.0242673
0.0243527
0.0245374
0.0248439
0.0252982
0.0259292
0.0267545
0.0277681
0.0288788
0.0299067
0.0307786
0.0248357
0.0245477
0.0243232
0.0241755
0.0240935
0.0240797
0.0241475
0.0243156
0.02461
0.0250634
0.0257165
0.0266022
0.0277368
0.0290324
0.0302356
0.0312289
0.0246794
0.0243829
0.0241456
0.0239803
0.0238762
0.023835
0.0238693
0.0239969
0.0242438
0.0246417
0.0252348
0.0260591
0.0271523
0.0284408
0.029597
0.0301894
0.0244968
0.0241933
0.0239434
0.0237577
0.0236255
0.0235469
0.023532
0.0235952
0.023757
0.0240393
0.0244751
0.0250706
0.0258527
0.0266623
0.027312
0.0249351
0.0251855
0.0249687
0.0247883
0.0246675
0.0246139
0.0246354
0.0247416
0.0249426
0.0252479
0.0256633
0.0261865
0.0268015
0.0274678
0.0281125
0.0286059
0.0287736
0.0252185
0.0249775
0.0247936
0.0246791
0.0246327
0.0246608
0.0247725
0.0249776
0.0252851
0.0257007
0.0262219
0.0268336
0.0274975
0.0281421
0.0286661
0.0289326
0.0252197
0.024962
0.0247719
0.0246596
0.0246174
0.0246502
0.0247681
0.0249823
0.0253045
0.0257448
0.0263067
0.0269753
0.0277272
0.0284777
0.0291312
0.0295734
0.0251816
0.024911
0.0247114
0.0245954
0.0245517
0.0245846
0.0247057
0.0249294
0.0252727
0.0257535
0.0263861
0.0271712
0.0280718
0.029006
0.0298529
0.0305126
0.0251
0.0248184
0.0246075
0.0244822
0.0244307
0.0244566
0.0245733
0.0247985
0.0251553
0.0256702
0.0263707
0.0272703
0.0283535
0.0295184
0.0305779
0.0314363
0.0249749
0.0246835
0.02446
0.0243205
0.0242536
0.0242623
0.0243611
0.0245696
0.0249148
0.0254296
0.0261533
0.0271139
0.028317
0.0296583
0.0308758
0.0318399
0.0248117
0.0245117
0.0242748
0.0241167
0.0240265
0.0240062
0.0240695
0.0242355
0.024531
0.0249875
0.0256481
0.0265428
0.0276984
0.0290201
0.030163
0.0306898
0.0246205
0.0243131
0.0240628
0.0238829
0.0237626
0.0237024
0.0237134
0.0238107
0.0240158
0.0243502
0.024845
0.0255001
0.0263312
0.0271543
0.0277569
0.0251913
0.0252846
0.0250665
0.024888
0.0247732
0.0247297
0.0247659
0.0248916
0.0251174
0.0254529
0.0259039
0.0264678
0.0271265
0.0278374
0.0285217
0.0290418
0.0292137
0.0253189
0.0250761
0.0248941
0.0247858
0.0247499
0.0247931
0.0249249
0.0251551
0.0254931
0.0259444
0.0265065
0.0271614
0.0278693
0.0285535
0.0291042
0.0293684
0.0253212
0.0250618
0.0248733
0.0247676
0.0247363
0.0247849
0.0249236
0.0251638
0.0255177
0.0259949
0.0265978
0.0273096
0.0281053
0.0288923
0.0295681
0.0300041
0.0252829
0.0250107
0.0248128
0.0247033
0.0246711
0.0247203
0.024863
0.025114
0.0254905
0.0260102
0.0266864
0.0275177
0.028459
0.029425
0.0302874
0.030937
0.0251998
0.0249165
0.0247071
0.0245883
0.0245483
0.0245906
0.0247294
0.0249827
0.025374
0.0259296
0.0266755
0.027622
0.0287465
0.0299392
0.0310085
0.0318496
0.0250715
0.0247784
0.024556
0.0244226
0.0243668
0.0243915
0.0245119
0.0247484
0.0251283
0.0256841
0.0264538
0.0274612
0.0287045
0.0300686
0.031285
0.0322231
0.0249036
0.0246016
0.0243654
0.0242127
0.0241326
0.0241272
0.0242109
0.0244034
0.0247319
0.0252276
0.0259319
0.0268705
0.0280621
0.0293993
0.0305253
0.0310045
0.0247064
0.0243968
0.0241466
0.0239711
0.0238595
0.0238124
0.0238415
0.0239625
0.0241971
0.0245662
0.0250994
0.0257916
0.0266506
0.0274769
0.028042
0.025355
0.025334
0.0251149
0.0249368
0.0248246
0.0247859
0.024829
0.0249639
0.0252012
0.0255507
0.0260182
0.0266005
0.0272787
0.0280089
0.0287097
0.0292409
0.0294178
0.0253686
0.0251245
0.0249425
0.0248366
0.0248053
0.0248552
0.0249959
0.0252375
0.0255893
0.0260567
0.0266368
0.027311
0.0280378
0.028739
0.0293017
0.0295695
0.0253714
0.0251109
0.0249222
0.0248187
0.0247922
0.0248477
0.0249956
0.0252475
0.0256154
0.0261088
0.0267296
0.027461
0.0282734
0.0290752
0.029761
0.030199
0.0253333
0.02506
0.0248619
0.0247548
0.0247276
0.024784
0.0249363
0.0251995
0.0255907
0.0261273
0.026822
0.0276713
0.0286301
0.0296078
0.030477
0.031126
0.0252495
0.0249653
0.0247556
0.0246392
0.0246043
0.024654
0.0248026
0.0250686
0.0254753
0.0260486
0.026814
0.0277799
0.0289206
0.0301232
0.0311971
0.0320325
0.0251197
0.0248257
0.0246031
0.0244719
0.0244209
0.0244529
0.0245832
0.0248324
0.0252278
0.0258017
0.026591
0.0276177
0.0288762
0.0302472
0.031463
0.0323922
0.0249495
0.0246465
0.02441
0.0242592
0.0241836
0.024185
0.024278
0.0244826
0.0248259
0.025339
0.0260619
0.0270183
0.0282227
0.0295622
0.0306767
0.0311309
0.0247494
0.0244386
0.0241879
0.0240139
0.0239062
0.0238651
0.0239025
0.0240343
0.0242822
0.0246669
0.0252164
0.0259239
0.0267916
0.0276144
0.0281351
0.0253911
0.0230313
0.0229745
0.0228712
0.0227344
0.0225744
0.0223945
0.0221942
0.0219694
0.0217089
0.021396
0.0210074
0.0205127
0.0198761
0.0190625
0.018042
0.0168184
0.0230396
0.0229839
0.0228838
0.0227498
0.0225922
0.022415
0.0222179
0.0219955
0.0217383
0.02143
0.0210475
0.0205603
0.0199315
0.0191259
0.0181092
0.0168877
0.0230353
0.0229762
0.0228766
0.0227439
0.0225878
0.0224124
0.022218
0.0220006
0.0217509
0.0214534
0.0210849
0.020616
0.0200103
0.0192332
0.018244
0.0170522
0.0230149
0.0229486
0.022845
0.0227095
0.0225509
0.0223736
0.0221783
0.0219619
0.0217161
0.0214262
0.0210707
0.0206211
0.0200412
0.0192971
0.0183429
0.0171923
0.0229787
0.0229041
0.0227938
0.0226521
0.0224871
0.0223034
0.0221024
0.0218817
0.021634
0.0213461
0.0209975
0.0205611
0.0200012
0.0192865
0.0183665
0.0172587
0.0229284
0.0228466
0.0227288
0.0225792
0.0224057
0.0222126
0.022002
0.0217724
0.0215176
0.0212255
0.0208771
0.0204468
0.0199005
0.0192092
0.0183213
0.017256
0.0228671
0.0227796
0.0226552
0.0224978
0.0223151
0.0221117
0.0218899
0.0216488
0.0213832
0.0210822
0.0207285
0.0202983
0.0197594
0.019086
0.0182284
0.0172053
0.0227981
0.0227071
0.0225775
0.0224135
0.0222227
0.0220096
0.0217767
0.0215236
0.0212458
0.0209336
0.0205709
0.0201364
0.0196005
0.0189404
0.0181118
0.0171303
0.0230505
0.0229776
0.0228639
0.0227201
0.0225544
0.0223696
0.0221646
0.0219346
0.0216692
0.0213519
0.0209593
0.02046
0.0198176
0.0189963
0.0179633
0.0167271
0.023057
0.0229823
0.0228716
0.0227302
0.0225661
0.022382
0.0221774
0.0219474
0.0216821
0.0213653
0.0209734
0.020476
0.0198366
0.0190202
0.0179897
0.016759
0.0230517
0.022971
0.0228598
0.0227185
0.0225541
0.0223697
0.022165
0.0219362
0.0216741
0.0213635
0.0209817
0.0204996
0.0198793
0.0190885
0.0180821
0.0168822
0.0230318
0.0229424
0.0228267
0.0226819
0.0225139
0.0223258
0.0221181
0.0218877
0.0216267
0.0213208
0.0209488
0.0204825
0.0198846
0.0191249
0.0181499
0.0169897
0.0229968
0.0228988
0.0227768
0.022626
0.0224516
0.0222565
0.022042
0.0218059
0.0215413
0.0212355
0.0208684
0.0204135
0.0198338
0.019102
0.0181588
0.0170404
0.0229475
0.0228425
0.0227139
0.0225563
0.022374
0.0221701
0.021946
0.0217006
0.0214282
0.0211173
0.0207495
0.0203001
0.0197333
0.019025
0.0181135
0.0170383
0.0228865
0.0227764
0.0226423
0.0224781
0.0222879
0.0220745
0.0218399
0.0215834
0.0213005
0.0209809
0.0206078
0.0201587
0.0196
0.0189107
0.0180312
0.0169999
0.0228172
0.0227042
0.0225661
0.0223964
0.0221991
0.0219772
0.0217325
0.0214649
0.0211706
0.0208406
0.0204597
0.0200074
0.0194533
0.0187791
0.0179318
0.0169443
0.0231137
0.0230207
0.0228922
0.0227377
0.0225642
0.0223738
0.0221655
0.0219342
0.0216695
0.0213544
0.0209635
0.0204626
0.0198091
0.0189578
0.0178631
0.0165315
0.0231207
0.0230239
0.0228992
0.0227477
0.0225761
0.0223864
0.0221778
0.0219458
0.0216803
0.0213646
0.0209739
0.0204746
0.0198233
0.0189776
0.0178862
0.0165654
0.0231135
0.0230092
0.0228836
0.0227319
0.0225592
0.0223678
0.0221575
0.0219246
0.0216602
0.0213487
0.0209664
0.020481
0.0198492
0.0190313
0.0179612
0.0166723
0.0230916
0.0229775
0.0228469
0.0226912
0.0225137
0.0223171
0.0221016
0.0218648
0.0215991
0.0212901
0.0209155
0.0204445
0.019833
0.0190447
0.0180024
0.0167542
0.0230549
0.0229316
0.0227946
0.0226328
0.0224485
0.0222438
0.0220198
0.0217751
0.0215034
0.021192
0.0208201
0.0203585
0.0197634
0.0190024
0.0179893
0.0167857
0.0230038
0.0228732
0.02273
0.0225618
0.0223696
0.0221556
0.021921
0.0216654
0.0213838
0.0210652
0.0206904
0.0202327
0.0196493
0.0189123
0.0179318
0.0167773
0.0229404
0.0228049
0.0226567
0.0224825
0.0222828
0.0220593
0.0218137
0.0215461
0.0212525
0.0209235
0.0205418
0.0200832
0.0195075
0.0187914
0.0178474
0.0167462
0.0228684
0.0227302
0.0225785
0.0223994
0.0221931
0.0219613
0.0217056
0.0214264
0.0211208
0.0207803
0.0203896
0.0199271
0.0193564
0.0186583
0.0177544
0.0167085
0.0232192
0.0231058
0.0229623
0.0227976
0.022618
0.0224254
0.0222188
0.0219932
0.021738
0.0214352
0.0210564
0.0205612
0.0198952
0.0189947
0.0177854
0.0162583
0.0232278
0.0231084
0.0229692
0.0228087
0.022632
0.0224408
0.0222345
0.0220086
0.0217531
0.0214502
0.0210724
0.0205801
0.0199187
0.0190271
0.0178222
0.0163092
0.0232185
0.0230903
0.0229501
0.0227896
0.0226116
0.0224181
0.0222093
0.0219815
0.021726
0.0214265
0.0210565
0.0205778
0.0199356
0.0190712
0.0178845
0.0163958
0.0231934
0.0230544
0.0229086
0.0227436
0.0225603
0.0223604
0.0221448
0.0219112
0.0216522
0.0213531
0.0209889
0.0205227
0.0198987
0.019061
0.0178939
0.0164405
0.0231529
0.0230042
0.0228515
0.0226802
0.0224893
0.0222803
0.0220545
0.0218108
0.0215433
0.0212391
0.0208749
0.0204155
0.0198053
0.0189926
0.0178503
0.016445
0.0230975
0.0229411
0.0227821
0.0226041
0.0224051
0.0221859
0.021948
0.0216913
0.0214114
0.021097
0.0207271
0.020269
0.0196687
0.0188805
0.0177722
0.0164292
0.0230294
0.0228677
0.0227035
0.0225196
0.0223127
0.0220836
0.0218335
0.0215629
0.0212686
0.0209409
0.0205611
0.0200995
0.019506
0.0187418
0.0176779
0.0164101
0.0229523
0.0227877
0.0226198
0.022431
0.0222174
0.0219793
0.0217181
0.0214343
0.0211257
0.0207838
0.0203921
0.0199242
0.0193352
0.0185933
0.0175826
0.0163983
0.0233616
0.023229
0.0230718
0.0228993
0.0227173
0.0225275
0.0223292
0.0221178
0.0218827
0.0216046
0.0212518
0.0207756
0.0201041
0.0191432
0.0177714
0.0159296
0.0233722
0.0232308
0.0230777
0.0229103
0.0227319
0.0225444
0.022347
0.0221358
0.0219007
0.0216229
0.0212716
0.0207987
0.0201332
0.0191821
0.017815
0.0159813
0.0233613
0.0232096
0.0230551
0.0228878
0.0227082
0.0225181
0.0223176
0.0221037
0.0218676
0.021592
0.0212472
0.0207861
0.0201365
0.0192047
0.0178417
0.015999
0.0233328
0.0231696
0.0230088
0.0228367
0.0226514
0.0224541
0.0222456
0.0220242
0.0217827
0.0215055
0.0211641
0.020712
0.0200756
0.0191596
0.0178024
0.0159696
0.0232876
0.0231141
0.0229459
0.0227671
0.0225738
0.0223667
0.0221468
0.0219134
0.0216612
0.0213763
0.0210323
0.0205834
0.0199568
0.0190583
0.0177197
0.0159307
0.0232263
0.0230448
0.0228696
0.0226839
0.022482
0.0222639
0.0220307
0.0217825
0.0215153
0.0212173
0.0208645
0.0204137
0.0197953
0.0189199
0.0176196
0.0159122
0.0231514
0.0229642
0.0227834
0.0225911
0.0223809
0.022152
0.0219051
0.0216408
0.0213563
0.0210413
0.0206749
0.020217
0.0196049
0.0187579
0.017516
0.0159267
0.0230669
0.0228765
0.0226916
0.0224938
0.0222759
0.0220368
0.021777
0.021497
0.0211947
0.0208612
0.0204779
0.0200093
0.0194006
0.0185832
0.0174151
0.0159705
0.0235369
0.0233867
0.0232179
0.0230409
0.0228612
0.0226805
0.0224985
0.0223115
0.0221094
0.0218727
0.0215667
0.0211336
0.0204802
0.0194654
0.0178872
0.0155808
0.0235493
0.0233877
0.0232226
0.0230512
0.0228757
0.0226978
0.0225174
0.0223309
0.022129
0.0218925
0.0215875
0.0211565
0.020506
0.0194902
0.0178922
0.0155305
0.0235379
0.0233645
0.0231972
0.0230259
0.0228494
0.022669
0.0224852
0.0222955
0.0220918
0.0218567
0.021557
0.0211349
0.0204921
0.0194703
0.0178285
0.0153401
0.0235065
0.0233208
0.0231465
0.0229703
0.0227879
0.0226001
0.0224078
0.0222097
0.0219997
0.0217618
0.0214645
0.0210486
0.020412
0.0193812
0.0177077
0.0151277
0.0234562
0.0232599
0.0230775
0.0228943
0.0227037
0.0225057
0.0223013
0.0220904
0.0218686
0.0216219
0.0213211
0.0209069
0.0202775
0.0192486
0.0175791
0.014982
0.0233879
0.0231832
0.0229932
0.0228024
0.0226027
0.0223932
0.0221746
0.0219475
0.0217089
0.021447
0.0211357
0.0207179
0.0200979
0.0190875
0.0174654
0.0149408
0.0233044
0.0230938
0.0228973
0.0226992
0.0224902
0.0222685
0.0220347
0.0217891
0.0215299
0.0212467
0.0209174
0.0204881
0.0198758
0.0188987
0.017367
0.0150175
0.0232104
0.0229961
0.0227949
0.02259
0.022372
0.0221382
0.0218887
0.0216238
0.0213417
0.0210331
0.020679
0.0202296
0.0196177
0.0186811
0.0172752
0.0152134
0.0237392
0.0235736
0.0233961
0.0232184
0.0230459
0.022881
0.0227241
0.0225728
0.0224188
0.0222438
0.0220134
0.0216649
0.0210857
0.0200798
0.018298
0.0153498
0.0237538
0.0235745
0.0233997
0.0232278
0.0230601
0.0228985
0.0227437
0.0225933
0.0224394
0.0222645
0.0220345
0.0216864
0.0211046
0.02007
0.0181728
0.0149122
0.0237428
0.0235502
0.0233724
0.0232008
0.0230324
0.0228686
0.0227106
0.0225571
0.0224018
0.0222287
0.0220051
0.0216666
0.0210878
0.0200158
0.0179617
0.01425
0.0237092
0.0235037
0.0233182
0.0231416
0.0229675
0.0227966
0.0226304
0.0224689
0.0223078
0.0221336
0.0219155
0.021588
0.0210182
0.0199183
0.0177599
0.0136725
0.0236537
0.0234374
0.0232431
0.0230591
0.0228768
0.0226958
0.0225177
0.0223436
0.0221714
0.02199
0.0217724
0.0214537
0.0209016
0.0198007
0.017623
0.0133023
0.0235777
0.0233527
0.0231501
0.0229577
0.0227657
0.0225725
0.0223796
0.0221886
0.0219988
0.0218018
0.0215752
0.021257
0.020726
0.01965
0.0175422
0.0131599
0.0234843
0.0232529
0.0230431
0.022842
0.0226394
0.0224325
0.0222223
0.0220101
0.0217961
0.0215731
0.0213232
0.0209881
0.0204683
0.0194308
0.0174814
0.0132649
0.0233788
0.0231435
0.0229278
0.0227186
0.0225047
0.0222831
0.0220536
0.021817
0.0215732
0.0213146
0.0210262
0.0206506
0.0201148
0.0191043
0.0173999
0.0137075
0.0239614
0.0237826
0.0235992
0.0234246
0.0232644
0.0231215
0.022998
0.0228932
0.0228019
0.0227099
0.0225882
0.0223805
0.0219805
0.0211767
0.0195208
0.0162164
0.0239786
0.0237839
0.0236021
0.0234334
0.0232784
0.0231394
0.0230183
0.0229148
0.0228239
0.0227321
0.0226107
0.0224037
0.0220007
0.0211673
0.0193106
0.0152911
0.0239686
0.0237596
0.023574
0.0234057
0.0232505
0.02311
0.0229866
0.0228809
0.02279
0.0227024
0.0225923
0.0224044
0.0220216
0.0211707
0.0190987
0.014236
0.0239334
0.0237111
0.0235172
0.0233439
0.0231834
0.0230365
0.0229059
0.0227939
0.0226998
0.0226159
0.0225205
0.0223611
0.0220174
0.0211859
0.0190073
0.0134579
0.023873
0.0236396
0.0234365
0.0232553
0.0230866
0.0229299
0.0227882
0.022665
0.0225622
0.0224761
0.0223911
0.0222603
0.0219697
0.0211987
0.0190469
0.0130231
0.023789
0.0235466
0.0233343
0.0231439
0.0229646
0.0227951
0.0226382
0.0224978
0.0223777
0.0222774
0.022188
0.02207
0.0218277
0.0211359
0.0191324
0.0128648
0.0236845
0.0234356
0.0232151
0.0230146
0.0228229
0.0226377
0.0224611
0.0222964
0.022148
0.0220162
0.0218969
0.0217548
0.0215232
0.0208817
0.019134
0.0129015
0.0235663
0.0233129
0.0230855
0.0228748
0.0226694
0.022466
0.0222656
0.0220702
0.0218831
0.0217023
0.0215237
0.0213052
0.0210071
0.0202889
0.0188623
0.0130716
0.0236259
0.0233546
0.0231119
0.0228909
0.02268
0.0224752
0.0222775
0.0220888
0.0219129
0.0217484
0.0215961
0.0214131
0.0211806
0.0205423
0.0193185
0.0139546
0.0234889
0.0232175
0.0229708
0.0227393
0.0225114
0.0222824
0.0220512
0.0218174
0.0215809
0.0213343
0.0210667
0.0207206
0.0202342
0.0192892
0.0176444
0.0141863
0.0233636
0.0230952
0.0228472
0.0226079
0.0223655
0.0221149
0.021854
0.0215807
0.0212922
0.0209791
0.0206238
0.0201803
0.0195741
0.0186675
0.0172269
0.0152999
0.0232586
0.022996
0.0227499
0.0225058
0.0222527
0.0219858
0.0217022
0.0213996
0.0210739
0.0207169
0.0203101
0.0198259
0.019196
0.0183913
0.0171924
0.0158168
0.0231786
0.0229254
0.022684
0.0224384
0.0221792
0.0219023
0.0216051
0.0212851
0.0209384
0.0205583
0.0201283
0.0196326
0.0190151
0.0182795
0.0172617
0.0161182
0.0231252
0.0228847
0.0226498
0.0224053
0.0221444
0.0218641
0.0215621
0.0212363
0.0208826
0.020495
0.0200595
0.0195642
0.0189663
0.0182718
0.0173768
0.0163664
0.023094
0.0228705
0.0226427
0.0224007
0.0221416
0.0218633
0.0215641
0.0212418
0.0208926
0.02051
0.0200814
0.0195942
0.0190155
0.0183434
0.0175118
0.0165599
0.0230728
0.0228726
0.0226513
0.0224118
0.0221554
0.021881
0.0215878
0.0212738
0.0209351
0.020565
0.020151
0.0196783
0.0191174
0.0184571
0.0176443
0.0166989
0.0238122
0.023528
0.0232777
0.0230583
0.0228582
0.0226742
0.0225087
0.0223655
0.0222517
0.0221702
0.022129
0.0220935
0.0220478
0.0216117
0.020377
0.0143871
0.0236598
0.0233747
0.0231189
0.0228865
0.0226654
0.0224513
0.022244
0.022044
0.0218524
0.0216634
0.0214678
0.0212039
0.020799
0.0198674
0.0180558
0.0139593
0.0235198
0.0232372
0.0229791
0.0227364
0.0224971
0.0222559
0.0220109
0.0217601
0.0215007
0.0212229
0.0209076
0.020502
0.0199182
0.0189797
0.0174068
0.0152017
0.0234022
0.0231251
0.022868
0.0226188
0.0223658
0.0221036
0.0218292
0.0215398
0.0212307
0.0208929
0.0205055
0.0200371
0.0194075
0.0185795
0.0172925
0.0157963
0.0233125
0.0230446
0.0227918
0.02254
0.0222786
0.0220031
0.0217102
0.021397
0.0210588
0.0206883
0.0202669
0.0197779
0.0191548
0.0184047
0.0173278
0.0161142
0.0232521
0.0229971
0.0227511
0.0224998
0.0222355
0.0219546
0.0216543
0.0213318
0.0209826
0.0206003
0.0201692
0.0196774
0.0190743
0.0183704
0.0174378
0.0163823
0.0232165
0.0229794
0.0227411
0.0224925
0.0222296
0.0219502
0.021652
0.0213323
0.0209869
0.0206091
0.0201849
0.0197015
0.0191205
0.0184425
0.0175863
0.0166016
0.0231927
0.0229808
0.0227503
0.0225046
0.0222449
0.0219699
0.0216781
0.0213675
0.0210338
0.02067
0.0202626
0.0197958
0.0192361
0.0185723
0.0177401
0.0167646
0.0239923
0.0236978
0.0234421
0.023226
0.0230381
0.0228759
0.0227432
0.0226459
0.0225936
0.022592
0.0226527
0.022739
0.0228259
0.0224749
0.0211699
0.0145921
0.0238244
0.0235284
0.0232659
0.0230341
0.0228213
0.0226232
0.0224407
0.0222751
0.022129
0.0219965
0.0218688
0.0216757
0.0213309
0.0203845
0.0184251
0.0138692
0.0236703
0.0233759
0.0231097
0.0228654
0.0226306
0.0224
0.022172
0.0219447
0.0217155
0.0214737
0.021198
0.0208271
0.0202602
0.0192849
0.0175915
0.0151553
0.0235398
0.0232507
0.0229848
0.0227321
0.0224805
0.0222242
0.0219603
0.0216855
0.0213946
0.0210775
0.0207106
0.0202581
0.0196283
0.0187749
0.0174056
0.0157964
0.0234402
0.02316
0.0228981
0.0226416
0.0223794
0.0221065
0.0218193
0.0215144
0.0211864
0.0208272
0.0204159
0.0199345
0.019307
0.0185421
0.0174109
0.0161309
0.0233728
0.0231057
0.0228505
0.022594
0.0223276
0.0220474
0.0217501
0.0214324
0.0210893
0.0207138
0.0202886
0.0198015
0.0191946
0.018482
0.0175152
0.0164169
0.0233328
0.0230842
0.0228375
0.0225837
0.0223185
0.0220392
0.0217432
0.0214275
0.0210873
0.0207155
0.020297
0.0198186
0.0192364
0.0185534
0.017675
0.0166589
0.0233066
0.023085
0.022847
0.0225968
0.0223352
0.0220608
0.0217718
0.0214659
0.0211385
0.0207821
0.0203823
0.0199225
0.0193648
0.0186985
0.0178485
0.0168447
0.0241578
0.0238552
0.023596
0.0233842
0.0232088
0.0230675
0.0229657
0.0229109
0.0229144
0.0229827
0.0231279
0.023306
0.0234787
0.023153
0.0217401
0.0146641
0.0239756
0.0236708
0.0234034
0.0231736
0.0229695
0.022787
0.0226281
0.0224948
0.0223904
0.0223084
0.0222385
0.0221004
0.0217942
0.0208185
0.0187224
0.0138155
0.023808
0.0235041
0.0232319
0.0229873
0.0227576
0.0225376
0.0223261
0.0221215
0.0219207
0.0217119
0.021471
0.0211285
0.0205713
0.0195582
0.0177578
0.015137
0.0236652
0.0233666
0.0230939
0.0228391
0.0225897
0.0223399
0.0220865
0.0218261
0.021553
0.0212558
0.0209079
0.0204694
0.0198378
0.0189591
0.017517
0.0158101
0.0235564
0.0232663
0.0229971
0.0227373
0.0224753
0.0222057
0.0219248
0.0216286
0.021311
0.0209634
0.0205624
0.0200884
0.0194569
0.0186778
0.0174991
0.01616
0.0234823
0.0232053
0.0229429
0.0226825
0.0224152
0.0221365
0.021843
0.0215308
0.0211943
0.0208262
0.0204075
0.0199256
0.019316
0.0185954
0.017599
0.0164622
0.0234382
0.0231803
0.0229268
0.0226692
0.0224028
0.0221246
0.0218316
0.0215205
0.021186
0.0208209
0.0204086
0.0199356
0.0193532
0.0186659
0.0177681
0.0167237
0.0234099
0.0231804
0.0229366
0.0226831
0.0224207
0.0221478
0.0218623
0.0215617
0.0212411
0.0208926
0.0205008
0.0200481
0.0194929
0.0188245
0.017959
0.0169294
0.0243009
0.0239923
0.0237308
0.0235236
0.0233596
0.023237
0.0231621
0.0231436
0.0231938
0.0233187
0.023529
0.023772
0.0239969
0.0236662
0.0221453
0.014672
0.0241061
0.0237947
0.023524
0.0232966
0.0231006
0.0229323
0.022794
0.0226886
0.0226195
0.022579
0.0225544
0.0224559
0.0221719
0.0211603
0.018947
0.013772
0.0239267
0.0236155
0.023339
0.0230948
0.0228702
0.02266
0.0224632
0.0222783
0.022102
0.0219209
0.0217082
0.0213867
0.0208332
0.0197844
0.0178947
0.0151321
0.0237732
0.0234671
0.0231893
0.0229334
0.0226865
0.0224428
0.0221991
0.0219517
0.0216943
0.0214143
0.0210825
0.0206548
0.0200203
0.0191185
0.0176159
0.0158301
0.0236561
0.0233583
0.0230835
0.0228215
0.0225603
0.0222942
0.0220193
0.0217312
0.0214233
0.0210862
0.0206943
0.0202267
0.0195916
0.0187997
0.0175818
0.0161935
0.0235761
0.0232914
0.0230234
0.0227604
0.0224928
0.022216
0.0219263
0.0216195
0.0212894
0.0209285
0.0205159
0.0200389
0.0194272
0.0186998
0.017679
0.0165097
0.0235284
0.0232632
0.0230045
0.0227443
0.0224774
0.0222007
0.0219108
0.0216044
0.0212756
0.0209168
0.0205105
0.0200426
0.0194604
0.0187697
0.0178559
0.0167874
0.0234983
0.0232627
0.0230145
0.0227589
0.0224964
0.0222253
0.0219435
0.021648
0.0213339
0.0209928
0.0206085
0.0201624
0.0196098
0.0189396
0.0180611
0.0170095
0.0244149
0.0241019
0.0238391
0.0236361
0.0234816
0.0233741
0.0233207
0.0233306
0.0234166
0.0235838
0.0238408
0.0241272
0.0243821
0.0240355
0.0224266
0.0146627
0.0242099
0.0238937
0.0236208
0.0233959
0.0232068
0.02305
0.0229283
0.0228449
0.0228031
0.022794
0.0228025
0.0227306
0.022458
0.0214127
0.0191085
0.0137409
0.0240207
0.0237045
0.023425
0.0231816
0.0229615
0.0227593
0.0225745
0.0224053
0.0222483
0.0220886
0.0218968
0.0215897
0.0210363
0.0199574
0.0179994
0.0151351
0.0238591
0.0235474
0.0232659
0.0230095
0.0227651
0.0225266
0.0222908
0.022054
0.0218092
0.0215429
0.0212234
0.0208035
0.0201656
0.0192449
0.0176962
0.0158521
0.0237351
0.0234316
0.0231529
0.0228896
0.0226293
0.0223663
0.0220965
0.0218152
0.0215154
0.0211868
0.0208023
0.0203397
0.0197016
0.0188994
0.0176517
0.0162257
0.0236504
0.02336
0.023088
0.0228232
0.0225557
0.0222808
0.0219945
0.0216924
0.0213679
0.0210129
0.0206055
0.0201326
0.0195195
0.0187867
0.0177473
0.0165526
0.0235998
0.0233292
0.0230668
0.0228048
0.0225379
0.0222627
0.0219757
0.0216733
0.0213494
0.0209961
0.0205949
0.0201314
0.0195496
0.0188562
0.0179302
0.0168426
0.0235682
0.0233281
0.0230769
0.0228198
0.0225576
0.0222884
0.0220098
0.0217189
0.0214103
0.0210755
0.0206973
0.0202568
0.0197063
0.0190348
0.0181463
0.0170774
0.0244939
0.0241785
0.0239152
0.0237154
0.023568
0.0234712
0.0234329
0.0234626
0.0235731
0.0237687
0.0240564
0.0243704
0.0246426
0.0242827
0.0226148
0.0146679
0.0242819
0.0239629
0.0236888
0.0234659
0.0232821
0.0231336
0.0230237
0.0229556
0.0229328
0.0229451
0.0229756
0.0229209
0.0226543
0.0215843
0.0192182
0.0137281
0.024086
0.0237666
0.0234854
0.0232429
0.0230263
0.0228301
0.0226538
0.0224959
0.0223524
0.0222075
0.02203
0.0217322
0.021178
0.0200771
0.0180729
0.0151448
0.0239185
0.0236034
0.0233198
0.0230634
0.0228211
0.0225865
0.0223567
0.0221275
0.0218918
0.0216352
0.0213244
0.0209097
0.0202693
0.0193353
0.0177566
0.0158759
0.0237899
0.0234828
0.0232017
0.0229379
0.0226787
0.0224182
0.0221522
0.0218761
0.0215822
0.02126
0.0208809
0.020422
0.0197822
0.018973
0.0177063
0.0162554
0.0237018
0.0234078
0.0231335
0.0228678
0.0226008
0.0223276
0.022044
0.0217455
0.0214252
0.0210748
0.0206715
0.0202017
0.0195882
0.0188518
0.0178005
0.0165884
0.0236492
0.0233752
0.0231106
0.0228478
0.0225811
0.0223072
0.0220227
0.0217234
0.0214033
0.0210541
0.0206568
0.0201966
0.0196156
0.0189203
0.0179864
0.0168856
0.0236166
0.0233737
0.0231206
0.0228628
0.022601
0.0223333
0.0220572
0.0217697
0.0214652
0.021135
0.0207613
0.0203247
0.019776
0.0191035
0.0182084
0.0171274
0.0245336
0.0242167
0.0239526
0.0237539