/*--------------------------------*- C++ -*----------------------------------*\
| =========                 |                                                 |
| \\      /  F ield         | foam-extend: Open Source CFD                    |
|  \\    /   O peration     | Version:     3.1                                |
|   \\  /    A nd           | Web:         http://www.extend-project.de       |
|    \\/     M anipulation  |                                                 |
\*---------------------------------------------------------------------------*/
FoamFile
{
    version     2.0;
    format      ascii;
    class       surfaceScalarField;
    location    "3.7";
    object      phi;
}
// * * * * * * * * * * * * * * * * * * * * * * * * * * * * * * * * * * * * * //

dimensions      [0 3 -1 0 0 0 0];

internalField   nonuniform List<scalar> 
41600
(
1.18653e-05
-6.934e-08
-1.20055e-06
1.21541e-06
1.17767e-05
7.74623e-08
-2.16583e-06
2.17693e-06
1.15592e-05
2.19891e-07
-2.74045e-06
2.738e-06
1.12444e-05
3.3303e-07
-3.24639e-06
3.22819e-06
1.0849e-05
4.29816e-07
-3.81006e-06
3.77571e-06
1.03886e-05
5.12128e-07
-4.49818e-06
4.4464e-06
9.88739e-06
5.73321e-07
-5.35677e-06
5.28466e-06
9.38117e-06
6.0256e-07
-6.42789e-06
6.33155e-06
8.91992e-06
5.8472e-07
-7.76146e-06
7.63799e-06
8.57116e-06
4.97372e-07
-9.42618e-06
9.27757e-06
8.42633e-06
3.0301e-07
-1.15218e-05
1.13636e-05
8.60076e-06
-5.95597e-08
-1.4187e-05
1.40721e-05
9.1791e-06
-6.67945e-07
-1.75644e-05
1.7654e-05
9.89262e-06
-1.48998e-06
-2.15486e-05
2.2325e-05
8.79612e-06
-1.77952e-06
-2.47406e-05
2.76166e-05
-2.48109e-07
-1.98527e-05
2.88844e-05
3.3046e-05
-2.30178e-08
-1.41796e-06
1.47203e-06
3.27939e-05
2.49399e-07
-3.31528e-06
3.39541e-06
3.23775e-05
5.61591e-07
-4.71407e-06
4.78882e-06
3.17904e-05
8.57309e-07
-5.95319e-06
6.01594e-06
3.10342e-05
1.1322e-06
-7.25338e-06
7.30728e-06
3.01194e-05
1.37798e-06
-8.76541e-06
8.81431e-06
2.90724e-05
1.57618e-06
-1.05982e-05
1.06424e-05
2.79363e-05
1.70235e-06
-1.2841e-05
1.28774e-05
2.67685e-05
1.72613e-06
-1.55856e-05
1.56119e-05
2.56347e-05
1.60638e-06
-1.89492e-05
1.8974e-05
2.46001e-05
1.27564e-06
-2.30998e-05
2.31617e-05
2.36986e-05
6.22241e-07
-2.82696e-05
2.84894e-05
2.2813e-05
-5.23128e-07
-3.46762e-05
3.5417e-05
2.12015e-05
-2.24761e-06
-4.19148e-05
4.42839e-05
1.60201e-05
-3.53811e-06
-4.66961e-05
5.36362e-05
-1.66064e-06
-3.45074e-05
5.19004e-05
5.13444e-05
6.30386e-10
-1.13663e-06
1.20259e-06
5.10711e-05
3.97776e-07
-3.06899e-06
3.19395e-06
5.06379e-05
8.5179e-07
-4.72098e-06
4.86402e-06
5.00332e-05
1.31394e-06
-6.26808e-06
6.41612e-06
4.92398e-05
1.76786e-06
-7.88815e-06
8.04591e-06
4.82415e-05
2.19744e-06
-9.74451e-06
9.92328e-06
4.70322e-05
2.57678e-06
-1.19779e-05
1.21867e-05
4.56192e-05
2.87362e-06
-1.4709e-05
1.49507e-05
4.4021e-05
3.0499e-06
-1.80528e-05
1.83272e-05
4.22541e-05
3.05898e-06
-2.21422e-05
2.24566e-05
4.03091e-05
2.82718e-06
-2.71595e-05
2.75529e-05
3.80964e-05
2.2314e-06
-3.33716e-05
3.39752e-05
3.52852e-05
1.04948e-06
-4.10845e-05
4.23231e-05
3.0757e-05
-1.00508e-06
-5.00087e-05
5.32944e-05
2.12986e-05
-3.30804e-06
-5.62087e-05
6.5437e-05
-2.7252e-06
-4.15295e-05
6.38163e-05
6.66176e-05
-2.67139e-09
-8.91653e-07
9.51096e-07
6.63814e-05
5.04023e-07
-2.55655e-06
2.68648e-06
6.60052e-05
1.0642e-06
-4.10035e-06
4.2642e-06
6.54887e-05
1.6489e-06
-5.61768e-06
5.79913e-06
6.481e-05
2.24397e-06
-7.23103e-06
7.43363e-06
6.39314e-05
2.83573e-06
-9.08326e-06
9.3236e-06
6.28085e-05
3.40235e-06
-1.13243e-05
1.16217e-05
6.13982e-05
3.91624e-06
-1.41e-05
1.44677e-05
5.96607e-05
4.3444e-06
-1.75531e-05
1.79961e-05
5.75466e-05
4.65057e-06
-2.18384e-05
2.2361e-05
5.49689e-05
4.77642e-06
-2.71522e-05
2.77805e-05
5.17245e-05
4.63028e-06
-3.37803e-05
3.46259e-05
4.73203e-05
4.01281e-06
-4.21458e-05
4.35867e-05
4.02235e-05
2.53556e-06
-5.23019e-05
5.58581e-05
2.65979e-05
7.74784e-08
-6.0393e-05
7.06331e-05
-1.68019e-06
-4.57536e-05
7.11803e-05
7.88301e-05
-1.69999e-08
-7.36723e-07
7.86491e-07
7.86359e-05
5.81897e-07
-2.14175e-06
2.25808e-06
7.83256e-05
1.22167e-06
-3.48125e-06
3.63406e-06
7.79114e-05
1.89093e-06
-4.82916e-06
5.00131e-06
7.73774e-05
2.58576e-06
-6.27734e-06
6.46957e-06
7.66798e-05
3.30319e-06
-7.94556e-06
8.17572e-06
7.57509e-05
4.03596e-06
-9.98032e-06
1.02756e-05
7.45065e-05
4.77475e-06
-1.25442e-05
1.29301e-05
7.28517e-05
5.50712e-06
-1.58104e-05
1.63024e-05
7.06711e-05
6.22686e-06
-1.99688e-05
2.05731e-05
6.78047e-05
6.91232e-06
-2.52477e-05
2.59782e-05
6.39432e-05
7.54774e-06
-3.19624e-05
3.29064e-05
5.8473e-05
8.01703e-06
-4.06072e-05
4.20731e-05
4.94553e-05
8.10458e-06
-5.17077e-05
5.51565e-05
3.20986e-05
6.93505e-06
-6.18632e-05
7.23623e-05
2.4854e-06
-4.82909e-05
7.60387e-05
8.7981e-05
-3.12891e-08
-6.35927e-07
6.7862e-07
8.78209e-05
6.41064e-07
-1.85019e-06
1.95103e-06
8.75702e-05
1.33943e-06
-3.00805e-06
3.14101e-06
8.72482e-05
2.06553e-06
-4.17692e-06
4.32432e-06
8.6848e-05
2.82732e-06
-5.43246e-06
5.59114e-06
8.63304e-05
3.63555e-06
-6.87455e-06
7.05976e-06
8.56224e-05
4.50207e-06
-8.63761e-06
8.87955e-06
8.46199e-05
5.44356e-06
-1.08873e-05
1.12209e-05
8.3195e-05
6.47896e-06
-1.38157e-05
1.42687e-05
8.11855e-05
7.64955e-06
-1.76435e-05
1.82304e-05
7.83796e-05
8.98895e-06
-2.26338e-05
2.33631e-05
7.43785e-05
1.06098e-05
-2.9143e-05
3.0082e-05
6.84934e-05
1.25067e-05
-3.76827e-05
3.90781e-05
5.84847e-05
1.49635e-05
-4.92176e-05
5.23673e-05
3.81472e-05
1.70299e-05
-6.12453e-05
7.14879e-05
1.08865e-05
-4.92162e-05
7.8713e-05
9.40739e-05
-3.82641e-08
-5.64532e-07
6.02802e-07
9.39419e-05
6.84366e-07
-1.64134e-06
1.73006e-06
9.37473e-05
1.41881e-06
-2.65909e-06
2.77435e-06
9.35129e-05
2.1764e-06
-3.67942e-06
3.80293e-06
9.32392e-05
2.97603e-06
-4.76723e-06
4.89222e-06
9.28959e-05
3.84145e-06
-6.00602e-06
6.1434e-06
9.24162e-05
4.80299e-06
-7.51369e-06
7.69252e-06
9.1697e-05
5.90313e-06
-9.4457e-06
9.70532e-06
9.06053e-05
7.19338e-06
-1.19938e-05
1.23711e-05
8.89705e-05
8.76595e-06
-1.53867e-05
1.59051e-05
8.65751e-05
1.0715e-05
-1.98967e-05
2.05661e-05
8.30008e-05
1.33183e-05
-2.59001e-05
2.67659e-05
7.75183e-05
1.67199e-05
-3.38638e-05
3.51331e-05
6.78693e-05
2.19246e-05
-4.49908e-05
4.76786e-05
4.60879e-05
2.94404e-05
-5.83781e-05
6.7749e-05
2.60935e-05
-4.79089e-05
7.84739e-05
9.71133e-05
-5.11397e-07
5.4687e-07
-3.38185e-08
9.70059e-05
-1.48586e-06
1.56626e-06
7.11287e-07
9.68682e-05
-2.39655e-06
2.4987e-06
1.4544e-06
9.67251e-05
-3.29905e-06
3.40424e-06
2.21433e-06
9.65828e-05
-4.25031e-06
4.34955e-06
3.01908e-06
9.64202e-05
-5.32152e-06
5.42238e-06
3.9032e-06
9.61819e-05
-6.61477e-06
6.74378e-06
4.91223e-06
9.578e-05
-8.26814e-06
8.46494e-06
6.1083e-06
9.50997e-05
-1.04564e-05
1.07619e-05
7.56823e-06
9.40069e-05
-1.33885e-05
1.38307e-05
9.41655e-06
9.23384e-05
-1.73082e-05
1.79003e-05
1.17914e-05
8.98332e-05
-2.25402e-05
2.32972e-05
1.50664e-05
8.58846e-05
-2.94588e-05
3.05561e-05
1.95711e-05
7.8718e-05
-3.89084e-05
4.09117e-05
2.7088e-05
5.99174e-05
-5.25835e-05
5.983e-05
4.09944e-05
-4.27745e-05
7.14307e-05
5.69732e-05
1.26634e-05
-8.75905e-08
-1.13781e-06
1.25096e-05
5.13208e-08
-2.06329e-06
1.21994e-05
1.91848e-07
-2.62209e-06
1.17671e-05
3.02247e-07
-3.11637e-06
1.12278e-05
3.94652e-07
-3.66538e-06
1.05912e-05
4.71274e-07
-4.33286e-06
9.87274e-06
5.24583e-07
-5.16291e-06
9.09707e-06
5.41967e-07
-6.19418e-06
8.2989e-06
5.05586e-07
-7.46888e-06
7.52292e-06
3.89159e-07
-9.03936e-06
6.82327e-06
1.49831e-07
-1.09719e-05
6.25282e-06
-2.79673e-07
-1.33369e-05
5.81308e-06
-9.89706e-07
-1.6135e-05
5.23462e-06
-1.94922e-06
-1.90209e-05
3.49869e-06
-2.64842e-06
-2.03563e-05
-1.94478e-06
-1.44256e-05
3.53252e-05
-4.55783e-08
-1.31561e-06
3.49627e-05
2.07101e-07
-3.10862e-06
3.43789e-05
5.0924e-07
-4.44765e-06
3.35698e-05
7.96747e-07
-5.63861e-06
3.25326e-05
1.0628e-06
-6.88428e-06
3.12671e-05
1.29811e-06
-8.32675e-06
2.9783e-05
1.48124e-06
-1.00708e-05
2.81021e-05
1.58264e-06
-1.22007e-05
2.62539e-05
1.56454e-06
-1.47963e-05
2.42659e-05
1.37534e-06
-1.79474e-05
2.21471e-05
9.31743e-07
-2.17629e-05
1.98419e-05
1.0914e-07
-2.63533e-05
1.71542e-05
-1.31689e-06
-3.16614e-05
1.34965e-05
-3.38071e-06
-3.68257e-05
7.55198e-06
-5.18622e-06
-3.82138e-05
-4.14877e-06
-2.48006e-05
5.49181e-05
-2.27953e-08
-1.03861e-06
5.45391e-05
3.56376e-07
-2.83921e-06
5.39311e-05
7.97872e-07
-4.40159e-06
5.30831e-05
1.2503e-06
-5.87371e-06
5.19737e-05
1.69547e-06
-7.41142e-06
5.05751e-05
2.11593e-06
-9.16375e-06
4.88608e-05
2.48185e-06
-1.12642e-05
4.68091e-05
2.7538e-06
-1.38285e-05
4.43996e-05
2.8834e-06
-1.69622e-05
4.15957e-05
2.80975e-06
-2.07727e-05
3.83111e-05
2.43839e-06
-2.53816e-05
3.43507e-05
1.61518e-06
-3.09171e-05
2.92401e-05
9.52034e-08
-3.7386e-05
2.20912e-05
-2.40958e-06
-4.3831e-05
1.1494e-05
-5.06471e-06
-4.57331e-05
-4.89437e-06
-2.93791e-05
7.12698e-05
-2.77706e-08
-8.09752e-07
7.09452e-05
4.71136e-07
-2.34668e-06
7.04111e-05
1.02493e-06
-3.79333e-06
6.96656e-05
1.60542e-06
-5.22723e-06
6.86824e-05
2.19845e-06
-6.75087e-06
6.74142e-05
2.78993e-06
-8.48902e-06
6.5796e-05
3.35502e-06
-1.05794e-05
6.37506e-05
3.85987e-06
-1.31607e-05
6.11875e-05
4.26205e-06
-1.63687e-05
5.79853e-05
4.51263e-06
-2.0339e-05
5.39518e-05
4.53548e-06
-2.52158e-05
4.87305e-05
4.21242e-06
-3.11562e-05
4.1634e-05
3.30901e-06
-3.82631e-05
3.1281e-05
1.45809e-06
-4.58166e-05
1.59058e-05
-1.13584e-06
-4.89467e-05
-2.96637e-06
-3.19162e-05
8.43423e-05
-4.53206e-08
-6.68442e-07
8.40744e-05
5.58372e-07
-1.96109e-06
8.36264e-05
1.20234e-06
-3.21062e-06
8.30055e-05
1.87794e-06
-4.48083e-06
8.21916e-05
2.5828e-06
-5.8478e-06
8.11334e-05
3.3149e-06
-7.41227e-06
7.97455e-05
4.06608e-06
-9.30351e-06
7.79091e-05
4.82417e-06
-1.16721e-05
7.54714e-05
5.57201e-06
-1.46827e-05
7.22278e-05
6.29795e-06
-1.85105e-05
6.78837e-05
6.97389e-06
-2.33419e-05
6.19362e-05
7.57311e-06
-2.93756e-05
5.34854e-05
7.97416e-06
-3.68215e-05
4.06343e-05
7.93306e-06
-4.53316e-05
2.0831e-05
6.83271e-06
-5.00284e-05
2.67668e-06
-3.33023e-05
9.41361e-05
-6.23749e-08
-5.77272e-07
9.3913e-05
6.25571e-07
-1.69426e-06
9.35417e-05
1.33909e-06
-2.77348e-06
9.30349e-05
2.08342e-06
-3.87566e-06
9.23805e-05
2.86938e-06
-5.06462e-06
9.15335e-05
3.70998e-06
-6.42263e-06
9.04074e-05
4.61867e-06
-8.06406e-06
8.88675e-05
5.61388e-06
-1.01371e-05
8.67282e-05
6.71677e-06
-1.28211e-05
8.37302e-05
7.97472e-06
-1.63223e-05
7.95085e-05
9.43247e-06
-2.08707e-05
7.34355e-05
1.12188e-05
-2.67158e-05
6.44819e-05
1.33791e-05
-3.4134e-05
5.02413e-05
1.61825e-05
-4.32264e-05
2.66238e-05
1.87475e-05
-4.95425e-05
1.34117e-05
-3.35906e-05
0.000100657
-7.05849e-08
-5.12353e-07
0.000100469
6.75825e-07
-1.50367e-06
0.000100168
1.43465e-06
-2.45321e-06
9.97679e-05
2.22118e-06
-3.41752e-06
9.92646e-05
3.0581e-06
-4.45267e-06
9.86228e-05
3.97267e-06
-5.62694e-06
9.77666e-05
4.99916e-06
-7.03792e-06
9.65687e-05
6.18642e-06
-8.82034e-06
9.48457e-05
7.59503e-06
-1.11491e-05
9.23345e-05
9.33641e-06
-1.42371e-05
8.86677e-05
1.15335e-05
-1.8331e-05
8.31757e-05
1.45237e-05
-2.3713e-05
7.48005e-05
1.85508e-05
-3.06602e-05
6.08489e-05
2.48112e-05
-3.96679e-05
3.49561e-05
3.37282e-05
-4.7466e-05
3.26545e-05
-3.25243e-05
0.000103909
-4.63635e-07
-6.53997e-08
0.000103751
-1.36118e-06
7.09174e-07
0.000103518
-2.212e-06
1.48367e-06
0.000103226
-3.0673e-06
2.28089e-06
0.000102878
-3.97693e-06
3.1333e-06
0.000102448
-4.9989e-06
4.07982e-06
0.000101877
-6.21603e-06
5.17177e-06
0.000101059
-7.74525e-06
6.48126e-06
9.98416e-05
-9.74328e-06
8.09922e-06
9.80136e-05
-1.24037e-05
1.01797e-05
9.52924e-05
-1.59517e-05
1.28982e-05
9.11836e-05
-2.06448e-05
1.6737e-05
8.48378e-05
-2.66999e-05
2.21377e-05
7.38342e-05
-3.45949e-05
3.15013e-05
5.05791e-05
-4.35974e-05
4.79972e-05
-2.94741e-05
6.95389e-05
1.33442e-05
-1.04685e-07
-1.02927e-06
1.3128e-05
2.64727e-08
-1.87352e-06
1.27303e-05
1.63826e-07
-2.38826e-06
1.21876e-05
2.7106e-07
-2.84471e-06
1.15138e-05
3.58434e-07
-3.34999e-06
1.0714e-05
4.28404e-07
-3.96149e-06
9.79699e-06
4.72553e-07
-4.71844e-06
8.77942e-06
4.76668e-07
-5.65328e-06
7.68733e-06
4.20809e-07
-6.7976e-06
6.55595e-06
2.76559e-07
-8.18454e-06
5.43069e-06
-3.3527e-10
-9.84635e-06
4.3649e-06
-4.76315e-07
-1.17948e-05
3.40233e-06
-1.23059e-06
-1.39418e-05
2.47974e-06
-2.23372e-06
-1.58646e-05
1.31847e-06
-3.07617e-06
-1.61188e-05
-2.47391e-06
-1.06523e-05
3.72759e-05
-6.61327e-08
-1.1693e-06
3.68115e-05
1.67919e-07
-2.78558e-06
3.60721e-05
4.59809e-07
-4.00427e-06
3.50569e-05
7.38728e-07
-5.09104e-06
3.37598e-05
9.95081e-07
-6.22391e-06
3.21727e-05
1.21842e-06
-7.52961e-06
3.02923e-05
1.38443e-06
-9.10232e-06
2.81249e-05
1.45881e-06
-1.10154e-05
2.56835e-05
1.39749e-06
-1.33316e-05
2.29797e-05
1.14178e-06
-1.61088e-05
2.00113e-05
6.02964e-07
-1.93979e-05
1.67451e-05
-3.56961e-07
-2.32064e-05
1.30915e-05
-1.91748e-06
-2.73209e-05
8.86816e-06
-4.08027e-06
-3.07558e-05
3.94977e-06
-6.02544e-06
-3.03461e-05
-5.04414e-06
-1.8337e-05
5.798e-05
-4.40715e-08
-9.11836e-07
5.75051e-05
3.19933e-07
-2.51628e-06
5.67374e-05
7.50202e-07
-3.9243e-06
5.56662e-05
1.19343e-06
-5.25721e-06
5.42666e-05
1.62963e-06
-6.64638e-06
5.25022e-05
2.04001e-06
-8.22093e-06
5.03308e-05
2.39098e-06
-1.00993e-05
4.77093e-05
2.63635e-06
-1.23845e-05
4.45908e-05
2.71848e-06
-1.51647e-05
4.09107e-05
2.56575e-06
-1.85166e-05
3.65613e-05
2.07324e-06
-2.25025e-05
3.1341e-05
1.08269e-06
-2.71364e-05
2.49061e-05
-6.4262e-07
-3.2226e-05
1.68498e-05
-3.24116e-06
-3.66138e-05
7.28251e-06
-5.93395e-06
-3.62573e-05
-5.71591e-06
-2.1524e-05
7.52566e-05
-5.06212e-08
-7.07635e-07
7.48527e-05
4.44067e-07
-2.06689e-06
7.41764e-05
9.93737e-07
-3.36061e-06
7.32228e-05
1.57146e-06
-4.65159e-06
7.19615e-05
2.16307e-06
-6.023e-06
7.03372e-05
2.75424e-06
-7.57898e-06
6.82697e-05
3.31732e-06
-9.43824e-06
6.5656e-05
3.81248e-06
-1.17231e-05
6.23691e-05
4.18832e-06
-1.45516e-05
5.82421e-05
4.38564e-06
-1.80319e-05
5.3035e-05
4.3184e-06
-2.22539e-05
4.63619e-05
3.86517e-06
-2.72656e-05
3.75971e-05
2.80981e-06
-3.29507e-05
2.58923e-05
9.21535e-07
-3.82745e-05
1.13237e-05
-1.59835e-06
-3.87138e-05
-3.31358e-06
-2.31467e-05
8.90661e-05
-7.03888e-08
-5.83904e-07
8.87323e-05
5.40969e-07
-1.72418e-06
8.81611e-05
1.19162e-06
-2.83732e-06
8.73542e-05
1.87534e-06
-3.97781e-06
8.62858e-05
2.59125e-06
-5.20755e-06
8.48975e-05
3.33849e-06
-6.60823e-06
8.30908e-05
4.1082e-06
-8.28766e-06
8.07211e-05
4.8853e-06
-1.03753e-05
7.75938e-05
5.64747e-06
-1.30145e-05
7.34441e-05
6.37799e-06
-1.63531e-05
6.79035e-05
7.04488e-06
-2.05279e-05
6.04033e-05
7.62614e-06
-2.56364e-05
5.00422e-05
8.02399e-06
-3.16746e-05
3.54157e-05
8.10184e-06
-3.78854e-05
1.60716e-05
7.2443e-06
-3.95269e-05
3.21628e-06
-2.39723e-05
9.9411e-05
-8.93984e-08
-5.04413e-07
9.91311e-05
6.16544e-07
-1.48985e-06
9.86523e-05
1.34747e-06
-2.45056e-06
9.79803e-05
2.11171e-06
-3.44003e-06
9.70958e-05
2.92275e-06
-4.51165e-06
9.59472e-05
3.79605e-06
-5.7316e-06
9.44372e-05
4.74674e-06
-7.1926e-06
9.24091e-05
5.79461e-06
-9.01828e-06
8.96361e-05
6.96155e-06
-1.13622e-05
8.57934e-05
8.29881e-06
-1.44004e-05
8.04251e-05
9.85839e-06
-1.8316e-05
7.28123e-05
1.17881e-05
-2.32649e-05
6.18628e-05
1.4175e-05
-2.93355e-05
4.55264e-05
1.73828e-05
-3.61709e-05
2.19281e-05
2.04813e-05
-3.91813e-05
1.53632e-05
-2.40852e-05
0.000106298
-9.83422e-08
-4.47588e-07
0.00010606
6.74166e-07
-1.32278e-06
0.000105663
1.45938e-06
-2.16863e-06
0.000105117
2.27622e-06
-3.03537e-06
0.000104407
3.15103e-06
-3.97108e-06
0.000103492
4.11464e-06
-5.031e-06
0.000102289
5.20512e-06
-6.29285e-06
0.000100652
6.47681e-06
-7.86606e-06
9.8365e-05
7.9971e-06
-9.89728e-06
9.51018e-05
9.89181e-06
-1.2567e-05
9.04042e-05
1.23036e-05
-1.60785e-05
8.34973e-05
1.56114e-05
-2.06295e-05
7.32382e-05
2.01207e-05
-2.63467e-05
5.70855e-05
2.71704e-05
-3.33028e-05
3.07341e-05
3.7124e-05
-3.77573e-05
3.66536e-05
-2.34223e-05
0.000109734
-4.04676e-07
-9.21592e-08
0.00010953
-1.1974e-06
7.14278e-07
0.000109211
-1.95603e-06
1.52192e-06
0.000108789
-2.72609e-06
2.35755e-06
0.000108256
-3.55084e-06
3.25795e-06
0.000107583
-4.47746e-06
4.26638e-06
0.000106704
-5.57123e-06
5.43943e-06
0.000105502
-6.92527e-06
6.85791e-06
0.000103801
-8.66892e-06
8.62414e-06
0.000101339
-1.09651e-05
1.09153e-05
9.77598e-05
-1.40026e-05
1.39336e-05
9.2468e-05
-1.79723e-05
1.82307e-05
8.45588e-05
-2.29814e-05
2.43113e-05
7.15474e-05
-2.92473e-05
3.48343e-05
4.74147e-05
-3.52135e-05
5.28729e-05
-2.15141e-05
7.57006e-05
1.3909e-05
-1.19871e-07
-8.79044e-07
1.3636e-05
4.67357e-09
-1.60519e-06
1.31596e-05
1.37733e-07
-2.04955e-06
1.25177e-05
2.41751e-07
-2.44463e-06
1.17242e-05
3.24167e-07
-2.8806e-06
1.07809e-05
3.87584e-07
-3.40576e-06
9.69218e-06
4.22804e-07
-4.05255e-06
8.47068e-06
4.14293e-07
-4.84608e-06
7.13993e-06
3.40678e-07
-5.80752e-06
5.73638e-06
1.72846e-07
-6.95384e-06
4.31393e-06
-1.31631e-07
-8.29227e-06
2.9531e-06
-6.34332e-07
-9.79959e-06
1.76465e-06
-1.39883e-06
-1.13546e-05
8.51204e-07
-2.38893e-06
-1.25622e-05
2.80932e-07
-3.22896e-06
-1.23196e-05
-2.58436e-06
-7.80796e-06
3.88995e-05
-8.40821e-08
-9.84341e-07
3.83443e-05
1.33307e-07
-2.35909e-06
3.74665e-05
4.15547e-07
-3.40426e-06
3.6268e-05
6.86367e-07
-4.33717e-06
3.47413e-05
9.33452e-07
-5.30643e-06
3.28724e-05
1.14528e-06
-6.41842e-06
3.06499e-05
1.29496e-06
-7.75201e-06
2.80712e-05
1.34407e-06
-9.36653e-06
2.51434e-05
1.24379e-06
-1.13069e-05
2.18801e-05
9.315e-07
-1.36042e-05
1.82955e-05
3.22039e-07
-1.62669e-05
1.44193e-05
-7.20105e-07
-1.92445e-05
1.03024e-05
-2.33335e-06
-2.22695e-05
6.07484e-06
-4.47186e-06
-2.44452e-05
2.17484e-06
-6.3657e-06
-2.33094e-05
-5.30737e-06
-1.35006e-05
6.05305e-05
-6.23967e-08
-7.60314e-07
5.99717e-05
2.88875e-07
-2.11305e-06
5.90639e-05
7.09554e-07
-3.31046e-06
5.77961e-05
1.14472e-06
-4.44781e-06
5.61413e-05
1.57278e-06
-5.63081e-06
5.40569e-05
1.97387e-06
-6.96515e-06
5.14905e-05
2.3111e-06
-8.54909e-06
4.83851e-05
2.53242e-06
-1.04675e-05
4.46802e-05
2.57265e-06
-1.27887e-05
4.03033e-05
2.35339e-06
-1.55616e-05
3.51598e-05
1.76802e-06
-1.8805e-05
2.90943e-05
6.72186e-07
-2.24632e-05
2.19453e-05
-1.13886e-06
-2.62715e-05
1.36962e-05
-3.69665e-06
-2.91399e-05
5.20806e-06
-6.27096e-06
-2.78639e-05
-5.94906e-06
-1.57808e-05
7.85783e-05
-7.01867e-08
-5.88067e-07
7.81056e-05
4.22147e-07
-1.72747e-06
7.73059e-05
9.69385e-07
-2.82076e-06
7.61707e-05
1.54557e-06
-3.91728e-06
7.4666e-05
2.13655e-06
-5.08205e-06
7.27306e-05
2.72797e-06
-6.39761e-06
7.02735e-05
3.28995e-06
-7.96004e-06
6.71749e-05
3.77743e-06
-9.86954e-06
6.32857e-05
4.13142e-06
-1.22212e-05
5.84166e-05
4.28532e-06
-1.50948e-05
5.23185e-05
4.14996e-06
-1.85377e-05
4.46414e-05
3.61418e-06
-2.25306e-05
3.49052e-05
2.50071e-06
-2.68541e-05
2.27229e-05
6.89116e-07
-3.04778e-05
9.11591e-06
-1.65032e-06
-2.97275e-05
-3.26784e-06
-1.68731e-05
9.30019e-05
-9.17909e-08
-4.85144e-07
9.26109e-05
5.28164e-07
-1.4392e-06
9.19335e-05
1.18651e-06
-2.37698e-06
9.09656e-05
1.87898e-06
-3.34331e-06
8.96757e-05
2.60599e-06
-4.38708e-06
8.79993e-05
3.36794e-06
-5.57181e-06
8.58282e-05
4.15571e-06
-6.98236e-06
8.30011e-05
4.95172e-06
-8.72248e-06
7.92971e-05
5.72884e-06
-1.09079e-05
7.44177e-05
6.46611e-06
-1.36544e-05
6.79646e-05
7.13008e-06
-1.70549e-05
5.93728e-05
7.70977e-06
-2.11402e-05
4.7853e-05
8.14051e-06
-2.57946e-05
3.24636e-05
8.37575e-06
-3.01827e-05
1.38682e-05
7.77252e-06
-3.03544e-05
3.8178e-06
-1.74119e-05
0.000103806
-1.12285e-07
-4.19171e-07
0.000103477
6.11709e-07
-1.24386e-06
0.000102905
1.36018e-06
-2.05275e-06
0.000102091
2.14398e-06
-2.89073e-06
0.000101007
2.97898e-06
-3.80117e-06
9.95962e-05
3.88307e-06
-4.83555e-06
9.77516e-05
4.87315e-06
-6.06545e-06
9.53023e-05
5.97016e-06
-7.58752e-06
9.19968e-05
7.19588e-06
-9.52372e-06
8.74723e-05
8.60356e-06
-1.20133e-05
8.12303e-05
1.02492e-05
-1.51931e-05
7.25315e-05
1.2296e-05
-1.91524e-05
6.03477e-05
1.48616e-05
-2.38729e-05
4.30232e-05
1.83779e-05
-2.88486e-05
1.98855e-05
2.18677e-05
-3.01388e-05
1.68248e-05
-1.74938e-05
0.000110999
-1.21628e-07
-3.71858e-07
0.000110716
6.76428e-07
-1.10474e-06
0.000110238
1.48738e-06
-1.81729e-06
0.000109565
2.33325e-06
-2.55181e-06
0.000108677
3.2437e-06
-3.34811e-06
0.000107526
4.25294e-06
-4.24969e-06
0.00010602
5.40247e-06
-5.31598e-06
0.000104003
6.75131e-06
-6.63076e-06
0.000101239
8.37157e-06
-8.30824e-06
9.73667e-05
1.03989e-05
-1.04903e-05
9.1884e-05
1.29867e-05
-1.33335e-05
8.39819e-05
1.65399e-05
-1.69712e-05
7.25452e-05
2.13923e-05
-2.14408e-05
5.52997e-05
2.89527e-05
-2.66321e-05
2.90792e-05
3.95258e-05
-2.91949e-05
3.92533e-05
-1.71251e-05
0.000114587
-3.35965e-07
-1.14363e-07
0.000114343
-9.99986e-07
7.23045e-07
0.000113951
-1.63953e-06
1.5626e-06
0.000113416
-2.29285e-06
2.43461e-06
0.000112725
-2.99603e-06
3.37985e-06
0.000111842
-3.78661e-06
4.44558e-06
0.000110694
-4.71435e-06
5.69296e-06
0.00010916
-5.84949e-06
7.21001e-06
0.000107047
-7.29132e-06
9.10745e-06
0.000104068
-9.16675e-06
1.15791e-05
9.98331e-05
-1.1623e-05
1.4842e-05
9.37091e-05
-1.47971e-05
1.94886e-05
8.48075e-05
-1.87309e-05
2.60435e-05
7.07435e-05
-2.35096e-05
3.7279e-05
4.64022e-05
-2.75172e-05
5.61708e-05
-1.58847e-05
7.96061e-05
1.43586e-05
-1.32332e-07
-6.92874e-07
1.40382e-05
-1.67763e-08
-1.26803e-06
1.34941e-05
1.15487e-07
-1.62095e-06
1.27683e-05
2.16244e-07
-1.93508e-06
1.18742e-05
2.94245e-07
-2.28075e-06
1.08119e-05
3.51912e-07
-2.69537e-06
9.58353e-06
3.7941e-07
-3.20356e-06
8.20044e-06
3.60223e-07
-3.82321e-06
6.68792e-06
2.72074e-07
-4.56708e-06
5.0894e-06
8.61668e-08
-5.44148e-06
3.47386e-06
-2.36264e-07
-6.44047e-06
1.9536e-06
-7.52879e-07
-7.52645e-06
6.97045e-07
-1.51131e-06
-8.58669e-06
-7.99949e-08
-2.46752e-06
-9.31763e-06
-2.54025e-07
-3.25043e-06
-8.89513e-06
-2.57122e-06
-5.51312e-06
4.01974e-05
-9.90162e-08
-7.67364e-07
3.95649e-05
1.03884e-07
-1.84727e-06
3.85709e-05
3.78248e-07
-2.67299e-06
3.72183e-05
6.4201e-07
-3.41037e-06
3.54994e-05
8.81044e-07
-4.17433e-06
3.33972e-05
1.08293e-06
-5.04719e-06
3.08956e-05
1.21868e-06
-6.08968e-06
2.79885e-05
1.24665e-06
-7.34588e-06
2.46845e-05
1.11464e-06
-8.84537e-06
2.1009e-05
7.58702e-07
-1.06013e-05
1.70021e-05
1.06652e-07
-1.26029e-05
1.2762e-05
-9.88115e-07
-1.47692e-05
8.45281e-06
-2.60733e-06
-1.68642e-05
4.39343e-06
-4.67492e-06
-1.81785e-05
1.23614e-06
-6.46078e-06
-1.69417e-05
-5.33163e-06
-9.56906e-06
6.25703e-05
-7.74689e-08
-5.88512e-07
6.19417e-05
2.63535e-07
-1.64404e-06
6.09171e-05
6.76458e-07
-2.58406e-06
5.94853e-05
1.10501e-06
-3.47905e-06
5.76177e-05
1.52633e-06
-4.40849e-06
5.52684e-05
1.9197e-06
-5.45257e-06
5.23786e-05
2.24567e-06
-6.68634e-06
4.88843e-05
2.4475e-06
-8.174e-06
4.47204e-05
2.45432e-06
-9.96445e-06
3.98187e-05
2.18394e-06
-1.20852e-05
3.4115e-05
1.53299e-06
-1.45275e-05
2.75051e-05
3.79982e-07
-1.72215e-05
1.99927e-05
-1.45927e-06
-1.99071e-05
1.18076e-05
-3.92664e-06
-2.17031e-05
4.11038e-06
-6.34496e-06
-2.02825e-05
-5.94337e-06
-1.11707e-05
8.12351e-05
-8.62007e-08
-4.54094e-07
8.07056e-05
4.04955e-07
-1.33935e-06
7.98039e-05
9.5094e-07
-2.19354e-06
7.85184e-05
1.52649e-06
-3.05333e-06
7.68119e-05
2.11748e-06
-3.9667e-06
7.46191e-05
2.70966e-06
-4.9947e-06
7.18423e-05
3.2716e-06
-6.20925e-06
6.8352e-05
3.7541e-06
-7.68582e-06
6.39879e-05
4.09215e-06
-9.49488e-06
5.85536e-05
4.21425e-06
-1.16908e-05
5.18108e-05
4.03175e-06
-1.42936e-05
4.34697e-05
3.44865e-06
-1.72582e-05
3.31817e-05
2.32406e-06
-2.03495e-05
2.08787e-05
6.15994e-07
-2.27174e-05
7.97953e-06
-1.52772e-06
-2.16455e-05
-3.09278e-06
-1.19123e-05
9.61501e-05
-1.09254e-07
-3.74565e-07
9.57118e-05
5.18941e-07
-1.11487e-06
9.49468e-05
1.18484e-06
-1.84585e-06
9.38464e-05
1.88565e-06
-2.60203e-06
9.23739e-05
2.62286e-06
-3.41997e-06
9.04597e-05
3.39806e-06
-4.34609e-06
8.79893e-05
4.20223e-06
-5.44258e-06
8.47913e-05
5.0159e-06
-6.78625e-06
8.06306e-05
5.80798e-06
-8.46301e-06
7.5193e-05
6.55402e-06
-1.05566e-05
6.80761e-05
7.22001e-06
-1.31263e-05
5.87469e-05
7.80618e-06
-1.61685e-05
4.65368e-05
8.27754e-06
-1.9538e-05
3.08275e-05
8.6518e-06
-2.25092e-05
1.27946e-05
8.26277e-06
-2.2112e-05
4.3377e-06
-1.22781e-05
0.000107322
-1.30861e-07
-3.23647e-07
0.000106951
6.09495e-07
-9.6372e-07
0.000106303
1.37394e-06
-1.59399e-06
0.000105372
2.17537e-06
-2.24939e-06
0.000104125
3.03158e-06
-2.96313e-06
0.000102498
3.96259e-06
-3.77303e-06
0.000100379
4.98704e-06
-4.73087e-06
9.75872e-05
6.1269e-06
-5.90684e-06
9.38583e-05
7.40344e-06
-7.39022e-06
8.88113e-05
8.87052e-06
-9.28281e-06
8.19333e-05
1.05853e-05
-1.16803e-05
7.24964e-05
1.2721e-05
-1.46303e-05
5.95607e-05
1.54141e-05
-1.80737e-05
4.17572e-05
1.91415e-05
-2.15348e-05
1.89733e-05
2.29041e-05
-2.19962e-05
1.78772e-05
-1.23561e-05
0.000114759
-1.40398e-07
-2.87043e-07
0.000114439
6.80512e-07
-8.56135e-07
0.000113893
1.51445e-06
-1.41158e-06
0.000113117
2.386e-06
-1.98628e-06
0.000112084
3.32761e-06
-2.61111e-06
0.000110739
4.37635e-06
-3.31846e-06
0.000108985
5.57668e-06
-4.15118e-06
0.000106659
6.99139e-06
-5.1692e-06
0.000103513
8.69564e-06
-6.45473e-06
9.91728e-05
1.08311e-05
-8.11083e-06
9.31186e-05
1.35557e-05
-1.02497e-05
8.45392e-05
1.72877e-05
-1.29585e-05
7.23761e-05
2.23696e-05
-1.62332e-05
5.45609e-05
3.02438e-05
-1.99193e-05
2.84644e-05
4.11986e-05
-2.13929e-05
4.10221e-05
-1.21691e-05
0.000118469
-2.59188e-07
-1.32099e-07
0.000118191
-7.74932e-07
7.32905e-07
0.000117739
-1.27374e-06
1.60075e-06
0.000117113
-1.78528e-06
2.50468e-06
0.000116293
-2.33769e-06
3.48889e-06
0.000115238
-2.95917e-06
4.60403e-06
0.000113871
-3.68565e-06
5.91497e-06
0.000112064
-4.56688e-06
7.51537e-06
0.000109621
-5.67346e-06
9.52172e-06
0.000106243
-7.09683e-06
1.21388e-05
0.000101528
-8.94303e-06
1.55902e-05
9.48359e-05
-1.13072e-05
2.04903e-05
8.53133e-05
-1.41988e-05
2.736e-05
7.06643e-05
-1.76463e-05
3.90296e-05
4.62282e-05
-2.03014e-05
5.84189e-05
-1.13634e-05
8.22984e-05
1.46942e-05
-1.41884e-07
-4.78031e-07
1.4337e-05
-3.46144e-08
-8.76237e-07
1.37396e-05
9.78213e-08
-1.1213e-06
1.29482e-05
1.95604e-07
-1.33931e-06
1.19761e-05
2.69926e-07
-1.57863e-06
1.08226e-05
3.2289e-07
-1.86473e-06
9.48887e-06
3.44198e-07
-2.21404e-06
7.98686e-06
3.1664e-07
-2.63784e-06
6.34528e-06
2.17422e-07
-3.14292e-06
4.61598e-06
1.80204e-08
-3.7302e-06
2.88411e-06
-3.18562e-07
-4.39003e-06
1.28579e-06
-8.38885e-07
-5.08925e-06
2.75732e-08
-1.58547e-06
-5.743e-06
-6.47218e-07
-2.49711e-06
-6.14573e-06
-5.21552e-07
-3.2424e-06
-5.7784e-06
-2.52755e-06
-3.5304e-06
4.117e-05
-1.10531e-07
-5.25353e-07
4.04767e-05
8.0983e-08
-1.26954e-06
3.93923e-05
3.49178e-07
-1.84e-06
3.79199e-05
6.07262e-07
-2.34964e-06
3.60523e-05
8.39839e-07
-2.87661e-06
3.3771e-05
1.03385e-06
-3.47681e-06
3.1058e-05
1.15874e-06
-4.19124e-06
2.7907e-05
1.17057e-06
-5.04884e-06
2.43313e-05
1.01471e-06
-6.06697e-06
2.03686e-05
6.28644e-07
-7.24922e-06
1.60947e-05
-6.97812e-08
-8.57773e-06
1.16464e-05
-1.17283e-06
-9.98699e-06
7.27572e-06
-2.78183e-06
-1.12972e-05
3.40372e-06
-4.77385e-06
-1.20297e-05
7.30791e-07
-6.45936e-06
-1.10519e-05
-5.28294e-06
-6.15047e-06
6.40994e-05
-8.89645e-08
-4.00815e-07
6.34166e-05
2.44359e-07
-1.12466e-06
6.23017e-05
6.51452e-07
-1.77145e-06
6.07431e-05
1.07502e-06
-2.38817e-06
5.87113e-05
1.49118e-06
-3.02802e-06
5.61585e-05
1.87871e-06
-3.74463e-06
5.3023e-05
2.1963e-06
-4.58838e-06
4.92378e-05
2.3838e-06
-5.60206e-06
4.47387e-05
2.36621e-06
-6.81681e-06
3.94693e-05
2.05909e-06
-8.24626e-06
3.33871e-05
1.3613e-06
-9.87643e-06
2.64424e-05
1.9465e-07
-1.16443e-05
1.87578e-05
-1.65883e-06
-1.33455e-05
1.0698e-05
-4.03447e-06
-1.43828e-05
3.52393e-06
-6.31764e-06
-1.32501e-05
-5.86537e-06
-7.18018e-06
8.32271e-05
-9.83875e-08
-3.08677e-07
8.26537e-05
3.92363e-07
-9.13968e-07
8.16735e-05
9.37879e-07
-1.49977e-06
8.02725e-05
1.51342e-06
-2.09072e-06
7.84108e-05
2.1048e-06
-2.71867e-06
7.60205e-05
2.69802e-06
-3.4237e-06
7.30003e-05
3.26067e-06
-4.25337e-06
6.92155e-05
3.74054e-06
-5.25782e-06
6.45019e-05
4.06817e-06
-6.48322e-06
5.86643e-05
4.16873e-06
-7.96283e-06
5.14787e-05
3.95533e-06
-9.70199e-06
4.27196e-05
3.34865e-06
-1.16531e-05
3.21246e-05
2.22963e-06
-1.3643e-05
1.98255e-05
6.13546e-07
-1.50663e-05
7.39143e-06
-1.38016e-06
-1.41489e-05
-2.90998e-06
-7.64944e-06
9.85107e-05
-1.22531e-07
-2.5454e-07
9.80358e-05
5.12684e-07
-7.60311e-07
9.72036e-05
1.18511e-06
-1.26081e-06
9.60016e-05
1.89307e-06
-1.77972e-06
9.43893e-05
2.63879e-06
-2.34171e-06
9.22934e-05
3.4249e-06
-2.97701e-06
8.95949e-05
4.24267e-06
-3.72613e-06
8.61173e-05
5.07137e-06
-4.63945e-06
8.16189e-05
5.87685e-06
-5.7733e-06
7.57808e-05
6.63186e-06
-7.18166e-06
6.82067e-05
7.30197e-06
-8.89881e-06
5.84004e-05
7.8965e-06
-1.09101e-05
4.57866e-05
8.40202e-06
-1.30966e-05
2.99472e-05
8.87983e-06
-1.49361e-05
1.22719e-05
8.64911e-06
-1.44659e-05
4.73183e-06
-7.8845e-06
0.000109958
-1.44943e-07
-2.19918e-07
0.000109555
6.08822e-07
-6.57309e-07
0.000108849
1.38642e-06
-1.08874e-06
0.000107828
2.20229e-06
-1.53827e-06
0.000106457
3.07567e-06
-2.02867e-06
0.000104666
4.02827e-06
-2.58477e-06
0.000102337
5.0802e-06
-3.23999e-06
9.9287e-05
6.25434e-06
-4.03974e-06
9.52443e-05
7.5713e-06
-5.04197e-06
8.98215e-05
9.08469e-06
-6.3128e-06
8.25045e-05
1.08511e-05
-7.91242e-06
7.25861e-05
1.30491e-05
-9.86453e-06
5.91993e-05
1.58262e-05
-1.21111e-05
4.11551e-05
1.96883e-05
-1.42991e-05
1.85831e-05
2.36351e-05
-1.44102e-05
1.86037e-05
-7.94794e-06
0.000117579
-1.54566e-07
-1.95001e-07
0.00011723
6.84894e-07
-5.84027e-07
0.000116632
1.5375e-06
-9.64374e-07
0.000115777
2.42979e-06
-1.35861e-06
0.000114633
3.39633e-06
-1.78811e-06
0.000113141
4.47643e-06
-2.27437e-06
0.000111198
5.71688e-06
-2.84503e-06
0.000108639
7.18327e-06
-3.53846e-06
0.00010521
8.95256e-06
-4.40735e-06
0.000100532
1.11698e-05
-5.5183e-06
9.40831e-05
1.39936e-05
-6.94307e-06
8.50604e-05
1.78481e-05
-8.73477e-06
7.24556e-05
2.30753e-05
-1.08774e-05
5.4331e-05
3.11355e-05
-1.32419e-05
2.82915e-05
4.23297e-05
-1.40481e-05
4.22122e-05
-7.85706e-06
0.00012138
-1.76012e-07
-1.454e-07
0.000121076
-5.28632e-07
7.41935e-07
0.000120578
-8.70327e-07
1.63259e-06
0.000119881
-1.22141e-06
2.56212e-06
0.000118964
-1.60139e-06
3.57737e-06
0.000117779
-2.02915e-06
4.73159e-06
0.000116246
-2.52788e-06
6.09245e-06
0.000114234
-3.1293e-06
7.75771e-06
0.000111543
-3.8782e-06
9.84749e-06
0.000107876
-4.83337e-06
1.25734e-05
0.000102829
-6.06262e-06
1.61605e-05
9.5763e-05