/*--------------------------------*- C++ -*----------------------------------*\
| =========                 |                                                 |
| \\      /  F ield         | foam-extend: Open Source CFD                    |
|  \\    /   O peration     | Version:     3.1                                |
|   \\  /    A nd           | Web:         http://www.extend-project.de       |
|    \\/     M anipulation  |                                                 |
\*---------------------------------------------------------------------------*/
FoamFile
{
    version     2.0;
    format      ascii;
    class       pointVectorField;
    location    "3.7";
    object      pointMotionU;
}
// * * * * * * * * * * * * * * * * * * * * * * * * * * * * * * * * * * * * * //

dimensions      [0 1 -1 0 0 0 0];

internalField   nonuniform List<vector> 
16859
(
(0 0 0)
(0 0 0)
(0 0 0)
(0 0 0)
(0 0 0)
(0 0 0)
(0 0 0)
(0 0 0)
(0 0 0)
(0 0 0)
(0 0 0)
(0 0 0)
(0 0 0)
(0 0 0)
(0 0 0)
(0 0 0)
(0 0 0)
(0 0 0)
(5.26829e-12 -8.38026e-12 9.51378e-12)
(9.72836e-12 -1.63713e-11 1.89262e-11)
(1.29293e-11 -2.41089e-11 2.87147e-11)
(1.45165e-11 -3.19392e-11 3.96138e-11)
(1.39581e-11 -4.01515e-11 5.23632e-11)
(1.0424e-11 -4.89817e-11 6.77633e-11)
(2.60768e-12 -5.86015e-11 8.67213e-11)
(-1.15468e-11 -6.90911e-11 1.10282e-10)
(-3.52732e-11 -8.03718e-11 1.39625e-10)
(-7.36369e-11 -9.20877e-11 1.7598e-10)
(-1.34492e-10 -1.03408e-10 2.20353e-10)
(-2.29695e-10 -1.12742e-10 2.7284e-10)
(-3.75834e-10 -1.1749e-10 3.31185e-10)
(-5.9066e-10 -1.14262e-10 3.88251e-10)
(-8.6854e-10 -9.94909e-11 4.28702e-10)
(-2.18993e-09 -6.25059e-11 3.87185e-10)
(0 0 0)
(1.07906e-11 -1.63923e-11 1.86917e-11)
(2.00116e-11 -3.20162e-11 3.71688e-11)
(2.68319e-11 -4.71322e-11 5.63559e-11)
(3.06426e-11 -6.24138e-11 7.76803e-11)
(3.05271e-11 -7.84247e-11 1.02576e-10)
(2.50569e-11 -9.56256e-11 1.32592e-10)
(1.19983e-11 -1.14369e-10 1.69492e-10)
(-1.21337e-11 -1.34851e-10 2.15325e-10)
(-5.27564e-11 -1.57017e-10 2.72469e-10)
(-1.18226e-10 -1.80369e-10 3.43546e-10)
(-2.2121e-10 -2.03638e-10 4.3108e-10)
(-3.80134e-10 -2.24236e-10 5.36537e-10)
(-6.19032e-10 -2.37472e-10 6.58125e-10)
(-9.59192e-10 -2.35841e-10 7.86481e-10)
(-1.38158e-09 -2.09433e-10 8.96527e-10)
(-2.97074e-09 1.24361e-10 1.15922e-09)
(0 0 0)
(1.67672e-11 -2.37058e-11 2.72456e-11)
(3.12846e-11 -4.62832e-11 5.41414e-11)
(4.24632e-11 -6.80965e-11 8.20014e-11)
(4.96121e-11 -9.0111e-11 1.12867e-10)
(5.16774e-11 -1.1313e-10 1.48781e-10)
(4.70179e-11 -1.37819e-10 1.91943e-10)
(3.30918e-11 -1.64706e-10 2.4486e-10)
(5.99023e-12 -1.94149e-10 3.10481e-10)
(-4.02494e-11 -2.26247e-10 3.92321e-10)
(-1.1462e-10 -2.60685e-10 4.94498e-10)
(-2.30386e-10 -2.96431e-10 6.21554e-10)
(-4.06142e-10 -3.31239e-10 7.77657e-10)
(-6.6471e-10 -3.60846e-10 9.64216e-10)
(-1.02317e-09 -3.77934e-10 1.17371e-09)
(-1.45733e-09 -3.71266e-10 1.37359e-09)
(-3.11711e-09 -2.13181e-10 1.84336e-09)
(0 0 0)
(2.32873e-11 -3.00239e-11 3.4931e-11)
(4.37437e-11 -5.85905e-11 6.93493e-11)
(6.01663e-11 -8.61391e-11 1.04878e-10)
(7.19795e-11 -1.13871e-10 1.44066e-10)
(7.82691e-11 -1.42776e-10 1.89441e-10)
(7.76025e-11 -1.73681e-10 2.43709e-10)
(6.7784e-11 -2.07258e-10 3.09947e-10)
(4.55123e-11 -2.4402e-10 3.91798e-10)
(5.89477e-12 -2.84289e-10 4.93686e-10)
(-5.82251e-11 -3.28132e-10 6.21035e-10)
(-1.57113e-10 -3.75257e-10 7.80377e-10)
(-3.04906e-10 -4.24859e-10 9.78983e-10)
(-5.1908e-10 -4.75343e-10 1.22273e-09)
(-8.14114e-10 -5.23667e-10 1.50836e-09)
(-1.17846e-09 -5.61669e-10 1.79863e-09)
(-2.73723e-09 -7.12371e-10 2.57363e-09)
(0 0 0)
(3.03136e-11 -3.5105e-11 4.15661e-11)
(5.73121e-11 -6.84664e-11 8.2427e-11)
(7.98123e-11 -1.00563e-10 1.24421e-10)
(9.75284e-11 -1.3276e-10 1.70472e-10)
(1.09922e-10 -1.66168e-10 2.2345e-10)
(1.16105e-10 -2.01702e-10 2.86386e-10)
(1.14731e-10 -2.40103e-10 3.62698e-10)
(1.03855e-10 -2.8196e-10 4.56414e-10)
(8.0756e-11 -3.27726e-10 5.72454e-10)
(4.17027e-11 -3.77767e-10 7.16974e-10)
(-1.84158e-11 -4.32455e-10 8.97724e-10)
(-1.06705e-10 -4.92348e-10 1.12412e-09)
(-2.33233e-10 -5.58311e-10 1.40564e-09)
(-4.11239e-10 -6.30614e-10 1.74376e-09)
(-6.52267e-10 -7.01828e-10 2.10168e-09)
(-2.00288e-09 -1.11586e-09 3.19787e-09)
(0 0 0)
(3.76888e-11 -3.87712e-11 4.70395e-11)
(7.16572e-11 -7.55672e-11 9.31537e-11)
(1.0084e-10 -1.10869e-10 1.40294e-10)
(1.25356e-10 -1.46124e-10 1.91625e-10)
(1.45183e-10 -1.82487e-10 2.50196e-10)
(1.60158e-10 -2.20872e-10 3.19174e-10)
(1.7001e-10 -2.61976e-10 4.02057e-10)
(1.74438e-10 -3.06311e-10 5.02898e-10)
(1.73228e-10 -3.54234e-10 6.26581e-10)
(1.66432e-10 -4.06048e-10 7.79168e-10)
(1.54459e-10 -4.62205e-10 9.68293e-10)
(1.37717e-10 -5.23707e-10 1.20336e-09)
(1.1474e-10 -5.92534e-10 1.49429e-09)
(7.68531e-11 -6.70702e-10 1.84387e-09)
(-5.29268e-12 -7.50461e-10 2.21758e-09)
(-9.65064e-10 -1.26122e-09 3.46417e-09)
(0 0 0)
(4.5165e-11 -4.09138e-11 5.13129e-11)
(8.6258e-11 -7.96885e-11 1.01459e-10)
(1.22379e-10 -1.16772e-10 1.52406e-10)
(1.54093e-10 -1.53617e-10 2.07419e-10)
(1.8192e-10 -1.9134e-10 2.69581e-10)
(2.06417e-10 -2.30763e-10 3.42007e-10)
(2.2833e-10 -2.72423e-10 4.28035e-10)
(2.48809e-10 -3.16575e-10 5.31403e-10)
(2.69716e-10 -3.63201e-10 6.56452e-10)
(2.94018e-10 -4.12061e-10 8.08342e-10)
(3.26088e-10 -4.62884e-10 9.93244e-10)
(3.71416e-10 -5.15829e-10 1.21823e-09)
(4.34239e-10 -5.72514e-10 1.48974e-09)
(5.09378e-10 -6.3729e-10 1.80653e-09)
(5.56227e-10 -7.10167e-10 2.13385e-09)
(3.30044e-10 -1.46157e-09 3.19722e-09)
(0 0 0)
(5.24378e-11 -4.14936e-11 5.44126e-11)
(1.00483e-10 -8.07647e-11 1.07406e-10)
(1.43398e-10 -1.18202e-10 1.60878e-10)
(1.82164e-10 -1.55195e-10 2.18072e-10)
(2.17762e-10 -1.92754e-10 2.81972e-10)
(2.51324e-10 -2.31535e-10 3.55491e-10)
(2.84329e-10 -2.71825e-10 4.41615e-10)
(3.18856e-10 -3.13491e-10 5.43518e-10)
(3.57921e-10 -3.5592e-10 6.64645e-10)
(4.05799e-10 -3.97953e-10 8.08732e-10)
(4.68111e-10 -4.37835e-10 9.79655e-10)
(5.51019e-10 -4.73257e-10 1.18071e-09)
(6.57871e-10 -5.01576e-10 1.41224e-09)
(7.79776e-10 -5.1967e-10 1.66429e-09)
(8.73218e-10 -5.14742e-10 1.89852e-09)
(2.64543e-10 -1.57389e-09 2.28091e-09)
(0 0 0)
(0 0 0)
(0 0 0)
(0 0 0)
(0 0 0)
(0 0 0)
(0 0 0)
(0 0 0)
(0 0 0)
(0 0 0)
(0 0 0)
(0 0 0)
(0 0 0)
(0 0 0)
(0 0 0)
(0 0 0)
(0 0 0)
(0 0 0)
(5.86901e-12 -9.07096e-12 9.19269e-12)
(1.08923e-11 -1.77472e-11 1.82714e-11)
(1.46191e-11 -2.6201e-11 2.76826e-11)
(1.67069e-11 -3.48314e-11 3.81183e-11)
(1.6625e-11 -4.39747e-11 5.02675e-11)
(1.35321e-11 -5.39087e-11 6.48655e-11)
(6.0977e-12 -6.48376e-11 8.27322e-11)
(-7.76665e-12 -7.68554e-11 1.04796e-10)
(-3.13187e-11 -8.98665e-11 1.32088e-10)
(-6.9597e-11 -1.03452e-10 1.65658e-10)
(-1.30286e-10 -1.16678e-10 2.06335e-10)
(-2.24755e-10 -1.27931e-10 2.54149e-10)
(-3.6851e-10 -1.35135e-10 3.07123e-10)
(-5.76656e-10 -1.37354e-10 3.59154e-10)
(-8.29674e-10 -1.38211e-10 3.97073e-10)
(-1.59573e-09 -3.42138e-10 3.78733e-10)
(0 0 0)
(1.20011e-11 -1.7745e-11 1.80618e-11)
(2.23616e-11 -3.47108e-11 3.58847e-11)
(3.02563e-11 -5.12302e-11 5.43332e-11)
(3.51087e-11 -6.80805e-11 7.4752e-11)
(3.60169e-11 -8.59184e-11 9.84768e-11)
(3.1551e-11 -1.0529e-10 1.26932e-10)
(1.94635e-11 -1.26617e-10 1.6171e-10)
(-3.73886e-12 -1.50134e-10 2.0464e-10)
(-4.34272e-11 -1.75763e-10 2.57805e-10)
(-1.0774e-10 -2.02899e-10 3.23484e-10)
(-2.08703e-10 -2.30053e-10 4.03864e-10)
(-3.63141e-10 -2.54405e-10 5.00298e-10)
(-5.9151e-10 -2.71502e-10 6.11609e-10)
(-9.0717e-10 -2.75986e-10 7.30562e-10)
(-1.26629e-09 -2.65854e-10 8.34917e-10)
(-1.93301e-09 -2.08829e-10 1.03262e-09)
(0 0 0)
(1.86024e-11 -2.56662e-11 2.63295e-11)
(3.48575e-11 -5.01889e-11 5.22753e-11)
(4.76973e-11 -7.40376e-11 7.90652e-11)
(5.64965e-11 -9.8328e-11 1.08624e-10)
(6.02513e-11 -1.24003e-10 1.42852e-10)
(5.7362e-11 -1.51857e-10 1.83773e-10)
(4.53373e-11 -1.82531e-10 2.33655e-10)
(2.03707e-11 -2.16456e-10 2.9513e-10)
(-2.32493e-11 -2.53737e-10 3.71299e-10)
(-9.39064e-11 -2.93941e-10 4.65784e-10)
(-2.03463e-10 -3.35738e-10 5.82646e-10)
(-3.67445e-10 -3.76417e-10 7.25874e-10)
(-6.02334e-10 -4.11361e-10 8.97735e-10)
(-9.1271e-10 -4.34078e-10 1.09357e-09)
(-1.24609e-09 -4.38557e-10 1.28233e-09)
(-1.74429e-09 -4.12785e-10 1.66212e-09)
(0 0 0)
(2.57604e-11 -3.2515e-11 3.37601e-11)
(4.85739e-11 -6.35537e-11 6.69664e-11)
(6.72838e-11 -9.36891e-11 1.01136e-10)
(8.14283e-11 -1.24316e-10 1.38669e-10)
(9.02005e-11 -1.56607e-10 1.81923e-10)
(9.22864e-11 -1.9156e-10 2.33382e-10)
(8.56589e-11 -2.30005e-10 2.95832e-10)
(6.73111e-11 -2.7258e-10 3.72524e-10)
(3.29223e-11 -3.19665e-10 4.67376e-10)
(-2.35179e-11 -3.71251e-10 5.85189e-10)
(-1.09997e-10 -4.26743e-10 7.31872e-10)
(-2.36247e-10 -4.84711e-10 9.14401e-10)
(-4.11651e-10 -5.42668e-10 1.13951e-09)
(-6.36904e-10 -5.9702e-10 1.40687e-09)
(-8.75675e-10 -6.41307e-10 1.6781e-09)
(-1.15874e-09 -7.10761e-10 2.25469e-09)
(0 0 0)
(3.34278e-11 -3.80296e-11 4.01784e-11)
(6.34131e-11 -7.42934e-11 7.96069e-11)
(8.88525e-11 -1.09428e-10 1.20001e-10)
(1.09634e-10 -1.45027e-10 1.64119e-10)
(1.25397e-10 -1.82421e-10 2.14632e-10)
(1.35476e-10 -2.22733e-10 2.74326e-10)
(1.38843e-10 -2.66906e-10 3.46291e-10)
(1.34087e-10 -3.15708e-10 4.34118e-10)
(1.19443e-10 -3.69714e-10 5.42159e-10)
(9.29267e-11 -4.2929e-10 6.75866e-10)
(5.26132e-11 -4.94555e-10 8.42251e-10)
(-2.9772e-12 -5.65338e-10 1.05028e-09)
(-7.4624e-11 -6.40953e-10 1.31009e-09)
(-1.62188e-10 -7.19013e-10 1.62577e-09)
(-2.59821e-10 -7.89177e-10 1.95665e-09)
(-3.28263e-10 -8.59985e-10 2.70455e-09)
(0 0 0)
(4.14305e-11 -4.20164e-11 4.54773e-11)
(7.90065e-11 -8.20328e-11 8.99842e-11)
(1.1178e-10 -1.20705e-10 1.35342e-10)
(1.40107e-10 -1.59738e-10 1.84532e-10)
(1.64221e-10 -2.00531e-10 2.40397e-10)
(1.84286e-10 -2.44233e-10 3.05845e-10)
(2.00507e-10 -2.9178e-10 3.84034e-10)
(2.1335e-10 -3.43902e-10 4.78568e-10)
(2.2392e-10 -4.01141e-10 5.93745e-10)
(2.34573e-10 -4.6388e-10 7.34902e-10)
(2.49754e-10 -5.32412e-10 9.08894e-10)
(2.76768e-10 -6.07035e-10 1.12459e-09)
(3.25218e-10 -6.87861e-10 1.39237e-09)
(4.01455e-10 -7.72768e-10 1.71736e-09)
(4.87884e-10 -8.47937e-10 2.06032e-09)
(7.33938e-10 -7.30737e-10 2.86222e-09)
(0 0 0)
(4.94994e-11 -4.4356e-11 4.96195e-11)
(9.47879e-11 -8.65461e-11 9.80301e-11)
(1.35118e-10 -1.27204e-10 1.47066e-10)
(1.71353e-10 -1.68055e-10 1.99807e-10)
(2.04335e-10 -2.10476e-10 2.59125e-10)
(2.35041e-10 -2.55539e-10 3.27881e-10)
(2.64814e-10 -3.04034e-10 4.09081e-10)
(2.95747e-10 -3.5646e-10 5.06035e-10)
(3.31266e-10 -4.13016e-10 6.22532e-10)
(3.7699e-10 -4.73595e-10 7.63063e-10)
(4.41832e-10 -5.37854e-10 9.3309e-10)
(5.38985e-10 -6.05436e-10 1.13922e-09)
(6.8534e-10 -6.766e-10 1.38841e-09)
(8.94029e-10 -7.53151e-10 1.68193e-09)
(1.13716e-09 -8.33387e-10 1.98261e-09)
(2.09621e-09 -6.9979e-10 2.65341e-09)
(0 0 0)
(5.73085e-11 -4.50033e-11 5.26303e-11)
(1.10079e-10 -8.77566e-11 1.03806e-10)
(1.57759e-10 -1.28838e-10 1.55292e-10)
(2.01669e-10 -1.69912e-10 2.10152e-10)
(2.43169e-10 -2.12252e-10 2.71167e-10)
(2.83868e-10 -2.56767e-10 3.41009e-10)
(3.25906e-10 -3.03991e-10 4.22364e-10)
(3.72381e-10 -3.54034e-10 5.18025e-10)
(4.27929e-10 -4.06492e-10 6.30966e-10)
(4.99471e-10 -4.60327e-10 7.64372e-10)
(5.96993e-10 -5.13694e-10 9.21584e-10)
(7.33778e-10 -5.63746e-10 1.10566e-09)
(9.24426e-10 -6.06443e-10 1.31761e-09)
(1.17584e-09 -6.35985e-10 1.55005e-09)
(1.46046e-09 -6.36127e-10 1.76631e-09)
(2.15325e-09 -7.72344e-10 2.05912e-09)
(0 0 0)
(0 0 0)
(0 0 0)
(0 0 0)
(0 0 0)
(0 0 0)
(0 0 0)
(0 0 0)
(0 0 0)
(0 0 0)
(0 0 0)
(0 0 0)
(0 0 0)
(0 0 0)
(0 0 0)
(0 0 0)
(0 0 0)
(0 0 0)
(6.44047e-12 -9.74612e-12 8.53568e-12)
(1.19992e-11 -1.90952e-11 1.69494e-11)
(1.62248e-11 -2.82575e-11 2.56382e-11)
(1.8785e-11 -3.76861e-11 3.52212e-11)
(1.91503e-11 -4.77674e-11 4.6301e-11)
(1.64724e-11 -5.88243e-11 5.94992e-11)
(9.41376e-12 -7.10998e-11 7.54769e-11)
(-4.0981e-12 -8.47095e-11 9.49314e-11)
(-2.72137e-11 -9.95492e-11 1.18553e-10)
(-6.46078e-11 -1.15141e-10 1.46897e-10)
(-1.22953e-10 -1.30428e-10 1.80093e-10)
(-2.1109e-10 -1.43641e-10 2.17252e-10)
(-3.38744e-10 -1.52651e-10 2.55407e-10)
(-5.09875e-10 -1.568e-10 2.88114e-10)
(-6.96621e-10 -1.60019e-10 3.05595e-10)
(-1.24672e-09 -2.68708e-10 2.59666e-10)
(0 0 0)
(1.31525e-11 -1.90677e-11 1.67723e-11)
(2.45959e-11 -3.73519e-11 3.32912e-11)
(3.35088e-11 -5.52603e-11 5.03256e-11)
(3.93423e-11 -7.3677e-11 6.90787e-11)
(4.1207e-11 -9.33575e-11 9.07189e-11)
(3.76747e-11 -1.14941e-10 1.16451e-10)
(2.65055e-11 -1.3893e-10 1.47559e-10)
(4.26826e-12 -1.6561e-10 1.85421e-10)
(-3.41622e-11 -1.94905e-10 2.31451e-10)
(-9.61841e-11 -2.26105e-10 2.86929e-10)
(-1.91861e-10 -2.5748e-10 3.52585e-10)
(-3.33245e-10 -2.85832e-10 4.27717e-10)
(-5.30122e-10 -3.06394e-10 5.08529e-10)
(-7.75968e-10 -3.14131e-10 5.85484e-10)
(-1.01345e-09 -3.08516e-10 6.40673e-10)
(-1.25714e-09 -2.13449e-10 6.69629e-10)
(0 0 0)
(2.03472e-11 -2.75837e-11 2.44527e-11)
(3.82528e-11 -5.40181e-11 4.85033e-11)
(5.26649e-11 -7.98825e-11 7.3244e-11)
(6.3015e-11 -1.06449e-10 1.00397e-10)
(6.83402e-11 -1.34806e-10 1.31627e-10)
(6.70771e-11 -1.65891e-10 1.68644e-10)
(5.6793e-11 -2.00473e-10 2.13278e-10)
(3.38361e-11 -2.39083e-10 2.67517e-10)
(-7.07812e-12 -2.81856e-10 3.33488e-10)
(-7.32273e-11 -3.28252e-10 4.13333e-10)
(-1.73775e-10 -3.76606e-10 5.08851e-10)
(-3.18019e-10 -4.23553e-10 6.20636e-10)
(-5.091e-10 -4.63558e-10 7.4611e-10)
(-7.27826e-10 -4.89478e-10 8.75196e-10)
(-9.07359e-10 -4.96384e-10 9.81475e-10)
(-8.7356e-10 -4.65789e-10 1.09665e-09)
(0 0 0)
(2.81106e-11 -3.49519e-11 3.13583e-11)
(5.31614e-11 -6.84207e-11 6.21447e-11)
(7.40339e-11 -1.0112e-10 9.37074e-11)
(9.03648e-11 -1.34645e-10 1.28197e-10)
(1.01436e-10 -1.70361e-10 1.67677e-10)
(1.0603e-10 -2.09455e-10 2.14249e-10)
(1.0227e-10 -2.52939e-10 2.70158e-10)
(8.74408e-11 -3.01612e-10 3.37861e-10)
(5.78679e-11 -3.55943e-10 4.20057e-10)
(8.97962e-12 -4.15861e-10 5.19654e-10)
(-6.40603e-11 -4.804e-10 6.39562e-10)
(-1.64304e-10 -5.4719e-10 7.81996e-10)
(-2.87824e-10 -6.1189e-10 9.4634e-10)
(-4.13148e-10 -6.68034e-10 1.12294e-09)
(-4.92799e-10 -7.07558e-10 1.27721e-09)
(-2.57265e-10 -7.85315e-10 1.46793e-09)
(0 0 0)
(3.6386e-11 -4.08913e-11 3.73271e-11)
(6.92051e-11 -8.00093e-11 7.38905e-11)
(9.74215e-11 -1.18157e-10 1.11215e-10)
(1.21073e-10 -1.57167e-10 1.51772e-10)
(1.39952e-10 -1.98601e-10 1.97902e-10)
(1.53569e-10 -2.43814e-10 2.51962e-10)
(1.61164e-10 -2.93986e-10 3.16439e-10)
(1.61788e-10 -3.50107e-10 3.94039e-10)
(1.54567e-10 -4.1293e-10 4.87746e-10)
(1.39269e-10 -4.82845e-10 6.00854e-10)
(1.17419e-10 -5.59645e-10 7.36868e-10)
(9.41167e-11 -6.42014e-10 8.98954e-10)
(8.0342e-11 -7.26402e-10 1.08775e-09)
(9.34058e-11 -8.04658e-10 1.29403e-09)
(1.43468e-10 -8.60861e-10 1.47821e-09)
(4.89971e-10 -9.51028e-10 1.71235e-09)
(0 0 0)
(4.49839e-11 -4.51928e-11 4.22597e-11)
(8.59821e-11 -8.83782e-11 8.35443e-11)
(1.22147e-10 -1.30398e-10 1.25471e-10)
(1.54044e-10 -1.73223e-10 1.70715e-10)
(1.82123e-10 -2.18514e-10 2.21768e-10)
(2.06814e-10 -2.67689e-10 2.81092e-10)
(2.28712e-10 -3.21962e-10 3.51224e-10)
(2.4892e-10 -3.82348e-10 4.3486e-10)
(2.69673e-10 -4.49649e-10 5.34909e-10)
(2.95383e-10 -5.24396e-10 6.545e-10)
(3.3424e-10 -6.0669e-10 7.96878e-10)
(4.00158e-10 -6.95724e-10 9.64835e-10)
(5.13458e-10 -7.88223e-10 1.15849e-09)
(6.9371e-10 -8.73949e-10 1.36781e-09)
(9.20469e-10 -9.28709e-10 1.55208e-09)
(1.46119e-09 -8.39753e-10 1.76782e-09)
(0 0 0)
(5.3616e-11 -4.77269e-11 4.61214e-11)
(1.02885e-10 -9.32803e-11 9.10423e-11)
(1.47194e-10 -1.37491e-10 1.36391e-10)
(1.87666e-10 -1.8237e-10 1.84933e-10)
(2.25425e-10 -2.29573e-10 2.3919e-10)
(2.61793e-10 -2.8046e-10 3.01584e-10)
(2.98603e-10 -3.36129e-10 3.74527e-10)
(3.38724e-10 -3.97404e-10 4.60473e-10)
(3.86887e-10 -4.6481e-10 5.61921e-10)
(4.50976e-10 -5.38497e-10 6.81345e-10)
(5.43861e-10 -6.18122e-10 8.20969e-10)
(6.8552e-10 -7.02544e-10 9.82057e-10)
(9.03656e-10 -7.89073e-10 1.16271e-09)
(1.22474e-09 -8.71313e-10 1.35138e-09)
(1.6176e-09 -9.33775e-10 1.51036e-09)
(2.92198e-09 -8.41407e-10 1.64186e-09)
(0 0 0)
(6.19357e-11 -4.84422e-11 4.8935e-11)
(1.19192e-10 -9.4627e-11 9.64401e-11)
(1.71378e-10 -1.39333e-10 1.44082e-10)
(2.20121e-10 -1.84517e-10 1.94614e-10)
(2.67108e-10 -2.31735e-10 2.50483e-10)
(3.14345e-10 -2.82191e-10 3.13955e-10)
(3.6453e-10 -3.36732e-10 3.87181e-10)
(4.21597e-10 -3.95805e-10 4.72206e-10)
(4.91536e-10 -4.59355e-10 5.70912e-10)
(5.8352e-10 -5.26651e-10 6.84848e-10)
(7.1133e-10 -5.9597e-10 8.14867e-10)
(8.94568e-10 -6.64009e-10 9.60252e-10)
(1.15782e-09 -7.24696e-10 1.1166e-09)
(1.52126e-09 -7.66482e-10 1.27079e-09)
(1.96537e-09 -7.62812e-10 1.39169e-09)
(3.17046e-09 -1.02078e-09 1.48905e-09)
(0 0 0)
(0 0 0)
(0 0 0)
(0 0 0)
(0 0 0)
(0 0 0)
(0 0 0)
(0 0 0)
(0 0 0)
(0 0 0)
(0 0 0)
(0 0 0)
(0 0 0)
(0 0 0)
(0 0 0)
(0 0 0)
(0 0 0)
(0 0 0)
(6.95827e-12 -1.03802e-11 7.57895e-12)
(1.29995e-11 -2.03636e-11 1.50341e-11)
(1.76679e-11 -3.01987e-11 2.27003e-11)
(2.0635e-11 -4.03922e-11 3.11014e-11)
(2.13623e-11 -5.13812e-11 4.07302e-11)
(1.89791e-11 -6.35375e-11 5.20661e-11)
(1.21144e-11 -7.71481e-11 6.55722e-11)
(-1.33164e-12 -9.23609e-11 8.16585e-11)
(-2.44814e-11 -1.09076e-10 1.0059e-10)
(-6.18e-11 -1.26767e-10 1.223e-10)
(-1.19303e-10 -1.44231e-10 1.46045e-10)
(-2.04271e-10 -1.59368e-10 1.69844e-10)
(-3.23547e-10 -1.69337e-10 1.89751e-10)
(-4.77986e-10 -1.71904e-10 1.99659e-10)
(-6.43256e-10 -1.68613e-10 1.94788e-10)
(-1.21325e-09 -2.14855e-10 1.24787e-10)
(0 0 0)
(1.41957e-11 -2.03101e-11 1.48937e-11)
(2.66151e-11 -3.98375e-11 2.95321e-11)
(3.64325e-11 -5.90653e-11 4.45638e-11)
(4.31123e-11 -7.89834e-11 6.10074e-11)
(4.57564e-11 -1.00449e-10 7.98182e-11)
(4.29036e-11 -1.24199e-10 1.01926e-10)
(3.22632e-11 -1.5083e-10 1.28231e-10)
(1.03646e-11 -1.807e-10 1.59548e-10)
(-2.78571e-11 -2.13761e-10 1.9645e-10)
(-8.94228e-11 -2.49233e-10 2.38956e-10)
(-1.83239e-10 -2.85138e-10 2.85962e-10)
(-3.18623e-10 -3.17722e-10 3.34307e-10)
(-5.003e-10 -3.41103e-10 3.77553e-10)
(-7.16172e-10 -3.48169e-10 4.05503e-10)
(-9.14501e-10 -3.3582e-10 4.09044e-10)
(-1.16425e-09 -1.79033e-10 3.33138e-10)
(0 0 0)
(2.19285e-11 -2.93853e-11 2.17168e-11)
(4.13218e-11 -5.7623e-11 4.30332e-11)
(5.71318e-11 -8.54026e-11 6.487e-11)
(6.88235e-11 -1.14152e-10 8.86864e-11)
(7.54399e-11 -1.4511e-10 1.15844e-10)
(7.53958e-11 -1.79364e-10 1.47664e-10)
(6.62175e-11 -2.17832e-10 1.85428e-10)
(4.42302e-11 -2.61175e-10 2.30318e-10)
(4.24804e-12 -3.09606e-10 2.83234e-10)
(-6.05386e-11 -3.62547e-10 3.44433e-10)
(-1.57944e-10 -4.18067e-10 4.12861e-10)
(-2.94184e-10 -4.72142e-10 4.85042e-10)
(-4.66885e-10 -5.17995e-10 5.53489e-10)
(-6.5121e-10 -5.46579e-10 6.05533e-10)
(-7.87453e-10 -5.51316e-10 6.27247e-10)
(-7.77411e-10 -4.85714e-10 5.67819e-10)
(0 0 0)
(3.02409e-11 -3.72421e-11 2.78549e-11)
(5.73094e-11 -7.3004e-11 5.51473e-11)
(8.01071e-11 -1.08142e-10 8.3014e-11)
(9.83364e-11 -1.4445e-10 1.13279e-10)
(1.11317e-10 -1.83491e-10 1.4763e-10)
(1.17846e-10 -2.26654e-10 1.87692e-10)
(1.16046e-10 -2.75161e-10 2.35038e-10)
(1.03234e-10 -3.30011e-10 2.91126e-10)
(7.58895e-11 -3.91837e-10 3.57118e-10)
(2.99405e-11 -4.60622e-10 4.33506e-10)
(-3.82049e-11 -5.35216e-10 5.1942e-10)
(-1.29043e-10 -6.1263e-10 6.1141e-10)
(-2.34656e-10 -6.8728e-10 7.01495e-10)
(-3.30995e-10 -7.51007e-10 7.75025e-10)
(-3.7995e-10 -7.94806e-10 8.13174e-10)
(-2.40658e-10 -8.72755e-10 7.62234e-10)
(0 0 0)
(3.90686e-11 -4.35812e-11 3.31642e-11)
(7.44452e-11 -8.5394e-11 6.55872e-11)
(1.05138e-10 -1.26409e-10 9.85543e-11)
(1.31294e-10 -1.68698e-10 1.34163e-10)
(1.52788e-10 -2.14059e-10 1.74332e-10)
(1.69202e-10 -2.64099e-10 2.20883e-10)
(1.7985e-10 -3.20265e-10 2.75556e-10)
(1.83904e-10 -3.83831e-10 3.39943e-10)
(1.80743e-10 -4.55823e-10 4.15306e-10)
(1.70686e-10 -5.36835e-10 5.02187e-10)
(1.56333e-10 -6.26665e-10 5.99691e-10)
(1.44534e-10 -7.23599e-10 7.04147e-10)
(1.47965e-10 -8.23058e-10 8.0681e-10)
(1.81966e-10 -9.15484e-10 8.9097e-10)
(2.44058e-10 -9.84323e-10 9.3433e-10)
(4.02732e-10 -1.11987e-09 8.69002e-10)
(0 0 0)
(4.82081e-11 -4.81799e-11 3.75568e-11)
(9.22982e-11 -9.43585e-11 7.41789e-11)
(1.31496e-10 -1.39565e-10 1.11229e-10)
(1.66521e-10 -1.8604e-10 1.50982e-10)
(1.97963e-10 -2.35712e-10 1.95484e-10)
(2.26393e-10 -2.90288e-10 2.46637e-10)
(2.52568e-10 -3.51303e-10 3.06213e-10)
(2.77831e-10 -4.20133e-10 3.75775e-10)
(3.04813e-10 -4.97968e-10 4.56476e-10)
(3.38615e-10 -5.85721e-10 5.48644e-10)
(3.88543e-10 -6.83788e-10 6.51003e-10)
(4.69954e-10 -7.91411e-10 7.59205e-10)
(6.03729e-10 -9.04962e-10 8.63255e-10)
(8.04971e-10 -1.01372e-09 9.44271e-10)
(1.03819e-09 -1.09312e-09 9.78343e-10)
(1.35302e-09 -1.10256e-09 8.64587e-10)
(0 0 0)
(5.73541e-11 -5.08981e-11 4.10014e-11)
(1.10224e-10 -9.96301e-11 8.08653e-11)
(1.58099e-10 -1.47227e-10 1.20964e-10)
(2.02305e-10 -1.95987e-10 1.63651e-10)
(2.4416e-10 -2.47853e-10 2.11004e-10)
(2.85191e-10 -3.04502e-10 2.64899e-10)
(3.27489e-10 -3.67388e-10 3.27015e-10)
(3.74275e-10 -4.37749e-10 3.98739e-10)
(4.3083e-10 -5.16588e-10 4.80947e-10)
(5.05918e-10 -6.04601e-10 5.73558e-10)
(6.13772e-10 -7.02032e-10 6.74726e-10)
(7.76169e-10 -8.08354e-10 7.79364e-10)
(1.02207e-09 -9.21634e-10 8.76618e-10)
(1.37498e-09 -1.03702e-09 9.46924e-10)
(1.78961e-09 -1.14046e-09 9.6719e-10)
(2.96692e-09 -1.23265e-09 7.85025e-10)
(0 0 0)
(6.61417e-11 -5.16788e-11 4.35179e-11)
(1.27463e-10 -1.01108e-10 8.56943e-11)
(1.83699e-10 -1.49272e-10 1.27849e-10)
(2.36723e-10 -1.98419e-10 1.72332e-10)
(2.88461e-10 -2.50403e-10 2.21163e-10)
(3.41181e-10 -3.0675e-10 2.76106e-10)
(3.979e-10 -3.68676e-10 3.38652e-10)
(4.62992e-10 -4.37063e-10 4.0992e-10)
(5.43098e-10 -5.12373e-10 4.90421e-10)
(6.48398e-10 -5.94492e-10 5.79627e-10)
(7.94214e-10 -6.82431e-10 6.75224e-10)
(1.00233e-09 -7.73794e-10 7.71884e-10)
(1.29974e-09 -8.63823e-10 8.59452e-10)
(1.70709e-09 -9.43396e-10 9.21524e-10)
(2.19917e-09 -9.89831e-10 9.40687e-10)
(3.35666e-09 -1.54699e-09 8.02266e-10)
(0 0 0)
(0 0 0)
(0 0 0)
(0 0 0)
(0 0 0)
(0 0 0)
(0 0 0)
(0 0 0)
(0 0 0)
(0 0 0)
(0 0 0)
(0 0 0)
(0 0 0)
(0 0 0)
(0 0 0)
(0 0 0)
(0 0 0)
(0 0 0)
(7.4018e-12 -1.09461e-11 6.36758e-12)
(1.38523e-11 -2.14977e-11 1.26179e-11)
(1.88865e-11 -3.19393e-11 1.90169e-11)
(2.21702e-11 -4.2828e-11 2.5981e-11)
(2.3141e-11 -5.46498e-11 3.38848e-11)
(2.08787e-11 -6.78256e-11 4.30623e-11)
(1.39275e-11 -8.26907e-11 5.37842e-11)
(5.8235e-14 -9.94346e-11 6.61947e-11)
(-2.40297e-11 -1.17981e-10 8.01861e-11)
(-6.30209e-11 -1.37784e-10 9.51834e-11)
(-1.23175e-10 -1.57538e-10 1.0981e-10)
(-2.12081e-10 -1.74878e-10 1.2147e-10)
(-3.37277e-10 -1.864e-10 1.26095e-10)
(-5.01597e-10 -1.88885e-10 1.19054e-10)
(-6.83225e-10 -1.8315e-10 1.00313e-10)
(-1.3532e-09 -2.27729e-10 2.41879e-11)
(0 0 0)
(1.50896e-11 -2.1419e-11 1.25143e-11)
(2.83374e-11 -4.20599e-11 2.47885e-11)
(3.89034e-11 -6.24772e-11 3.73373e-11)
(4.62458e-11 -8.37601e-11 5.09712e-11)
(4.94267e-11 -1.06863e-10 6.64165e-11)
(4.68968e-11 -1.32625e-10 8.43211e-11)
(3.62102e-11 -1.61739e-10 1.05213e-10)
(1.36522e-11 -1.94659e-10 1.29384e-10)
(-2.61928e-11 -2.31396e-10 1.56667e-10)
(-9.08074e-11 -2.71166e-10 1.86044e-10)
(-1.89672e-10 -3.11836e-10 2.15058e-10)
(-3.32876e-10 -3.4922e-10 2.39084e-10)
(-5.26615e-10 -3.76505e-10 2.50945e-10)
(-7.62115e-10 -3.84945e-10 2.42623e-10)
(-9.90649e-10 -3.69986e-10 2.14132e-10)
(-1.3752e-09 -1.94576e-10 1.05174e-10)
(0 0 0)
(2.32842e-11 -3.09935e-11 1.82501e-11)
(4.39417e-11 -6.08466e-11 3.61268e-11)
(6.09121e-11 -9.03537e-11 5.43612e-11)
(7.36633e-11 -1.21088e-10 7.41154e-11)
(8.11965e-11 -1.54435e-10 9.6425e-11)
(8.18196e-11 -1.91633e-10 1.22211e-10)
(7.28596e-11 -2.33759e-10 1.52225e-10)
(5.03126e-11 -2.81629e-10 1.869e-10)
(8.48811e-12 -3.35591e-10 2.26052e-10)
(-6.01589e-11 -3.95123e-10 2.68379e-10)
(-1.64503e-10 -4.5819e-10 3.10691e-10)
(-3.12393e-10 -5.20345e-10 3.46981e-10)
(-5.04359e-10 -5.7385e-10 3.67946e-10)
(-7.20709e-10 -6.07952e-10 3.63167e-10)
(-9.04161e-10 -6.14174e-10 3.32213e-10)
(-1.08775e-09 -5.4007e-10 2.07325e-10)
(0 0 0)
(3.2069e-11 -3.92868e-11 2.34127e-11)
(6.08546e-11 -7.71038e-11 4.63068e-11)
(8.52563e-11 -1.14441e-10 6.95846e-11)
(1.05e-10 -1.53282e-10 9.46999e-11)
(1.19379e-10 -1.9538e-10 1.22938e-10)
(1.27088e-10 -2.42328e-10 1.55434e-10)
(1.26042e-10 -2.95568e-10 1.93107e-10)
(1.1319e-10 -3.56338e-10 2.36491e-10)
(8.43998e-11 -4.25505e-10 2.85387e-10)
(3.46061e-11 -5.0324e-10 3.38285e-10)
(-4.14183e-11 -5.88458e-10 3.91465e-10)
(-1.47007e-10 -6.77969e-10 4.37885e-10)
(-2.79352e-10 -7.65544e-10 4.66523e-10)
(-4.22489e-10 -8.41711e-10 4.64748e-10)
(-5.40274e-10 -8.95132e-10 4.31298e-10)
(-6.61801e-10 -9.84548e-10 2.88129e-10)
(0 0 0)
(4.13732e-11 -4.59838e-11 2.78821e-11)
(7.89303e-11 -9.02124e-11 5.50882e-11)
(1.11696e-10 -1.33816e-10 8.26389e-11)
(1.3987e-10 -1.79091e-10 1.12209e-10)
(1.63332e-10 -2.28067e-10 1.45261e-10)
(1.81594e-10 -2.82602e-10 1.83069e-10)
(1.9379e-10 -3.44429e-10 2.26646e-10)
(1.98743e-10 -4.15147e-10 2.76557e-10)
(1.95197e-10 -4.9614e-10 3.32541e-10)
(1.82342e-10 -5.88384e-10 3.92863e-10)
(1.60726e-10 -6.92023e-10 4.53312e-10)
(1.33348e-10 -8.05582e-10 5.05872e-10)
(1.05713e-10 -9.2449e-10 5.37778e-10)
(8.20746e-11 -1.0386e-09 5.33951e-10)
(5.76805e-11 -1.12823e-09 4.9247e-10)
(-1.06671e-10 -1.30282e-09 3.17333e-10)
(0 0 0)
(5.09817e-11 -5.08486e-11 3.1584e-11)
(9.77134e-11 -9.9712e-11 6.23251e-11)
(1.3946e-10 -1.47798e-10 9.33054e-11)
(1.77033e-10 -1.976e-10 1.26343e-10)
(2.11068e-10 -2.51309e-10 1.63005e-10)
(2.42116e-10 -3.10924e-10 2.04622e-10)
(2.70817e-10 -3.7832e-10 2.5222e-10)
(2.98238e-10 -4.5528e-10 3.06318e-10)
(3.26457e-10 -5.43485e-10 3.66527e-10)
(3.59512e-10 -6.44437e-10 4.30862e-10)
(4.04651e-10 -7.59239e-10 4.94656e-10)
(4.73178e-10 -8.87989e-10 5.49041e-10)
(5.78254e-10 -1.0281e-09 5.7966e-10)
(7.22988e-10 -1.16958e-09 5.68929e-10)
(8.69182e-10 -1.28409e-09 5.141e-10)
(8.41211e-10 -1.36159e-09 2.87372e-10)
(0 0 0)
(6.05744e-11 -5.37323e-11 3.44919e-11)
(1.16528e-10 -1.05316e-10 6.79686e-11)
(1.67414e-10 -1.55974e-10 1.0152e-10)
(2.14692e-10 -2.08275e-10 1.37032e-10)
(2.5977e-10 -2.64444e-10 1.761e-10)
(3.04216e-10 -3.26478e-10 2.20041e-10)
(3.5008e-10 -3.96208e-10 2.69823e-10)
(4.0042e-10 -4.7534e-10 3.25855e-10)
(4.60125e-10 -5.65466e-10 3.8759e-10)
(5.37139e-10 -6.68047e-10 4.52848e-10)
(6.44032e-10 -7.8435e-10 5.16737e-10)
(7.99231e-10 -9.15316e-10 5.70145e-10)
(1.02524e-09 -1.06124e-09 5.98321e-10)
(1.33539e-09 -1.22009e-09 5.82638e-10)
(1.68139e-09 -1.37526e-09 5.1869e-10)
(2.61e-09 -1.59051e-09 2.39112e-10)
(0 0 0)
(6.97704e-11 -5.45724e-11 3.6622e-11)
(1.3458e-10 -1.06914e-10 7.2058e-11)
(1.94253e-10 -1.58205e-10 1.07356e-10)
(2.50831e-10 -2.10971e-10 1.44404e-10)
(3.06376e-10 -2.67357e-10 1.8476e-10)
(3.6325e-10 -3.29217e-10 2.29669e-10)
(4.24508e-10 -3.9816e-10 2.79988e-10)
(4.94476e-10 -4.75559e-10 3.35986e-10)
(5.79579e-10 -5.62505e-10 3.9698e-10)
(6.89479e-10 -6.59716e-10 4.60738e-10)
(8.3839e-10 -7.6735e-10 5.22577e-10)
(1.04585e-09 -8.84684e-10 5.74236e-10)
(1.33455e-09 -1.00952e-09 6.03147e-10)
(1.71847e-09 -1.13616e-09 5.94793e-10)
(2.16896e-09 -1.24262e-09 5.46496e-10)
(3.15393e-09 -2.00988e-09 2.91929e-10)
(0 0 0)
(0 0 0)
(0 0 0)
(0 0 0)
(0 0 0)
(0 0 0)
(0 0 0)
(0 0 0)
(0 0 0)
(0 0 0)
(0 0 0)
(0 0 0)
(0 0 0)
(0 0 0)
(0 0 0)
(0 0 0)
(0 0 0)
(0 0 0)
(7.75641e-12 -1.1418e-11 4.95205e-12)
(1.453e-11 -2.24448e-11 9.80342e-12)
(1.9843e-11 -3.33966e-11 1.47494e-11)
(2.33472e-11 -4.4874e-11 2.00966e-11)
(2.44438e-11 -5.74069e-11 2.61062e-11)
(2.21401e-11 -7.1462e-11 3.29861e-11)
(1.48506e-11 -8.7422e-11 4.08573e-11)
(1.25241e-13 -1.05524e-10 4.96818e-11)
(-2.57001e-11 -1.2573e-10 5.91345e-11)
(-6.78954e-11 -1.47517e-10 6.84038e-11)
(-1.3365e-10 -1.69563e-10 7.59305e-11)
(-2.32006e-10 -1.89438e-10 7.91805e-11)
(-3.72651e-10 -2.03643e-10 7.47862e-11)
(-5.6077e-10 -2.0898e-10 5.99732e-11)
(-7.72499e-10 -2.06509e-10 3.74978e-11)
(-1.53853e-09 -2.78993e-10 -2.87087e-11)
(0 0 0)
(1.58047e-11 -2.23435e-11 9.73315e-12)
(2.97071e-11 -4.3916e-11 1.92611e-11)
(4.08454e-11 -6.53338e-11 2.89619e-11)
(4.86545e-11 -8.77728e-11 3.94325e-11)
(5.21307e-11 -1.12275e-10 5.11798e-11)
(4.95907e-11 -1.39771e-10 6.46071e-11)
(3.83433e-11 -1.71053e-10 7.99511e-11)
(1.4251e-11 -2.06675e-10 9.71467e-11)
(-2.88088e-11 -2.46742e-10 1.15589e-10)
(-9.94736e-11 -2.90528e-10 1.33763e-10)
(-2.09069e-10 -3.35893e-10 1.48766e-10)
(-3.70543e-10 -3.78518e-10 1.55921e-10)
(-5.94111e-10 -4.1129e-10 1.49128e-10)
(-8.74772e-10 -4.25011e-10 1.23654e-10)
(-1.15843e-09 -4.14564e-10 8.50611e-11)
(-1.67503e-09 -2.48923e-10 -1.33866e-11)
(0 0 0)
(2.43698e-11 -3.23346e-11 1.41961e-11)
(4.60281e-11 -6.35394e-11 2.80754e-11)
(6.38897e-11 -9.44994e-11 4.21751e-11)
(7.73987e-11 -1.26916e-10 5.73514e-11)
(8.54743e-11 -1.62304e-10 7.43281e-11)
(8.62475e-11 -2.02043e-10 9.36787e-11)
(7.67132e-11 -2.47362e-10 1.15741e-10)
(5.22801e-11 -2.99245e-10 1.40432e-10)
(6.2525e-12 -3.58206e-10 1.66925e-10)
(-7.05968e-11 -4.23862e-10 1.93145e-10)
(-1.89887e-10 -4.94238e-10 2.15127e-10)
(-3.63748e-10 -5.64772e-10 2.26514e-10)
(-5.98619e-10 -6.27298e-10 2.19113e-10)
(-8.79873e-10 -6.7013e-10 1.86817e-10)
(-1.14143e-09 -6.8313e-10 1.37489e-10)
(-1.51231e-09 -6.19555e-10 1.56552e-11)
(0 0 0)
(3.35347e-11 -4.09925e-11 1.82153e-11)
(6.36829e-11 -8.0529e-11 3.59942e-11)
(8.93235e-11 -1.19717e-10 5.39999e-11)
(1.10169e-10 -1.60706e-10 7.33047e-11)
(1.2543e-10 -2.05418e-10 9.48087e-11)
(1.33608e-10 -2.55634e-10 1.19219e-10)
(1.32237e-10 -3.1301e-10 1.46947e-10)
(1.17573e-10 -3.79027e-10 1.77889e-10)
(8.42617e-11 -4.54819e-10 2.11038e-10)
(2.51324e-11 -5.40828e-10 2.43875e-10)
(-6.85741e-11 -6.36186e-10 2.71592e-10)
(-2.05824e-10 -7.37763e-10 2.86457e-10)
(-3.91684e-10 -8.39005e-10 2.78454e-10)
(-6.16947e-10 -9.29316e-10 2.40075e-10)
(-8.34129e-10 -9.94577e-10 1.80908e-10)
(-1.19158e-09 -1.10051e-09 3.55274e-11)
(0 0 0)
(4.32238e-11 -4.79884e-11 2.16974e-11)
(8.25159e-11 -9.42391e-11 4.28312e-11)
(1.16892e-10 -1.40022e-10 6.41515e-11)
(1.46559e-10 -1.87831e-10 8.68954e-11)
(1.7133e-10 -2.399e-10 1.1209e-10)
(1.90534e-10 -2.98321e-10 1.40529e-10)
(2.02921e-10 -3.65098e-10 1.72663e-10)
(2.06589e-10 -4.42156e-10 2.08353e-10)
(1.98966e-10 -5.31267e-10 2.46431e-10)
(1.76913e-10 -6.33849e-10 2.84025e-10)
(1.3698e-10 -7.50517e-10 3.15645e-10)
(7.56431e-11 -8.80183e-10 3.32375e-10)
(-1.08819e-11 -1.01829e-09 3.22423e-10)
(-1.26564e-10 -1.15356e-09 2.76514e-10)