/*--------------------------------*- C++ -*----------------------------------*\
| =========                 |                                                 |
| \\      /  F ield         | foam-extend: Open Source CFD                    |
|  \\    /   O peration     | Version:     3.1                                |
|   \\  /    A nd           | Web:         http://www.extend-project.de       |
|    \\/     M anipulation  |                                                 |
\*---------------------------------------------------------------------------*/
FoamFile
{
    version     2.0;
    format      ascii;
    class       surfaceVectorField;
    location    "3.7";
    object      Sf;
}
// * * * * * * * * * * * * * * * * * * * * * * * * * * * * * * * * * * * * * //

dimensions      [0 2 0 0 0 0 0];

internalField   nonuniform List<vector> 
41600
(
(0.000625516 -2.78023e-06 -1.95978e-08)
(-5.15541e-07 0.000705906 -1.29418e-08)
(1.0189e-08 1.14626e-08 0.000704821)
(-1.04502e-08 -1.17565e-08 -0.000704789)
(0.00062601 -5.35652e-06 -3.77735e-08)
(-4.93519e-07 0.000705702 -3.87227e-08)
(1.00071e-08 3.41805e-08 0.000705299)
(-1.02669e-08 -3.50604e-08 -0.000705242)
(0.000626491 -7.7044e-06 -5.45168e-08)
(-4.81641e-07 0.000705474 -6.49994e-08)
(1.03523e-08 5.70729e-08 0.000705746)
(-1.06187e-08 -5.85447e-08 -0.000705664)
(0.000626985 -9.87953e-06 -7.03341e-08)
(-4.93493e-07 0.000705302 -9.3555e-08)
(1.14355e-08 8.15576e-08 0.000706221)
(-1.17155e-08 -8.36437e-08 -0.000706112)
(0.000627513 -1.19268e-05 -8.57664e-08)
(-5.27144e-07 0.000705175 -1.26603e-07)
(1.31154e-08 1.09132e-07 0.000706747)
(-1.3406e-08 -1.11859e-07 -0.000706605)
(0.000628095 -1.38853e-05 -1.01298e-07)
(-5.82329e-07 0.000705087 -1.66585e-07)
(1.50965e-08 1.40807e-07 0.000707346)
(-1.53878e-08 -1.44189e-07 -0.000707164)
(0.000628755 -1.57829e-05 -1.16613e-07)
(-6.59189e-07 0.000705027 -2.16304e-07)
(1.68683e-08 1.76701e-07 0.000708038)
(-1.71512e-08 -1.80728e-07 -0.000707806)
(0.000629514 -1.76303e-05 -1.30842e-07)
(-7.59059e-07 0.000704977 -2.79099e-07)
(1.76158e-08 2.1546e-07 0.00070884)
(-1.78627e-08 -2.20082e-07 -0.000708547)
(0.000630399 -1.94191e-05 -1.42718e-07)
(-8.84276e-07 0.000704919 -3.59432e-07)
(1.57074e-08 2.53036e-07 0.000709772)
(-1.58474e-08 -2.58089e-07 -0.000709401)
(0.000631435 -2.11064e-05 -1.49477e-07)
(-1.03663e-06 0.000704817 -4.63512e-07)
(7.96509e-09 2.80083e-07 0.000710849)
(-7.94439e-09 -2.85255e-07 -0.000710378)
(0.000632655 -2.26107e-05 -1.47581e-07)
(-1.22013e-06 0.000704634 -6.00735e-07)
(-1.15449e-08 2.77259e-07 0.000712087)
(1.1681e-08 -2.82204e-07 -0.000711488)
(0.000634094 -2.37977e-05 -1.34377e-07)
(-1.43914e-06 0.000704317 -7.8722e-07)
(-5.32117e-08 2.07348e-07 0.000713506)
(5.31774e-08 -2.1203e-07 -0.000712732)
(0.000635789 -2.44844e-05 -1.13017e-07)
(-1.69422e-06 0.000703817 -1.0529e-06)
(-1.35153e-07 2.03436e-09 0.000715139)
(1.34166e-07 -7.47393e-09 -0.000714107)
(0.00063775 -2.45132e-05 -1.07464e-07)
(-1.95851e-06 0.000703162 -1.45356e-06)
(-2.79114e-07 -4.50563e-07 0.000717063)
(2.76692e-07 4.42129e-07 -0.000715615)
(0.000639716 -2.39419e-05 -2.07873e-07)
(-1.98165e-06 0.000702546 -2.06519e-06)
(-4.55079e-07 -1.25471e-06 0.000719334)
(4.71575e-07 1.26227e-06 -0.000717168)
(-7.82482e-06 0.000699613 -5.56677e-07)
(-1.99271e-06 -3.89389e-06 0.000723971)
(4.02714e-06 6.09712e-06 -0.000722705)
(0.000625495 -2.74147e-06 -5.85973e-08)
(-1.0097e-06 0.000708647 -2.53649e-08)
(3.00838e-08 1.09174e-08 0.000707589)
(-3.08656e-08 -1.12093e-08 -0.000707518)
(0.000625968 -5.28362e-06 -1.13086e-07)
(-9.66085e-07 0.000708245 -7.58512e-08)
(2.94702e-08 3.2464e-08 0.00070784)
(-3.02559e-08 -3.3347e-08 -0.000707748)
(0.000626429 -7.60073e-06 -1.6351e-07)
(-9.4186e-07 0.000707793 -1.27221e-07)
(3.04259e-08 5.40039e-08 0.000708034)
(-3.12441e-08 -5.5507e-08 -0.000707921)
(0.0006269 -9.74734e-06 -2.11229e-07)
(-9.6378e-07 0.000707451 -1.82917e-07)
(3.36118e-08 7.69518e-08 0.00070831)
(-3.44779e-08 -7.91204e-08 -0.000708173)
(0.000627402 -1.17725e-05 -2.58098e-07)
(-1.02822e-06 0.000707203 -2.47263e-07)
(3.85602e-08 1.0279e-07 0.000708682)
(-3.94683e-08 -1.05671e-07 -0.000708514)
(0.000627955 -1.37154e-05 -3.05516e-07)
(-1.13364e-06 0.000707033 -3.25008e-07)
(4.44616e-08 1.32557e-07 0.000709161)
(-4.54076e-08 -1.36216e-07 -0.000708955)
(0.000628577 -1.56026e-05 -3.52467e-07)
(-1.28046e-06 0.000706918 -4.21459e-07)
(5.01562e-08 1.6691e-07 0.000709752)
(-5.10808e-08 -1.71384e-07 -0.0007095)
(0.00062929 -1.74499e-05 -3.9673e-07)
(-1.47096e-06 0.000706829 -5.43114e-07)
(5.35579e-08 2.05873e-07 0.000710456)
(-5.43198e-08 -2.11058e-07 -0.000710147)
(0.000630113 -1.92577e-05 -4.34173e-07)
(-1.70774e-06 0.000706732 -6.98312e-07)
(5.02801e-08 2.47793e-07 0.000711269)
(-5.06908e-08 -2.53435e-07 -0.000710893)
(0.00063107 -2.10049e-05 -4.57214e-07)
(-1.9932e-06 0.00070657 -8.98209e-07)
(3.21989e-08 2.87949e-07 0.000712171)
(-3.20861e-08 -2.93661e-07 -0.000711713)
(0.000632178 -2.26316e-05 -4.55809e-07)
(-2.32898e-06 0.000706266 -1.15937e-06)
(-1.5215e-08 3.16997e-07 0.000713128)
(1.5806e-08 -3.2224e-07 -0.000712571)
(0.000633449 -2.40323e-05 -4.1993e-07)
(-2.71048e-06 0.000705722 -1.50841e-06)
(-1.16602e-07 3.18885e-07 0.000714084)
(1.17104e-07 -3.22998e-07 -0.000713399)
(0.000634869 -2.5045e-05 -3.51912e-07)
(-3.11345e-06 0.000704832 -1.99181e-06)
(-3.10898e-07 2.71127e-07 0.000714973)
(3.0973e-07 -2.73328e-07 -0.000714102)
(0.000636347 -2.5485e-05 -3.01569e-07)
(-3.43305e-06 0.000703601 -2.69133e-06)
(-6.35149e-07 1.55656e-07 0.000715788)
(6.31912e-07 -1.54414e-07 -0.000714601)
(0.000637505 -2.52986e-05 -4.78919e-07)
(-3.17906e-06 0.00070235 -3.72238e-06)
(-9.92758e-07 -3.82111e-09 0.000716693)
(1.03247e-06 1.39962e-08 -0.000714859)
(-7.38433e-06 0.000697457 -2.76045e-06)
(-3.31061e-06 7.36654e-07 0.000715521)
(6.34049e-06 -1.98563e-06 -0.000711992)
(0.000625454 -2.66193e-06 -9.68582e-08)
(-1.46232e-06 0.000711309 -3.6718e-08)
(4.8737e-08 1.00602e-08 0.000710286)
(-5.003e-08 -1.03436e-08 -0.000710178)
(0.000625887 -5.13014e-06 -1.87192e-07)
(-1.39803e-06 0.000710714 -1.09764e-07)
(4.75806e-08 2.98417e-08 0.000710291)
(-4.88885e-08 -3.06962e-08 -0.000710167)
(0.000626308 -7.37829e-06 -2.70873e-07)
(-1.36085e-06 0.000710043 -1.83965e-07)
(4.90217e-08 4.95065e-08 0.000710214)
(-5.03843e-08 -5.09399e-08 -0.000710073)
(0.000626735 -9.46296e-06 -3.50391e-07)
(-1.39011e-06 0.000709538 -2.64204e-07)
(5.41961e-08 7.04547e-08 0.000710273)
(-5.56428e-08 -7.2487e-08 -0.000710112)
(0.000627188 -1.14347e-05 -4.29617e-07)
(-1.47976e-06 0.000709177 -3.56702e-07)
(6.22729e-08 9.41622e-08 0.000710472)
(-6.38319e-08 -9.68662e-08 -0.000710284)
(0.000627683 -1.33293e-05 -5.10308e-07)
(-1.6262e-06 0.000708931 -4.68154e-07)
(7.2245e-08 1.21942e-07 0.000710808)
(-7.39124e-08 -1.25412e-07 -0.000710584)
(0.000628233 -1.51769e-05 -5.90931e-07)
(-1.82959e-06 0.00070877 -6.05889e-07)
(8.28482e-08 1.55187e-07 0.00071127)
(-8.44879e-08 -1.59463e-07 -0.000711005)
(0.000628856 -1.70048e-05 -6.68951e-07)
(-2.09215e-06 0.000708662 -7.7882e-07)
(9.14674e-08 1.95294e-07 0.000711846)
(-9.28331e-08 -2.00356e-07 -0.000711532)
(0.000629565 -1.88279e-05 -7.37608e-07)
(-2.41576e-06 0.000708561 -9.98172e-07)
(9.27276e-08 2.43837e-07 0.000712511)
(-9.35261e-08 -2.49579e-07 -0.000712143)
(0.000630373 -2.06548e-05 -7.85971e-07)
(-2.80158e-06 0.000708403 -1.27871e-06)
(7.69633e-08 3.02984e-07 0.000713221)
(-7.68585e-08 -3.09122e-07 -0.000712793)
(0.000631287 -2.24697e-05 -7.98121e-07)
(-3.2437e-06 0.000708087 -1.64139e-06)
(2.78435e-08 3.76448e-07 0.000713896)
(-2.66212e-08 -3.82329e-07 -0.000713402)
(0.000632293 -2.42219e-05 -7.54181e-07)
(-3.71876e-06 0.000707478 -2.11784e-06)
(-8.05728e-08 4.72271e-07 0.000714415)
(8.26197e-08 -4.76655e-07 -0.00071385)
(0.000633342 -2.58087e-05 -6.42776e-07)
(-4.16451e-06 0.00070642 -2.76023e-06)
(-2.82967e-07 6.09573e-07 0.000714616)
(2.84701e-07 -6.1033e-07 -0.000713959)
(0.000634307 -2.70585e-05 -4.99215e-07)
(-4.40049e-06 0.000704845 -3.65783e-06)
(-5.96905e-07 8.28784e-07 0.000714399)
(5.9897e-07 -8.22745e-07 -0.000713576)
(0.000634884 -2.78018e-05 -5.43636e-07)
(-3.79943e-06 0.000703086 -4.95517e-06)
(-8.90577e-07 1.1759e-06 0.000714034)
(9.34513e-07 -1.16937e-06 -0.000712757)
(-8.80033e-06 0.000699042 -3.55332e-06)
(-2.05293e-06 2.0664e-06 0.000711482)
(3.725e-06 -2.47114e-06 -0.000709989)
(0.000625395 -2.54058e-06 -1.33164e-07)
(-1.85534e-06 0.00071385 -4.6505e-08)
(6.56809e-08 8.98386e-09 0.000712871)
(-6.74541e-08 -9.24093e-09 -0.000712728)
(0.000625771 -4.89296e-06 -2.57833e-07)
(-1.7721e-06 0.000713067 -1.38992e-07)
(6.40121e-08 2.6696e-08 0.000712616)
(-6.58027e-08 -2.74644e-08 -0.000712462)
(0.000626134 -7.03444e-06 -3.73152e-07)
(-1.7221e-06 0.000712185 -2.32775e-07)
(6.59353e-08 4.44166e-08 0.000712254)
(-6.7787e-08 -4.56973e-08 -0.00071209)
(0.000626501 -9.0192e-06 -4.83815e-07)
(-1.75493e-06 0.000711524 -3.33949e-07)
(7.30134e-08 6.34169e-08 0.000712084)
(-7.49989e-08 -6.52526e-08 -0.000711903)
(0.000626884 -1.08903e-05 -5.95626e-07)
(-1.86137e-06 0.000711051 -4.50245e-07)
(8.42035e-08 8.51625e-08 0.000712094)
(-8.64001e-08 -8.76469e-08 -0.000711888)
(0.000627297 -1.2687e-05 -7.09913e-07)
(-2.03637e-06 0.000710731 -5.89688e-07)
(9.86359e-08 1.11222e-07 0.000712264)
(-1.01008e-07 -1.14449e-07 -0.000712029)
(0.000627749 -1.44496e-05 -8.25721e-07)
(-2.27883e-06 0.000710537 -7.61029e-07)
(1.15194e-07 1.43438e-07 0.000712578)
(-1.17576e-07 -1.47494e-07 -0.000712308)
(0.000628248 -1.62159e-05 -9.41453e-07)
(-2.58944e-06 0.000710434 -9.74795e-07)
(1.31636e-07 1.84325e-07 0.000713015)
(-1.33771e-07 -1.89315e-07 -0.000712703)
(0.000628802 -1.80211e-05 -1.04939e-06)
(-2.96866e-06 0.000710372 -1.24405e-06)
(1.43798e-07 2.38185e-07 0.000713532)
(-1.4527e-07 -2.44157e-07 -0.000713178)
(0.000629415 -1.98972e-05 -1.13698e-06)
(-3.4144e-06 0.000710286 -1.58577e-06)
(1.44029e-07 3.12688e-07 0.000714069)
(-1.44273e-07 -3.19474e-07 -0.000713674)
(0.000630085 -2.18794e-05 -1.18425e-06)
(-3.91494e-06 0.000710076 -2.02347e-06)
(1.19973e-07 4.21224e-07 0.000714525)
(-1.18298e-07 -4.28216e-07 -0.000714096)
(0.000630794 -2.39909e-05 -1.16198e-06)
(-4.4321e-06 0.000709595 -2.59167e-06)
(5.41693e-08 5.87542e-07 0.000714745)
(-5.01447e-08 -5.93323e-07 -0.000714294)
(0.000631495 -2.6215e-05 -1.03688e-06)
(-4.87107e-06 0.000708646 -3.34498e-06)
(-7.48058e-08 8.491e-07 0.000714514)
(8.10365e-08 -8.51145e-07 -0.000714054)
(0.000632092 -2.84182e-05 -8.02627e-07)
(-5.00732e-06 0.000707043 -4.3767e-06)
(-2.71195e-07 1.24938e-06 0.000713648)
(2.80489e-07 -1.24493e-06 -0.000713164)
(0.000632413 -3.02565e-05 -6.02504e-07)
(-4.15656e-06 0.000704923 -5.86104e-06)
(-4.45279e-07 1.78163e-06 0.000712387)
(4.81298e-07 -1.78019e-06 -0.000711681)
(-9.34453e-06 0.000702199 -4.20455e-06)
(-9.16542e-07 2.70378e-06 0.000709403)
(1.79654e-06 -3.29929e-06 -0.000709269)
(0.000625321 -2.37526e-06 -1.66692e-07)
(-2.17448e-06 0.000716226 -5.44069e-08)
(8.08643e-08 8.07041e-09 0.000715303)
(-8.3075e-08 -8.30536e-09 -0.000715128)
(0.000625626 -4.5706e-06 -3.2307e-07)
(-2.07462e-06 0.000715263 -1.6249e-07)
(7.88213e-08 2.40303e-08 0.000714778)
(-8.1047e-08 -2.47342e-08 -0.000714598)
(0.000625918 -6.56522e-06 -4.68098e-07)
(-2.01216e-06 0.000714181 -2.71829e-07)
(8.12772e-08 4.00811e-08 0.000714127)
(-8.35894e-08 -4.12777e-08 -0.000713943)
(0.00062621 -8.40551e-06 -6.08828e-07)
(-2.04402e-06 0.000713366 -3.89479e-07)
(9.01882e-08 5.73762e-08 0.000713715)
(-9.27076e-08 -5.91335e-08 -0.000713519)
(0.00062651 -1.01324e-05 -7.51339e-07)
(-2.15835e-06 0.00071278 -5.2411e-07)
(1.04502e-07 7.7342e-08 0.000713519)
(-1.07322e-07 -7.97481e-08 -0.000713302)
(0.000626825 -1.17893e-05 -8.97424e-07)
(-2.34844e-06 0.000712391 -6.84507e-07)
(1.23572e-07 1.0156e-07 0.00071351)
(-1.26658e-07 -1.04727e-07 -0.00071327)
(0.00062716 -1.34174e-05 -1.04847e-06)
(-2.6108e-06 0.000712169 -8.80279e-07)
(1.46667e-07 1.32053e-07 0.000713668)
(-1.49873e-07 -1.36128e-07 -0.000713398)
(0.000627517 -1.50578e-05 -1.20434e-06)
(-2.94327e-06 0.000712079 -1.12278e-06)
(1.72732e-07 1.72003e-07 0.000713961)
(-1.75812e-07 -1.77156e-07 -0.000713657)
(0.000627894 -1.67599e-05 -1.35865e-06)
(-3.34341e-06 0.000712081 -1.42579e-06)
(2.00032e-07 2.26986e-07 0.000714341)
(-2.02469e-07 -2.33355e-07 -0.000714005)
(0.000628287 -1.85829e-05 -1.49976e-06)
(-3.80642e-06 0.000712117 -1.80719e-06)
(2.25043e-07 3.06799e-07 0.000714741)
(-2.26055e-07 -3.14399e-07 -0.000714378)
(0.000628691 -2.06076e-05 -1.60822e-06)
(-4.31986e-06 0.000712109 -2.29226e-06)
(2.42275e-07 4.28163e-07 0.000715065)
(-2.40662e-07 -4.36656e-07 -0.000714688)
(0.000629096 -2.29374e-05 -1.64853e-06)
(-4.84344e-06 0.000711933 -2.9184e-06)
(2.46233e-07 6.18749e-07 0.000715165)
(-2.40494e-07 -6.26873e-07 -0.000714798)
(0.000629487 -2.5653e-05 -1.56659e-06)
(-5.27215e-06 0.000711367 -3.74435e-06)
(2.27209e-07 9.18911e-07 0.000714812)
(-2.16425e-07 -9.2418e-07 -0.000714494)
(0.000629824 -2.86847e-05 -1.30267e-06)
(-5.36148e-06 0.000710075 -4.87025e-06)
(1.74041e-07 1.36617e-06 0.000713725)
(-1.57782e-07 -1.36584e-06 -0.000713495)
(0.000630013 -3.15148e-05 -8.40938e-07)
(-4.37168e-06 0.000707755 -6.4891e-06)
(8.35197e-08 1.93017e-06 0.000711822)
(-5.72346e-08 -1.93206e-06 -0.000711656)
(-9.58628e-06 0.00070663 -4.55997e-06)
(1.13237e-07 2.74674e-06 0.000708919)
(-1.17973e-07 -3.19809e-06 -0.000710566)
(0.000625237 -2.16934e-06 -1.97289e-07)
(-2.40869e-06 0.000718395 -6.01371e-08)
(9.45761e-08 7.32676e-09 0.000717541)
(-9.71904e-08 -7.54587e-09 -0.000717338)
(0.00062546 -4.17036e-06 -3.82098e-07)
(-2.29539e-06 0.000717265 -1.79454e-07)
(9.22244e-08 2.18005e-08 0.000716744)
(-9.48581e-08 -2.24623e-08 -0.000716543)
(0.000625672 -5.98011e-06 -5.54258e-07)
(-2.22129e-06 0.000715992 -2.99818e-07)
(9.51748e-08 3.63115e-08 0.000715802)
(-9.79337e-08 -3.74393e-08 -0.000715602)
(0.00062588 -7.64118e-06 -7.21767e-07)
(-2.24861e-06 0.000715029 -4.2882e-07)
(1.05776e-07 5.18905e-08 0.000715142)
(-1.08808e-07 -5.35327e-08 -0.000714936)
(0.000626088 -9.19334e-06 -8.90197e-07)
(-2.36307e-06 0.000714335 -5.75574e-07)
(1.23022e-07 6.98245e-08 0.000714731)
(-1.26448e-07 -7.20704e-08 -0.000714511)
(0.000626298 -1.06711e-05 -1.06445e-06)
(-2.55496e-06 0.000713872 -7.4924e-07)
(1.46514e-07 9.15906e-08 0.000714536)
(-1.50331e-07 -9.4576e-08 -0.000714297)
(0.000626509 -1.21065e-05 -1.2487e-06)
(-2.81762e-06 0.000713608 -9.59661e-07)
(1.76087e-07 1.19165e-07 0.000714525)
(-1.80171e-07 -1.23056e-07 -0.000714261)
(0.000626716 -1.35376e-05 -1.44392e-06)
(-3.14556e-06 0.000713515 -1.21806e-06)
(2.1207e-07 1.55581e-07 0.000714662)
(-2.16215e-07 -1.60601e-07 -0.000714372)
(0.000626908 -1.50154e-05 -1.64728e-06)
(-3.53265e-06 0.000713565 -1.53791e-06)
(2.55247e-07 2.05909e-07 0.000714903)
(-2.58907e-07 -2.12343e-07 -0.000714588)
(0.000627076 -1.66154e-05 -1.85073e-06)
(-3.97128e-06 0.000713725 -1.93674e-06)
(3.06356e-07 2.78696e-07 0.000715188)
(-3.08594e-07 -2.86778e-07 -0.000714855)
(0.000627207 -1.84502e-05 -2.0398e-06)
(-4.4517e-06 0.000713954 -2.44024e-06)
(3.66508e-07 3.87822e-07 0.000715444)
(-3.65717e-07 -3.97563e-07 -0.000715107)
(0.000627302 -2.06777e-05 -2.18207e-06)
(-4.94488e-06 0.000714172 -3.08865e-06)
(4.40788e-07 5.55231e-07 0.000715559)
(-4.34414e-07 -5.66055e-07 -0.000715246)
(0.000627387 -2.34844e-05 -2.21843e-06)
(-5.37205e-06 0.000714183 -3.94969e-06)
(5.30737e-07 8.14234e-07 0.000715335)
(-5.16516e-07 -8.2429e-07 -0.000715094)
(0.000627523 -2.69797e-05 -2.04371e-06)
(-5.52e-06 0.000713576 -5.14261e-06)
(6.13688e-07 1.19977e-06 0.000714445)
(-5.90352e-07 -1.20541e-06 -0.000714348)
(0.000627725 -3.06957e-05 -1.40739e-06)
(-4.59502e-06 0.000711476 -6.87846e-06)
(5.91544e-07 1.69573e-06 0.000712308)
(-5.70849e-07 -1.7004e-06 -0.000712555)
(-9.84367e-06 0.000712926 -4.75439e-06)
(1.01526e-06 2.41666e-06 0.000710346)
(-1.72934e-06 -2.75282e-06 -0.000713931)
(0.000625145 -1.93005e-06 -2.23879e-07)
(-2.55059e-06 0.000720326 -6.34782e-08)
(1.0701e-07 6.63986e-09 0.00071955)
(-1.09995e-07 -6.83728e-09 -0.000719323)
(0.000625281 -3.70588e-06 -4.33119e-07)
(-2.42804e-06 0.000719042 -1.89274e-07)
(1.04319e-07 1.97033e-08 0.000718486)
(-1.07329e-07 -2.02957e-08 -0.000718267)
(0.000625407 -5.304e-06 -6.28451e-07)
(-2.3445e-06 0.000717591 -3.15838e-07)
(1.07629e-07 3.26691e-08 0.000717258)
(-1.10796e-07 -3.36738e-08 -0.000717046)
(0.000625527 -6.76028e-06 -8.17404e-07)
(-2.36513e-06 0.000716487 -4.5089e-07)
(1.19651e-07 4.64215e-08 0.000716351)
(-1.23147e-07 -4.78866e-08 -0.00071614)
(0.000625641 -8.10292e-06 -1.00655e-06)
(-2.47291e-06 0.000715679 -6.03531e-07)
(1.39399e-07 6.20537e-08 0.000715721)
(-1.4339e-07 -6.40638e-08 -0.000715504)
(0.000625745 -9.35378e-06 -1.20466e-06)
(-2.65489e-06 0.000715126 -7.82915e-07)
(1.6672e-07 8.07804e-08 0.000715327)
(-1.71232e-07 -8.34608e-08 -0.000715095)
(0.000625833 -1.05358e-05 -1.41716e-06)
(-2.90093e-06 0.000714794 -9.98431e-07)
(2.01951e-07 1.04171e-07 0.000715129)
(-2.06894e-07 -1.07691e-07 -0.000714877)
(0.000625895 -1.16769e-05 -1.64652e-06)
(-3.20164e-06 0.000714661 -1.26028e-06)
(2.46432e-07 1.34433e-07 0.000715088)
(-2.51669e-07 -1.3903e-07 -0.000714817)
(0.000625913 -1.28152e-05 -1.89368e-06)
(-3.54619e-06 0.00071471 -1.58055e-06)
(3.02717e-07 1.7485e-07 0.000715167)
(-3.07738e-07 -1.80839e-07 -0.000714877)
(0.000625868 -1.40086e-05 -2.15547e-06)
(-3.92206e-06 0.000714926 -1.97471e-06)
(3.74379e-07 2.30374e-07 0.000715319)
(-3.78161e-07 -2.38104e-07 -0.00071502)
(0.000625736 -1.53535e-05 -2.42584e-06)
(-4.3185e-06 0.000715309 -2.46599e-06)
(4.6657e-07 3.08237e-07 0.000715498)
(-4.67377e-07 -3.18114e-07 -0.000715202)
(0.000625505 -1.69942e-05 -2.68757e-06)
(-4.71937e-06 0.000715825 -3.09376e-06)
(5.90413e-07 4.18415e-07 0.000715625)
(-5.85227e-07 -4.30941e-07 -0.000715358)
(0.000625214 -1.91639e-05 -2.90253e-06)
(-5.09622e-06 0.000716368 -3.93283e-06)
(7.56462e-07 5.75754e-07 0.000715565)
(-7.41556e-07 -5.90844e-07 -0.000715367)
(0.000625027 -2.2208e-05 -2.96872e-06)
(-5.36194e-06 0.000716635 -5.13627e-06)
(9.41732e-07 8.03284e-07 0.000715072)
(-9.13159e-07 -8.18619e-07 -0.000715012)
(0.000625271 -2.61924e-05 -2.42288e-06)
(-4.85962e-06 0.000715474 -6.98484e-06)
(1.00104e-06 1.12668e-06 0.000713277)
(-9.79758e-07 -1.14032e-06 -0.000713716)
(-1.11446e-05 0.000723852 -4.79944e-06)
(1.91111e-06 1.7989e-06 0.000715342)
(-3.19583e-06 -2.04955e-06 -0.000721113)
(0.000625049 -1.66234e-06 -2.45552e-07)
(1.18225e-07 5.96801e-09 0.000721301)
(-1.21541e-07 -6.14345e-09 -0.000721055)
(-2.59648e-06 0.000721988 -6.44083e-08)
(0.000625094 -3.19151e-06 -4.74439e-07)
(1.15136e-07 1.76574e-08 0.000719984)
(-1.18472e-07 -1.81759e-08 -0.000719752)
(-2.47e-06 0.000720571 -1.91891e-07)
(0.000625134 -4.56138e-06 -6.87755e-07)
(1.18597e-07 2.90841e-08 0.000718482)
(-1.22119e-07 -2.99513e-08 -0.000718265)
(-2.3808e-06 0.000718962 -3.19781e-07)
(0.000625167 -5.79237e-06 -8.92975e-07)
(1.31671e-07 4.09343e-08 0.000717333)
(-1.35579e-07 -4.21954e-08 -0.000717123)
(-2.39388e-06 0.000717719 -4.55696e-07)
(0.000625189 -6.89842e-06 -1.0988e-06)
(1.53312e-07 5.40481e-08 0.00071648)
(-1.57795e-07 -5.57685e-08 -0.000716269)
(-2.49014e-06 0.000716787 -6.08484e-07)
(0.000625193 -7.89193e-06 -1.31519e-06)
(1.83477e-07 6.92086e-08 0.000715872)
(-1.88596e-07 -7.14812e-08 -0.000715652)
(-2.65407e-06 0.000716122 -7.86706e-07)
(0.00062517 -8.7851e-06 -1.54785e-06)
(2.22813e-07 8.73215e-08 0.000715466)
(-2.28527e-07 -9.02969e-08 -0.000715233)
(-2.87196e-06 0.00071569 -9.98696e-07)
(0.000625104 -9.58897e-06 -1.80129e-06)
(2.73103e-07 1.09485e-07 0.000715223)
(-2.79307e-07 -1.13342e-07 -0.000714977)
(-3.12952e-06 0.000715469 -1.25308e-06)
(0.000624974 -1.03167e-05 -2.07819e-06)
(3.3749e-07 1.36839e-07 0.000715103)
(-3.43719e-07 -1.41782e-07 -0.000714847)
(-3.40975e-06 0.000715442 -1.55952e-06)
(0.000624749 -1.09861e-05 -2.38001e-06)
(4.20348e-07 1.70355e-07 0.000715065)
(-4.25643e-07 -1.76711e-07 -0.000714808)
(-3.69188e-06 0.000715602 -1.92963e-06)
(0.000624384 -1.16209e-05 -2.70854e-06)
(5.27627e-07 2.10379e-07 0.000715067)
(-5.30397e-07 -2.18718e-07 -0.000714825)
(-3.95139e-06 0.000715952 -2.37969e-06)
(0.000623817 -1.22525e-05 -3.06191e-06)
(6.69615e-07 2.54005e-07 0.000715014)
(-6.67081e-07 -2.65388e-07 -0.000714819)
(-4.15437e-06 0.000716468 -2.93558e-06)
(0.000622951 -1.29486e-05 -3.43201e-06)
(8.55594e-07 2.9052e-07 0.000714719)
(-8.43759e-07 -3.06817e-07 -0.000714638)
(-4.24243e-06 0.000717081 -3.64354e-06)
(0.000621635 -1.38832e-05 -3.77205e-06)
(1.06327e-06 3.01026e-07 0.00071375)
(-1.03737e-06 -3.25592e-07 -0.000713954)
(-4.07195e-06 0.000717594 -4.5913e-06)
(0.000619707 -1.57764e-05 -3.70127e-06)
(1.16655e-06 2.92429e-07 0.000710811)
(-1.14401e-06 -3.23159e-07 -0.000711955)
(-2.9541e-06 0.000717398 -5.91178e-06)
(2.93013e-06 8.56525e-07 0.000726106)
(-4.64583e-06 -1.032e-06 -0.000734577)
(-1.71643e-05 0.000745351 -4.08662e-06)
(0.000625538 -2.81659e-06 -1.66994e-08)
(-5.37497e-07 0.000705942 -1.18264e-08)
(9.55712e-09 1.07518e-08 0.00070485)
(0.000626054 -5.4269e-06 -3.23416e-08)
(-5.15301e-07 0.000705737 -3.53688e-08)
(9.38639e-09 3.20606e-08 0.00070535)
(0.000626559 -7.80611e-06 -4.66033e-08)
(-5.04354e-07 0.000705508 -5.92413e-08)
(9.71595e-09 5.35394e-08 0.000705819)
(0.000627079 -1.00107e-05 -5.97418e-08)
(-5.18901e-07 0.000705335 -8.49036e-08)
(1.07574e-08 7.65463e-08 0.000706319)
(0.000627636 -1.20866e-05 -7.23298e-08)
(-5.57056e-07 0.000705208 -1.14173e-07)
(1.23689e-08 1.02519e-07 0.000706874)
(0.000628256 -1.40736e-05 -8.4349e-08)
(-6.18695e-07 0.00070512 -1.48843e-07)
(1.42913e-08 1.32451e-07 0.000707507)
(0.000628961 -1.59987e-05 -9.52638e-08)
(-7.0425e-07 0.00070506 -1.90835e-07)
(1.60836e-08 1.66555e-07 0.00070824)
(0.000629777 -1.78712e-05 -1.04359e-07)
(-8.15361e-07 0.000705009 -2.42199e-07)
(1.6993e-08 2.03726e-07 0.000709091)
(0.000630732 -1.96804e-05 -1.10438e-07)
(-9.54983e-07 0.000704947 -3.04894e-07)
(1.5581e-08 2.40439e-07 0.000710083)
(0.000631857 -2.1379e-05 -1.11612e-07)
(-1.12572e-06 0.000704835 -3.80716e-07)
(9.23339e-09 2.68712e-07 0.000711231)
(0.000633185 -2.28809e-05 -1.06824e-07)
(-1.33306e-06 0.000704632 -4.70821e-07)
(-6.8489e-09 2.72431e-07 0.000712553)
(0.000634755 -2.4051e-05 -9.75342e-08)
(-1.5831e-06 0.000704281 -5.73169e-07)
(-4.02297e-08 2.21946e-07 0.00071407)
(0.000636599 -2.47185e-05 -9.34815e-08)
(-1.87745e-06 0.000703727 -6.74856e-07)
(-1.01502e-07 6.77802e-08 0.000715809)
(0.0006387 -2.47725e-05 -1.19996e-07)
(-2.18441e-06 0.000702985 -7.32645e-07)
(-1.95483e-07 -2.56523e-07 0.000717822)
(0.000640764 -2.43818e-05 -2.02562e-07)
(-2.2388e-06 0.000702259 -6.60965e-07)
(-2.81085e-07 -7.78953e-07 0.000720077)
(-6.05295e-06 0.000701114 -4.31863e-07)
(-9.40175e-07 -2.09989e-06 0.000724857)
(0.000625517 -2.77766e-06 -5.01203e-08)
(-1.05264e-06 0.000708721 -2.32024e-08)
(2.82062e-08 1.02269e-08 0.000707651)
(0.000626012 -5.35389e-06 -9.7156e-08)
(-1.00861e-06 0.000708316 -6.93144e-08)
(2.76126e-08 3.039e-08 0.000707921)
(0.000626496 -7.70279e-06 -1.40212e-07)
(-9.86132e-07 0.00070786 -1.15942e-07)
(2.8511e-08 5.05156e-08 0.000708133)
(0.000626992 -9.87964e-06 -1.80199e-07)
(-1.0132e-06 0.000707516 -1.65965e-07)
(3.15511e-08 7.1951e-08 0.000708431)
(0.000627524 -1.19346e-05 -2.18557e-07)
(-1.08635e-06 0.000707269 -2.22924e-07)
(3.62929e-08 9.61287e-08 0.000708829)
(0.000628112 -1.39075e-05 -2.55362e-07)
(-1.20432e-06 0.000707102 -2.90429e-07)
(4.20256e-08 1.24099e-07 0.000709339)
(0.000628778 -1.58242e-05 -2.89167e-07)
(-1.36779e-06 0.000706987 -3.72135e-07)
(4.77226e-08 1.56549e-07 0.000709967)
(0.000629544 -1.76994e-05 -3.17774e-07)
(-1.57987e-06 0.000706897 -4.71736e-07)
(5.14994e-08 1.93612e-07 0.000710714)
(0.000630434 -1.95304e-05 -3.37147e-07)
(-1.8441e-06 0.000706792 -5.93039e-07)
(4.95901e-08 2.34079e-07 0.000711577)
(0.00063147 -2.12922e-05 -3.41488e-07)
(-2.16406e-06 0.000706611 -7.39349e-07)
(3.51595e-08 2.74091e-07 0.000712534)
(0.000632668 -2.29211e-05 -3.27667e-07)
(-2.54315e-06 0.000706272 -9.11751e-07)
(-3.75437e-09 3.05624e-07 0.000713555)
(0.000634031 -2.43044e-05 -2.96201e-07)
(-2.97768e-06 0.000705667 -1.10398e-06)
(-8.50867e-08 3.1527e-07 0.000714583)
(0.000635516 -2.52763e-05 -2.67964e-07)
(-3.44148e-06 0.000704684 -1.28822e-06)
(-2.31447e-07 2.85329e-07 0.000715558)
(0.000636957 -2.56618e-05 -3.04063e-07)
(-3.81411e-06 0.000703323 -1.38106e-06)
(-4.46096e-07 2.02981e-07 0.000716473)
(0.000637937 -2.54477e-05 -4.67779e-07)
(-3.59209e-06 0.000701953 -1.23361e-06)
(-6.19728e-07 8.74383e-08 0.00071743)
(-5.45945e-06 0.000698027 -4.4606e-07)
(-1.57418e-06 3.98805e-07 0.000716445)
(0.000625475 -2.69726e-06 -8.32539e-08)
(-1.52433e-06 0.000711419 -3.36077e-08)
(4.56638e-08 9.4059e-09 0.00071038)
(0.000625929 -5.19848e-06 -1.61172e-07)
(-1.45939e-06 0.000710819 -1.00341e-07)
(4.45421e-08 2.78986e-08 0.0007104)
(0.00062637 -7.47726e-06 -2.32779e-07)
(-1.42469e-06 0.000710142 -1.67756e-07)
(4.58935e-08 4.62888e-08 0.000710337)
(0.000626822 -9.5916e-06 -3.00024e-07)
(-1.46124e-06 0.000709635 -2.40016e-07)
(5.081e-08 6.59012e-08 0.000710414)
(0.000627302 -1.15938e-05 -3.651e-07)
(-1.56328e-06 0.000709277 -3.22154e-07)
(5.85262e-08 8.81241e-08 0.000710637)
(0.00062783 -1.35196e-05 -4.28161e-07)
(-1.72739e-06 0.000709035 -4.19238e-07)
(6.81726e-08 1.14205e-07 0.000711)
(0.00062842 -1.53986e-05 -4.86983e-07)
(-1.95406e-06 0.000708876 -5.36248e-07)
(7.86239e-08 1.45498e-07 0.000711493)
(0.000629091 -1.72578e-05 -5.37872e-07)
(-2.24661e-06 0.000708768 -6.78173e-07)
(8.75925e-08 1.83423e-07 0.000712103)
(0.000629857 -1.91098e-05 -5.73907e-07)
(-2.60795e-06 0.000708658 -8.5008e-07)
(9.05284e-08 2.29578e-07 0.000712804)
(0.000630731 -2.09608e-05 -5.8591e-07)
(-3.04054e-06 0.000708479 -1.05605e-06)
(7.90658e-08 2.85933e-07 0.00071355)
(0.000631715 -2.27884e-05 -5.6592e-07)
(-3.53935e-06 0.00070812 -1.29617e-06)
(3.96449e-08 3.55661e-07 0.000714261)
(0.000632784 -2.45316e-05 -5.0687e-07)
(-4.07955e-06 0.000707438 -1.55874e-06)
(-4.69523e-08 4.44821e-07 0.000714811)
(0.000633852 -2.60695e-05 -4.23226e-07)
(-4.59177e-06 0.000706267 -1.80094e-06)
(-2.01169e-07 5.65283e-07 0.000715045)
(0.000634726 -2.7204e-05 -3.78405e-07)
(-4.87018e-06 0.000704549 -1.90539e-06)
(-4.14952e-07 7.36964e-07 0.000714879)
(0.000635098 -2.77536e-05 -4.54888e-07)
(-4.29412e-06 0.000702709 -1.67996e-06)
(-5.60475e-07 9.69834e-07 0.000714557)
(-6.14014e-06 0.000699079 -6.02678e-07)
(-9.90183e-07 1.42088e-06 0.000712344)
(0.000625414 -2.57326e-06 -1.14849e-07)
(-1.93373e-06 0.000713992 -4.26039e-08)
(6.15164e-08 8.41124e-09 0.000712995)
(0.000625808 -4.95674e-06 -2.22215e-07)
(-1.84969e-06 0.000713204 -1.27205e-07)
(5.99081e-08 2.49886e-08 0.00071275)
(0.00062619 -7.12707e-06 -3.21142e-07)
(-1.80266e-06 0.000712315 -2.12604e-07)
(6.17249e-08 4.15745e-08 0.000712398)
(0.000626578 -9.1408e-06 -4.15139e-07)
(-1.84452e-06 0.000711653 -3.03951e-07)
(6.84413e-08 5.93709e-08 0.000712242)
(0.000626986 -1.10423e-05 -5.07439e-07)
(-1.96624e-06 0.000711184 -4.07522e-07)
(7.90852e-08 7.97399e-08 0.000712271)
(0.000627427 -1.287e-05 -5.97728e-07)
(-2.16268e-06 0.00071087 -5.29364e-07)
(9.29392e-08 1.04142e-07 0.000712465)
(0.000627912 -1.46648e-05 -6.83248e-07)
(-2.43329e-06 0.00071068 -6.75331e-07)
(1.09058e-07 1.34338e-07 0.000712803)
(0.000628452 -1.64652e-05 -7.59245e-07)
(-2.77982e-06 0.00071058 -8.51319e-07)
(1.25527e-07 1.7272e-07 0.000713264)
(0.000629053 -1.83058e-05 -8.169e-07)
(-3.20374e-06 0.000710513 -1.06297e-06)
(1.3879e-07 2.2319e-07 0.000713802)
(0.000629718 -2.02169e-05 -8.44238e-07)
(-3.70423e-06 0.00071041 -1.31455e-06)
(1.42134e-07 2.92556e-07 0.000714355)
(0.000630443 -2.22285e-05 -8.25181e-07)
(-4.26966e-06 0.000710161 -1.60511e-06)
(1.25393e-07 3.92504e-07 0.000714815)
(0.000631201 -2.43536e-05 -7.41389e-07)
(-4.85843e-06 0.000709608 -1.91847e-06)
(7.47924e-08 5.42204e-07 0.000715021)
(0.000631923 -2.65474e-05 -5.83514e-07)
(-5.36353e-06 0.000708542 -2.1997e-06)
(-2.4425e-08 7.67429e-07 0.000714755)
(0.000632477 -2.86295e-05 -3.85547e-07)
(-5.53021e-06 0.000706794 -2.30596e-06)
(-1.65954e-07 1.08738e-06 0.000713851)
(0.000632711 -3.02055e-05 -2.42513e-07)
(-4.70513e-06 0.000704598 -2.01543e-06)
(-2.67722e-07 1.4685e-06 0.000712579)
(-6.2353e-06 0.000701496 -7.64688e-07)
(-4.48689e-07 1.96087e-06 0.000709816)
(0.000625337 -2.40523e-06 -1.43879e-07)
(-2.266e-06 0.000716398 -4.98678e-08)
(7.57288e-08 7.55209e-09 0.000715454)
(0.000625658 -4.62918e-06 -2.78989e-07)
(-2.16514e-06 0.00071543 -1.48869e-07)
(7.37512e-08 2.24717e-08 0.000714935)
(0.000625966 -6.65103e-06 -4.03876e-07)
(-2.10593e-06 0.00071434 -2.48638e-07)
(7.60666e-08 3.74526e-08 0.000714288)
(0.000626276 -8.51879e-06 -5.23683e-07)
(-2.14803e-06 0.000713525 -3.55044e-07)
(8.4498e-08 5.35814e-08 0.000713886)
(0.000626595 -1.02728e-05 -6.4207e-07)
(-2.27942e-06 0.000712944 -4.75166e-07)
(9.80575e-08 7.21915e-08 0.000713705)
(0.000626933 -1.19573e-05 -7.58185e-07)
(-2.49328e-06 0.000712561 -6.15625e-07)
(1.16242e-07 9.4755e-08 0.000713713)
(0.000627295 -1.36161e-05 -8.70121e-07)
(-2.78675e-06 0.000712348 -7.82798e-07)
(1.38513e-07 1.23168e-07 0.000713887)
(0.000627682 -1.52914e-05 -9.73258e-07)
(-3.1585e-06 0.000712267 -9.82971e-07)
(1.63987e-07 1.6037e-07 0.000714196)
(0.000628094 -1.70336e-05 -1.05793e-06)
(-3.60694e-06 0.000712271 -1.22193e-06)
(1.912e-07 2.11393e-07 0.000714584)
(0.000628527 -1.89021e-05 -1.10938e-06)
(-4.12861e-06 0.0007123 -1.50387e-06)
(2.17064e-07 2.84984e-07 0.000714982)
(0.000628974 -2.09769e-05 -1.1048e-06)
(-4.71149e-06 0.000712268 -1.82743e-06)
(2.37013e-07 3.95585e-07 0.000715283)
(0.000629427 -2.33506e-05 -1.0107e-06)
(-5.3107e-06 0.000712035 -2.17424e-06)
(2.45657e-07 5.65932e-07 0.000715327)
(0.000629865 -2.60775e-05 -7.83087e-07)
(-5.80691e-06 0.000711363 -2.48234e-06)
(2.3182e-07 8.25311e-07 0.000714867)
(0.00063025 -2.90317e-05 -4.0553e-07)
(-5.92301e-06 0.000709924 -2.59325e-06)
(1.82352e-07 1.18974e-06 0.000713635)
(0.000630493 -3.15894e-05 2.71712e-08)
(-4.96107e-06 0.000707478 -2.26407e-06)
(9.58975e-08 1.60826e-06 0.000711638)
(-6.101e-06 0.000705025 -9.26426e-07)
(5.04133e-08 2.07438e-06 0.000708807)
(0.00062525 -2.19647e-06 -1.70318e-07)