/*--------------------------------*- C++ -*----------------------------------*\
| =========                 |                                                 |
| \\      /  F ield         | foam-extend: Open Source CFD                    |
|  \\    /   O peration     | Version:     3.1                                |
|   \\  /    A nd           | Web:         http://www.extend-project.de       |
|    \\/     M anipulation  |                                                 |
\*---------------------------------------------------------------------------*/
FoamFile
{
    version     2.0;
    format      ascii;
    class       volVectorField;
    location    "3.7";
    object      U;
}
// * * * * * * * * * * * * * * * * * * * * * * * * * * * * * * * * * * * * * //

dimensions      [0 1 -1 0 0 0 0];

internalField   nonuniform List<vector> 
14592
(
(0.018997 -8.97347e-05 -0.00172312)
(0.0189312 4.3332e-05 -0.00310209)
(0.0186683 0.000148573 -0.00391488)
(0.0182257 0.000208724 -0.00462652)
(0.017641 0.000253869 -0.005419)
(0.0169387 0.000291812 -0.00638674)
(0.0161488 0.000318716 -0.00759379)
(0.0153184 0.000325674 -0.00909876)
(0.014515 0.000298717 -0.0109729)
(0.0138303 0.000216525 -0.0133178)
(0.0133879 4.5043e-05 -0.0162876)
(0.0133545 -0.000265491 -0.0201143)
(0.0139411 -0.000769402 -0.0250977)
(0.0151622 -0.0013737 -0.0313374)
(0.0156105 -0.00128197 -0.0373164)
(0.011554 0.000746348 -0.0323791)
(0.0529314 -1.13019e-05 -0.00205326)
(0.0526666 0.000282418 -0.00477753)
(0.0521117 0.0006103 -0.00677135)
(0.0512731 0.000899253 -0.00853085)
(0.050166 0.00115517 -0.0103769)
(0.0487935 0.0013748 -0.0125242)
(0.0471813 0.00154048 -0.0151247)
(0.0453844 0.00162655 -0.0183019)
(0.0434841 0.00159876 -0.0221859)
(0.0415793 0.00140719 -0.0269522)
(0.0397785 0.000967803 -0.0328666)
(0.0381745 0.000142398 -0.040337)
(0.0368089 -0.00126065 -0.0498899)
(0.0353358 -0.00325509 -0.0615258)
(0.0311213 -0.0044563 -0.071318)
(0.0186423 -0.00142324 -0.0561569)
(0.082189 0.000136266 -0.00165594)
(0.0819046 0.000605869 -0.00444181)
(0.0813088 0.00115083 -0.00680725)
(0.0804303 0.00169791 -0.00901376)
(0.0792751 0.00222549 -0.0113245)
(0.0778066 0.00271159 -0.0139753)
(0.0759989 0.00312092 -0.017164)
(0.0738509 0.00340957 -0.0210566)
(0.0713852 0.0035249 -0.0258134)
(0.0686341 0.0033981 -0.0316296)
(0.0656174 0.00291649 -0.0387943)
(0.0622857 0.0018859 -0.0477761)
(0.05844 -2.16246e-05 -0.0592877)
(0.0534406 -0.00313022 -0.0737241)
(0.0437137 -0.00617201 -0.0865572)
(0.0226632 -0.00375302 -0.0675638)
(0.106594 0.000253009 -0.00130264)
(0.106355 0.000881702 -0.00370675)
(0.105828 0.00159648 -0.00592348)
(0.105058 0.00235011 -0.00809252)
(0.104065 0.00311545 -0.0103982)
(0.102793 0.00386547 -0.0130508)
(0.101166 0.00456048 -0.0162643)
(0.09911 0.00515164 -0.0202409)
(0.0965604 0.00558157 -0.0251771)
(0.0934513 0.00578245 -0.0312934)
(0.0896974 0.00564697 -0.0388917)
(0.0851108 0.00499359 -0.048463)
(0.0792839 0.00345948 -0.0608756)
(0.0713957 0.000418533 -0.077208)
(0.0567553 -0.00382593 -0.0935444)
(0.0266897 -0.00405459 -0.0745916)
(0.126114 0.000342565 -0.00107794)
(0.125924 0.00110448 -0.00310433)
(0.125485 0.00194205 -0.00502868)
(0.12485 0.00283679 -0.00695602)
(0.124057 0.00377262 -0.00902493)
(0.123056 0.00473346 -0.0114146)
(0.121751 0.00569387 -0.0143384)
(0.120013 0.00662143 -0.0180257)
(0.117703 0.00747621 -0.0227158)
(0.114658 0.00821739 -0.0286736)
(0.110688 0.00877407 -0.0362353)
(0.105478 0.00903869 -0.0459211)
(0.0984178 0.00873483 -0.0586595)
(0.0886258 0.00724005 -0.0762767)
(0.07042 0.00354192 -0.0962242)
(0.0312868 -0.000552511 -0.0790693)
(0.140751 0.00041261 -0.000933028)
(0.140601 0.00128358 -0.00267934)
(0.140246 0.00221241 -0.00434073)
(0.139741 0.00320263 -0.00601002)
(0.139137 0.0042542 -0.0078)
(0.1384 0.00536938 -0.00986172)
(0.137435 0.00654789 -0.0123946)
(0.136099 0.00779009 -0.0156373)
(0.13421 0.00909405 -0.0198588)
(0.131539 0.0104747 -0.0253653)
(0.127827 0.0119292 -0.0325312)
(0.122654 0.0134971 -0.0419199)
(0.115252 0.0150566 -0.0544296)
(0.10471 0.0164852 -0.0724514)
(0.0850326 0.0158125 -0.0955475)
(0.0372111 0.00818033 -0.0810774)
(0.150506 0.000464509 -0.000831871)
(0.150389 0.00141617 -0.0023758)
(0.150117 0.00240779 -0.00383353)
(0.149741 0.00345826 -0.00528817)
(0.149321 0.00458282 -0.00683509)
(0.148839 0.00580237 -0.00860114)
(0.148216 0.0071434 -0.0107641)
(0.147313 0.00864377 -0.0135519)
(0.145953 0.0103477 -0.017237)
(0.143883 0.0123424 -0.0221382)
(0.140857 0.0147094 -0.0286354)
(0.136385 0.0177132 -0.0373018)
(0.129783 0.0214322 -0.0489337)
(0.119685 0.0268469 -0.0660078)
(0.102178 0.0325276 -0.0912204)
(0.0466755 0.0251986 -0.0795443)
(0.155381 0.000497385 -0.000757442)
(0.155294 0.0014958 -0.00215125)
(0.155104 0.0025168 -0.00345339)
(0.154865 0.00359027 -0.00473799)
(0.154639 0.00474462 -0.00608799)
(0.154421 0.00601689 -0.00761186)
(0.154152 0.00745673 -0.00946529)
(0.153711 0.00913407 -0.0118537)
(0.152957 0.0111339 -0.0150286)
(0.151653 0.0136042 -0.019282)
(0.149683 0.0166991 -0.0249534)
(0.14651 0.0208774 -0.0325186)
(0.142275 0.0264762 -0.0426445)
(0.133838 0.0353582 -0.0568401)
(0.126346 0.0524815 -0.0821004)
(0.066001 0.052076 -0.0713468)
(0.0202987 -0.000109741 -0.00166745)
(0.0201624 1.77456e-05 -0.00302026)
(0.0197724 0.000126555 -0.003831)
(0.0191596 0.000185838 -0.00454504)
(0.0183663 0.000227318 -0.00533787)
(0.0174099 0.000260205 -0.00630233)
(0.0163085 0.000280527 -0.00750205)
(0.0150937 0.000278577 -0.00899356)
(0.0138132 0.000238895 -0.0108409)
(0.0125303 0.000137983 -0.0131283)
(0.011324 -6.08914e-05 -0.0159705)
(0.0102857 -0.000410939 -0.0195095)
(0.00950379 -0.000976592 -0.0238275)
(0.00880177 -0.00169585 -0.0285442)
(0.00711497 -0.00213315 -0.0314049)
(0.0037963 -0.0015352 -0.0235484)
(0.0566173 -3.46536e-05 -0.0019411)
(0.0562354 0.000234251 -0.00457097)
(0.0554593 0.00055355 -0.00652473)
(0.0543042 0.000834787 -0.00825707)
(0.0527936 0.00108093 -0.0100688)
(0.0509183 0.00128806 -0.0121676)
(0.0486809 0.00143564 -0.0147046)
(0.0461067 0.00149296 -0.0178018)
(0.0432392 0.00141838 -0.0215785)
(0.0401277 0.00115146 -0.0261793)
(0.0368087 0.000592687 -0.0317974)
(0.0332633 -0.000416898 -0.0386691)
(0.0293745 -0.00208177 -0.0468776)
(0.0245113 -0.0043908 -0.0553967)
(0.0168465 -0.00620575 -0.0590881)
(0.00710266 -0.00462271 -0.0410336)
(0.0879374 0.000120633 -0.00153904)
(0.0875478 0.000560438 -0.00418715)
(0.0867298 0.00108611 -0.006474)
(0.0855099 0.00161891 -0.00862174)
(0.0839038 0.00213352 -0.0108648)
(0.0818633 0.00260549 -0.0134237)
(0.0793363 0.00299387 -0.0164919)
(0.0762827 0.00324521 -0.0202361)
(0.0726724 0.00329335 -0.0248108)
(0.0684671 0.00305079 -0.0303846)
(0.0635882 0.00237715 -0.0371728)
(0.0578422 0.00103769 -0.0454559)
(0.0508187 -0.00133222 -0.0554418)
(0.0414109 -0.00494053 -0.0660987)
(0.0269309 -0.00841515 -0.0710651)
(0.00983946 -0.00709582 -0.049375)
(0.114057 0.000247205 -0.00120253)
(0.113735 0.000856787 -0.00346389)
(0.113014 0.00155553 -0.00558532)
(0.111928 0.00229808 -0.00768062)
(0.110502 0.00305615 -0.00990567)
(0.108674 0.00380109 -0.0124479)
(0.106344 0.00448768 -0.0155098)
(0.103395 0.00505673 -0.0192922)
(0.0996965 0.00543569 -0.0239917)
(0.0950881 0.00553634 -0.0298138)
(0.0893496 0.00522259 -0.0370017)
(0.0820901 0.00427077 -0.0458773)
(0.0726451 0.00226324 -0.0568212)
(0.0594766 -0.00130193 -0.0692294)
(0.0384432 -0.00566105 -0.0763772)
(0.0130673 -0.00649714 -0.0543337)
(0.134948 0.000345306 -0.000994849)
(0.134688 0.00110477 -0.00289297)
(0.134086 0.00193966 -0.00472545)
(0.13317 0.00283634 -0.00658194)
(0.131982 0.00377996 -0.0085775)
(0.130467 0.00475478 -0.0108652)
(0.12851 0.0057324 -0.0136383)
(0.125944 0.00667357 -0.0171179)
(0.122559 0.00752764 -0.0215434)
(0.118079 0.00824002 -0.0271746)
(0.112144 0.00872178 -0.034309)
(0.104179 0.00883956 -0.0433202)
(0.093254 0.00828998 -0.0547332)
(0.0776007 0.00648079 -0.0685814)
(0.0512626 0.00299847 -0.0782879)
(0.0172059 -0.00128655 -0.0572169)
(0.15061 0.000421959 -0.000862057)
(0.150401 0.00130611 -0.00249724)
(0.149907 0.00224815 -0.00407805)
(0.149155 0.00325746 -0.00568774)
(0.148194 0.00433695 -0.00742126)
(0.146989 0.00549104 -0.00940399)
(0.145431 0.00671991 -0.0118094)
(0.143343 0.00802306 -0.0148588)
(0.140481 0.00939661 -0.0188161)
(0.136498 0.0108557 -0.0239855)
(0.130944 0.0124014 -0.0307208)
(0.123107 0.014078 -0.0394591)
(0.111821 0.0158067 -0.0507889)
(0.0953603 0.0174373 -0.0654339)
(0.0658662 0.0174487 -0.0776009)
(0.0229723 0.0102623 -0.0580468)
(0.161049 0.000478643 -0.00076884)
(0.16088 0.00145604 -0.0022157)
(0.160486 0.00247503 -0.00360432)
(0.159893 0.00356097 -0.00501122)
(0.159155 0.00473345 -0.00651849)
(0.15825 0.00601724 -0.00822995)
(0.157091 0.00744254 -0.0102952)
(0.155518 0.00905287 -0.0129185)
(0.153299 0.0109005 -0.0163604)
(0.150076 0.0130903 -0.0209364)
(0.145416 0.0157347 -0.0270185)
(0.138552 0.0191521 -0.0350813)
(0.128286 0.0235571 -0.0456725)
(0.112949 0.0300482 -0.0600477)
(0.0844575 0.0372124 -0.0742534)
(0.0327702 0.0318984 -0.0561232)
(0.166267 0.000514936 -0.000699661)
(0.166133 0.00154827 -0.00200655)
(0.165835 0.00260769 -0.00324897)
(0.165403 0.0037299 -0.00449573)
(0.164893 0.00494873 -0.00581909)
(0.164297 0.00630644 -0.00730704)
(0.163554 0.00785917 -0.00908752)
(0.162527 0.00968822 -0.0113399)
(0.161038 0.0118947 -0.0143001)
(0.158766 0.0146612 -0.0182568)
(0.155438 0.0181895 -0.023547)
(0.150316 0.0230597 -0.0305959)
(0.142953 0.0297706 -0.0398321)
(0.130682 0.0408752 -0.0523619)
(0.113348 0.0610434 -0.0680251)
(0.0520862 0.0635232 -0.049746)
(0.0214112 -0.000129187 -0.00154507)
(0.0212077 -9.01544e-06 -0.00281103)
(0.0206974 0.000102922 -0.00357853)
(0.0199243 0.000160931 -0.00425678)
(0.0189353 0.000198137 -0.00500731)
(0.0177424 0.000225076 -0.00591618)
(0.0163542 0.000237622 -0.00704199)
(0.014791 0.000225423 -0.00843401)
(0.0130875 0.000172071 -0.0101425)
(0.0112931 5.33016e-05 -0.0122246)
(0.00947158 -0.000167407 -0.0147441)
(0.00770414 -0.000542522 -0.0177476)
(0.00608828 -0.00112836 -0.0211503)
(0.00460168 -0.00189118 -0.0243687)
(0.00290665 -0.0025496 -0.0252181)
(0.000967641 -0.00217647 -0.0170759)
(0.0597744 -5.62631e-05 -0.00176383)
(0.0592845 0.000187779 -0.00419231)
(0.0583038 0.000497852 -0.00601669)
(0.0568545 0.000770524 -0.00763933)
(0.0549697 0.00100551 -0.00933044)
(0.0526311 0.00119799 -0.0112804)
(0.0498235 0.00132459 -0.0136294)
(0.0465494 0.00134991 -0.0164874)
(0.0428268 0.00122624 -0.0199522)
(0.0386794 0.000886516 -0.0241233)
(0.0341201 0.00022622 -0.0291056)
(0.0291283 -0.000910294 -0.0349667)
(0.0236352 -0.00271097 -0.041481)
(0.0173227 -0.00512186 -0.0472722)
(0.00975869 -0.00715063 -0.0475222)
(0.00254513 -0.00571692 -0.0296733)
(0.0928632 0.00010702 -0.00137948)
(0.0923786 0.000519801 -0.00379342)
(0.091359 0.00102704 -0.00590529)
(0.0898266 0.00154547 -0.0078993)
(0.0878059 0.002046 -0.00997676)
(0.085241 0.00250163 -0.0123333)
(0.0820595 0.00286583 -0.0151464)
(0.0781917 0.00307604 -0.0185692)
(0.0735691 0.00305407 -0.0227364)
(0.0681099 0.00269864 -0.0277745)
(0.0616935 0.00185589 -0.0338084)
(0.0540935 0.000288501 -0.0409298)
(0.04493 -0.00233547 -0.0489811)
(0.0333882 -0.00609706 -0.0563913)
(0.0186752 -0.00967734 -0.0570384)
(0.00448124 -0.00839763 -0.0351852)
(0.120453 0.000243086 -0.00107245)
(0.120055 0.000837525 -0.00311634)
(0.119162 0.00152308 -0.00505878)
(0.11779 0.00225602 -0.00699191)
(0.11597 0.00300689 -0.00904396)
(0.113633 0.00374553 -0.0113746)
(0.110662 0.00442144 -0.0141635)
(0.106907 0.0049653 -0.0175941)
(0.10219 0.0052903 -0.0218446)
(0.0962839 0.00529167 -0.0270856)
(0.0888929 0.00481668 -0.0334811)
(0.0795531 0.00363193 -0.0411743)
(0.0675716 0.00135591 -0.0501426)
(0.0515256 -0.0023391 -0.0590663)
(0.029588 -0.00664026 -0.0611697)
(0.00715461 -0.00741511 -0.0381829)
(0.142518 0.000349279 -0.000887118)
(0.142196 0.00111025 -0.00259747)
(0.141448 0.00194609 -0.0042682)
(0.140281 0.00284708 -0.00597611)
(0.138735 0.00379947 -0.00781565)
(0.136751 0.00478796 -0.00991295)
(0.134197 0.00578146 -0.0124333)
(0.130879 0.00673376 -0.0155732)
(0.126535 0.00758314 -0.0195501)
(0.120808 0.00826245 -0.0245923)
(0.113233 0.00867057 -0.0309292)
(0.103109 0.00867202 -0.0387718)
(0.0894353 0.00798758 -0.0482626)
(0.0703144 0.00619699 -0.0585453)
(0.0422532 0.00295878 -0.0626399)
(0.0109736 -0.00122555 -0.03979)
(0.15906 0.000432391 -0.000769459)
(0.158796 0.00133329 -0.00224281)
(0.158177 0.00229202 -0.00368286)
(0.157206 0.00332279 -0.00516384)
(0.155926 0.0044312 -0.00676582)
(0.154294 0.00562396 -0.00859073)
(0.152191 0.00690178 -0.0107822)
(0.149415 0.00826267 -0.0135307)
(0.145678 0.00969904 -0.0170713)
(0.140547 0.0112239 -0.0216751)
(0.133458 0.0128389 -0.0276366)
(0.123529 0.0146019 -0.0352442)
(0.109508 0.016476 -0.0447574)
(0.0893115 0.0184377 -0.0559268)
(0.0572328 0.0189888 -0.062153)
(0.0167318 0.012009 -0.0400728)
(0.170086 0.000494076 -0.000686525)
(0.169867 0.00150048 -0.00199114)
(0.169365 0.00254991 -0.00325706)
(0.168579 0.00367327 -0.0045535)
(0.167557 0.00489422 -0.00595157)
(0.166269 0.00624142 -0.00753584)
(0.164618 0.00774861 -0.00942741)
(0.162426 0.00946374 -0.0117969)
(0.159426 0.011444 -0.0148715)
(0.155188 0.0138061 -0.0189306)
(0.149166 0.0166815 -0.0242954)
(0.140419 0.0204275 -0.031307)
(0.127643 0.0253382 -0.0402545)
(0.108811 0.0326433 -0.0514842)
(0.0769915 0.040804 -0.0597849)
(0.0270074 0.0361401 -0.0387201)
(0.175597 0.000534053 -0.000624548)
(0.175418 0.00160554 -0.00180344)
(0.175025 0.00270611 -0.00293733)
(0.174423 0.00387862 -0.00408857)
(0.173662 0.00516202 -0.00532067)
(0.172726 0.00660375 -0.00670552)
(0.171546 0.00826582 -0.00834523)
(0.169975 0.0102391 -0.0103864)
(0.167813 0.0126369 -0.0130313)
(0.164681 0.0156675 -0.0165337)
(0.160219 0.0195652 -0.0211905)
(0.153546 0.0249862 -0.027324)
(0.144086 0.0325203 -0.0351719)
(0.129105 0.0450422 -0.0452291)
(0.108436 0.0669902 -0.0556464)
(0.0467314 0.0695842 -0.0348137)
(0.0223359 -0.000146877 -0.00136042)
(0.0220711 -3.43884e-05 -0.00248355)
(0.0214522 7.9829e-05 -0.00316897)
(0.0205348 0.000136349 -0.00377603)
(0.0193708 0.000169262 -0.0044455)
(0.0179685 0.000190265 -0.00525229)
(0.0163301 0.00019512 -0.00624659)
(0.0144691 0.000173037 -0.00746785)
(0.0124147 0.000107148 -0.00895107)
(0.0102149 -2.65592e-05 -0.0107278)
(0.00794006 -0.000262275 -0.0128197)
(0.0056949 -0.000649498 -0.0152083)
(0.00363558 -0.0012335 -0.0177302)
(0.00192437 -0.0019894 -0.019794)
(0.000675965 -0.00267984 -0.0196347)
(-0.000227759 -0.00228856 -0.0125828)
(0.0624035 -7.52892e-05 -0.00152825)
(0.0618178 0.000145677 -0.00365803)
(0.0606555 0.000446631 -0.00527211)
(0.0589444 0.000710898 -0.00671013)
(0.0567276 0.000934945 -0.00820358)
(0.053981 0.00111303 -0.00991723)
(0.050677 0.00121916 -0.0119727)
(0.0468041 0.00121397 -0.0144619)
(0.0423679 0.0010453 -0.0174573)
(0.0373873 0.00064294 -0.0210163)
(0.0318865 -9.53625e-05 -0.0251716)
(0.0258975 -0.00130826 -0.0298784)
(0.0194811 -0.00315417 -0.0347747)
(0.0126822 -0.00553648 -0.0385098)
(0.00587871 -0.00752474 -0.0371725)
(0.000529209 -0.00600745 -0.0219277)
(0.0969668 9.55381e-05 -0.00118237)
(0.0963995 0.00048477 -0.00327773)
(0.0952038 0.000975498 -0.00512914)
(0.0933966 0.00148073 -0.00688422)
(0.0910108 0.00196795 -0.00870875)
(0.0879854 0.00240782 -0.0107675)
(0.0842342 0.00274879 -0.0132126)
(0.0796678 0.00292032 -0.0161749)
(0.0741951 0.00283445 -0.0197626)
(0.0677151 0.00238121 -0.0240599)
(0.0601067 0.00140451 -0.0291174)
(0.0511766 -0.000313728 -0.0348971)
(0.0406811 -0.00304337 -0.0410586)
(0.028229 -0.00676578 -0.0459875)
(0.0141511 -0.0102114 -0.0446005)
(0.00210582 -0.00880247 -0.0258122)
(0.125782 0.000240201 -0.000915845)
(0.125318 0.000822855 -0.00267814)
(0.124276 0.00149792 -0.00436906)
(0.122655 0.00222301 -0.00606179)
(0.120491 0.00296764 -0.00785848)
(0.117709 0.00370044 -0.00988889)
(0.114179 0.00436633 -0.012303)
(0.10973 0.004887 -0.0152564)
(0.104153 0.00516336 -0.0188981)
(0.0971827 0.00507881 -0.0233584)
(0.0884938 0.00447493 -0.0287313)
(0.0776286 0.00312937 -0.0350338)
(0.0639868 0.000731115 -0.0420178)
(0.0465159 -0.00290807 -0.0481909)
(0.0248263 -0.00698807 -0.047757)
(0.00457556 -0.00761753 -0.0277746)
(0.148825 0.000353666 -0.000757663)
(0.148448 0.00111823 -0.00222908)
(0.147575 0.00195711 -0.00367837)
(0.146191 0.00286366 -0.00516992)
(0.144336 0.003825 -0.0067796)
(0.141942 0.00482648 -0.00860757)
(0.138868 0.00583487 -0.0107876)
(0.134899 0.00679771 -0.0134825)
(0.129741 0.00764311 -0.0168743)
(0.122987 0.00829366 -0.0211482)
(0.114119 0.00864221 -0.0264661)
(0.102398 0.00856536 -0.032918)
(0.0868733 0.00783186 -0.0404134)
(0.0658899 0.00616928 -0.0477903)
(0.0375761 0.00323948 -0.0488776)
(0.00834676 -0.000827158 -0.0287729)
(0.166101 0.0004427 -0.00065765)
(0.165788 0.00136111 -0.00192536)
(0.165062 0.00233736 -0.00317369)
(0.163901 0.00338953 -0.00446654)
(0.162347 0.00452547 -0.00587023)
(0.160345 0.00575415 -0.00746554)
(0.157765 0.00707702 -0.00936603)
(0.154392 0.00849056 -0.0117252)
(0.149906 0.00998275 -0.0147366)
(0.143828 0.0115632 -0.0186225)
(0.135527 0.0132328 -0.0236098)
(0.124051 0.0150645 -0.0298713)
(0.108171 0.0170632 -0.0374524)
(0.0858723 0.0193176 -0.0457055)
(0.0529969 0.0203192 -0.0485603)
(0.0142481 0.0134497 -0.0289145)
(0.177615 0.000509117 -0.000586938)
(0.177354 0.00154431 -0.00171018)
(0.176757 0.00262379 -0.00280821)
(0.175806 0.00378309 -0.00394091)
(0.17454 0.00504937 -0.00516858)
(0.172921 0.00645491 -0.00655898)
(0.170842 0.0080367 -0.00820671)
(0.16811 0.0098462 -0.0102461)
(0.164439 0.0119431 -0.0128602)
(0.159357 0.0144509 -0.0162767)
(0.152259 0.0175102 -0.0207508)
(0.14212 0.0215035 -0.0265161)
(0.127644 0.0267692 -0.0336853)
(0.106771 0.0346208 -0.0421953)
(0.0736485 0.0434266 -0.0469614)
(0.0249302 0.0390577 -0.0280948)
(0.183371 0.000552649 -0.000533822)
(0.183153 0.00166148 -0.00154915)
(0.182677 0.0028019 -0.00253345)
(0.18193 0.00402202 -0.00354064)
(0.180954 0.00536541 -0.00462507)
(0.179725 0.00688418 -0.00584493)
(0.178167 0.00864542 -0.00727955)
(0.176121 0.0107477 -0.0090424)
(0.173376 0.0133127 -0.011294)
(0.169523 0.0165661 -0.0142392)
(0.164162 0.0207596 -0.0181174)
(0.156334 0.0265935 -0.0231625)
(0.145465 0.0346945 -0.029482)
(0.128809 0.0480827 -0.0372866)
(0.106709 0.0710668 -0.0442609)
(0.044854 0.0733985 -0.0256067)
(0.023073 -0.00016151 -0.00112062)
(0.022757 -5.40521e-05 -0.00205125)
(0.0220457 5.96703e-05 -0.00262099)
(0.0210054 0.000114232 -0.00312638)
(0.0196937 0.000143258 -0.00368201)
(0.0181166 0.000158999 -0.0043485)
(0.0162725 0.000157149 -0.00516567)
(0.0141718 0.00012668 -0.00616267)
(0.011844 5.06095e-05 -0.00736133)
(0.00934342 -9.42844e-05 -0.00877466)
(0.00675692 -0.000338708 -0.0103983)
(0.00422356 -0.000730384 -0.0121818)
(0.0019612 -0.00130375 -0.0139514)
(0.000255456 -0.00203326 -0.0152129)
(-0.000547788 -0.00268121 -0.0146442)
(-0.000765041 -0.00226467 -0.00909997)
(0.0645061 -9.09896e-05 -0.0012429)
(0.0638398 0.000111079 -0.00299059)
(0.0625238 0.00040299 -0.00432418)
(0.0605928 0.000659437 -0.00551318)
(0.0580974 0.000873761 -0.00674404)
(0.0550108 0.00103918 -0.00814997)
(0.0512983 0.00112752 -0.00982885)
(0.0469413 0.00109631 -0.0118519)
(0.0419428 0.000890388 -0.0142683)
(0.0363306 0.000438784 -0.0171046)
(0.0301563 -0.000354904 -0.0203511)
(0.0235194 -0.00160732 -0.023905)
(0.016613 -0.0034515 -0.0273994)
(0.00974446 -0.00575443 -0.0297011)
(0.00367645 -0.00761671 -0.0278896)
(-0.000430944 -0.00602075 -0.0159331)
(0.100249 8.62243e-05 -0.000953695)
(0.0996131 0.00045557 -0.0026597)
(0.0982707 0.00093274 -0.00417823)
(0.0962346 0.0014268 -0.00562184)
(0.0935441 0.00190254 -0.00711984)
(0.0901359 0.00232878 -0.00880243)
(0.0859151 0.00264988 -0.0107909)
(0.0807812 0.00278877 -0.0131888)
(0.0746327 0.00265014 -0.0160765)
(0.0673661 0.00211924 -0.019504)
(0.0588834 0.00104393 -0.023473)
(0.0490452 -0.000766471 -0.0278881)
(0.03776 -0.00351807 -0.0323706)
(0.0249754 -0.00712643 -0.035527)
(0.0115846 -0.0103702 -0.0335027)
(0.000981066 -0.00884416 -0.0187062)
(0.130045 0.000238208 -0.000736771)
(0.129526 0.000811862 -0.00216438)
(0.128361 0.00147901 -0.00354354)
(0.126535 0.00219804 -0.00493017)
(0.124085 0.00293765 -0.00640202)
(0.120935 0.00366568 -0.00805869)
(0.116943 0.00432343 -0.0100171)
(0.111928 0.00482521 -0.0123998)
(0.105662 0.0050622 -0.0153219)
(0.0978654 0.00490993 -0.0188758)
(0.0882078 0.00421084 -0.0231064)
(0.076275 0.00276077 -0.0279657)
(0.0615907 0.000324628 -0.0331288)
(0.0434354 -0.00319205 -0.0372584)
(0.0221883 -0.00702625 -0.0358674)
(0.00339195 -0.00753494 -0.0200429)
(0.15387 0.00035785 -0.000609618)
(0.153448 0.00112674 -0.0017997)
(0.152471 0.00196951 -0.00297855)
(0.150909 0.00288182 -0.00419761)
(0.148798 0.00385144 -0.0055154)
(0.146067 0.00486443 -0.00700763)
(0.142564 0.00588609 -0.00877612)
(0.138063 0.00685886 -0.0109465)
(0.13225 0.00770241 -0.0136599)
(0.124694 0.00833143 -0.0170558)
(0.114856 0.00863656 -0.021241)
(0.102005 0.00851166 -0.0262342)
(0.0852792 0.00777295 -0.0318485)
(0.0632977 0.00625782 -0.0369687)
(0.0350963 0.00360799 -0.0367203)
(0.00721222 -0.000375615 -0.0207126)
(0.171733 0.000451976 -0.000529408)
(0.17138 0.0013866 -0.00155494)
(0.170564 0.00237917 -0.00256984)
(0.169249 0.00345072 -0.00362594)
(0.167468 0.00461088 -0.00477579)
(0.165163 0.00587056 -0.00608077)
(0.162192 0.00723209 -0.007626)
(0.158329 0.00869075 -0.00952731)
(0.153239 0.0102303 -0.0119324)
(0.146418 0.0118565 -0.0150105)
(0.137206 0.0135686 -0.0189257)
(0.124634 0.0154524 -0.0237746)
(0.10753 0.0175468 -0.0294996)
(0.0840469 0.0200244 -0.0353914)
(0.0509144 0.0213702 -0.0365459)
(0.0132758 0.01455 -0.0208336)
(0.183638 0.000522533 -0.000472565)
(0.18334 0.00158365 -0.00138169)
(0.182666 0.00269016 -0.00227483)
(0.181578 0.00388123 -0.00320056)
(0.180114 0.00518686 -0.00420744)
(0.178224 0.00664235 -0.00534772)
(0.175794 0.0082875 -0.00669194)
(0.172619 0.0101765 -0.00833969)
(0.168406 0.0123699 -0.0104282)
(0.162658 0.0149946 -0.0131293)
(0.15475 0.0181937 -0.0166329)
(0.143623 0.022364 -0.0210942)
(0.128022 0.0278659 -0.026534)
(0.105962 0.0360677 -0.0327464)
(0.0722316 0.0452961 -0.0355047)
(0.0242736 0.041095 -0.0203814)
(0.189589 0.000569217 -0.000429711)
(0.189339 0.00171143 -0.0012517)
(0.188794 0.00288726 -0.00205284)
(0.187927 0.00414909 -0.00287672)
(0.186777 0.00554429 -0.00376742)
(0.18531 0.00712887 -0.00477025)
(0.183442 0.00897403 -0.00594441)
(0.181006 0.0111842 -0.00737304)
(0.177788 0.0138865 -0.0091748)
(0.173363 0.0173173 -0.0115031)
(0.167321 0.0217354 -0.0145371)
(0.158668 0.0278643 -0.0184422)
(0.146866 0.0363374 -0.023256)
(0.12919 0.0502439 -0.0290591)
(0.106393 0.0738709 -0.0337522)
(0.0443251 0.0759853 -0.0187536)
(0.0236241 -0.000172799 -0.000834706)
(0.023268 -6.86804e-05 -0.00153093)
(0.0224843 4.32044e-05 -0.00195829)
(0.0213476 9.56821e-05 -0.00233751)
(0.0199208 0.000121368 -0.00275328)
(0.0182088 0.000132705 -0.00325001)
(0.0162081 0.000125362 -0.00385628)
(0.0139287 8.81912e-05 -0.00459169)
(0.0114028 4.25782e-06 -0.00546835)
(0.00869345 -0.000149038 -0.00648877)
(0.00590716 -0.000402162 -0.00763823)
(0.00321264 -0.00079116 -0.00886197)
(0.000868644 -0.0013514 -0.0100168)
(-0.000743761 -0.00204071 -0.010745)
(-0.00121361 -0.00266554 -0.0101312)
(-0.00102896 -0.00221305 -0.00618599)
(0.0660822 -0.000103042 -0.000917057)
(0.0653529 8.45048e-05 -0.00221576)
(0.0639168 0.000368533 -0.00321104)
(0.0618147 0.000618332 -0.00409873)
(0.0591031 0.000824644 -0.00501538)
(0.0557542 0.000979778 -0.00605846)
(0.05173 0.00105393 -0.00729914)
(0.0470093 0.00100236 -0.00878748)
(0.0415981 0.000768048 -0.010554)
(0.035536 0.000280952 -0.0126069)
(0.0289118 -0.000547187 -0.0149204)
(0.0218794 -0.00181972 -0.017385)
(0.0147298 -0.00364565 -0.0197022)
(0.00794204 -0.00585674 -0.0210411)
(0.00243448 -0.0076139 -0.0194034)
(-0.000898039 -0.00595439 -0.0108769)
(0.10271 7.92192e-05 -0.000699347)
(0.102021 0.000433075 -0.0019597)
(0.100565 0.000899896 -0.00308704)
(0.0983518 0.00138525 -0.00416083)
(0.0954259 0.00185189 -0.00527365)
(0.0917227 0.00226736 -0.00651904)
(0.0871427 0.00257299 -0.00798461)
(0.0815802 0.00268682 -0.00974456)
(0.0749313 0.00250838 -0.0118534)
(0.0671 0.00192086 -0.0143372)
(0.058013 0.00078046 -0.0171762)
(0.0475832 -0.0010863 -0.0202722)
(0.0358503 -0.00382334 -0.0232957)
(0.0229835 -0.00730977 -0.0252088)
(0.0101375 -0.0103739 -0.0233467)
(0.000442678 -0.00876822 -0.0127645)
(0.133241 0.000236958 -0.000539175)
(0.13268 0.000804199 -0.00158996)
(0.13142 0.00146576 -0.00260965)
(0.129436 0.00218049 -0.0036379)
(0.126767 0.00291641 -0.00472956)
(0.123333 0.00364094 -0.00595463)
(0.118989 0.00429277 -0.0073961)
(0.113545 0.00478072 -0.00914131)
(0.106766 0.00498873 -0.0112712)
(0.0983676 0.00478718 -0.0138458)
(0.0880284 0.00401998 -0.0168811)
(0.0753871 0.00250679 -0.0203106)
(0.0600725 7.27982e-05 -0.0238453)
(0.0415965 -0.00331926 -0.0264597)
(0.0207382 -0.00694536 -0.0250079)
(0.00285013 -0.00737823 -0.0136538)
(0.157653 0.000361422 -0.000446118)
(0.157195 0.00113446 -0.00132108)
(0.156139 0.00198107 -0.00219093)
(0.154441 0.00289858 -0.00309325)
(0.152135 0.00387517 -0.00407002)
(0.149145 0.00489754 -0.00517391)
(0.145315 0.00593011 -0.00647588)
(0.140409 0.00691159 -0.00806423)
(0.134105 0.00775521 -0.0100381)
(0.125964 0.00836977 -0.0124937)
(0.11544 0.00864535 -0.0154963)
(0.101829 0.00849402 -0.0190332)
(0.0843518 0.00776554 -0.022918)
(0.0618357 0.00637655 -0.0262682)
(0.0338007 0.00394578 -0.02562)
(0.00673368 6.74761e-06 -0.0141028)
(0.175956 0.000459549 -0.000387518)
(0.175572 0.00140765 -0.00114162)
(0.174687 0.00241382 -0.00189024)
(0.173253 0.00350132 -0.00267152)
(0.1713 0.00468098 -0.00352393)
(0.168763 0.00596525 -0.00449055)
(0.165495 0.00735731 -0.00563005)
(0.161259 0.00885163 -0.00702251)
(0.155716 0.0104285 -0.00877049)
(0.14835 0.0120901 -0.0109915)
(0.138494 0.0138338 -0.0137953)
(0.125181 0.0157544 -0.0172326)
(0.107298 0.0179157 -0.0212198)
(0.0831463 0.0205488 -0.0251672)
(0.0499318 0.022139 -0.0255403)
(0.012935 0.0153357 -0.0142111)
(0.188155 0.000533394 -0.000345936)
(0.187828 0.00161565 -0.00101469)
(0.187093 0.00274416 -0.00167373)
(0.185902 0.00396085 -0.00235874)
(0.184285 0.0052978 -0.00310564)
(0.182191 0.00679261 -0.00395157)
(0.179494 0.00848724 -0.00494513)
(0.175984 0.0104379 -0.00615431)
(0.171362 0.0127054 -0.00767298)
(0.165124 0.0154176 -0.00961981)
(0.156641 0.018717 -0.0121241)
(0.144846 0.0230069 -0.015285)
(0.128523 0.0286587 -0.0190869)
(0.105774 0.0370768 -0.0233214)
(0.0717273 0.0465825 -0.0248917)
(0.0241657 0.0424851 -0.0139741)
(0.194252 0.000582614 -0.000314521)
(0.193977 0.00175189 -0.000919271)
(0.193379 0.00295632 -0.0015107)
(0.19242 0.00425152 -0.00212071)
(0.191137 0.00568775 -0.00278202)
(0.189489 0.00732399 -0.00352714)
(0.187387 0.00923448 -0.00439694)
(0.184656 0.0115278 -0.00544779)
(0.181082 0.0143343 -0.00675999)
(0.176233 0.0178968 -0.0084386)
(0.169704 0.0224748 -0.010606)
(0.160491 0.0288035 -0.0133738)
(0.148089 0.0375105 -0.0167468)
(0.129799 0.0517181 -0.020754)
(0.106645 0.0757539 -0.0237803)
(0.0443106 0.0777282 -0.0129248)
(0.0239901 -0.000180469 -0.000511611)
(0.0236063 -7.96285e-05 -0.000939855)
(0.0227732 3.06821e-05 -0.00120274)
(0.0215704 8.12964e-05 -0.00143567)
(0.020065 0.000104099 -0.00169067)
(0.0182615 0.000111773 -0.00199453)
(0.0161558 9.99459e-05 -0.0023642)
(0.0137582 5.73381e-05 -0.00281075)
(0.0111044 -3.29461e-05 -0.00333985)
(0.00826534 -0.00019295 -0.0039501)
(0.00536227 -0.000452335 -0.00462815)
(0.00258572 -0.000841924 -0.00533535)
(0.000219871 -0.0013932 -0.00597979)
(-0.00130428 -0.00205428 -0.00634363)
(-0.00155964 -0.0026578 -0.00591203)
(-0.001148 -0.00217801 -0.00357303)
(0.0671308 -0.000111015 -0.000558064)
(0.0663581 6.60211e-05 -0.00135408)
(0.0648409 0.000344398 -0.00196433)
(0.0626221 0.000589298 -0.00250829)
(0.059763 0.000789593 -0.00306927)
(0.0562362 0.000937129 -0.00370602)
(0.0520021 0.00100103 -0.00446128)
(0.0470395 0.000935023 -0.00536446)
(0.0413586 0.000680941 -0.00643169)
(0.035011 0.00016979 -0.00766321)
(0.0281115 -0.00068108 -0.0090357)
(0.0208572 -0.00196562 -0.0104742)
(0.0136001 -0.00377187 -0.0117841)
(0.00691286 -0.0059136 -0.0124681)
(0.00177263 -0.00759237 -0.0113755)
(-0.00111153 -0.0058927 -0.00630865)
(0.104348 7.47729e-05 -0.000423551)
(0.103622 0.00041827 -0.00119303)
(0.102091 0.000878119 -0.00188197)
(0.0997572 0.00135753 -0.0025385)
(0.0966712 0.00181779 -0.00321862)
(0.092768 0.00222575 -0.00397796)
(0.0879458 0.00252082 -0.00486884)
(0.082097 0.00261777 -0.00593543)
(0.0751183 0.00241283 -0.00720888)
(0.0669228 0.00178848 -0.00870104)
(0.0574562 0.000607583 -0.0103925)
(0.0466797 -0.00128664 -0.0122133)
(0.0347113 -0.00400569 -0.0139412)
(0.0218495 -0.00739962 -0.0149544)
(0.00936771 -0.0103357 -0.0137032)
(0.000201065 -0.00868391 -0.00740214)
(0.13537 0.00023637 -0.000326016)
(0.13478 0.000799762 -0.000965981)
(0.133456 0.00145795 -0.00158747)
(0.131366 0.00217011 -0.00221476)
(0.128548 0.00290375 -0.00288119)
(0.124922 0.0036261 -0.00362771)
(0.12034 0.00427431 -0.00450322)
(0.114609 0.00475358 -0.00555953)
(0.10749 0.00494312 -0.00684411)
(0.0987013 0.00471021 -0.0083903)
(0.0879326 0.0039013 -0.010201)
(0.0748607 0.00235532 -0.012222)
(0.0591868 -6.93164e-05 -0.01427)
(0.0405722 -0.00336945 -0.0157053)
(0.0199863 -0.00685345 -0.0146868)
(0.00262162 -0.00724357 -0.0079115)
(0.160174 0.000364042 -0.000269764)
(0.159691 0.00114043 -0.000802321)
(0.158581 0.0019902 -0.0013318)
(0.156791 0.0029118 -0.00188143)
(0.154353 0.00389359 -0.00247727)
(0.151189 0.00492273 -0.00315001)
(0.147138 0.00596325 -0.00394086)
(0.141961 0.00695151 -0.00490163)
(0.135333 0.00779645 -0.00609051)
(0.126809 0.0084029 -0.00756315)
(0.11585 0.00866086 -0.00935428)
(0.101772 0.00849329 -0.0114467)
(0.083856 0.00777871 -0.0137127)
(0.0610645 0.00647764 -0.015599)
(0.0331644 0.00419177 -0.0150609)
(0.00655815 0.000273432 -0.00817436)
(0.17877 0.000464867 -0.000234415)
(0.178364 0.00142265 -0.000693525)
(0.177434 0.00243862 -0.00114917)
(0.175919 0.00353753 -0.00162479)
(0.17385 0.00473096 -0.00214467)
(0.171157 0.00603235 -0.0027341)
(0.167688 0.00744559 -0.00342693)