/*--------------------------------*- C++ -*----------------------------------*\
| =========                 |                                                 |
| \\      /  F ield         | foam-extend: Open Source CFD                    |
|  \\    /   O peration     | Version:     3.1                                |
|   \\  /    A nd           | Web:         http://www.extend-project.de       |
|    \\/     M anipulation  |                                                 |
\*---------------------------------------------------------------------------*/
FoamFile
{
    version     2.0;
    format      ascii;
    class       volVectorField;
    location    "2";
    object      cellMotionU;
}
// * * * * * * * * * * * * * * * * * * * * * * * * * * * * * * * * * * * * * //

dimensions      [0 1 -1 0 0 0 0];

internalField   nonuniform List<vector> 
14592
(
(-7.75335e-12 9.54539e-12 2.95024e-12)
(-2.28475e-11 2.78864e-11 8.75335e-12)
(-3.77403e-11 4.52577e-11 1.46459e-11)
(-5.35984e-11 6.24886e-11 2.1158e-11)
(-7.16931e-11 8.02938e-11 2.88402e-11)
(-9.35734e-11 9.9289e-11 3.83275e-11)
(-1.21268e-10 1.1994e-10 5.04127e-11)
(-1.576e-10 1.42626e-10 6.61441e-11)
(-2.06568e-10 1.6735e-10 8.69534e-11)
(-2.73951e-10 1.93574e-10 1.14836e-10)
(-3.68103e-10 2.19556e-10 1.52585e-10)
(-5.00977e-10 2.41035e-10 2.04042e-10)
(-6.89352e-10 2.48889e-10 2.74223e-10)
(-9.55264e-10 2.24588e-10 3.68605e-10)
(-1.31813e-09 1.35882e-10 4.88287e-10)
(-1.71961e-09 -3.14611e-11 6.04683e-10)
(-2.27614e-11 2.82193e-11 8.71459e-12)
(-6.70454e-11 8.24764e-11 2.58496e-11)
(-1.10623e-10 1.33826e-10 4.32248e-11)
(-1.5684e-10 1.84775e-10 6.23852e-11)
(-2.09306e-10 2.37441e-10 8.49254e-11)
(-2.7236e-10 2.93592e-10 1.1267e-10)
(-3.51663e-10 3.54736e-10 1.47883e-10)
(-4.54977e-10 4.22039e-10 1.9353e-10)
(-5.93195e-10 4.95802e-10 2.53636e-10)
(-7.81885e-10 5.75204e-10 3.33763e-10)
(-1.04304e-09 6.56385e-10 4.4163e-10)
(-1.4072e-09 7.30443e-10 5.87766e-10)
(-1.91424e-09 7.78665e-10 7.85768e-10)
(-2.60822e-09 7.66819e-10 1.05046e-09)
(-3.50312e-09 6.45654e-10 1.3862e-09)
(-4.39797e-09 4.1528e-10 1.72096e-09)
(-3.64186e-11 4.57896e-11 1.41149e-11)
(-1.0715e-10 1.33782e-10 4.18412e-11)
(-1.76401e-10 2.17058e-10 6.98751e-11)
(-2.49249e-10 2.99662e-10 1.00652e-10)
(-3.31085e-10 3.85011e-10 1.36658e-10)
(-4.28253e-10 4.75985e-10 1.80693e-10)
(-5.48889e-10 5.75299e-10 2.36182e-10)
(-7.03816e-10 6.84813e-10 3.07529e-10)
(-9.08019e-10 8.06124e-10 4.0062e-10)
(-1.18218e-09 9.3904e-10 5.23442e-10)
(-1.55471e-09 1.08121e-09 6.86881e-10)
(-2.06281e-09 1.22559e-09 9.05452e-10)
(-2.75023e-09 1.35826e-09 1.19727e-09)
(-3.65229e-09 1.45701e-09 1.58064e-09)
(-4.73916e-09 1.4994e-09 2.05654e-09)
(-5.70916e-09 1.49482e-09 2.51906e-09)
(-4.80119e-11 6.15525e-11 1.89509e-11)
(-1.41031e-10 1.79822e-10 5.61256e-11)
(-2.31427e-10 2.91721e-10 9.3555e-11)
(-3.25376e-10 4.02649e-10 1.34383e-10)
(-4.29263e-10 5.17134e-10 1.8176e-10)
(-5.50389e-10 6.39213e-10 2.39168e-10)
(-6.97733e-10 7.72431e-10 3.10747e-10)
(-8.8287e-10 9.19927e-10 4.01695e-10)
(-1.12112e-09 1.08446e-09 5.1876e-10)
(-1.43283e-09 1.26805e-09 6.70855e-10)
(-1.84442e-09 1.47154e-09 8.69776e-10)
(-2.38833e-09 1.69421e-09 1.13078e-09)
(-3.09836e-09 1.93318e-09 1.47212e-09)
(-3.99238e-09 2.18412e-09 1.91041e-09)
(-5.01773e-09 2.44152e-09 2.43917e-09)
(-5.88106e-09 2.66925e-09 2.93123e-09)
(-5.70724e-11 7.49241e-11 2.30769e-11)
(-1.6732e-10 2.1889e-10 6.82679e-11)
(-2.73412e-10 3.54997e-10 1.13526e-10)
(-3.81945e-10 4.89788e-10 1.62488e-10)
(-4.9946e-10 6.28706e-10 2.18721e-10)
(-6.33129e-10 7.7676e-10 2.86048e-10)
(-7.9117e-10 9.38032e-10 3.68863e-10)
(-9.83678e-10 1.11693e-09 4.72477e-10)
(-1.22292e-09 1.31711e-09 6.03499e-10)
(-1.524e-09 1.54272e-09 7.70292e-10)
(-1.90459e-09 1.79801e-09 9.8343e-10)
(-2.38369e-09 2.08828e-09 1.25603e-09)
(-2.97722e-09 2.42074e-09 1.60332e-09)
(-3.68644e-09 2.80484e-09 2.03912e-09)
(-4.46562e-09 3.24317e-09 2.55828e-09)
(-5.11167e-09 3.6548e-09 3.04605e-09)
(-6.34149e-11 8.54278e-11 2.64092e-11)
(-1.85455e-10 2.49518e-10 7.80207e-11)
(-3.01548e-10 4.04568e-10 1.29387e-10)
(-4.18022e-10 5.57877e-10 1.84418e-10)
(-5.40891e-10 7.15678e-10 2.46852e-10)
(-6.76215e-10 8.83271e-10 3.20546e-10)
(-8.30418e-10 1.06564e-09 4.09738e-10)
(-1.0103e-09 1.26711e-09 5.19283e-10)
(-1.22305e-09 1.49239e-09 6.54863e-10)
(-1.47543e-09 1.7462e-09 8.23152e-10)
(-1.77242e-09 2.03438e-09 1.0319e-09)
(-2.11462e-09 2.36485e-09 1.28985e-09)
(-2.49431e-09 2.74898e-09 1.6062e-09)
(-2.89204e-09 3.20204e-09 1.98898e-09)
(-3.27588e-09 3.73151e-09 2.43539e-09)
(-3.5832e-09 4.24235e-09 2.8636e-09)
(-6.70966e-11 9.26824e-11 2.89241e-11)
(-1.95693e-10 2.70676e-10 8.53253e-11)
(-3.16411e-10 4.38728e-10 1.41069e-10)
(-4.34815e-10 6.04607e-10 2.00143e-10)
(-5.55899e-10 7.74992e-10 2.66246e-10)
(-6.84076e-10 9.55327e-10 3.43027e-10)
(-8.23299e-10 1.15059e-09 4.34278e-10)
(-9.76601e-10 1.36517e-09 5.44038e-10)
(-1.14534e-09 1.60322e-09 6.76609e-10)
(-1.32761e-09 1.86886e-09 8.36432e-10)
(-1.51566e-09 2.16677e-09 1.02772e-09)
(-1.69175e-09 2.50249e-09 1.25374e-09)
(-1.8235e-09 2.88349e-09 1.51548e-09)
(-1.86243e-09 3.31874e-09 1.80955e-09)
(-1.76204e-09 3.80872e-09 2.12262e-09)
(-1.56678e-09 4.26618e-09 2.39912e-09)
(-6.83976e-11 9.64476e-11 3.06538e-11)
(-1.9893e-10 2.81706e-10 9.02886e-11)
(-3.19678e-10 4.56415e-10 1.48793e-10)
(-4.35197e-10 6.28678e-10 2.10073e-10)
(-5.49114e-10 8.05026e-10 2.77627e-10)
(-6.64155e-10 9.90998e-10 3.54747e-10)
(-7.81787e-10 1.19114e-09 4.4462e-10)
(-9.01605e-10 1.40922e-09 5.50338e-10)
(-1.02015e-09 1.64826e-09 6.74761e-10)
(-1.129e-09 1.91051e-09 8.2018e-10)
(-1.2116e-09 2.19718e-09 9.87669e-10)
(-1.23915e-09 2.5081e-09 1.17591e-09)
(-1.16588e-09 2.84085e-09 1.37915e-09)
(-9.28217e-10 3.18895e-09 1.58331e-09)
(-4.6877e-10 3.5364e-09 1.758e-09)
(1.21485e-10 3.81697e-09 1.84349e-09)
(-7.98751e-12 9.95831e-12 2.81218e-12)
(-2.35549e-11 2.91091e-11 8.34177e-12)
(-3.89608e-11 4.72707e-11 1.39512e-11)
(-5.54488e-11 6.53551e-11 2.01434e-11)
(-7.43748e-11 8.41237e-11 2.74401e-11)
(-9.73887e-11 1.04226e-10 3.64419e-11)
(-1.26666e-10 1.26194e-10 4.78984e-11)
(-1.65196e-10 1.50371e-10 6.27981e-11)
(-2.17206e-10 1.76771e-10 8.24899e-11)
(-2.88689e-10 2.04695e-10 1.08846e-10)
(-3.88081e-10 2.3198e-10 1.44466e-10)
(-5.26924e-10 2.5353e-10 1.9287e-10)
(-7.20011e-10 2.58326e-10 2.58436e-10)
(-9.83132e-10 2.24493e-10 3.45156e-10)
(-1.31959e-09 1.16198e-10 4.50823e-10)
(-1.65374e-09 -7.51426e-11 5.46001e-10)
(-2.34414e-11 2.94485e-11 8.30636e-12)
(-6.90851e-11 8.60656e-11 2.46319e-11)
(-1.14146e-10 1.39777e-10 4.11706e-11)
(-1.62172e-10 1.93248e-10 5.93868e-11)
(-2.17009e-10 2.48742e-10 8.07899e-11)
(-2.83298e-10 3.08207e-10 1.07105e-10)
(-3.67081e-10 3.73258e-10 1.40468e-10)
(-4.76601e-10 4.45047e-10 1.8367e-10)
(-6.2337e-10 5.23971e-10 2.40488e-10)
(-8.2349e-10 6.08678e-10 3.16113e-10)
(-1.09918e-09 6.94673e-10 4.1768e-10)
(-1.47957e-09 7.70994e-10 5.54698e-10)
(-1.99866e-09 8.15056e-10 7.38683e-10)
(-2.68248e-09 7.85741e-10 9.79404e-10)
(-3.50192e-09 6.26482e-10 1.26896e-09)
(-4.22012e-09 3.46373e-10 1.52612e-09)
(-3.74709e-11 4.77635e-11 1.34518e-11)
(-1.10315e-10 1.39615e-10 3.98648e-11)
(-1.81847e-10 2.26706e-10 6.65435e-11)
(-2.57459e-10 3.13383e-10 9.57945e-11)
(-3.42887e-10 4.0333e-10 1.29967e-10)
(-4.44921e-10 4.99751e-10 1.71705e-10)
(-5.72204e-10 6.05342e-10 2.24223e-10)
(-7.36307e-10 7.22439e-10 2.91651e-10)
(-9.5296e-10 8.52343e-10 3.79467e-10)
(-1.24366e-09 9.9498e-10 4.95054e-10)
(-1.63688e-09 1.14706e-09 6.48314e-10)
(-2.16771e-09 1.30005e-09 8.52027e-10)
(-2.87114e-09 1.43649e-09 1.12079e-09)
(-3.75739e-09 1.52786e-09 1.46467e-09)
(-4.74145e-09 1.54223e-09 1.86587e-09)
(-5.48885e-09 1.48789e-09 2.20639e-09)
(-4.93364e-11 6.42115e-11 1.80576e-11)
(-1.45007e-10 1.87658e-10 5.34645e-11)
(-2.38234e-10 3.04664e-10 8.90742e-11)
(-3.3557e-10 4.21041e-10 1.2786e-10)
(-4.43813e-10 5.41749e-10 1.72797e-10)
(-5.70738e-10 6.71074e-10 2.27154e-10)
(-7.25926e-10 8.12926e-10 2.94804e-10)
(-9.21678e-10 9.70692e-10 3.80579e-10)
(-1.17416e-09 1.14743e-09 4.90691e-10)
(-1.50438e-09 1.34518e-09 6.33239e-10)
(-1.93882e-09 1.56489e-09 8.18693e-10)
(-2.50749e-09 1.80514e-09 1.05996e-09)
(-3.23532e-09 2.06135e-09 1.37071e-09)
(-4.11553e-09 2.32392e-09 1.75754e-09)
(-5.04389e-09 2.57266e-09 2.19376e-09)
(-5.70089e-09 2.75229e-09 2.54627e-09)
(-5.85495e-11 7.81566e-11 2.1985e-11)
(-1.71723e-10 2.28378e-10 6.50167e-11)
(-2.80916e-10 3.70695e-10 1.08061e-10)
(-3.93087e-10 5.12104e-10 1.5455e-10)
(-5.15203e-10 6.58593e-10 2.07844e-10)
(-6.54839e-10 8.15362e-10 2.71518e-10)
(-8.20826e-10 9.8723e-10 3.49653e-10)
(-1.02379e-09 1.17866e-09 4.4713e-10)
(-1.27669e-09 1.39407e-09 5.69936e-10)
(-1.59508e-09 1.63799e-09 7.2547e-10)
(-1.99639e-09 1.9153e-09 9.22745e-10)
(-2.49749e-09 2.23198e-09 1.17214e-09)
(-3.10723e-09 2.59523e-09 1.48363e-09)
(-3.80857e-09 3.01052e-09 1.86007e-09)
(-4.51754e-09 3.4614e-09 2.2749e-09)
(-5.00786e-09 3.83133e-09 2.60753e-09)
(-6.49106e-11 8.90843e-11 2.51541e-11)
(-1.89916e-10 2.60315e-10 7.42885e-11)
(-3.09078e-10 4.22383e-10 1.23125e-10)
(-4.29084e-10 5.83224e-10 1.7535e-10)
(-5.5628e-10 7.49496e-10 2.34471e-10)
(-6.97094e-10 9.27069e-10 3.04079e-10)
(-8.58298e-10 1.1212e-09 3.88076e-10)
(-1.04713e-09 1.33703e-09 4.90857e-10)
(-1.271e-09 1.57962e-09 6.17439e-10)
(-1.5367e-09 1.85458e-09 7.73482e-10)
(-1.84852e-09 2.16876e-09 9.65096e-10)
(-2.20486e-09 2.53139e-09 1.19818e-09)
(-2.59294e-09 2.9552e-09 1.47669e-09)
(-2.98229e-09 3.45325e-09 1.79798e-09)
(-3.31997e-09 4.01488e-09 2.13877e-09)
(-3.5278e-09 4.50372e-09 2.41e-09)
(-6.85026e-11 9.66394e-11 2.75443e-11)
(-1.99863e-10 2.82341e-10 8.12268e-11)
(-3.23373e-10 4.57968e-10 1.34208e-10)
(-4.44905e-10 6.31982e-10 1.90243e-10)
(-5.69632e-10 8.11393e-10 2.52788e-10)
(-7.02265e-10 1.00236e-09 3.25225e-10)
(-8.46892e-10 1.21023e-09 4.11007e-10)
(-1.00664e-09 1.43997e-09 5.13719e-10)
(-1.18272e-09 1.69637e-09 6.37017e-10)
(-1.37267e-09 1.98431e-09 7.84367e-10)
(-1.56724e-09 2.30931e-09 9.58444e-10)
(-1.74599e-09 2.67833e-09 1.15995e-09)
(-1.87164e-09 3.10012e-09 1.3854e-09)
(-1.88812e-09 3.5826e-09 1.62311e-09)
(-1.73976e-09 4.11351e-09 1.84561e-09)
(-1.47e-09 4.57348e-09 1.99586e-09)
(-6.96289e-11 1.00567e-10 2.91868e-11)
(-2.02523e-10 2.93765e-10 8.59363e-11)
(-3.25614e-10 4.76358e-10 1.41528e-10)
(-4.43591e-10 6.56913e-10 1.99629e-10)
(-5.60269e-10 8.42639e-10 2.63506e-10)
(-6.78403e-10 1.0394e-09 3.36186e-10)
(-7.99467e-10 1.25232e-09 4.20542e-10)
(-9.22862e-10 1.48567e-09 5.19248e-10)
(-1.04462e-09 1.74296e-09 6.34585e-10)
(-1.15515e-09 2.0269e-09 7.68e-10)
(-1.23594e-09 2.33924e-09 9.1929e-10)
(-1.2546e-09 2.6802e-09 1.08516e-09)
(-1.15981e-09 3.04737e-09 1.2568e-09)
(-8.80597e-10 3.4325e-09 1.41577e-09)
(-3.53961e-10 3.81208e-09 1.52839e-09)
(3.19775e-10 4.1067e-09 1.55064e-09)
(-8.20091e-12 1.03325e-11 2.5708e-12)
(-2.41967e-11 3.02103e-11 7.62354e-12)
(-4.0072e-11 4.9098e-11 1.27432e-11)
(-5.71323e-11 6.79482e-11 1.83846e-11)
(-7.68053e-11 8.75735e-11 2.50168e-11)
(-1.00832e-10 1.08661e-10 3.31749e-11)
(-1.3149e-10 1.31755e-10 4.35182e-11)
(-1.71901e-10 1.57205e-10 5.69009e-11)
(-2.26407e-10 1.84962e-10 7.44613e-11)
(-3.0105e-10 2.14174e-10 9.7726e-11)
(-4.04068e-10 2.42388e-10 1.2871e-10)
(-5.46151e-10 2.63939e-10 1.69921e-10)
(-7.39905e-10 2.67089e-10 2.24011e-10)
(-9.96819e-10 2.29744e-10 2.92359e-10)
(-1.31549e-09 1.1894e-10 3.70734e-10)
(-1.62794e-09 -6.5377e-11 4.37228e-10)
(-2.40563e-11 3.05497e-11 7.59284e-12)
(-7.09448e-11 8.93364e-11 2.25098e-11)
(-1.17356e-10 1.45178e-10 3.76031e-11)
(-1.67026e-10 2.00916e-10 5.41967e-11)
(-2.24008e-10 2.58953e-10 7.36473e-11)
(-2.93185e-10 3.21331e-10 9.749e-11)
(-3.80905e-10 3.89728e-10 1.27599e-10)
(-4.95769e-10 4.65342e-10 1.6638e-10)
(-6.49626e-10 5.48377e-10 2.17004e-10)
(-8.58748e-10 6.37213e-10 2.83676e-10)
(-1.1448e-09 7.26482e-10 3.71847e-10)
(-1.53468e-09 8.03877e-10 4.8811e-10)
(-2.05637e-09 8.44808e-10 6.38942e-10)
(-2.72409e-09 8.0701e-10 8.26215e-10)
(-3.49529e-09 6.38592e-10 1.03453e-09)
(-4.15143e-09 3.64688e-10 1.20087e-09)
(-3.84302e-11 4.95639e-11 1.22952e-11)
(-1.13198e-10 1.44904e-10 3.64265e-11)
(-1.86816e-10 2.35458e-10 6.07698e-11)
(-2.64948e-10 3.25816e-10 8.74093e-11)
(-3.53639e-10 4.1989e-10 1.18454e-10)
(-4.60037e-10 5.21026e-10 1.5625e-10)
(-5.93249e-10 6.32159e-10 2.0361e-10)
(-7.65336e-10 7.55528e-10 2.64069e-10)
(-9.92588e-10 8.92507e-10 3.42185e-10)
(-1.29674e-09 1.04245e-09 4.43833e-10)
(-1.70571e-09 1.20128e-09 5.76368e-10)
(-2.25171e-09 1.3586e-09 7.48162e-10)
(-2.96214e-09 1.49412e-09 9.66235e-10)
(-3.83219e-09 1.57612e-09 1.22888e-09)
(-4.76027e-09 1.57315e-09 1.50732e-09)
(-5.43441e-09 1.50638e-09 1.71094e-09)
(-5.05424e-11 6.6618e-11 1.65028e-11)
(-1.48629e-10 1.94754e-10 4.8846e-11)
(-2.44454e-10 3.16408e-10 8.13319e-11)
(-3.44899e-10 4.37732e-10 1.16644e-10)
(-4.57118e-10 5.63961e-10 1.57447e-10)
(-5.89316e-10 6.99687e-10 2.06636e-10)
(-7.51575e-10 8.48975e-10 2.67577e-10)
(-9.56808e-10 1.01543e-09 3.44367e-10)
(-1.22177e-09 1.20203e-09 4.42088e-10)
(-1.56792e-09 1.41066e-09 5.67005e-10)
(-2.02138e-09 1.64132e-09 7.26509e-10)
(-2.60992e-09 1.89093e-09 9.28228e-10)
(-3.35221e-09 2.15134e-09 1.17686e-09)
(-4.22952e-09 2.40705e-09 1.46548e-09)
(-5.12578e-09 2.6318e-09 1.75618e-09)
(-5.74204e-09 2.77897e-09 1.95148e-09)
(-5.98917e-11 8.10755e-11 2.00889e-11)
(-1.75752e-10 2.37013e-10 5.93907e-11)
(-2.87793e-10 3.84958e-10 9.86492e-11)
(-4.03325e-10 5.32364e-10 1.4096e-10)
(-5.2967e-10 6.85541e-10 1.89325e-10)
(-6.74841e-10 8.50106e-10 2.46896e-10)
(-8.48126e-10 1.03104e-09 3.17195e-10)
(-1.06075e-09 1.23317e-09 4.043e-10)
(-1.32626e-09 1.46101e-09 5.12982e-10)
(-1.66067e-09 1.71898e-09 6.48692e-10)
(-2.08154e-09 2.01147e-09 8.17208e-10)
(-2.60478e-09 2.34281e-09 1.0234e-09)
(-3.23655e-09 2.71633e-09 1.26792e-09)
(-3.9552e-09 3.12924e-09 1.53949e-09)
(-4.6753e-09 3.55284e-09 1.79935e-09)
(-5.18505e-09 3.87494e-09 1.96281e-09)
(-6.62803e-11 9.24179e-11 2.29813e-11)
(-1.93999e-10 2.70114e-10 6.78491e-11)
(-3.16006e-10 4.38595e-10 1.1238e-10)
(-4.39293e-10 6.06212e-10 1.59894e-10)
(-5.70539e-10 7.80094e-10 2.13518e-10)
(-7.16517e-10 9.66435e-10 2.76401e-10)
(-8.84413e-10 1.17092e-09 3.51875e-10)
(-1.08188e-09 1.39892e-09 4.43543e-10)
(-1.31679e-09 1.65579e-09 5.55234e-10)
(-1.59635e-09 1.94719e-09 6.9075e-10)
(-1.92514e-09 2.27962e-09 8.53163e-10)
(-2.30182e-09 2.66091e-09 1.04328e-09)
(-2.71432e-09 3.09974e-09 1.25649e-09)
(-3.13535e-09 3.59969e-09 1.47701e-09)
(-3.52213e-09 4.13385e-09 1.6692e-09)
(-3.8077e-09 4.56536e-09 1.77455e-09)
(-6.97908e-11 1.00234e-10 2.51616e-11)
(-2.03686e-10 2.92932e-10 7.41749e-11)
(-3.29803e-10 4.75468e-10 1.22476e-10)
(-4.54251e-10 6.56767e-10 1.73439e-10)
(-5.82498e-10 8.44397e-10 2.30141e-10)
(-7.19449e-10 1.04476e-09 2.9553e-10)
(-8.69482e-10 1.26368e-09 3.72519e-10)
(-1.03596e-09 1.50645e-09 4.63963e-10)
(-1.22031e-09 1.7781e-09 5.72458e-10)
(-1.42017e-09 2.08362e-09 6.99852e-10)
(-1.62653e-09 2.4282e-09 8.46261e-10)
(-1.81938e-09 2.81729e-09 1.00824e-09)
(-1.96359e-09 3.25557e-09 1.1756e-09)
(-2.01001e-09 3.74115e-09 1.3268e-09)
(-1.91907e-09 4.244e-09 1.42586e-09)
(-1.74493e-09 4.63999e-09 1.44048e-09)
(-7.07453e-11 1.0428e-10 2.66591e-11)
(-2.05838e-10 3.0475e-10 7.84665e-11)
(-3.31108e-10 4.94461e-10 1.29139e-10)
(-4.51466e-10 6.82604e-10 1.81969e-10)
(-5.70836e-10 8.76688e-10 2.39857e-10)
(-6.92155e-10 1.08312e-09 3.05428e-10)
(-8.16975e-10 1.30731e-09 3.81072e-10)
(-9.44736e-10 1.55385e-09 4.68833e-10)
(-1.0714e-09 1.82647e-09 5.70113e-10)
(-1.18722e-09 2.12787e-09 6.8507e-10)
(-1.27336e-09 2.45921e-09 8.11554e-10)
(-1.29754e-09 2.81903e-09 9.43302e-10)
(-1.2099e-09 3.20057e-09 1.06709e-09)
(-9.45485e-10 3.5858e-09 1.15894e-09)
(-4.56746e-10 3.93365e-09 1.18272e-09)
(1.41249e-10 4.15583e-09 1.11616e-09)
(-8.38802e-12 1.06603e-11 2.23682e-12)
(-2.47627e-11 3.11787e-11 6.63113e-12)
(-4.10498e-11 5.0693e-11 1.10774e-11)
(-5.86118e-11 7.02072e-11 1.59655e-11)
(-7.89393e-11 9.05652e-11 2.16938e-11)
(-1.03843e-10 1.12476e-10 2.87092e-11)
(-1.35691e-10 1.36502e-10 3.75503e-11)
(-1.77699e-10 1.62971e-10 4.88946e-11)
(-2.34299e-10 1.91776e-10 6.36072e-11)
(-3.11553e-10 2.21937e-10 8.27822e-11)
(-4.17542e-10 2.50762e-10 1.07743e-10)
(-5.62449e-10 2.72287e-10 1.39915e-10)
(-7.57866e-10 2.74596e-10 1.80399e-10)
(-1.01416e-09 2.36223e-10 2.28907e-10)
(-1.33078e-09 1.26768e-10 2.81398e-10)
(-1.64545e-09 -5.08895e-11 3.24255e-10)
(-2.46e-11 3.15217e-11 6.60617e-12)
(-7.25785e-11 9.2184e-11 1.95786e-11)
(-1.20181e-10 1.4989e-10 3.26857e-11)
(-1.71298e-10 2.07591e-10 4.70626e-11)
(-2.30155e-10 2.67792e-10 6.38599e-11)
(-3.01849e-10 3.32617e-10 8.4359e-11)
(-3.92978e-10 4.03794e-10 1.10088e-10)
(-5.1242e-10 4.82457e-10 1.42948e-10)
(-6.72295e-10 5.68697e-10 1.85335e-10)
(-8.8897e-10 6.60499e-10 2.40226e-10)
(-1.18379e-09 7.51882e-10 3.11121e-10)
(-1.58238e-09 8.29607e-10 4.0157e-10)
(-2.11011e-09 8.68313e-10 5.13702e-10)
(-2.77809e-09 8.26559e-10 6.44713e-10)
(-3.54502e-09 6.57468e-10 7.79685e-10)
(-4.20479e-09 3.92994e-10 8.78838e-10)
(-3.9272e-11 5.11268e-11 1.06968e-11)
(-1.15737e-10 1.49526e-10 3.16804e-11)
(-1.91195e-10 2.43095e-10 5.28182e-11)
(-2.71549e-10 3.36634e-10 7.58953e-11)
(-3.6311e-10 4.34217e-10 1.02699e-10)
(-4.73346e-10 5.39357e-10 1.35183e-10)
(-6.11728e-10 6.55008e-10 1.75634e-10)
(-7.90778e-10 7.83471e-10 2.2682e-10)
(-1.02721e-09 9.25862e-10 2.92139e-10)
(-1.34307e-09 1.08111e-09 3.75647e-10)
(-1.76606e-09 1.24418e-09 4.81825e-10)
(-2.32721e-09 1.40317e-09 6.1462e-10)
(-3.05121e-09 1.53597e-09 7.74851e-10)
(-3.93012e-09 1.61e-09 9.54472e-10)
(-4.86403e-09 1.597e-09 1.12649e-09)
(-5.55234e-09 1.52689e-09 1.23509e-09)
(-5.16057e-11 6.87232e-11 1.43559e-11)
(-1.51827e-10 2.00964e-10 4.24776e-11)
(-2.4995e-10 3.2666e-10 7.06818e-11)
(-3.53146e-10 4.52244e-10 1.01266e-10)
(-4.68894e-10 5.83203e-10 1.36484e-10)
(-6.05771e-10 7.24308e-10 1.78741e-10)
(-7.74318e-10 8.7976e-10 2.30753e-10)
(-9.87991e-10 1.05321e-09 2.95693e-10)
(-1.26415e-09 1.24746e-09 3.77256e-10)
(-1.62483e-09 1.46392e-09 4.79569e-10)
(-2.09648e-09 1.70153e-09 6.06688e-10)
(-2.70669e-09 1.95522e-09 7.61189e-10)
(-3.47341e-09 2.21377e-09 9.40871e-10)
(-4.3779e-09 2.45812e-09 1.13227e-09)
(-5.30846e-09 2.66144e-09 1.30125e-09)
(-5.96991e-09 2.78775e-09 1.39188e-09)
(-6.10807e-11 8.36395e-11 1.74737e-11)
(-1.79313e-10 2.44545e-10 5.16418e-11)
(-2.93888e-10 3.97404e-10 8.57209e-11)
(-4.12416e-10 5.49981e-10 1.22358e-10)
(-5.42563e-10 7.08923e-10 1.6409e-10)
(-6.92709e-10 8.80012e-10 2.13522e-10)
(-8.72646e-10 1.06853e-09 2.73472e-10)
(-1.09415e-09 1.27931e-09 3.4704e-10)
(-1.37148e-09 1.51683e-09 4.37557e-10)
(-1.72149e-09 1.78508e-09 5.48299e-10)
(-2.16276e-09 2.08739e-09 6.81713e-10)
(-2.71259e-09 2.42587e-09 8.3771e-10)
(-3.37963e-09 2.79978e-09 1.01034e-09)
(-4.14758e-09 3.20028e-09 1.18232e-09)
(-4.9399e-09 3.59417e-09 1.31955e-09)
(-5.53785e-09 3.88082e-09 1.3793e-09)
(-6.74911e-11 9.53218e-11 1.99875e-11)
(-1.97623e-10 2.78688e-10 5.89902e-11)
(-3.22168e-10 4.52731e-10 9.7641e-11)
(-4.48416e-10 6.26237e-10 1.38776e-10)
(-5.83349e-10 8.06638e-10 1.8503e-10)
(-7.34095e-10 1.00044e-09 2.38996e-10)
(-9.08256e-10 1.21354e-09 3.03311e-10)
(-1.11403e-09 1.45147e-09 3.80631e-10)
(-1.35998e-09 1.7196e-09 4.7345e-10)
(-1.65426e-09 2.02325e-09 5.83591e-10)
(-2.00296e-09 2.36794e-09 7.11189e-10)
(-2.40738e-09 2.75929e-09 8.52806e-10)
(-2.86075e-09 3.20148e-09 9.9839e-10)
(-3.34595e-09 3.6906e-09 1.12766e-09)
(-3.83364e-09 4.19237e-09 1.2103e-09)
(-4.24225e-09 4.58019e-09 1.22558e-09)
(-7.0934e-11 1.03379e-10 2.18818e-11)
(-2.07096e-10 3.02198e-10 6.44843e-11)
(-3.35554e-10 4.90747e-10 1.06403e-10)
(-4.62685e-10 6.7841e-10 1.50516e-10)
(-5.94171e-10 8.7303e-10 1.99415e-10)
(-7.35246e-10 1.08143e-09 2.5551e-10)
(-8.9059e-10 1.30963e-09 3.21075e-10)
(-1.06399e-09 1.56312e-09 3.98127e-10)
(-1.25743e-09 1.84696e-09 4.88118e-10)
(-1.46944e-09 2.16588e-09 5.91275e-10)
(-1.69246e-09 2.52416e-09 7.05406e-10)
(-1.90952e-09 2.92517e-09 8.23905e-10)
(-2.09165e-09 3.36919e-09 9.32902e-10)
(-2.20125e-09 3.8467e-09 1.00878e-09)
(-2.21327e-09 4.31925e-09 1.02257e-09)
(-2.16491e-09 4.67053e-09 9.74226e-10)
(-7.17501e-11 1.07549e-10 2.31825e-11)
(-2.08799e-10 3.14339e-10 6.82113e-11)
(-3.36067e-10 5.10299e-10 1.12185e-10)
(-4.58617e-10 7.0497e-10 1.57912e-10)
(-5.80592e-10 9.06325e-10 2.07826e-10)
(-7.05088e-10 1.12101e-09 2.64069e-10)
(-8.33887e-10 1.35472e-09 3.28468e-10)
(-9.66688e-10 1.61222e-09 4.02375e-10)
(-1.09982e-09 1.89725e-09 4.86287e-10)
(-1.22414e-09 2.21223e-09 5.79142e-10)
(-1.322e-09 2.55747e-09 6.77145e-10)
(-1.36353e-09 2.92947e-09 7.71946e-10)
(-1.30401e-09 3.31735e-09 8.48191e-10)
(-1.08815e-09 3.69599e-09 8.81444e-10)
(-6.80715e-10 4.0163e-09 8.41949e-10)
(-1.83978e-10 4.19627e-09 7.30817e-10)
(-8.54499e-12 1.0931e-11 1.82407e-12)
(-2.52349e-11 3.19744e-11 5.40585e-12)
(-4.18676e-11 5.20089e-11 9.02455e-12)
(-5.98505e-11 7.20656e-11 1.29931e-11)
(-8.07244e-11 9.30164e-11 1.76269e-11)
(-1.06363e-10 1.15589e-10 2.32732e-11)
(-1.39205e-10 1.40347e-10 3.03392e-11)
(-1.8255e-10 1.67598e-10 3.93168e-11)
(-2.4091e-10 1.97183e-10 5.08016e-11)
(-3.20403e-10 2.28012e-10 6.54892e-11)
(-4.2909e-10 2.57228e-10 8.41246e-11)
(-5.77016e-10 2.78695e-10 1.0735e-10)
(-7.75573e-10 2.80472e-10 1.35377e-10)
(-1.03522e-09 2.41565e-10 1.67424e-10)
(-1.35648e-09 1.32771e-10 2.00773e-10)
(-1.67807e-09 -4.25144e-11 2.27936e-10)
(-2.50523e-11 3.23185e-11 5.38705e-12)
(-7.39474e-11 9.45445e-11 1.59601e-11)
(-1.22546e-10 1.5378e-10 2.66275e-11)
(-1.74876e-10 2.13086e-10 3.8299e-11)
(-2.35309e-10 2.75044e-10 5.18859e-11)
(-3.09116e-10 3.4183e-10 6.8383e-11)
(-4.03103e-10 4.15183e-10 8.89428e-11)
(-5.264e-10 4.962e-10 1.1494e-10)
(-6.91375e-10 5.84811e-10 1.48011e-10)
(-9.14609e-10 6.78697e-10 1.90016e-10)
(-1.21748e-09 7.71411e-10 2.42857e-10)
(-1.62538e-09 8.49112e-10 3.0794e-10)
(-2.16328e-09 8.86132e-10 3.85068e-10)
(-2.84245e-09 8.4178e-10 4.70452e-10)
(-3.62367e-09 6.71757e-10 5.53704e-10)
(-4.30126e-09 4.10001e-10 6.12914e-10)
(-3.99789e-11 5.24266e-11 8.72206e-12)
(-1.17865e-10 1.53348e-10 2.5824e-11)
(-1.94867e-10 2.49401e-10 4.3026e-11)
(-2.77092e-10 3.45542e-10 6.17589e-11)
(-3.71075e-10 4.45981e-10 8.34367e-11)
(-4.84547e-10 5.5431e-10 1.09574e-10)
(-6.27317e-10 6.73541e-10 1.41885e-10)
(-8.12292e-10 8.0591e-10 1.8236e-10)
(-1.05664e-09 9.52324e-10 2.33271e-10)
(-1.38286e-09 1.1113e-09 2.97062e-10)
(-1.81901e-09 1.27701e-09 3.75937e-10)
(-2.3963e-09 1.43651e-09 4.70902e-10)
(-3.1396e-09 1.56662e-09 5.79826e-10)
(-4.04191e-09 1.6346e-09 6.94205e-10)
(-5.00541e-09 1.61437e-09 7.95271e-10)
(-5.72548e-09 1.54017e-09 8.53559e-10)
(-5.24968e-11 7.04651e-11 1.17051e-11)
(-1.54511e-10 2.06093e-10 3.4623e-11)
(-2.5457e-10 3.35125e-10 5.75738e-11)
(-3.60096e-10 4.64209e-10 8.23974e-11)
(-4.78839e-10 5.99005e-10 1.10877e-10)
(-6.19708e-10 7.44421e-10 1.44868e-10)
(-7.93657e-10 9.04747e-10 1.86397e-10)
(-1.01466e-09 1.08359e-09 2.37706e-10)
(-1.30071e-09 1.28356e-09 3.01192e-10)
(-1.67463e-09 1.50555e-09 3.79148e-10)
(-2.16379e-09 1.74762e-09 4.73127e-10)
(-2.79698e-09 2.00316e-09 5.82615e-10)
(-3.59398e-09 2.25899e-09 7.02674e-10)
(-4.53906e-09 2.4944e-09 8.20555e-10)
(-5.52315e-09 2.68332e-09 9.1325e-10)
(-6.23954e-09 2.79657e-09 9.54331e-10)
(-6.2078e-11 8.57519e-11 1.42463e-11)
(-1.82312e-10 2.50787e-10 4.20896e-11)
(-2.99029e-10 4.07692e-10 6.98189e-11)
(-4.20112e-10 5.64522e-10 9.9553e-11)
(-5.53512e-10 7.28124e-10 1.33294e-10)
(-7.07977e-10 9.04499e-10 1.73046e-10)
(-8.93725e-10 1.099e-09 2.20891e-10)
(-1.12313e-09 1.31651e-09 2.78967e-10)
(-1.41125e-09 1.56133e-09 3.49308e-10)
(-1.77601e-09 1.837e-09 4.33422e-10)
(-2.23755e-09 2.1459e-09 5.31439e-10)
(-2.81564e-09 2.48848e-09 6.4061e-10)
(-3.52289e-09 2.86144e-09 7.53065e-10)
(-4.3488e-09 3.25308e-09 8.53553e-10)
(-5.22057e-09 3.62957e-09 9.20379e-10)
(-5.89951e-09 3.89812e-09 9.38548e-10)
(-6.85127e-11 9.77331e-11 1.62946e-11)
(-2.00684e-10 2.85782e-10 4.80761e-11)
(-3.27392e-10 4.64435e-10 7.95229e-11)
(-4.56181e-10 6.42765e-10 1.12904e-10)
(-5.94317e-10 8.2848e-10 1.50297e-10)
(-7.49266e-10 1.0283e-09 1.93687e-10)
(-9.29066e-10 1.24827e-09 2.44993e-10)
(-1.14249e-09 1.49399e-09 3.05985e-10)
(-1.39895e-09 1.77071e-09 3.77997e-10)
(-1.70783e-09 2.08343e-09 4.61365e-10)
(-2.0772e-09 2.43685e-09 5.54406e-10)
(-2.51169e-09 2.83507e-09 6.51849e-10)
(-3.00996e-09 3.27987e-09 7.42982e-10)
(-3.56258e-09 3.76445e-09 8.11071e-10)
(-4.14473e-09 4.25346e-09 8.38777e-10)
(-4.64989e-09 4.62677e-09 8.28318e-10)
(-7.19025e-11 1.05984e-10 1.78382e-11)
(-2.09984e-10 3.09869e-10 5.25516e-11)
(-3.40456e-10 5.03399e-10 8.66558e-11)
(-4.69904e-10 6.96265e-10 1.22454e-10)
(-6.04285e-10 8.9665e-10 1.61981e-10)
(-7.49083e-10 1.11155e-09 2.07079e-10)
(-9.09376e-10 1.34718e-09 2.59373e-10)
(-1.08947e-09 1.60914e-09 3.2012e-10)
(-1.2921e-09 1.90245e-09 3.89847e-10)
(-1.51699e-09 2.23156e-09 4.67677e-10)
(-1.75859e-09 2.60017e-09 5.50217e-10)
(-2.00324e-09 3.01051e-09 6.29983e-10)
(-2.22734e-09 3.46123e-09 6.93765e-10)
(-2.40039e-09 3.94132e-09 7.22979e-10)
(-2.5001e-09 4.41325e-09 7.02339e-10)
(-2.53849e-09 4.76577e-09 6.5038e-10)
(-7.25971e-11 1.10243e-10 1.88985e-11)
(-2.11331e-10 3.22301e-10 5.55877e-11)
(-3.40319e-10 5.23407e-10 9.13648e-11)
(-4.64826e-10 7.23498e-10 1.28473e-10)
(-5.89157e-10 9.30778e-10 1.68826e-10)
(-7.1665e-10 1.15218e-09 2.14046e-10)
(-8.49365e-10 1.39356e-09 2.65414e-10)
(-9.87411e-10 1.65979e-09 3.23678e-10)
(-1.12773e-09 1.95461e-09 3.88658e-10)
(-1.26218e-09 2.28021e-09 4.58564e-10)
(-1.37471e-09 2.63643e-09 5.28944e-10)
(-1.43821e-09 3.01894e-09 5.9126e-10)
(-1.41208e-09 3.41585e-09 6.31452e-10)
(-1.24565e-09 3.80209e-09 6.30046e-10)
(-9.02678e-10 4.13286e-09 5.68961e-10)
(-4.59732e-10 4.33517e-09 4.63866e-10)
(-8.66667e-12 1.11393e-11 1.3485e-12)
(-2.56033e-11 3.25894e-11 3.99519e-12)
(-4.25047e-11 5.30195e-11 6.66574e-12)
(-6.08156e-11 7.34895e-11 9.58764e-12)
(-8.21174e-11 9.48873e-11 1.29876e-11)
(-1.08331e-10 1.17953e-10 1.71107e-11)
(-1.41954e-10 1.43248e-10 2.22353e-11)
(-1.86356e-10 1.71067e-10 2.86851e-11)
(-2.46127e-10 2.01202e-10 3.68287e-11)
(-3.27463e-10 2.32484e-10 4.70592e-11)
(-4.38478e-10 2.61955e-10 5.97382e-11)
(-5.89246e-10 2.83363e-10 7.50793e-11)
(-7.91168e-10 2.84765e-10 9.29722e-11)
(-1.05474e-09 2.45383e-10 1.12779e-10)
(-1.38048e-09 1.36465e-10 1.33072e-10)
(-1.70602e-09 -3.84658e-11 1.49971e-10)
(-2.54063e-11 3.29365e-11 3.98228e-12)
(-7.50125e-11 9.63572e-11 1.17952e-11)
(-1.2439e-10 1.56768e-10 1.96672e-11)
(-1.77667e-10 2.17296e-10 2.82603e-11)
(-2.39333e-10 2.80578e-10 3.82293e-11)
(-3.14798e-10 3.48827e-10 5.0275e-11)
(-4.11042e-10 4.23785e-10 6.51845e-11)
(-5.37399e-10 5.06505e-10 8.38584e-11)
(-7.06487e-10 5.96784e-10 1.07299e-10)
(-9.35137e-10 6.92104e-10 1.36538e-10)
(-1.24496e-09 7.85669e-10 1.72439e-10)
(-1.66152e-09 8.63298e-10 2.15315e-10)
(-2.20991e-09 8.99135e-10 2.64302e-10)
(-2.90143e-09 8.52843e-10 3.16552e-10)
(-3.69617e-09 6.81112e-10 3.66301e-10)
(-4.3844e-09 4.18619e-10 4.02298e-10)
(-4.0528e-11 5.34244e-11 6.44764e-12)
(-1.19524e-10 1.56288e-10 1.90844e-11)
(-1.97733e-10 2.54244e-10 3.17782e-11)
(-2.81422e-10 3.52369e-10 4.55696e-11)
(-3.77307e-10 4.54959e-10 6.14743e-11)
(-4.93336e-10 5.65675e-10 8.05566e-11)
(-6.39587e-10 6.87545e-10 1.03985e-10)
(-8.29313e-10 8.22742e-10 1.33046e-10)
(-1.0801e-09 9.72022e-10 1.69107e-10)
(-1.41495e-09 1.13354e-09 2.13446e-10)
(-1.86249e-09 1.30101e-09 2.66892e-10)
(-2.4545e-09 1.46079e-09 3.29132e-10)
(-3.21646e-09 1.58914e-09 3.97651e-10)
(-4.14157e-09 1.65326e-09 4.66417e-10)
(-5.1303e-09 1.62798e-09 5.24985e-10)
(-5.86953e-09 1.54954e-09 5.59093e-10)
(-5.31939e-11 7.18051e-11 8.65235e-12)
(-1.56608e-10 2.10046e-10 2.55859e-11)
(-2.58183e-10 3.41631e-10 4.25214e-11)
(-3.65539e-10 4.73377e-10 6.07962e-11)
(-4.86651e-10 6.11073e-10 8.16895e-11)
(-6.30698e-10 7.59722e-10 1.06503e-10)
(-8.08979e-10 9.23647e-10 1.36606e-10)
(-1.03592e-09 1.10642e-09 1.7343e-10)
(-1.33014e-09 1.31047e-09 2.18352e-10)
(-1.71521e-09 1.53636e-09 2.7243e-10)
(-2.21955e-09 1.78149e-09 3.35854e-10)
(-2.87325e-09 2.03842e-09 4.07058e-10)
(-3.6976e-09 2.29301e-09 4.8149e-10)
(-4.67785e-09 2.52388e-09 5.50527e-10)
(-5.70245e-09 2.70543e-09 6.01961e-10)
(-6.45093e-09 2.81146e-09 6.24945e-10)
(-6.28578e-11 8.73834e-11 1.05303e-11)
(-1.84661e-10 2.5559e-10 3.11029e-11)
(-3.03062e-10 4.15601e-10 5.15634e-11)
(-4.26162e-10 5.75667e-10 7.34528e-11)
(-5.6216e-10 7.42809e-10 9.82039e-11)
(-7.20092e-10 9.23136e-10 1.2722e-10)
(-9.10577e-10 1.12209e-09 1.61894e-10)
(-1.14651e-09 1.34454e-09 2.03553e-10)
(-1.44369e-09 1.59464e-09 2.53269e-10)
(-1.82107e-09 1.87564e-09 3.11469e-10)
(-2.30028e-09 2.18936e-09 3.77265e-10)
(-2.90311e-09 2.53544e-09 4.47475e-10)
(-3.64474e-09 2.90966e-09 5.15637e-10)
(-4.51658e-09 3.29956e-09 5.71962e-10)
(-5.44303e-09 3.67135e-09 6.06285e-10)
(-6.16698e-09 3.93435e-09 6.16062e-10)
(-6.93154e-11 9.95895e-11 1.20443e-11)
(-2.03088e-10 2.91247e-10 3.55255e-11)
(-3.31503e-10 4.73431e-10 5.87292e-11)
(-4.62319e-10 6.55449e-10 8.3303e-11)
(-6.03039e-10 8.45199e-10 1.10733e-10)
(-7.6142e-10 1.04954e-09 1.42403e-10)
(-9.45892e-10 1.27464e-09 1.79581e-10)
(-1.16578e-09 1.52612e-09 2.23311e-10)
(-1.43128e-09 1.80918e-09 2.74149e-10)
(-1.75294e-09 2.1286e-09 3.3167e-10)
(-2.14053e-09 2.48876e-09 3.93699e-10)
(-2.60108e-09 2.89339e-09 4.55358e-10)
(-3.1362e-09 3.34407e-09 5.08458e-10)
(-3.73854e-09 3.83439e-09 5.42839e-10)
(-4.37989e-09 4.32977e-09 5.52518e-10)
(-4.93404e-09 4.70865e-09 5.4703e-10)
(-7.26642e-11 1.07992e-10 1.31849e-11)
(-2.12265e-10 3.15784e-10 3.88322e-11)
(-3.44334e-10 5.13133e-10 6.3997e-11)
(-4.7566e-10 7.09998e-10 9.03503e-11)
(-6.12391e-10 9.14737e-10 1.1935e-10)
(-7.60299e-10 1.13455e-09 1.52268e-10)
(-9.24802e-10 1.37578e-09 1.90162e-10)
(-1.11071e-09 1.64406e-09 2.33707e-10)
(-1.32152e-09 1.94443e-09 2.82887e-10)
(-1.55807e-09 2.28128e-09 3.36435e-10)
(-1.81641e-09 2.65828e-09 3.91024e-10)
(-2.08505e-09 3.07787e-09 4.40321e-10)
(-2.34267e-09 3.53982e-09 4.74579e-10)
(-2.55918e-09 4.03612e-09 4.82685e-10)
(-2.70628e-09 4.5337e-09 4.60781e-10)
(-2.77823e-09 4.91717e-09 4.3062e-10)
(-7.32727e-11 1.12331e-10 1.39683e-11)