/*--------------------------------*- C++ -*----------------------------------*\
| =========                 |                                                 |
| \\      /  F ield         | foam-extend: Open Source CFD                    |
|  \\    /   O peration     | Version:     3.1                                |
|   \\  /    A nd           | Web:         http://www.extend-project.de       |
|    \\/     M anipulation  |                                                 |
\*---------------------------------------------------------------------------*/
FoamFile
{
    version     2.0;
    format      ascii;
    class       surfaceScalarField;
    location    "2";
    object      meshPhi;
}
// * * * * * * * * * * * * * * * * * * * * * * * * * * * * * * * * * * * * * //

dimensions      [0 3 -1 0 0 0 0];

internalField   nonuniform List<scalar> 
41600
(
2.19029e-08
3.91959e-09
3.00511e-10
-3.06296e-10
4.21731e-08
1.15992e-08
9.00754e-10
-9.1786e-10
6.06295e-08
1.90452e-08
1.51632e-09
-1.54426e-09
7.77313e-08
2.65344e-08
2.1905e-09
-2.22881e-09
9.38453e-08
3.44383e-08
2.97715e-09
-3.02512e-09
1.09244e-07
4.31193e-08
3.93636e-09
-3.99245e-09
1.2409e-07
5.29548e-08
5.14057e-09
-5.20151e-09
1.38404e-07
6.43609e-08
6.68225e-09
-6.74175e-09
1.52004e-07
7.78128e-08
8.68478e-09
-8.73144e-09
1.64422e-07
9.38591e-08
1.13191e-08
-1.13332e-08
1.74797e-07
1.13126e-07
1.4832e-08
-1.47799e-08
1.81793e-07
1.3629e-07
1.95939e-08
-1.94168e-08
1.83675e-07
1.63976e-07
2.61698e-08
-2.57598e-08
1.78919e-07
1.96321e-07
3.53295e-08
-3.44948e-08
1.67998e-07
2.3073e-07
4.72458e-08
-4.58438e-08
3.07698e-07
7.46451e-08
-9.49092e-08
6.53424e-08
7.66176e-09
8.92677e-10
-9.09872e-10
1.25806e-07
2.26686e-08
2.67438e-09
-2.72522e-09
1.8085e-07
3.72033e-08
4.4987e-09
-4.58173e-09
2.31847e-07
5.17949e-08
6.49311e-09
-6.60694e-09
2.79895e-07
6.71547e-08
8.81532e-09
-8.95781e-09
3.25821e-07
8.39695e-08
1.16398e-08
-1.18063e-08
3.70139e-07
1.02946e-07
1.51749e-08
-1.53557e-08
4.12963e-07
1.24852e-07
1.96831e-08
-1.98594e-08
4.53844e-07
1.50549e-07
2.55081e-08
-2.56463e-08
4.91527e-07
1.81004e-07
3.31139e-08
-3.31563e-08
5.23657e-07
2.17267e-07
4.31447e-08
-4.29946e-08
5.46512e-07
2.60354e-07
5.65149e-08
-5.60075e-08
5.55172e-07
3.10896e-07
7.45067e-08
-7.33508e-08
5.45109e-07
3.68125e-07
9.86298e-08
-9.63204e-08
5.17147e-07
4.26079e-07
1.28523e-07
-1.24594e-07
5.14095e-07
1.84045e-07
-2.18251e-07
1.07713e-07
1.10692e-08
1.45451e-09
-1.48262e-09
2.07359e-07
3.27397e-08
4.35407e-09
-4.43717e-09
2.98042e-07
5.36942e-08
7.31469e-09
-7.45042e-09
3.82027e-07
7.46717e-08
1.05397e-08
-1.07257e-08
4.61142e-07
9.66678e-08
1.42786e-08
-1.45114e-08
5.36789e-07
1.20628e-07
1.88035e-08
-1.90755e-08
6.09902e-07
1.47505e-07
2.44335e-08
-2.47287e-08
6.80825e-07
1.78314e-07
3.15618e-08
-3.18496e-08
7.49092e-07
2.14157e-07
4.06873e-08
-4.09133e-08
8.13078e-07
2.5623e-07
5.24539e-08
-5.25259e-08
8.69554e-07
3.05748e-07
6.76966e-08
-6.74627e-08
9.13247e-07
3.63721e-07
8.74808e-08
-8.66907e-08
9.36933e-07
4.30367e-07
1.13059e-07
-1.11291e-07
9.33501e-07
5.03698e-07
1.45397e-07
-1.41947e-07
9.02836e-07
5.75249e-07
1.82532e-07
-1.76572e-07
6.81658e-07
2.36561e-07
-2.62818e-07
1.48352e-07
1.40045e-08
1.96585e-09
-2.00407e-09
2.85546e-07
4.14041e-08
5.87857e-09
-5.99156e-09
4.1033e-07
6.78446e-08
9.85821e-09
-1.00427e-08
5.25828e-07
9.42202e-08
1.41705e-08
-1.44234e-08
6.3458e-07
1.21737e-07
1.91384e-08
-1.94547e-08
7.38585e-07
1.51518e-07
2.51071e-08
-2.54765e-08
8.39275e-07
1.84665e-07
3.24721e-08
-3.28729e-08
9.37398e-07
2.22311e-07
4.17064e-08
-4.20975e-08
1.03279e-06
2.65643e-07
5.33872e-08
-5.36955e-08
1.12401e-06
3.15892e-07
6.82188e-08
-6.83208e-08
1.20782e-06
3.74223e-07
8.7038e-08
-8.67315e-08
1.27859e-06
4.41457e-07
1.10765e-07
-1.09724e-07
1.32813e-06
5.17381e-07
1.40181e-07
-1.37876e-07
1.3474e-06
5.99187e-07
1.75217e-07
-1.70785e-07
1.33321e-06
6.77293e-07
2.12468e-07
-2.04728e-07
7.89477e-07
2.6017e-07
-2.81661e-07
1.86636e-07
1.6358e-08
2.41086e-09
-2.45813e-09
3.59158e-07
4.83396e-08
7.2002e-09
-7.33996e-09
5.15956e-07
7.91301e-08
1.20481e-08
-1.22763e-08
6.60948e-07
1.09718e-07
1.72658e-08
-1.75784e-08
7.97349e-07
1.41442e-07
2.32278e-08
-2.36187e-08
9.27752e-07
1.75515e-07
3.0325e-08
-3.07815e-08
1.05414e-06
2.13085e-07
3.89925e-08
-3.94883e-08
1.1778e-06
2.5528e-07
4.97332e-08
-5.02182e-08
1.29916e-06
3.03229e-07
6.31355e-08
-6.35203e-08
1.41749e-06
3.58029e-07
7.98755e-08
-8.00087e-08
1.53036e-06
4.20646e-07
1.00686e-07
-1.00318e-07
1.63306e-06
4.9165e-07
1.26244e-07
-1.24973e-07
1.71792e-06
5.70588e-07
1.56843e-07
-1.54023e-07
1.77466e-06
6.54425e-07
1.91585e-07
-1.86183e-07
1.79416e-06
7.33475e-07
2.26217e-07
-2.16757e-07
8.43644e-07
2.66863e-07
-2.82257e-07
2.22008e-07
1.80522e-08
2.77907e-09
-2.83415e-09
4.27115e-07
5.33198e-08
8.28803e-09
-8.45086e-09
6.13344e-07
8.71902e-08
1.3833e-08
-1.40988e-08
7.85316e-07
1.20688e-07
1.97528e-08
-2.01167e-08
9.46848e-07
1.55208e-07
2.64511e-08
-2.69062e-08
1.10108e-06
1.91969e-07
3.43375e-08
-3.48694e-08
1.25053e-06
2.32075e-07
4.38528e-08
-4.44316e-08
1.39709e-06
2.76545e-07
5.54878e-08
-5.60569e-08
1.54192e-06
3.26321e-07
6.97916e-08
-7.02495e-08
1.68526e-06
3.8224e-07
8.73599e-08
-8.75332e-08
1.82609e-06
4.44943e-07
1.08787e-07
-1.08387e-07
1.96156e-06
5.14718e-07
1.34545e-07
-1.33099e-07
2.08601e-06
5.91073e-07
1.6466e-07
-1.61396e-07
2.18944e-06
6.71527e-07
1.97924e-07
-1.91609e-07
2.25572e-06
7.4768e-07
2.29789e-07
-2.1871e-07
8.51929e-07
2.6608e-07
-2.76707e-07
2.53989e-07
1.90416e-08
3.06574e-09
-3.12728e-09
4.88497e-07
5.62155e-08
9.12862e-09
-9.31051e-09
7.01157e-07
9.18299e-08
1.51926e-08
-1.54894e-08
8.97175e-07
1.26896e-07
2.16069e-08
-2.20132e-08
1.08086e-06
1.62792e-07
2.87833e-08
-2.92916e-08
1.25581e-06
2.0068e-07
3.71265e-08
-3.77211e-08
1.425e-06
2.41546e-07
4.70549e-08
-4.77043e-08
1.59081e-06
2.86222e-07
5.90147e-08
-5.96591e-08
1.75508e-06
3.35373e-07
7.34805e-08
-7.40124e-08
1.91897e-06
3.89465e-07
9.09355e-08
-9.11706e-08
2.08287e-06
4.48692e-07
1.11824e-07
-1.11454e-07
2.24601e-06
5.12903e-07
1.36462e-07
-1.34971e-07
2.40557e-06
5.81487e-07
1.64815e-07
-1.61342e-07
2.55429e-06
6.53012e-07
1.95926e-07
-1.89042e-07
2.67307e-06
7.22737e-07
2.25914e-07
-2.13626e-07
8.23198e-07
2.6388e-07
-2.71703e-07
2.82193e-07
3.27148e-09
-3.33809e-09
1.93109e-08
5.42568e-07
9.72505e-09
-9.9219e-09
5.69877e-08
7.78344e-07
1.61357e-08
-1.64567e-08
9.3006e-08
9.95166e-07
2.28476e-08
-2.3287e-08
1.28322e-07
1.19771e-06
3.02628e-08
-3.08127e-08
1.64244e-07
1.38986e-06
3.87617e-08
-3.94063e-08
2.01827e-07
1.57491e-06
4.87202e-08
-4.9428e-08
2.41898e-07
1.75555e-06
6.05172e-08
-6.12289e-08
2.85058e-07
1.93401e-06
7.45284e-08
-7.5138e-08
3.3165e-07
2.112e-06
9.11002e-08
-9.14276e-08
3.81702e-07
2.29068e-06
1.10501e-07
-1.10248e-07
4.34832e-07
2.47041e-06
1.32838e-07
-1.31515e-07
4.90125e-07
2.65003e-06
1.5789e-07
-1.54695e-07
5.45967e-07
2.82438e-06
1.84654e-07
-1.78299e-07
5.99583e-07
2.97726e-06
2.09637e-07
-1.9844e-07
6.44891e-07
2.59103e-07
-2.67558e-07
7.4421e-07
2.23245e-08
4.10468e-09
2.83342e-10
4.29953e-08
1.21537e-08
8.495e-10
6.18402e-08
1.99781e-08
1.43073e-09
7.93401e-08
2.78818e-08
2.06839e-09
9.58802e-08
3.62693e-08
2.81395e-09
1.11748e-07
4.55388e-08
3.72497e-09
1.27119e-07
5.61094e-08
4.87066e-09
1.42017e-07
6.84476e-08
6.33852e-09
1.5626e-07
8.30916e-08
8.24294e-09
1.69372e-07
1.0067e-07
1.07365e-08
1.8049e-07
1.21906e-07
1.40254e-08
1.88316e-07
1.47594e-07
1.83851e-08
1.91285e-07
1.78454e-07
2.41538e-08
1.88354e-07
2.14598e-07
3.15888e-08
1.81016e-07
2.53081e-07
4.01305e-08
3.1383e-07
5.51248e-08
6.65958e-08
8.02241e-09
8.41676e-10
1.2825e-07
2.37486e-08
2.52218e-09
1.8445e-07
3.90192e-08
4.2447e-09
2.36629e-07
5.44145e-08
6.13102e-09
2.85944e-07
7.07086e-08
8.33197e-09
3.33267e-07
8.86562e-08
1.10148e-08
3.79148e-07
1.09041e-07
1.43787e-08
4.23719e-07
1.32724e-07
1.86727e-08
4.66529e-07
1.6068e-07
2.42166e-08
5.06302e-07
1.94014e-07
3.14256e-08
5.40662e-07
2.33937e-07
4.08385e-08
5.65956e-07
2.8163e-07
5.3128e-08
5.77639e-07
3.37816e-07
6.90175e-08
5.72299e-07
4.01538e-07
8.88091e-08
5.53276e-07
4.66256e-07
1.10545e-07
5.37345e-07
1.40695e-07
1.09765e-07
1.15878e-08
1.37135e-09
2.11361e-07
3.42918e-08
4.10606e-09
3.03933e-07
5.63009e-08
6.90126e-09
3.89852e-07
7.84256e-08
9.95128e-09
4.7104e-07
1.01749e-07
1.34949e-08
5.48976e-07
1.27308e-07
1.77933e-08
6.24657e-07
1.56161e-07
2.31524e-08
6.98465e-07
1.89443e-07
2.99468e-08
7.69939e-07
2.28402e-07
3.86431e-08
8.37423e-07
2.744e-07
4.98221e-08
8.97635e-07
3.28837e-07
6.41845e-08
9.45315e-07
3.9288e-07
8.24981e-08
9.73567e-07
4.66765e-07
1.05355e-07
9.76438e-07
5.48157e-07
1.32384e-07
9.56757e-07
6.27979e-07
1.60068e-07
7.12992e-07
1.89859e-07
1.51152e-07
1.46567e-08
1.85329e-09
2.91002e-07
4.33549e-08
5.54317e-09
4.18358e-07
7.11161e-08
9.29997e-09
5.36488e-07
9.89208e-08
1.33778e-08
6.4806e-07
1.28081e-07
1.80859e-08
7.55186e-07
1.59827e-07
2.37562e-08
8.59387e-07
1.95382e-07
3.07694e-08
9.61478e-07
2.36014e-07
3.95786e-08
1.06132e-06
2.83064e-07
5.07287e-08
1.15745e-06
3.37937e-07
6.48626e-08
1.24655e-06
4.01976e-07
8.26904e-08
1.3229e-06
4.76133e-07
1.04856e-07
1.37841e-06
5.60159e-07
1.31544e-07
1.40478e-06
6.50831e-07
1.61522e-07
1.40127e-06
7.38046e-07
1.90182e-07
8.27425e-07
2.17658e-07
1.90114e-07
1.71147e-08
2.27252e-09
3.65932e-07
5.06011e-08
6.78843e-09
5.25916e-07
8.29162e-08
1.1364e-08
6.74164e-07
1.15145e-07
1.62971e-08
8.14051e-07
1.48741e-07
2.19466e-08
9.48315e-07
1.85035e-07
2.86892e-08
1.07906e-06
2.25298e-07
3.69454e-08
1.20767e-06
2.70796e-07
4.72007e-08
1.33465e-06
3.22804e-07
6.00174e-08
1.45924e-06
3.82583e-07
7.60243e-08
1.57898e-06
4.51254e-07
9.58579e-08
1.68897e-06
5.29506e-07
1.19983e-07
1.78138e-06
6.16842e-07
1.48219e-07
1.84599e-06
7.09852e-07
1.78749e-07
1.87473e-06
7.98398e-07
2.06408e-07
8.85766e-07
2.31433e-07
2.26081e-07
1.88811e-08
2.61917e-09
4.35044e-07
5.57952e-08
7.81261e-09
6.2499e-07
9.13272e-08
1.30449e-08
8.00751e-07
1.26603e-07
1.86404e-08
9.66333e-07
1.63134e-07
2.49861e-08
1.12505e-06
2.02259e-07
3.24778e-08
1.27957e-06
2.45201e-07
4.15438e-08
1.43192e-06
2.93102e-07
5.26617e-08
1.58336e-06
3.47038e-07
6.63643e-08
1.73418e-06
4.07979e-07
8.32197e-08
1.88335e-06
4.76701e-07
1.03764e-07
2.02786e-06
5.53596e-07
1.28329e-07
2.16172e-06
6.3819e-07
1.56597e-07
2.27433e-06
7.27784e-07
1.8664e-07
2.34859e-06
8.13643e-07
2.13174e-07
8.96718e-07
2.37615e-07
2.58566e-07
1.99094e-08
2.88875e-09
4.97397e-07
5.88047e-08
8.60305e-09
7.14213e-07
9.61499e-08
1.43235e-08
9.14451e-07
1.33055e-07
2.03844e-08
1.10263e-06
1.71017e-07
2.71809e-08
1.28255e-06
2.11308e-07
3.51048e-08
1.45733e-06
2.55023e-07
4.45649e-08
1.62955e-06
3.03097e-07
5.59994e-08
1.80117e-06
3.56302e-07
6.98766e-08
1.97347e-06
4.15204e-07
8.66713e-08
2.14687e-06
4.80092e-07
1.06804e-07
2.32052e-06
5.50893e-07
1.30511e-07
2.49135e-06
6.27074e-07
1.57522e-07
2.65128e-06
7.07251e-07
1.86295e-07
2.77844e-06
7.86839e-07
2.12231e-07
8.69495e-07
2.40494e-07
2.87174e-07
3.08187e-09
2.01845e-08
5.52244e-07
9.16277e-09
5.95923e-08
7.92516e-07
1.52082e-08
9.73449e-08
1.01388e-06
2.15478e-08
1.34493e-07
1.22123e-06
2.85674e-08
1.72457e-07
1.41867e-06
3.66364e-08
2.12391e-07
1.60965e-06
4.61233e-08
2.55215e-07
1.79707e-06
5.74043e-08
3.01613e-07
1.98329e-06
7.08571e-08
3.52001e-07
2.17017e-06
8.68341e-08
4.06463e-07
2.35893e-06
1.05604e-07
4.64655e-07
2.54993e-06
1.27239e-07
5.25658e-07
2.74177e-06
1.51367e-07
5.87808e-07
2.92851e-06
1.76544e-07
6.48172e-07
3.09083e-06
1.98628e-07
7.00299e-07
2.37977e-07
7.83923e-07
2.27068e-08
4.27297e-09
2.55311e-10
4.37432e-08
1.26575e-08
7.65605e-10
6.29456e-08
2.08243e-08
1.2899e-09
8.08144e-08
2.91001e-08
1.86573e-09
9.77528e-08
3.79167e-08
2.53971e-09
1.14064e-07
4.76999e-08
3.36372e-09
1.29937e-07
5.88989e-08
4.39938e-09
1.4541e-07
7.2012e-08
5.7228e-09
1.60314e-07
8.76105e-08
7.42936e-09
1.74192e-07
1.06351e-07
9.63765e-09
1.86224e-07
1.28969e-07
1.24897e-08
1.95217e-07
1.56214e-07
1.61387e-08
1.99829e-07
1.88632e-07
2.06996e-08
1.99368e-07
2.25895e-07
2.61007e-08
1.95321e-07
2.64428e-07
3.16718e-08
3.30907e-07
4.02781e-08
6.77322e-08
8.35033e-09
7.58408e-10
1.30473e-07
2.473e-08
2.27309e-09
1.87734e-07
4.06663e-08
3.82685e-09
2.4101e-07
5.67833e-08
5.53029e-09
2.91508e-07
7.39066e-08
7.52008e-09
3.40148e-07
9.28433e-08
9.9471e-09
3.87525e-07
1.14433e-07
1.29891e-08
4.33807e-07
1.39594e-07
1.68631e-08
4.78584e-07
1.69357e-07
2.18366e-08
5.20634e-07
2.04871e-07
2.82334e-08
5.57688e-07
2.47347e-07
3.64231e-08
5.86349e-07
2.97839e-07
4.67646e-08
6.02622e-07
3.56658e-07
5.94322e-08
6.03941e-07
4.21894e-07
7.39725e-08
5.93573e-07
4.85699e-07
8.83081e-08
5.54198e-07
1.05104e-07
1.11626e-07
1.20593e-08
1.23564e-09
2.14998e-07
3.5702e-08
3.7004e-09
3.09307e-07
5.86655e-08
6.22167e-09
3.97017e-07
8.18204e-08
8.976e-09
4.80137e-07
1.06321e-07
1.218e-08
5.60227e-07
1.33278e-07
1.60697e-08
6.38355e-07
1.63821e-07
2.09188e-08
7.14969e-07
1.9916e-07
2.70554e-08
7.89669e-07
2.40609e-07
3.48729e-08
8.60873e-07
2.89571e-07
4.48267e-08
9.25429e-07
3.47408e-07
5.73956e-08
9.78364e-07
4.15055e-07
7.29533e-08
1.01339e-06
4.92084e-07
9.14479e-08
1.02549e-06
5.74737e-07
1.11727e-07
1.01724e-06
6.52108e-07
1.30438e-07
7.28945e-07
1.46909e-07
1.53687e-07
1.52496e-08
1.6698e-09
2.95958e-07
4.51272e-08
4.9952e-09
4.25677e-07
7.40836e-08
8.3836e-09
5.4624e-07
1.03172e-07
1.2066e-08
6.60437e-07
1.33792e-07
1.63233e-08
7.70488e-07
1.67256e-07
2.14562e-08
8.78018e-07
2.04872e-07
2.78067e-08
9.83931e-07
2.47985e-07
3.57745e-08
1.08818e-06
2.98005e-07
4.58235e-08
1.18937e-06
3.56358e-07
5.84642e-08
1.2843e-06
4.24305e-07
7.41818e-08
1.36747e-06
5.02475e-07
9.32418e-08
1.43123e-06
5.8977e-07
1.15254e-07
1.46792e-06
6.81251e-07
1.38396e-07
1.47633e-06
7.64723e-07
1.58518e-07
8.42341e-07
1.74558e-07
1.93262e-07
1.78025e-08
2.04733e-09
3.72082e-07
5.26556e-08
6.11674e-09
5.34989e-07
8.63509e-08
1.02432e-08
6.86243e-07
1.20054e-07
1.46977e-08
8.29369e-07
1.55314e-07
1.98065e-08
9.6724e-07
1.9355e-07
2.59119e-08
1.10209e-06
2.3612e-07
3.33938e-08
1.23543e-06
2.84365e-07
4.2684e-08
1.36785e-06
3.39615e-07
5.42673e-08
1.49871e-06
4.03131e-07
6.86525e-08
1.62561e-06
4.7592e-07
8.62803e-08
1.74377e-06
5.58292e-07
1.07301e-07
1.84545e-06
6.48826e-07
1.31086e-07
1.92056e-06
7.42294e-07
1.55439e-07
1.96031e-06
8.26373e-07
1.75832e-07
9.00221e-07
1.91929e-07
2.29766e-07
1.96346e-08
2.35932e-09
4.42237e-07
5.80441e-08
7.03863e-09
6.35591e-07
9.50809e-08
1.17566e-08
8.14847e-07
1.31954e-07
1.68086e-08
9.84185e-07
1.70275e-07
2.25471e-08
1.14708e-06
2.1147e-07
2.93325e-08
1.30635e-06
2.56843e-07
3.7554e-08
1.46416e-06
3.07603e-07
4.76407e-08
1.62191e-06
3.64864e-07
6.00586e-08
1.78001e-06
4.29578e-07
7.52776e-08
1.93746e-06
5.0238e-07
9.368e-08
2.09126e-06
5.83279e-07
1.15358e-07
2.23524e-06
6.70912e-07
1.39658e-07
2.3583e-06
7.60836e-07
1.64414e-07
2.44216e-06
8.42154e-07
1.85041e-07
9.11571e-07
2.02696e-07
2.62703e-07
2.06983e-08
2.60173e-09
5.05466e-07
6.11576e-08
7.74946e-09
7.26089e-07
1.00071e-07
1.29066e-08
9.30216e-07
1.38631e-07
1.83779e-08
1.12256e-06
1.78431e-07
2.45234e-08
1.30708e-06
2.20829e-07
3.17012e-08
1.4871e-06
2.6699e-07
4.02848e-08
1.66533e-06
3.17904e-07
5.06719e-08
1.84389e-06
3.74362e-07
6.32781e-08
2.02417e-06
4.36892e-07
7.85049e-08
2.20667e-06
5.05632e-07
9.66623e-08
2.39046e-06
5.80147e-07
1.17812e-07
2.57211e-06
6.59123e-07
1.41424e-07
2.74257e-06
7.3967e-07
1.65767e-07
2.87828e-06
8.15206e-07
1.8684e-07
8.85232e-07
2.09326e-07
2.91676e-07
2.77514e-09
2.09789e-08
5.61014e-07
8.25198e-09
6.19598e-08
8.05402e-07
1.37009e-08
1.01284e-07
1.03095e-06
1.94223e-08
1.40082e-07
1.24275e-06
2.57684e-08
1.79864e-07
1.44509e-06
3.30775e-08
2.21863e-07
1.6416e-06
4.16882e-08
2.67058e-07
1.83535e-06
5.19449e-08
3.16171e-07
2.02885e-06
6.41881e-08
3.69621e-07
2.22407e-06
7.87215e-08
4.27439e-07
2.42231e-06
9.57423e-08
4.89121e-07
2.62381e-06
1.15206e-07
5.53408e-07
2.82677e-06
1.3656e-07
6.17981e-07
3.02413e-06
1.58227e-07
6.78708e-07
3.19469e-06
1.76524e-07
7.27435e-07
2.09117e-07
7.99616e-07
2.30417e-08
4.41982e-09
2.17389e-10
4.43996e-08
1.30966e-08
6.51976e-10
6.39182e-08
2.15604e-08
1.09871e-09
8.21156e-08
3.0156e-08
1.58963e-09
9.94112e-08
3.93365e-08
2.16439e-09
1.16124e-07
4.95476e-08
2.86666e-09
1.32459e-07
6.12575e-08
3.74744e-09
1.4847e-07
7.4981e-08
4.86773e-09
1.6401e-07
9.13004e-08
6.29992e-09
1.7865e-07
1.10871e-07
8.12601e-09
1.91622e-07
1.34401e-07
1.04287e-08
2.01817e-07
1.62579e-07
1.32679e-08
2.08017e-07
1.95855e-07
1.663e-08
2.09591e-07
2.33849e-07
2.0334e-08
2.07665e-07
2.73187e-07
2.38575e-08
3.45946e-07
2.90511e-08
6.87275e-08
8.63645e-09
6.45765e-10
1.32424e-07
2.55854e-08
1.93573e-09
1.90624e-07
4.20991e-08
3.25965e-09
2.44875e-07
5.88363e-08
4.71199e-09
2.96433e-07
7.66631e-08
6.40902e-09
3.46267e-07
9.64239e-08
8.47796e-09
3.95014e-07
1.18993e-07
1.10661e-08
4.42895e-07
1.45318e-07
1.4348e-08
4.89556e-07
1.76445e-07
1.85272e-08
5.33858e-07
2.13508e-07
2.38282e-08
5.73664e-07
2.5765e-07
3.04636e-08
6.05794e-07
3.09765e-07
3.85542e-08
6.26548e-07
3.69879e-07
4.7967e-08
6.33474e-07
4.35777e-07
5.80375e-08
6.28803e-07
4.99675e-07
6.71736e-08
5.70176e-07
7.69609e-08
1.13254e-07
1.24707e-08
1.0521e-09
2.18189e-07
3.69314e-08
3.15116e-09
3.14031e-07
6.07223e-08
5.29946e-09
4.03334e-07
8.47631e-08
7.64792e-09
4.88185e-07
1.10264e-07
1.0381e-08
5.70221e-07
1.38385e-07
1.36981e-08
6.50585e-07
1.70304e-07
1.78268e-08
7.29804e-07
2.07262e-07
2.30323e-08
8.07569e-07
2.50586e-07
2.96163e-08
8.82412e-07
3.01641e-07
3.78963e-08
9.51352e-07
3.61659e-07
4.81423e-08
1.00967e-06
4.31289e-07
6.04326e-08
1.05141e-06
5.09588e-07
7.43767e-08
1.07156e-06
5.92169e-07
8.87006e-08
1.0712e-06
6.68006e-07
1.00876e-07
7.43164e-07
1.10285e-07
1.55907e-07
1.57669e-08
1.42172e-09
3.00304e-07
4.66721e-08
4.25362e-09
4.32108e-07
7.66653e-08
7.14073e-09
5.54834e-07
1.06859e-07
1.02807e-08
6.71377e-07
1.38717e-07
1.3913e-08
7.84065e-07
1.73615e-07
1.82923e-08
8.94622e-07
2.12909e-07
2.37045e-08
1.00406e-06
2.57977e-07
3.04749e-08
1.11244e-06
3.10227e-07
3.89629e-08
1.21851e-06
3.71021e-07
4.95286e-08
1.31922e-06
4.41429e-07
6.24423e-08
1.40929e-06
5.21676e-07
7.7688e-08
1.48128e-06
6.09966e-07
9.46047e-08
1.52736e-06
7.00504e-07
1.11415e-07
1.54461e-06
7.80928e-07
1.25005e-07
8.54024e-07
1.34628e-07
1.96016e-07
1.84027e-08
1.74306e-09
3.77471e-07
5.44467e-08
5.20833e-09
5.42958e-07
8.93396e-08
8.72415e-09
6.96881e-07
1.24312e-07
1.25225e-08
8.42897e-07
1.60986e-07
1.68822e-08
9.8401e-07
2.00844e-07
2.2094e-08
1.12258e-06
2.45294e-07
2.84769e-08
1.26024e-06
2.95702e-07
3.63856e-08
1.39772e-06
3.53385e-07
4.62007e-08
1.53451e-06
4.19509e-07
5.82879e-08
1.66834e-06
4.94845e-07
7.28944e-08
1.79454e-06
5.79229e-07
8.99361e-08
1.90544e-06
6.70447e-07
1.08606e-07
1.9905e-06
7.62304e-07
1.26882e-07
2.03922e-06
8.42327e-07
1.41355e-07
9.09986e-07
1.51975e-07
2.32988e-07
2.02922e-08
2.00851e-09
4.48537e-07
6.00051e-08
5.99279e-09
6.44897e-07
9.83481e-08
1.00123e-08
8.27253e-07
1.36598e-07
1.43202e-08
9.99937e-07
1.7644e-07
1.92179e-08
1.16657e-06
2.19365e-07
2.50128e-08
1.33013e-06
2.66721e-07
3.20336e-08
1.49291e-06
3.19738e-07
4.0636e-08
1.65645e-06
3.79498e-07
5.11913e-08
1.8213e-06
4.46837e-07
6.40447e-08
1.98658e-06
5.22133e-07
7.9418e-08
2.14929e-06
6.04905e-07
9.72186e-08
2.30312e-06
6.92988e-07
1.16676e-07
2.43631e-06
7.80974e-07
1.35853e-07
2.5289e-06
8.57844e-07
1.51267e-07
9.20509e-07
1.64187e-07
2.6632e-07
2.13869e-08
2.21463e-09
5.12531e-07
6.32098e-08
6.59722e-09
7.36511e-07
1.03484e-07
1.09904e-08
9.44083e-07
1.43471e-07
1.56555e-08
1.14013e-06
1.84836e-07
2.09011e-08
1.32878e-06
2.28997e-07
2.70333e-08
1.51349e-06
2.7716e-07
3.43695e-08
1.69716e-06
3.3032e-07
4.32425e-08
1.88203e-06
3.8923e-07
5.3988e-08
2.06963e-06
4.54292e-07
6.69068e-08
2.26053e-06
5.25383e-07
8.21837e-08
2.45379e-06
6.01598e-07
9.97388e-08
2.64568e-06
6.80893e-07
1.18952e-07
2.82638e-06
7.595e-07
1.38278e-07
2.97063e-06
8.30709e-07
1.54668e-07
8.94183e-07
1.72388e-07
2.95609e-07
2.3619e-09
2.16725e-08
5.68689e-07
7.02402e-09
6.40253e-08
8.16705e-07
1.1665e-08
1.04715e-07
1.04596e-06
1.65429e-08
1.44936e-07
1.26171e-06
2.19596e-08
1.86268e-07
1.46843e-06
2.82052e-08
2.29999e-07
1.66991e-06
3.55694e-08
2.77138e-07
1.86935e-06
4.43425e-08
3.28409e-07
2.06944e-06
5.48028e-08
3.84181e-07
2.27224e-06
6.71801e-08
4.44359e-07
2.47912e-06
8.15839e-08
5.08194e-07
2.69026e-06
9.78755e-08
5.74003e-07
2.90351e-06
1.1545e-07
6.38842e-07
3.11101e-06
1.32898e-07
6.97844e-07
3.29003e-06
1.47344e-07
7.42588e-07
1.7358e-07
8.08401e-07
2.33211e-08
4.54139e-09
1.70988e-10
4.49478e-08
1.34599e-08
5.12854e-10
6.4732e-08
2.21679e-08
8.64365e-10
8.32068e-08
3.10241e-08
1.25072e-09
1.00806e-07
4.0497e-08
1.70292e-09
1.17863e-07
5.10459e-08
2.25479e-09
1.34597e-07
6.31492e-08
2.94501e-09
1.5108e-07
7.73282e-08
3.81833e-09
1.67182e-07
9.41635e-08
4.92488e-09
1.82506e-07
1.14298e-07
6.3157e-09
1.96316e-07
1.38414e-07
8.03153e-09
2.07546e-07
1.67169e-07
1.00806e-08
2.15e-07
2.01019e-07
1.24029e-08
2.17966e-07
2.39709e-07
1.48259e-08
2.17231e-07
2.80135e-07
1.70078e-08
3.57837e-07
2.02128e-08
6.95575e-08
8.8733e-09
5.07933e-10
1.34052e-07
2.62929e-08
1.52268e-09
1.93041e-07
4.32814e-08
2.56442e-09
2.48115e-07
6.05241e-08
3.70746e-09
3.00575e-07
7.89166e-08
5.04281e-09
3.51428e-07
9.93281e-08
6.66904e-09
4.01359e-07
1.22652e-07
8.69811e-09
4.50637e-07
1.49845e-07
1.12583e-08
4.98965e-07
1.81946e-07
1.44912e-08
5.4528e-07
2.20056e-07
1.85366e-08
5.8754e-07
2.65251e-07
2.34963e-08
6.22668e-07
3.18325e-07
2.93632e-08
6.47002e-07
3.79227e-07
3.59089e-08
6.57828e-07
4.45807e-07
4.25485e-08
6.56413e-07
5.10582e-07
4.82324e-08
5.84011e-07
5.40866e-08
1.14612e-07
1.28112e-08
8.27538e-10
2.20852e-07
3.7948e-08
2.47875e-09
3.17982e-07
6.24198e-08
4.16919e-09
4.08629e-07
8.71827e-08
6.01766e-09
4.94948e-07
1.13488e-07
8.16868e-09
5.78646e-07
1.42529e-07
1.0777e-08
6.60937e-07
1.75507e-07
1.40163e-08
7.42425e-07
2.13673e-07
1.80823e-08
8.22889e-07
2.58332e-07
2.31863e-08
9.0097e-07
3.10789e-07
2.95271e-08
9.7381e-07
3.7215e-07
3.72279e-08
1.03681e-06
4.42866e-07
4.62165e-08
1.08401e-06
5.21772e-07
5.60348e-08
1.10995e-06
6.04393e-07
6.56339e-08
1.11428e-06
6.7999e-07
7.33312e-08
7.56048e-07
7.88338e-08
1.57756e-07
1.61952e-08
1.11824e-09
3.03929e-07
4.795e-08
3.34591e-09
4.37484e-07
7.87963e-08
5.61773e-09
5.62032e-07
1.09891e-07
8.0894e-09
6.80565e-07
1.42747e-07
1.09488e-08
7.955e-07
1.78778e-07
1.43943e-08
9.08658e-07
2.19364e-07
1.86445e-08
1.02115e-06
2.65888e-07
2.39417e-08
1.13315e-06
3.19723e-07
3.05398e-08
1.24353e-06
3.82135e-07
3.86669e-08
1.34936e-06
4.5401e-07
4.84414e-08
1.44545e-06
5.35281e-07
5.97142e-08
1.52427e-06
6.23792e-07
7.1825e-08
1.5774e-06
7.13544e-07
8.33636e-08
1.60028e-06
7.92523e-07
9.22315e-08
8.64617e-07
9.80865e-08
1.9831e-07
1.88996e-08
1.37094e-09
3.81966e-07
5.59284e-08
4.09677e-09
5.49616e-07
9.18071e-08
6.86329e-09
7.05787e-07
1.27815e-07
9.85349e-09
8.5425e-07
1.65629e-07
1.32864e-08
9.98121e-07
2.0677e-07
1.73891e-08
1.13987e-06
2.52669e-07
2.24069e-08
1.28126e-06
3.0469e-07
2.8606e-08
1.42314e-06
3.64096e-07
3.62588e-08
1.56512e-06
4.31933e-07
4.56011e-08
1.70504e-06
5.0874e-07
5.67416e-08
1.83828e-06
5.93995e-07
6.94927e-08
1.95696e-06
6.85041e-07
8.31045e-08
2.04985e-06
7.7542e-07
9.60064e-08
2.10475e-06
8.53086e-07
1.05859e-07
9.18431e-07
1.12843e-07
2.35672e-07
2.08367e-08
1.57964e-09
4.5379e-07
6.16278e-08
4.71356e-09
6.5267e-07
1.01046e-07
7.87636e-09
8.37634e-07
1.4042e-07
1.12679e-08
1.01315e-06
1.81489e-07
1.51254e-08
1.18296e-06
2.25785e-07
1.96895e-08
1.35017e-06
2.74674e-07
2.52144e-08
1.51722e-06
3.29374e-07
3.19695e-08
1.68577e-06
3.90902e-07
4.02239e-08
1.85648e-06
4.59954e-07
5.02056e-08
2.02858e-06
5.36654e-07
6.20167e-08
2.19904e-06
6.20135e-07
7.5485e-08
2.36128e-06
7.07767e-07
8.99151e-08
2.50279e-06
7.93862e-07
1.03818e-07
2.60191e-06
8.67889e-07
1.14766e-07
9.27599e-07
1.23945e-07
2.69331e-07
2.19574e-08
1.74162e-09
5.1842e-07
6.49083e-08
5.18859e-09
7.45211e-07
1.06305e-07
8.64527e-09
9.55683e-07
1.47457e-07
1.23181e-08
1.15486e-06
1.90086e-07
1.64503e-08
1.347e-06
2.35646e-07
2.12821e-08
1.53572e-06
2.85357e-07
2.70606e-08
1.72403e-06
3.40198e-07
3.40396e-08
1.91432e-06
4.00848e-07
4.24657e-08
2.10824e-06
4.6756e-07
5.25408e-08
2.30641e-06
5.39956e-07
6.43529e-08
2.50785e-06
6.16751e-07
7.77594e-08
2.70852e-06
6.95461e-07
9.22024e-08
2.89784e-06
7.72054e-07
1.06495e-07
3.04899e-06
8.40309e-07
1.18499e-07
9.007e-07
1.31735e-07
2.98883e-07
1.85727e-09
2.22471e-08
5.75086e-07
5.52376e-09
6.57354e-08
8.26141e-07
9.17514e-09
1.07551e-07
1.05851e-06
1.30154e-08
1.48935e-07
1.2776e-06
1.72828e-08
1.91521e-07
1.48803e-06
2.22055e-08
2.36628e-07
1.69372e-06
2.80104e-08
2.85278e-07
1.89803e-06
3.49205e-08
3.38168e-07
2.10374e-06
4.31419e-08
3.95597e-07
2.31305e-06
5.28294e-08
4.57322e-07
2.52736e-06
6.40245e-08
5.22354e-07
2.74678e-06
7.65556e-08
5.88663e-07
2.96885e-06
8.98888e-08
6.52912e-07
3.18502e-06
1.0293e-07
7.09986e-07
3.37118e-06
1.13613e-07
7.51774e-07
1.33425e-07
8.14402e-07
2.35376e-08
4.63482e-09
1.17882e-10
4.53731e-08
1.37388e-08
3.53579e-10
6.53641e-08
2.26333e-08
5.95946e-10
8.40559e-08
3.1687e-08
8.62325e-10
1.01894e-07
4.13788e-08
1.17396e-09
1.19222e-07
5.21761e-08
1.5538e-09
1.36274e-07
6.45625e-08
2.02761e-09
1.53134e-07
7.90599e-08
2.62435e-09
1.69689e-07
9.62436e-08
3.37481e-09
1.8556e-07
1.16744e-07
4.30723e-09
2.00031e-07
1.4123e-07
5.43813e-09
2.12045e-07
1.70358e-07
6.75692e-09
2.20379e-07
2.04635e-07
8.20559e-09
2.24213e-07
2.4396e-07
9.66292e-09
2.24118e-07
2.85395e-07
1.09322e-08
3.66642e-07
1.28205e-08
7.02008e-08
9.05533e-09
3.50179e-10
1.35315e-07
2.68361e-08
1.04979e-09
1.94918e-07
4.41874e-08
1.76809e-09
2.50636e-07
6.18131e-08
2.55622e-09
3.03803e-07
8.06289e-08
3.47659e-09
3.55462e-07
1.01519e-07
4.59611e-09
4.06334e-07
1.25386e-07
5.9895e-09
4.56728e-07
1.53186e-07
7.7399e-09
5.06396e-07
1.85943e-07
9.93456e-09
5.54324e-07
2.24729e-07
1.26508e-08
5.98521e-07
2.70577e-07
1.59276e-08
6.35929e-07
3.2425e-07
1.97173e-08
6.628e-07
3.8573e-07
2.38209e-08
6.76094e-07
4.53038e-07
2.78367e-08
6.76453e-07
5.189e-07
3.11515e-08
5.94921e-07
3.4522e-08
1.15664e-07
1.3073e-08
5.7052e-10
2.22917e-07
3.87287e-08
1.70895e-09
3.2105e-07
6.37207e-08
2.87456e-09
4.12746e-07
8.9031e-08
4.1492e-09
5.00218e-07
1.15938e-07
5.63202e-09
5.85227e-07
1.45657e-07
7.42827e-09
6.69047e-07
1.79398e-07
9.65411e-09
7.52345e-07
2.18406e-07
1.2437e-08
8.34974e-07
2.63962e-07
1.59078e-08
9.15648e-07
3.17314e-07
2.01769e-08
9.91574e-07
3.79484e-07
2.52866e-08
1.05816e-06
4.50831e-07
3.11303e-08
1.1093e-06
5.30151e-07
3.73436e-08
1.139e-06
6.13085e-07
4.3219e-08
1.146e-06
6.89132e-07
4.77584e-08
7.66728e-07
5.08666e-08
1.59189e-07
1.65244e-08
7.7093e-10
3.0674e-07
4.89314e-08
2.30679e-09
4.41656e-07
8.04297e-08
3.87331e-09
5.67628e-07
1.12207e-07
5.57787e-09
6.87721e-07
1.45811e-07
7.54951e-09
8.04427e-07
1.82676e-07
9.9233e-09
9.19645e-07
2.24194e-07
1.28462e-08
1.03457e-06
2.71734e-07
1.64765e-08
1.14947e-06
3.26628e-07
2.09732e-08
1.26328e-06
3.90059e-07
2.64643e-08
1.37317e-06
4.62784e-07
3.29855e-08
1.47392e-06
5.44576e-07
4.0376e-08
1.55777e-06
6.33166e-07
4.81367e-08
1.61567e-06
7.22619e-07
5.53269e-08
1.64194e-06
8.01243e-07
6.06803e-08
8.73712e-07
6.40818e-08
2.00087e-07
1.92816e-08
9.4513e-10
3.85449e-07
5.70665e-08
2.82441e-09
5.54783e-07
9.36989e-08
4.7321e-09
7.12708e-07
1.30493e-07
6.79448e-09
8.63088e-07
1.6916e-07
9.16215e-09
1.00913e-06
2.11247e-07
1.19901e-08
1.1534e-06
2.58192e-07
1.54438e-08
1.29775e-06
3.11337e-07
1.96987e-08
1.44313e-06
3.71891e-07
2.49269e-08
1.58925e-06
4.40792e-07
3.12632e-08
1.734e-06
5.18415e-07
3.87398e-08
1.87272e-06
6.04025e-07
4.71754e-08
1.99725e-06
6.94796e-07
5.60188e-08
2.09567e-06
7.84312e-07
6.42283e-08
2.15456e-06
8.60941e-07
7.03641e-08
9.25753e-07
7.465e-08
2.37749e-07
2.12554e-08
1.08897e-09
4.57861e-07
6.28745e-08
3.24957e-09
6.58699e-07
1.03116e-07
5.43055e-09
8.45698e-07
1.43342e-07
7.76991e-09
1.02343e-06
1.85332e-07
1.0431e-08
1.19574e-06
2.30639e-07
1.35785e-08
1.36583e-06
2.80634e-07
1.73845e-08
1.53625e-06
3.36508e-07
2.2028e-08
1.70878e-06
3.99213e-07
2.76808e-08
1.88416e-06
4.6932e-07
3.44761e-08
2.06165e-06
5.46764e-07
4.24478e-08
2.23818e-06
6.30444e-07
5.14336e-08
2.40686e-06
7.17533e-07
6.09288e-08
2.55447e-06
8.02382e-07
6.99486e-08
2.6581e-06
8.74945e-07
7.69751e-08
9.33591e-07
8.29037e-08
2.71662e-07
2.23961e-08
1.20059e-09
5.22983e-07
6.62136e-08
3.57694e-09
7.5196e-07
1.08468e-07
5.96054e-09
9.64691e-07
1.50506e-07
8.49409e-09
1.16632e-06
1.94084e-07
1.13451e-08
1.3612e-06
2.40678e-07
1.46786e-08
1.55307e-06
2.91509e-07
1.86625e-08
1.74505e-06
3.47525e-07
2.34665e-08
1.93963e-06
4.09333e-07
2.92498e-08
2.13855e-06
4.77056e-07
3.61319e-08
2.34247e-06
5.5012e-07
4.41435e-08
2.55033e-06
6.27004e-07
5.3151e-08
2.7578e-06
7.05028e-07
6.27491e-08
2.95365e-06
7.80196e-07
7.21538e-08
3.10982e-06
8.46796e-07
8.00196e-08
9.05932e-07
8.8838e-08
3.01418e-07
1.28025e-09
2.26891e-08
5.80041e-07
3.80781e-09
6.70499e-08
8.33457e-07
6.32558e-09
1.09727e-07
1.06825e-06
8.97462e-09
1.51996e-07
1.28996e-06
1.19193e-08
1.95524e-07
1.50329e-06
1.53166e-08
2.41651e-07
1.7123e-06
1.93214e-08
2.91395e-07
1.92043e-06
2.40837e-08
3.45422e-07
2.13059e-06
2.97373e-08
4.03957e-07
2.34505e-06
3.63736e-08
4.66631e-07
2.56522e-06
4.39975e-08
5.32269e-07
2.79115e-06
5.24621e-08
5.98615e-07
3.0201e-06
6.13807e-08
6.62146e-07
3.24294e-06
7.00219e-08
7.17754e-07
3.4345e-06
7.70612e-08
7.57718e-07
9.03296e-08
8.18938e-07
2.36855e-08
4.69814e-09
6.01321e-11
4.56635e-08
1.39276e-08
1.80361e-10
6.57963e-08
2.2948e-08
3.03988e-10
8.4637e-08
3.21339e-08
4.39851e-10
1.02639e-07
4.19707e-08
5.98739e-10
1.20156e-07
5.29306e-08
7.92212e-10
1.37427e-07
6.5499e-08
1.03311e-09
1.5455e-07
8.01967e-08
1.33556e-09
1.71421e-07
9.7594e-08
1.71405e-09
1.87671e-07
1.18314e-07
2.18085e-09
2.02591e-07
1.4302e-07
2.74103e-09
2.1512e-07
1.72381e-07
3.38488e-09
2.23999e-07
2.0696e-07
4.07926e-09
2.28329e-07
2.46765e-07
4.76359e-09
2.28561e-07
2.88944e-07
5.34939e-09
3.72467e-07
6.23202e-09
7.06398e-08
9.17871e-09
1.78627e-10
1.36178e-07
2.7204e-08
5.35499e-10