/*--------------------------------*- C++ -*----------------------------------*\
| =========                 |                                                 |
| \\      /  F ield         | foam-extend: Open Source CFD                    |
|  \\    /   O peration     | Version:     3.1                                |
|   \\  /    A nd           | Web:         http://www.extend-project.de       |
|    \\/     M anipulation  |                                                 |
\*---------------------------------------------------------------------------*/
FoamFile
{
    version     2.0;
    format      ascii;
    class       volScalarField;
    location    "2";
    object      p;
}
// * * * * * * * * * * * * * * * * * * * * * * * * * * * * * * * * * * * * * //

dimensions      [0 2 -2 0 0 0 0];

internalField   nonuniform List<scalar> 
14592
(
0.0247799
0.024584
0.0244366
0.0243697
0.0243763
0.0244273
0.0244863
0.0245214
0.024512
0.0244471
0.0243214
0.0241221
0.0238195
0.0233429
0.0225828
0.0216032
0.0247919
0.0245669
0.0243977
0.0243129
0.0243117
0.0243664
0.0244383
0.0244912
0.0245011
0.024456
0.0243503
0.0241747
0.0239041
0.0234696
0.0226984
0.0214406
0.0247599
0.0245091
0.0243089
0.024205
0.0241982
0.0242629
0.0243557
0.0244341
0.0244695
0.0244498
0.0243737
0.0242374
0.0240219
0.0236506
0.0228709
0.0212639
0.0247092
0.0244434
0.0242213
0.0240937
0.0240747
0.0241415
0.0242481
0.0243459
0.0244012
0.0244011
0.0243481
0.0242436
0.0240752
0.0237647
0.0230109
0.0211737
0.0246493
0.0243771
0.0241422
0.0239941
0.0239568
0.0240139
0.024121
0.0242258
0.0242895
0.0242968
0.0242518
0.02416
0.0240188
0.0237592
0.0230739
0.0211427
0.0245795
0.0243046
0.0240639
0.0239009
0.0238441
0.0238835
0.0239787
0.0240762
0.0241334
0.024131
0.024073
0.0239669
0.0238228
0.0235896
0.0229996
0.0210972
0.0244967
0.0242202
0.0239763
0.0238021
0.023727
0.0237454
0.0238201
0.0238982
0.0239338
0.0239028
0.0238066
0.02365
0.0234566
0.023192
0.0227024
0.0208646
0.0243999
0.0241227
0.023875
0.0236907
0.0235991
0.0235964
0.023647
0.0236976
0.0236996
0.0236231
0.0234636
0.0232123
0.0228933
0.0224312
0.0219425
0.019482
0.0249675
0.0247622
0.0246097
0.0245463
0.0245671
0.0246441
0.0247408
0.0248252
0.0248778
0.0248918
0.0248683
0.0248074
0.0246987
0.0245047
0.024203
0.0239993
0.0249834
0.0247469
0.0245696
0.0244865
0.0244976
0.0245775
0.024688
0.0247925
0.0248675
0.0249043
0.0249052
0.0248713
0.0247952
0.0246331
0.0243376
0.0241826
0.0249559
0.0246943
0.0244875
0.0243825
0.0243858
0.0244746
0.0246066
0.0247389
0.0248431
0.0249107
0.0249468
0.0249608
0.0249516
0.024866
0.0246021
0.0244509
0.0249093
0.0246343
0.0244072
0.0242801
0.0242705
0.02436
0.0245049
0.024657
0.0247828
0.0248729
0.0249376
0.0249924
0.0250451
0.0250406
0.0248246
0.024664
0.0248516
0.0245714
0.0243349
0.0241905
0.0241632
0.0242412
0.0243839
0.0245407
0.0246735
0.0247706
0.0248448
0.0249168
0.0250053
0.0250648
0.0249017
0.0247284
0.0247807
0.0244987
0.0242594
0.0241035
0.0240579
0.0241163
0.0242429
0.0243874
0.0245088
0.0245915
0.0246478
0.0247014
0.0247831
0.0248659
0.0247348
0.0245408
0.0246919
0.0244097
0.0241688
0.024004
0.0239405
0.0239752
0.0240761
0.0241939
0.0242852
0.0243295
0.0243352
0.0243226
0.0243327
0.0243568
0.0241885
0.0237955
0.0245869
0.0243034
0.0240588
0.0238838
0.0238022
0.023812
0.0238824
0.0239642
0.024011
0.0239953
0.0239177
0.0237807
0.0236177
0.0233808
0.0229916
0.0211148
0.0251545
0.0249423
0.0247877
0.0247304
0.0247674
0.0248716
0.0250062
0.0251386
0.0252499
0.0253352
0.0253989
0.0254476
0.0254762
0.0254608
0.0253977
0.0253904
0.0251745
0.0249289
0.0247473
0.0246685
0.0246939
0.0248004
0.0249497
0.0251045
0.0252413
0.0253523
0.0254444
0.0255209
0.02558
0.0255877
0.0255353
0.0255917
0.0251511
0.0248815
0.0246711
0.0245692
0.0245856
0.0247004
0.0248722
0.0250574
0.0252272
0.025374
0.025505
0.0256337
0.0257609
0.0258404
0.0258349
0.0259312
0.0251087
0.0248269
0.0245983
0.0244762
0.0244801
0.024595
0.0247796
0.0249854
0.0251785
0.0253502
0.0255135
0.0256872
0.0258795
0.0260367
0.0260795
0.0261931
0.0250535
0.0247672
0.0245321
0.0243962
0.024384
0.0244869
0.0246675
0.0248762
0.0250751
0.0252533
0.0254262
0.0256179
0.0258462
0.0260593
0.0261341
0.0262299
0.0249802
0.0246943
0.024459
0.0243149
0.0242861
0.0243685
0.0245298
0.024722
0.0249048
0.0250639
0.0252142
0.025382
0.0255956
0.0258127
0.0258658
0.0258922
0.0248877
0.024601
0.024365
0.024214
0.0241681
0.024225
0.0243559
0.0245147
0.0246595
0.0247709
0.0248597
0.0249478
0.0250711
0.0251948
0.025105
0.0247954
0.0247751
0.0244862
0.0242462
0.0240848
0.0240194
0.0240479
0.0241425
0.024257
0.0243467
0.024385
0.0243736
0.024315
0.0242338
0.0240529
0.0235935
0.0214585
0.0253308
0.0251135
0.0249586
0.0249087
0.0249622
0.0250928
0.0252631
0.0254394
0.0256025
0.0257479
0.0258812
0.0260086
0.0261265
0.0262144
0.0262678
0.0263125
0.0253543
0.0251019
0.0249182
0.0248452
0.0248856
0.0250179
0.0252037
0.0254047
0.0255962
0.0257706
0.0259332
0.0260901
0.0262364
0.0263412
0.0264003
0.0264875
0.0253346
0.0250587
0.0248472
0.0247508
0.0247816
0.024922
0.0251316
0.0253655
0.0255932
0.0258059
0.0260121
0.0262219
0.0264323
0.0265976
0.0266981
0.0268128
0.0252959
0.0250091
0.0247812
0.0246667
0.0246859
0.0248267
0.0250493
0.0253048
0.0255576
0.0257978
0.0260371
0.0262923
0.0265646
0.0267962
0.0269304
0.0270539
0.0252421
0.0249523
0.0247201
0.0245952
0.0246004
0.0247294
0.024947
0.0252042
0.0254618
0.0257076
0.0259557
0.026227
0.0265306
0.0268042
0.0269469
0.0270359
0.0251681
0.0248792
0.024649
0.0245184
0.0245091
0.0246175
0.0248136
0.0250507
0.025288
0.0255105
0.0257312
0.0259727
0.026253
0.0265107
0.0265917
0.0265768
0.0250723
0.0247821
0.0245516
0.0244157
0.0243902
0.0244717
0.0246337
0.0248317
0.025024
0.0251907
0.0253408
0.0254917
0.0256673
0.0258045
0.0256756
0.025251
0.0249527
0.0246593
0.0244245
0.0242778
0.0242316
0.0242818
0.0244022
0.0245485
0.0246764
0.0247587
0.0247953
0.0247837
0.0247352
0.024541
0.0239591
0.0215307
0.0254865
0.0252651
0.0251109
0.0250684
0.0251372
0.0252913
0.0254928
0.0257067
0.0259125
0.0261051
0.0262893
0.0264701
0.0266416
0.0267833
0.0268864
0.0269395
0.025512
0.0252552
0.0250706
0.0250037
0.0250582
0.0252136
0.0254313
0.0256717
0.0259083
0.0261323
0.0263475
0.0265585
0.0267567
0.0269107
0.0270156
0.0270929
0.0254955
0.025215
0.025004
0.0249138
0.0249583
0.025122
0.0253647
0.0256401
0.0259158
0.0261807
0.0264418
0.0267048
0.0269615
0.0271642
0.0272947
0.0273906
0.0254605
0.0251698
0.0249437
0.0248374
0.0248715
0.025036
0.0252923
0.0255904
0.0258927
0.0261867
0.0264808
0.0267877
0.0271007
0.0273572
0.0275076
0.0275979
0.025407
0.0251154
0.0248865
0.024773
0.0247952
0.0249485
0.0251994
0.0254985
0.0258046
0.0261031
0.0264045
0.0267245
0.0270627
0.0273475
0.0274868
0.0275283
0.0253336
0.0250424
0.0248175
0.0246997
0.0247094
0.0248424
0.0250702
0.0253463
0.0256288
0.0259002
0.02617
0.0264549
0.0267619
0.0270149
0.0270643
0.0269793
0.0252345
0.0249418
0.0247165
0.024595
0.0245893
0.0246948
0.0248855
0.0251178
0.0253495
0.0255585
0.0257506
0.0259367
0.0261287
0.0262425
0.0260401
0.0255009
0.0251085
0.0248121
0.024582
0.0244494
0.024422
0.0244936
0.0246385
0.024813
0.0249726
0.0250883
0.025157
0.0251698
0.0251259
0.0248924
0.0241886
0.0215278
0.0256124
0.0253878
0.0252347
0.0251989
0.0252804
0.0254537
0.0256802
0.0259235
0.0261617
0.0263888
0.0266079
0.0268223
0.0270236
0.02719
0.0273105
0.0273589
0.0256389
0.0253797
0.0251946
0.0251334
0.0251997
0.0253739
0.0256172
0.0258883
0.0261594
0.0264197
0.0266711
0.0269161
0.0271427
0.0273185
0.0274367
0.0274979
0.025625
0.0253411
0.0251315
0.0250471
0.0251034
0.0252861
0.0255554
0.0258635
0.0261758
0.0264791
0.0267775
0.0270731
0.027353
0.027568
0.0277004
0.0277724
0.0255924
0.0252996
0.0250757
0.0249767
0.0250237
0.025208
0.0254915
0.0258231
0.0261631
0.0264959
0.0268273
0.0271647
0.0274954
0.0277536
0.0278938
0.0279497
0.0255402
0.0252471
0.0250215
0.0249178
0.0249547
0.0251285
0.0254064
0.0257386
0.0260817
0.0264182
0.026755
0.0271025
0.0274527
0.0277284
0.0278429
0.0278399
0.0254668
0.0251741
0.0249536
0.024847
0.0248731
0.025027
0.0252808
0.025588
0.0259049
0.0262113
0.0265131
0.0268212
0.0271341
0.0273663
0.0273722
0.0272282
0.025365
0.0250708
0.0248499
0.0247404
0.0247518
0.0248778
0.0250925
0.0253523
0.0256139
0.0258531
0.0260719
0.0262755
0.0264664
0.0265472
0.0262753
0.0256492
0.0252337
0.0249356
0.0247094
0.0245885
0.0245774
0.0246676
0.0248333
0.0250305
0.0252143
0.0253536
0.0254421
0.0254653
0.0254133
0.0251374
0.0243351
0.0215076
0.0257006
0.0254745
0.0253227
0.025292
0.0253829
0.02557
0.025814
0.0260776
0.0263377
0.0265872
0.026828
0.0270617
0.0272781
0.0274544
0.0275785
0.0276198
0.025728
0.0254673
0.0252832
0.0252268
0.0253023
0.0254902
0.0257516
0.0260442
0.0263385
0.0266227
0.0268965
0.0271614
0.0274024
0.0275863
0.0277053
0.0277514
0.0257157
0.0254306
0.0252225
0.0251432
0.0252089
0.0254058
0.0256941
0.0260251
0.0263624
0.0266909
0.0270126
0.0273265
0.0276173
0.0278341
0.0279599
0.0280118
0.0256844
0.0253911
0.0251694
0.0250766
0.0251339
0.0253331
0.0256364
0.0259918
0.0263576
0.0267158
0.0270701
0.0274243
0.0277616
0.0280144
0.0281395
0.028168
0.0256337
0.0253398
0.025117
0.025021
0.0250695
0.0252589
0.0255568
0.0259125
0.0262812
0.0266425
0.0270007
0.0273626
0.0277153
0.0279782
0.0280682
0.0280315
0.0255599
0.0252667
0.0250495
0.0249515
0.0249903
0.0251603
0.0254335
0.0257631
0.0261036
0.0264329
0.026754
0.0270735
0.0273845
0.0275965
0.0275664
0.0273802
0.0254561
0.0251614
0.0249438
0.0248433
0.0248678
0.0250095
0.0252424
0.0255222
0.0258046
0.0260635
0.026298
0.0265094
0.026694
0.0267472
0.0264238
0.0257386
0.0253211
0.0250223
0.0247991
0.0246868
0.0246882
0.0247929
0.0249745
0.0251887
0.0253894
0.0255442
0.0256439
0.0256706
0.0256081
0.0252989
0.0244276
0.0214925
0.0257442
0.0255172
0.0253652
0.0253362
0.025431
0.0256244
0.0258767
0.02615
0.0264206
0.0266807
0.0269312
0.0271731
0.027395
0.0275743
0.0276989
0.0277383
0.0257719
0.0255095
0.0253248
0.0252696
0.0253484
0.0255423
0.0258121
0.0261147
0.02642
0.0267152
0.0269988
0.0272719
0.0275177
0.0277037
0.0278229
0.027864
0.0257607
0.0254747
0.0252655
0.0251872
0.0252558
0.0254584
0.025755
0.0260965
0.0264454
0.0267853
0.0271172
0.0274383
0.027732
0.0279478
0.0280709
0.0281164
0.0257301
0.0254362
0.0252142
0.0251229
0.0251836
0.0253884
0.0257
0.026066
0.0264436
0.0268134
0.0271776
0.027538
0.0278761
0.028124
0.0282427
0.0282608
0.0256804
0.0253857
0.0251631
0.0250694
0.025122
0.0253174
0.0256234
0.0259894
0.0263695
0.0267419
0.0271093
0.0274764
0.0278278
0.0280822
0.0281615
0.0281115
0.0256065
0.0253128
0.0250964
0.0250011
0.0250445
0.0252207
0.0255018
0.0258408
0.0261918
0.0265311
0.0268602
0.0271836
0.0274913
0.027691
0.0276451
0.0274421
0.0255018
0.0252067
0.0249898
0.0248924
0.0249219
0.0250697
0.0253098
0.0255978
0.025889
0.0261564
0.0263973
0.0266108
0.0267899
0.0268271
0.0264789
0.0257634
0.0253649
0.0250657
0.0248431
0.0247339
0.02474
0.0248503
0.025038
0.0252588
0.0254666
0.0256279
0.025732
0.0257591
0.025689
0.0253609
0.0244414
0.021457
0.0240905
0.024068
0.0240666
0.0240734
0.0240683
0.0240279
0.0239299
0.0237549
0.0234874
0.0231143
0.0226235
0.0220024
0.0212373
0.0203179
0.0192362
0.0180156
0.0240916
0.0240687
0.0240723
0.0240864
0.0240891
0.0240557
0.0239631
0.023792
0.0235272
0.0231563
0.0226679
0.0220501
0.021289
0.0203756
0.0192971
0.0180814
0.0240728
0.0240438
0.0240527
0.0240802
0.0240999
0.0240831
0.0240039
0.0238421
0.023583
0.0232157
0.0227306
0.0221176
0.021364
0.0204639
0.0193986
0.0182008
0.0240384
0.0239975
0.0240037
0.02404
0.0240764
0.0240779
0.0240153
0.0238652
0.0236135
0.0232503
0.0227679
0.022159
0.0214119
0.020523
0.0194713
0.018293
0.023994
0.0239389
0.0239358
0.0239733
0.0240191
0.0240361
0.023988
0.0238503
0.0236062
0.0232468
0.0227663
0.0221595
0.0214165
0.020537
0.0194979
0.0183377
0.0239432
0.0238758
0.0238616
0.0238957
0.0239461
0.0239721
0.0239347
0.0238053
0.0235666
0.0232097
0.0227298
0.0221239
0.0213837
0.0205119
0.0194861
0.0183451
0.023889
0.0238128
0.0237892
0.023818
0.0238687
0.0238986
0.0238663
0.0237411
0.0235045
0.0231477
0.0226669
0.0220607
0.0213231
0.0204586
0.0194485
0.0183297
0.0238347
0.0237536
0.0237239
0.0237481
0.0237965
0.0238258
0.0237935
0.0236678
0.0234295
0.0230702
0.0225869
0.0219798
0.021245
0.0203887
0.0193974
0.0183045
0.0240915
0.0240487
0.024032
0.0240298
0.0240214
0.0239818
0.0238862
0.0237139
0.0234481
0.0230754
0.0225829
0.0219581
0.0211863
0.0202576
0.0191614
0.0179281
0.0240898
0.0240387
0.0240205
0.0240195
0.0240152
0.0239811
0.023891
0.0237233
0.0234611
0.0230908
0.0226001
0.0219775
0.021208
0.0202845
0.0191914
0.0179664
0.0240672
0.0240034
0.0239826
0.0239884
0.0239976
0.0239792
0.0239033
0.0237464
0.0234913
0.0231256
0.0226388
0.0220207
0.0212576
0.0203465
0.0192645
0.018058
0.0240329
0.0239531
0.0239237
0.0239325
0.0239544
0.0239531
0.0238941
0.0237506
0.0235043
0.023144
0.0226606
0.0220468
0.0212895
0.02039
0.0193196
0.0181318
0.0239914
0.0238954
0.0238523
0.0238587
0.0238876
0.0238997
0.0238554
0.0237244
0.0234871
0.0231322
0.022652
0.0220417
0.0212892
0.0203994
0.0193413
0.0181712
0.023944
0.023835
0.0237789
0.0237787
0.0238093
0.0238294
0.0237956
0.023674
0.0234434
0.0230923
0.0226143
0.0220062
0.021258
0.0203772
0.0193338
0.0181837
0.0238915
0.0237744
0.023708
0.023701
0.0237303
0.0237534
0.0237248
0.0236083
0.0233808
0.0230311
0.0225536
0.0219469
0.021203
0.0203315
0.0193064
0.0181805
0.0238377
0.0237165
0.0236441
0.0236321
0.0236585
0.0236809
0.0236525
0.0235359
0.0233078
0.0229566
0.022478
0.0218719
0.0211331
0.0202719
0.0192691
0.0181717
0.0241044
0.0240352
0.0239973
0.0239841
0.0239736
0.0239386
0.0238517
0.0236897
0.0234345
0.0230709
0.0225846
0.0219602
0.0211774
0.0202197
0.019064
0.0177444
0.0241006
0.0240185
0.0239758
0.0239601
0.0239526
0.0239236
0.0238436
0.0236881
0.023438
0.0230784
0.0225944
0.0219739
0.0211943
0.0202433
0.01909
0.017784
0.0240705
0.0239704
0.0239184
0.0239062
0.0239111
0.0238991
0.0238357
0.0236935
0.023453
0.0231001
0.0226231
0.022007
0.0212343
0.0202969
0.0191527
0.0178658
0.0240303
0.0239104
0.0238435
0.0238294
0.0238449
0.0238505
0.0238059
0.0236795
0.0234501
0.0231043
0.0226314
0.0220213
0.0212548
0.0203287
0.0191923
0.0179224
0.0239852
0.0238479
0.0237628
0.0237408
0.0237602
0.0237784
0.0237498
0.0236379
0.0234192
0.0230804
0.0226118
0.0220059
0.0212443
0.0203282
0.0192025
0.0179507
0.0239355
0.0237854
0.0236838
0.023651
0.0236691
0.0236941
0.0236763
0.0235752
0.0233646
0.0230308
0.022565
0.021962
0.0212051
0.020299
0.0191895
0.0179614
0.0238832
0.0237238
0.0236101
0.0235676
0.0235818
0.0236087
0.0235962
0.0235006
0.0232941
0.0229622
0.0224972
0.0218958
0.021144
0.0202491
0.0191627
0.0179655
0.023828
0.0236646
0.0235442
0.0234954
0.0235055
0.023531
0.0235184
0.023423
0.0232159
0.0228826
0.0224164
0.0218156
0.0210696
0.0201876
0.0191311
0.0179718
0.0241424
0.0240453
0.0239843
0.023958
0.0239459
0.0239184
0.0238452
0.0237008
0.0234652
0.0231214
0.0226523
0.0220368
0.0212447
0.0202432
0.0189845
0.0174936
0.024139
0.0240258
0.0239579
0.0239271
0.0239173
0.0238964
0.0238317
0.0236956
0.0234671
0.0231292
0.0226654
0.0220555
0.0212691
0.0202775
0.0190222
0.0175504
0.0241026
0.0239676
0.0238834
0.0238541
0.0238559
0.0238529
0.023807
0.0236871
0.0234708
0.0231421
0.0226858
0.022084
0.0213066
0.0203295
0.0190777
0.0176205
0.024055
0.0238983
0.0237947
0.0237579
0.0237675
0.0237821
0.0237566
0.0236547
0.0234517
0.0231321
0.0226824
0.0220872
0.0213164
0.0203497
0.0190999
0.0176543
0.0240042
0.0238299
0.0237047
0.0236543
0.0236639
0.0236897
0.0236806
0.0235946
0.0234039
0.0230924
0.0226479
0.0220569
0.0212909
0.0203331
0.0190911
0.0176645
0.0239502
0.0237636
0.0236198
0.0235544
0.0235587
0.0235889
0.02359
0.0235153
0.0233334
0.0230272
0.0225853
0.0219965
0.0212347
0.0202877
0.0190638
0.0176687
0.0238929
0.0236989
0.023542
0.023464
0.0234612
0.0234911
0.0234964
0.0234269
0.0232488
0.0229439
0.0225016
0.0219132
0.0211558
0.0202221
0.0190283
0.0176787
0.0238344
0.0236363
0.0234723
0.0233864
0.0233778
0.0234045
0.0234088
0.0233385
0.0231588
0.022851
0.0224056
0.0218159
0.0210634
0.0201453
0.0189926
0.0177013
0.0242109
0.0240868
0.0240015
0.0239612
0.0239481
0.0239299
0.0238745
0.0237539
0.0235463
0.023233
0.0227935
0.0222
0.0214076
0.0203559
0.0189566
0.0171897
0.0242095
0.0240663
0.0239706
0.0239246
0.0239118
0.0239003
0.0238544
0.0237439
0.0235455
0.0232404
0.0228091
0.0222235
0.0214401
0.0204002
0.0190071
0.0172607
0.0241696
0.024002
0.0238863
0.0238354
0.0238315
0.0238376
0.023812
0.0237199
0.0235362
0.0232427
0.0228211
0.0222458
0.0214728
0.0204441
0.019046
0.0172924
0.0241162
0.0239267
0.0237869
0.023724
0.0237237
0.0237453
0.0237403
0.0236677
0.0234992
0.0232166
0.0228032
0.0222348
0.021468
0.0204438
0.0190379
0.0172793
0.0240597
0.0238544
0.0236917
0.0236103
0.0236048
0.0236341
0.0236442
0.0235877
0.0234323
0.0231583
0.0227503
0.0221854
0.0214222
0.0204031
0.0190009
0.0172599
0.0240008
0.0237851
0.023604
0.023504
0.0234885
0.0235182
0.0235362
0.0234898
0.0233426
0.0230732
0.0226667
0.0221022
0.021342
0.0203333
0.0189529
0.0172585
0.0239387
0.023717
0.0235233
0.0234085
0.0233824
0.0234081
0.0234274
0.0233844
0.0232393
0.0229692
0.0225598
0.0219927
0.0212356
0.0202431
0.0189033
0.0172853
0.0238743
0.0236495
0.0234491
0.0233251
0.0232908
0.0233108
0.0233268
0.0232809
0.0231318
0.0228557
0.0224394
0.021867
0.0211122
0.02014
0.0188565
0.0173403
0.0243118
0.0241638
0.0240563
0.0240029
0.0239903
0.023984
0.0239503
0.0238596
0.0236887
0.0234177
0.023025
0.0224745
0.021704
0.0206085
0.0190345
0.0168455
0.0243132
0.0241433
0.0240224
0.0239618
0.0239463
0.023946
0.0239228
0.0238439
0.0236843
0.0234242
0.0230412
0.0225004
0.0217404
0.0206525
0.0190711
0.0168433
0.0242724
0.0240768
0.023932
0.0238604
0.0238505
0.0238663
0.0238639
0.0238052
0.0236626
0.0234164
0.0230463
0.0225174
0.021767
0.0206728
0.0190549
0.016724
0.0242162
0.0239997
0.023828
0.0237401
0.0237288
0.0237567
0.0237739
0.0237352
0.0236091
0.0233753
0.0230149
0.0224932
0.021747
0.0206406
0.0189909
0.0165841
0.024156
0.0239263
0.0237329
0.0236226
0.0236008
0.0236316
0.0236609
0.0236372
0.0235238
0.0232985
0.0229433
0.0224236
0.0216794
0.0205683
0.0189152
0.0164976
0.0240927
0.0238552
0.0236455
0.023515
0.0234786
0.0235047
0.0235376
0.0235211
0.0234141
0.0231914
0.0228355
0.0223131
0.0215704
0.020467
0.0188445
0.016488
0.0240253
0.0237834
0.0235631
0.0234169
0.0233665
0.023384
0.023414
0.0233972
0.023289
0.0230618
0.0226985
0.022168
0.0214258
0.0203424
0.0187831
0.0165628
0.0239543
0.0237099
0.0234836
0.0233275
0.0232665
0.023275
0.0232978
0.0232745
0.0231581
0.0229196
0.0225425
0.0219988
0.0212537
0.0201978
0.0187302
0.0167247
0.0244437
0.0242759
0.0241506
0.0240885
0.0240781
0.0240868
0.0240794
0.0240249
0.0238999
0.0236855
0.023361
0.0228874
0.0221883
0.0211085
0.0193675
0.0165681
0.0244485
0.0242562
0.0241145
0.0240409
0.0240264
0.0240405
0.0240444
0.0240035
0.0238921
0.023691
0.0233789
0.0229177
0.0222306
0.0211423
0.0193183
0.0162244
0.0244091
0.0241905
0.0240207
0.0239333
0.02392
0.023948
0.0239727
0.0239536
0.0238616
0.0236774
0.0233821
0.0229375
0.0222625
0.0211472
0.0192064
0.0157165
0.0243529
0.0241153
0.0239198
0.0238112
0.0237915
0.0238278
0.02387
0.0238708
0.0237963
0.0236263
0.0233435
0.0229094
0.0222411
0.021098
0.0190793
0.0153081
0.0242912
0.0240431
0.023828
0.0236959
0.0236614
0.0236954
0.0237459
0.0237593
0.0236964
0.0235345
0.023257
0.0228254
0.0221608
0.0210053
0.0189747
0.0150877
0.0242247
0.0239711
0.023743
0.023591
0.0235386
0.0235627
0.0236116
0.023628
0.0235681
0.0234056
0.0231241
0.0226859
0.0220219
0.0208711
0.018891
0.0150447
0.024152
0.0238954
0.0236593
0.0234923
0.0234234
0.0234341
0.0234745
0.0234853
0.023419
0.0232458
0.0229496
0.0224936
0.0218239
0.0206903
0.0188186
0.0151741
0.0240734
0.0238148
0.0235736
0.0233963
0.0233145
0.0233124
0.0233408
0.0233395
0.0232586
0.0230657
0.0227443
0.022258
0.0215689
0.0204518
0.0187484
0.015527
0.0246022
0.0244187
0.0242803
0.0242136
0.0242094
0.0242372
0.0242609
0.0242489
0.0241786
0.0240347
0.0238021
0.0234504
0.0229125
0.0220289
0.0204311
0.0173224
0.0246105
0.0244001
0.0242434
0.0241606
0.0241507
0.0241831
0.0242189
0.0242224
0.0241685
0.0240409
0.0238244
0.0234906
0.0229726
0.0220913
0.0203522
0.016556
0.0245743
0.0243374
0.0241483
0.024051
0.0240386
0.0240828
0.0241393
0.0241663
0.0241345
0.0240277
0.023834
0.0235274
0.0230393
0.0221541
0.0202552
0.0157088
0.0245202
0.0242665
0.0240543
0.0239326
0.0239101
0.0239589
0.0240309
0.0240774
0.0240643
0.023974
0.0237976
0.0235109
0.0230461
0.0221591
0.0201766
0.015125
0.0244588
0.0241969
0.0239685
0.0238239
0.0237839
0.0238262
0.0239023
0.0239585
0.0239553
0.0238728
0.0237028
0.023423
0.0229717
0.0220926
0.0201176
0.0148372
0.0243902
0.0241246
0.0238869
0.0237244
0.0236648
0.0236927
0.0237618
0.023816
0.0238114
0.023724
0.0235458
0.0232556
0.0228042
0.0219363
0.0200417
0.0147615
0.0243124
0.0240447
0.0238016
0.0236257
0.0235482
0.0235586
0.0236131
0.0236551
0.023637
0.0235307
0.0233271
0.0230042
0.0225305
0.0216601
0.0199076
0.0148188
0.0242254
0.023956
0.0237086
0.0235225
0.0234302
0.0234235
0.0234602
0.023483
0.0234417
0.0233038
0.0230577
0.0226753
0.0221395
0.0212033
0.0196405
0.0149398
0.0242947
0.0240156
0.0237625
0.0235687
0.0234635
0.0234428
0.02347
0.0234901
0.0234522
0.0233211
0.0230844
0.0227109
0.0221924
0.0212715
0.0197763
0.0151682
0.0241884
0.0239068
0.0236475
0.0234461
0.0233326
0.0232998
0.0233077
0.0232992
0.0232219
0.023038
0.0227285
0.0222526
0.0215787
0.02047
0.0187782
0.0155731
0.0240917
0.0238082
0.0235441
0.0233404
0.0232263
0.023189
0.0231833
0.0231506
0.0230384
0.0228106
0.0224458
0.0219123
0.0211734
0.0201202
0.0186268
0.0166369
0.024018
0.0237335
0.0234702
0.0232736
0.0231678
0.0231323
0.023117
0.0230629
0.0229204
0.0226576
0.0222547
0.0216948
0.0209439
0.0199791
0.0186736
0.0171697
0.0239755
0.023695
0.0234431
0.0232644
0.0231728
0.0231404
0.0231145
0.0230387
0.0228684
0.0225766
0.022147
0.0215735
0.0208286
0.0199243
0.0187645
0.0174808
0.0239639
0.0236982
0.0234709
0.023317
0.0232391
0.0232049
0.0231636
0.0230643
0.0228681
0.0225526
0.0221048
0.0215236
0.0207902
0.0199263
0.0188751
0.0177246
0.0239697
0.0237334
0.0235382
0.0234116
0.0233457
0.0233073
0.0232501
0.02313
0.0229139
0.0225827
0.0221256
0.0215425
0.0208215
0.0199816
0.0189917
0.0179064
0.023957
0.0237543
0.0235899
0.023489
0.0234391
0.0234054
0.0233444
0.0232164
0.0229926
0.0226563
0.0221987
0.0216182
0.0209058
0.0200735
0.0190984
0.0180201
0.0244695
0.0241835
0.0239323
0.0237454
0.0236467
0.0236336
0.0236739
0.0237165
0.0237116
0.0236249
0.0234458
0.0231459
0.0227122
0.0218659
0.0202378
0.0151349
0.0243487
0.0240594
0.0237994
0.0236004
0.0234884
0.023458
0.0234733
0.02348
0.0234255
0.0232711
0.0229971
0.0225581
0.0219132
0.0207775
0.0189166
0.0152022
0.0242369
0.0239442
0.0236758
0.0234688
0.0233507
0.0233116
0.0233098
0.0232876
0.0231913
0.0229824
0.0226374
0.0221188
0.0213823
0.0202872
0.0186798
0.0164428
0.0241473
0.0238532
0.0235814
0.023376
0.023262
0.0232227
0.0232102
0.0231649
0.0230346
0.0227845
0.0223923
0.0218376
0.0210797
0.0200849
0.0187015
0.0170831
0.0240927
0.0238005
0.0235362
0.0233447
0.0232435
0.0232077
0.0231856
0.0231187
0.0229588
0.0226764
0.0222527
0.0216799
0.0209248
0.0199988
0.0187819
0.0174295
0.0240716
0.0237928
0.0235507
0.0233834
0.0232969
0.0232614
0.0232256
0.0231355
0.0229488
0.0226407
0.022196
0.0216133
0.020869
0.0199876
0.0188955
0.0176977
0.0240711
0.0238205
0.0236117
0.0234739
0.0234026
0.0233656
0.0233153
0.0232043
0.0229968
0.0226716
0.0222166
0.0216313
0.0209003
0.0200458
0.0190253
0.0179033
0.024055
0.0238404
0.0236643
0.0235551
0.0235028
0.0234727
0.0234195
0.0233007
0.0230851
0.0227545
0.0222991
0.0217169
0.0209965
0.0201511
0.0191491
0.0180364
0.0246453
0.0243538
0.024106
0.0239302
0.0238443
0.0238449
0.0239028
0.0239693
0.023996
0.0239482
0.023815
0.0235645
0.0231706
0.0223175
0.0205349
0.015
0.0245101
0.0242145
0.0239558
0.0237638
0.0236593
0.023637
0.0236636
0.0236865
0.0236536
0.0235245
0.0232781
0.0228625
0.0222258
0.0210426
0.0190317
0.0149599
0.0243829
0.024083
0.0238129
0.0236075
0.0234911
0.023455
0.0234599
0.0234487
0.023367
0.0231737
0.0228436
0.0223328
0.0215898
0.0204474
0.0187346
0.0162976
0.0242784
0.0239761
0.0236992
0.0234897
0.0233725
0.023333
0.0233251
0.0232885
0.0231689
0.0229291
0.0225445
0.0219908
0.021222
0.020194
0.0187373
0.0170159
0.0242108
0.0239095
0.0236365
0.0234369
0.0233298
0.0232931
0.0232757
0.0232171
0.0230664
0.0227915
0.0223715
0.0217972
0.0210301
0.0200809
0.0188111
0.0173958
0.0241804
0.0238912
0.023638
0.023461
0.0233689
0.0233337
0.0233036
0.0232222
0.0230439
0.0227417
0.0222987
0.0217131
0.0209571
0.0200579
0.0189277
0.0176859
0.0241739
0.0239119
0.0236924
0.0235465
0.0234718
0.0234372
0.0233938
0.0232916
0.0230919
0.0227716
0.0223175
0.0217291
0.0209877
0.0201184
0.0190691
0.0179122
0.0241544
0.0239306
0.0237457
0.0236309
0.0235779
0.0235523
0.023507
0.023397
0.0231888
0.0228629
0.0224086
0.0218239
0.0210947
0.0202361
0.0192084
0.0180629
0.0248112
0.0245153
0.0242715
0.0241084
0.0240384
0.0240561
0.0241336
0.0242238
0.0242785
0.0242621
0.0241615
0.0239386
0.0235543
0.0226597
0.0207206
0.0148214
0.0246624
0.0243619
0.0241054
0.0239224
0.0238288
0.0238182
0.0238583
0.0238975
0.0238836
0.0237746
0.0235469
0.0231423
0.0224988
0.0212598
0.0191147
0.0147715
0.0245207
0.0242152
0.023945
0.0237438
0.0236327
0.023603
0.0236164
0.0236164
0.0235472
0.0233661
0.0230453
0.0225356
0.0217793
0.0205889
0.0187824
0.0161881
0.024403
0.0240937
0.0238138
0.0236035
0.0234866
0.0234496
0.0234475
0.0234194
0.0233091
0.023077
0.0226967
0.0221404
0.0213576
0.0202963
0.0187743
0.0169665
0.0243223
0.0240142
0.0237354
0.023531
0.0234211
0.0233854
0.0233733
0.0233226
0.0231798
0.0229106
0.0224924
0.0219145
0.0211344
0.0201621
0.0188455
0.017376
0.0242835
0.0239861
0.023725
0.0235415
0.0234459
0.0234122
0.023388
0.0233146
0.0231437
0.0228461
0.0224036
0.0218142
0.0210465
0.0201299
0.0189659
0.0176852
0.0242715
0.0240007
0.0237732
0.0236216
0.0235452
0.0235137
0.0234771
0.023383
0.0231902
0.022874
0.0224199
0.0218277
0.0210761
0.0201924
0.0191171
0.0179288
0.0242494
0.0240181
0.0238269
0.0237085
0.0236562
0.0236355
0.023598
0.0234963
0.0232948
0.0229727
0.0225186
0.0219305
0.0211926
0.020321
0.0192697
0.0180944
0.0249574
0.0246581
0.0244181
0.0242671
0.024213
0.0242483
0.0243449
0.0244565
0.0245345
0.0245416
0.0244619
0.0242512
0.0238591
0.0229114
0.0208335
0.014644
0.0247964
0.0244924
0.0242382
0.0240642
0.0239824
0.0239844
0.0240381
0.0240924
0.0240942
0.0239999
0.0237835
0.0233807
0.0227218
0.0214271
0.0191685
0.0146185
0.024642
0.0243325
0.0240628
0.0238667
0.0237624
0.0237403
0.0237629
0.0237731
0.0237144
0.0235419
0.0232259
0.0227126
0.0219395
0.0207044
0.0188193
0.0161053
0.0245129
0.0241982
0.0239166
0.0237072
0.0235925
0.0235595
0.0235637
0.0235434
0.0234407
0.023214
0.0228352
0.022274
0.0214762
0.0203842
0.0188076
0.0169312
0.0244212
0.0241076
0.0238249
0.0236179
0.0235071
0.0234736
0.0234668
0.0234232
0.023287
0.0230219
0.0226039
0.0220213
0.0212285
0.0202351
0.0188794
0.0173652
0.0243746
0.0240711
0.0238044
0.0236165
0.0235192
0.0234876
0.023469
0.0234027
0.0232379
0.0229439
0.0225011
0.0219073
0.0211287
0.0201963
0.0190038
0.0176906
0.0243577
0.0240804
0.0238471
0.0236918
0.0236148
0.0235865
0.0235563
0.0234694
0.0232824
0.0229693
0.0225148
0.0219186
0.0211576
0.0202609
0.0191633
0.0179484
0.0243342
0.0240967
0.0239011
0.0237807
0.0237297
0.0237139
0.0236835
0.0235892
0.0233934
0.0230743
0.0226199
0.0220282
0.0212819
0.0203984
0.0193268
0.018126
0.0250751
0.0247735
0.0245366
0.0243959
0.0243559
0.0244067
0.0245199
0.0246489
0.0247447
0.0247681
0.0247007
0.0244929
0.0240862
0.023089
0.0209027
0.0144999
0.0249042
0.0245979
0.0243459
0.0241798
0.0241087
0.0241223
0.0241881
0.0242548
0.0242686
0.0241843
0.0239737
0.0235677
0.0228912
0.0215484
0.0192023
0.0145034
0.0247398
0.0244274
0.0241585
0.0239673
0.0238698
0.0238553
0.0238861
0.0239049
0.0238542
0.0236873
0.023373
0.0228538
0.0220642
0.0207917
0.0188463
0.0160466
0.0246016
0.0242831
0.0240006
0.0237929
0.0236812
0.0236525
0.0236624
0.0236486
0.0235517
0.0233285
0.0229496
0.0223826
0.0215711
0.0204536
0.0188349
0.0169081
0.0245013
0.0241837
0.0238984
0.0236903
0.02358
0.023549
0.023547
0.0235092
0.023378
0.0231157
0.022697
0.0221095
0.0213056
0.0202948
0.0189087
0.0173606
0.0244482
0.0241404
0.0238699
0.0236795
0.0235816
0.0235522
0.0235385
0.0234779
0.023318
0.0230265
0.0225829
0.0219851
0.0211971
0.0202517
0.019037
0.0176985
0.0244279
0.0241456
0.0239084
0.0237507
0.0236739
0.0236487
0.0236237
0.0235427
0.0233603
0.0230496
0.0225943
0.0219945
0.0212256
0.0203181
0.019203
0.017967
0.0244028
0.0241611
0.0239625
0.0238411
0.0237918
0.0237803
0.0237559
0.0236675
0.0234763
0.0231593
0.0227044
0.0221093
0.0213559
0.0204624
0.0193747
0.0181536
0.0251574
0.0248546
0.0246201
0.024487
0.0244579
0.0245211
0.0246473
0.0247897
0.0248982
0.0249324
0.0248716
0.024663
0.0242429
0.0232096
0.0209505
0.0144112
0.0249796
0.0246721
0.0244218
0.0242618
0.0241993
0.0242225
0.0242983
0.0243748
0.0243974
0.0243196
0.0241117
0.0237016
0.0230104
0.0216323
0.0192264
0.0144315
0.0248082
0.0244943
0.0242262
0.0240392
0.0239475
0.0239398
0.0239777
0.0240036
0.0239588
0.0237955
0.0234814
0.0229567
0.0221537
0.0208537
0.0188669
0.0160126
0.0246633
0.0243429
0.0240603
0.0238546
0.0237462
0.0237219
0.023737
0.0237286
0.023636
0.0234151
0.0230353
0.0224632
0.021641
0.020505
0.018858
0.0168988
0.0245578
0.0242375
0.0239511
0.0237433
0.0236343
0.0236063
0.0236085
0.0235753
0.0234479
0.0231873
0.0227676
0.0221761
0.0213638
0.0203403
0.0189339
0.0173629
0.0244999
0.0241898
0.0239174
0.0237261
0.0236289
0.0236019
0.0235921
0.023536
0.0233795
0.0230896
0.0226451
0.0220439
0.0212492
0.0202942
0.0190643
0.0177081
0.0244775
0.0241922
0.023953
0.0237945
0.0237184
0.023696
0.0236751
0.0235983
0.0234192
0.0231099
0.0226539
0.0220511
0.0212764
0.0203611
0.0192338
0.017983
0.024451
0.0242069
0.0240067
0.0238852
0.0238374
0.0238293
0.0238092
0.0237251
0.023537
0.0232215
0.0227659
0.0221682
0.0214096
0.0205087
0.0194098
0.0181745
0.0251987
0.0248951