/*--------------------------------*- C++ -*----------------------------------*\
| =========                 |                                                 |
| \\      /  F ield         | foam-extend: Open Source CFD                    |
|  \\    /   O peration     | Version:     3.1                                |
|   \\  /    A nd           | Web:         http://www.extend-project.de       |
|    \\/     M anipulation  |                                                 |
\*---------------------------------------------------------------------------*/
FoamFile
{
    version     2.0;
    format      ascii;
    class       pointVectorField;
    location    "2";
    object      pointMotionU;
}
// * * * * * * * * * * * * * * * * * * * * * * * * * * * * * * * * * * * * * //

dimensions      [0 1 -1 0 0 0 0];

internalField   nonuniform List<vector> 
16859
(
(0 0 0)
(0 0 0)
(0 0 0)
(0 0 0)
(0 0 0)
(0 0 0)
(0 0 0)
(0 0 0)
(0 0 0)
(0 0 0)
(0 0 0)
(0 0 0)
(0 0 0)
(0 0 0)
(0 0 0)
(0 0 0)
(0 0 0)
(0 0 0)
(-2.96086e-11 3.61725e-11 1.16208e-11)
(-5.85562e-11 7.06594e-11 2.32302e-11)
(-8.80958e-11 1.04016e-10 3.5531e-11)
(-1.2049e-10 1.37715e-10 4.9582e-11)
(-1.58324e-10 1.73e-10 6.65351e-11)
(-2.0485e-10 2.10911e-10 8.77645e-11)
(-2.64433e-10 2.52277e-10 1.15021e-10)
(-3.43149e-10 2.97539e-10 1.50626e-10)
(-4.49637e-10 3.46474e-10 1.97733e-10)
(-5.96199e-10 3.9752e-10 2.6063e-10)
(-8.00117e-10 4.46537e-10 3.45027e-10)
(-1.08465e-09 4.84703e-10 4.58009e-10)
(-1.47769e-09 4.95493e-10 6.06612e-10)
(-2.00024e-09 4.53731e-10 7.91842e-10)
(-2.61718e-09 3.4361e-10 9.87523e-10)
(-4.9405e-09 -4.90639e-10 1.49735e-09)
(0 0 0)
(-5.74184e-11 7.08946e-11 2.27406e-11)
(-1.13414e-10 1.38472e-10 4.54257e-11)
(-1.70272e-10 2.03821e-10 6.93955e-11)
(-2.32194e-10 2.69827e-10 9.66737e-11)
(-3.03909e-10 3.38924e-10 1.2944e-10)
(-3.91283e-10 4.13214e-10 1.70268e-10)
(-5.02057e-10 4.94406e-10 2.22394e-10)
(-6.46849e-10 5.83656e-10 2.90065e-10)
(-8.40486e-10 6.8116e-10 3.78975e-10)
(-1.10364e-09 7.85253e-10 4.96776e-10)
(-1.46447e-09 8.90888e-10 6.53515e-10)
(-1.95886e-09 9.87182e-10 8.61413e-10)
(-2.62483e-09 1.05466e-09 1.13215e-09)
(-3.47724e-09 1.06625e-09 1.46621e-09)
(-4.43089e-09 1.00496e-09 1.8181e-09)
(-6.8945e-09 9.09819e-10 2.98089e-09)
(0 0 0)
(-8.18925e-11 1.02826e-10 3.29244e-11)
(-1.61431e-10 2.00815e-10 6.56907e-11)
(-2.41539e-10 2.95536e-10 1.00157e-10)
(-3.2778e-10 3.91147e-10 1.39142e-10)
(-4.26269e-10 4.91199e-10 1.85634e-10)
(-5.44383e-10 5.98801e-10 2.43094e-10)
(-6.91585e-10 7.16606e-10 3.15788e-10)
(-8.8048e-10 8.46768e-10 4.09197e-10)
(-1.12812e-09 9.90643e-10 5.30514e-10)
(-1.45747e-09 1.14815e-09 6.89197e-10)
(-1.89835e-09 1.31681e-09 8.97372e-10)
(-2.48614e-09 1.49018e-09 1.16932e-09)
(-3.25236e-09 1.65627e-09 1.51771e-09)
(-4.19301e-09 1.79693e-09 1.93985e-09)
(-5.19235e-09 1.88441e-09 2.37658e-09)
(-7.47046e-09 2.25782e-09 3.52793e-09)
(0 0 0)
(-1.01888e-10 1.30753e-10 4.18246e-11)
(-2.00304e-10 2.55311e-10 8.33174e-11)
(-2.98325e-10 3.75627e-10 1.26698e-10)
(-4.02171e-10 4.96956e-10 1.75365e-10)
(-5.18444e-10 6.23817e-10 2.3284e-10)
(-6.54758e-10 7.60161e-10 3.03089e-10)
(-8.20443e-10 9.09531e-10 3.90863e-10)
(-1.02731e-09 1.07511e-09 5.02071e-10)
(-1.2905e-09 1.25966e-09 6.44209e-10)
(-1.62917e-09 1.46541e-09 8.26802e-10)
(-2.06642e-09 1.69376e-09 1.06163e-09)
(-2.62696e-09 1.94475e-09 1.36203e-09)
(-3.32804e-09 2.21538e-09 1.73904e-09)
(-4.15369e-09 2.49327e-09 2.18768e-09)
(-4.99999e-09 2.72651e-09 2.64702e-09)
(-6.90194e-09 3.51273e-09 3.82815e-09)
(0 0 0)
(-1.16769e-10 1.53638e-10 4.92113e-11)
(-2.28797e-10 2.99928e-10 9.78463e-11)
(-3.38832e-10 4.41102e-10 1.48319e-10)
(-4.53058e-10 5.8328e-10 2.04373e-10)
(-5.77706e-10 7.31688e-10 2.69781e-10)
(-7.19504e-10 8.90905e-10 3.48641e-10)
(-8.86056e-10 1.06507e-09 4.45662e-10)
(-1.08614e-09 1.25806e-09 5.66436e-10)
(-1.32978e-09 1.47363e-09 7.17702e-10)
(-1.62791e-09 1.71562e-09 9.0753e-10)
(-1.99114e-09 1.9882e-09 1.14528e-09)
(-2.42693e-09 2.29573e-09 1.44083e-09)
(-2.93392e-09 2.64064e-09 1.80145e-09)
(-3.49033e-09 3.01248e-09 2.2217e-09)
(-4.03465e-09 3.34061e-09 2.652e-09)
(-5.5114e-09 4.36525e-09 3.88866e-09)
(0 0 0)
(-1.26421e-10 1.70658e-10 5.49791e-11)
(-2.4676e-10 3.33074e-10 1.0908e-10)
(-3.6304e-10 4.89632e-10 1.6475e-10)
(-4.80837e-10 6.47043e-10 2.25862e-10)
(-6.05373e-10 8.10944e-10 2.96186e-10)
(-7.4171e-10 9.86211e-10 3.7964e-10)
(-8.94776e-10 1.17717e-09 4.80486e-10)
(-1.06911e-09 1.38779e-09 6.03463e-10)
(-1.26816e-09 1.62188e-09 7.53825e-10)
(-1.49289e-09 1.88332e-09 9.37222e-10)
(-1.73938e-09 2.17626e-09 1.15926e-09)
(-1.99541e-09 2.50485e-09 1.42439e-09)
(-2.23732e-09 2.87063e-09 1.73333e-09)
(-2.4318e-09 3.26025e-09 2.07641e-09)
(-2.5578e-09 3.59584e-09 2.4153e-09)
(-3.32076e-09 4.66152e-09 3.4668e-09)
(0 0 0)
(-1.31195e-10 1.81245e-10 5.91408e-11)
(-2.55002e-10 3.53651e-10 1.17064e-10)
(-3.72453e-10 5.19647e-10 1.76118e-10)
(-4.88142e-10 6.86217e-10 2.4012e-10)
(-6.0593e-10 8.59125e-10 3.12646e-10)
(-7.28915e-10 1.0432e-09 3.9722e-10)
(-8.59141e-10 1.24251e-09 4.97418e-10)
(-9.96926e-10 1.46051e-09 6.16865e-10)
(-1.13963e-09 1.70005e-09 7.59075e-10)
(-1.27961e-09 1.96337e-09 9.27055e-10)
(-1.40111e-09 2.25183e-09 1.12249e-09)
(-1.47654e-09 2.56492e-09 1.34421e-09)
(-1.46442e-09 2.89707e-09 1.58524e-09)
(-1.31818e-09 3.22697e-09 1.82724e-09)
(-1.03772e-09 3.47921e-09 2.03191e-09)
(-3.26624e-10 3.98241e-09 2.47682e-09)
(0 0 0)
(-1.31794e-10 1.85076e-10 6.18066e-11)
(-2.55033e-10 3.61061e-10 1.22047e-10)
(-3.69652e-10 5.30334e-10 1.82869e-10)
(-4.79085e-10 6.9985e-10 2.47897e-10)
(-5.85784e-10 8.75236e-10 3.20387e-10)
(-6.91008e-10 1.061e-09 4.03362e-10)
(-7.94352e-10 1.26064e-09 4.99634e-10)
(-8.92926e-10 1.47662e-09 6.11714e-10)
(-9.7999e-10 1.71022e-09 7.41531e-10)
(-1.04292e-09 1.96111e-09 8.89901e-10)
(-1.06057e-09 2.22641e-09 1.0556e-09)
(-1.0007e-09 2.49886e-09 1.23379e-09)
(-8.20205e-10 2.7626e-09 1.4133e-09)
(-4.76319e-10 2.98359e-09 1.57221e-09)
(3.80084e-11 3.08329e-09 1.67307e-09)
(1.22508e-09 2.84428e-09 1.18488e-09)
(0 0 0)
(0 0 0)
(0 0 0)
(0 0 0)
(0 0 0)
(0 0 0)
(0 0 0)
(0 0 0)
(0 0 0)
(0 0 0)
(0 0 0)
(0 0 0)
(0 0 0)
(0 0 0)
(0 0 0)
(0 0 0)
(0 0 0)
(0 0 0)
(-3.0554e-11 3.78317e-11 1.12929e-11)
(-6.04907e-11 7.39467e-11 2.25676e-11)
(-9.11775e-11 1.08983e-10 3.45031e-11)
(-1.25038e-10 1.44538e-10 4.81269e-11)
(-1.64853e-10 1.81965e-10 6.4559e-11)
(-2.14135e-10 2.22402e-10 8.51402e-11)
(-2.77598e-10 2.66744e-10 1.11587e-10)
(-3.61799e-10 3.15462e-10 1.46198e-10)
(-4.75999e-10 3.68221e-10 1.92123e-10)
(-6.33257e-10 4.23064e-10 2.53723e-10)
(-8.51609e-10 4.74814e-10 3.36959e-10)
(-1.15467e-09 5.12152e-10 4.49586e-10)
(-1.56922e-09 5.12956e-10 6.00215e-10)
(-2.11005e-09 4.4108e-10 7.92658e-10)
(-2.70474e-09 2.72569e-10 9.9921e-10)
(-4.32385e-09 -1.01065e-09 1.44547e-09)
(0 0 0)
(-5.92103e-11 7.41437e-11 2.20966e-11)
(-1.17074e-10 1.44909e-10 4.41242e-11)
(-1.76086e-10 2.13546e-10 6.7377e-11)
(-2.40743e-10 2.83188e-10 9.38168e-11)
(-3.1613e-10 3.56493e-10 1.2556e-10)
(-4.08572e-10 4.35755e-10 1.65111e-10)
(-5.2643e-10 5.22855e-10 2.15637e-10)
(-6.81146e-10 6.19057e-10 2.8132e-10)
(-8.88595e-10 7.24509e-10 3.67824e-10)
(-1.17065e-09 8.3716e-10 4.82872e-10)
(-1.55646e-09 9.5084e-10 6.36844e-10)
(-2.08164e-09 1.05206e-09 8.42901e-10)
(-2.77979e-09 1.11603e-09 1.11493e-09)
(-3.6493e-09 1.10718e-09 1.45712e-09)
(-4.53844e-09 1.00773e-09 1.81917e-09)
(-6.01989e-09 5.65194e-10 2.65319e-09)
(0 0 0)
(-8.43497e-11 1.07533e-10 3.19865e-11)
(-1.66435e-10 2.10138e-10 6.37963e-11)
(-2.49451e-10 3.09616e-10 9.72197e-11)
(-3.39343e-10 4.10498e-10 1.34986e-10)
(-4.42675e-10 5.16658e-10 1.79991e-10)
(-5.67392e-10 6.31507e-10 2.35589e-10)
(-7.23696e-10 7.57991e-10 3.05935e-10)
(-9.25148e-10 8.98544e-10 3.96389e-10)
(-1.18997e-09 1.05473e-09 5.14043e-10)
(-1.54234e-09 1.22655e-09 6.68332e-10)
(-2.01282e-09 1.41132e-09 8.71577e-10)
(-2.63548e-09 1.60199e-09 1.1388e-09)
(-3.43455e-09 1.78571e-09 1.48456e-09)
(-4.38305e-09 1.94462e-09 1.90907e-09)
(-5.29063e-09 2.05823e-09 2.34514e-09)
(-6.5615e-09 2.19222e-09 3.19356e-09)
(0 0 0)
(-1.04773e-10 1.36721e-10 4.06247e-11)
(-2.06155e-10 2.6713e-10 8.08949e-11)
(-3.07516e-10 3.93481e-10 1.22946e-10)
(-4.15486e-10 5.21493e-10 1.7006e-10)
(-5.3713e-10 6.56098e-10 2.25638e-10)
(-6.80628e-10 8.01657e-10 2.93511e-10)
(-8.56006e-10 9.6214e-10 3.78267e-10)
(-1.07593e-09 1.14121e-09 4.85631e-10)
(-1.3565e-09 1.3422e-09 6.22898e-10)
(-1.71772e-09 1.56808e-09 7.99401e-10)
(-2.18289e-09 1.82135e-09 1.02684e-09)
(-2.77472e-09 2.10408e-09 1.31882e-09)
(-3.50299e-09 2.41731e-09 1.68747e-09)
(-4.33098e-09 2.75642e-09 2.12964e-09)
(-5.09316e-09 3.07912e-09 2.57493e-09)
(-6.03648e-09 3.65785e-09 3.42472e-09)
(0 0 0)
(-1.19823e-10 1.60623e-10 4.77884e-11)
(-2.34956e-10 3.13763e-10 9.49761e-11)
(-3.4842e-10 4.61997e-10 1.43878e-10)
(-4.66782e-10 6.11976e-10 1.98104e-10)
(-5.9668e-10 7.69413e-10 2.6128e-10)
(-7.453e-10 9.39374e-10 3.37342e-10)
(-9.20768e-10 1.12655e-09 4.30796e-10)
(-1.13241e-09 1.33546e-09 5.46989e-10)
(-1.39074e-09 1.57071e-09 6.92346e-10)
(-1.70681e-09 1.83742e-09 8.74567e-10)
(-2.09055e-09 2.14189e-09 1.10261e-09)
(-2.5468e-09 2.49251e-09 1.38603e-09)
(-3.06775e-09 2.89955e-09 1.7324e-09)
(-3.61792e-09 3.3664e-09 2.13718e-09)
(-4.10052e-09 3.83621e-09 2.54203e-09)
(-4.66126e-09 4.76823e-09 3.39289e-09)
(0 0 0)
(-1.29394e-10 1.78387e-10 5.33772e-11)
(-2.52714e-10 3.48376e-10 1.05852e-10)
(-3.72199e-10 5.12728e-10 1.59764e-10)
(-4.93737e-10 6.78718e-10 2.18837e-10)
(-6.22845e-10 8.52515e-10 2.86682e-10)
(-7.6488e-10 1.03954e-09 3.67033e-10)
(-9.25022e-10 1.24471e-09 4.63922e-10)
(-1.10794e-09 1.47274e-09 5.81795e-10)
(-1.31693e-09 1.72836e-09 7.25516e-10)
(-1.55217e-09 2.01688e-09 9.00214e-10)
(-1.80777e-09 2.34488e-09 1.11081e-09)
(-2.0675e-09 2.72112e-09 1.36098e-09)
(-2.30059e-09 3.15634e-09 1.65083e-09)
(-2.46377e-09 3.65434e-09 1.9707e-09)
(-2.52942e-09 4.15747e-09 2.27646e-09)
(-2.43e-09 5.3645e-09 2.97446e-09)
(0 0 0)
(-1.33875e-10 1.89418e-10 5.74056e-11)
(-2.60317e-10 3.69824e-10 1.13572e-10)
(-3.80501e-10 5.44032e-10 1.70737e-10)
(-4.9923e-10 7.19606e-10 2.3256e-10)
(-6.20532e-10 9.02851e-10 3.02453e-10)
(-7.47604e-10 1.09914e-09 3.83746e-10)
(-8.82463e-10 1.31316e-09 4.79778e-10)
(-1.02514e-09 1.549e-09 5.93862e-10)
(-1.17223e-09 1.81037e-09 7.29093e-10)
(-1.31441e-09 2.10064e-09 8.87899e-10)
(-1.43272e-09 2.42306e-09 1.07117e-09)
(-1.49378e-09 2.78062e-09 1.27671e-09)
(-1.44658e-09 3.17505e-09 1.49639e-09)
(-1.23254e-09 3.60007e-09 1.71102e-09)
(-8.63379e-10 4.00441e-09 1.88022e-09)
(7.41901e-10 4.89775e-09 2.15671e-09)
(0 0 0)
(-1.34022e-10 1.93383e-10 5.99827e-11)
(-2.5939e-10 3.77491e-10 1.18384e-10)
(-3.76102e-10 5.55076e-10 1.77238e-10)
(-4.87699e-10 7.33673e-10 2.40016e-10)
(-5.96663e-10 9.19425e-10 3.09809e-10)
(-7.04181e-10 1.11736e-09 3.89453e-10)
(-8.09592e-10 1.33149e-09 4.81532e-10)
(-9.09403e-10 1.56484e-09 5.88259e-10)
(-9.95684e-10 1.81926e-09 7.11172e-10)
(-1.05363e-09 2.095e-09 8.50564e-10)
(-1.05828e-09 2.39003e-09 1.00452e-09)
(-9.70897e-10 2.69834e-09 1.16736e-09)
(-7.37872e-10 3.00648e-09 1.32713e-09)
(-3.01914e-10 3.2851e-09 1.46184e-09)
(3.50442e-10 3.46296e-09 1.53584e-09)
(2.44432e-09 3.75383e-09 1.24861e-09)
(0 0 0)
(0 0 0)
(0 0 0)
(0 0 0)
(0 0 0)
(0 0 0)
(0 0 0)
(0 0 0)
(0 0 0)
(0 0 0)
(0 0 0)
(0 0 0)
(0 0 0)
(0 0 0)
(0 0 0)
(0 0 0)
(0 0 0)
(0 0 0)
(-3.14276e-11 3.9369e-11 1.05467e-11)
(-6.22794e-11 7.69931e-11 2.10685e-11)
(-9.4025e-11 1.13581e-10 3.21926e-11)
(-1.29229e-10 1.50836e-10 4.48693e-11)
(-1.70839e-10 1.90201e-10 6.01302e-11)
(-2.22577e-10 2.3289e-10 7.92018e-11)
(-2.89416e-10 2.79829e-10 1.03642e-10)
(-3.78217e-10 3.31469e-10 1.35509e-10)
(-4.98525e-10 3.87319e-10 1.77584e-10)
(-6.63465e-10 4.45006e-10 2.33617e-10)
(-8.90405e-10 4.98473e-10 3.08531e-10)
(-1.20034e-09 5.3474e-10 4.08231e-10)
(-1.61296e-09 5.29166e-10 5.38002e-10)
(-2.12826e-09 4.43713e-10 6.96332e-10)
(-2.66096e-09 2.58974e-10 8.54517e-10)
(-4.13863e-09 -9.06563e-10 1.17862e-09)
(0 0 0)
(-6.08668e-11 7.71543e-11 2.06346e-11)
(-1.20461e-10 1.50876e-10 4.11891e-11)
(-1.81465e-10 2.22552e-10 6.28573e-11)
(-2.48635e-10 2.95523e-10 8.74527e-11)
(-3.27362e-10 3.72639e-10 1.16922e-10)
(-4.24347e-10 4.56333e-10 1.53552e-10)
(-5.48419e-10 5.48587e-10 2.00204e-10)
(-7.11559e-10 6.50678e-10 2.60611e-10)
(-9.30147e-10 7.62556e-10 3.39728e-10)
(-1.22617e-09 8.81611e-10 4.44121e-10)
(-1.62761e-09 1.00042e-09 5.82184e-10)
(-2.16544e-09 1.10312e-09 7.63536e-10)
(-2.86098e-09 1.16119e-09 9.95654e-10)
(-3.68773e-09 1.13534e-09 1.27234e-09)
(-4.47471e-09 1.01109e-09 1.54036e-09)
(-5.6578e-09 5.98791e-10 2.01731e-09)
(0 0 0)
(-8.66233e-11 1.11895e-10 2.98661e-11)
(-1.71071e-10 2.18781e-10 5.95432e-11)
(-2.56785e-10 3.22657e-10 9.06808e-11)
(-3.50047e-10 4.28366e-10 1.25799e-10)
(-4.57815e-10 5.40061e-10 1.67554e-10)
(-5.88507e-10 6.61372e-10 2.18999e-10)
(-7.52904e-10 7.95444e-10 2.83868e-10)
(-9.65233e-10 9.44816e-10 3.66901e-10)
(-1.24433e-09 1.11098e-09 4.7422e-10)
(-1.61454e-09 1.29354e-09 6.13671e-10)
(-2.10513e-09 1.48877e-09 7.94862e-10)
(-2.74499e-09 1.68747e-09 1.02801e-09)
(-3.54484e-09 1.8727e-09 1.31912e-09)
(-4.45117e-09 2.02023e-09 1.65527e-09)
(-5.25496e-09 2.1062e-09 1.96748e-09)
(-6.25879e-09 2.18722e-09 2.42272e-09)
(0 0 0)
(-1.07446e-10 1.42256e-10 3.79251e-11)
(-2.11586e-10 2.78094e-10 7.54873e-11)
(-3.16056e-10 4.1002e-10 1.14649e-10)
(-4.27858e-10 5.44159e-10 1.58437e-10)
(-5.54469e-10 6.85785e-10 2.09963e-10)
(-7.04559e-10 8.39581e-10 2.72694e-10)
(-8.88734e-10 1.0098e-09 3.50722e-10)
(-1.12031e-09 1.20037e-09 4.49042e-10)
(-1.41597e-09 1.41475e-09 5.73813e-10)
(-1.79593e-09 1.65585e-09 7.32523e-10)
(-2.28246e-09 1.92568e-09 9.33731e-10)
(-2.89418e-09 2.22471e-09 1.18554e-09)
(-3.63032e-09 2.54992e-09 1.49047e-09)
(-4.43389e-09 2.88713e-09 1.83113e-09)
(-5.12476e-09 3.18261e-09 2.1367e-09)
(-5.96128e-09 3.65564e-09 2.53954e-09)
(0 0 0)
(-1.22656e-10 1.67107e-10 4.46046e-11)
(-2.40684e-10 3.26604e-10 8.86087e-11)
(-3.57358e-10 4.81361e-10 1.34135e-10)
(-4.79598e-10 6.38499e-10 1.84505e-10)
(-6.14417e-10 8.04137e-10 2.43026e-10)
(-7.69423e-10 9.83729e-10 3.13237e-10)
(-9.53221e-10 1.18234e-09 3.99113e-10)
(-1.17563e-09 1.40488e-09 5.05226e-10)
(-1.44757e-09 1.65629e-09 6.36819e-10)
(-1.78023e-09 1.94193e-09 7.99681e-10)
(-2.18279e-09 2.26807e-09 9.99554e-10)
(-2.65773e-09 2.64213e-09 1.24043e-09)
(-3.19164e-09 3.07057e-09 1.52019e-09)
(-3.73904e-09 3.54546e-09 1.81987e-09)
(-4.19506e-09 3.99289e-09 2.07976e-09)
(-4.87608e-09 4.7781e-09 2.40921e-09)
(0 0 0)
(-1.32157e-10 1.85563e-10 4.98122e-11)
(-2.58264e-10 3.62581e-10 9.87353e-11)
(-3.80771e-10 5.34139e-10 1.48909e-10)
(-5.05859e-10 7.08011e-10 2.03753e-10)
(-6.39338e-10 8.90822e-10 2.66545e-10)
(-7.86864e-10 1.08841e-09 3.40622e-10)
(-9.53915e-10 1.30615e-09 4.29489e-10)
(-1.1454e-09 1.54916e-09 5.36839e-10)
(-1.36471e-09 1.82263e-09 6.6641e-10)
(-1.6118e-09 2.1322e-09 8.21546e-10)
(-1.88006e-09 2.48459e-09 1.00424e-09)
(-2.15185e-09 2.88785e-09 1.2132e-09)
(-2.39447e-09 3.34918e-09 1.44016e-09)
(-2.56336e-09 3.8614e-09 1.66327e-09)
(-2.63068e-09 4.34913e-09 1.83759e-09)
(-2.84312e-09 5.37623e-09 2.00877e-09)
(0 0 0)
(-1.3637e-10 1.97007e-10 5.35632e-11)
(-2.65284e-10 3.84839e-10 1.05918e-10)
(-3.88068e-10 5.66645e-10 1.59103e-10)
(-5.09735e-10 7.50505e-10 2.16473e-10)
(-6.34495e-10 9.43183e-10 2.81114e-10)
(-7.65699e-10 1.1505e-09 3.55977e-10)
(-9.05448e-10 1.37756e-09 4.43913e-10)
(-1.05373e-09 1.62889e-09 5.47558e-10)
(-1.20686e-09 1.90853e-09 6.6902e-10)
(-1.35484e-09 2.2201e-09 8.09221e-10)
(-1.47754e-09 2.56672e-09 9.66678e-10)
(-1.54003e-09 2.95033e-09 1.13538e-09)
(-1.49022e-09 3.36891e-09 1.30138e-09)
(-1.27162e-09 3.80646e-09 1.43845e-09)
(-9.01814e-10 4.1975e-09 1.51057e-09)
(4.59377e-10 4.86834e-09 1.38477e-09)
(0 0 0)
(-1.36098e-10 2.01094e-10 5.59611e-11)
(-2.63475e-10 3.92742e-10 1.10391e-10)
(-3.82208e-10 5.78026e-10 1.65136e-10)
(-4.95955e-10 7.6499e-10 2.23371e-10)
(-6.0727e-10 9.6022e-10 2.87886e-10)
(-7.1735e-10 1.16916e-09 3.6117e-10)
(-8.25432e-10 1.39623e-09 4.45383e-10)
(-9.27735e-10 1.64476e-09 5.42171e-10)
(-1.01573e-09 1.91679e-09 6.52276e-10)
(-1.07358e-09 2.21252e-09 7.7484e-10)
(-1.07469e-09 2.52928e-09 9.06256e-10)
(-9.78137e-10 2.85925e-09 1.03843e-09)
(-7.28164e-10 3.1844e-09 1.15645e-09)
(-2.66846e-10 3.46584e-09 1.23691e-09)
(4.20439e-10 3.61833e-09 1.2534e-09)
(2.36806e-09 3.60736e-09 9.14322e-10)
(0 0 0)
(0 0 0)
(0 0 0)
(0 0 0)
(0 0 0)
(0 0 0)
(0 0 0)
(0 0 0)
(0 0 0)
(0 0 0)
(0 0 0)
(0 0 0)
(0 0 0)
(0 0 0)
(0 0 0)
(0 0 0)
(0 0 0)
(0 0 0)
(-3.22099e-11 4.0739e-11 9.41694e-12)
(-6.38822e-11 7.97079e-11 1.88035e-11)
(-9.6576e-11 1.17672e-10 2.87105e-11)
(-1.32978e-10 1.5642e-10 3.99727e-11)
(-1.76178e-10 1.97469e-10 5.34866e-11)
(-2.30067e-10 2.42076e-10 7.0302e-11)
(-2.9982e-10 2.91183e-10 9.17238e-11)
(-3.92507e-10 3.45185e-10 1.19428e-10)
(-5.17818e-10 4.03417e-10 1.55588e-10)
(-6.88765e-10 4.63137e-10 2.02965e-10)
(-9.21953e-10 5.17644e-10 2.64861e-10)
(-1.23629e-09 5.53103e-10 3.44589e-10)
(-1.64744e-09 5.44424e-10 4.43735e-10)
(-2.15081e-09 4.55463e-10 5.57549e-10)
(-2.66469e-09 2.73018e-10 6.63499e-10)
(-4.17087e-09 -8.18854e-10 8.75708e-10)
(0 0 0)
(-6.23511e-11 7.98374e-11 1.8423e-11)
(-1.23498e-10 1.56192e-10 3.67582e-11)
(-1.8629e-10 2.30563e-10 5.60533e-11)
(-2.55707e-10 3.06463e-10 7.79002e-11)
(-3.37404e-10 3.86882e-10 1.03989e-10)
(-4.38396e-10 4.74359e-10 1.36272e-10)
(-5.67881e-10 5.70917e-10 1.77139e-10)
(-7.3824e-10 6.77763e-10 2.29607e-10)
(-9.66152e-10 7.94581e-10 2.97506e-10)
(-1.27351e-09 9.18146e-10 3.85576e-10)
(-1.68711e-09 1.03993e-09 4.99229e-10)
(-2.23466e-09 1.14243e-09 6.43337e-10)
(-2.93093e-09 1.19565e-09 8.18635e-10)
(-3.74192e-09 1.1614e-09 1.01305e-09)
(-4.50141e-09 1.03252e-09 1.18438e-09)
(-5.69926e-09 6.65674e-10 1.42626e-09)
(0 0 0)
(-8.86626e-11 1.15782e-10 2.66623e-11)
(-1.75235e-10 2.26481e-10 5.31318e-11)
(-2.63376e-10 3.34262e-10 8.08541e-11)
(-3.59669e-10 4.44215e-10 1.12039e-10)
(-4.71411e-10 5.60709e-10 1.48989e-10)
(-6.07429e-10 6.87539e-10 1.94302e-10)
(-7.78993e-10 8.2795e-10 2.51072e-10)
(-1.00086e-09 9.84454e-10 3.23089e-10)
(-1.29234e-09 1.15828e-09 4.14986e-10)
(-1.67787e-09 1.34837e-09 5.32216e-10)
(-2.18582e-09 1.54965e-09 6.80511e-10)
(-2.84208e-09 1.75061e-09 8.63981e-10)
(-3.65146e-09 1.93122e-09 1.08015e-09)
(-4.55391e-09 2.06516e-09 1.30925e-09)
(-5.34491e-09 2.13344e-09 1.4977e-09)
(-6.41128e-09 2.19917e-09 1.68704e-09)
(0 0 0)
(-1.09848e-10 1.4719e-10 3.38527e-11)
(-2.16474e-10 2.87867e-10 6.73498e-11)
(-3.23756e-10 4.24744e-10 1.02209e-10)
(-4.39027e-10 5.64268e-10 1.4108e-10)
(-5.70138e-10 7.11994e-10 1.86653e-10)
(-7.262e-10 8.72835e-10 2.41862e-10)
(-9.18347e-10 1.05122e-09 3.10068e-10)
(-1.1605e-09 1.25111e-09 3.95188e-10)
(-1.46993e-09 1.47583e-09 5.01723e-10)
(-1.8673e-09 1.72767e-09 6.34523e-10)
(-2.37475e-09 2.00727e-09 7.97924e-10)
(-3.00977e-09 2.31233e-09 9.93449e-10)
(-3.76928e-09 2.63501e-09 1.21461e-09)
(-4.59493e-09 2.95524e-09 1.43714e-09)
(-5.31051e-09 3.22088e-09 1.6078e-09)
(-6.31564e-09 3.62204e-09 1.73247e-09)
(0 0 0)
(-1.25208e-10 1.72891e-10 3.98097e-11)
(-2.45855e-10 3.38056e-10 7.90452e-11)
(-3.6545e-10 4.98607e-10 1.1956e-10)
(-4.91235e-10 6.62046e-10 1.64258e-10)
(-6.30581e-10 8.34826e-10 2.1599e-10)
(-7.91507e-10 1.02269e-09 2.77731e-10)
(-9.83105e-10 1.23094e-09 3.52701e-10)
(-1.21577e-09 1.46461e-09 4.44384e-10)
(-1.50105e-09 1.72861e-09 5.56379e-10)
(-1.85083e-09 2.02782e-09 6.9191e-10)
(-2.27509e-09 2.3672e-09 8.52674e-10)
(-2.77745e-09 2.7512e-09 1.03644e-09)
(-3.347e-09 3.18027e-09 1.23262e-09)
(-3.94396e-09 3.63751e-09 1.41573e-09)
(-4.46768e-09 4.04734e-09 1.54261e-09)
(-5.44762e-09 4.71003e-09 1.59658e-09)
(0 0 0)
(-1.34652e-10 1.91966e-10 4.4452e-11)
(-2.63292e-10 3.75254e-10 8.8067e-11)
(-3.8857e-10 5.53213e-10 1.32708e-10)
(-5.16951e-10 7.34042e-10 1.81361e-10)
(-6.54539e-10 9.24729e-10 2.36841e-10)
(-8.07322e-10 1.13144e-09 3.01931e-10)
(-9.81156e-10 1.35982e-09 3.79419e-10)
(-1.1814e-09 1.61519e-09 4.71992e-10)
(-1.41197e-09 1.90274e-09 5.81911e-10)
(-1.67355e-09 2.22774e-09 7.10281e-10)
(-1.96078e-09 2.59569e-09 8.55654e-10)
(-2.25859e-09 3.0116e-09 1.0116e-09)
(-2.54009e-09 3.47623e-09 1.1631e-09)
(-2.77155e-09 3.97184e-09 1.28357e-09)
(-2.93039e-09 4.41862e-09 1.34281e-09)
(-3.53075e-09 5.28333e-09 1.28467e-09)
(0 0 0)
(-1.38628e-10 2.03779e-10 4.77946e-11)
(-2.69803e-10 3.98237e-10 9.4464e-11)
(-3.95e-10 5.868e-10 1.41777e-10)
(-5.19445e-10 7.77985e-10 1.92658e-10)
(-6.47563e-10 9.78938e-10 2.4975e-10)
(-7.82924e-10 1.19581e-09 3.15493e-10)
(-9.27862e-10 1.434e-09 3.92097e-10)
(-1.08262e-09 1.69822e-09 4.8134e-10)
(-1.24382e-09 1.99251e-09 5.84112e-10)
(-1.40197e-09 2.32011e-09 6.99555e-10)
(-1.53801e-09 2.68288e-09 8.23581e-10)
(-1.61962e-09 3.07972e-09 9.46516e-10)
(-1.6009e-09 3.50219e-09 1.05005e-09)
(-1.43701e-09 3.92352e-09 1.10601e-09)
(-1.15183e-09 4.27199e-09 1.09172e-09)
(-1.2346e-10 4.74252e-09 8.35063e-10)
(0 0 0)
(-1.37984e-10 2.07976e-10 4.99308e-11)
(-2.67212e-10 4.06354e-10 9.8446e-11)
(-3.87852e-10 5.98493e-10 1.47143e-10)
(-5.03697e-10 7.92865e-10 1.98786e-10)
(-6.17424e-10 9.96436e-10 2.55755e-10)
(-7.30334e-10 1.21497e-09 3.20093e-10)
(-8.41745e-10 1.45314e-09 3.9342e-10)
(-9.47936e-10 1.71443e-09 4.76695e-10)
(-1.04044e-09 2.0008e-09 5.6973e-10)
(-1.10357e-09 2.31196e-09 6.70377e-10)
(-1.11128e-09 2.64389e-09 7.73258e-10)
(-1.02432e-09 2.98569e-09 8.68016e-10)
(-7.9094e-10 3.31319e-09 9.37574e-10)
(-3.60501e-10 3.57727e-09 9.58909e-10)
(2.78767e-10 3.68284e-09 9.15638e-10)
(1.97007e-09 3.4481e-09 4.66307e-10)
(0 0 0)
(0 0 0)
(0 0 0)
(0 0 0)
(0 0 0)
(0 0 0)
(0 0 0)
(0 0 0)
(0 0 0)
(0 0 0)
(0 0 0)
(0 0 0)
(0 0 0)
(0 0 0)
(0 0 0)
(0 0 0)
(0 0 0)
(0 0 0)
(-3.28824e-11 4.19061e-11 7.95221e-12)
(-6.52602e-11 8.20181e-11 1.58712e-11)
(-9.87697e-11 1.21146e-10 2.42132e-11)
(-1.36201e-10 1.61147e-10 3.36684e-11)
(-1.80762e-10 2.03588e-10 4.49677e-11)
(-2.36487e-10 2.49759e-10 5.8948e-11)
(-3.08717e-10 3.00594e-10 7.66182e-11)
(-4.04697e-10 3.56421e-10 9.92207e-11)
(-5.3425e-10 4.16413e-10 1.28272e-10)
(-7.10378e-10 4.77523e-10 1.65534e-10)
(-9.49358e-10 5.32614e-10 2.12822e-10)
(-1.2693e-09 5.6744e-10 2.71428e-10)
(-1.68484e-09 5.57083e-10 3.40812e-10)
(-2.19152e-09 4.67148e-10 4.16044e-10)
(-2.71077e-09 2.874e-10 4.82462e-10)
(-4.27223e-09 -7.82056e-10 6.21912e-10)
(0 0 0)
(-6.36277e-11 8.21227e-11 1.55566e-11)
(-1.26112e-10 1.60717e-10 3.10244e-11)
(-1.90444e-10 2.37368e-10 4.72701e-11)
(-2.61798e-10 3.15722e-10 6.56098e-11)
(-3.46051e-10 3.98877e-10 8.74196e-11)
(-4.50484e-10 4.89436e-10 1.14253e-10)
(-5.84612e-10 5.89425e-10 1.47949e-10)
(-7.61163e-10 6.99949e-10 1.90725e-10)
(-9.97125e-10 8.20403e-10 2.45213e-10)
(-1.3145e-09 9.47019e-10 3.14343e-10)
(-1.73977e-09 1.07041e-09 4.00866e-10)
(-2.29961e-09 1.17205e-09 5.06106e-10)
(-3.00746e-09 1.22152e-09 6.27255e-10)
(-3.82957e-09 1.18232e-09 7.52554e-10)
(-4.60318e-09 1.05168e-09 8.54543e-10)
(-5.87131e-09 6.98714e-10 9.8428e-10)
(0 0 0)
(-9.04191e-11 1.19093e-10 2.25124e-11)
(-1.78824e-10 2.33037e-10 4.48404e-11)
(-2.69065e-10 3.4412e-10 6.81789e-11)
(-3.67981e-10 4.57633e-10 9.43533e-11)
(-4.83169e-10 5.78103e-10 1.25235e-10)
(-6.23811e-10 7.09436e-10 1.62883e-10)
(-8.01612e-10 8.54913e-10 2.09661e-10)
(-1.03184e-09 1.01694e-09 2.68314e-10)
(-1.33432e-09 1.19642e-09 3.41926e-10)
(-1.73394e-09 1.39159e-09 4.33652e-10)
(-2.25923e-09 1.59616e-09 5.45908e-10)
(-2.93594e-09 1.79689e-09 6.78517e-10)
(-3.76875e-09 1.97196e-09 8.25071e-10)
(-4.69911e-09 2.09493e-09 9.67353e-10)
(-5.5238e-09 2.15142e-09 1.07146e-09)
(-6.7075e-09 2.20128e-09 1.14622e-09)
(0 0 0)
(-1.11921e-10 1.51395e-10 2.85812e-11)
(-2.20699e-10 2.96189e-10 5.68346e-11)
(-3.30423e-10 4.37256e-10 8.61772e-11)
(-4.48721e-10 5.81301e-10 1.18796e-10)
(-5.83776e-10 7.3409e-10 1.56873e-10)
(-7.45103e-10 9.00694e-10 2.02722e-10)
(-9.44339e-10 1.08563e-09 2.5888e-10)
(-1.19602e-09 1.29278e-09 3.28112e-10)
(-1.51818e-09 1.52518e-09 4.13251e-10)
(-1.93236e-09 1.78438e-09 5.16722e-10)
(-2.46179e-09 2.0696e-09 6.39453e-10)
(-3.12552e-09 2.37615e-09 7.78725e-10)
(-3.92318e-09 2.69298e-09 9.2456e-10)
(-4.80068e-09 2.99759e-09 1.05548e-09)
(-5.57988e-09 3.24196e-09 1.13984e-09)
(-6.77318e-09 3.59949e-09 1.15859e-09)
(0 0 0)
(-1.27417e-10 1.77822e-10 3.36078e-11)
(-2.50339e-10 3.4781e-10 6.66981e-11)
(-3.72488e-10 5.13269e-10 1.00797e-10)
(-5.01398e-10 6.82008e-10 1.383e-10)
(-6.44771e-10 8.60731e-10 1.81509e-10)
(-8.11026e-10 1.05539e-09 2.32758e-10)
(-1.00976e-09 1.27141e-09 2.94436e-10)
(-1.25204e-09 1.51382e-09 3.689e-10)
(-1.5503e-09 1.7873e-09 4.58169e-10)
(-1.91769e-09 2.09606e-09 5.63241e-10)
(-2.3662e-09 2.44364e-09 6.82797e-10)
(-2.9028e-09 2.83182e-09 8.11066e-10)
(-3.52238e-09 3.25696e-09 9.35014e-10)
(-4.19264e-09 3.69804e-09 1.03299e-09)
(-4.80834e-09 4.08239e-09 1.08258e-09)
(-6.04614e-09 4.68567e-09 1.05198e-09)
(0 0 0)
(-1.36819e-10 1.97427e-10 3.75241e-11)
(-2.67671e-10 3.86054e-10 7.43051e-11)
(-3.95394e-10 5.69443e-10 1.11874e-10)
(-5.26715e-10 7.56131e-10 1.52688e-10)
(-6.68035e-10 9.53393e-10 1.99019e-10)
(-8.25691e-10 1.16763e-09 2.53027e-10)
(-1.00599e-09 1.40466e-09 3.16733e-10)
(-1.21491e-09 1.66983e-09 3.91825e-10)
(-1.45725e-09 1.96818e-09 4.79219e-10)
(-1.73511e-09 2.30442e-09 5.78211e-10)
(-2.04552e-09 2.68276e-09 6.85055e-10)
(-2.37775e-09 3.10573e-09 7.90912e-10)
(-2.71228e-09 3.57003e-09 8.79877e-10)
(-3.02439e-09 4.05348e-09 9.30525e-10)
(-3.28547e-09 4.47806e-09 9.31502e-10)
(-4.17395e-09 5.2884e-09 8.38025e-10)
(0 0 0)
(-1.40599e-10 2.09556e-10 4.03437e-11)
(-2.73761e-10 4.0966e-10 7.96986e-11)
(-4.01111e-10 6.03961e-10 1.19514e-10)
(-5.28087e-10 8.0133e-10 1.62196e-10)
(-6.59345e-10 1.00922e-09 2.09867e-10)
(-7.98728e-10 1.23402e-09 2.64407e-10)
(-9.48922e-10 1.48131e-09 3.27364e-10)
(-1.11066e-09 1.75586e-09 3.99696e-10)
(-1.28131e-09 2.06161e-09 4.81252e-10)
(-1.45262e-09 2.4013e-09 5.69863e-10)
(-1.60776e-09 2.77567e-09 6.59925e-10)
(-1.71847e-09 3.18146e-09 7.40489e-10)
(-1.74556e-09 3.60683e-09 7.93698e-10)
(-1.65196e-09 4.02157e-09 7.97199e-10)
(-1.45466e-09 4.35618e-09 7.44284e-10)
(-6.47844e-10 4.81166e-09 5.28273e-10)
(0 0 0)
(-1.39639e-10 2.1385e-10 4.2146e-11)
(-2.70511e-10 4.17968e-10 8.30571e-11)
(-3.92882e-10 6.15933e-10 1.24038e-10)
(-5.10696e-10 8.16575e-10 1.67361e-10)
(-6.26787e-10 1.02716e-09 2.14935e-10)
(-7.42637e-10 1.25368e-09 2.68315e-10)
(-8.578e-10 1.50099e-09 3.28584e-10)
(-9.68886e-10 1.77262e-09 3.96075e-10)
(-1.06796e-09 2.0704e-09 4.69859e-10)
(-1.14024e-09 2.39357e-09 5.46928e-10)
(-1.16136e-09 2.73705e-09 6.2102e-10)
(-1.09504e-09 3.08793e-09 6.8125e-10)
(-8.94264e-10 3.4189e-09 7.11399e-10)
(-5.13177e-10 3.67734e-09 6.92796e-10)
(6.49257e-11 3.76716e-09 6.1869e-10)
(1.68443e-09 3.57593e-09 1.69056e-10)
(0 0 0)
(0 0 0)
(0 0 0)
(0 0 0)
(0 0 0)
(0 0 0)
(0 0 0)
(0 0 0)
(0 0 0)
(0 0 0)
(0 0 0)
(0 0 0)
(0 0 0)
(0 0 0)
(0 0 0)
(0 0 0)
(0 0 0)
(0 0 0)
(-3.34271e-11 4.28406e-11 6.21109e-12)
(-6.63773e-11 8.38662e-11 1.23906e-11)
(-1.00549e-10 1.2392e-10 1.88877e-11)
(-1.38816e-10 1.64908e-10 2.62299e-11)
(-1.84486e-10 2.08436e-10 3.49666e-11)
(-2.41707e-10 2.55811e-10 4.5712e-11)
(-3.15961e-10 3.07953e-10 5.91805e-11)
(-4.14653e-10 3.65128e-10 7.6209e-11)
(-5.4776e-10 4.2637e-10 9.77462e-11)
(-7.28399e-10 4.88414e-10 1.24775e-10)
(-9.72863e-10 5.43832e-10 1.58102e-10)
(-1.29917e-09 5.78158e-10 1.97934e-10)
(-1.72195e-09 5.66632e-10 2.43154e-10)
(-2.23708e-09 4.75736e-10 2.90239e-10)
(-2.76583e-09 2.96313e-10 3.3088e-10)
(-4.35419e-09 -7.69845e-10 4.23978e-10)
(0 0 0)
(-6.4663e-11 8.39535e-11 1.21501e-11)
(-1.28232e-10 1.64337e-10 2.42197e-11)
(-1.93817e-10 2.42801e-10 3.68721e-11)
(-2.6675e-10 3.23093e-10 5.11124e-11)
(-3.5309e-10 4.08383e-10 6.79745e-11)
(-4.60341e-10 5.01317e-10 8.85954e-11)
(-5.98291e-10 6.03906e-10 1.14272e-10)
(-7.79988e-10 7.17144e-10 1.46484e-10)
(-1.02277e-09 8.40189e-10 1.86843e-10)
(-1.34896e-09 9.68851e-10 2.36903e-10)
(-1.78527e-09 1.09315e-09 2.9769e-10)
(-2.35853e-09 1.19396e-09 3.68798e-10)
(-3.08243e-09 1.24071e-09 4.46872e-10)
(-3.92356e-09 1.19781e-09 5.23605e-10)
(-4.71743e-09 1.06452e-09 5.83577e-10)
(-6.023e-09 7.08517e-10 6.6469e-10)
(0 0 0)
(-9.18455e-11 1.21746e-10 1.7582e-11)
(-1.81742e-10 2.38283e-10 3.50039e-11)
(-2.73695e-10 3.51994e-10 5.31791e-11)
(-3.74759e-10 4.68318e-10 7.35012e-11)
(-4.92778e-10 5.91896e-10 9.73739e-11)
(-6.37241e-10 7.26706e-10 1.26299e-10)
(-8.20236e-10 8.76027e-10 1.61931e-10)
(-1.05751e-09 1.04215e-09 2.06065e-10)
(-1.36947e-09 1.22568e-09 2.60512e-10)
(-1.78166e-09 1.4243e-09 3.26756e-10)
(-2.3234e-09 1.63086e-09 4.0522e-10)
(-3.02134e-09 1.83104e-09 4.93967e-10)
(-3.88134e-09 2.00212e-09 5.86736e-10)
(-4.84555e-09 2.11789e-09 6.70981e-10)
(-5.7061e-09 2.16656e-09 7.28469e-10)
(-6.95891e-09 2.20123e-09 7.70701e-10)
(0 0 0)
(-1.13608e-10 1.54765e-10 2.23205e-11)
(-2.24141e-10 3.02851e-10 4.43647e-11)
(-3.35867e-10 4.47255e-10 6.72143e-11)
(-4.56658e-10 5.94874e-10 9.2538e-11)
(-5.94985e-10 7.51627e-10 1.21969e-10)
(-7.60716e-10 9.22693e-10 1.57186e-10)
(-9.65951e-10 1.11261e-09 1.99942e-10)
(-1.22583e-09 1.32519e-09 2.51989e-10)
(-1.5592e-09 1.56316e-09 3.14847e-10)
(-1.98867e-09 1.82749e-09 3.89301e-10)
(-2.53899e-09 2.11643e-09 4.74475e-10)
(-3.23131e-09 2.42388e-09 5.66385e-10)
(-4.06796e-09 2.73723e-09 6.56244e-10)
(-4.99645e-09 3.03333e-09 7.29855e-10)
(-5.83082e-09 3.26672e-09 7.71986e-10)
(-7.13561e-09 3.60173e-09 7.78325e-10)
(0 0 0)
(-1.29219e-10 1.81775e-10 2.62448e-11)
(-2.54005e-10 3.55623e-10 5.20617e-11)
(-3.78258e-10 5.24995e-10 7.86142e-11)
(-5.09766e-10 6.97927e-10 1.07727e-10)
(-6.56521e-10 8.81317e-10 1.41121e-10)
(-8.27312e-10 1.08125e-09 1.80478e-10)
(-1.03223e-09 1.30323e-09 2.27415e-10)
(-1.28299e-09 1.55224e-09 2.83342e-10)
(-1.59302e-09 1.83271e-09 3.49114e-10)
(-1.97687e-09 2.1484e-09 4.24385e-10)
(-2.44862e-09 2.50194e-09 5.06566e-10)
(-3.01841e-09 2.89383e-09 5.89487e-10)
(-3.68517e-09 3.31888e-09 6.62492e-10)
(-4.41907e-09 3.75521e-09 7.1218e-10)
(-5.10468e-09 4.13193e-09 7.30976e-10)
(-6.48805e-09 4.71934e-09 7.12102e-10)
(0 0 0)
(-1.38593e-10 2.01807e-10 2.93021e-11)
(-2.71265e-10 3.94709e-10 5.79976e-11)