/*--------------------------------*- C++ -*----------------------------------*\
| =========                 |                                                 |
| \\      /  F ield         | foam-extend: Open Source CFD                    |
|  \\    /   O peration     | Version:     3.1                                |
|   \\  /    A nd           | Web:         http://www.extend-project.de       |
|    \\/     M anipulation  |                                                 |
\*---------------------------------------------------------------------------*/
FoamFile
{
    version     2.0;
    format      ascii;
    class       surfaceVectorField;
    location    "2";
    object      Sf;
}
// * * * * * * * * * * * * * * * * * * * * * * * * * * * * * * * * * * * * * //

dimensions      [0 2 0 0 0 0 0];

internalField   nonuniform List<vector> 
41600
(
(0.000625347 -1.81982e-06 -1.08818e-08)
(-3.46644e-07 0.000704945 -8.27024e-09)
(1.30188e-08 1.46461e-08 0.000704239)
(-1.3296e-08 -1.4958e-08 -0.00070422)
(0.000625679 -3.50779e-06 -2.08935e-08)
(-3.31741e-07 0.000704814 -2.47401e-08)
(1.29404e-08 4.38474e-08 0.000704563)
(-1.32108e-08 -4.47753e-08 -0.000704528)
(0.000626003 -5.04742e-06 -2.98737e-08)
(-3.23487e-07 0.000704666 -4.14975e-08)
(1.36746e-08 7.37771e-08 0.000704865)
(-1.39404e-08 -7.53083e-08 -0.000704815)
(0.000626334 -6.47419e-06 -3.79165e-08)
(-3.30984e-07 0.000704554 -5.96411e-08)
(1.55523e-08 1.06629e-07 0.000705185)
(-1.58124e-08 -1.08752e-07 -0.000705118)
(0.000626687 -7.81697e-06 -4.52395e-08)
(-3.52926e-07 0.00070447 -8.05509e-08)
(1.85255e-08 1.44914e-07 0.000705538)
(-1.87637e-08 -1.47599e-07 -0.00070545)
(0.000627076 -9.1031e-06 -5.21167e-08)
(-3.89196e-07 0.000704414 -1.05774e-07)
(2.24749e-08 1.90957e-07 0.000705939)
(-2.26595e-08 -1.94119e-07 -0.000705826)
(0.000627516 -1.03535e-05 -5.81804e-08)
(-4.39705e-07 0.000704379 -1.3707e-07)
(2.7182e-08 2.46705e-07 0.000706402)
(-2.72689e-08 -2.50176e-07 -0.000706259)
(0.000628021 -1.15787e-05 -6.2728e-08)
(-5.05197e-07 0.000704354 -1.76508e-07)
(3.23037e-08 3.13477e-07 0.00070694)
(-3.22109e-08 -3.16947e-07 -0.000706758)
(0.000628608 -1.2779e-05 -6.49764e-08)
(-5.87276e-07 0.000704328 -2.26929e-07)
(3.69695e-08 3.91247e-07 0.000707565)
(-3.65401e-08 -3.94141e-07 -0.000707336)
(0.000629294 -1.39332e-05 -6.30357e-08)
(-6.87032e-07 0.000704281 -2.92371e-07)
(3.92442e-08 4.76877e-07 0.000708288)
(-3.82857e-08 -4.78224e-07 -0.000707998)
(0.000630101 -1.49991e-05 -5.45522e-08)
(-8.0815e-07 0.000704189 -3.79163e-07)
(3.52435e-08 5.60788e-07 0.000709123)
(-3.35645e-08 -5.59183e-07 -0.000708753)
(0.000631054 -1.59021e-05 -3.77579e-08)
(-9.5579e-07 0.000704022 -4.98718e-07)
(1.79264e-08 6.21333e-07 0.000710087)
(-1.53704e-08 -6.14956e-07 -0.000709605)
(0.000632185 -1.65341e-05 -1.42723e-08)
(-1.13432e-06 0.000703744 -6.73079e-07)
(-2.58224e-08 6.14656e-07 0.000711208)
(2.93462e-08 -6.01352e-07 -0.000710558)
(0.000633512 -1.6798e-05 1.91138e-09)
(-1.33251e-06 0.000703365 -9.44594e-07)
(-1.13806e-07 4.62851e-07 0.000712546)
(1.19063e-07 -4.39392e-07 -0.000711618)
(0.000634875 -1.67183e-05 -4.00011e-08)
(-1.38556e-06 0.000702991 -1.3721e-06)
(-2.3941e-07 7.52143e-08 0.000714144)
(2.61911e-07 -2.04982e-08 -0.00071273)
(-5.695e-06 0.000701709 -5.40852e-07)
(-1.26103e-06 -1.55857e-06 0.000717799)
(2.52112e-06 3.00741e-06 -0.000717092)
(0.000625333 -1.79702e-06 -3.26695e-08)
(-6.79242e-07 0.000706742 -1.62098e-08)
(3.83688e-08 1.3871e-08 0.000706051)
(-3.91971e-08 -1.41791e-08 -0.00070601)
(0.000625652 -3.4659e-06 -6.28761e-08)
(-6.49718e-07 0.000706484 -4.84658e-08)
(3.80446e-08 4.14171e-08 0.000706227)
(-3.88606e-08 -4.2343e-08 -0.000706173)
(0.000625962 -4.98875e-06 -9.02108e-08)
(-6.32897e-07 0.000706191 -8.1232e-08)
(4.01088e-08 6.9421e-08 0.000706365)
(-4.09244e-08 -7.09761e-08 -0.000706298)
(0.000626279 -6.40013e-06 -1.14797e-07)
(-6.46796e-07 0.000705967 -1.16625e-07)
(4.55651e-08 9.99692e-08 0.000706555)
(-4.63718e-08 -1.02167e-07 -0.000706474)
(0.000626616 -7.73306e-06 -1.37514e-07)
(-6.89086e-07 0.000705806 -1.57368e-07)
(5.42025e-08 1.35405e-07 0.000706807)
(-5.4955e-08 -1.38237e-07 -0.000706708)
(0.000626986 -9.01432e-06 -1.59101e-07)
(-7.58683e-07 0.000705699 -2.06487e-07)
(6.56934e-08 1.77845e-07 0.000707132)
(-6.6323e-08 -1.81285e-07 -0.00070701)
(0.000627402 -1.02624e-05 -1.78326e-07)
(-8.55648e-07 0.000705631 -2.67309e-07)
(7.96725e-08 2.29388e-07 0.000707534)
(-8.00178e-08 -2.33323e-07 -0.000707384)
(0.000627878 -1.149e-05 -1.93376e-07)
(-9.81385e-07 0.000705585 -3.43951e-07)
(9.53186e-08 2.92072e-07 0.000708015)
(-9.50789e-08 -2.96156e-07 -0.000707832)
(0.000628427 -1.27019e-05 -2.01431e-07)
(-1.13743e-06 0.000705544 -4.41741e-07)
(1.10248e-07 3.67093e-07 0.000708577)
(-1.08985e-07 -3.70693e-07 -0.000708354)
(0.000629063 -1.38909e-05 -1.97379e-07)
(-1.3254e-06 0.000705472 -5.67903e-07)
(1.19516e-07 4.53788e-07 0.000709209)
(-1.16662e-07 -4.55928e-07 -0.000708938)
(0.000629797 -1.50259e-05 -1.7475e-07)
(-1.54769e-06 0.000705323 -7.33634e-07)
(1.13613e-07 5.4848e-07 0.000709894)
(-1.08558e-07 -5.47721e-07 -0.000709562)
(0.000630638 -1.60476e-05 -1.26851e-07)
(-1.8042e-06 0.000705038 -9.5772e-07)
(7.5556e-08 6.4255e-07 0.000710601)
(-6.76948e-08 -6.36858e-07 -0.00071019)
(0.000631577 -1.68568e-05 -5.41186e-08)
(-2.08463e-06 0.000704539 -1.27427e-06)
(-2.36136e-08 7.21537e-07 0.000711284)
(3.49043e-08 -7.08017e-07 -0.000710756)
(0.000632553 -1.73297e-05 1.55204e-08)
(-2.32569e-06 0.000703812 -1.74473e-06)
(-2.17767e-07 7.70231e-07 0.00071193)
(2.3518e-07 -7.44141e-07 -0.0007112)
(0.000633303 -1.74108e-05 -3.16451e-08)
(-2.19456e-06 0.000703023 -2.45453e-06)
(-4.76002e-07 7.93255e-07 0.0007126)
(5.34907e-07 -7.44297e-07 -0.00071147)
(-5.15439e-06 0.000700758 -2.02935e-06)
(-1.94383e-06 1.47803e-06 0.000712052)
(3.63948e-06 -2.3807e-06 -0.000710504)
(0.000625306 -1.7477e-06 -5.43551e-08)
(-9.84242e-07 0.00070849 -2.34714e-08)
(6.18947e-08 1.25878e-08 0.000707818)
(-6.32598e-08 -1.28838e-08 -0.000707756)
(0.000625599 -3.37112e-06 -1.04895e-07)
(-9.40718e-07 0.000708108 -7.01671e-08)
(6.11551e-08 3.74744e-08 0.000707836)
(-6.2509e-08 -3.83619e-08 -0.000707764)
(0.000625882 -4.85161e-06 -1.50739e-07)
(-9.14986e-07 0.000707673 -1.17545e-07)
(6.42621e-08 6.25501e-08 0.000707797)
(-6.56173e-08 -6.40208e-08 -0.000707715)
(0.00062617 -6.22623e-06 -1.92331e-07)
(-9.33786e-07 0.000707344 -1.68613e-07)
(7.28715e-08 8.97044e-08 0.000707845)
(-7.42182e-08 -9.1749e-08 -0.000707752)
(0.000626476 -7.52946e-06 -2.31881e-07)
(-9.93166e-07 0.000707112 -2.27325e-07)
(8.65081e-08 1.21013e-07 0.000707986)
(-8.78109e-08 -1.23654e-07 -0.000707877)
(0.000626809 -8.78397e-06 -2.69972e-07)
(-1.09042e-06 0.000706957 -2.97969e-07)
(1.04834e-07 1.58475e-07 0.00070822)
(-1.05984e-07 -1.61723e-07 -0.00070809)
(0.000627179 -1.00095e-05 -3.04538e-07)
(-1.22558e-06 0.00070686 -3.85145e-07)
(1.2767e-07 2.04306e-07 0.000708541)
(-1.28369e-07 -2.08063e-07 -0.000708388)
(0.000627598 -1.1226e-05 -3.33425e-07)
(-1.4001e-06 0.000706806 -4.94524e-07)
(1.54085e-07 2.6089e-07 0.000708945)
(-1.53832e-07 -2.64922e-07 -0.000708765)
(0.000628073 -1.24448e-05 -3.51601e-07)
(-1.61495e-06 0.000706766 -6.33307e-07)
(1.81268e-07 3.30919e-07 0.000709421)
(-1.79377e-07 -3.34789e-07 -0.000709211)
(0.000628615 -1.36761e-05 -3.51716e-07)
(-1.87121e-06 0.000706706 -8.11105e-07)
(2.03409e-07 4.17639e-07 0.000709945)
(-1.98934e-07 -4.20559e-07 -0.000709702)
(0.000629225 -1.49137e-05 -3.23562e-07)
(-2.16575e-06 0.000706562 -1.04207e-06)
(2.0978e-07 5.25245e-07 0.000710472)
(-2.01533e-07 -5.25822e-07 -0.000710191)
(0.000629892 -1.61283e-05 -2.54065e-07)
(-2.48484e-06 0.000706248 -1.34832e-06)
(1.81856e-07 6.60272e-07 0.000710925)
(-1.68489e-07 -6.56225e-07 -0.000710604)
(0.000630579 -1.72545e-05 -1.34472e-07)
(-2.79154e-06 0.000705653 -1.76747e-06)
(9.17643e-08 8.35324e-07 0.000711191)
(-7.15353e-08 -8.23115e-07 -0.000710817)
(0.00063119 -1.81714e-05 1.89618e-08)
(-2.96891e-06 0.000704704 -2.36452e-06)
(-8.58048e-08 1.07476e-06 0.000711172)
(1.17631e-07 -1.04917e-06 -0.000710705)
(0.000631503 -1.87525e-05 9.71549e-08)
(-2.58629e-06 0.000703565 -3.24093e-06)
(-3.06684e-07 1.40339e-06 0.000710969)
(3.85108e-07 -1.36414e-06 -0.000710261)
(-5.96538e-06 0.000702011 -2.47978e-06)
(-9.06746e-07 2.11013e-06 0.000709506)
(1.51736e-06 -2.36434e-06 -0.000709774)
(0.000625267 -1.67059e-06 -7.51066e-08)
(-1.24946e-06 0.000710161 -2.97317e-08)
(8.28284e-08 1.09424e-08 0.000709515)
(-8.46923e-08 -1.12075e-08 -0.000709433)
(0.000625521 -3.21973e-06 -1.45439e-07)
(-1.19315e-06 0.000709658 -8.88958e-08)
(8.1621e-08 3.25699e-08 0.000709364)
(-8.3467e-08 -3.3358e-08 -0.000709275)
(0.000625767 -4.63237e-06 -2.09113e-07)
(-1.15884e-06 0.000709086 -1.48868e-07)
(8.55364e-08 5.43165e-08 0.00070914)
(-8.73713e-08 -5.56145e-08 -0.000709045)
(0.000626015 -5.94414e-06 -2.67979e-07)
(-1.1803e-06 0.000708658 -2.13424e-07)
(9.67718e-08 7.77209e-08 0.000709039)
(-9.86152e-08 -7.9545e-08 -0.000708935)
(0.000626275 -7.18237e-06 -3.25483e-07)
(-1.25132e-06 0.000708353 -2.87506e-07)
(1.14656e-07 1.04537e-07 0.000709058)
(-1.16499e-07 -1.06936e-07 -0.00070894)
(0.000626555 -8.37258e-06 -3.81177e-07)
(-1.36835e-06 0.00070815 -3.76231e-07)
(1.39026e-07 1.36575e-07 0.000709184)
(-1.40694e-07 -1.3957e-07 -0.00070905)
(0.000626861 -9.54265e-06 -4.33062e-07)
(-1.53072e-06 0.000708034 -4.8511e-07)
(1.69885e-07 1.75828e-07 0.00070941)
(-1.70997e-07 -1.79387e-07 -0.000709259)
(0.0006272 -1.07185e-05 -4.7952e-07)
(-1.73889e-06 0.000707986 -6.20872e-07)
(2.06658e-07 2.24746e-07 0.000709728)
(-2.06623e-07 -2.28795e-07 -0.000709555)
(0.000627576 -1.19235e-05 -5.14374e-07)
(-1.99302e-06 0.000707976 -7.91943e-07)
(2.4758e-07 2.87108e-07 0.000710112)
(-2.45467e-07 -2.91414e-07 -0.000709919)
(0.000627991 -1.31768e-05 -5.28872e-07)
(-2.29192e-06 0.000707963 -1.00942e-06)
(2.8831e-07 3.69095e-07 0.000710533)
(-2.82763e-07 -3.73065e-07 -0.00071032)
(0.000628443 -1.45012e-05 -5.09961e-07)
(-2.62837e-06 0.000707888 -1.28914e-06)
(3.20712e-07 4.80722e-07 0.000710928)
(-3.09808e-07 -4.83112e-07 -0.000710699)
(0.000628917 -1.59101e-05 -4.3845e-07)
(-2.9774e-06 0.000707656 -1.65491e-06)
(3.31651e-07 6.38967e-07 0.0007112)
(-3.12964e-07 -6.37423e-07 -0.000710965)
(0.000629372 -1.73916e-05 -2.90974e-07)
(-3.27636e-06 0.000707126 -2.14489e-06)
(3.00534e-07 8.69316e-07 0.000711197)
(-2.70842e-07 -8.59937e-07 -0.000710967)
(0.000629733 -1.88532e-05 -5.5986e-08)
(-3.37625e-06 0.000706143 -2.82398e-06)
(2.07229e-07 1.19902e-06 0.000710756)
(-1.60586e-07 -1.17677e-06 -0.000710532)
(0.000629867 -2.0068e-05 2.11409e-07)
(-2.80761e-06 0.000704747 -3.81064e-06)
(6.09088e-08 1.61825e-06 0.000709956)
(2.64419e-08 -1.58546e-06 -0.000709654)
(-6.22464e-06 0.000704088 -2.83157e-06)
(-4.90952e-08 2.28956e-06 0.000708202)
(6.66171e-08 -2.64051e-06 -0.000709573)
(0.000625218 -1.56234e-06 -9.4449e-08)
(-1.46537e-06 0.000711724 -3.48105e-08)
(1.00925e-07 9.38196e-09 0.000711112)
(-1.03236e-07 -9.61957e-09 -0.000711013)
(0.000625425 -3.008e-06 -1.83248e-07)
(-1.39783e-06 0.000711104 -1.04018e-07)
(9.92987e-08 2.79136e-08 0.000710786)
(-1.01581e-07 -2.86218e-08 -0.000710682)
(0.000625624 -4.32398e-06 -2.64093e-07)
(-1.35534e-06 0.000710404 -1.74051e-07)
(1.03818e-07 4.64536e-08 0.000710373)
(-1.06098e-07 -4.76441e-08 -0.000710267)
(0.000625822 -5.53964e-06 -3.40442e-07)
(-1.37649e-06 0.000709875 -2.49329e-07)
(1.17121e-07 6.61982e-08 0.000710115)
(-1.19454e-07 -6.7916e-08 -0.000710003)
(0.000626027 -6.6812e-06 -4.15334e-07)
(-1.45338e-06 0.000709497 -3.35379e-07)
(1.38467e-07 8.85642e-08 0.000709998)
(-1.40841e-07 -9.08597e-08 -0.000709875)
(0.000626242 -7.77866e-06 -4.88133e-07)
(-1.58164e-06 0.00070925 -4.37773e-07)
(1.67817e-07 1.14974e-07 0.000710008)
(-1.70032e-07 -1.17898e-07 -0.000709874)
(0.000626472 -8.85987e-06 -5.58492e-07)
(-1.75904e-06 0.000709119 -5.62629e-07)
(2.05375e-07 1.47028e-07 0.000710134)
(-2.07026e-07 -1.50639e-07 -0.000709986)
(0.000626718 -9.9512e-06 -6.25508e-07)
(-1.98411e-06 0.000709081 -7.17273e-07)
(2.51397e-07 1.8704e-07 0.00071036)
(-2.51839e-07 -1.91365e-07 -0.000710196)
(0.000626978 -1.1084e-05 -6.83471e-07)
(-2.25503e-06 0.000709113 -9.10621e-07)
(3.0587e-07 2.38921e-07 0.000710657)
(-3.03972e-07 -2.43883e-07 -0.000710481)
(0.000627249 -1.22938e-05 -7.23708e-07)
(-2.56885e-06 0.000709178 -1.15437e-06)
(3.67326e-07 3.09462e-07 0.000710988)
(-3.61364e-07 -3.14741e-07 -0.000710803)
(0.000627526 -1.36296e-05 -7.3316e-07)
(-2.91826e-06 0.000709229 -1.46555e-06)
(4.32302e-07 4.10217e-07 0.000711296)
(-4.19606e-07 -4.14947e-07 -0.00071111)
(0.000627802 -1.51556e-05 -6.87657e-07)
(-3.27613e-06 0.000709184 -1.8696e-06)
(4.96123e-07 5.60611e-07 0.000711487)
(-4.72825e-07 -5.62669e-07 -0.000711318)
(0.000628056 -1.69195e-05 -5.49615e-07)
(-3.56958e-06 0.000708885 -2.40617e-06)
(5.45541e-07 7.89426e-07 0.000711402)
(-5.06752e-07 -7.84904e-07 -0.000711279)
(0.000628252 -1.88732e-05 -2.74281e-07)
(-3.63316e-06 0.00070808 -3.14208e-06)
(5.52775e-07 1.12308e-06 0.000710818)
(-4.91681e-07 -1.10668e-06 -0.000710776)
(0.000628307 -2.06869e-05 1.84697e-07)
(-2.95765e-06 0.000706533 -4.20622e-06)
(4.57751e-07 1.5387e-06 0.000709613)
(-3.63055e-07 -1.51149e-06 -0.000709676)
(-6.35677e-06 0.000706876 -2.99132e-06)
(6.77753e-07 2.10917e-06 0.000707917)
(-1.25362e-06 -2.34203e-06 -0.000710552)
(0.000625162 -1.42486e-06 -1.12512e-07)
(-1.62441e-06 0.000713149 -3.85204e-08)
(1.16401e-07 7.98141e-09 0.000712582)
(-1.19115e-07 -8.19785e-09 -0.000712466)
(0.000625314 -2.7404e-06 -2.18081e-07)
(-1.54778e-06 0.000712421 -1.15013e-07)
(1.1434e-07 2.36739e-08 0.000712078)
(-1.17024e-07 -2.43248e-08 -0.000711961)
(0.000625459 -3.93179e-06 -3.1508e-07)
(-1.49765e-06 0.000711596 -1.92236e-07)
(1.19187e-07 3.91602e-08 0.000711475)
(-1.21893e-07 -4.02591e-08 -0.000711359)
(0.000625602 -5.02687e-06 -4.07259e-07)
(-1.51627e-06 0.000710972 -2.74956e-07)
(1.33963e-07 5.53209e-08 0.000711053)
(-1.36763e-07 -5.6898e-08 -0.000710936)
(0.000625746 -6.05261e-06 -4.9654e-07)
(-1.59416e-06 0.000710524 -3.68959e-07)
(1.57861e-07 7.31932e-08 0.000710796)
(-1.60757e-07 -7.53083e-08 -0.000710673)
(0.000625892 -7.03158e-06 -5.84739e-07)
(-1.72494e-06 0.000710232 -4.80107e-07)
(1.909e-07 9.37993e-08 0.000710684)
(-1.93702e-07 -9.65447e-08 -0.000710554)
(0.000626039 -7.98337e-06 -6.73551e-07)
(-1.90433e-06 0.000710074 -6.14738e-07)
(2.33532e-07 1.18324e-07 0.0007107)
(-2.35831e-07 -1.21804e-07 -0.000710559)
(0.000626185 -8.93154e-06 -7.62229e-07)
(-2.12874e-06 0.000710034 -7.80133e-07)
(2.86866e-07 1.48477e-07 0.000710824)
(-2.88012e-07 -1.52825e-07 -0.000710672)
(0.000626323 -9.90801e-06 -8.47325e-07)
(-2.39402e-06 0.000710095 -9.85048e-07)
(3.5253e-07 1.8716e-07 0.000711028)
(-3.51296e-07 -1.92527e-07 -0.000710868)
(0.000626444 -1.09609e-05 -9.2194e-07)
(-2.6954e-06 0.000710238 -1.24098e-06)
(4.31925e-07 2.39477e-07 0.000711278)
(-4.2632e-07 -2.45897e-07 -0.000711117)
(0.00062654 -1.21622e-05 -9.75659e-07)
(-3.02804e-06 0.000710437 -1.56522e-06)
(5.26113e-07 3.14086e-07 0.000711533)
(-5.12871e-07 -3.2124e-07 -0.00071138)
(0.000626611 -1.36118e-05 -9.85255e-07)
(-3.37265e-06 0.00071064 -1.98497e-06)
(6.38381e-07 4.2565e-07 0.000711723)
(-6.12235e-07 -4.32385e-07 -0.000711598)
(0.000626668 -1.54251e-05 -9.09486e-07)
(-3.67327e-06 0.000710702 -2.54518e-06)
(7.64812e-07 5.98863e-07 0.000711712)
(-7.18872e-07 -6.02238e-07 -0.000711648)
(0.000626743 -1.76733e-05 -6.7583e-07)
(-3.7825e-06 0.000710322 -3.32383e-06)
(8.69836e-07 8.62873e-07 0.000711258)
(-7.9502e-07 -8.56983e-07 -0.00071131)
(0.000626826 -2.00579e-05 -8.95291e-08)
(-3.14523e-06 0.0007089 -4.4597e-06)
(8.24381e-07 1.21305e-06 0.000709927)
(-7.19872e-07 -1.19532e-06 -0.000710259)
(-6.57989e-06 0.000710854 -3.06249e-06)
(1.30651e-06 1.72507e-06 0.000708857)
(-2.3161e-06 -1.87894e-06 -0.000712795)
(0.0006251 -1.26354e-06 -1.28441e-07)
(-1.72139e-06 0.000714413 -4.06948e-08)
(1.29487e-07 6.6883e-09 0.000713898)
(-1.32563e-07 -6.87853e-09 -0.000713767)
(0.000625194 -2.42687e-06 -2.48577e-07)
(-1.63853e-06 0.000713584 -1.21414e-07)
(1.26902e-07 1.97343e-08 0.000713218)
(-1.29948e-07 -2.0303e-08 -0.000713092)
(0.000625282 -3.47518e-06 -3.59562e-07)
(-1.58231e-06 0.000712645 -2.02727e-07)
(1.31754e-07 3.23295e-08 0.000712428)
(-1.34843e-07 -3.32866e-08 -0.000712306)
(0.000625366 -4.43252e-06 -4.64171e-07)
(-1.59705e-06 0.00071193 -2.89474e-07)
(1.47379e-07 4.50672e-08 0.000711844)
(-1.50597e-07 -4.64477e-08 -0.000711725)
(0.000625446 -5.31703e-06 -5.64816e-07)
(-1.67139e-06 0.000711411 -3.87412e-07)
(1.72852e-07 5.8631e-08 0.000711444)
(-1.7624e-07 -6.05004e-08 -0.000711325)
(0.000625521 -6.1414e-06 -6.66643e-07)
(-1.79671e-06 0.000711059 -5.02472e-07)
(2.08217e-07 7.36175e-08 0.000711201)
(-2.11603e-07 -7.60763e-08 -0.000711077)
(0.000625587 -6.91907e-06 -7.71952e-07)
(-1.96648e-06 0.000710855 -6.40747e-07)
(2.54073e-07 9.06502e-08 0.000711092)
(-2.57068e-07 -9.38388e-08 -0.000710961)
(0.000625635 -7.66707e-06 -8.80601e-07)
(-2.17476e-06 0.000710786 -8.08852e-07)
(3.11998e-07 1.10506e-07 0.000711094)
(-3.14005e-07 -1.1463e-07 -0.000710957)
(0.000625655 -8.40908e-06 -9.91585e-07)
(-2.41452e-06 0.000710842 -1.01469e-06)
(3.84576e-07 1.34342e-07 0.000711185)
(-3.84378e-07 -1.39685e-07 -0.000711045)
(0.000625633 -9.18178e-06 -1.10081e-06)
(-2.67781e-06 0.000711017 -1.26844e-06)
(4.74884e-07 1.64038e-07 0.000711339)
(-4.70372e-07 -1.70929e-07 -0.000711203)
(0.000625552 -1.00494e-05 -1.20295e-06)
(-2.95948e-06 0.000711314 -1.58576e-06)
(5.86558e-07 2.02622e-07 0.000711533)
(-5.74275e-07 -2.11472e-07 -0.00071141)
(0.000625404 -1.11051e-05 -1.28475e-06)
(-3.25016e-06 0.000711707 -1.99343e-06)
(7.27481e-07 2.54879e-07 0.000711717)
(-7.01564e-07 -2.66221e-07 -0.000711627)
(0.000625212 -1.25022e-05 -1.31911e-06)
(-3.53007e-06 0.000712112 -2.54154e-06)
(9.02662e-07 3.30523e-07 0.0007118)
(-8.54401e-07 -3.44273e-07 -0.000711769)
(0.000625083 -1.44775e-05 -1.23612e-06)
(-3.73714e-06 0.000712311 -3.33123e-06)
(1.08143e-06 4.50982e-07 0.00071161)
(-9.97867e-07 -4.64213e-07 -0.000711686)
(0.000625213 -1.70816e-05 -7.06248e-07)
(-3.39055e-06 0.000711511 -4.54667e-06)
(1.1098e-06 6.54008e-07 0.00071054)
(-9.93862e-07 -6.60665e-07 -0.000710983)
(-7.61671e-06 0.000717978 -3.0397e-06)
(1.97733e-06 1.1662e-06 0.000712148)
(-3.31407e-06 -1.2909e-06 -0.000717577)
(0.000625036 -1.08158e-06 -1.41464e-07)
(1.40375e-07 5.50789e-09 0.00071504)
(-1.43766e-07 -5.67263e-09 -0.000714897)
(-1.75354e-06 0.000715494 -4.13246e-08)
(0.000625069 -2.07816e-06 -2.73311e-07)
(1.37178e-07 1.61558e-08 0.000714193)
(-1.40529e-07 -1.66408e-08 -0.00071406)
(-1.66819e-06 0.000714581 -1.23189e-07)
(0.000625098 -2.9729e-06 -3.95036e-07)
(1.41707e-07 2.61362e-08 0.000713225)
(-1.45122e-07 -2.69426e-08 -0.0007131)
(-1.60853e-06 0.000713541 -2.05426e-07)
(0.000625123 -3.77793e-06 -5.09014e-07)
(1.57581e-07 3.57621e-08 0.000712483)
(-1.6117e-07 -3.69277e-08 -0.000712365)
(-1.61875e-06 0.000712737 -2.92844e-07)
(0.000625142 -4.50053e-06 -6.19454e-07)
(1.83689e-07 4.53871e-08 0.000711934)
(-1.87511e-07 -4.69693e-08 -0.00071182)
(-1.68606e-06 0.000712135 -3.91067e-07)
(0.000625149 -5.14752e-06 -7.32321e-07)
(2.19975e-07 5.51341e-08 0.000711549)
(-2.23894e-07 -5.72204e-08 -0.000711433)
(-1.80018e-06 0.000711708 -5.05641e-07)
(0.000625139 -5.72596e-06 -8.4981e-07)
(2.67039e-07 6.49877e-08 0.000711298)
(-2.70719e-07 -6.7733e-08 -0.000711179)
(-1.95227e-06 0.000711436 -6.41967e-07)
(0.0006251 -6.24177e-06 -9.73244e-07)
(3.26461e-07 7.47683e-08 0.00071116)
(-3.29346e-07 -7.83781e-08 -0.00071104)
(-2.13317e-06 0.000711306 -8.05638e-07)
(0.000625018 -6.70226e-06 -1.10251e-06)
(4.0082e-07 8.3881e-08 0.000711111)
(-4.01771e-07 -8.86354e-08 -0.000710994)
(-2.33193e-06 0.000711308 -1.00299e-06)
(0.000624873 -7.11811e-06 -1.23671e-06)
(4.93259e-07 9.10316e-08 0.000711128)
(-4.90295e-07 -9.74337e-08 -0.00071102)
(-2.53522e-06 0.00071144 -1.2417e-06)
(0.000624631 -7.50365e-06 -1.3759e-06)
(6.07421e-07 9.37846e-08 0.00071119)
(-5.97384e-07 -1.02804e-07 -0.000711104)
(-2.72807e-06 0.000711708 -1.53276e-06)
(0.000624248 -7.87733e-06 -1.51755e-06)
(7.49804e-07 8.61432e-08 0.000711233)
(-7.27413e-07 -9.97544e-08 -0.000711191)
(-2.88898e-06 0.000712094 -1.8938e-06)
(0.000623653 -8.28706e-06 -1.65553e-06)
(9.24478e-07 5.4324e-08 0.000711128)
(-8.8152e-07 -7.65725e-08 -0.000711175)
(-2.97782e-06 0.000712544 -2.35573e-06)
(0.000622732 -8.85905e-06 -1.7578e-06)
(1.10401e-06 -2.3867e-08 0.000710581)
(-1.02827e-06 -1.57305e-08 -0.000710834)
(-2.89212e-06 0.000712923 -2.97646e-06)
(0.000621357 -1.00786e-05 -1.55702e-06)
(1.15967e-06 -1.4991e-07 0.000708697)
(-1.05327e-06 8.12905e-08 -0.000709605)
(-2.12223e-06 0.000712799 -3.83961e-06)
(2.82138e-06 2.71809e-07 0.000719273)
(-4.38837e-06 -4.18213e-07 -0.000726585)
(-1.19664e-05 0.000732549 -2.51841e-06)
(0.000625361 -1.83952e-06 -8.79214e-09)
(-3.60632e-07 0.000704965 -7.49622e-09)
(1.22575e-08 1.37897e-08 0.000704256)
(0.000625708 -3.54579e-06 -1.69781e-08)
(-3.45606e-07 0.000704834 -2.24131e-08)
(1.21903e-08 4.12908e-08 0.000704594)
(0.000626046 -5.10166e-06 -2.40982e-08)
(-3.37885e-07 0.000704685 -3.74924e-08)
(1.29003e-08 6.95059e-08 0.00070491)
(0.000626394 -6.54264e-06 -3.00537e-08)
(-3.47002e-07 0.000704572 -5.36035e-08)
(1.47149e-08 1.00545e-07 0.000705245)
(0.000626767 -7.89811e-06 -3.51261e-08)
(-3.71688e-07 0.000704489 -7.18587e-08)
(1.75825e-08 1.36829e-07 0.000705615)
(0.00062718 -9.1955e-06 -3.90874e-08)
(-4.11906e-07 0.000704433 -9.33338e-08)
(2.14115e-08 1.80616e-07 0.000706036)
(0.000627649 -1.04548e-05 -4.12933e-08)
(-4.67734e-07 0.000704397 -1.19173e-07)
(2.60336e-08 2.33877e-07 0.000706524)
(0.00062819 -1.1685e-05 -4.10366e-08)
(-5.40085e-07 0.000704371 -1.50586e-07)
(3.11228e-08 2.98027e-07 0.00070709)
(0.000628822 -1.28849e-05 -3.72401e-08)
(-6.3096e-07 0.000704343 -1.88646e-07)
(3.59009e-08 3.7326e-07 0.00070775)
(0.000629565 -1.40297e-05 -2.81251e-08)
(-7.42015e-07 0.00070429 -2.34308e-07)
(3.87611e-08 4.57121e-07 0.000708513)
(0.000630442 -1.50735e-05 -1.23148e-08)
(-8.78176e-07 0.000704188 -2.8826e-07)
(3.63926e-08 5.41719e-07 0.000709396)
(0.000631482 -1.59397e-05 1.05991e-08)
(-1.04623e-06 0.000704003 -3.49307e-07)
(2.32127e-08 6.09334e-07 0.000710414)
(0.000632719 -1.6526e-05 3.66247e-08)
(-1.25228e-06 0.0007037 -4.09334e-07)
(-9.67202e-09 6.2629e-07 0.000711591)
(0.000634158 -1.67614e-05 5.2484e-08)
(-1.48361e-06 0.000703283 -4.40099e-07)
(-6.99094e-08 5.40645e-07 0.00071297)
(0.000635625 -1.67364e-05 4.17371e-08)
(-1.56525e-06 0.000702865 -3.83547e-07)
(-1.40874e-07 3.09916e-07 0.000714538)
(-4.54599e-06 0.000702425 -1.12516e-07)
(-5.8099e-07 -4.75915e-07 0.000718119)
(0.000625348 -1.81697e-06 -2.65958e-08)
(-7.06628e-07 0.000706783 -1.47136e-08)
(3.61131e-08 1.30462e-08 0.000706085)
(0.000625682 -3.50461e-06 -5.14512e-08)
(-6.76798e-07 0.000706524 -4.39314e-08)
(3.58093e-08 3.8941e-08 0.000706274)
(0.000626007 -5.04455e-06 -7.3265e-08)
(-6.60971e-07 0.000706229 -7.33698e-08)
(3.77933e-08 6.52563e-08 0.000706423)
(0.000626341 -6.47135e-06 -9.18801e-08)
(-6.77962e-07 0.000706005 -1.0476e-07)
(4.30452e-08 9.39928e-08 0.000706625)
(0.000626697 -7.81849e-06 -1.07861e-07)
(-7.25591e-07 0.000705844 -1.40287e-07)
(5.13736e-08 1.2742e-07 0.000706891)
(0.000627091 -9.11285e-06 -1.20639e-07)
(-8.02932e-07 0.000705737 -1.8218e-07)
(6.25284e-08 1.67635e-07 0.000707234)
(0.000627537 -1.0372e-05 -1.28413e-07)
(-9.10122e-07 0.000705669 -2.32623e-07)
(7.62262e-08 2.16718e-07 0.000707655)
(0.00062805 -1.16074e-05 -1.28971e-07)
(-1.04914e-06 0.000705622 -2.93748e-07)
(9.17305e-08 2.76724e-07 0.000708158)
(0.000628644 -1.28212e-05 -1.18613e-07)
(-1.22208e-06 0.000705575 -3.67744e-07)
(1.07016e-07 3.49118e-07 0.000708746)
(0.000629335 -1.40032e-05 -9.1965e-08)
(-1.43142e-06 0.000705492 -4.56498e-07)
(1.17823e-07 4.33715e-07 0.000709405)
(0.000630136 -1.51197e-05 -4.53828e-08)
(-1.68112e-06 0.000705325 -5.6061e-07)
(1.15795e-07 5.27342e-07 0.00071012)
(0.000631051 -1.61055e-05 2.48346e-08)
(-1.97242e-06 0.000705009 -6.76271e-07)
(8.72981e-08 6.2231e-07 0.000710857)
(0.000632058 -1.68574e-05 1.11603e-07)
(-2.2956e-06 0.000704467 -7.86292e-07)
(1.19327e-08 7.05534e-07 0.000711574)
(0.000633061 -1.72556e-05 1.83332e-07)
(-2.57924e-06 0.00070369 -8.3726e-07)
(-1.25185e-07 7.61473e-07 0.000712256)
(0.000633779 -1.72635e-05 1.99457e-07)
(-2.47969e-06 0.00070288 -7.3006e-07)
(-2.7889e-07 7.8658e-07 0.00071293)
(-3.96381e-06 0.000700647 -1.25005e-07)
(-9.16233e-07 1.0794e-06 0.000712402)
(0.000625321 -1.7676e-06 -4.46918e-08)
(-1.02384e-06 0.000708552 -2.13223e-08)
(5.82231e-08 1.18199e-08 0.000707869)
(0.000625628 -3.40948e-06 -8.62631e-08)
(-9.79855e-07 0.000708168 -6.36314e-08)
(5.75213e-08 3.5193e-08 0.000707897)
(0.000625926 -4.90666e-06 -1.23069e-07)
(-9.55556e-07 0.00070773 -1.06256e-07)
(6.05083e-08 5.87692e-08 0.000707867)
(0.000626231 -6.29689e-06 -1.5529e-07)
(-9.78769e-07 0.0007074 -1.51729e-07)
(6.87779e-08 8.4353e-08 0.000707924)
(0.000626556 -7.6157e-06 -1.83649e-07)
(-1.04583e-06 0.00070717 -2.03169e-07)
(8.19123e-08 1.13922e-07 0.000708078)
(0.000626912 -8.88517e-06 -2.07187e-07)
(-1.15406e-06 0.000707016 -2.63709e-07)
(9.96858e-08 1.494e-07 0.000708325)
(0.000627311 -1.01242e-05 -2.22999e-07)
(-1.30359e-06 0.000706919 -3.36313e-07)
(1.21995e-07 1.92959e-07 0.00070866)
(0.000627765 -1.13519e-05 -2.27252e-07)
(-1.49665e-06 0.000706863 -4.23863e-07)
(1.48091e-07 2.47002e-07 0.000709079)
(0.000628283 -1.25777e-05 -2.13495e-07)
(-1.73485e-06 0.000706817 -5.29316e-07)
(1.75664e-07 3.1425e-07 0.000709568)
(0.000628876 -1.38097e-05 -1.73433e-07)
(-2.02028e-06 0.000706743 -6.55067e-07)
(1.99467e-07 3.97766e-07 0.000710104)
(0.000629545 -1.50367e-05 -9.93471e-08)
(-2.35075e-06 0.000706576 -8.01083e-07)
(2.09862e-07 5.01302e-07 0.000710638)
(0.000630276 -1.62224e-05 1.93641e-08)
(-2.71236e-06 0.000706225 -9.60089e-07)
(1.91214e-07 6.29819e-07 0.00071109)
(0.000631016 -1.72888e-05 1.82577e-07)
(-3.06543e-06 0.000705579 -1.10563e-06)
(1.21543e-07 7.90135e-07 0.000711347)
(0.000631642 -1.80964e-05 3.60149e-07)
(-3.27775e-06 0.000704582 -1.16296e-06)
(-1.30827e-08 9.90544e-07 0.00071132)
(0.000631941 -1.85077e-05 4.98766e-07)
(-2.92105e-06 0.000703467 -1.00607e-06)
(-1.65061e-07 1.22748e-06 0.000711107)
(-4.27996e-06 0.000701429 -2.45334e-07)
(-4.45216e-07 1.60606e-06 0.000709677)
(0.000625281 -1.689e-06 -6.21911e-08)
(-1.29957e-06 0.000710241 -2.70471e-08)
(7.78882e-08 1.02838e-08 0.000709582)
(0.000625548 -3.25582e-06 -1.1995e-07)
(-1.24274e-06 0.000709737 -8.07583e-08)
(7.67502e-08 3.06089e-08 0.000709439)
(0.000625808 -4.6845e-06 -1.71404e-07)
(-1.21018e-06 0.000709162 -1.34897e-07)
(8.05313e-08 5.10611e-08 0.00070922)
(0.000626072 -6.0123e-06 -2.17617e-07)
(-1.2372e-06 0.000708733 -1.92602e-07)
(9.13194e-08 7.31092e-08 0.000709126)
(0.00062635 -7.26719e-06 -2.59758e-07)
(-1.31778e-06 0.000708431 -2.57789e-07)
(1.08512e-07 9.84088e-08 0.000709154)
(0.000626651 -8.47333e-06 -2.95889e-07)
(-1.44816e-06 0.00070823 -3.34171e-07)
(1.32079e-07 1.28678e-07 0.000709291)
(0.000626983 -9.65867e-06 -3.22152e-07)
(-1.628e-06 0.000708115 -4.25212e-07)
(1.62143e-07 1.65862e-07 0.000709526)
(0.000627353 -1.08492e-05 -3.33366e-07)
(-1.85848e-06 0.000708066 -5.34356e-07)
(1.98333e-07 2.1237e-07 0.000709849)
(0.000627767 -1.20671e-05 -3.21136e-07)
(-2.14042e-06 0.00070805 -6.64894e-07)
(2.39212e-07 2.71743e-07 0.000710236)
(0.000628228 -1.33303e-05 -2.748e-07)
(-2.47363e-06 0.000708026 -8.19323e-07)
(2.80747e-07 3.49649e-07 0.00071065)
(0.000628734 -1.4657e-05 -1.79951e-07)
(-2.8513e-06 0.000707929 -9.96957e-07)
(3.15578e-07 4.55178e-07 0.000711029)
(0.000629269 -1.60542e-05 -1.80486e-08)
(-3.24675e-06 0.000707659 -1.18751e-06)
(3.31121e-07 6.0247e-07 0.000711265)
(0.000629788 -1.74906e-05 2.28168e-07)
(-3.5906e-06 0.000707076 -1.35636e-06)
(3.06871e-07 8.09168e-07 0.000711201)
(0.000630209 -1.88438e-05 5.4914e-07)
(-3.71473e-06 0.000706048 -1.41203e-06)
(2.22732e-07 1.0857e-06 0.000710684)
(0.000630431 -1.98571e-05 8.80273e-07)
(-3.17044e-06 0.000704696 -1.21058e-06)
(8.83251e-08 1.40231e-06 0.00070983)
(-4.22759e-06 0.000702954 -3.59734e-07)
(-1.47356e-08 1.7901e-06 0.000707959)
(0.00062523 -1.57951e-06 -7.8386e-08)
(-1.52397e-06 0.000711821 -3.16927e-08)
(9.48894e-08 8.80915e-09 0.000711195)
(0.000625449 -3.04179e-06 -1.51834e-07)
(-1.45581e-06 0.000711201 -9.46511e-08)
(9.33461e-08 2.61973e-08 0.000710873)
(0.000625661 -4.37358e-06 -2.17768e-07)
(-1.41527e-06 0.000710497 -1.58066e-07)
(9.77089e-08 4.35793e-08 0.000710462)
(0.000625873 -5.60526e-06 -2.78257e-07)
(-1.44281e-06 0.000709969 -2.2552e-07)
(1.10464e-07 6.20937e-08 0.000710208)
(0.000626093 -6.76188e-06 -3.34326e-07)
(-1.53041e-06 0.000709593 -3.01432e-07)
(1.30941e-07 8.30818e-08 0.000710098)
(0.000626327 -7.87355e-06 -3.82974e-07)
(-1.67351e-06 0.000709349 -3.89842e-07)
(1.59242e-07 1.0789e-07 0.000710112)
(0.000626579 -8.97012e-06 -4.20691e-07)
(-1.87035e-06 0.00070922 -4.94549e-07)
(1.9574e-07 1.38062e-07 0.000710241)
(0.000626851 -1.00784e-05 -4.41968e-07)
(-2.11996e-06 0.000709186 -6.19262e-07)
(2.40798e-07 1.75794e-07 0.000710466)
(0.000627143 -1.123e-05 -4.37246e-07)
(-2.4211e-06 0.000709216 -7.67353e-07)
(2.94512e-07 2.24711e-07 0.000710755)
(0.000627453 -1.24596e-05 -3.9321e-07)
(-2.77187e-06 0.000709274 -9.41269e-07)
(3.55484e-07 2.91076e-07 0.000711066)
(0.000627779 -1.38154e-05 -2.90049e-07)
(-3.16558e-06 0.00070931 -1.14005e-06)
(4.2032e-07 3.85239e-07 0.000711336)
(0.000628118 -1.5353e-05 -9.84809e-08)
(-3.57213e-06 0.000709233 -1.35157e-06)
(4.8254e-07 5.23919e-07 0.000711459)
(0.00062846 -1.71019e-05 2.2281e-07)
(-3.90952e-06 0.000708885 -1.53545e-06)
(5.23304e-07 7.29285e-07 0.00071126)
(0.000628783 -1.89802e-05 6.96271e-07)
(-3.99123e-06 0.000708036 -1.58879e-06)
(5.05897e-07 1.01398e-06 0.000710522)
(0.000629033 -2.0595e-05 1.25204e-06)
(-3.33885e-06 0.000706509 -1.35544e-06)
(3.75985e-07 1.34053e-06 0.000709202)
(-4.07997e-06 0.000705117 -4.55344e-07)
(3.72594e-07 1.70124e-06 0.000707241)
(0.000625172 -1.44091e-06 -9.35016e-08)
(-1.68918e-06 0.000713263 -3.50955e-08)
(1.09397e-07 7.46746e-09 0.000712679)