/*--------------------------------*- C++ -*----------------------------------*\
| =========                 |                                                 |
| \\      /  F ield         | foam-extend: Open Source CFD                    |
|  \\    /   O peration     | Version:     3.1                                |
|   \\  /    A nd           | Web:         http://www.extend-project.de       |
|    \\/     M anipulation  |                                                 |
\*---------------------------------------------------------------------------*/
FoamFile
{
    version     2.0;
    format      ascii;
    class       volVectorField;
    location    "2";
    object      U;
}
// * * * * * * * * * * * * * * * * * * * * * * * * * * * * * * * * * * * * * //

dimensions      [0 1 -1 0 0 0 0];

internalField   nonuniform List<vector> 
14592
(
(0.0188994 5.43657e-05 -0.00156854)
(0.0186432 0.000282773 -0.00348378)
(0.0182607 0.000346999 -0.00510003)
(0.0180612 0.000283347 -0.00648301)
(0.0182298 0.000168265 -0.00758868)
(0.0187329 6.33656e-05 -0.0084383)
(0.0194153 -1.3987e-06 -0.0091266)
(0.020093 -2.43987e-05 -0.00980062)
(0.0206167 -2.7206e-05 -0.0106408)
(0.0209115 -4.55665e-05 -0.0118531)
(0.0209846 -0.000124012 -0.0136796)
(0.0209121 -0.000329234 -0.0164299)
(0.0208173 -0.00072716 -0.0205265)
(0.0206277 -0.0012709 -0.0263711)
(0.0190521 -0.00133085 -0.0329107)
(0.0125235 0.000446623 -0.0297107)
(0.0528909 0.000201298 -0.00184308)
(0.0525222 0.000460424 -0.00564947)
(0.0520308 0.000263976 -0.00967082)
(0.0517764 -0.000230228 -0.0134805)
(0.0520552 -0.000728435 -0.0166543)
(0.0528572 -0.00100983 -0.0190346)
(0.0539398 -0.000993842 -0.0207315)
(0.0549683 -0.000719739 -0.0220502)
(0.0556269 -0.000297841 -0.0234142)
(0.0556997 0.00014075 -0.0253156)
(0.0550658 0.000460222 -0.0282997)
(0.0536479 0.000513049 -0.033013)
(0.0513407 0.000137566 -0.0403025)
(0.0476141 -0.00073157 -0.0509969)
(0.0397492 -0.00150094 -0.0624822)
(0.0214291 -2.16123e-05 -0.0516038)
(0.0822449 0.000346393 -0.00134431)
(0.0820096 0.000663216 -0.00493487)
(0.0814527 0.000236387 -0.009613)
(0.0807467 -0.000717867 -0.014772)
(0.0802623 -0.00171316 -0.0196027)
(0.0801926 -0.00230751 -0.0235344)
(0.0804715 -0.00228795 -0.0264022)
(0.0808334 -0.0016823 -0.0284212)
(0.0809226 -0.000676317 -0.0300799)
(0.0804051 0.000498107 -0.0320328)
(0.078996 0.00160943 -0.0350216)
(0.0764065 0.00245742 -0.0399123)
(0.0722731 0.00283875 -0.0478269)
(0.0657632 0.00255525 -0.0601693)
(0.0532973 0.00144847 -0.0743349)
(0.0262021 0.000773469 -0.0607982)
(0.106686 0.000371911 -0.000980894)
(0.106605 0.000784843 -0.00368068)
(0.106053 0.000361167 -0.00782228)
(0.104858 -0.000760658 -0.0131702)
(0.103287 -0.00204882 -0.0188694)
(0.101727 -0.0029056 -0.0240134)
(0.100408 -0.00295676 -0.0280451)
(0.0993126 -0.00214171 -0.0309045)
(0.0982109 -0.000643248 -0.0329806)
(0.0967553 0.00126381 -0.0349728)
(0.0945551 0.00329742 -0.0377445)
(0.0911495 0.00524903 -0.0423129)
(0.085971 0.00693259 -0.0499741)
(0.0779953 0.00811737 -0.0626883)
(0.0630363 0.00751611 -0.0785516)
(0.0297036 0.00335975 -0.0649401)
(0.126195 0.000352043 -0.000816999)
(0.126209 0.000867574 -0.0027981)
(0.125745 0.000664616 -0.00611665)
(0.12431 -0.000256018 -0.0110197)
(0.121919 -0.00145144 -0.0168947)
(0.118981 -0.00231493 -0.022728)
(0.11596 -0.00237866 -0.0276465)
(0.113141 -0.00147105 -0.0312707)
(0.110543 0.00031303 -0.0337998)
(0.10793 0.00273826 -0.035884)
(0.10491 0.00555014 -0.0384446)
(0.10092 0.00859551 -0.0425969)
(0.0952497 0.011754 -0.0497204)
(0.0867161 0.0149593 -0.0622076)
(0.0707862 0.0159023 -0.0790663)
(0.0328168 0.00796273 -0.0662586)
(0.140805 0.000340725 -0.000743526)
(0.14085 0.000948298 -0.00230951)
(0.140497 0.00105735 -0.0049684)
(0.139055 0.000590188 -0.00929815)
(0.136269 -0.000159226 -0.0149872)
(0.132438 -0.000700458 -0.0210787)
(0.128127 -0.000588232 -0.0265248)
(0.12386 0.000415402 -0.0306839)
(0.119918 0.00232379 -0.03355)
(0.116247 0.00501205 -0.0356813)
(0.112556 0.00833432 -0.0379954)
(0.108253 0.0122802 -0.0416486)
(0.102584 0.0168521 -0.0480149)
(0.0941798 0.0224375 -0.0597517)
(0.0785733 0.0262285 -0.0770067)
(0.036678 0.0152996 -0.0653851)
(0.150539 0.000349437 -0.0006948)
(0.150587 0.00103566 -0.00203661)
(0.150326 0.00146235 -0.00427412)
(0.14899 0.00155575 -0.00814382)
(0.146128 0.00147166 -0.0135532)
(0.141904 0.00151924 -0.0196473)
(0.136894 0.00201883 -0.0253106)
(0.131759 0.00319355 -0.0297363)
(0.126979 0.00513418 -0.03275)
(0.122684 0.0078619 -0.034807)
(0.118746 0.0113918 -0.0367763)
(0.114591 0.0159392 -0.0397859)
(0.109639 0.0216997 -0.0451104)
(0.102099 0.0299279 -0.0553784)
(0.0890101 0.0386071 -0.072345)
(0.0435535 0.0280925 -0.0619364)
(0.155404 0.000366122 -0.000650974)
(0.155458 0.00111654 -0.00185894)
(0.155272 0.00183952 -0.00386106)
(0.154069 0.00251587 -0.00744596)
(0.151308 0.00318642 -0.0126213)
(0.147072 0.0039557 -0.018599)
(0.141921 0.00496324 -0.0242499)
(0.136573 0.00635158 -0.028689)
(0.13163 0.00825326 -0.0316441)
(0.127348 0.0108215 -0.0334813)
(0.123785 0.0142393 -0.0349923)
(0.12042 0.0189439 -0.0371913)
(0.117325 0.0253687 -0.041171)
(0.111604 0.0356418 -0.0489203)
(0.10683 0.0530356 -0.064443)
(0.0595758 0.0487226 -0.0539855)
(0.020207 2.26139e-05 -0.00155559)
(0.0198829 0.00023845 -0.00340835)
(0.0193671 0.000305367 -0.00496221)
(0.0189772 0.000239896 -0.00631313)
(0.018918 0.000120318 -0.00742227)
(0.0191642 9.68907e-06 -0.00829853)
(0.019555 -5.97575e-05 -0.00901819)
(0.0198883 -8.51096e-05 -0.00970998)
(0.0199873 -8.87501e-05 -0.010537)
(0.01974 -0.000109815 -0.0116835)
(0.0191015 -0.000196902 -0.013352)
(0.0180646 -0.000411824 -0.0157662)
(0.0166088 -0.000808679 -0.0191276)
(0.0144015 -0.00132849 -0.0232916)
(0.0103623 -0.00165027 -0.0263244)
(0.0046478 -0.00130838 -0.0200153)
(0.0565886 0.000156723 -0.00177271)
(0.056106 0.000369443 -0.00535576)
(0.0553754 0.000132092 -0.00913085)
(0.0547517 -0.000416763 -0.0127621)
(0.0545555 -0.000977316 -0.0158668)
(0.0547931 -0.00130501 -0.0182702)
(0.0552218 -0.00130071 -0.020036)
(0.0554838 -0.00100047 -0.0214183)
(0.0552192 -0.000526028 -0.0227953)
(0.0541462 -2.955e-05 -0.0246135)
(0.0520548 0.000336395 -0.027356)
(0.0487328 0.000409618 -0.0315219)
(0.0438676 2.97987e-05 -0.0375641)
(0.0365148 -0.000855031 -0.0451331)
(0.0244701 -0.00194665 -0.049792)
(0.00947459 -0.00209973 -0.0352819)
(0.0879976 0.000302628 -0.0012814)
(0.087668 0.000573764 -0.00458175)
(0.0868981 8.95993e-05 -0.00885974)
(0.0858103 -0.000969673 -0.0136634)
(0.0847572 -0.00210622 -0.0182881)
(0.083946 -0.00282512 -0.0221797)
(0.0833288 -0.00286074 -0.0251214)
(0.0826426 -0.00221809 -0.0272492)
(0.081502 -0.00109555 -0.0289762)
(0.0795102 0.000237178 -0.030891)
(0.0762741 0.00151087 -0.0336572)
(0.0713362 0.00248555 -0.0379881)
(0.0640884 0.00293079 -0.0445847)
(0.0531325 0.00259497 -0.0533361)
(0.0351884 0.00115323 -0.0589627)
(0.0129378 -0.000856835 -0.0416472)
(0.114142 0.000332485 -0.000950297)
(0.113986 0.000719758 -0.0034064)
(0.113288 0.000266788 -0.0070915)
(0.111797 -0.000957925 -0.0119395)
(0.109699 -0.00242273 -0.0172751)
(0.10734 -0.00346692 -0.0222739)
(0.104969 -0.00363194 -0.0263492)
(0.102604 -0.00280036 -0.0293463)
(0.100029 -0.00114955 -0.0315475)
(0.0968631 0.00101303 -0.03356)
(0.0926118 0.00335255 -0.0361571)
(0.0866266 0.00561034 -0.0402001)
(0.0780519 0.0075655 -0.0465968)
(0.0651876 0.00883512 -0.0556471)
(0.0435583 0.00796596 -0.062025)
(0.0157653 0.00292424 -0.0442761)
(0.135012 0.00032096 -0.000806641)
(0.134947 0.000824305 -0.00263004)
(0.13438 0.000626176 -0.00551947)
(0.132758 -0.000352296 -0.00984771)
(0.12996 -0.00169484 -0.015226)
(0.126281 -0.00274667 -0.0207965)
(0.122157 -0.0029484 -0.0257036)
(0.117919 -0.00204587 -0.0294747)
(0.113649 -0.000100017 -0.032176)
(0.109129 0.00264336 -0.0343395)
(0.10389 0.00588971 -0.0367802)
(0.097191 0.00944446 -0.040452)
(0.0879971 0.0131819 -0.0463924)
(0.0744461 0.0168077 -0.0553146)
(0.0508547 0.0176208 -0.0621846)
(0.0185701 0.00911788 -0.044745)
(0.150645 0.000322931 -0.000738111)
(0.150598 0.000925576 -0.00221814)
(0.150149 0.00105937 -0.00450872)
(0.148596 0.000581822 -0.00824682)
(0.145536 -0.000250887 -0.0133515)
(0.141086 -0.000923245 -0.0190784)
(0.135719 -0.00091493 -0.0244509)
(0.129981 9.53396e-05 -0.0287519)
(0.124244 0.0021771 -0.0318278)
(0.118528 0.00521989 -0.0340932)
(0.112512 0.00907191 -0.0363468)
(0.105463 0.0137154 -0.0395802)
(0.0962732 0.0192151 -0.0448718)
(0.0830588 0.0257498 -0.0533028)
(0.0589816 0.0297413 -0.0604027)
(0.0223992 0.0185792 -0.0434763)
(0.161062 0.0003458 -0.000690923)
(0.161006 0.00103791 -0.00199027)
(0.160644 0.00149471 -0.00391314)
(0.159238 0.00160725 -0.00720189)
(0.156203 0.00150591 -0.0119817)
(0.151485 0.00150943 -0.0176417)
(0.145512 0.00198613 -0.0231806)
(0.138935 0.00322214 -0.0277376)
(0.132335 0.0053646 -0.0309876)
(0.125951 0.00847153 -0.033228)
(0.11968 0.0125904 -0.035201)
(0.112873 0.0179862 -0.0378796)
(0.104556 0.0250047 -0.0422827)
(0.0928772 0.0349177 -0.0497573)
(0.0708549 0.0444827 -0.0568343)
(0.0295677 0.0345475 -0.0402717)
(0.16627 0.000376072 -0.000649639)
(0.166217 0.00114651 -0.00183571)
(0.165926 0.00189731 -0.00355426)
(0.164675 0.00260783 -0.00657276)
(0.161804 0.00331757 -0.0111037)
(0.157165 0.00413634 -0.0166148)
(0.151143 0.00522347 -0.0221136)
(0.144427 0.00675364 -0.0266774)
(0.137716 0.00889812 -0.0298869)
(0.131408 0.0118584 -0.0319481)
(0.125631 0.0158788 -0.0335267)
(0.119869 0.0215158 -0.035515)
(0.113799 0.0293949 -0.0387826)
(0.105098 0.0422764 -0.0446417)
(0.0925535 0.0620032 -0.0516195)
(0.045706 0.0580576 -0.03441)
(0.0213218 -8.43092e-06 -0.00146836)
(0.0209338 0.000193318 -0.0031816)
(0.0202984 0.000259594 -0.00460869)
(0.0197421 0.000190331 -0.00586401)
(0.0194857 6.36746e-05 -0.00691629)
(0.0195094 -5.54858e-05 -0.00776526)
(0.0196473 -0.000132499 -0.00846796)
(0.0196821 -0.000162889 -0.00912922)
(0.0194176 -0.000168976 -0.00988473)
(0.0187208 -0.00019014 -0.0108836)
(0.0175253 -0.000278354 -0.0122742)
(0.0158063 -0.000477227 -0.0141835)
(0.0135292 -0.000823595 -0.0166427)
(0.0104558 -0.00125348 -0.0192689)
(0.00622702 -0.00162143 -0.0201686)
(0.001932 -0.00152299 -0.0134915)
(0.0597532 0.0001157 -0.00163345)
(0.0591665 0.000282753 -0.00487608)
(0.0582269 4.10695e-06 -0.0082772)
(0.0572885 -0.000600503 -0.0115843)
(0.0566903 -0.00122609 -0.0144694)
(0.0564481 -0.00160656 -0.0167578)
(0.056315 -0.00162378 -0.0184754)
(0.0559131 -0.00130827 -0.0198202)
(0.0548493 -0.000790327 -0.0211079)
(0.0528003 -0.000238632 -0.0227128)
(0.0495204 0.000185083 -0.0250202)
(0.0447712 0.000321882 -0.028364)
(0.0382413 3.75417e-05 -0.03288)
(0.0292052 -0.000709861 -0.0377409)
(0.0169871 -0.00185849 -0.0386732)
(0.00490853 -0.00234786 -0.0239918)
(0.0929252 0.000263257 -0.00117299)
(0.0925077 0.000489222 -0.00410771)
(0.0915508 -4.74035e-05 -0.00787923)
(0.0901444 -0.00120442 -0.0121677)
(0.088623 -0.00247739 -0.0163869)
(0.0871944 -0.00332505 -0.0200319)
(0.0858172 -0.00343028 -0.0228626)
(0.0842274 -0.00277094 -0.0249458)
(0.0820193 -0.00155215 -0.0266071)
(0.0787604 -7.45498e-05 -0.0283381)
(0.074009 0.00136396 -0.0306857)
(0.0672615 0.00250057 -0.0341747)
(0.0578972 0.00311142 -0.0391395)
(0.0446735 0.00293264 -0.0448061)
(0.0263084 0.00142103 -0.0459233)
(0.00759038 -0.000975197 -0.0280177)
(0.12053 0.000297203 -0.000879431)
(0.1203 0.000655984 -0.00305169)
(0.119466 0.000179334 -0.00623245)
(0.117731 -0.00113202 -0.0104632)
(0.115212 -0.0027571 -0.0152369)
(0.112208 -0.00398396 -0.0198449)
(0.108962 -0.00427518 -0.0237201)
(0.105515 -0.00345272 -0.0266458)
(0.101664 -0.00167933 -0.0288009)
(0.097024 0.000711468 -0.0306732)
(0.0910567 0.00333914 -0.0329023)
(0.0830577 0.00590776 -0.0361529)
(0.0721308 0.00817649 -0.0409582)
(0.0565849 0.00969033 -0.046823)
(0.0340961 0.00877501 -0.0482517)
(0.0100082 0.00332056 -0.0293871)
(0.142569 0.000295422 -0.000753352)
(0.142425 0.000781862 -0.00238939)
(0.141747 0.000590488 -0.00484685)
(0.139962 -0.000429218 -0.00854099)
(0.136852 -0.00189652 -0.0132586)
(0.132599 -0.00312344 -0.0183142)
(0.127587 -0.00346946 -0.0229276)
(0.122161 -0.00259771 -0.0265885)
(0.116454 -0.000526594 -0.0292526)
(0.110286 0.00249436 -0.0313166)
(0.103181 0.00613474 -0.0334443)
(0.0943497 0.0101627 -0.0363851)
(0.082706 0.0144314 -0.0408166)
(0.0662499 0.0185036 -0.0465752)
(0.0413209 0.0193551 -0.0482811)
(0.0126934 0.0103955 -0.0293397)
(0.159078 0.000309058 -0.000690412)
(0.158941 0.000904361 -0.00204813)
(0.158382 0.00106213 -0.00398936)
(0.156716 0.000586081 -0.00712344)
(0.15345 -0.000309993 -0.0115227)
(0.148545 -0.00109879 -0.0166476)
(0.142358 -0.00119685 -0.0216474)
(0.135417 -0.000203112 -0.0258002)
(0.128156 0.00201229 -0.0288467)
(0.120677 0.00536035 -0.0310524)
(0.112697 0.0096807 -0.0330547)
(0.103467 0.0149409 -0.0356359)
(0.0918408 0.0212199 -0.039546)
(0.0757153 0.0285221 -0.0449584)
(0.0498043 0.0327714 -0.046871)
(0.0166651 0.0211417 -0.0282007)
(0.170083 0.000343413 -0.000646298)
(0.169931 0.00104259 -0.00185869)
(0.169447 0.00152957 -0.00349326)
(0.167949 0.00166776 -0.00621843)
(0.164785 0.00156047 -0.010283)
(0.159725 0.00152801 -0.0152923)
(0.153034 0.00197755 -0.0204059)
(0.145307 0.00325358 -0.0247884)
(0.13718 0.00556003 -0.028019)
(0.129003 0.00899257 -0.0302428)
(0.120753 0.0136229 -0.0320386)
(0.111811 0.0197407 -0.0341753)
(0.101183 0.0277672 -0.0373932)
(0.0868963 0.0388656 -0.0421805)
(0.0625408 0.0490463 -0.044288)
(0.0242651 0.0388258 -0.0259613)
(0.175587 0.000387318 -0.00060786)
(0.175436 0.00118064 -0.0017255)
(0.175019 0.00196179 -0.00318971)
(0.173688 0.00270859 -0.00567348)
(0.170737 0.00345786 -0.0094957)
(0.165836 0.00432244 -0.0143406)
(0.159188 0.00547816 -0.0193929)
(0.151402 0.00712901 -0.0237743)
(0.143227 0.00948252 -0.0269809)
(0.135183 0.0127832 -0.0290715)
(0.127516 0.0173231 -0.0305569)
(0.119786 0.0237315 -0.0321507)
(0.111646 0.0327494 -0.0345084)
(0.100997 0.0473339 -0.0382986)
(0.0860062 0.0682593 -0.0409185)
(0.040676 0.0631735 -0.0224069)
(0.0222471 -3.59722e-05 -0.00131134)
(0.0218007 0.000152239 -0.00281525)
(0.02106 0.000215829 -0.00405964)
(0.0203613 0.000141489 -0.00516357)
(0.0199387 6.44717e-06 -0.00610365)
(0.019777 -0.00012272 -0.00687387)
(0.0197058 -0.000208953 -0.00751379)
(0.0194974 -0.000245911 -0.00810326)
(0.0189435 -0.000255215 -0.00874756)
(0.0179022 -0.000275567 -0.00955858)
(0.0163098 -0.000355545 -0.0106355)
(0.0141546 -0.000529529 -0.0120365)
(0.0114371 -0.000812615 -0.0137078)
(0.00806901 -0.00114318 -0.0152324)
(0.00415885 -0.00145605 -0.0150942)
(0.000875285 -0.00135098 -0.00937997)
(0.0623878 8.02574e-05 -0.00143056)
(0.0617076 0.000204793 -0.00423139)
(0.0605875 -0.000110702 -0.007153)
(0.059385 -0.000766713 -0.0100153)
(0.058454 -0.00145441 -0.0125505)
(0.0578165 -0.00188865 -0.0145985)
(0.0572206 -0.00193307 -0.0161588)
(0.0562721 -0.00161094 -0.0173761)
(0.0545569 -0.00105792 -0.0184982)
(0.051732 -0.000454639 -0.0198201)
(0.0475521 3.30685e-05 -0.0216271)
(0.0418096 0.000255181 -0.0241256)
(0.0342856 0.000107514 -0.027277)
(0.0245867 -0.000449185 -0.0301802)
(0.0130152 -0.0014861 -0.0293678)
(0.00300059 -0.00205071 -0.0168907)
(0.0970283 0.00022999 -0.00102235)
(0.0965325 0.000415344 -0.00352449)
(0.0954148 -0.000165983 -0.0067096)
(0.0937433 -0.00140783 -0.0103607)
(0.0918409 -0.00280395 -0.0140126)
(0.0899107 -0.00377446 -0.0172319)
(0.0879118 -0.00395481 -0.0197828)
(0.085578 -0.00329416 -0.021681)
(0.0824928 -0.00199863 -0.0231666)
(0.0782088 -0.000392962 -0.0246245)
(0.072279 0.00120273 -0.0264825)
(0.0642243 0.00251666 -0.0291024)
(0.053518 0.00333939 -0.0325956)
(0.0392826 0.00340086 -0.0360183)
(0.0215332 0.0020128 -0.0349946)
(0.00532004 -0.00055733 -0.0196477)
(0.125852 0.000268361 -0.000772058)
(0.125554 0.000600013 -0.00261954)
(0.124596 0.000105145 -0.00526369)
(0.122657 -0.00127557 -0.00879968)
(0.119802 -0.00303812 -0.0128642)
(0.116287 -0.0044315 -0.0168803)
(0.112337 -0.00484879 -0.0203398)
(0.108004 -0.00405283 -0.0230019)
(0.103104 -0.00218617 -0.0249601)
(0.097262 0.000399356 -0.0265824)
(0.0899435 0.0032869 -0.0283669)
(0.0804618 0.006151 -0.0308029)
(0.0679938 0.00873849 -0.0341744)
(0.0511438 0.010547 -0.0377219)
(0.02906 0.00974438 -0.0367608)
(0.0076055 0.00402195 -0.0204276)
(0.148864 0.000274218 -0.000663633)
(0.148648 0.000742768 -0.0020749)
(0.147863 0.000559663 -0.00409877)
(0.145933 -0.000486572 -0.00713203)
(0.142577 -0.00205404 -0.0110821)
(0.137884 -0.00343421 -0.01543)
(0.132174 -0.00391848 -0.0195092)
(0.125791 -0.00309312 -0.0228262)
(0.118907 -0.000931605 -0.0252638)
(0.111394 0.00232034 -0.0270933)
(0.102808 0.00630128 -0.0288236)
(0.0923873 0.0107454 -0.0310183)
(0.0791096 0.0154779 -0.0340991)
(0.0611564 0.0199593 -0.0375673)
(0.036349 0.020951 -0.0367471)
(0.0103108 0.0116188 -0.0202265)
(0.166107 0.000297701 -0.000609241)
(0.165891 0.000885868 -0.001799)
(0.165218 0.00106536 -0.00339972)
(0.163437 0.000598771 -0.00593856)
(0.160006 -0.000342172 -0.00956806)
(0.154765 -0.0012284 -0.0139221)
(0.147956 -0.00142637 -0.0183042)
(0.140065 -0.000463784 -0.0220496)
(0.131568 0.00184832 -0.0248473)
(0.12265 0.00544521 -0.026837)
(0.113102 0.0101577 -0.0284952)
(0.102229 0.0159336 -0.0304142)
(0.0889578 0.0228369 -0.0330986)
(0.0712602 0.0307303 -0.0363418)
(0.045148 0.035226 -0.0357023)
(0.0144452 0.0231402 -0.0193356)
(0.177603 0.000343165 -0.000568577)
(0.177368 0.00104899 -0.00164388)
(0.176761 0.00156368 -0.00299967)
(0.175157 0.00173014 -0.0051898)
(0.171883 0.00162546 -0.00850643)
(0.16658 0.001566 -0.0127218)
(0.159363 0.00198832 -0.0171724)
(0.150749 0.00328723 -0.0211108)
(0.141399 0.00571953 -0.0240853)
(0.131761 0.00941572 -0.0261226)
(0.121922 0.0144643 -0.0276425)
(0.111348 0.0211627 -0.0292279)
(0.0991433 0.0299541 -0.0314033)
(0.0833779 0.0418694 -0.0342684)
(0.0584452 0.0524564 -0.0339221)
(0.0223469 0.0418139 -0.0178354)
(0.183354 0.000398817 -0.000533962)
(0.18312 0.00121481 -0.00153177)
(0.182576 0.00202561 -0.00275103)
(0.181147 0.00280805 -0.0047377)
(0.17812 0.00359522 -0.00783621)
(0.173043 0.00450109 -0.0118895)
(0.165952 0.00571412 -0.0162682)
(0.157357 0.00746306 -0.0201987)
(0.148021 0.00998671 -0.0231619)
(0.138567 0.0135651 -0.0251088)
(0.129369 0.0185244 -0.0264014)
(0.120105 0.0255344 -0.0275851)
(0.110525 0.0353894 -0.0291454)
(0.0986914 0.0510712 -0.0314255)
(0.0828755 0.0726676 -0.0317957)
(0.0388462 0.0664438 -0.0155777)
(0.0229856 -5.74738e-05 -0.00109196)
(0.0224886 0.000116837 -0.00232701)
(0.021659 0.000177602 -0.00334273)
(0.0208431 9.8191e-05 -0.00424921)
(0.0202861 -4.51115e-05 -0.00503018)
(0.0199767 -0.000184208 -0.00567707)
(0.019742 -0.000279798 -0.00621523)
(0.0193469 -0.000323572 -0.00670146)
(0.0185769 -0.00033609 -0.00721207)
(0.0172905 -0.000355085 -0.00782577)
(0.0154339 -0.000425092 -0.00860389)
(0.0130203 -0.000571122 -0.00956614)
(0.0100935 -0.000794295 -0.0106325)
(0.00667629 -0.00103753 -0.0114469)
(0.00310505 -0.00127924 -0.0109106)
(0.000450161 -0.00115007 -0.0064892)
(0.0644927 5.21318e-05 -0.00117273)
(0.0637341 0.000140591 -0.00344672)
(0.0624648 -0.0002063 -0.00580451)
(0.0610477 -0.000906253 -0.00812619)
(0.0598508 -0.00164847 -0.0102056)
(0.058901 -0.0021322 -0.0119081)
(0.0579417 -0.00220479 -0.0132184)
(0.0565673 -0.00188176 -0.0142357)
(0.0543508 -0.00130149 -0.0151422)
(0.050946 -0.000651843 -0.0161565)
(0.0461234 -0.000103841 -0.0174783)
(0.0397286 0.000206249 -0.0192273)
(0.0316483 0.000196645 -0.0212984)
(0.0217529 -0.000174536 -0.0229118)
(0.0108452 -0.00106224 -0.0215051)
(0.00216657 -0.00167487 -0.0118339)
(0.10031 0.00020297 -0.000834953)
(0.0997474 0.000355262 -0.00284591)
(0.0984954 -0.000262039 -0.0053849)
(0.0966101 -0.00157296 -0.00830894)
(0.0944068 -0.00307283 -0.0112687)
(0.0920842 -0.00415142 -0.0139177)
(0.0895988 -0.00440347 -0.0160478)
(0.0866826 -0.00375086 -0.0176439)
(0.0829159 -0.00239714 -0.0188717)
(0.0778485 -0.000683752 -0.0200151)
(0.07105 0.00105139 -0.0213888)
(0.0620966 0.00253286 -0.0232327)
(0.0505795 0.00356492 -0.0255494)
(0.0359446 0.00387005 -0.0274843)
(0.0188828 0.0026576 -0.0257399)
(0.00430692 -4.00467e-05 -0.0137746)
(0.13011 0.00024562 -0.000633386)
(0.129753 0.000552868 -0.00211849)
(0.128688 4.57351e-05 -0.00420178)
(0.126582 -0.00138734 -0.00699276)
(0.123465 -0.00326088 -0.010244)
(0.119556 -0.00479575 -0.0135135)
(0.115061 -0.00532753 -0.0163812)
(0.110038 -0.0045661 -0.0186185)
(0.104319 -0.00263158 -0.0202596)
(0.09755 0.000110533 -0.0215644)
(0.0892213 0.00321825 -0.0229004)
(0.0786958 0.00634057 -0.0246127)
(0.0652571 0.00921496 -0.0268421)
(0.047808 0.0113044 -0.0288531)
(0.0262978 0.0106607 -0.0270648)
(0.00657099 0.00473047 -0.0142616)
(0.1539 0.00025768 -0.000546141)
(0.153624 0.000709584 -0.0016926)
(0.152743 0.00053443 -0.00327899)
(0.150686 -0.00052706 -0.0056413)
(0.147137 -0.00217062 -0.00875894)
(0.142112 -0.00367666 -0.0122603)
(0.135875 -0.00428273 -0.0156157)
(0.128755 -0.00350892 -0.0183943)
(0.120955 -0.00128597 -0.0204487)
(0.112399 0.00214787 -0.0219503)
(0.102695 0.00640644 -0.0232665)
(0.0911402 0.0111936 -0.0248038)
(0.0768071 0.0163065 -0.0268204)
(0.0581066 0.0211323 -0.0287771)
(0.0336891 0.0222881 -0.0270572)
(0.00933893 0.0126514 -0.0140599)
(0.171732 0.000289295 -0.000500509)
(0.17145 0.00087116 -0.00147825)
(0.170675 0.00106844 -0.00273734)
(0.168785 0.000615068 -0.00469615)
(0.16522 -0.000355467 -0.00752757)
(0.159731 -0.00131847 -0.0109992)
(0.152463 -0.00160291 -0.0145778)
(0.143853 -0.000677307 -0.0177035)
(0.134403 0.00169987 -0.020069)
(0.124371 0.00548885 -0.0217254)
(0.11363 0.0105119 -0.0230086)
(0.101568 0.0166952 -0.0243486)
(0.0872128 0.0240761 -0.0260807)
(0.0686839 0.0324121 -0.0278997)
(0.0427413 0.0371213 -0.0263268)
(0.0136143 0.024651 -0.0134187)
(0.18362 0.000344704 -0.000465644)
(0.183318 0.001056 -0.00135642)
(0.182601 0.00159429 -0.00242979)
(0.180893 0.00178771 -0.00411111)
(0.177521 0.00169074 -0.00667643)
(0.172043 0.00161257 -0.0100115)
(0.164449 0.00201067 -0.0136248)
(0.155177 0.00332032 -0.0169015)
(0.144894 0.0058438 -0.019421)
(0.134127 0.00974161 -0.0211378)
(0.123071 0.0151136 -0.0223371)
(0.111301 0.0222547 -0.0234425)
(0.0980333 0.0316031 -0.0248195)
(0.0814454 0.0440778 -0.0264231)
(0.0564158 0.0549497 -0.0251388)
(0.0217286 0.0439461 -0.0124329)
(0.189567 0.000409284 -0.00043636)
(0.189268 0.00124583 -0.00126645)
(0.188614 0.00208305 -0.00223575)
(0.187083 0.00289755 -0.00375656)
(0.183983 0.00371865 -0.00614096)
(0.178781 0.00465997 -0.00933258)
(0.171384 0.00591892 -0.012875)
(0.1622 0.00774372 -0.0161401)
(0.151986 0.0103983 -0.0186563)
(0.141442 0.0141905 -0.0203171)
(0.131066 0.0194694 -0.0213609)
(0.120656 0.0269259 -0.0221861)
(0.11008 0.0373707 -0.0231439)
(0.0975425 0.0537609 -0.0244188)
(0.0814426 0.0757782 -0.023808)
(0.0382662 0.0687066 -0.0109485)
(0.0235384 -7.25887e-05 -0.000819251)
(0.0230008 8.81054e-05 -0.00173769)
(0.0221014 0.000146444 -0.00248905)
(0.0211954 6.23979e-05 -0.00316216)
(0.020537 -8.83479e-05 -0.00374684)
(0.020118 -0.000236305 -0.00423475)
(0.0197639 -0.000340263 -0.00464068)
(0.0192356 -0.000390129 -0.0050017)
(0.0183156 -0.000405315 -0.00536853)
(0.0168658 -0.000422412 -0.00579212)
(0.0148453 -0.000481707 -0.00630871)
(0.0122899 -0.000604682 -0.00691926)
(0.00927679 -0.000780486 -0.00755219)
(0.0058957 -0.000956286 -0.00794817)
(0.00257742 -0.00113672 -0.00737868)
(0.000287386 -0.000994495 -0.0042724)
(0.0660686 3.17727e-05 -0.000870001)
(0.0652487 9.17611e-05 -0.00254639)
(0.0638647 -0.000280198 -0.00427667)
(0.062284 -0.00101492 -0.00598546)
(0.0608879 -0.00180116 -0.00752792)
(0.0597068 -0.0023262 -0.00880266)
(0.0584811 -0.00242412 -0.00979039)
(0.0567972 -0.00210334 -0.0105535)
(0.0542216 -0.00150327 -0.0112151)
(0.050411 -0.000817213 -0.0119237)
(0.0451573 -0.000217197 -0.0128107)
(0.0383563 0.000168619 -0.013941)
(0.0299824 0.000274452 -0.0152078)
(0.0200775 5.36998e-05 -0.0160342)
(0.00967414 -0.000707651 -0.0146887)
(0.00180816 -0.00136174 -0.00786924)
(0.10277 0.000182961 -0.000617482)
(0.102154 0.000309967 -0.00209056)
(0.100798 -0.000334273 -0.00393689)
(0.0987499 -0.0016972 -0.00606875)
(0.0963228 -0.00327771 -0.00824485)
(0.0937111 -0.00444324 -0.0102134)
(0.0908691 -0.00475631 -0.0118128)
(0.0875272 -0.00411568 -0.0130164)
(0.0832653 -0.00272064 -0.0139294)
(0.0776386 -0.000924071 -0.0147452)
(0.0702398 0.000922844 -0.0156755)
(0.0606993 0.00254384 -0.0168728)
(0.0487111 0.00375157 -0.0183024)
(0.0339456 0.00426025 -0.0193169)
(0.0174275 0.00320332 -0.0176592)
(0.00386605 0.000404462 -0.0091823)
(0.133302 0.000228086 -0.00046911)
(0.132898 0.000516325 -0.00155823)
(0.131749 1.4967e-06 -0.00306132)
(0.129513 -0.00146816 -0.00507451)
(0.126202 -0.0034248 -0.00744138)
(0.122005 -0.00507027 -0.00985187)
(0.117115 -0.00569609 -0.0119937)
(0.111588 -0.00496899 -0.0136807)
(0.105273 -0.00298845 -0.0149143)
(0.0978346 -0.000128346 -0.0158646)
(0.088796 0.00314994 -0.016781)
(0.0775724 0.00647683 -0.0178922)
(0.0635437 0.00958164 -0.0192642)
(0.0458325 0.0119022 -0.0203231)
(0.0247998 0.0114066 -0.0185933)
(0.00614286 0.00531274 -0.00949298)
(0.157678 0.000245402 -0.000406192)
(0.157355 0.000684472 -0.00125205)
(0.156395 0.000516229 -0.00239393)
(0.154235 -0.000553246 -0.00408163)
(0.150541 -0.00225088 -0.00632858)
(0.145278 -0.00385258 -0.00888884)
(0.138662 -0.00455638 -0.0113803)
(0.13101 -0.0038302 -0.0134705)
(0.122543 -0.00156919 -0.0150218)
(0.113232 0.00199806 -0.0161335)
(0.102735 0.00646675 -0.0170496)
(0.0904106 0.0115152 -0.0180449)
(0.0754179 0.0169169 -0.0192738)
(0.056349 0.0220086 -0.0202983)
(0.0322884 0.0233104 -0.0186)
(0.00897371 0.0134383 -0.00934157)
(0.17595 0.000284227 -0.000370847)
(0.175618 0.000860511 -0.00109822)
(0.17476 0.00107165 -0.0020076)
(0.172778 0.000631399 -0.00339863)
(0.169107 -0.000357168 -0.00542183)
(0.163441 -0.00137639 -0.0079413)
(0.155851 -0.00172915 -0.0105838)
(0.146729 -0.000838701 -0.0129285)
(0.136591 0.00157875 -0.0147202)
(0.125752 0.00550613 -0.0159591)
(0.11416 0.0107583 -0.0168656)
(0.10128 0.0172416 -0.0177314)
(0.0862314 0.0249676 -0.0187712)
(0.067263 0.0336209 -0.0197164)
(0.0415294 0.0384995 -0.0181253)
(0.0133571 0.0257352 -0.00891623)
(0.188133 0.000346892 -0.000344221)
(0.187781 0.00106233 -0.00101022)
(0.186976 0.00161885 -0.00178991)
(0.185176 0.00183533 -0.00298017)
(0.181723 0.00174791 -0.0048017)
(0.176119 0.00165792 -0.00720776)
(0.168268 0.00203673 -0.00986404)
(0.158534 0.00334971 -0.0123162)
(0.147583 0.00593524 -0.0142261)
(0.136 0.0099767 -0.0155223)
(0.124071 0.0155821 -0.0163835)
(0.111467 0.0230401 -0.0170972)
(0.0975039 0.0327748 -0.0179059)
(0.0804579 0.0456252 -0.018735)
(0.0554585 0.0567011 -0.0173707)
(0.0216207 0.0454289 -0.00829102)
(0.194227 0.000417784 -0.000322059)
(0.19388 0.00127116 -0.000944267)
(0.193139 0.00212969 -0.00165087)
(0.191518 0.00297037 -0.00272578)
(0.188352 0.0038193 -0.00441254)
(0.183062 0.00478886 -0.00670681)
(0.175459 0.00608231 -0.00930386)
(0.16587 0.00796207 -0.0117442)
(0.155032 0.0107107 -0.0136547)
(0.143701 0.0146563 -0.0149199)
(0.132474 0.0201631 -0.0156834)
(0.121254 0.0279318 -0.0162164)
(0.11001 0.038773 -0.016757)
(0.0970576 0.0556137 -0.0174102)
(0.0808706 0.0779108 -0.0165546)
(0.0381831 0.0702584 -0.00733233)
(0.0239046 -8.28713e-05 -0.000503228)
(0.023339 6.87664e-05 -0.00106627)
(0.0223926 0.000123339 -0.00152376)
(0.0214256 3.4378e-05 -0.00193391)
(0.0206993 -0.000123263 -0.00229211)
(0.020208 -0.000278862 -0.00259258)
(0.0197765 -0.000389717 -0.00284273)
(0.0191633 -0.000444453 -0.00306302)
(0.0181502 -0.000461615 -0.00328184)
(0.0166021 -0.000476868 -0.0035272)
(0.0144888 -0.000528893 -0.00381768)
(0.0118622 -0.000635685 -0.00414964)
(0.00882032 -0.000779808 -0.00447588)
(0.00548738 -0.000911029 -0.00464332)
(0.00232889 -0.00104887 -0.00424182)
(0.000235498 -0.000898261 -0.00241722)
(0.0671171 1.83809e-05 -0.000530208)
(0.0662535 5.82783e-05 -0.00155103)
(0.0647918 -0.000331077 -0.00260116)
(0.0631013 -0.00109046 -0.00363889)
(0.0615726 -0.00190855 -0.00458038)
(0.0602394 -0.0024642 -0.00536321)
(0.0588399 -0.00258183 -0.00597234)
(0.0569558 -0.00226445 -0.00644135)
(0.0541508 -0.00165174 -0.00684024)
(0.0500848 -0.000940781 -0.00725405)
(0.044569 -0.000303635 -0.00775744)
(0.0375361 0.000136798 -0.0083809)
(0.0290183 0.000323548 -0.00905092)
(0.0191551 0.000205891 -0.00942225)
(0.00907841 -0.000468476 -0.00850603)
(0.00167015 -0.0011529 -0.00448407)
(0.104407 0.000170282 -0.00037525)
(0.103754 0.000279549 -0.00126973)
(0.102327 -0.000381707 -0.00238289)
(0.100169 -0.0017789 -0.00366932)
(0.0975935 -0.00341459 -0.00498974)
(0.094792 -0.00464148 -0.00619271)
(0.0917172 -0.00499953 -0.00717662)
(0.0880984 -0.00437054 -0.00791906)
(0.0835159 -0.00294955 -0.00847672)
(0.0775315 -0.00109754 -0.00896071)
(0.0697587 0.000827504 -0.00949249)
(0.0598677 0.00254744 -0.010155)
(0.0476237 0.00387937 -0.0109165)
(0.0328319 0.00453078 -0.0113839)
(0.0166737 0.00358384 -0.0102582)
(0.00369275 0.000713294 -0.00524354)
(0.135427 0.000216299 -0.000285162)
(0.13499 0.000492667 -0.00094651)
(0.133784 -2.63809e-05 -0.00184835)
(0.13146 -0.00151838 -0.00305435)
(0.128018 -0.00352981 -0.00448081)
(0.123635 -0.00525128 -0.00594607)
(0.118487 -0.00594432 -0.00725925)
(0.112633 -0.00524504 -0.00830013)
(0.105929 -0.00323683 -0.00905968)
(0.0980603 -0.000298921 -0.00963275)
(0.0885734 0.00309531 -0.0101613)
(0.076924 0.006563 -0.0107761)
(0.0625608 0.00982739 -0.0115051)
(0.0447431 0.0123097 -0.011995)
(0.0240337 0.0119224 -0.0108132)
(0.00598891 0.00571486 -0.00541771)
(0.160196 0.000237173 -0.000247557)
(0.159839 0.000668035 -0.000762977)
(0.158824 0.000505304 -0.00144713)
(0.156593 -0.000566999 -0.00245147)
(0.1528 -0.00229842 -0.00379619)
(0.147382 -0.00396416 -0.00534374)
(0.140523 -0.00473644 -0.00686542)
(0.132527 -0.00404702 -0.00815311)
(0.123628 -0.00176613 -0.00911153)
(0.113828 0.00188853 -0.00978942)
(0.102826 0.00649743 -0.0103241)
(0.0900257 0.0117211 -0.0108742)
(0.0746497 0.0173166 -0.0115217)
(0.0554055 0.0225888 -0.0119925)
(0.0315941 0.0239969 -0.0108241)
(0.00886671 0.0139642 -0.00532774)
(0.178761 0.000281552 -0.000225595)
(0.178395 0.000853705 -0.000671276)