/*--------------------------------*- C++ -*----------------------------------*\
| =========                 |                                                 |
| \\      /  F ield         | foam-extend: Open Source CFD                    |
|  \\    /   O peration     | Version:     3.1                                |
|   \\  /    A nd           | Web:         http://www.extend-project.de       |
|    \\/     M anipulation  |                                                 |
\*---------------------------------------------------------------------------*/
FoamFile
{
    version     2.0;
    format      ascii;
    class       volVectorField;
    location    "1.1";
    object      cellMotionU;
}
// * * * * * * * * * * * * * * * * * * * * * * * * * * * * * * * * * * * * * //

dimensions      [0 1 -1 0 0 0 0];

internalField   nonuniform List<vector> 
14592
(
(-3.65035e-11 6.8389e-12 -6.41746e-11)
(-1.04038e-10 1.92664e-11 -1.89522e-10)
(-1.60604e-10 2.89244e-11 -3.14546e-10)
(-2.05259e-10 3.48988e-11 -4.4917e-10)
(-2.36245e-10 3.57277e-11 -6.02892e-10)
(-2.50386e-10 2.90936e-11 -7.85375e-10)
(-2.41999e-10 1.1415e-11 -1.00632e-09)
(-2.02372e-10 -2.22653e-11 -1.27725e-09)
(-1.17758e-10 -7.85786e-11 -1.61078e-09)
(3.29499e-11 -1.6523e-10 -2.02039e-09)
(2.80752e-10 -2.88803e-10 -2.52068e-09)
(6.69836e-10 -4.48431e-10 -3.12034e-09)
(1.25769e-09 -6.20568e-10 -3.81798e-09)
(2.10468e-09 -7.26297e-10 -4.58695e-09)
(3.21749e-09 -5.80909e-10 -5.34117e-09)
(4.2906e-09 6.76005e-12 -5.85818e-09)
(-1.0986e-10 2.05773e-11 -1.89556e-10)
(-3.13411e-10 5.81164e-11 -5.59785e-10)
(-4.84814e-10 8.75911e-11 -9.28912e-10)
(-6.21813e-10 1.06528e-10 -1.32598e-09)
(-7.19972e-10 1.10788e-10 -1.7788e-09)
(-7.71374e-10 9.3746e-11 -2.31615e-09)
(-7.60562e-10 4.50136e-11 -2.9649e-09)
(-6.65244e-10 -4.99728e-11 -3.75951e-09)
(-4.49911e-10 -2.11297e-10 -4.73658e-09)
(-6.00259e-11 -4.63925e-10 -5.93477e-09)
(5.82309e-10 -8.34997e-10 -7.40261e-09)
(1.58634e-09 -1.34229e-09 -9.16963e-09)
(3.08504e-09 -1.97211e-09 -1.12468e-08)
(5.19209e-09 -2.63634e-09 -1.35917e-08)
(7.84394e-09 -3.12493e-09 -1.60295e-08)
(1.02208e-08 -3.18685e-09 -1.79824e-08)
(-1.85308e-10 3.46938e-11 -3.08719e-10)
(-5.2944e-10 9.82478e-11 -9.11357e-10)
(-8.2171e-10 1.49188e-10 -1.51114e-09)
(-1.0602e-09 1.83989e-10 -2.15466e-09)
(-1.2399e-09 1.96501e-10 -2.88628e-09)
(-1.35036e-09 1.7658e-10 -3.74834e-09)
(-1.3745e-09 1.08747e-10 -4.78799e-09)
(-1.28466e-09 -3.04116e-11 -6.05963e-09)
(-1.038e-09 -2.73398e-10 -7.62063e-09)
(-5.69428e-10 -6.65889e-10 -9.54009e-09)
(2.14159e-10 -1.26449e-09 -1.18849e-08)
(1.43253e-09 -2.13422e-09 -1.4712e-08)
(3.21878e-09 -3.3425e-09 -1.80623e-08)
(5.63616e-09 -4.94627e-09 -2.19223e-08)
(8.48452e-09 -6.96506e-09 -2.60812e-08)
(1.0753e-08 -9.08489e-09 -2.96253e-08)
(-2.63159e-10 4.91022e-11 -4.17798e-10)
(-7.53258e-10 1.39641e-10 -1.23265e-09)
(-1.17393e-09 2.14082e-10 -2.04151e-09)
(-1.52584e-09 2.68726e-10 -2.90595e-09)
(-1.80628e-09 2.96492e-10 -3.88329e-09)
(-2.00715e-09 2.85283e-10 -5.02948e-09)
(-2.11632e-09 2.16206e-10 -6.40883e-09)
(-2.111e-09 6.00161e-11 -8.0892e-09)
(-1.95733e-09 -2.26049e-10 -1.01472e-08)
(-1.60685e-09 -7.03146e-10 -1.26705e-08)
(-9.90243e-10 -1.45591e-09 -1.57413e-08)
(-2.5827e-11 -2.59821e-09 -1.94496e-08)
(1.37173e-09 -4.28281e-09 -2.38732e-08)
(3.19874e-09 -6.68184e-09 -2.90128e-08)
(5.22359e-09 -9.90097e-09 -3.45904e-08)
(6.65377e-09 -1.33156e-08 -3.93325e-08)
(-3.432e-10 6.35494e-11 -5.1415e-10)
(-9.84396e-10 1.81614e-10 -1.51596e-09)
(-1.54104e-09 2.81383e-10 -2.5073e-09)
(-2.01865e-09 3.60028e-10 -3.56197e-09)
(-2.41995e-09 4.1085e-10 -4.74822e-09)
(-2.74416e-09 4.21889e-10 -6.13349e-09)
(-2.98744e-09 3.72873e-10 -7.79003e-09)
(-3.14173e-09 2.33007e-10 -9.79605e-09)
(-3.19563e-09 -4.47123e-11 -1.22388e-08)
(-3.13528e-09 -5.28448e-10 -1.52153e-08)
(-2.94613e-09 -1.31627e-09 -1.88282e-08)
(-2.61829e-09 -2.54643e-09 -2.31856e-08)
(-2.14843e-09 -4.41632e-09 -2.84016e-08)
(-1.55372e-09 -7.15297e-09 -3.4472e-08)
(-9.36819e-10 -1.0886e-08 -4.10984e-08)
(-5.05658e-10 -1.48592e-08 -4.67793e-08)
(-4.24841e-10 7.75471e-11 -5.96721e-10)
(-1.22109e-09 2.22706e-10 -1.75818e-09)
(-1.91984e-09 3.48833e-10 -2.90346e-09)
(-2.53317e-09 4.54793e-10 -4.11554e-09)
(-3.07123e-09 5.35722e-10 -5.47036e-09)
(-3.5427e-09 5.81136e-10 -7.04213e-09)
(-3.9564e-09 5.73133e-10 -8.90784e-09)
(-4.32364e-09 4.82701e-10 -1.11503e-08)
(-4.66196e-09 2.66426e-10 -1.38602e-08)
(-5.00124e-09 -1.40064e-10 -1.71372e-08)
(-5.3912e-09 -8.29242e-10 -2.10893e-08)
(-5.90874e-09 -1.93191e-09 -2.58312e-08)
(-6.65419e-09 -3.62996e-09 -3.14771e-08)
(-7.68825e-09 -6.14973e-09 -3.80505e-08)
(-8.93577e-09 -9.63265e-09 -4.52614e-08)
(-9.82424e-09 -1.34412e-08 -5.15219e-08)
(-5.06409e-10 9.02672e-11 -6.64742e-10)
(-1.45827e-09 2.60492e-10 -1.95715e-09)
(-2.30138e-09 4.1224e-10 -3.22658e-09)
(-3.05527e-09 5.46835e-10 -4.56201e-09)
(-3.73827e-09 6.6225e-10 -6.04386e-09)
(-4.36921e-09 7.51166e-10 -7.74923e-09)
(-4.97037e-09 7.99928e-10 -9.75611e-09)
(-5.57216e-09 7.85768e-10 -1.21465e-08)
(-6.21982e-09 6.73932e-10 -1.50078e-08)
(-6.98292e-09 4.13692e-10 -1.84338e-08)
(-7.96748e-09 -6.59822e-11 -2.25232e-08)
(-9.32751e-09 -8.61836e-10 -2.73773e-08)
(-1.12635e-08 -2.10016e-09 -3.30928e-08)
(-1.39623e-08 -3.93194e-09 -3.97113e-08)
(-1.73412e-08 -6.44069e-09 -4.69586e-08)
(-2.03213e-08 -9.18667e-09 -5.33454e-08)
(-5.85741e-10 1.00674e-10 -7.18249e-10)
(-1.68935e-09 2.91926e-10 -2.11299e-09)
(-2.67417e-09 4.66249e-10 -3.47715e-09)
(-3.56705e-09 6.28072e-10 -4.90265e-09)
(-4.39421e-09 7.78421e-10 -6.4715e-09)
(-5.18343e-09 9.1447e-10 -8.26028e-09)
(-5.96836e-09 1.02812e-09 -1.03445e-08)
(-6.79422e-09 1.10483e-09 -1.28009e-08)
(-7.72576e-09 1.12184e-09 -1.57083e-08)
(-8.85793e-09 1.0466e-09 -1.91467e-08)
(-1.03287e-08 8.35628e-10 -2.31953e-08)
(-1.23304e-08 4.36047e-10 -2.79257e-08)
(-1.51083e-08 -2.09559e-10 -3.33929e-08)
(-1.89065e-08 -1.1538e-09 -3.9606e-08)
(-2.36773e-08 -2.40659e-09 -4.63368e-08)
(-2.83134e-08 -3.74129e-09 -5.25245e-08)
(-3.56498e-11 8.09988e-12 -6.1227e-11)
(-1.01331e-10 2.30127e-11 -1.8077e-10)
(-1.55516e-10 3.51867e-11 -2.99902e-10)
(-1.96748e-10 4.39682e-11 -4.28037e-10)
(-2.22627e-10 4.81303e-11 -5.74169e-10)
(-2.29101e-10 4.56278e-11 -7.47392e-10)
(-2.09239e-10 3.32745e-11 -9.56724e-10)
(-1.52597e-10 6.67062e-12 -1.21283e-09)
(-4.30109e-11 -3.9705e-11 -1.52697e-09)
(1.43814e-10 -1.11428e-10 -1.91068e-09)
(4.42688e-10 -2.10463e-10 -2.37541e-09)
(9.01447e-10 -3.25551e-10 -2.92465e-09)
(1.57949e-09 -4.09977e-10 -3.54736e-09)
(2.53505e-09 -3.36178e-10 -4.19751e-09)
(3.76966e-09 1.57953e-10 -4.75374e-09)
(4.98713e-09 1.25181e-09 -4.99031e-09)
(-1.07457e-10 2.43156e-11 -1.80847e-10)
(-3.05792e-10 6.91597e-11 -5.33939e-10)
(-4.70468e-10 1.06108e-10 -8.85661e-10)
(-5.97794e-10 1.3334e-10 -1.26358e-09)
(-6.81549e-10 1.47424e-10 -1.69404e-09)
(-7.11373e-10 1.42583e-10 -2.20411e-09)
(-6.68455e-10 1.09418e-10 -2.81879e-09)
(-5.2582e-10 3.48897e-11 -3.56999e-09)
(-2.41594e-10 -9.82471e-11 -4.49054e-09)
(2.46884e-10 -3.10017e-10 -5.61363e-09)
(1.02679e-09 -6.16338e-10 -6.97871e-09)
(2.2139e-09 -1.01166e-09 -8.60073e-09)
(3.93741e-09 -1.43047e-09 -1.04635e-08)
(6.28119e-09 -1.67747e-09 -1.24688e-08)
(9.11086e-09 -1.36377e-09 -1.43368e-08)
(1.1566e-08 -2.27467e-10 -1.54673e-08)
(-1.81772e-10 4.07631e-11 -2.94538e-10)
(-5.18183e-10 1.16276e-10 -8.6926e-10)
(-8.00464e-10 1.79372e-10 -1.44075e-09)
(-1.02457e-09 2.2767e-10 -2.0532e-09)
(-1.18288e-09 2.56146e-10 -2.74859e-09)
(-1.26161e-09 2.55923e-10 -3.56674e-09)
(-1.23901e-09 2.12834e-10 -4.55183e-09)
(-1.08103e-09 1.05943e-10 -5.75407e-09)
(-7.36799e-10 -9.43724e-11 -7.22522e-09)
(-1.31117e-10 -4.27484e-10 -9.02573e-09)
(8.38309e-10 -9.39101e-10 -1.12093e-08)
(2.29331e-09 -1.67043e-09 -1.38111e-08)
(4.34656e-09 -2.63625e-09 -1.68314e-08)
(6.98955e-09 -3.77788e-09 -2.0172e-08)
(9.87588e-09 -4.88871e-09 -2.34693e-08)
(1.19231e-08 -5.55273e-09 -2.57968e-08)
(-2.59067e-10 5.73313e-11 -3.98583e-10)
(-7.40187e-10 1.64049e-10 -1.17565e-09)
(-1.14915e-09 2.54929e-10 -1.94631e-09)
(-1.48414e-09 3.27815e-10 -2.76892e-09)
(-1.73955e-09 3.77155e-10 -3.69772e-09)
(-1.90362e-09 3.92313e-10 -4.78542e-09)
(-1.95927e-09 3.56359e-10 -6.0923e-09)
(-1.87741e-09 2.42234e-10 -7.68106e-09)
(-1.61666e-09 1.03905e-11 -9.62114e-09)
(-1.12087e-09 -3.95826e-10 -1.19899e-08)
(-3.16311e-10 -1.05304e-09 -1.48538e-08)
(8.72166e-10 -2.05973e-09 -1.82779e-08)
(2.49779e-09 -3.52557e-09 -2.22824e-08)
(4.45927e-09 -5.51966e-09 -2.67705e-08)
(6.36863e-09 -7.89151e-09 -3.12802e-08)
(7.39858e-09 -9.80329e-09 -3.45418e-08)
(-3.39223e-10 7.36566e-11 -4.90482e-10)
(-9.71601e-10 2.11558e-10 -1.44579e-09)
(-1.51651e-09 3.31567e-10 -2.39023e-09)
(-1.97705e-09 4.32664e-10 -3.39379e-09)
(-2.35319e-09 5.10077e-10 -4.52102e-09)
(-2.64078e-09 5.53425e-10 -5.83556e-09)
(-2.83179e-09 5.44927e-10 -7.40498e-09)
(-2.91337e-09 4.55631e-10 -9.30183e-09)
(-2.86929e-09 2.41594e-10 -1.16055e-08)
(-2.68295e-09 -1.62338e-10 -1.44016e-08)
(-2.34325e-09 -8.50179e-10 -1.77759e-08)
(-1.8579e-09 -1.95241e-09 -2.18079e-08)
(-1.26842e-09 -3.64094e-09 -2.65501e-08)
(-6.9282e-10 -6.05773e-09 -3.18876e-08)
(-3.64962e-10 -9.07853e-09 -3.73034e-08)
(-4.9963e-10 -1.16483e-08 -4.12753e-08)
(-4.21632e-10 8.91878e-11 -5.69223e-10)
(-1.21056e-09 2.57297e-10 -1.67671e-09)
(-1.89918e-09 4.06786e-10 -2.76776e-09)
(-2.49747e-09 5.38809e-10 -3.921e-09)
(-3.01333e-09 6.50498e-10 -5.20836e-09)
(-3.45287e-09 7.33626e-10 -6.69975e-09)
(-3.8222e-09 7.72324e-10 -8.4674e-09)
(-4.13007e-09 7.40412e-10 -1.0588e-08)
(-4.39332e-09 5.96714e-10 -1.31445e-08)
(-4.64543e-09 2.79448e-10 -1.62253e-08)
(-4.94959e-09 -3.01849e-10 -1.99214e-08)
(-5.41511e-09 -1.27561e-09 -2.43191e-08)
(-6.20678e-09 -2.81356e-09 -2.94793e-08)
(-7.4893e-09 -5.08055e-09 -3.5294e-08)
(-9.30744e-09 -8.01581e-09 -4.12389e-08)
(-1.1044e-08 -1.06736e-08 -4.56501e-08)
(-5.04513e-10 1.03082e-10 -6.34087e-10)
(-1.4517e-09 2.98583e-10 -1.86641e-09)
(-2.28761e-09 4.76133e-10 -3.07566e-09)
(-3.03019e-09 6.39645e-10 -4.34621e-09)
(-3.6963e-09 7.89155e-10 -5.75425e-09)
(-4.3032e-09 9.20075e-10 -7.37238e-09)
(-4.87213e-09 1.02111e-09 -9.27386e-09)
(-5.43363e-09 1.07234e-09 -1.15348e-08)
(-6.03617e-09 1.04191e-09 -1.42354e-08)
(-6.7593e-09 8.81849e-10 -1.7459e-08)
(-7.73242e-09 5.23031e-10 -2.12898e-08)
(-9.15737e-09 -1.29308e-10 -2.58043e-08)
(-1.13245e-08 -1.19648e-09 -3.10524e-08)
(-1.45624e-08 -2.7971e-09 -3.69578e-08)
(-1.8962e-08 -4.88929e-09 -4.30149e-08)
(-2.33794e-08 -6.81987e-09 -4.75914e-08)
(-5.85558e-10 1.14249e-10 -6.85108e-10)
(-1.688e-09 3.32184e-10 -2.01502e-09)
(-2.66945e-09 5.33978e-10 -3.31448e-09)
(-3.5559e-09 7.26497e-10 -4.67076e-09)
(-4.37277e-09 9.13552e-10 -6.1614e-09)
(-5.14752e-09 1.09469e-09 -7.85881e-09)
(-5.91419e-09 1.26487e-09 -9.83384e-09)
(-6.72037e-09 1.41272e-09 -1.21579e-08)
(-7.63719e-09 1.51902e-09 -1.49034e-08)
(-8.77407e-09 1.55476e-09 -1.81424e-08)
(-1.02984e-08 1.48039e-09 -2.19421e-08)
(-1.24596e-08 1.24696e-09 -2.63564e-08)
(-1.5608e-08 8.03823e-10 -3.14069e-08)
(-2.01652e-08 1.17942e-10 -3.7019e-08)
(-2.6345e-08 -7.65437e-10 -4.27843e-08)
(-3.31448e-08 -1.55645e-09 -4.74331e-08)
(-3.4619e-11 9.4365e-12 -5.6036e-11)
(-9.80822e-11 2.69981e-11 -1.65404e-10)
(-1.49449e-10 4.1965e-11 -2.7429e-10)
(-1.86651e-10 5.39866e-11 -3.91238e-10)
(-2.06503e-10 6.22101e-11 -5.24351e-10)
(-2.03855e-10 6.50627e-11 -6.81724e-10)
(-1.7024e-10 6.00108e-11 -8.712e-10)
(-9.29544e-11 4.37373e-11 -1.10174e-09)
(4.73483e-11 1.24504e-11 -1.38218e-09)
(2.79372e-10 -3.63437e-11 -1.72036e-09)
(6.43801e-10 -9.90145e-11 -2.12195e-09)
(1.19585e-09 -1.54449e-10 -2.58192e-09)
(2.00476e-09 -1.39368e-10 -3.07727e-09)
(3.14514e-09 9.54792e-11 -3.54935e-09)
(4.64872e-09 8.16691e-10 -3.88467e-09)
(6.22138e-09 2.11232e-09 -3.95035e-09)
(-1.04531e-10 2.82499e-11 -1.65516e-10)
(-2.96555e-10 8.09492e-11 -4.88545e-10)
(-4.53216e-10 1.2611e-10 -8.10028e-10)
(-5.69072e-10 1.62897e-10 -1.15496e-09)
(-6.35686e-10 1.88944e-10 -1.54707e-09)
(-6.3964e-10 1.99802e-10 -2.01053e-09)
(-5.57848e-10 1.87935e-10 -2.567e-09)
(-3.57088e-10 1.43306e-10 -3.2434e-09)
(1.32144e-11 5.33304e-11 -4.06559e-09)
(6.27594e-10 -9.37755e-11 -5.0561e-09)
(1.58885e-09 -2.99535e-10 -6.23703e-09)
(3.03069e-09 -5.33532e-10 -7.59773e-09)
(5.10132e-09 -6.90251e-10 -9.08472e-09)
(7.90628e-09 -5.25793e-10 -1.05521e-08)
(1.13344e-08 3.44978e-10 -1.17145e-08)
(1.44619e-08 1.93575e-09 -1.21971e-08)
(-1.77366e-10 4.71832e-11 -2.69565e-10)
(-5.04278e-10 1.35411e-10 -7.95375e-10)
(-7.74452e-10 2.11855e-10 -1.31773e-09)
(-9.81225e-10 2.7563e-10 -1.87671e-09)
(-1.11369e-09 3.234e-10 -2.51011e-09)
(-1.15374e-09 3.48242e-10 -3.2536e-09)
(-1.0733e-09 3.39071e-10 -4.1456e-09)
(-8.29486e-10 2.78981e-10 -5.2286e-09)
(-3.59286e-10 1.45265e-10 -6.54342e-09)
(4.29022e-10 -9.05955e-11 -8.1333e-09)
(1.65787e-09 -4.55591e-10 -1.00251e-08)
(3.47116e-09 -9.60329e-10 -1.22117e-08)
(5.99594e-09 -1.57043e-09 -1.46369e-08)
(9.23117e-09 -2.16723e-09 -1.71079e-08)
(1.28125e-08 -2.54891e-09 -1.92296e-08)
(1.55343e-08 -2.6142e-09 -2.04002e-08)
(-2.53792e-10 6.59673e-11 -3.64786e-10)
(-7.235e-10 1.89825e-10 -1.07571e-09)
(-1.11785e-09 2.98666e-10 -1.78009e-09)
(-1.43193e-09 3.9232e-10 -2.53088e-09)
(-1.65631e-09 4.67374e-10 -3.37699e-09)
(-1.77417e-09 5.15883e-10 -4.3655e-09)
(-1.76131e-09 5.2444e-10 -5.5492e-09)
(-1.57879e-09 4.71172e-10 -6.98105e-09)
(-1.17212e-09 3.23924e-10 -8.71651e-09)
(-4.68241e-10 3.81807e-11 -1.08111e-08)
(6.2554e-10 -4.44008e-10 -1.32971e-08)
(2.20822e-09 -1.19098e-09 -1.61911e-08)
(4.34783e-09 -2.25971e-09 -1.94208e-08)
(6.93878e-09 -3.64926e-09 -2.27722e-08)
(9.58362e-09 -5.19204e-09 -2.57384e-08)
(1.1341e-08 -6.35861e-09 -2.74743e-08)
(-3.33772e-10 8.42017e-11 -4.48888e-10)
(-9.54277e-10 2.43088e-10 -1.32285e-09)
(-1.48389e-09 3.84992e-10 -2.18609e-09)
(-1.92245e-09 5.1139e-10 -3.10206e-09)
(-2.26605e-09 6.20008e-10 -4.12908e-09)
(-2.50547e-09 7.03734e-10 -5.32392e-09)
(-2.62584e-09 7.48521e-10 -6.7459e-09)
(-2.60506e-09 7.31195e-10 -8.45648e-09)
(-2.41519e-09 6.15415e-10 -1.05194e-08)
(-2.02528e-09 3.47555e-10 -1.29965e-08)
(-1.40839e-09 -1.48536e-10 -1.59358e-08)
(-5.56564e-10 -9.74657e-10 -1.93567e-08)
(5.12127e-10 -2.25245e-09 -2.3198e-08)
(1.67224e-09 -4.04699e-09 -2.72198e-08)
(2.72727e-09 -6.19155e-09 -3.08248e-08)
(3.39527e-09 -7.91202e-09 -3.29792e-08)
(-4.16671e-10 1.01314e-10 -5.20934e-10)
(-1.19472e-09 2.93445e-10 -1.53414e-09)
(-1.86904e-09 4.68095e-10 -2.53137e-09)
(-2.4466e-09 6.29077e-10 -3.58403e-09)
(-2.93176e-09 7.76518e-10 -4.75707e-09)
(-3.32617e-09 9.055e-10 -6.113e-09)
(-3.63005e-09 1.00465e-09 -7.71521e-09)
(-3.84483e-09 1.05327e-09 -9.62908e-09)
(-3.97847e-09 1.01822e-09 -1.19213e-08)
(-4.05491e-09 8.48719e-10 -1.46561e-08)
(-4.12849e-09 4.70942e-10 -1.78855e-08)
(-4.30189e-09 -2.16426e-10 -2.16295e-08)
(-4.73435e-09 -1.34088e-09 -2.58456e-08)
(-5.57618e-09 -2.99133e-09 -3.0263e-08)
(-6.81434e-09 -5.0474e-09 -3.42506e-08)
(-7.79953e-09 -6.80783e-09 -3.66467e-08)
(-5.00643e-10 1.16333e-10 -5.80301e-10)
(-1.43914e-09 3.38143e-10 -1.70771e-09)
(-2.26319e-09 5.43226e-10 -2.81303e-09)
(-2.98819e-09 7.38414e-10 -3.97287e-09)
(-3.62804e-09 9.27115e-10 -5.25602e-09)
(-4.19653e-09 1.10806e-09 -6.72761e-09)
(-4.71049e-09 1.27472e-09 -8.45202e-09)
(-5.1954e-09 1.41302e-09 -1.04943e-08)
(-5.69455e-09 1.49897e-09 -1.29193e-08)
(-6.28359e-09 1.49549e-09 -1.5788e-08)
(-7.09188e-09 1.34951e-09 -1.91481e-08)
(-8.32919e-09 9.91003e-10 -2.30167e-08)
(-1.03049e-08 3.41141e-10 -2.73427e-08)
(-1.33473e-08 -6.53383e-10 -3.18805e-08)
(-1.75318e-08 -1.89088e-09 -3.60035e-08)
(-2.15907e-08 -2.91751e-09 -3.8509e-08)
(-5.83225e-10 1.28154e-10 -6.27011e-10)
(-1.68007e-09 3.73812e-10 -1.84372e-09)
(-2.65315e-09 6.04538e-10 -3.03157e-09)
(-3.52643e-09 8.3057e-10 -4.26975e-09)
(-4.32326e-09 1.05874e-09 -5.62852e-09)
(-5.06851e-09 1.29266e-09 -7.1727e-09)
(-5.79348e-09 1.53181e-09 -8.96488e-09)
(-6.54292e-09 1.7709e-09 -1.10663e-08)
(-7.38614e-09 1.9986e-09 -1.3536e-08)
(-8.43349e-09 2.19686e-09 -1.64264e-08)
(-9.85987e-09 2.34143e-09 -1.97748e-08)
(-1.19339e-08 2.40727e-09 -2.35861e-08)
(-1.50443e-08 2.38215e-09 -2.77995e-08)
(-1.96638e-08 2.29232e-09 -3.22031e-08)
(-2.60541e-08 2.23516e-09 -3.62604e-08)
(-3.30969e-08 2.35085e-09 -3.89464e-08)
(-3.35014e-11 1.07662e-11 -4.88211e-11)
(-9.45647e-11 3.0996e-11 -1.44072e-10)
(-1.42899e-10 4.88121e-11 -2.38814e-10)
(-1.75759e-10 6.42568e-11 -3.40403e-10)
(-1.89082e-10 7.69099e-11 -4.55748e-10)
(-1.76447e-10 8.57565e-11 -5.91611e-10)
(-1.27619e-10 8.9145e-11 -7.54367e-10)
(-2.72236e-11 8.50219e-11 -9.50877e-10)
(1.47985e-10 7.16301e-11 -1.18711e-09)
(4.32262e-10 4.96385e-11 -1.4669e-09)
(8.74082e-10 2.76146e-11 -1.79014e-09)
(1.53906e-09 3.37097e-11 -2.14483e-09)
(2.51052e-09 1.39611e-10 -2.50133e-09)
(3.88189e-09 4.99632e-10 -2.80212e-09)
(5.70158e-09 1.36904e-09 -2.96245e-09)
(7.62004e-09 2.78752e-09 -2.92987e-09)
(-1.01336e-10 3.21784e-11 -1.442e-10)
(-2.86507e-10 9.26996e-11 -4.25542e-10)
(-4.34486e-10 1.46281e-10 -7.05256e-10)
(-5.37918e-10 1.93141e-10 -1.00489e-09)
(-5.85889e-10 2.32189e-10 -1.34466e-09)
(-5.61329e-10 2.60621e-10 -1.74482e-09)
(-4.3625e-10 2.73362e-10 -2.22294e-09)
(-1.69883e-10 2.63967e-10 -2.79971e-09)
(2.99224e-10 2.25513e-10 -3.49266e-09)
(1.061e-09 1.54749e-10 -4.3127e-09)
(2.23987e-09 6.37014e-11 -5.2642e-09)
(3.99688e-09 7.49752e-13 -6.31497e-09)
(6.51356e-09 9.10802e-11 -7.38816e-09)
(9.92963e-09 5.82164e-10 -8.33117e-09)
(1.41373e-08 1.80238e-09 -8.922e-09)
(1.8022e-08 3.60186e-09 -9.00762e-09)
(-1.72505e-10 5.35266e-11 -2.34859e-10)
(-4.88962e-10 1.54473e-10 -6.92802e-10)
(-7.45881e-10 2.44519e-10 -1.1473e-09)
(-9.33669e-10 3.24531e-10 -1.63283e-09)
(-1.0376e-09 3.93194e-10 -2.18129e-09)
(-1.03463e-09 4.46075e-10 -2.82375e-09)
(-8.88972e-10 4.75811e-10 -3.59054e-09)
(-5.46607e-10 4.71162e-10 -4.51452e-09)
(7.11477e-11 4.17279e-10 -5.62371e-09)
(1.07899e-09 2.98568e-10 -6.94182e-09)
(2.62963e-09 1.05967e-10 -8.46883e-09)
(4.90491e-09 -1.46972e-10 -1.01613e-08)
(8.07365e-09 -4.01556e-10 -1.192e-08)
(1.21662e-08 -5.41528e-10 -1.35269e-08)
(1.67843e-08 -4.6038e-10 -1.46636e-08)
(2.04259e-08 -3.00899e-10 -1.50699e-08)
(-2.47848e-10 7.45034e-11 -3.17814e-10)
(-7.04756e-10 2.15433e-10 -9.36976e-10)
(-1.08285e-09 3.4248e-10 -1.54985e-09)
(-1.37363e-09 4.57765e-10 -2.20203e-09)
(-1.56316e-09 5.60494e-10 -2.93519e-09)
(-1.62872e-09 6.46032e-10 -3.78934e-09)
(-1.53683e-09 7.05677e-10 -4.80725e-09)
(-1.2357e-09 7.24137e-10 -6.02981e-09)
(-6.52369e-10 6.79115e-10 -7.4956e-09)
(3.12153e-10 5.40445e-10 -9.23554e-09)
(1.78508e-09 2.70588e-10 -1.12475e-08)
(3.91237e-09 -1.70592e-10 -1.34961e-08)
(6.80825e-09 -8.13513e-10 -1.58522e-08)
(1.0405e-08 -1.65339e-09 -1.80564e-08)
(1.42656e-08 -2.61893e-09 -1.96945e-08)
(1.7102e-08 -3.45024e-09 -2.03775e-08)
(-3.27423e-10 9.46057e-11 -3.91085e-10)
(-9.34239e-10 2.74224e-10 -1.15227e-09)
(-1.44636e-09 4.38262e-10 -1.90339e-09)
(-1.85983e-09 5.90849e-10 -2.69917e-09)
(-2.16601e-09 7.32879e-10 -3.58943e-09)
(-2.34934e-09 8.60925e-10 -4.62217e-09)
(-2.38556e-09 9.66477e-10 -5.84566e-09)
(-2.23952e-09 1.03338e-09 -7.30767e-09)
(-1.86464e-09 1.03605e-09 -9.05278e-09)
(-1.20406e-09 9.35924e-10 -1.11153e-08)
(-1.95673e-10 6.78116e-10 -1.35028e-08)
(1.21594e-09 1.89852e-10 -1.61755e-08)
(3.0728e-09 -6.16832e-10 -1.89943e-08)
(5.30048e-09 -1.79342e-09 -2.16659e-08)
(7.69303e-09 -3.25192e-09 -2.36912e-08)
(9.61317e-09 -4.49901e-09 -2.45783e-08)
(-4.10599e-10 1.13177e-10 -4.53869e-10)
(-1.17544e-09 3.29041e-10 -1.33634e-09)
(-1.83276e-09 5.28897e-10 -2.20412e-09)
(-2.38578e-09 7.19715e-10 -3.11878e-09)
(-2.83436e-09 9.04964e-10 -4.13596e-09)
(-3.17401e-09 1.08403e-09 -5.30836e-09)
(-3.39641e-09 1.25097e-09 -6.68797e-09)
(-3.49091e-09 1.39301e-09 -8.32564e-09)
(-3.44873e-09 1.48759e-09 -1.02684e-08)
(-3.27065e-09 1.4993e-09 -1.25521e-08)
(-2.97939e-09 1.37566e-09 -1.51864e-08)
(-2.63403e-09 1.04466e-09 -1.81288e-08)
(-2.33043e-09 4.17313e-10 -2.12479e-08)
(-2.15421e-09 -5.72958e-10 -2.42117e-08)
(-2.05786e-09 -1.85964e-09 -2.64729e-08)
(-1.70182e-09 -3.02119e-09 -2.74607e-08)
(-4.95424e-10 1.29265e-10 -5.05601e-10)
(-1.42245e-09 3.76913e-10 -1.48759e-09)
(-2.23143e-09 6.09437e-10 -2.4495e-09)
(-2.93437e-09 8.37074e-10 -3.45744e-09)
(-3.54124e-09 1.06664e-09 -4.57048e-09)
(-4.06038e-09 1.30158e-09 -5.84352e-09)
(-4.50134e-09 1.54093e-09 -7.32959e-09)
(-4.87947e-09 1.7785e-09 -9.0796e-09)
(-5.22427e-09 2.00106e-09 -1.11395e-08)
(-5.59285e-09 2.18657e-09 -1.35433e-08)
(-6.08977e-09 2.30277e-09 -1.6299e-08)
(-6.89087e-09 2.3088e-09 -1.93641e-08)
(-8.25762e-09 2.16306e-09 -2.26064e-08)
(-1.04437e-08 1.84844e-09 -2.56875e-08)
(-1.34871e-08 1.42825e-09 -2.80555e-08)
(-1.63414e-08 1.09692e-09 -2.90741e-08)
(-5.79309e-10 1.41707e-10 -5.46308e-10)
(-1.66738e-09 4.14354e-10 -1.60616e-09)
(-2.62839e-09 6.73856e-10 -2.63997e-09)
(-3.48356e-09 9.33691e-10 -3.71626e-09)
(-4.25283e-09 1.20465e-09 -4.89521e-09)
(-4.95681e-09 1.49463e-09 -6.23184e-09)
(-5.62086e-09 1.80902e-09 -7.7778e-09)
(-6.28185e-09 2.15023e-09 -9.58132e-09)
(-6.9986e-09 2.5175e-09 -1.16844e-08)
(-7.86794e-09 2.90716e-09 -1.41163e-08)
(-9.04735e-09 3.31517e-09 -1.688e-08)
(-1.07832e-08 3.74412e-09 -1.99303e-08)
(-1.34334e-08 4.21852e-09 -2.31357e-08)
(-1.74207e-08 4.80053e-09 -2.62044e-08)
(-2.29726e-08 5.57228e-09 -2.8621e-08)
(-2.90788e-08 6.45794e-09 -2.97603e-08)
(-3.24061e-11 1.19927e-11 -3.98671e-11)
(-9.11237e-11 3.4681e-11 -1.17626e-10)
(-1.36489e-10 5.5188e-11 -1.94897e-10)
(-1.65094e-10 7.39192e-11 -2.77633e-10)
(-1.72006e-10 9.09158e-11 -3.71351e-10)
(-1.49379e-10 1.05724e-10 -4.81134e-10)
(-8.52557e-11 1.17608e-10 -6.11997e-10)
(3.86025e-11 1.25809e-10 -7.68641e-10)
(2.49608e-10 1.30441e-10 -9.54464e-10)
(5.8804e-10 1.34915e-10 -1.17011e-09)
(1.11079e-09 1.51566e-10 -1.41162e-09)
(1.89433e-09 2.12894e-10 -1.66395e-09)
(3.03509e-09 3.94452e-10 -1.89761e-09)
(4.63886e-09 8.51331e-10 -2.06505e-09)
(6.75244e-09 1.83381e-09 -2.11115e-09)
(8.95443e-09 3.36332e-09 -2.03049e-09)
(-9.81977e-11 3.57762e-11 -1.17754e-10)
(-2.76629e-10 1.03571e-10 -3.47414e-10)
(-4.16088e-10 1.65047e-10 -5.75558e-10)
(-5.0733e-10 2.21573e-10 -8.19629e-10)
(-5.37113e-10 2.73458e-10 -1.09598e-09)
(-4.83731e-10 3.19231e-10 -1.41903e-09)
(-3.14923e-10 3.56732e-10 -1.80357e-09)
(1.84008e-11 3.83114e-10 -2.2635e-09)
(5.8949e-10 3.96682e-10 -2.80886e-09)
(1.50526e-09 4.01858e-10 -3.4413e-09)
(2.91392e-09 4.20902e-10 -4.15289e-09)
(5.00613e-09 5.13305e-10 -4.90144e-09)
(7.99615e-09 8.11442e-10 -5.60725e-09)
(1.20452e-08 1.55387e-09 -6.14067e-09)
(1.70108e-08 3.02707e-09 -6.35657e-09)
(2.15511e-08 4.99981e-09 -6.24104e-09)
(-1.67684e-10 5.93712e-11 -1.91778e-10)
(-4.73796e-10 1.72048e-10 -5.6561e-10)
(-7.17608e-10 2.74849e-10 -9.36307e-10)
(-8.86608e-10 3.70423e-10 -1.33188e-09)
(-9.62055e-10 4.59359e-10 -1.77678e-09)
(-9.15738e-10 5.40013e-10 -2.29632e-09)
(-7.03571e-10 6.09119e-10 -2.91365e-09)
(-2.59598e-10 6.60671e-10 -3.65099e-09)
(5.12516e-10 6.87984e-10 -4.52477e-09)
(1.75332e-09 6.86692e-10 -5.54289e-09)
(3.65035e-09 6.62126e-10 -6.68698e-09)
(6.42849e-09 6.42371e-10 -7.89562e-09)
(1.03017e-08 6.93021e-10 -9.05827e-09)
(1.53185e-08 9.06385e-10 -9.984e-09)
(2.10014e-08 1.30446e-09 -1.04631e-08)
(2.54982e-08 1.60856e-09 -1.04613e-08)
(-2.41886e-10 8.2328e-11 -2.5952e-10)
(-6.85983e-10 2.38967e-10 -7.64954e-10)
(-1.0478e-09 3.83043e-10 -1.26477e-09)
(-1.31517e-09 5.18942e-10 -1.79573e-09)
(-1.46917e-09 6.48383e-10 -2.39061e-09)
(-1.48174e-09 7.70736e-10 -3.08243e-09)
(-1.30828e-09 8.81731e-10 -3.9021e-09)
(-8.82781e-10 9.73079e-10 -4.87851e-09)
(-1.11028e-10 1.03222e-09 -6.03479e-09)
(1.13685e-09 1.04255e-09 -7.3815e-09)
(3.02963e-09 9.82771e-10 -8.89324e-09)
(5.76877e-09 8.31041e-10 -1.05058e-08)
(9.52353e-09 5.63982e-10 -1.20734e-08)
(1.42487e-08 1.58825e-10 -1.33631e-08)
(1.94085e-08 -4.1181e-10 -1.40996e-08)
(2.32867e-08 -1.04727e-09 -1.42024e-08)
(-3.20944e-10 1.04095e-10 -3.19359e-10)
(-9.13789e-10 3.0281e-10 -9.40734e-10)
(-1.40813e-09 4.87435e-10 -1.55334e-09)
(-1.79604e-09 6.64894e-10 -2.20133e-09)
(-2.06382e-09 8.39126e-10 -2.92456e-09)
(-2.18896e-09 1.01101e-09 -3.76088e-09)
(-2.13662e-09 1.17724e-09 -4.74672e-09)
(-1.85617e-09 1.32964e-09 -5.91568e-09)
(-1.2785e-09 1.45318e-09 -7.29472e-09)
(-3.14052e-10 1.52385e-09 -8.89523e-09)
(1.14505e-09 1.50489e-09 -1.06959e-08)
(3.21522e-09 1.34305e-09 -1.26233e-08)
(6.00887e-09 9.62146e-10 -1.45126e-08)
(9.48888e-09 2.88655e-10 -1.60964e-08)
(1.3361e-08 -6.87069e-10 -1.70377e-08)
(1.65126e-08 -1.65099e-09 -1.72183e-08)
(-4.04208e-10 1.24006e-10 -3.7063e-10)
(-1.15524e-09 3.61574e-10 -1.09106e-09)
(-1.79485e-09 5.84853e-10 -1.79887e-09)
(-2.32234e-09 8.03811e-10 -2.54386e-09)
(-2.73255e-09 1.02544e-09 -3.37053e-09)
(-3.0141e-09 1.25347e-09 -4.32044e-09)
(-3.1484e-09 1.48799e-09 -5.43297e-09)
(-3.10996e-09 1.72416e-09 -6.74425e-09)
(-2.86808e-09 1.9507e-09 -8.2828e-09)
(-2.39184e-09 2.14698e-09 -1.00606e-08)
(-1.65864e-09 2.27927e-09 -1.20568e-08)
(-6.64821e-10 2.29614e-09 -1.41925e-08)
(5.76981e-10 2.12429e-09 -1.63024e-08)
(2.02646e-09 1.68528e-09 -1.80808e-08)
(3.68557e-09 9.52765e-10 -1.91466e-08)
(5.41111e-09 1.54452e-10 -1.93488e-08)
(-4.89675e-10 1.41016e-10 -4.12894e-10)
(-1.40419e-09 4.12223e-10 -1.21462e-09)
(-2.1969e-09 6.70134e-10 -1.9993e-09)
(-2.8762e-09 9.28147e-10 -2.82045e-09)
(-3.44738e-09 1.19693e-09 -3.72536e-09)
(-3.91249e-09 1.48427e-09 -4.75745e-09)
(-4.27181e-09 1.79541e-09 -5.95706e-09)
(-4.52725e-09 2.13233e-09 -7.36054e-09)
(-4.68869e-09 2.49293e-09 -8.99601e-09)
(-4.78471e-09 2.86989e-09 -1.08746e-08)
(-4.87874e-09 3.24967e-09 -1.29749e-08)
(-5.0887e-09 3.61233e-09 -1.52181e-08)
(-5.59963e-09 3.93485e-09 -1.74421e-08)
(-6.59185e-09 4.18994e-09 -1.93179e-08)
(-8.1335e-09 4.36022e-09 -2.04462e-08)
(-9.61469e-09 4.43563e-09 -2.06225e-08)
(-5.74639e-10 1.53943e-10 -4.46173e-10)
(-1.65237e-09 4.51208e-10 -1.3115e-09)
(-2.59963e-09 7.37112e-10 -2.15497e-09)
(-3.43438e-09 1.02863e-09 -3.03195e-09)
(-4.17262e-09 1.3401e-09 -3.99091e-09)
(-4.82941e-09 1.68417e-09 -5.07527e-09)
(-5.42222e-09 2.0722e-09 -6.32462e-09)
(-5.97646e-09 2.51466e-09 -7.77365e-09)
(-6.5343e-09 3.02156e-09 -9.44825e-09)
(-7.16845e-09 3.60348e-09 -1.13574e-08)
(-8.00187e-09 4.27418e-09 -1.34792e-08)
(-9.23238e-09 5.05687e-09 -1.5738e-08)
(-1.11542e-08 5.99475e-09 -1.79743e-08)
(-1.41041e-08 7.1405e-09 -1.9896e-08)
(-1.8325e-08 8.50976e-09 -2.10993e-08)
(-2.31327e-08 9.82431e-09 -2.12983e-08)
(-3.14499e-11 1.30167e-11 -2.95095e-11)
(-8.81151e-11 3.77806e-11 -8.70481e-11)
(-1.30883e-10 6.05598e-11 -1.44183e-10)
(-1.55748e-10 8.2109e-11 -2.05272e-10)
(-1.56974e-10 1.02871e-10 -2.743e-10)
(-1.25525e-10 1.22912e-10 -3.54809e-10)
(-4.77539e-11 1.42289e-10 -4.50287e-10)
(9.71825e-11 1.61332e-10 -5.63642e-10)
(3.40555e-10 1.81703e-10 -6.96421e-10)
(7.28166e-10 2.08891e-10 -8.47537e-10)
(1.32446e-09 2.578e-10 -1.01177e-09)
(2.21512e-09 3.63566e-10 -1.17516e-09)
(3.50604e-09 6.03811e-10 -1.31364e-09)
(5.30807e-09 1.13481e-09 -1.39309e-09)
(7.65598e-09 2.20825e-09 -1.38141e-09)
(1.0063e-08 3.83778e-09 -1.2926e-09)
(-9.54463e-11 3.87982e-11 -8.71559e-11)
(-2.67983e-10 1.12671e-10 -2.57102e-10)
(-3.99967e-10 1.8084e-10 -4.2579e-10)
(-4.80448e-10 2.45642e-10 -6.06012e-10)
(-4.9391e-10 3.08562e-10 -8.0961e-10)
(-4.15186e-10 3.69635e-10 -1.04649e-09)
(-2.07247e-10 4.28998e-10 -1.32711e-09)
(1.86439e-10 4.86871e-10 -1.66005e-09)
(8.50131e-10 5.45992e-10 -2.04991e-09)
(1.90641e-09 6.16462e-10 -2.49337e-09)
(3.52519e-09 7.27743e-10 -2.97768e-09)
(5.92255e-09 9.45584e-10 -3.46309e-09)
(9.33704e-09 1.40491e-09 -3.88332e-09)
(1.39352e-08 2.33748e-09 -4.14458e-09)
(1.95201e-08 4.00968e-09 -4.16424e-09)
(2.45487e-08 6.14587e-09 -3.98765e-09)
(-1.63445e-10 6.42422e-11 -1.4195e-10)
(-4.60458e-10 1.86754e-10 -4.18573e-10)
(-6.92727e-10 3.00338e-10 -6.92665e-10)
(-8.45097e-10 4.09199e-10 -9.84763e-10)
(-8.95408e-10 5.15663e-10 -1.31259e-09)
(-8.10267e-10 6.20779e-10 -1.69357e-09)
(-5.38224e-10 7.24477e-10 -2.14432e-09)
(-1.95724e-12 8.2568e-10 -2.6784e-09)
(9.11412e-10 9.24147e-10 -3.30361e-09)
(2.36694e-09 1.02445e-09 -4.01849e-09)
(4.58432e-09 1.14154e-09 -4.79853e-09)
(7.82657e-09 1.31133e-09 -5.58418e-09)
(1.23424e-08 1.59901e-09 -6.28081e-09)
(1.8179e-08 2.07512e-09 -6.7488e-09)
(2.47593e-08 2.70863e-09 -6.87097e-09)
(2.9921e-08 3.14408e-09 -6.71352e-09)
(-2.36602e-10 8.88483e-11 -1.92088e-10)
(-6.69345e-10 2.58642e-10 -5.6609e-10)
(-1.01675e-09 4.17079e-10 -9.35644e-10)
(-1.26336e-09 5.70583e-10 -1.32764e-09)
(-1.38594e-09 7.23233e-10 -1.76577e-09)
(-1.35045e-09 8.77684e-10 -2.27372e-09)
(-1.10281e-09 1.03388e-09 -2.87254e-09)
(-5.63204e-10 1.18955e-09 -3.58038e-09)
(3.83162e-10 1.34034e-09 -4.40878e-09)
(1.89587e-09 1.48007e-09 -5.35622e-09)
(4.1834e-09 1.59873e-09 -6.38971e-09)
(7.49759e-09 1.68399e-09 -7.44233e-09)
(1.20517e-08 1.70968e-09 -8.38844e-09)
(1.77994e-08 1.62314e-09 -9.05624e-09)
(2.40797e-08 1.32825e-09 -9.29141e-09)
(2.87907e-08 8.3718e-10 -9.15735e-09)
(-3.15131e-10 1.12001e-10 -2.36379e-10)
(-8.95477e-10 3.26625e-10 -6.96199e-10)
(-1.3739e-09 5.28602e-10 -1.14916e-09)
(-1.73889e-09 7.2723e-10 -1.62763e-09)
(-1.97202e-09 9.29328e-10 -2.16049e-09)
(-2.04418e-09 1.13932e-09 -2.77483e-09)
(-1.91031e-09 1.35897e-09 -3.49551e-09)
(-1.50483e-09 1.58671e-09 -4.34389e-09)
(-7.36172e-10 1.81668e-09 -5.33352e-09)
(5.17715e-10 2.03627e-09 -6.46221e-09)
(2.40967e-09 2.22124e-09 -7.69759e-09)
(5.11341e-09 2.32837e-09 -8.96262e-09)
(8.79939e-09 2.27977e-09 -1.01123e-08)
(1.34407e-08 1.9707e-09 -1.09476e-08)
(1.86128e-08 1.31673e-09 -1.12772e-08)
(2.27621e-08 5.32745e-10 -1.1162e-08)
(-3.98384e-10 1.32986e-10 -2.74344e-10)
(-1.13685e-09 3.88634e-10 -8.07478e-10)
(-1.76039e-09 6.31561e-10 -1.3309e-09)
(-2.26465e-09 8.74443e-10 -1.88108e-09)
(-2.63976e-09 1.12735e-09 -2.4904e-09)
(-2.86761e-09 1.39797e-09 -3.18852e-09)
(-2.91963e-09 1.6916e-09 -4.00255e-09)
(-2.75524e-09 2.01065e-09 -4.95546e-09)
(-2.32145e-09 2.35322e-09 -6.06184e-09)
(-1.55448e-09 2.71055e-09 -7.31939e-09)
(-3.85342e-10 3.06188e-09 -8.69495e-09)
(1.2507e-09 3.36616e-09 -1.01056e-08)
(3.41138e-09 3.55014e-09 -1.14019e-08)
(6.08095e-09 3.50386e-09 -1.23542e-08)
(9.14841e-09 3.12341e-09 -1.274e-08)