/*--------------------------------*- C++ -*----------------------------------*\
| =========                 |                                                 |
| \\      /  F ield         | foam-extend: Open Source CFD                    |
|  \\    /   O peration     | Version:     3.1                                |
|   \\  /    A nd           | Web:         http://www.extend-project.de       |
|    \\/     M anipulation  |                                                 |
\*---------------------------------------------------------------------------*/
FoamFile
{
    version     2.0;
    format      ascii;
    class       surfaceScalarField;
    location    "1.1";
    object      meshPhi;
}
// * * * * * * * * * * * * * * * * * * * * * * * * * * * * * * * * * * * * * //

dimensions      [0 3 -1 0 0 0 0];

internalField   nonuniform List<scalar> 
41600
(
-8.03751e-08
-1.17458e-09
-1.89537e-09
1.94359e-09
-1.55028e-07
-3.64875e-09
-5.66862e-09
5.81302e-09
-2.23417e-07
-6.53643e-09
-9.4982e-09
9.74027e-09
-2.87475e-07
-1.02414e-08
-1.36273e-08
1.39732e-08
-3.48929e-07
-1.53151e-08
-1.83545e-08
1.88146e-08
-4.09155e-07
-2.25058e-08
-2.39877e-08
2.45769e-08
-4.69099e-07
-3.28502e-08
-3.08607e-08
3.1599e-08
-5.29246e-07
-4.7792e-08
-3.9362e-08
4.02713e-08
-5.89512e-07
-6.93744e-08
-4.9959e-08
5.10587e-08
-6.48778e-07
-1.00412e-07
-6.32282e-08
6.45346e-08
-7.04579e-07
-1.44677e-07
-7.98963e-08
8.14278e-08
-7.53638e-07
-2.07147e-07
-1.00936e-07
1.02715e-07
-7.91519e-07
-2.93661e-07
-1.27718e-07
1.2977e-07
-8.1343e-07
-4.08888e-07
-1.61992e-07
1.64378e-07
-8.14317e-07
-5.46041e-07
-2.03359e-07
2.0671e-07
-8.6787e-07
-2.85007e-07
3.79489e-07
-2.39484e-07
-1.95004e-09
-5.65944e-09
5.80323e-09
-4.61674e-07
-6.11647e-09
-1.69091e-08
1.73396e-08
-6.64947e-07
-1.10674e-08
-2.82942e-08
2.90155e-08
-8.55192e-07
-1.74706e-08
-4.05385e-08
4.15689e-08
-1.03753e-06
-2.62818e-08
-5.45194e-08
5.58916e-08
-1.21594e-06
-3.87934e-08
-7.11303e-08
7.28918e-08
-1.39341e-06
-5.67949e-08
-9.134e-08
9.35492e-08
-1.57169e-06
-8.27941e-08
-1.16264e-07
1.18978e-07
-1.75059e-06
-1.20277e-07
-1.47199e-07
1.5047e-07
-1.927e-06
-1.73955e-07
-1.85665e-07
1.89545e-07
-2.09421e-06
-2.50075e-07
-2.33447e-07
2.37995e-07
-2.24211e-06
-3.56481e-07
-2.92677e-07
2.97966e-07
-2.3569e-06
-5.01294e-07
-3.65919e-07
3.72029e-07
-2.42241e-06
-6.88621e-07
-4.55651e-07
4.62669e-07
-2.42124e-06
-9.0406e-07
-5.58793e-07
5.67454e-07
-1.22526e-06
-7.13083e-07
8.56159e-07
-3.9383e-07
-2.21488e-09
-9.28506e-09
9.5211e-09
-7.58582e-07
-7.05164e-09
-2.77042e-08
2.84104e-08
-1.09167e-06
-1.29608e-08
-4.62704e-08
4.74531e-08
-1.40298e-06
-2.06983e-08
-6.61575e-08
6.78466e-08
-1.70075e-06
-3.14073e-08
-8.87636e-08
9.10152e-08
-1.99145e-06
-4.66354e-08
-1.15495e-07
1.18388e-07
-2.28021e-06
-6.8516e-08
-1.47874e-07
1.51497e-07
-2.57035e-06
-1.00036e-07
-1.87609e-07
1.92047e-07
-2.86214e-06
-1.45292e-07
-2.36615e-07
2.41946e-07
-3.15172e-06
-2.09767e-07
-2.96982e-07
3.03285e-07
-3.43e-06
-3.00594e-07
-3.70892e-07
3.78247e-07
-3.68066e-06
-4.26302e-07
-4.6044e-07
4.68929e-07
-3.8807e-06
-5.94928e-07
-5.67144e-07
5.76838e-07
-4.00262e-06
-8.08741e-07
-6.9046e-07
7.01291e-07
-4.01686e-06
-1.05083e-06
-8.21961e-07
8.33705e-07
-1.37129e-06
-9.71977e-07
1.0711e-06
-5.40676e-07
-1.94313e-09
-1.26549e-08
1.29771e-08
-1.04065e-06
-6.37446e-09
-3.77031e-08
3.86664e-08
-1.49647e-06
-1.20725e-08
-6.28364e-08
6.44487e-08
-1.92159e-06
-1.96798e-08
-8.96206e-08
9.1922e-08
-2.32703e-06
-3.02752e-08
-1.19894e-07
1.2296e-07
-2.7217e-06
-4.5359e-08
-1.55484e-07
1.59418e-07
-3.11276e-06
-6.70161e-08
-1.98343e-07
2.03254e-07
-3.50518e-06
-9.81421e-08
-2.50597e-07
2.56598e-07
-3.90061e-06
-1.42675e-07
-3.14554e-07
3.21746e-07
-4.29624e-06
-2.05825e-07
-3.92589e-07
4.01052e-07
-4.6831e-06
-2.94196e-07
-4.86893e-07
4.96672e-07
-5.04252e-06
-4.15512e-07
-5.99006e-07
6.10102e-07
-5.34531e-06
-5.77188e-07
-7.28647e-07
7.40988e-07
-5.55562e-06
-7.81484e-07
-8.71291e-07
8.84538e-07
-5.63165e-06
-1.01518e-06
-1.01279e-06
1.02606e-06
-1.28495e-06
-1.15814e-06
1.24456e-06
-6.7814e-07
-1.19141e-09
-1.56817e-08
1.60818e-08
-1.30446e-06
-4.24047e-09
-4.66503e-08
4.78459e-08
-1.87444e-06
-8.63439e-09
-7.75707e-08
7.95701e-08
-2.40455e-06
-1.47268e-08
-1.10326e-07
1.13178e-07
-2.9083e-06
-2.33285e-08
-1.47105e-07
1.50899e-07
-3.39682e-06
-3.56443e-08
-1.90052e-07
1.94906e-07
-3.87913e-06
-5.33844e-08
-2.414e-07
2.47448e-07
-4.36188e-06
-7.89181e-08
-3.03529e-07
3.10902e-07
-4.84871e-06
-1.15432e-07
-3.78955e-07
3.87762e-07
-5.33907e-06
-1.67059e-07
-4.70186e-07
4.8048e-07
-5.82648e-06
-2.38932e-07
-5.79381e-07
5.91122e-07
-6.29527e-06
-3.37083e-07
-7.07721e-07
7.20728e-07
-6.71679e-06
-4.67964e-07
-8.53741e-07
8.67647e-07
-7.05006e-06
-6.3539e-07
-1.00995e-06
1.02411e-06
-7.23474e-06
-8.3431e-07
-1.15642e-06
1.17019e-06
-1.02723e-06
-1.30129e-06
1.38289e-06
-8.04948e-07
-6.78577e-11
-1.83119e-08
1.87804e-08
-1.5474e-06
-9.60692e-10
-5.43886e-08
5.5788e-08
-2.22158e-06
-3.16611e-09
-9.0216e-08
9.25541e-08
-2.84656e-06
-6.63512e-09
-1.27915e-07
1.31245e-07
-3.43801e-06
-1.17724e-08
-1.69928e-07
1.74351e-07
-4.00889e-06
-1.93174e-08
-2.18602e-07
2.24249e-07
-4.56981e-06
-3.03846e-08
-2.76319e-07
2.8334e-07
-5.12903e-06
-4.65425e-08
-3.45567e-07
3.54105e-07
-5.69212e-06
-6.98799e-08
-4.28929e-07
4.39086e-07
-6.26123e-06
-1.03029e-07
-5.28945e-07
5.40735e-07
-6.83379e-06
-1.4916e-07
-6.47808e-07
6.61079e-07
-7.4003e-06
-2.12041e-07
-7.86742e-07
8.01071e-07
-7.94038e-06
-2.96314e-07
-9.44342e-07
9.58941e-07
-8.4155e-06
-4.07147e-07
-1.11239e-06
1.12616e-06
-8.74665e-06
-5.51037e-07
-1.26604e-06
1.27923e-06
-6.52466e-07
-1.42542e-06
1.51498e-06
-9.19808e-07
1.2698e-09
-2.05124e-08
2.10389e-08
-1.76695e-06
2.99439e-09
-6.08251e-08
6.23969e-08
-2.53429e-06
3.52386e-09
-1.0063e-07
1.03254e-07
-3.2431e-06
3.36235e-09
-1.42206e-07
1.45937e-07
-3.91076e-06
2.58014e-09
-1.8815e-07
1.93096e-07
-4.5516e-06
9.82259e-10
-2.40901e-07
2.47204e-07
-5.17742e-06
-1.86403e-09
-3.02876e-07
3.10694e-07
-5.79767e-06
-6.63063e-09
-3.7654e-07
3.86021e-07
-6.41943e-06
-1.42231e-08
-4.644e-07
4.75638e-07
-7.04703e-06
-2.57195e-08
-5.68901e-07
5.81874e-07
-7.68141e-06
-4.2282e-08
-6.92181e-07
7.06647e-07
-8.31906e-06
-6.51812e-08
-8.35616e-07
8.5095e-07
-8.95018e-06
-9.61382e-08
-9.98635e-07
1.01364e-06
-9.5482e-06
-1.38768e-07
-1.17483e-06
1.18775e-06
-1.00383e-05
-2.08217e-07
-1.33939e-06
1.35086e-06
-1.86986e-07
-1.54812e-06
1.65539e-06
-1.02163e-06
-2.22713e-08
2.2845e-08
2.63529e-09
-1.96116e-06
-6.59329e-08
6.76445e-08
7.06942e-09
-2.80996e-06
-1.08789e-07
1.11642e-07
1.0485e-08
-3.59103e-06
-1.53194e-07
1.57246e-07
1.38283e-08
-4.32297e-06
-2.0181e-07
2.07169e-07
1.7642e-08
-5.021e-06
-2.57071e-07
2.63885e-07
2.22681e-08
-5.6976e-06
-3.21321e-07
3.29752e-07
2.79313e-08
-6.36281e-06
-3.96878e-07
4.07075e-07
3.47898e-08
-7.02437e-06
-4.86027e-07
4.9808e-07
4.29894e-08
-7.68755e-06
-5.90922e-07
6.04794e-07
5.27421e-08
-8.35472e-06
-7.13363e-07
7.28781e-07
6.44041e-08
-9.02426e-06
-8.54361e-07
8.70665e-07
7.84497e-08
-9.68803e-06
-1.01311e-06
1.0291e-06
9.50737e-08
-1.03174e-05
-1.18335e-06
1.19744e-06
1.1214e-07
-1.08363e-05
-1.34179e-06
1.35561e-06
1.16179e-07
-1.6656e-06
1.80045e-06
5.08735e-07
-8.18115e-08
-1.41348e-09
-1.77698e-09
-1.57815e-07
-4.37362e-09
-5.31423e-09
-2.27538e-07
-7.78788e-09
-8.90402e-09
-2.93032e-07
-1.2119e-08
-1.27757e-08
-3.56068e-07
-1.79885e-08
-1.72091e-08
-4.18092e-07
-2.62325e-08
-2.2492e-08
-4.80094e-07
-3.80065e-08
-2.89352e-08
-5.42548e-07
-5.49075e-08
-3.68936e-08
-6.05396e-07
-7.91968e-08
-4.67822e-08
-6.67548e-07
-1.13999e-07
-5.90863e-08
-7.26499e-07
-1.63465e-07
-7.43494e-08
-7.79014e-07
-2.3297e-07
-9.31451e-08
-8.21094e-07
-3.286e-07
-1.15963e-07
-8.49121e-07
-4.54569e-07
-1.42676e-07
-8.6082e-07
-6.02399e-07
-1.70429e-07
-8.51076e-07
-2.07313e-07
-2.43729e-07
-2.39713e-09
-5.30615e-09
-4.69892e-07
-7.47168e-09
-1.58521e-08
-6.77082e-07
-1.34016e-08
-2.65238e-08
-8.71468e-07
-2.09548e-08
-3.80026e-08
-1.05834e-06
-3.12104e-08
-5.11105e-08
-1.2419e-06
-4.56188e-08
-6.66848e-08
-1.42532e-06
-6.61781e-08
-8.5629e-08
-1.61046e-06
-9.56779e-08
-1.08966e-07
-1.79715e-06
-1.3799e-07
-1.37856e-07
-1.98214e-06
-1.98313e-07
-1.73576e-07
-2.15841e-06
-2.83473e-07
-2.17438e-07
-2.31577e-06
-4.01891e-07
-2.70611e-07
-2.44087e-06
-5.61882e-07
-3.33626e-07
-2.51936e-06
-7.66556e-07
-4.04885e-07
-2.54072e-06
-9.99268e-07
-4.76276e-07
-1.25315e-06
-5.47409e-07
-4.0069e-07
-2.82421e-09
-8.70508e-09
-7.71877e-07
-8.9008e-09
-2.59714e-08
-1.11131e-06
-1.61426e-08
-4.33736e-08
-1.42922e-06
-2.54277e-08
-6.20143e-08
-1.73419e-06
-3.8058e-08
-8.32043e-08
-2.03307e-06
-5.57787e-08
-1.08264e-07
-2.33129e-06
-8.09772e-08
-1.38617e-07
-2.6325e-06
-1.16982e-07
-1.75839e-07
-2.93695e-06
-1.68342e-07
-2.2165e-07
-3.24031e-06
-2.41091e-07
-2.77817e-07
-3.53284e-06
-3.43013e-07
-3.4592e-07
-3.7976e-06
-4.83262e-07
-4.26909e-07
-4.01104e-06
-6.70032e-07
-5.20042e-07
-4.14616e-06
-9.04573e-07
-6.2066e-07
-4.18158e-06
-1.16812e-06
-7.15988e-07
-1.42989e-06
-7.93792e-07
-5.49899e-07
-2.66463e-09
-1.18637e-08
-1.0586e-06
-8.56705e-09
-3.53437e-08
-1.52298e-06
-1.58395e-08
-5.89006e-08
-1.95698e-06
-2.52513e-08
-8.40042e-08
-2.37209e-06
-3.80532e-08
-1.12379e-07
-2.77772e-06
-5.59517e-08
-1.45746e-07
-3.1814e-06
-8.12901e-08
-1.85928e-07
-3.58843e-06
-1.17301e-07
-2.34899e-07
-4.00048e-06
-1.68355e-07
-2.94746e-07
-4.41428e-06
-2.40199e-07
-3.675e-07
-4.82e-06
-3.40071e-07
-4.54761e-07
-5.19769e-06
-4.76357e-07
-5.5698e-07
-5.51641e-06
-6.56871e-07
-6.71834e-07
-5.73876e-06
-8.83503e-07
-7.91422e-07
-5.82967e-06
-1.1421e-06
-8.98777e-07
-1.38056e-06
-9.83163e-07
-6.89498e-07
-1.97599e-09
-1.4701e-08
-1.32658e-06
-6.62415e-09
-4.37299e-08
-1.90704e-06
-1.27169e-08
-7.27084e-08
-2.44799e-06
-2.07261e-08
-1.03405e-07
-2.96352e-06
-3.16258e-08
-1.37875e-07
-3.46531e-06
-4.68138e-08
-1.78136e-07
-3.96281e-06
-6.82349e-08
-2.26281e-07
-4.46302e-06
-9.85492e-08
-2.84526e-07
-4.96964e-06
-1.41309e-07
-3.55169e-07
-5.48184e-06
-2.01102e-07
-4.40393e-07
-5.99234e-06
-2.83619e-07
-5.41837e-07
-6.48388e-06
-3.95587e-07
-6.59728e-07
-6.92522e-06
-5.44239e-07
-7.90835e-07
-7.27162e-06
-7.34114e-07
-9.24856e-07
-7.46491e-06
-9.60435e-07
-1.04026e-06
-1.15686e-06
-1.13196e-06
-8.18165e-07
-8.67783e-10
-1.71662e-08
-1.5731e-06
-3.38988e-09
-5.09811e-08
-2.25934e-06
-7.31202e-09
-8.4554e-08
-2.89672e-06
-1.26836e-08
-1.19877e-07
-3.50158e-06
-2.00512e-08
-1.59245e-07
-4.08746e-06
-3.03178e-08
-2.04867e-07
-4.66546e-06
-4.4787e-08
-2.5898e-07
-5.24422e-06
-6.52501e-08
-3.23912e-07
-5.82951e-06
-9.40713e-08
-4.02042e-07
-6.42335e-06
-1.34222e-07
-4.95632e-07
-7.02259e-06
-1.89317e-07
-6.06425e-07
-7.61647e-06
-2.63763e-07
-7.34841e-07
-8.18186e-06
-3.63265e-07
-8.77884e-07
-8.67521e-06
-4.94901e-07
-1.02469e-06
-9.01259e-06
-6.67348e-07
-1.14944e-06
-8.09621e-07
-1.257e-06
-9.34559e-07
4.95263e-10
-1.92278e-08
-1.79557e-06
6.43113e-10
-5.70097e-08
-2.57621e-06
-4.73763e-10
-9.43043e-08
-3.2986e-06
-2.4236e-09
-1.33251e-07
-3.98083e-06
-5.24939e-09
-1.76292e-07
-4.63784e-06
-9.27182e-09
-2.25722e-07
-5.28196e-06
-1.50593e-08
-2.83817e-07
-5.92307e-06
-2.34338e-08
-3.52891e-07
-6.5685e-06
-3.54848e-08
-4.35274e-07
-7.22262e-06
-5.25095e-08
-5.33178e-07
-7.88606e-06
-7.59669e-08
-6.48374e-07
-8.55451e-06
-1.07613e-07
-7.81561e-07
-9.21614e-06
-1.50189e-07
-9.30684e-07
-9.8404e-06
-2.09633e-07
-1.0866e-06
-1.03425e-05
-3.05429e-07
-1.22318e-06
-3.60319e-07
-1.37351e-06
-1.03759e-06
-2.08752e-08
1.91762e-09
-1.99205e-06
-6.17916e-08
4.89156e-09
-2.85508e-06
-1.01938e-07
6.79717e-09
-3.65054e-06
-1.43526e-07
8.53633e-09
-4.39777e-06
-1.89056e-07
1.05699e-08
-5.11262e-06
-2.40822e-07
1.3153e-08
-5.80811e-06
-3.01033e-07
1.64247e-08
-6.49472e-06
-3.71871e-07
2.04581e-08
-7.18046e-06
-4.55475e-07
2.5294e-08
-7.87071e-06
-5.53816e-07
3.10199e-08
-8.56759e-06
-6.68409e-07
3.78113e-08
-9.26877e-06
-7.99718e-07
4.58028e-08
-9.96412e-06
-9.45693e-07
5.44035e-08
-1.06204e-05
-1.09767e-06
5.97028e-08
-1.11474e-05
-1.2307e-06
4.48681e-08
-1.47812e-06
3.77663e-07
-8.31076e-08
-1.62917e-09
-1.59305e-09
-1.60322e-07
-5.02518e-09
-4.7638e-09
-2.31246e-07
-8.90518e-09
-7.981e-09
-2.98058e-07
-1.37808e-08
-1.14509e-08
-3.62518e-07
-2.03235e-08
-1.5423e-08
-4.26111e-07
-2.94243e-08
-2.01504e-08
-4.89947e-07
-4.2319e-08
-2.59054e-08
-5.5454e-07
-6.06948e-08
-3.29898e-08
-6.1974e-07
-8.68864e-08
-4.17307e-08
-6.84528e-07
-1.24083e-07
-5.2474e-08
-7.4651e-07
-1.76419e-07
-6.55249e-08
-8.0254e-07
-2.48945e-07
-8.10209e-08
-8.48995e-07
-3.46743e-07
-9.87054e-08
-8.82787e-07
-4.7181e-07
-1.17442e-07
-9.01611e-07
-6.12931e-07
-1.34254e-07
-8.61483e-07
-1.51298e-07
-2.47556e-07
-2.80028e-09
-4.75709e-09
-4.77258e-07
-8.68738e-09
-1.42103e-08
-6.87969e-07
-1.54802e-08
-2.37738e-08
-8.86097e-07
-2.40271e-08
-3.40594e-08
-1.07701e-06
-3.5496e-08
-4.58003e-08
-1.26521e-06
-5.14503e-08
-5.97381e-08
-1.45402e-06
-7.40241e-08
-7.66652e-08
-1.64535e-06
-1.06143e-07
-9.74486e-08
-1.83911e-06
-1.51828e-07
-1.23013e-07
-2.03205e-06
-2.16385e-07
-1.54274e-07
-2.21709e-06
-3.06527e-07
-1.9193e-07
-2.38425e-06
-4.30022e-07
-2.36086e-07
-2.521e-06
-5.93354e-07
-2.85556e-07
-2.61419e-06
-7.95722e-07
-3.36582e-07
-2.65397e-06
-1.01555e-06
-3.81046e-07
-1.24373e-06
-4.12615e-07
-4.06842e-07
-3.37218e-09
-7.80391e-09
-7.83761e-07
-1.05571e-08
-2.32805e-08
-1.1289e-06
-1.89741e-08
-3.88753e-08
-1.45274e-06
-2.95972e-08
-5.5577e-08
-1.76416e-06
-4.38437e-08
-7.45553e-08
-2.0705e-06
-6.35995e-08
-9.69863e-08
-2.37737e-06
-9.14068e-08
-1.24119e-07
-2.68845e-06
-1.30754e-07
-1.57292e-07
-3.00432e-06
-1.86357e-07
-1.97901e-07
-3.32049e-06
-2.64338e-07
-2.4722e-07
-3.62672e-06
-3.72286e-07
-3.06033e-07
-3.90611e-06
-5.18498e-07
-3.74013e-07
-4.13575e-06
-7.08866e-07
-4.48534e-07
-4.28966e-06
-9.39841e-07
-5.22928e-07
-4.3482e-06
-1.18618e-06
-5.85226e-07
-1.40913e-06
-6.23177e-07
-5.58139e-07
-3.31296e-09
-1.06349e-08
-1.07465e-06
-1.05319e-08
-3.16809e-08
-1.54677e-06
-1.9196e-08
-5.27922e-08
-1.98878e-06
-3.01714e-08
-7.52852e-08
-2.41263e-06
-4.48338e-08
-1.00702e-07
-2.82823e-06
-6.5029e-08
-1.30574e-07
-3.24337e-06
-9.32502e-08
-1.66508e-07
-3.6635e-06
-1.32886e-07
-2.10196e-07
-4.09055e-06
-1.88441e-07
-2.6335e-07
-4.52103e-06
-2.65701e-07
-3.27459e-07
-4.94449e-06
-3.71662e-07
-4.03303e-07
-5.34049e-06
-5.13861e-07
-4.90105e-07
-5.67811e-06
-6.97831e-07
-5.83899e-07
-5.91995e-06
-9.20587e-07
-6.75457e-07
-6.03334e-06
-1.16063e-06
-7.49675e-07
-1.35621e-06
-7.97263e-07
-6.9965e-07
-2.68167e-09
-1.31782e-08
-1.34641e-06
-8.76253e-09
-3.91979e-08
-1.93637e-06
-1.63588e-08
-6.51678e-08
-2.48714e-06
-2.60304e-08
-9.26718e-08
-3.01336e-06
-3.88692e-08
-1.2355e-07
-3.52718e-06
-5.63976e-08
-1.59601e-07
-4.03841e-06
-8.06892e-08
-2.02673e-07
-4.55433e-06
-1.14526e-07
-2.54683e-07
-5.07877e-06
-1.61545e-07
-3.17539e-07
-5.61075e-06
-2.26324e-07
-3.92889e-07
-6.14238e-06
-3.14308e-07
-4.81594e-07
-6.65561e-06
-4.31489e-07
-5.82772e-07
-7.11799e-06
-5.83211e-07
-6.91819e-07
-7.48321e-06
-7.69801e-07
-7.97701e-07
-7.69549e-06
-9.78909e-07
-8.81829e-07
-1.13448e-06
-9.40679e-07
-8.29997e-07
-1.58812e-09
-1.53879e-08
-1.59616e-06
-5.57172e-09
-4.56968e-08
-2.29334e-06
-1.10152e-08
-7.5782e-08
-2.94198e-06
-1.80386e-08
-1.07429e-07
-3.55902e-06
-2.72878e-08
-1.42694e-07
-4.15849e-06
-3.97666e-08
-1.83548e-07
-4.75193e-06
-5.68744e-08
-2.31974e-07
-5.34829e-06
-8.04786e-08
-2.9e-07
-5.95351e-06
-1.12974e-07
-3.59628e-07
-6.56951e-06
-1.57282e-07
-4.42614e-07
-7.19266e-06
-2.16786e-07
-5.39985e-07
-7.8113e-06
-2.95303e-07
-6.51157e-07
-8.40003e-06
-3.97195e-07
-7.71869e-07
-8.91218e-06
-5.26458e-07
-8.90744e-07
-9.26485e-06
-6.84693e-07
-9.85824e-07
-7.91232e-07
-1.06219e-06
-9.47769e-07
-2.03299e-10
-1.72354e-08
-1.82127e-06
-1.47219e-09
-5.10981e-08
-2.61398e-06
-4.05045e-09
-8.45153e-08
-3.34871e-06
-7.55473e-09
-1.19405e-07
-4.04417e-06
-1.21043e-08
-1.57956e-07
-4.71585e-06
-1.8092e-08
-2.02221e-07
-5.37652e-06
-2.61434e-08
-2.5422e-07
-6.03642e-06
-3.71131e-08
-3.15984e-07
-6.70308e-06
-5.20748e-08
-3.89493e-07
-7.38084e-06
-7.22344e-08
-4.76503e-07
-8.06998e-06
-9.88329e-08
-5.78147e-07
-8.76529e-06
-1.33182e-07
-6.94202e-07
-9.45248e-06
-1.77172e-07
-8.21345e-07
-1.00971e-05
-2.34769e-07
-9.49731e-07
-1.06129e-05
-3.19564e-07
-1.0571e-06
-3.42901e-07
-1.17204e-06
-1.05189e-06
-1.87112e-08
1.26895e-09
-2.01979e-06
-5.53807e-08
2.92807e-09
-2.89572e-06
-9.13493e-08
3.49068e-09
-3.70426e-06
-1.286e-07
3.8332e-09
-4.4654e-06
-1.69377e-07
4.36475e-09
-5.19554e-06
-2.15729e-07
5.29752e-09
-5.90814e-06
-2.69626e-07
6.74746e-09
-6.61405e-06
-3.32991e-07
8.79242e-09
-7.32151e-06
-4.07657e-07
1.15227e-08
-8.03591e-06
-4.95205e-07
1.51385e-08
-8.75905e-06
-5.96617e-07
2.00152e-08
-9.48774e-06
-7.11575e-07
2.66213e-08
-1.02096e-05
-8.36927e-07
3.4894e-08
-1.08877e-05
-9.63348e-07
4.21595e-08
-1.14278e-05
-1.0691e-06
3.57187e-08
-1.26589e-06
4.0439e-07
-8.42256e-08
-1.81435e-09
-1.35042e-09
-1.62502e-07
-5.58375e-09
-4.03817e-09
-2.34487e-07
-9.85773e-09
-6.76475e-09
-3.02416e-07
-1.51792e-08
-9.7041e-09
-3.68085e-07
-2.22539e-08
-1.3066e-08
-4.33043e-07
-3.20109e-08
-1.70612e-08
-4.98481e-07
-4.57266e-08
-2.19116e-08
-5.64968e-07
-6.51175e-08
-2.78537e-08
-6.32301e-07
-9.25062e-08
-3.51224e-08
-6.99446e-07
-1.31002e-07
-4.39272e-08
-7.64142e-07
-1.84563e-07
-5.43758e-08
-8.23399e-07
-2.5786e-07
-6.63261e-08
-8.73751e-07
-3.55341e-07
-7.91824e-08
-9.12192e-07
-4.78454e-07
-9.1642e-08
-9.35592e-07
-6.16719e-07
-1.01496e-07
-8.73882e-07
-1.09711e-07
-2.50853e-07
-3.14595e-09
-4.03268e-09
-4.83655e-07
-9.7279e-09
-1.20457e-08
-6.97425e-07
-1.72469e-08
-2.01499e-08
-8.98773e-07
-2.66081e-08
-2.8862e-08
-1.09323e-06
-3.90452e-08
-3.88e-08
-1.28549e-06
-5.61911e-08
-5.05818e-08
-1.47903e-06
-8.02405e-08
-6.48538e-08
-1.6758e-06
-1.14147e-07
-8.22969e-08
-1.87574e-06
-1.6191e-07
-1.0358e-07
-2.07574e-06
-2.28717e-07
-1.29263e-07
-2.26878e-06
-3.20924e-07
-1.59545e-07
-2.44511e-06
-4.45501e-07
-1.93854e-07
-2.59266e-06
-6.07619e-07
-2.30262e-07
-2.69844e-06
-8.05103e-07
-2.64823e-07
-2.75059e-06
-1.0168e-06
-2.91456e-07
-1.24147e-06
-3.05185e-07
-4.12152e-07
-3.84251e-09
-6.6155e-09
-7.94069e-07
-1.19748e-08
-1.9734e-08
-1.14413e-06
-2.13808e-08
-3.29487e-08
-1.47314e-06
-3.31042e-08
-4.70952e-08
-1.79027e-06
-4.86443e-08
-6.31609e-08
-2.1032e-06
-6.99651e-08
-8.21276e-08
-2.41766e-06
-9.96716e-08
-1.05017e-07
-2.73732e-06
-1.41277e-07
-1.32887e-07
-3.06301e-06
-1.99454e-07
-1.66761e-07
-3.39051e-06
-2.80137e-07
-2.0743e-07
-3.70934e-06
-3.90394e-07
-2.55033e-07
-4.00251e-06
-5.37421e-07
-3.08439e-07
-4.24786e-06
-7.25268e-07
-3.64319e-07
-4.41935e-06
-9.48193e-07
-4.16244e-07
-4.49487e-06
-1.18055e-06
-4.55227e-07
-1.38888e-06
-4.73195e-07
-5.65273e-07
-3.87002e-09
-9.0153e-09
-1.08858e-06
-1.22148e-08
-2.68547e-08
-1.5674e-06
-2.2052e-08
-4.47449e-08
-2.01641e-06
-3.43158e-08
-6.37989e-08
-2.44795e-06
-5.04645e-08
-8.53178e-08
-2.87229e-06
-7.24175e-08
-1.10584e-07
-3.29743e-06
-1.02723e-07
-1.40917e-07
-3.72895e-06
-1.4478e-07
-1.77665e-07
-4.16901e-06
-2.03013e-07
-2.22108e-07
-4.61421e-06
-2.82941e-07
-2.75189e-07
-5.0538e-06
-3.90936e-07
-3.37008e-07
-5.46704e-06
-5.33335e-07
-4.0603e-07
-5.82353e-06
-7.13605e-07
-4.77834e-07
-6.08537e-06
-9.26013e-07
-5.43997e-07
-6.21761e-06
-1.14778e-06
-5.93143e-07
-1.32131e-06
-6.19777e-07
-7.08445e-07
-3.28811e-09
-1.11714e-08
-1.36362e-06
-1.05949e-08
-3.32268e-08
-1.96183e-06
-1.94599e-08
-5.52351e-08
-2.52118e-06
-3.05023e-08
-7.8536e-08
-3.05674e-06
-4.48881e-08
-1.04683e-07
-3.58107e-06
-6.42012e-08
-1.35183e-07
-4.10428e-06
-9.05508e-08
-1.71564e-07
-4.63387e-06
-1.26702e-07
-2.15366e-07
-5.17385e-06
-1.76174e-07
-2.68041e-07
-5.72322e-06
-2.43239e-07
-3.30674e-07
-6.27378e-06
-3.32692e-07
-4.03454e-07
-6.80719e-06
-4.49341e-07
-4.84817e-07
-7.2905e-06
-5.96516e-07
-5.69899e-07
-7.67631e-06
-7.7164e-07
-6.48938e-07
-7.90732e-06
-9.60334e-07
-7.0786e-07
-1.09009e-06
-7.45841e-07
-8.40245e-07
-2.20753e-09
-1.30446e-08
-1.61617e-06
-7.44277e-09
-3.87355e-08
-2.32287e-06
-1.41714e-08
-6.42311e-08
-2.98135e-06
-2.25573e-08
-9.10423e-08
-3.60903e-06
-3.33056e-08
-1.20906e-07
-4.22038e-06
-4.74629e-08
-1.55478e-07
-4.82727e-06
-6.64409e-08
-1.96404e-07
-5.43897e-06
-9.20615e-08
-2.45326e-07
-6.06155e-06
-1.2657e-07
-3.03792e-07
-6.69695e-06
-1.72574e-07
-3.73007e-07
-7.34124e-06
-2.32844e-07
-4.53351e-07
-7.98241e-06
-3.10107e-07
-5.43584e-07
-8.59359e-06
-4.06918e-07
-6.39206e-07
-9.12649e-06
-5.24553e-07
-7.30261e-07
-9.4972e-06
-6.62047e-07
-8.00057e-07
-7.41444e-07
-8.54796e-07
-9.59213e-07
-8.04639e-10
-1.46106e-08
-1.84357e-06
-3.28818e-09
-4.33131e-08
-2.64679e-06
-7.10241e-09
-7.16313e-08
-3.39232e-06
-1.18896e-08
-1.01189e-07
-4.09936e-06
-1.78102e-08
-1.33837e-07
-4.78386e-06
-2.52783e-08
-1.71302e-07
-5.45898e-06
-3.49092e-08
-2.15267e-07
-6.13525e-06
-4.74887e-08
-2.67388e-07
-6.8204e-06
-6.39201e-08
-3.29215e-07
-7.5188e-06
-8.51015e-08
-4.01988e-07
-8.23047e-06
-1.11726e-07
-4.86235e-07
-8.94968e-06
-1.44173e-07
-5.81094e-07
-9.66047e-06
-1.82832e-07
-6.82897e-07
-1.03265e-05
-2.29258e-07
-7.82936e-07
-1.086e-05
-2.94063e-07
-8.64255e-07
-2.88376e-07
-9.5229e-07
-1.06427e-06
-1.58613e-08
7.09788e-10
-2.04387e-06
-4.69417e-08
1.2401e-09
-2.93106e-06
-7.74203e-08
6.65269e-10
-3.75105e-06
-1.08977e-07
-1.45526e-10
-4.52437e-06
-1.43509e-07
-8.05964e-10
-5.26788e-06
-1.82745e-07
-1.10566e-09
-5.99545e-06
-2.2833e-07
-8.98264e-10
-6.71821e-06
-2.8184e-07
-2.07665e-11
-7.44462e-06
-3.44722e-07
1.7916e-09
-8.1801e-06
-4.18108e-07
5.02748e-09
-8.92624e-06
-5.02457e-07
1.05322e-08
-9.67922e-06
-5.96905e-07
1.953e-08
-1.04252e-05
-6.97995e-07
3.31188e-08
-1.11249e-05
-7.97405e-07
5.0525e-08
-1.1681e-05
-8.7824e-07
6.17232e-08
-1.03273e-06
4.68875e-07
-8.51409e-08
-1.9646e-09
-1.05836e-09
-1.64309e-07
-6.03676e-09
-3.1648e-09
-2.37188e-07
-1.06262e-08
-5.3014e-09
-3.06008e-07
-1.62911e-08
-7.60331e-09
-3.72657e-07
-2.3761e-08
-1.02329e-08
-4.38776e-07
-3.39932e-08
-1.33525e-08
-5.05553e-07
-4.82702e-08
-1.71289e-08
-5.73606e-07
-6.82967e-08
-2.17323e-08
-6.42769e-07
-9.63518e-08
-2.73166e-08
-7.11896e-07
-1.3542e-07
-3.39877e-08
-7.78825e-07
-1.89286e-07
-4.17359e-08
-8.40732e-07
-2.62438e-07
-5.03167e-08
-8.94088e-07
-3.59192e-07
-5.91128e-08
-9.35686e-07
-4.81339e-07
-6.7059e-08
-9.61596e-07
-6.19577e-07
-7.27489e-08
-8.8546e-07
-7.68956e-08
-2.53553e-07
-3.42622e-09
-3.16054e-09
-4.88953e-07
-1.0571e-08
-9.44041e-09
-7.0526e-07
-1.86679e-08
-1.57901e-08
-9.09242e-07
-2.86586e-08
-2.26121e-08
-1.10667e-06
-4.18272e-08
-3.03863e-08
-1.30235e-06
-5.98376e-08
-3.95886e-08
-1.49981e-06
-8.4885e-08
-5.07051e-08
-1.7011e-06
-1.19896e-07
-6.42268e-08
-1.90618e-06
-1.68768e-07
-8.05946e-08
-2.11206e-06
-2.36497e-07
-1.00096e-07
-2.31185e-06
-3.29128e-07
-1.22644e-07
-2.49581e-06
-4.53134e-07
-1.47441e-07
-2.65189e-06
-6.13239e-07
-1.72605e-07
-2.76648e-06
-8.07498e-07
-1.94967e-07
-2.82558e-06
-1.01637e-06
-2.10581e-07
-1.24478e-06
-2.16434e-07
-4.16521e-07
-4.22469e-09
-5.18479e-09
-8.0261e-07
-1.31243e-08
-1.54655e-08
-1.15671e-06
-2.33177e-08
-2.58185e-08
-1.49002e-06
-3.58972e-08
-3.68953e-08
-1.81201e-06
-5.24159e-08
-4.9465e-08
-2.13041e-06
-7.48624e-08
-6.42848e-08
-2.45113e-06
-1.0584e-07
-8.2124e-08
-2.77794e-06
-1.48815e-07
-1.0375e-07
-3.11169e-06
-2.08313e-07
-1.29848e-07
-3.44859e-06
-2.89999e-07
-1.60833e-07
-3.77817e-06
-4.00461e-07
-1.96489e-07
-4.08305e-06
-5.46126e-07
-2.35465e-07
-4.3412e-06
-7.30231e-07
-2.74702e-07
-4.52566e-06
-9.46871e-07
-3.09141e-07
-4.61133e-06
-1.17193e-06
-3.32839e-07
-1.37722e-06
-3.41158e-07
-5.7117e-07
-4.32321e-09
-7.06564e-09
-1.10012e-06
-1.35797e-08
-2.10459e-08
-1.58446e-06
-2.43527e-08
-3.50622e-08
-2.03929e-06
-3.76206e-08
-4.99833e-08
-2.47728e-06
-5.48878e-08
-6.68229e-08
-2.90887e-06
-7.80958e-08
-8.65715e-08
-3.3423e-06
-1.09783e-07
-1.10228e-07
-3.78327e-06
-1.53276e-07
-1.38778e-07
-4.23405e-06
-2.12814e-07
-1.73095e-07
-4.69155e-06
-2.93564e-07
-2.13694e-07
-5.14487e-06
-4.0128e-07
-2.60295e-07
-5.57291e-06
-5.41379e-07
-3.11209e-07
-5.9453e-06
-7.16252e-07
-3.62535e-07
-6.22288e-06
-9.19551e-07
-4.07746e-07
-6.36761e-06
-1.12977e-06
-4.3915e-07
-1.29395e-06
-4.54025e-07
-7.15719e-07
-3.7813e-09
-8.75555e-09
-1.37785e-06
-1.20808e-08
-2.60401e-08
-1.98289e-06
-2.1959e-08
-4.32837e-08
-2.54937e-06
-3.40691e-08
-6.15327e-08
-3.09271e-06
-4.96156e-08
-8.1998e-08
-3.62575e-06
-7.01957e-08
-1.05846e-07
-4.15889e-06
-9.78915e-08
-1.34237e-07
-4.69982e-06
-1.3537e-07
-1.68311e-07
-5.25269e-06
-1.85935e-07
-2.09075e-07
-5.81659e-06
-2.5346e-07
-2.57157e-07
-6.38317e-06
-3.42064e-07
-3.12355e-07
-6.93388e-06
-4.55568e-07
-3.72976e-07
-7.43525e-06
-5.96072e-07
-4.34819e-07
-7.83842e-06
-7.60058e-07
-4.90388e-07
-8.08342e-06
-9.34106e-07
-5.29964e-07
-1.04999e-06
-5.54228e-07
-8.48711e-07
-2.71137e-09
-1.02238e-08
-1.63272e-06
-8.96068e-09
-3.03576e-08
-2.34731e-06
-1.67161e-08
-5.03338e-08
-3.01396e-06
-2.61629e-08
-7.13337e-08
-3.65048e-06
-3.80331e-08
-9.47125e-08
-4.27169e-06
-5.33728e-08
-1.21752e-07
-4.88975e-06
-7.35502e-08
-1.5371e-07
-5.51416e-06
-1.00269e-07
-1.91811e-07
-6.15116e-06
-1.3554e-07
-2.37147e-07
-6.80273e-06
-1.81563e-07
-2.90455e-07
-7.46481e-06
-2.4044e-07
-3.51706e-07
-8.12514e-06
-3.13909e-07
-4.19495e-07
-8.75586e-06
-4.03252e-07
-4.89941e-07
-9.30725e-06
-5.08619e-07
-5.5543e-07
-9.69308e-06
-6.2968e-07
-6.04267e-07
-6.92333e-07
-6.42462e-07
-9.68668e-07
-1.29403e-09
-1.14512e-08
-1.862e-06
-4.76226e-09
-3.3945e-08
-2.67396e-06
-9.56459e-09
-5.61327e-08
-3.42845e-06
-1.53504e-08
-7.92848e-08
-4.14511e-06
-2.22934e-08
-1.04846e-07
-4.84027e-06
-3.07936e-08
-1.34155e-07
-5.52739e-06
-4.1409e-08
-1.68505e-07
-6.21726e-06
-5.47951e-08
-2.09137e-07
-6.91778e-06
-7.16137e-08
-2.57161e-07
-7.63336e-06
-9.23715e-08
-3.13361e-07
-8.36391e-06
-1.17142e-07
-3.77856e-07
-9.10333e-06
-1.45381e-07
-4.49571e-07
-9.83462e-06
-1.76277e-07
-5.25286e-07
-1.052e-05
-2.10157e-07
-5.98316e-07
-1.10697e-05
-2.57735e-07
-6.56718e-07
-2.32188e-07
-7.21267e-07
-1.07451e-06
-1.24313e-08
2.54446e-10
-2.06379e-06
-3.67883e-08
-1.31038e-10
-2.96032e-06
-6.06683e-08
-1.61589e-09
-3.78984e-06
-8.53861e-08
-3.32415e-09
-4.57329e-06
-1.12424e-07
-4.86986e-09
-5.32793e-06
-1.43125e-07
-6.01647e-09
-6.06794e-06
-1.78756e-07
-6.55072e-09
-6.80472e-06
-2.20506e-07
-6.17528e-09
-7.54691e-06
-2.69417e-07
-4.39279e-09
-8.29997e-06
-3.26216e-07
-3.54272e-10
-9.06536e-06
-3.91003e-07
7.33315e-09
-9.83886e-06
-4.62745e-07
2.06851e-08
-1.06055e-05
-5.38392e-07
4.18184e-08
-1.13247e-05
-6.11477e-07
7.10697e-08
-1.18959e-05
-6.69898e-07
9.86663e-08
-7.84922e-07
5.35389e-07
-8.58425e-08
-2.07797e-09
-7.27687e-10
-1.65695e-07
-6.37752e-09
-2.17597e-09
-2.39259e-07
-1.12001e-08
-3.64477e-09
-3.08769e-07
-1.71126e-08
-5.22653e-09
-3.76182e-07
-2.486e-08
-7.03148e-09
-4.43197e-07
-3.54121e-08
-9.16899e-09
-5.11008e-07
-5.00415e-08
-1.175e-08
-5.80262e-07
-7.04272e-08
-1.4883e-08
-6.50824e-07
-9.87975e-08
-1.86573e-08
-7.21488e-07
-1.38038e-07
-2.31171e-08
-7.90136e-07
-1.91835e-07
-2.82118e-08
-8.54013e-07
-2.6464e-07
-3.37195e-08
-9.09462e-07
-3.60909e-07
-3.91727e-08
-9.53027e-07
-4.82973e-07
-4.38631e-08
-9.80242e-07
-6.22348e-07
-4.69949e-08
-8.95178e-07
-4.9098e-08
-2.55624e-07
-3.63776e-09
-2.1731e-09
-4.93027e-07
-1.12056e-08
-6.49078e-09
-7.11292e-07
-1.9731e-08
-1.08558e-08
-9.17319e-07
-3.01776e-08
-1.55433e-08
-1.11705e-06
-4.38603e-08
-2.08798e-08
-1.31536e-06
-6.24501e-08
-2.71865e-08
-1.51585e-06
-8.81183e-08
-3.47869e-08
-1.72062e-06
-1.23743e-07
-4.39945e-08
-1.92967e-06
-1.73111e-07
-5.50678e-08
-2.14009e-06
-2.41057e-07
-6.81281e-08
-2.34506e-06
-3.33432e-07
-8.29996e-08
-2.53475e-06
-4.5652e-07
-9.8993e-08
-2.69687e-06
-6.15126e-07
-1.14709e-07
-2.81708e-06
-8.08025e-07
-1.28042e-07
-2.87985e-06
-1.01695e-06
-1.36717e-07
-1.25042e-06
-1.39114e-07
-4.19879e-07
-4.51335e-09
-3.56493e-09
-8.09188e-07
-1.39902e-08
-1.06333e-08
-1.16642e-06
-2.47682e-08
-1.77499e-08
-1.50306e-06
-3.79694e-08
-2.53606e-08
-1.8288e-06
-5.51751e-08
-3.39897e-08
-2.15143e-06
-7.83705e-08
-4.41498e-08
-2.47697e-06
-1.10129e-07
-5.63532e-08
-2.8093e-06
-1.53842e-07
-7.1092e-08
-3.14929e-06
-2.13881e-07
-8.87743e-08
-3.49345e-06
-2.95677e-07
-1.0958e-07
-3.83131e-06
-4.05491e-07
-1.33204e-07
-4.14512e-06
-5.49386e-07
-1.58529e-07
-4.41258e-06
-7.30498e-07
-1.83321e-07
-4.60561e-06
-9.43542e-07
-2.04227e-07
-4.69699e-06
-1.16589e-06
-2.1775e-07
-1.37249e-06
-2.2144e-07
-5.75708e-07
-4.66547e-09
-4.85821e-09
-1.109e-06
-1.46078e-08
-1.44702e-08
-1.5976e-06
-2.60758e-08
-2.41048e-08
-2.05693e-06
-4.00726e-08
-3.43569e-08
-2.49991e-06
-5.81223e-08
-4.59191e-08
-2.9371e-06
-8.21594e-08
-5.94635e-08
-3.3769e-06
-1.14682e-07
-7.56562e-08
-3.82517e-06
-1.58917e-07
-9.5134e-08
-4.28425e-06
-2.18911e-07
-1.18427e-07
-4.75125e-06
-2.99523e-07
-1.4577e-07
-5.21524e-06
-4.06064e-07
-1.76802e-07
-5.65477e-06
-5.43447e-07
-2.10155e-07
-6.03903e-06
-7.13751e-07
-2.43024e-07
-6.32758e-06
-9.1103e-07
-2.71086e-07
-6.48002e-06
-1.11538e-06
-2.89706e-07
-1.27661e-06
-2.97685e-07
-7.21315e-07
-4.1537e-09
-6.02025e-09
-1.3888e-06
-1.32001e-08
-1.79042e-08
-1.99911e-06
-2.38306e-08
-2.97574e-08
-2.57108e-06
-3.67148e-08
-4.22972e-08
-3.12043e-06
-5.30706e-08
-5.63517e-08
-3.6602e-06
-7.44815e-08
-7.27127e-08
-4.20099e-06
-1.02975e-07
-9.21579e-08
-4.75066e-06
-1.41095e-07
-1.15429e-07
-5.31349e-06
-1.91924e-07
-1.43148e-07
-5.88865e-06
-2.58983e-07
-1.75628e-07
-6.46771e-06
-3.4588e-07
-2.12559e-07
-7.03189e-06
-4.55829e-07
-2.5258e-07
-7.54711e-06
-5.90436e-07
-2.9269e-07
-7.96318e-06
-7.46355e-07
-3.2793e-07
-8.2177e-06
-9.1181e-07
-3.52299e-07
-1.02115e-06
-3.66811e-07
-8.55224e-07
-3.09185e-09
-7.02992e-09
-1.64545e-06
-1.01042e-08
-2.0873e-08
-2.36613e-06
-1.86224e-08
-3.4605e-08
-3.03908e-06
-2.88376e-08
-4.90363e-08
-3.68243e-06
-4.1487e-08
-6.50941e-08
-4.31124e-06
-5.75939e-08
-8.36503e-08
-4.93792e-06
-7.84591e-08
-1.0555e-07
-5.57213e-06
-1.0565e-07
-1.31598e-07
-6.22028e-06
-1.40941e-07
-1.62476e-07
-6.88438e-06
-1.8616e-07
-1.98581e-07
-7.5603e-06
-2.42879e-07
-2.3973e-07
-8.23554e-06