/*--------------------------------*- C++ -*----------------------------------*\
| =========                 |                                                 |
| \\      /  F ield         | foam-extend: Open Source CFD                    |
|  \\    /   O peration     | Version:     3.1                                |
|   \\  /    A nd           | Web:         http://www.extend-project.de       |
|    \\/     M anipulation  |                                                 |
\*---------------------------------------------------------------------------*/
FoamFile
{
    version     2.0;
    format      ascii;
    class       volScalarField;
    location    "1.1";
    object      p;
}
// * * * * * * * * * * * * * * * * * * * * * * * * * * * * * * * * * * * * * //

dimensions      [0 2 -2 0 0 0 0];

internalField   nonuniform List<scalar> 
14592
(
0.0475636
0.0477727
0.0480407
0.0481713
0.0481422
0.0479869
0.0477522
0.0474795
0.0472008
0.0469331
0.0466803
0.0464291
0.0461398
0.045725
0.0450041
0.0437956
0.0473165
0.0474472
0.0477552
0.0479598
0.0479936
0.0478857
0.0476854
0.04744
0.047184
0.0469404
0.0467193
0.0465157
0.046303
0.0460146
0.0454194
0.043965
0.047095
0.0471335
0.0474491
0.0477242
0.0478169
0.0477481
0.0475734
0.0473448
0.0471033
0.0468782
0.046688
0.0465395
0.046421
0.0462803
0.0458491
0.0442645
0.0469634
0.0469123
0.0471903
0.0475044
0.0476362
0.047589
0.0474244
0.0471988
0.0469566
0.0467329
0.0465545
0.0464395
0.0463919
0.0463794
0.0461432
0.0446648
0.0469035
0.0467804
0.0469948
0.0473136
0.0474613
0.0474175
0.0472465
0.047007
0.0467459
0.0465009
0.0463047
0.0461861
0.0461663
0.0462455
0.0462236
0.04502
0.0468755
0.0467034
0.0468522
0.0471516
0.0472938
0.0472359
0.0470429
0.046772
0.0464708
0.0461771
0.0459258
0.0457518
0.0456935
0.045792
0.0459586
0.045101
0.0468366
0.0466343
0.0467307
0.0470018
0.0471248
0.0470406
0.0468113
0.0464961
0.0461353
0.0457647
0.0454151
0.0451183
0.0449194
0.0448895
0.045121
0.0444014
0.0467561
0.0465381
0.0466034
0.0468501
0.0469487
0.0468323
0.0465616
0.0461895
0.0457537
0.0452822
0.0447934
0.0442993
0.0438173
0.0433603
0.0432397
0.0412085
0.0478053
0.0480249
0.0483186
0.0484777
0.0484787
0.0483608
0.048179
0.047983
0.0478128
0.0476959
0.0476494
0.047681
0.0477842
0.0479182
0.04803
0.0483602
0.0475551
0.0476851
0.0480147
0.0482509
0.0483192
0.0482536
0.0481114
0.047948
0.0478068
0.0477214
0.0477169
0.0478102
0.048008
0.0482795
0.048544
0.0491637
0.0473424
0.0473725
0.0477017
0.0480078
0.0481367
0.0481119
0.0479973
0.0478534
0.0477304
0.0476693
0.0477052
0.0478695
0.0481883
0.0486505
0.0491541
0.0501389
0.0472329
0.0471693
0.0474497
0.0477891
0.0479549
0.04795
0.0478443
0.0477027
0.0475793
0.0475215
0.0475744
0.047784
0.0481978
0.0488334
0.0495931
0.050985
0.0472029
0.0470659
0.0472707
0.0476049
0.0477811
0.0477748
0.0476584
0.0474992
0.0473534
0.047271
0.0473048
0.0475133
0.0479662
0.0487205
0.0497072
0.0515008
0.0472038
0.047018
0.0471468
0.0474502
0.0476129
0.0475859
0.0474405
0.0472437
0.0470502
0.0469103
0.0468784
0.0470201
0.0474233
0.0481901
0.0492999
0.0513488
0.0471841
0.0469689
0.0470371
0.0473019
0.0474373
0.0473768
0.0471886
0.0469377
0.0466732
0.0464412
0.0462897
0.0462784
0.0464967
0.0470741
0.0480572
0.0496988
0.0471073
0.0468763
0.0469083
0.0471416
0.0472462
0.0471467
0.0469089
0.0465915
0.0462381
0.0458847
0.0455619
0.0453017
0.0451504
0.045158
0.0454662
0.0441477
0.0480551
0.0482855
0.0486045
0.0487915
0.0488212
0.0487383
0.0486055
0.0484798
0.0484079
0.0484248
0.0485558
0.0488186
0.0492189
0.0497316
0.0503353
0.0511551
0.0478035
0.0479346
0.0482859
0.0485524
0.0486533
0.0486272
0.0485385
0.0484501
0.0484128
0.0484675
0.0486478
0.0489798
0.0494792
0.0501235
0.0508912
0.0520557
0.0476009
0.0476261
0.0479702
0.0483058
0.0484684
0.0484842
0.0484248
0.0483582
0.048342
0.0484252
0.0486521
0.0490632
0.0496936
0.0505383
0.0515786
0.0531982
0.0475138
0.0474425
0.0477282
0.0480919
0.048289
0.0483225
0.0482702
0.0482049
0.0481878
0.0482751
0.0485213
0.0489831
0.0497177
0.0507477
0.0520673
0.0541652
0.0475129
0.0473678
0.047568
0.0479174
0.0481191
0.0481463
0.0480787
0.0479915
0.0479482
0.0480073
0.0482316
0.0486909
0.0494651
0.050612
0.0521442
0.0546609
0.0475411
0.0473483
0.0474639
0.047772
0.0479524
0.0479519
0.0478486
0.0477174
0.047619
0.0476119
0.0477605
0.0481411
0.0488501
0.0499809
0.0515581
0.0542492
0.0475393
0.047318
0.0473667
0.0476266
0.0477717
0.0477303
0.0475769
0.0473825
0.0472026
0.0470898
0.0471004
0.0473027
0.0477893
0.0486662
0.0499445
0.0519382
0.0474656
0.0472288
0.0472369
0.0474586
0.0475662
0.0474792
0.0472685
0.0469982
0.0467166
0.0464642
0.0462772
0.0461911
0.046247
0.046455
0.0468281
0.0451132
0.0482957
0.0485362
0.0488788
0.0490919
0.0491479
0.0490963
0.0490064
0.0489414
0.0489529
0.0490807
0.0493538
0.0497929
0.050405
0.0511669
0.0520522
0.0530526
0.0480439
0.0481772
0.0485488
0.0488432
0.0489738
0.0489826
0.0489408
0.048917
0.0489679
0.0491382
0.0494653
0.0499772
0.0506879
0.0515729
0.0526169
0.0539513
0.0478515
0.0478741
0.048233
0.0485957
0.0487888
0.0488404
0.048829
0.0488288
0.0489027
0.0491044
0.0494812
0.050075
0.0509175
0.0519988
0.053317
0.0551139
0.0477852
0.0477095
0.0480024
0.0483886
0.0486138
0.0486809
0.0486745
0.0486742
0.0487464
0.0489516
0.049348
0.0499929
0.0509396
0.0522029
0.0537984
0.0560837
0.0478107
0.0476615
0.047861
0.048225
0.0484494
0.0485055
0.0484794
0.0484533
0.0484951
0.048668
0.0490384
0.0496766
0.0506573
0.0520251
0.0538107
0.0565026
0.0478634
0.0476678
0.047776
0.0480896
0.0482854
0.0483073
0.0482392
0.0481626
0.0481425
0.0482416
0.0485272
0.0490751
0.0499743
0.051296
0.0530656
0.0558706
0.0478775
0.0476545
0.0476906
0.0479477
0.0481008
0.0480748
0.0479494
0.0478018
0.0476909
0.0476727
0.0478053
0.0481546
0.0488018
0.0498179
0.0511738
0.0531188
0.0478062
0.0475681
0.0475599
0.0477729
0.0478824
0.0478043
0.0476149
0.0473828
0.0471592
0.0469867
0.0469013
0.0469337
0.0471085
0.0473898
0.0477045
0.0455219
0.0485107
0.0487601
0.0491232
0.049359
0.0494377
0.0494125
0.0493579
0.0493422
0.0494201
0.0496341
0.0500141
0.0505801
0.0513357
0.0522538
0.0532936
0.0543658
0.0482593
0.048395
0.0487845
0.049103
0.049259
0.0492972
0.0492939
0.0493226
0.0494436
0.0497034
0.0501404
0.0507804
0.0516325
0.0526659
0.0538567
0.0552562
0.0480761
0.0480976
0.0484698
0.0488562
0.0490752
0.0491568
0.0491847
0.0492381
0.0493834
0.0496761
0.050164
0.0508858
0.0518666
0.0530882
0.0545453
0.0563992
0.048028
0.04795
0.0482503
0.0486564
0.0489054
0.0490004
0.0490315
0.0490832
0.0492256
0.0495207
0.0500267
0.0507975
0.0518784
0.0532737
0.0549985
0.0573369
0.048076
0.047925
0.0481259
0.0485033
0.0487469
0.0488266
0.048834
0.0488563
0.0489644
0.0492234
0.0496992
0.050458
0.0515652
0.0530509
0.0549448
0.0576748
0.0481494
0.0479533
0.0480579
0.0483773
0.0485861
0.048626
0.0485858
0.0485521
0.0485924
0.0487709
0.0491539
0.0498126
0.050824
0.0522388
0.0540734
0.0568735
0.0481765
0.0479543
0.0479828
0.048239
0.0483986
0.0483847
0.0482808
0.0481694
0.0481112
0.0481631
0.0483816
0.0488264
0.049564
0.0506361
0.0519828
0.0538207
0.048107
0.04787
0.0478514
0.0480584
0.0481691
0.0480973
0.0479237
0.0477207
0.0475411
0.0474275
0.0474132
0.0475212
0.0477589
0.0480531
0.0482761
0.0457082
0.0486858
0.0489426
0.0493222
0.0495762
0.0496729
0.0496681
0.0496405
0.0496616
0.0497885
0.0500649
0.0505199
0.0511716
0.0520196
0.0530314
0.0541543
0.0552556
0.0484352
0.0485733
0.0489771
0.049315
0.0494909
0.0495519
0.049578
0.049646
0.0498186
0.050143
0.0506567
0.0513828
0.0523249
0.0534463
0.0547142
0.0561396
0.0482597
0.048281
0.0486643
0.0490696
0.049309
0.0494136
0.0494714
0.0495648
0.0497625
0.0501205
0.0506851
0.0514918
0.0525585
0.0538605
0.0553863
0.0572576
0.048226
0.0481472
0.0484542
0.0488763
0.0491441
0.0492604
0.0493197
0.0494101
0.0496036
0.0499625
0.0505436
0.0513963
0.0525583
0.0540254
0.0558094
0.0581598
0.0482917
0.0481405
0.0483437
0.0487322
0.0489909
0.0490887
0.049121
0.0491789
0.0493348
0.0496543
0.0502013
0.0510371
0.0522182
0.0537639
0.0557008
0.058431
0.0483811
0.0481861
0.0482893
0.0486141
0.0488333
0.0488864
0.0488668
0.0488642
0.0489478
0.0491815
0.0496296
0.0503575
0.0514319
0.0528883
0.0547367
0.0575081
0.0484183
0.0481981
0.0482224
0.0484788
0.0486436
0.0486379
0.0485498
0.0484644
0.0484436
0.0485439
0.0488191
0.0493223
0.0501077
0.0511964
0.0525094
0.0542522
0.04835
0.0481153
0.0480904
0.0482937
0.0484055
0.0483382
0.0481751
0.0479925
0.0478438
0.0477705
0.0478027
0.0479559
0.0482238
0.0485065
0.048645
0.0457947
0.0488098
0.0490725
0.049464
0.0497309
0.0498401
0.0498492
0.0498396
0.0498852
0.050044
0.0503606
0.0508631
0.0515674
0.05247
0.0535343
0.0547001
0.0558135
0.0485599
0.0487013
0.0491161
0.049468
0.0496577
0.049734
0.0497797
0.0498736
0.0500799
0.0504458
0.0510079
0.0517868
0.0527819
0.0539522
0.0552589
0.0566919
0.0483896
0.0484129
0.0488051
0.0492244
0.0494782
0.0495984
0.0496759
0.0497956
0.0500273
0.050427
0.0510397
0.0518977
0.0530143
0.0543596
0.0559183
0.0577918
0.0483657
0.0482887
0.0486016
0.0490361
0.0493175
0.0494482
0.049526
0.0496415
0.0498679
0.0502673
0.0508949
0.0517965
0.0530044
0.0545086
0.0563185
0.058667
0.0484434
0.0482945
0.0485007
0.0488983
0.0491685
0.0492783
0.0493267
0.0494074
0.049594
0.0499515
0.0505421
0.0514231
0.0526448
0.0542193
0.0561715
0.0588918
0.0485436
0.0483518
0.0484556
0.0487858
0.0490131
0.0490753
0.0490687
0.0490858
0.0491967
0.0494648
0.0499523
0.05072
0.0518276
0.0533009
0.0551462
0.0578897
0.0485876
0.0483712
0.0483941
0.0486525
0.0488222
0.048822
0.0487436
0.0486743
0.0486769
0.0488069
0.049116
0.0496521
0.050461
0.0515508
0.0528317
0.0545053
0.04852
0.0482893
0.0482616
0.0484642
0.0485781
0.0485136
0.0483566
0.0481864
0.0480567
0.048008
0.0480678
0.0482459
0.0485266
0.0487931
0.0488675
0.0458335
0.0488705
0.0491329
0.0495292
0.0498028
0.0499186
0.0499353
0.0499351
0.0499929
0.0501674
0.0505033
0.0510279
0.0517563
0.0526829
0.0537697
0.0549533
0.0560722
0.0486214
0.0487614
0.0491789
0.0495373
0.0497341
0.0498183
0.0498738
0.0499807
0.0502033
0.0505888
0.0511732
0.0519758
0.0529938
0.0541848
0.0555092
0.056946
0.0484527
0.048475
0.0488673
0.0492927
0.049554
0.0496824
0.0497701
0.049903
0.0501512
0.0505706
0.0512054
0.0520862
0.0532238
0.0545866
0.0561606
0.0580337
0.0484331
0.0483563
0.0486672
0.0491061
0.0493947
0.0495332
0.0496205
0.0497487
0.0499911
0.0504097
0.0510585
0.0519816
0.0532084
0.0547269
0.0565496
0.0588943
0.0485166
0.0483691
0.0485715
0.0489711
0.0492474
0.049364
0.0494208
0.0495131
0.0497146
0.0500901
0.0507004
0.051601
0.052839
0.0544236
0.0563844
0.0590962
0.0486221
0.0484324
0.0485312
0.048861
0.049093
0.0491605
0.0491607
0.0491878
0.0493122
0.0495965
0.0501017
0.0508865
0.0520068
0.0534843
0.0553297
0.0580555
0.0486694
0.0484557
0.0484727
0.0487285
0.0489012
0.0489047
0.0488316
0.0487706
0.0487848
0.0489289
0.0492532
0.049803
0.05062
0.0517061
0.0529691
0.0545976
0.0486021
0.0483743
0.0483401
0.0485387
0.048654
0.0485919
0.0484385
0.0482749
0.0481549
0.048118
0.0481902
0.0483788
0.0486629
0.0489181
0.0489402
0.0458049
0.0472147
0.0474161
0.0475323
0.0474746
0.0472401
0.0468413
0.0462942
0.0456108
0.0447946
0.0438394
0.0427292
0.0414394
0.0399408
0.0382057
0.0362161
0.0339881
0.0471535
0.0473961
0.0475472
0.0475033
0.0472699
0.0468648
0.0463079
0.0456137
0.0447866
0.0438208
0.0426997
0.0413992
0.0398893
0.0381429
0.0361412
0.0339019
0.0470809
0.0473524
0.0475419
0.047519
0.0472897
0.0468781
0.0463092
0.0456012
0.0447599
0.0437805
0.0426476
0.0413374
0.0398206
0.0380708
0.0360678
0.0338312
0.0470034
0.047287
0.0475048
0.0475
0.0472743
0.046856
0.0462748
0.0455515
0.0446954
0.0437017
0.0425562
0.0412362
0.0397135
0.0379629
0.0359641
0.0337379
0.0469217
0.0472102
0.0474465
0.0474539
0.0472289
0.0468025
0.0462081
0.0454696
0.0445971
0.0435878
0.0424286
0.0410982
0.0395697
0.0378201
0.03583
0.0336217
0.0468392
0.0471314
0.0473795
0.0473928
0.0471643
0.0467273
0.0461181
0.0453627
0.0444726
0.0434463
0.042272
0.0409301
0.0393963
0.0376498
0.0356741
0.0334925
0.0467593
0.0470548
0.0473091
0.0473232
0.0470874
0.0466376
0.0460121
0.0452385
0.0443294
0.0432847
0.0420942
0.0407405
0.039202
0.0374615
0.0355061
0.0333601
0.0466849
0.0469828
0.0472382
0.0472477
0.0470025
0.0465386
0.0458961
0.0451037
0.0441752
0.0431116
0.0419045
0.0405391
0.0389974
0.0372658
0.0353364
0.033234
0.0470998
0.0473061
0.0474368
0.0473931
0.0471728
0.0467868
0.0462509
0.0455775
0.0447701
0.0438221
0.0427179
0.0414309
0.0399296
0.0381843
0.0361731
0.0339152
0.0469861
0.0472192
0.0473891
0.0473679
0.0471584
0.0467747
0.0462356
0.0455558
0.0447404
0.0437835
0.0426675
0.0413681
0.0398534
0.0380951
0.03607
0.0338025
0.046874
0.0471197
0.0473316
0.0473401
0.0471432
0.04676
0.0462142
0.0455243
0.0446971
0.0437279
0.0426009
0.0412918
0.0397694
0.0380068
0.0359792
0.0337154
0.0467725
0.0470146
0.0472566
0.0472908
0.0471043
0.04672
0.0461661
0.0454643
0.0446239
0.0436416
0.0425028
0.0411843
0.039656
0.0378926
0.0358685
0.0336153
0.0466746
0.0469084
0.0471697
0.0472226
0.0470425
0.0466548
0.0460914
0.0453763
0.0445215
0.0435247
0.0423729
0.0410445
0.0395109
0.0377489
0.0357336
0.0334987
0.0465807
0.0468083
0.0470816
0.0471455
0.0469667
0.0465721
0.0459962
0.0452664
0.0443952
0.0433821
0.0422158
0.0408765
0.0393382
0.0375801
0.0355802
0.0333731
0.0464931
0.0467175
0.0469973
0.0470654
0.0468827
0.0464776
0.0458874
0.0451406
0.0442512
0.0432203
0.0420383
0.0406876
0.0391453
0.0373942
0.0354167
0.0332474
0.0464142
0.0466382
0.0469197
0.0469854
0.0467944
0.0463767
0.0457704
0.0450053
0.0440968
0.0430473
0.041849
0.040487
0.0389422
0.0372014
0.0352528
0.03313
0.0470076
0.047213
0.047362
0.0473389
0.0471392
0.0467744
0.0462612
0.0456129
0.0448329
0.0439151
0.0428393
0.0415749
0.0400815
0.0383174
0.0362414
0.0338708
0.0468549
0.0470736
0.0472684
0.047278
0.047098
0.0467426
0.0462315
0.045581
0.0447966
0.0438709
0.0427852
0.0415092
0.040002
0.0382236
0.0361293
0.0337481
0.0467027
0.0469172
0.0471584
0.0472093
0.0470514
0.0467039
0.0461919
0.0455352
0.0447418
0.0438066
0.0427113
0.0414267
0.039912
0.0381292
0.036029
0.0336496
0.0465712
0.046765
0.0470369
0.0471233
0.0469843
0.0466422
0.0461269
0.0454619
0.0446576
0.0437108
0.0426047
0.0413114
0.0397909
0.0380071
0.0359082
0.0335382
0.0464528
0.0466237
0.0469127
0.0470253
0.0468996
0.0465592
0.046038
0.0453622
0.0445452
0.0435846
0.0424656
0.0411622
0.0396361
0.0378535
0.0357634
0.0334131
0.0463456
0.0464993
0.0467973
0.046926
0.0468064
0.0464626
0.0459316
0.0452424
0.0444092
0.043432
0.0422976
0.0409823
0.0394505
0.0376721
0.0355997
0.033282
0.0462493
0.0463926
0.0466948
0.0468306
0.0467107
0.0463579
0.0458135
0.0451075
0.0442556
0.0432592
0.0421072
0.0407783
0.0392412
0.0374702
0.0354247
0.0331533
0.0461645
0.0463038
0.0466068
0.0467418
0.0466137
0.0462499
0.0456895
0.0449644
0.0440918
0.0430745
0.0419034
0.0405603
0.0390187
0.0372582
0.035248
0.0330346
0.0469648
0.0471638
0.0473299
0.04733
0.0471553
0.0468183
0.0463379
0.0457287
0.0449947
0.0441291
0.0431075
0.0418914
0.0404245
0.0386421
0.0364637
0.0338921
0.0467849
0.0469817
0.0471981
0.047241
0.0470942
0.0467732
0.0463
0.0456925
0.0449577
0.0440867
0.0430576
0.0418318
0.0403516
0.0385551
0.0363522
0.0337693
0.0466001
0.0467746
0.047038
0.0471331
0.0470181
0.0467125
0.046244
0.0456347
0.0448942
0.0440167
0.0429806
0.0417482
0.0402617
0.0384612
0.0362464
0.0336599
0.0464437
0.0465811
0.0468708
0.04701
0.0469221
0.0466281
0.0461611
0.0455471
0.044798
0.0439107
0.042865
0.0416249
0.0401328
0.0383309
0.0361129
0.0335316
0.0463102
0.0464112
0.0467108
0.0468815
0.046813
0.0465252
0.0460555
0.0454328
0.044672
0.0437711
0.042712
0.041461
0.0399624
0.0381613
0.0359512
0.0333915
0.0461951
0.0462688
0.0465698
0.0467593
0.0467007
0.0464121
0.0459343
0.0452984
0.0445209
0.0436016
0.0425248
0.0412591
0.0397527
0.0379554
0.0357661
0.0332483
0.046094
0.0461507
0.04645
0.0466476
0.0465902
0.0462939
0.0458026
0.045149
0.0443504
0.0434086
0.0423097
0.0410257
0.0395099
0.0377191
0.0355637
0.0331083
0.0460046
0.0460537
0.046351
0.0465481
0.0464837
0.0461753
0.0456667
0.0449917
0.0441688
0.0432012
0.0420769
0.0407718
0.0392457
0.0374633
0.0353523
0.0329758
0.0469752
0.0471678
0.0473503
0.0473748
0.0472276
0.0469233
0.0464834
0.0459253
0.0452545
0.0444635
0.0435246
0.0423894
0.0409803
0.0391953
0.0368883
0.0340171
0.0467731
0.0469465
0.0471806
0.047257
0.0471461
0.0468645
0.0464372
0.0458851
0.0452168
0.0444241
0.0434811
0.042339
0.0409178
0.0391195
0.0367816
0.0339031
0.0465645
0.0466974
0.0469743
0.0471115
0.0470412
0.0467821
0.0463651
0.0458155
0.0451454
0.0443493
0.0434025
0.0422571
0.0408311
0.0390284
0.036669
0.0337758
0.0463936
0.0464742
0.0467677
0.0469542
0.0469178
0.0466756
0.0462643
0.0457131
0.0450366
0.0442326
0.0432777
0.0421259
0.0406947
0.0388892
0.0365186
0.0336224
0.0462559
0.0462881
0.0465793
0.0467987
0.0467859
0.0465531
0.0461413
0.0455827
0.0448948
0.0440766
0.0431075
0.0419437
0.0405048
0.0386995
0.0363346
0.0334639
0.0461423
0.0461389
0.0464197
0.0466566
0.0466556
0.046423
0.0460034
0.0454309
0.0447243
0.0438849
0.042894
0.0417113
0.0402611
0.0384592
0.0361196
0.0333079
0.0460432
0.0460172
0.0462873
0.0465301
0.0465303
0.0462898
0.0458553
0.0452627
0.0445312
0.0436636
0.0426435
0.0414343
0.0399678
0.0381705
0.0358744
0.0331534
0.045952
0.0459152
0.0461786
0.0464193
0.0464121
0.0461576
0.0457035
0.0450856
0.0443242
0.0434229
0.0423674
0.0411253
0.0396371
0.0378426
0.0356017
0.0329933
0.0470435
0.0472342
0.0474344
0.0474839
0.0473654
0.0470965
0.0467029
0.0462059
0.0456146
0.0449223
0.0441004
0.0430915
0.0417925
0.040044
0.0375889
0.0342541
0.046824
0.0469787
0.0472294
0.0473385
0.0472642
0.0470248
0.0466493
0.046163
0.0455781
0.0448886
0.0440674
0.0430564
0.0417474
0.0399787
0.0374655
0.0340795
0.0466011
0.0466989
0.046985
0.0471606
0.0471339
0.0469229
0.0465627
0.046083
0.0455
0.0448112
0.043991
0.0429819
0.0416709
0.0398893
0.0373241
0.0338614
0.0464274
0.0464599
0.0467496
0.0469757
0.0469874
0.046797
0.0464454
0.0459665
0.0453791
0.0446842
0.0438584
0.0428458
0.0415314
0.0397421
0.0371462
0.0336452
0.0462971
0.0462718
0.0465439
0.0467999
0.0468369
0.046657
0.0463057
0.0458196
0.0452202
0.04451
0.0436688
0.0426436
0.0413212
0.039532
0.0369384
0.0334639
0.0461952
0.046128
0.0463756
0.0466436
0.0466914
0.046511
0.0461506
0.0456483
0.045027
0.044291
0.0434224
0.0423724
0.0410345
0.0392504
0.0366926
0.0333131
0.0461051
0.0460112
0.0462373
0.0465056
0.0465526
0.046362
0.0459839
0.0454575
0.0448053
0.044033
0.0431244
0.0420353
0.04067
0.0388899
0.0363969
0.0331781
0.0460151
0.0459076
0.046121
0.0463837
0.0464211
0.0462138
0.0458123
0.0452551
0.0445651
0.0437478
0.0427882
0.0416463
0.0402387
0.0384528
0.0360408
0.0330323
0.0471695
0.0473629
0.0475834
0.0476588
0.0475696
0.0473378
0.0469949
0.0465676
0.0460708
0.0455023
0.0448373
0.0440175
0.0429224
0.0413207
0.0387496
0.0345944
0.046937
0.047079
0.0473471
0.0474882
0.0474503
0.0472544
0.0469352
0.0465239
0.0460381
0.0454782
0.0448219
0.0440106
0.0429166
0.0412853
0.0385661
0.0340124
0.0467086
0.0467795
0.0470738
0.0472844
0.0472994
0.0471366
0.0468368
0.0464358
0.0459561
0.045402
0.0447543
0.0439564
0.0428734
0.0412223
0.0383793
0.0334643
0.0465422
0.0465374
0.0468211
0.0470802
0.0471356
0.0469952
0.0467057
0.0463069
0.0458245
0.0452666
0.0446176
0.0438238
0.0427479
0.0410908
0.038189
0.0330858
0.0464293
0.0463599
0.0466097
0.0468921
0.0469716
0.046841
0.0465509
0.0461439
0.0456478
0.0450732
0.0444079
0.0436026
0.0425241
0.040875
0.0379838
0.0328689
0.0463474
0.0462319
0.0464425
0.0467281
0.0468149
0.0466808
0.0463787
0.0459517
0.045429
0.0448223
0.0441221
0.0432841
0.0421854
0.0405475
0.0377246
0.0327607
0.0462714
0.046127
0.046305
0.0465826
0.0466642
0.0465161
0.0461916
0.0457349
0.0451734
0.0445191
0.0437635
0.0428665
0.0417195
0.040079
0.0373702
0.0327297
0.0461833
0.0460243
0.0461833
0.04645
0.0465184
0.0463495
0.0459966
0.0455019
0.0448921
0.0441774
0.0433477
0.0423641
0.0411308
0.0394486
0.0368727
0.0327561
0.0473467
0.0475467
0.0477899
0.0478924
0.0478331
0.0476394
0.0473502
0.0469989
0.0466084
0.046185
0.0457158
0.0451583
0.044412
0.0432486
0.0410603
0.0362802
0.0471052
0.0472396
0.0475268
0.0476997
0.0476979
0.0475461
0.047286
0.0469563
0.0465824
0.0461751
0.0457256
0.0451955
0.0444851
0.0433438
0.0409838
0.0351319
0.0468779
0.0469295
0.0472334
0.0474768
0.0475315
0.0474163
0.047179
0.0468631
0.0464995
0.0461043
0.0456743
0.0451776
0.0445154
0.0434083
0.0409367
0.0342883
0.0467265
0.0466944
0.0469736
0.0472613
0.0473564
0.0472639
0.0470373
0.0467243
0.0463593
0.0459629
0.045538
0.0450594
0.0444324
0.0433661
0.0408884
0.0338724
0.0466381
0.0465367
0.0467664
0.0470686
0.0471845
0.0470992
0.0468697
0.0465461
0.0461652
0.04575
0.0453082
0.0448217
0.0442062
0.0431809
0.040788
0.0337425
0.0465817
0.0464321
0.0466086
0.0469031
0.0470206
0.0469272
0.0466812
0.0463324
0.0459186
0.0454636
0.0449774
0.0444477
0.0438053
0.042798
0.0405456
0.0337383
0.0465235
0.0463438
0.0464772
0.0467539
0.0468598
0.0467468
0.0464722
0.0460869
0.0456244
0.0451079
0.0445461
0.043928
0.043198
0.042144
0.040046
0.0337231
0.046439
0.046244
0.0463521
0.0466114
0.0466991
0.04656
0.0462508
0.0458186
0.0452952
0.044699
0.0440323
0.0432764
0.0423739
0.0411327
0.0390903
0.0334563
0.0466218
0.0464
0.0464605
0.0466948
0.0467705
0.0466208
0.0463042
0.0458705
0.0453518
0.0447658
0.0441141
0.0433781
0.0425024
0.041297
0.0393042
0.0333869
0.0464435
0.046232
0.0463154
0.0465503
0.0466054
0.0464226
0.0460601
0.0455645
0.0449619
0.0442615
0.043451
0.0424893
0.0412728
0.0395916
0.036901
0.0324845
0.0462529
0.0460694
0.0462014
0.0464435
0.0464765
0.0462597
0.0458516
0.0452956
0.0446141
0.0438112
0.0428683
0.041741
0.0403316
0.0385226
0.0359825
0.0329129
0.0460978
0.0459669
0.046164
0.0464065
0.0464081
0.0461522
0.0456967
0.0450824
0.0443301
0.043442
0.0423997
0.0411658
0.0396682
0.0378483
0.0355139
0.0328671
0.0460305
0.0459802
0.0462407
0.0464603
0.0464145
0.046111
0.0456047
0.0449348
0.044121
0.0431654
0.0420524
0.0407526
0.0392163
0.0374094
0.0352274
0.0327957
0.0460912
0.04614
0.0464342
0.0465981
0.0464887
0.0461301
0.0455723
0.0448522
0.0439887
0.0429834
0.0418233
0.0404854
0.0389353
0.037152
0.0350868
0.0328176
0.0462907
0.046438
0.0467164
0.0467979
0.0466152
0.0461993
0.0455948
0.0448359
0.0439389
0.0429042
0.0417195
0.0403649
0.0388147
0.0370534
0.0350597
0.0328842
0.0465475
0.0467734
0.0470057
0.0470102
0.0467629
0.0462988
0.0456608
0.0448799
0.0439691
0.0429263
0.041738
0.0403838
0.0388393
0.0370876
0.0351149
0.0329574
0.0469586
0.0467226
0.0467481
0.0469665
0.0470446
0.0469069
0.0466161
0.0462272
0.0457758
0.0452841
0.04476
0.0441913
0.0435245
0.0425279
0.0405102
0.033488
0.0467491
0.0465216
0.0465717
0.0467932
0.0468505
0.0466768
0.0463347
0.0458747
0.0453248
0.0446956
0.0439749
0.0431181
0.0420034
0.040356
0.0374626
0.0322468
0.0465158
0.0463141
0.0464184
0.046654
0.0466916
0.0464831
0.0460914
0.0455631
0.0449215
0.0441698
0.0432866
0.0422197
0.0408513
0.0390283
0.0363333
0.0329691
0.0463139
0.0461639
0.0463432
0.0465881
0.0465978
0.0463503
0.0459081
0.045315
0.0445919
0.0437395
0.0427354
0.0415351
0.0400512
0.0382102
0.0357687
0.0329736
0.0462051
0.0461376
0.0463928
0.0466234
0.0465881
0.0462926
0.0457967
0.0451422
0.0443491
0.0434177
0.0423286
0.0410465
0.0395107
0.0376786
0.035414
0.0328713
0.0462381
0.0462753
0.0465764
0.046756
0.0466572
0.0463051
0.0457544
0.0450448
0.0441953
0.043206
0.0420607
0.0407312
0.0391752
0.0373655
0.0352357
0.0328799
0.0464278
0.0465725
0.0468665
0.0469639
0.0467893
0.046377
0.0457763
0.0450238
0.0441365
0.0431132
0.0419386
0.0405882
0.0390299
0.0372432
0.0351966
0.0329487
0.0466889
0.046924
0.0471757
0.0471934
0.0469504
0.046486
0.0458485
0.0450716
0.044169
0.0431366
0.0419579
0.0406078
0.0390561
0.0372805
0.0352594
0.0330324
0.0473031
0.0470601
0.0470598
0.0472639
0.0473414
0.0472113
0.0469407
0.0465895
0.0461961
0.0457852
0.0453655
0.044922
0.0443841
0.0434556
0.0412997
0.0333951
0.0470639
0.0468274
0.0468525
0.0470615
0.0471178
0.0469489
0.0466218
0.0461911
0.0456863
0.0451178
0.0444713
0.0436937
0.0426408
0.0409774
0.0378839
0.0320769
0.0467898
0.0465766
0.0466601
0.046889
0.0469279
0.0467234
0.0463431
0.0458372
0.0452293
0.0445212
0.0436874
0.0426666
0.041321
0.0394646
0.0366183
0.0329939
0.0465431
0.04638
0.0465462
0.0467926
0.046807
0.0465638
0.0461305
0.045554
0.0448552
0.044033
0.0430606
0.0418859
0.0404068
0.0385353
0.035988
0.0330511
0.0463941
0.0463144
0.0465669
0.0468067
0.0467787
0.0464876
0.0459984
0.0453555
0.0445792
0.043668
0.0425985
0.0413295
0.0397899
0.0379289
0.0355846
0.0329373
0.0463992
0.0464283
0.0467371
0.0469306
0.0468397
0.0464912
0.0459446
0.0452423
0.0444038
0.0434277
0.0422942
0.0409703
0.0394063
0.0375692
0.0353775
0.0329398
0.0465777
0.0467219
0.047031
0.0471428
0.0469746
0.0465637
0.0459642
0.0452157
0.0443356
0.0433213
0.0421546
0.0408065
0.039239
0.0374267
0.0353294
0.0330125
0.0468414
0.0470861
0.0473566
0.0473866
0.0471467
0.0466806
0.0460416
0.0452667
0.0443698
0.0433457
0.0421744
0.0408268
0.0392669
0.0374673
0.0353994
0.0331063
0.0476308
0.0473854
0.0473673
0.0475601
0.0476358
0.0475101
0.0472545
0.0469332
0.0465866
0.0462393
0.0458978
0.0455391
0.045072
0.0441436
0.0418224
0.0332017
0.0473647
0.047124
0.0471314
0.0473303
0.0473843
0.0472172
0.0469005
0.0464925
0.0460237
0.0455031
0.0449124
0.0441885
0.0431661
0.0414616
0.0381855
0.0319172
0.0470539
0.046834
0.0469026
0.0471259
0.0471644
0.0469612
0.0465883
0.0460993
0.045518
0.0448443
0.0440479
0.0430583
0.0417199
0.0398205
0.0368376
0.0329961
0.0467666
0.046595
0.0467521
0.0469998
0.0470169
0.0467754
0.0463475
0.0457832
0.0451034
0.0443048
0.0433564
0.0421986
0.0407166
0.0388102
0.0361665
0.0331052
0.0465808
0.0464927
0.0467444
0.0469923
0.0469696
0.0466805
0.046195
0.0455603
0.0447969
0.0439013
0.0428465
0.0415856
0.0400385
0.0381475
0.0357309
0.0329912
0.0465601
0.0465837
0.0469003
0.0471059
0.0470211
0.0466742
0.0461294
0.0454318
0.0446014
0.0436352
0.0425103
0.0411893
0.0396157
0.0377516
0.0355038
0.0329929
0.0467274
0.046872
0.0471952
0.0473198
0.0471566
0.0467457
0.0461458
0.0453993
0.0445241
0.0435165
0.0423552
0.0410076
0.0394302
0.0375935
0.0354497
0.0330707
0.0469924
0.0472461
0.0475339
0.0475753
0.0473378
0.0468691
0.0462275
0.0454528
0.0445597
0.0435415
0.0423756
0.0410286
0.0394598
0.0376371
0.0355264
0.0331736
0.0479206
0.0476754
0.0476453
0.0478298
0.0479036
0.0477802
0.0475352
0.0472362
0.0469247
0.0466241
0.0463373
0.0460318
0.0455984
0.0446398
0.0421624
0.0329825
0.0476314
0.0473894
0.0473848
0.0475759
0.0476273
0.0474604
0.0471504
0.0467591
0.046317
0.0458315
0.0452798
0.0445892
0.0435768
0.0418222
0.0383899
0.0317659
0.0472894
0.0470658
0.0471242
0.0473434
0.0473809
0.0471773
0.0468087
0.0463318
0.0457701
0.0451216
0.0443513
0.0433805
0.0420393
0.0400952
0.036997
0.032983
0.0469675
0.0467904
0.0469416
0.0471906
0.0472093
0.0469679
0.0465429
0.045987
0.0453211
0.0445398
0.0436081
0.0424599
0.0409702
0.0390293
0.0363038
0.03314
0.0467503
0.0466564
0.0469086
0.0471632
0.0471444
0.0468559
0.046372
0.0457428
0.0449885
0.0441042
0.0430594
0.0418026
0.040246
0.0383266
0.0358486
0.033032
0.0467072
0.0467271
0.0470508
0.0472666
0.0471865
0.04684
0.0462955
0.0456007
0.0447757
0.0438164
0.0426972
0.0413768
0.0397932
0.0379046
0.0356088
0.0330365
0.0468643
0.0470098
0.0473452
0.0474808
0.0473214
0.0469098
0.0463086
0.0455626
0.0446905
0.0436873
0.0425295
0.041181
0.0395938
0.037735
0.0355514
0.0331198
0.0471297
0.0473913
0.0476942
0.0477454
0.0475098
0.0470384
0.0463936
0.0456182
0.0447272
0.0437129
0.0425502
0.0412027
0.0396249
0.0377816
0.0356339
0.0332304
0.0481547
0.0479112
0.0478736
0.0480525
0.0481249
0.0480025
0.0477641
0.0474805
0.0471934
0.0469246
0.0466734
0.0463992
0.0459784
0.0449823
0.0423793
0.0327943
0.0478475
0.0476058
0.0475934
0.0477793
0.0478287
0.0476609
0.0473547
0.0469746
0.046551
0.0460894
0.0455629
0.0448911
0.0438778
0.0420761
0.0385225
0.0316412
0.0474809
0.0472558
0.0473076
0.0475241
0.0475606
0.0473558
0.0469893
0.0465203
0.0459721
0.0453406
0.0445871
0.0436262
0.0422774
0.0402938
0.0371064
0.0329651
0.047132
0.0469517
0.0470992
0.0473496
0.0473693
0.0471271
0.0467033
0.0461527
0.0454962
0.0447265
0.0438053
0.0426616
0.0411626
0.0391919
0.0364029
0.0331613
0.0468899
0.0467925
0.0470457
0.0473058
0.0472896
0.0470008
0.0465174
0.0458914
0.0451431
0.0442662
0.0432276
0.0419719
0.040406
0.0384627
0.0359368
0.033061
0.0468289
0.0468466
0.0471763
0.0474003
0.0473235
0.0469767
0.0464318
0.0457383
0.0449166
0.0439617
0.0428458
0.0415246
0.0399318
0.0380228
0.0356895
0.0330694
0.0469776
0.0471244
0.0474696
0.0476138
0.0474572
0.0470447
0.0464418
0.0456956
0.0448251
0.0438246
0.0426685
0.0413183
0.0397225
0.0378457
0.0356306
0.0331577
0.047243
0.0475113
0.0478261
0.0478852
0.0476509
0.047177
0.0465293
0.0457525
0.0448625
0.0438505
0.0426896
0.0413406
0.0397551
0.0378947
0.0357177
0.0332744
0.0483186
0.0480786
0.0480374
0.0482142
0.0482869
0.0481649
0.04793
0.0476554
0.0473831
0.0471337
0.0469033
0.046646
0.0462285
0.0452022
0.0425141
0.0326707
0.0479989
0.0477599
0.0477437
0.0479276
0.0479767
0.0478081
0.0475034
0.0471296
0.046717
0.0462698
0.045758
0.0450957
0.0440781
0.0422407
0.0386036
0.0315539
0.0476156
0.0473918
0.0474404
0.0476566
0.0476933
0.0474873
0.0471213
0.0466564
0.0461161
0.0454947
0.0447508
0.0437942
0.0424375
0.0404238
0.0371748
0.0329495
0.0472482
0.047068
0.0472144
0.047467
0.0474881
0.0472449
0.0468209
0.0462729
0.0456216
0.0448586
0.0439432
0.0428008
0.0412936
0.0393007
0.0364686
0.0331752
0.0469891
0.0468915
0.0471466
0.0474116
0.0473977
0.0471082
0.0466241
0.0459994
0.0452542
0.0443814
0.043346
0.0420899
0.0405164
0.0385556
0.0359972
0.0330811
0.0469159
0.0469341
0.0472691
0.0474994
0.047425
0.0470776
0.0465316
0.0458381
0.045018
0.0440654
0.0429509
0.0416282
0.0400284
0.0381047
0.0357456
0.0330925
0.0470589
0.0472082
0.0475611
0.0477116
0.0475569
0.0471432
0.0465386
0.0457916
0.0449216
0.0439222
0.0427668
0.0414148
0.0398125
0.0379226
0.0356858
0.0331843
0.047324
0.0475976
0.0479213
0.0479859
0.0477525
0.0472766
0.0466265
0.0458483
0.0449584
0.0439474
0.0427872
0.0414367
0.0398452
0.0379727
0.0357753
0.0333047
0.0483976