/*--------------------------------*- C++ -*----------------------------------*\
| =========                 |                                                 |
| \\      /  F ield         | foam-extend: Open Source CFD                    |
|  \\    /   O peration     | Version:     3.1                                |
|   \\  /    A nd           | Web:         http://www.extend-project.de       |
|    \\/     M anipulation  |                                                 |
\*---------------------------------------------------------------------------*/
FoamFile
{
    version     2.0;
    format      ascii;
    class       surfaceScalarField;
    location    "1.1";
    object      phi;
}
// * * * * * * * * * * * * * * * * * * * * * * * * * * * * * * * * * * * * * //

dimensions      [0 3 -1 0 0 0 0];

internalField   nonuniform List<scalar> 
41600
(
1.28315e-05
-1.17254e-06
-3.51695e-06
3.66875e-06
1.51667e-05
-2.63024e-06
-7.13954e-06
7.43458e-06
1.7666e-05
-2.77898e-06
-8.46479e-06
8.7445e-06
1.97276e-05
-2.26722e-06
-8.58673e-06
8.79238e-06
2.11605e-05
-1.56259e-06
-8.21528e-06
8.34488e-06
2.20124e-05
-9.22785e-07
-7.77273e-06
7.84367e-06
2.24111e-05
-4.3051e-07
-7.49876e-06
7.53058e-06
2.24743e-05
-7.26669e-08
-7.534e-06
7.5434e-06
2.22887e-05
1.83437e-07
-7.97892e-06
7.98109e-06
2.19108e-05
3.66149e-07
-8.93765e-06
8.94948e-06
2.13739e-05
4.86504e-07
-1.05508e-05
1.06011e-05
2.06905e-05
5.27884e-07
-1.30347e-05
1.31902e-05
1.97981e-05
4.42213e-07
-1.67263e-05
1.71765e-05
1.82607e-05
1.67695e-07
-2.20162e-05
2.33859e-05
1.38809e-05
-1.2693e-07
-2.84238e-05
3.29305e-05
-5.86347e-07
-2.7379e-05
4.26796e-05
3.38558e-05
-2.25384e-06
-4.57285e-06
4.94469e-06
3.64486e-05
-6.01952e-06
-1.22311e-05
1.30277e-05
3.97365e-05
-6.89003e-06
-1.60714e-05
1.68944e-05
4.27649e-05
-5.96559e-06
-1.70743e-05
1.77443e-05
4.50423e-05
-4.32732e-06
-1.65835e-05
1.70709e-05
4.64687e-05
-2.68575e-06
-1.5597e-05
1.59336e-05
4.7148e-05
-1.34033e-06
-1.47278e-05
1.49583e-05
4.72306e-05
-3.19865e-07
-1.43282e-05
1.44928e-05
4.68246e-05
4.56818e-07
-1.46182e-05
1.47508e-05
4.59849e-05
1.07023e-06
-1.57854e-05
1.59211e-05
4.46967e-05
1.5838e-06
-1.80566e-05
1.82475e-05
4.28371e-05
2.0282e-06
-2.17643e-05
2.21236e-05
4.00181e-05
2.41162e-06
-2.74202e-05
2.82697e-05
3.50011e-05
2.73781e-06
-3.5593e-05
3.80399e-05
2.39522e-05
2.98856e-06
-4.5271e-05
5.32045e-05
9.20377e-07
-4.10062e-05
6.57256e-05
5.1234e-05
-2.48685e-06
-3.75651e-06
4.18961e-06
5.18569e-05
-7.7199e-06
-1.25976e-05
1.36751e-05
5.33276e-05
-9.5388e-06
-1.8137e-05
1.9315e-05
5.50666e-05
-8.69142e-06
-2.01944e-05
2.11812e-05
5.65543e-05
-6.54531e-06
-2.00254e-05
2.07558e-05
5.75199e-05
-4.16442e-06
-1.89068e-05
1.94198e-05
5.79095e-05
-2.08931e-06
-1.77233e-05
1.80826e-05
5.77666e-05
-4.39853e-07
-1.69953e-05
1.72582e-05
5.7128e-05
8.81947e-07
-1.70278e-05
1.72413e-05
5.59937e-05
1.99503e-06
-1.8049e-05
1.82585e-05
5.42809e-05
3.02701e-06
-2.03097e-05
2.05793e-05
5.17686e-05
4.07607e-06
-2.4165e-05
2.46294e-05
4.79119e-05
5.23233e-06
-3.01644e-05
3.12004e-05
4.11707e-05
6.57577e-06
-3.8949e-05
4.18523e-05
2.71763e-05
7.74791e-06
-4.95233e-05
5.87583e-05
3.57591e-06
-4.46928e-05
7.29757e-05
6.59829e-05
-2.221e-06
-2.95544e-06
3.38049e-06
6.46558e-05
-7.61792e-06
-1.18628e-05
1.30879e-05
6.37154e-05
-1.00037e-05
-1.83685e-05
1.97738e-05
6.33053e-05
-9.47541e-06
-2.12577e-05
2.24518e-05
6.31854e-05
-7.3041e-06
-2.14416e-05
2.23203e-05
6.30693e-05
-4.65607e-06
-2.02993e-05
2.0907e-05
6.277e-05
-2.20885e-06
-1.89152e-05
1.9334e-05
6.21916e-05
-1.63538e-07
-1.79452e-05
1.82474e-05
6.12664e-05
1.56475e-06
-1.7757e-05
1.79994e-05
5.99104e-05
3.11663e-06
-1.85954e-05
1.88298e-05
5.7971e-05
4.66976e-06
-2.07111e-05
2.10078e-05
5.51586e-05
6.38521e-06
-2.44573e-05
2.49606e-05
5.0853e-05
8.43072e-06
-3.03915e-05
3.14987e-05
4.33968e-05
1.09603e-05
-3.92094e-05
4.22811e-05
2.81392e-05
1.33078e-05
-5.00783e-05
5.9776e-05
7.35014e-06
-4.58401e-05
7.56531e-05
7.80335e-05
-1.79071e-06
-2.45097e-06
2.8527e-06
7.5411e-05
-6.30902e-06
-1.12014e-05
1.25149e-05
7.24522e-05
-8.61307e-06
-1.82775e-05
1.98457e-05
6.99668e-05
-8.33725e-06
-2.1759e-05
2.31062e-05
6.81242e-05
-6.44304e-06
-2.22063e-05
2.31879e-05
6.67628e-05
-3.95799e-06
-2.10212e-05
2.16845e-05
6.56471e-05
-1.53801e-06
-1.94417e-05
1.98865e-05
6.45653e-05
6.05385e-07
-1.82388e-05
1.85517e-05
6.33599e-05
2.5241e-06
-1.78265e-05
1.80725e-05
6.18599e-05
4.38179e-06
-1.84525e-05
1.86874e-05
5.98503e-05
6.38386e-06
-2.03537e-05
2.06492e-05
5.69848e-05
8.74979e-06
-2.38673e-05
2.43682e-05
5.25801e-05
1.17333e-05
-2.95459e-05
3.06479e-05
4.48579e-05
1.56178e-05
-3.81345e-05
4.11991e-05
2.87826e-05
1.96154e-05
-4.89919e-05
5.87596e-05
1.26054e-05
-4.5636e-05
7.63608e-05
8.71615e-05
-1.32413e-06
-2.16598e-06
2.54721e-06
8.37949e-05
-4.31593e-06
-1.07823e-05
1.21559e-05
7.94315e-05
-5.94029e-06
-1.82147e-05
1.99054e-05
7.53413e-05
-5.71326e-06
-2.20969e-05
2.35631e-05
7.20703e-05
-4.2323e-06
-2.27132e-05
2.37735e-05
6.96296e-05
-2.2192e-06
-2.14562e-05
2.21582e-05
6.78027e-05
-1.70219e-07
-1.96749e-05
2.0134e-05
6.63072e-05
1.78756e-06
-1.82339e-05
1.85472e-05
6.49171e-05
3.67386e-06
-1.75786e-05
1.7819e-05
6.34032e-05
5.67075e-06
-1.79496e-05
1.81746e-05
6.15087e-05
7.99925e-06
-1.9557e-05
1.98361e-05
5.88516e-05
1.0937e-05
-2.27055e-05
2.31753e-05
5.46968e-05
1.48522e-05
-2.79196e-05
2.89555e-05
4.71196e-05
2.02897e-05
-3.59839e-05
3.88893e-05
3.04e-05
2.68173e-05
-4.6515e-05
5.60326e-05
2.0643e-05
-4.41323e-05
7.54287e-05
9.32564e-05
-8.43435e-07
-2.01375e-06
2.38186e-06
8.94887e-05
-1.96222e-06
-1.05558e-05
1.19698e-05
8.42709e-05
-2.49741e-06
-1.81975e-05
1.99724e-05
7.91431e-05
-2.13481e-06
-2.23113e-05
2.38606e-05
7.49182e-05
-1.12262e-06
-2.30049e-05
2.41201e-05
7.17623e-05
2.0973e-07
-2.16577e-05
2.23847e-05
6.9462e-05
1.66744e-06
-1.96871e-05
2.01497e-05
6.77527e-05
3.18721e-06
-1.80191e-05
1.83288e-05
6.63473e-05
4.84774e-06
-1.7115e-05
1.73466e-05
6.49999e-05
6.80746e-06
-1.71942e-05
1.74048e-05
6.3454e-05
9.29184e-06
-1.8426e-05
1.86794e-05
6.13478e-05
1.26276e-05
-2.1057e-05
2.14727e-05
5.79618e-05
1.73281e-05
-2.55341e-05
2.64441e-05
5.13345e-05
2.43596e-05
-3.26128e-05
3.51702e-05
3.47469e-05
3.46251e-05
-4.22846e-05
5.10644e-05
3.47142e-05
-4.07298e-05
7.20152e-05
9.62809e-05
-1.94249e-06
2.3056e-06
-3.34247e-07
9.23177e-05
-1.04633e-05
1.19008e-05
5.63427e-07
8.67023e-05
-1.81911e-05
2.00096e-05
1.29958e-06
8.11032e-05
-2.23762e-05
2.39665e-05
1.87394e-06
7.64638e-05
-2.30545e-05
2.41953e-05
2.37593e-06
7.30132e-05
-2.16026e-05
2.23402e-05
2.92275e-06
7.05939e-05
-1.94759e-05
1.99399e-05
3.62269e-06
6.89116e-05
-1.76166e-05
1.7921e-05
4.56512e-06
6.76887e-05
-1.64776e-05
1.66996e-05
5.84869e-06
6.66981e-05
-1.6248e-05
1.64426e-05
7.6035e-06
6.5742e-05
-1.70413e-05
1.72638e-05
1.00255e-05
6.45904e-05
-1.90131e-05
1.93577e-05
1.34346e-05
6.27587e-05
-2.24533e-05
2.31787e-05
1.84344e-05
5.87877e-05
-2.786e-05
2.98056e-05
2.6385e-05
4.56463e-05
-3.56546e-05
4.25861e-05
4.08349e-05
-3.39064e-05
6.21297e-05
6.43373e-05
1.36314e-05
-1.26226e-06
-3.24747e-06
1.59523e-05
-2.86359e-06
-6.59691e-06
1.84171e-05
-3.05854e-06
-7.87102e-06
2.03932e-05
-2.52008e-06
-8.04276e-06
2.1676e-05
-1.75191e-06
-7.74615e-06
2.23147e-05
-1.04362e-06
-7.36779e-06
2.24435e-05
-4.94634e-07
-7.13294e-06
2.21789e-05
-9.4344e-08
-7.17507e-06
2.15912e-05
1.94631e-07
-7.58584e-06
2.07018e-05
4.04122e-07
-8.45244e-06
1.94797e-05
5.49859e-07
-9.87846e-06
1.78271e-05
6.1845e-07
-1.20006e-05
1.55175e-05
5.63298e-07
-1.498e-05
1.20096e-05
3.34752e-07
-1.88431e-05
6.15439e-06
-1.06744e-07
-2.24618e-05
-1.52462e-06
-1.87774e-05
3.60937e-05
-2.36209e-06
-4.09715e-06
3.85475e-05
-6.46339e-06
-1.10852e-05
4.16558e-05
-7.51648e-06
-1.47217e-05
4.44428e-05
-6.59135e-06
-1.57901e-05
4.63978e-05
-4.83145e-06
-1.54589e-05
4.74138e-05
-3.02589e-06
-1.46308e-05
4.75962e-05
-1.52732e-06
-1.38775e-05
4.70898e-05
-3.81753e-07
-1.35344e-05
4.59767e-05
4.97823e-07
-1.38083e-05
4.42542e-05
1.20301e-06
-1.48619e-05
4.18048e-05
1.81025e-06
-1.68676e-05
3.83376e-05
2.35995e-06
-2.00386e-05
3.32416e-05
2.85476e-06
-2.46156e-05
2.53079e-05
3.25327e-06
-3.05779e-05
1.25096e-05
3.22107e-06
-3.58005e-05
3.17836e-07
-2.78243e-05
5.4769e-05
-2.56841e-06
-3.28027e-06
5.51432e-05
-8.20358e-06
-1.12316e-05
5.62467e-05
-1.03313e-05
-1.64257e-05
5.75417e-05
-9.55669e-06
-1.85241e-05
5.85267e-05
-7.28702e-06
-1.85549e-05
5.89317e-05
-4.68596e-06
-1.76517e-05
5.8696e-05
-2.37967e-06
-1.66352e-05
5.78473e-05
-5.2649e-07
-1.60019e-05
5.63849e-05
9.7471e-07
-1.60422e-05
5.424e-05
2.2578e-06
-1.69589e-05
5.12106e-05
3.4743e-06
-1.89443e-05
4.68855e-05
4.74378e-06
-2.22237e-05
4.04685e-05
6.15804e-06
-2.70507e-05
3.04647e-05
7.71084e-06
-3.34028e-05
1.4482e-05
8.63312e-06
-3.89527e-05
4.06371e-06
-2.98918e-05
7.06367e-05
-2.28494e-06
-2.52889e-06
6.90375e-05
-8.03775e-06
-1.04294e-05
6.75905e-05
-1.07754e-05
-1.64774e-05
6.65345e-05
-1.03799e-05
-1.93784e-05
6.57119e-05
-8.11675e-06
-1.97893e-05
6.4873e-05
-5.24124e-06
-1.89052e-05
6.38309e-05
-2.52721e-06
-1.77255e-05
6.24636e-05
-2.27025e-07
-1.68774e-05
6.06565e-05
1.73996e-06
-1.67152e-05
5.8244e-05
3.53501e-06
-1.74601e-05
5.4942e-05
5.36921e-06
-1.9304e-05
5.02538e-05
7.44116e-06
-2.24665e-05
4.328e-05
9.94206e-06
-2.72017e-05
3.23663e-05
1.29263e-05
-3.35111e-05
1.48515e-05
1.52004e-05
-3.91307e-05
9.07651e-06
-3.02248e-05
8.35818e-05
-1.85469e-06
-2.06999e-06
8.07183e-05
-6.6338e-06
-9.74182e-06
7.71855e-05
-9.2487e-06
-1.62714e-05
7.39017e-05
-9.11651e-06
-1.97386e-05
7.11767e-05
-7.16122e-06
-2.04368e-05
6.89357e-05
-4.47256e-06
-1.95489e-05
6.69641e-05
-1.79041e-06
-1.82068e-05
6.50246e-05
6.22805e-07
-1.71492e-05
6.29038e-05
2.81395e-06
-1.67797e-05
6.03402e-05
4.97184e-06
-1.73257e-05
5.6978e-05
7.34557e-06
-1.89679e-05
5.22509e-05
1.02119e-05
-2.1911e-05
4.51666e-05
1.38849e-05
-2.64044e-05
3.38739e-05
1.85718e-05
-3.24873e-05
1.52684e-05
2.28516e-05
-3.80376e-05
1.59e-05
-2.96574e-05
9.33695e-05
-1.39586e-06
-1.8166e-06
8.98033e-05
-4.54439e-06
-9.30559e-06
8.48458e-05
-6.38245e-06
-1.61234e-05
7.98616e-05
-6.25982e-06
-1.99695e-05
7.55754e-05
-4.73083e-06
-2.08574e-05
7.21309e-05
-2.55189e-06
-1.99324e-05
6.93586e-05
-2.736e-07
-1.84194e-05
6.6958e-05
1.93456e-06
-1.7145e-05
6.46446e-05
4.09911e-06
-1.65504e-05
6.20958e-05
6.43104e-06
-1.686e-05
5.89123e-05
9.20547e-06
-1.82333e-05
5.44877e-05
1.27805e-05
-2.08494e-05
4.77559e-05
1.76385e-05
-2.49414e-05
3.65976e-05
2.43432e-05
-3.0597e-05
1.70281e-05
3.18235e-05
-3.59173e-05
2.62596e-05
-2.81913e-05
9.98963e-05
-9.21959e-07
-1.68305e-06
9.59595e-05
-2.09825e-06
-9.06516e-06
9.01461e-05
-2.71979e-06
-1.60468e-05
8.40729e-05
-2.38752e-06
-2.01103e-05
7.87519e-05
-1.32304e-06
-2.10917e-05
7.4516e-05
1.29922e-07
-2.01036e-05
7.12184e-05
1.76141e-06
-1.84245e-05
6.85888e-05
3.48942e-06
-1.69445e-05
6.62846e-05
5.40808e-06
-1.61197e-05
6.39719e-05
7.71099e-06
-1.61615e-05
6.1263e-05
1.06862e-05
-1.71978e-05
5.75882e-05
1.47635e-05
-1.93651e-05
5.19115e-05
2.06305e-05
-2.28494e-05
4.19436e-05
2.94702e-05
-2.7772e-05
2.23083e-05
4.17885e-05
-3.26144e-05
4.43947e-05
-2.56031e-05
0.000103132
-1.61973e-06
-4.14659e-07
9.90134e-05
-8.96228e-06
5.1972e-07
9.28029e-05
-1.60094e-05
1.30907e-06
8.62381e-05
-2.01408e-05
1.94191e-06
8.04723e-05
-2.11184e-05
2.50662e-06
7.59134e-05
-2.00421e-05
3.12831e-06
7.24919e-05
-1.82239e-05
3.93091e-06
6.99118e-05
-1.65672e-05
5.02013e-06
6.78485e-05
-1.55256e-05
6.51929e-06
6.60018e-05
-1.52863e-05
8.59593e-06
6.40724e-05
-1.59345e-05
1.15087e-05
6.16753e-05
-1.75423e-05
1.56897e-05
5.80978e-05
-2.01991e-05
2.19537e-05
5.15362e-05
-2.39488e-05
3.21207e-05
3.5802e-05
-2.79282e-05
4.97963e-05
-2.13362e-05
8.01818e-05
1.4314e-05
-1.33967e-06
-2.87367e-06
1.66253e-05
-3.07047e-06
-5.83776e-06
1.90675e-05
-3.31364e-06
-6.99962e-06
2.09763e-05
-2.75717e-06
-7.1944e-06
2.21309e-05
-1.93446e-06
-6.96627e-06
2.25808e-05
-1.16426e-06
-6.65335e-06
2.24666e-05
-5.62517e-07
-6.45623e-06
2.19072e-05
-1.22127e-07
-6.49358e-06
2.09645e-05
1.9924e-07
-6.84243e-06
1.96433e-05
4.3669e-07
-7.56788e-06
1.78862e-05
6.13104e-07
-8.7345e-06
1.55718e-05
7.23024e-07
-1.04092e-05
1.24914e-05
7.32499e-07
-1.26321e-05
8.31063e-06
5.95822e-07
-1.52582e-05
2.91137e-06
8.44604e-08
-1.7147e-05
-1.61414e-06
-1.32679e-05
3.80134e-05
-2.45242e-06
-3.53702e-06
4.03576e-05
-6.84728e-06
-9.65259e-06
4.33257e-05
-8.07507e-06
-1.29284e-05
4.59168e-05
-7.16394e-06
-1.39743e-05
4.75977e-05
-5.30379e-06
-1.37705e-05
4.82534e-05
-3.35244e-06
-1.30983e-05
4.79912e-05
-1.71285e-06
-1.2465e-05
4.69552e-05
-4.49405e-07
-1.21712e-05
4.52145e-05
5.29355e-07
-1.23977e-05
4.27368e-05
1.32537e-06
-1.32728e-05
3.9363e-05
2.0294e-06
-1.49102e-05
3.47694e-05
2.69521e-06
-1.74171e-05
2.84001e-05
3.33261e-06
-2.08464e-05
1.94484e-05
3.87379e-06
-2.49042e-05
7.48991e-06
3.70809e-06
-2.74657e-05
4.06285e-07
-1.96787e-05
5.78053e-05
-2.63583e-06
-2.77336e-06
5.79858e-05
-8.61327e-06
-9.64614e-06
5.87961e-05
-1.10256e-05
-1.42854e-05
5.97239e-05
-1.03358e-05
-1.62801e-05
6.02789e-05
-7.97063e-06
-1.6443e-05
6.01914e-05
-5.17705e-06
-1.57395e-05
5.93969e-05
-2.6597e-06
-1.48939e-05
5.79142e-05
-6.15443e-07
-1.43532e-05
5.57203e-05
1.05683e-06
-1.43757e-05
5.27092e-05
2.50407e-06
-1.51266e-05
4.86295e-05
3.89995e-06
-1.67351e-05
4.30302e-05
5.3838e-06
-1.93131e-05
3.51697e-05
7.05208e-06
-2.29096e-05
2.39914e-05
8.84318e-06
-2.71938e-05
8.88885e-06
9.65218e-06
-2.97943e-05
4.63885e-06
-2.09407e-05
7.46319e-05
-2.33993e-06
-2.10447e-06
7.28297e-05
-8.38799e-06
-8.85254e-06
7.09828e-05
-1.14423e-05
-1.42138e-05
6.93922e-05
-1.11844e-05
-1.69392e-05
6.79665e-05
-8.85719e-06
-1.74771e-05
6.64913e-05
-5.78567e-06
-1.68213e-05
6.47841e-05
-2.82961e-06
-1.58485e-05
6.27079e-05
-2.92058e-07
-1.51245e-05
6.01175e-05
1.90164e-06
-1.49697e-05
5.68002e-05
3.92785e-06
-1.55666e-05
5.2414e-05
6.02661e-06
-1.70444e-05
4.64135e-05
8.42601e-06
-1.95082e-05
3.79374e-05
1.13295e-05
-2.3003e-05
2.57535e-05
1.47214e-05
-2.72055e-05
9.02729e-06
1.70104e-05
-2.97626e-05
1.04106e-05
-2.09262e-05
8.83398e-05
-1.91236e-06
-1.70647e-06
8.53071e-05
-6.90246e-06
-8.19468e-06
8.13305e-05
-9.79227e-06
-1.39448e-05
7.73912e-05
-9.80308e-06
-1.71805e-05
7.39106e-05
-7.80984e-06
-1.80036e-05
7.08946e-05
-4.94715e-06
-1.73714e-05
6.8156e-05
-2.02841e-06
-1.62695e-05
6.54442e-05
6.36634e-07
-1.53661e-05
6.25094e-05
3.08461e-06
-1.50278e-05
5.9035e-05
5.52455e-06
-1.54479e-05
5.45991e-05
8.24093e-06
-1.67464e-05
4.85771e-05
1.15528e-05
-1.90157e-05
3.99937e-05
1.5806e-05
-2.22975e-05
2.73801e-05
2.11448e-05
-2.62971e-05
9.41929e-06
2.56997e-05
-2.87661e-05
1.82836e-05
-2.02912e-05
9.86884e-05
-1.46134e-06
-1.49116e-06
9.49914e-05
-4.73287e-06
-7.77817e-06
8.95839e-05
-6.75739e-06
-1.37508e-05
8.38729e-05
-6.73738e-06
-1.73242e-05
7.87214e-05
-5.17744e-06
-1.83383e-05
7.43932e-05
-2.85604e-06
-1.76954e-05
7.07738e-05
-3.74319e-07
-1.64541e-05
6.75567e-05
2.07196e-06
-1.53633e-05
6.44207e-05
4.49751e-06
-1.48273e-05
6.09842e-05
7.14118e-06
-1.50401e-05
5.67782e-05
1.03202e-05
-1.61066e-05
5.11322e-05
1.44502e-05
-1.81009e-05
4.29767e-05
2.00777e-05
-2.10576e-05
3.05071e-05
2.77478e-05
-2.47305e-05
1.1391e-05
3.59499e-05
-2.70514e-05
3.01219e-05
-1.90688e-05
0.000105582
-9.92954e-07
-1.37911e-06
0.000101541
-2.21071e-06
-7.54644e-06
9.5284e-05
-2.90634e-06
-1.36408e-05
8.84481e-05
-2.60538e-06
-1.74064e-05
8.21966e-05
-1.49952e-06
-1.85181e-05
7.70129e-05
5.89918e-08
-1.7835e-05
7.28201e-05
1.85005e-06
-1.6456e-05
6.93603e-05
3.77334e-06
-1.5186e-05
6.6253e-05
5.93366e-06
-1.44486e-05
6.31093e-05
8.55324e-06
-1.44298e-05
5.9476e-05
1.19682e-05
-1.52125e-05
5.47241e-05
1.66792e-05
-1.68423e-05
4.78117e-05
2.34728e-05
-1.93321e-05
3.66748e-05
3.36073e-05
-2.24946e-05
1.73412e-05
4.72573e-05
-2.45881e-05
5.03253e-05
-1.72038e-05
0.000108998
-1.32544e-06
-4.85859e-07
0.000104786
-7.44457e-06
4.82951e-07
9.81362e-05
-1.35858e-05
1.31995e-06
9.07962e-05
-1.74116e-05
2.00544e-06
8.40771e-05
-1.85269e-05
2.62813e-06
7.8546e-05
-1.77723e-05
3.32026e-06
7.42264e-05
-1.62745e-05
4.22034e-06
7.08349e-05
-1.48507e-05
5.44833e-06
6.80185e-05
-1.39245e-05
7.14904e-06
6.54303e-05
-1.36657e-05
9.52083e-06
6.27212e-05
-1.41272e-05
1.287e-05
5.94688e-05
-1.53138e-05
1.77031e-05
5.49818e-05
-1.7189e-05
2.49498e-05
4.76132e-05
-1.95746e-05
3.66016e-05
3.22445e-05
-2.13406e-05
5.60385e-05
-1.43448e-05
8.84536e-05
1.48804e-05
-1.40426e-06
-2.41038e-06
1.71843e-05
-3.24672e-06
-4.89503e-06
1.96121e-05
-3.53605e-06
-5.89131e-06
2.14693e-05
-2.96849e-06
-6.08309e-06
2.25187e-05
-2.10084e-06
-5.91483e-06
2.2809e-05
-1.27712e-06
-5.66658e-06
2.24878e-05
-6.28556e-07
-5.50651e-06
2.16796e-05
-1.51939e-07
-5.53341e-06
2.04452e-05
1.99586e-07
-5.80761e-06
1.87867e-05
4.6419e-07
-6.37359e-06
1.66456e-05
6.72231e-07
-7.26565e-06
1.39159e-05
8.25884e-07
-8.50535e-06
1.04547e-05
9.01096e-07
-1.0072e-05
6.13152e-06
8.44567e-07
-1.17795e-05
1.37432e-06
3.17579e-07
-1.27074e-05
-1.46241e-06
-9.40466e-06
3.96136e-05
-2.52564e-06
-2.90903e-06
4.18711e-05
-7.16767e-06
-7.98915e-06
4.47309e-05
-8.55323e-06
-1.0771e-05
4.71665e-05
-7.66476e-06
-1.17137e-05
4.86224e-05
-5.72505e-06
-1.16022e-05
4.8975e-05
-3.64934e-06
-1.10787e-05
4.83347e-05
-1.88564e-06
-1.05675e-05
4.68497e-05
-5.1632e-07
-1.03218e-05
4.45876e-05
5.5307e-07
-1.04891e-05
4.15089e-05
1.43349e-06
-1.11634e-05
3.74531e-05
2.22907e-06
-1.24112e-05
3.21257e-05
3.00542e-06
-1.42692e-05
2.50982e-05
3.7775e-06
-1.66954e-05
1.59298e-05
4.44535e-06
-1.93365e-05
5.03347e-06
4.22359e-06
-2.04754e-05
6.87679e-07
-1.40068e-05
6.03388e-05
-2.69016e-06
-2.24384e-06
6.03691e-05
-8.94917e-06
-7.89496e-06
6.09488e-05
-1.16114e-05
-1.18071e-05
6.15804e-05
-1.10084e-05
-1.3568e-05
6.17796e-05
-8.5724e-06
-1.3795e-05
6.12768e-05
-5.61696e-06
-1.32691e-05
6.00067e-05
-2.91517e-06
-1.25942e-05
5.79855e-05
-7.00084e-07
-1.21482e-05
5.5182e-05
1.12682e-06
-1.2146e-05
5.1479e-05
2.72326e-06
-1.27134e-05
4.66198e-05
4.28145e-06
-1.39283e-05
4.01842e-05
5.95571e-06
-1.58277e-05
3.15687e-05
7.84164e-06
-1.83583e-05
2.01208e-05
9.82054e-06
-2.11211e-05
6.16929e-06
1.05637e-05
-2.21828e-05
5.20307e-06
-1.48226e-05
7.79638e-05
-2.386e-06
-1.68242e-06
7.60106e-05
-8.67143e-06
-7.17705e-06
7.38528e-05
-1.19983e-05
-1.16691e-05
7.1831e-05
-1.18718e-05
-1.4054e-05
6.99049e-05
-9.50283e-06
-1.46205e-05
6.78912e-05
-6.2687e-06
-1.41559e-05
6.56166e-05
-3.10245e-06
-1.33865e-05
6.29363e-05
-3.52161e-07
-1.27922e-05
5.96926e-05
2.04343e-06
-1.26425e-05
5.56524e-05
4.27668e-06
-1.30798e-05
5.04632e-05
6.60827e-06
-1.41821e-05
4.36045e-05
9.28625e-06
-1.59801e-05
3.43449e-05
1.25132e-05
-1.8415e-05
2.18484e-05
1.62006e-05
-2.10891e-05
6.23497e-06
1.84852e-05
-2.20707e-05
1.14579e-05
-1.46912e-05
9.23046e-05
-1.96257e-06
-1.35544e-06
8.91528e-05
-7.11836e-06
-6.59591e-06
8.48381e-05
-1.02414e-05
-1.1387e-05
8.0374e-05
-1.03849e-05
-1.42033e-05
7.62677e-05
-8.37115e-06
-1.5029e-05
7.25954e-05
-5.36511e-06
-1.46026e-05
6.92002e-05
-2.24116e-06
-1.37356e-05
6.58296e-05
6.47135e-07
-1.29948e-05
6.22138e-05
3.32399e-06
-1.26926e-05
5.80112e-05
6.0133e-06
-1.29819e-05
5.27825e-05
9.02504e-06
-1.39345e-05
4.59195e-05
1.27052e-05
-1.55716e-05
3.65603e-05
1.7407e-05
-1.78321e-05
2.36048e-05
2.31999e-05
-2.03408e-05
6.66391e-06
2.79016e-05
-2.12417e-05
2.00194e-05
-1.41283e-05
0.000103118
-1.51893e-06
-1.1816e-06
9.93344e-05
-4.88405e-06
-6.22918e-06
9.35907e-05
-7.06481e-06
-1.11837e-05
8.73033e-05
-7.13905e-06
-1.42826e-05
8.1438e-05
-5.56114e-06
-1.52829e-05
7.63625e-05
-3.12206e-06
-1.48629e-05
7.20169e-05
-4.61632e-07
-1.3888e-05
6.81012e-05
2.19351e-06
-1.29939e-05
6.42749e-05
4.85063e-06
-1.25277e-05
6.01272e-05
7.76674e-06
-1.26458e-05
5.51672e-05
1.12886e-05
-1.34102e-05
4.87339e-05
1.5867e-05
-1.48295e-05
3.98514e-05
2.20733e-05
-1.68413e-05
2.7037e-05
3.03971e-05
-1.91133e-05
8.80536e-06
3.9005e-05
-1.99232e-05
3.27726e-05
-1.31868e-05
0.000110314
-1.05497e-06
-1.0921e-06
0.000106209
-2.30114e-06
-6.02417e-06
9.96259e-05
-3.05767e-06
-1.10646e-05
9.21896e-05
-2.78622e-06
-1.4323e-05
8.51733e-05
-1.64849e-06
-1.54144e-05
7.91894e-05
-1.63519e-09
-1.49716e-05
7.42291e-05
1.93038e-06
-1.38877e-05
7.00568e-05
4.02647e-06
-1.28467e-05
6.62732e-05
6.39999e-06
-1.22144e-05
6.24608e-05
9.29343e-06
-1.21441e-05
5.81445e-05
1.30756e-05
-1.26833e-05
5.27035e-05
1.82891e-05
-1.38233e-05
4.51758e-05
2.57633e-05
-1.54944e-05
3.37533e-05
3.6749e-05
-1.74241e-05
1.51697e-05
5.11384e-05
-1.81379e-05
5.41462e-05
-1.18692e-05
0.000113878
-1.04887e-06
-5.47335e-07
0.000109612
-5.9325e-06
4.52873e-07
0.000102642
-1.10044e-05
1.33123e-06
9.46945e-05
-1.43126e-05
2.06245e-06
8.71942e-05
-1.54115e-05
2.73635e-06
8.08421e-05
-1.49132e-05
3.49137e-06
7.57524e-05
-1.37338e-05
4.47925e-06
7.16634e-05
-1.25662e-05
5.83099e-06
6.82096e-05
-1.17794e-05
7.70865e-06
6.50202e-05
-1.15164e-05
1.03335e-05
6.17307e-05
-1.18053e-05
1.40432e-05
5.79325e-05
-1.26135e-05
1.93869e-05
5.30128e-05
-1.38492e-05
2.73432e-05
4.55147e-05
-1.52759e-05
3.99484e-05
3.08616e-05
-1.58988e-05
6.03497e-05
-9.90253e-06
9.37337e-05
1.53317e-05
-1.45589e-06
-1.87381e-06
1.76298e-05
-3.38985e-06
-3.80327e-06
2.00484e-05
-3.71982e-06
-4.59007e-06
2.18673e-05
-3.14606e-06
-4.75597e-06
2.28344e-05
-2.24303e-06
-4.63887e-06
2.29972e-05
-1.37537e-06
-4.45399e-06
2.25098e-05
-6.87508e-07
-4.33163e-06
2.1504e-05
-1.79978e-07
-4.34763e-06
2.00444e-05
1.97813e-07
-4.54577e-06
1.81383e-05
4.86625e-07
-4.95415e-06
1.57372e-05
7.23263e-07
-5.58779e-06
1.27616e-05
9.15632e-07
-6.4454e-06
9.13109e-06
1.04558e-06
-7.48706e-06
4.85108e-06
1.05051e-06
-8.55003e-06
5.89239e-07
5.29833e-07
-8.97537e-06
-1.28371e-06
-6.47577e-06
4.08938e-05
-2.5828e-06
-2.22817e-06
4.30841e-05
-7.42356e-06
-6.14578e-06
4.58621e-05
-8.9428e-06
-8.32598e-06
4.81786e-05
-8.07977e-06
-9.09652e-06
4.94578e-05
-6.07951e-06
-9.04496e-06
4.95681e-05
-3.90286e-06
-8.6615e-06
4.86236e-05
-2.03574e-06
-8.27474e-06
4.67797e-05
-5.76736e-07
-8.08111e-06
4.41099e-05
5.70431e-07
-8.19197e-06
4.05808e-05
1.52377e-06
-8.67147e-06
3.60484e-05
2.3983e-06
-9.55387e-06
3.02663e-05
3.26825e-06
-1.08397e-05
2.29235e-05
4.15034e-06
-1.24574e-05
1.38217e-05
4.91733e-06
-1.41015e-05
3.72851e-06
4.68217e-06
-1.45346e-05
9.85793e-07
-9.67972e-06
6.23672e-05
-2.73247e-06
-1.69767e-06
6.22836e-05
-9.21354e-06
-6.02142e-06
6.26871e-05
-1.20831e-05
-9.0703e-06
6.30881e-05
-1.15599e-05
-1.04888e-05
6.30056e-05
-9.0737e-06
-1.07183e-05
6.21697e-05
-5.9885e-06
-1.03475e-05
6.0516e-05
-3.13391e-06
-9.84231e-06
5.80632e-05
-7.75014e-07
-9.49717e-06
5.47813e-05
1.18355e-06
-9.47719e-06
5.05565e-05
2.90671e-06
-9.87161e-06
4.51486e-05
4.60089e-06
-1.0723e-05
3.81889e-05
6.43013e-06
-1.20299e-05
2.92038e-05
8.48561e-06
-1.37085e-05
1.78099e-05
1.06029e-05
-1.54128e-05
4.73106e-06
1.13198e-05
-1.57416e-05
5.69742e-06
-1.02149e-05
8.06305e-05
-2.42313e-06
-1.26194e-06
7.85667e-05
-8.89212e-06
-5.4346e-06
7.61739e-05
-1.24417e-05
-8.91766e-06
7.38168e-05
-1.24308e-05
-1.0826e-05
7.14931e-05
-1.00366e-05
-1.13339e-05
6.90459e-05
-6.67355e-06
-1.10236e-05
6.6312e-05
-3.33404e-06
-1.04526e-05
6.31463e-05
-4.06046e-07
-9.99551e-06
5.93884e-05
2.16087e-06
-9.86191e-06
5.48025e-05
4.56767e-06
-1.01549e-05
4.90484e-05
7.09028e-06
-1.09174e-05
4.16533e-05
9.98836e-06
-1.21432e-05
3.20099e-05
1.34572e-05
-1.37432e-05
1.95452e-05
1.73497e-05
-1.5371e-05
4.77846e-06
1.96383e-05
-1.56225e-05
1.22744e-05
-1.00725e-05
9.54757e-05
-2.00427e-06
-1.01232e-06
9.22407e-05
-7.2855e-06
-4.96752e-06
8.76749e-05
-1.05967e-05
-8.6662e-06
8.28057e-05
-1.08548e-05
-1.09102e-05
7.82032e-05
-8.83222e-06
-1.16307e-05
7.40017e-05
-5.71326e-06
-1.13614e-05
7.00738e-05
-2.42065e-06
-1.07212e-05
6.61718e-05
6.54315e-07
-1.01531e-05
6.20187e-05
3.5233e-06
-9.90201e-06
5.72658e-05
6.41928e-06
-1.00806e-05
5.14803e-05
9.66917e-06
-1.07279e-05
4.40945e-05
1.36336e-05
-1.1831e-05
3.43582e-05
1.86611e-05
-1.32999e-05
2.14138e-05
2.47581e-05
-1.48048e-05
5.25331e-06
2.95508e-05
-1.49937e-05
2.1288e-05
-9.63626e-06
0.000106658
-1.56708e-06
-8.81382e-07
0.000102818
-5.00092e-06
-4.67367e-06
9.68294e-05
-7.30642e-06
-8.48528e-06
9.01005e-05
-7.46131e-06
-1.09472e-05
8.36711e-05
-5.87431e-06
-1.18115e-05
7.79935e-05
-3.34244e-06
-1.15562e-05
7.30577e-05
-5.34743e-07
-1.0838e-05
6.85768e-05
2.29488e-06
-1.01536e-05
6.42039e-05
5.1451e-06
-9.77656e-06
5.95172e-05
8.28451e-06
-9.8244e-06
5.40278e-05
1.20786e-05
-1.03301e-05
4.71079e-05
1.69969e-05
-1.12728e-05
3.78776e-05
2.36137e-05
-1.25636e-05
2.50645e-05
3.23641e-05
-1.39062e-05
7.51991e-06
4.12136e-05
-1.40414e-05
3.46255e-05
-8.96006e-06
0.000114096
-1.10654e-06
-8.14548e-07
0.000109951
-2.37121e-06
-4.50902e-06
0.000103133
-3.1754e-06
-8.37762e-06
9.52402e-05
-2.92951e-06
-1.09616e-05
8.76212e-05
-1.76807e-06
-1.19016e-05
8.09937e-05
-5.22973e-08
-1.16342e-05
7.5409e-05
1.99889e-06
-1.08366e-05
7.06587e-05
4.23908e-06
-1.00407e-05
6.63371e-05
6.78926e-06
-9.53688e-06
6.20153e-05
9.90481e-06
-9.44264e-06
5.72182e-05
1.39746e-05
-9.78222e-06
5.13535e-05
1.95629e-05
-1.05247e-05
4.35417e-05
2.75114e-05
-1.15803e-05
3.21414e-05
3.90421e-05
-1.27018e-05
1.41551e-05
5.38641e-05
-1.2802e-05
5.67453e-05
-8.06196e-06
0.000117778
-7.82027e-07
-5.9794e-07
0.00011348
-4.43457e-06
4.29247e-07
0.000106281
-8.323e-06
1.34193e-06
9.78728e-05
-1.09449e-05
2.11098e-06
8.97589e-05
-1.18934e-05
2.82774e-06
8.27459e-05
-1.1588e-05
3.63561e-06
7.70297e-05
-1.07166e-05
4.69793e-06
7.23734e-05
-9.82404e-06
6.15321e-06
6.84099e-05
-9.20324e-06
8.17658e-06
6.47591e-05
-8.96543e-06
1.10047e-05
6.10574e-05
-9.12322e-06
1.49943e-05
5.69243e-05
-9.63248e-06
2.0715e-05
5.18207e-05
-1.03947e-05
2.91606e-05
4.44155e-05
-1.11989e-05
4.23703e-05
3.03492e-05
-1.12973e-05
6.33288e-05
-6.73099e-06
9.73418e-05
1.56689e-05
-1.49489e-06
-1.28062e-06
1.79625e-05
-3.49947e-06
-2.59742e-06
2.03756e-05
-3.86217e-06
-3.14107e-06
2.2168e-05
-3.28533e-06
-3.26294e-06
2.30748e-05
-2.35611e-06
-3.1896e-06
2.31426e-05
-1.45478e-06
-3.06707e-06
2.25313e-05
-7.36246e-07
-2.98408e-06
2.13798e-05
-2.04276e-07
-2.99185e-06
1.97582e-05
1.94579e-07
-3.11866e-06
1.76817e-05
5.02924e-07
-3.38064e-06
1.51141e-05
7.62498e-07
-3.7827e-06
1.20002e-05
9.85009e-07
-4.31647e-06
8.30395e-06
1.15543e-06
-4.94622e-06
4.10841e-06
1.20364e-06
-5.55813e-06
1.7594e-07
6.93036e-07
-5.73594e-06
-1.14305e-06
-4.08073e-06
4.18533e-05
-2.62493e-06
-1.50805e-06
4.39945e-05
-7.61576e-06
-4.17068e-06
4.67139e-05
-9.23945e-06
-5.66811e-06
4.89444e-05
-8.39979e-06
-6.21263e-06
5.00936e-05
-6.3562e-06
-6.19408e-06
5.00234e-05
-4.10317e-06
-5.94291e-06
4.88514e-05
-2.15602e-06
-5.68293e-06
4.67408e-05
-6.26774e-07
-5.54805e-06
4.37742e-05
5.81824e-07
-5.61253e-06
3.99286e-05
1.5927e-06
-5.91573e-06
3.50815e-05
2.52887e-06
-6.47313e-06
2.90299e-05
3.47012e-06
-7.27316e-06
2.15476e-05
4.43323e-06
-8.2528e-06
1.25764e-05
5.2716e-06
-9.19834e-06
3.01818e-06
5.03855e-06
-9.32182e-06
1.22975e-06
-6.11102e-06
6.38882e-05
-2.76349e-06
-1.13871e-06
6.37226e-05
-9.4094e-06
-4.06218e-06
6.39987e-05
-1.24383e-05
-6.14754e-06
6.42309e-05
-1.1981e-05
-7.13971e-06
6.39397e-05
-9.46116e-06
-7.32208e-06
6.28546e-05
-6.27881e-06
-7.08683e-06
6.09132e-05
-3.3067e-06
-6.75024e-06
5.8139e-05
-8.35896e-07
-6.51391e-06
5.45071e-05
1.22594e-06
-6.48934e-06
4.99137e-05
3.04782e-06
-6.73339e-06
4.41402e-05
4.8462e-06
-7.26682e-06
3.68656e-05
6.79081e-06
-8.07597e-06
2.77104e-05
8.96794e-06
-9.08794e-06
1.64473e-05
1.1182e-05
-1.00601e-05
3.9495e-06
1.18921e-05
-1.00974e-05
6.08238e-06
-6.44186e-06
8.26295e-05
-2.45108e-06
-8.40745e-07
8.0488e-05
-9.05412e-06
-3.64841e-06
7.79269e-05
-1.27728e-05
-6.02202e-06
7.53245e-05
-1.28545e-05
-7.35015e-06
7.27054e-05
-1.04463e-05
-7.7297e-06
6.99329e-05
-6.98768e-06
-7.54219e-06
6.68536e-05
-3.51554e-06
-7.16444e-06
6.33251e-05
-4.49679e-07
-6.85328e-06
5.91902e-05
2.25065e-06
-6.75166e-06
5.42181e-05
4.79134e-06
-6.92634e-06
4.80874e-05
7.45814e-06
-7.39861e-06
4.03698e-05
1.05168e-05
-8.1515e-06
3.05486e-05
1.41545e-05
-9.1086e-06
1.82014e-05
1.81844e-05
-1.00263e-05
3.99543e-06
2.04825e-05
-1.0007e-05
1.28743e-05
-6.33361e-06
9.78516e-05
-2.03638e-06
-6.71989e-07
9.45603e-05
-7.40759e-06
-3.32279e-06
8.98172e-05
-1.08604e-05
-5.83552e-06
8.46535e-05
-1.12089e-05
-7.39215e-06
7.96828e-05
-9.1842e-06
-7.92209e-06
7.50838e-05
-5.98187e-06
-7.76821e-06
7.07542e-05
-2.56054e-06
-7.34656e-06
6.64536e-05
6.58795e-07
-6.96098e-06
6.19054e-05
3.67652e-06
-6.77968e-06
5.67624e-05
6.73045e-06
-6.87661e-06
5.06058e-05
1.01577e-05
-7.27095e-06
4.29069e-05
1.43262e-05
-7.94154e-06
3.29969e-05
1.95762e-05
-8.81158e-06
2.01545e-05
2.58707e-05
-9.64857e-06
4.50755e-06
3.0724e-05
-9.58832e-06
2.21819e-05
-6.0407e-06
0.00010931
-1.60436e-06
-5.84257e-07
0.000105433
-5.08619e-06
-3.11836e-06
9.9274e-05
-7.48471e-06
-5.70161e-06
9.22261e-05
-7.70274e-06
-7.4055e-06
8.53796e-05
-6.11196e-06
-8.03716e-06
7.92496e-05
-3.51066e-06
-7.89746e-06
7.38679e-05
-5.91277e-07
-7.42558e-06
6.89621e-05
2.37301e-06
-6.96199e-06
6.41857e-05
5.37187e-06
-6.69551e-06
5.91158e-05
8.68035e-06
-6.70442e-06
5.32732e-05
1.26747e-05
-7.00443e-06
4.60633e-05
1.78332e-05
-7.5699e-06
3.66758e-05
2.47258e-05
-8.32563e-06
2.39542e-05
3.37474e-05
-9.06131e-06
6.86048e-06
4.27472e-05
-8.97088e-06
3.58944e-05
-5.60389e-06
0.000116928
-1.14633e-06
-5.39728e-07
0.000112759
-2.42239e-06
-3.00369e-06
0.00010578
-3.26149e-06
-5.62138e-06
9.75581e-05
-3.0357e-06
-7.40715e-06
8.94951e-05
-1.85781e-06
-8.09275e-06
8.23833e-05
-8.50403e-08
-7.94806e-06
7.6327e-05
2.05243e-06
-7.42403e-06
7.1141e-05
4.40402e-06
-6.88566e-06
6.64206e-05
7.08939e-06
-6.53401e-06
6.17349e-05
1.03716e-05
-6.44822e-06
5.6616e-05
1.46506e-05
-6.63927e-06
5.04999e-05
2.05007e-05
-7.0761e-06
4.25667e-05
2.87632e-05
-7.68459e-06
3.12645e-05
4.06352e-05
-8.28742e-06
1.36738e-05
5.57203e-05
-8.18435e-06
5.84972e-05
-5.03768e-06
0.000120698
-5.17935e-07
-6.36722e-07
0.000116381
-2.95148e-06
4.11876e-07
0.000109026
-5.58059e-06
1.35108e-06
0.000100288
-7.39158e-06
2.14927e-06
9.1721e-05
-8.08408e-06
2.89939e-06
8.42137e-05
-7.91495e-06
3.74926e-06
7.80228e-05
-7.34196e-06