/*--------------------------------*- C++ -*----------------------------------*\
| =========                 |                                                 |
| \\      /  F ield         | foam-extend: Open Source CFD                    |
|  \\    /   O peration     | Version:     3.1                                |
|   \\  /    A nd           | Web:         http://www.extend-project.de       |
|    \\/     M anipulation  |                                                 |
\*---------------------------------------------------------------------------*/
FoamFile
{
    version     2.0;
    format      ascii;
    class       pointVectorField;
    location    "1.1";
    object      pointMotionU;
}
// * * * * * * * * * * * * * * * * * * * * * * * * * * * * * * * * * * * * * //

dimensions      [0 1 -1 0 0 0 0];

internalField   nonuniform List<vector> 
16859
(
(0 0 0)
(0 0 0)
(0 0 0)
(0 0 0)
(0 0 0)
(0 0 0)
(0 0 0)
(0 0 0)
(0 0 0)
(0 0 0)
(0 0 0)
(0 0 0)
(0 0 0)
(0 0 0)
(0 0 0)
(0 0 0)
(0 0 0)
(0 0 0)
(-1.42081e-10 2.39945e-11 -2.51725e-10)
(-2.6828e-10 4.41268e-11 -5.00226e-10)
(-3.72757e-10 5.79832e-11 -7.57915e-10)
(-4.53577e-10 6.32005e-11 -1.04395e-09)
(-5.06952e-10 5.60642e-11 -1.37733e-09)
(-5.25601e-10 3.08258e-11 -1.77693e-09)
(-4.97541e-10 -2.08779e-11 -2.26333e-09)
(-4.04144e-10 -1.10595e-10 -2.86019e-09)
(-2.16232e-10 -2.53297e-10 -3.59266e-09)
(1.09755e-10 -4.66267e-10 -4.48876e-09)
(6.36632e-10 -7.64576e-10 -5.57198e-09)
(1.44854e-09 -1.15035e-09 -6.8504e-09)
(2.64002e-09 -1.59226e-09 -8.3e-09)
(4.26845e-09 -2.00055e-09 -9.82283e-09)
(6.19771e-09 -2.26605e-09 -1.11363e-08)
(1.05701e-08 -8.55589e-10 -1.43069e-08)
(0 0 0)
(-2.86661e-10 4.85884e-11 -4.94567e-10)
(-5.42148e-10 8.97525e-11 -9.82318e-10)
(-7.55704e-10 1.19037e-10 -1.48728e-09)
(-9.24688e-10 1.32143e-10 -2.04666e-09)
(-1.04307e-09 1.22168e-10 -2.69646e-09)
(-1.09942e-09 7.8402e-11 -3.47312e-09)
(-1.0748e-09 -1.5034e-11 -4.41727e-09)
(-9.3938e-10 -1.80573e-10 -5.57442e-09)
(-6.46701e-10 -4.4875e-10 -6.99442e-09)
(-1.2753e-10 -8.58005e-10 -8.73118e-09)
(7.15476e-10 -1.45069e-09 -1.08311e-08)
(2.00725e-09 -2.26396e-09 -1.33194e-08)
(3.87334e-09 -3.31085e-09 -1.6172e-08)
(6.35409e-09 -4.55248e-09 -1.92351e-08)
(9.21244e-09 -5.86187e-09 -2.20168e-08)
(1.51389e-08 -1.36682e-08 -3.00597e-08)
(0 0 0)
(-4.35566e-10 7.41178e-11 -7.21137e-10)
(-8.25683e-10 1.37814e-10 -1.43119e-09)
(-1.15624e-09 1.85259e-10 -2.16426e-09)
(-1.42598e-09 2.11014e-10 -2.97323e-09)
(-1.6294e-09 2.06014e-10 -3.90843e-09)
(-1.75595e-09 1.56033e-10 -5.02239e-09)
(-1.78746e-09 3.95161e-11 -6.37347e-09)
(-1.69432e-09 -1.74937e-10 -8.02556e-09)
(-1.43132e-09 -5.31668e-10 -1.00501e-08)
(-9.31303e-10 -1.09036e-09 -1.25208e-08)
(-1.02469e-10 -1.92668e-09 -1.55052e-08)
(1.16868e-09 -3.13104e-09 -1.90541e-08)
(2.98173e-09 -4.7925e-09 -2.31573e-08)
(5.33258e-09 -6.94584e-09 -2.76191e-08)
(7.99586e-09 -9.3744e-09 -3.1765e-08)
(1.25122e-08 -2.05581e-08 -4.22623e-08)
(0 0 0)
(-5.88865e-10 1.00382e-10 -9.2493e-10)
(-1.11935e-09 1.88119e-10 -1.8338e-09)
(-1.57583e-09 2.56868e-10 -2.76876e-09)
(-1.96089e-09 3.01133e-10 -3.79568e-09)
(-2.27326e-09 3.11155e-10 -4.97717e-09)
(-2.50785e-09 2.71064e-10 -6.37836e-09)
(-2.65418e-09 1.56344e-10 -8.06992e-09)
(-2.69438e-09 -6.95203e-11 -1.0129e-08)
(-2.60186e-09 -4.5915e-10 -1.26413e-08)
(-2.33831e-09 -1.08602e-09 -1.56953e-08)
(-1.85314e-09 -2.04925e-09 -1.93784e-08)
(-1.08379e-09 -3.47803e-09 -2.37673e-08)
(2.77697e-11 -5.50965e-09 -2.88611e-08)
(1.48447e-09 -8.19425e-09 -3.44242e-08)
(3.24717e-09 -1.117e-08 -3.96275e-08)
(6.97988e-09 -2.41171e-08 -5.23378e-08)
(0 0 0)
(-7.45769e-10 1.26712e-10 -1.10226e-09)
(-1.42162e-09 2.39447e-10 -2.18291e-09)
(-2.01214e-09 3.32275e-10 -3.28994e-09)
(-2.52582e-09 4.00783e-10 -4.49944e-09)
(-2.96851e-09 4.36066e-10 -5.88324e-09)
(-3.344e-09 4.22834e-10 -7.51434e-09)
(-3.65461e-09 3.36881e-10 -9.47036e-09)
(-3.90218e-09 1.41732e-10 -1.18356e-08)
(-4.08978e-09 -2.15714e-10 -1.47021e-08)
(-4.2238e-09 -8.10479e-10 -1.81673e-08)
(-4.31584e-09 -1.74506e-09 -2.23297e-08)
(-4.37938e-09 -3.15361e-09 -2.72779e-08)
(-4.40835e-09 -5.17939e-09 -3.30179e-08)
(-4.34895e-09 -7.86105e-09 -3.93e-08)
(-3.91566e-09 -1.07747e-08 -4.5205e-08)
(-1.53187e-10 -2.34886e-08 -5.99087e-08)
(0 0 0)
(-9.04056e-10 1.51859e-10 -1.25131e-09)
(-1.7279e-09 2.89321e-10 -2.475e-09)
(-2.45749e-09 4.07707e-10 -3.72262e-09)
(-3.10854e-09 5.04687e-10 -5.07727e-09)
(-3.6952e-09 5.73571e-10 -6.61629e-09)
(-4.23202e-09 6.01742e-10 -8.41657e-09)
(-4.73636e-09 5.68504e-10 -1.05582e-08)
(-5.23202e-09 4.42308e-10 -1.31263e-08)
(-5.7542e-09 1.77305e-10 -1.62122e-08)
(-6.35572e-09 -2.90598e-10 -1.99114e-08)
(-7.11219e-09 -1.04707e-09 -2.43191e-08)
(-8.11836e-09 -2.19881e-09 -2.95169e-08)
(-9.44775e-09 -3.85327e-09 -3.55152e-08)
(-1.10381e-08 -6.01598e-09 -4.20722e-08)
(-1.23149e-08 -8.28743e-09 -4.82477e-08)
(-9.14114e-09 -1.9266e-08 -6.36751e-08)
(0 0 0)
(-1.05997e-09 1.74043e-10 -1.37135e-09)
(-2.03044e-09 3.34103e-10 -2.70877e-09)
(-2.89929e-09 4.77392e-10 -4.06515e-09)
(-3.68969e-09 6.04339e-10 -5.52748e-09)
(-4.42412e-09 7.11494e-10 -7.17521e-09)
(-5.1274e-09 7.90421e-10 -9.08553e-09)
(-5.83058e-09 8.26226e-10 -1.13366e-08)
(-6.57621e-09 7.9574e-10 -1.40091e-08)
(-7.42532e-09 6.6556e-10 -1.71864e-08)
(-8.46579e-09 3.90491e-10 -2.09522e-08)
(-9.8193e-09 -8.61354e-11 -2.53839e-08)
(-1.16383e-08 -8.2673e-10 -3.05393e-08)
(-1.40657e-08 -1.8789e-09 -3.6414e-08)
(-1.70742e-08 -3.20197e-09 -4.27815e-08)
(-1.99668e-08 -4.47798e-09 -4.87918e-08)
(-2.12234e-08 -9.77461e-09 -6.34694e-08)
(0 0 0)
(-1.20911e-09 1.91192e-10 -1.46309e-09)
(-2.32018e-09 3.69506e-10 -2.88586e-09)
(-3.32302e-09 5.34398e-10 -4.32052e-09)
(-4.24756e-09 6.89317e-10 -5.85508e-09)
(-5.12335e-09 8.34522e-10 -7.56826e-09)
(-5.98324e-09 9.66486e-10 -9.53434e-09)
(-6.86792e-09 1.07711e-09 -1.1826e-08)
(-7.83155e-09 1.15294e-09 -1.45152e-08)
(-8.94885e-09 1.17455e-09 -1.76721e-08)
(-1.03225e-08 1.11692e-09 -2.13611e-08)
(-1.20877e-08 9.52697e-10 -2.56325e-08)
(-1.4404e-08 6.6144e-10 -3.05034e-08)
(-1.74073e-08 2.51529e-10 -3.59136e-08)
(-2.10481e-08 -1.8699e-10 -4.15937e-08)
(-2.4747e-08 -3.56354e-10 -4.68205e-08)
(-2.56655e-08 -6.40382e-10 -5.94085e-08)
(0 0 0)
(0 0 0)
(0 0 0)
(0 0 0)
(0 0 0)
(0 0 0)
(0 0 0)
(0 0 0)
(0 0 0)
(0 0 0)
(0 0 0)
(0 0 0)
(0 0 0)
(0 0 0)
(0 0 0)
(0 0 0)
(0 0 0)
(0 0 0)
(-1.39168e-10 2.86554e-11 -2.44828e-10)
(-2.61846e-10 5.33896e-11 -4.8636e-10)
(-3.61428e-10 7.20277e-11 -7.36586e-10)
(-4.35023e-10 8.25557e-11 -1.01408e-09)
(-4.7759e-10 8.15962e-11 -1.33725e-09)
(-4.80083e-10 6.37353e-11 -1.72423e-09)
(-4.28091e-10 2.10352e-11 -2.19492e-09)
(-2.99656e-10 -5.73091e-11 -2.7721e-09)
(-6.10365e-11 -1.84773e-10 -3.47961e-09)
(3.36983e-10 -3.75116e-10 -4.34398e-09)
(9.63014e-10 -6.34873e-10 -5.38692e-09)
(1.90442e-09 -9.45547e-10 -6.61409e-09)
(3.24908e-09 -1.22762e-09 -7.9983e-09)
(5.01588e-09 -1.29012e-09 -9.43464e-09)
(6.88358e-09 -8.8808e-10 -1.06124e-08)
(1.1418e-08 6.52534e-09 -1.08367e-08)
(0 0 0)
(-2.81391e-10 5.77661e-11 -4.80995e-10)
(-5.30474e-10 1.07994e-10 -9.55039e-10)
(-7.35102e-10 1.46695e-10 -1.44533e-09)
(-8.90912e-10 1.70259e-10 -1.98791e-09)
(-9.89674e-10 1.72413e-10 -2.6176e-09)
(-1.01693e-09 1.43049e-10 -3.36956e-09)
(-9.49677e-10 6.69899e-11 -4.28307e-09)
(-7.5264e-10 -7.71961e-11 -5.4019e-09)
(-3.72233e-10 -3.18212e-10 -6.77364e-09)
(2.68817e-10 -6.90522e-10 -8.44976e-09)
(1.27395e-09 -1.22719e-09 -1.04738e-08)
(2.76503e-09 -1.94365e-09 -1.28683e-08)
(4.83694e-09 -2.80541e-09 -1.56079e-08)
(7.42779e-09 -3.68165e-09 -1.85378e-08)
(9.97395e-09 -4.3108e-09 -2.11237e-08)
(1.3761e-08 -4.10533e-09 -2.5481e-08)
(0 0 0)
(-4.28923e-10 8.75386e-11 -7.01305e-10)
(-8.10887e-10 1.64491e-10 -1.39135e-09)
(-1.13e-09 2.25717e-10 -2.103e-09)
(-1.38285e-09 2.66786e-10 -2.88751e-09)
(-1.56129e-09 2.795e-10 -3.79345e-09)
(-1.6513e-09 2.50452e-10 -4.8717e-09)
(-1.63017e-09 1.58865e-10 -6.17867e-09)
(-1.46255e-09 -2.59133e-11 -7.77575e-09)
(-1.09672e-09 -3.47326e-10 -9.7318e-09)
(-4.59761e-10 -8.63738e-10 -1.21175e-08)
(5.40347e-10 -1.64802e-09 -1.49978e-08)
(2.001e-09 -2.78329e-09 -1.84217e-08)
(3.96235e-09 -4.34312e-09 -2.2382e-08)
(6.26786e-09 -6.33033e-09 -2.66924e-08)
(8.32666e-09 -8.43577e-09 -3.0614e-08)
(9.55117e-09 -1.14887e-08 -3.72466e-08)
(0 0 0)
(-5.82089e-10 1.17629e-10 -8.99432e-10)
(-1.10409e-09 2.22417e-10 -1.7826e-09)
(-1.54849e-09 3.08933e-10 -2.69013e-09)
(-1.91568e-09 3.72979e-10 -3.68578e-09)
(-2.20185e-09 4.05903e-10 -4.83007e-09)
(-2.39877e-09 3.92828e-10 -6.18606e-09)
(-2.49218e-09 3.09997e-10 -7.82202e-09)
(-2.46013e-09 1.21218e-10 -9.8123e-09)
(-2.27288e-09 -2.26608e-10 -1.22396e-08)
(-1.89253e-09 -8.09131e-10 -1.51899e-08)
(-1.27835e-09 -1.7308e-09 -1.87483e-08)
(-3.98745e-10 -3.13092e-09 -2.29916e-08)
(7.26288e-10 -5.16491e-09 -2.79267e-08)
(1.94003e-09 -7.90389e-09 -3.33349e-08)
(2.90077e-09 -1.0931e-08 -3.82987e-08)
(1.84666e-09 -1.59445e-08 -4.67955e-08)
(0 0 0)
(-7.40155e-10 1.47257e-10 -1.07181e-09)
(-1.40866e-09 2.80342e-10 -2.1218e-09)
(-1.98833e-09 3.94444e-10 -3.19623e-09)
(-2.48585e-09 4.86731e-10 -4.36872e-09)
(-2.90503e-09 5.49663e-10 -5.70876e-09)
(-3.2475e-09 5.6912e-10 -7.28693e-09)
(-3.51352e-09 5.21738e-10 -9.17822e-09)
(-3.70386e-09 3.71174e-10 -1.14641e-08)
(-3.82354e-09 6.29873e-11 -1.42336e-08)
(-3.88772e-09 -4.82247e-10 -1.75818e-08)
(-3.93076e-09 -1.3776e-09 -2.16062e-08)
(-4.01469e-09 -2.77973e-09 -2.6399e-08)
(-4.22553e-09 -4.87405e-09 -3.19782e-08)
(-4.65534e-09 -7.76458e-09 -3.81157e-08)
(-5.20099e-09 -1.10359e-08 -4.37906e-08)
(-8.10076e-09 -1.69968e-08 -5.37843e-08)
(0 0 0)
(-9.00776e-10 1.75071e-10 -1.21668e-09)
(-1.71969e-09 3.35578e-10 -2.40558e-09)
(-2.4413e-09 4.78163e-10 -3.61634e-09)
(-3.08006e-09 6.02333e-10 -4.92939e-09)
(-3.64897e-09 7.03036e-10 -6.41952e-09)
(-4.16171e-09 7.69096e-10 -8.16106e-09)
(-4.63574e-09 7.8092e-10 -1.02314e-08)
(-5.09724e-09 7.07345e-10 -1.27129e-08)
(-5.58893e-09 5.01307e-10 -1.56943e-08)
(-6.1812e-09 9.42073e-11 -1.92692e-08)
(-6.98603e-09 -6.1088e-10 -2.35334e-08)
(-8.16731e-09 -1.74577e-09 -2.85757e-08)
(-9.91596e-09 -3.46834e-09 -3.44228e-08)
(-1.23319e-08 -5.8742e-09 -4.08617e-08)
(-1.49207e-08 -8.64198e-09 -4.68483e-08)
(-2.07041e-08 -1.49582e-08 -5.75202e-08)
(0 0 0)
(-1.05994e-09 1.99169e-10 -1.33335e-09)
(-2.02889e-09 3.84244e-10 -2.6327e-09)
(-2.89379e-09 5.53937e-10 -3.94894e-09)
(-3.67727e-09 7.10756e-10 -5.36623e-09)
(-4.40159e-09 8.53152e-10 -6.96145e-09)
(-5.09208e-09 9.74457e-10 -8.80917e-09)
(-5.7819e-09 1.06133e-09 -1.0985e-08)
(-6.51908e-09 1.0916e-09 -1.35671e-08)
(-7.37669e-09 1.03163e-09 -1.66368e-08)
(-8.46694e-09 8.33444e-10 -2.02768e-08)
(-9.95806e-09 4.32392e-10 -2.45669e-08)
(-1.20878e-08 -2.52744e-10 -2.95744e-08)
(-1.51451e-08 -1.31054e-09 -3.53171e-08)
(-1.93134e-08 -2.78259e-09 -4.16081e-08)
(-2.39645e-08 -4.47154e-09 -4.75108e-08)
(-3.7511e-08 -7.74924e-09 -5.80313e-08)
(0 0 0)
(-1.21291e-09 2.17368e-10 -1.42254e-09)
(-2.32649e-09 4.21826e-10 -2.80481e-09)
(-3.33007e-09 6.1447e-10 -4.19697e-09)
(-4.25377e-09 8.01034e-10 -5.68422e-09)
(-5.12779e-09 9.83901e-10 -7.34269e-09)
(-5.98663e-09 1.16165e-09 -9.24421e-09)
(-6.87463e-09 1.32824e-09 -1.14591e-08)
(-7.85343e-09 1.47199e-09 -1.40573e-08)
(-9.01224e-09 1.57457e-09 -1.71075e-08)
(-1.04808e-08 1.61063e-09 -2.06745e-08)
(-1.24432e-08 1.54965e-09 -2.4812e-08)
(-1.51447e-08 1.36262e-09 -2.9548e-08)
(-1.88633e-08 1.03922e-09 -3.48468e-08)
(-2.3756e-08 6.36062e-10 -4.04808e-08)
(-2.94207e-08 4.17702e-10 -4.57196e-08)
(-4.55132e-08 1.44952e-10 -5.56159e-08)
(0 0 0)
(0 0 0)
(0 0 0)
(0 0 0)
(0 0 0)
(0 0 0)
(0 0 0)
(0 0 0)
(0 0 0)
(0 0 0)
(0 0 0)
(0 0 0)
(0 0 0)
(0 0 0)
(0 0 0)
(0 0 0)
(0 0 0)
(0 0 0)
(-1.35416e-10 3.37562e-11 -2.28893e-10)
(-2.53653e-10 6.36489e-11 -4.54562e-10)
(-3.4717e-10 8.78958e-11 -6.88096e-10)
(-4.11859e-10 1.05056e-10 -9.46708e-10)
(-4.41067e-10 1.12414e-10 -1.24734e-09)
(-4.23512e-10 1.0541e-10 -1.60648e-09)
(-3.41618e-10 7.73631e-11 -2.0419e-09)
(-1.68975e-10 1.95327e-11 -2.57327e-09)
(1.34193e-10 -7.79638e-11 -3.21991e-09)
(6.24894e-10 -2.22102e-10 -4.00121e-09)
(1.38054e-09 -4.06368e-10 -4.92768e-09)
(2.49639e-09 -5.87208e-10 -5.98733e-09)
(4.06452e-09 -6.40204e-10 -7.12478e-09)
(6.10133e-09 -3.13313e-10 -8.19875e-09)
(8.2698e-09 6.26505e-10 -8.92321e-09)
(1.51993e-08 8.73962e-09 -8.51265e-09)
(0 0 0)
(-2.74479e-10 6.77855e-11 -4.49692e-10)
(-5.15363e-10 1.2814e-10 -8.92603e-10)
(-7.0878e-10 1.77841e-10 -1.35018e-09)
(-8.48135e-10 2.14387e-10 -1.85582e-09)
(-9.22317e-10 2.32753e-10 -2.44159e-09)
(-9.12898e-10 2.24413e-10 -3.13949e-09)
(-7.91268e-10 1.76475e-10 -3.98467e-09)
(-5.14483e-10 7.10507e-11 -5.015e-09)
(-1.87118e-11 -1.14604e-10 -6.26945e-09)
(7.85943e-10 -4.04247e-10 -7.7859e-09)
(2.0158e-09 -8.11197e-10 -9.58652e-09)
(3.80001e-09 -1.31381e-09 -1.16603e-08)
(6.22558e-09 -1.81184e-09 -1.39258e-08)
(9.19502e-09 -2.08276e-09 -1.61529e-08)
(1.20795e-08 -1.8715e-09 -1.7842e-08)
(1.73041e-08 -6.42482e-10 -1.95831e-08)
(0 0 0)
(-4.19891e-10 1.02131e-10 -6.55656e-10)
(-7.911e-10 1.93822e-10 -1.30036e-09)
(-1.09547e-09 2.71033e-10 -1.96451e-09)
(-1.32671e-09 3.30919e-10 -2.69556e-09)
(-1.47305e-09 3.67013e-10 -3.5383e-09)
(-1.51555e-09 3.68066e-10 -4.53909e-09)
(-1.42467e-09 3.16273e-10 -5.7485e-09)
(-1.15607e-09 1.85272e-10 -7.21983e-09)
(-6.46477e-10 -6.15996e-11 -9.00996e-09)
(1.90014e-10 -4.71428e-10 -1.11711e-08)
(1.45719e-09 -1.09753e-09 -1.37396e-08)
(3.25472e-09 -1.9858e-09 -1.67162e-08)
(5.59925e-09 -3.14143e-09 -2.00127e-08)
(8.27361e-09 -4.46128e-09 -2.3339e-08)
(1.05991e-08 -5.61237e-09 -2.6005e-08)
(1.32268e-08 -7.07308e-09 -2.91103e-08)
(0 0 0)
(-5.72251e-10 1.36288e-10 -8.40864e-10)
(-1.08244e-09 2.59915e-10 -1.66598e-09)
(-1.51056e-09 3.66842e-10 -2.51289e-09)
(-1.85391e-09 4.54872e-10 -3.44069e-09)
(-2.10488e-09 5.17487e-10 -4.50516e-09)
(-2.25019e-09 5.42401e-10 -5.76385e-09)
(-2.26892e-09 5.09198e-10 -7.27801e-09)
(-2.1307e-09 3.86225e-10 -9.11246e-09)
(-1.79592e-09 1.26948e-10 -1.13359e-08)
(-1.21699e-09 -3.34291e-10 -1.40126e-08)
(-3.46823e-10 -1.08558e-09 -1.71946e-08)
(8.43293e-10 -2.23449e-09 -2.0897e-08)
(2.30261e-09 -3.87296e-09 -2.50292e-08)
(3.81868e-09 -5.95886e-09 -2.92473e-08)
(4.98282e-09 -8.01373e-09 -3.26896e-08)
(5.58535e-09 -1.10774e-08 -3.68534e-08)
(0 0 0)
(-7.30891e-10 1.69356e-10 -1.00199e-09)
(-1.38809e-09 3.24754e-10 -1.98294e-09)
(-1.95197e-09 4.63036e-10 -2.98558e-09)
(-2.4263e-09 5.83713e-10 -4.07817e-09)
(-2.81142e-09 6.81724e-10 -5.3248e-09)
(-3.10455e-09 7.45847e-10 -6.78991e-09)
(-3.30051e-09 7.56308e-10 -8.5409e-09)
(-3.39381e-09 6.81378e-10 -1.0649e-08)
(-3.38332e-09 4.72764e-10 -1.31885e-08)
(-3.28038e-09 5.96497e-11 -1.62317e-08)
(-3.12184e-09 -6.57678e-10 -1.98392e-08)
(-2.98322e-09 -1.81125e-09 -2.40384e-08)
(-2.98475e-09 -3.53264e-09 -2.87384e-08)
(-3.25853e-09 -5.81891e-09 -3.35626e-08)
(-3.72947e-09 -8.17541e-09 -3.75342e-08)
(-4.67152e-09 -1.2036e-08 -4.23827e-08)
(0 0 0)
(-8.93347e-10 1.99878e-10 -1.1374e-09)
(-1.70288e-09 3.85446e-10 -2.2481e-09)
(-2.41096e-09 5.55216e-10 -3.37797e-09)
(-3.02962e-09 7.11319e-10 -4.60158e-09)
(-3.56907e-09 8.51459e-10 -5.98793e-09)
(-4.03973e-09 9.6762e-10 -7.605e-09)
(-4.45544e-09 1.04405e-09 -9.52242e-09)
(-4.8391e-09 1.05434e-09 -1.18126e-08)
(-5.232e-09 9.57484e-10 -1.45496e-08)
(-5.70808e-09 6.92893e-10 -1.78052e-08)
(-6.39304e-09 1.75299e-10 -2.16394e-08)
(-7.48195e-09 -7.0722e-10 -2.60798e-08)
(-9.21496e-09 -2.07025e-09 -3.10412e-08)
(-1.17439e-08 -3.92477e-09 -3.61485e-08)
(-1.45763e-08 -5.88557e-09 -4.03771e-08)
(-1.8698e-08 -1.00898e-08 -4.5428e-08)
(0 0 0)
(-1.05537e-09 2.25841e-10 -1.24647e-09)
(-2.01794e-09 4.37893e-10 -2.46037e-09)
(-2.87292e-09 6.36906e-10 -3.68868e-09)
(-3.64114e-09 8.28223e-10 -5.00951e-09)
(-4.34297e-09 1.01326e-09 -6.49381e-09)
(-5.00175e-09 1.18875e-09 -8.20988e-09)
(-5.64901e-09 1.34544e-09 -1.02259e-08)
(-6.33242e-09 1.46619e-09 -1.26108e-08)
(-7.12809e-09 1.52367e-09 -1.5433e-08)
(-8.15848e-09 1.4781e-09 -1.87558e-08)
(-9.61594e-09 1.27638e-09 -2.26285e-08)
(-1.17864e-08 8.55829e-10 -2.7066e-08)
(-1.50364e-08 1.61759e-10 -3.19881e-08)
(-1.96518e-08 -7.89408e-10 -3.7059e-08)
(-2.50347e-08 -1.77815e-09 -4.13242e-08)
(-3.91808e-08 -3.04175e-09 -4.63084e-08)
(0 0 0)
(-1.21187e-09 2.44972e-10 -1.32987e-09)
(-2.32283e-09 4.77397e-10 -2.62127e-09)
(-3.32093e-09 7.00517e-10 -3.92051e-09)
(-4.2352e-09 9.23031e-10 -5.30667e-09)
(-5.09484e-09 1.15044e-09 -6.8501e-09)
(-5.93359e-09 1.38488e-09 -8.61669e-09)
(-6.79579e-09 1.62464e-09 -1.06701e-08)
(-7.74503e-09 1.86331e-09 -1.30721e-08)
(-8.87661e-09 2.08921e-09 -1.58809e-08)
(-1.03345e-08 2.2857e-09 -1.9146e-08)
(-1.2332e-08 2.43435e-09 -2.28982e-08)
(-1.5169e-08 2.52483e-09 -2.71285e-08)
(-1.92154e-08 2.57793e-09 -3.17381e-08)
(-2.47627e-08 2.69915e-09 -3.64152e-08)
(-3.1546e-08 3.19932e-09 -4.04323e-08)
(-5.10635e-08 4.65579e-09 -4.60928e-08)
(0 0 0)
(0 0 0)
(0 0 0)
(0 0 0)
(0 0 0)
(0 0 0)
(0 0 0)
(0 0 0)
(0 0 0)
(0 0 0)
(0 0 0)
(0 0 0)
(0 0 0)
(0 0 0)
(0 0 0)
(0 0 0)
(0 0 0)
(0 0 0)
(-1.31127e-10 3.90091e-11 -2.04638e-10)
(-2.44325e-10 7.43076e-11 -4.06263e-10)
(-3.30993e-10 1.04622e-10 -6.14654e-10)
(-3.8561e-10 1.29248e-10 -8.44988e-10)
(-3.99596e-10 1.46362e-10 -1.11204e-09)
(-3.58972e-10 1.52637e-10 -1.4299e-09)
(-2.42264e-10 1.43243e-10 -1.81318e-09)
(-1.73862e-11 1.12318e-10 -2.27713e-09)
(3.63431e-10 5.46201e-11 -2.83472e-09)
(9.68234e-10 -2.91311e-11 -3.49575e-09)
(1.88873e-09 -1.20121e-10 -4.257e-09)
(3.23768e-09 -1.56688e-10 -5.08863e-09)
(5.12825e-09 6.17852e-12 -5.91676e-09)
(7.59769e-09 6.22297e-10 -6.60295e-09)
(1.02763e-08 1.84552e-09 -6.95371e-09)
(1.90626e-08 1.04132e-08 -6.36223e-09)
(0 0 0)
(-2.66491e-10 7.80806e-11 -4.02045e-10)
(-4.97978e-10 1.49021e-10 -7.97769e-10)
(-6.78611e-10 2.10585e-10 -1.20608e-09)
(-7.99169e-10 2.61692e-10 -1.65637e-09)
(-8.45071e-10 2.98998e-10 -2.17674e-09)
(-7.92989e-10 3.16296e-10 -2.7946e-09)
(-6.07189e-10 3.04125e-10 -3.53883e-09)
(-2.34575e-10 2.49771e-10 -4.43887e-09)
(4.02963e-10 1.38702e-10 -5.52141e-09)
(1.41465e-09 -3.96802e-11 -6.80582e-09)
(2.94098e-09 -2.78397e-10 -8.28739e-09)
(5.13788e-09 -5.26916e-10 -9.91919e-09)
(8.11782e-09 -6.54589e-10 -1.15777e-08)
(1.1792e-08 -4.45107e-10 -1.30232e-08)
(1.54431e-08 2.14491e-10 -1.39118e-08)
(2.24951e-08 1.33403e-09 -1.42823e-08)
(0 0 0)
(-4.09245e-10 1.17076e-10 -5.86187e-10)
(-7.67902e-10 2.24114e-10 -1.16221e-09)
(-1.05517e-09 3.18478e-10 -1.75485e-09)
(-1.26131e-09 3.99326e-10 -2.40591e-09)
(-1.37009e-09 4.62556e-10 -3.15466e-09)
(-1.35622e-09 5.00103e-10 -4.04089e-09)
(-1.18104e-09 4.98731e-10 -5.10631e-09)
(-7.8742e-10 4.38765e-10 -6.3925e-09)
(-9.43793e-11 2.93843e-10 -7.9391e-09)
(1.00731e-09 3.26466e-11 -9.77257e-09)
(2.65079e-09 -3.74513e-10 -1.18916e-08)
(4.96679e-09 -9.40271e-10 -1.42431e-08)
(7.99561e-09 -1.63432e-09 -1.66724e-08)
(1.15166e-08 -2.35958e-09 -1.88655e-08)
(1.47273e-08 -2.9479e-09 -2.03409e-08)
(1.93637e-08 -4.22225e-09 -2.12929e-08)
(0 0 0)
(-5.60269e-10 1.55323e-10 -7.51769e-10)
(-1.05627e-09 2.98469e-10 -1.48898e-09)
(-1.46502e-09 4.27157e-10 -2.24473e-09)
(-1.77997e-09 5.41677e-10 -3.07118e-09)
(-1.9886e-09 6.38436e-10 -4.01714e-09)
(-2.07075e-09 7.08955e-10 -5.13202e-09)
(-1.99579e-09 7.38081e-10 -6.46665e-09)
(-1.71997e-09 7.0169e-10 -8.07178e-09)
(-1.18553e-09 5.64351e-10 -9.99566e-09)
(-3.21424e-10 2.76842e-10 -1.2272e-08)
(9.49291e-10 -2.24603e-10 -1.49067e-08)
(2.69017e-09 -1.01259e-09 -1.78448e-08)
(4.87826e-09 -2.13816e-09 -2.09101e-08)
(7.3085e-09 -3.55332e-09 -2.37245e-08)
(9.45637e-09 -4.93712e-09 -2.56781e-08)
(1.24808e-08 -7.39555e-09 -2.71257e-08)
(0 0 0)
(-7.18972e-10 1.91796e-10 -8.95823e-10)
(-1.36195e-09 3.70185e-10 -1.77229e-09)
(-1.90626e-09 5.34054e-10 -2.66706e-09)
(-2.35189e-09 6.85795e-10 -3.64046e-09)
(-2.69431e-09 8.23669e-10 -4.74857e-09)
(-2.92418e-09 9.40679e-10 -6.0468e-09)
(-3.02725e-09 1.02273e-09 -7.59126e-09)
(-2.98583e-09 1.046e-09 -9.43797e-09)
(-2.78264e-09 9.73465e-10 -1.16394e-08)
(-2.40843e-09 7.50596e-10 -1.42348e-08)
(-1.87441e-09 3.01653e-10 -1.72337e-08)
(-1.22278e-09 -4.70204e-10 -2.0584e-08)
(-5.39108e-10 -1.65206e-09 -2.40965e-08)
(7.5688e-11 -3.22159e-09 -2.73435e-08)
(6.1897e-10 -4.82536e-09 -2.96208e-08)
(2.61588e-09 -7.63457e-09 -3.13381e-08)
(0 0 0)
(-8.82782e-10 2.24938e-10 -1.0169e-09)
(-1.67949e-09 4.36171e-10 -2.00933e-09)
(-2.36967e-09 6.34478e-10 -3.01773e-09)
(-2.96189e-09 8.25156e-10 -4.10803e-09)
(-3.46206e-09 1.00951e-09 -5.34069e-09)
(-3.87487e-09 1.18401e-09 -6.77427e-09)
(-4.20658e-09 1.33884e-09 -8.46694e-09)
(-4.47018e-09 1.45565e-09 -1.04759e-08)
(-4.69449e-09 1.50466e-09 -1.28537e-08)
(-4.93834e-09 1.4412e-09 -1.56397e-08)
(-5.30971e-09 1.20324e-09 -1.88427e-08)
(-5.98175e-09 7.13124e-10 -2.24124e-08)
(-7.16269e-09 -9.92743e-11 -2.61553e-08)
(-8.96571e-09 -1.21678e-09 -2.96263e-08)
(-1.09341e-08 -2.37766e-09 -3.20665e-08)
(-1.19759e-08 -5.12394e-09 -3.37508e-08)
(0 0 0)
(-1.04722e-09 2.52646e-10 -1.11445e-09)
(-1.99955e-09 4.92153e-10 -2.19914e-09)
(-2.83973e-09 7.21686e-10 -3.29551e-09)
(-3.58572e-09 9.49938e-10 -4.47265e-09)
(-4.25436e-09 1.1821e-09 -5.79285e-09)
(-4.86448e-09 1.41954e-09 -7.31508e-09)
(-5.44181e-09 1.65906e-09 -9.09653e-09)
(-6.02687e-09 1.8916e-09 -1.1192e-08)
(-6.68747e-09 2.10092e-09 -1.36501e-08)
(-7.53734e-09 2.26272e-09 -1.65052e-08)
(-8.76082e-09 2.34622e-09 -1.97614e-08)
(-1.06374e-08 2.32152e-09 -2.33639e-08)
(-1.35213e-08 2.1782e-09 -2.71299e-08)
(-1.76834e-08 1.96485e-09 -3.06431e-08)
(-2.25382e-08 1.79603e-09 -3.3157e-08)
(-3.45573e-08 2.37849e-09 -3.46551e-08)
(0 0 0)
(-1.20689e-09 2.72572e-10 -1.18907e-09)
(-2.31098e-09 5.33285e-10 -2.34309e-09)
(-3.29834e-09 7.87868e-10 -3.50291e-09)
(-4.1958e-09 1.04845e-09 -4.73855e-09)
(-5.0299e-09 1.32437e-09 -6.11187e-09)
(-5.83111e-09 1.62246e-09 -7.67992e-09)
(-6.63973e-09 1.947e-09 -9.49635e-09)
(-7.51477e-09 2.29957e-09 -1.16106e-08)
(-8.54684e-09 2.67923e-09 -1.40641e-08)
(-9.87643e-09 3.08415e-09 -1.68828e-08)
(-1.17165e-08 3.51694e-09 -2.0062e-08)
(-1.43723e-08 3.99741e-09 -2.354e-08)
(-1.82248e-08 4.58686e-09 -2.71468e-08)
(-2.35864e-08 5.42705e-09 -3.05244e-08)
(-3.02319e-08 6.79378e-09 -3.30958e-08)
(-4.8738e-08 1.02544e-08 -3.51652e-08)
(0 0 0)
(0 0 0)
(0 0 0)
(0 0 0)
(0 0 0)
(0 0 0)
(0 0 0)
(0 0 0)
(0 0 0)
(0 0 0)
(0 0 0)
(0 0 0)
(0 0 0)
(0 0 0)
(0 0 0)
(0 0 0)
(0 0 0)
(0 0 0)
(-1.267e-10 4.40539e-11 -1.73051e-10)
(-2.34707e-10 8.46095e-11 -3.4345e-10)
(-3.14326e-10 1.20959e-10 -5.19353e-10)
(-3.58576e-10 1.53214e-10 -7.13424e-10)
(-3.56682e-10 1.8051e-10 -9.37596e-10)
(-2.91712e-10 2.00927e-10 -1.20315e-09)
(-1.37934e-10 2.11751e-10 -1.52134e-09)
(1.43258e-10 2.10189e-10 -1.90257e-09)
(6.0898e-10 1.95616e-10 -2.35366e-09)
(1.34049e-09 1.75587e-10 -2.87589e-09)
(2.44703e-09 1.78058e-10 -3.45584e-09)
(4.06288e-09 2.747e-10 -4.05424e-09)
(6.3239e-09 6.15591e-10 -4.59626e-09)
(9.27663e-09 1.44047e-09 -4.9712e-09)
(1.24772e-08 2.84803e-09 -5.07525e-09)
(2.27515e-08 1.19999e-08 -4.40498e-09)
(0 0 0)
(-2.58187e-10 8.7952e-11 -3.39989e-10)
(-4.7993e-10 1.69169e-10 -6.74428e-10)
(-6.47319e-10 2.42508e-10 -1.01909e-09)
(-7.48348e-10 3.0843e-10 -1.39833e-09)
(-7.64557e-10 3.65453e-10 -1.83513e-09)
(-6.67169e-10 4.10048e-10 -2.35162e-09)
(-4.12429e-10 4.36667e-10 -2.96975e-09)
(6.46285e-11 4.38226e-10 -3.70977e-09)
(8.59282e-10 4.0861e-10 -4.5863e-09)
(2.10475e-09 3.4929e-10 -5.60221e-09)
(3.97263e-09 2.82757e-10 -6.7326e-09)
(6.65528e-09 2.75316e-10 -7.9096e-09)
(1.02976e-08 4.60963e-10 -9.00161e-09)
(1.48057e-08 1.01735e-09 -9.81153e-09)
(1.93098e-08 1.94342e-09 -1.0156e-08)
(2.80039e-08 3.06223e-09 -9.86869e-09)
(0 0 0)
(-3.98042e-10 1.31373e-10 -4.9571e-10)
(-7.43533e-10 2.53265e-10 -9.82516e-10)
(-1.01288e-09 3.64583e-10 -1.48273e-09)
(-1.19252e-09 4.66632e-10 -2.03093e-09)
(-1.26141e-09 5.58016e-10 -2.65963e-09)
(-1.18703e-09 6.34369e-10 -3.40092e-09)
(-9.19889e-10 6.87633e-10 -4.28634e-09)
(-3.87455e-10 7.05657e-10 -5.3448e-09)
(5.13619e-10 6.73047e-10 -6.5988e-09)
(1.92344e-09 5.73635e-10 -8.05182e-09)
(4.01579e-09 3.97028e-10 -9.67274e-09)
(6.96786e-09 1.49353e-10 -1.13756e-08)
(1.08572e-08 -1.37262e-10 -1.29873e-08)
(1.54452e-08 -4.18834e-10 -1.42439e-08)
(1.97197e-08 -6.75923e-10 -1.48859e-08)
(2.62863e-08 -1.88204e-09 -1.47511e-08)
(0 0 0)
(-5.4742e-10 1.73475e-10 -6.35741e-10)
(-1.02828e-09 3.35446e-10 -1.25878e-09)
(-1.41637e-09 4.85544e-10 -1.89666e-09)
(-1.70088e-09 6.26732e-10 -2.59274e-09)
(-1.86377e-09 7.58749e-10 -3.38741e-09)
(-1.87677e-09 8.77519e-10 -4.32033e-09)
(-1.69728e-09 9.73952e-10 -5.43025e-09)
(-1.26443e-09 1.03262e-09 -6.75276e-09)
(-4.95927e-10 1.0304e-09 -8.31549e-09)
(7.13401e-10 9.34816e-10 -1.01243e-08)
(2.48654e-09 7.03502e-10 -1.21474e-08)
(4.94243e-09 2.85634e-10 -1.4286e-08)
(8.1057e-09 -3.64021e-10 -1.63358e-08)
(1.17602e-08 -1.24812e-09 -1.79747e-08)
(1.51492e-08 -2.20399e-09 -1.88678e-08)
(2.05173e-08 -4.35197e-09 -1.89027e-08)
(0 0 0)
(-7.05807e-10 2.13121e-10 -7.5758e-10)
(-1.33319e-09 4.13594e-10 -1.49834e-09)
(-1.85616e-09 6.02514e-10 -2.25366e-09)
(-2.27033e-09 7.85367e-10 -3.07382e-09)
(-2.5655e-09 9.64131e-10 -4.00506e-09)
(-2.72415e-09 1.13667e-09 -5.09194e-09)
(-2.72027e-09 1.29552e-09 -6.37755e-09)
(-2.51922e-09 1.42614e-09 -7.90139e-09)
(-2.07953e-09 1.50437e-09 -9.69363e-09)
(-1.35799e-09 1.49314e-09 -1.17629e-08)
(-3.19118e-10 1.33901e-09 -1.40768e-08)
(1.05656e-09 9.69927e-10 -1.65309e-08)
(2.74307e-09 3.11481e-10 -1.88997e-08)
(4.65081e-09 -6.54521e-10 -2.08121e-08)
(6.55584e-09 -1.73316e-09 -2.18735e-08)
(1.13883e-08 -3.94514e-09 -2.19702e-08)
(0 0 0)
(-8.70543e-10 2.48664e-10 -8.60004e-10)
(-1.65262e-09 4.84444e-10 -1.69883e-09)
(-2.32256e-09 7.10537e-10 -2.55018e-09)
(-2.88483e-09 9.35609e-10 -3.46909e-09)
(-3.33999e-09 1.16494e-09 -4.50545e-09)
(-3.68521e-09 1.40014e-09 -5.70645e-09)
(-3.91599e-09 1.63827e-09 -7.11702e-09)
(-4.03e-09 1.87047e-09 -8.77772e-09)
(-4.03426e-09 2.07993e-09 -1.0719e-08)
(-3.95694e-09 2.23947e-09 -1.29494e-08)
(-3.86325e-09 2.3096e-09 -1.54356e-08)
(-3.86741e-09 2.23899e-09 -1.80735e-08)
(-4.11102e-09 1.97587e-09 -2.06251e-08)
(-4.67481e-09 1.50837e-09 -2.26909e-08)
(-5.29252e-09 9.44616e-10 -2.38315e-08)
(-3.19889e-09 -9.81149e-10 -2.37959e-08)
(0 0 0)
(-1.03694e-09 2.77925e-10 -9.42548e-10)
(-1.97673e-09 5.4357e-10 -1.85943e-09)
(-2.79923e-09 8.02649e-10 -2.78519e-09)
(-3.51877e-09 1.06737e-09 -3.77757e-09)
(-4.14749e-09 1.34704e-09 -4.88805e-09)
(-4.69774e-09 1.64827e-09 -6.16433e-09)
(-5.18608e-09 1.97476e-09 -7.6508e-09)
(-5.64008e-09 2.32688e-09 -9.38656e-09)
(-6.10936e-09 2.7011e-09 -1.13999e-08)
(-6.68225e-09 3.09017e-09 -1.36972e-08)
(-7.5079e-09 3.48539e-09 -1.62444e-08)
(-8.81777e-09 3.88318e-09 -1.8938e-08)
(-1.09025e-08 4.29378e-09 -2.15481e-08)
(-1.39931e-08 4.74715e-09 -2.36825e-08)
(-1.76509e-08 5.21524e-09 -2.48733e-08)
(-2.68538e-08 6.73324e-09 -2.45525e-08)
(0 0 0)
(-1.19932e-09 2.98502e-10 -1.00572e-09)
(-2.29379e-09 5.86025e-10 -1.98129e-09)
(-3.26702e-09 8.70889e-10 -2.9608e-09)
(-4.14283e-09 1.16879e-09 -4.00281e-09)
(-4.94389e-09 1.49316e-09 -5.15857e-09)
(-5.69538e-09 1.85603e-09 -6.47441e-09)
(-6.43018e-09 2.26846e-09 -7.9922e-09)
(-7.19694e-09 2.7411e-09 -9.7475e-09)
(-8.07193e-09 3.28514e-09 -1.17644e-08)
(-9.17587e-09 3.91483e-09 -1.40458e-08)
(-1.06949e-08 4.65341e-09 -1.65563e-08)
(-1.28984e-08 5.54524e-09 -1.91968e-08)
(-1.61202e-08 6.6718e-09 -2.17642e-08)
(-2.06424e-08 8.16678e-09 -2.39251e-08)
(-2.63168e-08 1.02163e-08 -2.53047e-08)
(-4.25477e-08 1.45871e-08 -2.49837e-08)
(0 0 0)
(0 0 0)
(0 0 0)
(0 0 0)
(0 0 0)
(0 0 0)
(0 0 0)
(0 0 0)
(0 0 0)
(0 0 0)
(0 0 0)
(0 0 0)
(0 0 0)
(0 0 0)
(0 0 0)
(0 0 0)
(0 0 0)
(0 0 0)
(-1.22587e-10 4.85041e-11 -1.35347e-10)
(-2.25772e-10 9.37368e-11 -2.68547e-10)
(-2.98831e-10 1.35533e-10 -4.059e-10)
(-3.33391e-10 1.74789e-10 -5.57189e-10)
(-3.16555e-10 2.11558e-10 -7.31238e-10)
(-2.28497e-10 2.45276e-10 -9.36388e-10)
(-3.92725e-11 2.75225e-10 -1.18063e-09)
(2.96233e-10 3.0138e-10 -1.47018e-09)
(8.44522e-10 3.27026e-10 -1.80728e-09)
(1.70008e-09 3.64966e-10 -2.18802e-09)
(2.98926e-09 4.492e-10 -2.59495e-09)
(4.86576e-09 6.56442e-10 -2.98949e-09)
(7.4811e-09 1.1371e-09 -3.30892e-09)
(1.0875e-08 2.12118e-09 -3.47642e-09)
(1.45163e-08 3.67862e-09 -3.44897e-09)
(2.58256e-08 1.34346e-08 -2.82227e-09)
(0 0 0)
(-2.50439e-10 9.66503e-11 -2.65912e-10)
(-4.63092e-10 1.86997e-10 -5.27342e-10)
(-6.18105e-10 2.70949e-10 -7.96486e-10)
(-7.00823e-10 3.50428e-10 -1.09203e-09)
(-6.88973e-10 4.25769e-10 -1.43114e-09)
(-5.48386e-10 4.96047e-10 -1.83034e-09)
(-2.27332e-10 5.59383e-10 -2.30506e-09)
(3.5117e-10 6.13832e-10 -2.86746e-09)
(1.29992e-09 6.6051e-10 -3.52305e-09)
(2.77659e-09 7.10271e-10 -4.26459e-09)
(4.98391e-09 7.95775e-10 -5.05889e-09)
(8.14845e-09 9.90355e-10 -5.83693e-09)
(1.24377e-08 1.4224e-09 -6.48598e-09)
(1.77302e-08 2.23702e-09 -6.86831e-09)
(2.2984e-08 3.36489e-09 -6.91258e-09)
(3.28793e-08 4.64752e-09 -6.41501e-09)
(0 0 0)
(-3.8751e-10 1.43946e-10 -3.87705e-10)
(-7.2063e-10 2.7901e-10 -7.68231e-10)
(-9.73107e-10 4.05577e-10 -1.15879e-09)
(-1.12773e-09 5.26976e-10 -1.58583e-09)
(-1.15863e-09 6.44474e-10 -2.0741e-09)
(-1.02607e-09 7.57291e-10 -2.64752e-09)
(-6.69586e-10 8.62269e-10 -3.32793e-09)
(-7.18027e-13 9.54224e-10 -4.13308e-09)
(1.10727e-09 1.02736e-09 -5.0723e-09)
(2.82693e-09 1.07749e-09 -6.13495e-09)
(5.37398e-09 1.10695e-09 -7.27694e-09)
(8.97142e-09 1.12949e-09 -8.40728e-09)
(1.37239e-08 1.16566e-09 -9.37472e-09)
(1.93471e-08 1.20844e-09 -9.9934e-09)
(2.4593e-08 1.18088e-09 -1.0162e-08)
(3.26614e-08 1.14162e-10 -9.63266e-09)
(0 0 0)
(-5.35199e-10 1.89405e-10 -4.97231e-10)
(-1.00168e-09 3.6803e-10 -9.84251e-10)
(-1.37014e-09 5.37328e-10 -1.48227e-09)
(-1.62555e-09 7.02801e-10 -2.0246e-09)
(-1.74439e-09 8.67434e-10 -2.64212e-09)
(-1.69012e-09 1.03141e-09 -3.36419e-09)
(-1.4076e-09 1.19146e-09 -4.21775e-09)
(-8.17827e-10 1.34031e-09 -5.22498e-09)
(1.8812e-10 1.46584e-09 -6.39761e-09)
(1.75267e-09 1.54906e-09 -7.72395e-09)
(4.04841e-09 1.5621e-09 -9.15481e-09)
(7.25081e-09 1.46307e-09 -1.05823e-08)
(1.14215e-08 1.19464e-09 -1.18247e-08)
(1.62971e-08 6.97727e-10 -1.26538e-08)
(2.08479e-08 2.60587e-11 -1.29341e-08)
(2.80753e-08 -1.89191e-09 -1.24256e-08)
(0 0 0)