/*--------------------------------*- C++ -*----------------------------------*\
| =========                 |                                                 |
| \\      /  F ield         | foam-extend: Open Source CFD                    |
|  \\    /   O peration     | Version:     3.1                                |
|   \\  /    A nd           | Web:         http://www.extend-project.de       |
|    \\/     M anipulation  |                                                 |
\*---------------------------------------------------------------------------*/
FoamFile
{
    version     2.0;
    format      ascii;
    class       surfaceVectorField;
    location    "1.1";
    object      Sf;
}
// * * * * * * * * * * * * * * * * * * * * * * * * * * * * * * * * * * * * * //

dimensions      [0 2 0 0 0 0 0];

internalField   nonuniform List<vector> 
41600
(
(0.000625993 -6.58714e-06 -5.00456e-08)
(-9.93646e-07 0.000709712 -2.73793e-08)
(-1.00355e-08 -1.12899e-08 0.000707016)
(1.02837e-08 1.15691e-08 -0.000706939)
(0.000626947 -1.2684e-05 -9.645e-08)
(-9.54097e-07 0.000709221 -8.20257e-08)
(-1.01251e-08 -3.39609e-08 0.000707892)
(1.03751e-08 3.48004e-08 -0.000707764)
(0.000627885 -1.824e-05 -1.3979e-07)
(-9.37793e-07 0.00070868 -1.38132e-07)
(-1.08725e-08 -5.75455e-08 0.000708712)
(1.11415e-08 5.89684e-08 -0.00070853)
(0.000628856 -2.33982e-05 -1.82158e-07)
(-9.71549e-07 0.000708281 -1.99906e-07)
(-1.26776e-08 -8.3951e-08 0.000709616)
(1.29921e-08 8.60292e-08 -0.000709373)
(0.000629908 -2.82744e-05 -2.25158e-07)
(-1.05272e-06 0.000707998 -2.72518e-07)
(-1.58195e-08 -1.15834e-07 0.000710648)
(1.62138e-08 1.18707e-07 -0.000710332)
(0.00063109 -3.29602e-05 -2.69654e-07)
(-1.18209e-06 0.000707807 -3.61674e-07)
(-2.09461e-08 -1.56859e-07 0.000711851)
(2.14602e-08 1.60751e-07 -0.000711445)
(0.000632452 -3.75171e-05 -3.15319e-07)
(-1.36316e-06 0.000707677 -4.74173e-07)
(-2.92365e-08 -2.12679e-07 0.00071327)
(2.99033e-08 2.17897e-07 -0.00071275)
(0.000634054 -4.19683e-05 -3.6035e-07)
(-1.6029e-06 0.000707569 -6.18483e-07)
(-4.26256e-08 -2.92321e-07 0.00071495)
(4.34941e-08 2.99272e-07 -0.000714286)
(0.000635964 -4.62821e-05 -4.00835e-07)
(-1.91053e-06 0.000707429 -8.05849e-07)
(-6.45796e-08 -4.10632e-07 0.000716937)
(6.57399e-08 4.1989e-07 -0.000716091)
(0.000638259 -5.03488e-05 -4.29973e-07)
(-2.29688e-06 0.000707179 -1.0519e-06)
(-1.01482e-07 -5.92996e-07 0.000719282)
(1.0298e-07 6.05323e-07 -0.000718201)
(0.000641031 -5.39555e-05 -4.38877e-07)
(-2.77394e-06 0.000706716 -1.37959e-06)
(-1.64815e-07 -8.83802e-07 0.000722034)
(1.66512e-07 8.99952e-07 -0.000720646)
(0.000644379 -5.67548e-05 -4.20472e-07)
(-3.34905e-06 0.000705904 -1.82574e-06)
(-2.74767e-07 -1.36091e-06 0.00072525)
(2.7599e-07 1.38095e-06 -0.000723443)
(0.000648392 -5.82918e-05 -3.83244e-07)
(-4.01182e-06 0.00070464 -2.45449e-06)
(-4.659e-07 -2.15972e-06 0.000729018)
(4.6468e-07 2.18124e-06 -0.0007266)
(0.000653063 -5.81803e-05 -3.89679e-07)
(-4.6651e-06 0.000702997 -3.37911e-06)
(-7.76989e-07 -3.49339e-06 0.000733503)
(7.71313e-07 3.50995e-06 -0.000730117)
(0.000657671 -5.64651e-05 -6.73835e-07)
(-4.6349e-06 0.000701371 -4.74494e-06)
(-1.11209e-06 -5.52311e-06 0.000738735)
(1.13928e-06 5.5616e-06 -0.000733706)
(-1.74459e-05 0.000693591 -6.41989e-07)
(-4.32948e-06 -1.11294e-05 0.000748554)
(9.47255e-06 1.63525e-05 -0.000745544)
(0.000625948 -6.47952e-06 -1.49033e-07)
(-1.94249e-06 0.000716191 -5.37088e-08)
(-2.97362e-08 -1.08713e-08 0.000713573)
(3.04649e-08 1.11326e-08 -0.000713398)
(0.000626857 -1.24757e-05 -2.87275e-07)
(-1.86383e-06 0.000715216 -1.60753e-07)
(-3.00167e-08 -3.27019e-08 0.000713907)
(3.07431e-08 3.3479e-08 -0.00071369)
(0.000627748 -1.79377e-05 -4.16431e-07)
(-1.82944e-06 0.00071414 -2.70339e-07)
(-3.21761e-08 -5.53234e-08 0.000714132)
(3.29473e-08 5.66161e-08 -0.000713871)
(0.000628667 -2.30051e-05 -5.42894e-07)
(-1.8916e-06 0.000713347 -3.90634e-07)
(-3.73284e-08 -8.03062e-08 0.00071458)
(3.82229e-08 8.21565e-08 -0.000714263)
(0.000629658 -2.77949e-05 -6.71568e-07)
(-2.04457e-06 0.000712786 -5.3161e-07)
(-4.62743e-08 -1.09817e-07 0.000715263)
(4.73925e-08 1.1233e-07 -0.000714875)
(0.000630763 -3.24008e-05 -8.05014e-07)
(-2.28846e-06 0.000712409 -7.04188e-07)
(-6.07873e-08 -1.4676e-07 0.000716194)
(6.2223e-08 1.50094e-07 -0.000715718)
(0.000632027 -3.68907e-05 -9.42655e-07)
(-2.62966e-06 0.000712162 -9.21189e-07)
(-8.38324e-08 -1.95139e-07 0.000717381)
(8.57095e-08 1.99535e-07 -0.000716796)
(0.000633502 -4.13017e-05 -1.07968e-06)
(-3.07952e-06 0.000711974 -1.19859e-06)
(-1.20419e-07 -2.60686e-07 0.000718822)
(1.22943e-07 2.66575e-07 -0.000718105)
(0.00063524 -4.5629e-05 -1.20493e-06)
(-3.65215e-06 0.000711749 -1.55714e-06)
(-1.7966e-07 -3.52386e-07 0.000720501)
(1.83065e-07 3.60401e-07 -0.000719624)
(0.000637302 -4.98075e-05 -1.2993e-06)
(-4.36339e-06 0.000711347 -2.02482e-06)
(-2.77565e-07 -4.84405e-07 0.000722371)
(2.82005e-07 4.95363e-07 -0.000721304)
(0.000639747 -5.36835e-05 -1.33625e-06)
(-5.22383e-06 0.000710577 -2.64147e-06)
(-4.41666e-07 -6.78023e-07 0.00072435)
(4.46875e-07 6.92956e-07 -0.000723051)
(0.000642614 -5.69902e-05 -1.28956e-06)
(-6.22149e-06 0.000709191 -3.46737e-06)
(-7.17794e-07 -9.6294e-07 0.000726305)
(7.22281e-07 9.8302e-07 -0.00072471)
(0.000645884 -5.93339e-05 -1.16514e-06)
(-7.28105e-06 0.000706958 -4.60077e-06)
(-1.17595e-06 -1.37213e-06 0.0007281)
(1.17527e-06 1.39834e-06 -0.000726078)
(0.000649343 -6.02788e-05 -1.09207e-06)
(-8.11312e-06 0.00070391 -6.20492e-06)
(-1.87145e-06 -1.91585e-06 0.00072975)
(1.86091e-06 1.94806e-06 -0.000726997)
(0.000652136 -5.96506e-05 -1.62049e-06)
(-7.48306e-06 0.000700713 -8.50668e-06)
(-2.52411e-06 -2.52001e-06 0.000731631)
(2.57932e-06 2.55054e-06 -0.000727341)
(-1.75911e-05 0.000687645 -5.07295e-06)
(-7.40386e-06 -1.06718e-06 0.000728647)
(1.5567e-05 -1.92527e-06 -0.000719303)
(0.000625863 -6.27594e-06 -2.44762e-07)
(-2.80642e-06 0.000722467 -7.77364e-08)
(-4.82978e-08 -9.99676e-09 0.000719949)
(4.94666e-08 1.023e-08 -0.000719681)
(0.000626687 -1.20786e-05 -4.71744e-07)
(-2.68967e-06 0.000721018 -2.32438e-07)
(-4.87258e-08 -3.00033e-08 0.000719702)
(4.98843e-08 3.07006e-08 -0.000719404)
(0.000627491 -1.73549e-05 -6.83774e-07)
(-2.63412e-06 0.000719415 -3.90297e-07)
(-5.19611e-08 -5.04193e-08 0.000719294)
(5.31858e-08 5.15936e-08 -0.000718962)
(0.000628313 -2.22429e-05 -8.91772e-07)
(-2.71539e-06 0.000718233 -5.62887e-07)
(-5.96528e-08 -7.22424e-08 0.000719241)
(6.10632e-08 7.39423e-08 -0.00071886)
(0.00062919 -2.68598e-05 -1.10416e-06)
(-2.92334e-06 0.0007174 -7.64253e-07)
(-7.30018e-08 -9.68528e-08 0.000719524)
(7.47307e-08 9.91439e-08 -0.000719079)
(0.000630156 -3.13017e-05 -1.32555e-06)
(-3.25589e-06 0.000716848 -1.00958e-06)
(-9.43509e-08 -1.25825e-07 0.000720125)
(9.65367e-08 1.2881e-07 -0.000719598)
(0.000631243 -3.56481e-05 -1.55613e-06)
(-3.71963e-06 0.000716505 -1.31644e-06)
(-1.27359e-07 -1.60791e-07 0.000721014)
(1.3023e-07 1.64661e-07 -0.000720389)
(0.000632486 -3.99611e-05 -1.78978e-06)
(-4.32632e-06 0.000716282 -1.70637e-06)
(-1.78339e-07 -2.03387e-07 0.000722151)
(1.82237e-07 2.08422e-07 -0.000721409)
(0.000633919 -4.42807e-05 -2.01068e-06)
(-5.09056e-06 0.000716062 -2.20676e-06)
(-2.58449e-07 -2.54739e-07 0.000723459)
(2.63713e-07 2.6133e-07 -0.000722588)
(0.000635574 -4.86148e-05 -2.19081e-06)
(-6.02593e-06 0.000715672 -2.85388e-06)
(-3.86206e-07 -3.14046e-07 0.000724814)
(3.93123e-07 3.22773e-07 -0.000723805)
(0.000637472 -5.29164e-05 -2.28725e-06)
(-7.12996e-06 0.000714866 -3.69747e-06)
(-5.9099e-07 -3.75085e-07 0.000726016)
(5.99471e-07 3.86913e-07 -0.000724863)
(0.000639597 -5.7068e-05 -2.24805e-06)
(-8.35556e-06 0.000713326 -4.80935e-06)
(-9.16414e-07 -4.17883e-07 0.000726774)
(9.25013e-07 4.34418e-07 -0.000725471)
(0.000641857 -6.08333e-05 -2.04227e-06)
(-9.5451e-06 0.0007107 -6.30089e-06)
(-1.41431e-06 -3.91444e-07 0.000726743)
(1.41831e-06 4.15166e-07 -0.000725248)
(0.000643994 -6.38211e-05 -1.76196e-06)
(-1.02433e-05 0.000706865 -8.3536e-06)
(-2.08297e-06 -1.92663e-07 0.000725768)
(2.07624e-06 2.25396e-07 -0.0007239)
(0.000645406 -6.56e-05 -1.99441e-06)
(-8.93555e-06 0.000702475 -1.12628e-05)
(-2.55169e-06 2.77062e-07 0.000724535)
(2.59243e-06 -2.60811e-07 -0.000721547)
(-2.12255e-05 0.000691193 -6.7094e-06)
(-5.12106e-06 1.92441e-06 0.000718138)
(1.05419e-05 -3.04153e-06 -0.000712073)
(0.000625742 -5.97232e-06 -3.34924e-07)
(-3.54992e-06 0.000728439 -9.84066e-08)
(-6.49625e-08 -8.70673e-09 0.000726048)
(6.65225e-08 8.9126e-09 -0.000725692)
(0.000626448 -1.14838e-05 -6.45199e-07)
(-3.3973e-06 0.000726529 -2.93918e-07)
(-6.52871e-08 -2.59033e-08 0.000725191)
(6.68375e-08 2.65243e-08 -0.000724819)
(0.00062713 -1.64844e-05 -9.34948e-07)
(-3.31809e-06 0.000724415 -4.92631e-07)
(-6.89349e-08 -4.2804e-08 0.00072412)
(7.05745e-08 4.38514e-08 -0.000723728)
(0.00062782 -2.11072e-05 -1.21963e-06)
(-3.40715e-06 0.000722854 -7.08837e-07)
(-7.79568e-08 -5.98666e-08 0.000723534)
(7.98218e-08 6.13579e-08 -0.000723103)
(0.000628543 -2.54635e-05 -1.51134e-06)
(-3.64859e-06 0.000721755 -9.5974e-07)
(-9.3644e-08 -7.76296e-08 0.00072338)
(9.58703e-08 7.9586e-08 -0.000722893)
(0.000629322 -2.96498e-05 -1.8177e-06)
(-4.03704e-06 0.000721032 -1.26356e-06)
(-1.18212e-07 -9.62278e-08 0.000723607)
(1.20988e-07 9.86953e-08 -0.000723047)
(0.000630174 -3.37565e-05 -2.14066e-06)
(-4.57574e-06 0.000720608 -1.64092e-06)
(-1.55101e-07 -1.15071e-07 0.00072416)
(1.58708e-07 1.18126e-07 -0.000723513)
(0.000631117 -3.7872e-05 -2.47542e-06)
(-5.27348e-06 0.000720394 -2.11663e-06)
(-2.10013e-07 -1.32103e-07 0.000724966)
(2.14803e-07 1.35812e-07 -0.000724221)
(0.000632161 -4.20841e-05 -2.806e-06)
(-6.14122e-06 0.000720269 -2.72187e-06)
(-2.92141e-07 -1.41887e-07 0.000725913)
(2.98529e-07 1.46343e-07 -0.000725068)
(0.000633312 -4.64831e-05 -3.10089e-06)
(-7.18529e-06 0.000720066 -3.49732e-06)
(-4.15808e-07 -1.32303e-07 0.00072683)
(4.24206e-07 1.37731e-07 -0.000725892)
(0.000634562 -5.11603e-05 -3.30719e-06)
(-8.39122e-06 0.000719537 -4.49823e-06)
(-6.01204e-07 -7.90822e-08 0.000727452)
(6.11795e-07 8.59603e-08 -0.000726445)
(0.000635882 -5.61811e-05 -3.34888e-06)
(-9.6864e-06 0.000718337 -5.80363e-06)
(-8.72103e-07 6.38071e-08 0.000727409)
(8.83845e-07 -5.4487e-08 -0.000726373)
(0.000637185 -6.1512e-05 -3.14054e-06)
(-1.08571e-05 0.000716017 -7.53445e-06)
(-1.24476e-06 3.73471e-07 0.000726226)
(1.25331e-06 -3.60095e-07 -0.000725201)
(0.000638311 -6.68419e-05 -2.66896e-06)
(-1.13666e-05 0.000712177 -9.89128e-06)
(-1.67394e-06 9.45612e-07 0.000723577)
(1.67091e-06 -9.28015e-07 -0.000722511)
(0.000638984 -7.13156e-05 -2.33294e-06)
(-9.61585e-06 0.000706951 -1.32433e-05)
(-1.85722e-06 1.77194e-06 0.000720066)
(1.86454e-06 -1.77424e-06 -0.000718421)
(-2.2588e-05 0.000698563 -8.1532e-06)
(-3.11888e-06 3.4404e-06 0.000712754)
(7.02542e-06 -4.9889e-06 -0.000708966)
(0.000625594 -5.57468e-06 -4.17084e-07)
(-4.14554e-06 0.000734013 -1.14867e-07)
(-7.88763e-08 -6.83659e-09 0.000731775)
(8.07698e-08 7.00456e-09 -0.000731342)
(0.000626156 -1.07109e-05 -8.03275e-07)
(-3.96097e-06 0.000731665 -3.42686e-07)
(-7.87428e-08 -2.0115e-08 0.000730294)
(8.06247e-08 2.06129e-08 -0.000729859)
(0.000626692 -1.53602e-05 -1.16391e-06)
(-3.85688e-06 0.000729063 -5.73265e-07)
(-8.20388e-08 -3.25179e-08 0.000728552)
(8.40101e-08 3.33291e-08 -0.000728111)
(0.000627225 -1.9642e-05 -1.51853e-06)
(-3.94203e-06 0.000727135 -8.22801e-07)
(-9.10813e-08 -4.39472e-08 0.000727414)
(9.32781e-08 4.50494e-08 -0.000726946)
(0.000627768 -2.36562e-05 -1.88301e-06)
(-4.19453e-06 0.000725768 -1.11058e-06)
(-1.06864e-07 -5.41024e-08 0.000726796)
(1.0942e-07 5.54664e-08 -0.000726281)
(0.000628332 -2.74961e-05 -2.26856e-06)
(-4.60395e-06 0.00072487 -1.45656e-06)
(-1.31029e-07 -6.19615e-08 0.000726621)
(1.34153e-07 6.35536e-08 -0.000726042)
(0.000628921 -3.12554e-05 -2.67982e-06)
(-5.16821e-06 0.000724366 -1.8826e-06)
(-1.66118e-07 -6.53293e-08 0.000726814)
(1.7009e-07 6.71073e-08 -0.000726161)
(0.000629532 -3.50349e-05 -3.11609e-06)
(-5.88949e-06 0.000724172 -2.41458e-06)
(-2.15762e-07 -5.97046e-08 0.000727286)
(2.20874e-07 6.15805e-08 -0.000726552)
(0.000630155 -3.89541e-05 -3.56597e-06)
(-6.77094e-06 0.000724187 -3.08471e-06)
(-2.84916e-07 -3.61457e-08 0.000727911)
(2.91581e-07 3.79636e-08 -0.000727099)
(0.000630772 -4.31688e-05 -4.0021e-06)
(-7.81142e-06 0.000724279 -3.93505e-06)
(-3.80339e-07 2.20344e-08 0.00072851)
(3.88987e-07 -2.04806e-08 -0.000727637)
(0.000631361 -4.78928e-05 -4.374e-06)
(-8.9914e-06 0.00072426 -5.02389e-06)
(-5.09088e-07 1.44047e-07 0.000728826)
(5.20015e-07 -1.4296e-07 -0.000727928)
(0.000631898 -5.33803e-05 -4.59358e-06)
(-1.0236e-05 0.000723824 -6.43689e-06)
(-6.7248e-07 3.77936e-07 0.000728482)
(6.85063e-07 -3.77227e-07 -0.000727629)
(0.00063236 -5.98324e-05 -4.52806e-06)
(-1.13288e-05 0.000722468 -8.30942e-06)
(-8.59804e-07 7.93021e-07 0.000726955)
(8.69864e-07 -7.92242e-07 -0.000726246)
(0.000632718 -6.70946e-05 -4.02661e-06)
(-1.17212e-05 0.000719439 -1.08702e-05)
(-1.02394e-06 1.45481e-06 0.000723672)
(1.02099e-06 -1.45424e-06 -0.000723194)
(0.00063289 -7.39058e-05 -3.09299e-06)
(-9.76478e-06 0.000713777 -1.45421e-05)
(-1.01347e-06 2.31086e-06 0.000718451)
(9.89758e-07 -2.32578e-06 -0.000718086)
(-2.28346e-05 0.000708967 -9.00893e-06)
(-1.31621e-06 3.69833e-06 0.000711297)
(3.42364e-06 -4.87213e-06 -0.000710955)
(0.000625426 -5.09965e-06 -4.8941e-07)
(-4.57399e-06 0.000739113 -1.26532e-07)
(-8.9267e-08 -4.63786e-09 0.00073705)
(9.1417e-08 4.75601e-09 -0.000736549)
(0.000625827 -9.79149e-06 -9.42778e-07)
(-4.36334e-06 0.000736357 -3.77097e-07)
(-8.84567e-08 -1.3467e-08 0.000734948)
(9.05772e-08 1.38067e-08 -0.000734461)
(0.000626202 -1.40217e-05 -1.36589e-06)
(-4.23475e-06 0.000733293 -6.29635e-07)
(-9.07913e-08 -2.10912e-08 0.00073254)
(9.29792e-08 2.16207e-08 -0.000732061)
(0.000626564 -1.78923e-05 -1.78175e-06)
(-4.30599e-06 0.000731005 -9.01386e-07)
(-9.86618e-08 -2.68565e-08 0.000730843)
(1.01045e-07 2.75343e-08 -0.000730349)
(0.000626916 -2.14897e-05 -2.20994e-06)
(-4.5494e-06 0.000729364 -1.21267e-06)
(-1.12591e-07 -2.98032e-08 0.000729743)
(1.15281e-07 3.0561e-08 -0.000729213)
(0.000627257 -2.48959e-05 -2.66485e-06)
(-4.94822e-06 0.000728276 -1.58375e-06)
(-1.33464e-07 -2.8208e-08 0.000729144)
(1.36671e-07 2.89573e-08 -0.000728562)
(0.000627578 -2.8194e-05 -3.15498e-06)
(-5.49287e-06 0.000727663 -2.03617e-06)
(-1.62543e-07 -1.90519e-08 0.000728958)
(1.66506e-07 1.96718e-08 -0.000728314)
(0.00062786 -3.14762e-05 -3.68561e-06)
(-6.17618e-06 0.000727454 -2.59496e-06)
(-2.00888e-07 2.97179e-09 0.000729088)
(2.05784e-07 -2.71935e-09 -0.000728377)
(0.000628073 -3.48635e-05 -4.25339e-06)
(-6.99074e-06 0.000727575 -3.29083e-06)
(-2.48936e-07 4.70925e-08 0.000729411)
(2.55072e-07 -4.76196e-08 -0.000728638)
(0.000628181 -3.85325e-05 -4.8418e-06)
(-7.92695e-06 0.00072795 -4.16409e-06)
(-3.06163e-07 1.28626e-07 0.000729774)
(3.13857e-07 -1.30507e-07 -0.000728957)
(0.000628145 -4.27484e-05 -5.41515e-06)
(-8.96503e-06 0.00072848 -5.27267e-06)
(-3.68465e-07 2.71487e-07 0.000729973)
(3.77931e-07 -2.75481e-07 -0.000729151)
(0.000627949 -4.78907e-05 -5.89763e-06)
(-1.00503e-05 0.000728974 -6.70737e-06)
(-4.20874e-07 5.10598e-07 0.000729704)
(4.31723e-07 -5.1758e-07 -0.000728951)
(0.000627644 -5.4422e-05 -6.14707e-06)
(-1.10321e-05 0.00072901 -8.6248e-06)
(-4.36595e-07 8.91922e-07 0.000728496)
(4.44945e-07 -9.0247e-07 -0.000727931)
(0.000627393 -6.26102e-05 -5.89773e-06)
(-1.14657e-05 0.000727641 -1.13048e-05)
(-3.8432e-07 1.45303e-06 0.000725603)
(3.79814e-07 -1.46681e-06 -0.000725418)
(0.000627375 -7.13764e-05 -4.58006e-06)
(-9.70405e-06 0.000722567 -1.52294e-05)
(-2.52458e-07 2.14615e-06 0.000719632)
(2.09526e-07 -2.16947e-06 -0.000720262)
(-2.26621e-05 0.000723651 -9.47035e-06)
(1.41759e-07 3.18852e-06 0.000714603)
(5.32739e-07 -4.03661e-06 -0.00071822)
(0.000625248 -4.56202e-06 -5.50995e-07)
(-4.82397e-06 0.000743675 -1.33158e-07)
(-9.585e-08 -2.42181e-09 0.000741805)
(9.81672e-08 2.48757e-09 -0.000741248)
(0.000625477 -8.74889e-06 -1.06137e-06)
(-4.59469e-06 0.000740543 -3.96414e-07)
(-9.42872e-08 -6.8241e-09 0.000739103)
(9.65513e-08 7.00937e-09 -0.000738574)
(0.000625684 -1.25026e-05 -1.53706e-06)
(-4.44454e-06 0.000737047 -6.60666e-07)
(-9.52335e-08 -9.85076e-09 0.000736046)
(9.75281e-08 1.01166e-08 -0.000735539)
(0.000625871 -1.59049e-05 -2.00369e-06)
(-4.49556e-06 0.000734407 -9.43386e-07)
(-1.01018e-07 -1.04494e-08 0.000733791)
(1.03458e-07 1.07366e-08 -0.000733283)
(0.000626034 -1.90234e-05 -2.48379e-06)
(-4.71451e-06 0.000732482 -1.26482e-06)
(-1.11735e-07 -7.29707e-09 0.000732199)
(1.14403e-07 7.52555e-09 -0.000731667)
(0.00062616 -2.19196e-05 -2.99436e-06)
(-5.07793e-06 0.000731172 -1.64455e-06)
(-1.27488e-07 1.58254e-09 0.000731159)
(1.3057e-07 -1.53584e-09 -0.000730587)
(0.000626231 -2.46525e-05 -3.54845e-06)
(-5.56724e-06 0.000730397 -2.10255e-06)
(-1.48242e-07 1.93104e-08 0.000730569)
(1.51902e-07 -1.96438e-08 -0.000729949)
(0.000626215 -2.72879e-05 -4.15751e-06)
(-6.16454e-06 0.00073009 -2.6613e-06)
(-1.72899e-07 5.07099e-08 0.000730329)
(1.77164e-07 -5.17416e-08 -0.000729654)
(0.000626069 -2.99137e-05 -4.82602e-06)
(-6.84936e-06 0.000730203 -3.34764e-06)
(-1.98511e-07 1.03018e-07 0.000730327)
(2.03533e-07 -1.05235e-07 -0.000729602)
(0.000625735 -3.26627e-05 -5.55049e-06)
(-7.59858e-06 0.000730703 -4.19621e-06)
(-2.19736e-07 1.86703e-07 0.000730442)
(2.25657e-07 -1.90799e-07 -0.000729685)
(0.000625149 -3.57415e-05 -6.31712e-06)
(-8.3858e-06 0.000731565 -5.25811e-06)
(-2.26283e-07 3.15746e-07 0.000730527)
(2.33045e-07 -3.22752e-07 -0.000729775)
(0.000624266 -3.94793e-05 -7.08701e-06)
(-9.17474e-06 0.000732723 -6.61952e-06)
(-1.96276e-07 5.06116e-07 0.000730371)
(2.03317e-07 -5.1757e-07 -0.000729689)
(0.000623143 -4.44105e-05 -7.76753e-06)
(-9.91319e-06 0.000733959 -8.44738e-06)
(-9.75817e-08 7.72585e-07 0.000729629)
(1.01543e-07 -7.90111e-07 -0.000729126)
(0.000622123 -5.13026e-05 -8.10295e-06)
(-1.04378e-05 0.000734557 -1.10891e-05)
(8.66763e-08 1.12097e-06 0.000727653)
(-9.42852e-08 -1.1452e-06 -0.000727533)
(0.000622024 -6.03748e-05 -7.01251e-06)
(-9.55376e-06 0.000731671 -1.5195e-05)
(2.88691e-07 1.52747e-06 0.000722318)
(-3.40255e-07 -1.55969e-06 -0.000723443)
(-2.40721e-05 0.000748576 -9.54422e-06)
(1.24209e-06 2.17592e-06 0.000726354)
(-1.64843e-06 -2.70501e-06 -0.000734437)
(0.000625065 -3.96846e-06 -6.01295e-07)
(-9.87532e-08 -3.60718e-10 0.000745987)
(1.01148e-07 3.76498e-10 -0.000745384)
(-4.89127e-06 0.000747643 -1.34706e-07)
(0.000625121 -7.60436e-06 -1.15751e-06)
(-9.64276e-08 -6.73564e-10 0.000742717)
(9.87526e-08 7.14424e-10 -0.000742157)
(-4.65281e-06 0.000744179 -4.00609e-07)
(0.000625161 -1.08433e-05 -1.67482e-06)
(-9.57601e-08 3.92653e-10 0.000739042)
(9.80694e-08 -3.59948e-10 -0.000738519)
(-4.48726e-06 0.000740285 -6.66505e-07)
(0.000625179 -1.37409e-05 -2.18057e-06)
(-9.8942e-08 4.06226e-09 0.000736243)
(1.01335e-07 -4.10292e-09 -0.000735731)
(-4.51612e-06 0.000737305 -9.49393e-07)
(0.000625164 -1.63414e-05 -2.69905e-06)
(-1.05751e-07 1.17943e-08 0.000734158)
(1.08286e-07 -1.19941e-08 -0.000733635)
(-4.7017e-06 0.000735083 -1.26861e-06)
(0.000625097 -1.86798e-05 -3.24943e-06)
(-1.15632e-07 2.55002e-08 0.000732659)
(1.18435e-07 -2.6e-08 -0.000732111)
(-5.01405e-06 0.000733511 -1.64228e-06)
(0.000624953 -2.0784e-05 -3.84848e-06)
(-1.27522e-07 4.78769e-08 0.000731636)
(1.30668e-07 -4.89079e-08 -0.000731052)
(-5.42601e-06 0.000732502 -2.08797e-06)
(0.000624693 -2.26815e-05 -4.5114e-06)
(-1.38986e-07 8.25706e-08 0.000730982)
(1.42421e-07 -8.44227e-08 -0.000730356)
(-5.90813e-06 0.00073199 -2.62435e-06)
(0.000624265 -2.44039e-05 -5.24749e-06)
(-1.45443e-07 1.34081e-07 0.000730591)
(1.49175e-07 -1.37129e-07 -0.00072993)
(-6.42513e-06 0.000731928 -3.27247e-06)
(0.000623596 -2.59904e-05 -6.06343e-06)
(-1.39623e-07 2.07528e-07 0.000730357)
(1.43592e-07 -2.12332e-07 -0.000729679)
(-6.93387e-06 0.000732294 -4.0578e-06)
(0.000622587 -2.74888e-05 -6.96346e-06)
(-1.09933e-07 3.07654e-07 0.000730146)
(1.13788e-07 -3.15023e-07 -0.000729488)
(-7.37995e-06 0.000733071 -5.01571e-06)
(0.000621098 -2.89644e-05 -7.9437e-06)
(-3.65729e-08 4.34708e-07 0.00072974)
(3.94421e-08 -4.45757e-07 -0.000729176)
(-7.68921e-06 0.000734209 -6.20274e-06)
(0.000618934 -3.05435e-05 -8.98063e-06)
(1.05651e-07 5.76902e-07 0.000728711)
(-1.06548e-07 -5.92615e-07 -0.000728399)
(-7.74822e-06 0.000735554 -7.72234e-06)
(0.000615793 -3.2568e-05 -9.95248e-06)
(3.2057e-07 7.05637e-07 0.000726033)
(-3.31432e-07 -7.256e-07 -0.000726376)
(-7.28612e-06 0.000736601 -9.77402e-06)
(0.000611358 -3.67448e-05 -9.9632e-06)
(5.32959e-07 8.00091e-07 0.000718693)
(-5.78788e-07 -8.1385e-07 -0.000721188)
(-5.07262e-06 0.000735862 -1.26892e-05)
(1.85757e-06 9.35325e-07 0.000751402)
(-2.94556e-06 -1.1307e-06 -0.000764992)
(-3.44869e-05 0.000795801 -8.00672e-06)
(0.000626039 -6.68129e-06 -4.37653e-08)
(-1.04003e-06 0.000709806 -2.51458e-08)
(-9.40185e-09 -1.05771e-08 0.000707085)
(0.000627039 -1.28663e-05 -8.45968e-08)
(-1.00032e-06 0.000709308 -7.52796e-08)
(-9.48199e-09 -3.18122e-08 0.000708008)
(0.000628025 -1.85053e-05 -1.22619e-07)
(-9.86536e-07 0.00070876 -1.26486e-07)
(-1.01706e-08 -5.38859e-08 0.000708876)
(0.000629051 -2.37448e-05 -1.59371e-07)
(-1.02692e-06 0.000708359 -1.82276e-07)
(-1.18284e-08 -7.85523e-08 0.000709835)
(0.000630169 -2.87042e-05 -1.96195e-07)
(-1.11893e-06 0.000708077 -2.4689e-07)
(-1.47165e-08 -1.08251e-07 0.000710931)
(0.000631431 -3.34762e-05 -2.33345e-07)
(-1.26378e-06 0.000707886 -3.24622e-07)
(-1.94027e-08 -1.46324e-07 0.000712213)
(0.000632895 -3.8122e-05 -2.70204e-07)
(-1.46589e-06 0.000707756 -4.20182e-07)
(-2.69078e-08 -1.97837e-07 0.000713727)
(0.000634624 -4.26621e-05 -3.05218e-07)
(-1.73323e-06 0.000707644 -5.38728e-07)
(-3.89141e-08 -2.70787e-07 0.000715523)
(0.000636694 -4.70589e-05 -3.35494e-07)
(-2.07658e-06 0.000707489 -6.8548e-07)
(-5.82943e-08 -3.78071e-07 0.000717653)
(0.000639192 -5.11931e-05 -3.57095e-07)
(-2.50878e-06 0.000707207 -8.65171e-07)
(-8.99833e-08 -5.40934e-07 0.000720169)
(0.000642213 -5.48414e-05 -3.67721e-07)
(-3.04412e-06 0.000706684 -1.07976e-06)
(-1.42293e-07 -7.94698e-07 0.000723125)
(0.000645858 -5.76542e-05 -3.72662e-07)
(-3.69138e-06 0.000705774 -1.32107e-06)
(-2.27711e-07 -1.19668e-06 0.000726576)
(0.00065019 -5.92065e-05 -3.98576e-07)
(-4.43677e-06 0.000704351 -1.55048e-06)
(-3.61561e-07 -1.83354e-06 0.000730594)
(0.000655117 -5.92222e-05 -5.09754e-07)
(-5.16213e-06 0.000702454 -1.65201e-06)
(-5.41698e-07 -2.80684e-06 0.000735266)
(0.000659827 -5.80212e-05 -7.73125e-07)
(-5.16401e-06 0.000700507 -1.42168e-06)
(-6.58618e-07 -4.10621e-06 0.00074042)
(-1.29964e-05 0.000697514 -9.20207e-07)
(-1.85678e-06 -6.74098e-06 0.000750605)
(0.000625991 -6.57184e-06 -1.30609e-07)
(-2.03295e-06 0.000716377 -4.93722e-08)
(-2.78693e-08 -1.0197e-08 0.000713728)
(0.000626943 -1.26545e-05 -2.52463e-07)
(-1.95381e-06 0.000715389 -1.47627e-07)
(-2.81371e-08 -3.06877e-08 0.000714101)
(0.000627878 -1.81978e-05 -3.65929e-07)
(-1.92414e-06 0.0007143 -2.4764e-07)
(-3.01388e-08 -5.19358e-08 0.000714367)
(0.000628848 -2.33457e-05 -4.76082e-07)
(-1.99894e-06 0.000713502 -3.56307e-07)
(-3.48938e-08 -7.53933e-08 0.000714864)
(0.000629898 -2.82179e-05 -5.86596e-07)
(-2.17259e-06 0.000712942 -4.81823e-07)
(-4.31194e-08 -1.03039e-07 0.000715608)
(0.000631076 -3.29095e-05 -6.98227e-07)
(-2.44609e-06 0.000712569 -6.32506e-07)
(-5.63699e-08 -1.37478e-07 0.000716613)
(0.000632431 -3.7489e-05 -8.09646e-07)
(-2.82715e-06 0.000712323 -8.17242e-07)
(-7.72433e-08 -1.82304e-07 0.000717889)
(0.000634016 -4.19913e-05 -9.16344e-07)
(-3.32915e-06 0.000712128 -1.04544e-06)
(-1.10039e-07 -2.4258e-07 0.000719436)
(0.000635891 -4.6406e-05 -1.00948e-06)
(-3.96878e-06 0.000711877 -1.32674e-06)
(-1.62195e-07 -3.25928e-07 0.000721235)
(0.000638116 -5.06588e-05 -1.07698e-06)
(-4.76469e-06 0.00071142 -1.66926e-06)
(-2.46158e-07 -4.44046e-07 0.000723243)
(0.000640741 -5.45837e-05 -1.1101e-06)
(-5.72968e-06 0.000710545 -2.074e-06)
(-3.81805e-07 -6.13971e-07 0.000725377)
(0.000643779 -5.78972e-05 -1.11652e-06)
(-6.84981e-06 0.000708982 -2.52015e-06)
(-5.9658e-07 -8.57558e-07 0.00072751)
(0.000647118 -6.01924e-05 -1.15481e-06)
(-8.03433e-06 0.000706469 -2.92662e-06)
(-9.17529e-07 -1.1945e-06 0.000729515)
(0.000650344 -6.10439e-05 -1.37759e-06)
(-8.94298e-06 0.000703009 -3.07096e-06)
(-1.31646e-06 -1.6197e-06 0.000731391)
(0.000652493 -6.03935e-05 -1.95868e-06)
(-8.32607e-06 0.000699398 -2.59909e-06)
(-1.51156e-06 -2.06155e-06 0.00073339)
(-1.225e-05 0.000689691 -6.80447e-07)
(-3.10513e-06 -1.46195e-06 0.000730786)
(0.000625901 -6.36438e-06 -2.1509e-07)
(-2.93659e-06 0.000722741 -7.15079e-08)
(-4.52924e-08 -9.39148e-09 0.000720187)
(0.000626763 -1.22492e-05 -4.15207e-07)
(-2.81893e-06 0.000721272 -2.1357e-07)
(-4.57039e-08 -2.81777e-08 0.000719969)
(0.000627605 -1.76027e-05 -6.018e-07)
(-2.76988e-06 0.000719651 -3.57767e-07)
(-4.87048e-08 -4.73263e-08 0.000719591)
(0.000628471 -2.25674e-05 -7.83805e-07)
(-2.86875e-06 0.000718462 -5.1398e-07)
(-5.58206e-08 -6.77664e-08 0.00071958)
(0.000629399 -2.72631e-05 -9.66638e-07)
(-3.10546e-06 0.000717632 -6.93636e-07)
(-6.8097e-08 -9.07721e-08 0.000719919)
(0.000630425 -3.17882e-05 -1.15224e-06)
(-3.47907e-06 0.000717086 -9.08304e-07)
(-8.75869e-08 -1.17779e-07 0.000720586)
(0.000631586 -3.62235e-05 -1.33933e-06)
(-3.99771e-06 0.000716747 -1.17011e-06)
(-1.17499e-07 -1.50247e-07 0.000721554)
(0.000632917 -4.06304e-05 -1.52093e-06)
(-4.67556e-06 0.000716521 -1.49157e-06)
(-1.63146e-07 -1.89545e-07 0.000722778)
(0.000634454 -4.50456e-05 -1.68308e-06)
(-5.53022e-06 0.000716275 -1.88518e-06)
(-2.33506e-07 -2.36517e-07 0.000724179)
(0.000636224 -4.94708e-05 -1.80583e-06)
(-6.57796e-06 0.000715821 -2.36041e-06)
(-3.42957e-07 -2.90359e-07 0.000725628)
(0.000638232 -5.38436e-05 -1.86843e-06)
(-7.81673e-06 0.000714888 -2.9154e-06)
(-5.1215e-07 -3.45707e-07 0.00072692)
(0.000640423 -5.80195e-05 -1.86366e-06)
(-9.19192e-06 0.000713126 -3.51564e-06)
(-7.65088e-07 -3.86874e-07 0.000727765)
(0.000642603 -6.1713e-05 -1.83728e-06)
(-1.05168e-05 0.000710149 -4.04173e-06)
(-1.11243e-06 -3.78509e-07 0.000727832)
(0.000644326 -6.44613e-05 -1.94963e-06)
(-1.12646e-05 0.000705827 -4.18796e-06)
(-1.48422e-06 -2.61565e-07 0.000726997)
(0.000644949 -6.5815e-05 -2.44236e-06)
(-9.94978e-06 0.000701035 -3.49938e-06)
(-1.5505e-06 -5.68434e-09 0.000725928)
(-1.4047e-05 0.000692182 -8.05526e-07)
(-2.03719e-06 7.06195e-07 0.00072051)
(0.000625773 -6.05441e-06 -2.95021e-07)
(-3.71382e-06 0.000728794 -9.0595e-08)
(-6.09381e-08 -8.16831e-09 0.000726362)
(0.00062651 -1.16417e-05 -5.68443e-07)
(-3.55974e-06 0.000726857 -2.70289e-07)
(-6.12371e-08 -2.42916e-08 0.000725521)
(0.000627224 -1.67134e-05 -8.23828e-07)
(-3.48816e-06 0.00072472 -4.52055e-07)
(-6.46038e-08 -4.01164e-08 0.00072447)
(0.000627948 -2.14067e-05 -1.07339e-06)
(-3.59836e-06 0.000723152 -6.48062e-07)
(-7.29372e-08 -5.60643e-08 0.000723918)
(0.000628711 -2.58358e-05 -1.32464e-06)
(-3.87451e-06 0.000722056 -8.72321e-07)
(-8.73677e-08 -7.26463e-08 0.00072381)
(0.000629536 -3.01007e-05 -1.58189e-06)
(-4.31211e-06 0.000721344 -1.13871e-06)
(-1.0982e-07 -9.00123e-08 0.000724095)
(0.000630442 -3.4293e-05 -1.84412e-06)
(-4.91597e-06 0.000720932 -1.4614e-06)
(-1.4324e-07 -1.07602e-07 0.000724714)
(0.000631446 -3.85026e-05 -2.103e-06)
(-5.69725e-06 0.000720722 -1.85473e-06)
(-1.92341e-07 -1.23521e-07 0.000725588)
(0.000632558 -4.28179e-05 -2.34184e-06)
(-6.66973e-06 0.000720581 -2.33237e-06)
(-2.64391e-07 -1.32995e-07 0.000726599)
(0.000633777 -4.73267e-05 -2.53439e-06)
(-7.84222e-06 0.000720323 -2.90392e-06)
(-3.7018e-07 -1.25632e-07 0.000727566)
(0.000635081 -5.21101e-05 -2.64392e-06)
(-9.19941e-06 0.000719674 -3.565e-06)
(-5.22646e-07 -8.12535e-08 0.000728211)
(0.000636406 -5.72048e-05 -2.63314e-06)
(-1.06577e-05 0.000718249 -4.27148e-06)
(-7.31473e-07 3.56523e-08 0.000728154)
(0.000637597 -6.25118e-05 -2.49623e-06)
(-1.19663e-05 0.000715553 -4.87837e-06)
(-9.86383e-07 2.76575e-07 0.000726926)
(0.000638373 -6.76014e-05 -2.33077e-06)
(-1.25099e-05 0.000711176 -5.02527e-06)
(-1.20495e-06 6.85395e-07 0.000724249)
(0.000638464 -7.14897e-05 -2.42027e-06)
(-1.07626e-05 0.000705489 -4.18566e-06)
(-1.13513e-06 1.20585e-06 0.000720842)
(-1.43662e-05 0.000697977 -1.03538e-06)
(-1.18025e-06 1.93351e-06 0.000714457)
(0.000625617 -5.64772e-06 -3.67694e-07)
(-4.33584e-06 0.000734442 -1.05786e-07)
(-7.39858e-08 -6.40633e-09 0.000732158)
(0.000626202 -1.08524e-05 -7.08498e-07)
(-4.14926e-06 0.000732061 -3.15353e-07)
(-7.38564e-08 -1.88592e-08 0.00073068)
(0.000626762 -1.55655e-05 -1.02678e-06)
(-4.0532e-06 0.000729431 -5.26527e-07)
(-7.68791e-08 -3.04972e-08 0.000728945)
(0.000627319 -1.99098e-05 -1.33757e-06)
(-4.1616e-06 0.000727493 -7.52998e-07)
(-8.52146e-08 -4.12171e-08 0.00072783)
(0.00062789 -2.39893e-05 -1.65168e-06)
(-4.45242e-06 0.000726132 -1.0106e-06)
(-9.97479e-08 -5.07664e-08 0.000727248)
(0.000628484 -2.78998e-05 -1.97586e-06)
(-4.91562e-06 0.000725251 -1.31459e-06)
(-1.2185e-07 -5.82258e-08 0.000727121)
(0.000629106 -3.17371e-05 -2.30967e-06)
(-5.55015e-06 0.000724766 -1.67986e-06)
(-1.53594e-07 -6.1569e-08 0.000727366)
(0.000629751 -3.56056e-05 -2.64549e-06)
(-6.36049e-06 0.000724587 -2.12114e-06)
(-1.9791e-07 -5.67522e-08 0.000727888)
(0.000630407 -3.96289e-05 -2.96669e-06)
(-7.35231e-06 0.000724604 -2.65223e-06)
(-2.58463e-07 -3.59699e-08 0.000728552)
(0.000631051 -4.39658e-05 -3.2437e-06)
(-8.52674e-06 0.000724667 -3.28238e-06)
(-3.39676e-07 1.50379e-08 0.000729166)
(0.000631651 -4.88296e-05 -3.42635e-06)
(-9.86377e-06 0.000724562 -4.00614e-06)
(-4.44181e-07 1.20228e-07 0.00072945)
(0.000632165 -5.4455e-05 -3.44169e-06)
(-1.12782e-05 0.000723936 -4.77676e-06)
(-5.66381e-07 3.16303e-07 0.000729003)
(0.000632542 -6.09841e-05 -3.2105e-06)
(-1.25177e-05 0.000722227 -5.441e-06)
(-6.84925e-07 6.48309e-07 0.000727287)
(0.000632701 -6.81173e-05 -2.71333e-06)
(-1.29536e-05 0.000718627 -5.61206e-06)
(-7.4005e-07 1.13738e-06 0.000723761)
(0.000632562 -7.43264e-05 -2.23117e-06)
(-1.10248e-05 0.000712313 -4.70893e-06)
(-6.11427e-07 1.69614e-06 0.000718492)