/*--------------------------------*- C++ -*----------------------------------*\
| =========                 |                                                 |
| \\      /  F ield         | foam-extend: Open Source CFD                    |
|  \\    /   O peration     | Version:     3.1                                |
|   \\  /    A nd           | Web:         http://www.extend-project.de       |
|    \\/     M anipulation  |                                                 |
\*---------------------------------------------------------------------------*/
FoamFile
{
    version     2.0;
    format      ascii;
    class       volVectorField;
    location    "1.1";
    object      U;
}
// * * * * * * * * * * * * * * * * * * * * * * * * * * * * * * * * * * * * * //

dimensions      [0 1 -1 0 0 0 0];

internalField   nonuniform List<vector> 
14592
(
(0.0192151 -0.000898839 -0.00510635)
(0.0222779 -0.00146426 -0.0103638)
(0.0261879 -0.00127706 -0.0122354)
(0.0299141 -0.000911132 -0.0123479)
(0.0326665 -0.000530641 -0.0117535)
(0.0343954 -0.000225446 -0.0110674)
(0.0352878 -9.14382e-06 -0.0106314)
(0.0355511 0.000134863 -0.0106415)
(0.0353476 0.000230777 -0.0112359)
(0.0347866 0.000280368 -0.0125586)
(0.0339358 0.000262938 -0.014811)
(0.0328321 0.000129338 -0.0183206)
(0.0314782 -0.000215792 -0.0236536)
(0.0296781 -0.000885731 -0.0317065)
(0.0260545 -0.0015824 -0.0428342)
(0.0160222 -0.000839347 -0.0446054)
(0.0526433 -0.00265222 -0.00668259)
(0.0558867 -0.0065235 -0.0177896)
(0.0605244 -0.00702937 -0.0232455)
(0.0656468 -0.00579371 -0.0245584)
(0.0698924 -0.0040077 -0.0237268)
(0.0727575 -0.00234058 -0.0222062)
(0.0743012 -0.00102568 -0.0208737)
(0.0747576 -5.00911e-05 -0.0202235)
(0.0743417 0.000679905 -0.0205591)
(0.0731861 0.00124403 -0.0221412)
(0.071331 0.00168299 -0.0252981)
(0.0686945 0.00198625 -0.0305461)
(0.0649978 0.00208076 -0.0387909)
(0.059484 0.00182528 -0.0515417)
(0.0491292 0.00118441 -0.0693991)
(0.0248835 -6.17667e-05 -0.0681729)
(0.0813189 -0.00321593 -0.00550271)
(0.0821245 -0.00998936 -0.0183193)
(0.0835054 -0.011984 -0.0261905)
(0.0859227 -0.0106083 -0.0289727)
(0.088534 -0.00775878 -0.0285645)
(0.0905028 -0.00475703 -0.0268303)
(0.09154 -0.00221089 -0.0250342)
(0.0916635 -0.000213305 -0.0239058)
(0.0909542 0.0013521 -0.0238663)
(0.0894555 0.0026458 -0.0252348)
(0.0871266 0.00379448 -0.0283806)
(0.0837767 0.00486704 -0.0338736)
(0.0789591 0.00587873 -0.0427328)
(0.0717031 0.00675532 -0.0567651)
(0.0584383 0.00693188 -0.0771189)
(0.0273233 0.00312222 -0.0756165)
(0.105654 -0.00282082 -0.00432253)
(0.104414 -0.0106259 -0.0172275)
(0.102146 -0.0138544 -0.0264626)
(0.100596 -0.0129305 -0.0304013)
(0.100131 -0.00979273 -0.0304709)
(0.10003 -0.00609702 -0.0286921)
(0.0997658 -0.00275055 -0.0266114)
(0.0991058 1.33064e-05 -0.0251446)
(0.0979341 0.00228465 -0.0247989)
(0.0961545 0.00427636 -0.0259171)
(0.0936162 0.00618865 -0.028874)
(0.090034 0.00817751 -0.0342502)
(0.0848592 0.0103603 -0.0431072)
(0.0770226 0.0127458 -0.0574171)
(0.062746 0.0142274 -0.0788751)
(0.0283076 0.00770682 -0.0786475)
(0.12534 -0.00205413 -0.00356473)
(0.122974 -0.00915664 -0.0162258)
(0.118045 -0.0127261 -0.0262571)
(0.112951 -0.012316 -0.0310154)
(0.109313 -0.00946902 -0.031442)
(0.106862 -0.00577738 -0.0295995)
(0.10503 -0.00222859 -0.0272502)
(0.103413 0.000858369 -0.0254668)
(0.101721 0.00354474 -0.0248179)
(0.0997208 0.0060567 -0.0256496)
(0.0971508 0.00864435 -0.028318)
(0.0936427 0.0115444 -0.0333829)
(0.08856 0.0149828 -0.0418994)
(0.0807233 0.0190962 -0.0559227)
(0.0662037 0.0224166 -0.0777067)
(0.0295214 0.0138275 -0.0792215)
(0.140152 -0.00125338 -0.00312512)
(0.137262 -0.00656113 -0.0155657)
(0.130705 -0.0095359 -0.0260852)
(0.123045 -0.00936413 -0.0313962)
(0.11685 -0.007066 -0.0320541)
(0.11238 -0.0038853 -0.0301139)
(0.109158 -0.000650278 -0.0274936)
(0.106704 0.00231511 -0.0253901)
(0.104608 0.00508623 -0.0244154)
(0.102534 0.00788316 -0.0249021)
(0.100144 0.0109856 -0.0271654)
(0.0970149 0.01471 -0.0317106)
(0.0924478 0.0194251 -0.0395264)
(0.0851273 0.0255445 -0.0526573)
(0.0710841 0.0316734 -0.0739942)
(0.0324304 0.0226858 -0.0773678)
(0.150022 -0.000503633 -0.00288179)
(0.146907 -0.00342186 -0.0151797)
(0.139467 -0.00509786 -0.0259747)
(0.130234 -0.004838 -0.0316047)
(0.12236 -0.0031683 -0.0323739)
(0.116533 -0.000819392 -0.0303178)
(0.112374 0.00169007 -0.0274467)
(0.109396 0.004176 -0.025045)
(0.107154 0.0067297 -0.0237383)
(0.105243 0.0095603 -0.0238298)
(0.103305 0.012961 -0.0255724)
(0.100932 0.0173264 -0.0293752)
(0.097459 0.0232263 -0.036074)
(0.0914386 0.0316489 -0.0475109)
(0.0796929 0.042391 -0.0672545)
(0.0395347 0.0376664 -0.0718629)
(0.154945 0.000207368 -0.00276143)
(0.151738 -4.44093e-05 -0.0149862)
(0.143926 -3.00554e-05 -0.0258782)
(0.134002 0.000523942 -0.0316058)
(0.125394 0.00153182 -0.0323657)
(0.118988 0.00284771 -0.0301824)
(0.114493 0.00436918 -0.0271143)
(0.111443 0.00612666 -0.0244639)
(0.109373 0.00822495 -0.022846)
(0.10789 0.0108478 -0.0225199)
(0.106689 0.0142709 -0.0236573)
(0.105484 0.0189215 -0.0265259)
(0.103913 0.0255469 -0.0316992)
(0.100562 0.0357278 -0.0404234)
(0.0962463 0.053567 -0.0566929)
(0.0568734 0.0614996 -0.0595356)
(0.0204914 -0.001015 -0.00480354)
(0.0235498 -0.0016509 -0.00976001)
(0.0274165 -0.00144553 -0.0116042)
(0.0310471 -0.00103886 -0.0118048)
(0.0336091 -0.000612557 -0.0113183)
(0.0350429 -0.000268895 -0.0107199)
(0.0355463 -2.57692e-05 -0.0103393)
(0.035334 0.000135502 -0.0103689)
(0.0345567 0.000242508 -0.0109408)
(0.0332872 0.000299761 -0.0121839)
(0.031521 0.000286198 -0.0142605)
(0.0291706 0.000153664 -0.0174024)
(0.0260443 -0.000187959 -0.0219253)
(0.0215598 -0.000814676 -0.0280317)
(0.0142386 -0.00165544 -0.0343924)
(0.00504458 -0.00281424 -0.0305258)
(0.0562734 -0.00280765 -0.00608023)
(0.0593609 -0.00705512 -0.0164016)
(0.0637255 -0.00770638 -0.0216871)
(0.068496 -0.00642175 -0.0231523)
(0.0722887 -0.00448296 -0.0225635)
(0.074567 -0.00264079 -0.0212629)
(0.0753861 -0.00117461 -0.0200879)
(0.0749824 -8.12671e-05 -0.0195233)
(0.0735513 0.000741613 -0.0198663)
(0.0711664 0.00138699 -0.0213573)
(0.0677542 0.00190648 -0.0242685)
(0.0630372 0.00229947 -0.0289727)
(0.0564598 0.0024982 -0.0359786)
(0.0466787 0.00238709 -0.0455707)
(0.0304551 0.0016882 -0.0551289)
(0.0100166 -0.00138512 -0.046582)
(0.0870459 -0.00331093 -0.00486462)
(0.0876084 -0.0106454 -0.0165892)
(0.0884703 -0.013012 -0.0241329)
(0.0901889 -0.0116824 -0.0270725)
(0.0920278 -0.00864216 -0.0269849)
(0.0931509 -0.0053507 -0.0255568)
(0.0932519 -0.00251843 -0.0239878)
(0.0923318 -0.000276665 -0.0229938)
(0.0904345 0.00149447 -0.0229923)
(0.0875286 0.00297858 -0.0242835)
(0.0834397 0.0043284 -0.0271776)
(0.077751 0.005638 -0.0320888)
(0.0697039 0.00693507 -0.0395982)
(0.0576444 0.00811779 -0.0500925)
(0.0373466 0.00833503 -0.0607088)
(0.0113693 0.00300551 -0.0512603)
(0.113148 -0.00284861 -0.00373288)
(0.111697 -0.0111978 -0.0153623)
(0.108798 -0.0149239 -0.0241315)
(0.106246 -0.0141622 -0.0282157)
(0.104658 -0.0108721 -0.028663)
(0.103418 -0.00684972 -0.0272565)
(0.102002 -0.0031378 -0.0254535)
(0.10015 -3.57878e-05 -0.0241548)
(0.0976913 0.00254081 -0.0238683)
(0.094437 0.00483371 -0.0249219)
(0.0900847 0.00708397 -0.0276323)
(0.0841009 0.00949445 -0.0324209)
(0.0755957 0.0122222 -0.0399021)
(0.0627724 0.0152276 -0.0505649)
(0.040745 0.0170257 -0.0616664)
(0.0117921 0.00935816 -0.0527424)
(0.134234 -0.00204825 -0.0030297)
(0.13173 -0.00957346 -0.0142968)
(0.126177 -0.0136277 -0.023746)
(0.119897 -0.0134347 -0.028633)
(0.114841 -0.0104921 -0.0294854)
(0.110968 -0.00649729 -0.0280737)
(0.107769 -0.00256875 -0.0260454)
(0.104822 0.000897288 -0.0244574)
(0.10177 0.00395305 -0.0238852)
(0.0982739 0.00685686 -0.0246656)
(0.0939056 0.00991392 -0.0271006)
(0.0880347 0.0134341 -0.0315944)
(0.0796616 0.0177281 -0.0387645)
(0.0668841 0.0229025 -0.0491947)
(0.044165 0.0269951 -0.0604192)
(0.0128216 0.0175666 -0.052376)
(0.150082 -0.00123811 -0.00263139)
(0.147113 -0.00682484 -0.0135983)
(0.139987 -0.010175 -0.023444)
(0.13106 -0.0101958 -0.028866)
(0.123243 -0.00783629 -0.0299882)
(0.11713 -0.00440296 -0.0285292)
(0.112365 -0.000822596 -0.0262677)
(0.108472 0.00251418 -0.0243843)
(0.104976 0.00567807 -0.0235034)
(0.101426 0.00892757 -0.0239558)
(0.0973141 0.0126119 -0.0260101)
(0.0919579 0.0171509 -0.030027)
(0.084286 0.023062 -0.0365858)
(0.0723383 0.0308076 -0.0463483)
(0.0499125 0.0384347 -0.0572712)
(0.0159571 0.0292228 -0.0501176)
(0.160638 -0.000488562 -0.00241403)
(0.157477 -0.00354981 -0.0131879)
(0.149523 -0.00543919 -0.0232474)
(0.138996 -0.00528612 -0.0289752)
(0.129385 -0.00355885 -0.0302359)
(0.121776 -0.00101379 -0.0286987)
(0.115966 0.0017718 -0.0262168)
(0.11149 0.00458077 -0.0240548)
(0.107852 0.00751253 -0.0228589)
(0.104534 0.0108215 -0.0229376)
(0.101022 0.0148832 -0.0245079)
(0.0966708 0.0202274 -0.0278557)
(0.0904671 0.0276542 -0.0334596)
(0.080543 0.0383978 -0.0419874)
(0.0609153 0.051745 -0.0519923)
(0.0240343 0.0484015 -0.0452563)
(0.165901 0.000219301 -0.00230565)
(0.162664 -4.86108e-05 -0.012982)
(0.154367 -6.2602e-05 -0.0231111)
(0.143147 0.000503382 -0.028933)
(0.132759 0.0015838 -0.0302)
(0.124518 0.00303393 -0.0285557)
(0.118337 0.0047422 -0.0258941)
(0.113797 0.00674609 -0.023498)
(0.110388 0.00917528 -0.0220067)
(0.107618 0.0122633 -0.0216923)
(0.105057 0.0163738 -0.0227045)
(0.102246 0.0220897 -0.0252207)
(0.0985587 0.0304502 -0.0295415)
(0.0924982 0.0436306 -0.0361459)
(0.0829747 0.0658057 -0.0445548)
(0.0424206 0.076235 -0.0363732)
(0.0215788 -0.00111913 -0.00434442)
(0.0246355 -0.00182302 -0.0088294)
(0.0284734 -0.00160709 -0.0105559)
(0.0320331 -0.0011667 -0.0108084)
(0.0344379 -0.000699339 -0.0104244)
(0.0356145 -0.000319786 -0.00991895)
(0.0357703 -5.10139e-05 -0.00959336)
(0.0351302 0.000127229 -0.00962411)
(0.0338422 0.000245355 -0.0101263)
(0.0319614 0.000312511 -0.0112002)
(0.029452 0.000310311 -0.0129523)
(0.0261885 0.000198246 -0.0155055)
(0.0219576 -9.65139e-05 -0.0189635)
(0.016262 -0.000637103 -0.0231763)
(0.00846322 -0.00156407 -0.0265142)
(0.000843735 -0.00315749 -0.0209855)
(0.0593818 -0.00293815 -0.00534902)
(0.0623459 -0.00752018 -0.0145741)
(0.0664962 -0.00831667 -0.0194548)
(0.0709854 -0.00700285 -0.0209479)
(0.0744014 -0.00493412 -0.0205621)
(0.0761725 -0.00293474 -0.0194849)
(0.0763493 -0.00132893 -0.0184779)
(0.0751747 -0.000125102 -0.0179887)
(0.0728373 0.000785684 -0.018286)
(0.0693817 0.00150952 -0.0195671)
(0.0646824 0.00211069 -0.0220213)
(0.0584025 0.00260275 -0.0258553)
(0.0499652 0.00293379 -0.0312407)
(0.038157 0.00298116 -0.0378784)
(0.0212848 0.00214912 -0.0427084)
(0.00371641 -0.00148507 -0.0319182)
(0.0919534 -0.00338502 -0.00417955)
(0.0923308 -0.0112029 -0.0145168)
(0.0927842 -0.0139177 -0.0214176)
(0.0939325 -0.0126549 -0.0243066)
(0.09512 -0.00946124 -0.0244505)
(0.0955099 -0.00591451 -0.023315)
(0.0947817 -0.00282104 -0.0219853)
(0.092927 -0.000352177 -0.0211243)
(0.0899691 0.00161205 -0.0211162)
(0.085835 0.00327501 -0.0222153)
(0.0802868 0.00481325 -0.0246428)
(0.0728342 0.0063427 -0.0286318)
(0.0626875 0.00789943 -0.0343876)
(0.0482685 0.0093296 -0.0416142)
(0.0271047 0.00938407 -0.0468877)
(0.00438315 0.00334616 -0.0346379)
(0.119566 -0.00286634 -0.00314809)
(0.117967 -0.0116708 -0.0132682)
(0.114586 -0.0158482 -0.0212237)
(0.111222 -0.0152596 -0.0251825)
(0.108684 -0.0118578 -0.0258729)
(0.106452 -0.00755276 -0.0248066)
(0.104013 -0.00351014 -0.0232929)
(0.101093 -9.51787e-05 -0.0221683)
(0.0974836 0.00276617 -0.021906)
(0.0929414 0.00533845 -0.0227893)
(0.0870856 0.00789615 -0.0250452)
(0.0792948 0.0106757 -0.0289099)
(0.0686338 0.0138477 -0.0346061)
(0.0533153 0.017291 -0.0418855)
(0.0301831 0.0190418 -0.0473525)
(0.00451892 0.0105851 -0.0351523)
(0.141848 -0.00204023 -0.00252498)
(0.139259 -0.00990975 -0.0122235)
(0.13325 -0.0143942 -0.0207341)
(0.126024 -0.014418 -0.0254347)
(0.119775 -0.0114152 -0.0265415)
(0.114663 -0.00716168 -0.0255135)
(0.110249 -0.00289177 -0.0238193)
(0.106106 0.000924062 -0.0224419)
(0.101836 0.00432279 -0.0219225)
(0.0970303 0.00758691 -0.0225581)
(0.0911712 0.0110644 -0.0245647)
(0.0835278 0.0151152 -0.0281636)
(0.0730447 0.0200841 -0.0335798)
(0.0577739 0.0259943 -0.040628)
(0.0337271 0.0303288 -0.0461096)
(0.00556077 0.0201052 -0.0344389)
(0.15858 -0.00122368 -0.00217947)
(0.155573 -0.00703156 -0.0115429)
(0.14805 -0.0107094 -0.0203597)
(0.13813 -0.0109173 -0.0255484)
(0.128961 -0.00852301 -0.0269362)
(0.121419 -0.00487503 -0.0259005)
(0.115282 -0.000983808 -0.0240147)
(0.110092 0.00269431 -0.0223765)
(0.105338 0.00622128 -0.0215796)
(0.100491 0.00988398 -0.0219207)
(0.0949508 0.0140842 -0.0235913)
(0.0879275 0.0193112 -0.02678)
(0.0782938 0.0261543 -0.0316919)
(0.0640201 0.0350268 -0.0382133)
(0.0400807 0.0433933 -0.0434772)
(0.00906787 0.0335748 -0.032472)
(0.169719 -0.000473984 -0.0019933)
(0.166547 -0.00364398 -0.0111428)
(0.158249 -0.00571671 -0.0201157)
(0.146724 -0.00566661 -0.0255804)
(0.135673 -0.00389957 -0.0271168)
(0.126522 -0.001185 -0.0260347)
(0.119241 0.00185024 -0.0239627)
(0.113415 0.00495626 -0.0220777)
(0.108518 0.00823633 -0.0209983)
(0.10396 0.0119792 -0.0210075)
(0.0991349 0.0166221 -0.0222592)
(0.0933038 0.0227848 -0.0248899)
(0.0854098 0.0313882 -0.0290498)
(0.073583 0.0437063 -0.034682)
(0.0524365 0.0584596 -0.0394244)
(0.01808 0.0551765 -0.0289441)
(0.175273 0.000232696 -0.0018997)
(0.172035 -4.11605e-05 -0.0109416)
(0.163423 -7.70209e-05 -0.0199598)
(0.151212 0.000498525 -0.025509)
(0.139355 0.00164195 -0.0270617)
(0.129529 0.0032132 -0.0258928)
(0.121848 0.00509261 -0.023665)
(0.115964 0.00732474 -0.0215708)
(0.111344 0.0100582 -0.0202272)
(0.107434 0.0135661 -0.0198909)
(0.103729 0.0182779 -0.0206667)
(0.0997063 0.024879 -0.0226198)
(0.094729 0.0345674 -0.0258038)
(0.0874484 0.049737 -0.0301474)
(0.0772191 0.0741868 -0.034222)
(0.037385 0.0844492 -0.023218)
(0.0224801 -0.00120879 -0.00374881)
(0.0255356 -0.00197421 -0.00761726)
(0.0293539 -0.00175318 -0.00914553)
(0.032862 -0.00128604 -0.00941253)
(0.0351409 -0.000783666 -0.00912082)
(0.036103 -0.000372371 -0.00870909)
(0.0359637 -8.03927e-05 -0.008438)
(0.0349608 0.000113615 -0.00845937)
(0.0332473 0.000242527 -0.00886622)
(0.0308765 0.000320826 -0.00972905)
(0.0278101 0.000333814 -0.0111066)
(0.023931 0.000249068 -0.0130442)
(0.0190717 7.87602e-06 -0.0155299)
(0.0129164 -0.000453108 -0.0183019)
(0.00543935 -0.00138596 -0.0199537)
(-0.000979545 -0.00307239 -0.0148523)
(0.0619696 -0.0030444 -0.00451351)
(0.0648357 -0.00791205 -0.0123894)
(0.0688185 -0.00884376 -0.0166624)
(0.0730867 -0.00751566 -0.0180647)
(0.0761984 -0.00534066 -0.0178343)
(0.0775478 -0.00320612 -0.016974)
(0.0771814 -0.00147732 -0.0161407)
(0.0753518 -0.000174782 -0.0157233)
(0.0722534 0.00081515 -0.0159489)
(0.0679264 0.00161072 -0.0169666)
(0.062238 0.00228851 -0.0188918)
(0.0548666 0.00287557 -0.0218097)
(0.0453189 0.00333306 -0.0257048)
(0.0326893 0.00351826 -0.0300936)
(0.0163746 0.00264797 -0.0323331)
(0.000912383 -0.00122148 -0.0226567)
(0.0960414 -0.00344123 -0.00346062)
(0.0962777 -0.0116609 -0.0121854)
(0.0964128 -0.0146853 -0.0181794)
(0.097105 -0.0134984 -0.0208255)
(0.0977591 -0.0101859 -0.0211049)
(0.0975363 -0.00642336 -0.0202352)
(0.0961057 -0.00310197 -0.0191478)
(0.0934562 -0.000431658 -0.018422)
(0.0896054 0.0017045 -0.0183882)
(0.0844674 0.00352652 -0.0192467)
(0.0777907 0.00523124 -0.0211379)
(0.0690965 0.00695228 -0.0241624)
(0.0576812 0.00872994 -0.0283138)
(0.042275 0.0103571 -0.0330694)
(0.0216634 0.0103329 -0.0354243)
(0.001306 0.00387237 -0.0243811)
(0.124911 -0.00287683 -0.00256956)
(0.123207 -0.0120502 -0.0110178)
(0.119461 -0.0166187 -0.0178784)
(0.115451 -0.0161987 -0.0214669)
(0.112135 -0.0127193 -0.0222606)
(0.10907 -0.0081791 -0.0214863)
(0.105762 -0.00385017 -0.020261)
(0.101929 -0.000159606 -0.0193169)
(0.0973488 0.002954 -0.0190673)
(0.0917521 0.00577142 -0.0197393)
(0.0847335 0.00859326 -0.021479)
(0.0756731 0.0116793 -0.024387)
(0.0637133 0.0152008 -0.028464)
(0.0473361 0.0189565 -0.0332076)
(0.0246646 0.0206668 -0.0355975)
(0.00136736 0.0116438 -0.0244763)
(0.148185 -0.0020316 -0.00204368)
(0.145543 -0.0101733 -0.0100665)
(0.139203 -0.0150239 -0.0173602)
(0.131239 -0.0152497 -0.0215948)
(0.124016 -0.0122138 -0.0227811)
(0.117864 -0.007748 -0.022071)
(0.112412 -0.00318402 -0.0207078)
(0.107246 0.00093848 -0.0195532)
(0.101944 0.00463912 -0.0190837)
(0.0960638 0.00821609 -0.019543)
(0.0890515 0.0120485 -0.0210691)
(0.0801675 0.0165279 -0.0237506)
(0.0684235 0.0220075 -0.0275892)
(0.0520898 0.0284199 -0.0321278)
(0.0283865 0.0328723 -0.034485)
(0.00249029 0.022005 -0.0237254)
(0.16565 -0.00121087 -0.00175736)
(0.162627 -0.00718903 -0.00945076)
(0.15483 -0.0111418 -0.0169695)
(0.144147 -0.0115204 -0.0216239)
(0.133881 -0.00911108 -0.0230769)
(0.125144 -0.00528779 -0.0223854)
(0.117835 -0.00112957 -0.0208717)
(0.111532 0.00284761 -0.0194985)
(0.105707 0.00669214 -0.0187925)
(0.0997928 0.0107101 -0.0190019)
(0.0931444 0.0153396 -0.0202477)
(0.0849576 0.0211129 -0.0225954)
(0.0741661 0.0286455 -0.026038)
(0.058908 0.0382726 -0.0301826)
(0.0351871 0.0470501 -0.0324039)
(0.00628001 0.0366208 -0.0221614)
(0.177275 -0.000460794 -0.00160474)
(0.174105 -0.00371087 -0.009089)
(0.165579 -0.00593519 -0.0167151)
(0.153299 -0.00597842 -0.0216043)
(0.141087 -0.00418571 -0.0232006)
(0.130647 -0.00133026 -0.0224868)
(0.122113 0.00191964 -0.0208236)
(0.115125 0.00528529 -0.0192425)
(0.109153 0.0088684 -0.0182968)
(0.103568 0.0129811 -0.0182283)
(0.0977196 0.018102 -0.0191323)
(0.090855 0.0249049 -0.0210409)
(0.0819804 0.0343632 -0.0239209)
(0.06938 0.0477127 -0.0274525)
(0.0483696 0.0632506 -0.0294199)
(0.0158802 0.0596926 -0.0196756)
(0.18307 0.000246051 -0.0015274)
(0.179841 -2.67749e-05 -0.00890681)
(0.171028 -7.85832e-05 -0.0165589)
(0.158073 0.00050458 -0.0215193)
(0.145038 0.00170072 -0.0231365)
(0.13389 0.00337652 -0.0223552)
(0.12493 0.00540522 -0.0205635)
(0.117887 0.00783684 -0.0188056)
(0.112229 0.0108335 -0.0176374)
(0.107367 0.0146963 -0.0172832)
(0.102762 0.0198982 -0.017806)
(0.0978858 0.0271844 -0.0191944)
(0.0921735 0.037826 -0.0213697)
(0.0844528 0.0542734 -0.0240624)
(0.0746917 0.0799918 -0.0258369)
(0.0356339 0.0896229 -0.01585)
(0.023198 -0.00128232 -0.0030389)
(0.0262521 -0.00209997 -0.00617206)
(0.0300567 -0.00187713 -0.0074341)
(0.0335281 -0.00138961 -0.00768141)
(0.0357107 -0.000858878 -0.00746999)
(0.0365027 -0.000421087 -0.00715113)
(0.0361268 -0.000109344 -0.00693555)
(0.034834 9.83983e-05 -0.00694499)
(0.032787 0.000237138 -0.00724957)
(0.030047 0.000326342 -0.00789493)
(0.026587 0.000354738 -0.00890741)
(0.0223162 0.000296353 -0.0102895)
(0.017125 0.000101787 -0.0119838)
(0.0108488 -0.000296094 -0.0137354)
(0.0037888 -0.00120955 -0.0144877)
(-0.00183803 -0.00294069 -0.0104244)
(0.0640383 -0.00312759 -0.00359565)
(0.066828 -0.00822752 -0.00992282)
(0.0706828 -0.00927628 -0.0134209)
(0.0747822 -0.00794361 -0.0146277)
(0.0776576 -0.00568551 -0.0145056)
(0.0786728 -0.00344058 -0.0138515)
(0.0778706 -0.00160928 -0.0131962)
(0.0755158 -0.000223542 -0.0128549)
(0.0718153 0.000833619 -0.0130065)
(0.0668198 0.0016906 -0.0137564)
(0.0604131 0.00243445 -0.0151665)
(0.0523182 0.00310302 -0.0172523)
(0.042146 0.00366605 -0.0199222)
(0.0292558 0.00396181 -0.0227088)
(0.0136225 0.00309968 -0.0236111)
(-0.00044896 -0.000918213 -0.0159796)
(0.0993109 -0.00348257 -0.00271707)
(0.0994411 -0.0120219 -0.0096622)
(0.0993345 -0.0153055 -0.0145378)
(0.0996737 -0.0141928 -0.0167753)
(0.0999082 -0.0107923 -0.0170992)
(0.0991968 -0.00685589 -0.0164639)
(0.0972011 -0.00334609 -0.0156188)
(0.0939125 -0.000507174 -0.0150356)
(0.0893526 0.00177346 -0.0149797)
(0.0834404 0.00372857 -0.0155985)
(0.0759378 0.00557125 -0.0169732)
(0.0664115 0.00744836 -0.0191267)
(0.0542704 0.00940186 -0.0219647)
(0.0385253 0.0111833 -0.0249709)
(0.0186351 0.0111418 -0.0258495)
(-0.00016606 0.00439537 -0.0171235)
(0.129184 -0.00288259 -0.00199621)
(0.127405 -0.0123431 -0.00866269)
(0.12339 -0.0172331 -0.0142105)
(0.118885 -0.0169635 -0.0172211)
(0.114954 -0.0134331 -0.0179882)
(0.111222 -0.00870638 -0.0174534)
(0.107211 -0.00414236 -0.0165103)
(0.102642 -0.000222145 -0.0157568)
(0.0972885 0.00310188 -0.0155284)
(0.0908765 0.00612187 -0.0159963)
(0.0830056 0.00915766 -0.0172465)
(0.0730949 0.0124845 -0.0193009)
(0.0603928 0.0162701 -0.0220669)
(0.0436405 0.0202516 -0.0250362)
(0.0216478 0.0219577 -0.0258876)
(-0.000104719 0.0125255 -0.0170694)
(0.153249 -0.00202358 -0.0015786)
(0.150574 -0.0103728 -0.00786395)
(0.143998 -0.0155198 -0.0137318)
(0.135475 -0.0159207 -0.0172671)
(0.127487 -0.0128701 -0.0183727)
(0.120503 -0.00823797 -0.0179099)
(0.114211 -0.00343376 -0.0168671)
(0.108214 0.000943073 -0.0159483)
(0.102088 0.00489407 -0.0155439)
(0.0953737 0.00872691 -0.0158408)
(0.0875154 0.012842 -0.0169199)
(0.0778026 0.0176502 -0.0187942)
(0.0653437 0.0235017 -0.0213718)
(0.0486309 0.0302574 -0.0241774)
(0.0255357 0.0347934 -0.0249862)
(0.0011054 0.0234382 -0.0164287)
(0.171301 -0.00120022 -0.00135451)
(0.168269 -0.00730503 -0.00734968)
(0.160286 -0.0114778 -0.0133741)
(0.149035 -0.0120022 -0.0172466)
(0.137913 -0.0095903 -0.0185826)
(0.12822 -0.00563031 -0.0181512)
(0.11996 -0.00125452 -0.0169969)
(0.112753 0.00296979 -0.0159059)
(0.106068 0.00707614 -0.0153125)
(0.0993214 0.0113818 -0.0154109)
(0.0918581 0.0163485 -0.0162708)
(0.0828952 0.022533 -0.0178899)
(0.0714544 0.0305556 -0.0201735)
(0.0558538 0.0406822 -0.0226994)
(0.0326575 0.0497145 -0.0234276)
(0.00509978 0.0387895 -0.0152634)
(0.183312 -0.000449638 -0.00123608)
(0.180147 -0.00375663 -0.00704794)
(0.171473 -0.00610067 -0.0131416)
(0.158636 -0.00622307 -0.0172007)
(0.145526 -0.00441509 -0.0186616)
(0.134058 -0.00144807 -0.0182232)
(0.124506 0.00197677 -0.0169559)
(0.116572 0.00555638 -0.0157007)
(0.109733 0.00938761 -0.014917)
(0.103342 0.0137968 -0.0147974)
(0.0967365 0.0192885 -0.0153954)
(0.0891811 0.0265662 -0.0166885)
(0.0797649 0.0366208 -0.0185715)
(0.0669258 0.0506369 -0.0206905)
(0.0463697 0.0666423 -0.0213052)
(0.0150854 0.0628093 -0.0135422)
(0.1893 0.000258123 -0.00117565)
(0.18608 -9.80713e-06 -0.00689573)
(0.177142 -7.25871e-05 -0.0130021)
(0.163643 0.000516531 -0.017117)
(0.149699 0.00175471 -0.0185991)
(0.137497 0.00351598 -0.0181123)
(0.127499 0.00566753 -0.0167441)
(0.11951 0.00826325 -0.0153487)
(0.113011 0.0114738 -0.0143896)
(0.107397 0.0156185 -0.0140488)
(0.102119 0.0211969 -0.0143597)
(0.0966674 0.0289859 -0.0152751)
(0.0905576 0.0402843 -0.0166716)
(0.0827574 0.0575443 -0.0182567)
(0.0736539 0.0840176 -0.0188733)
(0.0350955 0.0931012 -0.0109421)
(0.0237342 -0.00133916 -0.00223721)
(0.0267868 -0.00219878 -0.00454076)
(0.030582 -0.00197605 -0.00548278)
(0.034029 -0.0014738 -0.00568224)
(0.0361424 -0.000921495 -0.00554033)
(0.0368086 -0.000462997 -0.00531337)
(0.0362563 -0.000135517 -0.00515596)
(0.0347484 8.33712e-05 -0.0051566)
(0.0324584 0.000230318 -0.00536368)
(0.0294582 0.000328909 -0.00580443)
(0.0257363 0.000370475 -0.00648721)
(0.0212287 0.000333552 -0.00739795)
(0.0158735 0.000174294 -0.00847569)
(0.00960444 -0.00017848 -0.0095244)
(0.00287908 -0.00107172 -0.00983063)
(-0.00225924 -0.00283413 -0.00693803)
(0.0655879 -0.00318916 -0.00261448)
(0.0683215 -0.00846656 -0.00724025)
(0.0720835 -0.00960836 -0.00983268)
(0.0760612 -0.00827633 -0.010759)
(0.0787643 -0.00595727 -0.010704)
(0.079532 -0.00362828 -0.0102454)
(0.0784044 -0.0017176 -0.00977241)
(0.0756579 -0.000266847 -0.00951669)
(0.071514 0.000843132 -0.0096064)
(0.0660397 0.00174848 -0.0101102)
(0.0591421 0.00254421 -0.0110571)
(0.0505907 0.00327592 -0.0124332)
(0.0400839 0.00391844 -0.0141388)
(0.0271585 0.00429564 -0.0158134)
(0.0120713 0.00345287 -0.016094)
(-0.00113596 -0.000668857 -0.0106741)
(0.101761 -0.00351137 -0.00195401)
(0.101815 -0.0122896 -0.00699808)
(0.101534 -0.015774 -0.0105931)
(0.101616 -0.0147248 -0.0122892)
(0.101541 -0.0112629 -0.0125808)
(0.100466 -0.00719603 -0.0121508)
(0.0980466 -0.00354161 -0.0115473)
(0.09428 -0.000571949 -0.0111181)
(0.089196 0.00182092 -0.0110563)
(0.082726 0.00387893 -0.0114624)
(0.0746545 0.00582714 -0.0123786)
(0.0645972 0.00782172 -0.0137941)
(0.0520583 0.00990509 -0.0156028)
(0.0362414 0.0118004 -0.0174025)
(0.0169382 0.0117664 -0.0176204)
(-0.000898752 0.00482178 -0.0114177)
(0.132386 -0.00288532 -0.00142399)
(0.130555 -0.0125568 -0.00623542)
(0.126349 -0.017692 -0.0103076)
(0.121485 -0.017544 -0.0125761)
(0.117101 -0.0139823 -0.0132082)
(0.11287 -0.00911739 -0.0128653)
(0.108331 -0.00437401 -0.0121976)
(0.103209 -0.000276539 -0.0116467)
(0.0972815 0.00320992 -0.0114595)
(0.0902804 0.00638492 -0.0117549)
(0.0818212 0.00958162 -0.0125789)
(0.0713673 0.0130853 -0.0139194)
(0.0582583 0.0170595 -0.0156704)
(0.0414151 0.0212001 -0.0174321)
(0.0199859 0.0229197 -0.0176108)
(-0.00081867 0.013199 -0.0113348)
(0.157043 -0.00201689 -0.0011211)
(0.154345 -0.0105158 -0.00563415)
(0.147609 -0.0158865 -0.00992451)
(0.138685 -0.0164259 -0.012578)
(0.130135 -0.0133716 -0.0134698)
(0.122527 -0.00861739 -0.0131914)
(0.115602 -0.00363091 -0.0124572)
(0.10898 0.000941307 -0.0117878)
(0.102239 0.00508454 -0.0114726)
(0.0949206 0.00911146 -0.0116431)
(0.0864772 0.0134362 -0.0123428)
(0.0762359 0.018481 -0.0135535)
(0.0633879 0.0245906 -0.0151696)
(0.0465805 0.031577 -0.0168142)
(0.0240034 0.036177 -0.0169579)
(0.000461385 0.0244721 -0.0108621)
(0.175533 -0.00119196 -0.00096027)
(0.172496 -0.00738629 -0.0052485)
(0.164391 -0.0117235 -0.00964003)
(0.152737 -0.012362 -0.0125386)
(0.140989 -0.00995399 -0.0136073)
(0.130582 -0.00589353 -0.0133611)
(0.121605 -0.00135344 -0.0125511)
(0.113714 0.00305992 -0.011758)
(0.106387 0.00736615 -0.0113056)
(0.099034 0.0118881 -0.0113326)
(0.0910053 0.0171019 -0.0118758)
(0.0815476 0.0235775 -0.0129076)
(0.0697572 0.0319327 -0.0143223)
(0.054079 0.0423842 -0.0157816)
(0.0313463 0.0515819 -0.0158796)
(0.00459657 0.040294 -0.0100605)
(0.187834 -0.000440886 -0.000875787)
(0.184671 -0.00378648 -0.00502249)
(0.175905 -0.00621907 -0.00945547)
(0.162679 -0.00640314 -0.0124884)
(0.148913 -0.00458698 -0.0136535)
(0.136678 -0.00153843 -0.013408)
(0.126359 0.00201971 -0.0125197)
(0.117707 0.00576283 -0.0116087)
(0.110218 0.00978229 -0.011019)
(0.103237 0.0144123 -0.0108902)
(0.0961036 0.0201726 -0.0112497)
(0.0881065 0.027782 -0.0120582)
(0.0784036 0.0382342 -0.0132069)
(0.0655397 0.0526744 -0.0144089)
(0.0454002 0.06897 -0.0144577)
(0.0148363 0.0649283 -0.00892277)
(0.193966 0.000267991 -0.000832438)
(0.190751 6.1451e-06 -0.00490832)
(0.181737 -6.37017e-05 -0.0093462)
(0.167861 0.000529873 -0.0124188)
(0.153255 0.00179936 -0.0136016)
(0.140269 0.00362447 -0.0133248)
(0.129488 0.00587038 -0.0123639)
(0.120782 0.00859127 -0.0113517)
(0.113648 0.0119629 -0.0106361)
(0.10748 0.0163157 -0.0103509)
(0.101728 0.0221642 -0.0105121)
(0.0959054 0.0303009 -0.011067)
(0.0895917 0.0420319 -0.0119007)
(0.0818446 0.0597991 -0.0127762)
(0.0733029 0.0867352 -0.0128739)
(0.0350073 0.0954258 -0.00721245)
(0.0240911 -0.00138015 -0.00136067)
(0.0271425 -0.00227353 -0.00275461)
(0.0309301 -0.00205179 -0.00333264)
(0.0343625 -0.00153982 -0.00346259)
(0.036432 -0.000972403 -0.00338264)
(0.0370158 -0.000498741 -0.00324838)
(0.0363469 -0.000159388 -0.00315367)
(0.0346976 6.80683e-05 -0.0031517)
(0.0322498 0.000221427 -0.00327058)
(0.0290851 0.000327261 -0.00352436)
(0.0252048 0.000378465 -0.00391403)
(0.0205649 0.000356331 -0.00442555)
(0.0151348 0.00022009 -0.00501622)
(0.00890258 -0.000104288 -0.00556779)
(0.00239731 -0.00098335 -0.00567487)
(-0.00246261 -0.00276082 -0.0039604)
(0.0666187 -0.00322952 -0.00158028)
(0.0693164 -0.00863123 -0.00437979)
(0.073017 -0.00983777 -0.00596094)
(0.0769158 -0.0085081 -0.00653995)
(0.0795076 -0.00614933 -0.0065205)
(0.0801128 -0.00376345 -0.00625018)
(0.0787698 -0.00179807 -0.00596558)
(0.0757644 -0.000302181 -0.00580745)
(0.0713303 0.000844614 -0.005852)
(0.0655489 0.00178363 -0.00613742)
(0.0583477 0.00261512 -0.00667526)
(0.0495314 0.00338953 -0.00744798)
(0.0388564 0.0040845 -0.00838502)
(0.0259616 0.00451476 -0.00926782)
(0.0112397 0.00368764 -0.00931819)
(-0.00146855 -0.000498647 -0.00610491)
(0.103389 -0.00352724 -0.00116877)
(0.103393 -0.0124663 -0.00421232)
(0.103002 -0.0160872 -0.00639689)
(0.102915 -0.0150839 -0.00744713)
(0.102637 -0.0115846 -0.00764687)
(0.101322 -0.00743173 -0.00740093)
(0.0986227 -0.00367957 -0.00704103)
(0.0945395 -0.00062066 -0.00677947)
(0.0891115 0.00184892 -0.0067325)
(0.0822821 0.00397694 -0.00695794)
(0.0738562 0.00599629 -0.00747503)
(0.0634873 0.00806899 -0.00826741)
(0.0507437 0.0102374 -0.00925894)
(0.0349405 0.0122077 -0.0102044)
(0.0160324 0.0121844 -0.0102046)
(-0.00124905 0.00511289 -0.00652338)
(0.134513 -0.00288473 -0.000843537)
(0.132646 -0.0126958 -0.00373813)
(0.128324 -0.0179959 -0.00620525)
(0.123226 -0.0179323 -0.00760268)
(0.118544 -0.0143543 -0.00801553)
(0.113984 -0.00939898 -0.00782873)
(0.109094 -0.00453506 -0.00743342)
(0.103605 -0.000317115 -0.00709942)
(0.0972991 0.0032797 -0.00697696)
(0.0899175 0.00655926 -0.00713542)
(0.0810911 0.00986314 -0.00759633)
(0.0703179 0.0134826 -0.00834254)
(0.0569989 0.017578 -0.00929753)
(0.0401588 0.0218208 -0.0102168)
(0.0191116 0.0235546 -0.0101901)
(-0.00115079 0.0136487 -0.00646174)
(0.159565 -0.00201107 -0.000659591)
(0.156848 -0.0106075 -0.00336782)
(0.150016 -0.0161277 -0.00596133)
(0.140834 -0.0167618 -0.00759012)
(0.131915 -0.0137091 -0.00816478)
(0.123896 -0.00887582 -0.00802226)
(0.11655 -0.00376732 -0.00758969)
(0.109512 0.000937115 -0.00718485)
(0.102365 0.00521037 -0.00698515)
(0.0946546 0.00936736 -0.00706822)
(0.0858455 0.0138304 -0.00745424)
(0.0752935 0.0190279 -0.00812264)
(0.062246 0.0253001 -0.00899738)
(0.0454382 0.0324302 -0.00984698)
(0.0232151 0.0370739 -0.00980112)
(0.000176371 0.0251436 -0.0061777)
(0.178347 -0.00118569 -0.000562599)
(0.1753 -0.00743735 -0.00313057)
(0.167126 -0.0118838 -0.00578102)
(0.155216 -0.0125999 -0.00755608)
(0.143059 -0.0101974 -0.00824061)
(0.13218 -0.00607199 -0.00812187)
(0.122726 -0.00142207 -0.00764581)
(0.114379 0.00311873 -0.00716709)
(0.106625 0.00755945 -0.00688485)
(0.0988791 0.0122252 -0.00688178)
(0.0904957 0.0176004 -0.00717463)
(0.0807471 0.0242616 -0.00773777)