/*--------------------------------*- C++ -*----------------------------------*\
| =========                 |                                                 |
| \\      /  F ield         | foam-extend: Open Source CFD                    |
|  \\    /   O peration     | Version:     3.1                                |
|   \\  /    A nd           | Web:         http://www.extend-project.de       |
|    \\/     M anipulation  |                                                 |
\*---------------------------------------------------------------------------*/
FoamFile
{
    version     2.0;
    format      ascii;
    class       regIOobject;
    location    "0.002/uniform";
    object      profilingInfo;
}
// * * * * * * * * * * * * * * * * * * * * * * * * * * * * * * * * * * * * * //

profilingInfo
(

    {
        id              23;
        parentId        22;
        description     "Foam::Time::writeObject - outputTime";
        calls           20;
        totalTime       14.0067;
        childTime       0;
        onStack         1;
    }

    {
        id              22;
        parentId        1;
        description     "Foam::Time::writeObject";
        calls           20;
        totalTime       14.007;
        childTime       14.0067;
        onStack         1;
    }

    {
        id              1;
        description     "application::main";
        calls           1;
        totalTime       247.244;
        childTime       57.2986;
        onStack         1;
    }

    {
        id              25;
        parentId        24;
        description     "FO::pointHistory::execute";
        calls           19;
        totalTime       0.000515;
        childTime       0;
        onStack         0;
    }

    {
        id              3;
        parentId        2;
        description     "functionObjectList::read";
        calls           1;
        totalTime       0.075523;
        childTime       0;
        onStack         0;
    }

    {
        id              24;
        parentId        1;
        description     "functionObjects_.execute()";
        calls           19;
        totalTime       0.000652;
        childTime       0.000515;
        onStack         0;
    }

    {
        id              2;
        parentId        1;
        description     "functionObjects_.start()";
        calls           1;
        totalTime       0.075545;
        childTime       0.075523;
        onStack         0;
    }

    {
        id              18;
        parentId        1;
        description     "fvMatrix::solve_D";
        calls           3245;
        totalTime       10.9399;
        childTime       8.88751;
        onStack         0;
    }

    {
        id              11;
        parentId        1;
        description     "fvMatrix::solve_U";
        calls           277;
        totalTime       1.93836;
        childTime       1.73274;
        onStack         0;
    }

    {
        id              4;
        parentId        1;
        description     "fvMatrix::solve_cellMotionU";
        calls           554;
        totalTime       12.0999;
        childTime       11.6349;
        onStack         0;
    }

    {
        id              15;
        parentId        1;
        description     "fvMatrix::solve_p";
        calls           1662;
        totalTime       18.2373;
        childTime       17.8738;
        onStack         0;
    }

    {
        id              19;
        parentId        18;
        description     "lduMatrix::solver_Dx";
        calls           3245;
        totalTime       3.36122;
        childTime       0;
        onStack         0;
    }

    {
        id              20;
        parentId        18;
        description     "lduMatrix::solver_Dy";
        calls           3245;
        totalTime       3.27022;
        childTime       0;
        onStack         0;
    }

    {
        id              21;
        parentId        18;
        description     "lduMatrix::solver_Dz";
        calls           3245;
        totalTime       2.25608;
        childTime       0;
        onStack         0;
    }

    {
        id              12;
        parentId        11;
        description     "lduMatrix::solver_Ux";
        calls           277;
        totalTime       0.592555;
        childTime       0;
        onStack         0;
    }

    {
        id              13;
        parentId        11;
        description     "lduMatrix::solver_Uy";
        calls           277;
        totalTime       0.570243;
        childTime       0;
        onStack         0;
    }

    {
        id              14;
        parentId        11;
        description     "lduMatrix::solver_Uz";
        calls           277;
        totalTime       0.569946;
        childTime       0;
        onStack         0;
    }

    {
        id              5;
        parentId        4;
        description     "lduMatrix::solver_cellMotionUx";
        calls           554;
        totalTime       3.93807;
        childTime       0.028215;
        onStack         0;
    }

    {
        id              7;
        parentId        4;
        description     "lduMatrix::solver_cellMotionUy";
        calls           554;
        totalTime       3.93393;
        childTime       0.025611;
        onStack         0;
    }

    {
        id              9;
        parentId        4;
        description     "lduMatrix::solver_cellMotionUz";
        calls           554;
        totalTime       3.76291;
        childTime       0.024184;
        onStack         0;
    }

    {
        id              6;
        parentId        5;
        description     "lduMatrix::solver_coarsestLevelCorr";
        calls           1567;
        totalTime       0.028215;
        childTime       0;
        onStack         0;
    }

    {
        id              8;
        parentId        7;
        description     "lduMatrix::solver_coarsestLevelCorr";
        calls           1609;
        totalTime       0.025611;
        childTime       0;
        onStack         0;
    }

    {
        id              10;
        parentId        9;
        description     "lduMatrix::solver_coarsestLevelCorr";
        calls           1532;
        totalTime       0.024184;
        childTime       0;
        onStack         0;
    }

    {
        id              17;
        parentId        16;
        description     "lduMatrix::solver_coarsestLevelCorr";
        calls           7485;
        totalTime       0.212293;
        childTime       0;
        onStack         0;
    }

    {
        id              16;
        parentId        15;
        description     "lduMatrix::solver_p";
        calls           1662;
        totalTime       17.8738;
        childTime       0.212293;
        onStack         0;
    }
);


// ************************************************************************* //
