/*--------------------------------*- C++ -*----------------------------------*\
| =========                 |                                                 |
| \\      /  F ield         | foam-extend: Open Source CFD                    |
|  \\    /   O peration     | Version:     3.1                                |
|   \\  /    A nd           | Web:         http://www.extend-project.de       |
|    \\/     M anipulation  |                                                 |
\*---------------------------------------------------------------------------*/
FoamFile
{
    version     2.0;
    format      ascii;
    class       volVectorField;
    location    "0.0017";
    object      cellMotionU;
}
// * * * * * * * * * * * * * * * * * * * * * * * * * * * * * * * * * * * * * //

dimensions      [0 1 -1 0 0 0 0];

internalField   nonuniform List<vector> 
16000
(
(1.56254e-09 2.67617e-09 -6.79859e-09)
(4.67361e-09 2.52947e-09 -6.82741e-09)
(7.72058e-09 2.33452e-09 -6.86597e-09)
(1.07656e-08 2.12045e-09 -6.87904e-09)
(1.38505e-08 1.8879e-09 -6.81089e-09)
(1.69619e-08 1.65175e-09 -6.57651e-09)
(1.9995e-08 1.42008e-09 -6.05053e-09)
(2.26979e-08 1.20437e-09 -5.05277e-09)
(2.457e-08 1.02147e-09 -3.33521e-09)
(2.47145e-08 8.8366e-10 -5.66931e-10)
(1.48796e-09 7.99772e-09 -6.70783e-09)
(4.50409e-09 7.66893e-09 -6.74445e-09)
(7.52354e-09 7.12357e-09 -6.80054e-09)
(1.05464e-08 6.48458e-09 -6.83908e-09)
(1.3606e-08 5.79162e-09 -6.80472e-09)
(1.66979e-08 5.06803e-09 -6.61592e-09)
(1.97271e-08 4.35208e-09 -6.15454e-09)
(2.2479e-08 3.68268e-09 -5.25491e-09)
(2.45317e-08 3.08994e-09 -3.70319e-09)
(2.5188e-08 2.60858e-09 -1.25146e-09)
(1.40454e-09 1.32537e-08 -6.50887e-09)
(4.25829e-09 1.284e-08 -6.56065e-09)
(7.16367e-09 1.20663e-08 -6.64907e-09)
(1.01251e-08 1.10317e-08 -6.73986e-09)
(1.31229e-08 9.87613e-09 -6.77558e-09)
(1.61535e-08 8.65482e-09 -6.67876e-09)
(1.91571e-08 7.41589e-09 -6.34095e-09)
(2.19524e-08 6.22164e-09 -5.61932e-09)
(2.42098e-08 5.12031e-09 -4.33894e-09)
(2.54399e-08 4.1449e-09 -2.31304e-09)
(1.30737e-09 1.86211e-08 -6.15766e-09)
(3.98271e-09 1.81167e-08 -6.23422e-09)
(6.71704e-09 1.71705e-08 -6.37241e-09)
(9.52976e-09 1.58249e-08 -6.54049e-09)
(1.24179e-08 1.42015e-08 -6.68381e-09)
(1.53385e-08 1.24405e-08 -6.72476e-09)
(1.82381e-08 1.06246e-08 -6.56478e-09)
(2.09894e-08 8.80852e-09 -6.07697e-09)
(2.33301e-08 7.05454e-09 -5.11409e-09)
(2.48838e-08 5.38625e-09 -3.51922e-09)
(1.20757e-09 2.42057e-08 -5.57906e-09)
(3.68805e-09 2.36237e-08 -5.69116e-09)
(6.23487e-09 2.24825e-08 -5.90413e-09)
(8.84192e-09 2.08579e-08 -6.18087e-09)
(1.15211e-08 1.8816e-08 -6.46895e-09)
(1.42539e-08 1.64724e-08 -6.69445e-09)
(1.69641e-08 1.39892e-08 -6.7613e-09)
(1.95248e-08 1.14572e-08 -6.55605e-09)
(2.17305e-08 8.90625e-09 -5.94339e-09)
(2.32528e-08 6.33994e-09 -4.78086e-09)
(1.1124e-09 3.0041e-08 -4.65835e-09)
(3.39426e-09 2.93852e-08 -4.82255e-09)
(5.73277e-09 2.80626e-08 -5.14105e-09)
(8.1088e-09 2.61363e-08 -5.57053e-09)
(1.05067e-08 2.36883e-08 -6.05009e-09)
(1.29285e-08 2.07949e-08 -6.5083e-09)
(1.53342e-08 1.75672e-08 -6.85679e-09)
(1.75652e-08 1.41895e-08 -6.98344e-09)
(1.93911e-08 1.07336e-08 -6.76721e-09)
(2.05319e-08 7.11481e-09 -6.07263e-09)
(1.02569e-09 3.60363e-08 -3.23001e-09)
(3.12203e-09 3.53192e-08 -3.47377e-09)
(5.24734e-09 3.38583e-08 -3.94099e-09)
(7.36382e-09 3.16432e-08 -4.58266e-09)
(9.43751e-09 2.87576e-08 -5.31973e-09)
(1.14469e-08 2.53119e-08 -6.07215e-09)
(1.33745e-08 2.13786e-08 -6.75879e-09)
(1.51251e-08 1.706e-08 -7.28146e-09)
(1.63946e-08 1.25938e-08 -7.5178e-09)
(1.68764e-08 7.86987e-09 -7.35139e-09)
(9.53172e-10 4.1907e-08 -1.06408e-09)
(2.89228e-09 4.11904e-08 -1.43076e-09)
(4.80965e-09 3.9662e-08 -2.12177e-09)
(6.63978e-09 3.72216e-08 -3.05493e-09)
(8.33833e-09 3.39002e-08 -4.13498e-09)
(9.87387e-09 2.98263e-08 -5.26852e-09)
(1.1211e-08 2.51685e-08 -6.36693e-09)
(1.22864e-08 1.99798e-08 -7.34851e-09)
(1.2885e-08 1.44868e-08 -8.09424e-09)
(1.25675e-08 8.71429e-09 -8.50217e-09)
(9.03681e-10 4.70406e-08 2.14108e-09)
(2.71636e-09 4.64875e-08 1.57067e-09)
(4.43775e-09 4.50709e-08 5.34859e-10)
(5.95977e-09 4.25369e-08 -8.05978e-10)
(7.22001e-09 3.88386e-08 -2.32875e-09)
(8.19135e-09 3.41196e-08 -3.94124e-09)
(8.86072e-09 2.86061e-08 -5.55858e-09)
(9.17939e-09 2.2548e-08 -7.07772e-09)
(9.0268e-09 1.61738e-08 -8.37549e-09)
(7.93502e-09 9.57075e-09 -9.3614e-09)
(8.80969e-10 5.03137e-08 6.76739e-09)
(2.60291e-09 5.03481e-08 5.82492e-09)
(4.13221e-09 4.94907e-08 4.26371e-09)
(5.31417e-09 4.71079e-08 2.36162e-09)
(6.05924e-09 4.31149e-08 2.70851e-10)
(6.3468e-09 3.77431e-08 -1.93149e-09)
(6.21008e-09 3.13264e-08 -4.18259e-09)
(5.69452e-09 2.42443e-08 -6.36835e-09)
(4.80513e-09 1.69485e-08 -8.30888e-09)
(3.33855e-09 9.95239e-09 -9.80758e-09)
(4.46679e-09 7.64382e-09 -2.04215e-08)
(1.33724e-08 7.22616e-09 -2.05355e-08)
(2.21398e-08 6.6734e-09 -2.07198e-08)
(3.0992e-08 6.06992e-09 -2.08967e-08)
(4.01268e-08 5.42024e-09 -2.0946e-08)
(4.96423e-08 4.77152e-09 -2.06837e-08)
(5.94765e-08 4.15376e-09 -1.9833e-08)
(6.9319e-08 3.61078e-09 -1.79845e-08)
(7.84276e-08 3.20897e-09 -1.45467e-08)
(8.53906e-08 3.01411e-09 -8.6682e-09)
(4.25437e-09 2.28599e-08 -2.02305e-08)
(1.28909e-08 2.19254e-08 -2.03614e-08)
(2.15823e-08 2.03791e-08 -2.05859e-08)
(3.03744e-08 1.85774e-08 -2.08213e-08)
(3.94399e-08 1.66426e-08 -2.09484e-08)
(4.88984e-08 1.46548e-08 -2.07908e-08)
(5.87034e-08 1.27449e-08 -2.00886e-08)
(6.86232e-08 1.10579e-08 -1.84695e-08)
(7.80541e-08 9.73011e-09 -1.54317e-08)
(8.59177e-08 8.94113e-09 -1.03553e-08)
(4.01875e-09 3.79505e-08 -1.98088e-08)
(1.21965e-08 3.67751e-08 -1.99737e-08)
(2.05684e-08 3.45826e-08 -2.0272e-08)
(2.91931e-08 3.16641e-08 -2.06283e-08)
(3.80894e-08 2.84369e-08 -2.09169e-08)
(4.73739e-08 2.50828e-08 -2.09704e-08)
(5.70874e-08 2.17751e-08 -2.05527e-08)
(6.70444e-08 1.87457e-08 -1.9345e-08)
(7.68098e-08 1.62128e-08 -1.6946e-08)
(8.5704e-08 1.43907e-08 -1.29119e-08)
(3.74695e-09 5.34801e-08 -1.90558e-08)
(1.14276e-08 5.20458e-08 -1.92783e-08)
(1.93241e-08 4.93634e-08 -1.96917e-08)
(2.75405e-08 4.55686e-08 -2.02273e-08)
(3.61432e-08 4.10325e-08 -2.07661e-08)
(4.51288e-08 3.61921e-08 -2.11376e-08)
(5.45405e-08 3.13364e-08 -2.11272e-08)
(6.43196e-08 2.66955e-08 -2.04544e-08)
(7.41501e-08 2.25525e-08 -1.87848e-08)
(8.35672e-08 1.91297e-08 -1.57554e-08)
(3.47353e-09 6.9849e-08 -1.78003e-08)
(1.06225e-08 6.81903e-08 -1.81072e-08)
(1.80115e-08 6.49462e-08 -1.8697e-08)
(2.56721e-08 6.03599e-08 -1.94878e-08)
(3.3715e-08 5.46538e-08 -2.03645e-08)
(4.22067e-08 4.82051e-08 -2.11644e-08)
(5.11136e-08 4.15471e-08 -2.16751e-08)
(6.03555e-08 3.50372e-08 -2.16438e-08)
(6.97529e-08 2.88899e-08 -2.0762e-08)
(7.89217e-08 2.32976e-08 -1.86956e-08)
(3.2235e-09 8.73201e-08 -1.57812e-08)
(9.85153e-09 8.5438e-08 -1.62137e-08)
(1.66974e-08 8.16564e-08 -1.70564e-08)
(2.37577e-08 7.61971e-08 -1.82103e-08)
(3.10639e-08 6.93469e-08 -1.95377e-08)
(3.87459e-08 6.13871e-08 -2.08798e-08)
(4.68741e-08 5.27124e-08 -2.20394e-08)
(5.52596e-08 4.397e-08 -2.27592e-08)
(6.36427e-08 3.55389e-08 -2.27579e-08)
(7.17579e-08 2.73725e-08 -2.17046e-08)
(3.01473e-09 1.0592e-07 -1.26187e-08)
(9.19476e-09 1.03824e-07 -1.32458e-08)
(1.55226e-08 9.95935e-08 -1.44502e-08)
(2.19434e-08 9.32604e-08 -1.61139e-08)
(2.844e-08 8.51512e-08 -1.80523e-08)
(3.5071e-08 7.56621e-08 -2.00813e-08)
(4.19805e-08 6.50966e-08 -2.20177e-08)
(4.9171e-08 5.38681e-08 -2.36329e-08)
(5.61301e-08 4.28621e-08 -2.46272e-08)
(6.25143e-08 3.20046e-08 -2.46975e-08)
(2.87433e-09 1.25321e-07 -7.77611e-09)
(8.74564e-09 1.23126e-07 -8.71033e-09)
(1.46298e-08 1.18552e-07 -1.04665e-08)
(2.03985e-08 1.11449e-07 -1.28377e-08)
(2.60094e-08 1.02029e-07 -1.55933e-08)
(3.14968e-08 9.07676e-08 -1.85137e-08)
(3.69386e-08 7.82456e-08 -2.13913e-08)
(4.24454e-08 6.47531e-08 -2.40324e-08)
(4.76958e-08 5.10831e-08 -2.61299e-08)
(5.19961e-08 3.76863e-08 -2.7402e-08)
(2.8458e-09 1.44576e-07 -5.25408e-10)
(8.58731e-09 1.42585e-07 -1.98424e-09)
(1.41526e-08 1.37965e-07 -4.6085e-09)
(1.92984e-08 1.30297e-07 -7.98054e-09)
(2.39423e-08 1.19643e-07 -1.17943e-08)
(2.81375e-08 1.06518e-07 -1.58296e-08)
(3.20177e-08 9.16406e-08 -1.98839e-08)
(3.56665e-08 7.58207e-08 -2.37044e-08)
(3.89858e-08 5.98184e-08 -2.69697e-08)
(4.11988e-08 4.43582e-08 -2.94218e-08)
(2.97096e-09 1.61806e-07 1.01173e-08)
(8.82632e-09 1.60788e-07 7.65608e-09)
(1.42162e-08 1.56954e-07 3.66081e-09)
(1.87785e-08 1.49116e-07 -1.11344e-09)
(2.23691e-08 1.37291e-07 -6.285e-09)
(2.50756e-08 1.22211e-07 -1.1677e-08)
(2.71598e-08 1.04821e-07 -1.71417e-08)
(2.89077e-08 8.6187e-08 -2.23958e-08)
(3.04383e-08 6.75939e-08 -2.69933e-08)
(3.12914e-08 5.06898e-08 -3.04466e-08)
(6.7979e-09 1.16277e-08 -3.42158e-08)
(2.03682e-08 1.09887e-08 -3.44491e-08)
(3.37877e-08 1.01481e-08 -3.48815e-08)
(4.74627e-08 9.23392e-09 -3.54535e-08)
(6.18221e-08 8.26003e-09 -3.60855e-08)
(7.72409e-08 7.30795e-09 -3.66554e-08)
(9.40209e-08 6.43724e-09 -3.69733e-08)
(1.12374e-07 5.73501e-09 -3.67465e-08)
(1.32322e-07 5.33487e-09 -3.55256e-08)
(1.53631e-07 5.39065e-09 -3.26117e-08)
(6.47038e-09 3.48015e-08 -3.40879e-08)
(1.96253e-08 3.33711e-08 -3.43309e-08)
(3.29284e-08 3.10163e-08 -3.48022e-08)
(4.65115e-08 2.8285e-08 -3.5426e-08)
(6.07669e-08 2.53845e-08 -3.61255e-08)
(7.60957e-08 2.24661e-08 -3.67842e-08)
(9.28032e-08 1.97706e-08 -3.72246e-08)
(1.11174e-07 1.75816e-08 -3.71872e-08)
(1.31295e-07 1.61968e-08 -3.63004e-08)
(1.5304e-07 1.60298e-08 -3.40802e-08)
(6.10782e-09 5.78801e-08 -3.3802e-08)
(1.85565e-08 5.60804e-08 -3.40739e-08)
(3.13684e-08 5.27344e-08 -3.46071e-08)
(4.46991e-08 4.83039e-08 -3.53383e-08)
(5.87016e-08 4.3462e-08 -3.61793e-08)
(7.37641e-08 3.85348e-08 -3.70195e-08)
(9.03035e-08 3.38566e-08 -3.77016e-08)
(1.08596e-07 2.98798e-08 -3.80035e-08)
(1.28826e-07 2.70802e-08 -3.76381e-08)
(1.51147e-07 2.59913e-08 -3.62875e-08)
(5.69294e-09 8.18181e-08 -3.32698e-08)
(1.73829e-08 7.96188e-08 -3.35959e-08)
(2.94709e-08 7.5515e-08 -3.4229e-08)
(4.21905e-08 6.97479e-08 -3.5122e-08)
(5.57661e-08 6.2934e-08 -3.61911e-08)
(7.03926e-08 5.58119e-08 -3.73145e-08)
(8.64666e-08 4.89223e-08 -3.8348e-08)
(1.04414e-07 4.27529e-08 -3.90998e-08)
(1.24483e-07 3.7921e-08 -3.93288e-08)
(1.46979e-07 3.50299e-08 -3.87805e-08)
(5.28314e-09 1.07397e-07 -3.23442e-08)
(1.61786e-08 1.04842e-07 -3.27516e-08)
(2.75149e-08 9.98592e-08 -3.35511e-08)
(3.94189e-08 9.28719e-08 -3.46838e-08)
(5.21868e-08 8.42907e-08 -3.60683e-08)
(6.61217e-08 7.4784e-08 -3.75883e-08)
(8.14875e-08 6.52988e-08 -3.90919e-08)
(9.86436e-08 5.65567e-08 -4.04e-08)
(1.18009e-07 4.91158e-08 -4.12868e-08)
(1.39932e-07 4.35778e-08 -4.15015e-08)
(4.92518e-09 1.35315e-07 -3.08039e-08)
(1.50768e-08 1.32388e-07 -3.13359e-08)
(2.5645e-08 1.26532e-07 -3.23849e-08)
(3.67086e-08 1.18168e-07 -3.38731e-08)
(4.84454e-08 1.07838e-07 -3.56925e-08)
(6.12656e-08 9.60977e-08 -3.77302e-08)
(7.55963e-08 8.3699e-08 -3.98424e-08)
(9.16066e-08 7.18461e-08 -4.18291e-08)
(1.09587e-07 6.14214e-08 -4.348e-08)
(1.30046e-07 5.26907e-08 -4.45238e-08)
(4.65894e-09 1.66117e-07 -2.8327e-08)
(1.4238e-08 1.62783e-07 -2.90567e-08)
(2.41412e-08 1.56122e-07 -3.04737e-08)
(3.43748e-08 1.46307e-07 -3.24736e-08)
(4.50512e-08 1.34006e-07 -3.49008e-08)
(5.64702e-08 1.19985e-07 -3.76076e-08)
(6.91906e-08 1.04892e-07 -4.04621e-08)
(8.36973e-08 8.95834e-08 -4.32872e-08)
(9.98342e-08 7.5767e-08 -4.58253e-08)
(1.18004e-07 6.37494e-08 -4.78118e-08)
(4.54469e-09 2.0015e-07 -2.44572e-08)
(1.38626e-08 1.96469e-07 -2.55051e-08)
(2.33156e-08 1.88985e-07 -2.74883e-08)
(3.28091e-08 1.77733e-07 -3.02091e-08)
(4.24275e-08 1.63284e-07 -3.34583e-08)
(5.24455e-08 1.4657e-07 -3.70484e-08)
(6.33032e-08 1.28674e-07 -4.08086e-08)
(7.56869e-08 1.10299e-07 -4.45949e-08)
(8.96317e-08 9.29155e-08 -4.81022e-08)
(1.05072e-07 7.78692e-08 -5.1093e-08)
(4.67852e-09 2.37366e-07 -1.85653e-08)
(1.4162e-08 2.33495e-07 -2.0162e-08)
(2.35089e-08 2.25247e-07 -2.30418e-08)
(3.24632e-08 2.12565e-07 -2.67855e-08)
(4.10715e-08 1.95917e-07 -3.11024e-08)
(4.96545e-08 1.76311e-07 -3.57972e-08)
(5.87326e-08 1.54993e-07 -4.06899e-08)
(6.88424e-08 1.33379e-07 -4.55469e-08)
(8.02886e-08 1.12828e-07 -5.00334e-08)
(9.28836e-08 9.52749e-08 -5.39488e-08)
(5.17347e-09 2.77168e-07 -9.76498e-09)
(1.54291e-08 2.7348e-07 -1.24245e-08)
(2.511e-08 2.64927e-07 -1.67409e-08)
(3.38056e-08 2.50867e-07 -2.19215e-08)
(4.15024e-08 2.31837e-07 -2.75952e-08)
(4.86082e-08 2.09108e-07 -3.36108e-08)
(5.58414e-08 1.84132e-07 -3.98319e-08)
(6.39459e-08 1.58521e-07 -4.5963e-08)
(7.33138e-08 1.34226e-07 -5.15265e-08)
(8.3463e-08 1.1405e-07 -5.60255e-08)
(8.23068e-09 1.40622e-08 -4.75492e-08)
(2.46674e-08 1.32501e-08 -4.78687e-08)
(4.0903e-08 1.22358e-08 -4.85078e-08)
(5.74253e-08 1.11071e-08 -4.94742e-08)
(7.47982e-08 9.90484e-09 -5.0803e-08)
(9.35514e-08 8.74037e-09 -5.25483e-08)
(1.14201e-07 7.69896e-09 -5.4782e-08)
(1.3728e-07 6.90297e-09 -5.75984e-08)
(1.63302e-07 6.53768e-09 -6.11114e-08)
(1.92803e-07 6.82598e-09 -6.54544e-08)
(7.80288e-09 4.21149e-08 -4.76088e-08)
(2.37199e-08 4.03252e-08 -4.79224e-08)
(3.98037e-08 3.74132e-08 -4.85653e-08)
(5.61783e-08 3.40261e-08 -4.95312e-08)
(7.34071e-08 3.04374e-08 -5.08591e-08)
(9.20424e-08 2.68621e-08 -5.26004e-08)
(1.12597e-07 2.36294e-08 -5.48215e-08)
(1.35676e-07 2.11313e-08 -5.76161e-08)
(1.61816e-07 1.9796e-08 -6.10877e-08)
(1.91511e-07 2.02185e-08 -6.53601e-08)
(7.34006e-09 7.00871e-08 -4.77282e-08)
(2.23333e-08 6.78631e-08 -4.80371e-08)
(3.77628e-08 6.36513e-08 -4.8675e-08)
(5.37947e-08 5.81274e-08 -4.96476e-08)
(7.06865e-08 5.21187e-08 -5.09814e-08)
(8.89798e-08 4.60634e-08 -5.27243e-08)
(1.0932e-07 4.0425e-08 -5.49433e-08)
(1.32281e-07 3.58284e-08 -5.77101e-08)
(1.58455e-07 3.29515e-08 -6.11109e-08)
(1.88546e-07 3.25756e-08 -6.5261e-08)
(6.80877e-09 9.91459e-08 -4.78834e-08)
(2.0794e-08 9.63998e-08 -4.81977e-08)
(3.52605e-08 9.12204e-08 -4.88399e-08)
(5.04988e-08 8.39953e-08 -4.98318e-08)
(6.68281e-08 7.55118e-08 -5.12021e-08)
(8.45644e-08 6.67274e-08 -5.29808e-08)
(1.04328e-07 5.83755e-08 -5.52244e-08)
(1.26863e-07 5.1148e-08 -5.79993e-08)
(1.52806e-07 4.59192e-08 -6.13617e-08)
(1.82987e-07 4.35797e-08 -6.53935e-08)
(6.27187e-09 1.30342e-07 -4.80415e-08)
(1.92079e-08 1.27111e-07 -4.83757e-08)
(3.26776e-08 1.2081e-07 -4.9057e-08)
(4.68543e-08 1.12012e-07 -5.01061e-08)
(6.21462e-08 1.01283e-07 -5.15526e-08)
(7.90092e-08 8.95149e-08 -5.34299e-08)
(9.79045e-08 7.79553e-08 -5.57754e-08)
(1.19493e-07 6.75996e-08 -5.86368e-08)
(1.44613e-07 5.92733e-08 -6.20585e-08)
(1.74124e-07 5.38778e-08 -6.60801e-08)
(5.79972e-09 1.64699e-07 -4.81582e-08)
(1.77558e-08 1.60961e-07 -4.85356e-08)
(3.02161e-08 1.53505e-07 -4.93039e-08)
(4.33024e-08 1.42911e-07 -5.04779e-08)
(5.72856e-08 1.29931e-07 -5.20746e-08)
(7.2761e-08 1.15342e-07 -5.41331e-08)
(9.04022e-08 1.0017e-07 -5.66896e-08)
(1.10639e-07 8.60183e-08 -5.97607e-08)
(1.34153e-07 7.41276e-08 -6.33896e-08)
(1.62008e-07 6.50076e-08 -6.75866e-08)
(5.45142e-09 2.03163e-07 -4.81727e-08)
(1.66607e-08 1.98843e-07 -4.86305e-08)
(2.82606e-08 1.9026e-07 -4.9554e-08)
(4.02901e-08 1.77724e-07 -5.09438e-08)
(5.2949e-08 1.62179e-07 -5.28032e-08)
(6.67075e-08 1.44688e-07 -5.51478e-08)
(8.2414e-08 1.2617e-07 -5.80243e-08)
(1.00904e-07 1.07814e-07 -6.14621e-08)
(1.22299e-07 9.18874e-08 -6.54497e-08)
(1.47544e-07 7.89813e-08 -6.99989e-08)
(5.31265e-09 2.46632e-07 -4.80104e-08)
(1.62023e-08 2.41725e-07 -4.86059e-08)
(2.72511e-08 2.31872e-07 -4.9778e-08)
(3.8381e-08 2.17306e-07 -5.14982e-08)
(4.97656e-08 1.98909e-07 -5.37478e-08)
(6.18587e-08 1.77981e-07 -5.65266e-08)
(7.53707e-08 1.55987e-07 -5.98451e-08)
(9.14037e-08 1.33941e-07 -6.37589e-08)
(1.10294e-07 1.13796e-07 -6.81755e-08)
(1.32433e-07 9.74925e-08 -7.31724e-08)
(5.51572e-09 2.95817e-07 -4.75855e-08)
(1.66862e-08 2.90319e-07 -4.84097e-08)
(2.76811e-08 2.79012e-07 -4.99678e-08)
(3.82328e-08 2.62221e-07 -5.21583e-08)
(4.84825e-08 2.408e-07 -5.49356e-08)
(5.89559e-08 2.16157e-07 -5.82913e-08)
(7.04754e-08 1.8994e-07 -6.2211e-08)
(8.39374e-08 1.64009e-07 -6.66512e-08)
(9.99883e-08 1.40154e-07 -7.14777e-08)
(1.18864e-07 1.21085e-07 -7.68303e-08)
(6.22072e-09 3.51226e-07 -4.67946e-08)
(1.85305e-08 3.4509e-07 -4.80267e-08)
(3.01215e-08 3.3237e-07 -5.01748e-08)
(4.05467e-08 3.13064e-07 -5.3005e-08)
(4.98946e-08 2.88214e-07 -5.64445e-08)
(5.88238e-08 2.59528e-07 -6.04977e-08)
(6.8417e-08 2.28839e-07 -6.51433e-08)
(7.98062e-08 1.98153e-07 -7.02387e-08)
(9.36487e-08 1.69872e-07 -7.55037e-08)
(1.09494e-07 1.47526e-07 -8.06949e-08)
(8.67571e-09 1.46882e-08 -5.94761e-08)
(2.5975e-08 1.38224e-08 -5.97648e-08)
(4.29406e-08 1.2713e-08 -6.03739e-08)
(5.99709e-08 1.14647e-08 -6.13773e-08)
(7.75403e-08 1.01287e-08 -6.29071e-08)
(9.60282e-08 8.82916e-09 -6.51583e-08)
(1.1571e-07 7.664e-09 -6.84059e-08)
(1.36744e-07 6.77053e-09 -7.30396e-08)
(1.5906e-07 6.35121e-09 -7.9604e-08)
(1.82311e-07 6.64965e-09 -8.88827e-08)
(8.197e-09 4.39812e-08 -5.97406e-08)
(2.48829e-08 4.20393e-08 -5.99993e-08)
(4.16192e-08 3.88356e-08 -6.05504e-08)
(5.84385e-08 3.508e-08 -6.14706e-08)
(7.58144e-08 3.10777e-08 -6.28931e-08)
(9.41614e-08 2.70763e-08 -6.50032e-08)
(1.13774e-07 2.34435e-08 -6.80532e-08)
(1.3492e-07 2.06117e-08 -7.23954e-08)
(1.57655e-07 1.90584e-08 -7.84766e-08)
(1.81808e-07 1.94313e-08 -8.68454e-08)
(7.64573e-09 7.30998e-08 -6.02891e-08)
(2.32281e-08 7.06344e-08 -6.049e-08)
(3.9149e-08 6.59506e-08 -6.09312e-08)
(5.54957e-08 5.9797e-08 -6.16975e-08)
(7.24285e-08 5.30662e-08 -6.29167e-08)
(9.03659e-08 4.62478e-08 -6.47631e-08)
(1.09771e-07 3.98598e-08 -6.74685e-08)
(1.30951e-07 3.45901e-08 -7.13102e-08)
(1.54135e-07 3.11817e-08 -7.66177e-08)
(1.79566e-07 3.04818e-08 -8.37536e-08)
(6.99563e-09 1.03163e-07 -6.11622e-08)
(2.133e-08 1.00084e-07 -6.12886e-08)
(3.60537e-08 9.42653e-08 -6.15858e-08)
(5.1389e-08 8.61475e-08 -6.21454e-08)
(6.75743e-08 7.65933e-08 -6.31004e-08)
(8.48132e-08 6.66427e-08 -6.46114e-08)
(1.03574e-07 5.70952e-08 -6.68804e-08)
(1.24397e-07 4.87111e-08 -7.01457e-08)
(1.47653e-07 4.24348e-08 -7.46427e-08)
(1.73841e-07 3.92063e-08 -8.06166e-08)
(6.31725e-09 1.35204e-07 -6.2437e-08)
(1.9313e-08 1.31549e-07 -6.24816e-08)
(3.27467e-08 1.24424e-07 -6.26143e-08)
(4.67242e-08 1.14458e-07 -6.29404e-08)
(6.15866e-08 1.02281e-07 -6.35974e-08)
(7.77035e-08 8.88746e-08 -6.47513e-08)
(9.54035e-08 7.55695e-08 -6.65862e-08)
(1.15177e-07 6.34266e-08 -6.93003e-08)
(1.37658e-07 5.33296e-08 -7.31018e-08)
(1.63441e-07 4.61972e-08 -7.8174e-08)
(5.68797e-09 1.70203e-07 -6.42285e-08)
(1.73773e-08 1.65949e-07 -6.41834e-08)
(2.94566e-08 1.57476e-07 -6.41413e-08)
(4.19788e-08 1.4541e-07 -6.42232e-08)
(5.51521e-08 1.30576e-07 -6.45829e-08)
(6.9497e-08 1.13825e-07 -6.53974e-08)
(8.55923e-08 9.62694e-08 -6.68498e-08)
(1.03719e-07 7.95911e-08 -6.91197e-08)
(1.24341e-07 6.5044e-08 -7.24047e-08)
(1.48305e-07 5.31386e-08 -7.68841e-08)
(5.17358e-09 2.09011e-07 -6.67015e-08)
(1.57664e-08 2.04086e-07 -6.65522e-08)
(2.65987e-08 1.94291e-07 -6.63251e-08)
(3.76367e-08 1.79966e-07 -6.61559e-08)
(4.90154e-08 1.62124e-07 -6.62341e-08)
(6.11445e-08 1.41919e-07 -6.67479e-08)
(7.47875e-08 1.20338e-07 -6.78909e-08)
(9.06635e-08 9.86382e-08 -6.98503e-08)
(1.08688e-07 7.91171e-08 -7.28042e-08)
(1.29572e-07 6.23233e-08 -7.69519e-08)
(4.86598e-09 2.52356e-07 -7.00994e-08)
(1.47757e-08 2.46766e-07 -6.98159e-08)
(2.46446e-08 2.35525e-07 -6.93585e-08)
(3.43054e-08 2.18856e-07 -6.89215e-08)
(4.38631e-08 1.97704e-07 -6.87275e-08)
(5.37202e-08 1.73472e-07 -6.89911e-08)
(6.4532e-08 1.47735e-07 -6.99023e-08)
(7.72864e-08 1.21541e-07 -7.16614e-08)
(9.22423e-08 9.69674e-08 -7.43938e-08)
(1.09429e-07 7.5794e-08 -7.83839e-08)
(4.89931e-09 3.0065e-07 -7.47769e-08)
(1.47235e-08 2.94443e-07 -7.42757e-08)
(2.41093e-08 2.81618e-07 -7.34835e-08)
(3.26767e-08 2.62437e-07 -7.27178e-08)
(4.04856e-08 2.37802e-07 -7.22547e-08)
(4.80177e-08 2.0925e-07 -7.23159e-08)
(5.60839e-08 1.78592e-07 -7.30733e-08)
(6.55688e-08 1.47835e-07 -7.46782e-08)
(7.71328e-08 1.18936e-07 -7.7226e-08)
(9.05893e-08 9.43443e-08 -8.10608e-08)
(5.42844e-09 3.53907e-07 -8.1266e-08)
(1.6021e-08 3.47174e-07 -8.03251e-08)
(2.55598e-08 3.32922e-07 -7.89961e-08)
(3.34477e-08 3.10979e-07 -7.77849e-08)
(3.96754e-08 2.82454e-07 -7.70226e-08)
(4.48653e-08 2.49249e-07 -7.69167e-08)
(5.01366e-08 2.13436e-07 -7.7593e-08)
(5.67455e-08 1.77297e-07 -7.91184e-08)
(6.55349e-08 1.43536e-07 -8.14952e-08)
(7.60945e-08 1.15806e-07 -8.47739e-08)
(8.37516e-09 1.37038e-08 -6.94436e-08)
(2.50196e-08 1.28611e-08 -6.95751e-08)
(4.11698e-08 1.1762e-08 -6.98875e-08)
(5.70716e-08 1.05117e-08 -7.04795e-08)
(7.29914e-08 9.16647e-09 -7.15035e-08)
(8.90067e-08 7.85062e-09 -7.31672e-08)
(1.04936e-07 6.66633e-09 -7.57454e-08)
(1.20236e-07 5.75387e-09 -7.96079e-08)
(1.33779e-07 5.31393e-09 -8.52557e-08)
(1.43616e-07 5.58835e-09 -9.34151e-08)
(7.86776e-09 4.09675e-08 -6.98542e-08)
(2.38294e-08 3.90481e-08 -6.99234e-08)
(3.96749e-08 3.58614e-08 -7.01125e-08)
(5.53006e-08 3.20907e-08 -7.05309e-08)
(7.09766e-08 2.80419e-08 -7.13324e-08)
(8.6834e-08 2.39731e-08 -7.27139e-08)
(1.02747e-07 2.02555e-08 -7.49215e-08)
(1.18347e-07 1.73217e-08 -7.82676e-08)
(1.32802e-07 1.56562e-08 -8.31257e-08)
(1.44757e-07 1.58989e-08 -8.9905e-08)
(7.24943e-09 6.78683e-08 -7.0696e-08)
(2.19736e-08 6.53868e-08 -7.06508e-08)
(3.68638e-08 6.06743e-08 -7.06119e-08)
(5.1879e-08 5.44625e-08 -7.06982e-08)
(6.70026e-08 4.76136e-08 -7.10717e-08)
(8.23937e-08 4.06191e-08 -7.19169e-08)
(9.81379e-08 3.40016e-08 -7.34481e-08)
(1.14029e-07 2.84456e-08 -7.58904e-08)
(1.29612e-07 2.46879e-08 -7.94625e-08)
(1.44297e-07 2.35608e-08 -8.43235e-08)
(6.50001e-09 9.53101e-08 -7.20367e-08)
(1.97704e-08 9.21791e-08 -7.18309e-08)
(3.32545e-08 8.62536e-08 -7.14819e-08)
(4.7046e-08 7.7973e-08 -7.11122e-08)
(6.1222e-08 6.81806e-08 -7.08947e-08)
(7.57689e-08 5.78825e-08 -7.10169e-08)
(9.08299e-08 4.78566e-08 -7.16603e-08)
(1.0651e-07 3.88531e-08 -7.2998e-08)
(1.22662e-07 3.17902e-08 -7.51465e-08)
(1.39161e-07 2.75566e-08 -7.81313e-08)
(5.69045e-09 1.24086e-07 -7.39918e-08)
(1.73472e-08 1.2034e-07 -7.35914e-08)
(2.92499e-08 1.13035e-07 -7.28537e-08)
(4.13856e-08 1.02773e-07 -7.19332e-08)
(5.39407e-08 9.0169e-08 -7.10134e-08)
(6.70872e-08 7.61772e-08 -7.02953e-08)
(8.08746e-08 6.20523e-08 -6.99587e-08)
(9.54228e-08 4.87928e-08 -7.01395e-08)
(1.10918e-07 3.72433e-08 -7.09334e-08)
(1.27437e-07 2.82285e-08 -7.23304e-08)
(4.89707e-09 1.5487e-07 -7.67195e-08)
(1.49043e-08 1.50498e-07 -7.60855e-08)
(2.50802e-08 1.41787e-07 -7.48905e-08)
(3.53574e-08 1.29305e-07 -7.33271e-08)
(4.58066e-08 1.13827e-07 -7.16294e-08)
(5.67457e-08 9.61562e-08 -7.00144e-08)
(6.85004e-08 7.73569e-08 -6.86724e-08)
(8.1037e-08 5.89754e-08 -6.77563e-08)
(9.437e-08 4.20962e-08 -6.73479e-08)
(1.08872e-07 2.71732e-08 -6.74873e-08)
(4.18532e-09 1.88096e-07 -8.04258e-08)
(1.268e-08 1.83068e-07 -7.94989e-08)
(2.11458e-08 1.73014e-07 -7.77637e-08)
(2.94271e-08 1.582e-07 -7.54598e-08)
(3.75186e-08 1.3952e-07 -7.29013e-08)
(4.56541e-08 1.18043e-07 -7.03635e-08)
(5.43293e-08 9.46835e-08 -6.80462e-08)
(6.39437e-08 7.06088e-08 -6.61084e-08)
(7.40432e-08 4.78235e-08 -6.46862e-08)
(8.48401e-08 2.67405e-08 -6.38642e-08)
(3.64281e-09 2.2388e-07 -8.5384e-08)
(1.095e-08 2.18285e-07 -8.40665e-08)
(1.7898e-08 2.06906e-07 -8.16417e-08)
(2.41791e-08 1.89778e-07 -7.84732e-08)
(2.97466e-08 1.67672e-07 -7.49615e-08)
(3.48309e-08 1.41864e-07 -7.14521e-08)
(3.98711e-08 1.13831e-07 -6.81982e-08)
(4.54939e-08 8.45095e-08 -6.53505e-08)
(5.17688e-08 5.58883e-08 -6.30969e-08)
(5.80799e-08 2.92257e-08 -6.15651e-08)
(3.38719e-09 2.61748e-07 -9.19557e-08)
(1.00052e-08 2.55848e-07 -9.00534e-08)
(1.58092e-08 2.43291e-07 -8.66752e-08)
(2.0259e-08 2.239e-07 -8.24454e-08)
(2.32349e-08 1.98314e-07 -7.78829e-08)
(2.50343e-08 1.67944e-07 -7.33675e-08)
(2.62913e-08 1.34564e-07 -6.91706e-08)
(2.77129e-08 1.00133e-07 -6.55114e-08)
(2.98806e-08 6.66411e-08 -6.25941e-08)
(3.18882e-08 3.57604e-08 -6.05524e-08)
(3.54263e-09 3.00396e-07 -1.00666e-07)
(1.01865e-08 2.94824e-07 -9.77324e-08)
(1.53598e-08 2.81766e-07 -9.2964e-08)
(1.82618e-08 2.60215e-07 -8.73895e-08)
(1.86675e-08 2.30934e-07 -8.1652e-08)
(1.69896e-08 1.95761e-07 -7.61131e-08)
(1.41966e-08 1.56859e-07 -7.10032e-08)
(1.15511e-08 1.16683e-07 -6.65525e-08)
(1.01166e-08 7.81515e-08 -6.30125e-08)
(9.66559e-09 4.47229e-08 -6.06169e-08)
(7.69527e-09 1.15652e-08 -7.75505e-08)
(2.29614e-08 1.08262e-08 -7.75017e-08)
(3.76905e-08 9.85035e-09 -7.74615e-08)
(5.20418e-08 8.73511e-09 -7.7523e-08)
(6.61654e-08 7.53958e-09 -7.78077e-08)
(7.99848e-08 6.38342e-09 -7.8456e-08)
(9.3101e-08 5.37357e-09 -7.96203e-08)
(1.04647e-07 4.65594e-09 -8.14658e-08)
(1.13024e-07 4.43659e-09 -8.41812e-08)
(1.15585e-07 4.97329e-09 -8.80455e-08)
(7.18792e-09 3.45066e-08 -7.80672e-08)
(2.17448e-08 3.28014e-08 -7.79291e-08)
(3.61194e-08 2.99618e-08 -7.7709e-08)
(5.01518e-08 2.65887e-08 -7.75188e-08)
(6.4e-08 2.29711e-08 -7.7483e-08)
(7.76541e-08 1.93718e-08 -7.77337e-08)
(9.07957e-08 1.61618e-08 -7.83959e-08)
(1.02773e-07 1.37817e-08 -7.95726e-08)
(1.12389e-07 1.27461e-08 -8.13331e-08)
(1.17824e-07 1.37286e-08 -8.3656e-08)
(6.54199e-09 5.69452e-08 -7.91136e-08)
(1.98058e-08 5.47064e-08 -7.88124e-08)
(3.31492e-08 5.04631e-08 -7.82622e-08)
(4.64798e-08 4.48716e-08 -7.75864e-08)
(5.97038e-08 3.8703e-08 -7.69329e-08)
(7.28586e-08 3.24349e-08 -7.64249e-08)
(8.58642e-08 2.65951e-08 -7.61532e-08)
(9.83143e-08 2.18746e-08 -7.61461e-08)
(1.09513e-07 1.90396e-08 -7.63261e-08)
(1.18618e-07 1.89758e-08 -7.64346e-08)
(5.74389e-09 7.95216e-08 -8.07546e-08)
(1.74469e-08 7.66708e-08 -8.02185e-08)
(2.92682e-08 7.12743e-08 -7.9215e-08)
(4.12435e-08 6.37383e-08 -7.78697e-08)
(5.33837e-08 5.48293e-08 -7.63488e-08)
(6.55941e-08 4.54658e-08 -7.47994e-08)
(7.78896e-08 3.6396e-08 -7.32872e-08)
(9.02265e-08 2.83859e-08 -7.1792e-08)
(1.02326e-07 2.23725e-08 -7.01595e-08)
(1.13951e-07 1.92909e-08 -6.80241e-08)
(4.8624e-09 1.02769e-07 -8.30936e-08)
(1.47949e-08 9.9334e-08 -8.22652e-08)
(2.48571e-08 9.26376e-08 -8.06811e-08)
(3.4988e-08 8.32028e-08 -7.85154e-08)
(4.53081e-08 7.15949e-08 -7.59523e-08)
(5.59182e-08 5.86925e-08 -7.31628e-08)
(6.67779e-08 4.56345e-08 -7.02341e-08)
(7.79033e-08 3.3378e-08 -6.71262e-08)
(8.93971e-08 2.28033e-08 -6.36829e-08)
(1.01295e-07 1.47681e-08 -5.95508e-08)
(3.97185e-09 1.27082e-07 -8.62535e-08)
(1.20488e-08 1.23068e-07 -8.50692e-08)
(2.01497e-08 1.15063e-07 -8.27893e-08)
(2.81563e-08 1.03526e-07 -7.96449e-08)
(3.60869e-08 8.91267e-08 -7.59026e-08)
(4.41772e-08 7.25886e-08 -7.17544e-08)
(5.26754e-08 5.4904e-08 -6.73139e-08)
(6.14851e-08 3.74688e-08 -6.26011e-08)
(7.05325e-08 2.12821e-08 -5.74503e-08)
(8.01787e-08 6.91614e-09 -5.16173e-08)
(3.13914e-09 1.5258e-07 -9.03625e-08)
(9.44555e-09 1.48005e-07 -8.87317e-08)
(1.55407e-08 1.38796e-07 -8.56187e-08)
(2.12133e-08 1.25108e-07 -8.13309e-08)
(2.63998e-08 1.07644e-07 -7.62485e-08)
(3.12666e-08 8.73252e-08 -7.06671e-08)
(3.62099e-08 6.49894e-08 -6.471e-08)
(4.1555e-08 4.17365e-08 -5.84048e-08)
(4.68075e-08 1.92983e-08 -5.17222e-08)
(5.21441e-08 -1.83702e-09 -4.44883e-08)
(2.45146e-09 1.78992e-07 -9.5548e-08)
(7.25467e-09 1.74021e-07 -9.33304e-08)
(1.14821e-08 1.63767e-07 -8.91727e-08)
(1.47545e-08 1.48056e-07 -8.35468e-08)
(1.6949e-08 1.27412e-07 -7.69625e-08)
(1.82214e-08 1.02891e-07 -6.98224e-08)
(1.89351e-08 7.58071e-08 -6.23624e-08)
(1.95999e-08 4.70419e-08 -5.45813e-08)
(2.03537e-08 1.84922e-08 -4.66253e-08)
(2.04355e-08 -8.87101e-09 -3.83025e-08)
(2.01768e-09 2.05366e-07 -1.01927e-07)
(5.76205e-09 2.00437e-07 -9.88767e-08)
(8.44376e-09 1.89542e-07 -9.3331e-08)
(9.43712e-09 1.72078e-07 -8.61019e-08)
(8.51565e-09 1.48342e-07 -7.78606e-08)
(5.87387e-09 1.19492e-07 -6.90732e-08)
(2.07963e-09 8.7142e-08 -6.00392e-08)
(-2.17069e-09 5.31513e-08 -5.09549e-08)
(-6.16517e-09 1.95332e-08 -4.20378e-08)
(-1.10232e-08 -1.25214e-08 -3.30354e-08)
(1.946e-09 2.29771e-07 -1.09662e-07)
(5.2773e-09 2.25924e-07 -1.05252e-07)
(6.88414e-09 2.15473e-07 -9.77935e-08)
(5.84961e-09 1.96684e-07 -8.86154e-08)
(1.80321e-09 1.69866e-07 -7.85626e-08)
(-4.98797e-09 1.36586e-07 -6.80931e-08)
(-1.3634e-08 9.88958e-08 -5.74919e-08)
(-2.27788e-08 5.9269e-08 -4.70852e-08)
(-3.10443e-08 2.07116e-08 -3.7294e-08)
(-3.83174e-08 -1.35137e-08 -2.84371e-08)
(6.89284e-09 8.77027e-09 -8.40727e-08)
(2.05916e-08 8.20079e-09 -8.39686e-08)
(3.38842e-08 7.4485e-09 -8.38236e-08)
(4.69722e-08 6.59737e-09 -8.37317e-08)
(6.00671e-08 5.70729e-09 -8.38048e-08)
(7.32073e-08 4.89164e-09 -8.41564e-08)
(8.61845e-08 4.26456e-09 -8.48841e-08)
(9.84316e-08 3.9837e-09 -8.60575e-08)
(1.08808e-07 4.27448e-09 -8.77193e-08)
(1.15345e-07 5.43655e-09 -8.99508e-08)
(6.41591e-09 2.6118e-08 -8.4723e-08)
(1.94346e-08 2.47947e-08 -8.45117e-08)
(3.23702e-08 2.25991e-08 -8.415e-08)
(4.51389e-08 2.00137e-08 -8.37559e-08)
(5.79635e-08 1.73005e-08 -8.34462e-08)
(7.09501e-08 1.47251e-08 -8.33262e-08)
(8.39725e-08 1.26637e-08 -8.34652e-08)
(9.66742e-08 1.15867e-08 -8.38644e-08)
(1.08283e-07 1.20727e-08 -8.44412e-08)
(1.17555e-07 1.48908e-08 -8.49585e-08)
(5.79446e-09 4.29459e-08 -8.60329e-08)
(1.7568e-08 4.11919e-08 -8.56266e-08)
(2.9494e-08 3.78841e-08 -8.48686e-08)
(4.15576e-08 3.35624e-08 -8.38908e-08)
(5.37598e-08 2.88721e-08 -8.28428e-08)
(6.62605e-08 2.42733e-08 -8.1823e-08)
(7.91717e-08 2.03137e-08 -8.08641e-08)
(9.23782e-08 1.77205e-08 -7.98935e-08)
(1.05589e-07 1.73449e-08 -7.86755e-08)
(1.18484e-07 2.02173e-08 -7.67234e-08)
(5.01964e-09 5.96783e-08 -8.80705e-08)
(1.52704e-08 5.74275e-08 -8.73809e-08)
(2.57005e-08 5.31771e-08 -8.60776e-08)
(3.64147e-08 4.72779e-08 -8.4295e-08)
(4.75219e-08 4.0385e-08 -8.2206e-08)
(5.90718e-08 3.33073e-08 -7.99465e-08)
(7.12765e-08 2.67829e-08 -7.7528e-08)
(8.43847e-08 2.16414e-08 -7.48299e-08)
(9.85197e-08 1.8911e-08 -7.15486e-08)
(1.13968e-07 1.96972e-08 -6.70992e-08)
(4.15692e-09 7.66861e-08 -9.09426e-08)
(1.26663e-08 7.39566e-08 -8.98976e-08)
(2.13482e-08 6.86403e-08 -8.78899e-08)
(3.02163e-08 6.11585e-08 -8.51161e-08)
(3.94837e-08 5.20062e-08 -8.17734e-08)
(4.93938e-08 4.19699e-08 -7.80292e-08)
(6.01149e-08 3.20841e-08 -7.39325e-08)
(7.19577e-08 2.33249e-08 -6.93544e-08)
(8.5436e-08 1.67072e-08 -6.40019e-08)
(1.01119e-07 1.32752e-08 -5.73325e-08)
(3.28008e-09 9.42623e-08 -9.47661e-08)
(9.95662e-09 9.10688e-08 -9.32849e-08)