/*--------------------------------*- C++ -*----------------------------------*\
| =========                 |                                                 |
| \\      /  F ield         | foam-extend: Open Source CFD                    |
|  \\    /   O peration     | Version:     3.1                                |
|   \\  /    A nd           | Web:         http://www.extend-project.de       |
|    \\/     M anipulation  |                                                 |
\*---------------------------------------------------------------------------*/
FoamFile
{
    version     2.0;
    format      ascii;
    class       surfaceScalarField;
    location    "0.0017";
    object      meshPhi;
}
// * * * * * * * * * * * * * * * * * * * * * * * * * * * * * * * * * * * * * //

dimensions      [0 3 -1 0 0 0 0];

internalField   nonuniform List<scalar> 
45800
(
6.89838e-11
6.943e-11
1.34786e-10
1.3096e-10
6.80993e-11
1.33728e-10
1.82893e-10
6.51021e-11
1.33836e-10
2.23747e-10
6.13e-11
1.34792e-10
2.53121e-10
5.7014e-11
1.36268e-10
2.709e-10
5.23536e-11
1.37912e-10
2.77253e-10
4.74294e-11
1.39368e-10
2.72689e-10
4.23633e-11
1.40282e-10
2.58112e-10
3.72801e-11
1.40323e-10
3.20269e-11
1.39207e-10
2.34733e-10
6.7672e-11
1.31521e-10
1.33712e-10
1.29228e-10
1.29861e-10
1.32567e-10
1.81485e-10
1.25131e-10
1.32518e-10
2.2285e-10
1.18442e-10
1.3326e-10
2.52721e-10
1.10576e-10
1.34488e-10
2.70977e-10
1.01892e-10
1.35875e-10
2.77789e-10
9.26191e-11
1.37079e-10
2.73688e-10
8.30027e-11
1.37766e-10
2.59636e-10
7.32684e-11
1.3762e-10
6.31248e-11
1.36372e-10
2.37115e-10
6.47993e-11
1.83436e-10
1.33805e-10
1.24535e-10
1.821e-10
1.32497e-10
1.76167e-10
1.76867e-10
1.32187e-10
2.17644e-10
1.68574e-10
1.32589e-10
2.47924e-10
1.58178e-10
1.33427e-10
2.66745e-10
1.46399e-10
1.34406e-10
2.74265e-10
1.33649e-10
1.35215e-10
2.7101e-10
1.20257e-10
1.35542e-10
2.57964e-10
1.06561e-10
1.35094e-10
9.22065e-11
1.33632e-10
2.36857e-10
6.11169e-11
2.24317e-10
1.34755e-10
1.18011e-10
2.23433e-10
1.33227e-10
1.67924e-10
2.18298e-10
1.32569e-10
2.08755e-10
2.09474e-10
1.32538e-10
2.39137e-10
1.97718e-10
1.32885e-10
2.58469e-10
1.83854e-10
1.33344e-10
2.66782e-10
1.68563e-10
1.33643e-10
2.64561e-10
1.52318e-10
1.33503e-10
2.52762e-10
1.3552e-10
1.3266e-10
1.17828e-10
1.30911e-10
2.33426e-10
5.68725e-11
2.53714e-10
1.36228e-10
1.10283e-10
2.53313e-10
1.34452e-10
1.57693e-10
2.48534e-10
1.33398e-10
1.97057e-10
2.39803e-10
1.32868e-10
2.26969e-10
2.27682e-10
1.32655e-10
2.46589e-10
2.12811e-10
1.32527e-10
2.55661e-10
1.95933e-10
1.32243e-10
2.54506e-10
1.77748e-10
1.31562e-10
2.44027e-10
1.58773e-10
1.30256e-10
1.38742e-10
1.28166e-10
2.26671e-10
5.22313e-11
2.71482e-10
1.37873e-10
1.01659e-10
2.71558e-10
1.35839e-10
1.46049e-10
2.67331e-10
1.34376e-10
1.83354e-10
2.59073e-10
1.33321e-10
2.12163e-10
2.47244e-10
1.32514e-10
2.31628e-10
2.32332e-10
1.31767e-10
2.41294e-10
2.14893e-10
1.30871e-10
2.41172e-10
1.95666e-10
1.29613e-10
2.32018e-10
1.75392e-10
1.27806e-10
1.54054e-10
1.25343e-10
2.16732e-10
4.73258e-11
2.77793e-10
1.39332e-10
9.24194e-11
2.7833e-10
1.37046e-10
1.33369e-10
2.74815e-10
1.35188e-10
1.6821e-10
2.67339e-10
1.33622e-10
1.95467e-10
2.56229e-10
1.32227e-10
2.14274e-10
2.41913e-10
1.3086e-10
2.24183e-10
2.24827e-10
1.29355e-10
2.25019e-10
2.05572e-10
1.27529e-10
2.17244e-10
1.84952e-10
1.25221e-10
1.63341e-10
1.22382e-10
2.04035e-10
4.22765e-11
2.73162e-10
1.40252e-10
8.28355e-11
2.74165e-10
1.37738e-10
1.20024e-10
2.71501e-10
1.35519e-10
1.52047e-10
2.65064e-10
1.33486e-10
1.77447e-10
2.55011e-10
1.31549e-10
1.95267e-10
2.41689e-10
1.29601e-10
2.05061e-10
2.25555e-10
1.2752e-10
2.06724e-10
2.07206e-10
1.25169e-10
2.00435e-10
1.87354e-10
1.22406e-10
1.66643e-10
1.19231e-10
1.89311e-10
3.72077e-11
2.58503e-10
1.403e-10
7.31286e-11
2.60032e-10
1.37598e-10
1.06367e-10
2.58378e-10
1.35076e-10
1.35292e-10
2.53194e-10
1.32646e-10
1.58541e-10
2.44469e-10
1.30246e-10
1.75151e-10
2.32459e-10
1.27797e-10
1.8464e-10
2.17658e-10
1.25212e-10
1.87013e-10
2.00794e-10
1.22401e-10
1.8242e-10
1.82704e-10
1.19273e-10
1.64451e-10
1.15871e-10
1.73725e-10
3.19684e-11
1.3919e-10
2.35032e-10
6.30122e-11
1.36357e-10
2.37421e-10
9.20498e-11
1.3362e-10
2.3718e-10
1.17643e-10
1.30901e-10
2.33767e-10
1.38548e-10
1.28159e-10
2.27018e-10
1.5387e-10
1.25337e-10
2.17069e-10
1.63151e-10
1.22378e-10
2.0434e-10
1.6645e-10
1.1923e-10
1.89572e-10
1.64276e-10
1.15871e-10
1.73948e-10
1.1237e-10
1.58639e-10
1.58804e-10
2.15821e-10
2.17162e-10
2.61592e-10
4.10084e-10
2.13155e-10
2.5984e-10
5.73622e-10
2.0401e-10
2.60551e-10
7.0349e-10
1.92447e-10
2.63192e-10
7.98628e-10
1.79468e-10
2.67118e-10
8.58792e-10
1.65404e-10
2.71635e-10
8.84544e-10
1.50588e-10
2.7604e-10
8.77446e-10
1.35399e-10
2.79639e-10
8.40219e-10
1.20232e-10
2.81771e-10
1.04687e-10
2.81838e-10
7.76447e-10
2.1186e-10
4.11735e-10
2.598e-10
4.0497e-10
4.06857e-10
2.57904e-10
5.69659e-10
3.92536e-10
2.58327e-10
7.01225e-10
3.72252e-10
2.60531e-10
7.98003e-10
3.48455e-10
2.63935e-10
8.59723e-10
3.22275e-10
2.67901e-10
8.86962e-10
2.94398e-10
2.7176e-10
8.81337e-10
2.65592e-10
2.74849e-10
8.45725e-10
2.36567e-10
2.7653e-10
2.06548e-10
2.76217e-10
7.84435e-10
2.0309e-10
5.75198e-10
2.60484e-10
3.90734e-10
5.71457e-10
2.58276e-10
5.53693e-10
5.55772e-10
2.58197e-10
6.85768e-10
5.30768e-10
2.59723e-10
7.8392e-10
4.9939e-10
2.62319e-10
8.47461e-10
4.63909e-10
2.65425e-10
8.76924e-10
4.2562e-10
2.68438e-10
8.73894e-10
3.85541e-10
2.70731e-10
8.4132e-10
3.44736e-10
2.71714e-10
3.02277e-10
2.70853e-10
7.84223e-10
1.91901e-10
7.0514e-10
2.63119e-10
3.70949e-10
7.02917e-10
2.6046e-10
5.28802e-10
6.87681e-10
2.59677e-10
6.59096e-10
6.61235e-10
2.60325e-10
7.57698e-10
6.25888e-10
2.6191e-10
8.22875e-10
5.84188e-10
2.6392e-10
8.54788e-10
5.38297e-10
2.65838e-10
8.549e-10
4.89718e-10
2.67108e-10
8.26069e-10
4.39709e-10
2.6719e-10
3.87421e-10
2.65632e-10
7.74273e-10
1.79051e-10
8.00343e-10
2.67044e-10
3.47583e-10
7.99717e-10
2.63868e-10
4.97919e-10
7.85696e-10
2.6226e-10
6.23883e-10
7.59651e-10
2.61871e-10
7.21212e-10
7.2334e-10
2.62296e-10
7.87357e-10
6.78729e-10
2.63074e-10
8.21588e-10
6.28115e-10
2.63735e-10
8.24913e-10
5.73732e-10
2.63813e-10
8.0004e-10
5.17276e-10
2.62848e-10
4.58133e-10
2.60484e-10
7.54189e-10
1.65042e-10
8.60469e-10
2.71565e-10
3.21583e-10
8.61404e-10
2.67839e-10
4.6286e-10
8.49169e-10
2.65371e-10
5.82667e-10
8.24644e-10
2.63874e-10
6.76752e-10
7.89287e-10
2.63043e-10
7.42539e-10
7.4465e-10
2.62512e-10
7.78612e-10
6.92446e-10
2.61859e-10
7.85019e-10
6.34953e-10
2.60658e-10
7.64086e-10
5.74611e-10
2.58546e-10
5.11644e-10
2.55301e-10
7.24447e-10
1.50281e-10
8.86098e-10
2.7598e-10
2.93806e-10
8.88527e-10
2.71706e-10
4.24791e-10
8.78528e-10
2.68393e-10
5.3724e-10
8.56428e-10
2.65802e-10
6.26681e-10
8.23268e-10
2.63702e-10
6.90526e-10
7.80437e-10
2.61827e-10
7.27394e-10
7.29346e-10
2.5985e-10
7.36673e-10
6.71811e-10
2.57388e-10
7.19785e-10
6.10392e-10
2.54109e-10
5.46584e-10
2.49949e-10
6.86348e-10
1.35142e-10
8.78809e-10
2.79595e-10
2.65095e-10
8.82718e-10
2.74808e-10
3.84852e-10
8.75327e-10
2.70698e-10
4.88916e-10
8.56384e-10
2.67082e-10
5.72828e-10
8.26416e-10
2.63792e-10
6.33694e-10
7.86551e-10
2.60624e-10
6.70197e-10
7.38262e-10
2.57354e-10
6.81925e-10
6.83398e-10
2.53686e-10
6.69374e-10
6.24193e-10
2.49314e-10
5.62942e-10
2.4429e-10
6.4209e-10
1.20016e-10
8.4135e-10
2.81742e-10
2.3615e-10
8.46879e-10
2.76504e-10
3.44157e-10
8.42535e-10
2.71692e-10
4.39033e-10
8.27351e-10
2.67173e-10
5.16592e-10
8.01362e-10
2.62834e-10
5.73871e-10
7.65406e-10
2.58526e-10
6.09398e-10
7.21025e-10
2.54078e-10
6.23119e-10
6.70459e-10
2.49295e-10
6.15425e-10
6.16301e-10
2.43964e-10
5.62006e-10
2.38229e-10
5.95126e-10
1.04511e-10
2.81823e-10
7.77319e-10
2.0621e-10
2.76205e-10
7.85334e-10
3.01807e-10
2.70843e-10
7.85182e-10
3.86866e-10
2.65624e-10
7.75292e-10
4.57551e-10
2.60476e-10
7.55235e-10
5.11085e-10
2.5529e-10
7.25465e-10
5.45998e-10
2.49937e-10
6.87271e-10
5.62335e-10
2.44281e-10
6.42882e-10
5.61449e-10
2.38225e-10
5.95802e-10
2.31914e-10
5.49584e-10
5.50089e-10
3.86444e-10
3.88657e-10
3.67508e-10
7.35556e-10
3.81921e-10
3.65852e-10
1.03191e-09
3.66324e-10
3.68355e-10
1.27107e-09
3.46718e-10
3.74302e-10
1.45173e-09
3.24861e-10
3.82752e-10
1.57376e-09
3.01316e-10
3.92694e-10
1.63819e-09
2.76656e-10
4.03107e-10
1.64759e-09
2.5154e-10
4.12967e-10
1.60636e-09
2.26673e-10
4.21255e-10
2.01453e-10
4.26992e-10
1.5201e-09
3.79764e-10
7.38186e-10
3.65785e-10
7.27271e-10
7.30336e-10
3.63934e-10
1.02606e-09
7.06197e-10
3.66009e-10
1.26854e-09
6.71946e-10
3.71262e-10
1.45237e-09
6.3194e-10
3.78865e-10
1.57737e-09
5.88195e-10
3.87898e-10
1.6446e-09
5.41875e-10
3.97386e-10
1.65671e-09
4.94317e-10
4.06342e-10
1.61831e-09
4.46783e-10
4.13775e-10
3.98046e-10
4.18661e-10
1.53596e-09
3.64786e-10
1.03435e-09
3.68254e-10
7.03208e-10
1.0289e-09
3.65929e-10
9.99545e-10
1.00292e-09
3.67241e-10
1.2434e-09
9.61074e-10
3.71436e-10
1.42997e-09
9.0853e-10
3.77742e-10
1.55836e-09
8.49359e-10
3.8537e-10
1.62957e-09
7.85869e-10
3.93444e-10
1.64615e-09
7.19812e-10
4.01023e-10
1.61283e-09
6.53058e-10
4.0717e-10
5.84155e-10
4.1093e-10
1.53732e-09
3.45837e-10
1.2736e-09
3.74207e-10
6.69788e-10
1.27116e-09
3.71162e-10
9.57805e-10
1.24642e-09
3.71364e-10
1.19916e-09
1.20264e-09
3.74177e-10
1.38692e-09
1.14383e-09
3.78867e-10
1.51834e-09
1.07447e-09
3.84706e-10
1.59382e-09
9.98449e-10
3.90952e-10
1.6157e-09
9.18489e-10
3.96772e-10
1.58857e-09
8.36777e-10
4.01302e-10
7.5199e-10
4.03697e-10
1.52179e-09
3.24203e-10
1.45435e-09
3.82665e-10
6.30539e-10
1.45501e-09
3.78783e-10
9.0609e-10
1.43273e-09
3.7766e-10
1.14048e-09
1.39001e-09
3.78807e-10
1.32651e-09
1.32999e-09
3.81632e-10
1.45983e-09
1.25608e-09
3.85457e-10
1.53927e-09
1.17233e-09
3.89601e-10
1.56649e-09
1.0828e-09
3.93368e-10
1.54584e-09
9.9061e-10
3.96033e-10
8.94805e-10
3.96886e-10
1.48887e-09
3.00742e-10
1.57631e-09
3.9262e-10
5.871e-10
1.57994e-09
3.87831e-10
8.47666e-10
1.56101e-09
3.85308e-10
1.07193e-09
1.52113e-09
3.84642e-10
1.25275e-09
1.46292e-09
3.85406e-10
1.38574e-09
1.38923e-09
3.87074e-10
1.46836e-09
1.30304e-09
3.89007e-10
1.50059e-09
1.20833e-09
3.9056e-10
1.48628e-09
1.10967e-09
3.91164e-10
1.00769e-09
3.9033e-10
1.43949e-09
2.76167e-10
1.64054e-09
4.03054e-10
5.40934e-10
1.64699e-09
3.97338e-10
7.84549e-10
1.63206e-09
3.93404e-10
9.96743e-10
1.59641e-09
3.90916e-10
1.1699e-09
1.54195e-09
3.89551e-10
1.29971e-09
1.47129e-09
3.88944e-10
1.38375e-09
1.38702e-09
3.88618e-10
1.42063e-09
1.29224e-09
3.87951e-10
1.41263e-09
1.19156e-09
3.86407e-10
1.08801e-09
3.8378e-10
1.37587e-09
2.51129e-10
1.64967e-09
4.12941e-10
4.93526e-10
1.65883e-09
4.06319e-10
7.18718e-10
1.64838e-09
4.01004e-10
9.17227e-10
1.61805e-09
3.96757e-10
1.08134e-09
1.5689e-09
3.93346e-10
1.20612e-09
1.50303e-09
3.90492e-10
1.28938e-09
1.42318e-09
3.87875e-10
1.33006e-09
1.33255e-09
3.85003e-10
1.32871e-09
1.23509e-09
3.81351e-10
1.13526e-09
3.76927e-10
1.30163e-09
2.26326e-10
1.60809e-09
4.21258e-10
4.46115e-10
1.6201e-09
4.13778e-10
6.52134e-10
1.61475e-09
4.07173e-10
8.35704e-10
1.59062e-09
4.01301e-10
9.89539e-10
1.54798e-09
3.96026e-10
1.10844e-09
1.48842e-09
3.91128e-10
1.1898e-09
1.41464e-09
3.8634e-10
1.23321e-09
1.33049e-09
3.81306e-10
1.23902e-09
1.2405e-09
3.75633e-10
1.15094e-09
3.69471e-10
1.2224e-09
2.01167e-10
4.27017e-10
1.52146e-09
3.97498e-10
4.18685e-10
1.53737e-09
5.83396e-10
4.10951e-10
1.53885e-09
7.51095e-10
4.0371e-10
1.52344e-09
8.93868e-10
3.96887e-10
1.49059e-09
1.00678e-09
3.90317e-10
1.44117e-09
1.08703e-09
3.83756e-10
1.37739e-09
1.13421e-09
3.76902e-10
1.30294e-09
1.14995e-09
3.69452e-10
1.22351e-09
3.61542e-10
1.14514e-09
1.14599e-09
5.91564e-10
5.94569e-10
4.35602e-10
1.12866e-09
5.85087e-10
4.35236e-10
1.58923e-09
5.62756e-10
4.4121e-10
1.96798e-09
5.34875e-10
4.52634e-10
2.26411e-09
5.04043e-10
4.68316e-10
2.47784e-09
4.71097e-10
4.86982e-10
2.61076e-09
4.3686e-10
5.0734e-10
2.66623e-09
4.02302e-10
5.28064e-10
2.64977e-09
3.68471e-10
5.4776e-10
3.34565e-10
5.64985e-10
2.56818e-09
5.82122e-10
1.13204e-09
4.35148e-10
1.11761e-09
1.12165e-09
4.3451e-10
1.58257e-09
1.08753e-09
4.39876e-10
1.96686e-09
1.03901e-09
4.50299e-10
2.26824e-09
9.82705e-10
4.64748e-10
2.48685e-09
9.21651e-10
4.82071e-10
2.62431e-09
8.57505e-10
5.0103e-10
2.68406e-09
7.92215e-10
5.20334e-10
2.67186e-09
7.27638e-10
5.38598e-10
6.62029e-10
5.54227e-10
2.59531e-09
5.60639e-10
1.59224e-09
4.4109e-10
1.0835e-09
1.58615e-09
4.39778e-10
1.54584e-09
1.55029e-09
4.44063e-10
1.93311e-09
1.49169e-09
4.52979e-10
2.23919e-09
1.41813e-09
4.65562e-10
2.46324e-09
1.33578e-09
4.80832e-10
2.60675e-09
1.2481e-09
4.9768e-10
2.67298e-09
1.15762e-09
5.14851e-10
2.66789e-09
1.06705e-09
5.31018e-10
9.74311e-10
5.44637e-10
2.6006e-09
5.33727e-10
1.97107e-09
4.5254e-10
1.03612e-09
1.97009e-09
4.50188e-10
1.48725e-09
1.93694e-09
4.52892e-10
1.87196e-09
1.87658e-09
4.59844e-10
2.18058e-09
1.79496e-09
4.70106e-10
2.40944e-09
1.69875e-09
4.82762e-10
2.55924e-09
1.59392e-09
4.96883e-10
2.63292e-09
1.48456e-09
5.11355e-10
2.6363e-09
1.37384e-09
5.24936e-10
1.25979e-09
5.36198e-10
2.58094e-09
5.03226e-10
2.26725e-09
4.68245e-10
9.80923e-10
2.27143e-09
4.64675e-10
1.41485e-09
2.24257e-09
4.65472e-10
1.79038e-09
2.1845e-09
4.70029e-10
2.0973e-09
2.10193e-09
4.77593e-10
2.32936e-09
1.99994e-09
4.87298e-10
2.48483e-09
1.88457e-09
4.98275e-10
2.56583e-09
1.76203e-09
5.09598e-10
2.57794e-09
1.63714e-09
5.20222e-10
1.50835e-09
5.28865e-10
2.53595e-09
4.70381e-10
2.48087e-09
4.86935e-10
9.20295e-10
2.48993e-09
4.82029e-10
1.33361e-09
2.46647e-09
4.80783e-10
1.69532e-09
2.41291e-09
4.82693e-10
1.99534e-09
2.33332e-09
4.8723e-10
2.22738e-09
2.23208e-09
4.93741e-10
2.38742e-09
2.1136e-09
5.01389e-10
2.47508e-09
1.98375e-09
5.09291e-10
2.49538e-09
1.84971e-09
5.16629e-10
1.71249e-09
5.22405e-10
2.46709e-09
4.36252e-10
2.61355e-09
5.0733e-10
8.56337e-10
2.62717e-09
5.01021e-10
1.24647e-09
2.60978e-09
4.9767e-10
1.59176e-09
2.56247e-09
4.96864e-10
1.88126e-09
2.48822e-09
4.98215e-10
2.10888e-09
2.39116e-09
5.0129e-10
2.27091e-09
2.27538e-09
5.05476e-10
2.36462e-09
2.14525e-09
5.09888e-10
2.39269e-09
2.00772e-09
5.13722e-10
1.86775e-09
5.16396e-10
2.37751e-09
4.01793e-10
2.66869e-09
5.28098e-10
7.9124e-10
2.6866e-09
5.20366e-10
1.15628e-09
2.67572e-09
5.14876e-10
1.48305e-09
2.63586e-09
5.1137e-10
1.76024e-09
2.56889e-09
5.09583e-10
1.98063e-09
2.47812e-09
5.0918e-10
2.1411e-09
2.36784e-09
5.09754e-10
2.23931e-09
2.24269e-09
5.10569e-10
2.27522e-09
2.10847e-09
5.10816e-10
1.97237e-09
5.10255e-10
2.27214e-09
3.6804e-10
2.65186e-09
5.47839e-10
7.26811e-10
2.67403e-09
5.3867e-10
1.06591e-09
2.67027e-09
5.31077e-10
1.37255e-09
2.6389e-09
5.24972e-10
1.6359e-09
2.58067e-09
5.2023e-10
1.84812e-09
2.4981e-09
5.1657e-10
2.0052e-09
2.39522e-09
5.13603e-10
2.10578e-09
2.27751e-09
5.10737e-10
2.14956e-09
2.15157e-09
5.0732e-10
2.02699e-09
5.03311e-10
2.15854e-09
3.34207e-10
5.65096e-10
2.56985e-09
6.61347e-10
5.54329e-10
2.59708e-09
9.73374e-10
5.4472e-10
2.60255e-09
1.25869e-09
5.36253e-10
2.58307e-09
1.50721e-09
5.28886e-10
2.53817e-09
1.71137e-09
5.22387e-10
2.46927e-09
1.86649e-09
5.16353e-10
2.37949e-09
1.97092e-09
5.10205e-10
2.27383e-09
2.02558e-09
5.0327e-10
2.15997e-09
4.95518e-10
2.04665e-09
2.04778e-09
8.35752e-10
8.39446e-10
4.45607e-10
1.59864e-09
8.27328e-10
4.47943e-10
2.25977e-09
7.9809e-10
4.59181e-10
2.81392e-09
7.61873e-10
4.78236e-10
3.26167e-09
7.22251e-10
5.03735e-10
3.60403e-09
6.80354e-10
5.34238e-10
3.84314e-09
6.37264e-10
5.68283e-10
3.98284e-09
5.94278e-10
6.04318e-10
4.02902e-09
5.52815e-10
6.40608e-10
5.11853e-10
6.75238e-10
3.98835e-09
8.23635e-10
1.60244e-09
4.47844e-10
1.58547e-09
1.59019e-09
4.49783e-10
2.25372e-09
1.54621e-09
4.60176e-10
2.81637e-09
1.48351e-09
4.77887e-10
3.27215e-09
1.41138e-09
5.01737e-10
3.62189e-09
1.33401e-09
5.30422e-10
3.86779e-09
1.25354e-09
5.62531e-10
4.01375e-09
1.17258e-09
5.96535e-10
4.06585e-09
1.09358e-09
6.30674e-10
1.01415e-09
6.62718e-10
4.03098e-09
7.95481e-10
2.26292e-09
4.59059e-10
1.54138e-09
2.25764e-09
4.60074e-10
2.20761e-09
2.21279e-09
4.69004e-10
2.77575e-09
2.13816e-09
4.84709e-10
3.23892e-09
2.04455e-09
5.06077e-10
3.59669e-09
1.94058e-09
5.32004e-10
3.8511e-09
1.83101e-09
5.61221e-10
4.00568e-09
1.71914e-09
5.92214e-10
4.06683e-09
1.60853e-09
6.23265e-10
1.49627e-09
6.5214e-10
4.04326e-09
7.60589e-10
2.81706e-09
4.78164e-10
1.48012e-09
2.81972e-09
4.77787e-10
2.13282e-09
2.77992e-09
4.84619e-10
2.69922e-09
2.7046e-09
4.9772e-10
3.16703e-09
2.60187e-09
5.16001e-10
3.53186e-09
2.48092e-09
5.38419e-10
3.79477e-09
2.35016e-09
5.63914e-10
3.9589e-09
2.21523e-09
5.91126e-10
4.03051e-09
2.08021e-09
6.1843e-10
1.94222e-09
6.43675e-10
4.02162e-09
7.21418e-10
3.26477e-09
5.03705e-10
1.40947e-09
3.27534e-09
5.01696e-10
2.0407e-09
3.24238e-09
5.05998e-10
2.59634e-09
3.17127e-09
5.15918e-10
3.06317e-09
3.06855e-09
5.30593e-10
3.43294e-09
2.94118e-09
5.49031e-10
3.70328e-09
2.79743e-09
5.70223e-10
3.87646e-09
2.64607e-09
5.93039e-10
3.95855e-09
2.49377e-09
6.16095e-10
2.33802e-09
6.37349e-10
3.96602e-09
6.79625e-10
3.60696e-09
5.34251e-10
1.33264e-09
3.62492e-09
5.30432e-10
1.93826e-09
3.59995e-09
5.3199e-10
2.47692e-09
3.53546e-09
5.38359e-10
2.93561e-09
3.43726e-09
5.48954e-10
3.30603e-09
3.31155e-09
5.63043e-10
3.58235e-09
3.16431e-09
5.79642e-10
3.76336e-09
3.00348e-09
5.97654e-10
3.85473e-09
2.8393e-09
6.15977e-10
2.67305e-09
6.32867e-10
3.87859e-09
6.36653e-10
3.84582e-09
5.6835e-10
1.25238e-09
3.87059e-09
5.62591e-10
1.82939e-09
3.85415e-09
5.61266e-10
2.34794e-09
3.79811e-09
5.63928e-10
2.79356e-09
3.70684e-09
5.70162e-10
3.15839e-09
3.58635e-09
5.7951e-10
3.4372e-09
3.4425e-09
5.91264e-10
3.62507e-09
3.28092e-09
6.0429e-10
3.72444e-09
3.1111e-09
6.17474e-10
2.94029e-09
6.29595e-10
3.76334e-09
5.93778e-10
3.98521e-09
6.0445e-10
1.17163e-09
4.01625e-09
5.96654e-10
1.71786e-09
4.00844e-09
5.92308e-10
2.21387e-09
3.96193e-09
5.91187e-10
2.64436e-09
3.87963e-09
5.93037e-10
2.99965e-09
3.76641e-09
5.97495e-10
3.27561e-09
3.62838e-09
6.0409e-10
3.46774e-09
3.47166e-09
6.11827e-10
3.57454e-09
3.30392e-09
6.19575e-10
3.13572e-09
6.26588e-10
3.62628e-09
5.52396e-10
4.03107e-09
6.40802e-10
1.09278e-09
4.06804e-09
6.30849e-10
1.60746e-09
4.06928e-09
6.23404e-10
2.07905e-09
4.03323e-09
6.18517e-10
2.49277e-09
3.96141e-09
6.16121e-10
2.8377e-09
3.85751e-09
6.15886e-10
3.10799e-09
3.72698e-09
6.17292e-10
3.30061e-09
3.57692e-09
6.19455e-10
3.41372e-09
3.41599e-09
6.21409e-10
3.25769e-09
6.22668e-10
3.47648e-09
5.11507e-10
6.75471e-10
3.99006e-09
1.0135e-09
6.62929e-10
4.03282e-09
1.49539e-09
6.52309e-10
4.04532e-09
1.94123e-09
6.43786e-10
4.02389e-09
2.33702e-09
6.37394e-10
3.9684e-09
2.67204e-09
6.32841e-10
3.8809e-09
2.93903e-09
6.29526e-10
3.76542e-09
3.13406e-09
6.26506e-10
3.62804e-09
3.25599e-09
6.22598e-10
3.47795e-09
6.17405e-10
3.32689e-09
3.32814e-09
1.11598e-09
1.12026e-09
3.76074e-10
2.13961e-09
1.10572e-09
3.82483e-10
3.03592e-09
1.06959e-09
4.00383e-10
3.80089e-09
1.02531e-09
4.28477e-10
4.43744e-09
9.7757e-10
4.65311e-10
4.94784e-09
9.27771e-10
5.09431e-10
5.33504e-09
8.77255e-10
5.59364e-10
5.60306e-09
8.27667e-10
6.13489e-10
5.75739e-09
7.80823e-10
6.69857e-10
7.35427e-10
7.26209e-10
5.80322e-09
1.10138e-09
2.14354e-09
3.8239e-10
2.12512e-09
2.13029e-09
3.88214e-10
3.03211e-09
2.07705e-09
4.0499e-10
3.8094e-09
2.001e-09
4.3141e-10
4.45746e-09
1.91448e-09
4.66215e-10
4.97838e-09
1.82294e-09
5.08071e-10
5.37516e-09
1.72903e-09
5.55549e-10
5.65184e-09
1.63601e-09
6.07026e-10
5.814e-09
1.547e-09
6.60481e-10
1.45871e-09
7.1314e-10
5.86586e-09
1.06663e-09
3.03869e-09
4.00279e-10
2.07163e-09
3.03591e-09
4.04901e-10
2.97814e-09
2.98365e-09
4.19802e-10
3.76439e-09
2.89477e-09
4.43722e-10
4.42332e-09
2.78343e-09
4.75475e-10
4.95546e-09
2.66104e-09
5.13924e-10
5.36356e-09
2.53381e-09
5.57768e-10
5.6511e-09
2.40583e-09
6.05364e-10
5.82407e-09
2.28151e-09
6.54702e-10
2.15674e-09
7.02907e-10
5.88865e-09
1.02408e-09
3.80346e-09
4.28441e-10
1.99739e-09
3.81224e-09
4.31338e-10
2.88887e-09
3.76831e-09
4.43646e-10
3.67519e-09
3.68083e-09
4.64347e-10
4.34172e-09
3.56029e-09
4.92295e-10
4.88369e-09
3.41872e-09
5.26412e-10
5.3027e-09
3.26732e-09
5.65603e-10
5.60175e-09
3.11344e-09
6.08369e-10
5.78674e-09
2.96205e-09
6.52782e-10
2.80882e-09
6.95971e-10
5.86805e-09
9.76907e-10
4.43982e-09
4.65338e-10
1.91279e-09
4.45999e-09
4.66221e-10
2.77941e-09
4.42619e-09
4.75425e-10
3.55426e-09
4.34561e-09
4.92222e-10
4.22133e-09
4.2269e-09
5.15717e-10
4.77052e-09
4.07907e-09
5.44892e-10
5.19878e-09
3.91296e-09
5.78697e-10
5.50829e-09
3.74019e-09
6.1587e-10
5.70489e-09
3.5695e-09
6.54749e-10
3.39671e-09
6.92475e-10
5.80469e-09
9.27201e-10
4.95e-09
5.0952e-10
1.8219e-09
4.98069e-09
5.08148e-10
2.65902e-09
4.95805e-09
5.13957e-10
3.41462e-09
4.88671e-09
5.26376e-10
4.073e-09
4.77448e-09
5.44818e-10
4.62401e-09
4.62975e-09
5.68557e-10
5.05972e-09
4.46023e-09
5.96563e-10
5.37773e-09
4.27611e-09
6.27603e-10
5.58374e-09
4.09112e-09
6.60319e-10
3.90628e-09
6.92084e-10
5.70148e-09
8.76798e-10
5.33696e-09
5.59526e-10
1.72817e-09
5.37725e-09
5.55693e-10
2.53266e-09
5.36595e-09
5.57877e-10
3.26558e-09
5.30545e-09
5.65657e-10
3.90902e-09
5.20177e-09
5.78646e-10
4.45352e-09
5.06323e-09
5.96411e-10
4.89221e-09
4.89776e-09
6.18231e-10
5.21723e-09
4.71223e-09
6.42807e-10
5.43005e-09
4.51891e-09
6.68741e-10
4.32724e-09
6.93954e-10
5.56319e-09
8.27321e-10
5.60478e-09
6.13733e-10
1.63538e-09
5.65372e-09
6.07243e-10
2.40504e-09
5.65326e-09
6.05534e-10
3.11279e-09
5.60419e-09
6.08477e-10
3.73916e-09
5.51085e-09
6.1588e-10
4.27197e-09
5.37995e-09
6.27403e-10
4.70608e-09
5.2198e-09
6.42549e-10
5.03408e-09
5.03797e-09
6.60115e-10
5.252e-09
4.84404e-09
6.78682e-10
4.65218e-09
6.96752e-10
5.39656e-09
7.8055e-10
5.75895e-09
6.7018e-10
1.54649e-09
5.81571e-09
6.6077e-10
2.28089e-09
5.82603e-09
6.54927e-10
2.96151e-09
5.78895e-09
6.5292e-10
3.56933e-09
5.70718e-09
6.54789e-10
4.08999e-09
5.58583e-09
6.60191e-10
4.51556e-09
5.43185e-09
6.68494e-10
4.84047e-09
5.25384e-09
6.78524e-10
5.06041e-09
5.06252e-09
6.89e-10
4.87547e-09
6.98735e-10
5.21152e-09
7.35213e-10
7.26575e-10
5.80464e-09
1.45832e-09
7.13468e-10
5.86739e-09
2.15625e-09
7.03166e-10
5.8904e-09
2.80833e-09
6.96137e-10
5.86998e-09
3.3963e-09
6.92539e-10
5.80667e-09
3.90583e-09
6.92043e-10
5.70335e-09
4.32639e-09
6.93854e-10
5.56483e-09
4.65063e-09
6.96637e-10
5.39792e-09
4.87371e-09
6.98634e-10
5.21262e-09
6.98866e-10
5.0238e-09
5.02488e-09
1.42007e-09
1.42483e-09
2.08173e-10
2.72834e-09
1.4082e-09
2.19696e-10
3.88497e-09
1.36563e-09
2.44735e-10
4.88846e-09
1.31414e-09
2.8178e-10
5.74501e-09
1.25961e-09
3.29443e-10
6.45894e-09
1.20368e-09
3.86445e-10
7.03437e-09
1.14798e-09
4.51512e-10
7.47551e-09
1.09454e-09
5.23184e-10
7.78691e-09
1.04562e-09
5.9954e-10
9.99512e-10
6.78256e-10
7.97121e-09
1.40334e-09
2.73207e-09
2.19629e-10
2.71345e-09
2.7188e-09
2.30335e-10
3.88509e-09
2.65757e-09
2.53968e-10
4.90544e-09
2.57002e-09
2.89094e-10
5.77763e-09
2.47175e-09
3.34472e-10
6.50574e-09
2.36954e-09
3.88905e-10
7.09403e-09
2.26662e-09
4.51141e-10
7.54661e-09
2.16697e-09
5.19683e-10
7.86791e-09
2.07436e-09
5.92489e-10
1.98428e-09
6.66521e-10
8.05778e-09
1.36249e-09
3.88684e-09
2.44668e-10
2.65183e-09
3.88828e-09
2.53911e-10
3.82546e-09
3.83088e-09
2.75295e-10
4.85916e-09
3.73071e-09
3.07537e-10
5.74643e-09
3.60555e-09
3.4948e-10
6.48947e-09
3.46983e-09
4.00073e-10
7.09217e-09
3.33137e-09
4.58155e-10
7.55784e-09
3.19512e-09
5.22166e-10
7.8914e-09
3.06632e-09
5.90021e-10
2.93904e-09
6.5846e-10
8.09461e-09
1.31317e-09
4.88982e-09
2.81787e-10
2.56651e-09
4.90715e-09
2.89067e-10
3.72468e-09
4.86222e-09
3.07492e-10
4.76127e-09
4.7666e-09
3.36066e-10
5.65993e-09
4.63334e-09
3.73708e-10
6.41609e-09
4.47756e-09
4.19428e-10
7.03229e-09
4.31356e-09
4.72229e-10
7.51124e-09
4.15057e-09
5.30652e-10
7.85784e-09
3.99443e-09
5.92668e-10
3.83837e-09
6.54894e-10
8.07885e-09
1.25931e-09
5.74602e-09
3.29527e-10
2.47062e-09
5.77881e-09
3.34528e-10
3.60181e-09
5.748e-09
3.49471e-10
4.62732e-09
5.66278e-09
3.73659e-10
5.52899e-09
5.53409e-09
4.0627e-10
6.29523e-09
5.37327e-09
4.46398e-10
6.92262e-09
5.19398e-09
4.93088e-10
7.4131e-09
5.01103e-09
5.45083e-10
7.77177e-09
4.83534e-09
6.00603e-10
4.65979e-09
6.5612e-10
8.01223e-09
1.20345e-09
6.45965e-09
3.86607e-10
2.3692e-09
6.50664e-09
3.89044e-10
3.46861e-09
6.49066e-09
4.00153e-10
4.47391e-09
6.41777e-09
4.19424e-10
5.36728e-09
6.29809e-09
4.46343e-10
6.13716e-09
6.14246e-09
4.80289e-10
6.77363e-09
5.96056e-09
5.20339e-10
7.27286e-09
5.76508e-09
5.65273e-10
7.64009e-09
5.5736e-09
6.13586e-10
5.38551e-09
6.6181e-10
7.89861e-09
1.14785e-09
7.0349e-09
4.51759e-10
2.26641e-09
7.09474e-09
4.51359e-10
3.33117e-09
7.09319e-09
4.58318e-10
4.3129e-09
7.03367e-09
4.72317e-10
5.19057e-09
6.92421e-09
4.93055e-10
5.95358e-09
6.77579e-09
5.20191e-10
6.59364e-09
6.59876e-09
5.53096e-10
7.09948e-09
6.40132e-09
5.9048e-10
7.47096e-09
6.19867e-09
6.30777e-10
6.00148e-09
6.70968e-10
7.74338e-09
1.09451e-09
7.47601e-09
5.23522e-10
2.16696e-09
7.54726e-09
5.19982e-10
3.19527e-09
7.55873e-09
5.22395e-10
4.1512e-09
7.51234e-09
5.30792e-10
5.01133e-09
7.41422e-09
5.45099e-10
5.76114e-09
7.27332e-09
5.65051e-10
6.39479e-09
7.10041e-09
5.90192e-10
6.90135e-09
6.90456e-09
6.19244e-10
7.27363e-09
6.69731e-09
6.5063e-10
6.49582e-09
6.81943e-10
7.55356e-09
1.04564e-09
7.7875e-09
5.99966e-10
2.07444e-09
7.86863e-09
5.92865e-10
3.06657e-09
7.8923e-09
5.90309e-10
3.99503e-09
7.85886e-09
5.92838e-10
4.8366e-09
7.77272e-09
6.00642e-10
5.57346e-09
7.64064e-09
6.13419e-10
6.19551e-09
7.47117e-09
6.30482e-10
6.69391e-09
7.27425e-09
6.50448e-10
7.06108e-09
7.06256e-09
6.71814e-10
6.85721e-09
6.92499e-10
7.33904e-09
9.99563e-10
6.78725e-10
7.97198e-09
1.98441e-09
6.66936e-10
8.05863e-09
2.9393e-09
6.58781e-10
8.09557e-09
3.83884e-09
6.55092e-10
8.07987e-09
4.66046e-09
6.56187e-10
8.01319e-09
5.38608e-09
6.61747e-10
7.89939e-09
6.00146e-09
6.70837e-10
7.74397e-09
6.49473e-09
6.81802e-10
7.55396e-09
6.85565e-09
6.92374e-10
7.33932e-09
7.00817e-10
7.11768e-09
7.11831e-09
1.72665e-09
1.73171e-09
-6.92409e-11
3.32371e-09
1.71351e-09
-5.21705e-11
4.74792e-09
1.66551e-09
-2.08491e-11
6.00146e-09
1.60828e-09
2.30387e-11
7.09481e-09
1.54885e-09
7.8322e-11
8.03515e-09
1.48918e-09
1.44093e-10
8.82843e-09
1.43119e-09
2.19487e-10
9.4794e-09
1.37734e-09
3.03455e-10
9.99149e-09
1.3304e-09
3.94436e-10
1.28805e-09
4.90457e-10
1.03644e-08
1.70832e-09
3.32692e-09
-5.21895e-11
3.30942e-09
3.31464e-09
-3.61692e-11
4.75342e-09
3.24731e-09
-6.46907e-12
6.02876e-09
3.15104e-09
3.54269e-11
7.14223e-09
3.04471e-09
8.84019e-11
8.10075e-09
2.93646e-09
1.51562e-10
8.91042e-09
2.83016e-09
2.24037e-10
9.57578e-09
2.73061e-09
3.04708e-10
1.00999e-08
2.64229e-09
3.91843e-10
2.5589e-09
4.82617e-10
1.04773e-08
1.66236e-09
4.74846e-09
-2.08596e-11
3.24157e-09
4.75558e-09
-6.47617e-12
4.69079e-09
4.6957e-09
2.07421e-11
5.9845e-09
4.58814e-09
5.96091e-11
7.11775e-09
4.45437e-09
1.09106e-10
8.09522e-09
4.31191e-09
1.68391e-10
8.92254e-09
4.17032e-09
2.36624e-10
9.60311e-09
4.03549e-09
3.12582e-10
1.01405e-08
3.91357e-09
3.94425e-10
3.7958e-09
4.78975e-10
1.05308e-08
1.60773e-09
6.00112e-09
2.3089e-11
3.14796e-09
6.02884e-09
3.54553e-11
4.58241e-09
5.98622e-09
5.96116e-11
5.88273e-09
5.88726e-09
9.46834e-11
7.03185e-09
5.74769e-09
1.39801e-10
8.02612e-09
5.58587e-09
1.94185e-10
8.86962e-09
5.41941e-09
2.57077e-10
9.56499e-09
5.25952e-09
3.27283e-10
1.01159e-08
5.11294e-09
4.0298e-10
4.96905e-09
4.80703e-10
1.05239e-08
1.54909e-09
7.09392e-09
7.8454e-11
3.04447e-09
7.14153e-09
8.85028e-11
4.45134e-09
7.11747e-09
1.09147e-10
5.7422e-09
7.03308e-09
1.39793e-10
6.89765e-09
6.90173e-09
1.79801e-10
7.90541e-09
6.73724e-09
2.28523e-10
8.7622e-09
6.55638e-09
2.85244e-10
9.46992e-09
6.37738e-09
3.48899e-10
1.00327e-08
6.21338e-09
4.1784e-10
6.05239e-09
4.88265e-10
1.04598e-08
1.48945e-09
8.0339e-09
1.44308e-10
2.9371e-09
8.09969e-09
1.51745e-10
4.31191e-09
8.09443e-09
1.68507e-10
5.58319e-09
8.02584e-09
1.9422e-10
6.73189e-09
7.90655e-09
2.28502e-10
7.74578e-09
7.75007e-09
2.70943e-10
8.61354e-09
7.56833e-09
3.20898e-10
9.33002e-09
7.37685e-09
3.77356e-10
9.89976e-09
7.19712e-09
4.38857e-10
7.02468e-09
5.01396e-10
1.03436e-08
1.43152e-09
8.82708e-09
2.19787e-10
2.83088e-09
8.90924e-09
2.24299e-10
4.17148e-09
8.92162e-09
2.36816e-10
5.42034e-09
8.869e-09
2.57182e-10
6.55408e-09
8.76172e-09
2.85238e-10
7.56162e-09
8.61371e-09
3.20786e-10
8.43389e-09
8.43801e-09
3.63409e-10
9.15628e-09
8.24441e-09
4.1206e-10
9.72664e-09
8.05122e-09
4.65219e-10
7.868e-09
5.19075e-10
1.0181e-08
1.37775e-09
9.47822e-09
3.03843e-10
2.73148e-09
9.57473e-09
3.05046e-10
4.03695e-09
9.60219e-09
3.12833e-10
5.26191e-09
9.56412e-09
3.27426e-10
6.37954e-09
9.46888e-09
3.48909e-10
7.37357e-09
9.32796e-09
3.77144e-10
8.23797e-09
9.15485e-09
4.11789e-10
8.95818e-09
8.96015e-09
4.51696e-10
9.52347e-09
8.75758e-09
4.95366e-10
8.56529e-09
5.39519e-10
9.97895e-09
1.33083e-09
9.99075e-09
3.94905e-10
2.64319e-09
1.00992e-08
3.92252e-10
3.91501e-09
1.01399e-08
3.94728e-10
5.11509e-09
1.01151e-08
4.03146e-10
6.21651e-09
1.00316e-08
4.17856e-10
7.19839e-09
9.89805e-09
4.38661e-10
8.04863e-09
9.72459e-09
4.64911e-10
8.75474e-09
9.52232e-09
4.95186e-10
9.30537e-09
9.30585e-09
5.27961e-10
9.0981e-09
5.60232e-10
9.74628e-09
1.28848e-09
4.90959e-10
1.03643e-08
2.55975e-09
4.83056e-10
1.04771e-08
3.79709e-09
4.79304e-10
1.05306e-08
4.9708e-09
4.80894e-10
1.05236e-08
6.05448e-09
4.88311e-10
1.04593e-08
7.0266e-09
5.01303e-10
1.03427e-08
7.86912e-09
5.18919e-10
1.018e-08
8.56493e-09
5.39366e-10
9.97796e-09
9.09695e-09
5.601e-10
9.74537e-09
5.78595e-10
9.50185e-09
9.50179e-09
2.00668e-09
2.01187e-09
-4.54355e-10
3.86919e-09
1.9927e-09
-4.32045e-10
5.5425e-09
1.94067e-09
-3.96716e-10
7.03322e-09
1.87956e-09
-3.50143e-10
8.35674e-09
1.81746e-09
-2.9316e-10
9.52383e-09
1.75662e-09
-2.26187e-10
1.0543e-08
1.69934e-09
-1.4955e-10
1.14203e-08
1.64858e-09
-6.37028e-11
1.21584e-08
1.60763e-09
3.04509e-11
1.57335e-09
1.31735e-10
1.27549e-08
1.98734e-09
3.87168e-09
-4.32e-10
3.85629e-09
3.86115e-09
-4.10913e-10
5.55409e-09
3.78995e-09
-3.77274e-10
7.07144e-09
3.68831e-09
-3.32517e-10
8.41948e-09
3.57807e-09
-2.77552e-10
9.60866e-09
3.46871e-09