/*--------------------------------*- C++ -*----------------------------------*\
| =========                 |                                                 |
| \\      /  F ield         | foam-extend: Open Source CFD                    |
|  \\    /   O peration     | Version:     3.1                                |
|   \\  /    A nd           | Web:         http://www.extend-project.de       |
|    \\/     M anipulation  |                                                 |
\*---------------------------------------------------------------------------*/
FoamFile
{
    version     2.0;
    format      ascii;
    class       volScalarField;
    location    "0.0017";
    object      p;
}
// * * * * * * * * * * * * * * * * * * * * * * * * * * * * * * * * * * * * * //

dimensions      [0 2 -2 0 0 0 0];

internalField   nonuniform List<scalar> 
16000
(
1.32268
1.32277
1.32298
1.32328
1.32368
1.32417
1.32476
1.32544
1.3262
1.32702
1.32277
1.32287
1.32306
1.32335
1.32373
1.32421
1.32478
1.32543
1.32616
1.32696
1.32298
1.32306
1.32324
1.32351
1.32387
1.32432
1.32487
1.32549
1.3262
1.32696
1.32328
1.32335
1.32351
1.32376
1.3241
1.32452
1.32503
1.32563
1.3263
1.32703
1.32368
1.32373
1.32387
1.3241
1.32441
1.3248
1.32528
1.32583
1.32646
1.32715
1.32417
1.32421
1.32432
1.32452
1.3248
1.32516
1.32559
1.32611
1.32669
1.32732
1.32476
1.32478
1.32487
1.32503
1.32528
1.32559
1.32599
1.32645
1.32697
1.32755
1.32544
1.32543
1.32549
1.32563
1.32583
1.32611
1.32645
1.32685
1.32732
1.32783
1.3262
1.32616
1.3262
1.3263
1.32646
1.32669
1.32697
1.32732
1.32771
1.32814
1.32702
1.32696
1.32696
1.32703
1.32715
1.32732
1.32755
1.32783
1.32814
1.3285
1.30131
1.30162
1.30226
1.3032
1.30446
1.30602
1.30788
1.31002
1.31242
1.31505
1.30162
1.30192
1.30252
1.30342
1.30462
1.30612
1.30791
1.30996
1.31228
1.31481
1.30226
1.30252
1.30307
1.30392
1.30506
1.30648
1.30818
1.31014
1.31235
1.31478
1.3032
1.30342
1.30392
1.3047
1.30576
1.3071
1.3087
1.31056
1.31266
1.31496
1.30446
1.30462
1.30506
1.30576
1.30674
1.30798
1.30947
1.31121
1.31318
1.31535
1.30602
1.30612
1.30648
1.3071
1.30798
1.30911
1.31048
1.31209
1.31393
1.31595
1.30788
1.30791
1.30818
1.3087
1.30947
1.31048
1.31173
1.3132
1.31488
1.31675
1.31002
1.30996
1.31014
1.31056
1.31121
1.31209
1.3132
1.31452
1.31604
1.31774
1.31242
1.31228
1.31235
1.31266
1.31318
1.31392
1.31488
1.31604
1.3174
1.31892
1.31505
1.31481
1.31478
1.31496
1.31535
1.31595
1.31675
1.31774
1.31892
1.32026
1.27794
1.27848
1.27956
1.28118
1.28334
1.28604
1.28926
1.29302
1.29727
1.302
1.27848
1.27899
1.28001
1.28156
1.28362
1.28621
1.28931
1.29292
1.29701
1.30157
1.27956
1.28001
1.28096
1.28242
1.28437
1.28683
1.28979
1.29323
1.29715
1.30152
1.28118
1.28156
1.28242
1.28376
1.2856
1.28791
1.29071
1.29398
1.2977
1.30186
1.28334
1.28362
1.28437
1.2856
1.28729
1.28944
1.29206
1.29513
1.29865
1.30258
1.28604
1.28621
1.28683
1.28791
1.28944
1.29142
1.29385
1.29671
1.29999
1.30368
1.28926
1.28931
1.28979
1.29071
1.29206
1.29385
1.29606
1.29869
1.30173
1.30515
1.29301
1.29291
1.29323
1.29397
1.29513
1.29671
1.29869
1.30108
1.30385
1.307
1.29727
1.29701
1.29715
1.2977
1.29865
1.29999
1.30173
1.30385
1.30635
1.3092
1.302
1.30157
1.30152
1.30186
1.30258
1.30368
1.30515
1.307
1.3092
1.31174
1.25094
1.2517
1.25323
1.25554
1.25862
1.26248
1.26715
1.27262
1.27889
1.28595
1.2517
1.25242
1.25387
1.25607
1.25902
1.26273
1.26722
1.27247
1.27851
1.28531
1.25323
1.25387
1.25522
1.2573
1.2601
1.26364
1.26792
1.27295
1.27872
1.28524
1.25554
1.25607
1.2573
1.25922
1.26186
1.2652
1.26926
1.27404
1.27954
1.28576
1.25862
1.25902
1.2601
1.26186
1.26429
1.26742
1.27124
1.27575
1.28096
1.28685
1.26248
1.26273
1.26364
1.2652
1.26742
1.27031
1.27386
1.27809
1.28298
1.28853
1.26715
1.26722
1.26792
1.26926
1.27124
1.27386
1.27713
1.28104
1.2856
1.29078
1.27261
1.27247
1.27295
1.27404
1.27575
1.27809
1.28104
1.28462
1.28881
1.29361
1.27889
1.27851
1.27872
1.27954
1.28096
1.28298
1.2856
1.28881
1.29262
1.297
1.28595
1.28531
1.28524
1.28576
1.28685
1.28853
1.29078
1.2936
1.297
1.30096
1.21888
1.21986
1.22181
1.22476
1.22873
1.23373
1.23981
1.247
1.25533
1.26483
1.21986
1.22077
1.22263
1.22545
1.22925
1.23406
1.2399
1.24682
1.25483
1.26397
1.22181
1.22263
1.22436
1.22703
1.23064
1.23524
1.24083
1.24745
1.25513
1.26389
1.22476
1.22545
1.22703
1.22951
1.23292
1.23727
1.24259
1.2489
1.25623
1.26459
1.22873
1.22925
1.23064
1.23292
1.2361
1.24018
1.2452
1.25118
1.25814
1.26609
1.23373
1.23406
1.23524
1.23727
1.24018
1.24398
1.24867
1.2543
1.26086
1.26838
1.23981
1.2399
1.24083
1.24259
1.2452
1.24867
1.25302
1.25826
1.26441
1.27147
1.247
1.24681
1.24745
1.2489
1.25118
1.2543
1.25826
1.26309
1.26879
1.27537
1.25533
1.25483
1.25512
1.25623
1.25814
1.26086
1.26441
1.26879
1.27402
1.28007
1.26483
1.26397
1.26389
1.26459
1.26609
1.26838
1.27147
1.27536
1.28007
1.28559
1.18044
1.18159
1.1839
1.18738
1.19209
1.19808
1.20539
1.21412
1.22435
1.23615
1.18159
1.18266
1.18486
1.1882
1.19272
1.19847
1.20551
1.21391
1.22374
1.23508
1.1839
1.18486
1.18691
1.19007
1.19439
1.19989
1.20663
1.21468
1.22411
1.23499
1.18738
1.1882
1.19007
1.19304
1.19711
1.20234
1.20878
1.21647
1.22548
1.23588
1.19209
1.19272
1.19439
1.19711
1.20093
1.20586
1.21196
1.21927
1.22786
1.23776
1.19807
1.19847
1.19989
1.20234
1.20586
1.21047
1.2162
1.22311
1.23125
1.24065
1.20539
1.20551
1.20663
1.20877
1.21196
1.2162
1.22155
1.22803
1.23569
1.24456
1.21412
1.21391
1.21468
1.21647
1.21927
1.22311
1.22803
1.23404
1.2412
1.2495
1.22435
1.22374
1.22411
1.22548
1.22785
1.23125
1.23569
1.2412
1.2478
1.25551
1.23615
1.23508
1.23499
1.23588
1.23776
1.24065
1.24455
1.2495
1.25551
1.2626
1.13453
1.13578
1.1383
1.14213
1.14732
1.15396
1.16214
1.17199
1.18365
1.19728
1.13578
1.13695
1.13935
1.14302
1.14801
1.1544
1.16227
1.17175
1.18296
1.19604
1.1383
1.13935
1.14161
1.14509
1.14986
1.15598
1.16354
1.17263
1.18339
1.19594
1.14213
1.14302
1.14509
1.14837
1.15289
1.15873
1.16595
1.17466
1.18496
1.19698
1.14732
1.14801
1.14986
1.15289
1.15714
1.16267
1.16955
1.17786
1.1877
1.19917
1.15395
1.1544
1.15598
1.15872
1.16267
1.16786
1.17437
1.18226
1.19163
1.20255
1.16214
1.16227
1.16353
1.16595
1.16955
1.17437
1.18047
1.18791
1.19678
1.20713
1.17199
1.17174
1.17263
1.17466
1.17786
1.18226
1.18791
1.19487
1.20321
1.21297
1.18365
1.18295
1.18339
1.18496
1.1877
1.19162
1.19678
1.20321
1.21097
1.22009
1.19728
1.19604
1.19593
1.19697
1.19917
1.20255
1.20713
1.21297
1.22009
1.22855
1.08046
1.08171
1.08425
1.08812
1.0934
1.10018
1.10862
1.11888
1.13117
1.14573
1.08171
1.08289
1.08532
1.08903
1.0941
1.10064
1.10876
1.11863
1.13044
1.1444
1.08425
1.08531
1.08759
1.09113
1.09599
1.10226
1.11007
1.11956
1.1309
1.14429
1.08812
1.08903
1.09113
1.09446
1.09909
1.10509
1.11258
1.12169
1.13257
1.1454
1.09339
1.0941
1.09599
1.09909
1.10346
1.10917
1.11633
1.12505
1.13548
1.14776
1.10018
1.10064
1.10226
1.10509
1.10917
1.11457
1.12138
1.1297
1.13966
1.15141
1.10862
1.10876
1.11007
1.11258
1.11633
1.12138
1.1278
1.1357
1.14519
1.15638
1.11888
1.11863
1.11956
1.12168
1.12505
1.1297
1.1357
1.14315
1.15213
1.16274
1.13117
1.13043
1.13089
1.13257
1.13547
1.13966
1.14519
1.15213
1.16057
1.17056
1.14572
1.14439
1.14428
1.1454
1.14776
1.1514
1.15637
1.16273
1.17056
1.17992
1.01814
1.01928
1.02159
1.02512
1.02996
1.03623
1.0441
1.05377
1.06551
1.07963
1.01928
1.02035
1.02256
1.02595
1.03061
1.03665
1.04423
1.05353
1.0648
1.07833
1.02159
1.02256
1.02463
1.02787
1.03234
1.03816
1.04545
1.05441
1.06524
1.07821
1.02512
1.02595
1.02787
1.03094
1.03521
1.04079
1.0478
1.05642
1.06684
1.07929
1.02996
1.03061
1.03234
1.03521
1.03926
1.0446
1.05133
1.05962
1.06963
1.08158
1.03623
1.03665
1.03816
1.04079
1.0446
1.04967
1.05611
1.06406
1.07368
1.08514
1.0441
1.04423
1.04545
1.0478
1.05133
1.05611
1.06224
1.06983
1.07904
1.09003
1.05377
1.05353
1.0544
1.05642
1.05961
1.06406
1.06983
1.07705
1.08584
1.09632
1.06551
1.0648
1.06524
1.06683
1.06963
1.07367
1.07904
1.08584
1.09417
1.10414
1.07962
1.07832
1.07821
1.07928
1.08158
1.08514
1.09003
1.09632
1.10414
1.11358
0.948258
0.949147
0.950947
0.953716
0.957536
0.962527
0.968854
0.976732
0.986439
0.998324
0.949147
0.949982
0.951706
0.954369
0.958051
0.962862
0.968955
0.976529
0.985841
0.997211
0.950947
0.951705
0.953334
0.955883
0.959425
0.964062
0.969937
0.977234
0.986189
0.997096
0.953715
0.954369
0.955883
0.958304
0.961699
0.966165
0.971832
0.978872
0.987501
0.997987
0.957535
0.95805
0.959424
0.961699
0.964937
0.969227
0.974691
0.981486
0.989813
0.999909
0.962526
0.962861
0.964061
0.966164
0.969227
0.973331
0.978588
0.985144
0.993181
1.00291
0.968852
0.968953
0.969935
0.971831
0.97469
0.978587
0.983626
0.989938
0.997691
1.00707
0.97673
0.976527
0.977232
0.97887
0.981485
0.985143
0.989938
0.995991
1.00345
1.01248
0.986436
0.985839
0.986187
0.9875
0.989811
0.99318
0.99769
1.00345
1.0106
1.01928
0.998322
0.997209
0.997094
0.997985
0.999908
1.00291
1.00707
1.01248
1.01928
1.0276
0.87232
0.872836
0.873883
0.875503
0.877756
0.88073
0.884549
0.889386
0.895472
0.903116
0.872835
0.873322
0.874326
0.875886
0.878059
0.880926
0.884604
0.889252
0.895083
0.902381
0.873883
0.874326
0.875277
0.876773
0.878867
0.881635
0.885187
0.889669
0.89528
0.902278
0.875503
0.875886
0.876773
0.878199
0.880212
0.882887
0.886323
0.890658
0.896077
0.902816
0.877755
0.878058
0.878866
0.880212
0.882141
0.884722
0.88805
0.892254
0.897503
0.904015
0.880729
0.880925
0.881635
0.882886
0.884722
0.887207
0.89043
0.89451
0.899607
0.905919
0.884548
0.884603
0.885186
0.886322
0.88805
0.890429
0.893544
0.897507
0.902463
0.908592
0.889385
0.889251
0.889668
0.890657
0.892253
0.894509
0.897506
0.901347
0.906168
0.912129
0.89547
0.895081
0.895278
0.896076
0.897502
0.899606
0.902462
0.906168
0.910852
0.916659
0.903115
0.902379
0.902277
0.902815
0.904014
0.905918
0.908591
0.912128
0.916658
0.92234
0.792647
0.792712
0.792842
0.793052
0.793357
0.793785
0.794376
0.795198
0.796347
0.797976
0.792711
0.792773
0.792899
0.793101
0.793395
0.793808
0.794376
0.795162
0.796256
0.797795
0.792841
0.792898
0.793018
0.793212
0.793496
0.793894
0.794444
0.795203
0.796254
0.797725
0.793051
0.7931
0.793212
0.793397
0.793671
0.794057
0.794592
0.79533
0.79635
0.797772
0.793356
0.793395
0.793496
0.793671
0.793935
0.794311
0.794835
0.795558
0.796557
0.797945
0.793784
0.793807
0.793894
0.794057
0.794311
0.794678
0.795195
0.79591
0.796897
0.798265
0.794376
0.794376
0.794444
0.794592
0.794834
0.795194
0.795707
0.796421
0.797406
0.798765
0.795197
0.795161
0.795202
0.795329
0.795557
0.795909
0.79642
0.797139
0.798132
0.799498
0.796346
0.796255
0.796253
0.796349
0.796556
0.796896
0.797405
0.798131
0.799145
0.80054
0.797975
0.797794
0.797725
0.797771
0.797944
0.798264
0.798765
0.799497
0.80054
0.802011
0.712133
0.711734
0.71092
0.709671
0.707948
0.705697
0.702849
0.699317
0.694999
0.689781
0.711734
0.711359
0.71058
0.709376
0.707712
0.70554
0.702795
0.699397
0.695251
0.690252
0.71092
0.710579
0.709839
0.708682
0.707075
0.704973
0.702318
0.699037
0.695042
0.690239
0.709671
0.709375
0.708681
0.707574
0.706022
0.703987
0.701413
0.698235
0.694373
0.689745
0.707948
0.707712
0.707074
0.706022
0.704529
0.702558
0.70006
0.696976
0.693234
0.688765
0.705696
0.70554
0.704973
0.703986
0.702557
0.700654
0.698232
0.695238
0.691607
0.687284
0.702848
0.702794
0.702318
0.701412
0.70006
0.698231
0.69589
0.692987
0.689466
0.685283
0.699316
0.699396
0.699036
0.698234
0.696975
0.695237
0.692987
0.690184
0.686777
0.682735
0.694998
0.69525
0.695041
0.694373
0.693234
0.691607
0.689465
0.686776
0.683501
0.679619
0.68978
0.690251
0.690238
0.689744
0.688764
0.687283
0.685282
0.682734
0.679618
0.675942
0.633824
0.633029
0.631406
0.628905
0.625438
0.620879
0.615054
0.607732
0.59861
0.587291
0.633029
0.63228
0.630725
0.628315
0.624969
0.620571
0.614959
0.607921
0.599175
0.588361
0.631406
0.630725
0.629248
0.626932
0.623701
0.619447
0.614021
0.607225
0.598801
0.588419
0.628905
0.628314
0.626932
0.624716
0.621598
0.617477
0.612215
0.60563
0.597481
0.58747
0.625438
0.624969
0.623701
0.621598
0.618597
0.614605
0.609493
0.603094
0.595184
0.585496
0.620878
0.62057
0.619446
0.617477
0.614604
0.610744
0.605778
0.599549
0.591851
0.582446
0.615053
0.614958
0.61402
0.612215
0.609493
0.605777
0.60096
0.594896
0.587394
0.578244
0.607731
0.60792
0.607225
0.605629
0.603093
0.599547
0.594895
0.589002
0.581693
0.572782
0.598609
0.599174
0.5988
0.59748
0.595183
0.59185
0.587393
0.581692
0.574589
0.565924
0.58729
0.588359
0.588417
0.587469
0.585495
0.582445
0.578243
0.572781
0.565923
0.557538
0.560405
0.559345
0.557184
0.553856
0.549248
0.543197
0.535476
0.525777
0.513687
0.498655
0.559345
0.558348
0.556278
0.553074
0.54863
0.542796
0.535362
0.526042
0.514455
0.500098
0.557183
0.556277
0.554316
0.551243
0.546959
0.541324
0.534143
0.525153
0.513999
0.500222
0.553855
0.553073
0.551242
0.54831
0.544186
0.538739
0.531788
0.523087
0.512309
0.499033
0.549247
0.54863
0.546958
0.544185
0.540229
0.534967
0.52823
0.51979
0.509342
0.496504
0.543196
0.542796
0.541323
0.538738
0.534967
0.529896
0.523368
0.51517
0.505019
0.492568
0.535475
0.535361
0.534142
0.531787
0.528229
0.523367
0.517055
0.509093
0.499218
0.487117
0.525776
0.52604
0.525151
0.523086
0.519789
0.515169
0.509092
0.501375
0.49177
0.479998
0.513686
0.514454
0.513998
0.512308
0.509341
0.505017
0.499217
0.491769
0.482448
0.471006
0.498653
0.500096
0.50022
0.499031
0.496502
0.492566
0.487116
0.479997
0.471005
0.459915
0.493731
0.492567
0.490201
0.486572
0.481576
0.475062
0.466822
0.456578
0.443953
0.428451
0.492567
0.491474
0.489213
0.485724
0.480913
0.474639
0.46671
0.456867
0.444765
0.429947
0.490201
0.489212
0.487077
0.483743
0.479118
0.473075
0.465435
0.455957
0.444321
0.43011
0.486572
0.485724
0.483742
0.480578
0.476149
0.470335
0.462968
0.453827
0.442613
0.428945
0.481575
0.480912
0.479118
0.476149
0.471929
0.466348
0.459249
0.450426
0.439602
0.426428
0.475061
0.474638
0.473075
0.470334
0.466347
0.461012
0.454185
0.445672
0.435216
0.4225
0.466821
0.466708
0.465434
0.462967
0.459248
0.454185
0.447643
0.439444
0.429348
0.417066
0.456576
0.456865
0.455956
0.453826
0.450425
0.445671
0.439444
0.431576
0.421843
0.409988
0.443951
0.444763
0.444319
0.442611
0.4396
0.435215
0.429347
0.421843
0.412497
0.401078
0.428448
0.429944
0.430107
0.428942
0.426425
0.422498
0.417065
0.409987
0.401077
0.390123
0.434586
0.433466
0.431198
0.427742
0.423033
0.416974
0.409438
0.40026
0.38923
0.376083
0.433465
0.432417
0.430254
0.426941
0.422415
0.416588
0.409342
0.400525
0.389941
0.377345
0.431197
0.430254
0.428224
0.425074
0.420746
0.415158
0.408203
0.399737
0.389581
0.377509
0.427742
0.42694
0.425074
0.42211
0.417998
0.412661
0.406001
0.397884
0.388144
0.376576
0.423032
0.422414
0.420745
0.417997
0.414124
0.409056
0.4027
0.394937
0.38561
0.374534
0.416972
0.416587
0.415157
0.412661
0.409055
0.404279
0.398247
0.390848
0.38194
0.371353
0.409436
0.40934
0.408201
0.405999
0.402699
0.398246
0.392564
0.385551
0.377074
0.366984
0.400258
0.400523
0.399735
0.397883
0.394936
0.390847
0.38555
0.378951
0.370931
0.361355
0.389228
0.389938
0.389578
0.388142
0.385609
0.381938
0.377073
0.37093
0.363402
0.354369
0.376079
0.377342
0.377505
0.376573
0.374531
0.371351
0.366982
0.361353
0.354369
0.345923
0.382762
0.38178
0.379805
0.376824
0.372818
0.367763
0.361633
0.354405
0.346071
0.336647
0.38178
0.380865
0.378988
0.376138
0.372299
0.367447
0.361559
0.354614
0.346602
0.337535
0.379804
0.378987
0.377239
0.374549
0.370902
0.366278
0.360656
0.354017
0.346351
0.337669
0.376823
0.376138
0.374549
0.372047
0.36862
0.36425
0.358919
0.35261
0.345316
0.337046
0.372817
0.372298
0.370901
0.36862
0.365442
0.361355
0.356342
0.350391
0.343496
0.335669
0.367761
0.367446
0.366277
0.364249
0.361354
0.357581
0.352918
0.347355
0.340891
0.33354
0.361631
0.361557
0.360654
0.358917
0.356341
0.352917
0.348639
0.343501
0.337503
0.330663
0.354403
0.354612
0.354015
0.352608
0.350389
0.347354
0.3435
0.338825
0.333334
0.327047
0.346068
0.346599
0.346348
0.345313
0.343494
0.34089
0.337502
0.333334
0.328395
0.322707
0.336643
0.337531
0.337665
0.337043
0.335667
0.333538
0.330661
0.327046
0.322706
0.31767
0.337387
0.336576
0.334953
0.332531
0.329329
0.325378
0.320732
0.315474
0.30974
0.303739
0.336576
0.335822
0.334286
0.331979
0.328918
0.325135
0.320677
0.315623
0.310096
0.304284
0.334953
0.334286
0.332866
0.330705
0.32782
0.324239
0.320009
0.315203
0.309935
0.304376
0.332531
0.331978
0.330705
0.328721
0.326043
0.3227
0.318735
0.314219
0.309258
0.304012
0.329328
0.328918
0.32782
0.326043
0.323605
0.320534
0.316872
0.312687
0.30808
0.3032
0.325377
0.325134
0.324238
0.322699
0.320533
0.317768
0.314446
0.310634
0.306427
0.301965
0.32073
0.320675
0.320008
0.318734
0.316871
0.314446
0.311502
0.308102
0.304341
0.300349
0.315472
0.315621
0.315201
0.314218
0.312686
0.310633
0.308102
0.305156
0.301885
0.298412
0.309737
0.310093
0.309932
0.309256
0.308078
0.306425
0.30434
0.301884
0.299146
0.296241
0.303735
0.30428
0.304373
0.304009
0.303197
0.301963
0.300347
0.29841
0.29624
0.293953
0.297366
0.296704
0.295386
0.293436
0.290891
0.287807
0.284267
0.280393
0.276361
0.272421
0.296704
0.296091
0.294847
0.292994
0.290567
0.287618
0.284224
0.280499
0.276602
0.272763
0.295386
0.294846
0.293704
0.291979
0.289703
0.286927
0.283722
0.280193
0.276489
0.272821
0.293436
0.292993
0.291978
0.29041
0.288317
0.285748
0.282771
0.279484
0.276025
0.272589
0.29089
0.290566
0.289703
0.288317
0.286438
0.28411
0.281397
0.278393
0.275227
0.27208
0.287805
0.287616
0.286926
0.285748
0.284109
0.282052
0.279639
0.276957
0.274129
0.271321
0.284265
0.284223
0.28372
0.28277
0.281396
0.279639
0.277556
0.275232
0.272782
0.27036
0.280391
0.280496
0.280191
0.279482
0.278392
0.276956
0.275232
0.273297
0.271262
0.269267
0.276358
0.276599
0.276487
0.276023
0.275226
0.274127
0.272781
0.271261
0.269671
0.268141
0.272417
0.272759
0.272818
0.272586
0.272077
0.271318
0.270358
0.269265
0.26814
0.267109
0.261734
0.261175
0.260063
0.25842
0.256282
0.253699
0.250739
0.2475
0.24411
0.240739
0.261175
0.260657
0.259607
0.258048
0.256009
0.253539
0.250701
0.247585
0.244309
0.241031
0.260062
0.259607
0.258645
0.257193
0.255283
0.252957
0.250276
0.247322
0.244206
0.241071
0.25842
0.258047
0.257193
0.255875
0.254119
0.251967
0.249475
0.246718
0.2438
0.240853
0.256282
0.256009
0.255283
0.254119
0.252542
0.25059
0.248316
0.245789
0.243105
0.240386
0.253697
0.253538
0.252956
0.251966
0.25059
0.248862
0.246831
0.244562
0.242144
0.239689
0.250738
0.2507
0.250275
0.249473
0.248315
0.24683
0.245065
0.24308
0.240954
0.238793
0.247498
0.247583
0.247321
0.246717
0.245788
0.244562
0.243079
0.241396
0.239587
0.237744
0.244107
0.244307
0.244203
0.243798
0.243103
0.242143
0.240953
0.239586
0.238109
0.236605
0.240736
0.241028
0.241068
0.24085
0.240384
0.239687
0.238792
0.237743
0.236604
0.235457
0.229831
0.22933
0.22833
0.226846
0.224897
0.222512
0.219723
0.216573
0.213108
0.209379
0.22933
0.228864
0.227919
0.226507
0.224646
0.222361
0.219685
0.216655
0.213316
0.209715
0.22833
0.227919
0.227048
0.225728
0.223977
0.221816
0.219275
0.216389
0.2132
0.209751
0.226845
0.226507
0.225728
0.22452
0.222897
0.22088
0.218496
0.215777
0.212759
0.209484
0.224897
0.224646
0.223976
0.222897
0.221421
0.219567
0.217359
0.214825
0.211998
0.208917
0.222511
0.222361
0.221815
0.22088
0.219567
0.217892
0.215876
0.213544
0.210926
0.208055
0.219722
0.219684
0.219274
0.218495
0.217358
0.215876
0.214065
0.21195
0.209554
0.206906
0.216571
0.216654
0.216388
0.215775
0.214824
0.213544
0.21195
0.21006
0.207896
0.205481
0.213106
0.213314
0.213198
0.212757
0.211997
0.210925
0.209553
0.207895
0.205969
0.203795
0.209376
0.209713
0.209748
0.209482
0.208915
0.208053
0.206905
0.20548
0.203794
0.201866
0.201293
0.200822
0.199879
0.198469
0.196596
0.194263
0.191471
0.188214
0.184472
0.180203
0.200822
0.200384
0.19949
0.198145
0.196352
0.194115
0.191433
0.188301
0.184702
0.180599
0.199879
0.19949
0.198662
0.197398
0.195701
0.193573
0.191014
0.188019
0.184571
0.180639
0.198469
0.198145
0.197398
0.196229
0.194642
0.192637
0.190215
0.187367
0.184079
0.180321
0.196596
0.196352
0.1957
0.194642
0.193178
0.19131
0.189034
0.186344
0.183223
0.179645
0.194263
0.194114
0.193572
0.192637
0.191309
0.189588
0.187469
0.184945
0.181999
0.178605
0.19147
0.191432
0.191013
0.190214
0.189033
0.187469
0.185517
0.183166
0.1804
0.177193
0.188213
0.1883
0.188018
0.187366
0.186343
0.184945
0.183166
0.180995
0.178413
0.175395
0.18447
0.1847
0.18457
0.184078
0.183222
0.181999
0.180399
0.178412
0.176017
0.173191
0.180201
0.180597
0.180637
0.18032
0.179644
0.178604
0.177192
0.175394
0.17319
0.170559
0.17593
0.175482
0.174584
0.173233
0.171424
0.169146
0.166382
0.163103
0.159261
0.154784
0.175482
0.175066
0.174213
0.172922
0.171188
0.169001
0.166345
0.163192
0.159501
0.155205
0.174584
0.174213
0.173419
0.172201
0.170554
0.168468
0.165927
0.162907
0.159367
0.155248
0.173233
0.172922
0.172201
0.171069
0.169519
0.167544
0.165127
0.162244
0.158859
0.154915
0.171424
0.171188
0.170554
0.169519
0.168079
0.166224
0.163938
0.161199
0.157971
0.154203
0.169146
0.169001
0.168467
0.167544
0.166224
0.164498
0.162352
0.159762
0.156694
0.153102
0.166382
0.166344
0.165927
0.165127
0.163938
0.162352
0.160353
0.157918
0.155014
0.151599
0.163102
0.163192
0.162906
0.162244
0.161199
0.159762
0.157918
0.155645
0.15291
0.149674
0.15926
0.1595
0.159367
0.158858
0.15797
0.156694
0.155014
0.15291
0.150349
0.147296
0.154783
0.155204
0.155247
0.154914
0.154202
0.153101
0.151599
0.149674
0.147296
0.144434
0.153592
0.153175
0.152336
0.151071
0.149374
0.14723
0.144622
0.141522
0.137889
0.133669
0.153175
0.152786
0.151989
0.15078
0.149152
0.147093
0.144587
0.141607
0.138117
0.134065
0.152336
0.151989
0.151246
0.150104
0.148556
0.146592
0.144194
0.141339
0.137993
0.134109
0.151071
0.15078
0.150104
0.149041
0.147583
0.145721
0.143439
0.140715
0.137515
0.1338
0.149374
0.149152
0.148556
0.147583
0.146227
0.144477
0.142318
0.13973
0.136682
0.133136
0.14723
0.147094
0.146592
0.145722
0.144477
0.142848
0.140821
0.138376
0.135484
0.132111
0.144622
0.144587
0.144194
0.14344
0.142318
0.140821
0.138935
0.13664
0.13391
0.130714
0.141522
0.141607
0.141339
0.140715
0.13973
0.138376
0.13664
0.134504
0.131944
0.128931
0.137889
0.138117
0.137993
0.137516
0.136682
0.135484
0.13391
0.131944
0.129562
0.126742
0.133669
0.134065
0.134109
0.1338
0.133136
0.132111
0.130715
0.128932
0.126742
0.124124
0.134085
0.133707
0.132948
0.131806
0.130275
0.128349
0.126017
0.123266
0.120079
0.116436
0.133707
0.133355
0.132635
0.131543
0.130076
0.128227
0.125986
0.123342
0.120278
0.116776
0.132948
0.132635
0.131964
0.130934
0.129541
0.127778
0.125637
0.123106
0.120171
0.116816
0.131806
0.131543
0.130934
0.129977
0.128667
0.127
0.124967
0.122558
0.119759
0.116555
0.130276
0.130076
0.129541
0.128668
0.127453
0.125891
0.123975
0.121695
0.119038
0.115992
0.128349
0.128227
0.127778
0.127001
0.125891
0.124445
0.122655
0.120513
0.118007
0.115127
0.126018
0.125987
0.125638
0.124968
0.123975
0.122656
0.121002
0.119008
0.116661
0.113954
0.123267
0.123343
0.123107
0.122559
0.121696
0.120514
0.119008
0.117171
0.114994
0.11247
0.12008
0.120279
0.120173
0.11976
0.119039
0.118008
0.116662
0.114994
0.112999
0.110669
0.116438
0.116778
0.116817
0.116556
0.115994
0.115128
0.113955
0.112471
0.11067
0.108549
0.117141
0.11681
0.116145
0.115146
0.113814
0.112149
0.11015
0.107819
0.105162
0.102188
0.11681
0.116501
0.11587
0.114917
0.113642
0.112044
0.110124
0.107883
0.105327
0.102463
0.116145
0.11587
0.115284
0.114387
0.113178
0.111658
0.109827
0.107686
0.105239
0.102496
0.115147
0.114917
0.114387
0.113556
0.112424
0.110992
0.109259
0.107227
0.1049
0.102287
0.113815
0.113642
0.113179
0.112425
0.11138
0.110045
0.10842
0.106507
0.10431
0.101837
0.11215
0.112045
0.111659
0.110992
0.110045
0.108817
0.10731
0.105526
0.103468
0.101146
0.110151
0.110125
0.109828
0.10926
0.10842
0.107311
0.105932
0.104287
0.102379
0.100217
0.107821
0.107885
0.107688
0.107228
0.106508
0.105527
0.104288
0.102792
0.101044
0.0990536
0.105164
0.105329
0.105242
0.104902
0.104311
0.10347
0.10238
0.101045
0.0994686
0.0976611
0.102192
0.102466
0.102499
0.10229
0.101839
0.101148
0.100219
0.0990547
0.0976616
0.0960501
0.102449
0.102164
0.101595
0.100742
0.099609
0.0982014
0.0965263
0.0945947
0.0924231
0.090036
0.102165
0.1019
0.10136
0.100546
0.0994625
0.098113
0.0965046
0.0946475
0.0925567
0.0902545
0.101595
0.10136
0.100859
0.100095
0.0990702
0.0977888
0.0962573
0.0944852
0.0924864
0.0902813
0.100742
0.100547
0.100095
0.0993902
0.0984338
0.0972301
0.0957853
0.0941083
0.0922119
0.0901155
0.0996099
0.0994633
0.0990709
0.0984341
0.0975556
0.0964392
0.0950908
0.0935188
0.0917353
0.0897583
0.0982028
0.0981143
0.0977899
0.0972309
0.0964397
0.09542
0.0941775
0.0927202
0.0910595
0.0892126
0.0965283
0.0965065
0.096259
0.0957867
0.0950918
0.0941781
0.0930508
0.0917177
0.0901897
0.088483
0.0945975
0.0946501
0.0944876
0.0941103
0.0935205
0.0927214
0.0917183
0.0905188
0.089133
0.0875763
0.0924267
0.0925601
0.0924895
0.0922148
0.0917377
0.0910614
0.090191
0.0891337
0.0878993
0.0865024
0.0900405
0.0902588
0.0902854
0.0901192
0.0897616
0.0892154
0.0884852
0.0875778
0.0865033
0.0852763
0.0896916
0.0894498
0.0889662
0.0882441
0.0872882
0.0861056
0.0847058
0.0831021
0.0813124
0.0793611
0.0894499
0.0892252
0.0887671
0.0880789
0.0871649
0.0860315
0.0846876
0.0831457
0.081422
0.079539
0.0889665
0.0887674
0.0883436
0.0876981
0.0868349
0.08576
0.0844817
0.0830113
0.0813642
0.0795608
0.0882448
0.0880795
0.0876985
0.0871042
0.0863005
0.0852928
0.084089
0.0826997
0.0811388
0.0794255
0.0872894
0.0871659
0.0868357
0.0863009
0.085565
0.0846332
0.0835126
0.0822132
0.0807479
0.0791344
0.0861074
0.0860331
0.0857614
0.0852939
0.0846337
0.0837858
0.0827567
0.0815557
0.0801947
0.0786903
0.0847084
0.08469
0.0844838
0.0840908
0.0835139
0.0827574
0.0818277
0.080733
0.0794845
0.0780976
0.0831056
0.083149
0.0830143
0.0827023
0.0822153
0.0815572
0.0807338
0.0797528
0.0786245
0.0773629
0.081317
0.0814264
0.0813682
0.0811424
0.0807509
0.0801972
0.0794863
0.0786254
0.077624
0.0764949
0.0793669
0.0795445
0.0795659
0.0794302
0.0791386
0.0786938
0.0781004
0.0773649
0.076496
0.0755066
0.0785793
0.0783738
0.077963
0.0773502
0.07654
0.0755391
0.0743561
0.073002
0.0714907
0.0698394
0.0783739
0.078183
0.077794
0.0772101
0.0764356
0.0754764
0.0743407
0.0730387
0.0715833
0.0699903
0.0779634
0.0777943
0.0774347
0.0768873
0.0761562
0.0752468
0.0741667
0.0729252
0.0715342
0.0700084
0.077351
0.0772108
0.0768877
0.0763843
0.0757039
0.0748519
0.073835
0.0726619
0.0713435
0.0698933
0.0765415
0.0764368
0.0761571
0.0757045
0.0750821
0.0742945
0.0733481
0.0722508
0.0710125
0.0696458
0.0755413
0.0754784
0.0752485
0.0748531
0.0742952
0.0735789
0.0727098
0.0716952
0.070544
0.069268
0.0743591
0.0743436
0.0741692
0.073837
0.0733496
0.0727106
0.071925
0.0709994
0.0699417
0.0687628
0.0730061
0.0730426
0.0729287
0.0726649
0.0722533
0.0716969
0.0710003
0.0701692
0.0692108
0.0681347
0.0714961
0.0715884
0.0715389
0.0713477
0.0710161
0.0705469
0.0699438
0.0692119
0.0683576
0.0673895
0.0698463
0.0699967
0.0700145
0.0698989
0.0696508
0.0692721
0.0687661
0.068137
0.0673907
0.0665355
0.0688664
0.0686905
0.0683389
0.0678144
0.0671207
0.0662629
0.0652472
0.0640815
0.0627744
0.0613355
0.0686907
0.0685273
0.0681944
0.0676945
0.0670312
0.0662091
0.0652341
0.0641132
0.0628546
0.0614675
0.0683394
0.0681947
0.0678869
0.0674182
0.0667919
0.0660121
0.0650844
0.0640152
0.0628119
0.0614832
0.0678154
0.0676953
0.0674187
0.0669874
0.0664042
0.0656732
0.064799
0.0637878
0.0626462
0.0613822
0.0671223
0.0670326
0.0667929
0.0664048
0.0658708
0.0651943
0.0643797
0.0634324
0.0623584
0.0611651
0.0662652
0.0662112
0.0660139
0.0656745
0.0651951
0.0645786
0.063829
0.0629511
0.0619502
0.0608329
0.0652506
0.0652372
0.0650871
0.0648013
0.0643814
0.0638299
0.0631504
0.0623467
0.0614238
0.0603875
0.064086
0.0641175
0.064019
0.0637912
0.0634351
0.0629531
0.0623478
0.0616229
0.0607822
0.0598312
0.0627803
0.0628603
0.0628171
0.0626509
0.0623624
0.0619534
0.061426
0.0607834
0.0600288
0.0591669
0.0613431
0.0614747
0.0614899
0.0613883
0.0611705
0.0608376
0.0603912
0.0598338
0.0591683
0.0583994
0.0603519
0.0602002
0.0598966
0.0594435
0.0588434
0.0580999
0.0572174
0.0562006
0.0550546
0.0537843
0.0602003
0.0600593
0.0597718
0.0593398
0.0587659
0.0580533
0.0572059
0.0562284
0.0551252
0.0539013
0.0598971
0.0597721
0.0595061
0.0591009
0.0585586
0.0578823
0.0570756
0.0561427
0.0550877
0.0539152
0.0594444
0.0593406
0.0591013
0.058728
0.0582226
0.0575879
0.056827
0.0559437
0.0549419
0.0538257
0.058845
0.0587673
0.0585597
0.0582233
0.0577597
0.0571714
0.0564612
0.0556324
0.0546884
0.0536331
0.0581024
0.0580555
0.0578842
0.0575893
0.0571722
0.0566349
0.0559799
0.05521
0.0543282
0.0533381
0.0572209
0.0572092
0.0570785
0.0568294
0.056463
0.0559809
0.0553852
0.0546782
0.0538625
0.0529414
0.0562054
0.0562328
0.0561467
0.0559473
0.0556353
0.0552121
0.0546793
0.054039
0.053293
0.0524444
0.0550609
0.0551311
0.0550931
0.0549468
0.0546926
0.0543315
0.0538649
0.0532943
0.0526212
0.0518483
0.0537923
0.0539088
0.0539222
0.0538321
0.0536388
0.0533429
0.0529453
0.0524471
0.0518498
0.051156
0.0528723
0.0527404
0.0524766
0.0520824
0.0515598
0.0509112
0.0501398
0.0492486
0.048241
0.04712
0.0527406
0.052618
0.0523681
0.0519922
0.0514923
0.0508705
0.0501298
0.049273
0.0483032
0.0472234
0.0524771
0.0523684
0.052137
0.0517842
0.0513116
0.0507213
0.0500158
0.0491978
0.0482702
0.0472357
0.0520834
0.051993
0.0517847
0.0514593
0.0510185
0.050464
0.0497981
0.0490232
0.0481418
0.0471567
0.0515614
0.0514937
0.0513127
0.0510191
0.0506143
0.0500998
0.0494775
0.0487497
0.0479185
0.0469865
0.0509137
0.0508728
0.0507232
0.0504654
0.0501005
0.0496299
0.0490552
0.0483782
0.0476008
0.0467256
0.0501433
0.050133
0.0500186
0.0498005
0.0494792
0.0490561
0.0485324
0.0479098
0.0471897
0.0463744
0.0492534
0.0492774
0.0492019
0.0490267
0.0487525
0.0483802
0.0479109
0.0473457
0.046686
0.0459339
0.0482472
0.0483091
0.0482756
0.0481467
0.0479227
0.0476042
0.0471921
0.0466873
0.0460909
0.0454048
0.0471279
0.0472309
0.0472428
0.0471631
0.0469922
0.0467304
0.0463783
0.0459366
0.0454062
0.0447893
0.0462922
0.0461771
0.0459469
0.0456026
0.0451459
0.0445788
0.0439034
0.0431224
0.0422386
0.0412549
0.0461773
0.0460703