/*--------------------------------*- C++ -*----------------------------------*\
| =========                 |                                                 |
| \\      /  F ield         | foam-extend: Open Source CFD                    |
|  \\    /   O peration     | Version:     3.1                                |
|   \\  /    A nd           | Web:         http://www.extend-project.de       |
|    \\/     M anipulation  |                                                 |
\*---------------------------------------------------------------------------*/
FoamFile
{
    version     2.0;
    format      ascii;
    class       pointVectorField;
    location    "0.0017";
    object      pointMotionU;
}
// * * * * * * * * * * * * * * * * * * * * * * * * * * * * * * * * * * * * * //

dimensions      [0 1 -1 0 0 0 0];

internalField   nonuniform List<vector> 
18306
(
(0 0 0)
(0 0 0)
(0 0 0)
(0 0 0)
(0 0 0)
(0 0 0)
(0 0 0)
(0 0 0)
(0 0 0)
(0 0 0)
(0 0 0)
(0 0 0)
(0 0 0)
(0 0 0)
(0 0 0)
(0 0 0)
(0 0 0)
(0 0 0)
(0 0 0)
(0 0 0)
(0 0 0)
(0 0 0)
(0 0 0)
(0 0 0)
(0 0 0)
(0 0 0)
(0 0 0)
(0 0 0)
(0 0 0)
(0 0 0)
(0 0 0)
(0 0 0)
(0 0 0)
(0 0 0)
(0 0 0)
(0 0 0)
(0 0 0)
(0 0 0)
(0 0 0)
(0 0 0)
(0 0 0)
(0 0 0)
(0 0 0)
(0 0 0)
(0 0 0)
(0 0 0)
(0 0 0)
(0 0 0)
(0 0 0)
(0 0 0)
(0 0 0)
(0 0 0)
(0 0 0)
(0 0 0)
(0 0 0)
(0 0 0)
(0 0 0)
(0 0 0)
(0 0 0)
(0 0 0)
(0 0 0)
(0 0 0)
(0 0 0)
(0 0 0)
(0 0 0)
(0 0 0)
(0 0 0)
(0 0 0)
(0 0 0)
(0 0 0)
(0 0 0)
(0 0 0)
(0 0 0)
(0 0 0)
(0 0 0)
(0 0 0)
(0 0 0)
(0 0 0)
(0 0 0)
(0 0 0)
(0 0 0)
(0 0 0)
(0 0 0)
(0 0 0)
(0 0 0)
(0 0 0)
(0 0 0)
(0 0 0)
(0 0 0)
(0 0 0)
(0 0 0)
(0 0 0)
(0 0 0)
(0 0 0)
(0 0 0)
(0 0 0)
(0 0 0)
(0 0 0)
(0 0 0)
(0 0 0)
(0 0 0)
(0 0 0)
(0 0 0)
(0 0 0)
(0 0 0)
(0 0 0)
(0 0 0)
(0 0 0)
(0 0 0)
(0 0 0)
(0 0 0)
(0 0 0)
(0 0 0)
(0 0 0)
(0 0 0)
(0 0 0)
(0 0 0)
(0 0 0)
(0 0 0)
(0 0 0)
(0 0 0)
(0 -0 -1.36135e-08)
(6.01741e-09 0 -1.364e-08)
(1.19739e-08 0 -1.3732e-08)
(1.79009e-08 0 -1.38359e-08)
(2.393e-08 0 -1.38795e-08)
(3.01425e-08 0 -1.37516e-08)
(3.65181e-08 0 -1.32843e-08)
(4.2875e-08 0 -1.22297e-08)
(4.87628e-08 0 -1.02306e-08)
(5.32943e-08 0 -6.78102e-09)
(5.48889e-08 0 -1.08681e-09)
(0 1.0292e-08 -1.35338e-08)
(5.90485e-09 1.00715e-08 -1.35636e-08)
(1.17993e-08 9.4874e-09 -1.36659e-08)
(1.76999e-08 8.72491e-09 -1.37877e-08)
(2.37038e-08 7.8788e-09 -1.38558e-08)
(2.9892e-08 6.99044e-09 -1.37605e-08)
(3.62508e-08 6.1064e-09 -1.33384e-08)
(4.26159e-08 5.28262e-09 -1.23509e-08)
(4.85782e-08 4.58027e-09 -1.04627e-08)
(5.33443e-08 4.06745e-09 -7.22305e-09)
(5.55575e-08 3.73505e-09 -2.01914e-09)
(0 2.05109e-08 -1.33089e-08)
(5.62993e-09 2.01562e-08 -1.33477e-08)
(1.13342e-08 1.91669e-08 -1.34796e-08)
(1.71288e-08 1.77355e-08 -1.36539e-08)
(2.30531e-08 1.60606e-08 -1.3797e-08)
(2.91615e-08 1.42743e-08 -1.38013e-08)
(3.54624e-08 1.24678e-08 -1.35137e-08)
(4.18347e-08 1.07497e-08 -1.27187e-08)
(4.79533e-08 9.23394e-09 -1.11301e-08)
(5.32275e-08 8.03275e-09 -8.3992e-09)
(5.67422e-08 7.12101e-09 -4.07182e-09)
(0 3.08203e-08 -1.28784e-08)
(5.29587e-09 3.03756e-08 -1.29337e-08)
(1.07033e-08 2.911e-08 -1.31158e-08)
(1.62647e-08 2.71493e-08 -1.33776e-08)
(2.20115e-08 2.46957e-08 -1.36481e-08)
(2.796e-08 2.19823e-08 -1.3821e-08)
(3.4115e-08 1.91846e-08 -1.37525e-08)
(4.04042e-08 1.6449e-08 -1.32517e-08)
(4.6591e-08 1.39242e-08 -1.20779e-08)
(5.22576e-08 1.17489e-08 -9.95516e-09)
(5.68844e-08 9.88195e-09 -6.47259e-09)
(0 4.15327e-08 -1.21446e-08)
(4.93519e-09 4.10015e-08 -1.22253e-08)
(1.00001e-08 3.94768e-08 -1.24847e-08)
(1.52293e-08 3.70566e-08 -1.2876e-08)
(2.06648e-08 3.39004e-08 -1.33291e-08)
(2.63304e-08 3.02394e-08 -1.37407e-08)
(3.22116e-08 2.63407e-08 -1.39726e-08)
(3.82443e-08 2.24291e-08 -1.38503e-08)
(4.42597e-08 1.86695e-08 -1.31615e-08)
(4.9944e-08 1.51913e-08 -1.16663e-08)
(5.51227e-08 1.19328e-08 -8.91239e-09)
(0 5.28492e-08 -1.0952e-08)
(4.57499e-09 5.22382e-08 -1.10698e-08)
(9.27888e-09 5.04538e-08 -1.14427e-08)
(1.41285e-08 4.75683e-08 -1.20203e-08)
(1.91417e-08 4.37392e-08 -1.2724e-08)
(2.43586e-08 3.91545e-08 -1.34499e-08)
(2.97922e-08 3.40706e-08 -1.40652e-08)
(3.53634e-08 2.87975e-08 -1.44039e-08)
(4.08939e-08 2.35817e-08 -1.42682e-08)
(4.61176e-08 1.85184e-08 -1.3435e-08)
(5.12104e-08 1.34652e-08 -1.13872e-08)
(0 6.48283e-08 -9.07011e-09)
(4.24593e-09 6.41407e-08 -9.24418e-09)
(8.59588e-09 6.21211e-08 -9.78241e-09)
(1.30443e-08 5.87798e-08 -1.06235e-08)
(1.75725e-08 5.42526e-08 -1.16711e-08)
(2.21974e-08 4.87445e-08 -1.28054e-08)
(2.69602e-08 4.24733e-08 -1.38962e-08)
(3.18261e-08 3.57172e-08 -1.47877e-08)
(3.65769e-08 2.88419e-08 -1.52899e-08)
(4.08996e-08 2.20046e-08 -1.51896e-08)
(4.53036e-08 1.48948e-08 -1.39339e-08)
(0 7.73019e-08 -6.17085e-09)
(3.9818e-09 7.65619e-08 -6.43259e-09)
(8.02203e-09 7.43706e-08 -7.21996e-09)
(1.20683e-08 7.06344e-08 -8.43733e-09)
(1.60677e-08 6.54068e-08 -9.95392e-09)
(2.00083e-08 5.89078e-08 -1.16239e-08)
(2.39165e-08 5.14168e-08 -1.33052e-08)
(2.78086e-08 4.31812e-08 -1.48527e-08)
(3.15099e-08 3.45765e-08 -1.60851e-08)
(3.46278e-08 2.59076e-08 -1.67965e-08)
(3.78439e-08 1.67273e-08 -1.64667e-08)
(0 8.97285e-08 -1.80484e-09)
(3.81942e-09 8.90153e-08 -2.21087e-09)
(7.62415e-09 8.68142e-08 -3.39227e-09)
(1.12913e-08 8.28278e-08 -5.15967e-09)
(1.47239e-08 7.69732e-08 -7.31028e-09)
(1.78971e-08 6.94403e-08 -9.67167e-09)
(2.08353e-08 6.05989e-08 -1.20929e-08)
(2.35696e-08 5.08358e-08 -1.44223e-08)
(2.60165e-08 4.05771e-08 -1.64721e-08)
(2.77835e-08 3.02363e-08 -1.80424e-08)
(2.95161e-08 1.93566e-08 -1.87203e-08)
(0 1.00969e-07 4.62735e-09)
(3.79753e-09 1.00489e-07 3.95899e-09)
(7.46355e-09 9.87061e-08 2.12484e-09)
(1.07889e-08 9.48105e-08 -4.53707e-10)
(1.36182e-08 8.8485e-08 -3.45493e-09)
(1.5916e-08 7.99265e-08 -6.68799e-09)
(1.77467e-08 6.96159e-08 -1.00201e-08)
(1.92086e-08 5.81445e-08 -1.32949e-08)
(2.03363e-08 4.61659e-08 -1.62844e-08)
(2.08791e-08 3.43948e-08 -1.87258e-08)
(2.12973e-08 2.28513e-08 -2.02927e-08)
(0 1.09012e-07 1.40449e-08)
(3.86493e-09 1.09255e-07 1.27745e-08)
(7.43672e-09 1.0901e-07 9.89247e-09)
(1.04282e-08 1.0615e-07 6.23504e-09)
(1.2622e-08 9.99961e-08 2.24448e-09)
(1.3964e-08 9.08684e-08 -1.93947e-09)
(1.45578e-08 7.94359e-08 -6.27022e-09)
(1.4619e-08 6.64035e-08 -1.06466e-08)
(1.44095e-08 5.25489e-08 -1.48184e-08)
(1.41874e-08 3.89913e-08 -1.83568e-08)
(1.41144e-08 2.68762e-08 -2.08146e-08)
(0 -0 -2.73244e-08)
(1.12538e-08 0 -2.74023e-08)
(2.24213e-08 0 -2.7644e-08)
(3.36012e-08 0 -2.79864e-08)
(4.51088e-08 0 -2.8345e-08)
(5.72195e-08 0 -2.85934e-08)
(7.01117e-08 0 -2.85384e-08)
(8.38216e-08 0 -2.78881e-08)
(9.81455e-08 0 -2.62068e-08)
(1.12493e-07 0 -2.28471e-08)
(1.25833e-07 0 -1.67407e-08)
(0 1.92377e-08 -2.72357e-08)
(1.10463e-08 1.88321e-08 -2.7317e-08)
(2.21021e-08 1.77385e-08 -2.75722e-08)
(3.32373e-08 1.63173e-08 -2.79385e-08)
(4.47026e-08 1.47514e-08 -2.83291e-08)
(5.67717e-08 1.31287e-08 -2.86195e-08)
(6.96315e-08 1.15519e-08 -2.86218e-08)
(8.33386e-08 1.0149e-08 -2.80561e-08)
(9.77334e-08 9.06951e-09 -2.65164e-08)
(1.12306e-07 8.4955e-09 -2.34319e-08)
(1.26068e-07 8.46353e-09 -1.79762e-08)
(0 3.83803e-08 -2.69796e-08)
(1.05287e-08 3.77314e-08 -2.70718e-08)
(2.12276e-08 3.58797e-08 -2.7365e-08)
(3.21664e-08 3.32102e-08 -2.78004e-08)
(4.3486e-08 3.01088e-08 -2.82895e-08)
(5.54073e-08 2.68452e-08 -2.87095e-08)
(6.81484e-08 2.36213e-08 -2.88851e-08)
(8.18173e-08 2.06864e-08 -2.85658e-08)
(9.63366e-08 1.83211e-08 -2.74098e-08)
(1.11396e-07 1.68359e-08 -2.49897e-08)
(1.26426e-07 1.6259e-08 -2.07219e-08)
(0 5.77921e-08 -2.6482e-08)
(9.90371e-09 5.69816e-08 -2.65957e-08)
(2.00482e-08 5.46113e-08 -2.69546e-08)
(3.05556e-08 5.09524e-08 -2.75051e-08)
(4.15527e-08 4.64068e-08 -2.81633e-08)
(5.31843e-08 4.14459e-08 -2.88056e-08)
(6.56499e-08 3.64472e-08 -2.92665e-08)
(7.91199e-08 3.17529e-08 -2.93254e-08)
(9.36122e-08 2.77379e-08 -2.86977e-08)
(1.09003e-07 2.48005e-08 -2.70542e-08)
(1.25199e-07 2.29347e-08 -2.38815e-08)
(0 7.81502e-08 -2.56161e-08)
(9.23769e-09 7.71825e-08 -2.57639e-08)
(1.87521e-08 7.43211e-08 -2.62273e-08)
(2.86528e-08 6.97981e-08 -2.69523e-08)
(3.90895e-08 6.39466e-08 -2.78569e-08)
(5.02199e-08 5.72476e-08 -2.88194e-08)
(6.21978e-08 5.02686e-08 -2.96779e-08)
(7.51882e-08 4.35233e-08 -3.02291e-08)
(8.92944e-08 3.7445e-08 -3.02212e-08)
(1.04514e-07 3.24478e-08 -2.93666e-08)
(1.21242e-07 2.84523e-08 -2.70852e-08)
(0 9.99909e-08 -2.41815e-08)
(8.59046e-09 9.88744e-08 -2.43803e-08)
(1.74598e-08 9.5509e-08 -2.50017e-08)
(2.66876e-08 9.00962e-08 -2.59845e-08)
(3.63801e-08 8.2983e-08 -2.72336e-08)
(4.67289e-08 7.45871e-08 -2.86247e-08)
(5.79394e-08 6.54729e-08 -3.00008e-08)
(7.01347e-08 5.63366e-08 -3.11623e-08)
(8.33813e-08 4.77994e-08 -3.187e-08)
(9.77388e-08 4.02441e-08 -3.18489e-08)
(1.14138e-07 3.33667e-08 -3.04046e-08)
(0 1.23698e-07 -2.18823e-08)
(8.03385e-09 1.22428e-07 -2.21598e-08)
(1.6306e-08 1.18577e-07 -2.30159e-08)
(2.48583e-08 1.12258e-07 -2.4371e-08)
(3.3732e-08 1.03807e-07 -2.61014e-08)
(4.30778e-08 9.37007e-08 -2.80583e-08)
(5.31592e-08 8.24519e-08 -3.00843e-08)
(6.4186e-08 7.0713e-08 -3.19894e-08)
(7.61358e-08 5.93595e-08 -3.35347e-08)
(8.89649e-08 4.89328e-08 -3.44442e-08)
(1.0412e-07 3.87082e-08 -3.39428e-08)
(0 1.49421e-07 -1.82948e-08)
(7.65306e-09 1.48014e-07 -1.86969e-08)
(1.54673e-08 1.43727e-07 -1.9912e-08)
(2.34024e-08 1.36538e-07 -2.18052e-08)
(3.14414e-08 1.26683e-07 -2.42002e-08)
(3.96853e-08 1.14705e-07 -2.69068e-08)
(4.83707e-08 1.01253e-07 -2.97458e-08)
(5.78128e-08 8.69367e-08 -3.2538e-08)
(6.80527e-08 7.26482e-08 -3.50439e-08)
(7.888e-08 5.92556e-08 -3.69828e-08)
(9.1966e-08 4.56858e-08 -3.75946e-08)
(0 1.76916e-07 -1.28317e-08)
(7.55025e-09 1.75452e-07 -1.34424e-08)
(1.51337e-08 1.70863e-07 -1.52315e-08)
(2.25848e-08 1.62901e-07 -1.79178e-08)
(2.98142e-08 1.51657e-07 -2.12162e-08)
(3.69085e-08 1.37663e-07 -2.4894e-08)
(4.41005e-08 1.21739e-07 -2.87531e-08)
(5.17153e-08 1.04744e-07 -3.25956e-08)
(5.99208e-08 8.76273e-08 -3.61594e-08)
(6.84888e-08 7.15052e-08 -3.9165e-08)
(7.89083e-08 5.52238e-08 -4.09749e-08)
(0 2.05318e-07 -4.68639e-09)
(7.85002e-09 2.03995e-07 -5.68466e-09)
(1.55171e-08 1.99511e-07 -8.44005e-09)
(2.26852e-08 1.91063e-07 -1.2308e-08)
(2.91713e-08 1.78499e-07 -1.68211e-08)
(3.50609e-08 1.62397e-07 -2.17179e-08)
(4.06686e-08 1.43747e-07 -2.6822e-08)
(4.64067e-08 1.23709e-07 -3.19165e-08)
(5.25723e-08 1.03567e-07 -3.66701e-08)
(5.90147e-08 8.48913e-08 -4.07052e-08)
(6.65653e-08 6.73232e-08 -4.34876e-08)
(0 2.33118e-07 7.43445e-09)
(8.5107e-09 2.32215e-07 5.54754e-09)
(1.65007e-08 2.2907e-07 1.20081e-09)
(2.35275e-08 2.21247e-07 -4.26165e-09)
(2.93122e-08 2.08159e-07 -1.01804e-08)
(3.3927e-08 1.90558e-07 -1.63765e-08)
(3.77737e-08 1.69665e-07 -2.28024e-08)
(4.14682e-08 1.46721e-07 -2.93135e-08)
(4.56372e-08 1.23068e-07 -3.55373e-08)
(5.06206e-08 1.00541e-07 -4.08401e-08)
(5.64165e-08 8.10165e-08 -4.45964e-08)
(0 -0 -4.0889e-08)
(1.50227e-08 0 -4.10194e-08)
(2.9943e-08 0 -4.14264e-08)
(4.49095e-08 0 -4.208e-08)
(6.03962e-08 0 -4.29561e-08)
(7.68779e-08 0 -4.40268e-08)
(9.47855e-08 0 -4.52455e-08)
(1.14511e-07 0 -4.65336e-08)
(1.36374e-07 0 -4.7758e-08)
(1.60583e-07 0 -4.86939e-08)
(1.87554e-07 0 -4.89508e-08)
(0 2.56635e-08 -4.0864e-08)
(1.47368e-08 2.51132e-08 -4.09954e-08)
(2.95068e-08 2.3631e-08 -4.14086e-08)
(4.44103e-08 2.17145e-08 -4.20745e-08)
(5.98364e-08 1.96067e-08 -4.29658e-08)
(7.62623e-08 1.74434e-08 -4.40556e-08)
(9.4125e-08 1.5384e-08 -4.52985e-08)
(1.13834e-07 1.3629e-08 -4.66205e-08)
(1.35739e-07 1.24205e-08 -4.79008e-08)
(1.60069e-07 1.20647e-08 -4.89487e-08)
(1.86947e-07 1.26761e-08 -4.9455e-08)
(0 5.12406e-08 -4.08059e-08)
(1.4017e-08 5.03691e-08 -4.09405e-08)
(2.82889e-08 4.78517e-08 -4.13696e-08)
(4.29123e-08 4.423e-08 -4.20686e-08)
(5.81301e-08 4.00462e-08 -4.30075e-08)
(7.43491e-08 3.56888e-08 -4.41576e-08)
(9.20411e-08 3.14696e-08 -4.54779e-08)
(1.1166e-07 2.77795e-08 -4.69038e-08)
(1.33597e-07 2.50734e-08 -4.83372e-08)
(1.58182e-07 2.38804e-08 -4.96501e-08)
(1.85719e-07 2.43394e-08 -5.06531e-08)
(0 7.72586e-08 -4.06707e-08)
(1.3147e-08 7.61721e-08 -4.08155e-08)
(2.66387e-08 7.29382e-08 -4.12751e-08)
(4.06573e-08 6.79547e-08 -4.20312e-08)
(5.54281e-08 6.18073e-08 -4.30588e-08)
(7.12497e-08 5.51696e-08 -4.43235e-08)
(8.85632e-08 4.86081e-08 -4.57839e-08)
(1.07882e-07 4.26639e-08 -4.73833e-08)
(1.29668e-07 3.79506e-08 -4.90391e-08)
(1.54377e-07 3.51547e-08 -5.06573e-08)
(1.8271e-07 3.43836e-08 -5.20587e-08)
(0 1.0471e-07 -4.03853e-08)
(1.22206e-08 1.03404e-07 -4.05497e-08)
(2.48308e-08 9.9484e-08 -4.10683e-08)
(3.80084e-08 9.3306e-08 -4.19231e-08)
(5.20134e-08 8.53709e-08 -4.30927e-08)
(6.71608e-08 7.63853e-08 -4.45417e-08)
(8.38269e-08 6.71929e-08 -4.62229e-08)
(1.02504e-07 5.85901e-08 -4.8079e-08)
(1.23735e-07 5.12979e-08 -5.00321e-08)
(1.48079e-07 4.60557e-08 -5.19897e-08)
(1.76764e-07 4.28598e-08 -5.36771e-08)
(0 1.34483e-07 -3.98384e-08)
(1.13291e-08 1.32965e-07 -4.00354e-08)
(2.30522e-08 1.28326e-07 -4.06557e-08)
(3.53124e-08 1.20897e-07 -4.16758e-08)
(4.83164e-08 1.11214e-07 -4.30652e-08)
(6.24304e-08 9.99216e-08 -4.47862e-08)
(7.81043e-08 8.78803e-08 -4.67914e-08)
(9.57679e-08 7.61561e-08 -4.90136e-08)
(1.15902e-07 6.57541e-08 -5.13699e-08)
(1.39131e-07 5.74014e-08 -5.37593e-08)
(1.67313e-07 5.07401e-08 -5.57585e-08)
(0 1.67383e-07 -3.8868e-08)
(1.05869e-08 1.65635e-07 -3.91192e-08)
(2.15166e-08 1.60266e-07 -3.9903e-08)
(3.28865e-08 1.5152e-07 -4.11823e-08)
(4.48217e-08 1.39947e-07 -4.29054e-08)
(5.764e-08 1.26307e-07 -4.50159e-08)
(7.18789e-08 1.11413e-07 -4.7464e-08)
(8.80936e-08 9.62912e-08 -5.01842e-08)
(1.06638e-07 8.23178e-08 -5.30805e-08)
(1.27989e-07 7.047e-08 -5.60357e-08)
(1.54616e-07 5.97306e-08 -5.8492e-08)
(0 2.04093e-07 -3.72457e-08)
(1.0133e-08 2.0211e-07 -3.75863e-08)
(2.051e-08 1.95996e-07 -3.86298e-08)
(3.1123e-08 1.85888e-07 -4.02996e-08)
(4.20271e-08 1.72261e-07 -4.25065e-08)
(5.34813e-08 1.56012e-07 -4.51626e-08)
(6.59935e-08 1.38163e-07 -4.8197e-08)
(8.02755e-08 1.19698e-07 -5.15499e-08)
(9.67565e-08 1.02016e-07 -5.51081e-08)
(1.15678e-07 8.6582e-08 -5.87382e-08)
(1.39724e-07 7.1807e-08 -6.18255e-08)
(0 2.45093e-07 -3.46607e-08)
(1.01394e-08 2.429e-07 -3.51519e-08)
(2.03557e-08 2.36032e-07 -3.66129e-08)
(3.04792e-08 2.24492e-07 -3.88642e-08)
(4.04783e-08 2.08694e-07 -4.17413e-08)
(5.06065e-08 1.8957e-07 -4.51246e-08)
(6.13735e-08 1.68384e-07 -4.89204e-08)
(7.34957e-08 1.46442e-07 -5.30389e-08)
(8.75408e-08 1.25191e-07 -5.73251e-08)
(1.03712e-07 1.06467e-07 -6.16454e-08)
(1.2433e-07 8.84842e-08 -6.54209e-08)
(0 2.90524e-07 -3.06872e-08)
(1.08243e-08 2.88183e-07 -3.1455e-08)
(2.14347e-08 2.80666e-07 -3.36129e-08)
(3.14684e-08 2.67685e-07 -3.67263e-08)
(4.0785e-08 2.49556e-07 -4.05035e-08)
(4.9658e-08 2.27322e-07 -4.48029e-08)
(5.87223e-08 2.02434e-07 -4.95367e-08)
(6.87866e-08 1.76529e-07 -5.45707e-08)
(8.05145e-08 1.51412e-07 -5.9661e-08)
(9.40365e-08 1.29416e-07 -6.45547e-08)
(1.10473e-07 1.09694e-07 -6.86817e-08)
(0 3.40656e-07 -2.46304e-08)
(1.21908e-08 3.37873e-07 -2.59881e-08)
(2.36826e-08 3.30428e-07 -2.92683e-08)
(3.39576e-08 3.16794e-07 -3.35089e-08)
(4.27665e-08 2.96981e-07 -3.82767e-08)
(5.03873e-08 2.72212e-07 -4.34921e-08)
(5.75893e-08 2.44124e-07 -4.91561e-08)
(6.54496e-08 2.14331e-07 -5.5166e-08)
(7.4994e-08 1.84538e-07 -6.1205e-08)
(8.65805e-08 1.56951e-07 -6.66875e-08)
(9.99114e-08 1.338e-07 -7.10476e-08)
(0 -0 -5.35181e-08)
(1.68971e-08 0 -5.36644e-08)
(3.36384e-08 0 -5.41294e-08)
(5.03315e-08 0 -5.49351e-08)
(6.74605e-08 0 -5.61437e-08)
(8.55128e-08 0 -5.78596e-08)
(1.04914e-07 0 -6.02319e-08)
(1.26034e-07 0 -6.3469e-08)
(1.49157e-07 0 -6.78572e-08)
(1.74439e-07 0 -7.3791e-08)
(2.02239e-07 0 -8.19345e-08)
(0 2.87294e-08 -5.35934e-08)
(1.65526e-08 2.80935e-08 -5.3736e-08)
(3.31066e-08 2.63758e-08 -5.41902e-08)
(4.97092e-08 2.41471e-08 -5.49795e-08)
(6.6753e-08 2.16846e-08 -5.6165e-08)
(8.47335e-08 1.91579e-08 -5.78503e-08)
(1.04085e-07 1.67645e-08 -6.01794e-08)
(1.25205e-07 1.47508e-08 -6.33523e-08)
(1.48416e-07 1.3415e-08 -6.76371e-08)
(1.73913e-07 1.31358e-08 -7.33845e-08)
(2.01773e-07 1.40942e-08 -8.10857e-08)
(0 5.735e-08 -5.3842e-08)
(1.56715e-08 5.63414e-08 -5.39724e-08)
(3.15977e-08 5.33994e-08 -5.43929e-08)
(4.78237e-08 4.91564e-08 -5.51319e-08)
(6.4582e-08 4.42515e-08 -5.62502e-08)
(8.22965e-08 3.91456e-08 -5.78461e-08)
(1.01449e-07 3.42215e-08 -6.00544e-08)
(1.225e-07 2.99574e-08 -6.3052e-08)
(1.45844e-07 2.69126e-08 -6.70595e-08)
(1.71817e-07 2.57417e-08 -7.23417e-08)
(2.00734e-07 2.67077e-08 -7.9276e-08)
(0 8.64116e-08 -5.4267e-08)
(1.45833e-08 8.51449e-08 -5.43811e-08)
(2.95177e-08 8.13327e-08 -5.4753e-08)
(4.49611e-08 7.54533e-08 -5.5418e-08)
(6.11311e-08 6.82124e-08 -5.64412e-08)
(7.83338e-08 6.04013e-08 -5.79136e-08)
(9.703e-08 5.27004e-08 -5.99565e-08)
(1.17767e-07 4.57694e-08 -6.27217e-08)
(1.41044e-07 4.03604e-08 -6.63794e-08)
(1.67374e-07 3.73169e-08 -7.11187e-08)
(1.97575e-07 3.69365e-08 -7.72353e-08)
(0 1.17012e-07 -5.48835e-08)
(1.34006e-08 1.15475e-07 -5.49813e-08)
(2.71971e-08 1.10822e-07 -5.53036e-08)
(4.15542e-08 1.0349e-07 -5.58898e-08)
(5.67354e-08 9.40901e-08 -5.68111e-08)
(7.30726e-08 8.34645e-08 -5.81574e-08)
(9.09683e-08 7.26157e-08 -6.00375e-08)
(1.10963e-07 6.24972e-08 -6.25802e-08)
(1.33672e-07 5.39882e-08 -6.59226e-08)
(1.5975e-07 4.79925e-08 -7.02014e-08)
(1.90693e-07 4.47653e-08 -7.5617e-08)
(0 1.50174e-07 -5.57203e-08)
(1.22347e-08 1.48372e-07 -5.58046e-08)
(2.48646e-08 1.4283e-07 -5.60867e-08)
(3.80183e-08 1.33966e-07 -5.66093e-08)
(5.19061e-08 1.22428e-07 -5.74474e-08)
(6.69261e-08 1.09001e-07 -5.86955e-08)
(8.35779e-08 9.47152e-08 -6.04606e-08)
(1.02348e-07 8.08339e-08 -6.2853e-08)
(1.23796e-07 6.85519e-08 -6.59899e-08)
(1.48664e-07 5.87537e-08 -6.99846e-08)
(1.79262e-07 5.13761e-08 -7.49034e-08)
(0 1.86848e-07 -5.68215e-08)
(1.12261e-08 1.84759e-07 -5.68968e-08)
(2.27802e-08 1.78303e-07 -5.71554e-08)
(3.47383e-08 1.67804e-07 -5.76441e-08)
(4.72237e-08 1.5394e-07 -5.84424e-08)
(6.05885e-08 1.37636e-07 -5.96483e-08)
(7.54431e-08 1.19877e-07 -6.13718e-08)
(9.24308e-08 1.01888e-07 -6.37223e-08)
(1.11978e-07 8.52765e-08 -6.68023e-08)
(1.34667e-07 7.12027e-08 -7.07134e-08)
(1.63578e-07 5.89076e-08 -7.53673e-08)
(0 2.27891e-07 -5.82554e-08)
(1.05432e-08 2.25499e-07 -5.8328e-08)
(2.12892e-08 2.18082e-07 -5.85826e-08)
(3.21917e-08 2.05863e-07 -5.90735e-08)
(4.32966e-08 1.89456e-07 -5.98879e-08)
(5.48982e-08 1.69952e-07 -6.11278e-08)
(6.75871e-08 1.48588e-07 -6.29006e-08)
(8.21952e-08 1.26543e-07 -6.53208e-08)
(9.92549e-08 1.05463e-07 -6.84722e-08)
(1.19088e-07 8.70498e-08 -7.24528e-08)
(1.45034e-07 6.9881e-08 -7.70453e-08)
(0 2.7399e-07 -6.01322e-08)
(1.03922e-08 2.71302e-07 -6.02062e-08)
(2.07824e-08 2.62857e-07 -6.04713e-08)
(3.09349e-08 2.48777e-07 -6.09964e-08)
(4.07974e-08 2.29642e-07 -6.18838e-08)
(5.0664e-08 2.06609e-07 -6.32412e-08)
(6.11443e-08 1.81203e-07 -6.51669e-08)
(7.30992e-08 1.5498e-07 -6.77509e-08)
(8.72502e-08 1.29655e-07 -7.10373e-08)
(1.03878e-07 1.0734e-07 -7.51338e-08)
(1.2587e-07 8.6311e-08 -7.97402e-08)
(0 3.25553e-07 -6.26267e-08)
(1.103e-08 3.22585e-07 -6.26978e-08)
(2.17137e-08 3.13106e-07 -6.29734e-08)
(3.15848e-08 2.9703e-07 -6.35538e-08)
(4.04661e-08 2.74902e-07 -6.45616e-08)
(4.86807e-08 2.48035e-07 -6.61109e-08)
(5.69978e-08 2.18178e-07 -6.82875e-08)
(6.6421e-08 1.87275e-07 -7.11276e-08)
(7.78221e-08 1.57459e-07 -7.45941e-08)
(9.14343e-08 1.31412e-07 -7.86851e-08)
(1.08737e-07 1.08375e-07 -8.29826e-08)
(0 3.83308e-07 -6.60586e-08)
(1.24961e-08 3.79596e-07 -6.60518e-08)
(2.40933e-08 3.69672e-07 -6.62816e-08)
(3.41357e-08 3.52336e-07 -6.68662e-08)
(4.23163e-08 3.27878e-07 -6.79383e-08)
(4.89605e-08 2.97824e-07 -6.96184e-08)
(5.49942e-08 2.64115e-07 -7.199e-08)
(6.1747e-08 2.28657e-07 -7.5057e-08)
(7.05435e-08 1.93479e-07 -7.86923e-08)
(8.19796e-08 1.61178e-07 -8.25506e-08)
(9.58288e-08 1.34315e-07 -8.62679e-08)
(0 -0 -6.44634e-08)
(1.70231e-08 0 -6.45649e-08)
(3.3796e-08 0 -6.4901e-08)
(5.03128e-08 0 -6.55312e-08)
(6.69232e-08 0 -6.65699e-08)
(8.3927e-08 0 -6.81891e-08)
(1.01462e-07 0 -7.06273e-08)
(1.19453e-07 0 -7.42125e-08)
(1.37505e-07 0 -7.93969e-08)
(1.54739e-07 0 -8.682e-08)
(1.69758e-07 0 -9.75826e-08)
(0 2.83556e-08 -6.46288e-08)
(1.66389e-08 2.77005e-08 -6.47196e-08)
(3.31857e-08 2.5916e-08 -6.50218e-08)
(4.95772e-08 2.35777e-08 -6.55978e-08)
(6.60736e-08 2.09755e-08 -6.6564e-08)
(8.29875e-08 1.82919e-08 -6.80903e-08)
(1.00477e-07 1.57387e-08 -7.04063e-08)
(1.18513e-07 1.35771e-08 -7.38218e-08)
(1.36786e-07 1.21217e-08 -7.87489e-08)
(1.54571e-07 1.17684e-08 -8.57302e-08)
(1.70594e-07 1.27498e-08 -9.55716e-08)
(0 5.65126e-08 -6.5146e-08)
(1.5638e-08 5.54581e-08 -6.52041e-08)
(3.14402e-08 5.23684e-08 -6.54077e-08)
(4.73489e-08 4.78918e-08 -6.58253e-08)
(6.3471e-08 4.2688e-08 -6.65778e-08)
(8.0059e-08 3.72386e-08 -6.78303e-08)
(9.73443e-08 3.19509e-08 -6.97938e-08)
(1.15417e-07 2.73284e-08 -7.27325e-08)
(1.3415e-07 2.39574e-08 -7.69639e-08)
(1.53183e-07 2.25193e-08 -8.28433e-08)
(1.71914e-07 2.34125e-08 -9.09428e-08)
(0 8.49027e-08 -6.60482e-08)
(1.43603e-08 8.35592e-08 -6.60559e-08)
(2.89818e-08 7.95086e-08 -6.6109e-08)
(4.39271e-08 7.32521e-08 -6.62832e-08)
(5.92986e-08 6.5521e-08 -6.67054e-08)
(7.52483e-08 5.71314e-08 -6.75387e-08)
(9.20181e-08 4.87895e-08 -6.89753e-08)
(1.09848e-07 4.11826e-08 -7.12335e-08)
(1.2883e-07 3.50908e-08 -7.45399e-08)
(1.48967e-07 3.13756e-08 -7.91042e-08)
(1.70505e-07 3.06107e-08 -8.54188e-08)
(0 1.14494e-07 -6.74107e-08)
(1.29274e-08 1.12849e-07 -6.73553e-08)
(2.61555e-08 1.07862e-07 -6.7218e-08)
(3.97571e-08 9.99928e-08 -6.70845e-08)
(5.38899e-08 8.98753e-08 -6.70928e-08)
(6.87508e-08 7.83797e-08 -6.7411e-08)
(8.45541e-08 6.65292e-08 -6.82221e-08)
(1.01581e-07 5.52916e-08 -6.97128e-08)
(1.2012e-07 4.55616e-08 -7.20581e-08)
(1.40427e-07 3.8239e-08 -7.5393e-08)
(1.63729e-07 3.40532e-08 -8.02008e-08)
(0 1.46158e-07 -6.93503e-08)
(1.14577e-08 1.44217e-07 -6.92208e-08)
(2.32013e-08 1.38246e-07 -6.88598e-08)
(3.52655e-08 1.28676e-07 -6.83684e-08)
(4.77609e-08 1.16167e-07 -6.79074e-08)
(6.09625e-08 1.01524e-07 -6.76608e-08)
(7.52046e-08 8.57944e-08 -6.78164e-08)
(9.07528e-08 7.02405e-08 -6.85496e-08)
(1.07875e-07 5.60335e-08 -7.00165e-08)
(1.26961e-07 4.40206e-08 -7.23369e-08)
(1.50352e-07 3.48529e-08 -7.59616e-08)
(0 1.80628e-07 -7.20282e-08)
(1.00974e-08 1.78376e-07 -7.18098e-08)
(2.03891e-08 1.71409e-07 -7.11884e-08)
(3.08474e-08 1.60044e-07 -7.02916e-08)
(4.14968e-08 1.44948e-07 -6.93177e-08)
(5.25744e-08 1.27049e-07 -6.84857e-08)
(6.45387e-08 1.07339e-07 -6.79988e-08)
(7.7833e-08 8.70377e-08 -6.8038e-08)
(9.26145e-08 6.76918e-08 -6.87625e-08)
(1.09126e-07 5.03749e-08 -7.03076e-08)
(1.30738e-07 3.52614e-08 -7.30327e-08)
(0 2.18438e-07 -7.56668e-08)
(9.01753e-09 2.15876e-07 -7.53346e-08)
(1.80691e-08 2.07908e-07 -7.43914e-08)
(2.69887e-08 1.94704e-07 -7.30224e-08)
(3.57158e-08 1.76829e-07 -7.1486e-08)
(4.44338e-08 1.55351e-07 -7.00516e-08)
(5.35979e-08 1.31509e-07 -6.8952e-08)
(6.38478e-08 1.06467e-07 -6.83789e-08)
(7.54964e-08 8.18326e-08 -6.84982e-08)
(8.85345e-08 5.91685e-08 -6.94752e-08)
(1.06723e-07 3.80669e-08 -7.15291e-08)
(0 2.59782e-07 -8.05749e-08)
(8.42018e-09 2.56962e-07 -8.00786e-08)
(1.66285e-08 2.48032e-07 -7.8692e-08)
(2.42457e-08 2.32954e-07 -7.67302e-08)
(3.10962e-08 2.12181e-07 -7.45592e-08)
(3.73576e-08 1.86827e-07 -7.25022e-08)
(4.35253e-08 1.58432e-07 -7.08153e-08)
(5.032e-08 1.28572e-07 -6.96997e-08)
(5.83396e-08 9.89981e-08 -6.93218e-08)
(6.7546e-08 7.16301e-08 -6.9871e-08)
(8.12619e-08 4.56963e-08 -7.14137e-08)
(0 3.04318e-07 -8.71964e-08)
(8.5443e-09 3.01372e-07 -8.64185e-08)
(1.64953e-08 2.91713e-07 -8.43425e-08)
(2.32056e-08 2.74828e-07 -8.15784e-08)
(2.83474e-08 2.51007e-07 -7.86588e-08)
(3.21129e-08 2.21525e-07 -7.59519e-08)
(3.51748e-08 1.88202e-07 -7.37036e-08)
(3.84929e-08 1.53112e-07 -7.20974e-08)
(4.29764e-08 1.18549e-07 -7.12855e-08)
(4.87822e-08 8.71436e-08 -7.14331e-08)
(5.79746e-08 5.9016e-08 -7.2466e-08)
(0 3.5147e-07 -9.6332e-08)
(9.45685e-09 3.48367e-07 -9.49229e-08)
(1.77809e-08 3.39132e-07 -9.17459e-08)
(2.40876e-08 3.21617e-07 -8.79352e-08)
(2.78839e-08 2.95732e-07 -8.41844e-08)
(2.93291e-08 2.63018e-07 -8.08222e-08)
(2.9237e-08 2.25583e-07 -7.80174e-08)
(2.8939e-08 1.8558e-07 -7.58926e-08)
(2.99619e-08 1.45383e-07 -7.45569e-08)
(3.34636e-08 1.08145e-07 -7.40569e-08)
(3.98184e-08 7.69009e-08 -7.43687e-08)
(0 -0 -7.34988e-08)
(1.60248e-08 0 -7.35177e-08)
(3.17303e-08 0 -7.36067e-08)
(4.70179e-08 0 -7.38386e-08)
(6.20963e-08 0 -7.433e-08)
(7.70702e-08 0 -7.52366e-08)
(9.17939e-08 0 -7.67524e-08)
(1.05768e-07 0 -7.91185e-08)
(1.17955e-07 0 -8.26415e-08)
(1.2652e-07 0 -8.77457e-08)
(1.2843e-07 0 -9.52037e-08)
(0 2.52054e-08 -7.37292e-08)
(1.56198e-08 2.45914e-08 -7.37298e-08)
(3.10714e-08 2.29147e-08 -7.37617e-08)
(4.6204e-08 2.07031e-08 -7.39025e-08)
(6.11438e-08 1.82312e-08 -7.42731e-08)
(7.60129e-08 1.56815e-08 -7.50274e-08)
(9.06976e-08 1.32689e-08 -7.635e-08)
(1.04764e-07 1.12584e-08 -7.846e-08)
(1.17311e-07 9.97179e-09 -8.1618e-08)
(1.26768e-07 9.81499e-09 -8.61398e-08)
(1.30637e-07 1.10767e-08 -9.25525e-08)
(0 5.01038e-08 -7.4434e-08)
(1.45518e-08 4.91024e-08 -7.43816e-08)
(2.91801e-08 4.61712e-08 -7.42513e-08)
(4.37449e-08 4.19132e-08 -7.41279e-08)
(5.82354e-08 3.69458e-08 -7.41434e-08)
(7.27315e-08 3.17337e-08 -7.44508e-08)
(8.72191e-08 2.66864e-08 -7.52145e-08)
(1.01438e-07 2.23107e-08 -7.66027e-08)
(1.14786e-07 1.92018e-08 -7.87716e-08)
(1.26286e-07 1.80561e-08 -8.1828e-08)
(1.34543e-07 1.94216e-08 -8.61047e-08)
(0 7.49512e-08 -7.56528e-08)
(1.315e-08 7.3659e-08 -7.5517e-08)
(2.64666e-08 6.97729e-08 -7.51366e-08)
(3.99283e-08 6.37668e-08 -7.46037e-08)
(5.35315e-08 5.63292e-08 -7.40614e-08)
(6.72825e-08 4.82322e-08 -7.36715e-08)
(8.12135e-08 4.01601e-08 -7.35832e-08)
(9.52769e-08 3.27964e-08 -7.39161e-08)
(1.09206e-07 2.69242e-08 -7.47334e-08)
(1.22577e-07 2.34097e-08 -7.59885e-08)
(1.35186e-07 2.31409e-08 -7.8036e-08)
(0 1.00471e-07 -7.74737e-08)
(1.15354e-08 9.88745e-08 -7.72285e-08)
(2.32656e-08 9.40496e-08 -7.65201e-08)
(3.518e-08 8.64254e-08 -7.54572e-08)
(4.73357e-08 7.65979e-08 -7.42005e-08)
(5.98028e-08 6.53894e-08 -7.29273e-08)
(7.26212e-08 5.37644e-08 -7.17905e-08)
(8.58367e-08 4.26481e-08 -7.08847e-08)
(9.9458e-08 3.29218e-08 -7.02284e-08)
(1.13429e-07 2.54721e-08 -6.97158e-08)
(1.28825e-07 2.15891e-08 -6.98401e-08)
(0 1.27263e-07 -8.00218e-08)
(9.82608e-09 1.2537e-07 -7.96431e-08)
(1.98139e-08 1.19569e-07 -7.85338e-08)
(2.99111e-08 1.10242e-07 -7.68298e-08)
(4.01343e-08 9.79892e-08 -7.47345e-08)
(5.06381e-08 8.35593e-08 -7.24544e-08)
(6.15997e-08 6.79315e-08 -7.0159e-08)
(7.30903e-08 5.22802e-08 -6.7953e-08)
(8.51377e-08 3.7695e-08 -6.58511e-08)
(9.7863e-08 2.49861e-08 -6.37591e-08)
(1.13758e-07 1.56915e-08 -6.22963e-08)
(0 1.55731e-07 -8.34512e-08)
(8.16701e-09 1.5354e-07 -8.29077e-08)
(1.63786e-08 1.46778e-07 -8.13152e-08)
(2.45083e-08 1.35689e-07 -7.88552e-08)
(3.24882e-08 1.20839e-07 -7.57999e-08)
(4.04408e-08 1.03051e-07 -7.24219e-08)
(4.8671e-08 8.32386e-08 -6.89219e-08)
(5.74383e-08 6.25327e-08 -6.54232e-08)
(6.66838e-08 4.23211e-08 -6.19735e-08)
(7.63995e-08 2.35682e-08 -5.85345e-08)
(9.03687e-08 7.67465e-09 -5.5758e-08)
(0 1.85974e-07 -8.79459e-08)
(6.72466e-09 1.83517e-07 -8.71893e-08)
(1.33008e-08 1.75867e-07 -8.49919e-08)
(1.94485e-08 1.63058e-07 -8.16305e-08)
(2.50055e-08 1.4549e-07 -7.74799e-08)
(3.00405e-08 1.2407e-07 -7.29071e-08)
(3.48645e-08 9.99082e-08 -6.81785e-08)
(3.99255e-08 7.40806e-08 -6.34369e-08)
(4.53611e-08 4.80601e-08 -5.87802e-08)
(5.09242e-08 2.31985e-08 -5.42417e-08)
(6.09229e-08 4.87716e-10 -5.03838e-08)
(0 2.17597e-07 -9.37262e-08)
(5.69007e-09 2.14991e-07 -9.26718e-08)
(1.0952e-08 2.06665e-07 -8.96627e-08)
(1.52743e-08 1.92287e-07 -8.51804e-08)
(1.83598e-08 1.72022e-07 -7.97736e-08)
(2.02546e-08 1.46766e-07 -7.39052e-08)
(2.13209e-08 1.17911e-07 -6.79075e-08)
(2.21287e-08 8.69364e-08 -6.19833e-08)
(2.31861e-08 5.55404e-08 -5.62988e-08)
(2.42235e-08 2.53589e-08 -5.09233e-08)
(2.91305e-08 -3.02494e-09 -4.62648e-08)
(0 2.49427e-07 -1.01084e-07)
(5.27572e-09 2.46971e-07 -9.95545e-08)
(9.72316e-09 2.38555e-07 -9.53577e-08)
(1.25334e-08 2.22997e-07 -8.94193e-08)
(1.32268e-08 2.00109e-07 -8.25516e-08)
(1.1834e-08 1.709e-07 -7.52985e-08)
(8.88877e-09 1.37075e-07 -6.80043e-08)
(5.28205e-09 1.0069e-07 -6.09266e-08)
(1.98867e-09 6.40897e-08 -5.43252e-08)
(-8.14159e-10 2.97375e-08 -4.83911e-08)
(-3.31304e-10 -1.09054e-09 -4.34871e-08)
(0 2.79455e-07 -1.10613e-07)
(5.58617e-09 2.77705e-07 -1.08189e-07)
(9.85336e-09 2.71039e-07 -1.02291e-07)
(1.17183e-08 2.56004e-07 -9.46555e-08)
(1.0498e-08 2.31834e-07 -8.6351e-08)
(6.1364e-09 1.99834e-07 -7.78616e-08)
(-7.38501e-10 1.62079e-07 -6.94198e-08)
(-8.85502e-09 1.20823e-07 -6.12388e-08)
(-1.64827e-08 7.8695e-08 -5.36381e-08)
(-2.17931e-08 3.93218e-08 -4.71034e-08)
(-2.36337e-08 6.16257e-09 -4.20174e-08)
(0 -0 -8.0812e-08)
(1.45463e-08 0 -8.07733e-08)
(2.88004e-08 0 -8.06887e-08)
(4.26697e-08 0 -8.06349e-08)
(5.63381e-08 0 -8.07172e-08)
(6.98866e-08 0 -8.10574e-08)
(8.31531e-08 0 -8.17817e-08)
(9.56257e-08 0 -8.30114e-08)
(1.06258e-07 0 -8.48632e-08)
(1.13207e-07 0 -8.74852e-08)
(1.13403e-07 0 -9.12303e-08)
(0 2.02561e-08 -8.11037e-08)
(1.41469e-08 1.97431e-08 -8.1041e-08)
(2.81405e-08 1.83444e-08 -8.08816e-08)
(4.18425e-08 1.64999e-08 -8.07085e-08)
(5.53631e-08 1.44512e-08 -8.06332e-08)
(6.88037e-08 1.23759e-08 -8.07767e-08)
(8.20391e-08 1.04908e-08 -8.12558e-08)
(9.46307e-08 9.06974e-09 -8.21684e-08)
(1.05682e-07 8.45651e-09 -8.35839e-08)
(1.13639e-07 9.09535e-09 -8.55411e-08)
(1.16015e-07 1.13365e-08 -8.82192e-08)
(0 4.01548e-08 -8.19857e-08)
(1.30852e-08 3.93098e-08 -8.18544e-08)
(2.62415e-08 3.68459e-08 -8.14842e-08)
(3.9345e-08 3.32744e-08 -8.09663e-08)
(5.23868e-08 2.91306e-08 -8.04291e-08)
(6.54404e-08 2.48435e-08 -7.99974e-08)
(7.84918e-08 2.08239e-08 -7.97681e-08)
(9.12974e-08 1.75924e-08 -7.97879e-08)
(1.03295e-07 1.57807e-08 -8.00228e-08)
(1.13585e-07 1.61518e-08 -8.03025e-08)
(1.2085e-07 1.93839e-08 -8.0669e-08)
(0 5.98047e-08 -8.34959e-08)
(1.16666e-08 5.87027e-08 -8.3256e-08)
(2.34834e-08 5.54045e-08 -8.25596e-08)
(3.54381e-08 5.032e-08 -8.15062e-08)
(4.75378e-08 4.40518e-08 -8.02407e-08)
(5.98032e-08 3.7292e-08 -7.89059e-08)