/*--------------------------------*- C++ -*----------------------------------*\
| =========                 |                                                 |
| \\      /  F ield         | foam-extend: Open Source CFD                    |
|  \\    /   O peration     | Version:     3.1                                |
|   \\  /    A nd           | Web:         http://www.extend-project.de       |
|    \\/     M anipulation  |                                                 |
\*---------------------------------------------------------------------------*/
FoamFile
{
    version     2.0;
    format      ascii;
    class       surfaceVectorField;
    location    "0.0017";
    object      Sf_0;
}
// * * * * * * * * * * * * * * * * * * * * * * * * * * * * * * * * * * * * * //

dimensions      [0 2 0 0 0 0 0];

internalField   nonuniform List<vector> 
45800
(
(2.1107e-07 3.68451e-09 -8.9506e-10)
(3.68387e-09 2.11067e-07 -8.97356e-10)
(-1.3538e-11 -1.34652e-11 1.16346e-07)
(2.07406e-07 7.36326e-09 -1.7289e-09)
(3.70326e-09 2.11069e-07 -8.89531e-10)
(-3.98676e-11 -1.41303e-11 1.14276e-07)
(2.03762e-07 1.10396e-08 -2.48564e-09)
(3.70926e-09 2.11079e-07 -8.6823e-10)
(-6.47513e-11 -1.54742e-11 1.12177e-07)
(2.00141e-07 1.47198e-08 -3.1685e-09)
(3.71031e-09 2.11114e-07 -8.4364e-10)
(-8.9507e-11 -1.76729e-11 1.10078e-07)
(1.96545e-07 1.8406e-08 -3.78274e-09)
(3.71117e-09 2.11179e-07 -8.19076e-10)
(-1.15287e-10 -2.08909e-11 1.07984e-07)
(1.92976e-07 2.21002e-08 -4.33142e-09)
(3.7119e-09 2.11275e-07 -7.95283e-10)
(-1.42998e-10 -2.5281e-11 1.05894e-07)
(1.89437e-07 2.58046e-08 -4.81543e-09)
(3.71211e-09 2.11404e-07 -7.73186e-10)
(-1.73474e-10 -3.10703e-11 1.03807e-07)
(1.85933e-07 2.95217e-08 -5.2332e-09)
(3.71176e-09 2.11566e-07 -7.53971e-10)
(-2.07097e-10 -3.84404e-11 1.01721e-07)
(1.82466e-07 3.3255e-08 -5.58017e-09)
(3.71073e-09 2.11764e-07 -7.38928e-10)
(-2.43734e-10 -4.71675e-11 9.96344e-08)
(3.72206e-09 2.12e-07 -7.22912e-10)
(-2.84909e-10 -5.4539e-11 9.7542e-08)
(1.79029e-07 3.70118e-08 -5.8513e-09)
(2.11068e-07 3.70258e-09 -8.87244e-10)
(7.362e-09 2.07404e-07 -1.72985e-09)
(-1.41768e-11 -3.97649e-11 1.14272e-07)
(2.07419e-07 7.39386e-09 -1.72373e-09)
(7.39255e-09 2.07418e-07 -1.72598e-09)
(-3.99782e-11 -3.98564e-11 1.12225e-07)
(2.03782e-07 1.10752e-08 -2.49144e-09)
(7.41012e-09 2.07438e-07 -1.69752e-09)
(-6.45953e-11 -4.02914e-11 1.10149e-07)
(2.00165e-07 1.47564e-08 -3.18639e-09)
(7.41691e-09 2.07474e-07 -1.65737e-09)
(-8.91385e-11 -4.13242e-11 1.0806e-07)
(1.96571e-07 1.84437e-08 -3.81128e-09)
(7.41944e-09 2.07535e-07 -1.61428e-09)
(-1.14694e-10 -4.31252e-11 1.0597e-07)
(1.93004e-07 2.21389e-08 -4.36922e-09)
(7.42151e-09 2.07626e-07 -1.57182e-09)
(-1.42131e-10 -4.59031e-11 1.03884e-07)
(1.89466e-07 2.58444e-08 -4.86126e-09)
(7.4223e-09 2.07748e-07 -1.53203e-09)
(-1.72203e-10 -4.98059e-11 1.018e-07)
(1.8596e-07 2.95636e-08 -5.2858e-09)
(7.42226e-09 2.07902e-07 -1.49716e-09)
(-2.04992e-10 -5.46152e-11 9.97163e-08)
(1.82489e-07 3.32991e-08 -5.63848e-09)
(7.42201e-09 2.08088e-07 -1.46897e-09)
(-2.39989e-10 -5.96475e-11 9.76306e-08)
(7.44807e-09 2.08311e-07 -1.43589e-09)
(-2.7569e-10 -6.28304e-11 9.55335e-08)
(1.79039e-07 3.70509e-08 -5.91164e-09)
(2.11077e-07 3.70745e-09 -8.67222e-10)
(1.1039e-08 2.03761e-07 -2.48441e-09)
(-1.54706e-11 -6.47341e-11 1.12174e-07)
(2.07436e-07 7.40891e-09 -1.69516e-09)
(1.10732e-08 2.03781e-07 -2.49149e-09)
(-4.03634e-11 -6.45054e-11 1.10145e-07)
(2.03811e-07 1.11015e-08 -2.46683e-09)
(1.11e-08 2.0381e-07 -2.46863e-09)
(-6.44358e-11 -6.43051e-11 1.08094e-07)
(2.00199e-07 1.47884e-08 -3.17196e-09)
(1.11171e-08 2.03852e-07 -2.42524e-09)
(-8.85322e-11 -6.44447e-11 1.06023e-07)
(1.96608e-07 1.84778e-08 -3.80736e-09)
(1.11247e-08 2.03911e-07 -2.37203e-09)
(-1.13632e-10 -6.51301e-11 1.03943e-07)
(1.93041e-07 2.21751e-08 -4.37448e-09)
(1.11284e-08 2.03995e-07 -2.31723e-09)
(-1.40617e-10 -6.658e-11 1.01862e-07)
(1.89503e-07 2.58828e-08 -4.87435e-09)
(1.11307e-08 2.04109e-07 -2.2652e-09)
(-1.70035e-10 -6.89675e-11 9.97816e-08)
(1.85995e-07 2.96038e-08 -5.30493e-09)
(1.11321e-08 2.04253e-07 -2.21873e-09)
(-2.01575e-10 -7.2088e-11 9.77001e-08)
(1.82518e-07 3.33405e-08 -5.66229e-09)
(1.11331e-08 2.04427e-07 -2.18014e-09)
(-2.34645e-10 -7.55077e-11 9.56158e-08)
(1.11751e-08 2.04639e-07 -2.13175e-09)
(-2.65946e-10 -7.71855e-11 9.35205e-08)
(1.79057e-07 3.70896e-08 -5.94018e-09)
(2.11113e-07 3.70985e-09 -8.43834e-10)
(1.47198e-08 2.00141e-07 -3.16645e-09)
(-1.76465e-11 -8.95698e-11 1.10077e-07)
(2.07472e-07 7.41501e-09 -1.65656e-09)
(1.47555e-08 2.00165e-07 -3.18481e-09)
(-4.13251e-11 -8.91718e-11 1.08057e-07)
(2.0385e-07 1.11158e-08 -2.42323e-09)
(1.47862e-08 2.00198e-07 -3.17185e-09)
(-6.45182e-11 -8.8483e-11 1.0602e-07)
(2.00244e-07 1.48123e-08 -3.13235e-09)
(1.48109e-08 2.00243e-07 -3.13401e-09)
(-8.79725e-11 -8.78721e-11 1.03968e-07)
(1.96654e-07 1.85069e-08 -3.77614e-09)
(1.48274e-08 2.00304e-07 -3.07943e-09)
(-1.12443e-10 -8.76462e-11 1.019e-07)
(1.93086e-07 2.22065e-08 -4.35156e-09)
(1.48356e-08 2.00384e-07 -3.01776e-09)
(-1.38799e-10 -8.80333e-11 9.98245e-08)
(1.89545e-07 2.59169e-08 -4.85815e-09)
(1.4839e-08 2.00488e-07 -2.95734e-09)
(-1.67514e-10 -8.92863e-11 9.77467e-08)
(1.86033e-07 2.96403e-08 -5.29376e-09)
(1.4842e-08 2.00621e-07 -2.90288e-09)
(-1.98034e-10 -9.14967e-11 9.56671e-08)
(1.82551e-07 3.33786e-08 -5.65501e-09)
(1.48452e-08 2.00783e-07 -2.85667e-09)
(-2.29773e-10 -9.45804e-11 9.35845e-08)
(1.49025e-08 2.00986e-07 -2.79558e-09)
(-2.57084e-10 -9.58275e-11 9.14936e-08)
(1.79081e-07 3.71271e-08 -5.9387e-09)
(2.11179e-07 3.71123e-09 -8.19487e-10)
(1.84059e-08 1.96545e-07 -3.78054e-09)
(-2.08755e-11 -1.15382e-10 1.07985e-07)
(2.07534e-07 7.41889e-09 -1.61473e-09)
(1.84434e-08 1.96572e-07 -3.80933e-09)
(-4.30953e-11 -1.14786e-10 1.0597e-07)
(2.03909e-07 1.1123e-08 -2.37146e-09)
(1.84768e-08 1.96607e-07 -3.80604e-09)
(-6.51041e-11 -1.13668e-10 1.03941e-07)
(2.00303e-07 1.48263e-08 -3.07754e-09)
(1.85046e-08 1.96652e-07 -3.77628e-09)
(-8.76927e-11 -1.12384e-10 1.01897e-07)
(1.96714e-07 1.85294e-08 -3.72446e-09)
(1.85277e-08 1.96712e-07 -3.72637e-09)
(-1.11443e-10 -1.11341e-10 9.98424e-08)
(1.93143e-07 2.22335e-08 -4.30615e-09)
(1.85438e-08 1.96791e-07 -3.66372e-09)
(-1.37163e-10 -1.10946e-10 9.77756e-08)
(1.89596e-07 2.59456e-08 -4.81826e-09)
(1.85515e-08 1.96888e-07 -3.59762e-09)
(-1.65175e-10 -1.1143e-10 9.56997e-08)
(1.86078e-07 2.96717e-08 -5.25725e-09)
(1.85546e-08 1.97008e-07 -3.53659e-09)
(-1.95081e-10 -1.13025e-10 9.36194e-08)
(1.8259e-07 3.34135e-08 -5.62058e-09)
(1.85595e-08 1.97157e-07 -3.48464e-09)
(-2.26168e-10 -1.16001e-10 9.15374e-08)
(1.863e-08 1.97353e-07 -3.41392e-09)
(-2.49457e-10 -1.16775e-10 8.94525e-08)
(1.79112e-07 3.7164e-08 -5.90928e-09)
(2.11275e-07 3.71193e-09 -7.95642e-10)
(2.21001e-08 1.92977e-07 -4.32922e-09)
(-2.52738e-11 -1.43089e-10 1.05895e-07)
(2.07626e-07 7.42159e-09 -1.57252e-09)
(2.21386e-08 1.93004e-07 -4.36726e-09)
(-4.58655e-11 -1.42219e-10 1.03885e-07)
(2.03995e-07 1.11278e-08 -2.31783e-09)
(2.21747e-08 1.93042e-07 -4.3729e-09)
(-6.65085e-11 -1.40696e-10 1.01861e-07)
(2.00382e-07 1.48335e-08 -3.01732e-09)
(2.22054e-08 1.93085e-07 -4.35072e-09)
(-8.80157e-11 -1.38853e-10 9.98225e-08)
(1.9679e-07 1.85425e-08 -3.66158e-09)
(2.22309e-08 1.93141e-07 -4.3069e-09)
(-1.10976e-10 -1.37125e-10 9.77727e-08)
(1.93217e-07 2.22549e-08 -4.24481e-09)
(2.22527e-08 1.93214e-07 -4.24762e-09)
(-1.36058e-10 -1.3596e-10 9.57145e-08)
(1.89663e-07 2.59714e-08 -4.76045e-09)
(2.22687e-08 1.93307e-07 -4.1796e-09)
(-1.63427e-10 -1.35702e-10 9.36443e-08)
(1.86136e-07 2.96992e-08 -5.20117e-09)
(2.22746e-08 1.93417e-07 -4.11236e-09)
(-1.92899e-10 -1.36682e-10 9.15626e-08)
(1.82639e-07 3.3445e-08 -5.5635e-09)
(2.22796e-08 1.93551e-07 -4.0538e-09)
(-2.23557e-10 -1.39025e-10 8.9477e-08)
(2.23581e-08 1.93736e-07 -3.9754e-09)
(-2.42731e-10 -1.38513e-10 8.73972e-08)
(1.79154e-07 3.72003e-08 -5.8543e-09)
(2.11404e-07 3.71213e-09 -7.73517e-10)
(2.58045e-08 1.89438e-07 -4.81342e-09)
(-3.10644e-11 -1.73563e-10 1.03807e-07)
(2.07748e-07 7.42233e-09 -1.53267e-09)
(2.58442e-08 1.89466e-07 -4.85947e-09)
(-4.97635e-11 -1.72286e-10 1.018e-07)
(2.04109e-07 1.11306e-08 -2.26613e-09)
(2.58824e-08 1.89504e-07 -4.87289e-09)
(-6.88911e-11 -1.70109e-10 9.9782e-08)
(2.00488e-07 1.48382e-08 -2.95833e-09)
(2.59165e-08 1.89545e-07 -4.85709e-09)
(-8.92278e-11 -1.67565e-10 9.77465e-08)
(1.96885e-07 1.85486e-08 -3.59735e-09)
(2.59446e-08 1.89595e-07 -4.81778e-09)
(-1.11334e-10 -1.65147e-10 9.56972e-08)
(1.93305e-07 2.22665e-08 -4.17661e-09)
(2.59683e-08 1.89659e-07 -4.76151e-09)
(-1.35619e-10 -1.63192e-10 9.36399e-08)
(1.89747e-07 2.59912e-08 -4.69104e-09)
(2.59895e-08 1.89744e-07 -4.69405e-09)
(-1.62408e-10 -1.62079e-10 9.1575e-08)
(1.86209e-07 2.9724e-08 -5.1308e-09)
(2.60031e-08 1.89846e-07 -4.62235e-09)
(-1.90931e-10 -1.61686e-10 8.94953e-08)
(1.82699e-07 3.34735e-08 -5.4884e-09)
(2.60102e-08 1.89963e-07 -4.55519e-09)
(-2.20588e-10 -1.61822e-10 8.74039e-08)
(2.60872e-08 1.90133e-07 -4.46955e-09)
(-2.36043e-10 -1.58786e-10 8.53265e-08)
(1.79206e-07 3.72355e-08 -5.77645e-09)
(2.11567e-07 3.71181e-09 -7.54271e-10)
(2.95217e-08 1.85933e-07 -5.23153e-09)
(-3.84328e-11 -2.0719e-10 1.01722e-07)
(2.07902e-07 7.42237e-09 -1.49775e-09)
(2.95634e-08 1.85961e-07 -5.28432e-09)
(-5.45617e-11 -2.05073e-10 9.97169e-08)
(2.04253e-07 1.11322e-08 -2.21961e-09)
(2.96036e-08 1.85995e-07 -5.30371e-09)
(-7.19896e-11 -2.01628e-10 9.77006e-08)
(2.00621e-07 1.48423e-08 -2.90416e-09)
(2.96401e-08 1.86033e-07 -5.29278e-09)
(-9.1367e-11 -1.98026e-10 9.56676e-08)
(1.97007e-07 1.8554e-08 -3.5379e-09)
(2.96718e-08 1.86078e-07 -5.25635e-09)
(-1.12822e-10 -1.9498e-10 9.3619e-08)
(1.93413e-07 2.22718e-08 -4.11136e-09)
(2.96984e-08 1.86134e-07 -5.20041e-09)
(-1.36261e-10 -1.92565e-10 9.15585e-08)
(1.89843e-07 2.60009e-08 -4.61934e-09)
(2.97215e-08 1.86206e-07 -5.13112e-09)
(-1.61845e-10 -1.90384e-10 8.94906e-08)
(1.86293e-07 2.97416e-08 -5.05244e-09)
(2.97407e-08 1.86292e-07 -5.05415e-09)
(-1.87793e-10 -1.87204e-10 8.74098e-08)
(1.82767e-07 3.34965e-08 -5.40062e-09)
(2.97509e-08 1.86391e-07 -4.97734e-09)
(-2.15306e-10 -1.83124e-10 8.53146e-08)
(2.98171e-08 1.86537e-07 -4.88564e-09)
(-2.27388e-10 -1.75337e-10 8.32384e-08)
(1.79265e-07 3.72671e-08 -5.6792e-09)
(2.11765e-07 3.71081e-09 -7.39175e-10)
(3.3255e-08 1.82466e-07 -5.57897e-09)
(-4.71564e-11 -2.43818e-10 9.96351e-08)
(2.08089e-07 7.42218e-09 -1.46945e-09)
(3.3299e-08 1.8249e-07 -5.63744e-09)
(-5.95828e-11 -2.40067e-10 9.76313e-08)
(2.04427e-07 1.11334e-08 -2.18082e-09)
(3.33404e-08 1.82519e-07 -5.66146e-09)
(-7.53829e-11 -2.34706e-10 9.56164e-08)
(2.00783e-07 1.48457e-08 -2.85756e-09)
(3.33785e-08 1.82551e-07 -5.65436e-09)
(-9.43974e-11 -2.29803e-10 9.3585e-08)
(1.97158e-07 1.85604e-08 -3.48577e-09)
(3.34135e-08 1.8259e-07 -5.61997e-09)
(-1.15749e-10 -2.26155e-10 9.15379e-08)
(1.93549e-07 2.22795e-08 -4.05406e-09)
(3.34451e-08 1.82639e-07 -5.56274e-09)
(-1.3855e-10 -2.23547e-10 8.94761e-08)
(1.8996e-07 2.60079e-08 -4.55397e-09)
(3.34726e-08 1.82698e-07 -5.4878e-09)
(-1.6196e-10 -2.20694e-10 8.74015e-08)
(1.8639e-07 2.97493e-08 -4.97581e-09)
(3.3495e-08 1.82766e-07 -5.40087e-09)
(-1.83616e-10 -2.15296e-10 8.53129e-08)
(1.8284e-07 3.3506e-08 -5.30962e-09)
(3.35057e-08 1.8284e-07 -5.3106e-09)
(-2.05491e-10 -2.05277e-10 8.32108e-08)
(3.35476e-08 1.82939e-07 -5.21222e-09)
(-2.0955e-10 -1.84856e-10 8.11283e-08)
(1.79319e-07 3.72889e-08 -5.56829e-09)
(2.12001e-07 3.72214e-09 -7.2309e-10)
(-5.45178e-11 -2.84924e-10 9.75426e-08)
(3.70118e-08 1.79029e-07 -5.85058e-09)
(2.08312e-07 7.44823e-09 -1.43622e-09)
(-6.27558e-11 -2.75708e-10 9.5534e-08)
(3.70508e-08 1.79039e-07 -5.91103e-09)
(2.0464e-07 1.11754e-08 -2.1322e-09)
(-7.70534e-11 -2.65971e-10 9.3521e-08)
(3.70894e-08 1.79058e-07 -5.93974e-09)
(2.00987e-07 1.49028e-08 -2.79611e-09)
(-9.5654e-11 -2.57131e-10 9.14941e-08)
(3.7127e-08 1.79081e-07 -5.9384e-09)
(1.97353e-07 1.86303e-08 -3.41445e-09)
(-1.16575e-10 -2.4956e-10 8.94529e-08)
(3.7164e-08 1.79112e-07 -5.90905e-09)
(1.93736e-07 2.23581e-08 -3.9757e-09)
(-1.3828e-10 -2.42991e-10 8.73975e-08)
(3.72002e-08 1.79154e-07 -5.85406e-09)
(1.90132e-07 2.60866e-08 -4.46957e-09)
(-1.58907e-10 -2.36396e-10 8.53266e-08)
(3.72353e-08 1.79206e-07 -5.77623e-09)
(1.86536e-07 2.98158e-08 -4.88524e-09)
(-1.75478e-10 -2.27487e-10 8.32376e-08)
(3.72667e-08 1.79264e-07 -5.67912e-09)
(1.82938e-07 3.35467e-08 -5.21138e-09)
(-1.84856e-10 -2.09252e-10 8.11271e-08)
(3.72883e-08 1.79318e-07 -5.56847e-09)
(-1.78545e-10 -1.78146e-10 7.90242e-08)
(1.79366e-07 3.72982e-08 -5.45244e-09)
(3.7298e-08 1.79366e-07 -5.45288e-09)
(2.12473e-07 3.70533e-09 -8.61788e-10)
(3.70342e-09 2.12465e-07 -8.63896e-10)
(-2.38329e-11 -2.37091e-11 1.18071e-07)
(2.08742e-07 7.3905e-09 -1.66506e-09)
(3.75974e-09 2.12413e-07 -8.56727e-10)
(-6.92519e-11 -2.48225e-11 1.15936e-07)
(2.05015e-07 1.10625e-08 -2.39531e-09)
(3.77514e-09 2.12328e-07 -8.36562e-10)
(-1.12036e-10 -2.70609e-11 1.13744e-07)
(2.01304e-07 1.47365e-08 -3.05673e-09)
(3.77487e-09 2.12256e-07 -8.13464e-10)
(-1.5394e-10 -3.0694e-11 1.11553e-07)
(1.97613e-07 1.84152e-08 -3.65564e-09)
(3.77285e-09 2.12211e-07 -7.90756e-10)
(-1.96641e-10 -3.59475e-11 1.09374e-07)
(1.93942e-07 2.20999e-08 -4.19666e-09)
(3.7691e-09 2.12189e-07 -7.69229e-10)
(-2.41261e-10 -4.29858e-11 1.07205e-07)
(1.90295e-07 2.5792e-08 -4.68301e-09)
(3.76224e-09 2.12183e-07 -7.49904e-10)
(-2.88589e-10 -5.20416e-11 1.05043e-07)
(1.86674e-07 2.94922e-08 -5.11634e-09)
(3.75184e-09 2.12188e-07 -7.34147e-10)
(-3.38391e-10 -6.31975e-11 1.02888e-07)
(1.83082e-07 3.32028e-08 -5.4966e-09)
(3.73715e-09 2.12191e-07 -7.23556e-10)
(-3.89231e-10 -7.57854e-11 1.00738e-07)
(3.75655e-09 2.12189e-07 -7.14341e-10)
(-4.41773e-10 -8.52266e-11 9.85838e-08)
(1.79483e-07 3.69371e-08 -5.82406e-09)
(2.1241e-07 3.75774e-09 -8.54602e-10)
(7.38682e-09 2.08737e-07 -1.66579e-09)
(-2.48999e-11 -6.90766e-11 1.15929e-07)
(2.08724e-07 7.479e-09 -1.66091e-09)
(7.47515e-09 2.08721e-07 -1.66287e-09)
(-6.93373e-11 -6.91304e-11 1.13838e-07)
(2.05024e-07 1.11649e-08 -2.40217e-09)
(7.52254e-09 2.08671e-07 -1.63636e-09)
(-1.11614e-10 -6.96519e-11 1.1169e-07)
(2.01327e-07 1.4841e-08 -3.07562e-09)
(7.53595e-09 2.0861e-07 -1.59897e-09)
(-1.53111e-10 -7.10638e-11 1.09519e-07)
(1.97646e-07 1.85221e-08 -3.68523e-09)
(7.53445e-09 2.08561e-07 -1.55934e-09)
(-1.95391e-10 -7.36137e-11 1.07349e-07)
(1.93983e-07 2.22094e-08 -4.23568e-09)
(7.52891e-09 2.08533e-07 -1.52122e-09)
(-2.39519e-10 -7.75731e-11 1.05187e-07)
(1.90343e-07 2.59045e-08 -4.73032e-09)
(7.5165e-09 2.08521e-07 -1.4868e-09)
(-2.86172e-10 -8.30654e-11 1.03032e-07)
(1.86727e-07 2.9611e-08 -5.17072e-09)
(7.49793e-09 2.08516e-07 -1.45871e-09)
(-3.34664e-10 -8.95649e-11 1.00881e-07)
(1.83133e-07 3.333e-08 -5.55669e-09)
(7.4744e-09 2.08508e-07 -1.43932e-09)
(-3.83055e-10 -9.57722e-11 9.87324e-08)
(7.5244e-09 2.085e-07 -1.41965e-09)
(-4.2754e-10 -9.82725e-11 9.65668e-08)
(1.79517e-07 3.70542e-08 -5.88475e-09)
(2.1232e-07 3.76979e-09 -8.35646e-10)
(1.10608e-08 2.05015e-07 -2.3939e-09)
(-2.70513e-11 -1.12009e-10 1.13738e-07)
(2.08666e-07 7.51894e-09 -1.63423e-09)
(1.11589e-08 2.05019e-07 -2.40191e-09)
(-6.97704e-11 -1.11462e-10 1.11683e-07)
(2.05004e-07 1.12359e-08 -2.37999e-09)
(1.12316e-08 2.05001e-07 -2.38141e-09)
(-1.11001e-10 -1.10781e-10 1.09585e-07)
(2.0133e-07 1.49271e-08 -3.06386e-09)
(1.12723e-08 2.04965e-07 -2.34179e-09)
(-1.51637e-10 -1.10488e-10 1.0745e-07)
(1.97662e-07 1.86128e-08 -3.68416e-09)
(1.12818e-08 2.04921e-07 -2.29346e-09)
(-1.93049e-10 -1.10894e-10 1.05297e-07)
(1.94012e-07 2.2305e-08 -4.2441e-09)
(1.12755e-08 2.04887e-07 -2.2448e-09)
(-2.3633e-10 -1.12296e-10 1.03145e-07)
(1.90379e-07 2.60057e-08 -4.74695e-09)
(1.12606e-08 2.04867e-07 -2.20056e-09)
(-2.81843e-10 -1.14868e-10 1.00998e-07)
(1.86766e-07 2.97177e-08 -5.19368e-09)
(1.12376e-08 2.0485e-07 -2.16405e-09)
(-3.2831e-10 -1.18112e-10 9.88521e-08)
(1.83172e-07 3.34413e-08 -5.58429e-09)
(1.12074e-08 2.0483e-07 -2.13847e-09)
(-3.73785e-10 -1.21133e-10 9.67056e-08)
(1.12927e-08 2.04824e-07 -2.10986e-09)
(-4.1191e-10 -1.20575e-10 9.45422e-08)
(1.7955e-07 3.71607e-08 -5.91578e-09)
(2.12253e-07 3.77349e-09 -8.13749e-10)
(1.47365e-08 2.01305e-07 -3.05452e-09)
(-3.06468e-11 -1.54054e-10 1.11552e-07)
(2.08603e-07 7.53032e-09 -1.59832e-09)
(1.48384e-08 2.01326e-07 -3.0738e-09)
(-7.10605e-11 -1.53173e-10 1.09513e-07)
(2.0496e-07 1.12686e-08 -2.34009e-09)
(1.49206e-08 2.01326e-07 -3.06335e-09)
(-1.10607e-10 -1.51557e-10 1.07444e-07)
(2.01313e-07 1.49853e-08 -3.02879e-09)
(1.49811e-08 2.0131e-07 -3.02996e-09)
(-1.49988e-10 -1.49824e-10 1.05344e-07)
(1.9766e-07 1.86838e-08 -3.65805e-09)
(1.5013e-08 2.01283e-07 -2.98157e-09)
(-1.90178e-10 -1.48449e-10 1.03218e-07)
(1.94014e-07 2.2381e-08 -4.22677e-09)
(1.50149e-08 2.01249e-07 -2.92778e-09)
(-2.32244e-10 -1.47738e-10 1.01076e-07)
(1.90386e-07 2.60879e-08 -4.73693e-09)
(1.4997e-08 2.01218e-07 -2.87739e-09)
(-2.76443e-10 -1.47993e-10 9.89337e-08)
(1.86777e-07 2.98059e-08 -5.18927e-09)
(1.49704e-08 2.0119e-07 -2.83594e-09)
(-3.21142e-10 -1.49179e-10 9.67913e-08)
(1.83182e-07 3.35342e-08 -5.58411e-09)
(1.49364e-08 2.01158e-07 -2.80686e-09)
(-3.64489e-10 -1.50919e-10 9.46477e-08)
(1.50561e-08 2.01157e-07 -2.77168e-09)
(-3.96716e-10 -1.48797e-10 9.2492e-08)
(1.79559e-07 3.72543e-08 -5.92066e-09)
(2.12211e-07 3.77303e-09 -7.9127e-10)
(1.84149e-08 1.97614e-07 -3.65327e-09)
(-3.59204e-11 -1.96811e-10 1.09375e-07)
(2.08559e-07 7.53282e-09 -1.55998e-09)
(1.85213e-08 1.97647e-07 -3.68306e-09)
(-7.35593e-11 -1.95556e-10 1.07348e-07)
(2.04915e-07 1.12766e-08 -2.29314e-09)
(1.86099e-08 1.97661e-07 -3.6825e-09)
(-1.10844e-10 -1.93116e-10 1.05293e-07)
(2.0128e-07 1.50098e-08 -2.98007e-09)
(1.86774e-08 1.97655e-07 -3.65764e-09)
(-1.48518e-10 -1.90082e-10 1.03212e-07)
(1.97643e-07 1.87301e-08 -3.61371e-09)
(1.87252e-08 1.97639e-07 -3.61497e-09)
(-1.87255e-10 -1.87092e-10 1.01109e-07)
(1.94003e-07 2.24373e-08 -4.18968e-09)
(1.8746e-08 1.97616e-07 -3.562e-09)
(-2.28011e-10 -1.84734e-10 9.89858e-08)
(1.90371e-07 2.61467e-08 -4.7062e-09)
(1.87343e-08 1.97581e-07 -3.50826e-09)
(-2.70786e-10 -1.83251e-10 9.68471e-08)
(1.8676e-07 2.98709e-08 -5.16294e-09)
(1.87005e-08 1.97536e-07 -3.46313e-09)
(-3.14213e-10 -1.82809e-10 9.47034e-08)
(1.83165e-07 3.36078e-08 -5.56088e-09)
(1.86618e-08 1.97489e-07 -3.43239e-09)
(-3.56281e-10 -1.83542e-10 9.25609e-08)
(1.88106e-08 1.97493e-07 -3.39345e-09)
(-3.82356e-10 -1.7971e-10 9.04159e-08)
(1.79543e-07 3.7335e-08 -5.9025e-09)
(2.12189e-07 3.76921e-09 -7.69689e-10)
(2.20996e-08 1.93943e-07 -4.19429e-09)
(-4.29732e-11 -2.41422e-10 1.07205e-07)
(2.08533e-07 7.52915e-09 -1.52212e-09)
(2.22086e-08 1.93985e-07 -4.2335e-09)
(-7.75061e-11 -2.39676e-10 1.05187e-07)
(2.04885e-07 1.12737e-08 -2.24568e-09)
(2.23039e-08 1.94012e-07 -4.24221e-09)
(-1.1217e-10 -2.36471e-10 1.03145e-07)
(2.01244e-07 1.50088e-08 -2.92767e-09)
(2.23777e-08 1.94013e-07 -4.22544e-09)
(-1.47701e-10 -2.32339e-10 1.01072e-07)
(1.97613e-07 1.8742e-08 -3.56037e-09)
(2.24297e-08 1.93996e-07 -4.18969e-09)
(-1.84775e-10 -2.27954e-10 9.89801e-08)
(1.93984e-07 2.24698e-08 -4.13971e-09)
(2.24632e-08 1.93976e-07 -4.14166e-09)
(-2.24114e-10 -2.23964e-10 9.68734e-08)
(1.9035e-07 2.61886e-08 -4.66131e-09)
(2.24706e-08 1.93947e-07 -4.08852e-09)
(-2.65446e-10 -2.20771e-10 9.47462e-08)
(1.86727e-07 2.99147e-08 -5.12121e-09)
(2.2438e-08 1.93891e-07 -4.04027e-09)
(-3.07735e-10 -2.18674e-10 9.25996e-08)
(1.83124e-07 3.36608e-08 -5.51979e-09)
(2.23906e-08 1.93821e-07 -4.00683e-09)
(-3.4863e-10 -2.17536e-10 9.045e-08)
(2.25537e-08 1.93824e-07 -3.96563e-09)
(-3.68245e-10 -2.10724e-10 8.8314e-08)
(1.79506e-07 3.7402e-08 -5.86441e-09)
(2.12184e-07 3.76231e-09 -7.50331e-10)
(2.57917e-08 1.90296e-07 -4.6808e-09)
(-5.20309e-11 -2.88746e-10 1.05044e-07)
(2.08522e-07 7.51659e-09 -1.48764e-09)
(2.59038e-08 1.90344e-07 -4.72828e-09)
(-8.29903e-11 -2.86318e-10 1.03033e-07)
(2.04867e-07 1.12604e-08 -2.20179e-09)
(2.60048e-08 1.9038e-07 -4.74514e-09)
(-1.14735e-10 -2.81975e-10 1.00999e-07)
(2.01216e-07 1.49944e-08 -2.87873e-09)
(2.6087e-08 1.90388e-07 -4.7354e-09)
(-1.4789e-10 -2.76535e-10 9.89334e-08)
(1.97573e-07 1.87259e-08 -3.50833e-09)
(2.61442e-08 1.9037e-07 -4.70506e-09)
(-1.83089e-10 -2.70744e-10 9.68422e-08)
(1.93942e-07 2.24645e-08 -4.08604e-09)
(2.61796e-08 1.90339e-07 -4.66136e-09)
(-2.20628e-10 -2.65072e-10 9.47373e-08)
(1.90313e-07 2.62027e-08 -4.60899e-09)
(2.61977e-08 1.90307e-07 -4.61105e-09)
(-2.60494e-10 -2.59985e-10 9.26205e-08)
(1.86679e-07 2.99395e-08 -5.07011e-09)
(2.61815e-08 1.90248e-07 -4.56159e-09)
(-3.00727e-10 -2.55068e-10 9.04777e-08)
(1.83056e-07 3.36938e-08 -5.46595e-09)
(2.61324e-08 1.90155e-07 -4.52331e-09)
(-3.39383e-10 -2.49668e-10 8.83162e-08)
(2.6283e-08 1.90143e-07 -4.4793e-09)
(-3.53049e-10 -2.38116e-10 8.61837e-08)
(1.79444e-07 3.74538e-08 -5.80944e-09)
(2.12189e-07 3.75199e-09 -7.34545e-10)
(2.9492e-08 1.86675e-07 -5.11447e-09)
(-6.31835e-11 -3.38553e-10 1.0289e-07)
(2.08517e-07 7.49823e-09 -1.45949e-09)
(2.96105e-08 1.86728e-07 -5.16898e-09)
(-8.94709e-11 -3.34805e-10 1.00883e-07)
(2.04851e-07 1.12381e-08 -2.16524e-09)
(2.97171e-08 1.86767e-07 -5.19209e-09)
(-1.17942e-10 -3.28405e-10 9.88533e-08)
(2.0119e-07 1.49713e-08 -2.83762e-09)
(2.98056e-08 1.86778e-07 -5.18778e-09)
(-1.4896e-10 -3.21137e-10 9.67923e-08)
(1.97532e-07 1.8699e-08 -3.46486e-09)
(2.98714e-08 1.86762e-07 -5.1614e-09)
(-1.82477e-10 -3.14054e-10 9.47026e-08)
(1.93881e-07 2.243e-08 -4.03957e-09)
(2.99127e-08 1.86723e-07 -5.11955e-09)
(-2.18002e-10 -3.07196e-10 9.25914e-08)
(1.9024e-07 2.61751e-08 -4.55906e-09)
(2.99324e-08 1.86671e-07 -5.06932e-09)
(-2.55298e-10 -2.99855e-10 9.04683e-08)
(1.86596e-07 2.99313e-08 -5.01629e-09)
(2.99285e-08 1.86595e-07 -5.01715e-09)
(-2.90905e-10 -2.89987e-10 8.83226e-08)
(1.82955e-07 3.3699e-08 -5.40491e-09)
(2.9883e-08 1.86482e-07 -4.97218e-09)
(-3.25594e-10 -2.77496e-10 8.61521e-08)
(2.99957e-08 1.8644e-07 -4.92471e-09)
(-3.33976e-10 -2.58328e-10 8.40195e-08)
(1.79349e-07 3.74848e-08 -5.74068e-09)
(2.12193e-07 3.73736e-09 -7.23907e-10)
(3.32027e-08 1.83083e-07 -5.49518e-09)
(-7.5765e-11 -3.89373e-10 1.0074e-07)
(2.0851e-07 7.47485e-09 -1.44e-09)
(3.33296e-08 1.83134e-07 -5.55536e-09)
(-9.56592e-11 -3.83186e-10 9.87338e-08)
(2.04832e-07 1.12082e-08 -2.13946e-09)
(3.34409e-08 1.83173e-07 -5.58306e-09)
(-1.20919e-10 -3.73887e-10 9.67069e-08)
(2.01159e-07 1.49378e-08 -2.80817e-09)
(3.3534e-08 1.83183e-07 -5.5829e-09)
(-1.50612e-10 -3.6454e-10 9.46489e-08)
(1.9749e-07 1.86646e-08 -3.43403e-09)
(3.36081e-08 1.83165e-07 -5.55958e-09)
(-1.8313e-10 -3.56264e-10 9.2562e-08)
(1.9382e-07 2.23903e-08 -4.00753e-09)
(3.36615e-08 1.83122e-07 -5.51822e-09)
(-2.16783e-10 -3.48609e-10 9.04483e-08)
(1.90149e-07 2.61258e-08 -4.52243e-09)
(3.36914e-08 1.83054e-07 -5.46446e-09)
(-2.49874e-10 -3.39534e-10 8.83115e-08)
(1.86477e-07 2.98783e-08 -4.9711e-09)
(3.36947e-08 1.82952e-07 -5.40431e-09)
(-2.78274e-10 -3.2558e-10 8.61487e-08)
(1.82809e-07 3.36512e-08 -5.34654e-09)
(3.36501e-08 1.82807e-07 -5.34689e-09)
(-3.04198e-10 -3.0388e-10 8.39609e-08)
(3.36937e-08 1.82692e-07 -5.29011e-09)
(-3.01299e-10 -2.66713e-10 8.18091e-08)
(1.79202e-07 3.74813e-08 -5.66187e-09)
(2.12191e-07 3.75678e-09 -7.14628e-10)
(-8.51884e-11 -4.41791e-10 9.85851e-08)
(3.69371e-08 1.79484e-07 -5.82309e-09)
(2.08502e-07 7.52486e-09 -1.4202e-09)
(-9.81419e-11 -4.27564e-10 9.65681e-08)
(3.70539e-08 1.79517e-07 -5.88384e-09)
(2.04826e-07 1.12934e-08 -2.11062e-09)
(-1.20349e-10 -4.11945e-10 9.45433e-08)
(3.71604e-08 1.79551e-07 -5.91493e-09)
(2.01158e-07 1.5057e-08 -2.77261e-09)
(-1.48505e-10 -3.96787e-10 9.2493e-08)
(3.72542e-08 1.79559e-07 -5.91983e-09)
(1.97494e-07 1.88116e-08 -3.39442e-09)
(-1.79379e-10 -3.8252e-10 9.04168e-08)
(3.7335e-08 1.79543e-07 -5.90164e-09)
(1.93826e-07 2.2554e-08 -3.96637e-09)
(-2.10352e-10 -3.68656e-10 8.83147e-08)
(3.7402e-08 1.79506e-07 -5.8635e-09)
(1.90143e-07 2.62815e-08 -4.47973e-09)
(-2.38307e-10 -3.5361e-10 8.61841e-08)
(3.74535e-08 1.79444e-07 -5.80857e-09)
(1.86437e-07 2.99923e-08 -4.92461e-09)
(-2.5858e-10 -3.34146e-10 8.40182e-08)
(3.74838e-08 1.79348e-07 -5.73997e-09)
(1.82689e-07 3.36915e-08 -5.28953e-09)
(-2.66724e-10 -3.00874e-10 8.18065e-08)
(3.74797e-08 1.792e-07 -5.66141e-09)
(-2.51289e-10 -2.50722e-10 7.9603e-08)
(1.79016e-07 3.74405e-08 -5.57923e-09)
(3.74396e-08 1.79016e-07 -5.57925e-09)
(2.13624e-07 3.72142e-09 -7.88872e-10)
(3.71836e-09 2.13612e-07 -7.90612e-10)
(-2.83736e-11 -2.8228e-11 1.19651e-07)
(2.09827e-07 7.40907e-09 -1.52476e-09)
(3.8088e-09 2.13506e-07 -7.8432e-10)
(-8.18228e-11 -2.9476e-11 1.17456e-07)
(2.06015e-07 1.10731e-08 -2.19524e-09)
(3.83222e-09 2.13326e-07 -7.66292e-10)
(-1.31665e-10 -3.19623e-11 1.15181e-07)
(2.0221e-07 1.47369e-08 -2.8053e-09)
(3.82988e-09 2.13148e-07 -7.45853e-10)
(-1.7944e-10 -3.59547e-11 1.12909e-07)
(1.98416e-07 1.84032e-08 -3.36209e-09)
(3.82418e-09 2.12991e-07 -7.26156e-10)
(-2.26674e-10 -4.16314e-11 1.10657e-07)
(1.94634e-07 2.20726e-08 -3.87148e-09)
(3.81499e-09 2.12848e-07 -7.08007e-10)
(-2.74108e-10 -4.9049e-11 1.08422e-07)
(1.90868e-07 2.57454e-08 -4.33851e-09)
(3.79992e-09 2.12708e-07 -6.92454e-10)
(-3.21914e-10 -5.82762e-11 1.06203e-07)
(1.8712e-07 2.94209e-08 -4.76726e-09)
(3.77805e-09 2.1256e-07 -6.80924e-10)
(-3.68905e-10 -6.91436e-11 1.03998e-07)
(1.83395e-07 3.31011e-08 -5.1606e-09)
(3.74786e-09 2.12383e-07 -6.75122e-10)
(-4.12384e-10 -8.06021e-11 1.01807e-07)
(3.77181e-09 2.12171e-07 -6.72453e-10)
(-4.5164e-10 -8.76278e-11 9.96171e-08)
(1.79633e-07 3.68082e-08 -5.52144e-09)
(2.13501e-07 3.80553e-09 -7.82542e-10)
(7.40316e-09 2.09819e-07 -1.52507e-09)
(-2.95656e-11 -8.16167e-11 1.17446e-07)
(2.09778e-07 7.55087e-09 -1.52159e-09)
(7.5447e-09 2.09773e-07 -1.52302e-09)
(-8.17503e-11 -8.15088e-11 1.15315e-07)
(2.06011e-07 1.12367e-08 -2.20253e-09)
(7.61846e-09 2.09653e-07 -1.49979e-09)
(-1.30917e-10 -8.17589e-11 1.13104e-07)
(2.0223e-07 1.49032e-08 -2.82396e-09)
(7.63638e-09 2.09493e-07 -1.46705e-09)
(-1.78146e-10 -8.2839e-11 1.10861e-07)
(1.98454e-07 1.85729e-08 -3.39094e-09)
(7.62909e-09 2.09333e-07 -1.43292e-09)
(-2.24836e-10 -8.49767e-11 1.08622e-07)
(1.94687e-07 2.2246e-08 -3.90943e-09)
(7.61391e-09 2.09186e-07 -1.40112e-09)
(-2.71671e-10 -8.83763e-11 1.06398e-07)
(1.90934e-07 2.59236e-08 -4.38457e-09)
(7.58591e-09 2.09041e-07 -1.37387e-09)
(-3.18726e-10 -9.30278e-11 1.04188e-07)
(1.87196e-07 2.96099e-08 -4.82026e-09)
(7.54591e-09 2.08882e-07 -1.3539e-09)
(-3.64371e-10 -9.81701e-11 1.0199e-07)
(1.83471e-07 3.33052e-08 -5.219e-09)
(7.49532e-09 2.08694e-07 -1.34387e-09)
(-4.05487e-10 -1.02224e-10 9.97999e-08)
(7.56248e-09 2.08482e-07 -1.33717e-09)
(-4.3704e-10 -1.01563e-10 9.75918e-08)
(1.7969e-07 3.69981e-08 -5.57921e-09)
(2.13314e-07 3.82354e-09 -7.65608e-10)
(1.10705e-08 2.06015e-07 -2.19352e-09)
(-3.19494e-11 -1.31638e-10 1.15172e-07)
(2.09644e-07 7.61258e-09 -1.49817e-09)
(1.12272e-08 2.06003e-07 -2.20179e-09)
(-8.18944e-11 -1.3074e-10 1.13094e-07)
(2.0594e-07 1.13474e-08 -2.18394e-09)
(1.13404e-08 2.05936e-07 -2.1847e-09)
(-1.29662e-10 -1.29409e-10 1.10955e-07)
(2.022e-07 1.5037e-08 -2.81558e-09)
(1.14008e-08 2.05821e-07 -2.15087e-09)
(-1.75746e-10 -1.28235e-10 1.08765e-07)
(1.98449e-07 1.87129e-08 -3.39295e-09)
(1.14088e-08 2.05674e-07 -2.10993e-09)
(-2.21308e-10 -1.2753e-10 1.06552e-07)
(1.94704e-07 2.23931e-08 -3.92077e-09)
(1.13894e-08 2.05521e-07 -2.06998e-09)
(-2.6708e-10 -1.27549e-10 1.04342e-07)
(1.90967e-07 2.6079e-08 -4.40402e-09)
(1.13535e-08 2.05368e-07 -2.03582e-09)
(-3.12823e-10 -1.28357e-10 1.02143e-07)
(1.8724e-07 2.97737e-08 -4.8459e-09)
(1.13017e-08 2.05198e-07 -2.01095e-09)
(-3.56329e-10 -1.29249e-10 9.99511e-08)
(1.83521e-07 3.34765e-08 -5.24889e-09)
(1.12345e-08 2.04999e-07 -1.99893e-09)
(-3.94619e-10 -1.29102e-10 9.77637e-08)
(1.13535e-08 2.048e-07 -1.98935e-09)
(-4.20296e-10 -1.24389e-10 9.55566e-08)
(1.79739e-07 3.71622e-08 -5.61113e-09)
(2.13142e-07 3.82764e-09 -7.46309e-10)
(1.47369e-08 2.02213e-07 -2.80281e-09)
(-3.58985e-11 -1.79582e-10 1.12907e-07)
(2.09482e-07 7.62723e-09 -1.46679e-09)
(1.48992e-08 2.02229e-07 -2.82175e-09)
(-8.28321e-11 -1.78225e-10 1.10854e-07)
(2.05814e-07 1.13947e-08 -2.14981e-09)
(1.50266e-08 2.02193e-07 -2.81444e-09)
(-1.28368e-10 -1.75658e-10 1.08757e-07)
(2.0212e-07 1.51238e-08 -2.7869e-09)
(1.51172e-08 2.02115e-07 -2.78725e-09)
(-1.72763e-10 -1.72582e-10 1.06618e-07)
(1.98396e-07 1.88189e-08 -3.37339e-09)
(1.51594e-08 2.02e-07 -2.74756e-09)
(-2.16712e-10 -1.69491e-10 1.04442e-07)
(1.94664e-07 2.25057e-08 -3.91001e-09)
(1.51503e-08 2.01853e-07 -2.70447e-09)
(-2.60922e-10 -1.66656e-10 1.02247e-07)
(1.9094e-07 2.62006e-08 -4.40068e-09)
(1.51058e-08 2.0169e-07 -2.66665e-09)
(-3.0506e-10 -1.6429e-10 1.00055e-07)
(1.87224e-07 2.9904e-08 -4.84824e-09)
(1.50435e-08 2.01508e-07 -2.63995e-09)
(-3.46596e-10 -1.62186e-10 9.78679e-08)
(1.83512e-07 3.36134e-08 -5.25527e-09)
(1.49648e-08 2.01299e-07 -2.62832e-09)
(-3.8275e-10 -1.59745e-10 9.56842e-08)
(1.5135e-08 2.01117e-07 -2.6177e-09)
(-4.02894e-10 -1.52366e-10 9.34864e-08)
(1.79736e-07 3.72999e-08 -5.62135e-09)
(2.1299e-07 3.82448e-09 -7.26844e-10)
(1.84028e-08 1.98419e-07 -3.35941e-09)
(-4.15994e-11 -2.26885e-10 1.10658e-07)
(2.09329e-07 7.62644e-09 -1.4339e-09)
(1.85717e-08 1.98456e-07 -3.3884e-09)
(-8.49109e-11 -2.2504e-10 1.08622e-07)
(2.05664e-07 1.14003e-08 -2.11014e-09)
(1.87085e-08 1.98447e-07 -3.39074e-09)
(-1.27468e-10 -2.21393e-10 1.06546e-07)
(2.01994e-07 1.5154e-08 -2.74686e-09)
(1.88088e-08 1.98388e-07 -3.37215e-09)
(-1.69562e-10 -2.1661e-10 1.04434e-07)
(1.98303e-07 1.88823e-08 -3.33869e-09)
(1.88745e-08 1.98296e-07 -3.33894e-09)
(-2.11539e-10 -2.11363e-10 1.02293e-07)
(1.94586e-07 2.25834e-08 -3.8831e-09)
(1.88934e-08 1.98173e-07 -3.29831e-09)
(-2.53981e-10 -2.06227e-10 1.00124e-07)
(1.90861e-07 2.62807e-08 -4.38045e-09)
(1.88557e-08 1.98011e-07 -3.25942e-09)
(-2.96279e-10 -2.01345e-10 9.79372e-08)
(1.87149e-07 2.99925e-08 -4.83281e-09)
(1.87772e-08 1.9781e-07 -3.2318e-09)
(-3.36215e-10 -1.96709e-10 9.57476e-08)
(1.83443e-07 3.37144e-08 -5.24322e-09)
(1.86855e-08 1.97585e-07 -3.222e-09)
(-3.70914e-10 -1.92227e-10 9.3565e-08)