/*--------------------------------*- C++ -*----------------------------------*\
| =========                 |                                                 |
| \\      /  F ield         | foam-extend: Open Source CFD                    |
|  \\    /   O peration     | Version:     3.1                                |
|   \\  /    A nd           | Web:         http://www.extend-project.de       |
|    \\/     M anipulation  |                                                 |
\*---------------------------------------------------------------------------*/
FoamFile
{
    version     2.0;
    format      ascii;
    class       volScalarField::DimensionedInternalField;
    location    "0.0017";
    object      V0;
}
// * * * * * * * * * * * * * * * * * * * * * * * * * * * * * * * * * * * * * //

dimensions      [0 3 0 0 0 0 0];

value           nonuniform List<scalar> 
16000
(
7.23372e-11
7.1071e-11
6.98039e-11
6.85448e-11
6.72952e-11
6.6055e-11
6.48245e-11
6.3604e-11
6.23937e-11
6.11928e-11
7.10698e-11
6.981e-11
6.85492e-11
6.72922e-11
6.60429e-11
6.48025e-11
6.35712e-11
6.23492e-11
6.11364e-11
5.993e-11
6.98029e-11
6.85481e-11
6.7294e-11
6.60414e-11
6.4793e-11
6.35522e-11
6.23198e-11
6.10958e-11
5.988e-11
5.86695e-11
6.85445e-11
6.72914e-11
6.60404e-11
6.47915e-11
6.35451e-11
6.23035e-11
6.10691e-11
5.98424e-11
5.86234e-11
5.74096e-11
6.72953e-11
6.60428e-11
6.47923e-11
6.35442e-11
6.22992e-11
6.10575e-11
5.98206e-11
5.85903e-11
5.73676e-11
5.6151e-11
6.60552e-11
6.48026e-11
6.3552e-11
6.23028e-11
6.10566e-11
5.98145e-11
5.85759e-11
5.73414e-11
5.61136e-11
5.48939e-11
6.48247e-11
6.35714e-11
6.232e-11
6.1069e-11
5.98198e-11
5.85745e-11
5.73338e-11
5.60958e-11
5.48618e-11
5.36377e-11
6.36042e-11
6.23495e-11
6.1096e-11
5.98426e-11
5.85901e-11
5.734e-11
5.60942e-11
5.48512e-11
5.36106e-11
5.23809e-11
6.2394e-11
6.11367e-11
5.98802e-11
5.86236e-11
5.73677e-11
5.61132e-11
5.48608e-11
5.36099e-11
5.23606e-11
5.11209e-11
6.11931e-11
5.99303e-11
5.86697e-11
5.74098e-11
5.61511e-11
5.48939e-11
5.36376e-11
5.23806e-11
5.11204e-11
4.98637e-11
7.33698e-11
7.20602e-11
7.07295e-11
6.94046e-11
6.80902e-11
6.67851e-11
6.54882e-11
6.41983e-11
6.29137e-11
6.16289e-11
7.20568e-11
7.07674e-11
6.9457e-11
6.81408e-11
6.68298e-11
6.55271e-11
6.42318e-11
6.29426e-11
6.16569e-11
6.03649e-11
7.07265e-11
6.94537e-11
6.81658e-11
6.68657e-11
6.55615e-11
6.42618e-11
6.29686e-11
6.16794e-11
6.03926e-11
5.90991e-11
6.9404e-11
6.81383e-11
6.68628e-11
6.55777e-11
6.4284e-11
6.29874e-11
6.16942e-11
6.04043e-11
5.91162e-11
5.78235e-11
6.80905e-11
6.68295e-11
6.55594e-11
6.42813e-11
6.2997e-11
6.17066e-11
6.04127e-11
5.91194e-11
5.78289e-11
5.65382e-11
6.67855e-11
6.55274e-11
6.42615e-11
6.29856e-11
6.17039e-11
6.0419e-11
5.91276e-11
5.78299e-11
5.65328e-11
5.5243e-11
6.54887e-11
6.42323e-11
6.29691e-11
6.16941e-11
6.04103e-11
5.91233e-11
5.78338e-11
5.65346e-11
5.52283e-11
5.39364e-11
6.4199e-11
6.29432e-11
6.168e-11
6.04048e-11
5.9119e-11
5.7826e-11
5.65301e-11
5.52258e-11
5.39114e-11
5.26154e-11
6.29145e-11
6.16576e-11
6.03932e-11
5.91168e-11
5.78294e-11
5.65319e-11
5.5226e-11
5.39097e-11
5.2583e-11
5.12739e-11
6.16296e-11
6.03656e-11
5.90997e-11
5.7824e-11
5.65385e-11
5.52432e-11
5.39365e-11
5.26147e-11
5.12727e-11
4.99352e-11
7.4285e-11
7.29345e-11
7.15432e-11
7.01553e-11
6.87786e-11
6.74112e-11
6.60512e-11
6.46969e-11
6.33461e-11
6.19906e-11
7.2929e-11
7.16121e-11
7.02544e-11
6.88814e-11
6.75113e-11
6.6149e-11
6.47933e-11
6.34419e-11
6.20915e-11
6.07267e-11
7.15384e-11
7.02491e-11
6.89291e-11
6.75836e-11
6.62259e-11
6.48705e-11
6.35201e-11
6.21712e-11
6.08217e-11
5.94573e-11
7.01544e-11
6.88775e-11
6.75789e-11
6.62594e-11
6.49208e-11
6.35725e-11
6.22245e-11
6.08772e-11
5.95288e-11
5.81691e-11
6.87792e-11
6.75109e-11
6.62227e-11
6.49165e-11
6.35954e-11
6.22595e-11
6.09132e-11
5.95635e-11
5.82145e-11
5.68615e-11
6.74119e-11
6.61497e-11
6.48701e-11
6.35695e-11
6.22552e-11
6.0931e-11
5.9592e-11
5.82385e-11
5.68823e-11
5.55343e-11
6.60521e-11
6.47942e-11
6.35209e-11
6.22243e-11
6.09094e-11
5.95851e-11
5.82524e-11
5.69e-11
5.55326e-11
5.41851e-11
6.46981e-11
6.3443e-11
6.21722e-11
6.08781e-11
5.95629e-11
5.82321e-11
5.68927e-11
5.55358e-11
5.41591e-11
5.2809e-11
6.33474e-11
6.20927e-11
6.08227e-11
5.95297e-11
5.82153e-11
5.6881e-11
5.5529e-11
5.41565e-11
5.27634e-11
5.13947e-11
6.19918e-11
6.07278e-11
5.94583e-11
5.81699e-11
5.68622e-11
5.55349e-11
5.41855e-11
5.2808e-11
5.13928e-11
4.99802e-11
7.50596e-11
7.36736e-11
7.22294e-11
7.07868e-11
6.93571e-11
6.79379e-11
6.65276e-11
6.51251e-11
6.37285e-11
6.23289e-11
7.36663e-11
7.23256e-11
7.0927e-11
6.95049e-11
6.80846e-11
6.66732e-11
6.52697e-11
6.3872e-11
6.24768e-11
6.10649e-11
7.22231e-11
7.09199e-11
6.95726e-11
6.81882e-11
6.67857e-11
6.53845e-11
6.39895e-11
6.25963e-11
6.12036e-11
5.97932e-11
7.07859e-11
6.94999e-11
6.81821e-11
6.68339e-11
6.54581e-11
6.40679e-11
6.26775e-11
6.12882e-11
5.98986e-11
5.84955e-11
6.9358e-11
6.80843e-11
6.67814e-11
6.54524e-11
6.41016e-11
6.27298e-11
6.13434e-11
5.99527e-11
5.85642e-11
5.71715e-11
6.7939e-11
6.66743e-11
6.53841e-11
6.4064e-11
6.2724e-11
6.13699e-11
5.99952e-11
5.86015e-11
5.72055e-11
5.5821e-11
6.65291e-11
6.5271e-11
6.39906e-11
6.26775e-11
6.13384e-11
5.99859e-11
5.86221e-11
5.72319e-11
5.58228e-11
5.44406e-11
6.51268e-11
6.38736e-11
6.25977e-11
6.12895e-11
5.9952e-11
5.85929e-11
5.72221e-11
5.58277e-11
5.44077e-11
5.30233e-11
6.37304e-11
6.24786e-11
6.12052e-11
5.99e-11
5.85656e-11
5.72038e-11
5.58182e-11
5.44043e-11
5.29629e-11
5.15524e-11
6.23307e-11
6.10666e-11
5.97946e-11
5.84969e-11
5.71727e-11
5.58221e-11
5.44414e-11
5.30221e-11
5.15498e-11
5.00775e-11
7.56733e-11
7.42588e-11
7.2772e-11
7.12862e-11
6.98153e-11
6.83571e-11
6.69106e-11
6.54751e-11
6.40497e-11
6.26244e-11
7.425e-11
7.28906e-11
7.14592e-11
6.99984e-11
6.85394e-11
6.70911e-11
6.56532e-11
6.42241e-11
6.28006e-11
6.13602e-11
7.27646e-11
7.14508e-11
7.00819e-11
6.86673e-11
6.72304e-11
6.57953e-11
6.43684e-11
6.29454e-11
6.15253e-11
6.00866e-11
7.12852e-11
6.99925e-11
6.866e-11
6.72899e-11
6.58862e-11
6.44652e-11
6.30449e-11
6.16273e-11
6.02117e-11
5.8782e-11
6.98166e-11
6.85391e-11
6.72254e-11
6.58794e-11
6.45068e-11
6.31091e-11
6.16946e-11
6.02764e-11
5.8863e-11
5.74461e-11
6.83587e-11
6.70926e-11
6.5795e-11
6.44606e-11
6.31022e-11
6.17269e-11
6.03278e-11
5.8907e-11
5.74854e-11
5.60786e-11
6.69126e-11
6.5655e-11
6.43699e-11
6.30449e-11
6.16886e-11
6.03165e-11
5.89316e-11
5.75161e-11
5.60794e-11
5.46756e-11
6.54774e-11
6.42262e-11
6.29473e-11
6.1629e-11
6.02757e-11
5.88966e-11
5.75043e-11
5.60842e-11
5.46345e-11
5.3228e-11
6.40522e-11
6.2803e-11
6.15274e-11
6.02136e-11
5.88647e-11
5.74835e-11
5.60739e-11
5.46305e-11
5.31544e-11
5.17144e-11
6.26268e-11
6.13623e-11
6.00886e-11
5.87838e-11
5.74478e-11
5.60802e-11
5.46768e-11
5.32267e-11
5.17113e-11
5.01942e-11
7.61079e-11
7.46731e-11
7.31555e-11
7.16384e-11
7.01383e-11
6.86529e-11
6.71817e-11
6.57244e-11
6.42806e-11
6.28395e-11
7.46633e-11
7.32906e-11
7.18353e-11
7.03465e-11
6.88599e-11
6.73859e-11
6.59246e-11
6.44747e-11
6.30332e-11
6.15748e-11
7.31474e-11
7.18261e-11
7.04416e-11
6.90052e-11
6.75439e-11
6.60852e-11
6.46367e-11
6.3194e-11
6.17564e-11
6.02999e-11
7.16376e-11
7.034e-11
6.8997e-11
6.76114e-11
6.61881e-11
6.47459e-11
6.33053e-11
6.18692e-11
6.04369e-11
5.89905e-11
7.01399e-11
6.88598e-11
6.75383e-11
6.61805e-11
6.47928e-11
6.33775e-11
6.19441e-11
6.05078e-11
5.90784e-11
5.76464e-11
6.86548e-11
6.73877e-11
6.60849e-11
6.47408e-11
6.33697e-11
6.19803e-11
6.05649e-11
5.91263e-11
5.7688e-11
5.62674e-11
6.71841e-11
6.59269e-11
6.46386e-11
6.33055e-11
6.19374e-11
6.05522e-11
5.91535e-11
5.77212e-11
5.62663e-11
5.48489e-11
6.57272e-11
6.44774e-11
6.31963e-11
6.18712e-11
6.05071e-11
5.91146e-11
5.7708e-11
5.62709e-11
5.48016e-11
5.33809e-11
6.42836e-11
6.30361e-11
6.17589e-11
6.04392e-11
5.90805e-11
5.76859e-11
5.62602e-11
5.47971e-11
5.32978e-11
5.18391e-11
6.28423e-11
6.15775e-11
6.03023e-11
5.89928e-11
5.76485e-11
5.62694e-11
5.48505e-11
5.33796e-11
5.18356e-11
5.02895e-11
7.63523e-11
7.49053e-11
7.33689e-11
7.18323e-11
7.03138e-11
6.88112e-11
6.73243e-11
6.58534e-11
6.4398e-11
6.29469e-11
7.48951e-11
7.35145e-11
7.2044e-11
7.05374e-11
6.90335e-11
6.75432e-11
6.6067e-11
6.46039e-11
6.31511e-11
6.1682e-11
7.33606e-11
7.20346e-11
7.06398e-11
6.91893e-11
6.77127e-11
6.6239e-11
6.47768e-11
6.33216e-11
6.18731e-11
6.04062e-11
7.18316e-11
7.05308e-11
6.91808e-11
6.77851e-11
6.63493e-11
6.48937e-11
6.34404e-11
6.19927e-11
6.05501e-11
5.90942e-11
7.03156e-11
6.90335e-11
6.77069e-11
6.63413e-11
6.4944e-11
6.35175e-11
6.20725e-11
6.06251e-11
5.9186e-11
5.77456e-11
6.88134e-11
6.75453e-11
6.62389e-11
6.48883e-11
6.35093e-11
6.21111e-11
6.06857e-11
5.92365e-11
5.77884e-11
5.63605e-11
6.7327e-11
6.60695e-11
6.47789e-11
6.34406e-11
6.20655e-11
6.06724e-11
5.92653e-11
5.78235e-11
5.63582e-11
5.49341e-11
6.58565e-11
6.46069e-11
6.33242e-11
6.19949e-11
6.06244e-11
5.92242e-11
5.78094e-11
5.63632e-11
5.48833e-11
5.34561e-11
6.44013e-11
6.31542e-11
6.18759e-11
6.05526e-11
5.91883e-11
5.77863e-11
5.63518e-11
5.48786e-11
5.33678e-11
5.19012e-11
6.29501e-11
6.1685e-11
6.0409e-11
5.90968e-11
5.7748e-11
5.63627e-11
5.49358e-11
5.34547e-11
5.18976e-11
5.03393e-11
7.64055e-11
7.49546e-11
7.34108e-11
7.18657e-11
7.03386e-11
6.88274e-11
6.73324e-11
6.58541e-11
6.43926e-11
6.29366e-11
7.49444e-11
7.35609e-11
7.20837e-11
7.05688e-11
6.90566e-11
6.75581e-11
6.60741e-11
6.46039e-11
6.31451e-11
6.16717e-11
7.34026e-11
7.20745e-11
7.06743e-11
6.92168e-11
6.77329e-11
6.62516e-11
6.4782e-11
6.33203e-11
6.18663e-11
6.03958e-11
7.18651e-11
7.05623e-11
6.92083e-11
6.78073e-11
6.63652e-11
6.49029e-11
6.34431e-11
6.19896e-11
6.05421e-11
5.90833e-11
7.03404e-11
6.90566e-11
6.77269e-11
6.63571e-11
6.49547e-11
6.35228e-11
6.20722e-11
6.06197e-11
5.91764e-11
5.77341e-11
6.88297e-11
6.75602e-11
6.62514e-11
6.48975e-11
6.35145e-11
6.21119e-11
6.06822e-11
5.92288e-11
5.77772e-11
5.63484e-11
6.73351e-11
6.60766e-11
6.47842e-11
6.34434e-11
6.20652e-11
6.06688e-11
5.92585e-11
5.78136e-11
5.63459e-11
5.49218e-11
6.58573e-11
6.46069e-11
6.33229e-11
6.19919e-11
6.06192e-11
5.92165e-11
5.77995e-11
5.63515e-11
5.48705e-11
5.34444e-11
6.43959e-11
6.31483e-11
6.18692e-11
6.05447e-11
5.91788e-11
5.77752e-11
5.63394e-11
5.48658e-11
5.33555e-11
5.18919e-11
6.29399e-11
6.16747e-11
6.03986e-11
5.90859e-11
5.77365e-11
5.63506e-11
5.49235e-11
5.3443e-11
5.18883e-11
5.03346e-11
7.62804e-11
7.48328e-11
7.32922e-11
7.17485e-11
7.02215e-11
6.87093e-11
6.72127e-11
6.57327e-11
6.42699e-11
6.28139e-11
7.4823e-11
7.3441e-11
7.19647e-11
7.04504e-11
6.89381e-11
6.74384e-11
6.59526e-11
6.44807e-11
6.30209e-11
6.15492e-11
7.32843e-11
7.19561e-11
7.05551e-11
6.90971e-11
6.76127e-11
6.61304e-11
6.46593e-11
6.31962e-11
6.17416e-11
6.02738e-11
7.17479e-11
7.04443e-11
6.90889e-11
6.76866e-11
6.62438e-11
6.47808e-11
6.33201e-11
6.18658e-11
6.04184e-11
5.8963e-11
7.02231e-11
6.8938e-11
6.76069e-11
6.62359e-11
6.48325e-11
6.34001e-11
6.19495e-11
6.04974e-11
5.90551e-11
5.76169e-11
6.87114e-11
6.74404e-11
6.61302e-11
6.47755e-11
6.33921e-11
6.19892e-11
6.05601e-11
5.91085e-11
5.76596e-11
5.62359e-11
6.72152e-11
6.5955e-11
6.46613e-11
6.33203e-11
6.19427e-11
6.05473e-11
5.91383e-11
5.76965e-11
5.62339e-11
5.48164e-11
6.57357e-11
6.44835e-11
6.31987e-11
6.1868e-11
6.04969e-11
5.90968e-11
5.76831e-11
5.62405e-11
5.47672e-11
5.33496e-11
6.4273e-11
6.30239e-11
6.17444e-11
6.04209e-11
5.90574e-11
5.76577e-11
5.62276e-11
5.47626e-11
5.3264e-11
5.18137e-11
6.28169e-11
6.1552e-11
6.02764e-11
5.89655e-11
5.76192e-11
5.62379e-11
5.48179e-11
5.33482e-11
5.18102e-11
5.02765e-11
7.6003e-11
7.45647e-11
7.30363e-11
7.15029e-11
6.99833e-11
6.84768e-11
6.69843e-11
6.55077e-11
6.40481e-11
6.25964e-11
7.45555e-11
7.31785e-11
7.17102e-11
7.02042e-11
6.86988e-11
6.72042e-11
6.5722e-11
6.42532e-11
6.27968e-11
6.13322e-11
7.30291e-11
7.17023e-11
7.03046e-11
6.88519e-11
6.73733e-11
6.58956e-11
6.44279e-11
6.29681e-11
6.15175e-11
6.00579e-11
7.15022e-11
7.01985e-11
6.88443e-11
6.74444e-11
6.60056e-11
6.45471e-11
6.30904e-11
6.164e-11
6.01973e-11
5.87507e-11
6.99847e-11
6.86985e-11
6.73678e-11
6.59982e-11
6.45974e-11
6.31688e-11
6.1723e-11
6.02763e-11
5.88397e-11
5.74108e-11
6.84785e-11
6.72058e-11
6.58952e-11
6.45422e-11
6.31614e-11
6.17618e-11
6.03377e-11
5.88933e-11
5.74523e-11
5.60389e-11
6.69865e-11
6.57241e-11
6.44296e-11
6.30905e-11
6.17168e-11
6.0326e-11
5.89224e-11
5.74892e-11
5.6038e-11
5.46326e-11
6.55102e-11
6.42556e-11
6.29702e-11
6.16419e-11
6.02758e-11
5.88827e-11
5.74769e-11
5.60458e-11
5.45877e-11
5.31848e-11
6.40507e-11
6.27993e-11
6.15199e-11
6.01994e-11
5.88417e-11
5.74505e-11
5.60321e-11
5.45834e-11
5.31059e-11
5.16774e-11
6.2599e-11
6.13346e-11
6.00601e-11
5.87528e-11
5.74127e-11
5.60406e-11
5.46337e-11
5.31833e-11
5.16742e-11
5.01734e-11
7.56105e-11
7.4186e-11
7.26771e-11
7.11608e-11
6.9655e-11
6.81597e-11
6.66765e-11
6.52076e-11
6.37552e-11
6.23117e-11
7.41778e-11
7.28084e-11
7.13537e-11
6.98625e-11
6.83698e-11
6.68855e-11
6.54118e-11
6.39503e-11
6.25013e-11
6.10483e-11
7.26705e-11
7.13465e-11
6.99559e-11
6.85132e-11
6.70454e-11
6.55773e-11
6.41175e-11
6.26651e-11
6.12224e-11
5.97755e-11
7.116e-11
6.98572e-11
6.85063e-11
6.71122e-11
6.56814e-11
6.42319e-11
6.27834e-11
6.1341e-11
5.99066e-11
5.84733e-11
6.9656e-11
6.83694e-11
6.70404e-11
6.56748e-11
6.42796e-11
6.28586e-11
6.14218e-11
5.99845e-11
5.85573e-11
5.71418e-11
6.8161e-11
6.68867e-11
6.55768e-11
6.42274e-11
6.2852e-11
6.14588e-11
6.00434e-11
5.86103e-11
5.71815e-11
5.57824e-11
6.66782e-11
6.54134e-11
6.41188e-11
6.27834e-11
6.14162e-11
6.00331e-11
5.86382e-11
5.72177e-11
5.57828e-11
5.43936e-11
6.52096e-11
6.39522e-11
6.26668e-11
6.13425e-11
5.9984e-11
5.86011e-11
5.7207e-11
5.57918e-11
5.43545e-11
5.29706e-11
6.37573e-11
6.25033e-11
6.12242e-11
5.99083e-11
5.85589e-11
5.71799e-11
5.57775e-11
5.43505e-11
5.29007e-11
5.15001e-11
6.23137e-11
6.10501e-11
5.97772e-11
5.84749e-11
5.71433e-11
5.57836e-11
5.43942e-11
5.29691e-11
5.14974e-11
5.00386e-11
7.51465e-11
7.37391e-11
7.22546e-11
7.07606e-11
6.92735e-11
6.77941e-11
6.63245e-11
6.48675e-11
6.34258e-11
6.19939e-11
7.37319e-11
7.23723e-11
7.09353e-11
6.94635e-11
6.79882e-11
6.65187e-11
6.50577e-11
6.36074e-11
6.21693e-11
6.07314e-11
7.22486e-11
7.09289e-11
6.9548e-11
6.81191e-11
6.66664e-11
6.52119e-11
6.3764e-11
6.23227e-11
6.08913e-11
5.94605e-11
7.07597e-11
6.94588e-11
6.81131e-11
6.67275e-11
6.53082e-11
6.38715e-11
6.24349e-11
6.10039e-11
5.95811e-11
5.81641e-11
6.92742e-11
6.79876e-11
6.6662e-11
6.53025e-11
6.39157e-11
6.25054e-11
6.10811e-11
5.96565e-11
5.82417e-11
5.68425e-11
6.7795e-11
6.65195e-11
6.52114e-11
6.38675e-11
6.24997e-11
6.11155e-11
5.97119e-11
5.82934e-11
5.68797e-11
5.54972e-11
6.63257e-11
6.50588e-11
6.37649e-11
6.24347e-11
6.10763e-11
5.97032e-11
5.83195e-11
5.69147e-11
5.54991e-11
5.41283e-11
6.48689e-11
6.36088e-11
6.23239e-11
6.1005e-11
5.9656e-11
5.82857e-11
5.69058e-11
5.55092e-11
5.40958e-11
5.27331e-11
6.34273e-11
6.21707e-11
6.08926e-11
5.95824e-11
5.8243e-11
5.68783e-11
5.54944e-11
5.40922e-11
5.26737e-11
5.13036e-11
6.19953e-11
6.07327e-11
5.94616e-11
5.81651e-11
5.68434e-11
5.54979e-11
5.41285e-11
5.27317e-11
5.13013e-11
4.98887e-11
7.46561e-11
7.32674e-11
7.18101e-11
7.03417e-11
6.88769e-11
6.74172e-11
6.59651e-11
6.45238e-11
6.30963e-11
6.16791e-11
7.32612e-11
7.19129e-11
7.04959e-11
6.90469e-11
6.75924e-11
6.61414e-11
6.46968e-11
6.32615e-11
6.18377e-11
6.04176e-11
7.18048e-11
7.04904e-11
6.91213e-11
6.77091e-11
6.62747e-11
6.48374e-11
6.34047e-11
6.19781e-11
6.0561e-11
5.91488e-11
7.03408e-11
6.90427e-11
6.7704e-11
6.63292e-11
6.49242e-11
6.35034e-11
6.2082e-11
6.06656e-11
5.92573e-11
5.78585e-11
6.88773e-11
6.75917e-11
6.62709e-11
6.49195e-11
6.35435e-11
6.21466e-11
6.07376e-11
5.93286e-11
5.79288e-11
5.65472e-11
6.74178e-11
6.61419e-11
6.48367e-11
6.35e-11
6.21419e-11
6.0769e-11
5.93794e-11
5.79779e-11
5.65815e-11
5.52167e-11
6.59659e-11
6.46975e-11
6.34053e-11
6.20817e-11
6.07336e-11
5.93724e-11
5.80019e-11
5.66145e-11
5.52199e-11
5.3868e-11
6.45247e-11
6.32623e-11
6.19789e-11
6.06663e-11
5.9328e-11
5.79717e-11
5.66073e-11
5.52307e-11
5.38421e-11
5.25006e-11
6.30973e-11
6.18386e-11
6.05619e-11
5.92581e-11
5.79297e-11
5.65802e-11
5.52159e-11
5.3839e-11
5.24517e-11
5.11111e-11
6.16799e-11
6.04184e-11
5.91495e-11
5.78591e-11
5.65477e-11
5.5217e-11
5.38678e-11
5.24992e-11
5.11093e-11
4.9741e-11
7.41794e-11
7.28096e-11
7.13803e-11
6.99392e-11
6.84991e-11
6.7062e-11
6.56306e-11
6.42083e-11
6.27985e-11
6.13988e-11
7.28045e-11
7.1468e-11
7.00723e-11
6.86476e-11
6.72163e-11
6.57867e-11
6.43618e-11
6.29448e-11
6.15386e-11
6.01385e-11
7.13758e-11
7.00676e-11
6.87117e-11
6.7318e-11
6.59042e-11
6.44867e-11
6.30725e-11
6.16636e-11
6.02639e-11
5.88719e-11
6.99383e-11
6.8644e-11
6.73138e-11
6.59517e-11
6.45632e-11
6.31608e-11
6.17573e-11
6.03582e-11
5.8967e-11
5.75877e-11
6.84992e-11
6.72157e-11
6.5901e-11
6.45593e-11
6.31962e-11
6.18149e-11
6.04234e-11
5.90323e-11
5.76497e-11
5.62865e-11
6.70623e-11
6.5787e-11
6.4486e-11
6.31579e-11
6.18111e-11
6.04513e-11
5.90777e-11
5.76948e-11
5.63171e-11
5.497e-11
6.5631e-11
6.43622e-11
6.30728e-11
6.17569e-11
6.04202e-11
5.90722e-11
5.77162e-11
5.63473e-11
5.4974e-11
5.36401e-11
6.42088e-11
6.29453e-11
6.1664e-11
6.03586e-11
5.90318e-11
5.769e-11
5.63417e-11
5.49849e-11
5.36201e-11
5.22978e-11
6.2799e-11
6.1539e-11
6.02644e-11
5.89675e-11
5.76502e-11
5.63161e-11
5.49707e-11
5.36175e-11
5.22587e-11
5.09431e-11
6.13993e-11
6.01389e-11
5.88722e-11
5.7588e-11
5.62866e-11
5.497e-11
5.36396e-11
5.22965e-11
5.09417e-11
4.96103e-11
7.37467e-11
7.23951e-11
7.09929e-11
6.95792e-11
6.81647e-11
6.6752e-11
6.53436e-11
6.3943e-11
6.25537e-11
6.11741e-11
7.23909e-11
7.10663e-11
6.96917e-11
6.82917e-11
6.68847e-11
6.54783e-11
6.40755e-11
6.26795e-11
6.12934e-11
5.99149e-11
7.09891e-11
6.96877e-11
6.83458e-11
6.69714e-11
6.55793e-11
6.41834e-11
6.279e-11
6.14014e-11
6.00215e-11
5.86505e-11
6.95783e-11
6.82886e-11
6.69679e-11
6.56198e-11
6.42492e-11
6.28667e-11
6.14831e-11
6.01035e-11
5.87315e-11
5.73721e-11
6.81647e-11
6.68841e-11
6.55766e-11
6.42461e-11
6.28972e-11
6.15331e-11
6.01607e-11
5.8789e-11
5.7425e-11
5.608e-11
6.6752e-11
6.54784e-11
6.41828e-11
6.28644e-11
6.15301e-11
6.01847e-11
5.88282e-11
5.74648e-11
5.61065e-11
5.4776e-11
6.53438e-11
6.40757e-11
6.27902e-11
6.14827e-11
6.01581e-11
5.88239e-11
5.74832e-11
5.61329e-11
5.47803e-11
5.34623e-11
6.39433e-11
6.26797e-11
6.14016e-11
6.01038e-11
5.87885e-11
5.74611e-11
5.61286e-11
5.47904e-11
5.34471e-11
5.21406e-11
6.25539e-11
6.12937e-11
6.00217e-11
5.87317e-11
5.74253e-11
5.61056e-11
5.47776e-11
5.3445e-11
5.21098e-11
5.08126e-11
6.11743e-11
5.9915e-11
5.86506e-11
5.73721e-11
5.60799e-11
5.47758e-11
5.34617e-11
5.21395e-11
5.08116e-11
4.9506e-11
7.33758e-11
7.20409e-11
7.06636e-11
6.92759e-11
6.78868e-11
6.64987e-11
6.51144e-11
6.37369e-11
6.23694e-11
6.10111e-11
7.20374e-11
7.07243e-11
6.93695e-11
6.79931e-11
6.66103e-11
6.52276e-11
6.3848e-11
6.24744e-11
6.11099e-11
5.97531e-11
7.06605e-11
6.93662e-11
6.8038e-11
6.66827e-11
6.53123e-11
6.39387e-11
6.25671e-11
6.12001e-11
5.9841e-11
5.84909e-11
6.92751e-11
6.79906e-11
6.66799e-11
6.53462e-11
6.39938e-11
6.26317e-11
6.12688e-11
5.99097e-11
5.85576e-11
5.72174e-11
6.78867e-11
6.66097e-11
6.53102e-11
6.39913e-11
6.26572e-11
6.13108e-11
5.99578e-11
5.8606e-11
5.72612e-11
5.59332e-11
6.64987e-11
6.52276e-11
6.39381e-11
6.26298e-11
6.13084e-11
5.99779e-11
5.86387e-11
5.72946e-11
5.59553e-11
5.46398e-11
6.51144e-11
6.3848e-11
6.25672e-11
6.12685e-11
5.99558e-11
5.86354e-11
5.73099e-11
5.59773e-11
5.46437e-11
5.33391e-11
6.37369e-11
6.24745e-11
6.12001e-11
5.99099e-11
5.86056e-11
5.72917e-11
5.59739e-11
5.46522e-11
5.33273e-11
5.20328e-11
6.23695e-11
6.11099e-11
5.9841e-11
5.85577e-11
5.72614e-11
5.59546e-11
5.46415e-11
5.33256e-11
5.20085e-11
5.07227e-11
6.10112e-11
5.97531e-11
5.84909e-11
5.72174e-11
5.59331e-11
5.46396e-11
5.33385e-11
5.20319e-11
5.07219e-11
4.94306e-11
7.30719e-11
7.17516e-11
7.03963e-11
6.90322e-11
6.76666e-11
6.63021e-11
6.4941e-11
6.35862e-11
6.22403e-11
6.09027e-11
7.17488e-11
7.0446e-11
6.91091e-11
6.77543e-11
6.6394e-11
6.5034e-11
6.36769e-11
6.23254e-11
6.09821e-11
5.96458e-11
7.03938e-11
6.91064e-11
6.77911e-11
6.64536e-11
6.51037e-11
6.37513e-11
6.24011e-11
6.10551e-11
5.97163e-11
5.83854e-11
6.90315e-11
6.77522e-11
6.64513e-11
6.51315e-11
6.37966e-11
6.24539e-11
6.11111e-11
5.97719e-11
5.8439e-11
5.71162e-11
6.76665e-11
6.63935e-11
6.5102e-11
6.37946e-11
6.24748e-11
6.11453e-11
5.98109e-11
5.84779e-11
5.71513e-11
5.58384e-11
6.63021e-11
6.5034e-11
6.37509e-11
6.24524e-11
6.11434e-11
5.98272e-11
5.85043e-11
5.7178e-11
5.5856e-11
5.45533e-11
6.4941e-11
6.36769e-11
6.24011e-11
6.11108e-11
5.98092e-11
5.85017e-11
5.71902e-11
5.58735e-11
5.45564e-11
5.32624e-11
6.35862e-11
6.23254e-11
6.10551e-11
5.97719e-11
5.84776e-11
5.71757e-11
5.58708e-11
5.45629e-11
5.32528e-11
5.19667e-11
6.22403e-11
6.09821e-11
5.97163e-11
5.8439e-11
5.71514e-11
5.58555e-11
5.45546e-11
5.32515e-11
5.19473e-11
5.06672e-11
6.09027e-11
5.96457e-11
5.83854e-11
5.71161e-11
5.58383e-11
5.45531e-11
5.32619e-11
5.1966e-11
5.06666e-11
4.93807e-11
7.28302e-11
7.15221e-11
7.01855e-11
6.88416e-11
6.74969e-11
6.61535e-11
6.48133e-11
6.34789e-11
6.21523e-11
6.0833e-11
7.15198e-11
7.02262e-11
6.89046e-11
6.75685e-11
6.62282e-11
6.48885e-11
6.35517e-11
6.22201e-11
6.08956e-11
5.9577e-11
7.01834e-11
6.89024e-11
6.75986e-11
6.62767e-11
6.4945e-11
6.36117e-11
6.22806e-11
6.09535e-11
5.96327e-11
5.83182e-11
6.88411e-11
6.75667e-11
6.62748e-11
6.49676e-11
6.36482e-11
6.23229e-11
6.0998e-11
5.96764e-11
5.83604e-11
5.70522e-11
6.74969e-11
6.62278e-11
6.49436e-11
6.36466e-11
6.23397e-11
6.10253e-11
5.97072e-11
5.83908e-11
5.70798e-11
5.57794e-11
6.61534e-11
6.48885e-11
6.36113e-11
6.23217e-11
6.10237e-11
5.97202e-11
5.84116e-11
5.71004e-11
5.57931e-11
5.45005e-11
6.48133e-11
6.35517e-11
6.22806e-11
6.09977e-11
5.97058e-11
5.84093e-11
5.711e-11
5.58064e-11
5.45027e-11
5.32166e-11
6.34789e-11
6.22201e-11
6.09535e-11
5.96765e-11
5.83905e-11
5.70985e-11
5.58042e-11
5.45074e-11
5.32085e-11
5.1928e-11
6.21523e-11
6.08956e-11
5.96327e-11
5.83605e-11
5.70799e-11
5.57927e-11
5.45013e-11
5.32074e-11
5.1912e-11
5.06344e-11
6.0833e-11
5.95769e-11
5.83182e-11
5.70522e-11
5.57794e-11
5.45005e-11
5.32164e-11
5.19275e-11
5.06339e-11
4.93488e-11
7.26399e-11
7.13418e-11
7.00204e-11
6.86934e-11
6.73661e-11
6.60402e-11
6.47176e-11
6.34e-11
6.20892e-11
6.07845e-11
7.13399e-11
7.00537e-11
6.87448e-11
6.74243e-11
6.61007e-11
6.4778e-11
6.34582e-11
6.2143e-11
6.08338e-11
5.95291e-11
7.00187e-11
6.8743e-11
6.74489e-11
6.61401e-11
6.48236e-11
6.35062e-11
6.2191e-11
6.08794e-11
5.95732e-11
5.82716e-11
6.8693e-11
6.74229e-11
6.61386e-11
6.4842e-11
6.35356e-11
6.22248e-11
6.09145e-11
5.96074e-11
5.83049e-11
5.70081e-11
6.73661e-11
6.61004e-11
6.48225e-11
6.35343e-11
6.22382e-11
6.09362e-11
5.96315e-11
5.83283e-11
5.70297e-11
5.57389e-11
6.60402e-11
6.4778e-11
6.35059e-11
6.22237e-11
6.09348e-11
5.96417e-11
5.83446e-11
5.70455e-11
5.57496e-11
5.44646e-11
6.47176e-11
6.34582e-11
6.2191e-11
6.09143e-11
5.96303e-11
5.83427e-11
5.70529e-11
5.57596e-11
5.44659e-11
5.31857e-11
6.34e-11
6.2143e-11
6.08795e-11
5.96075e-11
5.83281e-11
5.70438e-11
5.57577e-11
5.44691e-11
5.31785e-11
5.1902e-11
6.20892e-11
6.08339e-11
5.95733e-11
5.8305e-11
5.70299e-11
5.57492e-11
5.44648e-11
5.31777e-11
5.18884e-11
5.06121e-11
6.07845e-11
5.95291e-11
5.82716e-11
5.70081e-11
5.57389e-11
5.44646e-11
5.31856e-11
5.19016e-11
5.06116e-11
4.93267e-11
7.24884e-11
7.11982e-11
6.9889e-11
6.85755e-11
6.72622e-11
6.59503e-11
6.46413e-11
6.33367e-11
6.20377e-11
6.07436e-11
7.11966e-11
6.99166e-11
6.86179e-11
6.73098e-11
6.59994e-11
6.46902e-11
6.33836e-11
6.20809e-11
6.07833e-11
5.94887e-11
6.98876e-11
6.86163e-11
6.733e-11
6.60318e-11
6.47273e-11
6.34224e-11
6.21196e-11
6.08198e-11
5.95244e-11
5.82321e-11
6.85752e-11
6.73086e-11
6.60304e-11
6.47423e-11
6.34463e-11
6.21467e-11
6.08477e-11
5.95515e-11
5.8259e-11
5.69705e-11
6.72622e-11
6.59992e-11
6.47263e-11
6.34451e-11
6.21576e-11
6.08651e-11
5.95706e-11
5.82773e-11
5.69879e-11
5.5704e-11
6.59503e-11
6.46903e-11
6.34222e-11
6.21458e-11
6.0864e-11
5.95788e-11
5.82903e-11
5.70001e-11
5.57124e-11
5.4433e-11
6.46414e-11
6.33837e-11
6.21196e-11
6.08476e-11
5.95696e-11
5.82887e-11
5.7006e-11
5.57203e-11
5.44338e-11
5.31579e-11
6.33367e-11
6.2081e-11
6.08199e-11
5.95516e-11
5.82771e-11
5.69986e-11
5.57186e-11
5.44361e-11
5.31515e-11
5.1878e-11
6.20378e-11
6.07834e-11
5.95245e-11
5.82591e-11
5.6988e-11
5.57121e-11
5.44329e-11
5.31508e-11
5.18663e-11
5.05917e-11
6.07436e-11
5.94888e-11
5.82322e-11
5.69705e-11
5.5704e-11
5.44331e-11
5.31578e-11
5.18777e-11
5.05913e-11
4.93081e-11
7.23645e-11
7.10807e-11
6.97812e-11
6.84783e-11
6.71758e-11
6.58746e-11
6.45759e-11
6.32807e-11
6.19901e-11
6.07033e-11
7.10794e-11
6.98041e-11
6.85135e-11
6.72151e-11
6.59151e-11
6.46161e-11
6.33194e-11
6.20258e-11
6.07363e-11
5.94489e-11
6.978e-11
6.85122e-11
6.72319e-11
6.59419e-11
6.46467e-11
6.33512e-11
6.20576e-11
6.07664e-11
5.94786e-11
5.8193e-11
6.84781e-11
6.72141e-11
6.59407e-11
6.46591e-11
6.33709e-11
6.20798e-11
6.07892e-11
5.95008e-11
5.82154e-11
5.69327e-11
6.71758e-11
6.59149e-11
6.46459e-11
6.33699e-11
6.20888e-11
6.08035e-11
5.95164e-11
5.82303e-11
5.69472e-11
5.56683e-11
6.58747e-11
6.46162e-11
6.33511e-11
6.20791e-11
6.08026e-11
5.95232e-11
5.8241e-11
5.69572e-11
5.56753e-11
5.44e-11
6.4576e-11
6.33194e-11
6.20576e-11
6.07891e-11
5.95156e-11
5.82396e-11
5.69621e-11
5.56817e-11
5.44005e-11
5.31279e-11
6.32808e-11
6.20259e-11
6.07665e-11
5.95009e-11
5.82302e-11
5.69559e-11
5.56802e-11
5.44024e-11
5.31224e-11
5.18516e-11
6.19902e-11
6.07364e-11
5.94787e-11
5.82155e-11
5.69473e-11
5.5675e-11
5.43997e-11
5.31218e-11
5.18415e-11
5.05695e-11
6.07034e-11
5.9449e-11
5.81931e-11
5.69328e-11
5.56683e-11
5.44e-11
5.31279e-11
5.18513e-11
5.05691e-11
4.92895e-11
7.22602e-11
7.09815e-11
6.96897e-11
6.83953e-11
6.71011e-11
6.58081e-11
6.4517e-11
6.32288e-11
6.19441e-11
6.06624e-11
7.09804e-11
6.97089e-11
6.84246e-11
6.7134e-11
6.58419e-11
6.45507e-11
6.32612e-11
6.19743e-11
6.06905e-11
5.94083e-11
6.96887e-11
6.84235e-11
6.7148e-11
6.58643e-11
6.45763e-11
6.3288e-11
6.2001e-11
6.0716e-11
5.94337e-11
5.8153e-11
6.8395e-11
6.71331e-11
6.58633e-11
6.45867e-11
6.33045e-11
6.20197e-11
6.07353e-11
5.94526e-11
5.81721e-11
5.68939e-11
6.71011e-11
6.58418e-11
6.45756e-11
6.33036e-11
6.20272e-11
6.07473e-11
5.94658e-11
5.81848e-11
5.69062e-11
5.56311e-11
6.58081e-11
6.45508e-11
6.32878e-11
6.20191e-11
6.07465e-11
5.94715e-11
5.81939e-11
5.69148e-11
5.56371e-11
5.43651e-11
6.45171e-11
6.32613e-11
6.20011e-11
6.07352e-11
5.9465e-11
5.81927e-11
5.6919e-11
5.56427e-11
5.43656e-11
5.30958e-11
6.32289e-11
6.19744e-11
6.07161e-11
5.94527e-11
5.81847e-11
5.69137e-11
5.56415e-11
5.43673e-11
5.30912e-11
5.1823e-11
6.19443e-11
6.06907e-11
5.94338e-11
5.81722e-11
5.69064e-11
5.56369e-11
5.43649e-11
5.30906e-11
5.18144e-11
5.05456e-11
6.06625e-11
5.94084e-11
5.81531e-11
5.6894e-11
5.56312e-11
5.43652e-11
5.30958e-11
5.18228e-11
5.05452e-11
4.92705e-11
7.21703e-11
7.08959e-11
6.96104e-11
6.83227e-11
6.70352e-11
6.57486e-11
6.44635e-11
6.31806e-11
6.19005e-11
6.06228e-11
7.08949e-11
6.96266e-11
6.83474e-11
6.70629e-11
6.57772e-11
6.4492e-11
6.32082e-11
6.19264e-11
6.06471e-11
5.9369e-11
6.96096e-11
6.83465e-11
6.70747e-11
6.5796e-11
6.45136e-11
6.32309e-11
6.19492e-11
6.0669e-11
5.93909e-11
5.81141e-11
6.83225e-11
6.70622e-11
6.57952e-11
6.45224e-11
6.32449e-11
6.19651e-11
6.06855e-11
5.94072e-11
5.81306e-11
5.6856e-11
6.70353e-11
6.5777e-11
6.45131e-11
6.32442e-11
6.19715e-11
6.06958e-11
5.94185e-11
5.81417e-11
5.68667e-11
5.55949e-11
6.57486e-11
6.44921e-11
6.32308e-11
6.19646e-11
6.06951e-11
5.94235e-11
5.81496e-11
5.68743e-11
5.56001e-11
5.43309e-11
6.44635e-11
6.32083e-11
6.19493e-11
6.06855e-11
5.94179e-11
5.81485e-11
5.68779e-11
5.5605e-11
5.43314e-11
5.30642e-11
6.31807e-11
6.19265e-11
6.06691e-11
5.94073e-11
5.81416e-11
5.68734e-11
5.5604e-11
5.4333e-11
5.30604e-11
5.17948e-11
6.19006e-11
6.06472e-11
5.9391e-11
5.81307e-11
5.68669e-11
5.55999e-11
5.43308e-11
5.30599e-11
5.17876e-11
5.05219e-11
6.06229e-11
5.93691e-11
5.81142e-11
5.68561e-11
5.55949e-11
5.43309e-11
5.30642e-11
5.17946e-11
5.05217e-11
4.92517e-11
7.20921e-11
7.08213e-11
6.95412e-11
6.82591e-11
6.69771e-11
6.56958e-11
6.44156e-11
6.31372e-11
6.18611e-11
6.05868e-11
7.08205e-11
6.95548e-11
6.82799e-11
6.70005e-11
6.572e-11
6.44398e-11
6.31607e-11
6.18832e-11
6.06077e-11
5.93333e-11
6.95405e-11
6.82791e-11
6.70105e-11
6.57359e-11
6.44582e-11
6.31801e-11
6.19027e-11
6.06265e-11
5.93521e-11
5.80789e-11
6.8259e-11
6.69999e-11
6.57352e-11
6.44656e-11
6.31919e-11
6.19163e-11
6.06407e-11
5.93662e-11
5.8093e-11
5.68217e-11
6.69772e-11
6.57199e-11
6.44577e-11
6.31913e-11
6.19217e-11
6.06495e-11
5.9376e-11
5.81027e-11
5.68309e-11
5.5562e-11
6.56958e-11
6.44399e-11
6.318e-11
6.19159e-11
6.0649e-11
5.93802e-11
5.81095e-11
5.68375e-11
5.55665e-11
5.42999e-11
6.44156e-11
6.31608e-11
6.19028e-11
6.06407e-11
5.93755e-11
5.81086e-11
5.68407e-11
5.55709e-11
5.43005e-11
5.30357e-11
6.31373e-11
6.18833e-11
6.06266e-11
5.93662e-11
5.81026e-11
5.68368e-11
5.557e-11
5.43019e-11
5.30326e-11
5.17694e-11
6.18612e-11
6.06078e-11
5.93522e-11
5.80931e-11
5.68311e-11
5.55664e-11
5.43e-11
5.30322e-11
5.17634e-11
5.05006e-11
6.05869e-11
5.93334e-11
5.80789e-11
5.68218e-11
5.55621e-11
5.43e-11
5.30357e-11
5.17692e-11
5.05004e-11
4.92344e-11
7.20244e-11
7.07566e-11
6.9481e-11
6.82038e-11
6.69265e-11
6.56497e-11
6.43738e-11
6.30994e-11
6.18269e-11
6.0556e-11
7.07559e-11
6.94924e-11
6.82212e-11
6.69461e-11
6.56701e-11
6.43943e-11
6.31193e-11
6.18457e-11
6.05737e-11
5.93028e-11
6.94804e-11
6.82206e-11
6.69545e-11
6.56835e-11
6.44098e-11
6.31357e-11
6.18622e-11
6.05897e-11
5.93186e-11
5.80487e-11
6.82036e-11
6.69456e-11
6.56829e-11
6.4416e-11
6.31457e-11
6.18737e-11
6.06018e-11
5.93306e-11
5.80607e-11
5.67924e-11
6.69265e-11
6.567e-11
6.44094e-11
6.31452e-11
6.18783e-11
6.06092e-11
5.9339e-11
5.8069e-11
5.68002e-11
5.5534e-11