/*--------------------------------*- C++ -*----------------------------------*\
| =========                 |                                                 |
| \\      /  F ield         | foam-extend: Open Source CFD                    |
|  \\    /   O peration     | Version:     3.1                                |
|   \\  /    A nd           | Web:         http://www.extend-project.de       |
|    \\/     M anipulation  |                                                 |
\*---------------------------------------------------------------------------*/
FoamFile
{
    version     2.0;
    format      ascii;
    class       volSymmTensorField;
    location    "0.0015";
    object      epsilon;
}
// * * * * * * * * * * * * * * * * * * * * * * * * * * * * * * * * * * * * * //

dimensions      [0 0 0 0 0 0 0];

internalField   nonuniform List<symmTensor> 
6400
(
(-0.00447513 -0.000287918 0.00844821 0.00190743 0.000190611 0.0161101)
(-0.00240487 -0.000182459 0.00909661 0.00167252 0.00025416 0.00567613)
(-0.000694179 -9.49381e-05 0.00858533 0.00153535 0.000236317 -0.00306516)
(0.00107297 -6.91662e-06 0.00701195 0.00148121 0.000145457 -0.0130522)
(-0.00436294 -0.000745926 0.00839968 0.00187422 0.000975563 0.0159366)
(-0.00232558 -0.000477607 0.0090267 0.00164924 0.00105543 0.00554315)
(-0.000635562 -0.000260983 0.0085071 0.00153147 0.000996319 -0.00320216)
(0.00111946 -4.61835e-05 0.00692442 0.00150225 0.000810094 -0.0132382)
(-0.00420397 -0.00122376 0.00829179 0.00171162 0.00163814 0.0159298)
(-0.00222339 -0.000779774 0.00891149 0.00154893 0.00176386 0.00553915)
(-0.000577773 -0.000424502 0.00839942 0.00147571 0.00166424 -0.0032048)
(0.00113438 -7.32223e-05 0.00683854 0.001489 0.00135566 -0.0132394)
(-0.00397499 -0.00167029 0.00813501 0.00148143 0.00228746 0.0159261)
(-0.0020776 -0.00106451 0.00874335 0.00140238 0.00246058 0.00553698)
(-0.000498231 -0.000578987 0.00824104 0.00139565 0.00232072 -0.00320579)
(0.00114841 -9.91714e-05 0.00670971 0.00147403 0.00189062 -0.0132391)
(-0.00367981 -0.00207568 0.00792871 0.00118511 0.00292094 0.0159248)
(-0.00188946 -0.00132315 0.00852184 0.00121325 0.00314096 0.00553659)
(-0.000395941 -0.000719637 0.0080323 0.00129245 0.00296186 -0.00320531)
(0.00116584 -0.000123145 0.00653972 0.00145562 0.00241274 -0.0132376)
(-0.00332521 -0.00243003 0.00767377 0.000829526 0.00353515 0.015925)
(-0.00166334 -0.00154925 0.00824797 0.000986224 0.00380097 0.00553738)
(-0.00027301 -0.00084268 0.00777418 0.00116862 0.00358387 -0.00320391)
(0.00118667 -0.000144198 0.00632947 0.00143383 0.00291921 -0.0132354)
(-0.00291974 -0.00272473 0.00737158 0.000423252 0.00412665 0.0159264)
(-0.00140472 -0.00173727 0.00792329 0.000726826 0.00443674 0.00553889)
(-0.000132373 -0.000944993 0.00746814 0.00102717 0.00418305 -0.00320202)
(0.0012105 -0.000161702 0.00608021 0.00140907 0.00340702 -0.0132328)
(-0.0024732 -0.0029526 0.00702391 -2.38502e-05 0.00469204 0.0159284)
(-0.00111984 -0.00188258 0.00754972 0.000441372 0.00504451 0.00554078)
(2.25725e-05 -0.00102402 0.00711608 0.000871558 0.00475581 -0.00319996)
(0.00123679 -0.000175169 0.00579355 0.00138194 0.00387322 -0.0132302)
(-0.0019964 -0.00310813 0.00663282 -0.000500893 0.00522804 0.0159308)
(-0.000815553 -0.0019816 0.00712963 0.000136844 0.00562069 0.00554271)
(0.000188046 -0.00107776 0.0067203 0.000705639 0.00529875 -0.00319812)
(0.0012649 -0.000184227 0.00547144 0.00135313 0.00431504 -0.013228)
(-0.00149955 -0.00318791 0.00620101 -0.000996319 0.00573181 0.0159328)
(-0.000499283 -0.00203185 0.00666599 -0.000179193 0.00616207 0.00554404)
(0.000359841 -0.00110491 0.00628358 0.000533688 0.00580886 -0.00319696)
(0.00129403 -0.000188714 0.00511617 0.00132358 0.00473003 -0.0132267)
(-0.00099632 -0.00318791 0.00573182 -0.00149954 0.00620101 0.0159328)
(-0.000179194 -0.00203185 0.00616208 -0.000499282 0.00666598 0.00554404)
(0.000533687 -0.00110491 0.00580887 0.000359842 0.00628358 -0.00319696)
(0.00132358 -0.000188714 0.00473003 0.00129404 0.00511616 -0.0132267)
(-0.000500894 -0.00310813 0.00522805 -0.0019964 0.00663281 0.0159308)
(0.000136843 -0.0019816 0.00562069 -0.000815553 0.00712963 0.00554271)
(0.000705638 -0.00107776 0.00529876 0.000188047 0.0067203 -0.00319812)
(0.00135313 -0.000184227 0.00431504 0.0012649 0.00547144 -0.013228)
(-2.38509e-05 -0.0029526 0.00469204 -0.0024732 0.00702391 0.0159284)
(0.000441371 -0.00188259 0.00504451 -0.00111984 0.00754972 0.00554078)
(0.000871557 -0.00102402 0.00475581 2.25729e-05 0.00711608 -0.00319996)
(0.00138194 -0.00017517 0.00387323 0.00123679 0.00579355 -0.0132302)
(0.000423251 -0.00272473 0.00412666 -0.00291974 0.00737158 0.0159264)
(0.000726825 -0.00173727 0.00443675 -0.00140472 0.00792328 0.00553889)
(0.00102717 -0.000944995 0.00418305 -0.000132373 0.00746814 -0.00320202)
(0.00140907 -0.000161703 0.00340702 0.0012105 0.00608021 -0.0132328)
(0.000829526 -0.00243003 0.00353516 -0.00332521 0.00767377 0.015925)
(0.000986224 -0.00154926 0.00380098 -0.00166334 0.00824797 0.00553737)
(0.00116862 -0.000842681 0.00358387 -0.000273011 0.00777418 -0.00320391)
(0.00143383 -0.000144199 0.00291921 0.00118667 0.00632947 -0.0132354)
(0.00118511 -0.00207568 0.00292094 -0.00367981 0.00792871 0.0159248)
(0.00121325 -0.00132315 0.00314096 -0.00188946 0.00852184 0.00553659)
(0.00129245 -0.000719638 0.00296186 -0.000395942 0.0080323 -0.00320531)
(0.00145562 -0.000123146 0.00241275 0.00116584 0.00653972 -0.0132376)
(0.00148144 -0.00167029 0.00228747 -0.00397499 0.00813501 0.0159261)
(0.00140238 -0.00106451 0.00246058 -0.0020776 0.00874335 0.00553698)
(0.00139565 -0.000578988 0.00232073 -0.000498233 0.00824104 -0.00320579)
(0.00147403 -9.91724e-05 0.00189062 0.0011484 0.00670971 -0.0132391)
(0.00171162 -0.00122376 0.00163815 -0.00420397 0.0082918 0.0159298)
(0.00154893 -0.000779775 0.00176386 -0.00222339 0.00891149 0.00553915)
(0.00147571 -0.000424503 0.00166425 -0.000577775 0.00839942 -0.0032048)
(0.00148901 -7.32231e-05 0.00135566 0.00113438 0.00683854 -0.0132394)
(0.00187422 -0.000745927 0.000975565 -0.00436295 0.00839968 0.0159366)
(0.00164925 -0.000477608 0.00105544 -0.00232558 0.0090267 0.00554315)
(0.00153147 -0.000260984 0.000996321 -0.000635564 0.0085071 -0.00320216)
(0.00150225 -4.6184e-05 0.000810096 0.00111945 0.00692443 -0.0132382)
(0.00190743 -0.000287919 0.000190612 -0.00447513 0.00844821 0.0161101)
(0.00167253 -0.000182459 0.000254161 -0.00240487 0.00909661 0.00567612)
(0.00153535 -9.49383e-05 0.000236318 -0.000694181 0.00858533 -0.00306516)
(0.00148121 -6.91681e-06 0.000145458 0.00107297 0.00701195 -0.0130522)
(-0.00825492 -0.000639514 0.00368574 0.00630605 -0.000140365 0.00583485)
(-0.0052839 -0.000481556 0.00685806 0.0057248 3.60753e-05 0.00256725)
(-0.00255722 -0.000333724 0.00672332 0.00530937 3.25644e-05 -0.00144128)
(-1.79931e-05 -0.000198711 0.00350586 0.00503818 -0.000137097 -0.00485651)
(-0.00803767 -0.00170273 0.00371171 0.0062019 0.000437677 0.00579239)
(-0.0051033 -0.00128938 0.00681402 0.00562586 0.000806857 0.00249805)
(-0.00241153 -0.000919803 0.00663614 0.00523974 0.000788526 -0.00151459)
(9.69773e-05 -0.000587962 0.00338321 0.00500013 0.000408916 -0.00491126)
(-0.00767951 -0.00279629 0.0036665 0.00583487 0.000728679 0.00578683)
(-0.00483077 -0.00210739 0.00672852 0.0053582 0.00133946 0.00249033)
(-0.00221425 -0.00150228 0.00655223 0.00504776 0.00130679 -0.00152229)
(0.000226572 -0.00096171 0.00334064 0.00487453 0.000671265 -0.00491729)
(-0.00715704 -0.00381709 0.00359731 0.00531098 0.00101482 0.00578514)
(-0.00443759 -0.00287723 0.00660175 0.00496438 0.00186347 0.00248835)
(-0.00193371 -0.00205042 0.00642871 0.00476727 0.00181658 -0.00152392)
(0.000406271 -0.00131226 0.00327749 0.00469429 0.000930377 -0.00491821)
(-0.00648276 -0.00474389 0.00350574 0.00463489 0.00129425 0.00578512)
(-0.00392938 -0.00357649 0.00643438 0.00445478 0.00237563 0.00248853)
(-0.00157167 -0.00254882 0.0062658 0.00440407 0.00231497 -0.00152332)
(0.000637801 -0.00163124 0.00319428 0.00446162 0.00118391 -0.00491712)
(-0.00567238 -0.00555402 0.00339241 0.00382284 0.00156533 0.00578602)
(-0.00331829 -0.00418781 0.00622739 0.00384219 0.00287291 0.00248973)
(-0.00113625 -0.00298469 0.0060644 0.00396722 0.002799 -0.00152172)
(0.000916164 -0.00191023 0.00309156 0.00418179 0.00143024 -0.00491512)
(-0.00474554 -0.00622776 0.00325799 0.00289463 0.00182637 0.00578745)
(-0.00261916 -0.00469616 0.00598199 0.00314171 0.00335222 0.00249142)
(-0.000637997 -0.00334712 0.0058257 0.00346755 0.00326564 -0.00151973)
(0.00123473 -0.00214214 0.00296991 0.00386166 0.00166777 -0.00491283)
(-0.00372475 -0.00674871 0.00310327 0.00187295 0.00207571 0.00578909)
(-0.00184898 -0.00508905 0.00569969 0.00237056 0.00381054 0.00249322)
(-8.9047e-05 -0.00362707 0.00555116 0.00291741 0.00371193 -0.00151774)
(0.00158572 -0.00232114 0.00283013 0.00350917 0.00189492 -0.00491067)
(-0.0026347 -0.00710429 0.00292932 0.000782762 0.00231168 0.00579055)
(-0.00102637 -0.00535675 0.00538234 0.00154769 0.00424498 0.00249474)
(0.00049713 -0.00381754 0.00524261 0.00233047 0.00413505 -0.00151612)
(0.00196046 -0.00244271 0.00267317 0.00313315 0.00211018 -0.00490898)
(-0.00149928 -0.00728648 0.00273837 -0.000349501 0.00253259 0.00579141)
(-0.000171551 -0.00549256 0.00503255 0.000693545 0.00465289 0.00249563)
(0.00110574 -0.00391383 0.00490229 0.00172165 0.00453249 -0.0015152)
(0.00234948 -0.00250402 0.00250019 0.00274336 0.00231225 -0.00490806)
(-0.000349504 -0.00728649 0.00253259 -0.00149928 0.00273836 0.00579141)
(0.000693543 -0.00549256 0.0046529 -0.000171549 0.00503254 0.00249563)
(0.00172165 -0.00391383 0.00453249 0.00110574 0.00490229 -0.0015152)
(0.00274336 -0.00250402 0.00231225 0.00234948 0.00250018 -0.00490806)
(0.000782759 -0.00710429 0.00231168 -0.0026347 0.00292931 0.00579055)
(0.00154769 -0.00535676 0.00424499 -0.00102637 0.00538234 0.00249474)
(0.00233047 -0.00381754 0.00413505 0.000497132 0.00524261 -0.00151612)
(0.00313315 -0.00244271 0.00211019 0.00196047 0.00267316 -0.00490898)
(0.00187295 -0.00674872 0.00207572 -0.00372475 0.00310327 0.00578908)
(0.00237056 -0.00508905 0.00381055 -0.00184898 0.00569968 0.00249322)
(0.00291741 -0.00362707 0.00371193 -8.90464e-05 0.00555116 -0.00151774)
(0.00350917 -0.00232114 0.00189493 0.00158572 0.00283012 -0.00491067)
(0.00289463 -0.00622777 0.00182638 -0.00474555 0.00325798 0.00578744)
(0.00314171 -0.00469617 0.00335222 -0.00261916 0.00598199 0.00249142)
(0.00346755 -0.00334712 0.00326564 -0.000637998 0.0058257 -0.00151973)
(0.00386166 -0.00214215 0.00166778 0.00123473 0.00296991 -0.00491283)
(0.00382284 -0.00555402 0.00156533 -0.00567238 0.00339241 0.00578601)
(0.00384219 -0.00418781 0.00287291 -0.00331829 0.00622739 0.00248973)
(0.00396722 -0.0029847 0.00279901 -0.00113625 0.0060644 -0.00152172)
(0.00418179 -0.00191023 0.00143024 0.000916163 0.00309156 -0.00491512)
(0.00463489 -0.00474389 0.00129426 -0.00648276 0.00350574 0.00578511)
(0.00445478 -0.0035765 0.00237564 -0.00392939 0.00643438 0.00248853)
(0.00440407 -0.00254883 0.00231498 -0.00157167 0.0062658 -0.00152332)
(0.00446162 -0.00163124 0.00118391 0.0006378 0.00319428 -0.00491712)
(0.00531098 -0.0038171 0.00101482 -0.00715705 0.00359731 0.00578514)
(0.00496438 -0.00287724 0.00186348 -0.0044376 0.00660175 0.00248835)
(0.00476728 -0.00205042 0.00181658 -0.00193371 0.00642871 -0.00152392)
(0.00469429 -0.00131226 0.000930381 0.000406268 0.00327749 -0.00491821)
(0.00583488 -0.00279629 0.000728683 -0.00767953 0.0036665 0.00578682)
(0.0053582 -0.00210739 0.00133946 -0.00483078 0.00672852 0.00249032)
(0.00504776 -0.00150228 0.0013068 -0.00221425 0.00655223 -0.00152229)
(0.00487453 -0.000961712 0.000671268 0.000226569 0.00334064 -0.00491729)
(0.0062019 -0.00170273 0.000437679 -0.00803768 0.00371172 0.00579239)
(0.00562586 -0.00128938 0.000806859 -0.00510331 0.00681402 0.00249805)
(0.00523974 -0.000919805 0.000788528 -0.00241154 0.00663614 -0.00151459)
(0.00500013 -0.000587964 0.000408918 9.69738e-05 0.00338321 -0.00491126)
(0.00630606 -0.000639515 -0.000140364 -0.00825493 0.00368575 0.00583484)
(0.0057248 -0.000481557 3.6076e-05 -0.00528391 0.00685806 0.00256725)
(0.00530938 -0.000333725 3.25651e-05 -0.00255722 0.00672332 -0.00144128)
(0.00503818 -0.000198712 -0.000137096 -1.79969e-05 0.00350586 -0.00485651)
(-0.00729361 -0.000786565 0.00233704 0.0112493 -0.000214186 -0.00131192)
(-0.0060951 -0.000705838 0.00406464 0.0104397 -0.000119929 -0.00084957)
(-0.00472476 -0.000612416 0.00396167 0.00975024 -0.000123502 -0.000771908)
(-0.00376153 -0.000538683 0.0020923 0.00917184 -0.000219064 -0.000346678)
(-0.00706709 -0.00216899 0.00233419 0.0110699 0.000271188 -0.00129991)
(-0.00587458 -0.00193633 0.00402766 0.0102463 0.000471929 -0.000847887)
(-0.00452721 -0.00169274 0.00389675 0.00956796 0.000458901 -0.000770429)
(-0.003592 -0.00150637 0.00201327 0.00898978 0.000241964 -0.00033406)
(-0.00661782 -0.00356481 0.0023048 0.0106088 0.000457322 -0.00130001)
(-0.00547185 -0.00316929 0.00397691 0.00984613 0.000791488 -0.000848088)
(-0.00417334 -0.00277075 0.00384733 0.00921717 0.000768247 -0.000770644)
(-0.00327626 -0.00247364 0.00198888 0.00867813 0.000402058 -0.000334521)
(-0.00595336 -0.00486735 0.00226106 0.00994375 0.000638617 -0.00130021)
(-0.00488203 -0.00432793 0.00390177 0.00925592 0.00110305 -0.000848343)
(-0.00365738 -0.00378343 0.00377476 0.00870178 0.00106945 -0.000770817)
(-0.00281585 -0.00337825 0.00195118 0.00821809 0.000557837 -0.000334645)
(-0.0050941 -0.00605004 0.00220322 0.00908336 0.00081486 -0.0012999)
(-0.00411811 -0.00538023 0.00380258 0.00849126 0.00140637 -0.000847911)
(-0.00298967 -0.00470359 0.00367888 0.00803362 0.00136263 -0.00077018)
(-0.00221974 -0.00420003 0.00190138 0.00762174 0.00070914 -0.000333845)
(-0.00406069 -0.0070839 0.00213161 0.00804885 0.000985442 -0.00129913)
(-0.00319896 -0.00630024 0.00367993 0.00757118 0.00170035 -0.000846926)
(-0.00218615 -0.00550813 0.00356039 0.00722926 0.00164679 -0.000768928)
(-0.00150242 -0.0049185 0.00184002 0.00690365 0.00085559 -0.000332358)
(-0.00287837 -0.00794373 0.00204666 0.00686569 0.00114947 -0.00129808)
(-0.0021471 -0.0070653 0.00353457 0.00651846 0.00198343 -0.000845651)
(-0.0012665 -0.00617709 0.00342006 0.00630866 0.00192045 -0.000767389)
(-0.000681408 -0.00551574 0.00176752 0.00608161 0.000996513 -0.000330582)
(-0.00157598 -0.00860855 0.00194893 0.00556297 0.0013059 -0.00129697)
(-0.000988223 -0.00765659 0.00336746 0.00535906 0.00225386 -0.000844361)
(-0.000253251 -0.00669387 0.00325881 0.0052946 0.00218196 -0.000765886)
(0.000223087 -0.0059769 0.0016844 0.00517601 0.00113108 -0.000328891)
(-0.000185176 -0.00906223 0.00183923 0.00417262 0.00145353 -0.00129604)
(0.000249448 -0.00805943 0.00317983 0.00412156 0.0025099 -0.000843322)
(0.000828626 -0.00704557 0.00307781 0.00421228 0.00242967 -0.000764702)
(0.00118869 -0.00629049 0.00159129 0.00420941 0.00125843 -0.000327589)
(0.0012626 -0.00929422 0.00171947 0.00272843 0.00159121 -0.00129552)
(0.00153533 -0.00826369 0.00297349 0.00283668 0.00275 -0.000842747)
(0.00195198 -0.00722348 0.00287849 0.00308892 0.00266217 -0.000764054)
(0.00219124 -0.00644896 0.00148892 0.00320621 0.00137785 -0.000326887)
(0.00272843 -0.00929422 0.00159122 0.0012626 0.00171946 -0.00129552)
(0.00283668 -0.00826369 0.00275001 0.00153533 0.00297349 -0.000842747)
(0.00308891 -0.00722348 0.00266217 0.00195199 0.00287849 -0.000764054)
(0.00320621 -0.00644896 0.00137786 0.00219124 0.00148891 -0.000326887)
(0.00417261 -0.00906223 0.00145354 -0.000185176 0.00183922 -0.00129604)
(0.00412156 -0.00805944 0.0025099 0.000249448 0.00317983 -0.000843322)
(0.00421227 -0.00704557 0.00242968 0.000828628 0.00307781 -0.000764702)
(0.0042094 -0.00629049 0.00125844 0.00118869 0.00159129 -0.000327589)
(0.00556297 -0.00860855 0.0013059 -0.00157598 0.00194892 -0.00129697)
(0.00535906 -0.00765659 0.00225386 -0.000988224 0.00336745 -0.000844361)
(0.0052946 -0.00669387 0.00218196 -0.000253251 0.00325881 -0.000765886)
(0.00517601 -0.0059769 0.00113108 0.000223088 0.0016844 -0.000328891)
(0.00686569 -0.00794374 0.00114948 -0.00287838 0.00204666 -0.00129808)
(0.00651846 -0.00706531 0.00198343 -0.0021471 0.00353457 -0.000845652)
(0.00630866 -0.0061771 0.00192045 -0.0012665 0.00342006 -0.000767389)
(0.00608161 -0.00551575 0.000996516 -0.000681408 0.00176752 -0.000330582)
(0.00804885 -0.00708391 0.000985448 -0.0040607 0.00213161 -0.00129913)
(0.00757118 -0.00630024 0.00170036 -0.00319897 0.00367993 -0.000846927)
(0.00722926 -0.00550814 0.00164679 -0.00218615 0.00356039 -0.000768928)
(0.00690365 -0.0049185 0.000855594 -0.00150242 0.00184002 -0.000332358)
(0.00908336 -0.00605005 0.000814865 -0.00509412 0.00220322 -0.0012999)
(0.00849126 -0.00538024 0.00140638 -0.00411812 0.00380258 -0.000847912)
(0.00803362 -0.00470359 0.00136263 -0.00298967 0.00367888 -0.00077018)
(0.00762174 -0.00420004 0.000709143 -0.00221975 0.00190138 -0.000333845)
(0.00994375 -0.00486736 0.000638621 -0.00595338 0.00226106 -0.00130021)
(0.00925593 -0.00432794 0.00110306 -0.00488204 0.00390177 -0.000848344)
(0.00870179 -0.00378344 0.00106945 -0.00365739 0.00377476 -0.000770817)
(0.00821809 -0.00337825 0.000557839 -0.00281585 0.00195118 -0.000334645)
(0.0106088 -0.00356481 0.000457325 -0.00661784 0.0023048 -0.00130001)
(0.00984613 -0.0031693 0.000791491 -0.00547186 0.00397691 -0.000848088)
(0.00921717 -0.00277075 0.000768249 -0.00417335 0.00384733 -0.000770644)
(0.00867813 -0.00247364 0.00040206 -0.00327626 0.00198889 -0.000334521)
(0.0110699 -0.00216899 0.00027119 -0.00706712 0.00233419 -0.00129991)
(0.0102463 -0.00193633 0.000471931 -0.00587459 0.00402766 -0.000847888)
(0.00956796 -0.00169274 0.000458903 -0.00452722 0.00389675 -0.00077043)
(0.00898979 -0.00150638 0.000241965 -0.00359201 0.00201327 -0.000334061)
(0.0112493 -0.000786567 -0.000214186 -0.00729363 0.00233704 -0.00131192)
(0.0104397 -0.000705839 -0.000119928 -0.00609511 0.00406465 -0.000849571)
(0.00975025 -0.000612417 -0.000123502 -0.00472477 0.00396167 -0.000771908)
(0.00917184 -0.000538684 -0.000219063 -0.00376153 0.0020923 -0.000346679)
(-0.00707862 -0.000951992 0.00127845 0.01573 -0.000215961 -0.00597563)
(-0.00680313 -0.000907002 0.00215859 0.014699 -0.000167512 -0.00327766)
(-0.00644882 -0.000853562 0.00207897 0.0137676 -0.000170358 -0.000832983)
(-0.00637275 -0.000809101 0.00108452 0.0129337 -0.000219797 0.00181648)
(-0.00681608 -0.00266778 0.00126783 0.0154835 0.000143478 -0.00593097)
(-0.00654494 -0.00251817 0.00212901 0.0144315 0.00024621 -0.00323707)
(-0.0062056 -0.00236526 0.0020357 0.0134981 0.00023743 -0.000790444)
(-0.00614335 -0.00224712 0.00103502 0.0126434 0.000123768 0.00186727)
(-0.00626658 -0.00438414 0.00125161 0.0149198 0.000245948 -0.00592767)
(-0.00602594 -0.00412473 0.00210173 0.0139099 0.000416867 -0.00323317)
(-0.00571663 -0.00387379 0.00200989 0.0130068 0.000401166 -0.000786382)
(-0.0056757 -0.00369396 0.00102269 0.0121792 0.000208022 0.00187091)
(-0.00545072 -0.00598683 0.00122751 0.0141029 0.00034565 -0.0059262)
(-0.00525926 -0.00563322 0.00206168 0.0131416 0.000583035 -0.00323132)
(-0.00499605 -0.00529059 0.00197179 0.0122856 0.000560163 -0.000784316)
(-0.00498905 -0.00504602 0.00100306 0.0114918 0.000289693 0.00187301)
(-0.00439427 -0.00744231 0.00119575 0.0130455 0.000442211 -0.00592536)
(-0.00426527 -0.0070033 0.00200892 0.0121468 0.000744219 -0.00323012)
(-0.00406252 -0.00657764 0.00192138 0.0113514 0.000714216 -0.000782798)
(-0.00409881 -0.00627379 0.000977053 0.0106012 0.000368334 0.00187479)
(-0.00312312 -0.00871479 0.00115642 0.0117737 0.000535337 -0.0059247)
(-0.00306894 -0.00820121 0.00194374 0.0109499 0.00089998 -0.00322907)
(-0.00293889 -0.00770293 0.00185915 0.0102272 0.00086298 -0.000781363)
(-0.00302722 -0.00734709 0.000945167 0.00952896 0.000443844 0.00187658)
(-0.00166848 -0.00977313 0.00110974 0.0103188 0.000624596 -0.00592407)
(-0.00169966 -0.00919744 0.00186655 0.00958018 0.00104961 -0.00322806)
(-0.00165274 -0.0086386 0.0017856 0.00894047 0.00100583 -0.000779969)
(-0.00180067 -0.00823936 0.000907733 0.00830165 0.000516036 0.00187834)
(-6.59309e-05 -0.0105914 0.00105607 0.00871645 0.000709379 -0.00592348)
(-0.000191002 -0.00996738 0.00177794 0.00807143 0.00119221 -0.00322715)
(-0.000235683 -0.00936147 0.00170129 0.00752296 0.001142 -0.000778733)
(-0.00044938 -0.00892843 0.000865082 0.00694954 0.000584604 0.00187989)
(0.00164542 -0.0111497 0.000995988 0.00700596 0.000788929 -0.00592303)
(0.00142018 -0.0104919 0.00167868 0.00646077 0.00132686 -0.00322647)
(0.00127735 -0.0098535 0.00160691 0.00600978 0.00127067 -0.000777808)
(0.000993223 -0.00939718 0.000817599 0.00550616 0.000649204 0.00188104)
(0.00342615 -0.0114347 0.000931083 0.00522903 0.000862512 -0.00592278)
(0.00309402 -0.0107578 0.00156999 0.00478812 0.00145277 -0.0032261)
(0.0028485 -0.0101025 0.00150332 0.00443877 0.00139119 -0.000777314)
(0.00249117 -0.00963421 0.000765692 0.00400768 0.000709574 0.00188165)
(0.00522902 -0.0114347 0.000862516 0.00342615 0.000931079 -0.00592278)
(0.00478812 -0.0107578 0.00145278 0.00309402 0.00156999 -0.0032261)
(0.00443877 -0.0101025 0.00139119 0.0028485 0.00150332 -0.000777314)
(0.00400768 -0.00963421 0.000709576 0.00249118 0.00076569 0.00188165)
(0.00700596 -0.0111497 0.000788934 0.00164542 0.000995985 -0.00592303)
(0.00646077 -0.0104919 0.00132686 0.00142018 0.00167868 -0.00322647)
(0.00600977 -0.0098535 0.00127067 0.00127735 0.00160691 -0.000777808)
(0.00550615 -0.00939719 0.000649206 0.000993225 0.000817599 0.00188104)
(0.00871644 -0.0105914 0.000709384 -6.59371e-05 0.00105607 -0.00592348)
(0.00807143 -0.00996739 0.00119222 -0.000191005 0.00177794 -0.00322715)
(0.00752296 -0.00936147 0.001142 -0.000235683 0.00170129 -0.000778733)
(0.00694954 -0.00892843 0.000584606 -0.000449378 0.000865082 0.00187989)
(0.0103188 -0.00977315 0.000624601 -0.00166849 0.00110974 -0.00592407)
(0.00958018 -0.00919744 0.00104961 -0.00169967 0.00186655 -0.00322805)
(0.00894047 -0.00863861 0.00100584 -0.00165274 0.0017856 -0.000779969)
(0.00830165 -0.00823936 0.000516038 -0.00180067 0.000907733 0.00187833)
(0.0117737 -0.0087148 0.000535342 -0.00312314 0.00115642 -0.0059247)
(0.0109499 -0.00820122 0.000899983 -0.00306895 0.00194374 -0.00322906)
(0.0102272 -0.00770294 0.000862983 -0.00293889 0.00185915 -0.000781363)
(0.00952896 -0.0073471 0.000443847 -0.00302723 0.000945168 0.00187657)
(0.0130455 -0.00744232 0.000442215 -0.00439429 0.00119575 -0.00592536)
(0.0121468 -0.00700331 0.000744222 -0.00426528 0.00200892 -0.00323012)
(0.0113514 -0.00657765 0.000714219 -0.00406253 0.00192138 -0.000782798)
(0.0106012 -0.00627379 0.000368336 -0.00409881 0.000977054 0.00187479)
(0.0141029 -0.00598685 0.000345653 -0.00545074 0.00122751 -0.00592619)
(0.0131416 -0.00563323 0.000583038 -0.00525928 0.00206168 -0.00323132)
(0.0122856 -0.00529059 0.000560165 -0.00499605 0.00197179 -0.000784316)
(0.0114918 -0.00504602 0.000289695 -0.00498905 0.00100306 0.00187301)
(0.0149198 -0.00438415 0.00024595 -0.00626661 0.00125161 -0.00592767)
(0.0139099 -0.00412473 0.000416869 -0.00602596 0.00210173 -0.00323317)
(0.0130068 -0.00387379 0.000401168 -0.00571665 0.00200989 -0.000786382)
(0.0121792 -0.00369396 0.000208024 -0.0056757 0.00102269 0.0018709)
(0.0154835 -0.00266778 0.00014348 -0.00681612 0.00126783 -0.00593096)
(0.0144315 -0.00251818 0.000246211 -0.00654496 0.00212902 -0.00323706)
(0.0134981 -0.00236526 0.000237431 -0.00620561 0.0020357 -0.000790444)
(0.0126434 -0.00224712 0.000123769 -0.00614336 0.00103502 0.00186727)
(0.01573 -0.000951994 -0.00021596 -0.00707866 0.00127846 -0.00597563)
(0.014699 -0.000907004 -0.000167511 -0.00680315 0.0021586 -0.00327766)
(0.0137676 -0.000853563 -0.000170358 -0.00644883 0.00207898 -0.000832983)
(0.0129338 -0.000809102 -0.000219797 -0.00637275 0.00108452 0.00181648)
(-0.007298 -0.00109737 0.000551416 0.0191677 -0.000170093 -0.00860255)
(-0.00747338 -0.00106747 0.000910555 0.0179565 -0.000149562 -0.00480081)
(-0.00762779 -0.00103128 0.000865035 0.0168412 -0.000150899 -0.00118104)
(-0.00798375 -0.000998208 0.000437021 0.0158232 -0.000171126 0.0025454)
(-0.00699908 -0.0030959 0.000540445 0.0188721 5.76619e-05 -0.008543)
(-0.00717927 -0.00297879 0.000890796 0.0176364 0.000100867 -0.00474234)
(-0.00734538 -0.00286323 0.000839627 0.0165125 9.70358e-05 -0.00111979)
(-0.00770773 -0.00277035 0.000409892 0.0154619 4.97115e-05 0.00261312)
(-0.00636247 -0.00508699 0.000533649 0.01822 0.000101607 -0.00853866)
(-0.00656705 -0.00488008 0.000879101 0.0170191 0.000172868 -0.00473736)
(-0.00675519 -0.00469041 0.000828692 0.0159174 0.000165636 -0.00111452)
(-0.00713195 -0.00455546 0.000404855 0.0148896 8.44017e-05 0.00261824)
(-0.00541643 -0.00694676 0.000523265 0.0172727 0.00014478 -0.00853637)
(-0.00566021 -0.00666476 0.000862031 0.0161098 0.000243227 -0.00473449)
(-0.00588269 -0.00640624 0.000812602 0.0150433 0.000232268 -0.00111122)
(-0.00628529 -0.00622332 0.000396612 0.0140412 0.000118011 0.00262187)
(-0.00419085 -0.00863601 0.000509418 0.0160462 0.000186635 -0.00853528)
(-0.00448431 -0.00828584 0.000839536 0.0149329 0.000311316 -0.00473274)
(-0.0047523 -0.00796479 0.000791318 0.0139119 0.000296507 -0.00110891)
(-0.00518738 -0.00773754 0.000385746 0.0129422 0.000149947 0.00262474)
(-0.00271587 -0.0101131 0.000492128 0.014571 0.000226907 -0.00853479)
(-0.00306895 -0.00970334 0.000811756 0.0135171 0.000376858 -0.00473157)
(-0.00339173 -0.00932742 0.000765163 0.0125506 0.000358136 -0.0011071)
(-0.00386581 -0.00906119 0.000372636 0.0116197 0.000180068 0.00262719)
(-0.00102777 -0.0113417 0.000471498 0.0128831 0.000265331 -0.0085346)
(-0.0014489 -0.0108823 0.00077892 0.0118969 0.000439524 -0.00473071)
(-0.00183437 -0.0104605 0.000734436 0.0109928 0.000416911 -0.00110562)
(-0.00235309 -0.0101616 0.000357546 0.0101062 0.000208339 0.00262932)
(0.000832102 -0.0122917 0.000447739 0.0110238 0.000301526 -0.00853453)
(0.000336108 -0.0117934 0.000741353 0.0101121 0.000498907 -0.00473007)
(-0.000118489 -0.0113359 0.000699469 0.00927665 0.000472539 -0.00110444)
(-0.000686535 -0.0110115 0.000340712 0.00843881 0.00023472 0.00263105)
(0.00281828 -0.0129397 0.00042126 0.00903883 0.000334983 -0.00853451)
(0.0022424 -0.0124142 0.000699547 0.00820657 0.000554561 -0.00472964)
(0.00171362 -0.0119318 0.000660672 0.00744454 0.000524726 -0.00110361)
(0.00109268 -0.0115898 0.000322372 0.00665888 0.000259178 0.00263229)
(0.0048845 -0.0132702 0.000393448 0.00697647 0.000365222 -0.00853451)
(0.00422285 -0.0127289 0.000654338 0.00622741 0.000606209 -0.00472942)
(0.00361624 -0.0122335 0.000618543 0.00554215 0.000573319 -0.00110318)
(0.00294028 -0.0118823 0.00030273 0.00481081 0.000281764 0.00263293)
(0.00697647 -0.0132702 0.000365224 0.0048845 0.000393446 -0.00853451)
(0.00622741 -0.0127289 0.00060621 0.00422285 0.000654337 -0.00472942)
(0.00554214 -0.0122335 0.000573319 0.00361625 0.000618543 -0.00110318)
(0.00481081 -0.0118823 0.000281764 0.00294028 0.00030273 0.00263293)
(0.00903882 -0.0129397 0.000334985 0.00281828 0.000421259 -0.00853451)
(0.00820656 -0.0124142 0.000554563 0.0022424 0.000699546 -0.00472964)
(0.00744453 -0.0119318 0.000524727 0.00171362 0.000660672 -0.00110361)
(0.00665888 -0.0115898 0.000259179 0.00109268 0.000322373 0.00263229)
(0.0110238 -0.0122917 0.000301529 0.000832095 0.000447739 -0.00853452)
(0.0101121 -0.0117934 0.000498909 0.000336104 0.000741353 -0.00473007)
(0.00927664 -0.0113359 0.00047254 -0.00011849 0.000699469 -0.00110444)
(0.00843881 -0.0110115 0.00023472 -0.000686533 0.000340712 0.00263105)
(0.0128831 -0.0113418 0.000265333 -0.00102779 0.000471499 -0.00853459)
(0.0118969 -0.0108823 0.000439526 -0.00144891 0.00077892 -0.00473071)
(0.0109928 -0.0104605 0.000416912 -0.00183437 0.000734436 -0.00110562)
(0.0101062 -0.0101616 0.000208339 -0.00235309 0.000357547 0.00262931)
(0.014571 -0.0101131 0.000226909 -0.00271589 0.000492129 -0.00853479)
(0.0135171 -0.00970335 0.00037686 -0.00306896 0.000811757 -0.00473157)
(0.0125506 -0.00932743 0.000358137 -0.00339173 0.000765164 -0.0011071)
(0.0116197 -0.00906119 0.000180069 -0.00386581 0.000372637 0.00262719)
(0.0160462 -0.00863603 0.000186637 -0.00419088 0.00050942 -0.00853527)
(0.0149329 -0.00828585 0.000311318 -0.00448432 0.000839538 -0.00473274)
(0.0139119 -0.00796479 0.000296508 -0.00475231 0.000791319 -0.00110891)
(0.0129422 -0.00773755 0.000149949 -0.00518739 0.000385747 0.00262474)
(0.0172727 -0.00694678 0.000144782 -0.00541647 0.000523268 -0.00853637)
(0.0161098 -0.00666477 0.000243228 -0.00566023 0.000862033 -0.00473449)
(0.0150433 -0.00640625 0.00023227 -0.0058827 0.000812603 -0.00111122)
(0.0140412 -0.00622332 0.000118012 -0.0062853 0.000396614 0.00262187)
(0.01822 -0.005087 0.000101608 -0.00636251 0.000533653 -0.00853865)
(0.0170191 -0.00488008 0.000172869 -0.00656707 0.000879104 -0.00473736)
(0.0159174 -0.00469042 0.000165637 -0.0067552 0.000828695 -0.00111452)
(0.0148896 -0.00455547 8.44026e-05 -0.00713196 0.000404857 0.00261824)
(0.0188721 -0.00309591 5.76626e-05 -0.00699912 0.000540448 -0.00854299)
(0.0176364 -0.00297879 0.000100868 -0.0071793 0.000890799 -0.00474233)
(0.0165125 -0.00286324 9.70364e-05 -0.00734539 0.000839629 -0.00111978)
(0.0154619 -0.00277035 4.97121e-05 -0.00770773 0.000409894 0.00261312)
(0.0191678 -0.00109737 -0.000170093 -0.00729804 0.00055142 -0.00860254)
(0.0179565 -0.00106748 -0.000149561 -0.00747341 0.000910558 -0.00480081)
(0.0168412 -0.00103128 -0.000150899 -0.00762781 0.000865038 -0.00118104)
(0.0158232 -0.000998209 -0.000171126 -0.00798375 0.000437024 0.0025454)
(-0.0076096 -0.00119577 7.28338e-05 0.0212965 -9.98562e-05 -0.00974363)
(-0.00793445 -0.00116914 0.000112074 0.0199704 -9.66853e-05 -0.00558022)
(-0.00827736 -0.0011376 9.74102e-05 0.0187431 -9.6635e-05 -0.00155428)
(-0.00877831 -0.00110609 3.29694e-05 0.0176177 -9.84235e-05 0.00251879)
(-0.00728385 -0.00338178 6.52752e-05 0.0209725 2.33829e-06 -0.00968027)
(-0.00761489 -0.00326939 0.000102452 0.01962 9.20151e-06 -0.0055164)
(-0.00796871 -0.00316236 8.69715e-05 0.0183815 9.69232e-06 -0.00148745)
(-0.00847293 -0.00307172 2.31418e-05 0.0172184 4.89619e-06 0.0025908)
(-0.00658863 -0.00555643 6.47118e-05 0.0202617 7.12234e-06 -0.0096762)
(-0.00694329 -0.0053563 0.000100701 0.0189428 1.76991e-05 -0.00551175)