/*--------------------------------*- C++ -*----------------------------------*\
| =========                 |                                                 |
| \\      /  F ield         | foam-extend: Open Source CFD                    |
|  \\    /   O peration     | Version:     3.1                                |
|   \\  /    A nd           | Web:         http://www.extend-project.de       |
|    \\/     M anipulation  |                                                 |
\*---------------------------------------------------------------------------*/
FoamFile
{
    version     2.0;
    format      ascii;
    class       pointVectorField;
    location    "0.0015";
    object      pointD;
}
// * * * * * * * * * * * * * * * * * * * * * * * * * * * * * * * * * * * * * //

dimensions      [0 1 0 0 0 0 0];

internalField   nonuniform List<vector> 
8505
(
(0 0 0)
(0 0 0)
(0 0 0)
(0 0 0)
(0 0 0)
(0 0 0)
(0 0 0)
(0 0 0)
(0 0 0)
(0 0 0)
(0 0 0)
(0 0 0)
(0 0 0)
(0 0 0)
(0 0 0)
(0 0 0)
(0 0 0)
(0 0 0)
(0 0 0)
(0 0 0)
(0 0 0)
(0 0 0)
(0 0 0)
(0 0 0)
(0 0 0)
(0 0 0)
(0 0 0)
(0 0 0)
(0 0 0)
(0 0 0)
(0 0 0)
(0 0 0)
(0 0 0)
(0 0 0)
(0 0 0)
(0 0 0)
(0 0 0)
(0 0 0)
(0 0 0)
(0 0 0)
(0 0 0)
(0 0 0)
(0 0 0)
(0 0 0)
(0 0 0)
(0 0 0)
(0 0 0)
(0 0 0)
(0 0 0)
(0 0 0)
(0 0 0)
(0 0 0)
(0 0 0)
(0 0 0)
(0 0 0)
(0 0 0)
(0 0 0)
(0 0 0)
(0 0 0)
(0 0 0)
(0 0 0)
(0 0 0)
(0 0 0)
(0 0 0)
(0 0 0)
(0 0 0)
(0 0 0)
(0 0 0)
(0 0 0)
(0 0 0)
(0 0 0)
(0 0 0)
(0 0 0)
(0 0 0)
(0 0 0)
(0 0 0)
(0 0 0)
(0 0 0)
(0 0 0)
(0 0 0)
(0 0 0)
(0 0 0)
(0 0 0)
(0 0 0)
(0 0 0)
(0 0 0)
(0 0 0)
(0 0 0)
(0 0 0)
(0 0 0)
(0 0 0)
(0 0 0)
(0 0 0)
(0 0 0)
(0 0 0)
(0 0 0)
(0 0 0)
(0 0 0)
(0 0 0)
(0 0 0)
(0 0 0)
(0 0 0)
(0 0 0)
(0 0 0)
(0 0 0)
(2.11877e-05 0 1.39966e-05)
(1.89275e-05 0 6.41424e-06)
(1.77075e-05 0 8.87004e-07)
(1.73445e-05 0 -4.50935e-06)
(1.7863e-05 0 -1.1525e-05)
(2.1036e-05 1.62237e-06 1.3745e-05)
(1.88147e-05 1.46071e-06 6.24202e-06)
(1.76253e-05 1.37109e-06 7.32597e-07)
(1.72912e-05 1.34544e-06 -4.69299e-06)
(1.78441e-05 1.38698e-06 -1.18031e-05)
(2.08283e-05 3.28097e-06 1.3738e-05)
(1.86311e-05 2.93654e-06 6.23846e-06)
(1.74559e-05 2.75352e-06 7.30196e-07)
(1.71283e-05 2.70351e-06 -4.69484e-06)
(1.76809e-05 2.79201e-06 -1.18037e-05)
(2.05005e-05 4.90979e-06 1.37341e-05)
(1.83386e-05 4.39279e-06 6.23596e-06)
(1.71822e-05 4.11745e-06 7.28648e-07)
(1.68602e-05 4.04203e-06 -4.69565e-06)
(1.74046e-05 4.17406e-06 -1.18036e-05)
(2.00487e-05 6.5058e-06 1.37322e-05)
(1.79346e-05 5.82051e-06 6.23494e-06)
(1.68037e-05 5.45494e-06 7.28267e-07)
(1.64889e-05 5.35431e-06 -4.6954e-06)
(1.70214e-05 5.5285e-06 -1.18025e-05)
(1.94743e-05 8.06016e-06 1.37317e-05)
(1.74207e-05 7.21116e-06 6.23494e-06)
(1.63222e-05 6.75784e-06 7.28684e-07)
(1.60164e-05 6.63263e-06 -4.69449e-06)
(1.65335e-05 6.84792e-06 -1.18009e-05)
(1.87804e-05 9.56376e-06 1.37322e-05)
(1.67998e-05 8.55642e-06 6.23559e-06)
(1.57403e-05 8.01822e-06 7.29584e-07)
(1.54452e-05 7.86926e-06 -4.69323e-06)
(1.59437e-05 8.12434e-06 -1.1799e-05)
(1.7971e-05 1.10077e-05 1.37333e-05)
(1.60753e-05 9.84821e-06 6.23666e-06)
(1.50613e-05 9.22846e-06 7.30744e-07)
(1.47788e-05 9.05666e-06 -4.69182e-06)
(1.52557e-05 9.34995e-06 -1.17971e-05)
(1.70509e-05 1.23834e-05 1.37349e-05)
(1.52518e-05 1.10788e-05 6.23795e-06)
(1.42896e-05 1.03813e-05 7.31961e-07)
(1.40215e-05 1.01876e-05 -4.69047e-06)
(1.44738e-05 1.05173e-05 -1.17954e-05)
(1.60255e-05 1.3683e-05 1.37369e-05)
(1.43342e-05 1.2241e-05 6.23923e-06)
(1.34299e-05 1.14698e-05 7.32986e-07)
(1.3178e-05 1.12554e-05 -4.68944e-06)
(1.36033e-05 1.16193e-05 -1.1794e-05)
(1.49e-05 1.49e-05 1.37379e-05)
(1.33284e-05 1.33284e-05 6.23983e-06)
(1.2488e-05 1.2488e-05 7.33414e-07)
(1.22541e-05 1.22541e-05 -4.68905e-06)
(1.26498e-05 1.26498e-05 -1.17935e-05)
(1.3683e-05 1.60255e-05 1.37369e-05)
(1.2241e-05 1.43342e-05 6.23923e-06)
(1.14698e-05 1.34299e-05 7.32986e-07)
(1.12554e-05 1.3178e-05 -4.68944e-06)
(1.16193e-05 1.36033e-05 -1.1794e-05)
(1.23834e-05 1.70509e-05 1.37349e-05)
(1.10788e-05 1.52518e-05 6.23795e-06)
(1.03813e-05 1.42896e-05 7.3196e-07)
(1.01876e-05 1.40215e-05 -4.69047e-06)
(1.05173e-05 1.44738e-05 -1.17954e-05)
(1.10077e-05 1.7971e-05 1.37333e-05)
(9.84822e-06 1.60753e-05 6.23665e-06)
(9.22847e-06 1.50613e-05 7.30743e-07)
(9.05666e-06 1.47788e-05 -4.69182e-06)
(9.34996e-06 1.52557e-05 -1.17971e-05)
(9.56376e-06 1.87804e-05 1.37322e-05)
(8.55642e-06 1.67998e-05 6.23558e-06)
(8.01823e-06 1.57403e-05 7.29584e-07)
(7.86926e-06 1.54452e-05 -4.69323e-06)
(8.12435e-06 1.59437e-05 -1.1799e-05)
(8.06016e-06 1.94743e-05 1.37317e-05)
(7.21117e-06 1.74207e-05 6.23493e-06)
(6.75784e-06 1.63222e-05 7.28683e-07)
(6.63264e-06 1.60164e-05 -4.69449e-06)
(6.84792e-06 1.65335e-05 -1.18009e-05)
(6.50581e-06 2.00487e-05 1.37322e-05)
(5.82052e-06 1.79346e-05 6.23494e-06)
(5.45495e-06 1.68037e-05 7.28266e-07)
(5.35431e-06 1.64889e-05 -4.6954e-06)
(5.52851e-06 1.70214e-05 -1.18025e-05)
(4.90979e-06 2.05005e-05 1.37341e-05)
(4.3928e-06 1.83386e-05 6.23595e-06)
(4.11746e-06 1.71822e-05 7.28647e-07)
(4.04203e-06 1.68602e-05 -4.69565e-06)
(4.17406e-06 1.74046e-05 -1.18036e-05)
(3.28097e-06 2.08283e-05 1.3738e-05)
(2.93655e-06 1.86311e-05 6.23845e-06)
(2.75352e-06 1.74559e-05 7.30195e-07)
(2.70351e-06 1.71283e-05 -4.69484e-06)
(2.79201e-06 1.76809e-05 -1.18037e-05)
(1.62237e-06 2.1036e-05 1.3745e-05)
(1.46071e-06 1.88147e-05 6.24202e-06)
(1.3711e-06 1.76253e-05 7.32596e-07)
(1.34544e-06 1.72912e-05 -4.69299e-06)
(1.38698e-06 1.78441e-05 -1.18031e-05)
(0 2.11877e-05 1.39966e-05)
(0 1.89275e-05 6.41423e-06)
(0 1.77075e-05 8.87003e-07)
(0 1.73445e-05 -4.50935e-06)
(0 1.7863e-05 -1.1525e-05)
(4.64673e-05 0 1.8452e-05)
(4.45666e-05 0 9.31292e-06)
(4.31132e-05 0 1.29567e-06)
(4.21686e-05 0 -6.61699e-06)
(4.16141e-05 0 -1.5413e-05)
(4.62609e-05 3.61411e-06 1.81774e-05)
(4.43721e-05 3.48058e-06 9.06837e-06)
(4.2938e-05 3.37322e-06 1.05571e-06)
(4.20122e-05 3.30464e-06 -6.88309e-06)
(4.14693e-05 3.2669e-06 -1.57337e-05)
(4.58213e-05 7.241e-06 1.81671e-05)
(4.39494e-05 6.94976e-06 9.05766e-06)
(4.25307e-05 6.72991e-06 1.04546e-06)
(4.16159e-05 6.5892e-06 -6.89238e-06)
(4.10796e-05 6.50803e-06 -1.57391e-05)
(4.51041e-05 1.08153e-05 1.81619e-05)
(4.3262e-05 1.03767e-05 9.05305e-06)
(4.18654e-05 1.00452e-05 1.04171e-06)
(4.09651e-05 9.83274e-06 -6.89495e-06)
(4.04373e-05 9.70934e-06 -1.574e-05)
(4.41113e-05 1.43215e-05 1.81597e-05)
(4.23098e-05 1.37392e-05 9.05163e-06)
(4.09439e-05 1.32987e-05 1.04111e-06)
(4.00633e-05 1.30157e-05 -6.89458e-06)
(3.95471e-05 1.28507e-05 -1.57384e-05)
(4.2848e-05 1.77385e-05 1.81595e-05)
(4.1098e-05 1.70164e-05 9.05204e-06)
(3.9771e-05 1.64698e-05 1.04218e-06)
(3.89155e-05 1.61182e-05 -6.89273e-06)
(3.84138e-05 1.59129e-05 -1.57356e-05)
(4.13213e-05 2.10453e-05 1.81606e-05)
(3.96334e-05 2.01882e-05 9.05355e-06)
(3.83535e-05 1.95389e-05 1.04415e-06)
(3.75282e-05 1.91209e-05 -6.89016e-06)
(3.70442e-05 1.88766e-05 -1.57323e-05)
(3.95402e-05 2.42218e-05 1.81627e-05)
(3.79247e-05 2.32349e-05 9.05569e-06)
(3.66997e-05 2.2487e-05 1.04653e-06)
(3.59098e-05 2.20053e-05 -6.88736e-06)
(3.54465e-05 2.17235e-05 -1.57289e-05)
(3.75155e-05 2.72489e-05 1.81653e-05)
(3.59823e-05 2.61382e-05 9.05805e-06)
(3.48199e-05 2.52961e-05 1.04888e-06)
(3.40704e-05 2.47535e-05 -6.88478e-06)
(3.36307e-05 2.4436e-05 -1.57258e-05)
(3.52594e-05 3.01084e-05 1.8168e-05)
(3.3818e-05 2.88804e-05 9.06013e-06)
(3.27257e-05 2.79492e-05 1.05073e-06)
(3.20215e-05 2.7349e-05 -6.88289e-06)
(3.16085e-05 2.69974e-05 -1.57237e-05)
(3.27846e-05 3.27846e-05 1.81693e-05)
(3.14456e-05 3.14456e-05 9.06102e-06)
(3.04306e-05 3.04306e-05 1.05146e-06)
(2.97764e-05 2.97764e-05 -6.88218e-06)
(2.93929e-05 2.93929e-05 -1.57229e-05)
(3.01084e-05 3.52594e-05 1.8168e-05)
(2.88804e-05 3.3818e-05 9.06013e-06)
(2.79492e-05 3.27257e-05 1.05073e-06)
(2.7349e-05 3.20215e-05 -6.88289e-06)
(2.69974e-05 3.16085e-05 -1.57237e-05)
(2.72489e-05 3.75155e-05 1.81653e-05)
(2.61382e-05 3.59822e-05 9.05805e-06)
(2.52961e-05 3.48198e-05 1.04888e-06)
(2.47536e-05 3.40704e-05 -6.88478e-06)
(2.4436e-05 3.36307e-05 -1.57258e-05)
(2.42218e-05 3.95402e-05 1.81627e-05)
(2.32349e-05 3.79247e-05 9.05569e-06)
(2.2487e-05 3.66997e-05 1.04653e-06)
(2.20053e-05 3.59098e-05 -6.88736e-06)
(2.17235e-05 3.54465e-05 -1.57288e-05)
(2.10453e-05 4.13213e-05 1.81606e-05)
(2.01882e-05 3.96334e-05 9.05355e-06)
(1.95389e-05 3.83535e-05 1.04415e-06)
(1.9121e-05 3.75282e-05 -6.89016e-06)
(1.88766e-05 3.70442e-05 -1.57323e-05)
(1.77385e-05 4.2848e-05 1.81595e-05)
(1.70165e-05 4.1098e-05 9.05204e-06)
(1.64698e-05 3.9771e-05 1.04218e-06)
(1.61182e-05 3.89155e-05 -6.89273e-06)
(1.59129e-05 3.84138e-05 -1.57356e-05)
(1.43215e-05 4.41113e-05 1.81597e-05)
(1.37392e-05 4.23098e-05 9.05163e-06)
(1.32987e-05 4.09439e-05 1.04111e-06)
(1.30157e-05 4.00633e-05 -6.89458e-06)
(1.28507e-05 3.9547e-05 -1.57384e-05)
(1.08153e-05 4.51041e-05 1.81619e-05)
(1.03767e-05 4.3262e-05 9.05305e-06)
(1.00453e-05 4.18654e-05 1.04171e-06)
(9.83275e-06 4.09651e-05 -6.89495e-06)
(9.70934e-06 4.04373e-05 -1.574e-05)
(7.24101e-06 4.58213e-05 1.81671e-05)
(6.94976e-06 4.39494e-05 9.05766e-06)
(6.72992e-06 4.25307e-05 1.04546e-06)
(6.58921e-06 4.16159e-05 -6.89238e-06)
(6.50804e-06 4.10796e-05 -1.5739e-05)
(3.61411e-06 4.62609e-05 1.81774e-05)
(3.48058e-06 4.43721e-05 9.06837e-06)
(3.37322e-06 4.2938e-05 1.05571e-06)
(3.30464e-06 4.20122e-05 -6.88309e-06)
(3.2669e-06 4.14693e-05 -1.57337e-05)
(0 4.64673e-05 1.84519e-05)
(0 4.45666e-05 9.31292e-06)
(0 4.31132e-05 1.29567e-06)
(0 4.21686e-05 -6.61699e-06)
(0 4.16141e-05 -1.5413e-05)
(7.14924e-05 0 1.73542e-05)
(6.97274e-05 0 8.75155e-06)
(6.81094e-05 0 7.9265e-07)
(6.66692e-05 0 -7.08089e-06)
(6.53267e-05 0 -1.54018e-05)
(7.12183e-05 5.58448e-06 1.71036e-05)
(6.94562e-05 5.45993e-06 8.5129e-06)
(6.78458e-05 5.34011e-06 5.50806e-07)
(6.64127e-05 5.23418e-06 -7.34167e-06)
(6.50739e-05 5.14171e-06 -1.5696e-05)
(7.05499e-05 1.11598e-05 1.70934e-05)
(6.88016e-05 1.08891e-05 8.50245e-06)
(6.72055e-05 1.06429e-05 5.40548e-07)
(6.57856e-05 1.04244e-05 -7.35075e-06)
(6.44595e-05 1.02211e-05 -1.5702e-05)
(6.94487e-05 1.66595e-05 1.70879e-05)
(6.77275e-05 1.62515e-05 8.4975e-06)
(6.61555e-05 1.58797e-05 5.36385e-07)
(6.47574e-05 1.55496e-05 -7.35365e-06)
(6.34514e-05 1.52415e-05 -1.57033e-05)
(6.79212e-05 2.20558e-05 1.70857e-05)
(6.62376e-05 2.15133e-05 8.4961e-06)
(6.46998e-05 2.10186e-05 5.35885e-07)
(6.3332e-05 2.0579e-05 -7.35307e-06)
(6.20544e-05 2.01685e-05 -1.57015e-05)
(6.59763e-05 2.73154e-05 1.70859e-05)
(6.43406e-05 2.66422e-05 8.49691e-06)
(6.28465e-05 2.60278e-05 5.37511e-07)
(6.15176e-05 2.54817e-05 -7.35049e-06)
(6.02761e-05 2.49715e-05 -1.56979e-05)
(6.36255e-05 3.24063e-05 1.70876e-05)
(6.20477e-05 3.16066e-05 8.49909e-06)
(6.06066e-05 3.08764e-05 5.40316e-07)
(5.93247e-05 3.02272e-05 -7.34691e-06)
(5.81272e-05 2.96207e-05 -1.56934e-05)
(6.08829e-05 3.72972e-05 1.70903e-05)
(5.93727e-05 3.63759e-05 8.50199e-06)
(5.79934e-05 3.55345e-05 5.43612e-07)
(5.67666e-05 3.47862e-05 -7.34303e-06)
(5.56205e-05 3.40872e-05 -1.56888e-05)
(5.77652e-05 4.19583e-05 1.70936e-05)
(5.63319e-05 4.0921e-05 8.50507e-06)
(5.50232e-05 3.99734e-05 5.4679e-07)
(5.38591e-05 3.91305e-05 -7.33952e-06)
(5.27717e-05 3.83432e-05 -1.56847e-05)
(5.42913e-05 4.63616e-05 1.70967e-05)
(5.2944e-05 4.52143e-05 8.50764e-06)
(5.17142e-05 4.41662e-05 5.49201e-07)
(5.06205e-05 4.32338e-05 -7.33699e-06)
(4.95989e-05 4.23629e-05 -1.56819e-05)
(5.04816e-05 5.04816e-05 1.70982e-05)
(4.92302e-05 4.92302e-05 8.5087e-06)
(4.80876e-05 4.80876e-05 5.50129e-07)
(4.70714e-05 4.70714e-05 -7.33606e-06)
(4.61222e-05 4.61221e-05 -1.56809e-05)
(4.63616e-05 5.42913e-05 1.70967e-05)
(4.52143e-05 5.2944e-05 8.50764e-06)
(4.41662e-05 5.17142e-05 5.49201e-07)
(4.32338e-05 5.06205e-05 -7.33699e-06)
(4.23629e-05 4.95989e-05 -1.56819e-05)
(4.19583e-05 5.77652e-05 1.70936e-05)
(4.0921e-05 5.63319e-05 8.50507e-06)
(3.99734e-05 5.50231e-05 5.46789e-07)
(3.91306e-05 5.38591e-05 -7.33952e-06)
(3.83432e-05 5.27717e-05 -1.56847e-05)
(3.72972e-05 6.08829e-05 1.70903e-05)
(3.63759e-05 5.93727e-05 8.50199e-06)
(3.55345e-05 5.79934e-05 5.43611e-07)
(3.47862e-05 5.67666e-05 -7.34303e-06)
(3.40872e-05 5.56205e-05 -1.56888e-05)
(3.24063e-05 6.36255e-05 1.70876e-05)
(3.16066e-05 6.20477e-05 8.49908e-06)
(3.08764e-05 6.06065e-05 5.40315e-07)
(3.02272e-05 5.93246e-05 -7.34691e-06)
(2.96207e-05 5.81271e-05 -1.56934e-05)
(2.73155e-05 6.59763e-05 1.70859e-05)
(2.66422e-05 6.43405e-05 8.49691e-06)
(2.60278e-05 6.28465e-05 5.3751e-07)
(2.54817e-05 6.15176e-05 -7.35049e-06)
(2.49715e-05 6.02761e-05 -1.56979e-05)
(2.20558e-05 6.79212e-05 1.70857e-05)
(2.15133e-05 6.62376e-05 8.4961e-06)
(2.10186e-05 6.46998e-05 5.35883e-07)
(2.0579e-05 6.3332e-05 -7.35306e-06)
(2.01685e-05 6.20544e-05 -1.57015e-05)
(1.66596e-05 6.94487e-05 1.70879e-05)
(1.62515e-05 6.77274e-05 8.4975e-06)
(1.58797e-05 6.61555e-05 5.36383e-07)
(1.55496e-05 6.47574e-05 -7.35365e-06)
(1.52415e-05 6.34514e-05 -1.57033e-05)
(1.11598e-05 7.05499e-05 1.70934e-05)
(1.08891e-05 6.88016e-05 8.50245e-06)
(1.06429e-05 6.72055e-05 5.40546e-07)
(1.04244e-05 6.57856e-05 -7.35075e-06)
(1.02211e-05 6.44595e-05 -1.5702e-05)
(5.58449e-06 7.12183e-05 1.71036e-05)
(5.45993e-06 6.94562e-05 8.5129e-06)
(5.34011e-06 6.78458e-05 5.50804e-07)
(5.23419e-06 6.64127e-05 -7.34167e-06)
(5.14171e-06 6.50739e-05 -1.5696e-05)
(0 7.14924e-05 1.73542e-05)
(0 6.97274e-05 8.75154e-06)
(0 6.81094e-05 7.92648e-07)
(0 6.66692e-05 -7.08089e-06)
(0 6.53267e-05 -1.54018e-05)
(9.23133e-05 0 1.26629e-05)
(9.05236e-05 0 5.90539e-06)
(8.87217e-05 0 -5.17533e-07)
(8.69203e-05 0 -6.87286e-06)
(8.50621e-05 0 -1.34123e-05)
(9.19772e-05 7.21985e-06 1.24699e-05)
(9.01857e-05 7.09297e-06 5.71509e-06)
(8.8385e-05 6.95908e-06 -7.12989e-07)
(8.65845e-05 6.82652e-06 -7.08072e-06)
(8.47262e-05 6.69879e-06 -1.36386e-05)
(9.11171e-05 1.44166e-05 1.24622e-05)
(8.93385e-05 1.41422e-05 5.70788e-06)
(8.75523e-05 1.38673e-05 -7.19716e-07)
(8.57668e-05 1.35931e-05 -7.08634e-06)
(8.39255e-05 1.33107e-05 -1.3642e-05)
(8.96958e-05 2.15181e-05 1.24578e-05)
(8.79442e-05 2.11044e-05 5.70432e-06)
(8.61848e-05 2.06892e-05 -7.223e-07)
(8.44264e-05 2.02746e-05 -7.08765e-06)
(8.26128e-05 1.98467e-05 -1.36419e-05)
(8.77231e-05 2.84862e-05 1.24561e-05)
(8.60094e-05 2.79357e-05 5.70364e-06)
(8.4288e-05 2.73831e-05 -7.21873e-07)
(8.25677e-05 2.68309e-05 -7.086e-06)
(8.07934e-05 2.62609e-05 -1.3639e-05)
(8.52109e-05 3.52783e-05 1.24566e-05)
(8.35457e-05 3.45945e-05 5.70501e-06)
(8.18731e-05 3.39079e-05 -7.19459e-07)
(8.02015e-05 3.32216e-05 -7.08242e-06)
(7.84774e-05 3.25134e-05 -1.36341e-05)
(8.21742e-05 4.18527e-05 1.24585e-05)
(8.05679e-05 4.104e-05 5.7077e-06)
(7.89544e-05 4.02236e-05 -7.15882e-07)
(7.7342e-05 3.94076e-05 -7.07781e-06)
(7.56789e-05 3.85655e-05 -1.36284e-05)
(7.86315e-05 4.81692e-05 1.24615e-05)
(7.7094e-05 4.72325e-05 5.71111e-06)
(7.55498e-05 4.62913e-05 -7.11856e-07)
(7.40066e-05 4.53505e-05 -7.07298e-06)
(7.2415e-05 4.43798e-05 -1.36226e-05)
(7.46045e-05 5.41894e-05 1.24651e-05)
(7.31453e-05 5.31342e-05 5.7146e-06)
(7.16801e-05 5.20739e-05 -7.08072e-07)
(7.0216e-05 5.1014e-05 -7.06867e-06)
(6.87059e-05 4.99206e-05 -1.36176e-05)
(7.01176e-05 5.98766e-05 1.24684e-05)
(6.87461e-05 5.87092e-05 5.71745e-06)
(6.73694e-05 5.75361e-05 -7.05262e-07)
(6.59939e-05 5.63635e-05 -7.06563e-06)
(6.45751e-05 5.5154e-05 -1.36141e-05)
(6.51976e-05 6.51975e-05 1.24699e-05)
(6.39239e-05 6.39238e-05 5.71861e-06)
(6.26449e-05 6.26449e-05 -7.04196e-07)
(6.13668e-05 6.13668e-05 -7.06452e-06)
(6.00485e-05 6.00485e-05 -1.36129e-05)
(5.98766e-05 7.01176e-05 1.24684e-05)
(5.87092e-05 6.87461e-05 5.71745e-06)
(5.75361e-05 6.73694e-05 -7.05262e-07)
(5.63635e-05 6.59939e-05 -7.06563e-06)
(5.5154e-05 6.45751e-05 -1.36141e-05)
(5.41894e-05 7.46045e-05 1.24651e-05)
(5.31342e-05 7.31453e-05 5.7146e-06)
(5.20739e-05 7.16801e-05 -7.08073e-07)
(5.10141e-05 7.0216e-05 -7.06867e-06)
(4.99206e-05 6.87059e-05 -1.36176e-05)
(4.81693e-05 7.86315e-05 1.24615e-05)
(4.72325e-05 7.7094e-05 5.7111e-06)
(4.62913e-05 7.55497e-05 -7.11856e-07)
(4.53506e-05 7.40066e-05 -7.07298e-06)
(4.43798e-05 7.2415e-05 -1.36226e-05)
(4.18527e-05 8.21742e-05 1.24585e-05)
(4.104e-05 8.05679e-05 5.7077e-06)
(4.02236e-05 7.89544e-05 -7.15882e-07)
(3.94076e-05 7.7342e-05 -7.07781e-06)
(3.85655e-05 7.56789e-05 -1.36284e-05)
(3.52783e-05 8.52109e-05 1.24566e-05)
(3.45946e-05 8.35457e-05 5.705e-06)
(3.39079e-05 8.18731e-05 -7.1946e-07)
(3.32217e-05 8.02015e-05 -7.08242e-06)
(3.25134e-05 7.84774e-05 -1.36341e-05)
(2.84862e-05 8.77231e-05 1.24561e-05)
(2.79357e-05 8.60094e-05 5.70364e-06)
(2.73831e-05 8.4288e-05 -7.21874e-07)
(2.68309e-05 8.25677e-05 -7.086e-06)
(2.62609e-05 8.07933e-05 -1.3639e-05)
(2.15181e-05 8.96958e-05 1.24578e-05)
(2.11044e-05 8.79442e-05 5.70432e-06)
(2.06892e-05 8.61847e-05 -7.22301e-07)
(2.02746e-05 8.44264e-05 -7.08765e-06)
(1.98467e-05 8.26128e-05 -1.36419e-05)
(1.44166e-05 9.11171e-05 1.24622e-05)
(1.41422e-05 8.93385e-05 5.70787e-06)
(1.38673e-05 8.75523e-05 -7.19717e-07)
(1.35931e-05 8.57668e-05 -7.08634e-06)
(1.33107e-05 8.39255e-05 -1.3642e-05)
(7.21985e-06 9.19772e-05 1.24699e-05)
(7.09297e-06 9.01857e-05 5.71509e-06)
(6.95908e-06 8.8385e-05 -7.12991e-07)
(6.82653e-06 8.65844e-05 -7.08071e-06)
(6.6988e-06 8.47262e-05 -1.36386e-05)
(0 9.23133e-05 1.26629e-05)
(0 9.05236e-05 5.90539e-06)
(0 8.87217e-05 -5.17535e-07)
(0 8.69202e-05 -6.87286e-06)
(0 8.50621e-05 -1.34123e-05)
(0.000106849 0 5.99918e-06)
(0.000104975 0 1.72483e-06)
(0.000103023 0 -2.42474e-06)
(0.000100995 0 -6.53108e-06)
(9.88469e-05 0 -1.06702e-05)
(0.000106466 8.35798e-06 5.87925e-06)
(0.000104588 8.22526e-06 1.6033e-06)
(0.000102636 8.08039e-06 -2.5507e-06)
(0.000100606 7.93151e-06 -6.66354e-06)
(9.84561e-05 7.78439e-06 -1.08103e-05)
(0.000105471 1.6686e-05 5.87485e-06)
(0.000103606 1.63994e-05 1.59988e-06)
(0.000101668 1.6102e-05 -2.55332e-06)
(9.96551e-05 1.57937e-05 -6.66506e-06)
(9.75249e-05 1.54677e-05 -1.08102e-05)
(0.000103825 2.49046e-05 5.87212e-06)
(0.000101988 2.44724e-05 1.59844e-06)
(0.000100079 2.40234e-05 -2.55349e-06)
(9.80966e-05 2.35569e-05 -6.66383e-06)
(9.59983e-05 2.30628e-05 -1.08074e-05)
(0.000101541 3.29691e-05 5.87117e-06)
(9.97433e-05 3.23936e-05 1.59892e-06)
(9.78755e-05 3.17955e-05 -2.55156e-06)
(9.59353e-05 3.11741e-05 -6.66039e-06)
(9.38823e-05 3.05158e-05 -1.08024e-05)
(9.86311e-05 4.08299e-05 5.8718e-06)
(9.68846e-05 4.01146e-05 1.60094e-06)
(9.50695e-05 3.93711e-05 -2.5481e-06)
(9.31842e-05 3.85985e-05 -6.65538e-06)
(9.11892e-05 3.77803e-05 -1.07957e-05)
(9.51146e-05 4.84391e-05 5.87372e-06)
(9.34297e-05 4.75883e-05 1.60404e-06)
(9.16787e-05 4.67038e-05 -2.54371e-06)
(8.986e-05 4.57848e-05 -6.64956e-06)
(8.79356e-05 4.48116e-05 -1.07883e-05)
(9.10126e-05 5.57501e-05 5.87659e-06)
(8.93997e-05 5.47688e-05 1.60771e-06)
(8.77239e-05 5.37487e-05 -2.53903e-06)
(8.59834e-05 5.26887e-05 -6.6437e-06)
(8.41416e-05 5.15665e-05 -1.07811e-05)
(8.63501e-05 6.27183e-05 5.87996e-06)
(8.48196e-05 6.16125e-05 1.61139e-06)
(8.32295e-05 6.04627e-05 -2.53476e-06)
(8.15783e-05 5.92682e-05 -6.63861e-06)
(7.9831e-05 5.80037e-05 -1.0775e-05)
(8.11558e-05 6.93015e-05 5.8832e-06)
(7.97173e-05 6.80775e-05 1.61435e-06)
(7.82235e-05 6.6805e-05 -2.53165e-06)
(7.66723e-05 6.54831e-05 -6.63507e-06)
(7.50308e-05 6.4084e-05 -1.07708e-05)
(7.54606e-05 7.54605e-05 5.88468e-06)
(7.41249e-05 7.41249e-05 1.61555e-06)
(7.27373e-05 7.27373e-05 -2.53048e-06)
(7.12961e-05 7.12961e-05 -6.63379e-06)
(6.9771e-05 6.9771e-05 -1.07694e-05)
(6.93015e-05 8.11558e-05 5.8832e-06)
(6.80775e-05 7.97173e-05 1.61435e-06)
(6.6805e-05 7.82235e-05 -2.53165e-06)
(6.54831e-05 7.66722e-05 -6.63507e-06)
(6.4084e-05 7.50307e-05 -1.07708e-05)
(6.27183e-05 8.63501e-05 5.87996e-06)
(6.16125e-05 8.48195e-05 1.61139e-06)
(6.04627e-05 8.32295e-05 -2.53476e-06)
(5.92682e-05 8.15782e-05 -6.63861e-06)
(5.80037e-05 7.9831e-05 -1.0775e-05)
(5.57501e-05 9.10126e-05 5.87658e-06)
(5.47688e-05 8.93997e-05 1.60771e-06)
(5.37487e-05 8.77238e-05 -2.53903e-06)
(5.26887e-05 8.59833e-05 -6.6437e-06)
(5.15665e-05 8.41416e-05 -1.07811e-05)
(4.84391e-05 9.51146e-05 5.87372e-06)
(4.75883e-05 9.34296e-05 1.60404e-06)
(4.67038e-05 9.16787e-05 -2.54371e-06)
(4.57848e-05 8.986e-05 -6.64956e-06)
(4.48116e-05 8.79356e-05 -1.07883e-05)
(4.083e-05 9.86311e-05 5.8718e-06)
(4.01146e-05 9.68846e-05 1.60094e-06)
(3.93711e-05 9.50695e-05 -2.5481e-06)
(3.85985e-05 9.31842e-05 -6.65538e-06)
(3.77803e-05 9.11892e-05 -1.07957e-05)
(3.29691e-05 0.000101541 5.87117e-06)
(3.23936e-05 9.97433e-05 1.59892e-06)
(3.17956e-05 9.78754e-05 -2.55156e-06)
(3.11741e-05 9.59353e-05 -6.66038e-06)
(3.05158e-05 9.38822e-05 -1.08024e-05)
(2.49046e-05 0.000103825 5.87212e-06)
(2.44724e-05 0.000101988 1.59844e-06)
(2.40234e-05 0.000100079 -2.55349e-06)
(2.35569e-05 9.80965e-05 -6.66383e-06)
(2.30628e-05 9.59982e-05 -1.08074e-05)
(1.6686e-05 0.000105471 5.87485e-06)
(1.63994e-05 0.000103606 1.59988e-06)
(1.6102e-05 0.000101668 -2.55332e-06)
(1.57937e-05 9.96551e-05 -6.66506e-06)
(1.54677e-05 9.75249e-05 -1.08102e-05)
(8.35798e-06 0.000106466 5.87925e-06)
(8.22526e-06 0.000104588 1.6033e-06)
(8.0804e-06 0.000102636 -2.5507e-06)
(7.93151e-06 0.000100606 -6.66354e-06)
(7.78439e-06 9.84561e-05 -1.08103e-05)
(0 0.000106849 5.99918e-06)
(0 0.000104975 1.72483e-06)
(0 0.000103023 -2.42474e-06)
(0 0.000100995 -6.53107e-06)
(0 9.88469e-05 -1.06702e-05)
(0.000114327 0 -1.47793e-06)
(0.000112381 0 -3.07537e-06)
(0.000110348 0 -4.69568e-06)
(0.000108222 0 -6.30135e-06)
(0.000105965 0 -7.85625e-06)
(0.000113919 8.94e-06 -1.52109e-06)
(0.000111969 8.803e-06 -3.12162e-06)
(0.000109934 8.65277e-06 -4.74441e-06)
(0.000107805 8.49739e-06 -6.35139e-06)
(0.000105547 8.34377e-06 -7.90588e-06)
(0.000112853 1.7848e-05 -1.52249e-06)
(0.000110916 1.75519e-05 -3.12168e-06)
(0.000108896 1.72435e-05 -4.74336e-06)
(0.000106785 1.69215e-05 -6.34919e-06)
(0.000104547 1.65806e-05 -7.90237e-06)
(0.000111089 2.66394e-05 -1.52355e-06)
(0.000109181 2.61926e-05 -3.12099e-06)
(0.000107192 2.57266e-05 -4.74106e-06)
(0.000105112 2.52393e-05 -6.34524e-06)
(0.000102908 2.47223e-05 -7.89666e-06)
(0.000108642 3.5266e-05 -1.52388e-06)
(0.000106775 3.46705e-05 -3.11932e-06)
(0.000104828 3.40495e-05 -4.73749e-06)
(0.000102793 3.33999e-05 -6.33972e-06)
(0.000100636 3.27107e-05 -7.88902e-06)
(0.000105526 4.36748e-05 -1.52331e-06)
(0.000103711 4.29341e-05 -3.11671e-06)
(0.000101819 4.21615e-05 -4.73289e-06)
(9.98412e-05 4.13534e-05 -6.33305e-06)
(9.77454e-05 4.04963e-05 -7.88009e-06)
(0.00010176 5.18145e-05 -1.52182e-06)
(0.000100009 5.09328e-05 -3.11337e-06)
(9.8184e-05 5.00131e-05 -4.7277e-06)
(9.6276e-05 4.90512e-05 -6.32588e-06)
(9.42542e-05 4.80313e-05 -7.87071e-06)
(9.73687e-05 5.96356e-05 -1.51953e-06)
(9.56925e-05 5.8618e-05 -3.10965e-06)
(9.39454e-05 5.75565e-05 -4.72246e-06)
(9.21194e-05 5.64465e-05 -6.31894e-06)
(9.01846e-05 5.52697e-05 -7.86183e-06)
(9.23778e-05 6.70906e-05 -1.51669e-06)
(9.07873e-05 6.59429e-05 -3.106e-06)
(8.91298e-05 6.47459e-05 -4.7178e-06)
(8.73976e-05 6.34943e-05 -6.31305e-06)
(8.55622e-05 6.21676e-05 -7.85445e-06)
(8.68186e-05 7.4134e-05 -1.51383e-06)
(8.5324e-05 7.28631e-05 -3.1031e-06)
(8.37671e-05 7.15376e-05 -4.71447e-06)
(8.214e-05 7.01519e-05 -6.30903e-06)
(8.0416e-05 6.86834e-05 -7.84951e-06)
(8.07242e-05 8.07241e-05 -1.51248e-06)
(7.93367e-05 7.93367e-05 -3.10193e-06)
(7.78909e-05 7.78909e-05 -4.71323e-06)
(7.63797e-05 7.63797e-05 -6.30758e-06)
(7.47783e-05 7.47783e-05 -7.84776e-06)
(7.41341e-05 8.68185e-05 -1.51383e-06)
(7.28631e-05 8.5324e-05 -3.1031e-06)
(7.15376e-05 8.37671e-05 -4.71447e-06)
(7.0152e-05 8.214e-05 -6.30903e-06)
(6.86834e-05 8.0416e-05 -7.84951e-06)
(6.70906e-05 9.23778e-05 -1.51669e-06)
(6.59429e-05 9.07873e-05 -3.106e-06)
(6.47459e-05 8.91298e-05 -4.7178e-06)
(6.34943e-05 8.73976e-05 -6.31305e-06)
(6.21676e-05 8.55621e-05 -7.85445e-06)
(5.96357e-05 9.73686e-05 -1.51953e-06)
(5.8618e-05 9.56925e-05 -3.10965e-06)
(5.75565e-05 9.39454e-05 -4.72245e-06)
(5.64465e-05 9.21194e-05 -6.31894e-06)
(5.52697e-05 9.01846e-05 -7.86183e-06)
(5.18145e-05 0.00010176 -1.52182e-06)
(5.09328e-05 0.000100009 -3.11337e-06)
(5.00131e-05 9.8184e-05 -4.7277e-06)
(4.90512e-05 9.6276e-05 -6.32588e-06)
(4.80313e-05 9.42542e-05 -7.87071e-06)
(4.36748e-05 0.000105526 -1.52331e-06)
(4.29341e-05 0.000103711 -3.11671e-06)
(4.21615e-05 0.000101819 -4.73289e-06)
(4.13534e-05 9.98412e-05 -6.33305e-06)
(4.04963e-05 9.77454e-05 -7.88009e-06)
(3.5266e-05 0.000108642 -1.52388e-06)
(3.46706e-05 0.000106775 -3.11932e-06)
(3.40495e-05 0.000104828 -4.73749e-06)
(3.33999e-05 0.000102793 -6.33972e-06)
(3.27107e-05 0.000100636 -7.88902e-06)
(2.66394e-05 0.000111089 -1.52355e-06)
(2.61926e-05 0.000109181 -3.12099e-06)
(2.57266e-05 0.000107192 -4.74106e-06)
(2.52393e-05 0.000105112 -6.34524e-06)
(2.47223e-05 0.000102908 -7.89666e-06)
(1.7848e-05 0.000112853 -1.52249e-06)
(1.75519e-05 0.000110916 -3.12168e-06)
(1.72435e-05 0.000108896 -4.74336e-06)
(1.69215e-05 0.000106785 -6.34919e-06)
(1.65806e-05 0.000104547 -7.90237e-06)
(8.94e-06 0.000113919 -1.52109e-06)
(8.803e-06 0.000111969 -3.12162e-06)
(8.65277e-06 0.000109934 -4.74441e-06)
(8.49739e-06 0.000107805 -6.35139e-06)
(8.34377e-06 0.000105547 -7.90587e-06)
(0 0.000114327 -1.47793e-06)
(0 0.000112381 -3.07537e-06)
(0 0.000110348 -4.69568e-06)
(0 0.000108222 -6.30135e-06)
(0 0.000105965 -7.85625e-06)
(0.000114781 0 -8.93949e-06)
(0.000112812 0 -7.95029e-06)
(0.000110781 0 -7.09824e-06)
(0.000108675 0 -6.26117e-06)
(0.000106461 0 -5.32336e-06)
(0.000114369 8.96961e-06 -8.90932e-06)
(0.000112398 8.83242e-06 -7.92353e-06)
(0.000110365 8.68344e-06 -7.07168e-06)
(0.000108257 8.53068e-06 -6.23138e-06)
(0.000106042 8.38131e-06 -5.28678e-06)
(0.000113296 1.79086e-05 -8.90825e-06)
(0.000111338 1.76115e-05 -7.92085e-06)
(0.00010932 1.73054e-05 -7.06766e-06)
(0.000107229 1.69887e-05 -6.22612e-06)
(0.000105034 1.66568e-05 -5.28045e-06)
(0.000111522 2.67307e-05 -8.908e-06)
(0.000109592 2.62818e-05 -7.91839e-06)
(0.000107604 2.58189e-05 -7.06323e-06)
(0.000105544 2.53392e-05 -6.21978e-06)
(0.000103382 2.48353e-05 -5.27201e-06)
(0.000109061 3.53873e-05 -8.908e-06)
(0.000107171 3.47885e-05 -7.91575e-06)
(0.000105225 3.41711e-05 -7.05821e-06)
(0.00010321 3.35311e-05 -6.21235e-06)
(0.000101094 3.28588e-05 -5.26189e-06)
(0.000105927 4.38254e-05 -8.90779e-06)
(0.000104091 4.30797e-05 -7.91277e-06)
(0.000102199 4.2311e-05 -7.05266e-06)
(0.00010024 4.15141e-05 -6.20416e-06)
(9.81834e-05 4.06772e-05 -5.25073e-06)
(0.000102142 5.19937e-05 -8.90709e-06)
(0.00010037 5.11051e-05 -7.90943e-06)
(9.85444e-05 5.01891e-05 -7.04685e-06)
(9.66542e-05 4.92397e-05 -6.19576e-06)
(9.46704e-05 4.82429e-05 -5.2394e-06)
(9.77282e-05 5.98428e-05 -8.90572e-06)
(9.60318e-05 5.8816e-05 -7.9059e-06)
(9.42849e-05 5.77578e-05 -7.04123e-06)
(9.24759e-05 5.66613e-05 -6.18788e-06)
(9.05775e-05 5.55101e-05 -5.22889e-06)
(9.27141e-05 6.7325e-05 -8.90373e-06)
(9.11045e-05 6.61659e-05 -7.90251e-06)
(8.94474e-05 6.49715e-05 -7.03636e-06)
(8.77316e-05 6.37341e-05 -6.1813e-06)
(8.5931e-05 6.24353e-05 -5.22027e-06)
(8.71306e-05 7.43951e-05 -8.90148e-06)
(8.56185e-05 7.31104e-05 -7.89982e-06)
(8.40623e-05 7.17869e-05 -7.03292e-06)
(8.24511e-05 7.04161e-05 -6.17686e-06)
(8.07603e-05 6.89773e-05 -5.21456e-06)
(8.10111e-05 8.10111e-05 -8.90036e-06)
(7.9608e-05 7.96079e-05 -7.89873e-06)
(7.81634e-05 7.81633e-05 -7.03165e-06)
(7.66675e-05 7.66675e-05 -6.17528e-06)
(7.50977e-05 7.50976e-05 -5.21254e-06)
(7.43951e-05 8.71306e-05 -8.90148e-06)
(7.31105e-05 8.56185e-05 -7.89982e-06)
(7.17869e-05 8.40623e-05 -7.03292e-06)
(7.04161e-05 8.24511e-05 -6.17686e-06)
(6.89773e-05 8.07603e-05 -5.21456e-06)
(6.7325e-05 9.27141e-05 -8.90373e-06)
(6.61659e-05 9.11045e-05 -7.90251e-06)
(6.49715e-05 8.94474e-05 -7.03635e-06)
(6.37341e-05 8.77316e-05 -6.1813e-06)
(6.24353e-05 8.5931e-05 -5.22027e-06)
(5.98428e-05 9.77282e-05 -8.90572e-06)
(5.8816e-05 9.60317e-05 -7.9059e-06)
(5.77578e-05 9.42849e-05 -7.04123e-06)
(5.66613e-05 9.24759e-05 -6.18787e-06)
(5.55101e-05 9.05775e-05 -5.22889e-06)
(5.19938e-05 0.000102142 -8.90708e-06)
(5.11051e-05 0.00010037 -7.90943e-06)
(5.01891e-05 9.85444e-05 -7.04685e-06)
(4.92398e-05 9.66542e-05 -6.19576e-06)
(4.82429e-05 9.46704e-05 -5.2394e-06)
(4.38254e-05 0.000105927 -8.90779e-06)
(4.30798e-05 0.000104091 -7.91276e-06)
(4.2311e-05 0.000102199 -7.05266e-06)
(4.15141e-05 0.00010024 -6.20416e-06)
(4.06772e-05 9.81833e-05 -5.25073e-06)
(3.53873e-05 0.000109061 -8.90799e-06)
(3.47885e-05 0.000107171 -7.91575e-06)
(3.41711e-05 0.000105225 -7.05821e-06)
(3.35311e-05 0.00010321 -6.21235e-06)
(3.28588e-05 0.000101094 -5.26189e-06)
(2.67307e-05 0.000111522 -8.908e-06)
(2.62818e-05 0.000109592 -7.91838e-06)
(2.58189e-05 0.000107604 -7.06323e-06)
(2.53392e-05 0.000105544 -6.21978e-06)
(2.48353e-05 0.000103382 -5.27201e-06)
(1.79086e-05 0.000113296 -8.90824e-06)
(1.76115e-05 0.000111338 -7.92085e-06)
(1.73054e-05 0.00010932 -7.06765e-06)
(1.69887e-05 0.000107229 -6.22611e-06)
(1.66568e-05 0.000105034 -5.28045e-06)
(8.96961e-06 0.000114369 -8.90931e-06)
(8.83243e-06 0.000112398 -7.92352e-06)
(8.68344e-06 0.000110365 -7.07167e-06)
(8.53068e-06 0.000108257 -6.23137e-06)
(8.38131e-06 0.000106042 -5.28678e-06)
(0 0.000114781 -8.93948e-06)
(0 0.000112812 -7.95028e-06)
(0 0.000110781 -7.09823e-06)
(0 0.000108675 -6.26117e-06)
(0 0.000106461 -5.32336e-06)
(0.000108772 0 -1.57425e-05)
(0.000106841 0 -1.246e-05)
(0.000104893 0 -9.41574e-06)
(0.000102914 0 -6.4146e-06)
(0.000100872 0 -3.27255e-06)
(0.000108377 8.49128e-06 -1.56474e-05)
(0.000106445 8.35869e-06 -1.23687e-05)
(0.000104497 8.21749e-06 -9.32261e-06)
(0.000102518 8.07559e-06 -6.31433e-06)
(0.000100476 7.93974e-06 -3.16003e-06)
(0.000107356 1.69561e-05 -1.56443e-05)
(0.000105436 1.6668e-05 -1.23639e-05)
(0.000103503 1.63775e-05 -9.31632e-06)
(0.000101539 1.60831e-05 -6.30679e-06)
(9.95166e-05 1.57807e-05 -3.15163e-06)
(0.000105669 2.53098e-05 -1.56431e-05)
(0.000103777 2.48739e-05 -1.23601e-05)
(0.000101871 2.44342e-05 -9.31036e-06)
(9.9937e-05 2.39878e-05 -6.29876e-06)
(9.79438e-05 2.3528e-05 -3.14127e-06)
(0.000103329 3.35068e-05 -1.5643e-05)
(0.000101477 3.29244e-05 -1.23568e-05)
(9.9611e-05 3.23372e-05 -9.30439e-06)