/*--------------------------------*- C++ -*----------------------------------*\
| =========                 |                                                 |
| \\      /  F ield         | foam-extend: Open Source CFD                    |
|  \\    /   O peration     | Version:     3.1                                |
|   \\  /    A nd           | Web:         http://www.extend-project.de       |
|    \\/     M anipulation  |                                                 |
\*---------------------------------------------------------------------------*/
FoamFile
{
    version     2.0;
    format      ascii;
    class       volSymmTensorField;
    location    "0.0015";
    object      sigma;
}
// * * * * * * * * * * * * * * * * * * * * * * * * * * * * * * * * * * * * * //

dimensions      [1 -1 -2 0 0 0 0];

internalField   nonuniform List<symmTensor> 
6400
(
(1311.15 -66.4427 1949.59 2784.05 43.9873 6061.58)
(300.686 -42.1058 2099.22 1241.62 58.6524 2165.53)
(-545.116 -21.9088 1981.23 -30.6093 54.5347 -1092.26)
(-1569.36 -1.59614 1618.14 -1475.15 33.5671 -4829.03)
(1320.68 -172.137 1938.39 2760.03 225.13 6005.19)
(305.662 -110.217 2083.08 1222.93 243.562 2121.52)
(-545.828 -60.2269 1963.18 -45.7441 229.92 -1138.12)
(-1579.14 -10.6577 1597.94 -1490.8 186.945 -4892.44)
(1355.57 -282.407 1913.49 2720.71 378.033 6001.83)
(328.878 -179.948 2056.5 1199.41 407.044 2120.23)
(-532.597 -97.962 1938.33 -58.7165 384.056 -1138.83)
(-1575.61 -16.8974 1578.12 -1493.78 312.844 -4892.65)
(1407.56 -385.452 1877.31 2666.74 527.876 6000.12)
(362.011 -245.655 2017.7 1165.08 567.826 2119.22)
(-514.503 -133.612 1901.78 -77.4545 535.551 -1139.32)
(-1572.49 -22.8857 1548.39 -1497.35 436.296 -4892.69)
(1475.25 -479.003 1829.7 2597.92 674.062 5999.39)
(405.192 -305.342 1966.58 1121.2 724.836 2118.89)
(-490.971 -166.07 1853.61 -101.343 683.505 -1139.29)
(-1568.37 -28.418 1509.17 -1501.5 556.787 -4892.24)
(1556.95 -560.777 1770.87 2515.74 815.804 5999.32)
(457.35 -357.52 1903.38 1068.79 877.147 2119.05)
(-462.516 -194.465 1794.04 -129.832 827.046 -1138.88)
(-1563.34 -33.2764 1460.65 -1506.3 673.663 -4891.5)
(1650.62 -628.784 1701.13 2422.07 952.304 5999.71)
(517.161 -400.909 1828.45 1009.06 1023.86 2119.53)
(-429.874 -218.075 1723.42 -162.286 965.318 -1138.25)
(-1557.56 -37.3159 1403.13 -1511.73 786.235 -4890.62)
(1753.92 -681.369 1620.9 2319.15 1082.78 6000.44)
(583.131 -434.443 1742.24 943.41 1164.12 2120.2)
(-393.877 -236.312 1642.17 -197.958 1097.49 -1137.54)
(-1551.19 -40.4237 1336.97 -1517.69 893.82 -4889.73)
(1864.33 -717.26 1530.65 2209.45 1206.47 6001.38)
(653.642 -457.293 1645.3 873.426 1297.08 2120.93)
(-355.448 -248.713 1550.84 -236.004 1222.79 -1136.87)
(-1544.45 -42.5138 1262.64 -1524.08 995.778 -4888.97)
(1979.57 -735.671 1431 2095.7 1322.73 6002.4)
(726.898 -468.889 1538.3 800.765 1422.02 2121.51)
(-315.631 -254.979 1450.06 -275.513 1340.51 -1136.43)
(-1537.57 -43.5493 1180.65 -1530.75 1091.54 -4888.52)
(2095.7 -735.671 1322.73 1979.57 1431 6002.4)
(800.765 -468.89 1422.02 726.898 1538.3 2121.51)
(-275.513 -254.979 1340.51 -315.631 1450.06 -1136.43)
(-1530.75 -43.5493 1091.55 -1537.57 1180.65 -4888.52)
(2209.44 -717.26 1206.47 1864.33 1530.65 6001.38)
(873.426 -457.293 1297.08 653.642 1645.3 2120.93)
(-236.004 -248.714 1222.79 -355.448 1550.84 -1136.87)
(-1524.08 -42.5139 995.779 -1544.45 1262.64 -4888.97)
(2319.15 -681.369 1082.78 1753.92 1620.9 6000.44)
(943.41 -434.443 1164.12 583.131 1742.24 2120.2)
(-197.958 -236.312 1097.5 -393.877 1642.17 -1137.54)
(-1517.69 -40.4239 893.822 -1551.19 1336.97 -4889.73)
(2422.07 -628.784 952.305 1650.61 1701.13 5999.71)
(1009.05 -400.909 1023.86 517.16 1828.45 2119.53)
(-162.287 -218.076 965.32 -429.874 1723.42 -1138.25)
(-1511.73 -37.3162 786.236 -1557.55 1403.13 -4890.62)
(2515.74 -560.777 815.805 1556.95 1770.87 5999.32)
(1068.79 -357.521 877.148 457.349 1903.38 2119.05)
(-129.832 -194.465 827.047 -462.516 1794.04 -1138.88)
(-1506.3 -33.2766 673.664 -1563.34 1460.65 -4891.5)
(2597.92 -479.003 674.063 1475.25 1829.7 5999.38)
(1121.2 -305.343 724.837 405.191 1966.58 2118.89)
(-101.343 -166.07 683.507 -490.971 1853.61 -1139.29)
(-1501.49 -28.4183 556.788 -1568.37 1509.17 -4892.24)
(2666.73 -385.453 527.877 1407.56 1877.31 6000.12)
(1165.08 -245.656 567.827 362.009 2017.7 2119.22)
(-77.4545 -133.613 535.552 -514.503 1901.78 -1139.32)
(-1497.35 -22.8859 436.297 -1572.49 1548.39 -4892.69)
(2720.71 -282.407 378.034 1355.57 1913.49 6001.83)
(1199.41 -179.948 407.044 328.876 2056.5 2120.23)
(-58.7164 -97.9622 384.057 -532.598 1938.33 -1138.83)
(-1493.78 -16.8976 312.845 -1575.61 1578.13 -4892.65)
(2760.03 -172.137 225.13 1320.68 1938.39 6005.19)
(1222.93 -110.217 243.562 305.66 2083.09 2121.52)
(-45.7439 -60.2271 229.92 -545.829 1963.18 -1138.12)
(-1490.8 -10.6578 186.945 -1579.14 1597.94 -4892.44)
(2784.05 -66.4428 43.9874 1311.15 1949.59 6061.58)
(1241.62 -42.1059 58.6525 300.684 2099.22 2165.53)
(-30.609 -21.9088 54.5349 -545.116 1981.23 -1092.26)
(-1475.15 -1.59619 33.5673 -1569.36 1618.14 -4829.03)
(-1232.41 -147.58 850.556 2127.82 -32.392 2019.08)
(-698.721 -111.128 1582.63 1841.75 8.32507 1113.08)
(-363.245 -77.0133 1551.54 1452.12 7.51487 -105.721)
(24.1758 -45.8564 809.045 1190.98 -31.6378 -1092.41)
(-1170.05 -392.937 856.549 2116.01 101.002 2021.5)
(-654.886 -297.549 1572.47 1821.07 186.198 1099.27)
(-329.151 -212.262 1531.42 1436.53 181.968 -122.165)
(54.5444 -135.684 780.74 1186.04 94.3652 -1101.2)
(-1089.89 -645.297 846.115 2028.81 168.157 2017.72)
(-592.489 -486.32 1552.73 1758.81 309.106 1096.99)
(-284.04 -346.68 1512.05 1391.81 301.568 -124.358)
(84.099 -221.933 770.916 1156.7 154.907 -1102.95)
(-969.86 -880.867 830.149 1907.37 234.189 2016.8)
(-502.209 -663.976 1523.48 1667.48 430.032 1096.09)
(-219.569 -473.173 1483.55 1326.81 419.21 -125.002)
(125.315 -302.828 756.343 1114.86 214.702 -1103.41)
(-814.573 -1094.74 809.018 1751.04 298.674 2016.47)
(-385.138 -825.344 1484.86 1549.67 548.223 1095.92)
(-136.12 -588.19 1445.95 1242.9 534.225 -124.962)
(178.737 -376.439 737.142 1061.16 273.209 -1103.17)
(-627.697 -1281.7 782.864 1563.51 361.23 2016.55)
(-244.169 -966.418 1437.09 1408.25 662.978 1096.14)
(-35.6124 -688.776 1399.48 1142.11 645.923 -124.568)
(243.066 -440.822 713.436 996.671 330.055 -1102.62)
(-413.803 -1437.18 751.843 1349.31 421.47 2016.89)
(-82.7711 -1083.73 1380.46 1246.66 773.588 1096.59)
(79.4703 -772.412 1344.39 1026.9 753.609 -124.006)
(316.706 -494.341 685.365 922.922 384.871 -1101.96)
(-178.102 -1557.39 716.14 1113.67 479.01 2017.4)
(95.106 -1174.4 1315.31 1068.85 879.356 1097.15)
(206.289 -837.016 1281.04 900.087 856.598 -123.409)
(397.819 -535.648 653.106 841.693 437.29 -1101.35)
(73.6757 -1639.45 675.996 862.32 533.464 2017.96)
(285.156 -1236.17 1242.08 879.171 979.611 1097.72)
(341.71 -880.97 1209.83 764.789 954.241 -122.885)
(484.37 -563.703 616.885 754.99 486.965 -1100.89)
(336.39 -1681.5 631.931 601.723 584.443 2018.86)
(482.692 -1267.51 1161.36 682.33 1073.74 1098.19)
(482.282 -903.192 1131.3 624.416 1045.96 -122.55)
(574.169 -577.852 576.966 665.067 533.596 -1100.65)
(601.723 -1681.5 584.444 336.39 631.93 2018.86)
(682.329 -1267.51 1073.75 482.692 1161.36 1098.19)
(624.415 -903.192 1045.96 482.282 1131.3 -122.55)
(665.066 -577.852 533.597 574.17 576.965 -1100.65)
(862.319 -1639.45 533.465 73.6751 675.995 2017.96)
(879.17 -1236.17 979.612 285.156 1242.08 1097.72)
(764.789 -880.97 954.242 341.711 1209.83 -122.885)
(754.99 -563.703 486.966 484.371 616.884 -1100.89)
(1113.67 -1557.4 479.011 -178.104 716.14 2017.4)
(1068.84 -1174.4 879.358 95.1054 1315.31 1097.15)
(900.086 -837.016 856.599 206.289 1281.04 -123.409)
(841.693 -535.648 437.291 397.82 653.105 -1101.35)
(1349.31 -1437.18 421.471 -413.805 751.842 2016.89)
(1246.66 -1083.73 773.59 -82.7722 1380.46 1096.59)
(1026.9 -772.412 753.61 79.4699 1344.39 -124.007)
(922.922 -494.341 384.872 316.706 685.364 -1101.96)
(1563.51 -1281.7 361.231 -627.7 782.864 2016.55)
(1408.25 -966.419 662.979 -244.171 1437.09 1096.14)
(1142.11 -688.776 645.924 -35.6131 1399.48 -124.568)
(996.671 -440.822 330.056 243.066 713.436 -1102.62)
(1751.04 -1094.74 298.675 -814.577 809.018 2016.47)
(1549.67 -825.345 548.224 -385.14 1484.86 1095.92)
(1242.9 -588.191 534.225 -136.121 1445.95 -124.962)
(1061.16 -376.44 273.21 178.736 737.142 -1103.17)
(1907.37 -880.869 234.19 -969.865 830.149 2016.79)
(1667.48 -663.977 430.033 -502.211 1523.48 1096.08)
(1326.81 -473.173 419.211 -219.571 1483.55 -125.003)
(1114.86 -302.829 214.703 125.315 756.343 -1103.41)
(2028.81 -645.298 168.158 -1089.9 846.116 2017.72)
(1758.81 -486.321 309.107 -592.492 1552.74 1096.99)
(1391.81 -346.681 301.568 -284.041 1512.05 -124.358)
(1156.71 -221.934 154.908 84.0986 770.916 -1102.95)
(2116.01 -392.937 101.003 -1170.05 856.55 2021.5)
(1821.07 -297.549 186.198 -654.89 1572.47 1099.27)
(1436.53 -212.263 181.968 -329.153 1531.42 -122.166)
(1186.04 -135.684 94.3656 54.5439 780.74 -1101.2)
(2127.82 -147.58 -32.3918 -1232.41 850.557 2019.07)
(1841.75 -111.129 8.32522 -698.724 1582.63 1113.08)
(1452.12 -77.0135 7.51501 -363.247 1551.54 -105.722)
(1190.99 -45.8565 -31.6376 24.1753 809.046 -1092.4)
(-1225.57 -181.515 539.317 3053.56 -49.4276 154.821)
(-801.656 -162.886 937.995 3014.06 -27.6759 408.85)
(-354.134 -141.327 914.23 2986.25 -28.5005 558.063)
(8.35243 -124.312 482.838 2992.97 -50.5532 796.395)
(-1163.05 -500.536 538.659 3022.41 62.5819 167.835)
(-745.783 -446.845 929.46 2974.41 108.907 414.222)
(-305.647 -390.632 899.25 2947.08 105.9 561.302)
(47.4887 -347.625 464.6 2950.98 55.8379 799.322)
(-1061.44 -822.648 531.877 2913.94 105.536 165.748)
(-652.431 -731.375 917.747 2882.49 182.651 414.59)
(-223.49 -639.403 887.845 2866.63 177.288 561.748)
(120.98 -570.839 458.973 2879.69 92.7827 799.843)
(-908.244 -1123.23 521.782 2760.32 147.373 165.56)
(-516.431 -998.754 900.408 2746.17 254.551 414.42)
(-104.351 -873.099 871.098 2747.76 246.796 561.779)
(227.272 -779.595 450.271 2773.57 128.732 799.858)
(-710.097 -1396.16 508.436 2561.62 188.045 165.487)
(-340.194 -1241.59 877.519 2569.66 324.548 414.467)
(49.7685 -1085.44 848.973 2593.6 314.453 561.958)
(364.931 -969.239 438.78 2636.04 163.648 800.139)
(-471.673 -1634.75 491.911 2322.84 227.41 165.609)
(-128.073 -1453.9 849.216 2357.34 392.389 414.703)
(235.266 -1271.11 821.629 2408.05 380.028 562.317)
(530.594 -1135.04 424.62 2470.45 197.444 800.607)
(-198.795 -1833.17 472.306 2049.83 265.263 165.888)
(114.736 -1630.45 815.671 2114.48 457.714 415.069)
(447.596 -1425.48 789.244 2195.71 443.18 562.775)
(720.186 -1272.86 407.89 2280.88 229.964 801.145)
(101.894 -1986.59 449.752 1749.34 301.361 166.281)
(382.3 -1766.9 777.106 1847.06 520.121 415.499)
(681.541 -1544.74 752.033 1961.81 503.528 563.241)
(929.018 -1379.28 388.708 2072 261.018 801.638)
(423.086 -2091.28 424.437 1428.73 335.43 166.733)
(668.126 -1859.87 733.808 1561.69 579.207 415.948)
(931.333 -1625.9 710.264 1712.18 560.694 563.642)
(1151.9 -1451.65 367.221 1848.99 290.408 801.99)
(757.901 -2144.82 396.8 1096.17 367.202 167.564)
(965.142 -1907.01 686.19 1265.45 634.616 416.354)
(1190.68 -1666.96 664.268 1453.05 614.346 563.903)
(1383.27 -1488.22 343.596 1617.49 317.966 802.162)
(1096.17 -2144.82 367.204 757.901 396.799 167.564)
(1265.45 -1907.01 634.617 965.142 686.189 416.354)
(1453.05 -1666.96 614.347 1190.68 664.267 563.903)
(1617.49 -1488.22 317.967 1383.27 343.595 802.162)
(1428.73 -2091.28 335.431 423.085 424.436 166.732)
(1561.69 -1859.87 579.208 668.126 733.807 415.948)
(1712.18 -1625.9 560.695 931.333 710.264 563.642)
(1848.99 -1451.65 290.409 1151.9 367.22 801.99)
(1749.34 -1986.59 301.362 101.891 449.752 166.28)
(1847.06 -1766.91 520.123 382.299 777.105 415.498)
(1961.81 -1544.74 503.529 681.541 752.033 563.241)
(2072 -1379.29 261.019 929.018 388.707 801.638)
(2049.83 -1833.17 265.265 -198.798 472.306 165.886)
(2114.48 -1630.46 457.715 114.734 815.671 415.068)
(2195.71 -1425.48 443.181 447.595 789.244 562.774)
(2280.88 -1272.86 229.965 720.186 407.889 801.145)
(2322.83 -1634.75 227.411 -471.678 491.911 165.607)
(2357.34 -1453.9 392.39 -128.076 849.215 414.702)
(2408.05 -1271.11 380.029 235.264 821.629 562.317)
(2470.45 -1135.04 197.445 530.593 424.619 800.607)
(2561.62 -1396.16 188.046 -710.103 508.436 165.485)
(2569.66 -1241.59 324.549 -340.197 877.519 414.465)
(2593.6 -1085.44 314.454 49.7667 848.973 561.957)
(2636.04 -969.239 163.648 364.931 438.78 800.139)
(2760.32 -1123.24 147.374 -908.251 521.783 165.557)
(2746.17 -998.755 254.551 -516.435 900.408 414.418)
(2747.76 -873.1 246.797 -104.354 871.098 561.778)
(2773.57 -779.596 128.732 227.271 450.272 799.858)
(2913.94 -822.649 105.537 -1061.45 531.877 165.745)
(2882.49 -731.376 182.652 -652.436 917.748 414.588)
(2866.63 -639.404 177.288 -223.493 887.846 561.747)
(2879.69 -570.84 92.7832 120.979 458.974 799.843)
(3022.41 -500.537 62.5824 -1163.06 538.659 167.831)
(2974.41 -446.846 108.907 -745.789 929.461 414.22)
(2947.08 -390.633 105.901 -305.65 899.25 561.302)
(2950.98 -347.625 55.8382 47.4878 464.601 799.322)
(3053.56 -181.515 -49.4274 -1225.58 539.318 154.818)
(3014.06 -162.886 -27.6757 -801.662 937.995 408.848)
(2986.25 -141.327 -28.5003 -354.137 914.231 558.062)
(2992.98 -124.312 -50.5531 8.35142 482.838 796.395)
(-1170.42 -219.69 295.028 4093.1 -49.8371 -915.885)
(-770.654 -209.308 498.137 4191.37 -38.6565 42.915)
(-365.652 -196.976 479.763 4299.67 -39.3135 930.31)
(-20.6851 -186.716 250.274 4434.66 -50.7225 1869.14)
(-1099.33 -615.641 292.575 4046.72 33.1104 -895.074)
(-705.643 -581.117 491.311 4135.08 56.8176 57.7116)
(-306.709 -545.829 469.777 4240.29 54.7916 942.941)
(30.4988 -518.566 238.85 4365.91 28.5618 1879.11)
(-974.398 -1011.72 288.832 3914.77 56.7573 -896.188)
(-585.656 -951.86 485.014 4014.92 96.2001 58.8286)
(-193.569 -893.951 463.82 4127.22 92.5768 944.182)
(139.639 -852.452 236.006 4260 48.0052 1881.16)
(-786.052 -1381.58 283.272 3726.32 79.7654 -895.778)
(-408.693 -1299.97 475.772 3837.66 134.547 59.2952)
(-27.0319 -1220.9 455.029 3961.03 129.268 944.906)
(298.339 -1164.47 231.476 4101.62 66.8521 1881.89)
(-542.278 -1717.46 275.942 3482.29 102.049 -895.607)
(-179.239 -1616.15 463.597 3608.17 171.743 59.6421)
(188.556 -1517.92 443.395 3745.63 164.819 945.415)
(504.011 -1447.8 225.474 3896.31 85.0002 1882.53)
(-248.929 -2011.11 266.866 3188.8 123.539 -895.448)
(96.9151 -1892.59 448.555 3332.03 207.688 59.9627)
(447.999 -1777.6 429.035 3486.33 199.149 945.889)
(751.503 -1695.48 218.115 3649.08 102.426 1883.15)
(86.8164 -2255.34 256.094 2853.11 144.138 -895.243)
(413.004 -2122.49 430.743 3016.05 242.217 60.298)
(744.941 -1993.52 412.062 3189.53 232.115 946.35)
(1034.73 -1901.39 209.477 3366.03 119.085 1883.73)
(456.771 -2444.18 243.709 2483.47 163.703 -894.972)
(761.298 -2300.17 410.294 2668.01 275.126 60.6475)
(1072.09 -2160.34 392.605 2862.55 263.539 946.771)
(1346.69 -2060.41 199.634 3054.13 134.909 1884.21)
(851.927 -2573.01 229.843 2088.97 182.061 -894.638)
(1133.32 -2421.21 387.388 2296.53 306.198 61.0135)
(1421.38 -2273.88 370.825 2513.48 293.232 947.118)
(1679.66 -2168.58 188.677 2721.11 149.816 1884.54)
(1263.56 -2638.77 214.865 1679.61 199.041 -893.881)
(1519.86 -2482.58 362.306 1910.8 335.255 61.3681)
(1784.07 -2331.34 346.921 2151.06 321.044 947.344)
(2025.36 -2223.28 176.698 2375.32 163.748 1884.7)
(1679.61 -2638.77 199.042 1263.56 214.864 -893.881)
(1910.8 -2482.58 335.256 1519.86 362.306 61.3679)
(2151.06 -2331.34 321.045 1784.07 346.921 947.344)
(2375.32 -2223.28 163.748 2025.36 176.698 1884.7)
(2088.97 -2573.01 182.062 851.926 229.843 -894.639)
(2296.53 -2421.22 306.199 1133.32 387.388 61.0131)
(2513.48 -2273.89 293.233 1421.38 370.824 947.118)
(2721.11 -2168.58 149.817 1679.66 188.677 1884.54)
(2483.47 -2444.18 163.704 456.768 243.708 -894.973)
(2668.01 -2300.17 275.127 761.296 410.293 60.6467)
(2862.55 -2160.34 263.539 1072.09 392.605 946.77)
(3054.13 -2060.41 134.909 1346.69 199.634 1884.21)
(2853.11 -2255.34 144.139 86.8116 256.094 -895.245)
(3016.04 -2122.49 242.217 413.001 430.743 60.2969)
(3189.53 -1993.53 232.116 744.94 412.062 946.349)
(3366.03 -1901.39 119.086 1034.73 209.477 1883.73)
(3188.8 -2011.11 123.54 -248.935 266.866 -895.45)
(3332.02 -1892.59 207.688 96.9113 448.555 59.9614)
(3486.33 -1777.6 199.15 447.997 429.035 945.888)
(3649.08 -1695.48 102.426 751.502 218.116 1883.15)
(3482.28 -1717.46 102.05 -542.286 275.943 -895.61)
(3608.16 -1616.15 171.744 -179.244 463.598 59.6407)
(3745.62 -1517.92 164.82 188.554 443.395 945.414)
(3896.31 -1447.8 85.0007 504.011 225.474 1882.53)
(3726.32 -1381.58 79.7662 -786.062 283.272 -895.781)
(3837.66 -1299.98 134.547 -408.698 475.772 59.2936)
(3961.03 -1220.91 129.269 -27.0349 455.029 944.905)
(4101.62 -1164.47 66.8526 298.338 231.476 1881.89)
(3914.77 -1011.73 56.7578 -974.409 288.833 -896.191)
(4014.92 -951.862 96.2006 -585.663 485.014 58.8269)
(4127.22 -893.952 92.5772 -193.572 463.82 944.181)
(4260 -852.453 48.0055 139.638 236.006 1881.16)
(4046.72 -615.643 33.1107 -1099.34 292.576 -895.077)
(4135.08 -581.118 56.8179 -705.651 491.311 57.7098)
(4240.29 -545.83 54.7918 -306.713 469.778 942.94)
(4365.91 -518.567 28.562 30.4976 238.85 1879.1)
(4093.1 -219.691 -49.837 -1170.43 295.029 -915.888)
(4191.37 -209.309 -38.6564 -770.662 498.137 42.9131)
(4299.67 -196.976 -39.3134 -365.657 479.764 930.309)
(4434.66 -186.716 -50.7224 -20.6864 250.275 1869.14)
(-1118.68 -253.238 127.25 4988.8 -39.2522 -1419.73)
(-741.146 -246.34 210.128 5127.29 -34.5143 -124.4)
(-370.049 -237.988 199.624 5276.63 -34.8229 1117.66)
(-45.0269 -230.356 100.851 5448.88 -39.4906 2384.78)
(-1038.83 -714.438 124.718 4931.44 13.3066 -1395.12)
(-667.652 -687.412 205.568 5059.05 23.277 -105.282)
(-302.282 -660.746 193.76 5203.38 22.3929 1134.39)
(15.6249 -639.311 94.5904 5362.45 11.4719 2397.36)
(-893.834 -1173.92 123.15 4779.05 23.4478 -1396.03)
(-526.389 -1126.17 202.869 4916.57 39.8926 -104.154)
(-166.027 -1082.4 191.237 5066.1 38.2237 1135.67)
(149.988 -1051.26 93.4282 5231.88 19.4773 2400.03)
(-675.354 -1603.1 120.753 4560.59 33.4109 -1395.34)
(-317.045 -1538.02 198.93 4706.81 56.1293 -103.418)
(35.6164 -1478.36 187.523 4864.69 53.6004 1136.73)
(345.697 -1436.15 91.5259 5036.42 27.2333 2401.2)
(-392.489 -1992.93 117.558 4277.6 43.0696 -1395.05)
(-45.5506 -1912.12 193.739 4435.35 71.8421 -102.882)
(296.705 -1838.03 182.612 4603.83 68.4247 1137.49)
(599.375 -1785.59 89.0183 4783.13 34.6033 2402.17)
(-52.0708 -2333.79 113.568 3937.2 52.3631 -1394.9)
(281.192 -2239.23 187.328 4108.74 86.9671 -102.491)
(610.878 -2152.48 176.576 4289.89 82.6467 1138.1)
(904.621 -2091.04 85.993 4478.2 41.5542 2403)
(337.559 -2617.32 108.807 3547.75 61.2302 -1394.78)
(655.173 -2511.29 179.751 3734.98 101.429 -102.167)
(970.441 -2413.96 169.485 3930.56 96.2101 1138.61)
(1253.93 -2344.98 82.5106 4129.14 48.0781 2403.72)
(766.885 -2836.55 103.324 3118.83 69.583 -1394.64)
(1067.25 -2721.56 171.082 3323.25 115.132 -101.873)
(1366.57 -2615.98 161.416 3534.68 109.047 1139.04)
(1638.68 -2541.12 78.6258 3744.53 54.1661 2404.28)
(1225.44 -2986.09 97.2138 2660.95 77.3037 -1394.44)
(1507.36 -2864.82 161.434 2883.71 127.976 -101.57)
(1789.51 -2753.5 152.463 3112.03 121.091 1139.38)
(2049.36 -2674.56 74.3936 3333.87 59.8104 2404.65)
(1702.93 -3062.34 90.7957 2185.69 84.282 -1393.77)
(1964.65 -2937.44 151.001 2427.24 139.894 -101.259)
(2228.69 -2823.11 142.741 2673.13 132.304 1139.59)
(2475.76 -2742.06 69.8608 2907.42 65.0225 2404.83)
(2185.69 -3062.34 84.2824 1702.93 90.7953 -1393.77)
(2427.24 -2937.44 139.895 1964.65 151.001 -101.259)
(2673.13 -2823.11 132.304 2228.69 142.741 1139.59)
(2907.42 -2742.06 65.0226 2475.76 69.8608 2404.83)
(2660.95 -2986.09 77.3043 1225.44 97.2136 -1394.44)
(2883.71 -2864.82 127.976 1507.36 161.434 -101.571)
(3112.02 -2753.5 121.091 1789.51 152.463 1139.38)
(3333.87 -2674.56 59.8105 2049.36 74.3937 2404.65)
(3118.82 -2836.55 69.5836 766.882 103.324 -1394.65)
(3323.25 -2721.57 115.133 1067.24 171.082 -101.874)
(3534.68 -2615.98 109.048 1366.57 161.416 1139.04)
(3744.53 -2541.12 54.1662 1638.68 78.6259 2404.28)
(3547.75 -2617.33 61.2308 337.553 108.807 -1394.79)
(3734.98 -2511.29 101.429 655.17 179.751 -102.168)
(3930.56 -2413.96 96.2105 970.44 169.485 1138.61)
(4129.14 -2344.99 48.0783 1253.93 82.5107 2403.72)
(3937.2 -2333.8 52.3636 -52.0784 113.568 -1394.9)
(4108.74 -2239.23 86.9676 281.187 187.329 -102.492)
(4289.89 -2152.48 82.647 610.875 176.576 1138.1)
(4478.2 -2091.04 41.5545 904.621 85.9932 2403)
(4277.6 -1992.93 43.0701 -392.498 117.558 -1395.05)
(4435.35 -1912.12 71.8425 -45.5564 193.74 -102.884)
(4603.83 -1838.03 68.425 296.702 182.612 1137.49)
(4783.13 -1785.59 34.6035 599.374 89.0186 2402.17)
(4560.59 -1603.1 33.4113 -675.366 120.754 -1395.34)
(4706.81 -1538.02 56.1296 -317.052 198.931 -103.419)
(4864.69 -1478.37 53.6007 35.6127 187.524 1136.73)
(5036.42 -1436.15 27.2336 345.697 91.5263 2401.2)
(4779.05 -1173.92 23.4481 -893.847 123.151 -1396.03)
(4916.57 -1126.17 39.8928 -526.397 202.87 -104.155)
(5066.1 -1082.4 38.2239 -166.031 191.237 1135.67)
(5231.88 -1051.26 19.4775 149.987 93.4286 2400.03)
(4931.43 -714.44 13.3067 -1038.84 124.719 -1395.12)
(5059.05 -687.413 23.2771 -667.661 205.569 -105.284)
(5203.38 -660.747 22.393 -302.287 193.761 1134.39)
(5362.45 -639.312 11.472 15.6236 94.5908 2397.36)
(4988.8 -253.239 -39.2521 -1118.69 127.251 -1419.73)
(5127.29 -246.34 -34.5142 -741.156 210.129 -124.402)
(5276.63 -237.989 -34.8228 -370.054 199.624 1117.66)
(5448.88 -230.356 -39.4906 -45.0284 100.852 2384.78)
(-1073.57 -275.948 16.8078 5597.08 -23.0437 -1566.04)
(-713.689 -269.801 25.8631 5725.89 -22.312 -170.406)
(-367.788 -262.523 22.4793 5867.71 -22.3004 1183.69)
(-59.9286 -255.252 7.60833 6031.45 -22.7131 2547.09)
(-987.134 -780.41 15.0635 5533.55 0.539605 -1540.15)
(-634.237 -754.474 23.6427 5650.74 2.12342 -149.97)
(-294.158 -729.775 20.0703 5786.67 2.23669 1201.52)
(6.76293 -708.859 5.34042 5935.54 1.12989 2559.93)
(-828.689 -1282.25 14.9335 5367.54 1.64362 -1541.21)
(-479.415 -1236.07 23.2387 5494.3 4.0844 -149.059)
(-143.902 -1195.52 19.6758 5634.89 4.12745 1202.57)
(155.694 -1165.65 5.16446 5790.65 2.00547 2562.68)
(-590.069 -1751.07 14.6389 5129.09 2.88484 -1540.48)
(-249.639 -1688.07 22.6653 5264.06 6.07301 -148.302)
(78.8266 -1632.85 19.1196 5412.3 5.95098 1203.68)
(372.7 -1592.41 4.85668 5573.74 2.80745 2563.95)
(-281.089 -2176.95 14.171 4820.14 4.16787 -1540.19)
(48.3611 -2098.66 21.9009 4966.17 7.98785 -147.722)
(367.217 -2030.05 18.4019 5124.11 7.62883 1204.53)
(653.979 -1979.8 4.48719 5292.73 3.43616 2565.06)
(90.7781 -2549.39 13.514 4448.47 5.4392 -1540.09)
(406.987 -2457.7 20.9557 4607.77 9.78932 -147.322)
(714.215 -2377.32 17.5645 4777.35 9.13013 1205.19)
(992.419 -2318.42 4.11818 4954.53 3.85821 2566.01)
(516.416 -2859.21 12.6677 4023.18 6.64807 -1540.07)
(817.448 -2756.33 19.8539 4197.62 11.4456 -147.03)
(1111.32 -2666.09 16.6506 4380.5 10.4415 1205.73)
(1379.7 -2599.92 3.80231 4567.46 4.07585 2566.8)
(985.419 -3098.79 11.6556 3554.69 7.725 -1540.04)
(1269.7 -2987.15 18.6374 3745.77 12.9208 -146.791)
(1548.8 -2889.19 15.7081 3943.3 11.5563 1206.15)
(1806.26 -2817.34 3.58599 4141.02 4.10912 2567.42)
(1486.33 -3262.2 10.5476 3054.48 8.57513 -1539.95)
(1752.71 -3144.41 17.379 3263.36 14.1782 -146.549)
(2015.87 -3041.09 14.7941 3476.53 12.478 1206.47)
(2261.57 -2965.28 3.50783 3685.74 3.99268 2567.83)
(2007.81 -3345.47 9.63793 2535.16 9.11224 -1539.37)
(2254.57 -3224.12 16.2219 2762.31 15.2205 -146.281)
(2500.91 -3117.97 13.9741 2991.78 13.2441 1206.67)
(2734.33 -3040.13 3.58728 3212.94 3.78482 2568.02)
(2535.16 -3345.47 9.11217 2007.81 9.63806 -1539.37)
(2762.31 -3224.12 15.2204 2254.57 16.222 -146.282)
(2991.78 -3117.97 13.244 2500.91 13.9743 1206.67)
(3212.93 -3040.13 3.78461 2734.33 3.58751 2568.02)
(3054.47 -3262.2 8.57511 1486.33 10.5478 -1539.95)
(3263.36 -3144.41 14.1781 1752.71 17.3792 -146.55)
(3476.53 -3041.09 12.4779 2015.87 14.7943 1206.47)
(3685.73 -2965.28 3.99249 2261.57 3.50808 2567.83)
(3554.69 -3098.79 7.72501 985.415 11.6559 -1540.05)
(3745.77 -2987.15 12.9208 1269.7 18.6377 -146.792)
(3943.3 -2889.19 11.5562 1548.79 15.7083 1206.15)
(4141.02 -2817.34 4.10897 1806.26 3.58625 2567.42)
(4023.18 -2859.22 6.64809 516.41 12.668 -1540.07)
(4197.61 -2756.33 11.4456 817.444 19.8542 -147.031)
(4380.5 -2666.09 10.4414 1111.32 16.6509 1205.73)
(4567.46 -2599.92 4.07573 1379.7 3.80258 2566.8)
(4448.47 -2549.39 5.43922 90.7697 13.5145 -1540.09)
(4607.77 -2457.7 9.7893 406.982 20.956 -147.323)
(4777.35 -2377.33 9.13008 714.213 17.5648 1205.19)
(4954.53 -2318.42 3.85813 992.419 4.11846 2566.01)
(4820.14 -2176.95 4.16788 -281.1 14.1714 -1540.19)
(4966.17 -2098.66 7.98785 48.3547 21.9013 -147.723)
(5124.11 -2030.06 7.62881 367.214 18.4022 1204.53)
(5292.73 -1979.8 3.43612 653.978 4.48749 2565.06)
(5129.09 -1751.07 2.88484 -590.082 14.6394 -1540.48)
(5264.06 -1688.07 6.07301 -249.646 22.6658 -148.304)
(5412.3 -1632.85 5.95098 78.8226 19.12 1203.68)
(5573.74 -1592.41 2.80745 372.699 4.857 2563.95)
(5367.54 -1282.26 1.6436 -828.704 14.9341 -1541.21)
(5494.3 -1236.07 4.0844 -479.424 23.2392 -149.061)
(5634.89 -1195.52 4.12746 -143.906 19.6762 1202.57)
(5790.65 -1165.65 2.00549 155.693 5.16481 2562.68)
(5533.55 -780.412 0.539587 -987.149 15.0641 -1540.16)
(5650.74 -754.476 2.12343 -634.247 23.6433 -149.972)
(5786.67 -729.775 2.2367 -294.163 20.0708 1201.52)
(5935.54 -708.859 1.12991 6.76148 5.34078 2559.93)
(5597.08 -275.949 -23.0438 -1073.58 16.8084 -1566.04)
(5725.89 -269.802 -22.312 -713.699 25.8637 -170.408)
(5867.71 -262.524 -22.3004 -367.793 22.4797 1183.69)
(6031.46 -255.252 -22.7131 -59.9302 7.60871 2547.09)
(-1026.98 -284.878 -59.5298 5861.43 -5.10541 -1487.81)
(-682.947 -278.154 -97.902 5958.62 -7.00311 -141.495)
(-357.522 -270.497 -95.4314 6070.58 -6.73476 1169.91)
(-65.9244 -262.565 -54.0303 6204.82 -4.34317 2483.38)
(-937.556 -806.001 -60.1219 5796.29 -8.17368 -1462.34)
(-601.085 -778.343 -97.8968 5881.43 -11.9482 -121.61)
(-281.686 -752.5 -94.9024 5987.33 -11.0168 1187.03)
(2.99289 -729.835 -53.0854 6106.5 -5.53438 2495.19)
(-773.824 -1324.3 -59.2735 5625.16 -13.4016 -1463.57)
(-441.349 -1275.13 -96.7873 5720.14 -19.8575 -120.923)
(-126.75 -1232.68 -93.9201 5830.76 -18.3962 1187.8)
(156.355 -1200.02 -52.6589 5957.11 -9.3094 2497.71)
(-527.343 -1808.54 -58.117 5379.16 -18.2868 -1462.89)
(-204.274 -1741.36 -95.1462 5482.71 -27.5029 -120.273)
(102.927 -1683.51 -92.4361 5601.16 -25.6244 1188.77)
(379.77 -1639.27 -51.9617 5733.57 -13.0943 2498.81)
(-208.175 -2248.48 -56.7032 5060.34 -22.8603 -1462.63)
(103.17 -2164.88 -92.992 5175.49 -34.9109 -119.754)
(400.285 -2092.95 -90.4305 5303.95 -32.7332 1189.51)
(669.322 -2037.95 -50.9676 5444.05 -16.9288 2499.8)
(175.968 -2633.26 -55.0719 4676.73 -27.1533 -1462.56)
(473.137 -2535.24 -90.3303 4805.89 -42.0893 -119.411)
(758.033 -2450.89 -87.8816 4946.4 -39.7261 1190.09)
(1017.68 -2386.38 -49.6322 5095.71 -20.8307 2500.63)
(615.664 -2953.4 -53.2484 4237.69 -31.2089 -1462.59)
(896.55 -2843.27 -87.1557 4382.92 -49.0383 -119.181)
(1167.4 -2748.5 -84.7606 4537.26 -46.585 1190.54)
(1416.26 -2675.99 -47.9054 4697.14 -24.7881 2501.33)
(1100.15 -3200.97 -51.2306 3753.95 -35.0907 -1462.64)
(1363.04 -3081.37 -83.4464 3916.93 -55.7569 -119.01)
(1618.34 -2978.43 -81.0333 4086.57 -53.2765 1190.89)
(1855.25 -2899.67 -45.7416 4258.14 -28.7631 2501.87)
(1617.58 -3369.83 -48.9662 3237.33 -38.8884 -1462.62)
(1861.23 -3243.59 -79.152 3419.38 -62.2408 -118.833)
(2099.78 -3134.97 -76.6615 3605.42 -59.7493 1191.14)
(2323.81 -3051.87 -43.108 3789.52 -32.6924 2502.22)
(2156.16 -3455.86 -46.1759 2700.87 -42.6839 -1462.12)
(2378.85 -3325.83 -74.1584 2902.57 -68.4446 -118.611)
(2599.73 -3214.22 -71.6085 3105.73 -65.9152 1191.31)
(2810.34 -3128.87 -40.0007 3302.91 -36.4832 2502.39)
(2700.87 -3455.86 -42.6845 2156.16 -46.1753 -1462.12)
(2902.57 -3325.83 -68.4451 2378.85 -74.1579 -118.612)
(3105.73 -3214.22 -65.9157 2599.73 -71.608 1191.31)
(3302.91 -3128.87 -36.4837 2810.34 -40.0002 2502.39)
(3237.33 -3369.84 -38.889 1617.58 -48.9657 -1462.62)
(3419.38 -3243.59 -62.2413 1861.23 -79.1515 -118.833)
(3605.41 -3134.97 -59.7499 2099.78 -76.6611 1191.14)
(3789.52 -3051.87 -32.6929 2323.81 -43.1075 2502.22)
(3753.94 -3200.97 -35.0913 1100.15 -51.2301 -1462.64)
(3916.93 -3081.37 -55.7574 1363.04 -83.446 -119.011)
(4086.56 -2978.43 -53.277 1618.34 -81.0329 1190.89)
(4258.14 -2899.67 -28.7635 1855.25 -45.7412 2501.87)
(4237.69 -2953.4 -31.2094 615.658 -53.248 -1462.6)
(4382.91 -2843.27 -49.0388 896.547 -87.1553 -119.182)
(4537.26 -2748.5 -46.5855 1167.4 -84.7602 1190.54)
(4697.14 -2676 -24.7885 1416.26 -47.9051 2501.33)
(4676.73 -2633.27 -27.1539 175.959 -55.0715 -1462.57)
(4805.89 -2535.24 -42.0898 473.131 -90.3299 -119.412)
(4946.4 -2450.89 -39.7265 758.031 -87.8813 1190.09)
(5095.71 -2386.38 -20.831 1017.68 -49.6319 2500.64)
(5060.34 -2248.49 -22.8607 -208.185 -56.7028 -1462.64)
(5175.49 -2164.89 -34.9113 103.163 -92.9917 -119.756)
(5303.95 -2092.95 -32.7336 400.282 -90.4302 1189.51)
(5444.05 -2037.95 -16.9291 669.321 -50.9674 2499.8)
(5379.16 -1808.55 -18.2872 -527.356 -58.1167 -1462.9)
(5482.7 -1741.37 -27.5033 -204.282 -95.1459 -120.274)
(5601.16 -1683.51 -25.6247 102.922 -92.4358 1188.77)
(5733.57 -1639.27 -13.0945 379.769 -51.9614 2498.81)
(5625.15 -1324.31 -13.4019 -773.838 -59.2732 -1463.57)
(5720.13 -1275.13 -19.8578 -441.358 -96.7871 -120.925)
(5830.76 -1232.68 -18.3964 -126.755 -93.9199 1187.8)
(5957.11 -1200.02 -9.30958 156.354 -52.6587 2497.71)
(5796.28 -806.003 -8.17388 -937.572 -60.1217 -1462.35)
(5881.43 -778.345 -11.9484 -601.096 -97.8966 -121.612)
(5987.33 -752.501 -11.0169 -281.691 -94.9022 1187.03)
(6106.5 -729.836 -5.53448 2.9914 -53.0852 2495.19)
(5861.43 -284.879 -5.10549 -1027 -59.5296 -1487.81)
(5958.62 -278.155 -7.00317 -682.958 -97.9017 -141.497)
(6070.58 -270.498 -6.73481 -357.528 -95.4312 1169.91)
(6204.82 -262.566 -4.34321 -65.926 -54.0301 2483.38)
(-969.485 -279.555 -119.965 5783.53 11.9051 -1250.82)
(-643.348 -271.651 -194.144 5838.86 7.97707 -60.0643)
(-338.2 -262.917 -186.911 5909.77 8.43687 1098.74)
(-64.742 -253.91 -102.397 6003.73 12.9475 2258.39)