/*--------------------------------*- C++ -*----------------------------------*\
| =========                 |                                                 |
| \\      /  F ield         | foam-extend: Open Source CFD                    |
|  \\    /   O peration     | Version:     3.1                                |
|   \\  /    A nd           | Web:         http://www.extend-project.de       |
|    \\/     M anipulation  |                                                 |
\*---------------------------------------------------------------------------*/
FoamFile
{
    version     2.0;
    format      ascii;
    class       volScalarField;
    location    "0.0015";
    object      sigmaEq;
}
// * * * * * * * * * * * * * * * * * * * * * * * * * * * * * * * * * * * * * //

dimensions      [1 -1 -2 0 0 0 0];

internalField   nonuniform List<scalar> 
6400
(
5400.08
3980.46
3554.12
4335.89
5365.32
3962.98
3553.69
4363.94
5362.92
3960.94
3552.75
4364.26
5361.8
3960.2
3552.29
4363.95
5361.34
3959.87
3551.98
4363.49
5361.21
3959.7
3551.67
4362.91
5361.25
3959.56
3551.29
4362.24
5361.36
3959.36
3550.82
4361.53
5361.47
3959.09
3550.32
4360.88
5361.46
3958.85
3549.95
4360.47
5361.46
3958.85
3549.95
4360.47
5361.47
3959.09
3550.32
4360.88
5361.36
3959.36
3550.82
4361.53
5361.25
3959.56
3551.29
4362.24
5361.21
3959.71
3551.67
4362.91
5361.34
3959.87
3551.98
4363.49
5361.8
3960.2
3552.29
4363.95
5362.92
3960.95
3552.75
4364.26
5365.33
3962.98
3553.7
4363.94
5400.08
3980.47
3554.12
4335.89
3629.93
3561.63
3183.42
2425.7
3631.99
3556.93
3172.57
2415.44
3629.55
3555.22
3171.54
2415.67
3628.37
3554.52
3171.06
2415.45
3627.72
3554.02
3170.62
2415.02
3627.35
3553.64
3170.21
2414.47
3627.17
3553.33
3169.8
2413.88
3627.14
3553.04
3169.39
2413.3
3627.25
3552.75
3169
2412.8
3627.63
3552.55
3168.73
2412.49
3627.63
3552.55
3168.73
2412.49
3627.25
3552.75
3169
2412.8
3627.14
3553.04
3169.39
2413.3
3627.17
3553.33
3169.8
2413.88
3627.35
3553.64
3170.21
2414.47
3627.72
3554.02
3170.63
2415.02
3628.37
3554.53
3171.06
2415.45
3629.56
3555.22
3171.54
2415.67
3632
3556.94
3172.57
2415.45
3629.93
3561.63
3183.42
2425.7
3910.03
3758.65
3393.08
2816.1
3918.27
3754.5
3380.72
2798.57
3917.07
3754.19
3380.02
2798.91
3916.5
3754.09
3380.01
2799.06
3916.06
3753.88
3379.94
2799.13
3915.71
3753.63
3379.79
2799.1
3915.5
3753.42
3379.61
2798.98
3915.49
3753.28
3379.42
2798.78
3915.77
3753.21
3379.24
2798.52
3916.66
3753.26
3379.11
2798.31
3916.66
3753.26
3379.11
2798.31
3915.77
3753.21
3379.24
2798.52
3915.49
3753.28
3379.42
2798.78
3915.5
3753.43
3379.61
2798.98
3915.71
3753.64
3379.79
2799.1
3916.07
3753.88
3379.94
2799.13
3916.51
3754.09
3380.01
2799.06
3917.07
3754.19
3380.03
2798.91
3918.28
3754.51
3380.73
2798.57
3910.03
3758.66
3393.08
2816.1
5181.03
4703.93
4267.34
3911.77
5183.59
4697.56
4256.71
3896.02
5182.51
4697.58
4256.32
3897.25
5182.16
4697.5
4256.32
3897.69
5181.95
4697.43
4256.39
3897.97
5181.86
4697.4
4256.45
3898.17
5181.91
4697.42
4256.48
3898.28
5182.17
4697.53
4256.5
3898.27
5182.7
4697.72
4256.49
3898.15
5183.81
4697.96
4256.47
3898.01
5183.81
4697.96
4256.47
3898.01
5182.7
4697.72
4256.49
3898.15
5182.17
4697.53
4256.5
3898.27
5181.92
4697.43
4256.48
3898.28
5181.86
4697.4
4256.45
3898.17
5181.95
4697.43
4256.4
3897.98
5182.16
4697.5
4256.33
3897.69
5182.52
4697.58
4256.33
3897.26
5183.59
4697.56
4256.71
3896.03
5181.04
4703.93
4267.35
3911.77
6283.01
5614.06
5098.11
4788.76
6283.04
5606.86
5088.26
4772.83
6282.05
5607.04
5088.01
4774.58
6281.74
5606.8
5087.81
4775.05
6281.66
5606.72
5087.83
4775.33
6281.8
5606.81
5087.93
4775.54
6282.15
5607.03
5088.05
4775.69
6282.7
5607.34
5088.18
4775.74
6283.46
5607.71
5088.28
4775.67
6284.7
5608.06
5088.33
4775.57
6284.7
5608.06
5088.33
4775.57
6283.46
5607.71
5088.28
4775.67
6282.7
5607.34
5088.18
4775.74
6282.16
5607.03
5088.05
4775.69
6281.81
5606.82
5087.93
4775.54
6281.66
5606.73
5087.83
4775.33
6281.74
5606.81
5087.82
4775.05
6282.06
5607.05
5088.01
4774.58
6283.05
5606.86
5088.26
4772.83
6283.01
5614.07
5098.12
4788.76
6946.66
6203.76
5641.28
5312.09
6946.88
6196.87
5631.83
5295.23
6946.15
6197.28
5631.64
5297.11
6946.01
6197
5631.3
5297.45
6946.13
6196.96
5631.22
5297.56
6946.56
6197.16
5631.29
5297.65
6947.23
6197.53
5631.43
5297.7
6948.08
6198.01
5631.61
5297.7
6949.07
6198.53
5631.76
5297.61
6950.42
6198.98
5631.85
5297.5
6950.42
6198.98
5631.85
5297.5
6949.07
6198.53
5631.76
5297.61
6948.08
6198.02
5631.61
5297.7
6947.24
6197.54
5631.43
5297.7
6946.57
6197.17
5631.29
5297.65
6946.14
6196.96
5631.22
5297.56
6946.01
6197.01
5631.31
5297.45
6946.16
6197.28
5631.65
5297.11
6946.88
6196.87
5631.83
5295.23
6946.66
6203.77
5641.28
5312.1
7147.81
6408.47
5837.98
5481.86
7149.39
6402.45
5828.94
5464.36
7149.04
6403.08
5828.76
5466.06
7149.23
6402.93
5828.35
5466.15
7149.7
6403.02
5828.19
5465.99
7150.51
6403.38
5828.2
5465.81
7151.56
6403.92
5828.32
5465.63
7152.74
6404.57
5828.49
5465.46
7153.99
6405.22
5828.65
5465.26
7155.45
6405.74
5828.75
5465.11
7155.45
6405.74
5828.75
5465.11
7153.99
6405.22
5828.65
5465.26
7152.75
6404.57
5828.49
5465.46
7151.56
6403.93
5828.32
5465.63
7150.52
6403.38
5828.2
5465.81
7149.71
6403.02
5828.19
5465.99
7149.24
6402.94
5828.35
5466.15
7149.05
6403.08
5828.77
5466.06
7149.4
6402.45
5828.94
5464.36
7147.81
6408.48
5837.99
5481.86
6918.12
6238.02
5695.29
5324.55
6921.5
6233.15
5686.77
5307.04
6921.54
6233.96
5686.54
5308.3
6922.17
6234.04
5686.1
5308.03
6923.11
6234.34
5685.88
5307.49
6924.37
6234.9
5685.82
5306.92
6925.85
6235.63
5685.87
5306.39
6927.4
6236.43
5685.99
5305.91
6928.92
6237.21
5686.12
5305.51
6930.49
6237.79
5686.22
5305.25
6930.49
6237.79
5686.22
5305.25
6928.92
6237.21
5686.12
5305.51
6927.41
6236.44
5685.99
5305.91
6925.85
6235.63
5685.87
5306.39
6924.37
6234.9
5685.83
5306.92
6923.11
6234.34
5685.88
5307.49
6922.18
6234.04
5686.1
5308.03
6921.55
6233.96
5686.55
5308.3
6921.51
6233.15
5686.77
5307.04
6918.12
6238.02
5695.3
5324.55
6312.24
5736.61
5252.97
4882.42
6317.66
5733.13
5245.2
4865.58
6318.08
5734.05
5244.86
4866.19
6319.17
5734.4
5244.41
4865.47
6320.58
5734.93
5244.14
4864.48
6322.29
5735.68
5243.99
4863.43
6324.19
5736.58
5243.93
4862.42
6326.1
5737.51
5243.94
4861.53
6327.87
5738.38
5244
4860.82
6329.52
5739.01
5244.05
4860.41
6329.52
5739.01
5244.05
4860.41
6327.87
5738.38
5244
4860.82
6326.1
5737.52
5243.94
4861.53
6324.19
5736.58
5243.93
4862.43
6322.29
5735.69
5243.99
4863.44
6320.58
5734.93
5244.14
4864.48
6319.18
5734.41
5244.42
4865.47
6318.09
5734.06
5244.86
4866.19
6317.67
5733.13
5245.2
4865.59
6312.24
5736.61
5252.98
4882.42
5414.56
4975.81
4575.84
4220.98
5422.2
4973.98
4569.15
4205.62
5422.95
4974.95
4568.68
4205.47
5424.43
4975.53
4568.24
4204.32
5426.21
4976.22
4567.9
4202.89
5428.26
4977.08
4567.62
4201.38
5430.45
4978.05
4567.41
4199.89
5432.62
4979.03
4567.27
4198.55
5434.56
4979.91
4567.21
4197.49
5436.22
4980.52
4567.19
4196.89
5436.22
4980.53
4567.19
4196.89
5434.56
4979.91
4567.21
4197.49
5432.62
4979.03
4567.27
4198.55
5430.46
4978.05
4567.41
4199.89
5428.26
4977.09
4567.62
4201.38
5426.21
4976.22
4567.9
4202.89
5424.43
4975.53
4568.24
4204.32
5422.96
4974.95
4568.69
4205.47
5422.21
4973.98
4569.15
4205.62
5414.57
4975.82
4575.84
4220.98
4362.7
4055.13
3749.04
3439.36
4372.09
4054.93
3743.94
3426.88
4373.06
4055.83
3743.35
3426.08
4374.76
4056.5
3742.88
3424.69
4376.74
4057.19
3742.42
3423.07
4378.94
4057.98
3741.97
3421.31
4381.25
4058.83
3741.55
3419.54
4383.48
4059.68
3741.2
3417.92
4385.44
4060.42
3740.95
3416.63
4386.99
4060.94
3740.83
3415.9
4386.99
4060.94
3740.83
3415.9
4385.44
4060.42
3740.95
3416.63
4383.48
4059.68
3741.2
3417.92
4381.25
4058.83
3741.55
3419.54
4378.95
4057.98
3741.97
3421.31
4376.75
4057.19
3742.42
3423.07
4374.77
4056.5
3742.88
3424.69
4373.07
4055.84
3743.35
3426.08
4372.1
4054.93
3743.95
3426.88
4362.7
4055.13
3749.04
3439.36
3356.57
3096.88
2868.53
2664.35
3365.44
3097.58
2865.63
2657.2
3366.43
3098.24
2864.91
2656.13
3368.13
3098.78
2864.37
2654.91
3370.1
3099.22
2863.73
2653.5
3372.22
3099.69
2863.02
2651.93
3374.4
3100.17
2862.32
2650.31
3376.46
3100.66
2861.69
2648.79
3378.23
3101.08
2861.2
2647.55
3379.54
3101.38
2860.94
2646.83
3379.54
3101.38
2860.94
2646.83
3378.23
3101.08
2861.2
2647.55
3376.47
3100.66
2861.69
2648.79
3374.4
3100.18
2862.32
2650.31
3372.22
3099.69
2863.02
2651.93
3370.1
3099.23
2863.73
2653.5
3368.14
3098.78
2864.37
2654.91
3366.44
3098.24
2864.91
2656.13
3365.45
3097.59
2865.63
2657.2
3356.58
3096.88
2868.53
2664.35
2593.85
2238.19
2039.55
2006.62
2598.35
2238.29
2039.23
2007.03
2599.06
2238.56
2038.45
2006.15
2600.46
2238.84
2037.86
2005.41
2602.12
2238.96
2037.08
2004.54
2603.9
2239.03
2036.18
2003.52
2605.69
2239.08
2035.26
2002.41
2607.35
2239.14
2034.4
2001.32
2608.71
2239.18
2033.72
2000.39
2609.65
2239.23
2033.33
1999.83
2609.65
2239.23
2033.33
1999.83
2608.71
2239.18
2033.72
2000.39
2607.35
2239.14
2034.4
2001.32
2605.69
2239.09
2035.26
2002.41
2603.9
2239.03
2036.18
2003.52
2602.12
2238.97
2037.08
2004.54
2600.46
2238.85
2037.86
2005.41
2599.06
2238.56
2038.45
2006.15
2598.36
2238.3
2039.23
2007.03
2593.86
2238.2
2039.55
2006.62
2116.63
1615.86
1388.13
1498.38
2115.6
1614.23
1389.74
1504.78
2115.84
1614.21
1389.08
1504.19
2116.69
1614.44
1388.68
1503.81
2117.8
1614.54
1388.13
1503.34
2119
1614.59
1387.46
1502.74
2120.21
1614.61
1386.74
1502.04
2121.31
1614.62
1386.05
1501.32
2122.18
1614.59
1385.49
1500.69
2122.75
1614.57
1385.16
1500.3
2122.75
1614.58
1385.16
1500.3
2122.18
1614.59
1385.49
1500.69
2121.31
1614.62
1386.06
1501.32
2120.21
1614.61
1386.74
1502.04
2119.01
1614.59
1387.46
1502.73
2117.81
1614.54
1388.13
1503.34
2116.7
1614.44
1388.69
1503.81
2115.85
1614.21
1389.08
1504.19
2115.61
1614.24
1389.74
1504.78
2116.64
1615.87
1388.13
1498.38
1778.67
1285.87
1023.7
1100.94
1775.83
1283.4
1024.91
1107.4
1775.76
1283.41
1024.54
1106.76
1776.11
1283.87
1024.62
1106.34
1776.65
1284.31
1024.69
1105.86
1777.25
1284.77
1024.72
1105.28
1777.88
1285.21
1024.72
1104.63
1778.47
1285.61
1024.7
1103.98
1778.95
1285.9
1024.66
1103.43
1779.28
1286.06
1024.62
1103.1
1779.28
1286.06
1024.62
1103.1
1778.95
1285.9
1024.66
1103.43
1778.47
1285.61
1024.7
1103.98
1777.88
1285.21
1024.72
1104.63
1777.26
1284.77
1024.72
1105.28
1776.66
1284.32
1024.69
1105.86
1776.12
1283.87
1024.62
1106.34
1775.76
1283.42
1024.54
1106.76
1775.84
1283.41
1024.91
1107.4
1778.68
1285.87
1023.7
1100.94
1461.48
1132.05
896.944
808.173
1460.64
1130.38
896.139
809.498
1460.52
1130.52
895.933
808.669
1460.6
1131.06
896.267
808.159
1460.78
1131.63
896.694
807.677
1460.97
1132.24
897.155
807.158
1461.19
1132.86
897.613
806.619
1461.44
1133.43
898.022
806.106
1461.68
1133.88
898.327
805.683
1461.91
1134.14
898.491
805.435
1461.91
1134.14
898.491
805.435
1461.68
1133.88
898.328
805.683
1461.44
1133.43
898.022
806.106
1461.19
1132.86
897.614
806.619
1460.97
1132.24
897.156
807.158
1460.78
1131.63
896.695
807.677
1460.61
1131.06
896.267
808.159
1460.52
1130.52
895.933
808.669
1460.64
1130.39
896.14
809.498
1461.48
1132.05
896.945
808.173
1183.94
1012.85
843.03
681.599
1185.6
1012.15
841.246
678.67
1185.56
1012.28
841.069
678.152
1185.59
1012.66
841.344
678.025
1185.63
1013.03
841.717
678.046
1185.66
1013.42
842.129
678.12
1185.7
1013.82
842.543
678.203
1185.78
1014.19
842.92
678.27
1185.92
1014.5
843.21
678.308
1186.11
1014.7
843.37
678.319
1186.11
1014.7
843.37
678.319
1185.92
1014.5
843.21
678.308
1185.78
1014.19
842.921
678.27
1185.7
1013.82
842.544
678.203
1185.66
1013.42
842.129
678.12
1185.64
1013.04
841.718
678.045
1185.59
1012.66
841.345
678.025
1185.57
1012.29
841.07
678.152
1185.6
1012.15
841.247
678.67
1183.95
1012.86
843.031
681.599
995.686
900.956
794.18
691.033
998.203
900.678
792.714
688.252
998.219
900.784
792.606
688.281
998.262
900.995
792.813
688.591
998.301
901.185
793.099
689.058
998.314
901.37
793.413
689.604
998.329
901.555
793.727
690.157
998.375
901.736
794.012
690.648
998.48
901.9
794.231
691.012
998.669
902.015
794.353
691.204
998.669
902.015
794.353
691.204
998.481
901.9
794.231
691.012
998.377
901.737
794.012
690.648
998.332
901.556
793.728
690.158
998.318
901.373
793.414
689.604
998.306
901.188
793.101
689.058
998.268
900.998
792.814
688.591
998.225
900.788
792.607
688.281
998.209
900.682
792.716
688.252
995.692
900.959
794.182
691.033
878.266
811.171
746.018
701.665
880.597
811.079
745.118
699.84
880.636
811.203
745.086
700.039
880.679
811.356
745.259
700.375
880.725
811.493
745.497
700.8
880.755
811.627
745.756
701.274
880.787
811.762
746.013
701.743
880.844
811.896
746.243
702.152
880.95
812.019
746.418
702.45
881.135
812.11
746.515
702.605
881.135
812.111
746.515
702.605
880.952
812.02
746.419
702.45
880.847
811.897
746.244
702.152
880.791
811.764
746.014
701.743
880.76
811.63
745.758
701.274
880.73
811.496
745.498
700.8
880.685
811.36
745.26
700.374
880.643
811.207
745.087
700.039
880.605
811.083
745.12
699.84
878.274
811.176
746.02
701.666
787.598
734.004
685.464
652.593
789.638
734.023
684.78
650.893
789.715
734.158
684.737
650.967
789.765
734.277
684.826
651.097
789.823
734.379
684.958
651.253
789.876
734.482
685.1
651.419
789.935
734.585
685.237
651.572
790.012
734.686
685.355
651.691
790.122
734.775
685.44
651.765
790.284
734.84
685.484
651.794
790.285
734.841
685.484
651.794
790.124
734.776
685.441
651.765
790.015
734.688
685.356
651.692
789.939
734.588
685.239
651.572
789.881
734.486
685.102
651.419
789.83
734.383
684.96
651.253
789.773
734.281
684.828
651.097
789.723
734.162
684.739
650.967
789.646
734.028
684.782
650.893
787.607
734.009
685.467
652.593
712.602
657.169
606.436
560.828
714.154
657.104
605.681
558.909
714.273
657.198
605.562
558.791
714.35
657.266
605.537
558.72
714.44
657.31
605.531
558.64
714.531
657.349
605.522
558.546
714.627
657.384
605.504
558.438
714.73
657.416
605.48
558.321
714.843
657.443
605.452
558.211
714.973
657.465
605.431
558.14
714.974
657.465
605.431
558.14
714.845
657.444
605.452
558.212
714.734
657.418
605.481
558.322
714.632
657.387
605.506
558.439
714.538
657.353
605.523
558.547
714.448
657.315
605.533
558.64
714.359
657.271
605.539
558.72
714.283
657.204
605.564
558.791
714.165
657.11
605.683
558.909
712.613
657.175
606.438
560.829
655.857
586.451
524.969
465.279
656.677
586.107
524.057
463.264
656.802
586.141
523.873
463.024
656.888
586.169
523.779
462.859
656.997
586.174
523.695
462.681
657.11
586.171
523.601
462.485
657.225
586.163
523.501
462.278
657.337
586.152
523.4
462.073
657.443
586.14
523.313
461.897
657.542
586.134
523.259
461.791
657.542
586.135
523.259
461.791
657.445
586.141
523.314
461.897
657.342
586.154
523.402
462.073
657.231
586.166
523.502
462.278
657.118
586.175
523.603
462.486
657.006
586.179
523.697
462.681
656.899
586.175
523.782
462.859
656.814
586.148
523.876
463.024
656.689
586.114
524.06
463.264
655.869
586.458
524.972
465.279
608.912
530.261
461.069
394.253
609.12
529.656
460.051
392.335
609.222
529.648
459.856
392.073
609.282
529.662
459.762
391.922
609.368
529.663
459.684
391.77
609.459
529.66
459.602
391.61
609.552
529.654
459.516
391.442
609.642
529.645
459.432
391.277
609.723
529.635
459.359
391.137
609.793
529.629
459.314
391.052
609.794
529.629
459.314
391.052
609.726
529.637
459.36
391.137
609.647
529.648
459.433
391.278
609.559
529.658
459.518
391.442
609.467
529.665
459.604
391.61
609.378
529.669
459.687
391.77
609.293
529.669
459.765
391.922
609.235
529.655
459.86
392.073
609.133
529.663
460.055
392.335
608.925
530.269
461.072
394.253
560.853
486.558
419.582
355.133
560.791
485.873
418.591
353.461
560.869
485.852
418.43
353.251
560.889
485.866
418.372
353.167
560.929
485.873
418.338
353.098
560.974
485.88
418.307
353.031
561.022
485.887
418.275
352.961
561.071
485.894
418.243
352.889
561.119
485.897
418.213
352.824
561.164
485.898
418.193
352.784
561.165
485.899
418.194
352.784
561.122
485.899
418.214
352.825
561.076
485.897
418.244
352.889
561.029
485.892
418.277
352.961
560.982
485.885
418.309
353.031
560.94
485.879
418.341
353.098
560.901
485.873
418.375
353.167
560.882
485.86
418.433
353.251
560.805
485.881
418.594
353.461
560.868
486.567
419.585
355.133
509.602
448.718
392.184
338.245
509.524
448.116
391.345
336.924
509.592
448.102
391.232
336.787
509.583
448.116
391.209
336.77
509.587
448.125
391.211
336.773
509.591
448.134
391.218
336.783
509.6
448.145
391.226
336.793
509.614
448.155
391.23
336.795
509.636
448.163
391.23
336.79
509.663
448.168
391.228
336.784
509.664
448.169
391.228
336.784
509.639
448.165
391.231
336.79
509.619
448.158
391.232
336.795
509.607
448.149
391.228
336.793
509.6
448.139
391.221
336.783
509.598
448.131
391.214
336.773
509.596
448.124
391.213
336.77
509.606
448.11
391.236
336.787
509.539
448.125
391.349
336.924
509.617
448.727
392.188
338.244
459.314
413.214
369.622
328.977
459.308
412.758
368.986
328.012
459.378
412.756
368.913
327.932
459.359
412.771
368.911
327.953
459.345
412.778
368.929
327.991
459.33
412.784
368.951
328.036
459.319
412.791
368.972
328.078
459.315
412.799
368.99
328.111
459.322
412.805
369
328.131
459.338
412.808
369.003
328.139
459.34
412.809
369.004
328.139
459.325
412.807
369.001
328.132
459.321
412.802
368.991
328.112
459.327
412.796
368.975
328.078
459.34
412.79
368.954
328.036
459.357
412.785
368.932
327.991
459.372
412.779
368.915
327.953
459.392
412.764
368.917
327.932
459.323
412.766
368.99
328.012
459.329
413.223
369.626
328.976
413.883
379.54
347.023
317.533
413.932
379.213
346.564
316.842
414.007
379.221
346.517
316.792
413.99
379.238
346.523
316.824
413.975
379.243
346.544
316.866
413.957
379.247
346.565
316.911
413.942
379.25
346.585
316.952
413.933
379.253
346.6
316.984
413.934
379.254
346.609
317.003
413.945
379.255
346.611
317.011
413.946
379.256
346.612
317.011
413.937
379.256
346.61
317.004
413.938
379.256
346.602
316.984
413.949
379.255
346.587
316.953
413.966
379.253
346.568
316.911
413.986
379.25
346.547
316.866
414.003
379.245
346.526
316.824
414.021
379.229
346.521
316.791
413.947
379.221
346.567
316.842
413.899
379.548
347.027
317.533
374.262
347.735
322.921
300.767
374.321
347.494
322.582
300.251
374.396
347.507
322.548
300.21
374.385
347.522
322.554
300.239
374.374
347.527
322.571
300.27
374.361
347.529
322.586
300.302
374.349
347.529
322.599
300.328
374.341
347.528
322.606
300.346
374.341
347.526
322.609
300.354
374.348
347.524
322.608
300.357
374.349
347.525
322.608
300.357
374.344
347.528
322.61
300.355
374.346
347.532
322.608
300.346
374.356
347.534
322.601
300.328
374.37
347.535
322.589
300.302
374.385
347.534
322.574
300.271
374.397
347.53
322.558
300.239
374.41
347.515
322.552
300.21
374.335
347.502
322.586
300.251
374.277
347.744
322.925
300.767
339.249
317.519
297.527
279.649
339.284
317.324
297.258
279.236
339.356
317.336
297.23
279.196
339.348
317.349
297.233
279.217
339.341
317.353
297.244
279.237
339.332
317.353
297.253
279.255
339.324
317.351
297.257
279.266
339.318
317.348
297.258
279.271
339.317
317.343
297.255
279.271
339.322
317.339
297.252
279.268
339.323
317.34
297.252
279.268
339.32
317.345
297.256
279.271
339.323
317.351
297.26
279.272
339.331
317.355
297.26
279.267
339.341
317.359
297.255
279.255
339.352
317.359
297.247
279.238
339.36
317.356
297.236
279.218
339.369
317.343
297.233
279.197
339.297
317.332
297.262
279.237
339.263
317.528
297.531
279.65
307.119
288.52
271.634
256.396
307.121
288.348
271.408
256.051
307.186
288.357
271.382
256.011
307.179
288.367
271.382
256.026
307.174
288.369
271.388
256.038
307.167
288.368
271.392
256.047
307.16
288.364
271.392
256.05
307.154
288.359
271.389
256.048
307.152
288.353
271.383
256.043
307.154
288.348
271.378
256.038
307.155
288.348
271.379
256.038
307.155
288.354
271.384
256.043
307.158
288.362
271.391
256.049
307.166
288.368
271.395
256.051
307.174
288.373
271.395
256.048
307.183
288.375
271.391
256.039
307.19
288.374
271.385
256.027
307.198
288.364
271.385
256.012
307.133
288.355
271.412
256.052
307.132
288.527
271.638
256.397
276.659
260.531
246.004
232.815
276.633
260.375
245.809
232.525
276.691
260.381
245.784
232.487
276.683
260.389
245.783
232.498
276.677
260.389
245.787
232.507
276.67
260.387
245.789
232.512
276.662
260.382
245.787
232.513
276.656
260.376
245.782
232.509
276.652
260.369
245.775
232.502
276.652
260.364
245.77
232.497
276.653
260.364
245.77
232.498
276.655
260.371
245.776
232.503
276.66
260.378
245.783
232.51
276.667
260.386
245.789
232.514
276.676
260.391
245.791
232.514
276.685
260.394
245.79
232.508
276.693
260.395
245.786
232.5
276.701
260.388
245.788
232.489
276.644
260.382
245.812
232.526
276.67
260.538
246.007
232.816
247.412
233.563
221.139
209.87
247.372
233.425
220.974
209.631
247.422
233.428
220.952
209.598
247.413
233.434
220.95
209.607
247.406
233.433
220.953
209.614
247.397
233.43
220.954
209.619
247.389
233.424
220.951
209.619
247.381
233.418
220.946
209.616
247.376
233.411
220.94
209.61
247.375
233.405
220.935
209.606
247.375
233.406
220.936
209.606
247.378
233.412
220.941
209.611
247.384
233.42
220.948
209.616
247.393
233.428
220.953
209.62
247.403
233.434
220.956
209.62
247.413
233.438
220.956
209.616
247.421
233.439
220.953
209.609
247.431
233.434
220.956
209.599
247.381
233.431
220.977
209.633
247.422
233.569
221.143
209.871
219.471
207.783
197.332
187.915
219.427
207.664
197.194
187.723
219.471
207.667
197.176
187.694
219.462
207.67
197.174
187.703
219.453
207.669
197.177
187.71
219.444
207.665
197.177
187.714
219.434
207.659
197.174
187.714
219.426
207.653
197.17
187.712
219.42
207.645
197.164
187.707
219.417
207.64
197.16
187.704
219.417
207.641
197.16
187.704
219.421
207.647
197.165
187.708
219.428
207.654
197.171
187.713
219.438
207.662
197.176
187.716
219.448
207.668
197.179
187.715
219.459
207.673
197.179
187.711
219.468
207.675
197.177
187.705
219.478
207.671
197.179
187.696
219.435
207.669
197.198
187.725
219.479
207.788
197.335
187.917
193.148
183.425
174.769
167.051
193.106
183.325
174.658
166.9
193.144
183.327
174.643
166.875
193.135
183.33
174.642
166.884
193.126
183.328
174.643
166.89
193.117
183.324
174.643
166.893
193.107
183.318
174.641
166.894
193.098
183.311
174.636
166.891
193.092
183.304
174.631
166.888
193.088
183.299
174.627
166.885
193.089
183.3
174.627
166.885
193.093
183.305
174.632
166.888
193.1
183.313
174.637
166.893
193.11
183.32
174.642
166.895
193.12
183.326
174.645
166.895
193.131
183.331
174.646
166.891
193.14
183.333
174.644
166.886
193.15
183.331
174.646
166.877
193.112
183.329
174.661
166.902
193.155
183.429
174.772
167.053
168.736
160.708
153.609
147.353
168.697
160.625
153.52
147.236
168.731
160.627
153.508
147.215
168.722
160.63
153.507
147.222
168.714
160.627
153.508
147.227
168.705
160.623
153.508
147.23
168.696
160.617
153.505
147.23
168.688
160.611
153.501
147.228
168.681
160.604
153.496
147.224
168.677
160.6
153.492
147.222
168.677
160.6
153.492
147.222
168.682
160.605
153.496
147.225
168.689
160.612
153.502
147.229
168.698
160.619
153.506
147.232
168.708
160.625
153.509
147.232
168.718
160.63
153.51
147.229
168.726
160.632
153.509
147.224
168.735
160.631
153.511
147.217
168.702
160.629
153.523
147.238
168.741
160.711
153.612
147.355
146.412
139.792
133.99
128.936
146.377
139.725
133.919
128.845
146.406
139.726
133.909
128.827
146.398
139.728
133.908
128.833
146.391
139.726
133.909
128.837
146.383
139.722
133.908
128.839
146.374
139.716
133.905
128.839
146.366
139.71
133.901
128.836
146.36
139.704
133.896
128.833
146.356
139.7
133.893
128.831
146.356
139.7
133.893
128.831
146.361
139.705
133.897
128.834
146.367
139.711
133.902
128.837
146.376
139.718
133.906
128.84
146.385
139.723
133.909
128.841
146.394
139.728
133.91
128.839
146.401
139.73
133.91
128.835
146.409
139.729
133.911
128.829
146.38
139.727
133.921
128.847
146.416
139.795
133.992
128.938
126.231
120.763
116.017
111.929
126.2
120.708
115.96
111.858
126.226
120.709
115.952
111.842
126.219
120.711
115.951
111.848
126.213
120.709
115.951
111.851
126.205
120.705
115.95
111.852
126.198
120.7
115.947
111.851
126.19
120.694
115.943
111.848
126.184
120.688
115.939
111.845
126.181
120.685
115.936
111.843
126.181
120.685
115.936
111.843
126.185
120.689
115.94
111.846
126.191
120.695
115.944
111.849
126.199
120.701
115.948
111.852
126.207
120.706
115.951
111.853
126.214
120.71
115.953
111.852
126.221
120.712
115.953
111.849
126.228
120.711
115.954
111.844
126.203
120.71
115.962
111.859
126.235
120.766
116.018
111.931
108.167
103.64
99.7483
96.4332
108.14
103.594
99.7032
96.3775
108.161
103.595
99.6965
96.3645
108.156
103.596
99.6954
96.3689
108.15
103.594
99.6955
96.3713
108.144
103.591
99.6943
96.3718
108.137
103.586
99.6915
96.3705
108.13
103.581
99.6878
96.3678
108.125
103.576
99.6838
96.3647
108.122
103.573
99.6811
96.3626
108.122
103.573
99.6812
96.3628
108.125
103.576
99.6842
96.3652
108.131
103.582
99.6884
96.3686
108.138
103.587
99.6923
96.3715
108.145
103.592
99.6953
96.373
108.152
103.595
99.6967
96.3725
108.158
103.598
99.6967
96.3703
108.164
103.597
99.6979
96.3659
108.142
103.596
99.7046
96.3789
108.17
103.642
99.7498
96.4347
92.1393
88.3859
85.1909
82.4982
92.1149
88.348
85.1547
82.4544
92.1333
88.3492
85.1492
82.4433
92.1284
88.3499
85.1482
82.447
92.1236
88.3481
85.1481
82.4488
92.118
88.345
85.1468
82.449
92.1122
88.3409
85.1442
82.4475
92.1065
88.3363
85.1408
82.445
92.1017
88.3318
85.1372
82.4421
92.0986
88.3287
85.1348
82.4402
92.0987
88.3288
85.1349
82.4403
92.102
88.3321
85.1375
82.4425
92.107
88.3368
85.1412
82.4455
92.113
88.3416
85.1448
82.4482
92.1192
88.3458
85.1475
82.4498
92.1251
88.3491
85.1489
82.4497
92.1303
88.3511
85.1491
82.448
92.1357
88.3506
85.1502
82.4443
92.1175
88.3495
85.1558
82.4553
92.1421
88.3875
85.192
82.4992
78.0369
74.926
72.3023
70.115
78.0155
74.8947
72.2732
70.0805
78.0311
74.8957
72.2686
70.0713
78.0268
74.8963
72.2677
70.0743
78.0227
74.8946
72.2675
70.0756
78.018
74.8919
72.2663
70.0756
78.0129
74.8883
72.2639
70.0742
78.008
74.8843
72.2608
70.0718
78.0038
74.8803
72.2577
70.0693
78.001
74.8776
72.2556
70.0676
78.0011
74.8777
72.2557
70.0676
78.0041
74.8806
72.2579
70.0695
78.0086
74.8847
72.2612
70.0721
78.0139
74.8889
72.2644
70.0746
78.0193
74.8927
72.2668
70.076
78.0245
74.8956
72.2681
70.0761
78.0291
74.8974
72.2684
70.0748
78.0337
74.897
72.2693
70.0717
78.0185
74.8961
72.2739
70.081
78.04
74.9276
72.3031
70.1155
65.73
63.155
61.0022
59.2274
65.7115
63.1292
60.9788
59.2002
65.7246
63.13
60.975
59.1925
65.721
63.1304
60.9742
59.195
65.7175
63.129
60.974
59.196
65.7134
63.1266
60.9728
59.1958
65.7091
63.1235
60.9707
59.1945
65.7049
63.12
60.968
59.1924
65.7012
63.1166
60.9653
59.1902
65.6988
63.1142
60.9635
59.1887
65.699
63.1143
60.9635
59.1887
65.7017
63.1168
60.9655
59.1903
65.7056
63.1204
60.9683
59.1925
65.7103
63.1241
60.9711
59.1947
65.7151
63.1275
60.9732
59.196
65.7197
63.1301
60.9744
59.1961
65.7237
63.1317
60.9747
59.195
65.7278
63.1314
60.9755
59.1924
65.715
63.1307
60.9793
59.2001
65.7337
63.1567
61.0027
59.2273
55.0754
52.9476
51.1834
49.7452
55.0596
52.9263
51.1645
49.7238
55.0705
52.927
51.1614
49.7174
55.0674
52.9273
51.1608
49.7195
55.0645
52.9261
51.1605
49.7203
55.061
52.924
51.1595
49.7201
55.0574
52.9213
51.1577
49.7189
55.0538
52.9184
51.1554
49.717
55.0507
52.9155
51.153
49.7151
55.0487
52.9135
51.1514
49.7138
55.0488
52.9136
51.1515
49.7138
55.0513
52.9158
51.1531
49.7151
55.0548
52.9189
51.1556
49.717
55.0589
52.9221
51.1579
49.7188
55.0631
52.925
51.1598
49.7199
55.0672
52.9273
51.1609
49.72
55.0707
52.9288
51.1612
49.7191
55.0742
52.9286
51.1618
49.7169
55.0636
52.928
51.1649
49.7233
55.0797
52.9494
51.1838
49.7447
45.9214
44.166
42.7221
41.558
45.9079
44.1485
42.7069
41.5412
45.9171
44.1491
42.7044
41.5358
45.9145
44.1493
42.7039
41.5376
45.912
44.1483
42.7036
41.5382
45.9091
44.1465
42.7027
41.538
45.9061
44.1443
42.7012
41.5369
45.9031
44.1418
42.6992
41.5353
45.9005
44.1393
42.6972
41.5336
45.8988
44.1377
42.6959
41.5325
45.899
44.1378
42.6959
41.5325
45.9012
44.1397
42.6973
41.5335
45.9044
44.1424
42.6994
41.5351
45.908
44.1452
42.7014
41.5366
45.9117
44.1478
42.703
41.5376
45.9152
44.1498
42.704
41.5377
45.9183
44.151
42.7042
41.5369
45.9214
44.151
42.7048
41.535
45.9127
44.1505
42.7073
41.5403
45.9264
44.1681
42.7225
41.5571
38.1131
36.667
35.4864
34.5446
38.1017
36.6526
35.4742
34.5314
38.1093
36.6531
35.4722
34.527
38.1072
36.6534
35.4717
34.5285
38.1051
36.6525
35.4715
34.5289
38.1028
36.651
35.4707
34.5287
38.1003
36.6492
35.4694
34.5277
38.0978
36.647
35.4677
34.5263
38.0956
36.645
35.4661
34.5249
38.0943
36.6437
35.465
34.524
38.0946
36.6438
35.465
34.5239
38.0965
36.6455
35.4662
34.5248
38.0993
36.6478
35.468
34.5261
38.1025
36.6503
35.4697
34.5274
38.1057
36.6525
35.4711
34.5282
38.1088
36.6542
35.4719
34.5283
38.1116
36.6554
35.4721
34.5276
38.1143
36.6554
35.4726
34.526
38.1071
36.655
35.4747
34.5303
38.1187
36.6695
35.4869
34.5436
31.4972
30.3074
29.3428
28.5809
31.4877
30.2956
29.333
28.5703
31.494
30.2961
29.3313
28.5667
31.4923
30.2963
29.3309
28.568
31.4906
30.2955
29.3307
28.5683
31.4887
30.2944
29.3301
28.5681
31.4867
30.2928
29.329
28.5672
31.4846
30.2911
29.3276
28.5661
31.4829
30.2894
29.3262
28.5648
31.4819
30.2883
29.3253
28.564
31.4822
30.2885
29.3253
28.564
31.4839
30.29
29.3263
28.5647
31.4864
30.292
29.3278
28.5658
31.4892
30.2941
29.3293
28.5669
31.492
30.296
29.3305
28.5676
31.4947
30.2975
29.3312
28.5677
31.4971
30.2986
29.3315
28.5671
31.4994
30.2986
29.3319
28.5658
31.4936
30.2983
29.3335
28.5693
31.5033
30.3102
29.3434
28.5798
25.9265
24.9485
24.1607
23.544
25.9186
24.9389
24.1528
23.5357
25.9238
24.9393
24.1514
23.5327
25.9224
24.9395
24.1511
23.5337
25.9211
24.9389
24.151
23.534
25.9196
24.938
24.1504
23.5337
25.918
24.9367
24.1495
23.533
25.9164
24.9353
24.1483
23.532
25.9151
24.934
24.1472
23.531
25.9142
24.9331
24.1465
23.5303
25.9146
24.9333
24.1465
23.5303
25.9162
24.9346
24.1474
23.5309
25.9183
24.9364
24.1487
23.5318
25.9207
24.9382
24.15
23.5327
25.9232
24.9398
24.151
23.5333
25.9255
24.9412
24.1517
23.5334
25.9276
24.9421
24.1519
23.533
25.9296
24.9421
24.1522
23.5319
25.9248
24.9419
24.1536
23.5348
25.933
24.9517
24.1616
23.5431
21.2628
20.4597
19.8164
19.3169
21.2563
20.4519
19.81
19.3102
21.2606
20.4522
19.8089
19.3078
21.2595
20.4524
19.8087