/*--------------------------------*- C++ -*----------------------------------*\
| =========                 |                                                 |
| \\      /  F ield         | foam-extend: Open Source CFD                    |
|  \\    /   O peration     | Version:     3.1                                |
|   \\  /    A nd           | Web:         http://www.extend-project.de       |
|    \\/     M anipulation  |                                                 |
\*---------------------------------------------------------------------------*/
FoamFile
{
    version     2.0;
    format      ascii;
    class       volVectorField;
    location    "0.0015";
    object      U;
}
// * * * * * * * * * * * * * * * * * * * * * * * * * * * * * * * * * * * * * //

dimensions      [0 1 -1 0 0 0 0];

internalField   nonuniform List<vector> 
6400
(
(0.000176344 1.65889e-06 0.000755543)
(-1.65255e-05 -4.80319e-06 0.00027808)
(-4.18572e-05 -5.68191e-06 -0.00015129)
(8.82508e-05 -1.24007e-06 -0.000601549)
(0.00017213 1.6448e-05 0.000757537)
(-1.83771e-05 -4.93069e-06 0.000280819)
(-4.24093e-05 -7.1391e-06 -0.000148296)
(8.82352e-05 8.57257e-06 -0.000598592)
(0.000168979 3.03226e-05 0.000757235)
(-1.91845e-05 -6.15979e-06 0.000281175)
(-4.29431e-05 -1.01424e-05 -0.000147691)
(8.60225e-05 1.61052e-05 -0.000597802)
(0.000164969 4.37029e-05 0.00075667)
(-1.96443e-05 -7.60788e-06 0.000281029)
(-4.29779e-05 -1.35362e-05 -0.000147605)
(8.35494e-05 2.27198e-05 -0.000597401)
(0.000160103 5.67511e-05 0.000756124)
(-1.97486e-05 -9.07874e-06 0.00028078)
(-4.24191e-05 -1.69957e-05 -0.000147684)
(8.09847e-05 2.89056e-05 -0.000597235)
(0.000154497 6.94696e-05 0.000755681)
(-1.944e-05 -1.04602e-05 0.000280513)
(-4.12524e-05 -2.03195e-05 -0.000147861)
(7.83292e-05 3.49297e-05 -0.000597292)
(0.000148228 8.18009e-05 0.000755355)
(-1.87199e-05 -1.16749e-05 0.000280254)
(-3.95336e-05 -2.33565e-05 -0.000148102)
(7.55034e-05 4.09618e-05 -0.000597536)
(0.000141305 9.36551e-05 0.000755117)
(-1.76763e-05 -1.26952e-05 0.000280014)
(-3.74072e-05 -2.60343e-05 -0.000148365)
(7.23366e-05 4.70586e-05 -0.000597884)
(0.00013364 0.000104915 0.000754913)
(-1.64831e-05 -1.35655e-05 0.000279811)
(-3.50871e-05 -2.83948e-05 -0.000148597)
(6.86066e-05 5.31209e-05 -0.000598219)
(0.000125061 0.000115438 0.00075472)
(-1.5349e-05 -1.44053e-05 0.000279674)
(-3.27794e-05 -3.05887e-05 -0.000148739)
(6.41404e-05 5.89032e-05 -0.000598427)
(0.000115451 0.000125064 0.000754723)
(-1.43869e-05 -1.53545e-05 0.000279675)
(-3.05656e-05 -3.27911e-05 -0.00014874)
(5.89309e-05 6.41238e-05 -0.000598429)
(0.00010494 0.000133661 0.000754921)
(-1.35371e-05 -1.64738e-05 0.000279812)
(-2.83626e-05 -3.50853e-05 -0.0001486)
(5.31575e-05 6.86031e-05 -0.000598227)
(9.3689e-05 0.000141344 0.000755132)
(-1.26598e-05 -1.7651e-05 0.000280016)
(-2.5996e-05 -3.73909e-05 -0.000148369)
(4.71014e-05 7.23474e-05 -0.000597896)
(8.18394e-05 0.000148287 0.000755375)
(-1.16359e-05 -1.86783e-05 0.000280257)
(-2.33151e-05 -3.95023e-05 -0.000148107)
(4.10077e-05 7.5529e-05 -0.000597554)
(6.95091e-05 0.000154573 0.000755706)
(-1.0421e-05 -1.9383e-05 0.000280517)
(-2.02781e-05 -4.12065e-05 -0.000147867)
(3.49755e-05 7.83695e-05 -0.000597314)
(5.67882e-05 0.000160195 0.000756154)
(-9.0422e-06 -1.96777e-05 0.000280786)
(-1.69573e-05 -4.23599e-05 -0.000147692)
(2.8948e-05 8.10386e-05 -0.000597261)
(4.37348e-05 0.000165074 0.000756705)
(-7.57657e-06 -1.95614e-05 0.000281036)
(-1.35035e-05 -4.29073e-05 -0.000147613)
(2.2756e-05 8.36151e-05 -0.00059743)
(3.03471e-05 0.000169095 0.000757273)
(-6.1358e-06 -1.9092e-05 0.000281183)
(-1.01174e-05 -4.28631e-05 -0.000147699)
(1.61329e-05 8.60978e-05 -0.000597833)
(1.64633e-05 0.000172253 0.000757578)
(-4.91561e-06 -1.82774e-05 0.000280828)
(-7.12347e-06 -4.23223e-05 -0.000148305)
(8.58995e-06 8.83179e-05 -0.000598625)
(1.66394e-06 0.000176471 0.000755585)
(-4.79813e-06 -1.6422e-05 0.000278088)
(-5.67668e-06 -4.17665e-05 -0.000151299)
(-1.23423e-06 8.83373e-05 -0.000601583)
(0.00279584 0.000102733 0.00246249)
(0.00250051 9.33312e-05 0.00094645)
(0.00241266 9.03995e-05 -0.000539233)
(0.00252039 9.40664e-05 -0.00200658)
(0.00277197 0.000320665 0.00246304)
(0.00248004 0.000288459 0.000947634)
(0.00239472 0.000279722 -0.000537679)
(0.00250369 0.000293485 -0.00200463)
(0.00273351 0.000536785 0.00246236)
(0.00244521 0.000481357 0.000947769)
(0.00236109 0.000466127 -0.000537048)
(0.00246889 0.000488985 -0.00200347)
(0.00267876 0.000749468 0.00246133)
(0.00239588 0.000671201 0.000947322)
(0.00231339 0.000649189 -0.000537083)
(0.0024193 0.000680306 -0.002003)
(0.00260836 0.000957602 0.00246026)
(0.00233278 0.000856905 0.000946626)
(0.00225257 0.000828081 -0.000537538)
(0.00235605 0.000866995 -0.00200312)
(0.00252304 0.00116001 0.00245933)
(0.00225658 0.00103752 0.000945843)
(0.00217922 0.00100206 -0.000538275)
(0.00227971 0.00104851 -0.00200377)
(0.00242338 0.00135547 0.0024586)
(0.0021677 0.00121209 0.000945062)
(0.00209367 0.00117035 -0.000539173)
(0.00219053 0.00122419 -0.0020048)
(0.00230974 0.00154267 0.00245803)
(0.00206631 0.00137953 0.000944347)
(0.00199598 0.00133199 -0.000540084)
(0.00208849 0.00139311 -0.00200596)
(0.00218226 0.00172023 0.00245756)
(0.00195241 0.00153856 0.000943762)
(0.00188603 0.00148572 -0.000540844)
(0.00197345 0.00155399 -0.00200697)
(0.0020411 0.00188674 0.00245719)
(0.00182609 0.0016878 0.000943399)
(0.00176391 0.00163011 -0.000541288)
(0.00184551 0.00170527 -0.00200756)
(0.00188679 0.0020411 0.0024572)
(0.00168786 0.00182607 0.0009434)
(0.00163018 0.00176388 -0.000541289)
(0.00170535 0.00184547 -0.00200756)
(0.00172031 0.00218231 0.00245757)
(0.00153865 0.00195244 0.000943765)
(0.00148582 0.00188604 -0.000540846)
(0.0015541 0.00197344 -0.00200698)
(0.00154279 0.00230985 0.00245805)
(0.00137964 0.00206639 0.000944353)
(0.00133211 0.00199603 -0.000540088)
(0.00139324 0.00208853 -0.00200597)
(0.00135559 0.00242356 0.00245863)
(0.00121222 0.00216783 0.000945071)
(0.00117048 0.00209378 -0.000539178)
(0.00122432 0.00219062 -0.00200482)
(0.00116014 0.00252327 0.00245936)
(0.00103765 0.00225676 0.000945855)
(0.00100219 0.00217937 -0.000538281)
(0.00104864 0.00227983 -0.0020038)
(0.000957724 0.00260864 0.0024603)
(0.000857025 0.00233301 0.000946641)
(0.000828202 0.00225276 -0.000537545)
(0.000867123 0.00235622 -0.00200315)
(0.000749574 0.00267909 0.00246138)
(0.000671304 0.00239615 0.00094734)
(0.000649293 0.00231362 -0.00053709)
(0.000680416 0.00241951 -0.00200303)
(0.000536866 0.00273387 0.00246242)
(0.000481436 0.0024455 0.00094779)
(0.000466206 0.00236135 -0.000537055)
(0.000489068 0.00246913 -0.00200351)
(0.000320716 0.00277235 0.0024631)
(0.000288509 0.00248036 0.000947656)
(0.000279772 0.002395 -0.000537687)
(0.000293538 0.00250395 -0.00200467)
(0.000102751 0.00279623 0.00246255)
(9.33483e-05 0.00250084 0.000946473)
(9.04167e-05 0.00241295 -0.000539241)
(9.40846e-05 0.00252067 -0.00200663)
(0.00791149 0.000301828 0.00413498)
(0.00750488 0.000289127 0.00153971)
(0.00732769 0.000283081 -0.00102991)
(0.00736619 0.000284345 -0.00355618)
(0.0078537 0.000919763 0.0041347)
(0.00745104 0.000875537 0.00153984)
(0.00727695 0.000856951 -0.00102952)
(0.00731718 0.000863258 -0.0035553)
(0.00774998 0.00153256 0.00413361)
(0.00735213 0.00145618 0.00153927)
(0.00718028 0.00142408 -0.00102974)
(0.00722025 0.00143414 -0.00355506)
(0.00759913 0.00213593 0.00413244)
(0.00720876 0.00202787 0.00153835)
(0.00704024 0.00198192 -0.00103051)
(0.00707973 0.00199473 -0.00355562)
(0.00740295 0.00272633 0.0041314)
(0.00702269 0.00258714 0.00153728)
(0.00685877 0.00252741 -0.00103171)
(0.00689772 0.00254254 -0.00355687)
(0.00716322 0.00330019 0.00413059)
(0.00679561 0.0031308 0.00153617)
(0.00663741 0.0030577 -0.00103317)
(0.00667565 0.00307508 -0.00355868)
(0.00688144 0.00385393 0.00413)
(0.00652878 0.00365568 0.00153512)
(0.00637726 0.00356992 -0.00103474)
(0.00641449 0.0035897 -0.00356079)
(0.00655884 0.00438389 0.00412956)
(0.00622312 0.00415843 0.00153418)
(0.00607903 0.00406092 -0.00103622)
(0.00611482 0.00408339 -0.00356286)
(0.00619644 0.00488637 0.00412919)
(0.00587944 0.00463549 0.00153344)
(0.00574339 0.00452719 -0.00103739)
(0.00577719 0.0045526 -0.00356451)
(0.00579548 0.00535786 0.00412888)
(0.00549888 0.00508332 0.001533)
(0.00537144 0.00496509 -0.00103804)
(0.00540276 0.00499353 -0.00356544)
(0.00535794 0.00579548 0.00412888)
(0.00508342 0.00549884 0.001533)
(0.0049652 0.00537139 -0.00103804)
(0.00499365 0.00540269 -0.00356544)
(0.00488651 0.00619652 0.0041292)
(0.00463564 0.00587948 0.00153345)
(0.00452734 0.00574339 -0.00103739)
(0.00455276 0.00577717 -0.00356452)
(0.00438407 0.00655901 0.00412958)
(0.00415861 0.00622324 0.00153419)
(0.00406111 0.00607911 -0.00103622)
(0.00408358 0.00611487 -0.00356287)
(0.00385413 0.00688171 0.00413003)
(0.00365588 0.00652897 0.00153513)
(0.00357012 0.00637741 -0.00103474)
(0.00358992 0.00641462 -0.0035608)
(0.00330039 0.00716357 0.00413062)
(0.003131 0.00679588 0.00153619)
(0.0030579 0.00663764 -0.00103317)
(0.00307529 0.00667585 -0.00355869)
(0.00272652 0.00740338 0.00413144)
(0.00258733 0.00702304 0.0015373)
(0.0025276 0.00685907 -0.0010317)
(0.00254274 0.00689798 -0.00355689)
(0.0021361 0.00759963 0.00413249)
(0.00202803 0.00720917 0.00153837)
(0.00198208 0.00704059 -0.00103051)
(0.0019949 0.00708005 -0.00355564)
(0.00153269 0.00775053 0.00413366)
(0.0014563 0.00735259 0.00153929)
(0.00142421 0.00718068 -0.00102974)
(0.00143427 0.00722061 -0.00355509)
(0.000919844 0.00785429 0.00413475)
(0.000875616 0.00745154 0.00153986)
(0.00085703 0.00727738 -0.00102951)
(0.000863341 0.00731758 -0.00355532)
(0.000301856 0.0079121 0.00413503)
(0.000289155 0.00750539 0.00153974)
(0.000283108 0.00732814 -0.0010299)
(0.000284374 0.0073666 -0.0035562)
(0.0158453 0.000611941 0.00574917)
(0.0152833 0.000593997 0.00199195)
(0.0149784 0.000583275 -0.00172373)
(0.0149135 0.000581084 -0.00538642)
(0.0157365 0.00185188 0.00574806)
(0.0151794 0.00178998 0.00199097)
(0.0148784 0.00175675 -0.0017247)
(0.014816 0.00175144 -0.00538708)
(0.0155338 0.00308136 0.00574663)
(0.0149834 0.00297481 0.00198957)
(0.0146862 0.00291784 -0.00172619)
(0.014625 0.0029079 -0.00538855)
(0.0152365 0.00429199 0.00574569)
(0.0146965 0.00414145 0.00198816)
(0.0144052 0.00406046 -0.00172808)
(0.0143456 0.00404498 -0.0053909)
(0.0148476 0.00547645 0.00574525)
(0.0143217 0.00528278 0.00198689)
(0.0140383 0.00517811 -0.00173021)
(0.0139809 0.00515685 -0.0053939)
(0.0143702 0.00662744 0.00574526)
(0.0138618 0.00639203 0.00198578)
(0.0135882 0.0062645 -0.00173244)
(0.0135334 0.00623775 -0.00539728)
(0.0138069 0.00773766 0.00574555)
(0.0133193 0.00746248 0.00198485)
(0.013057 0.00731334 -0.00173459)
(0.0130051 0.00728173 -0.0054007)
(0.0131605 0.00879982 0.0057459)
(0.0126963 0.00848723 0.00198409)
(0.0124467 0.00831798 -0.00173645)
(0.0123975 0.00828232 -0.00540375)
(0.0124335 0.00980675 0.00574614)
(0.0119951 0.00945925 0.00198353)
(0.0117593 0.00927143 -0.00173784)
(0.0117128 0.0092325 -0.00540603)
(0.0116292 0.0107517 0.00574618)
(0.0112188 0.0103717 0.00198321)
(0.0109979 0.0101668 -0.00173859)
(0.0109538 0.0101251 -0.00540726)
(0.0107518 0.0116292 0.00574619)
(0.0103719 0.0112188 0.00198322)
(0.0101669 0.0109979 -0.00173859)
(0.0101253 0.0109537 -0.00540726)
(0.00980693 0.0124336 0.00574615)
(0.00945944 0.0119951 0.00198354)
(0.00927164 0.0117593 -0.00173784)
(0.00923271 0.0117127 -0.00540603)
(0.00880005 0.0131607 0.00574592)
(0.00848747 0.0126964 0.0019841)
(0.00831822 0.0124468 -0.00173645)
(0.00828257 0.0123976 -0.00540375)
(0.00773792 0.0138073 0.00574557)
(0.00746274 0.0133195 0.00198486)
(0.00731361 0.0130572 -0.00173458)
(0.007282 0.0130052 -0.0054007)
(0.00662771 0.0143706 0.00574529)
(0.00639229 0.0138622 0.0019858)
(0.00626477 0.0135885 -0.00173243)
(0.00623803 0.0135336 -0.00539728)
(0.00547671 0.0148482 0.00574529)
(0.00528302 0.0143222 0.00198691)
(0.00517835 0.0140387 -0.0017302)
(0.0051571 0.0139812 -0.0053939)
(0.0042922 0.0152372 0.00574572)
(0.00414166 0.014697 0.00198819)
(0.00406067 0.0144056 -0.00172806)
(0.0040452 0.014346 -0.0053909)
(0.00308153 0.0155345 0.00574668)
(0.00297497 0.014984 0.00198959)
(0.002918 0.0146867 -0.00172618)
(0.00290807 0.0146255 -0.00538855)
(0.00185198 0.0157373 0.0057481)
(0.00179009 0.01518 0.001991)
(0.00175685 0.0148789 -0.00172469)
(0.00175155 0.0148165 -0.00538708)
(0.000611977 0.015846 0.00574922)
(0.000594033 0.0152839 0.00199199)
(0.00058331 0.014979 -0.00172371)
(0.000581121 0.0149141 -0.00538642)
(0.0269296 0.00104654 0.00717923)
(0.026174 0.00102173 0.00219866)
(0.0256956 0.00100442 -0.00270243)
(0.0254737 0.000996765 -0.00755867)
(0.0267515 0.00315698 0.00717686)
(0.0260018 0.00307228 0.002196)
(0.0255281 0.00301847 -0.00270545)
(0.0253097 0.00299474 -0.00756165)
(0.0264129 0.00524952 0.00717515)
(0.0256723 0.00510433 0.00219359)
(0.0252048 0.00501265 -0.00270856)
(0.0249897 0.00497129 -0.00756536)
(0.0259137 0.00731004 0.00717479)
(0.0251875 0.00710541 0.0021918)
(0.0247293 0.00697583 -0.00271167)
(0.0245189 0.00691623 -0.00756987)
(0.0252583 0.00932595 0.00717557)
(0.0245512 0.00906325 0.00219064)
(0.0241054 0.00889658 -0.00271466)
(0.0239013 0.00881899 -0.00757479)
(0.0244509 0.0112846 0.00717712)
(0.0237675 0.010966 0.00218998)
(0.023337 0.0107637 -0.00271742)
(0.0231404 0.010669 -0.00757977)
(0.023496 0.0131736 0.00717904)
(0.0228404 0.0128019 0.00218968)
(0.0224275 0.0125659 -0.00271982)
(0.0222394 0.0124555 -0.0075844)
(0.0223979 0.0149805 0.00718088)
(0.0217736 0.0145588 0.00218959)
(0.0213805 0.0142916 -0.00272173)
(0.0212015 0.0141669 -0.00758826)
(0.0211617 0.0166933 0.00718228)
(0.0205719 0.016225 0.00218961)
(0.0202004 0.0159287 -0.00272305)
(0.0200309 0.0157914 -0.00759101)
(0.0197933 0.0183007 0.00718298)
(0.0192411 0.0177891 0.00218963)
(0.0188929 0.0174659 -0.00272373)
(0.0187335 0.0173171 -0.00759243)
(0.0183009 0.0197933 0.00718298)
(0.0177893 0.0192411 0.00218963)
(0.0174661 0.0188928 -0.00272372)
(0.0173173 0.0187334 -0.00759243)
(0.0166935 0.0211618 0.00718228)
(0.0162253 0.0205719 0.00218961)
(0.015929 0.0202004 -0.00272305)
(0.0157916 0.0200309 -0.00759101)
(0.0149808 0.0223981 0.0071809)
(0.0145591 0.0217738 0.0021896)
(0.0142918 0.0213806 -0.00272172)
(0.0141672 0.0212016 -0.00758825)
(0.0131739 0.0234963 0.00717906)
(0.0128022 0.0228406 0.00218969)
(0.0125662 0.0224277 -0.0027198)
(0.0124558 0.0222396 -0.00758439)
(0.011285 0.0244514 0.00717715)
(0.0109663 0.0237679 0.00219)
(0.010764 0.0233373 -0.0027174)
(0.0106693 0.0231407 -0.00757976)
(0.00932624 0.0252589 0.00717559)
(0.00906354 0.0245517 0.00219066)
(0.00889686 0.0241058 -0.00271464)
(0.00881929 0.0239016 -0.00757478)
(0.0073103 0.0259145 0.00717483)
(0.00710566 0.0251881 0.00219183)
(0.00697607 0.0247298 -0.00271165)
(0.00691648 0.0245193 -0.00756985)
(0.00524972 0.0264137 0.00717519)
(0.00510452 0.025673 0.00219362)
(0.00501284 0.0252054 -0.00270853)
(0.00497148 0.0249902 -0.00756534)
(0.0031571 0.0267523 0.0071769)
(0.0030724 0.0260025 0.00219604)
(0.00301859 0.0255288 -0.00270542)
(0.00299487 0.0253102 -0.00756163)
(0.00104658 0.0269305 0.00717927)
(0.00102177 0.0261748 0.00219869)
(0.00100447 0.0256963 -0.0027024)
(0.000996808 0.0254743 -0.00755865)
(0.0414723 0.00161844 0.00813103)
(0.0404942 0.00158536 0.00198948)
(0.0397897 0.00155929 -0.00401132)
(0.0393346 0.00154342 -0.00999744)
(0.0412049 0.0048721 0.00812683)
(0.0402338 0.00476035 0.00198449)
(0.039535 0.00467915 -0.0040171)
(0.0390846 0.00462748 -0.0100035)
(0.0406904 0.00809807 0.00812479)
(0.0397314 0.00790737 0.00198095)
(0.0390417 0.00776965 -0.00402195)
(0.0385977 0.00768085 -0.0100095)
(0.0399291 0.0112748 0.00812526)
(0.0389889 0.0110068 0.00197901)
(0.038313 0.010813 -0.00402602)
(0.0378784 0.0106872 -0.0100159)
(0.0389266 0.0143828 0.00812763)
(0.0380115 0.0140396 0.00197838)
(0.0373538 0.0137913 -0.00402938)
(0.0369314 0.0136294 -0.0100222)
(0.0376886 0.0174026 0.0081312)
(0.0368043 0.0169872 0.0019787)
(0.0361689 0.0166868 -0.00403203)
(0.0357611 0.0164907 -0.010028)
(0.0362214 0.0203147 0.00813523)
(0.0353729 0.0198311 0.00197959)
(0.0347633 0.0194814 -0.00403401)
(0.0343723 0.0192534 -0.0100331)
(0.0345317 0.0231002 0.00813898)
(0.0337236 0.0225525 0.00198068)
(0.0331428 0.0221568 -0.00403536)
(0.0327702 0.0218996 -0.0100371)
(0.0326276 0.0257405 0.00814186)
(0.0318638 0.0251329 0.00198165)
(0.0313147 0.0246946 -0.00403616)
(0.0309619 0.0244106 -0.0100397)
(0.030519 0.0282184 0.00814343)
(0.0298035 0.0275551 0.00198223)
(0.0292887 0.0270772 -0.00403651)
(0.0289572 0.0267685 -0.0100411)
(0.0282185 0.030519 0.00814343)
(0.0275553 0.0298034 0.00198223)
(0.0270773 0.0292886 -0.00403651)
(0.0267687 0.0289571 -0.0100411)
(0.0257407 0.0326277 0.00814187)
(0.0251332 0.0318638 0.00198166)
(0.0246949 0.0313147 -0.00403615)
(0.0244108 0.0309619 -0.0100397)
(0.0231005 0.0345319 0.00813899)
(0.0225528 0.0337237 0.00198069)
(0.0221571 0.0331429 -0.00403535)
(0.0218999 0.0327703 -0.010037)
(0.0203151 0.0362218 0.00813524)
(0.0198314 0.0353732 0.0019796)
(0.0194817 0.0347635 -0.00403399)
(0.0192538 0.0343724 -0.0100331)
(0.0174029 0.0376892 0.00813122)
(0.0169876 0.0368047 0.00197872)
(0.0166871 0.0361692 -0.00403201)
(0.016491 0.0357614 -0.010028)
(0.0143831 0.0389273 0.00812765)
(0.0140399 0.038012 0.00197841)
(0.0137916 0.0373543 -0.00402935)
(0.0136298 0.0369318 -0.0100222)
(0.0112751 0.0399299 0.00812528)
(0.0110071 0.0389896 0.00197904)
(0.0108133 0.0383136 -0.00402599)
(0.0106874 0.0378789 -0.0100159)
(0.00809828 0.0406912 0.00812482)
(0.00790757 0.0397321 0.00198098)
(0.00776985 0.0390423 -0.00402191)
(0.00768106 0.0385983 -0.0100095)
(0.00487223 0.0412058 0.00812686)
(0.00476048 0.0402346 0.00198452)
(0.00467928 0.0395357 -0.00401706)
(0.00462762 0.0390852 -0.0100034)
(0.00161849 0.0414732 0.00813106)
(0.0015854 0.040495 0.00198951)
(0.00155933 0.0397904 -0.00401128)
(0.00154347 0.0393352 -0.00999739)
(0.059239 0.00231886 0.00811873)
(0.058028 0.00227671 0.00112958)
(0.0570469 0.00223984 -0.00564459)
(0.0562696 0.00221268 -0.0124504)
(0.0588646 0.00696965 0.00811225)
(0.0576613 0.00682876 0.00112186)
(0.0566868 0.00671372 -0.00565339)
(0.0559153 0.00662322 -0.0124596)
(0.0581371 0.0115807 0.00810979)
(0.056949 0.0113413 0.00111732)
(0.0559873 0.0111469 -0.00565959)
(0.0552266 0.0109923 -0.0124673)
(0.0570578 0.0161216 0.00811107)
(0.0558934 0.015786 0.0011156)
(0.0549508 0.0155133 -0.00566384)
(0.0542056 0.0152958 -0.0124744)
(0.0556331 0.0205643 0.00811505)
(0.0545 0.0201356 0.00111599)
(0.0535827 0.0197871 -0.00566656)
(0.0528576 0.0195089 -0.0124806)
(0.0538703 0.0248809 0.00812062)
(0.0527753 0.0243633 0.0011178)
(0.0518888 0.0239425 -0.00566804)
(0.0511881 0.0236064 -0.0124857)
(0.0517778 0.0290439 0.00812671)
(0.0507271 0.0284421 0.00112035)
(0.0498762 0.027953 -0.0056686)
(0.0492035 0.0275627 -0.0124896)
(0.0493653 0.0330257 0.00813235)
(0.0483643 0.0323452 0.00112301)
(0.0475533 0.0317922 -0.00566854)
(0.0469119 0.0313515 -0.0124923)
(0.0466448 0.0368001 0.00813671)
(0.0456984 0.036046 0.00112523)
(0.0449314 0.0354335 -0.00566821)
(0.0443241 0.0349463 -0.012494)
(0.0436311 0.0403425 0.00813915)
(0.0427442 0.0395198 0.00112653)
(0.0420249 0.038852 -0.00566792)
(0.0414547 0.0383217 -0.0124948)
(0.0403426 0.0436311 0.00813915)
(0.03952 0.0427441 0.00112653)
(0.0388522 0.0420248 -0.00566791)
(0.0383219 0.0414546 -0.0124948)
(0.0368004 0.0466449 0.00813671)
(0.0360463 0.0456985 0.00112524)
(0.0354338 0.0449314 -0.0056682)
(0.0349466 0.0443241 -0.012494)
(0.033026 0.0493656 0.00813235)
(0.0323455 0.0483645 0.00112302)
(0.0317925 0.0475534 -0.00566853)
(0.0313518 0.046912 -0.0124923)
(0.0290442 0.0517782 0.00812671)
(0.0284425 0.0507274 0.00112036)
(0.0279533 0.0498764 -0.00566857)
(0.027563 0.0492036 -0.0124896)
(0.0248813 0.0538709 0.00812063)
(0.0243637 0.0527757 0.00111781)
(0.0239428 0.0518891 -0.00566801)
(0.0236067 0.0511883 -0.0124856)
(0.0205646 0.0556338 0.00811506)
(0.020136 0.0545005 0.00111601)
(0.0197874 0.0535831 -0.00566652)
(0.0195092 0.052858 -0.0124805)
(0.0161218 0.0570586 0.00811109)
(0.0157863 0.055894 0.00111562)
(0.0155136 0.0549514 -0.0056638)
(0.0152961 0.0542061 -0.0124744)
(0.0115809 0.058138 0.0081098)
(0.0113415 0.0569497 0.00111734)
(0.0111471 0.0559879 -0.00565954)
(0.0109925 0.0552271 -0.0124673)
(0.00696978 0.0588655 0.00811226)
(0.00682888 0.0576621 0.00112189)
(0.00671385 0.0566874 -0.00565334)
(0.00662335 0.055916 -0.0124595)
(0.00231891 0.05924 0.00811874)
(0.00227675 0.0580288 0.00112961)
(0.00223989 0.0570476 -0.00564454)
(0.00221273 0.0562702 -0.0124504)
(0.0790912 0.00310297 0.00657001)
(0.0776637 0.0030521 -0.000634222)
(0.0763695 0.00300314 -0.00754074)
(0.0751826 0.00296183 -0.0145421)
(0.078599 0.00931439 0.00656097)
(0.0771794 0.00914592 -0.000644511)
(0.0758922 0.00899277 -0.00755203)
(0.0747124 0.00885326 -0.0145536)
(0.0776353 0.0154725 0.00655783)
(0.0762337 0.0151873 -0.000649604)
(0.0749631 0.014929 -0.0075584)
(0.0737991 0.0146914 -0.0145611)
(0.0762019 0.0215371 0.00655942)
(0.0748285 0.0211382 -0.000650617)
(0.0735832 0.0207766 -0.00756134)
(0.0724421 0.0204436 -0.0145663)
(0.0743065 0.0274709 0.00656425)
(0.0729701 0.0269623 -0.000648803)
(0.0717577 0.0265009 -0.00756185)
(0.0706467 0.0260757 -0.0145696)
(0.0719576 0.0332366 0.00657095)
(0.0706661 0.0326234 -0.000645225)
(0.069494 0.0320668 -0.0075607)
(0.0684194 0.0315537 -0.0145712)
(0.069166 0.0387973 0.00657827)
(0.0679267 0.0380853 -0.000640832)
(0.0668012 0.0374386 -0.00755857)
(0.0657689 0.0368427 -0.0145717)
(0.0659452 0.0441165 0.00658509)
(0.0647642 0.0433119 -0.000636494)
(0.0636913 0.0425808 -0.00755613)
(0.0627067 0.0419074 -0.0145714)
(0.0623116 0.049159 0.00659045)
(0.0611948 0.0482681 -0.000632985)
(0.0601797 0.047458 -0.00755401)
(0.0592477 0.0467125 -0.0145708)
(0.0582855 0.0538918 0.00659355)
(0.0572385 0.0529202 -0.000630957)
(0.0562867 0.0520368 -0.00755275)
(0.0554121 0.0512243 -0.0145704)
(0.0538919 0.0582855 0.00659355)
(0.0529204 0.0572384 -0.000630955)
(0.0520369 0.0562866 -0.00755275)
(0.0512244 0.055412 -0.0145704)
(0.0491592 0.0623117 0.00659045)
(0.0482683 0.0611948 -0.00063298)
(0.0474582 0.0601797 -0.007554)
(0.0467127 0.0592477 -0.0145708)
(0.0441168 0.0659455 0.00658509)
(0.0433122 0.0647644 -0.000636486)
(0.042581 0.0636913 -0.00755611)
(0.0419077 0.0627067 -0.0145714)
(0.0387976 0.0691664 0.00657827)
(0.0380856 0.0679269 -0.00064082)
(0.0374389 0.0668014 -0.00755854)
(0.036843 0.0657691 -0.0145717)
(0.0332369 0.0719581 0.00657095)
(0.0326237 0.0706665 -0.00064521)
(0.032067 0.0694943 -0.00756067)
(0.031554 0.0684197 -0.0145712)
(0.0274712 0.0743071 0.00656425)
(0.0269626 0.0729706 -0.000648785)
(0.0265012 0.0717581 -0.00756181)
(0.026076 0.070647 -0.0145695)
(0.0215374 0.0762027 0.00655942)
(0.0211385 0.0748291 -0.000650596)
(0.0207769 0.0735837 -0.00756129)
(0.0204438 0.0724426 -0.0145662)
(0.0154727 0.0776361 0.00655783)
(0.0151875 0.0762344 -0.000649581)
(0.0149292 0.0749637 -0.00755835)
(0.0146916 0.0737996 -0.014561)
(0.00931451 0.0785999 0.00656097)
(0.00914604 0.0771801 -0.000644485)
(0.00899288 0.0758928 -0.00755198)
(0.00885338 0.0747129 -0.0145535)
(0.00310301 0.0790921 0.00657001)
(0.00305215 0.0776644 -0.000634197)
(0.00300318 0.0763701 -0.00754069)
(0.00296187 0.0751832 -0.014542)
(0.0991513 0.00389657 0.00286245)
(0.0975456 0.00383848 -0.00353669)
(0.0959206 0.00377719 -0.00956075)
(0.0942536 0.00371993 -0.0157553)
(0.098541 0.0116823 0.00285119)
(0.0969424 0.0114916 -0.00354825)
(0.0953244 0.0112993 -0.00957249)
(0.0936653 0.0111037 -0.0157665)
(0.0973381 0.0194009 0.00284679)
(0.0957597 0.0190788 -0.00355294)
(0.094162 0.0187548 -0.00957676)
(0.0925244 0.0184223 -0.0157701)
(0.0955463 0.0270025 0.00284714)
(0.0939994 0.0265526 -0.00355281)
(0.0924328 0.0260994 -0.00957615)
(0.0908266 0.0256336 -0.0157693)
(0.0931739 0.0344407 0.00285061)
(0.0916683 0.0338674 -0.00354955)
(0.0901426 0.0332893 -0.00957239)
(0.0885775 0.0326949 -0.0157654)
(0.0902314 0.0416692 0.00285594)
(0.0887761 0.0409782 -0.00354447)
(0.0873002 0.0402803 -0.00956678)
(0.0857856 0.0395627 -0.0157596)
(0.0867323 0.0486417 0.00286206)
(0.0853353 0.0478393 -0.00353864)
(0.0839175 0.0470279 -0.00956045)
(0.0824619 0.0461933 -0.015753)
(0.0826937 0.0553126 0.00286805)
(0.0813621 0.0544056 -0.00353305)
(0.0800101 0.0534872 -0.00955448)
(0.0786215 0.0525426 -0.0157469)
(0.0781367 0.0616376 0.00287298)
(0.0768771 0.060633 -0.00352859)
(0.0755981 0.0596143 -0.00954982)
(0.074284 0.0585667 -0.0157421)
(0.0730868 0.0675749 0.00287601)
(0.0719057 0.0664792 -0.00352602)
(0.0707068 0.065367 -0.00954722)
(0.0694744 0.0642235 -0.0157395)
(0.0675751 0.0730867 0.00287601)
(0.0664793 0.0719056 -0.00352602)
(0.0653672 0.0707067 -0.00954721)
(0.0642237 0.0694743 -0.0157395)
(0.0616378 0.0781368 0.00287298)
(0.0606332 0.0768771 -0.00352859)
(0.0596145 0.0755981 -0.00954981)
(0.0585669 0.0742839 -0.0157421)
(0.0553128 0.0826939 0.00286804)
(0.0544059 0.0813623 -0.00353305)
(0.0534874 0.0800102 -0.00955446)
(0.0525428 0.0786215 -0.0157468)
(0.048642 0.0867327 0.00286206)
(0.0478396 0.0853356 -0.00353863)
(0.0470281 0.0839177 -0.00956042)
(0.0461936 0.082462 -0.015753)
(0.0416695 0.0902319 0.00285593)
(0.0409784 0.0887765 -0.00354446)
(0.0402806 0.0873004 -0.00956674)
(0.0395629 0.0857858 -0.0157595)
(0.034441 0.0931745 0.0028506)
(0.0338677 0.0916688 -0.00354954)
(0.0332895 0.0901429 -0.00957235)
(0.0326951 0.0885778 -0.0157653)
(0.0270027 0.095547 0.00284713)
(0.0265528 0.0939999 -0.00355279)
(0.0260996 0.0924332 -0.00957611)
(0.0256338 0.0908269 -0.0157692)
(0.0194011 0.0973389 0.00284677)
(0.019079 0.0957603 -0.00355292)
(0.018755 0.0941625 -0.00957671)
(0.0184224 0.0925248 -0.0157701)
(0.0116824 0.0985418 0.00285117)
(0.0114917 0.096943 -0.00354823)
(0.0112994 0.095325 -0.00957243)
(0.0111038 0.0936658 -0.0157664)
(0.00389661 0.0991521 0.00286244)
(0.00383852 0.0975463 -0.00353667)
(0.00377723 0.0959212 -0.0095607)
(0.00371996 0.0942541 -0.0157552)
(0.116221 0.0045721 -0.00361297)
(0.114489 0.00450925 -0.00773215)
(0.112557 0.00443748 -0.0114808)
(0.110409 0.00436541 -0.0154326)
(0.115508 0.0136908 -0.00362428)
(0.113781 0.0134865 -0.00774161)
(0.111856 0.0132605 -0.0114887)
(0.109717 0.0130115 -0.0154385)
(0.114097 0.0227299 -0.00363035)
(0.112391 0.0223852 -0.00774434)
(0.110489 0.0220044 -0.0114878)
(0.108376 0.021581 -0.0154336)
(0.111993 0.0316319 -0.00363352)
(0.11032 0.0311501 -0.00774279)
(0.108454 0.030617 -0.0114813)
(0.10638 0.0300239 -0.015422)
(0.109207 0.0403431 -0.0036349)
(0.107577 0.0397284 -0.00773861)
(0.105759 0.0390473 -0.0114714)
(0.103737 0.0382895 -0.0154061)
(0.105751 0.0488097 -0.00363499)
(0.104175 0.0480674 -0.00773293)
(0.102415 0.0472438 -0.0114597)
(0.100458 0.0463273 -0.0153882)
(0.101644 0.0569782 -0.00363407)
(0.10013 0.0561145 -0.0077267)
(0.0984381 0.0551547 -0.0114478)
(0.0965568 0.0540866 -0.0153704)
(0.0969045 0.0647956 -0.00363242)
(0.095461 0.0638172 -0.00772079)
(0.0938475 0.0627283 -0.0114371)
(0.0920529 0.0615164 -0.0153548)
(0.0915589 0.0722103 -0.00363046)
(0.0901933 0.0711243 -0.00771605)
(0.0886672 0.0699137 -0.011429)
(0.0869697 0.0685665 -0.0153432)
(0.0856365 0.0791725 -0.00362882)
(0.0843563 0.077986 -0.00771328)
(0.0829268 0.0766618 -0.0114246)
(0.0813364 0.0751883 -0.015337)
(0.0791726 0.0856365 -0.00362882)
(0.0779861 0.0843562 -0.00771327)
(0.0766619 0.0829267 -0.0114246)
(0.0751884 0.0813364 -0.015337)
(0.0722105 0.091559 -0.00363046)
(0.0711244 0.0901933 -0.00771605)
(0.0699139 0.0886672 -0.011429)
(0.0685667 0.0869697 -0.0153432)
(0.0647958 0.0969047 -0.00363243)
(0.0638174 0.0954611 -0.00772079)
(0.0627285 0.0938476 -0.0114371)
(0.0615165 0.092053 -0.0153547)
(0.0569784 0.101644 -0.00363408)
(0.0561147 0.10013 -0.0077267)
(0.0551549 0.0984382 -0.0114477)
(0.0540867 0.0965569 -0.0153703)
(0.04881 0.105752 -0.003635)
(0.0480676 0.104175 -0.00773293)
(0.047244 0.102415 -0.0114597)
(0.0463275 0.100458 -0.0153881)
(0.0403433 0.109207 -0.00363492)
(0.0397286 0.107577 -0.0077386)
(0.0390475 0.105759 -0.0114714)
(0.0382897 0.103738 -0.015406)
(0.0316321 0.111993 -0.00363355)
(0.0311503 0.11032 -0.00774278)
(0.0306171 0.108454 -0.0114813)
(0.030024 0.106381 -0.0154219)
(0.02273 0.114097 -0.00363037)
(0.0223854 0.112391 -0.00774433)
(0.0220045 0.110489 -0.0114878)
(0.0215811 0.108376 -0.0154335)
(0.0136909 0.115509 -0.0036243)
(0.0134866 0.113782 -0.0077416)
(0.0132606 0.111857 -0.0114886)
(0.0130116 0.109717 -0.0154384)
(0.00457214 0.116222 -0.003613)
(0.00450928 0.114489 -0.00773214)
(0.00443751 0.112557 -0.0114808)
(0.00436544 0.110409 -0.0154325)
(0.12495 0.00491476 -0.0128586)
(0.123163 0.00485112 -0.0130683)
(0.121045 0.00477454 -0.0131008)
(0.118587 0.00469476 -0.0132442)
(0.124178 0.0147021 -0.0128652)
(0.122394 0.0144969 -0.0130705)
(0.120283 0.014255 -0.0130993)
(0.117834 0.0139761 -0.0132388)
(0.122646 0.024402 -0.0128719)
(0.120883 0.0240556 -0.0130693)
(0.118796 0.0236472 -0.0130908)
(0.116376 0.0231726 -0.0132225)
(0.120364 0.0339533 -0.0128796)
(0.118634 0.0334678 -0.0130662)
(0.116585 0.0328949 -0.0130776)
(0.114209 0.0322291 -0.0131984)
(0.117346 0.0432989 -0.012888)
(0.115659 0.0426771 -0.0130618)
(0.11366 0.0419433 -0.0130613)
(0.111343 0.0410907 -0.0131691)
(0.113608 0.0523818 -0.0128964)
(0.111974 0.0516277 -0.0130566)
(0.110039 0.0507376 -0.0130436)
(0.107794 0.0497036 -0.0131377)
(0.109171 0.0611458 -0.0129037)
(0.1076 0.0602642 -0.0130511)
(0.105739 0.0592234 -0.0130261)
(0.103581 0.0580146 -0.0131071)
(0.104059 0.0695356 -0.0129092)
(0.10256 0.0685324 -0.0130459)
(0.100786 0.0673472 -0.0130107)
(0.0987283 0.0659715 -0.0130806)
(0.0983002 0.077497 -0.0129124)
(0.0968834 0.0763787 -0.0130416)
(0.0952062 0.0750568 -0.0129991)
(0.0932617 0.073523 -0.0130609)
(0.0919275 0.0849776 -0.0129134)
(0.0906011 0.0837513 -0.013039)
(0.0890321 0.0823011 -0.0129928)
(0.0872129 0.0806192 -0.0130503)
(0.0849777 0.0919275 -0.0129134)
(0.0837514 0.0906011 -0.013039)
(0.0823012 0.089032 -0.0129928)
(0.0806192 0.0872129 -0.0130503)
(0.0774972 0.0983003 -0.0129125)
(0.0763788 0.0968834 -0.0130416)
(0.0750569 0.0952062 -0.0129991)
(0.0735231 0.0932617 -0.0130608)
(0.0695357 0.104059 -0.0129092)