/*--------------------------------*- C++ -*----------------------------------*\
| =========                 |                                                 |
| \\      /  F ield         | foam-extend: Open Source CFD                    |
|  \\    /   O peration     | Version:     3.1                                |
|   \\  /    A nd           | Web:         http://www.extend-project.de       |
|    \\/     M anipulation  |                                                 |
\*---------------------------------------------------------------------------*/
FoamFile
{
    version     2.0;
    format      ascii;
    class       volVectorField;
    location    "0.001";
    object      cellMotionU;
}
// * * * * * * * * * * * * * * * * * * * * * * * * * * * * * * * * * * * * * //

dimensions      [0 1 -1 0 0 0 0];

internalField   nonuniform List<vector> 
16000
(
(5.69512e-10 -5.95058e-10 -4.40453e-09)
(1.67389e-09 -5.3084e-10 -4.46645e-09)
(2.66636e-09 -4.29849e-10 -4.59137e-09)
(3.50718e-09 -3.05634e-10 -4.78524e-09)
(4.13811e-09 -1.66428e-10 -5.06047e-09)
(4.46661e-09 -2.22591e-11 -5.43844e-09)
(4.35186e-09 1.18275e-10 -5.95261e-09)
(3.59007e-09 2.46852e-10 -6.65523e-09)
(1.89831e-09 3.56124e-10 -7.62527e-09)
(-1.1065e-09 4.37847e-10 -8.98452e-09)
(5.5068e-10 -1.80875e-09 -4.53782e-09)
(1.6395e-09 -1.63909e-09 -4.59513e-09)
(2.6462e-09 -1.33866e-09 -4.71082e-09)
(3.51275e-09 -9.58728e-10 -4.89217e-09)
(4.18232e-09 -5.32529e-10 -5.15171e-09)
(4.57048e-09 -8.84339e-11 -5.50845e-09)
(4.54828e-09 3.45311e-10 -5.99171e-09)
(3.93376e-09 7.45336e-10 -6.6463e-09)
(2.48515e-09 1.08699e-09 -7.5314e-09)
(-8.68424e-11 1.34424e-09 -8.72315e-09)
(5.35523e-10 -3.1011e-09 -4.8036e-09)
(1.60092e-09 -2.84401e-09 -4.85264e-09)
(2.61462e-09 -2.36116e-09 -4.95297e-09)
(3.52499e-09 -1.71443e-09 -5.11034e-09)
(4.26657e-09 -9.83032e-10 -5.3386e-09)
(4.76588e-09 -2.20258e-10 -5.65492e-09)
(4.91564e-09 5.29763e-10 -6.08351e-09)
(4.56745e-09 1.22486e-09 -6.65476e-09)
(3.53649e-09 1.82594e-09 -7.405e-09)
(1.62175e-09 2.29506e-09 -8.37147e-09)
(5.19661e-10 -4.58634e-09 -5.20966e-09)
(1.56648e-09 -4.22924e-09 -5.24681e-09)
(2.58444e-09 -3.55917e-09 -5.32465e-09)
(3.53687e-09 -2.64133e-09 -5.4492e-09)
(4.37188e-09 -1.57462e-09 -5.63324e-09)
(5.01804e-09 -4.60708e-10 -5.89343e-09)
(5.39093e-09 6.31141e-10 -6.24894e-09)
(5.37713e-09 1.64779e-09 -6.72017e-09)
(4.84334e-09 2.53832e-09 -7.32475e-09)
(3.65748e-09 3.26065e-09 -8.07575e-09)
(5.03766e-10 -6.38783e-09 -5.77581e-09)
(1.52971e-09 -5.91489e-09 -5.79704e-09)
(2.55398e-09 -5.01422e-09 -5.84186e-09)
(3.54608e-09 -3.79225e-09 -5.92211e-09)
(4.47122e-09 -2.36559e-09 -6.05009e-09)
(5.27561e-09 -8.59321e-10 -6.24074e-09)
(5.88898e-09 6.12683e-10 -6.51221e-09)
(6.22816e-09 1.97615e-09 -6.87753e-09)
(6.19588e-09 3.17874e-09 -7.34356e-09)
(5.7093e-09 4.18193e-09 -7.9096e-09)
(4.86515e-10 -8.65652e-09 -6.53679e-09)
(1.48525e-09 -8.03322e-09 -6.5338e-09)
(2.50804e-09 -6.8436e-09 -6.532e-09)
(3.53674e-09 -5.23784e-09 -6.54996e-09)
(4.54218e-09 -3.39344e-09 -6.60625e-09)
(5.49087e-09 -1.46001e-09 -6.71692e-09)
(6.33189e-09 4.35593e-10 -6.89411e-09)
(6.99528e-09 2.17508e-09 -7.14938e-09)
(7.41487e-09 3.69896e-09 -7.48676e-09)
(7.52857e-09 4.98245e-09 -7.89394e-09)
(4.64558e-10 -1.15864e-08 -7.54763e-09)
(1.42675e-09 -1.07484e-08 -7.50501e-09)
(2.43739e-09 -9.17376e-09 -7.4351e-09)
(3.4904e-09 -7.06748e-09 -7.36355e-09)
(4.56489e-09 -4.69163e-09 -7.32322e-09)
(5.63132e-09 -2.26652e-09 -7.33522e-09)
(6.65726e-09 6.94275e-11 -7.4096e-09)
(7.59337e-09 2.21473e-09 -7.5492e-09)
(8.37282e-09 4.05994e-09 -7.75969e-09)
(8.94235e-09 5.58844e-09 -8.02207e-09)
(4.34738e-10 -1.54373e-08 -8.89368e-09)
(1.34727e-09 -1.42751e-08 -8.78442e-09)
(2.32994e-09 -1.21398e-08 -8.60132e-09)
(3.38873e-09 -9.36136e-09 -8.3981e-09)
(4.51336e-09 -6.30181e-09 -8.22314e-09)
(5.67633e-09 -3.26187e-09 -8.10645e-09)
(6.84015e-09 -4.38799e-10 -8.05917e-09)
(7.97109e-09 2.09126e-09 -8.07722e-09)
(8.99468e-09 4.22767e-09 -8.15101e-09)
(9.85556e-09 5.94415e-09 -8.27489e-09)
(3.94653e-10 -2.0557e-08 -1.0703e-08)
(1.234e-09 -1.8866e-08 -1.04692e-08)
(2.16892e-09 -1.58714e-08 -1.00915e-08)
(3.2146e-09 -1.2156e-08 -9.68584e-09)
(4.36747e-09 -8.22531e-09 -9.3258e-09)
(5.60185e-09 -4.44573e-09 -9.04352e-09)
(6.87398e-09 -1.04294e-09 -8.84245e-09)
(8.12577e-09 1.8644e-09 -8.71472e-09)
(9.27927e-09 4.22011e-09 -8.64152e-09)
(1.02775e-08 6.04527e-09 -8.62619e-09)
(3.38331e-10 -2.74401e-08 -1.31744e-08)
(1.07202e-09 -2.47868e-08 -1.26834e-08)
(1.93091e-09 -2.04529e-08 -1.19701e-08)
(2.94528e-09 -1.54228e-08 -1.12549e-08)
(4.11243e-09 -1.03834e-08 -1.06404e-08)
(5.39905e-09 -5.74471e-09 -1.01482e-08)
(6.75048e-09 -1.71806e-09 -9.7599e-09)
(8.09016e-09 1.59233e-09 -9.45071e-09)
(9.32121e-09 4.15266e-09 -9.20359e-09)
(1.03325e-08 5.97564e-09 -9.02583e-09)
(1.71031e-09 -1.71111e-09 -1.24287e-08)
(5.04163e-09 -1.52739e-09 -1.25975e-08)
(8.08305e-09 -1.23861e-09 -1.29357e-08)
(1.07505e-08 -8.83073e-10 -1.34538e-08)
(1.2916e-08 -4.83368e-10 -1.41767e-08)
(1.43668e-08 -6.68687e-11 -1.51487e-08)
(1.47721e-08 3.43632e-10 -1.64393e-08)
(1.36495e-08 7.26731e-10 -1.81579e-08)
(1.03243e-08 1.06469e-09 -2.0473e-08)
(3.87761e-09 1.33859e-09 -2.36524e-08)
(1.65004e-09 -5.19093e-09 -1.27872e-08)
(4.92648e-09 -4.70623e-09 -1.2944e-08)
(8.00079e-09 -3.8483e-09 -1.32585e-08)
(1.07324e-08 -2.76222e-09 -1.37453e-08)
(1.29952e-08 -1.54004e-09 -1.44298e-08)
(1.4597e-08 -2.58821e-10 -1.53506e-08)
(1.52349e-08 1.00612e-09 -1.65676e-08)
(1.44792e-08 2.19525e-09 -1.81736e-08)
(1.17489e-08 3.24732e-09 -2.02895e-08)
(6.33616e-09 4.09978e-09 -2.30732e-08)
(1.59784e-09 -8.86541e-09 -1.34984e-08)
(4.78865e-09 -8.13302e-09 -1.36342e-08)
(7.86459e-09 -6.75742e-09 -1.39104e-08)
(1.07027e-08 -4.91311e-09 -1.43379e-08)
(1.31457e-08 -2.82085e-09 -1.49463e-08)
(1.50275e-08 -6.259e-10 -1.57707e-08)
(1.61014e-08 1.55483e-09 -1.68596e-08)
(1.6015e-08 3.61247e-09 -1.82722e-08)
(1.43223e-08 5.44992e-09 -2.00773e-08)
(1.0525e-08 6.9765e-09 -2.2341e-08)
(1.54166e-09 -1.30387e-08 -1.45753e-08)
(4.65733e-09 -1.20248e-08 -1.46818e-08)
(7.72006e-09 -1.01224e-08 -1.4903e-08)
(1.06492e-08 -7.51318e-09 -1.52512e-08)
(1.33252e-08 -4.47216e-09 -1.57539e-08)
(1.55788e-08 -1.27877e-09 -1.64459e-08)
(1.7218e-08 1.8824e-09 -1.73658e-08)
(1.79811e-08 4.87556e-09 -1.85511e-08)
(1.75477e-08 7.57412e-09 -2.00294e-08)
(1.5594e-08 9.88044e-09 -2.18155e-08)
(1.48517e-09 -1.8033e-08 -1.60581e-08)
(4.51784e-09 -1.66959e-08 -1.61262e-08)
(7.57222e-09 -1.41496e-08 -1.6268e-08)
(1.05811e-08 -1.06903e-08 -1.65111e-08)
(1.34723e-08 -6.63997e-09 -1.68822e-08)
(1.61256e-08 -2.34151e-09 -1.74129e-08)
(1.83792e-08 1.89803e-09 -1.81419e-08)
(2.00442e-08 5.8869e-09 -1.90929e-08)
(2.08986e-08 9.49838e-09 -2.02723e-08)
(2.07499e-08 1.26478e-08 -2.1671e-08)
(1.42624e-09 -2.42378e-08 -1.80186e-08)
(4.36024e-09 -2.24846e-08 -1.80291e-08)
(7.38564e-09 -1.91384e-08 -1.80607e-08)
(1.04676e-08 -1.46151e-08 -1.81582e-08)
(1.35453e-08 -9.40432e-09 -1.83643e-08)
(1.65554e-08 -3.91439e-09 -1.87143e-08)
(1.93913e-08 1.51314e-09 -1.92335e-08)
(2.18904e-08 6.56587e-09 -1.99463e-08)
(2.39091e-08 1.11018e-08 -2.08611e-08)
(2.53209e-08 1.50754e-08 -2.19484e-08)
(1.35722e-09 -3.21494e-08 -2.057e-08)
(4.17261e-09 -2.98068e-08 -2.04874e-08)
(7.14476e-09 -2.54021e-08 -2.03612e-08)
(1.02707e-08 -1.95015e-08 -2.02527e-08)
(1.35099e-08 -1.28255e-08 -2.024e-08)
(1.68047e-08 -5.97778e-09 -2.03713e-08)
(2.01015e-08 6.70783e-10 -2.06689e-08)
(2.33031e-08 6.85637e-09 -2.11386e-08)
(2.62456e-08 1.22983e-08 -2.17999e-08)
(2.88269e-08 1.69763e-08 -2.26182e-08)
(1.27141e-09 -4.24318e-08 -2.38859e-08)
(3.94232e-09 -3.92047e-08 -2.36496e-08)
(6.82706e-09 -3.32697e-08 -2.32638e-08)
(9.95423e-09 -2.553e-08 -2.28572e-08)
(1.33114e-08 -1.69808e-08 -2.25446e-08)
(1.68446e-08 -8.44654e-09 -2.2396e-08)
(2.04783e-08 -4.62428e-10 -2.2437e-08)
(2.41633e-08 6.78056e-09 -2.26608e-08)
(2.77143e-08 1.30199e-08 -2.30485e-08)
(3.10103e-08 1.8218e-08 -2.36157e-08)
(1.16481e-09 -5.59801e-08 -2.82238e-08)
(3.64079e-09 -5.13205e-08 -2.7703e-08)
(6.39767e-09 -4.30513e-08 -2.68762e-08)
(9.4869e-09 -3.27601e-08 -2.60178e-08)
(1.29136e-08 -2.18327e-08 -2.53015e-08)
(1.66276e-08 -1.12789e-08 -2.48025e-08)
(2.05348e-08 -1.71648e-09 -2.45271e-08)
(2.45044e-08 6.53998e-09 -2.44576e-08)
(2.83435e-08 1.33496e-08 -2.45526e-08)
(3.19193e-08 1.88144e-08 -2.48606e-08)
(1.02353e-09 -7.40931e-08 -3.39831e-08)
(3.23394e-09 -6.68397e-08 -3.28791e-08)
(5.80277e-09 -5.49461e-08 -3.12997e-08)
(8.82083e-09 -4.10812e-08 -2.97617e-08)
(1.22933e-08 -2.7132e-08 -2.85052e-08)
(1.61487e-08 -1.42373e-08 -2.75782e-08)
(2.02628e-08 -2.98558e-09 -2.69348e-08)
(2.44498e-08 6.33902e-09 -2.65121e-08)
(2.84533e-08 1.36537e-08 -2.62656e-08)
(3.19483e-08 1.90141e-08 -2.62224e-08)
(2.84271e-09 -2.67669e-09 -1.85512e-08)
(8.41696e-09 -2.39485e-09 -1.87881e-08)
(1.36244e-08 -1.95307e-09 -1.92565e-08)
(1.84136e-08 -1.40907e-09 -1.99587e-08)
(2.26886e-08 -7.94771e-10 -2.0908e-08)
(2.62578e-08 -1.48807e-10 -2.21317e-08)
(2.88032e-08 4.98703e-10 -2.36724e-08)
(2.98555e-08 1.12131e-09 -2.55968e-08)
(2.87608e-08 1.70066e-09 -2.80054e-08)
(2.46568e-08 2.2212e-09 -3.10626e-08)
(2.73104e-09 -8.09103e-09 -1.90384e-08)
(8.18914e-09 -7.35087e-09 -1.92607e-08)
(1.34224e-08 -6.04254e-09 -1.97008e-08)
(1.8281e-08 -4.38497e-09 -2.03666e-08)
(2.26656e-08 -2.51152e-09 -2.12729e-08)
(2.64093e-08 -5.2954e-10 -2.24413e-08)
(2.92198e-08 1.45979e-09 -2.39052e-08)
(3.06811e-08 3.38434e-09 -2.57169e-08)
(3.02148e-08 5.17589e-09 -2.79318e-08)
(2.71112e-08 6.77358e-09 -3.06126e-08)
(2.62326e-09 -1.37211e-08 -1.99969e-08)
(7.8923e-09 -1.26104e-08 -2.01945e-08)
(1.30708e-08 -1.05241e-08 -2.05909e-08)
(1.80343e-08 -7.72304e-09 -2.11897e-08)
(2.26177e-08 -4.53137e-09 -2.20126e-08)
(2.66796e-08 -1.15297e-09 -2.3079e-08)
(2.99971e-08 2.25714e-09 -2.44131e-08)
(3.22222e-08 5.56313e-09 -2.6035e-08)
(3.29016e-08 8.65659e-09 -2.79543e-08)
(3.15164e-08 1.14515e-08 -3.01535e-08)
(2.50273e-09 -1.99739e-08 -2.1427e-08)
(7.58613e-09 -1.84476e-08 -2.15914e-08)
(1.26648e-08 -1.55832e-08 -2.19273e-08)
(1.76771e-08 -1.16468e-08 -2.24408e-08)
(2.25125e-08 -7.03916e-09 -2.31516e-08)
(2.7e-08 -2.15925e-09 -2.4082e-08)
(3.09721e-08 2.74474e-09 -2.52496e-08)
(3.41909e-08 7.50747e-09 -2.66567e-08)
(3.63346e-08 1.19874e-08 -2.82793e-08)
(3.70775e-08 1.6102e-08 -3.00622e-08)
(2.37974e-09 -2.72628e-08 -2.33527e-08)
(7.25936e-09 -2.52668e-08 -2.3476e-08)
(1.22392e-08 -2.14661e-08 -2.3727e-08)
(1.72666e-08 -1.62912e-08 -2.41317e-08)
(2.22998e-08 -1.0205e-08 -2.47094e-08)
(2.72387e-08 -3.69415e-09 -2.54797e-08)
(3.19324e-08 2.81852e-09 -2.64659e-08)
(3.62179e-08 9.09316e-09 -2.76635e-08)
(3.99068e-08 1.49996e-08 -2.90342e-08)
(4.28438e-08 2.04839e-08 -3.05139e-08)
(2.25585e-09 -3.60706e-08 -2.58228e-08)
(6.91183e-09 -3.348e-08 -2.58861e-08)
(1.17629e-08 -2.85344e-08 -2.60237e-08)
(1.67977e-08 -2.18338e-08 -2.62821e-08)
(2.19786e-08 -1.40796e-08 -2.66992e-08)
(2.72889e-08 -5.84598e-09 -2.73012e-08)
(3.26631e-08 2.39934e-09 -2.80966e-08)
(3.79457e-08 1.02458e-08 -2.90892e-08)
(4.3038e-08 1.75517e-08 -3.02586e-08)
(4.79014e-08 2.43281e-08 -3.15265e-08)
(2.12484e-09 -4.69934e-08 -2.89115e-08)
(6.54316e-09 -4.35733e-08 -2.88806e-08)
(1.12426e-08 -3.71349e-08 -2.88626e-08)
(1.62527e-08 -2.84886e-08 -2.89207e-08)
(2.15585e-08 -1.86599e-08 -2.91325e-08)
(2.71371e-08 -8.50252e-09 -2.95383e-08)
(3.30038e-08 1.48092e-09 -3.01459e-08)
(3.9121e-08 1.09568e-08 -3.09399e-08)
(4.53119e-08 1.95847e-08 -3.19233e-08)
(5.15733e-08 2.74209e-08 -3.30248e-08)
(1.9835e-09 -6.08133e-08 -3.27286e-08)
(6.1553e-09 -5.61662e-08 -3.25479e-08)
(1.06794e-08 -4.76007e-08 -3.22803e-08)
(1.56255e-08 -3.63888e-08 -3.20584e-08)
(2.10152e-08 -2.39422e-08 -3.19974e-08)
(2.6826e-08 -1.14281e-08 -3.21601e-08)
(3.30231e-08 4.12222e-10 -3.25577e-08)
(3.96511e-08 1.13585e-08 -3.31649e-08)
(4.65103e-08 2.10872e-08 -3.39343e-08)
(5.35341e-08 2.96551e-08 -3.48756e-08)
(1.83475e-09 -7.85724e-08 -3.74244e-08)
(5.73049e-09 -7.19709e-08 -3.69751e-08)
(1.00621e-08 -6.02031e-08 -3.6295e-08)
(1.49243e-08 -4.54711e-08 -3.56625e-08)
(2.0361e-08 -2.97327e-08 -3.52505e-08)
(2.63546e-08 -1.44271e-08 -3.51243e-08)
(3.28422e-08 -4.24649e-10 -3.52708e-08)
(3.97201e-08 1.18665e-08 -3.56473e-08)
(4.67899e-08 2.23e-08 -3.61773e-08)
(5.3951e-08 3.11575e-08 -3.69237e-08)
(1.66944e-09 -1.01797e-07 -4.32264e-08)
(5.24984e-09 -9.17172e-08 -4.22416e-08)
(9.35897e-09 -7.50382e-08 -4.08808e-08)
(1.41409e-08 -5.54173e-08 -3.96546e-08)
(1.96354e-08 -3.55245e-08 -3.87984e-08)
(2.57966e-08 -1.70099e-08 -3.83456e-08)
(3.25231e-08 -7.27571e-10 -3.82229e-08)
(3.96299e-08 1.29391e-08 -3.8328e-08)
(4.68037e-08 2.3922e-08 -3.85728e-08)
(5.35654e-08 3.2382e-08 -3.8965e-08)
(3.87202e-09 -3.49397e-09 -2.21105e-08)
(1.15152e-08 -3.14265e-09 -2.23756e-08)
(1.88132e-08 -2.59628e-09 -2.28924e-08)
(2.58114e-08 -1.92559e-09 -2.36485e-08)
(3.25274e-08 -1.16597e-09 -2.46339e-08)
(3.89013e-08 -3.60959e-10 -2.58406e-08)
(4.47829e-08 4.58694e-10 -2.72564e-08)
(4.99362e-08 1.26854e-09 -2.88625e-08)
(5.40404e-08 2.05663e-09 -3.06264e-08)
(5.67467e-08 2.82057e-09 -3.25021e-08)
(3.69852e-09 -1.05158e-08 -2.26199e-08)
(1.11378e-08 -9.60205e-09 -2.28721e-08)
(1.84201e-08 -7.99237e-09 -2.33645e-08)
(2.54501e-08 -5.95653e-09 -2.40906e-08)
(3.22319e-08 -3.64929e-09 -2.50431e-08)
(3.87268e-08 -1.18857e-09 -2.62094e-08)
(4.47925e-08 1.31904e-09 -2.75721e-08)
(5.02212e-08 3.80836e-09 -2.91064e-08)
(5.46923e-08 6.22808e-09 -3.07552e-08)
(5.7809e-08 8.54711e-09 -3.24241e-08)
(3.5122e-09 -1.76811e-08 -2.36132e-08)
(1.06079e-08 -1.63266e-08 -2.38444e-08)
(1.77139e-08 -1.37841e-08 -2.43023e-08)
(2.47643e-08 -1.0369e-08 -2.49765e-08)
(3.16545e-08 -6.46628e-09 -2.58675e-08)
(3.83555e-08 -2.30312e-09 -2.69635e-08)
(4.47889e-08 1.9605e-09 -2.82435e-08)
(5.07606e-08 6.19592e-09 -2.96635e-08)
(5.59911e-08 1.03206e-08 -3.11463e-08)
(6.01376e-08 1.42958e-08 -3.25657e-08)
(3.29566e-09 -2.54157e-08 -2.50704e-08)
(1.00237e-08 -2.35757e-08 -2.52762e-08)
(1.68532e-08 -2.01251e-08 -2.56898e-08)
(2.37934e-08 -1.53761e-08 -2.63045e-08)
(3.0803e-08 -9.7976e-09 -2.71199e-08)
(3.778e-08 -3.84628e-09 -2.81295e-08)
(4.46722e-08 2.21541e-09 -2.93126e-08)
(5.13822e-08 8.23806e-09 -3.0619e-08)
(5.77074e-08 1.41132e-08 -3.19588e-08)
(6.34371e-08 1.98233e-08 -3.32008e-08)
(3.06913e-09 -3.41247e-08 -2.69836e-08)
(9.38906e-09 -3.17491e-08 -2.7161e-08)
(1.59239e-08 -2.72279e-08 -2.75162e-08)
(2.26759e-08 -2.10635e-08 -2.80621e-08)
(2.96828e-08 -1.37863e-08 -2.87983e-08)
(3.69257e-08 -5.94674e-09 -2.97172e-08)
(4.43287e-08 1.99209e-09 -3.0809e-08)
(5.18317e-08 9.80086e-09 -3.20277e-08)
(5.9373e-08 1.74005e-08 -3.3282e-08)
(6.69043e-08 2.48195e-08 -3.44517e-08)
(2.84194e-09 -4.42538e-08 -2.93501e-08)
(8.72727e-09 -4.1214e-08 -2.94884e-08)
(1.49229e-08 -3.54132e-08 -2.97721e-08)
(2.14686e-08 -2.75427e-08 -3.02322e-08)
(2.83879e-08 -1.84036e-08 -3.0884e-08)
(3.57584e-08 -8.63625e-09 -3.17276e-08)
(4.36127e-08 1.25509e-09 -3.27401e-08)
(5.1852e-08 1.08468e-08 -3.38899e-08)
(6.04728e-08 2.00527e-08 -3.51183e-08)
(6.95969e-08 2.89925e-08 -3.62968e-08)
(2.61477e-09 -5.63202e-08 -3.21648e-08)
(8.06479e-09 -5.23715e-08 -3.22445e-08)
(1.39041e-08 -4.49343e-08 -3.24392e-08)
(2.02106e-08 -3.49324e-08 -3.27905e-08)
(2.70221e-08 -2.35265e-08 -3.33452e-08)
(3.43878e-08 -1.16738e-08 -3.41132e-08)
(4.24382e-08 9.23025e-11 -3.50733e-08)
(5.12485e-08 1.14513e-08 -3.61775e-08)
(6.06508e-08 2.20859e-08 -3.73952e-08)
(7.08045e-08 3.2175e-08 -3.8612e-08)
(2.39414e-09 -7.09717e-08 -3.54142e-08)
(7.43502e-09 -6.57022e-08 -3.54076e-08)
(1.29214e-08 -5.59751e-08 -3.54645e-08)
(1.89667e-08 -4.32099e-08 -3.5675e-08)
(2.56434e-08 -2.8995e-08 -3.61106e-08)
(3.29942e-08 -1.46384e-08 -3.6795e-08)
(4.10675e-08 -9.46652e-10 -3.77062e-08)
(5.00508e-08 1.19023e-08 -3.87912e-08)
(5.97866e-08 2.3618e-08 -3.9961e-08)
(7.02855e-08 3.43876e-08 -4.11944e-08)
(2.19666e-09 -8.90383e-08 -3.90608e-08)
(6.85484e-09 -8.17105e-08 -3.89081e-08)
(1.20239e-08 -6.85926e-08 -3.87482e-08)
(1.78302e-08 -5.20905e-08 -3.87653e-08)
(2.43664e-08 -3.43934e-08 -3.90654e-08)
(3.16803e-08 -1.71248e-08 -3.96691e-08)
(3.97934e-08 -1.24299e-09 -4.05267e-08)
(4.86941e-08 1.2859e-08 -4.1558e-08)
(5.82627e-08 2.51111e-08 -4.26406e-08)
(6.84393e-08 3.59727e-08 -4.38154e-08)
(2.02873e-09 -1.11735e-07 -4.3042e-08)
(6.3507e-09 -1.00833e-07 -4.26153e-08)
(1.12478e-08 -8.2604e-08 -4.21239e-08)
(1.68871e-08 -6.09731e-08 -4.18862e-08)
(2.33491e-08 -3.89294e-08 -4.20438e-08)
(3.06548e-08 -1.83673e-08 -4.25873e-08)
(3.87971e-08 -2.50741e-10 -4.34121e-08)
(4.76923e-08 1.50552e-08 -4.43715e-08)
(5.70854e-08 2.7589e-08 -4.53196e-08)
(6.6421e-08 3.76555e-08 -4.62137e-08)
(4.66079e-09 -4.22051e-09 -2.29622e-08)
(1.39103e-08 -3.8284e-09 -2.32258e-08)
(2.2893e-08 -3.22773e-09 -2.37345e-08)
(3.17676e-08 -2.49673e-09 -2.4466e-08)
(4.06797e-08 -1.66914e-09 -2.53965e-08)
(4.97136e-08 -7.88966e-10 -2.64982e-08)
(5.8893e-08 1.16367e-10 -2.77325e-08)
(6.82067e-08 1.02691e-09 -2.90468e-08)
(7.76296e-08 1.93641e-09 -3.03653e-08)
(8.72386e-08 2.85277e-09 -3.15863e-08)
(4.42074e-09 -1.26506e-08 -2.34078e-08)
(1.33595e-08 -1.16471e-08 -2.36615e-08)
(2.22536e-08 -9.89084e-09 -2.41526e-08)
(3.10856e-08 -7.68303e-09 -2.48638e-08)
(3.99766e-08 -5.18357e-09 -2.57735e-08)
(4.90263e-08 -2.50627e-09 -2.685e-08)
(5.82467e-08 2.48321e-10 -2.80512e-08)
(6.76275e-08 3.02712e-09 -2.93207e-08)
(7.70736e-08 5.79913e-09 -3.05659e-08)
(8.64299e-08 8.55795e-09 -3.16566e-08)
(4.13841e-09 -2.10985e-08 -2.42708e-08)
(1.25398e-08 -1.96392e-08 -2.45097e-08)
(2.10814e-08 -1.69048e-08 -2.49788e-08)
(2.97784e-08 -1.32374e-08 -2.56584e-08)
(3.8602e-08 -9.04914e-09 -2.65328e-08)
(4.76421e-08 -4.56494e-09 -2.75718e-08)
(5.69633e-08 6.83248e-11 -2.87314e-08)
(6.65118e-08 4.7407e-09 -2.99419e-08)
(7.61467e-08 9.39941e-09 -3.11004e-08)
(8.56372e-08 1.40465e-08 -3.20624e-08)
(3.79915e-09 -2.99657e-08 -2.55211e-08)
(1.15888e-08 -2.80147e-08 -2.57447e-08)
(1.96005e-08 -2.43637e-08 -2.61896e-08)
(2.79292e-08 -1.93381e-08 -2.68408e-08)
(3.66149e-08 -1.34288e-08 -2.76825e-08)
(4.56289e-08 -7.1051e-09 -2.86885e-08)
(5.50237e-08 -6.16853e-10 -2.98175e-08)
(6.48203e-08 5.91736e-09 -3.09987e-08)
(7.48903e-08 1.24263e-08 -3.21261e-08)
(8.50583e-08 1.89439e-08 -3.30647e-08)
(3.43411e-09 -3.96051e-08 -2.71305e-08)
(1.05321e-08 -3.7128e-08 -2.73409e-08)
(1.79548e-08 -3.24212e-08 -2.77595e-08)
(2.57686e-08 -2.60076e-08 -2.83879e-08)
(3.40956e-08 -1.84278e-08 -2.92114e-08)
(4.29969e-08 -1.0236e-08 -3.02039e-08)
(5.24521e-08 -1.89286e-09 -3.13347e-08)
(6.24657e-08 6.40097e-09 -3.25426e-08)
(7.3045e-08 1.46199e-08 -3.37278e-08)
(8.41456e-08 2.28505e-08 -3.47776e-08)
(3.06195e-09 -5.0379e-08 -2.90648e-08)
(9.42255e-09 -4.72635e-08 -2.92594e-08)
(1.61811e-08 -4.13271e-08 -2.96533e-08)
(2.343e-08 -3.32823e-08 -3.02638e-08)
(3.12537e-08 -2.39431e-08 -3.10878e-08)
(3.9812e-08 -1.39441e-08 -3.21072e-08)
(4.92121e-08 -3.77017e-09 -3.32814e-08)
(5.9364e-08 6.17559e-09 -3.45635e-08)
(7.02694e-08 1.58476e-08 -3.58945e-08)
(8.21021e-08 2.54479e-08 -3.71603e-08)
(2.69268e-09 -6.26763e-08 -3.1273e-08)
(8.31821e-09 -5.86997e-08 -3.14457e-08)
(1.43874e-08 -5.12222e-08 -3.18191e-08)
(2.10198e-08 -4.11851e-08 -3.2418e-08)
(2.82995e-08 -2.97591e-08 -3.32626e-08)
(3.63339e-08 -1.78962e-08 -3.43394e-08)
(4.53333e-08 -6.09862e-09 -3.56115e-08)
(5.54317e-08 5.35992e-09 -3.70201e-08)
(6.6378e-08 1.61828e-08 -3.85321e-08)
(7.83705e-08 2.66259e-08 -4.00552e-08)
(2.34401e-09 -7.69573e-08 -3.36787e-08)
(7.28576e-09 -7.17449e-08 -3.38236e-08)
(1.26856e-08 -6.21378e-08 -3.41652e-08)
(1.86822e-08 -4.9558e-08 -3.47608e-08)
(2.53856e-08 -3.55984e-08 -3.5646e-08)
(3.28889e-08 -2.15559e-08 -3.68129e-08)
(4.12964e-08 -8.20164e-09 -3.82169e-08)
(5.08717e-08 4.34779e-09 -3.97998e-08)
(6.14557e-08 1.58695e-08 -4.14632e-08)
(7.29667e-08 2.65714e-08 -4.32147e-08)
(2.0451e-09 -9.3787e-08 -3.61616e-08)
(6.37973e-09 -8.66739e-08 -3.62614e-08)
(1.11871e-08 -7.39423e-08 -3.65547e-08)
(1.65967e-08 -5.79595e-08 -3.71548e-08)
(2.27282e-08 -4.0908e-08 -3.81154e-08)
(2.96805e-08 -2.43991e-08 -3.94202e-08)
(3.75467e-08 -9.34215e-09 -4.09924e-08)
(4.6386e-08 3.95852e-09 -4.27313e-08)
(5.6147e-08 1.55474e-08 -4.45e-08)
(6.66231e-08 2.58771e-08 -4.63735e-08)
(1.81616e-09 -1.14008e-07 -3.85489e-08)
(5.66879e-09 -1.03645e-07 -3.85686e-08)
(9.99339e-09 -8.62533e-08 -3.88016e-08)
(1.49332e-08 -6.56323e-08 -3.94297e-08)
(2.05837e-08 -4.47635e-08 -4.05227e-08)
(2.70234e-08 -2.55432e-08 -4.20342e-08)
(3.43456e-08 -8.87597e-09 -4.38339e-08)
(4.26003e-08 5.0183e-09 -4.57418e-08)
(5.16543e-08 1.63665e-08 -4.75723e-08)
(6.09074e-08 2.55703e-08 -4.92615e-08)
(5.09841e-09 -4.90496e-09 -2.13567e-08)
(1.52583e-08 -4.49497e-09 -2.15972e-08)
(2.52489e-08 -3.88097e-09 -2.20591e-08)
(3.53204e-08 -3.14442e-09 -2.27201e-08)
(4.57098e-08 -2.31336e-09 -2.35578e-08)
(5.65872e-08 -1.42933e-09 -2.45495e-08)
(6.8054e-08 -5.14214e-10 -2.56715e-08)
(8.01637e-08 4.16809e-10 -2.69042e-08)
(9.29249e-08 1.35945e-09 -2.82384e-08)
(1.06407e-07 2.3247e-09 -2.96985e-08)
(4.79722e-09 -1.46536e-08 -2.1678e-08)
(1.45377e-08 -1.36281e-08 -2.19104e-08)
(2.43506e-08 -1.18506e-08 -2.23588e-08)
(3.42885e-08 -9.6395e-09 -2.30038e-08)
(4.45566e-08 -7.14764e-09 -2.38232e-08)
(5.53389e-08 -4.47455e-09 -2.4789e-08)
(6.67173e-08 -1.70868e-09 -2.58695e-08)
(7.87423e-08 1.10761e-09 -2.70316e-08)
(9.13454e-08 3.95812e-09 -2.82297e-08)
(1.0434e-07 6.84414e-09 -2.94088e-08)
(4.41627e-09 -2.42801e-08 -2.23001e-08)
(1.3418e-08 -2.28273e-08 -2.25201e-08)
(2.26818e-08 -2.01129e-08 -2.29513e-08)
(3.22974e-08 -1.6484e-08 -2.35731e-08)
(4.22939e-08 -1.23558e-08 -2.43645e-08)
(5.28334e-08 -7.93439e-09 -2.52951e-08)
(6.40513e-08 -3.34387e-09 -2.6325e-08)
(7.59343e-08 1.32508e-09 -2.73967e-08)
(8.83474e-08 6.03985e-09 -2.84307e-08)
(1.01024e-07 1.08192e-08 -2.93146e-08)
(3.94622e-09 -3.41532e-08 -2.31977e-08)
(1.20693e-08 -3.22497e-08 -2.34065e-08)
(2.05199e-08 -2.87007e-08 -2.38207e-08)
(2.94691e-08 -2.38194e-08 -2.4425e-08)
(3.90211e-08 -1.80864e-08 -2.51984e-08)
(4.91907e-08 -1.19538e-08 -2.61087e-08)
(6.00756e-08 -5.64559e-09 -2.71119e-08)
(7.17338e-08 7.51681e-10 -2.8141e-08)
(8.40188e-08 7.19112e-09 -2.91e-08)
(9.66899e-08 1.3724e-08 -2.98679e-08)
(3.42789e-09 -4.45769e-08 -2.43455e-08)
(1.05401e-08 -4.22084e-08 -2.45465e-08)
(1.80605e-08 -3.77189e-08 -2.4947e-08)
(2.61138e-08 -3.16186e-08 -2.55456e-08)
(3.48872e-08 -2.44177e-08 -2.63242e-08)
(4.44933e-08 -1.66356e-08 -2.72501e-08)
(5.49203e-08 -8.70791e-09 -2.82828e-08)
(6.61668e-08 -8.05626e-10 -2.93586e-08)
(7.82209e-08 7.08298e-09 -3.03857e-08)
(9.09384e-08 1.50584e-08 -3.12658e-08)
(2.88875e-09 -5.58503e-08 -2.57117e-08)
(8.91196e-09 -5.29258e-08 -2.59045e-08)
(1.53822e-08 -4.73689e-08 -2.62976e-08)
(2.24359e-08 -3.98718e-08 -2.69053e-08)
(3.02057e-08 -3.12057e-08 -2.77202e-08)
(3.88995e-08 -2.19545e-08 -2.8718e-08)
(4.86525e-08 -1.25502e-08 -2.98498e-08)
(5.9322e-08 -3.36619e-09 -3.10606e-08)
(7.08144e-08 5.55981e-09 -3.22963e-08)
(8.32346e-08 1.44683e-08 -3.34696e-08)
(2.34819e-09 -6.82804e-08 -2.7252e-08)
(7.27219e-09 -6.46058e-08 -2.74327e-08)
(1.26404e-08 -5.77288e-08 -2.78251e-08)
(1.86041e-08 -4.85575e-08 -2.84577e-08)
(2.52804e-08 -3.8203e-08 -2.93451e-08)
(3.28093e-08 -2.75442e-08 -3.04654e-08)
(4.14257e-08 -1.7014e-08 -3.17744e-08)
(5.12511e-08 -6.8255e-09 -3.3208e-08)
(6.18642e-08 2.71791e-09 -3.47318e-08)
(7.33643e-08 1.18907e-08 -3.62885e-08)
(1.83376e-09 -8.22303e-08 -2.89085e-08)
(5.71389e-09 -7.7472e-08 -2.90698e-08)
(9.9963e-09 -6.87604e-08 -2.94529e-08)
(1.48312e-08 -5.74662e-08 -3.01253e-08)
(2.03503e-08 -4.5098e-08 -3.11208e-08)
(2.66755e-08 -3.28482e-08 -3.24206e-08)
(3.39262e-08 -2.13855e-08 -3.39658e-08)
(4.23568e-08 -1.07562e-08 -3.56935e-08)
(5.17514e-08 -1.10533e-09 -3.75062e-08)
(6.17728e-08 7.67883e-09 -3.94397e-08)
(1.38212e-09 -9.81556e-08 -3.06062e-08)
(4.32115e-09 -9.17098e-08 -3.07229e-08)
(7.60917e-09 -8.02733e-08 -3.10755e-08)
(1.13623e-08 -6.61231e-08 -3.17981e-08)
(1.57092e-08 -5.13247e-08 -3.29487e-08)
(2.07799e-08 -3.73484e-08 -3.4497e-08)
(2.67115e-08 -2.49461e-08 -3.63447e-08)
(3.35918e-08 -1.42777e-08 -3.83719e-08)
(4.14007e-08 -5.16348e-09 -4.04376e-08)
(4.96098e-08 2.66354e-09 -4.26382e-08)
(1.01986e-09 -1.1678e-07 -3.22619e-08)
(3.18644e-09 -1.07409e-07 -3.2274e-08)
(5.62061e-09 -9.18619e-08 -3.2559e-08)
(8.41621e-09 -7.3785e-08 -3.33501e-08)
(1.16659e-08 -5.60016e-08 -3.47242e-08)
(1.54915e-08 -4.0221e-08 -3.66117e-08)
(2.00726e-08 -2.71227e-08 -3.8847e-08)
(2.55913e-08 -1.66641e-08 -4.12146e-08)
(3.20558e-08 -8.37427e-09 -4.34997e-08)
(3.88273e-08 -1.82712e-09 -4.5625e-08)
(5.14071e-09 -5.54869e-09 -1.78147e-08)
(1.54229e-08 -5.13606e-09 -1.80161e-08)
(2.56429e-08 -4.53531e-09 -1.84025e-08)
(3.61121e-08 -3.82755e-09 -1.89568e-08)
(4.71173e-08 -3.03163e-09 -1.96663e-08)
(5.88545e-08 -2.18375e-09 -2.0525e-08)
(7.14142e-08 -1.29768e-09 -2.15403e-08)
(8.4772e-08 -3.82284e-10 -2.275e-08)
(9.87409e-08 5.59912e-10 -2.42499e-08)
(1.12992e-07 1.54181e-09 -2.62588e-08)
(4.7944e-09 -1.6534e-08 -1.79741e-08)
(1.45676e-08 -1.55304e-08 -1.81666e-08)
(2.45249e-08 -1.38115e-08 -1.85385e-08)
(3.47772e-08 -1.17009e-08 -1.90726e-08)
(4.55785e-08 -9.3342e-09 -1.97535e-08)
(5.71457e-08 -6.78702e-09 -2.05667e-08)
(6.95602e-08 -4.12828e-09 -2.15025e-08)
(8.28252e-08 -1.38581e-09 -2.25657e-08)
(9.67548e-08 1.44111e-09 -2.3776e-08)
(1.10953e-07 4.35938e-09 -2.51691e-08)
(4.33061e-09 -2.72564e-08 -1.82863e-08)
(1.31947e-08 -2.58798e-08 -1.84636e-08)
(2.24283e-08 -2.33154e-08 -1.88115e-08)
(3.21876e-08 -1.98981e-08 -1.93132e-08)
(4.25455e-08 -1.60269e-08 -1.99482e-08)
(5.37005e-08 -1.18726e-08 -2.06916e-08)
(6.58087e-08 -7.52445e-09 -2.1513e-08)
(7.88428e-08 -3.04582e-09 -2.23691e-08)
(9.26235e-08 1.55429e-09 -2.31976e-08)
(1.06841e-07 6.30908e-09 -2.38885e-08)
(3.7469e-09 -3.80525e-08 -1.87427e-08)
(1.14958e-08 -3.62908e-08 -1.8904e-08)
(1.96641e-08 -3.302e-08 -1.92235e-08)
(2.84914e-08 -2.85216e-08 -1.96905e-08)
(3.81369e-08 -2.32395e-08 -2.02841e-08)
(4.86484e-08 -1.75832e-08 -2.09683e-08)
(6.0145e-08 -1.17328e-08 -2.16947e-08)
(7.26992e-08 -5.73068e-09 -2.23919e-08)
(8.6154e-08 4.05589e-10 -2.29512e-08)
(1.00267e-07 6.7412e-09 -2.3213e-08)
(3.09149e-09 -4.91876e-08 -1.93358e-08)
(9.54095e-09 -4.70439e-08 -1.94808e-08)
(1.64669e-08 -4.29912e-08 -1.97726e-08)
(2.40542e-08 -3.75017e-08 -2.02116e-08)
(3.25494e-08 -3.10248e-08 -2.0782e-08)
(4.21123e-08 -2.4012e-08 -2.14462e-08)
(5.27397e-08 -1.68478e-08 -2.21467e-08)
(6.44269e-08 -9.65669e-09 -2.28008e-08)
(7.71632e-08 -2.38169e-09 -2.32942e-08)
(9.07701e-08 5.08697e-09 -2.34856e-08)
(2.39954e-09 -6.0923e-08 -2.00559e-08)
(7.43734e-09 -5.83228e-08 -2.01802e-08)
(1.29553e-08 -5.33997e-08 -2.04432e-08)
(1.91401e-08 -4.67984e-08 -2.08644e-08)
(2.61778e-08 -3.92094e-08 -2.14403e-08)
(3.43225e-08 -3.11275e-08 -2.21415e-08)
(4.37393e-08 -2.28977e-08 -2.29042e-08)
(5.42531e-08 -1.48379e-08 -2.36438e-08)
(6.56997e-08 -6.96885e-09 -2.42715e-08)
(7.81481e-08 9.86921e-10 -2.4676e-08)
(1.69984e-09 -7.35326e-08 -2.0893e-08)
(5.29873e-09 -7.02998e-08 -2.09837e-08)
(9.32633e-09 -6.42961e-08 -2.12079e-08)
(1.39754e-08 -5.63719e-08 -2.16145e-08)
(1.94078e-08 -4.75369e-08 -2.22273e-08)
(2.58037e-08 -3.85468e-08 -2.30215e-08)
(3.34248e-08 -2.97233e-08 -2.39355e-08)
(4.23891e-08 -2.11864e-08 -2.48787e-08)
(5.21407e-08 -1.32292e-08 -2.57747e-08)
(6.26951e-08 -5.55548e-09 -2.65503e-08)
(1.02903e-09 -8.73663e-08 -2.18451e-08)
(3.24107e-09 -8.3185e-08 -2.18718e-08)
(5.78549e-09 -7.56247e-08 -2.20189e-08)
(8.83701e-09 -6.59982e-08 -2.23992e-08)
(1.25634e-08 -5.56877e-08 -2.30723e-08)
(1.71299e-08 -4.57175e-08 -2.40185e-08)
(2.26822e-08 -3.65931e-08 -2.51573e-08)
(2.94677e-08 -2.82514e-08 -2.63934e-08)
(3.72361e-08 -2.0733e-08 -2.76077e-08)
(4.54168e-08 -1.40202e-08 -2.87915e-08)
(4.28703e-10 -1.02912e-07 -2.29352e-08)
(1.37493e-09 -9.7179e-08 -2.28225e-08)
(2.53443e-09 -8.72031e-08 -2.28085e-08)
(4.028e-09 -7.52114e-08 -2.31251e-08)
(6.01213e-09 -6.31133e-08 -2.38797e-08)
(8.66653e-09 -5.21507e-08 -2.50412e-08)
(1.21869e-08 -4.28299e-08 -2.64836e-08)
(1.67007e-08 -3.5107e-08 -2.80489e-08)
(2.22269e-08 -2.86421e-08 -2.95773e-08)
(2.79355e-08 -2.3362e-08 -3.10979e-08)
(-7.08693e-11 -1.21007e-07 -2.42526e-08)
(-1.90632e-10 -1.12446e-07 -2.38191e-08)
(-2.53825e-10 -9.8666e-08 -2.34768e-08)
(-1.94279e-10 -8.33125e-08 -2.36675e-08)
(1.03796e-10 -6.89994e-08 -2.45392e-08)
(8.30206e-10 -5.71066e-08 -2.60025e-08)
(2.26982e-09 -4.7951e-08 -2.78412e-08)
(4.74482e-09 -4.11452e-08 -2.97951e-08)
(8.40122e-09 -3.59608e-08 -3.16239e-08)
(1.2563e-08 -3.19876e-08 -3.32237e-08)
(4.79859e-09 -6.11511e-09 -1.30319e-08)
(1.44388e-08 -5.70927e-09 -1.31894e-08)
(2.41381e-08 -5.13808e-09 -1.34897e-08)
(3.42495e-08 -4.47727e-09 -1.39232e-08)
(4.50887e-08 -3.73378e-09 -1.44863e-08)
(5.6858e-08 -2.93535e-09 -1.51866e-08)
(6.96134e-08 -2.0846e-09 -1.60547e-08)
(8.32203e-08 -1.18072e-09 -1.7169e-08)
(9.72374e-08 -2.207e-10 -1.86999e-08)
(1.10802e-07 8.15808e-10 -2.1011e-08)
(4.42988e-09 -1.8183e-08 -1.30154e-08)
(1.35058e-08 -1.72268e-08 -1.31632e-08)
(2.28767e-08 -1.56122e-08 -1.34437e-08)
(3.27106e-08 -1.36549e-08 -1.38483e-08)
(4.32972e-08 -1.14635e-08 -1.43666e-08)
(5.48726e-08 -9.0801e-09 -1.49946e-08)
(6.75091e-08 -6.54446e-09 -1.57369e-08)
(8.11579e-08 -3.85974e-09 -1.662e-08)
(9.55176e-08 -9.97201e-10 -1.77e-08)
(1.10006e-07 2.0701e-09 -1.90583e-08)
(3.91261e-09 -2.98447e-08 -1.29916e-08)
(1.19677e-08 -2.85823e-08 -1.31175e-08)
(2.04927e-08 -2.62352e-08 -1.33615e-08)
(2.97114e-08 -2.31111e-08 -1.37155e-08)
(3.97484e-08 -1.95737e-08 -1.41578e-08)
(5.08386e-08 -1.57413e-08 -1.4666e-08)
(6.31677e-08 -1.16519e-08 -1.52121e-08)
(7.67287e-08 -7.3245e-09 -1.57518e-08)
(9.13712e-08 -2.72602e-09 -1.6213e-08)
(1.06891e-07 2.21243e-09 -1.64466e-08)
(3.25204e-09 -4.13939e-08 -1.29723e-08)
(1.00261e-08 -3.98214e-08 -1.30713e-08)
(1.73091e-08 -3.69113e-08 -1.32669e-08)
(2.54121e-08 -3.28958e-08 -1.35538e-08)
(3.45601e-08 -2.81576e-08 -1.39114e-08)
(4.48579e-08 -2.30368e-08 -1.42973e-08)
(5.64781e-08 -1.76445e-08 -1.46512e-08)
(6.95667e-08 -1.19552e-08 -1.48823e-08)
(8.40712e-08 -5.93238e-09 -1.48442e-08)