/*--------------------------------*- C++ -*----------------------------------*\
| =========                 |                                                 |
| \\      /  F ield         | foam-extend: Open Source CFD                    |
|  \\    /   O peration     | Version:     3.1                                |
|   \\  /    A nd           | Web:         http://www.extend-project.de       |
|    \\/     M anipulation  |                                                 |
\*---------------------------------------------------------------------------*/
FoamFile
{
    version     2.0;
    format      ascii;
    class       surfaceScalarField;
    location    "0.001";
    object      meshPhi;
}
// * * * * * * * * * * * * * * * * * * * * * * * * * * * * * * * * * * * * * //

dimensions      [0 3 -1 0 0 0 0];

internalField   nonuniform List<scalar> 
45800
(
2.0357e-10
2.04046e-10
1.78544e-10
3.9125e-10
2.01669e-10
1.83112e-10
5.57698e-10
1.9568e-10
1.94763e-10
7.02093e-10
1.88399e-10
2.12833e-10
8.24143e-10
1.80551e-10
2.36823e-10
9.23079e-10
1.72248e-10
2.66313e-10
9.97664e-10
1.63607e-10
3.00877e-10
1.04629e-09
1.54777e-10
3.39952e-10
1.06714e-09
1.45902e-10
3.82688e-10
1.35904e-10
4.28015e-10
1.05859e-09
2.01188e-10
3.91377e-10
1.83078e-10
3.88908e-10
3.89345e-10
1.87194e-10
5.57337e-10
3.80672e-10
1.98121e-10
7.04004e-10
3.68281e-10
2.15243e-10
8.28029e-10
3.54093e-10
2.38088e-10
9.28654e-10
3.3879e-10
2.66249e-10
1.00469e-09
3.22651e-10
2.99298e-10
1.05461e-09
3.05972e-10
3.3665e-10
1.07676e-09
2.88921e-10
3.7739e-10
2.69246e-10
4.20133e-10
1.06984e-09
1.95479e-10
5.5729e-10
1.94706e-10
3.80195e-10
5.57241e-10
1.98079e-10
5.48582e-10
5.48906e-10
2.07885e-10
6.96758e-10
5.34378e-10
2.23587e-10
8.22525e-10
5.15985e-10
2.44745e-10
9.24758e-10
4.9538e-10
2.70984e-10
1.00232e-09
4.73266e-10
3.01889e-10
1.05369e-09
4.49985e-10
3.36842e-10
1.07747e-09
4.25785e-10
3.74887e-10
3.9743e-10
4.14505e-10
1.07313e-09
1.88458e-10
7.01471e-10
2.12778e-10
3.68135e-10
7.0351e-10
2.15186e-10
5.33991e-10
6.96633e-10
2.23549e-10
6.81886e-10
6.8218e-10
2.37437e-10
8.08622e-10
6.61852e-10
2.56465e-10
9.12104e-10
6.37559e-10
2.80285e-10
9.90908e-10
6.10784e-10
3.08521e-10
1.04357e-09
5.82194e-10
3.40569e-10
1.06889e-09
5.51998e-10
3.75492e-10
5.16245e-10
4.11668e-10
1.06744e-09
1.80651e-10
8.23469e-10
2.36782e-10
3.54213e-10
8.27433e-10
2.38043e-10
5.159e-10
8.22116e-10
2.44697e-10
6.61492e-10
8.08578e-10
2.5643e-10
7.87659e-10
7.88023e-10
2.72948e-10
8.9166e-10
7.61789e-10
2.93956e-10
9.71277e-10
7.31516e-10
3.19109e-10
1.02478e-09
6.98584e-10
3.47863e-10
1.05115e-09
6.63486e-10
3.7936e-10
6.21797e-10
4.1186e-10
1.05244e-09
1.72333e-10
9.22405e-10
2.6629e-10
3.38957e-10
9.28056e-10
2.66221e-10
4.95535e-10
9.24289e-10
2.70946e-10
6.37499e-10
9.11846e-10
2.80243e-10
7.61375e-10
8.91786e-10
2.93926e-10
8.64507e-10
8.65077e-10
3.1179e-10
9.44237e-10
8.32746e-10
3.33534e-10
9.98059e-10
7.96323e-10
3.58666e-10
1.0248e-09
7.57047e-10
3.86428e-10
7.1084e-10
4.14979e-10
1.0283e-09
1.63686e-10
9.97043e-10
3.00868e-10
3.22804e-10
1.00414e-09
2.99285e-10
4.73485e-10
1.00188e-09
3.01867e-10
6.11015e-10
9.90617e-10
3.08492e-10
7.31492e-10
9.71173e-10
3.19073e-10
8.32171e-10
9.44512e-10
3.33492e-10
9.1071e-10
9.11373e-10
3.51525e-10
9.64213e-10
8.72787e-10
3.72723e-10
9.90752e-10
8.30192e-10
3.96354e-10
7.80868e-10
4.2059e-10
9.95705e-10
1.5485e-10
1.04577e-09
3.39957e-10
3.06114e-10
1.05415e-09
3.36648e-10
4.50194e-10
1.05334e-09
3.36831e-10
5.82488e-10
1.04333e-09
3.40547e-10
6.98892e-10
1.02463e-09
3.47823e-10
7.96216e-10
9.98049e-10
3.58581e-10
8.72224e-10
9.64471e-10
3.7263e-10
9.24417e-10
9.2486e-10
3.89497e-10
9.5035e-10
8.80472e-10
4.08477e-10
8.301e-10
4.2793e-10
9.56055e-10
1.45964e-10
1.06675e-09
3.82704e-10
2.89039e-10
1.07643e-09
3.77399e-10
4.25954e-10
1.07723e-09
3.74884e-10
5.52222e-10
1.06875e-09
3.75471e-10
6.63774e-10
1.05109e-09
3.79315e-10
7.57219e-10
1.0248e-09
3.8633e-10
8.30038e-10
9.9082e-10
3.96227e-10
8.80171e-10
9.50535e-10
4.08409e-10
9.05546e-10
9.05792e-10
4.22173e-10
8.57647e-10
4.36039e-10
9.12038e-10
1.35949e-10
4.28041e-10
1.05836e-09
2.69332e-10
4.20152e-10
1.06965e-09
3.97551e-10
4.14511e-10
1.07301e-09
5.16393e-10
4.11658e-10
1.0674e-09
6.21962e-10
4.11827e-10
1.05246e-09
7.10988e-10
4.14914e-10
1.02835e-09
7.80938e-10
4.20512e-10
9.95785e-10
8.30071e-10
4.27874e-10
9.56167e-10
8.57524e-10
4.36004e-10
9.12206e-10
4.43514e-10
8.67342e-10
8.67501e-10
6.13445e-10
6.14845e-10
3.00442e-10
1.17982e-09
6.08015e-10
3.09272e-10
1.68386e-09
5.90485e-10
3.30997e-10
2.12394e-09
5.69313e-10
3.64512e-10
2.50001e-09
5.46732e-10
4.0894e-10
2.81062e-09
5.231e-10
4.6356e-10
3.053e-09
4.98817e-10
5.27639e-10
3.22332e-09
4.74404e-10
6.00202e-10
3.31714e-09
4.50406e-10
6.79716e-10
4.23903e-10
7.64155e-10
3.33049e-09
6.06589e-10
1.18014e-09
3.09205e-10
1.17345e-09
1.17469e-09
3.17241e-10
1.68378e-09
1.14963e-09
3.37676e-10
2.131e-09
1.11383e-09
3.69478e-10
2.5133e-09
1.07314e-09
4.11828e-10
2.82929e-09
1.02975e-09
4.64032e-10
3.07633e-09
9.84559e-10
5.25355e-10
3.25076e-09
9.38618e-10
5.94771e-10
3.34855e-09
8.9263e-10
6.70632e-10
8.40376e-10
7.50318e-10
3.36603e-09
5.89895e-10
1.68256e-09
3.30886e-10
1.14824e-09
1.68339e-09
3.37593e-10
1.65901e-09
1.65988e-09
3.56023e-10
2.11124e-09
1.61841e-09
3.85266e-10
2.49918e-09
1.566e-09
4.24555e-10
2.82035e-09
1.50784e-09
4.7326e-10
3.07222e-09
1.44622e-09
5.30675e-10
3.25112e-09
1.38238e-09
5.95704e-10
3.35364e-09
1.31733e-09
6.66616e-10
1.24209e-09
7.40557e-10
3.37809e-09
5.69528e-10
2.122e-09
3.64407e-10
1.11343e-09
2.12941e-09
3.69366e-10
1.61732e-09
2.11073e-09
3.85187e-10
2.06942e-09
2.07015e-09
4.11157e-10
2.46083e-09
2.01284e-09
4.4659e-10
2.78615e-09
1.94466e-09
4.90892e-10
3.04204e-09
1.87038e-09
5.43429e-10
3.22493e-09
1.79233e-09
6.03137e-10
3.3319e-09
1.71149e-09
6.68302e-10
1.61682e-09
7.35914e-10
3.36436e-09
5.47079e-10
2.49791e-09
4.08864e-10
1.07358e-09
2.51142e-09
4.11742e-10
1.56582e-09
2.49782e-09
4.2446e-10
2.01186e-09
2.46051e-09
4.46517e-10
2.40237e-09
2.40327e-09
4.77402e-10
2.72983e-09
2.33028e-09
5.16592e-10
2.9885e-09
2.24667e-09
5.63492e-10
3.17406e-09
2.15703e-09
6.17141e-10
3.28417e-09
2.06341e-09
6.75983e-10
1.95337e-09
7.36824e-10
3.32432e-09
5.23401e-10
2.80852e-09
4.63515e-10
1.03034e-09
2.8274e-09
4.63979e-10
1.50841e-09
2.81881e-09
4.73188e-10
1.94458e-09
2.7852e-09
4.90807e-10
2.32916e-09
2.72996e-09
5.16527e-10
2.65487e-09
2.65633e-09
5.49996e-10
2.91442e-09
2.56763e-09
5.90666e-10
3.10117e-09
2.46872e-09
6.37645e-10
3.2124e-09
2.36408e-09
6.89562e-10
2.24241e-09
7.43103e-10
3.25874e-09
4.99098e-10
3.05106e-09
5.27621e-10
9.85104e-10
3.07459e-09
5.25328e-10
1.447e-09
3.07079e-09
5.30633e-10
1.87121e-09
3.041e-09
5.43374e-10
2.24669e-09
2.98795e-09
5.63416e-10
2.56599e-09
2.9149e-09
5.90571e-10
2.82279e-09
2.82451e-09
6.24446e-10
3.00895e-09
2.72008e-09
6.6418e-10
3.11948e-09
2.60646e-09
7.08411e-10
2.47659e-09
7.5393e-10
3.16973e-09
4.74667e-10
3.2217e-09
6.00209e-10
9.39128e-10
3.24931e-09
5.94767e-10
1.38313e-09
3.24994e-09
5.95682e-10
1.79338e-09
3.22403e-09
6.03095e-10
2.15811e-09
3.17339e-09
6.17066e-10
2.46844e-09
3.10079e-09
6.37472e-10
2.71845e-09
3.00932e-09
6.63986e-10
2.90103e-09
2.9021e-09
6.95709e-10
3.00943e-09
2.78332e-09
7.31274e-10
2.65034e-09
7.67856e-10
3.06118e-09
4.50634e-10
3.31594e-09
6.79744e-10
8.93065e-10
3.3475e-09
6.70648e-10
1.31795e-09
3.3528e-09
6.66609e-10
1.71232e-09
3.3313e-09
6.68264e-10
2.06446e-09
3.28375e-09
6.75901e-10
2.36471e-09
3.21209e-09
6.89375e-10
2.60605e-09
3.11934e-09
7.08158e-10
2.78251e-09
3.00968e-09
7.31133e-10
2.88824e-09
2.88878e-09
7.56931e-10
2.76016e-09
7.83038e-10
2.94026e-09
4.2408e-10
7.64201e-10
3.32975e-09
8.40713e-10
7.50351e-10
3.3654e-09
1.24256e-09
7.40568e-10
3.37762e-09
1.61741e-09
7.35894e-10
3.36406e-09
1.95401e-09
7.36763e-10
3.32415e-09
2.24298e-09
7.42981e-10
3.25867e-09
2.47691e-09
7.53782e-10
3.16973e-09
2.65032e-09
7.67746e-10
3.06128e-09
2.75984e-09
7.82964e-10
2.94054e-09
7.97018e-10
2.81714e-09
2.81747e-09
1.02364e-09
1.02588e-09
3.15897e-10
1.9712e-09
1.01537e-09
3.28451e-10
2.8196e-09
9.87625e-10
3.57541e-10
3.56844e-09
9.54549e-10
4.01867e-10
4.21992e-09
9.19958e-10
4.60425e-10
4.77397e-09
8.84528e-10
5.32449e-10
5.22849e-09
8.49059e-10
6.17204e-10
5.57961e-09
8.1462e-10
7.1368e-10
5.8222e-09
7.82393e-10
8.20165e-10
7.48026e-10
9.34259e-10
5.95139e-09
1.01307e-09
1.97156e-09
3.28362e-10
1.96234e-09
1.96423e-09
3.39917e-10
2.82207e-09
1.92546e-09
3.67384e-10
3.58357e-09
1.87015e-09
4.09544e-10
4.2462e-09
1.80826e-09
4.65467e-10
4.80996e-09
1.74368e-09
5.34419e-10
5.27297e-09
1.67819e-09
6.15654e-10
5.6315e-09
1.61391e-09
7.08085e-10
5.8808e-09
1.55249e-09
8.09819e-10
1.48434e-09
9.17615e-10
6.01498e-09
9.86719e-10
2.81722e-09
3.57394e-10
1.92331e-09
2.82115e-09
3.67272e-10
2.78524e-09
2.78639e-09
3.92214e-10
3.55638e-09
2.72373e-09
4.31149e-10
4.22944e-09
2.645e-09
4.83201e-10
4.80272e-09
2.55926e-09
5.47715e-10
5.2744e-09
2.47088e-09
6.23974e-10
5.64053e-09
2.38242e-09
7.10775e-10
5.89714e-09
2.29617e-09
8.06091e-10
2.19809e-09
9.06334e-10
6.04074e-09
9.55026e-10
3.56498e-09
4.01729e-10
1.86967e-09
3.58066e-09
4.09394e-10
2.72217e-09
3.55515e-09
4.31042e-10
3.49499e-09
3.49582e-09
4.65852e-10
4.17537e-09
3.4114e-09
5.13037e-10
4.75665e-09
3.31207e-09
5.71974e-10
5.2357e-09
3.2065e-09
6.42025e-10
5.60859e-09
3.09942e-09
7.2201e-10
5.87203e-09
2.99319e-09
8.09903e-10
2.87021e-09
9.01873e-10
6.02691e-09
9.20676e-10
4.2162e-09
4.60323e-10
1.80924e-09
4.2428e-09
4.65352e-10
2.64498e-09
4.2268e-09
4.83072e-10
3.41012e-09
4.17433e-09
5.12937e-10
4.09111e-09
4.09209e-09
5.5438e-10
4.67752e-09
3.98749e-09
6.06849e-10
5.16205e-09
3.86975e-09
6.69728e-10
5.5397e-09
3.74752e-09
7.41961e-10
5.80802e-09
3.62547e-09
8.21706e-10
3.48333e-09
9.04863e-10
5.97387e-09
8.85168e-10
4.77025e-09
5.32386e-10
1.74493e-09
4.80655e-09
5.34346e-10
2.56057e-09
4.7998e-09
5.47618e-10
3.31229e-09
4.75457e-09
5.71857e-10
3.98604e-09
4.67709e-09
6.06756e-10
4.57173e-09
4.57355e-09
6.51979e-10
5.05914e-09
4.45015e-09
7.06943e-10
5.43924e-09
4.31584e-09
7.70636e-10
5.70915e-09
4.17958e-09
8.41447e-10
4.02307e-09
9.15105e-10
5.88358e-09
8.4966e-10
5.22505e-09
6.17175e-10
1.67937e-09
5.26981e-09
6.15615e-10
2.47256e-09
5.27167e-09
6.23916e-10
3.20833e-09
5.23349e-09
6.41949e-10
3.87015e-09
5.16049e-09
6.6962e-10
4.44777e-09
5.05907e-09
7.068e-10
4.93258e-09
4.93475e-09
7.53106e-10
5.31245e-09
4.79362e-09
8.07508e-10
5.58053e-09
4.64491e-09
8.6836e-10
4.47756e-09
9.31534e-10
5.75948e-09
8.15187e-10
5.57673e-09
7.13683e-10
1.61502e-09
5.62884e-09
7.08076e-10
2.38404e-09
5.6382e-09
7.10743e-10
3.10164e-09
5.60659e-09
7.21954e-10
3.74981e-09
5.53791e-09
7.41858e-10
4.31559e-09
5.43767e-09
7.70388e-10
4.79117e-09
5.31199e-09
8.07232e-10
5.16556e-09
5.16663e-09
8.51275e-10
5.42865e-09
5.00943e-09
9.00807e-10
4.83674e-09
9.52198e-10
5.60711e-09
7.82898e-10
5.82005e-09
8.20196e-10
1.55346e-09
5.87884e-09
8.09836e-10
2.29757e-09
5.89541e-09
8.06079e-10
2.99499e-09
5.87052e-09
8.09851e-10
3.62771e-09
5.80664e-09
8.21597e-10
4.18098e-09
5.70777e-09
8.41193e-10
4.64444e-09
5.57936e-09
8.68012e-10
5.00843e-09
5.42827e-09
9.00609e-10
5.2637e-09
5.2641e-09
9.37204e-10
5.09218e-09
9.74511e-10
5.43594e-09
7.48441e-10
9.34314e-10
5.95004e-09
1.48513e-09
9.17654e-10
6.01375e-09
2.19919e-09
9.06344e-10
6.03966e-09
2.87155e-09
9.01844e-10
6.02597e-09
3.4848e-09
9.04781e-10
5.97304e-09
4.02439e-09
9.14944e-10
5.88281e-09
4.47843e-09
9.31338e-10
5.75882e-09
4.83694e-09
9.52045e-10
5.60666e-09
5.09183e-09
9.74403e-10
5.4358e-09
9.95179e-10
5.26023e-09
5.26041e-09
1.41929e-09
1.42224e-09
1.93643e-10
2.73718e-09
1.40902e-09
2.09133e-10
3.92555e-09
1.37303e-09
2.41921e-10
4.98756e-09
1.33086e-09
2.90741e-10
5.92985e-09
1.28793e-09
3.54733e-10
6.75603e-09
1.24532e-09
4.33373e-10
7.46704e-09
1.20434e-09
5.26261e-10
8.06117e-09
1.16678e-09
6.32806e-10
8.53416e-09
1.13465e-09
7.51758e-10
1.10244e-09
8.81226e-10
8.881e-09
1.40598e-09
2.7374e-09
2.09044e-10
2.72761e-09
2.72993e-09
2.23478e-10
3.93296e-09
2.68111e-09
2.54573e-10
5.01368e-09
2.61164e-09
3.01163e-10
5.97257e-09
2.53561e-09
3.6245e-10
6.81334e-09
2.45879e-09
4.37928e-10
7.5372e-09
2.38409e-09
5.27168e-10
8.14243e-09
2.31498e-09
6.2947e-10
8.62489e-09
2.25439e-09
7.43346e-10
2.18963e-09
8.65868e-10
8.97574e-09
1.37192e-09
3.92193e-09
2.41769e-10
2.67841e-09
3.93126e-09
2.54458e-10
3.88912e-09
3.89026e-09
2.82941e-10
4.98521e-09
3.81394e-09
3.26219e-10
5.9602e-09
3.71893e-09
3.83545e-10
6.81551e-09
3.61844e-09
4.54474e-10
7.55229e-09
3.51933e-09
5.38585e-10
8.16818e-09
3.42583e-09
6.35017e-10
8.65976e-09
3.34195e-09
7.42086e-10
3.24875e-09
8.56386e-10
9.02021e-09
1.33172e-09
4.98242e-09
2.90592e-10
2.6113e-09
5.00921e-09
3.01006e-10
3.81221e-09
4.98292e-09
3.26108e-10
4.9136e-09
4.91412e-09
3.65164e-10
5.90112e-09
4.81519e-09
4.17518e-10
6.76921e-09
4.70085e-09
4.82746e-10
7.51719e-09
4.58425e-09
5.60483e-10
8.14249e-09
4.47308e-09
6.49857e-10
8.64239e-09
4.37153e-09
7.49138e-10
4.25533e-09
8.54546e-10
9.01503e-09
1.28916e-09
5.92433e-09
3.54619e-10
2.53736e-09
5.96744e-09
3.62324e-10
3.71939e-09
5.95596e-09
3.83406e-10
4.81399e-09
5.89891e-09
4.17412e-10
5.80567e-09
5.80623e-09
4.63908e-10
6.68328e-09
5.68893e-09
5.22535e-10
7.44014e-09
5.56077e-09
5.92931e-10
8.07229e-09
5.43527e-09
6.74318e-10
8.57811e-09
5.32035e-09
7.65128e-10
5.18736e-09
8.61161e-10
8.96267e-09
1.24644e-09
6.75053e-09
4.33298e-10
2.46098e-09
6.8082e-09
4.37844e-10
3.62085e-09
6.8109e-09
4.54366e-10
4.70179e-09
6.76555e-09
4.8262e-10
5.6876e-09
6.68171e-09
5.22436e-10
6.56756e-09
6.56911e-09
5.73668e-10
7.33043e-09
6.43747e-09
6.35969e-10
7.96652e-09
6.30035e-09
7.08581e-10
8.47364e-09
6.17211e-09
7.90135e-10
6.02655e-09
8.76121e-10
8.86669e-09
1.2054e-09
7.46195e-09
5.26221e-10
2.38615e-09
7.53242e-09
5.27119e-10
3.52228e-09
7.54794e-09
5.38517e-10
4.58753e-09
7.51334e-09
5.60399e-10
5.56201e-09
7.43696e-09
5.92811e-10
6.43476e-09
7.32904e-09
6.35811e-10
7.19687e-09
7.1988e-09
6.89239e-10
7.83339e-09
7.05559e-09
7.52274e-10
8.33636e-09
6.91359e-09
8.2346e-10
6.75682e-09
8.98335e-10
8.73167e-09
1.16778e-09
8.05688e-09
6.32799e-10
2.31693e-09
8.13837e-09
6.29451e-10
3.42868e-09
8.16438e-09
6.34976e-10
4.47691e-09
8.1389e-09
6.49792e-10
5.43924e-09
8.06874e-09
6.74202e-10
6.30043e-09
7.96286e-09
7.08302e-10
7.05267e-09
7.83113e-09
7.51964e-10
7.68178e-09
7.68216e-09
8.04197e-10
8.17478e-09
7.52785e-09
8.6344e-10
7.36263e-09
9.25687e-10
8.56357e-09
1.13556e-09
8.53094e-09
7.51782e-10
2.25613e-09
8.62183e-09
7.43356e-10
3.34445e-09
8.65682e-09
7.42067e-10
4.37473e-09
8.6395e-09
7.49077e-10
5.32424e-09
8.57512e-09
7.65006e-10
6.17461e-09
8.47038e-09
7.89853e-10
6.91331e-09
8.3333e-09
8.23078e-10
7.52703e-09
8.17302e-09
8.63223e-10
8.00297e-09
8.00273e-09
9.08526e-10
7.82793e-09
9.55207e-10
8.37154e-09
1.10321e-09
8.81278e-10
8.87893e-09
2.19109e-09
8.65904e-10
8.97375e-09
3.25078e-09
8.56392e-10
9.01825e-09
4.2578e-09
8.54512e-10
9.01305e-09
5.19004e-09
8.61072e-10
8.96062e-09
6.02895e-09
8.75946e-10
8.86461e-09
6.75857e-09
8.98125e-10
8.72972e-09
7.36332e-09
9.25517e-10
8.56196e-09
7.82775e-09
9.55078e-10
8.37044e-09
9.83033e-10
8.17119e-09
8.17086e-09
1.77206e-09
1.77557e-09
-7.12682e-11
3.42241e-09
1.76062e-09
-5.39157e-11
4.9205e-09
1.7186e-09
-2.17616e-11
6.27462e-09
1.6703e-09
2.41066e-11
7.4974e-09
1.62264e-09
8.31326e-11
8.59774e-09
1.57713e-09
1.55157e-10
9.58146e-09
1.53572e-09
2.40233e-10
1.04508e-08
1.50099e-09
3.38367e-10
1.12038e-08
1.4759e-09
4.49129e-10
1.45397e-09
5.71726e-10
1.18362e-08
1.75699e-09
3.42235e-09
-5.39772e-11
3.41356e-09
3.4161e-09
-3.76012e-11
4.9343e-09
3.36089e-09
-6.94908e-12
6.31312e-09
3.28266e-09
3.70294e-11
7.55794e-09
3.19927e-09
9.3792e-11
8.6778e-09
3.11845e-09
1.63166e-10
9.67879e-09
3.04434e-09
2.45163e-10
1.05629e-08
2.98194e-09
3.39666e-10
1.13279e-08
2.93568e-09
4.45986e-10
2.89001e-09
5.62274e-10
1.1962e-08
1.71741e-09
4.91558e-09
-2.18824e-11
3.35788e-09
4.93169e-09
-7.03424e-12
4.88796e-09
4.88884e-09
2.13459e-11
6.28831e-09
4.80593e-09
6.2509e-11
7.55514e-09
4.70402e-09
1.15961e-10
8.69471e-09
4.60037e-09
1.81544e-10
9.71287e-09
4.5045e-09
2.59241e-10
1.06104e-08
4.4226e-09
3.48761e-10
1.13856e-08
4.36059e-09
4.49186e-10
4.29475e-09
5.58106e-10
1.20276e-08
1.67162e-09
6.26779e-09
2.39735e-11
3.28264e-09
6.30704e-09
3.68999e-11
4.80431e-09
6.28479e-09
6.24237e-11
6.21472e-09
6.21463e-09
1.00028e-10
7.49997e-09
6.11245e-09
1.49325e-10
8.65751e-09
5.99744e-09
2.10175e-10
9.69082e-09
5.88735e-09
2.8257e-10
1.06002e-08
5.79313e-09
3.66162e-10
1.13843e-08
5.72107e-09
4.59944e-10
5.64007e-09
5.6103e-10
1.20374e-08
1.62444e-09
7.49009e-09
8.30223e-11
3.20196e-09
7.55104e-09
9.3676e-11
4.70519e-09
7.54916e-09
1.15845e-10
6.11167e-09
7.49634e-09
1.49242e-10
7.406e-09
7.40576e-09
1.93662e-10
8.57828e-09
7.29215e-09
2.49037e-10
9.62424e-09
7.17401e-09
3.15355e-10
1.05424e-08
7.06993e-09
3.92308e-10
1.13329e-08
6.99143e-09
4.78974e-10
6.90095e-09
5.71919e-10
1.19969e-08
1.57881e-09
8.59046e-09
1.55078e-10
3.12171e-09
8.67088e-09
1.63081e-10
4.60409e-09
8.68828e-09
1.81444e-10
5.99939e-09
8.65204e-09
2.1007e-10
7.29133e-09
8.5752e-09
2.4896e-10
8.47047e-09
8.47131e-09
2.98212e-10
9.52637e-09
8.35391e-09
3.57833e-10
1.04502e-08
8.24152e-09
4.27531e-10
1.12412e-08
8.15411e-09
5.06496e-10
8.05658e-09
5.90802e-10
1.19116e-08
1.5373e-09
9.57472e-09
2.40182e-10
3.04743e-09
9.67234e-09
2.45106e-10
4.50893e-09
9.70676e-09
2.59171e-10
5.89235e-09
9.68509e-09
2.82491e-10
7.17639e-09
9.61905e-09
3.15255e-10
8.35127e-09
9.52314e-09
3.57707e-10
9.40955e-09
9.41071e-09
4.09985e-10
1.03348e-08
9.29466e-09
4.71728e-10
1.11188e-08
9.19429e-09
5.4203e-10
9.08734e-09
6.16806e-10
1.17869e-08
1.50249e-09
1.04451e-08
3.38344e-10
2.98488e-09
1.05574e-08
3.39634e-10
4.42687e-09
1.0605e-08
3.48714e-10
5.79883e-09
1.05947e-08
3.66095e-10
7.07584e-09
1.05367e-08
3.92199e-10
8.24218e-09
1.04439e-08
4.27287e-10
9.29165e-09
1.03301e-08
4.71462e-10
1.02078e-08
1.0207e-08
5.24125e-10
1.09756e-08
1.00906e-08
5.84271e-10
9.97194e-09
6.48097e-10
1.16283e-08
1.47728e-09
1.11995e-08
4.49133e-10
2.93834e-09
1.13237e-08
4.45979e-10
4.36438e-09
1.13813e-08
4.49157e-10
5.72588e-09
1.13798e-08
4.59882e-10
6.99721e-09
1.13279e-08
4.78858e-10
8.1579e-09
1.12355e-08
5.06239e-10
9.19445e-09
1.11132e-08
5.41699e-10
1.00902e-08
1.0972e-08
5.84089e-10
1.08293e-08
1.0828e-08
6.32093e-10
1.06851e-08
6.81928e-10
1.14425e-08
1.45516e-09
5.71755e-10
1.18334e-08
2.89227e-09
5.62292e-10
1.19592e-08
4.29789e-09
5.58101e-10
1.20246e-08
5.64388e-09
5.60993e-10
1.20341e-08
6.90506e-09
5.71836e-10
1.19933e-08
8.06026e-09
5.90645e-10
1.19078e-08
9.09018e-09
6.16624e-10
1.17832e-08
9.97331e-09
6.47948e-10
1.16251e-08
1.06853e-08
6.81806e-10
1.14401e-08
7.14424e-10
1.1244e-08
1.12429e-08
2.04583e-09
2.04972e-09
-4.54472e-10
3.95552e-09
2.03378e-09
-4.36464e-10
5.6978e-09
1.98781e-09
-4.09194e-10
7.28621e-09
1.93586e-09
-3.73532e-10
8.7393e-09
1.88607e-09
-3.29755e-10
1.00717e-08
1.84042e-09
-2.77791e-10
1.12946e-08
1.80144e-09
-2.17364e-10
1.24152e-08
1.77253e-09
-1.48136e-10
1.34354e-08
1.7576e-09
-6.99404e-11
1.7494e-09
1.73813e-11
1.43535e-08
2.02977e-09
3.95514e-09
-4.36475e-10
3.94792e-09
3.95052e-09
-4.19236e-10
5.71759e-09
3.89175e-09
-3.93052e-10
7.3357e-09
3.80887e-09
-3.586e-10
8.81539e-09
3.72284e-09
-3.16211e-10
1.01714e-08
3.64303e-09
-2.65861e-10
1.14154e-08
3.57485e-09
-2.07313e-10
1.2554e-08
3.52483e-09
-1.40328e-10
1.35881e-08
3.49888e-09
-6.49338e-11
3.47901e-09
1.82549e-11
1.45051e-08
1.98662e-09
5.69176e-09
-4.09251e-10
3.88862e-09
5.71414e-09
-3.93081e-10
5.67137e-09
5.67189e-09
-3.68467e-10
7.31634e-09
5.58698e-09
-3.35851e-10
8.82318e-09
5.48415e-09
-2.9551e-10
1.02034e-08
5.38412e-09
-2.47466e-10
1.14681e-08
5.29881e-09
-1.91535e-10
1.26223e-08
5.23641e-09
-1.27606e-10
1.36671e-08
5.20482e-09
-5.58983e-11
5.17598e-09
2.25027e-11
1.45893e-08
1.93762e-09
7.27793e-09
-3.73624e-10
3.80926e-09
7.3282e-09
-3.58669e-10
5.58565e-09
7.31169e-09
-3.35883e-10
7.24526e-09
7.24449e-09
-3.05541e-10
8.7759e-09
7.14547e-09
-2.67786e-10
1.01787e-08
7.03774e-09
-2.22608e-10
1.14621e-08
6.94312e-09
-1.69866e-10
1.26301e-08
6.87566e-09
-1.09528e-10
1.36841e-08
6.84388e-09
-4.18947e-11
6.81027e-09
3.14949e-11
1.46154e-08
1.88842e-09
8.73048e-09
-3.29845e-10
3.72642e-09
8.80696e-09
-3.16296e-10
5.48611e-09
8.81566e-09
-2.95573e-10
7.14528e-09
8.77092e-09
-2.67818e-10
8.68989e-09
8.68877e-09
-2.3307e-10
1.01125e-08
8.58732e-09
-1.9122e-10
1.14121e-08
8.48941e-09
-1.42106e-10
1.25909e-08
8.41834e-09
-8.57176e-11
1.36515e-08
8.38911e-09
-2.2358e-11
8.35551e-09
4.59022e-11
1.45919e-08
1.84262e-09
1.00629e-08
-2.77866e-10
3.6473e-09
1.0163e-08
-2.65936e-10
5.38909e-09
1.01953e-08
-2.47539e-10
7.04077e-09
1.01716e-08
-2.22664e-10
8.5872e-09
1.01079e-08
-1.91247e-10
1.00214e-08
1.00214e-08
-1.53099e-10
1.1335e-08
9.9292e-09
-1.07995e-10
1.25213e-08
9.85469e-09
-5.5883e-11
1.35821e-08
9.82302e-09
2.93541e-12
9.78991e-09
6.58273e-11
1.45263e-08
1.80353e-09
1.12865e-08
-2.17423e-10
3.57892e-09
1.14075e-08
-2.07373e-10
5.30463e-09
1.14604e-08
-1.91597e-10
6.94974e-09
1.14546e-08
-1.69924e-10
8.49302e-09
1.1405e-08
-1.42154e-10
9.92692e-09
1.133e-08
-1.08042e-10
1.12467e-08
1.12469e-08
-6.73211e-11
1.2436e-08
1.11723e-08
-1.9942e-11
1.34876e-08
1.11304e-08
3.37541e-11
1.10916e-08
9.07808e-11
1.4425e-08
1.77451e-09
1.24084e-08
-1.4818e-10
3.52868e-09
1.25472e-08
-1.40374e-10
5.24202e-09
1.26155e-08
-1.27657e-10
6.88308e-09
1.26229e-08
-1.09586e-10
8.42609e-09
1.25831e-08
-8.57935e-11
9.85607e-09
1.25125e-08
-5.6017e-11
1.11695e-08
1.24289e-08
-2.00784e-11
1.23491e-08
1.2347e-08
2.1839e-11
1.33793e-08
1.22868e-08
6.93894e-11
1.22348e-08
1.1963e-10
1.42927e-08
1.75942e-09
1.34302e-08
-6.99673e-11
3.50239e-09
1.35829e-08
-6.49635e-11
5.20982e-09
1.36615e-08
-5.5936e-11
6.85019e-09
1.3678e-08
-4.1949e-11
8.39661e-09
1.36446e-08
-2.24449e-11
9.82801e-09
1.35741e-08
2.76997e-12
1.11311e-08
1.34796e-08
3.35674e-11
1.22871e-08
1.33738e-08
6.92982e-11
1.32782e-08
1.32759e-08
1.09317e-10
1.31858e-08
1.50546e-10
1.41331e-08
1.75099e-09
1.73701e-11
1.43501e-08
3.48202e-09
1.82406e-11
1.45015e-08
5.18016e-09
2.24807e-11
1.45854e-08
6.81531e-09
3.14585e-11
1.46109e-08
8.36093e-09
4.58413e-11
1.45868e-08
9.79475e-09
6.57254e-11
1.45208e-08
1.10955e-08
9.06718e-11
1.44197e-08
1.22369e-08
1.19545e-10
1.4288e-08
1.31863e-08
1.50469e-10
1.41293e-08
1.80524e-10
1.39577e-08
1.39558e-08
2.20664e-09
2.21073e-09
-9.05784e-10
4.26883e-09
2.19418e-09
-8.8803e-10
6.15514e-09
2.1459e-09
-8.68558e-10
7.88247e-09
2.0919e-09
-8.48024e-10
9.47339e-09
2.04107e-09
-8.26565e-10
1.09466e-08
1.99573e-09
-8.04145e-10
1.23176e-08
1.95887e-09
-7.80667e-10
1.35978e-08
1.9345e-09
-7.55989e-10
1.47928e-08
1.9273e-09
-7.29939e-10
1.92937e-09
-7.02119e-10
1.5905e-08
2.18998e-09
4.26824e-09
-8.8798e-10
4.26193e-09
4.26452e-09
-8.70692e-10
6.17841e-09
4.20368e-09
-8.51734e-10
7.93841e-09
4.11825e-09
-8.31526e-10
9.55866e-09
4.03108e-09
-8.1032e-10
1.1058e-08
3.95269e-09
-7.88161e-10
1.24523e-08
3.88942e-09
-7.64963e-10
1.37523e-08
3.84894e-09
-7.40609e-10
1.49623e-08
3.83837e-09
-7.14969e-10
3.8378e-09
-6.87839e-10
1.60712e-08
2.14477e-09
6.14838e-09
-8.68533e-10
4.20056e-09
6.17443e-09
-8.51692e-10
6.13231e-09
6.13256e-09
-8.33372e-10
7.9224e-09
6.04673e-09
-8.13731e-10
9.57293e-09
5.94405e-09
-7.92959e-10
1.10992e-08
5.84744e-09
-7.71198e-10
1.25165e-08
5.77053e-09
-7.4842e-10
1.38334e-08
5.72304e-09
-7.24527e-10
1.50541e-08
5.71442e-09
-6.99447e-10
5.71324e-09
-6.73161e-10
1.61662e-08
2.09397e-09
7.87329e-09
-8.48056e-10
4.11896e-09
7.93003e-09
-8.31515e-10
6.04568e-09
7.91702e-09
-8.13697e-10
7.85321e-09
7.85196e-09
-7.94682e-10
9.53091e-09
7.75574e-09
-7.74502e-10
1.10828e-08
7.65407e-09
-7.53237e-10
1.2521e-08
7.57156e-09
-7.30936e-10
1.3853e-08
7.52449e-09
-7.07563e-10
1.50832e-08
7.52316e-09
-6.83065e-10
7.52499e-09
-6.5766e-10
1.62028e-08
2.04378e-09
9.46364e-09
-8.2662e-10
4.03529e-09
9.54928e-09
-8.10358e-10
5.9466e-09
9.56443e-09
-7.92953e-10
7.75601e-09
9.52507e-09
-7.7447e-10
9.45085e-09
9.44913e-09
-7.54928e-10
1.10258e-08
9.35711e-09
-7.34279e-10
1.24829e-08
9.27493e-09
-7.12504e-10
1.38272e-08
9.22922e-09
-6.89634e-10
1.50644e-08
9.23746e-09
-6.65682e-10
9.24657e-09
-6.4117e-10
1.61918e-08
1.99828e-09
1.09369e-08
-8.04205e-10
3.95764e-09
1.10486e-08
-7.88213e-10
5.85327e-09
1.10901e-08
-7.71228e-10
7.65789e-09
1.10746e-08
-7.53225e-10
9.35753e-09
1.10203e-08
-7.34241e-10
1.09474e-08
1.09469e-08
-7.14244e-10
1.24215e-08
1.08741e-08
-6.93098e-10
1.37752e-08
1.08291e-08
-6.70738e-10
1.50129e-08
1.08405e-08
-6.47273e-10
1.08563e-08
-6.23653e-10
1.61426e-08
1.96129e-09
1.23086e-08
-7.80729e-10
3.89414e-09
1.24436e-08
-7.65018e-10
5.77727e-09
1.25078e-08
-7.48463e-10
7.57928e-09
1.25124e-08
-7.30959e-10
9.27945e-09
1.24746e-08
-7.1248e-10
1.08722e-08
1.24154e-08
-6.9304e-10
1.23553e-08
1.2355e-08
-6.72545e-10
1.37139e-08
1.2313e-08
-6.50825e-10
1.49419e-08
1.23175e-08
-6.2792e-10
1.23317e-08
-6.05185e-10
1.60623e-08
1.9368e-09
1.35903e-08
-7.5605e-10
3.85341e-09
1.37448e-08
-7.40663e-10
5.72952e-09
1.38257e-08
-7.24571e-10
7.53303e-09
1.38447e-08
-7.07599e-10
9.23816e-09
1.3818e-08
-6.89653e-10
1.0831e-08
1.37647e-08
-6.70709e-10
1.23104e-08
1.37053e-08
-6.50776e-10
1.36597e-08
1.36568e-08
-6.29808e-10
1.48641e-08
1.36429e-08
-6.07697e-10
1.36446e-08
-5.85956e-10
1.59553e-08
1.92941e-09
1.47871e-08
-7.29998e-10
3.84243e-09
1.49566e-08
-7.1502e-10
5.7202e-09
1.50478e-08
-6.99487e-10
7.53043e-09
1.50761e-08
-6.83098e-10
9.24604e-09
1.50562e-08
-6.65714e-10
1.08463e-08
1.50033e-08
-6.47293e-10
1.23186e-08
1.49324e-08
-6.27894e-10
1.36436e-08
1.48575e-08
-6.07662e-10
1.48032e-08
1.48003e-08
-5.86611e-10
1.47566e-08
-5.66399e-10
1.58235e-08
1.93122e-09
-7.02175e-10
1.59012e-08
3.8413e-09
-6.87887e-10
1.60672e-08
5.71808e-09
-6.73198e-10
1.61617e-08
7.53082e-09
-6.57687e-10
1.61975e-08
9.25281e-09
-6.41191e-10
1.61858e-08
1.08618e-08
-6.23669e-10
1.61361e-08
1.23362e-08
-6.05184e-10
1.60559e-08
1.36471e-08
-5.85947e-10
1.59496e-08
1.47574e-08
-5.664e-10
1.58188e-08
-5.47729e-10
1.56757e-08
1.56733e-08
2.23406e-09
2.23819e-09
-1.35991e-09
4.3213e-09
2.22112e-09
-1.34253e-09
6.22947e-09
2.17172e-09
-1.33117e-09
7.97546e-09
2.1164e-09
-1.32625e-09
9.58232e-09
2.0642e-09
-1.32786e-09
1.10694e-08
2.01758e-09
-1.33613e-09
1.24534e-08
1.97969e-09
-1.35134e-09
1.37471e-08
1.95475e-09
-1.37385e-09
1.49576e-08
1.94763e-09
-1.40382e-09
1.94999e-09
-1.44114e-09
1.60898e-08
2.2169e-09
4.32069e-09
-1.34242e-09
4.31371e-09
4.31631e-09
-1.32516e-09
6.25218e-09
4.25369e-09
-1.3137e-09
8.03108e-09
4.16593e-09
-1.3082e-09
9.66748e-09
4.07633e-09
-1.30892e-09
1.1181e-08
3.99564e-09
-1.31607e-09
1.25884e-08
3.93055e-09
-1.32994e-09
1.39019e-08
3.88909e-09
-1.35078e-09
1.51274e-08
3.87874e-09
-1.37864e-09
3.87853e-09
-1.41291e-09
1.62561e-08
2.17064e-09
6.2226e-09
-1.33107e-09
4.2506e-09
6.24814e-09
-1.31359e-09
6.20409e-09
6.20431e-09
-1.30178e-09
8.01318e-09
6.11562e-09
-1.29555e-09
9.6801e-09
6.0098e-09
-1.29507e-09
1.12207e-08
5.91026e-09
-1.3007e-09
1.26514e-08
5.83108e-09
-1.31277e-09
1.3982e-08
5.78249e-09
-1.33141e-09
1.52181e-08
5.77443e-09
-1.35657e-09
5.77364e-09
-1.38745e-09
1.635e-08
2.11855e-09
7.96615e-09
-1.32622e-09
4.16676e-09
8.02259e-09
-1.30811e-09
6.11466e-09
8.00773e-09
-1.29546e-09
7.94102e-09
7.93972e-09
-1.28817e-09
9.63529e-09
7.84004e-09
-1.28627e-09
1.1202e-08
7.73516e-09
-1.29003e-09
1.26539e-08
7.65031e-09
-1.29986e-09
1.39998e-08
7.60235e-09
-1.31592e-09
1.52457e-08
7.60219e-09
-1.33809e-09
7.60461e-09
-1.36549e-09
1.63851e-08
2.06699e-09
9.57245e-09
-1.32787e-09
4.08067e-09
9.65798e-09
-1.3089e-09
6.01252e-09
9.67148e-09
-1.29499e-09
7.84044e-09
9.62938e-09
-1.28617e-09
9.55188e-09
9.55012e-09
-1.28253e-09
1.1142e-08
9.45488e-09
-1.2842e-09
1.26134e-08
9.37054e-09
-1.29147e-09
1.39722e-08
9.32454e-09
-1.30462e-09
1.52256e-08
9.33491e-09
-1.3236e-09
9.3451e-09
-1.34749e-09
1.6373e-08
2.02021e-09
1.10597e-08
-1.33616e-09
4.00073e-09
1.11715e-08
-1.31609e-09
5.91628e-09
1.12116e-08
-1.30069e-09
7.73919e-09
1.11936e-08
-1.28995e-09
9.45544e-09
1.11365e-08
-1.2841e-09
1.10607e-08
1.10602e-08
-1.28339e-09
1.25499e-08
1.09857e-08
-1.28794e-09
1.39189e-08
1.09411e-08
-1.29789e-09
1.51735e-08
1.0956e-08
-1.31336e-09
1.09738e-08
-1.33356e-09
1.63236e-08
1.98219e-09
1.24445e-08
-1.3514e-09
3.9354e-09
1.25796e-08
-1.32998e-09
5.83799e-09
1.26426e-08
-1.31278e-09
7.65825e-09
1.26452e-08
-1.29984e-09
9.37532e-09
1.2605e-08
-1.29138e-09
1.09839e-08
1.25438e-08
-1.28778e-09
1.24827e-08
1.24823e-08
-1.2893e-09
1.38575e-08
1.24416e-08
-1.29585e-09
1.51034e-08
1.24509e-08
-1.30739e-09
1.24687e-08
-1.32342e-09
1.62445e-08
1.9571e-09
1.37395e-08
-1.37391e-09
3.89366e-09
1.38943e-08
-1.35083e-09
5.78911e-09
1.39741e-08
-1.33144e-09
7.61106e-09
1.39915e-08
-1.31593e-09
9.33369e-09
1.39629e-08
-1.30457e-09
1.09433e-08
1.39084e-08
-1.2977e-09
1.24392e-08
1.3849e-08
-1.29562e-09
1.38057e-08
1.38028e-08
-1.29824e-09
1.50289e-08
1.37949e-08
-1.30523e-09
1.38022e-08
-1.31635e-09
1.61408e-08
1.94979e-09
1.49518e-08
-1.4039e-09
3.88289e-09
1.51216e-08
-1.3787e-09
5.78032e-09
1.52118e-08
-1.3566e-09
7.60958e-09
1.52385e-08
-1.3381e-09
9.34359e-09
1.52173e-08
-1.32356e-09
1.09618e-08
1.51638e-08
-1.31322e-09
1.24522e-08
1.50938e-08
-1.30715e-09
1.37958e-08
1.50223e-08
-1.30507e-09
1.4975e-08
1.49721e-08
-1.30652e-09
1.49363e-08
-1.31133e-09
1.6015e-08
1.95187e-09
-1.44123e-09
1.6086e-08
3.88208e-09
-1.41298e-09
1.62522e-08
5.77855e-09
-1.38749e-09
1.63454e-08
7.61051e-09
-1.3655e-09
1.63798e-08
9.35139e-09
-1.34746e-09
1.6367e-08
1.09794e-08
-1.33348e-09
1.6317e-08
1.24732e-08
-1.32331e-09
1.6238e-08
1.38048e-08
-1.31624e-09
1.61351e-08
1.49371e-08
-1.31125e-09
1.60104e-08
-1.30737e-09
1.58756e-08
1.58733e-08
2.12981e-09
2.13386e-09
-1.75234e-09
4.11584e-09
2.11625e-09
-1.73448e-09
5.92397e-09
2.06671e-09
-1.72856e-09
7.56741e-09
2.01045e-09
-1.73467e-09
9.06563e-09
1.95608e-09
-1.75276e-09
1.04349e-08
1.90595e-09
-1.783e-09
1.1689e-08
1.86298e-09
-1.82582e-09
1.28383e-08
1.83108e-09
-1.88175e-09
1.38883e-08