/*--------------------------------*- C++ -*----------------------------------*\
| =========                 |                                                 |
| \\      /  F ield         | foam-extend: Open Source CFD                    |
|  \\    /   O peration     | Version:     3.1                                |
|   \\  /    A nd           | Web:         http://www.extend-project.de       |
|    \\/     M anipulation  |                                                 |
\*---------------------------------------------------------------------------*/
FoamFile
{
    version     2.0;
    format      ascii;
    class       volScalarField;
    location    "0.001";
    object      p;
}
// * * * * * * * * * * * * * * * * * * * * * * * * * * * * * * * * * * * * * //

dimensions      [0 2 -2 0 0 0 0];

internalField   nonuniform List<scalar> 
16000
(
1.29461
1.2947
1.29489
1.29518
1.29557
1.29608
1.29671
1.29748
1.2984
1.29945
1.2947
1.29479
1.29497
1.29525
1.29563
1.29612
1.29674
1.29749
1.29837
1.29939
1.29489
1.29497
1.29514
1.29541
1.29578
1.29625
1.29685
1.29757
1.29843
1.29941
1.29518
1.29525
1.29541
1.29566
1.29601
1.29647
1.29704
1.29774
1.29856
1.29951
1.29557
1.29563
1.29578
1.29601
1.29635
1.29678
1.29733
1.29799
1.29878
1.29968
1.29608
1.29612
1.29625
1.29647
1.29678
1.2972
1.29771
1.29834
1.29909
1.29994
1.29671
1.29674
1.29685
1.29704
1.29733
1.29771
1.2982
1.29878
1.29948
1.30028
1.29749
1.29749
1.29757
1.29774
1.29799
1.29834
1.29878
1.29932
1.29996
1.30069
1.2984
1.29837
1.29843
1.29856
1.29878
1.29909
1.29948
1.29996
1.30053
1.30117
1.29945
1.2994
1.29941
1.29951
1.29969
1.29994
1.30028
1.30069
1.30117
1.3017
1.21702
1.21729
1.21783
1.21868
1.21985
1.22137
1.22328
1.22563
1.22844
1.23173
1.21729
1.21754
1.21806
1.21888
1.22
1.22147
1.22331
1.22556
1.22826
1.23142
1.21783
1.21806
1.21856
1.21934
1.22042
1.22184
1.22361
1.22578
1.22836
1.2314
1.21868
1.21888
1.21934
1.22008
1.22112
1.22248
1.22418
1.22626
1.22875
1.23165
1.21985
1.22
1.22042
1.22112
1.22211
1.22341
1.22504
1.22704
1.22941
1.23218
1.22137
1.22147
1.22184
1.22248
1.22341
1.22464
1.2262
1.2281
1.23037
1.233
1.22329
1.22331
1.22361
1.22418
1.22504
1.2262
1.22767
1.22947
1.23161
1.2341
1.22563
1.22557
1.22578
1.22627
1.22704
1.22811
1.22947
1.23116
1.23316
1.23549
1.22844
1.22826
1.22837
1.22875
1.22941
1.23037
1.23162
1.23317
1.23502
1.23718
1.23173
1.23143
1.2314
1.23165
1.23218
1.233
1.2341
1.23549
1.23718
1.23915
1.13766
1.13807
1.1389
1.14018
1.14196
1.14432
1.14733
1.15109
1.1557
1.16127
1.13807
1.13845
1.13924
1.14048
1.1422
1.14448
1.14737
1.15099
1.15541
1.16074
1.1389
1.13924
1.14
1.14119
1.14285
1.14505
1.14785
1.15133
1.15558
1.16069
1.14018
1.14048
1.14119
1.14232
1.14393
1.14606
1.14876
1.15212
1.15622
1.16112
1.14196
1.1422
1.14285
1.14393
1.14548
1.14753
1.15014
1.15339
1.15733
1.16204
1.14432
1.14448
1.14505
1.14606
1.14753
1.1495
1.15202
1.15515
1.15895
1.16347
1.14733
1.14738
1.14785
1.14876
1.15015
1.15202
1.15444
1.15744
1.16109
1.16541
1.15109
1.15099
1.15133
1.15212
1.15339
1.15515
1.15745
1.16031
1.16379
1.16791
1.1557
1.15541
1.15558
1.15622
1.15733
1.15895
1.16109
1.16379
1.16708
1.17099
1.16127
1.16074
1.16069
1.16113
1.16205
1.16347
1.16542
1.16791
1.17099
1.17468
1.05549
1.05595
1.05689
1.05837
1.06045
1.06325
1.06689
1.07156
1.07744
1.08477
1.05595
1.05638
1.05729
1.05872
1.06073
1.06343
1.06695
1.07143
1.07706
1.08407
1.05689
1.05729
1.05816
1.05954
1.0615
1.06412
1.06752
1.07185
1.07728
1.08401
1.05837
1.05872
1.05954
1.06088
1.06278
1.06534
1.06865
1.07285
1.0781
1.08458
1.06045
1.06073
1.0615
1.06278
1.06463
1.06713
1.07036
1.07446
1.07955
1.08581
1.06325
1.06343
1.06412
1.06534
1.06713
1.06956
1.07272
1.07672
1.08167
1.08773
1.0669
1.06695
1.06753
1.06865
1.07037
1.07272
1.0758
1.07969
1.08452
1.09039
1.07156
1.07143
1.07185
1.07285
1.07446
1.07672
1.0797
1.08348
1.08817
1.09386
1.07744
1.07706
1.07728
1.07811
1.07956
1.08167
1.08452
1.08817
1.0927
1.09821
1.08478
1.08408
1.08401
1.08458
1.08582
1.08774
1.0904
1.09386
1.09821
1.10351
0.970095
0.970492
0.971314
0.972623
0.974509
0.977106
0.980589
0.98519
0.991207
0.999017
0.970493
0.970871
0.971666
0.972936
0.974766
0.977279
0.980637
0.985057
0.990814
0.998254
0.971315
0.971666
0.972436
0.973677
0.975468
0.977923
0.981193
0.985478
0.991032
0.998173
0.972623
0.972937
0.973677
0.974893
0.976658
0.979076
0.982287
0.986476
0.991877
0.99878
0.97451
0.974767
0.975469
0.976659
0.978402
0.980796
0.98397
0.988095
0.993384
1.0001
0.977107
0.97728
0.977924
0.979077
0.980797
0.983172
0.986323
0.990404
0.995612
1.00218
0.980591
0.980639
0.981195
0.982289
0.983972
0.986324
0.989454
0.993505
0.998653
1.00511
0.985193
0.98506
0.985481
0.986478
0.988096
0.990406
0.993505
0.997525
1.00262
1.00898
0.991211
0.990817
0.991036
0.99188
0.993386
0.995614
0.998655
1.00263
1.00767
1.01395
0.999022
0.998259
0.998178
0.998784
1.0001
1.00218
1.00511
1.00898
1.01395
1.02015
0.881823
0.882024
0.88245
0.883159
0.884239
0.885816
0.888069
0.891241
0.895659
0.901769
0.882024
0.882218
0.882637
0.883333
0.884388
0.885921
0.888097
0.89114
0.895355
0.901148
0.88245
0.882637
0.883053
0.883749
0.884801
0.886319
0.888457
0.891425
0.895502
0.901064
0.88316
0.883333
0.88375
0.884455
0.88552
0.887048
0.889183
0.892118
0.896116
0.901519
0.88424
0.884389
0.884802
0.885521
0.88661
0.888167
0.890326
0.893268
0.897235
0.902542
0.885818
0.885923
0.886321
0.887049
0.888168
0.889766
0.89197
0.894948
0.898926
0.904191
0.888072
0.888099
0.88846
0.889184
0.890327
0.89197
0.894232
0.89727
0.901292
0.906558
0.891244
0.891143
0.891428
0.892121
0.89327
0.89495
0.897271
0.900381
0.904472
0.909776
0.895664
0.895359
0.895506
0.89612
0.897238
0.898929
0.901294
0.904473
0.908647
0.914023
0.901775
0.901154
0.901069
0.901524
0.902546
0.904194
0.906561
0.909778
0.914024
0.919514
0.791904
0.791788
0.791566
0.791278
0.790975
0.790737
0.79068
0.790969
0.791837
0.793622
0.791788
0.791683
0.791481
0.791216
0.790937
0.79072
0.79067
0.790941
0.791749
0.793403
0.791567
0.791482
0.791309
0.791082
0.790846
0.790672
0.790661
0.790954
0.791752
0.793339
0.791278
0.791217
0.791082
0.790905
0.790729
0.79062
0.790673
0.791022
0.791854
0.793432
0.790976
0.790938
0.790847
0.79073
0.790627
0.790602
0.790744
0.791179
0.792083
0.793703
0.790739
0.790722
0.790674
0.790621
0.790602
0.790676
0.790927
0.791476
0.792488
0.794193
0.790683
0.790673
0.790663
0.790675
0.790745
0.790928
0.791306
0.791993
0.793143
0.794972
0.790973
0.790945
0.790957
0.791025
0.791181
0.791478
0.791993
0.792836
0.794154
0.796144
0.791842
0.791754
0.791756
0.791858
0.792087
0.792491
0.793145
0.794155
0.795664
0.797857
0.793628
0.793409
0.793344
0.793437
0.793707
0.794197
0.794975
0.796146
0.797858
0.800312
0.702384
0.701881
0.700868
0.699348
0.697317
0.694771
0.691708
0.68813
0.684053
0.679513
0.701881
0.701412
0.700449
0.698995
0.697047
0.6946
0.691654
0.68821
0.684283
0.679908
0.700869
0.70045
0.699552
0.698177
0.696323
0.693986
0.691165
0.687865
0.684098
0.679898
0.699349
0.698996
0.698178
0.696895
0.695147
0.69293
0.690246
0.687099
0.683501
0.679487
0.697319
0.697048
0.696323
0.695147
0.693518
0.691434
0.688897
0.685912
0.682493
0.678677
0.694774
0.694602
0.693987
0.692932
0.691434
0.689496
0.687118
0.684308
0.681078
0.677472
0.691711
0.691657
0.691168
0.690248
0.688898
0.687119
0.684914
0.682291
0.679265
0.67588
0.688135
0.688214
0.687869
0.687102
0.685914
0.684309
0.682292
0.679872
0.677064
0.673917
0.684058
0.684289
0.684103
0.683505
0.682496
0.681081
0.679266
0.677065
0.674499
0.671617
0.67952
0.679914
0.679904
0.679493
0.678682
0.677476
0.675883
0.673919
0.671618
0.669053
0.615799
0.61492
0.613138
0.610418
0.606697
0.60188
0.59584
0.588399
0.579316
0.568269
0.61492
0.614097
0.612395
0.609782
0.6062
0.601561
0.595747
0.588594
0.57988
0.569312
0.613139
0.612395
0.610792
0.608298
0.604859
0.600394
0.594793
0.587904
0.579522
0.56938
0.610419
0.609783
0.608298
0.605937
0.602648
0.598358
0.592962
0.586318
0.578238
0.56848
0.606698
0.606201
0.604859
0.602649
0.599522
0.59541
0.590214
0.583804
0.576004
0.566594
0.601883
0.601563
0.600396
0.598359
0.59541
0.591485
0.586492
0.580309
0.572771
0.563684
0.595844
0.59575
0.594796
0.592964
0.590215
0.586493
0.581712
0.575756
0.568471
0.559685
0.588404
0.588598
0.587908
0.586321
0.583807
0.580311
0.575756
0.570036
0.563005
0.55451
0.579322
0.579885
0.579527
0.578243
0.576007
0.572774
0.568473
0.563005
0.55624
0.548043
0.568276
0.569318
0.569386
0.568485
0.566599
0.563688
0.559688
0.554512
0.548044
0.540178
0.534667
0.533505
0.531142
0.527521
0.522539
0.516049
0.507839
0.497621
0.484994
0.469416
0.533505
0.532414
0.530155
0.526674
0.521877
0.515625
0.507723
0.497904
0.485801
0.470916
0.531142
0.530155
0.528023
0.524696
0.520084
0.51406
0.506442
0.496981
0.485338
0.471059
0.527522
0.526675
0.524696
0.521538
0.517118
0.511317
0.503966
0.494831
0.483598
0.469851
0.522541
0.521878
0.520085
0.517119
0.512904
0.507329
0.500234
0.491402
0.480539
0.467266
0.516051
0.515627
0.514061
0.511318
0.507329
0.501989
0.49515
0.486607
0.476084
0.463238
0.507842
0.507726
0.506444
0.503968
0.500235
0.49515
0.488575
0.480317
0.470117
0.457663
0.497625
0.497908
0.496985
0.494834
0.491404
0.486608
0.480317
0.472353
0.46247
0.450388
0.485
0.485806
0.485343
0.483602
0.480542
0.476086
0.470118
0.462471
0.452918
0.441207
0.469423
0.470922
0.471064
0.469856
0.46727
0.463242
0.457666
0.45039
0.441208
0.429893
0.460953
0.459647
0.456995
0.452937
0.447368
0.440136
0.43103
0.419762
0.405944
0.389058
0.459647
0.458422
0.455889
0.451992
0.446632
0.43967
0.430908
0.420083
0.406835
0.39069
0.456996
0.45589
0.453503
0.449784
0.44464
0.437942
0.429508
0.41909
0.406357
0.390874
0.452938
0.451992
0.449784
0.446264
0.441348
0.434916
0.426796
0.416761
0.404501
0.389618
0.44737
0.446633
0.444641
0.441349
0.43668
0.430521
0.422714
0.413045
0.401226
0.386896
0.440138
0.439671
0.437943
0.434916
0.430521
0.424653
0.417165
0.407857
0.396461
0.382648
0.431032
0.430911
0.42951
0.426798
0.422715
0.417165
0.410013
0.401072
0.390092
0.376774
0.419765
0.420086
0.419093
0.416763
0.413046
0.407858
0.401073
0.392518
0.381961
0.369132
0.405949
0.406839
0.406361
0.404504
0.401229
0.396463
0.390093
0.381962
0.371852
0.359525
0.389064
0.390695
0.390879
0.389622
0.3869
0.382651
0.376776
0.369133
0.359526
0.347737
0.395707
0.394401
0.391759
0.387735
0.382252
0.375202
0.366438
0.355772
0.342962
0.327707
0.394401
0.393179
0.39066
0.386802
0.381533
0.374753
0.366326
0.356079
0.343786
0.329169
0.391759
0.39066
0.388297
0.384628
0.37959
0.373089
0.365
0.355161
0.343364
0.329355
0.387735
0.386802
0.384628
0.381178
0.376392
0.370183
0.362437
0.353003
0.34169
0.328264
0.382253
0.381534
0.37959
0.376392
0.371884
0.365987
0.358596
0.349573
0.338739
0.325884
0.375203
0.374754
0.37309
0.370184
0.365987
0.36043
0.353415
0.344815
0.334466
0.32218
0.36644
0.366328
0.365002
0.362438
0.358597
0.353416
0.346806
0.338653
0.328805
0.317095
0.355775
0.356082
0.355163
0.353005
0.349574
0.344816
0.338653
0.330981
0.321662
0.310549
0.342966
0.343789
0.343367
0.341693
0.338741
0.334468
0.328806
0.321663
0.312915
0.302436
0.327711
0.329174
0.329358
0.328268
0.325887
0.322183
0.317097
0.31055
0.302437
0.292645
0.339013
0.337816
0.335404
0.331755
0.326834
0.320594
0.31298
0.303932
0.293391
0.281314
0.337816
0.336699
0.334404
0.330913
0.326193
0.320201
0.312886
0.304191
0.29406
0.282452
0.335404
0.334405
0.332263
0.328961
0.324469
0.318748
0.311752
0.303429
0.293727
0.282607
0.331755
0.330914
0.328961
0.32588
0.321646
0.316224
0.309571
0.301641
0.292387
0.281776
0.326834
0.326194
0.324469
0.321646
0.317703
0.312609
0.306327
0.298816
0.290036
0.279958
0.320595
0.320202
0.318749
0.316224
0.312609
0.307878
0.302
0.29494
0.286663
0.277147
0.312982
0.312887
0.311753
0.309572
0.306328
0.302001
0.296565
0.289993
0.282254
0.273336
0.303934
0.304193
0.303431
0.301642
0.298817
0.294941
0.289993
0.283952
0.276796
0.268518
0.293394
0.294063
0.293729
0.292389
0.290038
0.286664
0.282255
0.276796
0.270273
0.262687
0.281317
0.282455
0.28261
0.281779
0.27996
0.277149
0.273338
0.268519
0.262688
0.255854
0.29022
0.289185
0.287107
0.283988
0.279829
0.274634
0.268423
0.261231
0.253132
0.244253
0.289185
0.288221
0.28625
0.283273
0.279291
0.27431
0.268346
0.261433
0.253636
0.24507
0.287107
0.28625
0.28442
0.28162
0.277849
0.273115
0.267434
0.260837
0.253386
0.245185
0.283989
0.283273
0.28162
0.279029
0.275504
0.271052
0.265688
0.259446
0.252381
0.244592
0.279829
0.279292
0.277849
0.275504
0.27226
0.268124
0.263116
0.257265
0.250628
0.243297
0.274635
0.274311
0.273116
0.271052
0.268125
0.264343
0.259727
0.254309
0.248142
0.241315
0.268424
0.268347
0.267435
0.265689
0.263116
0.259728
0.255544
0.250599
0.244945
0.23867
0.261233
0.261434
0.260839
0.259447
0.257266
0.254309
0.250599
0.24617
0.241076
0.235399
0.253134
0.253638
0.253388
0.252382
0.250629
0.248143
0.244946
0.241076
0.236587
0.23156
0.244256
0.245073
0.245187
0.244594
0.243299
0.241317
0.238671
0.2354
0.23156
0.227234
0.248297
0.247428
0.245689
0.243096
0.239668
0.235439
0.230462
0.224816
0.218618
0.212042
0.247428
0.24662
0.244974
0.242503
0.239227
0.235176
0.2304
0.224971
0.218996
0.212635
0.245689
0.244974
0.243453
0.241138
0.238047
0.234211
0.229675
0.224506
0.218804
0.212715
0.243096
0.242503
0.241138
0.239011
0.23614
0.232553
0.228294
0.223426
0.218043
0.212278
0.239668
0.239227
0.238048
0.23614
0.233521
0.230218
0.226273
0.221746
0.216724
0.211332
0.23544
0.235177
0.234212
0.232553
0.230218
0.227233
0.223637
0.219488
0.214869
0.209896
0.230464
0.230401
0.229676
0.228295
0.226273
0.223637
0.220425
0.216691
0.212514
0.208001
0.224817
0.224972
0.224507
0.223427
0.221747
0.219489
0.216691
0.213406
0.209708
0.205696
0.21862
0.218998
0.218806
0.218045
0.216725
0.21487
0.212514
0.209708
0.206521
0.203047
0.212044
0.212637
0.212717
0.21228
0.211334
0.209897
0.208002
0.205696
0.203047
0.200146
0.212171
0.211442
0.209988
0.207826
0.20498
0.201489
0.197405
0.192801
0.187776
0.182459
0.211442
0.210766
0.209391
0.207333
0.204614
0.201271
0.197352
0.192925
0.188079
0.182936
0.209988
0.209391
0.208123
0.206198
0.203638
0.200476
0.196757
0.192544
0.18792
0.182996
0.207826
0.207333
0.206198
0.204434
0.202062
0.199111
0.195625
0.191661
0.187297
0.182634
0.204981
0.204615
0.203638
0.202062
0.199905
0.197195
0.193973
0.190291
0.186221
0.181858
0.20149
0.201272
0.200476
0.199112
0.197196
0.194754
0.191823
0.188453
0.18471
0.18068
0.197406
0.197353
0.196757
0.195626
0.193973
0.191823
0.18921
0.186179
0.182792
0.179126
0.192802
0.192926
0.192544
0.191662
0.190292
0.188454
0.186179
0.183511
0.180503
0.177228
0.187777
0.188081
0.187921
0.187298
0.186222
0.184711
0.182792
0.180504
0.177896
0.175033
0.182461
0.182937
0.182997
0.182635
0.181859
0.180681
0.179127
0.177229
0.175034
0.172602
0.180923
0.180302
0.179063
0.17722
0.174792
0.171807
0.168301
0.16432
0.159916
0.155151
0.180302
0.179726
0.178554
0.176799
0.174479
0.17162
0.168255
0.164426
0.160183
0.155583
0.179063
0.178554
0.177472
0.17583
0.173644
0.170937
0.16774
0.164092
0.160039
0.155633
0.17722
0.176799
0.17583
0.174324
0.172294
0.169764
0.166761
0.16332
0.159483
0.155299
0.174792
0.174479
0.173644
0.172295
0.170445
0.168114
0.165327
0.162117
0.158521
0.154583
0.171807
0.17162
0.170937
0.169764
0.168114
0.166003
0.163454
0.160496
0.157162
0.153493
0.168302
0.168256
0.167741
0.166761
0.165328
0.163454
0.161161
0.158473
0.15542
0.152038
0.16432
0.164427
0.164093
0.16332
0.162117
0.160496
0.158473
0.156071
0.153314
0.150235
0.159917
0.160184
0.160039
0.159483
0.158521
0.157162
0.155421
0.153314
0.150865
0.1481
0.155152
0.155584
0.155634
0.1553
0.154584
0.153493
0.152039
0.150235
0.1481
0.14566
0.153849
0.153308
0.152228
0.150617
0.148486
0.145851
0.142728
0.139136
0.135091
0.130602
0.153308
0.152806
0.151783
0.150248
0.14821
0.145685
0.142687
0.139233
0.135339
0.131015
0.152228
0.151783
0.150838
0.149398
0.147474
0.145078
0.142224
0.138929
0.135204
0.131061
0.150617
0.150248
0.149398
0.148073
0.146281
0.144034
0.141343
0.138223
0.134686
0.13074
0.148486
0.14821
0.147474
0.146281
0.14464
0.142558
0.140048
0.13712
0.133785
0.130052
0.145851
0.145685
0.145078
0.144034
0.142558
0.140658
0.138343
0.135623
0.132506
0.128998
0.142729
0.142687
0.142225
0.141344
0.140048
0.138344
0.136238
0.133739
0.130851
0.127581
0.139137
0.139234
0.138929
0.138224
0.13712
0.135624
0.133739
0.131471
0.128823
0.1258
0.135092
0.13534
0.135205
0.134686
0.133786
0.132507
0.130851
0.128823
0.126424
0.123655
0.130603
0.131016
0.131062
0.130741
0.130053
0.128999
0.127581
0.1258
0.123655
0.12115
0.130423
0.129945
0.128989
0.127559
0.125661
0.1233
0.120481
0.117208
0.113476
0.109274
0.129945
0.129501
0.128595
0.127232
0.125415
0.123151
0.120444
0.117297
0.113706
0.109663
0.128989
0.128595
0.127756
0.126475
0.124756
0.122605
0.120025
0.117018
0.113581
0.109707
0.12756
0.127232
0.126475
0.125292
0.123687
0.121663
0.119224
0.11637
0.1131
0.109405
0.125661
0.125415
0.124756
0.123687
0.12221
0.120327
0.118042
0.115355
0.112262
0.108756
0.1233
0.123151
0.122605
0.121663
0.120327
0.1186
0.116481
0.113971
0.111067
0.10776
0.120482
0.120444
0.120025
0.119224
0.118042
0.116481
0.114541
0.11222
0.109513
0.106415
0.117208
0.117297
0.117018
0.116371
0.115355
0.113972
0.11222
0.110097
0.107597
0.104715
0.113477
0.113707
0.113582
0.1131
0.112262
0.111067
0.109513
0.107597
0.105313
0.102656
0.109275
0.109664
0.109708
0.109406
0.108757
0.107761
0.106415
0.104715
0.102656
0.100231
0.11023
0.109807
0.108958
0.107687
0.105996
0.103886
0.101359
0.0984118
0.0950396
0.0912312
0.109807
0.109413
0.108608
0.107396
0.105777
0.103753
0.101325
0.0984923
0.0952486
0.0915845
0.108958
0.108608
0.107862
0.106722
0.105189
0.103264
0.100949
0.0982411
0.095136
0.0916251
0.107687
0.107396
0.106722
0.105667
0.104233
0.10242
0.100229
0.0976576
0.0947011
0.0913523
0.105996
0.105777
0.105189
0.104233
0.102911
0.101222
0.0991659
0.0967415
0.0939436
0.0907658
0.103887
0.103753
0.103265
0.102421
0.101222
0.0996682
0.0977591
0.095492
0.0928623
0.0898644
0.101359
0.101326
0.100949
0.100229
0.0991662
0.0977592
0.0960072
0.0939076
0.0914555
0.0886462
0.0984125
0.098493
0.0982417
0.0976581
0.0967418
0.0954923
0.0939078
0.0919855
0.0897202
0.087108
0.0950405
0.0952494
0.0951368
0.0947018
0.0939441
0.0928627
0.0914558
0.0897203
0.0876512
0.0852453
0.0912323
0.0915855
0.091626
0.0913532
0.0907665
0.089865
0.0886466
0.0871083
0.0852454
0.0830561
0.0929087
0.0925354
0.0917874
0.0906665
0.089174
0.0873117
0.0850808
0.0824818
0.0795141
0.0761762
0.0925355
0.0921881
0.0914788
0.0904091
0.0889804
0.0871941
0.0850515
0.0825529
0.0796979
0.0764853
0.0917875
0.0914789
0.0908208
0.0898147
0.0884616
0.086763
0.0847196
0.082332
0.0795995
0.0765214
0.0906666
0.0904092
0.0898148
0.0888842
0.0876184
0.0860184
0.084085
0.0818185
0.0792182
0.0762839
0.0891743
0.0889807
0.0884618
0.0876185
0.0864513
0.0849609
0.083148
0.0810127
0.0785542
0.0757728
0.0873122
0.0871945
0.0867633
0.0860186
0.084961
0.083591
0.0819089
0.0799146
0.0776073
0.0749879
0.0850814
0.0850521
0.0847201
0.0840854
0.0831483
0.0819091
0.0803678
0.0785242
0.0763776
0.0739291
0.0824826
0.0825537
0.0823327
0.0818191
0.0810131
0.0799149
0.0785244
0.0768413
0.0748646
0.0725961
0.0795151
0.0796989
0.0796004
0.079219
0.0785548
0.0776078
0.0763779
0.0748648
0.0730676
0.0709886
0.0761775
0.0764865
0.0765225
0.0762849
0.0757736
0.0749886
0.0739297
0.0725965
0.0709888
0.0691098
0.0781225
0.0777966
0.0771438
0.0761658
0.0748649
0.0732438
0.0713059
0.0690555
0.0664976
0.0636396
0.0777967
0.0774935
0.0768745
0.0759414
0.0746963
0.0731416
0.0712806
0.069117
0.0666557
0.0639033
0.0771439
0.0768745
0.0763005
0.0754233
0.0742446
0.0727668
0.0709929
0.0689263
0.0665714
0.0639345
0.076166
0.0759416
0.0754234
0.0746126
0.0735108
0.0721201
0.0704431
0.0684831
0.0662441
0.0637323
0.0748652
0.0746966
0.0742448
0.0735109
0.0724962
0.0712025
0.0696323
0.0677884
0.0656747
0.0632972
0.0732443
0.0731421
0.0727672
0.0721204
0.0712027
0.0700157
0.0685617
0.0668434
0.064864
0.0626299
0.0713067
0.0712812
0.0709935
0.0704436
0.0696326
0.0685619
0.0672334
0.0656497
0.0638138
0.0617319
0.0690564
0.0691179
0.0689271
0.0684838
0.067789
0.0668438
0.0656499
0.0642097
0.0625261
0.0606051
0.0664989
0.0666569
0.0665724
0.0662451
0.0656755
0.0648647
0.0638142
0.0625263
0.0610037
0.0592525
0.0636411
0.0639048
0.0639359
0.0637336
0.0632983
0.0626308
0.0617326
0.0606056
0.0592528
0.0576807
0.065552
0.0652702
0.0647058
0.0638612
0.0627392
0.0613436
0.0596796
0.0577538
0.0555749
0.0531541
0.0652702
0.065008
0.0644731
0.0636675
0.0625939
0.0612557
0.0596578
0.0578064
0.0557092
0.0533768
0.0647059
0.0644732
0.0639775
0.0632206
0.0622048
0.0609336
0.0594113
0.0576436
0.0556376
0.0534033
0.0638614
0.0636677
0.0632207
0.0625218
0.0615733
0.0603782
0.0589405
0.0572655
0.0553597
0.0532326
0.0627396
0.0625942
0.0622051
0.0615735
0.0607012
0.0595911
0.0582469
0.0566733
0.0548765
0.0528655
0.0613442
0.0612562
0.0609341
0.0603785
0.0595913
0.0585749
0.0573327
0.055869
0.0541896
0.0523031
0.0596804
0.0596586
0.059412
0.0589411
0.0582473
0.0573329
0.0562009
0.0548554
0.0533015
0.0515476
0.0577549
0.0578074
0.0576445
0.0572663
0.0566739
0.0558695
0.0548556
0.0536361
0.0522156
0.050602
0.0555763
0.0557105
0.0556388
0.0553608
0.0548775
0.0541904
0.0533021
0.0522159
0.0509362
0.0494705
0.0531559
0.0533785
0.0534049
0.053234
0.0528667
0.0523041
0.0515484
0.0506025
0.0494708
0.0481606
0.054899
0.054657
0.0541728
0.0534486
0.0524877
0.0512944
0.0498745
0.0482354
0.0463862
0.0443387
0.0546571
0.0544321
0.0539732
0.0532826
0.0523633
0.0512193
0.049856
0.04828
0.0465
0.0445268
0.0541729
0.0539733
0.0535483
0.0528998
0.0520306
0.0509443
0.0496459
0.0481416
0.0464393
0.0445491
0.0534489
0.0532829
0.0528999
0.0523017
0.0514907
0.0504702
0.0492449
0.0478204
0.0462039
0.0444049
0.0524881
0.0523637
0.0520308
0.0514908
0.0507459
0.0497991
0.0486546
0.0473176
0.0457947
0.0440949
0.051295
0.0512199
0.0509448
0.0504706
0.0497993
0.0489337
0.0478774
0.0466353
0.0452134
0.0436202
0.0498754
0.0498568
0.0496466
0.0492455
0.048655
0.0478776
0.0469167
0.0457766
0.0444628
0.0429831
0.0482366
0.0482812
0.0481427
0.0478213
0.0473183
0.0466358
0.0457769
0.0447454
0.0435461
0.0421866
0.0463878
0.0465016
0.0464407
0.0462051
0.0457957
0.0452143
0.0444634
0.0435464
0.0424679
0.0412347
0.0443408
0.0445288
0.0445509
0.0444066
0.0440963
0.0436214
0.0429841
0.0421873
0.0412351
0.0401343
0.0458933
0.0456866
0.0452729
0.0446546
0.0438349
0.042818
0.0416093
0.0402158
0.0386457
0.036909
0.0456866
0.0454944
0.0451025
0.044513
0.0437289
0.042754
0.0415935
0.0402537
0.0387422
0.0370685
0.045273
0.0451026
0.0447397
0.0441864
0.0434452
0.0425198
0.0414148
0.0401361
0.0386907
0.0370873
0.0446549
0.0445132
0.0441865
0.0436764
0.0429852
0.0421162
0.0410737
0.0398631
0.0384908
0.036965
0.0438353
0.0437293
0.0434455
0.0429853
0.0423509
0.0415451
0.0405719
0.039436
0.0381435
0.036702
0.0428186
0.0427546
0.0425203
0.0421166
0.0415453
0.0408091
0.0399115
0.0388568
0.0376504
0.0362994
0.0416103
0.0415944
0.0414156
0.0410744
0.0405723
0.0399117
0.0390957
0.0381281
0.0370136
0.0357591
0.0402171
0.0402549
0.0401372
0.0398641
0.0394368
0.0388574
0.0381284
0.0372533
0.0362363
0.0350836
0.0386474
0.0387439
0.0386922
0.0384921
0.0381447
0.0376513
0.0370143
0.0362366
0.035322
0.0342763
0.0369112
0.0370706
0.0370893
0.0369667
0.0367035
0.0363007
0.0357601
0.0350843
0.0342767
0.0333426
0.038296
0.0381198
0.0377674
0.0372408
0.0365428
0.0356774
0.0346492
0.0334641
0.0321291
0.0306521
0.0381198
0.0379561
0.0376222
0.0371202
0.0364526
0.0356229
0.0346357
0.0334964
0.0322112
0.0307877
0.0377675
0.0376223
0.0373132
0.0368421
0.0362111
0.0354236
0.0344837
0.0333963
0.0321673
0.0308037
0.037241
0.0371204
0.0368422
0.0364079
0.0358196
0.0350803
0.0341936
0.0331642
0.0319973
0.0306996
0.0365433
0.036453
0.0362114
0.0358198
0.0352799
0.0345945
0.0337668
0.032801
0.0317019
0.0304757
0.035678
0.0356235
0.0354241
0.0350807
0.0345947
0.0339686
0.0332053
0.0323084
0.0312824
0.030133
0.0346501
0.0346366
0.0344845
0.0341943
0.0337673
0.0332055
0.0325116
0.0316887
0.0307407
0.029673
0.0334655
0.0334976
0.0333974
0.0331652
0.0328018
0.032309
0.031689
0.0309446
0.0300792
0.0290977
0.0321309
0.0322128
0.0321688
0.0319987
0.0317031
0.0312834
0.0307414
0.0300795
0.0293007
0.0284095
0.0306543
0.0307898
0.0308057
0.0307014
0.0304773
0.0301344
0.0296741
0.0290984
0.0284099
0.0276129
0.0318993
0.0317494
0.0314497
0.0310018
0.0304083
0.0296725
0.0287983
0.0277908
0.0266553
0.0253984
0.0317495
0.0316102
0.0313262
0.0308993
0.0303316
0.0296262
0.0287869
0.0278182
0.0267252
0.0255139
0.0314498
0.0313263
0.0310635
0.0306628
0.0301263
0.0294568
0.0286576
0.0277331
0.0266878
0.0255275
0.0310021
0.0308995
0.0306629
0.0302936
0.0297934
0.0291648
0.028411
0.0275357
0.0265432
0.0254388
0.0304088
0.030332
0.0301266
0.0297936
0.0293346
0.0287518
0.0280481
0.0272268
0.0262918
0.0252482
0.0296731
0.0296268
0.0294572
0.0291652
0.028752
0.0282197
0.0275706
0.0268078
0.0259349
0.0249564
0.0287992
0.0287877
0.0286584
0.0284116
0.0280485
0.0275708
0.0269806
0.0262805
0.0254738
0.0245645
0.027792
0.0278193
0.0277341
0.0275366
0.0272275
0.0268083
0.0262808
0.0256473
0.0249105
0.0240742
0.026657
0.0267267
0.0266892
0.0265444
0.0262929
0.0259357
0.0254744
0.0249108
0.0242473
0.0234875
0.0254005
0.0255159
0.0255293
0.0254405
0.0252497
0.0249576
0.0245655
0.0240749
0.0234879
0.0228079
0.0265242
0.026397
0.0261424
0.0257622
0.0252582
0.0246334
0.0238912
0.0230356
0.0220714
0.0210036
0.026397
0.0262787
0.0260376
0.0256751
0.0251931
0.0245942
0.0238815
0.0230589
0.0221307
0.0211017
0.0261425
0.0260377
0.0258145
0.0254743
0.0250188
0.0244503
0.0237718
0.0229867
0.022099
0.0211133
0.0257624
0.0256752
0.0254744
0.0251608
0.0247361
0.0242024
0.0235623
0.022819
0.0219761
0.0210379
0.0252586
0.0251934
0.025019
0.0247363
0.0243466
0.0238517
0.0232542
0.0225567
0.0217626
0.020876
0.024634
0.0245947
0.0244507
0.0242027
0.0238519
0.0233999
0.0228487
0.0222009
0.0214594
0.020628
0.023892
0.0238822
0.0237724
0.0235629
0.0232546
0.0228489
0.0223476
0.021753
0.0210676
0.020295
0.0230367
0.0230599
0.0229876
0.0228198
0.0225573
0.0222013
0.0217532
0.0212151
0.020589
0.0198784
0.0220728
0.022132
0.0221002
0.0219772
0.0217635
0.0214601
0.0210681
0.0205893
0.0200254
0.0193797
0.0210055
0.0211035
0.0211149
0.0210394
0.0208773
0.0206291
0.0202959
0.019879
0.01938
0.0188018
0.022017
0.0219092
0.0216934
0.0213712
0.0209441
0.0204147
0.0197859
0.0190611
0.0182443
0.01734
0.0219092
0.0218089
0.0216046
0.0212974
0.0208889
0.0203814
0.0197776
0.0190808
0.0182945
0.0174231
0.0216935
0.0216046
0.0214155
0.0211272
0.0207412
0.0202595
0.0196847
0.0190196
0.0182677
0.0174329
0.0213713
0.0212975
0.0211273
0.0208616
0.0205017
0.0200495
0.0195072
0.0188776
0.0181636
0.0173691
0.0209444
0.0208892
0.0207414
0.0205018
0.0201716
0.0197524
0.0192462
0.0186554
0.0179828
0.017232
0.0204152
0.0203818
0.0202599
0.0200498
0.0197525
0.0193696
0.0189027
0.0183539
0.017726
0.017022
0.0197865
0.0197782
0.0196852
0.0195076
0.0192465
0.0189028
0.0184782
0.0179746
0.0173942
0.0167401
0.0190619
0.0190816
0.0190203
0.0188782
0.0186559
0.0183543
0.0179748
0.0175191
0.016989
0.0163874
0.0182454
0.0182956
0.0182686
0.0181645
0.0179835
0.0177265
0.0173946
0.0169892
0.0165119
0.0159654
0.0173415
0.0174245
0.0174342
0.0173702
0.017233
0.0170229
0.0167408
0.0163879
0.0159656
0.0154765
0.0182456
0.0181544
0.017972
0.0176995
0.0173385
0.016891
0.0163596
0.0157474
0.0150577
0.0142947
0.0181544
0.0180696
0.0178968
0.0176371
0.0172918
0.0168629
0.0163527
0.015764
0.0151001
0.0143647
0.017972
0.0178969
0.017737
0.0174932
0.0171669
0.0167598
0.0162741
0.0157123
0.0150775
0.014373
0.0176996
0.0176372
0.0174933
0.0172687
0.0169645
0.0165824
0.0161242
0.0155924
0.0149896
0.0143192
0.0173387
0.017292
0.0171671
0.0169646
0.0166856
0.0163313
0.0159037
0.0154048
0.014837
0.0142035
0.0168913
0.0168631
0.0167601
0.0165826
0.0163314
0.0160079
0.0156136
0.0151503
0.0146203
0.0140264
0.0163601
0.0163531
0.0162745
0.0161245
0.0159039
0.0156137
0.0152552
0.0148301
0.0143403
0.0137887
0.0157479
0.0157646
0.0157128
0.0155928
0.0154051
0.0151505
0.0148302
0.0144456
0.0139985
0.0134914
0.0150585
0.0151008
0.0150781
0.0149902
0.0148375
0.0146206
0.0143406
0.0139986
0.0135962
0.0131357
0.0142956
0.0143656
0.0143738
0.0143199
0.0142041
0.014027
0.0137891
0.0134916
0.0131358
0.0127238
0.0150964
0.0150195
0.0148656
0.0146359
0.0143315
0.0139543
0.0135066
0.012991
0.0124105
0.0117687
0.0150195
0.014948
0.0148023
0.0145832
0.0142921
0.0139306
0.0135007
0.013005
0.0124462
0.0118277
0.0148657
0.0148023
0.0146674
0.0144619
0.0141869
0.0138438
0.0134346
0.0129615
0.0124271
0.0118346
0.0146359
0.0145833
0.014462
0.0142726
0.0140163
0.0136942
0.0133083
0.0128605
0.0123532
0.0117893
0.0143316
0.0142922
0.0141869
0.0140163
0.0137811
0.0134827
0.0131225
0.0127025
0.0122248
0.0116921
0.0139545
0.0139308
0.0138439
0.0136943
0.0134828
0.0132103
0.0128782
0.0124883
0.0120425
0.0115432
0.0135068
0.0135009
0.0134347
0.0133084
0.0131226
0.0128783
0.0125765
0.0122189
0.0118071
0.0113434
0.0129913
0.0130052
0.0129617
0.0128607
0.0127027
0.0124884
0.0122189
0.0118955
0.0115197
0.0110936
0.0124109
0.0124465
0.0124274
0.0123534
0.012225
0.0120426
0.0118072
0.0115197
0.0111816
0.0107949
0.0117692
0.0118281
0.011835
0.0117897
0.0116923
0.0115434
0.0113436
0.0110937
0.010795
0.0104492
0.0124723
0.0124076
0.0122781
0.0120849
0.011829
0.0115119
0.0111357
0.0107027
0.0102156
0.00967742
0.0124076
0.0123474
0.0122248
0.0120406
0.0117959
0.011492
0.0111308
0.0107145
0.0102455
0.0097268
0.0122781
0.0122248
0.0121114
0.0119386
0.0117074
0.011419
0.0110752
0.0106779
0.0102295
0.0097326
0.0120849
0.0120406
0.0119386
0.0117794
0.0115639
0.0112933
0.0109691
0.0105931
0.0101675
0.00969465
0.011829
0.0117959
0.0117074
0.0115639
0.0113663
0.0111156
0.0108131
0.0104605
0.0100597
0.0096131
0.0115119
0.011492
0.011419
0.0112933
0.0111156
0.0108868
0.010608
0.0102808
0.00990679
0.00948832
0.0111357
0.0111308
0.0110752
0.0109691
0.0108131
0.010608
0.0103547
0.0100547
0.00970939
0.00932089
0.0107027
0.0107145
0.0106779
0.0105931
0.0104605
0.0102807
0.0100547
0.00978349
0.00946848
0.0091116
0.0102156