/*--------------------------------*- C++ -*----------------------------------*\
| =========                 |                                                 |
| \\      /  F ield         | foam-extend: Open Source CFD                    |
|  \\    /   O peration     | Version:     3.1                                |
|   \\  /    A nd           | Web:         http://www.extend-project.de       |
|    \\/     M anipulation  |                                                 |
\*---------------------------------------------------------------------------*/
FoamFile
{
    version     2.0;
    format      ascii;
    class       surfaceScalarField;
    location    "0.001";
    object      phi;
}
// * * * * * * * * * * * * * * * * * * * * * * * * * * * * * * * * * * * * * //

dimensions      [0 3 -1 0 0 0 0];

internalField   nonuniform List<scalar> 
45800
(
-4.64923e-11
-4.67968e-11
2.47891e-08
-8.86866e-11
-4.53264e-11
2.44096e-08
-1.25415e-10
-4.16986e-11
2.40841e-08
-1.58307e-10
-3.74114e-11
2.38139e-08
-1.89173e-10
-3.2969e-11
2.35976e-08
-2.19367e-10
-2.84835e-11
2.34329e-08
-2.49763e-10
-2.41176e-11
2.33179e-08
-2.80514e-10
-2.01374e-11
2.32508e-08
-3.10614e-10
-1.69475e-11
2.32299e-08
-1.41596e-11
2.32526e-08
-3.37419e-10
-4.5023e-11
-8.87525e-11
2.4409e-08
-8.75381e-11
-8.78043e-11
2.40271e-08
-1.25853e-10
-8.31406e-11
2.36964e-08
-1.60406e-10
-7.66208e-11
2.34164e-08
-1.92548e-10
-6.95877e-11
2.31868e-08
-2.23601e-10
-6.25933e-11
2.30061e-08
-2.54428e-10
-5.59989e-11
2.28724e-08
-2.85175e-10
-5.03129e-11
2.27837e-08
-3.14979e-10
-4.61322e-11
2.27381e-08
-4.28698e-11
2.27318e-08
-3.39951e-10
-4.15926e-11
-1.25123e-10
2.40836e-08
-8.28594e-11
-1.25758e-10
2.36959e-08
-1.21902e-10
-1.2208e-10
2.33576e-08
-1.58059e-10
-1.1535e-10
2.30666e-08
-1.91695e-10
-1.07244e-10
2.28219e-08
-2.23835e-10
-9.9059e-11
2.2623e-08
-2.55347e-10
-9.15471e-11
2.24684e-08
-2.86354e-10
-8.5374e-11
2.2356e-08
-3.1626e-10
-8.1341e-11
2.22838e-08
-7.88295e-11
2.22482e-08
-3.41212e-10
-3.74893e-11
-1.5788e-10
2.38138e-08
-7.65804e-11
-1.60044e-10
2.3416e-08
-1.15143e-10
-1.57927e-10
2.30661e-08
-1.521e-10
-1.52246e-10
2.27615e-08
-1.87022e-10
-1.44307e-10
2.25004e-08
-2.20191e-10
-1.35657e-10
2.22815e-08
-2.52253e-10
-1.27718e-10
2.2104e-08
-2.83427e-10
-1.21526e-10
2.19663e-08
-3.13541e-10
-1.17972e-10
2.18665e-08
-1.16621e-10
2.18012e-08
-3.3923e-10
-3.30793e-11
-1.88719e-10
2.35976e-08
-6.97432e-11
-1.92125e-10
2.31868e-08
-1.07266e-10
-1.9136e-10
2.28215e-08
-1.44125e-10
-1.86916e-10
2.24999e-08
-1.79645e-10
-1.79834e-10
2.222e-08
-2.1361e-10
-1.71299e-10
2.19798e-08
-2.46061e-10
-1.62893e-10
2.17778e-08
-2.77156e-10
-1.56322e-10
2.16129e-08
-3.07282e-10
-1.5283e-10
2.14841e-08
-1.52468e-10
2.13886e-08
-3.33783e-10
-2.85845e-11
-2.18916e-10
2.3433e-08
-6.27861e-11
-2.23179e-10
2.30062e-08
-9.92654e-11
-2.23458e-10
2.2623e-08
-1.35715e-10
-2.19917e-10
2.22811e-08
-1.71073e-10
-2.13602e-10
2.19793e-08
-2.05103e-10
-2.05461e-10
2.17159e-08
-2.37558e-10
-1.96541e-10
2.14883e-08
-2.68171e-10
-1.88661e-10
2.12947e-08
-2.97682e-10
-1.8369e-10
2.11347e-08
-1.83174e-10
2.10078e-08
-3.24517e-10
-2.42125e-11
-2.49344e-10
2.3318e-08
-5.61806e-11
-2.54037e-10
2.28725e-08
-9.1805e-11
-2.54993e-10
2.24685e-08
-1.28012e-10
-2.5194e-10
2.2104e-08
-1.62987e-10
-2.45827e-10
2.17774e-08
-1.96144e-10
-2.37599e-10
2.14875e-08
-2.27491e-10
-2.27897e-10
2.12325e-08
-2.56585e-10
-2.17706e-10
2.1009e-08
-2.84214e-10
-2.08617e-10
2.08159e-08
-2.05058e-10
2.0656e-08
-3.10432e-10
-2.02251e-11
-2.80162e-10
2.3251e-08
-5.04815e-11
-2.84845e-10
2.27838e-08
-8.56193e-11
-2.86046e-10
2.23561e-08
-1.2186e-10
-2.8313e-10
2.19664e-08
-1.56676e-10
-2.76838e-10
2.16129e-08
-1.88598e-10
-2.67855e-10
2.12939e-08
-2.17282e-10
-2.56473e-10
2.10081e-08
-2.42342e-10
-2.42516e-10
2.07523e-08
-2.65255e-10
-2.25935e-10
2.05246e-08
-2.13381e-10
2.03301e-08
-2.89138e-10
-1.70235e-11
-3.10354e-10
2.32301e-08
-4.6276e-11
-3.14736e-10
2.27382e-08
-8.15439e-11
-3.16031e-10
2.2284e-08
-1.18228e-10
-3.13311e-10
2.18666e-08
-1.53131e-10
-3.07027e-10
2.14842e-08
-1.83821e-10
-2.97372e-10
2.11345e-08
-2.08492e-10
-2.83935e-10
2.08155e-08
-2.2576e-10
-2.65175e-10
2.05243e-08
-2.3762e-10
-2.37715e-10
2.02592e-08
-2.03663e-10
2.00258e-08
-2.54253e-10
-1.42198e-11
2.32527e-08
-3.37251e-10
-4.29815e-11
2.27319e-08
-3.39796e-10
-7.89809e-11
2.22484e-08
-3.41066e-10
-1.16797e-10
2.18013e-08
-3.39083e-10
-1.52645e-10
2.13887e-08
-3.33625e-10
-1.83299e-10
2.10079e-08
-3.24347e-10
-2.0514e-10
2.06561e-08
-3.10272e-10
-2.13387e-10
2.03299e-08
-2.8902e-10
-2.03561e-10
2.00256e-08
-2.54199e-10
1.97485e-08
-1.90886e-10
-1.90907e-10
1.51939e-10
1.51667e-10
2.44855e-08
3.01635e-10
1.52948e-10
2.4107e-08
4.51284e-10
1.55647e-10
2.37788e-08
6.00154e-10
1.58668e-10
2.35064e-08
7.47085e-10
1.61571e-10
2.32891e-08
8.91042e-10
1.64183e-10
2.31247e-08
1.0311e-09
1.6627e-10
2.30116e-08
1.1666e-09
1.67547e-10
2.29478e-08
1.29739e-09
1.6785e-10
2.29313e-08
1.68412e-10
2.2958e-08
1.42357e-09
1.53207e-10
3.01584e-10
2.41059e-08
3.02799e-10
3.02571e-10
2.37279e-08
4.51182e-10
3.06132e-10
2.33975e-08
5.98584e-10
3.11042e-10
2.31167e-08
7.44231e-10
3.16107e-10
2.28867e-08
8.87107e-10
3.20723e-10
2.27067e-08
1.02633e-09
3.24398e-10
2.2575e-08
1.16136e-09
3.26592e-10
2.24896e-08
1.29215e-09
3.2715e-10
2.2448e-08
3.2932e-10
2.2444e-08
1.41906e-09
1.55719e-10
4.51567e-10
2.37779e-08
3.06353e-10
4.51278e-10
2.33965e-08
4.54076e-10
4.53935e-10
2.30621e-08
5.99885e-10
4.59074e-10
2.27727e-08
7.43819e-10
4.65158e-10
2.25289e-08
8.85156e-10
4.70872e-10
2.23315e-08
1.02307e-09
4.75352e-10
2.21795e-08
1.15723e-09
4.77895e-10
2.20705e-08
1.28775e-09
4.78309e-10
2.20022e-08
4.81849e-10
2.19683e-08
1.41517e-09
1.5858e-10
6.00567e-10
2.35063e-08
3.11035e-10
5.98935e-10
2.31159e-08
4.5921e-10
6.0002e-10
2.27718e-08
6.04217e-10
6.04114e-10
2.24715e-08
7.4665e-10
6.10012e-10
2.22131e-08
8.86456e-10
6.1607e-10
2.19964e-08
1.02315e-09
6.20777e-10
2.18219e-08
1.15654e-09
6.2314e-10
2.16877e-08
1.28682e-09
6.23037e-10
2.15915e-08
6.27717e-10
2.15278e-08
1.41439e-09
1.61459e-10
7.47525e-10
2.32892e-08
3.15933e-10
7.44646e-10
2.28866e-08
4.65076e-10
7.44154e-10
2.25283e-08
6.10109e-10
7.46769e-10
2.22122e-08
7.51701e-10
7.51568e-10
2.19369e-08
8.9016e-10
7.57177e-10
2.17003e-08
1.02566e-09
7.61795e-10
2.15013e-08
1.15842e-09
7.6378e-10
2.13395e-08
1.28868e-09
7.62921e-10
2.12139e-08
7.68502e-10
2.11199e-08
1.41651e-09
1.6408e-10
8.91483e-10
2.31249e-08
3.20522e-10
8.87523e-10
2.27069e-08
4.70634e-10
8.85541e-10
2.23315e-08
6.15929e-10
8.86751e-10
2.19959e-08
7.57291e-10
8.90198e-10
2.16994e-08
8.94987e-10
8.947e-10
2.14407e-08
1.02946e-09
8.98816e-10
2.12168e-08
1.16167e-09
9.00519e-10
2.10257e-08
1.29236e-09
8.99102e-10
2.08678e-08
9.05486e-10
2.07421e-08
1.42106e-09
1.66173e-10
1.03151e-09
2.30118e-08
3.24208e-10
1.02672e-09
2.25752e-08
4.75076e-10
1.02344e-09
2.21797e-08
6.20438e-10
1.0235e-09
2.18219e-08
7.61585e-10
1.02594e-09
2.15005e-08
8.99051e-10
1.02945e-09
2.12153e-08
1.03308e-09
1.03278e-09
2.09645e-08
1.16509e-09
1.03421e-09
2.07433e-08
1.29686e-09
1.03276e-09
2.05505e-08
1.03991e-09
2.03908e-08
1.42766e-09
1.67458e-10
1.16695e-09
2.29481e-08
3.26417e-10
1.1617e-09
2.24899e-08
4.77636e-10
1.15756e-09
2.20707e-08
6.22786e-10
1.15688e-09
2.16879e-08
7.63375e-10
1.15881e-09
2.13394e-08
9.00435e-10
1.16205e-09
2.10242e-08
1.03445e-09
1.16526e-09
2.07416e-08
1.16704e-09
1.16698e-09
2.0487e-08
1.30082e-09
1.16595e-09
2.02576e-08
1.17313e-09
2.00618e-08
1.43583e-09
1.6777e-10
1.29766e-09
2.29316e-08
3.26997e-10
1.29241e-09
2.24483e-08
4.78091e-10
1.28802e-09
2.20024e-08
6.22761e-10
1.28711e-09
2.15917e-08
7.62603e-10
1.28901e-09
2.12141e-08
8.98916e-10
1.29275e-09
2.08675e-08
1.03275e-09
1.29722e-09
2.05497e-08
1.16599e-09
1.30098e-09
2.02571e-08
1.30194e-09
1.30193e-09
1.99873e-08
1.30699e-09
1.97487e-08
1.44516e-09
1.68346e-10
2.29583e-08
1.42375e-09
3.29196e-10
2.24442e-08
1.41925e-09
4.81678e-10
2.19685e-08
1.41536e-09
6.27515e-10
2.1528e-08
1.41459e-09
7.68295e-10
2.11201e-08
1.41674e-09
9.05324e-10
2.07423e-08
1.42131e-09
1.03977e-09
2.0391e-08
1.4279e-09
1.17305e-09
2.00616e-08
1.43603e-09
1.30702e-09
1.97482e-08
1.44528e-09
1.94593e-08
1.4516e-09
1.45163e-09
3.8011e-10
3.799e-10
2.37255e-08
7.50855e-10
3.82105e-10
2.33541e-08
1.11623e-09
3.85725e-10
2.30277e-08
1.47733e-09
3.90242e-10
2.2755e-08
1.83448e-09
3.95332e-10
2.25366e-08
2.1876e-09
4.00763e-10
2.23708e-08
2.53595e-09
4.06207e-10
2.2257e-08
2.87798e-09
4.11238e-10
2.21945e-08
3.21086e-09
4.15571e-10
2.21828e-08
4.21074e-10
2.22195e-08
3.52824e-09
3.82281e-10
7.50826e-10
2.33527e-08
7.54011e-10
7.53849e-10
2.29844e-08
1.11925e-09
7.59443e-10
2.26586e-08
1.47979e-09
7.67237e-10
2.23791e-08
1.83631e-09
7.76293e-10
2.21492e-08
2.18873e-09
7.86042e-10
2.1969e-08
2.53642e-09
7.95815e-10
2.18377e-08
2.87803e-09
8.04833e-10
2.17544e-08
3.21098e-09
8.12799e-10
2.17178e-08
8.24891e-10
2.17223e-08
3.52885e-09
3.85727e-10
1.11649e-09
2.30265e-08
7.59546e-10
1.11933e-09
2.26572e-08
1.1253e-09
1.12522e-09
2.23305e-08
1.48523e-09
1.13469e-09
2.20453e-08
1.84059e-09
1.14637e-09
2.18035e-08
2.19161e-09
1.15909e-09
2.16074e-08
2.53771e-09
1.17188e-09
2.14574e-08
2.87777e-09
1.1837e-09
2.13516e-08
3.20959e-09
1.19416e-09
2.1289e-08
1.21191e-09
2.12636e-08
3.52726e-09
3.90137e-10
1.47771e-09
2.27549e-08
7.67134e-10
1.48011e-09
2.23782e-08
1.13469e-09
1.48535e-09
2.20441e-08
1.49505e-09
1.49501e-09
2.17508e-08
1.84971e-09
1.50794e-09
2.14969e-08
2.19939e-09
1.52245e-09
2.12834e-08
2.54392e-09
1.53699e-09
2.11123e-08
2.88234e-09
1.5503e-09
2.09827e-08
3.21262e-09
1.56205e-09
2.08933e-08
1.58441e-09
2.08388e-08
3.52909e-09
3.9522e-10
1.8349e-09
2.25368e-08
7.7609e-10
1.83671e-09
2.21492e-08
1.14617e-09
1.84091e-09
2.18026e-08
1.50788e-09
1.84982e-09
2.14957e-08
1.86267e-09
1.8626e-09
2.12274e-08
2.21131e-09
1.87771e-09
2.09964e-08
2.55415e-09
1.89299e-09
2.08025e-08
2.89082e-09
1.90654e-09
2.06466e-08
3.21944e-09
1.91822e-09
2.05291e-08
1.94388e-09
2.04455e-08
3.53437e-09
4.00658e-10
2.18802e-09
2.23711e-08
7.85836e-10
2.18914e-09
2.19693e-08
1.15881e-09
2.192e-09
2.16074e-08
1.52216e-09
2.1997e-09
2.12826e-08
1.87763e-09
2.21134e-09
2.09951e-08
2.22587e-09
2.22563e-09
2.07446e-08
2.56712e-09
2.24061e-09
2.0528e-08
2.90174e-09
2.25346e-09
2.03442e-08
3.22871e-09
2.26373e-09
2.01953e-08
2.29106e-09
2.00813e-08
3.54236e-09
4.06107e-10
2.53634e-09
2.22574e-08
7.95618e-10
2.53681e-09
2.18381e-08
1.17159e-09
2.5381e-09
2.14577e-08
1.53659e-09
2.54432e-09
2.11123e-08
1.89257e-09
2.55448e-09
2.08014e-08
2.24055e-09
2.56706e-09
2.05259e-08
2.5806e-09
2.58039e-09
2.02847e-08
2.91318e-09
2.59158e-09
2.00726e-08
3.23859e-09
2.59932e-09
1.98895e-08
2.62597e-09
1.97425e-08
3.552e-09
4.11147e-10
2.87833e-09
2.2195e-08
8.04653e-10
2.87838e-09
2.17548e-08
1.18343e-09
2.87814e-09
2.13519e-08
1.54994e-09
2.88274e-09
2.09829e-08
1.90607e-09
2.8913e-09
2.06465e-08
2.25308e-09
2.90213e-09
2.03422e-08
2.59147e-09
2.91329e-09
2.00703e-08
2.922e-09
2.92204e-09
1.9826e-08
3.24607e-09
2.92591e-09
1.9607e-08
2.94778e-09
1.94245e-08
3.5616e-09
4.15489e-10
3.21114e-09
2.21833e-08
8.12641e-10
3.21127e-09
2.17182e-08
1.19393e-09
3.2099e-09
2.12894e-08
1.56177e-09
3.21297e-09
2.08936e-08
1.91792e-09
3.21985e-09
2.05294e-08
2.26347e-09
3.22917e-09
2.01949e-08
2.59905e-09
3.23897e-09
1.98884e-08
2.92572e-09
3.24623e-09
1.96062e-08
3.24633e-09
3.24637e-09
1.93462e-08
3.25495e-09
1.91192e-08
3.5687e-09
4.21004e-10
2.222e-08
3.52846e-09
8.2476e-10
2.17227e-08
3.52908e-09
1.21173e-09
2.1264e-08
3.52751e-09
1.5842e-09
2.08392e-08
3.52937e-09
1.94367e-09
2.04458e-08
3.53468e-09
2.29088e-09
2.00815e-08
3.54268e-09
2.62577e-09
1.97427e-08
3.55231e-09
2.94756e-09
1.94242e-08
3.56184e-09
3.25485e-09
1.91185e-08
3.56881e-09
1.88364e-08
3.56627e-09
3.56633e-09
6.05175e-10
6.05037e-10
2.25152e-08
1.1943e-09
6.08267e-10
2.21567e-08
1.77365e-09
6.13031e-10
2.18353e-08
2.34698e-09
6.19506e-10
2.15622e-08
2.91704e-09
6.27564e-10
2.13389e-08
3.48584e-09
6.36984e-10
2.11651e-08
4.0544e-09
6.47431e-10
2.1041e-08
4.62232e-09
6.58478e-10
2.09681e-08
5.18702e-09
6.69897e-10
2.09482e-08
6.84229e-10
2.0982e-08
5.74029e-09
6.08342e-10
1.19428e-09
2.21551e-08
1.19976e-09
1.19967e-09
2.18016e-08
1.78037e-09
1.20794e-09
2.14831e-08
2.35426e-09
1.21967e-09
2.12051e-08
2.92445e-09
1.23436e-09
2.09722e-08
3.49294e-09
1.25163e-09
2.07859e-08
4.0608e-09
1.27082e-09
2.06465e-08
4.62785e-09
1.29114e-09
2.05547e-08
5.19169e-09
1.31246e-09
2.05114e-08
1.34177e-09
2.05132e-08
5.7432e-09
6.12953e-10
1.77387e-09
2.1834e-08
1.20791e-09
1.78041e-09
2.14815e-08
1.79073e-09
1.79068e-09
2.1165e-08
2.36548e-09
1.80625e-09
2.0884e-08
2.9355e-09
1.82608e-09
2.06417e-08
3.50306e-09
1.84942e-09
2.04421e-08
4.06923e-09
1.87548e-09
2.02865e-08
4.63394e-09
1.90318e-09
2.01748e-08
5.19519e-09
1.93239e-09
2.01078e-08
1.97488e-09
2.00814e-08
5.74429e-09
6.19395e-10
2.34729e-09
2.15621e-08
1.21947e-09
2.35451e-09
2.1204e-08
1.80612e-09
2.36553e-09
2.08826e-08
2.38329e-09
2.38326e-09
2.05966e-08
2.9541e-09
2.40677e-09
2.03454e-08
3.52112e-09
2.43458e-09
2.01312e-08
4.08583e-09
2.46551e-09
1.99575e-08
4.64823e-09
2.49848e-09
1.9825e-08
5.20644e-09
2.53349e-09
1.9734e-08
2.58721e-09
1.96809e-08
5.75207e-09
6.27473e-10
2.91738e-09
2.13393e-08
1.23415e-09
2.92478e-09
2.09722e-08
1.82578e-09
2.93574e-09
2.06408e-08
2.40656e-09
2.95412e-09
2.03441e-08
2.97949e-09
2.97942e-09
2.00818e-08
3.5467e-09
3.01019e-09
1.98536e-08
4.10998e-09
3.04435e-09
1.96603e-08
4.67009e-09
3.08026e-09
1.95047e-08
5.22525e-09
3.11862e-09
1.93888e-08
3.18126e-09
1.93096e-08
5.76717e-09
6.36898e-10
3.48619e-09
2.11654e-08
1.25146e-09
3.49328e-09
2.07862e-08
1.84913e-09
3.50341e-09
2.04421e-08
2.43416e-09
3.52138e-09
2.01303e-08
3.00994e-09
3.54662e-09
1.98522e-08
3.57844e-09
3.57816e-09
1.96081e-08
4.14079e-09
3.61398e-09
1.9396e-08
4.69833e-09
3.65099e-09
1.92159e-08
5.25045e-09
3.68987e-09
1.90719e-08
3.75839e-09
1.89655e-08
5.78912e-09
6.47351e-10
4.05474e-09
2.10415e-08
1.27066e-09
4.06114e-09
2.06469e-08
1.87523e-09
4.06959e-09
2.02869e-08
2.4651e-09
4.08622e-09
1.99576e-08
3.04371e-09
4.11026e-09
1.96591e-08
3.61362e-09
4.14052e-09
1.93936e-08
4.17581e-09
4.17557e-09
1.91609e-08
4.73102e-09
4.21193e-09
1.89564e-08
5.28007e-09
4.24873e-09
1.87816e-08
4.3186e-09
1.86455e-08
5.81686e-09
6.58406e-10
4.62263e-09
2.09687e-08
1.291e-09
4.62817e-09
2.05552e-08
1.90297e-09
4.63429e-09
2.01753e-08
2.4982e-09
4.64863e-09
1.98253e-08
3.07979e-09
4.67057e-09
1.95046e-08
3.65029e-09
4.69857e-09
1.92136e-08
4.21144e-09
4.73089e-09
1.89538e-08
4.76423e-09
4.76427e-09
1.87209e-08
5.31039e-09
4.79599e-09
1.85135e-08
4.86004e-09
1.83452e-08
5.84822e-09
6.69835e-10
5.18729e-09
2.09488e-08
1.31234e-09
5.19197e-09
2.05119e-08
1.93222e-09
5.1955e-09
2.01083e-08
2.5333e-09
5.2068e-09
1.97344e-08
3.11845e-09
5.22565e-09
1.93892e-08
3.6896e-09
5.25084e-09
1.90715e-08
4.24819e-09
5.28033e-09
1.87804e-08
4.79558e-09
5.3104e-09
1.85127e-08
5.33522e-09
5.33523e-09
1.82673e-08
5.37857e-09
1.80564e-08
5.8795e-09
6.84179e-10
2.09826e-08
5.74051e-09
1.34168e-09
2.05137e-08
5.74343e-09
1.97475e-09
2.00818e-08
5.74454e-09
2.58707e-09
1.96813e-08
5.75236e-09
3.18113e-09
1.931e-08
5.76747e-09
3.75828e-09
1.89658e-08
5.78941e-09
4.31842e-09
1.86458e-08
5.81713e-09
4.85971e-09
1.83449e-08
5.84838e-09
5.37835e-09
1.80556e-08
5.87948e-09
1.77901e-08
5.90163e-09
5.90164e-09
8.06989e-10
8.06913e-10
2.09013e-08
1.59244e-09
8.11162e-10
2.05601e-08
2.3652e-09
8.17215e-10
2.02453e-08
3.13225e-09
8.2595e-10
1.99692e-08
3.89966e-09
8.37503e-10
1.9734e-08
4.67282e-09
8.51762e-10
1.95401e-08
5.45632e-09
8.68529e-10
1.9389e-08
6.25362e-09
8.8758e-10
1.92832e-08
7.06611e-09
9.09017e-10
1.92267e-08
9.36379e-10
1.92229e-08
7.88883e-09
8.11145e-10
1.59241e-09
2.05585e-08
1.60023e-09
1.60017e-09
2.02235e-08
2.37567e-09
1.61147e-09
1.99134e-08
3.14441e-09
1.62779e-09
1.96345e-08
3.91267e-09
1.64918e-09
1.93923e-08
4.6857e-09
1.6757e-09
1.91889e-08
5.46808e-09
1.70691e-09
1.90257e-08
6.26327e-09
1.74238e-09
1.89047e-08
7.07263e-09
1.78258e-09
1.88285e-08
1.83663e-09
1.87963e-08
7.88927e-09
8.1707e-10
2.36533e-09
2.0244e-08
1.61133e-09
2.37563e-09
1.99118e-08
2.39093e-09
2.39089e-09
1.96059e-08
3.16229e-09
2.41362e-09
1.93268e-08
3.93163e-09
2.44331e-09
1.90782e-08
4.70447e-09
2.47988e-09
1.88651e-08
5.48515e-09
2.52313e-09
1.86896e-08
6.27707e-09
2.5724e-09
1.85529e-08
7.08176e-09
2.62832e-09
1.84574e-08
2.7061e-09
1.84014e-08
7.89229e-09
8.25851e-10
3.13246e-09
1.99691e-08
1.62752e-09
3.14455e-09
1.96334e-08
2.41338e-09
3.16222e-09
1.93254e-08
3.18964e-09
3.18958e-09
1.90444e-08
3.9618e-09
3.22608e-09
1.87904e-08
4.73541e-09
3.27083e-09
1.85667e-08
5.51522e-09
3.32345e-09
1.83774e-08
6.30446e-09
3.38365e-09
1.82245e-08
7.10454e-09
3.45232e-09
1.81099e-08
3.55092e-09
1.80322e-08
7.90844e-09
8.37453e-10
3.89989e-09
1.97344e-08
1.64902e-09
3.91289e-09
1.93923e-08
2.44294e-09
3.93175e-09
1.90773e-08
3.22579e-09
3.96168e-09
1.87891e-08
4.00285e-09
4.00271e-09
1.85281e-08
4.77872e-09
4.0539e-09
1.82946e-08
5.5582e-09
4.11375e-09
1.80906e-08
6.34533e-09
4.18158e-09
1.79197e-08
7.14141e-09
4.25953e-09
1.77856e-08
4.37572e-09
1.7687e-08
7.93914e-09
8.51716e-10
4.67307e-09
1.95405e-08
1.67561e-09
4.68594e-09
1.91893e-08
2.47965e-09
4.70471e-09
1.88651e-08
3.27034e-09
4.73553e-09
1.85658e-08
4.05354e-09
4.77845e-09
1.82932e-08
4.83364e-09
4.83323e-09
1.80487e-08
5.61412e-09
4.89838e-09
1.78309e-08
6.39932e-09
4.97126e-09
1.7641e-08
7.19186e-09
5.05433e-09
1.74846e-08
5.18378e-09
1.73647e-08
7.98457e-09
8.6849e-10
5.45657e-09
1.93895e-08
1.70682e-09
5.46833e-09
1.90262e-08
2.52299e-09
5.48542e-09
1.869e-08
3.32311e-09
5.51552e-09
1.83774e-08
4.11298e-09
5.55835e-09
1.80894e-08
4.8978e-09
5.61352e-09
1.78285e-08
5.6809e-09
5.68053e-09
1.75956e-08
6.46518e-09
5.75607e-09
1.73873e-08
7.25448e-09
5.84037e-09
1.72062e-08
5.97664e-09
1.70629e-08
8.04421e-09
8.8755e-10
6.25385e-09
1.92838e-08
1.74232e-09
6.26352e-09
1.89052e-08
2.57231e-09
6.27733e-09
1.85534e-08
3.38354e-09
6.30476e-09
1.82248e-08
4.18122e-09
6.3457e-09
1.79196e-08
4.9703e-09
6.39929e-09
1.76387e-08
5.75527e-09
6.46464e-09
1.73847e-08
6.53903e-09
6.53894e-09
1.71542e-08
7.32571e-09
6.61992e-09
1.69473e-08
6.75324e-09
1.67783e-08
8.11607e-09
9.08997e-10
7.06633e-09
1.92273e-08
1.78254e-09
7.07285e-09
1.88291e-08
2.62827e-09
7.082e-09
1.84579e-08
3.45229e-09
7.1048e-09
1.81103e-08
4.25959e-09
7.14168e-09
1.77859e-08
5.05413e-09
7.19206e-09
1.74842e-08
5.83963e-09
7.25446e-09
1.72051e-08
6.61937e-09
7.32543e-09
1.69465e-08
7.39913e-09
7.39899e-09
1.67085e-08
7.50876e-09
1.65038e-08
8.19618e-09
9.36372e-10
1.92235e-08
7.88902e-09
1.83662e-09
1.87969e-08
7.88946e-09
2.7061e-09
1.84019e-08
7.89249e-09
3.55094e-09
1.80326e-08
7.90865e-09
4.37577e-09
1.76875e-08
7.93934e-09
5.18384e-09
1.73651e-08
7.98473e-09
5.97655e-09
1.70632e-08
8.04432e-09
6.75288e-09
1.6778e-08
8.11605e-09
7.50849e-09
1.65031e-08
8.19592e-09
1.62511e-08
8.27818e-09
8.27805e-09
9.66627e-10
9.66601e-10
1.89681e-08
1.90771e-09
9.71671e-10
1.86473e-08
2.83448e-09
9.78871e-10
1.83397e-08
3.75703e-09
9.89666e-10
1.8057e-08
4.68493e-09
1.00448e-09
1.78017e-08
5.62749e-09
1.02338e-09
1.75742e-08
6.59398e-09
1.04643e-09
1.73761e-08
7.59348e-09
1.07377e-09
1.721e-08
8.6343e-09
1.10607e-09
1.70798e-08
1.148e-09
1.69898e-08
9.71937e-09
9.71583e-10
1.90766e-09
1.86459e-08
1.9174e-09
1.91737e-09
1.8332e-08
2.84804e-09
1.93136e-09
1.80302e-08
3.77319e-09
1.95189e-09
1.77471e-08
4.70243e-09
1.9796e-09
1.74879e-08
5.64482e-09
2.01504e-09
1.72548e-08
6.60938e-09
2.05825e-09
1.70493e-08
7.60493e-09
2.10946e-09
1.68734e-08
8.63935e-09
2.17004e-09
1.67301e-08
2.25115e-09
1.66198e-08
9.71275e-09
9.78682e-10
2.83451e-09
1.83385e-08
1.93115e-09
2.8479e-09
1.80288e-08
2.8677e-09
2.86762e-09
1.77331e-08
3.79711e-09
2.89697e-09
1.74523e-08
4.72868e-09
2.93602e-09
1.71903e-08
5.6716e-09
2.98552e-09
1.69517e-08
6.6345e-09
3.04607e-09
1.67389e-08
7.6258e-09
3.11787e-09
1.65532e-08
8.65322e-09
3.20267e-09
1.63973e-08
3.31873e-09
1.6271e-08
9.71603e-09
9.89593e-10
3.75712e-09
1.80569e-08
1.95159e-09
3.77319e-09
1.77461e-08
2.89669e-09
3.79691e-09
1.74511e-08
3.83337e-09
3.83325e-09
1.71715e-08
4.76983e-09
3.88222e-09
1.69078e-08
5.71503e-09
3.94373e-09
1.66633e-08
6.67791e-09
4.01849e-09
1.64421e-08
7.66646e-09
4.10743e-09
1.62463e-08
8.68789e-09
4.21272e-09
1.60784e-08
4.35994e-09
1.59382e-08
9.74066e-09
1.00448e-09
4.68503e-09
1.7802e-08
1.9795e-09
4.70253e-09
1.74879e-08
2.93565e-09
4.72864e-09
1.71894e-08
3.88191e-09
4.76953e-09
1.69066e-08
4.82616e-09
4.82591e-09
1.66402e-08
5.77604e-09
4.89761e-09
1.63909e-08
6.74023e-09
4.98413e-09
1.61607e-08
7.72745e-09
5.08625e-09
1.59537e-08
8.74448e-09
5.20784e-09
1.57734e-08
5.3823e-09
1.56203e-08
9.78885e-09
1.02338e-09
5.6276e-09
1.75746e-08
2.01505e-09
5.64493e-09
1.72552e-08
2.98538e-09
5.67169e-09
1.69517e-08
3.94324e-09
5.71498e-09
1.66625e-08
4.89723e-09
5.77555e-09
1.63896e-08
5.85474e-09
5.85417e-09
1.61346e-08
6.8226e-09
5.95036e-09
1.58968e-08
7.80951e-09
6.06261e-09
1.56777e-08
8.82347e-09
6.19542e-09
1.54831e-08
6.392e-09
1.53168e-08
9.86165e-09
1.04644e-09
6.5941e-09
1.73765e-08
2.05826e-09
6.6095e-09
1.70498e-08
3.04606e-09
6.63463e-09
1.67393e-08
4.01827e-09
6.67806e-09
1.64422e-08
4.98334e-09
6.74017e-09
1.61597e-08
5.94968e-09
6.82166e-09
1.58947e-08
6.92394e-09
6.92339e-09
1.56484e-08
7.91263e-09
7.04305e-09
1.54182e-08
8.92454e-09
7.18239e-09
1.52073e-08
7.39352e-09
1.50264e-08
9.95951e-09
1.07379e-09
7.59361e-09
1.72105e-08
2.1095e-09
7.60506e-09
1.68739e-08
3.11792e-09
7.62593e-09
1.65536e-08
4.10751e-09
7.66661e-09
1.62467e-08
5.08604e-09
7.72765e-09
1.59535e-08
6.06154e-09
7.80916e-09
1.56757e-08
7.04209e-09
7.91167e-09
1.54159e-08
8.03392e-09
8.03365e-09
1.51718e-08
9.04536e-09
8.174e-09
1.49442e-08
8.38861e-09
1.4747e-08
1.00815e-08
1.1061e-09
8.63443e-09
1.70804e-08
2.1701e-09
8.63948e-09
1.67306e-08
3.20277e-09
8.65334e-09
1.63978e-08
4.21288e-09
8.688e-09
1.60788e-08
5.20814e-09
8.74456e-09
1.57738e-08
6.19536e-09
8.8234e-09
1.54827e-08
7.18157e-09
8.9242e-09
1.52063e-08
8.17343e-09
9.04476e-09
1.49435e-08
9.1805e-09
9.18017e-09
1.46952e-08
9.37431e-09
1.44738e-08
1.02248e-08
1.14805e-09
1.69904e-08
9.71948e-09
2.25124e-09
1.66203e-08
9.71286e-09
3.31886e-09
1.62715e-08
9.71613e-09
4.36014e-09
1.59386e-08
9.74074e-09
5.38256e-09
1.56207e-08
9.78888e-09
6.39227e-09
1.53172e-08
9.8616e-09
7.39359e-09
1.50267e-08
9.95941e-09
8.38828e-09
1.47468e-08
1.00813e-08
9.37406e-09
1.44731e-08
1.02243e-08
1.42177e-08
1.0391e-08
1.03908e-08
1.06837e-09
1.06837e-09
1.68314e-08
2.10859e-09
1.07382e-09
1.65333e-08
3.13325e-09
1.08157e-09
1.62335e-08
4.15456e-09
1.09346e-09
1.59422e-08
5.1846e-09
1.11015e-09
1.56615e-08
6.23581e-09
1.1319e-09
1.53911e-08
7.32145e-09
1.15903e-09
1.51314e-08
8.45593e-09
1.19212e-09
1.48834e-08
9.65469e-09
1.2324e-09
1.46487e-08
1.28544e-09
1.44288e-08
1.09303e-08
1.0737e-09
2.1085e-09
1.6532e-08
2.11923e-09
2.1192e-09
1.62411e-08
3.14844e-09
2.13459e-09
1.5948e-08
4.17285e-09
2.15743e-09
1.56587e-08
5.20444e-09
2.18885e-09
1.53776e-08
6.25524e-09
2.22982e-09
1.51061e-08
7.33808e-09
2.28087e-09
1.48446e-08
8.4668e-09
2.34298e-09
1.45939e-08
9.65607e-09
2.41842e-09
1.43548e-08
2.51962e-09
1.41265e-08
1.09151e-08
1.08137e-09
3.13318e-09
1.62324e-08
2.13436e-09
3.14822e-09
1.59468e-08
3.17052e-09
3.17041e-09
1.56611e-08
4.20024e-09
3.20352e-09
1.53765e-08
5.23497e-09
3.24816e-09
1.50962e-08
6.28681e-09
3.30579e-09
1.48239e-08
7.36802e-09
3.37776e-09
1.45608e-08
8.49176e-09
3.46523e-09
1.43072e-08
9.67221e-09
3.57107e-09
1.40642e-08
3.71515e-09
1.38307e-08
1.0917e-08
1.09343e-09
4.15452e-09
1.59421e-08
2.15716e-09
4.17272e-09
1.56579e-08
3.20325e-09
4.19991e-09
1.53755e-08
4.24174e-09
4.24154e-09
1.50949e-08
5.28279e-09
4.29813e-09
1.48168e-08
6.33806e-09
4.37036e-09
1.45434e-08
7.42001e-09
4.45997e-09
1.42779e-08
8.54115e-09
4.56911e-09
1.40213e-08
9.71479e-09
4.7012e-09
1.37747e-08
4.88386e-09
1.35372e-08
1.09471e-08
1.1102e-09
5.18456e-09
1.56617e-08
2.18882e-09
5.20439e-09
1.53776e-08
3.24785e-09
5.23479e-09
1.50955e-08
4.29786e-09
5.28234e-09
1.48158e-08
5.34871e-09
5.34835e-09
1.45391e-08
6.41051e-09
5.43345e-09
1.4266e-08
7.49526e-09
5.53818e-09
1.39978e-08
8.61605e-09
5.66481e-09
1.37372e-08
9.78547e-09
5.81867e-09
1.34865e-08
6.03576e-09
1.32458e-08
1.1008e-08
1.13195e-09
6.23578e-09
1.53914e-08
2.22991e-09
6.25521e-09
1.51064e-08
3.30576e-09
6.28676e-09
1.48239e-08
4.36996e-09
6.33785e-09
1.45428e-08
5.43313e-09
6.40985e-09
1.42649e-08
6.50514e-09
6.50444e-09
1.39916e-08
7.59589e-09
6.62226e-09
1.3722e-08
8.71819e-09
6.76325e-09
1.3457e-08
9.88561e-09
6.93357e-09
1.32008e-08
7.17983e-09
1.29566e-08
1.11018e-08
1.15909e-09
7.32144e-09
1.51318e-08
2.28098e-09
7.33807e-09
1.4845e-08
3.37789e-09
7.368e-09
1.45611e-08
4.4599e-09
7.42e-09
1.4278e-08
5.53748e-09
7.49501e-09
1.39969e-08
6.6216e-09
7.59473e-09
1.37203e-08
7.72201e-09
7.72132e-09
1.34489e-08
8.84889e-09
7.87397e-09
1.31806e-08
1.00162e-08
8.05593e-09
1.29176e-08
8.32376e-09
1.26688e-08
1.12299e-08
1.19218e-09
8.45594e-09
1.48838e-08
2.34311e-09
8.46681e-09
1.45943e-08
3.46542e-09
8.49176e-09
1.43076e-08
4.56936e-09
8.54114e-09
1.40216e-08
5.66477e-09
8.61605e-09
1.37371e-08
6.76222e-09
8.71759e-09
1.34554e-08
7.87301e-09
8.84766e-09
1.31788e-08
9.00687e-09
9.00646e-09
1.29054e-08
1.01767e-08
9.19444e-09
1.26359e-08
9.47314e-09
1.23814e-08
1.13929e-08
1.23247e-09
9.65473e-09
1.46491e-08
2.41857e-09
9.65609e-09
1.43553e-08
3.5713e-09
9.67221e-09
1.40646e-08
4.70151e-09
9.71476e-09
1.3775e-08
5.81916e-09
9.78536e-09
1.34868e-08
6.93365e-09
9.88532e-09
1.32005e-08
8.05515e-09
1.00156e-08
1.29168e-08
9.19392e-09
1.01759e-08
1.26353e-08
1.03637e-08
1.03632e-08
1.23567e-08
1.06289e-08
1.20914e-08
1.15902e-08
1.28553e-09
1.44293e-08
1.09303e-08
2.51979e-09
1.4127e-08
1.09152e-08
3.7154e-09
1.38311e-08
1.0917e-08
4.88419e-09
1.35375e-08
1.0947e-08
6.03617e-09
1.32462e-08
1.10079e-08
7.18024e-09
1.29568e-08
1.11016e-08
8.32395e-09
1.2669e-08
1.12296e-08
9.47288e-09
1.23812e-08
1.13925e-08
1.06287e-08
1.20909e-08
1.15896e-08
1.18078e-08
1.18339e-08
1.18336e-08
1.104e-09
1.10401e-09
1.46234e-08
2.17828e-09
1.10921e-09
1.43498e-08
3.23518e-09
1.11651e-09
1.406e-08
4.28713e-09
1.1279e-09
1.37624e-08
5.34669e-09
1.14411e-09
1.34578e-08
6.42717e-09
1.16549e-09
1.31451e-08
7.54319e-09
1.19254e-09
1.28228e-08
8.71134e-09
1.22607e-09
1.24892e-08
9.95057e-09
1.26765e-09
1.21418e-08
1.32298e-09
1.17772e-08
1.12792e-08
1.10908e-09
2.17816e-09
1.43488e-08
2.18857e-09
2.18853e-09
1.40823e-08
3.25002e-09
2.20324e-09
1.37998e-08
4.30508e-09
2.22524e-09
1.35063e-08
5.36612e-09
2.25584e-09
1.32048e-08
6.44597e-09
2.29622e-09
1.28955e-08
7.55873e-09
2.34721e-09
1.25772e-08
8.72031e-09
2.41019e-09
1.22482e-08
9.94872e-09
2.4879e-09
1.19061e-08
2.59245e-09
1.15466e-08
1.12592e-08
1.11633e-09
3.23504e-09
1.40592e-08
2.20303e-09
3.24975e-09
1.37989e-08
3.27139e-09
3.27125e-09
1.35248e-08
4.33184e-09
3.30338e-09
1.3238e-08
5.39616e-09
3.34705e-09
1.29407e-08
6.47715e-09
3.40404e-09
1.2635e-08
7.58831e-09
3.4761e-09
1.23207e-08
8.74477e-09
3.56494e-09
1.1996e-08
9.96393e-09
3.67392e-09
1.1659e-08
3.8221e-09
1.13059e-08
1.12591e-08
1.12789e-09
4.28699e-09
1.37623e-08
2.22501e-09
4.30486e-09
1.35057e-08
3.30315e-09
4.33145e-09
1.32371e-08
4.37241e-09
4.37216e-09
1.29569e-08
5.44323e-09
4.42782e-09
1.26652e-08
6.52794e-09
4.49953e-09
1.23632e-08
7.64013e-09
4.58958e-09
1.20523e-08
8.79422e-09
4.70073e-09
1.17314e-08
1.00066e-08
4.83692e-09
1.13993e-08
5.02444e-09
1.10526e-08
1.12888e-08
1.14418e-09
5.34656e-09
1.3458e-08
2.25586e-09
5.36598e-09
1.32048e-08
3.34681e-09
5.39588e-09
1.29401e-08
4.42761e-09
5.44272e-09
1.26644e-08
5.50845e-09
5.50805e-09
1.23781e-08
6.6001e-09
5.59294e-09
1.20809e-08
7.71565e-09
5.69864e-09
1.17732e-08
8.86994e-09
5.82818e-09
1.14554e-08
1.00786e-08
5.98734e-09
1.11275e-08
6.2103e-09
1.07873e-08
1.13512e-08
1.16556e-09
6.42704e-09
1.31454e-08
2.29636e-09
6.44584e-09
1.28958e-08
3.40408e-09
6.47699e-09
1.2635e-08
4.49922e-09
6.52763e-09
1.23627e-08
5.5927e-09
6.59939e-09
1.20801e-08
6.69507e-09
6.69436e-09
1.17878e-08
7.81739e-09
6.81386e-09
1.14844e-08
8.9741e-09
6.95893e-09
1.11695e-08
1.01816e-08
7.13612e-09
1.08445e-08
7.38975e-09
1.05104e-08
1.14483e-08
1.19262e-09
7.54308e-09
1.28231e-08
2.34736e-09
7.55862e-09
1.25775e-08
3.47629e-09
7.58819e-09
1.2321e-08
4.5896e-09
7.64001e-09
1.20523e-08
5.69807e-09
7.7153e-09
1.17725e-08
6.8133e-09
7.81621e-09
1.14832e-08
7.94625e-09
7.94555e-09
1.11843e-08
9.10879e-09
8.1037e-09
1.08733e-08
1.03174e-08
8.29457e-09
1.05506e-08
8.57215e-09
1.02214e-08
1.15824e-08
1.22616e-09
8.71127e-09
1.24895e-08
2.41036e-09
8.72022e-09
1.22485e-08
3.56518e-09
8.74467e-09
1.19963e-08
4.70105e-09
8.7941e-09
1.17317e-08
5.82824e-09
8.86982e-09
1.14554e-08
6.95804e-09
8.97341e-09
1.11684e-08
8.10285e-09
9.10754e-09
1.0872e-08
9.2741e-09
9.27366e-09
1.05642e-08
1.0487e-08
9.47323e-09
1.02444e-08
9.76571e-09
9.91965e-09
1.17552e-08
1.26774e-09
9.95053e-09
1.21422e-08
2.48809e-09
9.94867e-09
1.19065e-08
3.6742e-09
9.96384e-09
1.16593e-08
4.83729e-09
1.00065e-08
1.13995e-08
5.98788e-09
1.00783e-08
1.11277e-08
7.13626e-09
1.01812e-08
1.08443e-08
8.2939e-09
1.03168e-08
1.055e-08
9.47278e-09
1.04862e-08
1.02439e-08
1.06886e-08
1.06882e-08
9.92596e-09
1.09748e-08
9.60304e-09
1.19679e-08
1.32308e-09
1.17776e-08
1.12792e-08
2.59265e-09
1.15469e-08
1.12592e-08
3.82238e-09
1.13061e-08
1.1259e-08
5.02482e-09
1.10529e-08
1.12887e-08
6.21075e-09
1.07876e-08
1.1351e-08
7.39019e-09
1.05105e-08
1.1448e-08
8.57237e-09
1.02215e-08
1.15821e-08
9.7655e-09
9.91951e-09
1.17547e-08
1.09746e-08
9.60272e-09
1.19672e-08
9.27731e-09
1.22401e-08
1.22398e-08
1.0755e-09
1.07552e-09
1.24723e-08
2.12048e-09
1.07983e-09
1.2225e-08
3.14521e-09
1.08562e-09
1.19497e-08
4.16017e-09
1.09473e-09
1.16527e-08
5.17599e-09
1.10784e-09
1.13341e-08
6.20387e-09
1.12526e-09
1.0992e-08
7.25614e-09
1.14743e-09
1.06231e-08
8.3468e-09
1.17509e-09
1.02234e-08
9.49191e-09
1.20965e-09
9.78703e-09
1.25593e-09
9.3058e-09
1.07074e-08
1.07971e-09
2.12036e-09
1.22243e-08
2.12912e-09