/*--------------------------------*- C++ -*----------------------------------*\
| =========                 |                                                 |
| \\      /  F ield         | foam-extend: Open Source CFD                    |
|  \\    /   O peration     | Version:     3.1                                |
|   \\  /    A nd           | Web:         http://www.extend-project.de       |
|    \\/     M anipulation  |                                                 |
\*---------------------------------------------------------------------------*/
FoamFile
{
    version     2.0;
    format      ascii;
    class       pointVectorField;
    location    "0.001";
    object      pointMotionU;
}
// * * * * * * * * * * * * * * * * * * * * * * * * * * * * * * * * * * * * * //

dimensions      [0 1 -1 0 0 0 0];

internalField   nonuniform List<vector> 
18306
(
(0 0 0)
(0 0 0)
(0 0 0)
(0 0 0)
(0 0 0)
(0 0 0)
(0 0 0)
(0 0 0)
(0 0 0)
(0 0 0)
(0 0 0)
(0 0 0)
(0 0 0)
(0 0 0)
(0 0 0)
(0 0 0)
(0 0 0)
(0 0 0)
(0 0 0)
(0 0 0)
(0 0 0)
(0 0 0)
(0 0 0)
(0 0 0)
(0 0 0)
(0 0 0)
(0 0 0)
(0 0 0)
(0 0 0)
(0 0 0)
(0 0 0)
(0 0 0)
(0 0 0)
(0 0 0)
(0 0 0)
(0 0 0)
(0 0 0)
(0 0 0)
(0 0 0)
(0 0 0)
(0 0 0)
(0 0 0)
(0 0 0)
(0 0 0)
(0 0 0)
(0 0 0)
(0 0 0)
(0 0 0)
(0 0 0)
(0 0 0)
(0 0 0)
(0 0 0)
(0 0 0)
(0 0 0)
(0 0 0)
(0 0 0)
(0 0 0)
(0 0 0)
(0 0 0)
(0 0 0)
(0 0 0)
(0 0 0)
(0 0 0)
(0 0 0)
(0 0 0)
(0 0 0)
(0 0 0)
(0 0 0)
(0 0 0)
(0 0 0)
(0 0 0)
(0 0 0)
(0 0 0)
(0 0 0)
(0 0 0)
(0 0 0)
(0 0 0)
(0 0 0)
(0 0 0)
(0 0 0)
(0 0 0)
(0 0 0)
(0 0 0)
(0 0 0)
(0 0 0)
(0 0 0)
(0 0 0)
(0 0 0)
(0 0 0)
(0 0 0)
(0 0 0)
(0 0 0)
(0 0 0)
(0 0 0)
(0 0 0)
(0 0 0)
(0 0 0)
(0 0 0)
(0 0 0)
(0 0 0)
(0 0 0)
(0 0 0)
(0 0 0)
(0 0 0)
(0 0 0)
(0 0 0)
(0 0 0)
(0 0 0)
(0 0 0)
(0 0 0)
(0 0 0)
(0 0 0)
(0 0 0)
(0 0 0)
(0 0 0)
(0 0 0)
(0 0 0)
(0 0 0)
(0 0 0)
(0 0 0)
(0 0 0)
(0 0 -8.41803e-09)
(2.24856e-09 0 -8.47201e-09)
(4.36568e-09 0 -8.64569e-09)
(6.25101e-09 0 -8.93975e-09)
(7.82711e-09 0 -9.36765e-09)
(8.97107e-09 0 -9.95515e-09)
(9.48862e-09 0 -1.07445e-08)
(9.09025e-09 0 -1.1802e-08)
(7.36472e-09 0 -1.32302e-08)
(3.74665e-09 0 -1.51887e-08)
(-2.61755e-09 0 -1.7974e-08)
(-0 -2.32622e-09 -8.53727e-09)
(2.22213e-09 -2.21543e-09 -8.58971e-09)
(4.33521e-09 -1.90854e-09 -8.75728e-09)
(6.23658e-09 -1.47121e-09 -9.04184e-09)
(7.83981e-09 -9.53941e-10 -9.4576e-09)
(9.02596e-09 -3.94102e-10 -1.00294e-08)
(9.60927e-09 1.73565e-10 -1.07967e-08)
(9.31442e-09 7.18096e-10 -1.18212e-08)
(7.75639e-09 1.21153e-09 -1.31939e-08)
(4.42489e-09 1.62554e-09 -1.50465e-08)
(-1.37069e-09 1.88174e-09 -1.75854e-08)
(-0 -4.74108e-09 -8.90469e-09)
(2.16307e-09 -4.53665e-09 -8.9516e-09)
(4.26076e-09 -3.95335e-09 -9.10252e-09)
(6.19923e-09 -3.08092e-09 -9.36027e-09)
(7.88114e-09 -2.02667e-09 -9.73988e-09)
(9.19124e-09 -8.81699e-10 -1.02653e-08)
(9.96672e-09 2.82948e-10 -1.09705e-08)
(9.97028e-09 1.40498e-09 -1.19042e-08)
(8.88108e-09 2.4274e-09 -1.31307e-08)
(6.30541e-09 3.29544e-09 -1.47281e-08)
(1.66299e-09 3.85085e-09 -1.68086e-08)
(-0 -7.39734e-09 -9.51999e-09)
(2.10293e-09 -7.10259e-09 -9.55826e-09)
(4.17536e-09 -6.25275e-09 -9.68389e-09)
(6.14934e-09 -4.94576e-09 -9.90074e-09)
(7.93917e-09 -3.32635e-09 -1.02237e-08)
(9.43555e-09 -1.55122e-09 -1.06762e-08)
(1.04997e-08 2.55391e-10 -1.12875e-08)
(1.09433e-08 1.99922e-09 -1.20926e-08)
(1.05215e-08 3.59863e-09 -1.31286e-08)
(8.95459e-09 4.98115e-09 -1.44311e-08)
(5.69266e-09 5.92124e-09 -1.60528e-08)
(-0 -1.05111e-08 -1.04034e-08)
(2.04221e-09 -1.01132e-08 -1.04299e-08)
(4.08873e-09 -8.9619e-09 -1.05197e-08)
(6.09304e-09 -7.18231e-09 -1.06801e-08)
(7.99357e-09 -4.95727e-09 -1.0928e-08)
(9.70374e-09 -2.4945e-09 -1.12859e-08)
(1.11082e-08 1.5584e-11 -1.17801e-08)
(1.20627e-08 2.43192e-09 -1.24371e-08)
(1.23898e-08 4.65323e-09 -1.32759e-08)
(1.19021e-08 6.60252e-09 -1.43064e-08)
(1.00487e-08 8.01322e-09 -1.5543e-08)
(-0 -1.43291e-08 -1.15966e-08)
(1.97642e-09 -1.38051e-08 -1.16062e-08)
(3.99033e-09 -1.22821e-08 -1.16453e-08)
(6.01941e-09 -9.93138e-09 -1.17272e-08)
(8.02028e-09 -7.01238e-09 -1.18774e-08)
(9.93458e-09 -3.79152e-09 -1.21207e-08)
(1.16799e-08 -5.08062e-10 -1.24812e-08)
(1.31446e-08 2.63983e-09 -1.29797e-08)
(1.41997e-08 5.51778e-09 -1.36287e-08)
(1.47218e-08 8.05464e-09 -1.44252e-08)
(1.41865e-08 9.98825e-09 -1.53458e-08)
(-0 -1.91593e-08 -1.31683e-08)
(1.89956e-09 -1.84636e-08 -1.31513e-08)
(3.86653e-09 -1.64519e-08 -1.31156e-08)
(5.90608e-09 -1.33682e-08 -1.30867e-08)
(7.9916e-09 -9.58609e-09 -1.31049e-08)
(1.00812e-08 -5.48464e-09 -1.32069e-08)
(1.21217e-08 -1.35848e-09 -1.34166e-08)
(1.40355e-08 2.57094e-09 -1.37482e-08)
(1.57202e-08 6.13036e-09 -1.42123e-08)
(1.70787e-08 9.23311e-09 -1.48018e-08)
(1.76705e-08 1.16802e-08 -1.54519e-08)
(-0 -2.54058e-08 -1.52258e-08)
(1.80427e-09 -2.4458e-08 -1.51647e-08)
(3.70517e-09 -2.17517e-08 -1.50098e-08)
(5.73176e-09 -1.76763e-08 -1.48153e-08)
(7.87679e-09 -1.27755e-08 -1.4649e-08)
(1.01087e-08 -7.58553e-09 -1.45665e-08)
(1.23817e-08 -2.50492e-09 -1.45977e-08)
(1.46426e-08 2.23263e-09 -1.47509e-08)
(1.68014e-08 6.45408e-09 -1.50255e-08)
(1.8756e-08 1.00533e-08 -1.54161e-08)
(2.01979e-08 1.29329e-08 -1.58248e-08)
(-0 -3.36112e-08 -1.79304e-08)
(1.68089e-09 -3.22665e-08 -1.77908e-08)
(3.48783e-09 -2.85011e-08 -1.74307e-08)
(5.47279e-09 -2.30134e-08 -1.69743e-08)
(7.64585e-09 -1.66356e-08 -1.65444e-08)
(9.98478e-09 -1.00866e-08 -1.62185e-08)
(1.24387e-08 -3.87551e-09 -1.60281e-08)
(1.49424e-08 1.7137e-09 -1.59747e-08)
(1.73957e-08 6.52379e-09 -1.60424e-08)
(1.96871e-08 1.04931e-08 -1.62287e-08)
(2.16364e-08 1.36408e-08 -1.64177e-08)
(-0 -4.45362e-08 -2.15285e-08)
(1.51484e-09 -4.25005e-08 -2.12329e-08)
(3.18717e-09 -3.70217e-08 -2.05004e-08)
(5.09837e-09 -2.9464e-08 -1.96225e-08)
(7.27246e-09 -2.11146e-08 -1.88141e-08)
(9.68743e-09 -1.28972e-08 -1.81711e-08)
(1.22812e-08 -5.38185e-09 -1.77085e-08)
(1.49578e-08 1.12399e-09 -1.74053e-08)
(1.75829e-08 6.47911e-09 -1.72323e-08)
(2.00006e-08 1.06689e-08 -1.71856e-08)
(2.20579e-08 1.37805e-08 -1.71601e-08)
(-0 -5.95264e-08 -2.64818e-08)
(1.25067e-09 -5.61031e-08 -2.58077e-08)
(2.68894e-09 -4.79628e-08 -2.4401e-08)
(4.42738e-09 -3.76545e-08 -2.2873e-08)
(6.50637e-09 -2.69619e-08 -2.1546e-08)
(8.90361e-09 -1.68813e-08 -2.05003e-08)
(1.15454e-08 -7.93578e-09 -1.97057e-08)
(1.43208e-08 -3.79617e-10 -1.90994e-08)
(1.70815e-08 5.68687e-09 -1.86255e-08)
(1.9618e-08 1.02447e-08 -1.82517e-08)
(2.17289e-08 1.34266e-08 -1.7979e-08)
(0 0 -1.54916e-08)
(4.50393e-09 0 -1.55906e-08)
(8.79322e-09 0 -1.5894e-08)
(1.27201e-08 0 -1.64012e-08)
(1.61948e-08 0 -1.71249e-08)
(1.90604e-08 0 -1.80927e-08)
(2.10533e-08 0 -1.93506e-08)
(2.17733e-08 0 -2.09707e-08)
(2.06501e-08 0 -2.30645e-08)
(1.69058e-08 0 -2.58072e-08)
(9.40552e-09 0 -2.95445e-08)
(-0 -4.41856e-09 -1.57006e-08)
(4.44501e-09 -4.21207e-09 -1.57972e-08)
(8.71926e-09 -3.63687e-09 -1.6091e-08)
(1.2669e-08 -2.81751e-09 -1.65835e-08)
(1.6185e-08 -1.84649e-09 -1.72889e-08)
(1.91156e-08 -7.90105e-10 -1.82335e-08)
(2.12095e-08 2.9161e-10 -1.94597e-08)
(2.20861e-08 1.34749e-09 -2.10333e-08)
(2.12094e-08 2.33435e-09 -2.30504e-08)
(1.78681e-08 3.21193e-09 -2.56483e-08)
(1.11075e-08 3.84404e-09 -2.90492e-08)
(-0 -8.9692e-09 -1.633e-08)
(4.30593e-09 -8.58987e-09 -1.6418e-08)
(8.52528e-09 -7.50042e-09 -1.66859e-08)
(1.25193e-08 -5.87049e-09 -1.71372e-08)
(1.61521e-08 -3.89672e-09 -1.77881e-08)
(1.92718e-08 -1.74213e-09 -1.86644e-08)
(2.1662e-08 4.70557e-10 -1.98013e-08)
(2.29961e-08 2.63823e-09 -2.12475e-08)
(2.28233e-08 4.67194e-09 -2.30631e-08)
(2.05822e-08 6.4927e-09 -2.53134e-08)
(1.542e-08 7.82079e-09 -2.80885e-08)
(-0 -1.3903e-08 -1.73748e-08)
(4.15465e-09 -1.33591e-08 -1.74499e-08)
(8.28639e-09 -1.17795e-08 -1.76795e-08)
(1.23038e-08 -9.34842e-09 -1.80696e-08)
(1.60891e-08 -6.32922e-09 -1.86368e-08)
(1.9492e-08 -3.00337e-09 -1.94074e-08)
(2.2328e-08 4.1259e-10 -2.04116e-08)
(2.43436e-08 3.76248e-09 -2.16802e-08)
(2.51959e-08 6.91886e-09 -2.32384e-08)
(2.44853e-08 9.77868e-09 -2.50974e-08)
(2.13752e-08 1.19415e-08 -2.72604e-08)
(-0 -1.95823e-08 -1.88546e-08)
(3.99706e-09 -1.88522e-08 -1.89126e-08)
(8.03302e-09 -1.67249e-08 -1.90893e-08)
(1.20525e-08 -1.34335e-08 -1.9397e-08)
(1.59798e-08 -9.308e-09 -1.98564e-08)
(1.97018e-08 -4.71992e-09 -2.04928e-08)
(2.30645e-08 -3.42704e-12 -2.13345e-08)
(2.58776e-08 4.60473e-09 -2.24038e-08)
(2.79032e-08 8.94755e-09 -2.37042e-08)
(2.88871e-08 1.29206e-08 -2.52182e-08)
(2.79941e-08 1.60516e-08 -2.68888e-08)
(-0 -2.64092e-08 -2.08157e-08)
(3.83024e-09 -2.54544e-08 -2.08497e-08)
(7.75714e-09 -2.26596e-08 -2.09531e-08)
(1.17657e-08 -1.83413e-08 -2.11489e-08)
(1.58088e-08 -1.29651e-08 -2.14712e-08)
(1.98222e-08 -7.00504e-09 -2.19498e-08)
(2.37083e-08 -8.80153e-10 -2.26109e-08)
(2.73225e-08 5.0726e-09 -2.34725e-08)
(3.05e-08 1.06417e-08 -2.4535e-08)
(3.30973e-08 1.57394e-08 -2.57704e-08)
(3.43462e-08 1.99041e-08 -2.70602e-08)
(-0 -3.48757e-08 -2.33351e-08)
(3.64956e-09 -3.36183e-08 -2.33318e-08)
(7.44648e-09 -2.99558e-08 -2.33297e-08)
(1.14226e-08 -2.4334e-08 -2.33709e-08)
(1.5556e-08 -1.74207e-08 -2.35119e-08)
(1.98077e-08 -9.88886e-09 -2.38012e-08)
(2.41316e-08 -2.25362e-09 -2.42655e-08)
(2.8445e-08 5.10975e-09 -2.49151e-08)
(3.26186e-08 1.19229e-08 -2.57539e-08)
(3.65475e-08 1.80745e-08 -2.67566e-08)
(3.96342e-08 2.32186e-08 -2.77404e-08)
(-0 -4.5617e-08 -2.65307e-08)
(3.44917e-09 -4.39199e-08 -2.6467e-08)
(7.0944e-09 -3.90369e-08 -2.63004e-08)
(1.10069e-08 -3.16697e-08 -2.61153e-08)
(1.51964e-08 -2.27837e-08 -2.60084e-08)
(1.96377e-08 -1.33303e-08 -2.60556e-08)
(2.42925e-08 -4.00973e-09 -2.62931e-08)
(2.91255e-08 4.78424e-09 -2.67239e-08)
(3.40284e-08 1.27743e-08 -2.73375e-08)
(3.8875e-08 1.98176e-08 -2.81189e-08)
(4.33027e-08 2.57509e-08 -2.88438e-08)
(-0 -5.94803e-08 -3.05757e-08)
(3.22053e-09 -5.70978e-08 -3.0406e-08)
(6.68527e-09 -5.0373e-08 -2.99612e-08)
(1.05021e-08 -4.05419e-08 -2.9425e-08)
(1.47088e-08 -2.90723e-08 -2.89716e-08)
(1.92947e-08 -1.72394e-08 -2.87075e-08)
(2.42084e-08 -5.94425e-09 -2.86704e-08)
(2.93867e-08 4.32686e-09 -2.88524e-08)
(3.47022e-08 1.33231e-08 -2.92188e-08)
(4.00063e-08 2.09874e-08 -2.97649e-08)
(4.51327e-08 2.73595e-08 -3.02576e-08)
(-0 -7.76574e-08 -3.57286e-08)
(2.94834e-09 -7.40941e-08 -3.53514e-08)
(6.19055e-09 -6.44182e-08 -3.44103e-08)
(9.88248e-09 -5.10027e-08 -3.33202e-08)
(1.40835e-08 -3.61045e-08 -3.2382e-08)
(1.87821e-08 -2.13675e-08 -3.17262e-08)
(2.39072e-08 -7.81243e-09 -3.13643e-08)
(2.9335e-08 4.02174e-09 -3.12522e-08)
(3.48691e-08 1.39074e-08 -3.13303e-08)
(4.02595e-08 2.18663e-08 -3.15865e-08)
(4.52979e-08 2.80379e-08 -3.18199e-08)
(-0 -1.023e-07 -4.24967e-08)
(2.53912e-09 -9.64067e-08 -4.16199e-08)
(5.41371e-09 -8.2208e-08 -3.97923e-08)
(8.83118e-09 -6.40828e-08 -3.78599e-08)
(1.28754e-08 -4.51462e-08 -3.62683e-08)
(1.75315e-08 -2.71914e-08 -3.51255e-08)
(2.2708e-08 -1.11817e-08 -3.43783e-08)
(2.8257e-08 2.41853e-09 -3.39203e-08)
(3.39601e-08 1.34425e-08 -3.36466e-08)
(3.94474e-08 2.18684e-08 -3.34745e-08)
(4.43327e-08 2.79452e-08 -3.33742e-08)
(0 0 -2.03318e-08)
(6.66438e-09 0 -2.04563e-08)
(1.3097e-08 0 -2.08284e-08)
(1.91716e-08 0 -2.14398e-08)
(2.48675e-08 0 -2.22887e-08)
(3.01024e-08 0 -2.33808e-08)
(3.46962e-08 0 -2.47285e-08)
(3.83554e-08 0 -2.63515e-08)
(4.06597e-08 0 -2.82786e-08)
(4.10624e-08 0 -3.05565e-08)
(3.88907e-08 0 -3.33135e-08)
(-0 -6.19699e-09 -2.058e-08)
(6.56179e-09 -5.91839e-09 -2.07021e-08)
(1.29551e-08 -5.14123e-09 -2.10646e-08)
(1.90429e-08 -4.03638e-09 -2.16614e-08)
(2.47725e-08 -2.72548e-09 -2.24929e-08)
(3.00651e-08 -1.2913e-09 -2.35639e-08)
(3.47504e-08 1.94073e-10 -2.48839e-08)
(3.85492e-08 1.67348e-09 -2.6468e-08)
(4.10605e-08 3.10464e-09 -2.8334e-08)
(4.17601e-08 4.45548e-09 -3.05008e-08)
(3.99901e-08 5.56603e-09 -3.30089e-08)
(-0 -1.2507e-08 -2.13178e-08)
(6.30932e-09 -1.1999e-08 -2.14315e-08)
(1.25685e-08 -1.05367e-08 -2.17682e-08)
(1.86576e-08 -8.3498e-09 -2.23254e-08)
(2.44764e-08 -5.69704e-09 -2.3106e-08)
(2.99324e-08 -2.78516e-09 -2.41157e-08)
(3.48866e-08 2.38554e-10 -2.53592e-08)
(3.91012e-08 3.25851e-09 -2.68392e-08)
(4.22258e-08 6.18566e-09 -2.85474e-08)
(4.3811e-08 8.95495e-09 -3.04528e-08)
(4.31436e-08 1.12306e-08 -3.24975e-08)
(-0 -1.92049e-08 -2.25284e-08)
(6.01512e-09 -1.8483e-08 -2.26298e-08)
(1.20624e-08 -1.63811e-08 -2.29306e-08)
(1.80839e-08 -1.31441e-08 -2.34318e-08)
(2.39963e-08 -9.11473e-09 -2.41376e-08)
(2.96913e-08 -4.65187e-09 -2.50564e-08)
(3.50485e-08 -1.96218e-11 -2.61909e-08)
(3.98932e-08 4.60664e-09 -2.75321e-08)
(4.39585e-08 9.09941e-09 -2.90481e-08)
(4.69137e-08 1.33769e-08 -3.06749e-08)
(4.80009e-08 1.69605e-08 -3.22798e-08)
(-0 -2.67044e-08 -2.4211e-08)
(5.69727e-09 -2.57448e-08 -2.42973e-08)
(1.15027e-08 -2.29416e-08 -2.45509e-08)
(1.73987e-08 -1.8601e-08 -2.49807e-08)
(2.33531e-08 -1.31457e-08 -2.55961e-08)
(2.92974e-08 -7.04597e-09 -2.64055e-08)
(3.51266e-08 -7.13707e-10 -2.74137e-08)
(4.07154e-08 5.57876e-09 -2.86096e-08)
(4.58975e-08 1.16764e-08 -2.99502e-08)
(5.04858e-08 1.75081e-08 -3.13588e-08)
(5.37435e-08 2.25214e-08 -3.26376e-08)
(-0 -3.54428e-08 -2.63813e-08)
(5.3628e-09 -3.42013e-08 -2.64474e-08)
(1.09018e-08 -3.05593e-08 -2.66388e-08)
(1.66439e-08 -2.49266e-08 -2.69762e-08)
(2.25839e-08 -1.7895e-08 -2.74831e-08)
(2.87128e-08 -1.00587e-08 -2.81734e-08)
(3.4991e-08 -1.93181e-09 -2.90518e-08)
(4.13263e-08 6.08995e-09 -3.01085e-08)
(4.76153e-08 1.37896e-08 -3.13072e-08)
(5.38018e-08 2.1128e-08 -3.25736e-08)
(5.92877e-08 2.75897e-08 -3.36351e-08)
(-0 -4.5931e-08 -2.9068e-08)
(5.01854e-09 -4.43166e-08 -2.91036e-08)
(1.02692e-08 -3.96029e-08 -2.92096e-08)
(1.58316e-08 -3.2359e-08 -2.94255e-08)
(2.17239e-08 -2.34267e-08 -2.97962e-08)
(2.7958e-08 -1.36469e-08 -3.03536e-08)
(3.45597e-08 -3.6489e-09 -3.11038e-08)
(4.15163e-08 6.13052e-09 -3.20319e-08)
(4.87447e-08 1.53941e-08 -3.31131e-08)
(5.62207e-08 2.40792e-08 -3.42858e-08)
(6.36142e-08 3.1839e-08 -3.52043e-08)
(-0 -5.88058e-08 -3.23126e-08)
(4.6719e-09 -5.66579e-08 -3.23006e-08)
(9.62699e-09 -5.04608e-08 -3.22788e-08)
(1.49865e-08 -4.10928e-08 -3.2324e-08)
(2.08013e-08 -2.97591e-08 -3.25165e-08)
(2.70919e-08 -1.76464e-08 -3.29123e-08)
(3.3884e-08 -5.61424e-09 -3.35253e-08)
(4.12325e-08 5.88461e-09 -3.43349e-08)
(4.90825e-08 1.65587e-08 -3.53026e-08)
(5.73591e-08 2.63107e-08 -3.63843e-08)
(6.60309e-08 3.50341e-08 -3.72028e-08)
(-0 -7.4894e-08 -3.61674e-08)
(4.33005e-09 -7.19286e-08 -3.60752e-08)
(8.99116e-09 -6.35276e-08 -3.58442e-08)
(1.41401e-08 -5.12025e-08 -3.56337e-08)
(1.98563e-08 -3.67646e-08 -3.5588e-08)
(2.61749e-08 -2.18023e-08 -3.57869e-08)
(3.30985e-08 -7.43109e-09 -3.62425e-08)
(4.06386e-08 5.77843e-09 -3.69204e-08)
(4.87242e-08 1.75723e-08 -3.77531e-08)
(5.72437e-08 2.79724e-08 -3.87118e-08)
(6.63444e-08 3.71144e-08 -3.94387e-08)
(-0 -9.53501e-08 -4.07015e-08)
(3.99627e-09 -9.10033e-08 -4.04574e-08)
(8.36855e-09 -7.9128e-08 -3.9867e-08)
(1.33217e-08 -6.25534e-08 -3.9269e-08)
(1.89542e-08 -4.40373e-08 -3.89074e-08)
(2.52986e-08 -2.5635e-08 -3.88777e-08)
(3.23367e-08 -8.62847e-09 -3.91633e-08)
(4.00011e-08 6.33405e-09 -3.96869e-08)
(4.81317e-08 1.90294e-08 -4.03476e-08)
(5.64654e-08 2.95795e-08 -4.1101e-08)
(6.49233e-08 3.81974e-08 -4.16549e-08)
(-0 -1.22323e-07 -4.61036e-08)
(3.57311e-09 -1.15341e-07 -4.55007e-08)
(7.5463e-09 -9.82704e-08 -4.42874e-08)
(1.2177e-08 -7.62209e-08 -4.31138e-08)
(1.75843e-08 -5.2974e-08 -4.23337e-08)
(2.3792e-08 -3.08114e-08 -4.20246e-08)
(3.07584e-08 -1.09911e-08 -4.21142e-08)
(3.83982e-08 5.90272e-09 -4.24649e-08)
(4.65426e-08 1.97162e-08 -4.29216e-08)
(5.47749e-08 3.04905e-08 -4.33348e-08)
(6.26012e-08 3.85963e-08 -4.36244e-08)
(0 0 -2.25365e-08)
(8.49373e-09 0 -2.26687e-08)
(1.67901e-08 0 -2.30575e-08)
(2.48308e-08 0 -2.36862e-08)
(3.27084e-08 0 -2.45376e-08)
(4.047e-08 0 -2.55944e-08)
(4.80901e-08 0 -2.68348e-08)
(5.54753e-08 0 -2.82281e-08)
(6.24773e-08 0 -2.97296e-08)
(6.89413e-08 0 -3.12748e-08)
(7.49192e-08 0 -3.28032e-08)
(-0 -7.72415e-09 -2.27753e-08)
(8.33753e-09 -7.40108e-09 -2.29057e-08)
(1.65566e-08 -6.50043e-09 -2.32868e-08)
(2.45829e-08 -5.22674e-09 -2.39044e-08)
(3.24646e-08 -3.71801e-09 -2.47432e-08)
(4.02487e-08 -2.06196e-09 -2.57853e-08)
(4.79137e-08 -3.31704e-10 -2.7007e-08)
(5.53694e-08 1.41923e-09 -2.83753e-08)
(6.2462e-08 3.158e-09 -2.98386e-08)
(6.89932e-08 4.86865e-09 -3.1318e-08)
(7.4801e-08 6.39739e-09 -3.27073e-08)
(-0 -1.54934e-08 -2.34787e-08)
(7.94058e-09 -1.49114e-08 -2.36026e-08)
(1.59058e-08 -1.32344e-08 -2.39639e-08)
(2.3838e-08 -1.07321e-08 -2.45523e-08)
(3.17153e-08 -7.69808e-09 -2.53555e-08)
(3.95522e-08 -4.35699e-09 -2.63571e-08)
(4.73463e-08 -8.58302e-10 -2.75307e-08)
(5.50213e-08 2.68917e-09 -2.88363e-08)
(6.24139e-08 6.21369e-09 -3.0208e-08)
(6.92786e-08 9.67996e-09 -3.15424e-08)
(7.52126e-08 1.27627e-08 -3.26764e-08)
(-0 -2.355e-08 -2.46205e-08)
(7.45051e-09 -2.2734e-08 -2.47355e-08)
(1.50156e-08 -2.0355e-08 -2.50716e-08)
(2.27067e-08 -1.66926e-08 -2.56229e-08)
(3.05133e-08 -1.21296e-08 -2.63789e-08)
(3.84097e-08 -7.05899e-09 -2.73264e-08)
(4.63856e-08 -1.75542e-09 -2.84401e-08)
(5.43991e-08 3.61581e-09 -2.96747e-08)
(6.23155e-08 8.95213e-09 -3.09534e-08)
(6.9921e-08 1.42135e-08 -3.21622e-08)
(7.67306e-08 1.89529e-08 -3.30792e-08)
(-0 -3.22914e-08 -2.6179e-08)
(6.9025e-09 -3.12212e-08 -2.62845e-08)
(1.39961e-08 -2.80919e-08 -2.65912e-08)
(2.13278e-08 -2.32469e-08 -2.71008e-08)
(2.89393e-08 -1.7149e-08 -2.78087e-08)
(3.68394e-08 -1.03071e-08 -2.87025e-08)
(4.50047e-08 -3.15534e-09 -2.97612e-08)
(5.34071e-08 4.03984e-09 -3.09432e-08)
(6.19821e-08 1.11563e-08 -3.21715e-08)
(7.06227e-08 1.81772e-08 -3.33356e-08)
(7.8937e-08 2.4627e-08 -3.41436e-08)
(-0 -4.21095e-08 -2.8136e-08)
(6.31954e-09 -4.07449e-08 -2.82303e-08)
(1.28929e-08 -3.67385e-08 -2.85022e-08)
(1.98043e-08 -3.05438e-08 -2.89648e-08)
(2.71121e-08 -2.28022e-08 -2.96257e-08)
(3.48855e-08 -1.41479e-08 -3.04779e-08)
(4.31651e-08 -5.11799e-09 -3.15019e-08)
(5.19254e-08 3.89063e-09 -3.26616e-08)
(6.1129e-08 1.2692e-08 -3.38949e-08)
(7.07956e-08 2.13141e-08 -3.51046e-08)
(8.07983e-08 2.93881e-08 -3.59121e-08)
(-0 -5.34334e-08 -3.04683e-08)
(5.7266e-09 -5.16863e-08 -3.05464e-08)
(1.17507e-08 -4.65819e-08 -3.07757e-08)
(1.82025e-08 -3.87399e-08 -3.11845e-08)
(2.51516e-08 -2.90654e-08 -3.17974e-08)
(3.26762e-08 -1.84516e-08 -3.26214e-08)
(4.08866e-08 -7.54972e-09 -3.36386e-08)
(4.98459e-08 3.20987e-09 -3.48106e-08)
(5.9503e-08 1.35556e-08 -3.60916e-08)
(6.98869e-08 2.34912e-08 -3.74038e-08)
(8.12637e-08 3.28965e-08 -3.82875e-08)
(-0 -6.67676e-08 -3.31393e-08)
(5.15121e-09 -6.44813e-08 -3.31937e-08)
(1.06337e-08 -5.78818e-08 -3.33637e-08)
(1.66077e-08 -4.79059e-08 -3.37046e-08)
(2.31674e-08 -3.58356e-08 -3.42651e-08)
(3.03874e-08 -2.29274e-08 -3.50685e-08)
(3.83661e-08 -1.00733e-08 -3.61008e-08)
(4.72491e-08 2.29125e-09 -3.73188e-08)
(5.70257e-08 1.39131e-08 -3.86639e-08)
(6.76375e-08 2.47561e-08 -4.00786e-08)
(7.96877e-08 3.49906e-08 -4.10782e-08)
(-0 -8.2739e-08 -3.60869e-08)
(4.62363e-09 -7.96398e-08 -3.61037e-08)
(9.60425e-09 -7.08508e-08 -3.61809e-08)
(1.51214e-08 -5.79439e-08 -3.64258e-08)
(2.12879e-08 -4.28218e-08 -3.69275e-08)
(2.81884e-08 -2.71622e-08 -3.7722e-08)
(3.58917e-08 -1.21271e-08 -3.87873e-08)
(4.44937e-08 1.73035e-09 -4.00626e-08)
(5.39946e-08 1.42187e-08 -4.14549e-08)
(6.42877e-08 2.54364e-08 -4.29234e-08)
(7.60742e-08 3.57903e-08 -4.40247e-08)
(-0 -1.02212e-07 -3.92125e-08)
(4.17428e-09 -9.77647e-08 -3.91615e-08)
(8.72144e-09 -8.55762e-08 -3.9088e-08)
(1.38487e-08 -6.8505e-08 -3.91987e-08)
(1.96751e-08 -4.94167e-08 -3.96402e-08)
(2.62799e-08 -3.04868e-08 -4.04522e-08)
(3.37188e-08 -1.30612e-08 -4.15824e-08)
(4.20183e-08 2.23456e-09 -4.29215e-08)
(5.11086e-08 1.52721e-08 -4.43316e-08)
(6.07357e-08 2.62855e-08 -4.57414e-08)
(7.11523e-08 3.56916e-08 -4.67909e-08)
(-0 -1.26884e-07 -4.24197e-08)
(3.73437e-09 -1.19955e-07 -4.22077e-08)
(7.82714e-09 -1.02812e-07 -4.18807e-08)
(1.25148e-08 -8.04779e-08 -4.17886e-08)
(1.79203e-08 -5.6854e-08 -4.21371e-08)
(2.41048e-08 -3.44e-08 -4.29563e-08)
(3.11044e-08 -1.44808e-08 -4.4155e-08)
(3.8955e-08 2.33631e-09 -4.55695e-08)
(4.76359e-08 1.60331e-08 -4.69975e-08)
(5.68451e-08 2.68427e-08 -4.82183e-08)
(6.61324e-08 3.53051e-08 -4.9095e-08)
(0 0 -2.21593e-08)
(9.73695e-09 0 -2.22856e-08)
(1.93364e-08 0 -2.26546e-08)
(2.8819e-08 0 -2.32457e-08)
(3.8384e-08 0 -2.40364e-08)
(4.81908e-08 0 -2.50023e-08)
(5.83345e-08 0 -2.61153e-08)
(6.8857e-08 0 -2.73418e-08)
(7.97647e-08 0 -2.86423e-08)
(9.10898e-08 0 -2.99764e-08)
(1.03222e-07 0 -3.13382e-08)
(-0 -9.11227e-09 -2.23514e-08)
(9.52376e-09 -8.77007e-09 -2.24764e-08)
(1.89992e-08 -7.81819e-09 -2.28396e-08)
(2.84272e-08 -6.48457e-09 -2.34226e-08)
(3.79529e-08 -4.91346e-09 -2.42042e-08)
(4.77327e-08 -3.18875e-09 -2.51591e-08)
(5.78614e-08 -1.37759e-09 -2.62566e-08)
(6.83768e-08 4.73904e-10 -2.74594e-08)
(7.92663e-08 2.34229e-09 -2.87192e-08)
(9.04829e-08 4.2227e-09 -2.99753e-08)
(1.02079e-07 5.98563e-09 -3.11673e-08)
(-0 -1.8179e-08 -2.29148e-08)
(8.96903e-09 -1.75732e-08 -2.30348e-08)
(1.8047e-08 -1.5827e-08 -2.33834e-08)
(2.72504e-08 -1.3233e-08 -2.39463e-08)
(3.66372e-08 -1.00988e-08 -2.47036e-08)
(4.63155e-08 -6.6473e-09 -2.56302e-08)
(5.63896e-08 -3.0163e-09 -2.66913e-08)
(6.68929e-08 6.99807e-10 -2.784e-08)
(7.77665e-08 4.44758e-09 -2.90089e-08)
(8.88497e-08 8.21356e-09 -3.01024e-08)
(9.99124e-08 1.17314e-08 -3.09844e-08)
(-0 -2.73857e-08 -2.38236e-08)
(8.25282e-09 -2.6552e-08 -2.39375e-08)
(1.67031e-08 -2.41187e-08 -2.42694e-08)
(2.54388e-08 -2.03788e-08 -2.48096e-08)
(3.45243e-08 -1.57247e-08 -2.554e-08)
(4.40068e-08 -1.05514e-08 -2.64366e-08)
(5.39602e-08 -5.121e-09 -2.74633e-08)
(6.44301e-08 4.2326e-10 -2.85657e-08)
(7.53486e-08 6.00542e-09 -2.96623e-08)
(8.65316e-08 1.16149e-08 -3.06409e-08)
(9.77363e-08 1.69246e-08 -3.12932e-08)
(-0 -3.70904e-08 -2.50507e-08)
(7.4284e-09 -3.60155e-08 -2.51592e-08)
(1.51209e-08 -3.28708e-08 -2.5475e-08)
(2.31921e-08 -2.80089e-08 -2.59957e-08)
(3.17562e-08 -2.18926e-08 -2.6709e-08)
(4.08899e-08 -1.50254e-08 -2.75914e-08)
(5.06275e-08 -7.82873e-09 -2.86086e-08)
(6.09941e-08 -5.45635e-10 -2.97082e-08)
(7.19651e-08 6.73612e-09 -3.08078e-08)
(8.34288e-08 1.40358e-08 -3.18004e-08)
(9.53813e-08 2.10888e-08 -3.23983e-08)
(-0 -4.76229e-08 -2.6566e-08)
(6.53652e-09 -4.62758e-08 -2.66694e-08)
(1.33829e-08 -4.23193e-08 -2.69706e-08)
(2.06771e-08 -3.62141e-08 -2.74777e-08)
(2.85376e-08 -2.85963e-08 -2.81895e-08)
(3.70985e-08 -2.00829e-08 -2.90877e-08)
(4.64541e-08 -1.11874e-08 -3.01396e-08)
(5.66011e-08 -2.28089e-09 -3.12967e-08)
(6.74981e-08 6.48171e-09 -3.24925e-08)
(7.91435e-08 1.5169e-08 -3.36384e-08)
(9.19773e-08 2.37409e-08 -3.43513e-08)
(-0 -5.93232e-08 -2.83291e-08)
(5.62165e-09 -5.76265e-08 -2.84258e-08)
(1.15714e-08 -5.26719e-08 -2.87131e-08)
(1.80178e-08 -4.50817e-08 -2.92143e-08)
(2.50755e-08 -3.57493e-08 -2.99431e-08)
(3.28739e-08 -2.55412e-08 -3.08929e-08)
(4.15766e-08 -1.50698e-08 -3.20323e-08)
(5.12733e-08 -4.72418e-09 -3.33121e-08)
(6.18686e-08 5.25125e-09 -3.46816e-08)
(7.3336e-08 1.48938e-08 -3.60758e-08)
(8.66634e-08 2.45284e-08 -3.70241e-08)
(-0 -7.25717e-08 -3.02828e-08)
(4.73143e-09 -7.03847e-08 -3.03696e-08)
(9.79197e-09 -6.40813e-08 -3.0639e-08)
(1.53605e-08 -5.45916e-08 -3.11388e-08)
(2.15623e-08 -4.31731e-08 -3.19044e-08)
(2.85104e-08 -3.10421e-08 -3.29411e-08)
(3.63463e-08 -1.90363e-08 -3.42179e-08)
(4.5252e-08 -7.53131e-09 -3.56811e-08)
(5.51914e-08 3.26958e-09 -3.72672e-08)
(6.60118e-08 1.33508e-08 -3.89319e-08)
(7.90699e-08 2.33816e-08 -4.01777e-08)
(-0 -8.78305e-08 -3.23444e-08)
(3.91716e-09 -8.49055e-08 -3.24142e-08)
(8.15014e-09 -7.66295e-08 -3.26514e-08)
(1.28712e-08 -6.454e-08 -3.31478e-08)
(1.82084e-08 -5.0492e-08 -3.39727e-08)
(2.42786e-08 -3.61041e-08 -3.51396e-08)
(3.1194e-08 -2.24614e-08 -3.6604e-08)
(3.90947e-08 -1.00281e-08 -3.82884e-08)
(4.8007e-08 1.09989e-09 -4.00899e-08)
(5.77229e-08 1.10344e-08 -4.19788e-08)
(6.95912e-08 2.06465e-08 -4.35021e-08)
(-0 -1.05747e-07 -3.44008e-08)
(3.23096e-09 -1.016e-07 -3.44362e-08)
(6.74855e-09 -9.02617e-08 -3.46132e-08)
(1.07176e-08 -7.44779e-08 -3.5103e-08)
(1.52529e-08 -5.70272e-08 -3.60212e-08)
(2.04626e-08 -4.0007e-08 -3.73792e-08)
(2.64635e-08 -2.46585e-08 -3.90972e-08)
(3.33659e-08 -1.14653e-08 -4.10385e-08)
(4.11915e-08 -3.89365e-10 -4.30404e-08)
(4.96602e-08 8.87847e-09 -4.50232e-08)
(5.94908e-08 1.71264e-08 -4.66082e-08)
(-0 -1.27689e-07 -3.63357e-08)
(2.65231e-09 -1.21318e-07 -3.62793e-08)
(5.53478e-09 -1.0554e-07 -3.63302e-08)
(8.79761e-09 -8.50917e-08 -3.67703e-08)
(1.25329e-08 -6.37501e-08 -3.77645e-08)
(1.68185e-08 -4.39109e-08 -3.93157e-08)
(2.17613e-08 -2.68384e-08 -4.13044e-08)
(2.75286e-08 -1.2917e-08 -4.35338e-08)
(3.42968e-08 -1.89688e-09 -4.57593e-08)
(4.20179e-08 6.77923e-09 -4.77017e-08)
(5.04323e-08 1.38639e-08 -4.91758e-08)
(0 0 -1.95858e-08)
(1.02351e-08 0 -1.96963e-08)
(2.04019e-08 0 -2.00191e-08)
(3.05925e-08 0 -2.05354e-08)
(4.10795e-08 0 -2.12264e-08)
(5.20856e-08 0 -2.20762e-08)
(6.37504e-08 0 -2.30737e-08)
(7.61291e-08 0 -2.42193e-08)
(8.91844e-08 0 -2.55394e-08)
(1.02806e-07 0 -2.71167e-08)
(1.17095e-07 0 -2.91876e-08)
(-0 -1.04156e-08 -1.9706e-08)
(9.97114e-09 -1.0073e-08 -1.98151e-08)
(1.99677e-08 -9.12305e-09 -2.01326e-08)
(3.00604e-08 -7.80923e-09 -2.06411e-08)
(4.04639e-08 -6.27394e-09 -2.13219e-08)
(5.13975e-08 -4.5903e-09 -2.21572e-08)
(6.30015e-08 -2.81403e-09 -2.31308e-08)
(7.53306e-08 -9.8101e-10 -2.42342e-08)
(8.83406e-08 8.94294e-10 -2.54738e-08)
(1.01872e-07 2.81355e-09 -2.68852e-08)
(1.15756e-07 4.68305e-09 -2.85883e-08)
(-0 -2.06898e-08 -2.00601e-08)
(9.27263e-09 -2.00966e-08 -2.01639e-08)
(1.87319e-08 -1.83868e-08 -2.0467e-08)
(2.84652e-08 -1.58625e-08 -2.09553e-08)
(3.85931e-08 -1.28283e-08 -2.16096e-08)
(4.92815e-08 -9.49104e-09 -2.24076e-08)
(6.06829e-08 -5.96562e-09 -2.33232e-08)
(7.28558e-08 -2.32632e-09 -2.43262e-08)
(8.57299e-08 1.39187e-09 -2.53794e-08)
(9.90881e-08 5.1901e-09 -2.64311e-08)
(1.12676e-07 8.89087e-09 -2.74397e-08)
(-0 -3.0947e-08 -2.06325e-08)
(8.33987e-09 -3.01497e-08 -2.07298e-08)
(1.69484e-08 -2.78197e-08 -2.10153e-08)
(2.59849e-08 -2.42465e-08 -2.14792e-08)
(3.55771e-08 -1.98084e-08 -2.21033e-08)
(4.58229e-08 -1.48787e-08 -2.28616e-08)
(5.6839e-08 -9.68928e-09 -2.37182e-08)
(6.87005e-08 -4.35201e-09 -2.46229e-08)
(8.13408e-08 1.08469e-09 -2.5502e-08)
(9.45482e-08 6.62945e-09 -2.62491e-08)
(1.08258e-07 1.21262e-08 -2.6711e-08)
(-0 -4.15072e-08 -2.14067e-08)
(7.24212e-09 -4.05001e-08 -2.14979e-08)
(1.48049e-08 -3.75509e-08 -2.17661e-08)
(2.28666e-08 -3.3001e-08 -2.22085e-08)
(3.1605e-08 -2.72839e-08 -2.28122e-08)
(4.1149e-08 -2.08653e-08 -2.35504e-08)
(5.15652e-08 -1.41281e-08 -2.43819e-08)
(6.2894e-08 -7.27799e-09 -2.52472e-08)
(7.51103e-08 -3.66717e-10 -2.60591e-08)
(8.80696e-08 6.64768e-09 -2.67013e-08)
(1.0214e-07 1.37832e-08 -2.69381e-08)
(-0 -5.26531e-08 -2.2364e-08)
(6.03669e-09 -5.14144e-08 -2.24489e-08)
(1.2418e-08 -4.77737e-08 -2.27007e-08)
(1.93323e-08 -4.21749e-08 -2.31282e-08)
(2.69527e-08 -3.52121e-08 -2.37297e-08)
(3.54659e-08 -2.74448e-08 -2.44842e-08)
(4.49996e-08 -1.93291e-08 -2.53498e-08)
(5.55477e-08 -1.11889e-08 -2.62642e-08)
(6.70335e-08 -3.14573e-09 -2.7148e-08)
(7.93998e-08 4.89314e-09 -2.79035e-08)
(9.3649e-08 1.33059e-08 -2.82101e-08)
(-0 -6.46704e-08 -2.34805e-08)
(4.78628e-09 -6.31331e-08 -2.35563e-08)
(9.90518e-09 -5.86488e-08 -2.37893e-08)
(1.55584e-08 -5.18169e-08 -2.42076e-08)
(2.19038e-08 -4.34752e-08 -2.48285e-08)
(2.91141e-08 -3.44121e-08 -2.56429e-08)
(3.73874e-08 -2.51578e-08 -2.66108e-08)
(4.68143e-08 -1.60312e-08 -2.7668e-08)
(5.7227e-08 -7.24383e-09 -2.87461e-08)
(6.85009e-08 1.25778e-09 -2.97734e-08)
(8.23357e-08 1.0343e-08 -3.03516e-08)
(-0 -7.78831e-08 -2.47277e-08)
(3.55636e-09 -7.59196e-08 -2.47874e-08)
(7.40803e-09 -7.02811e-08 -2.49885e-08)
(1.17458e-08 -6.18689e-08 -2.53941e-08)
(1.67255e-08 -5.18686e-08 -2.60531e-08)
(2.24954e-08 -4.13909e-08 -2.69711e-08)
(2.92265e-08 -3.11584e-08 -2.81068e-08)
(3.71082e-08 -2.14497e-08 -2.93903e-08)
(4.60505e-08 -1.24027e-08 -3.07414e-08)
(5.57637e-08 -4.03111e-09 -3.21079e-08)
(6.83355e-08 4.9266e-09 -3.30638e-08)
(-0 -9.2706e-08 -2.60776e-08)
(2.41537e-09 -9.00839e-08 -2.61038e-08)
(5.06819e-09 -8.27138e-08 -2.62365e-08)
(8.1156e-09 -7.20987e-08 -2.66074e-08)
(1.17009e-08 -6.00008e-08 -2.73174e-08)
(1.59721e-08 -4.78975e-08 -2.83863e-08)
(2.10783e-08 -3.67091e-08 -2.97557e-08)
(2.71843e-08 -2.67502e-08 -3.13254e-08)
(3.43206e-08 -1.79902e-08 -3.29757e-08)
(4.21341e-08 -1.03321e-08 -3.46631e-08)
(5.25933e-08 -2.36535e-09 -3.59965e-08)
(-0 -1.09766e-07 -2.75188e-08)
(1.43007e-09 -1.06019e-07 -2.74685e-08)
(3.02017e-09 -9.58801e-08 -2.74509e-08)
(4.88131e-09 -8.20584e-08 -2.77396e-08)
(7.12481e-09 -6.72137e-08 -2.85139e-08)
(9.89023e-09 -5.32509e-08 -2.97945e-08)
(1.33554e-08 -4.11758e-08 -3.14773e-08)
(1.77106e-08 -3.12276e-08 -3.33914e-08)
(2.30646e-08 -2.31484e-08 -3.53473e-08)
(2.90919e-08 -1.65781e-08 -3.72449e-08)
(3.69882e-08 -1.03017e-08 -3.87507e-08)
(-0 -1.30444e-07 -2.91169e-08)
(6.3906e-10 -1.24579e-07 -2.88759e-08)
(1.34644e-09 -1.10281e-07 -2.85289e-08)
(2.1664e-09 -9.22687e-08 -2.86098e-08)
(3.15919e-09 -7.41897e-08 -2.93933e-08)
(4.42405e-09 -5.82111e-08 -3.08793e-08)
(6.14428e-09 -4.52988e-08 -3.28994e-08)
(8.62504e-09 -3.54974e-08 -3.52039e-08)
(1.22505e-08 -2.8195e-08 -3.75074e-08)
(1.72648e-08 -2.24709e-08 -3.95083e-08)
(2.36329e-08 -1.73945e-08 -4.10097e-08)
(0 0 -1.5424e-08)
(9.95443e-09 0 -1.55132e-08)
(1.99179e-08 0 -1.57748e-08)
(3.00451e-08 0 -1.61937e-08)
(4.06539e-08 0 -1.67591e-08)
(5.19947e-08 0 -1.74674e-08)
(6.42037e-08 0 -1.83284e-08)
(7.72776e-08 0 -1.9381e-08)
(9.10191e-08 0 -2.07208e-08)
(1.04972e-07 0 -2.25603e-08)
(1.18516e-07 0 -2.53992e-08)
(-0 -1.16002e-08 -1.54591e-08)
(9.65489e-09 -1.12688e-08 -1.55464e-08)
(1.9411e-08 -1.0354e-08 -1.58016e-08)
(2.94036e-08 -9.10749e-09 -1.62103e-08)
(3.98947e-08 -7.66234e-09 -1.67605e-08)
(5.11346e-08 -6.07457e-09 -1.7445e-08)
(6.3267e-08 -4.38245e-09 -1.82658e-08)
(7.63035e-08 -2.60645e-09 -1.92455e-08)
(9.00785e-08 -7.47606e-10 -2.04453e-08)
(1.0418e-07 1.20644e-09 -2.19956e-08)
(1.17955e-07 3.2068e-09 -2.42018e-08)
(-0 -2.29626e-08 -1.55671e-08)
(8.85184e-09 -2.24041e-08 -1.56474e-08)
(1.79613e-08 -2.07936e-08 -1.58837e-08)