/*--------------------------------*- C++ -*----------------------------------*\
| =========                 |                                                 |
| \\      /  F ield         | foam-extend: Open Source CFD                    |
|  \\    /   O peration     | Version:     3.1                                |
|   \\  /    A nd           | Web:         http://www.extend-project.de       |
|    \\/     M anipulation  |                                                 |
\*---------------------------------------------------------------------------*/
FoamFile
{
    version     2.0;
    format      ascii;
    class       surfaceVectorField;
    location    "0.001";
    object      Sf;
}
// * * * * * * * * * * * * * * * * * * * * * * * * * * * * * * * * * * * * * //

dimensions      [0 2 0 0 0 0 0];

internalField   nonuniform List<vector> 
45800
(
(2.1053e-07 3.67478e-09 -6.3612e-10)
(3.67433e-09 2.10528e-07 -6.37536e-10)
(-9.60004e-12 -9.55309e-12 1.15827e-07)
(2.06871e-07 7.34556e-09 -1.23377e-09)
(3.68683e-09 2.10534e-07 -6.3354e-10)
(-2.81728e-11 -1.00763e-11 1.13784e-07)
(2.03228e-07 1.10148e-08 -1.78578e-09)
(3.69002e-09 2.10551e-07 -6.2135e-10)
(-4.63503e-11 -1.1152e-11 1.11726e-07)
(1.99603e-07 1.46871e-08 -2.29762e-09)
(3.68986e-09 2.10589e-07 -6.08095e-10)
(-6.5259e-11 -1.29399e-11 1.09671e-07)
(1.95999e-07 1.83641e-08 -2.77549e-09)
(3.68969e-09 2.10654e-07 -5.96056e-10)
(-8.59929e-11 -1.56179e-11 1.07625e-07)
(1.92419e-07 2.20477e-08 -3.22328e-09)
(3.68955e-09 2.10748e-07 -5.85733e-10)
(-1.09483e-10 -1.93768e-11 1.05584e-07)
(1.88867e-07 2.57398e-08 -3.64265e-09)
(3.68913e-09 2.10871e-07 -5.77805e-10)
(-1.36625e-10 -2.44867e-11 1.03547e-07)
(1.85346e-07 2.94431e-08 -4.03247e-09)
(3.68842e-09 2.11027e-07 -5.73163e-10)
(-1.67961e-10 -3.11944e-11 1.01512e-07)
(1.81863e-07 3.3161e-08 -4.3881e-09)
(3.68731e-09 2.11218e-07 -5.72797e-10)
(-2.03584e-10 -3.94143e-11 9.9477e-08)
(3.69615e-09 2.11447e-07 -5.72528e-10)
(-2.4491e-10 -4.68738e-11 9.74361e-08)
(1.78411e-07 3.69024e-08 -4.70372e-09)
(2.10534e-07 3.68636e-09 -6.32129e-10)
(7.34468e-09 2.0687e-07 -1.23407e-09)
(-1.01049e-11 -2.81087e-11 1.13781e-07)
(2.06885e-07 7.36493e-09 -1.23305e-09)
(7.364e-09 2.06884e-07 -1.23428e-09)
(-2.83991e-11 -2.83208e-11 1.11754e-07)
(2.03247e-07 1.10369e-08 -1.79406e-09)
(7.37438e-09 2.06908e-07 -1.2196e-09)
(-4.64597e-11 -2.89261e-11 1.09711e-07)
(1.99625e-07 1.47093e-08 -2.31552e-09)
(7.37742e-09 2.06947e-07 -1.19909e-09)
(-6.52681e-11 -3.0118e-11 1.07663e-07)
(1.96022e-07 1.83869e-08 -2.80181e-09)
(7.37765e-09 2.07009e-07 -1.17884e-09)
(-8.58703e-11 -3.20524e-11 1.05619e-07)
(1.92443e-07 2.20714e-08 -3.25687e-09)
(7.37776e-09 2.07098e-07 -1.16137e-09)
(-1.09162e-10 -3.49359e-11 1.0358e-07)
(1.88891e-07 2.57649e-08 -3.68249e-09)
(7.37715e-09 2.07216e-07 -1.14817e-09)
(-1.35965e-10 -3.89393e-11 1.01545e-07)
(1.8537e-07 2.94709e-08 -4.07741e-09)
(7.3762e-09 2.07365e-07 -1.14092e-09)
(-1.6656e-10 -4.39408e-11 9.95112e-08)
(1.81883e-07 3.31924e-08 -4.43695e-09)
(7.37541e-09 2.07546e-07 -1.14088e-09)
(-2.00685e-10 -4.94092e-11 9.74756e-08)
(7.39608e-09 2.07761e-07 -1.13846e-09)
(-2.37083e-10 -5.35487e-11 9.54283e-08)
(1.7842e-07 3.6931e-08 -4.75204e-09)
(2.10549e-07 3.68874e-09 -6.20848e-10)
(1.10144e-08 2.03228e-07 -1.78444e-09)
(-1.11451e-11 -4.63442e-11 1.11723e-07)
(2.06906e-07 7.37353e-09 -1.2183e-09)
(1.10354e-08 2.03246e-07 -1.79361e-09)
(-2.89688e-11 -4.64015e-11 1.09708e-07)
(2.03276e-07 1.10526e-08 -1.78426e-09)
(1.10515e-08 2.03275e-07 -1.78507e-09)
(-4.67818e-11 -4.66938e-11 1.07682e-07)
(1.99658e-07 1.47285e-08 -2.31463e-09)
(1.10611e-08 2.03319e-07 -1.7654e-09)
(-6.53705e-11 -4.7445e-11 1.05647e-07)
(1.96057e-07 1.84072e-08 -2.80952e-09)
(1.10643e-08 2.03379e-07 -1.74214e-09)
(-8.57024e-11 -4.88169e-11 1.03608e-07)
(1.92478e-07 2.20933e-08 -3.27172e-09)
(1.10648e-08 2.03463e-07 -1.72116e-09)
(-1.08678e-10 -5.1001e-11 1.01571e-07)
(1.88926e-07 2.57888e-08 -3.70295e-09)
(1.10647e-08 2.03575e-07 -1.70567e-09)
(-1.34941e-10 -5.41659e-11 9.95372e-08)
(1.85402e-07 2.94968e-08 -4.10151e-09)
(1.10643e-08 2.03715e-07 -1.69772e-09)
(-1.64429e-10 -5.81762e-11 9.75033e-08)
(1.8191e-07 3.322e-08 -4.46294e-09)
(1.10642e-08 2.03886e-07 -1.69892e-09)
(-1.96768e-10 -6.26853e-11 9.54668e-08)
(1.10979e-08 2.04091e-07 -1.69429e-09)
(-2.29093e-10 -6.59011e-11 9.34182e-08)
(1.78437e-07 3.69569e-08 -4.77859e-09)
(2.10588e-07 3.68953e-09 -6.08441e-10)
(1.46871e-08 1.99604e-07 -2.29567e-09)
(-1.29172e-11 -6.5302e-11 1.09671e-07)
(2.06945e-07 7.37606e-09 -1.19888e-09)
(1.47087e-08 1.99625e-07 -2.31387e-09)
(-3.01094e-11 -6.52909e-11 1.07662e-07)
(2.03317e-07 1.10602e-08 -1.76444e-09)
(1.47269e-08 1.99657e-07 -2.31402e-09)
(-4.74904e-11 -6.53325e-11 1.05645e-07)
(1.99703e-07 1.47423e-08 -2.30004e-09)
(1.47413e-08 1.99702e-07 -2.30069e-09)
(-6.57677e-11 -6.56916e-11 1.03621e-07)
(1.96103e-07 1.84244e-08 -2.80248e-09)
(1.47503e-08 1.99763e-07 -2.27964e-09)
(-8.5738e-11 -6.65977e-11 1.01589e-07)
(1.92522e-07 2.2112e-08 -3.2713e-09)
(1.47534e-08 1.99844e-07 -2.25785e-09)
(-1.0829e-10 -6.82347e-11 9.9554e-08)
(1.88967e-07 2.58097e-08 -3.70713e-09)
(1.47535e-08 1.99948e-07 -2.2415e-09)
(-1.33996e-10 -7.08196e-11 9.75196e-08)
(1.85441e-07 2.95197e-08 -4.10814e-09)
(1.47538e-08 2.0008e-07 -2.23407e-09)
(-1.6258e-10 -7.4449e-11 9.54847e-08)
(1.81943e-07 3.32443e-08 -4.47035e-09)
(1.4755e-08 2.0024e-07 -2.23707e-09)
(-1.93646e-10 -7.90634e-11 9.34471e-08)
(1.48016e-08 2.00436e-07 -2.23052e-09)
(-2.22252e-10 -8.22823e-11 9.13988e-08)
(1.78462e-07 3.6981e-08 -4.78683e-09)
(2.10654e-07 3.68974e-09 -5.96548e-10)
(1.83641e-08 1.96e-07 -2.77344e-09)
(-1.56029e-11 -8.60485e-11 1.07625e-07)
(2.07008e-07 7.37726e-09 -1.17952e-09)
(1.83867e-08 1.96023e-07 -2.7999e-09)
(-3.2022e-11 -8.59251e-11 1.05619e-07)
(2.03377e-07 1.1063e-08 -1.7422e-09)
(1.84066e-08 1.96057e-07 -2.80802e-09)
(-4.87882e-11 -8.57178e-11 1.03606e-07)
(1.99762e-07 1.47495e-08 -2.27881e-09)
(1.84228e-08 1.96101e-07 -2.802e-09)
(-6.66321e-11 -8.56831e-11 1.01587e-07)
(1.96163e-07 1.84373e-08 -2.78559e-09)
(1.84361e-08 1.96162e-07 -2.78641e-09)
(-8.62176e-11 -8.61298e-11 9.95621e-08)
(1.9258e-07 2.21279e-08 -3.2599e-09)
(1.84446e-08 1.9624e-07 -2.76669e-09)
(-1.08376e-10 -8.73773e-11 9.75311e-08)
(1.8902e-07 2.58267e-08 -3.6995e-09)
(1.84473e-08 1.96339e-07 -2.74983e-09)
(-1.33556e-10 -8.96123e-11 9.54952e-08)
(1.85488e-07 2.9539e-08 -4.10162e-09)
(1.84471e-08 1.96461e-07 -2.7422e-09)
(-1.61607e-10 -9.30448e-11 9.3457e-08)
(1.81986e-07 3.32664e-08 -4.46304e-09)
(1.84493e-08 1.96611e-07 -2.74661e-09)
(-1.92012e-10 -9.79168e-11 9.14171e-08)
(1.85074e-08 1.96799e-07 -2.73853e-09)
(-2.16874e-10 -1.01058e-10 8.93698e-08)
(1.78497e-07 3.70049e-08 -4.77931e-09)
(2.10748e-07 3.68959e-09 -5.86176e-10)
(2.20476e-08 1.9242e-07 -3.22126e-09)
(-1.93671e-11 -1.09527e-10 1.05584e-07)
(2.07098e-07 7.37784e-09 -1.16222e-09)
(2.20712e-08 1.92444e-07 -3.255e-09)
(-3.49009e-11 -1.09205e-10 1.03581e-07)
(2.03462e-07 1.10644e-08 -1.72206e-09)
(2.20931e-08 1.92479e-07 -3.27006e-09)
(-5.09409e-11 -1.08718e-10 1.01571e-07)
(1.99842e-07 1.47519e-08 -2.25807e-09)
(2.21113e-08 1.92522e-07 -3.2701e-09)
(-6.82207e-11 -1.08316e-10 9.95526e-08)
(1.9624e-07 1.84436e-08 -2.76569e-09)
(2.2126e-08 1.92578e-07 -3.25984e-09)
(-8.74061e-11 -1.08331e-10 9.7529e-08)
(1.92655e-07 2.21401e-08 -3.24248e-09)
(2.21384e-08 1.92653e-07 -3.24398e-09)
(-1.09209e-10 -1.09115e-10 9.55014e-08)
(1.8909e-07 2.58421e-08 -3.68463e-09)
(2.2147e-08 1.92748e-07 -3.22764e-09)
(-1.33947e-10 -1.10951e-10 9.34667e-08)
(1.8555e-07 2.95557e-08 -4.08665e-09)
(2.21486e-08 1.92861e-07 -3.2181e-09)
(-1.61639e-10 -1.14109e-10 9.1424e-08)
(1.8204e-07 3.32866e-08 -4.44467e-09)
(2.21506e-08 1.92998e-07 -3.22112e-09)
(-1.91613e-10 -1.18706e-10 8.9378e-08)
(2.22163e-08 1.93177e-07 -3.21078e-09)
(-2.12638e-10 -1.20971e-10 8.73305e-08)
(1.78544e-07 3.70293e-08 -4.75805e-09)
(2.10871e-07 3.68916e-09 -5.78213e-10)
(2.57398e-08 1.88867e-07 -3.64082e-09)
(-2.44771e-11 -1.36661e-10 1.03547e-07)
(2.07217e-07 7.3772e-09 -1.14896e-09)
(2.57648e-08 1.88892e-07 -3.68077e-09)
(-3.89019e-11 -1.35998e-10 1.01546e-07)
(2.03575e-07 1.10646e-08 -1.70679e-09)
(2.57887e-08 1.88926e-07 -3.7014e-09)
(-5.4106e-11 -1.34971e-10 9.95377e-08)
(1.99948e-07 1.47529e-08 -2.24276e-09)
(2.58095e-08 1.88968e-07 -3.70578e-09)
(-7.07783e-11 -1.34014e-10 9.75196e-08)
(1.96337e-07 1.84452e-08 -2.75019e-09)
(2.58261e-08 1.8902e-07 -3.69848e-09)
(-8.95417e-11 -1.33519e-10 9.54934e-08)
(1.92746e-07 2.21455e-08 -3.22592e-09)
(2.58398e-08 1.89087e-07 -3.68473e-09)
(-1.10891e-10 -1.33738e-10 9.34632e-08)
(1.89176e-07 2.58536e-08 -3.66739e-09)
(2.58521e-08 1.89175e-07 -3.66903e-09)
(-1.35264e-10 -1.34973e-10 9.1429e-08)
(1.85628e-07 2.95714e-08 -4.06719e-09)
(2.58597e-08 1.8928e-07 -3.6567e-09)
(-1.62159e-10 -1.37093e-10 8.93839e-08)
(1.82106e-07 3.33061e-08 -4.41842e-09)
(2.58633e-08 1.89404e-07 -3.65415e-09)
(-1.91217e-10 -1.39925e-10 8.73292e-08)
(2.59289e-08 1.89568e-07 -3.63932e-09)
(-2.08704e-10 -1.40077e-10 8.5279e-08)
(1.78602e-07 3.70547e-08 -4.72456e-09)
(2.11028e-07 3.68847e-09 -5.73534e-10)
(2.9443e-08 1.85347e-07 -4.03096e-09)
(-3.11831e-11 -1.67996e-10 1.01513e-07)
(2.07366e-07 7.37631e-09 -1.14164e-09)
(2.94709e-08 1.85371e-07 -4.07599e-09)
(-4.38968e-11 -1.66587e-10 9.95118e-08)
(2.03716e-07 1.10644e-08 -1.69877e-09)
(2.94968e-08 1.85403e-07 -4.10019e-09)
(-5.81039e-11 -1.6444e-10 9.75038e-08)
(2.0008e-07 1.47541e-08 -2.23549e-09)
(2.95197e-08 1.85441e-07 -4.10688e-09)
(-7.43587e-11 -1.62551e-10 9.54851e-08)
(1.9646e-07 1.84468e-08 -2.74368e-09)
(2.95392e-08 1.85488e-07 -4.10028e-09)
(-9.28952e-11 -1.61512e-10 9.34567e-08)
(1.92858e-07 2.21466e-08 -3.21775e-09)
(2.95553e-08 1.85548e-07 -4.08526e-09)
(-1.13765e-10 -1.61357e-10 9.14207e-08)
(1.89278e-07 2.58582e-08 -3.65486e-09)
(2.95694e-08 1.85625e-07 -4.06658e-09)
(-1.37241e-10 -1.61698e-10 8.93802e-08)
(1.85717e-07 2.9583e-08 -4.04762e-09)
(2.9582e-08 1.85717e-07 -4.04829e-09)
(-1.61911e-10 -1.6141e-10 8.73292e-08)
(1.82181e-07 3.33232e-08 -4.38744e-09)
(2.95882e-08 1.85824e-07 -4.03617e-09)
(-1.88992e-10 -1.60519e-10 8.52661e-08)
(2.96458e-08 1.85968e-07 -4.01463e-09)
(-2.0313e-10 -1.56327e-10 8.32117e-08)
(1.78668e-07 3.70798e-08 -4.68011e-09)
(2.11219e-07 3.68738e-09 -5.73113e-10)
(3.3161e-08 1.81863e-07 -4.38701e-09)
(-3.94012e-11 -2.03617e-10 9.94777e-08)
(2.07546e-07 7.37556e-09 -1.14149e-09)
(3.31924e-08 1.81883e-07 -4.43593e-09)
(-4.93597e-11 -2.00715e-10 9.74762e-08)
(2.03886e-07 1.10644e-08 -1.69977e-09)
(3.322e-08 1.8191e-07 -4.46198e-09)
(-6.25994e-11 -1.96789e-10 9.54674e-08)
(2.0024e-07 1.47554e-08 -2.23813e-09)
(3.32444e-08 1.81944e-07 -4.46939e-09)
(-7.89404e-11 -1.93651e-10 9.34476e-08)
(1.96611e-07 1.84501e-08 -2.74785e-09)
(3.32665e-08 1.81986e-07 -4.46197e-09)
(-9.77365e-11 -1.91993e-10 9.14175e-08)
(1.92997e-07 2.21505e-08 -3.2216e-09)
(3.32868e-08 1.82039e-07 -4.44335e-09)
(-1.18326e-10 -1.91609e-10 8.93773e-08)
(1.89402e-07 2.58616e-08 -3.65352e-09)
(3.33054e-08 1.82105e-07 -4.41718e-09)
(-1.40058e-10 -1.91321e-10 8.73274e-08)
(1.85823e-07 2.95871e-08 -4.03539e-09)
(3.33218e-08 1.8218e-07 -4.38702e-09)
(-1.60934e-10 -1.8899e-10 8.52649e-08)
(1.82264e-07 3.33305e-08 -4.35848e-09)
(3.333e-08 1.82263e-07 -4.35883e-09)
(-1.82756e-10 -1.82575e-10 8.31894e-08)
(3.33696e-08 1.82364e-07 -4.3251e-09)
(-1.89126e-10 -1.66561e-10 8.11217e-08)
(1.78729e-07 3.71008e-08 -4.62661e-09)
(2.11447e-07 3.69623e-09 -5.72776e-10)
(-4.68578e-11 -2.44918e-10 9.74367e-08)
(3.69024e-08 1.78412e-07 -4.70303e-09)
(2.07762e-07 7.39623e-09 -1.13893e-09)
(-5.34982e-11 -2.37093e-10 9.54289e-08)
(3.6931e-08 1.7842e-07 -4.7514e-09)
(2.04091e-07 1.10981e-08 -1.69492e-09)
(-6.58181e-11 -2.29111e-10 9.34187e-08)
(3.69569e-08 1.78438e-07 -4.778e-09)
(2.00436e-07 1.48019e-08 -2.23123e-09)
(-8.21751e-11 -2.22289e-10 9.13993e-08)
(3.6981e-08 1.78462e-07 -4.78623e-09)
(1.96799e-07 1.85077e-08 -2.73924e-09)
(-1.00927e-10 -2.16959e-10 8.93702e-08)
(3.70049e-08 1.78497e-07 -4.77866e-09)
(1.93177e-07 2.22164e-08 -3.21126e-09)
(-1.20803e-10 -2.12856e-10 8.73309e-08)
(3.70293e-08 1.78543e-07 -4.75733e-09)
(1.89568e-07 2.59285e-08 -3.63959e-09)
(-1.40195e-10 -2.09e-10 8.52793e-08)
(3.70545e-08 1.78602e-07 -4.72386e-09)
(1.85967e-07 2.9645e-08 -4.01458e-09)
(-1.56434e-10 -2.03208e-10 8.32112e-08)
(3.70795e-08 1.78667e-07 -4.67956e-09)
(1.82363e-07 3.33692e-08 -4.32465e-09)
(-1.6655e-10 -1.88859e-10 8.11206e-08)
(3.71002e-08 1.78728e-07 -4.62631e-09)
(-1.62602e-10 -1.62245e-10 7.90285e-08)
(1.78782e-07 3.71145e-08 -4.56784e-09)
(3.7114e-08 1.78781e-07 -4.5679e-09)
(2.11508e-07 3.68788e-09 -5.87904e-10)
(3.68655e-09 2.11503e-07 -5.89163e-10)
(-1.5909e-11 -1.58329e-11 1.17004e-07)
(2.07804e-07 7.36182e-09 -1.14019e-09)
(3.72241e-09 2.11478e-07 -5.85564e-10)
(-4.63344e-11 -1.66694e-11 1.14922e-07)
(2.04103e-07 1.10268e-08 -1.65042e-09)
(3.73012e-09 2.11441e-07 -5.7431e-10)
(-7.59404e-11 -1.83792e-11 1.1281e-07)
(2.00417e-07 1.46935e-08 -2.1241e-09)
(3.72724e-09 2.11422e-07 -5.62131e-10)
(-1.06298e-10 -2.11999e-11 1.10707e-07)
(1.96747e-07 1.83638e-08 -2.56765e-09)
(3.72339e-09 2.11431e-07 -5.51223e-10)
(-1.38954e-10 -2.53771e-11 1.0862e-07)
(1.93094e-07 2.2039e-08 -2.98577e-09)
(3.71848e-09 2.11463e-07 -5.42119e-10)
(-1.75071e-10 -3.11463e-11 1.06544e-07)
(1.89461e-07 2.57201e-08 -3.38171e-09)
(3.71141e-09 2.11514e-07 -5.35558e-10)
(-2.15571e-10 -3.88213e-11 1.04478e-07)
(1.85852e-07 2.94083e-08 -3.75691e-09)
(3.70178e-09 2.11579e-07 -5.32544e-10)
(-2.60565e-10 -4.86146e-11 1.0242e-07)
(1.82269e-07 3.31062e-08 -4.11061e-09)
(3.68893e-09 2.11644e-07 -5.34268e-10)
(-3.09121e-10 -6.01388e-11 1.00365e-07)
(3.70267e-09 2.11704e-07 -5.37665e-10)
(-3.61796e-10 -6.97083e-11 9.8305e-08)
(1.78683e-07 3.68296e-08 -4.44186e-09)
(2.11476e-07 3.72102e-09 -5.84301e-10)
(7.35927e-09 2.078e-07 -1.14038e-09)
(-1.6715e-11 -4.62299e-11 1.14917e-07)
(2.07802e-07 7.41706e-09 -1.13977e-09)
(7.41436e-09 2.078e-07 -1.14081e-09)
(-4.66387e-11 -4.65118e-11 1.12865e-07)
(2.0412e-07 1.10893e-08 -1.65849e-09)
(7.44154e-09 2.07787e-07 -1.12739e-09)
(-7.60198e-11 -4.73561e-11 1.10783e-07)
(2.00443e-07 1.47557e-08 -2.14124e-09)
(7.44565e-09 2.07774e-07 -1.10866e-09)
(-1.06182e-10 -4.90631e-11 1.08693e-07)
(1.96779e-07 1.84271e-08 -2.59279e-09)
(7.43967e-09 2.07779e-07 -1.09042e-09)
(-1.38593e-10 -5.18476e-11 1.0661e-07)
(1.93132e-07 2.21045e-08 -3.01794e-09)
(7.43109e-09 2.07806e-07 -1.07519e-09)
(-1.74364e-10 -5.59735e-11 1.04539e-07)
(1.89504e-07 2.57896e-08 -3.42002e-09)
(7.41771e-09 2.07852e-07 -1.06457e-09)
(-2.14316e-10 -6.16106e-11 1.02476e-07)
(1.85897e-07 2.94858e-08 -3.80032e-09)
(7.40003e-09 2.07907e-07 -1.06046e-09)
(-2.58187e-10 -6.84288e-11 1.00419e-07)
(1.82311e-07 3.3195e-08 -4.15785e-09)
(7.37884e-09 2.07961e-07 -1.06458e-09)
(-3.04587e-10 -7.54392e-11 9.83634e-08)
(7.41596e-09 2.08011e-07 -1.06955e-09)
(-3.50307e-10 -7.97945e-11 9.62902e-08)
(1.78711e-07 3.69142e-08 -4.48784e-09)
(2.11435e-07 3.72637e-09 -5.73879e-10)
(1.10257e-08 2.04104e-07 -1.64908e-09)
(-1.83667e-11 -7.59306e-11 1.12806e-07)
(2.07783e-07 7.43905e-09 -1.12627e-09)
(1.10851e-08 2.04117e-07 -1.65793e-09)
(-4.74239e-11 -7.59247e-11 1.10778e-07)
(2.04126e-07 1.11305e-08 -1.64981e-09)
(1.11274e-08 2.04125e-07 -1.65039e-09)
(-7.63247e-11 -7.61824e-11 1.08729e-07)
(2.00464e-07 1.48057e-08 -2.14105e-09)
(1.11484e-08 2.04129e-07 -1.63277e-09)
(-1.06058e-10 -7.70526e-11 1.06662e-07)
(1.96809e-07 1.84792e-08 -2.60088e-09)
(1.11478e-08 2.04135e-07 -1.61212e-09)
(-1.37958e-10 -7.87592e-11 1.04589e-07)
(1.93168e-07 2.216e-08 -3.03303e-09)
(1.11362e-08 2.04156e-07 -1.5942e-09)
(-1.73149e-10 -8.15442e-11 1.02522e-07)
(1.89544e-07 2.58499e-08 -3.44078e-09)
(1.11186e-08 2.04194e-07 -1.58238e-09)
(-2.12192e-10 -8.55736e-11 1.00463e-07)
(1.85939e-07 2.95518e-08 -3.82491e-09)
(1.10955e-08 2.04237e-07 -1.57906e-09)
(-2.54335e-10 -9.04957e-11 9.8406e-08)
(1.82351e-07 3.32664e-08 -4.18444e-09)
(1.10675e-08 2.0428e-07 -1.58647e-09)
(-2.98114e-10 -9.56009e-11 9.63482e-08)
(1.11324e-08 2.04326e-07 -1.59293e-09)
(-3.38143e-10 -9.80498e-11 9.42715e-08)
(1.78744e-07 3.69836e-08 -4.51439e-09)
(2.11419e-07 3.72627e-09 -5.62509e-10)
(1.46935e-08 2.00419e-07 -2.12219e-09)
(-2.1162e-11 -1.0637e-10 1.10707e-07)
(2.07769e-07 7.44166e-09 -1.10856e-09)
(1.47541e-08 2.00443e-07 -2.13957e-09)
(-4.90475e-11 -1.06219e-10 1.08689e-07)
(2.04125e-07 1.11458e-08 -1.63202e-09)
(1.48012e-08 2.00461e-07 -2.14028e-09)
(-7.71245e-11 -1.05996e-10 1.06658e-07)
(2.0048e-07 1.4837e-08 -2.12854e-09)
(1.4834e-08 2.00478e-07 -2.1289e-09)
(-1.06235e-10 -1.06114e-10 1.04613e-07)
(1.96832e-07 1.85182e-08 -2.59584e-09)
(1.48473e-08 2.00494e-07 -2.1109e-09)
(-1.37431e-10 -1.06897e-10 1.02555e-07)
(1.93193e-07 2.22018e-08 -3.03466e-09)
(1.48394e-08 2.00513e-07 -2.09298e-09)
(-1.71814e-10 -1.08569e-10 1.00492e-07)
(1.8957e-07 2.58963e-08 -3.44732e-09)
(1.48171e-08 2.0054e-07 -2.0814e-09)
(-2.09845e-10 -1.11362e-10 9.84313e-08)
(1.85965e-07 2.96029e-08 -3.83442e-09)
(1.47889e-08 2.00571e-07 -2.08012e-09)
(-2.50473e-10 -1.15262e-10 9.63728e-08)
(1.82374e-07 3.33214e-08 -4.19525e-09)
(1.47563e-08 2.00602e-07 -2.09153e-09)
(-2.92267e-10 -1.19957e-10 9.4313e-08)
(1.48491e-08 2.00647e-07 -2.09979e-09)
(-3.2696e-10 -1.21712e-10 9.22363e-08)
(1.78762e-07 3.70398e-08 -4.52589e-09)
(2.1143e-07 3.72354e-09 -5.51749e-10)
(1.83637e-08 1.96748e-07 -2.56563e-09)
(-2.53522e-11 -1.39047e-10 1.0862e-07)
(2.07777e-07 7.43852e-09 -1.09118e-09)
(1.84267e-08 1.96781e-07 -2.59089e-09)
(-5.17968e-11 -1.38683e-10 1.0661e-07)
(2.04131e-07 1.11441e-08 -1.61232e-09)
(1.84774e-08 1.96808e-07 -2.59928e-09)
(-7.87116e-11 -1.37983e-10 1.04587e-07)
(2.00492e-07 1.4845e-08 -2.11034e-09)
(1.85137e-08 1.96829e-07 -2.59508e-09)
(-1.0695e-10 -1.37343e-10 1.02551e-07)
(1.96854e-07 1.85402e-08 -2.58241e-09)
(1.85366e-08 1.9685e-07 -2.58283e-09)
(-1.37343e-10 -1.37205e-10 1.00506e-07)
(1.93215e-07 2.22297e-08 -3.02714e-09)
(1.85403e-08 1.96874e-07 -2.56786e-09)
(-1.70896e-10 -1.37992e-10 9.84507e-08)
(1.89586e-07 2.59253e-08 -3.44415e-09)
(1.85206e-08 1.96894e-07 -2.5571e-09)
(-2.07872e-10 -1.39872e-10 9.6388e-08)
(1.85976e-07 2.96363e-08 -3.8333e-09)
(1.84847e-08 1.9691e-07 -2.55734e-09)
(-2.47417e-10 -1.42975e-10 9.43233e-08)
(1.82382e-07 3.33613e-08 -4.19449e-09)
(1.84463e-08 1.96926e-07 -2.57258e-09)
(-2.87957e-10 -1.47395e-10 9.22593e-08)
(1.85636e-08 1.9697e-07 -2.58312e-09)
(-3.17091e-10 -1.48245e-10 9.01841e-08)
(1.78768e-07 3.70854e-08 -4.52548e-09)
(2.11463e-07 3.7186e-09 -5.42601e-10)
(2.20389e-08 1.93095e-07 -2.98379e-09)
(-3.11301e-11 -1.75143e-10 1.06545e-07)
(2.07806e-07 7.43131e-09 -1.07612e-09)
(2.21042e-08 1.93133e-07 -3.01606e-09)
(-5.59154e-11 -1.74435e-10 1.0454e-07)
(2.04155e-07 1.1135e-08 -1.59522e-09)
(2.21595e-08 1.93169e-07 -3.03129e-09)
(-8.14465e-11 -1.73215e-10 1.02522e-07)
(2.00509e-07 1.48349e-08 -2.0934e-09)
(2.21997e-08 1.93192e-07 -3.03325e-09)
(-1.08546e-10 -1.71855e-10 1.00489e-07)
(1.96872e-07 1.85375e-08 -2.56721e-09)
(2.22243e-08 1.9321e-07 -3.02666e-09)
(-1.38037e-10 -1.70826e-10 9.84466e-08)
(1.93238e-07 2.22408e-08 -3.01548e-09)
(2.22356e-08 1.93232e-07 -3.0164e-09)
(-1.70734e-10 -1.70592e-10 9.63982e-08)
(1.89603e-07 2.59421e-08 -3.43617e-09)
(2.22283e-08 1.93253e-07 -3.0078e-09)
(-2.06682e-10 -1.71442e-10 9.43381e-08)
(1.8598e-07 2.9654e-08 -3.82658e-09)
(2.21912e-08 1.93258e-07 -3.00829e-09)
(-2.45279e-10 -1.7358e-10 9.22654e-08)
(1.82376e-07 3.33864e-08 -4.18617e-09)
(2.21442e-08 1.93252e-07 -3.02488e-09)
(-2.847e-10 -1.76867e-10 9.01899e-08)
(2.2275e-08 1.93289e-07 -3.03702e-09)
(-3.07978e-10 -1.75588e-10 8.81139e-08)
(1.7876e-07 3.71218e-08 -4.51565e-09)
(2.11515e-07 3.7115e-09 -5.36005e-10)
(2.57201e-08 1.89462e-07 -3.37989e-09)
(-3.88052e-11 -2.15629e-10 1.0448e-07)
(2.07852e-07 7.41785e-09 -1.06544e-09)
(2.57893e-08 1.89505e-07 -3.41828e-09)
(-6.15491e-11 -2.1437e-10 1.02477e-07)
(2.04194e-07 1.11186e-08 -1.58363e-09)
(2.58496e-08 1.89546e-07 -3.43914e-09)
(-8.54773e-11 -2.12242e-10 1.00464e-07)
(2.00538e-07 1.48152e-08 -2.08282e-09)
(2.5896e-08 1.89572e-07 -3.44578e-09)
(-1.11298e-10 -2.09876e-10 9.84313e-08)
(1.96889e-07 1.85144e-08 -2.55767e-09)
(2.59238e-08 1.89585e-07 -3.44281e-09)
(-1.39765e-10 -2.07814e-10 9.63844e-08)
(1.93249e-07 2.2224e-08 -3.00648e-09)
(2.59355e-08 1.89595e-07 -3.43567e-09)
(-1.71351e-10 -2.06365e-10 9.43313e-08)
(1.89614e-07 2.59388e-08 -3.42843e-09)
(2.59345e-08 1.89609e-07 -3.42941e-09)
(-2.0628e-10 -2.05848e-10 9.22725e-08)
(1.85977e-07 2.9659e-08 -3.81863e-09)
(2.59089e-08 1.89607e-07 -3.42966e-09)
(-2.4317e-10 -2.0586e-10 9.01955e-08)
(1.82352e-07 3.3399e-08 -4.17376e-09)
(2.58593e-08 1.89578e-07 -3.44382e-09)
(-2.80593e-10 -2.05809e-10 8.81032e-08)
(2.59819e-08 1.89599e-07 -3.45512e-09)
(-2.9835e-10 -2.00654e-10 8.60215e-08)
(1.78734e-07 3.71501e-08 -4.4982e-09)
(2.1158e-07 3.70192e-09 -5.32957e-10)
(2.94083e-08 1.85853e-07 -3.75539e-09)
(-4.85954e-11 -2.60619e-10 1.02421e-07)
(2.07908e-07 7.40034e-09 -1.06127e-09)
(2.94857e-08 1.85898e-07 -3.79885e-09)
(-6.83574e-11 -2.5823e-10 1.00421e-07)
(2.04238e-07 1.1096e-08 -1.58024e-09)
(2.95518e-08 1.8594e-07 -3.82346e-09)
(-9.03811e-11 -2.54353e-10 9.84071e-08)
(2.00571e-07 1.47899e-08 -2.08172e-09)
(2.96031e-08 1.85966e-07 -3.83293e-09)
(-1.15123e-10 -2.50429e-10 9.63738e-08)
(1.96908e-07 1.84838e-08 -2.55902e-09)
(2.96371e-08 1.85977e-07 -3.83165e-09)
(-1.42749e-10 -2.47272e-10 9.43228e-08)
(1.9325e-07 2.21856e-08 -3.00816e-09)
(2.9653e-08 1.85977e-07 -3.82472e-09)
(-1.73066e-10 -2.44846e-10 9.22589e-08)
(1.896e-07 2.59048e-08 -3.42823e-09)
(2.96532e-08 1.85971e-07 -3.81739e-09)
(-2.06073e-10 -2.42473e-10 9.01882e-08)
(1.85948e-07 2.96408e-08 -3.81411e-09)
(2.96378e-08 1.85948e-07 -3.81422e-09)
(-2.39085e-10 -2.38341e-10 8.80997e-08)
(1.82301e-07 3.33938e-08 -4.16063e-09)
(2.95903e-08 1.85897e-07 -3.82188e-09)
(-2.72948e-10 -2.32238e-10 8.59907e-08)
(2.96838e-08 1.85889e-07 -3.82929e-09)
(-2.85549e-10 -2.20328e-10 8.38995e-08)
(1.78681e-07 3.71678e-08 -4.47428e-09)
(2.11646e-07 3.68912e-09 -5.34634e-10)
(3.31061e-08 1.8227e-07 -4.10947e-09)
(-6.01169e-11 -3.09169e-10 1.00366e-07)
(2.07962e-07 7.37925e-09 -1.06529e-09)
(3.3195e-08 1.82312e-07 -4.15674e-09)
(-7.53598e-11 -3.04631e-10 9.83648e-08)
(2.04281e-07 1.10682e-08 -1.58748e-09)
(3.32665e-08 1.82352e-07 -4.1833e-09)
(-9.54659e-11 -2.98146e-10 9.63494e-08)
(2.00603e-07 1.47575e-08 -2.0928e-09)
(3.33218e-08 1.82375e-07 -4.19402e-09)
(-1.19767e-10 -2.92275e-10 9.4314e-08)
(1.96927e-07 1.84487e-08 -2.57409e-09)
(3.33619e-08 1.82382e-07 -4.19306e-09)
(-1.47124e-10 -2.87928e-10 9.22602e-08)
(1.93251e-07 2.21442e-08 -3.02562e-09)
(3.33873e-08 1.82375e-07 -4.18442e-09)
(-1.76301e-10 -2.84688e-10 9.01886e-08)
(1.89573e-07 2.58545e-08 -3.44346e-09)
(3.3397e-08 1.8235e-07 -4.17205e-09)
(-2.06006e-10 -2.80736e-10 8.80999e-08)
(1.85893e-07 2.95873e-08 -3.82144e-09)
(3.33898e-08 1.82299e-07 -4.1597e-09)
(-2.32864e-10 -2.7295e-10 8.59884e-08)
(1.82213e-07 3.33482e-08 -4.15369e-09)
(3.33467e-08 1.82212e-07 -4.15361e-09)
(-2.58793e-10 -2.58538e-10 8.38534e-08)
(3.33895e-08 1.82133e-07 -4.1486e-09)
(-2.60687e-10 -2.30291e-10 8.17318e-08)
(1.78579e-07 3.71675e-08 -4.44452e-09)
(2.11705e-07 3.7029e-09 -5.37969e-10)
(-6.9682e-11 -3.61806e-10 9.83063e-08)
(3.68296e-08 1.78684e-07 -4.44108e-09)
(2.08012e-07 7.41642e-09 -1.07012e-09)
(-7.97134e-11 -3.5032e-10 9.62914e-08)
(3.69143e-08 1.78712e-07 -4.48708e-09)
(2.04327e-07 1.11331e-08 -1.59372e-09)
(-9.79199e-11 -3.38168e-10 9.42726e-08)
(3.69837e-08 1.78745e-07 -4.51359e-09)
(2.00648e-07 1.485e-08 -2.10073e-09)
(-1.21548e-10 -3.27015e-10 9.22373e-08)
(3.704e-08 1.78763e-07 -4.525e-09)
(1.96972e-07 1.85646e-08 -2.58409e-09)
(-1.48049e-10 -3.17219e-10 9.0185e-08)
(3.70856e-08 1.78768e-07 -4.52449e-09)
(1.93292e-07 2.22753e-08 -3.03777e-09)
(-1.7534e-10 -3.08306e-10 8.81147e-08)
(3.71219e-08 1.78759e-07 -4.51456e-09)
(1.89599e-07 2.5981e-08 -3.45566e-09)
(-2.00837e-10 -2.98798e-10 8.60223e-08)
(3.71498e-08 1.78734e-07 -4.49713e-09)
(1.85886e-07 2.96817e-08 -3.82944e-09)
(-2.20516e-10 -2.85677e-10 8.38987e-08)
(3.71669e-08 1.78681e-07 -4.47336e-09)
(1.82131e-07 3.33885e-08 -4.14834e-09)
(-2.30283e-10 -2.60322e-10 8.17298e-08)
(3.7166e-08 1.78577e-07 -4.44383e-09)
(-2.19737e-10 -2.19252e-10 7.95532e-08)
(1.78435e-07 3.71444e-08 -4.41094e-09)
(3.7143e-08 1.78434e-07 -4.41072e-09)
(2.1226e-07 3.69738e-09 -4.92564e-10)
(3.69529e-09 2.12253e-07 -4.93536e-10)
(-1.69437e-11 -1.68625e-11 1.1799e-07)
(2.08511e-07 7.37184e-09 -9.54905e-10)
(3.75172e-09 2.12196e-07 -4.90442e-10)
(-4.90848e-11 -1.7709e-11 1.15875e-07)
(2.04751e-07 1.10304e-08 -1.38154e-09)
(3.76316e-09 2.12102e-07 -4.80824e-10)
(-8.00005e-11 -1.94249e-11 1.13718e-07)
(2.00999e-07 1.46888e-08 -1.77732e-09)
(3.75749e-09 2.12021e-07 -4.70409e-10)
(-1.11035e-10 -2.22258e-11 1.11573e-07)
(1.97253e-07 1.83488e-08 -2.14816e-09)
(3.74982e-09 2.11964e-07 -4.61126e-10)
(-1.43489e-10 -2.63071e-11 1.09452e-07)
(1.93517e-07 2.20111e-08 -2.49899e-09)
(3.73989e-09 2.11924e-07 -4.53502e-10)
(-1.78136e-10 -3.18151e-11 1.07348e-07)
(1.89791e-07 2.56754e-08 -2.83402e-09)
(3.7258e-09 2.11892e-07 -4.48264e-10)
(-2.15337e-10 -3.89239e-11 1.05262e-07)
(1.86078e-07 2.93416e-08 -3.15659e-09)
(3.70677e-09 2.11856e-07 -4.46405e-10)
(-2.54434e-10 -4.76446e-11 1.03189e-07)
(1.82381e-07 3.30116e-08 -3.46881e-09)
(3.6815e-09 2.11795e-07 -4.49131e-10)
(-2.93537e-10 -5.73416e-11 1.01126e-07)
(3.69694e-09 2.11697e-07 -4.54455e-10)
(-3.31912e-10 -6.43396e-11 9.90635e-08)
(1.78654e-07 3.67099e-08 -3.77288e-09)
(2.12192e-07 3.74949e-09 -4.89463e-10)
(7.36785e-09 2.08506e-07 -9.5491e-10)
(-1.77576e-11 -4.8972e-11 1.15868e-07)
(2.08492e-07 7.45864e-09 -9.54471e-10)
(7.45443e-09 2.08489e-07 -9.55168e-10)
(-4.9299e-11 -4.91634e-11 1.13794e-07)
(2.04763e-07 1.11283e-08 -1.38824e-09)
(7.49589e-09 2.08435e-07 -9.43679e-10)
(-7.99218e-11 -4.98284e-11 1.11679e-07)
(2.01025e-07 1.4786e-08 -1.79168e-09)
(7.50012e-09 2.08365e-07 -9.27673e-10)
(-1.10701e-10 -5.12603e-11 1.09553e-07)
(1.97291e-07 1.84474e-08 -2.16936e-09)
(7.4875e-09 2.08305e-07 -9.12168e-10)
(-1.42854e-10 -5.36324e-11 1.07439e-07)
(1.93564e-07 2.21127e-08 -2.52628e-09)
(7.4696e-09 2.0826e-07 -8.99497e-10)
(-1.77112e-10 -5.71316e-11 1.05342e-07)
(1.89847e-07 2.57829e-08 -2.86672e-09)
(7.44268e-09 2.08223e-07 -8.91196e-10)
(-2.13753e-10 -6.18128e-11 1.0326e-07)
(1.8614e-07 2.94616e-08 -3.19385e-09)
(7.40719e-09 2.08176e-07 -8.89155e-10)
(-2.51794e-10 -6.72027e-11 1.01189e-07)
(1.82442e-07 3.31503e-08 -3.50944e-09)
(7.36396e-09 2.08103e-07 -8.95218e-10)
(-2.88997e-10 -7.21905e-11 9.91251e-08)
(7.41074e-09 2.07998e-07 -9.04307e-10)
(-3.21362e-10 -7.40241e-11 9.70426e-08)
(1.78699e-07 3.68436e-08 -3.81195e-09)
(2.12093e-07 3.75722e-09 -4.80547e-10)
(1.10287e-08 2.04753e-07 -1.38022e-09)
(-1.94119e-11 -7.99878e-11 1.13712e-07)
(2.08428e-07 7.4919e-09 -9.42905e-10)
(1.11218e-08 2.04758e-07 -1.38754e-09)
(-4.99008e-11 -7.98189e-11 1.11673e-07)
(2.04741e-07 1.11913e-08 -1.3808e-09)
(1.11865e-08 2.04739e-07 -1.38101e-09)
(-7.9902e-11 -7.97507e-11 1.09604e-07)
(2.01029e-07 1.48619e-08 -1.79149e-09)
(1.12161e-08 2.04698e-07 -1.36602e-09)
(-1.10129e-10 -8.0128e-11 1.07511e-07)
(1.9731e-07 1.85259e-08 -2.17634e-09)
(1.12104e-08 2.04643e-07 -1.3486e-09)
(-1.41655e-10 -8.11385e-11 1.05411e-07)
(1.93596e-07 2.21958e-08 -2.53948e-09)
(1.11857e-08 2.04592e-07 -1.3339e-09)
(-1.75234e-10 -8.29544e-11 1.0332e-07)
(1.89888e-07 2.58729e-08 -2.88511e-09)
(1.11492e-08 2.04546e-07 -1.32508e-09)
(-2.10914e-10 -8.56344e-11 1.01242e-07)
(1.86187e-07 2.95601e-08 -3.21587e-09)
(1.11016e-08 2.04487e-07 -1.32458e-09)
(-2.47283e-10 -8.86955e-11 9.91722e-08)
(1.82492e-07 3.3257e-08 -3.53339e-09)
(1.10431e-08 2.04402e-07 -1.33484e-09)
(-2.82147e-10 -9.13053e-11 9.71054e-08)
(1.11288e-08 2.043e-07 -1.34766e-09)
(-3.097e-10 -9.0744e-11 9.5017e-08)
(1.78745e-07 3.69473e-08 -3.83552e-09)
(2.12017e-07 3.75596e-09 -4.70834e-10)
(1.46889e-08 2.01001e-07 -1.77549e-09)
(-2.2186e-11 -1.1111e-10 1.11573e-07)
(2.08357e-07 7.4938e-09 -9.27771e-10)
(1.47835e-08 2.01025e-07 -1.79002e-09)
(-5.12447e-11 -1.10739e-10 1.09549e-07)
(2.04692e-07 1.1212e-08 -1.36567e-09)
(1.48549e-08 2.01025e-07 -1.79051e-09)
(-8.0205e-11 -1.10062e-10 1.07506e-07)
(2.01009e-07 1.49068e-08 -1.78106e-09)
(1.49022e-08 2.01006e-07 -1.78097e-09)
(-1.09617e-10 -1.0949e-10 1.05444e-07)
(1.97306e-07 1.85818e-08 -2.17253e-09)
(1.49169e-08 2.0097e-07 -1.76613e-09)
(-1.40258e-10 -1.09309e-10 1.03364e-07)
(1.93597e-07 2.2255e-08 -2.54173e-09)
(1.48958e-08 2.0092e-07 -1.75189e-09)
(-1.72862e-10 -1.09671e-10 1.01279e-07)
(1.89894e-07 2.59383e-08 -2.89209e-09)
(1.48492e-08 2.00862e-07 -1.74395e-09)
(-2.07398e-10 -1.10699e-10 9.92005e-08)
(1.86197e-07 2.9632e-08 -3.22598e-09)
(1.47901e-08 2.0079e-07 -1.74623e-09)
(-2.42208e-10 -1.12226e-10 9.71284e-08)
(1.82504e-07 3.33342e-08 -3.54513e-09)
(1.47198e-08 2.00693e-07 -1.76145e-09)
(-2.7521e-10 -1.13772e-10 9.50587e-08)
(1.48452e-08 2.00599e-07 -1.77833e-09)
(-2.98152e-10 -1.118e-10 9.29697e-08)
(1.78758e-07 3.7026e-08 -3.84783e-09)
(2.11964e-07 3.75006e-09 -4.61689e-10)
(1.83487e-08 1.97256e-07 -2.14623e-09)
(-2.62806e-11 -1.43587e-10 1.09453e-07)
(2.08302e-07 7.48568e-09 -9.13032e-10)
(1.84469e-08 1.97294e-07 -2.16749e-09)
(-5.35793e-11 -1.42948e-10 1.07439e-07)
(2.04636e-07 1.12045e-08 -1.34908e-09)
(1.85232e-08 1.9731e-07 -2.17465e-09)
(-8.10913e-11 -1.41679e-10 1.05407e-07)
(2.00966e-07 1.49132e-08 -1.76605e-09)
(1.85748e-08 1.973e-07 -2.17144e-09)
(-1.09365e-10 -1.40164e-10 1.03359e-07)
(1.97281e-07 1.86087e-08 -2.16212e-09)
(1.86031e-08 1.97276e-07 -2.16195e-09)
(-1.38947e-10 -1.38805e-10 1.01298e-07)
(1.93578e-07 2.22898e-08 -2.53697e-09)
(1.85984e-08 1.97239e-07 -2.15096e-09)
(-1.70477e-10 -1.37942e-10 9.92246e-08)
(1.8987e-07 2.59735e-08 -2.89175e-09)
(1.85533e-08 1.97176e-07 -2.14467e-09)
(-2.03733e-10 -1.37627e-10 9.71435e-08)
(1.86172e-07 2.96726e-08 -3.22827e-09)
(1.84784e-08 1.97086e-07 -2.14948e-09)
(-2.37272e-10 -1.3781e-10 9.50631e-08)
(1.82477e-07 3.33836e-08 -3.54861e-09)
(1.83949e-08 1.96973e-07 -2.16972e-09)
(-2.68925e-10 -1.38365e-10 9.29879e-08)