/*--------------------------------*- C++ -*----------------------------------*\
| =========                 |                                                 |
| \\      /  F ield         | foam-extend: Open Source CFD                    |
|  \\    /   O peration     | Version:     3.1                                |
|   \\  /    A nd           | Web:         http://www.extend-project.de       |
|    \\/     M anipulation  |                                                 |
\*---------------------------------------------------------------------------*/
FoamFile
{
    version     2.0;
    format      ascii;
    class       surfaceVectorField;
    location    "0.001";
    object      Sf_0;
}
// * * * * * * * * * * * * * * * * * * * * * * * * * * * * * * * * * * * * * //

dimensions      [0 2 0 0 0 0 0];

internalField   nonuniform List<vector> 
45800
(
(2.10418e-07 3.67285e-09 -5.70777e-10)
(3.67244e-09 2.10416e-07 -5.72041e-10)
(-8.41755e-12 -8.37751e-12 1.15696e-07)
(2.06759e-07 7.3421e-09 -1.10818e-09)
(3.68337e-09 2.10422e-07 -5.68805e-10)
(-2.47129e-11 -8.85038e-12 1.13659e-07)
(2.03114e-07 1.101e-08 -1.60675e-09)
(3.68596e-09 2.10439e-07 -5.58536e-10)
(-4.08111e-11 -9.82677e-12 1.11609e-07)
(1.99486e-07 1.46806e-08 -2.07223e-09)
(3.68557e-09 2.10475e-07 -5.47615e-10)
(-5.77723e-11 -1.14575e-11 1.09565e-07)
(1.95878e-07 1.83555e-08 -2.51087e-09)
(3.68519e-09 2.10537e-07 -5.38089e-10)
(-7.66463e-11 -1.39169e-11 1.07528e-07)
(1.92291e-07 2.20363e-08 -2.92685e-09)
(3.68482e-09 2.10625e-07 -5.30426e-10)
(-9.83545e-11 -1.73995e-11 1.05497e-07)
(1.88731e-07 2.57251e-08 -3.32219e-09)
(3.68421e-09 2.10742e-07 -5.25264e-10)
(-1.23808e-10 -2.21796e-11 1.0347e-07)
(1.85201e-07 2.94243e-08 -3.69627e-09)
(3.68333e-09 2.10891e-07 -5.23448e-10)
(-1.53616e-10 -2.85187e-11 1.01447e-07)
(1.81707e-07 3.31374e-08 -4.04504e-09)
(3.68209e-09 2.11074e-07 -5.25923e-10)
(-1.87984e-10 -3.63787e-11 9.94232e-08)
(3.69004e-09 2.11294e-07 -5.28841e-10)
(-2.28341e-10 -4.36736e-11 9.73949e-08)
(1.78245e-07 3.68733e-08 -4.36321e-09)
(2.10422e-07 3.68294e-09 -5.67549e-10)
(7.34132e-09 2.06758e-07 -1.10844e-09)
(-8.87429e-12 -2.46595e-11 1.13657e-07)
(2.06772e-07 7.35892e-09 -1.10821e-09)
(7.35809e-09 2.06771e-07 -1.1093e-09)
(-2.49497e-11 -2.48837e-11 1.11633e-07)
(2.03132e-07 1.1029e-08 -1.61514e-09)
(7.36689e-09 2.06794e-07 -1.0974e-09)
(-4.09651e-11 -2.54924e-11 1.09597e-07)
(1.99506e-07 1.46996e-08 -2.0895e-09)
(7.36913e-09 2.06831e-07 -1.08085e-09)
(-5.78535e-11 -2.6661e-11 1.07559e-07)
(1.95899e-07 1.83749e-08 -2.53593e-09)
(7.36887e-09 2.0689e-07 -1.06515e-09)
(-7.66221e-11 -2.85397e-11 1.05524e-07)
(1.92314e-07 2.20566e-08 -2.95863e-09)
(7.36849e-09 2.06975e-07 -1.05258e-09)
(-9.81594e-11 -3.13309e-11 1.03495e-07)
(1.88754e-07 2.57468e-08 -3.35974e-09)
(7.36746e-09 2.07087e-07 -1.04455e-09)
(-1.23304e-10 -3.52103e-11 1.0147e-07)
(1.85223e-07 2.94488e-08 -3.73851e-09)
(7.36613e-09 2.07229e-07 -1.04264e-09)
(-1.52419e-10 -4.00901e-11 9.94465e-08)
(1.81726e-07 3.31655e-08 -4.09078e-09)
(7.36496e-09 2.07403e-07 -1.04806e-09)
(-1.8537e-10 -4.55013e-11 9.74223e-08)
(7.38372e-09 2.0761e-07 -1.05191e-09)
(-2.21063e-10 -4.97765e-11 9.53875e-08)
(1.78253e-07 3.68992e-08 -4.4079e-09)
(2.10437e-07 3.68481e-09 -5.58098e-10)
(1.10097e-08 2.03114e-07 -1.60554e-09)
(-9.81958e-12 -4.0809e-11 1.11607e-07)
(2.06793e-07 7.36612e-09 -1.09625e-09)
(1.10277e-08 2.03131e-07 -1.61473e-09)
(-2.55271e-11 -4.09171e-11 1.09595e-07)
(2.0316e-07 1.10424e-08 -1.60814e-09)
(1.10414e-08 2.03159e-07 -1.60885e-09)
(-4.13631e-11 -4.12887e-11 1.07574e-07)
(1.99537e-07 1.47159e-08 -2.09092e-09)
(1.10493e-08 2.032e-07 -1.59383e-09)
(-5.8088e-11 -4.21245e-11 1.05546e-07)
(1.95932e-07 1.83922e-08 -2.5454e-09)
(1.10515e-08 2.03257e-07 -1.57645e-09)
(-7.66395e-11 -4.35755e-11 1.03516e-07)
(1.92347e-07 2.20752e-08 -2.97471e-09)
(1.10512e-08 2.03338e-07 -1.56207e-09)
(-9.79078e-11 -4.58265e-11 1.01488e-07)
(1.88786e-07 2.57673e-08 -3.38094e-09)
(1.10504e-08 2.03444e-07 -1.55366e-09)
(-1.22565e-10 -4.90465e-11 9.94639e-08)
(1.85254e-07 2.94712e-08 -3.76288e-09)
(1.10493e-08 2.03579e-07 -1.55317e-09)
(-1.50651e-10 -5.31294e-11 9.74404e-08)
(1.81752e-07 3.31896e-08 -4.11652e-09)
(1.10486e-08 2.03742e-07 -1.56211e-09)
(-1.81909e-10 -5.77707e-11 9.5415e-08)
(1.10794e-08 2.03939e-07 -1.56651e-09)
(-2.13721e-10 -6.12988e-11 9.33782e-08)
(1.7827e-07 3.69217e-08 -4.43338e-09)
(2.10475e-07 3.68527e-09 -5.47942e-10)
(1.46806e-08 1.99487e-07 -2.07048e-09)
(-1.14366e-11 -5.78128e-11 1.09564e-07)
(2.0683e-07 7.36791e-09 -1.08069e-09)
(1.46991e-08 1.99506e-07 -2.08801e-09)
(-2.66507e-11 -5.78763e-11 1.07557e-07)
(2.03199e-07 1.10485e-08 -1.593e-09)
(1.47145e-08 1.99536e-07 -2.09035e-09)
(-4.2161e-11 -5.8057e-11 1.05544e-07)
(1.9958e-07 1.47275e-08 -2.08108e-09)
(1.47265e-08 1.9958e-07 -2.08164e-09)
(-5.86569e-11 -5.85918e-11 1.03526e-07)
(1.95975e-07 1.84066e-08 -2.5428e-09)
(1.47337e-08 1.99638e-07 -2.0671e-09)
(-7.69231e-11 -5.96911e-11 1.01501e-07)
(1.92389e-07 2.2091e-08 -2.97833e-09)
(1.47357e-08 1.99715e-07 -2.05308e-09)
(-9.78376e-11 -6.153e-11 9.94751e-08)
(1.88826e-07 2.5785e-08 -3.38876e-09)
(1.47348e-08 1.99815e-07 -2.0453e-09)
(-1.22004e-10 -6.43195e-11 9.745e-08)
(1.85291e-07 2.94907e-08 -3.77274e-09)
(1.4734e-08 1.99941e-07 -2.04702e-09)
(-1.49257e-10 -6.81653e-11 9.54251e-08)
(1.81784e-07 3.32105e-08 -4.12666e-09)
(1.47343e-08 2.00095e-07 -2.05968e-09)
(-1.79307e-10 -7.3028e-11 9.33982e-08)
(1.47771e-08 2.00284e-07 -2.06452e-09)
(-2.07576e-10 -7.66828e-11 9.13609e-08)
(1.78294e-07 3.69424e-08 -4.44342e-09)
(2.10537e-07 3.68523e-09 -5.38549e-10)
(1.83555e-08 1.95878e-07 -2.50904e-09)
(-1.39031e-11 -7.66969e-11 1.07528e-07)
(2.0689e-07 7.36851e-09 -1.0658e-09)
(1.83748e-08 1.959e-07 -2.53421e-09)
(-2.85104e-11 -7.66722e-11 1.05524e-07)
(2.03256e-07 1.10503e-08 -1.57655e-09)
(1.83916e-08 1.95931e-07 -2.54403e-09)
(-4.35462e-11 -7.6655e-11 1.03514e-07)
(1.99637e-07 1.4733e-08 -2.06638e-09)
(1.84052e-08 1.95974e-07 -2.54232e-09)
(-5.97186e-11 -7.68755e-11 1.015e-07)
(1.96032e-07 1.84172e-08 -2.53261e-09)
(1.8416e-08 1.96031e-07 -2.53331e-09)
(-7.76939e-11 -7.76166e-11 9.9481e-08)
(1.92444e-07 2.21042e-08 -2.97346e-09)
(1.84227e-08 1.96107e-07 -2.52199e-09)
(-9.82954e-11 -7.91755e-11 9.74577e-08)
(1.88877e-07 2.57991e-08 -3.3874e-09)
(1.8424e-08 1.96201e-07 -2.51481e-09)
(-1.22012e-10 -8.1734e-11 9.54308e-08)
(1.85337e-07 2.95069e-08 -3.77223e-09)
(1.84227e-08 1.96319e-07 -2.51773e-09)
(-1.4879e-10 -8.55033e-11 9.34022e-08)
(1.81826e-07 3.32292e-08 -4.12501e-09)
(1.84236e-08 1.96464e-07 -2.53337e-09)
(-1.78221e-10 -9.07248e-11 9.13726e-08)
(1.84772e-08 1.96645e-07 -2.53856e-09)
(-2.02931e-10 -9.44256e-11 8.93352e-08)
(1.78328e-07 3.69628e-08 -4.44069e-09)
(2.10625e-07 3.68486e-09 -5.30842e-10)
(2.20363e-08 1.92292e-07 -2.92504e-09)
(-1.73904e-11 -9.83939e-11 1.05497e-07)
(2.06975e-07 7.36856e-09 -1.05338e-09)
(2.20565e-08 1.92314e-07 -2.95695e-09)
(-3.12977e-11 -9.81983e-11 1.03495e-07)
(2.03337e-07 1.10509e-08 -1.56292e-09)
(2.20751e-08 1.92347e-07 -2.9732e-09)
(-4.57694e-11 -9.79444e-11 1.01488e-07)
(1.99713e-07 1.47343e-08 -2.05333e-09)
(2.20904e-08 1.92388e-07 -2.97721e-09)
(-6.15137e-11 -9.78614e-11 9.94738e-08)
(1.96106e-07 1.84218e-08 -2.52111e-09)
(2.21025e-08 1.92442e-07 -2.97336e-09)
(-7.91984e-11 -9.82541e-11 9.74558e-08)
(1.92516e-07 2.2114e-08 -2.96472e-09)
(2.21124e-08 1.92514e-07 -2.96604e-09)
(-9.95368e-11 -9.94505e-11 9.5435e-08)
(1.88944e-07 2.58118e-08 -3.38118e-09)
(2.21189e-08 1.92605e-07 -2.96005e-09)
(-1.22895e-10 -1.0172e-10 9.34084e-08)
(1.85397e-07 2.95208e-08 -3.7658e-09)
(2.21192e-08 1.92715e-07 -2.96217e-09)
(-1.49373e-10 -1.05327e-10 9.13752e-08)
(1.81879e-07 3.32464e-08 -4.11508e-09)
(2.21198e-08 1.92848e-07 -2.97776e-09)
(-1.78415e-10 -1.10396e-10 8.93392e-08)
(2.21807e-08 1.9302e-07 -2.98213e-09)
(-1.99485e-10 -1.13379e-10 8.73006e-08)
(1.78375e-07 3.69839e-08 -4.42715e-09)
(2.10743e-07 3.68424e-09 -5.25646e-10)
(2.57251e-08 1.88731e-07 -3.32055e-09)
(-2.21705e-11 -1.2384e-10 1.03471e-07)
(2.07087e-07 7.36751e-09 -1.04529e-09)
(2.57468e-08 1.88754e-07 -3.35821e-09)
(-3.51749e-11 -1.23334e-10 1.0147e-07)
(2.03444e-07 1.10504e-08 -1.55472e-09)
(2.57672e-08 1.88787e-07 -3.37954e-09)
(-4.89895e-11 -1.22592e-10 9.94643e-08)
(1.99814e-07 1.47342e-08 -2.04649e-09)
(2.57849e-08 1.88827e-07 -3.3875e-09)
(-6.42782e-11 -1.22019e-10 9.745e-08)
(1.962e-07 1.8422e-08 -2.51519e-09)
(2.57986e-08 1.88876e-07 -3.38642e-09)
(-8.16652e-11 -1.21977e-10 9.54291e-08)
(1.92604e-07 2.21176e-08 -2.95851e-09)
(2.58097e-08 1.88941e-07 -3.38119e-09)
(-1.01663e-10 -1.227e-10 9.34052e-08)
(1.89028e-07 2.58209e-08 -3.37467e-09)
(2.58195e-08 1.89027e-07 -3.3761e-09)
(-1.24746e-10 -1.24473e-10 9.13783e-08)
(1.85473e-07 2.95339e-08 -3.75716e-09)
(2.58251e-08 1.89129e-07 -3.37611e-09)
(-1.5052e-10 -1.27181e-10 8.93419e-08)
(1.81944e-07 3.32632e-08 -4.09972e-09)
(2.58272e-08 1.8925e-07 -3.38721e-09)
(-1.7873e-10 -1.30677e-10 8.72969e-08)
(2.58883e-08 1.89409e-07 -3.38809e-09)
(-1.96432e-10 -1.3174e-10 8.52546e-08)
(1.78433e-07 3.70063e-08 -4.40409e-09)
(2.10892e-07 3.68338e-09 -5.23795e-10)
(2.94243e-08 1.85201e-07 -3.69492e-09)
(-2.8508e-11 -1.53647e-10 1.01447e-07)
(2.0723e-07 7.36623e-09 -1.04331e-09)
(2.94487e-08 1.85224e-07 -3.73724e-09)
(-4.00486e-11 -1.52444e-10 9.94471e-08)
(2.03579e-07 1.10495e-08 -1.55415e-09)
(2.94712e-08 1.85254e-07 -3.76168e-09)
(-5.30609e-11 -1.50661e-10 9.74409e-08)
(1.99941e-07 1.47343e-08 -2.04835e-09)
(2.94908e-08 1.85291e-07 -3.77155e-09)
(-6.8079e-11 -1.49229e-10 9.54256e-08)
(1.96318e-07 1.84224e-08 -2.51911e-09)
(2.95071e-08 1.85337e-07 -3.77093e-09)
(-8.53616e-11 -1.48702e-10 9.3402e-08)
(1.92712e-07 2.21174e-08 -2.96185e-09)
(2.95204e-08 1.85395e-07 -3.76441e-09)
(-1.05005e-10 -1.4911e-10 9.13721e-08)
(1.89127e-07 2.58238e-08 -3.37445e-09)
(2.9532e-08 1.8547e-07 -3.75648e-09)
(-1.27321e-10 -1.5009e-10 8.93385e-08)
(1.85561e-07 2.95434e-08 -3.75033e-09)
(2.95423e-08 1.8556e-07 -3.75086e-09)
(-1.51051e-10 -1.50583e-10 8.72955e-08)
(1.82019e-07 3.32781e-08 -4.08168e-09)
(2.95469e-08 1.85666e-07 -3.75296e-09)
(-1.77419e-10 -1.50612e-10 8.52414e-08)
(2.96008e-08 1.85806e-07 -3.7475e-09)
(-1.91896e-10 -1.47577e-10 8.31938e-08)
(1.78498e-07 3.70292e-08 -4.37234e-09)
(2.11074e-07 3.68216e-09 -5.26219e-10)
(3.31374e-08 1.81707e-07 -4.04408e-09)
(-3.63663e-11 -1.88013e-10 9.94239e-08)
(2.07403e-07 7.3651e-09 -1.04862e-09)
(3.31655e-08 1.81726e-07 -4.08987e-09)
(-4.54546e-11 -1.85396e-10 9.74229e-08)
(2.03742e-07 1.10488e-08 -1.5629e-09)
(3.31897e-08 1.81752e-07 -4.11564e-09)
(-5.76895e-11 -1.81927e-10 9.54156e-08)
(2.00095e-07 1.47347e-08 -2.06067e-09)
(3.32106e-08 1.81784e-07 -4.12575e-09)
(-7.29116e-11 -1.79311e-10 9.33987e-08)
(1.96464e-07 1.84244e-08 -2.53451e-09)
(3.32294e-08 1.81826e-07 -4.12396e-09)
(-9.05551e-11 -1.78202e-10 9.1373e-08)
(1.92848e-07 2.21198e-08 -2.97818e-09)
(3.32466e-08 1.81878e-07 -4.11375e-09)
(-1.10041e-10 -1.78411e-10 8.93385e-08)
(1.89248e-07 2.58257e-08 -3.38662e-09)
(3.32625e-08 1.81943e-07 -4.09847e-09)
(-1.308e-10 -1.78827e-10 8.72953e-08)
(1.85665e-07 2.95459e-08 -3.75228e-09)
(3.32768e-08 1.82018e-07 -4.08121e-09)
(-1.50997e-10 -1.77415e-10 8.52403e-08)
(1.821e-07 3.32842e-08 -4.06708e-09)
(3.32837e-08 1.821e-07 -4.06735e-09)
(-1.72367e-10 -1.72195e-10 8.31729e-08)
(3.33215e-08 1.82198e-07 -4.04902e-09)
(-1.79347e-10 -1.57847e-10 8.11105e-08)
(1.78559e-07 3.70492e-08 -4.33294e-09)
(2.11294e-07 3.69011e-09 -5.29074e-10)
(-4.36583e-11 -2.28346e-10 9.73955e-08)
(3.68733e-08 1.78246e-07 -4.3626e-09)
(2.0761e-07 7.38387e-09 -1.05234e-09)
(-4.97287e-11 -2.21071e-10 9.5388e-08)
(3.68992e-08 1.78254e-07 -4.40733e-09)
(2.03939e-07 1.10796e-08 -1.5671e-09)
(-6.12201e-11 -2.13735e-10 9.33787e-08)
(3.69218e-08 1.7827e-07 -4.43282e-09)
(2.00284e-07 1.47774e-08 -2.06519e-09)
(-7.65813e-11 -2.07608e-10 9.13613e-08)
(3.69425e-08 1.78294e-07 -4.44283e-09)
(1.96645e-07 1.84775e-08 -2.53921e-09)
(-9.43026e-11 -2.03009e-10 8.93356e-08)
(3.69629e-08 1.78328e-07 -4.44004e-09)
(1.93021e-07 2.21807e-08 -2.98256e-09)
(-1.13222e-10 -1.99686e-10 8.73009e-08)
(3.69839e-08 1.78375e-07 -4.42642e-09)
(1.89409e-07 2.58879e-08 -3.38834e-09)
(-1.31849e-10 -1.96706e-10 8.5255e-08)
(3.70062e-08 1.78433e-07 -4.40337e-09)
(1.85805e-07 2.96e-08 -3.74745e-09)
(-1.47673e-10 -1.91965e-10 8.31934e-08)
(3.70288e-08 1.78497e-07 -4.37176e-09)
(1.82197e-07 3.33211e-08 -4.04861e-09)
(-1.57836e-10 -1.79091e-10 8.11095e-08)
(3.70486e-08 1.78558e-07 -4.3326e-09)
(-1.54722e-10 -1.54381e-10 7.90219e-08)
(1.78611e-07 3.70632e-08 -4.28852e-09)
(3.70627e-08 1.78611e-07 -4.28853e-09)
(2.11293e-07 3.68429e-09 -5.21883e-10)
(3.6831e-09 2.11289e-07 -5.22998e-10)
(-1.37044e-11 -1.3641e-11 1.16741e-07)
(2.07594e-07 7.35612e-09 -1.01302e-09)
(3.71437e-09 2.11269e-07 -5.2006e-10)
(-3.99662e-11 -1.43846e-11 1.1467e-07)
(2.03899e-07 1.102e-08 -1.46842e-09)
(3.72055e-09 2.1124e-07 -5.10574e-10)
(-6.57393e-11 -1.59107e-11 1.12575e-07)
(2.00216e-07 1.46853e-08 -1.89359e-09)
(3.7173e-09 2.1123e-07 -5.00497e-10)
(-9.24964e-11 -1.84399e-11 1.1049e-07)
(1.96548e-07 1.83539e-08 -2.29475e-09)
(3.71321e-09 2.11246e-07 -4.91773e-10)
(-1.21699e-10 -2.22108e-11 1.08421e-07)
(1.92896e-07 2.20269e-08 -2.67657e-09)
(3.70815e-09 2.11285e-07 -4.84893e-10)
(-1.5449e-10 -2.74639e-11 1.06363e-07)
(1.89263e-07 2.57053e-08 -3.04238e-09)
(3.70108e-09 2.11344e-07 -4.80537e-10)
(-1.91819e-10 -3.45205e-11 1.04317e-07)
(1.85652e-07 2.93902e-08 -3.39378e-09)
(3.69164e-09 2.11416e-07 -4.79638e-10)
(-2.33925e-10 -4.36199e-11 1.02278e-07)
(1.82065e-07 3.30841e-08 -3.73027e-09)
(3.67918e-09 2.11491e-07 -4.83302e-10)
(-2.801e-10 -5.44643e-11 1.00243e-07)
(3.69109e-09 2.11561e-07 -4.88717e-10)
(-3.30956e-10 -6.3719e-11 9.82045e-08)
(1.78476e-07 3.68033e-08 -4.05109e-09)
(2.11267e-07 3.71311e-09 -5.18945e-10)
(7.35385e-09 2.07592e-07 -1.01319e-09)
(-1.44217e-11 -3.98816e-11 1.14666e-07)
(2.07595e-07 7.40399e-09 -1.01314e-09)
(7.40158e-09 2.07594e-07 -1.01405e-09)
(-4.02885e-11 -4.01842e-11 1.12621e-07)
(2.03916e-07 1.10737e-08 -1.47628e-09)
(7.42449e-09 2.07586e-07 -1.0031e-09)
(-6.58967e-11 -4.10333e-11 1.10553e-07)
(2.00241e-07 1.47384e-08 -1.90968e-09)
(7.42685e-09 2.07581e-07 -9.87869e-10)
(-9.25067e-11 -4.26951e-11 1.08479e-07)
(1.96579e-07 1.84078e-08 -2.31812e-09)
(7.42018e-09 2.07593e-07 -9.73523e-10)
(-1.21511e-10 -4.53723e-11 1.06414e-07)
(1.92932e-07 2.20828e-08 -2.70632e-09)
(7.41112e-09 2.07628e-07 -9.62338e-10)
(-1.54005e-10 -4.93209e-11 1.0436e-07)
(1.89303e-07 2.5765e-08 -3.0777e-09)
(7.39765e-09 2.07681e-07 -9.55784e-10)
(-1.90842e-10 -5.47194e-11 1.02316e-07)
(1.85694e-07 2.94579e-08 -3.43372e-09)
(7.38018e-09 2.07744e-07 -9.55614e-10)
(-2.31916e-10 -6.13015e-11 1.00278e-07)
(1.82105e-07 3.31634e-08 -3.77361e-09)
(7.35942e-09 2.07808e-07 -9.63419e-10)
(-2.76084e-10 -6.81952e-11 9.82423e-08)
(7.39235e-09 2.07868e-07 -9.72393e-10)
(-3.20478e-10 -7.27966e-11 9.61905e-08)
(1.78503e-07 3.68795e-08 -4.09289e-09)
(2.11235e-07 3.71719e-09 -5.10203e-10)
(1.1019e-08 2.03899e-07 -1.46724e-09)
(-1.58978e-11 -6.57372e-11 1.12572e-07)
(2.07582e-07 7.42225e-09 -1.00211e-09)
(1.107e-08 2.03914e-07 -1.47579e-09)
(-4.10866e-11 -6.58209e-11 1.10549e-07)
(2.03926e-07 1.11086e-08 -1.46991e-09)
(1.11058e-08 2.03924e-07 -1.47042e-09)
(-6.6337e-11 -6.62199e-11 1.08509e-07)
(2.00265e-07 1.47806e-08 -1.91116e-09)
(1.11226e-08 2.03934e-07 -1.45674e-09)
(-9.26188e-11 -6.72396e-11 1.06456e-07)
(1.96609e-07 1.84516e-08 -2.32718e-09)
(1.11202e-08 2.03948e-07 -1.44103e-09)
(-1.21209e-10 -6.90836e-11 1.04399e-07)
(1.92968e-07 2.21295e-08 -2.72176e-09)
(1.11077e-08 2.03976e-07 -1.42847e-09)
(-1.5321e-10 -7.19804e-11 1.02349e-07)
(1.89343e-07 2.58162e-08 -3.09824e-09)
(1.10896e-08 2.04022e-07 -1.42212e-09)
(-1.89235e-10 -7.60972e-11 1.00307e-07)
(1.85734e-07 2.95144e-08 -3.45758e-09)
(1.10665e-08 2.04074e-07 -1.42419e-09)
(-2.28726e-10 -8.11382e-11 9.82683e-08)
(1.82143e-07 3.32252e-08 -3.799e-09)
(1.10389e-08 2.04126e-07 -1.43676e-09)
(-2.7045e-10 -8.64746e-11 9.62298e-08)
(1.10971e-08 2.04181e-07 -1.44899e-09)
(-3.0951e-10 -8.94973e-11 9.41734e-08)
(1.78534e-07 3.69397e-08 -4.11768e-09)
(2.11227e-07 3.71643e-09 -5.00844e-10)
(1.46854e-08 2.00218e-07 -1.89191e-09)
(-1.84055e-11 -9.25638e-11 1.1049e-07)
(2.07577e-07 7.42327e-09 -9.87793e-10)
(1.4737e-08 2.00241e-07 -1.90821e-09)
(-4.26765e-11 -9.25449e-11 1.08476e-07)
(2.03931e-07 1.11203e-08 -1.45609e-09)
(1.47766e-08 2.00262e-07 -1.91047e-09)
(-6.72956e-11 -9.25709e-11 1.06452e-07)
(2.00284e-07 1.48062e-08 -1.90248e-09)
(1.48035e-08 2.00283e-07 -1.9028e-09)
(-9.3103e-11 -9.30023e-11 1.04418e-07)
(1.96636e-07 1.84836e-08 -2.32547e-09)
(1.48129e-08 2.00305e-07 -1.89006e-09)
(-1.21127e-10 -9.41294e-11 1.02373e-07)
(1.92995e-07 2.21638e-08 -2.72618e-09)
(1.48031e-08 2.00331e-07 -1.87832e-09)
(-1.52448e-10 -9.61586e-11 1.00326e-07)
(1.8937e-07 2.58545e-08 -3.10708e-09)
(1.47801e-08 2.00366e-07 -1.87324e-09)
(-1.87584e-10 -9.93121e-11 9.8282e-08)
(1.85762e-07 2.9557e-08 -3.46895e-09)
(1.47516e-08 2.00407e-07 -1.87847e-09)
(-2.25696e-10 -1.03594e-10 9.62413e-08)
(1.82168e-07 3.32712e-08 -3.81124e-09)
(1.4719e-08 2.00448e-07 -1.89621e-09)
(-2.65564e-10 -1.08734e-10 9.41999e-08)
(1.48029e-08 2.005e-07 -1.91168e-09)
(-2.9962e-10 -1.11297e-10 9.21422e-08)
(1.78554e-07 3.69868e-08 -4.1299e-09)
(2.11246e-07 3.71334e-09 -4.92252e-10)
(1.83538e-08 1.96549e-07 -2.29298e-09)
(-2.21879e-11 -1.21783e-10 1.08421e-07)
(2.07592e-07 7.41914e-09 -9.7422e-10)
(1.84075e-08 1.96581e-07 -2.31644e-09)
(-4.53237e-11 -1.21594e-10 1.06414e-07)
(2.03944e-07 1.11168e-08 -1.44124e-09)
(1.845e-08 1.96609e-07 -2.32576e-09)
(-6.90351e-11 -1.21235e-10 1.04396e-07)
(2.00302e-07 1.48109e-08 -1.88958e-09)
(1.84796e-08 1.96633e-07 -2.32479e-09)
(-9.417e-11 -1.21053e-10 1.0237e-07)
(1.96662e-07 1.85004e-08 -2.31727e-09)
(1.84971e-08 1.96659e-07 -2.31763e-09)
(-1.21561e-10 -1.21443e-10 1.00336e-07)
(1.93022e-07 2.21855e-08 -2.72352e-09)
(1.84972e-08 1.96689e-07 -2.30913e-09)
(-1.52201e-10 -1.22787e-10 9.82947e-08)
(1.8939e-07 2.58769e-08 -3.1084e-09)
(1.84759e-08 1.96718e-07 -2.30559e-09)
(-1.86426e-10 -1.25246e-10 9.6248e-08)
(1.85777e-07 2.95831e-08 -3.472e-09)
(1.84396e-08 1.96744e-07 -2.31324e-09)
(-2.2357e-10 -1.28954e-10 9.42006e-08)
(1.82179e-07 3.33031e-08 -3.8143e-09)
(1.8401e-08 1.96771e-07 -2.3357e-09)
(-2.6227e-10 -1.3401e-10 9.21544e-08)
(1.85077e-08 1.96821e-07 -2.35454e-09)
(-2.91124e-10 -1.35904e-10 9.00964e-08)
(1.78563e-07 3.70238e-08 -4.13263e-09)
(2.11285e-07 3.70825e-09 -4.85332e-10)
(2.20268e-08 1.92897e-07 -2.67483e-09)
(-2.74487e-11 -1.54554e-10 1.06364e-07)
(2.07628e-07 7.41132e-09 -9.63187e-10)
(2.20825e-08 1.92933e-07 -2.70467e-09)
(-4.92661e-11 -1.54069e-10 1.04361e-07)
(2.03975e-07 1.11066e-08 -1.42941e-09)
(2.21291e-08 1.92969e-07 -2.72021e-09)
(-7.18883e-11 -1.53269e-10 1.02349e-07)
(2.00327e-07 1.4799e-08 -1.87872e-09)
(2.2162e-08 1.92995e-07 -2.72492e-09)
(-9.61313e-11 -1.52485e-10 1.00323e-07)
(1.96687e-07 1.84947e-08 -2.30857e-09)
(2.21806e-08 1.93017e-07 -2.72308e-09)
(-1.22822e-10 -1.52139e-10 9.82911e-08)
(1.93051e-07 2.21917e-08 -2.71836e-09)
(2.2187e-08 1.93046e-07 -2.71918e-09)
(-1.52775e-10 -1.52647e-10 9.62548e-08)
(1.89414e-07 2.5888e-08 -3.10669e-09)
(2.21763e-08 1.93074e-07 -2.7181e-09)
(-1.8613e-10 -1.54282e-10 9.42092e-08)
(1.85788e-07 2.95948e-08 -3.47137e-09)
(2.21383e-08 1.93089e-07 -2.7267e-09)
(-2.22443e-10 -1.57237e-10 9.21533e-08)
(1.82179e-07 3.33214e-08 -3.81195e-09)
(2.20912e-08 1.93095e-07 -2.75133e-09)
(-2.6012e-10 -1.61394e-10 9.00954e-08)
(2.22108e-08 1.93138e-07 -2.77257e-09)
(-2.83498e-10 -1.61463e-10 8.80348e-08)
(1.7856e-07 3.70526e-08 -4.1282e-09)
(2.11344e-07 3.70117e-09 -4.80945e-10)
(2.57053e-08 1.89264e-07 -3.04078e-09)
(-3.45052e-11 -1.9187e-10 1.04318e-07)
(2.07681e-07 7.39778e-09 -9.56579e-10)
(2.57648e-08 1.89304e-07 -3.07618e-09)
(-5.46615e-11 -1.90889e-10 1.02317e-07)
(2.04022e-07 1.10896e-08 -1.42325e-09)
(2.5816e-08 1.89344e-07 -3.09678e-09)
(-7.6006e-11 -1.89278e-10 1.00308e-07)
(2.00364e-07 1.47784e-08 -1.87455e-09)
(2.58543e-08 1.89372e-07 -3.10569e-09)
(-9.92475e-11 -1.8761e-10 9.82821e-08)
(1.96713e-07 1.84703e-08 -2.30613e-09)
(2.58756e-08 1.8939e-07 -3.10717e-09)
(-1.25143e-10 -1.86372e-10 9.62447e-08)
(1.9307e-07 2.21726e-08 -2.71694e-09)
(2.5882e-08 1.89406e-07 -3.10621e-09)
(-1.54196e-10 -1.85841e-10 9.4203e-08)
(1.89432e-07 2.58806e-08 -3.10664e-09)
(2.58766e-08 1.89428e-07 -3.10749e-09)
(-1.86703e-10 -1.86307e-10 9.21574e-08)
(1.85793e-07 2.95949e-08 -3.47107e-09)
(2.58487e-08 1.89435e-07 -3.11621e-09)
(-2.21494e-10 -1.87402e-10 9.00959e-08)
(1.82164e-07 3.33289e-08 -3.80728e-09)
(2.57987e-08 1.89419e-07 -3.13913e-09)
(-2.57347e-10 -1.88589e-10 8.80209e-08)
(2.59111e-08 1.89446e-07 -3.16012e-09)
(-2.75542e-10 -1.85157e-10 8.59531e-08)
(1.78543e-07 3.70747e-08 -4.11819e-09)
(2.11417e-07 3.69177e-09 -4.80014e-10)
(2.93902e-08 1.85653e-07 -3.39245e-09)
(-4.36017e-11 -2.33972e-10 1.02279e-07)
(2.07745e-07 7.38047e-09 -9.56349e-10)
(2.94578e-08 1.85695e-07 -3.43243e-09)
(-6.12343e-11 -2.31953e-10 1.0028e-07)
(2.04074e-07 1.1067e-08 -1.42527e-09)
(2.95145e-08 1.85735e-07 -3.45629e-09)
(-8.10302e-11 -2.2874e-10 9.82693e-08)
(2.00407e-07 1.47525e-08 -1.87993e-09)
(2.95573e-08 1.85763e-07 -3.4676e-09)
(-1.03462e-10 -2.25654e-10 9.62421e-08)
(1.96742e-07 1.84388e-08 -2.31476e-09)
(2.9584e-08 1.85778e-07 -3.47047e-09)
(-1.28743e-10 -2.23437e-10 9.42001e-08)
(1.93081e-07 2.21333e-08 -2.72659e-09)
(2.9594e-08 1.85785e-07 -3.46962e-09)
(-1.56764e-10 -2.22049e-10 9.21473e-08)
(1.89429e-07 2.58452e-08 -3.11494e-09)
(2.95897e-08 1.85787e-07 -3.46988e-09)
(-1.87598e-10 -2.20857e-10 9.00892e-08)
(1.85774e-07 2.95742e-08 -3.47536e-09)
(2.95712e-08 1.85774e-07 -3.4754e-09)
(-2.18865e-10 -2.18182e-10 8.80151e-08)
(1.82124e-07 3.33207e-08 -3.80325e-09)
(2.9523e-08 1.85736e-07 -3.49233e-09)
(-2.5143e-10 -2.13811e-10 8.59225e-08)
(2.96088e-08 1.85734e-07 -3.50972e-09)
(-2.64723e-10 -2.04097e-10 8.38435e-08)
(1.78499e-07 3.70884e-08 -4.10339e-09)
(2.11492e-07 3.67936e-09 -4.83635e-10)
(3.30841e-08 1.82065e-07 -3.72927e-09)
(-5.44435e-11 -2.80142e-10 1.00244e-07)
(2.07809e-07 7.3598e-09 -9.64059e-10)
(3.31634e-08 1.82105e-07 -3.77262e-09)
(-6.81207e-11 -2.76122e-10 9.82436e-08)
(2.04127e-07 1.10396e-08 -1.43768e-09)
(3.32254e-08 1.82144e-07 -3.79798e-09)
(-8.63479e-11 -2.70477e-10 9.62309e-08)
(2.00448e-07 1.47202e-08 -1.89736e-09)
(3.32716e-08 1.82168e-07 -3.8101e-09)
(-1.08557e-10 -2.6557e-10 9.42009e-08)
(1.96772e-07 1.84032e-08 -2.33706e-09)
(3.33037e-08 1.82179e-07 -3.81298e-09)
(-1.33758e-10 -2.62242e-10 9.21552e-08)
(1.93094e-07 2.20912e-08 -2.75199e-09)
(3.33224e-08 1.82178e-07 -3.8103e-09)
(-1.60874e-10 -2.60109e-10 9.00941e-08)
(1.89415e-07 2.57943e-08 -3.13881e-09)
(3.3327e-08 1.82162e-07 -3.80566e-09)
(-1.88769e-10 -2.5748e-10 8.80179e-08)
(1.85733e-07 2.95203e-08 -3.49196e-09)
(3.3317e-08 1.82122e-07 -3.80236e-09)
(-2.14383e-10 -2.51429e-10 8.59204e-08)
(1.82049e-07 3.32753e-08 -3.80609e-09)
(3.32738e-08 1.82048e-07 -3.80599e-09)
(-2.39522e-10 -2.39284e-10 8.38007e-08)
(3.33142e-08 1.81978e-07 -3.811e-09)
(-2.4263e-10 -2.14188e-10 8.16895e-08)
(1.78407e-07 3.70879e-08 -4.08388e-09)
(2.11562e-07 3.6913e-09 -4.88994e-10)
(-6.36938e-11 -3.30961e-10 9.82056e-08)
(3.68033e-08 1.78477e-07 -4.0504e-09)
(2.07869e-07 7.39277e-09 -9.72914e-10)
(-7.27204e-11 -3.20487e-10 9.61915e-08)
(3.68796e-08 1.78503e-07 -4.09221e-09)
(2.04182e-07 1.10978e-08 -1.4497e-09)
(-8.93753e-11 -3.09529e-10 9.41744e-08)
(3.69399e-08 1.78535e-07 -4.11695e-09)
(2.00501e-07 1.48037e-08 -1.91253e-09)
(-1.11143e-10 -2.99667e-10 9.21431e-08)
(3.69871e-08 1.78554e-07 -4.12908e-09)
(1.96822e-07 1.85086e-08 -2.35541e-09)
(-1.35721e-10 -2.91238e-10 9.00972e-08)
(3.70241e-08 1.78563e-07 -4.1317e-09)
(1.9314e-07 2.2211e-08 -2.77323e-09)
(-1.61234e-10 -2.83795e-10 8.80356e-08)
(3.70528e-08 1.7856e-07 -4.12717e-09)
(1.89446e-07 2.59103e-08 -3.1606e-09)
(-1.85322e-10 -2.75949e-10 8.59539e-08)
(3.70744e-08 1.78542e-07 -4.11717e-09)
(1.85732e-07 2.96069e-08 -3.50986e-09)
(-2.04263e-10 -2.64836e-10 8.38428e-08)
(3.70876e-08 1.78498e-07 -4.10251e-09)
(1.81976e-07 3.33134e-08 -3.81077e-09)
(-2.14181e-10 -2.42288e-10 8.16876e-08)
(3.70865e-08 1.78405e-07 -4.08321e-09)
(-2.05253e-10 -2.04798e-10 7.95216e-08)
(1.78274e-07 3.70684e-08 -4.06082e-09)
(3.70669e-08 1.78274e-07 -4.06059e-09)
(2.11958e-07 3.69253e-09 -4.27032e-10)
(3.69068e-09 2.11952e-07 -4.27878e-10)
(-1.4098e-11 -1.40332e-11 1.17596e-07)
(2.08219e-07 7.36471e-09 -8.28235e-10)
(3.73971e-09 2.11904e-07 -4.25296e-10)
(-4.09041e-11 -1.47593e-11 1.15497e-07)
(2.04471e-07 1.10227e-08 -1.19915e-09)
(3.7489e-09 2.11827e-07 -4.17165e-10)
(-6.68784e-11 -1.62365e-11 1.13363e-07)
(2.00729e-07 1.46806e-08 -1.54422e-09)
(3.74294e-09 2.11763e-07 -4.08437e-10)
(-9.32441e-11 -1.86571e-11 1.11244e-07)
(1.96993e-07 1.83398e-08 -1.86879e-09)
(3.73521e-09 2.11723e-07 -4.00779e-10)
(-1.21179e-10 -2.2205e-11 1.09146e-07)
(1.93265e-07 2.20009e-08 -2.17736e-09)
(3.72542e-09 2.117e-07 -3.94661e-10)
(-1.51421e-10 -2.70297e-11 1.07067e-07)
(1.89546e-07 2.56637e-08 -2.47382e-09)
(3.71181e-09 2.11686e-07 -3.90731e-10)
(-1.84355e-10 -3.33109e-11 1.05004e-07)
(1.85838e-07 2.93278e-08 -2.76129e-09)
(3.69366e-09 2.11668e-07 -3.8988e-10)
(-2.19482e-10 -4.10906e-11 1.02955e-07)
(1.82143e-07 3.29953e-08 -3.04185e-09)
(3.6697e-09 2.11629e-07 -3.93188e-10)
(-2.55203e-10 -4.98469e-11 1.00917e-07)
(3.68266e-09 2.11555e-07 -3.98873e-10)
(-2.90874e-10 -5.63706e-11 9.88792e-08)
(1.7842e-07 3.66902e-08 -3.31774e-09)
(2.11901e-07 3.73772e-09 -4.24448e-10)
(7.36118e-09 2.08215e-07 -8.28249e-10)
(-1.4797e-11 -4.08174e-11 1.15491e-07)
(2.08205e-07 7.43972e-09 -8.28045e-10)
(7.43599e-09 2.08203e-07 -8.28656e-10)
(-4.11372e-11 -4.1031e-11 1.13428e-07)
(2.04484e-07 1.11068e-08 -1.20522e-09)
(7.4709e-09 2.0816e-07 -8.19072e-10)
(-6.68922e-11 -4.16946e-11 1.11332e-07)
(2.00755e-07 1.47635e-08 -1.557e-09)
(7.47284e-09 2.08106e-07 -8.05762e-10)
(-9.30615e-11 -4.30565e-11 1.09228e-07)
(1.9703e-07 1.84236e-08 -1.88756e-09)
(7.45977e-09 2.08063e-07 -7.93077e-10)
(-1.20754e-10 -4.5272e-11 1.07137e-07)
(1.9331e-07 2.20874e-08 -2.20147e-09)
(7.44188e-09 2.08035e-07 -7.83049e-10)
(-1.50668e-10 -4.8515e-11 1.05063e-07)
(1.89598e-07 2.57557e-08 -2.50266e-09)
(7.41575e-09 2.08016e-07 -7.77051e-10)
(-1.83114e-10 -5.28496e-11 1.03004e-07)
(1.85895e-07 2.94322e-08 -2.79412e-09)
(7.38173e-09 2.07988e-07 -7.76772e-10)
(-2.17306e-10 -5.7884e-11 1.00957e-07)
(1.822e-07 3.31183e-08 -3.0776e-09)
(7.34049e-09 2.07937e-07 -7.83869e-10)
(-2.51331e-10 -6.26606e-11 9.89165e-08)
(7.38122e-09 2.07855e-07 -7.93776e-10)
(-2.81659e-10 -6.47545e-11 9.68597e-08)
(1.78463e-07 3.68098e-08 -3.35197e-09)
(2.11819e-07 3.74361e-09 -4.1693e-10)
(1.10213e-08 2.04472e-07 -1.19802e-09)
(-1.62231e-11 -6.68763e-11 1.13358e-07)
(2.08155e-07 7.46734e-09 -8.18403e-10)
(1.11011e-08 2.0448e-07 -1.20463e-09)
(-4.17485e-11 -6.68147e-11 1.11326e-07)
(2.0447e-07 1.116e-08 -1.19929e-09)
(1.11557e-08 2.04468e-07 -1.19948e-09)
(-6.70334e-11 -6.69149e-11 1.09271e-07)
(2.00764e-07 1.48274e-08 -1.55747e-09)
(1.11794e-08 2.04439e-07 -1.18726e-09)
(-9.27741e-11 -6.74646e-11 1.07196e-07)
(1.97051e-07 1.84894e-08 -1.89434e-09)
(1.11716e-08 2.044e-07 -1.17323e-09)
(-1.1996e-10 -6.8624e-11 1.05116e-07)
(1.93342e-07 2.21571e-08 -2.2137e-09)
(1.11466e-08 2.04366e-07 -1.16186e-09)
(-1.49306e-10 -7.05458e-11 1.03047e-07)
(1.89639e-07 2.58318e-08 -2.51942e-09)
(1.11108e-08 2.04338e-07 -1.15596e-09)
(-1.80918e-10 -7.32886e-11 1.00991e-07)
(1.85941e-07 2.95162e-08 -2.81401e-09)
(1.10648e-08 2.04299e-07 -1.15768e-09)
(-2.13632e-10 -7.64422e-11 9.89438e-08)
(1.82248e-07 3.32101e-08 -3.09907e-09)
(1.10087e-08 2.04236e-07 -1.16925e-09)
(-2.45558e-10 -7.92815e-11 9.69002e-08)
(1.10845e-08 2.04156e-07 -1.18325e-09)
(-2.71566e-10 -7.93993e-11 9.48367e-08)
(1.78506e-07 3.68994e-08 -3.37286e-09)
(2.11759e-07 3.74156e-09 -4.08808e-10)
(1.46807e-08 2.00732e-07 -1.54265e-09)
(-1.86217e-11 -9.33139e-11 1.11243e-07)
(2.08099e-07 7.46719e-09 -8.05855e-10)
(1.47613e-08 2.00755e-07 -1.55558e-09)
(-4.30371e-11 -9.31003e-11 1.09224e-07)
(2.04434e-07 1.11757e-08 -1.18696e-09)
(1.48212e-08 2.0076e-07 -1.55663e-09)
(-6.7521e-11 -9.27257e-11 1.07191e-07)
(2.00753e-07 1.4864e-08 -1.54938e-09)
(1.48599e-08 2.0075e-07 -1.54932e-09)
(-9.26304e-11 -9.25302e-11 1.05143e-07)
(1.97053e-07 1.85351e-08 -1.89213e-09)
(1.48694e-08 2.00728e-07 -1.53776e-09)
(-1.19103e-10 -9.27555e-11 1.03081e-07)
(1.93348e-07 2.22054e-08 -2.21685e-09)
(1.48467e-08 2.00693e-07 -1.52714e-09)
(-1.47638e-10 -9.35312e-11 1.01016e-07)
(1.89649e-07 2.58855e-08 -2.52671e-09)
(1.48008e-08 2.00654e-07 -1.52246e-09)
(-1.78266e-10 -9.49643e-11 9.89584e-08)
(1.85955e-07 2.95756e-08 -2.82398e-09)
(1.47433e-08 2.00602e-07 -1.5272e-09)
(-2.09604e-10 -9.69127e-11 9.69081e-08)
(1.82262e-07 3.32741e-08 -3.11036e-09)
(1.46755e-08 2.00528e-07 -1.54382e-09)
(-2.39849e-10 -9.89539e-11 9.48609e-08)
(1.47873e-08 2.00452e-07 -1.56209e-09)
(-2.61702e-10 -9.79555e-11 9.27951e-08)
(1.78521e-07 3.69648e-08 -3.38439e-09)
(2.11722e-07 3.73541e-09 -4.0127e-10)
(1.83397e-08 1.96996e-07 -1.86714e-09)
(-2.2181e-11 -1.21266e-10 1.09147e-07)
(2.0806e-07 7.45813e-09 -7.93831e-10)
(1.84232e-08 1.97032e-07 -1.88596e-09)
(-4.52214e-11 -1.20838e-10 1.07137e-07)
(2.04394e-07 1.11663e-08 -1.17365e-09)
(1.84871e-08 1.97051e-07 -1.89289e-09)
(-6.85757e-11 -1.19985e-10 1.05113e-07)
(2.00724e-07 1.48661e-08 -1.5377e-09)
(1.8529e-08 1.97049e-07 -1.8912e-09)
(-9.27959e-11 -1.19029e-10 1.03076e-07)
(1.9704e-07 1.85549e-08 -1.88461e-09)
(1.85499e-08 1.97036e-07 -1.88447e-09)
(-1.18423e-10 -1.18306e-10 1.0103e-07)
(1.9334e-07 2.22316e-08 -2.21435e-09)
(1.8541e-08 1.97012e-07 -1.87692e-09)
(-1.4607e-10 -1.18106e-10 9.89743e-08)
(1.89634e-07 2.59115e-08 -2.52813e-09)
(1.84954e-08 1.96967e-07 -1.87404e-09)
(-1.75607e-10 -1.1847e-10 9.69134e-08)
(1.85937e-07 2.96062e-08 -2.8277e-09)
(1.84226e-08 1.96898e-07 -1.8815e-09)
(-2.05827e-10 -1.19355e-10 9.48545e-08)
(1.82244e-07 3.33123e-08 -3.11504e-09)
(1.83416e-08 1.96808e-07 -1.90313e-09)
(-2.34847e-10 -1.20643e-10 9.2801e-08)