/*--------------------------------*- C++ -*----------------------------------*\
| =========                 |                                                 |
| \\      /  F ield         | foam-extend: Open Source CFD                    |
|  \\    /   O peration     | Version:     3.1                                |
|   \\  /    A nd           | Web:         http://www.extend-project.de       |
|    \\/     M anipulation  |                                                 |
\*---------------------------------------------------------------------------*/
FoamFile
{
    version     2.0;
    format      ascii;
    class       volScalarField::DimensionedInternalField;
    location    "0.001";
    object      V0;
}
// * * * * * * * * * * * * * * * * * * * * * * * * * * * * * * * * * * * * * //

dimensions      [0 3 0 0 0 0 0];

value           nonuniform List<scalar> 
16000
(
7.20135e-11
7.07561e-11
6.95002e-11
6.82511e-11
6.70101e-11
6.57773e-11
6.45533e-11
6.33385e-11
6.21335e-11
6.09382e-11
7.07554e-11
6.95021e-11
6.825e-11
6.70022e-11
6.57613e-11
6.45282e-11
6.33034e-11
6.20874e-11
6.08802e-11
5.96798e-11
6.94995e-11
6.82493e-11
6.70014e-11
6.57561e-11
6.45155e-11
6.32818e-11
6.2056e-11
6.08381e-11
5.96281e-11
5.84235e-11
6.8251e-11
6.70017e-11
6.57555e-11
6.45124e-11
6.32727e-11
6.2038e-11
6.08103e-11
5.95899e-11
5.8377e-11
5.71689e-11
6.70102e-11
6.57613e-11
6.45151e-11
6.32721e-11
6.20327e-11
6.07975e-11
5.95674e-11
5.83439e-11
5.71277e-11
5.59163e-11
6.57775e-11
6.45283e-11
6.32818e-11
6.20376e-11
6.07969e-11
5.95607e-11
5.83288e-11
5.71016e-11
5.5881e-11
5.4666e-11
6.45535e-11
6.33036e-11
6.20562e-11
6.08102e-11
5.95669e-11
5.83278e-11
5.70936e-11
5.5863e-11
5.46368e-11
5.34172e-11
6.33387e-11
6.20876e-11
6.08383e-11
5.95901e-11
5.83438e-11
5.71006e-11
5.58618e-11
5.46262e-11
5.33936e-11
5.21681e-11
6.21338e-11
6.08805e-11
5.96283e-11
5.83771e-11
5.71278e-11
5.58807e-11
5.46361e-11
5.33932e-11
5.21517e-11
5.09155e-11
6.09385e-11
5.968e-11
5.84237e-11
5.7169e-11
5.59164e-11
5.46661e-11
5.34172e-11
5.21679e-11
5.09151e-11
4.96625e-11
7.26553e-11
7.13745e-11
7.00856e-11
6.88043e-11
6.75334e-11
6.62714e-11
6.50176e-11
6.37704e-11
6.25281e-11
6.12859e-11
7.13725e-11
7.01042e-11
6.88275e-11
6.75512e-11
6.62819e-11
6.5021e-11
6.37677e-11
6.25204e-11
6.12763e-11
6.00265e-11
7.00838e-11
6.88254e-11
6.75621e-11
6.62951e-11
6.50289e-11
6.37689e-11
6.25156e-11
6.12669e-11
6.00203e-11
5.87668e-11
6.88041e-11
6.75498e-11
6.62933e-11
6.50345e-11
6.37735e-11
6.25136e-11
6.12585e-11
6.00072e-11
5.87578e-11
5.75018e-11
6.75337e-11
6.62818e-11
6.50277e-11
6.37718e-11
6.2515e-11
6.1257e-11
5.9999e-11
5.87431e-11
5.74896e-11
5.62316e-11
6.62719e-11
6.50214e-11
6.37688e-11
6.25125e-11
6.12552e-11
5.99984e-11
5.87394e-11
5.74777e-11
5.62168e-11
5.49555e-11
6.50181e-11
6.37682e-11
6.2516e-11
6.12585e-11
5.99974e-11
5.87365e-11
5.74758e-11
5.62095e-11
5.49384e-11
5.36713e-11
6.37711e-11
6.25209e-11
6.12673e-11
6.00076e-11
5.87428e-11
5.74748e-11
5.62063e-11
5.49319e-11
5.36499e-11
5.23749e-11
6.25287e-11
6.12769e-11
6.00208e-11
5.87582e-11
5.749e-11
5.62162e-11
5.49369e-11
5.36489e-11
5.23513e-11
5.10583e-11
6.12865e-11
6.0027e-11
5.87672e-11
5.75022e-11
5.6232e-11
5.49559e-11
5.36716e-11
5.23745e-11
5.10573e-11
4.97354e-11
7.31808e-11
7.18787e-11
7.05584e-11
6.92454e-11
6.79436e-11
6.66507e-11
6.53649e-11
6.40839e-11
6.28045e-11
6.15197e-11
7.18754e-11
7.05931e-11
6.92926e-11
6.7988e-11
6.66894e-11
6.53991e-11
6.41153e-11
6.28354e-11
6.1555e-11
6.02606e-11
7.05557e-11
6.92894e-11
6.80107e-11
6.67214e-11
6.54289e-11
6.41411e-11
6.28589e-11
6.15785e-11
6.02964e-11
5.89991e-11
6.92452e-11
6.79858e-11
6.67186e-11
6.54434e-11
6.41603e-11
6.28743e-11
6.15909e-11
6.03087e-11
5.90246e-11
5.77264e-11
6.79442e-11
6.66895e-11
6.5427e-11
6.41576e-11
6.28826e-11
6.16013e-11
6.03155e-11
5.90283e-11
5.77406e-11
5.64422e-11
6.66514e-11
6.53998e-11
6.4141e-11
6.28725e-11
6.15986e-11
6.03212e-11
5.90362e-11
5.77425e-11
5.64459e-11
5.51454e-11
6.53658e-11
6.41161e-11
6.28596e-11
6.15909e-11
6.03131e-11
5.90315e-11
5.77464e-11
5.64483e-11
5.51388e-11
5.38327e-11
6.40849e-11
6.28363e-11
6.15792e-11
6.03093e-11
5.9028e-11
5.7738e-11
5.64434e-11
5.51357e-11
5.38127e-11
5.2498e-11
6.28055e-11
6.1556e-11
6.02973e-11
5.90254e-11
5.77412e-11
5.6445e-11
5.51366e-11
5.38112e-11
5.24677e-11
5.11284e-11
6.15206e-11
6.02615e-11
5.89998e-11
5.77271e-11
5.64428e-11
5.51461e-11
5.38333e-11
5.24975e-11
5.1127e-11
4.97464e-11
7.35636e-11
7.22441e-11
7.0898e-11
6.95582e-11
6.823e-11
6.69108e-11
6.55989e-11
6.4292e-11
6.29873e-11
6.16776e-11
7.224e-11
7.09461e-11
6.96256e-11
6.8297e-11
6.69735e-11
6.56582e-11
6.43496e-11
6.3045e-11
6.174e-11
6.0419e-11
7.08946e-11
6.96216e-11
6.83295e-11
6.70212e-11
6.57063e-11
6.43952e-11
6.30898e-11
6.17858e-11
6.048e-11
5.91565e-11
6.9558e-11
6.82943e-11
6.70177e-11
6.57282e-11
6.44264e-11
6.31191e-11
6.18135e-11
6.05088e-11
5.92021e-11
5.78791e-11
6.82308e-11
6.69736e-11
6.57039e-11
6.44231e-11
6.3133e-11
6.18332e-11
6.05263e-11
5.92171e-11
5.79078e-11
5.65864e-11
6.69118e-11
6.56591e-11
6.43952e-11
6.31169e-11
6.18297e-11
6.05367e-11
5.92328e-11
5.79175e-11
5.65991e-11
5.52773e-11
6.56001e-11
6.43507e-11
6.30907e-11
6.18136e-11
6.05233e-11
5.92269e-11
5.79251e-11
5.66066e-11
5.52742e-11
5.39475e-11
6.42934e-11
6.30462e-11
6.17868e-11
6.05097e-11
5.92167e-11
5.79118e-11
5.66003e-11
5.52721e-11
5.39252e-11
5.25899e-11
6.29887e-11
6.17413e-11
6.04811e-11
5.92031e-11
5.79086e-11
5.6598e-11
5.52715e-11
5.39233e-11
5.25526e-11
5.11878e-11
6.16788e-11
6.04202e-11
5.91575e-11
5.78801e-11
5.65873e-11
5.52782e-11
5.39485e-11
5.25894e-11
5.1186e-11
4.97693e-11
7.37926e-11
7.24612e-11
7.10968e-11
6.97373e-11
6.83892e-11
6.70504e-11
6.57195e-11
6.43947e-11
6.30741e-11
6.17508e-11
7.24565e-11
7.11543e-11
6.98192e-11
6.84728e-11
6.71305e-11
6.57966e-11
6.44699e-11
6.31481e-11
6.18277e-11
6.04926e-11
7.10929e-11
6.98147e-11
6.85124e-11
6.71896e-11
6.58579e-11
6.45296e-11
6.32073e-11
6.18872e-11
6.05668e-11
5.92297e-11
6.9737e-11
6.84697e-11
6.71857e-11
6.58852e-11
6.45693e-11
6.32464e-11
6.19252e-11
6.06056e-11
5.92853e-11
5.79499e-11
6.83902e-11
6.71307e-11
6.58552e-11
6.45656e-11
6.32642e-11
6.19513e-11
6.06301e-11
5.93069e-11
5.79851e-11
5.66529e-11
6.70516e-11
6.57977e-11
6.45296e-11
6.32439e-11
6.19474e-11
6.06435e-11
5.93274e-11
5.79991e-11
5.66688e-11
5.53377e-11
6.57209e-11
6.44712e-11
6.32084e-11
6.19254e-11
6.06267e-11
5.93209e-11
5.80089e-11
5.66789e-11
5.53349e-11
5.40001e-11
6.43963e-11
6.31496e-11
6.18884e-11
6.06066e-11
5.93066e-11
5.79929e-11
5.6672e-11
5.53332e-11
5.3975e-11
5.26323e-11
6.30758e-11
6.18293e-11
6.05682e-11
5.92865e-11
5.79862e-11
5.66677e-11
5.53319e-11
5.39729e-11
5.25902e-11
5.12163e-11
6.17523e-11
6.0494e-11
5.92309e-11
5.79511e-11
5.6654e-11
5.53388e-11
5.40012e-11
5.26317e-11
5.12144e-11
4.97837e-11
7.38716e-11
7.25338e-11
7.1159e-11
6.97873e-11
6.84261e-11
6.70737e-11
6.57291e-11
6.43915e-11
6.30596e-11
6.1727e-11
7.2529e-11
7.12218e-11
6.98778e-11
6.852e-11
6.71651e-11
6.5818e-11
6.44782e-11
6.31439e-11
6.18126e-11
6.04689e-11
7.1155e-11
6.98731e-11
6.85636e-11
6.72311e-11
6.58879e-11
6.45474e-11
6.32128e-11
6.18811e-11
6.05505e-11
5.92059e-11
6.97871e-11
6.85168e-11
6.7227e-11
6.59184e-11
6.45927e-11
6.32589e-11
6.19266e-11
6.05965e-11
5.92671e-11
5.79254e-11
6.84272e-11
6.71653e-11
6.58852e-11
6.45889e-11
6.32794e-11
6.19572e-11
6.06264e-11
5.9294e-11
5.79641e-11
5.66272e-11
6.7075e-11
6.58192e-11
6.45474e-11
6.32564e-11
6.19532e-11
6.06419e-11
5.93179e-11
5.79817e-11
5.66447e-11
5.53107e-11
6.57306e-11
6.44795e-11
6.3214e-11
6.19269e-11
6.0623e-11
5.93112e-11
5.79931e-11
5.66571e-11
5.5308e-11
5.39721e-11
6.43932e-11
6.31455e-11
6.18825e-11
6.05977e-11
5.92936e-11
5.79755e-11
5.66501e-11
5.53075e-11
5.39464e-11
5.26045e-11
6.30613e-11
6.18142e-11
6.0552e-11
5.92683e-11
5.79652e-11
5.66436e-11
5.53049e-11
5.39441e-11
5.25611e-11
5.11914e-11
6.17286e-11
6.04704e-11
5.92073e-11
5.79267e-11
5.66284e-11
5.53118e-11
5.39732e-11
5.26039e-11
5.11895e-11
4.97654e-11
7.38182e-11
7.24792e-11
7.11014e-11
6.97245e-11
6.83561e-11
6.69951e-11
6.56412e-11
6.42941e-11
6.29533e-11
6.16132e-11
7.24745e-11
7.11653e-11
6.98177e-11
6.84546e-11
6.70926e-11
6.57371e-11
6.4388e-11
6.30443e-11
6.17044e-11
6.03553e-11
7.10975e-11
6.98132e-11
6.84996e-11
6.71615e-11
6.58116e-11
6.44632e-11
6.31199e-11
6.17794e-11
6.0441e-11
5.90924e-11
6.97242e-11
6.84515e-11
6.71576e-11
6.58436e-11
6.45117e-11
6.31708e-11
6.18308e-11
6.04931e-11
5.91568e-11
5.78126e-11
6.83571e-11
6.70928e-11
6.5809e-11
6.4508e-11
6.31929e-11
6.18645e-11
6.05275e-11
5.91889e-11
5.78535e-11
5.65157e-11
6.69964e-11
6.57383e-11
6.44632e-11
6.31684e-11
6.18608e-11
6.05444e-11
5.92154e-11
5.78751e-11
5.65345e-11
5.52016e-11
6.56427e-11
6.43893e-11
6.3121e-11
6.18311e-11
6.05243e-11
5.92092e-11
5.78877e-11
5.65496e-11
5.51999e-11
5.38676e-11
6.42958e-11
6.30458e-11
6.17807e-11
6.04942e-11
5.91887e-11
5.78693e-11
5.6543e-11
5.52014e-11
5.38435e-11
5.25086e-11
6.29549e-11
6.1706e-11
6.04425e-11
5.91581e-11
5.78547e-11
5.65336e-11
5.5197e-11
5.38414e-11
5.24672e-11
5.11117e-11
6.16148e-11
6.03568e-11
5.90938e-11
5.78139e-11
5.65169e-11
5.52026e-11
5.38685e-11
5.25079e-11
5.11099e-11
4.97093e-11
7.36614e-11
7.23256e-11
7.09511e-11
6.95751e-11
6.82051e-11
6.68406e-11
6.54817e-11
6.41288e-11
6.2782e-11
6.14372e-11
7.23213e-11
7.10129e-11
6.96664e-11
6.83032e-11
6.69394e-11
6.55801e-11
6.42257e-11
6.28761e-11
6.15306e-11
6.01796e-11
7.09475e-11
6.96622e-11
6.83473e-11
6.70077e-11
6.56556e-11
6.43035e-11
6.29552e-11
6.16093e-11
6.02662e-11
5.89171e-11
6.95748e-11
6.83003e-11
6.70041e-11
6.56875e-11
6.43528e-11
6.30087e-11
6.16647e-11
6.03225e-11
5.89825e-11
5.76392e-11
6.82059e-11
6.69394e-11
6.56532e-11
6.43495e-11
6.30314e-11
6.17001e-11
6.03603e-11
5.9019e-11
5.76811e-11
5.63456e-11
6.68417e-11
6.5581e-11
6.43035e-11
6.30066e-11
6.16968e-11
6.0378e-11
5.90472e-11
5.77061e-11
5.63655e-11
5.50369e-11
6.5483e-11
6.42268e-11
6.29562e-11
6.16649e-11
6.03575e-11
5.90418e-11
5.77195e-11
5.63828e-11
5.50368e-11
5.37116e-11
6.41302e-11
6.28774e-11
6.16105e-11
6.03235e-11
5.90188e-11
5.77012e-11
5.63771e-11
5.50406e-11
5.36909e-11
5.23668e-11
6.27835e-11
6.15321e-11
6.02674e-11
5.89836e-11
5.76821e-11
5.63647e-11
5.50341e-11
5.36889e-11
5.233e-11
5.09946e-11
6.14386e-11
6.01809e-11
5.89183e-11
5.76402e-11
5.63466e-11
5.50377e-11
5.37122e-11
5.23662e-11
5.09932e-11
4.96252e-11
7.34373e-11
7.21079e-11
7.07417e-11
6.93718e-11
6.80053e-11
6.66424e-11
6.52835e-11
6.39296e-11
6.25817e-11
6.12366e-11
7.21041e-11
7.07989e-11
6.94572e-11
6.80988e-11
6.6738e-11
6.53798e-11
6.40251e-11
6.26743e-11
6.13279e-11
5.99794e-11
7.07385e-11
6.94536e-11
6.81401e-11
6.68028e-11
6.5453e-11
6.41018e-11
6.27531e-11
6.14064e-11
6.00629e-11
5.87178e-11
6.93714e-11
6.80963e-11
6.67997e-11
6.54833e-11
6.41497e-11
6.28067e-11
6.14629e-11
6.01207e-11
5.87811e-11
5.74426e-11
6.80059e-11
6.6738e-11
6.54509e-11
6.41468e-11
6.28288e-11
6.14984e-11
6.01598e-11
5.882e-11
5.74837e-11
5.6154e-11
6.66432e-11
6.53806e-11
6.41017e-11
6.28048e-11
6.14955e-11
6.01774e-11
5.88484e-11
5.75106e-11
5.6174e-11
5.48526e-11
6.52845e-11
6.4026e-11
6.27538e-11
6.1463e-11
6.01575e-11
5.88439e-11
5.75242e-11
5.61925e-11
5.48541e-11
5.35386e-11
6.39308e-11
6.26754e-11
6.14073e-11
6.01215e-11
5.88198e-11
5.75067e-11
5.61879e-11
5.48597e-11
5.35219e-11
5.22107e-11
6.25829e-11
6.13291e-11
6.0064e-11
5.8782e-11
5.74845e-11
5.61734e-11
5.48517e-11
5.35201e-11
5.21796e-11
5.08656e-11
6.12377e-11
5.99805e-11
5.87187e-11
5.74435e-11
5.61547e-11
5.48532e-11
5.35388e-11
5.221e-11
5.08645e-11
4.95302e-11
7.3182e-11
7.18612e-11
7.05068e-11
6.9147e-11
6.77887e-11
6.64323e-11
6.50787e-11
6.37293e-11
6.23857e-11
6.10459e-11
7.1858e-11
7.05576e-11
6.9224e-11
6.78742e-11
6.65208e-11
6.51686e-11
6.38187e-11
6.24722e-11
6.11304e-11
5.97893e-11
7.0504e-11
6.92209e-11
6.79113e-11
6.65798e-11
6.52364e-11
6.38907e-11
6.25465e-11
6.12043e-11
5.98657e-11
5.85288e-11
6.91466e-11
6.7872e-11
6.65772e-11
6.5264e-11
6.39351e-11
6.25975e-11
6.12586e-11
5.99212e-11
5.85869e-11
5.72571e-11
6.77891e-11
6.65207e-11
6.52345e-11
6.39327e-11
6.26181e-11
6.12921e-11
5.99592e-11
5.86252e-11
5.7295e-11
5.59742e-11
6.64328e-11
6.51691e-11
6.38906e-11
6.25958e-11
6.12898e-11
5.99756e-11
5.86522e-11
5.73217e-11
5.59931e-11
5.46813e-11
6.50794e-11
6.38193e-11
6.25471e-11
6.12586e-11
5.99572e-11
5.86487e-11
5.73346e-11
5.60113e-11
5.46837e-11
5.3379e-11
6.37301e-11
6.2473e-11
6.12049e-11
5.99218e-11
5.86251e-11
5.73187e-11
5.60077e-11
5.46902e-11
5.33661e-11
5.20677e-11
6.23866e-11
6.11311e-11
5.98664e-11
5.85876e-11
5.72957e-11
5.59926e-11
5.46817e-11
5.33646e-11
5.20426e-11
5.07472e-11
6.10467e-11
5.97901e-11
5.85295e-11
5.72577e-11
5.59747e-11
5.46815e-11
5.33789e-11
5.20671e-11
5.07463e-11
4.944e-11
7.29262e-11
7.16151e-11
7.02743e-11
6.89275e-11
6.75807e-11
6.62348e-11
6.48911e-11
6.35512e-11
6.22169e-11
6.08871e-11
7.16125e-11
7.0318e-11
6.89944e-11
6.76559e-11
6.63135e-11
6.49713e-11
6.36307e-11
6.22933e-11
6.09608e-11
5.96312e-11
7.0272e-11
6.89918e-11
6.76881e-11
6.63651e-11
6.50313e-11
6.3695e-11
6.23598e-11
6.10265e-11
5.96974e-11
5.83721e-11
6.89271e-11
6.76541e-11
6.63629e-11
6.50555e-11
6.37344e-11
6.24056e-11
6.10756e-11
5.97473e-11
5.84225e-11
5.7104e-11
6.75809e-11
6.63132e-11
6.50298e-11
6.37324e-11
6.24239e-11
6.11057e-11
5.97817e-11
5.84574e-11
5.7137e-11
5.5827e-11
6.62351e-11
6.49715e-11
6.36948e-11
6.24042e-11
6.11038e-11
5.97964e-11
5.84814e-11
5.71614e-11
5.58437e-11
5.45423e-11
6.48915e-11
6.36311e-11
6.23601e-11
6.10756e-11
5.97802e-11
5.84788e-11
5.71728e-11
5.58601e-11
5.4545e-11
5.32509e-11
6.35516e-11
6.22938e-11
6.10269e-11
5.97477e-11
5.84573e-11
5.71591e-11
5.58573e-11
5.45513e-11
5.32412e-11
5.1954e-11
6.22174e-11
6.09613e-11
5.96978e-11
5.84229e-11
5.71374e-11
5.58432e-11
5.45434e-11
5.324e-11
5.19343e-11
5.06526e-11
6.08876e-11
5.96316e-11
5.83725e-11
5.71043e-11
5.58272e-11
5.45423e-11
5.32507e-11
5.19534e-11
5.06519e-11
4.93646e-11
7.26915e-11
7.13901e-11
7.00633e-11
6.87307e-11
6.73973e-11
6.60645e-11
6.47335e-11
6.34061e-11
6.20841e-11
6.07672e-11
7.13879e-11
7.00999e-11
6.8787e-11
6.74613e-11
6.61316e-11
6.48019e-11
6.34736e-11
6.21485e-11
6.08283e-11
5.95121e-11
7.00614e-11
6.8785e-11
6.74883e-11
6.61753e-11
6.4853e-11
6.35286e-11
6.2205e-11
6.08837e-11
5.95666e-11
5.82544e-11
6.87303e-11
6.74597e-11
6.61735e-11
6.48735e-11
6.3562e-11
6.22442e-11
6.09256e-11
5.96089e-11
5.82959e-11
5.69897e-11
6.73974e-11
6.61313e-11
6.48517e-11
6.35604e-11
6.22597e-11
6.09512e-11
5.96383e-11
5.83257e-11
5.70169e-11
5.57181e-11
6.60646e-11
6.4802e-11
6.35283e-11
6.22431e-11
6.09498e-11
5.96507e-11
5.83459e-11
5.70376e-11
5.57319e-11
5.44407e-11
6.47337e-11
6.34738e-11
6.22052e-11
6.09255e-11
5.96371e-11
5.83438e-11
5.70471e-11
5.57456e-11
5.44431e-11
5.31585e-11
6.34063e-11
6.21487e-11
6.08839e-11
5.96091e-11
5.83255e-11
5.70358e-11
5.57435e-11
5.44484e-11
5.31511e-11
5.18727e-11
6.20844e-11
6.08285e-11
5.95668e-11
5.82961e-11
5.70172e-11
5.57315e-11
5.44418e-11
5.31501e-11
5.18574e-11
5.05844e-11
6.07674e-11
5.95123e-11
5.82546e-11
5.69898e-11
5.57182e-11
5.44406e-11
5.31582e-11
5.18721e-11
5.05839e-11
4.93073e-11
7.24889e-11
7.11965e-11
6.98831e-11
6.85644e-11
6.72448e-11
6.59257e-11
6.46083e-11
6.32944e-11
6.19857e-11
6.06819e-11
7.11948e-11
6.9913e-11
6.86107e-11
6.72976e-11
6.59812e-11
6.46647e-11
6.33497e-11
6.20378e-11
6.07306e-11
5.94275e-11
6.98816e-11
6.86091e-11
6.73198e-11
6.60171e-11
6.47068e-11
6.33948e-11
6.20839e-11
6.07753e-11
5.94708e-11
5.81711e-11
6.8564e-11
6.72964e-11
6.60157e-11
6.47236e-11
6.34223e-11
6.21161e-11
6.08095e-11
5.9505e-11
5.82041e-11
5.69093e-11
6.72448e-11
6.59809e-11
6.47058e-11
6.34211e-11
6.21288e-11
6.08304e-11
5.95289e-11
5.82281e-11
5.69309e-11
5.56423e-11
6.59257e-11
6.46647e-11
6.33946e-11
6.21152e-11
6.08292e-11
5.95389e-11
5.82443e-11
5.69474e-11
5.56532e-11
5.43707e-11
6.46084e-11
6.33497e-11
6.20839e-11
6.08094e-11
5.95279e-11
5.82427e-11
5.6955e-11
5.56639e-11
5.43727e-11
5.30957e-11
6.32945e-11
6.20378e-11
6.07754e-11
5.95051e-11
5.82279e-11
5.69461e-11
5.56623e-11
5.43768e-11
5.30899e-11
5.18179e-11
6.19858e-11
6.07307e-11
5.94709e-11
5.82042e-11
5.69311e-11
5.56529e-11
5.43717e-11
5.30891e-11
5.1806e-11
5.05379e-11
6.06819e-11
5.94276e-11
5.81712e-11
5.69093e-11
5.56422e-11
5.43707e-11
5.30954e-11
5.18174e-11
5.05375e-11
4.92661e-11
7.23213e-11
7.10368e-11
6.97352e-11
6.84292e-11
6.71224e-11
6.58161e-11
6.45117e-11
6.32104e-11
6.19138e-11
6.06216e-11
7.10355e-11
6.97594e-11
6.84667e-11
6.71652e-11
6.5861e-11
6.45569e-11
6.32544e-11
6.19548e-11
6.06595e-11
5.93679e-11
6.9734e-11
6.84653e-11
6.71831e-11
6.589e-11
6.45909e-11
6.32906e-11
6.19915e-11
6.06946e-11
5.94016e-11
5.81126e-11
6.84289e-11
6.71641e-11
6.58889e-11
6.46044e-11
6.33126e-11
6.20172e-11
6.07217e-11
5.94283e-11
5.81382e-11
5.68531e-11
6.71224e-11
6.58607e-11
6.459e-11
6.33117e-11
6.20273e-11
6.07383e-11
5.94471e-11
5.81568e-11
5.68698e-11
5.55895e-11
6.58161e-11
6.45569e-11
6.32904e-11
6.20164e-11
6.07374e-11
5.9455e-11
5.81695e-11
5.68825e-11
5.55979e-11
5.43225e-11
6.45117e-11
6.32544e-11
6.19915e-11
6.07216e-11
5.94463e-11
5.81682e-11
5.68884e-11
5.56061e-11
5.4324e-11
5.30527e-11
6.32104e-11
6.19548e-11
6.06947e-11
5.94283e-11
5.81567e-11
5.68814e-11
5.56049e-11
5.43269e-11
5.30481e-11
5.17804e-11
6.19138e-11
6.06595e-11
5.94016e-11
5.81382e-11
5.68699e-11
5.55977e-11
5.43231e-11
5.30474e-11
5.17711e-11
5.05058e-11
6.06216e-11
5.93679e-11
5.81126e-11
5.68531e-11
5.55895e-11
5.43225e-11
5.30525e-11
5.17801e-11
5.05055e-11
4.92366e-11
7.2186e-11
7.0908e-11
6.96164e-11
6.83212e-11
6.70255e-11
6.57304e-11
6.44369e-11
6.31463e-11
6.18596e-11
6.05767e-11
7.09069e-11
6.96357e-11
6.83512e-11
6.70597e-11
6.57661e-11
6.44728e-11
6.3181e-11
6.18917e-11
6.06062e-11
5.93236e-11
6.96154e-11
6.83502e-11
6.7074e-11
6.57893e-11
6.44998e-11
6.32096e-11
6.19205e-11
6.06335e-11
5.93498e-11
5.80692e-11
6.83209e-11
6.70589e-11
6.57884e-11
6.45106e-11
6.32271e-11
6.19408e-11
6.06547e-11
5.93704e-11
5.8089e-11
5.68114e-11
6.70255e-11
6.57659e-11
6.44992e-11
6.32263e-11
6.19488e-11
6.06677e-11
5.93851e-11
5.81033e-11
5.68244e-11
5.55505e-11
6.57303e-11
6.44728e-11
6.32094e-11
6.19402e-11
6.0667e-11
5.93912e-11
5.81132e-11
5.68341e-11
5.5557e-11
5.42868e-11
6.44369e-11
6.3181e-11
6.19205e-11
6.06546e-11
5.93844e-11
5.81121e-11
5.68386e-11
5.55632e-11
5.42878e-11
5.30207e-11
6.31463e-11
6.18917e-11
6.06335e-11
5.93705e-11
5.81032e-11
5.68332e-11
5.55621e-11
5.42899e-11
5.30169e-11
5.17525e-11
6.18596e-11
6.06061e-11
5.93498e-11
5.8089e-11
5.68244e-11
5.55567e-11
5.42872e-11
5.30164e-11
5.1745e-11
5.04817e-11
6.05767e-11
5.93236e-11
5.80692e-11
5.68114e-11
5.55505e-11
5.42867e-11
5.30206e-11
5.17522e-11
5.04814e-11
4.92143e-11
7.20775e-11
7.08049e-11
6.95214e-11
6.82351e-11
6.69484e-11
6.56623e-11
6.43777e-11
6.30955e-11
6.18165e-11
6.05406e-11
7.08041e-11
6.95369e-11
6.82591e-11
6.69757e-11
6.56908e-11
6.44062e-11
6.31229e-11
6.18418e-11
6.05637e-11
5.92879e-11
6.95206e-11
6.82582e-11
6.69872e-11
6.57092e-11
6.44277e-11
6.31456e-11
6.18645e-11
6.05852e-11
5.93085e-11
5.80341e-11
6.82349e-11
6.69751e-11
6.57085e-11
6.44362e-11
6.31594e-11
6.18804e-11
6.06018e-11
5.93246e-11
5.80498e-11
5.67777e-11
6.69484e-11
6.56906e-11
6.44271e-11
6.31588e-11
6.18868e-11
6.0612e-11
5.93361e-11
5.80609e-11
5.67879e-11
5.55188e-11
6.56623e-11
6.44062e-11
6.31454e-11
6.188e-11
6.06114e-11
5.93409e-11
5.80686e-11
5.67954e-11
5.55238e-11
5.42575e-11
6.43777e-11
6.31229e-11
6.18645e-11
6.06017e-11
5.93355e-11
5.80677e-11
5.67989e-11
5.55286e-11
5.42582e-11
5.29942e-11
6.30955e-11
6.18418e-11
6.05852e-11
5.93246e-11
5.80607e-11
5.67946e-11
5.55277e-11
5.42598e-11
5.29911e-11
5.1729e-11
6.18165e-11
6.05637e-11
5.93085e-11
5.80498e-11
5.67879e-11
5.55236e-11
5.42577e-11
5.29907e-11
5.17229e-11
5.04613e-11
6.05405e-11
5.92878e-11
5.80341e-11
5.67777e-11
5.55187e-11
5.42575e-11
5.29941e-11
5.17288e-11
5.04611e-11
4.91961e-11
7.19904e-11
7.07221e-11
6.9445e-11
6.81657e-11
6.68862e-11
6.56073e-11
6.43295e-11
6.30537e-11
6.17804e-11
6.05095e-11
7.07214e-11
6.94574e-11
6.8185e-11
6.69081e-11
6.563e-11
6.43522e-11
6.30756e-11
6.18006e-11
6.0528e-11
5.92572e-11
6.94444e-11
6.81843e-11
6.69173e-11
6.56448e-11
6.43694e-11
6.30936e-11
6.18187e-11
6.05452e-11
5.92737e-11
5.8004e-11
6.81656e-11
6.69076e-11
6.56442e-11
6.43763e-11
6.31047e-11
6.18314e-11
6.05584e-11
5.92866e-11
5.80165e-11
5.67486e-11
6.68862e-11
6.56299e-11
6.4369e-11
6.31042e-11
6.18365e-11
6.05665e-11
5.92957e-11
5.80254e-11
5.67568e-11
5.54911e-11
6.56073e-11
6.43523e-11
6.30935e-11
6.1831e-11
6.05661e-11
5.92995e-11
5.80315e-11
5.67628e-11
5.54952e-11
5.42318e-11
6.43295e-11
6.30756e-11
6.18187e-11
6.05583e-11
5.92952e-11
5.80308e-11
5.67656e-11
5.5499e-11
5.42324e-11
5.29707e-11
6.30537e-11
6.18007e-11
6.05452e-11
5.92866e-11
5.80253e-11
5.67621e-11
5.54983e-11
5.42336e-11
5.29682e-11
5.1708e-11
6.17804e-11
6.0528e-11
5.92737e-11
5.80165e-11
5.67568e-11
5.54951e-11
5.4232e-11
5.29679e-11
5.1703e-11
5.04431e-11
6.05095e-11
5.92571e-11
5.8004e-11
5.67486e-11
5.54911e-11
5.42318e-11
5.29707e-11
5.17078e-11
5.0443e-11
4.91802e-11
7.19198e-11
7.06548e-11
6.93829e-11
6.81092e-11
6.68353e-11
6.55618e-11
6.42894e-11
6.30184e-11
6.17494e-11
6.04822e-11
7.06543e-11
6.93929e-11
6.81247e-11
6.68529e-11
6.55801e-11
6.43077e-11
6.30361e-11
6.17658e-11
6.04974e-11
5.92302e-11
6.93824e-11
6.81241e-11
6.68603e-11
6.55921e-11
6.43215e-11
6.30506e-11
6.17804e-11
6.05113e-11
5.92437e-11
5.79775e-11
6.8109e-11
6.68525e-11
6.55916e-11
6.4327e-11
6.30595e-11
6.17906e-11
6.05219e-11
5.92541e-11
5.79877e-11
5.67229e-11
6.68353e-11
6.55801e-11
6.43211e-11
6.30591e-11
6.17947e-11
6.05285e-11
5.92615e-11
5.79949e-11
5.67296e-11
5.54667e-11
6.55619e-11
6.43077e-11
6.30505e-11
6.17903e-11
6.05281e-11
5.92646e-11
5.79999e-11
5.67345e-11
5.547e-11
5.42088e-11
6.42894e-11
6.30361e-11
6.17804e-11
6.05219e-11
5.92611e-11
5.79993e-11
5.67368e-11
5.54731e-11
5.42094e-11
5.29496e-11
6.30184e-11
6.17658e-11
6.05113e-11
5.92542e-11
5.79948e-11
5.6734e-11
5.54726e-11
5.42104e-11
5.29476e-11
5.1689e-11
6.17494e-11
6.04974e-11
5.92437e-11
5.79877e-11
5.67297e-11
5.54699e-11
5.4209e-11
5.29473e-11
5.1685e-11
5.04267e-11
6.04822e-11
5.92302e-11
5.79775e-11
5.67229e-11
5.54667e-11
5.42088e-11
5.29496e-11
5.16889e-11
5.04266e-11
4.91661e-11
7.18619e-11
7.05997e-11
6.93318e-11
6.80625e-11
6.67931e-11
6.5524e-11
6.42556e-11
6.29884e-11
6.17227e-11
6.04585e-11
7.05993e-11
6.934e-11
6.80751e-11
6.68073e-11
6.55388e-11
6.42705e-11
6.30028e-11
6.17361e-11
6.04709e-11
5.92067e-11
6.93314e-11
6.80746e-11
6.68133e-11
6.55485e-11
6.42817e-11
6.30146e-11
6.1748e-11
6.04823e-11
5.92178e-11
5.79543e-11
6.80624e-11
6.6807e-11
6.55481e-11
6.42861e-11
6.30218e-11
6.17564e-11
6.0491e-11
5.92264e-11
5.79628e-11
5.67005e-11
6.67931e-11
6.55387e-11
6.42814e-11
6.30215e-11
6.17597e-11
6.04964e-11
5.92324e-11
5.79687e-11
5.6706e-11
5.54452e-11
6.5524e-11
6.42705e-11
6.30145e-11
6.17561e-11
6.04961e-11
5.92349e-11
5.79728e-11
5.67101e-11
5.5448e-11
5.41887e-11
6.42556e-11
6.30028e-11
6.17481e-11
6.0491e-11
5.92321e-11
5.79723e-11
5.67119e-11
5.54506e-11
5.41892e-11
5.2931e-11
6.29884e-11
6.17362e-11
6.04823e-11
5.92264e-11
5.79686e-11
5.67096e-11
5.54502e-11
5.41901e-11
5.29294e-11
5.16723e-11
6.17227e-11
6.04709e-11
5.92178e-11
5.79628e-11
5.67061e-11
5.54479e-11
5.41889e-11
5.29292e-11
5.1669e-11
5.04122e-11
6.04585e-11
5.92067e-11
5.79543e-11
5.67005e-11
5.54452e-11
5.41887e-11
5.2931e-11
5.16721e-11
5.04121e-11
4.91536e-11
7.18143e-11
7.05543e-11
6.92897e-11
6.80239e-11
6.6758e-11
6.54923e-11
6.42271e-11
6.2963e-11
6.17e-11
6.04382e-11
7.05539e-11
6.92962e-11
6.80341e-11
6.67695e-11
6.55043e-11
6.42393e-11
6.29747e-11
6.1711e-11
6.04484e-11
5.91866e-11
6.92893e-11
6.80337e-11
6.67744e-11
6.55122e-11
6.42484e-11
6.29844e-11
6.17208e-11
6.04578e-11
5.91957e-11
5.79346e-11
6.80238e-11
6.67693e-11
6.55119e-11
6.42521e-11
6.29903e-11
6.17276e-11
6.04649e-11
5.92028e-11
5.79415e-11
5.66813e-11
6.6758e-11
6.55043e-11
6.42482e-11
6.299e-11
6.17303e-11
6.04693e-11
5.92077e-11
5.79464e-11
5.66859e-11
5.54269e-11
6.54923e-11
6.42393e-11
6.29844e-11
6.17274e-11
6.04691e-11
5.92098e-11
5.79498e-11
5.66892e-11
5.54293e-11
5.41715e-11
6.42272e-11
6.29748e-11
6.17208e-11
6.04649e-11
5.92075e-11
5.79494e-11
5.66908e-11
5.54314e-11
5.41719e-11
5.29151e-11
6.2963e-11
6.1711e-11
6.04578e-11
5.92028e-11
5.79464e-11
5.66889e-11
5.5431e-11
5.41727e-11
5.29138e-11
5.16579e-11
6.17e-11
6.04484e-11
5.91958e-11
5.79415e-11
5.66859e-11
5.54292e-11
5.41717e-11
5.29137e-11
5.16553e-11
5.03997e-11
6.04382e-11
5.91866e-11
5.79346e-11
5.66813e-11
5.54269e-11
5.41715e-11
5.29151e-11
5.16578e-11
5.03996e-11
4.91427e-11
7.1775e-11
7.05167e-11
6.92547e-11
6.79918e-11
6.67287e-11
6.54658e-11
6.42034e-11
6.29417e-11
6.16809e-11
6.04211e-11
7.05164e-11
6.92601e-11
6.80001e-11
6.67381e-11
6.54757e-11
6.42133e-11
6.29513e-11
6.169e-11
6.04295e-11
5.91697e-11
6.92545e-11
6.79998e-11
6.67421e-11
6.54821e-11
6.42207e-11
6.29592e-11
6.16979e-11
6.04372e-11
5.91772e-11
5.7918e-11
6.79917e-11
6.67379e-11
6.54818e-11
6.42237e-11
6.2964e-11
6.17035e-11
6.04431e-11
5.9183e-11
5.79237e-11
5.66652e-11
6.67287e-11
6.54756e-11
6.42206e-11
6.29638e-11
6.17057e-11
6.04467e-11
5.91871e-11
5.79277e-11
5.6669e-11
5.54116e-11
6.54658e-11
6.42133e-11
6.29591e-11
6.17034e-11
6.04464e-11
5.91888e-11
5.79305e-11
5.66718e-11
5.54135e-11
5.4157e-11
6.42034e-11
6.29513e-11
6.16979e-11
6.0443e-11
5.91869e-11
5.79302e-11
5.6673e-11
5.54153e-11
5.41574e-11
5.29018e-11
6.29417e-11
6.169e-11
6.04372e-11
5.91831e-11
5.79277e-11
5.66715e-11
5.5415e-11
5.4158e-11
5.29008e-11
5.16458e-11
6.16809e-11
6.04295e-11
5.91772e-11
5.79237e-11
5.6669e-11
5.54134e-11
5.41572e-11
5.29006e-11
5.16437e-11
5.03891e-11
6.04211e-11
5.91697e-11
5.7918e-11
5.66652e-11
5.54116e-11
5.4157e-11
5.29018e-11
5.16458e-11
5.03891e-11
4.91335e-11
7.17424e-11
7.04857e-11
6.92258e-11
6.79652e-11
6.67045e-11
6.54439e-11
6.41836e-11
6.29239e-11
6.16651e-11
6.0407e-11
7.04854e-11
6.92302e-11
6.79719e-11
6.67121e-11
6.54519e-11
6.41917e-11
6.29318e-11
6.16725e-11
6.04138e-11
5.91557e-11
6.92256e-11
6.79717e-11
6.67154e-11
6.54571e-11
6.41978e-11
6.29383e-11
6.1679e-11
6.04201e-11
5.91619e-11
5.79042e-11
6.79652e-11
6.6712e-11
6.54569e-11
6.42002e-11
6.29422e-11
6.16835e-11
6.04249e-11
5.91666e-11
5.79089e-11
5.66519e-11
6.67045e-11
6.54519e-11
6.41976e-11
6.2942e-11
6.16853e-11
6.04278e-11
5.917e-11
5.79122e-11
5.6655e-11
5.53988e-11
6.54439e-11
6.41917e-11
6.29382e-11
6.16834e-11
6.04277e-11
5.91714e-11
5.79145e-11
5.66573e-11
5.54004e-11
5.41451e-11
6.41836e-11
6.29318e-11
6.1679e-11
6.04249e-11
5.91698e-11
5.79142e-11
5.66583e-11
5.54019e-11
5.41454e-11
5.28907e-11
6.29239e-11
6.16725e-11
6.04201e-11
5.91666e-11
5.79122e-11
5.6657e-11
5.54017e-11
5.41459e-11
5.28899e-11
5.16358e-11
6.16651e-11
6.04138e-11
5.91619e-11
5.79089e-11
5.6655e-11
5.54004e-11
5.41453e-11
5.28898e-11
5.16341e-11
5.03803e-11
6.0407e-11
5.91557e-11
5.79042e-11
5.66519e-11
5.53988e-11
5.41451e-11
5.28907e-11
5.16358e-11
5.03803e-11
4.91257e-11
7.17156e-11
7.046e-11
6.9202e-11
6.79432e-11
6.66844e-11
6.54257e-11
6.41673e-11
6.29093e-11
6.1652e-11
6.03953e-11
7.04598e-11
6.92055e-11
6.79487e-11
6.66907e-11
6.54322e-11
6.41738e-11
6.29157e-11
6.1658e-11
6.04009e-11
5.91442e-11
6.92018e-11
6.79485e-11
6.66933e-11
6.54365e-11
6.41788e-11
6.2921e-11
6.16633e-11
6.0406e-11
5.91492e-11
5.78929e-11
6.79432e-11
6.66905e-11
6.54363e-11
6.41807e-11
6.29241e-11
6.1667e-11
6.04099e-11
5.91531e-11
5.78967e-11
5.66409e-11
6.66844e-11
6.54322e-11
6.41787e-11
6.2924e-11
6.16685e-11
6.04123e-11
5.91558e-11
5.78994e-11
5.66435e-11
5.53884e-11
6.54257e-11
6.41739e-11
6.29209e-11
6.16669e-11
6.04122e-11
5.91569e-11
5.79012e-11
5.66453e-11
5.53897e-11
5.41352e-11
6.41673e-11
6.29157e-11
6.16633e-11
6.04099e-11
5.91557e-11
5.7901e-11
5.66461e-11
5.53909e-11
5.41355e-11
5.28816e-11
6.29093e-11
6.1658e-11
6.0406e-11
5.91531e-11
5.78994e-11
5.66451e-11
5.53907e-11
5.41359e-11
5.2881e-11
5.16276e-11
6.1652e-11
6.04009e-11
5.91492e-11
5.78967e-11
5.66435e-11
5.53896e-11
5.41354e-11
5.28809e-11
5.16262e-11
5.0373e-11
6.03953e-11
5.91442e-11
5.78929e-11
5.66409e-11
5.53883e-11
5.41352e-11
5.28816e-11
5.16275e-11
5.0373e-11
4.91192e-11
7.16935e-11
7.04389e-11
6.91823e-11
6.79252e-11
6.66679e-11
6.54107e-11
6.41538e-11
6.28972e-11
6.16412e-11
6.03857e-11
7.04388e-11
6.91852e-11
6.79296e-11
6.6673e-11
6.5416e-11
6.41591e-11
6.29024e-11
6.16461e-11
6.03902e-11
5.91347e-11
6.91822e-11
6.79294e-11
6.66751e-11
6.54195e-11
6.41631e-11
6.29067e-11
6.16504e-11
6.03944e-11
5.91388e-11
5.78836e-11
6.79251e-11
6.66729e-11
6.54193e-11
6.41647e-11
6.29093e-11
6.16534e-11
6.03976e-11
5.91419e-11
5.78867e-11
5.66319e-11
6.66679e-11
6.5416e-11
6.4163e-11
6.29092e-11
6.16546e-11
6.03995e-11
5.91441e-11
5.78889e-11
5.66339e-11
5.53797e-11
6.54107e-11
6.41591e-11
6.29067e-11
6.16533e-11
6.03994e-11
5.91451e-11
5.78903e-11
5.66354e-11
5.53808e-11
5.41271e-11
6.41538e-11
6.29024e-11
6.16504e-11
6.03975e-11
5.9144e-11
5.78902e-11
5.66361e-11
5.53818e-11
5.41273e-11
5.28741e-11
6.28972e-11
6.16461e-11
6.03944e-11
5.91419e-11
5.78888e-11
5.66353e-11
5.53816e-11
5.41277e-11
5.28736e-11
5.16207e-11
6.16412e-11
6.03902e-11
5.91388e-11
5.78867e-11
5.66339e-11
5.53808e-11
5.41272e-11
5.28735e-11
5.16196e-11
5.0367e-11
6.03856e-11
5.91347e-11
5.78835e-11
5.66319e-11
5.53797e-11
5.41271e-11
5.28741e-11
5.16207e-11
5.03669e-11
4.91138e-11
7.16754e-11
7.04216e-11
6.91662e-11
6.79103e-11
6.66543e-11
6.53984e-11
6.41427e-11
6.28873e-11
6.16323e-11
6.03777e-11
7.04215e-11
6.91685e-11
6.79139e-11
6.66584e-11
6.54027e-11
6.4147e-11
6.28915e-11
6.16363e-11
6.03814e-11
5.91269e-11
6.91661e-11
6.79137e-11
6.66601e-11
6.54055e-11
6.41503e-11
6.2895e-11
6.16398e-11
6.03848e-11
5.91302e-11
5.78759e-11
6.79103e-11
6.66583e-11
6.54054e-11
6.41516e-11
6.28971e-11
6.16422e-11
6.03874e-11
5.91327e-11
5.78784e-11
5.66244e-11
6.66543e-11
6.54027e-11
6.41502e-11
6.2897e-11
6.16432e-11
6.0389e-11
5.91345e-11