/*--------------------------------*- C++ -*----------------------------------*\
| =========                 |                                                 |
| \\      /  F ield         | foam-extend: Open Source CFD                    |
|  \\    /   O peration     | Version:     3.1                                |
|   \\  /    A nd           | Web:         http://www.extend-project.de       |
|    \\/     M anipulation  |                                                 |
\*---------------------------------------------------------------------------*/
FoamFile
{
    version     2.0;
    format      ascii;
    class       volVectorField;
    location    "1.7";
    object      D;
}
// * * * * * * * * * * * * * * * * * * * * * * * * * * * * * * * * * * * * * //

dimensions      [0 1 0 0 0 0 0];

internalField   nonuniform List<vector> 
256
(
(0.000206039 0.000113543 0.00017681)
(0.000107546 1.96845e-05 5.72786e-05)
(9.37807e-05 -3.05825e-05 -5.25994e-05)
(0.000160179 -0.000118747 -0.000175091)
(0.000803055 0.000468552 8.09219e-05)
(0.000667506 0.000128654 3.68522e-05)
(0.000634018 -0.000127409 -6.57033e-05)
(0.000698462 -0.000454973 -0.000133583)
(0.00151092 0.00072484 -1.11412e-05)
(0.00137157 0.000225246 -1.22866e-05)
(0.00132851 -0.000202178 -5.71944e-05)
(0.00138001 -0.000695433 -8.32584e-05)
(0.00232424 0.000929372 -0.000112189)
(0.00219578 0.000302521 -5.76828e-05)
(0.00214804 -0.000261794 -4.59562e-05)
(0.00217903 -0.000885885 -1.77651e-05)
(0.00320794 0.00107706 -0.000203812)
(0.00309047 0.000358219 -9.80409e-05)
(0.00304066 -0.000306924 -3.2304e-05)
(0.00305532 -0.00102396 4.74672e-05)
(0.00413085 0.00117947 -0.000281822)
(0.00402386 0.000395427 -0.000132309)
(0.00397379 -0.000341125 -1.95773e-05)
(0.00397639 -0.00112105 0.000106624)
(0.00507017 0.00124698 -0.000343883)
(0.00496998 0.00041733 -0.000162818)
(0.00491996 -0.000367235 -1.11495e-05)
(0.00491671 -0.00118666 0.000153522)
(0.0060195 0.00128808 -0.000392836)
(0.0059115 0.000429568 -0.000192345)
(0.00585689 -0.00038679 -1.01178e-05)
(0.00585707 -0.00123003 0.00017898)
(0.000210634 0.000114263 7.3317e-05)
(0.000109812 2.25165e-05 2.61572e-05)
(9.51845e-05 -2.89121e-05 -2.70223e-05)
(0.000158808 -0.000113975 -7.90734e-05)
(0.000794098 0.000471869 2.26157e-05)
(0.000645403 0.000136474 9.13889e-06)
(0.00061169 -0.000121563 -3.86007e-05)
(0.000686349 -0.000445392 -6.72834e-05)
(0.00145977 0.000740118 -4.46946e-05)
(0.00132349 0.000239579 -2.57019e-05)
(0.00128117 -0.0001971 -3.70044e-05)
(0.00132857 -0.000691737 -3.39391e-05)
(0.00223066 0.000947043 -0.00012118)
(0.00210668 0.000319122 -6.12971e-05)
(0.00206013 -0.000254398 -3.06492e-05)
(0.00208583 -0.00087965 1.26004e-05)
(0.00307208 0.0010956 -0.000193919)
(0.00296078 0.000376108 -9.39863e-05)
(0.00291225 -0.000296609 -2.18152e-05)
(0.00292003 -0.0010136 6.18761e-05)
(0.00395662 0.00119677 -0.000257448)
(0.00385641 0.000413547 -0.000122618)
(0.00380761 -0.000326828 -1.35166e-05)
(0.00380261 -0.00110416 0.000107104)
(0.00486219 0.00126117 -0.000308837)
(0.00477017 0.000434514 -0.000148125)
(0.00472173 -0.000347902 -9.48596e-06)
(0.00470968 -0.00116085 0.000141494)
(0.00578425 0.00129758 -0.00034666)
(0.00568497 0.000444481 -0.00017119)
(0.00563235 -0.000361928 -1.44205e-05)
(0.00562403 -0.00119402 0.000154134)
(0.000208856 0.000114922 2.24575e-05)
(0.000101226 2.41854e-05 8.44264e-06)
(8.43863e-05 -2.87096e-05 -1.24928e-05)
(0.000149838 -0.000113236 -2.93642e-05)
(0.000773575 0.000461635 -1.31216e-05)
(0.000612765 0.000137259 -7.55044e-06)
(0.000575605 -0.000114366 -2.05442e-05)
(0.000655451 -0.000428208 -2.34996e-05)
(0.00141016 0.000729381 -6.32235e-05)
(0.00126457 0.000242977 -3.33145e-05)
(0.00121881 -0.000185563 -2.14505e-05)
(0.00126905 -0.000667002 2.3812e-07)
(0.00214866 0.000937727 -0.000120334)
(0.00201791 0.000325228 -6.06081e-05)
(0.00196814 -0.000238614 -1.82926e-05)
(0.00199448 -0.000848634 3.32962e-05)
(0.00295801 0.00108934 -0.000176296)
(0.00284153 0.000385076 -8.63958e-05)
(0.00278996 -0.000276911 -1.30927e-05)
(0.00279709 -0.000977738 6.92276e-05)
(0.00381234 0.00119393 -0.000226508)
(0.00370834 0.000425136 -0.000109683)
(0.00365679 -0.00030331 -8.39834e-06)
(0.00365002 -0.00106369 0.00010236)
(0.00469064 0.00126168 -0.000267834)
(0.00459649 0.000448148 -0.000130748)
(0.00454567 -0.000320619 -7.82046e-06)
(0.00453057 -0.00111563 0.000126143)
(0.00559006 0.0013014 -0.000296914)
(0.00549016 0.000459649 -0.000149506)
(0.00543481 -0.000331066 -1.64572e-05)
(0.00542098 -0.001144 0.000129295)
(0.000203495 0.000114117 -8.06171e-07)
(9.22725e-05 2.4683e-05 -6.1424e-08)
(7.37258e-05 -2.81735e-05 -4.55253e-06)
(0.000139327 -0.000111069 -4.99487e-06)
(0.000748092 0.000450834 -2.93417e-05)
(0.000580487 0.000136538 -1.44473e-05)
(0.000540195 -0.000107571 -9.58374e-06)
(0.000621257 -0.000410937 5.76384e-07)
(0.00136055 0.000714866 -6.76384e-05)
(0.00120804 0.0002434 -3.39359e-05)
(0.00115897 -0.000173311 -1.09538e-05)
(0.00121065 -0.000639755 1.8691e-05)
(0.00207351 0.000923316 -0.000110363)
(0.00193678 0.000327995 -5.46437e-05)
(0.00188387 -0.000221528 -9.45999e-06)
(0.00191108 -0.000814072 4.26274e-05)
(0.00285783 0.00107742 -0.000152843)
(0.00273636 0.000390824 -7.46187e-05)
(0.0026819 -0.000255569 -6.56265e-06)
(0.00268929 -0.000937816 6.86178e-05)
(0.00368852 0.00118558 -0.000191779)
(0.00358058 0.000434002 -9.31669e-05)
(0.00352644 -0.000278213 -4.3086e-06)
(0.00351929 -0.00101951 9.23728e-05)
(0.00454516 0.00125716 -0.000224401)
(0.0044482 0.000459837 -0.000110324)
(0.00439501 -0.000292222 -5.80169e-06)
(0.00437865 -0.00106776 0.000108274)
(0.00542585 0.00130042 -0.000246768)
(0.00532373 0.000473844 -0.000125629)
(0.00526536 -0.000299793 -1.55739e-05)
(0.00524864 -0.00109283 0.000106295)
(0.000197805 0.000112641 -9.44096e-06)
(8.50046e-05 2.47935e-05 -3.28262e-06)
(6.53094e-05 -2.75221e-05 -5.93528e-07)
(0.000130079 -0.000108397 5.27866e-06)
(0.000724046 0.000441729 -3.23854e-05)
(0.000552926 0.000135827 -1.52397e-05)
(0.000510368 -0.000101752 -3.4113e-06)
(0.000590893 -0.000395938 1.11142e-05)
(0.00131649 0.00070233 -6.12711e-05)
(0.00115967 0.000243435 -2.97618e-05)
(0.00110819 -0.000162489 -4.54439e-06)
(0.00116011 -0.000615922 2.50265e-05)
(0.0020091 0.000910419 -9.26979e-05)
(0.00186818 0.000329912 -4.50789e-05)
(0.00181302 -0.000206247 -3.85185e-06)
(0.00184065 -0.000783527 4.23018e-05)
(0.00277384 0.00106627 -0.000124137)
(0.00264864 0.00039528 -6.00648e-05)
(0.00259215 -0.00023639 -2.32168e-06)
(0.0025999 -0.000902277 6.07926e-05)
(0.00358611 0.00117723 -0.000153387)
(0.00347507 0.000441178 -7.43009e-05)
(0.00341914 -0.000255687 -1.51066e-06)
(0.00341211 -0.000980115 7.73973e-05)
(0.0044256 0.00125179 -0.000178239)
(0.00432627 0.000469498 -8.77233e-05)
(0.00427143 -0.000266879 -3.85443e-06)
(0.00425466 -0.0010252 8.77107e-05)
(0.00529066 0.00129769 -0.000194931)
(0.00518658 0.000485679 -9.97042e-05)
(0.00512606 -0.000272061 -1.29212e-05)
(0.00510785 -0.0010476 8.36925e-05)
(0.000193105 0.000111189 -1.04074e-05)
(7.97339e-05 2.47807e-05 -3.67541e-06)
(5.9288e-05 -2.69156e-05 9.48805e-07)
(0.000122984 -0.000105972 7.75747e-06)
(0.000704635 0.00043485 -2.74358e-05)
(0.000531828 0.00013538 -1.2584e-05)
(0.000487757 -9.71986e-05 -4.32696e-07)
(0.000567209 -0.000384209 1.2995e-05)
(0.00128156 0.000692932 -4.78274e-05)
(0.00112226 0.000243589 -2.27249e-05)
(0.00106918 -0.000153956 -1.18017e-06)
(0.00112084 -0.000597349 2.30296e-05)
(0.00195869 0.000900678 -6.95766e-05)
(0.00181513 0.000331506 -3.33394e-05)
(0.00175849 -0.000194143 -8.65988e-07)
(0.00178626 -0.000759659 3.48597e-05)
(0.0027087 0.00105771 -9.13909e-05)
(0.00258102 0.000398809 -4.38255e-05)
(0.00252324 -0.000221168 -1.13309e-07)
(0.00253128 -0.0008744 4.73121e-05)
(0.00350716 0.0011706 -0.000111888)
(0.00339397 0.000446764 -5.39529e-05)
(0.00333695 -0.000237811 -1.09806e-08)
(0.00333014 -0.000949124 5.82883e-05)
(0.00433364 0.00124719 -0.000129469)
(0.00423261 0.000476942 -6.36292e-05)
(0.00417676 -0.000246811 -2.28344e-06)
(0.00415996 -0.000991672 6.46598e-05)
(0.00518646 0.00129478 -0.000141109)
(0.0050809 0.000494727 -7.22568e-05)
(0.00501906 -0.000250156 -9.44251e-06)
(0.00500021 -0.00101197 6.06464e-05)
(0.000189868 0.000110089 -7.45137e-06)
(7.63561e-05 2.47419e-05 -2.63602e-06)
(5.54514e-05 -2.64596e-05 1.06586e-06)
(0.000118251 -0.000104193 6.02185e-06)
(0.000691277 0.000430265 -1.7957e-05)
(0.00051773 0.000135146 -8.11176e-06)
(0.000472735 -9.4082e-05 5.00045e-07)
(0.000551204 -0.000376213 9.64212e-06)
(0.00125763 0.000686747 -3.01482e-05)
(0.001097 0.000243802 -1.41276e-05)
(0.00104295 -0.000148109 9.81184e-08)
(0.00109425 -0.000584733 1.57438e-05)
(0.00192428 0.000894278 -4.29874e-05)
(0.0017792 0.000332704 -2.03926e-05)
(0.00172168 -0.000185842 2.30885e-07)
(0.00174944 -0.000743445 2.26886e-05)
(0.00266437 0.00105205 -5.58808e-05)
(0.00253518 0.000401301 -2.66203e-05)
(0.00247665 -0.000210727 5.58441e-07)
(0.00248486 -0.000855435 2.99031e-05)
(0.00345352 0.00116613 -6.80684e-05)
(0.003339 0.000450611 -3.26981e-05)
(0.00328136 -0.000225556 4.38522e-07)
(0.00327476 -0.000928005 3.61719e-05)
(0.00427117 0.00124393 -7.85815e-05)
(0.00416906 0.000481997 -3.85507e-05)
(0.00411267 -0.000233069 -1.15101e-06)
(0.00409596 -0.000968801 3.96318e-05)
(0.00511556 0.00129251 -8.54768e-05)
(0.00500904 0.000500816 -4.3757e-05)
(0.00494647 -0.000235173 -5.68941e-06)
(0.0049274 -0.000987632 3.68196e-05)
(0.000188228 0.000109505 -2.66137e-06)
(7.47122e-05 2.47154e-05 -9.41117e-07)
(5.35898e-05 -2.62172e-05 4.33204e-07)
(0.000115894 -0.000103262 2.21459e-06)
(0.000684504 0.000427976 -6.21259e-06)
(0.000510696 0.00013505 -2.78614e-06)
(0.000465263 -9.2501e-05 2.894e-07)
(0.00054317 -0.000372171 3.50457e-06)
(0.0012455 0.000683684 -1.02733e-05)
(0.00108431 0.000243947 -4.78196e-06)
(0.0010298 -0.000145143 1.65028e-07)
(0.00108087 -0.000578367 5.55539e-06)
(0.00190685 0.000891115 -1.45243e-05)
(0.00176109 0.00033335 -6.85555e-06)
(0.00170316 -0.000181633 2.014e-07)
(0.00173089 -0.000735267 7.84919e-06)
(0.00264193 0.00104925 -1.87956e-05)
(0.00251206 0.000402594 -8.92315e-06)
(0.00245318 -0.000205434 2.91009e-07)
(0.00246147 -0.000845867 1.02154e-05)
(0.00342638 0.00116388 -2.28446e-05)
(0.00331125 0.000452575 -1.09511e-05)
(0.00325333 -0.000219348 2.2187e-07)
(0.00324684 -0.000917346 1.22559e-05)
(0.00423955 0.00124223 -2.63469e-05)
(0.00413694 0.000484553 -1.29107e-05)
(0.00408032 -0.000226111 -3.44055e-07)
(0.00406369 -0.000957253 1.33526e-05)
(0.00507962 0.00129123 -2.86334e-05)
(0.00497267 0.000503885 -1.46507e-05)
(0.00490977 -0.000227584 -1.89426e-06)
(0.00489065 -0.000975341 1.2353e-05)
)
;

boundaryField
{
    interface
    {
        type            tractionDisplacement;
        gradient        nonuniform List<vector> 
192
(
(0.0168014 0.0255554 -0.00074428)
(0.00802628 0.023866 -0.002021)
(0.00910787 0.0298946 -0.00405103)
(0.00774473 0.0330635 -0.00617542)
(0.0068712 0.0355305 -0.00805559)
(0.00605833 0.0369778 -0.00968178)
(0.00570588 0.0379254 -0.0109609)
(0.00535853 0.0395544 -0.0116979)
(0.0170909 0.0254487 -0.000476047)
(0.00927004 0.022547 -0.00132702)
(0.00932447 0.0280099 -0.0027521)
(0.00814209 0.0313538 -0.00433284)
(0.00721287 0.0339448 -0.00580091)
(0.00643649 0.0356444 -0.00713669)
(0.00605887 0.0368924 -0.00827349)
(0.00563863 0.0390375 -0.00907986)
(0.017213 0.0252183 -0.000535667)
(0.0095732 0.0216128 -0.00141552)
(0.00953982 0.02667 -0.00247658)
(0.00825946 0.0300405 -0.00364367)
(0.00724383 0.032695 -0.00478966)
(0.0064144 0.0345373 -0.00584967)
(0.00600355 0.0359624 -0.00678423)
(0.00546325 0.0384126 -0.0075131)
(0.0171432 0.0247287 -0.000505188)
(0.00979203 0.0208365 -0.00132509)
(0.00980128 0.0256878 -0.00217651)
(0.0084983 0.0290198 -0.00307657)
(0.00743363 0.0317182 -0.00395944)
(0.00655696 0.0336485 -0.00478775)
(0.00610547 0.0351871 -0.00553935)
(0.00549559 0.0378155 -0.00616931)
(0.0169638 0.024191 -0.000423217)
(0.00990265 0.0201906 -0.0011149)
(0.00997652 0.0249258 -0.00178768)
(0.0086938 0.0282404 -0.00247864)
(0.00761402 0.0309685 -0.00314931)
(0.00670962 0.0329544 -0.00378239)
(0.00622905 0.0345605 -0.00437101)
(0.00556126 0.037288 -0.00489028)
(0.0167701 0.0237234 -0.000312634)
(0.00994788 0.0196867 -0.000828515)
(0.0100803 0.0243524 -0.00131795)
(0.00882918 0.0276643 -0.00181398)
(0.00775163 0.0304152 -0.00229192)
(0.00683535 0.0324363 -0.0027445)
(0.00633771 0.0340797 -0.00317113)
(0.00563612 0.0368617 -0.00355745)
(0.0166175 0.0233888 -0.000189996)
(0.0099596 0.0193417 -0.000506208)
(0.0101336 0.023966 -0.000803639)
(0.00890954 0.02728 -0.00110372)
(0.00783899 0.0300469 -0.00139195)
(0.00691885 0.032089 -0.00166554)
(0.00641206 0.0337525 -0.00192514)
(0.00569113 0.0365631 -0.00216341)
(0.0165346 0.0232159 -6.34733e-05)
(0.00995946 0.0191669 -0.000169772)
(0.0101546 0.0237713 -0.000269508)
(0.00894545 0.0270871 -0.000370052)
(0.00787989 0.0298622 -0.000466552)
(0.00695903 0.0319146 -0.0005583)
(0.00644751 0.0335873 -0.000645503)
(0.00571728 0.0364073 -0.000725964)
(4.5152e-05 0.00589928 0.00835282)
(0.000985443 -0.00463465 0.000749033)
(0.00362129 -0.00376749 0.00152412)
(0.00586935 -0.00409675 0.00033554)
(0.00804073 -0.00361768 -0.000264232)
(0.009865 -0.00303736 -0.000818285)
(0.011286 -0.00245959 -0.00109715)
(0.0123509 -0.00145114 -0.0016808)
(-0.00199291 0.00249919 0.00176138)
(-0.00268713 -0.00186562 0.000155839)
(3.27938e-05 -0.00160735 -6.28654e-05)
(0.00242268 -0.00171492 -0.00048854)
(0.00475434 -0.00157358 -0.000731655)
(0.00674577 -0.00143879 -0.000923375)
(0.00840774 -0.0013806 -0.00105058)
(0.0098081 -0.00107898 -0.0014404)
(-0.00224789 -0.00285596 -0.00185494)
(-0.00315415 0.000778351 -0.000511958)
(-0.000581453 0.000559233 -0.000617272)
(0.00180668 0.000700604 -0.000460037)
(0.00413114 0.000555197 -0.000352373)
(0.00617026 0.000315329 -0.000223541)
(0.00793565 -2.94678e-05 -9.58004e-05)
(0.00936547 -0.000484035 0.000254245)
(-0.000946194 -0.00705414 -0.00777893)
(-0.000599859 0.00301963 -0.00128884)
(0.00156107 0.00251812 -0.0021397)
(0.00365283 0.00292744 -0.00121806)
(0.00573693 0.00256086 -0.00072814)
(0.00761594 0.00204476 -0.000228347)
(0.00924883 0.00131816 0.000148586)
(0.0105029 2.75581e-06 0.000775115)
(0.0130569 -0.0221929 -7.75942e-05)
(0.00527248 -0.022684 0.00043702)
(0.00525868 -0.0294863 0.0019825)
(0.00346585 -0.0330926 0.00390274)
(0.00225662 -0.0357103 0.00575188)
(0.00128284 -0.0371174 0.00750587)
(0.000780103 -0.0377192 0.00907564)
(0.000714437 -0.0378867 0.0103015)
(0.0127734 -0.022181 0.000146246)
(0.00611165 -0.0217892 0.000872367)
(0.00511215 -0.0277941 0.00212778)
(0.00342852 -0.0314462 0.0036364)
(0.00215776 -0.0340638 0.00511754)
(0.00119912 -0.0355882 0.00653941)
(0.000658904 -0.0363532 0.00783857)
(0.000666251 -0.0368379 0.00902498)
(0.0126817 -0.0215426 0.000337697)
(0.00637221 -0.0209103 0.00122667)
(0.00532148 -0.0265041 0.00226)
(0.00356783 -0.0301361 0.00341227)
(0.00222015 -0.0327584 0.00457613)
(0.00119517 -0.0343568 0.00569774)
(0.000592109 -0.0352094 0.00676189)
(0.000463257 -0.0357458 0.00779088)
(0.0124307 -0.0206441 0.000384099)
(0.00652171 -0.0200758 0.00124983)
(0.00550011 -0.0255123 0.00212375)
(0.003738 -0.0291064 0.00303792)
(0.00234761 -0.0317395 0.00394224)
(0.00127416 -0.0333766 0.00481663)
(0.000609694 -0.03426 0.00565856)
(0.000410779 -0.0347899 0.00649381)
(0.0121146 -0.0197694 0.000347362)
(0.00657406 -0.0193515 0.00108233)
(0.00559841 -0.0247146 0.00178538)
(0.00386077 -0.0283057 0.00249702)
(0.00246041 -0.030954 0.00318778)
(0.00135915 -0.0326151 0.00385276)
(0.000651369 -0.033509 0.00449782)
(0.000406098 -0.0340139 0.0051491)
(0.011824 -0.0190541 0.000267368)
(0.0065735 -0.0187812 0.000815782)
(0.0056415 -0.0241042 0.00132994)
(0.00393657 -0.0277068 0.00184363)
(0.0025408 -0.0303726 0.00233685)
(0.00142761 -0.0320507 0.00280952)
(0.000694933 -0.0329469 0.0032688)
(0.000427102 -0.0334263 0.0037356)
(0.0116096 -0.0185585 0.000166477)
(0.00655464 -0.018391 0.000502496)
(0.00565497 -0.0236903 0.000815247)
(0.00397745 -0.0273049 0.00112643)
(0.00258986 -0.0299849 0.00142383)
(0.0014733 -0.0316747 0.00170814)
(0.000728292 -0.0325715 0.00198462)
(0.000450329 -0.0330324 0.00226562)
(0.0114971 -0.0183067 5.63356e-05)
(0.00653993 -0.0181935 0.000169263)
(0.00565705 -0.0234813 0.00027413)
(0.00399464 -0.0271027 0.00037839)
(0.00261258 -0.0297904 0.000477882)
(0.00149569 -0.0314861 0.000572946)
(0.000746267 -0.0323836 0.000665467)
(0.000464175 -0.0328351 0.000759232)
(0.0397748 0.0013278 -0.00079974)
(0.0392544 0.0010706 -0.000191545)
(0.0387164 0.00130719 -6.26027e-05)
(0.0381602 0.00144177 8.31234e-05)
(0.0376407 0.00155654 0.000128905)
(0.0372153 0.00162929 0.000123164)
(0.0369155 0.00167234 8.4014e-05)
(0.0367594 0.0016886 2.94774e-05)
(0.0359247 0.00121174 -0.000518168)
(0.0353226 0.00106689 -0.000379142)
(0.0346998 0.00116108 -0.000407655)
(0.0340752 0.00127276 -0.000350664)
(0.0334832 0.00137734 -0.000279056)
(0.0329972 0.00145556 -0.000199506)
(0.0326573 0.00150699 -0.000119185)
(0.0324846 0.00153313 -3.94621e-05)
(0.0352636 -0.000758484 -0.000361435)
(0.034592 -0.000458696 -0.000794702)
(0.0338141 -0.000351117 -0.000943673)
(0.0330724 -0.000247795 -0.000931739)
(0.0324095 -0.000158091 -0.000795893)
(0.0318798 -8.651e-05 -0.00059629)
(0.0315143 -3.67697e-05 -0.00036578)
(0.0313285 -1.04761e-05 -0.000122868)
(0.037342 -0.00135937 -0.000355415)
(0.036465 -0.000881011 -0.00144585)
(0.0354867 -0.00083945 -0.0016884)
(0.0345967 -0.000767525 -0.0016431)
(0.033847 -0.000703632 -0.00139199)
(0.0332696 -0.000641955 -0.00104009)
(0.0328786 -0.000595288 -0.000637891)
(0.0326803 -0.000570383 -0.000214508)
)
;
        traction        nonuniform List<vector> 
192
(
(22.5737 -0.505772 -2.40473)
(22.6963 -0.472072 -4.06627)
(22.4943 -0.504931 -4.70501)
(22.3931 -0.33968 -4.95577)
(22.4592 -0.0163043 -5.00616)
(22.7223 0.540887 -4.89081)
(23.1044 1.56497 -4.56061)
(22.2839 3.19125 -3.82969)
(24.9612 -0.725958 -1.62578)
(25.3975 -0.687631 -2.79727)
(25.7769 -0.70292 -3.23342)
(26.0627 -0.470954 -3.37773)
(26.2411 -0.0353132 -3.36423)
(26.3148 0.69546 -3.21784)
(25.989 2.01036 -2.91416)
(23.0947 3.91988 -2.37356)
(26.2727 -0.776665 -1.08814)
(26.585 -0.71627 -1.88404)
(26.978 -0.719396 -2.14757)
(27.2745 -0.451925 -2.20445)
(27.3822 0.0538382 -2.15633)
(27.2516 0.893483 -2.0256)
(26.4756 2.36705 -1.80943)
(22.6248 4.36103 -1.47505)
(27.1123 -0.772485 -0.749912)
(27.302 -0.690446 -1.31335)
(27.6262 -0.681502 -1.48697)
(27.864 -0.389693 -1.50644)
(27.8816 0.161298 -1.45414)
(27.5921 1.06842 -1.35027)
(26.5353 2.63408 -1.20183)
(22.1349 4.65575 -0.98538)
(27.6677 -0.755699 -0.514521)
(27.7791 -0.654949 -0.912221)
(28.0382 -0.632116 -1.03086)
(28.2133 -0.322735 -1.03561)
(28.1563 0.256911 -0.991183)
(27.7539 1.20641 -0.914478)
(26.5156 2.83039 -0.814373)
(21.75 4.86437 -0.670569)
(28.0291 -0.738878 -0.336565)
(28.094 -0.623568 -0.602595)
(28.3053 -0.588466 -0.680951)
(28.4311 -0.266458 -0.681164)
(28.3198 0.331686 -0.648468)
(27.841 1.30771 -0.59604)
(26.4854 2.96933 -0.531048)
(21.4748 5.00936 -0.437974)
(28.25 -0.726771 -0.189571)
(28.2897 -0.601593 -0.341874)
(28.4708 -0.557453 -0.386321)
(28.5643 -0.227116 -0.385481)
(28.418 0.382394 -0.365751)
(27.8918 1.37461 -0.335136)
(26.4645 3.05932 -0.296511)
(21.3039 5.09947 -0.241279)
(28.3479 -0.719735 -0.0605498)
(28.3744 -0.589388 -0.109713)
(28.5384 -0.540715 -0.123877)
(28.6156 -0.206638 -0.123399)
(28.4526 0.408362 -0.116841)
(27.905 1.41013 -0.10675)
(26.431 3.10786 -0.0931574)
(21.1893 5.13686 -0.0736857)
(3.21253 0.721646 10.1069)
(5.64796 1.07926 6.24087)
(6.72394 0.977822 3.01756)
(7.2911 0.788766 1.04159)
(7.6383 0.703756 0.0938697)
(7.91124 0.789028 -0.0322645)
(8.27082 1.07645 0.577466)
(9.16351 1.45487 1.88628)
(2.14022 0.620008 9.4631)
(4.02165 1.02489 7.7528)
(4.72563 1.01789 5.80764)
(4.9984 0.765611 4.48953)
(5.13018 0.50521 3.84715)
(5.26924 0.344073 3.76448)
(5.60079 0.328788 4.12972)
(6.76226 0.361813 4.59384)
(1.70372 0.475623 9.21853)
(3.49993 0.803816 8.56294)
(4.21289 0.869804 7.33696)
(4.44796 0.643572 6.38974)
(4.51798 0.3486 5.94113)
(4.59869 0.10209 5.90829)
(4.8925 -0.0498862 6.22514)
(6.05939 -0.145492 6.61255)
(1.6197 0.476845 8.7552)
(3.55607 0.725834 8.37538)
(4.38842 0.782512 7.25565)
(4.66295 0.539218 6.41573)
(4.72886 0.227246 6.02714)
(4.78841 -0.050097 5.95714)
(5.05297 -0.295077 6.09332)
(6.16451 -0.592412 6.39826)
(-7.08951 0.618416 0.256566)
(-5.50423 0.937326 0.719838)
(-4.1248 0.957439 0.795164)
(-3.47418 0.699559 0.746296)
(-3.32268 0.424894 0.751913)
(-3.19062 0.233023 0.890012)
(-2.25429 -0.0427089 1.2247)
(1.64188 -1.52208 1.799)
(-9.40892 0.390964 -0.311598)
(-9.24835 0.600073 -0.257667)
(-9.0182 0.703051 -0.305369)
(-9.02122 0.646474 -0.379885)
(-9.07187 0.593779 -0.368464)
(-8.76795 0.614858 -0.228555)
(-7.39981 0.574351 0.0571912)
(-2.41857 -0.842727 0.542302)
(-10.8463 0.269233 -0.348163)
(-11.082 0.392883 -0.324579)
(-11.1833 0.535024 -0.299751)
(-11.3133 0.600031 -0.293179)
(-11.3178 0.687411 -0.240816)
(-10.8683 0.851832 -0.110907)
(-9.14303 0.939507 0.098354)
(-3.97118 -0.361104 0.381227)
(-11.8851 0.225228 -0.273681)
(-12.2193 0.304421 -0.232661)
(-12.4383 0.464837 -0.168505)
(-12.6041 0.603247 -0.124104)
(-12.5604 0.788942 -0.0582138)
(-11.9137 1.05019 0.052772)
(-9.88776 1.20251 0.19845)
(-4.52057 -0.0513946 0.368993)
(-12.625 0.211317 -0.18883)
(-12.9817 0.275215 -0.140765)
(-13.2495 0.450342 -0.0695947)
(-13.4118 0.636553 -0.0164365)
(-13.2844 0.8829 0.0448052)
(-12.4873 1.19952 0.125026)
(-10.2737 1.38613 0.215331)
(-4.77389 0.151354 0.317398)
(-13.1203 0.208773 -0.117491)
(-13.4722 0.271767 -0.0740125)
(-13.7463 0.459236 -0.0137074)
(-13.8855 0.67364 0.031937)
(-13.6959 0.954153 0.0775732)
(-12.8019 1.3007 0.129296)
(-10.4773 1.50513 0.181458)
(-4.89925 0.279263 0.239278)
(-13.4226 0.209216 -0.0630159)
(-13.7686 0.275851 -0.0337795)
(-14.0354 0.472321 0.00500907)
(-14.1532 0.70227 0.0343558)
(-13.9234 1.00074 0.0617014)
(-12.9697 1.36264 0.0906648)
(-10.5803 1.57512 0.118199)
(-4.95744 0.352986 0.145206)
(-13.5646 0.209562 -0.0198058)
(-13.9074 0.278762 -0.00971135)
(-14.1697 0.479901 0.0033667)
(-14.2763 0.716961 0.0132607)
(-14.0262 1.02361 0.022229)
(-13.0456 1.39273 0.0316728)
(-10.619 1.60581 0.0405447)
(-4.98737 0.384137 0.047389)
(9.38849 -1.4517 -1.52012)
(8.70824 0.617634 -1.13993)
(8.62191 2.30018 -0.780229)
(8.68446 3.65108 -0.534583)
(8.77581 4.6797 -0.368419)
(8.85946 5.4209 -0.247365)
(8.92164 5.89129 -0.153404)
(8.95025 6.05768 -0.0558159)
(6.72148 -4.15853 -0.144141)
(5.51546 -3.19995 -0.051938)
(5.20175 -2.04741 0.0690638)
(5.12043 -1.06588 0.107751)
(5.10844 -0.307816 0.100697)
(5.11795 0.243238 0.0766357)
(5.13522 0.610382 0.0469543)
(5.15515 0.815868 0.0157941)
(5.87698 -6.19937 0.46387)
(4.5937 -5.45868 0.447851)
(4.19792 -4.61433 0.437047)
(4.04934 -3.88671 0.380334)
(3.98444 -3.31049 0.299461)
(3.95357 -2.89587 0.213546)
(3.93913 -2.62421 0.130119)
(3.93259 -2.47739 0.0446825)
(5.93072 -6.09665 0.896907)
(4.69995 -5.54201 0.692707)
(4.30096 -5.08453 0.568696)
(4.13842 -4.65223 0.466713)
(4.05666 -4.29744 0.361388)
(4.01088 -4.03393 0.255939)
(3.98432 -3.86061 0.152646)
(3.9662 -3.78128 0.0507473)
)
;
        pressure        uniform 0;
        value           nonuniform List<vector> 
192
(
(0.000416057 0.000432985 0.000167507)
(0.000903384 0.000766877 5.56595e-05)
(0.00162477 0.00109852 -6.17791e-05)
(0.00242105 0.00134267 -0.000189381)
(0.00329383 0.00152119 -0.000304507)
(0.00420658 0.00164169 -0.000402844)
(0.00514149 0.00172105 -0.000480895)
(0.00608649 0.00178251 -0.00053906)
(0.000424269 0.000432372 6.73664e-05)
(0.000909974 0.000753707 6.028e-06)
(0.00157632 0.00109024 -7.90959e-05)
(0.00233244 0.00133896 -0.000175341)
(0.00316224 0.00151991 -0.000266431)
(0.00403708 0.00164232 -0.000346656)
(0.00493793 0.00172232 -0.000412256)
(0.00585473 0.00178555 -0.000460158)
(0.000424018 0.000430151 1.57616e-05)
(0.00089324 0.000731795 -3.08156e-05)
(0.0015294 0.00106276 -9.41807e-05)
(0.0022519 0.00131323 -0.00016588)
(0.00304856 0.00149803 -0.000236166)
(0.00389252 0.00162565 -0.000299629)
(0.00476568 0.00171121 -0.000352637)
(0.00565835 0.00178155 -0.000390828)
(0.000417785 0.000423227 -7.12103e-06)
(0.000870493 0.00071129 -4.59053e-05)
(0.00148306 0.00103596 -9.48447e-05)
(0.00217974 0.00128606 -0.00014882)
(0.00295075 0.0014739 -0.000202336)
(0.00377049 0.00160619 -0.000251626)
(0.00462148 0.001697 -0.000293643)
(0.00549455 0.00177311 -0.000323884)
(0.000409852 0.000415029 -1.47312e-05)
(0.000847829 0.000694112 -4.63216e-05)
(0.0014412 0.0010139 -8.36171e-05)
(0.00211777 0.00126342 -0.000123681)
(0.00286901 0.00145338 -0.000163504)
(0.00366998 0.00158916 -0.000200667)
(0.00450346 0.0016838 -0.000232876)
(0.00536018 0.00176379 -0.000256059)
(0.000402732 0.000407732 -1.43153e-05)
(0.000828983 0.000680933 -3.77922e-05)
(0.00140756 0.000997336 -6.43017e-05)
(0.00206906 0.00124648 -9.22514e-05)
(0.0028056 0.0014379 -0.00012004)
(0.0035926 0.00157605 -0.000146194)
(0.00441286 0.00167318 -0.000169108)
(0.00525691 0.00175556 -0.000185577)
(0.000397587 0.000402448 -9.82633e-06)
(0.000815772 0.000672036 -2.42846e-05)
(0.0013843 0.000986321 -4.01937e-05)
(0.00203565 0.00123528 -5.67839e-05)
(0.00276236 0.00142764 -7.32802e-05)
(0.00354 0.00156724 -8.88876e-05)
(0.00435132 0.00166584 -0.000102646)
(0.0051867 0.00174955 -0.000112519)
(0.00039491 0.000399704 -3.45478e-06)
(0.000808997 0.000667563 -8.33474e-06)
(0.00137243 0.000980826 -1.36421e-05)
(0.00201867 0.0012297 -1.91499e-05)
(0.00274043 0.00142252 -2.46275e-05)
(0.00351337 0.00156282 -2.98233e-05)
(0.00432014 0.00166207 -3.44157e-05)
(0.00515108 0.00174632 -3.77079e-05)
(0.000206604 0.000187284 0.000281221)
(0.000815373 0.000410618 9.02848e-05)
(0.00155619 0.000677746 7.91032e-06)
(0.00239761 0.000878163 -0.000107994)
(0.00330845 0.00103184 -0.000207115)
(0.00425417 0.0011415 -0.000292051)
(0.00521124 0.00121624 -0.000357598)
(0.00617389 0.00126994 -0.000413846)
(8.26345e-05 5.09245e-05 7.92959e-05)
(0.000633916 0.000105333 3.88002e-05)
(0.00137198 0.000205154 -1.30724e-05)
(0.00222606 0.000281085 -6.37895e-05)
(0.0031499 0.000338549 -0.000107187)
(0.00410819 0.000377442 -0.000143851)
(0.00507508 0.000400073 -0.00017595)
(0.0060341 0.000416081 -0.00021035)
(6.5682e-05 -6.62819e-05 -7.57861e-05)
(0.000594591 -0.00011768 -7.21028e-05)
(0.00132124 -0.000195187 -6.49103e-05)
(0.00217063 -0.000253036 -5.17067e-05)
(0.0030923 -0.000299984 -3.67087e-05)
(0.00405092 -0.000337183 -2.23715e-05)
(0.00501916 -0.000367604 -1.2347e-05)
(0.00597396 -0.000392841 -6.93969e-06)
(0.000148351 -0.000206923 -0.000272328)
(0.000690964 -0.000417227 -0.000149694)
(0.00139953 -0.000663956 -0.000110005)
(0.0022247 -0.000849292 -3.29909e-05)
(0.00312703 -0.000991948 3.83654e-05)
(0.00407159 -0.00109549 0.00010377)
(0.00503232 -0.00117018 0.000155379)
(0.00598836 -0.00122999 0.000188669)
(0.00032339 -0.000396158 -0.000176061)
(0.000764368 -0.000738523 -0.000128121)
(0.00144575 -0.00106401 -5.84771e-05)
(0.00222236 -0.00129954 3.10191e-05)
(0.00308353 -0.00147034 0.000119366)
(0.00399242 -0.00158502 0.000200447)
(0.00492646 -0.00165815 0.000266967)
(0.005866 -0.00170361 0.000307749)
(0.000318476 -0.000391237 -7.72453e-05)
(0.000762745 -0.000717757 -5.63788e-05)
(0.00139247 -0.00103916 -7.34186e-06)
(0.00212869 -0.00127273 5.80554e-05)
(0.002947 -0.0014394 0.000125845)
(0.0038176 -0.00154902 0.000188846)
(0.00471792 -0.00161526 0.000239477)
(0.00563236 -0.00165449 0.000266947)
(0.000308358 -0.000382518 -2.5143e-05)
(0.000735103 -0.000689587 -8.16617e-06)
(0.00133557 -0.000998304 2.84881e-05)
(0.00203908 -0.00122534 7.59496e-05)
(0.00282484 -0.00138722 0.000126429)
(0.00366496 -0.00149315 0.000173582)
(0.00453797 -0.00155575 0.000210667)
(0.00542677 -0.00159082 0.000226681)
(0.000294711 -0.000369121 -1.93636e-07)
(0.000702778 -0.000661885 1.61992e-05)
(0.0012794 -0.000958659 4.52378e-05)
(0.0019578 -0.0011779 8.06014e-05)
(0.00271864 -0.00133456 0.000117896)
(0.00353522 -0.00143672 0.000152581)
(0.00438627 -0.00149601 0.000179006)
(0.00525378 -0.0015277 0.000187467)
(0.000281512 -0.000355515 9.62068e-06)
(0.000673069 -0.000637832 2.46433e-05)
(0.00123009 -0.000924854 4.73437e-05)
(0.00188891 -0.00113735 7.35146e-05)
(0.00263066 -0.0012892 0.00010064)
(0.0034291 -0.0013878 0.000125557)
(0.0042628 -0.00144406 0.000143933)
(0.00511292 -0.00147277 0.000148056)
(0.000270784 -0.000344148 1.10996e-05)
(0.000649378 -0.000618975 2.31923e-05)
(0.00119136 -0.000898651 3.96539e-05)
(0.00183547 -0.00110599 5.79051e-05)
(0.00256304 -0.00125406 7.65227e-05)
(0.00334799 -0.00134976 9.34073e-05)
(0.00416865 -0.00140351 0.00010552)
(0.00500555 -0.00142979 0.000107341)
(0.000263371 -0.000336174 8.10282e-06)
(0.000633137 -0.000606101 1.59233e-05)
(0.00116493 -0.000880861 2.59344e-05)
(0.00179915 -0.00108476 3.6769e-05)
(0.00251724 -0.00123025 4.7701e-05)
(0.00329317 -0.00132394 5.75237e-05)
(0.00410506 -0.00137595 6.44396e-05)
(0.00493303 -0.00140054 6.51399e-05)
(0.000259608 -0.000332096 2.91879e-06)
(0.000624919 -0.00059959 5.62036e-06)
(0.00115158 -0.000871884 8.98202e-06)
(0.00178082 -0.00107405 1.25791e-05)
(0.00249413 -0.00121825 1.6189e-05)
(0.00326553 -0.00131092 1.94177e-05)
(0.00407302 -0.00136205 2.16709e-05)
(0.00489645 -0.00138578 2.18434e-05)
(0.00651669 0.00130468 -0.000402832)
(0.00627493 0.00131096 -0.000349054)
(0.00607402 0.00131774 -0.000297696)
(0.00590286 0.00131844 -0.000245728)
(0.00576117 0.00131714 -0.000193319)
(0.00565165 0.00131515 -0.000139569)
(0.005577 0.00131342 -8.44266e-05)
(0.00553911 0.00131233 -2.82649e-05)
(0.00636056 0.000444715 -0.000198822)
(0.0061265 0.000457817 -0.000175929)
(0.00592391 0.000474163 -0.000154601)
(0.00574967 0.000489754 -0.000130013)
(0.00560512 0.000502895 -0.000103192)
(0.00549337 0.000512921 -7.47507e-05)
(0.00541726 0.000519654 -4.52468e-05)
(0.00537872 0.000523049 -1.5144e-05)
(0.00629769 -0.000396272 -1.46357e-05)
(0.00606475 -0.000367661 -2.43542e-05)
(0.00585749 -0.000335455 -2.82531e-05)
(0.00567877 -0.000302891 -2.72206e-05)
(0.00553118 -0.000274037 -2.28699e-05)
(0.00541756 -0.000251238 -1.68961e-05)
(0.0053404 -0.000235632 -1.02617e-05)