/*--------------------------------*- C++ -*----------------------------------*\
| =========                 |                                                 |
| \\      /  F ield         | foam-extend: Open Source CFD                    |
|  \\    /   O peration     | Version:     3.1                                |
|   \\  /    A nd           | Web:         http://www.extend-project.de       |
|    \\/     M anipulation  |                                                 |
\*---------------------------------------------------------------------------*/
FoamFile
{
    version     2.0;
    format      ascii;
    class       volVectorField;
    location    "1.7";
    object      D_0;
}
// * * * * * * * * * * * * * * * * * * * * * * * * * * * * * * * * * * * * * //

dimensions      [0 1 0 0 0 0 0];

internalField   nonuniform List<vector> 
256
(
(0.000236614 0.000136216 0.000216325)
(0.000118597 2.48989e-05 6.94203e-05)
(0.000103609 -3.67006e-05 -6.65361e-05)
(0.000186775 -0.000143471 -0.000218311)
(0.0009339 0.000561786 0.000121938)
(0.000775691 0.000154833 5.27881e-05)
(0.000739318 -0.00015661 -8.3176e-05)
(0.000819663 -0.000553108 -0.000176552)
(0.0017744 0.000869398 2.69109e-05)
(0.00161278 0.000267657 1.91545e-06)
(0.00156571 -0.000251726 -7.12426e-05)
(0.00163045 -0.000849763 -0.000120744)
(0.00274986 0.00111342 -8.26613e-05)
(0.00260161 0.00035583 -4.59985e-05)
(0.00254887 -0.000329933 -5.55894e-05)
(0.00258841 -0.00108753 -4.45573e-05)
(0.00381572 0.00128738 -0.000184228)
(0.00368069 0.000417165 -8.94339e-05)
(0.00362503 -0.000391168 -3.72819e-05)
(0.0036442 -0.00126215 3.22134e-05)
(0.00493161 0.00140497 -0.000271722)
(0.00480912 0.000455693 -0.000126679)
(0.00475263 -0.000439132 -2.03928e-05)
(0.00475646 -0.00138656 0.000101947)
(0.0060667 0.00147882 -0.000341292)
(0.00595276 0.000475514 -0.000159718)
(0.00589621 -0.000476848 -8.54232e-06)
(0.00589221 -0.00147181 0.000157323)
(0.00720933 0.00151996 -0.00039516)
(0.00708805 0.000483227 -0.000191308)
(0.00702725 -0.000506367 -4.8919e-06)
(0.00702702 -0.0015293 0.000188521)
(0.000245781 0.000136222 9.40638e-05)
(0.000126497 2.73646e-05 3.28219e-05)
(0.000110641 -3.4721e-05 -3.51048e-05)
(0.000189788 -0.000137392 -0.000102604)
(0.000937172 0.000562915 4.79945e-05)
(0.000762363 0.000161553 1.88281e-05)
(0.000725531 -0.000150349 -4.95725e-05)
(0.000819007 -0.000542012 -9.41608e-05)
(0.00173524 0.000884607 -1.97144e-05)
(0.00157582 0.000281721 -1.62463e-05)
(0.00152892 -0.000247189 -4.63331e-05)
(0.0015893 -0.000846672 -5.83479e-05)
(0.00266575 0.00113199 -0.000100871)
(0.00252124 0.000372916 -5.31322e-05)
(0.00246894 -0.000322852 -3.70511e-05)
(0.00250251 -0.00108192 -5.22232e-06)
(0.00368527 0.00130776 -0.000179889)
(0.00355599 0.000436351 -8.76636e-05)
(0.00350077 -0.000380594 -2.497e-05)
(0.00351192 -0.00125196 5.1824e-05)
(0.0047585 0.00142477 -0.000249661)
(0.00464257 0.000475798 -0.000118203)
(0.00458652 -0.000423748 -1.3702e-05)
(0.00458145 -0.00136892 0.00010434)
(0.00585623 0.00149598 -0.000306135)
(0.00575051 0.000495208 -0.0001454)
(0.00569484 -0.000455542 -7.31632e-06)
(0.00568069 -0.0014442 0.000144507)
(0.00696945 0.00153286 -0.000347429)
(0.00685711 0.000501069 -0.000169927)
(0.00679791 -0.000478785 -1.08599e-05)
(0.00678825 -0.00149061 0.000160691)
(0.000245964 0.0001377 3.35703e-05)
(0.000118946 2.92436e-05 1.21595e-05)
(0.000100789 -3.47133e-05 -1.70356e-05)
(0.000182471 -0.00013736 -4.20328e-05)
(0.000921952 0.000552125 1.89268e-06)
(0.000732755 0.000162058 -1.75866e-06)
(0.000692284 -0.000142638 -2.69037e-05)
(0.000792833 -0.000523939 -3.91431e-05)
(0.00169157 0.000872988 -4.7711e-05)
(0.00152099 0.000285035 -2.72384e-05)
(0.0014703 -0.000234876 -2.69718e-05)
(0.00153477 -0.000820285 -1.43078e-05)
(0.0025886 0.00112181 -0.000107147)
(0.00243599 0.000379323 -5.50482e-05)
(0.00238004 -0.00030581 -2.1957e-05)
(0.00241485 -0.00104842 2.26414e-05)
(0.00357405 0.00130115 -0.000166703)
(0.00343867 0.000446214 -8.17906e-05)
(0.00337996 -0.000359067 -1.46006e-05)
(0.00339061 -0.00121297 6.34575e-05)
(0.00461481 0.00142243 -0.000220707)
(0.00449453 0.000488992 -0.000106182)
(0.00443531 -0.000397789 -7.91322e-06)
(0.00442834 -0.00132486 0.00010128)
(0.00568335 0.0014981 -0.000265283)
(0.00557523 0.000511197 -0.000128349)
(0.00551686 -0.000425231 -5.86393e-06)
(0.00549936 -0.00139514 0.000128686)
(0.0067729 0.00153948 -0.000296791)
(0.0066599 0.000519285 -0.000148268)
(0.0065978 -0.000444461 -1.3983e-05)
(0.00658236 -0.00143678 0.00013369)
(0.000241259 0.000137428 5.17769e-06)
(0.000109877 2.98999e-05 2.05998e-06)
(8.99343e-05 -3.42703e-05 -6.97468e-06)
(0.000172368 -0.000135636 -1.1583e-05)
(0.000898383 0.000541327 -2.06108e-05)
(0.000701013 0.000161423 -1.09217e-05)
(0.000657279 -0.000135311 -1.30201e-05)
(0.000760182 -0.000505945 -8.02481e-06)
(0.00164418 0.000858004 -5.82751e-05)
(0.0014654 0.000285686 -3.00096e-05)
(0.00141125 -0.000221542 -1.38875e-05)
(0.00147815 -0.000791172 1.06811e-05)
(0.00251524 0.0011068 -0.000102097)
(0.00235566 0.000382607 -5.08413e-05)
(0.00229641 -0.000287078 -1.12036e-05)
(0.00233278 -0.00101104 3.69378e-05)
(0.00347475 0.00128893 -0.000146542)
(0.00333368 0.000452933 -7.12577e-05)
(0.00327192 -0.000335533 -6.89944e-06)
(0.00328332 -0.00116958 6.59227e-05)
(0.0044908 0.00141446 -0.000187694)
(0.00436614 0.000499417 -9.042e-05)
(0.0043042 -0.000369996 -3.3645e-06)
(0.00429714 -0.00127681 9.25754e-05)
(0.00553673 0.00149486 -0.000222356)
(0.0054256 0.000525089 -0.000108316)
(0.00536478 -0.000393709 -4.01818e-06)
(0.00534616 -0.00134325 0.000110615)
(0.00660698 0.00154074 -0.000246414)
(0.00649171 0.000536278 -0.000124572)
(0.00642656 -0.000409766 -1.37813e-05)
(0.00640825 -0.00138165 0.000109415)
(0.00023572 0.000136246 -6.22488e-06)
(0.000102265 3.01206e-05 -2.0454e-06)
(8.11124e-05 -3.36481e-05 -1.79321e-06)
(0.000163086 -0.000133158 2.02219e-06)
(0.000874781 0.000532365 -2.73778e-05)
(0.000673053 0.000160929 -1.30595e-05)
(0.00062696 -0.000129008 -5.10749e-06)
(0.000730011 -0.000490302 6.67429e-06)
(0.00160056 0.000845402 -5.57383e-05)
(0.00141668 0.000286127 -2.72138e-05)
(0.00136004 -0.000209704 -5.89713e-06)
(0.00142786 -0.000765794 2.09828e-05)
(0.00245104 0.0010938 -8.76615e-05)
(0.00228664 0.000385193 -4.24913e-05)
(0.00222506 -0.000270263 -4.43589e-06)
(0.00226243 -0.000978166 3.96658e-05)
(0.00339056 0.0012779 -0.000120151)
(0.00324529 0.000458422 -5.76568e-05)
(0.00318146 -0.000314345 -2.00596e-06)
(0.00319366 -0.00113112 5.99679e-05)
(0.0043877 0.00140669 -0.000150676)
(0.00425963 0.000508074 -7.22325e-05)
(0.0041959 -0.000345045 -4.04647e-07)
(0.00418927 -0.00123413 7.83074e-05)
(0.00541603 0.00149072 -0.000176798)
(0.00530237 0.00053671 -8.61606e-05)
(0.00523992 -0.000365604 -2.31388e-06)
(0.00522112 -0.00129722 8.98153e-05)
(0.00647031 0.00153988 -0.000194654)
(0.00635303 0.000550507 -9.88992e-05)
(0.00628576 -0.00037904 -1.16067e-05)
(0.00626609 -0.00133291 8.59929e-05)
(0.000231002 0.000134955 -8.71388e-06)
(9.66782e-05 3.01827e-05 -2.95796e-06)
(7.47291e-05 -3.30411e-05 4.12062e-07)
(0.000155835 -0.000130798 6.26041e-06)
(0.000855263 0.000525643 -2.4652e-05)
(0.000651342 0.000160708 -1.12587e-05)
(0.000603668 -0.000124067 -1.17095e-06)
(0.000706041 -0.000478054 1.08823e-05)
(0.00156538 0.000836133 -4.4678e-05)
(0.00137853 0.000286707 -2.11198e-05)
(0.00132023 -0.000200359 -1.67916e-06)
(0.00138822 -0.000746077 2.12021e-05)
(0.0024002 0.00108424 -6.66421e-05)
(0.00223276 0.000387448 -3.16517e-05)
(0.00216967 -0.000256936 -8.8277e-07)
(0.00220757 -0.000952585 3.38754e-05)
(0.0033248 0.00126971 -8.90057e-05)
(0.00317673 0.000462895 -4.21984e-05)
(0.00311161 -0.000297526 4.20908e-07)
(0.00312441 -0.00110108 4.73907e-05)
(0.0043079 0.00140075 -0.000110218)
(0.00417748 0.000514931 -5.25124e-05)
(0.00411267 -0.000325246 9.85092e-07)
(0.00410653 -0.00120065 5.93622e-05)
(0.005323 0.00148722 -0.000128568)
(0.00520752 0.000545759 -6.25259e-05)
(0.00514412 -0.00034335 -1.08714e-06)
(0.00512548 -0.00126102 6.63613e-05)
(0.00636484 0.00153849 -0.000140977)
(0.00624603 0.00056146 -7.17115e-05)
(0.00617749 -0.000354757 -8.52049e-06)
(0.00615734 -0.00129451 6.22933e-05)
(0.000227715 0.000133939 -6.6363e-06)
(9.30809e-05 3.01906e-05 -2.25874e-06)
(7.06426e-05 -3.25756e-05 8.59503e-07)
(0.000150958 -0.00012903 5.41192e-06)
(0.000841688 0.000521181 -1.65618e-05)
(0.000636736 0.000160651 -7.39217e-06)
(0.000588091 -0.000120683 2.32764e-07)
(0.000689697 -0.000469698 8.75822e-06)
(0.00154106 0.00083011 -2.85426e-05)
(0.0013526 0.000287257 -1.32357e-05)
(0.0012933 -0.000193955 -2.36861e-08)
(0.00136117 -0.00073271 1.50398e-05)
(0.00236527 0.00107808 -4.14674e-05)
(0.00219606 0.00038916 -1.9434e-05)
(0.00213209 -0.000247797 3.76069e-07)
(0.00217021 -0.000935257 2.24382e-05)
(0.00327984 0.00126443 -5.46246e-05)
(0.00313009 0.000466099 -2.56764e-05)
(0.00306422 -0.000285989 1.00107e-06)
(0.0030774 -0.0010807 3.0211e-05)
(0.00425354 0.00139687 -6.71761e-05)
(0.00412166 0.000519705 -3.18487e-05)
(0.00405624 -0.000311672 1.11976e-06)
(0.00405047 -0.00117789 3.69895e-05)
(0.0052597 0.00148479 -7.8105e-05)
(0.00514308 0.000551955 -3.78976e-05)
(0.00507915 -0.000328105 -3.91304e-07)
(0.00506074 -0.00123636 4.07436e-05)
(0.00629298 0.00153728 -8.54428e-05)
(0.00617317 0.00056888 -4.34472e-05)
(0.00610395 -0.000338132 -5.13611e-06)
(0.00608371 -0.00126829 3.78281e-05)
(0.000226042 0.000133391 -2.41957e-06)
(9.13273e-05 3.01866e-05 -8.2305e-07)
(6.86559e-05 -3.23258e-05 3.82507e-07)
(0.00014852 -0.000128096 2.05531e-06)
(0.000834775 0.000518958 -5.78944e-06)
(0.000629427 0.000160649 -2.55734e-06)
(0.00058032 -0.000118967 2.28234e-07)
(0.000681457 -0.000465471 3.27003e-06)
(0.00152869 0.000827149 -9.78184e-06)
(0.00133953 0.000287584 -4.49518e-06)
(0.00127976 -0.000190709 1.53052e-07)
(0.0013475 -0.000725974 5.38292e-06)
(0.00234752 0.00107508 -1.40553e-05)
(0.00217752 0.000390084 -6.54405e-06)
(0.00211313 -0.000243164 2.75111e-07)
(0.00215133 -0.000926533 7.82037e-06)
(0.00325704 0.00126186 -1.84049e-05)
(0.00310651 0.000467772 -8.61346e-06)
(0.0030403 -0.000280142 4.58692e-07)
(0.00305365 -0.00107044 1.03607e-05)
(0.00422599 0.00139496 -2.25656e-05)
(0.00409343 0.000522156 -1.06705e-05)
(0.00402775 -0.000304794 4.62963e-07)
(0.00402217 -0.00116642 1.25575e-05)
(0.00522762 0.00148354 -2.61999e-05)
(0.00511047 0.000555105 -1.26948e-05)
(0.00504632 -0.000320381 -8.34714e-08)
(0.00502807 -0.00122391 1.37393e-05)
(0.00625652 0.00153654 -2.86314e-05)
(0.00613626 0.000572637 -1.45508e-05)
(0.00606674 -0.000329702 -1.70913e-06)
(0.00604651 -0.00125504 1.26943e-05)
)
;

boundaryField
{
    interface
    {
        type            tractionDisplacement;
        gradient        nonuniform List<vector> 
192
(
(0.0012504 8.90088e-08 -6.27537e-06)
(0.00125106 2.32615e-07 -7.48491e-06)
(0.0012496 5.25483e-07 -7.47543e-06)
(0.00124673 8.45864e-07 -7.27339e-06)
(0.00124237 1.23213e-06 -6.95727e-06)
(0.00123606 1.75972e-06 -6.48764e-06)
(0.00122701 2.65546e-06 -5.77696e-06)
(0.00121237 4.4017e-06 -4.57372e-06)
(0.00127836 1.58951e-07 -4.18175e-06)
(0.00127813 3.40733e-07 -4.98588e-06)
(0.00127606 6.81215e-07 -4.94782e-06)
(0.00127234 1.07974e-06 -4.77587e-06)
(0.0012667 1.57845e-06 -4.5173e-06)
(0.00125852 2.26978e-06 -4.14438e-06)
(0.00124668 3.43378e-06 -3.60938e-06)
(0.00122774 5.61186e-06 -2.83028e-06)
(0.0012969 2.0556e-07 -2.92788e-06)
(0.00129628 4.22773e-07 -3.50022e-06)
(0.00129375 8.10625e-07 -3.4639e-06)
(0.00128935 1.27314e-06 -3.32432e-06)
(0.00128271 1.85533e-06 -3.11929e-06)
(0.00127309 2.65704e-06 -2.83373e-06)
(0.00125927 3.97152e-06 -2.44508e-06)
(0.00123752 6.33252e-06 -1.9299e-06)
(0.00131022 2.36666e-07 -2.12187e-06)
(0.00130939 4.82114e-07 -2.53952e-06)
(0.00130652 9.12912e-07 -2.50899e-06)
(0.00130157 1.426e-06 -2.39958e-06)
(0.00129415 2.06871e-06 -2.2415e-06)
(0.00128345 2.94405e-06 -2.02736e-06)
(0.00126819 4.35007e-06 -1.74696e-06)
(0.00124452 6.81512e-06 -1.39307e-06)
(0.00131978 2.59652e-07 -1.51365e-06)
(0.00131882 5.26652e-07 -1.81147e-06)
(0.00131569 9.91037e-07 -1.78752e-06)
(0.00131032 1.54199e-06 -1.7059e-06)
(0.0013023 2.22756e-06 -1.58946e-06)
(0.00129082 3.15197e-06 -1.43486e-06)
(0.00127453 4.6157e-06 -1.23756e-06)
(0.00124954 7.14639e-06 -9.95544e-07)
(0.00132642 2.76131e-07 -1.01788e-06)
(0.00132536 5.58719e-07 -1.21811e-06)
(0.00132204 1.04754e-06 -1.20117e-06)
(0.00131638 1.62535e-06 -1.14496e-06)
(0.00130794 2.34023e-06 -1.06545e-06)
(0.0012959 3.29691e-06 -9.61283e-07)
(0.00127891 4.79762e-06 -8.30326e-07)
(0.00125304 7.37104e-06 -6.71486e-07)
(0.00133063 2.87035e-07 -5.86262e-07)
(0.00132951 5.79709e-07 -7.01327e-07)
(0.00132607 1.08477e-06 -6.91544e-07)
(0.00132021 1.68017e-06 -6.58841e-07)
(0.00131151 2.41383e-06 -6.12817e-07)
(0.00129912 3.39091e-06 -5.5309e-07)
(0.00128169 4.9157e-06 -4.77739e-07)
(0.00125526 7.51474e-06 -3.82182e-07)
(0.00133265 2.92824e-07 -1.90632e-07)
(0.00133149 5.90077e-07 -2.27698e-07)
(0.001328 1.10224e-06 -2.24725e-07)
(0.00132205 1.70638e-06 -2.14081e-07)
(0.00131322 2.44881e-06 -1.99112e-07)
(0.00130067 3.43614e-06 -1.79825e-07)
(0.00128303 4.97701e-06 -1.55001e-07)
(0.00125626 7.58408e-06 -1.20792e-07)
(1.09308e-05 7.23725e-08 0.00114973)
(1.30776e-05 1.27851e-07 0.00114889)
(1.31548e-05 1.98457e-07 0.00114824)
(1.29808e-05 2.92527e-07 0.0011473)
(1.2715e-05 4.04896e-07 0.00114595)
(1.23458e-05 5.36693e-07 0.00114413)
(1.18492e-05 6.86119e-07 0.00114175)
(1.13079e-05 8.03277e-07 0.00113874)
(1.00547e-05 2.11513e-08 0.0010997)
(1.20342e-05 3.77271e-08 0.00109949)
(1.21003e-05 5.67502e-08 0.0010993)
(1.19489e-05 8.24212e-08 0.00109902)
(1.17254e-05 1.12105e-07 0.00109863)
(1.14243e-05 1.44074e-07 0.00109811)
(1.10382e-05 1.71046e-07 0.00109746)
(1.0708e-05 1.6209e-07 0.00109671)
(1.00418e-05 -2.70428e-08 0.00105277)
(1.20188e-05 -4.56996e-08 0.00105298)
(1.20844e-05 -6.9588e-08 0.00105321)
(1.1933e-05 -1.00411e-07 0.00105354)
(1.171e-05 -1.3707e-07 0.001054)
(1.141e-05 -1.80176e-07 0.00105463)
(1.10258e-05 -2.2871e-07 0.00105544)
(1.06983e-05 -2.6355e-07 0.00105648)
(1.09054e-05 -8.04064e-08 0.00100291)
(1.30452e-05 -1.36982e-07 0.00100376)
(1.312e-05 -2.11694e-07 0.00100444)
(1.29457e-05 -3.09713e-07 0.00100544)
(1.26804e-05 -4.27843e-07 0.00100685)
(1.23126e-05 -5.69225e-07 0.00100876)
(1.18188e-05 -7.38586e-07 0.00101129)
(1.12818e-05 -8.99354e-07 0.00101456)
(-0.000903606 -9.63547e-08 6.85177e-06)
(-0.000902881 -2.51564e-07 8.12936e-06)
(-0.000904348 -5.72774e-07 8.11249e-06)
(-0.00090722 -9.20022e-07 7.89131e-06)
(-0.000911576 -1.33875e-06 7.54482e-06)
(-0.000917854 -1.91504e-06 7.02877e-06)
(-0.00092686 -2.91625e-06 6.2435e-06)
(-0.00094155 -4.95238e-06 4.89368e-06)
(-0.000876477 -1.72336e-07 4.42126e-06)
(-0.000876696 -3.68407e-07 5.23941e-06)
(-0.000878763 -7.40343e-07 5.19106e-06)
(-0.000882477 -1.17274e-06 5.00456e-06)
(-0.000888098 -1.71422e-06 4.72407e-06)
(-0.000896245 -2.4707e-06 4.31857e-06)
(-0.000908024 -3.77243e-06 3.7342e-06)
(-0.000927051 -6.30466e-06 2.87503e-06)
(-0.000858904 -2.23527e-07 3.02815e-06)
(-0.000859518 -4.57468e-07 3.59773e-06)
(-0.000862036 -8.80012e-07 3.55226e-06)
(-0.00086643 -1.38156e-06 3.40144e-06)
(-0.000873045 -2.0136e-06 3.18024e-06)
(-0.000882602 -2.89053e-06 2.87178e-06)
(-0.000896351 -4.35875e-06 2.45083e-06)
(-0.000918167 -7.09737e-06 1.88924e-06)
(-0.00084644 -2.57774e-07 2.16159e-06)
(-0.000847264 -5.21851e-07 2.57079e-06)
(-0.000850126 -9.90306e-07 2.53274e-06)
(-0.00085506 -1.54618e-06 2.41474e-06)
(-0.000862449 -2.24345e-06 2.24466e-06)
(-0.000873069 -3.20009e-06 2.01421e-06)
(-0.000888236 -4.76849e-06 1.71208e-06)
(-0.000911949 -7.62329e-06 1.32891e-06)
(-0.000837595 -2.83051e-07 1.52365e-06)
(-0.00083856 -5.70096e-07 1.81175e-06)
(-0.000841682 -1.07445e-06 1.78199e-06)
(-0.000847026 -1.67087e-06 1.69407e-06)
(-0.000854997 -2.41412e-06 1.56902e-06)
(-0.000866396 -3.42352e-06 1.40308e-06)
(-0.00088257 -5.05455e-06 1.19126e-06)
(-0.000907581 -7.98206e-06 9.30362e-07)
(-0.000831511 -3.01135e-07 1.01526e-06)
(-0.000832571 -6.04765e-07 1.20705e-06)
(-0.000835879 -1.13523e-06 1.18601e-06)
(-0.000841519 -1.76034e-06 1.1255e-06)
(-0.000849902 -2.53489e-06 1.04024e-06)
(-0.000861845 -3.57878e-06 9.28656e-07)
(-0.000878708 -5.24964e-06 7.88457e-07)
(-0.000904589 -8.22417e-06 6.17775e-07)
(-0.000827684 -3.13066e-07 5.81157e-07)
(-0.000828802 -6.27424e-07 6.90621e-07)
(-0.00083223 -1.17521e-06 6.7841e-07)
(-0.000838059 -1.81904e-06 6.43226e-07)
(-0.000846706 -2.61357e-06 5.93914e-07)
(-0.000858993 -3.67914e-06 5.30029e-07)
(-0.000876286 -5.37574e-06 4.49542e-07)
(-0.000902707 -8.37837e-06 3.46949e-07)
(-0.000825854 -3.19376e-07 1.88378e-07)
(-0.000827006 -6.38536e-07 2.23531e-07)
(-0.000830489 -1.19398e-06 2.19753e-07)
(-0.000836409 -1.8471e-06 2.083e-07)
(-0.000845182 -2.65092e-06 1.92268e-07)
(-0.000857629 -3.72725e-06 1.71653e-07)
(-0.000875121 -5.44102e-06 1.45178e-07)
(-0.000901879 -8.45211e-06 1.08378e-07)
(1.13077e-05 -0.00113956 -9.86196e-07)
(1.18661e-05 -0.00114323 -8.3836e-07)
(1.23873e-05 -0.00114616 -6.69958e-07)
(1.27835e-05 -0.00114847 -5.21832e-07)
(1.30767e-05 -0.00115024 -3.91006e-07)
(1.32868e-05 -0.00115152 -2.72808e-07)
(1.34306e-05 -0.00115236 -1.66012e-07)
(1.35055e-05 -0.00115283 -5.78898e-08)
(1.07333e-05 -0.00109747 -3.23353e-07)
(1.10861e-05 -0.00109878 -2.9851e-07)
(1.14951e-05 -0.00109989 -2.50886e-07)
(1.18192e-05 -0.0011008 -2.02547e-07)
(1.20647e-05 -0.00110151 -1.55909e-07)
(1.22434e-05 -0.00110204 -1.10734e-07)
(1.23687e-05 -0.0011024 -6.67961e-08)
(1.24387e-05 -0.00110257 -2.25708e-08)
(1.07338e-05 -0.00105712 1.29308e-07)
(1.10872e-05 -0.00105654 1.24779e-07)
(1.1494e-05 -0.00105609 9.54584e-08)
(1.18153e-05 -0.00105577 6.74789e-08)
(1.20582e-05 -0.00105555 4.5425e-08)
(1.22347e-05 -0.00105541 2.87838e-08)
(1.23586e-05 -0.00105532 1.65634e-08)
(1.24277e-05 -0.00105528 5.73912e-09)
(1.13263e-05 -0.00101504 7.95589e-07)
(1.18919e-05 -0.00101212 6.58727e-07)
(1.24086e-05 -0.00100987 5.05786e-07)
(1.27978e-05 -0.00100817 3.78169e-07)
(1.3084e-05 -0.00100692 2.73189e-07)
(1.32882e-05 -0.00100604 1.85436e-07)
(1.34278e-05 -0.00100548 1.12584e-07)
(1.35008e-05 -0.00100515 4.00141e-08)
)
;
        traction        nonuniform List<vector> 
192
(
(26.7942 0.00190733 -0.134472)
(26.8085 0.00498462 -0.160391)
(26.7772 0.0112604 -0.160188)
(26.7157 0.0181257 -0.155858)
(26.6222 0.0264028 -0.149084)
(26.487 0.0377082 -0.139021)
(26.293 0.0569026 -0.123792)
(25.9793 0.0943222 -0.0980083)
(27.3935 0.0034061 -0.0896089)
(27.3884 0.00730142 -0.10684)
(27.3441 0.0145975 -0.106025)
(27.2645 0.0231373 -0.10234)
(27.1437 0.033824 -0.0967993)
(26.9683 0.0486382 -0.0888082)
(26.7147 0.0735809 -0.077344)
(26.3087 0.120254 -0.0606489)
(27.7907 0.00440487 -0.0627403)
(27.7773 0.00905942 -0.0750048)
(27.7233 0.0173705 -0.0742265)
(27.6289 0.0272816 -0.0712353)
(27.4865 0.039757 -0.066842)
(27.2806 0.0569365 -0.0607228)
(26.9843 0.085104 -0.0523946)
(26.5182 0.135697 -0.0413549)
(28.0762 0.00507141 -0.0454687)
(28.0584 0.010331 -0.0544183)
(27.997 0.0195624 -0.0537641)
(27.8909 0.0305572 -0.0514196)
(27.7317 0.0443295 -0.0480322)
(27.5026 0.0630869 -0.0434433)
(27.1755 0.0932158 -0.0374349)
(26.6683 0.146038 -0.0298516)
(28.2811 0.00556398 -0.0324353)
(28.2603 0.0112854 -0.0388172)
(28.1933 0.0212365 -0.038304)
(28.0783 0.0330426 -0.0365551)
(27.9065 0.0477333 -0.0340599)
(27.6604 0.0675421 -0.0307469)
(27.3113 0.0989078 -0.0265191)
(26.7759 0.153137 -0.0213331)
(28.4234 0.00591708 -0.0218117)
(28.4006 0.0119725 -0.0261023)
(28.3295 0.0224473 -0.0257394)
(28.2081 0.034829 -0.0245348)
(28.0273 0.0501478 -0.0228311)
(27.7694 0.0706481 -0.0205989)
(27.4052 0.102806 -0.0177927)
(26.8508 0.157951 -0.014389)
(28.5135 0.00615074 -0.0125628)
(28.4894 0.0124223 -0.0150284)
(28.4158 0.023245 -0.0148188)
(28.2903 0.0360036 -0.014118)
(28.1037 0.0517248 -0.0131318)
(27.8383 0.0726623 -0.0118519)
(27.4647 0.105336 -0.0102373)
(26.8984 0.16103 -0.00818961)
(28.5567 0.00627479 -0.00408497)
(28.532 0.0126445 -0.00487923)
(28.4571 0.0236193 -0.00481554)
(28.3296 0.0365652 -0.00458744)
(28.1404 0.0524745 -0.00426669)
(27.8714 0.0736316 -0.00385339)
(27.4935 0.10665 -0.00332146)
(26.9199 0.162516 -0.00258841)
(0.234232 0.00155084 24.637)
(0.280235 0.00273965 24.6191)
(0.281888 0.00425265 24.6052)
(0.278159 0.00626843 24.5849)
(0.272465 0.00867633 24.5561)
(0.264553 0.0115006 24.5171)
(0.253912 0.0147025 24.4661)
(0.242312 0.0172131 24.4015)
(0.215458 0.000453242 23.565)
(0.257875 0.000808438 23.5605)
(0.259292 0.00121608 23.5564)
(0.256048 0.00176617 23.5504)
(0.251258 0.00240225 23.542)
(0.244806 0.00308729 23.5309)
(0.236532 0.00366528 23.517)
(0.229457 0.00347336 23.5009)
(0.215181 -0.00057949 22.5593)
(0.257546 -0.000979277 22.564)
(0.258951 -0.00149117 22.5688)
(0.255708 -0.00215167 22.5758)
(0.250929 -0.00293722 22.5858)
(0.244501 -0.00386092 22.5992)
(0.236268 -0.00490093 22.6167)
(0.22925 -0.00564749 22.6389)
(0.233687 -0.00172299 21.4909)
(0.279539 -0.00293532 21.5091)
(0.281144 -0.00453631 21.5238)
(0.277407 -0.00663671 21.5451)
(0.271722 -0.00916805 21.5754)
(0.263841 -0.0121977 21.6164)
(0.253261 -0.0158268 21.6704)
(0.241752 -0.0192719 21.7405)
(-19.363 -0.00206474 0.146824)
(-19.3475 -0.00539066 0.174201)
(-19.3789 -0.0122737 0.173839)
(-19.4404 -0.0197148 0.1691)
(-19.5338 -0.0286875 0.161675)
(-19.6683 -0.0410367 0.150616)
(-19.8613 -0.0624911 0.133789)
(-20.1761 -0.106122 0.104865)
(-18.7816 -0.00369291 0.0947413)
(-18.7863 -0.00789443 0.112273)
(-18.8306 -0.0158645 0.111237)
(-18.9102 -0.0251302 0.107241)
(-19.0307 -0.0367334 0.10123)
(-19.2052 -0.0529437 0.0925409)
(-19.4577 -0.0808377 0.0800185)
(-19.8654 -0.1351 0.0616077)
(-18.4051 -0.00478987 0.064889)
(-18.4182 -0.00980289 0.0770943)
(-18.4722 -0.0188574 0.0761199)
(-18.5664 -0.0296049 0.0728881)
(-18.7081 -0.0431486 0.0681481)
(-18.9129 -0.06194 0.0615382)
(-19.2075 -0.0934018 0.0525179)
(-19.675 -0.152086 0.0404836)
(-18.138 -0.00552373 0.0463197)
(-18.1556 -0.0111825 0.0550883)
(-18.217 -0.0212208 0.054273)
(-18.3227 -0.0331325 0.0517444)
(-18.481 -0.048074 0.0480998)
(-18.7086 -0.0685733 0.0431617)
(-19.0336 -0.102182 0.0366875)
(-19.5418 -0.163356 0.0284766)
(-17.9485 -0.00606538 0.0326497)
(-17.9691 -0.0122163 0.0388231)
(-18.036 -0.023024 0.0381856)
(-18.1506 -0.0358044 0.0363015)
(-18.3214 -0.0517312 0.0336219)
(-18.5656 -0.0733611 0.0300661)
(-18.9122 -0.108312 0.0255271)
(-19.4482 -0.171044 0.0199363)
(-17.8181 -0.00645288 0.0217555)
(-17.8408 -0.0129593 0.0258653)
(-17.9117 -0.0243264 0.0254145)
(-18.0325 -0.0377215 0.0241178)
(-18.2122 -0.0543192 0.0222908)
(-18.4681 -0.0766882 0.0198998)
(-18.8294 -0.112492 0.0168955)
(-19.3841 -0.176232 0.013238)
(-17.7361 -0.00670857 0.0124534)
(-17.7601 -0.0134448 0.014799)
(-17.8335 -0.0251831 0.0145374)
(-17.9584 -0.0389794 0.0137834)
(-18.1437 -0.0560052 0.0127267)
(-18.407 -0.0788387 0.0113578)
(-18.7775 -0.115194 0.00963305)
(-19.3437 -0.179537 0.00743463)
(-17.6969 -0.00684377 0.00403667)
(-17.7216 -0.0136829 0.00478996)
(-17.7962 -0.0255853 0.00470898)
(-17.9231 -0.0395806 0.00446357)
(-18.111 -0.0568055 0.00412003)
(-18.3778 -0.0798697 0.00367828)
(-18.7526 -0.116593 0.00311095)
(-19.326 -0.181117 0.00232238)
(0.242309 -24.4191 -0.0211328)
(0.254273 -24.4977 -0.0179648)
(0.265441 -24.5605 -0.0143563)
(0.273931 -24.61 -0.0111821)
(0.280215 -24.6479 -0.00837869)
(0.284717 -24.6755 -0.00584588)
(0.287799 -24.6935 -0.0035574)
(0.289404 -24.7035 -0.0012405)
(0.229999 -23.5171 -0.006929)
(0.237559 -23.5453 -0.00639663)
(0.246324 -23.5691 -0.00537612)
(0.253268 -23.5885 -0.00434029)
(0.25853 -23.6038 -0.00334091)
(0.262358 -23.6152 -0.00237288)
(0.265043 -23.6228 -0.00143135)
(0.266544 -23.6265 -0.00048366)
(0.23001 -22.6525 0.00277088)
(0.237582 -22.6402 0.00267384)
(0.2463 -22.6305 0.00204554)
(0.253185 -22.6237 0.00144598)
(0.25839 -22.6189 0.000973392)
(0.262173 -22.6158 0.000616796)
(0.264827 -22.614 0.00035493)
(0.266308 -22.6131 0.000122981)
(0.242706 -21.7508 0.0170483)
(0.254825 -21.6882 0.0141156)
(0.265899 -21.64 0.0108383)
(0.274239 -21.6037 0.00810362)
(0.280372 -21.5769 0.00585405)
(0.284748 -21.558 0.00397363)
(0.287739 -21.5459 0.00241252)
(0.289303 -21.5389 0.000857445)
)
;
        pressure        uniform 0;
        value           nonuniform List<vector> 
192
(
(0.000486127 0.000505219 0.00020943)
(0.00105335 0.000911398 0.000102843)
(0.0019094 0.00131339 -1.76012e-05)
(0.00286391 0.00160887 -0.000155645)
(0.003916 0.00182223 -0.000283186)
(0.00501891 0.0019622 -0.000393527)
(0.00614762 0.00204899 -0.000481039)
(0.00728478 0.00211076 -0.000545003)
(0.000499201 0.000508557 8.95212e-05)
(0.00107509 0.000897361 3.52748e-05)
(0.00187309 0.00130393 -4.99358e-05)
(0.00278515 0.00160435 -0.000151844)
(0.00378997 0.00182068 -0.000250665)
(0.00485073 0.00196344 -0.000338711)
(0.00594176 0.00205196 -0.000410679)
(0.00704854 0.0021169 -0.000462638)
(0.000502721 0.000509785 2.74748e-05)
(0.00106479 0.000875826 -1.40404e-05)
(0.00183306 0.00127512 -7.6636e-05)
(0.00271009 0.00157679 -0.00015102)
(0.00367947 0.00179721 -0.000225654)
(0.00470689 0.00194612 -0.000293762)
(0.00576818 0.00204165 -0.00035074)
(0.00684959 0.00211552 -0.000391692)
(0.000498283 0.000504678 -9.58453e-07)
(0.00104482 0.000855725 -3.65231e-05)
(0.00178978 0.00124776 -8.47062e-05)
(0.00264039 0.00154853 -0.000139926)
(0.003583 0.00177212 -0.000195758)
(0.00458494 0.0019264 -0.000247685)
(0.00562297 0.00202827 -0.000292119)
(0.00668405 0.00210917 -0.000324238)
(0.000491093 0.000497352 -1.15182e-05)
(0.00102317 0.00083883 -4.11775e-05)
(0.00174896 0.00122558 -7.79277e-05)
(0.00257914 0.00152555 -0.000118571)
(0.00350145 0.00175139 -0.000159612)
(0.00448401 0.00190963 -0.00019825)
(0.00550397 0.00201604 -0.000231922)
(0.00654824 0.00210161 -0.000256373)
(0.000484242 0.000490455 -1.26794e-05)
(0.00100457 0.000825825 -3.50607e-05)
(0.00171546 0.00120908 -6.12317e-05)
(0.00253034 0.00150867 -8.94559e-05)
(0.00343768 0.00173612 -0.000117879)
(0.00440599 0.00189705 -0.000144844)
(0.00541244 0.00200638 -0.000168623)
(0.00644376 0.0020948 -0.000185917)
(0.000479176 0.000485345 -9.06183e-06)
(0.000991343 0.000817025 -2.29669e-05)
(0.00169203 0.00119818 -3.86986e-05)
(0.00249661 0.00149764 -5.54147e-05)
(0.00339399 0.00172617 -7.22178e-05)
(0.0043528 0.00188875 -8.82329e-05)
(0.00535016 0.00199979 -0.000102452)
(0.00637264 0.00208981 -0.000112795)
(0.000476514 0.000482664 -3.23177e-06)
(0.000984518 0.000812594 -7.94368e-06)
(0.00168002 0.00119275 -1.31967e-05)
(0.00247941 0.00149218 -1.87417e-05)
(0.00337178 0.00172125 -2.43111e-05)
(0.00432582 0.00188463 -2.96316e-05)
(0.00531857 0.00199644 -3.43691e-05)
(0.00633654 0.0020871 -3.78146e-05)
(0.000232895 0.000232543 0.000342968)
(0.000936594 0.000501643 0.000135772)
(0.00181142 0.000820024 5.28111e-05)
(0.00281721 0.00105726 -7.40924e-05)
(0.00391354 0.00123677 -0.000184613)
(0.00505547 0.00136194 -0.00028054)
(0.00621089 0.001444 -0.000354612)
(0.00736838 0.00149952 -0.000416821)
(8.54423e-05 6.50937e-05 9.71348e-05)
(0.000726349 0.000131204 5.65446e-05)
(0.0016002 0.000247293 2.92787e-06)
(0.00262232 0.000333083 -5.08962e-05)
(0.00373478 0.00039576 -9.77476e-05)
(0.00489206 0.000435791 -0.000137751)
(0.00605974 0.000456379 -0.000172635)
(0.00721471 0.000468316 -0.000209667)
(6.6978e-05 -8.17571e-05 -9.52661e-05)
(0.000684282 -0.000144603 -9.05417e-05)
(0.00154575 -0.000242614 -8.02934e-05)
(0.00256236 -0.000318593 -6.20728e-05)
(0.00367182 -0.000382172 -4.19943e-05)
(0.00482881 -0.000433849 -2.305e-05)
(0.00599767 -0.000476626 -9.22876e-06)
(0.00714866 -0.000512753 -4.11641e-07)
(0.000169801 -0.000256789 -0.000336619)
(0.000803465 -0.000511355 -0.000196617)
(0.00164294 -0.000814427 -0.000154087)
(0.00262982 -0.00104512 -6.39231e-05)
(0.00371509 -0.00122494 2.04389e-05)
(0.00485397 -0.001357 9.79584e-05)
(0.00601246 -0.0014529 0.000159207)
(0.00716413 -0.00152903 0.000199606)
(0.000382828 -0.000473165 -0.000221448)
(0.000899919 -0.00089029 -0.000176357)
(0.00171045 -0.00129222 -0.00010093)
(0.00264086 -0.00158654 1.52095e-06)
(0.00367778 -0.00180199 0.000104059)
(0.00477477 -0.00194795 0.000198288)
(0.00590242 -0.00204198 0.000275208)
(0.00703585 -0.00210171 0.000322634)
(0.000381927 -0.000471586 -0.000102082)
(0.000912284 -0.000869447 -8.647e-05)
(0.00166738 -0.00126635 -3.48813e-05)
(0.00255469 -0.00155829 3.83711e-05)
(0.00354427 -0.00176888 0.000115501)
(0.0045987 -0.00190922 0.000187366)
(0.00568934 -0.00199602 0.000244926)
(0.00679659 -0.00204977 0.000276511)
(0.000374843 -0.00046612 -3.8306e-05)
(0.000890279 -0.000841205 -2.50564e-05)
(0.00161626 -0.00122319 1.26913e-05)
(0.00246925 -0.00150731 6.45685e-05)
(0.00342393 -0.00171225 0.000120745)
(0.00444557 -0.00184859 0.00017342)
(0.00550706 -0.0019319 0.000214775)
(0.00658792 -0.0019822 0.000233004)
(0.000362571 -0.000454197 -6.84011e-06)
(0.000860296 -0.000813078 7.36614e-06)
(0.00156267 -0.00118148 3.70486e-05)
(0.00238995 -0.00145652 7.49666e-05)
(0.00331869 -0.00165546 0.000115629)
(0.00431564 -0.00178771 0.000153604)
(0.00535426 -0.00186775 0.000182507)
(0.00641312 -0.00191508 0.00019195)
(0.00034988 -0.000441076 6.47839e-06)
(0.000831352 -0.000788436 2.03942e-05)
(0.00151421 -0.00114602 4.35875e-05)
(0.00232166 -0.00141339 7.12927e-05)
(0.00323084 -0.00160689 0.000100399)
(0.00420911 -0.00173523 0.000127232)
(0.00522994 -0.00181211 0.000146971)
(0.00627097 -0.0018566 0.000151404)
(0.000339277 -0.000429759 9.7469e-06)
(0.000807742 -0.000769009 2.13677e-05)
(0.00147551 -0.00111858 3.82169e-05)
(0.00226811 -0.0013802 5.73917e-05)
(0.0031629 -0.00156944 7.7154e-05)
(0.00412745 -0.00169458 9.51164e-05)
(0.00513502 -0.00176878 0.000107936)
(0.00616259 -0.00181083 0.000109765)
(0.000331855 -0.000421699 7.5986e-06)
(0.000791375 -0.000755702 1.52606e-05)
(0.00144887 -0.00109997 2.55262e-05)
(0.00223149 -0.00135779 3.68633e-05)
(0.00311669 -0.00154416 4.83929e-05)
(0.00407211 -0.00166707 5.87612e-05)
(0.00507083 -0.00173937 6.60069e-05)
(0.00608934 -0.00177968 6.6633e-05)
(0.000328063 -0.000417546 2.79726e-06)
(0.000783048 -0.000748959 5.4663e-06)
(0.00143534 -0.00109058 8.91707e-06)
(0.00221293 -0.0013465 1.26746e-05)
(0.00309332 -0.00153144 1.64707e-05)