/*--------------------------------*- C++ -*----------------------------------*\
| =========                 |                                                 |
| \\      /  F ield         | foam-extend: Open Source CFD                    |
|  \\    /   O peration     | Version:     3.1                                |
|   \\  /    A nd           | Web:         http://www.extend-project.de       |
|    \\/     M anipulation  |                                                 |
\*---------------------------------------------------------------------------*/
FoamFile
{
    version     2.0;
    format      ascii;
    class       pointVectorField;
    location    "1.7";
    object      pointD;
}
// * * * * * * * * * * * * * * * * * * * * * * * * * * * * * * * * * * * * * //

dimensions      [0 1 0 0 0 0 0];

internalField   nonuniform List<vector> 
405
(
(0 0 0)
(0 0 0)
(0 0 0)
(0 0 0)
(0 0 0)
(0.000666162 0.000607835 0.00016847)
(0.000434632 0.00018854 0.0001224)
(0.000344206 -6.92591e-06 -7.44823e-06)
(0.000374897 -0.000202028 -0.000142478)
(0.000534216 -0.000592556 -0.000208764)
(0.00129287 0.000880186 1.11474e-05)
(0.00109437 0.000349713 3.09807e-05)
(0.000980433 -5.94754e-07 -2.78213e-05)
(0.00100158 -0.000348513 -9.91779e-05)
(0.00111107 -0.000866656 -0.000114727)
(0.00208223 0.00117144 -0.000113957)
(0.00188796 0.000510537 -4.42365e-05)
(0.00177248 9.50404e-06 -4.83697e-05)
(0.00177902 -0.000490368 -6.49031e-05)
(0.00186664 -0.00114774 -3.4715e-05)
(0.00294438 0.00138371 -0.000246498)
(0.0027705 0.000632409 -0.000121521)
(0.00265972 1.66535e-05 -6.48479e-05)
(0.00265366 -0.000598565 -2.07602e-05)
(0.00271163 -0.00135064 6.30286e-05)
(0.00386212 0.00153985 -0.000360441)
(0.00370517 0.000722333 -0.000187551)
(0.00360033 1.97058e-05 -7.75294e-05)
(0.00358546 -0.000681153 2.07637e-05)
(0.00362143 -0.00149889 0.000153928)
(0.00480623 0.00164701 -0.000453841)
(0.00466217 0.000783813 -0.000242362)
(0.00456333 1.81818e-05 -8.863e-05)
(0.00454349 -0.000742615 5.61076e-05)
(0.00456485 -0.00160057 0.000233209)
(0.00576172 0.00172734 -0.000527339)
(0.00562358 0.000825584 -0.000289436)
(0.00552557 1.39272e-05 -0.000101397)
(0.00550345 -0.000790154 8.11903e-05)
(0.00551968 -0.00167262 0.000293131)
(0.00673806 0.00178097 -0.000570067)
(0.00657712 0.000858885 -0.000320335)
(0.00644896 1.44529e-05 -0.000114142)
(0.00643494 -0.000824653 8.63843e-05)
(0.00646406 -0.00172057 0.000312995)
(0 0 0)
(0 0 0)
(0 0 0)
(0 0 0)
(0 0 0)
(0.000663421 0.000596485 7.41401e-05)
(0.000443012 0.000184445 6.03865e-05)
(0.000370617 -1.4224e-07 -6.81237e-06)
(0.000392309 -0.000180194 -7.98696e-05)
(0.000542245 -0.000560919 -0.000109451)
(0.00125361 0.000927337 -1.97969e-05)
(0.00107198 0.000391916 6.96305e-06)
(0.000982919 1.02129e-05 -2.38125e-05)
(0.000993597 -0.000366973 -6.45709e-05)
(0.00109133 -0.000889864 -6.25796e-05)
(0.00198865 0.0012176 -0.000126399)
(0.00181539 0.00055348 -5.57716e-05)
(0.00172692 2.1375e-05 -4.09716e-05)
(0.00172391 -0.000508522 -3.66458e-05)
(0.00179732 -0.00116886 5.81388e-06)
(0.00280239 0.00143068 -0.000233915)
(0.00264858 0.00067563 -0.000117763)
(0.00256435 2.95308e-05 -5.52165e-05)
(0.00255016 -0.000615353 -3.31824e-06)
(0.00259539 -0.0013705 8.35714e-05)
(0.00367493 0.00158128 -0.00033011)
(0.00353738 0.000761524 -0.000172994)
(0.00345823 3.39768e-05 -6.67709e-05)
(0.00343608 -0.000691783 2.94822e-05)
(0.00346014 -0.00151094 0.000158626)
(0.00458077 0.00168185 -0.000410663)
(0.00445503 0.00081815 -0.000219733)
(0.00438044 3.47158e-05 -7.74499e-05)
(0.00435356 -0.000744477 5.68768e-05)
(0.0043636 -0.00160186 0.000223934)
(0.00550516 0.00175286 -0.000473092)
(0.00538409 0.000852463 -0.000258337)
(0.00530844 3.27547e-05 -8.99565e-05)
(0.0052798 -0.000779425 7.28696e-05)
(0.00528568 -0.00165788 0.000270285)
(0.00646454 0.00179902 -0.000505804)
(0.00631967 0.000879543 -0.000281659)
(0.00621237 3.46498e-05 -0.000103435)
(0.00619153 -0.000803995 6.79021e-05)
(0.00621048 -0.00169305 0.00027609)
(0 0 0)
(0 0 0)
(0 0 0)
(0 0 0)
(0 0 0)
(0.000662875 0.000587006 1.45851e-05)
(0.000432046 0.000185391 1.76821e-05)
(0.000354509 3.36059e-06 -7.80897e-06)
(0.000377164 -0.000174295 -3.72351e-05)
(0.000531171 -0.000545275 -4.17333e-05)
(0.00122723 0.000909625 -4.95161e-05)
(0.00103548 0.000394912 -1.94815e-05)
(0.000941688 1.72122e-05 -2.18785e-05)
(0.000953336 -0.000356367 -3.02605e-05)
(0.00105647 -0.000861203 -1.08497e-05)
(0.00192252 0.0012013 -0.000128624)
(0.00174524 0.000560147 -6.62943e-05)
(0.00165511 3.14039e-05 -3.60398e-05)
(0.00165077 -0.000495337 -1.19001e-05)
(0.00172395 -0.00113388 3.87878e-05)
(0.00269879 0.00141753 -0.000210954)
(0.00254204 0.000684406 -0.000114252)
(0.00245717 4.23753e-05 -4.82671e-05)
(0.00244099 -0.00059827 1.16438e-05)
(0.0024849 -0.00133117 9.65699e-05)
(0.0035351 0.00157148 -0.00028722)
(0.00339577 0.000771938 -0.000158357)
(0.00331671 4.95261e-05 -5.86882e-05)
(0.00329204 -0.000670356 3.54681e-05)
(0.0033136 -0.0014672 0.000153676)
(0.0044083 0.00167537 -0.000352795)
(0.00428165 0.000829361 -0.000196475)
(0.0042079 5.28356e-05 -6.87994e-05)
(0.00417808 -0.000717874 5.4735e-05)
(0.00418461 -0.00155329 0.000203143)
(0.00530417 0.00175016 -0.00040397)
(0.00518362 0.000863577 -0.000227477)
(0.00510954 5.31596e-05 -8.09691e-05)
(0.00507748 -0.000747002 6.28603e-05)
(0.00507876 -0.00160408 0.000235943)
(0.00624386 0.00179841 -0.000427081)
(0.00609984 0.000890169 -0.00024432)
(0.00599316 5.72159e-05 -9.57845e-05)
(0.00596666 -0.000765659 4.79109e-05)
(0.00597926 -0.00163341 0.000227225)
(0 0 0)
(0 0 0)
(0 0 0)
(0 0 0)
(0 0 0)
(0.000651384 0.000574116 -1.70201e-05)
(0.000415096 0.000183022 -4.30356e-06)
(0.000332583 5.48073e-06 -7.59871e-06)
(0.000354973 -0.000167784 -1.30569e-05)
(0.000510238 -0.000525778 -4.3259e-06)
(0.00119405 0.000885451 -6.64366e-05)
(0.000994779 0.000389611 -3.28217e-05)
(0.000894931 2.24204e-05 -1.89725e-05)
(0.000906248 -0.000340839 -8.31578e-06)
(0.00101321 -0.000827109 2.04397e-05)
(0.00186103 0.0011745 -0.000125931)
(0.00167752 0.000555611 -6.80076e-05)
(0.00158214 4.00729e-05 -3.03324e-05)
(0.00157688 -0.00047356 4.33698e-06)
(0.00165296 -0.00109005 5.75692e-05)
(0.00260774 0.00139281 -0.000188301)
(0.00244632 0.000682116 -0.000104513)
(0.00235706 5.45626e-05 -4.04593e-05)
(0.00233948 -0.00057136 2.07951e-05)
(0.00238509 -0.00128125 0.000100219)
(0.00341558 0.00155094 -0.000247439)
(0.00327294 0.000772664 -0.000138911)
(0.00319024 6.51293e-05 -4.95283e-05)
(0.00316385 -0.000639094 3.7527e-05)
(0.00318591 -0.00141291 0.000142622)
(0.00426254 0.00166001 -0.000299384)
(0.00413379 0.000833184 -0.000169305)
(0.00405719 7.15947e-05 -5.87813e-05)
(0.0040253 -0.000682619 5.03526e-05)
(0.00403111 -0.00149541 0.000178959)
(0.00513502 0.00174072 -0.000340248)
(0.00501379 0.000870266 -0.000194015)
(0.00493743 7.47222e-05 -7.02325e-05)
(0.00490246 -0.00070799 5.30441e-05)
(0.0049012 -0.00154257 0.000200955)
(0.00605693 0.00179451 -0.000357227)
(0.00591261 0.000900023 -0.00020701)
(0.00580246 8.13927e-05 -8.50219e-05)
(0.00577048 -0.000723815 3.46179e-05)
(0.0057783 -0.0015693 0.000186252)
(0 0 0)
(0 0 0)
(0 0 0)
(0 0 0)
(0 0 0)
(0.00063649 0.000560914 -2.85198e-05)
(0.000398016 0.000180145 -1.31256e-05)
(0.000312536 7.1029e-06 -6.39651e-06)
(0.000333894 -0.00016142 -7.70845e-07)
(0.000488018 -0.000506088 1.25674e-05)
(0.00116065 0.000863817 -6.76722e-05)
(0.000956287 0.00038362 -3.55027e-05)
(0.000852355 2.67596e-05 -1.52347e-05)
(0.000862579 -0.000325959 3.36435e-06)
(0.000971334 -0.000795807 3.3356e-05)
(0.00180544 0.00114984 -0.000112741)
(0.00161654 0.000549459 -6.19238e-05)
(0.00151709 4.76458e-05 -2.40288e-05)
(0.00151082 -0.000452106 1.24796e-05)
(0.00158905 -0.00104969 6.16744e-05)
(0.00252932 0.00136919 -0.000159585)
(0.00236303 0.000677679 -8.93059e-05)
(0.00227011 6.55347e-05 -3.20753e-05)
(0.00225148 -0.000544678 2.40179e-05)
(0.002299 -0.00123475 9.31629e-05)
(0.00331506 0.00153066 -0.000204533)
(0.00316837 0.000770973 -0.000115537)
(0.00308253 7.94281e-05 -3.96069e-05)
(0.00305503 -0.000608197 3.55596e-05)
(0.0030784 -0.00136207 0.000124168)
(0.00414135 0.00164404 -0.000244703)
(0.00400944 0.000834534 -0.000139165)
(0.00393027 8.89392e-05 -4.76238e-05)
(0.00389709 -0.000648198 4.37849e-05)
(0.00390335 -0.00144115 0.000150269)
(0.00499492 0.00172942 -0.000276616)
(0.00487151 0.000874488 -0.000158465)
(0.00479283 9.47378e-05 -5.76915e-05)
(0.00475596 -0.000670542 4.34775e-05)
(0.00475394 -0.00148514 0.000164616)
(0.00590112 0.00178719 -0.000288646)
(0.0057547 0.000907058 -0.000168063)
(0.00564118 0.00010393 -7.08239e-05)
(0.00560549 -0.000683936 2.54895e-05)
(0.00561112 -0.00150943 0.000148792)
(0 0 0)
(0 0 0)
(0 0 0)
(0 0 0)
(0 0 0)
(0.000622349 0.000549451 -2.82901e-05)
(0.000383635 0.000177649 -1.43064e-05)
(0.000296527 8.42414e-06 -4.78381e-06)
(0.000316736 -0.000155988 4.20707e-06)
(0.000468686 -0.000489117 1.7139e-05)
(0.00113139 0.000846571 -5.80082e-05)
(0.000924177 0.000378759 -3.11538e-05)
(0.000817772 3.03544e-05 -1.12349e-05)
(0.000826818 -0.000313602 7.82459e-06)
(0.000935974 -0.000770078 3.37083e-05)
(0.0017589 0.00113029 -9.09628e-05)
(0.00156639 0.00054435 -5.02848e-05)
(0.00146427 5.39508e-05 -1.76684e-05)
(0.00145709 -0.000434161 1.43469e-05)
(0.00153646 -0.00101671 5.46043e-05)
(0.00246536 0.0013503 -0.000124869)
(0.00229541 0.000673823 -7.00139e-05)
(0.00219998 7.46947e-05 -2.36827e-05)
(0.00218062 -0.000522226 2.22642e-05)
(0.00222952 -0.00119665 7.71456e-05)
(0.0032343 0.00151412 -0.000157601)
(0.00308431 0.000769229 -8.91184e-05)
(0.00299627 9.13717e-05 -2.95126e-05)
(0.00296811 -0.000582122 2.99792e-05)
(0.00299269 -0.00132021 9.90317e-05)
(0.00404473 0.00163055 -0.000187211)
(0.00391005 0.000835148 -0.000106574)
(0.00382902 0.000103399 -3.59082e-05)
(0.00379514 -0.000619162 3.50496e-05)
(0.00380213 -0.00139628 0.000117104)
(0.00488335 0.00171908 -0.000210905)
(0.00475784 0.000877287 -0.000120883)
(0.00467746 0.000111367 -4.39769e-05)
(0.0046395 -0.000639043 3.3526e-05)
(0.00463748 -0.00143753 0.000126213)
(0.0057764 0.00177958 -0.000219243)
(0.00562783 0.000912028 -0.000127708)
(0.0055118 0.000122636 -5.44273e-05)
(0.00547394 -0.000650415 1.8543e-05)
(0.00547871 -0.00145969 0.000112498)
(0 0 0)
(0 0 0)
(0 0 0)
(0 0 0)
(0 0 0)
(0.000611268 0.000540787 -2.15546e-05)
(0.000373067 0.000175805 -1.12824e-05)
(0.00028511 9.42406e-06 -3.11565e-06)
(0.00030436 -0.000151905 4.8123e-06)
(0.000454168 -0.000476349 1.45795e-05)
(0.00110915 0.000834157 -4.16431e-05)
(0.00090049 0.000375339 -2.26146e-05)
(0.000792679 3.30715e-05 -7.32038e-06)
(0.000800764 -0.000304481 7.54948e-06)
(0.000909701 -0.000751147 2.6176e-05)
(0.00172414 0.00111635 -6.33827e-05)
(0.00152947 0.000540779 -3.51405e-05)
(0.00142574 5.86939e-05 -1.15377e-05)
(0.00141788 -0.000420904 1.18256e-05)
(0.00149773 -0.000992566 4.00656e-05)
(0.00241817 0.00133682 -8.55888e-05)
(0.00224582 0.00067113 -4.80017e-05)
(0.00214882 8.1555e-05 -1.5546e-05)
(0.00212899 -0.000505602 1.68217e-05)
(0.00217872 -0.00116876 5.47245e-05)
(0.00317514 0.00150221 -0.0001071)
(0.00302287 0.000767997 -6.05406e-05)
(0.00293342 0.000100278 -1.9528e-05)
(0.0029049 -0.000562778 2.15685e-05)
(0.00293036 -0.0012895 6.87887e-05)
(0.0039742 0.00162058 -0.000126709)
(0.00383752 0.00083552 -7.21047e-05)
(0.0037553 0.000114133 -2.39797e-05)
(0.00372107 -0.000597606 2.44681e-05)
(0.00372872 -0.00136329 8.02226e-05)
(0.00480195 0.00171103 -0.000142463)
(0.0046748 0.000879112 -8.16037e-05)
(0.00459332 0.000123659 -2.9595e-05)
(0.00455481 -0.00061566 2.28989e-05)
(0.00455307 -0.00140245 8.56102e-05)
(0.00568512 0.00177319 -0.000147753)
(0.00553482 0.000915286 -8.59984e-05)
(0.00541714 0.000136426 -3.67888e-05)
(0.0053781 -0.000625483 1.23333e-05)
(0.00538271 -0.0014229 7.57533e-05)
(0 0 0)
(0 0 0)
(0 0 0)
(0 0 0)
(0 0 0)
(0.000604316 0.000535438 -1.14751e-05)
(0.000366671 0.000174686 -6.09468e-06)
(0.000278317 1.00492e-05 -1.52332e-06)
(0.000296945 -0.000149387 2.95896e-06)
(0.000445259 -0.00046849 8.14132e-06)
(0.00109537 0.000826687 -2.16138e-05)
(0.00088608 0.000373327 -1.17998e-05)
(0.000777559 3.47638e-05 -3.59436e-06)
(0.000785028 -0.000298915 4.43731e-06)
(0.000893642 -0.000739609 1.4115e-05)
(0.00170276 0.00110803 -3.24424e-05)
(0.00150698 0.000538703 -1.80114e-05)
(0.0014024 6.16346e-05 -5.68278e-06)
(0.00139413 -0.000412817 6.56656e-06)
(0.00147412 -0.000977888 2.10661e-05)
(0.00238928 0.00132879 -4.34604e-05)
(0.00221562 0.00066958 -2.43724e-05)
(0.00211778 8.57892e-05 -7.68872e-06)
(0.00209767 -0.000495456 8.99226e-06)
(0.00214784 -0.00115183 2.83095e-05)
(0.00313904 0.00149505 -5.41546e-05)
(0.00298546 0.000767299 -3.05977e-05)
(0.00289525 0.000105752 -9.71034e-06)
(0.00286656 -0.000550965 1.1257e-05)
(0.00289252 -0.00127084 3.52079e-05)
(0.00393121 0.00161449 -6.39431e-05)
(0.00379336 0.000835739 -3.6369e-05)
(0.00371049 0.000120706 -1.19932e-05)
(0.00367611 -0.000584436 1.25722e-05)
(0.0036842 -0.00134321 4.0763e-05)
(0.00475231 0.00170595 -7.18222e-05)
(0.0046242 0.000880144 -4.11135e-05)
(0.00454212 0.000131164 -1.48685e-05)
(0.00450337 -0.000601371 1.16348e-05)
(0.00450189 -0.00138108 4.32734e-05)
(0.00562936 0.00176894 -7.44043e-05)
(0.00547802 0.000917114 -4.32706e-05)
(0.00535944 0.000144839 -1.85207e-05)
(0.00531983 -0.000610223 6.20645e-06)
(0.00532448 -0.00140044 3.81642e-05)
(0 0 0)
(0 0 0)
(0 0 0)
(0 0 0)
(0 0 0)
(0.000601954 0.000533633 -0)
(0.000364535 0.000174312 0)
(0.000276065 1.02618e-05 0)
(0.000294479 -0.000148538 0)
(0.000442264 -0.000465843 0)
(0.00109071 0.000824194 -0)
(0.000881251 0.000372664 0)
(0.000772515 3.53382e-05 0)
(0.000779774 -0.000297046 0)
(0.000888249 -0.000735737 0)
(0.00169555 0.00110526 -0)
(0.00149944 0.000538024 0)
(0.00139459 6.26303e-05 0)
(0.00138618 -0.000410103 0)
(0.0014662 -0.000972968 0)
(0.00237955 0.00132611 -0)
(0.00220548 0.000669076 0)
(0.00210737 8.72192e-05 0)
(0.00208718 -0.00049205 0)
(0.00213748 -0.00114615 0)
(0.0031269 0.00149267 -0)
(0.00297291 0.000767075 0)
(0.00288245 0.000107597 0)
(0.0028537 -0.000546999 0)
(0.00287983 -0.00126458 0)
(0.00391676 0.00161244 -0)
(0.00377853 0.000835811 0)
(0.00369546 0.000122917 0)
(0.00366104 -0.000580014 0)
(0.00366927 -0.00133649 0)
(0.00473561 0.0017042 -0)
(0.00460719 0.000880474 0)
(0.00452492 0.000133686 0)
(0.00448611 -0.000596572 0)
(0.00448473 -0.00137391 0)
(0.00561058 0.00176743 -0)
(0.00545892 0.000917692 -0)
(0.00534005 0.000147667 -0)
(0.00530027 -0.000605093 0)
(0.00530496 -0.00139291 0)
)
;

boundaryField
{
    interface
    {
        type            calculated;
    }
    symmetry
    {
        type            symmetryPlane;
    }
    bottom
    {
        type            fixedValue;
        value           uniform (0 0 0);
    }
}


// ************************************************************************* //
