/*--------------------------------*- C++ -*----------------------------------*\
| =========                 |                                                 |
| \\      /  F ield         | foam-extend: Open Source CFD                    |
|  \\    /   O peration     | Version:     3.1                                |
|   \\  /    A nd           | Web:         http://www.extend-project.de       |
|    \\/     M anipulation  |                                                 |
\*---------------------------------------------------------------------------*/
FoamFile
{
    version     2.0;
    format      ascii;
    class       volSymmTensorField;
    location    "1.7";
    object      sigma;
}
// * * * * * * * * * * * * * * * * * * * * * * * * * * * * * * * * * * * * * //

dimensions      [1 -1 -2 0 0 0 0];

internalField   nonuniform List<symmTensor> 
256
(
(112.517 48.3053 -1.92813 259.836 14.6131 133.319)
(10.7711 43.1464 -5.79294 49.4267 6.13124 17.9438)
(-33.4312 39.6287 -5.87427 -64.1874 -7.41436 -32.7197)
(-124.893 38.9457 -2.53277 -254.764 -17.44 -135.656)
(-59.7464 20.3262 -2.50519 70.2083 -11.5015 -16.9192)
(-28.6758 50.4328 -9.72061 26.8223 -4.49201 -8.87511)
(-6.75323 49.348 -10.0857 -33.626 1.53908 -5.95957)
(20.9143 20.3761 -4.00719 -81.8222 7.55868 0.535395)
(-28.1606 22.3317 -1.55603 91.2428 -7.00981 17.384)
(-31.1617 46.0526 -7.79514 24.7036 -2.55939 -4.98221)
(-9.26439 46.2349 -8.22759 -28.287 0.263576 -7.58494)
(-6.38317 22.9115 -3.27216 -91.553 4.50562 -23.5935)
(-36.3808 18.4381 -1.81086 62.3214 -7.62145 9.72129)
(-32.6788 40.197 -7.3834 16.6595 -2.51267 -5.42001)
(-9.04659 40.7048 -7.69384 -19.7883 0.940817 -5.2142)
(0.453978 19.4991 -3.54818 -61.416 5.93852 -13.6399)
(-34.4187 15.3779 -1.74739 45.4925 -6.51179 10.7605)
(-31.6547 33.8084 -6.87678 10.63 -1.96698 -4.39373)
(-9.71879 34.5572 -7.12124 -14.288 1.14047 -4.82638)
(-1.21149 16.7542 -3.43563 -43.7563 5.79577 -12.7033)
(-35.0089 11.6586 -1.9623 29.2444 -5.53088 9.09131)
(-30.9784 27.2522 -6.71318 4.68196 -1.61655 -4.35395)
(-9.76766 28.3777 -6.8048 -10.1659 1.2243 -4.60948)
(-0.737886 13.7533 -3.39755 -28.3285 5.55184 -10.8888)
(-33.981 7.55117 -2.55923 20.3535 -4.82541 10.1145)
(-31.319 20.8648 -6.92313 -0.233396 -1.65716 -4.62002)
(-9.64105 22.1217 -6.77283 -7.61772 1.04529 -5.06454)
(-0.0444711 10.6179 -3.45848 -18.3449 4.91486 -10.9617)
(-44.544 5.44545 -3.43734 7.33338 -2.78346 4.49339)
(-42.4513 13.4948 -7.43274 -8.00059 -1.04407 -10.5287)
(-4.68564 13.3951 -7.32358 -1.86436 0.377741 -2.65915)
(7.11996 6.22755 -4.08929 -7.86631 2.28483 -8.49185)
(116.741 48.7539 -0.786986 262.218 5.6323 141.363)
(17.0327 43.9193 -4.27497 55.2953 2.40899 24.5624)
(-32.8819 40.6766 -4.77954 -60.3424 -4.38855 -33.1245)
(-123.057 39.5663 -2.16352 -247.337 -8.85146 -137.116)
(-37.008 17.2646 -0.974146 99.3378 -9.76806 9.10523)
(-12.1465 46.1768 -8.22836 44.8266 -3.91483 6.25882)
(-18.3415 45.4959 -9.45938 -46.1096 0.55112 -17.9824)
(-0.52058 17.9218 -4.12996 -108.028 5.64774 -23.7538)
(-21.9855 17.3301 -0.268539 95.7474 -11.6203 22.6361)
(-21.5646 38.3357 -7.4108 31.2532 -4.30127 0.890245)
(-14.2914 38.672 -8.85363 -31.7579 1.75559 -11.7989)
(-11.7766 17.9959 -3.91853 -94.9589 8.75167 -28.2795)
(-26.3304 13.7626 0.0757073 70.0694 -11.6104 18.9282)
(-22.0113 32.2379 -6.49082 23.6155 -3.91572 1.19265)
(-14.3506 32.7525 -7.93071 -23.4404 2.56039 -9.88949)
(-8.14429 14.7686 -3.74139 -67.5319 10.1746 -21.6263)
(-25.7166 10.9796 0.381174 51.0856 -10.4561 18.6718)
(-21.7536 26.462 -5.78532 16.4677 -3.2518 1.32885)
(-13.9627 27.156 -7.17928 -16.5703 2.99841 -8.48639)
(-8.40529 12.3204 -3.40768 -47.6171 10.4432 -19.3714)
(-25.9309 7.94834 0.355649 35.064 -8.87181 17.7249)
(-21.3152 21.1386 -5.45275 10.3481 -2.61067 1.27689)
(-13.4942 22.1653 -6.67849 -11.574 3.02075 -7.76533)
(-7.80456 10.0533 -3.12103 -31.4637 9.93853 -17.679)
(-25.4221 4.56117 -0.151483 25.3147 -7.05888 18.3636)
(-22.7155 16.3211 -5.70534 4.35533 -2.1694 0.113609)
(-12.737 17.5294 -6.67481 -7.96155 2.48363 -7.44531)
(-5.90014 7.89133 -2.99743 -19.4156 8.44638 -16.5478)
(-36.0685 3.93409 -1.36763 12.4448 -3.90432 12.533)
(-35.0141 11.276 -6.97571 -4.14588 -1.22438 -6.82309)
(-8.75683 11.1301 -8.08977 -3.07143 1.25535 -5.7037)
(0.386377 4.95946 -4.10579 -9.93452 4.63634 -14.7423)
(116.671 48.0883 -0.442228 261.49 -0.184641 145.907)
(18.4374 41.8161 -2.41404 57.6521 -0.102674 28.2592)
(-32.8104 38.2193 -2.82357 -59.1152 -2.0621 -34.3301)
(-122.449 37.8698 -1.40041 -243.862 -2.55479 -140.363)
(-37.0072 16.0053 -0.7587 100.145 -8.09272 16.8798)
(-11.0603 43.3932 -5.11466 47.6619 -3.37089 11.4282)
(-19.6576 42.6534 -6.10718 -46.2176 0.442719 -21.415)
(-3.72962 16.557 -2.96452 -109.439 4.98071 -33.767)
(-22.7577 15.7979 -0.583312 97.0528 -10.2675 26.8128)
(-20.9951 35.2425 -5.28496 33.6619 -3.92248 4.44878)
(-15.7647 35.5758 -6.44795 -32.2226 1.78175 -14.484)
(-14.5067 16.3244 -3.08723 -96.9025 8.06756 -35.7002)
(-27.1359 12.3047 -0.407309 71.0958 -10.6338 20.9734)
(-21.4135 28.9576 -4.91535 25.5918 -3.69092 3.88241)
(-15.9236 29.4846 -6.06808 -23.7492 2.72032 -11.9148)
(-11.2486 13.2718 -2.94561 -69.5931 9.69833 -27.4835)
(-26.8966 9.54325 -0.244943 51.5791 -9.8366 19.1323)
(-21.0703 23.4501 -4.46812 18.3088 -3.09907 3.61113)
(-15.462 24.213 -5.56289 -16.689 3.27003 -9.9344)
(-11.1271 11.0259 -2.68002 -49.0808 10.2383 -23.5849)
(-27.076 6.6386 -0.26982 35.3143 -8.44022 17.4299)
(-20.4867 18.6325 -4.27814 12.0788 -2.43483 3.36913)
(-14.8358 19.8253 -5.23408 -11.3668 3.35575 -8.63459)
(-10.2181 9.13301 -2.43231 -32.2373 9.87886 -20.5636)
(-26.1182 3.36099 -0.670566 25.7007 -6.59995 17.8254)
(-21.802 14.5107 -4.68892 5.90664 -1.834 1.99014)
(-13.9496 15.9848 -5.48346 -7.42179 2.80617 -7.67472)
(-7.96485 7.38708 -2.42281 -19.36 8.4145 -18.0285)
(-37.3687 3.26055 -1.87273 11.8706 -3.3244 10.5107)
(-34.6525 10.3769 -6.35526 -3.03193 -0.815274 -5.58138)
(-9.97451 10.3899 -7.38306 -2.10352 1.35188 -4.71481)
(-0.459226 4.76217 -3.77176 -8.21209 4.39436 -13.0682)
(115.031 46.6988 -0.128333 258.043 -2.85524 147.198)
(18.375 39.4243 -1.20094 57.9701 -1.18651 29.7767)
(-32.458 35.4952 -1.46441 -57.5694 -0.729094 -34.6612)
(-119.982 35.6872 -0.76929 -237.833 0.692166 -140.206)
(-37.0061 14.9813 -0.297235 99.6485 -6.63827 22.6398)
(-11.6673 41.1547 -2.8634 48.1952 -2.7382 13.9619)
(-20.1968 40.3202 -3.51102 -45.0287 0.464464 -23.1907)
(-5.52269 15.4917 -1.78069 -108.612 4.40578 -40.2638)
(-23.03 14.9521 -0.398837 98.0543 -8.22048 31.5651)
(-21.8323 33.4375 -3.44877 34.5968 -3.12806 6.47176)
(-16.6828 33.7688 -4.20524 -31.6425 1.56961 -16.3185)
(-15.8177 15.4519 -2.05097 -96.8072 6.74472 -41.3358)
(-27.33 11.6033 -0.422084 72.8456 -8.59994 24.5684)
(-22.2406 27.4309 -3.51455 26.6521 -2.96885 5.40701)
(-16.9642 27.9931 -4.24389 -23.37 2.39729 -13.479)
(-12.7553 12.6306 -2.04712 -70.1723 8.12211 -32.2742)
(-27.0171 8.93193 -0.396439 53.5653 -8.10754 21.7141)
(-21.7745 22.1989 -3.39004 19.4497 -2.52246 4.83367)
(-16.5002 23.0509 -4.05942 -16.3584 2.91507 -11.1071)
(-12.5934 10.5966 -1.90352 -49.7409 8.69452 -27.2706)
(-27.0456 6.09621 -0.471429 37.3376 -7.08197 19.3405)
(-21.0086 17.676 -3.4036 13.2356 -1.99416 4.46086)
(-15.771 19.0322 -3.9674 -10.9455 3.01983 -9.31619)
(-11.5669 8.93589 -1.76288 -32.6657 8.4824 -23.1332)
(-25.7449 2.86121 -0.842877 27.8201 -5.60925 19.387)
(-22.175 13.8797 -3.95706 7.01396 -1.47753 3.02428)
(-14.8181 15.5648 -4.4213 -6.85761 2.53743 -7.75868)
(-9.13365 7.38639 -1.8582 -19.2797 7.25004 -19.3104)
(-36.9954 3.01578 -2.01288 13.7528 -2.87873 11.5731)
(-35.1998 10.0853 -5.75919 -1.96927 -0.639188 -4.55379)
(-11.1588 10.1864 -6.42275 -1.54259 1.22645 -4.07838)
(-1.53871 4.79732 -3.17728 -7.78042 3.78549 -12.758)
(112.718 45.2539 0.0391824 253.647 -3.53528 146.451)
(18.0505 37.313 -0.50291 57.7326 -1.43625 30.3569)
(-31.9567 33.1531 -0.663787 -55.9297 -0.0510574 -34.4949)
(-116.893 33.6915 -0.374314 -231.173 1.95243 -138.271)
(-37.1319 14.118 -0.00209696 98.779 -5.23051 25.9698)
(-12.2427 39.2632 -1.43724 48.2714 -2.10957 15.2943)
(-20.5376 38.3708 -1.8402 -43.7016 0.461812 -24.1849)
(-6.74643 14.644 -0.963852 -107.268 3.67593 -44.162)
(-23.4865 14.3072 -0.186351 98.3282 -6.24619 34.6944)
(-22.5134 32.1071 -2.0801 35.1569 -2.33218 7.70692)
(-17.3614 32.4557 -2.54931 -30.8296 1.28393 -17.591)
(-16.5257 14.8379 -1.23763 -95.9362 5.3131 -45.0041)
(-27.6869 11.165 -0.307166 74.0278 -6.51248 27.3099)
(-22.9128 26.5205 -2.34893 27.4762 -2.20774 6.42381)
(-17.6991 27.1266 -2.78731 -22.7789 1.92387 -14.6723)
(-13.6024 12.2822 -1.31058 -70.0277 6.3309 -35.7125)
(-27.289 8.61841 -0.369881 55.1551 -6.20516 23.9352)
(-22.3505 21.6026 -2.43183 20.4211 -1.89515 5.69765)
(-17.2084 22.532 -2.81901 -15.8699 2.33606 -12.0642)
(-13.4091 10.4492 -1.26924 -49.847 6.79713 -30.0929)
(-27.1896 5.85361 -0.485987 39.0462 -5.50811 21.165)
(-21.4454 17.3181 -2.58721 14.2492 -1.52304 5.27594)
(-16.3971 18.7934 -2.89838 -10.4664 2.4195 -9.92184)
(-12.2968 8.95632 -1.22882 -32.7285 6.66165 -25.1885)
(-25.664 2.64561 -0.831615 29.5611 -4.43526 21.004)
(-22.5302 13.7086 -3.18311 7.96339 -1.14135 3.83111)
(-15.4073 15.5271 -3.43088 -6.35196 2.02779 -7.93054)
(-9.72388 7.51653 -1.3925 -19.0551 5.70118 -20.4262)
(-37.1528 2.93375 -1.88208 15.0673 -2.28594 12.6074)
(-35.838 10.0517 -4.86367 -1.20614 -0.485093 -3.88827)
(-11.9508 10.1789 -5.25427 -1.04163 0.971434 -3.74911)
(-2.01288 4.88542 -2.55377 -7.30021 2.96382 -12.7439)
(110.589 44.0495 0.099627 249.661 -3.0904 145.076)
(17.7324 35.6835 -0.151938 57.3966 -1.23682 30.5211)
(-31.4453 31.3718 -0.246424 -54.4732 0.210767 -34.1397)
(-114.101 32.1221 -0.156704 -225.366 2.0342 -135.982)
(-37.1615 13.4433 0.129609 98.0208 -3.78636 27.8133)
(-12.6408 37.7764 -0.627258 48.2485 -1.4957 15.9603)
(-20.7241 36.8523 -0.867936 -42.5271 0.394589 -24.7062)
(-7.59935 14.0057 -0.468983 -105.955 2.76792 -46.3939)
(-23.8051 13.8044 -0.038533 98.3784 -4.39289 36.6019)
(-22.9496 31.0895 -1.15183 35.5382 -1.60784 8.41657)
(-17.8151 31.4599 -1.43094 -30.0584 0.952581 -18.4157)
(-16.9468 14.3824 -0.682956 -94.9445 3.83499 -47.2323)
(-27.9292 10.8483 -0.173509 74.8302 -4.55324 29.1822)
(-23.3432 25.8863 -1.44773 28.0934 -1.51414 7.05931)
(-18.1701 26.5309 -1.70098 -22.1877 1.39637 -15.4956)
(-14.1063 12.0498 -0.773749 -69.6341 4.51806 -37.9679)
(-27.4719 8.42021 -0.2638 56.3237 -4.36398 25.6117)
(-22.7127 21.2523 -1.60662 21.1736 -1.31064 6.28322)
(-17.6442 22.2398 -1.82243 -15.3804 1.68377 -12.7555)
(-13.8742 10.3798 -0.787419 -49.7014 4.84214 -32.0493)
(-27.2814 5.72169 -0.383693 40.3333 -3.92036 22.6759)
(-21.7157 17.1619 -1.806 15.0337 -1.07166 5.86357)
(-16.7705 18.7189 -1.97119 -10.0221 1.7358 -10.3856)
(-12.703 9.00914 -0.803302 -32.6229 4.74767 -26.6956)
(-25.6138 2.53306 -0.667127 30.8526 -3.19831 22.4327)
(-22.7616 13.675 -2.32902 8.67835 -0.81601 4.42697)
(-15.7612 15.579 -2.45485 -5.93429 1.44713 -8.11555)
(-10.0424 7.63619 -0.972564 -18.8142 4.06114 -21.3506)
(-37.2362 2.89483 -1.487 16.1213 -1.66094 13.7313)
(-36.2858 10.0764 -3.66812 -0.633287 -0.347265 -3.39694)
(-12.4452 10.2118 -3.88877 -0.657711 0.688762 -3.65536)
(-2.31382 4.95378 -1.86794 -6.98828 2.10836 -13.0625)
(109.025 43.2115 0.0863766 246.746 -2.04415 143.835)
(17.5018 34.5936 -0.015166 57.1267 -0.810179 30.5295)
(-31.0427 30.1897 -0.0647779 -53.4027 0.217893 -33.8041)
(-112.062 31.0601 -0.0532482 -221.186 1.44615 -134.128)
(-37.1564 12.9839 0.128988 97.4681 -2.29424 28.7379)
(-12.8806 36.7573 -0.224883 48.2173 -0.893284 16.2679)
(-20.8099 35.8172 -0.352837 -41.6647 0.264918 -24.9535)
(-8.13459 13.5795 -0.197997 -104.943 1.71858 -47.5758)
(-24.0053 13.4554 0.018028 98.3443 -2.61375 37.6328)
(-23.1957 30.3871 -0.556898 35.7882 -0.942665 8.79301)
(-18.0844 30.7753 -0.704787 -29.4757 0.586324 -18.8998)
(-17.1848 14.0736 -0.330283 -94.1446 2.31877 -48.4702)
(-28.0791 10.6309 -0.0802845 75.3123 -2.6972 30.288)
(-23.5853 25.4572 -0.771657 28.5068 -0.884151 7.42286)
(-18.4425 26.129 -0.902935 -21.7322 0.845069 -16.0012)
(-14.3931 11.8936 -0.399248 -69.2558 2.70942 -39.3009)
(-27.5879 8.29013 -0.152291 57.0602 -2.59379 26.6735)
(-22.9122 21.0293 -0.906448 21.6801 -0.770042 6.64378)
(-17.8878 22.0546 -1.01531 -15.0031 1.01205 -13.1928)
(-14.1286 10.3352 -0.425279 -49.5101 2.89641 -33.2548)
(-27.3432 5.64131 -0.240295 41.1515 -2.34821 23.6918)
(-21.86 17.0768 -1.06326 15.5577 -0.63809 6.2448)
(-16.9727 18.6842 -1.1432 -9.69066 1.03825 -10.6912)
(-12.9188 9.04548 -0.453707 -32.4866 2.83706 -27.6667)
(-25.5978 2.46847 -0.427276 31.6609 -1.93287 23.428)
(-22.8872 13.6696 -1.41737 9.14859 -0.4921 4.82207)
(-15.9529 15.6237 -1.47564 -5.63979 0.861623 -8.26239)
(-10.2029 7.7133 -0.576888 -18.6203 2.42374 -21.9986)
(-37.3102 2.87717 -0.947337 16.7834 -1.0121 14.5585)
(-36.5588 10.1047 -2.27248 -0.262726 -0.209953 -3.07702)
(-12.7243 10.2387 -2.38498 -0.395535 0.409078 -3.6625)
(-2.47457 4.99449 -1.13998 -6.77909 1.25665 -13.4017)
(108.207 42.7852 0.0328221 245.224 -0.709634 143.13)
(17.383 34.0505 0.00685955 56.9818 -0.279904 30.5077)
(-30.8238 29.6028 -0.00856616 -52.8395 0.0871736 -33.6089)
(-110.998 30.5272 -0.0113293 -219.019 0.516859 -133.117)
(-37.146 12.7519 0.0509075 97.1781 -0.768575 29.1126)
(-12.9924 36.2409 -0.0507689 48.1992 -0.297107 16.3843)
(-20.8407 35.2941 -0.0908265 -41.2106 0.0931737 -25.0482)
(-8.39162 13.3663 -0.0526701 -104.397 0.582483 -48.0802)
(-24.0995 13.2764 0.0125461 98.3085 -0.868197 38.0742)
(-23.3054 30.0273 -0.163564 35.9131 -0.310768 8.953)
(-18.2082 30.4251 -0.209777 -29.1649 0.197947 -19.1216)
(-17.2921 13.9167 -0.0971797 -93.7057 0.776035 -49.0161)
(-28.1481 10.5188 -0.0229317 75.537 -0.894014 30.7919)
(-23.6929 25.2369 -0.240925 28.7137 -0.29091 7.58602)
(-18.5661 25.9225 -0.281455 -21.4878 0.282776 -16.2396)
(-14.5235 11.8131 -0.122509 -69.0345 0.903017 -39.9137)
(-27.6419 8.22355 -0.0498358 57.4129 -0.861163 27.1796)
(-22.9995 20.9158 -0.292332 21.933 -0.254218 6.81399)
(-17.996 21.9595 -0.325432 -14.8008 0.33732 -13.4026)
(-14.241 10.3109 -0.134184 -49.3882 0.963856 -33.8236)
(-27.3713 5.60071 -0.0820284 41.5447 -0.782668 24.1944)
(-21.9213 17.0346 -0.350947 15.8176 -0.212184 6.43097)
(-17.0601 18.6657 -0.374627 -9.5156 0.345071 -10.8412)
(-13.0123 9.06152 -0.146835 -32.4007 0.943311 -28.1385)
(-25.5915 2.43738 -0.147638 32.0431 -0.647597 23.9301)
(-22.9405 13.6681 -0.475905 9.37965 -0.164809 5.01759)
(-16.0353 15.6443 -0.4926 -5.4879 0.285681 -8.34161)
(-10.2701 7.74847 -0.191563 -18.5156 0.805067 -22.3304)
(-37.3415 2.87183 -0.326037 17.0995 -0.342459 14.9934)
(-36.6821 10.1221 -0.769189 -0.079319 -0.0706681 -2.91766)
(-12.8517 10.2508 -0.80363 -0.263841 0.135812 -3.68848)
(-2.54893 5.01086 -0.38384 -6.67797 0.417091 -13.6107)
)
;

boundaryField
{
    interface
    {
        type            calculated;
        value           nonuniform List<symmTensor> 
192
(
(-23.4737 -0.0801873 2.48137 269.921 16.4611 79.7312)
(-23.0993 -0.0766102 4.16294 120.85 -15.3871 14.0828)
(-22.9373 -0.18203 4.85409 125.526 -10.0831 32.4146)
(-22.7345 -0.414963 5.13918 93.4483 -11.0025 28.4422)
(-22.7247 -0.795359 5.21976 70.0412 -9.51162 27.7457)
(-22.9115 -1.39361 5.13129 49.6833 -8.06415 25.7737)
(-23.2307 -2.45342 4.82532 38.5704 -6.6988 26.1119)
(-22.3172 -4.08597 4.09471 29.4107 -3.74906 27.1331)
(-25.9762 0.0799143 1.67706 266.34 5.63583 84.2417)
(-25.9315 0.111008 2.86938 134.057 -13.2803 25.4143)
(-26.3091 -0.0234259 3.34472 123.744 -15.9033 32.6066)
(-26.5033 -0.350467 3.52189 93.0974 -16.0731 30.8449)
(-26.5965 -0.860372 3.53782 68.3549 -14.5784 30.0015)
(-26.5841 -1.63995 3.41764 48.3445 -12.4196 29.0715)
(-26.1756 -2.97918 3.13392 37.4757 -9.7634 30.2295)
(-23.1493 -4.83629 2.58402 29.9333 -5.37998 32.6821)
(-27.3478 0.102741 1.12844 262.54 -1.13753 87.7583)
(-27.1637 0.137456 1.94718 132.122 -10.8522 32.2895)
(-27.5519 -0.0046505 2.24153 123.824 -13.7646 35.6868)
(-27.7488 -0.371675 2.3246 93.4232 -14.385 31.3922)
(-27.7624 -0.953947 2.30118 68.5016 -13.4317 28.8832)
(-27.5367 -1.84116 2.19191 48.4867 -11.6369 27.1791)
(-26.667 -3.3292 1.99059 38.0302 -9.16251 28.1988)
(-22.6647 -5.24424 1.64475 30.3272 -4.77306 30.0697)
(-28.216 0.0905345 0.781518 257.361 -4.24387 89.3592)
(-27.911 0.116876 1.36698 130.057 -8.91719 38.3188)
(-28.2331 -0.0336607 1.56594 124.159 -10.9826 40.7819)
(-28.3678 -0.424368 1.60655 94.9371 -11.5679 35.0531)
(-28.2853 -1.05172 1.57383 70.4121 -11.0087 31.2532)
(-27.8938 -2.00449 1.48664 50.5235 -9.72397 28.6892)
(-26.7352 -3.57883 1.3491 40.2414 -7.8092 29.2311)
(-22.172 -5.50745 1.12149 32.4619 -4.18338 30.7694)
(-28.7808 0.0749814 0.538373 251.924 -4.92026 89.3039)
(-28.4062 0.0890397 0.955147 128.28 -7.05958 41.9339)
(-28.667 -0.0729765 1.09404 124.184 -8.37273 44.5114)
(-28.7385 -0.480443 1.11551 96.1936 -8.77054 38.3146)
(-28.5785 -1.13602 1.08621 72.2225 -8.42609 33.845)
(-28.0696 -2.12978 1.02216 52.5046 -7.56367 30.7452)
(-26.7241 -3.75899 0.930033 42.2807 -6.19294 30.9812)
(-21.7874 -5.69096 0.776547 34.3149 -3.35107 32.1826)
(-29.1426 0.0626836 0.353177 247.253 -4.21269 88.5918)
(-28.7313 0.0652432 0.633691 126.891 -5.13053 43.888)
(-28.9478 -0.107509 0.726869 124.079 -5.91445 46.8532)
(-28.9708 -0.527144 0.739324 97.0807 -6.1519 40.6398)
(-28.7554 -1.20097 0.717527 73.5915 -5.93842 35.9306)
(-28.1676 -2.2204 0.674105 54.0302 -5.39197 32.6049)
(-26.7014 -3.88518 0.614647 43.8251 -4.47823 32.7185)
(-21.5142 -5.81755 0.514072 35.7839 -2.44842 33.7935)
(-29.3612 0.0549342 0.19932 243.909 -2.76214 87.8352)
(-28.9321 0.0490534 0.360605 125.92 -3.11607 44.82)
(-29.121 -0.131811 0.414084 123.937 -3.53081 48.1286)
(-29.1129 -0.559587 0.420745 97.6154 -3.6547 42.0311)
(-28.8619 -1.24469 0.407643 74.4609 -3.53703 37.2814)
(-28.2255 -2.27985 0.382466 55.008 -3.23463 33.8949)
(-26.6858 -3.96654 0.347121 44.8046 -2.71176 33.9818)
(-21.3453 -5.8958 0.287156 36.7266 -1.49749 35.0143)
(-29.457 0.0505921 0.0637427 242.182 -0.955556 87.3853)
(-29.0187 0.0401192 0.115943 125.425 -1.04499 45.1825)
(-29.1919 -0.144731 0.133135 123.851 -1.17479 48.681)
(-29.1679 -0.57612 0.135186 97.8697 -1.21329 42.6734)
(-28.9004 -1.26667 0.130859 74.8839 -1.17573 37.9365)
(-28.242 -2.31121 0.122594 55.484 -1.07901 34.5457)
(-26.6543 -4.00996 0.110078 45.2825 -0.909502 34.6432)
(-21.2316 -5.9261 0.0889814 37.1936 -0.507667 35.6754)
(16.2379 47.8182 -3.24701 165.509 -0.805104 -10.3067)
(-60.869 22.6789 -5.67618 63.6638 -1.14867 -6.25735)
(-46.0902 26.2862 -6.76521 76.2723 -1.11936 -3.0202)
(-48.299 22.0987 -7.31856 53.5011 -0.984936 -1.01785)
(-45.6767 18.753 -7.65041 37.9692 -0.938608 -0.0516133)
(-44.7624 14.4386 -7.90729 23.1896 -1.05048 0.0898153)
(-44.2849 9.69493 -8.25587 13.911 -1.36135 -0.504947)
(-51.8658 6.47148 -9.14606 3.39878 -1.77873 -1.79141)
(-9.79558 41.4968 -2.11901 29.9095 -0.650844 -9.50167)
(-35.3511 53.1059 -3.98801 19.6934 -1.04994 -7.76785)
(-37.9272 51.731 -4.70999 21.7943 -1.08438 -5.81154)
(-38.4649 45.858 -4.99535 14.9421 -0.866379 -4.4785)
(-37.3552 39.0064 -5.13925 9.1872 -0.632786 -3.82258)
(-36.3549 31.5581 -5.28783 3.34706 -0.492797 -3.72726)
(-36.1904 24.0855 -5.62708 -1.19401 -0.499646 -4.07951)
(-43.2623 15.0628 -6.79815 -5.29674 -0.580773 -4.5224)
(-18.0179 37.5473 -1.66953 -51.5015 -0.456171 -9.17509)
(-4.36355 51.6163 -3.4427 -29.9697 -0.849048 -8.55965)
(-6.74584 51.7697 -4.17009 -27.0192 -0.945753 -7.32814)
(-7.82948 46.363 -4.42763 -19.6613 -0.747505 -6.37612)
(-8.98484 39.8367 -4.52206 -14.8428 -0.47131 -5.91984)
(-9.43283 32.8581 -4.6252 -11.3323 -0.239372 -5.87955)
(-9.43864 25.5289 -4.93854 -9.21405 -0.104637 -6.18815)
(-6.15865 15.1007 -6.12243 -5.00112 -0.0525906 -6.56631)
(-41.5238 37.7253 -1.57835 -175.797 -0.42944 -8.58334)
(22.101 22.0536 -3.50311 -75.3264 -0.819667 -8.346)
(7.64687 26.6799 -4.33794 -79.329 -0.907328 -7.20912)
(8.51988 23.1631 -4.63797 -55.2147 -0.69167 -6.38033)
(5.68434 20.2189 -4.73241 -39.3671 -0.392627 -5.99169)
(4.56868 16.7226 -4.81931 -25.857 -0.123973 -5.92069)
(4.61105 12.9022 -5.1079 -17.1201 0.109477 -6.05297)
(10.0623 7.31067 -6.24338 -7.95241 0.371319 -6.35264)
(-6.86187 0.4638 0.253121 -263.575 -20.5548 -88.2902)
(-5.44521 0.815288 0.711413 -128.834 10.6715 -23.3732)
(-4.08955 0.838409 0.7922 -121.35 7.30341 -31.6036)
(-3.45669 0.586097 0.752076 -85.8778 9.21188 -23.4398)
(-3.30651 0.307093 0.766038 -60.7016 8.8899 -20.3978)
(-3.17388 0.115115 0.9107 -40.0215 8.42063 -17.9302)
(-2.2314 -0.127474 1.24301 -26.4051 7.37716 -17.4975)
(1.70907 -1.45809 1.78048 -15.7737 3.54293 -17.09)
(-9.10322 0.185243 -0.302891 -257.283 -9.73783 -93.0009)
(-9.10622 0.400883 -0.247105 -144.466 8.62051 -37.5024)
(-8.90482 0.454628 -0.284279 -123.95 12.7282 -36.1553)
(-8.94389 0.364388 -0.345543 -90.3182 14.5464 -30.4275)
(-9.02034 0.285765 -0.321252 -63.9515 14.7213 -27.4331)
(-8.73949 0.303099 -0.171416 -42.7121 13.9395 -25.4987)
(-7.38627 0.30475 0.114584 -27.5535 11.9421 -24.6777)
(-2.37263 -0.930758 0.563379 -16.7196 6.74216 -23.8548)
(-10.4922 0.0386945 -0.337207 -253.124 -1.96072 -97.9606)
(-10.8969 0.163157 -0.307476 -144.245 7.66681 -48.294)
(-11.0267 0.240767 -0.272169 -125.321 11.4971 -44.4816)
(-11.2042 0.26075 -0.253347 -92.1034 13.457 -36.76)
(-11.2479 0.317613 -0.188814 -65.3614 13.9803 -31.9993)
(-10.8344 0.478335 -0.0496499 -43.5343 13.4206 -28.6093)
(-9.13547 0.616296 0.159393 -27.4856 11.5868 -26.228)
(-3.94051 -0.502886 0.411563 -15.5197 6.33077 -22.6464)
(-11.503 -0.0169749 -0.263669 -246.833 1.93458 -99.9534)
(-12.0077 0.0609578 -0.215014 -142.732 6.76467 -55.9189)
(-12.2546 0.149451 -0.140996 -125.175 9.55213 -51.5344)
(-12.4743 0.237774 -0.0856771 -92.8541 11.1439 -42.6614)
(-12.4784 0.39082 -0.00929863 -66.2456 11.7206 -36.4963)
(-11.8769 0.651843 0.109077 -44.0995 11.3771 -31.6819)
(-9.88513 0.861791 0.253591 -27.3263 9.88012 -27.7057)
(-4.5005 -0.209057 0.397989 -14.8966 5.41435 -22.2825)
(-12.2285 -0.0351798 -0.180839 -240.13 3.28373 -100.028)
(-12.7539 0.0257631 -0.1254 -140.975 5.60962 -60.4971)
(-13.0491 0.124716 -0.0457399 -124.364 7.51322 -56.2862)
(-13.269 0.258133 0.0165474 -92.9193 8.65294 -47.0518)
(-13.1951 0.471941 0.0862015 -66.595 9.11616 -40.0825)
(-12.4491 0.791154 0.172027 -44.3276 8.89097 -34.2793)
(-10.2747 1.03955 0.260883 -27.1168 7.74223 -29.148)
(-4.76111 -0.0115812 0.34184 -14.4005 4.23586 -22.4501)
(-12.7176 -0.0382222 -0.111818 -234.345 3.14073 -99.3363)
(-13.2355 0.0204455 -0.0624133 -139.341 4.1967 -63.0433)
(-13.5367 0.129663 0.00434493 -123.39 5.42013 -59.1718)
(-13.7354 0.290039 0.0568495 -92.6592 6.16962 -49.9256)
(-13.6025 0.538272 0.108665 -66.6217 6.48505 -42.5845)
(-12.763 0.889104 0.164359 -44.3474 6.32933 -36.2151)
(-10.4805 1.15745 0.215246 -26.9036 5.51482 -30.3794)
(-4.89109 0.114951 0.257567 -14.0785 3.01848 -22.97)
(-13.0177 -0.0369655 -0.0596509 -230.2 2.16202 -98.5745)
(-13.5273 0.0242991 -0.0266239 -138.103 2.59268 -64.3493)
(-13.8211 0.141563 0.0161793 -122.583 3.27606 -60.7673)
(-13.9994 0.316907 0.0497743 -92.3552 3.70003 -51.6127)
(-13.8278 0.583287 0.0809024 -66.5378 3.87923 -44.1262)
(-12.9305 0.950458 0.112244 -44.2931 3.78332 -37.4703)
(-10.5848 1.22795 0.13893 -26.7346 3.29432 -31.2519)
(-4.95196 0.188737 0.156467 -13.8705 1.80218 -23.4736)
(-13.1592 -0.0358825 -0.0186914 -228.054 0.763187 -98.1135)
(-13.6642 0.0273859 -0.00729687 -137.44 0.876403 -64.8916)
(-13.9534 0.148912 0.00714312 -122.134 1.09618 -61.4684)
(-14.1208 0.331116 0.0184745 -92.1668 1.23338 -52.3844)
(-13.9297 0.605789 0.0287155 -66.4674 1.29124 -44.8529)
(-13.0062 0.980577 0.0389521 -44.2492 1.25847 -38.083)
(-10.624 1.25937 0.0475247 -26.6411 1.09495 -31.6968)
(-4.98299 0.219927 0.0511914 -13.7744 0.598554 -23.7741)
(-54.6276 9.44204 -3.87777 -1.09647 -1.60219 -1.1141)
(-48.3644 8.68752 -2.17733 0.93276 -1.20455 4.65507)
(-48.3702 8.5391 -2.75162 2.59802 -0.83286 3.42701)
(-48.3774 8.55421 -2.89308 3.93802 -0.578385 3.94975)
(-48.8171 8.61094 -2.6742 4.95853 -0.403566 4.55908)
(-49.1814 8.67081 -2.10232 5.69394 -0.273257 5.33836)
(-49.4344 8.71852 -1.33541 6.16066 -0.169243 5.95815)
(-49.588 8.74263 -0.458617 6.32552 -0.0611266 6.26054)
(-46.449 6.87166 -7.73497 -3.90867 -0.198361 -9.77026)
(-41.4086 5.62951 -7.94466 -2.99895 -0.0896419 -8.37323)
(-41.3723 5.27518 -7.6166 -1.86531 0.0395317 -7.38781)
(-42.1951 5.15992 -7.0897 -0.894387 0.0844164 -6.39573)
(-43.045 5.12223 -6.07981 -0.143611 0.0828004 -5.78619)
(-43.6636 5.11355 -4.62058 0.402289 0.0638852 -5.35685)
(-44.0419 5.11898 -2.87351 0.766177 0.0392847 -5.07724)
(-44.1999 5.13237 -0.974014 0.970211 0.0132279 -4.92299)
(-5.78325 6.0955 -7.80189 -5.99838 0.416328 -5.80342)
(-8.97411 4.78256 -9.33798 -5.2995 0.413345 -7.77537)
(-10.514 4.3547 -8.94715 -4.47167 0.409629 -6.19225)
(-11.8595 4.17856 -7.98805 -3.75218 0.358482 -5.01)
(-12.784 4.09196 -6.63332 -3.18098 0.282789 -4.35415)
(-13.3741 4.04561 -4.94769 -2.76968 0.201793 -4.09591)
(-13.7169 4.02114 -3.04643 -2.50009 0.123123 -4.03022)
(-13.8694 4.00928 -1.02817 -2.35432 0.0423604 -4.02318)
(10.5247 6.15655 -4.63444 -5.8892 0.842723 -8.71845)
(5.29008 4.89856 -5.20316 -5.37558 0.647821 -13.3608)
(3.81704 4.4784 -5.0252 -4.93617 0.531273 -10.957)
(2.70104 4.29605 -4.35003 -4.51269 0.436049 -9.79739)
(2.13463 4.19812 -3.54816 -4.16326 0.337606 -9.3026)
(1.78846 4.14034 -2.61507 -3.90312 0.239016 -9.35189)
(1.59472 4.1059 -1.60226 -3.73187 0.142529 -9.56425)
(1.49919 4.08411 -0.540456 -3.65372 0.0473847 -9.72862)
)
;
    }
    symmetry
    {
        type            symmetryPlane;
    }
    bottom
    {
        type            calculated;
        value           nonuniform List<symmTensor> 
32
(
(133.723 58.8684 0 200.584 50.5172 133.723)
(133.458 60.181 0 200.186 20.9477 133.458)
(133.961 59.6732 0 200.941 6.41643 133.961)
(132.908 58.1414 0 199.363 -0.230334 132.908)
(131.105 56.5157 0 196.658 -2.69742 131.105)
(129.348 55.1728 0 194.021 -2.97354 129.348)
(128.02 54.2481 0 192.03 -2.12896 128.02)
(127.317 53.7795 0 190.975 -0.760391 127.317)
(23.1931 30.7274 0 34.7896 16.3653 23.1931)
(26.3388 31.3749 0 39.5082 7.47348 26.3388)
(28.1389 28.9218 0 42.2083 2.41218 28.1389)
(28.6263 26.3636 0 42.9394 -0.0175497 28.6263)
(28.6943 24.287 0 43.0415 -0.937891 28.6943)
(28.6402 22.7811 0 42.9602 -1.05012 28.6402)
(28.5713 21.816 0 42.8569 -0.753148 28.5713)
(28.5293 21.3463 0 42.794 -0.26889 28.5293)
(-34.3801 26.7945 0 -51.5702 -15.0284 -34.3801)
(-32.5567 27.1956 0 -48.835 -7.72067 -32.5567)
(-32.4406 24.1104 0 -48.661 -3.56937 -32.4406)
(-31.9126 21.0645 0 -47.8689 -1.30072 -31.9126)
(-31.2242 18.6598 0 -46.8363 -0.169579 -31.2242)
(-30.5668 16.9394 0 -45.8502 0.271087 -30.5668)
(-30.067 15.8432 0 -45.1005 0.30453 -30.067)
(-29.7998 15.3114 0 -44.6997 0.123772 -29.7998)
(-132.491 45.7654 0 -198.737 -50.0261 -132.491)
(-128.225 45.3736 0 -192.338 -22.5924 -128.225)
(-127.76 42.8108 0 -191.641 -8.38978 -127.76)
(-125.484 39.8076 0 -188.225 -1.42711 -125.484)
(-122.57 37.1655 0 -183.855 1.50819 -122.57)
(-119.903 35.1383 0 -179.855 2.21642 -119.903)
(-117.941 33.7861 0 -176.911 1.72053 -117.941)
(-116.912 33.1127 0 -175.369 0.63274 -116.912)
)
;
    }
}


// ************************************************************************* //
