/*--------------------------------*- C++ -*----------------------------------*\
| =========                 |                                                 |
| \\      /  F ield         | foam-extend: Open Source CFD                    |
|  \\    /   O peration     | Version:     3.1                                |
|   \\  /    A nd           | Web:         http://www.extend-project.de       |
|    \\/     M anipulation  |                                                 |
\*---------------------------------------------------------------------------*/
FoamFile
{
    version     2.0;
    format      ascii;
    class       volScalarField;
    location    "1.7";
    object      sigmaEq;
}
// * * * * * * * * * * * * * * * * * * * * * * * * * * * * * * * * * * * * * //

dimensions      [1 -1 -2 0 0 0 0];

internalField   nonuniform List<scalar> 
256
(
163.471
84.0638
77.1238
145.144
121.704
101.723
91.4442
101.693
112
94.3834
83.7432
88.0462
92.31
82.8389
72.9529
66.624
75.2492
70.4339
61.6912
49.3102
61.244
58.3281
50.8736
35.76
52.5481
48.0338
40.3086
26.474
51.9581
42.6788
26.57
20.4091
159.423
84.2115
76.4039
137.264
124.95
95.8231
85.2066
103.49
109.11
82.0797
71.3149
84.0612
89.1683
69.6544
59.7461
62.569
71.7626
57.8297
49.4471
45.2241
58.219
47.4108
40.7503
32.4406
49.8179
39.3307
33.1593
24.0817
49.554
37.5406
24.4332
19.186
156.626
80.6993
71.2256
131.205
123.655
91.6239
78.9447
99.1191
109.265
78.1034
64.9981
80.7174
89.6217
65.4929
53.3795
59.6411
72.3093
54.096
43.847
42.7035
58.6748
44.3502
36.3879
30.4111
50.0504
37.1795
30.3545
22.5871
49.3454
37.0399
23.2612
17.0288
153.146
76.9265
66.0898
125.453
122.012
88.512
73.9326
95.082
109.112
76.2065
60.9165
77.5187
90.3104
64.2183
49.9762
56.9742
73.3375
53.3148
41.1984
40.307
59.7746
43.9679
34.5695
28.2778
51.0852
37.1876
29.3557
20.8562
50.3371
37.8277
22.6733
15.3987
149.753
73.6308
61.7981
120.379
120.654
86.0128
69.951
91.8159
108.939
74.9547
57.9906
74.8688
90.9837
63.7388
47.8781
54.8001
74.4081
53.3383
39.8077
38.3294
60.9676
44.2844
33.7793
26.4303
52.2739
37.6697
29.0021
19.3537
51.5428
38.5805
22.2101
14.2791
146.915
71.0925
58.5524
116.327
119.573
84.1016
66.9433
89.305
108.751
74.0373
55.8654
72.8337
91.4757
63.48
46.4784
53.1635
75.2425
53.4988
38.9904
36.8535
61.9225
44.6591
33.3933
25.0383
53.2464
38.1073
28.8508
18.2449
52.5858
39.0581
21.7308
13.5854
144.911
69.3957
56.3937
113.523
118.813
82.8101
64.922
87.5869
108.586
73.4117
54.4519
71.4459
91.7754
63.31
45.5805
52.0642
75.782
53.619
38.4994
35.8763
62.5512
44.9201
33.1842
24.1255
53.8978
38.3893
28.762
17.5445
53.304
39.308
21.318
13.2048
143.88
68.5503
55.3184
112.094
118.417
82.16
63.9061
86.7118
108.489
73.0919
53.7419
70.74
91.9111
63.2197
45.1348
51.5093
76.0394
53.6753
38.2615
35.3881
62.8546
45.0459
33.0859
23.675
54.2137
38.5207
28.7141
17.2095
53.6564
39.4092
21.0785
13.0395
)
;

boundaryField
{
    interface
    {
        type            calculated;
        value           nonuniform List<scalar> 
192
(
259.39
132.34
131.389
103.027
82.6189
66.2259
58.5421
52.0164
255.894
143.429
133.936
107.456
86.7318
71.0457
63.1255
56.1094
252.832
140.717
133.882
107.942
87.077
71.0248
62.7959
54.3464
248.711
138.283
133.56
108.701
88.2272
72.2231
64.0038
55.1592
244.266
136.489
133.218
109.372
89.3622
73.4902
65.3426
56.2588
240.351
135.169
132.928
109.891
90.2796
74.5505
66.4877
57.3873
237.504
134.266
132.698
110.214
90.8797
75.2575
67.2599
58.1987
236.016
133.798
132.562
110.357
91.1633
75.5972
67.6277
58.5941
183.962
115.471
117.352
97.0267
80.5927
66.3152
56.9881
56.3947
82.1316
103.847
103.819
92.6188
79.8429
66.4664
54.4809
47.8718
75.7221
92.7161
92.1667
81.6601
69.8897
57.674
45.147
28.2583
166.779
94.6079
93.2081
70.7814
54.1664
40.3146
30.5276
23.9992
229.993
116.958
106.98
76.1764
53.3337
35.313
24.8261
19.5943
219.306
124.533
106.442
77.2701
54.7333
38.065
28.0205
22.3391
212.862
119.876
103.709
75.3259
53.1293
36.6746
26.818
19.7204
205.913
115.82
100.659
72.9279
50.8819
34.3801
24.6217
18.1099
199.175
112.662
98.0655
70.8481
48.8743
32.1869
22.4781
17.0142
193.531
110.25
96.0486
69.2595
47.3441
30.4875
20.8394
16.5145
189.528
108.586
94.6541
68.1803
46.3195
29.3576
19.7817
16.3502
187.464
107.732
93.9375
67.6302
45.8031
28.7947
19.2729
16.3224
56.435
53.5963
53.7052
54.6183
55.8111
56.8414
57.5593
57.902
43.7716
39.777
40.3813
41.7072
42.6605
43.1705
43.3989
43.4826
17.165
18.4732
18.0727
17.3582
16.2728
14.9268
13.6891
12.9447
22.453
20.4243
17.388
15.1919
13.7632
12.8534
12.3205
12.0699
)
;
    }
    symmetry
    {
        type            symmetryPlane;
    }
    bottom
    {
        type            calculated;
        value           nonuniform List<scalar> 
32
(
150.076
128.974
123.663
120.655
117.903
115.505
113.752
112.831
61.4041
57.3947
52.1997
47.8537
44.4754
42.0156
40.4178
39.632
55.9186
51.6005
45.2245
39.8851
35.8942
33.0853
31.2939
30.4199
134.832
108.71
98.9451
93.2555
88.9186
85.5162
83.1317
81.9004
)
;
    }
}


// ************************************************************************* //
