/*--------------------------------*- C++ -*----------------------------------*\
| =========                 |                                                 |
| \\      /  F ield         | foam-extend: Open Source CFD                    |
|  \\    /   O peration     | Version:     3.1                                |
|   \\  /    A nd           | Web:         http://www.extend-project.de       |
|    \\/     M anipulation  |                                                 |
\*---------------------------------------------------------------------------*/
FoamFile
{
    version     2.0;
    format      ascii;
    class       volScalarField;
    location    "1.7";
    object      sigmaCauchyEq;
}
// * * * * * * * * * * * * * * * * * * * * * * * * * * * * * * * * * * * * * //

dimensions      [1 -1 -2 0 0 0 0];

internalField   nonuniform List<scalar> 
256
(
172.696
84.8623
76.0047
136.829
122.452
101.889
90.7541
100.389
113.266
94.3535
83.1869
86.5647
92.7336
82.6418
72.5646
65.8956
75.3258
70.1707
61.4176
48.9196
61.1019
58.0425
50.6872
35.5785
52.3472
47.7545
40.1859
26.3945
51.5759
42.3091
26.5391
20.4166
168.465
85.1722
75.3336
129.645
126.54
96.436
84.3096
101.531
110.537
82.2733
70.7525
82.5394
89.8232
69.6886
59.3468
61.7469
72.0071
57.7653
49.1722
44.7766
58.2312
47.2984
40.5611
32.2061
49.744
39.1866
33.0323
23.9605
49.2988
37.2816
24.3746
19.1409
165.405
81.6504
70.2372
124.055
125.079
92.204
78.1178
97.2707
110.616
78.2853
64.4805
79.2515
90.2409
65.5274
53.0161
58.8395
72.5327
54.0418
43.5972
42.2673
58.6737
44.2524
36.215
30.1823
49.9677
37.0501
30.2345
22.4685
49.0711
36.7883
23.2005
16.9891
161.558
77.8192
65.1951
118.811
123.265
89.025
73.183
93.3802
110.364
76.3502
60.4439
76.1564
90.8799
64.231
49.6441
56.2308
73.5365
53.25
40.9697
39.9078
59.7617
43.8657
34.4102
28.0731
51.0004
37.056
29.2424
20.753
50.0642
37.5702
22.6121
15.3646
157.797
74.4675
60.9864
114.203
121.78
86.4757
69.2668
90.2357
110.103
75.0711
57.5561
73.606
91.5044
63.7364
47.5717
54.1186
74.5796
53.2659
39.5962
37.9729
60.9382
44.1783
33.6311
26.2554
52.1818
37.5349
28.8953
19.2691
51.2635
38.3161
22.1516
14.2524
154.654
71.8868
57.8044
110.522
120.617
84.5326
66.3088
87.8146
109.853
74.1379
55.4602
71.6489
91.9619
63.4694
46.1919
52.533
75.3931
53.4225
38.7923
36.5342
61.8792
44.5507
33.2542
24.8902
53.1472
37.9702
28.7501
18.1769
52.3017
38.7899
21.6766
13.5647
152.437
70.1625
55.688
107.972
119.808
83.2229
64.3208
86.1555
109.65
73.5043
54.0664
70.3137
92.2403
63.2958
45.3074
51.4687
75.919
53.5413
38.3105
35.5832
62.4983
44.8107
33.0515
23.9971
53.7931
38.2508
28.666
17.4886
53.0163
39.038
21.268
13.1884
151.298
69.3037
54.6337
106.67
119.39
82.5647
63.3214
85.3097
109.535
73.1812
53.3662
69.634
92.366
63.2041
44.8684
50.9316
76.1698
53.5971
38.0771
35.1085
62.7966
44.9362
32.9565
23.5568
54.1061
38.3817
28.6206
17.1599
53.3671
39.1387
21.0312
13.0252
)
;

boundaryField
{
    interface
    {
        type            calculated;
        value           nonuniform List<scalar> 
192
(
270.111
134.888
133.667
104.182
83.1244
66.3637
58.538
51.9423
265.832
146.289
136.203
108.622
87.2326
71.1851
63.1196
56.0506
262.196
143.263
136.018
109.053
87.554
71.1506
62.7811
54.281
257.526
140.54
135.523
109.722
88.6544
72.3197
63.9766
55.0982
252.599
138.541
135.039
110.314
89.7424
73.5568
65.3005
56.2007
248.304
137.084
134.651
110.776
90.6237
74.5921
66.4315
57.3314
245.199
136.098
134.36
111.063
91.1998
75.2813
67.193
58.144
243.58
135.591
134.195
111.189
91.4717
75.6121
67.5553
58.5403
189.857
115.688
118.197
97.1428
80.432
65.9796
56.6094
55.8699
82.6305
103.654
103.575
92.2193
79.4042
66.0326
54.0869
47.4523
74.7533
92.1712
91.6186
81.2715
69.6054
57.4761
45.0147
28.2209
161.123
93.6681
91.9485
70.1714
53.8459
40.1833
30.4885
24.0354
219.914
114.186
104.691
75.0023
52.7512
35.0539
24.707
19.5607
210.173
121.276
104.035
75.9494
54.0324
37.7012
27.8165
22.241
204.334
116.848
101.399
74.0392
52.4417
36.3155
26.6168
19.6308
197.963
113.033
98.5087
71.7313
50.2521
34.0601
24.4456
18.0308
191.738
110.064
96.0618
69.746
48.3122
31.9163
22.3321
16.9439
186.502
107.791
94.1592
68.2353
46.841
30.2621
20.7201
16.4488
182.779
106.217
92.8416
67.2098
45.8585
29.1657
19.6819
16.2865
180.856
105.408
92.1635
66.687
45.3638
28.6203
19.1834
16.2593
55.8683
53.1358
53.2426
54.1517
55.3339
56.3552
57.0669
57.4062
43.377
39.4559
40.0603
41.3746
42.3196
42.8262
43.0542
43.1385
17.1364
18.4241
18.0213
17.3066
16.2236
14.8823
13.6497
12.9089
22.4853
20.4178
17.3833
15.1874
13.7593
12.8497
12.317
12.0665
)
;
    }
    symmetry
    {
        type            symmetryPlane;
    }
    bottom
    {
        type            calculated;
        value           nonuniform List<scalar> 
32
(
157.459
135.266
129.705
126.499
123.534
120.946
119.054
118.061
61.9377
57.9593
52.7468
48.3631
44.9492
42.4619
40.8458
40.0509
55.2062
50.978
44.6814
39.4146
35.4805
32.7125
30.9474
30.0862
128.237
103.591
94.3195
88.9828
84.9451
81.782
79.5639
78.4175
)
;
    }
}


// ************************************************************************* //
