/*--------------------------------*- C++ -*----------------------------------*\
| =========                 |                                                 |
| \\      /  F ield         | foam-extend: Open Source CFD                    |
|  \\    /   O peration     | Version:     3.1                                |
|   \\  /    A nd           | Web:         http://www.extend-project.de       |
|    \\/     M anipulation  |                                                 |
\*---------------------------------------------------------------------------*/
FoamFile
{
    version     2.0;
    format      ascii;
    class       volSymmTensorField;
    location    "1.7";
    object      sigmaCauchy;
}
// * * * * * * * * * * * * * * * * * * * * * * * * * * * * * * * * * * * * * //

dimensions      [1 -1 -2 0 0 0 0];

internalField   nonuniform List<symmTensor> 
256
(
(112.65 53.2114 -1.41174 264.694 15.7539 131.744)
(12.0988 43.9176 -5.61649 49.3878 6.1614 17.9388)
(-32.3973 38.77 -6.04476 -64.1617 -7.32791 -32.7896)
(-125.642 35.1677 -2.99938 -250.261 -16.1032 -137.36)
(-57.7175 23.2556 -2.83719 70.7849 -11.8397 -16.7604)
(-25.9113 51.4405 -9.81037 25.904 -4.59823 -8.79133)
(-4.35119 48.5128 -10.051 -34.5318 1.48217 -5.91267)
(22.0796 18.0154 -3.85123 -81.1291 7.40522 0.577474)
(-26.2524 25.811 -1.93766 91.6485 -7.28382 17.3782)
(-28.0544 47.3186 -7.89457 23.2353 -2.51524 -4.96004)
(-6.47054 45.4551 -8.20781 -29.79 0.344329 -7.5832)
(-5.14885 20.2883 -3.08787 -91.3289 4.40332 -23.7121)
(-34.5243 21.5815 -2.31002 62.0137 -7.75974 9.75777)
(-29.6095 41.4515 -7.5363 14.8815 -2.33069 -5.43466)
(-6.23735 40.143 -7.64292 -21.591 1.14174 -5.23667)
(1.72086 17.366 -3.27371 -61.8568 5.91923 -13.6776)
(-32.7911 18.0958 -2.2872 44.8887 -6.52693 10.7918)
(-28.8806 34.9691 -7.05732 8.82359 -1.68965 -4.44077)
(-7.13917 34.206 -7.06697 -16.116 1.42499 -4.87417)
(-0.0323356 15.1495 -3.13711 -44.4751 5.8618 -12.7332)
(-33.6756 13.9195 -2.51798 28.5918 -5.46069 9.11089)
(-28.6333 28.2735 -6.91436 3.03877 -1.28499 -4.42799)
(-7.5475 28.2015 -6.7576 -11.8386 1.55629 -4.67842)
(0.290889 12.6515 -3.0952 -29.1017 5.68023 -10.9168)
(-32.9791 9.52192 -3.13098 19.8603 -4.71109 10.1211)
(-29.4348 21.7876 -7.15449 -1.5975 -1.301 -4.71899)
(-7.85848 22.0679 -6.74085 -9.01212 1.39532 -5.15308)
(0.784342 9.86252 -3.16549 -19.0136 5.07565 -10.997)
(-43.5743 7.33974 -3.99556 6.9002 -2.6091 4.45287)
(-41.0272 14.5571 -7.67689 -8.9668 -0.691385 -10.6724)
(-3.56405 13.4374 -7.31306 -2.74896 0.714698 -2.76498)
(7.65902 5.64562 -3.85964 -8.27402 2.46695 -8.54605)
(116.775 53.6531 -0.590983 266.933 6.08517 139.683)
(18.3677 44.7568 -4.21506 55.2838 2.42352 24.5067)
(-31.7878 39.8732 -4.87091 -60.3675 -4.3345 -33.2172)
(-123.711 35.9123 -2.37691 -243.286 -8.18901 -138.812)
(-35.4808 20.3611 -1.26781 100.694 -10.0691 9.1134)
(-9.77701 47.4164 -8.33509 44.1468 -3.94601 6.27656)
(-16.2348 44.543 -9.43384 -46.881 0.585783 -18.0133)
(0.239387 15.4587 -4.00297 -106.771 5.5666 -23.9015)
(-20.5576 20.6362 -0.744465 96.4941 -11.9457 22.6329)
(-19.1237 39.6176 -7.56549 30.0601 -4.21808 0.9)
(-12.0652 37.9419 -8.78575 -33.0339 1.89702 -11.8247)
(-10.9357 15.5544 -3.62733 -94.4702 8.64734 -28.4206)
(-24.9992 16.7751 -0.500487 70.1475 -11.8415 18.9817)
(-19.6858 33.4869 -6.682 22.2076 -3.74767 1.18075)
(-12.1882 32.2451 -7.82935 -24.9123 2.77917 -9.93033)
(-7.30043 12.7809 -3.35356 -67.6505 10.1329 -21.6875)
(-24.5808 13.5622 -0.233852 50.8241 -10.5984 18.7481)
(-19.6911 27.5853 -5.99139 15.0595 -3.02867 1.29864)
(-12.0062 26.8766 -7.06475 -18.0271 3.26561 -8.54084)
(-7.61859 10.8657 -2.97393 -48.0311 10.4625 -19.4016)
(-25.033 10.0918 -0.258073 34.71 -8.94359 17.8097)
(-19.5814 22.1073 -5.66278 9.07857 -2.35731 1.23148)
(-11.8049 22.0719 -6.56995 -12.8941 3.31236 -7.83238)
(-7.10792 9.09766 -2.68334 -31.9703 10.0055 -17.6948)
(-24.791 6.40399 -0.74213 25.0624 -7.0826 18.4462)
(-21.3054 17.1642 -5.91924 3.29488 -1.89482 0.0501494)
(-11.3462 17.5721 -6.59258 -9.07173 2.78875 -7.52627)
(-5.31813 7.30316 -2.59562 -19.8856 8.54461 -16.5634)
(-35.3585 5.71167 -1.90564 12.1514 -3.83765 12.5736)
(-33.8626 12.2465 -7.17875 -4.94152 -0.917584 -6.93063)
(-7.81129 11.2591 -8.04636 -3.80493 1.58615 -5.80645)
(0.800897 4.53028 -3.80572 -10.2462 4.78425 -14.7804)
(116.588 52.8671 -0.456359 266.075 -0.167818 144.282)
(19.6356 42.6407 -2.4237 57.6708 -0.10745 28.1919)
(-31.8465 37.4839 -2.86038 -59.1431 -2.02857 -34.4313)
(-123.211 34.4336 -1.4429 -240.054 -2.3372 -142)
(-35.5437 18.9893 -1.014 101.529 -8.3205 16.8559)
(-8.91835 44.6265 -5.2222 47.0847 -3.37633 11.4191)
(-17.7803 41.7723 -6.08544 -46.931 0.495031 -21.4715)
(-3.10368 14.2382 -2.83156 -108.21 4.91392 -33.9451)
(-21.4357 19.0091 -0.995368 97.9251 -10.5266 26.7905)
(-18.8191 36.5355 -5.43744 32.6255 -3.848 4.44705)
(-13.8106 34.9057 -6.38303 -33.3763 1.90807 -14.5242)
(-13.8324 14.0167 -2.81475 -96.352 7.97334 -35.8623)
(-25.9101 15.2503 -0.911449 71.3111 -10.8223 21.0086)
(-19.3851 30.2205 -5.09937 24.3746 -3.55546 3.87192)
(-14.0617 29.041 -5.96935 -25.0553 2.90078 -11.9578)
(-10.5618 11.3991 -2.58251 -69.6218 9.64604 -27.5595)
(-25.8609 12.0868 -0.786994 51.4496 -9.95418 19.1916)
(-19.2913 24.594 -4.66387 17.0955 -2.92558 3.59175)
(-13.7875 23.9958 -5.44814 -17.9706 3.48188 -9.98104)
(-10.4775 9.67065 -2.26993 -49.4042 10.2318 -23.6191)
(-26.2667 8.76251 -0.809431 35.0756 -8.49872 17.4984)
(-18.9968 19.6222 -4.47309 10.9838 -2.23929 3.34119)
(-13.3806 19.7947 -5.12272 -12.5315 3.58408 -8.68641)
(-9.62451 8.27076 -2.01783 -32.6732 9.91262 -20.5755)
(-25.5691 5.19387 -1.17965 25.5494 -6.61602 17.8935)
(-20.5777 15.3686 -4.87763 4.98054 -1.6158 1.94847)
(-12.7249 16.0915 -5.39878 -8.41891 3.05136 -7.73621)
(-7.44749 6.89612 -2.0484 -19.7879 8.48206 -18.0367)
(-36.7024 5.02932 -2.3104 11.6321 -3.24851 10.5356)
(-33.6038 11.3607 -6.52295 -3.75336 -0.549076 -5.6656)
(-9.1203 10.5916 -7.3513 -2.77682 1.64147 -4.79668)
(-0.0794705 4.43953 -3.52152 -8.50689 4.52517 -13.1022)
(114.846 51.267 -0.232599 262.453 -3.04095 145.668)
(19.4346 40.2063 -1.23664 58.0106 -1.20147 29.7121)
(-31.6287 34.8311 -1.47419 -57.5946 -0.710397 -34.7587)
(-120.811 32.5236 -0.735155 -234.281 0.679787 -141.727)
(-35.6008 17.8369 -0.521513 101.013 -6.82424 22.6127)
(-9.70383 42.3492 -2.96166 47.6938 -2.73594 13.9491)
(-18.509 39.521 -3.49121 -45.6945 0.512008 -23.249)
(-4.99536 13.3277 -1.65028 -107.453 4.33533 -40.4349)
(-21.7717 18.0705 -0.740297 98.9814 -8.426 31.5385)
(-19.8177 34.722 -3.58295 33.6677 -3.06975 6.46899)
(-14.9067 33.1664 -4.15038 -32.7159 1.66733 -16.3586)
(-15.2403 13.2754 -1.8157 -96.2735 6.65695 -41.4922)
(-26.1578 14.5001 -0.837828 73.1419 -8.75088 24.5951)
(-20.361 28.7048 -3.67349 25.5481 -2.86453 5.40101)
(-15.2648 27.6109 -4.1613 -24.5861 2.53449 -13.5166)
(-12.1513 10.858 -1.7394 -70.1873 8.06639 -32.3493)
(-26.028 11.4589 -0.84611 53.515 -8.20309 21.7662)
(-20.1243 23.3676 -3.55889 18.3405 -2.38789 4.82329)
(-14.9628 22.8896 -3.9625 -17.556 3.07639 -11.1436)
(-12.0081 9.3201 -1.55605 -50.0461 8.67439 -27.3024)
(-26.276 8.22328 -0.922067 37.1661 -7.12971 19.4046)
(-19.6228 18.6966 -3.57184 12.226 -1.84004 4.44537)
(-14.4211 19.0538 -3.87285 -12.0433 3.19609 -9.35418)
(-11.0156 8.14149 -1.41141 -33.0917 8.49658 -23.14)
(-25.233 4.70653 -1.26913 27.7251 -5.62063 19.4548)
(-21.0268 14.769 -4.11858 6.14898 -1.29923 2.99813)
(-13.6656 15.7225 -4.35094 -7.81061 2.7336 -7.80338)
(-8.6388 6.96406 -1.54398 -19.7083 7.29724 -19.3109)
(-36.35 4.80452 -2.37825 13.548 -2.80466 11.6044)
(-34.1933 11.1051 -5.9019 -2.65646 -0.407894 -4.61821)
(-10.3566 10.4441 -6.4031 -2.19036 1.47132 -4.13888)
(-1.17995 4.54311 -2.97603 -8.07645 3.89289 -12.7797)
(112.466 49.6054 -0.0831553 257.891 -3.7735 145.007)
(18.9968 38.0524 -0.541811 57.7897 -1.45352 30.2959)
(-31.2341 32.5506 -0.662087 -55.9527 -0.0419575 -34.586)
(-117.749 30.7791 -0.317486 -227.856 1.85012 -139.679)
(-35.7771 16.8594 -0.186337 100.125 -5.3791 25.9474)
(-10.4244 40.418 -1.51916 47.8311 -2.1064 15.2834)
(-19.0005 37.6427 -1.82335 -44.3278 0.498383 -24.2385)
(-6.29278 12.6153 -0.850812 -106.172 3.60814 -44.318)
(-22.2728 17.3405 -0.454996 99.2852 -6.40442 34.6716)
(-20.6188 33.3765 -2.18928 34.3096 -2.29051 7.70658)
(-15.7155 31.9135 -2.50632 -31.8434 1.35384 -17.6263)
(-16.0139 12.7774 -1.04861 -95.4336 5.23622 -45.1459)
(-26.5455 14.0182 -0.631954 74.3757 -6.62873 27.3356)
(-21.129 27.7983 -2.47639 26.4512 -2.13206 6.42301)
(-16.1043 26.7971 -2.7236 -23.9369 2.02231 -14.7026)
(-13.0493 10.5963 -1.06744 -70.0519 6.27909 -35.7792)
(-26.3217 11.1327 -0.722545 55.1553 -6.27933 23.9861)
(-20.7729 22.7883 -2.56738 19.3772 -1.79532 5.69516)
(-15.7493 22.4169 -2.74423 -17.0204 2.45378 -12.0912)
(-12.8589 9.23807 -0.995793 -50.1574 6.77313 -30.1179)
(-26.4357 7.986 -0.842423 38.9152 -5.54515 21.2298)
(-20.1125 18.3618 -2.72316 13.2876 -1.4058 5.27084)
(-15.1015 18.8562 -2.82572 -11.5321 2.55121 -9.94821)
(-11.7648 8.21522 -0.952573 -33.1634 6.66599 -25.1885)
(-25.1666 4.50371 -1.17179 29.4977 -4.44251 21.0765)
(-21.4197 14.6221 -3.31422 7.12939 -1.00109 3.81855)
(-14.2918 15.7231 -3.37821 -7.28622 2.17934 -7.96083)
(-9.23707 7.14445 -1.14707 -19.496 5.73478 -20.4184)
(-36.5127 4.74049 -2.17404 14.8805 -2.21966 12.6492)
(-34.8555 11.0982 -4.97898 -1.87684 -0.295624 -3.93395)
(-11.1847 10.4777 -5.24374 -1.67746 1.16727 -3.78925)
(-1.66765 4.67859 -2.40003 -7.60258 3.04851 -12.752)
(110.295 48.2218 -0.00363799 253.771 -3.29898 143.695)
(18.5961 36.3891 -0.183538 57.4658 -1.25158 30.4623)
(-30.7982 30.8164 -0.241373 -54.495 0.214452 -34.225)
(-114.962 29.4067 -0.104364 -222.234 1.92161 -137.303)
(-35.849 16.0944 -0.00649968 99.3558 -3.89559 27.7946)
(-10.9321 38.899 -0.688189 47.855 -1.49357 15.9513)
(-19.298 36.1789 -0.855196 -43.1231 0.419529 -24.7551)
(-7.19791 12.0826 -0.383293 -104.908 2.7122 -46.5372)
(-22.6265 16.7679 -0.232016 99.3564 -4.50627 36.5833)
(-21.1444 32.3441 -1.23209 34.7524 -1.58074 8.41853)
(-16.2637 30.9647 -1.40033 -31.028 0.998592 -18.4462)
(-16.48 12.4138 -0.545532 -94.4695 3.77507 -47.3609)
(-26.8107 13.664 -0.406462 75.2142 -4.63668 29.2092)
(-21.6271 27.1636 -1.54057 27.1258 -1.4636 7.06259)
(-16.6476 26.2422 -1.65618 -23.3047 1.46179 -15.5198)
(-13.5868 10.4327 -0.598774 -69.6703 4.47642 -38.0257)
(-26.5189 10.9214 -0.517595 56.3586 -4.41773 25.6639)
(-21.1828 22.4476 -1.70554 20.1744 -1.24229 6.28672)
(-16.2355 22.1597 -1.76998 -16.5004 1.76358 -12.775)
(-13.3456 9.21994 -0.591326 -50.0208 4.82082 -32.0672)
(-26.5365 7.8549 -0.642158 40.229 -3.9475 22.7438)
(-20.4154 18.2199 -1.90592 14.1027 -0.989393 5.86658)
(-15.5078 18.8118 -1.92057 -11.0688 1.82725 -10.4029)
(-12.182 8.30868 -0.605538 -33.0686 4.74769 -26.6889)
(-25.1246 4.39725 -0.915941 30.8088 -3.20329 22.5122)
(-21.6746 14.6035 -2.42598 7.86306 -0.714878 4.42568)
(-14.6693 15.8017 -2.41901 -6.85832 1.55518 -8.13416)
(-9.56031 7.30049 -0.797465 -19.2669 4.08384 -21.3348)
(-36.6008 4.71272 -1.7019 15.9468 -1.61007 13.786)
(-35.3231 11.1396 -3.75341 -1.29358 -0.207315 -3.42596)
(-11.7079 10.5381 -3.88358 -1.28614 0.831194 -3.67803)
(-1.9801 4.77926 -1.75888 -7.29586 2.1691 -13.0575)
(108.707 47.2595 0.0196176 250.765 -2.18158 142.494)
(18.3125 35.2764 -0.0351377 57.2038 -0.819842 30.4718)
(-30.4431 29.6656 -0.0604907 -53.424 0.219028 -33.8855)
(-112.919 28.4771 -0.0182278 -218.181 1.36544 -135.392)
(-35.8736 15.573 0.0458633 98.7968 -2.3611 28.7208)
(-11.2447 37.8579 -0.262242 47.8553 -0.892257 16.2597)
(-19.4563 35.1806 -0.34495 -42.2405 0.279207 -24.999)
(-7.76618 11.7281 -0.145002 -103.928 1.6823 -47.7109)
(-22.851 16.3698 -0.0985936 99.3364 -2.68218 37.6165)
(-21.4505 31.6306 -0.605879 35.0438 -0.927635 8.79626)
(-16.595 30.3118 -0.686536 -30.4157 0.612243 -18.927)
(-16.7464 12.168 -0.247126 -93.6888 2.28083 -48.5897)
(-26.9764 13.419 -0.220482 75.7201 -2.74767 30.316)
(-21.9142 26.7326 -0.828055 27.5775 -0.855393 7.42861)
(-16.967 25.8676 -0.87643 -22.8219 0.882284 -16.0214)
(-13.8946 10.3238 -0.293919 -69.3009 2.68262 -39.3523)
(-26.6446 10.78 -0.305464 57.1174 -2.62655 26.7271)
(-21.4132 22.2293 -0.966657 20.7104 -0.730349 6.65111)
(-16.5113 21.9977 -0.984355 -16.1031 1.0582 -13.2074)
(-13.6133 9.21056 -0.307478 -49.8363 2.88205 -33.2674)
(-26.6041 7.77243 -0.397153 41.064 -2.36492 23.7626)
(-20.5806 18.1424 -1.1244 14.6465 -0.589397 6.2533)
(-15.731 18.7966 -1.11349 -10.7253 1.09211 -10.7024)
(-12.4047 8.37251 -0.335038 -32.9399 2.83596 -27.6548)
(-25.1138 4.33395 -0.579249 31.6289 -1.93588 23.5133)
(-21.8162 14.6061 -1.47698 8.3452 -0.431105 4.82884)
(-14.8769 15.8632 -1.45494 -6.55716 0.926399 -8.27273)
(-9.72422 7.40136 -0.472001 -19.0808 2.43693 -21.9767)
(-36.6782 4.69998 -1.07941 16.6163 -0.980307 14.6237)
(-35.6114 11.1768 -2.32497 -0.916311 -0.124373 -3.09365)
(-12.008 10.5818 -2.38266 -1.01896 0.49539 -3.67245)
(-2.14959 4.84029 -1.07462 -7.08984 1.29315 -13.3869)
(107.88 46.7702 0.00990607 249.197 -0.757199 141.808)
(18.1679 34.7219 7.83937e-05 57.0627 -0.283243 30.4504)
(-30.2471 29.0942 -0.00695214 -52.8608 0.0873787 -33.6883)
(-111.851 28.0103 0.000850946 -216.077 0.488011 -134.352)
(-35.8785 15.3095 0.0229976 98.504 -0.791076 29.096)
(-11.3926 37.3304 -0.0633382 47.853 -0.296822 16.3764)
(-19.5226 34.6759 -0.0881611 -41.7763 0.0978087 -25.0921)
(-8.03916 11.5509 -0.034782 -103.399 0.56993 -48.2114)
(-22.9576 16.1655 -0.0264002 99.3078 -0.891081 38.0587)
(-21.5903 31.265 -0.18002 35.1895 -0.305975 8.95674)
(-16.7497 29.9776 -0.20372 -30.09 0.206298 -19.1472)
(-16.8674 12.043 -0.0693713 -93.2597 0.763065 -49.1311)
(-27.0537 13.2923 -0.0697369 75.9567 -0.910916 30.8202)
(-22.0444 26.5109 -0.259838 27.8037 -0.281595 7.59287)
(-17.114 25.6748 -0.272691 -22.5637 0.294838 -16.2578)
(-14.0352 10.2674 -0.0873594 -69.0842 0.893793 -39.9619)
(-26.7036 10.7068 -0.101058 57.4812 -0.872175 27.2339)
(-21.516 22.1176 -0.312548 20.9781 -0.241214 6.82315)
(-16.6354 21.914 -0.315209 -15.8908 0.352415 -13.4147)
(-13.7322 9.20412 -0.0949044 -49.7179 0.958822 -33.8334)
(-26.6352 7.72979 -0.134639 41.4654 -0.788309 24.2668)
(-20.6524 18.1035 -0.371533 14.9162 -0.196067 6.44222)
(-15.8288 18.7876 -0.364842 -10.5441 0.362858 -10.8494)
(-12.5016 8.4024 -0.107287 -32.8578 0.942776 -28.1239)
(-25.1103 4.30233 -0.198798 32.0167 -0.648592 24.0186)
(-21.8777 14.6078 -0.496025 8.58225 -0.144423 5.02856)
(-14.9677 15.8919 -0.485837 -6.40172 0.307269 -8.34766)
(-9.7935 7.44826 -0.156633 -18.9798 0.8094 -22.3052)
(-36.7117 4.69583 -0.370706 16.9357 -0.331642 15.0644)
(-35.743 11.1978 -0.786923 -0.729594 -0.0418865 -2.92771)
(-12.1467 10.6018 -0.802959 -0.884577 0.164716 -3.69175)
(-2.22883 4.86651 -0.362037 -6.99005 0.429271 -13.5905)
)
;

boundaryField
{
    interface
    {
        type            calculated;
        value           nonuniform List<symmTensor> 
192
(
(-22.3785 7.81385 2.86864 281.469 17.9843 79.1521)
(-22.623 3.45562 3.66567 123.503 -16.2038 14.1579)
(-22.3839 4.39351 4.29271 128.097 -10.8356 32.4131)
(-22.3091 3.545 4.43557 94.831 -11.642 28.5601)
(-22.4111 2.60019 4.46856 70.7969 -9.99667 27.9179)
(-22.7241 1.37298 4.36834 50.0942 -8.43081 25.9779)
(-23.1623 -0.0409984 4.04721 38.9104 -7.00112 26.3332)
(-22.415 -2.00101 3.38873 29.7911 -3.98373 27.3487)
(-24.7644 7.91711 1.78527 277.506 6.15317 83.5912)
(-25.3182 3.8233 2.46775 137.251 -13.9031 25.3553)
(-25.6705 4.30548 2.70515 126.345 -16.6176 32.6256)
(-25.9746 3.50731 2.7495 94.5483 -16.671 30.9683)
(-26.1863 2.45573 2.70934 69.1393 -15.0376 30.182)
(-26.3085 1.11136 2.58573 48.7861 -12.762 29.2817)
(-26.0446 -0.563674 2.32545 37.8535 -10.0328 30.4545)
(-23.2312 -2.72507 1.88743 30.3675 -5.57473 32.9084)
(-26.0812 7.79825 1.03769 273.312 -1.22004 87.1574)
(-26.5124 3.68106 1.60875 135.155 -11.3197 32.202)
(-26.8792 4.1506 1.69596 126.422 -14.3276 35.6688)
(-27.1906 3.36223 1.66176 94.9118 -14.8641 31.4684)
(-27.3295 2.26855 1.5854 69.3274 -13.8031 29.0127)
(-27.2467 0.845674 1.47477 48.9685 -11.9128 27.3359)
(-26.5344 -0.954513 1.30228 38.4536 -9.37798 28.37)
(-22.767 -3.18498 1.0788 30.8019 -4.92092 30.2402)
(-26.9318 7.51543 0.608525 267.667 -4.59583 88.8317)
(-27.2353 3.50101 1.0815 132.927 -9.2881 38.2369)
(-27.5341 3.98804 1.11972 126.718 -11.4221 40.7526)
(-27.7846 3.23306 1.06585 96.4487 -11.9451 35.1065)
(-27.8316 2.13542 0.985741 71.276 -11.3052 31.3582)
(-27.5891 0.674925 0.892853 51.0433 -9.94651 28.8234)
(-26.5964 -1.19403 0.775257 40.7048 -7.98448 29.3832)
(-22.279 -3.43097 0.64699 32.9701 -4.30233 30.9262)
(-27.4988 7.20507 0.358877 261.784 -5.32613 88.8298)
(-27.7174 3.33675 0.726546 131.03 -7.3481 41.8636)
(-27.9518 3.83282 0.745601 126.703 -8.70601 44.4833)
(-28.138 3.11336 0.695391 97.7182 -9.05683 38.3601)
(-28.1091 2.02615 0.627033 73.1151 -8.65377 33.9395)
(-27.7529 0.54862 0.554217 53.0532 -7.73688 30.8705)
(-26.5788 -1.36348 0.472556 42.7727 -6.33107 31.1284)
(-21.8954 -3.60053 0.39539 34.8453 -3.44378 32.3391)
(-27.8697 6.93956 0.207494 256.752 -4.55593 88.1494)
(-28.0361 3.20582 0.46765 129.559 -5.33798 43.8258)
(-28.2234 3.7054 0.477336 126.567 -6.14951 46.8283)
(-28.3591 3.01471 0.439054 98.6138 -6.3538 40.6831)
(-28.2749 1.9397 0.3879 74.5044 -6.10036 36.0216)
(-27.8416 0.454952 0.335374 54.5988 -5.51661 32.7281)
(-26.5503 -1.48496 0.280079 44.3358 -4.57866 32.8674)
(-21.6209 -3.71657 0.232517 36.3285 -2.51554 33.9565)
(-28.0973 6.75239 0.10666 253.157 -2.9848 87.4094)
(-28.2343 3.11595 0.260252 128.536 -3.24115 44.7617)
(-28.3919 3.61599 0.264266 126.406 -3.67092 48.1056)
(-28.4947 2.94466 0.240447 99.1539 -3.77506 42.0734)
(-28.3747 1.87883 0.208987 75.3866 -3.63409 37.3711)
(-27.8937 0.390525 0.177073 55.5888 -3.3099 34.0183)
(-26.5306 -1.56664 0.142756 45.3262 -2.77277 34.1336)
(-21.4504 -3.79034 0.113693 37.279 -1.5381 35.1839)
(-28.1985 6.65589 0.032153 251.303 -1.03211 86.9663)
(-28.3203 3.06946 0.0824235 128.016 -1.08676 45.1255)
(-28.4611 3.56941 0.083214 126.31 -1.22134 48.6585)
(-28.5472 2.90815 0.0750718 99.4108 -1.25327 42.7154)
(-28.4103 1.84705 0.0644796 75.8158 -1.20805 38.0257)
(-27.9077 0.355377 0.0537361 56.0707 -1.10417 34.6694)
(-26.4978 -1.61196 0.0412851 45.8093 -0.929926 34.797)
(-21.3358 -3.82027 0.030232 37.7489 -0.521197 35.8491)
(18.2096 51.7766 -2.93109 169.511 0.206789 -10.1033)
(-58.6305 25.4472 -5.73657 63.8872 -1.40923 -6.23044)
(-43.5765 29.7892 -6.91833 76.3325 -1.23411 -3.02444)
(-45.9106 25.27 -7.57435 52.919 -0.920313 -1.06644)
(-43.5295 21.5193 -7.97603 37.1201 -0.7183 -0.138025)
(-42.9652 16.7539 -8.29342 22.3279 -0.733727 -0.0285904)
(-42.8686 11.7392 -8.68672 13.2411 -1.00791 -0.652394)
(-50.5724 8.46032 -9.67233 2.86745 -1.37779 -1.97807)
(-8.46994 42.0743 -2.0202 29.8009 -0.659628 -9.45945)
(-32.3491 53.9702 -4.01332 18.6657 -1.27038 -7.73487)
(-34.3116 53.0012 -4.78014 20.1734 -1.12429 -5.79936)
(-34.8664 47.1425 -5.12357 12.9524 -0.742555 -4.49332)
(-34.0833 40.2212 -5.31096 7.13817 -0.384442 -3.86407)
(-33.5961 32.6441 -5.4953 1.46829 -0.174861 -3.79313)
(-33.9971 25.0874 -5.86923 -2.75584 -0.153772 -4.16961)
(-41.6663 16.2275 -7.10982 -6.35757 -0.226498 -4.64976)
(-17.0056 36.7988 -1.767 -51.4515 -0.422456 -9.21256)
(-1.80527 50.8529 -3.46383 -30.9493 -1.03065 -8.54933)
(-3.53625 50.9523 -4.18986 -28.6557 -0.9685 -7.32995)
(-4.57399 45.7558 -4.42606 -21.6653 -0.629392 -6.39257)
(-5.98232 39.4288 -4.51655 -16.9064 -0.243743 -5.95419)
(-6.86037 32.6186 -4.62244 -13.2381 0.0529036 -5.93087)
(-7.4011 25.4044 -4.94123 -10.8062 0.216392 -6.25765)
(-4.92478 15.0792 -6.10382 -5.99488 0.263517 -6.65958)
(-40.6723 34.5756 -1.80966 -171.681 0.696683 -8.7579)
(23.3904 19.8113 -3.53733 -74.9486 -0.967552 -8.37255)
(9.30458 23.9999 -4.33013 -79.3625 -0.956323 -7.25936)
(10.1477 20.9748 -4.58092 -55.8805 -0.644931 -6.42832)
(7.20488 18.5468 -4.65082 -40.2949 -0.246116 -6.04834)
(5.89166 15.5507 -4.71953 -26.816 0.0922891 -5.98665)
(5.67796 12.0578 -4.99178 -17.9364 0.364241 -6.13206)
(10.7497 6.63381 -6.06933 -8.43345 0.649156 -6.45162)
(-7.20087 -4.97305 -0.168318 -253.598 -18.6903 -89.0906)
(-5.55014 -1.9415 0.958791 -126.201 10.2303 -23.5335)
(-4.20462 -2.57584 1.05542 -119.104 6.90802 -31.7799)
(-3.55122 -2.14146 1.12698 -84.7485 8.86712 -23.4823)
(-3.39457 -1.77068 1.17381 -60.1437 8.64567 -20.3865)
(-3.25082 -1.30253 1.32644 -39.7804 8.25507 -17.8872)
(-2.31163 -1.09571 1.65075 -26.2841 7.25238 -17.4376)
(1.54239 -2.14155 2.09549 -15.6125 3.42946 -17.0194)
(-9.52197 -5.05088 -0.484896 -247.981 -8.86617 -93.9305)
(-9.30459 -2.48447 -0.0413584 -141.338 8.31395 -37.8078)
(-9.09706 -2.70354 0.116774 -121.659 12.3265 -36.3479)
(-9.09582 -2.2078 0.180027 -89.1095 14.2066 -30.4893)
(-9.1345 -1.63973 0.266897 -63.3571 14.4722 -27.4242)
(-8.81173 -0.98817 0.429378 -42.4577 13.7698 -25.451)
(-7.42908 -0.517194 0.679819 -27.4521 11.824 -24.6139)
(-2.48426 -1.50886 0.9964 -16.5952 6.64664 -23.7869)
(-10.9535 -4.92984 -0.343016 -244.314 -1.73643 -98.8773)
(-11.1375 -2.55915 -0.106917 -141.302 7.41062 -48.6176)
(-11.26 -2.74438 0.0987599 -123.098 11.1511 -44.7003)
(-11.385 -2.18211 0.230525 -90.9148 13.1534 -36.847)
(-11.3747 -1.49895 0.357449 -64.7814 13.7471 -32.0071)
(-10.9025 -0.714976 0.508701 -43.2995 13.2561 -28.5719)
(-9.15727 -0.106283 0.679828 -27.4123 11.473 -26.1721)
(-4.01389 -0.958678 0.77734 -15.4356 6.2523 -22.5966)
(-11.9821 -4.63946 -0.190725 -238.594 1.83577 -100.798)
(-12.2716 -2.49853 -0.0290474 -139.985 6.5365 -56.2205)
(-12.5109 -2.68274 0.178148 -123.071 9.26137 -51.7477)
(-12.6714 -2.0957 0.322665 -91.7256 10.8859 -42.7537)
(-12.6113 -1.34382 0.451389 -65.7067 11.5165 -36.5104)
(-11.9392 -0.47437 0.580473 -43.9017 11.2294 -31.6491)
(-9.89048 0.207656 0.690173 -27.289 9.77852 -27.6529)
(-4.54869 -0.600939 0.696753 -14.8444 5.34803 -22.2371)
(-12.7119 -4.32742 -0.0892576 -232.425 3.07176 -100.805)
(-13.0301 -2.39225 0.0308599 -138.387 5.41716 -60.7713)
(-13.3172 -2.57437 0.210583 -122.372 7.28079 -56.4824)
(-13.474 -1.98087 0.339381 -91.8558 8.44682 -47.1373)
(-13.3293 -1.19479 0.448934 -66.1017 8.95067 -40.0943)
(-12.5054 -0.281566 0.542802 -44.168 8.76969 -34.2454)
(-10.2676 0.43718 0.602838 -27.1133 7.65917 -29.0942)
(-4.79178 -0.3584 0.572966 -14.3741 4.18312 -22.4034)
(-13.1992 -4.06558 -0.0327786 -227.067 2.93269 -100.064)
(-13.5173 -2.28615 0.0539857 -136.872 4.05113 -63.2961)
(-13.8096 -2.46394 0.190755 -121.489 5.25061 -59.3519)
(-13.9432 -1.8739 0.289607 -91.6499 6.01962 -50.002)
(-13.7359 -1.07462 0.369358 -66.1668 6.36378 -42.5909)
(-12.8144 -0.142117 0.43047 -44.219 6.23981 -36.1776)
(-10.4649 0.59319 0.460117 -26.9263 5.45357 -30.3221)
(-4.91033 -0.202121 0.423004 -14.0709 2.97985 -22.9193)
(-13.4961 -3.88373 -0.00803814 -223.215 2.01864 -99.272)
(-13.8112 -2.20594 0.0446757 -135.714 2.50229 -64.5887)
(-14.0955 -2.37926 0.129011 -120.743 3.17305 -60.9364)
(-14.2077 -1.79494 0.190116 -91.3834 3.60904 -51.682)
(-13.9599 -0.992133 0.23784 -66.1094 3.80542 -44.128)
(-12.9784 -0.052226 0.272308 -44.1858 3.72862 -37.4292)
(-10.5639 0.688936 0.286042 -26.7748 3.25686 -31.1911)
(-4.96436 -0.109654 0.256117 -13.8749 1.77862 -23.4189)
(-13.6354 -3.79186 -0.00090379 -221.216 0.712685 -98.7967)
(-13.9488 -2.16416 0.0166658 -135.09 0.845793 -65.1247)
(-14.2282 -2.33479 0.0448792 -120.326 1.06165 -61.6321)
(-14.329 -1.75402 0.0653487 -91.214 1.20291 -52.4501)
(-14.0609 -0.950375 0.081106 -66.0524 1.2665 -44.8522)
(-13.0524 -0.0075503 0.092368 -44.1527 1.2401 -38.0399)
(-10.6007 0.732847 0.0965913 -26.6899 1.08236 -31.6339)
(-4.99241 -0.0693858 0.0844964 -13.7845 0.590668 -23.717)
(-53.1962 11.3648 -4.43732 -1.87441 -1.35717 -1.19624)
(-47.1303 10.4473 -2.65069 0.234077 -1.04382 4.64256)
(-47.1528 10.338 -3.12086 1.92691 -0.668087 3.40595)
(-47.1652 10.3745 -3.19001 3.28314 -0.421944 3.93718)
(-47.6036 10.4557 -2.90819 4.31503 -0.267436 4.55917)
(-47.9688 10.5306 -2.274 5.05862 -0.169585 5.35343)
(-48.2236 10.5861 -1.44121 5.53061 -0.104664 5.98541)
(-48.3787 10.612 -0.494533 5.69789 -0.0391966 6.29439)
(-45.4307 8.26392 -7.98287 -4.44143 0.122017 -9.9234)
(-40.568 6.88293 -8.12589 -3.43366 0.218778 -8.50311)
(-40.5798 6.54767 -7.76531 -2.26563 0.323521 -7.49353)
(-41.4215 6.47003 -7.21403 -1.27713 0.340379 -6.47901)
(-42.29 6.46238 -6.17936 -0.514669 0.296672 -5.84727)
(-42.9284 6.47227 -4.69391 0.0394475 0.223393 -5.39791)
(-43.323 6.48774 -2.91858 0.408472 0.137271 -5.10331)
(-43.4896 6.50549 -0.989233 0.614635 0.0462431 -4.94102)
(-5.20602 6.05131 -7.77057 -6.40573 0.722151 -5.9204)
(-8.47182 4.86952 -9.30622 -5.62301 0.75041 -7.89376)
(-10.067 4.51888 -8.93642 -4.76336 0.721936 -6.28967)
(-11.4565 4.40869 -7.99093 -4.02872 0.630225 -5.08307)
(-12.421 4.36893 -6.64146 -3.44828 0.503388 -4.40315)
(-13.046 4.35335 -4.95579 -3.03086 0.363318 -4.12397)
(-13.4146 4.34738 -3.05185 -2.75745 0.221289 -4.04295)
(-13.5808 4.34447 -1.03001 -2.60974 0.0752677 -4.02783)
(11.0887 5.5363 -4.42424 -6.29738 1.04994 -8.78028)
(5.7421 4.49296 -5.01937 -5.70187 0.847436 -13.4099)
(4.21183 4.15017 -4.8979 -5.2284 0.716501 -11.0041)
(3.05232 4.03121 -4.25902 -4.78852 0.591865 -9.83068)
(2.45265 3.97348 -3.48181 -4.42898 0.461495 -9.32042)
(2.08071 3.94328 -2.56819 -4.16237 0.328185 -9.35495)
(1.86915 3.92594 -1.57381 -3.98707 0.196181 -9.55608)
(1.7641 3.91242 -0.530865 -3.90661 0.065301 -9.7144)
)
;
    }
    symmetry
    {
        type            symmetryPlane;
    }
    bottom
    {
        type            calculated;
        value           nonuniform List<symmTensor> 
32
(
(134.496 62.1747 1.69672 202.406 53.3544 133.975)
(134.315 63.5543 0.719178 202.016 22.1219 132.499)
(134.772 63.0307 0.218441 202.788 6.77744 132.764)
(133.634 61.3869 -0.00763908 201.183 -0.243192 131.706)
(131.756 59.6277 -0.0869371 198.43 -2.84595 129.939)
(129.943 58.1701 -0.0935365 195.747 -3.13509 128.212)
(128.58 57.1649 -0.0658346 193.721 -2.24344 126.905)
(127.86 56.6552 -0.0233084 192.648 -0.801051 126.211)
(23.6871 31.0267 0.28253 34.8444 16.5247 23.3071)
(26.8448 31.722 0.131798 39.5794 7.55615 26.3229)
(28.5548 29.2636 0.0392231 42.29 2.44069 28.0878)
(28.9606 26.6805 -0.000260141 43.0242 -0.0177607 28.5698)
(28.9692 24.5797 -0.0128075 43.1268 -0.949194 28.638)
(28.8753 23.0552 -0.0134507 43.0454 -1.06275 28.5841)
(28.7824 22.0778 -0.00923812 42.9418 -0.762186 28.5152)
(28.7292 21.6021 -0.00322718 42.8786 -0.272112 28.4731)
(-34.0643 26.4076 -0.224421 -51.444 -14.8114 -34.3386)
(-32.2198 26.8237 -0.117049 -48.722 -7.6151 -32.5989)
(-32.1913 23.7819 -0.0479748 -48.5492 -3.52073 -32.5082)
(-31.7373 20.7822 -0.0152751 -47.761 -1.28329 -31.9837)
(-31.099 18.4151 -0.00176428 -46.7332 -0.167355 -31.2931)
(-30.4727 16.722 0.00256056 -45.7515 0.267607 -30.6327)
(-29.9908 15.6432 0.0026905 -45.005 0.300685 -30.1307)
(-29.7317 15.1197 0.00105685 -44.6059 0.122223 -29.8624)
(-132.611 43.2187 -1.25838 -196.849 -47.2423 -132.387)
(-128.273 42.93 -0.563738 -190.584 -21.3757 -129.124)
(-127.92 40.5136 -0.19753 -189.904 -7.93959 -128.89)
(-125.737 37.7096 -0.0312528 -186.553 -1.35189 -126.608)
(-122.882 35.2523 0.030849 -182.261 1.43055 -123.641)
(-120.249 33.3687 0.0428788 -178.33 2.1048 -120.926)
(-118.304 32.1125 0.0320133 -175.437 1.6353 -118.931)
(-117.282 31.4867 0.0115402 -173.92 0.601671 -117.886)
)
;
    }
}


// ************************************************************************* //
