/*--------------------------------*- C++ -*----------------------------------*\
| =========                 |                                                 |
| \\      /  F ield         | foam-extend: Open Source CFD                    |
|  \\    /   O peration     | Version:     3.1                                |
|   \\  /    A nd           | Web:         http://www.extend-project.de       |
|    \\/     M anipulation  |                                                 |
\*---------------------------------------------------------------------------*/
FoamFile
{
    version     2.0;
    format      ascii;
    class       volVectorField;
    location    "1.7";
    object      U;
}
// * * * * * * * * * * * * * * * * * * * * * * * * * * * * * * * * * * * * * //

dimensions      [0 1 -1 0 0 0 0];

internalField   nonuniform List<vector> 
256
(
(-0.000305741 -0.000226728 -0.000395146)
(-0.00011051 -5.21431e-05 -0.000121417)
(-9.82814e-05 6.11816e-05 0.000139368)
(-0.000265965 0.000247241 0.000432193)
(-0.00130845 -0.000932342 -0.000410166)
(-0.00108185 -0.000261797 -0.000159359)
(-0.001053 0.000292007 0.000174727)
(-0.00121201 0.000981356 0.000429686)
(-0.00263477 -0.00144559 -0.00038052)
(-0.00241209 -0.000424108 -0.000142021)
(-0.00237201 0.000495486 0.000140482)
(-0.00250438 0.00154331 0.000374855)
(-0.00425618 -0.00184047 -0.000295273)
(-0.00405828 -0.000533081 -0.000116843)
(-0.00400831 0.000681395 9.63316e-05)
(-0.00409372 0.00201645 0.000267922)
(-0.00607787 -0.00210316 -0.000195839)
(-0.00590213 -0.000589458 -8.60703e-05)
(-0.00584372 0.00084244 4.97784e-05)
(-0.00588878 0.0023819 0.000152538)
(-0.00800757 -0.00225498 -0.000100997)
(-0.00785255 -0.000602662 -5.62963e-05)
(-0.00778839 0.000980069 8.15533e-06)
(-0.00780075 0.00265503 4.67661e-05)
(-0.00996529 -0.00231838 -2.59099e-05)
(-0.00982781 -0.000581836 -3.10012e-05)
(-0.00976252 0.00109613 -2.6072e-05)
(-0.00975505 0.00285154 -3.8008e-05)
(-0.0118982 -0.00231875 2.32425e-05)
(-0.0117655 -0.000536587 -1.03675e-05)
(-0.0117036 0.00119577 -5.22586e-05)
(-0.0116995 0.00299276 -9.54119e-05)
(-0.000351471 -0.00021959 -0.000207469)
(-0.000166844 -4.84815e-05 -6.66471e-05)
(-0.000154562 5.80892e-05 8.08245e-05)
(-0.000309807 0.000234166 0.000235302)
(-0.00143074 -0.000910458 -0.000253788)
(-0.00116961 -0.000250784 -9.68919e-05)
(-0.00113841 0.000287861 0.000109718)
(-0.00132658 0.000966203 0.000268774)
(-0.00275474 -0.00144489 -0.000249802)
(-0.00252334 -0.000421419 -9.45562e-05)
(-0.00247752 0.000500893 9.32862e-05)
(-0.00260729 0.00154935 0.000244088)
(-0.00435088 -0.00184948 -0.000203094)
(-0.00414562 -0.000537937 -8.16494e-05)
(-0.00408811 0.000684542 6.40194e-05)
(-0.0041668 0.00202274 0.000178228)
(-0.00613186 -0.00212161 -0.000140298)
(-0.00595208 -0.000602428 -6.32265e-05)
(-0.00588523 0.000839849 3.15475e-05)
(-0.00591892 0.00238351 0.000100521)
(-0.00801876 -0.00228002 -7.78688e-05)
(-0.00786163 -0.000622511 -4.41492e-05)
(-0.00778912 0.000969201 1.85356e-06)
(-0.00778835 0.00264758 2.76333e-05)
(-0.00994036 -0.00234813 -2.70195e-05)
(-0.00980337 -0.000606937 -2.72456e-05)
(-0.00973113 0.0010764 -2.16965e-05)
(-0.00971007 0.00283349 -3.01225e-05)
(-0.011852 -0.00235286 7.69494e-06)
(-0.0117214 -0.000565874 -1.26309e-05)
(-0.0116556 0.00116858 -3.56058e-05)
(-0.0116421 0.00296592 -6.55655e-05)
(-0.000371074 -0.000227774 -0.000111128)
(-0.000177195 -5.05817e-05 -3.71689e-05)
(-0.00016403 6.00365e-05 4.5428e-05)
(-0.000326329 0.000241243 0.000126686)
(-0.00148377 -0.0009049 -0.000150142)
(-0.0011999 -0.00024798 -5.79179e-05)
(-0.00116679 0.000282723 6.3595e-05)
(-0.00137383 0.000957312 0.000156436)
(-0.00281416 -0.00143607 -0.000155125)
(-0.00256411 -0.00042058 -6.07604e-05)
(-0.0025149 0.000493125 5.52131e-05)
(-0.00265723 0.00153283 0.000145459)
(-0.00439937 -0.00184082 -0.000131871)
(-0.00418081 -0.000540951 -5.55989e-05)
(-0.00411903 0.000671955 3.66444e-05)
(-0.00420365 0.00199782 0.000106549)
(-0.00616039 -0.00211809 -9.59238e-05)
(-0.00597138 -0.00061138 -4.60519e-05)
(-0.00589997 0.00082156 1.5079e-05)
(-0.00593522 0.00235232 5.77015e-05)
(-0.00802467 -0.00228502 -5.80111e-05)
(-0.00786183 -0.000638562 -3.50112e-05)
(-0.00778515 0.000944788 -4.8512e-06)
(-0.00778321 0.00261171 1.0799e-05)
(-0.00992706 -0.00236418 -2.55133e-05)
(-0.00978741 -0.000630489 -2.39917e-05)
(-0.00971188 0.00104612 -1.95653e-05)
(-0.00968788 0.00279508 -2.54271e-05)
(-0.0118284 -0.00238081 -1.23021e-06)
(-0.0116975 -0.000596359 -1.23722e-05)
(-0.0116299 0.00113395 -2.47414e-05)
(-0.0116138 0.00292784 -4.39582e-05)
(-0.000377643 -0.000233102 -5.98386e-05)
(-0.000176046 -5.21689e-05 -2.1214e-05)
(-0.000162086 6.09684e-05 2.42215e-05)
(-0.000330414 0.00024567 6.5881e-05)
(-0.00150291 -0.000904931 -8.73094e-05)
(-0.00120526 -0.000248849 -3.52559e-05)
(-0.00117084 0.000277402 3.43631e-05)
(-0.00138925 0.000950074 8.6012e-05)
(-0.00283628 -0.00143138 -9.36328e-05)
(-0.00257363 -0.000422857 -3.92631e-05)
(-0.0025228 0.000482301 2.93375e-05)
(-0.00267506 0.00151417 8.0099e-05)
(-0.00441728 -0.00183487 -8.26618e-05)
(-0.00418889 -0.000546117 -3.80235e-05)
(-0.00412533 0.000655502 1.74362e-05)
(-0.00421704 0.00196972 5.68957e-05)
(-0.00616923 -0.00211512 -6.30173e-05)
(-0.00597327 -0.000621091 -3.36096e-05)
(-0.00590026 0.00079964 3.36784e-06)
(-0.00594024 0.00231759 2.69515e-05)
(-0.00802274 -0.00228872 -4.08466e-05)
(-0.00785555 -0.000654151 -2.74685e-05)
(-0.00777764 0.000917828 -9.44095e-06)
(-0.00777848 0.00257303 -2.02629e-06)
(-0.00991569 -0.00237708 -2.04482e-05)
(-0.00977395 -0.000652523 -2.00807e-05)
(-0.00969772 0.00101487 -1.78351e-05)
(-0.00967512 0.00275494 -2.34082e-05)
(-0.0118113 -0.00240326 -3.53997e-06)
(-0.0116799 -0.000624338 -1.05711e-05)
(-0.011612 0.00109973 -1.79255e-05)
(-0.011596 0.00288824 -3.12077e-05)
(-0.00037915 -0.000236053 -3.21609e-05)
(-0.000172606 -5.32717e-05 -1.23722e-05)
(-0.000158031 6.12603e-05 1.19968e-05)
(-0.000330062 0.000247612 3.25647e-05)
(-0.00150734 -0.000906353 -5.00751e-05)
(-0.00120128 -0.000251015 -2.18018e-05)
(-0.00116592 0.00027256 1.69619e-05)
(-0.00139118 0.000943641 4.43987e-05)
(-0.00284074 -0.00143073 -5.53285e-05)
(-0.00257012 -0.000426914 -2.54799e-05)
(-0.00251847 0.000472143 1.35274e-05)
(-0.00267749 0.00149872 4.04368e-05)
(-0.00441936 -0.00183384 -5.03646e-05)
(-0.00418454 -0.000552814 -2.58757e-05)
(-0.00412038 0.000640163 5.84038e-06)
(-0.00421781 0.00194639 2.63603e-05)
(-0.00616723 -0.00211628 -3.98576e-05)
(-0.00596653 -0.000631417 -2.40802e-05)
(-0.00589313 0.00077955 -3.15716e-06)
(-0.00593755 0.00228841 8.24765e-06)
(-0.00801588 -0.00229462 -2.7112e-05)
(-0.0078456 -0.000668963 -2.06844e-05)
(-0.00776756 0.00089358 -1.10601e-05)
(-0.00777164 0.00254011 -9.10137e-06)
(-0.0099043 -0.00238933 -1.44102e-05)
(-0.00976097 -0.00067212 -1.56272e-05)
(-0.00968495 0.000987251 -1.54055e-05)
(-0.00966461 0.00272023 -2.10462e-05)
(-0.0117965 -0.00242198 -2.7683e-06)
(-0.0116645 -0.000648281 -8.04959e-06)
(-0.011597 0.00106978 -1.31448e-05)
(-0.0115825 0.00285315 -2.30045e-05)
(-0.000378973 -0.000237664 -1.69352e-05)
(-0.000169442 -5.40199e-05 -7.17448e-06)
(-0.000154411 6.1255e-05 5.36743e-06)
(-0.000328507 0.000248264 1.49705e-05)
(-0.00150628 -0.00090793 -2.78383e-05)
(-0.00119514 -0.000253287 -1.3253e-05)
(-0.00115911 0.000268683 7.38253e-06)
(-0.00138832 0.000938451 2.11272e-05)
(-0.00283822 -0.00143202 -3.14948e-05)
(-0.00256269 -0.00043118 -1.60516e-05)
(-0.00251055 0.000464026 4.98997e-06)
(-0.0026738 0.00148728 1.82752e-05)
(-0.0044151 -0.00183565 -2.93456e-05)
(-0.0041762 -0.000559423 -1.68772e-05)
(-0.0041118 0.000627929 1.67817e-07)
(-0.0042131 0.00192925 9.84335e-06)
(-0.00616096 -0.00211995 -2.3852e-05)
(-0.00595717 -0.000640861 -1.6271e-05)
(-0.00588374 0.000763573 -5.34217e-06)
(-0.00593139 0.00226677 -7.85933e-07)
(-0.00800743 -0.00230151 -1.67013e-05)
(-0.00783505 -0.000681667 -1.44053e-05)
(-0.00775718 0.00087435 -9.96072e-06)
(-0.00776382 0.0025153 -1.07388e-05)
(-0.00989365 -0.00240031 -9.00809e-06)
(-0.00974917 -0.00068817 -1.10326e-05)
(-0.00967354 0.000965388 -1.19631e-05)
(-0.00965517 0.0026935 -1.70146e-05)
(-0.0117837 -0.00243703 -1.31601e-06)
(-0.0116512 -0.000667332 -5.45326e-06)
(-0.0115843 0.00104601 -9.2202e-06)
(-0.0115713 0.00282547 -1.64698e-05)
(-0.000378468 -0.000238505 -8.15075e-06)
(-0.000167247 -5.44873e-05 -3.77276e-06)
(-0.000151912 6.11592e-05 2.06353e-06)
(-0.000327072 0.00024837 6.09929e-06)
(-0.00150411 -0.000909158 -1.39526e-05)
(-0.00119006 -0.000255048 -7.1959e-06)
(-0.00115356 0.000266014 2.67281e-06)
(-0.00138493 0.000934843 8.83901e-06)
(-0.00283437 -0.00143363 -1.60566e-05)
(-0.00255599 -0.000434546 -8.91874e-06)
(-0.00250354 0.000458468 1.21805e-06)
(-0.00266923 0.00147977 7.04022e-06)
(-0.00440994 -0.00183806 -1.52005e-05)
(-0.00416863 -0.000564558 -9.58587e-06)
(-0.00410411 0.000619553 -1.45184e-06)
(-0.00420776 0.00191813 2.50386e-06)
(-0.00615474 -0.00212378 -1.25619e-05)
(-0.00594908 -0.000647978 -9.43844e-06)
(-0.00587568 0.000752625 -4.42626e-06)
(-0.00592538 0.00225264 -3.07847e-06)
(-0.00800021 -0.0023074 -8.92324e-06)
(-0.00782653 -0.000690937 -8.49337e-06)
(-0.00774883 0.000861159 -6.81237e-06)
(-0.00775714 0.00249889 -8.17623e-06)
(-0.00988536 -0.00240862 -4.76563e-06)
(-0.00974013 -0.000699578 -6.53081e-06)
(-0.00966481 0.000950354 -7.59708e-06)
(-0.00964782 0.00267555 -1.1118e-05)
(-0.0117742 -0.0024477 -3.40293e-07)
(-0.0116413 -0.000680642 -3.09867e-06)
(-0.0115748 0.00102959 -5.53303e-06)
(-0.0115631 0.00280657 -1.00852e-05)
(-0.000378139 -0.000238863 -2.41803e-06)
(-0.000166152 -5.47123e-05 -1.18067e-06)
(-0.00015066 6.10863e-05 5.06965e-07)
(-0.00032626 0.000248335 1.59284e-06)
(-0.00150271 -0.000909815 -4.23158e-06)
(-0.00118731 -0.000255991 -2.28802e-06)
(-0.00115057 0.00026466 6.11665e-07)
(-0.00138287 0.000932997 2.34548e-06)
(-0.0028319 -0.00143465 -4.91434e-06)
(-0.00255221 -0.000436372 -2.86785e-06)
(-0.0024996 0.000455655 1.19756e-07)
(-0.00266639 0.00147606 1.72466e-06)
(-0.00440674 -0.00183961 -4.69026e-06)
(-0.00416431 -0.000567336 -3.11498e-06)
(-0.00409973 0.000615314 -7.3711e-07)
(-0.00420447 0.00191266 2.88231e-07)
(-0.00615104 -0.00212611 -3.90632e-06)
(-0.00594451 -0.000651781 -3.09684e-06)
(-0.00587114 0.000747078 -1.67684e-06)
(-0.0059218 0.00224568 -1.45228e-06)
(-0.00799611 -0.00231074 -2.7893e-06)
(-0.00782181 -0.000695819 -2.80621e-06)
(-0.00774421 0.000854463 -2.41094e-06)
(-0.00775335 0.00249076 -3.01618e-06)
(-0.00988079 -0.00241308 -1.46982e-06)
(-0.00973521 -0.000705514 -2.15899e-06)
(-0.00966006 0.0009427 -2.60584e-06)
(-0.00964377 0.00266656 -3.86785e-06)
(-0.011769 -0.00245318 -1.96449e-08)
(-0.011636 -0.000687518 -9.99561e-07)
(-0.0115697 0.00102119 -1.85128e-06)
(-0.0115586 0.00279699 -3.41273e-06)
)
;

boundaryField
{
    interface
    {
        type            calculated;
        value           nonuniform List<vector> 
192
(
(-0.000700702 -0.000722337 -0.000419235)
(-0.00149968 -0.00144521 -0.000471836)
(-0.00284629 -0.0021487 -0.000441779)
(-0.00442856 -0.00266204 -0.000337362)
(-0.00622169 -0.00301038 -0.000213208)
(-0.00812327 -0.0032051 -9.31681e-05)
(-0.0100613 -0.00327938 1.44744e-06)
(-0.011983 -0.00328243 5.9427e-05)
(-0.000749317 -0.000761853 -0.000221548)
(-0.00165117 -0.00143654 -0.000292468)
(-0.0029677 -0.0021369 -0.000291602)
(-0.00452711 -0.00265382 -0.000234963)
(-0.00627726 -0.00300773 -0.000157659)
(-0.00813648 -0.00321121 -7.94529e-05)
(-0.0100383 -0.00329641 -1.57658e-05)
(-0.011938 -0.00331355 2.47958e-05)
(-0.000787021 -0.000796335 -0.000117132)
(-0.00171552 -0.00144031 -0.000167752)
(-0.00303659 -0.00212364 -0.000175448)
(-0.00458189 -0.00263558 -0.0001486)
(-0.00630909 -0.0029918 -0.000105125)
(-0.0081437 -0.00320473 -5.86664e-05)
(-0.0100249 -0.00330446 -1.89763e-05)
(-0.0119124 -0.00333964 8.64178e-06)
(-0.000804972 -0.000814509 -6.16257e-05)
(-0.0017433 -0.00144436 -9.38225e-05)
(-0.0030672 -0.00211796 -0.000101385)
(-0.00460654 -0.00262471 -8.89434e-05)
(-0.00632255 -0.00298222 -6.57844e-05)
(-0.00814456 -0.00320206 -3.94031e-05)
(-0.0100149 -0.00331272 -1.52416e-05)
(-0.011895 -0.00336059 3.54377e-06)
(-0.000812407 -0.000823232 -3.21303e-05)
(-0.00175345 -0.00144718 -5.14412e-05)
(-0.00307763 -0.00211675 -5.68938e-05)
(-0.00461363 -0.0026213 -5.10985e-05)
(-0.00632437 -0.00298012 -3.89159e-05)
(-0.0081403 -0.00320469 -2.41677e-05)
(-0.0100051 -0.00332239 -9.54719e-06)
(-0.0118806 -0.00337818 3.13942e-06)
(-0.000815103 -0.00082723 -1.63591e-05)
(-0.00175589 -0.00144892 -2.73154e-05)
(-0.00307893 -0.00211747 -3.07008e-05)
(-0.00461278 -0.00262186 -2.79545e-05)
(-0.00632085 -0.00298221 -2.16121e-05)
(-0.00813385 -0.00320997 -1.35058e-05)
(-0.00999578 -0.00333197 -4.84989e-06)
(-0.0118685 -0.00339243 3.39912e-06)
(-0.000815888 -0.000828965 -7.64501e-06)
(-0.00175571 -0.00144989 -1.31772e-05)
(-0.00307731 -0.00211857 -1.4951e-05)
(-0.00460968 -0.00262358 -1.36914e-05)
(-0.00631634 -0.00298527 -1.0624e-05)
(-0.00812793 -0.00321509 -6.54681e-06)
(-0.0099884 -0.00333955 -1.93824e-06)
(-0.0118595 -0.0034026 2.75926e-06)
(-0.000816039 -0.000829603 -2.23011e-06)
(-0.00175521 -0.00145031 -3.91056e-06)
(-0.00307586 -0.00211928 -4.45455e-06)
(-0.00460743 -0.0026248 -4.08245e-06)
(-0.00631345 -0.00298729 -3.16327e-06)
(-0.00812447 -0.00321811 -1.91713e-06)
(-0.00998428 -0.0033437 -4.65366e-07)
(-0.0118546 -0.00340781 1.06642e-06)
(-0.000262912 -0.000452595 -0.000617472)
(-0.0012122 -0.000910248 -0.000454869)
(-0.00255233 -0.00142278 -0.000449008)
(-0.00419604 -0.00179101 -0.00033902)
(-0.00605098 -0.00204935 -0.000225019)
(-0.00801307 -0.00220438 -0.000115102)
(-0.00999644 -0.00227768 -2.98539e-05)
(-0.0119449 -0.0022957 2.97518e-05)
(-2.80782e-05 -0.000141692 -0.000178389)
(-0.000924328 -0.000258706 -0.000177445)
(-0.00228219 -0.000421383 -0.000160003)
(-0.00396254 -0.000519982 -0.000128933)
(-0.00584876 -0.000572106 -9.43904e-05)
(-0.00783873 -0.000583494 -6.09986e-05)
(-0.0098466 -0.000563062 -3.31573e-05)
(-0.011806 -0.00052235 -6.83283e-06)
(-1.29595e-05 0.000154751 0.0001948)
(-0.000896904 0.000269236 0.000184389)
(-0.00224512 0.000474269 0.000153831)
(-0.00391737 0.000655574 0.000103662)
(-0.00579522 0.000821883 5.28564e-05)
(-0.00777891 0.000966655 6.7851e-06)
(-0.00978517 0.00109022 -3.11827e-05)
(-0.011747 0.00119912 -6.52805e-05)
(-0.000214494 0.000498658 0.000642911)
(-0.001125 0.000941279 0.000469234)
(-0.00243416 0.00150471 0.000440826)
(-0.00405124 0.00195829 0.000309323)
(-0.00588056 0.00232991 0.000179266)
(-0.00782381 0.0026151 5.81129e-05)
(-0.00980138 0.00282719 -3.82773e-05)
(-0.0117577 0.00299035 -0.000109374)
(-0.000594376 0.000770065 0.000453868)
(-0.00135551 0.00151767 0.000482364)
(-0.00264704 0.00228206 0.000424526)
(-0.00418506 0.00286998 0.000294981)
(-0.00594253 0.00331655 0.000153068)
(-0.00782342 0.00362932 2.15965e-05)
(-0.00975964 0.00383834 -8.24106e-05)
(-0.0116985 0.00398096 -0.000148852)
(-0.000634517 0.000803486 0.000248364)
(-0.00149538 0.0015169 0.000300913)
(-0.00274909 0.0022719 0.000275394)
(-0.00426004 0.00285564 0.000196843)
(-0.00597266 0.00329477 0.000103443)
(-0.00781098 0.00360205 1.48016e-05)
(-0.00971422 0.00380757 -5.44951e-05)
(-0.0116423 0.00395276 -9.56492e-05)
(-0.000664843 0.00083601 0.00013163)
(-0.00155176 0.00151618 0.000168903)
(-0.00280692 0.00224887 0.000157968)
(-0.00430175 0.00281974 0.000113811)
(-0.00599096 0.0032503 5.68415e-05)
(-0.00780611 0.00355445 1.6154e-06)
(-0.0096909 0.0037615 -4.10805e-05)
(-0.0116115 0.00391383 -6.32333e-05)
(-0.000678601 0.000850759 6.64647e-05)
(-0.00157518 0.00151193 8.83307e-05)
(-0.00283271 0.00222818 8.18926e-05)
(-0.00432144 0.0027862 5.63484e-05)
(-0.00600048 0.00320901 2.26635e-05)
(-0.00780417 0.00350992 -1.02312e-05)
(-0.00967993 0.00371735 -3.50142e-05)
(-0.0115934 0.00387379 -4.48316e-05)
(-0.000683676 0.000855608 3.14229e-05)
(-0.00158283 0.00150604 4.24912e-05)
(-0.00284118 0.00221161 3.75623e-05)
(-0.0043275 0.00276042 2.22193e-05)
(-0.00600186 0.00317685 2.40746e-06)
(-0.00780017 0.00347427 -1.67495e-05)
(-0.00967146 0.00368051 -3.03747e-05)
(-0.0115805 0.0038383 -3.34798e-05)
(-0.000684928 0.000856111 1.35267e-05)
(-0.00158364 0.00150035 1.82457e-05)
(-0.00284149 0.00219929 1.43698e-05)
(-0.00432644 0.00274207 5.13363e-06)
(-0.00599869 0.00315385 -6.31248e-06)
(-0.00779458 0.00344822 -1.70916e-05)
(-0.00966374 0.00365272 -2.41612e-05)
(-0.0115704 0.0038104 -2.42338e-05)
(-0.000684835 0.000855243 5.04219e-06)
(-0.00158238 0.00149601 6.62709e-06)
(-0.00283932 0.00219109 4.08231e-06)
(-0.00432334 0.00273029 -9.42706e-07)
(-0.00599458 0.0031391 -6.91876e-06)
(-0.00778941 0.00343127 -1.23755e-05)
(-0.0096576 0.00363429 -1.56724e-05)
(-0.0115631 0.00379139 -1.49316e-05)
(-0.000684545 0.000854503 1.21523e-06)
(-0.00158129 0.00149369 1.54057e-06)
(-0.0028376 0.00218699 6.49432e-07)
(-0.00432111 0.00272452 -9.5543e-07)
(-0.00599192 0.0031319 -2.81723e-06)
(-0.00778635 0.00342294 -4.47975e-06)
(-0.00965417 0.00362512 -5.43494e-06)
(-0.0115592 0.00378177 -5.06223e-06)
(-0.0128621 -0.00230744 2.83516e-05)
(-0.0128172 -0.00234402 1.33489e-05)
(-0.0127945 -0.00237706 4.39827e-06)
(-0.0127774 -0.00240343 1.05984e-06)
(-0.0127622 -0.002425 1.00683e-06)
(-0.012749 -0.00244184 1.58362e-06)
(-0.0127391 -0.00245354 1.51855e-06)
(-0.0127337 -0.00245943 6.24279e-07)
(-0.0126809 -0.000519923 -9.45394e-06)
(-0.0126397 -0.000550795 -7.68058e-06)
(-0.0126167 -0.000583394 -6.07827e-06)
(-0.0125986 -0.000613614 -4.47334e-06)
(-0.0125821 -0.000639413 -2.75499e-06)
(-0.0125676 -0.000659809 -1.35009e-06)
(-0.0125568 -0.000673982 -4.93238e-07)
(-0.0125511 -0.000681291 -1.04011e-07)
(-0.0126156 0.00124649 -5.55562e-05)
(-0.0125713 0.00121611 -3.08079e-05)
(-0.0125464 0.00118123 -1.72541e-05)
(-0.012528 0.00114674 -9.79116e-06)
(-0.0125119 0.00111649 -5.87503e-06)
(-0.0124981 0.00109229 -3.60168e-06)
(-0.0124877 0.0010755 -2.01613e-06)
(-0.0124822 0.00106686 -6.57183e-07)
(-0.0126625 0.0030544 -0.000102218)
(-0.0126083 0.00302326 -6.08978e-05)
(-0.0125813 0.00298772 -3.57861e-05)
(-0.0125641 0.00294933 -2.17008e-05)
(-0.0125504 0.00291474 -1.43744e-05)
(-0.012539 0.002887 -9.80534e-06)
(-0.0125305 0.00286786 -5.94409e-06)
(-0.0125259 0.00285809 -2.01558e-06)
)
;
    }
    symmetry
    {
        type            symmetryPlane;
    }
    bottom
    {
        type            calculated;
        value           uniform (0 0 0);
    }
}


// ************************************************************************* //
