/*--------------------------------*- C++ -*----------------------------------*\
| =========                 |                                                 |
| \\      /  F ield         | foam-extend: Open Source CFD                    |
|  \\    /   O peration     | Version:     3.1                                |
|   \\  /    A nd           | Web:         http://www.extend-project.de       |
|    \\/     M anipulation  |                                                 |
\*---------------------------------------------------------------------------*/
FoamFile
{
    version     2.0;
    format      ascii;
    class       pointVectorField;
    location    "0.0004";
    object      pointD;
}
// * * * * * * * * * * * * * * * * * * * * * * * * * * * * * * * * * * * * * //

dimensions      [0 1 0 0 0 0 0];

internalField   nonuniform List<vector> 
8505
(
(0 0 0)
(0 0 0)
(0 0 0)
(0 0 0)
(0 0 0)
(0 0 0)
(0 0 0)
(0 0 0)
(0 0 0)
(0 0 0)
(0 0 0)
(0 0 0)
(0 0 0)
(0 0 0)
(0 0 0)
(0 0 0)
(0 0 0)
(0 0 0)
(0 0 0)
(0 0 0)
(0 0 0)
(0 0 0)
(0 0 0)
(0 0 0)
(0 0 0)
(0 0 0)
(0 0 0)
(0 0 0)
(0 0 0)
(0 0 0)
(0 0 0)
(0 0 0)
(0 0 0)
(0 0 0)
(0 0 0)
(0 0 0)
(0 0 0)
(0 0 0)
(0 0 0)
(0 0 0)
(0 0 0)
(0 0 0)
(0 0 0)
(0 0 0)
(0 0 0)
(0 0 0)
(0 0 0)
(0 0 0)
(0 0 0)
(0 0 0)
(0 0 0)
(0 0 0)
(0 0 0)
(0 0 0)
(0 0 0)
(0 0 0)
(0 0 0)
(0 0 0)
(0 0 0)
(0 0 0)
(0 0 0)
(0 0 0)
(0 0 0)
(0 0 0)
(0 0 0)
(0 0 0)
(0 0 0)
(0 0 0)
(0 0 0)
(0 0 0)
(0 0 0)
(0 0 0)
(0 0 0)
(0 0 0)
(0 0 0)
(0 0 0)
(0 0 0)
(0 0 0)
(0 0 0)
(0 0 0)
(0 0 0)
(0 0 0)
(0 0 0)
(0 0 0)
(0 0 0)
(0 0 0)
(0 0 0)
(0 0 0)
(0 0 0)
(0 0 0)
(0 0 0)
(0 0 0)
(0 0 0)
(0 0 0)
(0 0 0)
(0 0 0)
(0 0 0)
(0 0 0)
(0 0 0)
(0 0 0)
(0 0 0)
(0 0 0)
(0 0 0)
(0 0 0)
(0 0 0)
(1.14573e-05 0 5.06559e-06)
(1.03927e-05 0 2.10931e-06)
(9.71515e-06 0 3.4191e-07)
(9.34302e-06 0 -1.36418e-06)
(9.27646e-06 0 -4.02426e-06)
(1.13843e-05 8.86381e-07 4.95835e-06)
(1.03345e-05 8.0838e-07 2.05013e-06)
(9.66804e-06 7.57701e-07 2.94876e-07)
(9.30596e-06 7.30121e-07 -1.42606e-06)
(9.2515e-06 7.26992e-07 -4.13917e-06)
(1.12748e-05 1.78042e-06 4.95472e-06)
(1.02357e-05 1.61697e-06 2.04776e-06)
(9.57609e-06 1.51409e-06 2.93059e-07)
(9.21812e-06 1.45879e-06 -1.42756e-06)
(9.16555e-06 1.4516e-06 -4.13958e-06)
(1.1098e-05 2.65903e-06 4.9528e-06)
(1.00753e-05 2.41474e-06 2.04665e-06)
(9.42597e-06 2.26055e-06 2.92551e-07)
(9.07354e-06 2.17764e-06 -1.4275e-06)
(9.02163e-06 2.16667e-06 -4.1387e-06)
(1.08533e-05 3.52008e-06 4.95138e-06)
(9.85286e-06 3.19681e-06 2.04612e-06)
(9.21757e-06 2.99245e-06 2.92663e-07)
(8.87262e-06 2.88243e-06 -1.42672e-06)
(8.82153e-06 2.8677e-06 -4.13693e-06)
(1.05415e-05 4.35883e-06 4.9501e-06)
(9.56941e-06 3.95857e-06 2.04582e-06)
(8.95195e-06 3.70529e-06 2.93082e-07)
(8.61653e-06 3.56878e-06 -1.42552e-06)
(8.56649e-06 3.55031e-06 -4.13454e-06)
(1.01647e-05 5.17053e-06 4.94892e-06)
(9.2267e-06 4.69557e-06 2.04567e-06)
(8.63084e-06 4.39477e-06 2.93687e-07)
(8.30701e-06 4.23244e-06 -1.42407e-06)
(8.25835e-06 4.21017e-06 -4.13175e-06)
(9.72507e-06 5.95059e-06 4.94801e-06)
(8.82701e-06 5.40355e-06 2.0457e-06)
(8.25649e-06 5.05682e-06 2.94408e-07)
(7.94634e-06 4.86942e-06 -1.42253e-06)
(7.89949e-06 4.84324e-06 -4.12886e-06)
(9.22554e-06 6.69459e-06 4.94764e-06)
(8.37304e-06 6.0785e-06 2.04595e-06)
(7.83156e-06 5.68766e-06 2.95164e-07)
(7.53723e-06 5.47608e-06 -1.42111e-06)
(7.49273e-06 5.44589e-06 -4.12625e-06)
(8.66922e-06 7.39828e-06 4.948e-06)
(7.86773e-06 6.71657e-06 2.0464e-06)
(7.35898e-06 6.28377e-06 2.9581e-07)
(7.08262e-06 6.04912e-06 -1.42006e-06)
(7.04105e-06 6.0149e-06 -4.12439e-06)
(8.05839e-06 8.05839e-06 4.94838e-06)
(7.31427e-06 7.31427e-06 2.04666e-06)
(6.84194e-06 6.84194e-06 2.96084e-07)
(6.58557e-06 6.58557e-06 -1.41967e-06)
(6.54749e-06 6.54749e-06 -4.12371e-06)
(7.39828e-06 8.66922e-06 4.948e-06)
(6.71657e-06 7.86773e-06 2.0464e-06)
(6.28377e-06 7.35898e-06 2.95811e-07)
(6.04912e-06 7.08262e-06 -1.42006e-06)
(6.0149e-06 7.04105e-06 -4.12439e-06)
(6.69459e-06 9.22554e-06 4.94764e-06)
(6.0785e-06 8.37304e-06 2.04595e-06)
(5.68766e-06 7.83156e-06 2.95164e-07)
(5.47608e-06 7.53723e-06 -1.42111e-06)
(5.44589e-06 7.49273e-06 -4.12625e-06)
(5.95059e-06 9.72507e-06 4.94801e-06)
(5.40355e-06 8.82701e-06 2.0457e-06)
(5.05682e-06 8.25649e-06 2.94408e-07)
(4.86942e-06 7.94634e-06 -1.42253e-06)
(4.84324e-06 7.89949e-06 -4.12886e-06)
(5.17053e-06 1.01647e-05 4.94892e-06)
(4.69557e-06 9.2267e-06 2.04567e-06)
(4.39477e-06 8.63084e-06 2.93687e-07)
(4.23244e-06 8.307e-06 -1.42407e-06)
(4.21017e-06 8.25834e-06 -4.13175e-06)
(4.35883e-06 1.05415e-05 4.9501e-06)
(3.95857e-06 9.56941e-06 2.04582e-06)
(3.70529e-06 8.95195e-06 2.93082e-07)
(3.56878e-06 8.61653e-06 -1.42552e-06)
(3.55031e-06 8.56648e-06 -4.13454e-06)
(3.52008e-06 1.08532e-05 4.95138e-06)
(3.19681e-06 9.85286e-06 2.04612e-06)
(2.99245e-06 9.21756e-06 2.92663e-07)
(2.88243e-06 8.87262e-06 -1.42671e-06)
(2.8677e-06 8.82152e-06 -4.13693e-06)
(2.65903e-06 1.1098e-05 4.9528e-06)
(2.41474e-06 1.00753e-05 2.04665e-06)
(2.26055e-06 9.42597e-06 2.92551e-07)
(2.17764e-06 9.07354e-06 -1.4275e-06)
(2.16667e-06 9.02163e-06 -4.1387e-06)
(1.78042e-06 1.12748e-05 4.95472e-06)
(1.61697e-06 1.02357e-05 2.04775e-06)
(1.51409e-06 9.57608e-06 2.93059e-07)
(1.45879e-06 9.21812e-06 -1.42756e-06)
(1.4516e-06 9.16554e-06 -4.13957e-06)
(8.86381e-07 1.13843e-05 4.95835e-06)
(8.0838e-07 1.03345e-05 2.05013e-06)
(7.57701e-07 9.66804e-06 2.94876e-07)
(7.30121e-07 9.30595e-06 -1.42606e-06)
(7.26992e-07 9.2515e-06 -4.13917e-06)
(0 1.14573e-05 5.06559e-06)
(0 1.03927e-05 2.10931e-06)
(0 9.71515e-06 3.4191e-07)
(0 9.34301e-06 -1.36418e-06)
(0 9.27645e-06 -4.02426e-06)
(1.96561e-05 0 4.03381e-06)
(1.89641e-05 0 2.08972e-06)
(1.82889e-05 0 5.23956e-07)
(1.77089e-05 0 -1.03151e-06)
(1.71396e-05 0 -2.9497e-06)
(1.95764e-05 1.53659e-06 3.97218e-06)
(1.88825e-05 1.48647e-06 2.03965e-06)
(1.82114e-05 1.43588e-06 4.77349e-07)
(1.76354e-05 1.39335e-06 -1.08657e-06)
(1.70643e-05 1.35318e-06 -3.02416e-06)
(1.93923e-05 3.06706e-06 3.96923e-06)
(1.87035e-05 2.96e-06 2.03627e-06)
(1.80389e-05 2.85725e-06 4.74171e-07)
(1.74684e-05 2.76958e-06 -1.08939e-06)
(1.69021e-05 2.68257e-06 -3.02548e-06)
(1.90883e-05 4.57498e-06 3.96744e-06)
(1.84101e-05 4.41483e-06 2.03505e-06)
(1.77555e-05 4.2606e-06 4.7349e-07)
(1.71936e-05 4.12874e-06 -1.0894e-06)
(1.66357e-05 3.99784e-06 -3.02454e-06)
(1.86661e-05 6.05371e-06 3.96598e-06)
(1.80024e-05 5.84167e-06 2.03455e-06)
(1.73617e-05 5.63711e-06 4.73775e-07)
(1.68117e-05 5.46207e-06 -1.08828e-06)
(1.62656e-05 5.28838e-06 -3.0223e-06)
(1.81281e-05 7.49441e-06 3.96451e-06)
(1.74826e-05 7.23171e-06 2.03433e-06)
(1.68597e-05 6.97803e-06 4.74508e-07)
(1.6325e-05 6.76086e-06 -1.08654e-06)
(1.5794e-05 6.54545e-06 -3.01919e-06)
(1.74776e-05 8.88861e-06 3.96305e-06)
(1.68543e-05 8.57651e-06 2.03429e-06)
(1.62529e-05 8.275e-06 4.75512e-07)
(1.57368e-05 8.01678e-06 -1.08443e-06)
(1.52243e-05 7.76073e-06 -3.01551e-06)
(1.67189e-05 1.02284e-05 3.96184e-06)
(1.61217e-05 9.8682e-06 2.03447e-06)
(1.55459e-05 9.52026e-06 4.76685e-07)
(1.50517e-05 9.22218e-06 -1.08216e-06)
(1.45611e-05 8.92664e-06 -3.01163e-06)
(1.58574e-05 1.15062e-05 3.96117e-06)
(1.52903e-05 1.10995e-05 2.03488e-06)
(1.47439e-05 1.07068e-05 4.77881e-07)
(1.42751e-05 1.03702e-05 -1.08005e-06)
(1.38098e-05 1.00365e-05 -3.00809e-06)
(1.48988e-05 1.2715e-05 3.96126e-06)
(1.4366e-05 1.22638e-05 2.03544e-06)
(1.38528e-05 1.18283e-05 4.78851e-07)
(1.34128e-05 1.14549e-05 -1.07851e-06)
(1.29763e-05 1.10847e-05 -3.00556e-06)
(1.38487e-05 1.38487e-05 3.9615e-06)
(1.33548e-05 1.33548e-05 2.03573e-06)
(1.28789e-05 1.28789e-05 4.7924e-07)
(1.24709e-05 1.24709e-05 -1.07793e-06)
(1.20662e-05 1.20662e-05 -3.00464e-06)
(1.2715e-05 1.48988e-05 3.96126e-06)
(1.22638e-05 1.4366e-05 2.03544e-06)
(1.18283e-05 1.38528e-05 4.78851e-07)
(1.14549e-05 1.34128e-05 -1.07851e-06)
(1.10847e-05 1.29763e-05 -3.00556e-06)
(1.15062e-05 1.58574e-05 3.96117e-06)
(1.10995e-05 1.52903e-05 2.03488e-06)
(1.07068e-05 1.47439e-05 4.77881e-07)
(1.03702e-05 1.42751e-05 -1.08005e-06)
(1.00365e-05 1.38098e-05 -3.00809e-06)
(1.02284e-05 1.67189e-05 3.96184e-06)
(9.8682e-06 1.61217e-05 2.03447e-06)
(9.52026e-06 1.55459e-05 4.76685e-07)
(9.22218e-06 1.50517e-05 -1.08216e-06)
(8.92664e-06 1.45611e-05 -3.01162e-06)
(8.88861e-06 1.74776e-05 3.96305e-06)
(8.57651e-06 1.68543e-05 2.03429e-06)
(8.27499e-06 1.62529e-05 4.75513e-07)
(8.01678e-06 1.57368e-05 -1.08443e-06)
(7.76073e-06 1.52243e-05 -3.01551e-06)
(7.49441e-06 1.81281e-05 3.96451e-06)
(7.23171e-06 1.74826e-05 2.03433e-06)
(6.97803e-06 1.68597e-05 4.74508e-07)
(6.76086e-06 1.6325e-05 -1.08654e-06)
(6.54545e-06 1.5794e-05 -3.01919e-06)
(6.05371e-06 1.86661e-05 3.96598e-06)
(5.84167e-06 1.80024e-05 2.03455e-06)
(5.63711e-06 1.73617e-05 4.73775e-07)
(5.46207e-06 1.68117e-05 -1.08828e-06)
(5.28838e-06 1.62656e-05 -3.0223e-06)
(4.57498e-06 1.90883e-05 3.96744e-06)
(4.41483e-06 1.84101e-05 2.03505e-06)
(4.26059e-06 1.77555e-05 4.7349e-07)
(4.12874e-06 1.71936e-05 -1.0894e-06)
(3.99784e-06 1.66357e-05 -3.02454e-06)
(3.06706e-06 1.93922e-05 3.96923e-06)
(2.96e-06 1.87035e-05 2.03627e-06)
(2.85725e-06 1.80389e-05 4.74172e-07)
(2.76958e-06 1.74684e-05 -1.08939e-06)
(2.68257e-06 1.69021e-05 -3.02547e-06)
(1.53659e-06 1.95764e-05 3.97218e-06)
(1.48647e-06 1.88824e-05 2.03965e-06)
(1.43588e-06 1.82114e-05 4.7735e-07)
(1.39335e-06 1.76353e-05 -1.08657e-06)
(1.35318e-06 1.70643e-05 -3.02416e-06)
(0 1.9656e-05 4.03381e-06)
(0 1.89641e-05 2.08972e-06)
(0 1.82889e-05 5.23956e-07)
(0 1.77089e-05 -1.03151e-06)
(0 1.71396e-05 -2.9497e-06)
(2.26174e-05 0 1.07488e-06)
(2.21121e-05 0 7.80593e-07)
(2.15341e-05 0 4.01336e-07)
(2.0926e-05 0 1.61931e-09)
(2.02388e-05 0 -3.65561e-07)
(2.2535e-05 1.7707e-06 1.06858e-06)
(2.20259e-05 1.73428e-06 7.69982e-07)
(2.14474e-05 1.69138e-06 3.88753e-07)
(2.08387e-05 1.64672e-06 -1.15138e-08)
(2.0148e-05 1.59884e-06 -3.76949e-07)
(2.23241e-05 3.53022e-06 1.06823e-06)
(2.18181e-05 3.45273e-06 7.69411e-07)
(2.12442e-05 3.36501e-06 3.88106e-07)
(2.06404e-05 3.27278e-06 -1.18781e-08)
(1.99554e-05 3.16792e-06 -3.76942e-07)
(2.19739e-05 5.26481e-06 1.06775e-06)
(2.14752e-05 5.14891e-06 7.69193e-07)
(2.09096e-05 5.017e-06 3.88111e-07)
(2.03148e-05 4.87817e-06 -1.15281e-08)
(1.96397e-05 4.72026e-06 -3.76143e-07)
(2.14865e-05 6.96551e-06 1.06719e-06)
(2.0998e-05 6.81206e-06 7.6919e-07)
(2.04443e-05 6.63699e-06 3.88547e-07)
(1.9862e-05 6.45265e-06 -1.06212e-08)
(1.92012e-05 6.24318e-06 -3.74625e-07)
(2.08649e-05 8.62202e-06 1.06654e-06)
(2.03895e-05 8.43183e-06 7.69334e-07)
(1.98509e-05 8.21461e-06 3.89277e-07)
(1.92847e-05 7.98589e-06 -9.28498e-09)
(1.86422e-05 7.72618e-06 -3.72463e-07)
(2.01131e-05 1.02246e-05 1.06588e-06)
(1.96536e-05 9.99834e-06 7.69623e-07)
(1.91335e-05 9.73996e-06 3.90236e-07)
(1.8587e-05 9.46795e-06 -7.62343e-09)
(1.79671e-05 9.15932e-06 -3.69793e-07)
(1.92365e-05 1.17642e-05 1.06536e-06)
(1.87959e-05 1.15025e-05 7.70085e-07)
(1.82979e-05 1.1204e-05 3.91356e-07)
(1.77748e-05 1.08898e-05 -5.79403e-09)
(1.71815e-05 1.05336e-05 -3.66881e-07)
(1.82415e-05 1.32326e-05 1.0652e-06)
(1.78232e-05 1.29362e-05 7.70716e-07)
(1.73509e-05 1.25987e-05 3.92499e-07)
(1.68549e-05 1.22438e-05 -4.05512e-09)
(1.62925e-05 1.18414e-05 -3.64156e-07)
(1.71356e-05 1.46222e-05 1.06551e-06)
(1.67431e-05 1.4292e-05 7.71371e-07)
(1.63e-05 1.39171e-05 3.93415e-07)
(1.58348e-05 1.35231e-05 -2.76217e-09)
(1.53074e-05 1.30764e-05 -3.62169e-07)
(1.59261e-05 1.59261e-05 1.06578e-06)
(1.55634e-05 1.55634e-05 7.71675e-07)
(1.5153e-05 1.5153e-05 3.93779e-07)
(1.4722e-05 1.4722e-05 -2.27657e-09)
(1.42334e-05 1.42334e-05 -3.61434e-07)
(1.46222e-05 1.71356e-05 1.06551e-06)
(1.4292e-05 1.67431e-05 7.71371e-07)
(1.39171e-05 1.63e-05 3.93415e-07)
(1.3523e-05 1.58348e-05 -2.76199e-09)
(1.30763e-05 1.53074e-05 -3.62169e-07)
(1.32326e-05 1.82415e-05 1.0652e-06)
(1.29362e-05 1.78232e-05 7.70715e-07)
(1.25987e-05 1.73509e-05 3.92499e-07)
(1.22437e-05 1.68549e-05 -4.05477e-09)
(1.18414e-05 1.62925e-05 -3.64156e-07)
(1.17642e-05 1.92365e-05 1.06536e-06)
(1.15025e-05 1.87959e-05 7.70085e-07)
(1.1204e-05 1.82979e-05 3.91356e-07)
(1.08898e-05 1.77748e-05 -5.79352e-09)
(1.05336e-05 1.71815e-05 -3.6688e-07)
(1.02246e-05 2.01131e-05 1.06588e-06)
(9.99834e-06 1.96535e-05 7.69623e-07)
(9.73996e-06 1.91335e-05 3.90237e-07)
(9.46795e-06 1.8587e-05 -7.62278e-09)
(9.15931e-06 1.79671e-05 -3.69792e-07)
(8.62202e-06 2.08649e-05 1.06654e-06)
(8.43182e-06 2.03895e-05 7.69334e-07)
(8.21461e-06 1.98509e-05 3.89277e-07)
(7.98588e-06 1.92847e-05 -9.2842e-09)
(7.72618e-06 1.86422e-05 -3.72462e-07)
(6.96551e-06 2.14865e-05 1.06719e-06)
(6.81205e-06 2.0998e-05 7.6919e-07)
(6.63699e-06 2.04443e-05 3.88548e-07)
(6.45265e-06 1.9862e-05 -1.06203e-08)
(6.24318e-06 1.92012e-05 -3.74623e-07)
(5.2648e-06 2.19738e-05 1.06775e-06)
(5.14891e-06 2.14752e-05 7.69192e-07)
(5.017e-06 2.09096e-05 3.88111e-07)
(4.87817e-06 2.03148e-05 -1.15271e-08)
(4.72026e-06 1.96397e-05 -3.76141e-07)
(3.53022e-06 2.23241e-05 1.06823e-06)
(3.45273e-06 2.18181e-05 7.69411e-07)
(3.36501e-06 2.12442e-05 3.88107e-07)
(3.27278e-06 2.06404e-05 -1.1877e-08)
(3.16792e-06 1.99554e-05 -3.7694e-07)
(1.7707e-06 2.2535e-05 1.06857e-06)
(1.73428e-06 2.20259e-05 7.69982e-07)
(1.69138e-06 2.14474e-05 3.88753e-07)
(1.64672e-06 2.08387e-05 -1.15126e-08)
(1.59884e-06 2.0148e-05 -3.76947e-07)
(0 2.26173e-05 1.07488e-06)
(0 2.2112e-05 7.80593e-07)
(0 2.15341e-05 4.01336e-07)
(0 2.0926e-05 1.62051e-09)
(0 2.02388e-05 -3.65559e-07)
(2.07905e-05 0 -1.5677e-06)
(2.03537e-05 0 -5.63029e-07)
(1.98777e-05 0 1.63832e-07)
(1.93705e-05 0 8.57048e-07)
(1.88149e-05 0 1.74367e-06)
(2.07146e-05 1.62533e-06 -1.53368e-06)
(2.0276e-05 1.59435e-06 -5.38895e-07)
(1.97992e-05 1.55932e-06 1.8489e-07)
(1.92911e-05 1.52235e-06 8.81726e-07)
(1.87342e-05 1.4843e-06 1.7794e-06)
(2.05203e-05 3.24229e-06 -1.53153e-06)
(2.00845e-05 3.17613e-06 -5.3684e-07)
(1.96112e-05 3.10441e-06 1.86783e-07)
(1.91071e-05 3.02802e-06 8.8357e-07)
(1.8555e-05 2.94424e-06 1.78073e-06)
(2.01978e-05 4.8362e-06 -1.53033e-06)
(1.97682e-05 4.73728e-06 -5.35748e-07)
(1.93017e-05 4.62942e-06 1.87725e-07)
(1.88049e-05 4.51435e-06 8.84365e-07)
(1.82607e-05 4.38806e-06 1.78132e-06)
(1.97487e-05 6.39852e-06 -1.52942e-06)
(1.93278e-05 6.26762e-06 -5.34984e-07)
(1.88709e-05 6.12446e-06 1.88356e-07)
(1.83845e-05 5.97166e-06 8.84861e-07)
(1.78517e-05 5.80417e-06 1.78166e-06)
(1.91755e-05 7.91967e-06 -1.52858e-06)
(1.87657e-05 7.75749e-06 -5.34275e-07)
(1.83212e-05 7.57984e-06 1.88941e-07)
(1.78482e-05 7.39024e-06 8.85328e-07)
(1.73301e-05 7.18266e-06 1.78201e-06)
(1.84821e-05 9.39075e-06 -1.5277e-06)
(1.80858e-05 9.19778e-06 -5.33513e-07)
(1.76566e-05 8.98638e-06 1.89584e-07)
(1.72001e-05 8.76083e-06 8.85874e-07)
(1.67e-05 8.5141e-06 1.78249e-06)
(1.76734e-05 1.08037e-05 -1.52675e-06)
(1.72935e-05 1.05802e-05 -5.32673e-07)
(1.68826e-05 1.03358e-05 1.90303e-07)
(1.64457e-05 1.00751e-05 8.8651e-07)
(1.59671e-05 9.79009e-06 1.78311e-06)
(1.6756e-05 1.21512e-05 -1.52572e-06)
(1.63955e-05 1.18976e-05 -5.31797e-07)
(1.6006e-05 1.16209e-05 1.91036e-07)
(1.5592e-05 1.13261e-05 8.87164e-07)
(1.51385e-05 1.10037e-05 1.78379e-06)
(1.57372e-05 1.34268e-05 -1.52471e-06)
(1.53995e-05 1.31438e-05 -5.31043e-07)
(1.50345e-05 1.28359e-05 1.9163e-07)
(1.46465e-05 1.25081e-05 8.87684e-07)
(1.42218e-05 1.21496e-05 1.78434e-06)
(1.46246e-05 1.46246e-05 -1.52423e-06)
(1.43131e-05 1.43131e-05 -5.30726e-07)
(1.39756e-05 1.39756e-05 1.91866e-07)
(1.36165e-05 1.36165e-05 8.87886e-07)
(1.32236e-05 1.32236e-05 1.78456e-06)
(1.34268e-05 1.57372e-05 -1.52471e-06)
(1.31438e-05 1.53995e-05 -5.31043e-07)
(1.28359e-05 1.50345e-05 1.9163e-07)
(1.25081e-05 1.46465e-05 8.87684e-07)
(1.21496e-05 1.42218e-05 1.78434e-06)
(1.21512e-05 1.6756e-05 -1.52572e-06)
(1.18976e-05 1.63955e-05 -5.31797e-07)
(1.16209e-05 1.6006e-05 1.91037e-07)
(1.13261e-05 1.5592e-05 8.87165e-07)
(1.10037e-05 1.51385e-05 1.78379e-06)
(1.08037e-05 1.76734e-05 -1.52675e-06)
(1.05802e-05 1.72935e-05 -5.32674e-07)
(1.03358e-05 1.68826e-05 1.90304e-07)
(1.00751e-05 1.64457e-05 8.86511e-07)
(9.79009e-06 1.59671e-05 1.78312e-06)
(9.39075e-06 1.8482e-05 -1.5277e-06)
(9.19778e-06 1.80858e-05 -5.33513e-07)
(8.98638e-06 1.76566e-05 1.89585e-07)
(8.76082e-06 1.72e-05 8.85874e-07)
(8.51409e-06 1.67e-05 1.78249e-06)
(7.91967e-06 1.91755e-05 -1.52858e-06)
(7.75749e-06 1.87656e-05 -5.34275e-07)
(7.57984e-06 1.83212e-05 1.88942e-07)
(7.39024e-06 1.78482e-05 8.85329e-07)
(7.18265e-06 1.73301e-05 1.78201e-06)
(6.39852e-06 1.97487e-05 -1.52942e-06)
(6.26762e-06 1.93277e-05 -5.34984e-07)
(6.12445e-06 1.88709e-05 1.88357e-07)
(5.97165e-06 1.83845e-05 8.84862e-07)
(5.80417e-06 1.78517e-05 1.78166e-06)
(4.8362e-06 2.01977e-05 -1.53033e-06)
(4.73728e-06 1.97682e-05 -5.35748e-07)
(4.62941e-06 1.93017e-05 1.87726e-07)
(4.51434e-06 1.88049e-05 8.84366e-07)
(4.38806e-06 1.82607e-05 1.78133e-06)
(3.24229e-06 2.05203e-05 -1.53153e-06)
(3.17613e-06 2.00845e-05 -5.3684e-07)
(3.10441e-06 1.96112e-05 1.86784e-07)
(3.02802e-06 1.91071e-05 8.83571e-07)
(2.94424e-06 1.85549e-05 1.78073e-06)
(1.62533e-06 2.07146e-05 -1.53368e-06)
(1.59435e-06 2.0276e-05 -5.38895e-07)
(1.55932e-06 1.97992e-05 1.8489e-07)
(1.52235e-06 1.92911e-05 8.81727e-07)
(1.4843e-06 1.87342e-05 1.7794e-06)
(0 2.07905e-05 -1.5677e-06)
(0 2.03537e-05 -5.63029e-07)
(0 1.98776e-05 1.63833e-07)
(0 1.93705e-05 8.5705e-07)
(0 1.88149e-05 1.74367e-06)
(1.6515e-05 0 -2.88023e-06)
(1.61056e-05 0 -1.32976e-06)
(1.57269e-05 0 -4.28937e-08)
(1.53639e-05 0 1.2084e-06)
(1.50181e-05 0 2.63776e-06)
(1.64514e-05 1.28746e-06 -2.83137e-06)
(1.60432e-05 1.25895e-06 -1.28919e-06)
(1.56652e-05 1.23138e-06 -4.37017e-09)
(1.53028e-05 1.20519e-06 1.2512e-06)
(1.49584e-05 1.18209e-06 2.69146e-06)
(1.62964e-05 2.57205e-06 -2.82816e-06)
(1.58913e-05 2.51054e-06 -1.28618e-06)
(1.55162e-05 2.45398e-06 -1.63399e-09)
(1.51567e-05 2.39998e-06 1.25361e-06)
(1.48155e-05 2.34893e-06 2.69301e-06)
(1.604e-05 3.83801e-06 -2.82583e-06)
(1.56408e-05 3.74591e-06 -1.28434e-06)
(1.5271e-05 3.66082e-06 -2.65709e-10)
(1.49168e-05 3.57944e-06 1.25446e-06)
(1.45805e-05 3.50239e-06 2.69321e-06)
(1.5683e-05 5.07858e-06 -2.82374e-06)
(1.5292e-05 4.95674e-06 -1.283e-06)
(1.49298e-05 4.84382e-06 4.42068e-10)
(1.45829e-05 4.73575e-06 1.25453e-06)
(1.42535e-05 4.63361e-06 2.69253e-06)
(1.52272e-05 6.28611e-06 -2.8216e-06)
(1.48465e-05 6.13526e-06 -1.28183e-06)
(1.44942e-05 5.99516e-06 8.50829e-10)
(1.41568e-05 5.86107e-06 1.25419e-06)
(1.38362e-05 5.73453e-06 2.69128e-06)
(1.46755e-05 7.45359e-06 -2.81934e-06)
(1.43075e-05 7.27422e-06 -1.2807e-06)
(1.39673e-05 7.10749e-06 1.13932e-09)
(1.36415e-05 6.94791e-06 1.25366e-06)
(1.33319e-05 6.79747e-06 2.68975e-06)
(1.4032e-05 8.57472e-06 -2.81707e-06)
(1.36793e-05 8.36714e-06 -1.27958e-06)
(1.33536e-05 8.17425e-06 1.39592e-09)
(1.30418e-05 7.98965e-06 1.25311e-06)
(1.27455e-05 7.81563e-06 2.6882e-06)
(1.33021e-05 9.64394e-06 -2.81495e-06)
(1.29675e-05 9.40849e-06 -1.27856e-06)
(1.26588e-05 9.18997e-06 1.64843e-09)
(1.23634e-05 8.98085e-06 1.25265e-06)
(1.20829e-05 8.78354e-06 2.68688e-06)
(1.24917e-05 1.06564e-05 -2.81329e-06)
(1.21784e-05 1.03936e-05 -1.27777e-06)
(1.18893e-05 1.01502e-05 1.86271e-09)
(1.16128e-05 9.91735e-06 1.25237e-06)
(1.13504e-05 9.69722e-06 2.686e-06)
(1.16075e-05 1.16075e-05 -2.8126e-06)
(1.13184e-05 1.13184e-05 -1.27746e-06)
(1.10514e-05 1.10514e-05 1.95187e-09)
(1.07958e-05 1.07958e-05 1.25227e-06)
(1.05538e-05 1.05538e-05 2.68569e-06)
(1.06564e-05 1.24917e-05 -2.81329e-06)
(1.03936e-05 1.21784e-05 -1.27777e-06)
(1.01502e-05 1.18893e-05 1.86279e-09)
(9.91735e-06 1.16128e-05 1.25237e-06)
(9.69722e-06 1.13504e-05 2.686e-06)
(9.64393e-06 1.33021e-05 -2.81495e-06)
(9.40849e-06 1.29675e-05 -1.27856e-06)
(9.18997e-06 1.26588e-05 1.64858e-09)
(8.98085e-06 1.23634e-05 1.25265e-06)
(8.78354e-06 1.20829e-05 2.68688e-06)
(8.57471e-06 1.4032e-05 -2.81707e-06)
(8.36714e-06 1.36793e-05 -1.27958e-06)
(8.17425e-06 1.33536e-05 1.39614e-09)
(7.98964e-06 1.30418e-05 1.25311e-06)
(7.81562e-06 1.27455e-05 2.6882e-06)
(7.45359e-06 1.46755e-05 -2.81934e-06)
(7.27421e-06 1.43075e-05 -1.2807e-06)
(7.10749e-06 1.39673e-05 1.13961e-09)
(6.9479e-06 1.36415e-05 1.25367e-06)
(6.79746e-06 1.33319e-05 2.68975e-06)
(6.28611e-06 1.52272e-05 -2.8216e-06)
(6.13525e-06 1.48465e-05 -1.28183e-06)
(5.99516e-06 1.44942e-05 8.51184e-10)
(5.86106e-06 1.41568e-05 1.25419e-06)
(5.73452e-06 1.38362e-05 2.69128e-06)
(5.07857e-06 1.5683e-05 -2.82374e-06)
(4.95674e-06 1.5292e-05 -1.283e-06)
(4.84382e-06 1.49298e-05 4.42483e-10)
(4.73575e-06 1.45829e-05 1.25453e-06)
(4.63361e-06 1.42535e-05 2.69253e-06)
(3.83801e-06 1.604e-05 -2.82583e-06)
(3.74591e-06 1.56408e-05 -1.28434e-06)
(3.66082e-06 1.5271e-05 -2.65236e-10)
(3.57944e-06 1.49168e-05 1.25446e-06)
(3.50239e-06 1.45805e-05 2.69322e-06)
(2.57205e-06 1.62964e-05 -2.82816e-06)
(2.51054e-06 1.58913e-05 -1.28618e-06)
(2.45398e-06 1.55162e-05 -1.63347e-09)
(2.39998e-06 1.51567e-05 1.25362e-06)
(2.34893e-06 1.48155e-05 2.69301e-06)
(1.28746e-06 1.64513e-05 -2.83137e-06)
(1.25895e-06 1.60432e-05 -1.28919e-06)
(1.23138e-06 1.56651e-05 -4.3696e-09)
(1.20519e-06 1.53027e-05 1.2512e-06)
(1.18209e-06 1.49584e-05 2.69146e-06)
(0 1.65149e-05 -2.88023e-06)
(0 1.61056e-05 -1.32976e-06)
(0 1.57269e-05 -4.28931e-08)
(0 1.53639e-05 1.2084e-06)
(0 1.50181e-05 2.63777e-06)
(1.20277e-05 0 -2.97334e-06)
(1.16501e-05 0 -1.48868e-06)
(1.13526e-05 0 -1.62447e-07)
(1.11132e-05 0 1.13378e-06)
(1.09381e-05 0 2.52108e-06)
(1.19779e-05 9.347e-07 -2.92875e-06)
(1.16033e-05 9.08639e-07 -1.44813e-06)
(1.13079e-05 8.87147e-07 -1.22404e-07)
(1.10705e-05 8.70041e-07 1.17689e-06)
(1.08985e-05 8.58778e-07 2.57073e-06)
(1.18646e-05 1.87078e-06 -2.92588e-06)
(1.14932e-05 1.81403e-06 -1.44561e-06)
(1.12004e-05 1.76984e-06 -1.20219e-07)
(1.09651e-05 1.73472e-06 1.17864e-06)
(1.07949e-05 1.70979e-06 2.57167e-06)
(1.16781e-05 2.79303e-06 -2.9234e-06)
(1.13123e-05 2.70791e-06 -1.44378e-06)
(1.10237e-05 2.6414e-06 -1.19006e-07)
(1.07919e-05 2.58844e-06 1.17919e-06)
(1.06241e-05 2.55072e-06 2.57148e-06)
(1.14187e-05 3.69675e-06 -2.92095e-06)
(1.10605e-05 3.58413e-06 -1.44232e-06)
(1.07779e-05 3.49587e-06 -1.18388e-07)
(1.05508e-05 3.42554e-06 1.17898e-06)
(1.03863e-05 3.37555e-06 2.57031e-06)
(1.10874e-05 4.57636e-06 -2.91836e-06)
(1.07389e-05 4.43698e-06 -1.44103e-06)
(1.0464e-05 4.32751e-06 -1.18129e-07)
(1.02429e-05 4.24026e-06 1.17823e-06)
(1.00826e-05 4.17839e-06 2.56837e-06)
(1.06862e-05 5.42675e-06 -2.91562e-06)
(1.03495e-05 5.26117e-06 -1.43981e-06)
(1.00839e-05 5.13094e-06 -1.18078e-07)
(9.87043e-06 5.02708e-06 1.17715e-06)
(9.71542e-06 4.9535e-06 2.56592e-06)
(1.0218e-05 6.24336e-06 -2.91288e-06)
(9.8953e-06 6.05201e-06 -1.43867e-06)
(9.64102e-06 5.90137e-06 -1.18129e-07)
(9.43664e-06 5.78113e-06 1.17596e-06)
(9.28817e-06 5.69582e-06 2.56332e-06)
(9.6866e-06 7.02218e-06 -2.91041e-06)
(9.38045e-06 6.80549e-06 -1.43768e-06)
(9.13944e-06 6.63484e-06 -1.18199e-07)
(8.94584e-06 6.49845e-06 1.17489e-06)
(8.80533e-06 6.40131e-06 2.56101e-06)
(9.0965e-06 7.75966e-06 -2.90856e-06)
(8.80956e-06 7.51827e-06 -1.43696e-06)
(8.58384e-06 7.3282e-06 -1.1824e-07)
(8.40271e-06 7.17606e-06 1.17415e-06)
(8.27161e-06 7.0671e-06 2.5594e-06)
(8.45251e-06 8.45251e-06 -2.90784e-06)
(8.1874e-06 8.1874e-06 -1.43669e-06)
(7.97882e-06 7.97882e-06 -1.1825e-07)
(7.81163e-06 7.81163e-06 1.17389e-06)
(7.69119e-06 7.69119e-06 2.55883e-06)
(7.75966e-06 9.0965e-06 -2.90856e-06)
(7.51827e-06 8.80956e-06 -1.43696e-06)
(7.3282e-06 8.58384e-06 -1.1824e-07)
(7.17606e-06 8.40271e-06 1.17415e-06)
(7.06709e-06 8.2716e-06 2.5594e-06)
(7.02218e-06 9.6866e-06 -2.91041e-06)
(6.80549e-06 9.38045e-06 -1.43768e-06)
(6.63484e-06 9.13943e-06 -1.18199e-07)
(6.49845e-06 8.94584e-06 1.17489e-06)
(6.40131e-06 8.80533e-06 2.56101e-06)
(6.24335e-06 1.0218e-05 -2.91288e-06)
(6.05201e-06 9.89529e-06 -1.43867e-06)
(5.90137e-06 9.64101e-06 -1.18129e-07)
(5.78113e-06 9.43663e-06 1.17596e-06)
(5.69582e-06 9.28817e-06 2.56332e-06)
(5.42674e-06 1.06862e-05 -2.91562e-06)
(5.26117e-06 1.03494e-05 -1.43981e-06)
(5.13094e-06 1.00839e-05 -1.18078e-07)
(5.02708e-06 9.87042e-06 1.17715e-06)
(4.9535e-06 9.71541e-06 2.56592e-06)
(4.57635e-06 1.10874e-05 -2.91836e-06)
(4.43697e-06 1.07389e-05 -1.44103e-06)
(4.32751e-06 1.0464e-05 -1.18129e-07)
(4.24025e-06 1.02429e-05 1.17823e-06)
(4.17838e-06 1.00826e-05 2.56837e-06)
(3.69675e-06 1.14187e-05 -2.92095e-06)
(3.58412e-06 1.10605e-05 -1.44232e-06)
(3.49586e-06 1.07779e-05 -1.18388e-07)
(3.42554e-06 1.05508e-05 1.17898e-06)
(3.37555e-06 1.03863e-05 2.57031e-06)
(2.79303e-06 1.16781e-05 -2.9234e-06)
(2.70791e-06 1.13123e-05 -1.44378e-06)
(2.64139e-06 1.10237e-05 -1.19006e-07)
(2.58843e-06 1.07919e-05 1.17919e-06)
(2.55072e-06 1.06241e-05 2.57149e-06)
(1.87077e-06 1.18646e-05 -2.92588e-06)
(1.81403e-06 1.14932e-05 -1.44561e-06)
(1.76984e-06 1.12003e-05 -1.20219e-07)
(1.73472e-06 1.0965e-05 1.17864e-06)
(1.70979e-06 1.07949e-05 2.57168e-06)
(9.34699e-07 1.19779e-05 -2.92875e-06)
(9.08637e-07 1.16033e-05 -1.44813e-06)
(8.87145e-07 1.13079e-05 -1.22403e-07)
(8.7004e-07 1.10705e-05 1.17689e-06)
(8.58776e-07 1.08985e-05 2.57073e-06)
(0 1.20277e-05 -2.97334e-06)
(0 1.16501e-05 -1.48868e-06)
(0 1.13526e-05 -1.62446e-07)
(0 1.11132e-05 1.13378e-06)
(0 1.09381e-05 2.52108e-06)
(8.49415e-06 0 -2.42412e-06)
(8.16462e-06 0 -1.28307e-06)
(7.92966e-06 0 -2.0043e-07)
(7.77074e-06 0 8.60081e-07)
(7.69095e-06 0 1.93319e-06)
(8.45645e-06 6.58504e-07 -2.39144e-06)
(8.13036e-06 6.35766e-07 -1.25091e-06)
(7.89815e-06 6.18795e-07 -1.67695e-07)
(7.74185e-06 6.07473e-07 8.94377e-07)
(7.66537e-06 6.02575e-07 1.96976e-06)
(8.37633e-06 1.32022e-06 -2.38958e-06)
(8.0532e-06 1.27045e-06 -1.24944e-06)
(7.82318e-06 1.23551e-06 -1.66556e-07)
(7.66843e-06 1.21237e-06 8.95118e-07)
(7.59302e-06 1.2016e-06 1.96995e-06)
(8.24515e-06 1.97205e-06 -2.38766e-06)
(7.92705e-06 1.89729e-06 -1.24812e-06)
(7.70043e-06 1.84465e-06 -1.65791e-07)
(7.54794e-06 1.80975e-06 8.95304e-07)
(7.47354e-06 1.79336e-06 1.96954e-06)
(8.06287e-06 2.61091e-06 -2.38563e-06)
(7.75157e-06 2.51194e-06 -1.24693e-06)
(7.52969e-06 2.4421e-06 -1.65365e-07)
(7.38031e-06 2.39575e-06 8.94986e-07)
(7.30724e-06 2.37403e-06 1.96842e-06)
(7.83008e-06 3.23284e-06 -2.38341e-06)
(7.52734e-06 3.11041e-06 -1.24584e-06)
(7.31151e-06 3.02383e-06 -1.65211e-07)
(7.16609e-06 2.96634e-06 8.94225e-07)
(7.09473e-06 2.9395e-06 1.96663e-06)
(7.54802e-06 3.83424e-06 -2.38106e-06)
(7.25564e-06 3.68893e-06 -1.24482e-06)
(7.04718e-06 3.586e-06 -1.65256e-07)
(6.90665e-06 3.5176e-06 8.93147e-07)
(6.83747e-06 3.48568e-06 1.96435e-06)
(7.2186e-06 4.41182e-06 -2.37872e-06)
(6.93847e-06 4.24414e-06 -1.24388e-06)
(6.7388e-06 4.1252e-06 -1.65413e-07)
(6.60419e-06 4.04601e-06 8.9194e-07)
(6.53781e-06 4.00891e-06 1.9619e-06)
(6.84435e-06 4.96267e-06 -2.37662e-06)
(6.57851e-06 4.77315e-06 -1.24309e-06)
(6.38917e-06 4.63855e-06 -1.65595e-07)
(6.26159e-06 4.5487e-06 8.90834e-07)
(6.19875e-06 4.50621e-06 1.95968e-06)
(6.42831e-06 5.48415e-06 -2.37508e-06)
(6.1789e-06 5.27348e-06 -1.24253e-06)
(6.00142e-06 5.12371e-06 -1.65726e-07)
(5.88202e-06 5.02345e-06 8.90059e-07)
(5.82353e-06 4.97544e-06 1.95812e-06)
(5.97374e-06 5.97373e-06 -2.37448e-06)
(5.74289e-06 5.74289e-06 -1.24231e-06)
(5.57871e-06 5.57871e-06 -1.6577e-07)
(5.4685e-06 5.4685e-06 8.89781e-07)
(5.41505e-06 5.41505e-06 1.95756e-06)
(5.48414e-06 6.4283e-06 -2.37508e-06)
(5.27348e-06 6.1789e-06 -1.24253e-06)
(5.12371e-06 6.00142e-06 -1.65725e-07)
(5.02345e-06 5.88202e-06 8.90059e-07)
(4.97544e-06 5.82353e-06 1.95812e-06)
(4.96267e-06 6.84434e-06 -2.37663e-06)
(4.77315e-06 6.57851e-06 -1.24309e-06)
(4.63854e-06 6.38916e-06 -1.65595e-07)
(4.5487e-06 6.26159e-06 8.90834e-07)
(4.50621e-06 6.19875e-06 1.95968e-06)
(4.41181e-06 7.21859e-06 -2.37872e-06)
(4.24414e-06 6.93846e-06 -1.24388e-06)
(4.12519e-06 6.7388e-06 -1.65413e-07)
(4.04601e-06 6.60418e-06 8.9194e-07)
(4.0089e-06 6.5378e-06 1.9619e-06)
(3.83423e-06 7.54801e-06 -2.38106e-06)
(3.68892e-06 7.25563e-06 -1.24482e-06)
(3.586e-06 7.04717e-06 -1.65255e-07)
(3.51759e-06 6.90664e-06 8.93148e-07)
(3.48568e-06 6.83746e-06 1.96436e-06)
(3.23284e-06 7.83006e-06 -2.38341e-06)
(3.1104e-06 7.52733e-06 -1.24584e-06)
(3.02382e-06 7.31149e-06 -1.65211e-07)
(2.96634e-06 7.16608e-06 8.94226e-07)
(2.93949e-06 7.09472e-06 1.96663e-06)
(2.6109e-06 8.06285e-06 -2.38563e-06)
(2.51194e-06 7.75155e-06 -1.24693e-06)
(2.4421e-06 7.52968e-06 -1.65364e-07)
(2.39575e-06 7.38029e-06 8.94987e-07)
(2.37403e-06 7.30723e-06 1.96842e-06)
(1.97205e-06 8.24513e-06 -2.38767e-06)
(1.89728e-06 7.92703e-06 -1.24812e-06)
(1.84464e-06 7.70041e-06 -1.6579e-07)
(1.80974e-06 7.54793e-06 8.95305e-07)
(1.79336e-06 7.47353e-06 1.96954e-06)
(1.32022e-06 8.37631e-06 -2.38958e-06)
(1.27045e-06 8.05318e-06 -1.24944e-06)
(1.23551e-06 7.82316e-06 -1.66555e-07)
(1.21237e-06 7.66842e-06 8.95119e-07)
(1.2016e-06 7.593e-06 1.96996e-06)
(6.58503e-07 8.45643e-06 -2.39145e-06)
(6.35764e-07 8.13033e-06 -1.25091e-06)
(6.18793e-07 7.89813e-06 -1.67695e-07)
(6.07472e-07 7.74183e-06 8.94378e-07)
(6.02574e-07 7.66535e-06 1.96976e-06)
(0 8.49412e-06 -2.42412e-06)
(0 8.1646e-06 -1.28307e-06)
(0 7.92964e-06 -2.0043e-07)
(0 7.77073e-06 8.60082e-07)
(0 7.69093e-06 1.93319e-06)
(6.10839e-06 0 -1.7453e-06)
(5.83702e-06 0 -9.65412e-07)
(5.6497e-06 0 -1.87677e-07)
(5.53485e-06 0 5.74514e-07)
(5.4911e-06 0 1.3089e-06)
(6.08008e-06 4.7318e-07 -1.72402e-06)
(5.81162e-06 4.54356e-07 -9.42947e-07)
(5.62695e-06 4.40746e-07 -1.64252e-07)
(5.51461e-06 4.32499e-07 5.98479e-07)
(5.47362e-06 4.29818e-07 1.33272e-06)
(6.02252e-06 9.49605e-07 -1.72314e-06)
(5.75657e-06 9.08323e-07 -9.42422e-07)
(5.57374e-06 8.80286e-07 -1.63984e-07)
(5.46264e-06 8.63481e-07 5.98463e-07)
(5.42233e-06 8.57698e-07 1.33241e-06)
(5.92866e-06 1.41887e-06 -1.72201e-06)
(5.66693e-06 1.3568e-06 -9.41698e-07)
(5.48685e-06 1.31454e-06 -1.63666e-07)
(5.37739e-06 1.28919e-06 5.98383e-07)
(5.33761e-06 1.28034e-06 1.33195e-06)
(5.79837e-06 1.87895e-06 -1.72071e-06)
(5.54234e-06 1.79677e-06 -9.40949e-07)
(5.36609e-06 1.7407e-06 -1.63442e-07)
(5.25887e-06 1.70703e-06 5.98095e-07)
(5.21977e-06 1.69527e-06 1.33116e-06)
(5.63202e-06 2.327e-06 -1.71927e-06)