/*--------------------------------*- C++ -*----------------------------------*\
| =========                 |                                                 |
| \\      /  F ield         | foam-extend: Open Source CFD                    |
|  \\    /   O peration     | Version:     3.1                                |
|   \\  /    A nd           | Web:         http://www.extend-project.de       |
|    \\/     M anipulation  |                                                 |
\*---------------------------------------------------------------------------*/
FoamFile
{
    version     2.0;
    format      ascii;
    class       volSymmTensorField;
    location    "0.0004";
    object      sigma;
}
// * * * * * * * * * * * * * * * * * * * * * * * * * * * * * * * * * * * * * //

dimensions      [1 -1 -2 0 0 0 0];

internalField   nonuniform List<symmTensor> 
6400
(
(307.53 -32.6768 1333.85 1036.82 39.878 2099.59)
(-51.5541 -23.2929 1444.58 471.484 49.1431 698.251)
(-301.156 -15.7985 1359.92 61.7825 46.1063 -333.272)
(-672.769 -8.3582 1096.25 -463.094 31.9724 -1659.77)
(311.27 -85.156 1327.57 1022.73 155.745 2075.84)
(-48.174 -61.0921 1434.62 461.179 168.903 682.936)
(-300.02 -42.319 1348.25 52.7499 159.004 -349.121)
(-676.703 -24.1059 1082.8 -474.507 127.934 -1685.86)
(328.219 -139.722 1310.86 1003.22 259.793 2073.99)
(-35.7137 -99.9768 1416.57 447.979 281.123 682.018)
(-291.245 -69.1878 1331.3 43.6657 264.528 -349.666)
(-671.243 -39.5934 1069.33 -479.554 212.802 -1685.85)
(353.86 -190.66 1286.22 976.58 361.794 2073.1)
(-17.2906 -136.525 1389.91 429.014 391.403 681.612)
(-278.369 -94.488 1306.2 30.6671 368.223 -349.648)
(-663.744 -54.0783 1049.14 -486.862 296.183 -1685.38)
(387.212 -236.935 1253.67 942.585 461.4 2072.48)
(6.72318 -169.727 1354.65 404.76 499.127 681.506)
(-261.605 -117.489 1273 14.0082 469.517 -349.313)
(-653.929 -67.2494 1022.42 -496.172 377.618 -1684.49)
(427.442 -277.434 1213.38 901.953 558.113 2072.01)
(35.7 -198.778 1310.99 375.738 603.693 681.563)
(-241.375 -137.609 1231.9 -5.95219 567.816 -348.79)
(-642.081 -78.7638 989.349 -507.34 456.617 -1683.34)
(473.576 -311.177 1165.56 855.619 651.41 2071.69)
(68.9201 -222.967 1259.2 342.615 704.496 681.739)
(-218.199 -154.345 1183.17 -28.7615 662.53 -348.161)
(-628.53 -88.327 950.176 -520.135 532.689 -1682.07)
(524.516 -337.335 1110.48 804.682 740.762 2071.58)
(105.575 -241.696 1199.63 306.171 800.952 682.014)
(-192.664 -167.283 1127.17 -53.8893 753.101 -347.506)
(-613.654 -95.7009 905.205 -534.28 605.373 -1680.83)
(579.068 -355.262 1048.47 750.363 825.631 2071.73)
(144.801 -254.496 1132.68 267.271 892.499 682.364)
(-165.413 -176.097 1064.31 -80.7504 839.009 -346.923)
(-597.869 -100.708 854.777 -549.472 674.255 -1679.82)
(636.356 -364.569 979.968 694.078 905.515 2072.2)
(185.643 -261.022 1058.83 226.831 978.612 682.68)
(-137.167 -180.563 995.024 -108.715 919.786 -346.555)
(-581.629 -103.234 799.255 -565.372 738.981 -1679.24)
(694.078 -364.569 905.515 636.356 979.968 2072.2)
(226.831 -261.022 978.612 185.643 1058.83 682.68)
(-108.715 -180.563 919.786 -137.167 995.024 -346.555)
(-565.372 -103.234 738.981 -581.629 799.255 -1679.24)
(750.363 -355.262 825.631 579.068 1048.47 2071.73)
(267.271 -254.496 892.499 144.801 1132.68 682.364)
(-80.7503 -176.097 839.009 -165.413 1064.31 -346.923)
(-549.472 -100.708 674.255 -597.869 854.777 -1679.82)
(804.682 -337.335 740.762 524.516 1110.48 2071.58)
(306.171 -241.696 800.952 105.575 1199.63 682.014)
(-53.8892 -167.283 753.101 -192.664 1127.17 -347.505)
(-534.28 -95.7009 605.372 -613.654 905.205 -1680.83)
(855.619 -311.177 651.41 473.576 1165.56 2071.69)
(342.615 -222.967 704.496 68.9202 1259.2 681.739)
(-28.7615 -154.345 662.53 -218.199 1183.17 -348.161)
(-520.135 -88.327 532.689 -628.53 950.176 -1682.07)
(901.953 -277.434 558.113 427.442 1213.38 2072.01)
(375.738 -198.778 603.692 35.7001 1310.99 681.563)
(-5.9521 -137.609 567.816 -241.375 1231.9 -348.79)
(-507.34 -78.7638 456.617 -642.081 989.349 -1683.34)
(942.585 -236.935 461.4 387.212 1253.67 2072.48)
(404.761 -169.727 499.127 6.72335 1354.65 681.506)
(14.0083 -117.489 469.517 -261.605 1273 -349.313)
(-496.172 -67.2494 377.617 -653.929 1022.42 -1684.48)
(976.58 -190.66 361.794 353.86 1286.22 2073.1)
(429.014 -136.524 391.403 -17.2904 1389.91 681.612)
(30.6672 -94.488 368.223 -278.368 1306.2 -349.647)
(-486.862 -54.0783 296.183 -663.743 1049.14 -1685.38)
(1003.22 -139.722 259.793 328.219 1310.86 2073.99)
(447.979 -99.9767 281.123 -35.7135 1416.57 682.018)
(43.6658 -69.1878 264.528 -291.245 1331.3 -349.665)
(-479.554 -39.5933 212.802 -671.243 1069.33 -1685.85)
(1022.73 -85.156 155.745 311.27 1327.57 2075.84)
(461.179 -61.092 168.903 -48.1738 1434.62 682.936)
(52.75 -42.319 159.004 -300.02 1348.25 -349.121)
(-474.507 -24.1059 127.934 -676.703 1082.8 -1685.86)
(1036.82 -32.6768 39.878 307.531 1333.85 2099.59)
(471.484 -23.2929 49.1431 -51.5538 1444.58 698.251)
(61.7826 -15.7985 46.1063 -301.156 1359.92 -333.272)
(-463.093 -8.3582 31.9724 -672.769 1096.25 -1659.77)
(-1045.45 -64.755 423.677 435.345 -2.44199 -426.856)
(-601.513 -53.9009 813.279 630.028 18.787 49.0549)
(-267.25 -43.0292 805.598 730.564 18.6593 263.668)
(84.912 -34.1793 429.569 899.88 -1.25983 640.135)
(-1019.1 -173.058 428.268 426.772 50.7172 -415.032)
(-581.491 -143.877 809.494 617.38 95.9711 52.1194)
(-250.719 -116.274 796.702 719.151 94.7739 265.757)
(100.031 -94.4237 416.195 890.821 50.3936 647.387)
(-984.053 -284.174 423.03 388.417 83.9366 -416.063)
(-551.554 -235.551 799.343 587.228 159.092 51.7362)
(-226.306 -190.488 786.622 694.891 156.931 265.453)
(120.12 -155.395 410.948 871.5 82.7001 647.35)
(-931.207 -387.842 415.08 335.113 116.474 -416.2)
(-507.755 -321.712 784.209 543.093 221.015 51.6262)
(-190.781 -260.222 771.683 659.334 217.93 265.476)
(149.042 -212.313 403.091 842.566 114.53 647.442)
(-862.846 -482.037 404.523 266.561 148.271 -416.271)
(-450.958 -399.979 764.156 486.183 281.514 51.6649)
(-144.788 -323.569 751.908 613.305 277.537 265.629)
(186.558 -263.982 392.695 805.034 145.675 647.685)
(-780.553 -564.49 391.391 184.392 179.206 -416.266)
(-382.572 -468.434 739.296 417.858 340.261 51.7915)
(-89.4221 -378.932 727.414 557.941 335.4 265.86)
(231.699 -309.094 379.835 759.791 175.914 647.994)
(-686.319 -633.201 375.729 90.5422 209.122 -416.191)
(-304.287 -525.393 709.793 339.779 396.901 51.9856)
(-26.0744 -424.928 698.383 494.622 391.146 266.139)
(283.315 -346.513 364.624 707.982 205.013 648.33)
(-582.44 -686.477 357.615 -12.7947 237.843 -416.063)
(-218.037 -569.454 675.875 253.838 451.093 52.2228)
(43.6689 -460.428 665.063 424.934 444.428 266.433)
(340.103 -375.326 347.222 650.95 232.762 648.657)
(-471.453 -722.999 337.183 -123.229 265.157 -415.93)
(-125.886 -599.53 637.832 162.102 502.518 52.4729)
(118.098 -484.576 627.754 350.607 494.946 266.698)
(400.662 -394.868 327.812 590.158 258.997 648.921)
(-355.167 -741.937 314.796 -237.847 290.809 -415.462)
(-30.0281 -614.84 596.054 66.7993 550.893 52.7093)
(195.361 -496.794 586.788 273.481 542.457 266.873)
(463.513 -404.725 306.57 527.165 283.616 649.07)
(-237.847 -741.937 290.809 -355.167 314.796 -415.462)
(66.7994 -614.84 550.893 -30.0282 596.054 52.7093)
(273.481 -496.794 542.457 195.361 586.788 266.873)
(527.165 -404.725 283.616 463.513 306.57 649.07)
(-123.229 -722.999 265.157 -471.452 337.182 -415.93)
(162.102 -599.53 502.518 -125.886 637.832 52.473)
(350.607 -484.576 494.946 118.098 627.754 266.698)
(590.158 -394.868 258.997 400.662 327.812 648.921)
(-12.7945 -686.477 237.843 -582.44 357.615 -416.063)
(253.838 -569.453 451.093 -218.037 675.874 52.2229)
(424.935 -460.428 444.428 43.6689 665.063 266.433)
(650.95 -375.326 232.762 340.103 347.222 648.657)
(90.5425 -633.201 209.122 -686.318 375.729 -416.19)
(339.779 -525.392 396.901 -304.287 709.793 51.9858)
(494.622 -424.928 391.146 -26.0743 698.383 266.139)
(707.982 -346.513 205.013 283.315 364.624 648.33)
(184.392 -564.49 179.206 -780.552 391.391 -416.266)
(417.858 -468.434 340.261 -382.571 739.296 51.7917)
(557.941 -378.931 335.4 -89.4219 727.414 265.861)
(759.791 -309.094 175.913 231.699 379.835 647.994)
(266.561 -482.037 148.271 -862.845 404.523 -416.271)
(486.183 -399.978 281.514 -450.957 764.156 51.6652)
(613.305 -323.568 277.537 -144.787 751.908 265.629)
(805.034 -263.981 145.674 186.558 392.695 647.685)
(335.114 -387.842 116.474 -931.207 415.08 -416.199)
(543.093 -321.712 221.015 -507.754 784.208 51.6264)
(659.334 -260.222 217.93 -190.78 771.683 265.476)
(842.566 -212.313 114.53 149.042 403.091 647.442)
(388.417 -284.174 83.9366 -984.052 423.029 -416.063)
(587.228 -235.551 159.092 -551.553 799.343 51.7364)
(694.891 -190.488 156.931 -226.306 786.622 265.453)
(871.5 -155.395 82.7 120.121 410.948 647.351)
(426.772 -173.058 50.7172 -1019.1 428.268 -415.031)
(617.38 -143.877 95.9711 -581.49 809.493 52.1197)
(719.151 -116.274 94.7739 -250.718 796.701 265.758)
(890.82 -94.4237 50.3936 100.031 416.195 647.387)
(435.345 -64.755 -2.44198 -1045.45 423.677 -426.855)
(630.028 -53.9009 18.787 -601.513 813.278 49.0553)
(730.564 -43.0291 18.6593 -267.25 805.597 263.669)
(899.88 -34.1793 -1.25984 84.9121 429.569 640.136)
(-847.981 -62.7776 48.3759 638.438 -7.07843 -1072.62)
(-549.858 -61.7653 141.199 892.102 -2.46705 -229.927)
(-219.73 -57.7813 143.515 1130.31 -2.49169 502.872)
(56.4359 -56.6535 52.5519 1383.96 -7.28763 1315.52)
(-828.455 -173.813 49.0847 623.783 5.4167 -1059.15)
(-529.424 -168.516 140.488 874.72 16.2316 -219.557)
(-201.078 -157.441 141.132 1112.23 16.4714 512.762)
(70.9471 -154.228 49.4422 1361.98 5.97554 1326.35)
(-793.444 -285.667 48.4191 585.899 9.17535 -1059.08)
(-494.246 -276.15 138.659 839.896 27.3792 -218.607)
(-167.982 -258.238 139.256 1079.87 27.7633 513.708)
(103.378 -254.029 48.7969 1331 10.0993 1327.26)
(-740.136 -390.023 47.4753 532.631 12.7314 -1058.63)
(-442.711 -377.272 135.91 788.393 38.0824 -218.319)
(-119.697 -352.867 136.475 1031.84 38.6058 513.902)
(150.731 -347.131 47.7436 1283.86 13.9924 1327.24)
(-671.127 -484.854 46.1797 463.95 16.1398 -1058.22)
(-375.888 -469.106 132.227 721.762 48.4312 -218.141)
(-57.2213 -438.771 132.75 969.42 49.0854 513.861)
(212.081 -431.575 46.3167 1222.43 17.7211 1326.94)
(-587.994 -567.868 44.5024 381.621 19.4446 -1057.7)
(-295.438 -549.371 127.61 641.687 58.4111 -217.952)
(17.9413 -513.77 128.099 894.235 59.1737 513.745)
(285.844 -505.23 44.5375 1148.27 21.2713 1326.48)
(-492.757 -637.045 42.4253 287.645 22.6632 -1057.07)
(-203.387 -616.069 122.102 550.209 67.9716 -217.718)
(103.867 -575.977 122.587 808.258 68.8015 513.61)
(370.121 -566.239 42.4583 1063.35 24.5901 1325.95)
(-387.784 -690.67 39.954 184.229 25.7853 -1056.4)
(-102.084 -667.562 115.791 449.624 77.0588 -217.456)
(198.347 -623.877 116.324 713.741 77.9069 513.489)
(462.764 -613.136 40.1659 969.953 27.6308 1325.41)
(-275.741 -727.406 37.15 73.7214 28.7664 -1055.82)
(5.94192 -702.622 108.826 342.395 85.6372 -217.193)
(299.011 -656.373 109.463 613.106 86.467 513.41)
(561.48 -644.884 37.7678 870.548 30.3885 1324.96)
(-158.82 -746.38 34.2737 -41.156 31.5419 -1055.16)
(118.018 -720.411 101.425 231.08 93.7209 -216.96)
(403.36 -672.776 102.167 508.851 94.5212 513.387)
(663.906 -660.876 35.3522 767.704 32.9239 1324.71)
(-41.1558 -746.379 31.5419 -158.82 34.2736 -1055.16)
(231.08 -720.411 93.7209 118.018 101.425 -216.96)
(508.852 -672.776 94.5212 403.36 102.168 513.387)
(767.704 -660.876 32.9238 663.906 35.3522 1324.71)
(73.7218 -727.406 28.7664 -275.74 37.1499 -1055.82)
(342.395 -702.621 85.6372 5.94201 108.826 -217.193)
(613.106 -656.373 86.4669 299.011 109.463 513.41)
(870.548 -644.884 30.3884 561.48 37.7678 1324.96)
(184.23 -690.67 25.7853 -387.783 39.9539 -1056.4)
(449.624 -667.562 77.0588 -102.083 115.79 -217.456)
(713.742 -623.877 77.9068 198.347 116.324 513.489)
(969.953 -613.136 27.6307 462.764 40.1659 1325.41)
(287.646 -637.044 22.6632 -492.756 42.4252 -1057.07)
(550.21 -616.069 67.9715 -203.386 122.102 -217.718)
(808.259 -575.977 68.8014 103.867 122.587 513.61)
(1063.35 -566.239 24.59 370.121 42.4582 1325.95)
(381.622 -567.868 19.4446 -587.993 44.5023 -1057.7)
(641.688 -549.371 58.4111 -295.437 127.61 -217.952)
(894.235 -513.77 59.1736 17.9416 128.099 513.745)
(1148.27 -505.23 21.2712 285.844 44.5375 1326.48)
(463.95 -484.854 16.1398 -671.126 46.1795 -1058.22)
(721.762 -469.106 48.4312 -375.887 132.227 -218.141)
(969.42 -438.771 49.0853 -57.2208 132.75 513.861)
(1222.43 -431.575 17.721 212.081 46.3166 1326.94)
(532.631 -390.022 12.7314 -740.135 47.4752 -1058.63)
(788.393 -377.272 38.0824 -442.71 135.91 -218.318)
(1031.84 -352.866 38.6057 -119.697 136.475 513.903)
(1283.86 -347.131 13.9923 150.731 47.7435 1327.24)
(585.899 -285.667 9.17535 -793.442 48.419 -1059.08)
(839.896 -276.15 27.3791 -494.244 138.659 -218.607)
(1079.87 -258.238 27.7632 -167.982 139.256 513.708)
(1331 -254.029 10.0993 103.378 48.7968 1327.26)
(623.783 -173.813 5.4167 -828.453 49.0845 -1059.15)
(874.721 -168.516 16.2316 -529.423 140.488 -219.557)
(1112.23 -157.441 16.4714 -201.078 141.132 512.762)
(1361.98 -154.228 5.97549 70.9472 49.4421 1326.35)
(638.438 -62.7775 -7.07842 -847.979 48.3757 -1072.62)
(892.102 -61.7652 -2.46705 -549.856 141.199 -229.926)
(1130.31 -57.7812 -2.4917 -219.73 143.514 502.872)
(1383.96 -56.6535 -7.28764 56.4361 52.5517 1315.52)
(-583.372 -58.2757 -168.016 813.62 -3.88217 -876.077)
(-388.333 -58.6165 -234.789 994.594 -7.93996 -187.329)
(-178.951 -57.5936 -227.634 1171.56 -7.86695 456.605)
(0.169449 -57.619 -152.84 1353.71 -4.0384 1130.01)
(-565.871 -163.296 -168.377 798.758 -20.1293 -865.669)
(-370.784 -161.712 -233.618 977.219 -27.8759 -178.452)
(-162.537 -157.741 -225.536 1152.75 -26.9349 465.035)
(14.0675 -157.264 -149.959 1330.54 -18.0379 1137.85)
(-532.95 -268.418 -166.335 763.259 -33.3898 -865.468)
(-337.442 -265.17 -230.771 943.476 -46.1341 -177.683)
(-129.852 -258.7 -222.734 1120.01 -44.4913 465.751)
(47.1167 -259.017 -148.117 1298.78 -29.6103 1138.69)
(-482.805 -366.559 -163.25 713.117 -46.3661 -864.841)
(-287.914 -362.344 -226.518 893.881 -64.0673 -177.319)
(-81.4673 -353.542 -218.621 1071.73 -61.7409 465.922)
(95.389 -353.975 -145.383 1250.58 -40.9938 1138.55)
(-417.717 -455.738 -159.199 648.583 -59.0695 -864.161)
(-223.546 -450.582 -220.92 829.788 -81.6348 -177.072)
(-18.7595 -439.623 -213.223 1009.03 -78.6471 465.775)
(157.97 -440.069 -141.807 1187.75 -52.1474 1137.96)
(-339.196 -533.788 -154.231 571.363 -71.4384 -863.284)
(-145.994 -527.651 -214.037 752.831 -98.7526 -176.825)
(56.6923 -514.711 -206.581 933.523 -95.1283 465.465)
(233.186 -515.09 -137.405 1111.87 -63.0275 1137.04)
(-249.173 -598.796 -148.391 483.365 -83.3937 -862.215)
(-57.2654 -591.602 -205.907 665.016 -115.328 -176.537)
(142.902 -576.888 -198.719 847.243 -111.102 465.079)
(319.058 -577.129 -132.181 1025 -73.5942 1135.93)
(-149.945 -649.145 -141.713 386.656 -94.865 -861.069)
(40.29 -640.862 -196.545 568.605 -131.269 -176.217)
(237.585 -624.647 -189.641 752.518 -126.481 464.695)
(413.355 -624.704 -126.124 929.525 -83.8045 1134.78)
(-44.1543 -683.569 -134.2 283.393 -105.804 -860.044)
(144.107 -674.291 -185.933 465.994 -146.472 -175.903)
(338.286 -656.944 -179.328 651.847 -141.159 464.392)
(513.724 -656.819 -119.211 828.08 -93.5932 1133.81)
(65.7379 -701.248 -125.714 175.931 -116.165 -859.194)
(251.488 -691.187 -174.01 359.584 -160.793 -175.653)
(442.483 -673.196 -167.758 547.74 -154.982 464.237)
(617.806 -672.954 -111.435 723.34 -102.852 1133.25)
(175.931 -701.248 -116.165 65.7379 -125.714 -859.194)
(359.585 -691.187 -160.793 251.488 -174.01 -175.652)
(547.74 -673.196 -154.982 442.483 -167.758 464.238)
(723.34 -672.954 -102.852 617.806 -111.435 1133.25)
(283.394 -683.569 -105.804 -44.154 -134.201 -860.044)
(465.995 -674.29 -146.472 144.108 -185.933 -175.903)
(651.847 -656.943 -141.159 338.286 -179.328 464.392)
(828.08 -656.819 -93.5933 513.724 -119.211 1133.81)
(386.657 -649.144 -94.865 -149.945 -141.713 -861.068)
(568.606 -640.861 -131.269 40.2904 -196.545 -176.217)
(752.518 -624.647 -126.481 237.585 -189.641 464.695)
(929.525 -624.703 -83.8046 413.355 -126.124 1134.78)
(483.365 -598.795 -83.3937 -249.171 -148.391 -862.215)
(665.016 -591.601 -115.328 -57.2647 -205.907 -176.536)
(847.243 -576.888 -111.102 142.902 -198.719 465.079)
(1025 -577.129 -73.5943 319.058 -132.181 1135.93)
(571.364 -533.787 -71.4384 -339.194 -154.231 -863.283)
(752.831 -527.65 -98.7526 -145.993 -214.037 -176.825)
(933.523 -514.71 -95.1284 56.6928 -206.581 465.465)
(1111.87 -515.09 -63.0276 233.186 -137.405 1137.04)
(648.583 -455.738 -59.0695 -417.715 -159.199 -864.16)
(829.789 -450.582 -81.6348 -223.545 -220.92 -177.071)
(1009.03 -439.623 -78.6472 -18.7589 -213.223 465.775)
(1187.75 -440.069 -52.1475 157.97 -141.807 1137.96)
(713.117 -366.558 -46.3661 -482.803 -163.25 -864.84)
(893.881 -362.343 -64.0674 -287.913 -226.518 -177.318)
(1071.73 -353.541 -61.7409 -81.4666 -218.621 465.922)
(1250.58 -353.975 -40.9939 95.3892 -145.383 1138.55)
(763.26 -268.417 -33.3898 -532.948 -166.335 -865.467)
(943.476 -265.169 -46.1342 -337.441 -230.772 -177.682)
(1120.01 -258.7 -44.4914 -129.851 -222.735 465.751)
(1298.78 -259.017 -29.6103 47.1169 -148.117 1138.69)
(798.759 -163.295 -20.1293 -565.868 -168.377 -865.668)
(977.219 -161.712 -27.8759 -370.782 -233.619 -178.451)
(1152.75 -157.74 -26.9349 -162.536 -225.536 465.035)
(1330.53 -157.264 -18.0379 14.0678 -149.959 1137.85)
(813.621 -58.2755 -3.88216 -583.369 -168.016 -876.076)
(994.594 -58.6164 -7.93996 -388.331 -234.789 -187.329)
(1171.56 -57.5936 -7.86696 -178.95 -227.634 456.606)
(1353.71 -57.6189 -4.0384 0.169738 -152.84 1130.01)
(-347.017 -50.7359 -198.351 867.527 2.41495 -338.049)
(-241.91 -49.2072 -309.94 921.428 -4.00838 -24.6626)
(-137.652 -47.598 -301.948 982.23 -3.91457 293.347)
(-45.0008 -45.9713 -181.751 1043.09 2.21099 603.59)
(-331.274 -141.928 -198.822 855.501 -23.2671 -332.937)
(-227.577 -136.126 -308.059 907.282 -36.2747 -20.3219)
(-124.473 -130.922 -298.416 967.041 -35.2888 297.184)
(-33.2657 -126.444 -177.106 1025.01 -21.2411 606.111)
(-302.655 -233.313 -196.368 824.476 -38.8653 -333.194)
(-199.696 -223.186 -304.214 878.728 -60.4552 -20.1678)
(-97.5179 -214.628 -294.641 939.703 -58.7276 297.295)
(-6.62491 -208.128 -174.91 999.353 -35.1357 606.458)
(-259.098 -318.634 -192.695 780.684 -54.0332 -332.829)
(-158.034 -304.992 -298.475 836.817 -84.0644 -20.0245)
(-57.3792 -293.333 -289.058 899.504 -81.6091 297.292)
(32.1776 -284.446 -171.57 960.533 -48.7109 606.238)
(-202.445 -396.163 -187.851 724.449 -68.8204 -332.283)
(-103.766 -379.29 -290.887 782.725 -107.083 -19.8603)
(-5.27577 -364.778 -281.678 847.334 -103.916 297.111)
(82.5026 -353.633 -167.162 909.915 -61.9297 605.687)
(-134.01 -464.006 -181.863 657.298 -83.2062 -331.479)
(-38.3127 -444.164 -281.508 717.851 -129.432 -19.6513)
(57.4485 -427.065 -272.561 784.539 -125.56 296.8)
(142.98 -413.87 -161.729 848.755 -74.7409 604.823)
(-55.4842 -520.499 -174.761 580.907 -97.139 -330.439)
(36.5967 -497.946 -270.404 643.913 -151.01 -19.3819)
(129.102 -478.576 -261.775 712.824 -146.436 296.411)
(211.98 -463.597 -155.311 778.719 -87.0832 603.736)
(31.0985 -564.228 -166.582 497.065 -110.56 -329.278)
(118.922 -539.305 -257.644 562.843 -171.71 -19.069)
(207.73 -518.057 -249.393 634.176 -166.437 296.014)
(287.67 -501.63 -147.955 701.802 -98.898 602.588)
(123.368 -594.084 -157.359 407.613 -123.416 -328.203)
(206.409 -567.299 -243.293 476.674 -191.43 -18.7552)
(291.233 -544.678 -235.485 550.72 -185.464 295.694)
(368.137 -527.219 -139.705 620.191 -110.131 601.602)
(218.906 -609.346 -147.044 314.468 -135.648 -327.379)
(296.685 -581.403 -227.399 387.395 -210.052 -18.5166)
(377.49 -558.034 -220.122 464.552 -203.404 295.525)
(451.519 -540.037 -130.608 536.102 -120.725 601.022)
(314.468 -609.346 -135.648 218.906 -147.044 -327.379)
(387.395 -581.403 -210.052 296.684 -227.399 -18.5165)
(464.552 -558.034 -203.404 377.489 -220.122 295.525)
(536.102 -540.037 -120.725 451.519 -130.608 601.022)
(407.614 -594.084 -123.416 123.368 -157.359 -328.202)
(476.675 -567.299 -191.43 206.409 -243.294 -18.755)
(550.721 -544.678 -185.464 291.233 -235.485 295.694)
(620.191 -527.219 -110.131 368.137 -139.705 601.602)
(497.066 -564.227 -110.56 31.0995 -166.583 -329.278)
(562.843 -539.304 -171.71 118.922 -257.644 -19.0686)
(634.176 -518.057 -166.438 207.73 -249.393 296.014)
(701.802 -501.629 -98.8981 287.67 -147.955 602.588)
(580.908 -520.498 -97.1389 -55.4827 -174.761 -330.438)
(643.913 -497.946 -151.01 36.5975 -270.404 -19.3815)
(712.824 -478.576 -146.436 129.102 -261.775 296.411)
(778.719 -463.596 -87.0833 211.98 -155.311 603.736)
(657.299 -464.005 -83.2062 -134.008 -181.863 -331.478)
(717.852 -444.163 -129.432 -38.3115 -281.508 -19.6508)
(784.539 -427.065 -125.56 57.4491 -272.561 296.8)
(848.755 -413.87 -74.741 142.98 -161.729 604.823)
(724.449 -396.162 -68.8204 -202.443 -187.852 -332.282)
(782.726 -379.29 -107.083 -103.765 -290.887 -19.8597)
(847.334 -364.777 -103.916 -5.27499 -281.678 297.112)
(909.915 -353.633 -61.9297 82.5028 -167.163 605.687)
(780.684 -318.634 -54.0332 -259.096 -192.695 -332.828)
(836.817 -304.991 -84.0644 -158.033 -298.476 -20.0239)
(899.504 -293.332 -81.6091 -57.3783 -289.058 297.292)
(960.533 -284.446 -48.711 32.1778 -171.57 606.238)
(824.477 -233.313 -38.8653 -302.652 -196.369 -333.193)
(878.729 -223.185 -60.4553 -199.694 -304.214 -20.1672)
(939.703 -214.628 -58.7276 -97.5169 -294.641 297.296)
(999.352 -208.128 -35.1357 -6.62461 -174.91 606.457)
(855.501 -141.928 -23.2671 -331.271 -198.822 -332.936)
(907.283 -136.126 -36.2748 -227.575 -308.059 -20.3212)
(967.041 -130.922 -35.2888 -124.472 -298.416 297.185)
(1025.01 -126.444 -21.2411 -33.2653 -177.106 606.111)
(867.527 -50.7358 2.41496 -347.014 -198.352 -338.048)
(921.428 -49.2071 -4.00839 -241.907 -309.94 -24.6619)
(982.23 -47.5979 -3.91458 -137.65 -301.948 293.347)
(1043.09 -45.9713 2.21098 -45.0004 -181.751 603.59)
(-195.818 -41.6604 -125.587 793.517 7.31841 118.184)
(-142.704 -37.9624 -211.18 752.559 2.37798 116.378)
(-100.101 -34.8829 -206.096 723.192 2.37659 140.624)
(-58.4551 -31.4352 -115.531 693.98 6.922 144.22)
(-181.987 -115.555 -125.738 785.256 -14.2626 119.244)
(-131.324 -104.78 -209.54 742.506 -24.343 116.832)
(-90.0384 -96.2911 -203.17 712.766 -23.8141 140.587)
(-49.3004 -87.4701 -111.837 682.465 -13.3758 142.908)
(-158.697 -189.99 -124.203 759.804 -24.0526 118.513)
(-109.902 -171.716 -206.898 720.529 -40.7953 116.521)
(-70.2284 -157.743 -200.573 692.666 -39.8454 140.301)
(-30.7805 -143.81 -110.44 664.664 -22.2668 142.889)
(-123.324 -259.47 -121.896 723.957 -33.5349 118.444)
(-77.9223 -234.664 -202.947 688.195 -56.8261 116.397)
(-40.757 -215.592 -196.706 663.091 -55.4597 140.171)
(-3.95177 -196.551 -108.263 637.864 -30.9409 142.723)
(-77.2787 -322.603 -118.838 677.979 -42.7519 118.59)
(-36.1985 -291.864 -197.693 646.476 -72.4088 116.399)
(-2.44678 -268.141 -191.558 624.697 -70.6294 140.032)
(30.8599 -244.388 -105.363 602.889 -39.3483 142.447)
(-21.6162 -377.856 -115.025 623.141 -51.7237 118.974)
(14.1805 -341.824 -191.17 596.466 -87.4995 116.488)
(43.7129 -313.963 -185.176 578.475 -85.2912 139.85)
(72.7058 -286.021 -101.783 560.576 -47.4387 141.996)
(42.2982 -423.878 -110.461 560.817 -60.4508 119.578)
(71.8799 -383.247 -183.429 539.496 -102.04 116.654)
(96.4619 -351.841 -177.629 525.684 -99.3719 139.629)
(120.436 -320.347 -97.5785 512.081 -55.1588 141.388)
(112.816 -459.512 -105.158 492.458 -68.9207 120.322)
(135.314 -415.096 -174.543 477.06 -115.975 116.876)
(154.335 -380.844 -169.003 467.806 -112.809 139.402)
(172.753 -346.544 -92.8157 458.817 -62.4679 140.709)
(188.006 -483.842 -99.1388 419.554 -77.1125 121.059)
(202.715 -436.638 -164.595 410.727 -129.259 117.114)
(215.755 -400.369 -159.396 406.43 -125.561 139.218)
(228.318 -364.119 -87.5661 402.345 -69.3504 140.103)
(265.802 -496.251 -92.3992 343.628 -84.9901 121.634)
(272.215 -447.478 -153.666 342.019 -141.85 117.296)
(279.148 -410.15 -148.901 343.106 -137.602 139.122)
(285.855 -372.898 -81.8889 344.236 -75.8172 139.738)
(343.629 -496.251 -84.99 265.802 -92.3993 121.634)
(342.019 -447.478 -141.85 272.215 -153.666 117.296)
(343.107 -410.15 -137.602 279.148 -148.901 139.122)
(344.236 -372.898 -75.8172 285.855 -81.8888 139.738)
(419.554 -483.841 -77.1125 188.006 -99.1389 121.059)
(410.728 -436.637 -129.259 202.715 -164.595 117.114)
(406.431 -400.369 -125.561 215.755 -159.396 139.218)
(402.345 -364.119 -69.3504 228.318 -87.5661 140.103)
(492.459 -459.512 -68.9207 112.818 -105.158 120.323)
(477.061 -415.095 -115.975 135.314 -174.543 116.876)
(467.807 -380.844 -112.809 154.335 -169.003 139.402)
(458.817 -346.544 -62.468 172.753 -92.8157 140.709)
(560.818 -423.877 -60.4507 42.3 -110.461 119.579)
(539.497 -383.247 -102.04 71.8809 -183.429 116.655)
(525.685 -351.841 -99.372 96.4624 -177.629 139.63)
(512.081 -320.347 -55.1588 120.436 -97.5785 141.388)
(623.142 -377.855 -51.7236 -21.6139 -115.025 118.975)
(596.466 -341.823 -87.4996 14.1819 -191.17 116.489)
(578.475 -313.962 -85.2913 43.7136 -185.176 139.851)
(560.576 -286.021 -47.4388 72.7059 -101.783 141.996)
(677.98 -322.602 -42.7519 -77.2759 -118.838 118.591)
(646.476 -291.863 -72.4089 -36.1967 -197.693 116.4)
(624.698 -268.141 -70.6295 -2.44586 -191.558 140.032)
(602.889 -244.387 -39.3484 30.8601 -105.363 142.447)
(723.958 -259.469 -33.5349 -123.321 -121.896 118.446)
(688.195 -234.664 -56.8262 -77.9203 -202.947 116.398)
(663.091 -215.592 -55.4598 -40.7559 -196.706 140.171)
(637.864 -196.551 -30.941 -3.95148 -108.263 142.723)
(759.804 -189.989 -24.0526 -158.694 -124.203 118.514)
(720.529 -171.716 -40.7953 -109.9 -206.898 116.521)
(692.666 -157.742 -39.8454 -70.2272 -200.573 140.301)
(664.663 -143.81 -22.2668 -30.7801 -110.44 142.889)
(785.257 -115.555 -14.2626 -181.984 -125.738 119.246)
(742.506 -104.779 -24.343 -131.322 -209.54 116.833)
(712.766 -96.2909 -23.8142 -90.037 -203.17 140.588)
(682.464 -87.4699 -13.3758 -49.3 -111.837 142.907)
(793.518 -41.6602 7.31841 -195.814 -125.587 118.185)
(752.559 -37.9623 2.37798 -142.701 -211.181 116.378)
(723.192 -34.8828 2.37659 -100.1 -206.096 140.625)
(693.979 -31.4352 6.92199 -58.4547 -115.531 144.22)
(-127.46 -32.8706 -41.7351 645.507 9.0149 333.468)
(-92.5365 -28.1347 -80.9428 567.515 6.6566 180.387)
(-71.1877 -24.1406 -79.1776 499.944 6.56296 51.4681)
(-47.9481 -19.8945 -38.5133 434.659 8.5141 -93.9337)
(-115.777 -90.2358 -41.5114 640.343 -4.22586 332.744)
(-83.547 -77.2261 -79.8723 560.833 -8.97114 178.945)
(-63.5706 -66.7887 -77.5077 493.39 -8.91187 49.6049)
(-41.0758 -56.133 -36.561 428.22 -4.36744 -96.645)
(-97.6025 -148.385 -41.0541 620.346 -7.35589 331.822)
(-67.7208 -126.484 -78.8681 544.714 -15.2076 178.491)
(-49.7737 -109.316 -76.509 479.536 -15.061 49.2435)
(-29.1187 -92.1401 -36.1026 416.798 -7.36064 -96.7669)
(-70.0737 -202.649 -40.3449 592.248 -10.372 331.442)
(-44.2527 -172.855 -77.3574 520.893 -21.2873 178.216)
(-29.3953 -149.404 -75.0023 459.097 -21.0491 49.0921)
(-11.9197 -125.936 -35.3399 399.727 -10.2978 -96.8059)
(-34.2622 -251.958 -39.3833 556.195 -13.2948 331.218)
(-13.6163 -215.021 -75.3143 490.127 -27.1757 178.085)
(-2.8786 -185.865 -72.959 432.525 -26.8411 49.0269)
(10.4084 -156.633 -34.2964 377.416 -13.127 -96.7885)
(9.02937 -295.126 -38.1497 513.187 -16.1603 331.163)
(23.4081 -251.887 -72.7433 453.228 -32.8575 178.05)
(29.1087 -217.692 -70.4005 400.5 -32.3989 48.9908)
(37.2708 -183.367 -33.0009 350.363 -15.8022 -96.8056)
(58.7566 -331.104 -36.6244 464.302 -19.0014 331.274)
(65.855 -282.491 -69.668 411.17 -38.3185 178.095)
(65.6981 -244.028 -67.3704 363.887 -37.6876 48.9578)
(67.924 -205.408 -31.4981 319.3 -18.2832 -96.8925)
(113.663 -358.989 -34.7938 410.675 -21.8391 331.517)
(112.573 -306.054 -66.1317 365.046 -43.5508 178.199)
(105.873 -264.208 -63.9326 323.709 -42.6881 48.9241)
(101.523 -222.218 -29.848 285.138 -20.5487 -97.0402)
(172.274 -378.047 -32.6583 353.478 -24.6786 331.818)
(162.273 -322.016 -62.193 316.009 -48.5578 178.331)
(148.537 -277.804 -60.1627 281.07 -47.4074 48.8984)
(137.197 -233.483 -28.1125 248.895 -22.6099 -97.2031)
(233.01 -387.77 -30.2133 293.926 -27.5049 332.096)
(213.589 -330.06 -57.9124 265.193 -53.35 178.44)
(192.592 -284.617 -56.13 237.054 -51.8774 48.8887)
(174.128 -239.103 -26.3346 211.598 -24.5159 -97.3124)
(293.927 -387.77 -27.5048 233.01 -30.2134 332.096)
(265.194 -330.06 -53.35 213.588 -57.9125 178.44)
(237.055 -284.617 -51.8774 192.592 -56.1299 48.8887)
(211.598 -239.103 -24.5159 174.128 -26.3346 -97.3124)
(353.479 -378.046 -24.6786 172.275 -32.6584 331.818)
(316.01 -322.016 -48.5578 162.273 -62.193 178.332)
(281.071 -277.803 -47.4074 148.537 -60.1627 48.8985)
(248.895 -233.483 -22.61 137.197 -28.1125 -97.2031)
(410.676 -358.988 -21.839 113.664 -34.7939 331.518)
(365.047 -306.053 -43.5508 112.574 -66.1317 178.199)
(323.709 -264.208 -42.6882 105.873 -63.9326 48.9243)
(285.138 -222.218 -20.5488 101.523 -29.848 -97.0403)
(464.303 -331.103 -19.0013 58.7587 -36.6245 331.275)
(411.171 -282.49 -38.3185 65.8562 -69.6681 178.096)
(363.888 -244.027 -37.6877 65.6986 -67.3704 48.958)
(319.3 -205.408 -18.2833 67.924 -31.4982 -96.8926)
(513.188 -295.125 -16.1603 9.03203 -38.1498 331.164)
(453.229 -251.886 -32.8576 23.4097 -72.7434 178.051)
(400.5 -217.692 -32.399 29.1095 -70.4006 48.9911)
(350.363 -183.367 -15.8022 37.271 -33.0009 -96.8057)
(556.196 -251.957 -13.2948 -34.259 -39.3834 331.219)
(490.128 -215.021 -27.1757 -13.6143 -75.3144 178.086)
(432.525 -185.864 -26.8412 -2.87754 -72.9591 49.0272)
(377.415 -156.633 -13.1271 10.4086 -34.2964 -96.7885)
(592.249 -202.648 -10.372 -70.0701 -40.3451 331.443)
(520.894 -172.854 -21.2873 -44.2504 -77.3575 178.217)
(459.096 -149.403 -21.0491 -29.394 -75.0025 49.0925)
(399.727 -125.936 -10.2978 -11.9194 -35.34 -96.806)
(620.347 -148.384 -7.35589 -97.5985 -41.0542 331.823)
(544.714 -126.484 -15.2077 -67.7182 -78.8682 178.492)
(479.536 -109.315 -15.0611 -49.7723 -76.5091 49.2438)
(416.797 -92.1398 -7.36068 -29.1183 -36.1027 -96.767)
(640.344 -90.2354 -4.22587 -115.773 -41.5115 332.745)
(560.833 -77.2257 -8.97117 -83.5442 -79.8724 178.946)
(493.39 -66.7884 -8.9119 -63.569 -77.5078 49.6052)
(428.219 -56.1328 -4.36747 -41.0753 -36.5611 -96.6451)