/*--------------------------------*- C++ -*----------------------------------*\
| =========                 |                                                 |
| \\      /  F ield         | foam-extend: Open Source CFD                    |
|  \\    /   O peration     | Version:     3.1                                |
|   \\  /    A nd           | Web:         http://www.extend-project.de       |
|    \\/     M anipulation  |                                                 |
\*---------------------------------------------------------------------------*/
FoamFile
{
    version     2.0;
    format      ascii;
    class       volVectorField;
    location    "0.6";
    object      cellMotionU;
}
// * * * * * * * * * * * * * * * * * * * * * * * * * * * * * * * * * * * * * //

dimensions      [0 1 -1 0 0 0 0];

internalField   nonuniform List<vector> 
14592
(
(-1.52034e-10 -5.22305e-10 1.74051e-10)
(-4.44917e-10 -1.53193e-09 5.14622e-10)
(-7.24985e-10 -2.50706e-09 8.55555e-10)
(-1.00893e-09 -3.51004e-09 1.22462e-09)
(-1.31299e-09 -4.60183e-09 1.64923e-09)
(-1.65414e-09 -5.84793e-09 2.15909e-09)
(-2.05093e-09 -7.32549e-09 2.78896e-09)
(-2.52397e-09 -9.13114e-09 3.58231e-09)
(-3.09534e-09 -1.13913e-08 4.59644e-09)
(-3.78559e-09 -1.42722e-08 5.91055e-09)
(-4.60526e-09 -1.79877e-08 7.64013e-09)
(-5.53407e-09 -2.27928e-08 9.96367e-09)
(-6.47536e-09 -2.89323e-08 1.31738e-08)
(-7.16707e-09 -3.64622e-08 1.77619e-08)
(-7.07037e-09 -4.47006e-08 2.44156e-08)
(-5.6781e-09 -5.07827e-08 3.25875e-08)
(-4.48093e-10 -1.53694e-09 5.14594e-10)
(-1.31105e-09 -4.5072e-09 1.52139e-09)
(-2.13536e-09 -7.37369e-09 2.52853e-09)
(-2.9693e-09 -1.03168e-08 3.6171e-09)
(-3.85981e-09 -1.35115e-08 4.86682e-09)
(-4.85567e-09 -1.71445e-08 6.36324e-09)
(-6.01024e-09 -2.14331e-08 8.20555e-09)
(-7.3829e-09 -2.66477e-08 1.05163e-08)
(-9.03823e-09 -3.31395e-08 1.34536e-08)
(-1.10393e-08 -4.13687e-08 1.72308e-08)
(-1.34283e-08 -5.19302e-08 2.21457e-08)
(-1.61803e-08 -6.55422e-08 2.8627e-08)
(-1.91012e-08 -8.29371e-08 3.72981e-08)
(-2.16353e-08 -1.0447e-07 4.8997e-08)
(-2.26236e-08 -1.28919e-07 6.43326e-08)
(-2.08344e-08 -1.49436e-07 8.02768e-08)
(-7.24697e-10 -2.47732e-09 8.37666e-10)
(-2.11905e-09 -7.26163e-09 2.47545e-09)
(-3.44704e-09 -1.18681e-08 4.11025e-09)
(-4.78445e-09 -1.65796e-08 5.87152e-09)
(-6.20436e-09 -2.16663e-08 7.88493e-09)
(-7.7821e-09 -2.74105e-08 1.02833e-08)
(-9.59953e-09 -3.41333e-08 1.32176e-08)
(-1.1748e-08 -4.22274e-08 1.68696e-08)
(-1.43279e-08 -5.21915e-08 2.14655e-08)
(-1.74435e-08 -6.46732e-08 2.72949e-08)
(-2.11846e-08 -8.04994e-08 3.47316e-08)
(-2.55852e-08 -1.00674e-07 4.42511e-08)
(-3.05405e-08 -1.2625e-07 5.64062e-08)
(-3.5663e-08 -1.57866e-07 7.16207e-08)
(-4.00817e-08 -1.94254e-07 8.92877e-08)
(-4.22934e-08 -2.26269e-07 1.04387e-07)
(-9.71041e-10 -3.3014e-09 1.13361e-09)
(-2.83676e-09 -9.67086e-09 3.34777e-09)
(-4.60604e-09 -1.57838e-08 5.55125e-09)
(-6.37586e-09 -2.20025e-08 7.91418e-09)
(-8.23868e-09 -2.86653e-08 1.05994e-08)
(-1.02886e-08 -3.61147e-08 1.37752e-08)
(-1.26268e-08 -4.47272e-08 1.76283e-08)
(-1.53652e-08 -5.49455e-08 2.23747e-08)
(-1.8628e-08 -6.7314e-08 2.82714e-08)
(-2.25489e-08 -8.25157e-08 3.56252e-08)
(-2.72617e-08 -1.01403e-07 4.47939e-08)
(-3.28805e-08 -1.24987e-07 5.6161e-08)
(-3.94704e-08 -1.5431e-07 7.00384e-08)
(-4.70183e-08 -1.89966e-07 8.63689e-08)
(-5.53315e-08 -2.30443e-07 1.03894e-07)
(-6.28423e-08 -2.65529e-07 1.17726e-07)
(-1.17913e-09 -3.97648e-09 1.3951e-09)
(-3.44068e-09 -1.16393e-08 4.11696e-09)
(-5.57338e-09 -1.89653e-08 6.81545e-09)
(-7.68772e-09 -2.63691e-08 9.69263e-09)
(-9.8877e-09 -3.42278e-08 1.29384e-08)
(-1.2277e-08 -4.2906e-08 1.67443e-08)
(-1.4965e-08 -5.27851e-08 2.1316e-08)
(-1.80705e-08 -6.42853e-08 2.68817e-08)
(-2.17243e-08 -7.7893e-08 3.36983e-08)
(-2.60678e-08 -9.41777e-08 4.20491e-08)
(-3.12494e-08 -1.13803e-07 5.22263e-08)
(-3.74174e-08 -1.37504e-07 6.44797e-08)
(-4.47183e-08 -1.65982e-07 7.88946e-08)
(-5.33177e-08 -1.99558e-07 9.51326e-08)
(-6.33511e-08 -2.36905e-07 1.11859e-07)
(-7.33302e-08 -2.69334e-07 1.24992e-07)
(-1.34416e-09 -4.47985e-09 1.61763e-09)
(-3.9168e-09 -1.3102e-08 4.76916e-09)
(-6.32635e-09 -2.13101e-08 7.8803e-09)
(-8.68889e-09 -2.95454e-08 1.11754e-08)
(-1.11115e-08 -3.81947e-08 1.48616e-08)
(-1.36985e-08 -4.7613e-08 1.91423e-08)
(-1.65563e-08 -5.81421e-08 2.42277e-08)
(-1.97973e-08 -7.01255e-08 3.03414e-08)
(-2.35404e-08 -8.39107e-08 3.77201e-08)
(-2.79109e-08 -9.9844e-08 4.66036e-08)
(-3.30361e-08 -1.18243e-07 5.72068e-08)
(-3.90373e-08 -1.39339e-07 6.96601e-08)
(-4.60211e-08 -1.63192e-07 8.38987e-08)
(-5.40658e-08 -1.89543e-07 9.9474e-08)
(-6.31295e-08 -2.17349e-07 1.152e-07)
(-7.18217e-08 -2.41451e-07 1.27806e-07)
(-1.46464e-09 -4.79917e-09 1.79886e-09)
(-4.26103e-09 -1.40244e-08 5.29841e-09)
(-6.85939e-09 -2.27688e-08 8.73677e-09)
(-9.37367e-09 -3.14768e-08 1.23518e-08)
(-1.19066e-08 -4.0522e-08 1.63587e-08)
(-1.4555e-08 -5.02259e-08 2.0963e-08)
(-1.74131e-08 -6.08655e-08 2.63689e-08)
(-2.05752e-08 -7.26748e-08 3.27839e-08)
(-2.41353e-08 -8.58283e-08 4.04143e-08)
(-2.81846e-08 -1.00405e-07 4.9451e-08)
(-3.28068e-08 -1.16319e-07 6.0039e-08)
(-3.80741e-08 -1.33218e-07 7.22229e-08)
(-4.40464e-08 -1.50341e-07 8.58572e-08)
(-5.07738e-08 -1.66442e-07 1.00468e-07)
(-5.8165e-08 -1.80032e-07 1.14961e-07)
(-6.46952e-08 -1.89818e-07 1.26414e-07)
(-1.54222e-09 -4.93129e-09 1.93917e-09)
(-4.47865e-09 -1.43993e-08 5.70572e-09)
(-7.18272e-09 -2.33379e-08 9.38795e-09)
(-9.75967e-09 -3.21748e-08 1.3229e-08)
(-1.2302e-08 -4.1257e-08 1.74448e-08)
(-1.48924e-08 -5.08582e-08 2.22346e-08)
(-1.76067e-08 -6.11828e-08 2.77898e-08)
(-2.05143e-08 -7.23533e-08 3.42946e-08)
(-2.36757e-08 -8.43807e-08 4.19206e-08)
(-2.71388e-08 -9.71081e-08 5.08111e-08)
(-3.09348e-08 -1.1012e-07 6.10528e-08)
(-3.50825e-08 -1.22599e-07 7.26305e-08)
(-3.96405e-08 -1.33137e-07 8.53634e-08)
(-4.49279e-08 -1.39539e-07 9.88199e-08)
(-5.21564e-08 -1.38984e-07 1.12129e-07)
(-6.31002e-08 -1.30472e-07 1.22973e-07)
(-1.62692e-10 -5.35436e-10 1.66168e-10)
(-4.76543e-10 -1.5708e-09 4.91226e-10)
(-7.78006e-10 -2.57217e-09 8.16399e-10)
(-1.08583e-09 -3.60447e-09 1.16811e-09)
(-1.41846e-09 -4.73136e-09 1.57246e-09)
(-1.79531e-09 -6.02147e-09 2.05758e-09)
(-2.23805e-09 -7.5554e-09 2.65635e-09)
(-2.77126e-09 -9.43419e-09 3.40963e-09)
(-3.42241e-09 -1.17886e-08 4.37086e-09)
(-4.21957e-09 -1.47886e-08 5.6132e-09)
(-5.18447e-09 -1.86473e-08 7.24182e-09)
(-6.31568e-09 -2.36056e-08 9.41579e-09)
(-7.55453e-09 -2.98619e-08 1.23854e-08)
(-8.73225e-09 -3.7363e-08 1.65341e-08)
(-9.54682e-09 -4.52885e-08 2.22704e-08)
(-9.7871e-09 -5.11017e-08 2.87491e-08)
(-4.79476e-10 -1.57531e-09 4.91301e-10)
(-1.40418e-09 -4.62103e-09 1.45226e-09)
(-2.29139e-09 -7.5641e-09 2.41282e-09)
(-3.19544e-09 -1.05925e-08 3.45026e-09)
(-4.16952e-09 -1.3889e-08 4.64031e-09)
(-5.26958e-09 -1.76488e-08 6.06409e-09)
(-6.55771e-09 -2.20992e-08 7.81538e-09)
(-8.10464e-09 -2.75222e-08 1.00091e-08)
(-9.98988e-09 -3.42811e-08 1.27927e-08)
(-1.22971e-08 -4.28468e-08 1.63622e-08)
(-1.50977e-08 -5.38106e-08 2.09862e-08)
(-1.84111e-08 -6.78512e-08 2.70406e-08)
(-2.21196e-08 -8.55612e-08 3.50409e-08)
(-2.58178e-08 -1.06928e-07 4.55845e-08)
(-2.86552e-08 -1.30001e-07 5.878e-08)
(-2.96325e-08 -1.47841e-07 7.14576e-08)
(-7.75387e-10 -2.53862e-09 7.99768e-10)
(-2.26932e-09 -7.443e-09 2.36292e-09)
(-3.69851e-09 -1.2171e-08 3.92218e-09)
(-5.14821e-09 -1.70169e-08 5.60069e-09)
(-6.70122e-09 -2.22624e-08 7.51788e-09)
(-8.44387e-09 -2.82022e-08 9.79968e-09)
(-1.04714e-08 -3.51722e-08 1.25887e-08)
(-1.28917e-08 -4.358e-08 1.6055e-08)
(-1.58271e-08 -5.39417e-08 2.04086e-08)
(-1.94102e-08 -6.69154e-08 2.59128e-08)
(-2.37687e-08 -8.33212e-08 3.28986e-08)
(-2.89861e-08 -1.04095e-07 4.17645e-08)
(-3.50199e-08 -1.30065e-07 5.292e-08)
(-4.15426e-08 -1.61239e-07 6.65179e-08)
(-4.76702e-08 -1.94918e-07 8.15385e-08)
(-5.16147e-08 -2.21022e-07 9.33224e-08)
(-1.03877e-09 -3.38171e-09 1.08224e-09)
(-3.0374e-09 -9.9082e-09 3.19545e-09)
(-4.94115e-09 -1.6179e-08 5.29701e-09)
(-6.85918e-09 -2.25704e-08 7.54875e-09)
(-8.89635e-09 -2.94345e-08 1.01054e-08)
(-1.11605e-08 -3.71282e-08 1.31265e-08)
(-1.37688e-08 -4.60433e-08 1.6788e-08)
(-1.68532e-08 -5.66388e-08 2.1292e-08)
(-2.05625e-08 -6.94733e-08 2.68756e-08)
(-2.50618e-08 -8.52372e-08 3.38146e-08)
(-3.05223e-08 -1.04762e-07 4.24152e-08)
(-3.70988e-08 -1.28968e-07 5.29717e-08)
(-4.48831e-08 -1.58611e-07 6.56339e-08)
(-5.38018e-08 -1.93497e-07 8.00562e-08)
(-6.33038e-08 -2.3032e-07 9.45738e-08)
(-7.11044e-08 -2.57678e-07 1.04685e-07)
(-1.26111e-09 -4.07111e-09 1.33185e-09)
(-3.68329e-09 -1.19187e-08 3.92944e-09)
(-5.97755e-09 -1.94285e-08 6.50295e-09)
(-8.26854e-09 -2.70309e-08 9.24451e-09)
(-1.06742e-08 -3.51168e-08 1.23345e-08)
(-1.33135e-08 -4.40656e-08 1.59547e-08)
(-1.6313e-08 -5.42711e-08 2.02985e-08)
(-1.98125e-08 -6.61668e-08 2.55797e-08)
(-2.3967e-08 -8.02453e-08 3.20341e-08)
(-2.89474e-08 -9.70712e-08 3.99134e-08)
(-3.49335e-08 -1.17271e-07 4.94578e-08)
(-4.2098e-08 -1.41463e-07 6.08255e-08)
(-5.05705e-08 -1.70039e-07 7.39333e-08)
(-6.03369e-08 -2.0252e-07 8.81259e-08)
(-7.08626e-08 -2.35795e-07 1.01564e-07)
(-7.95736e-08 -2.59971e-07 1.10346e-07)
(-1.43733e-09 -4.58389e-09 1.54417e-09)
(-4.19208e-09 -1.34082e-08 4.55168e-09)
(-6.78369e-09 -2.18159e-08 7.5186e-09)
(-9.34324e-09 -3.02629e-08 1.06582e-08)
(-1.19927e-08 -3.91499e-08 1.41674e-08)
(-1.48517e-08 -4.88434e-08 1.82387e-08)
(-1.80441e-08 -5.96951e-08 2.30711e-08)
(-2.17013e-08 -7.20525e-08 2.88734e-08)
(-2.59651e-08 -8.62599e-08 3.58636e-08)
(-3.09852e-08 -1.02641e-07 4.42535e-08)
(-3.69118e-08 -1.21452e-07 5.42133e-08)
(-4.38752e-08 -1.42787e-07 6.57938e-08)
(-5.19298e-08 -1.66389e-07 7.87744e-08)
(-6.08831e-08 -1.91287e-07 9.23817e-08)
(-6.97889e-08 -2.14955e-07 1.04806e-07)
(-7.58835e-08 -2.31248e-07 1.12613e-07)
(-1.56586e-09 -4.90762e-09 1.71712e-09)
(-4.55967e-09 -1.4343e-08 5.05664e-09)
(-7.35388e-09 -2.32925e-08 8.33545e-09)
(-1.00778e-08 -3.22141e-08 1.17798e-08)
(-1.28489e-08 -4.14942e-08 1.55943e-08)
(-1.57787e-08 -5.14615e-08 1.99737e-08)
(-1.89773e-08 -6.23977e-08 2.51116e-08)
(-2.25564e-08 -7.45334e-08 3.12031e-08)
(-2.66285e-08 -8.80266e-08 3.84391e-08)
(-3.13039e-08 -1.02916e-07 4.69903e-08)
(-3.66826e-08 -1.19033e-07 5.69713e-08)
(-4.28374e-08 -1.35858e-07 6.83728e-08)
(-4.97708e-08 -1.52314e-07 8.09408e-08)
(-5.72534e-08 -1.66546e-07 9.39473e-08)
(-6.42173e-08 -1.7601e-07 1.0572e-07)
(-6.74865e-08 -1.78943e-07 1.12922e-07)
(-1.64853e-09 -5.03954e-09 1.851e-09)
(-4.79187e-09 -1.47171e-08 5.4454e-09)
(-7.69947e-09 -2.38574e-08 8.95672e-09)
(-1.04917e-08 -3.29014e-08 1.26166e-08)
(-1.32748e-08 -4.22046e-08 1.66298e-08)
(-1.61452e-08 -5.20465e-08 2.11865e-08)
(-1.91924e-08 -6.26296e-08 2.64681e-08)
(-2.25e-08 -7.40661e-08 3.26491e-08)
(-2.61429e-08 -8.63402e-08 3.98909e-08)
(-3.01827e-08 -9.92421e-08 4.83255e-08)
(-3.46601e-08 -1.12256e-07 5.80256e-08)
(-3.9593e-08 -1.24388e-07 6.89565e-08)
(-4.50001e-08 -1.33917e-07 8.08987e-08)
(-5.10115e-08 -1.38128e-07 9.33231e-08)
(-5.80945e-08 -1.33497e-07 1.05109e-07)
(-6.62907e-08 -1.19134e-07 1.13744e-07)
(-1.7264e-10 -5.46771e-10 1.52187e-10)
(-5.0607e-10 -1.60436e-09 4.49805e-10)
(-8.27518e-10 -2.62808e-09 7.47294e-10)
(-1.15767e-09 -3.68488e-09 1.06874e-09)
(-1.51694e-09 -4.84028e-09 1.43776e-09)
(-1.92707e-09 -6.1647e-09 1.87965e-09)
(-2.41252e-09 -7.74051e-09 2.4236e-09)
(-3.00157e-09 -9.66964e-09 3.10506e-09)
(-3.72666e-09 -1.20822e-08 3.96927e-09)
(-4.62306e-09 -1.51425e-08 5.07565e-09)
(-5.72385e-09 -1.90475e-08 6.50551e-09)
(-7.04798e-09 -2.39995e-08 8.3745e-09)
(-8.5787e-09 -3.01168e-08 1.08515e-08)
(-1.02387e-08 -3.72078e-08 1.4171e-08)
(-1.18945e-08 -4.4293e-08 1.85276e-08)
(-1.33509e-08 -4.8952e-08 2.31976e-08)
(-5.08771e-10 -1.60854e-09 4.49969e-10)
(-1.49111e-09 -4.71919e-09 1.32978e-09)
(-2.43712e-09 -7.72771e-09 2.20866e-09)
(-3.4067e-09 -1.08276e-08 3.15686e-09)
(-4.45878e-09 -1.42068e-08 4.24302e-09)
(-5.6559e-09 -1.8066e-08 5.54013e-09)
(-7.06817e-09 -2.26368e-08 7.13126e-09)
(-8.7765e-09 -2.82043e-08 9.1163e-09)
(-1.08741e-08 -3.51294e-08 1.16196e-08)
(-1.34631e-08 -4.38678e-08 1.47993e-08)
(-1.66423e-08 -5.49669e-08 1.886e-08)
(-2.04742e-08 -6.89993e-08 2.40653e-08)
(-2.49152e-08 -8.63398e-08 3.07359e-08)
(-2.96908e-08 -1.06604e-07 3.91629e-08)
(-3.41143e-08 -1.27468e-07 4.91575e-08)
(-3.69249e-08 -1.42588e-07 5.82363e-08)
(-8.22684e-10 -2.59161e-09 7.32462e-10)
(-2.40965e-09 -7.59969e-09 2.16376e-09)
(-3.93344e-09 -1.24316e-08 3.59045e-09)
(-5.48806e-09 -1.73902e-08 5.12467e-09)
(-7.1653e-09 -2.27652e-08 6.87472e-09)
(-9.06156e-09 -2.8859e-08 8.95381e-09)
(-1.12839e-08 -3.60137e-08 1.14882e-08)
(-1.39552e-08 -4.46411e-08 1.46258e-08)
(-1.72165e-08 -5.52528e-08 1.85424e-08)
(-2.12241e-08 -6.84849e-08 2.3448e-08)
(-2.61348e-08 -8.5093e-08 2.95842e-08)
(-3.20667e-08 -1.05864e-07 3.72032e-08)
(-3.90112e-08 -1.31318e-07 4.64837e-08)
(-4.6651e-08 -1.60947e-07 5.72853e-08)
(-5.40058e-08 -1.91588e-07 6.85087e-08)
(-5.8851e-08 -2.1427e-07 7.67305e-08)
(-1.10199e-09 -3.45124e-09 9.91192e-10)
(-3.22479e-09 -1.01135e-08 2.92613e-09)
(-5.25424e-09 -1.65194e-08 4.84904e-09)
(-7.31079e-09 -2.30559e-08 6.9073e-09)
(-9.51065e-09 -3.00848e-08 9.24125e-09)
(-1.1974e-08 -3.79715e-08 1.19943e-08)
(-1.48326e-08 -4.71149e-08 1.53227e-08)
(-1.82351e-08 -5.79763e-08 1.94013e-08)
(-2.23508e-08 -7.11082e-08 2.4428e-08)
(-2.73667e-08 -8.71722e-08 3.06172e-08)
(-3.3475e-08 -1.06926e-07 3.81776e-08)
(-4.0838e-08 -1.31121e-07 4.72467e-08)
(-4.95136e-08 -1.6017e-07 5.77405e-08)
(-5.92987e-08 -1.93305e-07 6.9044e-08)
(-6.93694e-08 -2.26701e-07 7.94964e-08)
(-7.72271e-08 -2.50215e-07 8.59435e-08)
(-1.33767e-09 -4.15315e-09 1.21979e-09)
(-3.90986e-09 -1.21603e-08 3.59814e-09)
(-6.35521e-09 -1.98279e-08 5.95296e-09)
(-8.81126e-09 -2.75975e-08 8.45908e-09)
(-1.14089e-08 -3.58704e-08 1.12803e-08)
(-1.42806e-08 -4.50336e-08 1.45799e-08)
(-1.75683e-08 -5.54872e-08 1.85302e-08)
(-2.14287e-08 -6.76641e-08 2.33159e-08)
(-2.60358e-08 -8.20468e-08 2.91331e-08)
(-3.15774e-08 -9.9167e-08 3.61729e-08)
(-3.82413e-08 -1.19573e-07 4.45803e-08)
(-4.61778e-08 -1.43718e-07 5.43628e-08)
(-5.54183e-08 -1.71673e-07 6.52076e-08)
(-6.56993e-08 -2.02437e-07 7.61756e-08)
(-7.60835e-08 -2.32455e-07 8.53574e-08)
(-8.40098e-08 -2.53079e-07 9.01028e-08)
(-1.52431e-09 -4.67399e-09 1.41417e-09)
(-4.44926e-09 -1.36734e-08 4.16796e-09)
(-7.21105e-09 -2.22522e-08 6.8827e-09)
(-9.95482e-09 -3.08783e-08 9.75293e-09)
(-1.28159e-08 -3.99612e-08 1.29572e-08)
(-1.59279e-08 -4.98744e-08 1.66694e-08)
(-1.94292e-08 -6.09721e-08 2.10662e-08)
(-2.34674e-08 -7.35986e-08 2.63299e-08)
(-2.81996e-08 -8.80818e-08 3.26408e-08)
(-3.37869e-08 -1.04708e-07 4.01577e-08)
(-4.03762e-08 -1.23656e-07 4.89681e-08)
(-4.80542e-08 -1.44871e-07 5.89912e-08)
(-5.67364e-08 -1.6784e-07 6.97978e-08)
(-6.59069e-08 -1.91217e-07 8.03194e-08)
(-7.4125e-08 -2.12268e-07 8.85553e-08)
(-7.87632e-08 -2.26021e-07 9.2083e-08)
(-1.6604e-09 -5.0016e-09 1.5726e-09)
(-4.83873e-09 -1.4619e-08 4.63035e-09)
(-7.81613e-09 -2.37447e-08 7.63067e-09)
(-1.07361e-08 -3.28476e-08 1.07798e-08)
(-1.37295e-08 -4.23213e-08 1.42634e-08)
(-1.6921e-08 -5.24999e-08 1.8258e-08)
(-2.04344e-08 -6.36642e-08 2.29366e-08)
(-2.43948e-08 -7.60363e-08 2.84697e-08)
(-2.8927e-08 -8.97531e-08 3.50176e-08)
(-3.41475e-08 -1.04811e-07 4.27085e-08)
(-4.01465e-08 -1.20965e-07 5.15942e-08)
(-4.69472e-08 -1.37569e-07 6.15687e-08)
(-5.441e-08 -1.53357e-07 7.22215e-08)
(-6.19848e-08 -1.66281e-07 8.25935e-08)
(-6.81078e-08 -1.73919e-07 9.08354e-08)
(-6.9731e-08 -1.75708e-07 9.43681e-08)
(-1.74789e-09 -5.13351e-09 1.69527e-09)
(-5.0846e-09 -1.49922e-08 4.9864e-09)
(-8.18275e-09 -2.43064e-08 8.19975e-09)
(-1.11763e-08 -3.35258e-08 1.1546e-08)
(-1.41845e-08 -4.30127e-08 1.52124e-08)
(-1.73155e-08 -5.30479e-08 1.93705e-08)
(-2.06709e-08 -6.38308e-08 2.41838e-08)
(-2.4345e-08 -7.54608e-08 2.98067e-08)
(-2.84215e-08 -8.7897e-08 3.63767e-08)
(-3.29643e-08 -1.00884e-07 4.39962e-08)
(-3.80021e-08 -1.13832e-07 5.26989e-08)
(-4.35068e-08 -1.25637e-07 6.23937e-08)
(-4.93805e-08 -1.34442e-07 7.27815e-08)
(-5.55079e-08 -1.37464e-07 8.32388e-08)
(-6.20128e-08 -1.31517e-07 9.26652e-08)
(-6.91459e-08 -1.17011e-07 9.92544e-08)
(-1.81527e-10 -5.56239e-10 1.3267e-10)
(-5.32451e-10 -1.63227e-09 3.92047e-10)
(-8.71768e-10 -2.67439e-09 6.51133e-10)
(-1.22184e-09 -3.75091e-09 9.3071e-10)
(-1.60486e-09 -4.92855e-09 1.25108e-09)
(-2.04457e-09 -6.27871e-09 1.6337e-09)
(-2.56786e-09 -7.88402e-09 2.10272e-09)
(-3.20616e-09 -9.8457e-09 2.68676e-09)
(-3.99617e-09 -1.22902e-08 3.42045e-09)
(-4.9793e-09 -1.5373e-08 4.34662e-09)
(-6.19828e-09 -1.92716e-08 5.51905e-09)
(-7.68901e-09 -2.41498e-08 7.00692e-09)
(-9.46723e-09 -3.00582e-08 8.90144e-09)
(-1.15172e-08 -3.67022e-08 1.13164e-08)
(-1.37941e-08 -4.29912e-08 1.43165e-08)
(-1.6046e-08 -4.65957e-08 1.73779e-08)
(-5.34931e-10 -1.63621e-09 3.92257e-10)
(-1.56879e-09 -4.80096e-09 1.15911e-09)
(-2.56733e-09 -7.86322e-09 1.9245e-09)
(-3.59539e-09 -1.10206e-08 2.74926e-09)
(-4.71698e-09 -1.44646e-08 3.69237e-09)
(-6.00032e-09 -1.83982e-08 4.81558e-09)
(-7.5224e-09 -2.30543e-08 6.18794e-09)
(-9.37288e-09 -2.87157e-08 7.88977e-09)
(-1.16562e-08 -3.57339e-08 1.00162e-08)
(-1.44901e-08 -4.45405e-08 1.268e-08)
(-1.79953e-08 -5.56307e-08 1.60124e-08)
(-2.22681e-08 -6.94777e-08 2.01596e-08)
(-2.73194e-08 -8.62886e-08 2.5262e-08)
(-3.29552e-08 -1.05464e-07 3.13795e-08)
(-3.85469e-08 -1.2458e-07 3.82063e-08)
(-4.25617e-08 -1.3786e-07 4.40312e-08)
(-8.6495e-10 -2.63586e-09 6.38598e-10)
(-2.53501e-09 -7.73013e-09 1.88606e-09)
(-4.14331e-09 -1.26475e-08 3.12867e-09)
(-5.79158e-09 -1.7697e-08 4.46334e-09)
(-7.57947e-09 -2.31735e-08 5.98312e-09)
(-9.61199e-09 -2.93833e-08 7.78393e-09)
(-1.20066e-08 -3.66701e-08 9.97107e-09)
(-1.48983e-08 -4.54419e-08 1.26626e-08)
(-1.84433e-08 -5.61975e-08 1.5993e-08)
(-2.2816e-08 -6.95396e-08 2.01077e-08)
(-2.81943e-08 -8.61547e-08 2.51509e-08)
(-3.4718e-08 -1.06701e-07 3.12274e-08)
(-4.23943e-08 -1.31496e-07 3.83193e-08)
(-5.08943e-08 -1.59825e-07 4.61082e-08)
(-5.91319e-08 -1.88608e-07 5.36221e-08)
(-6.45522e-08 -2.09872e-07 5.86528e-08)
(-1.15848e-09 -3.50929e-09 8.64134e-10)
(-3.39219e-09 -1.02845e-08 2.55065e-09)
(-5.53396e-09 -1.68018e-08 4.22555e-09)
(-7.71413e-09 -2.34557e-08 6.01635e-09)
(-1.00588e-08 -3.06142e-08 8.04354e-09)
(-1.2699e-08 -3.86474e-08 1.04292e-08)
(-1.57783e-08 -4.79552e-08 1.33029e-08)
(-1.94594e-08 -5.8995e-08 1.68053e-08)
(-2.39267e-08 -7.23039e-08 2.10854e-08)
(-2.93826e-08 -8.8508e-08 2.62874e-08)
(-3.60291e-08 -1.08293e-07 3.25154e-08)
(-4.40228e-08 -1.32283e-07 3.97612e-08)
(-5.33795e-08 -1.60704e-07 4.77657e-08)
(-6.37899e-08 -1.92624e-07 5.5808e-08)
(-7.42567e-08 -2.24393e-07 6.25034e-08)
(-8.21619e-08 -2.4686e-07 6.60039e-08)
(-1.40604e-09 -4.22162e-09 1.06343e-09)
(-4.11234e-09 -1.23619e-08 3.13656e-09)
(-6.69265e-09 -2.01597e-08 5.18776e-09)
(-9.29607e-09 -2.8065e-08 7.36848e-09)
(-1.20646e-08 -3.64855e-08 9.81948e-09)
(-1.51425e-08 -4.5813e-08 1.26802e-08)
(-1.86841e-08 -5.64473e-08 1.60934e-08)
(-2.28599e-08 -6.88171e-08 2.02084e-08)
(-2.78568e-08 -8.33882e-08 2.51716e-08)
(-3.38721e-08 -1.00659e-07 3.11057e-08)
(-4.10902e-08 -1.21113e-07 3.80588e-08)
(-4.96284e-08 -1.45104e-07 4.59073e-08)
(-5.94275e-08 -1.72566e-07 5.41904e-08)
(-7.00549e-08 -2.02423e-07 6.18981e-08)
(-8.03912e-08 -2.31369e-07 6.74192e-08)
(-8.79809e-08 -2.51586e-07 6.93561e-08)
(-1.60206e-09 -4.74937e-09 1.23297e-09)
(-4.67908e-09 -1.38948e-08 3.6333e-09)
(-7.59303e-09 -2.26153e-08 5.9983e-09)
(-1.05012e-08 -3.13869e-08 8.49614e-09)
(-1.35508e-08 -4.06256e-08 1.1281e-08)
(-1.68871e-08 -5.07079e-08 1.45009e-08)
(-2.06607e-08 -6.19879e-08 1.8304e-08)
(-2.50313e-08 -7.48026e-08 2.2837e-08)
(-3.01661e-08 -8.94642e-08 2.82357e-08)
(-3.62298e-08 -1.06228e-07 3.45979e-08)
(-4.33559e-08 -1.25224e-07 4.19293e-08)
(-5.15818e-08 -1.4633e-07 5.00416e-08)
(-6.07093e-08 -1.68975e-07 5.83859e-08)
(-7.00321e-08 -1.91864e-07 6.58402e-08)
(-7.7948e-08 -2.12633e-07 7.06675e-08)
(-8.2073e-08 -2.26918e-07 7.15689e-08)
(-1.74489e-09 -5.08025e-09 1.37109e-09)
(-5.08817e-09 -1.48496e-08 4.03654e-09)
(-8.2294e-09 -2.41214e-08 6.65049e-09)
(-1.13244e-08 -3.33719e-08 9.39146e-09)
(-1.4516e-08 -4.30008e-08 1.24204e-08)
(-1.79398e-08 -5.33434e-08 1.58874e-08)
(-2.17307e-08 -6.46785e-08 1.99386e-08)
(-2.6024e-08 -7.72198e-08 2.47127e-08)
(-3.09516e-08 -9.10877e-08 3.03315e-08)
(-3.66296e-08 -1.06251e-07 3.68744e-08)
(-4.31306e-08 -1.22428e-07 4.43306e-08)
(-5.04262e-08 -1.38937e-07 5.25155e-08)
(-5.82703e-08 -1.54525e-07 6.0938e-08)
(-6.59527e-08 -1.67324e-07 6.86196e-08)
(-7.1815e-08 -1.75426e-07 7.39657e-08)
(-7.31006e-08 -1.78745e-07 7.53717e-08)
(-1.83668e-09 -5.21207e-09 1.47804e-09)
(-5.34642e-09 -1.52224e-08 4.34724e-09)
(-8.61493e-09 -2.46807e-08 7.14691e-09)
(-1.17886e-08 -3.40439e-08 1.00604e-08)
(-1.49974e-08 -4.36779e-08 1.32489e-08)
(-1.83601e-08 -5.38645e-08 1.68605e-08)
(-2.19875e-08 -6.47987e-08 2.10333e-08)
(-2.59821e-08 -7.65703e-08 2.58946e-08)
(-3.04321e-08 -8.91207e-08 3.15513e-08)
(-3.53988e-08 -1.02169e-07 3.80698e-08)
(-4.08924e-08 -1.15097e-07 4.54412e-08)
(-4.68405e-08 -1.26784e-07 5.35278e-08)
(-5.30629e-08 -1.35421e-07 6.19923e-08)
(-5.93461e-08 -1.38457e-07 7.02337e-08)
(-6.58438e-08 -1.33279e-07 7.7387e-08)
(-7.32223e-08 -1.2079e-07 8.2371e-08)
(-1.89044e-10 -5.6378e-10 1.08394e-10)
(-5.54767e-10 -1.6545e-09 3.20273e-10)
(-9.09177e-10 -2.71106e-09 5.31716e-10)
(-1.27607e-09 -3.80275e-09 7.59603e-10)
(-1.6791e-09 -4.99704e-09 1.02021e-09)
(-2.14364e-09 -6.36562e-09 1.33047e-09)
(-2.69858e-09 -7.99092e-09 1.70908e-09)
(-3.37791e-09 -9.97253e-09 2.17717e-09)
(-4.22174e-09 -1.24331e-08 2.759e-09)
(-5.27641e-09 -1.552e-08 3.48186e-09)
(-6.59225e-09 -1.93947e-08 4.37581e-09)
(-8.21808e-09 -2.41936e-08 5.47359e-09)
(-1.01927e-08 -2.99224e-08 6.81139e-09)
(-1.25397e-08 -3.62201e-08 8.42838e-09)
(-1.52628e-08 -4.19142e-08 1.03306e-08)
(-1.8057e-08 -4.47161e-08 1.21942e-08)
(-5.57063e-10 -1.65832e-09 3.20511e-10)
(-1.63445e-09 -4.86594e-09 9.46833e-10)
(-2.67739e-09 -7.97046e-09 1.57158e-09)
(-3.7548e-09 -1.11721e-08 2.2439e-09)
(-4.93489e-09 -1.46645e-08 3.01111e-09)
(-6.2906e-09 -1.86517e-08 3.92215e-09)
(-7.90453e-09 -2.33659e-08 5.0303e-09)
(-9.87322e-09 -2.90856e-08 6.39492e-09)
(-1.23103e-08 -3.61522e-08 8.0824e-09)
(-1.53455e-08 -4.49756e-08 1.01633e-08)
(-1.91169e-08 -5.6011e-08 1.27073e-08)
(-2.37464e-08 -6.9664e-08 1.57706e-08)
(-2.92837e-08 -8.60455e-08 1.93741e-08)
(-3.55854e-08 -1.04452e-07 2.34546e-08)
(-4.20453e-08 -1.22439e-07 2.77208e-08)
(-4.69267e-08 -1.34551e-07 3.11353e-08)
(-9.00666e-10 -2.67109e-09 5.21729e-10)
(-2.64098e-09 -7.83388e-09 1.54075e-09)
(-4.32067e-09 -1.28184e-08 2.55505e-09)
(-6.04794e-09 -1.7938e-08 3.64314e-09)
(-7.92892e-09 -2.34907e-08 4.87974e-09)
(-1.00759e-08 -2.97844e-08 6.34103e-09)
(-1.26142e-08 -3.71617e-08 8.10776e-09)
(-1.5689e-08 -4.60254e-08 1.02681e-08)
(-1.9468e-08 -5.68601e-08 1.29141e-08)
(-2.41397e-08 -7.02409e-08 1.61343e-08)
(-2.98978e-08 -8.68052e-08 1.99925e-08)
(-3.68987e-08 -1.07136e-07 2.44901e-08)
(-4.51621e-08 -1.31466e-07 2.94975e-08)
(-5.43515e-08 -1.59049e-07 3.46515e-08)
(-6.33062e-08 -1.86989e-07 3.92122e-08)
(-6.92346e-08 -2.07825e-07 4.19312e-08)
(-1.20622e-09 -3.55559e-09 7.06054e-10)
(-3.53371e-09 -1.04206e-08 2.08375e-09)
(-5.77035e-09 -1.70255e-08 3.45102e-09)
(-8.05478e-09 -2.37702e-08 4.91115e-09)
(-1.05214e-08 -3.10265e-08 6.56118e-09)
(-1.33098e-08 -3.91664e-08 8.49776e-09)
(-1.65733e-08 -4.85888e-08 1.08212e-08)
(-2.04854e-08 -5.97451e-08 1.36355e-08)
(-2.52421e-08 -7.31583e-08 1.70426e-08)
(-3.10565e-08 -8.94275e-08 2.1124e-08)
(-3.8138e-08 -1.09196e-07 2.59049e-08)
(-4.66394e-08 -1.3303e-07 3.12857e-08)
(-5.6551e-08 -1.61115e-07 3.6939e-08)
(-6.75032e-08 -1.92571e-07 4.21963e-08)
(-7.83967e-08 -2.24024e-07 4.60501e-08)
(-8.6505e-08 -2.46694e-07 4.76114e-08)
(-1.46387e-09 -4.27634e-09 8.68929e-10)
(-4.28349e-09 -1.25225e-08 2.56243e-09)
(-6.97787e-09 -2.0423e-08 4.23709e-09)
(-9.70559e-09 -2.84336e-08 6.01547e-09)
(-1.2618e-08 -3.69662e-08 8.01127e-09)
(-1.58686e-08 -4.64142e-08 1.03346e-08)
(-1.96222e-08 -5.7177e-08 1.30972e-08)
(-2.40591e-08 -6.96766e-08 1.64088e-08)
(-2.93762e-08 -8.43671e-08 2.03692e-08)
(-3.57767e-08 -1.01725e-07 2.50422e-08)
(-4.34416e-08 -1.22209e-07 3.04067e-08)
(-5.24664e-08 -1.46144e-07 3.62715e-08)
(-6.27389e-08 -1.73486e-07 4.21507e-08)
(-7.37408e-08 -2.03293e-07 4.71537e-08)
(-8.42699e-08 -2.32566e-07 5.01105e-08)
(-9.1884e-08 -2.53628e-07 5.04956e-08)
(-1.66778e-09 -4.80958e-09 1.00742e-09)
(-4.87343e-09 -1.40714e-08 2.96845e-09)
(-7.91594e-09 -2.29038e-08 4.89937e-09)
(-1.09629e-08 -3.17889e-08 6.93694e-09)
(-1.41712e-08 -4.11464e-08 9.20521e-09)
(-1.76957e-08 -5.13547e-08 1.18225e-08)
(-2.16964e-08 -6.27659e-08 1.49038e-08)
(-2.63423e-08 -7.57121e-08 1.8559e-08)
(-3.18076e-08 -9.04954e-08 2.28798e-08)
(-3.82585e-08 -1.07358e-07 2.79136e-08)
(-4.58184e-08 -1.26418e-07 3.3611e-08)
(-5.44935e-08 -1.47567e-07 3.97386e-08)
(-6.40251e-08 -1.70311e-07 4.5754e-08)
(-7.36273e-08 -1.9357e-07 5.06887e-08)
(-8.16537e-08 -2.15308e-07 5.32655e-08)
(-8.57916e-08 -2.31067e-07 5.29755e-08)
(-1.81636e-09 -5.14314e-09 1.12035e-09)
(-5.29918e-09 -1.50338e-08 3.29809e-09)
(-8.57886e-09 -2.44212e-08 5.43254e-09)
(-1.18219e-08 -3.37874e-08 7.66902e-09)
(-1.51802e-08 -4.35351e-08 1.01369e-08)
(-1.8799e-08 -5.4001e-08 1.29572e-08)
(-2.28216e-08 -6.54616e-08 1.62439e-08)
(-2.73908e-08 -7.81254e-08 2.01015e-08)
(-3.26434e-08 -9.21045e-08 2.46141e-08)
(-3.86942e-08 -1.0736e-07 2.98197e-08)
(-4.56032e-08 -1.23614e-07 3.56668e-08)
(-5.3312e-08 -1.40224e-07 4.1944e-08)
(-6.15265e-08 -1.56057e-07 4.81827e-08)
(-6.94917e-08 -1.69512e-07 5.35611e-08)
(-7.55661e-08 -1.79033e-07 5.69236e-08)
(-7.70648e-08 -1.8428e-07 5.74104e-08)
(-1.91185e-09 -5.27505e-09 1.20789e-09)
(-5.5679e-09 -1.54064e-08 3.55207e-09)
(-8.98061e-09 -2.49792e-08 5.83864e-09)
(-1.23063e-08 -3.44549e-08 8.21607e-09)
(-1.56844e-08 -4.42027e-08 1.08156e-08)
(-1.92417e-08 -5.4504e-08 1.37557e-08)
(-2.30966e-08 -6.55514e-08 1.71455e-08)
(-2.73573e-08 -7.74288e-08 2.10821e-08)
(-3.21152e-08 -9.00706e-08 2.56414e-08)
(-3.74285e-08 -1.03192e-07 3.08579e-08)
(-4.32958e-08 -1.16183e-07 3.66952e-08)
(-4.96205e-08 -1.27972e-07 4.30009e-08)
(-5.61936e-08 -1.36879e-07 4.94634e-08)
(-6.28009e-08 -1.40617e-07 5.56024e-08)
(-6.96951e-08 -1.36907e-07 6.08602e-08)
(-7.76786e-08 -1.26403e-07 6.46945e-08)
(-1.94922e-10 -5.69406e-10 8.02644e-11)
(-5.72208e-10 -1.671e-09 2.37097e-10)
(-9.38417e-10 -2.7382e-09 3.93539e-10)
(-1.31844e-09 -3.84087e-09 5.61928e-10)
(-1.73705e-09 -5.04688e-09 7.54121e-10)
(-2.22088e-09 -6.42802e-09 9.82296e-10)
(-2.80035e-09 -8.06623e-09 1.25949e-09)
(-3.51136e-09 -1.00597e-08 1.59993e-09)
(-4.39665e-09 -1.25281e-08 2.01883e-09)
(-5.50626e-09 -1.56128e-08 2.53147e-09)
(-6.89638e-09 -1.94653e-08 3.15168e-09)
(-8.62537e-09 -2.42053e-08 3.88986e-09)
(-1.07482e-08 -2.98115e-08 4.75246e-09)
(-1.33142e-08 -3.58787e-08 5.74347e-09)
(-1.63542e-08 -4.11659e-08 6.85311e-09)
(-1.95164e-08 -4.33861e-08 7.90945e-09)
(-5.74355e-10 -1.67474e-09 2.37297e-10)
(-1.68579e-09 -4.91428e-09 7.01006e-10)
(-2.7634e-09 -8.04985e-09 1.1632e-09)
(-3.87931e-09 -1.12836e-08 1.66001e-09)
(-5.10498e-09 -1.48102e-08 2.22592e-09)
(-6.51691e-09 -1.8834e-08 2.89603e-09)
(-8.20191e-09 -2.35858e-08 3.70753e-09)
(-1.02619e-08 -2.93408e-08 4.70052e-09)
(-1.28172e-08 -3.6432e-08 5.9162e-09)
(-1.6007e-08 -4.52548e-08 7.39351e-09)
(-1.99827e-08 -5.624e-08 9.16062e-09)
(-2.48859e-08 -6.97563e-08 1.12231e-08)
(-3.07956e-08 -8.58659e-08 1.35466e-08)
(-3.7603e-08 -1.03812e-07 1.60349e-08)
(-4.47091e-08 -1.21117e-07 1.84751e-08)
(-5.02136e-08 -1.3246e-07 2.03156e-08)
(-9.28591e-10 -2.69737e-09 3.86342e-10)
(-2.72381e-09 -7.91102e-09 1.14073e-09)
(-4.45927e-09 -1.2945e-08 1.89119e-09)
(-6.24817e-09 -1.81154e-08 2.69535e-09)
(-8.20167e-09 -2.37221e-08 3.60769e-09)
(-1.04373e-08 -3.00733e-08 4.68275e-09)
(-1.3087e-08 -3.75103e-08 5.97749e-09)
(-1.6303e-08 -4.64309e-08 7.55062e-09)
(-2.0262e-08 -5.73096e-08 9.45951e-09)
(-2.51631e-08 -7.07043e-08 1.17496e-08)
(-3.12133e-08 -8.72265e-08 1.44361e-08)
(-3.85841e-08 -1.07428e-07 1.74715e-08)
(-4.73107e-08 -1.31521e-07 2.07014e-08)
(-5.70586e-08 -1.58781e-07 2.38168e-08)
(-6.66157e-08 -1.8643e-07 2.63288e-08)
(-7.29917e-08 -2.07189e-07 2.76274e-08)
(-1.24355e-09 -3.59009e-09 5.22815e-10)
(-3.64432e-09 -1.05219e-08 1.54279e-09)
(-5.95508e-09 -1.71914e-08 2.55451e-09)
(-8.32089e-09 -2.40021e-08 3.63382e-09)
(-1.08824e-08 -3.1328e-08 4.85146e-09)
(-1.37858e-08 -3.95417e-08 6.27696e-09)
(-1.71919e-08 -4.90408e-08 7.98081e-09)
(-2.1282e-08 -6.02719e-08 1.00328e-08)
(-2.6261e-08 -7.37487e-08 1.24952e-08)
(-3.23509e-08 -9.00569e-08 1.54058e-08)
(-3.97683e-08 -1.09823e-07 1.87469e-08)
(-4.86697e-08 -1.33608e-07 2.23935e-08)
(-5.904e-08 -1.61622e-07 2.60473e-08)
(-7.0485e-08 -1.93087e-07 2.91925e-08)
(-8.18422e-08 -2.24802e-07 3.11845e-08)
(-9.02507e-08 -2.47993e-07 3.17003e-08)
(-1.50906e-09 -4.31715e-09 6.43408e-10)
(-4.41731e-09 -1.26422e-08 1.89735e-09)
(-7.20081e-09 -2.06185e-08 3.13658e-09)
(-1.00256e-08 -2.87059e-08 4.45142e-09)
(-1.30499e-08 -3.73186e-08 5.92457e-09)
(-1.64347e-08 -4.68512e-08 7.63598e-09)
(-2.03521e-08 -5.77013e-08 9.66364e-09)
(-2.49904e-08 -7.02876e-08 1.20821e-08)
(-3.05536e-08 -8.50577e-08 1.49513e-08)
(-3.72502e-08 -1.02482e-07 1.82959e-08)
(-4.52627e-08 -1.23018e-07 2.20647e-08)
(-5.46796e-08 -1.47016e-07 2.60677e-08)
(-6.53707e-08 -1.74507e-07 2.9897e-08)
(-7.67861e-08 -2.04706e-07 3.2888e-08)
(-8.76767e-08 -2.34792e-07 3.42946e-08)
(-9.55201e-08 -2.5689e-07 3.40455e-08)
(-1.71918e-09 -4.85454e-09 7.46053e-10)
(-5.02541e-09 -1.42031e-08 2.19804e-09)
(-8.16841e-09 -2.31185e-08 3.62717e-09)
(-1.13237e-08 -3.20864e-08 5.13382e-09)
(-1.46556e-08 -4.15296e-08 6.80888e-09)
(-1.83261e-08 -5.18268e-08 8.73788e-09)
(-2.25027e-08 -6.33295e-08 1.10023e-08)
(-2.73609e-08 -7.63669e-08 1.36763e-08)
(-3.30804e-08 -9.1238e-08 1.68157e-08)
(-3.983e-08 -1.08186e-07 2.0435e-08)
(-4.77302e-08 -1.27346e-07 2.44661e-08)
(-5.67765e-08 -1.48658e-07 2.86957e-08)
(-6.66926e-08 -1.71746e-07 3.26848e-08)
(-7.6673e-08 -1.9572e-07 3.57245e-08)